/*--------------------------------*- C++ -*----------------------------------*\
| =========                 |                                                 |
| \\      /  F ield         | OpenFOAM: The Open Source CFD Toolbox           |
|  \\    /   O peration     | Version:  4.1                                   |
|   \\  /    A nd           | Web:      www.OpenFOAM.org                      |
|    \\/     M anipulation  |                                                 |
\*---------------------------------------------------------------------------*/
FoamFile
{
    version     2.0;
    format      ascii;
    class       volVectorField;
    location    "0.56";
    object      U;
}
// * * * * * * * * * * * * * * * * * * * * * * * * * * * * * * * * * * * * * //

dimensions      [0 1 -1 0 0 0 0];

internalField   nonuniform List<vector> 
52500
(
(1.80422 2.68693e-05 -0.00221554)
(1.82557 0.000200215 -0.0021404)
(1.81131 0.000425471 -0.00224499)
(1.72303 0.00107254 -0.00277166)
(1.27817 0.00392115 -0.00508453)
(0.0862572 0.0170972 -0.0100005)
(-0.455129 0.0283399 -0.0117726)
(-0.0671495 0.0210685 -0.0103228)
(0.0503232 0.0232152 -0.0100353)
(-0.0925559 0.024959 -0.00960091)
(-0.0663946 0.0229966 -0.00851755)
(-0.039489 0.0215895 -0.0081989)
(-0.0324597 0.0209069 -0.00820821)
(-0.0238478 0.0211768 -0.00848035)
(-0.0145994 0.0220332 -0.00867252)
(-0.00710607 0.0232352 -0.00854327)
(0.00598263 0.0242155 -0.00821929)
(0.0222897 0.0253544 -0.00791857)
(0.0442101 0.0263913 -0.00780748)
(0.0662134 0.0273119 -0.00777028)
(0.0849632 0.0281851 -0.00767708)
(0.0883107 0.0291028 -0.00760503)
(0.0957765 0.0296043 -0.00756721)
(0.0522463 0.0310486 -0.00749856)
(0.0355424 0.0312092 -0.00720701)
(1.80454 8.35758e-05 -0.00221441)
(1.826 0.000621018 -0.00213719)
(1.8121 0.00132236 -0.00223945)
(1.72605 0.00335216 -0.00275341)
(1.29258 0.0124422 -0.00502318)
(0.102212 0.0536312 -0.00988938)
(-0.454676 0.0807621 -0.0117377)
(-0.0763942 0.0526338 -0.0102972)
(0.0521311 0.0570194 -0.00999297)
(-0.0922279 0.0583011 -0.00957824)
(-0.066351 0.0516966 -0.00849356)
(-0.0380485 0.0486044 -0.00816812)
(-0.0302634 0.0471858 -0.00817469)
(-0.0211363 0.0477918 -0.00843854)
(-0.0113377 0.0489816 -0.00864134)
(-0.0039044 0.0507086 -0.00851655)
(0.00912162 0.0523571 -0.00819226)
(0.025456 0.0547252 -0.0078839)
(0.0470055 0.0569229 -0.00777027)
(0.0684924 0.0587528 -0.00773376)
(0.0867313 0.0605719 -0.00764119)
(0.0894374 0.0626011 -0.00757025)
(0.0965465 0.0633727 -0.00753318)
(0.0526215 0.0651295 -0.00746731)
(0.0355944 0.064424 -0.00717559)
(1.8052 0.000138908 -0.00221204)
(1.82692 0.00103487 -0.00213054)
(1.8138 0.00220115 -0.00222781)
(1.73271 0.00556669 -0.00271423)
(1.32571 0.0207553 -0.00488268)
(0.143727 0.089424 -0.00964731)
(-0.447468 0.138882 -0.0117314)
(-0.0902558 0.0875351 -0.0102978)
(0.0629485 0.0956467 -0.00995469)
(-0.0872914 0.0977784 -0.00959572)
(-0.064204 0.0872026 -0.008492)
(-0.0346065 0.0829565 -0.0081333)
(-0.0261488 0.0813489 -0.0081309)
(-0.0170016 0.0827326 -0.00837802)
(-0.00684045 0.0850542 -0.00860709)
(0.00097201 0.0880851 -0.00849349)
(0.0144634 0.0908039 -0.00817105)
(0.0307591 0.0946527 -0.00785008)
(0.051503 0.0984708 -0.00773286)
(0.0724344 0.101343 -0.00769807)
(0.0903853 0.104337 -0.00760805)
(0.0922724 0.107703 -0.00753843)
(0.0985075 0.109447 -0.00749968)
(0.0536194 0.112109 -0.00744043)
(0.0357928 0.110496 -0.00715069)
(1.80617 0.000183789 -0.00220859)
(1.82826 0.00137514 -0.00212086)
(1.81623 0.00291132 -0.00221104)
(1.74223 0.00728015 -0.00265818)
(1.37304 0.0269657 -0.0046748)
(0.208708 0.115293 -0.00929844)
(-0.432805 0.197456 -0.0117333)
(-0.113043 0.123586 -0.0103011)
(0.0792291 0.131794 -0.00990181)
(-0.0801613 0.138328 -0.00964309)
(-0.0612327 0.122522 -0.00851689)
(-0.0298678 0.116097 -0.00810151)
(-0.0206895 0.113786 -0.00808868)
(-0.0110969 0.115475 -0.00831741)
(3.44295e-05 0.119074 -0.00856978)
(0.00816221 0.123828 -0.00846669)
(0.0219979 0.127965 -0.00815301)
(0.0385152 0.13318 -0.00781575)
(0.0581434 0.138654 -0.00769493)
(0.0780847 0.14293 -0.00766144)
(0.0957054 0.147195 -0.00757474)
(0.0967658 0.152331 -0.00750637)
(0.102175 0.155837 -0.0074699)
(0.0557174 0.16048 -0.0074184)
(0.03625 0.158999 -0.00713134)
(1.80737 0.000217003 -0.00220431)
(1.8299 0.00163029 -0.00210888)
(1.81919 0.00342917 -0.00219054)
(1.75368 0.00844493 -0.00259058)
(1.42909 0.0308796 -0.00440285)
(0.297155 0.129924 -0.00886357)
(-0.410487 0.255993 -0.0117171)
(-0.145816 0.162119 -0.0103137)
(0.0995005 0.163409 -0.00984255)
(-0.0692806 0.180291 -0.00968426)
(-0.058546 0.158113 -0.0085549)
(-0.0244379 0.14903 -0.00806303)
(-0.0142 0.146113 -0.00802972)
(-0.00432394 0.147988 -0.00822558)
(0.00814735 0.152629 -0.00851248)
(0.0171738 0.158934 -0.00843316)
(0.0314827 0.164643 -0.00813542)
(0.0480659 0.170957 -0.00778266)
(0.0665991 0.177544 -0.00765573)
(0.0855888 0.183682 -0.00762068)
(0.103142 0.189534 -0.00753972)
(0.103731 0.197079 -0.00747099)
(0.108238 0.203033 -0.00743475)
(0.059925 0.210904 -0.00739388)
(0.0376325 0.211278 -0.00709384)
(1.80873 0.000238745 -0.00219944)
(1.83178 0.00180584 -0.00209523)
(1.82248 0.0037674 -0.00216754)
(1.76615 0.00909668 -0.00251538)
(1.4887 0.0325666 -0.00408812)
(0.407765 0.13501 -0.00837568)
(-0.374195 0.313254 -0.0116865)
(-0.188763 0.204672 -0.0103554)
(0.120463 0.191401 -0.00978199)
(-0.0524155 0.223341 -0.00971864)
(-0.05663 0.193999 -0.00861787)
(-0.0183055 0.181778 -0.00802543)
(-0.00667699 0.178241 -0.00796536)
(0.00357805 0.179921 -0.00811967)
(0.0177338 0.185766 -0.00844273)
(0.027996 0.193701 -0.00839341)
(0.0427047 0.200988 -0.00811858)
(0.0591943 0.208218 -0.00775332)
(0.076864 0.215962 -0.00761419)
(0.0952073 0.224226 -0.00757493)
(0.11287 0.232265 -0.00749931)
(0.113428 0.242603 -0.00743485)
(0.117346 0.251344 -0.00740096)
(0.0676172 0.263173 -0.00735438)
(0.0407515 0.267427 -0.00704924)
(1.8102 0.000249306 -0.0021942)
(1.83378 0.0019029 -0.00208057)
(1.8259 0.00393131 -0.0021433)
(1.77874 0.00926013 -0.00243804)
(1.5478 0.0321593 -0.00376221)
(0.539425 0.133622 -0.00783734)
(-0.318385 0.365421 -0.0115571)
(-0.239677 0.253633 -0.0104321)
(0.14004 0.217214 -0.00972568)
(-0.0291014 0.266082 -0.0097248)
(-0.0558259 0.230625 -0.00871262)
(-0.0114179 0.214543 -0.00799537)
(0.00195835 0.21027 -0.00789244)
(0.0125187 0.211209 -0.00799227)
(0.0283532 0.218309 -0.00834694)
(0.040414 0.228015 -0.00834301)
(0.0555381 0.236928 -0.00810362)
(0.071955 0.244869 -0.00772828)
(0.089125 0.254068 -0.00756886)
(0.107251 0.264663 -0.00752476)
(0.125364 0.275556 -0.0074522)
(0.126162 0.289577 -0.00738912)
(0.129754 0.302041 -0.00735281)
(0.0797537 0.318458 -0.00731224)
(0.0468533 0.328395 -0.00699135)
(1.81172 0.00024906 -0.00218881)
(1.83584 0.00192519 -0.00206548)
(1.82928 0.00393758 -0.00211903)
(1.79067 0.00904233 -0.00236402)
(1.6031 0.0301706 -0.00344738)
(0.704224 0.125265 -0.00715471)
(-0.2432 0.407868 -0.011309)
(-0.292832 0.311057 -0.0105169)
(0.152859 0.241734 -0.00968507)
(0.00177376 0.306765 -0.00972657)
(-0.0554383 0.268878 -0.00883677)
(-0.00377056 0.247505 -0.00797603)
(0.0116246 0.242294 -0.00781482)
(0.0225638 0.241846 -0.00786529)
(0.0401664 0.250119 -0.00822692)
(0.054583 0.261574 -0.00828692)
(0.0697361 0.272229 -0.00808764)
(0.086449 0.280697 -0.00771118)
(0.103627 0.291613 -0.00751662)
(0.122038 0.304777 -0.0074683)
(0.141324 0.319106 -0.00739677)
(0.143059 0.33802 -0.0073322)
(0.146765 0.356793 -0.00729011)
(0.0978012 0.38046 -0.00724429)
(0.0570148 0.400662 -0.00690505)
(1.81322 0.00023845 -0.00218349)
(1.83787 0.00187552 -0.0020504)
(1.83252 0.00380305 -0.00209542)
(1.80147 0.00854884 -0.00229629)
(1.65184 0.0273126 -0.00316679)
(0.899967 0.112676 -0.00642534)
(-0.149387 0.433484 -0.0109476)
(-0.33915 0.377734 -0.0106323)
(0.151021 0.267757 -0.00966358)
(0.0413722 0.34046 -0.00970759)
(-0.0543548 0.311976 -0.00898483)
(0.00424311 0.280748 -0.00797703)
(0.0223379 0.274348 -0.00772998)
(0.0336916 0.272356 -0.00774205)
(0.0527655 0.281181 -0.00806838)
(0.0700871 0.294033 -0.00821759)
(0.0850983 0.306689 -0.00806295)
(0.102764 0.315662 -0.00771456)
(0.120677 0.328323 -0.00746622)
(0.139876 0.344074 -0.00740285)
(0.161475 0.362245 -0.00732567)
(0.166107 0.387108 -0.00725446)
(0.171484 0.416188 -0.00720497)
(0.1271 0.453167 -0.00713831)
(0.0755943 0.49542 -0.00674901)
(1.81466 0.000219253 -0.00217842)
(1.8398 0.00176006 -0.00203577)
(1.83552 0.00354414 -0.00207302)
(1.81099 0.00782618 -0.00223543)
(1.69455 0.0240083 -0.00291944)
(1.10802 0.0991557 -0.00568386)
(-0.0282143 0.428613 -0.0103676)
(-0.365636 0.454034 -0.0108061)
(0.124527 0.299529 -0.00969179)
(0.0886241 0.362873 -0.00966452)
(-0.0466685 0.358832 -0.00912909)
(0.0100764 0.315258 -0.00801428)
(0.0343912 0.30623 -0.00764335)
(0.0457871 0.30306 -0.00761852)
(0.0657052 0.311348 -0.00787775)
(0.0866769 0.325235 -0.00813347)
(0.101628 0.339656 -0.00802764)
(0.120642 0.349843 -0.0077375)
(0.140165 0.363741 -0.00741197)
(0.160872 0.381747 -0.00732424)
(0.1863 0.404207 -0.00725881)
(0.197539 0.435603 -0.00717182)
(0.209103 0.478014 -0.00707856)
(0.179014 0.541937 -0.00697121)
(0.111652 0.646736 -0.0064658)
(1.80421 2.70984e-05 -1.04392e-08)
(1.82556 0.000201609 -4.5044e-08)
(1.81129 0.000428565 -6.44164e-08)
(1.72295 0.00108137 -1.56738e-07)
(1.27782 0.00395893 -5.11974e-07)
(0.0858438 0.0172987 -1.29788e-06)
(-0.455315 0.0284536 6.9249e-07)
(-0.0671253 0.0211401 2.0325e-07)
(0.050081 0.0233486 -4.58342e-07)
(-0.0927207 0.0249052 3.91123e-07)
(-0.0663929 0.022939 3.23671e-07)
(-0.0394186 0.0215811 1.91478e-07)
(-0.0323876 0.0209451 2.38636e-07)
(-0.023801 0.0212327 2.24061e-07)
(-0.0145878 0.0220622 2.20036e-07)
(-0.00711434 0.0232372 2.19038e-07)
(0.00596556 0.0242111 2.11576e-07)
(0.0222713 0.0253528 2.09973e-07)
(0.0442018 0.0263889 2.03982e-07)
(0.0662152 0.0273084 1.76173e-07)
(0.0849764 0.0281789 1.25168e-07)
(0.0883331 0.029094 3.56444e-08)
(0.0958044 0.0295932 -4.89256e-08)
(0.0522767 0.0310358 -1.29433e-07)
(0.0355621 0.031201 -1.9017e-07)
(1.80453 8.36576e-05 -9.19043e-09)
(1.82599 0.000621692 -3.85829e-08)
(1.81209 0.00132388 -5.42932e-08)
(1.72601 0.00335653 -1.2646e-07)
(1.29244 0.0124608 -3.82807e-07)
(0.102237 0.0537056 -8.72126e-07)
(-0.454081 0.0807029 3.64097e-07)
(-0.0757001 0.0525604 4.42817e-07)
(0.0526708 0.0569238 -2.13788e-07)
(-0.0918033 0.0581362 1.16789e-07)
(-0.0658326 0.0516141 2.46049e-07)
(-0.037644 0.0485945 2.10107e-07)
(-0.0300087 0.0472166 2.55819e-07)
(-0.0210359 0.0478198 2.39523e-07)
(-0.011315 0.0490191 2.3738e-07)
(-0.00390829 0.0507484 2.35961e-07)
(0.00910941 0.0523868 1.96872e-07)
(0.0254372 0.0547365 2.21527e-07)
(0.046993 0.0569236 2.17124e-07)
(0.0684889 0.0587479 1.87742e-07)
(0.0867379 0.0605598 1.40201e-07)
(0.0894521 0.0625819 5.20078e-08)
(0.0965664 0.0633465 -3.20148e-08)
(0.0526431 0.0650942 -1.28798e-07)
(0.0356135 0.0643949 -2.02416e-07)
(1.80519 0.000138835 -8.81017e-09)
(1.82691 0.00103406 -3.68443e-08)
(1.81378 0.00219931 -5.19225e-08)
(1.73264 0.00556095 -1.205e-07)
(1.32546 0.0207284 -3.64213e-07)
(0.143394 0.0892847 -7.93079e-07)
(-0.44752 0.138795 1.59207e-07)
(-0.0900556 0.0875123 4.78927e-07)
(0.062818 0.0954657 4.29247e-08)
(-0.0874439 0.09775 -6.13057e-08)
(-0.0642731 0.0872597 2.01123e-07)
(-0.0346981 0.083079 2.25222e-07)
(-0.0262423 0.0814832 2.80623e-07)
(-0.0170506 0.0828291 2.76654e-07)
(-0.00688618 0.0851237 2.52794e-07)
(0.000921195 0.0881375 2.27873e-07)
(0.0144093 0.0908428 2.12405e-07)
(0.0307144 0.0946629 2.15289e-07)
(0.0514804 0.0984697 2.24524e-07)
(0.0724252 0.101334 1.94072e-07)
(0.0903879 0.104319 1.54239e-07)
(0.092285 0.107674 6.52375e-08)
(0.0985245 0.109407 -6.29912e-09)
(0.0536381 0.112055 -1.30444e-07)
(0.0358085 0.110452 -2.12459e-07)
(1.80616 0.000183944 -8.46523e-09)
(1.82824 0.00137544 -3.68092e-08)
(1.81621 0.0029119 -5.24427e-08)
(1.74216 0.00728078 -1.26373e-07)
(1.37272 0.0269618 -4.23287e-07)
(0.208305 0.115261 -1.18459e-06)
(-0.432883 0.197385 2.31012e-07)
(-0.112892 0.123603 4.53589e-07)
(0.0789734 0.131682 2.2897e-07)
(-0.0803637 0.138285 -2.00583e-07)
(-0.0614204 0.122576 1.45701e-07)
(-0.0300983 0.116232 2.49914e-07)
(-0.0209623 0.113947 2.61326e-07)
(-0.0113447 0.115614 2.48025e-07)
(-0.000161187 0.119165 2.64545e-07)
(0.00803408 0.123871 2.30724e-07)
(0.0219075 0.127985 2.39929e-07)
(0.0384509 0.133179 2.17718e-07)
(0.058113 0.138649 2.45361e-07)
(0.0780694 0.142918 2.10503e-07)
(0.0957022 0.147171 1.74796e-07)
(0.0967732 0.152295 9.30956e-08)
(0.102185 0.155788 2.13832e-08)
(0.0557313 0.160412 -1.15641e-07)
(0.0362606 0.15894 -2.14996e-07)
(1.80736 0.000217231 -8.01891e-09)
(1.82989 0.00163138 -3.52139e-08)
(1.81917 0.00343148 -5.03634e-08)
(1.75361 0.0084502 -1.21969e-07)
(1.4288 0.0308948 -4.32923e-07)
(0.296711 0.129986 -1.27821e-06)
(-0.41056 0.255938 1.96125e-07)
(-0.145645 0.162123 5.47053e-07)
(0.0992206 0.163426 2.58604e-07)
(-0.0695337 0.180229 -2.00401e-07)
(-0.0588228 0.158136 1.05587e-07)
(-0.0247978 0.149081 2.71885e-07)
(-0.0146062 0.146135 3.17923e-07)
(-0.00466888 0.147975 3.317e-07)
(0.00787176 0.152609 2.89647e-07)
(0.0169885 0.158915 2.48788e-07)
(0.0313645 0.164631 2.43046e-07)
(0.047994 0.170944 2.41821e-07)
(0.0665644 0.177527 2.60215e-07)
(0.085567 0.18366 2.38545e-07)
(0.103133 0.1895 2.02091e-07)
(0.103732 0.197034 1.27856e-07)
(0.108239 0.202974 5.52444e-08)
(0.0599311 0.210826 -9.10115e-08)
(0.0376356 0.211209 -1.98338e-07)
(1.80873 0.000239042 -7.74335e-09)
(1.83177 0.00180737 -3.3936e-08)
(1.82246 0.0037706 -4.83532e-08)
(1.76609 0.00910404 -1.18193e-07)
(1.48845 0.0325909 -4.26971e-07)
(0.407297 0.135096 -1.22558e-06)
(-0.374304 0.31325 -3.91412e-08)
(-0.188571 0.204701 7.55689e-07)
(0.120172 0.19154 2.16037e-07)
(-0.0527277 0.223349 -2.20534e-07)
(-0.0568653 0.194063 -8.27966e-08)
(-0.0186564 0.181807 1.99513e-07)
(-0.00704983 0.178203 2.34331e-07)
(0.00329926 0.179842 2.67558e-07)
(0.0175189 0.185669 2.53025e-07)
(0.0278474 0.193616 2.51749e-07)
(0.0425997 0.200933 2.60442e-07)
(0.0591175 0.208187 2.58203e-07)
(0.0768249 0.215926 2.79034e-07)
(0.095181 0.224187 2.72358e-07)
(0.112854 0.232221 2.38117e-07)
(0.113422 0.242548 1.59916e-07)
(0.117337 0.251277 8.65993e-08)
(0.0676172 0.263092 -7.51626e-08)
(0.0407498 0.267359 -1.80489e-07)
(1.8102 0.000249606 -7.48701e-09)
(1.83378 0.00190461 -3.3024e-08)
(1.82588 0.00393487 -4.65495e-08)
(1.77869 0.00926842 -1.11652e-07)
(1.54758 0.0321876 -4.05499e-07)
(0.538903 0.133723 -1.22257e-06)
(-0.31853 0.365477 -2.81944e-07)
(-0.239453 0.253662 7.8081e-07)
(0.139838 0.217403 2.43096e-07)
(-0.0293204 0.266166 -1.65166e-07)
(-0.0559908 0.230726 1.73975e-07)
(-0.0116546 0.214577 6.53857e-08)
(0.00171599 0.210249 1.64562e-07)
(0.0123388 0.21116 2.348e-07)
(0.0282145 0.218232 2.3964e-07)
(0.0403179 0.227925 2.42286e-07)
(0.0554682 0.236835 2.57743e-07)
(0.0718909 0.244808 2.6077e-07)
(0.0890854 0.254014 2.86309e-07)
(0.107227 0.26461 2.88174e-07)
(0.125346 0.275502 2.68989e-07)
(0.126149 0.289512 1.86053e-07)
(0.12974 0.301967 1.31784e-07)
(0.0797517 0.318376 -4.75133e-08)
(0.0468494 0.328328 -1.64497e-07)
(1.81171 0.000249319 -6.93577e-09)
(1.83583 0.00192684 -3.08623e-08)
(1.82927 0.00394099 -4.3164e-08)
(1.79063 0.00905032 -1.01351e-07)
(1.60293 0.0301985 -3.64978e-07)
(0.703657 0.12537 -1.19028e-06)
(-0.243371 0.407982 -6.23005e-07)
(-0.292611 0.311077 8.57959e-07)
(0.152815 0.241933 2.5647e-07)
(0.00165651 0.306938 -3.53731e-08)
(-0.0554381 0.268926 1.92347e-07)
(-0.0038032 0.247526 8.47502e-08)
(0.0115272 0.242262 1.04782e-07)
(0.0224701 0.241777 2.50016e-07)
(0.0400656 0.25003 2.63101e-07)
(0.0545014 0.261474 2.64241e-07)
(0.0696855 0.27212 2.52366e-07)
(0.0864077 0.280604 2.70962e-07)
(0.103599 0.291543 2.91971e-07)
(0.122018 0.304713 3.18919e-07)
(0.141303 0.319043 3.10564e-07)
(0.14304 0.33795 2.25566e-07)
(0.146745 0.356711 1.66791e-07)
(0.0977958 0.380372 -3.10435e-09)
(0.0570095 0.400591 -1.47586e-07)
(1.81322 0.000238632 -6.10991e-09)
(1.83786 0.0018769 -2.72299e-08)
(1.83251 0.00380592 -3.7896e-08)
(1.80144 0.00855567 -8.77536e-08)
(1.65172 0.027337 -3.09725e-07)
(0.899407 0.112772 -1.042e-06)
(-0.149597 0.433665 -1.25541e-06)
(-0.338964 0.377766 1.04192e-06)
(0.15113 0.267921 3.51277e-07)
(0.0413264 0.340696 4.66738e-08)
(-0.0542372 0.312062 2.7664e-07)
(0.00436227 0.280769 1.30095e-07)
(0.022355 0.274299 7.38889e-08)
(0.0336838 0.272246 2.16484e-07)
(0.0527303 0.281043 2.42069e-07)
(0.0700652 0.293894 2.77934e-07)
(0.0850842 0.306566 2.6904e-07)
(0.10275 0.315548 2.69713e-07)
(0.120665 0.328239 2.99455e-07)
(0.139862 0.343997 3.32719e-07)
(0.161456 0.362173 3.38854e-07)
(0.166083 0.387033 2.68675e-07)
(0.171456 0.416103 1.72907e-07)
(0.127089 0.453068 5.69608e-08)
(0.075588 0.495345 -1.15642e-07)
(1.81466 0.000219363 -5.41104e-09)
(1.8398 0.00176109 -2.3039e-08)
(1.83552 0.00354626 -3.17692e-08)
(1.81097 0.00783136 -7.21548e-08)
(1.69447 0.0240272 -2.46526e-07)
(1.10755 0.0992345 -8.92287e-07)
(-0.028474 0.428865 -1.89852e-06)
(-0.365523 0.454074 1.06984e-06)
(0.124738 0.299659 5.8409e-07)
(0.0886208 0.363124 4.18847e-08)
(-0.0464878 0.359014 3.16493e-07)
(0.0102617 0.315309 2.30973e-07)
(0.0344885 0.306209 1.06064e-07)
(0.0458584 0.302957 2.16479e-07)
(0.0657361 0.311195 1.97301e-07)
(0.0867172 0.325085 2.04613e-07)
(0.101654 0.339518 2.38342e-07)
(0.120658 0.349725 2.63993e-07)
(0.14017 0.363648 2.96716e-07)
(0.160867 0.381668 3.25846e-07)
(0.186286 0.404132 3.4203e-07)
(0.197514 0.435523 3.21466e-07)
(0.209065 0.47793 2.07387e-07)
(0.178993 0.541841 5.22613e-08)
(0.111648 0.646671 -6.63265e-08)
(1.80422 2.69635e-05 5.53795e-09)
(1.82556 0.000200735 3.27882e-08)
(1.8113 0.000426592 4.76946e-08)
(1.72299 0.00107547 1.18625e-07)
(1.27799 0.00393256 3.85926e-07)
(0.0860764 0.0171548 1.03307e-06)
(-0.455188 0.028376 -5.40152e-07)
(-0.0671804 0.0210972 -3.79571e-07)
(0.0501139 0.023297 -3.44565e-07)
(-0.0927152 0.0249595 4.85271e-07)
(-0.0665733 0.0229696 5.18221e-08)
(-0.0396507 0.0215583 -9.29552e-08)
(-0.0325975 0.0208769 -4.47025e-08)
(-0.0239486 0.0211515 -2.55241e-08)
(-0.0146779 0.0220121 -5.46706e-10)
(-0.00715902 0.0232169 2.80864e-08)
(0.00593849 0.0242009 4.69901e-08)
(0.0222502 0.0253458 7.78113e-08)
(0.0441799 0.0263858 1.11717e-07)
(0.0661873 0.0273086 1.11154e-07)
(0.084943 0.0281811 5.62221e-08)
(0.0882973 0.0290969 -7.41997e-08)
(0.0957724 0.0295961 -2.02907e-07)
(0.0522499 0.0310385 -3.23515e-07)
(0.0355519 0.0312036 -4.37178e-07)
(1.80453 8.37052e-05 3.77261e-09)
(1.826 0.000621712 2.17054e-08)
(1.81209 0.00132383 2.8446e-08)
(1.72602 0.00335582 5.07443e-08)
(1.29246 0.0124554 8.31645e-08)
(0.102142 0.0536853 -3.03476e-08)
(-0.454536 0.0807692 3.60813e-08)
(-0.0762137 0.0526418 -8.20467e-07)
(0.0521871 0.0571157 -2.75975e-07)
(-0.092186 0.0582935 7.29138e-07)
(-0.0663243 0.0516701 1.61414e-07)
(-0.0380508 0.0485864 -8.62702e-08)
(-0.0302823 0.0471711 -6.80587e-08)
(-0.0211592 0.0477798 -4.41098e-08)
(-0.0113671 0.0489654 -1.04381e-08)
(-0.00393307 0.0506939 4.37537e-08)
(0.00908999 0.0523452 2.73511e-08)
(0.0254208 0.0547174 9.51575e-08)
(0.0469742 0.0569173 1.14809e-07)
(0.0684639 0.0587475 1.04069e-07)
(0.0867062 0.0605642 5.29363e-08)
(0.0894167 0.0625876 -7.36176e-08)
(0.0965343 0.0633529 -1.91543e-07)
(0.0526165 0.0651001 -3.26579e-07)
(0.0356033 0.0644 -4.35818e-07)
(1.80519 0.00013898 6.08127e-09)
(1.82691 0.00103514 3.29512e-08)
(1.81379 0.00220168 4.66772e-08)
(1.73268 0.00556762 1.07326e-07)
(1.32559 0.0207565 3.00285e-07)
(0.143597 0.0894183 5.51511e-07)
(-0.447432 0.138877 -2.04652e-08)
(-0.0901113 0.0875511 -3.72346e-07)
(0.0629756 0.0957269 6.26499e-08)
(-0.0872773 0.0978042 1.69077e-07)
(-0.0641653 0.0872028 -9.39624e-09)
(-0.0345865 0.0829612 4.36237e-08)
(-0.0261531 0.0813477 1.11394e-08)
(-0.0170152 0.0827214 -5.35197e-09)
(-0.00685949 0.0850394 7.05755e-09)
(0.000952615 0.0880701 2.12592e-08)
(0.0144366 0.090792 4.93591e-08)
(0.0307261 0.0946418 7.46085e-08)
(0.051473 0.0984619 1.0426e-07)
(0.0724061 0.101335 9.46674e-08)
(0.0903597 0.104326 5.19988e-08)
(0.0922511 0.107683 -7.14686e-08)
(0.0984928 0.109418 -1.73808e-07)
(0.0536111 0.112064 -3.34688e-07)
(0.0357978 0.110461 -4.33083e-07)
(1.80616 0.000183864 6.02083e-09)
(1.82825 0.00137541 3.85015e-08)
(1.81622 0.00291189 5.59458e-08)
(1.7422 0.00728126 1.39135e-07)
(1.3729 0.0269673 4.76456e-07)
(0.208534 0.115294 1.44258e-06)
(-0.4328 0.197444 -5.47153e-07)
(-0.11289 0.123604 -2.85324e-07)
(0.0792669 0.131863 7.3695e-07)
(-0.0801418 0.138369 -4.41089e-07)
(-0.0611692 0.122544 -1.88523e-07)
(-0.0298162 0.116126 9.60719e-09)
(-0.0206722 0.113814 -9.89085e-08)
(-0.011083 0.115503 -1.24963e-07)
(3.43865e-05 0.119089 -4.65375e-08)
(0.00815185 0.123825 4.96961e-08)
(0.0219743 0.12795 1.49376e-10)
(0.0384824 0.133165 4.75581e-08)
(0.0581159 0.138646 8.3529e-08)
(0.0780583 0.142923 9.01835e-08)
(0.0956781 0.147182 5.2274e-08)
(0.0967413 0.152308 -6.6456e-08)
(0.102154 0.155802 -1.62578e-07)
(0.0557038 0.160425 -3.36919e-07)
(0.0362492 0.158951 -4.25409e-07)
(1.80736 0.000217062 5.01235e-09)
(1.8299 0.00163059 3.53478e-08)
(1.81918 0.00342984 5.19082e-08)
(1.75365 0.00844657 1.30434e-07)
(1.42897 0.0308845 4.72884e-07)
(0.296959 0.129944 1.46484e-06)
(-0.410485 0.255969 -4.99294e-07)
(-0.145641 0.162128 -5.39584e-07)
(0.0995599 0.16346 8.65364e-07)
(-0.0692586 0.180324 -3.72729e-07)
(-0.0584803 0.158122 -3.24979e-07)
(-0.0243988 0.149065 8.44285e-09)
(-0.0142153 0.146136 -1.12293e-07)
(-0.00437332 0.148002 -1.50722e-07)
(0.00809475 0.152625 -1.90431e-08)
(0.0171372 0.15892 1.72583e-08)
(0.0314542 0.164623 1.94272e-08)
(0.0480418 0.170941 5.12014e-08)
(0.0665767 0.177536 7.81794e-08)
(0.085562 0.183672 8.58198e-08)
(0.103112 0.189517 5.33303e-08)
(0.103701 0.197051 -5.86831e-08)
(0.108208 0.202992 -1.49611e-07)
(0.0599031 0.210843 -3.29585e-07)
(0.0376235 0.211224 -4.07814e-07)
(1.80873 0.000238795 3.83477e-09)
(1.83177 0.00180609 2.99295e-08)
(1.82247 0.00376796 4.42503e-08)
(1.76612 0.00909813 1.14293e-07)
(1.48859 0.0325719 4.27104e-07)
(0.40755 0.135028 1.26229e-06)
(-0.374221 0.313223 -8.1442e-08)
(-0.188598 0.204684 -6.98065e-07)
(0.120478 0.191445 6.79445e-07)
(-0.0524662 0.223386 -2.59127e-07)
(-0.0565729 0.19405 -4.25489e-07)
(-0.0182899 0.181814 -3.58049e-08)
(-0.00671968 0.178237 -1.40098e-07)
(0.00353258 0.17989 -9.79813e-08)
(0.017701 0.185726 2.21696e-08)
(0.0279737 0.193666 -2.26115e-08)
(0.042683 0.200964 -2.01415e-08)
(0.0591719 0.208206 5.09245e-08)
(0.0768415 0.215949 8.02481e-08)
(0.0951778 0.224208 9.01703e-08)
(0.112834 0.232242 6.01121e-08)
(0.113392 0.242568 -5.42045e-08)
(0.117307 0.251299 -1.39848e-07)
(0.0675886 0.263112 -3.20278e-07)
(0.0407371 0.267377 -4.02166e-07)
(1.8102 0.000249381 2.67732e-09)
(1.83378 0.00190324 2.3802e-08)
(1.82589 0.00393204 3.54229e-08)
(1.77872 0.00926195 9.24988e-08)
(1.54769 0.0321661 3.56928e-07)
(0.539166 0.133644 1.12016e-06)
(-0.318456 0.365391 3.07289e-07)
(-0.239526 0.253628 -6.51285e-07)
(0.140055 0.217238 4.68714e-07)
(-0.0291563 0.266104 1.17512e-08)
(-0.0558609 0.230706 -4.64654e-07)
(-0.0114396 0.214588 -6.63275e-08)
(0.00191985 0.21028 -1.69413e-07)
(0.0124941 0.211201 -1.41396e-08)
(0.0283389 0.218284 6.179e-09)
(0.0404043 0.227981 -2.10169e-09)
(0.055526 0.236893 1.59186e-08)
(0.0719338 0.244851 4.82977e-08)
(0.0890985 0.254047 8.2067e-08)
(0.107221 0.264638 9.80441e-08)
(0.125325 0.275527 6.9825e-08)
(0.126119 0.289536 -4.90082e-08)
(0.129708 0.301991 -1.2152e-07)
(0.079722 0.318398 -3.02002e-07)
(0.0468361 0.328348 -3.86354e-07)
(1.81171 0.00024916 1.66077e-09)
(1.83583 0.00192571 1.76304e-08)
(1.82928 0.00393865 2.65412e-08)
(1.79065 0.0090449 7.0034e-08)
(1.603 0.0301799 2.75243e-07)
(0.703911 0.125298 9.56354e-07)
(-0.243303 0.40786 5.77707e-07)
(-0.292707 0.311032 -5.76069e-07)
(0.152908 0.241762 1.96992e-07)
(0.00171682 0.306777 1.18416e-07)
(-0.0554563 0.268897 -4.67319e-07)
(-0.00374924 0.24754 -1.08713e-07)
(0.0115993 0.242304 -8.29526e-08)
(0.022542 0.241839 -5.7247e-08)
(0.0401425 0.250092 1.596e-08)
(0.0545646 0.261541 1.49759e-08)
(0.0697257 0.272187 4.68633e-08)
(0.0864332 0.280662 5.21977e-08)
(0.103602 0.291585 8.60147e-08)
(0.122006 0.304747 1.05058e-07)
(0.141279 0.319071 7.5208e-08)
(0.143009 0.337976 -4.59155e-08)
(0.146713 0.356737 -1.07787e-07)
(0.0977651 0.380398 -2.70959e-07)
(0.0569954 0.400614 -3.6265e-07)
(1.81322 0.00023855 8.94847e-10)
(1.83786 0.00187612 1.20147e-08)
(1.83251 0.0038043 1.84496e-08)
(1.80145 0.00855178 4.9923e-08)
(1.65176 0.0273232 1.97954e-07)
(0.899626 0.112715 7.29377e-07)
(-0.149517 0.433522 9.91343e-07)
(-0.339047 0.377701 -5.88929e-07)
(0.151115 0.267789 -9.29238e-08)
(0.0413147 0.340498 2.36574e-07)
(-0.0543284 0.312 -3.79346e-07)
(0.00430333 0.280775 -9.41355e-08)
(0.0223333 0.274346 -4.01495e-08)
(0.0336814 0.272325 -3.28765e-08)
(0.0527519 0.281125 2.40565e-08)
(0.0700728 0.293976 2.18085e-08)
(0.0850881 0.306637 5.28023e-08)
(0.102754 0.315614 5.22851e-08)
(0.120656 0.328286 9.05098e-08)
(0.139844 0.344034 1.10974e-07)
(0.161428 0.362203 7.9268e-08)
(0.16605 0.387062 -3.09127e-08)
(0.171424 0.416131 -1.25525e-07)
(0.127058 0.453097 -2.2653e-07)
(0.0755726 0.495371 -3.26137e-07)
(1.81466 0.000219325 3.56325e-10)
(1.8398 0.00176059 7.20886e-09)
(1.83552 0.00354523 1.14296e-08)
(1.81098 0.00782882 3.22946e-08)
(1.69449 0.0240179 1.29618e-07)
(1.1077 0.0991936 5.36473e-07)
(-0.0283834 0.428712 1.30069e-06)
(-0.365571 0.453994 -5.01177e-07)
(0.124669 0.299551 -1.02672e-07)
(0.0885785 0.362941 3.22545e-07)
(-0.0466007 0.358913 -2.56383e-07)
(0.010158 0.315299 -1.14479e-07)
(0.0344102 0.306239 -1.31513e-08)
(0.0458035 0.303025 -1.10454e-08)
(0.0657218 0.311276 2.63965e-08)
(0.0866957 0.325156 1.54924e-08)
(0.101638 0.339588 4.36956e-08)
(0.120644 0.34979 6.79069e-08)
(0.140147 0.363699 9.1472e-08)
(0.160841 0.381705 1.10627e-07)
(0.186255 0.404162 7.70448e-08)
(0.197481 0.435552 -8.41862e-09)
(0.209033 0.47796 -1.20288e-07)
(0.178963 0.541873 -2.06764e-07)
(0.111631 0.6467 -2.65841e-07)
(1.80422 2.69802e-05 -2.38421e-11)
(1.82556 0.000200833 4.66104e-09)
(1.8113 0.000426805 9.18507e-09)
(1.72298 0.00107605 3.51171e-08)
(1.27797 0.00393491 1.67378e-07)
(0.0860415 0.0171668 5.7839e-07)
(-0.455207 0.0283835 8.36412e-08)
(-0.0671922 0.0211008 -1.29069e-07)
(0.0500767 0.0233091 -1.22665e-07)
(-0.0927295 0.0249596 -1.17321e-07)
(-0.0665757 0.0229747 -9.50866e-08)
(-0.0396483 0.0215705 -7.57399e-08)
(-0.0325999 0.0208918 -5.29434e-08)
(-0.023958 0.0211642 -3.00518e-08)
(-0.0146938 0.0220181 -1.53974e-08)
(-0.00717692 0.0232184 -4.45325e-09)
(0.00592002 0.0242002 -4.74646e-09)
(0.0222331 0.0253454 -2.51258e-08)
(0.0441674 0.0263848 -4.31451e-08)
(0.0661758 0.0273072 -4.86594e-08)
(0.0849295 0.0281791 -6.53103e-08)
(0.0882787 0.0290944 -1.0371e-07)
(0.0957504 0.0295931 -1.37569e-07)
(0.0522291 0.0310355 -1.58958e-07)
(0.0355422 0.0312006 -1.56617e-07)
(1.80453 8.37187e-05 1.84932e-10)
(1.826 0.000621818 6.03336e-09)
(1.81209 0.00132406 1.14176e-08)
(1.72602 0.00335646 4.21727e-08)
(1.29244 0.012458 1.92438e-07)
(0.10213 0.0536961 6.3327e-07)
(-0.454515 0.0807672 3.06112e-08)
(-0.076187 0.0526314 -1.16867e-07)
(0.0521961 0.057113 -1.03632e-07)
(-0.0921667 0.0582697 -1.07856e-07)
(-0.0662957 0.0516543 -6.2487e-08)
(-0.0380297 0.0485824 -6.32592e-08)
(-0.0302757 0.0471734 -6.06027e-08)
(-0.0211675 0.0477839 -4.0071e-08)
(-0.0113837 0.0489736 -2.07153e-08)
(-0.00395088 0.0507014 -4.44491e-10)
(0.009072 0.0523511 -2.0053e-08)
(0.0254039 0.0547196 -1.35619e-08)
(0.0469606 0.0569168 -2.80063e-08)
(0.0684514 0.0587452 -4.16392e-08)
(0.0866917 0.0605602 -6.11231e-08)
(0.0893972 0.0625824 -1.02538e-07)
(0.0965117 0.0633468 -1.33484e-07)
(0.0525953 0.0650934 -1.56478e-07)
(0.0355934 0.0643929 -1.51925e-07)
(1.80519 0.000138978 2.55119e-10)
(1.82691 0.00103516 6.51344e-09)
(1.81379 0.00220173 1.16432e-08)
(1.73267 0.0055678 3.90567e-08)
(1.32558 0.0207574 1.67214e-07)
(0.143572 0.0894223 5.23522e-07)
(-0.447434 0.138878 3.33022e-08)
(-0.0900933 0.0875512 -1.40489e-07)
(0.0629789 0.0957188 -9.38158e-08)
(-0.087263 0.0977969 -3.13065e-08)
(-0.0641345 0.0872177 -1.32277e-08)
(-0.0345669 0.0829992 -5.44673e-08)
(-0.0261485 0.0813919 -8.78463e-08)
(-0.0170175 0.0827667 -1.00538e-07)
(-0.00687362 0.0850653 -5.21495e-08)
(0.000932786 0.0880824 -2.43766e-08)
(0.0144138 0.0907972 -9.31745e-09)
(0.0307042 0.0946405 -1.36514e-08)
(0.051457 0.0984605 -1.35945e-08)
(0.0723917 0.101331 -3.51579e-08)
(0.0903439 0.10432 -5.54596e-08)
(0.0922308 0.107675 -9.91453e-08)
(0.0984694 0.109409 -1.26287e-07)
(0.0535891 0.112054 -1.54443e-07)
(0.0357876 0.11045 -1.49539e-07)
(1.80616 0.000183833 4.16543e-10)
(1.82825 0.00137529 7.22153e-09)
(1.81622 0.00291166 1.25382e-08)
(1.7422 0.00728076 4.13513e-08)
(1.37289 0.0269657 1.84484e-07)
(0.208516 0.115287 6.73371e-07)
(-0.432781 0.197437 -5.30975e-09)
(-0.112872 0.123609 -8.88092e-08)
(0.0792489 0.131834 -2.21492e-07)
(-0.0801543 0.138373 1.41263e-07)
(-0.0611897 0.122584 8.19631e-08)
(-0.0298728 0.116168 -4.12666e-08)
(-0.0207528 0.113847 -5.50343e-08)
(-0.0111816 0.115518 -6.1067e-08)
(-4.0288e-05 0.119097 -6.95339e-08)
(0.00810607 0.123828 -6.82658e-08)
(0.021943 0.127952 1.46849e-08)
(0.0384601 0.133163 -1.09967e-08)
(0.0580995 0.138644 4.9242e-09)
(0.0780416 0.142918 -2.28475e-08)
(0.0956604 0.147174 -4.81211e-08)
(0.0967198 0.152298 -9.27447e-08)
(0.102129 0.155791 -1.18562e-07)
(0.0556803 0.160413 -1.49328e-07)
(0.0362385 0.158938 -1.44236e-07)
(1.80736 0.000217061 1.81946e-10)
(1.8299 0.00163055 5.9028e-09)
(1.81918 0.00342975 1.02683e-08)
(1.75364 0.00844627 3.33704e-08)
(1.42894 0.0308831 1.53924e-07)
(0.296925 0.129938 5.73345e-07)
(-0.410513 0.255963 1.08398e-07)
(-0.145668 0.162141 -1.19425e-07)
(0.0994637 0.163451 -2.97989e-07)
(-0.0693587 0.180341 2.11102e-07)
(-0.0586191 0.158168 1.8052e-07)
(-0.0245607 0.149076 -1.31714e-07)
(-0.0143658 0.146117 -1.02437e-07)
(-0.00447576 0.147952 -9.44221e-08)
(0.0080235 0.152591 -1.01072e-07)
(0.0170873 0.158901 -6.85561e-08)
(0.0314189 0.164619 3.59683e-09)
(0.0480142 0.17094 1.13345e-08)
(0.066557 0.177532 2.18272e-08)
(0.0855427 0.183665 -3.41011e-09)
(0.103092 0.189508 -3.61202e-08)
(0.103678 0.197039 -8.27312e-08)
(0.108182 0.20298 -1.104e-07)