/*--------------------------------*- C++ -*----------------------------------*\
| =========                 |                                                 |
| \\      /  F ield         | OpenFOAM: The Open Source CFD Toolbox           |
|  \\    /   O peration     | Version:  4.1                                   |
|   \\  /    A nd           | Web:      www.OpenFOAM.org                      |
|    \\/     M anipulation  |                                                 |
\*---------------------------------------------------------------------------*/
FoamFile
{
    version     2.0;
    format      ascii;
    class       volScalarField;
    location    "0.68";
    object      Ma;
}
// * * * * * * * * * * * * * * * * * * * * * * * * * * * * * * * * * * * * * //

dimensions      [0 0 0 0 0 0 0];

internalField   nonuniform List<scalar> 
18000
(
5.31954e-12
5.26009e-12
5.18951e-12
5.13119e-12
5.07343e-12
5.01639e-12
4.95998e-12
4.90467e-12
4.85015e-12
4.79735e-12
6.64226e-12
6.41094e-12
6.17748e-12
5.96309e-12
5.75796e-12
5.56126e-12
5.37248e-12
5.19166e-12
5.01768e-12
4.85429e-12
8.39334e-12
7.88806e-12
7.40731e-12
6.96846e-12
6.56027e-12
6.18099e-12
5.82869e-12
5.49991e-12
5.19384e-12
4.91242e-12
1.07426e-11
9.8022e-12
8.95033e-12
8.18775e-12
7.50363e-12
6.88792e-12
6.33275e-12
5.83118e-12
5.3773e-12
4.97149e-12
1.39427e-11
1.23127e-11
1.0901e-11
9.67747e-12
8.61785e-12
7.69598e-12
6.89153e-12
6.18756e-12
5.56905e-12
5.0317e-12
1.83719e-11
1.56475e-11
1.33928e-11
1.15099e-11
9.93994e-12
8.62266e-12
7.51212e-12
6.57098e-12
5.76923e-12
5.09295e-12
2.46018e-11
2.01439e-11
1.66075e-11
1.37817e-11
1.15176e-11
9.68921e-12
8.20208e-12
6.98382e-12
5.97882e-12
5.15522e-12
3.35839e-11
2.6348e-11
2.08833e-11
1.67219e-11
1.35339e-11
1.10661e-11
9.13702e-12
7.61577e-12
6.40519e-12
5.45437e-12
4.61917e-09
4.63015e-09
4.35891e-09
4.11325e-09
3.89182e-09
3.69157e-09
3.50985e-09
3.34438e-09
3.19348e-09
3.12015e-09
5.0193e-07
5.59845e-08
4.77791e-08
4.16374e-08
3.64881e-08
3.21445e-08
2.84623e-08
2.53279e-08
2.25631e-08
8.88476e-08
5.64428e-12
5.57788e-12
5.50424e-12
5.43958e-12
5.37621e-12
5.314e-12
5.25179e-12
5.19157e-12
5.13208e-12
5.07403e-12
7.09837e-12
6.84053e-12
6.59038e-12
6.35326e-12
6.12711e-12
5.91047e-12
5.7038e-12
5.5057e-12
5.31631e-12
5.13658e-12
9.03398e-12
8.46855e-12
7.94895e-12
7.4611e-12
7.01003e-12
6.59202e-12
6.20516e-12
5.8452e-12
5.51067e-12
5.20146e-12
1.1662e-11
1.06049e-11
9.67116e-12
8.81868e-12
8.05761e-12
7.3758e-12
6.76399e-12
6.21361e-12
5.716e-12
5.26718e-12
1.5291e-11
1.34453e-11
1.18744e-11
1.04943e-11
9.30661e-12
8.27982e-12
7.38847e-12
6.61221e-12
5.93283e-12
5.33561e-12
2.03977e-11
1.72754e-11
1.47257e-11
1.25779e-11
1.08031e-11
9.32528e-12
8.0882e-12
7.04598e-12
6.16273e-12
5.40634e-12
2.77221e-11
2.25319e-11
1.84583e-11
1.51922e-11
1.26075e-11
1.05399e-11
8.87236e-12
7.5174e-12
6.40491e-12
5.4794e-12
3.84948e-11
2.98656e-11
2.34105e-11
1.85057e-11
1.47995e-11
1.19598e-11
9.7591e-12
8.03354e-12
6.6649e-12
5.55818e-12
1.59972e-10
3.54588e-10
2.91291e-10
2.40719e-10
2.01129e-10
1.69706e-10
1.44474e-10
1.23997e-10
1.07234e-10
9.44773e-11
3.45654e-07
5.20208e-08
4.54025e-08
3.98449e-08
3.52335e-08
3.13703e-08
2.81045e-08
2.53213e-08
2.29382e-08
2.18539e-08
5.09116e-13
4.87606e-13
3.65118e-13
3.5006e-13
3.36177e-13
3.2374e-13
3.12525e-13
3.03032e-13
2.94562e-13
2.85169e-13
7.05772e-13
6.36472e-13
5.68588e-13
5.18556e-13
4.73342e-13
4.33121e-13
3.97208e-13
3.66345e-13
3.40558e-13
2.99515e-13
8.86224e-13
7.728e-13
7.57653e-13
6.75978e-13
6.03601e-13
5.40553e-13
4.86671e-13
4.41004e-13
4.00592e-13
3.19145e-13
1.19454e-12
1.04361e-12
1.05221e-12
9.15492e-13
7.97817e-13
6.98701e-13
6.15241e-13
5.45529e-13
4.84685e-13
3.48047e-13
1.69279e-12
1.50008e-12
1.4784e-12
1.24959e-12
1.0593e-12
9.043e-13
7.77384e-13
6.73318e-13
5.84197e-13
3.84718e-13
2.50052e-12
2.23608e-12
2.09214e-12
1.70915e-12
1.40492e-12
1.16548e-12
9.75804e-13
8.2448e-13
6.97834e-13
4.2781e-13
3.82295e-12
3.39782e-12
2.98e-12
2.34104e-12
1.85835e-12
1.49394e-12
1.21483e-12
9.99341e-13
8.25012e-13
4.76724e-13
6.08502e-12
5.23708e-12
4.275e-12
3.21352e-12
2.45382e-12
1.90508e-12
1.50137e-12
1.20022e-12
9.65524e-13
5.30643e-13
2.53103e-10
1.31025e-11
1.05255e-11
7.67962e-12
5.7354e-12
4.37393e-12
3.39948e-12
2.68841e-12
2.15538e-12
1.61367e-12
2.95386e-07
4.05917e-09
2.9976e-09
2.29998e-09
1.79303e-09
1.41788e-09
1.13567e-09
9.20249e-10
7.53846e-10
6.36824e-10
3.84102e-13
3.6051e-13
1.72018e-13
1.51311e-13
1.30973e-13
1.11863e-13
9.39957e-14
7.76031e-14
6.30687e-14
3.72418e-14
5.31757e-13
4.59604e-13
3.859e-13
3.3598e-13
2.89364e-13
2.47712e-13
2.10975e-13
1.79269e-13
1.52804e-13
7.95012e-14
5.95628e-13
4.89297e-13
5.23496e-13
4.55753e-13
3.95533e-13
3.44331e-13
3.01746e-13
2.67719e-13
2.39058e-13
1.19594e-13
7.29594e-13
6.35357e-13
7.60588e-13
6.58086e-13
5.69112e-13
4.95623e-13
4.35018e-13
3.85731e-13
3.43305e-13
1.71006e-13
9.58673e-13
9.44837e-13
1.10784e-12
9.42413e-13
8.02889e-13
6.89327e-13
5.96764e-13
5.21681e-13
4.56556e-13
2.24452e-13
1.34419e-12
1.48684e-12
1.61059e-12
1.33522e-12
1.11045e-12
9.32522e-13
7.90142e-13
6.76659e-13
5.79513e-13
2.81015e-13
1.98353e-12
2.36456e-12
2.33885e-12
1.87527e-12
1.51347e-12
1.23615e-12
1.02039e-12
8.52006e-13
7.1253e-13
3.40778e-13
3.1365e-12
3.76337e-12
3.39806e-12
2.61945e-12
2.04085e-12
1.61461e-12
1.29417e-12
1.05072e-12
8.56596e-13
4.03733e-13
2.79113e-10
6.89787e-12
4.88523e-12
3.60983e-12
2.71111e-12
2.07448e-12
1.61288e-12
1.27352e-12
1.01158e-12
4.70201e-13
2.9287e-07
1.25123e-09
1.03559e-10
6.86759e-11
4.69466e-11
3.28288e-11
2.34365e-11
1.70462e-11
1.26083e-11
9.42681e-12
3.8401e-13
3.59983e-13
1.7213e-13
1.51295e-13
1.30882e-13
1.11684e-13
9.40628e-14
7.76241e-14
6.28337e-14
3.68777e-14
5.31934e-13
4.59681e-13
3.86343e-13
3.36427e-13
2.89836e-13
2.47877e-13
2.11057e-13
1.79573e-13
1.53003e-13
7.9348e-14
5.96107e-13
4.89829e-13
5.24596e-13
4.56627e-13
3.96018e-13
3.44905e-13
3.02223e-13
2.67929e-13
2.39022e-13
1.19487e-13
7.30581e-13
6.36711e-13
7.62177e-13
6.59579e-13
5.70269e-13
4.965e-13
4.3579e-13
3.86358e-13
3.43632e-13
1.70641e-13
9.60198e-13
9.47449e-13
1.11096e-12
9.44867e-13
8.04864e-13
6.91173e-13
5.9798e-13
5.22278e-13
4.57217e-13
2.24796e-13
1.34596e-12
1.49168e-12
1.61539e-12
1.33954e-12
1.11383e-12
9.35372e-13
7.92528e-13
6.78302e-13
5.80883e-13
2.81725e-13
1.98461e-12
2.37343e-12
2.34783e-12
1.88249e-12
1.51946e-12
1.24107e-12
1.02422e-12
8.54891e-13
7.15102e-13
3.4229e-13
3.13846e-12
3.77983e-12
3.41365e-12
2.63206e-12
2.05104e-12
1.62265e-12
1.30051e-12
1.05581e-12
8.60514e-13
4.06389e-13
2.92758e-10
7.24088e-12
4.98513e-12
3.67058e-12
2.74923e-12
2.09883e-12
1.62863e-12
1.28396e-12
1.01857e-12
4.73695e-13
3.11051e-07
1.35641e-09
1.29397e-11
5.43447e-12
3.84085e-12
2.80034e-12
2.08798e-12
1.58887e-12
1.22103e-12
5.75167e-13
3.84057e-13
3.5964e-13
1.72672e-13
1.5182e-13
1.3122e-13
1.11967e-13
9.41104e-14
7.79116e-14
6.31985e-14
3.68281e-14
5.32806e-13
4.60156e-13
3.87598e-13
3.37495e-13
2.90773e-13
2.48567e-13
2.11507e-13
1.79853e-13
1.53587e-13
7.98358e-14
5.97976e-13
4.91628e-13
5.26933e-13
4.5854e-13
3.97744e-13
3.46133e-13
3.03106e-13
2.68553e-13
2.39561e-13
1.20005e-13
7.34439e-13
6.40797e-13
7.66e-13
6.62673e-13
5.72811e-13
4.98407e-13
4.37195e-13
3.87478e-13
3.44346e-13
1.71197e-13
9.67662e-13
9.55072e-13
1.11719e-12
9.49858e-13
8.0883e-13
6.94473e-13
6.00619e-13
5.24367e-13
4.5868e-13
2.25726e-13
1.35993e-12
1.50518e-12
1.62618e-12
1.34774e-12
1.12024e-12
9.40641e-13
7.96744e-13
6.81356e-13
5.83396e-13
2.8345e-13
2.01076e-12
2.39681e-12
2.36622e-12
1.89649e-12
1.53017e-12
1.24961e-12
1.03095e-12
8.60008e-13
7.19107e-13
3.45085e-13
3.19146e-12
3.82199e-12
3.44545e-12
2.65554e-12
2.06861e-12
1.63623e-12
1.31115e-12
1.06389e-12
8.66653e-13
4.10489e-13
3.11102e-10
7.42236e-12
5.04291e-12
3.71076e-12
2.77829e-12
2.12052e-12
1.64485e-12
1.29603e-12
1.02795e-12
4.80019e-13
3.39512e-07
1.46348e-09
1.31305e-11
5.14252e-12
3.6922e-12
2.72172e-12
2.04552e-12
1.56555e-12
1.20819e-12
5.60606e-13
3.8403e-13
3.59361e-13
1.7326e-13
1.52455e-13
1.31825e-13
1.1252e-13
9.45906e-14
7.81726e-14
6.35908e-14
4.15953e-14
5.33805e-13
4.60794e-13
3.89238e-13
3.38763e-13
2.91896e-13
2.49662e-13
2.124e-13
1.80517e-13
1.53861e-13
8.16084e-14
6.00257e-13
4.93726e-13
5.29637e-13
4.60923e-13
3.99654e-13
3.47708e-13
3.0421e-13
2.69404e-13
2.40342e-13
1.21355e-13
7.39027e-13
6.45599e-13
7.70383e-13
6.66408e-13
5.76007e-13
5.0096e-13
4.39007e-13
3.88764e-13
3.45709e-13
1.72691e-13
9.76564e-13
9.64004e-13
1.12452e-12
9.55721e-13
8.1352e-13
6.98506e-13
6.03934e-13
5.26932e-13
4.60699e-13
2.27759e-13
1.37692e-12
1.52068e-12
1.63876e-12
1.35775e-12
1.12792e-12
9.46954e-13
8.02065e-13
6.85574e-13
5.86565e-13
2.86279e-13
2.04226e-12
2.42418e-12
2.38738e-12
1.91297e-12
1.54296e-12
1.25986e-12
1.03934e-12
8.66661e-13
7.24209e-13
3.49262e-13
3.24426e-12
3.87054e-12
3.48233e-12
2.68314e-12
2.08946e-12
1.65233e-12
1.32424e-12
1.07434e-12
8.74587e-13
4.16301e-13
3.18277e-10
7.44008e-12
5.10655e-12
3.75711e-12
2.81245e-12
2.14628e-12
1.66507e-12
1.31115e-12
1.0397e-12
4.88497e-13
3.61162e-07
1.47773e-09
1.28263e-11
5.20891e-12
3.74299e-12
2.75937e-12
2.07436e-12
1.58721e-12
1.22473e-12
5.71976e-13
3.84067e-13
3.58335e-13
1.73576e-13
1.52811e-13
1.32617e-13
1.1441e-13
9.97094e-14
1.27578e-13
3.96551e-13
1.1857e-12
5.34373e-13
4.60432e-13
3.90037e-13
3.39719e-13
2.93103e-13
2.51418e-13
2.15406e-13
1.94898e-13
2.80569e-13
7.7775e-13
6.01651e-13
4.94082e-13
5.31003e-13
4.62259e-13
4.01234e-13
3.49923e-13
3.07773e-13
2.76993e-13
2.89541e-13
5.24527e-13
7.42119e-13
6.46929e-13
7.72455e-13
6.68399e-13
5.7801e-13
5.03529e-13
4.43172e-13
3.95286e-13
3.69358e-13
3.99539e-13
9.8233e-13
9.66617e-13
1.12746e-12
9.58627e-13
8.16344e-13
7.01456e-13
6.08593e-13
5.33822e-13
4.77121e-13
3.56914e-13
1.38657e-12
1.5253e-12
1.6433e-12
1.36229e-12
1.13237e-12
9.51652e-13
8.08363e-13
6.94183e-13
6.01227e-13
3.66132e-13
2.05805e-12
2.43242e-12
2.39512e-12
1.92046e-12
1.54996e-12
1.26706e-12
1.04777e-12
8.77447e-13
7.39426e-13
4.04702e-13
3.21772e-12
3.88557e-12
3.49601e-12
2.69602e-12
2.10107e-12
1.66298e-12
1.33556e-12
1.08854e-12
8.92312e-13
4.59763e-13
2.32637e-10
6.75165e-12
5.12633e-12
3.77889e-12
2.83113e-12
2.16293e-12
1.68179e-12
1.33009e-12
1.06024e-12
5.2608e-13
3.00042e-07
8.4672e-10
9.56888e-12
5.22934e-12
3.77095e-12
2.78406e-12
2.09769e-12
1.61154e-12
1.24992e-12
6.07678e-13
3.99074e-13
4.3079e-13
2.36823e-13
1.57305e-13
2.08624e-13
5.46606e-13
1.19963e-12
4.75605e-12
1.80028e-11
4.69626e-11
5.67181e-13
5.89034e-13
4.70624e-13
3.62472e-13
2.98072e-13
4.95528e-13
9.52916e-13
2.99994e-12
1.05813e-11
3.07879e-11
6.68605e-13
7.20716e-13
6.58724e-13
5.1959e-13
3.98162e-13
4.52139e-13
8.72903e-13
2.07086e-12
6.77171e-12
2.01678e-11
8.53371e-13
9.67245e-13
9.4159e-13
7.57474e-13
5.88943e-13
5.22456e-13
8.27545e-13
1.5643e-12
4.70338e-12
1.36608e-11
1.15134e-12
1.36231e-12
1.33312e-12
1.07583e-12
8.47615e-13
6.90095e-13
8.04057e-13
1.31785e-12
3.51664e-12
9.5694e-12
1.62435e-12
1.97762e-12
1.87917e-12
1.49982e-12
1.17896e-12
9.35175e-13
8.84725e-13
1.33063e-12
2.79893e-12
6.91591e-12
2.36959e-12
2.93072e-12
2.65031e-12
2.06804e-12
1.60404e-12
1.24986e-12
1.05719e-12
1.28467e-12
2.35017e-12
5.14315e-12
3.50865e-12
4.40778e-12
3.75231e-12
2.83765e-12
2.15027e-12
1.6419e-12
1.31001e-12
1.31789e-12
2.06585e-12
3.92827e-12
9.92549e-11
6.17586e-12
5.34787e-12
3.89248e-12
2.85848e-12
2.12674e-12
1.6335e-12
1.44155e-12
1.88281e-12
3.08126e-12
5.62562e-08
1.57494e-09
6.01056e-12
5.2588e-12
3.75672e-12
2.71784e-12
2.02346e-12
1.64219e-12
1.79411e-12
2.49043e-12
2.51368e-12
2.36146e-12
1.50906e-12
1.60367e-13
2.70682e-12
8.92437e-12
2.80025e-11
1.16899e-10
3.8624e-10
5.49649e-10
3.54184e-12
3.41656e-12
2.52622e-12
1.14146e-12
1.34924e-12
6.38138e-12
1.99662e-11
7.23314e-11
2.29829e-10
3.52619e-10
4.80919e-12
4.67259e-12
3.69346e-12
2.29198e-12
2.47927e-13
4.15954e-12
1.41559e-11
4.77914e-11
1.45448e-10
2.39054e-10
6.4718e-12
6.2468e-12
5.08598e-12
3.57021e-12
1.40636e-12
2.31673e-12
9.97721e-12
3.30469e-11
9.66301e-11
1.67417e-10
8.70027e-12
8.25439e-12
6.77679e-12
5.04138e-12
2.80854e-12
7.70656e-13
6.8907e-12
2.3407e-11
6.66489e-11
1.20238e-10
1.17426e-11
1.0859e-11
8.86574e-12
6.75459e-12
4.31056e-12
1.16733e-12
4.43747e-12
1.65749e-11
4.73254e-11
8.82455e-11
1.59839e-11
1.43135e-11
1.1495e-11
8.7888e-12
5.98603e-12
2.69876e-12
2.42552e-12
1.18839e-11
3.4376e-11
6.59782e-11
2.20601e-11
1.8983e-11
1.48568e-11
1.12476e-11
7.87204e-12
4.30361e-12
1.04375e-12
8.38259e-12
2.53702e-11
5.01029e-11
4.00782e-10
2.54404e-11
1.92402e-11
1.42684e-11
1.00392e-11
6.0195e-12
1.74862e-12
5.66113e-12
1.89251e-11
3.85324e-11
7.90763e-07
2.42879e-09
2.55448e-11
1.8035e-11
1.2553e-11
7.86069e-12
3.26335e-12
3.52155e-12
1.41631e-11
2.99237e-11
3.3336e-12
2.99827e-12
1.97429e-12
1.96062e-12
8.48155e-12
3.04144e-11
1.35324e-10
5.43766e-10
1.04959e-09
1.21124e-09
4.41345e-12
4.11224e-12
3.13346e-12
1.64755e-12
5.29069e-12
2.06048e-11
8.26719e-11
3.15057e-10
6.47159e-10
7.30983e-10
5.72454e-12
5.40089e-12
4.43711e-12
2.73214e-12
2.84366e-12
1.36284e-11
5.32102e-11
1.93957e-10
4.18471e-10
4.66311e-10
7.40084e-12
6.95815e-12
5.90962e-12
4.22242e-12
1.9513e-12
8.56699e-12
3.52974e-11
1.25043e-10
2.7924e-10
3.08417e-10
9.59596e-12
8.89071e-12
7.62365e-12
5.8667e-12
3.10586e-12
4.90448e-12
2.35762e-11
8.32343e-11
1.91093e-10
2.09968e-10
1.25433e-11
1.13468e-11
9.67375e-12
7.69027e-12
4.88925e-12
2.54107e-12
1.53645e-11
5.64255e-11
1.33705e-10
1.46447e-10
1.65941e-11
1.45408e-11
1.2188e-11
9.77216e-12
6.81885e-12
2.74158e-12
9.62075e-12
3.87739e-11
9.49301e-11
1.04149e-10
2.23071e-11
1.87868e-11
1.53448e-11
1.2209e-11
8.88904e-12
4.58295e-12
5.42753e-12
2.66756e-11
6.82115e-11
7.52291e-11
2.07091e-10
2.48057e-11
1.93927e-11
1.51322e-11
1.11757e-11
6.69332e-12
2.77898e-12
1.81127e-11
4.94196e-11
5.49483e-11
1.64247e-07
7.68754e-09
4.45032e-11
1.86834e-11
1.37397e-11
8.85776e-12
2.99736e-12
1.18562e-11
3.59261e-11
4.04001e-11
1.02722e-12
1.27876e-12
1.54017e-12
3.20657e-12
8.42664e-12
2.47131e-11
8.62302e-11
2.59707e-10
3.82192e-10
2.99051e-10
1.12037e-12
1.288e-12
1.41853e-12
2.44072e-12
6.02292e-12
1.73023e-11
5.7521e-11
1.6614e-10
2.33331e-10
1.1467e-10
1.21829e-12
1.33962e-12
1.42311e-12
1.97877e-12
4.33468e-12
1.22044e-11
3.91737e-11
1.09473e-10
1.48057e-10
4.37271e-11
1.32132e-12
1.42054e-12
1.50512e-12
1.80283e-12
3.20424e-12
8.64362e-12
2.71947e-11
7.4021e-11
9.70799e-11
2.44772e-11
1.43116e-12
1.52012e-12
1.62403e-12
1.80836e-12
2.53182e-12
6.1442e-12
1.90707e-11
5.11765e-11
6.52016e-11
2.09868e-11
1.55665e-12
1.63602e-12
1.7589e-12
1.9032e-12
2.2304e-12
4.45838e-12
1.34545e-11
3.61617e-11
4.46045e-11
1.92065e-11
1.70387e-12
1.76956e-12
1.90143e-12
2.03825e-12
2.17635e-12
3.36462e-12
9.52223e-12
2.57216e-11
3.09132e-11
1.72633e-11
1.92245e-12
1.924e-12
2.05543e-12
2.18796e-12
2.24933e-12
2.7616e-12
6.81345e-12
1.84399e-11
2.16244e-11
1.53029e-11
5.38644e-10
8.20243e-12
2.21886e-12
2.34599e-12
2.38155e-12
2.5164e-12
4.96564e-12
1.3305e-11
1.51935e-11
1.35072e-11
2.80082e-07
8.59464e-09
2.48977e-11
2.54672e-12
2.53191e-12
2.4854e-12
3.74448e-12
9.6358e-12
1.06472e-11
1.18121e-11
7.81931e-13
1.48789e-12
1.60565e-12
2.51705e-12
4.14046e-12
6.96329e-12
1.46315e-11
5.55713e-11
2.23939e-10
6.44722e-10
7.17674e-13
1.33645e-12
1.39058e-12
2.14394e-12
3.47948e-12
5.82226e-12
1.11224e-11
3.45581e-11
1.36132e-10
3.72285e-10
6.54936e-13
1.19461e-12
1.1971e-12
1.81759e-12
2.91766e-12
4.83286e-12
8.78049e-12
2.28276e-11
8.66177e-11
2.27189e-10
6.0184e-13
1.07317e-12
1.03612e-12
1.55572e-12
2.45976e-12
4.03446e-12
7.07789e-12
1.60027e-11
5.71827e-11
1.45033e-10
5.55766e-13
9.69054e-13
8.99762e-13
1.33275e-12
2.08362e-12
3.39608e-12
5.78933e-12
1.18075e-11
3.88702e-11
9.59559e-11
5.16466e-13
8.80083e-13
7.85354e-13
1.1519e-12
1.78467e-12
2.86919e-12
4.79672e-12
9.0622e-12
2.70744e-11
6.53903e-11
4.82626e-13
8.03579e-13
6.88134e-13
9.99206e-13
1.52927e-12
2.43443e-12
4.02697e-12
7.17176e-12
1.92765e-11
4.57148e-11
6.29319e-13
7.37743e-13
6.06862e-13
8.69915e-13
1.31946e-12
2.08331e-12
3.40711e-12
5.81761e-12
1.39861e-11
3.26755e-11
8.21497e-10
2.32525e-11
5.7274e-13
7.60291e-13
1.14528e-12
1.79297e-12
2.90034e-12
4.80631e-12
1.03226e-11
2.38011e-11
2.78327e-07
2.73571e-08
1.46527e-10
1.70016e-12
9.75854e-13
1.54186e-12
2.47299e-12
4.01784e-12
7.72297e-12
1.7612e-11
1.05446e-12
1.84399e-12
1.62857e-12
2.16968e-12
3.01851e-12
4.37184e-12
6.81902e-12
1.28475e-11
5.01786e-11
1.67542e-10
9.81562e-13
1.69078e-12
1.4597e-12
1.93668e-12
2.67028e-12
3.80782e-12
5.74116e-12
1.01458e-11
3.55453e-11
1.01839e-10
9.11108e-13
1.5437e-12
1.29708e-12
1.71244e-12
2.34598e-12
3.31521e-12
4.86518e-12
7.99301e-12
2.52427e-11
6.55226e-11
8.49368e-13
1.41529e-12
1.15826e-12
1.51833e-12
2.06971e-12
2.8995e-12
4.18659e-12
6.45574e-12
1.81976e-11
4.40909e-11
7.95758e-13
1.30331e-12
1.03866e-12
1.35165e-12
1.83619e-12
2.55264e-12
3.64295e-12
5.36763e-12
1.32546e-11
3.06991e-11
7.49008e-13
1.20532e-12
9.34912e-13
1.20881e-12
1.63109e-12
2.25527e-12
3.1995e-12
4.5686e-12
9.75253e-12
2.19447e-11
7.07822e-13
1.11875e-12
8.45097e-13
1.08472e-12
1.45485e-12
2.00404e-12
2.82523e-12
3.95327e-12
7.24675e-12
1.59984e-11
9.06554e-13
1.04332e-12
7.67236e-13
9.76563e-13
1.30163e-12
1.78426e-12
2.50252e-12
3.46005e-12
5.43588e-12
1.18485e-11
1.19573e-09
4.12603e-11
7.46802e-13
8.81476e-13
1.16858e-12
1.59293e-12
2.22777e-12
3.04912e-12
4.1129e-12
8.88371e-12
3.41764e-07
4.80824e-08
3.58474e-10
2.34818e-12
1.01556e-12
1.42552e-12
1.98578e-12
2.69587e-12
3.12108e-12
6.71839e-12
1.45811e-12
2.32571e-12
1.64223e-12
1.89692e-12
2.2766e-12
2.82282e-12
3.78786e-12
5.83799e-12
1.4185e-11
2.70618e-11
1.37917e-12
2.17654e-12
1.52506e-12
1.76614e-12
2.11712e-12
2.59923e-12
3.35412e-12
4.78568e-12
1.12627e-11
2.01788e-11
1.29994e-12
2.02808e-12
1.40185e-12
1.62543e-12
1.94912e-12
2.38028e-12
3.00403e-12
4.02005e-12
8.71403e-12
1.51983e-11
1.22991e-12
1.89548e-12
1.2906e-12
1.49668e-12
1.79555e-12
2.18835e-12
2.72792e-12
3.48017e-12
6.70459e-12
1.16108e-11
1.1679e-12
1.77671e-12
1.19068e-12
1.37954e-12
1.65662e-12
2.01693e-12
2.50042e-12
3.08815e-12
5.1495e-12
8.96208e-12
1.11275e-12
1.6697e-12
1.10102e-12
1.27419e-12
1.52832e-12
1.8614e-12
2.3004e-12
2.78904e-12
3.94627e-12
6.95876e-12
1.06367e-12
1.57361e-12
1.02057e-12
1.17861e-12
1.41192e-12
1.71995e-12
2.12717e-12
2.54517e-12
3.02131e-12
5.42382e-12
1.27789e-12
1.48784e-12
9.48088e-13
1.09186e-12
1.30613e-12
1.59103e-12
1.96914e-12
2.34275e-12
2.30787e-12
4.24297e-12
1.50254e-09
6.01549e-11
9.43498e-13
1.01229e-12
1.20933e-12
1.47268e-12
1.82419e-12
2.16561e-12
1.75612e-12
3.32659e-12
2.78474e-07
6.62476e-08
5.66799e-10
2.73601e-12
1.07536e-12
1.36277e-12
1.68617e-12
2.00154e-12
1.32231e-12
2.60103e-12
2.04634e-12
2.93854e-12
1.60376e-12
1.60021e-12
1.66149e-12
1.7989e-12
2.14074e-12
2.93138e-12
6.39377e-12
8.48047e-12
1.96273e-12
2.80316e-12
1.54443e-12
1.5585e-12
1.62805e-12
1.74502e-12
1.98472e-12
2.50049e-12
5.1995e-12
7.02629e-12
1.87874e-12
2.66374e-12
1.46784e-12
1.49621e-12
1.5748e-12
1.68463e-12
1.86609e-12
2.19246e-12
4.11939e-12
5.73027e-12
1.80273e-12
2.53522e-12
1.39326e-12
1.43144e-12
1.51735e-12
1.62702e-12
1.77892e-12
1.98689e-12
3.24384e-12
4.67201e-12
1.73385e-12
2.41638e-12
1.32146e-12
1.36736e-12
1.45892e-12
1.57018e-12
1.70792e-12
1.8487e-12
2.53647e-12
3.80647e-12
1.67173e-12
2.30699e-12
1.25361e-12
1.3039e-12
1.39889e-12
1.51365e-12
1.64889e-12
1.74891e-12
1.9663e-12
3.09738e-12
1.61521e-12
2.20621e-12
1.18989e-12
1.2424e-12
1.33848e-12
1.45605e-12
1.59275e-12
1.67291e-12
1.50127e-12
2.51549e-12
1.81663e-12
2.11495e-12
1.12985e-12
1.18347e-12
1.28012e-12
1.39805e-12
1.53596e-12
1.61045e-12
1.12562e-12
2.03538e-12
1.76004e-09
7.61513e-11
1.20552e-12
1.12645e-12
1.22283e-12
1.34107e-12
1.4797e-12
1.55522e-12
8.23882e-13
1.63831e-12
8.91316e-08
7.47682e-08
1.27317e-09
5.12055e-12
1.12067e-12
1.28099e-12
1.42048e-12
1.49758e-12
5.70338e-13
1.30591e-12
2.84428e-12
3.63606e-12
1.44353e-12
1.21361e-12
1.06605e-12
1.00342e-12
1.13414e-12
1.52516e-12
3.26649e-12
3.74453e-12
2.7623e-12
3.52946e-12
1.44235e-12
1.24735e-12
1.11856e-12
1.0363e-12
1.07621e-12
1.31006e-12
2.79785e-12
3.30352e-12
2.67877e-12
3.4148e-12
1.41955e-12
1.25658e-12
1.14973e-12
1.0661e-12
1.05237e-12
1.15975e-12
2.30355e-12
2.82714e-12
2.60171e-12
3.30486e-12
1.38892e-12
1.2536e-12
1.16768e-12
1.09251e-12
1.05279e-12
1.07096e-12
1.87936e-12
2.41541e-12
2.53046e-12
3.20064e-12
1.35499e-12
1.24303e-12
1.17576e-12
1.11252e-12
1.06357e-12
1.0284e-12
1.5152e-12
2.05908e-12
2.46455e-12
3.10138e-12
1.31797e-12
1.22592e-12
1.17558e-12
1.12617e-12
1.07947e-12
1.01379e-12
1.20178e-12
1.74937e-12
2.40367e-12
3.0079e-12
1.27953e-12
1.20414e-12
1.1692e-12
1.13364e-12
1.09462e-12
1.0145e-12
9.34336e-13
1.48082e-12
2.59004e-12
2.9215e-12
1.24076e-12
1.18001e-12
1.15723e-12
1.13435e-12
1.10587e-12
1.02342e-12
7.0583e-13
1.24961e-12
2.04895e-09
8.60607e-11
1.44193e-12
1.1535e-12
1.14163e-12
1.13003e-12
1.11169e-12
1.03461e-12
5.1119e-13
1.05095e-12
1.29738e-07
6.94928e-08
1.21145e-09
8.98824e-12
1.09215e-12
1.11826e-12
1.11174e-12
1.04179e-12
3.40441e-13
8.8388e-13
3.79953e-12
4.31737e-12
1.12649e-12
7.6155e-13
4.95245e-13
3.50279e-13
4.85038e-13
7.91493e-13
1.98415e-12
2.01543e-12
3.72486e-12
4.25099e-12
1.17089e-12
8.43111e-13
6.00164e-13
4.20858e-13
4.2904e-13
6.40537e-13
1.8197e-12
1.89681e-12
3.6501e-12
4.17782e-12
1.19267e-12
9.00738e-13
6.84168e-13
4.99891e-13
4.25179e-13
5.25078e-13
1.582e-12
1.70225e-12
3.57922e-12
4.10315e-12
1.2034e-12
9.43438e-13
7.50657e-13
5.74414e-13
4.57685e-13
4.53081e-13
1.37034e-12
1.52694e-12
3.5121e-12
4.02938e-12
1.20546e-12
9.7395e-13
8.03781e-13
6.40349e-13
5.0698e-13
4.26766e-13
1.18108e-12
1.36846e-12
3.44963e-12
3.95686e-12
1.20082e-12
9.95482e-13
8.46837e-13
6.98291e-13
5.6184e-13
4.37212e-13
1.01404e-12
1.22672e-12
3.39043e-12
3.88592e-12
1.19138e-12
1.00958e-12
8.798e-13
7.47095e-13
6.15805e-13
4.70108e-13
8.68491e-13
1.10098e-12
3.56201e-12
3.82032e-12
1.17858e-12
1.0173e-12
9.04855e-13
7.87764e-13
6.65625e-13
5.14045e-13
7.43864e-13
9.90103e-13
2.31316e-09
8.76827e-11
1.59945e-12
1.02118e-12
9.24525e-13
8.2137e-13
7.09283e-13
5.614e-13
6.39826e-13
8.94107e-13
3.69351e-07
4.73034e-08
1.07e-09
1.22772e-11
9.36308e-13
8.46598e-13
7.47001e-13
6.04814e-13
5.56909e-13
8.15285e-13
4.72747e-12
4.84763e-12
7.31699e-13
4.97381e-13
2.72358e-13
1.51281e-13
2.66035e-13
4.7445e-13
1.43233e-12
1.27654e-12
4.66351e-12
4.82563e-12
7.72856e-13
5.35595e-13
3.11359e-13
1.24609e-13
1.62975e-13
3.70839e-13
1.42134e-12
1.29072e-12
4.60182e-12
4.79913e-12
8.02885e-13
5.72264e-13
3.60726e-13
1.62781e-13
7.59977e-14
2.71043e-13
1.31719e-12
1.21666e-12
4.54178e-12
4.76766e-12
8.26891e-13
6.05177e-13
4.10373e-13
2.20923e-13
4.58349e-14
1.78275e-13
1.22281e-12
1.14838e-12
4.48448e-12
4.73318e-12
8.45086e-13
6.35432e-13
4.57101e-13
2.81029e-13
1.08767e-13
9.43515e-14
1.13632e-12
1.08542e-12
4.4292e-12
4.69605e-12
8.58852e-13
6.6143e-13
4.99769e-13
3.37359e-13
1.76609e-13
3.07286e-14
1.05776e-12
1.02777e-12
4.37673e-12
4.65819e-12
8.68638e-13
6.83838e-13
5.37782e-13
3.89278e-13
2.38991e-13
6.72336e-14
9.88001e-13
9.75735e-13
4.53932e-12
4.62309e-12
8.7423e-13
7.01903e-13
5.71131e-13
4.35576e-13
2.9574e-13
1.30701e-13
9.2602e-13
9.28984e-13
2.50781e-09
8.22701e-11
1.52357e-12
7.1814e-13
5.99927e-13
4.76422e-13
3.47582e-13
1.90963e-13
8.72043e-13
8.86821e-13
5.86527e-07
1.97499e-08
6.32831e-10
9.4227e-12
6.38061e-13
5.13449e-13
3.94349e-13
2.47453e-13
8.25419e-13
8.59561e-13
5.32584e-12
5.12009e-12
4.66196e-13
5.9666e-13
5.09948e-13
4.40166e-13
4.01064e-13
4.26655e-13
1.20352e-12
9.66556e-13
5.26906e-12
5.12652e-12
4.17481e-13
5.36888e-13
4.56949e-13
3.92543e-13
3.55372e-13
3.89001e-13
1.26532e-12
1.03903e-12
5.21678e-12
5.13265e-12
3.81315e-13
4.84123e-13
4.0974e-13
3.47469e-13
3.12419e-13
3.47285e-13
1.22386e-12
1.01677e-12
5.16558e-12
5.13243e-12
3.58603e-13
4.39248e-13
3.69286e-13
3.09585e-13
2.7384e-13
3.08685e-13
1.18447e-12
9.94808e-13
5.11571e-12
5.12722e-12
3.48365e-13
4.03625e-13
3.38231e-13
2.79071e-13
2.40829e-13
2.72997e-13
1.14686e-12
9.74341e-13
5.06796e-12
5.11881e-12
3.47325e-13
3.75737e-13
3.1286e-13
2.54454e-13
2.1361e-13
2.41908e-13
1.11149e-12
9.54842e-13
5.02182e-12
5.10748e-12
3.52015e-13
3.5454e-13
2.951e-13
2.37339e-13
1.93553e-13
2.13809e-13
1.07765e-12
9.36909e-13
5.18133e-12
5.09799e-12
3.6011e-13
3.38701e-13
2.82712e-13
2.26153e-13
1.7854e-13
1.9111e-13
1.0462e-12
9.18801e-13
2.60855e-09
7.63651e-11
1.2974e-12
3.27263e-13
2.74831e-13
2.20458e-13
1.71593e-13
1.73484e-13
1.01508e-12
9.018e-13
7.20283e-07
2.07783e-08
5.01785e-10
7.27638e-12
2.53969e-13
2.2236e-13
1.74755e-13
1.67577e-13
9.868e-13
9.30147e-13
5.3301e-12
5.09112e-12
4.51649e-13
6.21286e-13
5.39581e-13
4.65807e-13
4.12763e-13
4.18602e-13
1.13735e-12
9.23067e-13
5.2732e-12
5.0995e-12
3.79937e-13
5.52474e-13
4.82711e-13
4.17909e-13
3.72294e-13
3.89243e-13
1.20841e-12
9.99016e-13
5.22123e-12
5.10878e-12
3.21241e-13
4.89853e-13
4.29508e-13
3.72069e-13
3.32257e-13
3.52683e-13
1.17473e-12
9.80158e-13
5.17037e-12
5.11106e-12
2.78217e-13
4.33944e-13
3.81706e-13
3.30923e-13
2.95523e-13
3.19215e-13
1.14255e-12
9.61526e-13
5.12132e-12
5.10902e-12
2.52453e-13
3.87276e-13
3.41119e-13
2.94822e-13
2.62385e-13
2.87561e-13
1.11168e-12
9.4439e-13
5.07416e-12
5.10295e-12
2.4205e-13
3.48154e-13
3.06839e-13
2.63925e-13
2.32986e-13
2.58318e-13
1.08229e-12
9.28017e-13
5.02864e-12
5.09405e-12
2.43327e-13
3.15714e-13
2.78425e-13
2.38326e-13
2.0808e-13
2.31902e-13
1.05397e-12
9.12804e-13
5.18819e-12
5.08652e-12
2.52578e-13
2.89868e-13
2.55978e-13
2.17754e-13
1.86527e-13
2.0824e-13
1.02726e-12
8.97768e-13
2.60855e-09
7.63651e-11
1.26616e-12
2.6913e-13
2.3757e-13
2.01909e-13
1.7118e-13
1.88231e-13
1.00102e-12
8.83482e-13
7.20283e-07
2.07783e-08
5.01765e-10
7.25166e-12
1.9486e-13
1.94532e-13
1.65713e-13
1.77639e-13
9.76037e-13
9.2668e-13
4.73238e-12
4.76762e-12
6.5152e-13
5.11335e-13
3.33539e-13
2.27018e-13
2.6165e-13
4.12867e-13
1.20396e-12
1.1325e-12
4.6702e-12
4.7538e-12
6.7509e-13
5.19034e-13
3.36133e-13
1.94181e-13
1.82233e-13
3.30786e-13
1.22504e-12
1.1581e-12
4.61077e-12
4.73623e-12
6.97247e-13
5.34407e-13
3.56605e-13
1.97623e-13
1.18598e-13
2.46526e-13
1.14871e-12
1.09596e-12
4.55297e-12
4.71351e-12
7.1686e-13
5.52664e-13
3.85007e-13
2.25076e-13
9.05491e-14
1.68367e-13
1.07942e-12
1.039e-12
4.49759e-12
4.68706e-12
7.35063e-13
5.7238e-13
4.16931e-13
2.63827e-13
1.15234e-13
1.00394e-13
1.016e-12
9.86938e-13
4.44458e-12
4.65785e-12
7.50118e-13
5.91973e-13
4.49461e-13
3.06163e-13
1.62112e-13
5.46157e-14
9.59092e-13
9.40395e-13
4.39368e-12
4.6269e-12
7.62347e-13
6.10225e-13
4.80542e-13
3.48115e-13
2.1273e-13
7.05464e-14
9.08215e-13
8.98488e-13
4.55758e-12
4.598e-12
7.71665e-13
6.26714e-13
5.09356e-13
3.87332e-13
2.614e-13
1.18566e-13
8.63727e-13
8.61333e-13
2.50782e-09
8.22709e-11
1.45829e-12
6.41436e-13
5.3531e-13
4.24129e-13
3.07421e-13
1.70087e-13
8.2543e-13
8.29246e-13
5.86527e-07
1.97499e-08
6.3279e-10
9.37473e-12
5.67883e-13
4.57736e-13
3.50141e-13
2.20783e-13
7.92608e-13
8.21837e-13
3.80056e-12
4.21629e-12
9.85624e-13
6.55779e-13
3.95227e-13
2.18677e-13
3.3255e-13
6.07275e-13
1.48239e-12
1.69892e-12
3.73183e-12
4.16606e-12
1.0354e-12
7.33909e-13
4.98611e-13
3.07867e-13
2.91356e-13
4.85946e-13
1.39116e-12
1.61259e-12
3.66295e-12
4.10736e-12
1.06606e-12
7.94049e-13
5.83663e-13
3.97551e-13
3.04095e-13
3.90059e-13
1.21805e-12
1.44948e-12
3.59631e-12
4.04614e-12
1.08547e-12
8.39834e-13
6.5253e-13
4.77627e-13
3.50574e-13
3.3355e-13
1.06205e-12
1.30208e-12
3.53342e-12
3.98387e-12
1.09699e-12
8.76206e-13
7.09392e-13
5.47852e-13
4.09719e-13
3.21695e-13
9.23057e-13
1.16978e-12
3.47392e-12
3.92198e-12
1.10134e-12
9.02871e-13
7.55847e-13
6.09399e-13
4.71603e-13
3.43602e-13
8.01159e-13
1.05156e-12
3.41736e-12
3.86056e-12
1.10082e-12
9.22806e-13
7.93021e-13
6.6157e-13
5.29958e-13
3.86049e-13
6.96319e-13
9.48462e-13
3.59046e-12
3.80335e-12
1.09541e-12
9.3644e-13
8.23582e-13
7.05751e-13
5.83625e-13
4.36073e-13
6.09495e-13
8.57982e-13
2.31316e-09
8.76856e-11
1.53537e-12
9.4641e-13
8.47459e-13
7.43029e-13
6.30859e-13
4.87254e-13
5.39504e-13
7.8137e-13
3.69351e-07
4.73034e-08
1.06997e-09
1.22393e-11
8.64198e-13
7.72223e-13
6.71417e-13
5.34276e-13
4.87839e-13
7.24466e-13
2.8483e-12
3.54493e-12
1.28212e-12
1.03655e-12
8.75724e-13
7.89405e-13
8.62515e-13
1.145e-12
2.17783e-12
2.99568e-12
2.77589e-12
3.46023e-12
1.30274e-12
1.08951e-12
9.45661e-13
8.45539e-13
8.47556e-13
1.00715e-12
1.89726e-12
2.66639e-12
2.69976e-12
3.36407e-12
1.29963e-12
1.11766e-12
9.94307e-13
8.95155e-13
8.54973e-13
9.14064e-13
1.56378e-12
2.28524e-12
2.62818e-12
3.27008e-12
1.28721e-12
1.13143e-12
1.0281e-12
9.37827e-13
8.77456e-13
8.67364e-13
1.26958e-12
1.95266e-12
2.56144e-12
3.1788e-12
1.26805e-12
1.13643e-12
1.0509e-12
9.72549e-13
9.07425e-13
8.52967e-13
1.01563e-12
1.66277e-12
2.4987e-12
3.09084e-12
1.24466e-12
1.1332e-12
1.06468e-12
9.99769e-13
9.38391e-13
8.59194e-13
7.95644e-13
1.41048e-12
2.44056e-12
3.0063e-12
1.21821e-12
1.12482e-12
1.07076e-12
1.0182e-12
9.65639e-13
8.76405e-13
6.04948e-13
1.19242e-12
2.62644e-12
2.92825e-12
1.18968e-12
1.11121e-12
1.07115e-12
1.03104e-12
9.86951e-13
8.98106e-13
4.39826e-13
1.00486e-12
2.04895e-09
8.60651e-11
1.3999e-12
1.09537e-12
1.06587e-12
1.03714e-12
1.00358e-12
9.19806e-13
2.99991e-13
8.45073e-13
1.29738e-07
6.94928e-08
1.21143e-09
8.95825e-12
1.02775e-12
1.03595e-12
1.01325e-12
9.36396e-13
1.74009e-13
7.12559e-13
2.06481e-12
2.87871e-12
1.44792e-12
1.38326e-12
1.38443e-12
1.44562e-12
1.64349e-12
2.10772e-12
3.75466e-12
6.27794e-12
1.99067e-12
2.76797e-12
1.42115e-12
1.37876e-12
1.39177e-12
1.44437e-12
1.58111e-12
1.87851e-12
3.11467e-12
5.26971e-12
1.9126e-12
2.64697e-12
1.37197e-12
1.34867e-12
1.37442e-12
1.42676e-12
1.53027e-12
1.71361e-12
2.48863e-12
4.31554e-12
1.84071e-12
2.53263e-12
1.31975e-12
1.31155e-12
1.34776e-12
1.40528e-12
1.49512e-12
1.60428e-12
1.97107e-12
3.52913e-12
1.77485e-12
2.42544e-12
1.26629e-12
1.27057e-12
1.3161e-12
1.3794e-12
1.46648e-12
1.53293e-12
1.54791e-12
2.8832e-12
1.71404e-12