/*--------------------------------*- C++ -*----------------------------------*\
| =========                 |                                                 |
| \\      /  F ield         | OpenFOAM: The Open Source CFD Toolbox           |
|  \\    /   O peration     | Version:  4.1                                   |
|   \\  /    A nd           | Web:      www.OpenFOAM.org                      |
|    \\/     M anipulation  |                                                 |
\*---------------------------------------------------------------------------*/
FoamFile
{
    version     2.0;
    format      ascii;
    class       surfaceScalarField;
    location    "0.68";
    object      phi;
}
// * * * * * * * * * * * * * * * * * * * * * * * * * * * * * * * * * * * * * //

dimensions      [1 0 -1 0 0 0 0];

internalField   nonuniform List<scalar> 
51500
(
3.64355e-13
1.67418e-14
1.43518e-11
-1.20593e-15
2.12224e-14
1.41907e-11
-2.91052e-15
1.98654e-14
1.40305e-11
-2.80076e-15
1.84287e-14
1.38728e-11
-2.69807e-15
1.6952e-14
1.37167e-11
-2.63824e-15
1.5453e-14
1.35626e-11
-2.73497e-15
1.39673e-14
1.341e-11
-2.66451e-15
1.25101e-14
1.32604e-11
-2.71292e-15
1.10408e-14
1.31129e-11
9.58956e-15
1.297e-11
-7.56773e-17
3.66451e-13
1.0068e-14
1.79372e-11
-1.09973e-14
1.06829e-14
1.73111e-11
-1.03659e-14
9.09474e-15
1.67053e-11
-1.01585e-14
7.5856e-15
1.61251e-11
-9.83972e-15
6.20987e-15
1.557e-11
-9.4842e-15
4.96299e-15
1.50377e-11
-9.22198e-15
4.23608e-15
1.45268e-11
-8.96651e-15
3.30876e-15
1.40374e-11
-8.71758e-15
2.027e-15
1.35665e-11
8.36919e-16
1.31242e-11
-8.36354e-16
3.64439e-13
1.14123e-14
2.26858e-11
-2.448e-14
1.27703e-14
2.13185e-11
-2.05859e-14
1.05378e-14
2.00373e-11
-1.95008e-14
8.5491e-15
1.88487e-11
-1.8436e-14
6.77935e-15
1.77435e-11
-1.76143e-14
5.20323e-15
1.67165e-11
-1.66568e-14
3.81593e-15
1.57626e-11
-1.59385e-14
2.56995e-15
1.48725e-11
-1.52315e-14
1.48067e-15
1.40438e-11
5.58512e-16
1.32819e-11
-1.53371e-15
3.55743e-13
1.50163e-14
2.90583e-11
-4.34436e-14
1.57305e-14
2.65127e-11
-3.40013e-14
1.26317e-14
2.42184e-11
-3.14743e-14
9.94788e-15
2.21523e-11
-2.91197e-14
7.68696e-15
2.02991e-11
-2.70439e-14
5.76438e-15
1.86315e-11
-2.5139e-14
4.13421e-15
1.71279e-11
-2.3418e-14
2.73047e-15
1.57698e-11
-2.18236e-14
1.53455e-15
1.45407e-11
5.39289e-16
1.34419e-11
-2.31564e-15
3.34965e-13
2.01494e-14
3.77431e-11
-7.05027e-14
1.97112e-14
3.3328e-11
-5.21298e-14
1.5289e-14
2.95062e-11
-4.67879e-14
1.1684e-14
2.61899e-11
-4.21653e-14
8.7739e-15
2.33185e-11
-3.81381e-14
6.41188e-15
2.08209e-11
-3.47145e-14
4.47204e-15
1.86418e-11
-3.16287e-14
2.89399e-15
1.67351e-11
-2.88471e-14
1.59707e-15
1.50601e-11
5.6499e-16
1.36052e-11
-3.10234e-15
2.93241e-13
2.7662e-14
4.97712e-11
-1.35528e-13
2.51778e-14
4.23854e-11
-7.65014e-14
1.87858e-14
3.62639e-11
-6.65196e-14
1.38322e-14
3.11578e-11
-5.82187e-14
1.00664e-14
2.69022e-11
-5.13459e-14
7.13998e-15
2.33322e-11
-4.55006e-14
4.86616e-15
2.03234e-11
-4.05474e-14
3.07019e-15
1.77739e-11
-3.61741e-14
1.66464e-15
1.56026e-11
5.7666e-16
1.37713e-11
-3.97534e-15
2.11318e-13
4.84959e-14
6.67013e-11
-2.15032e-13
4.10075e-14
5.46035e-11
-1.10041e-13
2.92779e-14
4.49848e-11
-9.21003e-14
2.07576e-14
3.73187e-11
-7.81335e-14
1.45997e-14
3.11794e-11
-6.68677e-14
1.00737e-14
2.62232e-11
-5.77969e-14
6.68842e-15
2.21931e-11
-5.02621e-14
4.15862e-15
1.88926e-11
-4.3973e-14
2.22958e-15
1.61704e-11
7.53139e-16
1.39403e-11
-4.82774e-15
1.27287e-13
-3.89355e-13
9.10346e-11
-3.17192e-13
-4.32523e-13
7.13108e-11
-1.55346e-13
-4.50695e-13
5.63701e-11
-1.24809e-13
-4.62305e-13
4.50194e-11
-1.02097e-13
-4.69998e-13
3.63163e-11
-8.47065e-14
-4.75058e-13
2.95695e-11
-7.10616e-14
-4.78341e-13
2.42855e-11
-6.02978e-14
-4.80447e-13
2.01075e-11
-5.13225e-14
-4.81772e-13
1.67713e-11
-4.9007e-13
1.41217e-11
-5.77359e-15
3.30342e-12
-8.51462e-10
1.70024e-10
2.82297e-12
-9.18464e-10
1.31735e-10
2.55693e-12
-9.25307e-10
1.05875e-10
2.32076e-12
-9.30381e-10
8.6992e-11
2.11134e-12
-9.34438e-10
7.30534e-11
1.92632e-12
-9.37717e-10
6.26108e-11
1.76278e-12
-9.40389e-10
5.46904e-11
1.61794e-12
-9.42584e-10
4.86156e-11
1.45498e-12
-9.44481e-10
4.39069e-11
-9.662e-10
4.0672e-11
-6.74417e-15
-3.98689e-10
1.51985e-07
-8.41487e-07
3.18674e-10
1.29177e-07
-9.36532e-07
3.47913e-10
1.13264e-07
-9.38611e-07
3.38301e-10
1.00013e-07
-9.40134e-07
3.27901e-10
8.88684e-08
-9.41468e-07
3.17261e-10
7.94272e-08
-9.42651e-07
3.06656e-10
7.13718e-08
-9.43712e-07
2.91156e-10
6.44522e-08
-9.44673e-07
1.06875e-10
5.84779e-08
-9.45643e-07
5.44069e-08
-7.80474e-15
-9.8686e-07
3.4149e-13
8.88682e-14
6.65769e-13
-1.81085e-14
8.38724e-14
6.54424e-13
-2.52856e-14
7.39327e-14
6.4395e-13
-2.44499e-14
6.42934e-14
6.31808e-13
-2.40259e-14
5.49912e-14
6.21074e-13
-2.38368e-14
4.5976e-14
6.11072e-13
-2.37482e-14
3.72643e-14
5.99639e-13
-2.35074e-14
2.88575e-14
5.89935e-13
-2.54575e-14
2.06699e-14
5.79995e-13
1.29164e-14
5.69571e-13
-1.58359e-15
2.85076e-13
8.30473e-14
9.22543e-13
-6.97869e-14
7.5585e-14
8.76118e-13
-8.47721e-14
6.39981e-14
8.32113e-13
-8.15318e-14
5.29371e-14
7.89183e-13
-7.93298e-14
4.21481e-14
7.49175e-13
-7.71414e-14
2.95172e-14
7.10775e-13
-7.49118e-14
2.07324e-14
6.76012e-13
-7.37867e-14
1.35959e-14
6.41981e-13
-7.75915e-14
7.56582e-15
6.11401e-13
2.54141e-15
5.80375e-13
-4.2685e-15
2.01061e-13
1.04881e-13
1.30033e-12
-1.76529e-13
9.35706e-14
1.18613e-12
-1.60849e-13
7.82848e-14
1.08763e-12
-1.52498e-13
6.41829e-14
9.91976e-13
-1.45122e-13
5.14895e-14
9.08031e-13
-1.38452e-13
3.99692e-14
8.31726e-13
-1.32356e-13
2.95363e-14
7.63186e-13
-1.27043e-13
2.01474e-14
7.00905e-13
-1.32483e-13
1.16817e-14
6.43821e-13
4.17404e-15
5.92897e-13
-6.83286e-15
8.01806e-14
1.28581e-13
1.86678e-12
-3.05679e-13
1.11516e-13
1.63347e-12
-2.58979e-13
9.11513e-14
1.43727e-12
-2.39682e-13
7.31271e-14
1.26031e-12
-2.23784e-13
5.73799e-14
1.10861e-12
-2.09286e-13
4.36152e-14
9.77768e-13
-1.95917e-13
3.16332e-14
8.65243e-13
-1.84479e-13
2.11782e-14
7.67889e-13
-1.88858e-13
1.20428e-14
6.80468e-13
4.17099e-15
6.0437e-13
-9.80054e-15
-4.05612e-14
1.59385e-13
2.7369e-12
-4.69074e-13
1.34058e-13
2.28859e-12
-3.84293e-13
1.06938e-13
1.92514e-12
-3.47543e-13
8.37072e-14
1.61626e-12
-3.17516e-13
6.41569e-14
1.36381e-12
-2.90463e-13
4.77134e-14
1.15652e-12
-2.66439e-13
3.38574e-14
9.84468e-13
-2.46228e-13
2.22074e-14
8.40974e-13
-2.47486e-13
1.23818e-14
7.20298e-13
4.26057e-15
6.18148e-13
-1.28797e-14
-1.75338e-13
1.99255e-13
4.10952e-12
-6.8183e-13
1.63302e-13
3.26108e-12
-5.45052e-13
1.26426e-13
2.61314e-12
-4.80891e-13
9.64149e-14
2.09178e-12
-4.2896e-13
7.20683e-14
1.68913e-12
-3.83834e-13
5.23015e-14
1.3736e-12
-3.44652e-13
3.63075e-14
1.12472e-12
-3.1235e-13
2.32988e-14
9.25754e-13
-3.08171e-13
1.27968e-14
7.65895e-13
4.25062e-15
6.33569e-13
-1.58695e-14
-5.84029e-13
2.54755e-13
6.32618e-12
-9.65338e-13
2.11214e-13
4.74126e-12
-7.50888e-13
1.59254e-13
3.59739e-12
-6.457e-13
1.18721e-13
2.73338e-12
-5.61835e-13
8.71953e-14
2.10662e-12
-4.90864e-13
6.2548e-14
1.63947e-12
-4.31447e-13
4.30781e-14
1.28777e-12
-3.82574e-13
2.75856e-14
1.02159e-12
-3.7146e-13
1.4869e-14
8.13179e-13
3.60069e-15
6.50626e-13
-1.88783e-14
-1.08259e-12
3.06118e-13
1.00181e-11
-1.34453e-12
2.09135e-13
7.04336e-12
-1.01562e-12
1.45914e-13
5.02906e-12
-8.4901e-13
9.96803e-14
3.61722e-12
-7.19287e-13
6.55655e-14
2.64939e-12
-6.13848e-13
4.00183e-14
1.96801e-12
-5.26888e-13
2.07034e-14
1.48301e-12
-4.58149e-13
5.94079e-15
1.1293e-12
-4.36574e-13
-5.43091e-15
8.67179e-13
-1.4272e-14
6.68408e-13
-2.19878e-14
-1.9235e-12
3.90825e-12
1.99806e-11
-1.20792e-12
-4.50236e-11
1.06121e-11
-9.43875e-13
-4.09862e-11
7.2749e-12
-7.92265e-13
-3.74809e-11
5.16642e-12
-6.77801e-13
-3.47367e-11
3.82642e-12
-5.8893e-13
-3.25727e-11
2.94783e-12
-5.20863e-13
-3.08618e-11
2.35708e-12
-4.97654e-13
-2.95075e-11
1.9502e-12
-5.7003e-13
-2.84407e-11
1.65878e-12
-2.79176e-11
1.44637e-12
-2.51665e-14
-1.00403e-09
1.45814e-08
8.96004e-08
-2.74269e-10
7.75976e-09
-1.73242e-09
-3.34311e-10
5.84442e-09
-2.01712e-09
-3.2575e-10
4.4972e-09
-2.00184e-09
-3.16392e-10
3.51474e-09
-1.97575e-09
-3.06709e-10
2.78543e-09
-1.94495e-09
-2.96979e-10
2.23565e-09
-1.91243e-09
-2.87451e-10
1.81539e-09
-1.88027e-09
-2.83595e-10
1.49031e-09
-1.85679e-09
1.25039e-09
-2.85603e-14
-2.31811e-09
3.43646e-13
8.2203e-14
2.43717e-14
-1.65073e-14
7.80337e-14
2.27114e-14
-2.25248e-14
6.88285e-14
2.12482e-14
-2.03212e-14
5.99594e-14
1.97319e-14
-1.8635e-14
5.1378e-14
1.7702e-14
-2.0409e-14
4.3024e-14
1.54919e-14
-1.90382e-14
3.50501e-14
1.46989e-14
-1.94927e-14
2.7276e-14
1.36823e-14
-2.35206e-14
1.97668e-14
1.27789e-14
1.2638e-14
1.28025e-14
-1.3121e-15
2.92298e-13
5.95079e-14
3.91201e-14
-6.48195e-14
5.4616e-14
3.52866e-14
-7.2549e-14
4.63179e-14
3.41571e-14
-6.72618e-14
3.83571e-14
2.92219e-14
-6.61836e-14
3.09639e-14
2.57522e-14
-6.25688e-14
2.41507e-14
2.38549e-14
-6.19652e-14
1.78263e-14
1.94215e-14
-6.11284e-14
1.20673e-14
1.73825e-14
-7.13471e-14
6.86808e-15
1.63522e-14
2.42328e-15
1.47241e-14
-4.43807e-15
2.13586e-13
7.61331e-14
5.93301e-14
-1.65363e-13
6.88037e-14
5.34827e-14
-1.3784e-13
5.7931e-14
5.07935e-14
-1.25769e-13
4.79571e-14
4.43864e-14
-1.1971e-13
3.89208e-14
3.78734e-14
-1.13124e-13
3.06907e-14
3.1883e-14
-1.08128e-13
2.37567e-14
2.7333e-14
-1.06106e-13
1.65591e-14
2.41834e-14
-1.21242e-13
9.60124e-15
2.09171e-14
3.32633e-15
1.74368e-14
-7.24074e-15
9.25868e-14
9.46621e-14
9.48906e-14
-2.89244e-13
8.28971e-14
8.65609e-14
-2.21289e-13
6.80937e-14
7.97997e-14
-1.97209e-13
5.50766e-14
6.59952e-14
-1.83745e-13
4.37617e-14
5.51609e-14
-1.70556e-13
3.42507e-14
4.65636e-14
-1.56979e-13
2.58349e-14
3.91907e-14
-1.54076e-13
1.71906e-14
3.30667e-14
-1.73192e-13
9.83727e-15
2.95616e-14
3.49539e-15
2.24154e-14
-1.04083e-14
-2.55414e-14
1.19438e-13
1.60955e-13
-4.46576e-13
1.00693e-13
1.41521e-13
-3.27759e-13
8.06692e-14
1.2597e-13
-2.73377e-13
6.35067e-14
1.0191e-13
-2.49795e-13
4.91973e-14
8.22085e-14
-2.26918e-13
3.74893e-14
6.69956e-14
-2.06292e-13
2.79535e-14
5.57627e-14
-2.03647e-13
1.84858e-14
4.75998e-14
-2.27007e-13
1.04568e-14
4.05643e-14
3.65124e-15
2.99011e-14
-1.31325e-14
-1.62275e-13
1.52349e-13
2.7802e-13
-6.52515e-13
1.24644e-13
2.39555e-13
-4.60893e-13
9.64577e-14
2.00643e-13
-3.69938e-13
7.37061e-14
1.55746e-13
-3.29225e-13
5.56958e-14
1.22809e-13
-2.92097e-13
4.12839e-14
9.76916e-14
-2.61098e-13
2.98049e-14
7.9351e-14
-2.54794e-13
1.94081e-14
6.61192e-14
-2.83031e-13
1.05243e-14
5.25252e-14
3.61646e-15
3.78564e-14
-1.64805e-14
-5.77229e-13
1.91514e-13
4.89051e-13
-9.3003e-13
1.54931e-13
4.03711e-13
-5.93669e-13
1.15994e-13
3.17972e-13
-4.91948e-13
8.61263e-14
2.3909e-13
-4.2667e-13
6.32197e-14
1.81343e-13
-3.69816e-13
4.63648e-14
1.40202e-13
-3.21674e-13
3.29807e-14
1.11497e-13
-2.98018e-13
2.08016e-14
8.85901e-14
-3.40914e-13
1.13743e-14
7.14286e-14
4.03222e-15
4.8143e-14
-1.9629e-14
-1.10516e-12
3.27686e-13
8.85547e-13
-1.30524e-12
2.24372e-13
6.8478e-13
-7.92316e-13
1.57648e-13
5.08009e-13
-6.45998e-13
1.10286e-13
3.62034e-13
-5.43063e-13
7.6386e-14
2.65454e-13
-4.5845e-13
5.17808e-14
1.99054e-13
-3.90837e-13
3.37313e-14
1.51019e-13
-3.44864e-13
2.04382e-14
1.17576e-13
-4.01106e-13
1.05409e-14
9.37503e-14
3.27159e-15
5.97696e-14
-2.2948e-14
-2.2271e-12
5.10966e-11
5.72084e-12
-1.76338e-12
1.03343e-12
1.03217e-12
-1.0554e-12
3.54696e-13
6.89881e-13
-8.40346e-13
1.30836e-13
4.8129e-13
-6.8669e-13
-3.41001e-14
3.48328e-13
-5.66973e-13
-1.5412e-13
2.60517e-13
-4.72667e-13
-2.41209e-13
2.00456e-13
-4.07656e-13
-3.037e-13
1.57924e-13
-4.71594e-13
-3.47682e-13
1.27288e-13
-3.74601e-13
8.70172e-14
-2.63103e-14
-6.3829e-10
5.92287e-09
7.98761e-08
-4.07057e-11
3.67108e-10
1.65976e-10
-4.09688e-11
1.98842e-10
-6.38467e-11
-3.45351e-11
1.32096e-10
-5.17108e-11
-2.91703e-11
9.03492e-11
-4.0386e-11
-2.48405e-11
6.3208e-11
-3.06257e-11
-2.13102e-11
4.51676e-11
-2.21745e-11
-1.84123e-11
3.29059e-11
-1.82863e-11
-1.60253e-11
2.43972e-11
-1.52352e-11
1.82523e-11
-2.98173e-14
-1.31009e-11
3.43864e-13
8.11286e-14
1.06845e-14
-1.6453e-14
7.70933e-14
9.61167e-15
-2.20961e-14
6.80388e-14
8.01635e-15
-1.99445e-14
5.92612e-14
6.41266e-15
-1.87785e-14
5.08166e-14
4.80592e-15
-1.95468e-14
4.26415e-14
3.95882e-15
-1.81417e-14
3.47091e-14
2.33713e-15
-1.91969e-14
2.70456e-14
1.15782e-15
-2.30779e-14
1.96651e-14
7.62148e-16
1.26233e-14
4.36593e-16
-1.55713e-15
2.93501e-13
5.81997e-14
1.7983e-14
-6.40043e-14
5.35009e-14
1.56181e-14
-7.12783e-14
4.53742e-14
1.61697e-14
-6.44921e-14
3.76749e-14
1.29123e-14
-6.19376e-14
3.04351e-14
9.52882e-15
-6.20419e-14
2.37018e-14
7.07996e-15
-5.88951e-14
1.75685e-14
5.95998e-15
-5.89391e-14
1.1929e-14
4.61592e-15
-7.03559e-14
6.79374e-15
3.77064e-15
2.42147e-15
2.21159e-15
-4.36521e-15
2.1651e-13
7.39654e-14
2.62316e-14
-1.62928e-13
6.69254e-14
2.45358e-14
-1.33301e-13
5.62291e-14
2.59236e-14
-1.1681e-13
4.62805e-14
1.9993e-14
-1.1379e-13
3.73699e-14
1.65832e-14
-1.03705e-13
2.93357e-14
1.37378e-14
-9.85233e-14
2.1815e-14
1.07984e-14
-1.03326e-13
1.5007e-14
9.00219e-15
-1.19561e-13
9.39805e-15
7.73063e-15
3.09019e-15
5.7775e-15
-7.11952e-15
9.63927e-14
9.19799e-14
4.3114e-14
-2.85088e-13
8.04699e-14
4.25615e-14
-2.13606e-13
6.60136e-14
4.45545e-14
-1.79189e-13
5.32927e-14
3.65221e-14
-1.6705e-13
4.20489e-14
2.97948e-14
-1.55617e-13
3.21842e-14
2.49954e-14
-1.44533e-13
2.35585e-14
2.06588e-14
-1.47753e-13
1.59663e-14
1.7572e-14
-1.7102e-13
9.57646e-15
1.48124e-14
3.59916e-15
1.03341e-14
-1.04996e-14
-1.95072e-14
1.1592e-13
7.53876e-14
-4.39628e-13
9.78719e-14
7.78913e-14
-3.06e-13
7.82261e-14
7.61444e-14
-2.58344e-13
6.13404e-14
6.13159e-14
-2.34981e-13
4.73289e-14
5.11816e-14
-2.13852e-13
3.55052e-14
4.19958e-14
-1.94911e-13
2.55881e-14
3.48025e-14
-1.94628e-13
1.77503e-14
3.03976e-14
-2.2406e-13
9.52424e-15
2.73257e-14
3.55267e-15
1.76039e-14
-1.33491e-14
-1.53647e-13
1.47782e-13
1.34923e-13
-6.41816e-13
1.20941e-13
1.3728e-13
-4.1654e-13
9.34139e-14
1.28853e-13
-3.54787e-13
7.1313e-14
1.03646e-13
-3.15776e-13
5.35322e-14
8.39188e-14
-2.8043e-13
3.90891e-14
6.95805e-14
-2.50106e-13
2.74413e-14
5.75522e-14
-2.37025e-13
1.78594e-14
4.7957e-14
-2.79129e-13
1.04921e-14
4.22671e-14
3.68958e-15
2.73136e-14
-1.67004e-14
-5.57823e-13
1.86683e-13
2.40741e-13
-9.13474e-13
1.50592e-13
2.45542e-13
-5.66241e-13
1.12709e-13
2.13423e-13
-4.75243e-13
8.3353e-14
1.68054e-13
-4.11852e-13
6.08621e-14
1.33217e-13
-3.56817e-13
4.34728e-14
1.07838e-13
-3.11855e-13
2.97202e-14
8.68656e-14
-2.81917e-13
1.90423e-14
7.3294e-14
-3.36815e-13
1.09074e-14
6.16891e-14
3.41898e-15
3.94351e-14
-1.98992e-14
-1.07608e-12
3.21447e-13
4.36505e-13
-1.27866e-12
1.78651e-13
4.28467e-13
-7.64388e-13
1.88526e-13
3.49263e-13
-6.25431e-13
1.32656e-13
2.65929e-13
-5.26095e-13
9.23497e-14
2.04961e-13
-4.45256e-13
6.31927e-14
1.6028e-13
-3.79681e-13
4.183e-14
1.28665e-13
-3.32386e-13
2.60323e-14
1.04742e-13
-3.9693e-13
1.41456e-14
8.56519e-14
5.25873e-15
5.58525e-14
-2.29224e-14
-2.1899e-12
5.23008e-11
8.47014e-12
-1.71688e-12
7.44385e-13
7.96333e-13
-1.02324e-12
2.46901e-13
5.66741e-13
-8.13846e-13
1.59515e-13
4.16193e-13
-6.63518e-13
1.0287e-13
3.08988e-13
-5.46458e-13
6.45156e-14
2.34932e-13
-4.54457e-13
3.83933e-14
1.81114e-13
-3.88435e-13
2.04233e-14
1.42523e-13
-4.58776e-13
7.99199e-15
1.1254e-13
-4.59581e-16
6.90419e-14
-2.64665e-14
-5.9365e-10
8.54736e-09
7.97057e-08
-6.79845e-12
8.02042e-11
2.50589e-10
-2.39598e-12
6.29524e-12
1.88162e-13
-2.65187e-12
3.51464e-12
-8.46662e-14
-2.03073e-12
2.17118e-12
5.05326e-14
-1.57464e-12
1.40108e-12
1.23712e-13
-1.2403e-12
9.34754e-13
1.61619e-13
-9.94815e-13
6.42925e-13
1.78453e-13
-8.61142e-13
4.51401e-13
1.83058e-13
2.91568e-13
-3.01126e-14
2.7088e-13
3.43748e-13
8.12141e-14
1.85209e-14
-1.68123e-14
7.71469e-14
1.55429e-14
-2.21309e-14
6.81306e-14
1.22476e-14
-2.04983e-14
5.93378e-14
7.64789e-15
-1.7245e-14
5.08638e-14
7.45552e-15
-2.00295e-14
4.26424e-14
3.48764e-15
-1.91665e-14
3.47615e-14
5.27582e-15
-1.88493e-14
2.71173e-14
4.44283e-15
-2.30692e-14
1.97036e-14
8.85127e-16
1.26543e-14
2.8233e-16
-1.82428e-15
2.93204e-13
5.82976e-14
2.6275e-14
-6.41519e-14
5.36113e-14
2.66751e-14
-7.14836e-14
4.54387e-14
1.96226e-14
-6.53845e-14
3.76787e-14
1.68418e-14
-6.28862e-14
3.04925e-14
1.12725e-14
-6.06842e-14
2.37897e-14
9.41712e-15
-5.93386e-14
1.75982e-14
6.40788e-15
-5.9401e-14
1.19628e-14
7.60152e-15
-7.04126e-14
6.84681e-15
6.23405e-15
2.48122e-15
1.60358e-15
-4.35502e-15
2.16164e-13
7.41028e-14
3.99322e-14
-1.63438e-13
6.7028e-14
3.61408e-14
-1.3452e-13
5.63582e-14
3.52032e-14
-1.14599e-13
4.65135e-14
3.21994e-14
-1.11339e-13
3.74728e-14
2.30719e-14
-1.05081e-13
2.94136e-14
1.67844e-14
-9.83065e-14
2.20023e-14
1.51586e-14
-1.03475e-13
1.51538e-14
1.19605e-14
-1.19445e-13
9.1318e-15
1.30491e-14
3.04829e-15
6.23792e-15
-7.43047e-15
9.60262e-14
9.22365e-14
6.47001e-14
-2.85709e-13
8.07768e-14
6.34244e-14
-2.14224e-13
6.62085e-14
6.2187e-14
-1.7969e-13
5.33681e-14
5.02557e-14
-1.66711e-13
4.22121e-14
4.17644e-14
-1.5619e-13
3.22234e-14
3.34925e-14
-1.4438e-13
2.35312e-14
3.10491e-14
-1.48397e-13
1.61061e-14
2.52095e-14
-1.71068e-13
1.0012e-14
2.5717e-14
3.76881e-15
1.98447e-14
-1.01596e-14
-2.00393e-14
1.16368e-13
1.09859e-13
-4.40908e-13
9.81787e-14
1.09916e-13
-3.0939e-13
7.85731e-14
1.07793e-13
-2.57981e-13
6.16852e-14
9.14258e-14
-2.35781e-13
4.75516e-14
7.36314e-14
-2.14512e-13
3.58272e-14
6.40388e-14
-1.94742e-13
2.59853e-14
5.67498e-14
-1.92333e-13
1.73513e-14
4.35612e-14
-2.24585e-13
9.43905e-15
3.56527e-14
3.70695e-15
2.44925e-14
-1.33071e-14
-1.54899e-13
1.48448e-13
1.89732e-13
-6.43566e-13
1.2162e-13
2.01647e-13
-4.1786e-13
9.39025e-14
1.80749e-13
-3.55769e-13
7.17277e-14
1.47404e-13
-3.1612e-13
5.38997e-14
1.20187e-13
-2.8129e-13
3.93723e-14
1.00265e-13
-2.50905e-13
2.75548e-14
7.97781e-14
-2.35275e-13
1.83208e-14
7.19997e-14
-2.79865e-13
1.07449e-14
5.9117e-14
3.78729e-15
3.77377e-14
-1.66089e-14
-5.60957e-13
1.87634e-13
3.38431e-13
-9.1704e-13
1.5152e-13
3.48005e-13
-5.6775e-13
1.13451e-13
3.0918e-13
-4.76908e-13
8.39283e-14
2.3616e-13
-4.12905e-13
6.13336e-14
1.93882e-13
-3.58417e-13
4.37794e-14
1.52565e-13
-3.12292e-13
3.01498e-14
1.26968e-13
-2.82633e-13
1.91595e-14
1.03386e-13
-3.37987e-13
1.11545e-14
8.61177e-14
4.06739e-15
5.56236e-14
-1.98366e-14
-1.0824e-12
3.2477e-13
6.03621e-13
-1.28454e-12
1.85662e-13
6.11357e-13
-7.67306e-13
1.39562e-13
5.02035e-13
-6.28107e-13
1.01027e-13
3.81153e-13
-5.28442e-13
7.24447e-14
2.96931e-13
-4.46929e-13
5.41033e-14
2.3585e-13
-3.81226e-13
3.65985e-14
1.83704e-13
-3.33844e-13
2.30889e-14
1.50268e-13
-3.98433e-13
1.26278e-14
1.23257e-13
4.85337e-15
7.75061e-14
-2.3144e-14
-2.21924e-12
5.48589e-11
1.31032e-11
-1.72329e-12
6.83782e-13
1.16241e-12
-1.02867e-12
1.62217e-13
8.16317e-13
-8.18785e-13
1.7168e-13
5.91585e-13
-6.67105e-13
1.13626e-13
4.44311e-13
-5.49595e-13
7.31138e-14
3.36852e-13
-4.56692e-13
4.42307e-14
2.56074e-13
-3.90547e-13
1.84308e-14
2.06755e-13
-4.6116e-13
8.40902e-15
1.63297e-13
3.26957e-15
1.03337e-13
-2.65298e-14
-6.22011e-10
1.36065e-08
8.41301e-08
-5.15443e-12
1.12496e-10
2.77966e-10
-1.36678e-12
1.81964e-12
9.19551e-13
-1.08394e-12
8.94975e-13
1.57498e-13
-8.54017e-13
6.27246e-13
8.50627e-14
-6.80324e-13
4.42567e-13
6.20666e-14
-5.49788e-13
3.21896e-13
4.80092e-14
-4.57164e-13
2.39951e-13
3.80493e-14
-5.31011e-13
1.81995e-13
3.06573e-14
1.12297e-13
-3.00671e-14
2.66027e-14
3.43411e-13
8.13654e-14
2.21537e-14
-1.71423e-14
7.72965e-14
1.49195e-14
-2.2758e-14
6.81995e-14
1.84323e-14
-1.98925e-14
5.94455e-14
1.31533e-14
-1.95642e-14
5.09101e-14
7.64295e-15
-1.92017e-14
4.27114e-14
4.60974e-15
-1.88647e-14
3.47822e-14
2.07353e-15
-1.98367e-14
2.7148e-14
1.30822e-15
-2.30842e-14
1.97729e-14
1.29458e-15
1.2678e-14
1.48069e-15
-1.55713e-15
2.92831e-13
5.84847e-14
3.75452e-14
-6.48351e-14
5.37692e-14
3.39183e-14
-7.09227e-14
4.56159e-14
3.21159e-14
-6.69619e-14
3.78041e-14
2.09186e-14
-6.13782e-14
3.06193e-14
2.13487e-14
-6.16378e-14
2.38619e-14
1.18585e-14
-5.71795e-14
1.7684e-14
8.26958e-15
-5.93348e-14
1.20198e-14
5.3303e-15
-7.07694e-14
6.90904e-15
4.56311e-15
2.54439e-15
4.83905e-15
-4.36348e-15
2.15492e-13
7.44193e-14
4.78742e-14
-1.64439e-13
6.72907e-14
5.14048e-14
-1.34639e-13
5.65717e-14
5.4146e-14
-1.15438e-13
4.66586e-14
4.29063e-14
-1.14711e-13
3.76012e-14
3.1603e-14
-1.03946e-13
2.95449e-14
2.6546e-14
-9.90371e-14
2.21693e-14
1.7791e-14
-1.03013e-13
1.53708e-14
1.85746e-14
-1.19753e-13
9.48172e-15
1.20434e-14
3.43168e-15
8.44628e-15
-7.48598e-15
9.52163e-14
9.27329e-14
9.04364e-14
-2.87037e-13
8.11967e-14
8.78441e-14
-2.15079e-13
6.65735e-14
9.16254e-14
-1.8015e-13
5.37226e-14
7.53289e-14
-1.67788e-13
4.25305e-14
5.84021e-14
-1.55701e-13
3.25594e-14
4.20002e-14
-1.45189e-13
2.37529e-14
3.40503e-14
-1.48404e-13
1.62416e-14
3.14365e-14
-1.71246e-13
9.94991e-15
2.60424e-14
3.52928e-15
1.51538e-14
-1.02765e-14
-2.14678e-14
1.17128e-13
1.57199e-13
-4.4295e-13
9.88728e-14
1.60669e-13
-3.09568e-13
7.90847e-14
1.57718e-13
-2.59067e-13
6.21047e-14
1.26951e-13
-2.36346e-13
4.78664e-14
1.04845e-13
-2.15553e-13
3.611e-14
8.44618e-14
-1.9521e-13
2.60611e-14
6.14284e-14
-1.94155e-13
1.75847e-14
5.26261e-14
-2.25021e-13
9.88414e-15
4.41048e-14
3.98997e-15
2.79072e-14
-1.32947e-14
-1.5704e-13
1.49694e-13
2.74163e-13
-6.47129e-13
1.22608e-13
2.86321e-13
-4.19556e-13
9.47737e-14
2.64293e-13
-3.57482e-13
7.23655e-14
2.06554e-13
-3.17034e-13
5.45042e-14
1.68036e-13
-2.83276e-13
3.97555e-14
1.28554e-13
-2.51422e-13
2.80436e-14
1.12384e-13
-2.35938e-13
1.85015e-14
8.20982e-14
-2.80879e-13
1.09854e-14
6.8834e-14
3.8786e-15
4.47356e-14
-1.64499e-14
-5.67184e-13
1.89351e-13
4.89635e-13
-9.22566e-13
1.53084e-13
5.03337e-13
-5.71968e-13
1.14619e-13
4.31507e-13
-4.79044e-13
8.49079e-14
3.41024e-13
-4.15617e-13
6.20517e-14
2.65771e-13
-3.60133e-13
4.44696e-14
2.11051e-13
-3.14144e-13
3.06747e-14
1.69412e-13
-2.83549e-13
1.96343e-14
1.23677e-13
-3.3956e-13
1.15219e-14
1.03006e-13
4.45696e-15
6.42258e-14
-1.975e-14
-1.0938e-12
3.29374e-13
8.87592e-13
-1.29424e-12
1.89736e-13
8.81549e-13
-7.73073e-13
1.40469e-13
7.12146e-13
-6.32561e-13
1.01616e-13
5.36306e-13
-5.32048e-13
7.27183e-14
4.08765e-13
-4.50064e-13
5.38881e-14
3.13531e-13
-3.83829e-13
3.68712e-14
2.47545e-13
-3.35909e-13
2.35142e-14
1.79197e-13
-4.00706e-13
1.30121e-14
1.41247e-13
5.18083e-15
8.88753e-14
-2.30419e-14
-2.2586e-12
5.82618e-11
1.7072e-11
-1.73552e-12
7.10755e-13
1.65691e-12
-1.03817e-12
1.74556e-13
1.1606e-12
-8.25915e-13
1.65578e-13
8.39556e-13
-6.72901e-13
1.08251e-13
6.14992e-13
-5.54533e-13
6.69143e-14
4.57027e-13
-4.60139e-13
3.16022e-14
3.40151e-13
-3.93825e-13
1.74994e-14
2.59486e-13
-4.64614e-13
9.06444e-15
1.94688e-13
3.72105e-15
1.17978e-13
-2.65588e-14
-6.64273e-10
1.85213e-08
9.06877e-08
-5.31983e-12
1.65667e-10
3.01036e-10
-1.36367e-12
2.41724e-12
9.7846e-13
-1.06633e-12
1.12715e-12
8.81303e-14
-8.43556e-13
8.06548e-13
6.42742e-14
-6.7407e-13
5.88514e-13
4.9775e-14
-5.46231e-13
4.33145e-13
3.92689e-14
-4.55017e-13
3.2564e-13
3.1522e-14
-5.31124e-13
2.48102e-13
2.57102e-14
1.46962e-13
-3.02926e-14
2.13231e-14
3.42901e-13
8.15702e-14
2.90372e-14
-1.73863e-14
7.74975e-14
2.81991e-14
-2.33507e-14
6.83195e-14
2.23731e-14
-1.99182e-14
5.95499e-14
1.78306e-14
-1.99426e-14
5.10313e-14
8.27311e-15
-1.98197e-14
4.28007e-14
5.63372e-15
-1.91564e-14
3.48811e-14
5.432e-15
-1.95447e-14
2.72303e-14
5.98858e-15
-2.29944e-14
1.98488e-14
1.35399e-14
1.27558e-14
3.78961e-14
-1.68312e-15
2.9229e-13
5.86869e-14
5.01891e-14
-6.54503e-14
5.39547e-14
4.50591e-14
-7.15493e-14
4.58059e-14
4.44898e-14
-6.6076e-14
3.79694e-14
3.47571e-14
-6.40871e-14
3.07056e-14
1.92082e-14
-6.11309e-14
2.39788e-14
1.25739e-14
-5.94583e-14
1.77759e-14
1.00862e-14
-5.90357e-14
1.214e-14
1.08286e-14
-7.0721e-14
6.99324e-15
1.18995e-14
2.6102e-15
2.85682e-14
-4.47103e-15
2.14707e-13
7.48174e-14
7.31016e-14
-1.65507e-13
6.75856e-14
6.86937e-14
-1.35194e-13
5.68282e-14
6.94389e-14
-1.17273e-13
4.6875e-14
5.57252e-14
-1.12064e-13
3.78122e-14
4.34329e-14
-1.05751e-13
2.96276e-14
2.39665e-14
-9.77683e-14
2.23076e-14
2.003e-14
-1.03879e-13
1.53837e-14
2.13166e-14
-1.19883e-13
9.76764e-15
2.25678e-14
3.30633e-15
2.75351e-14
-7.61674e-15
9.41796e-14
9.33376e-14
1.16963e-13
-2.88483e-13
8.17353e-14
1.19221e-13
-2.16089e-13
6.70206e-14
1.19575e-13
-1.81259e-13
5.41027e-14
9.63835e-14
-1.68552e-13
4.29287e-14
7.81494e-14
-1.56248e-13
3.29841e-14
5.69859e-14
-1.45057e-13
2.40281e-14
3.77383e-14
-1.4833e-13
1.64904e-14
3.32064e-14
-1.71937e-13
9.64765e-15
3.73941e-14
4.08082e-15
3.44392e-14
-1.00809e-14
-2.32082e-14
1.18071e-13
2.03411e-13
-4.45309e-13
9.96897e-14
2.11073e-13
-3.12572e-13
7.97522e-14
2.02353e-13
-2.60044e-13
6.26085e-14
1.64436e-13
-2.37238e-13
4.82653e-14
1.33131e-13
-2.16989e-13
3.64293e-14
1.08011e-13
-1.9555e-13
2.64114e-14
6.77898e-14
-1.96179e-13
1.77117e-14
5.53041e-14
-2.25646e-13
1.0361e-14
5.49758e-14
4.23917e-15
4.79916e-14
-1.34235e-14
-1.59766e-13
1.51207e-13
3.62504e-13
-6.51123e-13
1.23808e-13
3.73569e-13
-4.2277e-13
9.57333e-14
3.40118e-13
-3.59287e-13
7.32359e-14
2.74221e-13
-3.18592e-13
5.52032e-14
2.18946e-13
-2.84713e-13
4.03345e-14
1.78934e-13
-2.53108e-13
2.84637e-14
1.12401e-13
-2.36423e-13
1.88645e-14
8.74564e-14
-2.81967e-13
1.14108e-14
7.48945e-14
4.08078e-15
6.6362e-14
-1.65931e-14
-5.74865e-13
1.91966e-13
6.40533e-13
-9.29295e-13
1.54975e-13
6.51292e-13
-5.75854e-13
1.16076e-13
5.63292e-13
-4.82597e-13
8.6014e-14
4.38998e-13
-4.18251e-13
6.29364e-14
3.45228e-13
-3.62448e-13
4.51896e-14
2.75443e-13
-3.16728e-13
3.13872e-14
2.04459e-13
-2.84475e-13
2.01502e-14
1.3341e-13
-3.41524e-13
1.17415e-14
1.06601e-13
4.83652e-15
9.13834e-14
-1.97344e-14
-1.10786e-12
3.30885e-13
1.14728e-12
-1.30558e-12
1.90987e-13
1.12836e-12
-7.79985e-13
1.42764e-13
9.17698e-13
-6.38074e-13
1.03242e-13
6.92171e-13
-5.36479e-13
7.39772e-14
5.28226e-13
-4.53393e-13
5.46237e-14
4.1199e-13
-3.87685e-13
3.76226e-14
3.1837e-13
-3.38385e-13
2.4207e-14
1.96207e-13
-4.03524e-13
1.36421e-14
1.50169e-13
5.65897e-15
9.91228e-14
-2.31276e-14
-2.26384e-12
5.69486e-11
1.63617e-11
-1.75738e-12
6.70609e-13
2.04605e-12
-1.04983e-12
1.69356e-13
1.49802e-12
-8.34678e-13
1.688e-13
1.08008e-12
-6.80004e-13
1.10599e-13
7.99424e-13
-5.60079e-13
6.87721e-14
6.02087e-13
-4.65302e-13
3.26991e-14
4.59053e-13
-3.97322e-13
1.81746e-14
2.79575e-13
-4.68996e-13
9.5162e-15
2.06004e-13
4.18167e-15
1.26045e-13
-2.66107e-14
-6.57195e-10
1.84939e-08
9.45179e-08
-5.01822e-12
1.34845e-10
2.92737e-10
-1.36878e-12
2.86826e-12
7.91191e-13
-1.08014e-12
1.64538e-12
8.55085e-14
-8.53879e-13
1.17928e-12
6.40875e-14
-6.82238e-13
8.57819e-13
5.01065e-14
-5.53286e-13
6.34486e-13
3.98474e-14
-4.60249e-13
4.41092e-13
3.22936e-14
-5.37253e-13
2.75887e-13
2.65074e-14
1.6098e-13
-3.01816e-14
2.23285e-14
3.42617e-13
8.17609e-14
2.09898e-14
-1.80479e-14
7.75412e-14
5.24749e-15
-2.33504e-14
6.84396e-14
8.01187e-15
-2.06024e-14
5.96526e-14
9.06607e-15
-2.02455e-14
5.11397e-14
1.69467e-14
-2.05375e-14
4.2946e-14
3.23208e-14
-2.01736e-14
3.50698e-14
5.86729e-14
-2.01723e-14
2.75101e-14
2.02567e-13
-1.88608e-14
2.02567e-14
7.92274e-13
1.30113e-14
2.40278e-12
-8.48627e-15
2.91584e-13
5.89004e-14
3.27014e-14
-6.58262e-14
5.40701e-14
9.15483e-15
-7.20013e-14
4.58707e-14
1.7763e-14
-6.69979e-14
3.80598e-14
1.70239e-14
-6.427e-14
3.08315e-14
2.30424e-14
-6.12154e-14
2.41267e-14
3.66844e-14
-6.03582e-14
1.79302e-14
5.65153e-14
-6.25719e-14
1.23303e-14
1.40281e-13
-7.17473e-14
7.30528e-15
4.72756e-13
2.75955e-15
1.56615e-12
-8.39064e-15
2.13703e-13
7.51182e-14
4.5741e-14
-1.66423e-13
6.78026e-14
1.59641e-14
-1.35481e-13
5.70699e-14
2.91725e-14
-1.18339e-13
4.70706e-14
2.88159e-14
-1.11796e-13
3.80421e-14
3.20897e-14
-1.06331e-13
2.99209e-14
4.53882e-14
-9.94334e-14
2.26247e-14
6.76432e-14
-1.04993e-13
1.55687e-14
1.15346e-13
-1.2355e-13
9.27873e-15
3.14778e-13
3.51845e-15
1.02636e-12
-6.38682e-15
9.33365e-14
9.39006e-14
7.71241e-14
-2.89523e-13
8.2088e-14
3.80736e-14
-2.17116e-13
6.73226e-14
5.63355e-14
-1.81562e-13
5.4422e-14
5.42233e-14
-1.68674e-13
4.32052e-14
5.62343e-14
-1.567e-13
3.32032e-14
6.41108e-14
-1.46931e-13
2.43936e-14
8.36438e-14
-1.50107e-13
1.6937e-14
1.14177e-13
-1.76093e-13
9.92013e-15
2.4064e-13
4.42063e-15
7.11936e-13
-7.49422e-15
-2.4662e-14
1.18998e-13
1.35006e-13
-4.46837e-13
1.00293e-13
8.90019e-14
-3.12747e-13
8.02961e-14
1.07877e-13
-2.61179e-13
6.31761e-14
9.94376e-14
-2.37776e-13
4.8766e-14
9.44427e-14
-2.17373e-13
3.69687e-14
1.25497e-13
-1.97038e-13
2.66589e-14
1.10368e-13
-1.99515e-13
1.79567e-14
1.30595e-13
-2.30071e-13
1.09452e-14
2.14389e-13
4.18611e-15
5.25922e-13
-1.02258e-14
-1.62315e-13
1.5258e-13
2.40876e-13
-6.53473e-13
1.24703e-13
1.86359e-13
-4.23605e-13
9.65686e-14
1.98413e-13
-3.61469e-13
7.3932e-14
1.75004e-13
-3.19033e-13
5.58674e-14
1.57628e-13
-2.87103e-13
4.08812e-14
1.83538e-13
-2.54335e-13
2.89526e-14
1.53453e-13
-2.38545e-13
1.93124e-14
1.71278e-13
-2.87029e-13
1.16514e-14
2.172e-13
4.80456e-15
4.18593e-13
-1.5505e-14
-5.81975e-13
1.96836e-13
4.33925e-13
-9.32923e-13
1.56435e-13
3.63899e-13
-5.78827e-13
1.17217e-13
3.49914e-13
-4.85219e-13
8.70447e-14
2.95356e-13
-4.19925e-13
6.37844e-14
2.53056e-13
-3.65351e-13
4.59566e-14
2.55113e-13
-3.18683e-13
3.2167e-14
1.7078e-13
-2.87695e-13
2.07638e-14
2.18522e-13
-3.46941e-13
1.23456e-14
2.42934e-13
5.10905e-15
3.59767e-13
-1.8841e-14
-1.11963e-12
3.1813e-13
7.72298e-13
-1.31179e-12
1.83534e-13
6.78963e-13
-7.84676e-13
1.45319e-13
5.9864e-13
-6.42308e-13
1.04743e-13
4.83585e-13
-5.39634e-13
7.53361e-14
3.96306e-13
-4.56625e-13
5.56567e-14
3.70588e-13
-3.91709e-13
3.868e-14
3.8123e-13
-3.41641e-13
2.49241e-14
2.57211e-13
-4.10074e-13
1.4347e-14
2.87037e-13
6.27613e-15
3.3321e-13
-2.25343e-14
-2.09716e-12
3.03048e-11
2.31473e-12
-1.80123e-12
3.92698e-13
1.15085e-12
-1.05873e-12
2.66602e-13
9.95808e-13
-8.40776e-13
1.72379e-13
7.69121e-13
-6.85642e-13
1.13172e-13
6.02404e-13
-5.64451e-13
7.10571e-14
5.52163e-13
-4.71915e-13
3.40683e-14
5.36631e-13
-4.01147e-13
1.9003e-14
3.0177e-13
-4.76626e-13
1.00717e-14
3.43843e-13
4.77579e-15
3.29798e-13
-2.63325e-14
-3.68649e-10
-1.13338e-09
7.50336e-08
-2.87369e-12
-7.46341e-11
1.02508e-10
-1.31219e-12
1.13671e-12
-6.50823e-14
-1.09293e-12
1.21312e-12