/*--------------------------------*- C++ -*----------------------------------*\
| =========                 |                                                 |
| \\      /  F ield         | OpenFOAM: The Open Source CFD Toolbox           |
|  \\    /   O peration     | Version:  4.1                                   |
|   \\  /    A nd           | Web:      www.OpenFOAM.org                      |
|    \\/     M anipulation  |                                                 |
\*---------------------------------------------------------------------------*/
FoamFile
{
    version     2.0;
    format      ascii;
    class       volVectorField;
    location    "0.68";
    object      U;
}
// * * * * * * * * * * * * * * * * * * * * * * * * * * * * * * * * * * * * * //

dimensions      [0 1 -1 0 0 0 0];

internalField   nonuniform List<vector> 
18000
(
(8.51062e-14 3.86983e-13 -6.0053e-12)
(9.04392e-14 3.86194e-13 -5.93786e-12)
(8.159e-14 -9.82314e-15 -5.87067e-12)
(7.29551e-14 -1.33317e-14 -5.80479e-12)
(6.45557e-14 -1.30882e-14 -5.73954e-12)
(5.63844e-14 -1.27452e-14 -5.67509e-12)
(4.84941e-14 -1.27587e-14 -5.61134e-12)
(4.09243e-14 -1.27576e-14 -5.54882e-12)
(3.35516e-14 -1.2538e-14 -5.48719e-12)
(2.64584e-14 -9.39431e-15 -5.42749e-12)
(1.25159e-13 3.98501e-13 -7.50322e-12)
(1.38778e-13 3.86326e-13 -7.24151e-12)
(1.21626e-13 -4.55973e-14 -6.9878e-12)
(1.05374e-13 -4.77455e-14 -6.74546e-12)
(9.03055e-14 -4.61264e-14 -6.51359e-12)
(7.62757e-14 -4.43155e-14 -6.29121e-12)
(6.31e-14 -4.26439e-14 -6.07777e-12)
(5.09747e-14 -4.11962e-14 -5.87331e-12)
(3.95743e-14 -3.9653e-14 -5.67656e-12)
(2.89928e-14 -2.92738e-14 -5.49183e-12)
(1.36971e-13 4.02279e-13 -9.48644e-12)
(1.46822e-13 3.74311e-13 -8.91523e-12)
(1.21526e-13 -9.72735e-14 -8.37895e-12)
(9.8853e-14 -9.51262e-14 -7.8827e-12)
(7.87753e-14 -8.8914e-14 -7.42113e-12)
(6.09555e-14 -8.35082e-14 -6.99221e-12)
(4.50551e-14 -7.84734e-14 -6.59377e-12)
(3.09287e-14 -7.37879e-14 -6.22191e-12)
(1.83682e-14 -6.95166e-14 -5.87571e-12)
(7.24407e-15 -5.00721e-14 -5.55753e-12)
(1.85272e-13 3.92387e-13 -1.21461e-11)
(1.87097e-13 3.42166e-13 -1.1083e-11)
(1.49813e-13 -1.71406e-13 -1.01236e-11)
(1.18033e-13 -1.59592e-13 -9.26123e-12)
(9.12157e-14 -1.45084e-13 -8.48763e-12)
(6.84833e-14 -1.32228e-13 -7.79135e-12)
(4.93155e-14 -1.20823e-13 -7.16348e-12)
(3.29272e-14 -1.10606e-13 -6.5962e-12)
(1.90804e-14 -1.01221e-13 -6.08284e-12)
(7.40431e-15 -7.14221e-14 -5.62413e-12)
(2.56277e-13 3.573e-13 -1.57682e-11)
(2.42471e-13 2.76634e-13 -1.39253e-11)
(1.87034e-13 -2.78252e-13 -1.23284e-11)
(1.42195e-13 -2.48274e-13 -1.0945e-11)
(1.06312e-13 -2.18182e-13 -9.74693e-12)
(7.74311e-14 -1.92646e-13 -8.70451e-12)
(5.40888e-14 -1.70968e-13 -7.7948e-12)
(3.51927e-14 -1.52365e-13 -6.99866e-12)
(1.98597e-14 -1.35808e-13 -6.29915e-12)
(7.48119e-15 -9.37285e-14 -5.69192e-12)
(3.6344e-13 2.78256e-13 -2.07804e-11)
(3.20611e-13 1.54705e-13 -1.76995e-11)
(2.36827e-13 -4.33879e-13 -1.51442e-11)
(1.7298e-13 -3.70303e-13 -1.30155e-11)
(1.2474e-13 -3.13835e-13 -1.12407e-11)
(8.78389e-14 -2.68089e-13 -9.75132e-12)
(5.94828e-14 -2.30576e-13 -8.49564e-12)
(3.76065e-14 -1.99464e-13 -7.43143e-12)
(2.06907e-14 -1.73116e-13 -6.5248e-12)
(7.57028e-15 -1.16972e-13 -5.76081e-12)
(5.29097e-13 1.21871e-13 -2.78283e-11)
(4.32224e-13 -6.26177e-14 -2.2786e-11)
(3.03707e-13 -6.64101e-13 -1.87749e-11)
(2.11913e-13 -5.4041e-13 -1.55813e-11)
(1.46601e-13 -4.39689e-13 -1.30224e-11)
(9.93541e-14 -3.62157e-13 -1.09556e-11)
(6.48891e-14 -3.01296e-13 -9.27445e-12)
(3.95974e-14 -2.52918e-13 -7.89712e-12)
(2.09311e-14 -2.13627e-13 -6.76084e-12)
(7.07914e-15 -1.41196e-13 -5.83073e-12)
(-1.81223e-12 -1.73466e-13 -3.79521e-11)
(-2.00399e-12 -4.44935e-13 -2.97385e-11)
(-2.06442e-12 -1.00855e-12 -2.35147e-11)
(-2.06782e-12 -7.79053e-13 -1.87891e-11)
(-2.03942e-12 -6.06178e-13 -1.51632e-11)
(-1.99301e-12 -4.80015e-13 -1.23508e-11)
(-1.93703e-12 -3.85391e-13 -1.01469e-11)
(-1.87656e-12 -3.13265e-13 -8.40357e-12)
(-1.81489e-12 -2.57272e-13 -7.01096e-12)
(-1.78113e-12 -1.66394e-13 -5.90592e-12)
(-5.22534e-09 -1.16813e-12 -8.1754e-11)
(-5.238e-09 -1.10901e-12 -6.51761e-11)
(-4.93124e-09 -1.16481e-12 -5.26331e-11)
(-4.6534e-09 -7.75579e-13 -4.31964e-11)
(-4.40293e-09 -5.16558e-13 -3.5992e-11)
(-4.17641e-09 -3.42565e-13 -3.03934e-11)
(-3.97084e-09 -2.23653e-13 -2.59755e-11)
(-3.78365e-09 -1.41657e-13 -2.24401e-11)
(-3.61295e-09 -1.56349e-13 -1.95738e-11)
(-3.52999e-09 -2.54626e-13 -1.74203e-11)
(5.64502e-07 -1.14257e-09 -6.17267e-08)
(3.30573e-08 -1.08338e-10 -5.40282e-08)
(2.596e-08 7.41678e-10 -4.74084e-08)
(2.1557e-08 6.76784e-10 -4.188e-08)
(1.78302e-08 6.13346e-10 -3.72273e-08)
(1.46459e-08 5.57013e-10 -3.32832e-08)
(1.19037e-08 5.07175e-10 -2.99161e-08)
(9.52414e-09 4.62231e-10 -2.70222e-08)
(7.09134e-09 2.27819e-10 -2.45214e-08)
(-9.78929e-08 -2.04544e-10 -2.28272e-08)
(2.57824e-13 3.65839e-13 -6.37005e-12)
(2.41926e-13 3.44644e-13 -6.29657e-12)
(2.12357e-13 -5.1015e-14 -6.22349e-12)
(1.83861e-13 -5.40137e-14 -6.15118e-12)
(1.56493e-13 -5.34567e-14 -6.08022e-12)
(1.30104e-13 -5.27642e-14 -6.01045e-12)
(1.04712e-13 -5.22611e-14 -5.94055e-12)
(8.03243e-14 -5.16577e-14 -5.87279e-12)
(5.67063e-14 -5.05483e-14 -5.80577e-12)
(3.44654e-14 -2.93593e-14 -5.74041e-12)
(5.1598e-13 3.19768e-13 -8.00789e-12)
(4.76275e-13 2.33902e-13 -7.72095e-12)
(4.0851e-13 -1.93617e-13 -7.44243e-12)
(3.45136e-13 -1.90261e-13 -7.17706e-12)
(2.86011e-13 -1.83675e-13 -6.92368e-12)
(2.30856e-13 -1.77314e-13 -6.68057e-12)
(1.79382e-13 -1.71139e-13 -6.44833e-12)
(1.31294e-13 -1.65516e-13 -6.22539e-12)
(8.63335e-14 -1.58438e-13 -6.01199e-12)
(4.49435e-14 -9.01444e-14 -5.81049e-12)
(6.3222e-13 2.37641e-13 -1.01984e-11)
(5.63027e-13 6.12496e-14 -9.56429e-12)
(4.66423e-13 -3.9347e-13 -8.97246e-12)
(3.79578e-13 -3.73504e-13 -8.42443e-12)
(3.02186e-13 -3.51173e-13 -7.91738e-12)
(2.33094e-13 -3.30279e-13 -7.44704e-12)
(1.71348e-13 -3.11193e-13 -7.01132e-12)
(1.16152e-13 -2.93499e-13 -6.60553e-12)
(6.69427e-14 -2.74879e-13 -6.22818e-12)
(2.34454e-14 -1.54127e-13 -5.88269e-12)
(8.1994e-13 9.91813e-14 -1.31681e-11)
(7.0463e-13 -2.02984e-13 -1.19757e-11)
(5.66686e-13 -6.72892e-13 -1.09062e-11)
(4.47979e-13 -6.18733e-13 -9.94788e-12)
(3.469e-13 -5.65422e-13 -9.09196e-12)
(2.60443e-13 -5.17985e-13 -8.32458e-12)
(1.8654e-13 -4.75409e-13 -7.6355e-12)
(1.23376e-13 -4.37015e-13 -7.0152e-12)
(6.93231e-14 -3.99413e-13 -6.45418e-12)
(2.38278e-14 -2.20489e-13 -5.95499e-12)
(1.07984e-12 -1.28252e-13 -1.72655e-11)
(8.92566e-13 -6.05271e-13 -1.51733e-11)
(6.94642e-13 -1.06377e-12 -1.33741e-11)
(5.3229e-13 -9.46634e-13 -1.18231e-11)
(4.00038e-13 -8.39688e-13 -1.0488e-11)
(2.91964e-13 -7.47626e-13 -9.33307e-12)
(2.03579e-13 -6.67662e-13 -8.32988e-12)
(1.31231e-13 -5.98171e-13 -7.45573e-12)
(7.19119e-14 -5.33508e-13 -6.6906e-12)
(2.4153e-14 -2.89801e-13 -6.02952e-12)
(1.4453e-12 -4.95744e-13 -2.30267e-11)
(1.14652e-12 -1.21546e-12 -1.94733e-11)
(8.59953e-13 -1.61337e-12 -1.65595e-11)
(6.36931e-13 -1.38647e-12 -1.41482e-11)
(4.63585e-13 -1.19104e-12 -1.21552e-11)
(3.28284e-13 -1.02894e-12 -1.04949e-11)
(2.2249e-13 -8.93153e-13 -9.10431e-12)
(1.39594e-13 -7.79033e-13 -7.93222e-12)
(7.46738e-14 -6.77447e-13 -6.93893e-12)
(2.44649e-14 -3.61747e-13 -6.1058e-12)
(1.97193e-12 -1.08316e-12 -3.12831e-11)
(1.49366e-12 -2.1419e-12 -2.53578e-11)
(1.07563e-12 -2.39304e-12 -2.07177e-11)
(7.67575e-13 -1.97862e-12 -1.70564e-11)
(5.39787e-13 -1.64245e-12 -1.41585e-11)
(3.70256e-13 -1.37413e-12 -1.18392e-11)
(2.43521e-13 -1.15765e-12 -9.96795e-12)
(1.4865e-13 -9.81844e-13 -8.44678e-12)
(7.7466e-14 -8.32203e-13 -7.19795e-12)
(2.4824e-14 -4.37041e-13 -6.18374e-12)
(2.73531e-12 -2.03877e-12 -4.34179e-11)
(1.85724e-12 -3.56549e-12 -3.35489e-11)
(1.25533e-12 -3.50521e-12 -2.62228e-11)
(8.37319e-13 -2.78013e-12 -2.07345e-11)
(5.44972e-13 -2.22338e-12 -1.65864e-11)
(3.38358e-13 -1.79806e-12 -1.34066e-11)
(1.91379e-13 -1.46813e-12 -1.09414e-11)
(8.65074e-14 -1.2097e-12 -9.00761e-12)
(1.14456e-14 -9.98445e-13 -7.47405e-12)
(-4.16703e-14 -5.15097e-13 -6.26708e-12)
(-1.55668e-10 -4.43731e-12 -9.2218e-11)
(-3.94558e-10 -6.49316e-12 -7.22412e-11)
(-3.24453e-10 -5.46813e-12 -5.75153e-11)
(-2.68281e-10 -4.19737e-12 -4.66642e-11)
(-2.24241e-10 -3.27106e-12 -3.85349e-11)
(-1.89244e-10 -2.59102e-12 -3.23128e-11)
(-1.61116e-10 -2.08145e-12 -2.74645e-11)
(-1.38272e-10 -1.69413e-12 -2.36255e-11)
(-1.19562e-10 -1.38868e-12 -2.05384e-11)
(-1.0532e-10 -8.00476e-13 -1.82283e-11)
(3.85254e-07 -2.02975e-09 -6.71159e-08)
(-7.79408e-09 -1.61295e-09 -5.8314e-08)
(-8.48546e-09 -6.86435e-10 -5.06565e-08)
(-7.88014e-09 -6.24149e-10 -4.43807e-08)
(-7.3089e-09 -5.72217e-10 -3.91821e-08)
(-6.7876e-09 -5.24639e-10 -3.48323e-08)
(-6.31796e-09 -4.81549e-10 -3.11588e-08)
(-5.89841e-09 -4.42758e-10 -2.80304e-08)
(-5.54974e-09 -4.1116e-10 -2.53479e-08)
(-7.61423e-09 -4.23376e-10 -2.35194e-08)
(2.31237e-13 3.69807e-13 -3.76226e-13)
(2.18141e-13 3.466e-13 -3.69614e-13)
(1.91243e-13 -4.93038e-14 -3.62812e-13)
(1.656e-13 -5.23191e-14 -3.55939e-13)
(1.41035e-13 -5.14138e-14 -3.49462e-13)
(1.17356e-13 -5.09858e-14 -3.43193e-13)
(9.49435e-14 -5.05268e-14 -3.36827e-13)
(7.32995e-14 -4.97053e-14 -3.31205e-13)
(5.25876e-14 -4.88494e-14 -3.25437e-13)
(3.31458e-14 -2.57026e-14 -3.19893e-13)
(5.03156e-13 3.34161e-13 -5.22257e-13)
(4.64395e-13 2.39617e-13 -4.95422e-13)
(3.9788e-13 -1.88106e-13 -4.69169e-13)
(3.35717e-13 -1.84492e-13 -4.44351e-13)
(2.77988e-13 -1.77974e-13 -4.21704e-13)
(2.24209e-13 -1.71475e-13 -4.00557e-13)
(1.74314e-13 -1.6529e-13 -3.79795e-13)
(1.2769e-13 -1.59639e-13 -3.60551e-13)
(8.41924e-14 -1.52684e-13 -3.43588e-13)
(4.44715e-14 -7.95496e-14 -3.26377e-13)
(6.223e-13 2.65635e-13 -7.39918e-13)
(5.5294e-13 6.9646e-14 -6.7368e-13)
(4.56973e-13 -3.84842e-13 -6.14685e-13)
(3.70864e-13 -3.64663e-13 -5.60685e-13)
(2.9451e-13 -3.41697e-13 -5.1269e-13)
(2.26718e-13 -3.2066e-13 -4.68814e-13)
(1.66345e-13 -3.01446e-13 -4.2968e-13)
(1.12739e-13 -2.8392e-13 -3.94485e-13)
(6.4801e-14 -2.65037e-13 -3.61887e-13)
(2.29329e-14 -1.35883e-13 -3.33739e-13)
(8.16466e-13 1.46116e-13 -1.067e-12)
(6.98779e-13 -1.95034e-13 -9.31528e-13)
(5.59706e-13 -6.63197e-13 -8.14881e-13)
(4.40776e-13 -6.07949e-13 -7.13379e-13)
(3.40053e-13 -5.53388e-13 -6.26782e-13)
(2.54528e-13 -5.05048e-13 -5.5228e-13)
(1.81786e-13 -4.61812e-13 -4.88045e-13)
(1.19955e-13 -4.23719e-13 -4.32437e-13)
(6.73262e-14 -3.86154e-13 -3.83467e-13)
(2.33175e-14 -1.95235e-13 -3.41165e-13)
(1.09002e-12 -5.62296e-14 -1.57372e-12)
(8.94647e-13 -6.0473e-13 -1.30927e-12)
(6.92452e-13 -1.05793e-12 -1.09495e-12)
(5.27579e-13 -9.37055e-13 -9.17743e-13)
(3.94564e-13 -8.26664e-13 -7.72823e-13)
(2.86748e-13 -7.32511e-13 -6.54163e-13)
(1.99216e-13 -6.51469e-13 -5.56267e-13)
(1.27979e-13 -5.81529e-13 -4.7512e-13)
(7.01506e-14 -5.16223e-13 -4.06739e-13)
(2.38674e-14 -2.56777e-13 -3.50636e-13)
(1.48178e-12 -3.93114e-13 -2.37761e-12)
(1.16342e-12 -1.23819e-12 -1.87441e-12)
(8.65992e-13 -1.62066e-12 -1.49202e-12)
(6.36287e-13 -1.38393e-12 -1.19121e-12)
(4.60199e-13 -1.18025e-12 -9.60044e-13)
(3.24025e-13 -1.01321e-12 -7.79152e-13)
(2.18558e-13 -8.74652e-13 -6.37194e-13)
(1.36766e-13 -7.59224e-13 -5.24378e-13)
(7.29872e-14 -6.56667e-13 -4.32183e-13)
(2.43396e-14 -3.21936e-13 -3.60598e-13)
(2.05822e-12 -9.44373e-13 -3.68496e-12)
(1.53747e-12 -2.21888e-12 -2.73688e-12)
(1.09566e-12 -2.43226e-12 -2.06167e-12)
(7.74045e-13 -1.99351e-12 -1.56262e-12)
(5.39817e-13 -1.63906e-12 -1.20103e-12)
(3.67594e-13 -1.3608e-12 -9.3266e-13)
(2.4041e-13 -1.13818e-12 -7.3196e-13)
(1.46103e-13 -9.59773e-13 -5.79478e-13)
(7.58987e-14 -8.08227e-13 -4.60682e-13)
(2.47792e-14 -3.8971e-13 -3.72036e-13)
(3.05353e-12 -1.86445e-12 -5.88173e-12)
(2.07231e-12 -3.75858e-12 -4.08472e-12)
(1.40616e-12 -3.60958e-12 -2.89592e-12)
(9.50832e-13 -2.82997e-12 -2.07492e-12)
(6.37105e-13 -2.23697e-12 -1.51567e-12)
(4.18302e-13 -1.79122e-12 -1.12341e-12)
(2.64389e-13 -1.44999e-12 -8.44318e-13)
(1.55528e-13 -1.18644e-12 -6.41904e-13)
(7.82329e-14 -9.71687e-13 -4.9291e-13)
(2.42639e-14 -4.60959e-13 -3.83863e-13)
(2.86106e-10 -3.79441e-12 -1.12482e-11)
(-1.09681e-11 -6.568e-12 -7.50366e-12)
(-9.28191e-12 -5.38573e-12 -5.16193e-12)
(-6.77943e-12 -4.02155e-12 -3.6546e-12)
(-5.06681e-12 -3.0476e-12 -2.67296e-12)
(-3.86113e-12 -2.35073e-12 -2.01336e-12)
(-2.99588e-12 -1.84009e-12 -1.55916e-12)
(-2.3625e-12 -1.46087e-12 -1.2392e-12)
(-1.89052e-12 -1.16527e-12 -1.00721e-12)
(-1.52267e-12 -5.51292e-13 -8.42948e-13)
(3.34139e-07 -1.04302e-09 -5.75169e-09)
(5.77984e-10 -9.43373e-10 -4.45715e-09)
(-4.45562e-10 -1.21731e-10 -3.35979e-09)
(-3.63029e-10 -9.06787e-11 -2.57508e-09)
(-2.9514e-10 -7.15534e-11 -2.00572e-09)
(-2.42778e-10 -5.71243e-11 -1.58464e-09)
(-2.01624e-10 -4.6113e-11 -1.26811e-09)
(-1.69027e-10 -3.76036e-11 -1.02664e-09)
(-1.43839e-10 -3.09231e-11 -8.40092e-10)
(-1.58561e-10 -2.63826e-11 -7.02322e-10)
(2.26824e-13 3.70306e-13 -1.63586e-14)
(2.14222e-13 3.46735e-13 -1.55265e-14)
(1.87844e-13 -4.91244e-14 -1.32925e-14)
(1.62607e-13 -5.20955e-14 -1.22653e-14)
(1.38564e-13 -5.13981e-14 -1.07374e-14)
(1.15528e-13 -5.07608e-14 -9.67996e-15)
(9.34022e-14 -5.00975e-14 -8.67461e-15)
(7.22283e-14 -4.93488e-14 -7.4963e-15)
(5.20436e-14 -4.83008e-14 -7.06234e-15)
(3.30157e-14 -2.5184e-14 -7.14239e-15)
(4.98048e-13 3.36557e-13 -2.48011e-14)
(4.60026e-13 2.41375e-13 -2.22503e-14)
(3.94205e-13 -1.86583e-13 -2.01111e-14)
(3.32722e-13 -1.8299e-13 -1.73297e-14)
(2.75594e-13 -1.76077e-13 -1.48528e-14)
(2.22383e-13 -1.70024e-13 -1.3413e-14)
(1.72963e-13 -1.6409e-13 -1.14566e-14)
(1.26861e-13 -1.57919e-13 -1.01605e-14)
(8.37939e-14 -1.50936e-13 -9.13581e-15)
(4.44666e-14 -7.77286e-14 -8.43146e-15)
(6.15494e-13 2.71463e-13 -3.97689e-14)
(5.47512e-13 7.37479e-14 -3.51653e-14)
(4.52521e-13 -3.80919e-13 -3.00802e-14)
(3.67354e-13 -3.60928e-13 -2.55039e-14)
(2.91815e-13 -3.38535e-13 -2.20934e-14)
(2.24671e-13 -3.17695e-13 -1.8821e-14)
(1.65067e-13 -2.98411e-13 -1.57566e-14)
(1.11984e-13 -2.81085e-13 -1.3872e-14)
(6.45746e-14 -2.62366e-13 -1.20193e-14)
(2.3076e-14 -1.32844e-13 -1.1285e-14)
(8.07539e-13 1.5807e-13 -6.51531e-14)
(6.91797e-13 -1.86863e-13 -5.66176e-14)
(5.54367e-13 -6.56436e-13 -4.73122e-14)
(4.36681e-13 -6.01761e-13 -3.9093e-14)
(3.37028e-13 -5.47659e-13 -3.25136e-14)
(2.52463e-13 -4.99921e-13 -2.75801e-14)
(1.80537e-13 -4.57281e-13 -2.29721e-14)
(1.1939e-13 -4.19311e-13 -1.93047e-14)
(6.73436e-14 -3.82147e-13 -1.69368e-14)
(2.37421e-14 -1.91435e-13 -1.48384e-14)
(1.07827e-12 -3.4789e-14 -1.11851e-13)
(8.85886e-13 -5.91015e-13 -9.26235e-14)
(6.86009e-13 -1.0463e-12 -7.4666e-14)
(5.22935e-13 -9.27244e-13 -5.97885e-14)
(3.91389e-13 -8.18271e-13 -4.86922e-14)
(2.84677e-13 -7.25002e-13 -3.93502e-14)
(1.98104e-13 -6.44629e-13 -3.23887e-14)
(1.277e-13 -5.75552e-13 -2.79968e-14)
(7.01352e-14 -5.11165e-13 -2.44408e-14)
(2.44168e-14 -2.51917e-13 -2.0637e-14)
(1.46597e-12 -3.54539e-13 -1.94876e-13)
(1.1523e-12 -1.21591e-12 -1.53039e-13)
(8.58154e-13 -1.60302e-12 -1.19189e-13)
(6.31035e-13 -1.36939e-12 -9.2371e-14)
(4.56835e-13 -1.16806e-12 -7.27528e-14)
(3.2209e-13 -1.00297e-12 -5.82157e-14)
(2.17719e-13 -8.65748e-13 -4.70135e-14)
(1.36551e-13 -7.5227e-13 -3.88612e-14)
(7.3269e-14 -6.5077e-13 -3.15596e-14)
(2.49883e-14 -3.1579e-13 -2.70761e-14)
(2.03714e-12 -8.76538e-13 -3.43178e-13)
(1.52303e-12 -2.18435e-12 -2.56104e-13)
(1.08621e-12 -2.40549e-12 -1.88599e-13)
(7.68046e-13 -1.97262e-12 -1.41904e-13)
(5.36274e-13 -1.62258e-12 -1.07657e-13)
(3.658e-13 -1.34728e-12 -8.34587e-14)
(2.39662e-13 -1.12737e-12 -6.58378e-14)
(1.46063e-13 -9.51336e-13 -5.28377e-14)
(7.66455e-14 -8.01334e-13 -4.29024e-14)
(2.55916e-14 -3.83086e-13 -3.51502e-14)
(3.02671e-12 -1.74569e-12 -6.19443e-13)
(2.05115e-12 -3.70644e-12 -4.28367e-13)
(1.39297e-12 -3.57058e-12 -3.00774e-13)
(9.4324e-13 -2.80124e-12 -2.14551e-13)
(6.33288e-13 -2.21482e-12 -1.57431e-13)
(4.16927e-13 -1.77459e-12 -1.17898e-13)
(2.64479e-13 -1.43729e-12 -8.98216e-14)
(1.56636e-13 -1.17629e-12 -7.01345e-14)
(7.9985e-14 -9.64185e-13 -5.61462e-14)
(2.64054e-14 -4.53784e-13 -4.49701e-14)
(3.15757e-10 -3.54476e-12 -1.21603e-12)
(4.32944e-12 -6.45537e-12 -6.97871e-13)
(1.53384e-12 -5.28981e-12 -4.61497e-13)
(9.92128e-13 -3.94885e-12 -3.18911e-13)
(6.38978e-13 -2.99135e-12 -2.27179e-13)
(4.01282e-13 -2.30639e-12 -1.67285e-13)
(2.40754e-13 -1.80439e-12 -1.26273e-13)
(1.31758e-13 -1.43144e-12 -9.79034e-14)
(5.74611e-14 -1.14039e-12 -7.75419e-14)
(8.31946e-15 -5.28153e-13 -6.30709e-14)
(3.31342e-07 -8.9237e-10 -5.51115e-10)
(1.13187e-09 -8.31189e-10 -1.78715e-10)
(-1.1748e-11 -1.87899e-11 -1.15049e-10)
(-1.02358e-11 -9.47928e-12 -7.6435e-11)
(-7.30992e-12 -6.72002e-12 -5.21775e-11)
(-5.34165e-12 -4.8821e-12 -3.64296e-11)
(-3.9736e-12 -3.61458e-12 -2.59654e-11)
(-3.00614e-12 -2.72476e-12 -1.88539e-11)
(-2.3273e-12 -2.07623e-12 -1.39195e-11)
(-2.19489e-12 -1.1767e-12 -1.03703e-11)
(2.27095e-13 3.7021e-13 -1.11698e-14)
(2.1439e-13 3.46132e-13 -1.00656e-14)
(1.881e-13 -4.98538e-14 -7.58682e-15)
(1.62791e-13 -5.26053e-14 -5.56094e-15)
(1.3868e-13 -5.17249e-14 -4.32342e-15)
(1.15519e-13 -5.1102e-14 -3.14152e-15)
(9.35305e-14 -5.07051e-14 -2.4825e-15)
(7.24118e-14 -4.96675e-14 -1.50147e-15)
(5.21382e-14 -4.83206e-14 -4.83722e-16)
(3.3092e-14 -2.5407e-14 -3.88452e-16)
(4.98855e-13 3.36244e-13 -1.61969e-14)
(4.60727e-13 2.4082e-13 -1.43992e-14)
(3.94853e-13 -1.87138e-13 -1.11175e-14)
(3.33165e-13 -1.83811e-13 -9.39721e-15)
(2.76024e-13 -1.76904e-13 -6.44655e-15)
(2.2273e-13 -1.70337e-13 -4.79044e-15)
(1.73287e-13 -1.64233e-13 -4.06695e-15)
(1.27238e-13 -1.58346e-13 -3.49252e-15)
(8.41346e-14 -1.51261e-13 -2.47521e-15)
(4.48474e-14 -7.77556e-14 -1.32503e-15)
(6.16955e-13 2.71117e-13 -2.64646e-14)
(5.48864e-13 7.28527e-14 -2.35227e-14)
(4.53649e-13 -3.8222e-13 -1.91192e-14)
(3.68291e-13 -3.61975e-13 -1.49935e-14)
(2.92662e-13 -3.39032e-13 -1.21734e-14)
(2.25486e-13 -3.18323e-13 -9.69165e-15)
(1.65694e-13 -2.98994e-13 -7.84003e-15)
(1.12562e-13 -2.81377e-13 -6.5072e-15)
(6.51325e-14 -2.62395e-13 -5.91827e-15)
(2.36525e-14 -1.32994e-13 -5.27786e-15)
(8.10149e-13 1.57455e-13 -4.54031e-14)
(6.94185e-13 -1.88275e-13 -3.96183e-14)
(5.56317e-13 -6.58026e-13 -3.28616e-14)
(4.38354e-13 -6.0331e-13 -2.67751e-14)
(3.38466e-13 -5.48842e-13 -2.18423e-14)
(2.53626e-13 -5.00882e-13 -1.80371e-14)
(1.81572e-13 -4.58131e-13 -1.53174e-14)
(1.20375e-13 -4.20011e-13 -1.29842e-14)
(6.83041e-14 -3.82561e-13 -1.12536e-14)
(2.44834e-14 -1.91207e-13 -1.05725e-14)
(1.08283e-12 -3.57425e-14 -7.9588e-14)
(8.89756e-13 -5.93783e-13 -6.89442e-14)
(6.89203e-13 -1.04961e-12 -5.58854e-14)
(5.25555e-13 -9.29781e-13 -4.51997e-14)
(3.93585e-13 -8.20279e-13 -3.76762e-14)
(2.86552e-13 -7.26909e-13 -3.11389e-14)
(1.99693e-13 -6.45886e-13 -2.5587e-14)
(1.29037e-13 -5.76205e-13 -2.20851e-14)
(7.14138e-14 -5.11961e-13 -1.93537e-14)
(2.54676e-14 -2.52492e-13 -1.67798e-14)
(1.47359e-12 -3.57214e-13 -1.40679e-13)
(1.15865e-12 -1.22144e-12 -1.17221e-13)
(8.63144e-13 -1.60822e-12 -9.361e-14)
(6.35131e-13 -1.37396e-12 -7.4981e-14)
(4.60076e-13 -1.17159e-12 -6.07157e-14)
(3.24817e-13 -1.0059e-12 -5.04674e-14)
(2.19934e-13 -8.68286e-13 -4.09063e-14)
(1.38407e-13 -7.54041e-13 -3.43728e-14)
(7.47692e-14 -6.52241e-13 -2.98862e-14)
(2.62817e-14 -3.16626e-13 -2.54729e-14)
(2.04993e-12 -8.8141e-13 -2.49728e-13)
(1.53331e-12 -2.19523e-12 -2.00837e-13)
(1.0939e-12 -2.41559e-12 -1.55119e-13)
(7.73981e-13 -1.98051e-12 -1.20466e-13)
(5.40937e-13 -1.62891e-12 -9.60166e-14)
(3.69398e-13 -1.35247e-12 -7.68352e-14)
(2.4259e-13 -1.13139e-12 -6.19805e-14)
(1.48474e-13 -9.54357e-13 -5.12548e-14)
(7.85313e-14 -8.04071e-13 -4.30691e-14)
(2.72294e-14 -3.84599e-13 -3.61808e-14)
(3.05377e-12 -1.75582e-12 -4.46606e-13)
(2.06715e-12 -3.728e-12 -3.41099e-13)
(1.40463e-12 -3.58877e-12 -2.51979e-13)
(9.5201e-13 -2.81514e-12 -1.90133e-13)
(6.39861e-13 -2.22573e-12 -1.46143e-13)
(4.21927e-13 -1.78303e-12 -1.14027e-13)
(2.68368e-13 -1.44385e-12 -9.0448e-14)
(1.59609e-13 -1.18157e-12 -7.26345e-14)
(8.22597e-14 -9.68265e-13 -5.92617e-14)
(2.82227e-14 -4.56199e-13 -4.97893e-14)
(3.31196e-10 -3.5857e-12 -9.41494e-13)
(4.93534e-12 -6.51304e-12 -5.77359e-13)
(1.82068e-12 -5.32254e-12 -4.06798e-13)
(1.17238e-12 -3.97289e-12 -2.9533e-13)
(7.54596e-13 -3.00953e-12 -2.18712e-13)
(4.78054e-13 -2.32005e-12 -1.65354e-13)
(2.9293e-13 -1.81474e-12 -1.26449e-13)
(1.68007e-13 -1.43945e-12 -9.94568e-14)
(8.2952e-14 -1.14669e-12 -7.8755e-14)
(2.6202e-14 -5.31474e-13 -6.3739e-14)
(3.51912e-07 -9.36482e-10 -4.40898e-10)
(1.2702e-09 -8.61109e-10 -9.42186e-12)
(4.19439e-12 -1.35834e-11 -3.49464e-12)
(8.96412e-13 -5.71447e-12 -2.08421e-12)
(6.02472e-13 -4.10652e-12 -1.2869e-12)
(4.10282e-13 -3.03022e-12 -8.28863e-13)
(2.77306e-13 -2.28016e-12 -5.51641e-13)
(1.85121e-13 -1.74766e-12 -3.77857e-13)
(1.20463e-13 -1.35056e-12 -2.64265e-13)
(7.28487e-14 -6.18656e-13 -1.88154e-13)
(2.27616e-13 3.69863e-13 -1.38292e-14)
(2.14859e-13 3.45334e-13 -1.16536e-14)
(1.88366e-13 -5.08863e-14 -9.62837e-15)
(1.63125e-13 -5.33668e-14 -6.72546e-15)
(1.38832e-13 -5.23357e-14 -5.13986e-15)
(1.1571e-13 -5.14677e-14 -2.98111e-15)
(9.35887e-14 -5.0729e-14 -2.08127e-15)
(7.24947e-14 -5.0124e-14 -1.3922e-15)
(5.23247e-14 -4.87243e-14 -6.64965e-16)
(3.31522e-14 -2.52219e-14 -9.24712e-16)
(5.00171e-13 3.3584e-13 -2.02008e-14)
(4.6191e-13 2.3947e-13 -1.79866e-14)
(3.95757e-13 -1.88418e-13 -1.30683e-14)
(3.34007e-13 -1.84722e-13 -1.05771e-14)
(2.76668e-13 -1.77794e-13 -8.13644e-15)
(2.23273e-13 -1.70881e-13 -5.82832e-15)
(1.73701e-13 -1.64531e-13 -4.25488e-15)
(1.27574e-13 -1.58485e-13 -3.39803e-15)
(8.46e-14 -1.51745e-13 -3.11437e-15)
(4.52091e-14 -7.81548e-14 -2.51413e-15)
(6.19341e-13 2.70297e-13 -3.24093e-14)
(5.50896e-13 7.11283e-14 -2.87454e-14)
(4.55456e-13 -3.83964e-13 -2.30663e-14)
(3.69725e-13 -3.63428e-13 -1.87887e-14)
(2.93931e-13 -3.40427e-13 -1.44595e-14)
(2.26518e-13 -3.19239e-13 -1.13541e-14)
(1.66668e-13 -2.99553e-13 -9.31362e-15)
(1.13368e-13 -2.81767e-13 -8.31692e-15)
(6.5885e-14 -2.62799e-13 -7.31453e-15)
(2.44851e-14 -1.3339e-13 -6.42575e-15)
(8.14254e-13 1.5573e-13 -5.62885e-14)
(6.97644e-13 -1.91157e-13 -4.84024e-14)
(5.59199e-13 -6.60878e-13 -3.97386e-14)
(4.40739e-13 -6.05633e-13 -3.23641e-14)
(3.40515e-13 -5.50766e-13 -2.6231e-14)
(2.55449e-13 -5.02252e-13 -2.12499e-14)
(1.83075e-13 -4.59137e-13 -1.82597e-14)
(1.21673e-13 -4.20853e-13 -1.5985e-14)
(6.93536e-14 -3.83089e-13 -1.43909e-14)
(2.5495e-14 -1.91593e-13 -1.25073e-14)
(1.08966e-12 -3.91159e-14 -9.8331e-14)
(8.95496e-13 -5.98872e-13 -8.3678e-14)
(6.93769e-13 -1.05433e-12 -6.81773e-14)
(5.29289e-13 -9.33597e-13 -5.56758e-14)
(3.96664e-13 -8.2335e-13 -4.61582e-14)
(2.89204e-13 -7.2952e-13 -3.86402e-14)
(2.01759e-13 -6.48095e-13 -3.18523e-14)
(1.30821e-13 -5.78011e-13 -2.71475e-14)
(7.29092e-14 -5.13273e-13 -2.30002e-14)
(2.66866e-14 -2.53136e-13 -2.07073e-14)
(1.48505e-12 -3.63633e-13 -1.72094e-13)
(1.1679e-12 -1.23093e-12 -1.43979e-13)
(8.70367e-13 -1.61688e-12 -1.14249e-13)
(6.40672e-13 -1.38064e-12 -9.13088e-14)
(4.64581e-13 -1.17683e-12 -7.44561e-14)
(3.28373e-13 -1.01039e-12 -6.17968e-14)
(2.22865e-13 -8.71961e-13 -5.05625e-14)
(1.40783e-13 -7.5672e-13 -4.22714e-14)
(7.68014e-14 -6.54548e-13 -3.62564e-14)
(2.79428e-14 -3.17903e-13 -3.15715e-14)
(2.06923e-12 -8.94766e-13 -3.04833e-13)
(1.54809e-12 -2.21292e-12 -2.44058e-13)
(1.10499e-12 -2.431e-12 -1.89457e-13)
(7.82368e-13 -1.99241e-12 -1.48007e-13)
(5.47402e-13 -1.6381e-12 -1.18189e-13)
(3.74405e-13 -1.35998e-12 -9.4888e-14)
(2.46605e-13 -1.1374e-12 -7.71865e-14)
(1.51582e-13 -9.59065e-13 -6.25859e-14)
(8.10074e-14 -8.07812e-13 -5.27434e-14)
(2.92911e-14 -3.86746e-13 -4.4676e-14)
(3.09285e-12 -1.78245e-12 -5.42658e-13)
(2.09103e-12 -3.76198e-12 -4.1559e-13)
(1.42152e-12 -3.61644e-12 -3.09295e-13)
(9.6431e-13 -2.83579e-12 -2.34109e-13)
(6.48879e-13 -2.24135e-12 -1.80586e-13)
(4.28718e-13 -1.79527e-12 -1.41719e-13)
(2.73434e-13 -1.45361e-12 -1.12743e-13)
(1.6355e-13 -1.18913e-12 -8.93614e-14)
(8.52644e-14 -9.74083e-13 -7.26596e-14)
(3.05966e-14 -4.59401e-13 -6.07841e-14)
(3.5195e-10 -3.64487e-12 -9.73123e-13)
(5.15065e-12 -6.5947e-12 -7.05267e-13)
(1.85382e-12 -5.37237e-12 -5.02376e-13)
(1.19366e-12 -4.00843e-12 -3.64538e-13)
(7.69119e-13 -3.03563e-12 -2.7124e-13)
(4.88226e-13 -2.3399e-12 -2.0522e-13)
(3.00267e-13 -1.82977e-12 -1.57604e-13)
(1.73361e-13 -1.45082e-12 -1.22786e-13)
(8.68684e-14 -1.15563e-12 -9.75769e-14)
(2.91336e-14 -5.36505e-13 -7.90399e-14)
(3.84112e-07 -9.90003e-10 -3.5233e-10)
(1.3803e-09 -9.1446e-10 -2.05994e-12)
(5.13899e-12 -1.39108e-11 -8.72438e-13)
(1.17378e-12 -5.66734e-12 -5.94599e-13)
(7.77116e-13 -4.08302e-12 -4.1754e-13)
(5.21492e-13 -3.01973e-12 -3.01941e-13)
(3.50716e-13 -2.27655e-12 -2.23647e-13)
(2.34633e-13 -1.74756e-12 -1.6786e-13)
(1.5475e-13 -1.35201e-12 -1.28707e-13)
(1.00057e-13 -6.18073e-13 -1.01241e-13)
(2.28286e-13 3.69322e-13 -1.60987e-14)
(2.15518e-13 3.4446e-13 -1.40793e-14)
(1.88743e-13 -5.18044e-14 -1.07921e-14)
(1.63465e-13 -5.43869e-14 -8.45054e-15)
(1.39186e-13 -5.32143e-14 -6.23958e-15)
(1.15977e-13 -5.23169e-14 -4.22735e-15)
(9.38644e-14 -5.13369e-14 -2.5662e-15)
(7.27338e-14 -5.024e-14 -2.77704e-15)
(5.25653e-14 -4.85528e-14 -7.453e-15)
(3.33916e-14 -2.53459e-14 -2.1382e-14)
(5.01772e-13 3.35224e-13 -2.41232e-14)
(4.63357e-13 2.38042e-13 -2.04507e-14)
(3.96931e-13 -1.90016e-13 -1.63169e-14)
(3.35002e-13 -1.85748e-13 -1.27857e-14)
(2.77471e-13 -1.78789e-13 -1.02234e-14)
(2.24017e-13 -1.71883e-13 -7.46343e-15)
(1.74394e-13 -1.65215e-13 -5.99016e-15)
(1.28297e-13 -1.58824e-13 -5.00442e-15)
(8.51719e-14 -1.51685e-13 -6.22997e-15)
(4.57291e-14 -7.84524e-14 -1.66952e-14)
(6.22231e-13 2.69304e-13 -3.86793e-14)
(5.53298e-13 6.92463e-14 -3.29348e-14)
(4.57545e-13 -3.86018e-13 -2.64615e-14)
(3.71507e-13 -3.65311e-13 -2.15507e-14)
(2.95344e-13 -3.41937e-13 -1.72146e-14)
(2.278e-13 -3.20397e-13 -1.43326e-14)
(1.67802e-13 -3.00265e-13 -1.17862e-14)
(1.14478e-13 -2.82273e-13 -1.0813e-14)
(6.68711e-14 -2.63312e-13 -1.15257e-14)
(2.52088e-14 -1.33942e-13 -1.65677e-14)
(8.19241e-13 1.53587e-13 -6.58526e-14)
(7.01815e-13 -1.94529e-13 -5.57906e-14)
(5.62657e-13 -6.64071e-13 -4.57029e-14)
(4.43607e-13 -6.08489e-13 -3.73846e-14)
(3.43044e-13 -5.53207e-13 -3.10354e-14)
(2.57628e-13 -5.04142e-13 -2.63909e-14)
(1.84928e-13 -4.60406e-13 -2.27499e-14)
(1.23211e-13 -4.21758e-13 -1.98597e-14)
(7.07012e-14 -3.84221e-13 -1.87899e-14)
(2.66849e-14 -1.92448e-13 -2.05874e-14)
(1.09796e-12 -4.3155e-14 -1.15412e-13)
(9.02404e-13 -6.04881e-13 -9.63798e-14)
(6.99285e-13 -1.05995e-12 -7.81136e-14)
(5.33723e-13 -9.38177e-13 -6.41284e-14)
(4.00403e-13 -8.26999e-13 -5.35598e-14)
(2.92407e-13 -7.32757e-13 -4.56909e-14)
(2.04458e-13 -6.50785e-13 -3.91824e-14)
(1.32972e-13 -5.80147e-13 -3.38723e-14)
(7.47273e-14 -5.1498e-13 -2.96845e-14)
(2.83963e-14 -2.54373e-13 -2.97765e-14)
(1.49905e-12 -3.71624e-13 -2.03689e-13)
(1.17892e-12 -1.24205e-12 -1.6562e-13)
(8.78931e-13 -1.62712e-12 -1.31993e-13)
(6.4753e-13 -1.38886e-12 -1.06863e-13)
(4.70014e-13 -1.18316e-12 -8.74175e-14)
(3.32801e-13 -1.01568e-12 -7.37526e-14)
(2.26516e-13 -8.76558e-13 -6.13635e-14)
(1.43663e-13 -7.60438e-13 -5.20315e-14)
(7.92544e-14 -6.57307e-13 -4.53765e-14)
(2.99532e-14 -3.19808e-13 -4.15741e-14)
(2.09276e-12 -9.11003e-13 -3.59266e-13)
(1.56578e-12 -2.23415e-12 -2.80985e-13)
(1.11824e-12 -2.44889e-12 -2.18831e-13)
(7.92543e-13 -2.00651e-12 -1.72936e-13)
(5.55212e-13 -1.64923e-12 -1.38199e-13)
(3.80525e-13 -1.36897e-12 -1.13089e-13)
(2.51484e-13 -1.14496e-12 -9.2248e-14)
(1.55386e-13 -9.65105e-13 -7.63683e-14)
(8.3995e-14 -8.12453e-13 -6.4766e-14)
(3.16952e-14 -3.89735e-13 -5.69265e-14)
(3.12587e-12 -1.81489e-12 -6.38165e-13)
(2.11928e-12 -3.80219e-12 -4.77233e-13)
(1.44198e-12 -3.64891e-12 -3.57927e-13)
(9.79155e-13 -2.86038e-12 -2.72854e-13)
(6.59894e-13 -2.2601e-12 -2.11496e-13)
(4.3698e-13 -1.80982e-12 -1.67959e-13)
(2.79746e-13 -1.46563e-12 -1.3519e-13)
(1.68363e-13 -1.19892e-12 -1.07848e-13)
(8.89539e-14 -9.81463e-13 -8.88201e-14)
(3.34649e-14 -4.63754e-13 -7.51197e-14)
(3.6007e-10 -3.59457e-12 -3.04961e-13)
(5.09549e-12 -6.65201e-12 -8.00244e-13)
(1.8839e-12 -5.43027e-12 -5.84219e-13)
(1.2154e-12 -4.05088e-12 -4.25929e-13)
(7.84541e-13 -3.0671e-12 -3.19433e-13)
(4.99335e-13 -2.36376e-12 -2.44143e-13)
(3.08338e-13 -1.84859e-12 -1.90639e-13)
(1.79276e-13 -1.46517e-12 -1.46939e-13)
(9.12731e-14 -1.16672e-12 -1.18665e-13)
(3.2365e-14 -5.43049e-13 -9.74359e-14)
(4.08604e-07 -8.31999e-10 1.07778e-09)
(1.38676e-09 -9.3372e-10 1.28519e-11)
(4.5914e-12 -1.37384e-11 -8.67315e-13)
(1.19735e-12 -5.73285e-12 -6.56058e-13)
(7.94216e-13 -4.13271e-12 -4.71817e-13)
(5.33408e-13 -3.0563e-12 -3.47195e-13)
(3.59242e-13 -2.30443e-12 -2.613e-13)
(2.40948e-13 -1.76859e-12 -1.96531e-13)
(1.5925e-13 -1.36794e-12 -1.52795e-13)
(1.03495e-13 -6.27015e-13 -1.22062e-13)
(2.28875e-13 3.69057e-13 -1.48927e-14)
(2.1554e-13 3.43302e-13 -6.53171e-15)
(1.89e-13 -5.30574e-14 -5.30033e-15)
(1.63742e-13 -5.51469e-14 -6.06445e-15)
(1.39597e-13 -5.40395e-14 -1.01993e-14)
(1.16618e-13 -5.30387e-14 -1.84876e-14)
(9.47669e-14 -5.15472e-14 -3.29815e-14)
(7.45505e-14 -4.90683e-14 -1.13436e-13)
(5.62058e-14 -4.48162e-14 -4.42848e-13)
(3.65405e-14 -3.74911e-14 -1.34044e-12)
(5.03248e-13 3.34426e-13 -2.0189e-14)
(4.63919e-13 2.36842e-13 -6.4021e-15)
(3.97667e-13 -1.91138e-13 -7.14237e-15)
(3.35737e-13 -1.86943e-13 -7.46441e-15)
(2.78347e-13 -1.7989e-13 -1.1221e-14)
(2.25112e-13 -1.72818e-13 -1.91996e-14)
(1.75633e-13 -1.66109e-13 -3.08592e-14)
(1.29917e-13 -1.60158e-13 -7.80478e-14)
(8.76048e-14 -1.53313e-13 -2.63781e-13)
(4.7131e-14 -9.96015e-14 -8.72995e-13)
(6.24785e-13 2.68107e-13 -3.31569e-14)
(5.54755e-13 6.7451e-14 -1.28657e-14)
(4.58888e-13 -3.87562e-13 -1.1412e-14)
(3.72856e-13 -3.66524e-13 -1.2331e-14)
(2.96861e-13 -3.43089e-13 -1.50922e-14)
(2.2954e-13 -3.21716e-13 -2.32305e-14)
(1.69671e-13 -3.01922e-13 -3.60743e-14)
(1.16403e-13 -2.84015e-13 -6.31942e-14)
(6.93242e-14 -2.67209e-13 -1.76352e-13)
(2.68049e-14 -1.56964e-13 -5.7167e-13)
(8.23744e-13 1.51959e-13 -5.74372e-14)
(7.0451e-13 -1.96637e-13 -2.64427e-14)
(5.65138e-13 -6.66208e-13 -2.32222e-14)
(4.46038e-13 -6.10205e-13 -2.33721e-14)
(3.45459e-13 -5.54625e-13 -2.62404e-14)