/*--------------------------------*- C++ -*----------------------------------*\
| =========                 |                                                 |
| \\      /  F ield         | OpenFOAM: The Open Source CFD Toolbox           |
|  \\    /   O peration     | Version:  4.1                                   |
|   \\  /    A nd           | Web:      www.OpenFOAM.org                      |
|    \\/     M anipulation  |                                                 |
\*---------------------------------------------------------------------------*/
FoamFile
{
    version     2.0;
    format      ascii;
    class       volScalarField;
    location    "0.4";
    object      Ma;
}
// * * * * * * * * * * * * * * * * * * * * * * * * * * * * * * * * * * * * * //

dimensions      [0 0 0 0 0 0 0];

internalField   nonuniform List<scalar> 
52500
(
3.14048
3.28349
3.28091
3.27672
3.26812
3.24928
3.20329
3.07291
2.63224
1.37415
0.128267
0.583625
0.479339
0.405533
0.363093
0.31163
0.270463
0.239951
0.219295
0.200106
0.179339
0.153625
0.127476
0.109609
0.0379124
3.14048
3.28349
3.28095
3.27679
3.26829
3.24977
3.20477
3.07774
2.64927
1.41042
0.121527
0.581255
0.483776
0.406402
0.364392
0.312464
0.271541
0.24208
0.222985
0.205926
0.188673
0.167327
0.145836
0.133617
0.0867494
3.14047
3.28349
3.28103
3.27692
3.26865
3.25076
3.20782
3.08804
2.68722
1.49638
0.115694
0.581804
0.495656
0.410786
0.36973
0.317576
0.27758
0.250355
0.234422
0.221378
0.20998
0.195824
0.181693
0.177575
0.147947
3.14046
3.28349
3.28112
3.27713
3.26916
3.25214
3.2121
3.10243
2.74072
1.62524
0.144634
0.578023
0.514321
0.417383
0.37795
0.325563
0.286973
0.262777
0.250972
0.24317
0.238969
0.233061
0.226487
0.230555
0.212279
3.14045
3.28349
3.28121
3.27739
3.26974
3.25373
3.2171
3.11925
2.80485
1.79619
0.244972
0.57181
0.54045
0.427147
0.38965
0.337148
0.300118
0.279086
0.271858
0.269708
0.272861
0.274966
0.275099
0.287497
0.277939
3.14043
3.28348
3.28133
3.27763
3.27036
3.25557
3.22257
3.13671
2.87102
1.998
0.421772
0.558108
0.573111
0.4409
0.404588
0.352306
0.316812
0.298909
0.2967
0.300298
0.310669
0.32103
0.327458
0.349108
0.348259
3.1404
3.28348
3.28142
3.27789
3.27096
3.25743
3.22808
3.15409
2.93406
2.19885
0.654537
0.531745
0.608639
0.459506
0.42221
0.37131
0.336859
0.321645
0.324759
0.334062
0.351291
0.370813
0.383685
0.41611
0.427264
3.14039
3.28347
3.28146
3.27813
3.27147
3.25922
3.23338
3.17058
2.99201
2.39676
0.934113
0.481801
0.642233
0.485125
0.44098
0.393771
0.359657
0.346883
0.355349
0.370519
0.393903
0.423737
0.44395
0.490112
0.518127
3.14038
3.28347
3.28149
3.2783
3.27184
3.26088
3.23826
3.18557
3.04291
2.57672
1.28328
0.4174
0.667877
0.520533
0.461226
0.419621
0.384614
0.37482
0.387932
0.40921
0.437674
0.480594
0.510848
0.568224
0.632854
3.14038
3.28347
3.28151
3.27843
3.2721
3.26228
3.2425
3.19841
3.08649
2.73933
1.66733
0.37511
0.679994
0.567617
0.483415
0.447236
0.411332
0.404938
0.421648
0.449901
0.48299
0.53955
0.587525
0.661801
0.803931
3.14047
3.28348
3.2809
3.27671
3.2681
3.24925
3.20322
3.07273
2.63162
1.37271
0.129005
0.583549
0.478915
0.405213
0.362858
0.311469
0.27035
0.239869
0.219207
0.19999
0.179186
0.153433
0.127244
0.109336
0.0371334
3.14047
3.28349
3.28094
3.27678
3.26828
3.24975
3.20472
3.07762
2.64884
1.40954
0.121225
0.580571
0.482985
0.405897
0.364118
0.312302
0.27144
0.242
0.222898
0.205817
0.188533
0.167155
0.145634
0.133385
0.0864188
3.14046
3.28348
3.28102
3.27691
3.26863
3.25072
3.20773
3.08778
2.68633
1.49433
0.115951
0.582583
0.495955
0.411177
0.369906
0.317665
0.277576
0.250296
0.23433
0.221265
0.209843
0.195666
0.181518
0.177387
0.147752
3.14046
3.28349
3.28112
3.27712
3.26915
3.25212
3.21205
3.10225
2.74008
1.62384
0.144301
0.578143
0.514223
0.417651
0.378191
0.325691
0.286983
0.262699
0.250857
0.243042
0.23883
0.232914
0.226337
0.230399
0.212139
3.14044
3.28348
3.28121
3.27738
3.26973
3.25371
3.21705
3.11907
2.80418
1.79422
0.243767
0.572488
0.540844
0.427629
0.389896
0.337229
0.300069
0.278959
0.271703
0.269552
0.272711
0.274825
0.274967
0.287365
0.277828
3.14043
3.28348
3.28133
3.27764
3.27037
3.25557
3.22255
3.13665
2.87074
1.99698
0.420949
0.558584
0.573142
0.440993
0.40457
0.352173
0.316615
0.298703
0.296495
0.300109
0.310506
0.320891
0.327335
0.34899
0.348168
3.1404
3.28347
3.28141
3.27789
3.27097
3.25743
3.22808
3.1541
2.93404
2.19865
0.654277
0.531855
0.608338
0.459238
0.421962
0.371046
0.336582
0.321355
0.324509
0.333847
0.351116
0.370673
0.383571
0.416006
0.427183
3.14039
3.28348
3.28146
3.27814
3.27149
3.25924
3.23341
3.17064
2.99211
2.39689
0.934238
0.481952
0.642093
0.484927
0.440719
0.393499
0.35936
0.34658
0.35509
0.3703
0.393725
0.423602
0.443843
0.49002
0.518056
3.14038
3.28347
3.2815
3.27832
3.27185
3.2609
3.23828
3.18562
3.043
2.5769
1.28353
0.417454
0.667848
0.520421
0.461024
0.419346
0.384309
0.374544
0.387689
0.408997
0.437501
0.480457
0.510747
0.568143
0.632792
3.14038
3.28348
3.28152
3.27844
3.27213
3.26231
3.24254
3.19848
3.08661
2.73956
1.66768
0.375116
0.679953
0.567562
0.483259
0.447036
0.411074
0.404702
0.421431
0.449729
0.482837
0.539428
0.587434
0.66174
0.803866
3.14047
3.28349
3.2809
3.27672
3.26811
3.24926
3.20325
3.07277
2.63174
1.37302
0.128669
0.583742
0.479319
0.405599
0.363126
0.311613
0.270405
0.23986
0.219165
0.199942
0.179146
0.153401
0.127221
0.109325
0.0371355
3.14047
3.28349
3.28094
3.27678
3.26829
3.24976
3.20474
3.07764
2.64891
1.40968
0.121587
0.581188
0.483542
0.40632
0.364322
0.312385
0.271448
0.241971
0.222851
0.205771
0.188497
0.167129
0.145617
0.133379
0.0864228
3.14046
3.28349
3.28103
3.27692
3.26865
3.25076
3.2078
3.08796
2.68689
1.49559
0.115696
0.581833
0.495505
0.410739
0.369662
0.317489
0.277473
0.250229
0.234279
0.221224
0.209816
0.19565
0.181512
0.177387
0.147759
3.14045
3.28348
3.28112
3.27713
3.26915
3.25213
3.21208
3.10236
2.74047
1.62465
0.144382
0.57797
0.514104
0.417297
0.377885
0.325473
0.286855
0.262633
0.250818
0.243015
0.238816
0.232911
0.22634
0.230406
0.212149
3.14045
3.28349
3.28121
3.2774
3.26975
3.25373
3.2171
3.11922
2.80466
1.79557
0.244509
0.571842
0.540397
0.427167
0.389666
0.337089
0.299998
0.278928
0.271691
0.269547
0.272715
0.274834
0.274978
0.287375
0.277839
3.14042
3.28348
3.28133
3.27764
3.27037
3.25557
3.22256
3.13668
2.87087
1.99745
0.421165
0.558331
0.573196
0.440984
0.404592
0.35222
0.316663
0.298742
0.296522
0.300129
0.310526
0.320911
0.327353
0.349004
0.348181
3.14041
3.28348
3.28142
3.2779
3.27098
3.25744
3.22809
3.15411
2.93405
2.19863
0.654258
0.531792
0.608559
0.459472
0.422169
0.371208
0.336703
0.321452
0.32457
0.333886
0.351147
0.370699
0.383593
0.416023
0.427197
3.14038
3.28347
3.28146
3.27814
3.27148
3.25923
3.23339
3.1706
2.99203
2.39667
0.933902
0.48191
0.642251
0.48514
0.440931
0.393641
0.359482
0.346686
0.35516
0.370347
0.393761
0.42363
0.443866
0.490038
0.51807
3.14038
3.28347
3.2815
3.27832
3.27186
3.26091
3.23829
3.18563
3.04298
2.57675
1.28321
0.417489
0.667915
0.520535
0.461161
0.419448
0.384406
0.374626
0.387748
0.40904
0.437535
0.480483
0.510768
0.568161
0.632805
3.14038
3.28347
3.28151
3.27844
3.27212
3.2623
3.24253
3.19846
3.08656
2.73943
1.66741
0.375189
0.679968
0.567559
0.483313
0.44708
0.411124
0.404754
0.421472
0.44976
0.48286
0.539447
0.587451
0.661756
0.803878
3.14048
3.28349
3.28091
3.27672
3.26812
3.24927
3.20325
3.07277
2.63171
1.37293
0.128734
0.583732
0.479295
0.405592
0.363132
0.311627
0.270418
0.239867
0.21916
0.199926
0.179125
0.153382
0.127209
0.109318
0.0371352
3.14047
3.28349
3.28095
3.27679
3.26829
3.24977
3.20475
3.07765
2.6489
1.40962
0.121591
0.581147
0.483496
0.406305
0.364331
0.312401
0.27146
0.241975
0.222845
0.205752
0.188474
0.167109
0.145604
0.133372
0.0864209
3.14047
3.28349
3.28103
3.27693
3.26865
3.25076
3.2078
3.08795
2.68683
1.49548
0.115676
0.581821
0.495492
0.410763
0.369703
0.317524
0.27749
0.250228
0.234268
0.221203
0.209791
0.195628
0.181497
0.177379
0.147755
3.14046
3.28349
3.28113
3.27713
3.26916
3.25214
3.21209
3.10235
2.7404
1.62447
0.144263
0.578082
0.514241
0.417481
0.378019
0.325549
0.286878
0.262623
0.250798
0.242989
0.238788
0.232887
0.226323
0.230396
0.212143
3.14045
3.28349
3.28121
3.2774
3.26975
3.25373
3.2171
3.11919
2.80454
1.79511
0.244262
0.572233
0.540709
0.427423
0.389746
0.337112
0.299986
0.278903
0.271661
0.269515
0.272684
0.274807
0.27496
0.287365
0.277833
3.14043
3.28348
3.28133
3.27765
3.27038
3.25558
3.22258
3.13672
2.87094
1.99755
0.421407
0.558341
0.573079
0.440895
0.404492
0.35212
0.316594
0.298684
0.296478
0.300091
0.310492
0.320884
0.327333
0.348993
0.348173
3.1404
3.28348
3.28142
3.27791
3.27098
3.25745
3.22811
3.15415
2.93417
2.19894
0.654552
0.531662
0.608391
0.459296
0.422026
0.371098
0.336616
0.32138
0.32452
0.333847
0.351114
0.370673
0.383573
0.41601
0.427189
3.14039
3.28348
3.28146
3.27815
3.2715
3.25925
3.23342
3.17065
2.99214
2.39694
0.934284
0.481796
0.642158
0.485018
0.440848
0.3936
0.359431
0.346631
0.355119
0.370311
0.393728
0.423605
0.443847
0.490025
0.518062
3.14038
3.28347
3.2815
3.27832
3.27187
3.26091
3.2383
3.18564
3.04302
2.57687
1.28342
0.417348
0.667904
0.520528
0.461157
0.419455
0.384392
0.374599
0.387719
0.40901
0.437505
0.48046
0.510751
0.568147
0.632796
3.14038
3.28348
3.28152
3.27845
3.27214
3.26232
3.24255
3.19849
3.08661
2.73952
1.66755
0.375081
0.679987
0.567642
0.48337
0.447134
0.411149
0.404744
0.421451
0.449735
0.482835
0.539427
0.587435
0.661741
0.803867
3.14048
3.28349
3.28091
3.27672
3.26812
3.24927
3.20326
3.07278
2.63172
1.37295
0.128728
0.583728
0.479293
0.405589
0.363133
0.311625
0.270415
0.239863
0.219159
0.199926
0.179127
0.153384
0.127207
0.109318
0.0371222
3.14047
3.28349
3.28095
3.27679
3.2683
3.24977
3.20475
3.07765
2.64891
1.40962
0.121601
0.581163
0.48351
0.406316
0.364341
0.312404
0.271459
0.24197
0.22284
0.205747
0.18847
0.167106
0.145601
0.133379
0.0864083
3.14047
3.28349
3.28103
3.27693
3.26865
3.25076
3.20781
3.08796
2.68685
1.4955
0.115684
0.581825
0.495497
0.410765
0.369707
0.317528
0.277494
0.25023
0.234269
0.221204
0.209793
0.195633
0.181504
0.177397
0.147747
3.14046
3.28349
3.28113
3.27713
3.26916
3.25214
3.21209
3.10236
2.74042
1.62451
0.144288
0.578086
0.51425
0.417482
0.378019
0.325553
0.286885
0.262632
0.250805
0.242996
0.238796
0.232896
0.226332
0.230416
0.212143
3.14045
3.28349
3.28121
3.2774
3.26975
3.25374
3.2171
3.1192
2.80457
1.79519
0.244325
0.572228
0.540711
0.427416
0.389742
0.337116
0.299996
0.278916
0.271671
0.269524
0.272692
0.274814
0.274963
0.287379
0.27784
3.14043
3.28349
3.28134
3.27765
3.27038
3.25559
3.22258
3.13673
2.87098
1.99764
0.42151
0.558329
0.573078
0.440885
0.404488
0.352125
0.316603
0.298696
0.29649
0.300102
0.310499
0.320884
0.327333
0.349001
0.348177
3.14041
3.28348
3.28142
3.27791
3.27098
3.25745
3.22811
3.15417
2.9342
2.19904
0.654672
0.531627
0.608389
0.459285
0.422017
0.371102
0.336627
0.321393
0.324534
0.33386
0.351122
0.370673
0.383568
0.416009
0.427196
3.14039
3.28348
3.28146
3.27815
3.2715
3.25925
3.23342
3.17066
2.99217
2.39704
0.934439
0.481755
0.642153
0.485009
0.44084
0.393609
0.359445
0.346647
0.355136
0.370327
0.39374
0.423611
0.443844
0.490019
0.518069
3.14038
3.28347
3.2815
3.27832
3.27187
3.26091
3.2383
3.18565
3.04304
2.57694
1.28357
0.417296
0.667891
0.520523
0.461151
0.419465
0.384408
0.37462
0.387742
0.40903
0.437521
0.480472
0.510752
0.568137
0.632799
3.14038
3.28348
3.28152
3.27845
3.27213
3.26232
3.24255
3.1985
3.08663
2.73958
1.66767
0.375053
0.679967
0.567647
0.483365
0.447143
0.411169
0.404773
0.421482
0.449759
0.482856
0.539443
0.587444
0.661731
0.803875
3.14047
3.28349
3.28091
3.27672
3.26812
3.24927
3.20325
3.07277
2.63169
1.37289
0.128765
0.58374
0.479298
0.405599
0.363136
0.311628
0.270417
0.239863
0.219155
0.199921
0.17912
0.153378
0.127206
0.109317
0.0371349
3.14047
3.28349
3.28095
3.27679
3.26829
3.24977
3.20475
3.07764
2.64888
1.40959
0.121615
0.581158
0.483498
0.406312
0.364335
0.312402
0.271459
0.241972
0.22284
0.205748
0.188469
0.167105
0.145601
0.13337
0.0864206
3.14047
3.28349
3.28103
3.27692
3.26865
3.25076
3.2078
3.08795
2.68682
1.49546
0.115694
0.581829
0.495495
0.41077
0.369706
0.317524
0.277489
0.250226
0.234265
0.221199
0.209787
0.195625
0.181494
0.177377
0.147754
3.14046
3.28349
3.28113
3.27713
3.26916
3.25214
3.21209
3.10235
2.74039
1.62446
0.144279
0.578094
0.514247
0.417488
0.378021
0.325549
0.286877
0.262623
0.250797
0.242988
0.238785
0.232884
0.226321
0.230394
0.212142
3.14045
3.28349
3.28121
3.2774
3.26975
3.25373
3.2171
3.11919
2.80454
1.79513
0.244295
0.572239
0.540713
0.427425
0.389745
0.33711
0.299986
0.278905
0.271662
0.269516
0.272683
0.274806
0.274958
0.287363
0.277832
3.14043
3.28348
3.28133
3.27765
3.27038
3.25558
3.22258
3.13672
2.87096
1.99759
0.421472
0.558342
0.57308
0.44089
0.404486
0.352116
0.316593
0.298686
0.296483
0.300096
0.310495
0.320884
0.327333
0.348992
0.348172
3.1404
3.28348
3.28142
3.27791
3.27098
3.25744
3.22811
3.15416
2.93418
2.199
0.654636
0.531645
0.608389
0.459286
0.422015
0.371092
0.336615
0.321384
0.324528
0.333855
0.351119
0.370676
0.383574
0.41601
0.427189
3.14039
3.28348
3.28146
3.27815
3.27149
3.25925
3.23342
3.17066
2.99216
2.39701
0.934407
0.481769
0.642149
0.485006
0.440836
0.393597
0.359433
0.346638
0.35513
0.370323
0.393738
0.423611
0.44385
0.490026
0.518062
3.14038
3.28347
3.2815
3.27832
3.27186
3.26091
3.2383
3.18564
3.04303
2.57693
1.28355
0.417309
0.667889
0.520519
0.461147
0.419455
0.384399
0.374612
0.387736
0.409026
0.437518
0.480469
0.510756
0.56815
0.632797
3.14038
3.28348
3.28152
3.27845
3.27213
3.26231
3.24255
3.19849
3.08662
2.73956
1.66766
0.375058
0.679968
0.567642
0.483363
0.447137
0.411162
0.404765
0.421475
0.449755
0.482854
0.53944
0.587444
0.661746
0.803869
3.14048
3.28349
3.28091
3.27672
3.26812
3.24927
3.20325
3.07277
2.63171
1.37293
0.128733
0.583732
0.479295
0.405592
0.363132
0.311627
0.270418
0.239866
0.21916
0.199926
0.179125
0.153382
0.127209
0.109318
0.0371352
3.14047
3.28349
3.28095
3.27679
3.26829
3.24977
3.20475
3.07765
2.6489
1.40962
0.121591
0.581147
0.483496
0.406305
0.364331
0.312401
0.27146
0.241974
0.222844
0.205752
0.188474
0.167109
0.145604
0.133372
0.086421
3.14047
3.28349
3.28103
3.27693
3.26865
3.25076
3.2078
3.08795
2.68683
1.49548
0.115676
0.581821
0.495492
0.410763
0.369703
0.317524
0.27749
0.250228
0.234268
0.221203
0.209791
0.195628
0.181497
0.177379
0.147755
3.14046
3.28349
3.28113
3.27713
3.26916
3.25214
3.21209
3.10235
2.7404
1.62447
0.144263
0.578082
0.514241
0.417481
0.378019
0.325549
0.286878
0.262623
0.250798
0.242989
0.238788
0.232887
0.226323
0.230396
0.212143
3.14045
3.28349
3.28121
3.2774
3.26975
3.25373
3.2171
3.11919
2.80454
1.79511
0.244262
0.572233
0.540709
0.427423
0.389746
0.337112
0.299986
0.278903
0.27166
0.269515
0.272684
0.274807
0.27496
0.287365
0.277833
3.14043
3.28348
3.28133
3.27765
3.27038
3.25558
3.22258
3.13672
2.87094
1.99755
0.421407
0.558341
0.573079
0.440895
0.404492
0.35212
0.316594
0.298684
0.296478
0.300091
0.310492
0.320883
0.327333
0.348993
0.348173
3.1404
3.28348
3.28142
3.27791
3.27098
3.25745
3.22811
3.15415
2.93417
2.19893
0.654552
0.531662
0.608391
0.459296
0.422026
0.371098
0.336616
0.32138
0.32452
0.333847
0.351114
0.370673
0.383573
0.41601
0.427189
3.14039
3.28348
3.28146
3.27815
3.2715
3.25925
3.23342
3.17065
2.99214
2.39694
0.934284
0.481796
0.642158
0.485018
0.440849
0.3936
0.359431
0.346631
0.355119
0.370311
0.393728
0.423605
0.443847
0.490025
0.518062
3.14038
3.28347
3.2815
3.27832
3.27187
3.26091
3.2383
3.18564
3.04302
2.57687
1.28342
0.417348
0.667904
0.520528
0.461157
0.419455
0.384392
0.374599
0.387719
0.40901
0.437505
0.48046
0.510751
0.568147
0.632796
3.14038
3.28348
3.28152
3.27845
3.27214
3.26232
3.24255
3.19849
3.08661
2.73952
1.66755
0.375081
0.679987
0.567642
0.48337
0.447134
0.411149
0.404744
0.421451
0.449735
0.482835
0.539427
0.587435
0.661741
0.803867
3.14047
3.28349
3.2809
3.27672
3.26811
3.24926
3.20325
3.07277
2.63174
1.37302
0.128669
0.583742
0.479319
0.405599
0.363126
0.311613
0.270405
0.23986
0.219165
0.199942
0.179146
0.153401
0.127221
0.109325
0.0371355
3.14047
3.28349
3.28094
3.27678
3.26829
3.24976
3.20474
3.07764
2.64891
1.40968
0.121587
0.581188
0.483542
0.40632
0.364322
0.312385
0.271448
0.241971
0.222851
0.205771
0.188497
0.167129
0.145617
0.133379
0.0864228
3.14046
3.28349
3.28103
3.27692
3.26865
3.25076
3.2078
3.08796
2.68689
1.49559
0.115696
0.581833
0.495505
0.410739
0.369662
0.317489
0.277473
0.250229
0.234279
0.221224
0.209816
0.19565
0.181512
0.177387
0.147759
3.14045
3.28348
3.28112
3.27713
3.26915
3.25213
3.21208
3.10236
2.74047
1.62465
0.144382
0.57797
0.514104
0.417297
0.377885
0.325473
0.286855
0.262633
0.250818
0.243015
0.238816
0.232911
0.22634
0.230406
0.212149
3.14045
3.28349
3.28121
3.2774
3.26975
3.25373
3.2171
3.11922
2.80466
1.79557
0.244509
0.571842
0.540397
0.427167
0.389666
0.337089
0.299998
0.278928
0.271691
0.269547
0.272715
0.274834
0.274978
0.287375
0.277839
3.14042
3.28348
3.28133
3.27764
3.27037
3.25557
3.22256
3.13668
2.87087
1.99745
0.421165
0.558331
0.573196
0.440984
0.404592
0.35222
0.316663
0.298742
0.296522
0.300129
0.310526
0.32091
0.327353
0.349004
0.348181
3.14041
3.28348
3.28142
3.2779
3.27098
3.25744
3.22809
3.15411
2.93405
2.19863
0.654258
0.531792
0.608559
0.459472
0.422169
0.371208
0.336703
0.321452
0.32457
0.333886
0.351147
0.370699
0.383593
0.416023
0.427197
3.14038
3.28347
3.28146
3.27814
3.27148
3.25923
3.23339
3.1706
2.99203
2.39667
0.933902
0.48191
0.642251
0.48514
0.440931
0.393641
0.359482
0.346686
0.35516
0.370347
0.393761
0.42363
0.443866
0.490038
0.51807
3.14038
3.28347
3.2815
3.27832
3.27186
3.26091
3.23829
3.18563
3.04298
2.57675
1.28321
0.417489
0.667915
0.520535
0.461161
0.419448
0.384406
0.374626
0.387748
0.40904
0.437535
0.480483
0.510768
0.568161
0.632805
3.14038
3.28347
3.28151
3.27844
3.27212
3.2623
3.24253
3.19846
3.08656
2.73943
1.66741
0.375189
0.679968
0.567559
0.483313
0.44708
0.411124
0.404754
0.421472
0.44976
0.48286
0.539447
0.587451
0.661756
0.803878
3.14047
3.28348
3.2809
3.27671
3.2681
3.24925
3.20322
3.07273
2.63162
1.37272
0.129004
0.583548
0.478915
0.405213
0.362858
0.311469
0.27035
0.239869
0.219207
0.19999
0.179187
0.153434
0.127244
0.109336
0.0371334
3.14047
3.28349
3.28094
3.27678
3.26828
3.24975
3.20472
3.07762
2.64884
1.40954
0.121225
0.580571
0.482985
0.405897
0.364118
0.312302
0.27144
0.242
0.222899
0.205818
0.188533
0.167155
0.145634
0.133385
0.0864189
3.14046
3.28348
3.28102
3.27691
3.26863
3.25072
3.20773
3.08778
2.68633
1.49433
0.115951
0.582583
0.495955
0.411177
0.369906
0.317665
0.277576
0.250296
0.23433
0.221266
0.209843
0.195666
0.181518
0.177387
0.147752
3.14046
3.28349
3.28112
3.27712
3.26915
3.25212
3.21205
3.10225
2.74009
1.62384
0.144302
0.578142
0.514223
0.417651
0.37819
0.325691
0.286983
0.262699
0.250857
0.243042
0.23883
0.232914
0.226337
0.230399
0.212139
3.14044
3.28348
3.28121
3.27738
3.26973
3.25371
3.21705
3.11907
2.80418
1.79422
0.243769
0.572487
0.540844
0.427628
0.389896
0.337229
0.300069
0.278959
0.271703
0.269552
0.272711
0.274825
0.274967
0.287365
0.277828
3.14043
3.28348
3.28133
3.27764
3.27037
3.25557
3.22255
3.13665
2.87074
1.99698
0.42095
0.558584
0.573142
0.440993
0.404569
0.352173
0.316615
0.298703
0.296496
0.300109
0.310506
0.320891
0.327336
0.34899
0.348168
3.1404
3.28347
3.28141
3.27789
3.27097
3.25743
3.22808
3.1541
2.93404
2.19865
0.654277
0.531855
0.608338
0.459238
0.421962
0.371046
0.336582
0.321355
0.324509
0.333847
0.351116
0.370673
0.383571
0.416006
0.427183
3.14039
3.28348
3.28146
3.27814
3.27149
3.25924
3.23341
3.17064
2.99211
2.39689
0.934237
0.481952
0.642094
0.484927
0.440719
0.393499
0.35936
0.34658
0.35509
0.3703
0.393725
0.423602
0.443843
0.49002
0.518056
3.14038
3.28347
3.2815
3.27832
3.27185
3.2609
3.23828
3.18562
3.043
2.5769
1.28353
0.417454
0.667848
0.520421
0.461024
0.419346
0.384309
0.374544
0.387689
0.408997
0.437501
0.480457
0.510747
0.568144
0.632792
3.14038
3.28348
3.28152
3.27844
3.27213
3.26231
3.24254
3.19848
3.08661
2.73956
1.66768
0.375115
0.679953
0.567562
0.483259
0.447037
0.411074
0.404702
0.421431
0.449729
0.482837
0.539428
0.587434
0.66174
0.803866
3.14048
3.28349
3.28091
3.27672
3.26812
3.24927
3.20328
3.0729
2.63223
1.37409
0.128454
0.583819
0.479477
0.405604
0.363128
0.311674
0.270516
0.240023
0.219374
0.200183
0.179409
0.153681
0.127507
0.10962
0.0379111
3.14047
3.28349
3.28095
3.27679
3.26829
3.24977
3.20478
3.07778
2.64939
1.41065
0.121418
0.580887
0.483431
0.406055
0.364214
0.312395
0.271535
0.242113
0.223037
0.205979
0.188714
0.167351
0.145838
0.133616
0.086752
3.14047
3.28349
3.28103
3.27692
3.26865
3.25076
3.20783
3.08809
2.68739
1.49688
0.115142
0.581208
0.495261
0.41048
0.369625
0.31757
0.277607
0.250387
0.234464
0.221422
0.210012
0.19584
0.18169
0.177567
0.147954
3.14046
3.28349
3.28113
3.27712
3.26915
3.25213
3.21207
3.10234
2.74047
1.62472
0.143991
0.578563
0.514799
0.417871
0.37827
0.325769
0.287084
0.262827
0.251009
0.243205
0.238997
0.233078
0.226491
0.23055
0.21228
3.14045
3.28349
3.28121
3.27739
3.26974
3.25373
3.21709
3.11918
2.80457
1.79524
0.24448
0.572508
0.541021
0.427673
0.38987
0.337276
0.300184
0.279126
0.27188
0.269726
0.272877
0.274977
0.275103
0.287495
0.277943
3.14043
3.28348
3.28133
3.27763
3.27036
3.25557
3.22257
3.13672
2.87104
1.99799
0.422006
0.558132
0.572877
0.44078
0.404468
0.352212
0.316759
0.298886
0.296692
0.300294
0.31067
0.321034
0.327461
0.349107
0.348264
3.1404
3.28348
3.28142
3.27789
3.27097
3.25744
3.22811
3.15415
2.93422
2.19926
0.654918
0.531392
0.608247
0.459204
0.422044
0.371236
0.336807
0.321584
0.32473
0.334042
0.351279
0.370809
0.383686
0.416111
0.42727
3.14038
3.28347
3.28146
3.27813
3.27147
3.25923
3.23338
3.17059
2.99205
2.39687
0.93422
0.481747
0.642244
0.485066
0.440933
0.393757
0.35964
0.346851
0.355327
0.370495
0.393882
0.423727
0.443949
0.490114
0.518132
3.14038
3.28347
3.2815
3.27832
3.27185
3.2609
3.23828
3.1856
3.04293
2.57667
1.28305
0.417315
0.667979
0.520584
0.461259
0.41962
0.384606
0.374807
0.387915
0.409181
0.437646
0.480579
0.510844
0.568226
0.632859
3.14038
3.28347
3.28151
3.27843
3.2721
3.26228
3.24251
3.19841
3.08647
2.73925
1.66707
0.375092
0.680107
0.56767
0.483441
0.447223
0.411324
0.404913
0.421621
0.449868
0.482956
0.53953
0.587516
0.6618
0.803933
3.14039
3.28348
3.2815
3.27849
3.27223
3.2634
3.24597
3.20868
3.1207
2.87018
2.05847
0.54583
0.667433
0.625413
0.508436
0.475108
0.440819
0.437072
0.455991
0.492307
0.529768
0.594927
0.665872
0.760986
0.993127
3.14038
3.28347
3.28149
3.27854
3.2723
3.26414
3.24862
3.21674
3.14667
2.9638
2.37776
0.942195
0.614699
0.682674
0.540329
0.501249
0.474314
0.469954
0.492578
0.534629
0.577836
0.641575
0.734296
0.839891
1.07462
3.14039
3.28348
3.28151
3.27859
3.2724
3.2643
3.25074
3.22269
3.16529
3.03001
2.6201
1.45486
0.529782
0.720694
0.58293
0.525219
0.509573
0.503059
0.530079
0.57483
0.625565
0.685197
0.78447
0.886319
1.0863
3.14038
3.28348
3.28152
3.2786
3.27245
3.26422
3.2518
3.2259
3.17869
3.07757
2.79836
1.94652
0.554715
0.722176
0.638239
0.549172
0.542208
0.538086
0.564456
0.610007
0.668126
0.725452
0.826968
0.919888
1.06949
3.14038
3.28348
3.28153
3.2786
3.27248
3.26406
3.25221
3.2278
3.18863
3.10903
2.91233
2.32947
0.954271
0.670718
0.692604
0.579592
0.569229
0.578791
0.596089
0.640013
0.703167
0.75761
0.859382
0.941462
1.0423
3.14038
3.28347
3.28153
3.2786
3.27249
3.26399
3.2524
3.22872
3.195
3.13026
2.98417
2.59034
1.55837
0.59649
0.726963
0.624581
0.593142
0.619409
0.626343
0.667404
0.727964
0.780411
0.873698
0.948706
1.0233
3.14038
3.28347
3.28153
3.2786
3.27251
3.26402
3.25243
3.22869
3.19762
3.14511
3.02902
2.75226
2.04587
0.724342
0.709756
0.673343
0.618872
0.65502
0.658728
0.689419
0.746418
0.79576
0.877847
0.946914
1.01196
3.14038
3.28347
3.28153
3.2786
3.2725
3.26405
3.25243
3.22891
3.19758
3.15393
3.05416
2.84491
2.37584
1.28949
0.653316
0.714163
0.653523
0.682893
0.690121
0.707558
0.763988
0.80838
0.878867
0.94738
1.00615
3.14038
3.28347
3.28153
3.2786
3.27251
3.26405
3.25244
3.22914
3.19682
3.15745
3.06786
2.89936
2.56967
1.83419
0.721533
0.717483
0.694032
0.7017
0.718265
0.727767
0.778039
0.821226
0.876677
0.947541
1.00407
3.14038
3.28347
3.28153
3.2786
3.2725
3.26405
3.25244
3.2292
3.19653
3.15821
3.07556
2.92314
2.67987
2.18898
1.23182
0.691875
0.729665
0.722508
0.744988
0.758834
0.790131
0.833667
0.880299
0.940816
1.00167
3.14038
3.28348
3.28152
3.2786
3.27251
3.26404
3.25243
3.22923
3.19646
3.15837
3.07759
2.93085
2.74326
2.37045
1.73811
0.861655
0.740157
0.741745
0.771625
0.792557
0.805637
0.844048
0.889203
0.936325
0.993755
3.14038
3.28347
3.28153
3.2786
3.2725
3.26405
3.25243
3.22921
3.19657
3.15848
3.07935
2.92942
2.76607
2.44905
2.02782
1.37909
0.79114
0.757725
0.795741
0.82314
0.842515
0.856763
0.897347
0.940542
0.988366
3.14038
3.28347
3.28153
3.2786
3.27251
3.26405
3.25244
3.22923
3.19658
3.15853
3.07983
2.92906
2.76666
2.47302
2.13681
1.74225
1.13732
0.785337
0.81262
0.855372
0.884296
0.886185
0.908316
0.948934
0.989523
3.14038
3.28348
3.28152
3.2786
3.27251
3.26403
3.25244
3.22926
3.19658
3.15854
3.07987
2.929
2.76618
2.47618
2.15157
1.90637
1.56104
1.03225
0.828013
0.876383
0.923041
0.938611
0.932125
0.960717
0.999351
3.14038
3.28347
3.28153
3.2786
3.27251
3.26405
3.25244
3.22923
3.19658
3.15852
3.07981
2.92915
2.76664
2.47906
2.1477
1.94153
1.74259
1.4371
1.0063
0.886487
0.94687
0.981421
0.980079
0.985099
1.01551
3.14038
3.28347
3.28153
3.2786
3.2725
3.26405
3.25244
3.22923
3.19658
3.15853
3.07983
2.92919
2.76684
2.4799
2.14665
1.944
1.78547
1.62936
1.37448
1.03527
0.950102
1.00605
1.02668
1.02233
1.04091
3.14038
3.28347
3.28153
3.2786
3.2725
3.26405
3.25244
3.22923
3.19659
3.15854
3.07986
2.92922
2.76691
2.47999
2.14679
1.94369
1.79078
1.67309
1.56235
1.37187
1.10274
1.01274
1.05448
1.06225
1.06661
3.14038
3.28347
3.28153
3.2786
3.2725
3.26405
3.25243
3.22922
3.19658
3.15852
3.07982
2.92914
2.7668
2.47988
2.14662
1.94354
1.79126
1.67753
1.60964
1.5385
1.40805
1.19452
1.07442
1.08808
1.09339
3.14038
3.28348
3.28153
3.2786
3.27251
3.26404
3.25244
3.22926
3.1966
3.15855
3.07993
2.9293
2.76705
2.48039
2.14727
1.94436
1.79249
1.67892
1.61615
1.58038
1.54362
1.46093
1.29144
1.13843
1.10665
3.14038
3.28347
3.28152
3.2786
3.2725
3.26405
3.25243
3.22921
3.19657
3.15851
3.07981
2.92913
2.76678
2.47989
2.14664
1.94353
1.79141
1.67766
1.61539
1.58392
1.57243
1.55647
1.51023
1.38407
1.20556
3.14038
3.28347
3.28153
3.2786
3.27251
3.26406
3.25244
3.22923
3.1966
3.15855
3.07986
2.92923
2.76692
2.47999
2.14688
1.94373
1.7914
1.67756
1.61533
1.58415
1.57462
1.5764
1.57007
1.54223
1.44569
3.14038
3.28347
3.28152
3.27859
3.27249
3.26404
3.25242
3.2292
3.19656
3.1585
3.07979
2.92911
2.7668
2.48
2.14684
1.94377
1.79166
1.67787
1.61559
1.58445
1.57506
1.57883
1.57914
1.57312
1.53238
3.14038
3.28347
3.28153
3.2786
3.27251
3.26406
3.25244
3.22923
3.1966
3.15855
3.07986
2.92924
2.76694
2.48002
2.14691
1.94376
1.79142
1.67756
1.61533
1.58419
1.57485
1.57876
1.58037
1.57776
1.54619
3.14038
3.28347
3.28152
3.27859
3.27249
3.26404
3.25242
3.2292
3.19656
3.1585
3.07979
2.9291
2.76677
2.47992
2.14671
1.9436
1.79147
1.67771
1.61547
1.58435
1.57498
1.57892
1.58076
1.57882
1.54836
3.14038
3.28348
3.28153
3.2786
3.27251
3.26404
3.25244
3.22926
3.1966
3.15856
3.07994
2.92932
2.76708
2.48045
2.14734
1.94442
1.79253
1.67895
1.61686
1.58581
1.57649
1.58053
1.58224
1.58026
1.5497
3.14038
3.28347
3.28152
3.27859
3.27249
3.26405
3.25243
3.2292
3.19656
3.1585
3.0798
2.92911
2.76678
2.47994
2.14669
1.94356
1.79142
1.67767
1.61545
1.58433
1.57497
1.57891
1.58079
1.57895
1.5486
3.14038
3.28347
3.28153
3.2786
3.27251
3.26406
3.25244
3.22923
3.19661
3.15856
3.07988
2.92925
2.76696
2.48007
2.14692
1.94375
1.7914
1.67756
1.61534
1.58421
1.57488
1.57881
1.58072
1.57888
1.5485
3.14038
3.28347
3.28152
3.2786
3.2725
3.26405
3.25243
3.22921
3.19657
3.15851
3.07982
2.92915
2.76683
2.48
2.14679
1.94371
1.79162
1.67785
1.61558
1.58445
1.57508
1.57904
1.58091
1.57906
1.54871
3.14038
3.28347
3.28153
3.2786
3.27251
3.26406
3.25244
3.22924
3.1966
3.15856
3.07987
2.92926
2.76695
2.48002
2.14692
1.94377
1.79143
1.67758
1.61535
1.5842
1.57486
1.57878
1.58069
1.57886
1.54847
3.14038
3.28347
3.28153
3.2786
3.2725
3.26405
3.25243
3.22922
3.19658
3.15853
3.07983
2.92917
2.76683
2.4799
2.1467
1.94359
1.79145
1.67769
1.61545
1.58432
1.57495
1.57889
1.58079
1.57895
1.5486
3.14038
3.28348
3.28153
3.27861
3.27251
3.26404
3.25245
3.22927
3.19661
3.15857
3.07996
2.92935
2.76712
2.48047
2.14735
1.94442
1.79252
1.67893
1.61684
1.58578
1.57647
1.5805
1.58222
1.58027
1.54972
3.14038
3.28347
3.28153
3.2786
3.27251
3.26405
3.25244
3.22923
3.19659
3.15854
3.07986
2.92922
2.7669
2.47995
2.14673
1.94352
1.79116
1.67735
1.61518
1.58406
1.57475
1.57866
1.58058
1.57876
1.54841
3.14038
3.28348
3.28153
3.27861
3.27251
3.26406
3.25245
3.22925
3.19661
3.15856
3.07989
2.9293
2.76698
2.47998
2.1468
1.94359
1.79118
1.67733
1.61514
1.58401
1.5747
1.57861
1.58054
1.57872
1.54835
3.14038
3.28348
3.28153
3.27861
3.27251
3.26404
3.25244
3.22927
3.1966
3.15856
3.07993
2.92934
2.7671
2.48044
2.14742
1.94449
1.79257
1.67894
1.6168
1.58573
1.57641
1.58044
1.58217
1.58022
1.54967
3.14038
3.28348
3.28153
3.27861
3.27252
3.26406
3.25245
3.22926
3.19661
3.15857
3.07989
2.92932
2.76699
2.47993
2.14682
1.94363
1.79124
1.67737
1.61515
1.584
1.57468
1.57858
1.58053
1.57871
1.54832
3.14038
3.28348
3.28153
3.27861
3.27251
3.26406
3.25245
3.22925
3.19661
3.15856
3.07989
2.92929
2.76696
2.47996
2.14674
1.94351
1.79113
1.67732
1.61514
1.58403
1.57472
1.57862
1.58055
1.57873
1.54838
3.14039
3.28348
3.28153
3.27861
3.27252
3.26405
3.25246
3.22929
3.19662
3.15859
3.07998
2.92943
2.7672
2.48041
2.14733
1.94431
1.79219
1.67855
1.61649
1.58544
1.57616
1.58014
1.58192
1.57998
1.54942
3.14038
3.28348
3.28153
3.27861
3.27252
3.26406
3.25245
3.22926
3.19662
3.15857
3.0799
2.92929
2.76693
2.47991
2.14672
1.9436
1.79142
1.67764
1.61541
1.58428
1.57493
1.57886
1.58077
1.57894
1.54857
3.14039
3.28348
3.28153
3.27861
3.27252
3.26405
3.25246
3.22929
3.19662
3.15859
3.07999
2.92944
2.76721
2.48047
2.14737
1.94433
1.79222
1.67855
1.61645
1.58539
1.57608
1.58008
1.58187
1.57994
1.54942
3.14038
3.28348
3.28153
3.27861
3.27252
3.26406
3.25246
3.22926