/*--------------------------------*- C++ -*----------------------------------*\
| =========                 |                                                 |
| \\      /  F ield         | OpenFOAM: The Open Source CFD Toolbox           |
|  \\    /   O peration     | Version:  4.1                                   |
|   \\  /    A nd           | Web:      www.OpenFOAM.org                      |
|    \\/     M anipulation  |                                                 |
\*---------------------------------------------------------------------------*/
FoamFile
{
    version     2.0;
    format      ascii;
    class       volScalarField;
    location    "0.4";
    object      p;
}
// * * * * * * * * * * * * * * * * * * * * * * * * * * * * * * * * * * * * * //

dimensions      [1 -1 -2 0 0 0 0];

internalField   nonuniform List<scalar> 
52500
(
0.0903683
0.0626155
0.0625508
0.0626543
0.0629875
0.0639216
0.0665411
0.0745447
0.103812
0.256493
1.25184
2.31594
1.76912
1.64418
1.60015
1.5359
1.47881
1.40548
1.31562
1.22714
1.14517
1.07596
1.02243
0.986041
0.979058
0.0903683
0.0626166
0.062547
0.0626488
0.0629754
0.0638885
0.0664443
0.0742276
0.102571
0.249975
1.20873
2.32958
1.77272
1.6467
1.60287
1.53909
1.48273
1.40948
1.31932
1.2302
1.14719
1.077
1.02274
0.985555
0.978397
0.0903682
0.0626185
0.0625397
0.0626378
0.0629516
0.0638217
0.0662452
0.0735513
0.0998556
0.235313
1.11256
2.34891
1.77879
1.6471
1.60239
1.53985
1.48485
1.41222
1.32151
1.2315
1.147
1.07561
1.02022
0.980965
0.973528
0.090368
0.0626213
0.0625294
0.0626225
0.062918
0.0637267
0.0659652
0.0726108
0.0961177
0.214335
0.973506
2.36854
1.7885
1.64849
1.60155
1.54111
1.48732
1.41548
1.32432
1.23299
1.1463
1.07239
1.01448
0.971288
0.963173
0.0903678
0.0626246
0.062518
0.0626051
0.0628786
0.0636141
0.065634
0.071512
0.0917186
0.189
0.802559
2.36563
1.80732
1.65236
1.60016
1.54275
1.48997
1.41919
1.32809
1.23515
1.1447
1.06695
1.00603
0.957207
0.947665
0.0903681
0.0626279
0.0625058
0.0625861
0.0628345
0.0634916
0.0652766
0.0703619
0.0872529
0.162857
0.621884
2.31128
1.84907
1.65892
1.59853
1.54514
1.49244
1.42277
1.33232
1.23766
1.14243
1.0593
0.994932
0.938499
0.927316
0.0903684
0.0626312
0.0624946
0.0625683
0.0627897
0.0633673
0.0649105
0.0692132
0.0830485
0.140961
0.475062
2.12936
1.93305
1.66711
1.59631
1.54822
1.49345
1.42536
1.3368
1.24056
1.13977
1.04949
0.980782
0.914587
0.900143
0.0903685
0.0626341
0.0624857
0.0625533
0.0627483
0.0632479
0.064551
0.068117
0.0792022
0.122373
0.361299
1.82808
2.05094
1.67809
1.59248
1.55156
1.49291
1.42706
1.34148
1.24407
1.13741
1.03703
0.963405
0.884932
0.865123
0.0903687
0.0626353
0.0624805
0.0625427
0.0627142
0.0631408
0.0642209
0.0671156
0.0758055
0.107643
0.275906
1.39777
2.19473
1.69687
1.5908
1.55157
1.49134
1.42787
1.34617
1.2475
1.13597
1.02151
0.941989
0.84988
0.815758
0.0903687
0.0626356
0.0624781
0.0625359
0.0626877
0.0630516
0.0639421
0.0662545
0.0728671
0.0957262
0.209181
0.946366
2.28338
1.73126
1.59153
1.54712
1.48993
1.42791
1.3501
1.2497
1.13614
1.00245
0.913982
0.810334
0.7458
0.0903687
0.0626158
0.0625513
0.0626548
0.0629881
0.0639229
0.0665444
0.0745553
0.103855
0.256746
1.25371
2.31569
1.76895
1.64407
1.60006
1.53581
1.4787
1.40531
1.31544
1.22699
1.14504
1.07583
1.0223
0.985911
0.978933
0.0903686
0.0626168
0.0625474
0.0626491
0.0629759
0.0638896
0.066447
0.0742361
0.102604
0.250147
1.20994
2.32986
1.77246
1.64662
1.60279
1.539
1.48262
1.40934
1.31916
1.23005
1.14705
1.07687
1.02261
0.985427
0.978272
0.0903686
0.0626187
0.0625402
0.0626384
0.0629525
0.0638236
0.0662503
0.0735671
0.0999157
0.235637
1.11475
2.34776
1.77861
1.64702
1.60234
1.53975
1.48473
1.4121
1.32138
1.23136
1.14688
1.07548
1.0201
0.980843
0.973407
0.0903682
0.0626214
0.0625295
0.0626227
0.0629185
0.0637281
0.065969
0.072623
0.0961623
0.214561
0.97482
2.36762
1.78812
1.6484
1.60147
1.541
1.48719
1.41539
1.32423
1.23288
1.14619
1.07228
1.01437
0.971178
0.963061
0.0903682
0.0626247
0.0625182
0.0626054
0.0628791
0.0636155
0.0656375
0.0715226
0.0917618
0.189272
0.804449
2.36452
1.80685
1.65239
1.6002
1.54266
1.48987
1.41914
1.32804
1.23506
1.14461
1.06686
1.00594
0.957111
0.947568
0.0903681
0.0626279
0.0625056
0.062586
0.0628344
0.0634918
0.0652778
0.0703672
0.0872741
0.162979
0.622869
2.31087
1.84843
1.65888
1.59854
1.54507
1.49239
1.42273
1.33229
1.2376
1.14237
1.05924
0.994857
0.938422
0.927232
0.0903685
0.0626314
0.0624943
0.062568
0.0627894
0.0633669
0.06491
0.0692134
0.0830517
0.140985
0.475244
2.13003
1.93283
1.66701
1.59624
1.54813
1.49341
1.42536
1.33681
1.24054
1.13975
1.04945
0.980729
0.91453
0.900078
0.0903685
0.0626341
0.0624852
0.0625528
0.0627476
0.0632471
0.0645495
0.0681148
0.0791982
0.122363
0.361272
1.82813
2.05116
1.67798
1.59241
1.55147
1.49287
1.42706
1.34149
1.24408
1.13742
1.03702
0.963376
0.884895
0.865076
0.0903686
0.0626353
0.06248
0.0625421
0.0627136
0.0631399
0.0642194
0.0671133
0.0758008
0.10763
0.275861
1.39757
2.19511
1.6969
1.59075
1.5515
1.49129
1.42784
1.3462
1.24754
1.13602
1.02153
0.941987
0.849867
0.815727
0.0903685
0.0626355
0.0624772
0.062535
0.0626867
0.0630503
0.0639402
0.0662517
0.0728618
0.0957118
0.209134
0.946234
2.28355
1.73126
1.59143
1.54698
1.48982
1.42786
1.35012
1.24975
1.13621
1.00249
0.913998
0.810335
0.745786
0.0903685
0.0626157
0.0625509
0.0626544
0.0629877
0.0639224
0.0665437
0.0745535
0.103848
0.25669
1.25317
2.31514
1.76894
1.64405
1.60001
1.53578
1.47867
1.40534
1.31551
1.22705
1.14508
1.07587
1.02233
0.985932
0.978952
0.0903685
0.0626167
0.0625471
0.0626488
0.0629756
0.0638891
0.0664463
0.0742342
0.102597
0.250104
1.20961
2.32928
1.77253
1.64658
1.60273
1.53897
1.4826
1.40937
1.31922
1.23011
1.1471
1.07691
1.02264
0.985447
0.97829
0.0903683
0.0626186
0.0625396
0.0626378
0.0629517
0.0638221
0.0662468
0.0735571
0.0998794
0.235443
1.11339
2.34859
1.77857
1.64694
1.60225
1.53972
1.48475
1.41214
1.32144
1.23142
1.14692
1.07552
1.02013
0.98086
0.973423
0.0903682
0.0626214
0.0625293
0.0626224
0.062918
0.063727
0.0659663
0.0726151
0.0961349
0.214428
0.974059
2.36843
1.78827
1.64834
1.60143
1.541
1.48724
1.41544
1.32428
1.23294
1.14623
1.07231
1.01439
0.97119
0.963071
0.0903679
0.0626246
0.0625178
0.0626049
0.0628785
0.063614
0.0656346
0.0715149
0.0917325
0.189089
0.803158
2.36553
1.80709
1.65226
1.60007
1.54266
1.48992
1.41918
1.32808
1.23511
1.14465
1.06689
1.00595
0.957117
0.947573
0.0903683
0.062628
0.0625056
0.0625859
0.0628344
0.0634916
0.0652771
0.0703643
0.0872633
0.162919
0.622412
2.31119
1.84869
1.65885
1.59851
1.5451
1.49241
1.42275
1.33233
1.23765
1.1424
1.05925
0.994861
0.938422
0.927232
0.0903683
0.0626312
0.0624941
0.0625678
0.0627892
0.0633667
0.0649098
0.0692135
0.0830522
0.140985
0.475223
2.12967
1.93281
1.66706
1.59627
1.54813
1.4934
1.42535
1.33683
1.24058
1.13977
1.04946
0.980724
0.914524
0.900073
0.0903686
0.0626342
0.0624853
0.0625529
0.0627478
0.0632474
0.0645501
0.0681162
0.0792022
0.12238
0.36136
1.82829
2.05076
1.67804
1.59242
1.55146
1.49285
1.42704
1.34151
1.24411
1.13743
1.03702
0.963364
0.884884
0.865066
0.0903685
0.0626353
0.0624797
0.0625418
0.0627133
0.0631397
0.0642194
0.0671139
0.0758036
0.107642
0.275923
1.39792
2.19465
1.69689
1.59071
1.55146
1.49125
1.42784
1.34621
1.24757
1.13602
1.02152
0.941968
0.84985
0.815713
0.0903686
0.0626356
0.0624773
0.062535
0.0626868
0.0630504
0.0639405
0.0662523
0.0728637
0.0957196
0.20917
0.946405
2.28333
1.73125
1.5914
1.54693
1.4898
1.42787
1.35014
1.24976
1.13621
1.00248
0.913977
0.810315
0.745771
0.0903685
0.0626156
0.0625508
0.0626543
0.0629876
0.0639223
0.0665435
0.0745537
0.10385
0.256705
1.25329
2.31515
1.76891
1.64403
1.6
1.53577
1.47867
1.40535
1.31553
1.22708
1.14511
1.07588
1.02234
0.985926
0.978942
0.0903684
0.0626166
0.0625469
0.0626487
0.0629754
0.0638889
0.0664461
0.0742344
0.102599
0.250115
1.2097
2.32931
1.7725
1.64656
1.60272
1.53896
1.4826
1.40937
1.31924
1.23014
1.14712
1.07693
1.02265
0.985441
0.978281
0.0903683
0.0626185
0.0625395
0.0626377
0.0629516
0.0638221
0.0662469
0.0735579
0.099883
0.235461
1.1135
2.34851
1.77855
1.64696
1.60226
1.53972
1.48475
1.41215
1.32146
1.23145
1.14695
1.07554
1.02013
0.980856
0.973414
0.0903681
0.0626213
0.0625291
0.0626222
0.0629178
0.0637269
0.0659665
0.0726164
0.0961403
0.214456
0.974211
2.36817
1.78825
1.64837
1.60143
1.54099
1.48723
1.41545
1.3243
1.23296
1.14626
1.07234
1.0144
0.971188
0.963065
0.0903678
0.0626246
0.0625177
0.0626048
0.0628784
0.063614
0.0656349
0.0715164
0.0917403
0.189148
0.803633
2.36502
1.80701
1.6523
1.60011
1.54265
1.48991
1.4192
1.32811
1.23514
1.14468
1.06691
1.00597
0.957119
0.947571
0.090368
0.0626279
0.0625053
0.0625856
0.0628339
0.063491
0.065276
0.070363
0.0872605
0.16291
0.622352
2.31106
1.84874
1.65882
1.59847
1.54508
1.49242
1.42278
1.33236
1.23769
1.14244
1.05928
0.994881
0.938427
0.927233
0.0903683
0.0626313
0.0624939
0.0625676
0.0627889
0.0633662
0.0649087
0.0692109
0.0830448
0.140956
0.475087
2.12977
1.93306
1.66693
1.59618
1.54813
1.49342
1.4254
1.33687
1.24062
1.13981
1.04949
0.980749
0.914534
0.900078
0.0903684
0.0626341
0.0624849
0.0625525
0.0627473
0.0632467
0.064549
0.068114
0.0791964
0.122357
0.361247
1.82803
2.05116
1.67797
1.59236
1.55145
1.49287
1.42709
1.34156
1.24416
1.13748
1.03706
0.963394
0.884898
0.865075
0.0903685
0.0626352
0.0624796
0.0625417
0.0627131
0.0631394
0.0642189
0.0671128
0.0758007
0.107632
0.275878
1.3977
2.19494
1.69684
1.59069
1.55146
1.49128
1.42788
1.34626
1.24761
1.13607
1.02156
0.942004
0.84987
0.815725
0.0903684
0.0626355
0.062477
0.0625347
0.0626864
0.0630499
0.0639399
0.0662514
0.072862
0.0957149
0.209153
0.946329
2.28345
1.73121
1.59139
1.54695
1.48981
1.42789
1.35017
1.24982
1.13628
1.00253
0.914016
0.81034
0.745785
0.0903684
0.0626156
0.0625507
0.0626542
0.0629875
0.0639221
0.0665433
0.0745533
0.103849
0.256703
1.25329
2.31516
1.7689
1.64402
1.59998
1.53576
1.47867
1.40536
1.31555
1.22711
1.14514
1.07592
1.02237
0.985962
0.978973
0.0903684
0.0626166
0.0625468
0.0626486
0.0629753
0.0638888
0.0664459
0.0742341
0.102598
0.250114
1.2097
2.3293
1.77249
1.64655
1.60271
1.53895
1.4826
1.40939
1.31926
1.23017
1.14715
1.07696
1.02268
0.985477
0.978312
0.0903683
0.0626185
0.0625394
0.0626376
0.0629515
0.0638219
0.0662467
0.0735575
0.099882
0.235458
1.11349
2.3485
1.77854
1.64695
1.60224
1.5397
1.48474
1.41215
1.32147
1.23147
1.14698
1.07557
1.02017
0.98089
0.973447
0.0903681
0.0626213
0.062529
0.0626221
0.0629177
0.0637268
0.0659663
0.0726159
0.0961389
0.21445
0.974182
2.36816
1.78824
1.64836
1.60142
1.54098
1.48722
1.41545
1.32431
1.23298
1.14628
1.07236
1.01443
0.971219
0.963101
0.0903678
0.0626246
0.0625176
0.0626047
0.0628783
0.0636139
0.0656347
0.0715158
0.0917383
0.189137
0.803559
2.36502
1.80702
1.65229
1.60009
1.54263
1.4899
1.41919
1.32811
1.23515
1.14469
1.06693
1.00599
0.957145
0.9476
0.090368
0.0626279
0.0625052
0.0625855
0.0628339
0.0634909
0.0652758
0.0703624
0.0872583
0.162899
0.622264
2.31102
1.84879
1.65881
1.59845
1.54506
1.4924
1.42277
1.33236
1.23769
1.14244
1.05929
0.9949
0.938446
0.927262
0.0903683
0.0626312
0.0624938
0.0625676
0.0627888
0.0633661
0.0649085
0.0692102
0.0830426
0.140946
0.475028
2.12968
1.93313
1.66693
1.59616
1.54812
1.49341
1.42539
1.33687
1.24062
1.13981
1.0495
0.980765
0.914546
0.9001
0.0903684
0.0626341
0.0624849
0.0625525
0.0627473
0.0632467
0.0645488
0.0681135
0.0791946
0.122349
0.361197
1.82786
2.05126
1.67797
1.59235
1.55144
1.49286
1.42708
1.34155
1.24415
1.13748
1.03706
0.963405
0.884907
0.865092
0.0903685
0.0626352
0.0624796
0.0625417
0.0627131
0.0631394
0.0642188
0.0671125
0.0757994
0.107627
0.275848
1.3975
2.19504
1.69685
1.59068
1.55145
1.49127
1.42786
1.34624
1.2476
1.13606
1.02156
0.942011
0.849874
0.815736
0.0903684
0.0626355
0.062477
0.0625347
0.0626864
0.0630499
0.0639398
0.0662511
0.072861
0.0957109
0.209133
0.946227
2.28346
1.73123
1.59139
1.54694
1.4898
1.42787
1.35015
1.2498
1.13626
1.00252
0.91402
0.810342
0.745792
0.0903685
0.0626156
0.0625508
0.0626543
0.0629876
0.0639223
0.0665436
0.074554
0.103851
0.256713
1.25335
2.31513
1.76891
1.64404
1.60001
1.53579
1.47868
1.40537
1.31555
1.22709
1.14512
1.0759
1.02235
0.985937
0.978952
0.0903684
0.0626166
0.0625469
0.0626487
0.0629754
0.0638889
0.0664462
0.0742347
0.1026
0.250121
1.20974
2.3293
1.7725
1.64657
1.60273
1.53897
1.48262
1.40939
1.31926
1.23016
1.14714
1.07694
1.02266
0.985452
0.978291
0.0903683
0.0626185
0.0625395
0.0626377
0.0629516
0.0638221
0.066247
0.0735582
0.0998838
0.235466
1.11353
2.34849
1.77855
1.64696
1.60227
1.53972
1.48476
1.41216
1.32147
1.23146
1.14696
1.07555
1.02014
0.980866
0.973425
0.0903681
0.0626213
0.0625291
0.0626222
0.0629179
0.063727
0.0659666
0.0726165
0.0961406
0.214457
0.974218
2.36815
1.78824
1.64837
1.60143
1.54099
1.48724
1.41546
1.32431
1.23297
1.14627
1.07235
1.01441
0.971198
0.963075
0.0903678
0.0626246
0.0625177
0.0626048
0.0628784
0.063614
0.0656349
0.0715164
0.09174
0.189145
0.803609
2.365
1.80701
1.6523
1.6001
1.54265
1.48991
1.4192
1.32811
1.23515
1.14469
1.06692
1.00598
0.957128
0.947579
0.090368
0.0626279
0.0625053
0.0625856
0.062834
0.063491
0.065276
0.0703628
0.0872597
0.162905
0.622304
2.31102
1.84877
1.65882
1.59847
1.54508
1.49242
1.42278
1.33236
1.23769
1.14244
1.05929
0.994889
0.938435
0.927241
0.0903683
0.0626313
0.0624939
0.0625676
0.0627889
0.0633662
0.0649087
0.0692106
0.0830437
0.14095
0.475049
2.1297
1.93311
1.66693
1.59618
1.54814
1.49342
1.4254
1.33687
1.24062
1.13981
1.04949
0.980753
0.91454
0.900084
0.0903684
0.0626341
0.062485
0.0625526
0.0627474
0.0632468
0.064549
0.0681138
0.0791953
0.122352
0.361209
1.8279
2.05124
1.67798
1.59236
1.55145
1.49287
1.42709
1.34155
1.24414
1.13747
1.03706
0.963395
0.884901
0.865079
0.0903685
0.0626353
0.0624797
0.0625418
0.0627132
0.0631395
0.064219
0.0671127
0.0757999
0.107628
0.275853
1.39753
2.19504
1.69686
1.5907
1.55146
1.49128
1.42787
1.34624
1.24759
1.13606
1.02155
0.942001
0.84987
0.815727
0.0903684
0.0626355
0.062477
0.0625348
0.0626865
0.06305
0.0639399
0.0662513
0.0728614
0.0957119
0.209136
0.94624
2.28347
1.73124
1.5914
1.54696
1.48981
1.42787
1.35015
1.24979
1.13625
1.00251
0.914008
0.810337
0.745785
0.0903685
0.0626156
0.0625508
0.0626543
0.0629876
0.0639223
0.0665435
0.0745537
0.10385
0.256705
1.25329
2.31515
1.76891
1.64403
1.6
1.53577
1.47867
1.40535
1.31553
1.22708
1.14511
1.07588
1.02234
0.985926
0.978942
0.0903684
0.0626166
0.0625469
0.0626487
0.0629754
0.0638889
0.0664461
0.0742344
0.102599
0.250115
1.2097
2.32931
1.7725
1.64656
1.60272
1.53896
1.4826
1.40937
1.31924
1.23014
1.14712
1.07693
1.02265
0.985441
0.97828
0.0903683
0.0626185
0.0625395
0.0626377
0.0629516
0.0638221
0.0662469
0.0735579
0.099883
0.235461
1.1135
2.34851
1.77855
1.64696
1.60226
1.53972
1.48475
1.41215
1.32146
1.23145
1.14695
1.07554
1.02013
0.980855
0.973414
0.0903681
0.0626213
0.0625291
0.0626222
0.0629178
0.0637269
0.0659665
0.0726164
0.0961403
0.214456
0.974211
2.36817
1.78825
1.64837
1.60143
1.54099
1.48723
1.41545
1.3243
1.23296
1.14626
1.07234
1.0144
0.971188
0.963065
0.0903678
0.0626246
0.0625177
0.0626048
0.0628784
0.063614
0.0656349
0.0715164
0.0917403
0.189148
0.803633
2.36502
1.80701
1.6523
1.60011
1.54265
1.48991
1.4192
1.32811
1.23514
1.14468
1.06691
1.00597
0.957118
0.94757
0.090368
0.0626279
0.0625053
0.0625856
0.0628339
0.063491
0.065276
0.070363
0.0872605
0.16291
0.622352
2.31106
1.84874
1.65882
1.59847
1.54508
1.49242
1.42278
1.33236
1.23769
1.14244
1.05928
0.994881
0.938427
0.927233
0.0903683
0.0626313
0.0624939
0.0625676
0.0627889
0.0633662
0.0649087
0.0692109
0.0830448
0.140956
0.475087
2.12977
1.93306
1.66693
1.59618
1.54813
1.49342
1.4254
1.33687
1.24062
1.13981
1.04949
0.980749
0.914534
0.900078
0.0903684
0.0626341
0.0624849
0.0625525
0.0627473
0.0632467
0.064549
0.068114
0.0791964
0.122357
0.361247
1.82803
2.05116
1.67797
1.59236
1.55145
1.49287
1.42709
1.34156
1.24416
1.13748
1.03706
0.963394
0.884898
0.865075
0.0903685
0.0626352
0.0624796
0.0625417
0.0627131
0.0631394
0.0642189
0.0671128
0.0758007
0.107632
0.275878
1.3977
2.19494
1.69684
1.59069
1.55146
1.49128
1.42788
1.34626
1.24761
1.13607
1.02156
0.942004
0.84987
0.815724
0.0903684
0.0626355
0.062477
0.0625347
0.0626864
0.0630499
0.0639399
0.0662514
0.072862
0.0957149
0.209153
0.946329
2.28345
1.73121
1.59139
1.54695
1.48981
1.42789
1.35017
1.24982
1.13628
1.00253
0.914016
0.81034
0.745785
0.0903685
0.0626157
0.0625509
0.0626544
0.0629877
0.0639224
0.0665437
0.0745535
0.103848
0.25669
1.25317
2.31514
1.76894
1.64405
1.60001
1.53578
1.47867
1.40534
1.31551
1.22705
1.14508
1.07587
1.02233
0.985932
0.978952
0.0903685
0.0626167
0.0625471
0.0626488
0.0629756
0.0638891
0.0664463
0.0742342
0.102597
0.250104
1.20961
2.32928
1.77253
1.64658
1.60273
1.53897
1.4826
1.40937
1.31922
1.23011
1.1471
1.07691
1.02264
0.985447
0.97829
0.0903683
0.0626186
0.0625396
0.0626378
0.0629517
0.0638221
0.0662468
0.0735571
0.0998794
0.235443
1.11339
2.34859
1.77857
1.64694
1.60225
1.53972
1.48475
1.41214
1.32144
1.23142
1.14692
1.07552
1.02013
0.98086
0.973423
0.0903682
0.0626214
0.0625293
0.0626224
0.062918
0.063727
0.0659663
0.0726151
0.0961349
0.214428
0.974059
2.36842
1.78827
1.64834
1.60143
1.541
1.48724
1.41544
1.32428
1.23294
1.14623
1.07231
1.01439
0.97119
0.963071
0.0903679
0.0626246
0.0625178
0.0626049
0.0628785
0.063614
0.0656346
0.0715149
0.0917325
0.189089
0.803158
2.36553
1.80709
1.65226
1.60007
1.54266
1.48992
1.41918
1.32808
1.23511
1.14465
1.06689
1.00595
0.957117
0.947573
0.0903683
0.062628
0.0625056
0.0625859
0.0628344
0.0634916
0.0652771
0.0703643
0.0872633
0.162919
0.622412
2.31119
1.84869
1.65885
1.59851
1.5451
1.49241
1.42275
1.33233
1.23765
1.1424
1.05925
0.994861
0.938422
0.927232
0.0903683
0.0626312
0.0624941
0.0625678
0.0627892
0.0633667
0.0649098
0.0692135
0.0830522
0.140985
0.475223
2.12967
1.93281
1.66706
1.59627
1.54813
1.4934
1.42535
1.33683
1.24058
1.13977
1.04946
0.980724
0.914524
0.900073
0.0903686
0.0626342
0.0624853
0.0625529
0.0627478
0.0632474
0.0645501
0.0681162
0.0792022
0.12238
0.36136
1.82829
2.05076
1.67804
1.59242
1.55146
1.49285
1.42704
1.34151
1.24411
1.13743
1.03702
0.963364
0.884884
0.865065
0.0903685
0.0626353
0.0624797
0.0625418
0.0627133
0.0631397
0.0642194
0.0671139
0.0758036
0.107642
0.275923
1.39792
2.19465
1.69689
1.59071
1.55146
1.49125
1.42784
1.34621
1.24757
1.13602
1.02152
0.941968
0.84985
0.815713
0.0903686
0.0626356
0.0624773
0.062535
0.0626868
0.0630504
0.0639405
0.0662523
0.0728637
0.0957196
0.20917
0.946405
2.28333
1.73125
1.5914
1.54693
1.4898
1.42787
1.35014
1.24976
1.13621
1.00248
0.913977
0.810315
0.745771
0.0903687
0.0626158
0.0625513
0.0626548
0.0629881
0.0639229
0.0665444
0.0745553
0.103855
0.256746
1.25371
2.31569
1.76895
1.64407
1.60006
1.53581
1.4787
1.40531
1.31544
1.22699
1.14503
1.07583
1.0223
0.985911
0.978933
0.0903686
0.0626168
0.0625474
0.0626491
0.0629759
0.0638896
0.066447
0.0742361
0.102604
0.250147
1.20994
2.32986
1.77246
1.64662
1.60279
1.539
1.48262
1.40934
1.31916
1.23005
1.14705
1.07687
1.02261
0.985427
0.978272
0.0903686
0.0626187
0.0625402
0.0626384
0.0629525
0.0638236
0.0662503
0.0735671
0.0999156
0.235637
1.11475
2.34776
1.77861
1.64702
1.60234
1.53975
1.48473
1.4121
1.32138
1.23136
1.14687
1.07548
1.0201
0.980843
0.973407
0.0903682
0.0626214
0.0625295
0.0626227
0.0629185
0.0637281
0.065969
0.072623
0.0961622
0.214561
0.974818
2.36761
1.78812
1.6484
1.60147
1.541
1.48719
1.41539
1.32423
1.23288
1.14619
1.07228
1.01437
0.971177
0.963061
0.0903682
0.0626247
0.0625182
0.0626054
0.0628791
0.0636155
0.0656375
0.0715226
0.0917617
0.189272
0.804447
2.36452
1.80685
1.65239
1.6002
1.54265
1.48987
1.41914
1.32804
1.23506
1.14461
1.06686
1.00594
0.95711
0.947568
0.0903681
0.0626279
0.0625056
0.062586
0.0628344
0.0634918
0.0652778
0.0703672
0.0872741
0.162979
0.622868
2.31087
1.84843
1.65888
1.59854
1.54507
1.49239
1.42273
1.33229
1.2376
1.14237
1.05924
0.994857
0.938421
0.927232
0.0903685
0.0626314
0.0624943
0.062568
0.0627894
0.0633669
0.06491
0.0692134
0.0830517
0.140985
0.475244
2.13003
1.93283
1.66701
1.59624
1.54813
1.49341
1.42536
1.33681
1.24054
1.13975
1.04945
0.980728
0.91453
0.900078
0.0903685
0.0626341
0.0624852
0.0625528
0.0627476
0.0632471
0.0645495
0.0681148
0.0791982
0.122363
0.361273
1.82813
2.05116
1.67798
1.5924
1.55147
1.49287
1.42705
1.34149
1.24408
1.13742
1.03702
0.963376
0.884895
0.865076
0.0903686
0.0626353
0.06248
0.0625421
0.0627136
0.0631399
0.0642194
0.0671133
0.0758008
0.10763
0.275861
1.39757
2.19511
1.6969
1.59075
1.5515
1.49129
1.42784
1.3462
1.24754
1.13602
1.02153
0.941987
0.849867
0.815727
0.0903685
0.0626355
0.0624772
0.062535
0.0626867
0.0630503
0.0639402
0.0662517
0.0728618
0.0957119
0.209134
0.946235
2.28355
1.73126
1.59143
1.54698
1.48982
1.42786
1.35012
1.24975
1.13621
1.00249
0.913998
0.810335
0.745786
0.0903683
0.0626156
0.0625509
0.0626544
0.0629875
0.0639216
0.0665411
0.0745445
0.103811
0.256498
1.25192
2.31577
1.76908
1.64408
1.60007
1.53583
1.47872
1.40536
1.31551
1.22706
1.14512
1.07593
1.02242
0.986032
0.979057
0.0903683
0.0626166
0.062547
0.0626488
0.0629753
0.0638882
0.0664435
0.0742252
0.102563
0.249942
1.20854
2.32991
1.77261
1.64664
1.60282
1.53902
1.48266
1.40939
1.31922
1.23013
1.14713
1.07697
1.02273
0.985544
0.978397
0.0903682
0.0626185
0.0625397
0.0626378
0.0629516
0.0638215
0.0662446
0.0735487
0.0998444
0.235242
1.11196
2.34953
1.77869
1.64706
1.60236
1.53977
1.48479
1.41216
1.32144
1.23143
1.14695
1.07558
1.02021
0.980955
0.973522
0.0903682
0.0626214
0.0625295
0.0626226
0.0629183
0.0637275
0.065967
0.0726155
0.0961331
0.214405
0.97386
2.36806
1.78848
1.64853
1.60156
1.54105
1.48724
1.41543
1.32427
1.23294
1.14626
1.07237
1.01447
0.971278
0.963162
0.0903677
0.0626246
0.062518
0.0626051
0.0628787
0.0636145
0.0656353
0.0715162
0.0917373
0.189128
0.803529
2.36459
1.80721
1.65249
1.60024
1.54273
1.4899
1.41914
1.32806
1.2351
1.14467
1.06693
1.00602
0.957196
0.947653
0.0903681
0.0626279
0.0625057
0.062586
0.0628344
0.0634914
0.0652763
0.0703615
0.0872528
0.162863
0.621911
2.31103
1.84921
1.65893
1.5985
1.54511
1.49241
1.42273
1.33229
1.23762
1.14241
1.05929
0.994924
0.938491
0.927304
0.0903683
0.0626312
0.0624943
0.0625681
0.0627893
0.0633667
0.0649092
0.0692099
0.0830391
0.140925
0.4749
2.12978
1.93349
1.66693
1.59618
1.54819
1.4934
1.42535
1.33678
1.24053
1.13976
1.04949
0.98078
0.914582
0.900133
0.0903686
0.0626341
0.0624857
0.0625534
0.0627482
0.0632478
0.0645506
0.0681158
0.0791985
0.122359
0.361252
1.82801
2.05123
1.678
1.59242
1.55152
1.49286
1.42702
1.34144
1.24404
1.13741
1.03704
0.963411
0.884932
0.865117
0.0903685
0.0626352
0.06248
0.0625422
0.0627137
0.0631402
0.0642203
0.0671152
0.075806
0.107648
0.275945
1.39814
2.19485
1.69689
1.59077
1.55153
1.49128
1.4278
1.34612
1.24747
1.13598
1.02153
0.942005
0.849884
0.815756
0.0903687
0.0626356
0.0624779
0.0625357
0.0626875
0.0630513
0.0639418
0.0662543
0.0728677
0.0957313
0.209217
0.946598
2.28354
1.73123
1.59148
1.54705
1.48981
1.42782
1.35003
1.24967
1.13618
1.00249
0.914009
0.810344
0.745801
0.0903684
0.0626353
0.062478
0.0625332
0.062671
0.0629843
0.0637233
0.0655602
0.0705644
0.0866416
0.156398
0.57396
2.25815
1.81362
1.60397
1.54219
1.49006
1.42745
1.35279
1.24972
1.13443
0.989479
0.880353
0.751493
0.591889
0.0903684
0.0626362
0.0624767
0.062531
0.0626615
0.0629411
0.063557
0.0650101
0.0688057
0.0802258
0.123696
0.362403
1.88114
1.97927
1.62723
1.54057
1.49194
1.42674
1.35028
1.25033
1.13487
0.986287
0.853722
0.702098
0.538869
0.0903683
0.0626366
0.0624748
0.062528
0.0626557
0.0629209
0.0634411
0.0646007
0.0674923
0.0756195
0.103611
0.244862
1.17181
2.12024
1.66275
1.54157
1.49558
1.42557
1.34703
1.25099
1.13593
0.987316
0.847311
0.691692
0.542546
0.0903683
0.0626367
0.0624743
0.0625269
0.0626526
0.0629134
0.0634316
0.0643603
0.0665322
0.0722867
0.0904235
0.169092
0.63472
2.14025
1.75248
1.5513
1.49496
1.42267
1.34827
1.25349
1.1388
0.991684
0.850256
0.696887
0.557154
0.0903684
0.0626368
0.0624736
0.0625262
0.0626523
0.0629157
0.06345
0.0641917
0.0658757
0.070093
0.0821613
0.126078
0.362757
1.86579
1.9303
1.58244
1.48978
1.41874
1.35249
1.26143
1.14658
1.00315
0.860526
0.712925
0.589102
0.0903684
0.0626368
0.0624735
0.0625261
0.0626525
0.0629157
0.0634518
0.0641333
0.065496
0.0685842
0.0768723
0.103135
0.224812
1.00076
2.00559
1.65562
1.48858
1.4242
1.36319
1.27352
1.16392
1.02738
0.884244
0.747032
0.636078
0.0903684
0.0626368
0.0624735
0.0625259
0.0626515
0.0629118
0.0634353
0.0641946
0.065279
0.0676113
0.0735107
0.0902226
0.15351
0.48703
1.9185
1.80768
1.49306
1.42344
1.3719
1.29506
1.18906
1.06198
0.929562
0.798011
0.686848
0.0903685
0.0626368
0.0624736
0.062526
0.0626516
0.0629116
0.0634335
0.0641928
0.0652454
0.0671618
0.0715874
0.0827465
0.117608
0.275481
1.28453
1.86793
1.51952
1.42511
1.38241
1.32231
1.21461
1.09639
0.977553
0.850015
0.738435
0.0903684
0.0626368
0.0624736
0.062526
0.0626515
0.0629112
0.0634313
0.0641921
0.0652439
0.0671627
0.0704797
0.0782235
0.0997808
0.176749
0.563874
1.78348
1.64403
1.43867
1.40561
1.34902
1.24623
1.13385
1.0231
0.901347
0.789548
0.0903685
0.0626368
0.0624737
0.0625261
0.0626515
0.0629112
0.0634306
0.0641919
0.0652427
0.0671877
0.0699362
0.0758027
0.089902
0.130766
0.295131
1.19533
1.68295
1.47629
1.42796
1.37052
1.28081
1.17387
1.06484
0.953347
0.841591
0.0903683
0.0626368
0.0624736
0.062526
0.0626515
0.0629113
0.063431
0.06419
0.0652514
0.067175
0.0699594
0.074706
0.0846638
0.109946
0.188052
0.524823
1.53267
1.52347
1.46951
1.39269
1.30939
1.21383
1.10839
1.00273
0.89567
0.0903685
0.0626369
0.0624737
0.0625261
0.0626515
0.0629112
0.0634307
0.0641911
0.0652511
0.0671223
0.0699628
0.0748347
0.0827779
0.0998927
0.143618
0.281349
0.875971
1.48026
1.47076
1.42741
1.33917
1.24995
1.15189
1.04901
0.949755
0.0903685
0.0626369
0.0624737
0.0625261
0.0626515
0.0629112
0.0634305
0.064191
0.0652526
0.0670937
0.0699994
0.0747982
0.0827168
0.0987567
0.126369
0.194359
0.412559
1.16145
1.43944
1.42294
1.37223
1.28106
1.19228
1.09458
0.999675
0.0903683
0.0626368
0.0624736
0.062526
0.0626515
0.0629112
0.0634306
0.0641908
0.065253
0.0670907
0.0700077
0.0747772
0.0827809
0.0991313
0.12425
0.163807
0.258926
0.541481
1.22327
1.38709
1.36618
1.30946
1.22814
1.1367
1.04437
0.0903684
0.0626368
0.0624737
0.0625261
0.0626515
0.0629112
0.0634306
0.0641909
0.0652525
0.0670926
0.0700001
0.0748046
0.0826618
0.0986333
0.124869
0.163847
0.206488
0.31254
0.619786
1.20589
1.32503
1.30216
1.24862
1.17512
1.09128
0.0903685
0.0626368
0.0624737
0.0625261
0.0626515
0.0629112
0.0634307
0.0641911
0.0652526
0.067093
0.0699988
0.0748089
0.082637
0.0984748
0.125452
0.162066
0.206206
0.245678
0.344167
0.627148
1.14346
1.25261
1.23445
1.19467
1.12294
0.0903685
0.0626368
0.0624737
0.0625261
0.0626515
0.0629112
0.0634306
0.0641908
0.0652521
0.067092
0.0699975
0.0748082
0.0826314
0.0984567
0.125437
0.162295
0.204985
0.2372
0.271503
0.354455
0.584305
1.04098
1.17091
1.17407
1.13707
0.0903685
0.0626369
0.0624738
0.0625262
0.0626516
0.0629113
0.0634308
0.0641908
0.0652523
0.0670922
0.0699991
0.0748115
0.0826351
0.0984586
0.12546
0.162329
0.204853
0.237522
0.255522
0.282293
0.346873
0.516993
0.906934
1.09272
1.1105
0.0903683
0.0626368
0.0624736
0.062526
0.0626515
0.0629112
0.0634305
0.0641903
0.0652518
0.0670907
0.0699969
0.0748084
0.0826291
0.0984461
0.125444
0.162318
0.204772
0.237554
0.255141
0.266775
0.28629
0.332828
0.451362
0.752248
1.00574
0.0903685
0.0626369
0.0624739
0.0625263
0.0626517
0.0629114
0.0634309
0.0641909
0.0652523
0.0670921
0.0699992
0.0748119
0.0826349
0.0984572
0.125457
0.162342
0.204795
0.23758
0.255021
0.265794
0.274485
0.286454
0.3153
0.390141
0.587302
0.0903684
0.0626368
0.0624736
0.0625261
0.0626515
0.0629111
0.0634305
0.0641908
0.0652522
0.0670923
0.0699978
0.0748088
0.082632
0.0984569
0.125431
0.162301
0.204772
0.237584
0.255016
0.265723
0.274071
0.277949
0.285069
0.301828
0.340915
0.0903686
0.0626369
0.0624739
0.0625264
0.0626518
0.0629115
0.0634311
0.0641911
0.0652527
0.067093
0.07
0.0748128
0.0826342
0.0984528
0.125449
0.162316
0.204773
0.237584
0.255037
0.26573
0.273977
0.277472
0.281245
0.285659
0.291605
0.0903684
0.0626368
0.0624736
0.0625261
0.0626514
0.0629111
0.0634305
0.0641907
0.0652521
0.0670921
0.0699974
0.074808
0.082631
0.0984557
0.125427
0.162295
0.204768
0.237583
0.255019
0.265729
0.273948
0.277465
0.28077
0.282868
0.282851
0.0903686
0.0626369
0.0624739
0.0625264
0.0626518
0.0629115
0.0634311
0.0641911
0.0652526
0.0670927
0.0699999
0.0748131
0.0826355
0.0984567
0.125451
0.162327
0.204777
0.23757
0.255001
0.265688
0.273904
0.277428
0.280664
0.282129
0.281401
0.0903683
0.0626368
0.0624736
0.062526
0.0626514
0.0629111
0.0634304
0.0641902
0.0652515
0.0670903
0.0699963
0.0748077
0.0826277
0.0984437
0.125438
0.162309
0.204757
0.237557
0.254983
0.265653
0.273887
0.277394
0.280643
0.282018
0.281208
0.0903686
0.0626369
0.0624739
0.0625264
0.0626518
0.0629115
0.063431
0.064191
0.0652524
0.0670924
0.0699996
0.0748127
0.0826348
0.0984552
0.125452
0.162332
0.204788
0.237582
0.255007
0.26569
0.273902
0.277427
0.28065
0.282017
0.281195
0.0903684
0.0626368
0.0624736
0.062526
0.0626514
0.0629111
0.0634305
0.0641906
0.0652518
0.0670916
0.0699969
0.0748076
0.0826299
0.0984534
0.125424
0.162296
0.204774
0.237588
0.255016
0.26572
0.27393
0.277461
0.280681
0.282046
0.281221
0.0903685
0.0626369
0.0624738
0.0625263
0.0626517
0.0629114
0.0634309
0.0641908
0.0652523
0.0670923
0.0699991
0.0748112
0.0826326
0.098451
0.125452
0.162325
0.204778
0.237582
0.255024
0.265715
0.273934
0.277458
0.280679
0.28204
0.281217
0.0903684
0.0626368
0.0624736
0.062526
0.0626514
0.0629111
0.0634304
0.0641906
0.0652519
0.0670919
0.0699972
0.0748075
0.0826303
0.098455
0.125425
0.162291
0.204761
0.237569
0.255
0.265711
0.273923
0.277458
0.280682
0.282049
0.281223
0.0903685
0.0626369
0.0624737
0.0625261
0.0626515
0.0629112
0.0634307
0.0641907
0.0652521
0.067092
0.0699982
0.0748097
0.0826328
0.0984561
0.125449
0.162325
0.204772
0.237563
0.254989
0.265679
0.273894
0.277423
0.280651
0.28202
0.281196
0.0903683
0.0626368
0.0624735
0.0625259
0.0626513
0.062911
0.0634303
0.0641901
0.0652514
0.0670901
0.0699953
0.0748053
0.0826255
0.0984427
0.125429
0.162304
0.20476
0.237564
0.254995
0.265668
0.273898
0.277406
0.280653
0.282011
0.281186
0.0903685
0.0626368