/*--------------------------------*- C++ -*----------------------------------*\
| =========                 |                                                 |
| \\      /  F ield         | OpenFOAM: The Open Source CFD Toolbox           |
|  \\    /   O peration     | Version:  4.1                                   |
|   \\  /    A nd           | Web:      www.OpenFOAM.org                      |
|    \\/     M anipulation  |                                                 |
\*---------------------------------------------------------------------------*/
FoamFile
{
    version     2.0;
    format      ascii;
    class       surfaceScalarField;
    location    "0.4";
    object      phi;
}
// * * * * * * * * * * * * * * * * * * * * * * * * * * * * * * * * * * * * * //

dimensions      [1 0 -1 0 0 0 0];

internalField   nonuniform List<scalar> 
150500
(
0.0020282
-9.22962e-12
-1.75406e-12
0.00202885
-1.66711e-09
-1.03596e-12
0.00202995
5.3093e-09
-1.80546e-12
0.00203001
1.197e-08
-2.0051e-12
0.00202792
2.91247e-08
-2.75632e-12
0.00201877
8.43206e-08
-5.31623e-12
0.00199024
2.60084e-07
-1.36536e-11
0.00190419
8.83486e-07
-4.48848e-11
0.00171261
3.61389e-06
-1.89681e-10
0.00107064
2.24643e-05
-1.14437e-09
-0.00316565
0.000290776
-8.91618e-09
-0.00372554
0.000670082
1.13717e-09
-0.00330962
0.000456066
7.82505e-10
-0.00289407
0.000407516
5.0374e-10
-0.00233663
0.000368428
4.20024e-10
-0.00196128
0.000333536
3.92024e-10
-0.00166247
0.000330615
5.0471e-10
-0.00142316
0.000340745
7.87254e-10
-0.00121412
0.000339942
8.35621e-10
-0.00102761
0.000338262
7.22313e-10
-0.000865825
0.000341173
6.49855e-10
-0.000698048
0.000342432
6.23625e-10
-0.000505729
0.000342707
6.25281e-10
-0.000278278
0.000355135
6.14405e-10
0.000365066
5.93452e-10
0.00202821
5.68947e-11
-1.33954e-12
0.00202883
-3.07887e-09
-7.99186e-13
0.00202999
9.86031e-09
-1.40837e-12
0.0020301
2.25299e-08
-1.5964e-12
0.00202814
5.54032e-08
-2.26688e-12
0.00201928
1.63852e-07
-4.6067e-12
0.00199145
5.12683e-07
-1.16365e-11
0.00190689
1.7595e-06
-3.60218e-11
0.00171748
7.25948e-06
-1.40369e-10
0.00108553
4.50293e-05
-7.75945e-10
-0.00299319
0.000549524
-5.74816e-09
-0.00370756
0.00132796
-1.30727e-09
-0.00330523
0.000928606
1.14583e-09
-0.0028822
0.000817163
3.98218e-10
-0.00232238
0.000738984
3.91075e-10
-0.00193852
0.00066663
4.29038e-10
-0.00163775
0.000661812
4.77248e-10
-0.00140027
0.000681869
6.84244e-10
-0.00119234
0.000680618
7.58601e-10
-0.00100924
0.000677898
6.95704e-10
-0.000850477
0.000682482
6.34284e-10
-0.000687026
0.000685192
6.04951e-10
-0.000500888
0.000687419
6.06356e-10
-0.000274963
0.000708264
5.9965e-10
0.000731863
5.87164e-10
0.00202822
8.37289e-11
-2.04929e-12
0.00202879
-4.59859e-09
-1.06903e-12
0.00203009
1.30534e-08
-2.04522e-12
0.0020303
2.97575e-08
-2.39818e-12
0.00202858
7.54522e-08
-3.68994e-12
0.0020204
2.28574e-07
-8.11081e-12
0.00199436
7.14247e-07
-2.10041e-11
0.00191429
2.43869e-06
-6.68063e-11
0.00173011
9.88329e-06
-2.59512e-10
0.00111714
5.97677e-05
-1.45608e-09
-0.0026243
0.000697685
-1.0332e-08
-0.00370461
0.00204235
5.27207e-09
-0.00329552
0.00139011
8.06028e-10
-0.00285483
0.00122263
3.51689e-10
-0.00229549
0.00111404
2.37965e-10
-0.00189825
0.00100253
4.51264e-10
-0.00159289
0.000993543
5.56049e-10
-0.00135737
0.00102141
5.57285e-10
-0.00115204
0.00102156
5.81237e-10
-0.000973984
0.00101758
6.19667e-10
-0.000819943
0.00102402
6.00349e-10
-0.000663145
0.00102895
5.7203e-10
-0.000485329
0.00103209
5.75313e-10
-0.000267079
0.00106121
5.68525e-10
0.00110027
5.63106e-10
0.00202824
-1.57335e-11
-7.07011e-13
0.00202872
-4.85302e-09
-2.98921e-13
0.00203022
1.43995e-08
-5.61417e-13
0.00203062
3.37433e-08
-8.37874e-13
0.00202918
9.02428e-08
-1.87872e-12
0.00202187
2.7117e-07
-5.59188e-12
0.00199837
8.46557e-07
-1.60853e-11
0.00192531
2.84325e-06
-5.15467e-11
0.00174866
1.13205e-05
-1.91756e-10
0.00118766
6.64674e-05
-1.01338e-09
-0.00210108
0.000736345
-6.14554e-09
-0.00370645
0.00275595
4.25331e-09
-0.00328201
0.0018742
1.68209e-09
-0.00281301
0.0016333
4.13029e-10
-0.00225818
0.00149691
3.38796e-10
-0.0018399
0.0013423
4.92819e-10
-0.00152799
0.0013251
5.83192e-10
-0.00129276
0.00135771
4.37704e-10
-0.00108925
0.00136252
4.21969e-10
-0.00091734
0.00135782
5.15692e-10
-0.00077072
0.00136575
5.34995e-10
-0.000623463
0.00137037
5.07006e-10
-0.000457232
0.00137269
5.12497e-10
-0.000252063
0.00141363
5.12629e-10
0.00147268
5.20678e-10
0.00202827
-7.59671e-10
-1.56541e-12
0.00202864
-4.49139e-09
-5.71894e-13
0.00203038
1.75679e-08
-9.02103e-13
0.0020311
4.03931e-08
-1.13211e-12
0.0020298
1.03483e-07
-1.96354e-12
0.00202351
3.01876e-07
-5.62332e-12
0.00200311
9.31502e-07
-1.45527e-11
0.00193966
3.04297e-06
-4.49304e-11
0.00177587
1.16483e-05
-1.85341e-10
0.00129659
6.43315e-05
-1.20559e-09
-0.00138852
0.000647317
-8.89465e-09
-0.00382706
0.00341509
5.0758e-09
-0.00326709
0.00240928
2.113e-09
-0.00276406
0.00205383
-1.0316e-10
-0.0022174
0.00189058
-2.11106e-10
-0.00176932
0.00168916
4.33245e-10
-0.00144689
0.00165633
4.42267e-10
-0.00120889
0.00168903
2.59695e-10
-0.00100524
0.00170421
2.59447e-10
-0.000840245
0.00169812
3.93152e-10
-0.00070354
0.00170521
4.22402e-10
-0.000568967
0.0017106
4.17e-10
-0.000417059
0.00171191
4.41541e-10
-0.000228534
0.00176768
4.42335e-10
0.00185072
4.50665e-10
0.00202829
-1.12192e-09
6.02672e-15
0.00202857
-4.85454e-09
-7.59048e-14
0.00203055
1.5043e-08
9.02601e-13
0.00203151
3.59851e-08
7.14602e-13
0.00203057
9.91128e-08
4.72774e-13
0.00202565
2.97258e-07
-9.92066e-13
0.00200812
9.29536e-07
-5.14396e-12
0.00195314
3.00891e-06
-2.25107e-11
0.00181016
1.11639e-05
-9.08275e-11
0.00143949
5.68301e-05
-5.39181e-10
-0.000683941
0.000495045
-4.5828e-09
-0.00405749
0.00382557
1.89128e-09
-0.00323114
0.00305452
2.85168e-09
-0.0027085
0.00248143
1.65006e-10
-0.00217217
0.00228992
-2.64793e-11
-0.00168594
0.00204608
3.50835e-10
-0.00135121
0.00198724
2.10911e-10
-0.00110623
0.002013
1.73824e-10
-0.00089976
0.00204684
1.06742e-10
-0.000742617
0.00203967
2.37723e-10
-0.00061737
0.00204488
2.76293e-10
-0.000497426
0.00205259
2.92279e-10
-0.000361537
0.00205092
3.43245e-10
-0.000194685
0.00212227
3.56049e-10
0.00224086
3.84089e-10
0.00202832
-6.12558e-10
-6.37102e-14
0.00202849
-4.24593e-09
-4.55697e-13
0.00203072
9.87782e-09
1.23295e-12
0.00203199
2.52561e-08
1.30202e-12
0.00203136
8.00721e-08
1.30817e-12
0.00202786
2.60809e-07
1.96235e-12
0.00201317
8.50966e-07
2.34703e-12
0.00196646
2.78279e-06
-4.87995e-13
0.00184075
1.01518e-05
-1.33875e-11
0.00154739
4.83092e-05
-1.04487e-10
-2.113e-05
0.000369631
-8.56686e-10
-0.00394678
0.00377437
-3.09433e-09
-0.00317753
0.00383507
9.65233e-10
-0.00264036
0.00292036
4.72376e-10
-0.0021251
0.00268754
3.20793e-10
-0.00159312
0.00242495
3.77222e-10
-0.00124089
0.00231718
1.73858e-10
-0.000984298
0.00232684
-1.28713e-11
-0.000771733
0.00238726
-3.84202e-11
-0.000620406
0.00238096
7.07989e-11
-0.000508638
0.00238135
1.1156e-10
-0.000406559
0.00239491
1.76094e-10
-0.000287814
0.00239003
2.41096e-10
-0.000145013
0.00247778
2.61722e-10
0.00265793
2.94357e-10
0.00202834
-6.53247e-10
7.43122e-14
0.00202841
-2.0367e-09
-1.79006e-13
0.00203086
4.01403e-09
2.08306e-12
0.00203251
1.3353e-08
2.35924e-12
0.00203224
5.52556e-08
2.70192e-12
0.00202992
2.04551e-07
3.55793e-12
0.0020181
7.16234e-07
6.052e-12
0.00197953
2.42632e-06
9.12999e-12
0.00187258
8.80243e-06
1.70652e-11
0.00163114
3.90548e-05
4.23373e-11
0.000551592
0.000270042
1.23113e-10
-0.00365786
0.00331473
-2.39937e-10
-0.00312185
0.00479148
-9.61287e-10
-0.00255926
0.00339058
4.92228e-10
-0.00206393
0.00307488
3.37217e-10
-0.00149529
0.00282512
3.95215e-10
-0.00111848
0.00264091
1.9679e-10
-0.000843409
0.00263311
3.45319e-11
-0.00062086
0.00272169
-5.6391e-11
-0.000471498
0.0027209
-5.56399e-11
-0.000370847
0.00271013
-5.46352e-11
-0.000285539
0.00273193
4.73222e-11
-0.000189774
0.00272768
1.29816e-10
-7.05748e-05
0.00282799
1.66215e-10
0.00311269
2.13465e-10
0.00202835
-9.97861e-11
3.68645e-13
0.00202837
-3.22093e-10
-2.71899e-14
0.00203103
1.07319e-09
2.15569e-12
0.00203292
5.49238e-09
2.44792e-12
0.00203314
3.4088e-08
2.77973e-12
0.00203193
1.44549e-07
3.62743e-12
0.00202349
5.59636e-07
6.29618e-12
0.00199261
1.99832e-06
9.75287e-12
0.00190093
7.24262e-06
1.9936e-11
0.00170257
3.0556e-05
5.72112e-11
0.00105071
0.000196604
2.01709e-10
-0.00278396
0.00240144
9.04432e-10
-0.00306679
0.00588052
-1.68983e-09
-0.00249503
0.00390883
-1.38439e-10
-0.00198931
0.00345465
2.27159e-10
-0.00139771
0.00322985
3.21771e-10
-0.000986504
0.00295455
2.28247e-10
-0.000685489
0.00293744
1.23079e-10
-0.000446549
0.00304467
-1.16099e-10
-0.000293418
0.00305764
-1.9867e-10
-0.00019984
0.00302935
-2.1297e-10
-0.000124399
0.00305927
-1.08259e-10
-5.93014e-05
0.00307306
8.57375e-12
3.88682e-05
0.00314955
5.77777e-11
0.00365125
1.37076e-10
0.00202835
1.01347e-12
4.66767e-10
0.00202834
3.72523e-13
3.26535e-10
0.00203114
3.5428e-12
-6.82891e-11
0.00203325
3.9218e-12
1.73287e-09
0.00203395
4.1822e-12
1.71638e-08
0.00203389
5.24615e-12
8.80992e-08
0.00202876
7.67838e-12
4.02537e-07
0.0020055
1.19034e-11
1.55143e-06
0.00193454
2.24961e-11
5.61761e-06
0.00176239
6.18839e-11
2.25665e-05
0.00124095
2.11712e-10
0.000131444
-0.00150034
6.11416e-10
0.00140369
-0.00305685
-7.41483e-10
0.00694591
-0.00246973
-2.35671e-11
0.0045379
-0.00190336
4.64632e-10
0.00385181
-0.00130062
6.20438e-10
0.00361883
-0.000843834
5.133e-10
0.00328541
-0.000511952
2.02422e-10
0.00324271
-0.000251119
-1.19471e-10
0.00334171
-8.8538e-05
-2.50901e-10
0.00338563
-4.76275e-06
-3.26258e-10
0.00334381
8.7757e-05
-1.8427e-10
0.00336107
0.000144257
-7.44686e-11
0.00340711
0.000198878
-8.19209e-12
0.00346686
5.90159e-11
0.00429644
0.0020282
1.99834e-10
7.48028e-13
0.00202885
-1.31419e-09
5.91219e-13
0.00202994
5.99849e-09
1.71821e-12
0.00203
1.30662e-08
1.76722e-12
0.00202791
3.07599e-08
1.84287e-12
0.00201875
8.66943e-08
1.90449e-12
0.00199018
2.6359e-07
3.01608e-12
0.00190406
8.89693e-07
7.53711e-12
0.00171234
3.63328e-06
3.28217e-11
0.00106977
2.26166e-05
2.51517e-10
-0.00317389
0.000292484
2.57368e-09
-0.00372367
0.000668005
3.44688e-09
-0.00330683
0.000455759
3.80729e-11
-0.00289256
0.00040816
6.43932e-11
-0.002336
0.00036908
2.45288e-10
-0.00196116
0.000333899
1.31988e-10
-0.00166262
0.000330622
1.1876e-10
-0.00142342
0.000340648
-1.49293e-10
-0.00121432
0.00033987
-3.25563e-10
-0.00102773
0.000338201
-2.76241e-10
-0.000865884
0.000341103
-2.21335e-10
-0.000698073
0.000342358
-1.94161e-10
-0.00050573
0.000342632
-1.53063e-10
-0.000278243
0.000355052
-1.01956e-10
0.00036501
-9.07433e-11
0.00202821
1.47873e-10
3.79807e-13
0.00202883
-2.89117e-09
3.55298e-13
0.00202999
1.02902e-08
1.41228e-12
0.0020301
2.34306e-08
1.47989e-12
0.00202814
5.67461e-08
1.67571e-12
0.00201926
1.64883e-07
1.95736e-12
0.00199142
5.11701e-07
3.23626e-12
0.00190683
1.74774e-06
7.75562e-12
0.00171742
7.19748e-06
2.93078e-11
0.00108555
4.45776e-05
1.95483e-10
-0.00299298
0.00054487
1.58039e-09
-0.00370105
0.00132722
3.27394e-09
-0.00330099
0.000931395
-2.9549e-10
-0.00288019
0.0008193
1.43334e-10
-0.00232161
0.000740708
2.1394e-10
-0.00193843
0.000667535
9.97795e-11
-0.00163793
0.000661901
8.57743e-11
-0.00140055
0.000681687
-1.45277e-10
-0.00119258
0.000680447
-3.01762e-10
-0.0010094
0.00067775
-2.71063e-10
-0.000850563
0.000682327
-2.2092e-10
-0.000687072
0.000685037
-1.85658e-10
-0.000500896
0.000687249
-1.44484e-10
-0.000274906
0.000708069
-9.63727e-11
0.000731787
-8.57681e-11
0.00202822
6.98732e-10
1.50374e-12
0.00202879
-3.63004e-09
8.73365e-13
0.00203008
1.47884e-08
2.78691e-12
0.00203029
3.24139e-08
3.08288e-12
0.00202857
7.92582e-08
4.12544e-12
0.00202037
2.34157e-07
7.29374e-12
0.00199428
7.2291e-07
1.59137e-11
0.00191411
2.45466e-06
4.48835e-11
0.00172976
9.92683e-06
1.64228e-10
0.00111579
6.00205e-05
9.15638e-10
-0.00263739
0.000700975
6.83217e-09
-0.00370921
0.00203978
-4.20468e-09
-0.00329817
0.00138974
1.83107e-10
-0.00285659
0.00122319
3.88725e-10
-0.00229654
0.00111445
5.38978e-10
-0.00189919
0.00100265
9.94542e-11
-0.00159352
0.000993267
-8.31627e-11
-0.00135773
0.00102096
-1.88151e-10
-0.00115229
0.00102118
-2.73585e-10
-0.000974122
0.00101727
-2.7676e-10
-0.000819998
0.00102376
-2.18983e-10
-0.000663152
0.00102872
-1.73459e-10
-0.000485309
0.00103184
-1.27867e-10
-0.000267026
0.00106094
-8.22997e-11
0.00110016
-7.21732e-11
0.00202824
1.70143e-10
-7.33741e-14
0.00202873
-4.52803e-09
-5.7248e-14
0.00203022
1.51183e-08
1.01096e-12
0.00203062
3.50639e-08
1.30411e-12
0.00202917
9.21649e-08
2.23023e-12
0.00202186
2.74134e-07
5.02079e-12
0.00199833
8.51889e-07
1.23167e-11
0.00192521
2.85459e-06
3.52767e-11
0.00174858
1.13508e-05
1.22191e-10
0.0011872
6.65861e-05
6.09947e-10
-0.00210388
0.000737521
3.61173e-09
-0.00370512
0.00275757
-4.1115e-09
-0.00328381
0.00187474
-6.51838e-10
-0.00281574
0.00163341
2.46422e-10
-0.00226001
0.00149633
1.68797e-10
-0.00184131
0.00134155
-2.48496e-11
-0.00152882
0.00132416
-2.21082e-10
-0.00129315
0.0013569
-2.40055e-10
-0.00108946
0.00136186
-2.67455e-10
-0.000917455
0.00135734
-2.84994e-10
-0.00077075
0.00136538
-2.17471e-10
-0.000623439
0.00137007
-1.45095e-10
-0.000457191
0.00137242
-9.29026e-11
-0.000252014
0.00141333
-5.65823e-11
0.00147248
-4.79489e-11
0.00202827
-1.09211e-10
1.57037e-12
0.00202864
-3.8244e-09
4.89613e-13
0.00203037
1.91018e-08
2.43097e-12
0.00203109
4.26247e-08
2.67694e-12
0.0020298
1.06973e-07
3.09992e-12
0.0020235
3.0751e-07
7.14392e-12
0.00200306
9.4146e-07
1.36266e-11
0.0019395
3.06536e-06
3.50541e-11
0.00177544
1.1719e-05
1.32149e-10
0.00129499
6.47095e-05
8.43033e-10
-0.00139424
0.000651629
6.32623e-09
-0.00382793
0.00341777
-4.96406e-09
-0.00327251
0.00240937
-1.08911e-09
-0.00276773
0.00205176
6.96296e-10
-0.00221954
0.00188787
7.3826e-10
-0.001771
0.00168677
-4.74585e-12
-0.00144782
0.00165456
-2.21841e-10
-0.00120921
0.00168785
-2.54098e-10
-0.00100537
0.00170327
-2.59411e-10
-0.000840299
0.00169743
-2.90475e-10
-0.000703524
0.00170472
-2.06665e-10
-0.00056892
0.00171027
-1.06021e-10
-0.00041701
0.00171165
-5.57456e-11
-0.000228484
0.00176736
-3.06717e-11
0.00185041
-2.49139e-11
0.0020283
-7.8235e-10
-7.547e-13
0.00202856
-4.46681e-09
-3.00277e-13
0.00203055
1.59198e-08
-1.43292e-13
0.00203151
3.75311e-08
7.97147e-15
0.00203056
1.01636e-07
1.78627e-13
0.00202562
3.01888e-07
1.00902e-12
0.0020081
9.38641e-07
3.97467e-12
0.0019531
3.02971e-06
1.36595e-11
0.00181003
1.12273e-05
4.93852e-11
0.00143885
5.7122e-05
2.73459e-10
-0.000690248
0.000497693
2.12634e-09
-0.00405505
0.00383636
-1.46819e-09
-0.00323264
0.00305423
-1.16034e-09
-0.00270986
0.00247967
2.01647e-10
-0.002173
0.00228717
1.43303e-10
-0.0016869
0.00204296
-1.3129e-10
-0.00135179
0.00198509
-8.46095e-11
-0.0011064
0.00201154
-1.24574e-10
-0.000899764
0.00204566
-2.09894e-10
-0.000742562
0.00203882
-2.86301e-10
-0.000617285
0.00204433
-1.81839e-10
-0.000497333
0.00205226
-6.1971e-11
-0.000361465
0.00205066
-1.70174e-11
-0.000194622
0.00212196
-3.2057e-12
0.00224047
-5.51268e-13
0.00202832
-3.71749e-10
9.24573e-13
0.00202848
-3.66526e-09
5.70557e-13
0.00203071
1.11961e-08
8.5482e-13
0.00203201
2.73267e-08
8.85826e-13
0.00203134
8.31022e-08
6.73883e-13
0.00202783
2.65224e-07
7.6348e-13
0.00201314
8.58009e-07
6.32781e-13
0.00196646
2.79565e-06
-4.06585e-13
0.00184073
1.01803e-05
-2.28503e-12
0.00154732
4.84087e-05
-3.94416e-13
-2.08591e-05
0.000370316
9.96714e-11
-0.00394171
0.00377968
1.67325e-09
-0.00317487
0.00383832
9.08373e-11
-0.00263934
0.00292069
-2.12506e-10
-0.00212495
0.00268652
-1.18243e-10
-0.00159311
0.00242315
2.33005e-15
-0.00124088
0.00231535
1.03399e-10
-0.000984113
0.00232522
4.74682e-11
-0.000771532
0.00238605
-1.39936e-10
-0.000620199
0.00238006
-2.50705e-10
-0.000508434
0.00238077
-1.33782e-10
-0.00040641
0.00239459
-1.59889e-11
-0.000287713
0.0023898
1.83034e-11
-0.000144943
0.00247752
2.49566e-11
0.00265748
2.48398e-11
0.00202834
-3.4024e-10
-3.80185e-13
0.00202841
-1.58176e-09
-2.09358e-13
0.00203086
4.89668e-09
-4.749e-13
0.00203252
1.48577e-08
-5.19236e-13
0.00203224
5.75128e-08
-6.45599e-13
0.0020299
2.08111e-07
-1.07414e-12
0.00201809
7.21382e-07
-2.36677e-12
0.00197954
2.43469e-06
-5.79543e-12
0.00187259
8.81571e-06
-1.71665e-11
0.00163115
3.90796e-05
-7.08846e-11
0.000552392
0.000270151
-4.26457e-10
-0.00365584
0.0033163
-8.75614e-10
-0.00311969
0.00479568
1.93219e-09
-0.00255832
0.00339238
-2.42773e-10
-0.0020634
0.00307471
-4.75944e-11
-0.00149481
0.00282403
6.52652e-11
-0.00111806
0.00263935
1.40101e-10
-0.000842966
0.00263158
6.48808e-11
-0.000620467
0.00272056
-7.19117e-11
-0.000471133
0.00272006
-1.41383e-10
-0.000370529
0.00270958
-5.03287e-11
-0.000285314
0.00273163
2.40916e-11
-0.000189638
0.0027275
7.50316e-11
-7.04976e-05
0.00282779
4.38531e-11
0.00311223
3.88425e-11
0.00202835
2.35393e-10
6.20043e-13
0.00202836
1.67443e-10
3.23339e-13
0.00203102
2.15918e-09
1.0119e-12
0.00203293
7.4474e-09
1.0474e-12
0.00203313
3.67855e-08
9.26479e-13
0.00203191
1.48501e-07
8.15259e-13
0.00202347
5.65266e-07
7.07418e-14
0.00199262
2.00755e-06
-2.58027e-12
0.00190094
7.25685e-06
-1.18828e-11
0.00170257
3.05778e-05
-5.39306e-11
0.00105084
0.000196641
-3.11556e-10
-0.0027831
0.00240171
-1.86072e-09
-0.00306586
0.00588421
2.27205e-09
-0.00249404
0.00391063
7.62155e-11
-0.00198853
0.00345481
1.25394e-10
-0.00139693
0.00322918
2.50702e-10
-0.000985906
0.0029531
2.12927e-10
-0.000684954
0.00293609
3.41418e-11
-0.000446001
0.00304373
-5.77863e-11
-0.0002929
0.00305692
-8.28711e-11
-0.000199392
0.00302884
-3.6478e-12
-0.000124072
0.00305901
5.65184e-11
-5.91121e-05
0.00307292
9.26306e-11
3.89382e-05
0.00314948
9.68373e-11
0.00365075
8.11779e-11
0.00202836
-3.93451e-13
4.15167e-10
0.00202833
-3.41697e-13
6.68283e-10
0.00203113
-1.95661e-13
3.67101e-10
0.00203325
-2.21172e-13
2.22743e-09
0.00203395
-2.52871e-13
1.80699e-08
0.00203387
-4.11387e-13
8.93382e-08
0.00202875
-1.05624e-12
4.04171e-07
0.00200552
-2.58918e-12
1.55386e-06
0.00193458
-8.39189e-12
5.62173e-06
0.0017624
-3.34965e-11
2.2569e-05
0.00124099
-1.68991e-10
0.00013142
-0.00150007
-8.88852e-10
0.00140347
-0.00305595
1.12643e-09
0.00694847
-0.00246873
5.15315e-11
0.00453907
-0.00190264
1.35206e-10
0.00385153
-0.00129984
1.71609e-10
0.00361805
-0.000843107
8.07001e-11
0.00328434
-0.000511318
-5.76489e-11
0.00324173
-0.000250489
-6.2375e-11
0.00334092
-8.79342e-05
-5.45543e-11
0.00338518
-4.34904e-06
1.56743e-11
0.00334351
8.81604e-05
7.08301e-11
0.00336087
0.000144549
9.58252e-11
0.003407
0.000199062
1.05002e-10
0.0034669
9.05046e-11
0.00429602
0.0020282
8.31591e-11
2.0701e-13
0.00202885
-1.52599e-09
1.46517e-13
0.00202994
5.62958e-09
5.35651e-13
0.00203
1.25111e-08
5.61005e-13
0.00202791
2.99899e-08
5.99356e-13
0.00201875
8.57765e-08
6.22125e-13
0.00199019
2.6285e-07
6.02831e-13
0.00190409
8.90471e-07
-5.98011e-13
0.00171243
3.63994e-06
-8.12029e-12
0.00107003
2.26509e-05
-6.64407e-11
-0.00317129
0.000292906
-5.78686e-10
-0.00372622
0.000669667
-4.80549e-11
-0.00331013
0.000455794
1.16991e-10
-0.00289473
0.000407218
1.36113e-10
-0.00233715
0.000368002
6.35415e-11
-0.00196176
0.000333173
2.03949e-11
-0.00166278
0.000330327
-2.15758e-12
-0.00142326
0.000340568
-2.99801e-11
-0.00121408
0.000339869
-8.17612e-11
-0.00102752
0.00033823
-1.0653e-10
-0.000865706
0.000341149
-9.63692e-11
-0.000697937
0.000342406
-6.48764e-11
-0.00050565
0.00034267
-1.69037e-11
-0.000278204
0.00035508
3.176e-11
0.000365035
4.84851e-11
0.00202821
2.44259e-10
4.45637e-13
0.00202883
-2.76735e-09
2.91525e-13
0.00202999
1.0563e-08
8.97503e-13
0.0020301
2.36392e-08
9.11094e-13
0.00202814
5.70511e-08
9.25709e-13
0.00201926
1.66337e-07
7.00011e-13
0.00199142
5.16672e-07
6.39511e-13
0.00190683
1.76689e-06
-5.68043e-13
0.00171741
7.27705e-06
-7.0803e-12
0.00108535
4.50687e-05
-5.12106e-11
-0.00299539
0.000549596
-4.04392e-10
-0.00370634
0.00132911
-1.39468e-10
-0.00330444
0.000928837
1.85148e-10
-0.00288208
0.000817106
9.65535e-11
-0.00232244
0.000738629
5.07513e-11
-0.00193875
0.000666207
4.00351e-11
-0.00163793
0.000661397
3.92007e-12
-0.00140033
0.00068158
-2.97649e-11
-0.00119231
0.000680482
-7.72751e-11
-0.00100918
0.000677829
-1.03296e-10
-0.000850385
0.000682425
-9.93992e-11
-0.000686941
0.00068513
-6.85919e-11
-0.000500819
0.000687322
-2.13425e-11
-0.000274869
0.000708122
2.90122e-11
0.000731834
4.60855e-11
0.00202822
2.42445e-10
1.58459e-13
0.00202879
-4.33269e-09
1.34456e-13
0.00203008
1.36448e-08
4.24816e-13
0.00203029
3.07703e-08
5.05841e-13
0.00202858
7.69606e-08
4.79615e-13
0.00202039
2.30992e-07
2.59904e-13
0.00199432
7.18324e-07
-4.74939e-13
0.00191423
2.44709e-06
-3.36773e-12
0.00173
9.90764e-06
-1.53233e-11
0.00111681
5.98984e-05
-8.30314e-11
-0.00262779
0.000699212
-5.01599e-10
-0.00370396
0.00204301
3.43924e-10
-0.00329492
0.00139039
9.69223e-11
-0.00285474
0.00122259
-9.75132e-11
-0.00229549
0.00111371
-4.92531e-11
-0.00189845
0.00100206
2.7239e-11
-0.00159303
0.000993081
3.81793e-12
-0.00135738
0.00102105
-4.27327e-11
-0.00115198
0.00102133
-7.38981e-11
-0.00097388
0.00101744
-9.7451e-11
-0.000819819
0.00102392
-1.01587e-10
-0.000663027
0.00102886
-7.22032e-11
-0.000485237
0.00103195
-3.05098e-11
-0.000266993
0.00106101
2.1936e-11
0.00110023
3.92633e-11
0.00202824
2.92147e-10
6.13088e-13
0.00202872
-4.39047e-09
4.45058e-13
0.00203021
1.52643e-08
1.12993e-12
0.00203062
3.50595e-08
1.10299e-12
0.00202917
9.2054e-08
7.41345e-13
0.00202186
2.73909e-07
3.42039e-13
0.00199835
8.50576e-07
-9.23854e-13
0.00192526
2.8505e-06
-5.40041e-12
0.0017486
1.13385e-05
-2.31976e-11
0.00118744
6.65466e-05
-1.24151e-10
-0.00210225
0.000737115
-7.11624e-10
-0.0037046
0.00275749
1.15147e-09
-0.00328106
0.00187435
9.14703e-11
-0.00281294
0.00163353
-1.27173e-10
-0.00225824
0.00149681
-1.89286e-12
-0.00184006
0.00134187
7.04071e-11
-0.0015281
0.00132456
2.07788e-11
-0.00129271
0.00135725
-6.73322e-11
-0.00108913
0.00136218
-9.13362e-11
-0.0009172
0.00135761
-9.61474e-11
-0.000770572
0.00136561
-1.11556e-10
-0.000623326
0.00137024
-8.65032e-11
-0.000457131
0.00137254
-4.3584e-11
-0.000251986
0.00141341
8.89839e-12
0.00147256
2.66497e-11
0.00202827
-6.62546e-10
7.87884e-14
0.00202864
-4.36476e-09
8.24537e-14
0.00203037
1.79276e-08
4.16602e-13
0.00203111
4.10687e-08
4.06644e-13
0.0020298
1.0467e-07
2.59457e-13
0.00202349
3.0354e-07
5.71215e-15
0.00200309
9.34353e-07
-1.29371e-12
0.00193962
3.0483e-06
-6.38387e-12
0.00177576
1.16626e-05
-3.37023e-11
0.00129619
6.44064e-05
-2.6304e-10
-0.00138986
0.000648275
-2.23314e-09
-0.00382541
0.00341611
2.45476e-09
-0.00326768
0.00241033
3.47819e-10
-0.00276499
0.00205385
-1.71495e-10
-0.002218
0.00189021
-1.63713e-10
-0.00176967
0.00168847
2.59146e-11
-0.00144703
0.0016556
2.33793e-11
-0.00120876
0.00168846
-9.15831e-11
-0.00100505
0.00170376
-1.46306e-10
-0.000840051
0.00169781
-1.1177e-10
-0.000703363
0.00170501
-1.74847e-10
-0.000568828
0.00171047
-1.4715e-10
-0.000416963
0.00171178
-5.71961e-11
-0.000228463
0.00176746
-6.49625e-12
0.00185049
1.20611e-11
0.00202829
-5.09918e-10
1.26591e-12
0.00202856
-4.29627e-09
4.55808e-13
0.00203055
1.63256e-08
1.8399e-12
0.0020315
3.77454e-08
1.76575e-12
0.00203056
1.01595e-07
2.4857e-12
0.00202563
3.01004e-07
3.168e-12
0.0020081
9.35444e-07
5.25752e-12
0.00195311
3.01946e-06
5.50648e-12
0.00181007
1.11917e-05
1.04087e-11
0.00143906
5.69473e-05
3.62933e-11
-0.000688179
0.000496168
2.82274e-10
-0.00405751
0.00382871
6.32011e-10
-0.00323239
0.00305431
-2.35099e-10
-0.00270943
0.00248107
1.67634e-10
-0.00217256
0.00228903
2.48511e-10
-0.00168629
0.00204481
8.35351e-11
-0.00135135
0.00198628
-4.21934e-11
-0.00110611
0.0020123
-1.9937e-10
-0.000899505
0.00204627
-2.08898e-10
-0.000742353
0.00203927
-1.84124e-10
-0.00061716
0.00204464
-2.04661e-10
-0.000497269
0.00205246
-1.81476e-10
-0.000361435
0.0020508
-1.14321e-10
-0.000194609
0.00212205
-1.9673e-11
0.00224055
-4.47748e-12
0.00202832
-7.40849e-10
6.87674e-14
0.00202848
-4.07839e-09
-3.68439e-14
0.00203071
1.02746e-08
8.49332e-13
0.00203201
2.61121e-08
9.90785e-13
0.00203134
8.1547e-08
1.49083e-12
0.00202783
2.63169e-07
2.65955e-12
0.00201315
8.54949e-07
5.72132e-12
0.00196647
2.79055e-06
1.35538e-11
0.00184074
1.01688e-05
3.99402e-11
0.00154732
4.83694e-05
1.63147e-10
-2.13989e-05
0.000370053
8.34726e-10
-0.00394478
0.00377701
-5.48846e-10
-0.00317714
0.00383639
-1.49187e-09
-0.00264077
0.00292076
7.27359e-10
-0.00212546
0.00268705
5.13469e-10
-0.00159338
0.0024239
1.40386e-11
-0.00124095
0.00231622
-1.05757e-10
-0.000984073
0.002326
-2.73261e-10
-0.000771383
0.00238666
-2.5512e-10
-0.000620049
0.00238051
-2.31573e-10
-0.000508352
0.00238108
-2.37272e-10
-0.000406376
0.00239477
-2.07898e-10
-0.000287703
0.00238993
-1.48813e-10
-0.000144941
0.0024776
-5.30136e-11
0.00265755
-1.98095e-11
0.00202834
-1.82917e-10
9.45893e-13
0.00202841
-1.46301e-09
5.37611e-13
0.00203086
5.30334e-09
1.82997e-12
0.00203251
1.55684e-08
1.97428e-12
0.00203223
5.85858e-08
2.29918e-12
0.0020299
2.09351e-07
3.16259e-12
0.00201808
7.2343e-07
5.55501e-12
0.00197952
2.43787e-06
1.12985e-11
0.00187254
8.82215e-06
3.02406e-11
0.00163104
3.90996e-05
1.18468e-10
0.000551283
0.000270254
6.32122e-10
-0.0036569
0.00331666
1.674e-09
-0.00312204
0.00479326
-2.2381e-09
-0.00255998
0.00339157
3.39631e-10
-0.00206429
0.00307447
3.10683e-10
-0.00149542
0.00282405
3.17495e-11
-0.0011184
0.00263987
-1.05197e-10
-0.000843104
0.00263227
-2.90726e-10
-0.00062044
0.00272109
-2.79181e-10
-0.000471055
0.00272044
-2.6239e-10
-0.000370495
0.00270985
-2.8045e-10
-0.000285312
0.00273178
-2.31804e-10
-0.000189647
0.00272759
-1.75571e-10
-7.05072e-05
0.00282785
-7.69169e-11
0.00311227
-5.30214e-11
0.00202835
6.17513e-11
1.21278e-13
0.00202836
-4.79548e-11
7.65188e-14
0.00203102
1.79173e-09
4.42264e-13
0.00203293
6.89882e-09
5.16967e-13
0.00203313
3.60584e-08
8.13719e-13
0.00203191
1.47833e-07
1.38195e-12
0.00202347
5.64281e-07
2.63626e-12
0.00199261
2.00679e-06
5.54732e-12
0.00190093
7.25808e-06
1.46862e-11
0.00170254
3.05908e-05
5.16624e-11
0.00105069
0.000196751
2.42594e-10
-0.00278363
0.00240281
1.23478e-09
-0.00306723
0.00588228
-1.48112e-09
-0.00249526
0.00390957
2.4065e-10
-0.00198929
0.00345458
1.59527e-10
-0.00139752
0.00322899
-4.74078e-12
-0.000986269
0.00295341
-1.63565e-10
-0.00068516
0.00293662
-2.46206e-10
-0.000446046
0.00304411
-2.61278e-10
-0.000292883
0.00305721
-2.65465e-10
-0.000199401
0.00302903
-3.28081e-10
-0.0001241
0.00305911
-2.58691e-10
-5.91375e-05
0.00307298
-2.0448e-10
3.89226e-05
0.00314951
-1.07943e-10
0.00365076
-6.44248e-11
0.00202836
9.68587e-13
6.00394e-10
0.00202833
6.51572e-13
6.99459e-10
0.00203113
1.71306e-12
4.72283e-10
0.00203325
1.83596e-12
2.34956e-09
0.00203394
1.9875e-12
1.84369e-08
0.00203386
2.32473e-12
9.00815e-08
0.00202873
3.2075e-12
4.05738e-07
0.00200548
4.63789e-12
1.55666e-06
0.00193453
8.71775e-12
5.62685e-06
0.00176235
2.40146e-11
2.25833e-05
0.00124094
9.25197e-11
0.00013149
-0.00150003
4.15108e-10
0.00140403
-0.00305645
-5.61949e-10
0.00694695
-0.00246901
2.2527e-10
0.00453856
-0.00190268
2.97283e-12
0.00385193
-0.00129999
-6.91048e-11
0.00361851
-0.000843359
-5.96137e-11
0.00328472
-0.000511503
-1.07598e-10
0.0032421
-0.000250557
-2.00688e-10
0.00334118
-8.79598e-05
-3.00064e-10
0.00338536
-4.37596e-06
-3.78993e-10
0.00334359
8.81116e-05
-2.73123e-10
0.00336091
0.0001445
-2.20088e-10
0.00340701
0.000199029
-1.32778e-10
0.0034669
-7.71748e-11
0.00429598
0.0020282
1.13945e-10
1.09991e-13
0.00202885
-1.47626e-09
5.62045e-14
0.00202994
5.73237e-09
3.94308e-13
0.00203
1.26584e-08
4.2551e-13
0.00202791
3.01906e-08
5.05647e-13
0.00201875
8.60326e-08
6.62547e-13
0.00199019
2.63151e-07
9.6343e-13
0.00190408
8.90682e-07
1.44338e-12
0.0017124
3.63973e-06
3.33562e-12
0.00106997
2.26514e-05
8.6501e-12
-0.00317179
0.00029294
2.60063e-11
-0.003726
0.000669467
-2.29473e-11
-0.0033099
0.000455884
3.31233e-11
-0.00289472
0.000407413
6.21994e-11
-0.00233723
0.000368118
7.77437e-11
-0.00196186
0.000333199
7.02722e-11
-0.00166285
0.000330282
2.98428e-12
-0.00142328
0.000340523
-8.31951e-11
-0.00121403
0.000339834
-1.37252e-10
-0.00102743
0.000338196
-1.82536e-10
-0.0008656
0.000341118
-2.06923e-10
-0.000697855
0.000342383
-2.13471e-10
-0.0005056
0.000342653
-2.23043e-10
-0.000278179
0.000355066
-2.05614e-10
0.000365021
-1.76183e-10
0.00202821
1.96781e-10
6.60485e-14
0.00202883
-2.81395e-09
3.6771e-14
0.00202999
1.04895e-08
3.67657e-13
0.00203009
2.35808e-08
4.00483e-13
0.00202813
5.70058e-08
4.82046e-13
0.00201926
1.66224e-07
6.21509e-13
0.00199141
5.16314e-07
8.76618e-13
0.00190683
1.76542e-06
1.19317e-12
0.0017174
7.27097e-06
2.42631e-12
0.00108535
4.5034e-05
4.31048e-12
-0.00299543
0.000549284
-6.41237e-12
-0.00370586
0.00132889
5.22665e-11
-0.00330415
0.000929104
2.48609e-11
-0.00288209
0.000817431
7.15813e-11
-0.00232252
0.00073878
9.37846e-11
-0.00193886
0.000666225
8.03672e-11
-0.001638
0.000661301
1.4973e-11
-0.00140034
0.000681491
-6.68982e-11
-0.00119226
0.000680411
-1.2579e-10
-0.00100908
0.000677765
-1.72045e-10
-0.000850275
0.000682369
-1.90444e-10
-0.000686855
0.000685087
-1.99862e-10
-0.000500767
0.000687288
-2.14226e-10
-0.000274842
0.000708095
-2.02252e-10
0.000731807
-1.79826e-10
0.00202822
3.65561e-10
1.58544e-13
0.00202879
-4.16217e-09
9.87808e-14
0.00203008
1.39162e-08
4.19976e-13
0.00203029
3.11149e-08
4.47801e-13
0.00202857
7.7365e-08
5.27169e-13
0.00202038
2.31348e-07
6.74745e-13
0.00199432
7.18494e-07
9.31989e-13
0.00191421
2.44617e-06
1.70565e-12
0.00172999
9.90201e-06
4.25639e-12
0.00111679
5.98649e-05
1.42776e-11
-0.00262808
0.000698956
6.22893e-11
-0.00370366
0.00204273
3.72223e-11
-0.00329502
0.00139084
3.41767e-11
-0.00285498
0.00122289
6.18355e-11
-0.00229572
0.00111382
8.41526e-11
-0.00189866
0.00100196
8.56151e-11
-0.00159313
0.000992889
3.28922e-11
-0.00135739
0.00102088
-2.00809e-11
-0.00115192
0.00102121
-8.50434e-11
-0.000973779
0.00101734
-1.31952e-10
-0.000819703
0.00102385
-1.61123e-10
-0.000662934
0.0010288
-1.76839e-10
-0.000485181
0.0010319
-2.01511e-10
-0.000266964
0.00106098
-1.93379e-10
0.00110019
-1.86366e-10
0.00202824
2.97106e-10
8.61101e-14
0.00202872
-4.52693e-09
5.30729e-14
0.00203021
1.50658e-08
2.9884e-13
0.00203062
3.4811e-08
3.66263e-13
0.00202917
9.17044e-08
5.11903e-13
0.00202186
2.73626e-07