/*--------------------------------*- C++ -*----------------------------------*\
| =========                 |                                                 |
| \\      /  F ield         | OpenFOAM: The Open Source CFD Toolbox           |
|  \\    /   O peration     | Version:  4.1                                   |
|   \\  /    A nd           | Web:      www.OpenFOAM.org                      |
|    \\/     M anipulation  |                                                 |
\*---------------------------------------------------------------------------*/
FoamFile
{
    version     2.0;
    format      ascii;
    class       volScalarField;
    location    "0.4";
    object      T;
}
// * * * * * * * * * * * * * * * * * * * * * * * * * * * * * * * * * * * * * //

dimensions      [0 0 0 1 0 0 0];

internalField   nonuniform List<scalar> 
52500
(
0.336198
0.316765
0.317093
0.317584
0.318685
0.321226
0.327708
0.347345
0.426301
0.79527
1.64983
1.64437
1.36675
1.3402
1.42308
1.5045
1.50197
1.43826
1.4034
1.38665
1.35654
1.32281
1.29272
1.25641
1.18969
0.336198
0.316766
0.317087
0.317573
0.318659
0.321153
0.327487
0.346577
0.422837
0.782538
1.63446
1.65453
1.3679
1.33857
1.41802
1.50384
1.50329
1.43983
1.40361
1.38689
1.35654
1.32287
1.29255
1.25639
1.18804
0.336199
0.316767
0.317074
0.317552
0.318606
0.321007
0.327032
0.34494
0.4152
0.752357
1.59049
1.67388
1.36841
1.33533
1.40777
1.50145
1.50413
1.44217
1.40379
1.38718
1.35687
1.32344
1.29296
1.25647
1.18652
0.3362
0.316769
0.317059
0.317519
0.318528
0.320805
0.326395
0.342666
0.404742
0.707439
1.51504
1.70103
1.37048
1.33067
1.39404
1.49653
1.50403
1.44507
1.40335
1.3869
1.35656
1.32305
1.29255
1.25524
1.18238
0.336201
0.31677
0.317047
0.317476
0.31844
0.320572
0.325651
0.340031
0.392606
0.649465
1.39819
1.7344
1.37466
1.32352
1.3726
1.4864
1.50204
1.44847
1.4022
1.38595
1.356
1.32264
1.2913
1.25153
1.17589
0.336204
0.316772
0.317028
0.317439
0.318348
0.3203
0.32484
0.337336
0.380615
0.584471
1.24498
1.76689
1.38748
1.31708
1.34972
1.47259
1.49869
1.45246
1.39978
1.38315
1.35364
1.32085
1.28916
1.24741
1.17069
0.336208
0.316775
0.317016
0.317399
0.31826
0.320025
0.324021
0.334672
0.369614
0.527489
1.09736
1.77523
1.4181
1.31001
1.32455
1.45143
1.49267
1.45792
1.39692
1.37932
1.35029
1.31553
1.28343
1.24244
1.15674
0.336209
0.316776
0.317011
0.31736
0.318186
0.319756
0.32323
0.332158
0.359844
0.477236
0.963189
1.74523
1.4693
1.30137
1.30148
1.42249
1.4835
1.46417
1.39477
1.37361
1.34659
1.31234
1.27898
1.23214
1.14561
0.336211
0.316777
0.317005
0.317331
0.318135
0.319503
0.322496
0.329883
0.351504
0.436862
0.825944
1.64152
1.54424
1.29469
1.27986
1.38153
1.47076
1.46636
1.39466
1.36735
1.34332
1.30764
1.27175
1.2262
1.11355
0.336211
0.316777
0.317003
0.317311
0.3181
0.319287
0.321854
0.327947
0.3445
0.403935
0.691291
1.44892
1.62512
1.2963
1.25937
1.33317
1.45327
1.46491
1.39795
1.36074
1.33719
1.30129
1.25849
1.2148
1.08467
0.3362
0.316766
0.317095
0.317586
0.318688
0.32123
0.327718
0.347373
0.426428
0.795781
1.65071
1.64428
1.36683
1.34028
1.42314
1.50449
1.50195
1.43822
1.40336
1.38661
1.3565
1.32276
1.29265
1.25635
1.18971
0.3362
0.316767
0.317088
0.317575
0.318661
0.321156
0.327494
0.346598
0.422925
0.782852
1.63474
1.65476
1.368
1.33855
1.41786
1.50384
1.5033
1.43979
1.40358
1.38685
1.3565
1.32282
1.29249
1.25634
1.18804
0.336201
0.316768
0.317076
0.317554
0.318609
0.321012
0.327045
0.344981
0.415375
0.753062
1.59178
1.67319
1.3685
1.33563
1.40839
1.50152
1.50407
1.44211
1.40377
1.38715
1.35683
1.3234
1.2929
1.25642
1.18652
0.336201
0.316769
0.31706
0.31752
0.318529
0.320807
0.326403
0.342695
0.404864
0.707917
1.51553
1.70059
1.37041
1.33067
1.39407
1.49652
1.50397
1.44503
1.40334
1.38688
1.35652
1.32299
1.29249
1.25519
1.18241
0.336202
0.316771
0.317047
0.317478
0.318441
0.320574
0.325658
0.340058
0.392729
0.650138
1.39977
1.73364
1.37477
1.32405
1.37323
1.48659
1.502
1.44842
1.4022
1.38594
1.35596
1.32257
1.2912
1.25148
1.17597
0.336204
0.316772
0.317028
0.317438
0.318347
0.3203
0.324843
0.337346
0.380667
0.584779
1.24586
1.76649
1.38764
1.31761
1.35034
1.47298
1.49879
1.45234
1.39978
1.38315
1.3536
1.32076
1.28906
1.24736
1.1708
0.336208
0.316775
0.317017
0.317397
0.318259
0.320025
0.324021
0.334671
0.369618
0.527549
1.09753
1.77518
1.41816
1.30991
1.32429
1.45123
1.49262
1.45793
1.39694
1.37934
1.35026
1.31545
1.28333
1.24239
1.15687
0.33621
0.316776
0.317011
0.317357
0.318184
0.319754
0.323227
0.33215
0.35983
0.477212
0.963157
1.7452
1.46929
1.30103
1.30107
1.42199
1.48337
1.46425
1.39479
1.37361
1.34657
1.31224
1.27887
1.23208
1.14575
0.336211
0.316777
0.317005
0.317329
0.318133
0.319501
0.322493
0.329876
0.35149
0.43683
0.825869
1.64151
1.54436
1.29453
1.27961
1.38136
1.47079
1.46641
1.39469
1.36741
1.34332
1.3076
1.27167
1.22613
1.11368
0.33621
0.316776
0.317002
0.317308
0.318095
0.319283
0.321849
0.327938
0.344484
0.403897
0.691188
1.44891
1.62537
1.29623
1.25912
1.33284
1.4532
1.46495
1.398
1.36074
1.33719
1.30125
1.25841
1.2147
1.08481
0.336199
0.316766
0.317094
0.317584
0.318686
0.321228
0.327715
0.347367
0.426405
0.795669
1.65041
1.6441
1.36685
1.34036
1.42324
1.50452
1.50193
1.43821
1.40338
1.38663
1.35651
1.32277
1.29266
1.25636
1.18972
0.336199
0.316766
0.317088
0.317574
0.31866
0.321155
0.327492
0.346594
0.422909
0.782794
1.63475
1.65445
1.36798
1.33865
1.41809
1.50386
1.50327
1.4398
1.40359
1.38687
1.35652
1.32283
1.2925
1.25634
1.18805
0.3362
0.316767
0.317075
0.317552
0.318606
0.321008
0.327036
0.344954
0.415267
0.752633
1.59089
1.67376
1.36841
1.33533
1.40788
1.50148
1.50411
1.44215
1.40378
1.38717
1.35685
1.32341
1.29291
1.25643
1.18652
0.336201
0.316769
0.31706
0.317519
0.318529
0.320805
0.326397
0.342677
0.404791
0.707642
1.5153
1.70097
1.37045
1.33061
1.39401
1.49653
1.50403
1.44506
1.40335
1.38689
1.35653
1.32301
1.2925
1.25519
1.18241
0.336201
0.31677
0.317047
0.317475
0.318439
0.320571
0.325652
0.340036
0.392642
0.649682
1.39864
1.73428
1.37458
1.32344
1.3724
1.48635
1.50204
1.44851
1.40221
1.38595
1.35597
1.32258
1.2912
1.25148
1.17598
0.336205
0.316773
0.317028
0.317439
0.318347
0.3203
0.324841
0.337341
0.380643
0.584635
1.24552
1.76674
1.38745
1.31727
1.35004
1.47286
1.4988
1.45242
1.39979
1.38316
1.35361
1.32077
1.28906
1.24736
1.1708
0.336207
0.316774
0.317016
0.317396
0.318257
0.320024
0.32402
0.334669
0.369617
0.527552
1.09752
1.77525
1.41815
1.31006
1.32455
1.45145
1.49268
1.45794
1.39694
1.37935
1.35027
1.31545
1.28332
1.24239
1.15687
0.33621
0.316776
0.317011
0.317358
0.318185
0.319755
0.323229
0.332155
0.359843
0.477261
0.963289
1.74528
1.46921
1.30129
1.30141
1.42241
1.48347
1.46422
1.39479
1.37362
1.34657
1.31224
1.27886
1.23207
1.14574
0.33621
0.316776
0.317005
0.317328
0.318132
0.3195
0.322492
0.329876
0.351495
0.436862
0.82598
1.64159
1.54425
1.29468
1.27982
1.38159
1.47081
1.46639
1.39468
1.36742
1.34332
1.3076
1.27166
1.22612
1.11368
0.336211
0.316776
0.317003
0.317309
0.318096
0.319284
0.32185
0.327941
0.344491
0.403921
0.691274
1.44895
1.62524
1.29627
1.2592
1.33303
1.45334
1.46495
1.39799
1.36074
1.3372
1.30125
1.2584
1.21469
1.0848
0.336199
0.316765
0.317094
0.317584
0.318686
0.321227
0.327714
0.347367
0.42641
0.795701
1.65047
1.64411
1.36684
1.34034
1.42325
1.50453
1.50193
1.43822
1.40338
1.38664
1.35652
1.32278
1.29266
1.25635
1.18971
0.336199
0.316766
0.317087
0.317573
0.318659
0.321154
0.327491
0.346593
0.422913
0.782817
1.63477
1.65448
1.36797
1.33864
1.41808
1.50386
1.50327
1.4398
1.4036
1.38688
1.35653
1.32284
1.2925
1.25634
1.18804
0.3362
0.316767
0.317074
0.317552
0.318606
0.321008
0.327036
0.344956
0.415278
0.752672
1.59092
1.67375
1.36844
1.33537
1.40792
1.50149
1.50411
1.44215
1.40379
1.38718
1.35686
1.32342
1.29292
1.25643
1.18652
0.3362
0.316769
0.317059
0.317519
0.318528
0.320804
0.326397
0.342679
0.404805
0.707703
1.51536
1.70084
1.37039
1.33056
1.39394
1.49651
1.50402
1.44508
1.40335
1.3869
1.35654
1.32302
1.2925
1.25519
1.18241
0.336201
0.31677
0.317047
0.317475
0.318438
0.320571
0.325653
0.34004
0.392665
0.649841
1.39912
1.73405
1.37471
1.32375
1.37283
1.48651
1.50206
1.44847
1.40222
1.38596
1.35599
1.32259
1.29121
1.25148
1.17598
0.336204
0.316772
0.317028
0.317437
0.318346
0.320299
0.324839
0.337336
0.380631
0.584613
1.24541
1.76679
1.38758
1.3173
1.35002
1.47291
1.49881
1.45242
1.3998
1.38317
1.35362
1.32078
1.28906
1.24736
1.1708
0.336207
0.316774
0.317016
0.317396
0.318257
0.320023
0.324018
0.334663
0.369598
0.527474
1.09739
1.77531
1.41816
1.30974
1.32412
1.45117
1.49265
1.45799
1.39695
1.37936
1.35028
1.31546
1.28333
1.24239
1.15687
0.336209
0.316775
0.31701
0.317357
0.318183
0.319753
0.323226
0.332148
0.359825
0.477199
0.963138
1.74532
1.46939
1.3011
1.30108
1.42209
1.48344
1.46428
1.39481
1.37363
1.34659
1.31225
1.27887
1.23208
1.14575
0.33621
0.316776
0.317004
0.317328
0.318131
0.319499
0.322491
0.329874
0.351488
0.436837
0.825911
1.64163
1.54437
1.29459
1.27971
1.38153
1.47086
1.46644
1.3947
1.36743
1.34334
1.30761
1.27167
1.22613
1.11368
0.33621
0.316776
0.317002
0.317308
0.318094
0.319282
0.321848
0.327937
0.344484
0.403906
0.691234
1.44897
1.62533
1.29625
1.25921
1.33299
1.45329
1.46499
1.39801
1.36076
1.33722
1.30127
1.25842
1.2147
1.08481
0.336199
0.316765
0.317094
0.317584
0.318686
0.321227
0.327713
0.347366
0.426408
0.795698
1.65048
1.64413
1.36685
1.34034
1.42321
1.50449
1.50192
1.43823
1.40339
1.38664
1.35653
1.32279
1.29268
1.25637
1.18972
0.336199
0.316766
0.317087
0.317573
0.318659
0.321154
0.327491
0.346592
0.422912
0.782816
1.63479
1.6545
1.36799
1.33865
1.41805
1.50383
1.50326
1.43981
1.4036
1.38688
1.35653
1.32284
1.29251
1.25635
1.18806
0.336199
0.316767
0.317074
0.317552
0.318605
0.321007
0.327035
0.344954
0.415275
0.752667
1.59092
1.67377
1.36845
1.33537
1.40788
1.50146
1.50409
1.44215
1.40378
1.38717
1.35686
1.32342
1.29292
1.25644
1.18654
0.3362
0.316769
0.317059
0.317519
0.318527
0.320804
0.326396
0.342677
0.404801
0.707692
1.51536
1.70086
1.37039
1.33055
1.39393
1.49649
1.504
1.44506
1.40335
1.3869
1.35654
1.32302
1.29253
1.25521
1.1824
0.336201
0.31677
0.317047
0.317475
0.318438
0.320571
0.325652
0.340038
0.39266
0.649814
1.39906
1.73408
1.37471
1.32375
1.37283
1.48649
1.50204
1.44846
1.40221
1.38597
1.35601
1.32263
1.29128
1.25151
1.17586
0.336204
0.316772
0.317028
0.317437
0.318345
0.320298
0.324838
0.337334
0.380625
0.584585
1.24532
1.76682
1.3876
1.31729
1.34999
1.47288
1.49879
1.4524
1.3998
1.38319
1.35367
1.32087
1.28916
1.24738
1.17065
0.336207
0.316774
0.317016
0.317396
0.318256
0.320023
0.324017
0.334661
0.369592
0.527446
1.09733
1.77531
1.41819
1.30975
1.32411
1.45115
1.49262
1.45797
1.39695
1.37937
1.35033
1.31557
1.28345
1.24244
1.15672
0.336209
0.316775
0.31701
0.317357
0.318183
0.319753
0.323225
0.332147
0.359821
0.477177
0.96307
1.7453
1.46943
1.3011
1.30108
1.42204
1.48339
1.46426
1.3948
1.37363
1.34663
1.31234
1.27898
1.23214
1.14561
0.33621
0.316776
0.317004
0.317328
0.318131
0.319499
0.322491
0.329873
0.351485
0.436821
0.825855
1.64157
1.54442
1.29459
1.2797
1.38148
1.47083
1.46641
1.39469
1.36742
1.34336
1.30767
1.27175
1.2262
1.11359
0.33621
0.316776
0.317002
0.317308
0.318094
0.319282
0.321847
0.327936
0.344482
0.403895
0.691192
1.44893
1.62537
1.29626
1.25921
1.33294
1.45322
1.46496
1.39799
1.36075
1.33722
1.30129
1.25846
1.21476
1.08473
0.336199
0.316765
0.317094
0.317584
0.318686
0.321228
0.327714
0.347368
0.426415
0.795718
1.6505
1.6441
1.36684
1.34035
1.42325
1.50453
1.50194
1.43822
1.40339
1.38664
1.35653
1.32278
1.29267
1.25636
1.18972
0.336199
0.316766
0.317087
0.317573
0.318659
0.321154
0.327492
0.346594
0.422916
0.782828
1.63479
1.65447
1.36797
1.33864
1.41808
1.50387
1.50327
1.43981
1.4036
1.38689
1.35653
1.32284
1.29251
1.25635
1.18805
0.3362
0.316767
0.317074
0.317552
0.318606
0.321008
0.327036
0.344956
0.41528
0.752681
1.59093
1.67374
1.36844
1.33537
1.40791
1.50149
1.50411
1.44215
1.40379
1.38718
1.35687
1.32342
1.29292
1.25643
1.18652
0.3362
0.316769
0.317059
0.317519
0.318528
0.320804
0.326397
0.342679
0.404806
0.707706
1.51537
1.70083
1.37039
1.33056
1.39394
1.49651
1.50402
1.44508
1.40336
1.3869
1.35655
1.32302
1.29251
1.2552
1.18241
0.336201
0.31677
0.317047
0.317475
0.318438
0.320571
0.325653
0.34004
0.392664
0.649834
1.3991
1.73404
1.3747
1.32375
1.37283
1.4865
1.50206
1.44847
1.40222
1.38596
1.35599
1.32259
1.29121
1.25149
1.17598
0.336204
0.316772
0.317028
0.317437
0.318346
0.320299
0.324839
0.337336
0.380629
0.584599
1.24535
1.76679
1.38758
1.31729
1.35
1.4729
1.49881
1.45242
1.3998
1.38317
1.35362
1.32078
1.28907
1.24737
1.1708
0.336207
0.316774
0.317016
0.317396
0.318257
0.320023
0.324017
0.334663
0.369595
0.527457
1.09735
1.7753
1.41816
1.30973
1.32411
1.45117
1.49266
1.45798
1.39695
1.37936
1.35028
1.31546
1.28333
1.24239
1.15687
0.336209
0.316776
0.317011
0.317357
0.318183
0.319753
0.323226
0.332147
0.359822
0.477183
0.963083
1.74529
1.46941
1.30108
1.30106
1.42207
1.48344
1.46428
1.3948
1.37362
1.34658
1.31225
1.27887
1.23208
1.14575
0.33621
0.316776
0.317005
0.317328
0.318132
0.3195
0.322491
0.329874
0.351487
0.436825
0.825863
1.64157
1.5444
1.29457
1.2797
1.38151
1.47086
1.46644
1.3947
1.36742
1.34333
1.30761
1.27167
1.22613
1.11368
0.33621
0.316776
0.317002
0.317308
0.318095
0.319282
0.321848
0.327937
0.344483
0.403898
0.691197
1.44893
1.62535
1.29624
1.2592
1.33296
1.45327
1.46498
1.398
1.36075
1.33721
1.30126
1.25842
1.2147
1.08481
0.336199
0.316765
0.317094
0.317584
0.318686
0.321227
0.327714
0.347367
0.42641
0.795701
1.65047
1.64411
1.36684
1.34034
1.42325
1.50453
1.50193
1.43822
1.40338
1.38664
1.35652
1.32278
1.29266
1.25635
1.18971
0.336199
0.316766
0.317087
0.317573
0.318659
0.321154
0.327491
0.346593
0.422913
0.782817
1.63477
1.65448
1.36797
1.33864
1.41808
1.50386
1.50327
1.4398
1.4036
1.38688
1.35653
1.32284
1.2925
1.25634
1.18804
0.3362
0.316767
0.317074
0.317552
0.318606
0.321008
0.327036
0.344956
0.415278
0.752672
1.59092
1.67375
1.36844
1.33537
1.40792
1.50149
1.50411
1.44215
1.40379
1.38718
1.35686
1.32342
1.29292
1.25643
1.18652
0.3362
0.316769
0.317059
0.317519
0.318528
0.320804
0.326397
0.342679
0.404805
0.707703
1.51536
1.70084
1.37039
1.33056
1.39394
1.49651
1.50402
1.44508
1.40335
1.3869
1.35654
1.32302
1.2925
1.25519
1.18241
0.336201
0.31677
0.317047
0.317475
0.318438
0.320571
0.325653
0.34004
0.392665
0.649841
1.39912
1.73405
1.37471
1.32375
1.37283
1.48651
1.50206
1.44847
1.40222
1.38596
1.35599
1.32259
1.29121
1.25148
1.17598
0.336204
0.316772
0.317028
0.317437
0.318346
0.320299
0.324839
0.337336
0.380631
0.584613
1.24541
1.76679
1.38758
1.3173
1.35002
1.47291
1.49881
1.45242
1.3998
1.38317
1.35362
1.32078
1.28906
1.24736
1.1708
0.336207
0.316774
0.317016
0.317396
0.318257
0.320023
0.324018
0.334663
0.369598
0.527474
1.09739
1.77531
1.41816
1.30974
1.32412
1.45117
1.49265
1.45799
1.39695
1.37936
1.35028
1.31546
1.28333
1.24239
1.15687
0.336209
0.316775
0.31701
0.317357
0.318183
0.319753
0.323226
0.332148
0.359825
0.477199
0.963138
1.74532
1.46939
1.3011
1.30108
1.42209
1.48344
1.46428
1.39481
1.37363
1.34659
1.31225
1.27887
1.23208
1.14575
0.33621
0.316776
0.317004
0.317328
0.318131
0.319499
0.322491
0.329874
0.351488
0.436837
0.825911
1.64163
1.54437
1.29459
1.27971
1.38153
1.47086
1.46644
1.3947
1.36743
1.34334
1.30761
1.27167
1.22613
1.11368
0.33621
0.316776
0.317002
0.317308
0.318094
0.319282
0.321848
0.327937
0.344484
0.403906
0.691234
1.44897
1.62533
1.29625
1.25921
1.33299
1.45329
1.46499
1.39801
1.36076
1.33722
1.30127
1.25842
1.2147
1.08481
0.336199
0.316766
0.317094
0.317584
0.318686
0.321228
0.327715
0.347367
0.426405
0.795669
1.65041
1.6441
1.36685
1.34036
1.42324
1.50452
1.50193
1.43821
1.40338
1.38663
1.35651
1.32277
1.29266
1.25636
1.18972
0.336199
0.316766
0.317088
0.317574
0.31866
0.321155
0.327492
0.346594
0.422909
0.782794
1.63475
1.65445
1.36798
1.33865
1.41809
1.50386
1.50327
1.4398
1.40359
1.38687
1.35652
1.32283
1.2925
1.25634
1.18805
0.3362
0.316767
0.317075
0.317552
0.318606
0.321008
0.327036
0.344954
0.415267
0.752633
1.59089
1.67376
1.36841
1.33533
1.40788
1.50148
1.50411
1.44215
1.40378
1.38717
1.35685
1.32341
1.29291
1.25643
1.18652
0.336201
0.316769
0.31706
0.317519
0.318529
0.320805
0.326397
0.342677
0.404791
0.707642
1.5153
1.70097
1.37045
1.33061
1.39401
1.49653
1.50403
1.44506
1.40335
1.38689
1.35653
1.32301
1.2925
1.25519
1.18241
0.336201
0.31677
0.317047
0.317475
0.318439
0.320571
0.325652
0.340036
0.392642
0.649682
1.39864
1.73428
1.37458
1.32344
1.3724
1.48635
1.50204
1.44851
1.40221
1.38595
1.35597
1.32258
1.2912
1.25148
1.17598
0.336205
0.316773
0.317028
0.317439
0.318347
0.3203
0.324841
0.337341
0.380643
0.584635
1.24552
1.76674
1.38745
1.31727
1.35004
1.47286
1.4988
1.45242
1.39979
1.38316
1.35361
1.32077
1.28906
1.24736
1.1708
0.336207
0.316774
0.317016
0.317396
0.318257
0.320024
0.32402
0.334669
0.369617
0.527552
1.09752
1.77525
1.41815
1.31006
1.32455
1.45145
1.49268
1.45794
1.39694
1.37935
1.35027
1.31545
1.28332
1.24239
1.15687
0.33621
0.316776
0.317011
0.317358
0.318185
0.319755
0.323229
0.332155
0.359843
0.477262
0.963289
1.74528
1.46921
1.30129
1.30141
1.42241
1.48347
1.46422
1.39479
1.37362
1.34657
1.31224
1.27886
1.23207
1.14574
0.33621
0.316776
0.317005
0.317328
0.318132
0.3195
0.322492
0.329876
0.351495
0.436862
0.825981
1.64159
1.54425
1.29468
1.27982
1.38159
1.47081
1.46639
1.39468
1.36742
1.34332
1.3076
1.27166
1.22612
1.11368
0.336211
0.316776
0.317003
0.317309
0.318096
0.319284
0.32185
0.327941
0.344491
0.403921
0.691274
1.44895
1.62524
1.29627
1.2592
1.33303
1.45334
1.46495
1.39799
1.36074
1.3372
1.30125
1.2584
1.21469
1.0848
0.3362
0.316766
0.317095
0.317586
0.318688
0.32123
0.327718
0.347373
0.426428
0.795781
1.65071
1.64428
1.36683
1.34028
1.42314
1.50449
1.50195
1.43822
1.40336
1.38661
1.3565
1.32276
1.29265
1.25635
1.18971
0.3362
0.316767
0.317088
0.317575
0.318661
0.321156
0.327494
0.346598
0.422925
0.782851
1.63474
1.65476
1.368
1.33855
1.41786
1.50384
1.5033
1.43979
1.40358
1.38685
1.3565
1.32282
1.29249
1.25634
1.18804
0.336201
0.316768
0.317076
0.317554
0.318609
0.321012
0.327045
0.344981
0.415375
0.753062
1.59178
1.67319
1.3685
1.33563
1.40839
1.50152
1.50407
1.44211
1.40377
1.38715
1.35683
1.3234
1.2929
1.25642
1.18652
0.336201
0.316769
0.31706
0.31752
0.318529
0.320807
0.326403
0.342695
0.404864
0.707917
1.51553
1.70059
1.37041
1.33067
1.39407
1.49652
1.50397
1.44503
1.40334
1.38687
1.35652
1.32299
1.29249
1.25519
1.18241
0.336202
0.316771
0.317047
0.317478
0.318441
0.320574
0.325658
0.340058
0.392729
0.650138
1.39977
1.73364
1.37477
1.32405
1.37323
1.48659
1.502
1.44842
1.4022
1.38594
1.35596
1.32257
1.2912
1.25148
1.17597
0.336204
0.316772
0.317028
0.317438
0.318347
0.3203
0.324843
0.337346
0.380667
0.584779
1.24586
1.76649
1.38764
1.31761
1.35034
1.47298
1.49879
1.45234
1.39978
1.38315
1.3536
1.32076
1.28906
1.24736
1.1708
0.336208
0.316775
0.317017
0.317397
0.318259
0.320025
0.324021
0.334671
0.369618
0.527549
1.09753
1.77518
1.41816
1.30991
1.32429
1.45123
1.49262
1.45793
1.39694
1.37934
1.35026
1.31545
1.28333
1.24239
1.15687
0.33621
0.316776
0.317011
0.317357
0.318184
0.319754
0.323227
0.33215
0.35983
0.477212
0.963157
1.7452
1.46929
1.30103
1.30107
1.42199
1.48337
1.46425
1.39479
1.37361
1.34657
1.31224
1.27887
1.23208
1.14575
0.336211
0.316777
0.317005
0.317329
0.318133
0.319501
0.322493
0.329876
0.35149
0.43683
0.825869
1.64151
1.54436
1.29453
1.27961
1.38136
1.47079
1.46641
1.39469
1.36741
1.34332
1.3076
1.27167
1.22613
1.11368
0.33621
0.316776
0.317002
0.317308
0.318095
0.319283
0.321849
0.327938
0.344484
0.403897
0.691188
1.44891
1.62537
1.29623
1.25912
1.33284
1.4532
1.46495
1.398
1.36074
1.33719
1.30125
1.25841
1.2147
1.08481
0.336198
0.316765
0.317094
0.317584
0.318686
0.321226
0.327709
0.347345
0.426302
0.795291
1.64996
1.64428
1.36673
1.34022
1.42314
1.50447
1.50192
1.4382
1.40338
1.38665
1.35659
1.32289
1.29282
1.25642
1.18952
0.336199
0.316766
0.317087
0.317573
0.318659
0.321153
0.327486
0.346572
0.422813
0.782466
1.63438
1.6548
1.36798
1.3386
1.41797
1.50379
1.50327
1.4398
1.4036
1.38689
1.35657
1.32293
1.29263
1.25639
1.1879
0.336199
0.316767
0.317074
0.317552
0.318606
0.321007
0.32703
0.344933
0.415166
0.752184
1.58998
1.67412
1.3683
1.33511
1.40752
1.50137
1.5041
1.44215
1.40378
1.38717
1.35688
1.32347
1.293
1.25647
1.18642
0.336201
0.316769
0.317059
0.31752
0.318529
0.320805
0.326398
0.34268
0.40479
0.707603
1.5154
1.70062
1.37035
1.33073
1.3941
1.49647
1.50398
1.44504
1.40333
1.38687
1.35653
1.32303
1.29255
1.25524
1.18238
0.3362
0.31677
0.317047
0.317476
0.31844
0.320572
0.325653
0.340041
0.392658
0.649793
1.3991
1.73398
1.375
1.32425
1.37349
1.48669
1.50203
1.44837
1.40218
1.38593
1.35597
1.32261
1.29127
1.25153
1.1759
0.336204
0.316772
0.317028
0.317439
0.318348
0.3203
0.32484
0.337335
0.380614
0.584479
1.24491
1.76687
1.38775
1.31728
1.34987
1.47275
1.49875
1.45236
1.39975
1.38314
1.35362
1.32083
1.28914
1.24741
1.1707
0.336207
0.316774
0.317015
0.317398
0.318258
0.320023
0.324017
0.334663
0.369588
0.527384
1.0972
1.77532
1.41815
1.30948
1.32367
1.4507
1.49246
1.45798
1.39691
1.37931
1.35028
1.31552
1.28343
1.24244
1.15675
0.33621
0.316776
0.31701
0.31736
0.318187
0.319756
0.323229
0.332156
0.359838
0.477207
0.963153
1.74537
1.46927
1.3011
1.30113
1.42209
1.48338
1.46422
1.39476
1.37359
1.34659
1.31234
1.27897
1.23214
1.14562
0.33621
0.316776
0.317004
0.317329
0.318133
0.319501
0.322494
0.32988
0.351502
0.436877
0.82603
1.64181
1.54431
1.29475
1.27992
1.38164
1.47087
1.46639
1.39464
1.36735
1.34333
1.30765
1.27176
1.2262
1.11355
0.336211
0.316777
0.317002
0.317311
0.318099
0.319286
0.321853
0.327947
0.344503
0.403952
0.691379
1.4491
1.62523
1.29643
1.25951
1.33341
1.4534
1.46493
1.39791
1.36073
1.3372
1.3013
1.2585
1.2148
1.08467
0.33621
0.316776
0.317005
0.3173
0.318082
0.319109
0.321326
0.326411
0.339133
0.379677
0.565062
1.18035
1.70293
1.32084
1.24394
1.28302
1.42034
1.45892
1.4096
1.35402
1.33109
1.29129
1.24796
1.20417
1.01118
0.33621
0.316776
0.317006
0.317291
0.318075
0.31899
0.320917
0.325193
0.335103
0.363433
0.479864
0.955948
1.69972
1.38989
1.23422
1.24362
1.36294
1.44527
1.42013
1.35232
1.32185
1.28925
1.23352
1.19343
1.01819
0.33621
0.316776
0.317005
0.317284
0.31806
0.318971
0.320567
0.324288
0.332266
0.352427
0.42578
0.760306
1.50412
1.48374
1.23132
1.2156
1.29493
1.42219
1.42143
1.35413
1.31152
1.28424
1.22691
1.19447
1.05369
0.33621
0.316776
0.317003
0.317282
0.318051
0.318986
0.320397
0.323847
0.330219
0.344648
0.39075
0.595644
1.20649
1.57958
1.25357
1.19711
1.2325
1.38451
1.41842
1.36185
1.31037
1.27892
1.21115
1.18878
1.10073
0.33621
0.316777
0.317001
0.317281
0.318046
0.319013
0.320335
0.323591
0.328659
0.339622
0.370207
0.488214
0.942104
1.63323
1.32993
1.18977
1.18924
1.31531
1.40493
1.37296
1.31286
1.28046
1.19772
1.17731
1.13839
0.336211
0.316777
0.317001
0.317282
0.318044
0.319026
0.320302
0.323482
0.327686
0.33625
0.357851
0.428754
0.713654
1.39072
1.41142
1.19855
1.16545
1.2398
1.37669
1.37093
1.32614
1.288
1.20067
1.1663
1.14813
0.33621
0.316777
0.317001
0.317281
0.318041
0.319023
0.320285
0.323514
0.32732
0.333775
0.350346
0.396511
0.55804
1.05412
1.48878
1.24892
1.15619
1.17179
1.31601
1.3652
1.34253
1.30367
1.21207
1.16879
1.14927
0.336211
0.316777
0.317001
0.317282
0.318042
0.319019
0.320286
0.323469
0.327369
0.332266
0.346324
0.379414
0.470321
0.788564
1.42049
1.29628
1.1616
1.12797
1.24063
1.35355
1.34218
1.31898
1.23595
1.17623
1.15156
0.336211
0.316777
0.317001
0.317282
0.318042
0.319018
0.320283
0.323426
0.327513
0.331692
0.344225
0.369626
0.4267
0.607124
1.05398
1.34241
1.20161
1.11854
1.17848
1.3214
1.33498
1.32429
1.27888
1.19485
1.15813
0.336211
0.316777
0.317001
0.317282
0.318042
0.319018
0.320284
0.323411
0.327565
0.331563
0.342902
0.36576
0.403394
0.503277
0.776643
1.26514
1.222
1.1252
1.12985
1.23786
1.31738
1.32061
1.30514
1.23754
1.17486
0.33621
0.316776
0.317001
0.317281
0.318041
0.319021
0.320285
0.323405
0.327578
0.331532
0.342584
0.36465
0.389655
0.458901
0.610553
0.911819
1.21849
1.14291
1.09648
1.14685
1.27673
1.31115
1.30722
1.27788
1.21102
0.336211
0.316777
0.317001
0.317282
0.318042
0.319019
0.320284
0.323408
0.327567
0.331508
0.342173
0.365366
0.384875
0.440484
0.52229
0.680108
1.02362
1.14176
1.07884
1.08734
1.17402
1.28394
1.3021
1.29097
1.24551
0.336211
0.316777
0.317001
0.317282
0.318041
0.319019
0.320284
0.323405
0.327569
0.331493
0.342071
0.365537
0.384651
0.434765
0.494104
0.566994
0.727258
1.0785
1.0749
1.04103
1.07882
1.20763
1.28157
1.28571
1.26513
0.33621
0.316776
0.317001
0.317281
0.318041
0.319022
0.320284
0.3234
0.327571
0.331492
0.342068
0.365548
0.384687
0.434075
0.492916
0.513833
0.585784
0.775244
1.05423
1.01967
1.00662
1.08201
1.22365
1.26596
1.25918
0.336211
0.316777
0.317001
0.317282
0.318041
0.319019
0.320284
0.323405
0.32757
0.331493
0.342073
0.365519
0.384658
0.432775
0.494611
0.505865
0.527529
0.605221
0.807487
0.999264
0.962693
0.989766
1.10496
1.20809
1.23477
0.336211
0.316777
0.317001
0.317282
0.318042
0.319019
0.320284
0.323406
0.327569
0.331492
0.34207
0.365514
0.384631
0.43241
0.495462
0.504244
0.517088
0.546861
0.620725
0.79383
0.934444
0.927046
0.992801
1.11504
1.18053
0.336211
0.316777
0.317001
0.317282
0.318042
0.319019
0.320284
0.323406
0.327568
0.33149
0.342065
0.36551
0.384623
0.432383
0.49537
0.504701
0.514717
0.535561
0.560885
0.617224
0.744906
0.874386
0.908553
1.00836
1.11221
0.336211
0.316777
0.317001
0.317282
0.318042
0.319019
0.320285
0.323407
0.32757
0.331492
0.342068
0.365524
0.384642
0.432393
0.495396
0.504762
0.514439
0.535321
0.545935
0.559732
0.596396
0.684584
0.824121
0.912233
1.02411
0.33621
0.316776
0.317001
0.317281
0.318041
0.319021
0.320284
0.3234
0.327568
0.33149
0.342053
0.365502
0.384607
0.43229
0.495266
0.50466
0.514182
0.535222
0.544837
0.545739
0.549669
0.572652
0.637972
0.782057
0.931299
0.336211
0.316777
0.317001
0.317282
0.318043
0.319019
0.320285
0.323409
0.327571
0.331493
0.342068
0.365526
0.384644
0.432387
0.495386
0.504788
0.514342
0.535422
0.544813
0.544505
0.539102
0.539568
0.553738
0.606217
0.750817
0.336211
0.316777
0.317001
0.317282
0.318041
0.319018
0.320283
0.323405
0.327567
0.331489
0.342065
0.365508
0.384621
0.432389
0.49534
0.504738
0.514373
0.535477
0.544804
0.54435
0.538886
0.53186
0.533086
0.547385
0.601148
0.336211
0.316777
0.317001
0.317283
0.318043
0.319019
0.320286
0.323409
0.327572
0.331494
0.342071
0.365528
0.384642
0.432362
0.495339
0.504749
0.514301
0.535401
0.544805
0.544366
0.538855
0.53125
0.530543
0.536981
0.567482
0.336211
0.316777
0.317001
0.317282
0.318041
0.319018
0.320283
0.323405
0.327567
0.331489
0.342065
0.365506
0.384617
0.432385
0.495335
0.504733
0.514372
0.535478
0.544805
0.544347
0.538789
0.531223
0.530141
0.535304
0.561738
0.336211
0.316777
0.317001
0.317283
0.318043
0.319019
0.320286
0.32341
0.327572
0.331494
0.342071
0.36553
0.384645
0.43238
0.495369
0.504772
0.514329
0.535414
0.544791
0.544347
0.538815
0.531237
0.530075
0.534888
0.560676
0.33621
0.316776
0.317001
0.317281
0.318041
0.31902
0.320283
0.3234
0.327567
0.331489
0.342051
0.365499
0.384602
0.432279
0.495255
0.504654
0.514175
0.535234
0.544602
0.544157
0.538594
0.530918
0.529777
0.534539
0.56028
0.336211
0.316777
0.317001
0.317283
0.318043
0.319019
0.320285
0.32341
0.327572
0.331494
0.342069
0.365529
0.384644
0.432375
0.495377
0.504783
0.51434
0.535422
0.544793
0.544348
0.538813
0.531241
0.530066
0.53483
0.560554
0.336211
0.316777
0.317001
0.317281
0.318041
0.319018
0.320283
0.323405
0.327566
0.331487
0.342062
0.365506
0.384616
0.432373
0.495338
0.504738
0.514375
0.53548
0.544802
0.544342
0.538777
0.531221
0.530044
0.534828
0.560593
0.336211
0.316777
0.317001
0.317282
0.318043
0.319019
0.320285
0.323408
0.32757
0.331492
0.342068
0.365523
0.384639
0.432364
0.495354
0.504764
0.514308
0.5354
0.544798
0.544358
0.538823
0.531234
0.530057
0.534816
0.56053
0.33621
0.316777
0.317001
0.317281
0.318041
0.319018
0.320283
0.323404
0.327567
0.331488
0.342064
0.365504
0.384616
0.432386
0.495333
0.504728
0.514367
0.535472
0.544795
0.544336
0.538774
0.531222
0.530045
0.534835
0.560612
0.336211
0.316777
0.317001
0.317282
0.318042
0.319019
0.320284
0.323406
0.327569
0.331492
0.342068
0.365519
0.384636
0.432393
0.495375
0.504773
0.514331
0.535416
0.544787
0.544341
0.538803
0.53123
0.530051
0.534823
0.560562
0.33621
0.316776
0.317001
0.317281
0.31804
0.319021
0.320283
0.323399
0.327567
0.331488
0.34205
0.365493
0.384595
0.43228
0.495255
0.504649
0.514175
0.53524
0.54461
0.544164
0.5386
0.530925
0.529781
0.534536
0.560268
0.336211
0.316777
0.317001
0.317281
0.318041
0.319019
0.320284
0.323404
0.327568
0.331491
0.342066
0.36551
0.384623
0.432396
0.495376
0.504771
0.514407
0.535495
0.544802
0.544342
0.538784
0.531249
0.53007
0.534855
0.560617
0.33621
0.316777
0.317
0.317281
0.31804
0.319018
0.320283
0.323402
0.327566
0.331489
0.342063
0.365497
0.384609
0.432401
0.495368
0.504757
0.51441
0.535513
0.544815
0.544351
0.538783
0.531249
0.53007
0.534862
0.560639
0.33621
0.316776
0.317001
0.317281
0.31804
0.319021
0.320283
0.323399
0.327569
0.331491
0.342056
0.365493
0.384594
0.432289
0.495235
0.504631
0.514159
0.535235
0.54463
0.544191
0.538632
0.530959
0.529812
0.53457
0.560303
0.33621
0.316776
0.317
0.317281
0.31804
0.319018
0.320282
0.323401
0.327566
0.331489
0.342065
0.365492
0.384605
0.43242
0.495362
0.504744
0.514393
0.5355
0.544809
0.544346
0.538777
0.531244
0.530062
0.534863
0.560659
0.33621
0.316777
0.317
0.317281
0.31804
0.319018
0.320283
0.323402
0.327567
0.331489
0.342062
0.365498
0.384611
0.432405
0.495381
0.504769
0.514413
0.535503
0.544804
0.544342
0.538779
0.531249
0.530071
0.534861
0.560631
0.33621
0.316776
0.317001
0.31728
0.318039
0.31902
0.320281
0.323395
0.327566
0.331488
0.34205
0.365477
0.384576
0.432316
0.495269
0.504647
0.514243
0.535312
0.544619
0.544159
0.538577
0.530951
0.529805
0.534591
0.560379
0.33621
0.316776
0.317
0.317281
0.31804
0.319018
0.320282
0.323401
0.327565
0.331488
0.342061
0.3655
0.384621
0.432408
0.495377
0.504766
0.51434
0.535429
0.544786
0.544336
0.538789
0.531221
0.530041
0.534821
0.560578
0.33621
0.316776
0.317001
0.31728
0.318039
0.31902
0.320281
0.323395
0.327566
0.331488
0.342048
0.365476
0.384576
0.432299
0.495263
0.504652
0.514237