/*--------------------------------*- C++ -*----------------------------------*\
| =========                 |                                                 |
| \\      /  F ield         | OpenFOAM: The Open Source CFD Toolbox           |
|  \\    /   O peration     | Version:  4.1                                   |
|   \\  /    A nd           | Web:      www.OpenFOAM.org                      |
|    \\/     M anipulation  |                                                 |
\*---------------------------------------------------------------------------*/
FoamFile
{
    version     2.0;
    format      ascii;
    class       volVectorField;
    location    "0.4";
    object      U;
}
// * * * * * * * * * * * * * * * * * * * * * * * * * * * * * * * * * * * * * //

dimensions      [0 1 -1 0 0 0 0];

internalField   nonuniform List<vector> 
52500
(
(1.82093 -1.53579e-08 -0.00215899)
(1.84801 -6.4894e-07 -0.00196281)
(1.84751 1.98802e-06 -0.00196417)
(1.84658 4.54756e-06 -0.00196723)
(1.84492 1.10305e-05 -0.0019748)
(1.84158 3.16685e-05 -0.00199351)
(1.83374 9.5383e-05 -0.00204278)
(1.81104 0.00030466 -0.00219162)
(1.71863 0.00108348 -0.00275597)
(1.22542 0.0049404 -0.00540956)
(-0.162066 0.0272173 -0.0117208)
(-0.74743 0.036331 -0.0112875)
(-0.55951 0.0298671 -0.0093148)
(-0.468473 0.0292065 -0.00915956)
(-0.432028 0.029516 -0.00974392)
(-0.380921 0.0299593 -0.0103435)
(-0.329828 0.0312301 -0.0103688)
(-0.285734 0.0326536 -0.00996863)
(-0.257376 0.0339418 -0.00975072)
(-0.232762 0.0354003 -0.00965208)
(-0.205404 0.0367286 -0.00946074)
(-0.172426 0.0374551 -0.00924377)
(-0.139565 0.0380335 -0.00905579)
(-0.116101 0.0392075 -0.00882961)
(0.0111473 0.0389254 -0.00839953)
(1.82092 1.8279e-08 -0.00215899)
(1.84801 -1.77639e-06 -0.00196282)
(1.84751 5.79159e-06 -0.00196411)
(1.84658 1.32468e-05 -0.00196713)
(1.84494 3.22768e-05 -0.00197457)
(1.84165 9.37177e-05 -0.00199291)
(1.83397 0.00028503 -0.002041)
(1.81189 0.000920544 -0.00218573)
(1.7227 0.00332541 -0.00273118)
(1.24757 0.0154676 -0.00531078)
(-0.131758 0.0815198 -0.0115483)
(-0.740877 0.0998294 -0.0113024)
(-0.560403 0.077483 -0.00927666)
(-0.464404 0.0729808 -0.00910683)
(-0.427762 0.0721941 -0.00966757)
(-0.376222 0.0719499 -0.0102941)
(-0.32453 0.0736043 -0.0103321)
(-0.280153 0.0761144 -0.00993373)
(-0.251834 0.0792179 -0.00970547)
(-0.22759 0.083201 -0.00960443)
(-0.201501 0.0871648 -0.00940893)
(-0.169879 0.089969 -0.00919053)
(-0.137588 0.0920795 -0.0089993)
(-0.115436 0.095018 -0.00877238)
(0.0116764 0.0934598 -0.00833384)
(1.82092 3.87039e-08 -0.00215899)
(1.84801 -2.90659e-06 -0.00196284)
(1.84752 8.72147e-06 -0.00196401)
(1.8466 2.0133e-05 -0.00196695)
(1.84499 5.00401e-05 -0.00197414)
(1.84179 0.000148536 -0.0019917)
(1.83444 0.00045464 -0.00203738)
(1.81365 0.00147587 -0.00217329)
(1.73152 0.0053408 -0.0026778)
(1.29768 0.0250396 -0.0050911)
(-0.0593529 0.132817 -0.0112033)
(-0.732649 0.172326 -0.0113888)
(-0.56472 0.131101 -0.00923559)
(-0.458355 0.123119 -0.0090448)
(-0.421188 0.122274 -0.00955937)
(-0.369204 0.122517 -0.0102345)
(-0.316337 0.125373 -0.0102946)
(-0.271366 0.129051 -0.00990722)
(-0.242994 0.134178 -0.00966323)
(-0.21918 0.140896 -0.00956022)
(-0.194617 0.14786 -0.00936211)
(-0.164723 0.153403 -0.00914312)
(-0.133202 0.157671 -0.00894878)
(-0.113726 0.163127 -0.00871726)
(0.0126357 0.160445 -0.00826951)
(1.82092 5.59491e-08 -0.00215899)
(1.84801 -3.68729e-06 -0.00196287)
(1.84753 9.82786e-06 -0.00196386)
(1.84662 2.30525e-05 -0.00196666)
(1.84505 6.09473e-05 -0.0019735)
(1.84199 0.000185238 -0.00199001)
(1.8351 0.000573739 -0.00203227)
(1.81608 0.00186101 -0.00215577)
(1.74361 0.00668656 -0.0026041)
(1.36661 0.0311696 -0.00476053)
(0.0581936 0.167908 -0.0106498)
(-0.712072 0.247283 -0.0115459)
(-0.57308 0.184448 -0.00920269)
(-0.449535 0.172193 -0.00897459)
(-0.412089 0.170955 -0.00943075)
(-0.359279 0.171562 -0.0101605)
(-0.304695 0.175833 -0.0102543)
(-0.258781 0.180881 -0.0098881)
(-0.229811 0.188379 -0.0096208)
(-0.206161 0.198537 -0.00951625)
(-0.183423 0.209133 -0.00931472)
(-0.156006 0.217815 -0.00909245)
(-0.125643 0.224583 -0.00889539)
(-0.110335 0.233396 -0.00865409)
(0.0146012 0.230218 -0.0081871)
(1.82092 -1.39792e-07 -0.002159)
(1.84802 -3.39799e-06 -0.00196291)
(1.84754 1.22398e-05 -0.00196373)
(1.84664 2.83849e-05 -0.0019663)
(1.84512 7.37479e-05 -0.00197277)
(1.84222 0.000216368 -0.00198808)
(1.83586 0.000660332 -0.0020263)
(1.81889 0.00209345 -0.00213531)
(1.75745 0.00735544 -0.00251805)
(1.44714 0.0334701 -0.00433757)
(0.226218 0.180652 -0.00983837)
(-0.679829 0.323699 -0.0117599)
(-0.586803 0.238943 -0.00917091)
(-0.43886 0.220915 -0.0088899)
(-0.400535 0.218823 -0.00925457)
(-0.347124 0.219911 -0.0100538)
(-0.290478 0.225404 -0.0102041)
(-0.242995 0.231679 -0.00987571)
(-0.212643 0.241502 -0.00957719)
(-0.188789 0.25512 -0.0094718)
(-0.168237 0.269385 -0.00926941)
(-0.143859 0.281463 -0.00904424)
(-0.114506 0.290748 -0.00883811)
(-0.104889 0.303923 -0.00857457)
(0.0176493 0.300766 -0.0080882)
(1.82091 -5.4865e-07 -0.00215901)
(1.84802 -3.41924e-06 -0.00196294)
(1.84756 1.28748e-05 -0.00196354)
(1.84667 3.02838e-05 -0.00196596)
(1.84521 7.90098e-05 -0.00197199)
(1.84249 0.000229737 -0.00198581)
(1.83669 0.000698132 -0.0020198)
(1.82182 0.00217584 -0.00211441)
(1.77123 0.00744543 -0.00243145)
(1.52713 0.0322879 -0.00386548)
(0.439567 0.167851 -0.00878636)
(-0.624463 0.400322 -0.0119917)
(-0.605938 0.297454 -0.00918089)
(-0.428161 0.269503 -0.00881286)
(-0.387582 0.26577 -0.00907117)
(-0.333241 0.267635 -0.00992456)
(-0.273932 0.274373 -0.0101478)
(-0.224191 0.281803 -0.00987021)
(-0.191574 0.293992 -0.00952861)
(-0.167022 0.311039 -0.00941904)
(-0.148595 0.329364 -0.00921569)
(-0.127782 0.346002 -0.00898905)
(-0.0989599 0.358279 -0.0087767)
(-0.0967527 0.377618 -0.00849246)
(0.0220631 0.376078 -0.00799581)
(1.82091 -5.13752e-07 -0.00215903)
(1.84802 -3.56773e-06 -0.00196298)
(1.84757 9.19578e-06 -0.00196341)
(1.8467 2.30567e-05 -0.00196561)
(1.84529 6.76953e-05 -0.00197123)
(1.84275 0.000210625 -0.00198353)
(1.83751 0.000664352 -0.00201321)
(1.82466 0.00209231 -0.00209372)
(1.78377 0.00708832 -0.00235181)
(1.59671 0.0292146 -0.00345912)
(0.670194 0.14459 -0.00774713)
(-0.531263 0.468574 -0.01212)
(-0.627295 0.362952 -0.00933665)
(-0.419151 0.317548 -0.0087341)
(-0.372874 0.311452 -0.00887692)
(-0.317645 0.314828 -0.00974835)
(-0.255466 0.322511 -0.0100758)
(-0.202566 0.331208 -0.00987735)
(-0.166606 0.345663 -0.00948097)
(-0.140641 0.366142 -0.00936381)
(-0.123562 0.388948 -0.00916008)
(-0.106788 0.411586 -0.00891369)
(-0.0773759 0.42764 -0.00869373)
(-0.0840248 0.456063 -0.00840444)
(0.029049 0.458544 -0.0078418)
(1.8209 -3.37983e-07 -0.00215904)
(1.84803 -2.40131e-06 -0.001963)
(1.84758 4.8914e-06 -0.00196332)
(1.84672 1.40341e-05 -0.00196527)
(1.84536 5.03132e-05 -0.00197054)
(1.84299 0.000174147 -0.00198133)
(1.83828 0.000583282 -0.00200685)
(1.8273 0.00189161 -0.00207411)
(1.7948 0.00642465 -0.00228021)
(1.65553 0.025315 -0.00310641)
(0.908337 0.123784 -0.00666128)
(-0.380173 0.510342 -0.0119064)
(-0.642461 0.439522 -0.00962939)
(-0.415166 0.365832 -0.00864624)
(-0.35581 0.355545 -0.00869993)
(-0.300146 0.361092 -0.00952508)
(-0.235568 0.369191 -0.00998554)
(-0.178432 0.379795 -0.0098918)
(-0.137749 0.396304 -0.00944188)
(-0.109604 0.420088 -0.00930088)
(-0.0923861 0.447568 -0.00910807)
(-0.0797125 0.478749 -0.00885637)
(-0.0473091 0.499762 -0.00862218)
(-0.0647523 0.540101 -0.0082829)
(0.0396134 0.553097 -0.00769971)
(1.8209 -2.17129e-07 -0.00215904)
(1.84803 -8.54115e-07 -0.00196302)
(1.84758 1.60057e-06 -0.00196325)
(1.84673 6.52073e-06 -0.00196502)
(1.84542 3.27498e-05 -0.00197001)
(1.84319 0.000129794 -0.00197927)
(1.83896 0.000474911 -0.00200086)
(1.82964 0.00161728 -0.00205619)
(1.80406 0.00554524 -0.00221847)
(1.70296 0.021027 -0.0028239)
(1.16183 0.101421 -0.00558868)
(-0.16901 0.507245 -0.0112487)
(-0.639089 0.529418 -0.0101141)
(-0.42178 0.415726 -0.00856985)
(-0.33695 0.398315 -0.00853377)
(-0.281016 0.405224 -0.00922963)
(-0.214717 0.413962 -0.00987459)
(-0.152161 0.427501 -0.0098814)
(-0.105283 0.445769 -0.00942024)
(-0.0740357 0.472652 -0.00923895)
(-0.0536115 0.504348 -0.00906533)
(-0.0448984 0.54766 -0.00879442)
(-0.00645061 0.575993 -0.00853564)
(-0.0335403 0.628267 -0.00818756)
(0.0578041 0.665268 -0.00740454)
(1.8209 1.32665e-07 -0.00215904)
(1.84803 2.4963e-07 -0.00196302)
(1.84758 9.07364e-08 -0.00196321)
(1.84674 1.8239e-06 -0.00196483)
(1.84547 1.75873e-05 -0.0019696)
(1.84336 8.34277e-05 -0.00197749)
(1.83953 0.000358415 -0.00199559)
(1.83162 0.00131071 -0.00204067)
(1.81158 0.00453529 -0.00216495)
(1.74092 0.0167147 -0.0025939)
(1.38403 0.0788204 -0.00462294)
(0.12927 0.432505 -0.010032)
(-0.598921 0.626594 -0.0106524)
(-0.443346 0.470132 -0.00853724)
(-0.317546 0.439766 -0.00837191)
(-0.26073 0.445645 -0.00889264)
(-0.192669 0.456801 -0.00973228)
(-0.124081 0.47404 -0.00984905)
(-0.0693876 0.49359 -0.00942577)
(-0.0344806 0.523596 -0.00917891)
(-0.00641071 0.558403 -0.00900999)
(-0.000480073 0.615423 -0.00871378)
(0.0463747 0.657411 -0.00837947)
(0.0205344 0.729088 -0.00802111)
(0.0868595 0.832724 -0.00708842)
(1.82092 1.35909e-07 -2.81175e-09)
(1.84801 -3.46503e-07 -1.91488e-09)
(1.84751 2.55076e-06 -1.44331e-09)
(1.84658 5.46128e-06 -1.98431e-09)
(1.84492 1.24399e-05 -4.35648e-09)
(1.84158 3.3793e-05 -1.27579e-08)
(1.83373 9.86524e-05 -3.8985e-08)
(1.81101 0.000310196 -1.29625e-07)
(1.71848 0.00109603 -4.80509e-07)
(1.22454 0.00499463 -2.0794e-06)
(-0.163447 0.0275003 -6.2393e-06)
(-0.747391 0.0364261 1.93547e-06)
(-0.559104 0.0299681 4.96098e-07)
(-0.4682 0.0293072 3.4465e-07)
(-0.431859 0.0295816 4.3346e-07)
(-0.380861 0.0299818 4.04662e-07)
(-0.32985 0.0312239 4.92401e-07)
(-0.285805 0.0326462 4.85834e-07)
(-0.257452 0.033938 4.04908e-07)
(-0.232821 0.0353962 3.75115e-07)
(-0.205439 0.036723 3.77767e-07)
(-0.172446 0.0374489 3.92942e-07)
(-0.139582 0.0380279 4.44343e-07)
(-0.11611 0.0392048 4.85962e-07)
(0.0111534 0.0389368 4.54658e-07)
(1.82092 2.38115e-09 -2.65661e-09)
(1.84801 -1.69875e-06 -1.81075e-09)
(1.84751 6.01509e-06 -9.86982e-10)
(1.84658 1.36609e-05 -1.44328e-09)
(1.84494 3.28523e-05 -3.20712e-09)
(1.84165 9.41425e-05 -1.01579e-08)
(1.83397 0.000284475 -3.081e-08)
(1.81187 0.00091591 -9.83011e-08)
(1.7226 0.00330647 -3.41564e-07)
(1.24705 0.0153872 -1.365e-06)
(-0.132046 0.0811623 -4.20963e-06)
(-0.740163 0.0995732 7.12587e-07)
(-0.559559 0.0775366 4.884e-07)
(-0.463881 0.073092 3.49889e-07)
(-0.427494 0.0723173 4.18135e-07)
(-0.376142 0.0720361 4.0006e-07)
(-0.324563 0.0736298 4.24807e-07)
(-0.280226 0.0761102 4.09721e-07)
(-0.251913 0.0792111 3.61694e-07)
(-0.227655 0.0831946 3.56266e-07)
(-0.201543 0.0871564 3.63767e-07)
(-0.169905 0.0899577 3.83281e-07)
(-0.137611 0.0920639 4.34422e-07)
(-0.115443 0.0949993 4.77494e-07)
(0.0116927 0.0934653 4.53139e-07)
(1.82092 2.64328e-07 -1.97608e-09)
(1.84801 -2.37981e-06 -1.23662e-09)
(1.84752 9.79463e-06 9.35188e-10)
(1.8466 2.18708e-05 6.04588e-10)
(1.84499 5.25516e-05 -7.91237e-10)
(1.84179 0.000151879 -6.44765e-09)
(1.83443 0.000458647 -2.39852e-08)
(1.81361 0.00147904 -8.63462e-08)
(1.73132 0.00533701 -3.19291e-07)
(1.29652 0.0249961 -1.40179e-06)
(-0.0615476 0.132713 -4.20855e-06)
(-0.733612 0.172328 7.88651e-07)
(-0.565122 0.131334 5.66447e-07)
(-0.458908 0.123337 4.32757e-07)
(-0.421571 0.122425 4.24665e-07)
(-0.369447 0.122593 4.02026e-07)
(-0.316493 0.125373 3.56473e-07)
(-0.271475 0.12902 2.80516e-07)
(-0.243075 0.134149 2.51371e-07)
(-0.219241 0.140875 2.94905e-07)
(-0.194652 0.147842 3.35741e-07)
(-0.164741 0.153384 3.64968e-07)
(-0.133216 0.157648 4.22022e-07)
(-0.113725 0.163098 4.63503e-07)
(0.0126417 0.160445 4.45328e-07)
(1.82092 2.45185e-07 -2.12322e-09)
(1.84801 -3.24e-06 -1.34053e-09)
(1.84753 1.07681e-05 9.77978e-10)
(1.84662 2.45602e-05 7.93146e-10)
(1.84505 6.31385e-05 -1.69406e-10)
(1.84199 0.000188517 -4.50256e-09)
(1.83509 0.00057896 -1.77866e-08)
(1.81605 0.0018707 -6.41331e-08)
(1.74347 0.00670967 -2.32621e-07)
(1.3659 0.0312544 -1.03154e-06)
(0.0571584 0.168197 -3.01577e-06)
(-0.712213 0.247323 2.91986e-07)
(-0.572993 0.184522 5.88053e-07)
(-0.449917 0.172293 4.12769e-07)
(-0.412492 0.171 3.43182e-07)
(-0.3596 0.171553 3.38174e-07)
(-0.304917 0.17576 2.72498e-07)
(-0.258904 0.180806 1.66792e-07)
(-0.229884 0.188318 1.4827e-07)
(-0.20621 0.198492 2.14883e-07)
(-0.183448 0.209097 2.83446e-07)
(-0.156012 0.217786 3.32284e-07)
(-0.125648 0.224554 3.97862e-07)
(-0.110327 0.233362 4.38628e-07)
(0.0145938 0.230214 4.3192e-07)
(1.82092 3.44997e-08 -6.38097e-10)
(1.84802 -3.06461e-06 -6.95939e-10)
(1.84754 1.30224e-05 3.92584e-09)
(1.84664 2.96319e-05 3.91955e-09)
(1.84512 7.56876e-05 2.03776e-09)
(1.84222 0.000219439 1.59189e-09)
(1.83585 0.000665659 -8.94934e-09)
(1.81886 0.00210471 -4.391e-08)
(1.75731 0.00738553 -1.90308e-07)
(1.44631 0.0335806 -1.01449e-06)
(0.224386 0.181185 -3.66014e-06)
(-0.68062 0.323942 2.48705e-07)
(-0.587392 0.238965 5.8107e-07)
(-0.439713 0.220851 2.67018e-07)
(-0.401191 0.218639 2.48687e-07)
(-0.347556 0.219692 3.07266e-07)
(-0.290729 0.225206 1.65362e-07)
(-0.243108 0.231542 3.89396e-08)
(-0.212698 0.241398 3.99684e-08)
(-0.188819 0.255042 1.22222e-07)
(-0.168244 0.269329 2.06059e-07)
(-0.14385 0.281422 2.86878e-07)
(-0.114502 0.29071 3.68509e-07)
(-0.104876 0.303884 4.00573e-07)
(0.017632 0.300766 3.93207e-07)
(1.82091 -2.41842e-07 -1.89792e-09)
(1.84802 -2.98832e-06 -1.32189e-09)
(1.84756 1.38537e-05 2.8655e-09)
(1.84667 3.17964e-05 2.72689e-09)
(1.84521 8.13862e-05 2.45563e-09)
(1.84249 0.00023378 1.80016e-10)
(1.83669 0.000705676 -7.12054e-09)
(1.82181 0.00219255 -3.6585e-08)
(1.77117 0.00749204 -1.44491e-07)
(1.52676 0.0324676 -7.33569e-07)
(0.438508 0.168743 -3.7241e-06)
(-0.624774 0.401034 2.39218e-07)
(-0.605998 0.297646 9.47409e-07)
(-0.428505 0.269487 1.84306e-07)
(-0.387942 0.265555 5.48145e-08)
(-0.333505 0.267322 1.55745e-07)
(-0.274075 0.274096 9.57409e-08)
(-0.224248 0.281594 5.91324e-08)
(-0.191599 0.293842 -3.9099e-08)
(-0.167024 0.310928 9.17588e-09)
(-0.148578 0.329287 1.09743e-07)
(-0.127756 0.345945 2.13695e-07)
(-0.0989461 0.358231 3.14556e-07)
(-0.0967304 0.377576 3.49023e-07)
(0.0220434 0.376082 3.60394e-07)
(1.82091 -3.7074e-07 1.80162e-09)
(1.84803 -3.22844e-06 3.46797e-12)
(1.84757 1.00606e-05 7.96552e-09)
(1.8467 2.44374e-05 8.28432e-09)
(1.84529 6.97265e-05 8.10289e-09)
(1.84275 0.000213833 1.05108e-08)
(1.83751 0.000669902 1.10693e-08)
(1.82466 0.00210338 -3.21921e-09)
(1.78377 0.0071166 -5.20274e-08)
(1.59666 0.0293176 -2.93643e-07)
(0.669907 0.145092 -1.31387e-06)
(-0.530819 0.46944 -8.80633e-07)
(-0.62678 0.363275 5.74792e-07)
(-0.41882 0.317564 1.51936e-07)
(-0.372708 0.311254 1.25037e-07)
(-0.317608 0.314519 2.63122e-07)
(-0.255469 0.322226 1.89061e-07)
(-0.202548 0.330958 2.63324e-08)
(-0.166576 0.345482 -1.16301e-07)
(-0.140604 0.36601 -9.93031e-08)
(-0.123514 0.388853 5.52136e-09)
(-0.106741 0.411517 1.49338e-07)
(-0.0773499 0.427583 2.5719e-07)
(-0.0839939 0.456019 2.89821e-07)
(0.0290283 0.458551 3.0531e-07)
(1.8209 -1.79744e-07 -8.46708e-10)
(1.84803 -2.00166e-06 -1.46144e-09)
(1.84758 5.74098e-06 6.07053e-09)
(1.84672 1.54287e-05 6.9458e-09)
(1.84537 5.24301e-05 7.75847e-09)
(1.84299 0.000177314 9.34315e-09)
(1.83829 0.000588187 1.37325e-08)
(1.82731 0.00189951 1.21001e-08)
(1.79483 0.00643869 -3.42837e-10)
(1.65558 0.0253499 -8.31999e-08)
(0.90845 0.123929 -5.571e-07)
(-0.379905 0.510922 -6.92607e-07)
(-0.642103 0.439849 4.23559e-07)
(-0.414836 0.365858 1.43928e-07)
(-0.355557 0.35537 1.76055e-07)
(-0.300002 0.360805 3.21651e-07)
(-0.235493 0.368923 2.25091e-07)
(-0.178363 0.379563 7.59034e-08)
(-0.137673 0.396122 -1.13559e-07)
(-0.109528 0.419946 -1.68856e-07)
(-0.0923056 0.447462 -9.24676e-08)
(-0.0796426 0.478667 6.72448e-08)
(-0.0472694 0.499697 1.8412e-07)
(-0.064711 0.540052 2.25653e-07)
(0.0395946 0.553108 2.57978e-07)
(1.8209 -5.92668e-08 2.34468e-09)
(1.84803 -5.08496e-07 8.29356e-10)
(1.84758 2.41461e-06 1.25696e-08)
(1.84674 7.87582e-06 1.37348e-08)
(1.84543 3.47363e-05 1.48018e-08)
(1.8432 0.000132744 1.69775e-08)
(1.83897 0.00047948 2.37923e-08)
(1.82965 0.00162445 2.6236e-08)
(1.80408 0.00555599 2.7823e-08)
(1.70302 0.0210438 1.1677e-08)
(1.16201 0.101458 -1.8001e-07)
(-0.168888 0.507481 -6.14669e-07)
(-0.638906 0.529728 1.80578e-07)
(-0.421595 0.415768 -4.83609e-08)
(-0.336775 0.398189 2.25232e-07)
(-0.280883 0.404991 3.42399e-07)
(-0.214609 0.413724 2.91125e-07)
(-0.152061 0.427305 1.20152e-07)
(-0.105181 0.445602 -1.34246e-07)
(-0.0739294 0.472516 -2.38624e-07)
(-0.053501 0.50424 -1.90605e-07)
(-0.0448018 0.547573 -4.92848e-08)
(-0.00639288 0.575923 9.31351e-08)
(-0.0334852 0.628216 1.43256e-07)
(0.0577886 0.665286 2.04408e-07)
(1.8209 2.27852e-07 1.71633e-09)
(1.84803 5.64212e-07 1.15999e-10)
(1.84759 6.95454e-07 1.26361e-08)
(1.84675 2.79819e-06 1.39713e-08)
(1.84547 1.898e-05 1.48355e-08)
(1.84337 8.53011e-05 1.82167e-08)
(1.83955 0.000361123 2.48032e-08)
(1.83163 0.001315 3.43121e-08)
(1.81161 0.00454165 4.96546e-08)
(1.74098 0.0167225 8.9485e-08)
(1.38423 0.0788257 1.19078e-07)
(0.129517 0.432554 -2.03126e-07)
(-0.598731 0.626882 1.24125e-07)
(-0.443219 0.470218 1.65332e-08)
(-0.317366 0.439695 3.53233e-07)
(-0.260587 0.445477 5.32046e-07)
(-0.192548 0.456607 4.31154e-07)
(-0.12396 0.473887 1.15403e-07)
(-0.0692657 0.493448 -1.47016e-07)
(-0.0343562 0.523484 -2.47469e-07)
(-0.00627605 0.558302 -2.71979e-07)
(-0.000358908 0.615337 -1.0957e-07)
(0.0464461 0.657337 2.18808e-08)
(0.0206031 0.729033 9.09883e-08)
(0.0868472 0.832741 1.39755e-07)
(1.82093 -6.25425e-09 2.74575e-09)
(1.84801 -6.3618e-07 2.67388e-09)
(1.84751 2.01356e-06 7.82745e-09)
(1.84658 4.5846e-06 8.14998e-09)
(1.84492 1.11012e-05 8.77317e-09)
(1.84158 3.18418e-05 9.97849e-09)
(1.83374 9.58897e-05 1.33444e-08)
(1.81102 0.000306398 2.40838e-08)
(1.71851 0.00109046 7.56682e-08)
(1.22472 0.00498071 4.3105e-07)
(-0.163009 0.0274153 1.96303e-06)
(-0.747603 0.0363592 1.31059e-06)
(-0.559584 0.0298801 1.21209e-07)
(-0.468668 0.0291966 1.0068e-07)
(-0.432203 0.0294838 1.97565e-07)
(-0.381047 0.0299204 1.33764e-07)
(-0.329917 0.0312001 1.09291e-07)
(-0.285795 0.0326358 -1.36521e-07)
(-0.257404 0.0339346 -3.31092e-07)
(-0.232766 0.035397 -3.43368e-07)
(-0.205393 0.0367254 -3.00608e-07)
(-0.172408 0.0374515 -2.43846e-07)
(-0.139556 0.0380299 -1.59931e-07)
(-0.116097 0.0392064 -6.65673e-08)
(0.0111578 0.038938 -3.82184e-08)
(1.82092 1.21334e-07 2.02002e-09)
(1.84801 -1.54224e-06 2.07109e-09)
(1.84751 6.30566e-06 7.26461e-09)
(1.84658 1.40885e-05 7.60404e-09)
(1.84494 3.35566e-05 8.56135e-09)
(1.84165 9.56704e-05 1.02479e-08)
(1.83397 0.000288225 1.43411e-08)
(1.81187 0.00092656 2.49963e-08)
(1.72262 0.00334028 6.83609e-08)
(1.24712 0.0155237 3.39294e-07)
(-0.132234 0.0817379 1.188e-06)
(-0.740851 0.0998927 1.32856e-06)
(-0.560216 0.0775014 -8.13911e-08)
(-0.464414 0.0729708 1.55767e-07)
(-0.427805 0.0721487 1.94169e-07)
(-0.376275 0.0718938 1.23172e-07)
(-0.324585 0.0735567 6.76747e-08)
(-0.280198 0.0760864 -1.33065e-07)
(-0.251857 0.0792081 -3.08261e-07)
(-0.227596 0.0831991 -3.34881e-07)
(-0.201496 0.0871647 -3.02613e-07)
(-0.169868 0.0899661 -2.41762e-07)
(-0.137585 0.0920706 -1.55968e-07)
(-0.115431 0.0950046 -6.39086e-08)
(0.0116968 0.0934695 -3.58628e-08)
(1.82092 9.74292e-08 4.13518e-09)
(1.84801 -2.75854e-06 3.29411e-09)
(1.84752 9.08886e-06 1.05499e-08)
(1.8466 2.07573e-05 1.15589e-08)
(1.84499 5.1001e-05 1.49102e-08)
(1.84179 0.000150027 2.48809e-08)
(1.83444 0.00045714 5.14331e-08)
(1.81364 0.00148066 1.35223e-07)
(1.73145 0.00535266 4.38422e-07)
(1.29725 0.0250802 1.897e-06)
(-0.0600427 0.133002 6.3001e-06)
(-0.732719 0.172445 -1.81909e-06)
(-0.564604 0.131148 1.47352e-07)
(-0.458384 0.123134 1.61663e-07)
(-0.421237 0.122248 2.36768e-07)
(-0.369255 0.122468 1.01433e-07)
(-0.316383 0.125317 -5.98138e-08)
(-0.271396 0.129009 -1.75456e-07)
(-0.243003 0.134157 -2.78055e-07)
(-0.219176 0.140888 -3.26041e-07)
(-0.194602 0.147859 -3.03612e-07)
(-0.164704 0.153399 -2.38526e-07)
(-0.133192 0.157661 -1.49375e-07)
(-0.113714 0.163108 -5.75421e-08)
(0.0126453 0.160453 -2.98524e-08)
(1.82092 2.36252e-07 1.13995e-09)
(1.84801 -3.34167e-06 1.05694e-09)
(1.84753 1.05247e-05 6.42255e-09)
(1.84662 2.41517e-05 7.2525e-09)
(1.84505 6.2533e-05 9.94346e-09)
(1.84199 0.000187657 1.77245e-08)
(1.8351 0.000577422 3.80407e-08)
(1.81607 0.00186752 9.80249e-08)
(1.74356 0.0067012 2.97271e-07)
(1.36632 0.0312199 1.17328e-06)
(0.0576955 0.168105 3.32627e-06)
(-0.712029 0.247426 -1.36096e-06)
(-0.572859 0.184509 -3.19829e-07)
(-0.449492 0.172233 8.82481e-08)
(-0.412109 0.170955 1.22524e-07)
(-0.359319 0.171525 1.88189e-08)
(-0.304735 0.175773 -1.50736e-07)
(-0.258797 0.180827 -2.27484e-07)
(-0.229803 0.188345 -2.72769e-07)
(-0.206142 0.198519 -3.16819e-07)
(-0.183397 0.209124 -3.02968e-07)
(-0.155978 0.217808 -2.2931e-07)
(-0.125626 0.224572 -1.34694e-07)
(-0.110318 0.233375 -4.58622e-08)
(0.0145967 0.230225 -1.94603e-08)
(1.82092 -8.34763e-08 3.91322e-09)
(1.84802 -3.26426e-06 1.83978e-09)
(1.84754 1.25751e-05 8.91514e-09)
(1.84664 2.89196e-05 9.72552e-09)
(1.84513 7.45345e-05 1.04145e-08)
(1.84223 0.0002175 2.26986e-08)
(1.83586 0.000662021 4.0007e-08)
(1.81889 0.00209648 9.25292e-08)
(1.75741 0.00736292 2.94564e-07)
(1.44689 0.0334994 1.42074e-06)
(0.225682 0.180788 4.99811e-06)
(-0.679907 0.323785 -1.24931e-06)
(-0.586776 0.238977 -4.20593e-07)
(-0.438957 0.220921 2.26199e-07)
(-0.40065 0.218777 2.78812e-07)
(-0.347223 0.219836 1.12196e-08)
(-0.290537 0.22532 -1.48884e-07)
(-0.243003 0.231612 -2.13956e-07)
(-0.212618 0.241451 -2.63901e-07)
(-0.188754 0.255085 -3.14407e-07)
(-0.168197 0.269366 -2.91821e-07)
(-0.143821 0.28145 -2.09133e-07)
(-0.114485 0.290731 -1.19814e-07)
(-0.104868 0.3039 -3.61663e-08)
(0.0176339 0.300779 -1.18703e-08)
(1.82091 -3.68155e-07 9.26122e-10)
(1.84802 -3.13711e-06 2.82877e-10)
(1.84756 1.35082e-05 4.8909e-09)
(1.84667 3.12767e-05 5.35409e-09)
(1.84521 8.05694e-05 7.79488e-09)
(1.84249 0.000232108 1.32118e-08)
(1.83669 0.000701954 2.75833e-08)
(1.82181 0.00218242 6.36634e-08)
(1.7712 0.00746054 1.90617e-07)
(1.52693 0.0323389 8.14948e-07)
(0.438942 0.168109 3.64689e-06)
(-0.624771 0.40051 -4.88741e-07)
(-0.606064 0.297548 -7.81455e-07)
(-0.428391 0.269527 1.78681e-07)
(-0.3878 0.265716 1.9461e-07)
(-0.333382 0.267541 -4.36447e-08)
(-0.273989 0.274266 -8.44919e-08)
(-0.224191 0.281712 -1.86819e-07)
(-0.191539 0.293921 -2.47982e-07)
(-0.16697 0.310986 -3.13434e-07)
(-0.148539 0.329331 -2.72236e-07)
(-0.127734 0.345978 -1.86415e-07)
(-0.0989349 0.358255 -1.04811e-07)
(-0.0967261 0.377594 -2.67184e-08)
(0.0220443 0.376096 -4.7253e-09)
(1.82091 -3.77653e-07 2.16834e-09)
(1.84803 -3.32814e-06 1.57971e-09)
(1.84757 9.76316e-06 6.0606e-09)
(1.8467 2.39227e-05 6.50946e-09)
(1.84529 6.89507e-05 7.62412e-09)
(1.84275 0.000212527 1.0992e-08)
(1.83751 0.000667427 1.91253e-08)
(1.82467 0.00209792 3.71621e-08)
(1.78377 0.00710168 9.70244e-08)
(1.59666 0.0292607 3.56609e-07)
(0.669945 0.144801 1.27632e-06)
(-0.531214 0.468886 7.33375e-07)
(-0.627172 0.363122 -5.58791e-07)
(-0.419156 0.317614 2.10423e-07)
(-0.372947 0.311416 1.75507e-07)
(-0.317723 0.314727 9.79508e-09)
(-0.255512 0.322393 -9.16926e-09)
(-0.202551 0.331093 -1.28039e-07)
(-0.16655 0.345575 -2.37375e-07)
(-0.140569 0.366074 -3.05116e-07)
(-0.123487 0.3889 -2.52004e-07)
(-0.106728 0.411551 -1.63533e-07)
(-0.0773457 0.427609 -8.9582e-08)
(-0.083993 0.456037 -1.77617e-08)
(0.0290279 0.458566 1.93238e-09)
(1.8209 -2.39839e-07 1.04125e-09)
(1.84803 -2.10527e-06 7.93594e-10)
(1.84758 5.68234e-06 3.7183e-09)
(1.84672 1.53493e-05 4.01327e-09)
(1.84537 5.22506e-05 4.5075e-09)
(1.84299 0.000176978 5.52018e-09)
(1.83828 0.000587646 7.94037e-09)
(1.8273 0.00189866 1.23874e-08)
(1.79481 0.00643687 2.53795e-08)
(1.65552 0.0253441 7.5641e-08)
(0.908186 0.123892 2.31169e-07)
(-0.380199 0.510651 3.31209e-07)
(-0.642406 0.439707 -1.21968e-08)
(-0.415204 0.365892 2.28958e-08)
(-0.355881 0.355481 1.1671e-07)
(-0.300204 0.360948 7.43361e-08)
(-0.235594 0.369053 8.95565e-09)
(-0.178401 0.379682 -1.26521e-07)
(-0.137675 0.396209 -2.35323e-07)
(-0.109514 0.420008 -2.86978e-07)
(-0.0922923 0.447508 -2.34491e-07)
(-0.0796389 0.4787 -1.47542e-07)
(-0.0472722 0.499722 -8.00944e-08)
(-0.0647135 0.540071 -1.03246e-08)
(0.0395928 0.553123 6.28812e-09)
(1.8209 -5.32095e-08 1.73713e-09)
(1.84803 -5.00759e-07 1.28844e-09)
(1.84758 2.53071e-06 6.33513e-09)
(1.84674 8.08514e-06 6.65374e-09)
(1.84543 3.50564e-05 7.04088e-09)
(1.8432 0.000133295 7.46719e-09)
(1.83897 0.000480453 8.09492e-09)
(1.82965 0.0016262 6.98666e-09)
(1.80408 0.00555966 6.97045e-10)
(1.70298 0.0210544 -3.10422e-08)
(1.1618 0.101497 -1.79239e-07)
(-0.169 0.507506 -5.18422e-07)
(-0.639071 0.529613 3.95929e-07)
(-0.421822 0.415771 1.39981e-07)
(-0.337013 0.398246 1.58717e-07)
(-0.28104 0.405076 1.26129e-07)
(-0.214701 0.413813 1.90747e-08)
(-0.152107 0.42739 -1.23627e-07)
(-0.1052 0.445668 -2.00562e-07)
(-0.073929 0.472569 -2.42509e-07)
(-0.0534998 0.504279 -2.28761e-07)
(-0.0448063 0.547601 -1.4169e-07)
(-0.00640188 0.575946 -7.94313e-08)
(-0.0334911 0.628233 -1.46248e-08)
(0.0577856 0.665299 1.25225e-08)
(1.8209 1.73997e-07 1.07981e-09)
(1.84803 4.43447e-07 6.83535e-10)
(1.84759 4.93321e-07 4.40625e-09)
(1.84675 2.51144e-06 4.69437e-09)
(1.84547 1.86203e-05 5.01176e-09)
(1.84336 8.49212e-05 5.41239e-09)
(1.83954 0.00036077 5.67845e-09)
(1.83163 0.00131491 4.34897e-09)
(1.8116 0.00454291 -4.21017e-09)
(1.74095 0.0167301 -4.20886e-08)
(1.38409 0.0788654 -2.12361e-07)
(0.129369 0.432697 -5.00912e-07)
(-0.598783 0.626811 2.38406e-07)
(-0.443254 0.470194 1.26717e-07)
(-0.317443 0.439735 8.13761e-08)
(-0.260643 0.445546 9.00066e-08)
(-0.19259 0.456679 1.53066e-08)
(-0.123997 0.47394 -1.05503e-07)
(-0.0692874 0.493493 -1.75207e-07)
(-0.0343623 0.523521 -2.32328e-07)
(-0.00628366 0.55833 -2.47772e-07)
(-0.000368958 0.615358 -1.42229e-07)
(0.0464332 0.657355 -8.32964e-08)
(0.0205932 0.729049 -2.34104e-08)
(0.0868427 0.832752 6.49917e-09)
(1.82093 3.36606e-08 9.4351e-10)
(1.84801 -5.50609e-07 8.66055e-10)
(1.84751 2.18913e-06 3.62619e-09)
(1.84658 4.87439e-06 3.82721e-09)
(1.84492 1.15405e-05 4.23661e-09)
(1.84158 3.24755e-05 4.79897e-09)
(1.83374 9.67885e-05 5.1904e-09)
(1.81102 0.000307654 2.93404e-09)
(1.71851 0.00109228 -1.46569e-08)
(1.22467 0.00498434 -1.34595e-07)
(-0.163094 0.0274291 -5.43795e-07)
(-0.747591 0.0363671 -3.56391e-08)
(-0.559553 0.0298997 9.71001e-08)
(-0.468656 0.0292183 9.15505e-08)
(-0.43221 0.0294965 8.50036e-08)
(-0.381065 0.0299221 6.36804e-08)
(-0.329934 0.0311948 6.24861e-10)
(-0.285804 0.0326309 -7.22454e-08)
(-0.257399 0.0339305 -1.55336e-07)
(-0.232748 0.0353933 -2.26968e-07)
(-0.205369 0.0367224 -2.44236e-07)
(-0.172387 0.0374495 -2.17473e-07)
(-0.139541 0.0380286 -1.83615e-07)
(-0.11609 0.0392055 -1.3081e-07)
(0.0111591 0.0389373 -8.9338e-08)
(1.82092 8.39292e-08 1.19668e-09)
(1.84801 -1.61195e-06 1.04678e-09)
(1.84751 6.17674e-06 4.07679e-09)
(1.84659 1.38917e-05 4.24606e-09)
(1.84494 3.32667e-05 4.67249e-09)
(1.84165 9.52169e-05 4.98669e-09)
(1.83397 0.000287456 5.08541e-09)
(1.81187 0.000925031 2.17402e-09)
(1.72262 0.00333673 -1.43133e-08)
(1.24709 0.0155137 -1.10297e-07)
(-0.132261 0.081707 -4.15001e-07)
(-0.740807 0.0998607 -4.59971e-08)
(-0.56016 0.0775036 1.06166e-07)
(-0.464391 0.0729869 8.14045e-08)
(-0.427812 0.0721626 8.39712e-08)
(-0.376296 0.0718971 8.49778e-08)
(-0.324603 0.0735484 1.42549e-08)
(-0.280205 0.0760767 -6.37315e-08)
(-0.251852 0.0791996 -1.45109e-07)
(-0.227577 0.0831905 -2.16702e-07)
(-0.201471 0.087157 -2.35542e-07)
(-0.169846 0.0899603 -2.12948e-07)
(-0.13757 0.0920664 -1.80674e-07)
(-0.115423 0.0950016 -1.30777e-07)
(0.0116983 0.0934671 -9.41675e-08)
(1.82092 1.53862e-07 7.75087e-10)
(1.84801 -2.6338e-06 7.79351e-10)
(1.84752 9.3162e-06 3.13176e-09)
(1.8466 2.11131e-05 3.22607e-09)
(1.84499 5.15055e-05 3.36652e-09)
(1.84179 0.000150684 3.05623e-09)
(1.83444 0.000457877 1.51527e-09)
(1.81364 0.00148097 -5.80518e-09)
(1.73144 0.00535045 -3.43416e-08)
(1.29719 0.0250654 -1.65196e-07)
(-0.060119 0.132943 -4.69718e-07)
(-0.732702 0.172436 2.0169e-07)
(-0.56458 0.131209 6.51948e-08)
(-0.458406 0.123188 -2.15271e-08)
(-0.421284 0.122282 2.17079e-08)
(-0.369299 0.122472 7.80862e-08)
(-0.316412 0.125299 2.76735e-08)
(-0.271404 0.12899 -5.08029e-08)
(-0.242997 0.134141 -1.22802e-07)
(-0.219157 0.140874 -1.85522e-07)
(-0.194576 0.147845 -2.18394e-07)
(-0.16468 0.153389 -2.03643e-07)
(-0.133175 0.157653 -1.79432e-07)
(-0.113705 0.163102 -1.3065e-07)
(0.0126471 0.160448 -1.05213e-07)
(1.82092 2.1944e-07 1.59663e-09)
(1.84802 -3.37092e-06 1.51106e-09)
(1.84753 1.0454e-05 4.48599e-09)
(1.84662 2.40127e-05 4.54934e-09)
(1.84505 6.22695e-05 4.55538e-09)
(1.84199 0.000187204 3.41408e-09)
(1.8351 0.000576571 2.35597e-10)
(1.81607 0.00186584 -1.1451e-08)
(1.74354 0.00669691 -5.37855e-08)
(1.36623 0.0312012 -2.44162e-07)
(0.0575617 0.168 -6.73756e-07)
(-0.71217 0.247376 6.37771e-07)
(-0.573009 0.184524 6.82779e-08)
(-0.449722 0.172199 -3.93362e-08)
(-0.41229 0.170901 4.88711e-08)
(-0.35944 0.17148 9.0772e-08)
(-0.304792 0.175728 5.69577e-08)
(-0.258806 0.180796 -5.00462e-08)
(-0.229795 0.18832 -1.16531e-07)
(-0.206121 0.198498 -1.61903e-07)
(-0.183369 0.209106 -1.92398e-07)
(-0.155951 0.217794 -1.90101e-07)
(-0.125607 0.224561 -1.77488e-07)
(-0.110307 0.233368 -1.29405e-07)
(0.014599 0.230219 -1.2897e-07)
(1.82092 1.29084e-10 4.4623e-10)
(1.84802 -3.18701e-06 6.74731e-10)
(1.84754 1.2748e-05 2.66743e-09)
(1.84664 2.91703e-05 2.70204e-09)
(1.84513 7.50107e-05 2.63383e-09)
(1.84223 0.000218375 1.9084e-09)
(1.83586 0.000663845 -9.6898e-10)
(1.81889 0.00210098 -1.37474e-08)
(1.75739 0.00737595 -8.01416e-08)
(1.44669 0.0335445 -5.52445e-07)
(0.2252 0.181002 -2.45408e-06)
(-0.680342 0.323955 1.28449e-06)
(-0.587189 0.239009 1.83324e-07)
(-0.439383 0.220858 -7.0653e-08)
(-0.400906 0.218654 -5.12825e-08)
(-0.347355 0.21972 6.98032e-08)
(-0.290586 0.225238 7.37401e-08)
(-0.243004 0.231562 -2.11694e-08)
(-0.212606 0.241415 -1.01515e-07)
(-0.188729 0.255059 -1.4007e-07)
(-0.168165 0.269344 -1.74986e-07)
(-0.14379 0.281433 -1.82079e-07)