/*--------------------------------*- C++ -*----------------------------------*\
| =========                 |                                                 |
| \\      /  F ield         | OpenFOAM: The Open Source CFD Toolbox           |
|  \\    /   O peration     | Version:  4.1                                   |
|   \\  /    A nd           | Web:      www.OpenFOAM.org                      |
|    \\/     M anipulation  |                                                 |
\*---------------------------------------------------------------------------*/
FoamFile
{
    version     2.0;
    format      ascii;
    class       surfaceScalarField;
    location    "5.5";
    object      phi;
}
// * * * * * * * * * * * * * * * * * * * * * * * * * * * * * * * * * * * * * //

dimensions      [1 0 -1 0 0 0 0];

internalField   nonuniform List<scalar> 
895
(
-0.00160822
0.316789
-0.00392542
0.456468
-0.0056753
0.344705
-0.00680063
0.221674
0.133458
-0.00165036
0.318437
-0.00402814
0.458846
-0.00582382
0.346501
-0.0069786
0.222829
0.134153
-0.00169368
0.320128
-0.00413377
0.461286
-0.00597655
0.348344
-0.0071616
0.224015
0.134867
-0.00173823
0.321864
-0.00424241
0.46379
-0.00613361
0.350236
-0.00734981
0.225232
0.1356
-0.00178405
0.323645
-0.00435415
0.466361
-0.00629516
0.352178
-0.00754339
0.22648
0.136352
-0.00183117
0.325474
-0.00446909
0.468999
-0.00646133
0.354171
-0.0077425
0.227762
0.137123
-0.00187965
0.32735
-0.00458733
0.471707
-0.00663227
0.356216
-0.00794733
0.229078
0.137915
-0.00192952
0.329277
-0.00470898
0.474486
-0.00680814
0.358316
-0.00815805
0.230428
0.138728
-0.00198084
0.331255
-0.00483415
0.47734
-0.00698908
0.360472
-0.00837486
0.231814
0.139563
-0.00203364
0.333286
-0.00496295
0.480269
-0.00717527
0.362684
-0.00859796
0.233238
0.14042
-0.00208798
0.33537
-0.00509549
0.483277
-0.00736687
0.364957
-0.00882754
0.234699
0.141299
-0.0021439
0.337511
-0.00523191
0.486365
-0.00756407
0.367289
-0.00906383
0.236199
0.142203
-0.00220147
0.339709
-0.00537232
0.489536
-0.00776705
0.369685
-0.00930703
0.23774
0.14313
-0.00226073
0.341967
-0.00551686
0.492792
-0.00797599
0.372145
-0.00955738
0.239322
0.144083
-0.00232174
0.344285
-0.00566567
0.496136
-0.00819109
0.374671
-0.00981512
0.240946
0.145061
-0.00238455
0.346666
-0.00581888
0.49957
-0.00841256
0.377265
-0.0100805
0.242615
0.146065
-0.00244923
0.349111
-0.00597665
0.503098
-0.00864061
0.37993
-0.0103537
0.244329
0.147097
-0.00251585
0.351623
-0.00613912
0.506721
-0.00887546
0.382667
-0.0106351
0.246089
0.148157
-0.00258446
0.354204
-0.00630646
0.510443
-0.00911734
0.385479
-0.0109249
0.247897
0.149246
-0.00265513
0.356855
-0.00647882
0.514267
-0.00936648
0.388367
-0.0112234
0.249755
0.150364
-0.00272793
0.359579
-0.00665638
0.518196
-0.00962313
0.391334
-0.011531
0.251663
0.151513
-0.00280295
0.362377
-0.00683931
0.522232
-0.00988755
0.394384
-0.0118478
0.253624
0.152694
-0.00288024
0.365253
-0.00702781
0.52638
-0.01016
0.397516
-0.0121742
0.255639
0.153907
-0.00295989
0.368208
-0.00722205
0.530642
-0.0104407
0.400736
-0.0125106
0.25771
0.155153
-0.00304197
0.371246
-0.00742223
0.535022
-0.0107301
0.404045
-0.0128572
0.259838
0.156434
-0.00312659
0.374367
-0.00762857
0.539524
-0.0110283
0.407445
-0.0132146
0.262024
0.157751
-0.00321381
0.377576
-0.00784126
0.544151
-0.0113357
0.410941
-0.0135829
0.264272
0.159104
-0.00330374
0.380875
-0.00806055
0.548908
-0.0116527
0.414533
-0.0139626
0.266583
0.160495
-0.00339647
0.384266
-0.00828664
0.553798
-0.0119794
0.418227
-0.0143541
0.268958
0.161925
-0.00349209
0.387752
-0.0085198
0.558825
-0.0123164
0.422025
-0.0147579
0.271401
0.163396
-0.0035907
0.391337
-0.00876025
0.563995
-0.0126639
0.425929
-0.0151742
0.273912
0.164908
-0.00369242
0.395024
-0.00900827
0.569311
-0.0130224
0.429944
-0.0156037
0.276494
0.166462
-0.00379735
0.398815
-0.00926411
0.574777
-0.0133922
0.434073
-0.0160467
0.279149
0.168061
-0.00390562
0.402715
-0.00952806
0.580399
-0.0137736
0.438319
-0.0165037
0.28188
0.169705
-0.00401732
0.406726
-0.00980041
0.586182
-0.0141672
0.442687
-0.0169753
0.284689
0.171396
-0.0041326
0.410852
-0.0100815
0.592131
-0.0145734
0.44718
-0.0174619
0.287578
0.173136
-0.00425157
0.415096
-0.0103715
0.59825
-0.0149926
0.451802
-0.0179642
0.290551
0.174925
-0.00437438
0.419464
-0.0106709
0.604546
-0.0154253
0.456557
-0.0184826
0.293609
0.176766
-0.00450115
0.423958
-0.01098
0.611025
-0.015872
0.46145
-0.0190177
0.296756
0.178661
-0.00463204
0.428582
-0.0112991
0.617691
-0.0163331
0.466485
-0.0195702
0.299994
0.18061
-0.0047672
0.433342
-0.0116286
0.624552
-0.0168093
0.471667
-0.0201407
0.303326
0.182616
-0.00490678
0.438241
-0.0119688
0.631613
-0.017301
0.477
-0.0207299
0.306755
0.184681
-0.00505094
0.443283
-0.0123203
0.638882
-0.0178089
0.482489
-0.0213384
0.310286
0.186806
-0.00519986
0.448475
-0.0126833
0.646365
-0.0183336
0.48814
-0.0219669
0.31392
0.188994
-0.0053537
0.45382
-0.0130584
0.654069
-0.0188756
0.493959
-0.0226163
0.317662
0.191247
-0.00551266
0.459323
-0.0134459
0.662001
-0.0194356
0.499949
-0.0232872
0.321514
0.193566
-0.00567692
0.464991
-0.0138463
0.67017
-0.0200143
0.506118
-0.0239806
0.325481
0.195955
-0.00584668
0.470828
-0.0142602
0.678582
-0.0206124
0.512471
-0.0246971
0.329567
0.198415
-0.00602215
0.47684
-0.0146879
0.687247
-0.0212307
0.519015
-0.0254378
0.333775
0.200948
-0.00620355
0.483033
-0.0151302
0.696172
-0.0218698
0.525755
-0.0262035
0.33811
0.203558
-0.00639109
0.489413
-0.0155874
0.705367
-0.0225305
0.532699
-0.0269951
0.342575
0.206246
-0.00658502
0.495987
-0.0160602
0.714841
-0.0232138
0.539854
-0.0278137
0.347176
0.209016
-0.00678558
0.502762
-0.0165491
0.724603
-0.0239204
0.547226
-0.0286604
0.351917
0.21187
-0.00699301
0.509743
-0.0170549
0.734663
-0.0246513
0.554823
-0.029536
0.356803
0.214812
-0.00720759
0.516938
-0.017578
0.745033
-0.0254074
0.562653
-0.0304418
0.361838
0.217843
-0.00742959
0.524355
-0.0181193
0.75572
-0.0261896
0.570724
-0.031379
0.367028
0.220968
-0.00765929
0.532001
-0.0186793
0.766738
-0.026999
0.579045
-0.0323488
0.372379
0.224189
-0.00789701
0.539885
-0.0192589
0.778099
-0.0278367
0.587623
-0.0333523
0.377896
0.227511
-0.00814304
0.548014
-0.0198588
0.789812
-0.0287036
0.596469
-0.0343911
0.383584
0.230935
-0.00839771
0.556397
-0.0204797
0.801892
-0.0296011
0.60559
-0.0354663
0.38945
0.234467
-0.00866137
0.565043
-0.0211226
0.814351
-0.0305302
0.614999
-0.0365795
0.3955
0.238109
-0.00893435
0.573962
-0.0217882
0.827202
-0.0314923
0.624703
-0.0377322
0.401741
0.241867
-0.00921705
0.583163
-0.0224775
0.84046
-0.0324886
0.634715
-0.0389258
0.408179
0.245743
-0.00950983
0.592656
-0.0231915
0.854139
-0.0335204
0.645044
-0.0401621
0.414822
0.249742
-0.00981312
0.602452
-0.023931
0.868254
-0.0345893
0.655703
-0.0414428
0.421677
0.253869
-0.0101273
0.612562
-0.0246972
0.88282
-0.0356967
0.666703
-0.0427695
0.42875
0.258127
-0.0104528
0.622996
-0.025491
0.897855
-0.036844
0.678056
-0.0441442
0.436051
0.262523
-0.0107901
0.633767
-0.0263136
0.913376
-0.038033
0.689777
-0.0455688
0.443588
0.267061
-0.0111398
0.644888
-0.0271662
0.929398
-0.0392653
0.701876
-0.0470453
0.451369
0.271745
-0.011502
0.65637
-0.0280499
0.945943
-0.0405426
0.714369
-0.0485757
0.459403
0.276582
-0.011878
0.668227
-0.0289662
0.963029
-0.0418669
0.727271
-0.0501623
0.4677
0.281577
-0.0122672
0.680474
-0.0299161
0.980673
-0.04324
0.740596
-0.0518075
0.476269
0.286736
-0.0126714
0.693124
-0.0309011
0.9989
-0.0446637
0.754359
-0.0535134
0.48512
0.292064
-0.0130903
0.706192
-0.0319228
1.01773
-0.0461404
0.768579
-0.0552827
0.494264
0.29757
-0.0135244
0.719694
-0.0329824
1.03719
-0.0476722
0.783271
-0.057118
0.503713
0.303258
-0.0139755
0.733648
-0.0340819
1.05729
-0.0492612
0.798453
-0.0590219
0.513476
0.309136
-0.0144431
0.748068
-0.0352225
1.07807
-0.0509099
0.814144
-0.0609973
0.523566
0.315211
-0.0149284
0.762973
-0.0364061
1.09955
-0.0526207
0.830363
-0.0630471
0.533997
0.32149
-0.015432
0.778383
-0.0376345
1.12175
-0.0543963
0.84713
-0.0651746
0.544779
0.327982
-0.0159549
0.794315
-0.0389096
1.14471
-0.0562394
0.864466
-0.0673828
0.555928
0.334694
-0.0164975
0.81079
-0.0402332
1.16845
-0.0581526
0.882393
-0.0696752
0.567456
0.341635
-0.0170611
0.827827
-0.0416074
1.193
-0.060139
0.900932
-0.0720552
0.579379
0.348813
-0.017646
0.84545
-0.0430344
1.21839
-0.0622016
0.920109
-0.0745266
0.591711
0.356237
-0.0182537
0.863681
-0.0445163
1.24466
-0.0643437
0.939947
-0.0770931
0.604469
0.363918
-0.0188848
0.882544
-0.0460556
1.27185
-0.0665685
0.960473
-0.0797589
0.617669
0.371865
-0.0195403
0.902062
-0.0476545
1.29997
-0.0688798
0.981712
-0.0825281
0.631327
0.380088
-0.0202215
0.922261
-0.0493155
1.32907
-0.0712807
1.00369
-0.0854048
0.645461
0.388597
-0.0209289
0.943164
-0.0510414
1.3592
-0.0737752
1.02644
-0.0883937
0.660089
0.397404
-0.0216644
0.964803
-0.0528346
1.39038
-0.0763676
1.04999
-0.0914997
0.675233
0.406521
-0.022429
0.987209
-0.054699
1.42266
-0.0790619
1.07437
-0.0947279
0.690913
0.415961
-0.0232232
1.01042
-0.0566363
1.45609
-0.0818623
1.09961
-0.0980833
0.707148
0.425735
-0.024049
1.03445
-0.0586503
1.49071
-0.0847733
1.12575
-0.101571
0.723959
0.435856
-0.024908
1.05934
-0.0607442
1.52656
-0.0877998
1.15283
-0.105197
0.741371
0.446339
-0.025801
1.08512
-0.0629218
1.56371
-0.090947
1.18088
-0.108968
0.75941
0.4572
-0.0267297
1.11182
-0.0651861
1.60219
-0.0942198
1.20994
-0.112889
0.778098
0.46845
-0.0276947
1.13948
-0.0675404
1.64205
-0.097623
1.24005
-0.116967
0.797459
0.480107
-0.0286969
1.16813
-0.0699901
1.68336
-0.101163
1.27124
-0.121208
0.817518
0.492183
-0.0297399
1.19783
-0.0725368
1.72616
-0.104845
1.30356
-0.125619
0.838304
0.504698
-0.0308281
1.22862
-0.0751862
1.77053
-0.108675
1.33706
-0.130207
0.859847
0.517668
-0.0319632
-0.0779323
-0.112642
-0.134963
)
;

boundaryField
{
    axis
    {
        type            empty;
        value           nonuniform 0();
    }
    inlet
    {
        type            calculated;
        value           nonuniform List<scalar> 5(-0.315183 -0.45415 -0.342954 -0.220548 -0.13278);
    }
    wall
    {
        type            calculated;
        value           nonuniform List<scalar> 
100
(
-0.00747812
-0.00767381
-0.00787504
-0.008082
-0.00829486
-0.0085138
-0.00873902
-0.00897073
-0.00920914
-0.00945445
-0.0097069
-0.00996672
-0.0102341
-0.0105094
-0.0107928
-0.0110846
-0.0113851
-0.0116945
-0.0120131
-0.0123414
-0.0126795
-0.0130279
-0.0133868
-0.0137567
-0.0141378
-0.0145307
-0.0149357
-0.0153533
-0.0157837
-0.0162277
-0.0166855
-0.0171577
-0.0176448
-0.0181473
-0.0186658
-0.0192009
-0.0197531
-0.0203231
-0.0209115
-0.021519
-0.0221463
-0.0227941
-0.0234631
-0.0241542
-0.0248682
-0.025606
-0.0263683
-0.0271562
-0.0279706
-0.0288125
-0.0296829
-0.030583
-0.0315139
-0.0324767
-0.0334727
-0.0345032
-0.0355694
-0.0366729
-0.037815
-0.0389973
-0.0402213
-0.0414887
-0.0428012
-0.0441605
-0.0455687
-0.0470275
-0.048539
-0.0501055
-0.051729
-0.0534117
-0.0551564
-0.0569653
-0.058841
-0.0607865
-0.0628045
-0.064898
-0.0670701
-0.069324
-0.0716633
-0.0740914
-0.0766121
-0.079229
-0.0819465
-0.0847686
-0.0876998
-0.0907447
-0.0939079
-0.0971943
-0.10061
-0.104159
-0.107849
-0.111684
-0.115671
-0.119817
-0.124128
-0.128612
-0.133276
-0.138125
-0.143171
-0.1484
)
;
    }
    outlet
    {
        type            calculated;
        value           nonuniform List<scalar> 5(1.26055 1.81652 1.3718 0.882185 0.531115);
    }
    front
    {
        type            wedge;
        value           nonuniform List<scalar> 
500
(
1.1828e-06
1.21604e-06
1.25026e-06
1.28549e-06
1.32186e-06
1.35949e-06
1.39818e-06
1.43816e-06
1.4794e-06
1.52195e-06
1.56592e-06
1.61126e-06
1.65817e-06
1.70643e-06
1.75641e-06
1.80794e-06
1.86127e-06
1.91633e-06
1.97319e-06
2.03201e-06
2.09276e-06
2.15559e-06
2.22047e-06
2.28764e-06
2.35699e-06
2.42888e-06
2.50303e-06
2.57994e-06
2.65941e-06
2.74161e-06
2.82676e-06
2.91491e-06
3.00608e-06
3.10043e-06
3.19832e-06
3.29961e-06
3.4045e-06
3.51316e-06
3.62565e-06
3.74244e-06
3.86326e-06
3.98856e-06
4.11846e-06
4.25304e-06
4.39278e-06
4.53748e-06
4.68779e-06
4.84354e-06
5.00514e-06
5.17287e-06
5.34678e-06
5.52745e-06
5.71504e-06
5.90947e-06
6.11163e-06
6.3214e-06
6.53939e-06
6.76557e-06
7.00076e-06
7.24496e-06
7.49878e-06
7.76243e-06
8.03658e-06
8.32139e-06
8.61753e-06
8.92542e-06
9.24557e-06
9.57847e-06
9.92474e-06
1.02849e-05
1.06595e-05
1.10493e-05
1.14549e-05
1.18769e-05
1.23163e-05
1.27733e-05
1.32493e-05
1.37448e-05
1.42607e-05
1.47979e-05
1.53573e-05
1.59402e-05
1.65471e-05
1.71793e-05
1.78382e-05
1.85244e-05
1.92398e-05
1.99852e-05
2.07618e-05
2.15716e-05
2.24157e-05
2.32959e-05
2.42134e-05
2.51702e-05
2.61675e-05
2.72077e-05
2.82922e-05
2.94233e-05
3.06029e-05
3.18302e-05
-8.33725e-08
-8.22026e-08
-8.10213e-08
-7.96497e-08
-7.80674e-08
-7.6196e-08
-7.42225e-08
-7.19861e-08
-6.95163e-08
-6.68034e-08
-6.3718e-08
-6.05013e-08
-5.67861e-08
-5.29433e-08
-4.86587e-08
-4.40343e-08
-3.90089e-08
-3.35629e-08
-2.7678e-08
-2.13903e-08
-1.4603e-08
-7.29847e-09
5.25949e-10
8.97159e-09
1.78865e-08
2.75969e-08
3.78264e-08
4.88365e-08
6.06009e-08
7.30564e-08
8.64341e-08
1.006e-07
1.15734e-07
1.31754e-07
1.48911e-07
1.67078e-07
1.86342e-07
2.06844e-07
2.285e-07
2.51618e-07
2.75958e-07
3.01871e-07
3.29214e-07
3.58217e-07
3.88957e-07
4.21409e-07
4.55838e-07
4.92111e-07
5.30554e-07
5.71186e-07
6.13993e-07
6.59327e-07
7.07194e-07
7.57613e-07
8.10936e-07
8.67181e-07
9.26524e-07
9.89045e-07
1.05509e-06
1.1247e-06
1.19798e-06
1.27534e-06
1.35677e-06
1.44257e-06
1.533e-06
1.62819e-06
1.72849e-06
1.83414e-06
1.94524e-06
2.06224e-06
2.18544e-06
2.31508e-06
2.45135e-06
2.59493e-06
2.74589e-06
2.90462e-06
3.07158e-06
3.2473e-06
3.43195e-06
3.62596e-06
3.83022e-06
4.04499e-06
4.27068e-06
4.50746e-06
4.75665e-06
5.01877e-06
5.2937e-06
5.58318e-06
5.88644e-06
6.20589e-06
6.54106e-06
6.89283e-06
7.2629e-06
7.65138e-06
8.05941e-06
8.48759e-06
8.93735e-06
9.40977e-06
9.905e-06
1.04245e-05
-2.83558e-07
-2.88484e-07
-2.93524e-07
-2.98587e-07
-3.03636e-07
-3.08743e-07
-3.13846e-07
-3.19015e-07
-3.24187e-07
-3.29351e-07
-3.34481e-07
-3.39687e-07
-3.44825e-07
-3.50005e-07
-3.55123e-07
-3.60207e-07
-3.65312e-07
-3.70311e-07
-3.75273e-07
-3.80202e-07
-3.85022e-07
-3.89819e-07
-3.9446e-07
-3.99033e-07
-4.03493e-07
-4.0778e-07
-4.11952e-07
-4.15972e-07
-4.19784e-07
-4.23456e-07
-4.26836e-07
-4.30097e-07
-4.3302e-07
-4.35694e-07
-4.38049e-07
-4.40129e-07
-4.41864e-07
-4.43178e-07
-4.4413e-07
-4.44625e-07
-4.44744e-07
-4.44231e-07
-4.43312e-07
-4.41779e-07
-4.3964e-07
-4.36826e-07
-4.3338e-07
-4.29177e-07
-4.24156e-07
-4.18312e-07
-4.11577e-07
-4.0391e-07
-3.95281e-07
-3.85483e-07
-3.7464e-07
-3.62545e-07
-3.49157e-07
-3.34459e-07
-3.18297e-07
-3.00604e-07
-2.81311e-07
-2.60169e-07
-2.37587e-07
-2.12707e-07
-1.86033e-07
-1.56937e-07
-1.26059e-07
-9.23072e-08
-5.63511e-08
-1.75221e-08
2.40855e-08
6.85621e-08
1.16194e-07
1.67256e-07
2.218e-07
2.79795e-07
3.41936e-07
4.08223e-07
4.78635e-07
5.53621e-07
6.33461e-07
7.18312e-07
8.0882e-07
9.04506e-07
1.00608e-06
1.11448e-06
1.22868e-06
1.35046e-06
1.47882e-06
1.61532e-06
1.75962e-06
1.91254e-06
2.07416e-06
2.24554e-06
2.4265e-06
2.61759e-06
2.81984e-06
3.03368e-06
3.25926e-06
3.49725e-06
-2.34274e-07
-2.38854e-07
-2.4347e-07
-2.48157e-07
-2.52888e-07
-2.577e-07
-2.62557e-07
-2.67466e-07
-2.72454e-07
-2.7747e-07
-2.82558e-07
-2.87666e-07
-2.9285e-07
-2.98104e-07
-3.03348e-07
-3.08634e-07
-3.14026e-07
-3.19363e-07
-3.24796e-07
-3.30237e-07
-3.35674e-07
-3.41183e-07
-3.46662e-07
-3.52177e-07
-3.57686e-07
-3.6317e-07
-3.68656e-07
-3.74142e-07
-3.79606e-07
-3.85027e-07
-3.90407e-07
-3.95731e-07
-4.01018e-07
-4.06239e-07
-4.11344e-07
-4.16403e-07
-4.21342e-07
-4.2616e-07
-4.30848e-07
-4.35383e-07
-4.3981e-07
-4.44019e-07
-4.4802e-07
-4.51854e-07
-4.55425e-07
-4.58715e-07
-4.61837e-07
-4.64605e-07
-4.67014e-07
-4.69066e-07
-4.70828e-07
-4.7219e-07
-4.73038e-07
-4.73359e-07
-4.73388e-07
-4.72774e-07
-4.71508e-07
-4.69689e-07
-4.67283e-07
-4.64184e-07
-4.60135e-07
-4.55463e-07
-4.49918e-07
-4.43494e-07
-4.36053e-07
-4.27462e-07
-4.18112e-07
-4.07234e-07
-3.95483e-07
-3.8214e-07
-3.67443e-07
-3.51433e-07
-3.33808e-07
-3.14597e-07
-2.9335e-07
-2.70729e-07
-2.45728e-07
-2.18827e-07
-1.8977e-07
-1.58347e-07
-1.24506e-07
-8.81233e-08
-4.89198e-08
-6.88087e-09
3.82065e-08
8.66868e-08
1.38216e-07
1.93594e-07
2.52642e-07
3.15529e-07
3.82981e-07
4.54573e-07
5.30918e-07
6.1232e-07
6.98793e-07
7.90584e-07
8.88226e-07
9.91898e-07
1.10226e-06
1.21885e-06
-1.55412e-07
-1.58543e-07
-1.61713e-07
-1.64924e-07
-1.68186e-07
-1.71505e-07
-1.74868e-07
-1.78249e-07
-1.81718e-07
-1.85215e-07
-1.88751e-07
-1.92344e-07
-1.95967e-07
-1.9966e-07
-2.03355e-07
-2.07114e-07
-2.10917e-07
-2.14745e-07
-2.18607e-07
-2.22527e-07
-2.26459e-07
-2.30428e-07
-2.34425e-07
-2.38441e-07
-2.42497e-07
-2.46558e-07
-2.50636e-07
-2.54739e-07
-2.58859e-07
-2.62973e-07
-2.67093e-07
-2.71197e-07
-2.7532e-07
-2.79428e-07
-2.83498e-07
-2.87569e-07
-2.91621e-07
-2.95572e-07
-2.99553e-07
-3.03455e-07
-3.07297e-07
-3.11109e-07
-3.14806e-07
-3.18426e-07
-3.2196e-07
-3.25311e-07
-3.28672e-07
-3.31854e-07
-3.34897e-07
-3.3774e-07
-3.40467e-07
-3.42985e-07
-3.4534e-07
-3.47352e-07
-3.4926e-07
-3.50892e-07
-3.52187e-07
-3.53149e-07
-3.53955e-07
-3.54333e-07
-3.5423e-07
-3.53919e-07
-3.52977e-07
-3.5181e-07
-3.50014e-07
-3.47699e-07
-3.44914e-07
-3.41373e-07
-3.37387e-07
-3.32668e-07
-3.27117e-07
-3.20924e-07
-3.13923e-07
-3.06108e-07
-2.9723e-07
-2.87523e-07
-2.76684e-07
-2.64874e-07
-2.51784e-07
-2.37618e-07
-2.21963e-07
-2.05132e-07
-1.8676e-07
-1.66896e-07
-1.45265e-07
-1.22074e-07
-9.69943e-08
-7.00704e-08
-4.09656e-08
-9.97739e-09
2.3593e-08
5.92598e-08
9.76211e-08
1.3861e-07
1.82455e-07
2.29176e-07
2.79006e-07
3.32054e-07
3.88824e-07
4.48946e-07
)
;
    }
    back
    {
        type            wedge;
        value           nonuniform List<scalar> 
500
(
1.1828e-06
1.21604e-06
1.25026e-06
1.28549e-06
1.32186e-06
1.35949e-06
1.39818e-06
1.43816e-06
1.4794e-06
1.52195e-06
1.56592e-06
1.61126e-06
1.65817e-06
1.70643e-06
1.75641e-06
1.80794e-06
1.86127e-06
1.91633e-06
1.97319e-06
2.03201e-06
2.09276e-06
2.15559e-06
2.22047e-06
2.28764e-06
2.35699e-06
2.42888e-06
2.50303e-06
2.57994e-06
2.65941e-06
2.74161e-06
2.82676e-06
2.91491e-06
3.00608e-06
3.10043e-06
3.19832e-06
3.29961e-06
3.4045e-06
3.51316e-06
3.62565e-06
3.74244e-06
3.86326e-06
3.98856e-06
4.11846e-06
4.25304e-06
4.39278e-06
4.53748e-06
4.68779e-06
4.84354e-06
5.00514e-06
5.17287e-06
5.34678e-06
5.52745e-06
5.71504e-06
5.90947e-06
6.11163e-06
6.3214e-06
6.53939e-06
6.76557e-06
7.00076e-06
7.24496e-06
7.49878e-06
7.76243e-06
8.03658e-06
8.32139e-06
8.61753e-06
8.92542e-06
9.24557e-06
9.57847e-06
9.92474e-06
1.02849e-05
1.06595e-05
1.10493e-05
1.14549e-05
1.18769e-05
1.23163e-05
1.27733e-05
1.32493e-05
1.37448e-05
1.42607e-05
1.47979e-05
1.53573e-05
1.59402e-05
1.65471e-05
1.71793e-05
1.78382e-05
1.85244e-05
1.92398e-05
1.99852e-05
2.07618e-05
2.15716e-05
2.24157e-05
2.32959e-05
2.42134e-05
2.51702e-05
2.61675e-05
2.72077e-05
2.82922e-05
2.94233e-05
3.06029e-05
3.18302e-05
-8.33725e-08
-8.22026e-08
-8.10213e-08
-7.96497e-08
-7.80674e-08
-7.6196e-08
-7.42225e-08
-7.19861e-08
-6.95163e-08
-6.68034e-08
-6.3718e-08
-6.05013e-08
-5.67861e-08
-5.29433e-08
-4.86587e-08
-4.40343e-08
-3.90089e-08
-3.35629e-08
-2.7678e-08
-2.13903e-08
-1.4603e-08
-7.29847e-09
5.25949e-10
8.97159e-09
1.78865e-08
2.75969e-08
3.78264e-08
4.88365e-08
6.06009e-08
7.30564e-08
8.64341e-08
1.006e-07
1.15734e-07
1.31754e-07
1.48911e-07
1.67078e-07
1.86342e-07
2.06844e-07
2.285e-07
2.51618e-07
2.75958e-07
3.01871e-07
3.29214e-07
3.58217e-07
3.88957e-07
4.21409e-07
4.55838e-07
4.92111e-07
5.30554e-07
5.71186e-07
6.13993e-07
6.59327e-07
7.07194e-07
7.57613e-07
8.10936e-07
8.67181e-07
9.26524e-07
9.89045e-07
1.05509e-06
1.1247e-06
1.19798e-06
1.27534e-06
1.35677e-06
1.44257e-06
1.533e-06
1.62819e-06
1.72849e-06
1.83414e-06
1.94524e-06
2.06224e-06
2.18544e-06
2.31508e-06
2.45135e-06
2.59493e-06
2.74589e-06
2.90462e-06
3.07158e-06
3.2473e-06
3.43195e-06
3.62596e-06
3.83022e-06
4.04499e-06
4.27068e-06
4.50746e-06
4.75665e-06
5.01877e-06
5.2937e-06
5.58318e-06
5.88644e-06
6.20589e-06
6.54106e-06
6.89283e-06
7.2629e-06
7.65138e-06
8.05941e-06
8.48759e-06
8.93735e-06
9.40977e-06
9.905e-06
1.04245e-05
-2.83558e-07
-2.88484e-07
-2.93524e-07
-2.98587e-07
-3.03636e-07
-3.08743e-07
-3.13846e-07
-3.19015e-07
-3.24187e-07
-3.29351e-07
-3.34481e-07
-3.39687e-07
-3.44825e-07
-3.50005e-07
-3.55123e-07
-3.60207e-07
-3.65312e-07
-3.70311e-07
-3.75273e-07
-3.80202e-07
-3.85022e-07
-3.89819e-07
-3.9446e-07
-3.99033e-07
-4.03493e-07
-4.0778e-07
-4.11952e-07
-4.15972e-07
-4.19784e-07
-4.23456e-07
-4.26836e-07
-4.30097e-07
-4.3302e-07
-4.35694e-07
-4.38049e-07
-4.40129e-07
-4.41864e-07
-4.43178e-07
-4.4413e-07
-4.44625e-07
-4.44744e-07
-4.44231e-07
-4.43312e-07
-4.41779e-07
-4.3964e-07
-4.36826e-07
-4.3338e-07
-4.29177e-07
-4.24156e-07
-4.18312e-07
-4.11577e-07
-4.0391e-07
-3.95281e-07
-3.85483e-07
-3.7464e-07
-3.62545e-07
-3.49157e-07
-3.34459e-07
-3.18297e-07
-3.00604e-07
-2.81311e-07
-2.60169e-07
-2.37587e-07
-2.12707e-07
-1.86033e-07
-1.56937e-07
-1.26059e-07
-9.23072e-08
-5.63511e-08
-1.75221e-08
2.40855e-08
6.85621e-08
1.16194e-07
1.67256e-07
2.218e-07
2.79795e-07
3.41936e-07
4.08223e-07
4.78635e-07
5.53621e-07
6.33461e-07
7.18312e-07
8.0882e-07
9.04506e-07
1.00608e-06
1.11448e-06
1.22868e-06
1.35046e-06
1.47882e-06
1.61532e-06
1.75962e-06
1.91254e-06
2.07416e-06
2.24554e-06
2.4265e-06
2.61759e-06
2.81984e-06
3.03368e-06
3.25926e-06
3.49725e-06
-2.34274e-07
-2.38854e-07
-2.4347e-07
-2.48157e-07
-2.52888e-07
-2.577e-07
-2.62557e-07
-2.67466e-07
-2.72454e-07
-2.7747e-07
-2.82558e-07
-2.87666e-07
-2.9285e-07
-2.98104e-07
-3.03348e-07
-3.08634e-07
-3.14026e-07
-3.19363e-07
-3.24796e-07
-3.30237e-07
-3.35674e-07
-3.41183e-07
-3.46662e-07
-3.52177e-07
-3.57686e-07
-3.6317e-07
-3.68656e-07
-3.74142e-07
-3.79606e-07
-3.85027e-07
-3.90407e-07
-3.95731e-07
-4.01018e-07
-4.06239e-07
-4.11344e-07
-4.16403e-07
-4.21342e-07
-4.2616e-07
-4.30848e-07
-4.35383e-07
-4.3981e-07
-4.44019e-07
-4.4802e-07
-4.51854e-07
-4.55425e-07
-4.58715e-07
-4.61837e-07
-4.64605e-07
-4.67014e-07
-4.69066e-07
-4.70828e-07
-4.7219e-07
-4.73038e-07
-4.73359e-07
-4.73388e-07
-4.72774e-07
-4.71508e-07
-4.69689e-07
-4.67283e-07
-4.64184e-07
-4.60135e-07
-4.55463e-07
-4.49918e-07
-4.43494e-07
-4.36053e-07
-4.27462e-07
-4.18112e-07
-4.07234e-07
-3.95483e-07
-3.8214e-07
-3.67443e-07
-3.51433e-07
-3.33808e-07
-3.14597e-07
-2.9335e-07
-2.70729e-07
-2.45728e-07
-2.18827e-07
-1.8977e-07
-1.58347e-07
-1.24506e-07
-8.81233e-08
-4.89198e-08
-6.88087e-09
3.82065e-08
8.66868e-08
1.38216e-07
1.93594e-07
2.52642e-07
3.15529e-07
3.82981e-07
4.54573e-07
5.30918e-07
6.1232e-07
6.98793e-07
7.90584e-07
8.88226e-07
9.91898e-07
1.10226e-06
1.21885e-06
-1.55412e-07
-1.58543e-07
-1.61713e-07
-1.64924e-07
-1.68186e-07
-1.71505e-07
-1.74868e-07
-1.78249e-07
-1.81718e-07
-1.85215e-07
-1.88751e-07
-1.92344e-07
-1.95967e-07
-1.9966e-07
-2.03355e-07
-2.07114e-07
-2.10917e-07
-2.14745e-07
-2.18607e-07
-2.22527e-07
-2.26459e-07
-2.30428e-07
-2.34425e-07
-2.38441e-07
-2.42497e-07
-2.46558e-07
-2.50636e-07
-2.54739e-07
-2.58859e-07
-2.62973e-07
-2.67093e-07
-2.71197e-07
-2.7532e-07
-2.79428e-07
-2.83498e-07
-2.87569e-07
-2.91621e-07
-2.95572e-07
-2.99553e-07
-3.03455e-07
-3.07297e-07
-3.11109e-07
-3.14806e-07
-3.18426e-07
-3.2196e-07
-3.25311e-07
-3.28672e-07
-3.31854e-07
-3.34897e-07
-3.3774e-07
-3.40467e-07
-3.42985e-07
-3.4534e-07
-3.47352e-07
-3.4926e-07
-3.50892e-07
-3.52187e-07
-3.53149e-07
-3.53955e-07
-3.54333e-07
-3.5423e-07
-3.53919e-07
-3.52977e-07
-3.5181e-07
-3.50014e-07
-3.47699e-07
-3.44914e-07
-3.41373e-07
-3.37387e-07
-3.32668e-07
-3.27117e-07
-3.20924e-07
-3.13923e-07
-3.06108e-07
-2.9723e-07
-2.87523e-07
-2.76684e-07
-2.64874e-07
-2.51784e-07
-2.37618e-07
-2.21963e-07
-2.05132e-07
-1.8676e-07
-1.66896e-07
-1.45265e-07
-1.22074e-07
-9.69943e-08
-7.00704e-08
-4.09656e-08
-9.97739e-09
2.3593e-08
5.92598e-08
9.76211e-08
1.3861e-07
1.82455e-07
2.29176e-07
2.79006e-07
3.32054e-07
3.88824e-07
4.48946e-07
)
;
    }
}


// ************************************************************************* //
