/*--------------------------------*- C++ -*----------------------------------*\
| =========                 |                                                 |
| \\      /  F ield         | OpenFOAM: The Open Source CFD Toolbox           |
|  \\    /   O peration     | Version:  4.1                                   |
|   \\  /    A nd           | Web:      www.OpenFOAM.org                      |
|    \\/     M anipulation  |                                                 |
\*---------------------------------------------------------------------------*/
FoamFile
{
    version     2.0;
    format      ascii;
    class       volVectorField;
    location    "5.5";
    object      U;
}
// * * * * * * * * * * * * * * * * * * * * * * * * * * * * * * * * * * * * * //

dimensions      [0 1 -1 0 0 0 0];

internalField   nonuniform List<vector> 
500
(
(3.00001 -6.15325e-08 4.38078e-17)
(3 -5.26348e-08 8.52792e-20)
(3 -1.97642e-08 9.95168e-18)
(3 -1.18924e-08 1.33278e-24)
(3 -4.48892e-09 1.23326e-23)
(3.00001 -2.08234e-07 4.35811e-17)
(3 -1.80096e-07 1.72344e-19)
(3 -6.92136e-08 1.00384e-17)
(3 -3.87747e-08 1.51734e-17)
(3 -1.34419e-08 1.23434e-23)
(3.00002 -4.40193e-07 8.67024e-17)
(3.00001 -3.8474e-07 2.633e-19)
(3 -1.50151e-07 1.03732e-17)
(3 -7.94024e-08 2.9786e-17)
(3 -2.61069e-08 1.31697e-23)
(3.00002 -7.59377e-07 8.63164e-17)
(3.00001 -6.70464e-07 1.5442e-17)
(3.00001 -2.64556e-07 3.02677e-17)
(3.00001 -1.32846e-07 2.88397e-17)
(3.00001 -4.21151e-08 2.28879e-23)
(3.00003 -1.16821e-06 4.31267e-17)
(3.00001 -1.04074e-06 3.02205e-17)
(3.00001 -4.14315e-07 1.07637e-17)
(3.00001 -1.98892e-07 2.7905e-17)
(3.00001 -6.13403e-08 2.45009e-23)
(3.00003 -1.6694e-06 4.30542e-17)
(3.00001 -1.49891e-06 3.02222e-17)
(3.00001 -6.01165e-07 3.0396e-17)
(3.00001 -2.77548e-07 2.65619e-17)
(3.00001 -8.3789e-08 -1.27224e-17)
(3.00004 -2.26575e-06 4.29805e-17)
(3.00002 -2.04827e-06 3.022e-17)
(3.00001 -8.26779e-07 3.00305e-17)
(3.00001 -3.68937e-07 1.05181e-17)
(3.00001 -1.09544e-07 -1.27224e-17)
(3.00004 -2.96024e-06 4.29051e-17)
(3.00002 -2.69198e-06 3.02142e-17)
(3.00001 -1.09273e-06 2.96494e-17)
(3.00001 -4.73289e-07 9.71883e-18)
(3.00001 -1.38733e-07 -1.27223e-17)
(3.00004 -3.75591e-06 9.35408e-19)
(3.00002 -3.43317e-06 3.03931e-17)
(3.00001 -1.40052e-06 4.79697e-17)
(3.00001 -5.90862e-07 -5.59671e-18)
(3.00001 -1.71512e-07 -1.27223e-17)
(3.00005 -4.65586e-06 4.27538e-17)
(3.00002 -4.27485e-06 3.05629e-17)
(3.00002 -1.75159e-06 4.69105e-17)
(3.00001 -7.21962e-07 -6.29604e-18)
(3.00001 -2.08058e-07 -2.51519e-17)
(3.00005 -5.66325e-06 1.2969e-18)
(3.00003 -5.21998e-06 3.05261e-17)
(3.00002 -2.14729e-06 2.70771e-17)
(3.00002 -8.66882e-07 -7.43419e-18)
(3.00002 -2.48557e-07 -3.75057e-17)
(3.00006 -6.78119e-06 1.48232e-18)
(3.00003 -6.27141e-06 3.02848e-17)
(3.00002 -2.5889e-06 8.01569e-18)
(3.00002 -1.02591e-06 5.68057e-18)
(3.00002 -2.93205e-07 -3.75055e-17)
(3.00007 -8.01288e-06 8.33705e-17)
(3.00003 -7.43188e-06 3.00371e-17)
(3.00002 -3.07758e-06 7.64073e-18)
(3.00002 -1.19933e-06 -1.00884e-17)
(3.00002 -3.42201e-07 -3.75054e-17)
(3.00007 -9.36137e-06 8.31988e-17)
(3.00003 -8.70403e-06 5.76078e-17)
(3.00002 -3.61443e-06 -1.14159e-17)
(3.00002 -1.38736e-06 -2.4709e-17)
(3.00002 -3.95745e-07 -2.53853e-17)
(3.00008 -1.08298e-05 1.63448e-16)
(3.00004 -1.00903e-05 2.89782e-17)
(3.00003 -4.2004e-06 -1.17027e-17)
(3.00002 -1.59022e-06 -2.47355e-17)
(3.00002 -4.54037e-07 -2.53852e-17)
(3.00008 -1.2421e-05 1.62517e-16)
(3.00004 -1.15931e-05 2.84996e-17)
(3.00003 -4.83637e-06 -1.2293e-17)
(3.00002 -1.80806e-06 -3.85825e-17)
(3.00002 -5.17274e-07 -2.53851e-17)
(3.00009 -1.41381e-05 1.61569e-16)
(3.00004 -1.32146e-05 2.77978e-17)
(3.00003 -5.52304e-06 -3.08502e-17)
(3.00003 -2.041e-06 -3.80422e-17)
(3.00003 -5.85653e-07 -2.5385e-17)
(3.00009 -1.59838e-05 1.60606e-16)
(3.00005 -1.49567e-05 2.70889e-17)
(3.00003 -6.26102e-06 -3.10022e-17)
(3.00003 -2.2891e-06 -3.7514e-17)
(3.00003 -6.59362e-07 -2.53849e-17)
(3.0001 -1.79606e-05 1.59625e-16)
(3.00005 -1.68212e-05 2.65907e-17)
(3.00003 -7.05076e-06 -1.34305e-17)
(3.00003 -2.55238e-06 -3.69983e-17)
(3.00003 -7.38586e-07 -2.53848e-17)
(3.0001 -2.00713e-05 1.58825e-16)
(3.00005 -1.88096e-05 5.27047e-17)
(3.00004 -7.89252e-06 -3.18569e-17)
(3.00003 -2.8308e-06 -4.93809e-17)
(3.00003 -8.23504e-07 -1.37614e-17)
(3.00011 -2.23181e-05 2.34996e-16)
(3.00006 -2.09232e-05 2.51969e-17)
(3.00004 -8.78649e-06 -1.51285e-17)
(3.00004 -3.12426e-06 -6.10872e-17)
(3.00003 -9.14284e-07 -1.37613e-17)
(3.00011 -2.47031e-05 3.10163e-16)
(3.00006 -2.31629e-05 5.13106e-17)
(3.00004 -9.73254e-06 7.61405e-19)
(3.00004 -3.43263e-06 -7.21253e-17)
(3.00004 -1.01109e-06 -1.37613e-17)
(3.00012 -2.72283e-05 3.0811e-16)
(3.00006 -2.55294e-05 5.06157e-17)
(3.00004 -1.07305e-05 -1.0019e-18)
(3.00004 -3.75567e-06 -6.94517e-17)
(3.00004 -1.11408e-06 -1.37612e-17)
(3.00012 -2.98953e-05 3.81406e-16)
(3.00007 -2.8023e-05 4.96632e-17)
(3.00005 -1.17799e-05 -1.9723e-17)
(3.00004 -4.09315e-06 -6.79048e-17)
(3.00004 -1.22339e-06 -3.63037e-17)
(3.00013 -3.27056e-05 3.03909e-16)
(3.00007 -3.06438e-05 4.86985e-17)
(3.00005 -1.28802e-05 -2.02436e-17)
(3.00004 -4.44471e-06 -3.96945e-17)
(3.00004 -1.33915e-06 -1.39421e-17)
(3.00013 -3.56601e-05 3.75686e-16)
(3.00007 -3.33912e-05 2.21568e-17)
(3.00005 -1.40306e-05 -2.0109e-17)
(3.00005 -4.80998e-06 -1.51823e-17)
(3.00005 -1.46148e-06 -5.82986e-17)
(3.00014 -3.87598e-05 3.72436e-16)
(3.00008 -3.62644e-05 -3.80203e-18)
(3.00006 -1.52298e-05 -2.00624e-17)
(3.00005 -5.18851e-06 -1.8391e-17)
(3.00005 -1.5905e-06 -8.02915e-17)
(3.00014 -4.2005e-05 3.69128e-16)
(3.00008 -3.92624e-05 -4.03983e-18)
(3.00006 -1.64769e-05 -2.01018e-17)
(3.00005 -5.57977e-06 -2.14972e-17)
(3.00005 -1.72629e-06 -8.02911e-17)
(3.00015 -4.53958e-05 3.65739e-16)
(3.00008 -4.23832e-05 -4.29128e-18)
(3.00006 -1.77702e-05 -2.095e-17)
(3.00006 -5.98323e-06 -5.03047e-17)
(3.00005 -1.86893e-06 -1.01908e-16)
(3.00015 -4.89318e-05 3.62267e-16)
(3.00009 -4.56249e-05 -4.06858e-18)
(3.00006 -1.9108e-05 1.03986e-17)
(3.00006 -6.39821e-06 -5.1874e-17)
(3.00006 -2.01849e-06 -8.0481e-17)
(3.00016 -5.26122e-05 2.87808e-16)
(3.00009 -4.89848e-05 -3.87392e-18)
(3.00007 -2.04884e-05 8.5403e-18)
(3.00006 -6.82406e-06 -5.33884e-17)
(3.00006 -2.17501e-06 -8.04806e-17)
(3.00016 -5.6436e-05 2.84915e-16)
(3.00009 -5.24598e-05 -4.20455e-18)
(3.00007 -2.19091e-05 -2.49223e-17)
(3.00007 -7.26003e-06 -5.37142e-17)
(3.00006 -2.33851e-06 -5.94414e-17)
(3.00017 -6.04014e-05 3.51653e-16)
(3.0001 -5.60462e-05 -4.05995e-18)
(3.00008 -2.33679e-05 4.81999e-18)
(3.00007 -7.70528e-06 -7.6605e-17)
(3.00007 -2.50901e-06 -3.86032e-17)
(3.00017 -6.45064e-05 3.47725e-16)
(3.0001 -5.97398e-05 -5.09516e-17)
(3.00008 -2.48619e-05 3.33333e-17)
(3.00007 -8.15902e-06 -7.56405e-17)
(3.00007 -2.6865e-06 -5.92676e-17)
(3.00018 -6.87484e-05 3.43391e-16)
(3.00011 -6.35361e-05 -9.66223e-17)
(3.00008 -2.63883e-05 3.06767e-17)
(3.00008 -8.62026e-06 -5.15024e-17)
(3.00007 -2.87095e-06 -5.93124e-17)
(3.00018 -7.31241e-05 2.71536e-16)
(3.00011 -6.74297e-05 -9.45109e-17)
(3.00009 -2.7944e-05 2.80784e-17)
(3.00008 -9.08811e-06 -5.07966e-17)
(3.00008 -3.0623e-06 -3.91309e-17)
(3.00019 -7.76302e-05 2.67932e-16)
(3.00012 -7.14149e-05 -9.24519e-17)
(3.00009 -2.95255e-05 2.48004e-17)
(3.00008 -9.56154e-06 -7.28297e-17)
(3.00008 -3.26048e-06 -3.91855e-17)
(3.00019 -8.22623e-05 2.64311e-16)
(3.00012 -7.54855e-05 -9.04562e-17)
(3.00009 -3.11295e-05 2.08919e-17)
(3.00009 -1.00395e-05 -9.32731e-17)
(3.00009 -3.46542e-06 -3.9219e-17)
(3.0002 -8.70161e-05 2.6018e-16)
(3.00012 -7.96346e-05 -1.34135e-16)
(3.0001 -3.27519e-05 -1.22271e-17)
(3.00009 -1.05209e-05 -8.99828e-17)
(3.00009 -3.67697e-06 -3.92349e-17)
(3.0002 -9.18862e-05 2.55058e-16)
(3.00013 -8.38549e-05 -2.21124e-16)
(3.0001 -3.4389e-05 -1.40543e-17)
(3.0001 -1.10047e-05 -6.49059e-17)
(3.00009 -3.89502e-06 -3.9247e-17)
(3.0002 -9.68669e-05 1.22305e-16)
(3.00013 -8.81387e-05 -1.73683e-16)
(3.00011 -3.60365e-05 -4.30039e-17)
(3.0001 -1.14897e-05 -1.99423e-17)
(3.0001 -4.1194e-06 -3.92628e-17)
(3.00021 -0.000101952 2.45737e-16)
(3.00014 -9.24774e-05 -1.70636e-16)
(3.00011 -3.769e-05 -1.46763e-17)
(3.0001 -1.19747e-05 -4.38049e-17)
(3.0001 -4.34993e-06 -5.8275e-17)
(3.00021 -0.000107136 2.41058e-16)
(3.00014 -9.68626e-05 -1.67077e-16)
(3.00012 -3.93453e-05 1.2272e-17)
(3.00011 -1.24586e-05 -4.47369e-17)
(3.00011 -4.58641e-06 -5.82741e-17)
(3.00022 -0.00011241 2.3686e-16)
(3.00015 -0.000101285 -1.21491e-16)
(3.00012 -4.09975e-05 -1.60328e-17)
(3.00011 -1.29403e-05 -3.84393e-18)
(3.00011 -4.82862e-06 -5.8251e-17)
(3.00022 -0.000117767 3.5495e-16)
(3.00015 -0.000105735 -1.20454e-16)
(3.00013 -4.26421e-05 -7.04523e-17)
(3.00012 -1.34185e-05 -7.47373e-18)
(3.00012 -5.07631e-06 -5.82087e-17)
(3.00023 -0.0001232 4.69575e-16)
(3.00016 -0.000110202 -1.61529e-16)
(3.00013 -4.42745e-05 -9.52206e-17)
(3.00012 -1.3892e-05 -1.09105e-17)
(3.00012 -5.32922e-06 -5.81577e-17)
(3.00023 -0.0001287 5.81223e-16)
(3.00016 -0.000114677 -1.60103e-16)
(3.00014 -4.58895e-05 -9.06422e-17)
(3.00013 -1.43599e-05 2.35146e-17)
(3.00013 -5.58708e-06 -9.39576e-17)
(3.00024 -0.000134258 6.8938e-16)
(3.00017 -0.000119149 -1.99145e-16)
(3.00014 -4.74826e-05 -8.56219e-17)
(3.00013 -1.48209e-05 3.75598e-17)
(3.00013 -5.8496e-06 -5.85099e-17)
(3.00024 -0.000139864 6.77629e-16)
(3.00017 -0.000123608 -2.36716e-16)
(3.00015 -4.9049e-05 -8.09965e-17)
(3.00014 -1.52739e-05 3.06865e-17)
(3.00014 -6.11645e-06 -5.84842e-17)
(3.00024 -0.000145511 6.65884e-16)
(3.00018 -0.000128041 -2.33282e-16)
(3.00015 -5.05837e-05 -7.66457e-17)
(3.00014 -1.57178e-05 2.6716e-17)
(3.00014 -6.38726e-06 -2.39328e-17)
(3.00025 -0.000151188 6.54161e-16)
(3.00018 -0.00013244 -2.29187e-16)
(3.00016 -5.20825e-05 -4.72453e-17)
(3.00015 -1.61518e-05 2.29785e-17)
(3.00015 -6.66181e-06 -2.39091e-17)
(3.00025 -0.000156884 5.29529e-16)
(3.00019 -0.000136792 -3.01968e-16)
(3.00016 -5.35401e-05 -4.45675e-17)
(3.00016 -1.65748e-05 1.69417e-17)
(3.00015 -6.93963e-06 -5.75213e-17)
(3.00026 -0.000162592 4.10548e-16)
(3.0002 -0.000141087 -2.96007e-16)
(3.00017 -5.49527e-05 -4.21972e-17)
(3.00016 -1.6986e-05 1.12757e-17)
(3.00016 -7.22041e-06 -5.74851e-17)
(3.00026 -0.0001683 3.99419e-16)
(3.0002 -0.000145314 -2.91135e-16)
(3.00018 -5.63156e-05 -8.86508e-17)
(3.00017 -1.73845e-05 5.9617e-18)
(3.00017 -7.50383e-06 -5.7454e-17)
(3.00027 -0.000173999 6.03853e-16)
(3.00021 -0.000149463 -2.86167e-16)
(3.00018 -5.76249e-05 -8.31486e-17)
(3.00017 -1.77697e-05 3.68178e-17)
(3.00017 -7.7894e-06 -5.74378e-17)
(3.00027 -0.00017968 5.91138e-16)
(3.00021 -0.000153523 -2.81143e-16)
(3.00019 -5.88773e-05 -7.82505e-17)
(3.00018 -1.81411e-05 2.67502e-17)
(3.00018 -8.07692e-06 -8.9293e-17)
(3.00028 -0.00018533 5.77583e-16)
(3.00022 -0.000157483 -3.46475e-16)
(3.0002 -6.00678e-05 -2.56868e-17)
(3.00019 -1.84976e-05 5.71769e-17)
(3.00019 -8.36587e-06 -2.65056e-17)
(3.00028 -0.000190944 6.659e-16)
(3.00023 -0.000161338 -4.07978e-16)
(3.0002 -6.11959e-05 -2.23081e-17)
(3.00019 -1.88396e-05 4.77417e-17)
(3.00019 -8.656e-06 -5.74804e-17)
(3.00028 -0.000196507 6.49947e-16)
(3.00023 -0.000165071 -3.98186e-16)
(3.00021 -6.22554e-05 -2.10126e-17)
(3.0002 -1.91659e-05 5.29444e-18)
(3.0002 -8.94688e-06 -5.75004e-17)
(3.00029 -0.000202014 6.33106e-16)
(3.00024 -0.000168681 -4.56386e-16)
(3.00021 -6.32463e-05 2.43221e-17)
(3.00021 -1.94768e-05 -2.37459e-20)
(3.00021 -9.23816e-06 -5.75091e-17)
(3.00029 -0.000207457 6.165e-16)
(3.00024 -0.000172158 -4.44409e-16)
(3.00022 -6.41669e-05 2.44879e-17)
(3.00021 -1.97726e-05 2.76169e-17)
(3.00021 -9.52968e-06 -5.75018e-17)
(3.0003 -0.000212818 6.00162e-16)
(3.00025 -0.000175486 -4.32473e-16)
(3.00023 -6.50102e-05 2.44078e-17)
(3.00022 -2.00512e-05 2.27414e-17)
(3.00022 -9.82065e-06 -2.83352e-17)
(3.0003 -0.000218107 5.84071e-16)
(3.00026 -0.000178676 -4.21677e-16)
(3.00024 -6.57846e-05 -1.66185e-17)
(3.00023 -2.03161e-05 4.69647e-17)
(3.00023 -1.01115e-05 -5.69846e-17)
(3.00031 -0.000223294 7.55488e-16)
(3.00026 -0.000181702 -4.1086e-16)
(3.00024 -6.64784e-05 -1.38831e-17)
(3.00024 -2.0564e-05 3.50168e-17)
(3.00023 -1.04011e-05 -8.51738e-17)
(3.00031 -0.000228386 7.35577e-16)
(3.00027 -0.000184568 -4.6323e-16)
(3.00025 -6.70963e-05 -1.03344e-17)
(3.00024 -2.07966e-05 5.4569e-17)
(3.00024 -1.06896e-05 -8.51301e-17)
(3.00032 -0.000233381 7.15753e-16)
(3.00028 -0.00018728 -4.50678e-16)
(3.00026 -6.76441e-05 -9.22991e-18)
(3.00025 -2.10166e-05 1.1899e-17)
(3.00025 -1.09772e-05 -8.51025e-17)
(3.00032 -0.000238244 6.96115e-16)
(3.00028 -0.0001898 -4.38221e-16)
(3.00026 -6.81028e-05 -8.68491e-18)
(3.00026 -2.12175e-05 2.87919e-18)
(3.00025 -1.1262e-05 -8.50997e-17)
(3.00033 -0.000243005 8.53008e-16)
(3.00029 -0.000192168 -3.65824e-16)
(3.00027 -6.84995e-05 -8.59477e-18)
(3.00026 -2.14094e-05 -5.4455e-18)
(3.00026 -1.15461e-05 -8.51239e-17)
(3.00033 -0.00024764 8.32079e-16)
(3.0003 -0.000194351 -3.54298e-16)
(3.00028 -6.88115e-05 2.91738e-17)
(3.00027 -2.15837e-05 -1.31055e-17)
(3.00027 -1.1827e-05 -8.51695e-17)
(3.00033 -0.000252113 8.12528e-16)
(3.0003 -0.000196334 -2.83969e-16)
(3.00028 -6.90481e-05 6.38258e-17)
(3.00028 -2.17458e-05 -2.01343e-17)
(3.00027 -1.21057e-05 -8.52258e-17)
(3.00034 -0.000256502 6.28066e-16)
(3.00031 -0.000198178 -2.17882e-16)
(3.00029 -6.9222e-05 2.20944e-17)
(3.00028 -2.18969e-05 -2.65668e-17)
(3.00028 -1.23818e-05 -8.528e-17)
(3.00034 -0.000260684 6.1287e-16)
(3.00031 -0.000199785 -2.10679e-16)
(3.00029 -6.93096e-05 2.17498e-17)
(3.00029 -2.20332e-05 1.6113e-17)
(3.00028 -1.26545e-05 -1.34447e-16)
(3.00034 -0.000264739 5.97781e-16)
(3.00031 -0.000201224 -2.03705e-16)
(3.0003 -6.93295e-05 2.05692e-17)
(3.00029 -2.2157e-05 9.49855e-19)
(3.00029 -1.29233e-05 -1.34213e-16)
(3.00034 -0.000268674 5.82833e-16)
(3.00032 -0.000202511 -1.97063e-16)
(3.0003 -6.92955e-05 1.56888e-17)
(3.00029 -2.22749e-05 -6.42381e-17)
(3.00029 -1.31895e-05 -1.34102e-16)
(3.00034 -0.000272313 5.68066e-16)
(3.00032 -0.000203502 -1.90733e-16)
(3.0003 -6.91669e-05 1.06058e-17)
(3.00029 -2.2375e-05 -7.1526e-17)
(3.00029 -1.34498e-05 -1.34177e-16)
(3.00034 -0.000275817 7.03844e-16)
(3.00031 -0.00020432 -2.36334e-16)
(3.0003 -6.89604e-05 5.36691e-18)
(3.00029 -2.24565e-05 -7.81538e-17)
(3.00029 -1.37027e-05 -1.34321e-16)
(3.00033 -0.000279133 6.85591e-16)
(3.00031 -0.00020496 -2.28651e-16)
(3.0003 -6.87118e-05 2.62662e-18)
(3.00029 -2.25381e-05 -4.05961e-17)
(3.00029 -1.39525e-05 -1.79311e-16)
(3.00033 -0.000282231 8.13096e-16)
(3.00031 -0.00020539 -2.19249e-16)
(3.00029 -6.83989e-05 6.31387e-17)
(3.00029 -2.26076e-05 -5.54961e-17)
(3.00029 -1.41948e-05 -1.79331e-16)
(3.00032 -0.000285072 7.92518e-16)
(3.0003 -0.000205588 -2.08236e-16)
(3.00029 -6.80143e-05 1.17718e-16)
(3.00028 -2.26621e-05 -6.89322e-17)
(3.00028 -1.4428e-05 -1.79292e-16)
(3.00031 -0.000287658 7.72332e-16)
(3.0003 -0.000205572 -1.97776e-16)
(3.00028 -6.75703e-05 1.05289e-16)
(3.00028 -2.27046e-05 -8.10301e-17)
(3.00028 -1.4651e-05 -1.79222e-16)
(3.0003 -0.000289948 7.52618e-16)
(3.00029 -0.00020533 -1.85815e-16)
(3.00027 -6.70695e-05 1.53011e-16)
(3.00027 -2.27344e-05 -9.18995e-17)
(3.00027 -1.48617e-05 -1.79134e-16)
(3.00029 -0.000291902 7.33345e-16)
(3.00028 -0.000204838 -1.74598e-16)
(3.00027 -6.64979e-05 1.36826e-16)
(3.00026 -2.27442e-05 -1.0163e-16)
(3.00026 -1.50558e-05 -1.79019e-16)
(3.00028 -0.00029348 4.49919e-16)
(3.00027 -0.000204105 -2.53945e-16)
(3.00025 -6.58747e-05 1.21308e-16)
(3.00025 -2.27373e-05 -1.05754e-16)
(3.00025 -1.5231e-05 -1.39065e-16)
(3.00026 -0.000294639 4.35022e-16)
(3.00025 -0.00020312 -2.39138e-16)
(3.00024 -6.51953e-05 1.59858e-16)
(3.00024 -2.27112e-05 -1.55311e-16)
(3.00024 -1.5383e-05 -1.77751e-16)
(3.00025 -0.000295295 4.22154e-16)
(3.00024 -0.000201844 -1.37444e-16)
(3.00023 -6.44401e-05 1.92014e-16)
(3.00022 -2.26492e-05 -1.93594e-16)
(3.00022 -1.55032e-05 -1.39175e-16)
(3.00023 -0.000295396 4.11058e-16)
(3.00023 -0.000200286 -4.18811e-17)
(3.00022 -6.36291e-05 1.67291e-16)
(3.00021 -2.2558e-05 -1.86466e-16)
(3.00021 -1.55886e-05 -1.38482e-16)
(3.00021 -0.000294876 3.99705e-16)
(3.00021 -0.000198425 -3.25038e-17)
(3.0002 -6.27485e-05 1.9802e-16)
(3.0002 -2.24266e-05 -1.70982e-16)
(3.0002 -1.56316e-05 -6.44246e-17)
(3.0002 -0.000293685 3.879e-16)
(3.0002 -0.000196278 -2.57513e-17)
(3.00019 -6.18186e-05 1.26092e-16)
(3.00018 -2.22554e-05 -1.18832e-16)
(3.00018 -1.56269e-05 -6.29664e-17)
(3.00018 -0.000291795 3.75468e-16)
(3.00018 -0.000193861 -2.12226e-17)
(3.00017 -6.08452e-05 6.11609e-17)
(3.00017 -2.20461e-05 -1.1005e-16)
(3.00017 -1.55703e-05 -6.10066e-17)
(3.00016 -0.000289121 3.60627e-16)
(3.00017 -0.00019112 -9.17232e-17)
(3.00016 -5.97864e-05 9.87118e-17)
(3.00015 -2.17669e-05 -1.37538e-16)
(3.00015 -1.54499e-05 -5.84837e-17)
(3.00014 -0.000285592 3.4523e-16)
(3.00015 -0.000188024 -8.06931e-17)
(3.00014 -5.86534e-05 1.33705e-16)
(3.00014 -2.14322e-05 -1.24606e-16)
(3.00014 -1.52683e-05 -5.5371e-17)
(3.00012 -0.000281296 3.29326e-16)
(3.00013 -0.000184665 -6.96737e-17)
(3.00013 -5.74804e-05 1.24225e-16)
(3.00012 -2.10493e-05 -4.36091e-17)
(3.00012 -1.5027e-05 -5.17009e-17)
(3.00011 -0.000276334 3.11355e-16)
(3.00012 -0.000181118 -1.29539e-16)
(3.00011 -5.62875e-05 1.10459e-16)
(3.00011 -2.06247e-05 -1.15541e-16)
(3.0001 -1.47299e-05 -1.1125e-16)
(3.00009 -0.000270738 2.9321e-16)
(3.0001 -0.000177376 -1.1606e-16)
(3.00009 -5.50647e-05 9.81686e-17)
(3.00009 -2.0155e-05 -1.10552e-16)
(3.00009 -1.43802e-05 -1.06801e-16)
(3.00007 -0.000264572 2.75031e-16)
(3.00009 -0.000173433 -1.02997e-16)
(3.00008 -5.37898e-05 8.18428e-17)
(3.00008 -1.96368e-05 -1.76968e-16)
(3.00008 -1.39841e-05 -1.62887e-16)
(3.00006 -0.000257918 2.58464e-16)
(3.00007 -0.000169308 -2.72755e-17)
(3.00007 -5.24681e-05 -1.73514e-17)
(3.00006 -1.90759e-05 -1.70551e-16)
(3.00006 -1.35499e-05 -1.58258e-16)
(3.00005 -0.000251022 5.17154e-17)
(3.00006 -0.0001652 -2.43013e-17)
(3.00005 -5.11904e-05 -1.08267e-16)
(3.00005 -1.85051e-05 -1.72165e-16)
(3.00005 -1.30915e-05 -2.11629e-16)
(3.00004 -0.000243988 2.24897e-16)
(3.00005 -0.000161138 -2.12385e-17)
(3.00005 -4.99554e-05 -1.14468e-16)
(3.00004 -1.79301e-05 -2.31945e-16)
(3.00004 -1.26157e-05 -2.07511e-16)
(3.00004 -0.000236876 3.88371e-16)
(3.00006 -0.000157115 -1.8107e-17)
(3.00005 -4.87438e-05 -1.19912e-16)
(3.00005 -1.73478e-05 -2.24807e-16)
(3.00004 -1.21258e-05 -2.03712e-16)
(3 -0.00022981 1.90289e-16)
(3.00002 -0.000153162 -1.15856e-17)
(3.00001 -4.7526e-05 -4.44053e-17)
(3.00001 -1.67692e-05 -1.69885e-16)
(3.00001 -1.16456e-05 -2.53706e-16)
)
;

boundaryField
{
    axis
    {
        type            empty;
    }
    inlet
    {
        type            fixedValue;
        value           uniform (3 0 0);
    }
    wall
    {
        type            zeroGradient;
    }
    outlet
    {
        type            zeroGradient;
    }
    front
    {
        type            wedge;
    }
    back
    {
        type            wedge;
    }
}


// ************************************************************************* //
