/*--------------------------------*- C++ -*----------------------------------*\
| =========                 |                                                 |
| \\      /  F ield         | OpenFOAM: The Open Source CFD Toolbox           |
|  \\    /   O peration     | Version:  4.1                                   |
|   \\  /    A nd           | Web:      www.OpenFOAM.org                      |
|    \\/     M anipulation  |                                                 |
\*---------------------------------------------------------------------------*/
FoamFile
{
    version     2.0;
    format      ascii;
    class       volScalarField;
    location    "9.02";
    object      Ma;
}
// * * * * * * * * * * * * * * * * * * * * * * * * * * * * * * * * * * * * * //

dimensions      [0 0 0 0 0 0 0];

internalField   nonuniform List<scalar> 
52500
(
3.00001
2.99996
2.99988
2.99959
2.99917
2.99749
2.99511
2.98573
2.97097
2.92087
2.81453
2.55544
1.94244
1.03755
0.426544
0.323178
0.344493
0.345069
0.31419
0.262274
0.211061
0.168636
0.12665
0.0799722
0.0460065
3.00001
2.99996
2.99988
2.99959
2.99918
2.99752
2.99516
2.98588
2.97127
2.92166
2.81619
2.55984
1.94955
1.047
0.43278
0.324004
0.345842
0.346954
0.316391
0.265241
0.215269
0.174361
0.13468
0.0934872
0.069508
3.00001
2.99996
2.99989
2.9996
2.9992
2.99757
2.99527
2.98619
2.97189
2.92329
2.81968
2.56903
1.96512
1.06812
0.44718
0.326815
0.349907
0.352504
0.323064
0.274158
0.227344
0.190259
0.156037
0.123996
0.108923
3.00001
2.99996
2.99989
2.99962
2.99923
2.99766
2.99543
2.98666
2.97283
2.92577
2.82502
2.58301
1.98933
1.10149
0.469237
0.330919
0.356354
0.361548
0.334078
0.28845
0.246181
0.214096
0.18614
0.162105
0.152181
3.00001
2.99996
2.9999
2.99964
2.99927
2.99777
2.99565
2.98732
2.97409
2.92928
2.83204
2.60166
2.0226
1.14841
0.498944
0.336201
0.365024
0.373761
0.34876
0.307283
0.269929
0.243487
0.221575
0.203897
0.197681
3.00002
2.99997
2.99991
2.99966
2.99932
2.99793
2.99593
2.98826
2.97564
2.93419
2.84095
2.62494
2.06489
1.21037
0.535589
0.341887
0.375234
0.388608
0.366446
0.330143
0.298226
0.277454
0.261937
0.25041
0.247866
3.00002
2.99997
2.99992
2.99969
2.99937
2.99809
2.99624
2.98921
2.97744
2.93941
2.8527
2.65248
2.12032
1.29021
0.580615
0.349587
0.387857
0.406247
0.387147
0.356105
0.33072
0.316213
0.307409
0.302967
0.306281
3.00002
2.99998
2.99992
2.99972
2.99943
2.99824
2.99656
2.99001
2.97945
2.94416
2.86686
2.68142
2.20022
1.39648
0.639759
0.365746
0.406892
0.42922
0.412492
0.386363
0.367036
0.359629
0.358843
0.363758
0.377848
3.00002
2.99998
2.99993
2.99974
2.99948
2.9984
2.99687
2.99076
2.98156
2.9486
2.88465
2.71492
2.2965
1.53035
0.712231
0.394588
0.435615
0.45881
0.443593
0.422654
0.409052
0.408174
0.416862
0.436693
0.474404
3.00002
2.99999
2.99995
2.99978
2.99955
2.99861
2.99726
2.99201
2.98384
2.95527
2.90048
2.74951
2.39431
1.67171
0.797502
0.442199
0.477691
0.494323
0.481326
0.464669
0.45649
0.461879
0.484134
0.53144
0.633333
2.99999
2.99994
2.99986
2.99957
2.99916
2.99747
2.99509
2.98571
2.97095
2.92083
2.81449
2.55536
1.94235
1.03739
0.426354
0.323
0.344314
0.34488
0.313977
0.262018
0.210743
0.168235
0.12611
0.0791032
0.0444558
2.99999
2.99994
2.99987
2.99957
2.99916
2.9975
2.99514
2.98586
2.97125
2.92162
2.81615
2.55976
1.94947
1.04685
0.432596
0.323834
0.345672
0.346777
0.316192
0.265
0.214967
0.173981
0.13418
0.0927555
0.0685066
2.99999
2.99994
2.99987
2.99958
2.99918
2.99755
2.99524
2.98616
2.97186
2.92325
2.81965
2.56894
1.96503
1.06796
0.447002
0.326649
0.349742
0.352332
0.322874
0.27393
0.227063
0.189917
0.155613
0.123453
0.108297
2.99999
2.99994
2.99987
2.9996
2.99921
2.99764
2.9954
2.98663
2.9728
2.92573
2.82498
2.58293
1.98925
1.10133
0.469065
0.330756
0.356193
0.361382
0.333896
0.288237
0.245926
0.213797
0.18579
0.161697
0.151741
3
2.99995
2.99988
2.99962
2.99925
2.99775
2.99563
2.9873
2.97407
2.92923
2.83202
2.60158
2.02253
1.14826
0.498789
0.336049
0.364871
0.373604
0.34859
0.307086
0.269701
0.24323
0.221288
0.203581
0.19735
3
2.99995
2.99989
2.99964
2.9993
2.99791
2.99591
2.98824
2.97562
2.93415
2.8409
2.62486
2.06478
1.2102
0.535432
0.341731
0.375082
0.388455
0.366284
0.329963
0.298024
0.277234
0.261699
0.250158
0.247608
3
2.99995
2.9999
2.99967
2.99935
2.99807
2.99622
2.98919
2.97742
2.93938
2.85266
2.65239
2.12021
1.29002
0.580459
0.349424
0.387701
0.406095
0.386992
0.355939
0.33054
0.316024
0.307213
0.302765
0.306078
3
2.99996
2.99991
2.9997
2.99941
2.99822
2.99653
2.98998
2.97942
2.94411
2.86684
2.68134
2.20014
1.39631
0.639625
0.365591
0.406742
0.429076
0.412346
0.38621
0.366876
0.359465
0.358679
0.363596
0.37769
3
2.99996
2.99992
2.99973
2.99946
2.99838
2.99685
2.99074
2.98154
2.94857
2.88461
2.71484
2.2964
1.53016
0.7121
0.394427
0.435467
0.458675
0.443457
0.422515
0.40891
0.408033
0.416726
0.436563
0.474285
3
2.99997
2.99993
2.99976
2.99953
2.99859
2.99724
2.99199
2.98382
2.95524
2.90045
2.74945
2.39422
1.67158
0.797374
0.442044
0.477558
0.494209
0.481207
0.464544
0.456363
0.461756
0.484018
0.531338
0.63325
2.99999
2.99994
2.99986
2.99957
2.99916
2.99747
2.99509
2.98571
2.97095
2.92083
2.81449
2.55536
1.94235
1.03738
0.426349
0.323002
0.344315
0.344879
0.313977
0.262018
0.210743
0.168235
0.12611
0.0791033
0.0444558
2.99999
2.99994
2.99987
2.99957
2.99916
2.9975
2.99514
2.98586
2.97125
2.92162
2.81615
2.55976
1.94946
1.04684
0.432591
0.323835
0.345673
0.346777
0.316192
0.265
0.214967
0.173981
0.13418
0.0927555
0.0685066
2.99999
2.99994
2.99987
2.99958
2.99918
2.99755
2.99524
2.98616
2.97186
2.92325
2.81964
2.56894
1.96502
1.06795
0.446998
0.32665
0.349743
0.352332
0.322874
0.27393
0.227063
0.189917
0.155613
0.123453
0.108297
2.99999
2.99994
2.99987
2.9996
2.99921
2.99764
2.9954
2.98663
2.9728
2.92573
2.82498
2.58293
1.98924
1.10132
0.46906
0.330758
0.356194
0.361382
0.333896
0.288237
0.245926
0.213797
0.185791
0.161697
0.151741
3
2.99995
2.99988
2.99962
2.99925
2.99775
2.99563
2.9873
2.97407
2.92923
2.83202
2.60158
2.02252
1.14825
0.498784
0.33605
0.364872
0.373604
0.34859
0.307086
0.269701
0.24323
0.221288
0.203581
0.19735
3
2.99995
2.99989
2.99964
2.9993
2.99791
2.99591
2.98824
2.97562
2.93415
2.8409
2.62485
2.06478
1.21018
0.535427
0.341733
0.375082
0.388455
0.366284
0.329963
0.298024
0.277234
0.261699
0.250158
0.247608
3
2.99995
2.9999
2.99967
2.99935
2.99807
2.99622
2.98919
2.97742
2.93938
2.85265
2.65239
2.1202
1.29001
0.580453
0.349425
0.387701
0.406095
0.386991
0.355939
0.33054
0.316024
0.307213
0.302765
0.306078
3
2.99996
2.99991
2.9997
2.99941
2.99822
2.99653
2.98998
2.97942
2.94411
2.86683
2.68134
2.20013
1.39629
0.639618
0.36559
0.406741
0.429075
0.412346
0.38621
0.366876
0.359465
0.358679
0.363595
0.37769
3
2.99996
2.99992
2.99973
2.99946
2.99838
2.99685
2.99074
2.98154
2.94857
2.88461
2.71484
2.29639
1.53014
0.712093
0.394425
0.435465
0.458673
0.443455
0.422514
0.408909
0.408033
0.416726
0.436563
0.474284
3
2.99997
2.99993
2.99976
2.99953
2.99859
2.99724
2.99199
2.98382
2.95524
2.90045
2.74944
2.39421
1.67157
0.797367
0.442041
0.477556
0.494208
0.481205
0.464543
0.456362
0.461755
0.484018
0.531337
0.633249
2.99999
2.99994
2.99986
2.99957
2.99916
2.99747
2.99509
2.98571
2.97095
2.92083
2.81449
2.55536
1.94235
1.03738
0.426349
0.323002
0.344315
0.344879
0.313977
0.262018
0.210743
0.168235
0.12611
0.0791033
0.0444558
2.99999
2.99994
2.99987
2.99957
2.99916
2.9975
2.99514
2.98586
2.97125
2.92162
2.81615
2.55976
1.94946
1.04683
0.432591
0.323835
0.345673
0.346777
0.316192
0.265
0.214967
0.173981
0.13418
0.0927555
0.0685066
2.99999
2.99994
2.99987
2.99958
2.99918
2.99755
2.99524
2.98616
2.97186
2.92325
2.81964
2.56894
1.96502
1.06795
0.446997
0.326651
0.349743
0.352332
0.322874
0.27393
0.227063
0.189917
0.155613
0.123453
0.108297
2.99999
2.99994
2.99987
2.9996
2.99921
2.99764
2.9954
2.98663
2.9728
2.92573
2.82498
2.58293
1.98924
1.10132
0.46906
0.330758
0.356194
0.361382
0.333896
0.288237
0.245926
0.213797
0.185791
0.161697
0.151741
3
2.99995
2.99988
2.99962
2.99925
2.99775
2.99563
2.9873
2.97407
2.92923
2.83202
2.60158
2.02252
1.14824
0.498784
0.33605
0.364872
0.373604
0.34859
0.307086
0.269701
0.24323
0.221288
0.203581
0.19735
3
2.99995
2.99989
2.99964
2.9993
2.99791
2.99591
2.98824
2.97562
2.93415
2.8409
2.62485
2.06477
1.21018
0.535427
0.341733
0.375082
0.388455
0.366284
0.329963
0.298024
0.277234
0.261699
0.250158
0.247608
3
2.99995
2.9999
2.99967
2.99935
2.99807
2.99622
2.98919
2.97742
2.93938
2.85265
2.65239
2.1202
1.29
0.580452
0.349425
0.387701
0.406095
0.386991
0.355939
0.33054
0.316024
0.307213
0.302765
0.306078
3
2.99996
2.99991
2.9997
2.99941
2.99822
2.99653
2.98998
2.97942
2.94411
2.86683
2.68134
2.20013
1.39629
0.639618
0.36559
0.406741
0.429075
0.412345
0.38621
0.366876
0.359465
0.358679
0.363595
0.37769
3
2.99996
2.99992
2.99973
2.99946
2.99838
2.99685
2.99074
2.98154
2.94857
2.88461
2.71484
2.29639
1.53014
0.712092
0.394425
0.435465
0.458673
0.443455
0.422514
0.408909
0.408033
0.416725
0.436562
0.474284
3
2.99997
2.99993
2.99976
2.99953
2.99859
2.99724
2.99199
2.98382
2.95524
2.90045
2.74944
2.39421
1.67156
0.797366
0.44204
0.477556
0.494208
0.481205
0.464543
0.456362
0.461755
0.484017
0.531337
0.633249
2.99999
2.99994
2.99986
2.99957
2.99916
2.99747
2.99509
2.98571
2.97095
2.92083
2.81449
2.55536
1.94235
1.03738
0.426348
0.323002
0.344315
0.344879
0.313977
0.262018
0.210743
0.168235
0.12611
0.0791033
0.0444558
2.99999
2.99994
2.99987
2.99957
2.99916
2.9975
2.99514
2.98586
2.97125
2.92162
2.81615
2.55976
1.94946
1.04683
0.43259
0.323835
0.345673
0.346777
0.316192
0.265
0.214967
0.173981
0.13418
0.0927555
0.0685066
2.99999
2.99994
2.99987
2.99958
2.99918
2.99755
2.99524
2.98616
2.97186
2.92325
2.81964
2.56894
1.96502
1.06795
0.446997
0.326651
0.349743
0.352332
0.322874
0.27393
0.227063
0.189917
0.155613
0.123453
0.108297
2.99999
2.99994
2.99987
2.9996
2.99921
2.99764
2.9954
2.98663
2.9728
2.92573
2.82498
2.58293
1.98924
1.10132
0.469059
0.330758
0.356194
0.361382
0.333896
0.288237
0.245926
0.213797
0.185791
0.161697
0.151741
3
2.99995
2.99988
2.99962
2.99925
2.99775
2.99563
2.9873
2.97407
2.92923
2.83202
2.60158
2.02252
1.14824
0.498783
0.336051
0.364872
0.373604
0.34859
0.307086
0.269701
0.24323
0.221288
0.203581
0.19735
3
2.99995
2.99989
2.99964
2.9993
2.99791
2.99591
2.98824
2.97562
2.93415
2.8409
2.62485
2.06477
1.21018
0.535426
0.341733
0.375082
0.388455
0.366284
0.329963
0.298024
0.277234
0.261699
0.250158
0.247608
3
2.99995
2.9999
2.99967
2.99935
2.99807
2.99622
2.98919
2.97742
2.93938
2.85265
2.65239
2.1202
1.29
0.580452
0.349425
0.387701
0.406095
0.386991
0.355939
0.33054
0.316024
0.307213
0.302765
0.306078
3
2.99996
2.99991
2.9997
2.99941
2.99822
2.99653
2.98998
2.97942
2.94411
2.86683
2.68134
2.20013
1.39629
0.639617
0.36559
0.406741
0.429075
0.412345
0.38621
0.366876
0.359465
0.358679
0.363595
0.37769
3
2.99996
2.99992
2.99973
2.99946
2.99838
2.99685
2.99074
2.98154
2.94857
2.88461
2.71484
2.29638
1.53014
0.712091
0.394425
0.435464
0.458673
0.443455
0.422514
0.408909
0.408033
0.416725
0.436562
0.474284
3
2.99997
2.99993
2.99976
2.99953
2.99859
2.99724
2.99199
2.98382
2.95524
2.90045
2.74944
2.39421
1.67156
0.797365
0.44204
0.477555
0.494207
0.481205
0.464543
0.456362
0.461755
0.484017
0.531337
0.633249
2.99999
2.99994
2.99986
2.99957
2.99916
2.99747
2.99509
2.98571
2.97095
2.92083
2.81449
2.55535
1.94235
1.03738
0.426348
0.323002
0.344315
0.344879
0.313977
0.262018
0.210743
0.168235
0.12611
0.0791033
0.0444558
2.99999
2.99994
2.99987
2.99957
2.99916
2.9975
2.99514
2.98586
2.97125
2.92162
2.81615
2.55975
1.94946
1.04683
0.43259
0.323835
0.345673
0.346777
0.316192
0.265
0.214967
0.173981
0.13418
0.0927555
0.0685066
2.99999
2.99994
2.99987
2.99958
2.99918
2.99755
2.99524
2.98616
2.97186
2.92325
2.81964
2.56894
1.96502
1.06795
0.446997
0.326651
0.349743
0.352332
0.322874
0.27393
0.227063
0.189917
0.155613
0.123453
0.108297
2.99999
2.99994
2.99987
2.9996
2.99921
2.99764
2.9954
2.98663
2.9728
2.92573
2.82498
2.58293
1.98924
1.10132
0.469059
0.330758
0.356194
0.361382
0.333896
0.288237
0.245926
0.213797
0.185791
0.161697
0.151741
3
2.99995
2.99988
2.99962
2.99925
2.99775
2.99563
2.9873
2.97407
2.92923
2.83202
2.60158
2.02252
1.14824
0.498783
0.336051
0.364872
0.373604
0.34859
0.307086
0.269701
0.24323
0.221288
0.203581
0.19735
3
2.99995
2.99989
2.99964
2.9993
2.99791
2.99591
2.98824
2.97562
2.93415
2.8409
2.62485
2.06477
1.21018
0.535426
0.341733
0.375082
0.388455
0.366284
0.329963
0.298024
0.277234
0.261699
0.250158
0.247608
3
2.99995
2.9999
2.99967
2.99935
2.99807
2.99622
2.98919
2.97742
2.93938
2.85265
2.65239
2.1202
1.29
0.580451
0.349425
0.387701
0.406095
0.386991
0.355939
0.33054
0.316024
0.307213
0.302765
0.306078
3
2.99996
2.99991
2.9997
2.99941
2.99822
2.99653
2.98998
2.97942
2.94411
2.86683
2.68134
2.20012
1.39629
0.639617
0.36559
0.406741
0.429075
0.412345
0.38621
0.366876
0.359465
0.358679
0.363595
0.37769
3
2.99996
2.99992
2.99973
2.99946
2.99838
2.99685
2.99074
2.98154
2.94857
2.88461
2.71484
2.29638
1.53014
0.712091
0.394425
0.435464
0.458673
0.443455
0.422514
0.408909
0.408033
0.416725
0.436562
0.474284
3
2.99997
2.99993
2.99976
2.99953
2.99859
2.99724
2.99199
2.98382
2.95524
2.90045
2.74944
2.39421
1.67156
0.797365
0.44204
0.477555
0.494207
0.481205
0.464543
0.456362
0.461755
0.484017
0.531337
0.633249
2.99999
2.99994
2.99986
2.99957
2.99916
2.99747
2.99509
2.98571
2.97095
2.92083
2.81449
2.55536
1.94235
1.03738
0.426348
0.323002
0.344315
0.344879
0.313977
0.262018
0.210743
0.168235
0.12611
0.0791033
0.0444558
2.99999
2.99994
2.99987
2.99957
2.99916
2.9975
2.99514
2.98586
2.97125
2.92162
2.81615
2.55976
1.94946
1.04683
0.432591
0.323835
0.345673
0.346777
0.316192
0.265
0.214967
0.173981
0.13418
0.0927555
0.0685066
2.99999
2.99994
2.99987
2.99958
2.99918
2.99755
2.99524
2.98616
2.97186
2.92325
2.81964
2.56894
1.96502
1.06795
0.446997
0.326651
0.349743
0.352332
0.322874
0.27393
0.227063
0.189917
0.155613
0.123453
0.108297
2.99999
2.99994
2.99987
2.9996
2.99921
2.99764
2.9954
2.98663
2.9728
2.92573
2.82498
2.58293
1.98924
1.10132
0.46906
0.330758
0.356194
0.361382
0.333896
0.288237
0.245926
0.213797
0.185791
0.161697
0.151741
3
2.99995
2.99988
2.99962
2.99925
2.99775
2.99563
2.9873
2.97407
2.92923
2.83202
2.60158
2.02252
1.14824
0.498783
0.336051
0.364872
0.373604
0.34859
0.307086
0.269701
0.24323
0.221288
0.203581
0.19735
3
2.99995
2.99989
2.99964
2.9993
2.99791
2.99591
2.98824
2.97562
2.93415
2.8409
2.62485
2.06477
1.21018
0.535427
0.341733
0.375082
0.388455
0.366284
0.329963
0.298024
0.277234
0.261699
0.250158
0.247608
3
2.99995
2.9999
2.99967
2.99935
2.99807
2.99622
2.98919
2.97742
2.93938
2.85265
2.65239
2.1202
1.29
0.580452
0.349425
0.387701
0.406095
0.386991
0.355939
0.33054
0.316024
0.307213
0.302765
0.306078
3
2.99996
2.99991
2.9997
2.99941
2.99822
2.99653
2.98998
2.97942
2.94411
2.86683
2.68134
2.20013
1.39629
0.639617
0.36559
0.406741
0.429075
0.412345
0.38621
0.366876
0.359465
0.358679
0.363595
0.37769
3
2.99996
2.99992
2.99973
2.99946
2.99838
2.99685
2.99074
2.98154
2.94857
2.88461
2.71484
2.29638
1.53014
0.712091
0.394425
0.435464
0.458673
0.443455
0.422514
0.408909
0.408033
0.416725
0.436562
0.474284
3
2.99997
2.99993
2.99976
2.99953
2.99859
2.99724
2.99199
2.98382
2.95524
2.90045
2.74944
2.39421
1.67156
0.797366
0.44204
0.477555
0.494208
0.481205
0.464543
0.456362
0.461755
0.484017
0.531337
0.633249
2.99999
2.99994
2.99986
2.99957
2.99916
2.99747
2.99509
2.98571
2.97095
2.92083
2.81449
2.55536
1.94235
1.03738
0.426349
0.323002
0.344315
0.344879
0.313977
0.262018
0.210743
0.168235
0.12611
0.0791033
0.0444558
2.99999
2.99994
2.99987
2.99957
2.99916
2.9975
2.99514
2.98586
2.97125
2.92162
2.81615
2.55976
1.94946
1.04684
0.432591
0.323835
0.345673
0.346777
0.316192
0.265
0.214967
0.173981
0.13418
0.0927555
0.0685066
2.99999
2.99994
2.99987
2.99958
2.99918
2.99755
2.99524
2.98616
2.97186
2.92325
2.81964
2.56894
1.96502
1.06795
0.446998
0.32665
0.349743
0.352332
0.322874
0.27393
0.227063
0.189917
0.155613
0.123453
0.108297
2.99999
2.99994
2.99987
2.9996
2.99921
2.99764
2.9954
2.98663
2.9728
2.92573
2.82498
2.58293
1.98924
1.10132
0.46906
0.330758
0.356194
0.361382
0.333896
0.288237
0.245926
0.213797
0.185791
0.161697
0.151741
3
2.99995
2.99988
2.99962
2.99925
2.99775
2.99563
2.9873
2.97407
2.92923
2.83202
2.60158
2.02252
1.14825
0.498784
0.33605
0.364872
0.373604
0.34859
0.307086
0.269701
0.24323
0.221288
0.203581
0.19735
3
2.99995
2.99989
2.99964
2.9993
2.99791
2.99591
2.98824
2.97562
2.93415
2.8409
2.62485
2.06478
1.21018
0.535427
0.341733
0.375082
0.388455
0.366284
0.329963
0.298024
0.277234
0.261699
0.250158
0.247608
3
2.99995
2.9999
2.99967
2.99935
2.99807
2.99622
2.98919
2.97742
2.93938
2.85265
2.65239
2.1202
1.29001
0.580453
0.349425
0.387701
0.406095
0.386991
0.355939
0.33054
0.316024
0.307213
0.302765
0.306078
3
2.99996
2.99991
2.9997
2.99941
2.99822
2.99653
2.98998
2.97942
2.94411
2.86683
2.68134
2.20013
1.39629
0.639618
0.36559
0.406741
0.429075
0.412346
0.38621
0.366876
0.359465
0.358679
0.363595
0.37769
3
2.99996
2.99992
2.99973
2.99946
2.99838
2.99685
2.99074
2.98154
2.94857
2.88461
2.71484
2.29639
1.53014
0.712093
0.394425
0.435465
0.458673
0.443455
0.422514
0.408909
0.408033
0.416726
0.436562
0.474284
3
2.99997
2.99993
2.99976
2.99953
2.99859
2.99724
2.99199
2.98382
2.95524
2.90045
2.74944
2.39421
1.67156
0.797367
0.442041
0.477556
0.494208
0.481205
0.464543
0.456362
0.461755
0.484018
0.531337
0.633249
2.99999
2.99994
2.99986
2.99957
2.99916
2.99747
2.99509
2.98571
2.97095
2.92083
2.81449
2.55536
1.94235
1.03739
0.426354
0.323
0.344314
0.34488
0.313977
0.262018
0.210743
0.168235
0.12611
0.0791032
0.0444558
2.99999
2.99994
2.99987
2.99957
2.99916
2.9975
2.99514
2.98586
2.97125
2.92162
2.81615
2.55976
1.94947
1.04685
0.432596
0.323834
0.345672
0.346777
0.316192
0.265
0.214967
0.173981
0.13418
0.0927555
0.0685066
2.99999
2.99994
2.99987
2.99958
2.99918
2.99755
2.99524
2.98616
2.97186
2.92325
2.81965
2.56894
1.96503
1.06796
0.447002
0.326649
0.349742
0.352332
0.322874
0.27393
0.227063
0.189917
0.155613
0.123453
0.108297
2.99999
2.99994
2.99987
2.9996
2.99921
2.99764
2.9954
2.98663
2.9728
2.92573
2.82498
2.58293
1.98925
1.10133
0.469065
0.330756
0.356193
0.361382
0.333896
0.288237
0.245926
0.213797
0.18579
0.161697
0.151741
3
2.99995
2.99988
2.99962
2.99925
2.99775
2.99563
2.9873
2.97407
2.92923
2.83202
2.60158
2.02253
1.14826
0.498789
0.336049
0.364871
0.373604
0.34859
0.307086
0.269701
0.24323
0.221288
0.203581
0.19735
3
2.99995
2.99989
2.99964
2.9993
2.99791
2.99591
2.98824
2.97562
2.93415
2.8409
2.62486
2.06478
1.2102
0.535432
0.341731
0.375082
0.388455
0.366284
0.329963
0.298024
0.277234
0.261699
0.250158
0.247608
3
2.99995
2.9999
2.99967
2.99935
2.99807
2.99622
2.98919
2.97742
2.93938
2.85266
2.65239
2.12021
1.29002
0.580459
0.349424
0.387701
0.406095
0.386992
0.355939
0.33054
0.316024
0.307213
0.302765
0.306078
3
2.99996
2.99991
2.9997
2.99941
2.99822
2.99653
2.98998
2.97942
2.94411
2.86684
2.68134
2.20014
1.39631
0.639625
0.365591
0.406742
0.429076
0.412346
0.38621
0.366876
0.359465
0.358679
0.363596
0.37769
3
2.99996
2.99992
2.99973
2.99946
2.99838
2.99685
2.99074
2.98154
2.94857
2.88461
2.71484
2.2964
1.53016
0.7121
0.394428
0.435467
0.458675
0.443457
0.422515
0.40891
0.408033
0.416726
0.436563
0.474285
3
2.99997
2.99993
2.99976
2.99953
2.99859
2.99724
2.99199
2.98382
2.95524
2.90045
2.74945
2.39422
1.67158
0.797374
0.442044
0.477558
0.494209
0.481207
0.464544
0.456363
0.461756
0.484018
0.531338
0.63325
3.00001
2.99996
2.99988
2.99959
2.99917
2.99749
2.99511
2.98573
2.97097
2.92087
2.81453
2.55544
1.94244
1.03755
0.426544
0.323178
0.344493
0.345069
0.31419
0.262274
0.211061
0.168636
0.12665
0.0799722
0.0460065
3.00001
2.99996
2.99988
2.99959
2.99918
2.99752
2.99516
2.98588
2.97127
2.92166
2.81619
2.55984
1.94955
1.047
0.43278
0.324004
0.345842
0.346954
0.316391
0.265241
0.215269
0.174361
0.13468
0.0934872
0.069508
3.00001
2.99996
2.99989
2.9996
2.9992
2.99757
2.99527
2.98619
2.97189
2.92329
2.81968
2.56903
1.96512
1.06812
0.44718
0.326815
0.349907
0.352504
0.323064
0.274158
0.227344
0.190259
0.156037
0.123996
0.108923
3.00001
2.99996
2.99989
2.99962
2.99923
2.99766
2.99543
2.98666
2.97283
2.92577
2.82502
2.58301
1.98933
1.10149
0.469237
0.330919
0.356354
0.361548
0.334078
0.28845
0.246181
0.214096
0.18614
0.162105
0.152181
3.00001
2.99996
2.9999
2.99964
2.99927
2.99777
2.99565
2.98732
2.97409
2.92928
2.83204
2.60166
2.0226
1.14841
0.498945
0.336201
0.365024
0.373761
0.34876
0.307283
0.269929
0.243487
0.221575
0.203897
0.197681
3.00002
2.99997
2.99991
2.99966
2.99932
2.99793
2.99593
2.98826
2.97564
2.93419
2.84095
2.62494
2.06489
1.21037
0.535589
0.341887
0.375234
0.388608
0.366446
0.330143
0.298226
0.277454
0.261937
0.25041
0.247866
3.00002
2.99997
2.99992
2.99969
2.99937
2.99809
2.99624
2.98921
2.97744
2.93941
2.8527
2.65248
2.12032
1.29021
0.580615
0.349587
0.387857
0.406247
0.387147
0.356105
0.33072
0.316213
0.307409
0.302967
0.306281
3.00002
2.99998
2.99992
2.99972
2.99943
2.99824
2.99656
2.99001
2.97945
2.94416
2.86686
2.68142
2.20022
1.39648
0.639759
0.365746
0.406892
0.42922
0.412492
0.386363
0.367037
0.359629
0.358843
0.363758
0.377848
3.00002
2.99998
2.99993
2.99974
2.99948
2.9984
2.99687
2.99076
2.98156
2.9486
2.88465
2.71492
2.2965
1.53035
0.712231
0.394588
0.435615
0.45881
0.443593
0.422654
0.409052
0.408174
0.416862
0.436693
0.474404
3.00002
2.99999
2.99995
2.99978
2.99955
2.99861
2.99726
2.99201
2.98384
2.95527
2.90048
2.74951
2.39431
1.67171
0.797502
0.442199
0.477692
0.494323
0.481327
0.464669
0.45649
0.461879
0.484134
0.53144
0.633334
3.00002
3
2.99994
2.99986
2.99952
2.99904
2.99718
2.99433
2.98424
2.96562
2.9107
2.77654
2.48852
1.81626
0.912862
0.500416
0.517093
0.527579
0.522965
0.510486
0.507306
0.520688
0.560665
0.644654
0.811742
3.00002
3
2.99995
2.99987
2.99957
2.99915
2.99742
2.99498
2.98534
2.97031
2.9191
2.81161
2.54739
1.93731
1.05306
0.579606
0.544599
0.555877
0.560425
0.555497
0.558436
0.580429
0.633741
0.731987
0.896074
3.00002
3.00001
2.99996
2.9999
2.99964
2.99928
2.9978
2.99572
2.98752
2.97465
2.93075
2.83691
2.61275
2.0525
1.20458
0.663284
0.563312
0.578252
0.59267
0.597511
0.607493
0.636114
0.693872
0.786111
0.919173
3.00002
3.00001
2.99997
2.99992
2.9997
2.9994
2.99819
2.99644
2.98981
2.9787
2.94301
2.86189
2.67425
2.17471
1.38235
0.75406
0.581266
0.598875
0.619265
0.6348
0.652286
0.684527
0.739546
0.819604
0.928945
3.00002
3.00001
2.99998
2.99994
2.99976
2.9995
2.99847
2.99699
2.9912
2.98227
2.95096
2.88963
2.72563
2.33253
1.57719
0.869674
0.619245
0.629716
0.648583
0.668822
0.69124
0.725069
0.777192
0.845251
0.936366
3.00002
3.00001
3
2.99994
2.99985
2.99952
2.99904
2.99718
2.99433
2.98437
2.96561
2.91157
2.77777
2.49481
1.84993
1.01811
0.683619
0.674376
0.687562
0.706621
0.727582
0.759059
0.80801
0.869319
0.944366
3.00002
3.00001
3
2.99995
2.99988
2.9996
2.99921
2.99761
2.99535
2.98642
2.97259
2.92522
2.82608
2.58567
2.01134
1.18
0.756339
0.710197
0.723451
0.741121
0.762247
0.790095
0.832059
0.888425
0.953727
3.00002
3.00002
3.00001
2.99997
2.99992
2.99971
2.9994
2.99821
2.99642
2.98995
2.9784
2.9432
2.85985
2.6718
2.16819
1.38299
0.858149
0.737803
0.749124
0.766747
0.791214
0.819222
0.854413
0.902206
0.960286
3.00002
3.00002
3.00001
2.99999
2.99993
2.99983
2.99946
2.99889
2.99689
2.99329
2.98236
2.95716
2.89578
2.72653
2.39528
1.62798
1.00458
0.782321
0.776611
0.790789
0.814919
0.844113
0.87629
0.914942
0.964383
3.00002
3.00002
3.00001
3
2.99995
2.99987
2.99956
2.99912
2.99738
2.99484
2.98517
2.96934
2.91821
2.80684
2.5418
1.95525
1.16837
0.848521
0.814335
0.823389
0.842837
0.867666
0.895836
0.92763
0.966915
3.00003
3.00002
3.00002
3
2.99998
2.99989
2.99975
2.99924
2.99845
2.99568
2.99069
2.97557
2.9407
2.8566
2.62648
2.18966
1.33966
0.931333
0.842195
0.849383
0.866922
0.888607
0.912315
0.93833
0.967349
3.00003
3.00002
3.00002
3.00001
2.99999
2.99992
2.99981
2.9994
2.99881
2.99647
2.99298
2.98048
2.95745
2.89088
2.72559
2.38561
1.64535
1.07091
0.885727
0.876348
0.887729
0.90618
0.926791
0.946334
0.963924
3.00003
3.00003
3.00002
3.00002
2.99999
2.99996
2.99983
2.99964
2.99892
2.99784
2.99379
2.98735
2.96535
2.92423
2.80592
2.55489
1.95468
1.24142
0.949789
0.905558
0.909297
0.921817
0.936412
0.947467
0.954339
3.00003
3.00003
3.00002
3.00002
3
2.99998
2.99988
2.99975
2.99922
2.99845
2.99548
2.99097
2.97505
2.9456
2.86287
2.66102
2.23921
1.45647
1.04564
0.935195
0.927327
0.931116
0.937793
0.940009
0.938114
3.00003
3.00003
3.00003
3.00002
3.00001
2.99999
2.99994
2.99978
2.99955
2.99864
2.9973
2.99226
2.98424
2.95732
2.90442
2.76407
2.43938
1.77666
1.17771
0.97343
0.943929
0.936605
0.930868
0.924902
0.916715
3.00003
3.00003
3.00003
3.00002
3.00002
3
2.99997
2.99985
2.99968
2.99903
2.99807
2.9944
2.98883
2.96895
2.9337
2.82923
2.60661
2.07705
1.35393
1.03207
0.955489
0.932564
0.918076
0.904275
0.893173
3.00003
3.00003
3.00003
3.00003
3.00002
3.00001
2.99998
2.99993
2.99974
2.99946
2.9984
2.99681
2.99108
2.98119
2.95055
2.88125
2.72174
2.31219
1.61692
1.12091
0.955621
0.912964
0.894174
0.880085
0.8695
3.00003
3.00003
3.00003
3.00003
3.00002
3.00002
2.99999
2.99996
2.99982
2.99962
2.99883
2.99768
2.99329
2.98656
2.96279
2.92038
2.79393
2.53638
1.9177
1.25784
0.964913
0.882302
0.860431
0.850302
0.844486
3.00003
3.00003
3.00003
3.00003
3.00003
3.00002
3.00001
2.99997
2.99991
2.99969
2.99935
2.99813
2.99615
2.9896
2.97659
2.94072
2.85149
2.66075
2.15082
1.40527
0.969397
0.830805
0.812004
0.812039
0.819956
3.00003
3.00003
3.00003
3.00003
3.00003
3.00002
3.00001
2.99999
2.99992
2.99982
2.99942
2.99883
2.99669
2.99301
2.98149
2.95619
2.89277
2.72349
2.39143
1.64147
1.0179
0.772076
0.756387
0.771329
0.79757
3.00003
3.00003
3.00003
3.00003
3.00003
3.00002
3.00001
3
2.99994
2.99986
2.99953
2.99906
2.99718
2.99442
2.98402
2.96666
2.91138
2.78883
2.49928
1.87709
1.05341
0.70295
0.685206
0.722515
0.769966
3.00003
3.00003
3.00003
3.00003
3.00003
3.00002
3.00002
3
2.99997
2.99986
2.99971
2.99909
2.99816
2.99478
2.98878
2.97009
2.92686
2.82289
2.53709
1.99633
1.07086
0.633731
0.588454
0.648846
0.720733
3.00003
3.00003
3.00003
3.00003
3.00003
3.00002
3.00002
3
2.99998
2.99988
2.99975
2.9992
2.99841
2.99536
2.99031
2.97366
2.93678
2.84358
2.58649
2.1007
1.14416
0.60739
0.49054
0.568281
0.661667
3.00003
3.00003
3.00003
3.00003
3.00003
3.00003
3.00002
3.00001
2.99999
2.9999
2.99978
2.99929
2.99859
2.99585
2.99139
2.97637
2.94378
2.85955
2.62675
2.17995
1.23516
0.603152
0.408371
0.502577
0.612452
3.00003
3.00003
3.00003
3.00003
3.00003
3.00003
3.00002
3.00001
2.99999
2.99992
2.99982
2.99941
2.99878
2.99654
2.99237
2.97969
2.94924
2.87506
2.66089
2.24799
1.34017
0.617044
0.356667
0.465661
0.579202
3.00003
3.00003
3.00003
3.00003
3.00003
3.00003
3.00002
3.00001
2.99999
2.99994
2.99978
2.99954
2.9986
2.99709
2.99199
2.98166
2.95251
2.87852
2.7127
2.25166
1.46672
0.622809
0.315223
0.438691
0.5517
3.00003
3.00003
3.00003
3.00003
3.00003
3.00003
3.00002
3.00001
3
2.99994
2.99985
2.99952
2.99897
2.99715
2.99342
2.98301
2.95699
2.89562
2.71599
2.36582
1.55085
0.676738
0.313974
0.432663
0.536243
3.00003
3.00003
3.00003
3.00003
3.00003
3.00003
3.00002
3.00002
2.99999
2.99995
2.9998
2.99957
2.99868
2.99736
2.99223
2.98405
2.9558
2.89752
2.74526
2.36571
1.62537
0.683477
0.295476
0.417969
0.516597
3.00003
3.00003
3.00003
3.00003
3.00003
3.00003
3.00002
3.00002
2.99999
2.99996
2.99981
2.9996
2.99875
2.99751
2.99262
2.98491
2.95787
2.90373
2.75776
2.39792
1.67105
0.705344
0.29438
0.404835
0.496116
3.00003
3.00003
3.00003
3.00003
3.00003
3.00003
3.00002
3.00002
3
2.99995
2.99987
2.99956
2.99908
2.9974
2.99428
2.98493
2.96294
2.90829
2.7586
2.45443
1.73105
0.786661
0.335081
0.415028
0.491875
3.00003
3.00003
3.00003
3.00003
3.00003
3.00003
3.00002
3.00002
3
2.99996
2.99984
2.99965
2.99893
2.99779
2.99377
2.98608
2.96311
2.90811
2.77841
2.43159
1.75489
0.780118
0.335641
0.402029
0.473613
3.00003
3.00003
3.00003
3.00003
3.00003
3.00003
3.00002
3.00002
3
2.99995
2.99987
2.99956
2.99911
2.99731
2.99457
2.98464
2.96649
2.91155
2.77829
2.48373
1.79375
0.861295
0.375226
0.411537
0.471995
3.00003
3.00003
3.00003
3.00003
3.00003
3.00003
3.00002
3.00002
3
2.99995
2.99988
2.99957
2.99913
2.99739
2.99475
2.98504
2.96774
2.91383
2.78697
2.49723
1.82207
0.895577
0.392599
0.410643
0.468519
3.00003
3.00003
3.00003
3.00003
3.00003
3.00003
3.00002
3.00002
3
2.99997
2.99986
2.99969
2.99905
2.99799
2.99447
2.98712
2.96695
2.91581
2.8006
2.46925
1.85364
0.856609
0.382121
0.38987
0.450628
3.00003
3.00003
3.00003
3.00003
3.00003
3.00003
3.00003
3.00002
3
2.99996
2.99988
2.9996
2.99918
2.99756
2.99497
2.9861
2.96856
2.91825
2.79367
2.51879
1.85917
0.949147
0.423169
0.409022
0.461388
3.00003
3.00003
3.00003
3.00003
3.00003
3.00003
3.00002
3.00002
3
2.99997
2.99986
2.9997
2.99909
2.99806
2.99471
2.98753
2.96833
2.91895
2.80934
2.48593
1.89771
0.894933
0.404192
0.385964
0.444003
3.00003
3.00003
3.00003
3.00003
3.00003
3.00003
3.00002
3.00002
3
2.99995
2.99988
2.9996
2.99918
2.99752
2.99503
2.98576
2.96973
2.91874
2.80171
2.52954
1.88857
0.981025
0.440862
0.407279
0.458594
3.00003
3.00003
3.00003
3.00003
3.00003
3.00003
3.00002
3.00002
3
2.99995
2.99988
2.9996
2.99919
2.99755
2.99508
2.98595
2.97002
2.91954
2.80311
2.53264
1.89599
0.989152
0.446549
0.408284
0.458858
3.00003
3.00003
3.00003
3.00003
3.00003
3.00003
3.00002
3.00002
3
2.99997
2.99986
2.99969
2.99904
2.99806
2.99453
2.98804
2.96846
2.92161
2.81233
2.50028
1.92606
0.92293
0.425633
0.388494
0.441888
3.00003
3.00003
3.00003
3.00003
3.00003
3.00003
3.00002
3.00002
3
2.99997
2.99985
2.99968
2.999
2.99802
2.99423
2.98805
2.96742
2.92216
2.81015
2.50424
1.93101
0.922815
0.426462
0.386614
0.437927
3
2.99998
2.99992
2.99984
2.99951
2.99902
2.99716
2.9943
2.98422
2.96559
2.91067
2.77649
2.48843
1.81613
0.912684
0.500245
0.516977
0.527484
0.52286
0.510375
0.507195
0.52058
0.560568
0.644573
0.811687
3
2.99998
2.99993
2.99986
2.99955
2.99913
2.9974
2.99496
2.98532
2.97028
2.91906
2.81156
2.54731
1.93717
1.05285
0.579438
0.544498
0.555782
0.560326
0.555395
0.558335
0.580333
0.633655
0.731917
0.896021
3
2.99999
2.99994
2.99988
2.99962
2.99926
2.99778
2.9957
2.9875
2.97462
2.9307
2.83688
2.61266
2.0524
1.20439
0.663139
0.56322
0.578162