/*--------------------------------*- C++ -*----------------------------------*\
| =========                 |                                                 |
| \\      /  F ield         | OpenFOAM: The Open Source CFD Toolbox           |
|  \\    /   O peration     | Version:  4.1                                   |
|   \\  /    A nd           | Web:      www.OpenFOAM.org                      |
|    \\/     M anipulation  |                                                 |
\*---------------------------------------------------------------------------*/
FoamFile
{
    version     2.0;
    format      ascii;
    class       volScalarField;
    location    "0.22";
    object      Ma;
}
// * * * * * * * * * * * * * * * * * * * * * * * * * * * * * * * * * * * * * //

dimensions      [0 0 0 0 0 0 0];

internalField   nonuniform List<scalar> 
52500
(
3.06227
3.18244
3.15575
3.12575
3.07442
2.97689
2.82717
2.59823
2.30029
1.9896
1.81103
1.72495
1.68834
1.66744
1.623
1.51398
1.20674
0.475938
0.288093
0.410229
0.228172
0.132124
0.0311459
0.17929
0.0227826
3.06226
3.18243
3.15572
3.12573
3.07439
2.97684
2.82707
2.59816
2.30028
1.98963
1.8111
1.72501
1.68845
1.66759
1.62382
1.51822
1.22239
0.515091
0.278634
0.415522
0.236598
0.141219
0.0641174
0.18708
0.0573843
3.06225
3.18241
3.15572
3.12572
3.07439
2.97685
2.82703
2.59819
2.30034
1.9897
1.81112
1.72501
1.68854
1.66772
1.62527
1.52632
1.25168
0.593345
0.258096
0.426493
0.25768
0.160432
0.105857
0.203284
0.097221
3.0622
3.18238
3.15567
3.12565
3.0743
2.97673
2.82689
2.59835
2.30072
1.9902
1.81154
1.7254
1.68903
1.66798
1.62704
1.53689
1.2903
0.706766
0.220733
0.441207
0.290695
0.189036
0.15106
0.22648
0.139687
3.06219
3.1824
3.15571
3.1257
3.07438
2.97685
2.82695
2.59857
2.30108
1.99055
1.81184
1.72576
1.68965
1.66807
1.62848
1.54802
1.33249
0.837159
0.188671
0.454868
0.33373
0.226242
0.2004
0.255406
0.18579
3.06226
3.18237
3.15562
3.12556
3.07415
2.97647
2.82629
2.5974
2.29933
1.98818
1.80928
1.72332
1.68766
1.66553
1.6269
1.55718
1.37467
0.977636
0.240313
0.461085
0.38402
0.27167
0.255766
0.290126
0.239086
3.06222
3.18236
3.1556
3.12553
3.07413
2.97645
2.82625
2.59769
2.29993
1.98873
1.80988
1.72398
1.6882
1.6652
1.62641
1.56644
1.41316
1.11089
0.410014
0.446424
0.438391
0.324098
0.318316
0.32935
0.303076
3.06211
3.18234
3.15564
3.1256
3.07427
2.97669
2.82674
2.59875
2.30175
1.99109
1.81262
1.72681
1.69058
1.66715
1.62746
1.57582
1.44751
1.22151
0.630517
0.395734
0.491861
0.383931
0.387754
0.372128
0.385014
3.0622
3.18233
3.15557
3.1255
3.07409
2.97638
2.82623
2.59756
2.30003
1.98852
1.80981
1.72417
1.68812
1.66518
1.62575
1.58059
1.47714
1.30717
0.860071
0.343336
0.535261
0.452085
0.458522
0.420767
0.493383
3.06219
3.18232
3.15556
3.12548
3.07407
2.97634
2.82612
2.59735
2.29992
1.98833
1.80968
1.72413
1.68823
1.66606
1.62808
1.58449
1.49896
1.36745
1.06703
0.442394
0.550405
0.524418
0.528895
0.502258
0.686166
3.06218
3.18236
3.15564
3.12562
3.07426
2.97669
2.82679
2.59824
2.3007
1.99017
1.81168
1.72556
1.68884
1.66791
1.62334
1.51417
1.20671
0.475602
0.287998
0.410094
0.227942
0.131753
0.0294444
0.178991
0.0205142
3.06223
3.18241
3.15573
3.12573
3.07441
2.97687
2.82708
2.59839
2.30063
1.98998
1.81145
1.72535
1.68877
1.66788
1.62403
1.51833
1.22234
0.514784
0.278574
0.415403
0.236386
0.140881
0.0633285
0.186793
0.0565167
3.06223
3.18237
3.1556
3.12553
3.07413
2.97646
2.82629
2.59765
2.29982
1.98866
1.80967
1.72347
1.68705
1.66645
1.62427
1.52572
1.25129
0.592867
0.258074
0.426375
0.257483
0.160136
0.105413
0.202968
0.096705
3.06226
3.18244
3.15576
3.12577
3.07447
2.97693
2.82723
2.59849
2.30056
1.98989
1.81123
1.72512
1.68887
1.66785
1.62694
1.53678
1.29015
0.706431
0.220683
0.441105
0.290524
0.188781
0.150748
0.226184
0.139338
3.06223
3.18237
3.15561
3.12554
3.07414
2.97647
2.82632
2.59771
2.29985
1.98873
1.80964
1.72348
1.6875
1.66619
1.62698
1.54707
1.33191
0.836644
0.188544
0.454787
0.333584
0.226035
0.200152
0.255152
0.185534
3.06225
3.18244
3.15575
3.12576
3.07446
2.97693
2.82723
2.5986
2.30076
1.99012
1.81142
1.72545
1.68957
1.66718
1.6282
1.55792
1.37496
0.977577
0.240046
0.461015
0.38389
0.271502
0.255556
0.289906
0.23889
3.06219
3.18238
3.15566
3.12564
3.07429
2.97673
2.82688
2.59836
2.30079
1.99018
1.81166
1.72583
1.68988
1.66669
1.62758
1.5671
1.41341
1.11087
0.409756
0.446399
0.438283
0.323958
0.318132
0.329172
0.302923
3.06225
3.18242
3.15573
3.12573
3.0744
2.97686
2.82713
2.59828
2.3005
1.98967
1.81131
1.72556
1.68947
1.66615
1.62667
1.57524
1.44712
1.2212
0.630142
0.395767
0.491785
0.383813
0.387602
0.371995
0.384896
3.06225
3.18242
3.15572
3.12572
3.07438
2.97681
2.8271
2.59807
2.3004
1.98942
1.81108
1.72556
1.68945
1.66638
1.6267
1.5811
1.47732
1.3072
0.859842
0.343289
0.53521
0.451984
0.458407
0.420674
0.493296
3.06227
3.18244
3.15574
3.12574
3.07442
2.97686
2.82724
2.59817
2.30054
1.98942
1.81102
1.72549
1.68949
1.66717
1.62894
1.5849
1.49909
1.36749
1.06686
0.442185
0.55039
0.524337
0.528812
0.502192
0.686111
3.06227
3.18244
3.15574
3.12575
3.07443
2.97689
2.82719
2.59831
2.3004
1.9897
1.81113
1.72503
1.68839
1.66751
1.62303
1.51396
1.20659
0.47549
0.288032
0.410096
0.227948
0.131763
0.029436
0.178994
0.0205141
3.06226
3.18243
3.15573
3.12573
3.0744
2.97685
2.8271
2.59825
2.30037
1.98972
1.81118
1.72506
1.68847
1.66764
1.62383
1.51819
1.22224
0.514704
0.278605
0.415404
0.236389
0.140889
0.0633238
0.186795
0.0565165
3.06226
3.18243
3.15574
3.12574
3.07442
2.97689
2.82717
2.59836
2.30046
1.98981
1.8112
1.72505
1.68854
1.66772
1.62524
1.52622
1.25148
0.592924
0.258087
0.426381
0.257486
0.160142
0.105409
0.20297
0.0967045
3.06221
3.1824
3.15569
3.12567
3.07434
2.97679
2.82703
2.59851
2.30085
1.99028
1.81156
1.72539
1.68898
1.66799
1.62702
1.53685
1.29018
0.70644
0.220691
0.441105
0.290519
0.188783
0.150744
0.226185
0.139337
3.06226
3.18246
3.15578
3.12579
3.07449
2.97698
2.8273
2.59862
2.30073
1.9901
1.81135
1.72527
1.68922
1.66766
1.62814
1.54773
1.3322
0.836756
0.188547
0.454791
0.333582
0.226034
0.200149
0.255152
0.185533
3.0623
3.18241
3.15565
3.1256
3.07421
2.97653
2.82646
2.59749
2.29926
1.98803
1.80907
1.72308
1.68739
1.66534
1.62674
1.55706
1.37454
0.977368
0.24
0.461024
0.383886
0.2715
0.255553
0.289905
0.238889
3.06226
3.18246
3.15578
3.12579
3.07449
2.97698
2.82729
2.5986
2.30079
1.99005
1.81148
1.72563
1.68975
1.6666
1.62751
1.56704
1.41337
1.11084
0.409722
0.446409
0.43828
0.323955
0.318129
0.329171
0.302922
3.06219
3.18237
3.15566
3.12563
3.07428
2.97671
2.82686
2.59834
2.30087
1.99013
1.81177
1.72601
1.68983
1.66647
1.62692
1.57544
1.44724
1.22126
0.630152
0.395773
0.491783
0.38381
0.3876
0.371995
0.384895
3.06226
3.18244
3.15574
3.12575
3.07443
2.97688
2.82724
2.59829
2.30061
1.98962
1.81127
1.72568
1.68952
1.6664
1.62668
1.58105
1.47727
1.30716
0.859816
0.343295
0.535213
0.451984
0.458405
0.420673
0.493296
3.06219
3.18237
3.15566
3.12563
3.07428
2.97668
2.82692
2.59824
2.30096
1.98996
1.81159
1.72603
1.68991
1.66753
1.62921
1.58508
1.49921
1.36754
1.06688
0.442179
0.550393
0.524337
0.528811
0.502192
0.68611
3.06227
3.18245
3.15575
3.12576
3.07444
2.97691
2.82724
2.59842
2.30052
1.98981
1.81121
1.72507
1.68841
1.66753
1.62304
1.51395
1.20656
0.475438
0.288053
0.4101
0.227955
0.131771
0.0294312
0.178996
0.0205141
3.06227
3.18245
3.15575
3.12576
3.07444
2.97691
2.82724
2.59842
2.30051
1.98982
1.8112
1.72506
1.68844
1.66761
1.6238
1.51816
1.22221
0.514661
0.278631
0.415409
0.236394
0.140897
0.0633216
0.186797
0.0565167
3.06227
3.18245
3.15575
3.12576
3.07444
2.97691
2.82724
2.59842
2.3005
1.98983
1.81118
1.72503
1.68852
1.66771
1.62523
1.52623
1.25148
0.59289
0.258108
0.426385
0.257491
0.160149
0.105408
0.202972
0.0967051
3.06227
3.18245
3.15575
3.12576
3.07444
2.97691
2.82724
2.59842
2.30048
1.98984
1.81115
1.72501
1.68869
1.66772
1.62682
1.5367
1.29008
0.706356
0.220729
0.441113
0.290524
0.18879
0.150744
0.226188
0.139338
3.06227
3.18245
3.15575
3.12576
3.07444
2.97691
2.82724
2.59843
2.30047
1.98986
1.81113
1.72504
1.68898
1.66748
1.62798
1.54762
1.33213
0.836693
0.188556
0.4548
0.333586
0.226041
0.200148
0.255155
0.185534
3.06227
3.18245
3.15575
3.12576
3.07444
2.97691
2.82723
2.59843
2.30049
1.98984
1.81116
1.72519
1.68931
1.66697
1.62802
1.5578
1.37488
0.977506
0.240018
0.46103
0.383889
0.271506
0.255552
0.289908
0.23889
3.06227
3.18245
3.15575
3.12576
3.07444
2.97691
2.82723
2.59843
2.30054
1.9898
1.81124
1.72541
1.68951
1.66638
1.62733
1.56691
1.41329
1.11079
0.409684
0.446426
0.438283
0.32396
0.318129
0.329174
0.302923
3.06227
3.18245
3.15575
3.12576
3.07444
2.9769
2.82724
2.59841
2.3006
1.98974
1.81132
1.72556
1.68945
1.66613
1.62666
1.57524
1.44711
1.22118
0.630096
0.395794
0.491787
0.383814
0.3876
0.371998
0.384896
3.06227
3.18245
3.15575
3.12576
3.07444
2.97689
2.82728
2.59834
2.30065
1.98963
1.81121
1.72563
1.68945
1.66636
1.62667
1.58106
1.47728
1.30716
0.859791
0.343302
0.535216
0.451985
0.458407
0.420677
0.493297
3.06227
3.18245
3.15575
3.12576
3.07444
2.97688
2.8273
2.59831
2.30069
1.98956
1.81113
1.72558
1.68952
1.66719
1.62894
1.58489
1.49908
1.36746
1.06683
0.442154
0.5504
0.524338
0.528813
0.502194
0.686112
3.06228
3.18246
3.15577
3.12578
3.07447
2.97696
2.82726
2.59847
2.3006
1.98986
1.81121
1.72507
1.68839
1.66753
1.62304
1.51398
1.20661
0.475514
0.288023
0.410097
0.227945
0.131773
0.0294476
0.178992
0.020507
3.06228
3.18246
3.15577
3.12578
3.07447
2.97696
2.82726
2.59848
2.30059
1.98986
1.8112
1.72505
1.68842
1.66761
1.6238
1.51819
1.22226
0.514729
0.27859
0.4154
0.236377
0.140895
0.0633153
0.186796
0.0565294
3.06228
3.18245
3.15576
3.12577
3.07446
2.97693
2.82728
2.59846
2.30052
1.98985
1.8112
1.72505
1.68854
1.66774
1.62525
1.52624
1.25149
0.592922
0.258084
0.426385
0.257485
0.160152
0.105372
0.203031
0.0967299
3.06228
3.18245
3.15576
3.12577
3.07446
2.97693
2.82727
2.59845
2.30051
1.98986
1.81117
1.72503
1.68871
1.66775
1.62684
1.53671
1.29009
0.706383
0.22071
0.441114
0.290526
0.188805
0.150728
0.226254
0.139347
3.06227
3.18246
3.15576
3.12577
3.07447
2.97696
2.82726
2.59849
2.30056
1.98991
1.81113
1.72503
1.68896
1.66748
1.62798
1.54764
1.33217
0.836754
0.188545
0.454793
0.333585
0.226058
0.200167
0.255179
0.185526
3.06227
3.18245
3.15576
3.12577
3.07446
2.97694
2.82725
2.59848
2.30055
1.98987
1.81114
1.72517
1.68927
1.66694
1.628
1.5578
1.37491
0.977561
0.240055
0.461017
0.383887
0.271516
0.255587
0.289908
0.23888
3.06228
3.18246
3.15576
3.12578
3.07447
2.97695
2.82726
2.59847
2.30059
1.98983
1.81122
1.72538
1.68947
1.66635
1.62731
1.56692
1.41332
1.11083
0.409746
0.446402
0.43828
0.323961
0.318162
0.329167
0.302918
3.06228
3.18245
3.15576
3.12577
3.07445
2.97691
2.82727
2.59841
2.30058
1.98972
1.8113
1.72555
1.68945
1.66614
1.62666
1.57524
1.44712
1.22119
0.630139
0.395766
0.491783
0.383811
0.387621
0.37199
0.384894
3.06227
3.18245
3.15576
3.12577
3.07446
2.97692
2.82728
2.59834
2.30067
1.98962
1.81117
1.72559
1.68941
1.66634
1.62667
1.58108
1.47733
1.3072
0.859851
0.343285
0.535208
0.45198
0.458417
0.420672
0.493296
3.06227
3.18245
3.15576
3.12576
3.07445
2.97691
2.82728
2.5983
2.30072
1.98956
1.81111
1.72556
1.68951
1.66719
1.62894
1.58492
1.49912
1.36751
1.06688
0.442189
0.550386
0.524332
0.528814
0.502193
0.686111
3.06227
3.18245
3.15575
3.12576
3.07444
2.97691
2.82723
2.59841
2.30052
1.98981
1.81121
1.72507
1.68841
1.66754
1.62304
1.51396
1.20656
0.475445
0.288052
0.410101
0.227957
0.131771
0.0294325
0.178996
0.020514
3.06227
3.18245
3.15575
3.12576
3.07444
2.97691
2.82723
2.59842
2.30051
1.98982
1.8112
1.72506
1.68844
1.66761
1.6238
1.51816
1.22222
0.514668
0.278628
0.415409
0.236396
0.140898
0.0633232
0.186797
0.0565176
3.06227
3.18245
3.15575
3.12576
3.07444
2.97691
2.82724
2.59842
2.3005
1.98983
1.81118
1.72503
1.68852
1.66771
1.62523
1.52623
1.25148
0.592896
0.258105
0.426386
0.257492
0.16015
0.10541
0.202972
0.0967057
3.06227
3.18245
3.15575
3.12576
3.07444
2.97691
2.82723
2.59841
2.30047
1.98984
1.81115
1.72501
1.68868
1.6677
1.62681
1.53669
1.29008
0.706361
0.220724
0.441112
0.290525
0.18879
0.150745
0.226188
0.13934
3.06227
3.18245
3.15575
3.12576
3.07444
2.97691
2.82724
2.59843
2.30047
1.98985
1.81113
1.72504
1.68898
1.66748
1.62798
1.54761
1.33213
0.836699
0.18855
0.454798
0.333585
0.22604
0.200149
0.255155
0.185535
3.06227
3.18245
3.15575
3.12576
3.07444
2.97691
2.82723
2.59842
2.30047
1.98984
1.81115
1.72518
1.68929
1.66695
1.628
1.55778
1.37487
0.977509
0.240019
0.461026
0.383888
0.271505
0.255553
0.289909
0.23889
3.06227
3.18245
3.15575
3.12576
3.07444
2.97691
2.82723
2.59842
2.30052
1.98979
1.81123
1.72539
1.6895
1.66636
1.62732
1.56691
1.41329
1.11079
0.409693
0.446418
0.43828
0.323958
0.318129
0.329175
0.302922
3.06227
3.18245
3.15575
3.12576
3.07444
2.9769
2.82724
2.59839
2.30057
1.98971
1.81129
1.72554
1.68943
1.66612
1.62665
1.57523
1.44711
1.22118
0.630108
0.395783
0.491783
0.383811
0.3876
0.371999
0.384894
3.06227
3.18244
3.15575
3.12575
3.07443
2.97688
2.82726
2.59829
2.30059
1.98957
1.81116
1.72558
1.68943
1.66635
1.62666
1.58106
1.47729
1.30717
0.859807
0.343296
0.535212
0.451983
0.458406
0.420676
0.493295
3.06227
3.18244
3.15575
3.12575
3.07443
2.97687
2.82726
2.59825
2.30063
1.9895
1.8111
1.72556
1.68953
1.6672
1.62895
1.5849
1.49909
1.36748
1.06684
0.442163
0.550395
0.524336
0.528812
0.502192
0.686111
3.06227
3.18245
3.15575
3.12576
3.07444
2.97691
2.82724
2.59842
2.30052
1.98981
1.81121
1.72507
1.68841
1.66754
1.62304
1.51395
1.20656
0.475438
0.288053
0.4101
0.227955
0.13177
0.0294314
0.178996
0.0205141
3.06227
3.18245
3.15575
3.12576
3.07444
2.97691
2.82724
2.59842
2.30051
1.98982
1.8112
1.72506
1.68844
1.66761
1.6238
1.51816
1.22221
0.514661
0.278631
0.415409
0.236394
0.140897
0.0633216
0.186797
0.0565167
3.06227
3.18245
3.15575
3.12576
3.07444
2.97691
2.82724
2.59842
2.3005
1.98983
1.81118
1.72503
1.68852
1.66771
1.62523
1.52623
1.25148
0.59289
0.258108
0.426385
0.257491
0.160149
0.105408
0.202972
0.0967051
3.06227
3.18245
3.15575
3.12576
3.07444
2.97691
2.82724
2.59842
2.30048
1.98984
1.81115
1.72501
1.68869
1.66772
1.62682
1.5367
1.29008
0.706356
0.220729
0.441113
0.290524
0.18879
0.150744
0.226188
0.139338
3.06227
3.18245
3.15575
3.12576
3.07444
2.97691
2.82724
2.59843
2.30047
1.98986
1.81113
1.72504
1.68898
1.66748
1.62798
1.54762
1.33213
0.836693
0.188556
0.4548
0.333586
0.226041
0.200148
0.255155
0.185534
3.06227
3.18245
3.15575
3.12576
3.07444
2.97691
2.82723
2.59843
2.30049
1.98984
1.81116
1.72519
1.68931
1.66697
1.62802
1.5578
1.37488
0.977506
0.240018
0.46103
0.383889
0.271506
0.255552
0.289908
0.23889
3.06227
3.18245
3.15575
3.12576
3.07444
2.97691
2.82723
2.59843
2.30054
1.9898
1.81124
1.72541
1.68951
1.66638
1.62733
1.56691
1.41329
1.11078
0.409683
0.446426
0.438283
0.32396
0.318129
0.329174
0.302923
3.06227
3.18245
3.15575
3.12576
3.07444
2.9769
2.82724
2.59841
2.3006
1.98974
1.81132
1.72556
1.68945
1.66613
1.62666
1.57524
1.44711
1.22118
0.630096
0.395794
0.491787
0.383814
0.3876
0.371998
0.384896
3.06227
3.18245
3.15575
3.12576
3.07444
2.97689
2.82728
2.59834
2.30065
1.98963
1.81121
1.72563
1.68945
1.66636
1.62667
1.58106
1.47728
1.30716
0.859791
0.343302
0.535216
0.451985
0.458407
0.420677
0.493297
3.06227
3.18245
3.15575
3.12576
3.07444
2.97688
2.8273
2.59831
2.30069
1.98956
1.81113
1.72558
1.68952
1.66719
1.62894
1.58489
1.49908
1.36746
1.06683
0.442154
0.5504
0.524338
0.528813
0.502194
0.686112
3.06227
3.18244
3.15574
3.12575
3.07443
2.97689
2.82719
2.59831
2.3004
1.9897
1.81113
1.72503
1.68839
1.66751
1.62303
1.51396
1.20659
0.47549
0.288032
0.410096
0.227948
0.131763
0.029436
0.178994
0.0205141
3.06226
3.18243
3.15573
3.12573
3.0744
2.97685
2.8271
2.59825
2.30037
1.98972
1.81118
1.72506
1.68847
1.66764
1.62383
1.51819
1.22224
0.514704
0.278605
0.415404
0.236389
0.140889
0.0633238
0.186795
0.0565165
3.06226
3.18243
3.15574
3.12574
3.07442
2.97689
2.82717
2.59836
2.30046
1.98981
1.8112
1.72505
1.68854
1.66772
1.62524
1.52622
1.25148
0.592924
0.258087
0.426381
0.257486
0.160142
0.105409
0.20297
0.0967045
3.06221
3.1824
3.15569
3.12567
3.07434
2.97679
2.82703
2.59851
2.30085
1.99028
1.81156
1.72539
1.68898
1.66799
1.62702
1.53685
1.29018
0.70644
0.220691
0.441105
0.290519
0.188783
0.150744
0.226185
0.139337
3.06226
3.18246
3.15578
3.12579
3.07449
2.97698
2.8273
2.59862
2.30073
1.9901
1.81135
1.72527
1.68922
1.66766
1.62814
1.54773
1.3322
0.836756
0.188547
0.454791
0.333582
0.226034
0.200149
0.255152
0.185533
3.0623
3.18241
3.15565
3.1256
3.07421
2.97653
2.82646
2.59749
2.29926
1.98803
1.80907
1.72308
1.68739
1.66534
1.62674
1.55706
1.37454
0.977368
0.24
0.461024
0.383886
0.2715
0.255553
0.289905
0.238889
3.06226
3.18246
3.15578
3.12579
3.07449
2.97698
2.82729
2.5986
2.30079
1.99005
1.81148
1.72563
1.68975
1.6666
1.62751
1.56704
1.41337
1.11084
0.409722
0.446409
0.43828
0.323955
0.318129
0.329171
0.302922
3.06219
3.18237
3.15566
3.12563
3.07428
2.97671
2.82686
2.59834
2.30087
1.99013
1.81177
1.72601
1.68983
1.66647
1.62693
1.57544
1.44724
1.22126
0.630152
0.395773
0.491783
0.38381
0.3876
0.371995
0.384895
3.06226
3.18244
3.15574
3.12575
3.07443
2.97688
2.82724
2.59829
2.30061
1.98962
1.81127
1.72568
1.68952
1.6664
1.62668
1.58105
1.47727
1.30716
0.859816
0.343295
0.535213
0.451984
0.458405
0.420673
0.493296
3.06219
3.18237
3.15566
3.12563
3.07428
2.97668
2.82692
2.59824
2.30096
1.98996
1.81159
1.72603
1.68991
1.66753
1.62921
1.58508
1.49921
1.36754
1.06688
0.442179
0.550393
0.524337
0.528811
0.502192
0.68611
3.06218
3.18236
3.15564
3.12562
3.07426
2.97669
2.82679
2.59824
2.3007
1.99017
1.81168
1.72556
1.68884
1.66792
1.62334
1.51417
1.20671
0.475602
0.287998
0.410094
0.227942
0.131753
0.0294444
0.178991
0.0205142
3.06223
3.18241
3.15573
3.12573
3.07441
2.97687
2.82708
2.59839
2.30063
1.98998
1.81145
1.72535
1.68877
1.66788
1.62403
1.51833
1.22234
0.514784
0.278574
0.415403
0.236386
0.140881
0.0633285
0.186793
0.0565167
3.06223
3.18237
3.1556
3.12553
3.07413
2.97646
2.82629
2.59765
2.29982
1.98866
1.80967
1.72347
1.68705
1.66645
1.62427
1.52572
1.25129
0.592868
0.258074
0.426375
0.257483
0.160136
0.105413
0.202968
0.0967051
3.06226
3.18244
3.15576
3.12577
3.07447
2.97693
2.82723
2.59849
2.30057
1.98989
1.81123
1.72512
1.68887
1.66785
1.62694
1.53679
1.29015
0.706431
0.220683
0.441105
0.290524
0.188781
0.150748
0.226184
0.139338
3.06223
3.18237
3.15561
3.12554
3.07414
2.97647
2.82632
2.59771
2.29985
1.98873
1.80964
1.72348
1.6875
1.66619
1.62698
1.54707
1.33191
0.836644
0.188544
0.454787
0.333584
0.226035
0.200152
0.255152
0.185534
3.06225
3.18244
3.15575
3.12576
3.07446
2.97693
2.82723
2.5986
2.30076
1.99012
1.81142
1.72544
1.68957
1.66718
1.6282
1.55792
1.37496
0.977576
0.240046
0.461015
0.38389
0.271502
0.255556
0.289906
0.23889
3.06219
3.18238
3.15566
3.12564
3.07429
2.97673
2.82688
2.59836
2.30078
1.99018
1.81166
1.72583
1.68988
1.66669
1.62758
1.5671
1.41341
1.11087
0.409756
0.446399
0.438283
0.323958
0.318132
0.329172
0.302923
3.06225
3.18243
3.15573
3.12573
3.0744
2.97686
2.82713
2.59828
2.3005
1.98967
1.81131
1.72556
1.68947
1.66615
1.62667
1.57524
1.44712
1.2212
0.630142
0.395767
0.491785
0.383813
0.387602
0.371995
0.384896
3.06225
3.18242
3.15572
3.12572
3.07438
2.97681
2.8271
2.59807
2.3004
1.98942
1.81108
1.72556
1.68945
1.66638
1.6267
1.5811
1.47732
1.3072
0.859842
0.343289
0.53521
0.451985
0.458407
0.420674
0.493296
3.06227
3.18244
3.15574
3.12574
3.07442
2.97686
2.82724
2.59818
2.30055
1.98942
1.81102
1.72549
1.68949
1.66717
1.62894
1.5849
1.49909
1.36749
1.06686
0.442185
0.55039
0.524337
0.528812
0.502192
0.686111
3.06225
3.18242
3.15572
3.12572
3.07438
2.97683
2.82705
2.59814
2.30026
1.98963
1.81113
1.72506
1.68845
1.66753
1.62307
1.51402
1.20676
0.475987
0.28808
0.410235
0.228184
0.132159
0.0311344
0.179373
0.0227701
3.06221
3.1824
3.1557
3.12568
3.07435
2.97681
2.82698
2.59841
2.3008
1.99016
1.81152
1.72539
1.68871
1.66784
1.62402
1.51839
1.22254
0.515228
0.278562
0.415509
0.236587
0.14124
0.0641646
0.187072
0.0573683
3.06225
3.18243
3.15575
3.12575
3.07444
2.9769
2.82713
2.59833
2.30051
1.98988
1.81133
1.72525
1.68881
1.66795
1.62546
1.52642
1.25173
0.59338
0.258078
0.426494
0.257676
0.16044
0.105892
0.203271
0.097221
3.06227
3.18239
3.15564
3.12559
3.07419
2.97654
2.82628
2.59734
2.29926
1.98801
1.80903
1.72288
1.68675
1.66609
1.62559
1.53607
1.28995
0.706647
0.220722
0.441196
0.290691
0.189033
0.151079
0.226474
0.139693
3.0622
3.18239
3.15569
3.12568
3.07436
2.97682
2.82699
2.59862
2.30108
1.99055
1.8118
1.7257
1.68959
1.66794
1.62837
1.54792
1.3324
0.837108
0.188646
0.454868
0.333729
0.22624
0.200406
0.255407
0.185797
3.06213
3.18235
3.15564
3.12561
3.07427
2.97672
2.82672
2.59866
2.30145
1.99097
1.81225
1.72627
1.69026
1.6678
1.62871
1.55834
1.37531
0.977979
0.240412
0.461058
0.384016
0.271669
0.255767
0.290129
0.239092
3.06227
3.18239
3.15564
3.12559
3.0742
2.97653
2.82642
2.59758
2.29955
1.98826
1.80947
1.7236
1.68791
1.66494
1.6262
1.56628
1.41306
1.11085
0.410015
0.446426
0.438394
0.324099
0.318316
0.329352
0.303079
3.06219
3.18232
3.15556
3.12549
3.07406
2.97636
2.82604
2.59741
2.29981
1.98855
1.80999
1.72425
1.68829
1.66513
1.62589
1.57489
1.44706
1.22128
0.630415
0.395749
0.491866
0.383932
0.387754
0.37213
0.385015
3.06219
3.1824
3.1557
3.12569
3.07439
2.97682
2.82707
2.59866
2.30142
1.99048
1.81202
1.7264
1.69019
1.66702
1.62718
1.58139
1.47754
1.30737
0.860128
0.343349
0.535267
0.452087
0.458522
0.420768
0.493383
3.06214
3.1823
3.15553
3.12544
3.07402
2.97633
2.82599
2.59758
2.30054
1.98901
1.8102
1.72457
1.68849
1.66628
1.62826
1.58466
1.49914
1.36756
1.0671
0.442442
0.550409
0.52442
0.528897
0.50226
0.686166
3.06215
3.18234
3.15564
3.12561
3.07426
2.97667
2.8267
2.59813
2.301
1.99005
1.81172
1.72607
1.69049
1.66784
1.63011
1.58623
1.50454
1.41331
1.23241
0.709128
0.530398
0.590219
0.601647
0.624273
0.879342
3.06219
3.18231
3.15554
3.12545
3.07401
2.9763
2.82594
2.59722
2.29967
1.98821
1.80956
1.72366
1.68865
1.66615
1.62806
1.5829
1.50596
1.45885
1.35278
0.979506
0.527113
0.640004
0.676031
0.739285
0.953006
3.06213
3.18231
3.1556
3.12557
3.0742
2.97662
2.82651
2.59809
2.30086
1.99003
1.81174
1.72587
1.69076
1.66797
1.62828
1.58198
1.51441
1.48919
1.42901
1.21627
0.719581
0.677241
0.7438
0.825085
0.980132
3.06209
3.18229
3.15558
3.12553
3.07415
2.97655
2.8264
2.59829
2.30137
1.9906
1.81226
1.72637
1.69106
1.66852
1.62939
1.58362
1.51418
1.49334
1.48893
1.3913
1.04573
0.732279
0.807386
0.904992
1.01614
3.06217
3.18229
3.15552
3.12543
3.07399
2.97626
2.82588
2.5973
2.29979
1.98833
1.80969
1.72377
1.68869
1.66645
1.628
1.58271
1.51092
1.50215
1.52184
1.4938
1.33115
0.92459
0.879531
0.966237
1.05367
3.06216
3.1823
3.15555
3.12547
3.07405
2.97635
2.82595
2.59745
2.30003
1.98856
1.8099
1.724
1.68894
1.66668
1.62813
1.5828
1.51297
1.49911
1.53202
1.55697
1.51172
1.29275
1.01624
1.01179
1.09789
3.06213
3.18229
3.15553
3.12543
3.07402
2.97631
2.82595
2.59781
2.30061
1.98914
1.81031
1.72433
1.68915
1.66687
1.62831
1.58291
1.5122
1.50107
1.53134
1.57309
1.59632
1.54294
1.3226
1.11199
1.13982
3.06212
3.18227
3.15551
3.12541
3.07399
2.97628
2.82585
2.59774
2.30058
1.98913
1.81035
1.72439
1.68921
1.66693
1.62835
1.58293
1.5125
1.50054
1.5324
1.57454
1.61746
1.64129
1.59469
1.40785
1.24307
3.06215
3.18229
3.15553
3.12545
3.07403
2.97631
2.82588
2.59746
2.3001
1.98865
1.81
1.72408
1.689
1.66672
1.62819
1.58281
1.51233
1.50067
1.53217
1.5752
1.61965
1.66215
1.68973
1.66059
1.53093
3.06211
3.18225
3.15547
3.12536
3.07391
2.97617
2.8257
2.59746
2.30026
1.98886
1.81018
1.72423
1.68906
1.66678
1.62824
1.58287
1.51238
1.50067
1.53224
1.57516
1.62009
1.66473
1.705
1.73616
1.72903
3.06206
3.18228
3.15557
3.12552
3.07415
2.97655
2.82638
2.59833
2.30149
1.99072
1.81236
1.72649
1.6912
1.6687
1.62976
1.58373
1.51285
1.50092
1.5324
1.5752
1.6203
1.66488
1.70758
1.74692
1.77842
3.06216
3.18227
3.1555
3.12541
3.07396
2.97624
2.82575
2.59711
2.29964
1.98822
1.80967
1.72381
1.68877
1.66653
1.62806
1.58274
1.5123
1.50063
1.53225
1.57512
1.62027
1.66492
1.70786
1.74846
1.78566
3.06216
3.18227
3.15551
3.12542
3.07397
2.97625
2.82578
2.59716
2.29969
1.98826
1.8097
1.72383
1.68878
1.66654
1.62807
1.58275
1.5123
1.50062
1.53224
1.57511
1.62027
1.66492
1.70791
1.74866
1.78666
3.06207
3.18228
3.15557
3.12553
3.07416
2.97656
2.82641
2.59837
2.3015
1.9907
1.81233
1.72644
1.69114
1.66865
1.62972
1.5837
1.51284
1.50091
1.5324
1.5752
1.62031
1.66494
1.70793
1.74869
1.78681
3.06213
3.18227
3.15549
3.12539
3.07395
2.97622
2.82582
2.59754
2.30026
1.98882
1.81006
1.7241
1.68893
1.66666
1.62815
1.5828
1.51234
1.50064
1.53226
1.57512
1.62027
1.66492
1.70793
1.74869
1.78683
3.06216
3.1823
3.15554
3.12546
3.07405
2.97633
2.82591
2.5974
2.29998
1.98849
1.80982
1.72394
1.68891
1.66669
1.62819
1.58285
1.51237
1.50066
1.53226
1.57513
1.62028
1.66492
1.70793
1.7487
1.78683
3.06216
3.18229
3.15554
3.12546
3.07404
2.97633
2.82589
2.5974
2.3
1.98852
1.80988
1.72399
1.68895
1.66672
1.62821
1.58285
1.51237
1.50066
1.53226
1.57513
1.62028
1.66492
1.70793
1.7487
1.78683
3.06211
3.18225
3.15547
3.12536
3.07391
2.97618
2.82568
2.5974
2.30018
1.98878
1.81013
1.7242
1.68905
1.66677
1.62824
1.58287
1.51238
1.50066
1.53227
1.57513
1.62028
1.66492
1.70793
1.7487
1.78683
3.06206
3.18227
3.15556
3.12551
3.07414
2.97655
2.82638
2.59841
2.30158
1.99082
1.81246
1.72655
1.69122
1.6687
1.62974
1.5837
1.51282
1.5009
1.53239
1.57519
1.62031
1.66494
1.70794
1.7487
1.78683
3.0621
3.18223
3.15545
3.12533
3.07387
2.97612
2.82557
2.59732
2.30014
1.98878
1.81017
1.72425
1.6891
1.66682
1.62828
1.58289
1.5124
1.50067
1.53227
1.57513
1.62028
1.66493
1.70793
1.7487
1.78683
3.06217
3.18231
3.15556
3.12548
3.07407
2.97637
2.82598
2.59747
2.30004
1.98854
1.80986
1.72395
1.6889
1.66665
1.62815
1.5828
1.51233
1.50064
1.53226
1.57513
1.62028
1.66493
1.70793
1.7487
1.78683
3.0621
3.18224
3.15548
3.12537
3.07393
2.97619
2.82566
2.59746
2.30034
1.98893
1.81023
1.72434
1.68922
1.66697
1.62842
1.58301
1.51249
1.50072
1.5323
1.57515
1.62029
1.66493
1.70793
1.7487
1.78684
3.06217
3.18231
3.15556
3.12548
3.07407
2.97637
2.82598
2.59746
2.30003
1.98854
1.80986
1.72395
1.68891
1.66666
1.62816
1.5828
1.51233
1.50064
1.53226
1.57513
1.62028
1.66493
1.70793
1.7487
1.78683
3.06209
3.18222
3.15544
3.12533
3.07386
2.97611
2.82553
2.59727
2.30009
1.98874
1.81014
1.72424
1.6891
1.66682
1.62828
1.5829
1.51241
1.50068
1.53228
1.57513
1.62028
1.66493
1.70793
1.7487
1.78683
3.06205
3.18227
3.15556
3.12551
3.07414
2.97655
2.82638
2.59841
2.30161
1.99085
1.81248
1.72657
1.69125
1.66872
1.62976
1.58371
1.51283
1.50091
1.53239
1.5752
1.62031
1.66494
1.70794
1.7487
1.78683
3.0621
3.18222
3.15544
3.12532
3.07386
2.9761
2.82554
2.59726
2.30009
1.98874
1.81015
1.72424
1.68909
1.66681
1.62826
1.58288
1.51239
1.50067
1.53228
1.57513
1.62028
1.66493
1.70793
1.7487
1.78683
3.06217
3.18231
3.15556
3.12548
3.07407
2.97637
2.82598
2.5975
2.30008
1.98858
1.8099
1.724
1.68895
1.6667
1.62819
1.58283
1.51235
1.50065
1.53226
1.57513
1.62028
1.66492
1.70793
1.7487
1.78683
3.0621
3.18225
3.15548
3.12537
3.07393
2.9762
2.82569
2.5975
2.30038
1.98898
1.81027
1.72435
1.68922
1.66695
1.62839
1.58297
1.51246
1.5007
1.53229
1.57514
1.62029
1.66493
1.70793
1.7487
1.78684
3.06217
3.18231
3.15556
3.12548
3.07407
2.97637
2.826
2.59753
2.30009
1.98859
1.80988
1.72396
1.6889
1.66665
1.62814
1.58279
1.51232
1.50064
1.53226
1.57512
1.62028
1.66492
1.70793
1.7487
1.78683
3.06211
3.18225
3.15547
3.12536
3.07392
2.97617
2.8257
2.59746
2.30023
1.98882
1.81013
1.7242
1.68903
1.66677
1.62823
1.58286
1.51238
1.50066
1.53226
1.57512
1.62027
1.66492
1.70793
1.74869
1.78683
3.06207
3.18229
3.15558
3.12553
3.07417
2.97658
2.82644
2.59846
2.30162
1.99084
1.81245
1.72653
1.69121
1.6687
1.62975
1.58371
1.51283
1.5009
1.53239
1.57519
1.62031
1.66494
1.70793
1.7487
1.78683
3.06216
3.18228
3.15551
3.12542
3.07398
2.97626
2.82579
2.59719
2.29971
1.98827
1.8097
1.72383
1.68877
1.66654
1.62807
1.58275
1.5123
1.50062
1.53224
1.57511
1.62027
1.66491
1.70792
1.74869
1.78683
3.06218
3.1823
3.15553
3.12545
3.07402
2.97631
2.82594
2.59737
2.29986
1.98836
1.8097
1.72379
1.68872
1.66649
1.62802
1.58271
1.51227
1.5006
1.53223
1.5751
1.62026
1.66491
1.70792
1.74869
1.78683
3.06208
3.1823
3.1556
3.12555
3.07419
2.9766
2.82646
2.5984
2.30152
1.9907
1.81231
1.72643
1.69113
1.66866
1.62973
1.58372
1.51285
1.50091
1.5324
1.57519
1.62031
1.66494
1.70793
1.7487
1.78683
3.06219
3.18232
3.15556
3.12548
3.07407
2.97637
2.82608
2.5975
2.29992
1.98838
1.80965
1.72372
1.68864
1.66642
1.62796
1.58268
1.51225
1.50059
1.53222
1.5751
1.62025
1.66491
1.70791
1.74868
1.78682
3.06218
3.1823
3.15553
3.12545
3.07401
2.97629
2.82587
2.59724
2.29975
1.9883
1.80969
1.72381
1.68874
1.6665
1.62803
1.58272
1.51228
1.50061
1.53223
1.5751
1.62026
1.66491
1.70792
1.74869
1.78683
3.06214
3.18233
3.15564
3.12561
3.07426
2.97668
2.82666
2.59829
2.30105
1.99017
1.81184
1.72598
1.69075
1.66829
1.62942
1.58348
1.51268
1.50082
1.53234
1.57516
1.62029
1.66492
1.70792
1.74869
1.78682
3.06214
3.18229
3.15551
3.12541
3.07399
2.97628
2.82589
2.59768
2.30048
1.98903
1.81021
1.72421
1.68898
1.6667
1.62817
1.58281
1.51234
1.50063
1.53224
1.57511
1.62026
1.66491
1.70792
1.74869
1.78682
3.06214
3.18234
3.15564
3.12562
3.07428
2.97671
2.82665
2.59832
2.30111
1.99017
1.8118
1.72593
1.69069
1.66825
1.62941
1.58351
1.51273
1.50085
1.53236
1.57518
1.6203
1.66493
1.70793
1.74869
1.78683
3.06219
3.18232
3.15556
3.12548
3.07406
2.97635
2.82601
2.59739
2.29985
1.98836
1.80968
1.72377
1.68869
1.66646
1.62799
1.5827
1.51226
1.5006
1.53223
1.5751
1.62026
1.66491
1.70792
1.74869
1.78682
3.06225
3.18242
3.15572
3.12572
3.07439
2.97682
2.8271
2.59811
2.3005
1.98939
1.811
1.72533
1.68974
1.66715
1.62955
1.58585
1.50428
1.41311
1.23219
0.708835
0.530399
0.590161
0.601578
0.624225
0.879305
3.06226
3.18243
3.15573
3.12574
3.07441
2.97687
2.82713
2.5983
2.30059
1.98954
1.81109
1.72519
1.69
1.66735
1.62897
1.58336
1.5061
1.45887
1.3527
0.979295
0.527024
0.63996
0.675966
0.739234
0.952979
3.06221
3.1824
3.15569
3.12567
3.07433
2.97678
2.82696
2.59848
2.30102
1.99004
1.81155
1.72559
1.69039
1.66762
1.62796
1.58174
1.51422
1.48904
1.42888
1.21607
0.719331
0.677205
0.743732
0.825015
0.9801
3.06224
3.18243
3.15575
3.12576
3.07445
2.97691
2.82712
2.59845
2.30084
1.9898
1.8114
1.7255