/*--------------------------------*- C++ -*----------------------------------*\
| =========                 |                                                 |
| \\      /  F ield         | OpenFOAM: The Open Source CFD Toolbox           |
|  \\    /   O peration     | Version:  4.1                                   |
|   \\  /    A nd           | Web:      www.OpenFOAM.org                      |
|    \\/     M anipulation  |                                                 |
\*---------------------------------------------------------------------------*/
FoamFile
{
    version     2.0;
    format      ascii;
    class       volScalarField;
    location    "0.22";
    object      p;
}
// * * * * * * * * * * * * * * * * * * * * * * * * * * * * * * * * * * * * * //

dimensions      [1 -1 -2 0 0 0 0];

internalField   nonuniform List<scalar> 
52500
(
0.0931445
0.0677741
0.0681305
0.0690686
0.0710739
0.0746057
0.0812403
0.0923236
0.110717
0.150883
0.189806
0.220175
0.239165
0.250376
0.267934
0.311769
0.450878
1.05826
4.00676
5.33191
4.49721
4.11951
5.02131
6.06839
5.90525
0.093145
0.067775
0.0681315
0.0690698
0.0710755
0.0746076
0.0812461
0.0923303
0.110719
0.150882
0.189771
0.220146
0.239132
0.250345
0.267549
0.310173
0.443769
1.01639
3.86024
5.3823
4.51333
4.11398
5.0042
6.06346
5.90855
0.0931454
0.0677755
0.068132
0.0690703
0.0710761
0.0746076
0.0812488
0.0923307
0.110715
0.150869
0.189735
0.220137
0.239105
0.250321
0.266865
0.307206
0.430789
0.93814
3.53274
5.47468
4.54456
4.09993
4.95949
6.04407
5.90613
0.093147
0.0677774
0.068134
0.0690725
0.0710785
0.074609
0.0812523
0.0923264
0.110697
0.150821
0.189662
0.220101
0.238992
0.250276
0.266138
0.303414
0.413847
0.844555
3.02668
5.56159
4.59744
4.08589
4.88765
5.99737
5.88962
0.0931473
0.067778
0.0681347
0.0690736
0.07108
0.0746113
0.0812564
0.0923308
0.110703
0.150832
0.189665
0.220127
0.238851
0.250224
0.265733
0.299612
0.395518
0.751553
2.45888
5.51487
4.69608
4.08032
4.78624
5.90932
5.85515
0.0931453
0.0677774
0.0681341
0.069073
0.0710791
0.0746166
0.0812658
0.0923551
0.110758
0.150959
0.189836
0.220245
0.238722
0.25015
0.266043
0.296138
0.377235
0.659775
1.90096
5.209
4.84634
4.09354
4.65153
5.75846
5.79341
0.0931465
0.0677786
0.0681353
0.0690743
0.0710805
0.0746164
0.0812663
0.0923449
0.110727
0.150879
0.189817
0.220114
0.238462
0.250117
0.266424
0.293157
0.362203
0.580537
1.41875
4.56358
5.04863
4.14
4.48511
5.52992
5.69655
0.0931501
0.0677816
0.0681384
0.0690777
0.0710849
0.0746163
0.0812667
0.0923302
0.110672
0.150731
0.189713
0.219877
0.238465
0.249959
0.26635
0.291183
0.35046
0.518305
1.08455
3.52378
5.27754
4.22175
4.29596
5.19749
5.52072
0.0931472
0.0677797
0.0681364
0.0690755
0.0710819
0.0746194
0.0812674
0.0923515
0.110731
0.150883
0.189855
0.220056
0.238608
0.249774
0.265744
0.291157
0.340686
0.467308
0.859675
2.45513
5.3127
4.34139
4.1062
4.74983
5.2196
0.0931474
0.0677806
0.0681375
0.0690769
0.071084
0.0746228
0.0812744
0.0923671
0.110754
0.150928
0.189906
0.220039
0.238858
0.249428
0.263972
0.290513
0.33272
0.432817
0.70664
1.67229
4.84354
4.46952
3.90339
4.30042
4.67503
0.0931479
0.0677788
0.0681354
0.0690741
0.0710805
0.0746116
0.0812598
0.0923347
0.1107
0.150815
0.189655
0.219995
0.239015
0.250173
0.267741
0.311604
0.450793
1.05848
4.00771
5.33123
4.49688
4.11938
5.02132
6.06836
5.90499
0.093146
0.067776
0.0681325
0.069071
0.0710768
0.074609
0.0812481
0.0923268
0.110708
0.150858
0.189727
0.220093
0.239077
0.250281
0.267485
0.310112
0.443736
1.01659
3.86114
5.38166
4.51301
4.11385
5.00424
6.0634
5.90831
0.0931462
0.0677778
0.0681345
0.0690733
0.0710791
0.0746145
0.0812617
0.0923415
0.110729
0.150889
0.189785
0.220153
0.239109
0.25025
0.266802
0.307172
0.430796
0.938301
3.53382
5.47393
4.54421
4.09978
4.9594
6.04408
5.90596
0.0931451
0.0677743
0.0681307
0.0690689
0.0710741
0.0746069
0.0812407
0.0923182
0.110707
0.150869
0.189733
0.220178
0.239045
0.250316
0.266173
0.303445
0.413876
0.844699
3.02772
5.56109
4.59701
4.08571
4.88745
5.99746
5.88949
0.0931461
0.0677776
0.0681342
0.0690729
0.0710786
0.0746136
0.0812603
0.0923383
0.110725
0.150883
0.189756
0.220208
0.238926
0.250198
0.265737
0.299648
0.395573
0.7517
2.46007
5.51455
4.69556
4.0801
4.78601
5.90938
5.85504
0.0931454
0.0677745
0.0681309
0.069069
0.071074
0.0746052
0.081239
0.0923108
0.110688
0.150823
0.189695
0.220163
0.238678
0.250218
0.26606
0.296154
0.377282
0.659956
1.90175
5.20934
4.84576
4.09325
4.6513
5.75856
5.79327
0.0931473
0.0677777
0.0681343
0.0690728
0.0710788
0.0746098
0.081254
0.0923259
0.110689
0.150795
0.189707
0.220038
0.238432
0.250137
0.266423
0.293158
0.362241
0.58067
1.41926
4.56452
5.04799
4.13968
4.48496
5.52996
5.69631
0.0931452
0.0677746
0.068131
0.0690691
0.0710743
0.0746057
0.0812423
0.0923199
0.110692
0.150815
0.189799
0.219985
0.238548
0.250026
0.266424
0.29124
0.350509
0.518396
1.08485
3.52497
5.2769
4.2214
4.29585
5.19756
5.52039
0.0931453
0.0677753
0.0681318
0.0690701
0.0710759
0.0746092
0.0812451
0.0923337
0.110718
0.150872
0.189841
0.220077
0.238673
0.249854
0.265808
0.291192
0.340739
0.467395
0.859882
2.45603
5.31241
4.34099
4.10612
4.7499
5.21924
0.0931448
0.0677741
0.0681305
0.0690686
0.0710737
0.0746066
0.0812366
0.0923231
0.110703
0.150849
0.189841
0.220036
0.238915
0.249509
0.264018
0.290579
0.332777
0.432866
0.706759
1.6728
4.84406
4.4691
3.90328
4.30039
4.67473
0.0931447
0.067774
0.0681304
0.0690683
0.0710734
0.0746047
0.081239
0.0923181
0.110703
0.150854
0.189752
0.22012
0.239126
0.250299
0.26786
0.311709
0.450872
1.05857
4.00795
5.33102
4.4968
4.11936
5.02129
6.06832
5.90496
0.0931451
0.0677748
0.0681312
0.0690694
0.0710748
0.0746064
0.081244
0.0923239
0.110706
0.150855
0.189729
0.220106
0.23911
0.250286
0.267492
0.310126
0.443769
1.01669
3.86135
5.38149
4.51293
4.11384
5.00421
6.06336
5.90827
0.093145
0.067774
0.0681304
0.0690683
0.0710732
0.0746039
0.081239
0.0923146
0.110692
0.15083
0.189689
0.220103
0.239081
0.250289
0.266834
0.307182
0.430806
0.938412
3.53407
5.47382
4.54413
4.09977
4.95938
6.04403
5.90592
0.0931467
0.0677764
0.0681329
0.0690711
0.0710765
0.0746069
0.0812452
0.0923143
0.110682
0.150794
0.189646
0.220102
0.239023
0.250258
0.26612
0.303404
0.413876
0.844763
3.02788
5.56102
4.59693
4.08569
4.88743
5.99743
5.88946
0.0931449
0.0677736
0.0681299
0.0690678
0.0710726
0.0746034
0.0812355
0.0923087
0.11069
0.150832
0.189693
0.220183
0.238902
0.250273
0.265781
0.29966
0.395575
0.75174
2.46014
5.51454
4.69547
4.08008
4.78599
5.90936
5.85501
0.093144
0.067775
0.0681315
0.0690699
0.0710751
0.0746123
0.081253
0.0923397
0.110746
0.150951
0.189844
0.22028
0.238786
0.250176
0.26607
0.296169
0.377283
0.659919
1.9018
5.20931
4.84566
4.09323
4.65128
5.75854
5.79325
0.0931449
0.0677736
0.0681299
0.0690678
0.0710724
0.0746032
0.081235
0.092307
0.110681
0.150806
0.189756
0.220085
0.238499
0.250185
0.26646
0.293182
0.362244
0.580651
1.41925
4.5645
5.04791
4.13965
4.48495
5.52995
5.6963
0.0931475
0.0677782
0.0681348
0.0690734
0.0710797
0.0746112
0.0812572
0.0923294
0.110686
0.150777
0.189754
0.219915
0.238485
0.249969
0.266365
0.291193
0.350471
0.518358
1.08481
3.52495
5.27683
4.22137
4.29584
5.19756
5.52039
0.093145
0.0677738
0.0681301
0.0690679
0.0710727
0.074604
0.0812353
0.0923145
0.110685
0.15081
0.189751
0.219981
0.238579
0.249773
0.265736
0.291148
0.340703
0.467365
0.859853
2.45602
5.31235
4.34096
4.10611
4.7499
5.21925
0.0931475
0.0677782
0.0681348
0.0690734
0.0710797
0.0746124
0.0812543
0.0923333
0.110691
0.150792
0.189751
0.219922
0.238804
0.249407
0.263928
0.29051
0.332716
0.432815
0.706716
1.67277
4.84402
4.46906
3.90327
4.30039
4.67473
0.0931446
0.0677734
0.0681297
0.0690676
0.0710723
0.074603
0.0812357
0.0923103
0.110688
0.150824
0.189715
0.220091
0.239116
0.250265
0.267826
0.31168
0.450857
1.0586
4.00807
5.33085
4.49672
4.11934
5.02125
6.06829
5.90494
0.0931446
0.0677735
0.0681298
0.0690676
0.0710723
0.0746031
0.0812356
0.0923103
0.110689
0.150826
0.18971
0.2201
0.239115
0.250283
0.267488
0.31012
0.443765
1.01671
3.86144
5.38133
4.51286
4.11382
5.00418
6.06333
5.90826
0.0931446
0.0677735
0.0681298
0.0690676
0.0710723
0.0746031
0.0812356
0.0923104
0.11069
0.150829
0.1897
0.22012
0.239104
0.250296
0.266838
0.307181
0.4308
0.93841
3.53414
5.47367
4.54406
4.09975
4.95935
6.044
5.90591
0.0931446
0.0677735
0.0681298
0.0690676
0.0710723
0.074603
0.0812356
0.0923106
0.110691
0.150832
0.189689
0.220148
0.239053
0.250283
0.266144
0.303426
0.413885
0.844764
3.02797
5.56086
4.59684
4.08567
4.8874
5.9974
5.88944
0.0931446
0.0677735
0.0681298
0.0690676
0.0710723
0.0746029
0.0812357
0.0923105
0.110691
0.150833
0.18968
0.220177
0.238916
0.250242
0.265752
0.29964
0.395574
0.751766
2.46027
5.51441
4.69537
4.08005
4.78596
5.90933
5.85499
0.0931446
0.0677735
0.0681298
0.0690676
0.0710723
0.0746029
0.0812359
0.0923101
0.110689
0.150826
0.189698
0.220167
0.238697
0.2502
0.266049
0.296148
0.377284
0.659975
1.90187
5.2093
4.84555
4.09319
4.65125
5.75851
5.79323
0.0931446
0.0677735
0.0681298
0.0690676
0.0710723
0.0746031
0.0812361
0.0923094
0.110684
0.150811
0.189746
0.220099
0.238496
0.250182
0.266461
0.293187
0.362254
0.580672
1.41931
4.56458
5.04777
4.1396
4.48492
5.52993
5.69627
0.0931446
0.0677735
0.0681298
0.0690676
0.0710723
0.0746034
0.0812356
0.0923097
0.11068
0.150796
0.189801
0.219989
0.238555
0.250029
0.266425
0.291237
0.350499
0.518384
1.08485
3.52507
5.2767
4.22131
4.2958
5.19754
5.52035
0.0931446
0.0677735
0.0681298
0.0690676
0.0710723
0.0746041
0.0812336
0.0923126
0.110685
0.15081
0.189781
0.220026
0.238633
0.249822
0.265779
0.291173
0.340721
0.467379
0.859876
2.4561
5.31227
4.34089
4.10606
4.74987
5.21921
0.0931446
0.0677735
0.0681298
0.0690676
0.0710723
0.0746045
0.0812329
0.0923135
0.110685
0.15081
0.189803
0.219992
0.238876
0.249471
0.263987
0.290552
0.332752
0.432843
0.706739
1.67282
4.84404
4.46899
3.90322
4.30035
4.67469
0.0931445
0.0677729
0.0681292
0.069067
0.0710715
0.0746016
0.0812338
0.0923075
0.110684
0.150817
0.189714
0.220088
0.239118
0.25026
0.267822
0.311676
0.450848
1.05854
4.00788
5.33102
4.49679
4.11931
5.02134
6.06829
5.90496
0.0931445
0.067773
0.0681292
0.069067
0.0710715
0.0746017
0.0812337
0.0923075
0.110685
0.150819
0.189708
0.220098
0.23912
0.250277
0.267482
0.310115
0.443755
1.01665
3.86126
5.38149
4.51292
4.11379
5.00425
6.06336
5.90823
0.0931445
0.067773
0.0681292
0.0690669
0.0710715
0.0746019
0.081233
0.092307
0.110686
0.150824
0.189698
0.220121
0.239108
0.250293
0.266834
0.307175
0.430789
0.938374
3.53398
5.47376
4.54413
4.09977
4.95956
6.04397
5.90579
0.0931445
0.067773
0.0681293
0.069067
0.0710716
0.074602
0.0812334
0.0923075
0.110687
0.150827
0.189685
0.220148
0.239058
0.25028
0.26614
0.30342
0.413877
0.84474
3.02784
5.56089
4.59693
4.08574
4.88775
5.99725
5.88928
0.0931445
0.067773
0.0681293
0.0690671
0.0710716
0.0746016
0.0812338
0.0923075
0.110687
0.150824
0.189677
0.220173
0.23892
0.250235
0.265747
0.299637
0.395571
0.751742
2.46008
5.51444
4.69548
4.08013
4.78625
5.90923
5.8548
0.0931445
0.0677731
0.0681294
0.0690672
0.0710718
0.074602
0.0812344
0.0923077
0.110686
0.150819
0.189696
0.220165
0.238699
0.250198
0.266051
0.29615
0.377285
0.659958
1.90173
5.20929
4.8457
4.09325
4.65144
5.75848
5.79315
0.0931444
0.067773
0.0681292
0.069067
0.0710716
0.0746018
0.0812342
0.0923074
0.110683
0.150808
0.189753
0.22011
0.238508
0.250192
0.266472
0.293197
0.36226
0.580666
1.41923
4.56446
5.04795
4.13967
4.48503
5.52988
5.69629
0.0931445
0.0677731
0.0681294
0.0690672
0.0710718
0.0746029
0.0812339
0.0923086
0.110681
0.1508
0.18981
0.220004
0.238574
0.250046
0.26644
0.291246
0.350504
0.518385
1.08483
3.52491
5.27687
4.2214
4.2959
5.19752
5.52046
0.0931446
0.0677733
0.0681296
0.0690675
0.0710722
0.0746037
0.0812336
0.0923139
0.110689
0.150818
0.1898
0.220044
0.238651
0.249838
0.265794
0.291185
0.340729
0.46738
0.859861
2.45599
5.31238
4.34099
4.10615
4.74987
5.21928
0.0931446
0.0677735
0.0681298
0.0690677
0.0710725
0.0746042
0.0812338
0.0923159
0.110688
0.150816
0.189808
0.21999
0.238869
0.249464
0.263984
0.29055
0.33275
0.432841
0.706729
1.67275
4.84403
4.46909
3.90328
4.30038
4.67474
0.0931446
0.0677735
0.0681298
0.0690676
0.0710723
0.0746031
0.0812359
0.0923106
0.110689
0.150824
0.189716
0.220091
0.239115
0.250265
0.267827
0.31168
0.450856
1.0586
4.00805
5.33087
4.49674
4.11935
5.02125
6.06829
5.90494
0.0931446
0.0677735
0.0681298
0.0690676
0.0710724
0.0746032
0.0812358
0.0923106
0.110689
0.150826
0.189711
0.2201
0.239114
0.250283
0.267488
0.310121
0.443764
1.01671
3.86142
5.38135
4.51287
4.11383
5.00418
6.06333
5.90826
0.0931446
0.0677735
0.0681298
0.0690676
0.0710724
0.0746031
0.0812357
0.0923106
0.11069
0.150829
0.189701
0.22012
0.239104
0.250297
0.266839
0.307182
0.4308
0.938406
3.53412
5.4737
4.54407
4.09976
4.95934
6.044
5.90591
0.0931446
0.0677735
0.0681298
0.0690676
0.0710724
0.0746031
0.0812358
0.092311
0.110691
0.150832
0.18969
0.220148
0.239051
0.250285
0.266146
0.303428
0.413886
0.844762
3.02795
5.56089
4.59686
4.08568
4.88739
5.9974
5.88945
0.0931446
0.0677735
0.0681298
0.0690676
0.0710724
0.074603
0.0812358
0.0923107
0.110692
0.150834
0.189682
0.220178
0.238917
0.250246
0.265756
0.299644
0.395578
0.751768
2.46025
5.51443
4.69539
4.08006
4.78596
5.90933
5.855
0.0931446
0.0677735
0.0681298
0.0690676
0.0710724
0.074603
0.0812361
0.0923106
0.11069
0.150827
0.189701
0.22017
0.238699
0.250208
0.266057
0.296155
0.377291
0.65998
1.90186
5.20932
4.84558
4.0932
4.65125
5.75851
5.79324
0.0931446
0.0677735
0.0681298
0.0690676
0.0710724
0.0746032
0.0812362
0.09231
0.110686
0.150814
0.189753
0.220107
0.238506
0.250194
0.266473
0.293199
0.362264
0.580682
1.41931
4.56458
5.04781
4.13961
4.48492
5.52993
5.69629
0.0931446
0.0677736
0.0681299
0.0690677
0.0710725
0.0746037
0.081236
0.0923111
0.110684
0.150804
0.18981
0.220002
0.238571
0.250045
0.26644
0.291249
0.350509
0.518394
1.08486
3.52505
5.27674
4.22132
4.29581
5.19753
5.52037
0.0931447
0.0677737
0.06813
0.0690679
0.0710728
0.074605
0.0812351
0.0923163
0.110693
0.150826
0.189803
0.22005
0.238656
0.249843
0.265798
0.291186
0.340732
0.467388
0.85988
2.45608
5.3123
4.34091
4.10608
4.74987
5.21923
0.0931447
0.0677738
0.0681301
0.0690681
0.071073
0.0746054
0.0812348
0.092318
0.110693
0.150826
0.189816
0.220002
0.238881
0.249475
0.263989
0.290554
0.332753
0.432844
0.706738
1.6728
4.84404
4.46901
3.90323
4.30036
4.67471
0.0931446
0.0677734
0.0681297
0.0690676
0.0710723
0.074603
0.0812357
0.0923103
0.110688
0.150824
0.189715
0.220091
0.239116
0.250265
0.267826
0.31168
0.450857
1.05861
4.00807
5.33085
4.49672
4.11934
5.02125
6.06829
5.90494
0.0931446
0.0677735
0.0681298
0.0690676
0.0710723
0.0746031
0.0812356
0.0923103
0.110689
0.150826
0.18971
0.2201
0.239115
0.250283
0.267488
0.31012
0.443765
1.01671
3.86144
5.38133
4.51286
4.11382
5.00418
6.06333
5.90826
0.0931446
0.0677735
0.0681298
0.0690676
0.0710723
0.0746031
0.0812356
0.0923104
0.11069
0.150829
0.1897
0.22012
0.239104
0.250296
0.266838
0.307181
0.4308
0.938411
3.53414
5.47367
4.54406
4.09975
4.95935
6.044
5.90591
0.0931446
0.0677735
0.0681298
0.0690676
0.0710723
0.074603
0.0812356
0.0923106
0.110691
0.150832
0.189689
0.220148
0.239053
0.250283
0.266144
0.303426
0.413885
0.844764
3.02798
5.56086
4.59684
4.08567
4.8874
5.9974
5.88944
0.0931446
0.0677735
0.0681298
0.0690676
0.0710723
0.0746029
0.0812357
0.0923105
0.110691
0.150833
0.18968
0.220177
0.238916
0.250242
0.265752
0.29964
0.395574
0.751766
2.46027
5.51441
4.69537
4.08005
4.78596
5.90933
5.85499
0.0931446
0.0677735
0.0681298
0.0690676
0.0710723
0.0746029
0.0812359
0.0923101
0.110689
0.150826
0.189698
0.220167
0.238698
0.2502
0.266049
0.296148
0.377284
0.659975
1.90187
5.2093
4.84555
4.09319
4.65125
5.75851
5.79323
0.0931446
0.0677735
0.0681298
0.0690676
0.0710723
0.0746031
0.0812361
0.0923094
0.110684
0.150811
0.189746
0.220099
0.238496
0.250182
0.266461
0.293187
0.362254
0.580672
1.41931
4.56458
5.04777
4.1396
4.48492
5.52993
5.69627
0.0931446
0.0677735
0.0681298
0.0690676
0.0710723
0.0746034
0.0812356
0.0923097
0.11068
0.150796
0.189801
0.219989
0.238555
0.250029
0.266425
0.291237
0.350499
0.518384
1.08485
3.52507
5.2767
4.22131
4.2958
5.19754
5.52035
0.0931446
0.0677735
0.0681298
0.0690676
0.0710723
0.0746041
0.0812336
0.0923126
0.110685
0.15081
0.189781
0.220026
0.238633
0.249822
0.265779
0.291173
0.340721
0.467379
0.859877
2.45611
5.31227
4.34089
4.10606
4.74987
5.21921
0.0931446
0.0677735
0.0681298
0.0690676
0.0710723
0.0746045
0.0812329
0.0923135
0.110685
0.15081
0.189803
0.219992
0.238876
0.249471
0.263987
0.290552
0.332752
0.432843
0.706739
1.67282
4.84404
4.46899
3.90322
4.30035
4.67469
0.0931447
0.067774
0.0681304
0.0690683
0.0710734
0.0746047
0.081239
0.0923181
0.110703
0.150854
0.189752
0.22012
0.239126
0.250299
0.26786
0.311709
0.450872
1.05857
4.00795
5.33102
4.4968
4.11936
5.02129
6.06832
5.90496
0.0931451
0.0677748
0.0681312
0.0690694
0.0710748
0.0746064
0.081244
0.0923239
0.110706
0.150855
0.189729
0.220106
0.23911
0.250286
0.267492
0.310126
0.443769
1.01669
3.86135
5.38149
4.51293
4.11384
5.00421
6.06336
5.90827
0.093145
0.067774
0.0681304
0.0690683
0.0710732
0.0746039
0.081239
0.0923146
0.110692
0.15083
0.189689
0.220103
0.239081
0.250289
0.266834
0.307182
0.430806
0.938412
3.53407
5.47382
4.54413
4.09977
4.95938
6.04403
5.90592
0.0931467
0.0677764
0.0681329
0.0690711
0.0710765
0.0746069
0.0812452
0.0923143
0.110682
0.150794
0.189646
0.220102
0.239023
0.250258
0.26612
0.303404
0.413876
0.844763
3.02788
5.56102
4.59693
4.08569
4.88743
5.99743
5.88946
0.0931449
0.0677736
0.0681299
0.0690678
0.0710726
0.0746034
0.0812355
0.0923087
0.11069
0.150832
0.189693
0.220183
0.238902
0.250273
0.265781
0.29966
0.395575
0.75174
2.46014
5.51454
4.69547
4.08008
4.78599
5.90936
5.85501
0.093144
0.067775
0.0681315
0.0690699
0.0710751
0.0746123
0.081253
0.0923397
0.110746
0.150951
0.189844
0.220279
0.238786
0.250176
0.26607
0.296169
0.377283
0.659919
1.9018
5.20931
4.84566
4.09323
4.65128
5.75854
5.79325
0.0931449
0.0677736
0.0681299
0.0690678
0.0710724
0.0746032
0.081235
0.092307
0.110681
0.150806
0.189756
0.220085
0.238499
0.250185
0.26646
0.293182
0.362244
0.580651
1.41925
4.5645
5.04791
4.13965
4.48495
5.52995
5.6963
0.0931475
0.0677782
0.0681348
0.0690734
0.0710797
0.0746112
0.0812572
0.0923294
0.110686
0.150777
0.189754
0.219915
0.238485
0.249969
0.266365
0.291193
0.350471
0.518358
1.08481
3.52495
5.27683
4.22137
4.29584
5.19756
5.52039
0.093145
0.0677738
0.0681301
0.0690679
0.0710727
0.074604
0.0812353
0.0923145
0.110685
0.15081
0.189751
0.219981
0.238579
0.249773
0.265736
0.291148
0.340703
0.467365
0.859853
2.45602
5.31235
4.34096
4.10611
4.7499
5.21925
0.0931475
0.0677782
0.0681348
0.0690734
0.0710797
0.0746124
0.0812543
0.0923333
0.110691
0.150792
0.189751
0.219922
0.238804
0.249407
0.263928
0.29051
0.332716
0.432815
0.706716
1.67277
4.84402
4.46906
3.90327
4.30039
4.67473
0.0931479
0.0677788
0.0681354
0.0690741
0.0710805
0.0746116
0.0812598
0.0923347
0.1107
0.150815
0.189655
0.219995
0.239015
0.250173
0.267741
0.311604
0.450793
1.05848
4.00771
5.33123
4.49688
4.11938
5.02132
6.06836
5.90499
0.093146
0.067776
0.0681325
0.069071
0.0710768
0.074609
0.0812481
0.0923268
0.110708
0.150858
0.189727
0.220093
0.239077
0.250281
0.267485
0.310112
0.443736
1.01659
3.86113
5.38166
4.51301
4.11385
5.00425
6.0634
5.90831
0.0931462
0.0677778
0.0681345
0.0690733
0.0710791
0.0746145
0.0812617
0.0923415
0.110729
0.150889
0.189786
0.220153
0.239109
0.25025
0.266802
0.307172
0.430796
0.938301
3.53382
5.47393
4.54421
4.09978
4.9594
6.04408
5.90596
0.0931451
0.0677743
0.0681307
0.0690689
0.0710741
0.0746069
0.0812407
0.0923182
0.110707
0.150869
0.189733
0.220178
0.239045
0.250317
0.266173
0.303445
0.413876
0.844698
3.02772
5.56109
4.59701
4.08571
4.88745
5.99746
5.88949
0.0931461
0.0677776
0.0681342
0.0690729
0.0710786
0.0746136
0.0812603
0.0923383
0.110725
0.150883
0.189756
0.220208
0.238926
0.250198
0.265737
0.299648
0.395573
0.7517
2.46007
5.51455
4.69556
4.0801
4.78601
5.90938
5.85504
0.0931454
0.0677745
0.0681309
0.069069
0.071074
0.0746052
0.081239
0.0923108
0.110688
0.150823
0.189694
0.220162
0.238678
0.250218
0.26606
0.296153
0.377282
0.659956
1.90175
5.20934
4.84576
4.09325
4.6513
5.75856
5.79327
0.0931473
0.0677777
0.0681343
0.0690728
0.0710788
0.0746098
0.081254
0.0923259
0.110689
0.150795
0.189707
0.220038
0.238432
0.250137
0.266423
0.293158
0.36224
0.58067
1.41926
4.56452
5.04799
4.13968
4.48496
5.52996
5.69631
0.0931452
0.0677746
0.068131
0.0690691
0.0710743
0.0746057
0.0812423
0.0923199
0.110692
0.150816
0.189799
0.219985
0.238548
0.250026
0.266423
0.29124
0.350509
0.518396
1.08485
3.52496
5.2769
4.2214
4.29585
5.19756
5.52039
0.0931453
0.0677753
0.0681318
0.0690701
0.0710759
0.0746092
0.0812451
0.0923337
0.110718
0.150872
0.189841
0.220076
0.238673
0.249854
0.265808
0.291192
0.340739
0.467395
0.859882
2.45603
5.31241
4.34099
4.10612
4.7499
5.21924
0.0931448
0.0677741
0.0681305
0.0690685
0.0710737
0.0746065
0.0812365
0.092323
0.110703
0.150849
0.189841
0.220036
0.238915
0.249508
0.264018
0.290579
0.332777
0.432866
0.706759
1.6728
4.84406
4.4691
3.90328
4.30039
4.67473
0.0931452
0.0677752
0.0681317
0.0690699
0.0710757
0.0746075
0.0812471
0.0923305
0.110717
0.150876
0.189763
0.22012
0.23911
0.250308
0.267868
0.311709
0.450827
1.05819
4.00652
5.33199
4.49731
4.11963
5.02156
6.06829
5.9051
0.0931466
0.0677766
0.0681331
0.0690716
0.0710773
0.0746077
0.0812482
0.0923235
0.110698
0.150828
0.189724
0.220096
0.239104
0.250315
0.26752
0.310143
0.443732
1.01628
3.85996
5.38248
4.5134
4.11401
5.00434
6.0635
5.90846
0.0931452
0.0677754
0.0681319
0.0690704
0.0710763
0.074609
0.0812474
0.0923305
0.11072
0.150887
0.189759
0.220154
0.2391
0.250337
0.266877
0.307208
0.430768
0.938067
3.53252
5.47479
4.54463
4.09988
4.95961
6.04413
5.90611
0.0931446
0.0677762
0.0681328
0.0690716
0.0710774
0.0746137
0.0812624
0.0923542
0.110761
0.15097
0.189843
0.220249
0.23913
0.250249
0.266141
0.303453
0.413879
0.844476
3.0265
5.56162
4.5975
4.08587
4.88772
5.99735
5.88962
0.0931472
0.0677774
0.0681339
0.0690725
0.0710784
0.0746086
0.0812508
0.0923194
0.110684
0.150794
0.189636
0.220108
0.238811
0.250237
0.265748
0.299626
0.395525
0.751553
2.45886
5.51484
4.69615
4.08035
4.78626
5.9093
5.85518
0.0931496
0.0677805
0.0681372
0.0690764
0.0710832
0.0746134
0.0812631
0.0923292
0.110685
0.150774
0.189633
0.220067
0.238593
0.250151
0.265993
0.296089
0.377219
0.659807
1.90087
5.20907
4.84644
4.09356
4.65154
5.75847
5.79344
0.0931448
0.0677763
0.0681329
0.0690715
0.071077
0.0746138
0.0812587
0.0923415
0.110734
0.150911
0.189843
0.220138
0.238467
0.250117
0.266424
0.293157
0.3622
0.580529
1.41872
4.56354
5.04868
4.14002
4.48511
5.52994
5.69654
0.0931476
0.0677807
0.0681376
0.069077
0.0710843
0.0746218
0.0812796
0.0923661
0.110749
0.150907
0.189887
0.220004
0.238503
0.249933
0.266354
0.291169
0.350415
0.518247
1.08449
3.52375
5.27751
4.22176
4.29596
5.1975
5.52068
0.0931473
0.0677775
0.068134
0.0690726
0.0710784
0.0746105
0.081247
0.0923179
0.110674
0.150768
0.189718
0.219947
0.238555
0.249748
0.265708
0.291121
0.340664
0.467299
0.85967
2.4551
5.31268
4.3414
4.1062
4.74984
5.2196
0.0931492
0.0677821
0.0681391
0.0690786
0.0710858
0.0746209
0.0812781
0.0923602
0.110721
0.150832
0.189815
0.219936
0.238772
0.249352
0.263911
0.29046
0.332671
0.432774
0.70661
1.67227
4.84353
4.46953
3.90339
4.30042
4.67503
0.0931487
0.0677813
0.0681382
0.0690777
0.0710856
0.074621
0.0812719
0.0923593
0.110728
0.150854
0.189903
0.21985
0.239293
0.248531
0.265331
0.288083
0.335584
0.413215
0.597177
1.18841
3.44036
4.50077
3.79145
3.81319
3.46068
0.0931476
0.0677813
0.0681383
0.0690778
0.0710853
0.0746234
0.0812823
0.092372
0.110755
0.150908
0.190073
0.219809
0.239431
0.248659
0.264703
0.288634
0.339948
0.395944
0.520371
0.889179
2.17753
4.42071
3.77579
3.45985
2.98365
0.0931493
0.0677822
0.0681391
0.0690788
0.0710868
0.0746209
0.0812802
0.0923558
0.110723
0.150818
0.189985
0.219694
0.239275
0.249178
0.264047
0.289883
0.339546
0.380625
0.469003
0.699795
1.45854
3.81934
3.70579
3.37581
2.96395
0.0931508
0.0677839
0.068141
0.0690808
0.0710891
0.074622
0.0812844
0.0923536
0.110704
0.150766
0.189919
0.21963
0.239184
0.249222
0.263577
0.289374
0.338694
0.385357
0.44246
0.577118
0.980121
2.34172
3.47827
3.31913
2.98206
0.0931483
0.0677822
0.0681393
0.0690789
0.0710864
0.0746252
0.0812867
0.0923701
0.110748
0.150882
0.19008
0.219768
0.239248
0.249247
0.26349
0.289057
0.340368
0.383949
0.423419
0.508806
0.72711
1.39174
2.96319
3.15217
3.00344
0.0931484
0.0677826
0.0681396
0.0690795
0.0710874
0.0746272
0.081288
0.092374
0.110754
0.150901
0.190105
0.219799
0.239266
0.249282
0.263501
0.289183
0.339359
0.385195
0.424844
0.471299
0.581498
0.880397
1.72151
2.80612
2.91584
0.0931494
0.0677832
0.0681403
0.0690801
0.0710877
0.0746255
0.0812844
0.0923573
0.110719
0.150818
0.190045
0.21975
0.239245
0.249271
0.263479
0.289089
0.339904
0.384252
0.424825
0.469637
0.524218
0.652775
0.991751
1.84797
2.63704
0.09315
0.0677842
0.0681413
0.0690813
0.0710893
0.0746275
0.0812895
0.0923635
0.110724
0.150826
0.190038
0.219736
0.239226
0.249258
0.263458
0.28912
0.339713
0.384603
0.424391
0.468703
0.518641
0.577012
0.710248
1.03121
1.77768
0.0931488
0.0677831
0.0681402
0.0690801
0.0710881
0.0746273
0.0812911
0.0923736
0.110747
0.150879
0.190063
0.219753
0.23922
0.249248
0.263448
0.289097
0.339762
0.384488
0.42454
0.468487
0.517355
0.57014
0.630679
0.749185
1.00915
0.0931503
0.067785
0.0681422
0.0690822
0.0710904
0.0746285
0.0812949
0.0923726
0.110734
0.150838
0.190025
0.219709
0.239192
0.249229
0.263438
0.289098
0.339756
0.384501
0.424499
0.468528
0.517202
0.568839
0.623741
0.684259
0.778998
0.0931516
0.0677852
0.0681423
0.0690825
0.0710913
0.0746252
0.0812886
0.0923595
0.11071
0.150775
0.18994
0.219651
0.239189
0.249246
0.263436
0.289102
0.339761
0.384507
0.424485
0.468551
0.517119
0.568795
0.622341
0.676742
0.734875
0.0931487
0.0677836
0.0681408
0.0690809
0.0710893
0.074629
0.0812961
0.0923867
0.110775
0.150932
0.190108
0.219788
0.239243
0.249266
0.263464
0.289105
0.339763
0.38451
0.424485
0.468558
0.51711
0.568782
0.622162
0.675751
0.728761
0.0931486
0.0677834
0.0681406
0.0690806
0.0710889
0.0746283
0.0812945
0.0923835
0.110769
0.15092
0.190098
0.219783
0.239243
0.24927
0.26347
0.289113
0.339772
0.384518
0.424491
0.468565
0.51711
0.568788
0.622126
0.675629
0.727919
0.0931515
0.0677848
0.068142
0.069082
0.0710907
0.0746248
0.0812863
0.0923566
0.110708
0.150774
0.189956
0.219676
0.239223
0.249283
0.263472
0.289136
0.33979
0.384531
0.424501
0.468572
0.517114
0.568792
0.622122
0.675613
0.7278
0.0931496
0.0677838
0.0681408
0.0690806
0.0710884
0.0746261
0.0812878
0.0923645
0.110731
0.150842
0.19006
0.219763
0.239254
0.249291
0.263496
0.289142
0.339793
0.384537
0.424505
0.468576
0.517117
0.568795
0.622123
0.675611
0.727781
0.0931484
0.0677829
0.0681401
0.0690801
0.0710883
0.0746286
0.0812903
0.0923792
0.110764
0.150922
0.190137
0.21984
0.239308
0.249323
0.263513
0.289133
0.339784
0.38453
0.424499
0.468571
0.517113
0.568791
0.62212
0.675609
0.727776
0.0931485
0.0677831
0.0681403
0.0690804
0.0710887
0.0746286
0.0812917
0.09238
0.110762
0.150915
0.190116
0.219811
0.239275
0.249293
0.263486
0.289116
0.339772
0.384521
0.424493
0.468566
0.517109
0.568788
0.622117
0.675606
0.727774
0.0931502
0.0677851
0.0681423
0.0690824
0.0710908
0.0746292
0.0812965
0.0923762
0.110743
0.150859
0.190047
0.219731
0.239209
0.249245
0.263452
0.289108
0.339766
0.384518
0.424491
0.468565
0.517108
0.568788
0.622116
0.675606
0.727774
0.0931519
0.0677851
0.0681422
0.0690822
0.0710907
0.0746237
0.0812871
0.0923531
0.110696
0.150744
0.189897
0.219609
0.239158
0.249227
0.263424
0.289106
0.339771
0.384518
0.424491
0.468565
0.517108
0.568787
0.622116
0.675606
0.727774
0.0931508
0.0677863
0.0681436
0.069084
0.071093
0.0746321
0.0813042
0.0923855
0.110752
0.150864
0.190041
0.219716
0.23919
0.249225
0.263433
0.289094
0.339754
0.38451
0.424486
0.468562
0.517107
0.568787
0.622117
0.675607
0.727774
0.0931482
0.0677821
0.0681391
0.0690788
0.0710864
0.0746257
0.081284
0.0923694
0.110751
0.150901
0.190109
0.219812
0.239281
0.249302
0.263496
0.289127
0.339784
0.384527
0.424497
0.468569
0.517112
0.568791
0.622119
0.675608
0.727776
0.0931506
0.0677862
0.0681436
0.0690841
0.0710932
0.0746333
0.0813025
0.0923861
0.110758
0.150886
0.190097
0.219784
0.23926
0.249281
0.263472
0.289107
0.339756
0.384514
0.424489
0.468564
0.517108
0.568788
0.622118
0.675608
0.727776
0.0931482
0.0677821
0.0681391
0.0690789
0.0710865
0.0746258
0.081284
0.09237
0.110752
0.150904
0.190109
0.219811
0.239279
0.2493
0.263494
0.289125
0.339782
0.384527
0.424497
0.46857
0.517112
0.568791
0.62212
0.675609
0.727776
0.0931509
0.0677867
0.068144
0.0690845
0.0710938
0.0746333
0.081307
0.09239
0.11076
0.15088
0.190055
0.219728
0.2392
0.249232
0.263438
0.289095
0.339754
0.384509
0.424486
0.468562
0.517106
0.568787
0.622117
0.675607
0.727775
0.093152
0.0677852
0.0681422
0.0690822
0.0710907
0.0746231
0.0812866
0.0923523
0.110693
0.150735
0.189883
0.219594
0.239145
0.249214
0.263412
0.289097
0.339764
0.384513
0.424488
0.468562
0.517106
0.568787
0.622116
0.675606
0.727774
0.0931509
0.0677867
0.068144
0.0690845
0.0710937
0.0746331
0.081307
0.0923897
0.110759
0.150876
0.190049
0.21972
0.23919
0.249223
0.263429
0.28909
0.33975
0.384505
0.424482
0.468559
0.517104
0.568785
0.622115
0.675605
0.727773
0.0931482
0.067782
0.0681391
0.0690789
0.0710865
0.0746256
0.0812839
0.0923688
0.110749
0.150897
0.190097
0.219795
0.239263
0.249285
0.26348
0.289115
0.339774
0.38452
0.424491
0.468564
0.517107
0.568786
0.622115
0.675605
0.727773
0.0931506
0.067786
0.0681433
0.0690837
0.0710926
0.0746322
0.0813005
0.0923818
0.11075
0.15087
0.190078
0.219766
0.239244
0.249268
0.263462
0.289104
0.339755
0.384511
0.424485
0.46856
0.517104
0.568785
0.622114
0.675604
0.727773
0.0931481
0.0677818
0.0681388
0.0690785
0.0710861
0.0746249
0.0812833
0.0923672
0.110746
0.150888
0.190099
0.219805
0.239277
0.249299
0.263492
0.289125
0.339781
0.384524
0.424492
0.468564
0.517107
0.568786
0.622115
0.675605
0.727773
0.0931503
0.067785
0.0681422
0.0690822
0.0710905
0.0746292
0.0812953
0.0923735
0.110737
0.150847
0.190048
0.219734
0.239216
0.249251
0.263457
0.289111
0.339765
0.384516
0.424489
0.468562