/*--------------------------------*- C++ -*----------------------------------*\
| =========                 |                                                 |
| \\      /  F ield         | OpenFOAM: The Open Source CFD Toolbox           |
|  \\    /   O peration     | Version:  4.1                                   |
|   \\  /    A nd           | Web:      www.OpenFOAM.org                      |
|    \\/     M anipulation  |                                                 |
\*---------------------------------------------------------------------------*/
FoamFile
{
    version     2.0;
    format      ascii;
    class       surfaceScalarField;
    location    "0.22";
    object      phi;
}
// * * * * * * * * * * * * * * * * * * * * * * * * * * * * * * * * * * * * * //

dimensions      [1 0 -1 0 0 0 0];

internalField   nonuniform List<scalar> 
150500
(
0.00202655
-1.42236e-09
-1.48299e-11
0.00204096
-3.63241e-09
-1.95546e-11
0.00205766
-6.40676e-09
-2.04705e-11
0.00207803
-1.00899e-08
-2.30007e-11
0.00209784
-1.54453e-08
-2.75541e-11
0.00211708
-2.45281e-08
-2.43448e-11
0.00215432
-4.60508e-08
-8.14886e-11
0.00220364
-7.38689e-08
-4.6614e-11
0.00228987
-1.13437e-07
7.02297e-11
0.0025366
-1.44657e-07
2.87649e-10
0.00276213
-9.94912e-08
6.4708e-10
0.00301845
-1.21668e-07
7.79197e-10
0.00322651
-1.22362e-07
6.50177e-10
0.0034074
1.02973e-08
8.86162e-10
0.00345363
4.8609e-07
8.4147e-10
0.00313525
1.61737e-06
7.30423e-10
0.00253239
1.62113e-05
3.81239e-10
-8.38496e-05
0.000127836
-1.01364e-09
-0.0090193
0.00114489
-4.5354e-09
-0.00516396
0.00145853
3.08901e-09
-0.00236193
0.0010307
1.5009e-09
-0.00130227
0.000817511
6.2261e-10
-0.00215731
0.000950293
-7.4593e-11
-0.0021759
0.00105936
1.38288e-10
0.00107794
1.20997e-09
0.00202655
-2.38041e-09
-4.45805e-12
0.00204096
-5.12784e-09
-4.02382e-12
0.00205766
-1.01483e-08
-4.16063e-12
0.00207804
-1.7408e-08
-5.00123e-12
0.00209785
-2.79048e-08
-5.1959e-12
0.00211711
-4.41752e-08
-5.91721e-12
0.00215436
-7.39213e-08
-8.26078e-12
0.00220368
-1.07306e-07
1.43194e-11
0.00228988
-1.33534e-07
4.69346e-11
0.00253642
-1.30786e-07
1.04893e-10
0.00276184
-3.58362e-08
1.8911e-10
0.0030182
-5.7069e-08
2.27709e-10
0.00322627
-3.26487e-08
2.37352e-10
0.00340604
1.98348e-07
2.77335e-10
0.00346098
7.8687e-07
2.8028e-10
0.00315925
2.79378e-06
2.68798e-10
0.00258336
2.97558e-05
1.47e-10
0.000195285
0.000220515
-9.27064e-10
-0.00872219
0.00197456
-4.23827e-09
-0.00518615
0.00305758
2.86997e-09
-0.00233068
0.00211956
1.44129e-09
-0.00122321
0.00164919
5.82009e-10
-0.00210703
0.00191687
-2.08364e-10
-0.00219264
0.00211902
2.70434e-10
0.00218099
1.13856e-09
0.00202655
-3.15569e-09
-3.34423e-12
0.00204096
-7.21377e-09
-9.93285e-12
0.00205767
-1.39727e-08
-1.05513e-11
0.00207805
-2.40504e-08
-1.23662e-11
0.00209787
-3.88416e-08
-1.25863e-11
0.00211713
-6.07508e-08
-2.87877e-11
0.00215437
-9.21296e-08
-5.42014e-11
0.00220368
-1.1067e-07
-4.50898e-11
0.00228975
-1.04572e-07
-5.70213e-11
0.00253614
-6.60989e-08
-8.44862e-11
0.00276154
4.77167e-08
-2.18047e-10
0.00301795
5.35181e-08
-6.81966e-11
0.00322613
1.55538e-07
-1.82519e-11
0.00340361
4.3663e-07
3.0796e-10
0.00347665
4.98894e-07
2.75482e-10
0.00320763
2.6336e-06
1.49831e-10
0.00267645
3.82297e-05
-3.33976e-11
0.000819445
0.000275907
-7.50671e-10
-0.00797523
0.00251852
-5.07063e-09
-0.00530587
0.00472186
3.34446e-09
-0.00229095
0.00328106
1.58105e-09
-0.00106851
0.00252005
6.60056e-10
-0.00199893
0.0028889
3.96254e-10
-0.00222368
0.00320239
-4.271e-11
0.00335928
8.19947e-10
0.00202655
-1.48817e-09
8.14029e-12
0.00204098
-4.79246e-09
1.28338e-11
0.00205767
-1.04437e-08
1.3468e-11
0.00207804
-1.95646e-08
1.48841e-11
0.00209782
-3.49495e-08
1.82992e-11
0.00211703
-6.07523e-08
8.92246e-12
0.00215431
-9.66442e-08
4.85042e-11
0.00220374
-1.38054e-07
3.44044e-11
0.00228969
-1.84485e-07
-4.05546e-11
0.00253609
-2.59213e-07
-2.01819e-10
0.00276161
-2.22751e-07
-3.03588e-10
0.00301795
-1.33738e-07
-3.30688e-10
0.00322664
1.85646e-07
-2.2848e-10
0.00340163
5.78841e-07
-1.75561e-10
0.00350151
-2.92821e-07
-1.5335e-10
0.00327993
1.2969e-06
-1.37393e-10
0.00279774
4.04722e-05
-1.28353e-10
0.00144148
0.000283858
-6.60025e-10
-0.00618544
0.00249969
-4.84528e-09
-0.00555515
0.00650663
2.26425e-09
-0.00226384
0.00457462
1.93913e-09
-0.000846017
0.00344417
8.29742e-10
-0.00185853
0.00388762
9.61914e-10
-0.00226024
0.00430095
-4.61975e-10
0.00463365
6.36136e-10
0.00202656
-3.8574e-09
5.09688e-12
0.00204102
-1.07878e-08
1.87462e-12
0.00205774
-2.12263e-08
2.01848e-12
0.00207814
-3.69375e-08
2.9187e-12
0.00209799
-6.20324e-08
6.17735e-12
0.0021172
-1.12472e-07
-9.86156e-12
0.00215455
-1.7628e-07
-1.60372e-11
0.00220423
-2.64644e-07
-3.13669e-11
0.0022902
-3.80696e-07
-9.01467e-11
0.0025367
-5.44106e-07
-2.16682e-10
0.00276228
-5.47256e-07
-3.90917e-10
0.00301824
-5.8025e-08
-3.46245e-10
0.00322771
4.93071e-07
-3.26696e-10
0.00340085
8.88684e-07
1.12415e-10
0.00353327
-1.07831e-06
-1.52508e-11
0.00336245
-4.07289e-07
-1.56453e-10
0.00292888
3.87032e-05
-2.40872e-10
0.00193052
0.00026835
-6.7155e-10
-0.00387469
0.00215747
-5.55808e-09
-0.00584042
0.00783306
1.44861e-09
-0.00225281
0.00607099
2.35397e-09
-0.000553242
0.00445716
1.01371e-09
-0.0016217
0.00490027
1.05494e-09
-0.00228043
0.00545998
-2.95516e-10
0.00602623
5.14084e-10
0.00202654
-3.69085e-09
-5.70682e-13
0.00204093
-7.33838e-09
1.22486e-11
0.0020576
-1.45072e-08
1.36249e-11
0.00207794
-2.51472e-08
1.67492e-11
0.00209772
-4.07739e-08
2.14977e-11
0.00211683
-6.3146e-08
4.78483e-11
0.00215394
-9.46e-08
1.12002e-10
0.00220339
-1.12571e-07
1.8532e-10
0.00228882
-1.02119e-07
2.94699e-10
0.00253446
-3.60858e-09
5.74914e-10
0.00275893
-3.28894e-08
6.07198e-10
0.00301328
4.31458e-07
3.55551e-10
0.00322265
8.29946e-07
1.90491e-10
0.0033967
7.44929e-07
-2.98095e-10
0.00354448
-1.42111e-06
-7.32869e-11
0.0034271
-2.13839e-06
-6.62046e-11
0.00309902
3.43155e-05
-2.05772e-10
0.00243573
0.00023078
-8.17461e-10
-0.00209904
0.00159508
-3.66501e-09
-0.00594044
0.00820491
-1.55386e-09
-0.00225313
0.00785738
2.59214e-09
-0.000210825
0.00561794
1.29337e-09
-0.00128964
0.00591819
1.0803e-09
-0.00225744
0.00664272
-4.70379e-10
0.00760087
6.53375e-10
0.00202655
-1.52497e-09
-3.43321e-12
0.00204095
-2.63548e-09
3.83397e-12
0.00205762
-5.10521e-09
4.48342e-12
0.00207795
-8.51102e-09
6.23615e-12
0.00209773
-1.25736e-08
6.94589e-12
0.00211677
-1.07981e-08
2.75084e-11
0.0021539
-1.60796e-08
5.12342e-11
0.00220346
-9.2476e-09
7.95535e-11
0.00228899
3.14056e-08
1.59582e-10
0.00253469
1.98271e-07
3.57347e-10
0.00275917
8.34836e-08
4.73622e-10
0.00301255
1.80676e-07
3.26762e-10
0.00322358
1.40147e-07
1.3125e-10
0.00339827
6.44774e-07
-8.84383e-11
0.0035348
-1.20262e-06
4.69987e-12
0.00349526
-2.27019e-06
-2.03504e-12
0.00330498
3.05096e-05
-1.62977e-10
0.00292388
0.000186451
-5.95856e-10
-6.9379e-05
0.00108246
-2.40074e-09
-0.00582425
0.00738919
-4.30276e-09
-0.00224173
0.010063
2.79689e-09
4.69475e-05
0.00698913
1.47379e-09
-0.000808003
0.00696585
6.90097e-10
-0.00209007
0.00782247
-2.03599e-10
0.00937653
1.08281e-09
0.00202656
-1.47723e-09
2.12293e-11
0.00204105
-4.41088e-09
2.91385e-11
0.00205778
-8.83497e-09
3.08268e-11
0.00207818
-1.5104e-08
3.60738e-11
0.00209801
-2.49045e-08
4.4303e-11
0.00211718
-5.07282e-08
4.44232e-11
0.00215456
-7.63914e-08
1.01962e-10
0.00220437
-1.45733e-07
4.31621e-11
0.00229056
-2.55163e-07
-8.29437e-11
0.00253732
-4.88559e-07
-3.58939e-10
0.00276273
-5.61281e-07
-3.66988e-10
0.00301716
-8.15718e-07
-4.65097e-10
0.00322863
-4.49944e-07
-3.58228e-10
0.00340181
7.65125e-07
-2.8996e-10
0.00353153
-8.16869e-08
-3.22057e-10
0.00357479
8.56753e-07
-2.51967e-10
0.00351339
2.41582e-05
-2.16524e-10
0.00324543
0.000138156
-4.03413e-10
0.00167199
0.000734387
-1.36646e-09
-0.00419419
0.0053527
-5.45217e-09
-0.00213795
0.0126171
2.81798e-09
0.000430508
0.00861703
1.5869e-09
-0.000160301
0.00807853
4.91123e-10
-0.0015839
0.00882962
-3.43938e-10
0.0115817
1.51226e-09
0.00202655
6.04886e-10
8.24578e-12
0.00204095
3.14013e-10
1.82698e-11
0.00205762
9.46453e-10
1.9418e-11
0.00207796
2.51897e-09
2.25658e-11
0.00209773
4.84413e-09
2.52218e-11
0.00211678
7.26322e-09
4.2546e-11
0.00215391
4.53975e-09
9.3058e-11
0.00220354
-2.98504e-08
7.47767e-11
0.00228885
-1.26249e-07
5.77373e-11
0.00253469
-3.03578e-07
4.81656e-11
0.00275895
-5.14457e-07
6.19236e-11
0.00301334
-7.45122e-07
-8.91678e-11
0.00322289
-1.3489e-06
-2.81808e-10
0.0033923
1.06605e-06
-3.49037e-10
0.00352866
-1.57295e-07
-2.77916e-10
0.00364794
6.39923e-06
-1.51605e-10
0.00363424
7.32713e-06
-2.31058e-10
0.00341985
7.69858e-05
-3.81432e-10
0.0025994
0.000492322
-9.31104e-10
-0.00127493
0.00329826
-4.12605e-09
-0.00194019
0.0145521
1.25367e-09
0.000695303
0.010627
1.78978e-09
0.000421905
0.0091797
3.73036e-10
-0.000504808
0.00976119
-3.30912e-10
0.014334
1.59242e-09
0.00202655
1.12434e-11
1.69387e-09
0.00204096
2.69262e-11
3.99529e-09
0.00205763
2.90557e-11
7.58061e-09
0.00207799
3.47395e-11
1.35674e-08
0.00209778
4.29073e-11
2.32535e-08
0.00211685
6.79159e-11
4.52307e-08
0.00215402
1.58271e-10
6.15881e-08
0.00220377
1.845e-10
6.36374e-08
0.0022892
2.13291e-10
-6.83492e-10
0.00253504
3.35678e-10
-2.56103e-08
0.00275901
2.78442e-10
-3.29809e-07
0.00301408
1.32384e-11
-1.66095e-07
0.00322405
-2.44801e-10
-1.97422e-06
0.00338318
-3.51249e-10
1.56948e-06
0.0035427
-1.99758e-10
-2.6029e-06
0.00364316
-2.87749e-10
6.45507e-06
0.00374541
-2.44045e-10
-1.00594e-05
0.00369509
-2.15882e-10
4.83026e-05
0.00325373
-5.27393e-10
0.00033618
0.0011345
-2.34943e-09
0.00189715
-0.00135462
-2.37031e-09
0.0117056
0.000933579
1.85519e-09
0.0127774
0.00116157
4.97581e-10
0.0105597
0.000688806
1.1548e-10
0.0110935
1.32016e-09
0.0177129
0.00202655
2.34036e-09
1.59749e-11
0.00204098
4.10319e-09
2.37019e-11
0.00205769
5.75875e-09
2.50516e-11
0.00207806
6.7426e-09
2.86156e-11
0.00209785
5.91119e-09
3.55669e-11
0.0021171
4.32571e-10
3.54884e-11
0.00215438
1.20102e-08
1.04479e-10
0.00220376
2.39766e-08
8.69018e-11
0.00228984
3.32057e-08
-1.31294e-11
0.00253604
1.12733e-08
-1.62905e-10
0.00276124
4.19745e-08
-4.2453e-10
0.00301751
9.73401e-08
-5.78831e-10
0.00322533
1.53445e-07
-5.31865e-10
0.00340614
1.65038e-07
-5.62243e-10
0.00345274
5.15407e-07
-5.26636e-10
0.0031349
1.66056e-06
-4.74339e-10
0.0025322
1.62474e-05
-3.96105e-10
-8.51759e-05
0.000128026
-3.88104e-10
-0.00901914
0.00114551
-1.10844e-09
-0.00516304
0.00145804
7.68365e-10
-0.00236161
0.00103086
3.13885e-10
-0.0013025
0.000817532
7.77426e-11
-0.00215789
0.000950551
2.37412e-10
-0.00217514
0.00105901
2.74491e-10
0.0010778
1.61818e-10
0.00202655
-1.20564e-09
4.42184e-12
0.00204098
-2.79086e-09
6.46777e-12
0.0020577
-4.85855e-09
6.90896e-12
0.00207809
-8.9422e-09
8.59823e-12
0.00209793
-1.65192e-08
1.0383e-11
0.00211716
-3.29668e-08
1.39136e-11
0.00215445
-4.85423e-08
1.5716e-11
0.00220389
-4.79646e-08
1.23136e-11
0.00229001
-1.76388e-08
8.05759e-12
0.00253647
-1.43405e-08
1.06499e-11
0.00276185
5.82214e-08
-9.02035e-12
0.00301826
1.66482e-07
-5.6472e-11
0.00322639
2.34598e-07
-1.58825e-10
0.00340605
5.19249e-07
-2.42408e-11
0.00346072
1.00681e-06
-3.23771e-11
0.0031589
2.90726e-06
-5.942e-11
0.00258286
2.99599e-05
-1.64231e-10
0.000192834
0.000220867
-4.78758e-10
-0.00872276
0.00197502
-9.93655e-10
-0.00518529
0.00305735
6.94895e-10
-0.00233038
0.00211962
2.89206e-10
-0.00122375
0.00164959
4.96443e-11
-0.00210823
0.00191772
1.96696e-10
-0.00219197
0.0021177
2.88604e-10
0.00218066
1.63139e-10
0.00202655
1.7061e-09
6.39094e-12
0.00204094
4.90668e-09
1.96607e-11
0.0020576
7.9061e-09
2.12453e-11
0.00207792
1.20034e-08
2.57111e-11
0.00209768
1.77225e-08
3.06465e-11
0.00211672
2.75139e-08
5.50107e-11
0.00215381
5.13846e-08
1.17159e-10
0.00220335
7.82333e-08
1.4031e-10
0.00228865
1.17372e-07
1.86511e-10
0.00253441
1.79604e-07
3.18939e-10
0.00275867
2.69455e-07
4.99913e-10
0.00301434
1.42881e-07
2.59353e-10
0.00322191
1.89165e-07
1.39633e-10
0.00339959
3.44707e-07
-1.7872e-10
0.00347402
4.5317e-07
-1.41334e-10
0.00320669
2.57072e-06
-4.33498e-11
0.00267536
3.81976e-05
-6.14072e-11
0.000816819
0.000276007
-6.85453e-10
-0.00797804
0.00251992
-1.15009e-09
-0.00530475
0.00472092
4.86465e-10
-0.00229051
0.00328099
3.41941e-10
-0.00106849
0.00252028
4.2035e-11
-0.00199844
0.00288954
1.0528e-10
-0.00222261
0.00320162
2.61696e-10
0.00335884
1.47471e-10
0.00202655
-7.77932e-10
-7.0714e-12
0.00204097
-1.79922e-09
-8.63735e-12
0.00205768
-2.4851e-09
-8.80524e-12
0.00207807
-3.68624e-09
-9.1009e-12
0.00209791
-5.124e-09
-9.87553e-12
0.00211713
-7.29523e-09
1.02441e-13
0.00215442
-1.32869e-08
-1.85929e-11
0.00220382
-6.0725e-09
1.95109e-11
0.00228979
1.32392e-08
1.29327e-10
0.00253635
4.74703e-08
3.66116e-10
0.00276195
7.84096e-08
4.18083e-10
0.00301835
8.79649e-08
3.53018e-10
0.00322708
2.9294e-07
9.33371e-11
0.00340187
7.33895e-07
2.9986e-10
0.00350149
-2.28761e-07
2.67669e-10
0.0032794
1.24548e-06
2.0113e-10
0.0027969
4.05198e-05
5.1353e-12
0.00143999
0.000284017
-3.08393e-10
-0.00618902
0.00250104
-7.36103e-10
-0.00555389
0.00650611
2.73081e-10
-0.00226329
0.00457445
3.58406e-10
-0.000845892
0.00344434
6.38389e-11
-0.00185745
0.00388775
9.32243e-11
-0.00225896
0.00430101
1.65236e-10
0.00463311
1.26777e-10
0.00202655
2.7381e-09
7.235e-12
0.00204094
6.84247e-09
2.14847e-11
0.00205759
1.16549e-08
2.3068e-11
0.00207792
1.92373e-08
2.69473e-11
0.00209767
3.19097e-08
3.20704e-11
0.0021167
5.67515e-08
5.49597e-11
0.0021538
9.35455e-08
1.30348e-10
0.00220333
1.2597e-07
1.5386e-10
0.00228851
1.48072e-07
1.74247e-10
0.00253423
2.36129e-07
2.56474e-10
0.00275874
1.20208e-07
3.00999e-10
0.00301401
9.511e-08
1.06411e-10
0.0032226
3.57745e-07
1.05465e-10
0.00339602
3.15977e-07
-3.95424e-10
0.00353046
-1.57836e-06
-2.2729e-10
0.00336098
-8.53878e-07
-6.33895e-11
0.00292729
3.82556e-05
-3.42387e-11
0.00192847
0.000268071
-1.41305e-10
-0.00388085
0.002159
-2.96356e-10
-0.00583906
0.00783244
2.89529e-11
-0.00225224
0.0060705
3.70045e-10
-0.000553225
0.00445724
9.20092e-11
-0.00162073
0.00489993
7.33687e-11
-0.00227928
0.00546031
1.26684e-10
0.00602557
1.01734e-10
0.00202655
3.5718e-10
7.50785e-12
0.00204098
1.56294e-09
-2.05133e-12
0.00205768
4.32112e-09
-2.6821e-12
0.00207806
9.50277e-09
-3.92111e-12
0.00209788
1.87662e-08
-4.68732e-12
0.00211708
3.6038e-08
-2.97036e-11
0.00215435
4.87846e-08
-5.87191e-11
0.00220371
6.22256e-08
-1.21023e-10
0.0022897
5.93663e-08
-2.44671e-10
0.00253615
1.08693e-07
-5.41033e-10
0.00276205
-1.10964e-07
-6.51406e-10
0.00301734
4.71147e-08
-5.41745e-10
0.00322776
2.8279e-07
-5.36518e-10
0.00340154
3.31837e-07
1.81766e-10
0.00354795
-1.79525e-06
-5.46751e-11
0.00342886
-2.4282e-06
-8.64203e-11
0.00310027
3.42012e-05
-7.55606e-12
0.00243581
0.000230867
1.6581e-10
-0.00210188
0.00159625
-1.96361e-10
-0.00593966
0.00820716
1.43885e-10
-0.00225253
0.00785623
4.10482e-10
-0.000210786
0.00561769
1.26004e-10
-0.00128863
0.00591752
5.11253e-11
-0.00225635
0.00664355
7.88682e-11
0.00759989
7.40844e-11
0.00202655
2.37913e-09
1.33774e-11
0.00204098
4.85966e-09
2.2315e-11
0.00205768
8.69596e-09
2.36726e-11
0.00207805
1.464e-08
2.68806e-11
0.00209784
2.34178e-08
3.39562e-11
0.00211706
3.61068e-08
3.61719e-11
0.00215433
5.85386e-08
1.02405e-10
0.00220369
6.17055e-08
1.00045e-10
0.00228993
3.08643e-08
3.19026e-11
0.00253628
-2.68816e-08
-4.88696e-11
0.00276197
-2.62241e-07
-2.09824e-10
0.0030161
-1.17714e-07
-2.34521e-10
0.00322761
-4.95945e-08
-3.62732e-10
0.00340217
4.86393e-07
-2.68443e-10
0.00353756
-1.3369e-06
-2.07109e-10
0.00349665
-2.24961e-06
-1.31891e-10
0.0033062
3.0627e-05
-1.4008e-11
0.00292411
0.000186672
8.59333e-11
-7.07291e-05
0.00108327
5.37851e-11
-0.0058236
0.00739207
7.72096e-11
-0.00224125
0.0100615
3.81102e-10
4.69539e-05
0.00698878
1.2145e-10
-0.000807584
0.00696514
4.24861e-11
-0.00208929
0.00782335
4.61342e-11
0.00937518
4.61234e-11
0.00202654
1.74652e-09
-9.9402e-12
0.00204095
3.68005e-09
-1.48006e-11
0.00205765
7.65825e-09
-1.56692e-11
0.00207802
1.34658e-08
-1.82181e-11
0.00209782
2.16766e-08
-2.25276e-11
0.00211706
3.34224e-08
-2.28778e-11
0.00215428
5.52072e-08
-6.22267e-11
0.00220345
6.63923e-08
-3.99439e-11
0.00228984
6.76804e-08
2.4552e-11
0.00253628
1.21968e-08
1.65138e-10
0.0027617
-7.58705e-08
1.91386e-10
0.00301599
-4.7375e-07
3.01599e-10
0.00322707
-3.42085e-07
2.72297e-10
0.00340022
7.73524e-07
2.47531e-10
0.00353016
-7.23823e-08
2.53482e-10
0.00357312
8.35586e-07
2.0562e-10
0.00351225
2.41787e-05
1.69931e-10
0.0032445
0.000138289
1.66567e-10
0.00167011
0.000734891
1.46928e-10
-0.00419719
0.00535584
8.22113e-11
-0.00213777
0.0126155
2.77665e-10
0.000430442
0.00861637
1.19744e-10
-0.000160503
0.00807792
4.35133e-11
-0.00158355
0.00883048
1.90824e-11
0.0115804
-1.72802e-13
0.00202655
8.07833e-10
1.26279e-12
0.00204096
1.78356e-09
5.2038e-12
0.00205766
2.77659e-09
5.86116e-12
0.00207804
4.14521e-09
7.62968e-12
0.00209786
6.20329e-09
1.25813e-11
0.00211712
8.97156e-09
1.85321e-11
0.00215437
1.95002e-08
3.86676e-11
0.0022037
2.69648e-08
1.02171e-10
0.00228993
3.37965e-08
1.77312e-10
0.00253657
4.64339e-08
3.4195e-10
0.00276207
-3.7342e-08
4.83112e-10
0.00301723
-1.23744e-07
5.01097e-10
0.00322714
-7.30059e-07
4.59572e-10
0.00339622
1.67105e-06
3.81798e-10
0.00353124
3.54746e-07
3.45982e-10
0.00364936
6.78497e-06
2.12779e-10
0.00363497
7.72166e-06
1.57689e-10
0.00342007
7.73314e-05
1.31348e-10
0.0025983
0.00049281
1.27358e-10
-0.00127676
0.00330061
4.66177e-11
-0.00194005
0.0145522
2.09202e-10
0.000695314
0.0106261
1.42346e-10
0.000421663
0.0091793
5.57869e-11
-0.00050501
0.00976184
1.5777e-11
0.0143328
-7.20196e-12
0.00202655
-1.17817e-11
-5.92339e-10
0.00204096
-1.68409e-11
-9.49862e-10
0.00205765
-1.77586e-11
-1.27696e-09
0.00207802
-2.04006e-11
-1.77498e-09
0.00209783
-2.50309e-11
-2.44865e-09
0.00211706
-2.42342e-11
-4.03246e-09
0.00215428
-7.41808e-11
-8.68959e-09
0.00220358
-4.28614e-11
-5.88449e-09
0.00228969
4.69396e-11
-2.124e-08
0.00253635
3.10148e-10
5.51971e-08
0.00276171
4.94261e-10
-1.33501e-07
0.00301771
6.02573e-10
3.56907e-07
0.00322811
5.54945e-10
-1.20057e-06
0.00338686
4.94949e-10
2.42324e-06
0.00354535
4.54341e-10
-1.72463e-06
0.00364447
3.22749e-10
7.12187e-06
0.00374585
2.91148e-10
-9.54132e-06
0.0036948
2.48383e-10
4.86586e-05
0.00325312
1.89209e-10
0.000336601
0.00113257
1.37549e-10
0.00189847
-0.001355
1.79954e-10
0.0117107
0.00093373
1.66932e-10
0.0127764
0.00116133
6.93568e-11
0.010559
0.000688552
1.89505e-11
0.0110937
-7.44548e-12
0.0177118
0.00202655
-9.63959e-10
5.59689e-13
0.00204095
-2.03537e-09
2.30752e-12
0.00205765
-3.36052e-09
2.59415e-12
0.00207802
-5.1759e-09
3.26644e-12
0.00209782
-7.84658e-09
4.80931e-12
0.00211705
-1.23608e-08
6.443e-12
0.00215428
-2.3218e-08
1.36058e-11
0.00220354
-3.38267e-08
2.78521e-11
0.00228968
-4.22375e-08
7.88351e-11
0.00253619
-3.26786e-08
1.48746e-10
0.00276163
2.88198e-08
1.58034e-10
0.00301798
2.00184e-08
1.25933e-10
0.00322589
1.43201e-08
4.33158e-11
0.00340667
1.25541e-07
1.49303e-10
0.00345297
5.61364e-07
1.46161e-10
0.00313476
1.66214e-06
1.28943e-10
0.00253174
1.62452e-05
6.418e-11
-8.57018e-05
0.000127928
-1.99819e-10
-0.00901928
0.00114561
-7.8871e-10
-0.00516302
0.00145783
1.02514e-09
-0.00236173
0.0010308
4.51129e-10
-0.00130271
0.000817504
8.30231e-11
-0.00215806
0.000950532
1.63949e-10
-0.00217518
0.00105901
9.47481e-11
0.00107779
6.70144e-11
0.00202655
-1.25346e-09
2.75216e-12
0.00204096
-2.34526e-09
7.03559e-12
0.00205766
-5.00042e-09
7.74832e-12
0.00207803
-9.05931e-09
9.44017e-12
0.00209783
-1.48215e-08
1.33398e-11
0.00211708
-2.34728e-08
1.77751e-11
0.00215432
-3.37927e-08
4.51842e-11
0.00220357
-3.72851e-08
7.31244e-11
0.0022897
-1.76776e-08
9.70808e-11
0.00253608
4.6893e-08
1.62787e-10
0.00276148
1.66252e-07
1.04316e-10
0.00301788
1.46871e-07
2.87748e-11
0.00322579
1.59949e-07
-2.0249e-11
0.00340545
3.21608e-07
2.21809e-11
0.00346037
8.76011e-07
2.6881e-11
0.00315874
2.846e-06
2.92881e-11
0.00258279
2.97939e-05
1.57169e-11
0.000192201
0.000220644
-1.0786e-10
-0.00872298
0.001975
-5.81238e-10
-0.00518519
0.0030571
9.0103e-10
-0.00233049
0.00211954
4.35207e-10
-0.00122397
0.00164955
7.46927e-11
-0.00210842
0.00191771
1.62506e-10
-0.00219202
0.00211766
1.51264e-10
0.00218064
5.22127e-11
0.00202654
-8.70146e-10
1.45335e-12
0.00204095
-1.94317e-09
2.46399e-12
0.00205765
-3.87972e-09
2.60975e-12
0.00207801
-7.22254e-09
2.91229e-12
0.0020978
-1.22274e-08
3.82268e-12
0.00211703
-1.95108e-08
3.41401e-12
0.00215424
-2.78778e-08
1.45491e-11
0.00220343
-1.87577e-08
1.75978e-11
0.00228941
2.37303e-08
1.12911e-11
0.00253573
9.1618e-08
8.10111e-12
0.00276122
1.90196e-07
-4.76955e-11
0.00301772
1.45683e-07
-7.29799e-11
0.0032259
1.74744e-07
-1.19338e-10
0.00340331
4.71181e-07
-2.88534e-11
0.00347624
4.78578e-07
-1.52681e-11
0.00320706
2.61389e-06
3.36059e-12
0.00267579
3.8231e-05
3.16318e-11
0.00081712
0.000276078
8.87268e-12
-0.00797809
0.00252018
-4.33679e-10
-0.00530472
0.00472066
8.54032e-10
-0.00229064
0.00328075
4.65308e-10
-0.00106871
0.00252022
1.4066e-10
-0.00199862
0.00288949
1.36324e-10
-0.00222266
0.00320156
1.41222e-10
0.0033588
6.99158e-11
0.00202655
1.04471e-09
1.09777e-11
0.00204098
8.98769e-10
1.51123e-11
0.00205767
2.39488e-10
1.58432e-11
0.00207803
-1.25853e-09
1.80502e-11
0.00209781
-4.30633e-09
2.13595e-11
0.002117
-1.24799e-08
2.10817e-11
0.00215425
-1.73045e-08
4.99928e-11
0.00220363
-3.0781e-08
1.35283e-11
0.00228949
-6.25537e-08
-3.91134e-11
0.00253591
-1.55914e-07
-1.58425e-10
0.00276154
-1.69346e-07
-1.81307e-10
0.00301803
-1.19163e-07
-2.17731e-10
0.00322647
1.8083e-07
-1.59094e-10
0.00340142
4.22734e-07
-1.09258e-10
0.00350132
-4.41412e-07
-1.04051e-10
0.00327981
1.21806e-06
-9.53175e-11
0.00279748
4.0405e-05
-4.97072e-11
0.00144022
0.000283963
-5.3533e-12
-0.00618923
0.00250116
-5.45096e-10
-0.00555374
0.00650599
8.89857e-10
-0.00226336
0.00457425
5.32638e-10
-0.00084608
0.00344421
1.38576e-10
-0.0018576
0.0038877
1.34368e-10
-0.00225899
0.00430094
1.04502e-10
0.00463307
8.04226e-11
0.00202655
-1.01439e-09
1.10936e-12
0.00204097
-4.17505e-09
4.25799e-13
0.00205768
-6.96e-09
4.70391e-13
0.00207806
-1.1319e-08
1.03263e-12
0.00209788
-1.90921e-08
1.10778e-12
0.00211707
-3.79371e-08
1.80304e-12
0.00215433
-6.1092e-08
-8.74028e-13
0.0022037
-9.80394e-08
-7.8499e-12
0.00228962
-1.71399e-07
-6.40874e-12
0.00253616
-3.03438e-07
-6.1998e-12
0.00276197
-4.04896e-07
5.44739e-11
0.00301807
-1.15187e-07
2.47276e-11
0.00322755
2.78493e-07
-7.67889e-11
0.00340059
6.74641e-07
1.35353e-10
0.00353292
-1.30168e-06
1.43738e-10
0.00336165
-5.80293e-07
1.08581e-10
0.00292792
3.8591e-05
3.15492e-12
0.00192896
0.000268394
-1.23999e-10
-0.0038806
0.00215922
-7.10018e-10
-0.00583897
0.00783261
6.95249e-10
-0.0022523
0.00607031
6.02154e-10
-0.000553402
0.00445711
1.59157e-10
-0.00162085
0.00489988
1.50817e-10
-0.00227931
0.00546024
1.35899e-10
0.00602552
9.3095e-11
0.00202654
1.88024e-10
-2.83434e-12
0.00204091
1.47598e-09
8.08523e-12
0.00205756
2.06984e-09
9.19806e-12
0.00207788
3.76411e-09
1.21853e-11
0.00209765
7.93881e-09
1.46852e-11
0.00211671
1.98857e-08
4.78677e-11
0.00215377
2.87199e-08
8.60666e-11
0.00220313
4.05703e-08
1.47569e-10
0.00228858
5.59012e-08
2.83159e-10
0.00253421
1.93225e-07
6.28222e-10
0.00275882
-1.62196e-08
7.30376e-10
0.00301329
2.76169e-07
5.69541e-10
0.0032225
4.97049e-07
4.3321e-10
0.00339652
3.48045e-07
-1.07477e-10
0.0035445
-1.79048e-06
1.12924e-10
0.00342709
-2.38987e-06
1.12488e-10
0.0030987
3.41357e-05
-2.24808e-11
0.00243475
0.000230773
-2.92981e-10
-0.00210299
0.00159629
-4.014e-10
-0.00593966
0.00820717
4.00733e-11
-0.00225257
0.00785599
6.11866e-10
-0.000210884
0.00561754
2.15491e-10
-0.00128871
0.00591747
1.35673e-10
-0.00225637
0.0066435
1.24458e-10
0.00759984
8.51669e-11
0.00202655
-2.30088e-09
1.14529e-12
0.00204097
-4.13332e-09
4.01991e-13
0.00205768
-5.38243e-09
4.14336e-13
0.00207805
-6.06814e-09
8.23702e-13
0.00209787
-4.74247e-09
5.87424e-13
0.00211706
-1.91975e-10
5.99347e-13
0.0021543
-7.88934e-09
-4.49326e-12
0.00220361
-1.39008e-08
-1.00738e-11
0.00228985
-1.29033e-08
-1.2345e-11
0.00253643
6.09872e-08
-1.70531e-11
0.00276222
-5.2962e-08
4.31569e-11
0.00301652
6.18867e-08
-5.21108e-11
0.0032282
1.37681e-07
1.12446e-11
0.00340255
7.2603e-07
1.37121e-11
0.0035377
-1.12749e-06
-4.0977e-12
0.00349627
-2.16545e-06
-2.00133e-11
0.00330562
3.06934e-05
-5.60809e-11
0.00292372
0.000186754
-1.05269e-10
-7.09436e-05
0.00108339
-2.93299e-10
-0.00582366
0.00739218
-3.71045e-10
-0.00224129
0.0100613
7.32283e-10
4.68804e-05
0.00698865
2.58171e-10
-0.000807639
0.00696508
1.50889e-10
-0.00208931
0.00782331
1.14242e-10
0.00937515
1.58366e-10
0.00202655
-8.57165e-11
1.50546e-11
0.00204098
-1.18231e-10
2.39449e-11
0.00205769
-1.16158e-09
2.54708e-11
0.00207806
-2.12333e-09
2.96246e-11
0.00209785
-2.86423e-09
3.75328e-11
0.0021171
-4.99078e-09
4.0326e-11
0.00215438
-3.2856e-09
1.09704e-10
0.00220372
-1.32244e-08
1.0156e-10
0.00229007
-2.7697e-08
2.93162e-11
0.00253647
-7.34527e-08
-9.02582e-11
0.00276182
-5.10054e-08
-2.43148e-10
0.00301595
-3.64774e-07
-3.84899e-10
0.00322708
-1.48556e-07
-3.71613e-10
0.00340026
1.01728e-06
-3.20902e-10
0.00353025
1.5664e-07
-3.14603e-10
0.00357353
9.94017e-07
-2.17609e-10
0.0035124
2.43028e-05
-1.40374e-10
0.00324454
0.000138337
-1.30024e-10
0.00167011
0.000734929
-2.00127e-10
-0.00419717
0.00535593
-6.20971e-10
-0.00213779
0.0126154
7.11611e-10
0.000430391
0.00861629
3.16331e-10
-0.000160537
0.00807788
1.82527e-10
-0.00158357
0.00883046
1.33707e-10
0.0115804
1.72441e-10
0.00202654
8.46507e-11
2.05178e-12
0.00204095
1.16196e-10
1.34323e-12
0.00205764
1.15971e-09
1.24032e-12
0.002078
2.14075e-09
1.22749e-12
0.00209779
2.88543e-09
1.43084e-12
0.00211701
4.0537e-09
-2.09456e-13
0.0021542
5.98855e-09
6.90281e-12
0.00220338
1.0452e-08
8.06503e-12
0.00228946
1.96011e-08
-9.76096e-13
0.0025358
5.07088e-08
-1.33407e-12
0.00276122
-2.68962e-08
-1.26867e-10
0.00301634
-9.05986e-08
-2.08464e-10
0.00322629
-6.81194e-07
-2.62015e-10
0.00339546
1.75361e-06
-2.4203e-10
0.00353067
3.84046e-07
-2.10536e-10
0.00364891
6.84709e-06
-1.20547e-10
0.0036348
7.75687e-06
-8.44983e-11
0.0034199
7.73608e-05
-6.30642e-11
0.00259814
0.000492846
-1.03154e-10
-0.00127692
0.00330069
-4.29538e-10
-0.0019401
0.0145521
4.47182e-10
0.00069526
0.010626
3.63839e-10
0.000421637
0.00917927
2.17825e-10
-0.000505027
0.00976183
1.44804e-10
0.0143328
1.69731e-10
0.00202655
1.47373e-11
2.30199e-09
0.00204098
2.35322e-11
4.12869e-09
0.00205768
2.50413e-11
5.37697e-09
0.00207806
2.91152e-11
6.08262e-09
0.00209785
3.69253e-11
4.8433e-09
0.00211709
4.01194e-11
-4.78649e-10
0.00215438
1.06724e-10
7.80972e-09
0.00220379
1.005e-10
1.49348e-08
0.00228981
3.12156e-11
-5.34945e-09
0.00253622
-7.58707e-11
-1.82116e-09
0.00276148
-2.41075e-10
-2.21203e-07
0.00301729
-3.25776e-10
2.79021e-07
0.00322768
-3.38061e-10
-1.22319e-06
0.00338655
-2.9445e-10
2.4294e-06
0.00354516
-2.77337e-10
-1.64975e-06
0.0036444
-1.93493e-10
7.20812e-06
0.0037459
-1.60827e-10
-9.47654e-06
0.00369486
-1.23242e-10
4.86675e-05
0.00325312
-1.00714e-10
0.000336609
0.00113247
-1.92622e-10
0.00189851
-0.00135507
-6.18537e-11
0.0117108
0.000933674
3.7178e-10
0.0127764
0.0011613
2.60046e-10
0.010559
0.000688541
1.75705e-10
0.0110937
1.60886e-10
0.0177118
0.00202655
-1.35842e-11
8.53699e-13
0.00204095
-2.8641e-11
2.71503e-12
0.00205764
-4.43476e-11
2.91887e-12
0.00207801
-7.677e-11
3.093e-12
0.0020978
-1.47672e-10
4.28014e-12
0.00211702
-2.18067e-10
7.52583e-12
0.00215422
-2.28696e-11
1.04081e-11
0.00220343
-1.80931e-10
1.39096e-11
0.00228947
1.18557e-11
1.86478e-11
0.00253588
-4.59714e-09
2.42448e-11
0.00276135
1.08219e-08
8.14146e-12
0.00301777
-2.78796e-08
1.29245e-11
0.0032256
-5.7743e-08
-1.11471e-11
0.00340632
-1.50923e-09
2.15075e-11
0.00345271
4.23036e-07
1.89054e-11
0.00313465
1.5407e-06
1.51245e-11
0.00253168
1.61583e-05
5.31042e-11
-8.59656e-05
0.000127893
3.27576e-10
-0.00901937
0.00114572
9.9282e-10
-0.00516307
0.00145771
-7.95595e-10
-0.00236184
0.00103078
-3.40558e-10
-0.00130286
0.000817511
1.85815e-10
-0.00215817
0.000950529
-4.65528e-10
-0.00217522
0.00105902
4.4343e-11
0.0010778
-8.52689e-11
0.00202655
-4.94011e-12
6.6742e-13
0.00204095
-1.085e-11
2.47349e-12
0.00205764
-1.865e-11
2.64604e-12
0.00207801
-3.24299e-11
2.60325e-12
0.0020978
-6.22144e-11
3.19667e-12
0.00211701
-3.91591e-11
6.71508e-12
0.00215423
-8.30116e-11
6.37254e-12
0.00220343
-2.63794e-10
9.88854e-12
0.00228945
1.15676e-09
1.34658e-11
0.00253586
-9.0884e-09
2.48929e-11
0.00276135
2.12951e-08
9.40298e-12
0.00301782
-5.96732e-08
8.21755e-12
0.00322573
-8.91685e-08
-2.8384e-11
0.00340537
6.62716e-08
3.50555e-11
0.00346029
6.19733e-07
3.34966e-11
0.00315865
2.65326e-06
3.04786e-11
0.00258268
2.96789e-05
5.72833e-11
0.000191762
0.000220602
3.23018e-10
-0.00872318
0.00197505
9.55818e-10
-0.00518521
0.003057
-7.23611e-10
-0.0023306
0.00211951
-3.05631e-10
-0.00122412
0.00164958
2.02012e-10
-0.00210854
0.00191771
-3.64738e-10
-0.00219206
0.00211767
-1.53439e-10
0.00218065
1.59326e-10
0.00202655
-2.88777e-12
6.83152e-13
0.00204095
-4.01969e-12
2.57891e-12
0.00205764
-5.82262e-12
2.79977e-12
0.00207801
-1.00976e-11
3.36524e-12
0.0020978
-2.0434e-11
4.39644e-12
0.00211701
8.25985e-11
5.95054e-12
0.00215423
-1.10157e-10
1.35756e-11
0.00220343
-1.76933e-10
1.82432e-11
0.00228942
1.88269e-09
2.01821e-11
0.00253581
-1.02423e-08
2.57756e-11
0.00276135
2.36573e-08
1.14535e-11
0.00301788
-7.23548e-08
-4.41996e-12
0.00322599
-3.84445e-08
-1.59261e-11
0.00340334
2.34352e-07
8.81125e-12
0.00347617
2.92431e-07
1.539e-11
0.00320697
2.4733e-06
3.22151e-11
0.00267565
3.81372e-05
6.11605e-11
0.000816837
0.000276034
1.9932e-10
-0.00797843
0.00252027
8.79607e-10
-0.00530469
0.00472057
-4.07897e-10
-0.00229073
0.00328075
-3.40921e-10
-0.00106886
0.00252026
-6.27934e-11
-0.00199873
0.0028895
-1.11508e-09
-0.0022227
0.00320156
1.77691e-10
0.00335882
6.58631e-10
0.00202655
6.90766e-12
5.60976e-13
0.00204095
1.19569e-11
1.70916e-12
0.00205764
1.91476e-11
1.85687e-12
0.00207801
2.65222e-11
2.23298e-12
0.0020978
3.46013e-11
2.6144e-12
0.00211701
1.38515e-10
3.26284e-12
0.00215423
-7.79381e-11
7.37795e-12
0.00220344
1.40997e-10
1.5835e-11
0.00228938
6.58497e-10
1.4796e-11
0.00253575
-2.52192e-09
2.10211e-11
0.00276138