/*--------------------------------*- C++ -*----------------------------------*\
| =========                 |                                                 |
| \\      /  F ield         | OpenFOAM: The Open Source CFD Toolbox           |
|  \\    /   O peration     | Version:  4.1                                   |
|   \\  /    A nd           | Web:      www.OpenFOAM.org                      |
|    \\/     M anipulation  |                                                 |
\*---------------------------------------------------------------------------*/
FoamFile
{
    version     2.0;
    format      ascii;
    class       volScalarField;
    location    "0.22";
    object      T;
}
// * * * * * * * * * * * * * * * * * * * * * * * * * * * * * * * * * * * * * //

dimensions      [0 0 0 1 0 0 0];

internalField   nonuniform List<scalar> 
52500
(
0.348171
0.329938
0.333602
0.336957
0.343102
0.356579
0.377606
0.411599
0.456616
0.519913
0.551158
0.550837
0.529144
0.507036
0.514676
0.570603
0.744892
1.20739
2.09941
2.12452
1.97306
1.94407
2.04437
2.21206
1.99573
0.348173
0.32994
0.333605
0.33696
0.343107
0.356584
0.377624
0.411608
0.456609
0.519903
0.551132
0.550809
0.529105
0.507023
0.514328
0.569065
0.738769
1.18461
2.07456
2.13277
1.97379
1.9421
2.04188
2.21325
1.99667
0.348175
0.329942
0.333606
0.336961
0.343107
0.356581
0.377634
0.4116
0.456593
0.519891
0.551133
0.550808
0.52908
0.50704
0.513697
0.566173
0.727786
1.14
2.01321
2.14484
1.9741
1.93605
2.03512
2.21464
1.99725
0.348182
0.329945
0.333612
0.33697
0.343116
0.356594
0.377658
0.411556
0.456499
0.519775
0.551062
0.550738
0.528943
0.507019
0.512872
0.562515
0.71386
1.08153
1.89898
2.15748
1.97454
1.92627
2.02204
2.21429
1.99656
0.348185
0.329944
0.333607
0.336963
0.343103
0.356576
0.377658
0.41152
0.456428
0.519721
0.551063
0.550723
0.528794
0.507068
0.512187
0.558975
0.699381
1.01758
1.74895
2.15959
1.98015
1.91588
2.00144
2.21048
1.99553
0.348172
0.329948
0.33362
0.336984
0.34314
0.356639
0.377772
0.411725
0.456727
0.520211
0.551619
0.55123
0.529067
0.507559
0.512392
0.556314
0.685706
0.948039
1.56628
2.13477
1.99258
1.90623
1.969
2.20171
1.99036
0.348179
0.329949
0.333622
0.336987
0.34314
0.356638
0.377783
0.411661
0.456592
0.520096
0.551518
0.551135
0.528931
0.507632
0.512468
0.553814
0.674788
0.882809
1.37918
2.06088
2.01272
1.89889
1.9326
2.18211
1.98705
0.348199
0.329952
0.333616
0.336975
0.343114
0.356593
0.377696
0.411466
0.456253
0.51961
0.550929
0.550545
0.528608
0.50722
0.512172
0.551405
0.665058
0.831621
1.23203
1.90027
2.03773
1.89804
1.88212
2.14475
1.97457
0.348182
0.329952
0.333625
0.336992
0.343145
0.35665
0.377779
0.411694
0.456542
0.520181
0.55151
0.551016
0.529211
0.507535
0.512467
0.55057
0.654779
0.795023
1.10553
1.6763
2.04764
1.90303
1.8334
2.08763
1.94869
0.348183
0.329953
0.333626
0.336993
0.343149
0.356656
0.377798
0.411736
0.456541
0.520238
0.551545
0.55096
0.529376
0.507285
0.511751
0.548115
0.643903
0.777909
0.998682
1.45781
2.00931
1.90936
1.79202
1.99962
1.88896
0.348186
0.329949
0.333616
0.336973
0.343122
0.356598
0.377675
0.411574
0.456494
0.519785
0.551004
0.55069
0.529054
0.506909
0.514535
0.570458
0.744785
1.20749
2.09958
2.12447
1.97305
1.94409
2.04443
2.21206
1.99578
0.348178
0.329942
0.333605
0.33696
0.343102
0.356578
0.377629
0.411558
0.456534
0.519854
0.551091
0.550762
0.529034
0.506933
0.514241
0.568992
0.738734
1.18472
2.07475
2.13273
1.97379
1.94212
2.04195
2.21328
1.9967
0.348177
0.329947
0.333621
0.336987
0.34314
0.356638
0.377773
0.411675
0.456618
0.520097
0.551545
0.551218
0.529411
0.507277
0.513884
0.566246
0.727824
1.14011
2.01344
2.14477
1.9741
1.93606
2.03518
2.21451
1.99741
0.348174
0.329939
0.333601
0.336955
0.343095
0.356573
0.377603
0.411545
0.456569
0.519883
0.551155
0.55081
0.528943
0.507019
0.512881
0.562544
0.713921
1.08168
1.89928
2.15744
1.97453
1.92627
2.02208
2.21403
1.99682
0.348177
0.329947
0.33362
0.336986
0.343139
0.356636
0.377769
0.411663
0.45662
0.520081
0.55156
0.551209
0.529219
0.50742
0.512495
0.559176
0.699518
1.01774
1.74935
2.15956
1.98013
1.91588
2.00149
2.2102
1.99579
0.348175
0.329939
0.333601
0.336955
0.343095
0.356571
0.377603
0.41152
0.456527
0.519821
0.551103
0.550741
0.528672
0.507223
0.512079
0.556119
0.685647
0.948142
1.5666
2.13484
1.99256
1.9062
1.96906
2.2014
1.9906
0.348184
0.329946
0.333613
0.33697
0.343116
0.356594
0.377659
0.411553
0.456486
0.519773
0.551019
0.550659
0.528599
0.507351
0.512207
0.553667
0.674761
0.8829
1.37944
2.06107
2.0127
1.89885
1.9327
2.18184
1.98727
0.348174
0.329941
0.333605
0.336959
0.343105
0.356582
0.377613
0.411585
0.456563
0.5199
0.551068
0.550665
0.528728
0.507394
0.512366
0.551599
0.665237
0.831798
1.23227
1.90055
2.0377
1.89801
1.88219
2.1446
1.97473
0.348174
0.329941
0.333606
0.336961
0.343108
0.356591
0.377613
0.411634
0.456562
0.519985
0.551108
0.550624
0.528931
0.507316
0.51228
0.550509
0.654816
0.795099
1.10573
1.6766
2.04766
1.903
1.83345
2.08758
1.94878
0.348172
0.329939
0.333603
0.336958
0.343102
0.356586
0.377589
0.411621
0.456533
0.52
0.55113
0.55056
0.529091
0.507058
0.511549
0.548071
0.643959
0.777941
0.998819
1.45802
2.00948
1.9093
1.79207
1.99961
1.88901
0.348172
0.329939
0.333603
0.336957
0.343102
0.356578
0.377604
0.411582
0.456595
0.519894
0.55112
0.5508
0.529128
0.506999
0.514633
0.570561
0.744892
1.20759
2.09964
2.12445
1.97304
1.94409
2.04442
2.21205
1.99578
0.348173
0.32994
0.333605
0.33696
0.343106
0.356583
0.377618
0.41159
0.456594
0.519888
0.551102
0.550781
0.529101
0.506997
0.514296
0.569034
0.738773
1.18478
2.0748
2.13271
1.97378
1.94212
2.04195
2.21327
1.9967
0.348173
0.329939
0.333603
0.336958
0.343102
0.356578
0.377606
0.411569
0.456585
0.519872
0.551095
0.55077
0.529048
0.507001
0.513661
0.566156
0.727821
1.1402
2.01355
2.14478
1.97409
1.93606
2.03518
2.2145
1.99741
0.348181
0.329943
0.333609
0.336966
0.34311
0.356588
0.377633
0.411528
0.456489
0.519763
0.551054
0.550736
0.528979
0.507014
0.512857
0.562494
0.713863
1.08166
1.8993
2.15743
1.97452
1.92627
2.02208
2.21403
1.99682
0.348173
0.329937
0.333598
0.336952
0.343091
0.356565
0.377591
0.411523
0.456539
0.519823
0.551123
0.550773
0.528817
0.507105
0.512234
0.559051
0.699498
1.01779
1.74942
2.15958
1.98012
1.91588
2.00149
2.2102
1.99579
0.348166
0.329942
0.333615
0.336979
0.343133
0.356635
0.377741
0.411716
0.456759
0.520241
0.551641
0.551258
0.529142
0.507607
0.512429
0.556336
0.685737
0.948158
1.56662
2.13484
1.99255
1.9062
1.96906
2.2014
1.9906
0.348173
0.329937
0.333598
0.336952
0.343091
0.356565
0.377593
0.411525
0.456519
0.519824
0.551086
0.550712
0.528588
0.507344
0.512209
0.55369
0.674789
0.882916
1.37946
2.06107
2.01269
1.89885
1.9327
2.18183
1.98727
0.348185
0.329947
0.333614
0.336972
0.343118
0.356598
0.377662
0.411557
0.456462
0.519791
0.550991
0.550605
0.528699
0.507345
0.512304
0.551525
0.665162
0.831744
1.23224
1.90054
2.03769
1.898
1.88219
2.1446
1.97473
0.348172
0.329939
0.333603
0.336957
0.343101
0.356581
0.377591
0.411592
0.45653
0.519952
0.551051
0.550563
0.528867
0.507255
0.512224
0.550476
0.654802
0.795088
1.10572
1.67661
2.04765
1.903
1.83345
2.08758
1.94878
0.348185
0.329947
0.333614
0.336972
0.343118
0.356603
0.377647
0.411589
0.45642
0.519879
0.551015
0.550466
0.52904
0.506982
0.511462
0.54799
0.643869
0.777876
0.998776
1.458
2.00947
1.9093
1.79207
1.99961
1.88901
0.348171
0.329937
0.333602
0.336956
0.343099
0.356575
0.377596
0.411561
0.456576
0.519872
0.551096
0.550779
0.52913
0.506986
0.514613
0.570535
0.744872
1.20761
2.09967
2.12443
1.97303
1.94408
2.04442
2.21205
1.99578
0.348171
0.329937
0.333602
0.336956
0.343099
0.356576
0.377596
0.41156
0.456578
0.519872
0.551098
0.55078
0.529109
0.506994
0.514289
0.569023
0.738767
1.18479
2.07482
2.1327
1.97377
1.94211
2.04195
2.21327
1.9967
0.348171
0.329937
0.333602
0.336956
0.343099
0.356576
0.377595
0.41156
0.456582
0.519869
0.551105
0.550783
0.529069
0.507011
0.513667
0.566154
0.727817
1.1402
2.01357
2.14476
1.97408
1.93605
2.03517
2.2145
1.99741
0.348171
0.329937
0.333602
0.336956
0.343099
0.356576
0.377595
0.41156
0.456587
0.519863
0.551114
0.550783
0.528996
0.507055
0.512905
0.562552
0.713928
1.08172
1.89935
2.15742
1.97451
1.92626
2.02208
2.21402
1.99681
0.348171
0.329937
0.333602
0.336956
0.343099
0.356575
0.377596
0.411559
0.456591
0.519857
0.551122
0.550776
0.528871
0.507148
0.51227
0.559072
0.699514
1.01782
1.74948
2.15956
1.98011
1.91587
2.00148
2.2102
1.99579
0.348171
0.329937
0.333602
0.336956
0.343099
0.356575
0.377597
0.411557
0.456587
0.519858
0.551113
0.550754
0.528732
0.507274
0.512125
0.556152
0.685671
0.948176
1.56667
2.13485
1.99254
1.90619
1.96906
2.2014
1.9906
0.348171
0.329937
0.333602
0.336956
0.343099
0.356576
0.377597
0.411557
0.456573
0.519866
0.551089
0.550721
0.528643
0.5074
0.51226
0.553726
0.674815
0.882945
1.3795
2.06109
2.01268
1.89884
1.93269
2.18183
1.98727
0.348171
0.329937
0.333602
0.336956
0.343099
0.356577
0.377594
0.411563
0.456551
0.519886
0.551069
0.550673
0.528745
0.5074
0.512367
0.551592
0.665224
0.831793
1.23228
1.90057
2.03768
1.898
1.88219
2.1446
1.97473
0.348171
0.329937
0.333601
0.336956
0.343099
0.356581
0.377583
0.411585
0.456526
0.519943
0.551072
0.550596
0.528919
0.507295
0.512256
0.550487
0.6548
0.795091
1.10573
1.67663
2.04764
1.90299
1.83344
2.08758
1.94878
0.348171
0.329937
0.333601
0.336956
0.343099
0.356583
0.37758
0.411593
0.456508
0.519973
0.551096
0.550535
0.529084
0.507039
0.511528
0.548048
0.643936
0.777928
0.998815
1.45803
2.00947
1.90929
1.79206
1.99961
1.88901
0.34817
0.329936
0.3336
0.336954
0.343095
0.356568
0.377595
0.411553
0.456556
0.519863
0.551111
0.550798
0.529157
0.507004
0.514624
0.570529
0.744844
1.20754
2.09961
2.12444
1.97304
1.94408
2.04442
2.21205
1.99577
0.34817
0.329936
0.3336
0.336954
0.343095
0.356568
0.377594
0.411551
0.456558
0.519863
0.551112
0.550799
0.529137
0.507011
0.514299
0.569015
0.738738
1.18473
2.07475
2.1327
1.97377
1.94211
2.04193
2.21324
1.99671
0.34817
0.329937
0.3336
0.336954
0.343097
0.356573
0.377589
0.411554
0.45658
0.519866
0.551102
0.550779
0.529066
0.507004
0.51366
0.56615
0.72781
1.14018
2.01352
2.14476
1.97409
1.93606
2.03518
2.21464
1.99729
0.34817
0.329937
0.333601
0.336954
0.343098
0.356574
0.37759
0.411554
0.456585
0.51986
0.55111
0.550779
0.528993
0.507047
0.512898
0.562548
0.713922
1.0817
1.89931
2.15742
1.97452
1.9263
2.02213
2.21435
1.99653
0.348171
0.329936
0.3336
0.336954
0.343095
0.356568
0.377595
0.411549
0.45657
0.519846
0.551135
0.550793
0.528899
0.507164
0.512279
0.559066
0.699492
1.01778
1.74939
2.15955
1.98012
1.9159
2.00152
2.21048
1.99558
0.348171
0.329937
0.333601
0.336955
0.343097
0.356571
0.377595
0.41155
0.456573
0.519852
0.55113
0.550774
0.52876
0.507296
0.512144
0.556159
0.68566
0.948141
1.56659
2.13483
1.99255
1.9062
1.96906
2.20153
1.99053
0.34817
0.329936
0.3336
0.336954
0.343095
0.356569
0.377595
0.411551
0.456559
0.51986
0.55111
0.550748
0.528677
0.507428
0.512284
0.553736
0.674805
0.882916
1.37943
2.06104
2.01269
1.89885
1.93268
2.1818
1.98725
0.34817
0.329937
0.333601
0.336955
0.343098
0.356576
0.37759
0.411564
0.456557
0.519889
0.551076
0.550679
0.528749
0.507407
0.512375
0.551604
0.66523
0.83179
1.23226
1.90053
2.03769
1.898
1.88219
2.14457
1.97474
0.348171
0.329937
0.3336
0.336955
0.343096
0.356575
0.377586
0.411586
0.456516
0.519944
0.551103
0.550629
0.528951
0.507322
0.512279
0.550493
0.654786
0.79507
1.10569
1.67657
2.04765
1.903
1.83345
2.08756
1.9488
0.348171
0.329937
0.333601
0.336956
0.343097
0.356578
0.377586
0.411598
0.456496
0.519971
0.551115
0.550554
0.5291
0.507055
0.511541
0.548049
0.64392
0.777908
0.998784
1.45799
2.00946
1.9093
1.79207
1.9996
1.88902
0.348171
0.329937
0.333602
0.336956
0.3431
0.356575
0.377596
0.411562
0.456576
0.519873
0.551096
0.550779
0.529129
0.506986
0.514613
0.570536
0.744872
1.2076
2.09967
2.12443
1.97303
1.94408
2.04442
2.21205
1.99578
0.348171
0.329938
0.333602
0.336956
0.3431
0.356576
0.377596
0.411561
0.456578
0.519872
0.551097
0.55078
0.529108
0.506994
0.51429
0.569024
0.738766
1.18479
2.07482
2.1327
1.97377
1.94211
2.04195
2.21327
1.9967
0.348171
0.329937
0.333602
0.336956
0.343099
0.356576
0.377596
0.411561
0.456582
0.519869
0.551105
0.550783
0.529069
0.507011
0.513667
0.566155
0.727817
1.1402
2.01356
2.14476
1.97408
1.93605
2.03517
2.2145
1.99741
0.348171
0.329938
0.333602
0.336956
0.3431
0.356576
0.377596
0.411562
0.456589
0.519863
0.551114
0.550783
0.528995
0.507058
0.51291
0.562559
0.713933
1.08172
1.89935
2.15742
1.97452
1.92626
2.02208
2.21402
1.99682
0.348171
0.329937
0.333602
0.336956
0.3431
0.356575
0.377596
0.411559
0.456592
0.519857
0.551123
0.550777
0.528871
0.50715
0.512272
0.559074
0.699517
1.01782
1.74947
2.15956
1.98011
1.91587
2.00148
2.21019
1.99578
0.348171
0.329938
0.333602
0.336956
0.3431
0.356576
0.377597
0.41156
0.45659
0.519858
0.551114
0.550755
0.528733
0.50728
0.512133
0.556161
0.68568
0.94818
1.56667
2.13485
1.99254
1.90619
1.96906
2.2014
1.99061
0.348171
0.329938
0.333602
0.336956
0.3431
0.356576
0.377598
0.411558
0.456575
0.519868
0.551095
0.550728
0.528647
0.507406
0.512267
0.553733
0.674822
0.882948
1.37949
2.06109
2.01268
1.89884
1.9327
2.18183
1.98728
0.348171
0.329938
0.333602
0.336956
0.3431
0.356578
0.377595
0.411567
0.456556
0.519891
0.551078
0.550681
0.528752
0.507409
0.512376
0.551601
0.66523
0.831797
1.23228
1.90057
2.03769
1.898
1.88219
2.1446
1.97472
0.348171
0.329938
0.333602
0.336957
0.3431
0.356582
0.377587
0.411595
0.456537
0.519955
0.55109
0.550612
0.528928
0.507306
0.512268
0.550497
0.654808
0.795096
1.10573
1.67662
2.04765
1.90299
1.83345
2.08758
1.94876
0.348171
0.329938
0.333602
0.336957
0.3431
0.356584
0.377585
0.411606
0.456518
0.519984
0.551105
0.55054
0.529081
0.507041
0.511531
0.548053
0.643941
0.777929
0.998814
1.45803
2.00947
1.90929
1.79206
1.99961
1.88899
0.348171
0.329937
0.333601
0.336956
0.343099
0.356575
0.377596
0.411561
0.456576
0.519873
0.551096
0.550779
0.52913
0.506986
0.514613
0.570535
0.744872
1.20761
2.09967
2.12443
1.97303
1.94408
2.04442
2.21205
1.99578
0.348171
0.329937
0.333602
0.336956
0.343099
0.356576
0.377595
0.41156
0.456578
0.519872
0.551098
0.55078
0.529109
0.506994
0.514289
0.569023
0.738767
1.18479
2.07482
2.1327
1.97377
1.94211
2.04195
2.21327
1.9967
0.348171
0.329937
0.333602
0.336956
0.343099
0.356576
0.377595
0.41156
0.456582
0.519869
0.551105
0.550783
0.529069
0.507011
0.513667
0.566154
0.727817
1.1402
2.01357
2.14476
1.97408
1.93605
2.03517
2.2145
1.99741
0.348171
0.329937
0.333602
0.336956
0.343099
0.356576
0.377595
0.41156
0.456587
0.519863
0.551114
0.550783
0.528996
0.507055
0.512905
0.562552
0.713928
1.08172
1.89935
2.15742
1.97451
1.92626
2.02208
2.21402
1.99681
0.348171
0.329937
0.333602
0.336956
0.343099
0.356575
0.377596
0.411559
0.456591
0.519857
0.551122
0.550776
0.528871
0.507148
0.51227
0.559072
0.699514
1.01782
1.74948
2.15956
1.98011
1.91587
2.00148
2.2102
1.99579
0.348171
0.329937
0.333602
0.336956
0.343099
0.356575
0.377597
0.411557
0.456587
0.519858
0.551113
0.550754
0.528732
0.507274
0.512125
0.556152
0.685671
0.948177
1.56668
2.13485
1.99254
1.90619
1.96906
2.2014
1.9906
0.348171
0.329937
0.333602
0.336956
0.343099
0.356576
0.377597
0.411557
0.456573
0.519866
0.551089
0.550721
0.528643
0.5074
0.51226
0.553726
0.674815
0.882945
1.3795
2.06109
2.01268
1.89884
1.93269
2.18183
1.98727
0.348171
0.329937
0.333602
0.336956
0.343099
0.356577
0.377594
0.411563
0.456551
0.519886
0.551069
0.550673
0.528745
0.507401
0.512367
0.551592
0.665224
0.831793
1.23228
1.90058
2.03768
1.898
1.88219
2.1446
1.97473
0.348171
0.329937
0.333601
0.336956
0.343099
0.356581
0.377583
0.411585
0.456526
0.519943
0.551072
0.550596
0.528919
0.507295
0.512256
0.550487
0.6548
0.795091
1.10573
1.67663
2.04764
1.90299
1.83344
2.08758
1.94878
0.348171
0.329937
0.333601
0.336956
0.343099
0.356583
0.37758
0.411593
0.456508
0.519973
0.551096
0.550535
0.529085
0.507039
0.511528
0.548048
0.643936
0.777928
0.998815
1.45803
2.00947
1.90929
1.79206
1.99961
1.88901
0.348172
0.329939
0.333603
0.336957
0.343102
0.356578
0.377604
0.411582
0.456595
0.519894
0.55112
0.5508
0.529128
0.506999
0.514633
0.570561
0.744892
1.20759
2.09964
2.12445
1.97304
1.94409
2.04442
2.21205
1.99578
0.348173
0.32994
0.333605
0.33696
0.343106
0.356583
0.377618
0.41159
0.456594
0.519888
0.551102
0.550781
0.529101
0.506997
0.514296
0.569034
0.738773
1.18478
2.0748
2.13271
1.97378
1.94212
2.04195
2.21327
1.9967
0.348173
0.329939
0.333603
0.336958
0.343102
0.356578
0.377606
0.411569
0.456585
0.519872
0.551095
0.55077
0.529048
0.507001
0.513661
0.566156
0.727821
1.1402
2.01355
2.14478
1.97409
1.93606
2.03518
2.2145
1.99741
0.348181
0.329943
0.333609
0.336966
0.34311
0.356588
0.377633
0.411528
0.456489
0.519763
0.551054
0.550736
0.528979
0.507014
0.512857
0.562494
0.713863
1.08166
1.8993
2.15743
1.97452
1.92627
2.02208
2.21403
1.99682
0.348173
0.329937
0.333598
0.336952
0.343091
0.356565
0.377591
0.411523
0.456539
0.519823
0.551123
0.550773
0.528817
0.507105
0.512234
0.559051
0.699498
1.01779
1.74942
2.15958
1.98012
1.91588
2.00149
2.2102
1.99579
0.348166
0.329942
0.333615
0.336979
0.343133
0.356635
0.377741
0.411716
0.456759
0.520241
0.551641
0.551258
0.529142
0.507607
0.512429
0.556336
0.685737
0.948158
1.56662
2.13484
1.99255
1.9062
1.96906
2.2014
1.9906
0.348173
0.329937
0.333598
0.336952
0.343091
0.356565
0.377593
0.411525
0.456519
0.519824
0.551086
0.550712
0.528588
0.507344
0.512209
0.55369
0.674789
0.882916
1.37946
2.06107
2.01269
1.89885
1.9327
2.18183
1.98727
0.348185
0.329947
0.333614
0.336972
0.343118
0.356598
0.377662
0.411557
0.456462
0.519791
0.550991
0.550605
0.528699
0.507345
0.512304
0.551525
0.665162
0.831744
1.23224
1.90054
2.03769
1.898
1.88219
2.1446
1.97473
0.348172
0.329939
0.333603
0.336957
0.343101
0.356581
0.377591
0.411592
0.45653
0.519952
0.551051
0.550563
0.528867
0.507255
0.512224
0.550476
0.654802
0.795088
1.10572
1.67661
2.04765
1.903
1.83345
2.08758
1.94878
0.348185
0.329947
0.333614
0.336972
0.343118
0.356603
0.377647
0.411589
0.45642
0.519879
0.551015
0.550466
0.52904
0.506982
0.511462
0.54799
0.643869
0.777876
0.998776
1.458
2.00947
1.9093
1.79207
1.99961
1.88901
0.348186
0.329949
0.333616
0.336973
0.343122
0.356598
0.377675
0.411574
0.456494
0.519785
0.551004
0.550689
0.529053
0.506909
0.514535
0.570458
0.744785
1.20749
2.09958
2.12447
1.97305
1.94409
2.04443
2.21206
1.99578
0.348178
0.329942
0.333605
0.33696
0.343102
0.356578
0.377629
0.411558
0.456534
0.519854
0.551091
0.550762
0.529034
0.506933
0.514241
0.568992
0.738734
1.18472
2.07475
2.13273
1.97379
1.94212
2.04195
2.21328
1.9967
0.348177
0.329947
0.333621
0.336987
0.34314
0.356638
0.377773
0.411675
0.456618
0.520097
0.551545
0.551218
0.529411
0.507277
0.513884
0.566246
0.727824
1.14011
2.01344
2.14477
1.9741
1.93606
2.03518
2.21451
1.99741
0.348174
0.329939
0.3336
0.336955
0.343095
0.356573
0.377603
0.411545
0.456568
0.519883
0.551155
0.55081
0.528943
0.507019
0.51288
0.562544
0.713921
1.08168
1.89928
2.15744
1.97453
1.92627
2.02208
2.21403
1.99682
0.348177
0.329947
0.33362
0.336986
0.343139
0.356636
0.377769
0.411663
0.45662
0.520081
0.55156
0.551209
0.529219
0.50742
0.512495
0.559176
0.699518
1.01774
1.74935
2.15956
1.98013
1.91588
2.00149
2.2102
1.99579
0.348175
0.329939
0.333601
0.336955
0.343095
0.356571
0.377603
0.41152
0.456527
0.519821
0.551102
0.55074
0.528672
0.507223
0.512079
0.556119
0.685647
0.948142
1.5666
2.13484
1.99256
1.9062
1.96906
2.2014
1.9906
0.348184
0.329946
0.333613
0.33697
0.343116
0.356594
0.377659
0.411553
0.456486
0.519773
0.55102
0.550659
0.528599
0.507351
0.512207
0.553667
0.674761
0.8829
1.37944
2.06107
2.0127
1.89885
1.9327
2.18184
1.98727
0.348174
0.329941
0.333605
0.336959
0.343105
0.356582
0.377613
0.411585
0.456563
0.5199
0.551068
0.550665
0.528728
0.507394
0.512365
0.551599
0.665237
0.831798
1.23227
1.90055
2.0377
1.89801
1.88219
2.1446
1.97473
0.348174
0.329941
0.333606
0.336961
0.343108
0.356591
0.377613
0.411634
0.456562
0.519985
0.551108
0.550623
0.528931
0.507317
0.512281
0.550509
0.654816
0.795099
1.10573
1.6766
2.04766
1.903
1.83345
2.08758
1.94878
0.348172
0.329939
0.333603
0.336958
0.343102
0.356586
0.377589
0.411621
0.456533
0.52
0.55113
0.55056
0.529091
0.507057
0.511549
0.548071
0.643958
0.777941
0.998819
1.45802
2.00947
1.9093
1.79207
1.99961
1.88901
0.348174
0.329941
0.333606
0.336961
0.343109
0.356584
0.377627
0.411612
0.456612
0.519905
0.551116
0.550791
0.529104
0.506999
0.514639
0.570571
0.744859
1.20735
2.09937
2.12452
1.97307
1.9441
2.04441
2.21237
1.99548
0.348181
0.329943
0.333608
0.336965
0.343108
0.356583
0.377645
0.411551
0.456485
0.51979
0.551086
0.550782
0.529112
0.506994
0.514284
0.568993
0.738669
1.18448
2.07445
2.13277
1.9738
1.94211
2.04187
2.21335
1.99658
0.348175
0.32994
0.333602
0.336956
0.343099
0.356576
0.377619
0.411577
0.456566
0.519869
0.551121
0.550788
0.529009
0.506975
0.513647
0.566153
0.727784
1.13998
2.01318
2.14485
1.9741
1.93604
2.03511
2.21463
1.99726
0.348169
0.329945
0.333617
0.336981
0.343135
0.356628
0.377778
0.411741
0.456728
0.520238
0.55168
0.551331
0.529459
0.507439
0.513228
0.562729
0.713955
1.08149
1.89887
2.15745
1.97454
1.92627
2.02204
2.21427
1.99658
0.348184
0.329944
0.333609
0.336965
0.343106
0.356581
0.377646
0.411504
0.456436
0.519713
0.551051
0.550712
0.528752
0.507053
0.512184
0.558997
0.699423
1.01762
1.74897
2.15959
1.98015
1.91588
2.00144
2.21047
1.99555
0.348196
0.32995
0.333615
0.336974
0.343114
0.356588
0.377698
0.411483
0.456324
0.519616
0.550996
0.550658
0.528637
0.507156
0.511992
0.555996
0.68549
0.947917
1.56617
2.13477
1.99259
1.90623
1.969
2.20171
1.99036
0.34817
0.329945
0.333616
0.33698
0.343133
0.356631
0.377751
0.411692
0.45669
0.520207
0.551573
0.551173
0.528932
0.507655
0.5125
0.553855
0.674833
0.882839
1.3792
2.06088
2.01273
1.8989
1.9326
2.18211
1.98705
0.348184
0.329954
0.333626
0.336993
0.34315
0.356649
0.377817
0.411711
0.456588
0.520134
0.551479
0.551064
0.529018
0.507616
0.512556
0.551651
0.665163
0.83166
1.23202
1.90025
2.03772
1.89804
1.88212
2.14475
1.97457
0.348185
0.329944
0.333607
0.336964
0.343101
0.356583
0.377631
0.411505
0.456333
0.519784
0.551002
0.550517
0.52879
0.507144
0.512107
0.550373
0.654684
0.794978
1.10554
1.67632
2.04764
1.90303
1.83339
2.08763
1.94869
0.348192
0.329956
0.33363
0.336999
0.343151
0.356647
0.377828
0.411686
0.456388
0.520056
0.551462
0.55092
0.529418
0.50729
0.511732
0.548055
0.643787
0.777805
0.998589
1.45774
2.00929
1.90935
1.79202
1.99962
1.88896
0.348191
0.329952
0.333616
0.336974
0.343119
0.356602
0.377693
0.411602
0.456389
0.519858
0.551111
0.550453
0.529088
0.506698
0.511734
0.546305
0.64453
0.769592
0.915019
1.27489
1.81149
1.91399
1.76988
1.89372
1.71616
0.348183
0.329955
0.33363
0.336997
0.343157
0.356658
0.377834
0.411745
0.456598
0.520191
0.551635
0.55097
0.529265
0.507343
0.511887
0.547139
0.649472
0.751634
0.857718
1.12505
1.54881
1.93575
1.7621
1.79336
1.66952
0.348194
0.329955
0.333621
0.33698
0.343128
0.356605
0.377732
0.411584
0.45642
0.519814
0.551124
0.550513
0.528663
0.507313
0.511448
0.548927
0.646593
0.735294
0.830437
0.993633
1.33545
1.92269
1.74427
1.73245
1.66069
0.348201
0.329957
0.333624
0.336985
0.343131
0.356609
0.377754
0.411538
0.456296
0.519691
0.551032
0.550446
0.52864
0.507168
0.51127
0.547562
0.645191
0.740894
0.809247
0.90545
1.14553
1.64672
1.70488
1.67116
1.63664
0.348186
0.329958
0.333632
0.337
0.343159
0.356662
0.377846
0.411718
0.456572
0.520166
0.551623
0.551002
0.529074
0.507544
0.511614
0.54731
0.648294
0.735495
0.793693
0.865326
0.995734
1.32359
1.6419
1.6244
1.61541
0.348188
0.329957
0.333628
0.336995
0.343149
0.356649
0.377842
0.411696
0.456522
0.520134
0.551629
0.551004
0.529046
0.507518
0.51157
0.547543
0.646228
0.738588
0.792071
0.83539
0.906803
1.07595
1.38244
1.58211
1.5697
0.348193
0.329957
0.333631
0.337
0.34315
0.356651
0.377845
0.411618
0.456398
0.520008
0.551578
0.550972
0.52904
0.507475
0.511516
0.547376
0.647081
0.736636
0.792884
0.831543
0.869235
0.940137
1.10831
1.41065
1.51263
0.348196
0.329959
0.333633
0.337002
0.343154
0.356655
0.377861
0.411627
0.456396
0.520008
0.551565
0.550959
0.529028
0.507467
0.511501
0.547407
0.64678
0.737269
0.792003
0.830759
0.862413
0.895908
0.960369
1.11255
1.34888
0.34819
0.329958
0.33363
0.336998
0.343153
0.356652
0.377854
0.411688
0.456502
0.520117
0.551597
0.550972
0.529021
0.507492
0.51154
0.547438
0.646923
0.73711
0.792301
0.830329
0.861366
0.888329
0.917192
0.971746
1.08168
0.348196
0.329963
0.333639
0.337009
0.343166
0.356669
0.377882
0.411674
0.456452
0.520048
0.551552
0.550945
0.529034
0.507491
0.511532
0.54742
0.646885
0.737121
0.792223
0.830411
0.861153
0.887109
0.911846
0.935447
0.976819
0.348206
0.32996
0.333625
0.336986
0.34313
0.356608
0.37776
0.41153
0.45627
0.519675
0.551052
0.550457
0.528628
0.50712
0.511186
0.547261
0.6468
0.737086
0.792176
0.830467
0.861002
0.88722
0.910458
0.931324
0.952045
0.348188
0.32996
0.333635
0.337003
0.343164
0.356663
0.37787
0.411755
0.45659
0.520193
0.551626
0.551
0.529062
0.50755
0.511601
0.547486
0.646948
0.737171
0.792213
0.830484
0.861003
0.887197
0.910331
0.930667
0.948669
0.348188
0.32996
0.333634
0.337002
0.343162
0.356662
0.377866
0.411745
0.456579
0.520184
0.551623
0.550998
0.52906
0.507545
0.511595
0.547479
0.646942
0.737172
0.792215
0.83049
0.861002
0.887206
0.910299
0.930598
0.948197
0.348205
0.329959
0.333624
0.336985
0.343129
0.356608
0.377755
0.411524
0.45627
0.519679
0.551068
0.550477
0.528653
0.507141
0.511204
0.547276
0.646815
0.7371
0.792184
0.830479
0.860998
0.887206
0.910296
0.930588
0.948131
0.348193
0.32996
0.333636
0.337005
0.343161
0.356664
0.377859
0.411664
0.456464
0.52006
0.551591
0.550986
0.52907
0.507527
0.511568
0.547453
0.646916
0.737156
0.792206
0.830485
0.860998
0.887204
0.910292
0.930584
0.948119
0.348188
0.329957
0.333629
0.336996
0.343151
0.356652
0.377849
0.411704
0.456528
0.520153
0.551658
0.551032
0.529069
0.50753
0.511576
0.547456
0.646915
0.737159
0.792209
0.830487
0.860999
0.887205
0.910292
0.930584
0.948117
0.348189
0.329958
0.333629
0.336997
0.343152
0.356652
0.377853
0.411703
0.456521
0.520146
0.551641
0.551012
0.529048
0.507514
0.51156
0.547446
0.646909
0.737154
0.792206
0.830484
0.860997
0.887203
0.910291
0.930583
0.948116
0.348196
0.329963
0.333638
0.337008
0.343166
0.356668
0.377886
0.411687
0.456467
0.520067
0.551563
0.550957
0.529044
0.507502
0.511542
0.547428
0.646889
0.737139
0.792196
0.830479
0.860994
0.887202
0.91029
0.930582
0.948116
0.348207
0.329961
0.333626
0.336987
0.343131
0.356608
0.377759
0.411511
0.456251
0.519654
0.551025
0.550431
0.52861
0.507106
0.511172
0.547256
0.646806
0.737093
0.792179
0.830475
0.860995
0.887204
0.910293
0.930585
0.948118
0.348199
0.329966
0.333642
0.337012
0.343172
0.356675
0.377905
0.411699
0.456468
0.520066
0.55155
0.550944
0.529035
0.507495
0.511535
0.547422
0.64688
0.737132
0.792192
0.830476
0.860992
0.887201
0.910289
0.930582
0.948116
0.348187
0.329956
0.333627
0.336994
0.343148
0.356647
0.377836
0.411692
0.456519
0.520141
0.551643
0.551014
0.529047
0.507516
0.511565
0.547459
0.646932
0.737165
0.79221
0.830486
0.860997
0.887203
0.91029
0.930582
0.948116
0.348199
0.329964
0.333638
0.337008
0.343163
0.356666
0.377894
0.411677
0.456428
0.520043
0.551596
0.550986
0.529048
0.50749
0.511525
0.547404
0.646848
0.737115
0.792182
0.830471
0.860989
0.887198
0.910288
0.930581
0.948115
0.348187
0.329956
0.333627
0.336994
0.343148
0.356647
0.377837
0.411693
0.456521
0.520142
0.551643
0.551013
0.529045
0.507515
0.511565
0.547459
0.646931
0.737164
0.79221
0.830486
0.860997
0.887203
0.91029
0.930583
0.948116
0.348199
0.329966
0.333642
0.337013
0.343174
0.356677
0.377911
0.411708
0.456476
0.520079
0.551559
0.550951
0.529039
0.5075
0.511539
0.547425
0.646881
0.737132
0.792191
0.830475
0.860992
0.8872
0.910289
0.930582
0.948116
0.348207
0.329961
0.333626
0.336986
0.343131
0.356607
0.377758
0.41151
0.456245
0.519644
0.551016
0.55042
0.528597
0.507095
0.511162
0.547248
0.646799
0.737089
0.792177
0.830474
0.860995
0.887205
0.910293
0.930585
0.948118
0.348199
0.329966
0.333643
0.337014
0.343175
0.356677
0.37791
0.411711
0.456478
0.520075
0.551552
0.550945
0.529036
0.507501
0.511542
0.547432
0.646889
0.737134
0.79219
0.830473
0.860989
0.887197
0.910287
0.93058
0.948114
0.348187
0.329956
0.333627
0.336994
0.343147
0.356646
0.377838
0.411685
0.456511
0.520138
0.551633
0.551003
0.529034
0.5075
0.511549
0.547442
0.646916
0.737156
0.792206
0.830484
0.860996
0.887202
0.91029
0.930582
0.948116
0.348199
0.329963
0.333637
0.337008
0.343163
0.356665
0.377888
0.41167
0.456422
0.52003
0.551583
0.550975
0.529043
0.507488
0.511524
0.547409
0.646857
0.737117
0.792181
0.830467
0.860985
0.887195
0.910285
0.930579
0.948113
0.348187
0.329955
0.333627
0.336993
0.343146
0.356646
0.377832
0.411681
0.456514
0.520133
0.551638
0.55101
0.529047
0.507513
0.511562
0.547455
0.646929
0.737163
0.792208
0.830483
0.860995
0.887201
0.910288
0.930581
0.948115
0.348196
0.329963
0.333638
0.337009
0.343166
0.356669
0.377882
0.411675
0.456458
0.520057
0.551568
0.550965
0.529052
0.507505
0.511543
0.547427
0.646885
0.737137
0.792195
0.830477
0.860992
0.8872
0.910289
0.930581
0.948115
0.348205
0.329959
0.333623
0.336984
0.343127
0.356604
0.37775
0.411505
0.456246
0.519651
0.551027
0.550435
0.528616
0.507108
0.511173
0.54725
0.646797
0.737089
0.792176
0.830473
0.860993
0.887203
0.910291
0.930584
0.948117
0.348188
0.329959
0.333633
0.337001
0.343161
0.356661
0.377864
0.411739
0.45658
0.520187
0.551623
0.551002
0.52907
0.507547
0.511594
0.547474
0.646936
0.737168
0.792213
0.830488
0.860998
0.887204
0.91029
0.930582
0.948115
0.348186
0.329957
0.33363
0.336998
0.343154
0.356655
0.377838
0.411709
0.456562
0.520167
0.551631
0.551008
0.529068
0.507546
0.511595
0.547476
0.646944
0.737175
0.792217
0.83049
0.861
0.887205
0.910291
0.930583
0.948116
0.348203
0.329957
0.333621
0.336982
0.343125
0.356603
0.377748
0.411518
0.456268
0.519677
0.551071
0.550484
0.52867
0.507148
0.511207
0.547269
0.646801
0.737092
0.79218
0.830475
0.860995
0.887204
0.910292
0.930584
0.948117
0.348183
0.329954
0.333627
0.336994
0.343148
0.356649
0.377814
0.411689
0.456561
0.520168
0.551655
0.551036
0.529094
0.507561
0.511608
0.547487
0.646957
0.737183
0.792223
0.830495
0.861003