/*--------------------------------*- C++ -*----------------------------------*\
| =========                 |                                                 |
| \\      /  F ield         | OpenFOAM: The Open Source CFD Toolbox           |
|  \\    /   O peration     | Version:  4.1                                   |
|   \\  /    A nd           | Web:      www.OpenFOAM.org                      |
|    \\/     M anipulation  |                                                 |
\*---------------------------------------------------------------------------*/
FoamFile
{
    version     2.0;
    format      ascii;
    class       volVectorField;
    location    "0.22";
    object      U;
}
// * * * * * * * * * * * * * * * * * * * * * * * * * * * * * * * * * * * * * //

dimensions      [0 1 -1 0 0 0 0];

internalField   nonuniform List<vector> 
52500
(
(1.80692 -5.46722e-07 -0.00223503)
(1.828 -1.95766e-06 -0.0020532)
(1.8227 -3.73599e-06 -0.00207226)
(1.81443 -6.05516e-06 -0.00209138)
(1.80084 -9.30411e-06 -0.00212993)
(1.77762 -1.45599e-05 -0.00221376)
(1.73728 -2.53374e-05 -0.00234768)
(1.66692 -3.95015e-05 -0.00256515)
(1.55438 -5.79545e-05 -0.0028595)
(1.43459 -6.66966e-05 -0.00328507)
(1.3445 -5.21367e-05 -0.00351565)
(1.28022 -4.89586e-05 -0.00353561)
(1.22813 -4.06864e-05 -0.00341556)
(1.18732 -1.17499e-05 -0.00328308)
(1.16435 6.8651e-05 -0.0033447)
(1.14363 0.000221651 -0.00375364)
(1.04148 0.00195794 -0.00500568)
(0.522791 0.0103695 -0.00861114)
(-0.415011 0.0423157 -0.0148636)
(-0.596232 0.0427933 -0.0142842)
(-0.318193 0.0359353 -0.0135449)
(-0.18107 0.0310847 -0.0135824)
(0.030305 0.0292786 -0.0144061)
(-0.264562 0.0295215 -0.0155298)
(0.00353746 0.0287515 -0.0140253)
(1.80692 -7.87955e-07 -0.00223502)
(1.82799 -2.40999e-06 -0.00205316)
(1.8227 -4.42701e-06 -0.00207221)
(1.81442 -7.04541e-06 -0.00209133)
(1.80083 -1.07046e-05 -0.00212987)
(1.7776 -1.70363e-05 -0.00221372)
(1.73726 -3.15913e-05 -0.00234753)
(1.66689 -4.89206e-05 -0.002565)
(1.55436 -6.91737e-05 -0.00285953)
(1.4346 -7.42321e-05 -0.00328548)
(1.34452 -4.51582e-05 -0.00351644)
(1.28024 -5.65478e-05 -0.00353643)
(1.22816 -5.1814e-05 -0.00341598)
(1.18741 1.32719e-05 -0.00328398)
(1.16454 0.000183547 -0.00334235)
(1.14528 0.000631347 -0.00374097)
(1.05064 0.00569983 -0.00495521)
(0.559763 0.0298604 -0.00839495)
(-0.382411 0.120874 -0.0145883)
(-0.593483 0.125755 -0.0142413)
(-0.316727 0.0999613 -0.0134581)
(-0.176853 0.0852745 -0.0134943)
(0.0353494 0.0833054 -0.014312)
(-0.265175 0.0830928 -0.0154545)
(0.00342563 0.0798026 -0.0139547)
(1.80691 -2.3449e-06 -0.00223503)
(1.82799 -6.25492e-06 -0.00205319)
(1.82269 -1.20067e-05 -0.00207224)
(1.81442 -2.03062e-05 -0.00209136)
(1.80083 -3.20262e-05 -0.0021299)
(1.7776 -4.91861e-05 -0.00221378)
(1.73726 -7.44556e-05 -0.00234775)
(1.66689 -9.2182e-05 -0.00256515)
(1.55437 -8.58712e-05 -0.00285976)
(1.43464 -4.49818e-05 -0.00328592)
(1.34454 2.50682e-05 -0.0035173)
(1.28024 2.76749e-05 -0.003537)
(1.2282 4.54699e-05 -0.00341623)
(1.18753 0.000116002 -0.00328421)
(1.16487 0.000219631 -0.00333653)
(1.14846 0.000797299 -0.00371604)
(1.06776 0.00862575 -0.0048658)
(0.631855 0.0451748 -0.00798023)
(-0.311391 0.192208 -0.0140779)
(-0.584919 0.218638 -0.0142622)
(-0.318666 0.171321 -0.0133588)
(-0.168946 0.14529 -0.0133762)
(0.045533 0.143283 -0.0141935)
(-0.266808 0.141755 -0.015383)
(0.00392535 0.136638 -0.013876)
(1.80691 -3.28297e-07 -0.00223504)
(1.82798 -2.45617e-06 -0.00205313)
(1.82268 -6.07275e-06 -0.0020722)
(1.8144 -1.19424e-05 -0.00209132)
(1.8008 -2.09666e-05 -0.00212985)
(1.77756 -3.49628e-05 -0.00221373)
(1.73723 -5.37799e-05 -0.00234755)
(1.6669 -6.70781e-05 -0.00256462)
(1.55447 -6.42366e-05 -0.00285915)
(1.43483 -4.80888e-05 -0.00328548)
(1.34476 -1.82134e-06 -0.00351694)
(1.28044 -2.56902e-06 -0.00353704)
(1.2284 4.4155e-05 -0.00341557)
(1.18768 0.00013286 -0.00328492)
(1.1652 2.82219e-05 -0.00332935)
(1.15267 0.00055088 -0.00368369)
(1.09012 0.0101336 -0.00475235)
(0.733027 0.0534537 -0.00747582)
(-0.190932 0.236417 -0.0132517)
(-0.567117 0.313293 -0.01436)
(-0.325714 0.246151 -0.013246)
(-0.159155 0.208157 -0.0132288)
(0.0618124 0.20524 -0.0140339)
(-0.26906 0.202362 -0.0152992)
(0.00538049 0.196822 -0.0137815)
(1.80691 -1.31986e-06 -0.00223507)
(1.82799 -5.13476e-06 -0.00205316)
(1.82269 -1.01423e-05 -0.0020722)
(1.81441 -1.77018e-05 -0.00209132)
(1.80081 -3.0435e-05 -0.00212981)
(1.77759 -5.55332e-05 -0.00221368)
(1.73726 -8.66511e-05 -0.00234775)
(1.66697 -0.000127131 -0.00256458)
(1.55459 -0.000181282 -0.00285884)
(1.43502 -0.000246749 -0.00328513)
(1.34498 -0.000220454 -0.00351702)
(1.28069 -0.000100136 -0.00353697)
(1.22868 7.28076e-05 -0.00341453)
(1.1878 0.000206154 -0.00328475)
(1.16545 -0.000198748 -0.00332189)
(1.15736 0.000113777 -0.00365054)
(1.11428 0.0104245 -0.00463381)
(0.842618 0.0556799 -0.00695659)
(-0.0234183 0.248111 -0.012217)
(-0.531542 0.405071 -0.0144419)
(-0.33811 0.325649 -0.0131601)
(-0.149555 0.274821 -0.0130713)
(0.0861902 0.269736 -0.0138276)
(-0.269968 0.266609 -0.0151907)
(0.00838114 0.261962 -0.0136772)
(1.80691 -4.12741e-06 -0.002235)
(1.82798 -1.12675e-05 -0.00205315)
(1.82267 -2.1207e-05 -0.00207224)
(1.81439 -3.57335e-05 -0.00209141)
(1.80078 -5.79307e-05 -0.00212998)
(1.77752 -9.515e-05 -0.00221388)
(1.73712 -0.000140716 -0.00234803)
(1.66664 -0.000184005 -0.00256518)
(1.55392 -0.000212553 -0.00285966)
(1.43398 -0.000193029 -0.00328645)
(1.34376 -0.000152055 -0.00351878)
(1.27947 8.4291e-05 -0.00353933)
(1.22754 0.000292884 -0.00341557)
(1.18657 0.000330268 -0.00328855)
(1.16455 -0.000296616 -0.00332243)
(1.16143 -0.000366683 -0.00362636)
(1.13828 0.00988283 -0.00451506)
(0.950374 0.0534058 -0.00640287)
(0.194211 0.229378 -0.0109836)
(-0.467118 0.485224 -0.0143578)
(-0.351583 0.41239 -0.0131251)
(-0.142184 0.34685 -0.012911)
(0.119281 0.338219 -0.013543)
(-0.266423 0.33781 -0.0150476)
(0.013416 0.336763 -0.0135345)
(1.80691 2.77757e-07 -0.00223505)
(1.82798 3.70401e-07 -0.00205319)
(1.82267 -4.51105e-07 -0.00207229)
(1.81438 -1.92064e-06 -0.00209147)
(1.80076 -2.87165e-06 -0.00213004)
(1.77751 -8.40401e-08 -0.00221396)
(1.73712 -5.85193e-08 -0.00234833)
(1.66669 1.44528e-05 -0.00256515)
(1.55409 5.89649e-05 -0.00285924)
(1.43422 0.000174178 -0.00328618)
(1.34408 0.000107768 -0.00351848)
(1.27985 0.000182818 -0.00353875)
(1.22778 0.000159729 -0.00341449)
(1.18642 0.000161445 -0.00328849)
(1.16429 -0.000453584 -0.00332401)
(1.16571 -0.000773862 -0.00360179)
(1.1608 0.00895551 -0.00441093)
(1.04267 0.0474143 -0.00588724)
(0.442576 0.189442 -0.00970597)
(-0.354452 0.533748 -0.0140262)
(-0.357468 0.508782 -0.013139)
(-0.138667 0.424343 -0.0127543)
(0.159753 0.412461 -0.0132149)
(-0.250258 0.416949 -0.0148347)
(0.0207379 0.426509 -0.0133956)
(1.80689 -9.11231e-07 -0.00223511)
(1.82797 -2.55007e-06 -0.00205312)
(1.82267 -4.65259e-06 -0.00207216)
(1.81439 -7.3921e-06 -0.00209128)
(1.80077 -1.1072e-05 -0.00212975)
(1.77754 -1.72739e-05 -0.00221361)
(1.73722 -2.39751e-05 -0.00234759)
(1.66697 -3.50192e-05 -0.00256404)
(1.55475 -4.32796e-05 -0.00285773)
(1.43525 -5.16303e-05 -0.00328454)
(1.3454 -7.50993e-05 -0.00351626)
(1.28127 -0.000109303 -0.0035359)
(1.22913 -4.15965e-05 -0.00341292)
(1.18733 0.000194618 -0.00328586)
(1.16471 -0.000197543 -0.00332295)
(1.17014 -0.000422622 -0.00357839)
(1.18042 0.00805055 -0.00431591)
(1.11322 0.0394973 -0.00549259)
(0.683101 0.151974 -0.00845448)
(-0.168834 0.518571 -0.0130145)
(-0.339992 0.614174 -0.0132717)
(-0.139523 0.510049 -0.0126132)
(0.200129 0.492713 -0.0127702)
(-0.206038 0.504322 -0.0145179)
(0.0334427 0.539823 -0.0131801)
(1.80691 -2.15562e-06 -0.00223504)
(1.82797 -6.49607e-06 -0.00205316)
(1.82266 -1.1706e-05 -0.00207226)
(1.81438 -1.89326e-05 -0.00209144)
(1.80075 -3.07016e-05 -0.00213001)
(1.77749 -5.34983e-05 -0.00221399)
(1.7371 -8.18498e-05 -0.00234816)
(1.66668 -0.000131487 -0.00256535)
(1.55407 -0.000206691 -0.0028593)
(1.43419 -0.000318324 -0.00328742)
(1.34402 -0.000307959 -0.00351937)
(1.27985 -0.000344525 -0.00353857)
(1.22804 -0.000264423 -0.00341705)
(1.18629 0.000327128 -0.0032884)
(1.16381 0.000211516 -0.00332429)
(1.17279 0.00112416 -0.00356619)
(1.19526 0.00448558 -0.00423632)
(1.1652 0.0272125 -0.00521487)
(0.896798 0.116102 -0.00745453)
(0.0957695 0.433929 -0.0115912)
(-0.275945 0.714372 -0.0134063)
(-0.141054 0.607361 -0.0125108)
(0.225161 0.578452 -0.01231)
(-0.117393 0.596343 -0.0140163)
(0.0587897 0.686105 -0.0128587)
(1.8069 3.21741e-06 -0.00223504)
(1.82797 7.42552e-06 -0.00205314)
(1.82266 1.39465e-05 -0.00207223)
(1.81437 2.40732e-05 -0.00209141)
(1.80075 3.99494e-05 -0.00212997)
(1.77748 6.67121e-05 -0.00221393)
(1.73708 9.20513e-05 -0.00234806)
(1.66662 9.95841e-05 -0.00256525)
(1.554 6.03666e-05 -0.00285885)
(1.43412 1.28693e-05 -0.00328708)
(1.34397 -0.000155853 -0.0035192)
(1.27975 -0.000200142 -0.00353795)
(1.22832 -0.000656106 -0.00341808)
(1.18663 0.000353603 -0.00328729)
(1.16467 -0.000580622 -0.00331668)
(1.17307 0.00216712 -0.00355163)
(1.20281 -0.00115886 -0.00415211)
(1.20597 0.0156602 -0.00504614)
(1.06283 0.0859892 -0.00662952)
(0.42218 0.327069 -0.0100209)
(-0.14272 0.766917 -0.0134033)
(-0.135453 0.711754 -0.0124465)
(0.233381 0.668335 -0.0118466)
(0.0236035 0.709715 -0.013206)
(0.112675 0.936226 -0.0121936)
(1.8069 3.08106e-06 -3.28706e-09)
(1.82798 8.43213e-06 1.14762e-09)
(1.82268 1.57029e-05 1.85467e-09)
(1.8144 2.55629e-05 3.33049e-09)
(1.80079 3.91781e-05 7.31778e-09)
(1.77755 5.89819e-05 1.49384e-08)
(1.7372 9.38743e-05 1.87453e-08)
(1.66687 0.000128305 7.68617e-08)
(1.55445 0.000152599 1.7533e-07)
(1.43483 0.000140301 3.19802e-07)
(1.3448 0.000114102 4.99167e-07)
(1.28051 7.83691e-05 4.44701e-07)
(1.22839 4.31078e-05 2.79876e-07)
(1.18751 1.57352e-06 5.06586e-07)
(1.16443 4.56698e-05 4.62531e-07)
(1.14363 0.000189879 3.65451e-07)
(1.0414 0.00193728 3.24065e-08)
(0.522515 0.0103659 -1.25106e-06)
(-0.415154 0.0423248 -2.19866e-06)
(-0.5962 0.0427811 1.19076e-06)
(-0.318156 0.0359403 6.20702e-07)
(-0.181055 0.0310829 2.46188e-07)
(0.0302546 0.0292765 3.20472e-08)
(-0.264572 0.0295107 9.75338e-08)
(0.0035748 0.0287595 3.45088e-07)
(1.80691 -1.45181e-06 -2.25731e-09)
(1.82799 -4.77742e-06 3.83461e-09)
(1.8227 -1.00665e-05 4.68555e-09)
(1.81443 -1.88367e-05 6.55704e-09)
(1.80083 -3.36477e-05 1.08963e-08)
(1.77761 -5.99512e-05 1.7064e-08)
(1.73728 -8.61422e-05 3.09361e-08)
(1.66694 -0.000107059 8.8331e-08)
(1.55447 -0.000107191 1.68858e-07)
(1.43479 -0.000118759 2.96169e-07)
(1.34474 -5.73325e-05 3.89224e-07)
(1.28043 2.53587e-05 3.18725e-07)
(1.22832 8.31348e-05 1.52073e-07)
(1.18752 0.000138213 3.81433e-07)
(1.1646 0.000282394 3.54832e-07)
(1.14529 0.000709713 2.86241e-07)
(1.05058 0.005772 1.88049e-09)
(0.559515 0.0299261 -1.21898e-06)
(-0.382608 0.120905 -2.09761e-06)
(-0.593471 0.125752 1.08108e-06)
(-0.316695 0.099976 5.92561e-07)
(-0.176836 0.0852935 2.22117e-07)
(0.0352591 0.0833427 -1.62498e-08)
(-0.26519 0.0830563 1.35638e-07)
(0.00347338 0.079785 3.27423e-07)
(1.80691 9.58248e-07 4.72567e-09)
(1.82798 3.28719e-06 2.14926e-08)
(1.82267 6.35794e-06 2.40891e-08)
(1.81439 1.05322e-05 3.05098e-08)
(1.80077 1.64071e-05 4.29557e-08)
(1.77751 2.4561e-05 5.48462e-08)
(1.73713 4.10065e-05 1.40531e-07)
(1.6667 6.37181e-05 2.23584e-07)
(1.55407 9.46641e-05 2.93346e-07)
(1.43418 0.000108582 4.24357e-07)
(1.34397 0.000124626 4.20899e-07)
(1.27957 8.20151e-05 2.75952e-07)
(1.2275 6.769e-05 1.7108e-07)
(1.1869 0.000112456 2.10598e-07)
(1.16436 0.00020426 1.92391e-07)
(1.14809 0.000785558 1.46235e-07)
(1.06747 0.00862913 -9.75687e-08)
(0.631421 0.0452037 -1.15797e-06)
(-0.311666 0.192259 -2.64725e-06)
(-0.584901 0.218631 1.11308e-06)
(-0.318625 0.171336 6.22966e-07)
(-0.168908 0.145317 2.46974e-07)
(0.0454863 0.143337 1.59171e-07)
(-0.266739 0.141701 4.68315e-08)
(0.00389784 0.136617 2.43526e-07)
(1.80692 8.21256e-08 2.97255e-09)
(1.828 4.01694e-07 1.52003e-08)
(1.8227 7.46879e-07 1.69881e-08)
(1.81444 1.18332e-06 2.09913e-08)
(1.80084 1.84144e-06 3.02566e-08)
(1.77763 2.73291e-06 3.20934e-08)
(1.73731 4.67716e-06 1.03443e-07)
(1.66697 1.00864e-05 1.688e-07)
(1.55448 2.2991e-05 2.03127e-07)
(1.43477 3.53014e-05 2.90338e-07)
(1.34465 5.90171e-05 1.44949e-07)
(1.28032 2.72012e-05 -1.49119e-09)
(1.22829 5.92615e-05 -2.22529e-07)
(1.18759 0.000153069 1.19335e-07)
(1.16514 3.84278e-05 1.08815e-07)
(1.15263 0.000559675 5.69772e-08)
(1.09005 0.0101457 -1.62883e-07)
(0.732765 0.0534807 -9.16959e-07)
(-0.191222 0.236496 -2.62771e-06)
(-0.567128 0.313283 7.2905e-07)
(-0.325668 0.246167 7.35827e-07)
(-0.159096 0.208177 3.13841e-07)
(0.0617529 0.205276 3.25011e-07)
(-0.268954 0.202315 -8.14353e-08)
(0.00532198 0.196824 1.92532e-07)
(1.80691 -3.21226e-07 2.91688e-08)
(1.82798 -7.47775e-07 6.73745e-08)
(1.82267 -1.60992e-06 7.28866e-08)
(1.81439 -2.96073e-06 8.68039e-08)
(1.80077 -4.76347e-06 1.11496e-07)
(1.77751 -6.36657e-06 1.16965e-07)
(1.73713 -8.38791e-06 3.03391e-07)
(1.66671 -5.52165e-06 3.07603e-07)
(1.55409 6.66272e-06 1.72179e-07)
(1.4342 3.55642e-05 -3.18623e-09)
(1.34396 3.81186e-05 -2.6405e-07)
(1.27957 5.13306e-05 -4.46564e-07)
(1.22761 0.000138653 -3.64676e-07)
(1.18688 0.000204927 -3.22358e-07)
(1.16473 -0.00020602 -2.97384e-07)
(1.15687 9.62079e-05 -2.91448e-07)
(1.11392 0.0104024 -3.30506e-07)
(0.842191 0.0556875 -8.67028e-07)
(-0.0238505 0.24823 -3.12904e-06)
(-0.53159 0.405062 4.27984e-07)
(-0.338067 0.325661 8.56602e-07)
(-0.149489 0.274843 3.86817e-07)
(0.0861147 0.269751 3.51335e-07)
(-0.269856 0.266584 -4.80045e-08)
(0.00831782 0.261975 1.56241e-07)
(1.80692 2.0448e-06 1.57096e-08)
(1.828 6.45871e-06 3.69367e-08)
(1.8227 1.30895e-05 3.98687e-08)
(1.81443 2.35583e-05 4.65621e-08)
(1.80084 4.06442e-05 6.03802e-08)
(1.77763 7.03504e-05 6.45254e-08)
(1.73731 0.000104492 1.84275e-07)
(1.667 0.000134453 2.13263e-07)
(1.55455 0.000141364 1.53636e-07)
(1.43484 0.000161915 8.68584e-08)
(1.34473 3.67555e-05 -7.04087e-08)
(1.28048 2.34212e-05 -2.76451e-07)
(1.22848 7.38596e-05 -4.58939e-07)
(1.18736 3.46633e-05 -1.75468e-07)
(1.16513 -0.000558315 -1.6488e-07)
(1.16179 -0.000580657 -1.8891e-07)
(1.13847 0.0097175 -2.89394e-07)
(0.950395 0.0533171 -7.00945e-07)
(0.193949 0.229464 -2.40903e-06)
(-0.467199 0.485234 -4.28067e-07)
(-0.351542 0.412387 9.19956e-07)
(-0.142111 0.346867 4.9238e-07)
(0.119206 0.338211 3.56722e-07)
(-0.266301 0.337788 -1.11253e-07)
(0.0133431 0.336782 1.86044e-07)
(1.80691 -8.42489e-07 1.98202e-08)
(1.82798 -2.06441e-06 7.67954e-08)
(1.82268 -3.25804e-06 8.34682e-08)
(1.8144 -4.38901e-06 9.85514e-08)
(1.8008 -5.68027e-06 1.20131e-07)
(1.77756 -7.35558e-06 1.95667e-07)
(1.73723 -1.42408e-05 4.51925e-07)
(1.6669 -2.81771e-05 5.26094e-07)
(1.55449 -5.48268e-05 5.92102e-07)
(1.43482 -5.84657e-05 7.90898e-07)
(1.3448 -0.000144581 5.70098e-07)
(1.28068 -2.71362e-06 2.30798e-07)
(1.22862 5.92497e-05 -2.63186e-07)
(1.18716 0.000145163 -4.45861e-07)
(1.16483 -0.000447476 -2.25018e-07)
(1.16606 -0.000733348 -1.54607e-07)
(1.16099 0.00901596 -2.45941e-07)
(1.04272 0.0474821 -5.79106e-07)
(0.44235 0.189561 -1.7139e-06)
(-0.354592 0.533831 -1.41791e-06)
(-0.357455 0.508771 9.43473e-07)
(-0.138594 0.42435 5.44993e-07)
(0.159672 0.412442 2.35068e-07)
(-0.250163 0.416927 -4.61901e-08)
(0.0206741 0.426531 2.93115e-07)
(1.80692 2.19163e-06 3.13948e-08)
(1.82799 6.06605e-06 5.19351e-08)
(1.8227 1.1822e-05 5.5225e-08)
(1.81443 2.01219e-05 6.48115e-08)
(1.80083 3.17884e-05 7.82153e-08)
(1.77761 4.88131e-05 7.66203e-08)
(1.73727 7.62058e-05 1.3742e-07)
(1.66692 9.19895e-05 1.06753e-08)
(1.55443 8.70842e-05 -1.79331e-07)
(1.43463 3.60438e-05 -4.96967e-07)
(1.34461 -3.92186e-05 -3.79388e-07)
(1.28048 -0.000106734 -3.04442e-07)
(1.22848 -6.67461e-05 -1.41746e-07)
(1.18682 0.000165334 -6.40729e-08)
(1.16436 -0.000228359 -9.81628e-08)
(1.16993 -0.000434891 -6.54706e-08)
(1.18027 0.00806136 -6.78906e-08)
(1.11307 0.0395387 -2.83282e-07)
(0.682774 0.152072 -1.03895e-06)
(-0.169102 0.518737 -2.16359e-06)
(-0.340032 0.614165 8.87458e-07)
(-0.139453 0.510051 5.71723e-07)
(0.200055 0.492695 1.74399e-07)
(-0.205991 0.504319 -9.97015e-08)
(0.0333971 0.539842 4.02462e-07)
(1.80692 4.86937e-07 2.64431e-08)
(1.82799 1.20304e-06 8.91115e-08)
(1.8227 2.12624e-06 9.67908e-08)
(1.81442 3.32494e-06 1.15458e-07)
(1.80083 4.90929e-06 1.39146e-07)
(1.77761 7.00174e-06 2.2822e-07)
(1.73726 1.42931e-05 4.6296e-07)
(1.66689 1.60549e-05 5.14092e-07)
(1.55436 1.82303e-05 6.03872e-07)
(1.43456 -8.86895e-06 8.00299e-07)
(1.34449 -2.69937e-05 9.62586e-07)
(1.28043 -0.000162812 6.05163e-07)
(1.22869 -0.00018581 2.08594e-07)
(1.1869 0.000355122 5.1609e-09)
(1.16429 0.000222662 4.92665e-08)
(1.17311 0.00111036 5.63307e-08)
(1.19545 0.00448721 -1.04998e-07)
(1.16528 0.0272364 -3.17133e-07)
(0.896658 0.116166 -7.7353e-07)
(0.0954636 0.43413 -2.08758e-06)
(-0.276048 0.714385 4.32131e-07)
(-0.140989 0.607359 6.31253e-07)
(0.225113 0.578445 1.42557e-07)
(-0.117386 0.596365 -1.031e-07)
(0.0587502 0.686123 4.40216e-07)
(1.80692 3.7553e-08 -1.49696e-09)
(1.828 2.21105e-07 3.65309e-08)
(1.8227 4.20883e-07 4.116e-08)
(1.81443 6.83126e-07 5.20464e-08)
(1.80084 1.10855e-06 6.42108e-08)
(1.77762 1.48086e-06 1.55341e-07)
(1.73728 3.2423e-06 2.90815e-07)
(1.66693 6.45992e-06 4.69848e-07)
(1.55441 6.65605e-06 8.10561e-07)
(1.43459 3.53268e-05 1.47818e-06)
(1.34446 -2.32611e-05 1.43463e-06)
(1.2803 5.69812e-05 9.40925e-07)
(1.22891 -0.000323756 3.92235e-07)
(1.18716 0.000680992 1.3652e-07)
(1.16506 -0.000291916 2.78828e-07)
(1.17333 0.00239991 1.59142e-08)
(1.20297 -0.000967556 2.56129e-08)
(1.20603 0.0158046 7.49976e-09)
(1.06275 0.0861063 -3.56536e-07)
(0.421889 0.327248 -1.44539e-06)
(-0.1429 0.76701 -6.7119e-07)
(-0.135393 0.711751 6.43157e-07)
(0.233362 0.668339 1.93754e-07)
(0.0235896 0.709744 4.65347e-08)
(0.112636 0.936246 3.94513e-07)
(1.80692 -4.31035e-07 3.9511e-08)
(1.828 -1.53414e-06 8.03374e-08)
(1.8227 -2.91203e-06 8.58889e-08)
(1.81443 -4.72241e-06 9.86738e-08)
(1.80084 -7.31235e-06 1.23566e-07)
(1.77762 -1.16285e-05 1.27088e-07)
(1.73729 -2.04943e-05 3.47623e-07)
(1.66693 -3.20743e-05 3.39483e-07)
(1.55442 -4.67854e-05 1.49097e-07)
(1.43465 -5.3942e-05 -9.02214e-08)
(1.34454 -4.36222e-05 -5.57874e-07)
(1.28024 -4.31269e-05 -7.71345e-07)
(1.22815 -3.65028e-05 -7.19499e-07)
(1.18733 -9.52681e-06 -6.04152e-07)
(1.16433 7.00419e-05 -5.32135e-07)
(1.14358 0.000222397 -4.55005e-07)
(1.04137 0.00195873 -3.59166e-07)
(0.522413 0.0103739 -5.26473e-07)
(-0.415209 0.0423301 -6.5493e-07)
(-0.596201 0.0427756 5.06677e-07)
(-0.318163 0.0359385 2.40798e-07)
(-0.181068 0.0310818 5.95787e-08)
(0.0302381 0.0292761 1.00905e-07)
(-0.264576 0.0295109 9.10055e-08)
(0.00357383 0.0287594 5.43639e-08)
(1.80692 -3.34688e-07 1.65589e-08)
(1.82799 -4.96868e-07 3.86959e-08)
(1.8227 -7.85034e-07 4.22333e-08)
(1.81443 -1.18706e-06 5.17552e-08)
(1.80083 -1.66829e-06 6.71547e-08)
(1.77761 -2.54434e-06 8.74923e-08)
(1.73727 -4.45974e-06 1.80486e-07)
(1.66691 -3.06268e-06 2.30098e-07)
(1.5544 5.83722e-06 2.53988e-07)
(1.43465 2.94115e-05 3.5052e-07)
(1.34455 6.79537e-05 1.57078e-07)
(1.28025 5.44637e-05 -5.38653e-08)
(1.22818 4.58387e-05 -2.72111e-07)
(1.18742 7.66913e-05 -1.4156e-08)
(1.16452 0.000222908 -1.83244e-08)
(1.14523 0.000654815 -4.74585e-08)
(1.05052 0.00571445 -1.61472e-07)
(0.559445 0.0298777 -5.08649e-07)
(-0.382661 0.120901 -5.74201e-07)
(-0.593471 0.125743 4.42923e-07)
(-0.316699 0.0999736 2.29128e-07)
(-0.17685 0.0852919 5.02601e-08)
(0.0352431 0.0833421 9.09257e-08)
(-0.265194 0.0830561 9.58221e-08)
(0.00347214 0.0797847 5.61803e-08)
(1.80692 -1.64287e-06 1.89713e-08)
(1.828 -4.35142e-06 6.63974e-08)
(1.8227 -8.62234e-06 7.20405e-08)
(1.81443 -1.49523e-05 8.59667e-08)
(1.80084 -2.38263e-05 1.01895e-07)
(1.77762 -3.67959e-05 1.69362e-07)
(1.73729 -5.25135e-05 3.78278e-07)
(1.66694 -5.74093e-05 4.31533e-07)
(1.55444 -3.44649e-05 5.03204e-07)
(1.4347 1.16162e-05 6.61688e-07)
(1.34456 6.79735e-05 7.88982e-07)
(1.28022 5.49083e-05 2.66869e-07)
(1.22817 6.45951e-05 3.83328e-08)
(1.18748 0.0001342 -2.99145e-07)
(1.16481 0.000233925 -2.24465e-07)
(1.14838 0.000807162 -5.49082e-08)
(1.06763 0.00863524 -2.18899e-08)
(0.631507 0.0452006 -4.64161e-07)
(-0.311692 0.19227 -6.33854e-07)
(-0.584914 0.218623 3.37808e-07)
(-0.318633 0.171328 2.24819e-07)
(-0.168922 0.145314 5.16872e-08)
(0.0454709 0.143336 7.97601e-08)
(-0.266743 0.1417 9.36828e-08)
(0.00389664 0.136616 5.47223e-08)
(1.80691 1.39082e-06 5.63223e-09)
(1.82799 3.3334e-06 1.33915e-08)
(1.82269 5.56526e-06 1.50182e-08)
(1.81441 8.12229e-06 2.02349e-08)
(1.80081 1.1261e-05 2.67193e-08)
(1.77758 1.54571e-05 5.75125e-08)
(1.73726 2.48241e-05 7.46432e-08)
(1.66695 3.76368e-05 1.06439e-07)
(1.55454 5.56995e-05 2.07566e-07)
(1.43488 5.6428e-05 4.01671e-07)
(1.34477 6.35168e-05 4.09365e-07)
(1.28043 3.06154e-05 2.45156e-07)
(1.22841 5.35356e-05 -5.60878e-08)
(1.18769 0.000116292 2.19314e-07)
(1.16517 -3.12055e-06 1.79581e-07)
(1.15262 0.000520852 1.15327e-07)
(1.09003 0.0101167 -5.28076e-08)
(0.732769 0.0534678 -2.87795e-07)
(-0.191232 0.236503 -5.53035e-07)
(-0.56713 0.313275 2.86919e-07)
(-0.325667 0.246156 2.44712e-07)
(-0.159106 0.208171 6.62863e-08)
(0.0617393 0.205274 7.01048e-08)
(-0.268957 0.202313 8.05901e-08)
(0.00532115 0.196823 5.229e-08)
(1.80692 -8.85764e-07 1.80796e-08)
(1.828 -3.46593e-06 6.21281e-08)
(1.82271 -6.74731e-06 6.72458e-08)
(1.81444 -1.18225e-05 7.99552e-08)
(1.80085 -2.10161e-05 9.32796e-08)
(1.77764 -3.98365e-05 1.58437e-07)
(1.73733 -6.03602e-05 3.55781e-07)
(1.66701 -9.21985e-05 3.85598e-07)
(1.55455 -0.000143932 4.29342e-07)
(1.43484 -0.00021902 5.36392e-07)
(1.3447 -0.000208458 7.02437e-07)
(1.28039 -0.000106518 2.43991e-07)
(1.2284 5.58812e-05 6.96221e-08)
(1.18756 0.000181738 -2.8746e-07)
(1.16527 -0.000222091 -9.87655e-08)
(1.15723 9.86372e-05 5.03732e-08)
(1.11415 0.0104238 -7.9881e-09)
(0.842325 0.0557089 -3.04625e-07)
(-0.0238319 0.248241 -4.90167e-07)
(-0.531602 0.405061 1.79618e-07)
(-0.338069 0.325653 2.62106e-07)
(-0.149499 0.274836 8.01787e-08)
(0.0861035 0.269748 6.98074e-08)
(-0.269858 0.266581 7.13212e-08)
(0.00831746 0.261974 4.94306e-08)
(1.80692 -3.64295e-08 9.41429e-09)
(1.82799 -4.9531e-08 1.55273e-08)
(1.82268 -7.00547e-08 1.66597e-08)
(1.8144 -8.36667e-08 2.0811e-08)
(1.80079 -5.14918e-08 2.45748e-08)
(1.77755 9.14347e-08 3.28866e-08)
(1.73716 5.64761e-07 4.45181e-08)
(1.66668 -2.38451e-07 1.03704e-08)
(1.55393 -7.20731e-06 -1.25098e-08)
(1.43392 4.48223e-06 -3.33017e-08)
(1.34364 -5.43064e-05 -3.44975e-08)
(1.27933 5.584e-05 -3.06666e-08)
(1.22744 0.000161284 -1.40122e-07)
(1.1865 0.000170099 1.1733e-07)
(1.16448 -0.000434164 6.59906e-08)
(1.16137 -0.000475574 3.47612e-08)
(1.1382 0.00980405 -1.707e-08)
(0.950196 0.0533795 -8.96348e-08)
(0.193823 0.229498 -3.49464e-07)
(-0.467212 0.485238 5.58503e-08)
(-0.351541 0.412379 2.74144e-07)
(-0.142118 0.34686 1.03581e-07)
(0.119198 0.338209 5.88948e-08)
(-0.266303 0.337785 6.01323e-08)
(0.013343 0.33678 4.64237e-08)
(1.80692 5.02452e-08 3.25529e-08)
(1.828 3.06219e-07 6.43662e-08)
(1.82271 8.01971e-07 6.86445e-08)
(1.81444 2.28926e-06 7.89073e-08)
(1.80085 6.35007e-06 9.72939e-08)
(1.77764 1.65331e-05 9.99748e-08)
(1.73733 1.91731e-05 2.59218e-07)
(1.667 2.60898e-05 2.28868e-07)
(1.55455 3.92574e-05 6.4178e-08)
(1.4348 0.000112583 -1.75161e-07)
(1.34475 1.01674e-05 -3.60161e-07)
(1.28059 8.91544e-05 -4.87997e-07)
(1.22852 8.86216e-05 -4.61027e-07)
(1.18708 9.84313e-05 -2.91637e-07)
(1.16479 -0.000497957 -2.37577e-07)
(1.16604 -0.0007901 -1.79901e-07)
(1.16098 0.00896081 -8.04412e-08)
(1.0427 0.0474443 -9.53494e-09)
(0.442312 0.189557 -1.59811e-07)
(-0.35461 0.533837 -9.06795e-08)
(-0.357456 0.508763 2.89055e-07)
(-0.138599 0.424343 1.1449e-07)
(0.159667 0.41244 6.20494e-08)
(-0.250165 0.416925 5.23532e-08)
(0.020674 0.426529 4.62002e-08)
(1.80691 -1.32071e-06 7.03541e-09)
(1.82798 -2.86846e-06 1.78284e-08)
(1.82268 -4.58901e-06 1.9377e-08)
(1.8144 -6.47398e-06 2.25455e-08)
(1.8008 -8.70809e-06 3.02555e-08)
(1.77756 -1.20324e-05 3.42953e-08)
(1.73722 -1.79159e-05 9.57987e-08)
(1.6669 -2.89458e-05 1.41788e-07)
(1.55451 -3.99601e-05 1.52145e-07)
(1.43481 -3.57982e-05 2.06282e-07)
(1.34485 -3.52856e-05 -1.86316e-08)
(1.28075 -6.00986e-05 -2.94172e-08)
(1.2287 2.99773e-05 -5.32058e-08)
(1.18699 0.000278842 -2.45059e-08)
(1.16448 -0.000120326 -9.97463e-09)
(1.16999 -0.000356853 2.41771e-08)
(1.1803 0.00811486 6.37833e-08)
(1.11308 0.0395723 6.17954e-08)
(0.682771 0.152092 -3.16729e-08)
(-0.169104 0.518743 -1.92141e-07)
(-0.340032 0.61416 2.50863e-07)
(-0.139455 0.510045 1.28867e-07)
(0.200051 0.492693 7.37348e-08)
(-0.205993 0.504317 3.86352e-08)
(0.0333968 0.53984 4.58516e-08)
(1.80692 -6.52689e-10 7.8516e-09)
(1.828 -9.86526e-10 2.78006e-08)
(1.8227 -8.67821e-10 3.095e-08)
(1.81443 7.34073e-09 3.80068e-08)
(1.80084 1.25354e-08 5.36933e-08)
(1.77762 -5.87429e-07 7.61786e-08)
(1.73729 1.10524e-06 1.65183e-07)
(1.66694 -1.60766e-06 2.92845e-07)
(1.55445 -1.1663e-06 4.23695e-07)
(1.43467 -1.14843e-05 6.73627e-07)
(1.34455 -3.95525e-06 5.54987e-07)
(1.28045 -0.000124038 4.03965e-07)
(1.22867 -0.000132551 2.84014e-07)
(1.18684 0.000410335 2.06887e-07)
(1.16421 0.000268611 1.78789e-07)
(1.17304 0.00114867 1.16799e-07)
(1.1954 0.00451391 1.10372e-07)
(1.16525 0.027254 8.65951e-08)
(0.896626 0.11618 2.32942e-08)
(0.0954359 0.434145 -1.78202e-07)
(-0.276056 0.714385 1.82443e-07)
(-0.140992 0.607356 1.46531e-07)
(0.22511 0.578443 8.45121e-08)
(-0.117388 0.596364 4.19065e-08)
(0.05875 0.686122 4.4044e-08)
(1.80691 1.32101e-06 1.91025e-09)
(1.82798 2.86696e-06 1.04168e-08)
(1.82268 4.58774e-06 1.17402e-08)
(1.8144 6.48546e-06 1.45934e-08)
(1.80079 8.74817e-06 2.11783e-08)
(1.77756 1.12381e-05 3.0082e-08)
(1.73722 1.89275e-05 5.32777e-08)
(1.6669 2.77589e-05 1.33317e-07)
(1.5545 3.34964e-05 2.38953e-07)
(1.43481 4.60234e-05 4.22983e-07)
(1.34474 -3.3366e-05 3.52622e-07)
(1.2806 2.9914e-05 3.52436e-07)
(1.22915 -0.000362555 2.77961e-07)
(1.18733 0.000642837 2.4906e-07)
(1.16515 -0.000326144 1.97055e-07)
(1.17337 0.002377 1.62743e-07)
(1.20299 -0.000986844 1.55011e-07)
(1.20603 0.0157903 1.33324e-07)
(1.06274 0.0860986 9.32993e-08)
(0.421875 0.32725 -3.59885e-08)
(-0.14291 0.767012 3.68972e-08)
(-0.135395 0.71175 1.51907e-07)
(0.233359 0.668338 9.65574e-08)
(0.023588 0.709744 5.58892e-08)
(0.112636 0.936245 4.10737e-08)
(1.80692 -6.40516e-09 3.43368e-09)
(1.828 -1.69367e-08 1.60942e-08)
(1.8227 -2.72585e-08 1.77744e-08)
(1.81443 -4.61407e-08 2.05586e-08)
(1.80084 -8.64002e-08 2.92039e-08)
(1.77763 -1.29453e-07 4.65559e-08)
(1.7373 -3.44213e-08 7.47557e-08)
(1.66696 -1.2409e-07 1.46062e-07)
(1.55447 -2.18805e-07 2.39127e-07)
(1.4347 -1.30651e-06 4.02909e-07)
(1.34456 2.20752e-06 3.5918e-07)
(1.28025 -5.24056e-06 2.58471e-07)
(1.22817 -9.6255e-06 5.29725e-08)
(1.18733 -3.38319e-06 2.5747e-07)
(1.16431 6.54382e-05 2.36126e-07)
(1.14354 0.00021477 1.96512e-07)
(1.04133 0.00195326 1.31189e-07)
(0.52236 0.010373 1.09655e-07)
(-0.415243 0.0423338 1.24653e-07)
(-0.596205 0.0427735 8.48039e-10)
(-0.318173 0.0359385 5.17269e-09)
(-0.181079 0.0310821 8.63031e-08)
(0.0302286 0.0292762 -7.76871e-08)
(-0.264579 0.0295113 3.38772e-08)
(0.00357278 0.0287595 -3.42593e-09)
(1.80692 -5.91516e-09 8.16479e-09)
(1.828 -1.65658e-08 2.77092e-08)
(1.8227 -2.69754e-08 3.03788e-08)
(1.81443 -4.64314e-08 3.53564e-08)
(1.80084 -8.85463e-08 4.9051e-08)
(1.77763 -1.11499e-07 6.95507e-08)
(1.7373 -3.16659e-08 1.47826e-07)
(1.66696 -1.65373e-07 2.28385e-07)
(1.55446 2.42859e-07 2.79977e-07)
(1.4347 -3.55915e-06 3.98541e-07)
(1.34456 6.9675e-06 1.96915e-07)
(1.28024 -1.64998e-05 6.93697e-08)
(1.22817 -2.55194e-05 -7.18231e-08)
(1.18739 4.4245e-06 6.39368e-08)
(1.16449 0.000160442 6.57393e-08)
(1.1452 0.000608741 6.67599e-08)
(1.05049 0.00568794 7.79652e-08)
(0.559402 0.0298698 1.50904e-07)
(-0.3827 0.120907 1.63369e-07)
(-0.593477 0.12574 -1.23695e-09)
(-0.316707 0.099973 1.07455e-08)
(-0.176861 0.085293 8.93957e-08)
(0.0352339 0.0833424 -5.43013e-08)
(-0.265197 0.0830567 -8.06793e-09)
(0.00347101 0.0797851 4.94714e-08)
(1.80692 -1.12719e-09 6.83463e-09)
(1.828 -3.01258e-09 1.62275e-08)
(1.8227 -5.41223e-09 1.74947e-08)
(1.81443 -9.85709e-09 2.01663e-08)
(1.80084 -1.85184e-08 2.61534e-08)
(1.77763 3.51721e-08 2.88234e-08)
(1.7373 -5.50422e-08 8.68391e-08)
(1.66696 -1.30495e-07 1.0605e-07)
(1.55446 1.06422e-06 8.38775e-08)
(1.4347 -5.01562e-06 7.60037e-08)
(1.34455 1.00407e-05 -7.83432e-08)
(1.28022 -2.50852e-05 -1.44055e-07)
(1.22818 -2.44769e-05 -1.93723e-07)
(1.18749 4.09189e-05 -3.2142e-08)
(1.16481 0.000148984 -2.39644e-10)
(1.14838 0.000742581 4.19138e-08)
(1.06763 0.00859598 9.64451e-08)
(0.631473 0.0451853 1.61496e-07)
(-0.311728 0.192271 1.84729e-07)
(-0.584919 0.218621 7.79432e-08)
(-0.318638 0.171329 6.59637e-09)
(-0.168933 0.145316 1.48118e-08)
(0.0454617 0.143337 -2.55507e-07)
(-0.266745 0.141701 7.88897e-08)
(0.00389556 0.136617 1.56827e-07)
(1.80692 -9.6113e-10 2.68576e-08)
(1.828 -1.38546e-09 5.08695e-08)
(1.8227 -1.39133e-09 5.38653e-08)
(1.81443 -2.65148e-09 6.13748e-08)
(1.80084 -6.73233e-09 7.259e-08)
(1.77763 7.07229e-08 7.1518e-08)
(1.7373 -9.45748e-08 1.70009e-07)
(1.66696 -5.48142e-08 9.36481e-08)
(1.55446 1.0894e-06 -7.46875e-08)
(1.4347 -4.32625e-06 -3.52277e-07)
(1.34454 8.1242e-06 -3.55498e-07)
(1.28021 -2.4529e-05 -3.74247e-07)
(1.22822 9.14288e-06 -2.45501e-07)
(1.18754 0.000102144 -1.4604e-07)
(1.16508 -2.80265e-06 -1.23542e-07)
(1.15257 0.00052376 -9.53809e-08)
(1.08999 0.0101179 -6.95084e-09)
(0.7327 0.0534711 9.83876e-08)
(-0.191305 0.236517 9.48683e-08)
(-0.567141 0.313274 1.76823e-07)
(-0.325673 0.246158 7.3461e-09)
(-0.159117 0.208175 -8.1592e-08)
(0.0617296 0.205276 -4.65882e-07)
(-0.26896 0.202314 2.32563e-07)
(0.00532022 0.196824 2.10781e-07)
(1.80692 8.77418e-09 4.32568e-09)
(1.828 1.70343e-08 8.37021e-09)
(1.8227 2.76743e-08 9.12532e-09)
(1.81443 4.07391e-08 1.15838e-08)
(1.80084 5.87385e-08 1.50563e-08)
(1.77763 8.61715e-08 2.68494e-08)
(1.7373 -7.8517e-09 2.36305e-08)
(1.66696 3.10872e-07 1.64119e-08)
(1.55446 -1.04439e-07 4.07808e-08)
(1.4347 3.16107e-06 8.00657e-08)
(1.34453 -9.20622e-06 1.57507e-07)
(1.28022 5.07541e-06 8.32177e-08)
(1.22828 9.65912e-05 -1.3155e-07)