/*--------------------------------*- C++ -*----------------------------------*\
| =========                 |                                                 |
| \\      /  F ield         | OpenFOAM: The Open Source CFD Toolbox           |
|  \\    /   O peration     | Version:  4.1                                   |
|   \\  /    A nd           | Web:      www.OpenFOAM.org                      |
|    \\/     M anipulation  |                                                 |
\*---------------------------------------------------------------------------*/
FoamFile
{
    version     2.0;
    format      ascii;
    class       volVectorField;
    location    "5.64";
    object      U;
}
// * * * * * * * * * * * * * * * * * * * * * * * * * * * * * * * * * * * * * //

dimensions      [0 1 -1 0 0 0 0];

internalField   nonuniform List<vector> 
52500
(
(3 1.52412e-08 -0.00571426)
(2.99998 8.47892e-08 -0.0057144)
(2.99996 3.15258e-07 -0.00571461)
(2.99989 8.11902e-07 -0.00571528)
(2.99975 2.23324e-06 -0.00571651)
(2.99934 5.13818e-06 -0.00572023)
(2.99856 1.32451e-05 -0.00572752)
(2.99609 3.02587e-05 -0.00574725)
(2.99181 7.54364e-05 -0.00579576)
(2.97552 0.00017013 -0.00589259)
(2.94683 0.000458726 -0.00626742)
(2.838 0.00106934 -0.00679089)
(2.54177 0.00293071 -0.00935344)
(1.82765 0.007765 -0.0141446)
(0.81632 0.0219666 -0.0177232)
(0.485584 0.0218979 -0.0184984)
(0.551905 0.0231842 -0.0185158)
(0.570029 0.0254353 -0.018562)
(0.519561 0.0275577 -0.0187478)
(0.431584 0.0295307 -0.0189316)
(0.3452 0.0320117 -0.0191317)
(0.274515 0.0350991 -0.0193001)
(0.203892 0.0384402 -0.0194612)
(0.122926 0.042399 -0.0196137)
(0.0541235 0.0481183 -0.0197629)
(3 4.5622e-08 -0.00571426)
(2.99998 2.53166e-07 -0.00571439)
(2.99996 9.4362e-07 -0.0057146)
(2.99989 2.42839e-06 -0.00571526)
(2.99975 6.69945e-06 -0.00571647)
(2.99935 1.5418e-05 -0.00572014)
(2.99858 3.99122e-05 -0.00572733)
(2.99614 9.11997e-05 -0.0057467)
(2.99193 0.000229047 -0.00579469)
(2.97584 0.000515783 -0.00588967)
(2.9476 0.0014086 -0.00626042)
(2.83989 0.00327797 -0.00677331)
(2.54788 0.00917157 -0.00931686)
(1.84173 0.0242838 -0.0140519)
(0.8235 0.0674047 -0.0176164)
(0.481229 0.0637798 -0.0184259)
(0.549795 0.0646939 -0.0184413)
(0.568528 0.0689166 -0.0184801)
(0.517429 0.0726899 -0.0186582)
(0.429181 0.0761035 -0.0188356)
(0.342827 0.0804532 -0.0190276)
(0.271667 0.0855547 -0.0191866)
(0.200155 0.0903311 -0.0193399)
(0.118275 0.0950462 -0.0194775)
(0.0497855 0.100054 -0.0196092)
(3 7.28787e-08 -0.00571425)
(2.99998 4.03282e-07 -0.00571439)
(2.99996 1.50735e-06 -0.00571459)
(2.99989 3.87222e-06 -0.00571523)
(2.99976 1.07274e-05 -0.00571641)
(2.99937 2.46552e-05 -0.00571996)
(2.99863 6.44574e-05 -0.00572695)
(2.99625 0.000146025 -0.00574563)
(2.99217 0.000377657 -0.00579256)
(2.97649 0.000836489 -0.00588385)
(2.94919 0.00237014 -0.00624607)
(2.84396 0.00543201 -0.00673806)
(2.56119 0.0162344 -0.00923969)
(1.87307 0.0422662 -0.0138693)
(0.840539 0.118116 -0.0174588)
(0.474347 0.109371 -0.0183438)
(0.54815 0.109129 -0.0183582)
(0.568913 0.116108 -0.0183876)
(0.517499 0.122888 -0.0185575)
(0.429748 0.129819 -0.0187251)
(0.344358 0.137868 -0.0189085)
(0.273336 0.146741 -0.0190555)
(0.201256 0.155288 -0.0191951)
(0.11848 0.163177 -0.0193321)
(0.0487938 0.169462 -0.0194516)
(3 9.25731e-08 -0.00571425)
(2.99998 5.11419e-07 -0.00571438)
(2.99996 1.91358e-06 -0.00571458)
(2.9999 4.89863e-06 -0.00571519)
(2.99977 1.36115e-05 -0.00571631)
(2.9994 3.10946e-05 -0.00571971)
(2.99868 8.26817e-05 -0.00572641)
(2.99641 0.000181539 -0.00574418)
(2.99251 0.000504294 -0.00578935)
(2.97747 0.00105975 -0.00587589)
(2.95153 0.00325111 -0.00622386)
(2.85052 0.00709212 -0.00668859)
(2.58222 0.024545 -0.00910465)
(1.92265 0.0607302 -0.013579)
(0.869266 0.171133 -0.0172443)
(0.46698 0.155646 -0.0182463)
(0.549214 0.152833 -0.0182588)
(0.57384 0.16231 -0.0182732)
(0.522662 0.172205 -0.0184322)
(0.435922 0.183219 -0.0185878)
(0.351542 0.195348 -0.01876)
(0.280644 0.208479 -0.018905)
(0.207789 0.221446 -0.019038)
(0.123147 0.233236 -0.0191511)
(0.0501939 0.241293 -0.0192829)
(3 1.04155e-07 -0.00571425)
(2.99999 5.74944e-07 -0.00571438)
(2.99996 2.14765e-06 -0.00571456)
(2.9999 5.46732e-06 -0.00571514)
(2.99978 1.51885e-05 -0.00571621)
(2.99943 3.43023e-05 -0.00571943)
(2.99875 9.33689e-05 -0.00572576)
(2.9966 0.000192014 -0.00574273)
(2.9929 0.000607513 -0.00578498)
(2.97874 0.00111281 -0.00586786)
(2.95435 0.0041894 -0.00619263)
(2.86021 0.00837032 -0.00663775)
(2.61154 0.0327119 -0.00886789)
(1.99177 0.0783946 -0.0131507)
(0.913796 0.224269 -0.0169589)
(0.46324 0.202872 -0.0181289)
(0.555362 0.196666 -0.0181412)
(0.584888 0.208099 -0.0181392)
(0.533983 0.220772 -0.0182966)
(0.44842 0.23591 -0.018436)
(0.364884 0.252216 -0.0186001)
(0.293896 0.269971 -0.0187138)
(0.219684 0.288109 -0.0188419)
(0.131921 0.304768 -0.0189627)
(0.0539602 0.315417 -0.0190693)
(3 1.19696e-07 -0.00571425)
(2.99999 6.61394e-07 -0.00571437)
(2.99997 2.46473e-06 -0.00571454)
(2.99991 6.27886e-06 -0.00571509)
(2.99979 1.73842e-05 -0.00571609)
(2.99946 3.9236e-05 -0.00571916)
(2.99882 0.000106748 -0.00572503)
(2.99683 0.00021615 -0.00574164)
(2.99328 0.000711903 -0.00577943)
(2.9804 0.00116573 -0.0058615)
(2.95773 0.00512529 -0.00614702)
(2.8723 0.00959323 -0.0065763)
(2.64866 0.0385918 -0.00855832)
(2.08041 0.0924792 -0.0125869)
(0.976175 0.271794 -0.0165973)
(0.468408 0.251219 -0.0179834)
(0.569195 0.242372 -0.0179958)
(0.603969 0.254576 -0.0179647)
(0.553293 0.269302 -0.018117)
(0.468902 0.288646 -0.0182416)
(0.385715 0.309752 -0.0183918)
(0.314281 0.333016 -0.0185177)
(0.238386 0.357659 -0.0186152)
(0.146085 0.381397 -0.0187079)
(0.0603592 0.397047 -0.0188422)
(3 1.4326e-07 -0.00571425)
(2.99999 7.91802e-07 -0.00571436)
(2.99997 2.95343e-06 -0.00571452)
(2.99992 7.56471e-06 -0.00571503)
(2.99981 2.09299e-05 -0.00571595)
(2.9995 4.77356e-05 -0.0057188)
(2.9989 0.000126975 -0.00572418)
(2.9971 0.000273074 -0.00573998)
(2.9937 0.000800465 -0.00577316)
(2.98236 0.00147815 -0.00585426)
(2.96155 0.00555928 -0.00609308)
(2.88599 0.0105204 -0.00650597)
(2.69061 0.0409427 -0.00820652)
(2.18452 0.0993033 -0.0119098)
(1.05975 0.303069 -0.0161572)
(0.492553 0.299233 -0.017799)
(0.594102 0.292985 -0.0178137)
(0.632461 0.303828 -0.0177736)
(0.58228 0.318951 -0.0179248)
(0.4995 0.341963 -0.0180434)
(0.416334 0.368416 -0.0181545)
(0.344059 0.398514 -0.018245)
(0.266109 0.431736 -0.0183551)
(0.168359 0.465962 -0.0184405)
(0.0717421 0.49173 -0.0185231)
(3 1.57222e-07 -0.00571425)
(2.99999 8.68497e-07 -0.00571435)
(2.99997 3.23308e-06 -0.00571449)
(2.99992 8.28731e-06 -0.00571495)
(2.99983 2.28412e-05 -0.00571579)
(2.99955 5.22089e-05 -0.00571835)
(2.999 0.000136576 -0.00572321)
(2.99739 0.000302797 -0.00573746)
(2.99429 0.000809788 -0.00576704)
(2.98432 0.0017136 -0.00584169)
(2.96543 0.00518777 -0.00604563)
(2.89987 0.0106768 -0.00643469)
(2.73251 0.036893 -0.00786089)
(2.29477 0.0902535 -0.0112163)
(1.16799 0.277209 -0.0156337)
(0.548995 0.333595 -0.0175128)
(0.632984 0.346103 -0.0175172)
(0.668751 0.354996 -0.0175155)
(0.620094 0.369985 -0.017674)
(0.540535 0.396628 -0.0177934)
(0.457972 0.429141 -0.0179172)
(0.385249 0.467327 -0.0179711)
(0.306197 0.511404 -0.0180156)
(0.203491 0.56157 -0.0180577)
(0.0915821 0.608409 -0.0181374)
(3 1.85281e-07 -0.00571425)
(2.99999 1.01613e-06 -0.00571433)
(2.99997 3.78363e-06 -0.00571447)
(2.99993 9.72499e-06 -0.00571487)
(2.99985 2.68116e-05 -0.00571562)
(2.9996 6.18029e-05 -0.00571792)
(2.99911 0.000158982 -0.00572227)
(2.99766 0.000370979 -0.00573511)
(2.99488 0.000873249 -0.00576146)
(2.98597 0.00221216 -0.00582898)
(2.96914 0.00478443 -0.00601015)
(2.91091 0.0121175 -0.00635914)
(2.76377 0.0317433 -0.00763049)
(2.37039 0.0791691 -0.010609)
(1.27365 0.230871 -0.0155019)
(0.597971 0.373863 -0.017364)
(0.652397 0.406367 -0.0173123)
(0.688002 0.405235 -0.0172947)
(0.652095 0.421148 -0.0174368)
(0.583682 0.450675 -0.0175021)
(0.50706 0.490866 -0.0175978)
(0.437437 0.538319 -0.0176384)
(0.36163 0.595742 -0.017643)
(0.26047 0.670739 -0.0176049)
(0.129057 0.762256 -0.0174935)
(3 2.91114e-07 -0.00571425)
(2.99999 5.1234e-07 -0.00571432)
(2.99998 4.23669e-06 -0.00571443)
(2.99994 6.20978e-06 -0.00571477)
(2.99987 2.87026e-05 -0.0057154)
(2.99966 4.00987e-05 -0.00571727)
(2.99926 0.000171647 -0.00572104)
(2.99799 0.000225184 -0.00573072)
(2.99582 0.00103985 -0.00575595)
(2.98756 0.00107464 -0.00580334)
(2.9738 0.00686814 -0.0059914)
(2.92127 0.00485991 -0.00624968)
(2.79181 0.0440885 -0.00749385)
(2.44119 0.0594466 -0.00987204)
(1.41446 0.235673 -0.015037)
(0.685842 0.432571 -0.0170796)
(0.661744 0.457861 -0.0171277)
(0.690987 0.450678 -0.01716)
(0.677458 0.469202 -0.0171992)
(0.625832 0.50105 -0.0172681)
(0.561418 0.549425 -0.0172761)
(0.500256 0.60702 -0.0172531)
(0.437831 0.683889 -0.0171618)
(0.356017 0.801861 -0.0169587)
(0.200433 1.00969 -0.0165425)
(2.99999 1.56381e-08 -2.55772e-09)
(2.99998 8.49199e-08 -8.66136e-09)
(2.99996 3.16209e-07 -1.00726e-08)
(2.99989 8.11172e-07 -1.60589e-08)
(2.99975 2.23559e-06 -1.61112e-08)
(2.99934 5.13854e-06 -2.17377e-08)
(2.99856 1.32475e-05 -2.21e-08)
(2.99609 3.02595e-05 -3.037e-08)
(2.99181 7.54408e-05 -3.25498e-08)
(2.97552 0.000170137 -5.99033e-08)
(2.94682 0.000458738 -7.66298e-08)
(2.83798 0.00106941 -1.74636e-07)
(2.54172 0.00293077 -2.07828e-07)
(1.82754 0.0077653 -6.8377e-07)
(0.816282 0.0219663 -7.16695e-07)
(0.48563 0.0218981 9.35697e-08)
(0.551925 0.0231844 -1.66045e-09)
(0.570039 0.0254356 -6.12054e-08)
(0.519571 0.027558 -5.94388e-08)
(0.431596 0.0295311 -5.17793e-08)
(0.345211 0.0320122 -4.90331e-08)
(0.274525 0.0350996 -5.25178e-08)
(0.2039 0.0384409 -5.52182e-08)
(0.122933 0.0424002 -5.76457e-08)
(0.0541272 0.0481209 -6.13873e-08)
(3 4.6747e-08 -2.54978e-09)
(2.99998 2.53714e-07 -8.6657e-09)
(2.99996 9.4623e-07 -1.00581e-08)
(2.99989 2.42645e-06 -1.60906e-08)
(2.99975 6.7061e-06 -1.60582e-08)
(2.99935 1.54192e-05 -2.17679e-08)
(2.99858 3.99195e-05 -2.2068e-08)
(2.99614 9.1203e-05 -3.0398e-08)
(2.99193 0.000229064 -3.24905e-08)
(2.97583 0.000515809 -5.98645e-08)
(2.94759 0.00140865 -7.65846e-08)
(2.83987 0.00327821 -1.73715e-07)
(2.54783 0.00917178 -2.08142e-07)
(1.84162 0.0242848 -6.82864e-07)
(0.823461 0.067404 -7.22421e-07)
(0.481275 0.0637804 9.56726e-08)
(0.549815 0.0646946 -1.82979e-09)
(0.568537 0.0689172 -6.12721e-08)
(0.517439 0.0726906 -5.91977e-08)
(0.429192 0.0761044 -5.12495e-08)
(0.342838 0.0804544 -4.84609e-08)
(0.271676 0.0855563 -5.17133e-08)
(0.200162 0.0903332 -5.43391e-08)
(0.11828 0.0950494 -5.65104e-08)
(0.0497881 0.100059 -6.00569e-08)
(3 7.45596e-08 -2.53524e-09)
(2.99998 4.04478e-07 -8.6702e-09)
(2.99996 1.51054e-06 -1.0036e-08)
(2.99989 3.8713e-06 -1.6145e-08)
(2.99976 1.07358e-05 -1.59632e-08)
(2.99937 2.46595e-05 -2.182e-08)
(2.99862 6.44709e-05 -2.20025e-08)
(2.99625 0.000146046 -3.04391e-08)
(2.99217 0.000377696 -3.23293e-08)
(2.97648 0.000836605 -5.9724e-08)
(2.94918 0.0023703 -7.63772e-08)
(2.84394 0.00543273 -1.71654e-07)
(2.56114 0.0162342 -2.08765e-07)
(1.87295 0.0422679 -6.81185e-07)
(0.8405 0.118115 -7.38743e-07)
(0.474393 0.109372 1.00202e-07)
(0.548169 0.10913 -1.87335e-09)
(0.56892 0.116109 -6.2066e-08)
(0.517508 0.122889 -5.94325e-08)
(0.429758 0.129821 -5.07671e-08)
(0.344367 0.137871 -4.79676e-08)
(0.273343 0.146743 -5.03837e-08)
(0.201262 0.155291 -5.25493e-08)
(0.118483 0.163182 -5.41453e-08)
(0.0487955 0.169469 -5.68555e-08)
(3 9.44637e-08 -2.51605e-09)
(2.99998 5.13306e-07 -8.67138e-09)
(2.99996 1.91511e-06 -1.0022e-08)
(2.9999 4.90466e-06 -1.6171e-08)
(2.99977 1.36147e-05 -1.58921e-08)
(2.9994 3.11075e-05 -2.18218e-08)
(2.99868 8.2703e-05 -2.19049e-08)
(2.9964 0.000181607 -3.0232e-08)
(2.99251 0.000504382 -3.21828e-08)
(2.97747 0.00106009 -5.82988e-08)
(2.95152 0.00325161 -7.60656e-08)
(2.8505 0.00709353 -1.63341e-07)
(2.58217 0.0245457 -2.24857e-07)
(1.92253 0.060734 -6.71299e-07)
(0.869222 0.171132 -7.69402e-07)
(0.467019 0.155645 1.05825e-07)
(0.549227 0.152833 5.94374e-10)
(0.573843 0.162311 -6.22847e-08)
(0.522666 0.172207 -5.95811e-08)
(0.435927 0.183222 -4.98705e-08)
(0.351547 0.195351 -4.61997e-08)
(0.280647 0.208483 -4.81384e-08)
(0.207792 0.22145 -4.93774e-08)
(0.123149 0.233242 -5.00867e-08)
(0.0501948 0.241301 -5.17511e-08)
(3 1.05643e-07 -2.49731e-09)
(2.99998 5.77642e-07 -8.66562e-09)
(2.99996 2.14524e-06 -1.00443e-08)
(2.9999 5.47774e-06 -1.60614e-08)
(2.99978 1.5175e-05 -1.60027e-08)
(2.99943 3.42983e-05 -2.16451e-08)
(2.99875 9.33369e-05 -2.18217e-08)
(2.9966 0.00019188 -2.95385e-08)
(2.9929 0.000607528 -3.19174e-08)
(2.97874 0.00111142 -5.50735e-08)
(2.95434 0.00419173 -7.31976e-08)
(2.86019 0.00836902 -1.55288e-07)
(2.61149 0.0327194 -2.21644e-07)
(1.99166 0.0784067 -6.56048e-07)
(0.913743 0.224282 -8.18204e-07)
(0.463264 0.202874 1.00159e-07)
(0.555365 0.196664 -2.4177e-09)
(0.584884 0.208099 -6.18359e-08)
(0.533981 0.220774 -5.91258e-08)
(0.44842 0.235913 -4.9811e-08)
(0.364885 0.25222 -4.36671e-08)
(0.293896 0.269976 -4.61336e-08)
(0.219684 0.288114 -4.59472e-08)
(0.131921 0.304774 -4.60538e-08)
(0.0539603 0.315426 -4.65188e-08)
(3 1.2134e-07 -2.48615e-09)
(2.99999 6.65027e-07 -8.64363e-09)
(2.99996 2.46531e-06 -1.01189e-08)
(2.99991 6.29153e-06 -1.59319e-08)
(2.99979 1.73914e-05 -1.63102e-08)
(2.99946 3.92711e-05 -2.17115e-08)
(2.99881 0.000106811 -2.2415e-08)
(2.99683 0.000216325 -3.22998e-08)
(2.99327 0.000712185 -2.95713e-08)
(2.9804 0.0011662 -8.52122e-08)
(2.95772 0.00512734 -1.20995e-08)
(2.87229 0.00959511 -2.2079e-07)
(2.64863 0.0385975 -1.0875e-07)
(2.08032 0.0924926 -6.06892e-07)
(0.976146 0.271814 -8.03265e-07)
(0.468444 0.251221 5.51827e-08)
(0.569208 0.242368 -2.57613e-08)
(0.603973 0.254575 -6.39431e-08)
(0.553297 0.269304 -5.83034e-08)
(0.468905 0.28865 -4.78001e-08)
(0.385717 0.309756 -4.66399e-08)
(0.314282 0.333021 -4.57704e-08)
(0.238386 0.357665 -4.46141e-08)
(0.146084 0.381403 -4.31316e-08)
(0.060359 0.397056 -4.2583e-08)
(3 1.45892e-07 -2.46444e-09)
(2.99999 7.94838e-07 -8.6218e-09)
(2.99997 2.95841e-06 -1.00994e-08)
(2.99991 7.57554e-06 -1.58348e-08)
(2.99981 2.09558e-05 -1.60743e-08)
(2.9995 4.77961e-05 -2.11339e-08)
(2.9989 0.000127113 -2.12252e-08)
(2.9971 0.000273498 -2.73711e-08)
(2.99369 0.000800914 -2.96615e-08)
(2.98236 0.00148091 -5.15259e-08)
(2.96154 0.00555975 -4.35772e-08)
(2.88597 0.0105269 -1.55081e-07)
(2.69058 0.0409462 -1.5345e-07)
(2.18443 0.0993201 -5.44437e-07)
(1.0597 0.303117 -8.10162e-07)
(0.492561 0.299239 -5.36596e-09)
(0.594109 0.29298 -4.74429e-08)
(0.632467 0.303829 -5.63364e-08)
(0.582286 0.318956 -5.11593e-08)
(0.499505 0.341969 -4.59725e-08)
(0.416337 0.36842 -4.61907e-08)
(0.344061 0.398518 -4.40158e-08)
(0.26611 0.43174 -4.19379e-08)
(0.16836 0.465968 -4.01252e-08)
(0.0717422 0.491739 -3.93372e-08)
(3 1.59883e-07 -2.43358e-09)
(2.99999 8.70554e-07 -8.6282e-09)
(2.99997 3.23608e-06 -1.00832e-08)
(2.99992 8.29212e-06 -1.58173e-08)
(2.99983 2.28506e-05 -1.60062e-08)
(2.99955 5.2227e-05 -2.10148e-08)
(2.999 0.000136619 -2.08575e-08)
(2.99739 0.00030289 -2.66284e-08)
(2.99428 0.000809969 -2.85513e-08)
(2.98432 0.00171438 -4.10335e-08)
(2.96543 0.00518844 -4.81605e-08)
(2.89986 0.0106798 -1.16659e-07)
(2.73248 0.0368984 -1.31744e-07)
(2.29471 0.0902707 -4.11898e-07)
(1.16795 0.277263 -5.14976e-07)
(0.54899 0.333597 -1.86388e-07)
(0.632999 0.34609 -9.95591e-08)
(0.668769 0.354997 -3.27419e-08)
(0.620106 0.369994 -3.536e-08)
(0.540543 0.396634 -4.77434e-08)
(0.457978 0.429146 -4.87967e-08)
(0.385254 0.467333 -4.51916e-08)
(0.306201 0.511409 -4.35301e-08)
(0.203493 0.561577 -3.91211e-08)
(0.091583 0.608419 -3.77585e-08)
(3 1.85521e-07 -2.41109e-09)
(2.99999 1.01576e-06 -8.62551e-09)
(2.99997 3.77841e-06 -1.00858e-08)
(2.99993 9.70188e-06 -1.58e-08)
(2.99984 2.67924e-05 -1.59823e-08)
(2.9996 6.17503e-05 -2.0955e-08)
(2.99911 0.000158913 -2.07306e-08)
(2.99766 0.000370826 -2.63337e-08)
(2.99487 0.000873112 -2.78856e-08)
(2.98597 0.00221163 -3.97947e-08)
(2.96914 0.00478379 -4.3689e-08)
(2.9109 0.0121169 -1.14425e-07)
(2.76375 0.0317448 -1.05725e-07)
(2.37034 0.0791737 -3.54001e-07)
(1.27359 0.230892 -5.04596e-07)
(0.597944 0.373856 -3.57497e-07)
(0.652418 0.406365 -1.78244e-07)
(0.688038 0.405239 2.54679e-08)
(0.652114 0.421155 -7.56826e-09)
(0.583692 0.450683 -5.44419e-08)
(0.50707 0.490873 -4.88904e-08)
(0.437446 0.538326 -4.24693e-08)
(0.361637 0.595749 -3.99744e-08)
(0.260476 0.670747 -3.55412e-08)
(0.129059 0.762267 -3.44576e-08)
(3 2.76824e-07 -2.42882e-09)
(2.99999 5.66751e-07 -8.63793e-09)
(2.99998 4.12769e-06 -1.01767e-08)
(2.99994 6.24582e-06 -1.6171e-08)
(2.99987 2.85689e-05 -1.59777e-08)
(2.99966 4.01323e-05 -2.16221e-08)
(2.99926 0.00017151 -2.12339e-08)
(2.99799 0.000225223 -2.83007e-08)
(2.99582 0.00103967 -2.80548e-08)
(2.98755 0.00107487 -5.28017e-08)
(2.9738 0.00686748 -4.17302e-08)
(2.92127 0.00486132 -9.59584e-08)
(2.79178 0.0440863 -7.1166e-08)
(2.44114 0.0594549 -3.71885e-07)
(1.41439 0.235683 -4.65378e-07)
(0.685801 0.432568 -4.24986e-07)
(0.661763 0.457875 -3.92359e-08)
(0.691014 0.450687 7.97397e-09)
(0.677478 0.469208 -2.40572e-08)
(0.625845 0.501058 -4.27505e-08)
(0.56143 0.549433 -4.45108e-08)
(0.500267 0.607028 -4.26311e-08)
(0.43784 0.683897 -3.91672e-08)
(0.356025 0.80187 -3.52088e-08)
(0.200438 1.00971 -3.07721e-08)
(2.99999 1.56381e-08 -3.90789e-13)
(2.99998 8.49199e-08 -2.07588e-12)
(2.99996 3.16209e-07 -4.5625e-12)
(2.99989 8.11171e-07 -9.67176e-12)
(2.99975 2.23558e-06 -1.77838e-11)
(2.99934 5.13853e-06 -3.37222e-11)
(2.99856 1.32474e-05 -6.93972e-11)
(2.99609 3.02594e-05 -1.35996e-10)
(2.99181 7.54406e-05 -3.14909e-10)
(2.97552 0.000170136 -6.39949e-10)
(2.94682 0.000458736 -1.71883e-09)
(2.83798 0.0010694 -3.71534e-09)
(2.54172 0.00293076 -8.34173e-09)
(1.82754 0.00776526 -2.29153e-08)
(0.81628 0.0219662 -2.93842e-08)
(0.485632 0.021898 3.39306e-09)
(0.551926 0.0231844 -3.47917e-10)
(0.570039 0.0254355 -2.32404e-09)
(0.519572 0.0275579 -2.11876e-09)
(0.431597 0.0295311 -1.79705e-09)
(0.345212 0.0320121 -2.29994e-09)
(0.274526 0.0350995 -2.99288e-09)
(0.203901 0.0384408 -3.5437e-09)
(0.122933 0.0424003 -4.06477e-09)
(0.0541279 0.0481213 -4.84669e-09)
(3 4.6747e-08 -3.90899e-13)
(2.99998 2.53714e-07 -2.07514e-12)
(2.99996 9.4623e-07 -4.56429e-12)
(2.99989 2.42645e-06 -9.67732e-12)
(2.99975 6.70609e-06 -1.78154e-11)
(2.99935 1.54192e-05 -3.37928e-11)
(2.99858 3.99194e-05 -6.97045e-11)
(2.99614 9.12027e-05 -1.3668e-10)
(2.99193 0.000229063 -3.17376e-10)
(2.97583 0.000515807 -6.44511e-10)
(2.94759 0.00140864 -1.74142e-09)
(2.83987 0.00327819 -3.74942e-09)
(2.54783 0.00917173 -8.50647e-09)
(1.84161 0.0242847 -2.32977e-08)
(0.823459 0.0674036 -3.00382e-08)
(0.481277 0.0637802 3.58701e-09)
(0.549816 0.0646945 -3.05843e-10)
(0.568537 0.0689171 -2.27327e-09)
(0.51744 0.0726905 -2.04867e-09)
(0.429193 0.0761044 -1.72027e-09)
(0.342839 0.0804543 -2.24927e-09)
(0.271677 0.0855563 -2.9227e-09)
(0.200163 0.0903333 -3.48268e-09)
(0.11828 0.0950496 -3.97355e-09)
(0.0497885 0.10006 -4.70408e-09)
(3 7.45603e-08 -3.90614e-13)
(2.99998 4.04482e-07 -2.0704e-12)
(2.99996 1.51055e-06 -4.56152e-12)
(2.99989 3.87133e-06 -9.67454e-12)
(2.99976 1.07359e-05 -1.78683e-11)
(2.99937 2.46597e-05 -3.39519e-11)
(2.99862 6.44714e-05 -7.03528e-11)
(2.99625 0.000146048 -1.39198e-10)
(2.99217 0.000377697 -3.21521e-10)
(2.97648 0.000836613 -6.61822e-10)
(2.94918 0.00237029 -1.79274e-09)
(2.84394 0.00543276 -3.85682e-09)
(2.56114 0.016234 -8.81662e-09)
(1.87295 0.0422677 -2.40812e-08)
(0.840498 0.118114 -3.15325e-08)
(0.474395 0.109372 4.12904e-09)
(0.54817 0.10913 -1.36067e-10)
(0.568921 0.116109 -2.20868e-09)
(0.517509 0.122889 -1.97784e-09)
(0.429759 0.129821 -1.64908e-09)
(0.344368 0.137871 -2.22131e-09)
(0.273344 0.146743 -2.80068e-09)
(0.201263 0.155291 -3.3076e-09)
(0.118484 0.163183 -3.71158e-09)
(0.0487957 0.169471 -4.24923e-09)
(3 9.44645e-08 -3.77257e-13)
(2.99998 5.13311e-07 -2.01223e-12)
(2.99996 1.91513e-06 -4.36316e-12)
(2.9999 4.90471e-06 -9.2452e-12)
(2.99977 1.36148e-05 -1.66042e-11)
(2.9994 3.11078e-05 -3.10007e-11)
(2.99868 8.27036e-05 -6.46464e-11)
(2.9964 0.000181608 -1.14002e-10)
(2.99251 0.000504383 -3.26516e-10)
(2.97747 0.00106009 -5.21756e-10)
(2.95152 0.00325161 -1.87971e-09)
(2.8505 0.00709356 -3.20663e-09)
(2.58217 0.0245455 -1.19315e-08)
(1.92253 0.0607337 -2.48293e-08)
(0.869219 0.171131 -3.52046e-08)
(0.46702 0.155645 4.99437e-09)
(0.549228 0.152833 4.49769e-10)
(0.573843 0.162311 -2.0238e-09)
(0.522667 0.172207 -1.84685e-09)
(0.435928 0.183222 -1.49924e-09)
(0.351548 0.195351 -1.98764e-09)
(0.280648 0.208483 -2.51308e-09)
(0.207792 0.221451 -2.92224e-09)
(0.123149 0.233242 -3.22018e-09)
(0.0501949 0.241303 -3.56579e-09)
(3 1.05644e-07 -3.74776e-13)
(2.99998 5.77646e-07 -2.0005e-12)
(2.99996 2.14526e-06 -4.33729e-12)
(2.9999 5.47779e-06 -9.17893e-12)
(2.99978 1.51752e-05 -1.65425e-11)
(2.99943 3.42986e-05 -3.09228e-11)
(2.99875 9.33376e-05 -6.49048e-11)
(2.9966 0.000191883 -1.16138e-10)
(2.9929 0.00060753 -3.30665e-10)
(2.97874 0.00111144 -5.41348e-10)
(2.95434 0.00419172 -1.95249e-09)
(2.86019 0.00836904 -3.32282e-09)
(2.61149 0.0327193 -1.24888e-08)
(1.99165 0.0784066 -2.61313e-08)
(0.91374 0.224281 -3.93553e-08)
(0.463265 0.202874 5.74088e-09)
(0.555366 0.196664 8.89083e-10)
(0.584883 0.208098 -1.89395e-09)
(0.533981 0.220774 -1.78421e-09)
(0.448421 0.235913 -1.55404e-09)
(0.364885 0.25222 -1.64928e-09)
(0.293896 0.269976 -2.19246e-09)
(0.219684 0.288114 -2.4438e-09)
(0.131921 0.304775 -2.6557e-09)
(0.0539603 0.315427 -2.83611e-09)
(3 1.21341e-07 -3.57969e-13)
(2.99999 6.65029e-07 -1.94658e-12)
(2.99996 2.46532e-06 -4.13473e-12)
(2.99991 6.29155e-06 -8.53433e-12)
(2.99979 1.73914e-05 -1.52216e-11)
(2.99946 3.92712e-05 -2.72025e-11)
(2.99881 0.000106811 -5.7402e-11)
(2.99683 0.000216325 -8.21755e-11)
(2.99327 0.000712187 -3.42001e-10)
(2.9804 0.00116621 -2.44194e-10)
(2.95772 0.00512734 -2.44315e-09)
(2.87229 0.00959514 -2.66037e-09)
(2.64863 0.0385976 -1.3351e-08)
(2.08031 0.0924927 -2.66401e-08)
(0.976142 0.271814 -4.36481e-08)
(0.468444 0.25122 4.79864e-09)
(0.569208 0.242367 1.0796e-09)
(0.603972 0.254574 -1.59634e-09)
(0.553297 0.269303 -1.51123e-09)
(0.468905 0.28865 -1.41265e-09)
(0.385716 0.309756 -1.73249e-09)
(0.314282 0.333021 -1.85667e-09)
(0.238386 0.357665 -1.98096e-09)
(0.146084 0.381404 -2.05708e-09)
(0.060359 0.397057 -2.08651e-09)
(3 1.45892e-07 -3.67304e-13)
(2.99999 7.9484e-07 -1.97694e-12)
(2.99997 2.95841e-06 -4.27447e-12)
(2.99991 7.57554e-06 -8.87725e-12)
(2.99981 2.09559e-05 -1.62623e-11)
(2.9995 4.77961e-05 -3.0045e-11)
(2.9989 0.000127113 -6.18255e-11)
(2.9971 0.000273497 -1.15854e-10)
(2.99369 0.000800919 -3.09027e-10)
(2.98236 0.0014809 -4.77024e-10)
(2.96154 0.0055598 -2.02185e-09)
(2.88597 0.010527 -2.89038e-09)
(2.69058 0.0409466 -1.2205e-08)
(2.18442 0.099321 -2.59007e-08)
(1.0597 0.30312 -4.74974e-08)
(0.492559 0.299239 1.39704e-09)
(0.594108 0.292979 2.76856e-11)
(0.632466 0.303828 -1.16967e-09)
(0.582285 0.318955 -1.16026e-09)
(0.499504 0.341968 -1.41546e-09)
(0.416337 0.36842 -1.54838e-09)
(0.344061 0.398518 -1.5508e-09)
(0.26611 0.431741 -1.53687e-09)
(0.168359 0.465969 -1.46922e-09)
(0.071742 0.49174 -1.34788e-09)
(3 1.59884e-07 -3.55667e-13)
(2.99999 8.70558e-07 -1.92498e-12)
(2.99997 3.23609e-06 -4.09947e-12)
(2.99992 8.29217e-06 -8.49602e-12)
(2.99983 2.28507e-05 -1.50728e-11)
(2.99955 5.22273e-05 -2.75465e-11)
(2.999 0.000136619 -5.38854e-11)
(2.99739 0.000302892 -9.97114e-11)
(2.99428 0.000809975 -2.44851e-10)
(2.98432 0.00171439 -4.32541e-10)
(2.96542 0.0051885 -1.51228e-09)
(2.89986 0.0106799 -2.00467e-09)
(2.73248 0.0368989 -9.06432e-09)
(2.29471 0.0902719 -1.87775e-08)
(1.16794 0.277267 -3.02545e-08)
(0.548989 0.333597 -9.73483e-09)
(0.632998 0.346088 -3.502e-09)
(0.668769 0.354997 -1.07781e-10)
(0.620106 0.369994 -5.68024e-10)
(0.540542 0.396634 -1.86465e-09)
(0.457977 0.429146 -1.81666e-09)
(0.385253 0.467333 -1.4927e-09)
(0.306201 0.51141 -1.35245e-09)
(0.203493 0.561578 -1.06159e-09)
(0.0915827 0.60842 -7.04097e-10)
(3 1.8552e-07 -3.51728e-13)
(2.99999 1.01575e-06 -1.90501e-12)
(2.99997 3.77841e-06 -4.04332e-12)
(2.99993 9.70186e-06 -8.37089e-12)
(2.99984 2.67923e-05 -1.47335e-11)
(2.9996 6.17502e-05 -2.68514e-11)
(2.99911 0.000158913 -5.19033e-11)
(2.99766 0.000370825 -9.63285e-11)
(2.99487 0.000873111 -2.28644e-10)
(2.98597 0.00221162 -4.31434e-10)
(2.96914 0.0047838 -1.23142e-09)
(2.9109 0.0121168 -2.3318e-09)
(2.76375 0.031745 -7.09016e-09)
(2.37033 0.0791741 -1.56018e-08)
(1.27359 0.230894 -3.0026e-08)
(0.597941 0.373855 -2.06847e-08)
(0.652418 0.406364 -9.47936e-09)
(0.688039 0.405238 3.13324e-09)
(0.652114 0.421155 7.61579e-10)
(0.583691 0.450682 -2.60307e-09)
(0.507069 0.490872 -2.12016e-09)
(0.437445 0.538326 -1.5166e-09)
(0.361636 0.595749 -1.28073e-09)
(0.260475 0.670748 -8.04609e-10)
(0.129059 0.762268 -2.53331e-10)
(3 2.76822e-07 -3.65476e-13)
(2.99999 5.66761e-07 -1.94266e-12)
(2.99998 4.12769e-06 -4.1848e-12)
(2.99994 6.24587e-06 -8.83781e-12)
(2.99987 2.8569e-05 -1.55278e-11)
(2.99966 4.01325e-05 -2.92051e-11)
(2.99926 0.000171511 -5.68772e-11)
(2.99799 0.000225223 -1.14957e-10)
(2.99582 0.00103967 -2.38723e-10)
(2.98755 0.00107488 -6.13929e-10)
(2.9738 0.00686751 -1.10133e-09)
(2.92127 0.00486134 -3.23771e-09)
(2.79178 0.0440865 -6.07103e-09)
(2.44114 0.0594552 -1.53692e-08)
(1.41438 0.235684 -2.88412e-08)
(0.685797 0.432568 -2.55723e-08)
(0.661763 0.457876 -1.44149e-09)
(0.691015 0.450687 1.49993e-09)
(0.677478 0.469208 -7.76749e-10)
(0.625845 0.501058 -2.04015e-09)
(0.56143 0.549433 -2.07648e-09)
(0.500267 0.607028 -1.84106e-09)
(0.43784 0.683897 -1.44067e-09)
(0.356024 0.80187 -9.21849e-10)
(0.200437 1.00971 -3.00321e-10)
(2.99999 1.56381e-08 -3.82431e-14)
(2.99998 8.49199e-08 -1.70827e-13)
(2.99996 3.16209e-07 -5.57294e-13)
(2.99989 8.11172e-07 -1.20462e-12)
(2.99975 2.23558e-06 -3.34664e-12)
(2.99934 5.13853e-06 -6.88582e-12)
(2.99856 1.32474e-05 -1.84729e-11)
(2.99609 3.02594e-05 -3.90567e-11)
(2.99181 7.54406e-05 -9.87345e-11)
(2.97552 0.000170136 -2.09543e-10)
(2.94682 0.000458736 -5.73268e-10)
(2.83798 0.0010694 -1.25824e-09)
(2.54172 0.00293076 -2.77196e-09)
(1.82754 0.00776526 -7.67111e-09)
(0.81628 0.0219662 -9.71744e-09)
(0.485632 0.0218981 1.52233e-09)
(0.551926 0.0231844 1.97127e-10)
(0.570039 0.0254355 -4.4082e-10)
(0.519572 0.0275579 -3.50072e-10)
(0.431597 0.0295311 -2.3618e-10)
(0.345212 0.0320121 -4.90724e-10)
(0.274526 0.0350995 -7.98778e-10)
(0.203901 0.0384408 -1.01319e-09)
(0.122933 0.0424003 -1.20874e-09)
(0.0541279 0.0481213 -1.41604e-09)
(3 4.6747e-08 -3.84702e-14)
(2.99998 2.53714e-07 -1.71776e-13)
(2.99996 9.46231e-07 -5.60791e-13)
(2.99989 2.42645e-06 -1.21194e-12)
(2.99975 6.70609e-06 -3.37293e-12)
(2.99935 1.54192e-05 -6.94055e-12)
(2.99858 3.99194e-05 -1.86591e-11)
(2.99614 9.12027e-05 -3.94767e-11)
(2.99193 0.000229063 -1.00006e-10)
(2.97583 0.000515808 -2.1213e-10)
(2.94759 0.00140864 -5.8357e-10)
(2.83987 0.00327819 -1.27594e-09)
(2.54783 0.00917173 -2.83896e-09)
(1.84161 0.0242847 -7.83364e-09)
(0.823459 0.0674036 -9.97172e-09)
(0.481277 0.0637802 1.5942e-09)
(0.549816 0.0646945 2.11497e-10)
(0.568537 0.0689171 -4.20243e-10)
(0.51744 0.0726906 -3.20727e-10)
(0.429193 0.0761044 -2.03712e-10)
(0.342839 0.0804543 -4.68885e-10)
(0.271677 0.0855563 -7.70908e-10)
(0.200163 0.0903332 -9.86035e-10)
(0.11828 0.0950496 -1.17778e-09)
(0.0497885 0.10006 -1.37762e-09)
(3 7.45603e-08 -3.87284e-14)
(2.99998 4.04482e-07 -1.72506e-13)
(2.99996 1.51055e-06 -5.65601e-13)
(2.99989 3.87133e-06 -1.22193e-12)
(2.99976 1.07359e-05 -3.42388e-12)
(2.99937 2.46597e-05 -7.0613e-12)
(2.99862 6.44714e-05 -1.90575e-11)
(2.99625 0.000146048 -4.07809e-11)
(2.99217 0.000377697 -1.0231e-10)
(2.97648 0.000836613 -2.20516e-10)
(2.94918 0.00237029 -6.06742e-10)
(2.84394 0.00543276 -1.32642e-09)
(2.56114 0.016234 -2.96706e-09)
(1.87295 0.0422677 -8.16976e-09)
(0.840498 0.118114 -1.05497e-08)
(0.474395 0.109372 1.79797e-09)
(0.54817 0.10913 2.73035e-10)
(0.568921 0.116109 -3.96513e-10)
(0.517509 0.122889 -2.93137e-10)
(0.429759 0.129821 -1.75952e-10)
(0.344368 0.137871 -4.49117e-10)
(0.273344 0.146743 -7.12942e-10)
(0.201263 0.155291 -9.00503e-10)
(0.118483 0.163183 -1.06434e-09)
(0.0487957 0.16947 -1.23235e-09)
(3 9.44645e-08 -3.42057e-14)
(2.99998 5.13311e-07 -1.53528e-13)
(2.99996 1.91513e-06 -4.98611e-13)
(2.9999 4.90471e-06 -1.0759e-12)
(2.99977 1.36148e-05 -2.99513e-12)
(2.9994 3.11078e-05 -6.04917e-12)
(2.99868 8.27036e-05 -1.71807e-11)
(2.9964 0.000181608 -3.19979e-11)
(2.99251 0.000504383 -1.05475e-10)
(2.97747 0.00106009 -1.72108e-10)
(2.95152 0.00325161 -6.46504e-10)
(2.8505 0.00709356 -1.11019e-09)
(2.58217 0.0245455 -4.12559e-09)
(1.92253 0.0607338 -8.54396e-09)
(0.869219 0.171131 -1.19852e-08)
(0.46702 0.155645 2.12313e-09)
(0.549228 0.152833 4.9864e-10)
(0.573843 0.162311 -3.28504e-10)
(0.522667 0.172207 -2.45983e-10)
(0.435928 0.183222 -1.19259e-10)
(0.351548 0.195351 -3.4713e-10)
(0.280648 0.208483 -5.75441e-10)
(0.207792 0.221451 -7.2912e-10)
(0.123149 0.233242 -8.52799e-10)
(0.0501949 0.241303 -9.79045e-10)
(3 1.05644e-07 -3.39753e-14)
(2.99998 5.77646e-07 -1.51845e-13)
(2.99996 2.14526e-06 -4.96944e-13)
(2.9999 5.47779e-06 -1.07158e-12)
(2.99978 1.51752e-05 -3.02055e-12)
(2.99943 3.42986e-05 -6.1193e-12)
(2.99875 9.33376e-05 -1.75574e-11)
(2.9966 0.000191883 -3.32464e-11)
(2.9929 0.00060753 -1.08727e-10)
(2.97874 0.00111144 -1.81645e-10)
(2.95434 0.00419172 -6.82721e-10)
(2.86019 0.00836904 -1.16862e-09)
(2.61149 0.0327193 -4.39153e-09)
(1.99165 0.0784066 -9.1413e-09)
(0.91374 0.224281 -1.36387e-08)
(0.463265 0.202874 2.41453e-09)
(0.555366 0.196664 6.77727e-10)
(0.584883 0.208098 -2.81578e-10)
(0.533981 0.220774 -2.25358e-10)
(0.448421 0.235913 -1.46614e-10)
(0.364885 0.25222 -2.01019e-10)
(0.293896 0.269976 -4.26007e-10)
(0.219684 0.288114 -5.20819e-10)
(0.131921 0.304775 -6.0336e-10)
(0.0539603 0.315427 -6.86109e-10)
(3 1.21341e-07 -2.92843e-14)
(2.99999 6.65029e-07 -1.33291e-13)
(2.99996 2.46532e-06 -4.28285e-13)
(2.99991 6.29155e-06 -9.13707e-13)
(2.99979 1.73914e-05 -2.55831e-12)
(2.99946 3.92712e-05 -5.02621e-12)
(2.99881 0.000106811 -1.52939e-11)
(2.99683 0.000216325 -2.25446e-11)