/*--------------------------------*- C++ -*----------------------------------*\
| =========                 |                                                 |
| \\      /  F ield         | OpenFOAM: The Open Source CFD Toolbox           |
|  \\    /   O peration     | Version:  4.1                                   |
|   \\  /    A nd           | Web:      www.OpenFOAM.org                      |
|    \\/     M anipulation  |                                                 |
\*---------------------------------------------------------------------------*/
FoamFile
{
    version     2.0;
    format      ascii;
    class       volScalarField;
    location    "9.28";
    object      p;
}
// * * * * * * * * * * * * * * * * * * * * * * * * * * * * * * * * * * * * * //

dimensions      [1 -1 -2 0 0 0 0];

internalField   nonuniform List<scalar> 
52500
(
1.00001
1.00004
1.00013
1.00029
1.00084
1.00172
1.00489
1.00978
1.02921
1.05452
1.18663
1.35275
2.27793
4.1342
10.0297
11.4074
11.244
11.1648
11.246
11.4648
11.7001
11.8532
11.9704
12.0641
12.1377
1.00001
1.00004
1.00013
1.00029
1.00083
1.0017
1.00484
1.00969
1.02892
1.05401
1.18479
1.34868
2.26576
4.09815
9.94993
11.4004
11.2358
11.1529
11.2348
11.4545
11.6895
11.8427
11.9617
12.0569
12.1322
1.00001
1.00004
1.00013
1.00028
1.00081
1.00167
1.00474
1.00948
1.02832
1.05278
1.18131
1.33982
2.24044
4.02491
9.77373
11.3835
11.214
11.1195
11.2001
11.4174
11.6492
11.7996
11.9175
12.0115
12.086
1.00001
1.00004
1.00012
1.00027
1.00079
1.00161
1.00459
1.00916
1.02742
1.05092
1.176
1.32649
2.20181
3.91406
9.49935
11.3618
11.1816
11.0651
11.1423
11.3531
11.5787
11.7234
11.8374
11.9282
12.0022
1.00001
1.00003
1.00012
1.00026
1.00075
1.00153
1.00437
1.00873
1.0262
1.04844
1.16882
1.30893
2.14957
3.76607
9.12237
11.3393
11.1409
10.9918
11.0638
11.2652
11.4816
11.6179
11.7252
11.8115
11.8859
1.00001
1.00003
1.00011
1.00024
1.0007
1.00143
1.00409
1.00808
1.02472
1.0446
1.16047
1.2866
2.08557
3.57988
8.63553
11.3197
11.0926
10.8995
10.9641
11.1517
11.3553
11.4791
11.5755
11.6531
11.727
1.00001
1.00003
1.0001
1.00022
1.00064
1.00132
1.00378
1.00742
1.02293
1.04087
1.14887
1.26112
2.01114
3.35353
8.037
11.3085
11.0395
10.7897
10.8452
11.0135
11.1977
11.3012
11.3777
11.4367
11.5028
1.00001
1.00003
1.00009
1.0002
1.00059
1.00121
1.00346
1.00683
1.02088
1.03752
1.13523
1.2374
1.90363
3.09962
7.31124
11.3063
10.9887
10.666
10.7095
10.8518
11.0081
11.0814
11.1242
11.1449
11.1826
1.00001
1.00002
1.00008
1.00019
1.00054
1.00111
1.00315
1.00635
1.01854
1.03572
1.11651
1.2158
1.77832
2.8202
6.47171
11.2903
10.9379
10.5359
10.562
10.6659
10.7831
10.8122
10.7998
10.7433
10.6855
1
1.00002
1.00007
1.00016
1.00047
1.00097
1.00275
1.00555
1.01613
1.03148
1.09978
1.18938
1.65643
2.53618
5.56071
11.1785
10.8468
10.4142
10.4053
10.4579
10.52
10.4974
10.402
10.182
9.84694
1.00001
1.00004
1.00014
1.0003
1.00084
1.00173
1.0049
1.00979
1.02922
1.05454
1.18666
1.35284
2.27809
4.13483
10.0308
11.4074
11.244
11.1649
11.2461
11.465
11.7002
11.8533
11.9705
12.0642
12.1378
1.00001
1.00004
1.00014
1.00029
1.00084
1.00171
1.00485
1.0097
1.02893
1.05403
1.18482
1.34878
2.2659
4.09867
9.95097
11.4004
11.2359
11.1531
11.235
11.4546
11.6896
11.8428
11.9618
12.057
12.1323
1.00001
1.00004
1.00013
1.00029
1.00082
1.00167
1.00475
1.00949
1.02833
1.05281
1.18133
1.33992
2.24057
4.0254
9.77475
11.3836
11.2141
11.1196
11.2003
11.4176
11.6494
11.7997
11.9177
12.0116
12.0861
1.00001
1.00004
1.00013
1.00028
1.00079
1.00162
1.00459
1.00917
1.02743
1.05095
1.17602
1.32659
2.20194
3.91454
9.50038
11.3618
11.1817
11.0652
11.1425
11.3533
11.5789
11.7235
11.8375
11.9284
12.0024
1.00001
1.00004
1.00012
1.00026
1.00075
1.00154
1.00438
1.00874
1.02621
1.04846
1.16884
1.30902
2.14969
3.76654
9.12342
11.3393
11.141
10.992
11.0639
11.2654
11.4818
11.618
11.7254
11.8116
11.886
1.00001
1.00003
1.00011
1.00025
1.0007
1.00144
1.0041
1.0081
1.02473
1.04462
1.16051
1.28668
2.08571
3.58036
8.63662
11.3197
11.0926
10.8996
10.9642
11.1518
11.3554
11.4792
11.5756
11.6532
11.7271
1.00001
1.00003
1.00011
1.00023
1.00065
1.00133
1.00378
1.00743
1.02294
1.0409
1.1489
1.2612
2.0113
3.35401
8.03816
11.3084
11.0395
10.7899
10.8453
11.0136
11.1978
11.3013
11.3778
11.4368
11.5029
1.00001
1.00003
1.0001
1.00021
1.0006
1.00122
1.00347
1.00684
1.0209
1.03754
1.13526
1.23747
1.90378
3.10009
7.31244
11.3062
10.9887
10.6661
10.7097
10.8519
11.0082
11.0815
11.1243
11.145
11.1827
1.00001
1.00003
1.00009
1.00019
1.00054
1.00112
1.00315
1.00636
1.01855
1.03575
1.11653
1.21588
1.77845
2.82064
6.47292
11.2903
10.9379
10.536
10.5621
10.666
10.7832
10.8123
10.7999
10.7433
10.6856
1.00001
1.00002
1.00008
1.00017
1.00048
1.00097
1.00276
1.00556
1.01614
1.0315
1.09981
1.18945
1.65657
2.5366
5.56195
11.1785
10.8468
10.4143
10.4054
10.458
10.5201
10.4975
10.4021
10.1821
9.84701
1.00001
1.00004
1.00014
1.0003
1.00084
1.00173
1.0049
1.00979
1.02922
1.05454
1.18666
1.35284
2.2781
4.13487
10.0309
11.4074
11.244
11.1649
11.2461
11.465
11.7002
11.8533
11.9705
12.0642
12.1378
1.00001
1.00004
1.00014
1.00029
1.00084
1.00171
1.00485
1.0097
1.02893
1.05403
1.18482
1.34878
2.26591
4.09871
9.95106
11.4004
11.2359
11.1531
11.235
11.4546
11.6896
11.8429
11.9618
12.057
12.1323
1.00001
1.00004
1.00013
1.00029
1.00082
1.00167
1.00475
1.00949
1.02834
1.05281
1.18133
1.33992
2.24058
4.02544
9.77485
11.3836
11.2141
11.1196
11.2003
11.4176
11.6494
11.7997
11.9177
12.0117
12.0861
1.00001
1.00004
1.00013
1.00028
1.00079
1.00162
1.00459
1.00917
1.02743
1.05095
1.17602
1.32659
2.20195
3.91458
9.50048
11.3618
11.1817
11.0653
11.1425
11.3533
11.5789
11.7235
11.8375
11.9284
12.0024
1.00001
1.00004
1.00012
1.00026
1.00075
1.00154
1.00438
1.00874
1.02621
1.04847
1.16884
1.30902
2.14971
3.76658
9.12352
11.3393
11.141
10.992
11.0639
11.2654
11.4818
11.618
11.7254
11.8116
11.886
1.00001
1.00003
1.00011
1.00025
1.0007
1.00144
1.0041
1.0081
1.02473
1.04462
1.16051
1.28669
2.08572
3.5804
8.63673
11.3197
11.0927
10.8996
10.9643
11.1518
11.3554
11.4792
11.5756
11.6533
11.7271
1.00001
1.00003
1.00011
1.00023
1.00065
1.00133
1.00378
1.00743
1.02294
1.0409
1.1489
1.2612
2.01132
3.35405
8.03829
11.3084
11.0395
10.7899
10.8453
11.0136
11.1978
11.3013
11.3779
11.4368
11.5029
1.00001
1.00003
1.0001
1.00021
1.0006
1.00122
1.00347
1.00684
1.0209
1.03754
1.13527
1.23748
1.9038
3.10013
7.31257
11.3062
10.9887
10.6661
10.7097
10.8519
11.0082
11.0815
11.1243
11.145
11.1827
1.00001
1.00003
1.00009
1.00019
1.00054
1.00112
1.00315
1.00636
1.01855
1.03575
1.11653
1.21589
1.77847
2.82069
6.47306
11.2902
10.9379
10.536
10.5621
10.666
10.7832
10.8123
10.7999
10.7434
10.6856
1.00001
1.00002
1.00008
1.00017
1.00048
1.00097
1.00276
1.00556
1.01614
1.0315
1.09981
1.18945
1.65659
2.53664
5.56209
11.1785
10.8469
10.4143
10.4054
10.458
10.5201
10.4975
10.4021
10.1821
9.84702
1.00001
1.00004
1.00014
1.0003
1.00084
1.00173
1.0049
1.00979
1.02922
1.05454
1.18666
1.35284
2.2781
4.13488
10.0309
11.4074
11.244
11.1649
11.2461
11.465
11.7002
11.8533
11.9705
12.0642
12.1378
1.00001
1.00004
1.00014
1.00029
1.00084
1.00171
1.00485
1.0097
1.02893
1.05403
1.18482
1.34878
2.26591
4.09872
9.95107
11.4004
11.2359
11.1531
11.235
11.4546
11.6896
11.8429
11.9618
12.057
12.1323
1.00001
1.00004
1.00013
1.00029
1.00082
1.00167
1.00475
1.00949
1.02834
1.05281
1.18133
1.33992
2.24058
4.02544
9.77486
11.3836
11.2141
11.1196
11.2003
11.4176
11.6494
11.7997
11.9177
12.0117
12.0861
1.00001
1.00004
1.00013
1.00028
1.00079
1.00162
1.00459
1.00917
1.02743
1.05095
1.17602
1.32659
2.20195
3.91458
9.50049
11.3618
11.1817
11.0653
11.1425
11.3533
11.5789
11.7235
11.8375
11.9284
12.0024
1.00001
1.00004
1.00012
1.00026
1.00075
1.00154
1.00438
1.00874
1.02621
1.04847
1.16884
1.30903
2.14971
3.76658
9.12354
11.3393
11.141
10.992
11.064
11.2654
11.4818
11.618
11.7254
11.8116
11.886
1.00001
1.00003
1.00011
1.00025
1.0007
1.00144
1.0041
1.0081
1.02473
1.04462
1.16051
1.28669
2.08572
3.58041
8.63675
11.3197
11.0927
10.8996
10.9643
11.1518
11.3554
11.4792
11.5756
11.6533
11.7271
1.00001
1.00003
1.00011
1.00023
1.00065
1.00133
1.00378
1.00743
1.02294
1.0409
1.14891
1.2612
2.01132
3.35406
8.0383
11.3084
11.0395
10.7899
10.8453
11.0136
11.1978
11.3013
11.3779
11.4368
11.5029
1.00001
1.00003
1.0001
1.00021
1.0006
1.00122
1.00347
1.00684
1.0209
1.03754
1.13527
1.23748
1.9038
3.10014
7.31259
11.3062
10.9887
10.6661
10.7097
10.8519
11.0082
11.0815
11.1243
11.1451
11.1827
1.00001
1.00003
1.00009
1.00019
1.00054
1.00112
1.00315
1.00636
1.01855
1.03575
1.11653
1.21589
1.77848
2.82069
6.47308
11.2902
10.9379
10.536
10.5621
10.666
10.7832
10.8123
10.7999
10.7434
10.6856
1.00001
1.00002
1.00008
1.00017
1.00048
1.00097
1.00276
1.00556
1.01614
1.0315
1.09981
1.18945
1.65659
2.53665
5.56211
11.1785
10.8469
10.4143
10.4054
10.458
10.5202
10.4975
10.4021
10.1821
9.84702
1.00001
1.00004
1.00014
1.0003
1.00084
1.00173
1.0049
1.00979
1.02922
1.05455
1.18666
1.35284
2.2781
4.13488
10.0309
11.4074
11.244
11.1649
11.2461
11.465
11.7002
11.8533
11.9705
12.0642
12.1378
1.00001
1.00004
1.00014
1.00029
1.00084
1.00171
1.00485
1.0097
1.02893
1.05403
1.18482
1.34878
2.26591
4.09872
9.95108
11.4004
11.2359
11.1531
11.235
11.4546
11.6896
11.8429
11.9618
12.057
12.1323
1.00001
1.00004
1.00013
1.00029
1.00082
1.00167
1.00475
1.00949
1.02834
1.05281
1.18133
1.33992
2.24059
4.02545
9.77487
11.3836
11.2141
11.1196
11.2003
11.4176
11.6494
11.7997
11.9177
12.0117
12.0861
1.00001
1.00004
1.00013
1.00028
1.00079
1.00162
1.00459
1.00917
1.02743
1.05095
1.17602
1.32659
2.20195
3.91459
9.5005
11.3618
11.1817
11.0653
11.1425
11.3533
11.5789
11.7235
11.8375
11.9284
12.0024
1.00001
1.00004
1.00012
1.00026
1.00075
1.00154
1.00438
1.00874
1.02621
1.04847
1.16884
1.30903
2.14971
3.76659
9.12355
11.3393
11.141
10.992
11.064
11.2654
11.4818
11.618
11.7254
11.8116
11.886
1.00001
1.00003
1.00011
1.00025
1.0007
1.00144
1.0041
1.0081
1.02473
1.04462
1.16051
1.28669
2.08573
3.58041
8.63676
11.3197
11.0927
10.8996
10.9643
11.1518
11.3554
11.4792
11.5756
11.6533
11.7271
1.00001
1.00003
1.00011
1.00023
1.00065
1.00133
1.00378
1.00743
1.02294
1.0409
1.14891
1.2612
2.01132
3.35406
8.03831
11.3084
11.0395
10.7899
10.8453
11.0136
11.1978
11.3013
11.3779
11.4368
11.5029
1.00001
1.00003
1.0001
1.00021
1.0006
1.00122
1.00347
1.00684
1.0209
1.03754
1.13527
1.23748
1.9038
3.10014
7.3126
11.3062
10.9887
10.6661
10.7097
10.8519
11.0082
11.0815
11.1243
11.1451
11.1827
1.00001
1.00003
1.00009
1.00019
1.00054
1.00112
1.00315
1.00636
1.01855
1.03575
1.11653
1.21589
1.77848
2.8207
6.47309
11.2902
10.9379
10.536
10.5621
10.666
10.7832
10.8123
10.7999
10.7434
10.6856
1.00001
1.00002
1.00008
1.00017
1.00048
1.00097
1.00276
1.00556
1.01614
1.0315
1.09981
1.18945
1.6566
2.53665
5.56212
11.1785
10.8469
10.4143
10.4054
10.458
10.5202
10.4975
10.4021
10.1821
9.84702
1.00001
1.00004
1.00014
1.0003
1.00084
1.00173
1.0049
1.00979
1.02922
1.05455
1.18666
1.35284
2.2781
4.13488
10.0309
11.4074
11.244
11.1649
11.2461
11.465
11.7002
11.8533
11.9705
12.0642
12.1378
1.00001
1.00004
1.00014
1.00029
1.00084
1.00171
1.00485
1.0097
1.02893
1.05403
1.18482
1.34878
2.26591
4.09872
9.95109
11.4004
11.2359
11.1531
11.235
11.4546
11.6896
11.8429
11.9618
12.057
12.1323
1.00001
1.00004
1.00013
1.00029
1.00082
1.00167
1.00475
1.00949
1.02834
1.05281
1.18133
1.33992
2.24059
4.02545
9.77487
11.3836
11.2141
11.1196
11.2003
11.4176
11.6494
11.7997
11.9177
12.0117
12.0861
1.00001
1.00004
1.00013
1.00028
1.00079
1.00162
1.00459
1.00917
1.02743
1.05095
1.17602
1.32659
2.20195
3.91459
9.5005
11.3618
11.1817
11.0653
11.1425
11.3533
11.5789
11.7235
11.8375
11.9284
12.0024
1.00001
1.00004
1.00012
1.00026
1.00075
1.00154
1.00438
1.00874
1.02621
1.04847
1.16884
1.30903
2.14971
3.76659
9.12355
11.3393
11.141
10.992
11.064
11.2654
11.4818
11.618
11.7254
11.8116
11.886
1.00001
1.00003
1.00011
1.00025
1.0007
1.00144
1.0041
1.0081
1.02474
1.04462
1.16051
1.28669
2.08573
3.58041
8.63676
11.3197
11.0927
10.8996
10.9643
11.1518
11.3554
11.4792
11.5756
11.6533
11.7271
1.00001
1.00003
1.00011
1.00023
1.00065
1.00133
1.00378
1.00743
1.02294
1.0409
1.14891
1.2612
2.01132
3.35406
8.03832
11.3084
11.0395
10.7899
10.8453
11.0136
11.1978
11.3013
11.3779
11.4368
11.5029
1.00001
1.00003
1.0001
1.00021
1.0006
1.00122
1.00347
1.00684
1.0209
1.03754
1.13527
1.23748
1.9038
3.10014
7.31261
11.3062
10.9887
10.6661
10.7097
10.8519
11.0082
11.0815
11.1243
11.1451
11.1827
1.00001
1.00003
1.00009
1.00019
1.00054
1.00112
1.00315
1.00636
1.01855
1.03575
1.11653
1.21589
1.77848
2.8207
6.47309
11.2902
10.9379
10.536
10.5621
10.666
10.7832
10.8123
10.7999
10.7434
10.6856
1.00001
1.00002
1.00008
1.00017
1.00048
1.00097
1.00276
1.00556
1.01614
1.0315
1.09981
1.18945
1.6566
2.53665
5.56213
11.1785
10.8469
10.4143
10.4054
10.458
10.5202
10.4975
10.4021
10.1821
9.84702
1.00001
1.00004
1.00014
1.0003
1.00084
1.00173
1.0049
1.00979
1.02922
1.05455
1.18666
1.35284
2.2781
4.13488
10.0309
11.4074
11.244
11.1649
11.2461
11.465
11.7002
11.8533
11.9705
12.0642
12.1378
1.00001
1.00004
1.00014
1.00029
1.00084
1.00171
1.00485
1.0097
1.02893
1.05403
1.18482
1.34878
2.26591
4.09872
9.95108
11.4004
11.2359
11.1531
11.235
11.4546
11.6896
11.8429
11.9618
12.057
12.1323
1.00001
1.00004
1.00013
1.00029
1.00082
1.00167
1.00475
1.00949
1.02834
1.05281
1.18133
1.33992
2.24058
4.02545
9.77486
11.3836
11.2141
11.1196
11.2003
11.4176
11.6494
11.7997
11.9177
12.0117
12.0861
1.00001
1.00004
1.00013
1.00028
1.00079
1.00162
1.00459
1.00917
1.02743
1.05095
1.17602
1.32659
2.20195
3.91458
9.50049
11.3618
11.1817
11.0653
11.1425
11.3533
11.5789
11.7235
11.8375
11.9284
12.0024
1.00001
1.00004
1.00012
1.00026
1.00075
1.00154
1.00438
1.00874
1.02621
1.04847
1.16884
1.30903
2.14971
3.76658
9.12354
11.3393
11.141
10.992
11.064
11.2654
11.4818
11.618
11.7254
11.8116
11.886
1.00001
1.00003
1.00011
1.00025
1.0007
1.00144
1.0041
1.0081
1.02473
1.04462
1.16051
1.28669
2.08573
3.58041
8.63675
11.3197
11.0927
10.8996
10.9643
11.1518
11.3554
11.4792
11.5756
11.6533
11.7271
1.00001
1.00003
1.00011
1.00023
1.00065
1.00133
1.00378
1.00743
1.02294
1.0409
1.14891
1.2612
2.01132
3.35406
8.03831
11.3084
11.0395
10.7899
10.8453
11.0136
11.1978
11.3013
11.3779
11.4368
11.5029
1.00001
1.00003
1.0001
1.00021
1.0006
1.00122
1.00347
1.00684
1.0209
1.03754
1.13527
1.23748
1.9038
3.10014
7.3126
11.3062
10.9887
10.6661
10.7097
10.8519
11.0082
11.0815
11.1243
11.1451
11.1827
1.00001
1.00003
1.00009
1.00019
1.00054
1.00112
1.00315
1.00636
1.01855
1.03575
1.11653
1.21589
1.77848
2.8207
6.47308
11.2902
10.9379
10.536
10.5621
10.666
10.7832
10.8123
10.7999
10.7434
10.6856
1.00001
1.00002
1.00008
1.00017
1.00048
1.00097
1.00276
1.00556
1.01614
1.0315
1.09981
1.18945
1.65659
2.53665
5.56212
11.1785
10.8469
10.4143
10.4054
10.458
10.5202
10.4975
10.4021
10.1821
9.84702
1.00001
1.00004
1.00014
1.0003
1.00084
1.00173
1.0049
1.00979
1.02922
1.05454
1.18666
1.35284
2.2781
4.13487
10.0309
11.4074
11.244
11.1649
11.2461
11.465
11.7002
11.8533
11.9705
12.0642
12.1378
1.00001
1.00004
1.00014
1.00029
1.00084
1.00171
1.00485
1.0097
1.02893
1.05403
1.18482
1.34878
2.26591
4.09871
9.95106
11.4004
11.2359
11.1531
11.235
11.4546
11.6896
11.8429
11.9618
12.057
12.1323
1.00001
1.00004
1.00013
1.00029
1.00082
1.00167
1.00475
1.00949
1.02834
1.05281
1.18133
1.33992
2.24058
4.02544
9.77485
11.3836
11.2141
11.1196
11.2003
11.4176
11.6494
11.7997
11.9177
12.0117
12.0861
1.00001
1.00004
1.00013
1.00028
1.00079
1.00162
1.00459
1.00917
1.02743
1.05095
1.17602
1.32659
2.20195
3.91458
9.50048
11.3618
11.1817
11.0653
11.1425
11.3533
11.5789
11.7235
11.8375
11.9284
12.0024
1.00001
1.00004
1.00012
1.00026
1.00075
1.00154
1.00438
1.00874
1.02621
1.04847
1.16884
1.30902
2.14971
3.76658
9.12353
11.3393
11.141
10.992
11.0639
11.2654
11.4818
11.618
11.7254
11.8116
11.886
1.00001
1.00003
1.00011
1.00025
1.0007
1.00144
1.0041
1.0081
1.02473
1.04462
1.16051
1.28669
2.08572
3.5804
8.63673
11.3197
11.0927
10.8996
10.9643
11.1518
11.3554
11.4792
11.5756
11.6533
11.7271
1.00001
1.00003
1.00011
1.00023
1.00065
1.00133
1.00378
1.00743
1.02294
1.0409
1.1489
1.2612
2.01132
3.35405
8.03829
11.3084
11.0395
10.7899
10.8453
11.0136
11.1978
11.3013
11.3779
11.4368
11.5029
1.00001
1.00003
1.0001
1.00021
1.0006
1.00122
1.00347
1.00684
1.0209
1.03754
1.13527
1.23748
1.9038
3.10013
7.31258
11.3062
10.9887
10.6661
10.7097
10.8519
11.0082
11.0815
11.1243
11.145
11.1827
1.00001
1.00003
1.00009
1.00019
1.00054
1.00112
1.00315
1.00636
1.01855
1.03575
1.11653
1.21589
1.77847
2.82069
6.47306
11.2902
10.9379
10.536
10.5621
10.666
10.7832
10.8123
10.7999
10.7434
10.6856
1.00001
1.00002
1.00008
1.00017
1.00048
1.00097
1.00276
1.00556
1.01614
1.0315
1.09981
1.18945
1.65659
2.53664
5.56209
11.1785
10.8469
10.4143
10.4054
10.458
10.5201
10.4975
10.4021
10.1821
9.84702
1.00001
1.00004
1.00014
1.0003
1.00084
1.00173
1.0049
1.00979
1.02922
1.05454
1.18666
1.35284
2.27809
4.13483
10.0308
11.4074
11.244
11.1649
11.2461
11.465
11.7002
11.8533
11.9705
12.0642
12.1378
1.00001
1.00004
1.00014
1.00029
1.00084
1.00171
1.00485
1.0097
1.02893
1.05403
1.18482
1.34878
2.2659
4.09867
9.95097
11.4004
11.2359
11.1531
11.235
11.4546
11.6896
11.8428
11.9618
12.057
12.1323
1.00001
1.00004
1.00013
1.00029
1.00082
1.00167
1.00475
1.00949
1.02833
1.05281
1.18133
1.33991
2.24057
4.0254
9.77475
11.3836
11.2141
11.1196
11.2003
11.4176
11.6494
11.7997
11.9177
12.0116
12.0861
1.00001
1.00004
1.00013
1.00028
1.00079
1.00162
1.00459
1.00917
1.02743
1.05095
1.17602
1.32659
2.20194
3.91454
9.50037
11.3618
11.1817
11.0652
11.1425
11.3533
11.5789
11.7235
11.8375
11.9284
12.0024
1.00001
1.00004
1.00012
1.00026
1.00075
1.00154
1.00438
1.00874
1.02621
1.04846
1.16884
1.30902
2.14969
3.76654
9.12342
11.3393
11.141
10.992
11.0639
11.2654
11.4818
11.618
11.7254
11.8116
11.886
1.00001
1.00003
1.00011
1.00025
1.0007
1.00144
1.0041
1.0081
1.02473
1.04462
1.16051
1.28668
2.08571
3.58036
8.63662
11.3197
11.0926
10.8996
10.9642
11.1518
11.3554
11.4792
11.5756
11.6532
11.7271
1.00001
1.00003
1.00011
1.00023
1.00065
1.00133
1.00378
1.00743
1.02294
1.0409
1.1489
1.2612
2.0113
3.35401
8.03816
11.3084
11.0395
10.7899
10.8453
11.0136
11.1978
11.3013
11.3778
11.4368
11.5029
1.00001
1.00003
1.0001
1.00021
1.0006
1.00122
1.00347
1.00684
1.0209
1.03754
1.13526
1.23747
1.90378
3.10009
7.31244
11.3062
10.9887
10.6661
10.7097
10.8519
11.0082
11.0815
11.1243
11.145
11.1827
1.00001
1.00003
1.00009
1.00019
1.00054
1.00112
1.00315
1.00636
1.01855
1.03575
1.11653
1.21588
1.77845
2.82064
6.47292
11.2903
10.9379
10.536
10.5621
10.666
10.7832
10.8123
10.7999
10.7433
10.6856
1.00001
1.00002
1.00008
1.00017
1.00048
1.00097
1.00276
1.00556
1.01614
1.0315
1.09981
1.18945
1.65657
2.5366
5.56195
11.1785
10.8468
10.4143
10.4054
10.458
10.5201
10.4975
10.4021
10.1821
9.84701
1.00001
1.00004
1.00013
1.00029
1.00084
1.00172
1.00489
1.00978
1.02921
1.05452
1.18663
1.35275
2.27793
4.13419
10.0297
11.4074
11.244
11.1648
11.246
11.4648
11.7001
11.8532
11.9704
12.0641
12.1377
1.00001
1.00004
1.00013
1.00029
1.00083
1.0017
1.00484
1.00969
1.02892
1.05401
1.18479
1.34868
2.26576
4.09815
9.94993
11.4004
11.2358
11.1529
11.2348
11.4545
11.6895
11.8427
11.9617
12.0569
12.1322
1.00001
1.00004
1.00013
1.00028
1.00081
1.00167
1.00474
1.00948
1.02832
1.05278
1.18131
1.33982
2.24044
4.02491
9.77373
11.3835
11.214
11.1195
11.2001
11.4174
11.6492
11.7996
11.9175
12.0115
12.086
1.00001
1.00004
1.00012
1.00027
1.00079
1.00161
1.00459
1.00916
1.02742
1.05092
1.176
1.32649
2.20181
3.91406
9.49934
11.3618
11.1816
11.0651
11.1423
11.3531
11.5787
11.7234
11.8374
11.9282
12.0022
1.00001
1.00003
1.00012
1.00026
1.00075
1.00153
1.00437
1.00873
1.0262
1.04844
1.16882
1.30892
2.14957
3.76607
9.12236
11.3393
11.1409
10.9918
11.0638
11.2652
11.4816
11.6179
11.7252
11.8115
11.8859
1.00001
1.00003
1.00011
1.00024
1.0007
1.00143
1.00409
1.00808
1.02472
1.0446
1.16047
1.2866
2.08557
3.57988
8.63552
11.3197
11.0926
10.8995
10.9641
11.1517
11.3553
11.4791
11.5755
11.6531
11.727
1.00001
1.00003
1.0001
1.00022
1.00064
1.00132
1.00378
1.00742
1.02293
1.04087
1.14887
1.26112
2.01114
3.35353
8.037
11.3085
11.0395
10.7897
10.8452
11.0135
11.1977
11.3012
11.3777
11.4367
11.5028
1.00001
1.00003
1.00009
1.0002
1.00059
1.00121
1.00346
1.00683
1.02088
1.03752
1.13523
1.2374
1.90363
3.09962
7.31124
11.3063
10.9887
10.666
10.7095
10.8518
11.008
11.0814
11.1242
11.1449
11.1826
1.00001
1.00002
1.00008
1.00019
1.00054
1.00111
1.00315
1.00635
1.01854
1.03572
1.11651
1.2158
1.77832
2.8202
6.47171
11.2903
10.9379
10.5359
10.562
10.6659
10.7831
10.8122
10.7998
10.7433
10.6855
1
1.00002
1.00007
1.00016
1.00047
1.00097
1.00275
1.00555
1.01613
1.03148
1.09978
1.18938
1.65643
2.53618
5.5607
11.1785
10.8468
10.4142
10.4053
10.4579
10.52
10.4974
10.402
10.182
9.84694
1
1.00002
1.00005
1.00016
1.00034
1.00097
1.00197
1.00568
1.01098
1.03493
1.06102
1.22415
1.43013
2.47767
4.79555
10.733
10.6314
10.3308
10.2217
10.2352
10.2268
10.1424
9.89416
9.32189
7.89038
1
1.00002
1.00005
1.00014
1.0003
1.00087
1.00178
1.00504
1.01009
1.03
1.05631
1.1905
1.36538
2.29569
4.178
9.77363
10.3872
10.2264
10.0385
10.0031
9.93395
9.76318
9.3815
8.61755
7.17511
1
1.00002
1.00004
1.00012
1.00026
1.00074
1.00152
1.00432
1.00863
1.02573
1.04786
1.16465
1.3028
2.11217
3.65547
8.61572
10.2314
10.1155
9.87347
9.76723
9.64941
9.40696
8.94153
8.18485
7.06438
1
1.00001
1.00003
1.0001
1.00022
1.00062
1.00126
1.0036
1.00706
1.02173
1.03871
1.14007
1.24493
1.93908
3.16343
7.35032
10.1196
10.008
9.73362
9.54429
9.37809
9.09519
8.62664
7.94608
7.06791
1
1.00001
1.00003
1.00009
1.00018
1.00052
1.00107
1.00303
1.0061
1.01782
1.03435
1.11137
1.20844
1.73697
2.7151
6.04702
10.0036
9.90802
9.62121
9.34542
9.13461
8.84177
8.40208
7.80093
7.07451
1
1.00001
1.00002
1.00005
1.00016
1.00034
1.00097
1.00196
1.0057
1.01078
1.03521
1.06048
1.22251
1.43352
2.42316
4.64191
9.6801
9.74707
9.54151
9.18432
8.93097
8.63741
8.23484
7.70537
7.08218
1
1
1.00002
1.00004
1.00014
1.00029
1.00081
1.00166
1.0047
1.00942
1.02787
1.0524
1.17658
1.33237
2.18553
3.83416
8.7223
9.50828
9.37087
9.05502
8.76441
8.47263
8.10561
7.64031
7.09923
1
1
1.00001
1.00003
1.0001
1.00022
1.00062
1.00126
1.00362
1.00704
1.02208
1.03877
1.14216
1.24879
1.95565
3.18077
7.22186
9.25621
9.18531
8.96053
8.64135
8.34803
8.01283
7.60666
7.13469
0.999999
1
1.00001
1.00003
1.00006
1.00019
1.00039
1.00114
1.00221
1.0069
1.01199
1.04382
1.07168
1.27527
1.55342
2.78237
5.60099
9.04318
9.07065
8.91768
8.58402
8.26679
7.95642
7.60836
7.19778
0.999997
0.999999
1
1.00002
1.00005
1.00015
1.00032
1.00091
1.00185
1.00526
1.01048
1.03133
1.05852
1.19581
1.38665
2.27715
4.06948
8.54851
9.00198
8.86856
8.55927
8.22811
7.94143
7.62678
7.29005
0.999995
0.999997
1
1.00001
1.00004
1.00009
1.00027
1.00056
1.0016
1.00311
1.00964
1.01683
1.06118
1.10103
1.38825
1.79793
3.51532
7.26958
8.82767
8.76181
8.54558
8.23144
7.9537
7.6795
7.42576
0.999994
0.999995
0.999999
1.00001
1.00003
1.00007
1.00021
1.00044
1.00124
1.00252
1.00724
1.014
1.04447
1.07798
1.28326
1.56819
2.82352
5.60122
8.56657
8.65781
8.54155
8.26858
8.0034
7.79406
7.62472
0.999994
0.999994
0.999996
1
1.00002
1.00006
1.00013
1.00038
1.00079
1.00223
1.00451
1.01296
1.02569
1.07707
1.15559
1.48054
2.11518
4.0684
7.99321
8.62275
8.55389
8.3616
8.12653
7.99923
7.89864
0.999993
0.999993
0.999995
1
1.00001
1.00004
1.0001
1.00028
1.00058
1.00163
1.0033
1.00943
1.01843
1.05715
1.10457
1.35841
1.7763
3.32033
6.76165
8.52419
8.5966
8.52636
8.37516
8.29127
8.23435
0.999992
0.999992
0.999994
0.999997
1.00001
1.00002
1.00008
1.00017
1.0005
1.00102
1.00287
1.00577
1.01672
1.03205
1.10268
1.19222
1.65317
2.49477
5.11558
8.28355
8.73447
8.72745
8.69532
8.65111
8.60852
0.999992
0.999992
0.999993
0.999995
1
1.00001
1.00006
1.00012
1.00036
1.00074
1.0021
1.00425
1.01209
1.02413
1.07114
1.1449
1.44157
2.01698
3.82716
7.63742
8.93114
9.08729
9.08177
9.0614
9.00671
0.999991
0.999992
0.999992
0.999994
0.999998
1.00001
1.00003
1.0001
1.00022
1.00061
1.00125
1.00355
1.00693
1.02125
1.03776
1.13412
1.23616
1.87018
2.95523
6.37054
9.09185
9.55694
9.54802
9.50657
9.39674
0.999991
0.999991
0.999992
0.999993
0.999996
1.00001
1.00002
1.00007
1.00016
1.00046
1.00095
1.00267
1.0054
1.01547
1.03057
1.093
1.1833
1.59157
2.36266
4.75749
9.10416
10.1183
10.0835
9.96519
9.71234
0.999991
0.999991
0.999991
0.999992
0.999995
1
1.00002
1.00004
1.00014
1.00029
1.00082
1.00166
1.00476
1.00933
1.02889
1.05182
1.18519
1.34258
2.22429
3.90985
8.77235
10.5926
10.5443
10.3489
9.9274
0.999991
0.999991
0.999991
0.999992
0.999993
0.999999
1.00001
1.00004
1.00009
1.00026
1.00053
1.00154
1.00299
1.00942
1.01633
1.06035
1.09924
1.38965
1.80215
3.62588
7.81229
10.9697
10.9036
10.6059
10.0071
0.999991
0.999991
0.999991
0.999992
0.999993
0.999997
1
1.00003
1.00007
1.00021
1.00044
1.00128
1.00252
1.0077
1.01378
1.0494
1.08155
1.31873
1.64518
3.14847
6.68067
11.4524
11.256
10.6948
10.014
0.999991
0.999991
0.999991
0.999991
0.999993
0.999996
1.00001
1.00002
1.00007
1.00016
1.00048
1.00098
1.00282
1.00569
1.01674
1.03246
1.10453
1.19898
1.68904
2.62338
5.77191
11.7461
11.4152
10.671
10.0147
0.999991
0.999991
0.999991
0.999991
0.999993
0.999995
1
1.00002
1.00007
1.00015
1.00043
1.0009
1.00256
1.00519
1.01512
1.02989
1.09304
1.1816
1.61418
2.45176
5.3878
11.5647
11.3022
10.6255
10.0221
0.999991
0.999991
0.999991
0.999991
0.999992
0.999995
1
1.00001
1.00006
1.00013
1.00039
1.00081
1.00233
1.00473
1.01379
1.02724
1.08565
1.16308
1.56699
2.32189
5.04941
11.1308
11.0559
10.6373
10.0553
0.999991
0.999991
0.999991
0.999991
0.999992
0.999994
1
1.00001
1.00005
1.00011
1.00034
1.00069
1.00202
1.00393
1.01248
1.0219
1.0811
1.13863
1.53121
2.20448
4.7491
10.655
10.9487
10.6712
10.1143
0.999991
0.999991
0.999991
0.999991
0.999992
0.999994
0.999998
1.00001
1.00004
1.00012
1.00026
1.00076
1.00153
1.00465
1.00866
1.02956
1.05059
1.19244
1.35336
2.32789
4.25387
10.148
10.9715
10.7146
10.1778
0.999991
0.999991
0.999991
0.999991
0.999992
0.999993
0.999998
1.00001
1.00004
1.00008
1.00026
1.00052
1.00168
1.00291
1.01082
1.01747
1.06931
1.11445
1.46375
1.99061
4.2472
9.57793
11.0043
10.7502
10.2083
0.999991
0.999991
0.999991
0.999991
0.999992
0.999994
0.999997
1.00001
1.00003
1.00011
1.00023
1.00066
1.00135
1.004
1.00776
1.02521
1.0442
1.16594
1.29794
2.14949
3.75552
9.03934
11.093
10.8167
10.232
0.999991
0.99999
0.999991
0.999991
0.999991
0.999993
0.999997
1.00001
1.00003
1.00009
1.0002
1.0006
1.00121
1.00364
1.00685
1.02316
1.0395
1.15232
1.26806
2.06587
3.51152
8.48747
11.2405
10.9121
10.2482
0.999991
0.99999
0.999991
0.999991
0.999991
0.999993
0.999997
1
1.00003
1.00007
1.00021
1.00041
1.00133
1.00231
1.00861
1.0139
1.0552
1.09048
1.36529
1.76075
3.52979
7.86901
11.4302
11.0266
10.274
0.999991
0.99999
0.999991
0.999991
0.999991
0.999993
0.999996
1.00001
1.00002
1.00008
1.00017
1.0005
1.00098
1.00312
1.00547
1.02012
1.03304
1.12967
1.22651
1.89426
3.08888
7.32055
11.6765
11.1576
10.308
0.999991
0.99999
0.999991
0.999991
0.999991
0.999992
0.999996
1
1.00002
1.00006
1.00019
1.00039
1.00115
1.00224
1.0072
1.01246
1.04702
1.07683
1.30473
1.6236
3.06509
6.653
11.9759
11.3357
10.3625
0.999991
0.99999
0.999991
0.999991
0.999991
0.999992
0.999996
1
1.00002
1.00006
1.00018
1.00037
1.00107
1.00212
1.00658
1.0117
1.04264
1.07013
1.27523
1.55675
2.8524
6.05057
12.2062
11.4856
10.4268
0.999991
0.99999
0.99999
0.999991
0.999991
0.999993
0.999995
1
1.00002
1.00007
1.00014
1.00043
1.00088
1.00259
1.00507
1.01611
1.0286
1.10482
1.18574
1.68872
2.60631
5.86666
12.2205
11.4969
10.475
0.999991
0.99999
0.99999
0.999991
0.999991
0.999992
0.999995
1
1.00002
1.00005
1.00016
1.00033
1.00097
1.00187
1.00607
1.01041
1.0391
1.06376
1.24972
1.49803
2.66003
5.5392
12.1184
11.519
10.5521
0.999991
0.99999
0.99999
0.999991
0.999991
0.999992
0.999995
1
1.00002
1.00006
1.00014
1.0004
1.00083
1.00242
1.00473
1.01502
1.02653
1.09731
1.17109
1.6378
2.48137
5.54041
11.9878
11.5078
10.6202
0.999991
0.99999
0.99999
0.999991
0.999991
0.999992
0.999995
1
1.00002
1.00005
1.00016
1.00034
1.00098
1.00198
1.00581
1.01114
1.03646
1.06315
1.23791
1.46276
2.60139
5.24154
11.8934
11.5322
10.7422
0.999991
0.99999
0.99999
0.999991
0.999991
0.999992
0.999995
1
1.00002
1.00005
1.00016
1.00034
1.00097
1.00197
1.00575
1.01115
1.0358
1.06269
1.23362
1.45358
2.57883
5.14409
11.7987
11.5233
10.832
0.999991
0.99999
0.99999
0.999991
0.999991
0.999992
0.999995
1
1.00002
1.00006
1.00014
1.0004
1.00083
1.0024
1.00483
1.01437
1.02738
1.09112
1.16793
1.60138
2.40705
5.31624
11.6988
11.4487
10.8066
0.999991
0.99999
0.99999
0.999991
0.999991
0.999992
0.999995
1
1.00002
1.00006
1.00014
1.00041
1.00085
1.00244
1.00494
1.01442
1.02843
1.08938
1.17099
1.59235
2.39456
5.28125
11.6491
11.4227
10.8199
1
1.00002
1.00006
1.00017
1.00035
1.00098
1.00198
1.00569
1.011
1.03494
1.06104
1.22419
1.43025
2.47783
4.79633
10.7334
10.6317
10.3308
10.2218
10.2353
10.2269
10.1425
9.89426
9.32197
7.89042
1
1.00002
1.00005
1.00015
1.00031
1.00088
1.00178
1.00505
1.0101
1.03002
1.05634
1.19054
1.36548
2.29588
4.17868
9.77468
10.3873
10.2265
10.0386
10.0032
9.93406
9.76329
9.3816
8.61763
7.17515
1
1.00002
1.00004
1.00013
1.00027
1.00075
1.00153
1.00433
1.00864
1.02574
1.04789
1.16468
1.3029
2.11232
3.65602
8.61685
10.2314
10.1156
9.87353
9.76734
9.64953
9.40708
8.94164
8.18494
7.06445
1
1.00002
1.00004
1.00011
1.00022
1.00062
1.00127
1.0036
1.00707
1.02174
1.03873
1.1401
1.245
1.93924
3.1639
7.35147
10.1196
10.008
9.7337
9.54441
9.37822
9.09532
8.62677
7.94619
7.06799
1
1.00001
1.00003
1.00009
1.00019
1.00053
1.00107
1.00303
1.00611
1.01783
1.03437
1.11139
1.20851
1.73712
2.71553
6.04817
10.0037
9.90811
9.62127
9.34555
9.13476
8.84192
8.40223
7.80108
7.07465
1
1.00001
1.00003
1.00006
1.00017
1.00035
1.00098
1.00197
1.00571
1.01079
1.03522
1.06051
1.22255
1.43361
2.42345
4.64256
9.68067
9.74725
9.54163
9.18447
8.93115
8.6376
8.23503
7.70557
7.08238
1
1.00001
1.00002
1.00005
1.00014
1.00029
1.00082
1.00167
1.00471
1.00943
1.02789
1.05243
1.17661
1.33248
2.1857
3.83476
8.72345
9.50852
9.37108
9.05518
8.7646
8.47286
8.10587
7.6406
7.09953
1
1.00001
1.00002
1.00004
1.00011
1.00022
1.00063
1.00127
1.00363
1.00705
1.02209
1.03879
1.1422
1.24887
1.95583
3.18127
7.223
9.25639
9.18547
8.96069
8.64158
8.34833
8.01317
7.60708
7.13514
1
1
1.00001