/*--------------------------------*- C++ -*----------------------------------*\
| =========                 |                                                 |
| \\      /  F ield         | OpenFOAM: The Open Source CFD Toolbox           |
|  \\    /   O peration     | Version:  4.1                                   |
|   \\  /    A nd           | Web:      www.OpenFOAM.org                      |
|    \\/     M anipulation  |                                                 |
\*---------------------------------------------------------------------------*/
FoamFile
{
    version     2.0;
    format      ascii;
    class       surfaceScalarField;
    location    "4.44";
    object      phi;
}
// * * * * * * * * * * * * * * * * * * * * * * * * * * * * * * * * * * * * * //

dimensions      [1 0 -1 0 0 0 0];

internalField   nonuniform List<scalar> 
150500
(
0.0168001
1.81209e-10
-3.38932e-12
0.0168001
1.00005e-09
-1.16452e-11
0.0168001
3.73043e-09
-1.34658e-11
0.0168
9.54172e-09
-2.16946e-11
0.0168
2.64915e-08
-2.13223e-11
0.0168
6.0525e-08
-2.92038e-11
0.0167998
1.60806e-07
-2.91566e-11
0.0167995
3.55011e-07
-4.01721e-11
0.0167984
9.82653e-07
-4.14219e-11
0.0167965
2.11e-06
-7.69897e-11
0.0167895
6.63404e-06
-9.26476e-11
0.0167746
1.54772e-05
-2.27623e-10
0.0167115
6.24225e-05
-2.61382e-10
0.0165304
0.000181438
-1.10229e-09
0.0154623
0.00106799
-2.28832e-09
0.0141822
0.00127993
4.59137e-10
0.0129411
0.00124073
-6.04819e-11
0.0116509
0.00128988
-3.32284e-10
0.0102924
0.00135784
-3.29796e-10
0.00884818
0.00144392
-3.13476e-10
0.00729666
0.00155103
-3.07778e-10
0.00563274
0.00166332
-3.28996e-10
0.00386604
0.00176669
-3.44982e-10
0.00199385
0.00187178
-3.59834e-10
0.00199317
-3.7706e-10
0.0168001
3.47457e-10
-3.38091e-12
0.0168001
1.91698e-09
-1.16465e-11
0.0168001
7.16872e-09
-1.34632e-11
0.0168
1.82949e-08
-2.1688e-11
0.0168
5.09187e-08
-2.13156e-11
0.0168
1.15755e-07
-2.91814e-11
0.0167998
3.11973e-07
-2.9114e-11
0.0167995
6.68846e-07
-4.00363e-11
0.0167985
1.97367e-06
-4.12954e-11
0.0167967
4.01308e-06
-7.62839e-11
0.0167896
1.34802e-05
-9.20022e-11
0.0167753
3.0191e-05
-2.24229e-10
0.0167056
0.000131611
-2.61475e-10
0.0165187
0.000368593
-1.08676e-09
0.0154466
0.00213993
-2.28056e-09
0.0141329
0.00259352
4.60037e-10
0.0129108
0.00246249
-6.02825e-11
0.011642
0.00255843
-3.34732e-10
0.010295
0.00270422
-3.31464e-10
0.00884013
0.00289862
-3.12927e-10
0.00727189
0.00311886
-3.03996e-10
0.00559424
0.00334044
-3.23629e-10
0.00381004
0.00355096
-3.38643e-10
0.00192844
0.00375295
-3.52828e-10
0.00392101
-3.69682e-10
0.0168001
5.04462e-10
-3.36841e-12
0.0168001
2.76402e-09
-1.16415e-11
0.0168001
1.03299e-08
-1.34839e-11
0.0168
2.62465e-08
-2.16012e-11
0.0168
7.33409e-08
-2.14186e-11
0.0168
1.6628e-07
-2.90623e-11
0.0167998
4.50859e-07
-2.91096e-11
0.0167995
9.64248e-07
-3.96929e-11
0.0167986
2.85427e-06
-4.12666e-11
0.0167969
5.82165e-06
-7.48618e-11
0.0167903
1.98619e-05
-9.08921e-11
0.016776
4.49187e-05
-2.18037e-10
0.0167116
0.00019545
-2.57855e-10
0.0165336
0.00054682
-1.04877e-09
0.0155483
0.00312507
-2.25005e-09
0.0142099
0.00393179
4.64594e-10
0.0129826
0.0036895
-5.72102e-11
0.0117238
0.00381697
-3.3892e-10
0.010388
0.00403943
-3.36742e-10
0.00893333
0.00435306
-3.16859e-10
0.00735976
0.00469207
-3.02651e-10
0.00566585
0.00503382
-3.18943e-10
0.00385529
0.00536164
-3.31526e-10
0.00195003
0.00565782
-3.42661e-10
0.00587049
-3.56293e-10
0.0168001
5.74926e-10
-3.34851e-12
0.0168001
3.19524e-09
-1.16364e-11
0.0168001
1.19524e-08
-1.35016e-11
0.0168001
3.04481e-08
-2.14995e-11
0.0168
8.45087e-08
-2.15051e-11
0.0168
1.89715e-07
-2.88814e-11
0.0167999
5.27575e-07
-2.89693e-11
0.0167999
1.01883e-06
-3.88825e-11
0.016799
3.71264e-06
-4.07636e-11
0.0167992
5.67173e-06
-7.0807e-11
0.0167903
2.85039e-05
-8.65257e-11
0.016782
5.37578e-05
-2.05804e-10
0.0167193
0.000257541
-2.47121e-10
0.0165673
0.000699018
-9.95281e-10
0.0157481
0.00394409
-2.24346e-09
0.0143909
0.00528884
4.07074e-10
0.0131551
0.00492502
-8.04041e-11
0.0119027
0.00506907
-3.3765e-10
0.0105771
0.00536445
-3.35223e-10
0.00912961
0.0058003
-3.14891e-10
0.00755499
0.00626633
-3.01163e-10
0.00585483
0.00673347
-3.14414e-10
0.00401167
0.00720495
-3.23407e-10
0.00203273
0.0076364
-3.29831e-10
0.00790271
-3.3897e-10
0.0168001
7.50109e-10
-3.34067e-12
0.0168001
4.14426e-09
-1.16047e-11
0.0168001
1.54415e-08
-1.35953e-11
0.0168
3.94515e-08
-2.13767e-11
0.0168
1.09227e-07
-2.18553e-11
0.0168
2.47978e-07
-2.90398e-11
0.0167998
6.69782e-07
-2.97728e-11
0.0167995
1.38816e-06
-4.27497e-11
0.0167987
4.47824e-06
-3.76291e-11
0.0167972
7.22995e-06
-1.13431e-10
0.0167917
3.37405e-05
5.34598e-13
0.0167821
6.37839e-05
-3.06755e-10
0.016744
0.0002951
-5.87719e-11
0.0166442
0.000799073
-8.85327e-10
0.0161651
0.00442277
-1.97478e-09
0.014785
0.00666894
2.60046e-10
0.0134933
0.00621638
-2.12472e-10
0.0122208
0.0063413
-3.71106e-10
0.0109069
0.00667774
-3.51531e-10
0.00946511
0.0072419
-3.17176e-10
0.00788587
0.00784514
-3.09947e-10
0.00615397
0.00846461
-3.18391e-10
0.00426056
0.00909846
-3.21752e-10
0.00219816
0.00969847
-3.22013e-10
0.0101004
-3.25503e-10
0.0168001
9.13824e-10
-3.31492e-12
0.0168001
5.02258e-09
-1.15779e-11
0.0168001
1.87136e-08
-1.35668e-11
0.0168
4.78397e-08
-2.12523e-11
0.0168
1.32662e-07
-2.15509e-11
0.0168
3.03126e-07
-2.82957e-11
0.0167998
8.01753e-07
-2.82714e-11
0.0167995
1.77373e-06
-3.63055e-11
0.016799
4.90735e-06
-3.83635e-11
0.0167963
1.00359e-05
-6.80727e-11
0.0167955
3.43114e-05
-4.64433e-11
0.0167897
6.99026e-05
-2.1365e-10
0.0167823
0.000302016
-1.45459e-10
0.0167688
0.000812803
-7.80348e-10
0.0168704
0.00432071
-1.80776e-09
0.0154634
0.00807585
1.52138e-10
0.014034
0.00764554
-2.27959e-10
0.0127085
0.00766663
-3.52952e-10
0.0113826
0.00800306
-3.37534e-10
0.00996369
0.00866043
-3.11143e-10
0.008373
0.00943576
-3.14612e-10
0.00661874
0.0102186
-3.21317e-10
0.00465132
0.011066
-3.20909e-10
0.00242799
0.0119215
-3.17502e-10
0.0125279
-3.18548e-10
0.0168001
9.57011e-10
-3.27796e-12
0.0168001
5.29417e-09
-1.15841e-11
0.0168001
1.97062e-08
-1.3544e-11
0.0168001
5.05606e-08
-2.12274e-11
0.0168
1.39097e-07
-2.14658e-11
0.0168
3.18158e-07
-2.81538e-11
0.0168
8.29595e-07
-2.78798e-11
0.0167999
1.84441e-06
-3.55329e-11
0.0167999
4.88322e-06
-3.78495e-11
0.0167994
1.06503e-05
-5.50265e-11
0.0168023
3.12516e-05
-6.08423e-11
0.0168031
6.93298e-05
-1.73631e-10
0.0168501
0.000254641
-1.76635e-10
0.0169806
0.00068248
-7.10019e-10
0.0180662
0.00323453
-1.75138e-09
0.0166444
0.00949762
-4.92587e-11
0.0148634
0.00942632
-2.36825e-10
0.0134548
0.00907504
-2.98824e-10
0.0121019
0.00935544
-2.97847e-10
0.0106596
0.0101023
-2.91454e-10
0.00906014
0.0110347
-3.00113e-10
0.00725271
0.0120255
-3.11401e-10
0.00520859
0.0131103
-3.13837e-10
0.00282926
0.0143006
-3.11006e-10
0.0153567
-3.10766e-10
0.0168001
1.03145e-09
-3.245e-12
0.0168001
5.73398e-09
-1.15929e-11
0.0168001
2.13913e-08
-1.35409e-11
0.0168001
5.51426e-08
-2.12212e-11
0.0168
1.51578e-07
-2.14356e-11
0.0168
3.48036e-07
-2.80885e-11
0.0167999
9.0378e-07
-2.76824e-11
0.0167998
2.03237e-06
-3.50809e-11
0.0167994
5.25507e-06
-3.6654e-11
0.0167982
1.18526e-05
-5.22905e-11
0.0167981
3.11779e-05
-5.26923e-11
0.0167909
7.67826e-05
-1.60073e-10
0.0168123
0.000232896
-1.08097e-10
0.0168439
0.000651089
-5.11426e-10
0.0172673
0.00281072
-9.066e-10
0.0167054
0.0100591
-7.89681e-10
0.0151765
0.0109549
-3.94352e-10
0.0140235
0.0102279
-2.98764e-10
0.012784
0.0105945
-2.93268e-10
0.0114213
0.011465
-2.85836e-10
0.00987596
0.0125796
-2.90015e-10
0.00809922
0.0138016
-2.98184e-10
0.00601002
0.0151995
-2.99471e-10
0.00342617
0.0168843
-2.97844e-10
0.0187824
-2.98756e-10
0.0168001
1.39669e-09
-3.21889e-12
0.0168001
6.23587e-09
-1.15929e-11
0.0168001
2.54429e-08
-1.35547e-11
0.0168
6.11873e-08
-2.12204e-11
0.0168
1.78701e-07
-2.14666e-11
0.0168
3.90468e-07
-2.81486e-11
0.0167998
1.04531e-06
-2.78967e-11
0.0167995
2.36593e-06
-3.56596e-11
0.0167993
5.48112e-06
-3.6994e-11
0.0167973
1.38124e-05
-5.9088e-11
0.0167966
3.17859e-05
-4.18512e-11
0.0168001
7.35205e-05
-1.78222e-10
0.0167946
0.000237953
-5.41278e-11
0.0168058
0.000640128
-4.81378e-10
0.017017
0.00259919
-6.91833e-10
0.0163267
0.0107489
-1.22854e-09
0.0157384
0.0115427
-3.38855e-10
0.0145326
0.0114334
-2.75154e-10
0.0133107
0.0118158
-2.71581e-10
0.0121528
0.0126225
-2.73396e-10
0.0107581
0.0139743
-2.77061e-10
0.00913972
0.0154193
-2.81302e-10
0.00719432
0.0171448
-2.80579e-10
0.00450655
0.0195718
-2.7419e-10
0.0232883
-2.74522e-10
0.0168001
-3.24091e-12
2.00118e-09
0.0168001
-1.1627e-11
1.47453e-09
0.0168001
-1.36226e-11
2.64836e-08
0.0168001
-2.18638e-11
2.26087e-08
0.0168001
-2.11732e-11
1.74446e-07
0.0168003
-2.90937e-11
1.47133e-07
0.0168003
-2.80472e-11
1.05959e-06
0.016802
-3.73208e-11
7.39961e-07
0.0168003
-3.59126e-11
7.15818e-06
0.0168113
-5.8989e-11
2.96564e-06
0.0167893
-5.91602e-11
5.38035e-05
0.0168521
-1.32138e-10
1.09173e-05
0.0167087
-5.71487e-11
0.000380871
0.0169907
-5.07751e-10
0.00035831
0.0169414
-5.2255e-10
0.00264823
0.0165513
-1.40806e-09
0.0111384
0.0157055
-2.4568e-10
0.0123883
0.01484
-2.10346e-10
0.0122985
0.0139207
-2.46659e-10
0.0127346
0.0129157
-2.5336e-10
0.013627
0.0118401
-2.57959e-10
0.0150495
0.0105595
-2.57401e-10
0.0166996
0.00879802
-2.545e-10
0.018906
0.00621593
-2.42969e-10
0.0221536
-2.26782e-10
0.0295038
0.0168001
1.85341e-10
-4.95148e-16
0.0168001
1.00275e-09
-2.64813e-15
0.0168001
3.73506e-09
-5.69242e-15
0.0168
9.54834e-09
-1.20578e-14
0.0168
2.65057e-08
-2.13405e-14
0.0168
6.05416e-08
-4.01262e-14
0.0167998
1.60849e-07
-7.95385e-14
0.0167995
3.55118e-07
-1.55367e-13
0.0167984
9.82827e-07
-3.52339e-13
0.0167964
2.11053e-06
-7.28238e-13
0.0167895
6.63494e-06
-2.00688e-12
0.0167746
1.54799e-05
-4.68647e-12
0.0167115
6.24258e-05
-1.18953e-11
0.0165303
0.000181454
-3.96539e-11
0.0154622
0.00106804
-1.05896e-10
0.0141821
0.0012799
2.16437e-11
0.012941
0.00124071
-2.43284e-12
0.0116509
0.00128987
-1.14358e-11
0.0102924
0.00135782
-1.01825e-11
0.0088482
0.00144389
-8.7224e-12
0.0072967
0.001551
-1.13753e-11
0.00563279
0.0016633
-1.44367e-11
0.00386609
0.00176669
-1.65812e-11
0.00199388
0.00187179
-1.86946e-11
0.00199321
-2.06373e-11
0.0168001
3.53715e-10
-4.81985e-16
0.0168001
1.92525e-09
-2.59271e-15
0.0168001
7.16598e-09
-5.49673e-15
0.0168
1.83404e-08
-1.16322e-14
0.0168
5.08973e-08
-2.00623e-14
0.0168
1.15817e-07
-3.71243e-14
0.0167998
3.12027e-07
-7.35911e-14
0.0167995
6.69103e-07
-1.29019e-13
0.0167985
1.97397e-06
-3.5591e-13
0.0167967
4.0142e-06
-5.77022e-13
0.0167896
1.34822e-05
-2.07082e-12
0.0167753
3.01966e-05
-3.86522e-12
0.0167056
0.000131622
-1.55922e-11
0.0165186
0.000368632
-3.96349e-11
0.0154465
0.00214006
-1.1156e-10
0.0141328
0.00259349
2.45934e-11
0.0129107
0.00246247
5.89546e-13
0.0116419
0.0025584
-1.05469e-11
0.010295
0.00270417
-9.86321e-12
0.00884009
0.00289857
-8.80902e-12
0.00727188
0.00311881
-1.08493e-11
0.00559425
0.0033404
-1.35238e-11
0.00381006
0.00355094
-1.55575e-11
0.00192846
0.00375296
-1.75509e-11
0.00392107
-1.92807e-11
0.0168001
5.13841e-10
-4.80491e-16
0.0168001
2.77392e-09
-2.58594e-15
0.0168001
1.03304e-08
-5.4825e-15
0.0168
2.6294e-08
-1.15933e-14
0.0168
7.33256e-08
-2.00376e-14
0.0168
1.66332e-07
-3.70865e-14
0.0167998
4.50905e-07
-7.3934e-14
0.0167995
9.64397e-07
-1.30337e-13
0.0167986
2.85428e-06
-3.61192e-13
0.0167969
5.82142e-06
-5.90747e-13
0.0167903
1.98642e-05
-2.14212e-12
0.016776
4.49277e-05
-4.01056e-12
0.0167116
0.000195471
-1.62392e-11
0.0165336
0.000546901
-4.11703e-11
0.0155481
0.00312533
-1.17256e-10
0.0142097
0.00393176
2.86278e-11
0.0129824
0.00368945
3.07188e-12
0.0117237
0.00381691
-1.03472e-11
0.0103879
0.00403936
-1.01211e-11
0.00893323
0.00435298
-9.37087e-12
0.00735969
0.00469199
-1.04605e-11
0.00566581
0.00503376
-1.2414e-11
0.00385528
0.0053616
-1.40252e-11
0.00195003
0.00565782
-1.55873e-11
0.00587054
-1.68843e-11
0.0168001
5.79812e-10
-4.80348e-16
0.0168001
3.21688e-09
-2.58523e-15
0.0168001
1.19276e-08
-5.48892e-15
0.0168001
3.05082e-08
-1.15992e-14
0.0168
8.44042e-08
-2.01394e-14
0.0168
1.89672e-07
-3.73324e-14
0.0167999
5.27304e-07
-7.48616e-14
0.0167999
1.01763e-06
-1.33433e-13
0.016799
3.7142e-06
-3.67231e-13
0.0167993
5.65705e-06
-6.11741e-13
0.0167903
2.85429e-05
-2.20327e-12
0.016782
5.37186e-05
-4.0896e-12
0.0167192
0.00025766
-1.65978e-11
0.0165672
0.000699143
-4.18996e-11
0.0157477
0.00394463
-1.21769e-10
0.0143905
0.00528884
3.144e-11
0.0131548
0.00492486
4.08771e-12
0.0119025
0.00506895
-1.05645e-11
0.0105769
0.00536434
-1.04953e-11
0.00912941
0.0058002
-9.74749e-12
0.00755483
0.00626621
-1.01962e-11
0.00585472
0.00673336
-1.13478e-11
0.0040116
0.00720487
-1.24526e-11
0.00203271
0.00763636
-1.34747e-11
0.00790273
-1.43246e-11
0.0168001
7.62948e-10
-4.64432e-16
0.0168001
4.16807e-09
-2.53945e-15
0.0168001
1.54751e-08
-5.31219e-15
0.0168
3.95342e-08
-1.09526e-14
0.0168
1.09442e-07
-1.89902e-14
0.0168
2.4846e-07
-3.3758e-14
0.0167998
6.70817e-07
-6.80793e-14
0.0167994
1.39198e-06
-9.95728e-14
0.0167987
4.47974e-06
-3.86732e-13
0.0167971
7.25107e-06
-2.98319e-13
0.0167917
3.37288e-05
-3.4425e-12
0.016782
6.38357e-05
-3.32366e-12
0.0167441
0.000295077
-1.50538e-11
0.0166442
0.000799167
-4.22845e-11
0.0161654
0.00442318
-1.27604e-10
0.0147852
0.00666893
3.24111e-11
0.0134934
0.00621635
5.7588e-12
0.0122208
0.00634127
-1.01567e-11
0.0109068
0.00667769
-1.05034e-11
0.00946503
0.00724183
-9.88427e-12
0.00788577
0.00784503
-9.63989e-12
0.00615388
0.00846449
-1.007e-11
0.00426049
0.00909835
-1.08535e-11
0.00219813
0.0096984
-1.14496e-11
0.0101004
-1.18951e-11
0.0168001
9.3197e-10
-4.78425e-16
0.0168001
5.03439e-09
-2.58998e-15
0.0168001
1.87413e-08
-5.51959e-15
0.0168
4.78803e-08
-1.14437e-14
0.0168
1.32758e-07
-2.04435e-14
0.0168
3.0332e-07
-3.74759e-14
0.0167998
8.02217e-07
-7.47056e-14
0.0167995
1.77483e-06
-1.39073e-13
0.016799
4.90918e-06
-3.62059e-13
0.0167963
1.00453e-05
-5.74596e-13
0.0167955
3.43142e-05
-2.37719e-12
0.0167897
6.99279e-05
-3.72976e-12
0.0167823
0.000302027
-1.66096e-11
0.0167688
0.000812879
-4.08375e-11
0.0168704
0.00432116
-1.27183e-10
0.0154635
0.0080757
2.86162e-11
0.0140342
0.00764549
6.43498e-12
0.0127086
0.00766662
-9.57367e-12
0.0113826
0.00800305
-1.0531e-11
0.00996371
0.0086604
-1.07786e-11
0.00837298
0.00943569
-9.5952e-12
0.0066187
0.0102185
-9.32177e-12
0.00465128
0.0110659
-9.45121e-12
0.00242796
0.0119214
-9.61366e-12
0.0125279
-9.66162e-12
0.0168001
9.73469e-10
-4.73253e-16
0.0168001
5.30332e-09
-2.56475e-15
0.0168001
1.97202e-08
-5.44467e-15
0.0168001
5.05785e-08
-1.12725e-14
0.0168
1.39132e-07
-1.99778e-14
0.0168
3.18224e-07
-3.64356e-14
0.0168
8.29753e-07
-7.19165e-14
0.0167999
1.84476e-06
-1.33157e-13
0.0167999
4.88408e-06
-3.34394e-13
0.0167994
1.06523e-05
-6.07571e-13
0.0168023
3.12576e-05
-2.09629e-12
0.0168032
6.93406e-05
-3.50242e-12
0.0168501
0.000254691
-1.5168e-11
0.0169805
0.000682632
-3.77527e-11
0.0180657
0.00323541
-1.24443e-10
0.016644
0.00949736
1.23888e-11
0.0148633
0.009426
2.98567e-12
0.0134548
0.00907495
-9.17195e-12
0.0121019
0.00935538
-1.03694e-11
0.0106596
0.0101022
-1.09012e-11
0.00906014
0.0110346
-8.91707e-12
0.0072527
0.0120255
-8.39028e-12
0.00520857
0.0131102
-8.22633e-12
0.00282925
0.0143005
-7.99316e-12
0.0153566
-7.57252e-12
0.0168001
1.04285e-09
-4.6182e-16
0.0168001
5.73862e-09
-2.51246e-15
0.0168001
2.13845e-08
-5.27453e-15
0.0168001
5.51135e-08
-1.09047e-14
0.0168
1.51496e-07
-1.88538e-14
0.0168
3.47921e-07
-3.41433e-14
0.0167999
9.03513e-07
-6.45469e-14
0.0167998
2.03184e-06
-1.19236e-13
0.0167994
5.2544e-06
-2.77746e-13
0.0167982
1.18496e-05
-5.37054e-13
0.0167982
3.1182e-05
-1.42422e-12
0.016791
7.67737e-05
-3.33261e-12
0.0168123
0.000232933
-8.97355e-12
0.016844
0.000651137
-2.33202e-11
0.0172679
0.00281109
-6.10758e-11
0.0167057
0.0100592
-4.4902e-11
0.0151766
0.0109549
-1.57453e-11
0.0140235
0.0102279
-1.29902e-11
0.012784
0.0105945
-1.30681e-11
0.0114213
0.0114649
-1.25627e-11
0.00987599
0.0125795
-1.0155e-11
0.00809924
0.0138015
-8.85221e-12
0.00601002
0.0151995
-7.9399e-12
0.00342616
0.0168842
-6.99381e-12
0.0187823
-5.87322e-12
0.0168001
1.37309e-09
-4.59603e-16
0.0168001
6.34274e-09
-2.49651e-15
0.0168001
2.54819e-08
-5.24583e-15
0.0168
6.09485e-08
-1.08415e-14
0.0168
1.78723e-07
-1.87794e-14
0.0168
3.90054e-07
-3.4101e-14
0.0167998
1.04509e-06
-6.45527e-14
0.0167995
2.36522e-06
-1.22764e-13
0.0167993
5.48086e-06
-2.61769e-13
0.0167973
1.38128e-05
-6.223e-13
0.0167966
3.17801e-05
-1.02823e-12
0.0168001
7.35371e-05
-3.68919e-12
0.0167946
0.000237954
-6.31137e-12
0.0168059
0.000640152
-1.98009e-11
0.0170172
0.00259938
-4.87445e-11
0.0163269
0.0107489
-7.7485e-11
0.0157387
0.0115427
-1.61956e-11
0.0145327
0.0114334
-1.29417e-11
0.0133108
0.0118158
-1.32832e-11
0.0121529
0.0126225
-1.28241e-11
0.0107582
0.0139742
-1.11609e-11
0.00913977
0.0154192
-9.46919e-12
0.00719436
0.0171447
-8.38544e-12
0.00450657
0.0195717
-6.33428e-12
0.0232882
-4.8968e-12
0.0168001
-4.50303e-16
1.86552e-09
0.0168001
-2.42772e-15
1.83994e-09
0.0168001
-5.00942e-15
2.52863e-08
0.0168001
-1.05695e-14
2.3125e-08
0.0168001
-1.69618e-14
1.73039e-07
0.0168003
-3.10578e-14
1.47778e-07
0.0168003
-5.40545e-14
1.05852e-06
0.016802
-9.94619e-14
7.41064e-07
0.0168003
-2.09903e-13
7.15695e-06
0.0168113
-4.03913e-13
2.97132e-06
0.0167893
-1.04361e-12
5.38004e-05
0.0168521
-2.30411e-12
1.09376e-05
0.0167088
-5.23794e-12
0.000380835
0.0169906
-1.99197e-11
0.000358411
0.0169416
-4.06611e-11
0.00264819
0.0165514
-9.20983e-11
0.0111385
0.0157056
-1.2298e-11
0.0123882
0.0148402
-1.02185e-11
0.0122985
0.0139208
-1.2559e-11
0.0127346
0.0129158
-1.24581e-11
0.013627
0.0118402
-1.11489e-11
0.0150495
0.0105596
-1.02458e-11
0.0166995
0.00879808
-8.60177e-12
0.0189059
0.00621597
-6.48275e-12
0.0221535
-4.46737e-12
0.0295038
0.0168001
1.85347e-10
1.77732e-16
0.0168001
1.00278e-09
1.84983e-16
0.0168001
3.73517e-09
-2.48765e-17
0.0168
9.54861e-09
-5.34639e-17
0.0168
2.65065e-08
-1.39501e-16
0.0168
6.05436e-08
-2.8391e-16
0.0167998
1.60853e-07
-7.24818e-16
0.0167995
3.55133e-07
-1.53499e-15
0.0167984
9.82834e-07
-3.77459e-15
0.0167964
2.1106e-06
-8.17428e-15
0.0167895
6.63495e-06
-2.37915e-14
0.0167746
1.54803e-05
-5.6331e-14
0.0167115
6.24239e-05
-1.59412e-13
0.0165303
0.000181452
-5.4996e-13
0.0154622
0.00106803
-1.68157e-12
0.0141822
0.00127989
-4.92145e-13
0.0129411
0.00124071
-6.01295e-13
0.0116509
0.00128987
-6.78075e-13
0.0102924
0.00135781
-6.345e-13
0.00884822
0.00144389
-6.27764e-13
0.00729673
0.00155101
-8.59971e-13
0.00563281
0.00166331
-1.13765e-12
0.00386611
0.00176669
-1.34624e-12
0.00199389
0.0018718
-1.55289e-12
0.00199322
-1.71581e-12
0.0168001
3.53715e-10
1.75561e-16
0.0168001
1.92525e-09
1.9016e-16
0.0168001
7.166e-09
-2.40312e-17
0.0168
1.83405e-08
-5.16724e-17
0.0168
5.08974e-08
-1.3432e-16
0.0168
1.15818e-07
-2.70449e-16
0.0167998
3.12028e-07
-7.12013e-16
0.0167995
6.69104e-07
-1.37828e-15
0.0167985
1.97397e-06
-4.06958e-15
0.0167967
4.0142e-06
-7.27187e-15
0.0167896
1.34822e-05
-2.61721e-14
0.0167753
3.01965e-05
-5.19118e-14
0.0167056
0.000131622
-2.07497e-13
0.0165186
0.000368631
-5.80557e-13
0.0154465
0.00214006
-1.83156e-12
0.0141328
0.00259348
-4.40684e-13
0.0129107
0.00246246
-8.10671e-13
0.0116419
0.0025584
-6.61107e-13
0.010295
0.00270417
-6.38093e-13
0.0088401
0.00289857
-6.46749e-13
0.00727189
0.00311881
-8.36833e-13
0.00559426
0.00334041
-1.07327e-12
0.00381007
0.00355095
-1.28923e-12
0.00192847
0.00375298
-1.46784e-12
0.00392108
-1.6114e-12
0.0168001
5.13842e-10
1.75128e-16
0.0168001
2.77393e-09
1.90057e-16
0.0168001
1.03304e-08
-2.58328e-17
0.0168
2.62941e-08
-5.55128e-17
0.0168
7.33257e-08
-1.46137e-16
0.0168
1.66332e-07
-2.94352e-16
0.0167998
4.50905e-07
-7.86776e-16
0.0167995
9.64398e-07
-1.52046e-15
0.0167986
2.85428e-06
-4.5756e-15
0.0167969
5.82143e-06
-8.11589e-15
0.0167903
1.98642e-05
-2.96896e-14
0.016776
4.49277e-05
-5.83334e-14
0.0167116
0.00019547
-2.3484e-13
0.0165336
0.0005469
-6.4574e-13
0.0155481
0.00312533
-2.03455e-12
0.0142097
0.00393175
-3.52066e-13
0.0129824
0.00368944
-5.70244e-13
0.0117237
0.00381691
-6.78181e-13
0.0103879
0.00403936
-6.79488e-13
0.00893323
0.00435298
-6.97627e-13
0.00735969
0.00469199
-8.32311e-13
0.00566581
0.00503376
-9.89751e-13
0.00385528
0.0053616
-1.1685e-12
0.00195003
0.00565783
-1.30273e-12
0.00587055
-1.41681e-12
0.0168001
5.79818e-10
1.74873e-16
0.0168001
3.2169e-09
1.89292e-16
0.0168001
1.19277e-08
-2.80486e-17
0.0168001
3.05085e-08
-6.03138e-17
0.0168
8.44047e-08
-1.59905e-16
0.0168
1.89673e-07
-3.22199e-16
0.0167999
5.27308e-07
-8.70971e-16
0.0167999
1.01764e-06
-1.67327e-15
0.016799
3.71419e-06
-5.13404e-15
0.0167993
5.65717e-06
-8.98442e-15
0.0167903
2.85427e-05
-3.3378e-14
0.016782
5.37189e-05
-6.42457e-14
0.0167192
0.00025766
-2.62115e-13
0.0165672
0.000699143
-7.06998e-13
0.0157477
0.00394463
-2.24047e-12
0.0143905
0.00528882
-2.68813e-13
0.0131548
0.00492485
-5.36056e-13
0.0119025
0.00506895
-7.10227e-13
0.0105769
0.00536434
-6.86019e-13
0.00912941
0.0058002
-7.48144e-13
0.00755483
0.00626621
-7.42776e-13
0.00585472
0.00673336
-9.56437e-13
0.0040116
0.00720488
-1.04934e-12
0.00203271
0.00763637
-1.14864e-12
0.00790274
-1.21774e-12
0.0168001
7.62941e-10
1.71823e-16
0.0168001
4.16804e-09
1.92143e-16
0.0168001
1.5475e-08
-3.04229e-17
0.0168
3.95339e-08
-6.52215e-17
0.0168
1.09441e-07
-1.73604e-16
0.0168
2.48458e-07
-3.48046e-16
0.0167998
6.70813e-07
-9.48646e-16
0.0167994
1.39196e-06
-1.74792e-15
0.0167987
4.47975e-06
-5.82315e-15
0.0167971
7.25096e-06
-8.43493e-15
0.0167917
3.3729e-05
-4.07094e-14
0.016782
6.38356e-05
-6.57296e-14
0.0167441
0.000295078
-2.93654e-13
0.0166442
0.000799169
-7.67251e-13
0.0161654
0.00442319
-2.47956e-12
0.0147852
0.00666892
-2.37062e-13
0.0134934
0.00621634
-5.13548e-13
0.0122208
0.00634126
-7.83119e-13
0.0109068
0.00667769
-6.92195e-13
0.00946503
0.00724182
-8.49382e-13
0.00788577
0.00784503
-6.72423e-13
0.00615387
0.00846449
-9.66102e-13
0.00426049
0.00909836
-9.26169e-13
0.00219813
0.00969841
-9.84922e-13
0.0101004
-1.02431e-12
0.0168001
9.31972e-10
1.74092e-16
0.0168001
5.03441e-09
1.87161e-16
0.0168001
1.87413e-08
-3.2726e-17
0.0168
4.78804e-08
-7.03393e-17
0.0168
1.32758e-07
-1.89428e-16
0.0168
3.0332e-07
-3.83992e-16
0.0167998
8.02219e-07
-1.03976e-15
0.0167995
1.77483e-06
-2.05312e-15
0.016799
4.90919e-06
-6.16489e-15
0.0167963
1.00453e-05
-1.00786e-14
0.0167955
3.43143e-05
-4.23752e-14
0.0167897
6.99282e-05
-7.06347e-14
0.0167823
0.000302028
-3.07671e-13
0.0167688
0.000812884
-7.97159e-13
0.0168704
0.0043212
-2.62777e-12
0.0154635
0.00807569
-2.53877e-13
0.0140341
0.00764547
-4.66438e-13
0.0127085
0.00766661
-7.60827e-13
0.0113826
0.00800305
-6.47576e-13
0.0099637
0.00866039
-7.13856e-13
0.00837297
0.00943569
-5.48202e-13
0.00661869
0.0102185
-7.94276e-13
0.00465127
0.0110659
-8.07952e-13
0.00242796
0.0119214
-8.02793e-13
0.0125279
-8.1161e-13
0.0168001
9.73475e-10
1.73092e-16
0.0168001
5.30335e-09
1.89054e-16
0.0168001
1.97203e-08
-3.34451e-17
0.0168001
5.05787e-08
-7.18555e-17
0.0168
1.39133e-07
-1.94559e-16
0.0168
3.18226e-07
-3.94035e-16
0.0168
8.29758e-07
-1.07298e-15
0.0167999
1.84477e-06
-2.12668e-15
0.0167999
4.88411e-06
-6.21267e-15
0.0167994
1.06524e-05
-1.15707e-14
0.0168023
3.1258e-05
-4.15774e-14
0.0168032
6.9341e-05
-7.24447e-14
0.01685
0.000254695
-3.09648e-13
0.0169805
0.000682643
-8.01788e-13
0.0180657
0.00323548
-2.75337e-12
0.0166439
0.00949735
-5.19679e-13
0.0148633
0.00942597
-4.88665e-13
0.0134547
0.00907493
-6.66402e-13
0.0121019
0.00935537
-6.87557e-13
0.0106596
0.0101022
-7.25246e-13
0.00906013
0.0110346
-7.19784e-13
0.00725269
0.0120255
-7.92258e-13
0.00520856
0.0131102
-7.28892e-13
0.00282925
0.0143005
-6.21362e-13
0.0153566
-5.85795e-13
0.0168001
1.04285e-09
1.71218e-16
0.0168001
5.73863e-09
1.93887e-16
0.0168001
2.13846e-08
-3.18188e-17
0.0168001
5.51136e-08
-6.8591e-17
0.0168
1.51497e-07
-1.8373e-16
0.0168
3.47922e-07
-3.72469e-16
0.0167999
9.03515e-07
-9.95987e-16
0.0167998
2.03184e-06
-1.98897e-15
0.0167994
5.25441e-06
-5.52265e-15
0.0167982
1.18496e-05
-1.08849e-14
0.0167982
3.11822e-05
-3.18779e-14
0.016791
7.67738e-05
-7.1151e-14
0.0168123
0.000232935
-2.11568e-13
0.016844
0.000651142
-5.52461e-13
0.017268
0.00281112
-1.56229e-12
0.0167058
0.0100592
-1.63607e-12
0.0151765
0.0109549
-8.20485e-13
0.0140235
0.0102279
-7.54799e-13
0.012784
0.0105944
-7.61004e-13
0.0114213
0.0114649
-7.17068e-13
0.00987598
0.0125795
-6.82147e-13
0.00809922
0.0138015
-6.27255e-13
0.00601001
0.0151995
-5.4629e-13
0.00342616
0.0168842
-4.44887e-13
0.0187824
-3.44803e-13
0.0168001
1.37309e-09
1.7062e-16
0.0168001
6.34279e-09
1.94602e-16
0.0168001
2.54821e-08
-3.37212e-17
0.0168
6.09488e-08
-7.27415e-17
0.0168
1.78724e-07
-1.98288e-16
0.0168
3.90056e-07
-4.0483e-16
0.0167998
1.0451e-06
-1.09215e-15
0.0167995
2.36523e-06
-2.26106e-15
0.0167993
5.48089e-06
-5.73044e-15
0.0167973
1.38129e-05
-1.39272e-14
0.0167966
3.17802e-05
-2.6245e-14
0.0168001
7.35378e-05
-8.73831e-14
0.0167946
0.000237955
-1.72203e-13
0.0168059
0.000640155
-5.23449e-13
0.0170173
0.0025994
-1.38754e-12
0.0163269
0.0107489
-2.46727e-12
0.0157387
0.0115427
-8.08832e-13
0.0145327
0.0114334
-7.09715e-13
0.0133108
0.0118158
-7.37456e-13
0.0121529
0.0126225
-7.05059e-13
0.0107582
0.0139742
-6.60496e-13
0.00913976
0.0154192
-4.96764e-13
0.00719435
0.0171447
-4.26274e-13
0.00450657
0.0195717
-2.64807e-13
0.0232882
-9.71721e-14
0.0168001
1.69424e-16
1.8655e-09
0.0168001
2.01513e-16
1.84001e-09
0.0168001
-2.91938e-17
2.52862e-08
0.0168001
-6.31217e-17
2.31254e-08
0.0168001
-1.69764e-16
1.73039e-07
0.0168003
-3.47699e-16
1.4778e-07
0.0168003
-9.15293e-16
1.05852e-06
0.016802
-1.90413e-15
7.41073e-07
0.0168003
-4.9193e-15
7.15698e-06
0.0168113
-1.01033e-14
2.97138e-06
0.0167893
-2.85247e-14
5.38006e-05
0.0168521
-6.46145e-14
1.09379e-05
0.0167088
-1.51207e-13
0.000380836
0.0169906
-5.89233e-13
0.000358414
0.0169416
-1.23075e-12
0.0026482
0.0165515
-2.97955e-12
0.0111385
0.0157056
-7.04298e-13
0.0123882
0.0148402
-6.30463e-13
0.0122985
0.0139208
-7.15313e-13
0.0127346
0.0129158
-6.51022e-13
0.013627
0.0118402
-5.7311e-13
0.0150495
0.0105596
-4.6628e-13
0.0166995
0.00879808
-2.829e-13
0.0189059
0.00621596
-2.55819e-15
0.0221535
2.06979e-13
0.0295038
0.0168001
1.85347e-10
8.49574e-18
0.0168001
1.00278e-09
3.55644e-17
0.0168001
3.73517e-09
1.09122e-16
0.0168
9.54861e-09
2.13936e-16
0.0168
2.65065e-08
5.47073e-16
0.0168
6.05436e-08
1.03173e-15
0.0167998
1.60853e-07
2.75897e-15
0.0167995
3.55133e-07
5.57325e-15
0.0167984
9.82834e-07
1.57818e-14
0.0167964
2.11061e-06
3.21004e-14
0.0167895
6.63495e-06
1.05891e-13
0.0167746
1.54803e-05
2.43579e-13
0.0167115
6.24238e-05
7.35448e-13
0.0165303
0.000181452
2.39699e-12
0.0154622
0.00106803
6.99718e-12
0.0141822
0.00127989
-1.26447e-12
0.0129411
0.00124071
-3.00448e-13
0.0116509
0.00128987
-3.95902e-14
0.0102924
0.00135781
-9.70185e-14
0.00884823
0.00144389
-2.24198e-13
0.00729673
0.00155101
-2.41145e-13
0.00563281
0.00166331
-2.72645e-13
0.00386611
0.0017667
-3.5773e-13
0.00199389
0.0018718
-3.33487e-13
0.00199322
-3.61215e-13
0.0168001
3.53715e-10
7.55892e-18
0.0168001
1.92525e-09
3.19721e-17
0.0168001
7.166e-09
9.7419e-17
0.0168
1.83405e-08
1.90826e-16
0.0168
5.08974e-08
4.82151e-16
0.0168
1.15818e-07
8.84955e-16
0.0167998
3.12028e-07
2.45757e-15
0.0167995
6.69104e-07
4.28822e-15
0.0167985
1.97397e-06
1.57238e-14
0.0167967
4.0142e-06
2.44152e-14
0.0167896
1.34822e-05
1.07253e-13
0.0167753
3.01965e-05
1.97836e-13
0.0167056
0.000131622
9.14493e-13
0.0165186
0.000368631
2.35186e-12
0.0154465
0.00214006
7.14754e-12
0.0141328
0.00259348
-1.41625e-12
0.0129107
0.00246246
-3.52001e-13
0.0116419
0.00255839
-6.04243e-14
0.010295
0.00270417
-1.07598e-13
0.0088401
0.00289857
-1.83731e-13
0.00727189
0.00311881
-2.401e-13
0.00559426
0.00334041
-2.70673e-13
0.00381007
0.00355095
-3.60585e-13
0.00192847
0.00375298
-3.23707e-13
0.00392108
-4.07335e-13
0.0168001
5.13842e-10
7.50302e-18
0.0168001
2.77393e-09
3.1685e-17
0.0168001
1.03304e-08
9.6621e-17
0.0168
2.62941e-08
1.88786e-16
0.0168
7.33257e-08
4.77911e-16
0.0168
1.66332e-07
8.76136e-16
0.0167998
4.50905e-07
2.43881e-15
0.0167995
9.64398e-07
4.28933e-15
0.0167986
2.85428e-06
1.56572e-14
0.0167969
5.82143e-06
2.46166e-14
0.0167903
1.98642e-05
1.08388e-13
0.016776
4.49276e-05
2.0054e-13
0.0167116
0.00019547
9.25221e-13
0.0165336
0.0005469
2.37155e-12
0.0155481
0.00312533
7.26865e-12
0.0142097
0.00393175
-1.59224e-12
0.0129824
0.00368944
-4.11875e-13
0.0117237
0.00381691
-7.44789e-14
0.0103879
0.00403936
-1.13382e-13
0.00893323
0.00435298
-1.92966e-13
0.00735969
0.00469199
-3.08717e-13
0.00566581
0.00503376
-3.55302e-13
0.00385528
0.00536161
-3.64383e-13
0.00195003
0.00565783
-3.13891e-13
0.00587056
-4.22762e-13
0.0168001
5.79818e-10
7.60466e-18
0.0168001
3.2169e-09
3.19052e-17
0.0168001
1.19277e-08
9.73215e-17
0.0168001
3.05085e-08
1.89607e-16
0.0168
8.44047e-08
4.80691e-16
0.0168
1.89673e-07
8.82063e-16
0.0167999
5.27307e-07
2.45114e-15
0.0167999
1.01764e-06
4.38821e-15
0.016799
3.71419e-06
1.56376e-14
0.0167993
5.65717e-06
2.52574e-14
0.0167903
2.85427e-05
1.09141e-13
0.016782
5.37189e-05
2.00022e-13
0.0167192
0.000257659
9.21245e-13
0.0165672
0.000699143
2.35035e-12
0.0157477
0.00394463
7.3352e-12
0.0143905
0.00528882
-1.70851e-12
0.0131548
0.00492485
-4.55431e-13
0.0119025
0.00506895
-7.6981e-14
0.0105769
0.00536434
-1.08139e-13
0.00912941
0.0058002
-2.12541e-13
0.00755483
0.00626621
-2.88267e-13
0.00585472
0.00673336
-3.68344e-13
0.0040116
0.00720488
-2.97475e-13
0.00203271
0.00763638
-4.21248e-13
0.00790275
-4.40106e-13
0.0168001
7.62941e-10
6.5086e-18
0.0168001
4.16804e-09
2.80902e-17
0.0168001
1.5475e-08
8.36267e-17
0.0168
3.95339e-08
1.59795e-16
0.0168
1.09441e-07
3.9833e-16
0.0168
2.48458e-07
6.9055e-16
0.0167998
6.70813e-07
2.04465e-15
0.0167994
1.39196e-06
2.44953e-15
0.0167987
4.47975e-06
1.64401e-14
0.0167971
7.25096e-06
6.45526e-15
0.0167917
3.3729e-05
1.41109e-13
0.016782
6.38356e-05
1.48328e-13
0.0167441
0.000295078
9.71172e-13
0.0166442
0.000799169
2.29954e-12
0.0161654
0.00442319
7.41267e-12
0.0147852
0.00666892
-1.74058e-12
0.0134934
0.00621634
-5.20182e-13
0.0122208
0.00634126
-9.37881e-14
0.0109068
0.00667769
-1.00818e-13
0.00946503
0.00724183