/*--------------------------------*- C++ -*----------------------------------*\
| =========                 |                                                 |
| \\      /  F ield         | OpenFOAM: The Open Source CFD Toolbox           |
|  \\    /   O peration     | Version:  4.1                                   |
|   \\  /    A nd           | Web:      www.OpenFOAM.org                      |
|    \\/     M anipulation  |                                                 |
\*---------------------------------------------------------------------------*/
FoamFile
{
    version     2.0;
    format      ascii;
    class       surfaceScalarField;
    location    "0.56";
    object      phi;
}
// * * * * * * * * * * * * * * * * * * * * * * * * * * * * * * * * * * * * * //

dimensions      [1 0 -1 0 0 0 0];

internalField   nonuniform List<scalar> 
51500
(
3.65782e-13
1.53594e-14
1.46437e-11
-1.42348e-15
2.03115e-14
1.44777e-11
-2.67623e-15
1.9096e-14
1.4313e-11
-2.61641e-15
1.77884e-14
1.41508e-11
-2.53916e-15
1.64344e-14
1.39903e-11
-2.48244e-15
1.50491e-14
1.38319e-11
-2.5558e-15
1.36674e-14
1.36751e-11
-2.50295e-15
1.23016e-14
1.35213e-11
-2.51887e-15
1.09201e-14
1.33696e-11
9.5483e-15
1.32223e-11
-7.45931e-17
3.68798e-13
1.00874e-14
1.83415e-11
-1.06228e-14
1.0077e-14
1.76941e-11
-9.74622e-15
8.59033e-15
1.70694e-11
-9.54729e-15
7.17949e-15
1.64714e-11
-9.26909e-15
5.90998e-15
1.5899e-11
-8.94254e-15
4.98646e-15
1.53506e-11
-8.70052e-15
4.31919e-15
1.48245e-11
-8.46841e-15
3.135e-15
1.43208e-11
-8.17476e-15
1.92835e-15
1.38366e-11
8.06304e-16
1.33805e-11
-8.06646e-16
3.68206e-13
1.04329e-14
2.32539e-11
-2.31754e-14
1.19438e-14
2.18355e-11
-1.92924e-14
9.86653e-15
2.05102e-11
-1.83207e-14
8.01723e-15
1.92816e-11
-1.73518e-14
6.36722e-15
1.81404e-11
-1.65884e-14
4.89391e-15
1.70807e-11
-1.57187e-14
3.5934e-15
1.60971e-11
-1.50529e-14
2.42349e-15
1.51803e-11
-1.42795e-14
1.39687e-15
1.43273e-11
5.23935e-16
1.35419e-11
-1.49858e-15
3.6175e-13
1.36738e-14
2.98715e-11
-4.07423e-14
1.4644e-14
2.7221e-11
-3.17618e-14
1.17805e-14
2.48396e-11
-2.94822e-14
9.29926e-15
2.26988e-11
-2.73401e-14
7.20115e-15
2.07809e-11
-2.54332e-14
5.41082e-15
1.90573e-11
-2.36907e-14
3.88465e-15
1.7505e-11
-2.21126e-14
2.57005e-15
1.61044e-11
-2.05012e-14
1.44503e-15
1.48386e-11
5.07065e-16
1.3706e-11
-2.27639e-15
3.44579e-13
1.82744e-14
3.89292e-11
-6.492e-14
1.82606e-14
3.43137e-11
-4.85117e-14
1.41993e-14
3.03317e-11
-4.36929e-14
1.08816e-14
2.68854e-11
-3.94926e-14
8.19225e-15
2.39066e-11
-3.58246e-14
6.0035e-15
2.13204e-11
-3.2668e-14
4.20084e-15
1.90678e-11
-2.98499e-14
2.72188e-15
1.70995e-11
-2.71096e-14
1.50459e-15
1.53734e-11
5.31405e-16
1.38735e-11
-3.05094e-15
3.08845e-13
2.49899e-14
5.15386e-11
-1.23076e-13
2.32008e-14
4.37804e-11
-7.09292e-14
1.73657e-14
3.73746e-11
-6.19294e-14
1.28372e-14
3.20508e-11
-5.43765e-14
9.37292e-15
2.76247e-11
-4.81117e-14
6.67082e-15
2.39207e-11
-4.27871e-14
4.55708e-15
2.08052e-11
-3.82391e-14
2.88356e-15
1.81713e-11
-3.40117e-14
1.56537e-15
1.59321e-11
5.35396e-16
1.40436e-11
-3.90985e-15
2.37978e-13
4.34747e-14
6.94041e-11
-1.97212e-13
3.76028e-14
5.66109e-11
-1.01583e-13
2.69712e-14
4.65e-11
-8.54716e-14
1.92321e-14
3.84759e-11
-7.27794e-14
1.36119e-14
3.20726e-11
-6.25525e-14
9.45482e-15
2.69188e-11
-5.42597e-14
6.33341e-15
2.27398e-11
-4.73607e-14
3.9811e-15
1.93261e-11
-4.13378e-14
2.17838e-15
1.65169e-11
7.89689e-16
1.42167e-11
-4.7642e-15
1.55622e-13
-2.56898e-13
9.52721e-11
-2.91815e-13
-2.85913e-13
7.42544e-11
-1.43108e-13
-3.01527e-13
5.84629e-11
-1.15656e-13
-3.11564e-13
4.65309e-11
-9.50793e-14
-3.18215e-13
3.74238e-11
-7.92558e-14
-3.22602e-13
3.03919e-11
-6.68177e-14
-3.25468e-13
2.49034e-11
-5.69383e-14
-3.27324e-13
2.05773e-11
-4.84829e-14
-3.28507e-13
1.71325e-11
-3.33528e-13
1.43984e-11
-5.69293e-15
2.84134e-12
-7.18714e-10
1.60562e-10
2.30819e-12
-7.66106e-10
1.2197e-10
2.0882e-12
-7.70481e-10
9.58488e-11
1.8935e-12
-7.73672e-10
7.70534e-11
1.721e-12
-7.76178e-10
6.33762e-11
1.56872e-12
-7.78164e-10
5.32728e-11
1.43424e-12
-7.79752e-10
4.57164e-11
1.31529e-12
-7.81028e-10
4.00018e-11
1.19172e-12
-7.82105e-10
3.56339e-11
-7.96619e-10
3.25348e-11
-6.65678e-15
-2.59978e-10
1.28964e-07
-8.5588e-07
2.81871e-10
1.09166e-07
-9.37062e-07
2.9522e-10
9.53935e-08
-9.39004e-07
2.86018e-10
8.39944e-08
-9.40485e-07
2.76416e-10
7.44598e-08
-9.41775e-07
2.66786e-10
6.64185e-08
-9.42911e-07
2.57334e-10
5.95829e-08
-9.43925e-07
2.45488e-10
5.37296e-08
-9.44838e-07
1.20489e-10
4.86876e-08
-9.4573e-07
4.50758e-08
-7.69155e-15
-9.79767e-07
3.42235e-13
9.0066e-14
5.58729e-13
-1.87951e-14
8.49166e-14
5.49199e-13
-2.54885e-14
7.48257e-14
5.40245e-13
-2.4752e-14
6.50498e-14
5.29796e-13
-2.43542e-14
5.56115e-14
5.20562e-13
-2.41743e-14
4.64734e-14
5.12059e-13
-2.40248e-14
3.76416e-14
5.02422e-13
-2.38245e-14
2.91208e-14
4.94107e-13
-2.58257e-14
2.08325e-14
4.85682e-13
1.29595e-14
4.76902e-13
-1.58662e-15
2.84682e-13
8.46327e-14
7.76291e-13
-7.12261e-14
7.69352e-14
7.36711e-13
-8.58366e-14
6.51407e-14
6.99643e-13
-8.27554e-14
5.38908e-14
6.62978e-13
-8.04578e-14
4.30088e-14
6.29079e-13
-7.82776e-14
3.0805e-14
5.96483e-13
-7.59615e-14
2.1086e-14
5.66936e-13
-7.47094e-14
1.37988e-14
5.38124e-13
-7.87768e-14
7.66332e-15
5.1232e-13
2.56172e-15
4.8609e-13
-4.30732e-15
1.98749e-13
1.0691e-13
1.09637e-12
-1.80162e-13
9.52194e-14
9.99466e-13
-1.63227e-13
7.95989e-14
9.16282e-13
-1.54824e-13
6.52351e-14
8.34895e-13
-1.47398e-13
5.22977e-14
7.63602e-13
-1.4052e-13
4.05859e-14
6.9916e-13
-1.34239e-13
2.99791e-14
6.40959e-13
-1.28749e-13
2.04339e-14
5.88267e-13
-1.34422e-13
1.18421e-14
5.40121e-13
4.21036e-15
4.96924e-13
-6.89726e-15
7.65778e-14
1.31328e-13
1.57849e-12
-3.11496e-13
1.13676e-13
1.38e-12
-2.6309e-13
9.28134e-14
1.21381e-12
-2.43686e-13
7.44035e-14
1.0632e-12
-2.27368e-13
5.83366e-14
9.34387e-13
-2.12531e-13
4.43073e-14
8.23287e-13
-1.98854e-13
3.21125e-14
7.27886e-13
-1.87001e-13
2.14825e-14
6.45618e-13
-1.91638e-13
1.2206e-14
5.71703e-13
4.21917e-15
5.07026e-13
-9.85561e-15
-4.72976e-14
1.63133e-13
2.32188e-12
-4.78169e-13
1.36952e-13
1.93983e-12
-3.9093e-13
1.09055e-13
1.63077e-12
-3.53741e-13
8.52705e-14
1.36697e-12
-3.22869e-13
6.52878e-14
1.15215e-12
-2.9515e-13
4.85133e-14
9.75914e-13
-2.70563e-13
3.439e-14
8.2982e-13
-2.49676e-13
2.25394e-14
7.08306e-13
-2.51111e-13
1.25585e-14
6.06219e-13
4.29082e-15
5.19182e-13
-1.29864e-14
-1.87668e-13
2.04658e-13
3.50069e-12
-6.95813e-13
1.67073e-13
2.77396e-12
-5.55316e-13
1.29136e-13
2.22067e-12
-4.90028e-13
9.83336e-14
1.77427e-12
-4.36549e-13
7.3407e-14
1.43077e-12
-3.90334e-13
5.32018e-14
1.16179e-12
-3.50115e-13
3.68865e-14
9.50168e-13
-3.16806e-13
2.36462e-14
7.81502e-13
-3.12759e-13
1.2965e-14
6.45899e-13
4.2995e-15
5.32955e-13
-1.59755e-14
-6.13366e-13
2.58481e-13
5.4146e-12
-9.86158e-13
2.1087e-13
4.05001e-12
-7.66446e-13
1.58555e-13
3.06742e-12
-6.58777e-13
1.17845e-13
2.32602e-12
-5.72381e-13
8.625e-14
1.78934e-12
-4.99518e-13
6.16701e-14
1.39043e-12
-4.38466e-13
4.2393e-14
1.09086e-12
-3.88209e-13
2.72247e-14
8.64427e-13
-3.76947e-13
1.50435e-14
6.8734e-13
4.93625e-15
5.48315e-13
-1.90189e-14
-1.12798e-12
3.15175e-13
8.62251e-12
-1.37574e-12
2.23138e-13
6.04521e-12
-1.03872e-12
1.5767e-13
4.30512e-12
-8.67574e-13
1.09883e-13
3.08875e-12
-7.33634e-13
7.47639e-14
2.25761e-12
-6.2509e-13
4.85884e-14
1.67363e-12
-5.35858e-13
2.89044e-14
1.25925e-12
-4.64989e-13
1.39554e-14
9.57762e-13
-4.43109e-13
2.51321e-15
7.34783e-13
-6.25273e-15
5.64328e-13
-2.21628e-14
-1.95559e-12
7.8159e-12
1.60946e-11
-1.6494e-12
-2.77544e-11
8.62547e-12
-1.01335e-12
-2.5451e-11
5.80802e-12
-8.44935e-13
-2.35139e-11
4.04061e-12
-7.20044e-13
-2.2055e-11
2.92848e-12
-6.27138e-13
-2.09556e-11
2.20724e-12
-5.98203e-13
-2.01316e-11
1.72762e-12
-5.50815e-13
-1.95201e-11
1.40138e-12
-5.59939e-13
-1.90761e-11
1.17106e-12
-1.88955e-11
1.00115e-12
-2.53731e-14
-7.95084e-10
1.08498e-08
7.571e-08
-2.74986e-10
5.42455e-09
-1.54699e-09
-2.91759e-10
4.06582e-09
-1.72585e-09
-2.82141e-10
3.11724e-09
-1.70245e-09
-2.72358e-10
2.42887e-09
-1.6722e-09
-2.62682e-10
1.92012e-09
-1.63961e-09
-2.53263e-10
1.53804e-09
-1.60685e-09
-2.44222e-10
1.24692e-09
-1.57532e-09
-2.38534e-10
1.0223e-09
-1.55032e-09
8.53186e-10
-2.87593e-14
-1.80626e-09
3.44832e-13
8.2073e-14
1.98436e-14
-1.69132e-14
7.79095e-14
1.81951e-14
-2.22097e-14
6.87272e-14
1.6812e-14
-2.02247e-14
5.98712e-14
1.52649e-14
-1.86563e-14
5.13074e-14
1.35826e-14
-2.01928e-14
4.29758e-14
1.15106e-14
-1.89881e-14
3.50017e-14
1.06388e-14
-1.93862e-14
2.72476e-14
9.75896e-15
-2.34784e-14
1.97548e-14
8.91954e-15
1.26219e-14
8.96025e-15
-1.33574e-15
2.93485e-13
5.92784e-14
3.19361e-14
-6.50978e-14
5.44262e-14
2.86856e-14
-7.19029e-14
4.6143e-14
2.79546e-14
-6.68816e-14
3.82222e-14
2.34289e-14
-6.56902e-14
3.08594e-14
2.03634e-14
-6.25249e-14
2.40703e-14
1.85067e-14
-6.14284e-14
1.77734e-14
1.48249e-14
-6.07149e-14
1.20333e-14
1.30212e-14
-7.13413e-14
6.85421e-15
1.21689e-14
2.41026e-15
1.07483e-14
-4.42571e-15
2.14972e-13
7.58094e-14
4.82246e-14
-1.65515e-13
6.84769e-14
4.36298e-14
-1.36558e-13
5.76206e-14
4.21452e-14
-1.24956e-13
4.76757e-14
3.65759e-14
-1.18758e-13
3.86472e-14
3.08207e-14
-1.12615e-13
3.03692e-14
2.55506e-14
-1.07231e-13
2.3252e-14
2.18683e-14
-1.05192e-13
1.64399e-14
1.91659e-14
-1.21271e-13
9.54442e-15
1.64337e-14
3.33603e-15
1.36246e-14
-7.23835e-15
9.37179e-14
9.42317e-14
7.73489e-14
-2.89285e-13
8.25075e-14
7.16574e-14
-2.1905e-13
6.77322e-14
6.7361e-14
-1.95263e-13
5.47271e-14
5.551e-14
-1.82018e-13
4.34015e-14
4.62835e-14
-1.69005e-13
3.36659e-14
3.8966e-14
-1.53325e-13
2.55422e-14
3.27614e-14
-1.52656e-13
1.7061e-14
2.76471e-14
-1.73183e-13
9.78809e-15
2.47039e-14
3.47523e-15
1.8469e-14
-1.03791e-14
-2.4166e-14
1.18856e-13
1.32146e-13
-4.46436e-13
1.00248e-13
1.18919e-13
-3.2388e-13
8.02261e-14
1.07798e-13
-2.69612e-13
6.31035e-14
8.76023e-14
-2.45742e-13
4.88228e-14
7.075e-14
-2.23611e-13
3.69444e-14
5.77648e-14
-2.03506e-13
2.76711e-14
4.82977e-14
-2.01524e-13
1.838e-14
4.14564e-14
-2.2697e-13
1.03855e-14
3.55113e-14
3.60235e-15
2.5582e-14
-1.31713e-14
-1.60647e-13
1.51709e-13
2.29616e-13
-6.52129e-13
1.23977e-13
2.03988e-13
-4.40922e-13
9.58826e-14
1.73737e-13
-3.67168e-13
7.32572e-14
1.36178e-13
-3.26559e-13
5.5226e-14
1.07881e-13
-2.90058e-13
4.06843e-14
8.63072e-14
-2.58829e-13
2.94697e-14
7.06283e-14
-2.49484e-13
1.92529e-14
5.89405e-14
-2.82976e-13
1.04674e-14
4.73671e-14
3.60383e-15
3.3694e-14
-1.64777e-14
-5.75142e-13
1.93063e-13
4.0499e-13
-9.28827e-13
1.54314e-13
3.47043e-13
-5.85384e-13
1.15392e-13
2.78484e-13
-4.89326e-13
8.5578e-14
2.11325e-13
-4.23902e-13
6.26696e-14
1.61779e-13
-3.67502e-13
4.51676e-14
1.26159e-13
-3.19892e-13
3.24449e-14
1.00852e-13
-2.91501e-13
2.04533e-14
8.09464e-14
-3.4082e-13
1.11476e-14
6.59318e-14
3.87437e-15
4.38628e-14
-1.96622e-14
-1.10314e-12
3.1802e-13
7.33262e-13
-1.30265e-12
2.23031e-13
5.91574e-13
-7.85243e-13
1.56778e-13
4.47135e-13
-6.42708e-13
1.09714e-13
3.22357e-13
-5.40148e-13
7.60216e-14
2.38742e-13
-4.56031e-13
5.15808e-14
1.81103e-13
-3.88793e-13
3.36531e-14
1.38814e-13
-3.4122e-13
2.04483e-14
1.09123e-13
-4.00992e-13
1.0623e-14
8.76897e-14
3.39498e-15
5.5492e-14
-2.29914e-14
-2.10949e-12
3.73038e-11
4.30657e-12
-1.77965e-12
1.11792e-12
9.24097e-13
-1.04834e-12
5.62737e-13
6.37976e-13
-8.34698e-13
3.27783e-13
4.47251e-13
-6.80838e-13
1.56802e-13
3.2407e-13
-5.6131e-13
3.24481e-14
2.41521e-13
-4.6726e-13
-5.81262e-14
1.84791e-13
-4.00452e-13
-1.23789e-13
1.44461e-13
-4.67949e-13
-1.71148e-13
1.15425e-13
-2.02227e-13
7.62925e-14
-2.63266e-14
-4.7312e-10
4.72127e-09
6.80687e-08
-2.93473e-11
2.18963e-10
1.17313e-10
-2.9551e-11
1.13516e-10
-3.85699e-11
-2.47308e-11
7.50276e-11
-3.00671e-11
-2.07773e-11
5.11136e-11
-2.20916e-11
-1.76113e-11
3.56643e-11
-1.48151e-11
-1.50476e-11
2.5439e-11
-1.17504e-11
-1.29581e-11
1.85037e-11
-9.29467e-12
-1.12317e-11
1.37034e-11
-7.37241e-12
1.0193e-11
-2.98704e-14
-4.87197e-12
3.44979e-13
8.11502e-14
1.05301e-14
-1.68987e-14
7.71066e-14
9.44312e-15
-2.18714e-14
6.80546e-14
7.85859e-15
-1.97414e-14
5.92762e-14
6.28691e-15
-1.90629e-14
5.0825e-14
4.44043e-15
-1.94635e-14
4.26447e-14
3.57749e-15
-1.81816e-14
3.47149e-14
2.24864e-15
-1.91818e-14
2.70529e-14
1.15616e-15
-2.30956e-14
1.96718e-14
7.62338e-16
1.26124e-14
3.94967e-16
-1.55778e-15
2.9451e-13
5.81717e-14
1.77947e-14
-6.44214e-14
5.34808e-14
1.55001e-14
-7.08403e-14
4.53449e-14
1.59973e-14
-6.43192e-14
3.76507e-14
1.27258e-14
-6.23556e-14
3.04127e-14
9.19632e-15
-6.18133e-14
2.36914e-14
6.74383e-15
-5.88994e-14
1.7557e-14
5.63355e-15
-5.87391e-14
1.19184e-14
4.30686e-15
-7.04966e-14
6.79327e-15
3.1237e-15
2.4158e-15
2.14215e-15
-4.36738e-15
2.17466e-13
7.39705e-14
2.57984e-14
-1.63441e-13
6.68963e-14
2.42887e-14
-1.32438e-13
5.61989e-14
2.58228e-14
-1.16724e-13
4.62729e-14
1.97269e-14
-1.13583e-13
3.73814e-14
1.64078e-14
-1.03658e-13
2.93356e-14
1.36246e-14
-9.86485e-14
2.1819e-14
1.0715e-14
-1.02784e-13
1.5033e-14
8.78086e-15
-1.19775e-13
9.38335e-15
7.53793e-15
3.1116e-15
5.52894e-15
-7.14164e-15
9.70069e-14
9.19529e-14
4.26052e-14
-2.8572e-13
8.0458e-14
4.2483e-14
-2.11981e-13
6.59824e-14
4.4735e-14
-1.79128e-13
5.32571e-14
3.6508e-14
-1.67039e-13
4.2019e-14
2.98515e-14
-1.55602e-13
3.21631e-14
2.50514e-14
-1.44455e-13
2.35587e-14
2.07418e-14
-1.46946e-13
1.59868e-14
1.76607e-14
-1.71289e-13
9.57467e-15
1.48505e-14
3.5491e-15
1.01721e-14
-1.0484e-14
-1.8904e-14
1.15856e-13
7.46312e-14
-4.40471e-13
9.78563e-14
7.79375e-14
-2.97707e-13
7.8169e-14
7.65867e-14
-2.58239e-13
6.13213e-14
6.15308e-14
-2.34927e-13
4.73118e-14
5.1613e-14
-2.1378e-13
3.5492e-14
4.2439e-14
-1.94858e-13
2.55575e-14
3.53187e-14
-1.90097e-13
1.74957e-14
3.08212e-14
-2.24502e-13
9.67185e-15
2.74137e-14
3.567e-15
1.7816e-14
-1.33281e-14
-1.53047e-13
1.47766e-13
1.33092e-13
-6.42924e-13
1.2084e-13
1.37419e-13
-4.13371e-13
9.33472e-14
1.29778e-13
-3.54789e-13
7.12723e-14
1.04412e-13
-3.15614e-13
5.35061e-14
8.47653e-14
-2.80387e-13
3.9081e-14
7.02904e-14
-2.50127e-13
2.7415e-14
5.84073e-14
-2.34118e-13
1.79351e-14
4.86681e-14
-2.79671e-13
1.04964e-14
4.2892e-14
3.67519e-15
2.76911e-14
-1.66687e-14
-5.57586e-13
1.88563e-13
2.37691e-13
-9.14432e-13
1.50561e-13
2.45909e-13
-5.63866e-13
1.12597e-13
2.1496e-13
-4.75215e-13
8.32933e-14
1.69392e-13
-4.11587e-13
6.08079e-14
1.34568e-13
-3.56843e-13
4.34121e-14
1.0926e-13
-3.11672e-13
2.97064e-14
8.82365e-14
-2.80609e-13
1.89798e-14
7.4163e-14
-3.37446e-13
1.08763e-14
6.24953e-14
3.43916e-15
4.02049e-14
-1.98723e-14
-1.07651e-12
3.12552e-13
4.28885e-13
-1.2794e-12
1.75301e-13
4.29157e-13
-7.61961e-13
1.75308e-13
3.5229e-13
-6.25327e-13
1.24417e-13
2.69028e-13
-5.25821e-13
8.71296e-14
2.07806e-13
-4.4506e-13
5.98518e-14
1.62857e-13
-3.79531e-13
3.97113e-14
1.3071e-13
-3.31409e-13
2.47447e-14
1.06241e-13
-3.97604e-13
1.3461e-14
8.68984e-14
5.05578e-15
5.69898e-14
-2.29521e-14
-2.07455e-12
3.77461e-11
6.25011e-12
-1.74139e-12
5.69488e-13
7.81613e-13
-1.02157e-12
2.27624e-13
5.74975e-13
-8.13556e-13
1.49361e-13
4.22871e-13
-6.63162e-13
9.76793e-14
3.14336e-13
-5.46157e-13
6.24831e-14
2.39447e-13
-4.54261e-13
3.82847e-14
1.84784e-13
-3.87342e-13
2.14604e-14
1.45876e-13
-4.59493e-13
9.68125e-15
1.15194e-13
1.51766e-15
7.08477e-14
-2.6489e-14
-4.39981e-10
6.87952e-09
6.76142e-08
-4.92696e-12
5.19329e-11
1.71046e-10
-1.92816e-12
3.53557e-12
6.02205e-13
-2.05213e-12
2.0102e-12
2.13679e-13
-1.58151e-12
1.27965e-12
2.30369e-13
-1.2345e-12
8.50367e-13
2.63061e-13
-9.78717e-13
5.84198e-13
2.48837e-13
-7.91755e-13
4.13693e-13
2.30543e-13
-7.14685e-13
2.98793e-13
2.11675e-13
1.89423e-13
-3.01035e-14
2.54728e-13
3.44854e-13
8.12481e-14
1.84457e-14
-1.72426e-14
7.71762e-14
1.57835e-14
-2.18568e-14
6.81478e-14
1.33255e-14
-2.0469e-14
5.93524e-14
7.69197e-15
-1.73812e-14
5.08766e-14
7.98876e-15
-1.9876e-14
4.26572e-14
3.58525e-15
-1.91047e-14
3.47671e-14
4.96179e-15
-1.88516e-14
2.71234e-14
4.07675e-15
-2.31015e-14
1.97111e-14
8.85286e-16
1.2643e-14
1.99129e-16
-1.78742e-15
2.94216e-13
5.82827e-14
2.73397e-14
-6.46236e-14
5.35977e-14
2.68298e-14
-7.09802e-14
4.5423e-14
2.01129e-14
-6.53812e-14
3.76681e-14
1.70575e-14
-6.2889e-14
3.04817e-14
1.13613e-14
-6.07908e-14
2.3782e-14
9.4506e-15
-5.91308e-14
1.75972e-14
6.42847e-15
-5.92022e-14
1.19544e-14
7.5992e-15
-7.05755e-14
6.84583e-15
6.26541e-15
2.47325e-15
1.72161e-15
-4.34461e-15
2.17088e-13
7.41393e-14
4.26659e-14
-1.64008e-13
6.70336e-14
3.74992e-14
-1.33703e-13
5.635e-14
3.59979e-14
-1.14719e-13
4.65082e-14
3.29904e-14
-1.11226e-13
3.74888e-14
2.33531e-14
-1.04996e-13
2.94164e-14
1.71873e-14
-9.8538e-14
2.19865e-14
1.53456e-14
-1.02929e-13
1.51882e-14
1.23617e-14
-1.19704e-13
9.24789e-15
1.3515e-14
3.05713e-15
6.28673e-15
-7.43763e-15
9.65961e-14
9.22535e-14
6.64439e-14
-2.86445e-13
8.07818e-14
6.32453e-14
-2.12757e-13
6.61983e-14
6.25773e-14
-1.79578e-13
5.33616e-14
5.08239e-14
-1.66869e-13
4.22001e-14
4.15814e-14
-1.56145e-13
3.22379e-14
3.37553e-14
-1.44401e-13
2.35703e-14
3.1487e-14
-1.47598e-13
1.61274e-14
2.51598e-14
-1.714e-13
9.95816e-15
2.59859e-14
3.74151e-15
1.97362e-14
-1.0172e-14
-1.95716e-14
1.16343e-13
1.0957e-13
-4.41869e-13
9.82135e-14
1.10271e-13
-2.99768e-13
7.85432e-14
1.0889e-13
-2.58006e-13
6.16826e-14
9.26801e-14
-2.35788e-13
4.75505e-14
7.38181e-14
-2.14428e-13
3.57935e-14
6.57321e-14
-1.94787e-13
2.59112e-14
5.70003e-14
-1.88155e-13
1.72872e-14
4.38948e-14
-2.24976e-13
9.49081e-15
3.65882e-14
3.6901e-15
2.4728e-14
-1.33233e-14
-1.54418e-13
1.48522e-13
1.91848e-13
-6.44909e-13
1.21562e-13
2.03531e-13
-4.14875e-13
9.38754e-14
1.8191e-13
-3.55858e-13
7.17062e-14
1.48436e-13
-3.16182e-13
5.3883e-14
1.21153e-13
-2.81232e-13
3.93842e-14
1.01871e-13
-2.50975e-13
2.75686e-14
8.04094e-14
-2.33443e-13
1.8305e-14
7.61831e-14
-2.80412e-13
1.07433e-14
6.02401e-14
3.81209e-15
3.86822e-14
-1.65896e-14
-5.61182e-13
1.89717e-13
3.40486e-13
-9.18271e-13
1.51559e-13
3.50574e-13
-5.65787e-13
1.13399e-13
3.12125e-13
-4.77036e-13
8.39274e-14
2.38886e-13
-4.12806e-13
6.13282e-14
1.94687e-13
-3.58441e-13
4.37779e-14
1.53568e-13
-3.12388e-13
3.01371e-14
1.27819e-13
-2.81368e-13
1.91876e-14
1.04855e-13
-3.38613e-13
1.11338e-14
8.70072e-14
4.04417e-15
5.57196e-14
-1.98387e-14
-1.08361e-12
3.15383e-13
6.06241e-13
-1.2857e-12
1.78029e-13
6.15928e-13
-7.65371e-13
1.39423e-13
5.0482e-13
-6.2829e-13
1.00531e-13
3.82673e-13
-5.28308e-13
7.19534e-14
2.98261e-13
-4.4696e-13
5.36068e-14
2.3565e-13
-3.81203e-13
3.64391e-14
1.84721e-13
-3.32951e-13
2.3018e-14
1.51877e-13
-3.9915e-13
1.25958e-14
1.2329e-13
4.82946e-15
7.79687e-14
-2.31516e-14
-2.09596e-12
3.91228e-11
9.37516e-12
-1.75093e-12
5.26026e-13
1.12585e-12
-1.02756e-12
1.5453e-13
8.17625e-13
-8.18765e-13
1.67811e-13
5.93814e-13
-6.67004e-13
1.10358e-13
4.466e-13
-5.49514e-13
6.99423e-14
3.39035e-13
-4.56649e-13
3.62354e-14
2.59617e-13
-3.89681e-13
1.72226e-14
2.08278e-13
-4.61993e-13
8.52269e-15
1.67262e-13
3.27717e-15
1.06718e-13
-2.65504e-14
-4.57569e-10
1.09032e-08
7.13175e-08
-3.95932e-12
7.8795e-11
1.86845e-10
-1.29889e-12
1.44887e-12
6.00624e-13
-1.06969e-12
8.06265e-13
1.44657e-13
-8.43142e-13
5.65996e-13
8.38999e-14
-6.7298e-13
4.10309e-13
5.88963e-14
-5.44759e-13
3.05324e-13
4.48053e-14
-4.52384e-13
2.32119e-13
3.50581e-14
-5.2939e-13
1.79032e-13
2.79255e-14
1.09702e-13
-3.01259e-14
2.32522e-14
3.44533e-13
8.14048e-14
2.19045e-14
-1.75776e-14
7.73244e-14
1.50434e-14
-2.24865e-14
6.82252e-14
1.8077e-14
-1.98962e-14
5.94596e-14
1.31627e-14
-1.96202e-14
5.09241e-14
7.56409e-15
-1.9182e-14
4.2725e-14
4.75942e-15
-1.88859e-14
3.47935e-14
2.2037e-15
-1.96775e-14
2.71599e-14
1.11203e-15
-2.31408e-14
1.9779e-14
8.43894e-16
1.26739e-14
1.19473e-15
-1.54651e-15
2.93822e-13
5.84715e-14
3.67257e-14
-6.52678e-14
5.37584e-14
3.32384e-14
-7.05167e-14
4.55956e-14
3.19885e-14
-6.68379e-14
3.779e-14
2.09195e-14
-6.18177e-14
3.06106e-14
2.16302e-14
-6.16624e-14
2.38607e-14
1.22443e-14
-5.74452e-14
1.76834e-14
8.64792e-15
-5.91371e-14
1.20157e-14
5.27287e-15
-7.08937e-14
6.90891e-15
4.48189e-15
2.53448e-15
3.79809e-15
-4.36023e-15
2.16396e-13
7.44521e-14
4.67423e-14
-1.64998e-13
6.72915e-14
4.99365e-14
-1.33936e-13
5.65568e-14
5.26373e-14
-1.15395e-13
4.6664e-14
4.23655e-14
-1.14203e-13
3.76044e-14
3.15689e-14
-1.04065e-13
2.95356e-14
2.60662e-14
-9.91734e-14
2.21384e-14
1.79404e-14
-1.02509e-13
1.53644e-14
1.86119e-14
-1.20014e-13
9.4614e-15
1.21427e-14
3.47725e-15
8.30936e-15
-7.45194e-15
9.57783e-14
9.27396e-14
8.89474e-14
-2.87768e-13
8.12024e-14
8.67425e-14
-2.1354e-13
6.65699e-14
9.00962e-14
-1.80221e-13
5.37105e-14
7.43808e-14
-1.67726e-13
4.25195e-14
5.82968e-14
-1.55806e-13
3.25651e-14
4.2652e-14
-1.45189e-13
2.37978e-14
3.48878e-14
-1.47532e-13
1.62692e-14
3.44249e-14
-1.71595e-13
9.94298e-15
2.65575e-14
3.54556e-15
1.5526e-14
-1.03027e-14
-2.09805e-14
1.1712e-13
1.55064e-13
-4.43895e-13
9.89101e-14
1.58798e-13
-3.00654e-13
7.90546e-14
1.55542e-13
-2.59147e-13
6.2104e-14
1.2554e-13
-2.36323e-13
4.78789e-14
1.03834e-13
-2.15423e-13
3.60873e-14
8.3493e-14
-1.95319e-13
2.60178e-14
6.19306e-14
-1.89351e-13
1.7576e-14
5.32462e-14
-2.25457e-13
9.94276e-15
4.48662e-14
3.99717e-15
2.87677e-14
-1.32954e-14
-1.56576e-13
1.49764e-13
2.70118e-13
-6.4847e-13
1.22553e-13
2.81756e-13
-4.16635e-13
9.47474e-14
2.61732e-13
-3.5759e-13
7.23578e-14
2.05366e-13
-3.17129e-13
5.44726e-14
1.66564e-13
-2.83177e-13
3.97719e-14
1.25082e-13
-2.51426e-13
2.80497e-14
1.127e-13
-2.34371e-13
1.84505e-14
8.30838e-14
-2.81409e-13
1.09856e-14
7.00017e-14
3.89333e-15
4.55389e-14
-1.64907e-14
-5.67426e-13
1.91493e-13
4.84004e-13
-9.23815e-13
1.53128e-13
4.97647e-13
-5.69853e-13
1.1457e-13
4.25989e-13
-4.79341e-13
8.4893e-14
3.36439e-13
-4.15431e-13
6.20542e-14
2.63808e-13
-3.60169e-13
4.44459e-14
2.08935e-13
-3.14191e-13
3.06343e-14
1.65997e-13
-2.82397e-13
1.96642e-14
1.25534e-13
-3.40213e-13
1.14776e-14
1.04565e-13
4.44006e-15
6.56104e-14
-1.97466e-14
-1.09507e-12
3.197e-13
8.73088e-13
-1.29542e-12
1.80748e-13
8.70784e-13
-7.7116e-13
1.40771e-13
7.03562e-13
-6.32748e-13
1.01516e-13
5.30218e-13
-5.31967e-13
7.26534e-14
4.03552e-13
-4.5005e-13
5.38151e-14
3.10219e-13
-3.83752e-13
3.69075e-14
2.44345e-13
-3.35102e-13
2.35172e-14
1.8142e-13
-4.01433e-13
1.30381e-14
1.44141e-13
5.17582e-15
9.04145e-14
-2.30894e-14
-2.1298e-12
4.15017e-11
1.25032e-11
-1.76504e-12
5.42989e-13
1.58971e-12
-1.03705e-12
1.5768e-13
1.14725e-12
-8.25923e-13
1.65545e-13
8.29645e-13
-6.72816e-13
1.08109e-13
6.06681e-13
-5.54358e-13
6.67486e-14
4.51348e-13
-4.602e-13
3.15259e-14
3.29172e-13
-3.9285e-13
1.74798e-14
2.64574e-13
-4.65517e-13
9.06285e-15
1.97334e-13
3.6997e-15
1.20183e-13
-2.65775e-14
-4.88817e-10
1.5006e-08
7.6751e-08
-4.07027e-12
1.16613e-10
2.02805e-10
-1.30186e-12
2.18604e-12
6.20938e-13
-1.06781e-12
1.16808e-12
8.55534e-14
-8.43161e-13
8.32393e-13
6.37797e-14
-6.73844e-13
6.01126e-13
4.95809e-14
-5.46133e-13
4.40244e-13
3.92141e-14
-4.5393e-13
3.29304e-13
3.15469e-14
-5.32132e-13
2.53256e-13
2.57793e-14
1.50098e-13
-3.02872e-14
2.14463e-14
3.44041e-13
8.16075e-14
2.84614e-14
-1.78493e-14
7.75199e-14
2.79987e-14
-2.30402e-14
6.83513e-14
2.22412e-14
-2.01094e-14
5.9564e-14
1.75907e-14
-1.9906e-14
5.105e-14
8.44431e-15
-1.97805e-14
4.2814e-14
6.05575e-15
-1.89955e-14
3.48897e-14
5.10817e-15
-1.94701e-14
2.72298e-14
4.53789e-15
-2.30985e-14
1.98457e-14
8.35119e-15
1.27499e-14
2.25992e-14
-1.62782e-15
2.9328e-13
5.86763e-14
4.91627e-14
-6.58553e-14
5.39442e-14
4.48039e-14
-7.12494e-14
4.57729e-14
4.39525e-14
-6.58071e-14
3.79549e-14
3.42214e-14
-6.42005e-14
3.06953e-14
2.02012e-14
-6.09557e-14
2.39733e-14
1.24657e-14
-5.96344e-14
1.77722e-14
1.04676e-14
-5.88081e-14
1.21344e-14
1.01498e-14
-7.08244e-14
6.99252e-15
9.23823e-15
2.60148e-15
1.85317e-14
-4.44545e-15
2.15587e-13
7.48482e-14
7.18877e-14
-1.6609e-13
6.75984e-14
6.87404e-14
-1.34365e-13
5.68254e-14
6.91374e-14
-1.17134e-13
4.68795e-14
5.53175e-14
-1.11934e-13
3.78208e-14
4.28924e-14
-1.05769e-13
2.96484e-14
2.44468e-14
-9.79752e-14
2.23136e-14
1.94087e-14
-1.03408e-13
1.54131e-14
2.08457e-14
-1.20096e-13
9.76687e-15
2.06297e-14
3.33046e-15
2.09482e-14
-7.57012e-15
9.47567e-14
9.3345e-14
1.1496e-13
-2.89263e-13
8.17422e-14
1.18882e-13
-2.14453e-13
6.70145e-14
1.18853e-13
-1.81272e-13
5.409e-14
9.54544e-14
-1.68471e-13
4.29021e-14
7.75119e-14
-1.56336e-13
3.29599e-14
5.92194e-14
-1.45101e-13
2.40439e-14
3.78694e-14
-1.47614e-13
1.64812e-14
3.19223e-14
-1.72189e-13
9.66374e-15
3.30315e-14
4.04914e-15
2.98606e-14
-1.01616e-14
-2.27205e-14
1.18073e-13
2.00466e-13
-4.46305e-13
9.97228e-14
2.09986e-13
-3.02717e-13
7.97343e-14
2.00817e-13
-2.60181e-13
6.26285e-14
1.62831e-13
-2.3724e-13
4.82882e-14
1.31759e-13
-2.16763e-13
3.64071e-14
1.07566e-13
-1.95712e-13
2.63871e-14
6.90633e-14
-1.92155e-13
1.7732e-14
5.52692e-14
-2.26061e-13
1.04581e-14
4.91877e-14
4.21255e-15
4.4706e-14
-1.34343e-14
-1.5935e-13
1.51289e-13
3.57933e-13
-6.52466e-13
1.23775e-13
3.71594e-13
-4.19676e-13
9.57072e-14
3.37356e-13
-3.59479e-13
7.32051e-14
2.71171e-13
-3.18794e-13
5.51792e-14
2.16629e-13
-2.84479e-13
4.03601e-14
1.77517e-13
-2.53105e-13
2.84675e-14
1.14764e-13
-2.34852e-13
1.88388e-14
8.82488e-14
-2.82538e-13
1.13873e-14
7.35097e-14
4.12535e-15
6.40043e-14
-1.65651e-14
-5.75206e-13
1.93995e-13
6.33911e-13
-9.30643e-13
1.55022e-13
6.47229e-13
-5.73838e-13
1.16039e-13
5.58663e-13
-4.82796e-13
8.60168e-14
4.35066e-13
-4.18197e-13
6.29319e-14
3.42003e-13
-3.62475e-13
4.5167e-14
2.72971e-13
-3.16645e-13
3.13277e-14
2.08461e-13
-2.83492e-13
2.01466e-14
1.35458e-13
-3.42168e-13
1.17646e-14
1.07257e-13
4.80548e-15
7.54194e-14
-1.97433e-14
-1.10937e-12
3.22909e-13
1.13772e-12
-1.3069e-12
1.83152e-13
1.12322e-12
-7.78123e-13
1.43017e-13
9.1135e-13
-6.38326e-13
1.03182e-13
6.86766e-13
-5.36413e-13
7.39452e-14
5.24647e-13
-4.53476e-13
5.45904e-14
4.08498e-13
-3.87466e-13
3.76705e-14
3.16451e-13
-3.37494e-13
2.42225e-14
1.99289e-13
-4.04306e-13
1.36495e-14
1.52154e-13
5.65718e-15
9.58435e-14
-2.31629e-14
-2.14952e-12
4.12639e-11
1.29423e-11
-1.78479e-12
5.2977e-13
2.01249e-12
-1.04871e-12
1.59031e-13
1.48793e-12
-8.3482e-13
1.68866e-13
1.07363e-12
-6.79957e-13
1.1057e-13
7.94669e-13
-5.59974e-13
6.8748e-14
5.9704e-13
-4.65181e-13
3.26687e-14
4.54367e-13
-3.96449e-13
1.8157e-14
2.84545e-13
-4.69873e-13
9.51174e-15
2.09229e-13
4.16315e-15
1.25054e-13
-2.66438e-14
-4.92322e-10
1.59932e-08
8.05619e-08
-3.96824e-12
1.04713e-10
2.0193e-10
-1.31585e-12
2.71599e-12
5.34785e-13
-1.0817e-12
1.64757e-12
8.47623e-14
-8.53735e-13
1.17528e-12
6.4021e-14
-6.82184e-13
8.51691e-13
5.00633e-14
-5.53172e-13
6.28337e-13
3.98169e-14
-4.59263e-13
4.49368e-13
3.22614e-14
-5.38265e-13
2.79967e-13
2.64975e-14
1.62103e-13
-3.02529e-14
2.23139e-14
3.43738e-13
8.18117e-14
2.31979e-14
-1.84998e-14
7.75927e-14
9.08964e-15
-2.30926e-14
6.84832e-14
1.06667e-14
-2.06599e-14
5.96734e-14
9.99654e-15
-2.0205e-14
5.11529e-14
1.49542e-14
-2.0312e-14
4.29454e-14
2.49164e-14
-1.99092e-14
3.5049e-14
4.21517e-14
-2.01377e-14
2.7458e-14
1.37783e-13
-2.13828e-14
2.01645e-14
5.49295e-13
1.30093e-14
1.74672e-12
-5.97894e-15
2.92573e-13
5.89106e-14
3.66578e-14
-6.62786e-14
5.4094e-14
1.5764e-14
-7.17275e-14
4.5868e-14
2.24006e-14
-6.68169e-14
3.80658e-14
1.97987e-14
-6.4174e-14
3.0825e-14
1.7355e-14
-6.12812e-14
2.41131e-14
3.09315e-14
-5.9659e-14
1.79141e-14
4.36599e-14
-6.18126e-14
1.22968e-14
9.91446e-14
-7.21099e-14
7.25384e-15
3.29519e-13
2.75198e-15
1.13403e-12
-6.00106e-15
2.1457e-13
7.51789e-14
5.19743e-14
-1.67118e-13
6.78497e-14
2.5781e-14
-1.34681e-13
5.70888e-14
3.68282e-14
-1.18562e-13
4.70839e-14
3.37237e-14
-1.11505e-13
3.80698e-14
3.35835e-14
-1.06354e-13
2.99261e-14
4.14984e-14
-9.91823e-14
2.25919e-14
5.60617e-14
-1.0394e-13
1.55785e-14
8.69991e-14
-1.23168e-13
9.29197e-15
2.23093e-13
3.53255e-15
7.41591e-13
-5.66582e-15
9.38527e-14
9.39558e-14
8.72372e-14
-2.90497e-13
8.2151e-14
5.33694e-14
-2.15694e-13
6.73585e-14
6.8174e-14
-1.81535e-13
5.44404e-14
6.22261e-14
-1.68786e-13
4.31873e-14
5.99962e-14
-1.5686e-13
3.32011e-14
5.53395e-14
-1.46583e-13
2.44008e-14
7.42607e-14
-1.48665e-13
1.69165e-14
9.32443e-14
-1.75494e-13
9.9404e-15
1.76878e-13
4.37937e-15
5.17913e-13
-7.39101e-15
-2.43369e-14
1.19069e-13
1.52012e-13
-4.48173e-13
1.00417e-13
1.12387e-13
-3.03455e-13
8.0339e-14
1.26153e-13
-2.61411e-13
6.32127e-14
1.11866e-13
-2.37838e-13
4.88007e-14
1.01649e-13
-2.17378e-13
3.69403e-14
1.27772e-13
-1.97005e-13
2.66282e-14
1.03732e-13
-1.95536e-13
1.7948e-14
1.14507e-13
-2.29541e-13
1.09058e-14
1.66511e-13
4.19987e-15
3.89391e-13
-1.23211e-14
-1.62126e-13
1.52781e-13
2.69706e-13
-6.55417e-13
1.24794e-13
2.22521e-13
-4.21052e-13
9.66234e-14
2.25983e-13
-3.61732e-13
7.39682e-14
1.93401e-13
-3.1943e-13
5.58726e-14
1.68929e-13
-2.86888e-13
4.09206e-14
1.91114e-13
-2.54395e-13
2.90387e-14
1.49653e-13
-2.36389e-13
1.93075e-14
1.56375e-13
-2.86593e-13
1.17043e-14
1.80031e-13
4.80456e-15
3.18941e-13
-1.59397e-14
-5.83019e-13
1.97953e-13
4.83245e-13
-9.35292e-13
1.56644e-13
4.20999e-13
-5.77262e-13
1.17323e-13
3.91534e-13
-4.85749e-13
8.71206e-14
3.22763e-13
-4.20239e-13
6.3839e-14
2.7023e-13
-3.6517e-13
4.5961e-14
2.76033e-13
-3.19002e-13
3.20338e-14
1.7483e-13
-2.86039e-13
2.07335e-14
2.06976e-13
-3.4667e-13
1.22797e-14
2.13098e-13
5.09609e-15
2.85269e-13
-1.91971e-14
-1.12273e-12
3.18308e-13
8.60751e-13
-1.3148e-12
1.83806e-13
7.68032e-13
-7.83655e-13
1.45353e-13
6.60737e-13
-6.43039e-13
1.04766e-13
5.23341e-13
-5.40103e-13
7.53301e-14
4.20872e-13
-4.56902e-13
5.53453e-14
4.07445e-13
-3.91582e-13
3.87111e-14
3.88662e-13
-3.40546e-13
2.49318e-14
2.23724e-13
-4.0996e-13
1.43446e-14
2.62961e-13
6.25572e-15
2.76613e-13
-2.27717e-14
-2.06998e-12
2.44905e-11
4.38205e-12
-1.81314e-12
3.83188e-13
1.33482e-12
-1.0584e-12
2.62468e-13
1.09054e-12
-8.41875e-13
1.72524e-13
8.27049e-13
-6.86295e-13
1.13301e-13
6.44052e-13
-5.64869e-13
7.10957e-14
6.05869e-13
-4.71638e-13
3.40616e-14
5.48916e-13
-4.00348e-13
1.90084e-14
2.92076e-13
-4.76752e-13
1.0061e-14
3.25014e-13
4.75516e-15
2.86347e-13
-2.64853e-14
-3.09391e-10
1.09002e-09
6.71046e-08
-2.81137e-12
-2.8733e-11
8.18411e-11
-1.31552e-12
1.54682e-12
4.2136e-14
-1.09466e-12
1.32411e-12
8.31172e-14
-8.63404e-13
1.05567e-12