/*--------------------------------*- C++ -*----------------------------------*\
| =========                 |                                                 |
| \\      /  F ield         | OpenFOAM: The Open Source CFD Toolbox           |
|  \\    /   O peration     | Version:  4.1                                   |
|   \\  /    A nd           | Web:      www.OpenFOAM.org                      |
|    \\/     M anipulation  |                                                 |
\*---------------------------------------------------------------------------*/
FoamFile
{
    version     2.0;
    format      ascii;
    class       volVectorField;
    location    "0.56";
    object      U;
}
// * * * * * * * * * * * * * * * * * * * * * * * * * * * * * * * * * * * * * //

dimensions      [0 1 -1 0 0 0 0];

internalField   nonuniform List<vector> 
18000
(
(8.30373e-14 3.88446e-13 -6.13067e-12)
(8.87035e-14 3.87381e-13 -6.06115e-12)
(8.01005e-14 -9.88604e-15 -5.99201e-12)
(7.17084e-14 -1.27626e-14 -5.92421e-12)
(6.35459e-14 -1.25412e-14 -5.85704e-12)
(5.55987e-14 -1.22471e-14 -5.79077e-12)
(4.79153e-14 -1.22274e-14 -5.72521e-12)
(4.05225e-14 -1.22174e-14 -5.66089e-12)
(3.33217e-14 -1.20335e-14 -5.59746e-12)
(2.63787e-14 -9.19887e-15 -5.5359e-12)
(1.19149e-13 4.00757e-13 -7.6768e-12)
(1.33765e-13 3.8926e-13 -7.40598e-12)
(1.17407e-13 -4.41481e-14 -7.14415e-12)
(1.01921e-13 -4.56906e-14 -6.89416e-12)
(8.75301e-14 -4.41456e-14 -6.65486e-12)
(7.41221e-14 -4.24668e-14 -6.42561e-12)
(6.15214e-14 -4.08856e-14 -6.20563e-12)
(4.98925e-14 -3.95253e-14 -5.99505e-12)
(3.89579e-14 -3.8091e-14 -5.79257e-12)
(2.87934e-14 -2.8637e-14 -5.60195e-12)
(1.28481e-13 4.0578e-13 -9.73028e-12)
(1.39964e-13 3.8014e-13 -9.13713e-12)
(1.15974e-13 -9.32868e-14 -8.58196e-12)
(9.44842e-14 -9.08073e-14 -8.06853e-12)
(7.53925e-14 -8.49918e-14 -7.59157e-12)
(5.84185e-14 -7.9901e-14 -7.14859e-12)
(4.32492e-14 -7.51576e-14 -6.7374e-12)
(2.97434e-14 -7.0747e-14 -6.35414e-12)
(1.77119e-14 -6.67163e-14 -5.99749e-12)
(7.02413e-15 -4.89475e-14 -5.66925e-12)
(1.73125e-13 3.97905e-13 -1.24949e-11)
(1.77676e-13 3.52728e-13 -1.1387e-11)
(1.42492e-13 -1.63495e-13 -1.03901e-11)
(1.12494e-13 -1.51905e-13 -9.49578e-12)
(8.7106e-14 -1.38346e-13 -8.69442e-12)
(6.55255e-14 -1.26281e-13 -7.97415e-12)
(4.72668e-14 -1.15552e-13 -7.32538e-12)
(3.16401e-14 -1.05947e-13 -6.73993e-12)
(1.8388e-14 -9.71494e-14 -6.21079e-12)
(7.16581e-15 -6.98443e-14 -5.73758e-12)
(2.38537e-13 3.66147e-13 -1.62767e-11)
(2.29336e-13 2.95003e-13 -1.4348e-11)
(1.77291e-13 -2.64177e-13 -1.26825e-11)
(1.35132e-13 -2.35617e-13 -1.12434e-11)
(1.01272e-13 -2.07553e-13 -9.99927e-12)
(7.39463e-14 -1.83681e-13 -8.91889e-12)
(5.17869e-14 -1.6331e-13 -7.97769e-12)
(3.37786e-14 -1.45798e-13 -7.15515e-12)
(1.91263e-14 -1.30283e-13 -6.43368e-12)
(7.2432e-15 -9.16123e-14 -5.80719e-12)
(3.36925e-13 2.92651e-13 -2.15374e-11)
(3.01914e-13 1.8605e-13 -1.82973e-11)
(2.23652e-13 -4.10181e-13 -1.56204e-11)
(1.63894e-13 -3.50401e-13 -1.33984e-11)
(1.18529e-13 -2.97796e-13 -1.15506e-11)
(8.37244e-14 -2.55024e-13 -1.00038e-11)
(5.68704e-14 -2.19919e-13 -8.70248e-12)
(3.60667e-14 -1.90726e-13 -7.60201e-12)
(1.9926e-14 -1.65986e-13 -6.66631e-12)
(7.34357e-15 -1.14278e-13 -5.87778e-12)
(4.88866e-13 1.45441e-13 -2.89849e-11)
(4.05563e-13 -9.56571e-15 -2.36456e-11)
(2.86026e-13 -6.25025e-13 -1.94242e-11)
(2.00452e-13 -5.09658e-13 -1.60773e-11)
(1.39257e-13 -4.16138e-13 -1.34054e-11)
(9.47868e-14 -3.43832e-13 -1.1254e-11)
(6.22089e-14 -2.8694e-13 -9.50907e-12)
(3.81929e-14 -2.41544e-13 -8.08318e-12)
(2.03916e-14 -2.04683e-13 -6.90961e-12)
(7.11685e-15 -1.37879e-13 -5.94948e-12)
(-1.08189e-12 -1.33935e-13 -3.97619e-11)
(-1.23486e-12 -3.54852e-13 -3.09965e-11)
(-1.3207e-12 -9.45289e-13 -2.44096e-11)
(-1.35256e-12 -7.32247e-13 -1.94357e-11)
(-1.35304e-12 -5.72178e-13 -1.56372e-11)
(-1.3349e-12 -4.54787e-13 -1.27029e-11)
(-1.30602e-12 -3.66476e-13 -1.04116e-11)
(-1.27124e-12 -2.9893e-13 -8.60492e-12)
(-1.23368e-12 -2.46365e-13 -7.16585e-12)
(-1.2108e-12 -1.6237e-13 -6.02479e-12)
(-4.41052e-09 -9.2387e-13 -7.61247e-11)
(-4.36916e-09 -9.09578e-13 -5.93466e-11)
(-4.10608e-09 -1.16524e-12 -4.69869e-11)
(-3.86947e-09 -8.02516e-13 -3.78536e-11)
(-3.65704e-09 -5.58263e-13 -3.09978e-11)
(-3.46557e-09 -3.92049e-13 -2.57558e-11)
(-3.29231e-09 -2.76705e-13 -2.16831e-11)
(-3.1349e-09 -1.95542e-13 -1.8472e-11)
(-2.99155e-09 -1.78691e-13 -1.59049e-11)
(-2.91018e-09 -2.20946e-13 -1.39473e-11)
(4.71137e-07 -8.28623e-10 -5.24606e-08)
(3.07195e-08 5.25782e-11 -4.56929e-08)
(2.45765e-08 6.42603e-10 -3.9954e-08)
(2.05066e-08 5.81381e-10 -3.51929e-08)
(1.70787e-08 5.24213e-10 -3.12084e-08)
(1.41632e-08 4.74098e-10 -2.78462e-08)
(1.16624e-08 4.30187e-10 -2.49868e-08)
(9.50015e-09 3.91171e-10 -2.25371e-08)
(7.37524e-09 2.25039e-10 -2.04254e-08)
(-7.96636e-08 -1.37258e-10 -1.89206e-08)
(2.60771e-13 3.66729e-13 -6.4366e-12)
(2.44486e-13 3.44618e-13 -6.36203e-12)
(2.14536e-13 -5.22399e-14 -6.28786e-12)
(1.85701e-13 -5.46077e-14 -6.21455e-12)
(1.57998e-13 -5.40397e-14 -6.1425e-12)
(1.31307e-13 -5.33614e-14 -6.07173e-12)
(1.05623e-13 -5.28272e-14 -6.001e-12)
(8.09587e-14 -5.22185e-14 -5.93221e-12)
(5.70991e-14 -5.11772e-14 -5.86423e-12)
(3.45677e-14 -2.97001e-14 -5.79791e-12)
(5.22986e-13 3.19607e-13 -8.1011e-12)
(4.82182e-13 2.31832e-13 -7.8088e-12)
(4.13421e-13 -1.96746e-13 -7.52598e-12)
(3.49175e-13 -1.92634e-13 -7.25641e-12)
(2.89263e-13 -1.85932e-13 -6.99896e-12)
(2.33373e-13 -1.79467e-13 -6.75218e-12)
(1.81245e-13 -1.73187e-13 -6.51625e-12)
(1.32565e-13 -1.67421e-13 -6.29005e-12)
(8.70747e-14 -1.60446e-13 -6.07356e-12)
(4.51262e-14 -9.12735e-14 -5.86881e-12)
(6.41968e-13 2.3561e-13 -1.03302e-11)
(5.70901e-13 5.57497e-14 -9.6836e-12)
(4.72687e-13 -3.99575e-13 -9.0813e-12)
(3.84551e-13 -3.78423e-13 -8.52394e-12)
(3.06038e-13 -3.55717e-13 -8.00846e-12)
(2.35978e-13 -3.34491e-13 -7.53058e-12)
(1.73407e-13 -3.14997e-13 -7.0878e-12)
(1.17496e-13 -2.9698e-13 -6.67587e-12)
(6.76767e-14 -2.78341e-13 -6.29298e-12)
(2.36083e-14 -1.55977e-13 -5.94168e-12)
(8.33826e-13 9.39873e-14 -1.33584e-11)
(7.15412e-13 -2.14152e-13 -1.21403e-11)
(5.74893e-13 -6.83585e-13 -1.105e-11)
(4.54262e-13 -6.27399e-13 -1.00741e-11)
(3.51568e-13 -5.73125e-13 -9.203e-12)
(2.63829e-13 -5.24805e-13 -8.42248e-12)
(1.88873e-13 -4.81461e-13 -7.72192e-12)
(1.24842e-13 -4.42366e-13 -7.09174e-12)
(7.01061e-14 -4.04496e-13 -6.52236e-12)
(2.40015e-14 -2.23116e-13 -6.01496e-12)
(1.09991e-12 -1.3868e-13 -1.75459e-11)
(9.07508e-13 -6.25588e-13 -1.54043e-11)
(7.0551e-13 -1.08161e-12 -1.35664e-11)
(5.40239e-13 -9.60782e-13 -1.19845e-11)
(4.05723e-13 -8.51777e-13 -1.06241e-11)
(2.95921e-13 -7.57911e-13 -9.44819e-12)
(2.06194e-13 -6.76458e-13 -8.42779e-12)
(1.3283e-13 -6.05681e-13 -7.53931e-12)
(7.27386e-14 -5.40334e-13 -6.76243e-12)
(2.43189e-14 -2.93264e-13 -6.09042e-12)
(1.47512e-12 -5.14951e-13 -2.34491e-11)
(1.16731e-12 -1.25063e-12 -1.98033e-11)
(8.7447e-13 -1.64227e-12 -1.682e-11)
(6.47065e-13 -1.40864e-12 -1.43567e-11)
(4.70532e-13 -1.20913e-12 -1.23232e-11)
(3.32912e-13 -1.04374e-12 -1.0631e-11)
(2.25425e-13 -9.05331e-13 -9.21522e-12)
(1.41329e-13 -7.89033e-13 -8.02352e-12)
(7.55308e-14 -6.86254e-13 -7.01449e-12)
(2.46351e-14 -3.66123e-13 -6.16748e-12)
(2.01713e-12 -1.11861e-12 -3.19387e-11)
(1.52319e-12 -2.20209e-12 -2.58373e-11)
(1.0953e-12 -2.43859e-12 -2.10755e-11)
(7.80671e-13 -2.01249e-12 -1.73285e-11)
(5.48353e-13 -1.66886e-12 -1.43671e-11)
(3.75715e-13 -1.39483e-12 -1.20007e-11)
(2.46877e-13 -1.17396e-12 -1.00943e-11)
(1.50548e-13 -9.94751e-13 -8.54647e-12)
(7.83835e-14 -8.4309e-13 -7.27755e-12)
(2.50172e-14 -4.42293e-13 -6.24629e-12)
(2.83353e-12 -2.10181e-12 -4.44607e-11)
(1.96601e-12 -3.66696e-12 -3.42578e-11)
(1.33957e-12 -3.57681e-12 -2.67195e-11)
(9.04387e-13 -2.83114e-12 -2.10904e-11)
(5.9998e-13 -2.26127e-12 -1.68449e-11)
(3.84795e-13 -1.82634e-12 -1.35968e-11)
(2.31632e-13 -1.48951e-12 -1.10831e-11)
(1.22198e-13 -1.22598e-12 -9.11465e-12)
(4.37096e-14 -1.01165e-12 -7.55615e-12)
(-1.18516e-14 -5.21347e-13 -6.32876e-12)
(-1.02636e-10 -4.27366e-12 -8.4538e-11)
(-2.73569e-10 -6.43636e-12 -6.49057e-11)
(-2.24163e-10 -5.48727e-12 -5.07591e-11)
(-1.84965e-10 -4.18753e-12 -4.04853e-11)
(-1.54325e-10 -3.244e-12 -3.28936e-11)
(-1.30045e-10 -2.55375e-12 -2.71621e-11)
(-1.10576e-10 -2.03862e-12 -2.27559e-11)
(-9.47968e-11 -1.64873e-12 -1.93127e-11)
(-8.18901e-11 -1.34268e-12 -1.65789e-11)
(-7.17675e-11 -7.44496e-13 -1.45039e-11)
(3.14588e-07 -1.6088e-09 -5.62774e-08)
(-6.88488e-09 -1.28825e-09 -4.86951e-08)
(-7.1877e-09 -6.09095e-10 -4.22188e-08)
(-6.63939e-09 -5.4961e-10 -3.69305e-08)
(-6.13235e-09 -4.99512e-10 -3.25627e-08)
(-5.67555e-09 -4.54773e-10 -2.89167e-08)
(-5.26799e-09 -4.14995e-10 -2.58438e-08)
(-4.90641e-09 -3.7968e-10 -2.32312e-08)
(-4.60213e-09 -3.49727e-10 -2.09935e-08)
(-5.96113e-09 -3.51561e-10 -1.93936e-08)
(2.30606e-13 3.71161e-13 -3.1492e-13)
(2.17552e-13 3.47306e-13 -3.09309e-13)
(1.90737e-13 -4.98206e-14 -3.03386e-13)
(1.65159e-13 -5.22071e-14 -2.97428e-13)
(1.40672e-13 -5.13315e-14 -2.91968e-13)
(1.17083e-13 -5.0853e-14 -2.86601e-13)
(9.47022e-14 -5.03855e-14 -2.81179e-13)
(7.31436e-14 -4.96167e-14 -2.76396e-13)
(5.25087e-14 -4.87743e-14 -2.71497e-13)
(3.30868e-14 -2.56323e-14 -2.66864e-13)
(5.02462e-13 3.35727e-13 -4.37929e-13)
(4.63767e-13 2.40454e-13 -4.15178e-13)
(3.9731e-13 -1.88433e-13 -3.92953e-13)
(3.3525e-13 -1.84217e-13 -3.71815e-13)
(2.77616e-13 -1.77664e-13 -3.52748e-13)
(2.23931e-13 -1.71235e-13 -3.34814e-13)
(1.74079e-13 -1.65057e-13 -3.17334e-13)
(1.27539e-13 -1.59345e-13 -3.01089e-13)
(8.4132e-14 -1.52571e-13 -2.86845e-13)
(4.43712e-14 -7.94002e-14 -2.72388e-13)
(6.2132e-13 2.67763e-13 -6.21724e-13)
(5.52064e-13 7.0708e-14 -5.65669e-13)
(4.56148e-13 -3.84907e-13 -5.1575e-13)
(3.70231e-13 -3.64014e-13 -4.70068e-13)
(2.94017e-13 -3.41107e-13 -4.29445e-13)
(2.2633e-13 -3.20166e-13 -3.92485e-13)
(1.66072e-13 -3.00971e-13 -3.59511e-13)
(1.12543e-13 -2.83373e-13 -3.29836e-13)
(6.47134e-14 -2.64832e-13 -3.02441e-13)
(2.28346e-14 -1.35684e-13 -2.78909e-13)
(8.15239e-13 1.49006e-13 -8.98926e-13)
(6.97692e-13 -1.93749e-13 -7.84009e-13)
(5.58709e-13 -6.62847e-13 -6.8521e-13)
(4.40013e-13 -6.06787e-13 -5.99292e-13)
(3.39479e-13 -5.52427e-13 -5.26154e-13)
(2.54093e-13 -5.04234e-13 -4.63209e-13)
(1.81491e-13 -4.61074e-13 -4.09028e-13)
(1.19767e-13 -4.22941e-13 -3.62269e-13)
(6.72348e-14 -3.85793e-13 -3.21028e-13)
(2.32356e-14 -1.94889e-13 -2.85511e-13)
(1.08838e-12 -5.1846e-14 -1.32978e-12)
(8.93293e-13 -6.02986e-13 -1.10511e-12)
(6.91192e-13 -1.0571e-12 -9.23128e-13)
(5.26648e-13 -9.35283e-13 -7.72858e-13)
(3.93878e-13 -8.25212e-13 -6.50196e-13)
(2.86251e-13 -7.31282e-13 -5.4983e-13)
(1.98869e-13 -6.50353e-13 -4.67174e-13)
(1.27785e-13 -5.80456e-13 -3.98837e-13)
(7.00386e-14 -5.15751e-13 -3.41262e-13)
(2.37548e-14 -2.56377e-13 -2.93877e-13)
(1.47991e-12 -3.86115e-13 -2.01637e-12)
(1.16149e-12 -1.2358e-12 -1.587e-12)
(8.64327e-13 -1.61911e-12 -1.26143e-12)
(6.35182e-13 -1.38126e-12 -1.00592e-12)
(4.59383e-13 -1.17815e-12 -8.09827e-13)
(3.23459e-13 -1.01152e-12 -6.56474e-13)
(2.18187e-13 -8.73134e-13 -5.36462e-13)
(1.36527e-13 -7.57839e-13 -4.41153e-13)
(7.28684e-14 -6.56107e-13 -3.63385e-13)
(2.42261e-14 -3.21401e-13 -3.03017e-13)
(2.05619e-12 -9.34045e-13 -3.13766e-12)
(1.53487e-12 -2.21639e-12 -2.32549e-12)
(1.09355e-12 -2.42919e-12 -1.74851e-12)
(7.72684e-13 -1.98954e-12 -1.3234e-12)
(5.38864e-13 -1.6362e-12 -1.01585e-12)
(3.66933e-13 -1.35843e-12 -7.88033e-13)
(2.3998e-13 -1.13623e-12 -6.17865e-13)
(1.45827e-13 -9.58063e-13 -4.88894e-13)
(7.5792e-14 -8.07452e-13 -3.88475e-13)
(2.46781e-14 -3.89082e-13 -3.13454e-13)
(3.00406e-12 -1.84783e-12 -5.03138e-12)
(2.06773e-12 -3.75609e-12 -3.48403e-12)
(1.40331e-12 -3.60466e-12 -2.46408e-12)
(9.49163e-13 -2.82433e-12 -1.7624e-12)
(6.36192e-13 -2.23306e-12 -1.28547e-12)
(4.17921e-13 -1.78818e-12 -9.51615e-13)
(2.64371e-13 -1.44749e-12 -7.14538e-13)
(1.55765e-13 -1.18424e-12 -5.42929e-13)
(7.86662e-14 -9.70696e-13 -4.16753e-13)
(2.47099e-14 -4.60237e-13 -3.24297e-13)
(2.10031e-10 -3.61083e-12 -9.0241e-12)
(-5.0077e-12 -6.41991e-12 -5.91414e-12)
(-4.51075e-12 -5.35604e-12 -4.00186e-12)
(-3.34258e-12 -3.99711e-12 -2.78632e-12)
(-2.54084e-12 -3.02846e-12 -2.00413e-12)
(-1.97314e-12 -2.33501e-12 -1.48473e-12)
(-1.56193e-12 -1.827e-12 -1.13133e-12)
(-1.25677e-12 -1.44961e-12 -8.85391e-13)
(-1.02636e-12 -1.15652e-12 -7.0935e-13)
(-8.39805e-13 -5.43652e-13 -5.85388e-13)
(2.74243e-07 -7.50399e-10 -4.04641e-09)
(3.77353e-10 -6.80605e-10 -3.10104e-09)
(-3.12178e-10 -8.84725e-11 -2.32879e-09)
(-2.52523e-10 -6.58439e-11 -1.77996e-09)
(-2.04535e-10 -5.15949e-11 -1.38315e-09)
(-1.67682e-10 -4.09526e-11 -1.09063e-09)
(-1.38873e-10 -3.28931e-11 -8.71344e-10)
(-1.16153e-10 -2.67085e-11 -7.04435e-10)
(-9.8525e-11 -2.18759e-11 -5.75708e-10)
(-1.04002e-10 -1.82709e-11 -4.78723e-10)
(2.26863e-13 3.71544e-13 -1.37792e-14)
(2.14239e-13 3.47339e-13 -1.29363e-14)
(1.8787e-13 -4.97495e-14 -1.08095e-14)
(1.62633e-13 -5.20314e-14 -9.81473e-15)
(1.38574e-13 -5.13244e-14 -8.34624e-15)
(1.15527e-13 -5.07273e-14 -7.31951e-15)
(9.34099e-14 -5.00539e-14 -6.38411e-15)
(7.2243e-14 -4.93273e-14 -5.34047e-15)
(5.20586e-14 -4.83155e-14 -4.94131e-15)
(3.29852e-14 -2.52018e-14 -5.00835e-15)
(4.98073e-13 3.37751e-13 -2.0721e-14)
(4.60028e-13 2.41929e-13 -1.85717e-14)
(3.94176e-13 -1.87196e-13 -1.64863e-14)
(3.3271e-13 -1.82976e-13 -1.39823e-14)
(2.75566e-13 -1.76085e-13 -1.17198e-14)
(2.22366e-13 -1.70007e-13 -1.04079e-14)
(1.72947e-13 -1.64022e-13 -8.79668e-15)
(1.26848e-13 -1.57892e-13 -7.69126e-15)
(8.38122e-14 -1.51078e-13 -6.82101e-15)
(4.44101e-14 -7.78689e-14 -6.20634e-15)
(6.15476e-13 2.72689e-13 -3.3431e-14)
(5.47423e-13 7.42137e-14 -2.95754e-14)
(4.52358e-13 -3.81564e-13 -2.50937e-14)
(3.67261e-13 -3.60858e-13 -2.10581e-14)
(2.9175e-13 -3.38471e-13 -1.81002e-14)
(2.2463e-13 -3.17631e-13 -1.5231e-14)
(1.65023e-13 -2.98363e-13 -1.27456e-14)
(1.11949e-13 -2.80974e-13 -1.10372e-14)
(6.45681e-14 -2.62494e-13 -9.49285e-15)
(2.30218e-14 -1.33064e-13 -9.06529e-15)
(8.07535e-13 1.59177e-13 -5.52262e-14)
(6.91725e-13 -1.86688e-13 -4.8239e-14)
(5.54166e-13 -6.57049e-13 -4.0195e-14)
(4.36569e-13 -6.01493e-13 -3.30249e-14)
(3.36966e-13 -5.47529e-13 -2.74365e-14)
(2.52417e-13 -4.99853e-13 -2.32231e-14)
(1.80507e-13 -4.57199e-13 -1.93475e-14)
(1.1938e-13 -4.19186e-13 -1.62542e-14)
(6.73476e-14 -3.82342e-13 -1.42368e-14)
(2.36598e-14 -1.91667e-13 -1.25479e-14)
(1.07817e-12 -3.35267e-14 -9.54945e-14)
(8.85792e-13 -5.91052e-13 -7.96261e-14)
(6.85712e-13 -1.04702e-12 -6.41852e-14)
(5.22792e-13 -9.26807e-13 -5.15474e-14)
(3.91288e-13 -8.18041e-13 -4.21261e-14)
(2.84614e-13 -7.24858e-13 -3.41294e-14)
(1.98058e-13 -6.44492e-13 -2.82687e-14)
(1.27658e-13 -5.75355e-13 -2.45491e-14)
(7.01473e-14 -5.11478e-13 -2.1384e-14)
(2.43281e-14 -2.5231e-13 -1.82013e-14)
(1.46595e-12 -3.52951e-13 -1.66778e-13)
(1.15193e-12 -1.21622e-12 -1.32528e-13)
(8.57709e-13 -1.60372e-12 -1.03538e-13)
(6.30843e-13 -1.36862e-12 -8.09722e-14)
(4.56703e-13 -1.16773e-12 -6.41152e-14)
(3.22012e-13 -1.00276e-12 -5.15618e-14)
(2.17646e-13 -8.65609e-13 -4.20187e-14)
(1.36511e-13 -7.51979e-13 -3.47999e-14)
(7.32702e-14 -6.51091e-13 -2.85068e-14)
(2.4921e-14 -3.16261e-13 -2.46689e-14)
(2.03715e-12 -8.75295e-13 -2.94256e-13)
(1.52227e-12 -2.18546e-12 -2.22837e-13)
(1.08554e-12 -2.40571e-12 -1.65518e-13)
(7.67725e-13 -1.97138e-12 -1.25603e-13)
(5.36061e-13 -1.62205e-12 -9.61934e-14)
(3.65659e-13 -1.34698e-12 -7.5269e-14)
(2.39581e-13 -1.12712e-12 -5.97683e-14)
(1.46033e-13 -9.50934e-13 -4.82936e-14)
(7.66295e-14 -8.0173e-13 -3.96101e-14)
(2.55237e-14 -3.83645e-13 -3.2691e-14)
(2.97741e-12 -1.74416e-12 -5.30572e-13)
(2.04895e-12 -3.70845e-12 -3.73306e-13)
(1.39196e-12 -3.5701e-12 -2.65268e-13)
(9.42738e-13 -2.79929e-12 -1.91478e-13)
(6.32996e-13 -2.21402e-12 -1.41937e-13)
(4.16748e-13 -1.77405e-12 -1.07595e-13)
(2.644e-13 -1.43686e-12 -8.27367e-14)
(1.56583e-13 -1.17584e-12 -6.51481e-14)
(7.99742e-14 -9.64609e-13 -5.25394e-14)
(2.63285e-14 -4.5442e-13 -4.24213e-14)
(2.28785e-10 -3.40695e-12 -9.9175e-13)
(3.79186e-12 -6.3307e-12 -6.09233e-13)
(1.67721e-12 -5.2857e-12 -4.0867e-13)
(1.08387e-12 -3.94573e-12 -2.84798e-13)
(6.97272e-13 -2.98987e-12 -2.04206e-13)
(4.39663e-13 -2.30538e-12 -1.50844e-13)
(2.66654e-13 -1.80363e-12 -1.13999e-13)
(1.4961e-13 -1.43067e-12 -8.84189e-14)
(7.00073e-14 -1.14066e-12 -6.98732e-14)
(1.70079e-14 -5.28718e-13 -5.67523e-14)
(2.70391e-07 -6.40645e-10 -3.30662e-10)
(7.70437e-10 -6.00216e-10 -1.02642e-10)
(-6.10568e-12 -1.4335e-11 -6.57939e-11)
(-5.3915e-12 -7.81345e-12 -4.35331e-11)
(-3.85351e-12 -5.56618e-12 -2.96237e-11)
(-2.82241e-12 -4.06158e-12 -2.06378e-11)
(-2.10728e-12 -3.02188e-12 -1.46858e-11)
(-1.60212e-12 -2.28934e-12 -1.06459e-11)
(-1.24628e-12 -1.75316e-12 -7.84793e-12)
(-1.15006e-12 -9.26707e-13 -5.81598e-12)
(2.27182e-13 3.71432e-13 -1.10461e-14)
(2.14464e-13 3.46747e-13 -9.96584e-15)
(1.88144e-13 -5.04414e-14 -7.53709e-15)
(1.62829e-13 -5.25817e-14 -5.5783e-15)
(1.38713e-13 -5.17269e-14 -4.20714e-15)
(1.15557e-13 -5.1049e-14 -2.99962e-15)
(9.35444e-14 -5.06002e-14 -2.32004e-15)
(7.24269e-14 -4.96294e-14 -1.36397e-15)
(5.21581e-14 -4.835e-14 -4.83722e-16)
(3.30618e-14 -2.54064e-14 -3.0783e-16)
(4.98949e-13 3.37432e-13 -1.61207e-14)
(4.60793e-13 2.4131e-13 -1.43301e-14)
(3.94861e-13 -1.87828e-13 -1.10387e-14)
(3.33179e-13 -1.83812e-13 -9.23304e-15)
(2.76037e-13 -1.76902e-13 -6.29512e-15)
(2.22754e-13 -1.70334e-13 -4.72478e-15)
(1.73299e-13 -1.64188e-13 -3.93038e-15)
(1.27227e-13 -1.58295e-13 -3.39057e-15)
(8.4152e-14 -1.5141e-13 -2.43696e-15)
(4.47782e-14 -7.79136e-14 -1.3581e-15)
(6.17054e-13 2.72274e-13 -2.62971e-14)
(5.48865e-13 7.32393e-14 -2.33507e-14)
(4.53566e-13 -3.82932e-13 -1.89468e-14)
(3.68243e-13 -3.61928e-13 -1.47797e-14)
(2.92644e-13 -3.39013e-13 -1.20895e-14)
(2.25468e-13 -3.18273e-13 -9.68648e-15)
(1.65681e-13 -2.98981e-13 -7.84003e-15)
(1.12545e-13 -2.8133e-13 -6.49712e-15)
(6.51332e-14 -2.62579e-13 -5.85983e-15)
(2.35888e-14 -1.33253e-13 -5.15386e-15)
(8.10325e-13 1.58395e-13 -4.50665e-14)
(6.94227e-13 -1.88267e-13 -3.93631e-14)
(5.56204e-13 -6.58828e-13 -3.254e-14)
(4.38302e-13 -6.03139e-13 -2.64819e-14)
(3.38446e-13 -5.48771e-13 -2.15696e-14)
(2.5362e-13 -5.00866e-13 -1.78981e-14)
(1.81571e-13 -4.58084e-13 -1.51952e-14)
(1.20384e-13 -4.19923e-13 -1.2886e-14)
(6.82871e-14 -3.82833e-13 -1.12311e-14)
(2.44136e-14 -1.91545e-13 -1.04162e-14)
(1.08294e-12 -3.49132e-14 -7.88168e-14)
(8.89819e-13 -5.94144e-13 -6.82699e-14)
(6.89014e-13 -1.05054e-12 -5.53834e-14)
(5.25493e-13 -9.29493e-13 -4.47896e-14)
(3.93536e-13 -8.20137e-13 -3.73225e-14)
(2.86515e-13 -7.26813e-13 -3.09529e-14)
(1.99666e-13 -6.45836e-13 -2.55857e-14)
(1.29008e-13 -5.76199e-13 -2.2036e-14)
(7.1409e-14 -5.1235e-13 -1.9211e-14)
(2.53831e-14 -2.52893e-13 -1.67527e-14)
(1.47393e-12 -3.56341e-13 -1.3911e-13)
(1.15851e-12 -1.22221e-12 -1.16149e-13)
(8.62861e-13 -1.60932e-12 -9.2697e-14)
(6.35025e-13 -1.37342e-12 -7.43139e-14)
(4.59996e-13 -1.17146e-12 -6.02715e-14)
(3.24763e-13 -1.00583e-12 -5.00623e-14)
(2.19874e-13 -8.68215e-13 -4.0774e-14)
(1.38354e-13 -7.53897e-13 -3.43925e-14)
(7.47842e-14 -6.52659e-13 -2.97424e-14)
(2.62115e-14 -3.17147e-13 -2.54667e-14)
(2.05057e-12 -8.81788e-13 -2.46636e-13)
(1.53289e-12 -2.1972e-12 -1.98531e-13)
(1.09348e-12 -2.41638e-12 -1.53607e-13)
(7.73826e-13 -1.9797e-12 -1.19459e-13)
(5.40818e-13 -1.62862e-12 -9.51564e-14)
(3.69338e-13 -1.35232e-12 -7.63279e-14)
(2.42536e-13 -1.13135e-12 -6.17905e-14)
(1.4844e-13 -9.54147e-13 -5.10171e-14)
(7.85201e-14 -8.04502e-13 -4.28652e-14)
(2.71546e-14 -3.85211e-13 -3.60754e-14)
(3.00198e-12 -1.75753e-12 -4.40252e-13)
(2.06565e-12 -3.73142e-12 -3.36837e-13)
(1.40405e-12 -3.58916e-12 -2.4964e-13)
(9.51731e-13 -2.81384e-12 -1.88644e-13)
(6.39685e-13 -2.22535e-12 -1.45173e-13)
(4.21795e-13 -1.7828e-12 -1.13404e-13)
(2.68286e-13 -1.4437e-12 -9.00056e-14)
(1.59574e-13 -1.1813e-12 -7.23504e-14)
(8.225e-14 -9.68788e-13 -5.89979e-14)
(2.81367e-14 -4.56899e-13 -4.95891e-14)
(2.37044e-10 -3.44318e-12 -8.61469e-13)
(4.09893e-12 -6.38132e-12 -5.70479e-13)
(1.8206e-12 -5.32019e-12 -4.03161e-13)
(1.17404e-12 -3.97102e-12 -2.92871e-13)
(7.55503e-13 -3.00884e-12 -2.17107e-13)
(4.78571e-13 -2.31964e-12 -1.64295e-13)
(2.93245e-13 -1.81444e-12 -1.25918e-13)
(1.68191e-13 -1.43905e-12 -9.908e-14)
(8.31203e-14 -1.14726e-12 -7.85609e-14)
(2.62135e-14 -5.32293e-13 -6.3562e-14)
(2.87537e-07 -6.65569e-10 -2.70817e-10)
(8.52074e-10 -6.15862e-10 -5.11771e-12)
(3.13805e-12 -1.12937e-11 -1.96717e-12)
(1.03359e-12 -5.64346e-12 -1.20005e-12)
(6.90571e-13 -4.06928e-12 -7.62657e-13)
(4.66056e-13 -3.00696e-12 -5.05425e-13)
(3.13851e-13 -2.26527e-12 -3.46265e-13)
(2.09593e-13 -1.7376e-12 -2.44158e-13)
(1.37336e-13 -1.34481e-12 -1.7573e-13)
(8.6475e-14 -6.15317e-13 -1.29228e-13)
(2.27718e-13 3.71103e-13 -1.37855e-14)
(2.14934e-13 3.4596e-13 -1.17147e-14)
(1.88429e-13 -5.14717e-14 -9.57242e-15)
(1.63161e-13 -5.33366e-14 -6.74282e-15)
(1.38867e-13 -5.23341e-14 -5.11883e-15)
(1.15747e-13 -5.14595e-14 -3.0428e-15)
(9.36191e-14 -5.0689e-14 -2.06896e-15)
(7.25269e-14 -5.00452e-14 -1.3922e-15)
(5.23412e-14 -4.8723e-14 -6.64965e-16)
(3.31415e-14 -2.52653e-14 -7.08498e-16)
(5.00282e-13 3.37e-13 -2.01968e-14)
(4.61973e-13 2.39992e-13 -1.79032e-14)
(3.95781e-13 -1.89104e-13 -1.32467e-14)
(3.34014e-13 -1.84768e-13 -1.05771e-14)
(2.76688e-13 -1.77795e-13 -8.21661e-15)
(2.2331e-13 -1.70888e-13 -5.8662e-15)
(1.73733e-13 -1.64501e-13 -4.29372e-15)
(1.27594e-13 -1.5844e-13 -3.30354e-15)
(8.46162e-14 -1.51853e-13 -2.97987e-15)
(4.51485e-14 -7.82773e-14 -2.45168e-15)
(6.19432e-13 2.71424e-13 -3.24467e-14)
(5.50891e-13 7.15065e-14 -2.8658e-14)
(4.55346e-13 -3.84697e-13 -2.29707e-14)
(3.69681e-13 -3.63393e-13 -1.87063e-14)
(2.93903e-13 -3.4035e-13 -1.45407e-14)
(2.26507e-13 -3.19199e-13 -1.14368e-14)
(1.66652e-13 -2.99553e-13 -9.31873e-15)
(1.13351e-13 -2.8172e-13 -8.29048e-15)
(6.58893e-14 -2.63009e-13 -7.21631e-15)
(2.44036e-14 -1.33615e-13 -6.36191e-15)
(8.14394e-13 1.56657e-13 -5.6151e-14)
(6.97676e-13 -1.91158e-13 -4.83494e-14)
(5.59077e-13 -6.61654e-13 -3.95912e-14)
(4.40695e-13 -6.0548e-13 -3.23228e-14)
(3.40483e-13 -5.50691e-13 -2.62013e-14)
(2.55426e-13 -5.02228e-13 -2.13783e-14)
(1.83076e-13 -4.5912e-13 -1.83377e-14)
(1.21675e-13 -4.20755e-13 -1.59952e-14)
(6.93545e-14 -3.83363e-13 -1.4307e-14)
(2.543e-14 -1.91962e-13 -1.25381e-14)
(1.08977e-12 -3.82571e-14 -9.79446e-14)
(8.95563e-13 -5.99182e-13 -8.35316e-14)
(6.93582e-13 -1.05525e-12 -6.80276e-14)
(5.29226e-13 -9.3334e-13 -5.56115e-14)
(3.96625e-13 -8.23218e-13 -4.60037e-14)
(2.89158e-13 -7.29389e-13 -3.85289e-14)
(2.01746e-13 -6.48024e-13 -3.18629e-14)
(1.30817e-13 -5.77961e-13 -2.71449e-14)
(7.29151e-14 -5.1367e-13 -2.31466e-14)
(2.66239e-14 -2.53566e-13 -2.07283e-14)
(1.48542e-12 -3.62847e-13 -1.71994e-13)
(1.16776e-12 -1.23173e-12 -1.43643e-13)
(8.70084e-13 -1.61799e-12 -1.14145e-13)
(6.40589e-13 -1.38012e-12 -9.1398e-14)
(4.64499e-13 -1.17671e-12 -7.4436e-14)
(3.28321e-13 -1.0103e-12 -6.16408e-14)
(2.22808e-13 -8.71842e-13 -5.0626e-14)
(1.40743e-13 -7.56584e-13 -4.24731e-14)
(7.68054e-14 -6.54989e-13 -3.63824e-14)
(2.78668e-14 -3.1846e-13 -3.15628e-14)
(2.06988e-12 -8.95254e-13 -3.04478e-13)
(1.54767e-12 -2.21493e-12 -2.43767e-13)
(1.10457e-12 -2.43176e-12 -1.89175e-13)
(7.82205e-13 -1.99164e-12 -1.47892e-13)
(5.47274e-13 -1.63787e-12 -1.18058e-13)
(3.74324e-13 -1.35978e-12 -9.47551e-14)
(2.46533e-13 -1.13731e-12 -7.717e-14)
(1.51539e-13 -9.58871e-13 -6.28196e-14)
(8.09868e-14 -8.08301e-13 -5.28588e-14)
(2.91969e-14 -3.87383e-13 -4.46797e-14)
(3.03866e-12 -1.78446e-12 -5.41983e-13)
(2.0895e-12 -3.76551e-12 -4.14891e-13)
(1.42092e-12 -3.61684e-12 -3.08841e-13)
(9.64001e-13 -2.83451e-12 -2.33807e-13)
(6.48703e-13 -2.241e-12 -1.8032e-13)
(4.28578e-13 -1.79502e-12 -1.41434e-13)
(2.73365e-13 -1.45338e-12 -1.12509e-13)
(1.6351e-13 -1.18887e-12 -8.95068e-14)
(8.52698e-14 -9.74665e-13 -7.28651e-14)
(3.0512e-14 -4.60146e-13 -6.07779e-14)
(2.5101e-10 -3.50436e-12 -9.95095e-13)
(4.22921e-12 -6.45687e-12 -7.04667e-13)
(1.84985e-12 -5.36989e-12 -5.0135e-13)
(1.19346e-12 -4.00655e-12 -3.64056e-13)
(7.68946e-13 -3.03493e-12 -2.70798e-13)
(4.88093e-13 -2.33941e-12 -2.04911e-13)
(3.00162e-13 -1.82943e-12 -1.57541e-13)
(1.73268e-13 -1.45045e-12 -1.22984e-13)
(8.68652e-14 -1.15626e-12 -9.78167e-14)
(2.90168e-14 -5.37394e-13 -7.91097e-14)
(3.14027e-07 -7.07496e-10 -2.71392e-10)
(9.26547e-10 -6.51901e-10 -1.95233e-12)
(3.63574e-12 -1.15182e-11 -8.36651e-13)
(1.17358e-12 -5.65436e-12 -5.74434e-13)
(7.78677e-13 -4.08148e-12 -4.065e-13)
(5.22384e-13 -3.01875e-12 -2.95612e-13)
(3.512e-13 -2.2759e-12 -2.19889e-13)
(2.34922e-13 -1.74683e-12 -1.65863e-13)
(1.54951e-13 -1.35254e-12 -1.27598e-13)
(1.0011e-13 -6.18998e-13 -1.00511e-13)
(2.28388e-13 3.70583e-13 -1.61824e-14)
(2.15579e-13 3.45072e-13 -1.4184e-14)
(1.88824e-13 -5.24114e-14 -1.08543e-14)
(1.635e-13 -5.43487e-14 -8.43566e-15)
(1.39233e-13 -5.3198e-14 -6.16412e-15)
(1.16011e-13 -5.22611e-14 -4.18416e-15)
(9.38859e-14 -5.12578e-14 -2.48127e-15)
(7.27268e-14 -5.0192e-14 -2.11532e-15)
(5.25423e-14 -4.86485e-14 -4.59597e-15)
(3.33623e-14 -2.53575e-14 -1.28214e-14)
(5.01881e-13 3.36381e-13 -2.41351e-14)
(4.63409e-13 2.38598e-13 -2.05589e-14)
(3.96941e-13 -1.90678e-13 -1.64423e-14)
(3.35005e-13 -1.85787e-13 -1.27857e-14)
(2.775e-13 -1.78774e-13 -1.02132e-14)
(2.24044e-13 -1.71895e-13 -7.46343e-15)
(1.74408e-13 -1.65222e-13 -5.85861e-15)
(1.28277e-13 -1.58833e-13 -4.56552e-15)
(8.51613e-14 -1.5179e-13 -4.64811e-15)
(4.56684e-14 -7.84371e-14 -1.10558e-14)
(6.22327e-13 2.70407e-13 -3.88302e-14)
(5.53325e-13 6.95683e-14 -3.32801e-14)
(4.5743e-13 -3.8674e-13 -2.66715e-14)
(3.71466e-13 -3.65211e-13 -2.17672e-14)
(2.95314e-13 -3.4186e-13 -1.72853e-14)
(2.27793e-13 -3.20373e-13 -1.42731e-14)
(1.67793e-13 -3.00288e-13 -1.16497e-14)
(1.14472e-13 -2.82257e-13 -1.04579e-14)
(6.68707e-14 -2.6347e-13 -1.0347e-14)
(2.51489e-14 -1.34005e-13 -1.28969e-14)
(8.19394e-13 1.54528e-13 -6.61745e-14)
(7.01889e-13 -1.94568e-13 -5.64699e-14)
(5.62565e-13 -6.64901e-13 -4.61508e-14)
(4.43575e-13 -6.08302e-13 -3.7693e-14)
(3.43004e-13 -5.53095e-13 -3.13081e-14)
(2.57597e-13 -5.04091e-13 -2.64253e-14)
(1.84925e-13 -4.60399e-13 -2.26134e-14)
(1.23221e-13 -4.21722e-13 -1.95969e-14)
(7.07147e-14 -3.84446e-13 -1.79767e-14)
(2.66217e-14 -1.92672e-13 -1.81505e-14)
(1.09813e-12 -4.23248e-14 -1.1609e-13)
(9.02501e-13 -6.05263e-13 -9.74357e-14)
(6.99147e-13 -1.06093e-12 -7.88827e-14)
(5.33705e-13 -9.37944e-13 -6.46929e-14)
(4.0037e-13 -8.26908e-13 -5.38577e-14)
(2.92334e-13 -7.32613e-13 -4.57303e-14)
(2.04424e-13 -6.50681e-13 -3.89268e-14)
(1.32967e-13 -5.80066e-13 -3.34884e-14)
(7.47501e-14 -5.15328e-13 -2.91214e-14)
(2.83014e-14 -2.54704e-13 -2.79701e-14)
(1.49952e-12 -3.71007e-13 -2.0512e-13)
(1.17887e-12 -1.243e-12 -1.67341e-13)
(8.78713e-13 -1.62825e-12 -1.33402e-13)
(6.47464e-13 -1.38839e-12 -1.07769e-13)
(4.69961e-13 -1.18317e-12 -8.79565e-14)
(3.32752e-13 -1.0156e-12 -7.38e-14)
(2.26452e-13 -8.76356e-13 -6.12515e-14)
(1.43637e-13 -7.60236e-13 -5.16503e-14)
(7.92612e-14 -6.57768e-13 -4.48497e-14)
(2.98767e-14 -3.20263e-13 -4.01726e-14)
(2.09359e-12 -9.1181e-13 -3.62296e-13)
(1.56553e-12 -2.23653e-12 -2.84218e-13)
(1.11791e-12 -2.44992e-12 -2.2098e-13)
(7.92411e-13 -2.00583e-12 -1.74309e-13)
(5.55108e-13 -1.64909e-12 -1.39208e-13)
(3.80464e-13 -1.36884e-12 -1.13412e-13)
(2.51398e-13 -1.14482e-12 -9.25578e-14)
(1.55342e-13 -9.64835e-13 -7.61333e-14)
(8.39927e-14 -8.12944e-13 -6.43825e-14)
(3.16182e-14 -3.903e-13 -5.59058e-14)
(3.07661e-12 -1.8177e-12 -6.44658e-13)
(2.11814e-12 -3.80645e-12 -4.83169e-13)
(1.44154e-12 -3.64975e-12 -3.61761e-13)
(9.78952e-13 -2.85939e-12 -2.75313e-13)
(6.59749e-13 -2.25996e-12 -2.13134e-13)
(4.36853e-13 -1.8097e-12 -1.68622e-13)
(2.79664e-13 -1.46537e-12 -1.35217e-13)
(1.68322e-13 -1.19848e-12 -1.07654e-13)
(8.89602e-14 -9.82019e-13 -8.84801e-14)
(3.33866e-14 -4.64473e-13 -7.4268e-14)
(2.59295e-10 -3.51458e-12 -7.41435e-13)
(4.25049e-12 -6.52822e-12 -8.174e-13)
(1.88071e-12 -5.42886e-12 -5.90042e-13)
(1.21518e-12 -4.04954e-12 -4.30071e-13)
(7.84339e-13 -3.06677e-12 -3.21801e-13)
(4.99168e-13 -2.36343e-12 -2.45092e-13)
(3.08209e-13 -1.84814e-12 -1.90528e-13)
(1.79174e-13 -1.46469e-12 -1.47067e-13)
(9.12499e-14 -1.1673e-12 -1.18213e-13)
(3.2266e-14 -5.43848e-13 -9.66194e-14)
(3.36659e-07 -6.2073e-10 6.00839e-10)
(9.50133e-10 -6.72475e-10 5.65799e-12)
(3.41555e-12 -1.15522e-11 -9.16429e-13)
(1.1952e-12 -5.72436e-12 -6.62541e-13)
(7.94009e-13 -4.13238e-12 -4.75006e-13)
(5.33217e-13 -3.05591e-12 -3.48419e-13)
(3.5905e-13 -2.30395e-12 -2.61352e-13)
(2.40782e-13 -1.768e-12 -1.97374e-13)
(1.59206e-13 -1.36847e-12 -1.52423e-13)
(1.03377e-13 -6.27966e-13 -1.21467e-13)
(2.29043e-13 3.70293e-13 -1.61961e-14)
(2.15726e-13 3.43902e-13 -8.68568e-15)
(1.89145e-13 -5.37017e-14 -6.85698e-15)
(1.638e-13 -5.5176e-14 -6.55432e-15)
(1.39604e-13 -5.40414e-14 -9.05506e-15)
(1.16546e-13 -5.3001e-14 -1.43318e-14)
(9.45905e-14 -5.16797e-14 -2.3705e-14)
(7.40576e-14 -4.98025e-14 -7.69506e-14)
(5.51615e-14 -4.68826e-14 -3.06234e-13)
(3.58494e-14 -3.41441e-14 -9.71596e-13)
(5.03497e-13 3.35569e-13 -2.24274e-14)
(4.64213e-13 2.37315e-13 -1.01876e-14)
(3.97824e-13 -1.91925e-13 -9.74078e-15)
(3.35837e-13 -1.87076e-13 -8.97268e-15)
(2.78374e-13 -1.7988e-13 -1.08265e-14)
(2.25057e-13 -1.72796e-13 -1.59887e-14)
(1.755e-13 -1.66077e-13 -2.3576e-14)
(1.29632e-13 -1.60135e-13 -5.49118e-14)
(8.71398e-14 -1.5357e-13 -1.83136e-13)
(4.70801e-14 -9.36694e-14 -6.30279e-13)
(6.25124e-13 2.69161e-13 -3.67619e-14)
(5.55126e-13 6.76197e-14 -1.86631e-14)
(4.59029e-13 -3.88522e-13 -1.59246e-14)
(3.72972e-13 -3.66655e-13 -1.52391e-14)
(2.96898e-13 -3.43145e-13 -1.59058e-14)
(2.29471e-13 -3.21664e-13 -2.1029e-14)
(1.69515e-13 -3.01776e-13 -2.95382e-14)
(1.16169e-13 -2.83743e-13 -4.72178e-14)
(6.89694e-14 -2.66676e-13 -1.24455e-13)
(2.67273e-14 -1.5061e-13 -4.12018e-13)
(8.24294e-13 1.52674e-13 -6.33752e-14)
(7.05093e-13 -1.97091e-13 -3.54247e-14)
(5.65408e-13 -6.67496e-13 -3.01723e-14)
(4.46224e-13 -6.10371e-13 -2.8076e-14)