/*--------------------------------*- C++ -*----------------------------------*\
| =========                 |                                                 |
| \\      /  F ield         | OpenFOAM: The Open Source CFD Toolbox           |
|  \\    /   O peration     | Version:  4.1                                   |
|   \\  /    A nd           | Web:      www.OpenFOAM.org                      |
|    \\/     M anipulation  |                                                 |
\*---------------------------------------------------------------------------*/
FoamFile
{
    version     2.0;
    format      ascii;
    class       volScalarField;
    location    "0.8";
    object      p;
}
// * * * * * * * * * * * * * * * * * * * * * * * * * * * * * * * * * * * * * //

dimensions      [1 -1 -2 0 0 0 0];

internalField   nonuniform List<scalar> 
52500
(
1
1.00001
1.00002
1.00006
1.00017
1.00035
1.00101
1.00206
1.00594
1.01169
1.03653
1.06565
1.23717
1.4737
2.6084
5.35265
12.1168
11.7402
11.4567
11.5495
11.8268
12.0752
12.1554
12.2716
12.3324
1
1.00001
1.00002
1.00006
1.00017
1.00035
1.001
1.00204
1.00587
1.01157
1.03613
1.06495
1.23488
1.46565
2.59669
5.28941
12.0473
11.7192
11.4487
11.5399
11.8116
12.0626
12.1449
12.2621
12.3242
1
1.00001
1.00002
1.00005
1.00016
1.00034
1.00098
1.002
1.00576
1.01136
1.03532
1.0636
1.23001
1.44986
2.57042
5.15733
11.8874
11.6642
11.4272
11.5071
11.7571
12.0111
12.0942
12.2105
12.2745
1
1.00001
1.00002
1.00005
1.00016
1.00033
1.00095
1.00194
1.00559
1.01109
1.0341
1.0622
1.22167
1.43133
2.52521
4.96679
11.6276
11.5653
11.3997
11.4517
11.662
11.9205
12.0026
12.1169
12.1848
1
1
1.00002
1.00005
1.00015
1.00032
1.00091
1.00186
1.00535
1.01066
1.03253
1.05983
1.21126
1.40686
2.46334
4.72653
11.2521
11.4661
11.3422
11.3711
11.5378
11.7966
11.8755
11.9857
12.0599
1
1
1.00002
1.00005
1.00014
1.0003
1.00086
1.00176
1.00505
1.01007
1.03059
1.05664
1.19851
1.37904
2.377
4.45309
10.7406
11.3798
11.2505
11.2583
11.3847
11.6374
11.7035
11.8031
11.8897
1
1
1.00002
1.00004
1.00013
1.00028
1.0008
1.00163
1.00468
1.00938
1.0283
1.05285
1.1837
1.34658
2.2777
4.14547
10.0982
11.2886
11.1429
11.1084
11.2068
11.4309
11.4786
11.5547
11.6541
1
1
1.00002
1.00004
1.00012
1.00025
1.00072
1.00146
1.00422
1.0084
1.02574
1.04713
1.16898
1.30805
2.16665
3.82279
9.32014
11.1955
11.0243
10.919
10.9926
11.1737
11.1976
11.2264
11.3118
1
1
1.00001
1.00003
1.0001
1.00022
1.00063
1.00128
1.00372
1.00733
1.02286
1.04095
1.1507
1.26662
2.04695
3.46339
8.39831
11.1099
10.8991
10.7003
10.7436
10.859
10.8427
10.7782
10.7821
0.999999
1
1.00001
1.00003
1.00009
1.00018
1.00054
1.00111
1.00321
1.00635
1.01976
1.03553
1.13018
1.23112
1.88902
3.09387
7.34705
11.0411
10.7839
10.4685
10.4671
10.481
10.4024
10.1643
9.87523
1
1.00001
1.00003
1.00006
1.00017
1.00036
1.00102
1.00207
1.00594
1.0117
1.03655
1.06568
1.23719
1.47388
2.60845
5.35353
12.1174
11.7402
11.4566
11.5494
11.8269
12.0753
12.1554
12.2716
12.3324
1
1.00001
1.00003
1.00006
1.00017
1.00036
1.00101
1.00204
1.00588
1.01158
1.03614
1.06498
1.2349
1.46583
2.59674
5.29025
12.0479
11.7192
11.4486
11.5399
11.8117
12.0627
12.145
12.2621
12.3242
1
1.00001
1.00003
1.00006
1.00017
1.00035
1.00099
1.00201
1.00577
1.01137
1.03533
1.06363
1.23004
1.44999
2.57054
5.15806
11.888
11.6643
11.4272
11.5071
11.7573
12.0112
12.0942
12.2106
12.2745
1
1.00001
1.00003
1.00006
1.00016
1.00034
1.00096
1.00195
1.0056
1.0111
1.03412
1.06222
1.2217
1.43143
2.52535
4.96746
11.6282
11.5655
11.3996
11.4516
11.6621
11.9206
12.0026
12.117
12.1848
1
1.00001
1.00003
1.00006
1.00016
1.00033
1.00092
1.00187
1.00536
1.01067
1.03254
1.05985
1.21129
1.40695
2.46348
4.72714
11.2528
11.466
11.3421
11.371
11.5379
11.7967
11.8756
11.9857
12.0599
1
1.00001
1.00002
1.00005
1.00015
1.00031
1.00087
1.00177
1.00506
1.01008
1.03061
1.05667
1.19854
1.37913
2.37711
4.45365
10.7414
11.3798
11.2504
11.2583
11.3848
11.6375
11.7035
11.8031
11.8897
1
1.00001
1.00002
1.00005
1.00014
1.00028
1.0008
1.00164
1.00469
1.00939
1.02831
1.05287
1.18372
1.34668
2.27778
4.14594
10.0989
11.2886
11.1429
11.1084
11.2068
11.4309
11.4787
11.5547
11.6542
1
1.00001
1.00002
1.00004
1.00012
1.00025
1.00072
1.00147
1.00423
1.00841
1.02576
1.04716
1.16899
1.30814
2.16673
3.82315
9.32086
11.1955
11.0243
10.9191
10.9926
11.1737
11.1977
11.2264
11.3118
1
1.00001
1.00002
1.00004
1.00011
1.00022
1.00064
1.00129
1.00373
1.00734
1.02287
1.04097
1.15073
1.26668
2.04706
3.46374
8.39905
11.1099
10.8991
10.7004
10.7437
10.859
10.8427
10.7782
10.7822
1
1
1.00002
1.00003
1.00009
1.00019
1.00055
1.00112
1.00322
1.00637
1.01977
1.03556
1.13021
1.23118
1.88911
3.09419
7.34778
11.041
10.7839
10.4685
10.4672
10.4811
10.4024
10.1643
9.87525
1
1.00001
1.00003
1.00006
1.00017
1.00036
1.00102
1.00207
1.00594
1.0117
1.03655
1.06568
1.23719
1.47388
2.60845
5.35355
12.1174
11.7402
11.4566
11.5494
11.827
12.0753
12.1554
12.2717
12.3324
1
1.00001
1.00003
1.00006
1.00017
1.00036
1.00101
1.00204
1.00588
1.01158
1.03614
1.06498
1.2349
1.46583
2.59675
5.29028
12.0479
11.7192
11.4486
11.5399
11.8117
12.0627
12.145
12.2621
12.3242
1
1.00001
1.00003
1.00006
1.00017
1.00035
1.00099
1.00201
1.00577
1.01137
1.03533
1.06363
1.23004
1.44999
2.57054
5.15808
11.888
11.6643
11.4272
11.5071
11.7573
12.0112
12.0942
12.2106
12.2745
1
1.00001
1.00003
1.00006
1.00016
1.00034
1.00096
1.00195
1.0056
1.0111
1.03412
1.06222
1.2217
1.43143
2.52535
4.96748
11.6282
11.5656
11.3996
11.4516
11.6621
11.9206
12.0027
12.117
12.1848
1
1.00001
1.00003
1.00006
1.00016
1.00033
1.00092
1.00187
1.00536
1.01067
1.03254
1.05985
1.21129
1.40695
2.46349
4.72716
11.2528
11.4661
11.3421
11.371
11.5379
11.7967
11.8756
11.9857
12.0599
1
1.00001
1.00002
1.00005
1.00015
1.00031
1.00087
1.00177
1.00506
1.01008
1.03061
1.05667
1.19854
1.37914
2.37711
4.45367
10.7414
11.3798
11.2504
11.2583
11.3848
11.6375
11.7035
11.8031
11.8897
1
1.00001
1.00002
1.00005
1.00014
1.00028
1.0008
1.00164
1.00469
1.00939
1.02831
1.05287
1.18372
1.34668
2.27778
4.14596
10.0989
11.2886
11.1429
11.1084
11.2068
11.431
11.4787
11.5547
11.6542
1
1.00001
1.00002
1.00004
1.00012
1.00025
1.00072
1.00147
1.00423
1.00841
1.02576
1.04716
1.16899
1.30814
2.16674
3.82317
9.32091
11.1955
11.0243
10.9191
10.9927
11.1738
11.1977
11.2264
11.3119
1
1.00001
1.00002
1.00004
1.00011
1.00022
1.00064
1.00129
1.00373
1.00734
1.02287
1.04097
1.15073
1.26669
2.04706
3.46376
8.39911
11.1099
10.8991
10.7004
10.7437
10.859
10.8427
10.7783
10.7822
1
1
1.00002
1.00003
1.00009
1.00019
1.00055
1.00112
1.00322
1.00637
1.01977
1.03556
1.13021
1.23118
1.88912
3.09421
7.34783
11.041
10.784
10.4686
10.4672
10.4811
10.4024
10.1643
9.87525
1
1.00001
1.00003
1.00006
1.00017
1.00036
1.00102
1.00207
1.00594
1.0117
1.03655
1.06568
1.23719
1.47388
2.60845
5.35354
12.1174
11.7402
11.4566
11.5495
11.827
12.0753
12.1554
12.2717
12.3324
1
1.00001
1.00003
1.00006
1.00017
1.00036
1.00101
1.00204
1.00588
1.01158
1.03614
1.06498
1.2349
1.46583
2.59675
5.29027
12.0479
11.7192
11.4486
11.5399
11.8118
12.0627
12.145
12.2621
12.3242
1
1.00001
1.00003
1.00006
1.00017
1.00035
1.00099
1.00201
1.00577
1.01137
1.03533
1.06363
1.23004
1.44999
2.57054
5.15807
11.888
11.6643
11.4272
11.5071
11.7573
12.0112
12.0942
12.2106
12.2745
1
1.00001
1.00003
1.00006
1.00016
1.00034
1.00096
1.00195
1.0056
1.0111
1.03412
1.06222
1.2217
1.43143
2.52535
4.96747
11.6282
11.5656
11.3996
11.4517
11.6622
11.9206
12.0027
12.117
12.1848
1
1.00001
1.00003
1.00006
1.00016
1.00033
1.00092
1.00187
1.00536
1.01067
1.03254
1.05985
1.21129
1.40695
2.46349
4.72715
11.2528
11.4661
11.3421
11.371
11.5379
11.7967
11.8756
11.9857
12.0599
1
1.00001
1.00002
1.00005
1.00015
1.00031
1.00087
1.00177
1.00506
1.01008
1.03061
1.05667
1.19854
1.37914
2.37711
4.45367
10.7414
11.3798
11.2505
11.2583
11.3848
11.6375
11.7035
11.8031
11.8897
1
1.00001
1.00002
1.00005
1.00014
1.00028
1.0008
1.00164
1.00469
1.00939
1.02831
1.05287
1.18372
1.34668
2.27778
4.14596
10.0989
11.2886
11.1429
11.1084
11.2069
11.431
11.4787
11.5547
11.6542
1
1.00001
1.00002
1.00004
1.00012
1.00025
1.00072
1.00147
1.00423
1.00841
1.02576
1.04716
1.16899
1.30814
2.16673
3.82317
9.32089
11.1955
11.0243
10.9191
10.9927
11.1738
11.1977
11.2264
11.3119
1
1.00001
1.00002
1.00004
1.00011
1.00022
1.00064
1.00129
1.00373
1.00734
1.02287
1.04097
1.15073
1.26669
2.04706
3.46375
8.39909
11.1099
10.8992
10.7004
10.7437
10.8591
10.8428
10.7783
10.7822
1
1
1.00002
1.00003
1.00009
1.00019
1.00055
1.00112
1.00322
1.00637
1.01977
1.03556
1.13021
1.23118
1.88912
3.09421
7.34782
11.0411
10.784
10.4686
10.4672
10.4811
10.4024
10.1643
9.87526
1
1.00001
1.00003
1.00006
1.00017
1.00036
1.00102
1.00207
1.00595
1.0117
1.03655
1.06568
1.2372
1.47389
2.60846
5.35362
12.1175
11.7402
11.4566
11.5495
11.827
12.0753
12.1554
12.2717
12.3324
1
1.00001
1.00003
1.00006
1.00017
1.00036
1.00101
1.00204
1.00588
1.01158
1.03614
1.06498
1.2349
1.46584
2.59676
5.29034
12.048
11.7192
11.4486
11.5399
11.8117
12.0627
12.145
12.2621
12.3242
1
1.00001
1.00003
1.00006
1.00017
1.00035
1.00099
1.00201
1.00577
1.01137
1.03533
1.06363
1.23004
1.45
2.57055
5.15814
11.8881
11.6643
11.4272
11.5071
11.7573
12.0112
12.0942
12.2106
12.2745
1
1.00001
1.00003
1.00006
1.00016
1.00034
1.00096
1.00195
1.0056
1.0111
1.03412
1.06222
1.22171
1.43143
2.52536
4.96754
11.6283
11.5656
11.3996
11.4516
11.6622
11.9206
12.0026
12.117
12.1848
1
1.00001
1.00003
1.00006
1.00016
1.00033
1.00092
1.00187
1.00536
1.01067
1.03254
1.05985
1.21129
1.40695
2.46351
4.72721
11.2529
11.4661
11.3421
11.371
11.5379
11.7967
11.8756
11.9857
12.0599
1
1.00001
1.00002
1.00005
1.00015
1.00031
1.00087
1.00177
1.00506
1.01009
1.03061
1.05667
1.19854
1.37914
2.37713
4.45372
10.7415
11.3798
11.2504
11.2583
11.3848
11.6375
11.7035
11.8031
11.8897
1
1.00001
1.00002
1.00005
1.00014
1.00028
1.0008
1.00164
1.00469
1.00939
1.02831
1.05287
1.18372
1.34669
2.2778
4.14601
10.099
11.2886
11.1429
11.1084
11.2068
11.431
11.4787
11.5547
11.6542
1
1.00001
1.00002
1.00004
1.00012
1.00025
1.00072
1.00147
1.00423
1.00841
1.02576
1.04716
1.16899
1.30815
2.16675
3.82321
9.32102
11.1955
11.0243
10.9191
10.9927
11.1738
11.1977
11.2264
11.3119
1
1.00001
1.00002
1.00004
1.00011
1.00022
1.00064
1.00129
1.00373
1.00734
1.02287
1.04097
1.15073
1.26669
2.04708
3.4638
8.39922
11.1099
10.8991
10.7004
10.7437
10.859
10.8427
10.7783
10.7822
1
1
1.00002
1.00003
1.00009
1.00019
1.00055
1.00112
1.00322
1.00637
1.01977
1.03556
1.13021
1.23118
1.88914
3.09425
7.34795
11.041
10.7839
10.4686
10.4672
10.4811
10.4024
10.1643
9.87526
1
1.00001
1.00003
1.00006
1.00017
1.00036
1.00102
1.00207
1.00594
1.0117
1.03655
1.06568
1.23719
1.47389
2.60846
5.35358
12.1175
11.7402
11.4566
11.5495
11.827
12.0753
12.1554
12.2717
12.3324
1
1.00001
1.00003
1.00006
1.00017
1.00036
1.00101
1.00204
1.00588
1.01158
1.03614
1.06498
1.2349
1.46584
2.59675
5.29031
12.0479
11.7192
11.4486
11.5399
11.8117
12.0627
12.145
12.2621
12.3242
1
1.00001
1.00003
1.00006
1.00017
1.00035
1.00099
1.00201
1.00577
1.01137
1.03533
1.06363
1.23004
1.45
2.57055
5.15811
11.8881
11.6643
11.4272
11.5071
11.7573
12.0112
12.0942
12.2106
12.2745
1
1.00001
1.00003
1.00006
1.00016
1.00034
1.00096
1.00195
1.0056
1.0111
1.03412
1.06222
1.2217
1.43143
2.52536
4.96751
11.6283
11.5656
11.3996
11.4516
11.6622
11.9206
12.0026
12.117
12.1848
1
1.00001
1.00003
1.00006
1.00016
1.00033
1.00092
1.00187
1.00536
1.01067
1.03254
1.05985
1.21129
1.40695
2.4635
4.72718
11.2528
11.4661
11.3421
11.371
11.5379
11.7967
11.8756
11.9857
12.0599
1
1.00001
1.00002
1.00005
1.00015
1.00031
1.00087
1.00177
1.00506
1.01009
1.03061
1.05667
1.19854
1.37914
2.37712
4.4537
10.7415
11.3798
11.2505
11.2583
11.3848
11.6375
11.7035
11.8031
11.8897
1
1.00001
1.00002
1.00005
1.00014
1.00028
1.0008
1.00164
1.00469
1.00939
1.02831
1.05287
1.18372
1.34669
2.27779
4.14598
10.099
11.2886
11.1429
11.1084
11.2068
11.431
11.4787
11.5547
11.6542
1
1.00001
1.00002
1.00004
1.00012
1.00025
1.00072
1.00147
1.00423
1.00841
1.02576
1.04716
1.16899
1.30814
2.16674
3.82319
9.32096
11.1955
11.0243
10.9191
10.9927
11.1738
11.1977
11.2264
11.3119
1
1.00001
1.00002
1.00004
1.00011
1.00022
1.00064
1.00129
1.00373
1.00734
1.02287
1.04097
1.15073
1.26669
2.04707
3.46378
8.39916
11.1099
10.8991
10.7004
10.7437
10.859
10.8427
10.7783
10.7822
1
1
1.00002
1.00003
1.00009
1.00019
1.00055
1.00112
1.00322
1.00637
1.01977
1.03556
1.13021
1.23118
1.88913
3.09423
7.34789
11.041
10.784
10.4686
10.4672
10.4811
10.4024
10.1643
9.87525
1
1.00001
1.00003
1.00006
1.00017
1.00036
1.00102
1.00207
1.00594
1.0117
1.03655
1.06568
1.23719
1.47388
2.60845
5.35354
12.1174
11.7402
11.4566
11.5495
11.827
12.0753
12.1554
12.2717
12.3324
1
1.00001
1.00003
1.00006
1.00017
1.00036
1.00101
1.00204
1.00588
1.01158
1.03614
1.06498
1.2349
1.46583
2.59675
5.29027
12.0479
11.7192
11.4486
11.5399
11.8118
12.0627
12.145
12.2621
12.3242
1
1.00001
1.00003
1.00006
1.00017
1.00035
1.00099
1.00201
1.00577
1.01137
1.03533
1.06363
1.23004
1.44999
2.57054
5.15807
11.888
11.6643
11.4272
11.5071
11.7573
12.0112
12.0942
12.2106
12.2745
1
1.00001
1.00003
1.00006
1.00016
1.00034
1.00096
1.00195
1.0056
1.0111
1.03412
1.06222
1.2217
1.43143
2.52535
4.96747
11.6282
11.5656
11.3996
11.4517
11.6622
11.9206
12.0027
12.117
12.1848
1
1.00001
1.00003
1.00006
1.00016
1.00033
1.00092
1.00187
1.00536
1.01067
1.03254
1.05985
1.21129
1.40695
2.46349
4.72715
11.2528
11.4661
11.3421
11.371
11.5379
11.7967
11.8756
11.9857
12.0599
1
1.00001
1.00002
1.00005
1.00015
1.00031
1.00087
1.00177
1.00506
1.01008
1.03061
1.05667
1.19854
1.37914
2.37711
4.45367
10.7414
11.3798
11.2505
11.2583
11.3848
11.6375
11.7035
11.8031
11.8897
1
1.00001
1.00002
1.00005
1.00014
1.00028
1.0008
1.00164
1.00469
1.00939
1.02831
1.05287
1.18372
1.34668
2.27778
4.14595
10.0989
11.2886
11.1429
11.1084
11.2069
11.431
11.4787
11.5547
11.6542
1
1.00001
1.00002
1.00004
1.00012
1.00025
1.00072
1.00147
1.00423
1.00841
1.02576
1.04716
1.16899
1.30814
2.16673
3.82317
9.32089
11.1955
11.0243
10.9191
10.9927
11.1738
11.1977
11.2264
11.3119
1
1.00001
1.00002
1.00004
1.00011
1.00022
1.00064
1.00129
1.00373
1.00734
1.02287
1.04097
1.15073
1.26669
2.04706
3.46375
8.39909
11.1099
10.8992
10.7004
10.7437
10.8591
10.8428
10.7783
10.7822
1
1
1.00002
1.00003
1.00009
1.00019
1.00055
1.00112
1.00322
1.00637
1.01977
1.03556
1.13021
1.23118
1.88912
3.0942
7.34782
11.0411
10.784
10.4686
10.4672
10.4811
10.4024
10.1643
9.87526
1
1.00001
1.00003
1.00006
1.00017
1.00036
1.00102
1.00207
1.00594
1.0117
1.03655
1.06568
1.23719
1.47388
2.60845
5.35355
12.1174
11.7402
11.4566
11.5494
11.827
12.0753
12.1554
12.2717
12.3324
1
1.00001
1.00003
1.00006
1.00017
1.00036
1.00101
1.00204
1.00588
1.01158
1.03614
1.06498
1.2349
1.46583
2.59675
5.29028
12.0479
11.7192
11.4486
11.5399
11.8117
12.0627
12.145
12.2621
12.3242
1
1.00001
1.00003
1.00006
1.00017
1.00035
1.00099
1.00201
1.00577
1.01137
1.03533
1.06363
1.23004
1.44999
2.57054
5.15808
11.888
11.6643
11.4272
11.5071
11.7573
12.0112
12.0942
12.2106
12.2745
1
1.00001
1.00003
1.00006
1.00016
1.00034
1.00096
1.00195
1.0056
1.0111
1.03412
1.06222
1.2217
1.43143
2.52535
4.96748
11.6282
11.5656
11.3996
11.4516
11.6621
11.9206
12.0027
12.117
12.1848
1
1.00001
1.00003
1.00006
1.00016
1.00033
1.00092
1.00187
1.00536
1.01067
1.03254
1.05985
1.21129
1.40695
2.46349
4.72716
11.2528
11.4661
11.3421
11.371
11.5379
11.7967
11.8756
11.9857
12.0599
1
1.00001
1.00002
1.00005
1.00015
1.00031
1.00087
1.00177
1.00506
1.01008
1.03061
1.05667
1.19854
1.37914
2.37711
4.45367
10.7414
11.3798
11.2504
11.2583
11.3848
11.6375
11.7035
11.8031
11.8897
1
1.00001
1.00002
1.00005
1.00014
1.00028
1.0008
1.00164
1.00469
1.00939
1.02831
1.05287
1.18372
1.34668
2.27778
4.14596
10.0989
11.2886
11.1429
11.1084
11.2068
11.431
11.4787
11.5547
11.6542
1
1.00001
1.00002
1.00004
1.00012
1.00025
1.00072
1.00147
1.00423
1.00841
1.02576
1.04716
1.16899
1.30814
2.16674
3.82317
9.32091
11.1955
11.0243
10.9191
10.9927
11.1738
11.1977
11.2264
11.3119
1
1.00001
1.00002
1.00004
1.00011
1.00022
1.00064
1.00129
1.00373
1.00734
1.02287
1.04097
1.15073
1.26669
2.04706
3.46376
8.39911
11.1099
10.8991
10.7004
10.7437
10.859
10.8427
10.7783
10.7822
1
1
1.00002
1.00003
1.00009
1.00019
1.00055
1.00112
1.00322
1.00637
1.01977
1.03556
1.13021
1.23118
1.88912
3.09421
7.34783
11.041
10.784
10.4686
10.4672
10.4811
10.4024
10.1643
9.87525
1
1.00001
1.00003
1.00006
1.00017
1.00036
1.00102
1.00207
1.00594
1.0117
1.03655
1.06568
1.23719
1.47388
2.60845
5.35353
12.1174
11.7402
11.4566
11.5494
11.8269
12.0753
12.1554
12.2716
12.3324
1
1.00001
1.00003
1.00006
1.00017
1.00036
1.00101
1.00204
1.00588
1.01158
1.03614
1.06498
1.2349
1.46583
2.59674
5.29025
12.0479
11.7192
11.4486
11.5399
11.8117
12.0627
12.145
12.2621
12.3242
1
1.00001
1.00003
1.00006
1.00017
1.00035
1.00099
1.00201
1.00577
1.01137
1.03533
1.06363
1.23004
1.44999
2.57054
5.15806
11.888
11.6643
11.4272
11.5071
11.7573
12.0112
12.0942
12.2106
12.2745
1
1.00001
1.00003
1.00006
1.00016
1.00034
1.00096
1.00195
1.0056
1.0111
1.03412
1.06222
1.2217
1.43143
2.52535
4.96746
11.6282
11.5655
11.3996
11.4516
11.6621
11.9206
12.0026
12.117
12.1848
1
1.00001
1.00003
1.00006
1.00016
1.00033
1.00092
1.00187
1.00536
1.01067
1.03254
1.05985
1.21129
1.40695
2.46348
4.72714
11.2528
11.466
11.3421
11.371
11.5379
11.7967
11.8756
11.9857
12.0599
1
1.00001
1.00002
1.00005
1.00015
1.00031
1.00087
1.00177
1.00506
1.01008
1.03061
1.05667
1.19854
1.37913
2.37711
4.45365
10.7414
11.3798
11.2504
11.2583
11.3848
11.6375
11.7035
11.8031
11.8897
1
1.00001
1.00002
1.00005
1.00014
1.00028
1.0008
1.00164
1.00469
1.00939
1.02831
1.05287
1.18372
1.34668
2.27778
4.14594
10.0989
11.2886
11.1429
11.1084
11.2068
11.4309
11.4787
11.5547
11.6542
1
1.00001
1.00002
1.00004
1.00012
1.00025
1.00072
1.00147
1.00423
1.00841
1.02576
1.04716
1.16899
1.30814
2.16673
3.82315
9.32086
11.1955
11.0243
10.9191
10.9926
11.1737
11.1977
11.2264
11.3118
1
1.00001
1.00002
1.00004
1.00011
1.00022
1.00064
1.00129
1.00373
1.00734
1.02287
1.04097
1.15073
1.26668
2.04706
3.46374
8.39905
11.1099
10.8991
10.7004
10.7437
10.859
10.8427
10.7782
10.7822
1
1
1.00002
1.00003
1.00009
1.00019
1.00055
1.00112
1.00322
1.00637
1.01977
1.03556
1.13021
1.23118
1.88911
3.09419
7.34778
11.041
10.7839
10.4685
10.4672
10.4811
10.4024
10.1643
9.87525
1
1.00001
1.00002
1.00006
1.00017
1.00035
1.00101
1.00206
1.00594
1.01169
1.03653
1.06565
1.23717
1.47369
2.6084
5.35263
12.1168
11.7402
11.4567
11.5495
11.8268
12.0752
12.1554
12.2716
12.3324
1
1.00001
1.00002
1.00006
1.00017
1.00035
1.001
1.00204
1.00587
1.01157
1.03613
1.06495
1.23488
1.46565
2.59669
5.2894
12.0473
11.7192
11.4487
11.5399
11.8116
12.0626
12.1449
12.262
12.3242
1
1.00001
1.00002
1.00005
1.00016
1.00034
1.00098
1.002
1.00576
1.01136
1.03532
1.0636
1.23001
1.44986
2.57041
5.15732
11.8874
11.6642
11.4273
11.5071
11.7571
12.0111
12.0942
12.2105
12.2745
1
1.00001
1.00002
1.00005
1.00016
1.00033
1.00095
1.00194
1.00559
1.01109
1.0341
1.0622
1.22167
1.43133
2.52521
4.96678
11.6276
11.5653
11.3997
11.4517
11.662
11.9205
12.0026
12.1169
12.1848
1
1
1.00002
1.00005
1.00015
1.00032
1.00091
1.00186
1.00535
1.01066
1.03253
1.05983
1.21126
1.40685
2.46333
4.72652
11.252
11.4661
11.3422
11.3711
11.5378
11.7966
11.8755
11.9857
12.0599
1
1
1.00002
1.00005
1.00014
1.0003
1.00086
1.00176
1.00505
1.01007
1.03059
1.05664
1.19851
1.37904
2.377
4.45308
10.7406
11.3799
11.2505
11.2583
11.3847
11.6374
11.7035
11.8031
11.8897
1
1
1.00002
1.00004
1.00013
1.00028
1.0008
1.00163
1.00468
1.00938
1.0283
1.05285
1.1837
1.34658
2.2777
4.14546
10.0981
11.2886
11.1429
11.1084
11.2068
11.4309
11.4786
11.5547
11.6541
1
1
1.00002
1.00004
1.00012
1.00025
1.00072
1.00146
1.00422
1.0084
1.02574
1.04713
1.16898
1.30804
2.16665
3.82278
9.32012
11.1955
11.0243
10.919
10.9926
11.1737
11.1976
11.2264
11.3118
1
1
1.00001
1.00003
1.0001
1.00022
1.00063
1.00128
1.00372
1.00733
1.02286
1.04095
1.1507
1.26662
2.04695
3.46338
8.39828
11.1099
10.8991
10.7003
10.7436
10.859
10.8427
10.7782
10.7821
0.999999
1
1.00001
1.00003
1.00009
1.00018
1.00054
1.00111
1.00321
1.00635
1.01976
1.03553
1.13018
1.23111
1.88902
3.09387
7.34703
11.0411
10.7839
10.4685
10.4671
10.481
10.4024
10.1643
9.87524
0.999998
1
1.00001
1.00003
1.00006
1.00018
1.00037
1.00107
1.00209
1.00659
1.01156
1.04279
1.07055
1.27609
1.56712
2.85758
6.02986
10.8948
10.6627
10.2686
10.1582
10.0697
9.82757
9.22093
7.70751
0.999997
0.999999
1
1.00002
1.00005
1.00016
1.00033
1.00094
1.00192
1.00554
1.011
1.03393
1.06211
1.21918
1.43626
2.47442
4.82567
10.466
10.3977
10.1061
9.84057
9.64736
9.24715
8.42018
6.83532
0.999996
0.999997
1
1.00002
1.00004
1.00013
1.00027
1.00078
1.0016
1.0046
1.00925
1.02782
1.05227
1.1801
1.34161
2.24291
4.02632
9.3949
10.0474
9.87014
9.52209
9.23532
8.74721
7.88517
6.54098
0.999995
0.999996
0.999999
1.00001
1.00003
1.0001
1.00021
1.00062
1.00128
1.00369
1.00727
1.02266
1.04048
1.14833
1.26211
2.01965
3.37554
7.88652
9.74327
9.60847
9.26745
8.88189
8.36101
7.57298
6.47228
0.999994
0.999995
0.999997
1.00001
1.00002
1.00008
1.00017
1.00051
1.00104
1.003
1.00606
1.01796
1.03448
1.11454
1.21398
1.77363
2.81417
6.35631
9.54811
9.42708
9.07614
8.6038
8.07312
7.36332
6.44517
0.999993
0.999994
0.999996
1
1.00002
1.00005
1.00015
1.00032
1.00092
1.00188
1.00545
1.01068
1.03353
1.05988
1.21457
1.42772
2.38852
4.53134
9.15966
9.19863
8.95305
8.42665
7.86364
7.20669
6.41332
0.999992
0.999993
0.999995
0.999999
1.00001
1.00003
1.00012
1.00025
1.00071
1.00146
1.00418
1.00834
1.02527
1.04655
1.16378
1.29877
2.10141
3.59546
8.05983
8.8834
8.71414
8.2846
7.69754
7.0786
6.38076
0.999992
0.999992
0.999994
0.999997
1.00001
1.00002
1.00008
1.00018
1.00053
1.00109
1.00313
1.00628
1.01881
1.03501
1.12117
1.21896
1.80939
2.86785
6.345
8.56927
8.48045
8.16871
7.5769
6.9845
6.35546
0.999992
0.999992
0.999993
0.999996
1
1.00002
1.00005
1.00015
1.00032
1.00091
1.00186
1.00535
1.01062
1.0325
1.05989
1.20565
1.42586
2.32545
4.3709
8.11568
8.2801
8.0717
7.56742
6.94724
6.34908
0.999991
0.999991
0.999992
0.999994
0.999997
1.00001
1.00003
1.0001
1.00022
1.00063
1.00129
1.00372
1.00731
1.0228
1.04078
1.14736
1.26491
1.98051
3.25926
7.03688
8.03953
7.90845
7.53936
6.94963
6.35331
0.999991
0.999991
0.999992
0.999993
0.999996
1
1.00002
1.00005
1.00017
1.00036
1.00104
1.00207
1.0063
1.01146
1.04029
1.06786
1.25831
1.51632
2.67058
5.20005
7.66897
7.66221
7.46477
6.98238
6.37103
0.999991
0.999991
0.999991
0.999992
0.999994
0.999998
1.00001
1.00003
1.00012
1.00025
1.00072
1.00147
1.00423
1.0085
1.02555
1.04816
1.16254
1.31165
2.05051
3.42116
6.91525
7.49038
7.35822
6.99429
6.41833
0.999991
0.999991
0.999991
0.999991
0.999992
0.999996
1
1.00002
1.00006
1.00018
1.00039
1.00112
1.00225
1.00674
1.01258
1.04263
1.07395
1.2729
1.54865
2.7309
5.23608
7.15343
7.14287
6.96377
6.53036
0.999991
0.999991
0.999991
0.999991
0.999992
0.999994
0.999998
1.00001
1.00004
1.00012
1.00025
1.00074
1.00152
1.00435
1.0088
1.02591
1.05017
1.16114
1.32192
2.01961
3.33465
6.47778
6.98751
6.88634
6.59376
0.999991
0.99999
0.999991
0.999991
0.999991
0.999992
0.999996
1
1.00002
1.00006
1.00018
1.00039
1.00112
1.00228
1.00659
1.0132
1.04009
1.07565
1.2536
1.5296
2.60089
4.89822
6.64202
6.70082
6.56598
0.999991
0.99999
0.99999
0.99999
0.999991
0.999992
0.999994
0.999998
1.00001
1.00003
1.00011
1.00024
1.00069
1.00142
1.00403
1.00817
1.02388
1.0462
1.14801
1.29116
1.92353
3.0794
5.91344
6.53102
6.47732
0.999991
0.99999
0.99999
0.99999
0.999991
0.999991
0.999992
0.999995
1
1.00002
1.00005
1.00016
1.00034
1.00098
1.00199
1.00576
1.01149
1.03493
1.06644
1.21803
1.45587
2.35274
4.24028
6.1109
6.31431
0.999991
0.99999
0.99999
0.99999
0.99999
0.999991
0.999991
0.999993
0.999997
1.00001
1.00003
1.00009
1.0002
1.00058
1.00118
1.00338
1.00679
1.02018
1.03824
1.12629
1.23629
1.78345
2.71351
5.19261
6.10045
0.999991
0.99999
0.99999
0.99999
0.99999
0.99999
0.999991
0.999992
0.999994
0.999999
1.00001
1.00004
1.00013
1.00027
1.00079
1.00161
1.0046
1.00928
1.02707
1.05358
1.16315
1.34709
1.97916
3.26733
5.55942
0.999991
0.99999
0.99999
0.99999
0.99999
0.99999
0.999991
0.999991
0.999992
0.999996
1
1.00002
1.00006
1.00018
1.00038
1.00109
1.00223
1.00638
1.0128
1.03788
1.07431
1.23068
1.49726
2.3855
4.28816
0.999991
0.99999
0.99999
0.99999
0.99999
0.99999
0.99999
0.999991
0.999991
0.999993
0.999997
1.00001
1.00003
1.0001
1.00021
1.0006
1.00123
1.00348
1.00708
1.02033
1.04007
1.12348
1.24238
1.7448
2.62469
0.999991
0.99999
0.99999
0.99999
0.99999
0.99999
0.99999
0.99999
0.999991
0.999992
0.999994
0.999998
1.00001
1.00004
1.00012
1.00026
1.00076
1.00155
1.0044
1.00882
1.02584
1.05006
1.15444
1.3153
1.89702
0.999991
0.99999
0.99999
0.99999
0.99999
0.99999
0.99999
0.99999
0.999991
0.999991
0.999992
0.999995
1
1.00002
1.00006
1.00014
1.0004
1.00082
1.00233
1.00472
1.0136
1.02625
1.08334
1.15324
1.50556
0.999991
0.99999
0.99999
0.99999
0.99999
0.99999
0.99999
0.99999
0.99999
0.999991
0.999991
0.999992
0.999996
1
1.00003
1.00006
1.0002
1.00042
1.0012
1.00246
1.007
1.01426
1.04092
1.08556
1.24422
0.999991
0.99999
0.99999
0.99999
0.99999
0.99999
0.99999
0.99999
0.99999
0.99999
0.999991
0.999991
0.999993
0.999996
1.00001
1.00003
1.00009
1.0002
1.00058
1.00121
1.00343
1.00701
1.01995
1.04045
1.11755
0.999991
0.99999
0.99999
0.99999
0.99999
0.99999
0.99999
0.99999
0.99999
0.99999
0.99999
0.999991
0.999991
0.999994
0.999997
1.00001
1.00003
1.00011
1.00023
1.00067
1.00137
1.0039
1.00799
1.02254
1.04701
0.999991
0.99999
0.99999
0.99999
0.99999
0.99999
0.99999
0.99999
0.99999
0.99999
0.99999
0.99999
0.999991
0.999992
0.999994
0.999998
1.00001
1.00004
1.00012
1.00026
1.00075
1.00154
1.00437
1.00894
1.0254
0.999991
0.99999
0.99999
0.99999
0.99999
0.99999
0.99999
0.99999
0.99999
0.99999
0.99999
0.99999
0.99999
0.999991
0.999992
0.999994
0.999999
1.00001
1.00004
1.00013
1.00028
1.00081
1.00167
1.00479
1.00969
0.999991
0.99999
0.99999
0.99999
0.99999
0.99999
0.99999
0.99999
0.99999
0.99999
0.99999
0.99999
0.99999
0.999991
0.999991
0.999992
0.999994
1
1.00001
1.00005
1.00012
1.00035
1.00073
1.0021
1.00422
0.999991
0.99999
0.99999
0.99999
0.99999
0.99999
0.99999
0.99999
0.99999
0.99999
0.99999
0.99999
0.99999
0.99999
0.999991
0.999991
0.999992
0.999994
1
1.00001
1.00005
1.00012
1.00036
1.00074
1.00213
0.999991
0.99999
0.99999
0.99999
0.99999
0.99999
0.99999
0.99999
0.99999
0.99999
0.99999
0.99999
0.99999
0.99999
0.99999
0.999991
0.999991
0.999992
0.999995
1
1.00001
1.00006
1.00012
1.00036
1.00075
0.999991
0.99999
0.99999
0.99999
0.99999
0.99999
0.99999
0.99999
0.99999
0.99999
0.99999
0.99999
0.99999
0.99999
0.99999
0.999991
0.999991
0.999991
0.999993
0.999995
1
1.00001
1.00005
1.00012
1.00035
0.999991
0.99999
0.99999
0.99999
0.99999
0.99999
0.99999
0.99999
0.99999
0.99999
0.99999
0.99999
0.99999
0.99999
0.99999
0.999991
0.999991
0.999991
0.999992
0.999993
0.999996
1
1.00002
1.00005
1.00014
0.999991
0.99999
0.99999
0.99999
0.99999
0.99999
0.99999
0.99999
0.99999
0.99999
0.99999
0.99999
0.99999
0.99999
0.99999
0.999991
0.999991
0.999991
0.999992
0.999993
0.999995
0.999998
1
1.00002
1.00005
0.999991
0.99999
0.99999
0.99999
0.99999
0.99999
0.99999
0.99999
0.99999
0.99999
0.99999
0.99999
0.99999
0.99999
0.99999
0.999991
0.999991
0.999991
0.999992
0.999993
0.999994
0.999997
1
1.00001
1.00003
0.999991
0.99999
0.99999
0.99999
0.99999
0.99999
0.99999
0.99999
0.99999
0.99999
0.99999
0.99999
0.99999
0.99999
0.99999
0.999991
0.999991
0.999991
0.999992
0.999993
0.999994
0.999997
1
1.00001
1.00002
0.999991
0.99999
0.99999
0.99999
0.99999
0.99999
0.99999
0.99999
0.99999
0.99999
0.99999
0.99999
0.99999
0.99999
0.99999
0.999991
0.999991
0.999991
0.999992
0.999993
0.999994
0.999997
1
1.00001
1.00002
0.999991
0.99999
0.99999
0.99999
0.99999
0.99999
0.99999
0.99999
0.99999
0.99999
0.99999
0.99999
0.99999
0.99999
0.99999
0.999991
0.999991
0.999991
0.999992
0.999993
0.999994
0.999997
1
1.00001
1.00002
0.999991
0.99999
0.99999
0.99999
0.99999
0.99999
0.99999
0.99999
0.99999
0.99999
0.99999
0.99999
0.99999
0.99999
0.99999
0.999991
0.999991
0.999991
0.999992
0.999993
0.999994
0.999997
1
1.00001
1.00002
0.999991
0.99999
0.99999
0.99999
0.99999
0.99999
0.99999
0.99999
0.99999
0.99999
0.99999
0.99999
0.99999
0.99999
0.99999
0.999991
0.999991
0.999991
0.999992
0.999993
0.999994
0.999997
1
1.00001
1.00002
1
1
1.00001
1.00003
1.00007
1.00018
1.00037
1.00108
1.0021
1.0066
1.01158
1.04281
1.07058
1.27614
1.56724
2.85786
6.03071
10.8948
10.6628
10.2686
10.1582
10.0697
9.82758
9.22094
7.70752
1
1
1.00001
1.00003
1.00006
1.00016
1.00033
1.00095
1.00193
1.00555
1.01101
1.03394
1.06214
1.21921
1.43636
2.47453
4.8262
10.4662
10.3977
10.106
9.84058
9.64737
9.24716
8.42019
6.83532
1
1
1.00001
1.00002
1.00005
1.00014
1.00028
1.00079
1.00161
1.00461
1.00926
1.02784
1.0523
1.18012
1.34169
2.24301
4.0267
9.39546
10.0474
9.87016
9.52211
9.23535
8.74722
7.88519
6.541
1
1
1.00001
1.00002
1.00004
1.00011
1.00022
1.00063
1.00129
1.0037
1.00728
1.02267
1.0405
1.14836
1.26218
2.01973
3.37583
7.88705
9.74325
9.60846
9.26747
8.88192
8.36105
7.57301
6.47232
1
1
1
1.00001
1.00003
1.00009
1.00018
1.00051
1.00105
1.00301
1.00607
1.01797
1.0345
1.11456
1.21404
1.77369
2.81443
6.3568
9.54812
9.42707
9.07613
8.60381
8.07316
7.36336
6.44521
1
1
1
1.00001
1.00003
1.00006
1.00016
1.00033
1.00093
1.00189
1.00546
1.01069
1.03354
1.05991
1.21458
1.4278
2.38864
4.53167
9.15984
9.19864
8.95306
8.42667
7.86366
7.20672
6.41336
1
1
1
1.00001
1.00002
1.00004
1.00012
1.00025
1.00072
1.00147
1.00419
1.00835
1.02528
1.04658
1.16379
1.29885
2.10148
3.59572
8.06027
8.88343
8.71416
8.28461
7.69759
7.07865
6.3808
1
1
1
1.00001
1.00002
1.00003
1.00009
1.00019
1.00054
1.0011
1.00314
1.00629
1.01883
1.03503
1.12118
1.21903
1.80943
2.86809
6.34543
8.56926
8.48042
8.16869
7.57693
6.98454
6.3555
1
1
1
1
1.00001
1.00003
1.00006
1.00016
1.00033
1.00092
1.00187
1.00536
1.01063
1.03251
1.05991
1.20569
1.42597
2.3257
4.37163
8.1158
8.28009
8.07169
7.56744
6.94728
6.34913
1
1
1
1
1.00001
1.00002
1.00004
1.00011
1.00023
1.00064
1.0013
1.00373
1.00733
1.02281
1.04081
1.14739
1.26497
1.98061
3.25955
7.03728
8.03955
7.90847
7.53937
6.94965
6.35336
1
1
1
1
1.00001
1.00001
1.00003
1.00006
1.00018
1.00037
1.00105
1.00208
1.00632
1.01148
1.0403
1.06789
1.25835
1.51643
2.6708
5.20062
7.66906
7.66226
7.46478
6.98235
6.37106
1
1
1
1
1
1.00001