/*--------------------------------*- C++ -*----------------------------------*\
| =========                 |                                                 |
| \\      /  F ield         | OpenFOAM: The Open Source CFD Toolbox           |
|  \\    /   O peration     | Version:  4.1                                   |
|   \\  /    A nd           | Web:      www.OpenFOAM.org                      |
|    \\/     M anipulation  |                                                 |
\*---------------------------------------------------------------------------*/
FoamFile
{
    version     2.0;
    format      ascii;
    class       volScalarField;
    location    "5.72";
    object      p;
}
// * * * * * * * * * * * * * * * * * * * * * * * * * * * * * * * * * * * * * //

dimensions      [1 -1 -2 0 0 0 0];

internalField   nonuniform List<scalar> 
52500
(
1.00001
1.00003
1.00011
1.00024
1.0007
1.00143
1.0041
1.0081
1.02478
1.04471
1.16101
1.28761
2.09011
3.59267
8.68826
11.4977
11.2202
11.0257
11.1007
11.3182
11.5553
11.7042
11.8161
11.9057
11.976
1.00001
1.00003
1.00011
1.00024
1.00069
1.00141
1.00404
1.00798
1.02447
1.04405
1.15905
1.28321
2.07832
3.55597
8.59656
11.4983
11.2129
11.0137
11.0905
11.3096
11.546
11.6945
11.8077
11.8985
11.9699
1.00001
1.00003
1.00011
1.00023
1.00067
1.00137
1.00393
1.00774
1.02383
1.0427
1.15496
1.27415
2.05266
3.47672
8.39104
11.4998
11.1943
10.9801
11.0572
11.2756
11.5079
11.6528
11.7648
11.854
11.9242
1.00001
1.00003
1.0001
1.00022
1.00064
1.00131
1.00376
1.00739
1.02286
1.04075
1.14867
1.26073
2.01129
3.35532
8.06756
11.5083
11.1699
10.9268
11.0015
11.2151
11.4408
11.5798
11.6875
11.7733
11.8429
1.00001
1.00003
1.0001
1.00021
1.00061
1.00124
1.00357
1.00703
1.0216
1.03869
1.14017
1.2459
1.94366
3.196
7.61722
11.5286
11.1454
10.8569
10.9267
11.1316
11.3489
11.4794
11.5803
11.6615
11.7312
1.00001
1.00003
1.00009
1.0002
1.00057
1.00117
1.00335
1.00668
1.02001
1.03695
1.12821
1.22953
1.85712
2.99891
7.03805
11.5532
11.1209
10.7696
10.8313
11.0218
11.2287
11.3471
11.4362
11.5084
11.5781
1.00001
1.00002
1.00008
1.00018
1.00053
1.00109
1.0031
1.00625
1.01818
1.03529
1.11362
1.21205
1.7579
2.77536
6.35206
11.5502
11.0905
10.6689
10.7183
10.8856
11.0762
11.1758
11.2455
11.2993
11.3615
1
1.00002
1.00008
1.00016
1.00048
1.00099
1.0028
1.00565
1.01633
1.03213
1.10015
1.19215
1.65787
2.54206
5.59634
11.4491
11.0178
10.5533
10.5876
10.722
10.8876
10.9585
10.9949
11.0109
11.0459
1
1.00002
1.00007
1.00015
1.00043
1.00088
1.00251
1.00507
1.01463
1.02885
1.08945
1.1718
1.58342
2.36413
5.11455
11.0222
10.8248
10.4254
10.4374
10.5247
10.6529
10.6822
10.6674
10.6064
10.5463
1
1.00002
1.00006
1.00012
1.00036
1.00074
1.00213
1.0042
1.01282
1.02304
1.08169
1.14159
1.52445
2.18756
4.64165
10.2483
10.5244
10.3484
10.2718
10.3073
10.3707
10.3487
10.2526
10.028
9.68024
1.00001
1.00003
1.00011
1.00025
1.0007
1.00144
1.0041
1.00811
1.02479
1.04473
1.16104
1.28767
2.09019
3.59299
8.6889
11.4975
11.2202
11.0257
11.1008
11.3183
11.5554
11.7043
11.8162
11.9058
11.9761
1.00001
1.00003
1.00011
1.00024
1.00069
1.00142
1.00405
1.00799
1.02448
1.04407
1.15908
1.28328
2.07841
3.55629
8.5972
11.4981
11.2129
11.0138
11.0905
11.3097
11.546
11.6945
11.8078
11.8985
11.97
1.00001
1.00003
1.00011
1.00024
1.00067
1.00138
1.00393
1.00775
1.02384
1.04272
1.15498
1.27421
2.05274
3.47704
8.39169
11.4997
11.1942
10.9802
11.0572
11.2757
11.5079
11.6528
11.7649
11.8541
11.9243
1.00001
1.00003
1.0001
1.00023
1.00065
1.00132
1.00377
1.0074
1.02288
1.04077
1.1487
1.26079
2.01138
3.35563
8.06821
11.5081
11.1699
10.9269
11.0016
11.2151
11.4409
11.5799
11.6876
11.7734
11.843
1.00001
1.00003
1.0001
1.00022
1.00061
1.00125
1.00357
1.00704
1.02161
1.03871
1.1402
1.24596
1.94374
3.19629
7.61788
11.5285
11.1454
10.8569
10.9267
11.1316
11.349
11.4794
11.5804
11.6616
11.7312
1.00001
1.00003
1.00009
1.0002
1.00058
1.00118
1.00336
1.00669
1.02002
1.03698
1.12822
1.22961
1.85715
2.99917
7.03865
11.5532
11.1209
10.7697
10.8314
11.0218
11.2287
11.3471
11.4363
11.5085
11.5782
1.00001
1.00003
1.00009
1.00019
1.00054
1.0011
1.0031
1.00626
1.01819
1.03531
1.11364
1.21211
1.75795
2.77559
6.35262
11.5501
11.0905
10.6689
10.7183
10.8857
11.0763
11.1758
11.2455
11.2994
11.3616
1.00001
1.00002
1.00008
1.00017
1.00049
1.00099
1.0028
1.00566
1.01634
1.03214
1.10017
1.19219
1.65792
2.54222
5.59666
11.4493
11.0179
10.5534
10.5877
10.7221
10.8877
10.9585
10.995
11.011
11.0459
1
1.00002
1.00007
1.00015
1.00043
1.00089
1.00251
1.00508
1.01464
1.02886
1.08946
1.17184
1.58346
2.36428
5.11484
11.0225
10.825
10.4254
10.4375
10.5247
10.653
10.6823
10.6675
10.6064
10.5463
1
1.00002
1.00006
1.00013
1.00037
1.00075
1.00214
1.00421
1.01283
1.02308
1.08168
1.14165
1.52443
2.18771
4.64187
10.2487
10.5244
10.3484
10.2718
10.3074
10.3707
10.3487
10.2526
10.028
9.68028
1.00001
1.00003
1.00011
1.00025
1.0007
1.00144
1.0041
1.00811
1.02479
1.04473
1.16104
1.28767
2.09019
3.593
8.68893
11.4975
11.2202
11.0257
11.1008
11.3183
11.5554
11.7043
11.8162
11.9058
11.9761
1.00001
1.00003
1.00011
1.00024
1.00069
1.00142
1.00405
1.00799
1.02448
1.04407
1.15908
1.28328
2.07841
3.5563
8.59723
11.4981
11.2129
11.0138
11.0905
11.3097
11.546
11.6945
11.8078
11.8985
11.97
1.00001
1.00003
1.00011
1.00024
1.00067
1.00138
1.00393
1.00775
1.02384
1.04272
1.15498
1.27421
2.05275
3.47705
8.39172
11.4997
11.1942
10.9802
11.0572
11.2757
11.5079
11.6528
11.7649
11.8541
11.9243
1.00001
1.00003
1.0001
1.00023
1.00065
1.00132
1.00377
1.0074
1.02288
1.04077
1.1487
1.26079
2.01138
3.35564
8.06824
11.5081
11.1699
10.9269
11.0016
11.2151
11.4409
11.5799
11.6876
11.7734
11.843
1.00001
1.00003
1.0001
1.00022
1.00061
1.00125
1.00357
1.00704
1.02161
1.03871
1.1402
1.24596
1.94375
3.1963
7.61792
11.5285
11.1454
10.8569
10.9268
11.1316
11.349
11.4794
11.5804
11.6616
11.7312
1.00001
1.00003
1.00009
1.0002
1.00058
1.00118
1.00336
1.00669
1.02002
1.03698
1.12822
1.22961
1.85716
2.99919
7.03868
11.5532
11.1209
10.7697
10.8314
11.0218
11.2288
11.3472
11.4363
11.5085
11.5782
1.00001
1.00003
1.00009
1.00019
1.00054
1.0011
1.0031
1.00626
1.0182
1.03531
1.11364
1.21211
1.75796
2.7756
6.35265
11.5501
11.0905
10.6689
10.7183
10.8857
11.0763
11.1758
11.2455
11.2994
11.3616
1.00001
1.00002
1.00008
1.00017
1.00049
1.00099
1.0028
1.00566
1.01634
1.03214
1.10017
1.19219
1.65792
2.54223
5.59668
11.4493
11.0179
10.5534
10.5877
10.7221
10.8877
10.9585
10.995
11.011
11.0459
1
1.00002
1.00007
1.00015
1.00043
1.00089
1.00251
1.00508
1.01464
1.02886
1.08946
1.17184
1.58346
2.36428
5.11486
11.0226
10.825
10.4254
10.4375
10.5247
10.653
10.6823
10.6675
10.6064
10.5464
1
1.00002
1.00006
1.00013
1.00037
1.00075
1.00214
1.00421
1.01283
1.02308
1.08168
1.14165
1.52443
2.18772
4.64188
10.2488
10.5244
10.3484
10.2718
10.3074
10.3707
10.3487
10.2526
10.0281
9.68028
1.00001
1.00003
1.00011
1.00025
1.0007
1.00144
1.0041
1.00811
1.02479
1.04473
1.16104
1.28767
2.09019
3.593
8.68893
11.4975
11.2202
11.0257
11.1008
11.3183
11.5554
11.7043
11.8162
11.9058
11.9761
1.00001
1.00003
1.00011
1.00024
1.00069
1.00142
1.00405
1.00799
1.02448
1.04407
1.15908
1.28328
2.07841
3.5563
8.59723
11.4981
11.2129
11.0138
11.0905
11.3097
11.546
11.6945
11.8078
11.8985
11.97
1.00001
1.00003
1.00011
1.00024
1.00067
1.00138
1.00393
1.00775
1.02384
1.04272
1.15498
1.27421
2.05275
3.47705
8.39171
11.4997
11.1942
10.9802
11.0572
11.2757
11.5079
11.6528
11.7649
11.8541
11.9243
1.00001
1.00003
1.0001
1.00023
1.00065
1.00132
1.00377
1.0074
1.02288
1.04077
1.1487
1.26079
2.01138
3.35564
8.06824
11.5081
11.1699
10.9269
11.0016
11.2151
11.4409
11.5799
11.6876
11.7734
11.843
1.00001
1.00003
1.0001
1.00022
1.00061
1.00125
1.00357
1.00704
1.02161
1.03871
1.1402
1.24596
1.94375
3.1963
7.61791
11.5285
11.1454
10.8569
10.9268
11.1316
11.349
11.4794
11.5804
11.6616
11.7312
1.00001
1.00003
1.00009
1.0002
1.00058
1.00118
1.00336
1.00669
1.02002
1.03698
1.12822
1.22961
1.85716
2.99918
7.03868
11.5532
11.1209
10.7697
10.8314
11.0218
11.2288
11.3472
11.4363
11.5085
11.5782
1.00001
1.00003
1.00009
1.00019
1.00054
1.0011
1.0031
1.00626
1.0182
1.03531
1.11364
1.21211
1.75796
2.7756
6.35265
11.5501
11.0905
10.6689
10.7183
10.8857
11.0763
11.1758
11.2455
11.2994
11.3616
1.00001
1.00002
1.00008
1.00017
1.00049
1.00099
1.0028
1.00566
1.01634
1.03214
1.10017
1.19219
1.65792
2.54223
5.59668
11.4493
11.0179
10.5534
10.5877
10.7221
10.8877
10.9585
10.995
11.011
11.0459
1
1.00002
1.00007
1.00015
1.00043
1.00089
1.00251
1.00508
1.01464
1.02886
1.08946
1.17184
1.58346
2.36428
5.11486
11.0226
10.825
10.4254
10.4375
10.5247
10.653
10.6823
10.6675
10.6064
10.5464
1
1.00002
1.00006
1.00013
1.00037
1.00075
1.00214
1.00421
1.01283
1.02308
1.08168
1.14165
1.52443
2.18772
4.64188
10.2488
10.5244
10.3484
10.2718
10.3074
10.3707
10.3487
10.2526
10.0281
9.68028
1.00001
1.00003
1.00011
1.00025
1.0007
1.00144
1.0041
1.00811
1.02479
1.04473
1.16104
1.28767
2.0902
3.593
8.68894
11.4975
11.2202
11.0257
11.1008
11.3183
11.5554
11.7043
11.8162
11.9058
11.9761
1.00001
1.00003
1.00011
1.00024
1.00069
1.00142
1.00405
1.00799
1.02448
1.04407
1.15908
1.28328
2.07841
3.5563
8.59724
11.4981
11.2129
11.0138
11.0905
11.3097
11.546
11.6945
11.8078
11.8986
11.97
1.00001
1.00003
1.00011
1.00024
1.00067
1.00138
1.00393
1.00775
1.02384
1.04272
1.15498
1.27421
2.05275
3.47705
8.39172
11.4997
11.1942
10.9802
11.0572
11.2757
11.5079
11.6528
11.7649
11.8541
11.9243
1.00001
1.00003
1.0001
1.00023
1.00065
1.00132
1.00377
1.0074
1.02288
1.04077
1.1487
1.26079
2.01138
3.35564
8.06825
11.5081
11.1699
10.9269
11.0016
11.2151
11.4409
11.5799
11.6876
11.7734
11.843
1.00001
1.00003
1.0001
1.00022
1.00061
1.00125
1.00357
1.00704
1.02161
1.03871
1.1402
1.24596
1.94375
3.19631
7.61793
11.5285
11.1454
10.8569
10.9268
11.1316
11.349
11.4794
11.5804
11.6616
11.7312
1.00001
1.00003
1.00009
1.0002
1.00058
1.00118
1.00336
1.00669
1.02002
1.03698
1.12822
1.22961
1.85716
2.99919
7.03869
11.5532
11.1209
10.7697
10.8314
11.0218
11.2288
11.3472
11.4363
11.5085
11.5782
1.00001
1.00003
1.00009
1.00019
1.00054
1.0011
1.0031
1.00626
1.0182
1.03531
1.11364
1.21211
1.75796
2.77561
6.35267
11.5501
11.0905
10.6689
10.7183
10.8857
11.0763
11.1758
11.2455
11.2994
11.3616
1.00001
1.00002
1.00008
1.00017
1.00049
1.00099
1.0028
1.00566
1.01634
1.03214
1.10017
1.19219
1.65792
2.54224
5.59669
11.4493
11.0179
10.5534
10.5877
10.7221
10.8877
10.9585
10.995
11.011
11.0459
1
1.00002
1.00007
1.00015
1.00043
1.00089
1.00251
1.00508
1.01464
1.02886
1.08946
1.17184
1.58347
2.36429
5.11487
11.0226
10.825
10.4254
10.4375
10.5247
10.653
10.6823
10.6675
10.6064
10.5464
1
1.00002
1.00006
1.00013
1.00037
1.00075
1.00214
1.00421
1.01283
1.02308
1.08168
1.14165
1.52443
2.18772
4.64189
10.2488
10.5244
10.3484
10.2718
10.3074
10.3707
10.3487
10.2526
10.0281
9.68028
1.00001
1.00003
1.00011
1.00025
1.0007
1.00144
1.0041
1.00811
1.02479
1.04473
1.16104
1.28767
2.0902
3.593
8.68894
11.4975
11.2202
11.0257
11.1008
11.3183
11.5554
11.7043
11.8162
11.9058
11.9761
1.00001
1.00003
1.00011
1.00024
1.00069
1.00142
1.00405
1.00799
1.02448
1.04407
1.15908
1.28328
2.07841
3.5563
8.59724
11.4981
11.2129
11.0138
11.0905
11.3097
11.546
11.6945
11.8078
11.8986
11.97
1.00001
1.00003
1.00011
1.00024
1.00067
1.00138
1.00393
1.00775
1.02384
1.04272
1.15498
1.27421
2.05275
3.47705
8.39172
11.4997
11.1942
10.9802
11.0572
11.2757
11.5079
11.6528
11.7649
11.8541
11.9243
1.00001
1.00003
1.0001
1.00023
1.00065
1.00132
1.00377
1.0074
1.02288
1.04077
1.1487
1.26079
2.01138
3.35564
8.06825
11.5081
11.1699
10.9269
11.0016
11.2151
11.4409
11.5799
11.6876
11.7734
11.843
1.00001
1.00003
1.0001
1.00022
1.00061
1.00125
1.00357
1.00704
1.02161
1.03871
1.1402
1.24596
1.94375
3.19631
7.61792
11.5285
11.1454
10.8569
10.9268
11.1316
11.349
11.4794
11.5804
11.6616
11.7312
1.00001
1.00003
1.00009
1.0002
1.00058
1.00118
1.00336
1.00669
1.02002
1.03698
1.12822
1.22961
1.85716
2.99919
7.03869
11.5532
11.1209
10.7697
10.8314
11.0218
11.2288
11.3472
11.4363
11.5085
11.5782
1.00001
1.00003
1.00009
1.00019
1.00054
1.0011
1.0031
1.00626
1.0182
1.03531
1.11364
1.21211
1.75796
2.77561
6.35266
11.5501
11.0905
10.6689
10.7183
10.8857
11.0763
11.1758
11.2455
11.2994
11.3616
1.00001
1.00002
1.00008
1.00017
1.00049
1.00099
1.0028
1.00566
1.01634
1.03214
1.10017
1.19219
1.65792
2.54223
5.59669
11.4493
11.0179
10.5534
10.5877
10.7221
10.8877
10.9585
10.995
11.011
11.0459
1
1.00002
1.00007
1.00015
1.00043
1.00089
1.00251
1.00508
1.01464
1.02886
1.08946
1.17184
1.58346
2.36428
5.11487
11.0226
10.825
10.4254
10.4375
10.5247
10.653
10.6823
10.6675
10.6064
10.5464
1
1.00002
1.00006
1.00013
1.00037
1.00075
1.00214
1.00421
1.01283
1.02308
1.08168
1.14165
1.52443
2.18772
4.64189
10.2488
10.5244
10.3484
10.2718
10.3074
10.3707
10.3487
10.2526
10.0281
9.68028
1.00001
1.00003
1.00011
1.00025
1.0007
1.00144
1.0041
1.00811
1.02479
1.04473
1.16104
1.28767
2.09019
3.593
8.68893
11.4975
11.2202
11.0257
11.1008
11.3183
11.5554
11.7043
11.8162
11.9058
11.9761
1.00001
1.00003
1.00011
1.00024
1.00069
1.00142
1.00405
1.00799
1.02448
1.04407
1.15908
1.28328
2.07841
3.5563
8.59723
11.4981
11.2129
11.0138
11.0905
11.3097
11.546
11.6945
11.8078
11.8985
11.97
1.00001
1.00003
1.00011
1.00024
1.00067
1.00138
1.00393
1.00775
1.02384
1.04272
1.15498
1.27421
2.05275
3.47705
8.39171
11.4997
11.1942
10.9802
11.0572
11.2757
11.5079
11.6528
11.7649
11.8541
11.9243
1.00001
1.00003
1.0001
1.00023
1.00065
1.00132
1.00377
1.0074
1.02288
1.04077
1.1487
1.26079
2.01138
3.35564
8.06824
11.5081
11.1699
10.9269
11.0016
11.2151
11.4409
11.5799
11.6876
11.7734
11.843
1.00001
1.00003
1.0001
1.00022
1.00061
1.00125
1.00357
1.00704
1.02161
1.03871
1.1402
1.24596
1.94375
3.1963
7.61791
11.5285
11.1454
10.8569
10.9268
11.1316
11.349
11.4794
11.5804
11.6616
11.7312
1.00001
1.00003
1.00009
1.0002
1.00058
1.00118
1.00336
1.00669
1.02002
1.03698
1.12822
1.22961
1.85716
2.99918
7.03868
11.5532
11.1209
10.7697
10.8314
11.0218
11.2288
11.3472
11.4363
11.5085
11.5782
1.00001
1.00003
1.00009
1.00019
1.00054
1.0011
1.0031
1.00626
1.0182
1.03531
1.11364
1.21211
1.75796
2.7756
6.35265
11.5501
11.0905
10.6689
10.7183
10.8857
11.0763
11.1758
11.2455
11.2994
11.3616
1.00001
1.00002
1.00008
1.00017
1.00049
1.00099
1.0028
1.00566
1.01634
1.03214
1.10017
1.19219
1.65792
2.54223
5.59668
11.4493
11.0179
10.5534
10.5877
10.7221
10.8877
10.9585
10.995
11.011
11.0459
1
1.00002
1.00007
1.00015
1.00043
1.00089
1.00251
1.00508
1.01464
1.02886
1.08946
1.17184
1.58346
2.36428
5.11486
11.0226
10.825
10.4254
10.4375
10.5247
10.653
10.6823
10.6675
10.6064
10.5464
1
1.00002
1.00006
1.00013
1.00037
1.00075
1.00214
1.00421
1.01283
1.02308
1.08168
1.14165
1.52443
2.18772
4.64188
10.2488
10.5244
10.3484
10.2718
10.3074
10.3707
10.3487
10.2526
10.0281
9.68028
1.00001
1.00003
1.00011
1.00025
1.0007
1.00144
1.0041
1.00811
1.02479
1.04473
1.16104
1.28767
2.09019
3.593
8.68893
11.4975
11.2202
11.0257
11.1008
11.3183
11.5554
11.7043
11.8162
11.9058
11.9761
1.00001
1.00003
1.00011
1.00024
1.00069
1.00142
1.00405
1.00799
1.02448
1.04407
1.15908
1.28328
2.07841
3.5563
8.59723
11.4981
11.2129
11.0138
11.0905
11.3097
11.546
11.6945
11.8078
11.8985
11.97
1.00001
1.00003
1.00011
1.00024
1.00067
1.00138
1.00393
1.00775
1.02384
1.04272
1.15498
1.27421
2.05275
3.47705
8.39172
11.4997
11.1942
10.9802
11.0572
11.2757
11.5079
11.6528
11.7649
11.8541
11.9243
1.00001
1.00003
1.0001
1.00023
1.00065
1.00132
1.00377
1.0074
1.02288
1.04077
1.1487
1.26079
2.01138
3.35564
8.06824
11.5081
11.1699
10.9269
11.0016
11.2151
11.4409
11.5799
11.6876
11.7734
11.843
1.00001
1.00003
1.0001
1.00022
1.00061
1.00125
1.00357
1.00704
1.02161
1.03871
1.1402
1.24596
1.94375
3.1963
7.61792
11.5285
11.1454
10.8569
10.9268
11.1316
11.349
11.4794
11.5804
11.6616
11.7312
1.00001
1.00003
1.00009
1.0002
1.00058
1.00118
1.00336
1.00669
1.02002
1.03698
1.12822
1.22961
1.85716
2.99919
7.03868
11.5532
11.1209
10.7697
10.8314
11.0218
11.2288
11.3472
11.4363
11.5085
11.5782
1.00001
1.00003
1.00009
1.00019
1.00054
1.0011
1.0031
1.00626
1.0182
1.03531
1.11364
1.21211
1.75796
2.7756
6.35265
11.5501
11.0905
10.6689
10.7183
10.8857
11.0763
11.1758
11.2455
11.2994
11.3616
1.00001
1.00002
1.00008
1.00017
1.00049
1.00099
1.0028
1.00566
1.01634
1.03214
1.10017
1.19219
1.65792
2.54223
5.59668
11.4493
11.0179
10.5534
10.5877
10.7221
10.8877
10.9585
10.995
11.011
11.0459
1
1.00002
1.00007
1.00015
1.00043
1.00089
1.00251
1.00508
1.01464
1.02886
1.08946
1.17184
1.58346
2.36428
5.11486
11.0226
10.825
10.4254
10.4375
10.5247
10.653
10.6823
10.6675
10.6064
10.5464
1
1.00002
1.00006
1.00013
1.00037
1.00075
1.00214
1.00421
1.01283
1.02308
1.08168
1.14165
1.52443
2.18772
4.64188
10.2488
10.5244
10.3484
10.2718
10.3074
10.3707
10.3487
10.2526
10.0281
9.68028
1.00001
1.00003
1.00011
1.00025
1.0007
1.00144
1.0041
1.00811
1.02479
1.04473
1.16104
1.28767
2.09019
3.59299
8.6889
11.4975
11.2202
11.0257
11.1008
11.3183
11.5554
11.7043
11.8162
11.9058
11.9761
1.00001
1.00003
1.00011
1.00024
1.00069
1.00142
1.00405
1.00799
1.02448
1.04407
1.15908
1.28328
2.07841
3.55629
8.5972
11.4981
11.2129
11.0138
11.0905
11.3097
11.546
11.6945
11.8078
11.8985
11.97
1.00001
1.00003
1.00011
1.00024
1.00067
1.00138
1.00393
1.00775
1.02384
1.04272
1.15498
1.27421
2.05274
3.47703
8.39169
11.4997
11.1942
10.9802
11.0572
11.2757
11.5079
11.6528
11.7649
11.8541
11.9243
1.00001
1.00003
1.0001
1.00023
1.00065
1.00132
1.00377
1.0074
1.02288
1.04077
1.1487
1.26079
2.01138
3.35563
8.06821
11.5081
11.1699
10.9269
11.0016
11.2151
11.4409
11.5799
11.6876
11.7734
11.843
1.00001
1.00003
1.0001
1.00022
1.00061
1.00125
1.00357
1.00704
1.02161
1.03871
1.1402
1.24596
1.94374
3.19629
7.61788
11.5285
11.1454
10.8569
10.9267
11.1316
11.349
11.4794
11.5804
11.6616
11.7312
1.00001
1.00003
1.00009
1.0002
1.00058
1.00118
1.00336
1.00669
1.02002
1.03698
1.12822
1.22961
1.85715
2.99917
7.03865
11.5532
11.1209
10.7697
10.8314
11.0218
11.2287
11.3471
11.4363
11.5085
11.5782
1.00001
1.00003
1.00009
1.00019
1.00054
1.0011
1.0031
1.00626
1.01819
1.03531
1.11364
1.21211
1.75795
2.77559
6.35262
11.5501
11.0905
10.6689
10.7183
10.8857
11.0763
11.1758
11.2455
11.2994
11.3616
1.00001
1.00002
1.00008
1.00017
1.00049
1.00099
1.0028
1.00566
1.01634
1.03214
1.10017
1.19219
1.65792
2.54222
5.59666
11.4493
11.0179
10.5534
10.5877
10.7221
10.8877
10.9585
10.995
11.011
11.0459
1
1.00002
1.00007
1.00015
1.00043
1.00089
1.00251
1.00508
1.01464
1.02886
1.08946
1.17184
1.58346
2.36428
5.11484
11.0225
10.825
10.4254
10.4375
10.5247
10.653
10.6823
10.6675
10.6064
10.5463
1
1.00002
1.00006
1.00013
1.00037
1.00075
1.00214
1.00421
1.01283
1.02308
1.08168
1.14165
1.52443
2.18771
4.64187
10.2487
10.5244
10.3484
10.2718
10.3074
10.3707
10.3487
10.2526
10.028
9.68028
1.00001
1.00003
1.00011
1.00024
1.0007
1.00143
1.0041
1.0081
1.02478
1.04471
1.16101
1.28761
2.09011
3.59266
8.68826
11.4977
11.2202
11.0257
11.1007
11.3182
11.5553
11.7042
11.8161
11.9057
11.976
1.00001
1.00003
1.00011
1.00024
1.00069
1.00141
1.00404
1.00798
1.02447
1.04405
1.15905
1.28321
2.07832
3.55596
8.59656
11.4983
11.2129
11.0137
11.0905
11.3096
11.546
11.6945
11.8077
11.8985
11.9699
1.00001
1.00003
1.00011
1.00023
1.00067
1.00137
1.00393
1.00774
1.02383
1.0427
1.15495
1.27415
2.05266
3.47672
8.39104
11.4998
11.1943
10.9801
11.0572
11.2756
11.5079
11.6528
11.7648
11.854
11.9242
1.00001
1.00003
1.0001
1.00022
1.00064
1.00131
1.00376
1.00739
1.02286
1.04075
1.14867
1.26073
2.01129
3.35532
8.06755
11.5083
11.1699
10.9268
11.0015
11.215
11.4408
11.5798
11.6875
11.7733
11.8429
1.00001
1.00003
1.0001
1.00021
1.00061
1.00124
1.00357
1.00703
1.0216
1.03869
1.14017
1.2459
1.94365
3.19599
7.61721
11.5286
11.1454
10.8569
10.9267
11.1316
11.3489
11.4794
11.5803
11.6615
11.7312
1.00001
1.00003
1.00009
1.0002
1.00057
1.00117
1.00335
1.00668
1.02001
1.03695
1.12821
1.22953
1.85712
2.99891
7.03804
11.5533
11.1209
10.7696
10.8313
11.0218
11.2287
11.3471
11.4362
11.5084
11.5781
1.00001
1.00002
1.00008
1.00018
1.00053
1.00109
1.0031
1.00625
1.01818
1.03529
1.11362
1.21205
1.7579
2.77536
6.35205
11.5502
11.0905
10.6689
10.7183
10.8856
11.0762
11.1758
11.2455
11.2993
11.3615
1
1.00002
1.00008
1.00016
1.00048
1.00099
1.0028
1.00565
1.01633
1.03213
1.10015
1.19215
1.65787
2.54205
5.59634
11.4491
11.0178
10.5533
10.5876
10.722
10.8876
10.9585
10.9949
11.0109
11.0459
1
1.00002
1.00007
1.00015
1.00043
1.00088
1.00251
1.00507
1.01463
1.02885
1.08945
1.1718
1.58342
2.36413
5.11455
11.0222
10.8248
10.4254
10.4374
10.5247
10.6529
10.6822
10.6674
10.6064
10.5463
1
1.00002
1.00006
1.00012
1.00036
1.00074
1.00213
1.0042
1.01282
1.02304
1.08169
1.14159
1.52445
2.18756
4.64165
10.2483
10.5244
10.3484
10.2718
10.3073
10.3707
10.3487
10.2526
10.028
9.68024
1
1.00002
1.00004
1.00013
1.00028
1.00079
1.00161
1.00462
1.00909
1.02811
1.05046
1.18195
1.33142
2.22892
3.95909
9.30782
10.3841
10.262
10.0916
10.0785
10.0586
9.96804
9.71422
9.12504
7.64561
1
1.00001
1.00004
1.00011
1.00024
1.00069
1.0014
1.004
1.00791
1.02412
1.0436
1.15618
1.27906
2.04817
3.47167
8.17254
10.2833
10.1682
9.92235
9.83478
9.75338
9.56949
9.17219
8.37567
6.86397
1
1.00001
1.00003
1.0001
1.0002
1.00058
1.00119
1.0034
1.0067
1.02044
1.03674
1.13173
1.23094
1.87277
3.01229
6.93294
10.2013
10.0708
9.76605
9.59244
9.45516
9.19189
8.70701
7.89988
6.70333
1
1.00001
1.00002
1.00008
1.00017
1.0005
1.00101
1.00287
1.00581
1.01678
1.03293
1.10327
1.19634
1.67767
2.5745
5.6004
10.0269
9.93519
9.64103
9.36811
9.16856
8.86586
8.36786
7.62791
6.67938
1
1.00001
1.00002
1.00007
1.00014
1.0004
1.00083
1.00234
1.00473
1.01362
1.02696
1.08215
1.16197
1.52608
2.22473
4.56406
9.50462
9.70197
9.51271
9.16771
8.91443
8.59325
8.12146
7.46378
6.66703
1
1
1.00002
1.00004
1.00013
1.00027
1.00076
1.00155
1.00444
1.00871
1.02677
1.04799
1.17148
1.30972
2.1427
3.69395
8.39807
9.44226
9.31325
9.00926
8.70193
8.36628
7.92688
7.34204
6.6506
1
1
1.00001
1.00003
1.0001
1.00021
1.00061
1.00125
1.00356
1.00703
1.02135
1.03843
1.13681
1.24051
1.90192
3.06097
6.87843
9.20065
9.12755
8.8889
8.53206
8.18044
7.764
7.23847
6.6276
0.999999
1
1.00001
1.00002
1.00008
1.00017
1.00049
1.001
1.00282
1.00569
1.01645
1.03229
1.10089
1.19315
1.6572
2.51931
5.35369
8.94735
8.97226
8.80109
8.4244
8.03234
7.62788
7.15237
6.60952
0.999997
0.999999
1
1.00002
1.00005
1.00015
1.00031
1.00087
1.00178
1.00505
1.01001
1.03007
1.05556
1.18813
1.36452
2.22034
3.92438
8.32972
8.84084
8.69208
8.33866
7.91425
7.51634
7.07999
6.59226
0.999996
0.999997
1
1.00001
1.00003
1.00011
1.00023
1.00065
1.00131
1.00374
1.00732
1.0226
1.04005
1.14405
1.25354
1.95029
3.15187
6.94709
8.57856
8.50376
8.25811
7.82739
7.43094
7.02298
6.57715
0.999994
0.999995
0.999998
1
1.00003
1.00006
1.00019
1.00039
1.00112
1.00218
1.00672
1.01174
1.04242
1.0694
1.26381
1.52384
2.67871
5.23435
8.2536
8.32689
8.1753
7.81239
7.37708
6.97557
6.56237
0.999993
0.999994
0.999996
1
1.00002
1.00005
1.00014
1.0003
1.00084
1.00172
1.00487
1.00972
1.02873
1.05393
1.17834
1.3451
2.14344
3.66786
7.58035
8.20931
8.09363
7.7936
7.34782
6.94216
6.55002
0.999992
0.999993
0.999994
0.999999
1.00001
1.00004
1.00008
1.00024
1.0005
1.00141
1.0028
1.00835
1.01515
1.05209
1.0876
1.32677
1.65492
3.05907
6.0504
7.96997
7.9387
7.75341
7.35286
6.92806
6.54119
0.999992
0.999992
0.999993
0.999997
1
1.00002
1.00006
1.00017
1.00036
1.00102
1.00207
1.00585
1.01151
1.03495
1.06321
1.21768
1.42433
2.35337
4.26344
7.50276
7.81951
7.69416
7.36993
6.93127
6.54191
0.999992
0.999992
0.999993
0.999994
1
1.00001
1.00004
1.0001
1.00029
1.00061
1.00171
1.00346
1.00983
1.01945
1.05838
1.11287
1.35762
1.8047
3.24405
6.42402
7.62073
7.5678
7.36091
6.94751
6.54788
0.999991
0.999991
0.999992
0.999993
0.999997
1
1.00003
1.00007
1.0002
1.00042
1.00117
1.00238
1.00671
1.01314
1.04006
1.07198
1.24884
1.49214
2.53942
4.71805
7.22262
7.413
7.30625
7.0042
6.56773
0.999991
0.999991
0.999991
0.999993
0.999994
1
1.00001
1.00005
1.00011
1.00033
1.00068
1.0019
1.00383
1.01085
1.02162
1.0631
1.12837
1.38069
1.87049
3.321
6.35925
7.24596
7.19406
7.00147
6.61145
0.999991
0.999991
0.999991
0.999992
0.999993
0.999998
1.00001
1.00003
1.00007
1.00022
1.00045
1.00126
1.00256
1.00716
1.0142
1.04203
1.07858
1.25593
1.52745
2.57016
4.76094
6.89777
7.05823
6.96407
6.70472
0.999991
0.999991
0.999991
0.999991
0.999992
0.999994
1
1.00001
1.00005
1.00012
1.00034
1.0007
1.00195
1.00394
1.01111
1.02228
1.06394
1.13255
1.38286
1.87194
3.28502
6.12635
6.9069
6.8716
6.70867
0.999991
0.999991
0.999991
0.999991
0.999991
0.999993
0.999997
1.00001
1.00003
1.00009
1.00018
1.00052
1.00106
1.00296
1.00584
1.01729
1.03128
1.10576
1.18622
1.64397
2.39245
4.62695
6.57252
6.7519
6.67392
0.999991
0.99999
0.99999
0.999991
0.999991
0.999992
0.999994
1
1.00001
1.00005
1.00012
1.00034
1.0007
1.00193
1.00391
1.01089
1.02194
1.06213
1.12898
1.36879
1.8289
3.15268
5.80004
6.5944
6.57818
0.999991
0.99999
0.99999
0.99999
0.999991
0.999991
0.999993
0.999996
1.00001
1.00002
1.00008
1.00018
1.0005
1.00102
1.00283
1.00566
1.01626
1.03045
1.098
1.17746
1.59047
2.28146
4.30273
6.22849
6.48164
0.999991
0.99999
0.99999
0.99999
0.999991
0.999991
0.999992
0.999994
1
1.00001
1.00005
1.00011
1.00032
1.00065
1.00179
1.00363
1.01004
1.02022
1.05677
1.11768
1.33306
1.74827
2.93207
5.37942
6.29176
0.999991
0.99999
0.99999
0.99999
0.99999
0.999991
0.999991
0.999993
0.999997
1
1.00003
1.00006
1.00019
1.00039
1.00109
1.00221
1.00608
1.01211
1.03485
1.06535
1.20756
1.40789
2.21112
3.78798
5.83335
0.999991
0.99999
0.99999
0.99999
0.99999
0.99999
0.999991
0.999992
0.999994
0.999998
1.00001
1.00003
1.00011
1.00023
1.00065
1.00133
1.00363
1.00731
1.02055
1.03923
1.12247
1.22615
1.72721
2.5694
4.8376
0.999991
0.99999
0.99999
0.99999
0.99999
0.99999
0.999991
0.999991
0.999992
0.999996
1
1.00002
1.00005
1.00015
1.00032
1.00089
1.00181
1.00498
1.0098
1.02862
1.05231
1.1688
1.32268
1.94575
3.10875
0.999991
0.99999
0.99999
0.99999
0.99999
0.99999
0.99999
0.999991
0.999992
0.999993
0.999998
1.00001
1.00003
1.00008
1.00022
1.00046
1.00127
1.00257
1.00709
1.01412
1.04039
1.07933
1.23371
1.50971
2.35089
0.999991
0.99999
0.99999
0.99999
0.99999
0.99999
0.99999
0.999991
0.999991
0.999992
0.999994
1
1.00001
1.00005
1.00011
1.00031
1.00064
1.00175
1.00353
1.00975
1.0196
1.05468
1.11336
1.31464
1.70088
0.999991
0.99999
0.99999
0.99999
0.99999
0.99999
0.99999
0.99999
0.999991
0.999991
0.999993
0.999996
1
1.00002
1.00006
1.00018
1.00037
1.00101
1.00206
1.00562
1.01125
1.03143
1.06216
1.17977
1.37428
0.999991
0.99999
0.99999
0.99999
0.99999
0.99999
0.99999
0.99999
0.99999
0.999991
0.999992
0.999993
0.999999
1.00001
1.00004
1.00008
1.00025
1.00051
1.00139
1.00281
1.00773
1.01553
1.04319
1.08906
1.24725
0.999991
0.99999
0.99999
0.99999
0.99999
0.99999
0.99999
0.99999
0.99999
0.999991
0.999991
0.999992
0.999995
1
1.00001
1.00006
1.00012
1.00035
1.00071
1.00195
1.00395
1.01089
1.02182
1.06122
1.12608
0.999991
0.99999
0.99999
0.99999
0.99999
0.99999
0.99999
0.99999
0.99999
0.99999
0.999991
0.999991
0.999993
0.999997
1.00001
1.00003
1.00009
1.00019
1.00054
1.00111
1.00308
1.00622
1.01748
1.03442
1.10363
0.999991
0.99999
0.99999
0.99999
0.99999
0.99999
0.99999
0.99999
0.99999
0.99999
0.999991
0.999991
0.999993
0.999995
1
1.00002
1.00007
1.00014
1.00042
1.00087
1.00247
1.00501
1.01448
1.02874
1.08808
0.999991
0.99999
0.99999
0.99999
0.99999
0.99999
0.99999
0.99999
0.99999
0.99999
0.99999
0.999991
0.999992
0.999995
0.999999
1.00002
1.00004
1.00014
1.00029
1.00086
1.00172
1.00521
1.00964
1.03317
1.0565
0.999991
0.99999
0.99999
0.99999
0.99999
0.99999
0.99999
0.99999
0.99999
0.99999
0.99999
0.999991
0.999992
0.999993
1
1.00001
1.00005
1.0001
1.00032
1.00065
1.002
1.00374
1.01286
1.02198
1.08389
0.999991
0.99999
0.99999
0.99999
0.99999
0.99999
0.99999
0.99999
0.99999
0.99999
0.99999
0.999991
0.999992
0.999994
0.999998
1.00001
1.00004
1.00012
1.00026
1.00077
1.0015
1.00492
1.00851
1.03236
1.05283
0.999991
0.99999
0.99999
0.99999
0.99999
0.99999
0.99999
0.99999
0.99999
0.99999
0.99999
0.999991
0.999992
0.999993
1
1.00001
1.00005
1.0001
1.00032
1.00065
1.00195
1.00382
1.0124
1.02178
1.08245
0.999991
0.99999
0.99999
0.99999
0.99999
0.99999
0.99999
0.99999
0.99999
0.99999
0.99999
0.999991
0.999992
0.999993
1
1.00001
1.00005
1.0001
1.00032
1.00066
1.00196
1.00381
1.01238
1.02167
1.08207
0.999991
0.99999
0.99999
0.99999
0.99999
0.99999
0.99999
0.99999
0.99999
0.99999
0.99999
0.999991
0.999992
0.999994
0.999998
1.00001
1.00004
1.00013
1.00027
1.00081
1.00165
1.0049
1.00954
1.03115
1.05479
0.999991
0.99999
0.99999
0.99999
0.99999
0.99999
0.99999
0.99999
0.99999
0.99999
0.99999
0.999991
0.999992
0.999994
0.999999
1.00001
1.00004
1.00013
1.00028
1.00084
1.00172
1.00503
1.01002
1.03101
1.05711
1
1.00002
1.00005
1.00014
1.00028
1.0008
1.00162
1.00463
1.0091
1.02812
1.05048
1.182
1.33148
2.22898
3.95936
9.3083
10.3841
10.262
10.0917
10.0785
10.0586
9.96809
9.71427
9.12508
7.64564
1
1.00002
1.00004
1.00012
1.00025
1.00069
1.00141
1.00401
1.00792
1.02413
1.04362
1.15621
1.27911
2.04824
3.47194
8.17307
10.2833
10.1682
9.92237
9.83482
9.75343
9.56953
9.17224
8.37571
6.86401
1
1.00001
1.00003
1.0001
1.00021
1.00059
1.0012
1.0034
1.00671
1.02045
1.03675
1.13175
1.23099
1.87285
3.01254
6.93348
10.2013
10.0708
9.76606
9.59248
9.45521
9.19193
8.70705
7.89992
6.70337
1
1.00001
1.00003
1.00009
1.00018
1.0005
1.00102
1.00288
1.00582
1.01679
1.03295
1.10329
1.19639
1.67774
2.57472
5.60095
10.0269
9.93519
9.64105
9.36815
9.1686
8.86591
8.3679
7.62795
6.67942
1
1.00001
1.00002
1.00007
1.00015
1.00041
1.00083
1.00235
1.00474
1.01363
1.02697
1.08216
1.16201
1.52611
2.22486
4.5643
9.50482
9.70203
9.51276
9.16775
8.91448
8.5933
8.1215
7.46383
6.66707
1
1.00001
1.00002
1.00005
1.00013
1.00028
1.00077
1.00156
1.00445
1.00873
1.02678
1.04801
1.1715
1.30978
2.14277
3.6942
8.3985
9.44233
9.31331
9.0093
8.70197
8.36632
7.92693
7.34209
6.65065
1
1.00001
1.00002
1.00004
1.00011
1.00022
1.00062
1.00126
1.00357
1.00704
1.02136
1.03845
1.13683
1.24056
1.90199
3.06118
6.87887
9.20068
9.12757
8.88893
8.5321
8.18049
7.76405
7.23851
6.62765
1
1
1.00001
1.00003
1.00009
1.00018
1.00049
1.001
1.00283
1.0057
1.01646
1.0323
1.10091
1.1932
1.65725
2.5195
5.35414
8.94743
8.97228
8.80112
8.42444
8.03239
7.62793
7.15242
6.60957
1
1
1.00001
1.00003
1.00006
1.00015
1.00032
1.00088
1.00179
1.00506
1.01002
1.03008
1.05558