/*--------------------------------*- C++ -*----------------------------------*\
| =========                 |                                                 |
| \\      /  F ield         | OpenFOAM: The Open Source CFD Toolbox           |
|  \\    /   O peration     | Version:  4.1                                   |
|   \\  /    A nd           | Web:      www.OpenFOAM.org                      |
|    \\/     M anipulation  |                                                 |
\*---------------------------------------------------------------------------*/
FoamFile
{
    version     2.0;
    format      ascii;
    class       volVectorField;
    location    "3.32";
    object      U;
}
// * * * * * * * * * * * * * * * * * * * * * * * * * * * * * * * * * * * * * //

dimensions      [0 1 -1 0 0 0 0];

internalField   nonuniform List<vector> 
52500
(
(3 1.30165e-08 -0.00571425)
(2.99998 7.20642e-08 -0.00571438)
(2.99996 2.6913e-07 -0.00571458)
(2.9999 6.88287e-07 -0.00571519)
(2.99977 1.90998e-06 -0.00571632)
(2.9994 4.34744e-06 -0.00571974)
(2.99868 1.16231e-05 -0.00572648)
(2.99639 2.50521e-05 -0.00574435)
(2.99248 7.19543e-05 -0.00578983)
(2.97738 0.000146866 -0.00587695)
(2.95132 0.000464706 -0.00622732)
(2.84983 0.000986447 -0.00669625)
(2.58033 0.00364008 -0.00913461)
(1.9192 0.00867514 -0.0136626)
(0.861323 0.0248632 -0.0175392)
(0.452599 0.0235031 -0.0185148)
(0.540303 0.0240114 -0.0185276)
(0.566171 0.0260263 -0.0185601)
(0.513601 0.0280093 -0.0187481)
(0.423175 0.0299639 -0.0189378)
(0.336644 0.0322845 -0.0191228)
(0.266872 0.0350536 -0.0192948)
(0.197115 0.0379966 -0.0194349)
(0.118736 0.0414686 -0.0195832)
(0.0519752 0.0462063 -0.0197779)
(3 3.88557e-08 -0.00571425)
(2.99998 2.14671e-07 -0.00571438)
(2.99996 8.02875e-07 -0.00571458)
(2.9999 2.05058e-06 -0.00571518)
(2.99977 5.70284e-06 -0.00571629)
(2.9994 1.29677e-05 -0.00571967)
(2.9987 3.48339e-05 -0.00572631)
(2.99644 7.48039e-05 -0.00574396)
(2.99258 0.000217501 -0.00578866)
(2.9777 0.000441564 -0.00587476)
(2.95204 0.00141908 -0.00621916)
(2.85223 0.00301059 -0.00668222)
(2.58749 0.0112722 -0.00907296)
(1.93534 0.0269746 -0.0135454)
(0.870662 0.0759937 -0.0174134)
(0.449111 0.0682065 -0.0184347)
(0.53981 0.0666153 -0.0184476)
(0.566692 0.0701008 -0.0184713)
(0.513741 0.0734544 -0.0186518)
(0.42328 0.0767563 -0.0188347)
(0.336812 0.080574 -0.0190121)
(0.266542 0.0848753 -0.0191763)
(0.195773 0.0888381 -0.0193098)
(0.116085 0.0927087 -0.0194464)
(0.0489196 0.0964341 -0.0196264)
(3 6.36669e-08 -0.00571425)
(2.99999 3.51175e-07 -0.00571438)
(2.99996 1.31683e-06 -0.00571457)
(2.9999 3.3642e-06 -0.00571516)
(2.99978 9.39375e-06 -0.00571624)
(2.99942 2.13983e-05 -0.00571952)
(2.99873 5.77459e-05 -0.00572596)
(2.99654 0.000124535 -0.0057432)
(2.99279 0.00036309 -0.00578633)
(2.97837 0.000740227 -0.00587049)
(2.95352 0.00239352 -0.00620253)
(2.85733 0.00506935 -0.00665446)
(2.60288 0.0190804 -0.00894611)
(1.97128 0.0459075 -0.0133109)
(0.893137 0.130781 -0.017223)
(0.445674 0.115865 -0.0183388)
(0.542292 0.111901 -0.0183527)
(0.571605 0.117881 -0.0183655)
(0.518404 0.1241 -0.0185399)
(0.428282 0.130848 -0.0187132)
(0.342118 0.138043 -0.0188844)
(0.271317 0.145814 -0.0190372)
(0.199337 0.153284 -0.0191636)
(0.117963 0.160072 -0.0193009)
(0.0488443 0.164905 -0.0194728)
(3 7.89559e-08 -0.00571425)
(2.99999 4.35475e-07 -0.00571437)
(2.99996 1.6275e-06 -0.00571455)
(2.99991 4.13475e-06 -0.00571512)
(2.99979 1.15115e-05 -0.00571616)
(2.99944 2.59041e-05 -0.0057193)
(2.99878 7.14421e-05 -0.00572545)
(2.9967 0.00014278 -0.00574203)
(2.9931 0.00048076 -0.0057829)
(2.97937 0.00081724 -0.00586398)
(2.95574 0.00344948 -0.00617778)
(2.86497 0.00664091 -0.00661336)
(2.62601 0.0266515 -0.00875819)
(2.02628 0.0637283 -0.0129609)
(0.928239 0.184306 -0.0169703)
(0.442585 0.163826 -0.0182276)
(0.548044 0.156926 -0.0182393)
(0.581531 0.165153 -0.0182369)
(0.528494 0.174346 -0.0184047)
(0.439043 0.185135 -0.0185713)
(0.353099 0.196108 -0.0187366)
(0.28173 0.207773 -0.0188846)
(0.208248 0.219396 -0.0189944)
(0.124062 0.229927 -0.0191178)
(0.0509539 0.236557 -0.0193027)
(3 9.77811e-08 -0.00571425)
(2.99999 5.40137e-07 -0.00571437)
(2.99997 2.0131e-06 -0.00571454)
(2.99991 5.12544e-06 -0.00571508)
(2.9998 1.42015e-05 -0.00571607)
(2.99947 3.20163e-05 -0.0057191)
(2.99883 8.75673e-05 -0.00572488)
(2.99689 0.000175092 -0.00574147)
(2.99335 0.000594448 -0.00577818)
(2.9808 0.000925042 -0.00586053)
(2.9585 0.00437448 -0.00613601)
(2.87509 0.00799028 -0.00656317)
(2.65729 0.0326426 -0.00848974)
(2.10114 0.0781655 -0.0124734)
(0.981458 0.231621 -0.0166454)
(0.44839 0.212288 -0.0180885)
(0.561095 0.203165 -0.0181017)
(0.599041 0.212475 -0.0180737)
(0.546092 0.223906 -0.0182381)
(0.457228 0.238751 -0.0183832)
(0.370862 0.253924 -0.0185442)
(0.298334 0.270161 -0.0186919)
(0.222617 0.286783 -0.018809)
(0.134374 0.30204 -0.0189274)
(0.0554596 0.311294 -0.0190881)
(3 1.23652e-07 -0.00571425)
(2.99999 6.83255e-07 -0.00571436)
(2.99997 2.55074e-06 -0.00571452)
(2.99992 6.53844e-06 -0.00571502)
(2.99981 1.81156e-05 -0.00571595)
(2.99951 4.14004e-05 -0.00571878)
(2.9989 0.000110019 -0.00572414)
(2.99712 0.000238855 -0.00573986)
(2.99373 0.000691294 -0.00577286)
(2.98247 0.00129478 -0.00585366)
(2.96178 0.0047914 -0.00609052)
(2.8868 0.00911967 -0.0065022)
(2.69313 0.0353537 -0.00818963)
(2.19077 0.0859084 -0.0118849)
(1.05375 0.26366 -0.0162511)
(0.470671 0.260046 -0.0179154)
(0.583618 0.253563 -0.0179252)
(0.624831 0.262528 -0.0178933)
(0.57233 0.274865 -0.0180637)
(0.484359 0.29322 -0.0182001)
(0.397178 0.31309 -0.0183293)
(0.322952 0.334783 -0.0184627)
(0.244272 0.357812 -0.0185608)
(0.150201 0.380062 -0.0186667)
(0.0626382 0.394416 -0.0188549)
(3 1.37585e-07 -0.00571425)
(2.99999 7.6002e-07 -0.00571435)
(2.99997 2.83306e-06 -0.0057145)
(2.99992 7.26544e-06 -0.00571496)
(2.99983 2.00558e-05 -0.00571581)
(2.99955 4.58848e-05 -0.00571839)
(2.99899 0.000120219 -0.0057233)
(2.99737 0.000266829 -0.00573768)
(2.99424 0.000714476 -0.00576755)
(2.98417 0.00151192 -0.00584275)
(2.96516 0.00458666 -0.00604914)
(2.89892 0.0094273 -0.00643976)
(2.72976 0.0326286 -0.00788723)
(2.28744 0.0797968 -0.011273)
(1.14914 0.244544 -0.0157825)
(0.52292 0.294834 -0.0176577)
(0.619443 0.305688 -0.017647)
(0.658368 0.313938 -0.0176368)
(0.606851 0.326904 -0.01781)
(0.521029 0.349184 -0.0179727)
(0.433179 0.374764 -0.0180952)
(0.356963 0.403144 -0.018201)
(0.275173 0.434476 -0.0183019)
(0.174461 0.467038 -0.0183919)
(0.0750034 0.491661 -0.018527)
(3 1.47015e-07 -0.00571425)
(2.99999 8.11392e-07 -0.00571434)
(2.99997 3.01755e-06 -0.00571447)
(2.99993 7.73128e-06 -0.00571489)
(2.99984 2.12706e-05 -0.00571566)
(2.99959 4.85888e-05 -0.00571801)
(2.99909 0.000126514 -0.00572245)
(2.99761 0.000281575 -0.00573554)
(2.99477 0.000731439 -0.00576255)
(2.98566 0.00162816 -0.00583126)
(2.96849 0.0042893 -0.00601708)
(2.90883 0.0100283 -0.00637269)
(2.75787 0.0287717 -0.00767914)
(2.35519 0.0714095 -0.0107325)
(1.24156 0.207382 -0.0156578)
(0.566686 0.334045 -0.0175109)
(0.636659 0.367565 -0.0174703)
(0.675558 0.366255 -0.0174469)
(0.635191 0.378615 -0.0175879)
(0.559021 0.405077 -0.0176969)
(0.475022 0.438029 -0.0178255)
(0.399649 0.475054 -0.0178944)
(0.317182 0.517478 -0.0179366)
(0.211192 0.565935 -0.0179881)
(0.0959117 0.612169 -0.0181251)
(3 1.75839e-07 -0.00571425)
(2.99999 9.62805e-07 -0.00571433)
(2.99998 3.58649e-06 -0.00571444)
(2.99994 9.22914e-06 -0.00571482)
(2.99986 2.54591e-05 -0.0057155)
(2.99963 5.88645e-05 -0.00571759)
(2.99919 0.000150756 -0.00572154)
(2.99787 0.000356225 -0.00573318)
(2.99536 0.000818539 -0.00575732)
(2.98711 0.00211162 -0.00581718)
(2.97226 0.00443586 -0.00598873)
(2.91831 0.0114553 -0.00628618)
(2.78462 0.0279573 -0.00751813)
(2.42121 0.0720697 -0.010025)
(1.36383 0.202609 -0.0153419)
(0.646301 0.385924 -0.0173075)
(0.64637 0.418711 -0.0172471)
(0.674436 0.413983 -0.0173043)
(0.655874 0.429159 -0.0173777)
(0.595712 0.458367 -0.0174514)
(0.520933 0.500293 -0.0175243)
(0.450694 0.548186 -0.0175739)
(0.372982 0.604935 -0.017578)
(0.269335 0.678896 -0.0175366)
(0.134756 0.771313 -0.0174544)
(3 2.66018e-07 -0.00571424)
(2.99999 4.58774e-07 -0.00571431)
(2.99998 3.85946e-06 -0.00571441)
(2.99995 5.63699e-06 -0.00571472)
(2.99988 2.60977e-05 -0.00571529)
(2.99969 3.63523e-05 -0.00571697)
(2.99934 0.000156012 -0.00572041)
(2.99817 0.000201709 -0.00572889)
(2.99623 0.000951217 -0.00575245)
(2.98866 0.000913941 -0.0057937)
(2.97638 0.00638797 -0.00596846)
(2.92759 0.00377763 -0.00619289)
(2.81139 0.0410288 -0.00738045)
(2.48768 0.0523573 -0.00939973)
(1.51019 0.220344 -0.0146746)
(0.747435 0.439708 -0.0169311)
(0.655623 0.452986 -0.0171479)
(0.680655 0.45287 -0.0171742)
(0.676586 0.47414 -0.017181)
(0.63257 0.507276 -0.0172219)
(0.572098 0.557539 -0.0172042)
(0.511703 0.617301 -0.017165)
(0.448898 0.69543 -0.0170659)
(0.366368 0.814594 -0.0168552)
(0.208159 1.02645 -0.0164611)
(3 1.32914e-08 -2.51721e-09)
(2.99998 7.23131e-08 -8.6681e-09)
(2.99996 2.69225e-07 -1.00176e-08)
(2.9999 6.89638e-07 -1.61549e-08)
(2.99977 1.91003e-06 -1.58552e-08)
(2.99939 4.34987e-06 -2.17372e-08)
(2.99868 1.16268e-05 -2.16671e-08)
(2.99639 2.5064e-05 -2.97969e-08)
(2.99248 7.19726e-05 -3.06502e-08)
(2.97738 0.000146921 -5.59419e-08)
(2.95131 0.000464807 -6.68361e-08)
(2.84981 0.000986689 -1.48237e-07)
(2.5803 0.00364051 -1.65355e-07)
(1.91912 0.00867633 -5.54137e-07)
(0.861295 0.0248653 -6.06266e-07)
(0.45263 0.0235052 7.39843e-08)
(0.540311 0.0240134 -1.47641e-08)
(0.566168 0.0260281 -7.06569e-08)
(0.513598 0.0280108 -7.20233e-08)
(0.423173 0.029965 -6.82389e-08)
(0.336644 0.0322853 -6.00678e-08)
(0.266872 0.0350541 -5.85221e-08)
(0.197115 0.0379968 -5.61541e-08)
(0.118736 0.0414686 -5.44752e-08)
(0.0519764 0.0462066 -5.3668e-08)
(3 3.95985e-08 -2.51171e-09)
(2.99998 2.15526e-07 -8.66785e-09)
(2.99996 8.02853e-07 -1.00209e-08)
(2.9999 2.05524e-06 -1.61303e-08)
(2.99977 5.70204e-06 -1.58756e-08)
(2.9994 1.29751e-05 -2.16936e-08)
(2.9987 3.48437e-05 -2.16341e-08)
(2.99644 7.48381e-05 -2.96319e-08)
(2.99258 0.000217551 -3.0506e-08)
(2.9777 0.000441719 -5.52273e-08)
(2.95203 0.00141937 -6.59513e-08)
(2.85222 0.00301129 -1.45722e-07)
(2.58746 0.0112735 -1.62892e-07)
(1.93526 0.0269782 -5.45197e-07)
(0.870633 0.0759989 -6.05953e-07)
(0.449139 0.0682097 7.16281e-08)
(0.539815 0.066617 -1.5908e-08)
(0.566688 0.0701017 -7.14686e-08)
(0.513736 0.0734548 -7.28628e-08)
(0.423276 0.0767565 -6.88175e-08)
(0.336809 0.0805739 -6.04137e-08)
(0.26654 0.084875 -5.88898e-08)
(0.195771 0.0888377 -5.61793e-08)
(0.116084 0.0927085 -5.41265e-08)
(0.0489203 0.0964346 -5.28962e-08)
(3 6.48868e-08 -2.50234e-09)
(2.99998 3.52645e-07 -8.66392e-09)
(2.99996 1.31707e-06 -1.00351e-08)
(2.9999 3.37177e-06 -1.6065e-08)
(2.99978 9.39396e-06 -1.59448e-08)
(2.99942 2.14125e-05 -2.15958e-08)
(2.99873 5.77681e-05 -2.1601e-08)
(2.99654 0.000124608 -2.93253e-08)
(2.99279 0.000363202 -3.03357e-08)
(2.97836 0.000740583 -5.39592e-08)
(2.95351 0.00239419 -6.44525e-08)
(2.85731 0.00507084 -1.40979e-07)
(2.60285 0.0190832 -1.57715e-07)
(1.97119 0.0459148 -5.26565e-07)
(0.893104 0.130794 -6.10063e-07)
(0.44569 0.115874 6.3935e-08)
(0.542288 0.111906 -1.8543e-08)
(0.571593 0.117884 -7.13255e-08)
(0.518393 0.124102 -7.23388e-08)
(0.428272 0.130849 -6.80021e-08)
(0.34211 0.138043 -6.01486e-08)
(0.27131 0.145813 -5.91204e-08)
(0.199332 0.153283 -5.64003e-08)
(0.117959 0.16007 -5.4176e-08)
(0.0488435 0.164904 -5.23492e-08)
(3 7.98961e-08 -2.48728e-09)
(2.99999 4.37938e-07 -8.65974e-09)
(2.99996 1.62549e-06 -1.00452e-08)
(2.9999 4.14197e-06 -1.59896e-08)
(2.99979 1.15021e-05 -1.59936e-08)
(2.99944 2.59001e-05 -2.14467e-08)
(2.99878 7.14178e-05 -2.14464e-08)
(2.99669 0.000142658 -2.86439e-08)
(2.9931 0.000480813 -2.97005e-08)
(2.97936 0.000815882 -5.0656e-08)
(2.95573 0.003452 -5.99845e-08)
(2.86496 0.00663989 -1.31178e-07)
(2.62598 0.0266603 -1.43832e-07)
(2.0262 0.0637434 -4.9065e-07)
(0.928207 0.184335 -6.04029e-07)
(0.442607 0.163841 4.62679e-08)
(0.548053 0.156931 -3.12837e-08)
(0.581535 0.165155 -7.18201e-08)
(0.528498 0.174348 -7.0778e-08)
(0.439046 0.185137 -6.63847e-08)
(0.353099 0.196109 -6.31326e-08)
(0.281728 0.207772 -6.33179e-08)
(0.208244 0.219393 -6.01035e-08)
(0.124059 0.229924 -5.70779e-08)
(0.0509528 0.236554 -5.46392e-08)
(3 9.90447e-08 -2.48347e-09)
(2.99999 5.43339e-07 -8.63131e-09)
(2.99997 2.01382e-06 -1.01178e-08)
(2.99991 5.1358e-06 -1.58961e-08)
(2.99979 1.42096e-05 -1.62363e-08)
(2.99947 3.20482e-05 -2.15385e-08)
(2.99883 8.76265e-05 -2.19706e-08)
(2.99688 0.000175252 -3.12838e-08)
(2.99335 0.000594707 -2.71825e-08)
(2.98079 0.000925423 -8.07417e-08)
(2.95849 0.00437646 2.39898e-09)
(2.87508 0.00799182 -1.95807e-07)
(2.65728 0.0326481 -2.50113e-08)
(2.10109 0.0781783 -4.27821e-07)
(0.981457 0.231646 -5.30774e-07)
(0.448431 0.212296 -4.72184e-10)
(0.56112 0.203167 -6.22721e-08)
(0.599062 0.212478 -7.55355e-08)
(0.546111 0.22391 -7.05157e-08)
(0.457244 0.238756 -6.26991e-08)
(0.370873 0.253927 -6.47582e-08)
(0.29834 0.270162 -6.67697e-08)
(0.222619 0.286782 -6.42657e-08)
(0.134373 0.302036 -6.15381e-08)
(0.0554593 0.31129 -5.91827e-08)
(3 1.26041e-07 -2.46203e-09)
(2.99999 6.85809e-07 -8.61805e-09)
(2.99997 2.55565e-06 -1.00891e-08)
(2.99991 6.54863e-06 -1.5811e-08)
(2.99981 1.81402e-05 -1.60118e-08)
(2.9995 4.14568e-05 -2.10063e-08)
(2.9989 0.000110145 -2.08812e-08)
(2.99712 0.000239245 -2.66764e-08)
(2.99372 0.000691667 -2.76467e-08)
(2.98246 0.00129738 -4.83718e-08)
(2.96177 0.00479145 -2.98667e-08)
(2.88679 0.00912513 -1.35075e-07)
(2.69311 0.0353544 -7.08492e-08)
(2.19072 0.0859181 -3.71136e-07)
(1.05373 0.263689 -5.04412e-07)
(0.470688 0.26005 -4.03759e-08)
(0.583634 0.253564 -6.95575e-08)
(0.624849 0.262534 -6.74595e-08)
(0.57235 0.274873 -6.38976e-08)
(0.484379 0.293228 -5.9376e-08)
(0.397194 0.313097 -6.44391e-08)
(0.322963 0.334788 -6.80055e-08)
(0.244279 0.357813 -6.66825e-08)
(0.150204 0.38006 -6.55248e-08)
(0.0626391 0.394412 -6.48015e-08)
(3 1.40087e-07 -2.4357e-09)
(2.99999 7.61614e-07 -8.62158e-09)
(2.99997 2.83565e-06 -1.00747e-08)
(2.99992 7.26902e-06 -1.57918e-08)
(2.99982 2.00631e-05 -1.5949e-08)
(2.99955 4.58984e-05 -2.0898e-08)
(2.99899 0.000120252 -2.05689e-08)
(2.99737 0.000266901 -2.60651e-08)
(2.99423 0.000714596 -2.70058e-08)
(2.98417 0.00151261 -3.8329e-08)
(2.96515 0.00458691 -3.79868e-08)
(2.89891 0.00942952 -1.03879e-07)
(2.72974 0.0326306 -7.11454e-08)
(2.2874 0.0798055 -2.9062e-07)
(1.14912 0.244571 -3.2849e-07)
(0.522921 0.294834 -1.41845e-07)
(0.619456 0.305687 -8.51086e-08)
(0.658386 0.313942 -5.79928e-08)
(0.60687 0.326912 -5.61007e-08)
(0.521048 0.349194 -5.52151e-08)
(0.433196 0.374774 -6.03816e-08)
(0.356978 0.403152 -6.54648e-08)
(0.275183 0.434481 -6.66861e-08)
(0.174467 0.467039 -6.78316e-08)
(0.0750057 0.491659 -6.90459e-08)
(3 1.49201e-07 -2.41192e-09)
(2.99999 8.12721e-07 -8.62855e-09)
(2.99997 3.01858e-06 -1.00752e-08)
(2.99993 7.73221e-06 -1.57914e-08)
(2.99984 2.12702e-05 -1.59397e-08)
(2.99959 4.85856e-05 -2.08753e-08)
(2.99909 0.000126501 -2.0501e-08)
(2.99761 0.000281541 -2.58863e-08)
(2.99476 0.00073139 -2.66267e-08)
(2.98566 0.00162785 -3.73094e-08)
(2.96848 0.00428945 -3.59281e-08)
(2.90883 0.0100276 -1.00874e-07)
(2.75785 0.0287732 -5.99192e-08)
(2.35516 0.0714128 -2.58467e-07)
(1.24153 0.207395 -3.19798e-07)
(0.566672 0.334041 -2.29612e-07)
(0.63667 0.367565 -9.95448e-08)
(0.675576 0.366259 -4.80457e-08)
(0.635209 0.378623 -4.84438e-08)
(0.559039 0.405086 -5.16241e-08)
(0.47504 0.43804 -5.70895e-08)
(0.399665 0.475064 -6.18433e-08)
(0.317194 0.517486 -6.3581e-08)
(0.2112 0.565939 -6.69122e-08)
(0.0959154 0.612169 -7.10525e-08)
(3 1.75925e-07 -2.39193e-09)
(2.99999 9.61307e-07 -8.63064e-09)
(2.99998 3.58173e-06 -1.00847e-08)
(2.99994 9.19957e-06 -1.5795e-08)
(2.99986 2.54421e-05 -1.59726e-08)
(2.99963 5.88035e-05 -2.09462e-08)
(2.99919 0.000150681 -2.07336e-08)
(2.99787 0.000356052 -2.64811e-08)
(2.99536 0.000818376 -2.72385e-08)
(2.98711 0.00211113 -4.33554e-08)
(2.97226 0.00443505 -2.92181e-08)
(2.91831 0.0114551 -1.19802e-07)
(2.78461 0.027958 -3.226e-08)
(2.42118 0.0720691 -2.59603e-07)
(1.3638 0.202618 -2.77616e-07)
(0.646287 0.385922 -2.71773e-07)
(0.646386 0.418716 -5.86444e-08)
(0.674455 0.413989 -4.08722e-08)
(0.655892 0.429167 -4.42302e-08)
(0.59573 0.458376 -4.77098e-08)
(0.52095 0.500304 -5.38109e-08)
(0.45071 0.548197 -5.72605e-08)
(0.372996 0.604945 -5.8768e-08)
(0.269344 0.678904 -6.25734e-08)
(0.134761 0.771318 -6.84505e-08)
(3 2.5184e-07 -2.41017e-09)
(2.99999 5.15266e-07 -8.6569e-09)
(2.99998 3.75375e-06 -1.01399e-08)
(2.99995 5.67767e-06 -1.62793e-08)
(2.99988 2.59691e-05 -1.57636e-08)
(2.99969 3.63952e-05 -2.16632e-08)
(2.99933 0.000155891 -2.08686e-08)
(2.99817 0.000201791 -2.77542e-08)
(2.99623 0.00095107 -2.65853e-08)
(2.98866 0.000914557 -4.33512e-08)
(2.97637 0.00638705 -4.29612e-08)
(2.92759 0.00378035 -9.1063e-08)
(2.81137 0.0410249 -3.66707e-08)
(2.48765 0.052364 -2.83665e-07)
(1.51017 0.22034 -2.22447e-07)
(0.747414 0.439706 -3.13559e-07)
(0.655639 0.45299 -4.01794e-08)
(0.680672 0.452878 -3.21897e-08)
(0.676603 0.474148 -4.30817e-08)
(0.632586 0.507285 -4.59655e-08)
(0.572115 0.55755 -5.05387e-08)
(0.511719 0.617312 -5.14592e-08)
(0.448913 0.695442 -5.32426e-08)
(0.36638 0.814604 -5.53076e-08)
(0.208166 1.02646 -6.02067e-08)
(3 1.32914e-08 -3.67647e-13)
(2.99998 7.23132e-08 -1.96817e-12)
(2.99996 2.69225e-07 -4.22599e-12)
(2.9999 6.89639e-07 -8.94699e-12)
(2.99977 1.91003e-06 -1.58367e-11)
(2.99939 4.34987e-06 -2.94564e-11)
(2.99868 1.16268e-05 -6.07156e-11)
(2.99639 2.5064e-05 -1.06887e-10)
(2.99248 7.19726e-05 -3.05812e-10)
(2.97738 0.000146921 -4.89185e-10)
(2.95131 0.000464807 -1.77928e-09)
(2.84981 0.000986689 -3.0382e-09)
(2.58029 0.00364051 -1.145e-08)
(1.91911 0.00867633 -2.37124e-08)
(0.861292 0.0248653 -3.36088e-08)
(0.452631 0.0235052 6.43894e-09)
(0.540311 0.0240134 1.02404e-09)
(0.566168 0.0260281 -1.70235e-09)
(0.513598 0.0280108 -1.54164e-09)
(0.423173 0.029965 -1.11699e-09)
(0.336644 0.0322853 -1.09165e-09)
(0.266873 0.0350541 -1.28123e-09)
(0.197116 0.0379968 -1.36058e-09)
(0.118736 0.0414686 -1.50104e-09)
(0.0519765 0.0462067 -1.62766e-09)
(3 3.95985e-08 -3.67424e-13)
(2.99998 2.15526e-07 -1.96751e-12)
(2.99996 8.02854e-07 -4.22513e-12)
(2.9999 2.05525e-06 -8.94375e-12)
(2.99977 5.70204e-06 -1.58396e-11)
(2.9994 1.29751e-05 -2.94664e-11)
(2.9987 3.48437e-05 -6.07574e-11)
(2.99644 7.48382e-05 -1.0715e-10)
(2.99258 0.000217551 -3.05901e-10)
(2.9777 0.000441719 -4.90838e-10)
(2.95203 0.00141937 -1.78189e-09)
(2.85222 0.00301129 -3.04499e-09)
(2.58745 0.0112735 -1.1447e-08)
(1.93525 0.0269782 -2.37722e-08)
(0.870631 0.0759988 -3.40937e-08)
(0.449141 0.0682096 6.47299e-09)
(0.539816 0.0666169 1.01941e-09)
(0.566688 0.0701017 -1.68343e-09)
(0.513736 0.0734548 -1.51525e-09)
(0.423276 0.0767565 -1.08876e-09)
(0.33681 0.0805739 -1.06093e-09)
(0.26654 0.084875 -1.2385e-09)
(0.195772 0.0888378 -1.31542e-09)
(0.116084 0.0927086 -1.45632e-09)
(0.0489203 0.0964347 -1.57417e-09)
(3 6.48869e-08 -3.66455e-13)
(2.99998 3.52646e-07 -1.96372e-12)
(2.99996 1.31707e-06 -4.21472e-12)
(2.9999 3.37178e-06 -8.91631e-12)
(2.99978 9.39397e-06 -1.57849e-11)
(2.99942 2.14126e-05 -2.93576e-11)
(2.99873 5.77682e-05 -6.04911e-11)
(2.99654 0.000124608 -1.06941e-10)
(2.99279 0.000363202 -3.04352e-10)
(2.97836 0.000740583 -4.90549e-10)
(2.95351 0.00239419 -1.7807e-09)
(2.85731 0.00507084 -3.04605e-09)
(2.60284 0.0190832 -1.14313e-08)
(1.97119 0.0459148 -2.39083e-08)
(0.893102 0.130794 -3.53312e-08)
(0.445692 0.115874 6.51227e-09)
(0.542289 0.111906 1.04762e-09)
(0.571593 0.117883 -1.65107e-09)
(0.518393 0.124102 -1.48663e-09)
(0.428272 0.130849 -1.06221e-09)
(0.34211 0.138043 -1.00545e-09)
(0.27131 0.145813 -1.14719e-09)
(0.199332 0.153283 -1.20779e-09)
(0.117959 0.16007 -1.3472e-09)
(0.0488436 0.164904 -1.4456e-09)
(3 7.9897e-08 -3.64685e-13)
(2.99999 4.37942e-07 -1.95628e-12)
(2.99996 1.62551e-06 -4.19595e-12)
(2.9999 4.14202e-06 -8.87235e-12)
(2.99979 1.15022e-05 -1.57125e-11)
(2.99944 2.59004e-05 -2.92513e-11)
(2.99878 7.14185e-05 -6.02152e-11)
(2.99669 0.00014266 -1.07557e-10)
(2.9931 0.000480815 -3.02004e-10)
(2.97936 0.000815897 -4.95504e-10)
(2.95573 0.00345199 -1.77964e-09)
(2.86496 0.00663993 -3.03551e-09)
(2.62597 0.0266603 -1.13782e-08)
(2.0262 0.0637434 -2.40273e-08)
(0.928204 0.184335 -3.73574e-08)
(0.442608 0.16384 6.25971e-09)
(0.548053 0.156931 1.16201e-09)
(0.581535 0.165155 -1.57927e-09)
(0.528498 0.174348 -1.44664e-09)
(0.439046 0.185137 -1.04752e-09)
(0.353099 0.196109 -9.1574e-10)
(0.281728 0.207772 -1.01988e-09)
(0.208245 0.219394 -1.04763e-09)
(0.124059 0.229924 -1.15541e-09)
(0.0509528 0.236554 -1.22708e-09)
(3 9.90452e-08 -3.48548e-13)
(2.99999 5.43342e-07 -1.9023e-12)
(2.99997 2.01382e-06 -3.99945e-12)
(2.99991 5.13583e-06 -8.24848e-12)
(2.99979 1.42096e-05 -1.44529e-11)
(2.99947 3.20484e-05 -2.57667e-11)
(2.99883 8.76269e-05 -5.28467e-11)
(2.99688 0.000175253 -7.77507e-11)
(2.99335 0.000594709 -3.03898e-10)
(2.98079 0.000925429 -2.33444e-10)
(2.95849 0.00437647 -2.1368e-09)
(2.87508 0.00799186 -2.38001e-09)
(2.65727 0.0326483 -1.1702e-08)
(2.10108 0.0781785 -2.35505e-08)
(0.981453 0.231646 -3.95199e-08)
(0.448432 0.212296 5.2306e-09)
(0.56112 0.203166 1.36128e-09)
(0.599061 0.212478 -1.40077e-09)
(0.54611 0.22391 -1.37849e-09)
(0.457244 0.238756 -1.04107e-09)
(0.370873 0.253927 -7.7772e-10)
(0.29834 0.270162 -8.24501e-10)
(0.222619 0.286782 -8.3008e-10)
(0.134373 0.302037 -9.16215e-10)
(0.0554593 0.31129 -9.61878e-10)
(3 1.26041e-07 -3.53937e-13)
(2.99999 6.85811e-07 -1.91733e-12)
(2.99997 2.55566e-06 -4.0789e-12)
(2.99991 6.54865e-06 -8.45504e-12)
(2.99981 1.81403e-05 -1.50688e-11)
(2.9995 4.14569e-05 -2.7602e-11)
(2.9989 0.000110145 -5.49194e-11)
(2.99712 0.000239245 -1.02088e-10)
(2.99372 0.000691672 -2.66249e-10)
(2.98246 0.00129737 -4.09695e-10)
(2.96177 0.00479149 -1.72346e-09)
(2.88679 0.00912521 -2.46195e-09)
(2.69311 0.0353547 -1.0394e-08)
(2.19072 0.0859189 -2.21007e-08)
(1.05373 0.263692 -4.0975e-08)
(0.470687 0.260051 2.09126e-09)
(0.583633 0.253564 5.90641e-10)
(0.624848 0.262533 -1.21256e-09)
(0.57235 0.274873 -1.31201e-09)
(0.484378 0.293228 -1.20282e-09)
(0.397193 0.313097 -8.05134e-10)
(0.322963 0.334788 -7.52673e-10)
(0.244279 0.357813 -6.74089e-10)
(0.150204 0.38006 -6.92783e-10)
(0.062639 0.394413 -6.90433e-10)
(3 1.40088e-07 -3.42238e-13)
(2.99999 7.61618e-07 -1.86507e-12)
(2.99997 2.83567e-06 -3.90305e-12)
(2.99992 7.26906e-06 -8.07183e-12)
(2.99982 2.00632e-05 -1.3887e-11)
(2.99955 4.58987e-05 -2.51263e-11)
(2.99899 0.000120253 -4.71801e-11)
(2.99737 0.000266902 -8.63346e-11)
(2.99423 0.000714601 -2.05973e-10)
(2.98417 0.00151262 -3.60742e-10)
(2.96515 0.00458696 -1.25519e-09)
(2.89891 0.00942959 -1.63981e-09)
(2.72974 0.032631 -7.49154e-09)
(2.2874 0.0798064 -1.54578e-08)
(1.14912 0.244575 -2.48834e-08)
(0.52292 0.294835 -7.25767e-09)
(0.619456 0.305686 -1.9653e-09)
(0.658385 0.313942 -1.24132e-09)
(0.60687 0.326912 -1.29983e-09)
(0.521048 0.349194 -1.31937e-09)
(0.433195 0.374774 -8.76334e-10)
(0.356977 0.403152 -7.2924e-10)
(0.275183 0.434481 -6.03451e-10)
(0.174467 0.467039 -5.32837e-10)
(0.0750057 0.491659 -4.57786e-10)
(3 1.49201e-07 -3.38468e-13)
(2.99999 8.12721e-07 -1.8465e-12)
(2.99997 3.01858e-06 -3.84908e-12)
(2.99993 7.7322e-06 -7.95116e-12)
(2.99984 2.12702e-05 -1.35608e-11)
(2.99959 4.85855e-05 -2.44489e-11)
(2.99909 0.000126501 -4.52817e-11)
(2.99761 0.00028154 -8.29742e-11)
(2.99476 0.000731389 -1.90985e-10)
(2.98566 0.00162784 -3.57263e-10)
(2.96848 0.00428947 -1.0008e-09)
(2.90883 0.0100275 -1.9201e-09)
(2.75785 0.0287734 -5.69434e-09)
(2.35515 0.0714132 -1.25904e-08)
(1.24153 0.207396 -2.37322e-08)
(0.56667 0.334041 -1.55195e-08)
(0.63667 0.367565 -4.91043e-09)
(0.675576 0.366259 -9.62174e-10)
(0.635209 0.378623 -1.09116e-09)
(0.559038 0.405086 -1.36276e-09)
(0.475039 0.438039 -1.1546e-09)
(0.399664 0.475063 -9.1114e-10)
(0.317194 0.517486 -6.6179e-10)
(0.2112 0.565939 -4.86415e-10)
(0.0959153 0.61217 -3.09588e-10)
(3 1.75925e-07 -3.43346e-13)
(2.99999 9.61309e-07 -1.86293e-12)
(2.99998 3.58174e-06 -3.92505e-12)
(2.99994 9.19958e-06 -8.1115e-12)
(2.99986 2.54422e-05 -1.41437e-11)
(2.99963 5.88036e-05 -2.57269e-11)
(2.99919 0.000150681 -4.92838e-11)
(2.99787 0.000356052 -9.41598e-11)
(2.99536 0.000818378 -2.01451e-10)
(2.98711 0.00211114 -4.83983e-10)
(2.97226 0.00443507 -7.75589e-10)
(2.91831 0.0114552 -2.69477e-09)
(2.78461 0.0279582 -4.35145e-09)
(2.42118 0.0720693 -1.19533e-08)
(1.3638 0.202618 -2.17321e-08)
(0.646285 0.385922 -1.8714e-08)
(0.646386 0.418717 -1.54621e-09)
(0.674455 0.413989 -3.37956e-10)
(0.655892 0.429167 -9.54596e-10)
(0.59573 0.458376 -1.16059e-09)
(0.52095 0.500303 -1.3466e-09)
(0.450709 0.548197 -1.00808e-09)
(0.372996 0.604945 -7.92634e-10)
(0.269344 0.678904 -4.82912e-10)
(0.134761 0.771318 -2.73979e-10)
(3 2.51837e-07 -3.37388e-13)
(2.99999 5.15278e-07 -1.81664e-12)
(2.99998 3.75374e-06 -3.7623e-12)
(2.99995 5.67773e-06 -7.93953e-12)
(2.99988 2.59692e-05 -1.28451e-11)
(2.99969 3.63955e-05 -2.35704e-11)
(2.99933 0.000155891 -4.15862e-11)
(2.99817 0.000201793 -7.67866e-11)
(2.99623 0.000951074 -1.64412e-10)
(2.98866 0.000914569 -3.14262e-10)
(2.97637 0.00638707 -8.19959e-10)
(2.92759 0.00378042 -1.71431e-09)
(2.81137 0.041025 -3.79084e-09)
(2.48765 0.0523643 -1.20842e-08)
(1.51017 0.220341 -1.90919e-08)
(0.747412 0.439706 -2.2052e-08)
(0.65564 0.45299 -5.2364e-10)
(0.680672 0.452878 -2.68945e-11)
(0.676603 0.474148 -1.09204e-09)
(0.632587 0.507285 -1.23943e-09)
(0.572115 0.55755 -1.37906e-09)
(0.511719 0.617312 -1.1996e-09)
(0.448913 0.695442 -8.98617e-10)
(0.36638 0.814604 -5.01275e-10)
(0.208166 1.02646 -3.3388e-10)
(3 1.32914e-08 -8.78005e-15)
(2.99998 7.23132e-08 -3.94394e-14)
(2.99996 2.69225e-07 -1.27795e-13)
(2.9999 6.89639e-07 -2.75821e-13)
(2.99977 1.91003e-06 -7.66297e-13)
(2.99939 4.34987e-06 -1.55007e-12)
(2.99868 1.16268e-05 -4.37758e-12)
(2.99639 2.5064e-05 -8.2364e-12)
(2.99248 7.19726e-05 -2.65859e-11)
(2.97738 0.000146921 -4.41296e-11)
(2.95131 0.000464807 -1.61874e-10)
(2.84981 0.000986689 -2.78638e-10)
(2.58029 0.00364051 -1.01337e-09)
(1.91911 0.00867633 -2.05018e-09)
(0.861292 0.0248653 -2.7538e-09)
(0.452631 0.0235052 8.44096e-10)
(0.540311 0.0240134 2.37217e-10)
(0.566168 0.0260281 -2.99928e-11)
(0.513598 0.0280108 -8.33194e-12)
(0.423173 0.029965 6.32704e-11)
(0.336644 0.0322853 7.09732e-11)
(0.266873 0.0350541 6.47731e-11)
(0.197116 0.0379968 8.34573e-11)
(0.118736 0.0414686 6.37834e-11)
(0.0519765 0.0462067 5.67545e-11)
(3 3.95985e-08 -8.78586e-15)
(2.99998 2.15526e-07 -3.94801e-14)
(2.99996 8.02854e-07 -1.27993e-13)
(2.9999 2.05525e-06 -2.76208e-13)
(2.99977 5.70204e-06 -7.68193e-13)
(2.9994 1.29751e-05 -1.55453e-12)
(2.9987 3.48437e-05 -4.39121e-12)
(2.99644 7.48382e-05 -8.28029e-12)
(2.99258 0.000217551 -2.66476e-11)
(2.9777 0.000441719 -4.43881e-11)
(2.95203 0.00141937 -1.6242e-10)
(2.85222 0.00301129 -2.79913e-10)
(2.58745 0.0112735 -1.01481e-09)
(1.93525 0.0269782 -2.05939e-09)
(0.870631 0.0759988 -2.8009e-09)
(0.449141 0.0682096 8.46608e-10)
(0.539816 0.0666169 2.35328e-10)
(0.566688 0.0701017 -2.78676e-11)
(0.513736 0.0734548 -5.42091e-12)
(0.423276 0.0767565 6.61045e-11)
(0.33681 0.0805739 7.40816e-11)
(0.26654 0.084875 6.9647e-11)
(0.195772 0.0888378 8.82e-11)
(0.116084 0.0927086 6.82401e-11)
(0.0489204 0.0964347 6.53461e-11)
(3 6.4887e-08 -8.74326e-15)
(2.99998 3.52646e-07 -3.92865e-14)
(2.99996 1.31707e-06 -1.27421e-13)
(2.9999 3.37178e-06 -2.74979e-13)
(2.99978 9.39397e-06 -7.65964e-13)
(2.99942 2.14126e-05 -1.55077e-12)
(2.99873 5.77682e-05 -4.38439e-12)
(2.99654 0.000124608 -8.29523e-12)
(2.99279 0.000363202 -2.66043e-11)
(2.97836 0.000740583 -4.45508e-11)
(2.95351 0.00239419 -1.62878e-10)
(2.85731 0.00507084 -2.81228e-10)
(2.60284 0.0190832 -1.01673e-09)
(1.97119 0.0459148 -2.07941e-09)
(0.893102 0.130794 -2.91853e-09)
(0.445692 0.115874 8.4988e-10)
(0.542289 0.111906 2.36289e-10)
(0.571593 0.117883 -2.2991e-11)
(0.518393 0.124102 -4.33597e-13)
(0.428272 0.130849 7.14634e-11)
(0.34211 0.138043 8.19904e-11)
(0.27131 0.145813 8.25827e-11)
(0.199332 0.153283 1.01767e-10)
(0.117959 0.160071 7.95286e-11)
(0.0488436 0.164904 8.25517e-11)
(3 7.9897e-08 -8.63033e-15)
(2.99999 4.37942e-07 -3.88231e-14)
(2.99996 1.62551e-06 -1.26266e-13)
(2.9999 4.14202e-06 -2.72667e-13)
(2.99979 1.15022e-05 -7.62901e-13)
(2.99944 2.59004e-05 -1.54828e-12)
(2.99878 7.14185e-05 -4.38027e-12)
(2.99669 0.00014266 -8.38182e-12)
(2.9931 0.000480815 -2.65255e-11)
(2.97936 0.000815898 -4.51605e-11)
(2.95573 0.00345199 -1.63574e-10)
(2.86496 0.00663993 -2.81958e-10)
(2.62597 0.0266603 -1.01813e-09)
(2.0262 0.0637434 -2.10506e-09)
(0.928204 0.184335 -3.12061e-09)
(0.442608 0.16384 8.24397e-10)
(0.548053 0.156931 2.48067e-10)
(0.581535 0.165155 -1.1864e-11)
(0.528498 0.174348 7.51047e-12)
(0.439046 0.185137 7.71026e-11)
(0.353099 0.196109 9.73833e-11)
(0.281728 0.207772 1.02617e-10)
(0.208245 0.219394 1.22601e-10)
(0.124059 0.229924 1.03652e-10)
(0.0509528 0.236554 1.11306e-10)
(3 9.90452e-08 -7.34026e-15)
(2.99999 5.43342e-07 -3.33647e-14)
(2.99997 2.01382e-06 -1.07142e-13)
(2.99991 5.13583e-06 -2.29585e-13)
(2.99979 1.42096e-05 -6.39473e-13)
(2.99947 3.20484e-05 -1.27024e-12)
(2.99883 8.76269e-05 -3.76055e-12)
(2.99688 0.000175253 -5.99085e-12)
(2.99335 0.000594709 -2.65122e-11)
(2.98079 0.00092543 -2.46681e-11)
(2.95849 0.00437647 -1.91246e-10)
(2.87508 0.00799186 -2.31272e-10)
(2.65727 0.0326483 -1.04633e-09)
(2.10108 0.0781786 -2.08264e-09)
(0.981453 0.231646 -3.34491e-09)
(0.448432 0.212296 7.28631e-10)
(0.56112 0.203166 2.73978e-10)
(0.599061 0.212478 1.37344e-11)
(0.54611 0.22391 2.16229e-11)
(0.457244 0.238756 8.10079e-11)
(0.370873 0.253927 1.1752e-10)
(0.29834 0.270163 1.2728e-10)
(0.222619 0.286782 1.49359e-10)
(0.134373 0.302037 1.32579e-10)
(0.0554593 0.31129 1.42867e-10)
(3 1.26041e-07 -7.73716e-15)
(2.99999 6.85811e-07 -3.45419e-14)
(2.99997 2.55566e-06 -1.12813e-13)
(2.99991 6.54865e-06 -2.44443e-13)
(2.99981 1.81403e-05 -6.82826e-13)
(2.9995 4.14569e-05 -1.40023e-12)
(2.9989 0.000110146 -3.88645e-12)
(2.99712 0.000239245 -7.7912e-12)
(2.99372 0.000691672 -2.3341e-11)