/*--------------------------------*- C++ -*----------------------------------*\
| =========                 |                                                 |
| \\      /  F ield         | OpenFOAM: The Open Source CFD Toolbox           |
|  \\    /   O peration     | Version:  4.1                                   |
|   \\  /    A nd           | Web:      www.OpenFOAM.org                      |
|    \\/     M anipulation  |                                                 |
\*---------------------------------------------------------------------------*/
FoamFile
{
    version     2.0;
    format      ascii;
    class       surfaceScalarField;
    location    "7.32";
    object      phi;
}
// * * * * * * * * * * * * * * * * * * * * * * * * * * * * * * * * * * * * * //

dimensions      [1 0 -1 0 0 0 0];

internalField   nonuniform List<scalar> 
150500
(
0.0168001
1.98405e-10
-3.52094e-12
0.0168001
1.11104e-09
-1.15808e-11
0.0168001
4.12568e-09
-1.36386e-11
0.0168
1.06324e-08
-2.13802e-11
0.0168
2.91296e-08
-2.1822e-11
0.0167999
6.67486e-08
-2.88577e-11
0.0167997
1.72382e-07
-2.93633e-11
0.0167993
3.88295e-07
-3.98388e-11
0.0167982
9.97769e-07
-4.09247e-11
0.0167959
2.26317e-06
-8.50653e-11
0.016789
6.07269e-06
-4.56637e-11
0.0167728
1.59235e-05
-2.92909e-10
0.0167153
5.45584e-05
-2.00561e-10
0.0165412
0.000168589
-1.12661e-09
0.0155099
0.00101171
-2.25973e-09
0.0143466
0.00116408
-1.64323e-10
0.0131661
0.00117969
-3.50213e-10
0.0119097
0.001254
-5.14078e-10
0.0105697
0.00133745
-5.23624e-10
0.00913148
0.00143572
-5.35391e-10
0.00757201
0.0015567
-5.63946e-10
0.00587978
0.00168981
-6.00131e-10
0.00406258
0.00181481
-6.39622e-10
0.00211413
0.00194658
-6.8604e-10
0.00211227
-7.56202e-10
0.0168001
4.17668e-10
-3.51101e-12
0.0168001
2.32743e-09
-1.15892e-11
0.0168
8.64624e-09
-1.36303e-11
0.0168
2.22602e-08
-2.13901e-11
0.0168
6.11038e-08
-2.18306e-11
0.0167999
1.40283e-07
-2.88849e-11
0.0167997
3.61362e-07
-2.94186e-11
0.0167993
8.25436e-07
-3.98531e-11
0.0167981
2.0658e-06
-4.12226e-11
0.0167955
4.81268e-06
-8.44388e-11
0.0167882
1.24823e-05
-4.65701e-11
0.0167714
3.23766e-05
-2.90408e-10
0.0167113
0.000111771
-2.05827e-10
0.0165313
0.000343044
-1.13171e-09
0.0154875
0.00203546
-2.30473e-09
0.0143061
0.00234653
-1.55242e-10
0.0131362
0.00234881
-3.42745e-10
0.0118928
0.00249491
-5.01013e-10
0.0105601
0.00266765
-5.07249e-10
0.00910874
0.00288458
-5.1811e-10
0.00752854
0.00313408
-5.51915e-10
0.00581703
0.00339877
-5.93897e-10
0.00397887
0.00365062
-6.36428e-10
0.0020231
0.00390044
-6.86157e-10
0.00413334
-7.62301e-10
0.0168001
6.52871e-10
-3.49272e-12
0.0168001
3.60204e-09
-1.16103e-11
0.0168
1.34134e-08
-1.36364e-11
0.0168
3.44669e-08
-2.14652e-11
0.0168
9.51823e-08
-2.20177e-11
0.0167999
2.19756e-07
-2.93751e-11
0.0167997
5.62111e-07
-3.03983e-11
0.0167992
1.33784e-06
-4.45352e-11
0.016798
3.06665e-06
-3.93129e-11
0.0167948
7.95472e-06
-1.20458e-10
0.0167883
1.81679e-05
-4.42333e-12
0.0167706
4.95118e-05
-3.35762e-10
0.0167115
0.00016788
-1.44607e-10
0.0165346
0.000514215
-1.11841e-09
0.0155083
0.0030409
-2.29548e-09
0.0143111
0.00354511
-1.0942e-10
0.0131449
0.00351448
-3.4039e-10
0.0119141
0.0037233
-4.98073e-10
0.0105935
0.00398578
-4.97082e-10
0.00914941
0.00432599
-5.04169e-10
0.00756633
0.00471469
-5.45833e-10
0.00584852
0.0051138
-5.90003e-10
0.0039916
0.00550471
-6.34239e-10
0.00202461
0.00586541
-6.81661e-10
0.00615605
-7.47538e-10
0.0168001
7.96728e-10
-3.45391e-12
0.0168001
4.41351e-09
-1.16269e-11
0.0168001
1.642e-08
-1.35512e-11
0.0168
4.2195e-08
-2.15006e-11
0.0168
1.16403e-07
-2.16735e-11
0.0168
2.67591e-07
-2.9039e-11
0.0167998
6.94552e-07
-2.9495e-11
0.0167996
1.5834e-06
-4.11707e-11
0.0167984
4.03886e-06
-4.06559e-11
0.0167972
9.10972e-06
-1.0098e-10
0.0167883
2.62576e-05
-3.08029e-11
0.0167732
6.42049e-05
-3.16749e-10
0.0167204
0.000217657
-2.07966e-10
0.0165442
0.000684816
-1.17743e-09
0.0155742
0.00398865
-2.49838e-09
0.014366
0.00475548
3.59519e-11
0.0132007
0.00467923
-2.34005e-10
0.0119877
0.00493401
-4.54789e-10
0.010688
0.0052831
-4.63714e-10
0.00926022
0.00575152
-4.77493e-10
0.00768927
0.0062825
-5.21039e-10
0.00597068
0.00682979
-5.64732e-10
0.00410474
0.007368
-6.08545e-10
0.00208752
0.00788043
-6.46469e-10
0.0082417
-6.9441e-10
0.0168001
9.03099e-10
-3.41593e-12
0.0168001
4.97917e-09
-1.16441e-11
0.0168001
1.85798e-08
-1.34914e-11
0.0168
4.75495e-08
-2.16371e-11
0.0168
1.31795e-07
-2.14636e-11
0.0168
3.01614e-07
-2.91864e-11
0.0167999
7.94407e-07
-2.93609e-11
0.0167997
1.77596e-06
-4.03662e-11
0.0167988
4.75693e-06
-4.23655e-11
0.0167975
1.04166e-05
-7.84988e-11
0.0167912
3.16221e-05
-9.63676e-11
0.0167795
7.54857e-05
-2.39502e-10
0.0167135
0.000280455
-2.95553e-10
0.0165489
0.00084277
-1.21224e-09
0.01564
0.00487388
-2.63674e-09
0.014409
0.00598958
1.59189e-10
0.013256
0.00583188
-1.61651e-10
0.0120756
0.00611193
-4.34955e-10
0.0108186
0.00653789
-4.4889e-10
0.00943366
0.00713444
-4.6104e-10
0.0078938
0.00781852
-4.9219e-10
0.00618678
0.00853426
-5.2827e-10
0.00428622
0.00926641
-5.68377e-10
0.00221627
0.00994878
-5.95654e-10
0.0104562
-6.24885e-10
0.0168001
9.37321e-10
-3.37643e-12
0.0168001
5.17347e-09
-1.16479e-11
0.0168001
1.93353e-08
-1.34748e-11
0.0168001
4.92984e-08
-2.16757e-11
0.0168
1.36947e-07
-2.13813e-11
0.0168
3.1038e-07
-2.92082e-11
0.0168
8.36826e-07
-2.92745e-11
0.0168
1.77093e-06
-4.00256e-11
0.0167993
5.3122e-06
-4.23704e-11
0.0167992
1.04759e-05
-7.5748e-11
0.0167931
3.67314e-05
-9.58276e-11
0.0167871
8.1002e-05
-2.2971e-10
0.0167123
0.000352139
-3.06002e-10
0.0165712
0.000978463
-1.20541e-09
0.0158225
0.00559642
-2.79376e-09
0.0145406
0.00727604
1.78465e-10
0.0133853
0.00698819
-1.48043e-10
0.0122276
0.00726793
-4.2363e-10
0.0110112
0.00775188
-4.37582e-10
0.00967228
0.00847164
-4.45485e-10
0.00817544
0.00931218
-4.62312e-10
0.00649133
0.0102157
-4.90715e-10
0.00458494
0.0111705
-5.2014e-10
0.00240028
0.0121313
-5.32379e-10
0.0128546
-5.43966e-10
0.0168001
9.65241e-10
-3.34594e-12
0.0168001
5.37926e-09
-1.16459e-11
0.0168001
2.00513e-08
-1.35757e-11
0.0168001
5.13047e-08
-2.15116e-11
0.0168
1.41345e-07
-2.19787e-11
0.0168
3.19181e-07
-2.95404e-11
0.0168
8.68594e-07
-3.07155e-11
0.0168
1.72879e-06
-4.59773e-11
0.0167992
5.97962e-06
-3.98933e-11
0.0168006
9.13721e-06
-1.28883e-10
0.0167908
4.54821e-05
7.58781e-13
0.0167891
8.27046e-05
-3.5801e-10
0.0167422
0.000395658
-1.03e-10
0.0166502
0.00106533
-1.12901e-09
0.0162856
0.0059319
-2.70222e-09
0.0149235
0.00864465
1.22235e-10
0.0137058
0.00820794
-2.48016e-10
0.0125421
0.00843112
-4.51727e-10
0.0113614
0.00893108
-4.4672e-10
0.0100716
0.00976019
-4.35179e-10
0.00861452
0.0107677
-4.42449e-10
0.00695031
0.0118778
-4.61506e-10
0.00501425
0.0131047
-4.78611e-10
0.00272971
0.0144144
-4.74879e-10
0.0155826
-4.62136e-10
0.0168001
1.18525e-09
-3.32456e-12
0.0168001
6.51654e-09
-1.15855e-11
0.0168001
2.42465e-08
-1.35935e-11
0.0168
6.19669e-08
-2.13085e-11
0.0168
1.71586e-07
-2.17032e-11
0.0167999
3.91672e-07
-2.8602e-11
0.0167997
1.03516e-06
-2.90957e-11
0.0167992
2.28366e-06
-3.83213e-11
0.0167987
6.34034e-06
-3.99794e-11
0.0167949
1.28407e-05
-9.42347e-11
0.016795
4.44442e-05
-2.97828e-11
0.0167869
9.05148e-05
-2.6965e-10
0.0167871
0.000391856
-1.87657e-10
0.016796
0.00105158
-1.02872e-09
0.0171247
0.0055723
-2.59588e-09
0.0156736
0.0101025
6.77273e-11
0.0142821
0.0096017
-2.69649e-10
0.0130638
0.00964933
-4.20557e-10
0.0118926
0.0101015
-4.17362e-10
0.0106382
0.0110134
-4.2014e-10
0.00923505
0.0121699
-4.25781e-10
0.00761009
0.0135003
-4.36475e-10
0.0056824
0.0150296
-4.40836e-10
0.00325015
0.0168447
-4.23252e-10
0.0188311
-3.86624e-10
0.0168001
1.46179e-09
-3.27916e-12
0.0168001
6.52632e-09
-1.15958e-11
0.0168001
2.58837e-08
-1.35707e-11
0.0168001
6.41127e-08
-2.12888e-11
0.0168
1.80452e-07
-2.15813e-11
0.0168
4.04014e-07
-2.83663e-11
0.0168
1.07685e-06
-2.83057e-11
0.0167999
2.33695e-06
-3.63016e-11
0.0167997
6.39271e-06
-3.98612e-11
0.0167993
1.30921e-05
-5.85291e-11
0.0168012
4.17304e-05
-7.45434e-11
0.0168084
8.27799e-05
-1.90772e-10
0.0168593
0.000337386
-2.83379e-10
0.0170448
0.000861464
-9.65907e-10
0.0185038
0.00408088
-2.65977e-09
0.0169645
0.0116477
-2.18884e-10
0.0151645
0.0114052
-3.37199e-10
0.0139191
0.0108959
-3.17115e-10
0.0127133
0.0113072
-3.51147e-10
0.011482
0.0122432
-4.01932e-10
0.0101056
0.0135457
-4.08012e-10
0.0085908
0.0150139
-4.10993e-10
0.00677259
0.0168457
-4.05766e-10
0.00423662
0.019378
-3.81391e-10
0.0230658
-3.17902e-10
0.0168001
-3.3268e-12
2.62309e-09
0.0168001
-1.15242e-11
2.3885e-09
0.0168001
-1.37412e-11
3.59275e-08
0.0168001
-2.13576e-11
3.34225e-08
0.0168
-2.17019e-11
2.39915e-07
0.0168002
-2.84021e-11
2.20866e-07
0.0167998
-2.81852e-11
1.44043e-06
0.0168009
-3.5929e-11
1.2354e-06
0.0167982
-3.84586e-11
8.93363e-06
0.0168056
-5.68383e-11
5.6612e-06
0.0167834
-5.99436e-11
6.3219e-05
0.0168393
-1.9158e-10
2.63564e-05
0.0167205
-1.58986e-10
0.000453146
0.0170396
-6.75053e-10
0.000543164
0.0176082
-1.34861e-09
0.00349094
0.0170767
-1.19326e-09
0.012169
0.0157402
-6.83568e-10
0.0127408
0.0146646
-1.6395e-10
0.0119737
0.0135163
-3.43525e-10
0.0124552
0.0124429
-3.83772e-10
0.0133143
0.0112723
-3.93619e-10
0.0147142
0.00997817
-3.91507e-10
0.0163059
0.00830033
-3.78988e-10
0.0185216
0.00586523
-3.46997e-10
0.0218108
-2.6109e-10
0.028929
0.0168001
2.03331e-10
-5.91755e-16
0.0168001
1.11094e-09
-3.11218e-15
0.0168
4.13008e-09
-7.17116e-15
0.0168
1.06278e-08
-1.50142e-14
0.0168
2.91126e-08
-3.04313e-14
0.0167999
6.66931e-08
-5.78166e-14
0.0167997
1.72239e-07
-1.3109e-13
0.0167993
3.87962e-07
-2.55949e-13
0.0167982
9.96843e-07
-6.64403e-13
0.0167959
2.2621e-06
-1.35604e-12
0.016789
6.0681e-06
-3.6881e-12
0.0167728
1.59234e-05
-9.80982e-12
0.0167153
5.45528e-05
-2.68925e-11
0.0165412
0.000168591
-8.36384e-11
0.0155099
0.00101166
-2.20647e-10
0.0143467
0.00116402
7.35828e-12
0.0131661
0.00117966
-1.06753e-11
0.0119097
0.00125398
-2.88299e-11
0.0105697
0.00133744
-2.94218e-11
0.00913152
0.00143572
-2.85757e-11
0.00757205
0.00155669
-2.66402e-11
0.00587984
0.00168977
-2.51636e-11
0.00406268
0.00181477
-2.42101e-11
0.00211426
0.00194656
-2.35699e-11
0.00211241
-2.35168e-11
0.0168001
4.27008e-10
-5.96023e-16
0.0168001
2.32628e-09
-3.13199e-15
0.0168
8.64775e-09
-7.23302e-15
0.0168
2.22353e-08
-1.5145e-14
0.0168
6.10092e-08
-3.07687e-14
0.0167999
1.40037e-07
-5.84532e-14
0.0167997
3.60808e-07
-1.32773e-13
0.0167993
8.23149e-07
-2.58083e-13
0.0167981
2.06597e-06
-6.74485e-13
0.0167955
4.79618e-06
-1.36103e-12
0.0167882
1.25002e-05
-3.74496e-12
0.0167714
3.23533e-05
-9.85531e-12
0.0167113
0.000111797
-2.72888e-11
0.0165313
0.00034304
-8.44368e-11
0.0154875
0.00203541
-2.23916e-10
0.0143061
0.0023464
9.17542e-12
0.0131362
0.0023487
-9.73447e-12
0.0118929
0.00249484
-2.83611e-11
0.0105603
0.00266759
-2.8948e-11
0.00910892
0.00288453
-2.83192e-11
0.00752876
0.00313402
-2.67181e-11
0.00581728
0.00339872
-2.55226e-11
0.0039791
0.00365058
-2.44391e-11
0.00202326
0.00390049
-2.36208e-11
0.00413366
-2.34548e-11
0.0168001
6.71731e-10
-6.2504e-16
0.0168001
3.60841e-09
-3.2452e-15
0.0168
1.34634e-08
-7.66558e-15
0.0168
3.44805e-08
-1.61372e-14
0.0168
9.5354e-08
-3.37524e-14
0.0167999
2.19993e-07
-6.5587e-14
0.0167997
5.62661e-07
-1.4794e-13
0.0167992
1.33976e-06
-3.24981e-13
0.016798
3.06638e-06
-6.60925e-13
0.0167948
7.96672e-06
-1.87245e-12
0.0167883
1.81512e-05
-3.92416e-12
0.0167706
4.95272e-05
-1.05734e-11
0.0167115
0.000167814
-2.62347e-11
0.0165347
0.000514147
-8.58308e-11
0.0155087
0.00304056
-2.30581e-10
0.0143116
0.00354489
1.34696e-11
0.0131453
0.00351442
-8.02056e-12
0.0119145
0.00372325
-2.76751e-11
0.0105938
0.00398572
-2.81958e-11
0.0091498
0.00432593
-2.78745e-11
0.00756672
0.00471462
-2.69883e-11
0.00584887
0.00511377
-2.61096e-11
0.00399186
0.00550474
-2.48805e-11
0.00202477
0.00586557
-2.36549e-11
0.00615653
-2.31621e-11
0.0168001
8.15752e-10
-6.0648e-16
0.0168001
4.42203e-09
-3.15203e-15
0.0168001
1.64635e-08
-7.35199e-15
0.0168
4.21658e-08
-1.56232e-14
0.0168
1.16516e-07
-3.18029e-14
0.0168
2.67608e-07
-6.19017e-14
0.0167998
6.94695e-07
-1.42315e-13
0.0167996
1.58366e-06
-3.00534e-13
0.0167984
4.0391e-06
-6.86672e-13
0.0167972
9.116e-06
-1.76071e-12
0.0167883
2.62427e-05
-3.58652e-12
0.0167731
6.42223e-05
-1.06409e-11
0.0167203
0.000217632
-2.87363e-11
0.0165441
0.000684776
-8.90251e-11
0.015574
0.00398843
-2.43117e-10
0.0143658
0.00475512
2.46514e-11
0.0132007
0.00467904
-4.98607e-12
0.0119878
0.00493386
-2.62669e-11
0.0106882
0.00528297
-2.67341e-11
0.00926048
0.0057514
-2.64986e-11
0.00768954
0.00628242
-2.69756e-11
0.00597094
0.00682976
-2.6473e-11
0.00410495
0.00736808
-2.52368e-11
0.00208763
0.00788069
-2.36265e-11
0.00824229
-2.27899e-11
0.0168001
9.2263e-10
-6.07587e-16
0.0168001
4.99331e-09
-3.1466e-15
0.0168001
1.86019e-08
-7.37252e-15
0.0168
4.7547e-08
-1.56867e-14
0.0168
1.31837e-07
-3.20142e-14
0.0168
3.01579e-07
-6.22188e-14
0.0167999
7.94346e-07
-1.42802e-13
0.0167997
1.77576e-06
-2.90305e-13
0.0167988
4.75604e-06
-7.22459e-13
0.0167975
1.04159e-05
-1.51887e-12
0.0167912
3.16185e-05
-4.44554e-12
0.0167795
7.54893e-05
-1.06051e-11
0.0167135
0.000280456
-2.79682e-11
0.0165488
0.000842811
-9.42774e-11
0.0156396
0.00487388
-2.54181e-10
0.0144087
0.00598919
2.61816e-11
0.0132558
0.00583159
-2.02203e-12
0.0120754
0.00611169
-2.47013e-11
0.0108185
0.00653768
-2.49805e-11
0.0094337
0.00713425
-2.46944e-11
0.00789388
0.0078184
-2.62186e-11
0.00618688
0.00853421
-2.62253e-11
0.00428631
0.0092665
-2.5393e-11
0.00221632
0.00994906
-2.37403e-11
0.0104568
-2.25869e-11
0.0168001
9.52445e-10
-5.77357e-16
0.0168001
5.18798e-09
-3.0143e-15
0.0168001
1.93048e-08
-6.92558e-15
0.0168001
4.93825e-08
-1.4717e-14
0.0168
1.367e-07
-2.9206e-14
0.0168
3.10187e-07
-5.57114e-14
0.0168
8.3612e-07
-1.30284e-13
0.0168
1.76802e-06
-2.36026e-13
0.0167993
5.3129e-06
-7.36335e-13
0.0167992
1.04535e-05
-1.21187e-12
0.0167931
3.67687e-05
-4.71109e-12
0.0167871
8.09555e-05
-8.78596e-12
0.0167122
0.000352259
-3.71884e-11
0.016571
0.000978566
-9.52964e-11
0.0158219
0.00559677
-2.73722e-10
0.0145401
0.00727563
3.56353e-11
0.0133849
0.00698778
5.0446e-12
0.0122273
0.00726761
-2.1185e-11
0.011011
0.00775161
-2.19591e-11
0.00967212
0.0084714
-2.23904e-11
0.00817534
0.009312
-2.41941e-11
0.00649127
0.0102157
-2.49171e-11
0.00458492
0.0111705
-2.45257e-11
0.00240026
0.0121316
-2.30712e-11
0.0128552
-2.19811e-11
0.0168001
9.7707e-10
-5.34108e-16
0.0168001
5.41864e-09
-2.84363e-15
0.0168001
2.00676e-08
-6.27891e-15
0.0168001
5.14156e-08
-1.32949e-14
0.0168
1.41537e-07
-2.47128e-14
0.0168
3.19695e-07
-4.50534e-14
0.0168
8.69639e-07
-1.09082e-13
0.0168
1.7324e-06
-1.29419e-13
0.0167992
5.98169e-06
-7.95757e-13
0.0168006
9.15177e-06
-3.27763e-13
0.0167908
4.5479e-05
-8.00542e-12
0.016789
8.27578e-05
-6.76633e-12
0.0167423
0.000395631
-3.48084e-11
0.0166503
0.00106542
-9.85393e-11
0.0162856
0.00593227
-2.95711e-10
0.0149235
0.00864427
4.77641e-11
0.0137057
0.00820759
1.29782e-11
0.012542
0.00843085
-1.77535e-11
0.0113612
0.00893086
-1.89663e-11
0.0100714
0.00975997
-2.02456e-11
0.00861433
0.0107675
-2.14237e-11
0.00695016
0.0118777
-2.30437e-11
0.00501413
0.0131048
-2.35329e-11
0.00272964
0.0144146
-2.24651e-11
0.0155831
-2.12178e-11
0.0168001
1.20511e-09
-5.76436e-16
0.0168001
6.5213e-09
-3.02907e-15
0.0168001
2.42713e-08
-6.97857e-15
0.0168
6.19815e-08
-1.46147e-14
0.0168
1.71666e-07
-2.95784e-14
0.0167999
3.91869e-07
-5.6213e-14
0.0167997
1.03579e-06
-1.29543e-13
0.0167992
2.28545e-06
-2.42078e-13
0.0167987
6.34245e-06
-7.75221e-13
0.0167949
1.286e-05
-8.04608e-13
0.016795
4.44365e-05
-5.97325e-12
0.0167869
9.05577e-05
-7.73842e-12
0.0167871
0.000391839
-3.43229e-11
0.016796
0.00105166
-9.71341e-11
0.0171245
0.00557287
-3.02847e-10
0.0156735
0.0101021
6.78253e-11
0.014282
0.00960127
1.56886e-11
0.0130637
0.0096491
-1.34149e-11
0.0118924
0.0101013
-1.56443e-11
0.0106379
0.0110132
-1.92563e-11
0.00923482
0.0121697
-1.91904e-11
0.00760988
0.0135002
-2.07219e-11
0.00568223
0.0150296
-2.16392e-11
0.00325004
0.0168449
-2.12087e-11
0.0188315
-2.00272e-11
0.0168001
1.42534e-09
-5.77123e-16
0.0168001
6.6382e-09
-3.02541e-15
0.0168001
2.57232e-08
-7.00354e-15
0.0168001
6.39922e-08
-1.4643e-14
0.0168
1.80223e-07
-2.99514e-14
0.0168
4.03879e-07
-5.69009e-14
0.0168
1.07679e-06
-1.32637e-13
0.0167999
2.33735e-06
-2.54828e-13
0.0167997
6.39363e-06
-7.19167e-13
0.0167994
1.3097e-05
-1.31465e-12
0.0168012
4.1737e-05
-4.97077e-12
0.0168084
8.27987e-05
-7.87306e-12
0.0168592
0.000337443
-3.74946e-11
0.0170446
0.000861661
-9.24521e-11
0.0185029
0.00408212
-3.07545e-10
0.0169638
0.0116471
2.10948e-11
0.0151643
0.0114044
5.20296e-12
0.0139189
0.0108957
-6.88069e-12
0.0127131
0.0113069
-1.27653e-11
0.0114818
0.012243
-2.05301e-11
0.0101054
0.0135455
-1.91952e-11
0.00859058
0.0150137
-2.0038e-11
0.0067724
0.0168456
-2.057e-11
0.00423649
0.0193781
-2.07883e-11
0.0230661
-1.92384e-11
0.0168001
-5.53587e-16
2.49392e-09
0.0168001
-2.91589e-15
2.75865e-09
0.0168001
-6.63676e-15
3.47648e-08
0.0168001
-1.38232e-14
3.38626e-08
0.0168
-2.74542e-14
2.38713e-07
0.0168002
-5.17352e-14
2.21385e-07
0.0167998
-1.16298e-13
1.43937e-06
0.0168009
-2.24872e-13
1.23627e-06
0.0167982
-5.87163e-13
8.93307e-06
0.0168056
-1.19898e-12
5.66461e-06
0.0167835
-3.1397e-12
6.32162e-05
0.0168393
-8.31355e-12
2.63831e-05
0.0167205
-2.04754e-11
0.000453138
0.0170397
-5.56693e-11
0.000543338
0.0176092
-1.44389e-10
0.00349121
0.017077
-1.01093e-10
0.0121691
0.0157398
-4.97106e-11
0.0127406
0.0146644
2.01967e-12
0.0119733
0.0135161
-1.8444e-11
0.012455
0.0124427
-2.23179e-11
0.0133141
0.0112721
-2.11578e-11
0.014714
0.00997795
-2.10217e-11
0.0163058
0.00830014
-2.10785e-11
0.0185215
0.00586509
-2.14375e-11
0.0218109
-2.03045e-11
0.0289292
0.0168001
2.03329e-10
1.83804e-16
0.0168001
1.11092e-09
3.58414e-17
0.0168
4.13003e-09
-1.99107e-16
0.0168
1.06277e-08
-4.30637e-16
0.0168
2.91122e-08
-1.21962e-15
0.0167999
6.66921e-08
-2.4974e-15
0.0167997
1.72237e-07
-7.00079e-15
0.0167993
3.87956e-07
-1.43765e-14
0.0167982
9.96827e-07
-4.04517e-14
0.0167959
2.26207e-06
-8.46278e-14
0.016789
6.06801e-06
-2.36215e-13
0.0167728
1.59233e-05
-6.358e-13
0.0167153
5.45525e-05
-1.76209e-12
0.0165412
0.000168591
-5.50411e-12
0.0155099
0.00101166
-1.45916e-11
0.0143467
0.00116401
3.59105e-13
0.0131662
0.00117965
-8.42134e-13
0.0119097
0.00125398
-2.07317e-12
0.0105697
0.00133744
-2.13035e-12
0.00913153
0.00143572
-2.10675e-12
0.00757205
0.00155669
-1.99412e-12
0.00587985
0.00168977
-1.8992e-12
0.00406268
0.00181477
-1.8213e-12
0.00211427
0.00194656
-1.78462e-12
0.00211241
-1.77621e-12
0.0168001
4.26995e-10
1.84087e-16
0.0168001
2.32622e-09
3.04474e-17
0.0168
8.64752e-09
-2.03151e-16
0.0168
2.22348e-08
-4.39109e-16
0.0168
6.10075e-08
-1.24137e-15
0.0167999
1.40033e-07
-2.53812e-15
0.0167997
3.60799e-07
-7.10933e-15
0.0167993
8.23115e-07
-1.45098e-14
0.0167981
2.06596e-06
-4.11164e-14
0.0167955
4.79594e-06
-8.49125e-14
0.0167882
1.25003e-05
-2.40038e-13
0.0167714
3.23529e-05
-6.38762e-13
0.0167113
0.000111797
-1.78873e-12
0.0165313
0.000343039
-5.55799e-12
0.0154875
0.0020354
-1.48106e-11
0.0143061
0.00234639
4.78474e-13
0.0131362
0.0023487
-7.80891e-13
0.011893
0.00249484
-2.04403e-12
0.0105603
0.00266759
-2.10162e-12
0.00910893
0.00288453
-2.0921e-12
0.00752877
0.00313402
-2.00488e-12
0.00581728
0.00339872
-1.92458e-12
0.00397911
0.00365058
-1.83959e-12
0.00202326
0.00390049
-1.78974e-12
0.00413366
-1.77354e-12
0.0168001
6.71739e-10
1.86129e-16
0.0168001
3.60846e-09
-4.94667e-19
0.0168
1.34635e-08
-2.31715e-16
0.0168
3.44808e-08
-5.04832e-16
0.0168
9.5355e-08
-1.43882e-15
0.0167999
2.19995e-07
-3.01299e-15
0.0167997
5.62665e-07
-8.11442e-15
0.0167992
1.33977e-06
-1.8993e-14
0.016798
3.06637e-06
-4.01278e-14
0.0167948
7.96679e-06
-1.19363e-13
0.0167883
1.8151e-05
-2.07653e-13
0.0167706
4.95271e-05
-6.87642e-13
0.0167115
0.000167812
-1.78144e-12
0.0165347
0.000514145
-5.65301e-12
0.0155087
0.00304055
-1.52578e-11
0.0143116
0.00354487
7.5968e-13
0.0131453
0.00351441
-6.70364e-13
0.0119145
0.00372325
-2.00412e-12
0.0105939
0.00398572
-2.05901e-12
0.0091498
0.00432593
-2.06952e-12
0.00756672
0.00471462
-2.03263e-12
0.00584887
0.00511377
-1.97336e-12
0.00399187
0.00550474
-1.87923e-12
0.00202477
0.00586557
-1.80232e-12
0.00615654
-1.76564e-12
0.0168001
8.15752e-10
1.84912e-16
0.0168001
4.42204e-09
2.31257e-17
0.0168001
1.64636e-08
-2.12627e-16
0.0168
4.2166e-08
-4.59322e-16
0.0168
1.16516e-07
-1.32288e-15
0.0168
2.67609e-07
-2.7445e-15
0.0167998
6.94696e-07
-7.72397e-15
0.0167996
1.58367e-06
-1.72196e-14
0.0167984
4.0391e-06
-4.19123e-14
0.0167972
9.11607e-06
-1.10756e-13
0.0167883
2.62425e-05
-2.30289e-13
0.0167731
6.42222e-05
-6.89712e-13
0.0167203
0.000217632
-1.88691e-12
0.0165441
0.000684773
-5.86459e-12
0.015574
0.00398843
-1.60908e-11
0.0143658
0.0047551
1.23884e-12
0.0132007
0.00467903
-4.73805e-13
0.0119878
0.00493386
-1.92174e-12
0.0106882
0.00528297
-1.97512e-12
0.00926049
0.0057514
-1.99998e-12
0.00768955
0.00628242
-2.04245e-12
0.00597095
0.00682977
-2.01543e-12
0.00410495
0.00736808
-1.92252e-12
0.00208763
0.0078807
-1.82196e-12
0.00824229
-1.7633e-12
0.0168001
9.22645e-10
1.85006e-16
0.0168001
4.99339e-09
2.36949e-17
0.0168001
1.86022e-08
-2.14489e-16
0.0168
4.75477e-08
-4.63895e-16
0.0168
1.31839e-07
-1.33778e-15
0.0168
3.01584e-07
-2.76594e-15
0.0167999
7.94357e-07
-7.75663e-15
0.0167997
1.7758e-06
-1.65584e-14
0.0167988
4.75607e-06
-4.4262e-14
0.0167975
1.04161e-05
-9.49927e-14
0.0167912
3.16185e-05
-2.86486e-13
0.0167795
7.54901e-05
-6.87571e-13
0.0167135
0.000280451
-1.83762e-12
0.0165488
0.000842809
-6.21054e-12
0.0156396
0.00487387
-1.68288e-11
0.0144087
0.00598917
1.86905e-12
0.0132558
0.00583158
-2.83813e-13
0.0120755
0.00611169
-1.83324e-12
0.0108185
0.00653768
-1.87548e-12
0.00943372
0.00713426
-1.9026e-12
0.00789389
0.00781841
-2.00861e-12
0.00618689
0.00853422
-2.02389e-12
0.00428631
0.00926651
-1.95789e-12
0.00221632
0.00994907
-1.85287e-12
0.0104568
-1.77489e-12
0.0168001
9.52466e-10
1.8269e-16
0.0168001
5.18807e-09
5.7378e-17
0.0168001
1.93052e-08
-1.865e-16
0.0168001
4.93834e-08
-4.02999e-16
0.0168
1.36702e-07
-1.15969e-15
0.0168
3.10193e-07
-2.35108e-15
0.0168
8.36133e-07
-6.9572e-15
0.0168
1.76808e-06
-1.30598e-14
0.0167993
5.3129e-06
-4.51953e-14
0.0167992
1.04539e-05
-7.50969e-14
0.0167931
3.67681e-05
-3.03868e-13
0.0167871
8.09563e-05
-5.69007e-13
0.0167122
0.000352256
-2.4399e-12
0.016571
0.000978564
-6.27642e-12
0.0158219
0.00559678
-1.8109e-11
0.0145401
0.00727559
2.50196e-12
0.0133849
0.00698776
1.63926e-13
0.0122273
0.0072676
-1.62463e-12
0.011011
0.00775161
-1.69837e-12
0.00967213
0.0084714
-1.77255e-12
0.00817535
0.00931201
-1.90521e-12
0.00649128
0.0102157
-1.96999e-12
0.00458492
0.0111705
-1.94125e-12
0.00240026
0.0121316
-1.85256e-12
0.0128553
-1.77602e-12
0.0168001
9.77054e-10
1.7859e-16
0.0168001
5.41856e-09
9.69319e-17
0.0168001
2.00673e-08
-1.48383e-16
0.0168001
5.1415e-08
-3.20462e-16
0.0168
1.41534e-07
-8.94846e-16
0.0168
3.19689e-07
-1.72693e-15
0.0168
8.69628e-07
-5.70938e-15
0.0168
1.73236e-06
-6.75e-15
0.0167992
5.98168e-06
-4.88258e-14
0.0168006
9.15159e-06
-2.20633e-14
0.0167908
4.54792e-05
-4.11199e-13
0.016789
8.27573e-05
-4.46653e-13
0.0167423
0.000395633
-2.74326e-12
0.0166503
0.00106542
-6.48163e-12
0.0162855
0.00593231
-1.95195e-11
0.0149234
0.00864422
3.42719e-12
0.0137057
0.00820756
6.54719e-13
0.012542
0.00843084
-1.42701e-12
0.0113612
0.00893086
-1.52653e-12
0.0100714
0.00975998
-1.65285e-12
0.00861433
0.0107675
-1.76469e-12
0.00695016
0.0118777
-1.88291e-12
0.00501413
0.0131048
-1.91353e-12
0.00272965
0.0144146
-1.85653e-12
0.0155831
-1.77591e-12
0.0168001
1.20511e-09
1.8252e-16
0.0168001
6.5213e-09
5.25033e-17
0.0168001
2.42713e-08
-1.89865e-16
0.0168
6.19814e-08
-4.12037e-16
0.0168
1.71666e-07
-1.17865e-15
0.0167999
3.91869e-07
-2.42044e-15
0.0167997
1.03579e-06
-6.97018e-15
0.0167992
2.28544e-06
-1.35547e-14
0.0167987
6.34247e-06
-4.78713e-14
0.0167949
1.28598e-05
-5.02523e-14
0.016795
4.44369e-05
-3.83504e-13
0.0167869
9.05581e-05
-5.03576e-13
0.0167871
0.000391842
-2.63411e-12
0.016796
0.00105168
-6.3796e-12
0.0171244
0.00557296
-1.99572e-11
0.0156734
0.010102
3.38482e-12
0.014282
0.00960122
8.05787e-13
0.0130636
0.00964908
-1.17084e-12
0.0118924
0.0101013
-1.33497e-12
0.0106379
0.0110132
-1.60951e-12
0.00923482
0.0121697
-1.65832e-12
0.00760987
0.0135002
-1.77982e-12
0.00568223
0.0150296
-1.84914e-12
0.00325004
0.0168449
-1.84838e-12
0.0188315
-1.78099e-12
0.0168001
1.42535e-09
1.82502e-16
0.0168001
6.63828e-09
5.35554e-17
0.0168001
2.57234e-08
-1.91079e-16
0.0168001
6.39928e-08
-4.13035e-16
0.0168
1.80224e-07
-1.19965e-15
0.0168
4.03883e-07
-2.45694e-15
0.0168
1.0768e-06
-7.15113e-15
0.0167999
2.33737e-06
-1.43089e-14
0.0167997
6.39371e-06
-4.43051e-14
0.0167994
1.30971e-05
-8.19766e-14
0.0168012
4.17379e-05
-3.20325e-13
0.0168084
8.27996e-05
-5.08967e-13
0.0168592
0.000337453
-2.44903e-12
0.0170446
0.000861688
-6.05974e-12
0.0185028
0.0040823
-2.0217e-11
0.0169637
0.011647
1.22859e-12
0.0151642
0.0114043
9.11295e-14
0.0139188
0.0108957
-7.68028e-13
0.0127131
0.0113069
-1.16945e-12
0.0114818
0.012243
-1.70658e-12
0.0101053
0.0135455
-1.68264e-12
0.00859057
0.0150137
-1.7735e-12
0.0067724
0.0168456
-1.83092e-12
0.00423649
0.0193781
-1.9026e-12
0.0230661
-1.85075e-12
0.0168001
1.80703e-16
2.49391e-09
0.0168001
8.31202e-17
2.75875e-09
0.0168001
-1.63829e-16
3.47649e-08
0.0168001
-3.54113e-16
3.38632e-08
0.0168
-1.02688e-15
2.38715e-07
0.0168002
-2.10462e-15
2.21388e-07
0.0167998
-6.05582e-15
1.43939e-06
0.0168009
-1.23004e-14
1.23629e-06
0.0167982
-3.55773e-14
8.93318e-06
0.0168056
-7.40944e-14
5.66472e-06
0.0167835
-2.00781e-13
6.3217e-05
0.0168393
-5.33893e-13
2.63841e-05
0.0167205
-1.33722e-12
0.000453144
0.0170398
-3.63939e-12
0.000543353
0.0176094
-9.49735e-12
0.00349127
0.017077
-6.78773e-12
0.0121691
0.0157398
-3.50701e-12
0.0127406
0.0146644
-1.99566e-13
0.0119733
0.0135161
-1.56093e-12
0.012455
0.0124427
-1.83071e-12
0.0133141
0.0112721
-1.83289e-12
0.014714
0.00997793
-1.86286e-12
0.0163058
0.00830013
-1.94161e-12
0.0185215
0.00586508
-2.06697e-12
0.0218109
-2.11549e-12
0.0289292
0.0168001
2.03329e-10
-1.00367e-16
0.0168001
1.11092e-09
-3.66396e-16
0.0168
4.13002e-09
-1.03118e-15
0.0168
1.06277e-08
-2.0727e-15
0.0168
2.91122e-08
-5.51376e-15
0.0167999
6.6692e-08
-1.10601e-14
0.0167997
1.72237e-07
-3.03752e-14
0.0167993
3.87956e-07
-6.21519e-14
0.0167982
9.96826e-07
-1.72539e-13
0.0167959
2.26207e-06
-3.62019e-13
0.016789
6.068e-06
-9.93669e-13
0.0167728
1.59233e-05
-2.68975e-12
0.0167153
5.45525e-05
-7.40167e-12
0.0165412
0.000168591
-2.30703e-11
0.0155099
0.00101166
-6.22688e-11
0.0143467
0.00116401
3.4513e-12
0.0131662
0.00117965
-1.93421e-12
0.0119097
0.00125398
-7.36317e-12
0.0105697
0.00133744
-7.55946e-12
0.00913153
0.00143572
-7.36441e-12
0.00757205
0.00155669
-6.95395e-12
0.00587985
0.00168977
-6.61254e-12
0.00406268
0.00181477
-6.44003e-12
0.00211427
0.00194656
-6.27274e-12
0.00211242
-6.36929e-12
0.0168001
4.26994e-10
-1.02287e-16
0.0168001
2.32621e-09
-3.74013e-16
0.0168
8.64751e-09
-1.0514e-15
0.0168
2.22348e-08
-2.11406e-15
0.0168
6.10074e-08
-5.6174e-15
0.0167999
1.40033e-07
-1.12544e-14
0.0167997
3.60798e-07
-3.08895e-14
0.0167993
8.23113e-07
-6.27956e-14
0.0167981
2.06596e-06
-1.75661e-13
0.0167955
4.79593e-06
-3.63514e-13
0.0167882
1.25003e-05
-1.01147e-12
0.0167714
3.23528e-05
-2.70546e-12
0.0167113
0.000111797
-7.52609e-12
0.0165313
0.000343039
-2.33244e-11
0.0154875
0.0020354
-6.32445e-11
0.0143061
0.00234639
3.9595e-12
0.0131362
0.0023487
-1.66873e-12
0.011893
0.00249484
-7.22704e-12
0.0105603
0.00266759
-7.41936e-12
0.00910893
0.00288453
-7.28938e-12
0.00752877
0.00313402
-6.987e-12
0.00581728
0.00339872
-6.73226e-12
0.00397911
0.00365058
-6.52021e-12
0.00202326
0.00390049
-6.2964e-12
0.00413366
-6.35878e-12
0.0168001
6.7174e-10
-1.15695e-16
0.0168001
3.60846e-09
-4.15864e-16
0.0168
1.34635e-08
-1.19143e-15
0.0168
3.44808e-08
-2.42543e-15
0.0168
9.53551e-08
-6.53199e-15
0.0167999
2.19995e-07
-1.34401e-14
0.0167997
5.62665e-07
-3.55031e-14
0.0167992
1.33977e-06
-8.31771e-14
0.016798
3.06637e-06
-1.71508e-13
0.0167948
7.9668e-06
-5.18998e-13
0.0167883
1.8151e-05
-8.65891e-13
0.0167706
4.95271e-05
-2.93322e-12
0.0167115
0.000167812
-7.49445e-12
0.0165347
0.000514145
-2.37767e-11
0.0155087
0.00304055
-6.52527e-11
0.0143116
0.00354487
5.18483e-12
0.0131453
0.00351441
-1.19872e-12
0.0119145
0.00372325
-7.05203e-12
0.0105939
0.00398572
-7.22149e-12
0.00914981
0.00432593
-7.19272e-12
0.00756672
0.00471462
-7.11864e-12
0.00584887
0.00511377
-6.95417e-12
0.00399187
0.00550474
-6.69542e-12
0.00202477
0.00586557
-6.34575e-12
0.00615654
-6.30179e-12
0.0168001
8.15752e-10
-1.06689e-16
0.0168001
4.42204e-09
-3.88456e-16
0.0168001
1.64636e-08
-1.10248e-15
0.0168
4.2166e-08
-2.21875e-15
0.0168
1.16516e-07
-6.0141e-15
0.0168
2.67609e-07
-1.22316e-14
0.0167998
6.94696e-07
-3.37773e-14
0.0167996
1.58367e-06
-7.50105e-14
0.0167984
4.0391e-06
-1.80388e-13
0.0167972
9.11608e-06
-4.79035e-13
0.0167883
2.62425e-05
-9.7474e-13
0.0167731
6.42221e-05
-2.94976e-12
0.0167203
0.000217632
-7.99978e-12
0.0165441
0.000684773
-2.47943e-11
0.015574
0.00398843
-6.91276e-11
0.0143658
0.0047551
7.31661e-12
0.0132007
0.00467903
-2.1569e-13
0.0119878
0.00493386
-6.6526e-12
0.0106882
0.00528297
-6.80562e-12
0.00926049
0.0057514
-6.80492e-12
0.00768955
0.00628242
-7.18982e-12
0.00597095
0.00682977
-7.13583e-12
0.00410495
0.00736808
-6.86183e-12
0.00208763
0.0078807
-6.40078e-12
0.00824229
-6.24544e-12
0.0168001
9.22646e-10
-1.07705e-16
0.0168001
4.99339e-09
-3.90789e-16
0.0168001
1.86022e-08
-1.11656e-15
0.0168
4.75478e-08
-2.25057e-15
0.0168
1.31839e-07
-6.11813e-15
0.0168
3.01585e-07
-1.24128e-14
0.0167999
7.94357e-07
-3.41501e-14
0.0167997
1.7758e-06
-7.27656e-14
0.0167988
4.75607e-06
-1.91598e-13
0.0167975
1.04161e-05
-4.13091e-13
0.0167912
3.16185e-05
-1.22909e-12
0.0167795
7.54901e-05
-2.95154e-12
0.0167135
0.000280451
-7.83103e-12
0.0165488
0.000842809
-2.64091e-11
0.0156396
0.00487387
-7.25806e-11
0.0144087
0.00598916
1.01592e-11
0.0132558
0.00583158
4.51343e-13
0.0120755
0.00611169
-6.20388e-12
0.0108185
0.00653768
-6.3025e-12
0.00943372