/*--------------------------------*- C++ -*----------------------------------*\
| =========                 |                                                 |
| \\      /  F ield         | OpenFOAM: The Open Source CFD Toolbox           |
|  \\    /   O peration     | Version:  4.1                                   |
|   \\  /    A nd           | Web:      www.OpenFOAM.org                      |
|    \\/     M anipulation  |                                                 |
\*---------------------------------------------------------------------------*/
FoamFile
{
    version     2.0;
    format      ascii;
    class       volScalarField;
    location    "0.48";
    object      Ma;
}
// * * * * * * * * * * * * * * * * * * * * * * * * * * * * * * * * * * * * * //

dimensions      [0 0 0 0 0 0 0];

internalField   nonuniform List<scalar> 
18000
(
5.50546e-12
5.44285e-12
5.3697e-12
5.30848e-12
5.24789e-12
5.18814e-12
5.12906e-12
5.07106e-12
5.01387e-12
4.95829e-12
6.89997e-12
6.6551e-12
6.40965e-12
6.18389e-12
5.96773e-12
5.7608e-12
5.56235e-12
5.37237e-12
5.18988e-12
5.01776e-12
8.7559e-12
8.21802e-12
7.70908e-12
7.24456e-12
6.81346e-12
6.4133e-12
6.04197e-12
5.69628e-12
5.37463e-12
5.07829e-12
1.1262e-11
1.02547e-11
9.34662e-12
8.53639e-12
7.81088e-12
7.15949e-12
6.5732e-12
6.04461e-12
5.56724e-12
5.1399e-12
1.47008e-11
1.29428e-11
1.14277e-11
1.01211e-11
8.99289e-12
8.01446e-12
7.16305e-12
6.41986e-12
5.76866e-12
5.20278e-12
1.95027e-11
1.65398e-11
1.41015e-11
1.20794e-11
1.04006e-11
8.99771e-12
7.8192e-12
6.82411e-12
5.97911e-12
5.26652e-12
2.63326e-11
2.14281e-11
1.7574e-11
1.45195e-11
1.20868e-11
1.01324e-11
8.55031e-12
7.25983e-12
6.1994e-12
5.33138e-12
3.62678e-11
2.81807e-11
2.21517e-11
1.76043e-11
1.4144e-11
1.14797e-11
9.40582e-12
7.77533e-12
6.48055e-12
5.45586e-12
3.39736e-09
3.33911e-09
3.13418e-09
2.95077e-09
2.78657e-09
2.63893e-09
2.50558e-09
2.38464e-09
2.27461e-09
2.20627e-09
3.63304e-07
4.36743e-08
3.71677e-08
3.21937e-08
2.80533e-08
2.45792e-08
2.16445e-08
1.91515e-08
1.69612e-08
6.13045e-08
5.74276e-12
5.67463e-12
5.59954e-12
5.53335e-12
5.46837e-12
5.40466e-12
5.34123e-12
5.27947e-12
5.21856e-12
5.15904e-12
7.23656e-12
6.9707e-12
6.71431e-12
6.47085e-12
6.23864e-12
6.01648e-12
5.80436e-12
5.60144e-12
5.40742e-12
5.22286e-12
9.22951e-12
8.64551e-12
8.1106e-12
7.60881e-12
7.14515e-12
6.71589e-12
6.31845e-12
5.94941e-12
5.60665e-12
5.28874e-12
1.19447e-11
1.08496e-11
9.88495e-12
9.00628e-12
8.22249e-12
7.52117e-12
6.89227e-12
6.32716e-12
5.81716e-12
5.356e-12
1.57079e-11
1.37893e-11
1.2161e-11
1.07346e-11
9.50903e-12
8.45107e-12
7.53398e-12
6.73644e-12
6.03959e-12
5.42583e-12
2.10269e-11
1.77683e-11
1.51147e-11
1.28891e-11
1.10536e-11
9.5282e-12
8.25346e-12
7.18191e-12
6.27528e-12
5.49781e-12
2.86999e-11
2.32503e-11
1.89944e-11
1.55993e-11
1.29194e-11
1.07813e-11
9.06114e-12
7.66619e-12
6.52382e-12
5.57221e-12
4.00553e-11
3.09366e-11
2.41608e-11
1.90431e-11
1.51895e-11
1.22467e-11
9.97267e-12
8.19473e-12
6.78847e-12
5.65006e-12
9.50198e-11
1.87983e-10
1.53044e-10
1.25719e-10
1.04524e-10
8.78344e-11
7.45203e-11
6.37743e-11
5.50131e-11
4.80214e-11
2.40481e-07
3.76477e-08
3.27203e-08
2.86365e-08
2.5265e-08
2.24521e-08
2.00825e-08
1.80688e-08
1.63467e-08
1.53389e-08
4.55841e-13
4.33004e-13
2.90235e-13
2.74183e-13
2.59526e-13
2.46399e-13
2.34907e-13
2.25185e-13
2.16881e-13
2.07163e-13
6.31147e-13
5.60787e-13
4.9152e-13
4.41824e-13
3.97057e-13
3.57233e-13
3.22192e-13
2.92384e-13
2.67948e-13
2.23125e-13
7.65352e-13
6.55975e-13
6.59205e-13
5.83193e-13
5.16197e-13
4.58544e-13
4.09813e-13
3.69034e-13
3.33997e-13
2.4557e-13
1.00739e-12
8.78834e-13
9.29372e-13
8.06064e-13
7.00616e-13
6.12215e-13
5.38347e-13
4.77195e-13
4.24481e-13
2.79094e-13
1.40637e-12
1.27706e-12
1.32279e-12
1.11875e-12
9.49593e-13
8.11973e-13
6.99507e-13
6.07556e-13
5.29156e-13
3.20192e-13
2.06253e-12
1.93512e-12
1.89082e-12
1.5501e-12
1.27896e-12
1.06524e-12
8.95464e-13
7.59812e-13
6.46659e-13
3.67818e-13
3.14533e-12
2.98525e-12
2.71347e-12
2.14366e-12
1.71122e-12
1.38313e-12
1.13065e-12
9.34924e-13
7.76461e-13
4.20592e-13
4.98949e-12
4.65404e-12
3.91347e-12
2.96311e-12
2.27845e-12
1.78047e-12
1.41163e-12
1.13485e-12
9.18531e-13
4.77969e-13
1.46191e-10
7.3784e-12
5.90219e-12
4.33427e-12
3.25663e-12
2.50117e-12
1.95756e-12
1.55868e-12
1.25473e-12
7.72967e-13
2.07393e-07
2.11473e-09
1.54979e-09
1.18342e-09
9.18911e-10
7.24228e-10
5.78451e-10
4.67601e-10
3.82204e-10
3.19037e-10
3.85552e-13
3.6116e-13
1.72081e-13
1.51113e-13
1.3076e-13
1.11635e-13
9.37631e-14
7.74076e-14
6.28913e-14
3.68229e-14
5.32579e-13
4.59808e-13
3.86046e-13
3.35775e-13
2.8919e-13
2.4751e-13
2.10742e-13
1.79087e-13
1.52869e-13
7.94155e-14
5.95891e-13
4.88839e-13
5.23634e-13
4.55311e-13
3.95173e-13
3.44025e-13
3.01484e-13
2.67414e-13
2.39116e-13
1.19681e-13
7.28951e-13
6.3438e-13
7.60625e-13
6.57295e-13
5.68602e-13
4.95238e-13
4.34691e-13
3.85384e-13
3.43445e-13
1.7112e-13
9.56398e-13
9.43369e-13
1.10772e-12
9.4119e-13
8.02089e-13
6.88779e-13
5.96317e-13
5.21204e-13
4.56846e-13
2.2476e-13
1.33919e-12
1.48449e-12
1.60993e-12
1.3332e-12
1.1093e-12
9.31758e-13
7.89609e-13
6.75962e-13
5.79798e-13
2.81452e-13
1.97363e-12
2.36131e-12
2.33671e-12
1.87205e-12
1.51175e-12
1.23505e-12
1.01958e-12
8.51118e-13
7.12898e-13
3.41308e-13
3.06046e-12
3.7576e-12
3.3934e-12
2.61443e-12
2.0383e-12
1.61294e-12
1.29299e-12
1.04967e-12
8.56933e-13
4.04331e-13
1.5791e-10
6.36652e-12
4.92669e-12
3.63146e-12
2.72296e-12
2.08032e-12
1.61534e-12
1.27389e-12
1.01231e-12
4.70471e-13
2.04734e-07
6.53958e-10
3.88553e-11
2.54724e-11
1.73655e-11
1.21346e-11
8.6635e-12
6.30466e-12
4.66632e-12
3.38019e-12
3.85607e-13
3.60805e-13
1.72418e-13
1.51341e-13
1.30922e-13
1.117e-13
9.4002e-14
7.76046e-14
6.2904e-14
3.68515e-14
5.33035e-13
4.60099e-13
3.8679e-13
3.36441e-13
2.89851e-13
2.47904e-13
2.11015e-13
1.79499e-13
1.53199e-13
7.95099e-14
5.96909e-13
4.89886e-13
5.25167e-13
4.5652e-13
3.95973e-13
3.44854e-13
3.02186e-13
2.6783e-13
2.39303e-13
1.19835e-13
7.31071e-13
6.36746e-13
7.62946e-13
6.59309e-13
5.70157e-13
4.96467e-13
4.35722e-13
3.86227e-13
3.44013e-13
1.71122e-13
9.60254e-13
9.47787e-13
1.11192e-12
9.44414e-13
8.04632e-13
6.91007e-13
5.97923e-13
5.22259e-13
4.57753e-13
2.25376e-13
1.34597e-12
1.49227e-12
1.61659e-12
1.33871e-12
1.11357e-12
9.35224e-13
7.92412e-13
6.78069e-13
5.81487e-13
2.82484e-13
1.98524e-12
2.3752e-12
2.34853e-12
1.88121e-12
1.51895e-12
1.2408e-12
1.0241e-12
8.54553e-13
7.15731e-13
3.43193e-13
3.0805e-12
3.78281e-12
3.41366e-12
2.63e-12
2.05036e-12
1.62224e-12
1.30024e-12
1.05537e-12
8.61277e-13
4.07388e-13
1.61941e-10
6.48455e-12
4.98171e-12
3.66824e-12
2.74835e-12
2.09824e-12
1.62821e-12
1.28336e-12
1.01943e-12
4.74907e-13
2.15419e-07
6.91297e-10
9.36595e-12
5.11026e-12
3.67351e-12
2.70524e-12
2.03162e-12
1.55371e-12
1.20015e-12
5.56984e-13
3.85692e-13
3.60488e-13
1.72983e-13
1.51862e-13
1.31274e-13
1.12011e-13
9.41232e-14
7.7879e-14
6.32142e-14
3.68511e-14
5.33896e-13
4.60589e-13
3.88066e-13
3.37534e-13
2.90802e-13
2.48629e-13
2.11526e-13
1.79815e-13
1.53718e-13
7.99424e-14
5.98764e-13
4.91687e-13
5.27491e-13
4.58441e-13
3.97642e-13
3.46082e-13
3.03104e-13
2.68477e-13
2.39852e-13
1.20311e-13
7.34891e-13
6.40848e-13
7.66752e-13
6.62436e-13
5.7269e-13
4.98358e-13
4.37161e-13
3.87384e-13
3.44749e-13
1.717e-13
9.67741e-13
9.55391e-13
1.11817e-12
9.49465e-13
8.08624e-13
6.94262e-13
6.00511e-13
5.24295e-13
4.59264e-13
2.26354e-13
1.36017e-12
1.50585e-12
1.62739e-12
1.347e-12
1.12005e-12
9.40473e-13
7.96572e-13
6.81149e-13
5.84047e-13
2.84258e-13
2.01187e-12
2.39886e-12
2.36694e-12
1.89531e-12
1.52979e-12
1.24931e-12
1.03079e-12
8.59722e-13
7.1982e-13
3.46016e-13
3.13194e-12
3.82543e-12
3.44564e-12
2.65356e-12
2.06801e-12
1.6358e-12
1.31079e-12
1.06348e-12
8.67522e-13
4.11591e-13
1.70598e-10
6.58937e-12
5.03798e-12
3.70794e-12
2.7772e-12
2.11971e-12
1.64431e-12
1.2955e-12
1.02887e-12
4.81336e-13
2.36419e-07
7.41864e-10
9.52702e-12
5.12348e-12
3.68918e-12
2.71979e-12
2.04429e-12
1.56434e-12
1.20888e-12
5.61823e-13
3.85695e-13
3.60176e-13
1.73615e-13
1.52488e-13
1.31871e-13
1.12537e-13
9.45658e-14
7.80988e-14
6.33871e-14
3.7797e-14
5.34893e-13
4.61246e-13
3.89677e-13
3.38806e-13
2.91915e-13
2.49689e-13
2.12431e-13
1.80506e-13
1.53927e-13
8.05476e-14
6.01044e-13
4.93853e-13
5.30208e-13
4.60793e-13
3.99552e-13
3.47662e-13
3.04213e-13
2.69346e-13
2.40526e-13
1.20977e-13
7.39538e-13
6.45785e-13
7.71256e-13
6.66175e-13
5.75853e-13
5.00878e-13
4.38984e-13
3.88692e-13
3.46011e-13
1.72717e-13
9.76866e-13
9.64562e-13
1.12567e-12
9.55433e-13
8.13403e-13
6.9827e-13
6.03748e-13
5.26781e-13
4.61162e-13
2.27965e-13
1.37761e-12
1.52188e-12
1.64021e-12
1.35718e-12
1.12794e-12
9.46811e-13
8.01768e-13
6.85246e-13
5.87166e-13
2.86722e-13
2.04449e-12
2.42727e-12
2.38878e-12
1.91213e-12
1.54282e-12
1.25969e-12
1.03915e-12
8.66238e-13
7.24875e-13
3.49882e-13
3.19238e-12
3.87608e-12
3.48371e-12
2.68195e-12
2.08939e-12
1.65218e-12
1.32381e-12
1.07367e-12
8.75351e-13
4.17194e-13
1.7725e-10
6.67913e-12
5.10429e-12
3.75568e-12
2.8122e-12
2.14586e-12
1.66435e-12
1.31047e-12
1.04048e-12
4.89471e-13
2.54208e-07
7.71362e-10
9.59986e-12
5.19833e-12
3.74298e-12
2.75893e-12
2.07363e-12
1.58646e-12
1.22547e-12
5.73143e-13
3.85787e-13
3.59291e-13
1.7411e-13
1.52933e-13
1.32535e-13
1.13616e-13
9.66187e-14
9.34752e-14
2.12527e-13
6.624e-13
5.35717e-13
4.61231e-13
3.90828e-13
3.39986e-13
2.9312e-13
2.51073e-13
2.14183e-13
1.85746e-13
1.97924e-13
4.37197e-13
6.02968e-13
4.94898e-13
5.3221e-13
4.62629e-13
4.01366e-13
3.49644e-13
3.0668e-13
2.72904e-13
2.57341e-13
3.09427e-13
7.43685e-13
6.48502e-13
7.74445e-13
6.68969e-13
5.78378e-13
5.03509e-13
4.42232e-13
3.92622e-13
3.55479e-13
2.69624e-13
9.84862e-13
9.69867e-13
1.13068e-12
9.59821e-13
8.17203e-13
7.01724e-13
6.07861e-13
5.31635e-13
4.69231e-13
2.82115e-13
1.39189e-12
1.53142e-12
1.64845e-12
1.36427e-12
1.13405e-12
9.52449e-13
8.07871e-13
6.91875e-13
5.95649e-13
3.22463e-13
2.06967e-12
2.4444e-12
2.40289e-12
1.92396e-12
1.5527e-12
1.26842e-12
1.04779e-12
8.75528e-13
7.35003e-13
3.7739e-13
3.22098e-12
3.90711e-12
3.50822e-12
2.70192e-12
2.10565e-12
1.6658e-12
1.33637e-12
1.08674e-12
8.8865e-13
4.41364e-13
1.43944e-10
6.53924e-12
5.14543e-12
3.78892e-12
2.83843e-12
2.16734e-12
1.68329e-12
1.32869e-12
1.05754e-12
5.12843e-13
2.28353e-07
5.1619e-10
8.65833e-12
5.24716e-12
3.78339e-12
2.79124e-12
2.10045e-12
1.61075e-12
1.24828e-12
5.97852e-13
3.90901e-13
4.13718e-13
2.23608e-13
1.58673e-13
1.73065e-13
4.03678e-13
8.38744e-13
3.22509e-12
1.26693e-11
3.82448e-11
5.50173e-13
5.58105e-13
4.51088e-13
3.58618e-13
2.9429e-13
4.00109e-13
7.03236e-13
2.06997e-12
7.39912e-12
2.47338e-11
6.34017e-13
6.65289e-13
6.24974e-13
5.05088e-13
4.0083e-13
4.05986e-13
6.91559e-13
1.46283e-12
4.67581e-12
1.59472e-11
7.94171e-13
8.83892e-13
8.92428e-13
7.30839e-13
5.87094e-13
5.11844e-13
6.80696e-13
1.14644e-12
3.18213e-12
1.06711e-11
1.05646e-12
1.2482e-12
1.26663e-12
1.03579e-12
8.36546e-13
6.93333e-13
7.23172e-13
1.01654e-12
2.34882e-12
7.41204e-12
1.48018e-12
1.82926e-12
1.79271e-12
1.44555e-12
1.15799e-12
9.38838e-13
8.51296e-13
1.08418e-12
1.93686e-12
5.32889e-12
2.15938e-12
2.74114e-12
2.54078e-12
1.9988e-12
1.5728e-12
1.24965e-12
1.05053e-12
1.12553e-12
1.73035e-12
3.95598e-12
3.24126e-12
4.17103e-12
3.61687e-12
2.75327e-12
2.1098e-12
1.63632e-12
1.31477e-12
1.22833e-12
1.62958e-12
3.03052e-12
1.98742e-11
6.23591e-12
5.18796e-12
3.79305e-12
2.8101e-12
2.11685e-12
1.64213e-12
1.3981e-12
1.585e-12
2.39773e-12
1.46127e-08
7.37416e-10
6.22519e-12
5.16139e-12
3.70117e-12
2.70613e-12
2.03479e-12
1.6277e-12
1.59983e-12
1.96885e-12
2.52496e-12
2.37814e-12
1.52215e-12
1.5507e-13
2.66945e-12
8.65251e-12
2.60385e-11
1.0035e-10
3.89495e-10
6.74626e-10
3.55666e-12
3.44017e-12
2.54961e-12
1.16126e-12
1.33063e-12
6.25642e-12
1.89775e-11
6.41126e-11
2.27725e-10
4.23323e-10
4.82417e-12
4.70067e-12
3.72411e-12
2.31966e-12
2.75748e-13
4.10637e-12
1.36409e-11
4.34746e-11
1.4325e-10
2.799e-10
6.48476e-12
6.2781e-12
5.12256e-12
3.60942e-12
1.44506e-12
2.28795e-12
9.74901e-12
3.06988e-11
9.53003e-11
1.9175e-10
8.70461e-12
8.28655e-12
6.81754e-12
5.08845e-12
2.85388e-12
7.74017e-13
6.77384e-12
2.21247e-11
6.60301e-11
1.35252e-10
1.17281e-11
1.08875e-11
8.90836e-12
6.80852e-12
4.36948e-12
1.23416e-12
4.37872e-12
1.59159e-11
4.70108e-11
9.78071e-11
1.59338e-11
1.43287e-11
1.15341e-11
8.84711e-12
6.05255e-12
2.76659e-12
2.40062e-12
1.15212e-11
3.42014e-11
7.22371e-11
2.19399e-11
1.89679e-11
1.4885e-11
1.13073e-11
7.9455e-12
4.38295e-12
1.10135e-12
8.17789e-12
2.5274e-11
5.42991e-11
1.98093e-10
2.53362e-11
1.92442e-11
1.43225e-11
1.01171e-11
6.10684e-12
1.84908e-12
5.54418e-12
1.88762e-11
4.14036e-11
5.86664e-07
1.28452e-09
2.50416e-11
1.8063e-11
1.26334e-11
7.95509e-12
3.36124e-12
3.46395e-12
1.41371e-11
3.19093e-11
3.37851e-12
3.03831e-12
2.00452e-12
1.94459e-12
8.37538e-12
2.92674e-11
1.21037e-10
5.53431e-10
1.29828e-09
1.56704e-09
4.47692e-12
4.17091e-12
3.18229e-12
1.66416e-12
5.23571e-12
2.00683e-11
7.59629e-11
3.14995e-10
7.76869e-10
9.11517e-10
5.81283e-12
5.48315e-12
4.50736e-12
2.78128e-12
2.81705e-12
1.33558e-11
4.98702e-11
1.92597e-10
4.88246e-10
5.61447e-10
7.52338e-12
7.0714e-12
6.00817e-12
4.29625e-12
1.96635e-12
8.45042e-12
3.36068e-11
1.24068e-10
3.18296e-10
3.60598e-10
9.76766e-12
9.04509e-12
7.75774e-12
5.97165e-12
3.17083e-12
4.83398e-12
2.27039e-11
8.27901e-11
2.13923e-10
2.39832e-10
1.27855e-11
1.15573e-11
9.85367e-12
7.8343e-12
4.98599e-12
2.52132e-12
1.49296e-11
5.62539e-11
1.4751e-10
1.644e-10
1.69399e-11
1.48292e-11
1.24281e-11
9.96366e-12
6.95426e-12
2.80172e-12
9.38073e-12
3.86988e-11
1.03578e-10
1.15389e-10
2.28067e-11
1.91858e-11
1.56652e-11
1.24602e-11
9.07139e-12
4.69008e-12
5.28694e-12
2.66472e-11
7.3791e-11
8.24947e-11
1.26001e-10
2.51027e-11
1.98214e-11
1.54599e-11
1.14127e-11
6.83927e-12
2.73133e-12
1.81032e-11
5.31163e-11
5.97684e-11
1.15071e-07
5.59819e-09
3.13883e-11
1.91138e-11
1.40442e-11
9.05026e-12
3.08217e-12
1.18462e-11
3.84203e-11
4.36461e-11
1.01835e-12
1.27103e-12
1.53907e-12
3.22505e-12
8.52328e-12
2.50824e-11
8.76071e-11
2.88819e-10
4.5289e-10
1.77168e-10
1.10509e-12
1.27381e-12
1.40881e-12
2.44619e-12
6.0677e-12
1.74719e-11
5.81155e-11
1.8196e-10
2.7145e-10
7.08517e-11
1.19582e-12
1.31749e-12
1.40374e-12
1.97667e-12
4.35409e-12
1.22791e-11
3.94434e-11
1.18364e-10
1.68702e-10
5.07448e-11
1.28969e-12
1.3891e-12
1.47576e-12
1.78872e-12
3.21216e-12
8.68315e-12
2.72696e-11
7.91898e-11
1.08153e-10
4.38226e-11
1.38872e-12
1.47766e-12
1.5834e-12
1.77992e-12
2.53045e-12
6.17317e-12
1.90863e-11
5.42409e-11
7.11623e-11
3.65897e-11
1.49942e-12
1.58045e-12
1.70513e-12
1.86042e-12
2.21381e-12
4.47197e-12
1.345e-11
3.79845e-11
4.79719e-11
2.99742e-11
1.62697e-12
1.69718e-12
1.83299e-12
1.98022e-12
2.14119e-12
3.37037e-12
9.519e-12
2.6852e-11
3.28838e-11
2.45243e-11
1.79323e-12
1.83036e-12
1.96887e-12
2.113e-12
2.19559e-12
2.75211e-12
6.812e-12
1.91606e-11
2.27937e-11
2.02297e-11
3.39025e-10
4.31628e-12
2.11191e-12
2.25272e-12
2.30891e-12
2.48589e-12
4.96537e-12
1.3779e-11
1.58893e-11
1.68992e-11
1.9742e-07
5.79064e-09
1.18368e-11
2.38892e-12
2.43863e-12
2.43147e-12
3.74258e-12
9.96059e-12
1.10565e-11
1.42022e-11
7.87297e-13
1.49624e-12
1.60751e-12
2.51891e-12
4.14786e-12
7.08713e-12
1.46996e-11
5.47278e-11
2.47195e-10
7.48001e-10
7.22571e-13
1.34408e-12
1.39321e-12
2.14769e-12
3.48453e-12
5.88243e-12
1.12396e-11
3.40346e-11
1.5013e-10
4.20736e-10
6.59824e-13
1.20163e-12
1.19942e-12
1.82264e-12
2.92154e-12
4.86276e-12
8.83919e-12
2.25218e-11
9.49592e-11
2.51776e-10
6.06437e-13
1.08004e-12
1.03849e-12
1.55978e-12
2.4641e-12
4.05145e-12
7.11378e-12
1.58529e-11
6.22501e-11
1.58188e-10
5.60373e-13
9.75844e-13
9.02884e-13
1.33807e-12
2.08985e-12
3.40539e-12
5.8142e-12
1.17482e-11
4.20134e-11
1.03363e-10
5.20921e-13
8.86878e-13
7.88953e-13
1.15701e-12
1.78925e-12
2.87631e-12
4.81575e-12
9.05992e-12
2.90676e-11
6.97747e-11
4.86887e-13
8.10148e-13
6.92534e-13
1.0048e-12
1.53505e-12
2.44188e-12
4.03955e-12
7.19845e-12
2.05464e-11
4.8374e-11
5.05115e-13
7.43732e-13
6.1164e-13
8.76009e-13
1.32547e-12
2.08951e-12
3.41576e-12
5.85532e-12
1.47982e-11
3.43106e-11
5.37033e-10
1.1402e-11
5.5154e-13
7.67502e-13
1.15136e-12
1.79828e-12
2.90674e-12
4.84686e-12
1.0845e-11
2.482e-11
1.9609e-07
1.90119e-08
7.21973e-11
9.2243e-13
9.93069e-13
1.54718e-12
2.47904e-12
4.05543e-12
8.06049e-12
1.82495e-11
1.06129e-12
1.85244e-12
1.62336e-12
2.17214e-12
3.02409e-12
4.38345e-12
6.91568e-12
1.33035e-11
5.12364e-11
1.5526e-10
9.88124e-13
1.69848e-12
1.45514e-12
1.93785e-12
2.67464e-12
3.81707e-12
5.78746e-12
1.03537e-11
3.63863e-11
9.56039e-11
9.17248e-13
1.55067e-12
1.29316e-12
1.7131e-12
2.34949e-12
3.32139e-12
4.89323e-12
8.09853e-12
2.59259e-11
6.22342e-11
8.55297e-13
1.42183e-12
1.15452e-12
1.51883e-12
2.07239e-12
2.90466e-12
4.20482e-12
6.54457e-12
1.8655e-11
4.22809e-11
8.01511e-13
1.30947e-12
1.03513e-12
1.352e-12
1.83745e-12
2.55649e-12
3.65516e-12
5.44517e-12
1.35713e-11
2.9634e-11
7.5458e-13
1.21108e-12
9.317e-13
1.20878e-12
1.63216e-12
2.25856e-12
3.20698e-12
4.63509e-12
9.98663e-12
2.12721e-11
7.13232e-13
1.12424e-12
8.42151e-13
1.08453e-12
1.45558e-12
2.00587e-12
2.82941e-12
4.00967e-12
7.41222e-12
1.55732e-11
7.39629e-13
1.04782e-12
7.64452e-13
9.76376e-13
1.30215e-12
1.78561e-12
2.50493e-12
3.50792e-12
5.54716e-12
1.15814e-11
7.92583e-10
2.02905e-11
7.13061e-13
8.81898e-13
1.16891e-12
1.59402e-12
2.22877e-12
3.09084e-12
4.18613e-12
8.71534e-12
2.4105e-07
3.35239e-08
1.77425e-10
1.41742e-12
1.03606e-12
1.42521e-12
1.98484e-12
2.73144e-12
3.16845e-12
6.61076e-12
1.47195e-12
2.34064e-12
1.63514e-12
1.90027e-12
2.28091e-12
2.82667e-12
3.79698e-12
5.91462e-12
1.51898e-11
2.56608e-11
1.39218e-12
2.19035e-12
1.51842e-12
1.76835e-12
2.12058e-12
2.60191e-12
3.36114e-12
4.84122e-12
1.18651e-11
1.94461e-11
1.31251e-12
2.04102e-12
1.39554e-12
1.62699e-12
1.95204e-12
2.38308e-12
3.00971e-12
4.06864e-12
9.09256e-12
1.48085e-11
1.24202e-12
1.90754e-12
1.28457e-12
1.49776e-12
1.79787e-12
2.19077e-12
2.73244e-12
3.52575e-12
6.952e-12
1.14052e-11
1.17966e-12
1.78795e-12
1.18491e-12
1.38033e-12
1.65826e-12
2.0189e-12
2.50339e-12
3.13145e-12
5.31265e-12
8.85506e-12
1.12425e-12
1.68029e-12
1.09554e-12
1.2746e-12
1.52983e-12
1.86321e-12
2.30259e-12
2.82958e-12
4.05503e-12
6.90777e-12
1.07487e-12
1.58358e-12
1.01542e-12
1.17876e-12
1.41303e-12
1.72125e-12
2.12794e-12
2.58344e-12
3.09368e-12
5.40398e-12
1.09966e-12
1.49641e-12
9.43239e-13
1.09196e-12
1.30692e-12
1.59179e-12
1.9689e-12
2.37773e-12
2.35582e-12
4.23967e-12
1.02247e-09
2.98029e-11
8.99762e-13
1.01281e-12
1.21012e-12
1.47312e-12
1.8233e-12
2.19718e-12
1.78808e-12
3.33223e-12
1.96024e-07
4.63751e-08
2.81151e-10
1.81807e-12
1.10152e-12
1.36257e-12
1.6846e-12
2.02961e-12
1.34245e-12
2.61046e-12
2.07451e-12
2.96586e-12
1.59309e-12
1.60259e-12
1.66413e-12
1.79883e-12
2.14449e-12
2.94902e-12
6.57476e-12
8.42545e-12
1.98991e-12
2.82886e-12
1.53412e-12
1.56063e-12
1.63063e-12
1.74511e-12
1.98856e-12
2.52477e-12
5.33644e-12
7.00677e-12
1.90491e-12
2.68798e-12
1.45817e-12
1.49791e-12
1.57723e-12
1.68492e-12
1.86991e-12
2.22092e-12
4.2213e-12
5.72879e-12
1.82807e-12
2.55804e-12
1.38405e-12
1.43284e-12
1.51952e-12
1.62737e-12
1.78268e-12
2.01753e-12
3.32174e-12
4.6828e-12
1.75855e-12
2.4381e-12
1.31274e-12
1.3684e-12
1.46077e-12
1.57058e-12
1.71173e-12
1.87979e-12
2.59615e-12
3.82653e-12
1.6957e-12
2.32758e-12
1.24549e-12
1.30473e-12
1.40054e-12
1.51385e-12
1.65155e-12
1.78001e-12
2.0111e-12
3.12252e-12
1.63862e-12
2.22592e-12
1.18216e-12
1.24295e-12
1.34014e-12
1.45617e-12
1.59448e-12
1.703e-12
1.53511e-12
2.5423e-12
1.65462e-12
2.13258e-12
1.12265e-12
1.18392e-12
1.28138e-12
1.39813e-12
1.53723e-12
1.63876e-12
1.15061e-12
2.0622e-12
1.23562e-09
3.82217e-11
1.09337e-12
1.12704e-12
1.22405e-12
1.34095e-12
1.48053e-12
1.58139e-12
8.41538e-13
1.66428e-12
6.1738e-08
5.29134e-08
6.37347e-10
1.32516e-12
1.14609e-12
1.28228e-12
1.42015e-12
1.52149e-12
5.82002e-13
1.33136e-12
2.89918e-12
3.68108e-12
1.42516e-12
1.214e-12
1.06716e-12
1.00325e-12
1.1356e-12
1.53453e-12
3.33387e-12
3.76935e-12
2.81541e-12
3.57227e-12
1.42539e-12
1.24814e-12
1.11978e-12
1.0365e-12
1.07815e-12
1.32444e-12
2.85716e-12
3.33558e-12
2.73058e-12
3.45587e-12
1.40348e-12
1.25738e-12
1.15088e-12
1.06645e-12
1.05488e-12
1.1781e-12
2.35342e-12
2.86163e-12
2.65225e-12
3.34424e-12
1.37383e-12
1.25438e-12
1.16897e-12
1.09281e-12
1.05549e-12
1.09199e-12
1.92135e-12
2.4505e-12
2.5798e-12
3.23834e-12
1.34068e-12
1.24373e-12
1.17708e-12
1.11302e-12
1.0667e-12
1.05051e-12
1.55076e-12
2.09374e-12
2.51289e-12
3.13774e-12
1.30446e-12
1.22654e-12
1.17694e-12
1.12663e-12
1.08231e-12
1.03629e-12
1.23219e-12
1.78346e-12
2.45117e-12
3.04288e-12
1.2667e-12
1.20484e-12
1.17051e-12
1.13382e-12
1.09704e-12
1.03693e-12
9.60049e-13
1.51398e-12
2.45963e-12
2.95381e-12
1.22861e-12
1.18054e-12
1.15859e-12
1.13458e-12
1.10785e-12
1.04499e-12
7.27562e-13
1.28154e-12
1.46844e-09
4.37557e-11
1.23118e-12
1.15374e-12
1.14298e-12
1.13024e-12
1.11348e-12
1.05521e-12
5.29721e-13
1.08174e-12
9.34274e-08
4.98213e-08
6.12775e-10
2.71049e-12
1.10792e-12
1.1191e-12
1.11266e-12
1.06109e-12
3.56407e-13
9.13744e-13
3.89659e-12
4.38177e-12
1.10366e-12
7.60826e-13
4.9511e-13
3.49738e-13
4.85718e-13
7.92931e-13
2.02018e-12
2.0472e-12
3.81962e-12
4.3137e-12
1.14893e-12
8.42699e-13
6.00333e-13
4.20354e-13
4.29711e-13
6.45646e-13
1.85457e-12
1.93256e-12
3.74287e-12
4.23865e-12
1.17165e-12
9.00707e-13
6.84393e-13
4.99695e-13
4.26018e-13
5.34466e-13
1.61371e-12
1.73784e-12
3.67025e-12
4.1624e-12
1.18294e-12
9.43449e-13
7.51049e-13
5.74325e-13
4.58543e-13
4.66679e-13
1.39892e-12
1.56206e-12
3.6015e-12
4.0871e-12
1.18582e-12
9.74134e-13
8.04468e-13
6.40542e-13
5.08299e-13
4.43204e-13
1.20731e-12
1.40307e-12
3.53749e-12
4.0131e-12
1.18194e-12
9.95781e-13
8.4747e-13
6.98506e-13
5.63381e-13
4.5459e-13
1.03813e-12
1.26055e-12
3.47694e-12
3.94075e-12
1.17324e-12
1.00995e-12
8.80509e-13
7.47368e-13
6.1748e-13
4.87248e-13
8.90613e-13
1.13392e-12
3.48174e-12
3.87181e-12
1.16112e-12
1.01782e-12
9.05711e-13
7.88072e-13
6.67311e-13
5.30325e-13
7.64028e-13
1.02199e-12
1.68303e-09
4.53694e-11
1.21773e-12
1.02092e-12
9.25278e-13
8.21721e-13
7.11103e-13
5.76644e-13
6.58145e-13
9.24657e-13
2.63524e-07
3.50636e-08
5.52597e-10
4.19468e-12
9.31775e-13
8.47154e-13
7.4853e-13
6.19194e-13
5.7329e-13
8.45222e-13
4.87416e-12
4.92845e-12
7.33066e-13
4.98173e-13
2.72174e-13
1.52086e-13
2.66698e-13
4.66532e-13
1.45569e-12
1.3067e-12
4.80758e-12
4.90514e-12
7.68474e-13
5.35982e-13
3.11077e-13
1.24628e-13
1.63456e-13
3.62573e-13
1.44548e-12
1.32431e-12
4.74359e-12
4.87762e-12
7.94272e-13
5.72414e-13
3.60547e-13
1.6243e-13
7.63873e-14
2.63298e-13
1.34017e-12
1.25011e-12
4.6814e-12
4.84503e-12
8.15e-13
6.05412e-13
4.10212e-13
2.20481e-13
4.54403e-14
1.7138e-13
1.24455e-12
1.18152e-12
4.62205e-12
4.80952e-12
8.31033e-13
6.35662e-13
4.57119e-13
2.8069e-13
1.08395e-13
8.92551e-14
1.15709e-12
1.11814e-12
4.56504e-12
4.77147e-12
8.43072e-13
6.61779e-13
4.99865e-13
3.37161e-13
1.76323e-13
3.50311e-14
1.07763e-12
1.06007e-12
4.5108e-12
4.7325e-12
8.5149e-13
6.84152e-13
5.37939e-13
3.89143e-13
2.39006e-13
7.65109e-14
1.00703e-12
1.00732e-12
4.51731e-12
4.69428e-12
8.56241e-13
7.02353e-13
5.71298e-13
4.35491e-13
2.9589e-13
1.39061e-13
9.4415e-13
9.59891e-13
1.84574e-09
4.35367e-11
9.8034e-13
7.17803e-13
6.00236e-13
4.76569e-13
3.47899e-13
1.98812e-13
8.89376e-13
9.17063e-13
4.17891e-07
1.6008e-08
3.42619e-10
3.47172e-12
6.2562e-13
5.1337e-13
3.94784e-13
2.54854e-13
8.42031e-13
8.88365e-13
5.50858e-12
5.21096e-12
5.39231e-13
6.0258e-13
5.10333e-13
4.40681e-13
4.0076e-13
4.13743e-13
1.22166e-12
9.95572e-13
5.44922e-12
5.217e-12
4.80315e-13
5.42355e-13
4.57509e-13
3.92994e-13
3.55148e-13
3.74871e-13
1.28478e-12
1.0708e-12
5.39453e-12
5.22252e-12
4.31589e-13
4.88728e-13
4.10298e-13
3.48304e-13
3.12129e-13
3.32944e-13
1.24306e-12
1.04835e-12
5.34109e-12
5.22176e-12
3.95742e-13
4.43475e-13
3.69945e-13
3.10416e-13
2.73691e-13
2.94374e-13
1.20325e-12
1.02609e-12
5.28908e-12
5.21608e-12
3.71883e-13
4.07355e-13
3.38688e-13
2.79751e-13
2.40662e-13
2.58826e-13
1.16538e-12
1.00534e-12
5.23933e-12
5.20712e-12
3.58255e-13
3.7904e-13
3.13609e-13
2.55227e-13
2.13437e-13
2.2778e-13
1.1296e-12
9.85419e-13
5.19125e-12
5.1951e-12
3.51707e-13
3.5726e-13
2.95644e-13
2.37997e-13
1.93364e-13
2.00116e-13
1.09538e-12
9.66977e-13
5.20124e-12
5.18255e-12
3.50284e-13
3.41042e-13
2.83219e-13
2.26692e-13
1.785e-13
1.77819e-13
1.06352e-12
9.48627e-13
1.93234e-09
4.08981e-11
5.93611e-13
3.29558e-13
2.75454e-13
2.21e-13
1.71458e-13
1.61051e-13
1.03233e-12
9.31346e-13
5.1306e-07
1.35242e-08
2.56212e-10
2.59981e-12
2.66073e-13
2.23065e-13
1.74765e-13
1.56973e-13
1.00393e-12
9.51184e-13
5.51364e-12
5.18182e-12
5.35478e-13
6.27674e-13
5.39992e-13
4.65991e-13
4.1238e-13
4.06113e-13
1.15404e-12
9.50519e-13
5.45417e-12
5.18991e-12
4.57286e-13
5.58426e-13
4.83321e-13
4.18494e-13
3.71825e-13
3.75312e-13
1.22677e-12
1.02941e-12
5.39974e-12
5.19848e-12
3.89362e-13
4.95122e-13
4.30115e-13
3.72745e-13
3.31847e-13
3.38789e-13
1.19281e-12
1.01034e-12
5.34664e-12
5.20034e-12
3.34756e-13
4.389e-13
3.82566e-13
3.31751e-13
2.95154e-13
3.05285e-13
1.16036e-12
9.91585e-13
5.29532e-12
5.19772e-12
2.94374e-13
3.918e-13
3.41998e-13
2.95574e-13
2.61982e-13
2.73832e-13
1.12921e-12
9.74148e-13
5.2461e-12
5.19113e-12
2.67466e-13
3.52098e-13
3.07669e-13
2.64884e-13
2.32838e-13
2.44757e-13
1.09951e-12
9.57538e-13
5.1986e-12
5.18169e-12
2.52169e-13
3.19318e-13
2.79165e-13
2.39081e-13
2.07886e-13
2.18686e-13
1.07099e-12
9.41978e-13
5.20885e-12
5.17113e-12
2.46612e-13
2.93049e-13
2.56462e-13
2.18362e-13
1.86528e-13
1.95368e-13
1.04402e-12
9.26829e-13
1.93234e-09
4.08975e-11
5.33661e-13
2.7241e-13
2.38546e-13
2.02704e-13
1.71086e-13
1.75807e-13
1.01758e-12
9.12266e-13
5.1306e-07
1.35242e-08
2.56191e-10
2.56958e-12
2.16737e-13
1.95542e-13
1.65629e-13
1.66533e-13
9.92936e-13
9.46267e-13
4.88104e-12
4.84847e-12
6.68287e-13
5.13292e-13
3.33433e-13
2.27658e-13
2.62075e-13
4.04446e-13
1.22241e-12
1.15793e-12
4.81625e-12
4.83351e-12
6.83224e-13
5.20367e-13
3.3605e-13
1.94408e-13
1.82367e-13
3.21118e-13
1.24496e-12
1.18726e-12
4.75444e-12
4.81487e-12
6.98434e-13
5.35294e-13
3.56551e-13
1.97621e-13
1.18576e-13
2.36686e-13
1.1679e-12
1.12523e-12
4.69438e-12
4.7907e-12
7.12951e-13
5.5334e-13
3.84981e-13
2.24749e-13
9.03157e-14
1.58245e-13
1.09778e-12
1.06819e-12
4.63708e-12
4.76344e-12
7.27038e-13
5.72967e-13
4.16987e-13
2.6358e-13
1.14843e-13
8.89756e-14
1.03375e-12
1.01622e-12
4.58196e-12
4.73326e-12
7.39131e-13
5.92579e-13
4.49619e-13
3.06045e-13
1.61819e-13
4.34867e-14
9.76413e-13
9.69422e-13
4.5293e-12
4.70142e-12
7.4901e-13
6.10765e-13
4.80734e-13
3.48029e-13
2.12638e-13
6.92071e-14
9.25143e-13
9.27281e-13
4.53739e-12
4.66936e-12
7.56524e-13
6.27132e-13
5.09556e-13
3.8741e-13
2.61462e-13
1.21265e-13
8.79973e-13
8.89643e-13
1.84574e-09
4.35366e-11
8.9106e-13
6.41419e-13
5.35654e-13
4.24199e-13
3.07571e-13
1.74058e-13
8.41131e-13
8.57103e-13
4.17891e-07
1.6008e-08
3.42578e-10
3.41694e-12
5.58577e-13
4.57778e-13
3.50328e-13
2.25292e-13
8.0782e-13
8.48454e-13
3.89969e-12
4.28024e-12
9.68644e-13
6.55176e-13
3.94832e-13
2.18051e-13
3.33174e-13
6.07886e-13
1.50647e-12
1.72278e-12
3.8286e-12
4.22852e-12
1.01798e-12
7.33552e-13
4.98379e-13
3.07166e-13
2.91881e-13
4.8928e-13
1.41577e-12
1.64073e-12
3.75776e-12
4.16816e-12
1.04851e-12
7.93947e-13
5.83693e-13
3.97286e-13
3.04671e-13
3.9715e-13
1.24077e-12
1.47774e-12
3.68926e-12
4.10538e-12
1.0679e-12
8.39964e-13
6.52775e-13
4.77506e-13
3.512e-13
3.44539e-13
1.08332e-12
1.33049e-12
3.62472e-12
4.04181e-12
1.07964e-12
8.76281e-13
7.09754e-13
5.47927e-13
4.108e-13
3.35208e-13
9.43001e-13
1.19808e-12
3.56351e-12
3.97836e-12
1.08446e-12
9.03205e-13
7.56305e-13
6.09438e-13
4.72868e-13
3.58157e-13
8.20052e-13
1.08001e-12
3.50571e-12
3.91573e-12
1.08431e-12
9.23104e-13
7.93692e-13
6.61667e-13
5.31287e-13
4.00236e-13
7.14016e-13
9.76342e-13
3.51263e-12
3.85519e-12
1.07949e-12
9.36883e-13
8.24091e-13
7.05968e-13
5.8493e-13
4.49481e-13
6.2588e-13
8.85499e-13
1.68304e-09
4.53719e-11
1.14348e-12
9.46225e-13
8.48071e-13
7.43331e-13
6.32254e-13
4.99909e-13
5.54759e-13
8.08188e-13
2.63524e-07
3.50636e-08
5.52568e-10
4.15123e-12
8.59965e-13
7.72739e-13
6.72779e-13
5.46137e-13
5.01685e-13
7.51315e-13
2.90478e-12
3.59008e-12
1.26469e-12
1.03673e-12
8.7638e-13
7.89247e-13
8.63927e-13
1.15269e-12
2.21533e-12
3.0151e-12
2.83054e-12
3.50348e-12
1.28654e-12
1.09012e-12
9.4665e-13
8.45705e-13
8.49186e-13
1.01855e-12
1.93207e-12
2.69159e-12
2.75304e-12
3.40565e-12
1.28428e-12
1.11815e-12
9.9533e-13
8.95432e-13
8.56965e-13
9.28414e-13
1.59335e-12
2.31149e-12
2.68021e-12
3.30993e-12
1.27267e-12
1.1321e-12
1.02918e-12
9.38032e-13
8.7968e-13
8.83601e-13
1.29546e-12
1.97937e-12
2.6122e-12
3.21711e-12
1.25433e-12
1.13697e-12
1.05207e-12
9.72775e-13
9.09694e-13
8.70524e-13
1.03796e-12
1.68958e-12
2.54853e-12
3.12771e-12
1.23165e-12
1.13383e-12
1.0659e-12
9.99878e-13
9.40319e-13
8.77368e-13
8.14738e-13
1.43721e-12
2.4894e-12
3.0419e-12
1.20594e-12
1.12525e-12
1.07194e-12
1.01855e-12
9.67141e-13
8.94419e-13
6.21321e-13
1.21877e-12
2.49917e-12
2.96094e-12
1.17804e-12
1.1119e-12
1.0722e-12
1.03108e-12
9.88484e-13
9.1569e-13
4.54126e-13
1.03084e-12
1.46845e-09
4.37605e-11
1.18804e-12
1.09565e-12
1.06709e-12
1.03745e-12
1.00499e-12
9.36713e-13
3.12624e-13
8.70552e-13
9.34274e-08
4.98213e-08
6.12756e-10
2.67512e-12
1.04275e-12
1.03664e-12
1.0139e-12
9.52451e-13
1.85839e-13
7.38116e-13
2.09374e-12
2.90681e-12
1.43726e-12
1.38505e-12
1.38653e-12
1.44582e-12
1.64611e-12
2.12208e-12
3.83062e-12
6.26869e-12
2.01853e-12
2.79439e-12
1.411e-12
1.38039e-12
1.39407e-12
1.4447e-12
1.58388e-12
1.89743e-12
3.17664e-12
5.27173e-12
1.93947e-12
2.67185e-12
1.36255e-12
1.35005e-12
1.37636e-12
1.42721e-12
1.53321e-12
1.73498e-12
2.53568e-12
4.32654e-12
1.86672e-12
2.55623e-12
1.31081e-12
1.31266e-12
1.3497e-12
1.40561e-12
1.49743e-12
1.62776e-12
2.00709e-12
3.54681e-12
1.80014e-12
2.4479e-12
1.258e-12
1.27135e-12
1.3178e-12
1.37975e-12
1.46816e-12
1.55731e-12
1.57473e-12
2.90362e-12
1.73873e-12