/*--------------------------------*- C++ -*----------------------------------*\
| =========                 |                                                 |
| \\      /  F ield         | OpenFOAM: The Open Source CFD Toolbox           |
|  \\    /   O peration     | Version:  4.1                                   |
|   \\  /    A nd           | Web:      www.OpenFOAM.org                      |
|    \\/     M anipulation  |                                                 |
\*---------------------------------------------------------------------------*/
FoamFile
{
    version     2.0;
    format      ascii;
    class       surfaceScalarField;
    location    "0.48";
    object      phi;
}
// * * * * * * * * * * * * * * * * * * * * * * * * * * * * * * * * * * * * * //

dimensions      [1 0 -1 0 0 0 0];

internalField   nonuniform List<scalar> 
51500
(
3.6675e-13
1.38634e-14
1.48421e-11
-1.57211e-15
1.96829e-14
1.46728e-11
-2.52726e-15
1.85703e-14
1.45051e-11
-2.49487e-15
1.73521e-14
1.43398e-11
-2.42511e-15
1.6082e-14
1.41762e-11
-2.38411e-15
1.47737e-14
1.40148e-11
-2.43243e-15
1.34626e-14
1.38552e-11
-2.39312e-15
1.2159e-14
1.36986e-11
-2.38528e-15
1.08385e-14
1.3544e-11
9.51895e-15
1.33938e-11
-7.30752e-17
3.70393e-13
9.41341e-15
1.8617e-11
-1.03555e-14
9.66615e-15
1.7955e-11
-9.32939e-15
8.24815e-15
1.73173e-11
-9.13821e-15
6.92928e-15
1.6707e-11
-8.88083e-15
5.89216e-15
1.61227e-11
-8.58368e-15
5.10072e-15
1.55634e-11
-8.34531e-15
4.24726e-15
1.50269e-11
-8.12822e-15
3.01573e-15
1.45133e-11
-7.82205e-15
1.85993e-15
1.40201e-11
7.85942e-16
1.35546e-11
-7.92118e-16
3.70781e-13
9.78576e-15
2.3642e-11
-2.22878e-14
1.13815e-14
2.21883e-11
-1.84173e-14
9.41268e-15
2.08329e-11
-1.75219e-14
7.65676e-15
1.95766e-11
-1.66168e-14
6.08845e-15
1.84108e-11
-1.58904e-14
4.68433e-15
1.73287e-11
-1.50927e-14
3.44147e-15
1.63246e-11
-1.44516e-14
2.32487e-15
1.53898e-11
-1.36494e-14
1.34e-15
1.452e-11
4.98762e-16
1.37186e-11
-1.48015e-15
3.65877e-13
1.27638e-14
3.04286e-11
-3.88711e-14
1.39045e-14
2.77056e-11
-3.02548e-14
1.12009e-14
2.5264e-11
-2.8131e-14
8.85867e-15
2.3072e-11
-2.61384e-14
6.87067e-15
2.11094e-11
-2.43456e-14
5.17087e-15
1.93475e-11
-2.27087e-14
3.71766e-15
1.77618e-11
-2.12324e-14
2.46123e-15
1.63323e-11
-1.96346e-14
1.38558e-15
1.50412e-11
4.863e-16
1.38854e-11
-2.24885e-15
3.51197e-13
1.69911e-14
3.97443e-11
-6.16042e-14
1.72694e-14
3.49898e-11
-4.60621e-14
1.34564e-14
3.08973e-11
-4.15965e-14
1.03348e-14
2.7361e-11
-3.76799e-14
7.7984e-15
2.43084e-11
-3.42463e-14
5.72709e-15
2.16612e-11
-3.12949e-14
4.01478e-15
1.9358e-11
-2.8643e-14
2.60545e-15
1.73477e-11
-2.59714e-14
1.44171e-15
1.55864e-11
5.09136e-16
1.40558e-11
-3.0195e-15
3.19638e-13
2.3155e-14
5.27582e-11
-1.14253e-13
2.18474e-14
4.47404e-11
-6.71505e-14
1.63964e-14
3.81374e-11
-5.8799e-14
1.21596e-14
3.2663e-11
-5.17718e-14
8.90142e-15
2.81191e-11
-4.59242e-14
6.35143e-15
2.43226e-11
-4.09469e-14
4.34856e-15
2.11339e-11
-3.66735e-14
2.75853e-15
1.84419e-11
-3.25864e-14
1.49828e-15
1.61563e-11
5.10239e-16
1.42286e-11
-3.87147e-15
2.56261e-13
3.99445e-14
7.12781e-11
-1.84691e-13
3.52119e-14
5.79973e-11
-9.58273e-14
2.53573e-14
4.75436e-11
-8.09478e-14
1.81619e-14
3.9271e-11
-6.91488e-14
1.29151e-14
3.26847e-11
-5.96173e-14
9.01482e-15
2.73947e-11
-5.18588e-14
6.07402e-15
2.31131e-11
-4.54017e-14
3.84415e-15
1.96216e-11
-3.95964e-14
2.12809e-15
1.67528e-11
7.99852e-16
1.44046e-11
-4.71888e-15
1.75531e-13
-1.8134e-13
9.82288e-11
-2.7384e-13
-2.02897e-13
7.62982e-11
-1.34701e-13
-2.17035e-13
5.99103e-11
-1.09354e-13
-2.26195e-13
4.75732e-11
-9.02614e-14
-2.32303e-13
3.81854e-11
-7.55176e-14
-2.36369e-13
3.0956e-11
-6.39014e-14
-2.39065e-13
2.53267e-11
-5.46398e-14
-2.40847e-13
2.08985e-11
-4.65566e-14
-2.42013e-13
1.73793e-11
-2.45536e-13
1.45873e-11
-5.6411e-15
2.51388e-12
-6.26243e-10
1.56241e-10
1.96185e-12
-6.62329e-10
1.17168e-10
1.77402e-12
-6.65326e-10
9.06894e-11
1.60791e-12
-6.67469e-10
7.18108e-11
1.46076e-12
-6.69119e-10
5.81839e-11
1.33087e-12
-6.70399e-10
4.81986e-11
1.21619e-12
-6.71397e-10
4.07889e-11
1.11482e-12
-6.72178e-10
3.52289e-11
1.01416e-12
-6.72819e-10
3.10127e-11
-6.83304e-10
2.79705e-11
-6.59238e-15
-1.83637e-10
1.12804e-07
-8.65545e-07
2.5171e-10
9.52178e-08
-9.37413e-07
2.57673e-10
8.30099e-08
-9.39273e-07
2.49099e-10
7.29485e-08
-9.40725e-07
2.40311e-10
6.4564e-08
-9.41984e-07
2.31592e-10
5.75139e-08
-9.43089e-07
2.23103e-10
5.15362e-08
-9.4407e-07
2.13368e-10
4.64284e-08
-9.4495e-07
1.21387e-10
4.20355e-08
-9.45792e-07
3.87883e-08
-7.61435e-15
-9.74997e-07
3.42722e-13
9.08907e-14
4.85108e-13
-1.92505e-14
8.56345e-14
4.76813e-13
-2.56472e-14
7.54377e-14
4.68909e-13
-2.49498e-14
6.55705e-14
4.59678e-13
-2.45728e-14
5.60368e-14
4.51471e-13
-2.44139e-14
4.68133e-14
4.44034e-13
-2.4209e-14
3.79016e-14
4.35623e-13
-2.40432e-14
2.92984e-14
4.28278e-13
-2.6071e-14
2.09426e-14
4.20931e-13
1.29874e-14
4.13226e-13
-1.59399e-15
2.8438e-13
8.57166e-14
6.75211e-13
-7.22093e-14
7.78598e-14
6.40565e-13
-8.65605e-14
6.59296e-14
6.08344e-13
-8.36078e-14
5.45348e-14
5.76006e-13
-8.12339e-14
4.35822e-14
5.46392e-13
-7.90338e-14
3.20774e-14
5.17826e-13
-7.67172e-14
2.13302e-14
4.91834e-13
-7.53244e-14
1.39425e-14
4.66809e-13
-7.9586e-14
7.73018e-15
4.44269e-13
2.5767e-15
4.21371e-13
-4.31968e-15
1.97125e-13
1.08309e-13
9.55023e-13
-1.82646e-13
9.63537e-14
8.70205e-13
-1.64908e-13
8.04974e-14
7.97647e-13
-1.56429e-13
6.5963e-14
7.26523e-13
-1.48925e-13
5.28552e-14
6.64041e-13
-1.41967e-13
4.10079e-14
6.07745e-13
-1.35515e-13
3.02836e-14
5.56744e-13
-1.29946e-13
2.06317e-14
5.10701e-13
-1.35729e-13
1.19543e-14
4.68787e-13
4.22839e-15
4.30957e-13
-6.95212e-15
7.40527e-14
1.33226e-13
1.37762e-12
-3.15508e-13
1.15167e-13
1.20392e-12
-2.6592e-13
9.39668e-14
1.05882e-12
-2.46463e-13
7.52808e-14
9.26652e-13
-2.29818e-13
5.89973e-14
8.13818e-13
-2.1478e-13
4.47842e-14
7.16586e-13
-2.00846e-13
3.24412e-14
6.33196e-13
-1.8875e-13
2.16895e-14
5.61325e-13
-1.93554e-13
1.23174e-14
4.96852e-13
4.25704e-15
4.40233e-13
-9.88424e-15
-5.20221e-14
1.65742e-13
2.03125e-12
-4.84446e-13
1.38963e-13
1.69639e-12
-3.95571e-13
1.10518e-13
1.42566e-12
-3.57995e-13
8.6354e-14
1.19383e-12
-3.26566e-13
6.607e-14
1.00537e-12
-2.9839e-13
4.90602e-14
8.50967e-13
-2.7338e-13
3.47561e-14
7.23078e-13
-2.52054e-13
2.27658e-14
6.16887e-13
-2.53592e-13
1.26782e-14
5.27725e-13
4.31163e-15
4.51196e-13
-1.30601e-14
-1.97176e-13
2.08425e-13
3.07132e-12
-7.05556e-13
1.69701e-13
2.43198e-12
-5.62453e-13
1.31021e-13
1.94599e-12
-4.96332e-13
9.9667e-14
1.55298e-12
-4.41836e-13
7.43313e-14
1.25117e-12
-3.94791e-13
5.38285e-14
1.0151e-12
-3.53872e-13
3.72893e-14
8.29507e-13
-3.19875e-13
2.38904e-14
6.81875e-13
-3.15897e-13
1.30837e-14
5.63283e-13
4.33054e-15
4.63819e-13
-1.60516e-14
-6.33883e-13
2.62705e-13
4.76601e-12
-1.00074e-12
2.11685e-13
3.56154e-12
-7.77284e-13
1.58827e-13
2.69488e-12
-6.67863e-13
1.17738e-13
2.0409e-12
-5.79677e-13
8.59038e-14
1.56814e-12
-5.05479e-13
6.12021e-14
1.21745e-12
-4.4329e-13
4.19131e-14
9.54441e-13
-3.92089e-13
2.68245e-14
7.55749e-13
-3.80724e-13
1.4854e-14
6.00612e-13
5.1957e-15
4.77981e-13
-1.91023e-14
-1.16023e-12
3.20278e-13
7.61884e-12
-1.3977e-12
2.30134e-13
5.33428e-12
-1.05488e-12
1.63243e-13
3.79323e-12
-8.80451e-13
1.14592e-13
2.71713e-12
-7.43587e-13
7.89315e-14
1.98347e-12
-6.32822e-13
5.24533e-14
1.46876e-12
-5.42039e-13
3.26138e-14
1.10405e-12
-4.69662e-13
1.76132e-14
8.39186e-13
-4.47613e-13
6.18947e-15
6.43459e-13
-2.49447e-15
4.92805e-13
-2.22823e-14
-1.9875e-12
9.65609e-12
1.37388e-11
-1.78026e-12
-1.82114e-11
7.44685e-12
-1.07314e-12
-1.68886e-11
4.96703e-12
-8.95228e-13
-1.58122e-11
3.41168e-12
-7.9715e-13
-1.50506e-11
2.43841e-12
-7.25387e-13
-1.45216e-11
1.80998e-12
-6.36279e-13
-1.41669e-11
1.39447e-12
-5.60744e-13
-1.39441e-11
1.11355e-12
-5.54115e-13
-1.38225e-11
9.16498e-13
-1.3835e-11
7.69657e-13
-2.55098e-14
-6.64129e-10
8.58554e-09
6.64738e-08
-2.54396e-10
4.06551e-09
-1.39832e-09
-2.59982e-10
3.03694e-09
-1.51927e-09
-2.50139e-10
2.32249e-09
-1.49252e-09
-2.4047e-10
1.80586e-09
-1.46119e-09
-2.31132e-10
1.42519e-09
-1.42882e-09
-2.22204e-10
1.14007e-09
-1.39708e-09
-2.13739e-10
9.2332e-10
-1.36699e-09
-2.07537e-10
7.56381e-10
-1.34224e-09
6.2907e-10
-2.89085e-14
-1.48952e-09
3.4562e-13
8.19739e-14
1.73313e-14
-1.71757e-14
7.78197e-14
1.56185e-14
-2.19862e-14
6.86529e-14
1.4287e-14
-2.01631e-14
5.98067e-14
1.28108e-14
-1.86243e-14
5.12553e-14
1.12475e-14
-2.00718e-14
4.29381e-14
9.16796e-15
-1.89232e-14
3.49656e-14
8.39459e-15
-1.93043e-14
2.72265e-14
7.5198e-15
-2.34537e-14
1.97449e-14
6.69762e-15
1.26111e-14
6.66876e-15
-1.35352e-15
2.94307e-13
5.91197e-14
2.78396e-14
-6.5274e-14
5.42895e-14
2.48889e-14
-7.14395e-14
4.60163e-14
2.43425e-14
-6.6601e-14
3.813e-14
2.0182e-14
-6.53438e-14
3.07879e-14
1.72508e-14
-6.24531e-14
2.40151e-14
1.53916e-14
-6.10161e-14
1.77354e-14
1.22918e-14
-6.0431e-14
1.2008e-14
1.04963e-14
-7.13264e-14
6.84258e-15
9.80437e-15
2.4011e-15
8.39042e-15
-4.41726e-15
2.15921e-13
7.55711e-14
4.18555e-14
-1.65592e-13
6.82508e-14
3.80451e-14
-1.35531e-13
5.74112e-14
3.72518e-14
-1.24389e-13
4.7476e-14
3.20298e-14
-1.18057e-13
3.84454e-14
2.67942e-14
-1.12227e-13
3.01808e-14
2.18667e-14
-1.06535e-13
2.28673e-14
1.88237e-14
-1.0456e-13
1.63478e-14
1.63437e-14
-1.21258e-13
9.50734e-15
1.39031e-14
3.34143e-15
1.14478e-14
-7.23531e-15
9.4533e-14
9.3925e-14
6.73474e-14
-2.89265e-13
8.22257e-14
6.31182e-14
-2.17328e-13
6.74767e-14
6.02134e-14
-1.93236e-13
5.44871e-14
4.95065e-14
-1.79856e-13
4.31791e-14
4.12484e-14
-1.67347e-13
3.3365e-14
3.45762e-14
-1.50942e-13
2.51362e-14
2.90799e-14
-1.51613e-13
1.69908e-14
2.45445e-14
-1.73143e-13
9.75527e-15
2.20018e-14
3.46096e-15
1.61982e-14
-1.0365e-14
-2.31657e-14
1.18433e-13
1.15435e-13
-4.46253e-13
9.99282e-14
1.05914e-13
-3.20631e-13
7.99052e-14
9.73677e-14
-2.67536e-13
6.28314e-14
7.93703e-14
-2.4369e-13
4.85762e-14
6.42342e-14
-2.21873e-13
3.66623e-14
5.25053e-14
-2.01925e-13
2.73822e-14
4.40635e-14
-1.99924e-13
1.82693e-14
3.79026e-14
-2.26918e-13
1.03319e-14
3.24997e-14
3.56866e-15
2.30396e-14
-1.32058e-14
-1.59415e-13
1.51222e-13
2.01365e-13
-6.51754e-13
1.23493e-13
1.83335e-13
-4.30453e-13
9.54814e-14
1.58351e-13
-3.65378e-13
7.29423e-14
1.24899e-13
-3.24787e-13
5.49156e-14
9.9287e-14
-2.88672e-13
4.03548e-14
7.98149e-14
-2.57508e-13
2.89634e-14
6.55857e-14
-2.41884e-13
1.91561e-14
5.48737e-14
-2.82903e-13
1.04282e-14
4.44577e-14
3.5874e-15
3.12882e-14
-1.64896e-14
-5.73322e-13
1.9379e-13
3.55926e-13
-9.27768e-13
1.53852e-13
3.14116e-13
-5.80308e-13
1.1499e-13
2.5557e-13
-4.87488e-13
8.52325e-14
1.95226e-13
-4.2197e-13
6.23672e-14
1.50496e-13
-3.65934e-13
4.47563e-14
1.18022e-13
-3.18687e-13
3.21e-14
9.47942e-14
-2.8833e-13
2.0269e-14
7.66281e-14
-3.40733e-13
1.10328e-14
6.27923e-14
3.79168e-15
4.14563e-14
-1.96828e-14
-1.10108e-12
3.12923e-13
6.43943e-13
-1.30044e-12
2.22138e-13
5.37232e-13
-7.80485e-13
1.56183e-13
4.11776e-13
-6.40333e-13
1.09321e-13
2.9957e-13
-5.38035e-13
7.57645e-14
2.23465e-13
-4.54355e-13
5.14234e-14
1.70752e-13
-3.87371e-13
3.35728e-14
1.31857e-13
-3.38916e-13
2.04207e-14
1.04232e-13
-4.00881e-13
1.06401e-14
8.42379e-14
3.43662e-15
5.31416e-14
-2.30022e-14
-2.04633e-12
2.9181e-11
3.5048e-12
-1.78511e-12
1.06456e-12
8.6323e-13
-1.04335e-12
5.97137e-13
6.08927e-13
-8.31161e-13
3.75223e-13
4.29099e-13
-6.77372e-13
2.14857e-13
3.11596e-13
-5.58045e-13
9.85022e-14
2.32135e-13
-4.64302e-13
1.39107e-14
1.77316e-13
-3.96533e-13
-4.76338e-14
1.38203e-13
-4.66137e-13
-9.23601e-14
1.09954e-13
-1.22612e-13
7.13845e-14
-2.63606e-14
-3.75177e-10
3.98104e-09
6.02499e-08
-2.26681e-11
1.45681e-10
9.01952e-11
-2.27985e-11
7.24541e-11
-2.44817e-11
-1.89799e-11
4.77109e-11
-1.82208e-11
-1.5882e-11
3.24176e-11
-1.21077e-11
-1.34143e-11
2.25842e-11
-8.31303e-12
-1.14281e-11
1.60879e-11
-6.22753e-12
-9.81666e-12
1.16915e-11
-4.57896e-12
-8.4884e-12
8.65358e-12
-3.29709e-12
6.41054e-12
-2.98973e-14
-9.81953e-13
3.45705e-13
8.11623e-14
1.04993e-14
-1.71886e-14
7.71175e-14
9.50714e-15
-2.16732e-14
6.80642e-14
7.84178e-15
-1.97019e-14
5.9286e-14
6.20251e-15
-1.91631e-14
5.08299e-14
4.24653e-15
-1.93315e-14
4.26474e-14
3.43195e-15
-1.82516e-14
3.47183e-14
2.13931e-15
-1.91391e-14
2.70565e-14
1.1562e-15
-2.31317e-14
1.96772e-14
5.63073e-16
1.2606e-14
3.37706e-16
-1.50943e-15
2.95189e-13
5.81582e-14
1.78767e-14
-6.47058e-14
5.34703e-14
1.56192e-14
-7.0446e-14
4.53279e-14
1.60736e-14
-6.44102e-14
3.76341e-14
1.26829e-14
-6.25368e-14
3.04025e-14
9.11879e-15
-6.15797e-14
2.36857e-14
6.6625e-15
-5.89888e-14
1.75495e-14
5.48232e-15
-5.85224e-14
1.19128e-14
4.20256e-15
-7.06147e-14
6.79151e-15
2.90805e-15
2.41256e-15
1.72873e-15
-4.34722e-15
2.18103e-13
7.39745e-14
2.57957e-14
-1.63795e-13
6.68799e-14
2.43144e-14
-1.31797e-13
5.61805e-14
2.59435e-14
-1.16515e-13
4.6271e-14
1.96915e-14
-1.13465e-13
3.73796e-14
1.63852e-14
-1.03574e-13
2.93349e-14
1.37634e-14
-9.8743e-14
2.18227e-14
1.06193e-14
-1.02442e-13
1.50391e-14
8.80428e-15
-1.19913e-13
9.39567e-15
7.52299e-15
3.11963e-15
5.43308e-15
-7.16094e-15
9.74228e-14
9.19377e-14
4.25937e-14
-2.8616e-13
8.04497e-14
4.26808e-14
-2.10692e-13
6.59645e-14
4.50893e-14
-1.79134e-13
5.32337e-14
3.675e-14
-1.67024e-13
4.20078e-14
3.01373e-14
-1.55554e-13
3.21538e-14
2.53187e-14
-1.44493e-13
2.35631e-14
2.09272e-14
-1.46203e-13
1.60156e-14
1.79335e-14
-1.71484e-13
9.53092e-15
1.4966e-14
3.51411e-15
1.01603e-14
-1.04612e-14
-1.85047e-14
1.15817e-13
7.49086e-14
-4.41041e-13
9.78505e-14
7.85879e-14
-2.94791e-13
7.81333e-14
7.71933e-14
-2.58169e-13
6.13133e-14
6.21031e-14
-2.3489e-13
4.73003e-14
5.21353e-14
-2.1375e-13
3.54889e-14
4.29881e-14
-1.9481e-13
2.55258e-14
3.58391e-14
-1.8732e-13
1.72925e-14
3.11242e-14
-2.24785e-13
9.7838e-15
2.77241e-14
3.57516e-15
1.81793e-14
-1.33196e-14
-1.52651e-13
1.47762e-13
1.33181e-13
-6.43683e-13
1.20777e-13
1.38546e-13
-4.11452e-13
9.33034e-14
1.31125e-13
-3.54837e-13
7.12449e-14
1.05367e-13
-3.15465e-13
5.34867e-14
8.57417e-14
-2.80436e-13
3.90666e-14
7.10681e-14
-2.50127e-13
2.74162e-14
5.92509e-14
-2.32627e-13
1.79821e-14
4.93803e-14
-2.80044e-13
1.04799e-14
4.34291e-14
3.66245e-15
2.81068e-14
-1.66599e-14
-5.57448e-13
1.89656e-13
2.37702e-13
-9.15108e-13
1.50529e-13
2.47676e-13
-5.6233e-13
1.12532e-13
2.17258e-13
-4.7524e-13
8.32565e-14
1.71138e-13
-4.1143e-13
6.07784e-14
1.36191e-13
-3.56824e-13
4.33819e-14
1.10719e-13
-3.11601e-13
2.96899e-14
8.95109e-14
-2.79796e-13
1.89616e-14
7.50608e-14
-3.37874e-13
1.08676e-14
6.34239e-14
3.49979e-15
4.09285e-14
-1.98546e-14
-1.07686e-12
3.08153e-13
4.2769e-13
-1.27991e-12
1.75113e-13
4.32248e-13
-7.60424e-13
1.56255e-13
3.56138e-13
-6.25287e-13
1.17885e-13
2.7238e-13
-5.25663e-13
8.35638e-14
2.10528e-13
-4.44929e-13
5.77069e-14
1.65209e-13
-3.79478e-13
3.83985e-14
1.32416e-13
-3.30749e-13
2.39542e-14
1.07693e-13
-3.98056e-13
1.30241e-14
8.80243e-14
4.8813e-15
5.77598e-14
-2.29706e-14
-2.01411e-12
2.93682e-11
5.00438e-12
-1.7523e-12
4.79115e-13
7.78027e-13
-1.02034e-12
2.16069e-13
5.82025e-13
-8.13453e-13
1.42959e-13
4.27781e-13
-6.62992e-13
9.41684e-14
3.18231e-13
-5.4597e-13
6.07975e-14
2.43e-13
-4.54192e-13
3.77166e-14
1.87615e-13
-3.86643e-13
2.1577e-14
1.48445e-13
-4.60006e-13
1.02008e-14
1.17385e-13
2.24312e-15
7.21337e-14
-2.65035e-14
-3.50162e-10
5.80479e-09
5.99025e-08
-3.99316e-12
4.3427e-11
1.26763e-10
-1.70352e-12
2.42837e-12
7.07354e-13
-1.71437e-12
1.41958e-12
4.60974e-13
-1.33881e-12
9.31175e-13
2.58893e-13
-1.05322e-12
6.36019e-13
2.42524e-13
-8.40539e-13
4.48123e-13
2.32612e-13
-6.86928e-13
3.2485e-13
2.28234e-13
-6.45111e-13
2.40043e-13
2.02356e-13
1.50179e-13
-3.00883e-14
2.2296e-13
3.45592e-13
8.12695e-14
1.82654e-14
-1.75349e-14
7.71956e-14
1.57258e-14
-2.16684e-14
6.81594e-14
1.32311e-14
-2.04314e-14
5.93633e-14
7.82784e-15
-1.74668e-14
5.08861e-14
8.18012e-15
-1.97852e-14
4.26672e-14
3.69308e-15
-1.9057e-14
3.47711e-14
4.79525e-15
-1.88242e-14
2.71271e-14
3.82166e-15
-2.31531e-14
1.9717e-14
8.85463e-16
1.26408e-14
3.37968e-16
-1.72757e-15
2.94899e-13
5.8277e-14
2.87885e-14
-6.49427e-14
5.35889e-14
2.645e-14
-7.06065e-14
4.54124e-14
2.04923e-14
-6.53809e-14
3.76606e-14
1.71862e-14
-6.28889e-14
3.04742e-14
1.1594e-14
-6.08604e-14
2.37775e-14
9.38516e-15
-5.89991e-14
1.75918e-14
6.4475e-15
-5.90454e-14
1.19512e-14
7.33681e-15
-7.06818e-14
6.84417e-15
6.21613e-15
2.46748e-15
1.77142e-15
-4.34808e-15
2.17691e-13
7.41562e-14
4.25502e-14
-1.64394e-13
6.70341e-14
3.75231e-14
-1.3309e-13
5.63421e-14
3.64771e-14
-1.14845e-13
4.65035e-14
3.32768e-14
-1.11118e-13
3.74985e-14
2.39732e-14
-1.05167e-13
2.94167e-14
1.74263e-14
-9.83955e-14
2.19974e-14
1.74096e-14
-1.02652e-13
1.52072e-14
1.23588e-14
-1.19876e-13
9.2843e-15
1.37853e-14
3.06885e-15
6.38572e-15
-7.43459e-15
9.69793e-14
9.22686e-14
6.81624e-14
-2.86942e-13
8.07871e-14
6.33694e-14
-2.11555e-13
6.61892e-14
6.32635e-14
-1.79559e-13
5.33627e-14
5.10918e-14
-1.66934e-13
4.21915e-14
4.18207e-14
-1.56159e-13
3.2248e-14
3.38135e-14
-1.44385e-13
2.35954e-14
3.32364e-14
-1.47024e-13
1.61123e-14
2.51672e-14
-1.71619e-13
9.91682e-15
2.52667e-14
3.72456e-15
1.96151e-14
-1.01967e-14
-1.92618e-14
1.16328e-13
1.08968e-13
-4.42533e-13
9.82395e-14
1.10958e-13
-2.96321e-13
7.85281e-14
1.10271e-13
-2.58119e-13
6.16749e-14
9.285e-14
-2.35742e-13
4.75514e-14
7.43696e-14
-2.14357e-13
3.57774e-14
6.68477e-14
-1.94921e-13
2.58523e-14
5.71291e-14
-1.8636e-13
1.7279e-14
4.50058e-14
-2.25231e-13
9.55001e-15
3.72399e-14
3.66978e-15
2.47498e-14
-1.3348e-14
-1.54104e-13
1.48569e-13
1.93386e-13
-6.45819e-13
1.21521e-13
2.03523e-13
-4.13083e-13
9.38582e-14
1.83144e-13
-3.55923e-13
7.16965e-14
1.4966e-13
-3.16185e-13
5.38756e-14
1.21738e-13
-2.81262e-13
3.93868e-14
1.02477e-13
-2.50984e-13
2.75926e-14
8.09563e-14
-2.32392e-13
1.83025e-14
7.65642e-14
-2.80779e-13
1.0746e-14
6.12552e-14
3.82741e-15
3.90542e-14
-1.6582e-14
-5.61334e-13
1.90922e-13
3.41615e-13
-9.1909e-13
1.51572e-13
3.52188e-13
-5.64518e-13
1.13365e-13
3.1333e-13
-4.77121e-13
8.39261e-14
2.40697e-13
-4.1277e-13
6.13212e-14
1.95988e-13
-3.58429e-13
4.37752e-14
1.54185e-13
-3.12459e-13
3.01111e-14
1.27944e-13
-2.80552e-13
1.91953e-14
1.05409e-13
-3.39052e-13
1.11128e-14
8.70795e-14
4.0247e-15
5.5794e-14
-1.98461e-14
-1.08445e-12
3.10841e-13
6.08675e-13
-1.28648e-12
1.76496e-13
6.19813e-13
-7.64098e-13
1.39369e-13
5.0612e-13
-6.28429e-13
1.00328e-13
3.83282e-13
-5.28222e-13
7.17695e-14
2.99239e-13
-4.46982e-13
5.33791e-14
2.35795e-13
-3.8119e-13
3.63896e-14
1.86342e-13
-3.32329e-13
2.29927e-14
1.52068e-13
-3.99659e-13
1.25903e-14
1.23983e-13
4.81709e-15
7.83937e-14
-2.31471e-14
-2.03236e-12
3.01216e-11
7.20708e-12
-1.7629e-12
4.48019e-13
1.10909e-12
-1.02668e-12
1.59396e-13
8.1888e-13
-8.18777e-13
1.65714e-13
5.9584e-13
-6.6693e-13
1.08549e-13
4.48952e-13
-5.49439e-13
6.80499e-14
3.39664e-13
-4.5667e-13
3.21151e-14
2.62093e-13
-3.89034e-13
1.70272e-14
2.08005e-13
-4.62596e-13
8.59365e-15
1.67555e-13
3.27596e-15
1.08983e-13
-2.65595e-14
-3.60721e-10
8.89552e-09
6.25684e-08
-3.36504e-12
5.9476e-11
1.36348e-10
-1.28146e-12
1.31888e-12
4.45917e-13
-1.06417e-12
7.85039e-13
1.33679e-13
-8.38815e-13
5.59562e-13
8.00851e-14
-6.70114e-13
4.1037e-13
5.66782e-14
-5.42812e-13
3.08242e-13
4.3069e-14
-4.50258e-13
2.36087e-13
3.36275e-14
-5.2905e-13
1.8319e-13
2.67136e-14
1.12044e-13
-3.01651e-14
2.18692e-14
3.45285e-13
8.1431e-14
2.14152e-14
-1.78657e-14
7.73425e-14
1.51243e-14
-2.22894e-14
6.8242e-14
1.77267e-14
-1.99108e-14
5.94691e-14
1.31096e-14
-1.96316e-14
5.09369e-14
7.61502e-15
-1.91762e-14
4.27335e-14
4.79276e-15
-1.89104e-14
3.48011e-14
2.2784e-15
-1.95676e-14
2.7165e-14
1.18645e-15
-2.31742e-14
1.97835e-14
9.25646e-16
1.26707e-14
1.01972e-15
-1.54846e-15
2.94485e-13
5.84618e-14
3.61452e-14
-6.55544e-14
5.37505e-14
3.2998e-14
-7.0245e-14
4.558e-14
3.17895e-14
-6.66611e-14
3.77836e-14
2.1425e-14
-6.21455e-14
3.0602e-14
2.13234e-14
-6.16232e-14
2.38601e-14
1.37557e-14
-5.76644e-14
1.76827e-14
9.08725e-15
-5.89328e-14
1.20152e-14
5.30057e-15
-7.09796e-14
6.90934e-15
4.51076e-15
2.52827e-15
3.43143e-15
-4.3509e-15
2.17e-13
7.44735e-14
4.679e-14
-1.65374e-13
6.7292e-14
4.94705e-14
-1.3336e-13
5.65511e-14
5.16347e-14
-1.15434e-13
4.66598e-14
4.19382e-14
-1.1351e-13
3.76115e-14
3.04554e-14
-1.04154e-13
2.95251e-14
2.5623e-14
-9.92844e-14
2.21385e-14
1.78918e-14
-1.02099e-13
1.53648e-14
1.90638e-14
-1.20189e-13
9.36243e-15
1.22887e-14
3.4873e-15
8.43649e-15
-7.43004e-15
9.61568e-14
9.27442e-14
8.81027e-14
-2.88256e-13
8.12111e-14
8.64018e-14
-2.12391e-13
6.65624e-14
8.87872e-14
-1.80161e-13
5.37075e-14
7.38771e-14
-1.67862e-13
4.25092e-14
5.72095e-14
-1.5569e-13
3.25728e-14
4.33668e-14
-1.45253e-13
2.38104e-14
3.49877e-14
-1.47042e-13
1.62854e-14
3.5177e-14
-1.71804e-13
9.96919e-15
2.7571e-14
3.61241e-15
1.58085e-14
-1.03212e-14
-2.06445e-14
1.17119e-13
1.53837e-13
-4.44549e-13
9.89283e-14
1.56933e-13
-2.9751e-13
7.90424e-14
1.53508e-13
-2.59212e-13
6.21031e-14
1.24511e-13
-2.36334e-13
4.78826e-14
1.02839e-13
-2.15316e-13
3.60694e-14
8.27975e-14
-1.95409e-13
2.59978e-14
6.23161e-14
-1.8727e-13
1.75278e-14
5.35841e-14
-2.25747e-13
1.00169e-14
4.53102e-14
3.98187e-15
2.95915e-14
-1.33008e-14
-1.56291e-13
1.49806e-13
2.65315e-13
-6.49337e-13
1.2252e-13
2.79585e-13
-4.14922e-13
9.47255e-14
2.59533e-13
-3.57677e-13
7.23536e-14
2.03868e-13
-3.17195e-13
5.44642e-14
1.65267e-13
-2.83082e-13
3.9784e-14
1.24602e-13
-2.515e-13
2.80465e-14
1.1276e-13
-2.33255e-13
1.84589e-14
8.37618e-14
-2.81785e-13
1.09716e-14
7.08241e-14
3.96209e-15
4.63294e-14
-1.64981e-14
-5.67587e-13
1.92756e-13
4.80185e-13
-9.24654e-13
1.53146e-13
4.94077e-13
-5.68481e-13
1.14538e-13
4.22513e-13
-4.79504e-13
8.48803e-14
3.33071e-13
-4.15372e-13
6.20477e-14
2.61259e-13
-3.60187e-13
4.44338e-14
2.07223e-13
-3.14206e-13
3.062e-14
1.6191e-13
-2.81675e-13
1.96685e-14
1.26973e-13
-3.40649e-13
1.14784e-14
1.0553e-13
4.41666e-15
6.6591e-14
-1.97563e-14
-1.09594e-12
3.14933e-13
8.61509e-13
-1.29622e-12
1.78736e-13
8.62558e-13
-7.69888e-13
1.40892e-13
6.97777e-13
-6.32866e-13
1.01463e-13
5.25866e-13
-5.31916e-13
7.26245e-14
3.99631e-13
-4.50037e-13
5.37825e-14
3.07458e-13
-3.83749e-13
3.69359e-14
2.36485e-13
-3.34456e-13
2.35199e-14
1.83527e-13
-4.01958e-13
1.30451e-14
1.45928e-13
5.17761e-15
9.15927e-14
-2.31017e-14
-2.06233e-12
3.18428e-11
9.87195e-12
-1.7779e-12
4.59668e-13
1.551e-12
-1.03617e-12
1.56865e-13
1.13701e-12
-8.25946e-13
1.65529e-13
8.21321e-13
-6.72777e-13
1.08037e-13
5.99999e-13
-5.54194e-13
6.66786e-14
4.47252e-13
-4.60296e-13
3.14838e-14
3.24592e-13
-3.92179e-13
1.74669e-14
2.65967e-13
-4.66111e-13
9.06031e-15
1.99644e-13
3.68351e-15
1.213e-13
-2.66182e-14
-3.85166e-10
1.26621e-08
6.74768e-08
-3.4432e-12
8.8347e-11
1.47838e-10
-1.28768e-12
2.04768e-12
4.51582e-13
-1.06857e-12
1.19534e-12
8.45222e-14
-8.42908e-13
8.50964e-13
6.358e-14
-6.73752e-13
6.06671e-13
4.94941e-14
-5.46104e-13
4.43798e-13
3.91908e-14
-4.53205e-13
3.31146e-13
3.15615e-14
-5.32824e-13
2.56333e-13
2.58078e-14
1.52458e-13
-3.02737e-14
2.15015e-14
3.448e-13
8.16333e-14
2.81591e-14
-1.81568e-14
7.75366e-14
2.76359e-14
-2.28056e-14
6.83725e-14
2.20844e-14
-2.01742e-14
5.95757e-14
1.73834e-14
-1.99133e-14
5.1059e-14
8.58378e-15
-1.97727e-14
4.2825e-14
5.78376e-15
-1.88239e-14
3.48982e-14
5.00266e-15
-1.94323e-14
2.7229e-14
3.81758e-15
-2.31619e-14
1.98456e-14
5.88781e-15
1.27464e-14
1.49566e-14
-1.60332e-15
2.93944e-13
5.86699e-14
4.83847e-14
-6.61329e-14
5.39373e-14
4.44716e-14
-7.0938e-14
4.57524e-14
4.35059e-14
-6.58854e-14
3.79443e-14
3.36436e-14
-6.40556e-14
3.06895e-14
2.16069e-14
-6.10549e-14
2.39685e-14
1.24348e-14
-5.97096e-14
1.77682e-14
9.9185e-15
-5.85978e-14
1.21343e-14
9.83978e-15
-7.09014e-14
6.99344e-15
8.00657e-15
2.59566e-15
1.35217e-14
-4.43005e-15
2.16178e-13
7.48666e-14
7.0847e-14
-1.66485e-13
6.76073e-14
6.83664e-14
-1.33702e-13
5.68216e-14
6.88682e-14
-1.17234e-13
4.68811e-14
5.48585e-14
-1.11715e-13
3.78308e-14
4.2706e-14
-1.05889e-13
2.96624e-14
2.49634e-14
-9.8025e-14
2.23181e-14
1.92254e-14
-1.0309e-13
1.54139e-14
1.77108e-14
-1.20256e-13
9.74277e-15
1.96365e-14
3.33051e-15
1.76583e-14
-7.54778e-15
9.51512e-14
9.33506e-14
1.13357e-13
-2.89796e-13
8.17424e-14
1.1803e-13
-2.13098e-13
6.70049e-14
1.17991e-13
-1.81317e-13
5.4083e-14
9.47102e-14
-1.6841e-13
4.28821e-14
7.70937e-14
-1.56395e-13
3.29424e-14
5.99794e-14
-1.45134e-13
2.40545e-14
3.82429e-14
-1.47038e-13
1.64888e-14
3.14555e-14
-1.72391e-13
9.70267e-15
2.76859e-14
4.05269e-15
2.77154e-14
-1.0182e-14
-2.23935e-14
1.18074e-13
1.98005e-13
-4.46986e-13
9.97477e-14
2.08568e-13
-2.99229e-13
7.97288e-14
1.99468e-13
-2.60313e-13
6.26363e-14
1.61422e-13
-2.37232e-13
4.83014e-14
1.30685e-13
-2.16612e-13
3.63986e-14
1.07098e-13
-1.95821e-13
2.63713e-14
7.01078e-14
-1.89079e-13
1.77176e-14
5.56152e-14
-2.26331e-13
1.05151e-14
4.77334e-14
4.17822e-15
4.29995e-14
-1.34387e-14
-1.59066e-13
1.51344e-13
3.54296e-13
-6.53364e-13
1.23752e-13
3.68881e-13
-4.17858e-13
9.56891e-14
3.34629e-13
-3.59602e-13
7.31911e-14
2.68657e-13
-3.18888e-13
5.51636e-14
2.14894e-13
-2.84339e-13
4.03713e-14
1.76143e-13
-2.53171e-13
2.84698e-14
1.16534e-13
-2.33794e-13
1.88429e-14
8.92897e-14
-2.82917e-13
1.13539e-14
7.34132e-14
4.20552e-15
6.28263e-14
-1.65551e-14
-5.75422e-13
1.95199e-13
6.28273e-13
-9.31543e-13
1.5504e-13
6.42644e-13
-5.72526e-13
1.16014e-13
5.54258e-13
-4.82942e-13
8.60162e-14
4.31763e-13
-4.18157e-13
6.29334e-14
3.39414e-13
-3.62487e-13
4.51492e-14
2.71038e-13
-3.16595e-13
3.12851e-14
2.10428e-13
-2.8288e-13
2.01475e-14
1.37158e-13
-3.42586e-13
1.18023e-14
1.08526e-13
4.78805e-15
7.24095e-14
-1.97487e-14
-1.11036e-12
3.18834e-13
1.12966e-12
-1.30777e-12
1.81407e-13
1.11695e-12
-7.76903e-13
1.43114e-13
9.05459e-13
-6.38471e-13
1.03129e-13
6.82186e-13
-5.36399e-13
7.39089e-14
5.21647e-13
-4.53524e-13
5.45547e-14
4.05458e-13
-3.873e-13
3.77012e-14
3.14739e-13
-3.36907e-13
2.42289e-14
2.01731e-13
-4.04835e-13
1.36502e-14
1.54064e-13
5.65383e-15
9.47187e-14
-2.31998e-14
-2.08753e-12
3.20299e-11
1.07272e-11
-1.79718e-12
4.56809e-13
1.98806e-12
-1.04786e-12
1.61481e-13
1.47893e-12
-8.34902e-13
1.68914e-13
1.06818e-12
-6.79906e-13
1.10558e-13
7.90193e-13
-5.59928e-13
6.8735e-14
5.92332e-13
-4.65085e-13
3.26517e-14
4.50964e-13
-3.95873e-13
1.81456e-14
2.89275e-13
-4.70465e-13
9.50834e-15
2.11859e-13
4.15195e-15
1.25384e-13
-2.66727e-14
-3.92446e-10
1.4084e-08
7.09945e-08
-3.41802e-12
8.44175e-11
1.49772e-10
-1.30392e-12
2.62029e-12
4.06111e-13
-1.08255e-12
1.64287e-12
8.43595e-14
-8.53646e-13
1.16828e-12
6.39791e-14
-6.82142e-13
8.45524e-13
5.00298e-14
-5.53099e-13
6.23249e-13
3.97933e-14
-4.58622e-13
4.53071e-13
3.22415e-14
-5.38936e-13
2.83439e-13
2.64919e-14
1.63585e-13
-3.02894e-14
2.23009e-14
3.44459e-13
8.18435e-14
2.44506e-14
-1.87862e-14
7.76305e-14
1.16389e-14
-2.28997e-14
6.85119e-14
1.24332e-14
-2.07207e-14
5.96873e-14
1.06933e-14
-2.01648e-14
5.11625e-14
1.38986e-14
-2.01572e-14
4.29455e-14
2.07494e-14
-1.97705e-14
3.50388e-14
3.28907e-14
-1.99752e-14
2.7428e-14
1.01945e-13
-2.23768e-14
2.01076e-14
4.11904e-13
1.29902e-14
1.34717e-12
-4.57945e-15
2.93238e-13
5.89154e-14
3.89284e-14
-6.65849e-14
5.41053e-14
1.98897e-14
-7.15191e-14
4.58685e-14
2.53162e-14
-6.66313e-14
3.80692e-14
2.16023e-14
-6.42755e-14
3.08214e-14
1.84428e-14
-6.10409e-14
2.4108e-14
2.76343e-14
-5.95139e-14
1.79036e-14
3.62426e-14
-6.1242e-14
1.22779e-14
7.6336e-14
-7.21676e-14
7.22296e-15
2.48899e-13
2.74066e-15
8.72661e-13
-4.20779e-15
2.15148e-13
7.5216e-14
5.55733e-14
-1.67556e-13
6.78785e-14
3.20079e-14
-1.34151e-13
5.70909e-14
4.14957e-14
-1.18573e-13
4.70952e-14
3.68078e-14
-1.11413e-13
3.80878e-14
3.45706e-14
-1.06269e-13
2.9927e-14
3.92814e-14
-9.91373e-14
2.25809e-14
4.93456e-14
-1.03223e-13
1.55885e-14
7.11141e-14
-1.22865e-13
9.30408e-15
1.7184e-13
3.54852e-15
5.70828e-13
-5.4466e-15
9.41988e-14
9.39881e-14
9.30376e-14
-2.91138e-13
8.21912e-14
6.30501e-14
-2.14466e-13
6.73841e-14
7.57079e-14
-1.81583e-13
5.44487e-14
6.72059e-14
-1.6885e-13
4.31721e-14
6.23558e-14
-1.56947e-13
3.31966e-14
5.14924e-14
-1.46439e-13
2.43957e-14
6.8813e-14
-1.47665e-13
1.68915e-14
8.13955e-14
-1.75099e-13
9.96839e-15
1.41856e-13
4.33942e-15
4.02262e-13
-9.01709e-15
-2.4112e-14
1.19111e-13
1.61914e-13
-4.49043e-13
1.00492e-13
1.27057e-13
-3.00331e-13
8.03641e-14
1.37626e-13
-2.6158e-13
6.32323e-14
1.1965e-13
-2.3787e-13
4.88264e-14
1.06216e-13
-2.17392e-13
3.69189e-14
1.29209e-13
-1.96996e-13
2.66166e-14
1.00033e-13
-1.91147e-13
1.79547e-14
1.05392e-13
-2.29241e-13
1.08809e-14
1.40922e-13
4.21786e-15
3.08177e-13
-1.26862e-14
-1.61995e-13
1.52905e-13
2.86471e-13
-6.56671e-13
1.24852e-13
2.45226e-13
-4.19572e-13
9.6655e-14
2.43181e-13
-3.61866e-13
7.39953e-14
2.04984e-13
-3.19728e-13
5.587e-14
1.76085e-13
-2.86713e-13
4.09547e-14
1.96192e-13
-2.54436e-13
2.90966e-14
1.26623e-13
-2.35231e-13
1.92888e-14
1.4792e-13
-2.86353e-13
1.1728e-14
1.59939e-13
4.80142e-15
2.59972e-13
-1.61331e-14
-5.83656e-13
1.98681e-13
5.11952e-13
-9.3682e-13
1.56767e-13
4.56615e-13
-5.762e-13
1.17388e-13
4.1737e-13
-4.86129e-13
8.71643e-14
3.39791e-13
-4.20415e-13
6.38799e-14
2.80914e-13
-3.65052e-13
4.59501e-14
2.89276e-13
-3.19221e-13
3.19442e-14
1.8689e-13
-2.85041e-13
2.07319e-14
2.00492e-13
-3.46544e-13
1.22472e-14
1.96635e-13
5.09135e-15
2.41225e-13
-1.93871e-14
-1.12468e-12
3.18006e-13
9.12161e-13
-1.31669e-12
1.84913e-13
8.23475e-13
-7.82951e-13
1.45385e-13
6.99206e-13
-6.43487e-13
1.04788e-13
5.4803e-13
-5.40447e-13
7.5318e-14
4.36024e-13
-4.57061e-13
5.50438e-14
4.3019e-13
-3.91435e-13
3.87415e-14
3.93897e-13
-3.39917e-13
2.49435e-14
2.08492e-13
-4.09929e-13
1.4341e-14
2.49479e-13
6.24136e-15
2.43214e-13
-2.29354e-14
-2.04935e-12
2.05104e-11
5.11005e-12
-1.82034e-12
3.70433e-13
1.44135e-12
-1.05807e-12
2.59878e-13
1.14903e-12
-8.42603e-13
1.72627e-13
8.63027e-13
-6.86701e-13
1.13357e-13
7.20143e-13
-5.65098e-13
7.11151e-14
6.38789e-13
-4.71411e-13
3.40543e-14
5.57009e-13
-3.99902e-13
1.90073e-14
2.87221e-13
-4.76881e-13
1.00566e-14
3.1437e-13
4.73899e-15
2.60744e-13
-2.65859e-14
-2.66555e-10
1.84945e-09
6.12843e-08
-2.72011e-12
-7.22521e-12
6.71389e-11
-1.32342e-12
1.80735e-12
6.94805e-14
-1.09582e-12
1.48344e-12
8.35203e-14