/*--------------------------------*- C++ -*----------------------------------*\
| =========                 |                                                 |
| \\      /  F ield         | OpenFOAM: The Open Source CFD Toolbox           |
|  \\    /   O peration     | Version:  4.1                                   |
|   \\  /    A nd           | Web:      www.OpenFOAM.org                      |
|    \\/     M anipulation  |                                                 |
\*---------------------------------------------------------------------------*/
FoamFile
{
    version     2.0;
    format      ascii;
    class       volVectorField;
    location    "0.48";
    object      U;
}
// * * * * * * * * * * * * * * * * * * * * * * * * * * * * * * * * * * * * * //

dimensions      [0 1 -1 0 0 0 0];

internalField   nonuniform List<vector> 
18000
(
(8.1623e-14 3.89438e-13 -6.21598e-12)
(8.75149e-14 3.88184e-13 -6.145e-12)
(7.90872e-14 -9.92159e-15 -6.07459e-12)
(7.08601e-14 -1.23721e-14 -6.00541e-12)
(6.28594e-14 -1.21611e-14 -5.93695e-12)
(5.50629e-14 -1.19075e-14 -5.86942e-12)
(4.75196e-14 -1.1872e-14 -5.80264e-12)
(4.02475e-14 -1.1844e-14 -5.73708e-12)
(3.31665e-14 -1.16776e-14 -5.67243e-12)
(2.6321e-14 -9.05106e-15 -5.60958e-12)
(1.15037e-13 4.02287e-13 -7.79519e-12)
(1.30338e-13 3.91271e-13 -7.51807e-12)
(1.1452e-13 -4.31364e-14 -7.25064e-12)
(9.95596e-14 -4.42884e-14 -6.9954e-12)
(8.56351e-14 -4.27947e-14 -6.75102e-12)
(7.26478e-14 -4.12128e-14 -6.51705e-12)
(6.04497e-14 -3.96984e-14 -6.29265e-12)
(4.915e-14 -3.83728e-14 -6.0778e-12)
(3.85354e-14 -3.70199e-14 -5.87142e-12)
(2.86559e-14 -2.8212e-14 -5.67679e-12)
(1.2265e-13 4.08173e-13 -9.89697e-12)
(1.35263e-13 3.8412e-13 -9.28868e-12)
(1.12174e-13 -9.05566e-14 -8.72062e-12)
(9.14895e-14 -8.78421e-14 -8.19528e-12)
(7.30786e-14 -8.23063e-14 -7.70774e-12)
(5.66792e-14 -7.74226e-14 -7.25517e-12)
(4.20149e-14 -7.29002e-14 -6.83517e-12)
(2.89343e-14 -6.8684e-14 -6.44416e-12)
(1.72592e-14 -6.4788e-14 -6.08031e-12)
(6.87126e-15 -4.81735e-14 -5.7452e-12)
(1.64762e-13 4.01697e-13 -1.27341e-11)
(1.71198e-13 3.60012e-13 -1.1595e-11)
(1.37472e-13 -1.58049e-13 -1.05724e-11)
(1.08698e-13 -1.46643e-13 -9.65607e-12)
(8.42896e-14 -1.33732e-13 -8.83556e-12)
(6.35004e-14 -1.22222e-13 -8.09885e-12)
(4.5871e-14 -1.11946e-13 -7.43572e-12)
(3.07631e-14 -1.02764e-13 -6.83783e-12)
(1.79201e-14 -9.43726e-14 -6.29786e-12)
(7.00104e-15 -6.8763e-14 -5.8147e-12)
(2.26263e-13 3.72244e-13 -1.66264e-11)
(2.20276e-13 3.07668e-13 -1.46382e-11)
(1.7058e-13 -2.54482e-13 -1.29253e-11)
(1.30272e-13 -2.26929e-13 -1.14477e-11)
(9.78165e-14 -2.00267e-13 -1.01718e-11)
(7.15615e-14 -1.7751e-13 -9.06529e-12)
(5.02117e-14 -1.58067e-13 -8.10235e-12)
(3.28127e-14 -1.41323e-13 -7.26177e-12)
(1.86303e-14 -1.26501e-13 -6.52522e-12)
(7.08627e-15 -9.01736e-14 -5.88557e-12)
(3.18489e-13 3.02658e-13 -2.20604e-11)
(2.88975e-13 2.07789e-13 -1.87092e-11)
(2.14557e-13 -3.93821e-13 -1.59477e-11)
(1.57632e-13 -3.36681e-13 -1.36612e-11)
(1.14264e-13 -2.86752e-13 -1.17629e-11)
(8.08985e-14 -2.46076e-13 -1.01764e-11)
(5.50732e-14 -2.12624e-13 -8.84366e-12)
(3.50179e-14 -1.84737e-13 -7.71829e-12)
(1.93991e-14 -1.61103e-13 -6.76263e-12)
(7.18892e-15 -1.12445e-13 -5.95731e-12)
(4.60673e-13 1.61921e-13 -2.97879e-11)
(3.86931e-13 2.73859e-14 -2.424e-11)
(2.73712e-13 -5.97966e-13 -1.98718e-11)
(1.92465e-13 -4.88417e-13 -1.64185e-11)
(1.34127e-13 -3.99916e-13 -1.36681e-11)
(9.15806e-14 -3.31247e-13 -1.14583e-11)
(6.03096e-14 -2.77073e-13 -9.66938e-12)
(3.71756e-14 -2.33764e-13 -8.21012e-12)
(1.99621e-14 -1.98576e-13 -7.01096e-12)
(7.0873e-15 -1.35599e-13 -6.03023e-12)
(-6.68014e-13 -1.06216e-13 -4.10266e-11)
(-8.01136e-13 -2.91757e-13 -3.18713e-11)
(-9.00554e-13 -9.0123e-13 -2.50293e-11)
(-9.48216e-13 -6.99836e-13 -1.98821e-11)
(-9.64994e-13 -5.48683e-13 -1.59635e-11)
(-9.62955e-13 -4.37418e-13 -1.29447e-11)
(-9.4957e-13 -3.53473e-13 -1.05931e-11)
(-9.29495e-13 -2.89104e-13 -8.74273e-12)
(-9.05744e-13 -2.38903e-13 -7.27181e-12)
(-8.90249e-13 -1.59613e-13 -6.10597e-12)
(-3.84297e-09 -7.88327e-13 -7.31568e-11)
(-3.77734e-09 -7.91167e-13 -5.61657e-11)
(-3.54564e-09 -1.15606e-12 -4.38538e-11)
(-3.33822e-09 -8.11838e-13 -3.48645e-11)
(-3.15251e-09 -5.78232e-13 -2.81903e-11)
(-2.98551e-09 -4.1781e-13 -2.31419e-11)
(-2.83467e-09 -3.05341e-13 -1.92601e-11)
(-2.69785e-09 -2.25198e-13 -1.62303e-11)
(-2.57339e-09 -1.93681e-13 -1.38317e-11)
(-2.49607e-09 -2.04564e-13 -1.19914e-11)
(4.08456e-07 -6.45217e-10 -4.59377e-08)
(2.91797e-08 1.278e-10 -3.98754e-08)
(2.36232e-08 5.6972e-10 -3.4783e-08)
(1.97834e-08 5.12597e-10 -3.05775e-08)
(1.6561e-08 4.60612e-10 -2.70714e-08)
(1.38294e-08 4.15412e-10 -2.4122e-08)
(1.1493e-08 3.76057e-10 -2.16201e-08)
(9.47819e-09 3.41396e-10 -1.94814e-08)
(7.54901e-09 2.14561e-10 -1.76409e-08)
(-6.74185e-08 -9.9565e-11 -1.6287e-08)
(2.62801e-13 3.67315e-13 -6.48146e-12)
(2.46245e-13 3.44596e-13 -6.40611e-12)
(2.16029e-13 -5.30723e-14 -6.33124e-12)
(1.86968e-13 -5.50239e-14 -6.25722e-12)
(1.59028e-13 -5.44297e-14 -6.18445e-12)
(1.32128e-13 -5.37734e-14 -6.113e-12)
(1.06251e-13 -5.32163e-14 -6.04173e-12)
(8.13854e-14 -5.25984e-14 -5.97223e-12)
(5.73652e-14 -5.16035e-14 -5.90361e-12)
(3.46324e-14 -2.9931e-14 -5.8366e-12)
(5.27821e-13 3.19463e-13 -8.16394e-12)
(4.86259e-13 2.30383e-13 -7.86805e-12)
(4.1681e-13 -1.98884e-13 -7.5823e-12)
(3.51955e-13 -1.94271e-13 -7.30986e-12)
(2.91497e-13 -1.87492e-13 -7.04968e-12)
(2.35107e-13 -1.80938e-13 -6.80039e-12)
(1.82526e-13 -1.74607e-13 -6.562e-12)
(1.33439e-13 -1.68742e-13 -6.33363e-12)
(8.75794e-14 -1.6181e-13 -6.11502e-12)
(4.52536e-14 -9.20309e-14 -5.90809e-12)
(6.4872e-13 2.34181e-13 -1.04192e-11)
(5.76347e-13 5.1947e-14 -9.76411e-12)
(4.77017e-13 -4.03791e-13 -9.15476e-12)
(3.87988e-13 -3.81849e-13 -8.59114e-12)
(3.08696e-13 -3.58831e-13 -8.06992e-12)
(2.3797e-13 -3.37385e-13 -7.58692e-12)
(1.74822e-13 -3.17625e-13 -7.13929e-12)
(1.18432e-13 -2.99378e-13 -6.72327e-12)
(6.81833e-14 -2.8071e-13 -6.33661e-12)
(2.37177e-14 -1.57231e-13 -5.98139e-12)
(8.43485e-13 9.0354e-14 -1.34872e-11)
(7.22892e-13 -2.21924e-13 -1.22515e-11)
(5.80583e-13 -6.90968e-13 -1.1147e-11)
(4.58613e-13 -6.33399e-13 -1.01594e-11)
(3.54802e-13 -5.7845e-13 -9.27788e-12)
(2.66164e-13 -5.2951e-13 -8.48855e-12)
(1.9048e-13 -4.85629e-13 -7.78023e-12)
(1.25851e-13 -4.4605e-13 -7.14332e-12)
(7.06471e-14 -4.08009e-13 -6.5683e-12)
(2.41182e-14 -2.24921e-13 -6.05539e-12)
(1.11395e-12 -1.4598e-13 -1.77359e-11)
(9.17936e-13 -6.39742e-13 -1.55606e-11)
(7.13075e-13 -1.09399e-12 -1.36964e-11)
(5.45758e-13 -9.70612e-13 -1.20936e-11)
(4.09669e-13 -8.60143e-13 -1.07159e-11)
(2.98648e-13 -7.65038e-13 -9.52593e-12)
(2.07997e-13 -6.82531e-13 -8.49379e-12)
(1.33927e-13 -6.10852e-13 -7.5957e-12)
(7.33064e-14 -5.45024e-13 -6.81084e-12)
(2.44404e-14 -2.95635e-13 -6.13144e-12)
(1.49614e-12 -5.2842e-13 -2.37361e-11)
(1.1819e-12 -1.27529e-12 -2.00271e-11)
(8.84611e-13 -1.66244e-12 -1.69963e-11)
(6.54133e-13 -1.42407e-12 -1.44978e-11)
(4.75355e-13 -1.22172e-12 -1.24368e-11)
(3.36116e-13 -1.05402e-12 -1.0723e-11)
(2.2746e-13 -9.13736e-13 -9.2901e-12)
(1.4253e-13 -7.95926e-13 -8.08505e-12)
(7.61237e-14 -6.92304e-13 -7.06541e-12)
(2.47493e-14 -3.69115e-13 -6.20903e-12)
(2.04923e-12 -1.14358e-12 -3.23852e-11)
(1.54402e-12 -2.24457e-12 -2.61631e-11)
(1.10911e-12 -2.47052e-12 -2.13183e-11)
(7.89821e-13 -2.03618e-12 -1.75129e-11)
(5.5431e-13 -1.68727e-12 -1.45083e-11)
(3.79502e-13 -1.4092e-12 -1.211e-11)
(2.49199e-13 -1.18524e-12 -1.01797e-11)
(1.51857e-13 -1.00366e-12 -8.61368e-12)
(7.90206e-14 -8.50604e-13 -7.33123e-12)
(2.51446e-14 -4.45897e-13 -6.28839e-12)
(2.89245e-12 -2.14654e-12 -4.51739e-11)
(2.02478e-12 -3.73913e-12 -3.47415e-11)
(1.3832e-12 -3.62734e-12 -2.70577e-11)
(9.38131e-13 -2.86699e-12 -2.13325e-11)
(6.26949e-13 -2.28777e-12 -1.70204e-11)
(4.07144e-13 -1.84604e-12 -1.37259e-11)
(2.5076e-13 -1.50432e-12 -1.11792e-11)
(1.39025e-13 -1.23722e-12 -9.18728e-12)
(5.89148e-14 -1.02075e-12 -7.6119e-12)
(2.18988e-15 -5.25665e-13 -6.37064e-12)
(-7.13231e-11 -4.20314e-12 -8.0325e-11)
(-2.03689e-10 -6.43236e-12 -6.08394e-11)
(-1.66559e-10 -5.50849e-12 -4.69905e-11)
(-1.37267e-10 -4.18729e-12 -3.70268e-11)
(-1.14412e-10 -3.23192e-12 -2.97295e-11)
(-9.63305e-11 -2.53448e-12 -2.42698e-11)
(-8.18516e-11 -2.01544e-12 -2.01101e-11)
(-7.01291e-11 -1.62353e-12 -1.68884e-11)
(-6.05481e-11 -1.31703e-12 -1.43531e-11)
(-5.28871e-11 -7.13425e-13 -1.2417e-11)
(2.67652e-07 -1.34456e-09 -4.88269e-08)
(-6.17238e-09 -1.08407e-09 -4.21298e-08)
(-6.27818e-09 -5.49035e-10 -3.64783e-08)
(-5.77853e-09 -4.92666e-10 -3.18751e-08)
(-5.32223e-09 -4.45175e-10 -2.80807e-08)
(-4.91448e-09 -4.03401e-10 -2.49184e-08)
(-4.55293e-09 -3.6668e-10 -2.22568e-08)
(-4.23365e-09 -3.34369e-10 -1.99964e-08)
(-3.96314e-09 -3.06522e-10 -1.80619e-08)
(-4.92965e-09 -3.03232e-10 -1.66363e-08)
(2.3015e-13 3.7206e-13 -2.73081e-13)
(2.17137e-13 3.47784e-13 -2.68117e-13)
(1.9038e-13 -5.01545e-14 -2.62796e-13)
(1.64849e-13 -5.21285e-14 -2.57551e-13)
(1.40415e-13 -5.12607e-14 -2.52722e-13)
(1.16886e-13 -5.07588e-14 -2.47937e-13)
(9.45302e-14 -5.02889e-14 -2.43242e-13)
(7.30328e-14 -4.9543e-14 -2.38994e-13)
(5.24487e-14 -4.87216e-14 -2.34697e-13)
(3.30478e-14 -2.55908e-14 -2.30621e-13)
(5.0194e-13 3.36809e-13 -3.80128e-13)
(4.63299e-13 2.41054e-13 -3.60252e-13)
(3.96884e-13 -1.88631e-13 -3.4079e-13)
(3.34913e-13 -1.84018e-13 -3.22236e-13)
(2.77345e-13 -1.7744e-13 -3.056e-13)
(2.23724e-13 -1.71064e-13 -2.89882e-13)
(1.73904e-13 -1.64879e-13 -2.74674e-13)
(1.27424e-13 -1.59121e-13 -2.60516e-13)
(8.40775e-14 -1.52477e-13 -2.48154e-13)
(4.43028e-14 -7.92882e-14 -2.35531e-13)
(6.20573e-13 2.69216e-13 -5.40542e-13)
(5.51407e-13 7.14562e-14 -4.91558e-13)
(4.55539e-13 -3.84879e-13 -4.47856e-13)
(3.69763e-13 -3.63516e-13 -4.08014e-13)
(2.93647e-13 -3.40686e-13 -3.72519e-13)
(2.26048e-13 -3.19816e-13 -3.40227e-13)
(1.65878e-13 -3.00637e-13 -3.11564e-13)
(1.12398e-13 -2.82984e-13 -2.85663e-13)
(6.46461e-14 -2.64658e-13 -2.6185e-13)
(2.27669e-14 -1.35516e-13 -2.41468e-13)
(8.14271e-13 1.5105e-13 -7.83033e-13)
(6.96855e-13 -1.92757e-13 -6.82525e-13)
(5.57962e-13 -6.62521e-13 -5.96084e-13)
(4.39438e-13 -6.05948e-13 -5.20944e-13)
(3.39047e-13 -5.5171e-13 -4.57125e-13)
(2.53771e-13 -5.03604e-13 -4.02161e-13)
(1.8128e-13 -4.6054e-13 -3.54971e-13)
(1.19636e-13 -4.22387e-13 -3.14245e-13)
(6.71755e-14 -3.85502e-13 -2.78407e-13)
(2.31807e-14 -1.94627e-13 -2.47561e-13)
(1.08705e-12 -4.87411e-14 -1.16087e-12)
(8.92221e-13 -6.016e-13 -9.64128e-13)
(6.90219e-13 -1.05634e-12 -8.04637e-13)
(5.25949e-13 -9.3395e-13 -6.7317e-13)
(3.93375e-13 -8.24121e-13 -5.65938e-13)
(2.85885e-13 -7.30358e-13 -4.78274e-13)
(1.98613e-13 -6.49524e-13 -4.06185e-13)
(1.27636e-13 -5.79675e-13 -3.46645e-13)
(6.99598e-14 -5.15384e-13 -2.96463e-13)
(2.36775e-14 -2.56087e-13 -2.55123e-13)
(1.47825e-12 -3.81062e-13 -1.76485e-12)
(1.15995e-12 -1.2338e-12 -1.3876e-12)
(8.63042e-13 -1.61775e-12 -1.10195e-12)
(6.34332e-13 -1.37919e-12 -8.78081e-13)
(4.58766e-13 -1.17657e-12 -7.0638e-13)
(3.23037e-13 -1.01025e-12 -5.72273e-13)
(2.17911e-13 -8.72038e-13 -4.67369e-13)
(1.36343e-13 -7.56826e-13 -3.84165e-13)
(7.27802e-14 -6.55639e-13 -3.16374e-13)
(2.41418e-14 -3.21013e-13 -2.63701e-13)
(2.05415e-12 -9.26392e-13 -2.75416e-12)
(1.5327e-12 -2.21391e-12 -2.03871e-12)
(1.0919e-12 -2.42655e-12 -1.53105e-12)
(7.71601e-13 -1.98647e-12 -1.1578e-12)
(5.38117e-13 -1.634e-12 -8.88042e-13)
(3.6643e-13 -1.35663e-12 -6.8847e-13)
(2.3966e-13 -1.13479e-12 -5.39546e-13)
(1.45633e-13 -9.568e-13 -4.26785e-13)
(7.57139e-14 -8.06845e-13 -3.39065e-13)
(2.46043e-14 -3.8863e-13 -2.73476e-13)
(2.97742e-12 -1.83524e-12 -4.43083e-12)
(2.06382e-12 -3.75288e-12 -3.06289e-12)
(1.40073e-12 -3.60038e-12 -2.16302e-12)
(9.47585e-13 -2.81992e-12 -1.54547e-12)
(6.35239e-13 -2.22998e-12 -1.12629e-12)
(4.17383e-13 -1.78582e-12 -8.33253e-13)
(2.64128e-13 -1.44561e-12 -6.25366e-13)
(1.55722e-13 -1.18261e-12 -4.75043e-13)
(7.87773e-14 -9.69932e-13 -3.6463e-13)
(2.48511e-14 -4.59698e-13 -2.83691e-13)
(1.6518e-10 -3.51355e-12 -7.68472e-12)
(-2.14348e-12 -6.34432e-12 -4.98387e-12)
(-2.21958e-12 -5.33918e-12 -3.3401e-12)
(-1.6992e-12 -3.98318e-12 -2.3006e-12)
(-1.33738e-12 -3.0179e-12 -1.63672e-12)
(-1.07616e-12 -2.32647e-12 -1.19869e-12)
(-8.81718e-13 -1.81997e-12 -9.02932e-13)
(-7.33266e-13 -1.44361e-12 -6.98589e-13)
(-6.1793e-13 -1.152e-12 -5.53357e-13)
(-5.19094e-13 -5.39826e-13 -4.51548e-13)
(2.34617e-07 -5.804e-10 -3.05387e-09)
(2.70036e-10 -5.27782e-10 -2.31792e-09)
(-2.34265e-10 -6.88267e-11 -1.7363e-09)
(-1.88553e-10 -5.11494e-11 -1.32456e-09)
(-1.52382e-10 -3.98701e-11 -1.02762e-09)
(-1.24655e-10 -3.15061e-11 -8.09218e-10)
(-1.03055e-10 -2.52093e-11 -6.45784e-10)
(-8.60677e-11 -2.0404e-11 -5.21582e-10)
(-7.28563e-11 -1.66636e-11 -4.25905e-10)
(-7.46324e-11 -1.36766e-11 -3.52884e-10)
(2.26885e-13 3.72347e-13 -1.23383e-14)
(2.14258e-13 3.47734e-13 -1.1499e-14)
(1.87885e-13 -5.01378e-14 -9.40084e-15)
(1.62651e-13 -5.1991e-14 -8.40714e-15)
(1.3858e-13 -5.13073e-14 -6.97932e-15)
(1.15528e-13 -5.06904e-14 -5.95728e-15)
(9.34142e-14 -5.00105e-14 -5.08193e-15)
(7.22498e-14 -4.93224e-14 -4.11032e-15)
(5.20712e-14 -4.83479e-14 -3.72037e-15)
(3.29677e-14 -2.51969e-14 -3.71717e-15)
(4.98095e-13 3.38555e-13 -1.84274e-14)
(4.60043e-13 2.42299e-13 -1.64893e-14)
(3.94159e-13 -1.87592e-13 -1.43998e-14)
(3.327e-13 -1.82968e-13 -1.20687e-14)
(2.75556e-13 -1.76116e-13 -9.9345e-15)
(2.2236e-13 -1.69982e-13 -8.69324e-15)
(1.72936e-13 -1.63972e-13 -7.30697e-15)
(1.26841e-13 -1.57874e-13 -6.27883e-15)
(8.38206e-14 -1.51181e-13 -5.51678e-15)
(4.4379e-14 -7.79662e-14 -4.94621e-15)
(6.15478e-13 2.73503e-13 -2.98301e-14)
(5.47378e-13 7.45106e-14 -2.6392e-14)
(4.52261e-13 -3.82007e-13 -2.22572e-14)
(3.67198e-13 -3.60801e-13 -1.84633e-14)
(2.91709e-13 -3.38442e-13 -1.57905e-14)
(2.24608e-13 -3.17598e-13 -1.31691e-14)
(1.64993e-13 -2.98326e-13 -1.0976e-14)
(1.11927e-13 -2.80918e-13 -9.48562e-15)
(6.45651e-14 -2.62586e-13 -8.08415e-15)
(2.29901e-14 -1.33209e-13 -7.79095e-15)
(8.0754e-13 1.59916e-13 -4.95413e-14)
(6.91682e-13 -1.8658e-13 -4.33833e-14)
(5.54038e-13 -6.57481e-13 -3.60564e-14)
(4.365e-13 -6.01331e-13 -2.95407e-14)
(3.36928e-13 -5.47457e-13 -2.45705e-14)
(2.52394e-13 -4.998e-13 -2.07122e-14)
(1.80491e-13 -4.57152e-13 -1.72603e-14)
(1.19375e-13 -4.19099e-13 -1.4542e-14)
(6.73468e-14 -3.8247e-13 -1.27258e-14)
(2.36025e-14 -1.91827e-13 -1.12445e-14)
(1.07811e-12 -3.27105e-14 -8.6085e-14)
(8.85739e-13 -5.91087e-13 -7.21634e-14)
(6.85523e-13 -1.04752e-12 -5.80899e-14)
(5.22709e-13 -9.26525e-13 -4.68445e-14)
(3.91232e-13 -8.17891e-13 -3.83556e-14)
(2.84583e-13 -7.2477e-13 -3.11552e-14)
(1.98023e-13 -6.44416e-13 -2.59247e-14)
(1.27632e-13 -5.75256e-13 -2.24975e-14)
(7.01528e-14 -5.11702e-13 -1.961e-14)
(2.42678e-14 -2.52567e-13 -1.68045e-14)
(1.46597e-12 -3.51942e-13 -1.50534e-13)
(1.15171e-12 -1.21644e-12 -1.20692e-13)
(8.57423e-13 -1.60421e-12 -9.45814e-14)
(6.30723e-13 -1.36812e-12 -7.43734e-14)
(4.56614e-13 -1.16752e-12 -5.91374e-14)
(3.21956e-13 -1.00266e-12 -4.77538e-14)
(2.176e-13 -8.65548e-13 -3.91325e-14)
(1.36485e-13 -7.51781e-13 -3.25204e-14)
(7.32796e-14 -6.51308e-13 -2.67724e-14)
(2.48767e-14 -3.16597e-13 -2.32908e-14)
(2.03722e-12 -8.74591e-13 -2.65812e-13)
(1.52179e-12 -2.18626e-12 -2.03532e-13)
(1.08512e-12 -2.4059e-12 -1.52202e-13)
(7.67523e-13 -1.97059e-12 -1.16186e-13)
(5.35929e-13 -1.62173e-12 -8.96524e-14)
(3.65564e-13 -1.34678e-12 -7.0549e-14)
(2.39537e-13 -1.12697e-12 -5.63295e-14)
(1.46013e-13 -9.50693e-13 -4.57599e-14)
(7.66201e-14 -8.02012e-13 -3.77889e-14)
(2.54836e-14 -3.84028e-13 -3.13268e-14)
(2.95302e-12 -1.74343e-12 -4.78654e-13)
(2.04772e-12 -3.7099e-12 -3.41301e-13)
(1.39133e-12 -3.56983e-12 -2.4468e-13)
(9.42443e-13 -2.79805e-12 -1.78259e-13)
(6.32821e-13 -2.21354e-12 -1.33083e-13)
(4.16633e-13 -1.77372e-12 -1.01682e-13)
(2.64344e-13 -1.43661e-12 -7.86866e-14)
(1.56545e-13 -1.17555e-12 -6.23143e-14)
(7.99656e-14 -9.64881e-13 -5.05228e-14)
(2.62766e-14 -4.5485e-13 -4.09703e-14)
(1.78621e-10 -3.33934e-12 -8.77308e-13)
(3.50082e-12 -6.26981e-12 -5.61361e-13)
(1.73392e-12 -5.28364e-12 -3.80811e-13)
(1.12008e-12 -3.94385e-12 -2.67166e-13)
(7.20188e-13 -2.98911e-12 -1.92614e-13)
(4.54701e-13 -2.30485e-12 -1.42826e-13)
(2.76763e-13 -1.80323e-12 -1.08174e-13)
(1.56561e-13 -1.43024e-12 -8.40057e-14)
(7.48714e-14 -1.14092e-12 -6.6377e-14)
(2.03323e-14 -5.29158e-13 -5.3818e-14)
(2.31629e-07 -4.96483e-10 -2.20709e-10)
(5.69664e-10 -4.67484e-10 -6.5923e-11)
(-3.33279e-12 -1.21315e-11 -4.21209e-11)
(-3.0479e-12 -6.99926e-12 -2.77891e-11)
(-2.18983e-12 -5.00566e-12 -1.88717e-11)
(-1.61514e-12 -3.66523e-12 -1.31314e-11)
(-1.21624e-12 -2.73656e-12 -9.33292e-12)
(-9.33887e-13 -2.08045e-12 -6.75852e-12)
(-7.34075e-13 -1.59882e-12 -4.97757e-12)
(-6.73833e-13 -8.0878e-13 -3.6765e-12)
(2.27236e-13 3.72249e-13 -1.09399e-14)
(2.14514e-13 3.47153e-13 -9.93842e-15)
(1.88173e-13 -5.08504e-14 -7.52217e-15)
(1.62858e-13 -5.25694e-14 -5.55474e-15)
(1.38737e-13 -5.17204e-14 -4.13168e-15)
(1.15583e-13 -5.10116e-14 -2.9589e-15)
(9.35542e-14 -5.05303e-14 -2.18958e-15)
(7.24361e-14 -4.95995e-14 -1.27557e-15)
(5.2174e-14 -4.8399e-14 -4.83722e-16)
(3.30563e-14 -2.54058e-14 -3.21267e-16)
(4.99018e-13 3.38232e-13 -1.61154e-14)
(4.60835e-13 2.41638e-13 -1.43041e-14)
(3.94866e-13 -1.88293e-13 -1.10335e-14)
(3.33191e-13 -1.8381e-13 -9.10607e-15)
(2.76049e-13 -1.76903e-13 -6.28366e-15)
(2.22773e-13 -1.70334e-13 -4.72352e-15)
(1.73295e-13 -1.64161e-13 -3.8314e-15)
(1.27226e-13 -1.58252e-13 -3.29732e-15)
(8.4162e-14 -1.515e-13 -2.40611e-15)
(4.47422e-14 -7.80256e-14 -1.423e-15)
(6.17115e-13 2.7303e-13 -2.61794e-14)
(5.48859e-13 7.34748e-14 -2.32155e-14)
(4.53503e-13 -3.83409e-13 -1.88257e-14)
(3.68212e-13 -3.61896e-13 -1.46881e-14)
(2.9263e-13 -3.38997e-13 -1.20358e-14)
(2.25455e-13 -3.18274e-13 -9.71104e-15)
(1.65672e-13 -2.98957e-13 -7.84003e-15)
(1.12534e-13 -2.81268e-13 -6.4946e-15)
(6.51329e-14 -2.62723e-13 -5.86978e-15)
(2.35445e-14 -1.3342e-13 -5.10107e-15)
(8.10437e-13 1.59027e-13 -4.4866e-14)
(6.94254e-13 -1.88265e-13 -3.91754e-14)
(5.56121e-13 -6.59355e-13 -3.23504e-14)
(4.38272e-13 -6.03013e-13 -2.62809e-14)
(3.38432e-13 -5.48727e-13 -2.14751e-14)
(2.53616e-13 -5.00852e-13 -1.78106e-14)
(1.81584e-13 -4.58048e-13 -1.51913e-14)
(1.20375e-13 -4.1986e-13 -1.28821e-14)
(6.82763e-14 -3.83008e-13 -1.11409e-14)
(2.43705e-14 -1.91784e-13 -1.03202e-14)
(1.08302e-12 -3.43654e-14 -7.84118e-14)
(8.89872e-13 -5.94417e-13 -6.79335e-14)
(6.88894e-13 -1.05116e-12 -5.50532e-14)
(5.25452e-13 -9.2928e-13 -4.45752e-14)
(3.93505e-13 -8.20052e-13 -3.71095e-14)
(2.86495e-13 -7.26743e-13 -3.08226e-14)
(1.99644e-13 -6.45834e-13 -2.55791e-14)
(1.28989e-13 -5.76196e-13 -2.20011e-14)
(7.14065e-14 -5.12581e-13 -1.91883e-14)
(2.53257e-14 -2.53167e-13 -1.67724e-14)
(1.47417e-12 -3.55776e-13 -1.38388e-13)
(1.15842e-12 -1.22275e-12 -1.15504e-13)
(8.62687e-13 -1.61008e-12 -9.2219e-14)
(6.34954e-13 -1.37306e-12 -7.39351e-14)
(4.59952e-13 -1.17136e-12 -6.00027e-14)
(3.24724e-13 -1.00579e-12 -4.97629e-14)
(2.1984e-13 -8.68183e-13 -4.07241e-14)
(1.38334e-13 -7.53786e-13 -3.43977e-14)
(7.48037e-14 -6.52935e-13 -2.96673e-14)
(2.61638e-14 -3.17502e-13 -2.54519e-14)
(2.05101e-12 -8.82057e-13 -2.44977e-13)
(1.5326e-12 -2.19851e-12 -1.97231e-13)
(1.09322e-12 -2.41691e-12 -1.52786e-13)
(7.7373e-13 -1.97915e-12 -1.18953e-13)
(5.40742e-13 -1.62845e-12 -9.47687e-14)
(3.69294e-13 -1.35222e-12 -7.60679e-14)
(2.42504e-13 -1.1313e-12 -6.1646e-14)
(1.4842e-13 -9.53997e-13 -5.08857e-14)
(7.85203e-14 -8.04804e-13 -4.27626e-14)
(2.71019e-14 -3.8565e-13 -3.60419e-14)
(2.97699e-12 -1.75874e-12 -4.36886e-13)
(2.06483e-12 -3.73374e-12 -3.34555e-13)
(1.40367e-12 -3.58941e-12 -2.48307e-13)
(9.51547e-13 -2.81298e-12 -1.8779e-13)
(6.39565e-13 -2.2251e-12 -1.44655e-13)
(4.21714e-13 -1.78266e-12 -1.13099e-13)
(2.68237e-13 -1.4436e-12 -8.97556e-14)
(1.59548e-13 -1.1811e-12 -7.22077e-14)
(8.22471e-14 -9.69155e-13 -5.89088e-14)
(2.80743e-14 -4.57386e-13 -4.94362e-14)
(1.83181e-10 -3.37471e-12 -8.23218e-13)
(3.68513e-12 -6.31836e-12 -5.66531e-13)
(1.82019e-12 -5.31904e-12 -4.01077e-13)
(1.17458e-12 -3.96976e-12 -2.91367e-13)
(7.55788e-13 -3.00839e-12 -2.16168e-13)
(4.78732e-13 -2.31934e-12 -1.63713e-13)
(2.93336e-13 -1.81425e-12 -1.25684e-13)
(1.68233e-13 -1.43878e-12 -9.88739e-14)
(8.31765e-14 -1.14767e-12 -7.84905e-14)
(2.61889e-14 -5.32884e-13 -6.35109e-14)
(2.43718e-07 -5.10452e-10 -1.75001e-10)
(6.20864e-10 -4.75619e-10 -3.28293e-12)
(2.6366e-12 -1.01729e-11 -1.35755e-12)
(1.08895e-12 -5.61422e-12 -8.49401e-13)
(7.25991e-13 -4.05432e-12 -5.554e-13)
(4.88322e-13 -2.99767e-12 -3.78085e-13)
(3.28365e-13 -2.25937e-12 -2.65652e-13)
(2.19273e-13 -1.73351e-12 -1.91792e-13)
(1.43966e-13 -1.34274e-12 -1.41316e-13)
(9.16508e-14 -6.14311e-13 -1.06372e-13)
(2.27785e-13 3.71934e-13 -1.3733e-14)
(2.14982e-13 3.46385e-13 -1.17222e-14)
(1.88469e-13 -5.18632e-14 -9.52642e-15)
(1.63186e-13 -5.33248e-14 -6.78003e-15)
(1.38901e-13 -5.23279e-14 -5.12996e-15)
(1.1577e-13 -5.1451e-14 -3.08105e-15)
(9.36391e-14 -5.06674e-14 -2.05419e-15)
(7.25411e-14 -4.99919e-14 -1.39098e-15)
(5.23534e-14 -4.87194e-14 -6.64965e-16)
(3.31336e-14 -2.52976e-14 -6.57193e-16)
(5.00355e-13 3.37775e-13 -2.02126e-14)
(4.62013e-13 2.40344e-13 -1.78576e-14)
(3.9579e-13 -1.8956e-13 -1.33604e-14)
(3.34025e-13 -1.84779e-13 -1.06208e-14)
(2.76705e-13 -1.77794e-13 -8.2217e-15)
(2.23333e-13 -1.70914e-13 -5.92302e-15)
(1.73754e-13 -1.64504e-13 -4.35511e-15)
(1.27607e-13 -1.58407e-13 -3.23142e-15)
(8.46305e-14 -1.51903e-13 -2.89844e-15)
(4.51082e-14 -7.83557e-14 -2.40759e-15)
(6.19489e-13 2.72179e-13 -3.24425e-14)
(5.50888e-13 7.17552e-14 -2.8628e-14)
(4.55272e-13 -3.85168e-13 -2.2933e-14)
(3.69649e-13 -3.63351e-13 -1.8693e-14)
(2.93881e-13 -3.40313e-13 -1.45695e-14)
(2.26495e-13 -3.1918e-13 -1.14989e-14)
(1.66653e-13 -2.99556e-13 -9.41441e-15)
(1.13351e-13 -2.81682e-13 -8.28796e-15)
(6.58824e-14 -2.63142e-13 -7.21258e-15)
(2.43495e-14 -1.3377e-13 -6.34718e-15)
(8.14491e-13 1.57279e-13 -5.60954e-14)
(6.97708e-13 -1.91152e-13 -4.8378e-14)
(5.58996e-13 -6.62179e-13 -3.95252e-14)
(4.40663e-13 -6.0536e-13 -3.23049e-14)
(3.4046e-13 -5.50641e-13 -2.62013e-14)
(2.5541e-13 -5.022e-13 -2.1475e-14)
(1.83077e-13 -4.5909e-13 -1.84014e-14)
(1.21676e-13 -4.20741e-13 -1.59952e-14)
(6.93533e-14 -3.83557e-13 -1.42669e-14)
(2.53856e-14 -1.92183e-13 -1.25061e-14)
(1.08985e-12 -3.76651e-14 -9.76762e-14)
(8.95603e-13 -5.99397e-13 -8.34276e-14)
(6.93464e-13 -1.05587e-12 -6.79366e-14)
(5.29191e-13 -9.33149e-13 -5.55372e-14)
(3.96593e-13 -8.2314e-13 -4.5909e-14)
(2.89128e-13 -7.29303e-13 -3.84339e-14)
(2.01724e-13 -6.47978e-13 -3.18722e-14)
(1.30804e-13 -5.77929e-13 -2.72108e-14)
(7.29302e-14 -5.13927e-13 -2.32577e-14)
(2.65779e-14 -2.53858e-13 -2.0774e-14)
(1.48567e-12 -3.62357e-13 -1.7188e-13)
(1.16766e-12 -1.23228e-12 -1.43417e-13)
(8.699e-13 -1.6187e-12 -1.14102e-13)
(6.40537e-13 -1.37978e-12 -9.14217e-14)
(4.64454e-13 -1.17665e-12 -7.43886e-14)
(3.28287e-13 -1.01024e-12 -6.15253e-14)
(2.22768e-13 -8.71776e-13 -5.07056e-14)
(1.40717e-13 -7.56478e-13 -4.25596e-14)
(7.68095e-14 -6.55279e-13 -3.64727e-14)
(2.78161e-14 -3.18834e-13 -3.15913e-14)
(2.07032e-12 -8.95583e-13 -3.04325e-13)
(1.54741e-12 -2.21628e-12 -2.43649e-13)
(1.10429e-12 -2.43226e-12 -1.89005e-13)
(7.82093e-13 -1.99109e-12 -1.47815e-13)
(5.47194e-13 -1.63774e-12 -1.1793e-13)
(3.74278e-13 -1.35969e-12 -9.46522e-14)
(2.46489e-13 -1.13725e-12 -7.71039e-14)
(1.51513e-13 -9.58726e-13 -6.29139e-14)
(8.09818e-14 -8.08619e-13 -5.28537e-14)
(2.91376e-14 -3.87818e-13 -4.46983e-14)
(3.01215e-12 -1.78583e-12 -5.41524e-13)
(2.08864e-12 -3.76791e-12 -4.14481e-13)
(1.42051e-12 -3.61713e-12 -3.08537e-13)
(9.63797e-13 -2.83363e-12 -2.33568e-13)
(6.48577e-13 -2.24075e-12 -1.8016e-13)
(4.28482e-13 -1.79486e-12 -1.41198e-13)
(2.73329e-13 -1.45324e-12 -1.12312e-13)
(1.6348e-13 -1.18866e-12 -8.95916e-14)
(8.5274e-14 -9.75049e-13 -7.29699e-14)
(3.0459e-14 -4.60668e-13 -6.08015e-14)
(1.92976e-10 -3.43491e-12 -9.94856e-13)
(3.77478e-12 -6.39004e-12 -7.0393e-13)
(1.8479e-12 -5.36865e-12 -5.00655e-13)
(1.19329e-12 -4.00527e-12 -3.63655e-13)
(7.68793e-13 -3.0345e-12 -2.70478e-13)
(4.8799e-13 -2.33906e-12 -2.04681e-13)
(3.00082e-13 -1.8292e-12 -1.57384e-13)
(1.732e-13 -1.45021e-12 -1.2308e-13)
(8.68511e-14 -1.15664e-12 -9.79001e-14)
(2.89385e-14 -5.38004e-13 -7.91783e-14)
(2.67476e-07 -5.43378e-10 -2.11255e-10)
(6.73436e-10 -5.00941e-10 -1.77156e-12)
(2.93417e-12 -1.03388e-11 -8.22458e-13)
(1.17326e-12 -5.64819e-12 -5.66776e-13)
(7.79242e-13 -4.08067e-12 -4.02155e-13)
(5.22685e-13 -3.01818e-12 -2.9298e-13)
(3.51338e-13 -2.27555e-12 -2.18339e-13)
(2.35011e-13 -1.74638e-12 -1.6511e-13)
(1.55015e-13 -1.35291e-12 -1.27192e-13)
(1.0009e-13 -6.19637e-13 -1.00276e-13)
(2.28459e-13 3.71422e-13 -1.62549e-14)
(2.15621e-13 3.45478e-13 -1.41815e-14)
(1.88878e-13 -5.28088e-14 -1.08717e-14)
(1.6353e-13 -5.43154e-14 -8.42202e-15)
(1.39256e-13 -5.31894e-14 -6.12701e-15)
(1.16039e-13 -5.22335e-14 -4.14098e-15)
(9.39084e-14 -5.12026e-14 -2.4665e-15)
(7.27212e-14 -5.01555e-14 -1.80717e-15)
(5.2535e-14 -4.87082e-14 -3.24033e-15)
(3.33464e-14 -2.53758e-14 -8.5264e-15)
(5.01958e-13 3.37157e-13 -2.41469e-14)
(4.63451e-13 2.38962e-13 -2.06423e-14)
(3.9695e-13 -1.9111e-13 -1.65108e-14)
(3.35013e-13 -1.85829e-13 -1.27831e-14)
(2.77513e-13 -1.78766e-13 -1.01572e-14)
(2.24065e-13 -1.71872e-13 -7.44576e-15)
(1.74421e-13 -1.65244e-13 -5.82352e-15)
(1.28274e-13 -1.58845e-13 -4.38772e-15)
(8.51648e-14 -1.51853e-13 -3.90777e-15)
(4.56302e-14 -7.84512e-14 -8.23307e-15)
(6.22388e-13 2.71146e-13 -3.89355e-14)
(5.53342e-13 6.97815e-14 -3.34794e-14)
(4.57352e-13 -3.87221e-13 -2.6864e-14)
(3.71432e-13 -3.6516e-13 -2.18721e-14)
(2.953e-13 -3.41816e-13 -1.73207e-14)
(2.27784e-13 -3.20347e-13 -1.42731e-14)
(1.67782e-13 -3.00287e-13 -1.15897e-14)
(1.1447e-13 -2.82226e-13 -1.02803e-14)
(6.68716e-14 -2.63599e-13 -9.7639e-15)
(2.51018e-14 -1.34092e-13 -1.10566e-14)
(8.19491e-13 1.55173e-13 -6.63706e-14)
(7.0193e-13 -1.94595e-13 -5.68526e-14)
(5.62489e-13 -6.65462e-13 -4.6384e-14)
(4.4355e-13 -6.08171e-13 -3.7938e-14)
(3.4298e-13 -5.53019e-13 -3.14593e-14)
(2.57574e-13 -5.0406e-13 -2.65008e-14)
(1.84922e-13 -4.60393e-13 -2.24848e-14)
(1.23219e-13 -4.2169e-13 -1.94438e-14)
(7.07186e-14 -3.84621e-13 -1.76435e-14)
(2.65849e-14 -1.92843e-13 -1.69837e-14)
(1.09825e-12 -4.17678e-14 -1.1647e-13)
(9.02559e-13 -6.05531e-13 -9.79788e-14)
(6.99057e-13 -1.06158e-12 -7.93494e-14)
(5.33685e-13 -9.37762e-13 -6.50159e-14)
(4.00342e-13 -8.26851e-13 -5.4022e-14)
(2.92287e-13 -7.32513e-13 -4.57411e-14)
(2.04402e-13 -6.50607e-13 -3.87599e-14)
(1.32957e-13 -5.80009e-13 -3.32815e-14)
(7.47645e-14 -5.15551e-13 -2.88664e-14)
(2.82504e-14 -2.54927e-13 -2.70669e-14)
(1.49983e-12 -3.70568e-13 -2.05875e-13)
(1.17884e-12 -1.24363e-12 -1.68346e-13)
(8.78574e-13 -1.62901e-12 -1.34168e-13)
(6.47418e-13 -1.38809e-12 -1.08249e-13)
(4.69928e-13 -1.18315e-12 -8.82828e-14)
(3.32717e-13 -1.01553e-12 -7.38167e-14)
(2.26407e-13 -8.7625e-13 -6.12137e-14)
(1.43619e-13 -7.60105e-13 -5.14931e-14)
(7.92615e-14 -6.58048e-13 -4.45685e-14)
(2.98233e-14 -3.20587e-13 -3.95169e-14)
(2.09414e-12 -9.12319e-13 -3.64065e-13)
(1.56535e-12 -2.23809e-12 -2.8614e-13)
(1.11769e-12 -2.45059e-12 -2.22246e-13)
(7.92323e-13 -2.00537e-12 -1.751e-13)
(5.5504e-13 -1.64899e-12 -1.39688e-13)
(3.80413e-13 -1.36876e-12 -1.13575e-13)
(2.51335e-13 -1.14473e-12 -9.27753e-14)
(1.5532e-13 -9.64659e-13 -7.59952e-14)
(8.39935e-14 -8.13259e-13 -6.41811e-14)
(3.15634e-14 -3.90676e-13 -5.5401e-14)
(3.05189e-12 -1.81949e-12 -6.48246e-13)
(2.11748e-12 -3.80923e-12 -4.86517e-13)
(1.44123e-12 -3.65029e-12 -3.64041e-13)
(9.78804e-13 -2.8587e-12 -2.76779e-13)
(6.59646e-13 -2.25985e-12 -2.14074e-13)
(4.36768e-13 -1.80962e-12 -1.68858e-13)
(2.79605e-13 -1.46517e-12 -1.35128e-13)
(1.68296e-13 -1.19818e-12 -1.0761e-13)
(8.89679e-14 -9.82385e-13 -8.82319e-14)
(3.33313e-14 -4.64989e-13 -7.38814e-14)
(2.00502e-10 -3.4714e-12 -9.30944e-13)
(3.82104e-12 -6.46672e-12 -8.26199e-13)
(1.87914e-12 -5.42819e-12 -5.93425e-13)
(1.21507e-12 -4.04859e-12 -4.32477e-13)
(7.8421e-13 -3.0665e-12 -3.23076e-13)
(4.99063e-13 -2.36319e-12 -2.45523e-13)
(3.08128e-13 -1.84784e-12 -1.90348e-13)
(1.79107e-13 -1.46438e-12 -1.47267e-13)
(9.12315e-14 -1.16768e-12 -1.17943e-13)
(3.22013e-14 -5.44405e-13 -9.61744e-14)
(2.87602e-07 -4.91763e-10 3.65786e-10)
(7.00894e-10 -5.19939e-10 2.55685e-12)
(2.84004e-12 -1.04409e-11 -9.39023e-13)
(1.19406e-12 -5.72006e-12 -6.66266e-13)
(7.93861e-13 -4.1322e-12 -4.76711e-13)
(5.33065e-13 -3.05565e-12 -3.4899e-13)
(3.58918e-13 -2.30364e-12 -2.61343e-13)
(2.40674e-13 -1.76762e-12 -1.97929e-13)
(1.59176e-13 -1.36884e-12 -1.52305e-13)
(1.03298e-13 -6.28589e-13 -1.21137e-13)
(2.29147e-13 3.71089e-13 -1.69597e-14)
(2.15857e-13 3.44295e-13 -1.00656e-14)
(1.89241e-13 -5.41064e-14 -7.88895e-15)
(1.6384e-13 -5.51875e-14 -6.92265e-15)
(1.39614e-13 -5.40416e-14 -8.43407e-15)
(1.16507e-13 -5.29637e-14 -1.19985e-14)
(9.44967e-14 -5.17234e-14 -1.8548e-14)
(7.37826e-14 -5.01238e-14 -5.6814e-14)
(5.45596e-14 -4.78575e-14 -2.29232e-13)
(3.53815e-14 -3.21188e-14 -7.47893e-13)
(5.03648e-13 3.36341e-13 -2.37081e-14)
(4.64405e-13 2.3763e-13 -1.25488e-14)
(3.9793e-13 -1.92449e-13 -1.13735e-14)
(3.35901e-13 -1.87156e-13 -9.91407e-15)
(2.78396e-13 -1.79882e-13 -1.067e-14)
(2.25034e-13 -1.72768e-13 -1.41011e-14)
(1.75424e-13 -1.66041e-13 -1.93838e-14)
(1.29469e-13 -1.60077e-13 -4.21254e-14)
(8.68567e-14 -1.53595e-13 -1.37865e-13)
(4.69701e-14 -9.01181e-14 -4.84079e-13)
(6.25325e-13 2.69869e-13 -3.88233e-14)
(5.5535e-13 6.77557e-14 -2.22791e-14)
(4.59105e-13 -3.89137e-13 -1.87113e-14)
(3.73045e-13 -3.66741e-13 -1.70385e-14)
(2.96924e-13 -3.43169e-13 -1.64901e-14)
(2.29437e-13 -3.21632e-13 -1.97983e-14)
(1.6942e-13 -3.01694e-13 -2.57719e-14)
(1.16035e-13 -2.83555e-13 -3.82397e-14)
(6.87592e-14 -2.66317e-13 -9.54694e-14)
(2.66351e-14 -1.46839e-13 -3.16673e-13)
(8.24622e-13 1.53172e-13 -6.67847e-14)
(7.05454e-13 -1.9738e-13 -4.10271e-14)
(5.65561e-13 -6.68311e-13 -3.45636e-14)
(4.46338e-13 -6.10443e-13 -3.10316e-14)
(3.45574e-13 -5.54859e-13 -2.99109e-14)