/*--------------------------------*- C++ -*----------------------------------*\
| =========                 |                                                 |
| \\      /  F ield         | OpenFOAM: The Open Source CFD Toolbox           |
|  \\    /   O peration     | Version:  4.1                                   |
|   \\  /    A nd           | Web:      www.OpenFOAM.org                      |
|    \\/     M anipulation  |                                                 |
\*---------------------------------------------------------------------------*/
FoamFile
{
    version     2.0;
    format      ascii;
    class       volScalarField;
    location    "8.5";
    object      T;
}
// * * * * * * * * * * * * * * * * * * * * * * * * * * * * * * * * * * * * * //

dimensions      [0 0 0 1 0 0 0];

internalField   nonuniform List<scalar> 
52500
(
0.999996
1.00002
1.00005
1.00019
1.00035
1.00114
1.00209
1.0064
1.01279
1.03447
1.08737
1.20565
1.59183
2.45565
2.69084
2.72699
2.72402
2.72434
2.73829
2.75037
2.76408
2.77276
2.78016
2.78519
2.78967
0.999996
1.00002
1.00005
1.00019
1.00035
1.00113
1.00207
1.00633
1.01266
1.03409
1.08662
1.2031
1.58742
2.4479
2.68805
2.72687
2.72365
2.72392
2.73772
2.74956
2.7632
2.77132
2.77875
2.78287
2.78663
0.999996
1.00002
1.00005
1.00019
1.00034
1.00111
1.00203
1.00618
1.01239
1.03333
1.08501
1.19787
1.57764
2.43041
2.68099
2.72572
2.72193
2.72205
2.73584
2.747
2.76065
2.76909
2.77528
2.78017
2.78264
0.999996
1.00002
1.00005
1.00018
1.00033
1.00107
1.00196
1.00597
1.01197
1.03217
1.08255
1.19
1.56231
2.40191
2.66993
2.7238
2.71923
2.71857
2.73143
2.74373
2.75467
2.76379
2.77107
2.77356
2.77776
0.999996
1.00002
1.00005
1.00017
1.00031
1.00101
1.00186
1.0056
1.01144
1.03027
1.07953
1.17988
1.54147
2.36076
2.6543
2.72121
2.71542
2.7138
2.72534
2.73785
2.75043
2.75514
2.76243
2.76716
2.76716
0.999996
1.00002
1.00004
1.00016
1.00029
1.00094
1.00174
1.00517
1.01079
1.02797
1.07515
1.16691
1.51606
2.30697
2.63418
2.71802
2.71166
2.7069
2.71941
2.72632
2.74091
2.74821
2.75103
2.75403
2.75742
0.999995
1.00002
1.00004
1.00015
1.00027
1.00087
1.00161
1.00476
1.00998
1.02576
1.06931
1.15359
1.47744
2.23327
2.6063
2.71321
2.70652
2.70021
2.71282
2.71978
2.72618
2.73356
2.73945
2.73945
2.73669
0.999995
1.00002
1.00003
1.00013
1.00025
1.0008
1.00148
1.00449
1.00901
1.02412
1.0615
1.14091
1.42063
2.12939
2.57049
2.70332
2.69516
2.68706
2.6991
2.70979
2.71707
2.71679
2.71809
2.71767
2.71457
0.999995
1.00001
1.00003
1.00012
1.00022
1.00073
1.00133
1.00415
1.00796
1.02247
1.05228
1.12627
1.35773
1.99941
2.5257
2.69364
2.68654
2.67246
2.68208
2.6875
2.69837
2.70042
2.69612
2.68569
2.66314
0.999995
1.00001
1.00003
1.0001
1.0002
1.00063
1.00117
1.00359
1.00698
1.0197
1.04464
1.11248
1.29796
1.89211
2.44545
2.66382
2.66375
2.65992
2.67149
2.67163
2.67323
2.6721
2.66346
2.64201
2.59061
1.00001
1.00003
1.00006
1.0002
1.00036
1.00115
1.0021
1.00641
1.0128
1.03449
1.08738
1.20569
1.59186
2.45577
2.69093
2.72706
2.7241
2.72442
2.73837
2.75045
2.76416
2.77284
2.78024
2.78528
2.78976
1.00001
1.00003
1.00006
1.0002
1.00036
1.00114
1.00208
1.00634
1.01267
1.03411
1.08663
1.20314
1.58745
2.44802
2.68813
2.72694
2.72373
2.72399
2.7378
2.74964
2.76328
2.7714
2.77883
2.78295
2.78672
1.00001
1.00003
1.00006
1.00019
1.00035
1.00111
1.00204
1.00619
1.0124
1.03334
1.08502
1.19791
1.57767
2.43053
2.68108
2.72579
2.722
2.72213
2.73591
2.74708
2.76072
2.76917
2.77536
2.78026
2.78273
1
1.00003
1.00006
1.00019
1.00034
1.00108
1.00197
1.00598
1.01198
1.03218
1.08256
1.19005
1.56234
2.40203
2.67002
2.72387
2.7193
2.71864
2.73151
2.7438
2.75474
2.76386
2.77115
2.77364
2.77785
1
1.00003
1.00005
1.00018
1.00032
1.00102
1.00187
1.00562
1.01144
1.0303
1.07954
1.17992
1.54149
2.36088
2.65438
2.72128
2.71549
2.71388
2.72542
2.73792
2.75051
2.75521
2.76251
2.76724
2.76724
1
1.00003
1.00005
1.00017
1.0003
1.00095
1.00175
1.00518
1.0108
1.02799
1.07516
1.16696
1.5161
2.30711
2.63426
2.71809
2.71173
2.70697
2.71949
2.7264
2.74098
2.74829
2.7511
2.75411
2.7575
1
1.00002
1.00005
1.00015
1.00028
1.00088
1.00162
1.00477
1.00999
1.02577
1.06933
1.15363
1.47749
2.23343
2.60638
2.71327
2.70659
2.70028
2.71289
2.71985
2.72625
2.73364
2.73952
2.73952
2.73676
1
1.00002
1.00004
1.00014
1.00026
1.00081
1.00148
1.0045
1.00902
1.02414
1.0615
1.14094
1.42065
2.12951
2.57057
2.70338
2.69522
2.68713
2.69917
2.70987
2.71714
2.71686
2.71816
2.71774
2.71464
1
1.00002
1.00004
1.00013
1.00023
1.00074
1.00134
1.00416
1.00797
1.02248
1.05229
1.12631
1.35776
1.99955
2.52578
2.69371
2.68661
2.67253
2.68214
2.68757
2.69844
2.70049
2.69619
2.68576
2.6632
1
1.00002
1.00003
1.00011
1.0002
1.00064
1.00118
1.0036
1.00699
1.01971
1.04465
1.11251
1.29799
1.8922
2.44556
2.66389
2.66382
2.65998
2.67155
2.67169
2.6733
2.67216
2.66353
2.64207
2.59067
1.00001
1.00003
1.00006
1.0002
1.00036
1.00115
1.0021
1.00641
1.0128
1.03449
1.08738
1.20569
1.59186
2.45578
2.69093
2.72706
2.7241
2.72442
2.73837
2.75045
2.76416
2.77284
2.78024
2.78528
2.78976
1.00001
1.00003
1.00006
1.0002
1.00036
1.00114
1.00208
1.00634
1.01267
1.03411
1.08663
1.20315
1.58745
2.44802
2.68813
2.72694
2.72373
2.72399
2.7378
2.74964
2.76328
2.7714
2.77883
2.78295
2.78672
1.00001
1.00003
1.00006
1.00019
1.00035
1.00111
1.00204
1.00619
1.0124
1.03334
1.08502
1.19791
1.57767
2.43054
2.68108
2.72579
2.722
2.72213
2.73591
2.74708
2.76072
2.76917
2.77536
2.78026
2.78273
1
1.00003
1.00006
1.00019
1.00034
1.00108
1.00197
1.00598
1.01198
1.03218
1.08256
1.19005
1.56234
2.40204
2.67002
2.72387
2.7193
2.71864
2.73151
2.7438
2.75474
2.76386
2.77115
2.77364
2.77785
1
1.00003
1.00005
1.00018
1.00032
1.00102
1.00187
1.00562
1.01144
1.0303
1.07954
1.17992
1.5415
2.36089
2.65438
2.72128
2.71549
2.71388
2.72542
2.73792
2.75051
2.75521
2.76251
2.76724
2.76724
1
1.00003
1.00005
1.00017
1.0003
1.00095
1.00175
1.00518
1.0108
1.02799
1.07517
1.16696
1.51611
2.30712
2.63427
2.71809
2.71173
2.70697
2.71949
2.7264
2.74098
2.74829
2.7511
2.75411
2.7575
1
1.00002
1.00005
1.00015
1.00028
1.00088
1.00162
1.00477
1.00999
1.02577
1.06933
1.15363
1.47749
2.23344
2.60638
2.71327
2.70659
2.70028
2.71289
2.71985
2.72625
2.73364
2.73952
2.73952
2.73676
1
1.00002
1.00004
1.00014
1.00026
1.00081
1.00148
1.0045
1.00902
1.02414
1.0615
1.14095
1.42065
2.12952
2.57058
2.70338
2.69522
2.68713
2.69917
2.70987
2.71714
2.71686
2.71816
2.71774
2.71464
1
1.00002
1.00004
1.00013
1.00023
1.00074
1.00134
1.00416
1.00797
1.02249
1.0523
1.12631
1.35777
1.99956
2.52578
2.69371
2.68661
2.67253
2.68215
2.68757
2.69844
2.70049
2.69619
2.68576
2.6632
1
1.00002
1.00003
1.00011
1.0002
1.00064
1.00118
1.0036
1.00699
1.01971
1.04465
1.11251
1.298
1.89221
2.44557
2.66389
2.66382
2.65998
2.67156
2.67169
2.6733
2.67216
2.66353
2.64207
2.59067
1.00001
1.00003
1.00006
1.0002
1.00036
1.00115
1.0021
1.00641
1.0128
1.03449
1.08738
1.20569
1.59186
2.45578
2.69093
2.72706
2.7241
2.72442
2.73837
2.75045
2.76416
2.77284
2.78024
2.78528
2.78976
1.00001
1.00003
1.00006
1.0002
1.00036
1.00114
1.00208
1.00634
1.01267
1.03411
1.08663
1.20315
1.58746
2.44802
2.68813
2.72694
2.72373
2.72399
2.7378
2.74964
2.76328
2.7714
2.77883
2.78295
2.78672
1.00001
1.00003
1.00006
1.00019
1.00035
1.00111
1.00204
1.00619
1.0124
1.03334
1.08502
1.19791
1.57767
2.43054
2.68108
2.72579
2.722
2.72213
2.73591
2.74708
2.76072
2.76917
2.77537
2.78026
2.78273
1
1.00003
1.00006
1.00019
1.00034
1.00108
1.00197
1.00598
1.01198
1.03218
1.08256
1.19005
1.56234
2.40204
2.67002
2.72387
2.7193
2.71864
2.73151
2.7438
2.75474
2.76386
2.77115
2.77364
2.77785
1
1.00003
1.00005
1.00018
1.00032
1.00102
1.00187
1.00562
1.01144
1.0303
1.07954
1.17992
1.5415
2.36089
2.65438
2.72128
2.71549
2.71388
2.72542
2.73792
2.75051
2.75521
2.76251
2.76724
2.76724
1
1.00003
1.00005
1.00017
1.0003
1.00095
1.00175
1.00518
1.0108
1.02799
1.07517
1.16696
1.51611
2.30712
2.63427
2.71809
2.71173
2.70697
2.71949
2.7264
2.74098
2.74829
2.7511
2.75411
2.7575
1
1.00002
1.00005
1.00015
1.00028
1.00088
1.00162
1.00477
1.00999
1.02577
1.06933
1.15363
1.47749
2.23344
2.60638
2.71327
2.70659
2.70028
2.71289
2.71985
2.72625
2.73364
2.73952
2.73952
2.73676
1
1.00002
1.00004
1.00014
1.00026
1.00081
1.00148
1.0045
1.00902
1.02414
1.0615
1.14095
1.42065
2.12953
2.57058
2.70338
2.69522
2.68713
2.69917
2.70987
2.71714
2.71686
2.71816
2.71774
2.71464
1
1.00002
1.00004
1.00013
1.00023
1.00074
1.00134
1.00416
1.00797
1.02249
1.0523
1.12631
1.35777
1.99956
2.52578
2.69371
2.68661
2.67253
2.68215
2.68757
2.69844
2.70049
2.69619
2.68576
2.6632
1
1.00002
1.00003
1.00011
1.0002
1.00064
1.00118
1.0036
1.00699
1.01971
1.04465
1.11251
1.298
1.89221
2.44557
2.66389
2.66382
2.65998
2.67156
2.67169
2.6733
2.67216
2.66353
2.64207
2.59067
1.00001
1.00003
1.00006
1.0002
1.00036
1.00115
1.0021
1.00641
1.0128
1.03449
1.08738
1.20569
1.59186
2.45578
2.69093
2.72706
2.7241
2.72442
2.73837
2.75045
2.76416
2.77284
2.78024
2.78528
2.78976
1.00001
1.00003
1.00006
1.0002
1.00036
1.00114
1.00208
1.00634
1.01267
1.03411
1.08663
1.20315
1.58746
2.44802
2.68813
2.72694
2.72373
2.72399
2.7378
2.74964
2.76328
2.7714
2.77883
2.78295
2.78672
1.00001
1.00003
1.00006
1.00019
1.00035
1.00111
1.00204
1.00619
1.0124
1.03334
1.08502
1.19791
1.57767
2.43054
2.68108
2.72579
2.722
2.72213
2.73591
2.74708
2.76072
2.76917
2.77536
2.78026
2.78273
1
1.00003
1.00006
1.00019
1.00034
1.00108
1.00197
1.00598
1.01198
1.03218
1.08256
1.19005
1.56234
2.40204
2.67002
2.72387
2.7193
2.71864
2.73151
2.7438
2.75474
2.76386
2.77115
2.77364
2.77785
1
1.00003
1.00005
1.00018
1.00032
1.00102
1.00187
1.00562
1.01144
1.0303
1.07954
1.17992
1.5415
2.36089
2.65438
2.72128
2.71549
2.71388
2.72542
2.73792
2.75051
2.75521
2.76251
2.76724
2.76724
1
1.00003
1.00005
1.00017
1.0003
1.00095
1.00175
1.00518
1.0108
1.02799
1.07517
1.16696
1.51611
2.30712
2.63427
2.71809
2.71173
2.70697
2.71949
2.7264
2.74098
2.74829
2.7511
2.75411
2.7575
1
1.00002
1.00005
1.00015
1.00028
1.00088
1.00162
1.00477
1.00999
1.02577
1.06933
1.15363
1.47749
2.23344
2.60638
2.71327
2.70659
2.70028
2.71289
2.71985
2.72625
2.73364
2.73952
2.73952
2.73676
1
1.00002
1.00004
1.00014
1.00026
1.00081
1.00148
1.0045
1.00902
1.02414
1.0615
1.14095
1.42065
2.12953
2.57058
2.70338
2.69522
2.68713
2.69917
2.70987
2.71714
2.71686
2.71816
2.71774
2.71464
1
1.00002
1.00004
1.00013
1.00023
1.00074
1.00134
1.00416
1.00797
1.02249
1.0523
1.12631
1.35777
1.99956
2.52578
2.69371
2.68661
2.67253
2.68215
2.68757
2.69844
2.70049
2.69619
2.68576
2.6632
1
1.00002
1.00003
1.00011
1.0002
1.00064
1.00118
1.0036
1.00699
1.01971
1.04465
1.11251
1.298
1.89221
2.44557
2.66389
2.66382
2.65998
2.67156
2.67169
2.6733
2.67216
2.66353
2.64207
2.59067
1.00001
1.00003
1.00006
1.0002
1.00036
1.00115
1.0021
1.00641
1.0128
1.03449
1.08738
1.20569
1.59186
2.45578
2.69093
2.72706
2.7241
2.72442
2.73837
2.75045
2.76416
2.77284
2.78024
2.78528
2.78976
1.00001
1.00003
1.00006
1.0002
1.00036
1.00114
1.00208
1.00634
1.01267
1.03411
1.08663
1.20315
1.58746
2.44802
2.68813
2.72694
2.72373
2.72399
2.7378
2.74964
2.76328
2.7714
2.77883
2.78295
2.78672
1.00001
1.00003
1.00006
1.00019
1.00035
1.00111
1.00204
1.00619
1.0124
1.03334
1.08502
1.19791
1.57767
2.43054
2.68108
2.72579
2.722
2.72213
2.73591
2.74708
2.76072
2.76917
2.77536
2.78026
2.78273
1
1.00003
1.00006
1.00019
1.00034
1.00108
1.00197
1.00598
1.01198
1.03218
1.08256
1.19005
1.56234
2.40204
2.67002
2.72387
2.7193
2.71864
2.73151
2.7438
2.75474
2.76386
2.77115
2.77364
2.77785
1
1.00003
1.00005
1.00018
1.00032
1.00102
1.00187
1.00562
1.01144
1.0303
1.07954
1.17992
1.5415
2.36089
2.65438
2.72128
2.71549
2.71388
2.72542
2.73792
2.75051
2.75521
2.76251
2.76724
2.76724
1
1.00003
1.00005
1.00017
1.0003
1.00095
1.00175
1.00518
1.0108
1.02799
1.07517
1.16696
1.51611
2.30712
2.63427
2.71809
2.71173
2.70697
2.71949
2.7264
2.74098
2.74829
2.7511
2.75411
2.7575
1
1.00002
1.00005
1.00015
1.00028
1.00088
1.00162
1.00477
1.00999
1.02577
1.06933
1.15363
1.47749
2.23344
2.60638
2.71327
2.70659
2.70028
2.71289
2.71985
2.72625
2.73364
2.73952
2.73952
2.73676
1
1.00002
1.00004
1.00014
1.00026
1.00081
1.00148
1.0045
1.00902
1.02414
1.0615
1.14095
1.42065
2.12953
2.57058
2.70338
2.69522
2.68713
2.69917
2.70987
2.71714
2.71686
2.71816
2.71774
2.71464
1
1.00002
1.00004
1.00013
1.00023
1.00074
1.00134
1.00416
1.00797
1.02249
1.0523
1.12631
1.35777
1.99956
2.52578
2.69371
2.68661
2.67253
2.68215
2.68757
2.69844
2.70049
2.69619
2.68576
2.6632
1
1.00002
1.00003
1.00011
1.0002
1.00064
1.00118
1.0036
1.00699
1.01971
1.04465
1.11251
1.298
1.89221
2.44557
2.66389
2.66382
2.65998
2.67156
2.67169
2.6733
2.67216
2.66353
2.64207
2.59067
1.00001
1.00003
1.00006
1.0002
1.00036
1.00115
1.0021
1.00641
1.0128
1.03449
1.08738
1.20569
1.59186
2.45578
2.69093
2.72706
2.7241
2.72442
2.73837
2.75045
2.76416
2.77284
2.78024
2.78528
2.78976
1.00001
1.00003
1.00006
1.0002
1.00036
1.00114
1.00208
1.00634
1.01267
1.03411
1.08663
1.20315
1.58746
2.44802
2.68813
2.72694
2.72373
2.72399
2.7378
2.74964
2.76328
2.7714
2.77883
2.78295
2.78672
1.00001
1.00003
1.00006
1.00019
1.00035
1.00111
1.00204
1.00619
1.0124
1.03334
1.08502
1.19791
1.57767
2.43054
2.68108
2.72579
2.722
2.72213
2.73591
2.74708
2.76072
2.76917
2.77537
2.78026
2.78273
1
1.00003
1.00006
1.00019
1.00034
1.00108
1.00197
1.00598
1.01198
1.03218
1.08256
1.19005
1.56234
2.40204
2.67002
2.72387
2.7193
2.71864
2.73151
2.7438
2.75474
2.76386
2.77115
2.77364
2.77785
1
1.00003
1.00005
1.00018
1.00032
1.00102
1.00187
1.00562
1.01144
1.0303
1.07954
1.17992
1.5415
2.36089
2.65438
2.72128
2.71549
2.71388
2.72542
2.73792
2.75051
2.75521
2.76251
2.76724
2.76724
1
1.00003
1.00005
1.00017
1.0003
1.00095
1.00175
1.00518
1.0108
1.02799
1.07517
1.16696
1.51611
2.30712
2.63427
2.71809
2.71173
2.70697
2.71949
2.7264
2.74098
2.74829
2.7511
2.75411
2.7575
1
1.00002
1.00005
1.00015
1.00028
1.00088
1.00162
1.00477
1.00999
1.02577
1.06933
1.15363
1.47749
2.23344
2.60638
2.71327
2.70659
2.70028
2.71289
2.71985
2.72625
2.73364
2.73952
2.73952
2.73676
1
1.00002
1.00004
1.00014
1.00026
1.00081
1.00148
1.0045
1.00902
1.02414
1.0615
1.14095
1.42065
2.12953
2.57058
2.70338
2.69522
2.68713
2.69917
2.70987
2.71714
2.71686
2.71816
2.71774
2.71464
1
1.00002
1.00004
1.00013
1.00023
1.00074
1.00134
1.00416
1.00797
1.02249
1.0523
1.12631
1.35777
1.99956
2.52578
2.69371
2.68661
2.67253
2.68215
2.68757
2.69844
2.70049
2.69619
2.68576
2.6632
1
1.00002
1.00003
1.00011
1.0002
1.00064
1.00118
1.0036
1.00699
1.01971
1.04465
1.11251
1.298
1.89221
2.44557
2.66389
2.66382
2.65998
2.67156
2.67169
2.6733
2.67216
2.66353
2.64207
2.59067
1.00001
1.00003
1.00006
1.0002
1.00036
1.00115
1.0021
1.00641
1.0128
1.03449
1.08738
1.20569
1.59186
2.45578
2.69093
2.72706
2.7241
2.72442
2.73837
2.75045
2.76416
2.77284
2.78024
2.78528
2.78976
1.00001
1.00003
1.00006
1.0002
1.00036
1.00114
1.00208
1.00634
1.01267
1.03411
1.08663
1.20315
1.58745
2.44802
2.68813
2.72694
2.72373
2.72399
2.7378
2.74964
2.76328
2.7714
2.77883
2.78295
2.78672
1.00001
1.00003
1.00006
1.00019
1.00035
1.00111
1.00204
1.00619
1.0124
1.03334
1.08502
1.19791
1.57767
2.43054
2.68108
2.72579
2.722
2.72213
2.73591
2.74708
2.76072
2.76917
2.77536
2.78026
2.78273
1
1.00003
1.00006
1.00019
1.00034
1.00108
1.00197
1.00598
1.01198
1.03218
1.08256
1.19005
1.56234
2.40204
2.67002
2.72387
2.7193
2.71864
2.73151
2.7438
2.75474
2.76386
2.77115
2.77364
2.77785
1
1.00003
1.00005
1.00018
1.00032
1.00102
1.00187
1.00562
1.01144
1.0303
1.07954
1.17992
1.5415
2.36089
2.65438
2.72128
2.71549
2.71388
2.72542
2.73792
2.75051
2.75521
2.76251
2.76724
2.76724
1
1.00003
1.00005
1.00017
1.0003
1.00095
1.00175
1.00518
1.0108
1.02799
1.07517
1.16696
1.51611
2.30712
2.63427
2.71809
2.71173
2.70697
2.71949
2.7264
2.74098
2.74829
2.7511
2.75411
2.7575
1
1.00002
1.00005
1.00015
1.00028
1.00088
1.00162
1.00477
1.00999
1.02577
1.06933
1.15363
1.47749
2.23344
2.60638
2.71327
2.70659
2.70028
2.71289
2.71985
2.72625
2.73364
2.73952
2.73952
2.73676
1
1.00002
1.00004
1.00014
1.00026
1.00081
1.00148
1.0045
1.00902
1.02414
1.0615
1.14095
1.42065
2.12952
2.57058
2.70338
2.69522
2.68713
2.69917
2.70987
2.71714
2.71686
2.71816
2.71774
2.71464
1
1.00002
1.00004
1.00013
1.00023
1.00074
1.00134
1.00416
1.00797
1.02249
1.0523
1.12631
1.35777
1.99956
2.52578
2.69371
2.68661
2.67253
2.68215
2.68757
2.69844
2.70049
2.69619
2.68576
2.6632
1
1.00002
1.00003
1.00011
1.0002
1.00064
1.00118
1.0036
1.00699
1.01971
1.04465
1.11251
1.298
1.89221
2.44557
2.66389
2.66382
2.65998
2.67156
2.67169
2.6733
2.67216
2.66353
2.64207
2.59067
1.00001
1.00003
1.00006
1.0002
1.00036
1.00115
1.0021
1.00641
1.0128
1.03449
1.08738
1.20569
1.59186
2.45577
2.69093
2.72706
2.7241
2.72442
2.73837
2.75045
2.76416
2.77284
2.78024
2.78528
2.78976
1.00001
1.00003
1.00006
1.0002
1.00036
1.00114
1.00208
1.00634
1.01267
1.03411
1.08663
1.20314
1.58745
2.44802
2.68813
2.72694
2.72373
2.72399
2.7378
2.74964
2.76328
2.7714
2.77883
2.78295
2.78672
1.00001
1.00003
1.00006
1.00019
1.00035
1.00111
1.00204
1.00619
1.0124
1.03334
1.08502
1.19791
1.57767
2.43053
2.68108
2.72579
2.722
2.72213
2.73591
2.74708
2.76072
2.76917
2.77536
2.78026
2.78273
1
1.00003
1.00006
1.00019
1.00034
1.00108
1.00197
1.00598
1.01198
1.03218
1.08256
1.19005
1.56234
2.40203
2.67002
2.72387
2.7193
2.71864
2.73151
2.7438
2.75474
2.76386
2.77115
2.77364
2.77785
1
1.00003
1.00005
1.00018
1.00032
1.00102
1.00187
1.00562
1.01144
1.0303
1.07954
1.17992
1.54149
2.36088
2.65438
2.72128
2.71549
2.71388
2.72542
2.73792
2.75051
2.75521
2.76251
2.76724
2.76724
1
1.00003
1.00005
1.00017
1.0003
1.00095
1.00175
1.00518
1.0108
1.02799
1.07516
1.16696
1.5161
2.30711
2.63426
2.71809
2.71173
2.70697
2.71949
2.7264
2.74098
2.74829
2.7511
2.75411
2.7575
1
1.00002
1.00005
1.00015
1.00028
1.00088
1.00162
1.00477
1.00999
1.02577
1.06933
1.15363
1.47749
2.23343
2.60638
2.71327
2.70659
2.70028
2.71289
2.71985
2.72625
2.73364
2.73952
2.73952
2.73676
1
1.00002
1.00004
1.00014
1.00026
1.00081
1.00148
1.0045
1.00902
1.02414
1.0615
1.14094
1.42065
2.12951
2.57057
2.70338
2.69522
2.68713
2.69917
2.70987
2.71714
2.71686
2.71816
2.71774
2.71464
1
1.00002
1.00004
1.00013
1.00023
1.00074
1.00134
1.00416
1.00797
1.02248
1.05229
1.12631
1.35776
1.99955
2.52578
2.69371
2.68661
2.67253
2.68214
2.68757
2.69844
2.70049
2.69619
2.68576
2.6632
1
1.00002
1.00003
1.00011
1.0002
1.00064
1.00118
1.0036
1.00699
1.01971
1.04465
1.11251
1.29799
1.8922
2.44556
2.66389
2.66382
2.65998
2.67155
2.67169
2.6733
2.67216
2.66353
2.64207
2.59067
0.999996
1.00002
1.00005
1.00019
1.00035
1.00114
1.00209
1.0064
1.01279
1.03447
1.08737
1.20565
1.59183
2.45565
2.69084
2.72699
2.72402
2.72434
2.73829
2.75037
2.76408
2.77276
2.78016
2.78519
2.78967
0.999996
1.00002
1.00005
1.00019
1.00035
1.00113
1.00207
1.00633
1.01266
1.03409
1.08662
1.2031
1.58742
2.4479
2.68804
2.72687
2.72365
2.72392
2.73772
2.74956
2.7632
2.77132
2.77875
2.78287
2.78663
0.999996
1.00002
1.00005
1.00019
1.00034
1.00111
1.00203
1.00618
1.01239
1.03333
1.08501
1.19787
1.57764
2.43041
2.68099
2.72572
2.72193
2.72205
2.73584
2.747
2.76065
2.76909
2.77528
2.78017
2.78264
0.999996
1.00002
1.00005
1.00018
1.00033
1.00107
1.00196
1.00597
1.01197
1.03217
1.08255
1.19
1.56231
2.40191
2.66993
2.7238
2.71923
2.71857
2.73143
2.74373
2.75467
2.76379
2.77107
2.77356
2.77776
0.999996
1.00002
1.00005
1.00017
1.00031
1.00101
1.00186
1.0056
1.01144
1.03027
1.07953
1.17988
1.54147
2.36076
2.6543
2.72121
2.71542
2.7138
2.72534
2.73785
2.75043
2.75514
2.76243
2.76716
2.76716
0.999996
1.00002
1.00004
1.00016
1.00029
1.00094
1.00174
1.00517
1.01079
1.02797
1.07515
1.16691
1.51606
2.30697
2.63418
2.71802
2.71166
2.7069
2.71941
2.72632
2.74091
2.74821
2.75103
2.75403
2.75742
0.999995
1.00002
1.00004
1.00015
1.00027
1.00087
1.00161
1.00476
1.00998
1.02576
1.06931
1.15359
1.47744
2.23327
2.6063
2.71321
2.70652
2.70021
2.71282
2.71978
2.72618
2.73356
2.73945
2.73945
2.73669
0.999995
1.00002
1.00003
1.00013
1.00025
1.0008
1.00148
1.00449
1.00901
1.02412
1.0615
1.14091
1.42063
2.12939
2.57049
2.70332
2.69516
2.68706
2.6991
2.70979
2.71707
2.71679
2.71809
2.71767
2.71457
0.999995
1.00001
1.00003
1.00012
1.00022
1.00073
1.00133
1.00415
1.00796
1.02247
1.05228
1.12627
1.35773
1.99941
2.5257
2.69364
2.68654
2.67246
2.68208
2.6875
2.69837
2.70042
2.69612
2.68569
2.66314
0.999995
1.00001
1.00003
1.0001
1.0002
1.00063
1.00117
1.00359
1.00698
1.0197
1.04464
1.11248
1.29796
1.89211
2.44545
2.66382
2.66375
2.65992
2.67149
2.67163
2.67323
2.6721
2.66346
2.64201
2.59061
0.999997
1
1.00003
1.00006
1.00022
1.00041
1.00128
1.00245
1.0069
1.01535
1.0382
1.10596
1.24207
1.67356
2.48747
2.63905
2.62621
2.63208
2.64449
2.6534
2.65161
2.64284
2.62184
2.57236
2.41265
0.999996
1
1.00003
1.00006
1.0002
1.00036
1.00117
1.00213
1.00657
1.01298
1.03524
1.0876
1.20996
1.58874
2.42176
2.61535
2.62204
2.6155
2.61706
2.62697
2.62584
2.61185
2.57751
2.51935
2.35932
0.999996
1
1.00002
1.00005
1.00017
1.00031
1.00099
1.00182
1.00546
1.01111
1.02939
1.07676
1.17343
1.51901
2.29538
2.56664
2.61844
2.61016
2.59433
2.5953
2.5946
2.58116
2.54088
2.48521
2.3617
0.999995
0.999999
1.00002
1.00004
1.00014
1.00025
1.00082
1.00152
1.00448
1.00937
1.02411
1.06443
1.14274
1.43931
2.12738
2.50986
2.61455
2.60264
2.58837
2.5696
2.5588
2.54505
2.51284
2.46725
2.36827
0.999995
0.999998
1.00001
1.00003
1.00011
1.00021
1.00069
1.00127
1.00392
1.00762
1.02136
1.04939
1.12167
1.33223
1.96792
2.3937
2.58339
2.5815
2.57597
2.56039
2.53558
2.51122
2.47393
2.44365
2.37416
0.999994
0.999999
1
1.00003
1.00006
1.00022
1.00041
1.00127
1.00244
1.00682
1.01523
1.03766
1.10379
1.2385
1.64212
2.36482
2.54149
2.54179
2.54341
2.53831
2.52197
2.49809
2.44806
2.40713
2.36605
0.999994
0.999998
1
1.00002
1.00005
1.00018
1.00033
1.00108
1.00196
1.00603
1.01189
1.03219
1.0805
1.1874
1.53893
2.28685
2.5042
2.52319
2.51438
2.50918
2.4965
2.48191
2.44583
2.38858
2.34339
0.999994
0.999996
1
1.00002
1.00004
1.00014
1.00025
1.0008
1.00153
1.00435
1.0095
1.02375
1.0651
1.1425
1.44132
2.12104
2.44223
2.51547
2.49837
2.48932
2.47003
2.44798
2.43148
2.38825
2.33519
0.999993
0.999994
1
1.00001
1.00004
1.00007
1.00024
1.00047
1.00133
1.00293
1.00725
1.01932
1.0432
1.12826
1.28709
1.83216
2.309
2.49183
2.48759
2.47607
2.45989
2.43069
2.40376
2.38009
2.33436
0.999993
0.999994
0.999998
1
1.00003
1.00006
1.0002
1.00037
1.00116
1.00216
1.00644
1.01325
1.03467
1.08908
1.20937
1.56915
2.25974
2.42916
2.45158
2.44516
2.43589
2.41757
2.38685
2.36328
2.33081
0.999992
0.999993
0.999995
1
1.00001
1.00005
1.00011
1.00034
1.00065
1.00183
1.00404
1.00993
1.02677
1.0591
1.1795
1.40572
2.05585
2.39001
2.44083
2.43126
2.41427
2.39834
2.3737
2.34678
2.32112
0.999992
0.999993
0.999994
1
1.00001
1.00004
1.00008
1.00027
1.0005
1.00155
1.00294
1.00825
1.01848
1.04522
1.12683
1.29069
1.75928
2.26238
2.41721
2.41467
2.40087
2.382
2.36208
2.33767
2.31183
0.999992
0.999992
0.999994
0.999996
1.00001
1.00002
1.00008
1.00015
1.00047
1.00089
1.00269
1.00527
1.01477
1.03231
1.08416
1.20284
1.60719
2.09875
2.36478
2.39299
2.38671
2.37214
2.34747
2.32818
2.30355
0.999991
0.999992
0.999993
0.999994
1
1.00001
1.00005
1.0001
1.00034
1.00063
1.00194
1.00372
1.01036
1.02328
1.0565
1.15559
1.37346
1.91304
2.25681
2.36448
2.369
2.36228
2.34504
2.32371
2.30495
0.999991
0.999992
0.999992
0.999994
0.999997
1.00001
1.00003
1.0001
1.00018
1.00058
1.00109
1.00325
1.0064
1.01756
1.03967
1.09883
1.25137
1.7098
2.13347
2.31157
2.33606
2.33782
2.33418
2.32417
2.31097
0.999991
0.999991
0.999992
0.999993
0.999995
1
1.00002
1.00007
1.00013
1.00041
1.00076
1.00233
1.00442
1.01264
1.02713
1.06808
1.17343
1.46274
1.98227
2.25882
2.30875
2.31774
2.31956
2.32187
2.32395
0.999991
0.999991
0.999991
0.999992
0.999995
0.999998
1.00001
1.00003
1.00011
1.00022
1.00068
1.00126
1.00378
1.00746
1.02006
1.04795
1.11213
1.30805
1.80748
2.15876
2.28992
2.29849
2.30549
2.31691
2.33932
0.999991
0.999991
0.999991
0.999992
0.999993
0.999996
1.00001
1.00002
1.00008
1.00015
1.00047
1.00087
1.00265
1.00506
1.01451
1.03
1.08192
1.18462
1.58054
1.98305
2.24265
2.29717
2.30978
2.3269
2.35147
0.999991
0.999991
0.999991
0.999992
0.999992
0.999995
0.999999
1.00001
1.00003
1.00012
1.00024
1.00073
1.00139
1.00393
1.00839
1.02111
1.0552
1.12295
1.35078
1.89054
2.14155
2.2711
2.32278
2.34931
2.38058
0.999991
0.999991
0.999991
0.999991
0.999992
0.999993
0.999998
1
1.00003
1.00006
1.00021
1.00039
1.0012
1.00227
1.00654
1.01361
1.0349
1.08677
1.20883
1.52318
2.09429
2.27365
2.35043
2.38606
2.41072
0.999991
0.999991
0.999991
0.999991
0.999992
0.999992
0.999996
1
1.00002
1.00004
1.00014
1.00027
1.00083
1.00156
1.0045
1.00942
1.02386
1.06279
1.13804
1.41094
1.98996
2.27048
2.40783
2.45185
2.45957
0.999991
0.999991
0.999991
0.999991
0.999991
0.999992
0.999993
0.999999
1.00001
1.00004
1.00007
1.00025
1.00046
1.00141
1.00273
1.00748
1.01691
1.04108
1.11102
1.25911
1.65643
2.26109
2.46769
2.51257
2.50438
0.999991
0.999991
0.999991
0.999991
0.999991
0.999992
0.999993
0.999997
1
1.00003
1.00006
1.0002
1.00037
1.00117
1.00214
1.0066
1.01284
1.03553
1.08435
1.20925
1.55808
2.29583
2.5473
2.59674
2.56133
0.999991
0.999991
0.999991
0.999991
0.999991
0.999992
0.999992
0.999996
1
1.00002
1.00004
1.00016
1.00029
1.00095
1.00176
1.0053
1.01081
1.02902
1.07505
1.17303
1.5149
2.28462
2.61796
2.68783
2.6259
0.999991
0.999991
0.999991
0.999991
0.999991
0.999991
0.999992
0.999995
0.999999
1.00002
1.00004
1.00013
1.00025
1.00079
1.00153
1.00435
1.00977
1.02432
1.06887
1.15052
1.48489
2.23266
2.67441
2.74247
2.67798
0.999991
0.999991
0.999991
0.999991
0.999991
0.999991
0.999992
0.999993
0.999999
1.00001
1.00004
1.00008
1.00024
1.00055
1.00136
1.00368
1.00826
1.02447
1.05179
1.17075
1.39166
2.09375
2.71109
2.7761
2.72628
0.999991
0.999991
0.999991
0.999991
0.999991
0.999991
0.999992
0.999994
0.999997
1.00001
1.00003
1.0001
1.00021
1.00064
1.0013
1.00349
1.00853
1.02031
1.05936
1.1289
1.41499
2.0993
2.70203
2.77109
2.73341
0.999991
0.999991
0.999991
0.999991
0.999991
0.999991
0.999992
0.999993
0.999998
1
1.00004
1.00007
1.00024
1.00047
1.00135
1.00306
1.00755
1.02093
1.04679
1.14585
1.33571
1.96097
2.66535
2.77962
2.75201
0.999991
0.999991
0.999991
0.999991
0.999991
0.999991
0.999992
0.999993
0.999998
1
1.00003
1.00007
1.00024
1.00045
1.00135
1.00286
1.00737
1.01931
1.04435
1.13456
1.31045
1.85799
2.62638
2.79645
2.77364
0.999991
0.999991
0.999991
0.999991
0.999991
0.999991
0.999992
0.999994
0.999996
1.00001
1.00002
1.00009
1.00018
1.00056
1.00112
1.00315
1.0072
1.01802
1.04993
1.11333
1.33405
1.9547
2.56354
2.78741
2.76744
0.999991
0.999991
0.999991
0.999991
0.999991
0.999991
0.999992
0.999993
0.999997
1
1.00003
1.00006
1.00021
1.00042
1.00116
1.00274
1.00662
1.01838
1.04098
1.12516
1.28399
1.7751
2.60983
2.7877
2.76468
0.999991
0.999991
0.999991
0.999991
0.999991
0.999991
0.999992
0.999994
0.999996
1.00001
1.00002
1.00009
1.00018
1.00058
1.00108
1.00335
1.00666
1.01851
1.0445
1.10766
1.30317
1.87578
2.54281
2.77154
2.75225
0.999991
0.999991
0.999991
0.999991
0.999991
0.999991
0.999992
0.999994
0.999996
1.00001
1.00002
1.00009
1.00017
1.00056
1.00105
1.00328
1.00646
1.01812
1.04287
1.10486
1.29271
1.85308
2.53579
2.75831
2.74074
0.999991
0.999991
0.999991
0.999991
0.999991
0.999991
0.999992
0.999993
0.999997
1
1.00003
1.00006
1.0002
1.0004
1.00115
1.00253
1.00637
1.01687
1.03852
1.1147
1.25711
1.72268
2.57685
2.75566
2.73166
0.999991
0.999991
0.999991
0.999991
0.999991
0.999991
0.999992
0.999993
0.999996
1.00001
1.00002
1.00008
1.00016
1.00051
1.001
1.00282
1.00635
1.0159
1.04342
1.0978
1.28745
1.79597
2.50998
2.74578
2.72475
0.999991
0.999991
0.999991
0.999991
0.999991
0.999991
0.999992
0.999993
0.999997
1
1.00003
1.00006
1.0002
1.00039
1.00113
1.00243
1.00624
1.01605
1.03732
1.10959
1.24686
1.69802
2.55775
2.73562
2.71411
0.999991
0.999991
0.999991
0.999991
0.999991
0.999991
0.999992
0.999993
0.999996
1.00001
1.00002
1.00008
1.00016
1.00051
1.00097
1.00283
1.00606
1.01564
1.04139
1.09427
1.27752
1.74773
2.49179
2.73477
2.71681
0.999991
0.999991
0.999991
0.999991
0.999991
0.999991
0.999992
0.999993
0.999996
1.00001
1.00002
1.00008
1.00015
1.0005
1.00095
1.00273
1.00596
1.01507
1.0408
1.09122
1.27424
1.7247
2.4883
2.73118
2.71988
0.999991
0.999991
0.999991
0.999991
0.999991
0.999991
0.999992
0.999993
0.999997
1
1.00003
1.00006
1.00021
1.00039
1.00123
1.00236
1.00679
1.01488
1.03783
1.10309
1.24154
1.67165
2.54757
2.71258
2.70801
0.999991
0.999991
0.999991
0.999991
0.999991
0.999991
0.999992
0.999993
0.999997
1
1.00003
1.00006
1.00022
1.0004
1.00128
1.00235
1.00712
1.01453
1.03863
1.09979
1.23833
1.66222
2.55167
2.71403
2.71026
1.00001
1.00001
1.00004
1.00007
1.00023
1.00042
1.00128
1.00246
1.00691
1.01536
1.03821
1.10598
1.24211
1.67363
2.48755
2.63914
2.62628
2.63214
2.64455
2.65346
2.65167
2.6429
2.6219
2.57241
2.4127
1
1.00001
1.00003
1.00006
1.00021
1.00037
1.00118
1.00214
1.00658
1.01299
1.03526
1.08761
1.21001
1.58878
2.42187
2.61544
2.6221
2.61556
2.61712
2.62703
2.6259
2.61191
2.57756
2.5194
2.35937
1
1.00001
1.00003
1.00005
1.00018
1.00031
1.001
1.00182
1.00547
1.01112
1.02942
1.07677
1.17347
1.51904
2.29551
2.56673
2.6185
2.61022
2.59439
2.59536
2.59465
2.58121
2.54093
2.48526
2.36175
1
1.00001
1.00002
1.00005
1.00015
1.00026
1.00083
1.00153
1.00449
1.00938
1.02412
1.06445
1.14278
1.43936
2.12753
2.50994
2.61461
2.6027
2.58844
2.56966
2.55886
2.54511
2.51288
2.46729
2.36831
1
1.00001
1.00002
1.00004
1.00012
1.00022
1.0007
1.00128
1.00393
1.00763
1.02138
1.0494
1.12171
1.33228
1.96806
2.39381
2.58346
2.58156
2.57603
2.56045
2.53563
2.51127
2.47398
2.4437
2.37421
1
1.00001
1.00001
1.00004
1.00007
1.00023
1.00042
1.00127
1.00245
1.00683
1.01525
1.03768
1.10381
1.23855
1.64218
2.36486
2.54157
2.54188
2.54348
2.53838
2.52202
2.49814
2.44811
2.40717
2.36609
1
1.00001
1.00001
1.00003
1.00006
1.00019
1.00034
1.00109
1.00197
1.00604
1.0119
1.03221
1.08051
1.18745
1.53898
2.28694
2.50426
2.52325
2.51444
2.50924
2.49656
2.48197
2.44588
2.38862
2.34344
1
1
1.00001
1.00003
1.00005
1.00014
1.00026
1.00081
1.00154
1.00436
1.00951
1.02377
1.06512
1.14254
1.44138
2.12119
2.4423
2.51552
2.49842
2.48937
2.47009
2.44804
2.43153
2.38829
2.33523
1
1
1.00001
1.00001
1.00004
1.00008
1.00025
1.00048
1.00134
1.00294
1.00726
1.01934
1.04322
1.12829
1.28717
1.83234
2.30911
2.49188
2.48764
2.47612
2.45995
2.43075