/*--------------------------------*- C++ -*----------------------------------*\
| =========                 |                                                 |
| \\      /  F ield         | OpenFOAM: The Open Source CFD Toolbox           |
|  \\    /   O peration     | Version:  4.1                                   |
|   \\  /    A nd           | Web:      www.OpenFOAM.org                      |
|    \\/     M anipulation  |                                                 |
\*---------------------------------------------------------------------------*/
FoamFile
{
    version     2.0;
    format      ascii;
    class       surfaceScalarField;
    location    "8.4";
    object      phi;
}
// * * * * * * * * * * * * * * * * * * * * * * * * * * * * * * * * * * * * * //

dimensions      [1 0 -1 0 0 0 0];

internalField   nonuniform List<scalar> 
150500
(
0.0168001
2.40116e-10
-3.4304e-12
0.0168001
9.90043e-10
-1.17051e-11
0.0168001
3.901e-09
-1.35397e-11
0.0168
9.86001e-09
-2.14408e-11
0.0168
2.71641e-08
-2.18119e-11
0.0167999
6.2141e-08
-2.89839e-11
0.0167998
1.61413e-07
-2.96052e-11
0.0167994
3.64051e-07
-4.04074e-11
0.0167984
9.42702e-07
-4.26643e-11
0.0167963
2.15389e-06
-8.85136e-11
0.0167898
5.83259e-06
-5.85917e-11
0.0167741
1.56689e-05
-3.29004e-10
0.0167182
5.38579e-05
-2.94546e-10
0.0165447
0.000169937
-1.44415e-09
0.0155222
0.00101052
-2.90743e-09
0.0143738
0.00114853
-9.8565e-11
0.0132008
0.00117267
-2.79492e-10
0.0119505
0.00124888
-5.08703e-10
0.0106138
0.00133526
-5.32372e-10
0.00917366
0.0014386
-5.55787e-10
0.00760842
0.00156411
-5.72605e-10
0.00590894
0.00169838
-6.0628e-10
0.00408324
0.00182447
-6.41087e-10
0.00212478
0.00195711
-6.64279e-10
0.00212333
-6.8021e-10
0.0168001
3.82114e-10
-3.55111e-12
0.0168001
2.12529e-09
-1.15619e-11
0.0168001
7.85336e-09
-1.36769e-11
0.0168
2.01758e-08
-2.13786e-11
0.0168
5.55068e-08
-2.18834e-11
0.0167999
1.26938e-07
-2.89426e-11
0.0167998
3.30482e-07
-2.9652e-11
0.0167994
7.41944e-07
-4.04145e-11
0.0167983
1.93667e-06
-4.27551e-11
0.0167961
4.37705e-06
-8.87391e-11
0.0167893
1.20455e-05
-5.84677e-11
0.0167731
3.17659e-05
-3.28723e-10
0.0167142
0.000110742
-2.93463e-10
0.0165345
0.000346037
-1.43381e-09
0.0154976
0.00203543
-2.90713e-09
0.014334
0.00231236
-8.48055e-11
0.0131727
0.00233354
-2.77489e-10
0.0119348
0.00248537
-5.09003e-10
0.0106048
0.00266378
-5.29571e-10
0.00915161
0.00289031
-5.50122e-10
0.00756788
0.00314674
-5.666e-10
0.00584899
0.00341619
-6.0092e-10
0.00400177
0.00367046
-6.35029e-10
0.00203535
0.00392218
-6.58375e-10
0.00415724
-6.75163e-10
0.0168001
5.82047e-10
-3.53454e-12
0.0168001
3.24817e-09
-1.15756e-11
0.0168001
1.20756e-08
-1.36626e-11
0.0168
3.10591e-08
-2.13962e-11
0.0168
8.54396e-08
-2.18945e-11
0.0167999
1.95647e-07
-2.89894e-11
0.0167997
5.09042e-07
-2.97495e-11
0.0167993
1.14213e-06
-4.06356e-11
0.0167982
2.99165e-06
-4.31476e-11
0.0167959
6.68273e-06
-8.97931e-11
0.0167888
1.85757e-05
-5.88519e-11
0.0167726
4.78426e-05
-3.29246e-10
0.0167135
0.000167814
-2.92223e-10
0.0165375
0.000518528
-1.41446e-09
0.0155156
0.00304492
-2.91684e-09
0.0143411
0.00348728
-4.94198e-11
0.0131865
0.00348783
-2.70677e-10
0.0119609
0.0037095
-5.10222e-10
0.0106435
0.0039798
-5.26273e-10
0.0091935
0.00433869
-5.39796e-10
0.00760723
0.00473178
-5.55935e-10
0.00588326
0.00513903
-5.90858e-10
0.00401538
0.00553726
-6.23378e-10
0.00203692
0.00589933
-6.46392e-10
0.00619273
-6.63891e-10
0.0168001
8.25694e-10
-3.50831e-12
0.0168001
4.56343e-09
-1.15945e-11
0.0168
1.69794e-08
-1.3638e-11
0.0168
4.36052e-08
-2.14171e-11
0.0168
1.20373e-07
-2.19031e-11
0.0167999
2.77148e-07
-2.90387e-11
0.0167997
7.13301e-07
-2.98443e-11
0.0167992
1.67051e-06
-4.07173e-11
0.0167981
3.98364e-06
-4.36062e-11
0.0167948
9.93152e-06
-8.93415e-11
0.0167888
2.40083e-05
-5.98259e-11
0.016772
6.45539e-05
-3.24302e-10
0.016716
0.000221726
-2.9563e-10
0.0165503
0.000680818
-1.39736e-09
0.015571
0.00401139
-2.98034e-09
0.0143913
0.00466766
-5.31812e-12
0.0132446
0.00463417
-2.61738e-10
0.0120385
0.00491426
-5.05583e-10
0.01074
0.00527677
-5.16779e-10
0.00931855
0.00575875
-5.21207e-10
0.00773682
0.00631271
-5.37001e-10
0.00600909
0.00686535
-5.7182e-10
0.00413168
0.0074134
-6.02975e-10
0.00209945
0.00793023
-6.24277e-10
0.0082908
-6.43649e-10
0.0168001
9.78026e-10
-3.4658e-12
0.0168001
5.40326e-09
-1.16365e-11
0.0168001
2.01223e-08
-1.36209e-11
0.0168
5.16652e-08
-2.15239e-11
0.0168
1.42808e-07
-2.21033e-11
0.0168
3.2861e-07
-2.9639e-11
0.0167998
8.52071e-07
-3.09785e-11
0.0167995
1.96441e-06
-4.61808e-11
0.0167985
4.90239e-06
-4.15137e-11
0.016797
1.1447e-05
-1.28348e-10
0.0167889
3.14546e-05
-1.44259e-11
0.0167744
7.8925e-05
-3.69647e-10
0.0167261
0.000267938
-2.24751e-10
0.0165621
0.000841345
-1.35852e-09
0.0156639
0.00489611
-2.98747e-09
0.0144729
0.00585976
4.9287e-11
0.0133321
0.0057746
-2.72971e-10
0.0121524
0.00609255
-5.15872e-10
0.0108848
0.00654287
-5.15803e-10
0.00949111
0.00715117
-5.03615e-10
0.00795139
0.0078517
-5.1547e-10
0.00622819
0.00858749
-5.47486e-10
0.00431855
0.00932205
-5.81102e-10
0.00223255
0.0100154
-6.01535e-10
0.0105221
-6.18756e-10
0.0168001
1.03832e-09
-3.41505e-12
0.0168001
5.72576e-09
-1.16468e-11
0.0168001
2.1362e-08
-1.35046e-11
0.0168001
5.46294e-08
-2.16601e-11
0.0168
1.51375e-07
-2.15273e-11
0.0168
3.45745e-07
-2.93101e-11
0.0167999
9.13158e-07
-2.96694e-11
0.0167999
2.0235e-06
-4.08483e-11
0.0167992
5.50822e-06
-4.40011e-11
0.0167988
1.18833e-05
-8.0438e-11
0.0167928
3.67669e-05
-1.04621e-10
0.016785
8.67209e-05
-2.58069e-10
0.0167181
0.000332763
-3.49047e-10
0.0165722
0.000983483
-1.38486e-09
0.0157774
0.00567669
-3.09759e-09
0.0145601
0.0070786
1.84884e-10
0.0134332
0.00690131
-2.06939e-10
0.0122913
0.00723302
-4.92556e-10
0.0110854
0.00774727
-4.90972e-10
0.00973899
0.00849626
-4.72902e-10
0.00823443
0.00935526
-4.82038e-10
0.00654487
0.0102764
-5.04217e-10
0.0046149
0.0112502
-5.33634e-10
0.00241636
0.0122125
-5.54247e-10
0.0129372
-5.79483e-10
0.0168001
1.02403e-09
-3.37033e-12
0.0168001
5.69142e-09
-1.16463e-11
0.0168001
2.12576e-08
-1.34913e-11
0.0168001
5.43131e-08
-2.16429e-11
0.0168001
1.50148e-07
-2.14682e-11
0.0168001
3.3931e-07
-2.92193e-11
0.0168
9.19683e-07
-2.94768e-11
0.0168002
1.87764e-06
-4.0258e-11
0.0167995
6.04795e-06
-4.36962e-11
0.0168007
1.07149e-05
-7.73964e-11
0.0167936
4.32682e-05
-1.04705e-10
0.0167918
8.84676e-05
-2.44439e-10
0.0167233
0.000399223
-3.779e-10
0.01661
0.00109388
-1.36807e-09
0.0160577
0.00621387
-3.27908e-09
0.0147728
0.00836554
2.37944e-10
0.013622
0.00805224
-1.68062e-10
0.0125033
0.00835073
-4.68156e-10
0.0113514
0.00889798
-4.63924e-10
0.0100965
0.00975013
-4.36442e-10
0.00864765
0.0108029
-4.41383e-10
0.00698018
0.0119435
-4.65747e-10
0.00504461
0.0131857
-4.94634e-10
0.0027432
0.0145128
-5.13365e-10
0.0156792
-5.31059e-10
0.0168001
1.15643e-09
-3.34485e-12
0.0168001
6.41556e-09
-1.16185e-11
0.0168001
2.38693e-08
-1.36062e-11
0.0168
6.11166e-08
-2.14286e-11
0.0168
1.68409e-07
-2.19624e-11
0.0168
3.82614e-07
-2.9271e-11
0.0167999
1.02228e-06
-3.0337e-11
0.0167996
2.14246e-06
-4.38914e-11
0.0167989
6.65066e-06
-4.078e-11
0.0167983
1.13362e-05
-1.18034e-10
0.0167923
4.86459e-05
-2.11767e-11
0.0167876
9.33615e-05
-3.41308e-10
0.016763
0.000421772
-2.11709e-10
0.0167139
0.00114036
-1.27573e-09
0.0166867
0.00622522
-3.17848e-09
0.0152983
0.00975627
8.54003e-11
0.0140416
0.00930969
-2.41534e-10
0.0129006
0.00949098
-4.60215e-10
0.0117798
0.0100178
-4.4691e-10
0.010574
0.0109552
-4.07582e-10
0.00921369
0.0121624
-4.00827e-10
0.0076112
0.0135449
-4.13202e-10
0.00568366
0.0151124
-4.31305e-10
0.00325457
0.0169413
-4.50234e-10
0.0189328
-4.70977e-10
0.0168001
1.56385e-09
-3.30916e-12
0.0168001
7.03292e-09
-1.15924e-11
0.0168001
2.78105e-08
-1.35956e-11
0.0168
6.899e-08
-2.13208e-11
0.0168
1.94145e-07
-2.16804e-11
0.0168
4.35034e-07
-2.85391e-11
0.0167998
1.16349e-06
-2.87663e-11
0.0167994
2.50439e-06
-3.72092e-11
0.0167989
7.06293e-06
-4.10055e-11
0.0167966
1.36497e-05
-7.13319e-11
0.016796
4.87601e-05
-6.7263e-11
0.0168008
8.85018e-05
-2.38112e-10
0.016813
0.000407482
-2.96285e-10
0.0169007
0.00105062
-1.13785e-09
0.017719
0.0053907
-3.02967e-09
0.0162053
0.0112703
-3.50442e-10
0.0147074
0.0108082
-3.35884e-10
0.0135508
0.0106473
-4.07567e-10
0.0124606
0.0111075
-3.9971e-10
0.0112931
0.0121222
-3.74002e-10
0.00998281
0.0134725
-3.68119e-10
0.00852659
0.0150009
-3.75592e-10
0.00674868
0.0168898
-3.80399e-10
0.0042216
0.0194673
-3.8635e-10
0.0231534
-3.91828e-10
0.0168001
-3.35302e-12
2.85381e-09
0.0168001
-1.15178e-11
2.84204e-09
0.0168
-1.37535e-11
3.95921e-08
0.0168001
-2.13791e-11
3.85544e-08
0.0168
-2.17565e-11
2.65733e-07
0.0168002
-2.84994e-11
2.55494e-07
0.0167997
-2.83782e-11
1.60455e-06
0.0168008
-3.6286e-11
1.42983e-06
0.0167978
-3.93643e-11
1.00486e-05
0.0168049
-5.71338e-11
6.47233e-06
0.0167825
-7.21799e-11
7.0755e-05
0.0168382
-1.75935e-10
3.2776e-05
0.0167446
-2.54404e-10
0.000499626
0.0171188
-8.47651e-10
0.000673478
0.0185547
-1.85761e-09
0.00394766
0.0173188
-1.60327e-09
0.0124989
0.0154896
-5.27928e-10
0.012636
0.0144406
-3.4219e-10
0.0116958
0.0132974
-3.41361e-10
0.01225
0.0122482
-3.38374e-10
0.0131708
0.0111173
-3.35399e-10
0.0146029
0.00986285
-3.35063e-10
0.0162549
0.00822378
-3.33885e-10
0.0185287
0.00582703
-3.27133e-10
0.0218637
-3.11715e-10
0.0289796
0.0168001
1.89458e-10
-6.52598e-16
0.0168001
1.03203e-09
-3.37901e-15
0.0168001
3.83957e-09
-8.05595e-15
0.0168
9.86733e-09
-1.6925e-14
0.0168
2.71185e-08
-3.58071e-14
0.0167999
6.21336e-08
-6.88069e-14
0.0167998
1.61366e-07
-1.61484e-13
0.0167994
3.64e-07
-3.18197e-13
0.0167983
9.42577e-07
-8.35965e-13
0.0167963
2.15362e-06
-1.71659e-12
0.0167898
5.83231e-06
-4.64163e-12
0.0167741
1.56686e-05
-1.26312e-11
0.0167182
5.3858e-05
-3.34288e-11
0.0165447
0.000169945
-1.05017e-10
0.0155222
0.00101053
-2.61203e-10
0.0143738
0.00114851
1.40738e-11
0.0132008
0.00117266
-2.45299e-12
0.0119505
0.00124886
-2.36031e-11
0.0106138
0.00133525
-2.45002e-11
0.00917371
0.0014386
-2.30453e-11
0.00760846
0.00156412
-2.11135e-11
0.00590897
0.00169839
-2.27052e-11
0.00408325
0.00182448
-2.55864e-11
0.00212478
0.00195713
-2.7568e-11
0.00212333
-2.85802e-11
0.0168001
3.88285e-10
-6.53719e-16
0.0168001
2.11388e-09
-3.39228e-15
0.0168
7.86381e-09
-8.07984e-15
0.0168
2.01634e-08
-1.69799e-14
0.0168
5.54972e-08
-3.59283e-14
0.0167999
1.269e-07
-6.90569e-14
0.0167998
3.30405e-07
-1.62115e-13
0.0167994
7.41764e-07
-3.19599e-13
0.0167983
1.93633e-06
-8.38974e-13
0.0167961
4.37622e-06
-1.72448e-12
0.0167893
1.20447e-05
-4.65491e-12
0.0167731
3.17651e-05
-1.26303e-11
0.0167142
0.000110743
-3.35252e-11
0.0165345
0.000346054
-1.04917e-10
0.0154975
0.00203544
-2.62532e-10
0.014334
0.0023123
1.53952e-11
0.0131727
0.0023335
-2.28226e-12
0.0119348
0.00248533
-2.39503e-11
0.0106049
0.00266375
-2.46702e-11
0.00915168
0.0028903
-2.30234e-11
0.00756794
0.00314675
-2.08941e-11
0.00584904
0.00341621
-2.23446e-11
0.0040018
0.00367049
-2.50246e-11
0.00203537
0.00392221
-2.69597e-11
0.00415727
-2.79713e-11
0.0168001
5.95257e-10
-6.57414e-16
0.0168001
3.25073e-09
-3.40712e-15
0.0168
1.20917e-08
-8.13364e-15
0.0168
3.10595e-08
-1.70978e-14
0.0168
8.54255e-08
-3.62629e-14
0.0167999
1.95578e-07
-6.9759e-14
0.0167997
5.08852e-07
-1.6395e-13
0.0167993
1.14165e-06
-3.23632e-13
0.0167982
2.99042e-06
-8.47844e-13
0.0167959
6.68081e-06
-1.74572e-12
0.0167888
1.857e-05
-4.69704e-12
0.0167726
4.78431e-05
-1.26369e-11
0.0167135
0.00016781
-3.37981e-11
0.0165375
0.000518554
-1.04947e-10
0.0155156
0.00304493
-2.66829e-10
0.0143411
0.00348719
1.84382e-11
0.0131865
0.00348777
-1.87302e-12
0.011961
0.00370945
-2.47275e-11
0.0106436
0.00397975
-2.51368e-11
0.00919359
0.00433869
-2.29978e-11
0.0076073
0.00473181
-2.04339e-11
0.00588331
0.00513907
-2.16782e-11
0.00401541
0.00553731
-2.39072e-11
0.00203694
0.00589937
-2.56826e-11
0.00619277
-2.66378e-11
0.0168001
8.46844e-10
-6.62701e-16
0.0168001
4.56119e-09
-3.42951e-15
0.0168
1.69983e-08
-8.20864e-15
0.0168
4.35781e-08
-1.72577e-14
0.0168
1.20277e-07
-3.66762e-14
0.0167999
2.76869e-07
-7.05521e-14
0.0167997
7.12667e-07
-1.65972e-13
0.0167992
1.66785e-06
-3.2636e-13
0.0167981
3.98374e-06
-8.59047e-13
0.0167949
9.91474e-06
-1.7507e-12
0.0167888
2.4022e-05
-4.76427e-12
0.016772
6.45322e-05
-1.25668e-11
0.016716
0.000221762
-3.42862e-11
0.0165503
0.000680847
-1.05211e-10
0.0155709
0.00401144
-2.74428e-10
0.0143913
0.00466749
2.98228e-11
0.0132446
0.00463405
-1.03133e-12
0.0120386
0.00491417
-2.54813e-11
0.0107401
0.00527671
-2.55902e-11
0.00931868
0.00575873
-2.29203e-11
0.00773694
0.00631274
-1.97141e-11
0.00600917
0.00686542
-2.05132e-11
0.00413173
0.00741348
-2.21771e-11
0.00209947
0.0079303
-2.35885e-11
0.00829086
-2.4668e-11
0.0168001
1.00314e-09
-6.95466e-16
0.0168001
5.41854e-09
-3.54446e-15
0.0168001
2.01947e-08
-8.65998e-15
0.0168
5.16464e-08
-1.84503e-14
0.0168
1.43095e-07
-3.9739e-14
0.0168
3.28885e-07
-7.85464e-14
0.0167998
8.52848e-07
-1.81796e-13
0.0167995
1.96721e-06
-4.02235e-13
0.0167985
4.9022e-06
-8.31729e-13
0.0167969
1.147e-05
-2.30904e-12
0.0167889
3.14153e-05
-3.55627e-12
0.0167743
7.89688e-05
-1.30505e-11
0.0167261
0.000267885
-3.40992e-11
0.0165622
0.000841325
-1.05868e-10
0.0156641
0.00489606
-2.84686e-10
0.0144731
0.00585954
3.17493e-11
0.0133323
0.0057745
-7.01687e-13
0.0121526
0.00609247
-2.61939e-11
0.010885
0.00654282
-2.58969e-11
0.00949128
0.00715114
-2.25407e-11
0.00795154
0.00785173
-1.88817e-11
0.0062283
0.0085876
-1.92155e-11
0.00431862
0.00932216
-2.11133e-11
0.00223259
0.0100156
-2.24443e-11
0.0105222
-2.28531e-11
0.0168001
1.06045e-09
-6.6405e-16
0.0168001
5.74439e-09
-3.40176e-15
0.0168001
2.139e-08
-8.18582e-15
0.0168001
5.46657e-08
-1.74442e-14
0.0168
1.51444e-07
-3.67479e-14
0.0168
3.45858e-07
-7.18687e-14
0.0167999
9.13379e-07
-1.68116e-13
0.0167999
2.02404e-06
-3.42085e-13
0.0167992
5.50897e-06
-8.5629e-13
0.0167988
1.18856e-05
-1.79086e-12
0.0167928
3.67694e-05
-5.22855e-12
0.016785
8.67294e-05
-1.24516e-11
0.016718
0.00033276
-3.25249e-11
0.0165721
0.000983522
-1.09214e-10
0.0157772
0.00567678
-2.93026e-10
0.01456
0.00707824
3.50427e-11
0.0134332
0.00690108
-5.46544e-13
0.0122914
0.00723287
-2.67146e-11
0.0110855
0.00774717
-2.58209e-11
0.00973911
0.00849623
-2.17479e-11
0.00823456
0.00935529
-1.81418e-11
0.006545
0.0102765
-1.6719e-11
0.00461498
0.0112504
-1.71232e-11
0.00241638
0.0122127
-1.81434e-11
0.0129374
-1.9716e-11
0.0168001
1.03747e-09
-6.17539e-16
0.0168001
5.71894e-09
-3.19664e-15
0.0168001
2.12291e-08
-7.5051e-15
0.0168001
5.44169e-08
-1.59623e-14
0.0168001
1.49986e-07
-3.25681e-14
0.0168001
3.393e-07
-6.24908e-14
0.0168
9.19379e-07
-1.48668e-13
0.0168002
1.87638e-06
-2.70576e-13
0.0167995
6.04954e-06
-8.42247e-13
0.0168008
1.06987e-05
-1.3899e-12
0.0167936
4.33106e-05
-5.34021e-12
0.0167918
8.8431e-05
-9.94518e-12
0.0167232
0.000399338
-4.16026e-11
0.0166098
0.001094
-1.06553e-10
0.0160571
0.00621437
-3.08637e-10
0.0147723
0.00836506
4.12948e-11
0.0136218
0.00805179
2.81098e-12
0.0125031
0.00835045
-2.56513e-11
0.0113513
0.0088978
-2.47366e-11
0.0100965
0.00975004
-2.04397e-11
0.00864768
0.0108029
-1.7171e-11
0.00698022
0.0119435
-1.68825e-11
0.00504468
0.0131859
-1.75565e-11
0.00274324
0.014513
-1.81943e-11
0.0156794
-1.81917e-11
0.0168001
1.17322e-09
-5.66944e-16
0.0168001
6.43504e-09
-3.00716e-15
0.0168001
2.38936e-08
-6.82578e-15
0.0168
6.11654e-08
-1.41682e-14
0.0168
1.68575e-07
-2.81779e-14
0.0168
3.8301e-07
-5.15569e-14
0.0167999
1.02327e-06
-1.25226e-13
0.0167996
2.14617e-06
-1.75102e-13
0.0167989
6.65247e-06
-8.52542e-13
0.0167983
1.13579e-05
-5.54155e-13
0.0167923
4.8637e-05
-5.56133e-12
0.0167875
9.3421e-05
-7.64929e-12
0.016763
0.00042176
-4.38114e-11
0.0167139
0.00114051
-1.04114e-10
0.0166863
0.00622606
-3.17405e-10
0.015298
0.00975573
2.79611e-11
0.0140414
0.00930915
5.3726e-12
0.0129004
0.00949064
-2.28238e-11
0.0117797
0.0100176
-2.26646e-11
0.010574
0.010955
-1.92163e-11
0.00921367
0.0121624
-1.49944e-11
0.00761122
0.0135449
-1.37538e-11
0.00568367
0.0151125
-1.36093e-11
0.00325459
0.0169414
-1.45224e-11
0.018933
-1.59847e-11
0.0168001
1.52837e-09
-5.86246e-16
0.0168001
7.14603e-09
-3.06548e-15
0.0168001
2.76561e-08
-7.1218e-15
0.0168
6.88818e-08
-1.49103e-14
0.0168
1.93948e-07
-3.05728e-14
0.0168
4.35006e-07
-5.83126e-14
0.0167998
1.16369e-06
-1.35801e-13
0.0167994
2.50561e-06
-2.61743e-13
0.016799
7.06481e-06
-7.60192e-13
0.0167967
1.36613e-05
-1.19811e-12
0.016796
4.87651e-05
-5.37124e-12
0.0168008
8.85451e-05
-8.38993e-12
0.016813
0.000407531
-3.8934e-11
0.0169005
0.00105085
-9.69848e-11
0.0177181
0.00539222
-3.10708e-10
0.0162048
0.0112694
-5.52342e-12
0.014707
0.0108074
-4.65628e-12
0.0135506
0.0106469
-2.03135e-11
0.0124604
0.0111072
-2.06801e-11
0.0112929
0.0121221
-1.85763e-11
0.0099827
0.0134725
-1.43275e-11
0.00852654
0.0150009
-1.29993e-11
0.00674868
0.0168899
-1.27984e-11
0.00422161
0.0194674
-1.30397e-11
0.0231536
-1.38498e-11
0.0168001
-5.44863e-16
2.72627e-09
0.0168001
-2.88316e-15
3.21982e-09
0.0168
-6.48269e-15
3.8411e-08
0.0168001
-1.34843e-14
3.90246e-08
0.0168
-2.61662e-14
2.64453e-07
0.0168002
-4.89533e-14
2.56109e-07
0.0167997
-1.07336e-13
1.60344e-06
0.0168008
-2.02643e-13
1.43078e-06
0.0167978
-5.52605e-13
1.00479e-05
0.0168049
-9.78054e-13
6.47626e-06
0.0167826
-3.83125e-12
7.07536e-05
0.0168382
-5.15829e-12
3.28019e-05
0.0167447
-2.78848e-11
0.000499629
0.0171189
-6.69988e-11
0.000673707
0.0185558
-1.82248e-10
0.00394816
0.0173192
-1.39893e-10
0.0124988
0.0154895
-3.20232e-11
0.0126358
0.0144404
-2.07498e-11
0.0116954
0.0132973
-2.01532e-11
0.0122497
0.0122481
-1.87821e-11
0.0131706
0.0111172
-1.49246e-11
0.0146028
0.00986277
-1.38053e-11
0.0162549
0.00822373
-1.25145e-11
0.0185287
0.00582702
-1.27239e-11
0.0218638
-1.43862e-11
0.0289798
0.0168001
1.89458e-10
1.73316e-16
0.0168001
1.03202e-09
-6.06806e-17
0.0168001
3.83956e-09
-3.68809e-16
0.0168
9.86728e-09
-7.97071e-16
0.0168
2.71184e-08
-2.26477e-15
0.0167999
6.21333e-08
-4.6353e-15
0.0167998
1.61365e-07
-1.30464e-14
0.0167994
3.63999e-07
-2.67366e-14
0.0167983
9.42575e-07
-7.57965e-14
0.0167963
2.15361e-06
-1.57813e-13
0.0167898
5.8323e-06
-4.44243e-13
0.0167741
1.56686e-05
-1.21365e-12
0.0167182
5.3858e-05
-3.3018e-12
0.0165447
0.000169946
-1.04442e-11
0.0155222
0.00101053
-2.65137e-11
0.0143739
0.00114851
4.54399e-13
0.0132008
0.00117266
-7.70447e-13
0.0119505
0.00124886
-2.98689e-12
0.0106138
0.00133525
-3.1468e-12
0.00917372
0.0014386
-3.17194e-12
0.00760847
0.00156412
-2.96325e-12
0.00590898
0.00169839
-2.97433e-12
0.00408326
0.00182448
-3.08332e-12
0.00212478
0.00195713
-3.17003e-12
0.00212334
-3.22183e-12
0.0168001
3.88283e-10
1.73217e-16
0.0168001
2.11387e-09
1.396e-17
0.0168
7.86377e-09
-3.71494e-16
0.0168
2.01634e-08
-8.02876e-16
0.0168
5.5497e-08
-2.28054e-15
0.0167999
1.26899e-07
-4.66787e-15
0.0167998
3.30403e-07
-1.31297e-14
0.0167994
7.41761e-07
-2.69168e-14
0.0167983
1.93632e-06
-7.6194e-14
0.0167961
4.37621e-06
-1.58783e-13
0.0167893
1.20447e-05
-4.46003e-13
0.0167731
3.17651e-05
-1.21464e-12
0.0167142
0.000110742
-3.31286e-12
0.0165345
0.000346054
-1.04371e-11
0.0154975
0.00203544
-2.66393e-11
0.014334
0.0023123
5.98985e-13
0.0131727
0.0023335
-7.42606e-13
0.0119349
0.00248533
-3.00497e-12
0.0106049
0.00266375
-3.14732e-12
0.00915169
0.0028903
-3.15186e-12
0.00756795
0.00314675
-2.93373e-12
0.00584905
0.00341621
-2.94445e-12
0.00400181
0.00367049
-3.04444e-12
0.00203537
0.00392221
-3.12948e-12
0.00415727
-3.18044e-12
0.0168001
5.95254e-10
1.73123e-16
0.0168001
3.25071e-09
1.52432e-17
0.0168
1.20916e-08
-3.785e-16
0.0168
3.10593e-08
-8.18245e-16
0.0168
8.5425e-08
-2.32233e-15
0.0167999
1.95576e-07
-4.75488e-15
0.0167997
5.08849e-07
-1.33534e-14
0.0167993
1.14164e-06
-2.73982e-14
0.0167982
2.9904e-06
-7.72756e-14
0.0167959
6.68078e-06
-1.61258e-13
0.0167888
1.85699e-05
-4.51147e-13
0.0167726
4.78432e-05
-1.21745e-12
0.0167135
0.00016781
-3.34367e-12
0.0165375
0.000518555
-1.04476e-11
0.0155156
0.00304493
-2.70592e-11
0.0143411
0.00348718
9.25823e-13
0.0131865
0.00348777
-6.92763e-13
0.011961
0.00370945
-3.05446e-12
0.0106436
0.00397975
-3.16573e-12
0.0091936
0.00433869
-3.12076e-12
0.00760731
0.00473181
-2.88188e-12
0.00588332
0.00513907
-2.89961e-12
0.00401541
0.00553731
-2.97852e-12
0.00203694
0.00589938
-3.05492e-12
0.00619278
-3.10152e-12
0.0168001
8.4683e-10
1.72941e-16
0.0168001
4.56114e-09
-7.94576e-17
0.0168
1.69981e-08
-3.88519e-16
0.0168
4.35775e-08
-8.39649e-16
0.0168
1.20276e-07
-2.37649e-15
0.0167999
2.76865e-07
-4.85954e-15
0.0167997
7.12658e-07
-1.36168e-14
0.0167992
1.66781e-06
-2.77888e-14
0.0167981
3.98374e-06
-7.87023e-14
0.0167949
9.9145e-06
-1.62295e-13
0.0167888
2.40222e-05
-4.5937e-13
0.016772
6.45319e-05
-1.21389e-12
0.016716
0.000221762
-3.39817e-12
0.0165503
0.000680849
-1.0486e-11
0.0155709
0.00401144
-2.78085e-11
0.0143913
0.00466748
1.44843e-12
0.0132446
0.00463404
-8.82234e-13
0.0120386
0.00491416
-3.09632e-12
0.0107401
0.00527671
-3.17636e-12
0.00931868
0.00575873
-3.07564e-12
0.00773694
0.00631274
-2.80451e-12
0.00600918
0.00686542
-2.81339e-12
0.00413174
0.00741349
-2.87514e-12
0.00209947
0.00793031
-2.93633e-12
0.00829087
-2.98505e-12
0.0168001
1.00316e-09
1.72875e-16
0.0168001
5.41862e-09
-1.23023e-16
0.0168001
2.0195e-08
-4.38994e-16
0.0168
5.16471e-08
-9.49076e-16
0.0168
1.43097e-07
-2.72043e-15
0.0168
3.2889e-07
-5.6678e-15
0.0167998
8.52858e-07
-1.52683e-14
0.0167995
1.96725e-06
-3.5467e-14
0.0167985
4.90221e-06
-7.62938e-14
0.0167969
1.14703e-05
-2.18557e-13
0.0167889
3.14149e-05
-4.04371e-13
0.0167743
7.89692e-05
-1.26769e-12
0.0167261
0.000267886
-3.38599e-12
0.0165622
0.000841326
-1.05675e-11
0.0156641
0.00489607
-2.88224e-11
0.0144731
0.00585952
2.04597e-12
0.0133323
0.00577449
-8.11796e-13
0.0121526
0.00609246
-3.13027e-12
0.010885
0.00654282
-3.16942e-12
0.00949128
0.00715115
-2.99883e-12
0.00795155
0.00785173
-2.71606e-12
0.0062283
0.0085876
-2.7158e-12
0.00431862
0.00932217
-2.78771e-12
0.00223259
0.0100156
-2.83598e-12
0.0105222
-2.86361e-12
0.0168001
1.06047e-09
1.72501e-16
0.0168001
5.74452e-09
1.58886e-17
0.0168001
2.13904e-08
-3.97117e-16
0.0168001
5.46668e-08
-8.58257e-16
0.0168
1.51447e-07
-2.44806e-15
0.0168
3.45866e-07
-5.04662e-15
0.0167999
9.13397e-07
-1.40251e-14
0.0167999
2.0241e-06
-2.9683e-14
0.0167992
5.50903e-06
-7.93764e-14
0.0167988
1.18859e-05
-1.68314e-13
0.0167928
3.67696e-05
-5.08096e-13
0.016785
8.67307e-05
-1.21411e-12
0.016718
0.000332757
-3.24592e-12
0.0165721
0.000983525
-1.09163e-11
0.0157772
0.00567679
-2.96727e-11
0.01456
0.00707822
2.749e-12
0.0134332
0.00690107
-7.06971e-13
0.0122914
0.00723287
-3.13867e-12
0.0110855
0.00774717
-3.11941e-12
0.00973912
0.00849624
-2.87784e-12
0.00823456
0.0093553
-2.61348e-12
0.00654501
0.0102765
-2.55054e-12
0.00461499
0.0112504
-2.59463e-12
0.00241638
0.0122127
-2.6471e-12
0.0129374
-2.69918e-12
0.0168001
1.0375e-09
1.71532e-16
0.0168001
5.71904e-09
-1.65976e-17
0.0168001
2.12295e-08
-3.35739e-16
0.0168001
5.4418e-08
-7.24809e-16
0.0168001
1.49989e-07
-2.06725e-15
0.0168001
3.39307e-07
-4.18611e-15
0.0168
9.19396e-07
-1.22582e-14
0.0168002
1.87643e-06
-2.29747e-14
0.0167995
6.04957e-06
-7.8612e-14
0.0168008
1.06991e-05
-1.30406e-13
0.0167936
4.33101e-05
-5.21986e-13
0.0167918
8.84323e-05
-9.7459e-13
0.0167232
0.000399338
-4.14828e-12
0.0166098
0.001094
-1.06804e-11
0.016057
0.00621442
-3.12388e-11
0.0147723
0.00836503
3.4493e-12
0.0136218
0.00805177
-1.45684e-13
0.0125031
0.00835044
-2.99025e-12
0.0113513
0.0088978
-2.96641e-12
0.0100965
0.00975004
-2.71077e-12
0.00864768
0.0108029
-2.46748e-12
0.00698021
0.0119435
-2.44485e-12
0.00504468
0.0131859
-2.49625e-12
0.00274325
0.014513
-2.55293e-12
0.0156794
-2.56383e-12
0.0168001
1.17321e-09
1.69589e-16
0.0168001
6.43503e-09
3.58202e-17
0.0168001
2.38935e-08
-2.72313e-16
0.0168
6.11652e-08
-5.79684e-16
0.0168
1.68574e-07
-1.64868e-15
0.0168
3.83008e-07
-3.21716e-15
0.0167999
1.02327e-06
-1.01377e-14
0.0167996
2.14614e-06
-1.41607e-14
0.0167989
6.65252e-06
-8.01157e-14
0.0167983
1.13577e-05
-5.14556e-14
0.0167923
4.86377e-05
-6.50276e-13
0.0167875
9.34212e-05
-7.57223e-13
0.016763
0.000421765
-4.3732e-12
0.0167139
0.00114052
-1.046e-11
0.0166863
0.00622616
-3.21123e-11
0.0152979
0.00975568
2.80314e-12
0.0140413
0.00930912
1.7373e-13
0.0129004
0.00949063
-2.66365e-12
0.0117797
0.0100176
-2.71547e-12
0.010574
0.010955
-2.54721e-12
0.00921368
0.0121624
-2.25669e-12
0.00761122
0.0135449
-2.23193e-12
0.00568367
0.0151125
-2.28542e-12
0.00325459
0.0169415
-2.39545e-12
0.018933
-2.46906e-12
0.0168001
1.52838e-09
1.69875e-16
0.0168001
7.14613e-09
1.82637e-17
0.0168001
2.76564e-08
-3.03522e-16
0.0168
6.88826e-08
-6.57176e-16
0.0168
1.9395e-07
-1.8963e-15
0.0168
4.35011e-07
-3.89906e-15
0.0167998
1.16371e-06
-1.12613e-14
0.0167994
2.50564e-06
-2.25996e-14
0.016799
7.06493e-06
-7.20015e-14
0.0167967
1.36615e-05
-1.13502e-13
0.016796
4.8766e-05
-5.32581e-13
0.0168008
8.85469e-05
-8.2927e-13
0.016813
0.00040754
-3.91268e-12
0.0169005
0.00105088
-9.7702e-12
0.017718
0.0053924
-3.14652e-11
0.0162047
0.0112694
-1.0532e-12
0.014707
0.0108074
-7.76317e-13
0.0135505
0.0106468
-2.35556e-12
0.0124604
0.0111072
-2.46999e-12
0.0112929
0.0121221
-2.43121e-12
0.00998269
0.0134725
-2.12902e-12
0.00852653
0.0150009
-2.13745e-12
0.00674868
0.0168899
-2.18845e-12
0.00422161
0.0194675
-2.31164e-12
0.0231536
-2.43982e-12
0.0168001
1.68948e-16
2.72626e-09
0.0168001
6.91035e-17
3.21993e-09
0.0168
-2.38032e-16
3.84111e-08
0.0168001
-5.13637e-16
3.90253e-08
0.0168
-1.4616e-15
2.64455e-07
0.0168002
-2.98209e-15
2.56112e-07
0.0167997
-8.48856e-15
1.60346e-06
0.0168008
-1.68371e-14
1.4308e-06
0.0167978
-5.16678e-14
1.00481e-05
0.0168049
-9.25806e-14
6.47628e-06
0.0167826
-3.806e-13
7.07547e-05
0.0168382
-5.0886e-13
3.28021e-05
0.0167447
-2.81603e-12
0.000499635
0.0171189
-6.77939e-12
0.000673727
0.0185559
-1.85517e-11
0.00394824
0.0173192
-1.45524e-11
0.0124988
0.0154895
-3.46823e-12
0.0126358
0.0144404
-2.33325e-12
0.0116953
0.0132973
-2.42572e-12
0.0122497
0.0122481
-2.38963e-12
0.0131706
0.0111172
-2.1678e-12
0.0146028
0.00986276
-2.16594e-12
0.0162549
0.00822372
-2.22973e-12
0.0185287
0.00582702
-2.37447e-12
0.0218638
-2.79351e-12
0.0289798
0.0168001
1.89457e-10
-4.5916e-17
0.0168001
1.03202e-09
-1.87969e-16
0.0168001
3.83955e-09
-5.64385e-16
0.0168
9.86728e-09
-1.15773e-15
0.0168
2.71184e-08
-3.12742e-15
0.0167999
6.21333e-08
-6.287e-15
0.0167998
1.61365e-07
-1.73961e-14
0.0167994
3.63999e-07
-3.55238e-14
0.0167983
9.42574e-07
-9.97876e-14
0.0167963
2.15361e-06
-2.08628e-13
0.0167898
5.8323e-06
-5.77323e-13
0.0167741
1.56686e-05
-1.61474e-12
0.0167182
5.3858e-05
-4.25251e-12
0.0165447
0.000169946
-1.38917e-11
0.0155222
0.00101053
-3.58216e-11
0.0143739
0.00114851
1.28875e-12
0.0132008
0.00117266
-5.2286e-13
0.0119505
0.00124886
-3.35596e-12
0.0106138
0.00133525
-3.53454e-12
0.00917372
0.0014386
-3.51238e-12
0.00760847
0.00156412
-3.14941e-12
0.00590898
0.00169839
-3.13335e-12
0.00408326
0.00182448
-3.25879e-12
0.00212478
0.00195713
-3.37085e-12
0.00212334
-3.46918e-12
0.0168001
3.88283e-10
-4.63369e-17
0.0168001
2.11387e-09
-1.89698e-16
0.0168
7.86377e-09
-5.6919e-16
0.0168
2.01633e-08
-1.16777e-15
0.0168
5.54969e-08
-3.15316e-15
0.0167999
1.26899e-07
-6.33985e-15
0.0167998
3.30403e-07
-1.75283e-14
0.0167994
7.4176e-07
-3.58086e-14
0.0167983
1.93632e-06
-1.00402e-13
0.0167961
4.37621e-06
-2.10136e-13
0.0167893
1.20447e-05
-5.79858e-13
0.0167731
3.17651e-05
-1.61712e-12
0.0167142
0.000110742
-4.26618e-12
0.0165345
0.000346055
-1.38769e-11
0.0154975
0.00203544
-3.5937e-11
0.014334
0.0023123
1.4961e-12
0.0131727
0.0023335
-4.35649e-13
0.0119349
0.00248533
-3.36207e-12
0.0106049
0.00266375
-3.50997e-12
0.00915169
0.0028903
-3.45602e-12
0.00756795
0.00314675
-3.08722e-12
0.00584905
0.00341621
-3.07952e-12
0.00400181
0.00367049
-3.19129e-12
0.00203537
0.00392221
-3.30641e-12
0.00415727
-3.40809e-12
0.0168001
5.95254e-10
-4.7505e-17
0.0168001
3.25071e-09
-1.93818e-16
0.0168
1.20916e-08
-5.8152e-16
0.0168
3.10593e-08
-1.19327e-15
0.0168
8.54249e-08
-3.22036e-15
0.0167999
1.95576e-07
-6.47797e-15
0.0167997
5.08849e-07
-1.78776e-14
0.0167993
1.14164e-06
-3.656e-14
0.0167982
2.9904e-06
-1.0205e-13
0.0167959
6.68078e-06
-2.13986e-13
0.0167888
1.85699e-05
-5.87204e-13
0.0167726
4.78432e-05
-1.62345e-12
0.0167135
0.00016781
-4.30618e-12
0.0165375
0.000518555
-1.38868e-11
0.0155156
0.00304493
-3.64462e-11
0.0143411
0.00348718
1.96513e-12
0.0131865
0.00348777
-3.32667e-13
0.011961
0.00370945
-3.39811e-12
0.0106436
0.00397975
-3.49107e-12
0.0091936
0.00433869
-3.34882e-12
0.00760731
0.00473181
-2.9606e-12
0.00588332
0.00513907
-2.9986e-12
0.00401541
0.00553731
-3.07595e-12
0.00203694
0.00589938
-3.17816e-12
0.00619278
-3.27707e-12
0.0168001
8.46829e-10
-4.90856e-17
0.0168001
4.56113e-09
-2.00227e-16
0.0168
1.6998e-08
-5.98844e-16
0.0168
4.35774e-08
-1.22878e-15
0.0168
1.20275e-07
-3.30737e-15
0.0167999
2.76864e-07
-6.64611e-15
0.0167997
7.12657e-07
-1.82943e-14
0.0167992
1.66781e-06
-3.72046e-14
0.0167981
3.98374e-06
-1.04241e-13
0.0167949
9.91447e-06
-2.1591e-13
0.0167888
2.40222e-05
-5.99102e-13
0.016772
6.45319e-05
-1.62172e-12
0.016716
0.000221762
-4.37979e-12
0.0165503
0.000680849
-1.39401e-11
0.0155709
0.00401144
-3.7412e-11
0.0143913
0.00466748
2.70985e-12
0.0132446
0.00463404
-2.09118e-13
0.0120386
0.00491416
-3.39769e-12
0.0107401
0.00527671
-3.44882e-12
0.00931868
0.00575873
-3.21812e-12
0.00773695
0.00631274
-2.76858e-12
0.00600918
0.00686542
-2.80207e-12
0.00413174
0.00741349
-2.87026e-12
0.00209947
0.00793031
-2.94444e-12
0.00829087
-3.05306e-12
0.0168001
1.00316e-09
-5.57907e-17
0.0168001
5.41863e-09
-2.24309e-16
0.0168001
2.0195e-08
-6.78201e-16
0.0168
5.16472e-08
-1.39401e-15
0.0168
1.43097e-07
-3.8111e-15
0.0168
3.2889e-07
-7.81548e-15
0.0167998
8.52859e-07
-2.06858e-14
0.0167995
1.96725e-06
-4.80757e-14
0.0167985
4.90221e-06
-1.0127e-13
0.0167969
1.14703e-05
-2.94944e-13
0.0167889
3.14149e-05
-5.23716e-13
0.0167743
7.89692e-05
-1.70411e-12
0.0167261
0.000267886
-4.35941e-12
0.0165622
0.000841326
-1.40572e-11
0.0156641
0.00489607
-3.8733e-11
0.0144731
0.00585952
3.5631e-12
0.0133323
0.00577449
-1.39816e-13
0.0121526
0.00609246
-3.37811e-12
0.010885