/*--------------------------------*- C++ -*----------------------------------*\
| =========                 |                                                 |
| \\      /  F ield         | OpenFOAM: The Open Source CFD Toolbox           |
|  \\    /   O peration     | Version:  4.1                                   |
|   \\  /    A nd           | Web:      www.OpenFOAM.org                      |
|    \\/     M anipulation  |                                                 |
\*---------------------------------------------------------------------------*/
FoamFile
{
    version     2.0;
    format      ascii;
    class       surfaceScalarField;
    location    "4.66";
    object      phi;
}
// * * * * * * * * * * * * * * * * * * * * * * * * * * * * * * * * * * * * * //

dimensions      [1 0 -1 0 0 0 0];

internalField   nonuniform List<scalar> 
150500
(
0.0168001
1.8131e-10
-3.38951e-12
0.0168001
1.00048e-09
-1.16451e-11
0.0168001
3.73224e-09
-1.34654e-11
0.0168
9.54647e-09
-2.16945e-11
0.0168
2.65081e-08
-2.1321e-11
0.0168
6.05736e-08
-2.92032e-11
0.0167998
1.60898e-07
-2.91633e-11
0.0167994
3.55595e-07
-4.01819e-11
0.0167984
9.82258e-07
-4.15429e-11
0.0167964
2.11346e-06
-7.71589e-11
0.0167894
6.62982e-06
-9.38443e-11
0.0167744
1.54978e-05
-2.30161e-10
0.0167114
6.22345e-05
-2.73397e-10
0.0165298
0.000181288
-1.14038e-09
0.0154609
0.00106687
-2.41494e-09
0.0141827
0.00127829
4.51514e-10
0.0129432
0.00123941
-5.98379e-11
0.0116548
0.00128811
-3.38718e-10
0.010299
0.00135558
-3.39292e-10
0.00885723
0.00144107
-3.24791e-10
0.00730827
0.00154846
-3.14933e-10
0.00564503
0.00166229
-3.27871e-10
0.00387653
0.00176772
-3.39708e-10
0.0020006
0.00187538
-3.53296e-10
0.00199979
-3.69437e-10
0.0168001
3.47185e-10
-3.38106e-12
0.0168001
1.91553e-09
-1.16464e-11
0.0168001
7.16339e-09
-1.34625e-11
0.0168
1.82816e-08
-2.16891e-11
0.0168
5.08814e-08
-2.13125e-11
0.0168
1.15671e-07
-2.91818e-11
0.0167998
3.11745e-07
-2.91184e-11
0.0167995
6.6835e-07
-4.00437e-11
0.0167985
1.97226e-06
-4.14045e-11
0.0167967
4.00989e-06
-7.64141e-11
0.0167895
1.34696e-05
-9.31334e-11
0.0167753
3.01685e-05
-2.26298e-10
0.0167052
0.000131516
-2.74258e-10
0.0165179
0.000368354
-1.12281e-09
0.0154439
0.00213879
-2.40268e-09
0.0141313
0.00259106
4.5219e-10
0.0129104
0.00246024
-6.15327e-11
0.0116425
0.00255571
-3.41861e-10
0.0102968
0.002701
-3.41198e-10
0.00884264
0.00289461
-3.24481e-10
0.00727545
0.00311516
-3.12467e-10
0.00559811
0.00333871
-3.24148e-10
0.00381327
0.00355181
-3.34777e-10
0.00193058
0.00375754
-3.47148e-10
0.00392958
-3.62108e-10
0.0168001
5.04096e-10
-3.36857e-12
0.0168001
2.76204e-09
-1.16414e-11
0.0168001
1.03227e-08
-1.34832e-11
0.0168
2.62284e-08
-2.16022e-11
0.0168
7.32909e-08
-2.14153e-11
0.0168
1.66169e-07
-2.90622e-11
0.0167998
4.50561e-07
-2.91123e-11
0.0167995
9.63652e-07
-3.96972e-11
0.0167986
2.85253e-06
-4.13621e-11
0.0167969
5.81866e-06
-7.49713e-11
0.0167902
1.9849e-05
-9.19312e-11
0.0167759
4.48912e-05
-2.19921e-10
0.0167113
0.000195352
-2.69855e-10
0.0165328
0.000546613
-1.08268e-09
0.0155451
0.00312427
-2.36702e-09
0.0142076
0.0039288
4.55602e-10
0.0129811
0.00368674
-5.95204e-11
0.0117227
0.00381379
-3.45908e-10
0.0103876
0.00403583
-3.46156e-10
0.0089327
0.0043488
-3.28535e-10
0.00735948
0.00468788
-3.12935e-10
0.00566554
0.00503171
-3.21991e-10
0.00385484
0.00536176
-3.29995e-10
0.00194992
0.00566192
-3.38795e-10
0.00587873
-3.49485e-10
0.0168001
5.74785e-10
-3.34868e-12
0.0168001
3.19419e-09
-1.16363e-11
0.0168001
1.19491e-08
-1.35008e-11
0.0168001
3.04391e-08
-2.15003e-11
0.0168
8.44925e-08
-2.15019e-11
0.0168
1.89688e-07
-2.88809e-11
0.0167999
5.27479e-07
-2.89709e-11
0.0167999
1.01922e-06
-3.88856e-11
0.016799
3.70978e-06
-4.08479e-11
0.0167992
5.68009e-06
-7.09061e-11
0.0167903
2.84644e-05
-8.7478e-11
0.0167818
5.37709e-05
-2.07501e-10
0.016719
0.000257407
-2.58238e-10
0.0165664
0.000698895
-1.02691e-09
0.0157444
0.00394405
-2.35583e-09
0.014388
0.00528545
3.97334e-10
0.0131528
0.00492187
-8.20325e-11
0.0119007
0.00506565
-3.44047e-10
0.0105756
0.00536057
-3.44519e-10
0.0091276
0.00579609
-3.27074e-10
0.00755284
0.0062621
-3.13291e-10
0.00585247
0.00673109
-3.20875e-10
0.00400949
0.00720402
-3.25297e-10
0.00203156
0.00763931
-3.29285e-10
0.0079095
-3.34902e-10
0.0168001
7.49219e-10
-3.34074e-12
0.0168001
4.13974e-09
-1.16048e-11
0.0168001
1.54243e-08
-1.35946e-11
0.0168
3.94073e-08
-2.13761e-11
0.0168
1.09098e-07
-2.18538e-11
0.0168
2.47657e-07
-2.9037e-11
0.0167998
6.69075e-07
-2.9773e-11
0.0167995
1.38542e-06
-4.27395e-11
0.0167987
4.47674e-06
-3.77203e-11
0.0167972
7.2154e-06
-1.13313e-10
0.0167917
3.37434e-05
-7.38923e-13
0.016782
6.37496e-05
-3.07687e-10
0.0167436
0.000295132
-6.94619e-11
0.0166431
0.000799176
-9.13725e-10
0.0161604
0.00442439
-2.07985e-09
0.0147808
0.00666524
2.50295e-10
0.0134901
0.00621264
-2.13635e-10
0.0122179
0.00633744
-3.77356e-10
0.0109043
0.00667391
-3.61151e-10
0.00946241
0.0072372
-3.30339e-10
0.00788351
0.00784041
-3.2291e-10
0.00615048
0.00846287
-3.27502e-10
0.00425723
0.00909642
-3.27272e-10
0.00219622
0.00969966
-3.25968e-10
0.0101049
-3.26164e-10
0.0168001
9.13576e-10
-3.31515e-12
0.0168001
5.02119e-09
-1.15777e-11
0.0168001
1.87084e-08
-1.35665e-11
0.0168
4.78265e-08
-2.12516e-11
0.0168
1.32627e-07
-2.15498e-11
0.0168
3.03046e-07
-2.82935e-11
0.0167998
8.01559e-07
-2.82712e-11
0.0167994
1.77324e-06
-3.63061e-11
0.016799
4.90723e-06
-3.84203e-11
0.0167962
1.00291e-05
-6.80776e-11
0.0167954
3.432e-05
-4.73509e-11
0.0167896
6.99134e-05
-2.14507e-10
0.0167819
0.00030214
-1.54459e-10
0.0167675
0.000813327
-8.04858e-10
0.0168644
0.00432515
-1.90215e-09
0.0154578
0.008072
1.39058e-10
0.0140296
0.00764081
-2.31101e-10
0.0127044
0.00766236
-3.60558e-10
0.011379
0.00799894
-3.47898e-10
0.00995839
0.00865688
-3.2757e-10
0.00836817
0.00943019
-3.31336e-10
0.00661457
0.0102154
-3.35413e-10
0.00464705
0.0110629
-3.32203e-10
0.0024253
0.0119206
-3.27857e-10
0.0125292
-3.26456e-10
0.0168001
9.57133e-10
-3.27817e-12
0.0168001
5.2946e-09
-1.15839e-11
0.0168001
1.97081e-08
-1.35436e-11
0.0168001
5.05639e-08
-2.12265e-11
0.0168
1.39115e-07
-2.14643e-11
0.0168
3.18192e-07
-2.81507e-11
0.0168
8.29772e-07
-2.78769e-11
0.0167999
1.84471e-06
-3.55281e-11
0.0167999
4.88537e-06
-3.78752e-11
0.0167994
1.06526e-05
-5.50646e-11
0.0168022
3.12887e-05
-6.14214e-11
0.016803
6.935e-05
-1.74154e-10
0.0168494
0.000255124
-1.83449e-10
0.0169786
0.000683954
-7.28616e-10
0.0180572
0.00324425
-1.82708e-09
0.0166356
0.00949359
-6.97949e-11
0.014857
0.00941945
-2.45037e-10
0.0134487
0.00907033
-3.08536e-10
0.0120974
0.0093501
-3.08979e-10
0.0106546
0.0100985
-3.05779e-10
0.00905399
0.01103
-3.19041e-10
0.00724668
0.0120215
-3.28979e-10
0.00520289
0.0131055
-3.31863e-10
0.00282543
0.014297
-3.29828e-10
0.0153534
-3.28953e-10
0.0168001
1.0312e-09
-3.24517e-12
0.0168001
5.73285e-09
-1.15927e-11
0.0168001
2.13871e-08
-1.35405e-11
0.0168001
5.51334e-08
-2.12204e-11
0.0168
1.51548e-07
-2.14339e-11
0.0168
3.47969e-07
-2.80851e-11
0.0167999
9.03588e-07
-2.76776e-11
0.0167998
2.03186e-06
-3.50727e-11
0.0167994
5.25473e-06
-3.66593e-11
0.0167982
1.18472e-05
-5.23071e-11
0.0167981
3.12005e-05
-5.29729e-11
0.016791
7.67495e-05
-1.60529e-10
0.0168124
0.000233143
-1.11708e-10
0.0168449
0.000651555
-5.21317e-10
0.0172729
0.00281474
-9.41332e-10
0.016706
0.0100593
-8.3227e-10
0.0151729
0.0109521
-4.12188e-10
0.0140185
0.0102243
-3.09818e-10
0.0127781
0.0105899
-3.06223e-10
0.0114154
0.0114605
-3.01829e-10
0.00986929
0.0125749
-3.1314e-10
0.00809143
0.013798
-3.21126e-10
0.00600221
0.0151933
-3.24212e-10
0.00342127
0.0168766
-3.26623e-10
0.0187731
-3.30751e-10
0.0168001
1.39735e-09
-3.21909e-12
0.0168001
6.23811e-09
-1.15926e-11
0.0168001
2.54556e-08
-1.35543e-11
0.0168
6.12097e-08
-2.12194e-11
0.0168
1.78791e-07
-2.14645e-11
0.0168
3.90623e-07
-2.81441e-11
0.0167998
1.04595e-06
-2.78887e-11
0.0167995
2.36697e-06
-3.56436e-11
0.0167993
5.48409e-06
-3.69832e-11
0.0167973
1.3822e-05
-5.90481e-11
0.0167966
3.1795e-05
-4.20251e-11
0.0168
7.35806e-05
-1.78531e-10
0.0167944
0.000238131
-5.65296e-11
0.016806
0.000640279
-4.88109e-10
0.0170179
0.00260171
-7.14619e-10
0.0163255
0.0107501
-1.27512e-09
0.0157362
0.0115407
-3.55425e-10
0.0145289
0.011431
-2.883e-10
0.0133057
0.0118126
-2.89092e-10
0.0121452
0.0126198
-2.92186e-10
0.0107508
0.0139683
-3.0107e-10
0.0091294
0.0154175
-3.10403e-10
0.00718327
0.0171377
-3.12991e-10
0.00449819
0.0195597
-3.15091e-10
0.0232686
-3.23544e-10
0.0168001
-3.24104e-12
2.00233e-09
0.0168001
-1.16267e-11
1.47537e-09
0.0168001
-1.36223e-11
2.64984e-08
0.0168001
-2.18627e-11
2.26199e-08
0.0168001
-2.11714e-11
1.74548e-07
0.0168003
-2.90896e-11
1.47217e-07
0.0168003
-2.804e-11
1.06021e-06
0.016802
-3.73064e-11
7.40561e-07
0.0168003
-3.58955e-11
7.1618e-06
0.0168113
-5.89617e-11
2.96998e-06
0.0167892
-5.91916e-11
5.38293e-05
0.0168521
-1.32355e-10
1.09411e-05
0.0167087
-5.80357e-11
0.000381012
0.0169903
-5.13011e-10
0.000358663
0.016942
-5.37016e-10
0.00264937
0.0165495
-1.45038e-09
0.0111407
0.0157029
-2.64769e-10
0.0123866
0.0148367
-2.26782e-10
0.0122966
0.0139149
-2.66208e-10
0.0127334
0.0129084
-2.74673e-10
0.0136252
0.0118278
-2.85835e-10
0.0150475
0.0105483
-2.90699e-10
0.0166952
0.00878577
-2.96866e-10
0.018898
0.00620263
-3.00567e-10
0.0221398
-3.02162e-10
0.0294682
0.0168001
1.8546e-10
-4.91844e-16
0.0168001
1.00314e-09
-2.63244e-15
0.0168001
3.73699e-09
-5.6536e-15
0.0168
9.55261e-09
-1.19752e-14
0.0168
2.65228e-08
-2.12273e-14
0.0168
6.05897e-08
-3.99039e-14
0.0167998
1.60942e-07
-7.98521e-14
0.0167994
3.55701e-07
-1.55518e-13
0.0167984
9.82436e-07
-3.6169e-13
0.0167964
2.114e-06
-7.39694e-13
0.0167894
6.63076e-06
-2.10592e-12
0.0167744
1.55006e-05
-4.89155e-12
0.0167114
6.2238e-05
-1.29288e-11
0.0165297
0.000181306
-4.29011e-11
0.0154608
0.00106694
-1.16791e-10
0.0141826
0.00127828
2.12935e-11
0.0129431
0.0012394
-2.00722e-12
0.0116547
0.0012881
-1.13838e-11
0.0102989
0.00135556
-1.02588e-11
0.00885721
0.00144104
-8.77818e-12
0.00730828
0.00154842
-1.08931e-11
0.00564506
0.00166226
-1.37495e-11
0.00387657
0.0017677
-1.62334e-11
0.00200064
0.00187539
-1.90725e-11
0.00199983
-2.23586e-11
0.0168001
3.53437e-10
-4.78784e-16
0.0168001
1.9238e-09
-2.57748e-15
0.0168001
7.16065e-09
-5.4579e-15
0.0168
1.83272e-08
-1.15493e-14
0.0168
5.086e-08
-1.99331e-14
0.0168
1.15734e-07
-3.6857e-14
0.0167998
3.118e-07
-7.3723e-14
0.0167995
6.68608e-07
-1.28548e-13
0.0167985
1.97256e-06
-3.64309e-13
0.0167967
4.01103e-06
-5.83335e-13
0.0167895
1.34717e-05
-2.16306e-12
0.0167753
3.01742e-05
-4.02283e-12
0.0167052
0.000131528
-1.67005e-11
0.0165178
0.000368396
-4.26938e-11
0.0154438
0.00213894
-1.22047e-10
0.0141311
0.00259104
2.42117e-11
0.0129103
0.00246022
8.22598e-13
0.0116424
0.00255568
-1.05752e-11
0.0102967
0.00270096
-9.98246e-12
0.00884258
0.00289456
-8.93359e-12
0.00727542
0.0031151
-1.05442e-11
0.00559809
0.00333866
-1.30083e-11
0.00381328
0.00355178
-1.53143e-11
0.0019306
0.00375755
-1.78464e-11
0.00392963
-2.05846e-11
0.0168001
5.1347e-10
-4.7726e-16
0.0168001
2.77194e-09
-2.57067e-15
0.0168001
1.03232e-08
-5.4432e-15
0.0168
2.6276e-08
-1.15094e-14
0.0168
7.32756e-08
-1.99027e-14
0.0168
1.66221e-07
-3.68126e-14
0.0167998
4.50607e-07
-7.39934e-14
0.0167995
9.63803e-07
-1.29924e-13
0.0167986
2.85254e-06
-3.68551e-13
0.0167969
5.81845e-06
-5.97241e-13
0.0167902
1.98514e-05
-2.22818e-12
0.0167759
4.49004e-05
-4.16416e-12
0.0167113
0.000195373
-1.72696e-11
0.0165327
0.000546697
-4.4065e-11
0.0155449
0.00312455
-1.27311e-10
0.0142074
0.00392878
2.80986e-11
0.0129809
0.0036867
3.17065e-12
0.0117225
0.00381373
-1.04215e-11
0.0103874
0.00403576
-1.02904e-11
0.00893258
0.00434872
-9.66671e-12
0.00735939
0.00468779
-1.04988e-11
0.00566549
0.00503163
-1.23004e-11
0.00385481
0.0053617
-1.39836e-11
0.00194991
0.0056619
-1.56874e-11
0.00587877
-1.73751e-11
0.0168001
5.79698e-10
-4.76919e-16
0.0168001
3.21576e-09
-2.56887e-15
0.0168001
1.19243e-08
-5.44605e-15
0.0168001
3.04997e-08
-1.15074e-14
0.0168
8.43872e-08
-1.99809e-14
0.0168
1.89645e-07
-3.70131e-14
0.0167999
5.27208e-07
-7.477e-14
0.0167999
1.01802e-06
-1.32801e-13
0.016799
3.71134e-06
-3.73487e-13
0.0167992
5.66541e-06
-6.16886e-13
0.0167903
2.85034e-05
-2.28257e-12
0.0167818
5.37322e-05
-4.22558e-12
0.0167189
0.000257527
-1.75655e-11
0.0165663
0.000699024
-4.4613e-11
0.015744
0.00394462
-1.31489e-10
0.0143875
0.00528547
3.08413e-11
0.0131525
0.00492172
4.23817e-12
0.0119004
0.00506554
-1.06757e-11
0.0105754
0.00536047
-1.07572e-11
0.00912739
0.00579599
-1.03022e-11
0.00755266
0.00626197
-1.04772e-11
0.00585234
0.00673096
-1.17285e-11
0.00400941
0.00720392
-1.268e-11
0.00203152
0.00763924
-1.34899e-11
0.0079095
-1.42032e-11
0.0168001
7.61993e-10
-4.60047e-16
0.0168001
4.16367e-09
-2.51967e-15
0.0168001
1.54578e-08
-5.25446e-15
0.0168
3.94901e-08
-1.08247e-14
0.0168
1.09314e-07
-1.87137e-14
0.0168
2.48139e-07
-3.31468e-14
0.0167998
6.70112e-07
-6.72876e-14
0.0167995
1.38922e-06
-9.57645e-14
0.0167986
4.47825e-06
-3.93435e-13
0.0167972
7.23641e-06
-2.71945e-13
0.0167917
3.37319e-05
-3.64372e-12
0.016782
6.38016e-05
-3.36007e-12
0.0167437
0.000295109
-1.63092e-11
0.0166431
0.000799275
-4.47451e-11
0.0161606
0.00442483
-1.36778e-10
0.014781
0.00666525
3.18009e-11
0.0134901
0.00621261
5.92801e-12
0.0122179
0.00633741
-1.04122e-11
0.0109042
0.00667386
-1.08908e-11
0.00946232
0.00723713
-1.08071e-11
0.0078834
0.00784031
-1.00597e-11
0.00615037
0.00846274
-1.07398e-11
0.00425714
0.00909629
-1.12476e-11
0.00219618
0.00969955
-1.14714e-11
0.0101048
-1.15102e-11
0.0168001
9.31729e-10
-4.75017e-16
0.0168001
5.03299e-09
-2.57391e-15
0.0168001
1.87362e-08
-5.47691e-15
0.0168
4.78671e-08
-1.13528e-14
0.0168
1.32722e-07
-2.0278e-14
0.0168
3.0324e-07
-3.71639e-14
0.0167998
8.02024e-07
-7.44244e-14
0.0167995
1.77434e-06
-1.38567e-13
0.016799
4.90907e-06
-3.66213e-13
0.0167962
1.00385e-05
-5.71192e-13
0.0167954
3.4323e-05
-2.45985e-12
0.0167896
6.9939e-05
-3.78638e-12
0.0167819
0.000302152
-1.74228e-11
0.0167675
0.000813408
-4.29762e-11
0.0168643
0.00432564
-1.35474e-10
0.0154579
0.00807187
2.77089e-11
0.0140297
0.00764077
6.41622e-12
0.0127044
0.00766234
-9.99083e-12
0.011379
0.00799893
-1.10328e-11
0.00995839
0.00865685
-1.1814e-11
0.00836814
0.00943011
-1.0278e-11
0.00661452
0.0102153
-1.02539e-11
0.004647
0.0110628
-1.02365e-11
0.00242526
0.0119205
-9.86616e-12
0.0125291
-9.35229e-12
0.0168001
9.7361e-10
-4.69918e-16
0.0168001
5.30376e-09
-2.54907e-15
0.0168001
1.97221e-08
-5.40229e-15
0.0168001
5.05818e-08
-1.11815e-14
0.0168
1.3915e-07
-1.98038e-14
0.0168
3.18258e-07
-3.60976e-14
0.0168
8.2993e-07
-7.15054e-14
0.0167999
1.84506e-06
-1.32387e-13
0.0167999
4.88623e-06
-3.36116e-13
0.0167994
1.06546e-05
-6.08882e-13
0.0168022
3.12948e-05
-2.14836e-12
0.016803
6.93609e-05
-3.53723e-12
0.0168494
0.000255176
-1.57834e-11
0.0169785
0.000684111
-3.93836e-11
0.0180567
0.00324518
-1.31132e-10
0.0166352
0.00949334
1.08198e-11
0.0148569
0.00941913
2.49652e-12
0.0134486
0.00907024
-9.76337e-12
0.0120974
0.00935003
-1.10604e-11
0.0106546
0.0100984
-1.2005e-11
0.00905399
0.0110299
-1.01561e-11
0.00724666
0.0120214
-9.5725e-12
0.00520287
0.0131054
-9.47709e-12
0.00282541
0.0142969
-8.71181e-12
0.0153533
-7.70551e-12
0.0168001
1.04258e-09
-4.58728e-16
0.0168001
5.73753e-09
-2.498e-15
0.0168001
2.13804e-08
-5.23477e-15
0.0168001
5.51043e-08
-1.08196e-14
0.0168
1.51466e-07
-1.86849e-14
0.0168
3.47855e-07
-3.38153e-14
0.0167999
9.03322e-07
-6.40749e-14
0.0167998
2.03133e-06
-1.18397e-13
0.0167994
5.25407e-06
-2.78058e-13
0.0167982
1.18442e-05
-5.38077e-13
0.0167981
3.12046e-05
-1.44833e-12
0.016791
7.67408e-05
-3.37009e-12
0.0168124
0.000233181
-9.28942e-12
0.0168451
0.000651605
-2.41746e-11
0.0172736
0.00281513
-6.40848e-11
0.0167063
0.0100594
-4.84797e-11
0.015173
0.0109521
-1.71273e-11
0.0140185
0.0102243
-1.37638e-11
0.0127781
0.0105898
-1.39614e-11
0.0114154
0.0114604
-1.37047e-11
0.00986933
0.0125748
-1.17634e-11
0.00809145
0.0137979
-1.03105e-11
0.00600221
0.0151932
-9.51862e-12
0.00342126
0.0168764
-8.27667e-12
0.018773
-6.83826e-12
0.0168001
1.37378e-09
-4.56421e-16
0.0168001
6.34499e-09
-2.4817e-15
0.0168001
2.54942e-08
-5.20421e-15
0.0168
6.09709e-08
-1.07519e-14
0.0168
1.78813e-07
-1.85911e-14
0.0168
3.90209e-07
-3.37302e-14
0.0167998
1.04573e-06
-6.39258e-14
0.0167995
2.36626e-06
-1.21611e-13
0.0167993
5.48383e-06
-2.60999e-13
0.0167973
1.38224e-05
-6.21314e-13
0.0167966
3.17893e-05
-1.03973e-12
0.0168
7.35973e-05
-3.72388e-12
0.0167944
0.000238133
-6.50288e-12
0.0168061
0.000640305
-2.03738e-11
0.0170182
0.00260191
-5.06775e-11
0.0163257
0.0107502
-8.1468e-11
0.0157364
0.0115407
-1.74753e-11
0.0145291
0.011431
-1.39125e-11
0.0133058
0.0118126
-1.45446e-11
0.0121452
0.0126198
-1.41847e-11
0.0107509
0.0139682
-1.29283e-11
0.00912945
0.0154175
-1.12654e-11
0.0071833
0.0171376
-1.03336e-11
0.0044982
0.0195596
-8.49109e-12
0.0232685
-6.83628e-12
0.0168001
-4.4767e-16
1.86665e-09
0.0168001
-2.41564e-15
1.84063e-09
0.0168001
-4.97479e-15
2.53008e-08
0.0168001
-1.04951e-14
2.31358e-08
0.0168001
-1.67988e-14
1.73141e-07
0.0168003
-3.07344e-14
1.47862e-07
0.0168003
-5.34448e-14
1.05913e-06
0.016802
-9.83581e-14
7.41661e-07
0.0168003
-2.08256e-13
7.16057e-06
0.0168113
-4.01685e-13
2.97565e-06
0.0167892
-1.04594e-12
5.38262e-05
0.0168521
-2.32209e-12
1.09614e-05
0.0167087
-5.30343e-12
0.000380976
0.0169902
-2.03715e-11
0.000358765
0.0169422
-4.18456e-11
0.00264934
0.0165496
-9.56797e-11
0.0111409
0.015703
-1.37701e-11
0.0123865
0.0148368
-1.14428e-11
0.0122966
0.013915
-1.40066e-11
0.0127334
0.0129085
-1.4016e-11
0.0136252
0.0118279
-1.32004e-11
0.0150475
0.0105484
-1.25013e-11
0.0166952
0.00878583
-1.12273e-11
0.0188979
0.00620266
-9.60308e-12
0.0221397
-8.04092e-12
0.0294681
0.0168001
1.85466e-10
1.72433e-16
0.0168001
1.00317e-09
1.69224e-16
0.0168001
3.7371e-09
-7.40866e-17
0.0168
9.55288e-09
-1.60378e-16
0.0168
2.65236e-08
-4.68359e-16
0.0168
6.05917e-08
-9.68032e-16
0.0167998
1.60946e-07
-2.77295e-15
0.0167994
3.55716e-07
-5.85621e-15
0.0167984
9.82444e-07
-1.63637e-14
0.0167964
2.11408e-06
-3.41559e-14
0.0167894
6.63078e-06
-1.08532e-13
0.0167744
1.55011e-05
-2.52828e-13
0.0167114
6.2236e-05
-7.22e-13
0.0165297
0.000181305
-2.38607e-12
0.0154608
0.00106693
-6.67472e-12
0.0141826
0.00127827
1.30705e-12
0.0129432
0.0012394
2.50599e-13
0.0116548
0.0012881
-1.85874e-13
0.0102989
0.00135556
-1.0628e-13
0.00885724
0.00144104
5.16732e-14
0.00730831
0.00154842
2.16894e-14
0.00564509
0.00166226
-6.92846e-14
0.0038766
0.00176771
-1.66507e-13
0.00200066
0.0018754
-3.24953e-13
0.00199984
-5.49316e-13
0.0168001
3.53438e-10
1.71056e-16
0.0168001
1.92381e-09
1.77107e-16
0.0168001
7.16067e-09
-6.46777e-17
0.0168
1.83273e-08
-1.39899e-16
0.0168
5.08601e-08
-4.04396e-16
0.0168
1.15734e-07
-8.16852e-16
0.0167998
3.118e-07
-2.45853e-15
0.0167995
6.68609e-07
-4.49618e-15
0.0167985
1.97256e-06
-1.63816e-14
0.0167967
4.01102e-06
-2.61065e-14
0.0167895
1.34717e-05
-1.10622e-13
0.0167753
3.01741e-05
-2.06014e-13
0.0167052
0.000131528
-9.11903e-13
0.0165178
0.000368395
-2.35354e-12
0.0154438
0.00213894
-6.87488e-12
0.0141311
0.00259104
1.45211e-12
0.0129103
0.00246022
4.63726e-13
0.0116424
0.00255568
-1.49866e-13
0.0102967
0.00270095
-9.05446e-14
0.00884259
0.00289455
5.02419e-14
0.00727543
0.0031151
2.47647e-14
0.0055981
0.00333866
-4.0121e-14
0.00381329
0.00355178
-1.35368e-13
0.0019306
0.00375756
-2.63736e-13
0.00392966
-4.49013e-13
0.0168001
5.13471e-10
1.70858e-16
0.0168001
2.77195e-09
1.78139e-16
0.0168001
1.03232e-08
-6.37189e-17
0.0168
2.6276e-08
-1.37698e-16
0.0168
7.32758e-08
-4.00663e-16
0.0168
1.66221e-07
-8.10335e-16
0.0167998
4.50608e-07
-2.45422e-15
0.0167995
9.63805e-07
-4.52599e-15
0.0167986
2.85254e-06
-1.64506e-14
0.0167969
5.81846e-06
-2.65185e-14
0.0167902
1.98514e-05
-1.12727e-13
0.0167759
4.49004e-05
-2.1051e-13
0.0167113
0.000195373
-9.30836e-13
0.0165327
0.000546697
-2.3944e-12
0.0155449
0.00312455
-7.06047e-12
0.0142074
0.00392877
1.64038e-12
0.0129809
0.00368669
4.70618e-13
0.0117225
0.00381373
-1.28702e-13
0.0103874
0.00403576
-9.51297e-14
0.00893259
0.00434872
3.71127e-14
0.00735939
0.00468779
-8.99664e-15
0.00566549
0.00503163
-1.27278e-14
0.00385481
0.00536171
-8.98492e-14
0.00194991
0.00566192
-1.5812e-13
0.00587879
-2.62522e-13
0.0168001
5.79705e-10
1.70808e-16
0.0168001
3.21578e-09
1.78241e-16
0.0168001
1.19244e-08
-6.40806e-17
0.0168001
3.05e-08
-1.38432e-16
0.0168
8.43878e-08
-4.05424e-16
0.0168
1.89647e-07
-8.22881e-16
0.0167999
5.27212e-07
-2.49142e-15
0.0167999
1.01803e-06
-4.68481e-15
0.016799
3.71134e-06
-1.6593e-14
0.0167992
5.66554e-06
-2.75193e-14
0.0167903
2.85032e-05
-1.14548e-13
0.0167818
5.37326e-05
-2.12477e-13
0.0167189
0.000257527
-9.33659e-13
0.0165663
0.000699024
-2.39374e-12
0.015744
0.00394463
-7.1886e-12
0.0143875
0.00528545
1.78265e-12
0.0131525
0.00492172
5.36577e-13
0.0119004
0.00506554
-1.17283e-13
0.0105754
0.00536046
-9.21095e-14
0.00912739
0.00579598
3.2709e-14
0.00755266
0.00626197
-1.76723e-14
0.00585234
0.00673096
4.02233e-14
0.00400941
0.00720392
3.20094e-15
0.00203152
0.00763926
-2.03592e-14
0.00790952
-5.49625e-14
0.0168001
7.61986e-10
1.68784e-16
0.0168001
4.16365e-09
1.85719e-16
0.0168001
1.54577e-08
-5.3491e-17
0.0168
3.94898e-08
-1.13752e-16
0.0168
1.09313e-07
-3.30692e-16
0.0168
2.48137e-07
-6.43375e-16
0.0167998
6.70108e-07
-2.10711e-15
0.0167995
1.3892e-06
-2.82652e-15
0.0167986
4.47826e-06
-1.74776e-14
0.0167972
7.23629e-06
-9.6856e-15
0.0167917
3.37321e-05
-1.46043e-13
0.016782
6.38015e-05
-1.64332e-13
0.0167437
0.000295111
-9.88791e-13
0.0166431
0.000799277
-2.36493e-12
0.0161606
0.00442485
-7.34935e-12
0.014781
0.00666524
1.84734e-12
0.0134901
0.00621261
6.26346e-13
0.0122179
0.0063374
-8.36807e-14
0.0109042
0.00667386
-7.86901e-14
0.00946232
0.00723712
4.70025e-14
0.0078834
0.0078403
5.93678e-15
0.00615036
0.00846274
9.01448e-14
0.00425713
0.00909629
1.12734e-13
0.00219617
0.00969956
1.26464e-13
0.0101049
1.49371e-13
0.0168001
9.31731e-10
1.7032e-16
0.0168001
5.033e-09
1.77365e-16
0.0168001
1.87362e-08
-6.52986e-17
0.0168
4.78672e-08
-1.4167e-16
0.0168
1.32723e-07
-4.11893e-16
0.0168
3.0324e-07
-8.49206e-16
0.0167998
8.02025e-07
-2.47306e-15
0.0167995
1.77434e-06
-4.96738e-15
0.016799
4.90908e-06
-1.6102e-14
0.0167962
1.00385e-05
-2.45043e-14
0.0167954
3.43232e-05
-1.2247e-13
0.0167896
6.99393e-05
-1.82304e-13
0.0167819
0.000302154
-9.0368e-13
0.0167675
0.000813414
-2.23685e-12
0.0168643
0.00432568
-7.16466e-12
0.0154579
0.00807186
1.64616e-12
0.0140297
0.00764075
6.49595e-13
0.0127044
0.00766234
-4.31361e-14
0.011379
0.00799892
-5.66608e-14
0.00995838
0.00865684
3.94413e-14
0.00836814
0.0094301
5.99834e-14
0.00661451
0.0102153
1.43877e-13
0.00464699
0.0110628
2.4977e-13
0.00242526
0.0119205
2.9787e-13
0.0125291
3.58136e-13
0.0168001
9.73615e-10
1.69761e-16
0.0168001
5.30379e-09
1.80561e-16
0.0168001
1.97222e-08
-6.19012e-17
0.0168001
5.0582e-08
-1.33833e-16
0.0168
1.3915e-07
-3.88118e-16
0.0168
3.1826e-07
-7.94476e-16
0.0168
8.29935e-07
-2.3147e-15
0.0167999
1.84507e-06
-4.62661e-15
0.0167999
4.88626e-06
-1.43883e-14
0.0167994
1.06547e-05
-2.6575e-14
0.0168022
3.12952e-05
-1.0432e-13
0.016803
6.93613e-05
-1.67139e-13
0.0168494
0.00025518
-8.02557e-13
0.0169785
0.000684124
-2.00657e-12
0.0180566
0.00324525
-6.77757e-12
0.0166352
0.00949333
7.8163e-13
0.0148569
0.0094191
3.60986e-13
0.0134486
0.00907022
-1.0843e-14
0.0120973
0.00935002
-3.48589e-14
0.0106546
0.0100984
4.6724e-14
0.00905398
0.0110299
1.68927e-13
0.00724665
0.0120214
2.21747e-13
0.00520286
0.0131054
4.08263e-13
0.00282541
0.0142969
5.19375e-13
0.0153533
6.09253e-13
0.0168001
1.04258e-09
1.68512e-16
0.0168001
5.73754e-09
1.87516e-16
0.0168001
2.13804e-08
-5.38027e-17
0.0168001
5.51044e-08
-1.16452e-16
0.0168
1.51467e-07
-3.32434e-16
0.0168
3.47856e-07
-6.80744e-16
0.0167999
9.03324e-07
-1.93513e-15
0.0167998
2.03134e-06
-3.9123e-15
0.0167994
5.25409e-06
-1.13535e-14
0.0167982
1.18442e-05
-2.29039e-14
0.0167981
3.12049e-05
-6.72747e-14
0.016791
7.67408e-05
-1.57865e-13
0.0168124
0.000233183
-4.56606e-13
0.0168451
0.00065161
-1.19053e-12
0.0172736
0.00281517
-3.18454e-12
0.0167064
0.0100594
-2.23884e-12
0.015173
0.0109521
-5.47583e-13
0.0140185
0.0102243
-1.85271e-13
0.0127781
0.0105898
-1.21237e-13
0.0114154
0.0114604
1.4158e-14
0.00986932
0.0125748
2.34e-13
0.00809143
0.0137979
2.9696e-13
0.0060022
0.0151932
5.38906e-13
0.00342125
0.0168764
7.89843e-13
0.018773
9.3274e-13
0.0168001
1.37378e-09
1.6827e-16
0.0168001
6.34504e-09
1.89679e-16
0.0168001
2.54944e-08
-5.19909e-17
0.0168
6.09712e-08
-1.12549e-16
0.0168
1.78814e-07
-3.25189e-16
0.0168
3.90211e-07
-6.70966e-16
0.0167998
1.04574e-06
-1.90707e-15
0.0167995
2.36627e-06
-4.02796e-15
0.0167993
5.48386e-06
-1.03737e-14
0.0167973
1.38225e-05
-2.66871e-14
0.0167966
3.17894e-05
-4.59643e-14
0.0168
7.35979e-05
-1.73813e-13
0.0167944
0.000238134
-3.08372e-13
0.0168061
0.000640307
-9.75998e-13
0.0170182
0.00260193
-2.43521e-12
0.0163257
0.0107502
-3.82695e-12
0.0157365
0.0115407
-4.84176e-13
0.0145291
0.011431
-2.32824e-13
0.0133058
0.0118126
-3.72797e-14
0.0121452
0.0126198
5.19211e-14
0.0107509
0.0139682
3.07478e-13
0.00912944
0.0154175
4.80979e-13
0.00718329
0.0171376
6.95606e-13
0.0044982
0.0195596
1.12745e-12
0.0232685
1.41449e-12
0.0168001
1.67929e-16
1.86663e-09
0.0168001
1.99153e-16
1.84071e-09
0.0168001
-3.92515e-17
2.53007e-08
0.0168001
-8.50565e-17
2.31362e-08
0.0168001
-2.39462e-16
1.73141e-07
0.0168003
-4.94594e-16
1.47864e-07
0.0168003
-1.35415e-15
1.05914e-06
0.016802
-2.86065e-15
7.4167e-07
0.0168003
-7.54911e-15
7.1606e-06
0.0168113
-1.57599e-14
2.97571e-06
0.0167892
-4.52799e-14
5.38264e-05
0.0168521
-1.03828e-13
1.09617e-05
0.0167087
-2.43234e-13
0.000380977
0.0169902
-9.50947e-13
0.000358768
0.0169422
-1.96146e-12
0.00264934
0.0165496
-4.42156e-12
0.0111409
0.015703
-2.53975e-13
0.0123866
0.0148368
-7.10086e-14
0.0122966
0.0139151
6.35928e-14
0.0127334
0.0129085
1.43972e-13
0.0136252
0.0118279
4.36318e-13
0.0150475
0.0105484
6.01019e-13
0.0166952
0.00878582
1.00348e-12
0.0188979
0.00620265
1.66363e-12
0.0221397
2.28946e-12
0.0294681
0.0168001
1.85466e-10
1.49781e-17
0.0168001
1.00317e-09
5.85681e-17
0.0168001
3.7371e-09
1.5515e-16
0.0168
9.55289e-09
2.79366e-16
0.0168
2.65236e-08
5.92776e-16
0.0168
6.05918e-08
1.02098e-15
0.0167998
1.60946e-07
2.11363e-15
0.0167994
3.55717e-07
4.1246e-15
0.0167984
9.82444e-07
7.66034e-15
0.0167964
2.11408e-06
1.79238e-14
0.0167894
6.63078e-06
4.1871e-14
0.0167744
1.55011e-05
1.039e-13
0.0167114
6.22359e-05
1.77794e-13
0.0165297
0.000181305
6.17919e-13
0.0154608
0.00106693
1.11508e-12
0.0141826
0.00127827
-2.02939e-12
0.0129432
0.0012394
-1.04785e-12
0.0116548
0.0012881
-1.07519e-12
0.0102989
0.00135556
-1.33298e-12
0.00885724
0.00144104
-1.80899e-12
0.00730832
0.00154842
-1.98066e-12
0.0056451
0.00166226
-2.06698e-12
0.0038766
0.00176771
-2.14138e-12
0.00200066
0.0018754
-2.17453e-12
0.00199984
-2.18466e-12
0.0168001
3.53438e-10
1.31781e-17
0.0168001
1.92381e-09
5.23737e-17
0.0168001
7.16067e-09
1.39028e-16
0.0168
1.83273e-08
2.51238e-16
0.0168
5.08601e-08
5.29798e-16
0.0168
1.15734e-07
8.94943e-16
0.0167998
3.118e-07
1.90636e-15
0.0167995
6.68609e-07
3.26155e-15
0.0167985
1.97256e-06
7.78114e-15
0.0167967
4.01102e-06
1.34016e-14
0.0167895
1.34717e-05
4.38933e-14
0.0167753
3.01741e-05
8.17109e-14
0.0167052
0.000131528
2.79964e-13
0.0165178
0.000368394
6.26384e-13
0.0154438
0.00213894
1.29631e-12
0.0141311
0.00259104
-2.13639e-12
0.0129103
0.00246022
-1.17286e-12
0.0116424
0.00255568
-1.13138e-12
0.0102967
0.00270095
-1.36994e-12
0.00884259
0.00289455
-1.83826e-12
0.00727543
0.0031151
-2.03539e-12
0.00559811
0.00333866
-2.12793e-12
0.00381329
0.00355178
-2.20443e-12
0.0019306
0.00375756
-2.23682e-12
0.00392966
-2.24395e-12
0.0168001
5.13471e-10
1.29706e-17
0.0168001
2.77195e-09
5.15005e-17
0.0168001
1.03232e-08
1.37409e-16
0.0168
2.6276e-08
2.4843e-16
0.0168
7.32758e-08
5.27829e-16
0.0168
1.66221e-07
8.93439e-16
0.0167998
4.50608e-07
1.92309e-15
0.0167995
9.63805e-07
3.32315e-15
0.0167986
2.85254e-06
7.94105e-15
0.0167969
5.81846e-06
1.39504e-14
0.0167902
1.98514e-05
4.60131e-14
0.0167759
4.49004e-05
8.65792e-14
0.0167113
0.000195373
2.98692e-13
0.0165327
0.000546697
6.73968e-13
0.0155449
0.00312455
1.44967e-12
0.0142074
0.00392877
-2.30005e-12
0.0129809
0.00368669
-1.27988e-12
0.0117225
0.00381373
-1.18793e-12
0.0103874
0.00403576
-1.42384e-12
0.00893259
0.00434872
-1.90618e-12
0.00735939
0.00468779
-2.15479e-12
0.00566549
0.00503163
-2.26783e-12
0.00385481
0.00536171
-2.3635e-12
0.00194991
0.00566192
-2.40577e-12
0.0058788
-2.41404e-12
0.0168001
5.79705e-10
1.29477e-17
0.0168001
3.21578e-09
5.13675e-17
0.0168001
1.19244e-08
1.37546e-16
0.0168001
3.05e-08
2.48624e-16
0.0168
8.43879e-08
5.30996e-16
0.0168
1.89647e-07
9.00446e-16
0.0167999
5.27213e-07
1.94876e-15
0.0167999
1.01803e-06
3.39418e-15
0.016799
3.71134e-06
8.12252e-15
0.0167992
5.66555e-06
1.44271e-14
0.0167903
2.85032e-05
4.73979e-14
0.0167818
5.37326e-05
8.85193e-14
0.0167189
0.000257527
3.07728e-13
0.0165663
0.000699024
6.93184e-13
0.015744
0.00394463
1.54378e-12
0.0143875
0.00528545
-2.42577e-12
0.0131525
0.00492172
-1.3247e-12
0.0119004
0.00506554
-1.25345e-12
0.0105754
0.00536046
-1.50012e-12
0.00912739
0.00579598
-2.02649e-12
0.00755266
0.00626197
-2.33108e-12
0.00585234
0.00673096
-2.48115e-12
0.00400941
0.00720392
-2.62275e-12
0.00203152
0.00763926
-2.70944e-12
0.00790953
-2.73849e-12
0.0168001
7.61985e-10
1.10555e-17
0.0168001
4.16364e-09
4.54145e-17
0.0168001
1.54577e-08
1.21447e-16
0.0168
3.94898e-08
2.20168e-16
0.0168
1.09313e-07
4.72481e-16
0.0168
2.48137e-07
7.90824e-16
0.0167998
6.70108e-07
1.7829e-15
0.0167995
1.3892e-06
2.71563e-15
0.0167986
4.47826e-06
8.39115e-15
0.0167972
7.23629e-06
1.02017e-14
0.0167917
3.37322e-05
5.8015e-14
0.016782
6.38015e-05
7.51988e-14
0.0167437
0.000295111
3.33909e-13
0.0166431
0.000799278
7.09826e-13
0.0161606
0.00442485
1.68942e-12
0.014781
0.00666524
-2.50407e-12
0.0134901
0.00621261
-1.41124e-12
0.0122179
0.0063374
-1.37378e-12
0.0109042
0.00667386
-1.62707e-12
0.00946232
0.00723712
-2.19566e-12
0.0078834
0.0078403
-2.58997e-12
0.00615036
0.00846274
-2.82268e-12