/*--------------------------------*- C++ -*----------------------------------*\
| =========                 |                                                 |
| \\      /  F ield         | OpenFOAM: The Open Source CFD Toolbox           |
|  \\    /   O peration     | Version:  4.1                                   |
|   \\  /    A nd           | Web:      www.OpenFOAM.org                      |
|    \\/     M anipulation  |                                                 |
\*---------------------------------------------------------------------------*/
FoamFile
{
    version     2.0;
    format      ascii;
    class       volScalarField;
    location    "8.92";
    object      p;
}
// * * * * * * * * * * * * * * * * * * * * * * * * * * * * * * * * * * * * * //

dimensions      [1 -1 -2 0 0 0 0];

internalField   nonuniform List<scalar> 
52500
(
1.00001
1.00004
1.00013
1.00029
1.00083
1.0017
1.00483
1.00965
1.02882
1.05381
1.18418
1.34715
2.26066
4.08283
9.91202
11.4093
11.2415
11.1538
11.234
11.452
11.6875
11.8409
11.958
12.0517
12.1254
1.00001
1.00004
1.00013
1.00028
1.00082
1.00168
1.00478
1.00955
1.02853
1.05321
1.18251
1.34283
2.24871
4.04844
9.8312
11.4022
11.233
11.1417
11.2227
11.4416
11.677
11.8304
11.9492
12.0445
12.1198
1.00001
1.00004
1.00013
1.00028
1.0008
1.00164
1.00468
1.00934
1.02794
1.05198
1.17901
1.33397
2.22327
3.97522
9.65225
11.3861
11.2113
11.108
11.1879
11.4046
11.6368
11.7872
11.905
11.9991
12.0736
1.00001
1.00004
1.00012
1.00027
1.00077
1.00159
1.00452
1.00902
1.02702
1.05011
1.17365
1.32064
2.18427
3.86391
9.37329
11.3666
11.1795
11.0534
11.1299
11.3403
11.5663
11.711
11.8247
11.9156
11.9897
1.00001
1.00003
1.00012
1.00025
1.00074
1.00151
1.0043
1.00855
1.02582
1.04737
1.1667
1.30283
2.13181
3.71485
8.9894
11.3468
11.1394
10.9799
11.0513
11.2525
11.4692
11.6055
11.7128
11.7992
11.8734
1.00001
1.00003
1.00011
1.00024
1.00069
1.00141
1.00402
1.00794
1.02432
1.04375
1.15784
1.28064
2.06851
3.52631
8.49621
11.3306
11.0916
10.8873
10.9515
11.1391
11.3428
11.4664
11.5625
11.64
11.7142
1.00001
1.00003
1.0001
1.00022
1.00063
1.0013
1.00372
1.00732
1.02253
1.04024
1.14612
1.25636
1.9886
3.30022
7.88721
11.3234
11.0406
10.7778
10.8328
11.0009
11.1853
11.2886
11.365
11.4238
11.4899
1.00001
1.00003
1.00009
1.0002
1.00058
1.0012
1.00342
1.00679
1.02047
1.03743
1.13155
1.23387
1.87888
3.04565
7.15084
11.3207
10.9918
10.6549
10.6978
10.8393
10.9955
11.0681
11.1105
11.1312
11.1692
1.00001
1.00002
1.00008
1.00018
1.00053
1.00109
1.00309
1.00624
1.01815
1.03521
1.11344
1.21166
1.75584
2.76807
6.30731
11.2932
10.9377
10.5256
10.5506
10.6531
10.7698
10.7983
10.7856
10.7287
10.6714
1
1.00002
1.00007
1.00016
1.00046
1.00095
1.0027
1.00545
1.01582
1.03106
1.09728
1.18634
1.63829
2.49435
5.43469
11.1354
10.8279
10.4067
10.3931
10.4438
10.5045
10.4813
10.3854
10.1652
9.83164
1.00001
1.00004
1.00014
1.00029
1.00083
1.0017
1.00484
1.00966
1.02884
1.05384
1.1842
1.34724
2.26077
4.08327
9.91292
11.4093
11.2415
11.1539
11.2341
11.4521
11.6876
11.841
11.9581
12.0518
12.1255
1.00001
1.00004
1.00013
1.00029
1.00082
1.00169
1.00479
1.00956
1.02855
1.05323
1.18253
1.34292
2.24882
4.04888
9.83207
11.4022
11.2331
11.1418
11.2228
11.4417
11.6771
11.8305
11.9493
12.0446
12.12
1.00001
1.00004
1.00013
1.00028
1.00081
1.00165
1.00468
1.00935
1.02795
1.052
1.17902
1.33406
2.22337
3.97564
9.65312
11.3862
11.2113
11.1081
11.188
11.4047
11.6369
11.7873
11.9052
11.9993
12.0737
1.00001
1.00004
1.00013
1.00027
1.00078
1.00159
1.00453
1.00903
1.02704
1.05013
1.17367
1.32073
2.18438
3.86433
9.37418
11.3666
11.1795
11.0535
11.13
11.3404
11.5664
11.7111
11.8248
11.9157
11.9898
1.00001
1.00004
1.00012
1.00026
1.00074
1.00152
1.00431
1.00857
1.02583
1.0474
1.16671
1.30292
2.1319
3.71526
8.9903
11.3468
11.1395
10.98
11.0515
11.2526
11.4693
11.6056
11.7129
11.7993
11.8735
1.00001
1.00003
1.00011
1.00024
1.00069
1.00141
1.00403
1.00795
1.02434
1.04377
1.15787
1.28071
2.06863
3.52672
8.49714
11.3305
11.0916
10.8874
10.9516
11.1392
11.3429
11.4665
11.5626
11.6401
11.7143
1.00001
1.00003
1.0001
1.00022
1.00064
1.00131
1.00373
1.00733
1.02255
1.04026
1.14615
1.25643
1.98873
3.30063
7.88819
11.3234
11.0407
10.7779
10.8329
11.001
11.1854
11.2887
11.3651
11.4239
11.49
1.00001
1.00003
1.0001
1.00021
1.00059
1.00121
1.00342
1.0068
1.02048
1.03746
1.13155
1.23397
1.87896
3.04603
7.1518
11.3207
10.9919
10.655
10.6979
10.8394
10.9956
11.0682
11.1106
11.1313
11.1693
1.00001
1.00003
1.00009
1.00019
1.00054
1.0011
1.0031
1.00625
1.01816
1.03523
1.11346
1.21172
1.75595
2.76841
6.30824
11.2933
10.9377
10.5257
10.5507
10.6532
10.7699
10.7983
10.7857
10.7288
10.6715
1.00001
1.00002
1.00008
1.00016
1.00047
1.00096
1.00271
1.00546
1.01583
1.03107
1.0973
1.18639
1.63837
2.4946
5.43525
11.1358
10.8281
10.4068
10.3931
10.4438
10.5046
10.4814
10.3855
10.1653
9.83173
1.00001
1.00004
1.00014
1.00029
1.00083
1.0017
1.00484
1.00966
1.02884
1.05384
1.18421
1.34724
2.26078
4.08331
9.91299
11.4093
11.2415
11.1539
11.2341
11.4521
11.6876
11.841
11.9581
12.0518
12.1255
1.00001
1.00004
1.00013
1.00029
1.00082
1.00169
1.00479
1.00956
1.02855
1.05323
1.18253
1.34292
2.24883
4.04891
9.83215
11.4022
11.2331
11.1418
11.2228
11.4417
11.6771
11.8305
11.9493
12.0446
12.12
1.00001
1.00004
1.00013
1.00028
1.00081
1.00165
1.00468
1.00935
1.02795
1.052
1.17903
1.33406
2.22338
3.97567
9.6532
11.3862
11.2113
11.1081
11.188
11.4047
11.6369
11.7873
11.9052
11.9993
12.0737
1.00001
1.00004
1.00013
1.00027
1.00078
1.00159
1.00453
1.00903
1.02704
1.05013
1.17367
1.32073
2.18439
3.86436
9.37426
11.3666
11.1795
11.0535
11.1301
11.3404
11.5665
11.7112
11.8248
11.9157
11.9898
1.00001
1.00004
1.00012
1.00026
1.00074
1.00152
1.00431
1.00857
1.02583
1.0474
1.16671
1.30293
2.13191
3.71529
8.99039
11.3468
11.1395
10.98
11.0515
11.2526
11.4693
11.6056
11.7129
11.7993
11.8735
1.00001
1.00003
1.00011
1.00024
1.00069
1.00141
1.00403
1.00795
1.02434
1.04377
1.15787
1.28071
2.06864
3.52675
8.49722
11.3305
11.0916
10.8874
10.9516
11.1392
11.3429
11.4665
11.5626
11.6401
11.7143
1.00001
1.00003
1.0001
1.00022
1.00064
1.00131
1.00373
1.00733
1.02255
1.04026
1.14615
1.25643
1.98874
3.30066
7.88828
11.3234
11.0407
10.778
10.8329
11.001
11.1854
11.2887
11.3651
11.4239
11.49
1.00001
1.00003
1.0001
1.00021
1.00059
1.00121
1.00342
1.0068
1.02048
1.03746
1.13156
1.23397
1.87897
3.04606
7.15189
11.3207
10.9919
10.6551
10.6979
10.8394
10.9956
11.0682
11.1106
11.1313
11.1693
1.00001
1.00003
1.00009
1.00019
1.00054
1.0011
1.0031
1.00625
1.01816
1.03523
1.11346
1.21173
1.75596
2.76844
6.30833
11.2933
10.9377
10.5257
10.5507
10.6532
10.7699
10.7983
10.7857
10.7288
10.6715
1.00001
1.00002
1.00008
1.00016
1.00047
1.00096
1.00271
1.00546
1.01583
1.03107
1.09731
1.1864
1.63838
2.49463
5.43531
11.1359
10.8281
10.4068
10.3931
10.4438
10.5046
10.4814
10.3855
10.1653
9.83174
1.00001
1.00004
1.00014
1.00029
1.00083
1.0017
1.00484
1.00966
1.02884
1.05384
1.18421
1.34724
2.26078
4.08331
9.913
11.4093
11.2415
11.1539
11.2341
11.4521
11.6876
11.841
11.9581
12.0518
12.1255
1.00001
1.00004
1.00013
1.00029
1.00082
1.00169
1.00479
1.00956
1.02855
1.05323
1.18253
1.34292
2.24883
4.04891
9.83216
11.4022
11.2331
11.1418
11.2229
11.4417
11.6771
11.8305
11.9493
12.0446
12.12
1.00001
1.00004
1.00013
1.00028
1.00081
1.00165
1.00468
1.00935
1.02795
1.052
1.17903
1.33406
2.22338
3.97568
9.65321
11.3862
11.2113
11.1081
11.188
11.4047
11.6369
11.7873
11.9052
11.9993
12.0737
1.00001
1.00004
1.00013
1.00027
1.00078
1.00159
1.00453
1.00903
1.02704
1.05013
1.17367
1.32073
2.18439
3.86436
9.37427
11.3666
11.1795
11.0535
11.1301
11.3404
11.5665
11.7112
11.8248
11.9157
11.9898
1.00001
1.00004
1.00012
1.00026
1.00074
1.00152
1.00431
1.00857
1.02583
1.0474
1.16671
1.30293
2.13191
3.7153
8.9904
11.3468
11.1395
10.98
11.0515
11.2526
11.4693
11.6056
11.7129
11.7993
11.8735
1.00001
1.00003
1.00011
1.00024
1.00069
1.00141
1.00403
1.00795
1.02434
1.04377
1.15787
1.28071
2.06864
3.52676
8.49723
11.3305
11.0916
10.8874
10.9516
11.1392
11.3429
11.4665
11.5626
11.6401
11.7143
1.00001
1.00003
1.0001
1.00022
1.00064
1.00131
1.00373
1.00733
1.02255
1.04026
1.14615
1.25643
1.98874
3.30066
7.88829
11.3234
11.0407
10.778
10.8329
11.001
11.1854
11.2887
11.3651
11.4239
11.49
1.00001
1.00003
1.0001
1.00021
1.00059
1.00121
1.00342
1.0068
1.02048
1.03746
1.13156
1.23397
1.87897
3.04607
7.1519
11.3207
10.9919
10.6551
10.6979
10.8394
10.9956
11.0682
11.1106
11.1313
11.1693
1.00001
1.00003
1.00009
1.00019
1.00054
1.0011
1.0031
1.00625
1.01816
1.03523
1.11346
1.21173
1.75596
2.76845
6.30834
11.2933
10.9377
10.5257
10.5507
10.6532
10.7699
10.7983
10.7857
10.7288
10.6715
1.00001
1.00002
1.00008
1.00016
1.00047
1.00096
1.00271
1.00546
1.01583
1.03107
1.09731
1.1864
1.63838
2.49463
5.43531
11.1359
10.8281
10.4068
10.3931
10.4438
10.5046
10.4814
10.3855
10.1653
9.83174
1.00001
1.00004
1.00014
1.00029
1.00083
1.0017
1.00484
1.00966
1.02884
1.05384
1.18421
1.34724
2.26078
4.08331
9.91301
11.4093
11.2415
11.1539
11.2341
11.4521
11.6876
11.841
11.9581
12.0518
12.1255
1.00001
1.00004
1.00013
1.00029
1.00082
1.00169
1.00479
1.00956
1.02855
1.05323
1.18253
1.34292
2.24883
4.04891
9.83216
11.4022
11.2331
11.1418
11.2229
11.4417
11.6771
11.8305
11.9493
12.0446
12.12
1.00001
1.00004
1.00013
1.00028
1.00081
1.00165
1.00468
1.00935
1.02795
1.052
1.17903
1.33406
2.22339
3.97568
9.65321
11.3862
11.2113
11.1081
11.188
11.4047
11.6369
11.7873
11.9052
11.9993
12.0737
1.00001
1.00004
1.00013
1.00027
1.00078
1.00159
1.00453
1.00903
1.02704
1.05013
1.17367
1.32073
2.18439
3.86436
9.37428
11.3666
11.1795
11.0535
11.1301
11.3404
11.5665
11.7112
11.8248
11.9157
11.9898
1.00001
1.00004
1.00012
1.00026
1.00074
1.00152
1.00431
1.00857
1.02583
1.0474
1.16671
1.30293
2.13191
3.7153
8.99041
11.3468
11.1395
10.98
11.0515
11.2526
11.4693
11.6056
11.7129
11.7993
11.8735
1.00001
1.00003
1.00011
1.00024
1.00069
1.00141
1.00403
1.00795
1.02434
1.04377
1.15787
1.28071
2.06864
3.52676
8.49724
11.3305
11.0916
10.8874
10.9516
11.1392
11.3429
11.4665
11.5626
11.6401
11.7143
1.00001
1.00003
1.0001
1.00022
1.00064
1.00131
1.00373
1.00733
1.02255
1.04026
1.14615
1.25643
1.98874
3.30067
7.8883
11.3234
11.0407
10.778
10.8329
11.001
11.1854
11.2887
11.3651
11.4239
11.49
1.00001
1.00003
1.0001
1.00021
1.00059
1.00121
1.00342
1.0068
1.02048
1.03746
1.13156
1.23397
1.87898
3.04607
7.15191
11.3207
10.9919
10.6551
10.6979
10.8394
10.9956
11.0682
11.1106
11.1313
11.1693
1.00001
1.00003
1.00009
1.00019
1.00054
1.0011
1.0031
1.00625
1.01816
1.03523
1.11346
1.21173
1.75596
2.76845
6.30835
11.2933
10.9377
10.5257
10.5507
10.6532
10.7699
10.7983
10.7857
10.7288
10.6715
1.00001
1.00002
1.00008
1.00016
1.00047
1.00096
1.00271
1.00546
1.01583
1.03107
1.09731
1.1864
1.63838
2.49463
5.43532
11.1359
10.8281
10.4068
10.3931
10.4438
10.5046
10.4814
10.3855
10.1653
9.83174
1.00001
1.00004
1.00014
1.00029
1.00083
1.0017
1.00484
1.00966
1.02884
1.05384
1.18421
1.34724
2.26078
4.08331
9.91301
11.4093
11.2415
11.1539
11.2341
11.4521
11.6876
11.841
11.9581
12.0518
12.1255
1.00001
1.00004
1.00013
1.00029
1.00082
1.00169
1.00479
1.00956
1.02855
1.05323
1.18253
1.34292
2.24883
4.04892
9.83216
11.4022
11.2331
11.1418
11.2229
11.4417
11.6771
11.8305
11.9493
12.0446
12.12
1.00001
1.00004
1.00013
1.00028
1.00081
1.00165
1.00468
1.00935
1.02795
1.052
1.17903
1.33406
2.22339
3.97568
9.65322
11.3862
11.2113
11.1081
11.188
11.4047
11.6369
11.7873
11.9052
11.9993
12.0737
1.00001
1.00004
1.00013
1.00027
1.00078
1.00159
1.00453
1.00903
1.02704
1.05013
1.17367
1.32073
2.18439
3.86437
9.37428
11.3666
11.1795
11.0535
11.1301
11.3404
11.5665
11.7112
11.8248
11.9157
11.9898
1.00001
1.00004
1.00012
1.00026
1.00074
1.00152
1.00431
1.00857
1.02583
1.0474
1.16671
1.30293
2.13191
3.7153
8.99041
11.3468
11.1395
10.98
11.0515
11.2526
11.4693
11.6056
11.7129
11.7993
11.8735
1.00001
1.00003
1.00011
1.00024
1.00069
1.00141
1.00403
1.00795
1.02434
1.04377
1.15787
1.28071
2.06864
3.52676
8.49724
11.3305
11.0916
10.8874
10.9516
11.1392
11.3429
11.4665
11.5626
11.6401
11.7143
1.00001
1.00003
1.0001
1.00022
1.00064
1.00131
1.00373
1.00733
1.02255
1.04026
1.14615
1.25643
1.98874
3.30067
7.8883
11.3234
11.0407
10.778
10.8329
11.001
11.1854
11.2887
11.3651
11.4239
11.49
1.00001
1.00003
1.0001
1.00021
1.00059
1.00121
1.00342
1.0068
1.02048
1.03746
1.13156
1.23397
1.87898
3.04607
7.15191
11.3207
10.9919
10.6551
10.6979
10.8394
10.9956
11.0682
11.1106
11.1313
11.1693
1.00001
1.00003
1.00009
1.00019
1.00054
1.0011
1.0031
1.00625
1.01816
1.03523
1.11346
1.21173
1.75596
2.76845
6.30835
11.2933
10.9377
10.5257
10.5507
10.6532
10.7699
10.7983
10.7857
10.7288
10.6716
1.00001
1.00002
1.00008
1.00016
1.00047
1.00096
1.00271
1.00546
1.01583
1.03107
1.09731
1.1864
1.63838
2.49463
5.43532
11.1359
10.8281
10.4068
10.3931
10.4438
10.5046
10.4814
10.3855
10.1653
9.83174
1.00001
1.00004
1.00014
1.00029
1.00083
1.0017
1.00484
1.00966
1.02884
1.05384
1.18421
1.34724
2.26078
4.08331
9.91301
11.4093
11.2415
11.1539
11.2341
11.4521
11.6876
11.841
11.9581
12.0518
12.1255
1.00001
1.00004
1.00013
1.00029
1.00082
1.00169
1.00479
1.00956
1.02855
1.05323
1.18253
1.34292
2.24883
4.04891
9.83216
11.4022
11.2331
11.1418
11.2229
11.4417
11.6771
11.8305
11.9493
12.0446
12.12
1.00001
1.00004
1.00013
1.00028
1.00081
1.00165
1.00468
1.00935
1.02795
1.052
1.17903
1.33406
2.22339
3.97568
9.65321
11.3862
11.2113
11.1081
11.188
11.4047
11.6369
11.7873
11.9052
11.9993
12.0737
1.00001
1.00004
1.00013
1.00027
1.00078
1.00159
1.00453
1.00903
1.02704
1.05013
1.17367
1.32073
2.18439
3.86436
9.37427
11.3666
11.1795
11.0535
11.1301
11.3404
11.5665
11.7112
11.8248
11.9157
11.9898
1.00001
1.00004
1.00012
1.00026
1.00074
1.00152
1.00431
1.00857
1.02583
1.0474
1.16671
1.30293
2.13191
3.7153
8.9904
11.3468
11.1395
10.98
11.0515
11.2526
11.4693
11.6056
11.7129
11.7993
11.8735
1.00001
1.00003
1.00011
1.00024
1.00069
1.00141
1.00403
1.00795
1.02434
1.04377
1.15787
1.28071
2.06864
3.52676
8.49724
11.3305
11.0916
10.8874
10.9516
11.1392
11.3429
11.4665
11.5626
11.6401
11.7143
1.00001
1.00003
1.0001
1.00022
1.00064
1.00131
1.00373
1.00733
1.02255
1.04026
1.14615
1.25643
1.98874
3.30066
7.88829
11.3234
11.0407
10.778
10.8329
11.001
11.1854
11.2887
11.3651
11.4239
11.49
1.00001
1.00003
1.0001
1.00021
1.00059
1.00121
1.00342
1.0068
1.02048
1.03746
1.13156
1.23397
1.87898
3.04607
7.15191
11.3207
10.9919
10.6551
10.6979
10.8394
10.9956
11.0682
11.1106
11.1313
11.1693
1.00001
1.00003
1.00009
1.00019
1.00054
1.0011
1.0031
1.00625
1.01816
1.03523
1.11346
1.21173
1.75596
2.76845
6.30835
11.2933
10.9377
10.5257
10.5507
10.6532
10.7699
10.7983
10.7857
10.7288
10.6715
1.00001
1.00002
1.00008
1.00016
1.00047
1.00096
1.00271
1.00546
1.01583
1.03107
1.09731
1.1864
1.63838
2.49463
5.43532
11.1359
10.8281
10.4068
10.3931
10.4438
10.5046
10.4814
10.3855
10.1653
9.83174
1.00001
1.00004
1.00014
1.00029
1.00083
1.0017
1.00484
1.00966
1.02884
1.05384
1.18421
1.34724
2.26078
4.08331
9.913
11.4093
11.2415
11.1539
11.2341
11.4521
11.6876
11.841
11.9581
12.0518
12.1255
1.00001
1.00004
1.00013
1.00029
1.00082
1.00169
1.00479
1.00956
1.02855
1.05323
1.18253
1.34292
2.24883
4.04891
9.83215
11.4022
11.2331
11.1418
11.2228
11.4417
11.6771
11.8305
11.9493
12.0446
12.12
1.00001
1.00004
1.00013
1.00028
1.00081
1.00165
1.00468
1.00935
1.02795
1.052
1.17903
1.33406
2.22338
3.97567
9.6532
11.3862
11.2113
11.1081
11.188
11.4047
11.6369
11.7873
11.9052
11.9993
12.0737
1.00001
1.00004
1.00013
1.00027
1.00078
1.00159
1.00453
1.00903
1.02704
1.05013
1.17367
1.32073
2.18439
3.86436
9.37426
11.3666
11.1795
11.0535
11.1301
11.3404
11.5665
11.7112
11.8248
11.9157
11.9898
1.00001
1.00004
1.00012
1.00026
1.00074
1.00152
1.00431
1.00857
1.02583
1.0474
1.16671
1.30293
2.13191
3.71529
8.99039
11.3468
11.1395
10.98
11.0515
11.2526
11.4693
11.6056
11.7129
11.7993
11.8735
1.00001
1.00003
1.00011
1.00024
1.00069
1.00141
1.00403
1.00795
1.02434
1.04377
1.15787
1.28071
2.06864
3.52675
8.49723
11.3305
11.0916
10.8874
10.9516
11.1392
11.3429
11.4665
11.5626
11.6401
11.7143
1.00001
1.00003
1.0001
1.00022
1.00064
1.00131
1.00373
1.00733
1.02255
1.04026
1.14615
1.25643
1.98874
3.30066
7.88828
11.3234
11.0407
10.778
10.8329
11.001
11.1854
11.2887
11.3651
11.4239
11.49
1.00001
1.00003
1.0001
1.00021
1.00059
1.00121
1.00342
1.0068
1.02048
1.03746
1.13156
1.23397
1.87897
3.04606
7.15189
11.3207
10.9919
10.6551
10.6979
10.8394
10.9956
11.0682
11.1106
11.1313
11.1693
1.00001
1.00003
1.00009
1.00019
1.00054
1.0011
1.0031
1.00625
1.01816
1.03523
1.11346
1.21173
1.75596
2.76844
6.30833
11.2933
10.9377
10.5257
10.5507
10.6532
10.7699
10.7983
10.7857
10.7288
10.6715
1.00001
1.00002
1.00008
1.00016
1.00047
1.00096
1.00271
1.00546
1.01583
1.03107
1.09731
1.1864
1.63838
2.49463
5.43531
11.1359
10.8281
10.4068
10.3931
10.4438
10.5046
10.4814
10.3855
10.1653
9.83174
1.00001
1.00004
1.00014
1.00029
1.00083
1.0017
1.00484
1.00966
1.02884
1.05384
1.1842
1.34724
2.26077
4.08327
9.91292
11.4093
11.2415
11.1539
11.2341
11.4521
11.6876
11.841
11.9581
12.0518
12.1255
1.00001
1.00004
1.00013
1.00029
1.00082
1.00169
1.00479
1.00956
1.02855
1.05323
1.18253
1.34292
2.24882
4.04888
9.83207
11.4022
11.2331
11.1418
11.2228
11.4417
11.6771
11.8305
11.9493
12.0446
12.12
1.00001
1.00004
1.00013
1.00028
1.00081
1.00165
1.00468
1.00935
1.02795
1.052
1.17902
1.33406
2.22337
3.97564
9.65312
11.3862
11.2113
11.1081
11.188
11.4047
11.6369
11.7873
11.9052
11.9993
12.0737
1.00001
1.00004
1.00013
1.00027
1.00078
1.00159
1.00453
1.00903
1.02704
1.05013
1.17367
1.32073
2.18438
3.86433
9.37418
11.3666
11.1795
11.0535
11.13
11.3404
11.5664
11.7111
11.8248
11.9157
11.9898
1.00001
1.00004
1.00012
1.00026
1.00074
1.00152
1.00431
1.00857
1.02583
1.0474
1.16671
1.30292
2.1319
3.71526
8.9903
11.3468
11.1395
10.98
11.0515
11.2526
11.4693
11.6056
11.7129
11.7993
11.8735
1.00001
1.00003
1.00011
1.00024
1.00069
1.00141
1.00403
1.00795
1.02434
1.04377
1.15787
1.28071
2.06863
3.52672
8.49714
11.3305
11.0916
10.8874
10.9516
11.1392
11.3429
11.4665
11.5626
11.6401
11.7143
1.00001
1.00003
1.0001
1.00022
1.00064
1.00131
1.00373
1.00733
1.02255
1.04026
1.14615
1.25643
1.98873
3.30063
7.88819
11.3234
11.0407
10.7779
10.8329
11.001
11.1854
11.2887
11.3651
11.4239
11.49
1.00001
1.00003
1.0001
1.00021
1.00059
1.00121
1.00342
1.0068
1.02048
1.03746
1.13155
1.23397
1.87896
3.04603
7.1518
11.3207
10.9919
10.655
10.6979
10.8394
10.9956
11.0682
11.1106
11.1313
11.1693
1.00001
1.00003
1.00009
1.00019
1.00054
1.0011
1.0031
1.00625
1.01816
1.03523
1.11346
1.21172
1.75595
2.76841
6.30824
11.2933
10.9377
10.5257
10.5507
10.6532
10.7699
10.7983
10.7857
10.7288
10.6715
1.00001
1.00002
1.00008
1.00016
1.00047
1.00096
1.00271
1.00546
1.01583
1.03107
1.0973
1.18639
1.63837
2.4946
5.43525
11.1358
10.8281
10.4068
10.3931
10.4438
10.5046
10.4814
10.3855
10.1653
9.83173
1.00001
1.00004
1.00013
1.00029
1.00083
1.0017
1.00483
1.00965
1.02882
1.05381
1.18418
1.34715
2.26066
4.08283
9.91202
11.4093
11.2415
11.1538
11.234
11.452
11.6875
11.8409
11.958
12.0517
12.1254
1.00001
1.00004
1.00013
1.00028
1.00082
1.00168
1.00478
1.00955
1.02853
1.05321
1.18251
1.34283
2.24871
4.04844
9.83119
11.4022
11.233
11.1417
11.2227
11.4416
11.677
11.8304
11.9492
12.0445
12.1198
1.00001
1.00004
1.00013
1.00028
1.0008
1.00164
1.00468
1.00934
1.02794
1.05198
1.17901
1.33397
2.22327
3.97522
9.65225
11.3861
11.2113
11.108
11.1879
11.4046
11.6368
11.7872
11.905
11.9991
12.0736
1.00001
1.00004
1.00012
1.00027
1.00077
1.00159
1.00452
1.00902
1.02702
1.05011
1.17365
1.32064
2.18427
3.86391
9.37329
11.3666
11.1795
11.0534
11.1299
11.3403
11.5663
11.711
11.8247
11.9156
11.9897
1.00001
1.00003
1.00012
1.00025
1.00074
1.00151
1.0043
1.00855
1.02582
1.04737
1.1667
1.30283
2.13181
3.71485
8.9894
11.3468
11.1394
10.9799
11.0513
11.2525
11.4692
11.6055
11.7128
11.7992
11.8734
1.00001
1.00003
1.00011
1.00024
1.00069
1.00141
1.00402
1.00794
1.02432
1.04375
1.15784
1.28064
2.06851
3.52631
8.4962
11.3306
11.0916
10.8873
10.9515
11.1391
11.3428
11.4664
11.5625
11.64
11.7142
1.00001
1.00003
1.0001
1.00022
1.00063
1.0013
1.00372
1.00732
1.02253
1.04024
1.14612
1.25636
1.9886
3.30022
7.88721
11.3234
11.0406
10.7778
10.8328
11.0009
11.1853
11.2886
11.365
11.4238
11.4899
1.00001
1.00003
1.00009
1.0002
1.00058
1.0012
1.00342
1.00679
1.02047
1.03743
1.13155
1.23387
1.87888
3.04565
7.15084
11.3207
10.9918
10.6549
10.6978
10.8393
10.9955
11.0681
11.1105
11.1312
11.1692
1.00001
1.00002
1.00008
1.00018
1.00053
1.00109
1.00309
1.00624
1.01815
1.03521
1.11344
1.21166
1.75584
2.76807
6.30731
11.2932
10.9377
10.5256
10.5506
10.6531
10.7698
10.7983
10.7856
10.7287
10.6714
1
1.00002
1.00007
1.00016
1.00046
1.00095
1.0027
1.00545
1.01582
1.03106
1.09728
1.18634
1.63829
2.49435
5.43469
11.1354
10.8279
10.4067
10.3931
10.4438
10.5045
10.4813
10.3854
10.1652
9.83164
1
1.00002
1.00005
1.00016
1.00033
1.00095
1.00194
1.00558
1.01082
1.03423
1.06005
1.21982
1.41881
2.45425
4.70246
10.6283
10.5778
10.3329
10.2096
10.2184
10.2087
10.1227
9.87356
9.30143
7.87214
1
1.00002
1.00005
1.00014
1.0003
1.00085
1.00174
1.00495
1.00992
1.02942
1.05538
1.18661
1.35722
2.26932
4.09917
9.61629
10.3635
10.2192
10.0249
9.98203
9.91084
9.73787
9.35471
8.59123
7.15096
1
1.00002
1.00004
1.00012
1.00025
1.00073
1.00149
1.00423
1.00842
1.02522
1.04657
1.16174
1.29474
2.08853
3.58829
8.44802
10.219
10.1048
9.8591
9.74261
9.62116
9.37392
8.90815
8.15011
7.02504
1
1.00001
1.00003
1.0001
1.00021
1.00061
1.00124
1.00353
1.00693
1.02126
1.03796
1.13688
1.23938
1.91335
3.10265
7.17714
10.1095
9.99565
9.71464
9.51457
9.34252
9.05521
8.58384
7.89934
7.01901
1
1.00001
1.00003
1.00008
1.00018
1.00051
1.00104
1.00296
1.00597
1.01739
1.03377
1.10802
1.20411
1.71255
2.65919
5.86836
9.9674
9.88151
9.60058
9.31039
9.09082
8.7922
8.34648
7.73809
7.00617
1
1.00001
1.00002
1.00005
1.00016
1.00034
1.00096
1.00194
1.00558
1.01078
1.03414
1.05975
1.21687
1.4208
2.3895
4.5309
9.57136
9.70458
9.50712
9.1407
8.87724
8.57463
8.16252
7.62204
6.98658
1
1
1.00002
1.00004
1.00013
1.00028
1.00079
1.00162
1.00458
1.00918
1.02717
1.05097
1.17216
1.32177
2.1529
3.74414
8.51887
9.45058
9.31769
9.00509
8.69954
8.39283
8.01093
7.53016
6.97462
1
1
1.00001
1.00003
1.0001
1.00021
1.00061
1.00123
1.00353
1.00688
1.02146
1.03782
1.13797
1.24149
1.92185
3.10273
7.01163
9.20429
9.13467
8.90499
8.56281
8.2469
7.88917
7.45958
6.97485
0.999999
1
1.00001
1.00003
1.00006
1.00019
1.00038
1.0011
1.00215
1.00668
1.01163
1.0423
1.06921
1.26451
1.52996
2.70273
5.37553
8.95929
9.00683
8.84465
8.48753
8.13663
7.79455
7.40989
6.98161
0.999997
0.999999
1
1.00002
1.00005
1.00015
1.00031
1.00088
1.00178
1.00507
1.01009
1.03022
1.05618
1.18957
1.36714
2.23685
3.94488
8.3807
8.90221
8.76401
8.43525
8.05696
7.72678
7.38675
7.00466
0.999995
0.999996
1
1.00001
1.00004
1.00009
1.00026
1.00053
1.00153
1.00298
1.00925
1.01611
1.05858
1.09646
1.37097
1.75402
3.4049
6.98388
8.673
8.60853
8.38417
8.01023
7.69142
7.39063
7.05685
0.999994
0.999995
0.999999
1.00001
1.00003
1.00007
1.0002
1.00042
1.00118
1.0024
1.00688
1.01331
1.04223
1.07371
1.26866
1.53081
2.7162
5.29889
8.36333
8.46647
8.33293
8.01823
7.6973
7.4149
7.15206
0.999993
0.999994
0.999996
1
1.00001
1.00006
1.00012
1.00036
1.00075
1.00211
1.00427
1.01224
1.02424
1.07271
1.14606
1.45102
2.04333
3.87496
7.67265
8.36927
8.27899
8.03917
7.73209
7.48374
7.30397
0.999993
0.999993
0.999994
1
1.00001
1.00004
1.00009
1.00026
1.00054
1.00152
1.00309
1.00879
1.01717
1.05315
1.09654
1.33269
1.70358
3.13069
6.26678
8.18528
8.1837
8.07737
7.83168
7.63406
7.53937
0.999992
0.999992
0.999994
0.999996
1.00001
1.00002
1.00007
1.00016
1.00046
1.00093
1.00263
1.00529
1.01519
1.02973
1.0914
1.17684
1.57314
2.31326
4.55803
7.80711
8.19125
8.14885
8.03032
7.9051
7.86538
0.999992
0.999992
0.999993
0.999995
1
1.00001
1.00005
1.00011
1.00032
1.00067
1.00187
1.00379
1.01073
1.02133
1.06328
1.12469
1.38973
1.87775
3.46997
6.90213
8.1555
8.29595
8.28344
8.25632
8.26057
0.999991
0.999991
0.999992
0.999994
0.999997
1.00001
1.00003
1.00009
1.00019
1.00054
1.00109
1.00308
1.00607
1.01825
1.03288
1.1139
1.20145
1.71477
2.59786
5.33183
8.00092
8.5637
8.64176
8.68536
8.71366
0.999991
0.999991
0.999991
0.999993
0.999995
1
1.00002
1.00006
1.00013
1.00038
1.00079
1.00222
1.00449
1.01272
1.02552
1.07432
1.15329
1.45847
2.05219
3.8642
7.51888
8.85832
9.12733
9.19483
9.19225
0.999991
0.999991
0.999991
0.999992
0.999994
0.999998
1.00001
1.00003
1.0001
1.00022
1.00063
1.00128
1.00364
1.00704
1.02195
1.03841
1.13802
1.24223
1.89964
3.00618
6.48943
9.15697
9.72656
9.73938
9.70297
0.999991
0.999991
0.999991
0.999992
0.999993
0.999997
1
1.00003
1.00006
1.00019
1.00039
1.00111
1.00225
1.00643
1.01231
1.03921
1.06812
1.24555
1.47813
2.54305
4.76235
9.34918
10.4117
10.3647
10.2108
0.999991
0.999991
0.999991
0.999991
0.999992
0.999995
1
1.00002
1.00005
1.00014
1.0003
1.00087
1.00177
1.00503
1.01007
1.0299
1.05636
1.18817
1.36523
2.25822
4.02886
9.08305
10.9244
10.8526
10.5954
0.999991
0.999991
0.999991
0.999991
0.999992
0.999994
0.999999
1.00001
1.00004
1.00009
1.00027
1.00056
1.00163
1.00315
1.00995
1.01721
1.06385
1.1053
1.41453
1.86615
3.80623
8.31071
11.2863
11.1809
10.7941
0.999991
0.999991
0.999991
0.999991
0.999992
0.999993
0.999998
1.00001
1.00003
1.00008
1.00024
1.0005
1.00142
1.00285
1.00846
1.01573
1.05388
1.09126
1.35283
1.72456
3.41183
7.4412
11.7192
11.4642
10.7927
0.999991
0.99999
0.999991
0.999991
0.999991
0.999993
0.999997
1
1.00003
1.00007
1.00021
1.00043
1.00124
1.00251
1.00737
1.01398
1.04668
1.08011
1.30642
1.62549
3.08633
6.65279
12.1419
11.6789
10.729
0.999991
0.99999
0.999991
0.999991
0.999991
0.999992
0.999996
1
1.00002
1.00006
1.00018
1.00037
1.00108
1.00215
1.00654
1.01183
1.04194
1.06971
1.27098
1.54434
2.82059
5.92763
12.3077
11.6853
10.6496
0.999991
0.99999
0.99999
0.999991
0.999991
0.999992
0.999995
1
1.00002
1.00006
1.00014
1.00042
1.00085
1.0025
1.00489
1.01554
1.02748
1.10101
1.17824
1.66468
2.54944
5.72355
12.1544
11.5834
10.632
0.999991
0.99999
0.99999
0.999991
0.999991
0.999992
0.999995
1
1.00002
1.00005
1.00015
1.00031
1.00092
1.00174
1.00573
1.00976
1.03702
1.06008
1.23814
1.46644
2.60294
5.2992
11.8719
11.481
10.6887
0.999991
0.99999
0.99999
0.999991
0.999991
0.999992
0.999994
1
1.00001
1.00006
1.00012
1.00037
1.00077
1.00225
1.00446
1.01387
1.02529
1.0898
1.16026
1.58996
2.36888
5.20357
11.5329
11.348
10.7948
0.999991
0.99999
0.99999
0.999991
0.999991
0.999992
0.999994
1
1.00001
1.00005
1.00012
1.00035
1.00071
1.00209
1.00408
1.01301
1.02292
1.08544
1.14738
1.56344
2.29078
5.02804
11.2752
11.2487
10.8964
0.999991
0.99999
0.99999
0.999991
0.999991
0.999992
0.999994
0.999999
1.00001
1.00004
1.00013
1.00028
1.00083
1.00166
1.00503
1.00936
1.03201
1.05477
1.20936
1.39308
2.44292
4.63934
11.0212
11.2847
10.9794
0.999991
0.99999
0.99999
0.999991
0.999991
0.999992
0.999993
0.999999
1.00001
1.00004
1.0001
1.0003
1.00059
1.0019
1.00334
1.01223
1.02003
1.0785
1.13304
1.52266
2.18258
4.72453
10.7758
11.3062
11.006
0.999991
0.99999
0.99999
0.999991
0.999991
0.999992
0.999994
0.999998
1.00001
1.00004
1.00013
1.00027
1.00078
1.00159
1.00469
1.00921
1.02937
1.05243
1.19527
1.36107
2.36015
4.36099
10.5802
11.3715
11.0519
0.999991
0.99999
0.99999
0.99999
0.999991
0.999992
0.999994
0.999998
1.00001
1.00004
1.00012
1.00025
1.00075
1.00152
1.00451
1.00882
1.02834
1.05031
1.18913
1.34693
2.32413
4.26156
10.4139
11.397
11.0612
0.999991
0.99999
0.99999
0.99999
0.999991
0.999992
0.999993
0.999998
1.00001
1.00004
1.00008
1.00027
1.00052
1.00174
1.00298
1.01132
1.01832
1.07322
1.12301
1.49116
2.09497
4.49252
10.2941
11.3705
11.0327
0.999991
0.99999
0.99999
0.99999
0.999991
0.999991
0.999994
0.999997
1.00001
1.00003
1.00011
1.00023
1.0007
1.00138
1.00436
1.00784
1.02821
1.04727
1.18413
1.3362
2.29131
4.17218
10.1775
11.3683
11.0182
0.999991
0.99999
0.99999
0.99999
0.999991
0.999992
0.999993
0.999998
1.00001
1.00004
1.00008
1.00026
1.0005
1.00169
1.0029
1.01108
1.01795
1.07175
1.1207
1.4805
2.07306
4.41491
10.1273
11.326
10.9719
0.999991
0.99999
0.99999
0.99999
0.999991
0.999991
0.999994
0.999997
1.00001
1.00003
1.00011
1.00024
1.00071
1.00144
1.00429
1.00837
1.02719
1.04794
1.1814
1.33048
2.27429
4.12168
10.0634
11.3081
10.9434
0.999991
0.99999
0.99999
0.99999
0.999991
0.999991
0.999994
0.999997
1.00001
1.00003
1.00011
1.00024
1.0007
1.00144
1.00428
1.0083
1.02722
1.0477
1.18156
1.33086
2.27584
4.12814
10.0736
11.2813
10.9089
0.999991
0.99999
0.99999
0.99999
0.999991
0.999992
0.999993
0.999998
1.00001
1.00004
1.00009
1.00028
1.00058
1.00172
1.00336
1.01086
1.01892
1.07153
1.12074
1.47381
2.05894
4.35894
9.97823
11.2165
10.8677
0.999991
0.99999
0.99999
0.99999
0.999991
0.999992
0.999993
0.999999
1.00001
1.00004
1.0001
1.0003
1.00062
1.00181
1.00366
1.01097
1.02071
1.07088
1.12499
1.46972
2.0602
4.35956
9.98415
11.1981
10.8522
1
1.00002
1.00006
1.00016
1.00034
1.00096
1.00195
1.00559
1.01083
1.03424
1.06007
1.21986
1.41891
2.45439
4.70308
10.6291
10.5781
10.3328
10.2096
10.2185
10.2088
10.1228
9.87364
9.30151
7.87222
1
1.00002
1.00005
1.00015
1.00031
1.00086
1.00175
1.00496
1.00993
1.02944
1.0554
1.18664
1.35731
2.26947
4.09975
9.61721
10.3636
10.2192
10.0249
9.98208
9.91091
9.73795
9.35479
8.59132
7.15105
1
1.00002
1.00004
1.00013
1.00026
1.00074
1.0015
1.00424
1.00843
1.02523
1.0466
1.16175
1.29484
2.08865
3.58876
8.44903
10.219
10.1047
9.8591
9.74267
9.62123
9.37401
8.90824
8.15019
7.02514
1
1.00001
1.00004
1.00011
1.00022
1.00061
1.00124
1.00353
1.00694
1.02127
1.03798
1.13691
1.23945
1.91349
3.10308
7.17817
10.1094
9.99563
9.71465
9.51463
9.34259
9.05529
8.58393
7.89944
7.01912
1
1.00001
1.00003
1.00009
1.00018
1.00052
1.00105
1.00297
1.00598
1.0174
1.03379
1.10805
1.20418
1.71268
2.65956
5.8694
9.9675
9.88155
9.60058
9.31044
9.0909
8.79229
8.34658
7.7382
7.00631
1
1.00001
1.00003
1.00006
1.00017
1.00034
1.00096
1.00195
1.00558
1.0108
1.03416
1.05978
1.21691
1.42092
2.38963
4.53162
9.57186
9.70468
9.50717
9.14077
8.87733
8.57473
8.16264
7.62217
6.98674
1
1.00001
1.00002
1.00005
1.00014
1.00029
1.0008
1.00163
1.00459
1.00919
1.02718
1.051
1.17219
1.32187
2.15306
3.74467
8.51991
9.45072
9.3178
9.00515
8.69963
8.39295
8.01108
7.53033
6.97483
1
1.00001
1.00002
1.00004
1.00011
1.00022
1.00061
1.00124
1.00354
1.00689
1.02148
1.03785
1.13801
1.24156