/*--------------------------------*- C++ -*----------------------------------*\
| =========                 |                                                 |
| \\      /  F ield         | OpenFOAM: The Open Source CFD Toolbox           |
|  \\    /   O peration     | Version:  4.1                                   |
|   \\  /    A nd           | Web:      www.OpenFOAM.org                      |
|    \\/     M anipulation  |                                                 |
\*---------------------------------------------------------------------------*/
FoamFile
{
    version     2.0;
    format      ascii;
    class       volVectorField;
    location    "8.92";
    object      U;
}
// * * * * * * * * * * * * * * * * * * * * * * * * * * * * * * * * * * * * * //

dimensions      [0 1 -1 0 0 0 0];

internalField   nonuniform List<vector> 
52500
(
(2.99999 1.52241e-08 -0.00571426)
(2.99998 7.61701e-08 -0.00571443)
(2.99995 2.80348e-07 -0.00571468)
(2.99987 7.14268e-07 -0.00571548)
(2.9997 1.96644e-06 -0.00571694)
(2.99922 4.50483e-06 -0.00572138)
(2.99828 1.17066e-05 -0.00572994)
(2.9954 2.64014e-05 -0.0057541)
(2.9902 6.7831e-05 -0.00580921)
(2.97158 0.000153124 -0.0059295)
(2.93656 0.000397451 -0.00634381)
(2.81065 0.000996663 -0.00701375)
(2.4577 0.00285613 -0.00981695)
(1.63408 0.00729532 -0.0150822)
(0.702636 0.0196508 -0.0180857)
(0.532231 0.0207193 -0.018458)
(0.567671 0.0220923 -0.0184988)
(0.568979 0.0242794 -0.0185696)
(0.519264 0.0265581 -0.0187472)
(0.43398 0.0289208 -0.0189278)
(0.349295 0.0317053 -0.0191253)
(0.27826 0.03503 -0.0192926)
(0.206969 0.0386043 -0.0194594)
(0.125057 0.0428303 -0.0196183)
(0.0557678 0.0491004 -0.0197807)
(2.99999 4.995e-08 -0.00571426)
(2.99998 2.27149e-07 -0.00571442)
(2.99995 8.58525e-07 -0.00571468)
(2.99987 2.1802e-06 -0.00571546)
(2.9997 6.00765e-06 -0.00571691)
(2.99923 1.37335e-05 -0.00572131)
(2.9983 3.57519e-05 -0.00572977)
(2.99545 8.03263e-05 -0.00575364)
(2.99031 0.000207789 -0.00580819)
(2.97184 0.000466312 -0.00592703)
(2.93728 0.00122427 -0.00633806)
(2.81253 0.00304895 -0.00699667)
(2.46338 0.00885291 -0.00978211)
(1.64645 0.0225921 -0.0150051)
(0.710585 0.0597218 -0.0179904)
(0.530783 0.0603458 -0.018386)
(0.566991 0.0620981 -0.0184232)
(0.568667 0.0664573 -0.0184869)
(0.518602 0.0708181 -0.0186567)
(0.433178 0.0752804 -0.0188289)
(0.348445 0.0803047 -0.0190184)
(0.276861 0.0859159 -0.0191746)
(0.204484 0.0912022 -0.0193337)
(0.121193 0.0964338 -0.0194775)
(0.0516079 0.102101 -0.0196231)
(2.99999 7.69236e-08 -0.00571426)
(2.99998 3.85309e-07 -0.00571442)
(2.99995 1.44946e-06 -0.00571467)
(2.99987 3.70162e-06 -0.00571544)
(2.99971 1.02048e-05 -0.00571685)
(2.99925 2.33259e-05 -0.00572115)
(2.99834 6.07778e-05 -0.00572942)
(2.99555 0.000136281 -0.00575274)
(2.99052 0.0003537 -0.00580615)
(2.97241 0.000790685 -0.00592211)
(2.93877 0.00208951 -0.0063263)
(2.8165 0.0051612 -0.00696269)
(2.47554 0.0151641 -0.00971086)
(1.67366 0.0386763 -0.0148585)
(0.728564 0.103071 -0.0178555)
(0.528821 0.102347 -0.0183048)
(0.567355 0.104435 -0.0183373)
(0.570618 0.111976 -0.0183926)
(0.520667 0.119751 -0.0185548)
(0.435747 0.128238 -0.0187134)
(0.35154 0.137525 -0.0188946)
(0.279753 0.147487 -0.0190429)
(0.206486 0.15709 -0.0191875)
(0.121924 0.166012 -0.0193286)
(0.0507364 0.17343 -0.0194604)
(2.99999 9.95957e-08 -0.00571426)
(2.99998 5.52765e-07 -0.00571441)
(2.99995 2.05847e-06 -0.00571465)
(2.99988 5.28371e-06 -0.00571539)
(2.99972 1.45926e-05 -0.00571676)
(2.99927 3.34471e-05 -0.00572091)
(2.99839 8.70163e-05 -0.0057289)
(2.9957 0.000197129 -0.00575139)
(2.99086 0.000501448 -0.00580307)
(2.97327 0.00114885 -0.00591471)
(2.94103 0.00294555 -0.00630851)
(2.82256 0.00726152 -0.00691223)
(2.49411 0.0214713 -0.00960257)
(1.71586 0.0546884 -0.0146368)
(0.756242 0.147459 -0.0176817)
(0.525737 0.14422 -0.0182164)
(0.568755 0.146148 -0.0182415)
(0.575086 0.156858 -0.018285)
(0.525821 0.168153 -0.0184317)
(0.442098 0.180899 -0.0185898)
(0.358875 0.194907 -0.0187412)
(0.287187 0.209801 -0.0188869)
(0.21309 0.224404 -0.0190245)
(0.126617 0.237791 -0.0191439)
(0.0521007 0.247515 -0.0192871)
(3 1.32292e-07 -0.00571426)
(2.99998 7.33697e-07 -0.00571441)
(2.99996 2.73811e-06 -0.00571463)
(2.99988 7.04606e-06 -0.00571534)
(2.99973 1.9478e-05 -0.00571663)
(2.99931 4.48754e-05 -0.00572058)
(2.99847 0.000115963 -0.0057282)
(2.99589 0.000268513 -0.00574939)
(2.99132 0.000655391 -0.00579911)
(2.97441 0.00155612 -0.00590377)
(2.94401 0.00385511 -0.00628584)
(2.83069 0.009408 -0.00684643)
(2.51904 0.0273809 -0.00945575)
(1.77388 0.0705835 -0.0143283)
(0.793982 0.192961 -0.017463)
(0.521537 0.186134 -0.0181219)
(0.571219 0.18757 -0.0181388)
(0.581953 0.201228 -0.0181668)
(0.53373 0.215843 -0.0182974)
(0.451873 0.232788 -0.0184431)
(0.37008 0.251578 -0.0185962)
(0.298797 0.271789 -0.018696)
(0.223816 0.292081 -0.0188308)
(0.134697 0.310802 -0.0189521)
(0.0555459 0.323611 -0.0190662)
(3 1.54677e-07 -0.00571426)
(2.99998 8.56723e-07 -0.00571439)
(2.99996 3.20086e-06 -0.0057146)
(2.99989 8.23312e-06 -0.00571526)
(2.99975 2.27771e-05 -0.00571647)
(2.99935 5.24317e-05 -0.00572013)
(2.99858 0.0001362 -0.00572729)
(2.99614 0.000312254 -0.00574658)
(2.99193 0.000784062 -0.0057943)
(2.97589 0.00179522 -0.00588864)
(2.94775 0.00480011 -0.0062566)
(2.84061 0.0112112 -0.0067646)
(2.55037 0.0335447 -0.00927812)
(1.84779 0.0867952 -0.0139337)
(0.839331 0.240612 -0.0172016)
(0.513808 0.228614 -0.0180232)
(0.573512 0.228744 -0.0180352)
(0.590517 0.245078 -0.018034)
(0.544099 0.262821 -0.0181618)
(0.465075 0.284162 -0.0182601)
(0.385485 0.308309 -0.0184128)
(0.315123 0.334782 -0.0185143)
(0.239621 0.362197 -0.0186035)
(0.147055 0.388453 -0.0187107)
(0.0611817 0.406679 -0.0188389)
(3 1.57678e-07 -0.00571425)
(2.99998 8.71894e-07 -0.00571438)
(2.99996 3.25451e-06 -0.00571458)
(2.9999 8.31938e-06 -0.00571519)
(2.99977 2.30261e-05 -0.0057163)
(2.9994 5.24009e-05 -0.00571968)
(2.99869 0.000139383 -0.00572631)
(2.99643 0.000300519 -0.00574393)
(2.99256 0.000857466 -0.00578843)
(2.9777 0.00173147 -0.00587418)
(2.95207 0.00561307 -0.00621593)
(2.85274 0.0119749 -0.00667504)
(2.58924 0.0417061 -0.00903264)
(1.93965 0.103318 -0.0134263)
(0.895951 0.291331 -0.0168706)
(0.506017 0.273287 -0.0179103)
(0.577886 0.270276 -0.0179205)
(0.602297 0.28838 -0.0178998)
(0.558049 0.308736 -0.0180196)
(0.482749 0.334477 -0.018106)
(0.406389 0.364701 -0.0181893)
(0.337819 0.398872 -0.0182765)
(0.262385 0.435588 -0.0183565)
(0.166315 0.472823 -0.0184266)
(0.0711447 0.501455 -0.018515)
(3 1.6496e-07 -0.00571425)
(2.99999 9.13268e-07 -0.00571437)
(2.99997 3.39333e-06 -0.00571455)
(2.99991 8.65283e-06 -0.00571511)
(2.99979 2.38308e-05 -0.00571614)
(2.99945 5.38082e-05 -0.00571927)
(2.99879 0.000144531 -0.0057253)
(2.99674 0.000296936 -0.00574206)
(2.99313 0.00093396 -0.00578138)
(2.97979 0.00162188 -0.00586352)
(2.95651 0.0064794 -0.00616254)
(2.86819 0.0124644 -0.00659612)
(2.63626 0.048806 -0.00864995)
(2.05183 0.116931 -0.0127361)
(0.974701 0.338611 -0.0164485)
(0.510022 0.319805 -0.0177485)
(0.590781 0.313521 -0.017756)
(0.621537 0.331385 -0.0177168)
(0.578707 0.353337 -0.0178245)
(0.507554 0.383616 -0.017923)
(0.434969 0.420681 -0.0179936)
(0.369201 0.463924 -0.0180169)
(0.295355 0.512697 -0.0180512)
(0.196786 0.566469 -0.0180841)
(0.0887232 0.616157 -0.0181434)
(3 1.93812e-07 -0.00571425)
(2.99999 1.06765e-06 -0.00571436)
(2.99997 3.95616e-06 -0.00571452)
(2.99992 1.01312e-05 -0.00571503)
(2.99981 2.77815e-05 -0.00571596)
(2.9995 6.32606e-05 -0.00571882)
(2.99889 0.000166574 -0.00572421)
(2.99709 0.000357349 -0.00574008)
(2.99367 0.00103155 -0.00577337)
(2.98225 0.00192397 -0.00585462)
(2.96132 0.00697339 -0.00609506)
(2.88527 0.0133826 -0.00650813)
(2.68843 0.0504952 -0.00821525)
(2.1797 0.121841 -0.0119078)
(1.07689 0.367378 -0.0159433)
(0.535464 0.366958 -0.0175541)
(0.616509 0.363232 -0.017575)
(0.650808 0.375659 -0.0175133)
(0.609307 0.397412 -0.0176065)
(0.542858 0.431635 -0.0176582)
(0.474429 0.476247 -0.0177252)
(0.412434 0.528983 -0.0177299)
(0.343396 0.592101 -0.0176956)
(0.248124 0.671499 -0.0176266)
(0.122686 0.764675 -0.0175137)
(3 3.65005e-07 -0.00571425)
(2.99999 7.16502e-07 -0.00571434)
(2.99997 5.428e-06 -0.00571448)
(2.99993 8.34176e-06 -0.00571492)
(2.99983 3.70732e-05 -0.00571574)
(2.99956 5.41176e-05 -0.00571819)
(2.99903 0.000223844 -0.00572296)
(2.99746 0.000305459 -0.00573655)
(2.99444 0.00138688 -0.00576573)
(2.98468 0.00143307 -0.00583699)
(2.96626 0.00940363 -0.0060385)
(2.90205 0.00744011 -0.00641641)
(2.73857 0.0599092 -0.00780642)
(2.30891 0.0991061 -0.0111589)
(1.20586 0.346598 -0.0152895)
(0.598974 0.40616 -0.0171969)
(0.657756 0.421095 -0.0172594)
(0.688475 0.420583 -0.0172885)
(0.651197 0.442791 -0.017394)
(0.590707 0.478709 -0.0174135)
(0.526786 0.529943 -0.017418)
(0.470134 0.591549 -0.0173773)
(0.413664 0.673719 -0.017265)
(0.337195 0.795777 -0.0170427)
(0.188757 1.00255 -0.0166144)
(2.99999 1.37597e-08 -2.4802e-09)
(2.99998 7.4326e-08 -8.75109e-09)
(2.99995 2.77221e-07 -1.00057e-08)
(2.99987 7.11297e-07 -1.59923e-08)
(2.9997 1.96242e-06 -1.62449e-08)
(2.99922 4.50074e-06 -2.17083e-08)
(2.99828 1.17007e-05 -2.23699e-08)
(2.9954 2.63933e-05 -3.08007e-08)
(2.9902 6.78196e-05 -3.3949e-08)
(2.97157 0.000153094 -6.88892e-08)
(2.93654 0.000397509 -5.82359e-08)
(2.81063 0.000996705 -2.4509e-07)
(2.45764 0.00285714 -2.70966e-07)
(1.63394 0.00729839 -8.81771e-07)
(0.702553 0.0196593 -8.88202e-07)
(0.532247 0.0207248 4.95707e-10)
(0.567673 0.0220927 -3.5227e-08)
(0.568975 0.0242773 -9.38691e-08)
(0.519263 0.0265558 -9.78481e-08)
(0.433983 0.0289195 -9.40906e-08)
(0.349302 0.031705 -8.46759e-08)
(0.278266 0.0350303 -8.91397e-08)
(0.206973 0.0386051 -1.00158e-07)
(0.125059 0.0428315 -1.09246e-07)
(0.0557686 0.0491015 -1.1326e-07)
(2.99999 4.19896e-08 -2.50836e-09)
(2.99998 2.27722e-07 -8.76074e-09)
(2.99995 8.4814e-07 -1.00275e-08)
(2.99987 2.17437e-06 -1.59869e-08)
(2.9997 5.99563e-06 -1.62516e-08)
(2.99923 1.37241e-05 -2.16882e-08)
(2.9983 3.57378e-05 -2.23551e-08)
(2.99545 8.0311e-05 -3.07601e-08)
(2.9903 0.00020777 -3.38113e-08)
(2.97184 0.000466271 -6.89587e-08)
(2.93727 0.00122437 -5.62104e-08)
(2.81251 0.00304917 -2.44408e-07)
(2.46332 0.00885445 -2.59852e-07)
(1.64632 0.022597 -8.62526e-07)
(0.710525 0.0597316 -8.69695e-07)
(0.530827 0.060351 -3.28317e-09)
(0.567016 0.0620969 -4.36977e-08)
(0.568679 0.0664538 -9.76981e-08)
(0.518611 0.0708151 -9.93691e-08)
(0.433187 0.0752793 -9.42257e-08)
(0.348454 0.080305 -8.58141e-08)
(0.276868 0.085917 -9.00025e-08)
(0.204488 0.091204 -9.96294e-08)
(0.121195 0.096436 -1.07786e-07)
(0.051609 0.102103 -1.11659e-07)
(2.99999 7.13584e-08 -2.6399e-09)
(2.99998 3.87743e-07 -8.60429e-09)
(2.99995 1.44327e-06 -1.01815e-08)
(2.99987 3.69867e-06 -1.59237e-08)
(2.99971 1.01964e-05 -1.63357e-08)
(2.99924 2.33182e-05 -2.16485e-08)
(2.99833 6.07639e-05 -2.2407e-08)
(2.99555 0.000136265 -3.07696e-08)
(2.99052 0.000353666 -3.38519e-08)
(2.9724 0.000790659 -6.91975e-08)
(2.93876 0.00208951 -5.54344e-08)
(2.81648 0.00516154 -2.42507e-07)
(2.47548 0.0151646 -2.54964e-07)
(1.67353 0.0386792 -8.49412e-07)
(0.728503 0.103073 -8.75195e-07)
(0.528863 0.102348 -4.60516e-09)
(0.567381 0.104434 -4.66679e-08)
(0.570632 0.111974 -9.73957e-08)
(0.520678 0.11975 -9.80908e-08)
(0.435758 0.128239 -9.27905e-08)
(0.35155 0.137527 -8.69194e-08)
(0.279761 0.14749 -9.12035e-08)
(0.206491 0.157093 -9.87266e-08)
(0.121927 0.166016 -1.05337e-07)
(0.0507377 0.173434 -1.09009e-07)
(2.99999 1.01889e-07 -2.62138e-09)
(2.99998 5.528e-07 -8.62039e-09)
(2.99995 2.06065e-06 -1.01659e-08)
(2.99987 5.28192e-06 -1.59448e-08)
(2.99972 1.45851e-05 -1.63466e-08)
(2.99927 3.3421e-05 -2.16926e-08)
(2.99839 8.69559e-05 -2.24874e-08)
(2.99569 0.000196892 -3.08555e-08)
(2.99085 0.000501327 -3.4233e-08)
(2.97326 0.00114734 -6.90892e-08)
(2.94102 0.00294604 -5.60331e-08)
(2.82253 0.0072605 -2.39468e-07)
(2.49405 0.0214728 -2.56943e-07)
(1.71573 0.0546912 -8.48609e-07)
(0.756179 0.147456 -9.10059e-07)
(0.525777 0.144222 5.9018e-09)
(0.568778 0.146149 -4.26161e-08)
(0.575098 0.156858 -9.49313e-08)
(0.525832 0.168153 -9.52682e-08)
(0.442109 0.180901 -8.96601e-08)
(0.358886 0.19491 -8.64034e-08)
(0.287195 0.209805 -9.09782e-08)
(0.213096 0.224409 -9.73668e-08)
(0.126621 0.237797 -1.02243e-07)
(0.0521022 0.247521 -1.05445e-07)
(2.99999 1.35776e-07 -2.59366e-09)
(2.99998 7.34497e-07 -8.64627e-09)
(2.99995 2.74467e-06 -1.0155e-08)
(2.99988 7.04361e-06 -1.60098e-08)
(2.99973 1.94898e-05 -1.64872e-08)
(2.9993 4.48749e-05 -2.20949e-08)
(2.99847 0.000115969 -2.32495e-08)
(2.99589 0.000268512 -3.46557e-08)
(2.99132 0.000655375 -3.24749e-08)
(2.97441 0.00155643 -9.71289e-08)
(2.944 0.00385362 -2.37506e-08)
(2.83067 0.00940916 -2.67567e-07)
(2.519 0.0273791 -2.22006e-07)
(1.77375 0.0705821 -8.50774e-07)
(0.793925 0.192953 -9.5801e-07)
(0.521584 0.186134 2.07262e-08)
(0.571245 0.187571 -4.12146e-08)
(0.581968 0.201229 -9.58416e-08)
(0.533745 0.215845 -9.42239e-08)
(0.451888 0.232791 -8.61902e-08)
(0.370093 0.251583 -8.52122e-08)
(0.298806 0.271795 -8.96424e-08)
(0.223823 0.292088 -9.37734e-08)
(0.134701 0.31081 -9.73514e-08)
(0.0555475 0.323619 -1.00938e-07)
(3 1.58618e-07 -2.55154e-09)
(2.99998 8.58895e-07 -8.66529e-09)
(2.99996 3.2092e-06 -1.0062e-08)
(2.99989 8.23281e-06 -1.61147e-08)
(2.99975 2.28034e-05 -1.60904e-08)
(2.99935 5.24612e-05 -2.18781e-08)
(2.99858 0.000136276 -2.23692e-08)
(2.99614 0.000312515 -3.09416e-08)
(2.99193 0.000784187 -3.45019e-08)
(2.97588 0.0017972 -6.27777e-08)
(2.94774 0.00479826 -8.83229e-08)
(2.84058 0.0112144 -1.98227e-07)
(2.5503 0.0335405 -2.86114e-07)
(1.84764 0.0867924 -8.81897e-07)
(0.839261 0.240599 -1.02848e-06)
(0.513845 0.228608 4.81537e-08)
(0.573531 0.228742 -3.10043e-08)
(0.590527 0.245078 -9.33715e-08)
(0.544112 0.262824 -9.06864e-08)
(0.46509 0.284167 -8.07703e-08)
(0.385498 0.308316 -8.11152e-08)
(0.315134 0.334791 -8.80092e-08)
(0.239629 0.362207 -9.29504e-08)
(0.147059 0.388463 -9.57382e-08)
(0.0611838 0.406689 -9.84053e-08)
(3 1.60534e-07 -2.51514e-09)
(2.99998 8.75123e-07 -8.66884e-09)
(2.99996 3.25451e-06 -1.00347e-08)
(2.9999 8.32683e-06 -1.61609e-08)
(2.99977 2.30163e-05 -1.59581e-08)
(2.9994 5.23917e-05 -2.18722e-08)
(2.99869 0.000139345 -2.21721e-08)
(2.99643 0.000300355 -3.04988e-08)
(2.99256 0.000857439 -3.42466e-08)
(2.9777 0.00172998 -6.00243e-08)
(2.95205 0.00561508 -8.86519e-08)
(2.85272 0.0119735 -1.84044e-07)
(2.58918 0.0417104 -3.23448e-07)
(1.9395 0.103326 -8.88995e-07)
(0.895866 0.291329 -1.1407e-06)
(0.506037 0.273281 5.93492e-08)
(0.577891 0.270269 -2.58498e-08)
(0.602298 0.288377 -8.99575e-08)
(0.558055 0.308737 -8.58768e-08)
(0.48276 0.334482 -7.4456e-08)
(0.406401 0.36471 -7.45685e-08)
(0.337829 0.398883 -8.09449e-08)
(0.262393 0.4356 -8.52785e-08)
(0.16632 0.472835 -8.84544e-08)
(0.0711467 0.501467 -9.33021e-08)
(3 1.67193e-07 -2.4936e-09)
(2.99999 9.17403e-07 -8.65235e-09)
(2.99996 3.39267e-06 -1.01278e-08)
(2.9999 8.6665e-06 -1.59698e-08)
(2.99979 2.38306e-05 -1.64004e-08)
(2.99945 5.38376e-05 -2.19109e-08)
(2.99878 0.000144581 -2.29143e-08)
(2.99674 0.000297101 -3.34483e-08)
(2.99312 0.000934213 -3.21889e-08)
(2.97978 0.00162237 -9.00805e-08)
(2.95649 0.0064813 -2.92975e-08)
(2.86817 0.0124662 -2.50251e-07)
(2.63621 0.0488106 -2.21525e-07)
(2.0517 0.116942 -8.60561e-07)
(0.97463 0.338618 -1.20902e-06)
(0.510042 0.319793 2.76882e-08)
(0.590787 0.313505 -4.27822e-08)
(0.621538 0.331377 -8.71829e-08)
(0.578712 0.353336 -8.0523e-08)
(0.507563 0.383621 -6.73392e-08)
(0.434977 0.42069 -6.9529e-08)
(0.369209 0.463935 -7.73608e-08)
(0.295361 0.512711 -8.24257e-08)
(0.196791 0.566483 -8.57683e-08)
(0.0887253 0.616172 -8.94052e-08)
(3 1.93455e-07 -2.47054e-09)
(2.99999 1.07149e-06 -8.62601e-09)
(2.99997 3.95333e-06 -1.01282e-08)
(2.99991 1.01313e-05 -1.58846e-08)
(2.99981 2.77893e-05 -1.61869e-08)
(2.9995 6.32985e-05 -2.13405e-08)
(2.99889 0.000166688 -2.16901e-08)
(2.99709 0.00035776 -2.82506e-08)
(2.99367 0.00103202 -3.22347e-08)
(2.98224 0.00192666 -5.53519e-08)
(2.96131 0.00697417 -6.16926e-08)
(2.88525 0.0133897 -1.81442e-07)
(2.68837 0.050501 -2.69254e-07)
(2.17956 0.121863 -7.98636e-07)
(1.07679 0.367434 -1.28557e-06)
(0.535448 0.366949 -7.2449e-08)
(0.616505 0.363208 -7.90548e-08)
(0.650809 0.375649 -7.40177e-08)
(0.609311 0.397411 -6.67738e-08)
(0.542864 0.431639 -5.66078e-08)
(0.474435 0.476256 -6.35454e-08)
(0.41244 0.528995 -7.1001e-08)
(0.343401 0.592116 -7.43684e-08)
(0.248128 0.671515 -7.96544e-08)
(0.122688 0.764692 -8.43143e-08)
(3 3.51072e-07 -2.50158e-09)
(2.99999 7.67051e-07 -8.57019e-09)
(2.99997 5.31238e-06 -1.02433e-08)
(2.99992 8.37359e-06 -1.59256e-08)
(2.99983 3.69384e-05 -1.62324e-08)
(2.99956 5.41613e-05 -2.12838e-08)
(2.99903 0.000223745 -2.13428e-08)
(2.99746 0.000305588 -2.74066e-08)
(2.99444 0.00138692 -3.06463e-08)
(2.98467 0.00143404 -4.57511e-08)
(2.96625 0.00940412 -5.89949e-08)
(2.90203 0.00744489 -1.39134e-07)
(2.73853 0.0599137 -2.12073e-07)
(2.30881 0.0991372 -6.1186e-07)
(1.20577 0.346662 -8.66176e-07)
(0.598936 0.406147 -3.66158e-07)
(0.657761 0.421058 -1.69018e-07)
(0.68849 0.420573 -3.22065e-08)
(0.651206 0.442792 -4.39059e-08)
(0.590712 0.478714 -5.20142e-08)
(0.52679 0.529951 -6.28209e-08)
(0.470139 0.591561 -6.70508e-08)
(0.413668 0.673734 -7.29062e-08)
(0.337198 0.795794 -7.85985e-08)
(0.188759 1.00256 -8.14404e-08)
(2.99999 1.37595e-08 -5.35277e-13)
(2.99998 7.43247e-08 -2.72434e-12)
(2.99995 2.77217e-07 -6.75884e-12)
(2.99987 7.11287e-07 -1.42596e-11)
(2.9997 1.9624e-06 -3.18021e-11)
(2.99922 4.50069e-06 -6.1871e-11)
(2.99828 1.17006e-05 -1.52406e-10)
(2.9954 2.63931e-05 -3.01976e-10)
(2.9902 6.78192e-05 -8.21749e-10)
(2.97157 0.000153093 -1.64359e-09)
(2.93654 0.000397509 -4.5669e-09)
(2.81063 0.000996704 -1.10671e-08)
(2.45763 0.00285715 -2.70939e-08)
(1.63393 0.00729844 -6.65242e-08)
(0.702545 0.0196594 -7.84365e-08)
(0.532248 0.0207249 7.10572e-10)
(0.567674 0.0220927 -1.93045e-09)
(0.568975 0.0242773 -6.5517e-09)
(0.519263 0.0265557 -6.81702e-09)
(0.433983 0.0289195 -6.51922e-09)
(0.349302 0.031705 -5.81197e-09)
(0.278266 0.0350303 -5.74005e-09)
(0.206973 0.0386051 -5.97487e-09)
(0.125059 0.0428315 -6.1999e-09)
(0.0557686 0.0491016 -6.35042e-09)
(2.99999 4.19893e-08 -5.36828e-13)
(2.99998 2.27719e-07 -2.73365e-12)
(2.99995 8.48132e-07 -6.77337e-12)
(2.99987 2.17436e-06 -1.4274e-11)
(2.9997 5.99558e-06 -3.18231e-11)
(2.99923 1.3724e-05 -6.18317e-11)
(2.9983 3.57377e-05 -1.52463e-10)
(2.99545 8.03107e-05 -3.02001e-10)
(2.9903 0.00020777 -8.20997e-10)
(2.97184 0.000466269 -1.64935e-09)
(2.93726 0.00122437 -4.5401e-09)
(2.81251 0.00304917 -1.10643e-08)
(2.46332 0.00885446 -2.69784e-08)
(1.64631 0.0225971 -6.6348e-08)
(0.710517 0.0597315 -7.87429e-08)
(0.53083 0.060351 9.23889e-10)
(0.567017 0.0620968 -2.00687e-09)
(0.568679 0.0664537 -6.62582e-09)
(0.518611 0.070815 -6.81544e-09)
(0.433187 0.0752793 -6.46209e-09)
(0.348454 0.080305 -5.78776e-09)
(0.276868 0.0859171 -5.72939e-09)
(0.204488 0.091204 -5.94008e-09)
(0.121195 0.096436 -6.15808e-09)
(0.0516091 0.102103 -6.30777e-09)
(2.99999 7.13581e-08 -5.3889e-13)
(2.99998 3.87741e-07 -2.7527e-12)
(2.99995 1.44326e-06 -6.81319e-12)
(2.99987 3.69865e-06 -1.43641e-11)
(2.99971 1.01964e-05 -3.20347e-11)
(2.99924 2.33181e-05 -6.22836e-11)
(2.99833 6.07637e-05 -1.5357e-10)
(2.99555 0.000136265 -3.04575e-10)
(2.99052 0.000353665 -8.2607e-10)
(2.9724 0.000790657 -1.66291e-09)
(2.93876 0.00208951 -4.56672e-09)
(2.81648 0.00516154 -1.10437e-08)
(2.47548 0.0151646 -2.72091e-08)
(1.67352 0.0386792 -6.67568e-08)
(0.728496 0.103072 -8.0858e-08)
(0.528865 0.102348 1.56228e-09)
(0.567382 0.104433 -1.83788e-09)
(0.570632 0.111974 -6.62913e-09)
(0.520678 0.11975 -6.74941e-09)
(0.435758 0.128239 -6.32629e-09)
(0.351551 0.137527 -5.70939e-09)
(0.279761 0.14749 -5.70068e-09)
(0.206491 0.157093 -5.8699e-09)
(0.121927 0.166016 -6.07887e-09)
(0.0507377 0.173434 -6.22898e-09)
(2.99999 1.01888e-07 -5.44947e-13)
(2.99998 5.52795e-07 -2.77892e-12)
(2.99995 2.06063e-06 -6.90174e-12)
(2.99987 5.28185e-06 -1.4556e-11)
(2.99972 1.45849e-05 -3.25458e-11)
(2.99927 3.34205e-05 -6.3282e-11)
(2.99839 8.69547e-05 -1.56173e-10)
(2.99569 0.000196888 -3.08526e-10)
(2.99085 0.000501324 -8.40158e-10)
(2.97326 0.00114732 -1.67557e-09)
(2.94102 0.00294604 -4.64481e-09)
(2.82253 0.00726048 -1.10196e-08)
(2.49405 0.0214728 -2.77708e-08)
(1.71572 0.0546911 -6.78342e-08)
(0.756172 0.147456 -8.49116e-08)
(0.525779 0.144222 2.92877e-09)
(0.568779 0.146149 -1.36247e-09)
(0.575098 0.156858 -6.57885e-09)
(0.525832 0.168153 -6.64456e-09)
(0.442109 0.180901 -6.11994e-09)
(0.358886 0.19491 -5.57356e-09)
(0.287195 0.209806 -5.61349e-09)
(0.213096 0.224409 -5.86231e-09)
(0.126621 0.237797 -6.04358e-09)
(0.0521022 0.247521 -6.14816e-09)
(2.99999 1.35776e-07 -5.71841e-13)
(2.99998 7.34497e-07 -2.8794e-12)
(2.99995 2.74467e-06 -7.31363e-12)
(2.99988 7.04359e-06 -1.55324e-11)
(2.99973 1.94898e-05 -3.54992e-11)
(2.9993 4.48748e-05 -7.06515e-11)
(2.99847 0.000115969 -1.70738e-10)
(2.99589 0.000268511 -3.79074e-10)
(2.99132 0.000655374 -8.1297e-10)
(2.9744 0.00155642 -2.1994e-09)
(2.944 0.0038536 -4.14959e-09)
(2.83067 0.00940913 -1.1447e-08)
(2.51899 0.0273792 -2.80196e-08)
(1.77374 0.0705819 -6.9719e-08)
(0.793918 0.192952 -9.11236e-08)
(0.521587 0.186133 4.55933e-09)
(0.571246 0.187571 -9.54885e-10)
(0.581968 0.201229 -6.54973e-09)
(0.533745 0.215844 -6.5229e-09)
(0.451888 0.232791 -5.83578e-09)
(0.370093 0.251583 -5.39555e-09)
(0.298807 0.271796 -5.44116e-09)
(0.223823 0.292088 -5.55987e-09)
(0.134701 0.31081 -5.75936e-09)
(0.0555475 0.323619 -5.97474e-09)
(3 1.58621e-07 -5.50913e-13)
(2.99998 8.58908e-07 -2.78343e-12)
(2.99996 3.20925e-06 -6.96104e-12)
(2.99989 8.23293e-06 -1.48652e-11)
(2.99975 2.28038e-05 -3.30613e-11)
(2.99935 5.24621e-05 -6.5313e-11)
(2.99858 0.000136278 -1.59994e-10)
(2.99614 0.000312522 -3.27963e-10)
(2.99193 0.000784193 -8.43323e-10)
(2.97588 0.00179724 -1.74218e-09)
(2.94774 0.00479825 -5.10122e-09)
(2.84058 0.0112146 -1.11237e-08)
(2.5503 0.0335403 -2.69292e-08)
(1.84763 0.0867921 -7.36595e-08)
(0.839254 0.240597 -9.81079e-08)
(0.513848 0.228608 6.45779e-09)
(0.573532 0.228742 -6.57075e-10)
(0.590527 0.245078 -6.56502e-09)
(0.544112 0.262824 -6.36782e-09)
(0.46509 0.284167 -5.46232e-09)
(0.385498 0.308316 -5.10564e-09)
(0.315134 0.334791 -5.45547e-09)
(0.239629 0.362207 -5.79266e-09)
(0.147059 0.388464 -5.99369e-09)
(0.0611838 0.406689 -6.05949e-09)
(3 1.60538e-07 -5.09172e-13)
(2.99998 8.75143e-07 -2.60052e-12)
(2.99996 3.25458e-06 -6.33454e-12)
(2.9999 8.32704e-06 -1.35024e-11)
(2.99977 2.30169e-05 -2.90768e-11)
(2.9994 5.23931e-05 -5.62697e-11)
(2.99869 0.000139348 -1.41077e-10)
(2.99643 0.000300366 -2.56171e-10)
(2.99256 0.000857449 -8.32767e-10)
(2.9777 0.00173005 -1.33936e-09)
(2.95205 0.00561507 -5.23312e-09)
(2.85271 0.0119737 -8.89731e-09)
(2.58917 0.0417101 -3.49957e-08)
(1.93948 0.103325 -7.41022e-08)
(0.895857 0.291327 -1.09375e-07)
(0.506039 0.27328 8.33877e-09)
(0.577891 0.270269 2.68932e-10)
(0.602297 0.288377 -6.23357e-09)
(0.558055 0.308737 -5.95641e-09)
(0.48276 0.334482 -5.06898e-09)
(0.406401 0.36471 -4.67789e-09)
(0.337829 0.398883 -5.00726e-09)
(0.262393 0.4356 -5.27812e-09)
(0.16632 0.472836 -5.60827e-09)
(0.0711467 0.501468 -5.98566e-09)
(3 1.67194e-07 -4.59258e-13)
(2.99999 9.17408e-07 -2.41347e-12)
(2.99996 3.39269e-06 -5.64112e-12)
(2.9999 8.66655e-06 -1.17179e-11)
(2.99979 2.38307e-05 -2.44078e-11)
(2.99945 5.38378e-05 -4.46632e-11)
(2.99878 0.000144582 -1.1619e-10)
(2.99674 0.000297102 -1.49411e-10)
(2.99312 0.000934217 -8.5196e-10)
(2.97978 0.00162238 -4.41181e-10)
(2.95649 0.0064813 -6.66146e-09)
(2.86817 0.0124663 -6.82117e-09)
(2.63621 0.0488108 -3.73704e-08)
(2.05168 0.116943 -7.47496e-08)
(0.97462 0.338618 -1.21639e-07)
(0.510042 0.319792 6.94062e-09)
(0.590786 0.313504 6.9997e-10)
(0.621536 0.331377 -5.38206e-09)
(0.578711 0.353336 -5.16961e-09)
(0.507562 0.383621 -4.49013e-09)
(0.434977 0.42069 -4.37323e-09)
(0.369209 0.463936 -5.05338e-09)
(0.295361 0.512711 -5.54532e-09)
(0.196791 0.566484 -5.94972e-09)
(0.0887253 0.616172 -6.24086e-09)
(3 1.93456e-07 -4.88103e-13)
(2.99999 1.07149e-06 -2.5113e-12)
(2.99997 3.95335e-06 -6.07613e-12)
(2.99991 1.01313e-05 -1.27795e-11)
(2.99981 2.77894e-05 -2.77092e-11)
(2.9995 6.32986e-05 -5.36264e-11)
(2.99889 0.000166689 -1.31112e-10)
(2.99709 0.000357759 -2.54642e-10)
(2.99367 0.00103203 -7.61666e-10)
(2.98224 0.00192665 -1.16001e-09)
(2.96131 0.00697429 -5.3794e-09)
(2.88525 0.0133899 -7.64981e-09)
(2.68837 0.050502 -3.35925e-08)
(2.17954 0.121865 -7.19572e-08)
(1.07678 0.36744 -1.32486e-07)
(0.535444 0.366948 -2.15723e-09)
(0.616502 0.363206 -2.78097e-09)
(0.650807 0.375647 -4.45516e-09)
(0.609309 0.39741 -4.21088e-09)
(0.542863 0.431639 -3.78307e-09)
(0.474435 0.476256 -4.07732e-09)
(0.41244 0.528995 -4.81703e-09)
(0.343401 0.592116 -5.28543e-09)
(0.248128 0.671516 -6.14697e-09)
(0.122688 0.764692 -6.8767e-09)
(3 3.51073e-07 -4.48366e-13)
(2.99999 7.67073e-07 -2.33748e-12)
(2.99997 5.31243e-06 -5.46664e-12)
(2.99992 8.37375e-06 -1.14382e-11)
(2.99983 3.69388e-05 -2.35316e-11)
(2.99956 5.41623e-05 -4.50313e-11)
(2.99903 0.000223748 -1.03075e-10)
(2.99746 0.000305594 -1.98752e-10)
(2.99444 0.00138694 -5.49031e-10)
(2.98467 0.00143406 -9.42225e-10)
(2.96625 0.00940432 -3.92323e-09)
(2.90203 0.00744508 -4.84446e-09)
(2.73853 0.0599149 -2.46362e-08)
(2.3088 0.0991405 -5.25781e-08)
(1.20575 0.34667 -8.71736e-08)
(0.59893 0.406146 -3.31602e-08)
(0.657759 0.421054 -1.31599e-08)
(0.688489 0.420572 -1.52355e-09)
(0.651204 0.442791 -3.14449e-09)
(0.590711 0.478714 -3.98868e-09)
(0.526789 0.529951 -4.76822e-09)
(0.470138 0.591561 -5.22805e-09)
(0.413668 0.673734 -6.0446e-09)
(0.337198 0.795794 -7.2624e-09)
(0.188758 1.00256 -8.55628e-09)
(2.99999 1.37595e-08 -4.47889e-14)
(2.99998 7.43245e-08 -1.98939e-13)
(2.99995 2.77216e-07 -6.65093e-13)
(2.99987 7.11285e-07 -1.44051e-12)
(2.9997 1.96239e-06 -4.15266e-12)
(2.99922 4.50068e-06 -8.51931e-12)
(2.99828 1.17006e-05 -2.42856e-11)
(2.9954 2.63931e-05 -4.9618e-11)
(2.9902 6.78191e-05 -1.4262e-10)
(2.97157 0.000153093 -2.88344e-10)
(2.93654 0.000397509 -8.19673e-10)
(2.81063 0.000996704 -1.99247e-09)
(2.45763 0.00285715 -4.93257e-09)
(1.63393 0.00729844 -1.2138e-08)
(0.702544 0.0196594 -1.43977e-08)
(0.532249 0.0207249 1.00668e-10)
(0.567674 0.0220927 -3.40049e-10)
(0.568975 0.0242772 -1.14864e-09)
(0.519263 0.0265557 -1.18991e-09)
(0.433983 0.0289195 -1.12722e-09)
(0.349302 0.031705 -9.79126e-10)
(0.278266 0.0350303 -9.47813e-10)
(0.206973 0.0386051 -9.71214e-10)
(0.125059 0.0428315 -9.94795e-10)
(0.0557686 0.0491016 -1.01643e-09)
(2.99999 4.19893e-08 -4.50264e-14)
(2.99998 2.27719e-07 -1.99936e-13)
(2.99995 8.48131e-07 -6.67346e-13)
(2.99987 2.17435e-06 -1.44256e-12)
(2.9997 5.99558e-06 -4.15806e-12)
(2.99923 1.3724e-05 -8.51641e-12)
(2.9983 3.57376e-05 -2.43122e-11)
(2.99545 8.03106e-05 -4.96585e-11)
(2.9903 0.00020777 -1.42573e-10)
(2.97184 0.000466269 -2.89619e-10)
(2.93726 0.00122437 -8.15249e-10)
(2.81251 0.00304917 -1.99328e-09)
(2.46332 0.00885446 -4.91422e-09)
(1.64631 0.0225971 -1.21122e-08)
(0.710517 0.0597315 -1.44604e-08)
(0.53083 0.060351 1.38829e-10)
(0.567018 0.0620968 -3.54313e-10)
(0.568679 0.0664537 -1.16265e-09)
(0.518611 0.070815 -1.18989e-09)
(0.433187 0.0752793 -1.11553e-09)
(0.348454 0.080305 -9.72608e-10)
(0.276868 0.0859171 -9.45373e-10)
(0.204488 0.091204 -9.67544e-10)
(0.121195 0.096436 -9.92099e-10)
(0.0516091 0.102103 -1.01406e-09)
(2.99999 7.1358e-08 -4.5502e-14)
(2.99998 3.87741e-07 -2.01983e-13)
(2.99995 1.44326e-06 -6.74142e-13)
(2.99987 3.69865e-06 -1.45723e-12)
(2.99971 1.01964e-05 -4.19916e-12)
(2.99924 2.33181e-05 -8.60443e-12)
(2.99833 6.07636e-05 -2.4538e-11)
(2.99555 0.000136265 -5.01775e-11)
(2.99052 0.000353665 -1.43652e-10)
(2.9724 0.000790657 -2.9239e-10)
(2.93876 0.00208951 -8.2104e-10)
(2.81648 0.00516154 -1.99168e-09)
(2.47548 0.0151646 -4.96163e-09)
(1.67352 0.0386791 -1.2199e-08)
(0.728495 0.103072 -1.48611e-08)
(0.528865 0.102348 2.52919e-10)
(0.567382 0.104433 -3.24795e-10)
(0.570632 0.111974 -1.16493e-09)
(0.520678 0.11975 -1.17966e-09)
(0.435758 0.128239 -1.09135e-09)
(0.351551 0.137527 -9.57158e-10)
(0.279761 0.14749 -9.41406e-10)
(0.206491 0.157093 -9.62301e-10)
(0.121927 0.166016 -9.88801e-10)
(0.0507377 0.173434 -1.01225e-09)
(2.99999 1.01888e-07 -4.66391e-14)
(2.99998 5.52795e-07 -2.07217e-13)
(2.99995 2.06063e-06 -6.91156e-13)
(2.99987 5.28185e-06 -1.49403e-12)
(2.99972 1.45849e-05 -4.29714e-12)
(2.99927 3.34204e-05 -8.79583e-12)
(2.99839 8.69546e-05 -2.50422e-11)
(2.99569 0.000196887 -5.09515e-11)
(2.99085 0.000501324 -1.46432e-10)
(2.97326 0.00114731 -2.94979e-10)
(2.94102 0.00294604 -8.3671e-10)
(2.82253 0.00726048 -1.98985e-09)
(2.49405 0.0214728 -5.0718e-09)
(1.71572 0.0546911 -1.24128e-08)
(0.756171 0.147455 -1.56245e-08)
(0.52578 0.144222 4.98212e-10)
(0.568779 0.146149 -2.39257e-10)
(0.575098 0.156858 -1.15828e-09)
(0.525832 0.168153 -1.16234e-09)
(0.442109 0.180901 -1.05767e-09)
(0.358886 0.19491 -9.32114e-10)
(0.287195 0.209806 -9.28407e-10)
(0.213096 0.224409 -9.69029e-10)
(0.126621 0.237797 -9.96775e-10)
(0.0521022 0.247521 -1.01422e-09)
(2.99999 1.35776e-07 -5.16767e-14)
(2.99998 7.34497e-07 -2.26293e-13)
(2.99995 2.74467e-06 -7.67751e-13)
(2.99988 7.04359e-06 -1.67528e-12)
(2.99973 1.94898e-05 -4.84386e-12)
(2.9993 4.48748e-05 -1.01622e-11)
(2.99847 0.000115969 -2.77449e-11)
(2.99589 0.000268511 -6.40342e-11)
(2.99132 0.000655374 -1.41507e-10)
(2.9744 0.00155642 -3.92299e-10)
(2.944 0.00385359 -7.45923e-10)
(2.83067 0.00940913 -2.07391e-09)
(2.51899 0.0273792 -5.12395e-09)
(1.77374 0.0705819 -1.27797e-08)
(0.793917 0.192952 -1.67908e-08)
(0.521587 0.186133 7.91765e-10)
(0.571246 0.187571 -1.64445e-10)
(0.581968 0.201229 -1.15757e-09)
(0.533745 0.215844 -1.14325e-09)
(0.451888 0.232791 -1.00893e-09)
(0.370093 0.251583 -9.03436e-10)
(0.298807 0.271796 -9.05539e-10)
(0.223823 0.292088 -9.27993e-10)
(0.134701 0.31081 -9.59742e-10)
(0.0555475 0.323619 -1.00119e-09)
(3 1.58621e-07 -4.78827e-14)
(2.99998 8.58909e-07 -2.11901e-13)
(2.99996 3.20925e-06 -7.10369e-13)
(2.99989 8.23295e-06 -1.53578e-12)
(2.99975 2.28038e-05 -4.44378e-12)