/*--------------------------------*- C++ -*----------------------------------*\
| =========                 |                                                 |
| \\      /  F ield         | OpenFOAM: The Open Source CFD Toolbox           |
|  \\    /   O peration     | Version:  4.1                                   |
|   \\  /    A nd           | Web:      www.OpenFOAM.org                      |
|    \\/     M anipulation  |                                                 |
\*---------------------------------------------------------------------------*/
FoamFile
{
    version     2.0;
    format      ascii;
    class       volScalarField;
    location    "0.16";
    object      Ma;
}
// * * * * * * * * * * * * * * * * * * * * * * * * * * * * * * * * * * * * * //

dimensions      [0 0 0 0 0 0 0];

internalField   nonuniform List<scalar> 
52500
(
2.99816
2.99439
2.98731
2.97297
2.94515
2.90401
2.854
2.77077
2.65449
2.56241
2.49013
2.41142
2.3339
2.28126
2.24941
2.22921
2.21553
2.17006
2.05988
1.7834
1.15357
0.298893
0.0442486
0.183798
0.24492
2.99816
2.99439
2.98731
2.97297
2.94515
2.90401
2.854
2.77078
2.6545
2.56241
2.49014
2.41144
2.33392
2.28126
2.24942
2.22922
2.2159
2.17113
2.06277
1.79214
1.17499
0.320567
0.0602105
0.187274
0.254408
2.99816
2.99438
2.98731
2.97297
2.94515
2.904
2.85399
2.7708
2.65453
2.56244
2.49014
2.41141
2.33392
2.28126
2.24947
2.22928
2.21666
2.17326
2.06863
1.80992
1.21898
0.365412
0.0909189
0.191738
0.273587
2.99816
2.99438
2.98731
2.97297
2.94514
2.90401
2.854
2.7708
2.65454
2.56246
2.49018
2.41148
2.33394
2.28126
2.24954
2.22941
2.21787
2.17649
2.07708
1.83476
1.28072
0.429797
0.135023
0.194206
0.299507
2.99816
2.99438
2.9873
2.97296
2.94514
2.904
2.85399
2.77082
2.65459
2.56245
2.49016
2.41148
2.33394
2.28124
2.24963
2.22959
2.21942
2.18059
2.08758
1.86457
1.35481
0.512788
0.195244
0.19667
0.330842
2.99816
2.99438
2.98731
2.97296
2.94514
2.90401
2.85403
2.77093
2.65457
2.5622
2.49013
2.41202
2.33445
2.28145
2.24987
2.22988
2.22125
2.18551
2.10004
1.89758
1.43595
0.615844
0.272618
0.20784
0.362965
2.99816
2.99438
2.98731
2.97296
2.94514
2.90402
2.85403
2.77095
2.6546
2.56222
2.49014
2.41205
2.33443
2.28139
2.25005
2.23014
2.22373
2.19175
2.11542
1.9351
1.52487
0.740685
0.369169
0.238968
0.388213
2.99816
2.99438
2.9873
2.97296
2.94513
2.90402
2.854
2.77083
2.65461
2.56247
2.49017
2.41159
2.33396
2.28111
2.25013
2.23055
2.22682
2.199
2.13357
1.97847
1.62554
0.896583
0.480786
0.305917
0.414711
2.99816
2.99438
2.98731
2.97295
2.94514
2.90402
2.85403
2.77094
2.65458
2.56223
2.49012
2.41207
2.33445
2.28134
2.2506
2.23127
2.22969
2.20688
2.15259
2.02464
1.73065
1.09077
0.611532
0.398205
0.45852
2.99816
2.99438
2.98731
2.97295
2.94513
2.90401
2.85402
2.77093
2.65455
2.56222
2.49011
2.4121
2.33447
2.28143
2.25115
2.23231
2.23256
2.2166
2.17164
2.06994
1.84362
1.31881
0.778043
0.513098
0.572245
2.99814
2.99436
2.98728
2.97294
2.94512
2.90398
2.85397
2.77076
2.65452
2.56244
2.49019
2.4115
2.33397
2.28129
2.24942
2.2292
2.21551
2.17003
2.05982
1.78329
1.15335
0.29861
0.0427622
0.183486
0.244681
2.99814
2.99436
2.98728
2.97294
2.94512
2.90399
2.85397
2.77077
2.65453
2.56241
2.49015
2.41148
2.33395
2.28126
2.24941
2.22921
2.21589
2.1711
2.06273
1.79204
1.17478
0.320287
0.0591766
0.186976
0.254184
2.99813
2.99436
2.98729
2.97294
2.94512
2.90399
2.85402
2.77093
2.65456
2.56218
2.49012
2.41196
2.33443
2.28147
2.24953
2.22917
2.21642
2.17302
2.06841
1.80978
1.2189
0.365314
0.0902526
0.1915
0.27331
2.99814
2.99436
2.98729
2.97295
2.94512
2.904
2.85398
2.77078
2.65454
2.5624
2.49013
2.41148
2.33392
2.28122
2.24951
2.22939
2.21786
2.17647
2.07705
1.8347
1.28058
0.429616
0.13459
0.193975
0.299243
2.99813
2.99436
2.98729
2.97294
2.94513
2.904
2.85402
2.77094
2.65457
2.56219
2.49012
2.41197
2.3344
2.28142
2.24968
2.22951
2.21917
2.18034
2.08735
1.86444
1.35477
0.512746
0.194961
0.196452
0.33061
2.99814
2.99436
2.98729
2.97295
2.94513
2.904
2.85398
2.77079
2.65454
2.56242
2.49014
2.4115
2.3339
2.28116
2.24971
2.22987
2.22144
2.18571
2.10022
1.89762
1.43577
0.615598
0.272381
0.207621
0.362757
2.99814
2.99436
2.98729
2.97295
2.94512
2.90399
2.85398
2.77078
2.65452
2.56245
2.49016
2.41152
2.33391
2.28116
2.24997
2.23022
2.22397
2.19197
2.11558
1.93515
1.52477
0.74043
0.368936
0.238743
0.388065
2.99814
2.99436
2.98729
2.97295
2.94513
2.90399
2.85398
2.77076
2.65449
2.56244
2.49014
2.41152
2.33391
2.28111
2.25015
2.23059
2.22684
2.19902
2.13356
1.97842
1.62546
0.896448
0.480603
0.305746
0.414598
2.99814
2.99436
2.98729
2.97295
2.94513
2.90399
2.85398
2.77076
2.65447
2.56244
2.49012
2.41153
2.33392
2.28111
2.25051
2.23131
2.22996
2.20713
2.15281
2.02473
1.73054
1.09056
0.611325
0.398092
0.45842
2.99814
2.99436
2.98729
2.97295
2.94513
2.90399
2.85398
2.77076
2.65446
2.56245
2.49011
2.41155
2.33391
2.28118
2.25104
2.23232
2.23281
2.21684
2.17184
2.07003
1.84354
1.3186
0.777756
0.513011
0.572169
2.99814
2.99436
2.98729
2.97295
2.94513
2.90399
2.85399
2.77077
2.65449
2.56241
2.49014
2.41144
2.33392
2.28126
2.2494
2.2292
2.21552
2.17004
2.05984
1.7833
1.15335
0.298575
0.0427866
0.183463
0.244672
2.99814
2.99436
2.98729
2.97295
2.94513
2.90399
2.85399
2.77077
2.6545
2.56243
2.49015
2.41145
2.33392
2.28126
2.24942
2.22922
2.21589
2.1711
2.06272
1.79204
1.17476
0.320262
0.05919
0.186957
0.254175
2.99814
2.99436
2.98729
2.97295
2.94513
2.90399
2.85399
2.77077
2.65451
2.56244
2.49016
2.41146
2.33392
2.28123
2.24942
2.22924
2.21664
2.17325
2.0686
1.80984
1.21879
0.365147
0.0902559
0.191477
0.273297
2.99814
2.99436
2.98729
2.97295
2.94513
2.904
2.85399
2.77079
2.65453
2.56244
2.49017
2.41147
2.33391
2.28123
2.2495
2.22938
2.21785
2.17646
2.07704
1.83469
1.28054
0.429576
0.134575
0.193959
0.299235
2.99814
2.99436
2.98729
2.97295
2.94513
2.904
2.85399
2.77079
2.65453
2.56242
2.49014
2.41148
2.3339
2.28119
2.24958
2.22955
2.21942
2.18059
2.08757
1.86453
1.35468
0.512588
0.194922
0.196429
0.330599
2.99813
2.99436
2.98729
2.97294
2.94513
2.904
2.85403
2.77092
2.65453
2.56218
2.4901
2.41197
2.3344
2.28141
2.24984
2.22986
2.22123
2.1855
2.10002
1.89753
1.43584
0.615694
0.272375
0.207608
0.362752
2.99814
2.99436
2.98729
2.97295
2.94513
2.904
2.85399
2.77079
2.65453
2.56242
2.49014
2.41152
2.33391
2.28116
2.24997
2.23024
2.22399
2.192
2.1156
1.93517
1.52478
0.740437
0.368932
0.238738
0.388063
2.99814
2.99436
2.98729
2.97295
2.94513
2.90399
2.85398
2.77078
2.65452
2.56247
2.49017
2.41155
2.33394
2.28113
2.25016
2.23059
2.22684
2.19902
2.13356
1.97843
1.62545
0.89643
0.480595
0.305743
0.414596
2.99814
2.99436
2.98729
2.97295
2.94513
2.90399
2.85398
2.77077
2.6545
2.56248
2.49016
2.41157
2.33395
2.28113
2.25052
2.23131
2.22996
2.20713
2.1528
2.02472
1.73054
1.09054
0.611316
0.398089
0.458419
2.99814
2.99436
2.98729
2.97295
2.94513
2.90399
2.85398
2.77078
2.65451
2.5625
2.49016
2.4116
2.33396
2.2812
2.25105
2.23232
2.2328
2.21684
2.17183
2.07003
1.84353
1.31857
0.777747
0.513009
0.572169
2.99814
2.99436
2.98729
2.97295
2.94514
2.904
2.854
2.77078
2.65452
2.56244
2.49016
2.41145
2.33392
2.28126
2.2494
2.2292
2.21552
2.17004
2.05984
1.78329
1.15333
0.298544
0.0428031
0.18345
0.244668
2.99814
2.99436
2.98729
2.97295
2.94514
2.904
2.854
2.77078
2.65452
2.56244
2.49016
2.41145
2.33392
2.28126
2.24941
2.22922
2.21589
2.17111
2.06273
1.79204
1.17475
0.320229
0.0592003
0.186946
0.254171
2.99814
2.99436
2.98729
2.97295
2.94514
2.904
2.854
2.77078
2.65451
2.56244
2.49016
2.41146
2.33392
2.28123
2.24943
2.22925
2.21666
2.17326
2.06861
1.80985
1.21877
0.365121
0.0902604
0.191468
0.273293
2.99814
2.99436
2.98729
2.97295
2.94514
2.904
2.854
2.77078
2.65451
2.56244
2.49016
2.41146
2.33392
2.28125
2.24953
2.22941
2.21788
2.17649
2.07706
1.83469
1.28054
0.429547
0.134574
0.193953
0.29923
2.99814
2.99436
2.98729
2.97295
2.94514
2.904
2.854
2.77078
2.65451
2.56244
2.49016
2.41147
2.33391
2.28121
2.2496
2.22957
2.21943
2.1806
2.08757
1.86452
1.35467
0.512569
0.194922
0.196429
0.330595
2.99814
2.99436
2.98729
2.97295
2.94514
2.904
2.854
2.77078
2.65451
2.56245
2.49016
2.41148
2.3339
2.28118
2.24974
2.2299
2.22147
2.18573
2.10023
1.89762
1.43575
0.615537
0.272345
0.207601
0.362747
2.99814
2.99436
2.98729
2.97295
2.94514
2.904
2.854
2.77078
2.65451
2.56245
2.49015
2.4115
2.3339
2.28117
2.24998
2.23024
2.224
2.192
2.1156
1.93516
1.52477
0.740395
0.368908
0.238727
0.38806
2.99814
2.99436
2.98729
2.97295
2.94514
2.904
2.854
2.77078
2.65451
2.56246
2.49015
2.41152
2.33391
2.28112
2.25016
2.2306
2.22685
2.19903
2.13357
1.97843
1.62545
0.896415
0.480575
0.305733
0.414595
2.99814
2.99436
2.98729
2.97295
2.94514
2.904
2.854
2.77079
2.6545
2.56247
2.49015
2.41154
2.33392
2.28111
2.25051
2.23131
2.22996
2.20714
2.15281
2.02473
1.73054
1.09053
0.611295
0.398082
0.45842
2.99814
2.99436
2.98729
2.97295
2.94514
2.904
2.854
2.77079
2.65449
2.56249
2.49014
2.41157
2.33393
2.28119
2.25104
2.23233
2.23281
2.21685
2.17184
2.07003
1.84353
1.31858
0.77772
0.513001
0.572172
2.99814
2.99436
2.98729
2.97295
2.94513
2.90398
2.85398
2.7708
2.65453
2.56244
2.49013
2.41138
2.33391
2.28128
2.24943
2.22922
2.21551
2.17002
2.05981
1.78328
1.15335
0.298556
0.0427645
0.183488
0.24466
2.99814
2.99436
2.98729
2.97295
2.94513
2.90398
2.85398
2.7708
2.65453
2.56243
2.49013
2.41139
2.33391
2.28128
2.24944
2.22924
2.21588
2.17109
2.06271
1.79202
1.17477
0.320249
0.0591547
0.186973
0.254164
2.99814
2.99436
2.98729
2.97295
2.94513
2.90399
2.85399
2.77078
2.6545
2.56242
2.49014
2.41144
2.33392
2.28124
2.24944
2.22926
2.21666
2.17326
2.0686
1.80983
1.21878
0.365112
0.090245
0.191432
0.273376
2.99814
2.99436
2.98729
2.97295
2.94513
2.90399
2.85399
2.77078
2.6545
2.56242
2.49014
2.41144
2.33391
2.28125
2.24954
2.22943
2.21789
2.17649
2.07705
1.83467
1.28053
0.429536
0.134584
0.193901
0.299324
2.99814
2.99436
2.98729
2.97295
2.94513
2.90398
2.85398
2.7708
2.65452
2.56243
2.49012
2.4114
2.33389
2.28123
2.24963
2.2296
2.21943
2.18058
2.08755
1.8645
1.35466
0.512585
0.194957
0.196408
0.330608
2.99814
2.99436
2.98729
2.97295
2.94514
2.90398
2.85398
2.77079
2.65452
2.56245
2.49013
2.4114
2.33388
2.28121
2.24977
2.22993
2.22147
2.18572
2.10021
1.89759
1.43574
0.615562
0.272382
0.207595
0.362734
2.99814
2.99436
2.98729
2.97295
2.94513
2.90398
2.85398
2.77079
2.65452
2.56246
2.49013
2.41143
2.33388
2.28119
2.25002
2.23028
2.22399
2.19198
2.11556
1.93513
1.52476
0.740429
0.368939
0.238729
0.388047
2.99814
2.99436
2.98729
2.97295
2.94513
2.90399
2.85398
2.77077
2.65449
2.56245
2.49014
2.41148
2.3339
2.28112
2.25016
2.2306
2.22685
2.19902
2.13355
1.97842
1.62546
0.896447
0.480598
0.305739
0.414586
2.99814
2.99436
2.98729
2.97295
2.94513
2.90398
2.85398
2.77079
2.6545
2.56245
2.4901
2.41146
2.3339
2.28113
2.25054
2.23133
2.22996
2.20712
2.15279
2.02471
1.73054
1.09056
0.611319
0.398086
0.458413
2.99814
2.99436
2.98729
2.97295
2.94513
2.90398
2.85398
2.77079
2.65449
2.56247
2.4901
2.4115
2.33392
2.28121
2.25108
2.23236
2.23282
2.21684
2.17183
2.07003
1.84353
1.3186
0.777748
0.513004
0.572165
2.99814
2.99436
2.98729
2.97295
2.94514
2.904
2.854
2.77078
2.65452
2.56244
2.49016
2.41145
2.33392
2.28126
2.2494
2.2292
2.21551
2.17004
2.05984
1.78329
1.15334
0.298548
0.0428017
0.183447
0.244669
2.99814
2.99436
2.98729
2.97295
2.94514
2.904
2.854
2.77078
2.65452
2.56244
2.49016
2.41145
2.33392
2.28125
2.24941
2.22921
2.21589
2.17111
2.06273
1.79204
1.17476
0.320232
0.0591997
0.186944
0.254171
2.99814
2.99436
2.98729
2.97295
2.94514
2.904
2.854
2.77078
2.65451
2.56244
2.49016
2.41146
2.33392
2.28123
2.24943
2.22925
2.21666
2.17326
2.06861
1.80985
1.21878
0.365124
0.0902591
0.191466
0.273292
2.99814
2.99436
2.98729
2.97295
2.94514
2.904
2.854
2.77078
2.65451
2.56245
2.49017
2.41146
2.33391
2.28125
2.24954
2.22942
2.21788
2.17649
2.07706
1.83468
1.28053
0.429548
0.134572
0.193952
0.299229
2.99814
2.99436
2.98729
2.97295
2.94514
2.904
2.854
2.77078
2.65451
2.56244
2.49016
2.41147
2.3339
2.2812
2.2496
2.22957
2.21943
2.18059
2.08757
1.86452
1.35467
0.512571
0.194919
0.196428
0.330593
2.99814
2.99436
2.98729
2.97295
2.94514
2.904
2.854
2.77077
2.65451
2.56246
2.49016
2.41148
2.3339
2.28118
2.24974
2.2299
2.22147
2.18572
2.10023
1.89761
1.43575
0.615538
0.272342
0.2076
0.362744
2.99814
2.99436
2.98729
2.97295
2.94514
2.904
2.854
2.77078
2.65451
2.56245
2.49015
2.41149
2.33389
2.28116
2.24997
2.23024
2.22399
2.192
2.11559
1.93516
1.52477
0.740401
0.368908
0.238727
0.388061
2.99814
2.99436
2.98729
2.97295
2.94514
2.904
2.854
2.77078
2.6545
2.56245
2.49014
2.41151
2.3339
2.28111
2.25015
2.23059
2.22685
2.19903
2.13357
1.97843
1.62546
0.896423
0.480576
0.305732
0.414598
2.99814
2.99436
2.98729
2.97295
2.94514
2.904
2.85399
2.77078
2.65449
2.56246
2.49014
2.41153
2.33392
2.28111
2.25051
2.23131
2.22996
2.20714
2.15281
2.02473
1.73055
1.09054
0.611299
0.398082
0.458421
2.99814
2.99436
2.98729
2.97295
2.94513
2.904
2.85399
2.77078
2.65448
2.56248
2.49014
2.41157
2.33393
2.28119
2.25105
2.23233
2.23282
2.21685
2.17184
2.07004
1.84354
1.31858
0.777728
0.513
0.572171
2.99814
2.99436
2.98729
2.97295
2.94514
2.904
2.854
2.77078
2.65451
2.56244
2.49016
2.41145
2.33392
2.28126
2.2494
2.2292
2.21552
2.17004
2.05984
1.78329
1.15333
0.298544
0.0428031
0.18345
0.244668
2.99814
2.99436
2.98729
2.97295
2.94514
2.904
2.854
2.77078
2.65452
2.56244
2.49016
2.41145
2.33392
2.28125
2.24941
2.22922
2.21589
2.17111
2.06273
1.79204
1.17475
0.320229
0.0592003
0.186946
0.254171
2.99814
2.99436
2.98729
2.97295
2.94514
2.904
2.854
2.77078
2.65451
2.56244
2.49016
2.41146
2.33392
2.28123
2.24943
2.22925
2.21666
2.17326
2.06861
1.80985
1.21877
0.365121
0.0902604
0.191468
0.273293
2.99814
2.99436
2.98729
2.97295
2.94514
2.904
2.854
2.77078
2.65452
2.56244
2.49016
2.41146
2.33392
2.28124
2.24953
2.22941
2.21788
2.17649
2.07706
1.83469
1.28053
0.429546
0.134574
0.193953
0.29923
2.99814
2.99436
2.98729
2.97295
2.94514
2.904
2.854
2.77078
2.65451
2.56244
2.49016
2.41147
2.33391
2.28121
2.2496
2.22957
2.21943
2.1806
2.08757
1.86452
1.35467
0.512568
0.194922
0.196429
0.330595
2.99814
2.99436
2.98729
2.97295
2.94514
2.904
2.854
2.77078
2.65451
2.56245
2.49016
2.41148
2.3339
2.28118
2.24974
2.2299
2.22147
2.18573
2.10023
1.89762
1.43575
0.615536
0.272345
0.207601
0.362747
2.99814
2.99436
2.98729
2.97295
2.94514
2.904
2.854
2.77078
2.65451
2.56245
2.49015
2.4115
2.3339
2.28117
2.24998
2.23024
2.224
2.192
2.1156
1.93516
1.52477
0.740395
0.368908
0.238727
0.38806
2.99814
2.99436
2.98729
2.97295
2.94514
2.904
2.854
2.77078
2.65451
2.56246
2.49015
2.41152
2.33391
2.28112
2.25016
2.2306
2.22685
2.19903
2.13357
1.97843
1.62545
0.896415
0.480575
0.305733
0.414595
2.99814
2.99436
2.98729
2.97295
2.94514
2.904
2.854
2.77079
2.6545
2.56247
2.49015
2.41154
2.33393
2.28111
2.25051
2.23131
2.22996
2.20714
2.15281
2.02473
1.73054
1.09053
0.611295
0.398082
0.45842
2.99814
2.99436
2.98729
2.97295
2.94514
2.904
2.854
2.77079
2.65449
2.56249
2.49014
2.41157
2.33393
2.28119
2.25104
2.23233
2.23281
2.21685
2.17184
2.07003
1.84353
1.31858
0.77772
0.513001
0.572172
2.99814
2.99436
2.98729
2.97295
2.94513
2.90399
2.85399
2.77077
2.65449
2.56241
2.49014
2.41144
2.33392
2.28126
2.2494
2.2292
2.21552
2.17004
2.05984
1.7833
1.15335
0.298575
0.0427866
0.183463
0.244672
2.99814
2.99436
2.98729
2.97295
2.94513
2.90399
2.85399
2.77077
2.6545
2.56243
2.49015
2.41145
2.33392
2.28126
2.24942
2.22922
2.21589
2.1711
2.06272
1.79204
1.17476
0.320262
0.05919
0.186957
0.254175
2.99814
2.99436
2.98729
2.97295
2.94513
2.90399
2.85399
2.77077
2.65451
2.56244
2.49016
2.41146
2.33392
2.28123
2.24942
2.22924
2.21664
2.17325
2.0686
1.80984
1.21879
0.365147
0.0902559
0.191477
0.273297
2.99814
2.99436
2.98729
2.97295
2.94513
2.904
2.85399
2.77079
2.65453
2.56244
2.49017
2.41147
2.33391
2.28123
2.2495
2.22938
2.21785
2.17646
2.07704
1.83469
1.28054
0.429576
0.134575
0.193959
0.299235
2.99814
2.99436
2.98729
2.97295
2.94513
2.904
2.85399
2.77079
2.65453
2.56242
2.49014
2.41148
2.3339
2.28119
2.24958
2.22955
2.21942
2.18059
2.08757
1.86453
1.35468
0.512588
0.194922
0.196429
0.330599
2.99813
2.99436
2.98729
2.97294
2.94513
2.904
2.85403
2.77092
2.65453
2.56218
2.4901
2.41197
2.3344
2.28141
2.24984
2.22986
2.22123
2.1855
2.10002
1.89753
1.43584
0.615694
0.272375
0.207608
0.362752
2.99814
2.99436
2.98729
2.97295
2.94513
2.904
2.85399
2.77079
2.65453
2.56242
2.49014
2.41152
2.33391
2.28116
2.24997
2.23024
2.22399
2.192
2.1156
1.93517
1.52478
0.740437
0.368932
0.238738
0.388063
2.99814
2.99436
2.98729
2.97295
2.94513
2.90399
2.85398
2.77078
2.65452
2.56247
2.49017
2.41155
2.33394
2.28113
2.25016
2.23059
2.22684
2.19902
2.13356
1.97843
1.62545
0.89643
0.480595
0.305743
0.414596
2.99814
2.99436
2.98729
2.97295
2.94513
2.90399
2.85398
2.77077
2.6545
2.56248
2.49016
2.41157
2.33395
2.28113
2.25052
2.23131
2.22996
2.20713
2.1528
2.02472
1.73054
1.09054
0.611316
0.398089
0.458419
2.99814
2.99436
2.98729
2.97295
2.94513
2.90399
2.85398
2.77078
2.65451
2.5625
2.49016
2.4116
2.33396
2.2812
2.25105
2.23232
2.2328
2.21684
2.17183
2.07003
1.84353
1.31857
0.777747
0.513009
0.572169
2.99814
2.99436
2.98728
2.97294
2.94512
2.90398
2.85397
2.77076
2.65452
2.56244
2.49019
2.4115
2.33397
2.28129
2.24942
2.2292
2.21551
2.17003
2.05982
1.78329
1.15335
0.29861
0.0427621
0.183486
0.244681
2.99814
2.99436
2.98728
2.97294
2.94512
2.90399
2.85397
2.77077
2.65453
2.56241
2.49015
2.41148
2.33395
2.28126
2.24941
2.22921
2.21589
2.1711
2.06273
1.79204
1.17478
0.320287
0.0591766
0.186976
0.254184
2.99813
2.99436
2.98729
2.97294
2.94512
2.90399
2.85402
2.77093
2.65456
2.56218
2.49012
2.41196
2.33443
2.28147
2.24953
2.22917
2.21642
2.17302
2.06841
1.80978
1.2189
0.365314
0.0902526
0.1915
0.27331
2.99814
2.99436
2.98729
2.97295
2.94512
2.904
2.85398
2.77078
2.65454
2.5624
2.49013
2.41148
2.33392
2.28122
2.24951
2.22939
2.21786
2.17647
2.07705
1.8347
1.28058
0.429616
0.13459
0.193976
0.299243
2.99813
2.99436
2.98729
2.97294
2.94513
2.904
2.85402
2.77094
2.65457
2.56219
2.49012
2.41197
2.3344
2.28142
2.24968
2.22951
2.21917
2.18034
2.08735
1.86444
1.35477
0.512746
0.194961
0.196452
0.33061
2.99814
2.99436
2.98729
2.97295
2.94513
2.904
2.85398
2.77079
2.65454
2.56242
2.49014
2.4115
2.3339
2.28116
2.24971
2.22987
2.22144
2.18571
2.10022
1.89762
1.43577
0.615598
0.272381
0.207621
0.362757
2.99814
2.99436
2.98729
2.97295
2.94512
2.90399
2.85398
2.77078
2.65452
2.56245
2.49016
2.41152
2.33391
2.28116
2.24997
2.23022
2.22397
2.19197
2.11558
1.93515
1.52477
0.74043
0.368936
0.238743
0.388065
2.99814
2.99436
2.98729
2.97295
2.94513
2.90399
2.85398
2.77076
2.65449
2.56244
2.49014
2.41152
2.33391
2.28111
2.25015
2.23059
2.22684
2.19902
2.13356
1.97842
1.62546
0.896448
0.480603
0.305746
0.414598
2.99814
2.99436
2.98729
2.97295
2.94513
2.90399
2.85398
2.77076
2.65447
2.56244
2.49012
2.41153
2.33392
2.28111
2.25051
2.23131
2.22996
2.20713
2.15281
2.02473
1.73054
1.09056
0.611325
0.398092
0.45842
2.99814
2.99436
2.98729
2.97295
2.94513
2.90399
2.85398
2.77076
2.65446
2.56245
2.49011
2.41155
2.33391
2.28118
2.25104
2.23232
2.23281
2.21684
2.17184
2.07003
1.84354
1.3186
0.777756
0.513011
0.572169
2.99816
2.99439
2.98731
2.97297
2.94515
2.904
2.85399
2.77077
2.65449
2.56242
2.49015
2.41144
2.33393
2.28128
2.24943
2.22922
2.21553
2.17006
2.05987
1.78338
1.15356
0.298895
0.0442646
0.183733
0.245005
2.99816
2.99438
2.98731
2.97297
2.94515
2.90399
2.85399
2.77081
2.65454
2.56243
2.49013
2.4114
2.33392
2.28128
2.24944
2.22923
2.21588
2.1711
2.06274
1.79213
1.175
0.320604
0.0601805
0.187282
0.254403
2.99816
2.99439
2.98731
2.97297
2.94514
2.90401
2.85399
2.77078
2.65453
2.56241
2.49014
2.41146
2.33393
2.28124
2.24944
2.22926
2.21667
2.17328
2.06865
1.80994
1.219
0.365412
0.0909093
0.191755
0.273582
2.99816
2.99438
2.98731
2.97296
2.94514
2.90398
2.85401
2.77096
2.65457
2.56218
2.49008
2.4119
2.33444
2.28153
2.24969
2.22941
2.21763
2.17623
2.07683
1.83465
1.28084
0.429961
0.135047
0.194227
0.299514
2.99816
2.99438
2.9873
2.97296
2.94514
2.90401
2.854
2.77082
2.65457
2.56243
2.49015
2.4115
2.33393
2.2812
2.24958
2.22955
2.21942
2.18059
2.08759
1.86459
1.35484
0.512817
0.195276
0.19669
0.330849
2.99816
2.99438
2.9873
2.97296
2.94513
2.904
2.85398
2.77082
2.6546
2.56247
2.49016
2.41149
2.33393
2.28122
2.24979
2.2299
2.22151
2.18574
2.10026
1.89767
1.43583
0.615732
0.272618
0.207843
0.362965
2.99816
2.99438
2.98731
2.97296
2.94514
2.90401
2.85403
2.77094
2.65456
2.56218
2.49011
2.41204
2.33443
2.2814
2.25007
2.23017
2.22376
2.19177
2.11544
1.9351
1.52486
0.740672
0.369163
0.238961
0.38821
2.99816
2.99438
2.98731
2.97295
2.94513
2.904
2.85402
2.77093
2.65456
2.56219
2.49012
2.41207
2.33448
2.2814
2.2503
2.23061
2.22664
2.19881
2.13338
1.97837
1.6256
0.896725
0.480831
0.305929
0.414709
2.99816
2.99438
2.9873
2.97296
2.94513
2.90401
2.85399
2.77081
2.65457
2.56246
2.49015
2.4116
2.33399
2.28114
2.25053
2.23132
2.22997
2.20714
2.15282
2.02475
1.73063
1.09067
0.611518
0.398205
0.458522
2.99816
2.99438
2.9873
2.97295
2.94513
2.90397
2.854
2.77099
2.65462
2.56227
2.49011
2.41206
2.3345
2.28151
2.25123
2.23237
2.23255
2.21655
2.17159
2.06989
1.84358
1.31878
0.778028
0.5131
0.572252
2.99816
2.99438
2.9873
2.97296
2.94513
2.90401
2.85398
2.77078
2.65453
2.56247
2.49013
2.41164
2.33404
2.28126
2.25141
2.23327
2.23431
2.22614
2.19029
2.11336
1.95102
1.56095
1.01924
0.663756
0.780446
2.99816
2.99438
2.98731
2.97295
2.94513
2.90399
2.85401
2.77091
2.65449
2.56227
2.49012
2.41207
2.33461
2.28158
2.25167
2.23398
2.23428
2.23352
2.20777
2.15265
2.03591
1.76977
1.29895
0.856275
0.941668
2.99816
2.99438
2.9873
2.97296
2.94513
2.904
2.85397
2.77078
2.65448
2.56249
2.49015
2.41159
2.33417
2.28145
2.25174
2.23472
2.23554
2.24017
2.22343
2.18311
2.10497
1.93854
1.58322
1.12386
1.09533
2.99816
2.99438
2.9873
2.97295
2.94512
2.904
2.85397
2.7708
2.65451
2.5625
2.49017
2.41159
2.33419
2.28154
2.25185
2.2349
2.23676
2.24095
2.23272
2.21196
2.16222
2.06805
1.86471
1.47265
1.26951
2.99816
2.99438
2.98731
2.97295
2.94513
2.904
2.85401
2.77092
2.65452
2.56226
2.49013
2.41205
2.33467
2.2818
2.25205
2.23502
2.2372
2.24137
2.2358
2.22458
2.2048
2.15763
2.05038
1.82088
1.5228
2.99816
2.99438
2.9873
2.97295
2.94512
2.90401
2.85401
2.77094
2.65454
2.56224
2.49011
2.41206
2.33467
2.28179
2.25207
2.2351
2.23724
2.24209
2.23602
2.22741
2.22129
2.2098
2.17161
2.04944
1.84145
2.99815
2.99438
2.9873
2.97295
2.94512
2.90401
2.85402
2.77096
2.65457
2.56225
2.49012
2.41206
2.33466
2.28177
2.25204
2.23508
2.23731
2.24213
2.23661
2.22829
2.22354
2.22539
2.23259
2.17401
2.05858
2.99815
2.99438
2.9873
2.97294
2.94512
2.90401
2.85401
2.77097
2.65458
2.56224
2.49011
2.41207
2.33467
2.28177
2.25204
2.23508
2.23732
2.24217
2.23664
2.22863
2.22468
2.2284
2.24479
2.22757
2.15683
2.99815
2.99438
2.9873
2.97294
2.94512
2.904
2.85401
2.77094
2.65455
2.56225
2.49012
2.41208
2.33468
2.28179
2.25207
2.23512
2.23735
2.24219
2.23667
2.22869
2.22486
2.22913
2.24707
2.23699
2.19045
2.99815
2.99438
2.9873
2.97294
2.94512
2.904
2.85401
2.77094
2.65454
2.56225
2.49013
2.41207
2.33468
2.28179
2.25207
2.23511
2.23733
2.24218
2.23667
2.2287
2.2249
2.22927
2.24755
2.23841
2.19628
2.99816
2.99438
2.9873
2.97295
2.94512
2.904
2.85396
2.77079
2.65453
2.56248
2.49016
2.4116
2.3342
2.28157
2.25198
2.23513
2.2376
2.24246
2.23691
2.22885
2.22489
2.22912
2.24738
2.23854
2.19701
2.99815
2.99438
2.9873
2.97295
2.94512
2.90399
2.85399
2.77091
2.6545
2.56224
2.49012
2.41206
2.33469
2.28182
2.25211
2.23515
2.23737
2.24221
2.23669
2.22871
2.22491
2.2293
2.24765
2.23875
2.19728
2.99815
2.99438
2.9873
2.97295
2.94512
2.90399
2.854
2.77092
2.6545
2.56222
2.49011
2.41206
2.33468
2.2818
2.25209
2.23513
2.23736
2.2422
2.23668
2.22871
2.22492
2.22931
2.24766
2.23876
2.1973
2.99816
2.99438
2.9873
2.97295
2.94512
2.904
2.85396
2.77079
2.65453
2.56248
2.49014
2.41158
2.33417
2.28154
2.25195
2.23511
2.23758
2.24245
2.23689
2.22884
2.22489
2.22912
2.2474
2.2386
2.1972
2.99815
2.99438
2.9873
2.97295
2.94512
2.904
2.85401
2.77094
2.65453
2.56225
2.49011
2.41204
2.33465
2.28177
2.25205
2.23509
2.23732
2.24217
2.23666
2.22869
2.2249
2.22929
2.24765
2.23876
2.19731
2.99815
2.99438
2.9873
2.97294
2.94512
2.904
2.854
2.77094
2.65453
2.5622
2.49008
2.41205
2.33466
2.28177
2.25206
2.2351
2.23734
2.24219
2.23668
2.22871
2.22491
2.2293
2.24765
2.23876
2.19731
2.99815
2.99438
2.9873
2.97294
2.94512
2.904
2.854
2.77094
2.65453
2.56221
2.49009
2.41206
2.33467
2.28178
2.25207
2.23511
2.23735
2.2422
2.23669
2.22871
2.22491
2.2293
2.24765
2.23876
2.19731
2.99815
2.99438
2.9873
2.97294
2.94512
2.90399
2.854
2.77094
2.65454
2.56224
2.49012
2.41207
2.33468
2.28179
2.25206
2.2351
2.23733
2.24218
2.23667
2.2287
2.2249
2.22929
2.24764
2.23876
2.19731
2.99816
2.99438
2.9873
2.97295
2.94511
2.904
2.85396
2.7708
2.65454
2.5625
2.49017
2.41161
2.3342
2.28156
2.25196
2.23511
2.23758
2.24244
2.23689
2.22884
2.22488
2.22911
2.24739
2.23859
2.19719
2.99815
2.99438
2.9873
2.97294
2.94512
2.90399
2.854
2.77093
2.65454
2.56225
2.49013
2.41208
2.33469
2.28179
2.25207
2.23511
2.23733
2.24218
2.23667
2.2287
2.2249
2.22928
2.24763
2.23875
2.19731
2.99815
2.99438
2.9873
2.97294
2.94512
2.904
2.854
2.77093
2.65453
2.56222
2.4901
2.41205
2.33467
2.28179
2.25207
2.23512
2.23735
2.2422
2.23668
2.22871
2.22491
2.22929
2.24765
2.23876
2.19731
2.99815
2.99438
2.9873
2.97294
2.94512
2.904
2.854
2.77094
2.65454
2.56221
2.49009
2.41207
2.33468
2.28178
2.25206
2.2351
2.23734
2.24219
2.23669
2.22871
2.2249
2.22928
2.24763
2.23875
2.19731
2.99815
2.99438
2.9873
2.97294
2.94512
2.904
2.854
2.77093
2.65453
2.56222
2.4901
2.41206
2.33467
2.28179
2.25207
2.23512
2.23736
2.2422
2.23668
2.22871
2.22491
2.2293
2.24765
2.23876
2.19731
2.99815
2.99438
2.9873
2.97294
2.94512
2.90399
2.854
2.77093
2.65453
2.56224
2.49012
2.41208
2.33469
2.2818
2.25207
2.23511
2.23733
2.24218
2.23667
2.2287
2.2249
2.22928
2.24763
2.23875
2.19732
2.99816
2.99438
2.9873
2.97295
2.94511
2.90399
2.85396
2.77081
2.65454
2.56249
2.49017
2.41161
2.3342
2.28156
2.25196
2.23511
2.23758
2.24245
2.23689
2.22884
2.22489
2.22912
2.24739
2.23859
2.19719
2.99815
2.99438
2.9873
2.97294
2.94512
2.90399
2.854
2.77092
2.65453
2.56226
2.49014
2.41208
2.33469
2.28181
2.25209
2.23512
2.23734
2.24218
2.23667
2.2287
2.2249
2.22928
2.24763
2.23875
2.19731
2.99815
2.99438
2.9873
2.97294
2.94512
2.904
2.854
2.77094
2.65453
2.56221
2.4901
2.41206
2.33468
2.28179
2.25207
2.23512
2.23735
2.2422
2.23669
2.22871
2.22492
2.2293
2.24765
2.23876
2.1973
2.99815
2.99438
2.9873
2.97294
2.94512
2.904
2.854
2.77094
2.65455
2.56223
2.49011
2.41207
2.33468
2.28179
2.25207
2.23511
2.23734
2.24219
2.23668
2.2287
2.2249
2.22928
2.24763
2.23875
2.19731
2.99815
2.99438
2.9873
2.97294
2.94512
2.904
2.854
2.77093
2.65454
2.56223
2.49011
2.41206
2.33467
2.28179
2.25207
2.23512
2.23735
2.24219
2.23668
2.22871
2.22491
2.2293
2.24765
2.23876
2.1973
2.99815
2.99438
2.9873
2.97294
2.94512
2.904
2.85401
2.77094
2.65454
2.56225
2.49012
2.41206
2.33467
2.28178
2.25206
2.2351
2.23733
2.24218
2.23667
2.2287
2.22491
2.2293
2.24765
2.23876
2.19731
2.99816
2.99438
2.9873
2.97295
2.94512
2.904
2.85397
2.77081
2.65454
2.56249
2.49016
2.4116
2.33419
2.28155
2.25196
2.23511
2.23758
2.24245
2.2369
2.22885
2.22489
2.22913
2.2474
2.23859
2.19719
2.99815
2.99438
2.9873
2.97295
2.94512
2.90399
2.854
2.77093
2.65451
2.56223
2.49012
2.41206
2.33468
2.2818
2.25208
2.23513
2.23735
2.2422
2.23668
2.22871
2.22492
2.22931
2.24766
2.23876
2.19731
2.99815
2.99438
2.98731
2.97295
2.94512
2.904
2.85401
2.77094
2.65452
2.56223
2.49011
2.41205
2.33467
2.28179
2.25208
2.23512
2.23736
2.2422
2.23668
2.22871
2.22493
2.22932
2.24768
2.23876
2.1973
2.99816
2.99438
2.9873
2.97295
2.94512
2.904
2.85397
2.77081
2.65453
2.56247
2.49014
2.41158
2.33418
2.28154
2.25195
2.23511
2.23759
2.24246
2.23691
2.22886
2.2249
2.22914
2.24741
2.2386
2.19719
2.99816
2.99438
2.98731
2.97295
2.94513
2.904
2.85401
2.77094
2.65451
2.56222
2.49009
2.41203
2.33465
2.28177
2.25206
2.23511
2.23735
2.24219
2.23668
2.22872
2.22493
2.22933
2.24769
2.23877
2.1973
2.99816
2.99438
2.98731
2.97295
2.94513
2.904
2.854
2.77092
2.65451
2.56225
2.49012
2.41205
2.33467
2.28181
2.25209
2.23514
2.23736
2.2422
2.23668
2.22871
2.22492
2.22932
2.24767
2.23876
2.1973
2.99816
2.99438
2.9873
2.97295
2.94512
2.904
2.85397
2.77079
2.65451
2.56248
2.49015
2.41157
2.33418
2.28156
2.25198
2.23514
2.23761
2.24246
2.2369
2.22885
2.22491
2.22916
2.24744
2.2386
2.19718
2.99816
2.99438
2.98731
2.97295
2.94513
2.904
2.85402
2.77096
2.65453
2.56225
2.49012
2.41203
2.33465
2.28177
2.25205
2.2351
2.23733
2.24218
2.23667
2.2287
2.22491
2.22931
2.24767
2.23876
2.1973
2.99816
2.99438
2.9873
2.97296
2.94512
2.90399
2.85396
2.77081
2.65452
2.56248
2.49012
2.41152
2.33417
2.28158
2.252
2.23515
2.23761
2.24245
2.23689
2.22884
2.22491
2.22916
2.24745
2.23861
2.19719
2.99816
2.99438
2.98731
2.97295
2.94513
2.904
2.85401
2.77093
2.65452
2.56225
2.49012
2.41204
2.33466
2.2818
2.25209
2.23514
2.23737
2.2422
2.23668
2.22871
2.22492
2.22932
2.24768
2.23876
2.1973
2.99814
2.99436
2.98729
2.97295
2.94513
2.90399
2.85398
2.77076
2.65445
2.56247
2.49012
2.41156
2.33397
2.28123
2.2514
2.23326
2.2343
2.22612
2.19026
2.11333
1.95098
1.56088
1.01901
0.663678
0.780394
2.99814
2.99436
2.98729
2.97295
2.94513
2.90399
2.85398
2.77078
2.65445
2.56249
2.49013
2.41153
2.33406
2.2813
2.25153
2.23397
2.23454
2.23374
2.20797
2.15274
2.03586
1.76962
1.29871
0.856135
0.941605
2.99814
2.99436
2.98729
2.97295
2.94513
2.90399
2.85398
2.7708
2.65447
2.56251
2.49015
2.41152
2.3341
2.28141
2.2517
2.23469
2.23552
2.24014
2.22341
2.18309
2.10495
1.93849
1.58308
1.12369
1.09524
2.99814
2.99436
2.98729
2.97295
2.94513
2.90399
2.85398
2.77079
2.65447
2.56249
2.49014
2.41153
2.33414
2.28151
2.25185
2.23491
2.23679
2.24095
2.23272
2.21196
2.16224
2.06806
1.86467
1.4725
1.26939
2.99813
2.99436
2.98729
2.97294
2.94513
2.90399
2.85402
2.77093
2.65448
2.56225
2.49011
2.41201
2.33463
2.28178
2.25205
2.23503
2.23721
2.24137
2.2358
2.22459
2.20482
2.15768
2.05037
1.82077
1.52263
2.99814
2.99436
2.98728
2.97294
2.94512
2.904
2.85398
2.77081
2.65451
2.56251
2.49016
2.41154
2.33415
2.28154
2.25195
2.2351
2.23749
2.24235
2.23624
2.22755
2.22132
2.20966
2.17144
2.04925
1.84123
2.99814
2.99436
2.98728
2.97294
2.94512
2.90399
2.85398
2.77081
2.65451
2.56252
2.49017
2.41156
2.33416