/*--------------------------------*- C++ -*----------------------------------*\
| =========                 |                                                 |
| \\      /  F ield         | OpenFOAM: The Open Source CFD Toolbox           |
|  \\    /   O peration     | Version:  4.1                                   |
|   \\  /    A nd           | Web:      www.OpenFOAM.org                      |
|    \\/     M anipulation  |                                                 |
\*---------------------------------------------------------------------------*/
FoamFile
{
    version     2.0;
    format      ascii;
    class       volScalarField;
    location    "0.04";
    object      Ma;
}
// * * * * * * * * * * * * * * * * * * * * * * * * * * * * * * * * * * * * * //

dimensions      [0 0 0 0 0 0 0];

internalField   nonuniform List<scalar> 
18000
(
5.94209e-12
5.87209e-12
5.79262e-12
5.72438e-12
5.65712e-12
5.59081e-12
5.52543e-12
5.46099e-12
5.39742e-12
5.33514e-12
7.50974e-12
7.23212e-12
6.95779e-12
6.70408e-12
6.46171e-12
6.23e-12
6.00846e-12
5.79649e-12
5.59366e-12
5.40062e-12
9.62096e-12
9.00298e-12
8.42549e-12
7.89878e-12
7.41204e-12
6.96166e-12
6.54456e-12
6.15781e-12
5.79891e-12
5.46715e-12
1.25126e-11
1.13399e-11
1.02934e-11
9.36674e-12
8.54062e-12
7.80233e-12
7.14103e-12
6.54751e-12
6.01362e-12
5.53481e-12
1.65473e-11
1.4468e-11
1.2696e-11
1.11845e-11
9.88805e-12
8.77146e-12
7.80595e-12
6.96808e-12
6.23833e-12
5.60363e-12
2.2295e-11
1.87224e-11
1.58233e-11
1.34545e-11
1.15061e-11
9.89275e-12
8.54869e-12
7.42247e-12
6.47354e-12
5.67359e-12
3.06772e-11
2.46111e-11
1.99462e-11
1.63151e-11
1.3461e-11
1.11953e-11
9.38022e-12
7.91389e-12
6.71984e-12
5.74472e-12
4.32301e-11
3.29228e-11
2.54592e-11
1.99556e-11
1.58384e-11
1.27144e-11
1.03133e-11
8.44598e-12
6.97787e-12
5.81706e-12
3.10926e-10
2.90661e-10
2.69765e-10
2.51955e-10
2.36503e-10
2.22918e-10
2.10854e-10
2.00053e-10
1.90319e-10
1.81665e-10
5.03749e-08
1.87885e-08
1.60586e-08
1.38687e-08
1.20818e-08
1.06046e-08
9.3692e-09
8.32553e-09
7.43463e-09
1.66446e-09
5.9669e-12
5.89462e-12
5.8162e-12
5.74657e-12
5.6781e-12
5.61076e-12
5.54445e-12
5.47929e-12
5.4151e-12
5.35218e-12
7.55202e-12
7.26787e-12
6.99698e-12
6.73883e-12
6.49263e-12
6.25765e-12
6.0334e-12
5.81922e-12
5.6146e-12
5.41886e-12
9.67825e-12
9.05089e-12
8.48065e-12
7.9466e-12
7.45371e-12
6.99823e-12
6.57692e-12
6.18667e-12
5.82491e-12
5.48735e-12
1.25964e-11
1.14125e-11
1.03756e-11
9.43638e-12
8.59997e-12
7.85324e-12
7.1851e-12
6.58598e-12
6.04743e-12
5.55801e-12
1.66752e-11
1.45847e-11
1.28211e-11
1.12876e-11
9.97376e-12
8.84324e-12
7.86664e-12
7.01984e-12
6.2828e-12
5.63084e-12
2.2497e-11
1.8915e-11
1.60156e-11
1.36082e-11
1.16302e-11
9.994e-12
8.63217e-12
7.492e-12
6.5319e-12
5.70593e-12
3.10048e-11
2.49339e-11
2.02437e-11
1.65444e-11
1.36403e-11
1.13373e-11
9.49412e-12
8.00642e-12
6.79559e-12
5.78342e-12
4.3776e-11
3.34678e-11
2.59214e-11
2.02976e-11
1.60962e-11
1.2912e-11
1.04672e-11
8.56758e-12
7.07498e-12
5.86336e-12
6.3932e-11
4.58704e-11
3.37067e-11
2.5192e-11
1.91655e-11
1.48144e-11
1.16163e-11
9.22765e-12
7.41686e-12
5.99025e-12
1.67426e-08
3.3176e-09
2.84603e-09
2.46918e-09
2.16322e-09
1.91136e-09
1.70149e-09
1.52475e-09
1.37452e-09
1.24855e-09
3.89852e-13
3.63899e-13
1.73897e-13
1.5245e-13
1.3215e-13
1.13093e-13
9.54161e-14
7.93282e-14
6.51886e-14
4.04221e-14
5.35677e-13
4.61628e-13
3.87455e-13
3.36414e-13
2.89969e-13
2.48214e-13
2.11394e-13
1.79977e-13
1.54373e-13
8.15897e-14
5.98648e-13
4.90017e-13
5.25305e-13
4.55597e-13
3.95514e-13
3.44524e-13
3.02101e-13
2.67795e-13
2.40471e-13
1.22048e-13
7.31433e-13
6.3541e-13
7.62324e-13
6.56962e-13
5.68764e-13
4.95498e-13
4.35052e-13
3.85678e-13
3.44792e-13
1.73097e-13
9.58626e-13
9.44512e-13
1.10949e-12
9.39966e-13
8.01532e-13
6.88606e-13
5.96361e-13
5.21013e-13
4.58126e-13
2.26961e-13
1.34203e-12
1.48515e-12
1.61085e-12
1.3303e-12
1.10788e-12
9.30823e-13
7.89011e-13
6.74832e-13
5.80752e-13
2.83635e-13
1.9782e-12
2.36202e-12
2.33439e-12
1.86618e-12
1.50843e-12
1.23263e-12
1.01781e-12
8.49022e-13
7.13251e-13
3.43177e-13
3.02839e-12
3.75676e-12
3.38505e-12
2.60342e-12
2.03191e-12
1.60802e-12
1.2891e-12
1.04608e-12
8.56375e-13
4.05709e-13
9.24611e-12
5.98269e-12
4.92513e-12
3.62216e-12
2.71664e-12
2.0744e-12
1.61002e-12
1.26852e-12
1.01081e-12
4.71298e-13
1.74686e-08
2.81961e-11
1.40805e-11
1.03981e-11
7.85524e-12
6.0503e-12
4.7395e-12
3.76824e-12
3.0344e-12
2.32268e-12
3.89056e-13
3.62885e-13
1.72602e-13
1.51073e-13
1.30674e-13
1.11505e-13
9.36491e-14
7.73262e-14
6.28637e-14
3.66996e-14
5.34835e-13
4.60616e-13
3.86754e-13
3.35672e-13
2.8917e-13
2.4737e-13
2.10495e-13
1.78981e-13
1.53266e-13
7.96219e-14
5.97272e-13
4.88596e-13
5.24582e-13
4.54836e-13
3.94748e-13
3.4374e-13
3.01281e-13
2.66963e-13
2.39602e-13
1.20437e-13
7.2916e-13
6.33635e-13
7.61669e-13
6.56309e-13
5.68099e-13
4.94839e-13
4.34388e-13
3.85003e-13
3.44109e-13
1.71796e-13
9.54749e-13
9.42563e-13
1.10903e-12
9.39544e-13
8.01118e-13
6.88206e-13
5.95959e-13
5.20593e-13
4.57716e-13
2.25909e-13
1.33539e-12
1.48338e-12
1.61097e-12
1.33046e-12
1.10804e-12
9.30969e-13
7.89101e-13
6.74877e-13
5.80773e-13
2.82926e-13
1.96685e-12
2.36108e-12
2.33587e-12
1.86764e-12
1.50977e-12
1.23379e-12
1.01881e-12
8.49865e-13
7.1397e-13
3.42954e-13
3.0084e-12
3.75807e-12
3.3894e-12
2.60744e-12
2.0354e-12
1.61099e-12
1.29158e-12
1.04814e-12
8.58125e-13
4.06213e-13
9.26347e-12
5.99045e-12
4.93574e-12
3.63124e-12
2.72412e-12
2.08049e-12
1.61496e-12
1.2725e-12
1.01401e-12
4.72745e-13
1.77517e-08
2.2928e-11
7.10623e-12
4.99843e-12
3.60759e-12
2.66099e-12
2.00105e-12
1.53109e-12
1.18697e-12
5.48678e-13
3.89143e-13
3.62652e-13
1.73067e-13
1.51456e-13
1.31004e-13
1.11779e-13
9.38948e-14
7.75338e-14
6.3007e-14
3.67954e-14
5.35481e-13
4.61045e-13
3.87761e-13
3.36521e-13
2.89888e-13
2.47974e-13
2.10987e-13
1.79389e-13
1.53564e-13
7.98194e-14
5.987e-13
4.90026e-13
5.2638e-13
4.56327e-13
3.95961e-13
3.4473e-13
3.02051e-13
2.67532e-13
2.39996e-13
1.20687e-13
7.3213e-13
6.3685e-13
7.6462e-13
6.58718e-13
5.7003e-13
4.96376e-13
4.35602e-13
3.85936e-13
3.44792e-13
1.72225e-13
9.60587e-13
9.4855e-13
1.11396e-12
9.43477e-13
8.04254e-13
6.90674e-13
5.97895e-13
5.22119e-13
4.58885e-13
2.2673e-13
1.34651e-12
1.49393e-12
1.61932e-12
1.33701e-12
1.11317e-12
9.34996e-13
7.92295e-13
6.774e-13
5.82756e-13
2.84324e-13
1.98769e-12
2.37971e-12
2.35023e-12
1.87858e-12
1.51821e-12
1.24035e-12
1.02394e-12
8.53895e-13
7.17174e-13
3.45244e-13
3.04758e-12
3.79134e-12
3.41416e-12
2.62578e-12
2.04918e-12
1.62149e-12
1.29967e-12
1.05445e-12
8.63072e-13
4.09686e-13
9.32975e-12
6.05064e-12
4.9786e-12
3.66184e-12
2.74639e-12
2.09699e-12
1.62739e-12
1.28201e-12
1.02137e-12
4.77798e-13
1.77475e-08
2.30443e-11
7.17664e-12
5.04693e-12
3.64186e-12
2.68577e-12
2.01931e-12
1.54477e-12
1.19741e-12
5.55773e-13
3.89229e-13
3.62333e-13
1.73669e-13
1.51957e-13
1.31411e-13
1.12134e-13
9.41893e-14
7.779e-14
6.32108e-14
3.69203e-14
5.36303e-13
4.61591e-13
3.8905e-13
3.37624e-13
2.90811e-13
2.48742e-13
2.11629e-13
1.79894e-13
1.53936e-13
8.00883e-14
6.00535e-13
4.91861e-13
5.28665e-13
4.5823e-13
3.97531e-13
3.45982e-13
3.03053e-13
2.68272e-13
2.40498e-13
1.21007e-13
7.35952e-13
6.40988e-13
7.68419e-13
6.61791e-13
5.72524e-13
4.9835e-13
4.37137e-13
3.8711e-13
3.45642e-13
1.72813e-13
9.68116e-13
9.56248e-13
1.12029e-12
9.48501e-13
8.0826e-13
6.93863e-13
6.00402e-13
5.24065e-13
4.60392e-13
2.278e-13
1.36082e-12
1.50754e-12
1.63006e-12
1.34537e-12
1.11973e-12
9.40178e-13
7.9638e-13
6.80623e-13
5.85312e-13
2.86136e-13
2.01453e-12
2.40368e-12
2.36864e-12
1.89263e-12
1.52904e-12
1.24878e-12
1.03053e-12
8.59087e-13
7.21281e-13
3.48151e-13
3.09801e-12
3.8342e-12
3.44597e-12
2.64935e-12
2.06689e-12
1.63496e-12
1.31004e-12
1.06253e-12
8.6942e-13
4.14117e-13
9.42004e-12
6.1282e-12
5.0337e-12
3.70114e-12
2.77499e-12
2.11818e-12
1.64331e-12
1.29418e-12
1.0308e-12
4.84262e-13
1.77466e-08
2.32021e-11
7.26826e-12
5.10986e-12
3.68623e-12
2.71779e-12
2.04291e-12
1.56251e-12
1.21095e-12
5.64941e-13
3.89321e-13
3.61952e-13
1.74394e-13
1.52571e-13
1.31937e-13
1.12573e-13
9.45652e-14
7.8092e-14
6.3443e-14
3.70801e-14
5.37309e-13
4.62255e-13
3.9062e-13
3.38934e-13
2.91946e-13
2.4971e-13
2.12423e-13
1.80518e-13
1.54364e-13
8.03951e-14
6.02773e-13
4.941e-13
5.31453e-13
4.60537e-13
3.99423e-13
3.47537e-13
3.04255e-13
2.69172e-13
2.41131e-13
1.21391e-13
7.40629e-13
6.46036e-13
7.73049e-13
6.65543e-13
5.75545e-13
5.00763e-13
4.3902e-13
3.88552e-13
3.46717e-13
1.7352e-13
9.77322e-13
9.65647e-13
1.12801e-12
9.5465e-13
8.13135e-13
6.97729e-13
6.03458e-13
5.26452e-13
4.62226e-13
2.29096e-13
1.3783e-12
1.52411e-12
1.64315e-12
1.35561e-12
1.12777e-12
9.46491e-13
8.01355e-13
6.8454e-13
5.88413e-13
2.88361e-13
2.04733e-12
2.43299e-12
2.39114e-12
1.9098e-12
1.54225e-12
1.25904e-12
1.03856e-12
8.65411e-13
7.26311e-13
3.51718e-13
3.1596e-12
3.88666e-12
3.48491e-12
2.67816e-12
2.08852e-12
1.65142e-12
1.32272e-12
1.07239e-12
8.77158e-13
4.19525e-13
9.53251e-12
6.22323e-12
5.10118e-12
3.74926e-12
2.80999e-12
2.14407e-12
1.6628e-12
1.30904e-12
1.04228e-12
4.92096e-13
1.7751e-08
2.3408e-11
7.38062e-12
5.18697e-12
3.74058e-12
2.75699e-12
2.0718e-12
1.58418e-12
1.22745e-12
5.76081e-13
3.89436e-13
3.61468e-13
1.7523e-13
1.53266e-13
1.32543e-13
1.131e-13
9.50165e-14
7.84867e-14
6.37987e-14
3.78704e-14
5.38482e-13
4.62984e-13
3.92427e-13
3.40474e-13
2.93253e-13
2.50834e-13
2.13357e-13
1.81297e-13
1.54971e-13
8.11215e-14
6.05399e-13
4.96639e-13
5.34665e-13
4.63207e-13
4.01626e-13
3.49349e-13
3.05713e-13
2.70266e-13
2.4194e-13
1.22195e-13
7.46124e-13
6.51773e-13
7.7836e-13
6.69869e-13
5.79043e-13
5.03584e-13
4.41266e-13
3.90273e-13
3.48043e-13
1.74703e-13
9.88112e-13
9.76362e-13
1.13685e-12
9.61714e-13
8.18779e-13
7.02218e-13
6.07049e-13
5.2932e-13
4.64482e-13
2.30922e-13
1.39876e-12
1.54306e-12
1.65813e-12
1.36735e-12
1.13702e-12
9.5383e-13
8.07218e-13
6.89244e-13
5.92152e-13
2.91267e-13
2.08554e-12
2.46641e-12
2.41686e-12
1.92952e-12
1.55749e-12
1.27094e-12
1.04799e-12
8.72933e-13
7.32295e-13
3.56157e-13
3.23112e-12
3.94635e-12
3.52942e-12
2.71126e-12
2.11347e-12
1.67048e-12
1.3375e-12
1.08404e-12
8.86417e-13
4.26121e-13
9.66005e-12
6.33142e-12
5.17839e-12
3.80454e-12
2.85036e-12
2.17408e-12
1.6855e-12
1.32654e-12
1.05597e-12
5.01556e-13
1.80093e-08
2.36101e-11
7.50907e-12
5.27545e-12
3.80323e-12
2.80239e-12
2.10539e-12
1.60961e-12
1.24706e-12
5.89431e-13
3.88861e-13
3.82672e-13
1.97565e-13
1.61288e-13
1.32623e-13
1.30759e-13
1.76211e-13
3.62187e-13
1.32022e-12
4.59959e-12
5.37576e-13
5.00162e-13
4.15028e-13
3.50533e-13
2.94337e-13
2.5726e-13
2.57837e-13
3.56366e-13
8.97051e-13
3.01982e-12
6.0437e-13
5.58406e-13
5.64321e-13
4.78481e-13
4.04981e-13
3.50523e-13
3.29997e-13
3.70569e-13
6.59828e-13
1.95844e-12
7.4424e-13
7.24925e-13
8.07736e-13
6.85254e-13
5.82534e-13
5.02365e-13
4.53044e-13
4.4763e-13
5.86841e-13
1.35912e-12
9.84023e-13
1.04066e-12
1.15847e-12
9.71715e-13
8.18898e-13
6.98057e-13
6.11335e-13
5.65263e-13
6.05724e-13
1.01499e-12
1.39082e-12
1.57883e-12
1.66262e-12
1.36523e-12
1.12913e-12
9.44332e-13
8.05539e-13
7.14857e-13
6.84233e-13
8.19993e-13
2.07257e-12
2.45413e-12
2.39216e-12
1.90689e-12
1.53599e-12
1.25282e-12
1.03976e-12
8.89341e-13
7.97591e-13
7.19342e-13
3.21317e-12
3.86232e-12
3.45995e-12
2.65791e-12
2.07174e-12
1.63972e-12
1.32128e-12
1.09233e-12
9.36469e-13
6.81887e-13
9.1774e-12
6.14408e-12
5.04436e-12
3.70808e-12
2.78074e-12
2.12613e-12
1.65912e-12
1.32692e-12
1.09813e-12
6.87438e-13
1.65648e-08
2.11023e-11
7.27759e-12
5.11748e-12
3.695e-12
2.73121e-12
2.06564e-12
1.60131e-12
1.28064e-12
7.27993e-13
2.54876e-12
2.41528e-12
1.55225e-12
1.65943e-13
2.58556e-12
8.07543e-12
2.14386e-11
6.34371e-11
2.53673e-10
1.30602e-09
3.5869e-12
3.49174e-12
2.6033e-12
1.20833e-12
1.29632e-12
5.97926e-12
1.6604e-11
4.66682e-11
1.63156e-10
7.20739e-10
4.85193e-12
4.76014e-12
3.79167e-12
2.38381e-12
3.59007e-13
3.99887e-12
1.25282e-11
3.46416e-11
1.10412e-10
4.30643e-10
6.50297e-12
6.34146e-12
5.20083e-12
3.69792e-12
1.53654e-12
2.23653e-12
9.25817e-12
2.60539e-11
7.78244e-11
2.73513e-10
8.6949e-12
8.3454e-12
6.90112e-12
5.19172e-12
2.96156e-12
8.12095e-13
6.55336e-12
1.96815e-11
5.64924e-11
1.8223e-10
1.16606e-11
1.09293e-11
8.98912e-12
6.923e-12
4.50267e-12
1.39123e-12
4.2723e-12
1.47915e-11
4.18711e-11
1.26128e-10
1.57564e-11
1.43227e-11
1.15967e-11
8.96656e-12
6.19953e-12
2.92501e-12
2.36625e-12
1.09717e-11
3.14832e-11
9.00086e-11
2.15445e-11
1.88664e-11
1.49085e-11
1.14201e-11
8.1037e-12
4.56567e-12
1.25757e-12
7.90678e-12
2.38707e-11
6.58259e-11
3.02413e-11
2.50823e-11
1.91872e-11
1.44125e-11
1.02797e-11
6.30337e-12
2.07946e-12
5.41255e-12
1.81367e-11
4.90855e-11
5.21062e-08
3.63656e-11
2.47812e-11
1.80956e-11
1.27913e-11
8.16235e-12
3.58951e-12
3.42036e-12
1.37214e-11
3.71134e-11
3.48216e-12
3.1307e-12
2.0746e-12
1.90828e-12
8.1622e-12
2.65855e-11
8.97389e-11
4.01726e-10
2.55729e-09
3.48641e-09
4.6241e-12
4.30745e-12
3.29505e-12
1.70517e-12
5.11496e-12
1.87805e-11
6.21384e-11
2.46995e-10
1.31618e-09
1.7053e-09
6.0183e-12
5.67497e-12
4.67124e-12
2.89541e-12
2.76431e-12
1.2776e-11
4.33537e-11
1.59701e-10
7.41008e-10
9.27078e-10
7.80988e-12
7.33607e-12
6.23895e-12
4.46928e-12
2.00646e-12
8.20617e-12
3.03889e-11
1.07251e-10
4.46219e-10
5.44411e-10
1.01707e-11
9.4073e-12
8.07277e-12
6.2191e-12
3.32142e-12
4.70734e-12
2.1107e-11
7.39146e-11
2.8295e-10
3.38864e-10
1.3357e-11
1.20532e-11
1.02776e-11
8.17456e-12
5.2143e-12
2.49314e-12
1.42352e-11
5.17404e-11
1.86765e-10
2.20645e-10
1.77619e-11
1.55117e-11
1.29965e-11
1.04169e-11
7.27498e-12
2.94538e-12
9.04152e-12
3.64401e-11
1.27127e-10
1.48808e-10
2.40085e-11
2.01356e-11
1.64268e-11
1.3057e-11
9.50516e-12
4.94135e-12
5.10614e-12
2.55379e-11
8.85581e-11
1.0315e-10
3.40204e-11
2.64595e-11
2.08469e-11
1.62408e-11
1.19767e-11
7.18517e-12
2.69622e-12
1.75362e-11
6.26923e-11
7.3024e-11
8.37256e-09
4.88394e-10
2.6631e-11
2.01411e-11
1.47707e-11
9.51082e-12
3.27573e-12
1.15157e-11
4.47601e-11
5.23874e-11
9.97726e-13
1.25342e-12
1.53632e-12
3.26845e-12
8.75313e-12
2.61855e-11
8.97071e-11
3.77349e-10
8.52732e-10
1.00754e-09
1.07001e-12
1.24212e-12
1.38613e-12
2.45749e-12
6.17714e-12
1.80558e-11
5.90856e-11
2.27206e-10
4.48786e-10
4.98335e-10
1.1443e-12
1.2676e-12
1.35942e-12
1.97201e-12
4.39781e-12
1.25537e-11
3.98048e-11
1.42877e-10
2.53843e-10
2.71396e-10
1.21716e-12
1.3176e-12
1.40819e-12
1.75679e-12
3.22993e-12
8.80024e-12
2.72894e-11
9.2976e-11
1.51411e-10
1.60493e-10
1.29086e-12
1.38107e-12
1.48938e-12
1.71524e-12
2.5283e-12
6.23391e-12
1.89664e-11
6.21875e-11
9.40583e-11
1.01574e-10
1.36744e-12
1.45268e-12
1.58085e-12
1.76243e-12
2.17795e-12
4.50258e-12
1.33226e-11
4.25371e-11
6.02976e-11
6.80576e-11
1.44965e-12
1.53057e-12
1.67411e-12
1.84583e-12
2.06172e-12
3.38593e-12
9.44082e-12
2.95968e-11
3.96025e-11
4.7863e-11
1.5408e-12
1.61534e-12
1.76716e-12
1.9398e-12
2.0732e-12
2.73461e-12
6.76683e-12
2.08804e-11
2.64908e-11
3.50829e-11
2.00869e-11
1.71128e-12
1.86105e-12
2.03477e-12
2.14118e-12
2.41991e-12
4.94317e-12
1.48989e-11
1.79675e-11
2.66461e-11
1.49754e-08
4.24543e-10
1.95817e-12
2.12553e-12
2.22435e-12
2.31108e-12
3.73024e-12
1.07216e-11
1.22429e-11
2.07896e-11
7.994e-13
1.51555e-12
1.61156e-12
2.52173e-12
4.1564e-12
7.31834e-12
1.51839e-11
4.8307e-11
3.47954e-10
1.01458e-09
7.33704e-13
1.36159e-12
1.39883e-12
2.15579e-12
3.49318e-12
5.99044e-12
1.15718e-11
3.13299e-11
2.03857e-10
5.42329e-10
6.7069e-13
1.21781e-12
1.20515e-12
1.83318e-12
2.92872e-12
4.92037e-12
9.04097e-12
2.14625e-11
1.24758e-10
3.12133e-10
6.16708e-13
1.09561e-12
1.04405e-12
1.56843e-12
2.47287e-12
4.08468e-12
7.2364e-12
1.54928e-11
7.93061e-11
1.90142e-10
5.70531e-13
9.91376e-13
9.09744e-13
1.34981e-12
2.10226e-12
3.42267e-12
5.89919e-12
1.16852e-11
5.20486e-11
1.21113e-10
5.30768e-13
9.01978e-13
7.97111e-13
1.16856e-12
1.7989e-12
2.89028e-12
4.87716e-12
9.12537e-12
3.5106e-11
7.99819e-11
4.96369e-13
8.24768e-13
7.02182e-13
1.01704e-12
1.54782e-12
2.45743e-12
4.07792e-12
7.31598e-12
2.4249e-11
5.44243e-11
4.66478e-13
7.57687e-13
6.21761e-13
8.89587e-13
1.33907e-12
2.1027e-12
3.44029e-12
5.98391e-12
1.71055e-11
3.79818e-11
3.61407e-11
7.08053e-13
5.53275e-13
7.82015e-13
1.1645e-12
1.80956e-12
2.92427e-12
4.96936e-12
1.22965e-11
2.70876e-11
1.44999e-08
1.50361e-09
8.41478e-13
6.8513e-13
1.01406e-12
1.55996e-12
2.49361e-12
4.16166e-12
8.97382e-12
1.9661e-11
1.07656e-12
1.87046e-12
1.61042e-12
2.17844e-12
3.0389e-12
4.41351e-12
7.09713e-12
1.43849e-11
5.9262e-11
1.05092e-10
1.00292e-12
1.71524e-12
1.44401e-12
1.94014e-12
2.68533e-12
3.83773e-12
5.88103e-12
1.07912e-11
4.11685e-11
7.16759e-11
9.31089e-13
1.56603e-12
1.28346e-12
1.71402e-12
2.35807e-12
3.33478e-12
4.95148e-12
8.38635e-12
2.88458e-11
5.00827e-11
8.68628e-13
1.43619e-12
1.14527e-12
1.51958e-12
2.07876e-12
2.91678e-12
4.24261e-12
6.76621e-12
2.05001e-11
3.57753e-11
8.14366e-13
1.32288e-12
1.02645e-12
1.35258e-12
1.84003e-12
2.56548e-12
3.68088e-12
5.62722e-12
1.47538e-11
2.60148e-11
7.66986e-13
1.22355e-12
9.23848e-13
1.20861e-12
1.63447e-12
2.26648e-12
3.22172e-12
4.78655e-12
1.07388e-11
1.91985e-11
7.25379e-13
1.13599e-12
8.34987e-13
1.08397e-12
1.45698e-12
2.01013e-12
2.83747e-12
4.1369e-12
7.89553e-12
1.43452e-11
6.88742e-13
1.0585e-12
7.57747e-13
9.75719e-13
1.30308e-12
1.78867e-12
2.5109e-12
3.61535e-12
5.85889e-12
1.08327e-11
5.52911e-11
1.00575e-12
6.90376e-13
8.81495e-13
1.16929e-12
1.59659e-12
2.2309e-12
3.18434e-12
4.3859e-12
8.25473e-12
1.75676e-08
2.67054e-09
1.50183e-12
7.91361e-13
1.04949e-12
1.42513e-12
1.98255e-12
2.81141e-12
3.29569e-12
6.32472e-12
1.5032e-12
2.37443e-12
1.61961e-12
1.90814e-12
2.29033e-12
2.83591e-12
3.81972e-12
6.06101e-12
1.73615e-11
2.33067e-11
1.42172e-12
2.22163e-12
1.50355e-12
1.77354e-12
2.12823e-12
2.6086e-12
3.37683e-12
4.96307e-12
1.3189e-11
1.81625e-11
1.34101e-12
2.07007e-12
1.38133e-12
1.63091e-12
1.95865e-12
2.39016e-12
3.02143e-12
4.1815e-12
9.93456e-12
1.41078e-11
1.26959e-12
1.93454e-12
1.271e-12
1.50065e-12
1.80337e-12
2.19725e-12
2.7409e-12
3.63354e-12
7.50588e-12
1.1017e-11
1.20639e-12
1.81319e-12
1.17208e-12
1.38264e-12
1.66207e-12
2.02448e-12
2.50838e-12
3.23319e-12
5.6825e-12
8.64128e-12
1.15027e-12
1.70419e-12
1.08339e-12
1.27593e-12
1.53323e-12
1.86786e-12
2.30713e-12
2.92417e-12
4.30554e-12
6.80117e-12
1.10025e-12
1.60608e-12
1.00383e-12
1.17939e-12
1.41582e-12
1.72499e-12
2.12864e-12
2.6722e-12
3.2613e-12
5.36568e-12
1.05554e-12
1.51744e-12
9.32437e-13
1.09214e-12
1.30896e-12
1.59439e-12
1.96726e-12
2.45775e-12
2.46689e-12
4.23921e-12
7.67175e-11
1.46109e-12
8.683e-13
1.01334e-12
1.21178e-12
1.47502e-12
1.82023e-12
2.26926e-12
1.86234e-12
3.35004e-12
1.2809e-08
3.72748e-09
2.77241e-12
9.33543e-13
1.12055e-12
1.36208e-12
1.68053e-12
2.09328e-12
1.39024e-12
2.63791e-12
2.13894e-12
3.02794e-12
1.5683e-12
1.60856e-12
1.67011e-12
1.80023e-12
2.15036e-12
2.99493e-12
6.96769e-12
8.31391e-12
2.05182e-12
2.88728e-12
1.5103e-12
1.56551e-12
1.63677e-12
1.74765e-12
1.99374e-12
2.5843e-12
5.64062e-12
6.96965e-12
1.96466e-12
2.74299e-12
1.43581e-12
1.50209e-12
1.58277e-12
1.68794e-12
1.87465e-12
2.28902e-12
4.45564e-12
5.73682e-12
1.88592e-12
2.6099e-12
1.36288e-12
1.43643e-12
1.52468e-12
1.63059e-12
1.78704e-12
2.0893e-12
3.50257e-12
4.72136e-12
1.81483e-12
2.48737e-12
1.29304e-12
1.37105e-12
1.46485e-12
1.57383e-12
1.71652e-12
1.95178e-12
2.73471e-12
3.88223e-12
1.75051e-12
2.37454e-12
1.22683e-12
1.30693e-12
1.40417e-12
1.5165e-12
1.65419e-12
1.85116e-12
2.11497e-12
3.18659e-12
1.69225e-12
2.27057e-12
1.16443e-12
1.24488e-12
1.34372e-12
1.4585e-12
1.59505e-12
1.77143e-12
1.61384e-12
2.60874e-12
1.63933e-12
2.17468e-12
1.10596e-12
1.18544e-12
1.28428e-12
1.40026e-12
1.53691e-12
1.70292e-12
1.20894e-12
2.12796e-12
1.00116e-10
2.11693e-12
1.05131e-12
1.12892e-12
1.22653e-12
1.34251e-12
1.47931e-12
1.64032e-12
8.83279e-13
1.72799e-12
1.17295e-09
4.36085e-09
4.16776e-12
1.06678e-12
1.16815e-12
1.28238e-12
1.41796e-12
1.57542e-12
6.10363e-13
1.39306e-12
3.02577e-12
3.78331e-12
1.38297e-12
1.21598e-12
1.06962e-12
1.00301e-12
1.13795e-12
1.55775e-12
3.48935e-12
3.83396e-12
2.93799e-12
3.66977e-12
1.38627e-12
1.2508e-12
1.12315e-12
1.03659e-12
1.08072e-12
1.35985e-12
2.99452e-12
3.41758e-12
2.84995e-12
3.54911e-12
1.3666e-12
1.25992e-12
1.1542e-12
1.06689e-12
1.05774e-12
1.22279e-12
2.46914e-12
2.94668e-12
2.76859e-12
3.43371e-12
1.33947e-12
1.25697e-12
1.1723e-12
1.09339e-12
1.05849e-12
1.14243e-12
2.01869e-12
2.53576e-12
2.69361e-12
3.32409e-12
1.30795e-12
1.24584e-12
1.18043e-12
1.11413e-12
1.07076e-12
1.10317e-12
1.63293e-12
2.17727e-12
2.62449e-12
3.22028e-12
1.27364e-12
1.22857e-12
1.1803e-12
1.12795e-12
1.08603e-12
1.0894e-12
1.30228e-12
1.86482e-12
2.56077e-12
3.12224e-12
1.23782e-12
1.20693e-12
1.1735e-12
1.13489e-12
1.09976e-12
1.08947e-12
1.01918e-12
1.59294e-12
2.50199e-12
3.02977e-12
1.20141e-12
1.18225e-12
1.16149e-12
1.13566e-12
1.10966e-12
1.09566e-12
7.77241e-13
1.3573e-12
1.24457e-10
2.97865e-12
1.16503e-12
1.15562e-12
1.14561e-12
1.13128e-12
1.11515e-12
1.10346e-12
5.72001e-13
1.15441e-12
1.19299e-08
4.22374e-09
4.669e-12
1.12035e-12
1.12444e-12
1.11984e-12
1.113e-12
1.10622e-12
3.92478e-13
9.83805e-13
4.1217e-12
4.52821e-12
1.05632e-12
7.60201e-13
4.95081e-13
3.48307e-13
4.86751e-13
7.97843e-13
2.10347e-12
2.1239e-12
4.03958e-12
4.45643e-12
1.103e-12
8.43039e-13
6.00813e-13
4.18582e-13
4.30318e-13
6.59913e-13
1.93495e-12
2.01836e-12
3.95829e-12
4.3772e-12
1.12717e-12
9.01604e-13
6.85061e-13
4.98748e-13
4.26864e-13
5.58562e-13
1.68658e-12
1.82272e-12
3.88143e-12
4.29737e-12
1.13979e-12
9.44432e-13
7.5212e-13
5.73652e-13
4.59313e-13
5.00031e-13
1.46458e-12
1.64529e-12
3.80905e-12
4.21834e-12
1.14423e-12
9.75578e-13
8.06074e-13
6.40698e-13
5.09944e-13
4.82459e-13
1.26727e-12
1.48483e-12
3.74121e-12
4.14083e-12
1.14223e-12
9.97343e-13
8.4892e-13
6.98686e-13
5.65618e-13
4.95823e-13
1.09308e-12
1.34046e-12
3.67755e-12
4.06536e-12
1.13534e-12
1.01146e-12
8.82339e-13
7.47773e-13
6.19792e-13
5.27924e-13
9.40807e-13
1.21129e-12
3.61794e-12
3.99232e-12
1.1247e-12
1.01944e-12
9.07914e-13
7.88697e-13
6.69534e-13
5.68954e-13
8.09727e-13
1.09667e-12
1.47258e-10
3.96203e-12
1.11123e-12
1.02255e-12
9.27069e-13
8.22517e-13
7.13906e-13
6.12831e-13
6.99813e-13
9.96155e-13
2.60765e-08
3.18542e-09
4.36856e-12
1.0172e-12
9.38958e-13
8.48114e-13
7.5065e-13
6.53431e-13
6.10114e-13
9.14968e-13
5.21652e-12
5.11271e-12
7.62897e-13
4.99111e-13
2.7182e-13
1.5417e-13
2.68533e-13
4.48771e-13
1.50935e-12
1.3783e-12
5.14398e-12
5.08672e-12
7.82766e-13
5.36634e-13
3.10276e-13
1.24675e-13
1.65248e-13
3.44956e-13
1.5007e-12
1.40376e-12
5.07443e-12
5.05627e-12
7.96838e-13
5.72785e-13
3.60035e-13
1.61587e-13
7.77143e-14
2.47914e-13
1.39287e-12
1.32888e-12
5.00734e-12
5.02114e-12
8.08509e-13
6.06078e-13
4.09772e-13
2.19321e-13
4.46091e-14
1.59912e-13
1.29414e-12
1.25931e-12
4.94315e-12
4.98301e-12
8.18026e-13
6.36294e-13
4.57053e-13
2.79838e-13
1.07178e-13
8.71926e-14
1.20432e-12
1.19494e-12
4.88193e-12
4.94295e-12
8.25033e-13
6.62686e-13
5.00045e-13
3.36769e-13
1.75394e-13
6.11581e-14
1.12307e-12
1.13568e-12
4.82368e-12
4.9018e-12
8.29482e-13
6.85088e-13
5.38289e-13
3.88632e-13
2.3851e-13
1.04154e-13
1.05019e-12
1.0814e-12
4.76839e-12
4.86018e-12
8.31472e-13
7.03667e-13
5.71756e-13
4.35134e-13
2.95899e-13
1.62413e-13
9.85364e-13
1.03205e-12
1.65337e-10
4.86192e-12
8.31357e-13
7.18868e-13
6.00916e-13
4.76708e-13
3.48102e-13
2.19919e-13
9.2846e-13
9.87459e-13
3.88122e-08
1.7385e-09
2.93602e-12
7.296e-13
6.25375e-13
5.13285e-13
3.95326e-13
2.74661e-13
8.79735e-13
9.55907e-13
5.93681e-12
5.41681e-12
7.27674e-13
6.1076e-13
5.11285e-13
4.42382e-13
4.00491e-13
3.83686e-13
1.26315e-12
1.06315e-12
5.87127e-12
5.42193e-12
6.53175e-13
5.50038e-13
4.58993e-13
3.94552e-13
3.55222e-13
3.41337e-13
1.3291e-12
1.14533e-12
5.81093e-12
5.42646e-12
5.86408e-13
4.95391e-13
4.11675e-13
3.50379e-13
3.12183e-13
2.99174e-13
1.28647e-12
1.12195e-12
5.75211e-12
5.42457e-12
5.30651e-13
4.49512e-13
3.71709e-13
3.12436e-13
2.73867e-13
2.60296e-13
1.2459e-12
1.09944e-12
5.69527e-12
5.41789e-12
4.85593e-13
4.1259e-13
3.39682e-13
2.81406e-13
2.41052e-13
2.25128e-13
1.20732e-12
1.07789e-12
5.64061e-12
5.40755e-12
4.49641e-13
3.83525e-13
3.14913e-13
2.5712e-13
2.14059e-13
1.94075e-13
1.17065e-12
1.0572e-12
5.5881e-12
5.39434e-12
4.2121e-13
3.61153e-13
2.96659e-13
2.39482e-13
1.934e-13
1.67658e-13
1.13577e-12
1.03742e-12
5.53795e-12
5.379e-12
3.99073e-13
3.44453e-13
2.84124e-13
2.27948e-13
1.791e-13
1.46752e-13
1.1027e-12
1.01842e-12
1.75361e-10
5.40696e-12
3.82176e-13
3.32615e-13
2.76568e-13
2.22136e-13
1.71611e-13
1.32565e-13
1.07122e-12
1.00023e-12
4.66292e-08
1.12603e-09
1.85757e-12
3.24801e-13
2.7468e-13
2.24066e-13
1.75147e-13
1.33786e-13
1.04254e-12
1.0021e-12
5.94388e-12
5.38722e-12
7.40946e-13
6.36923e-13
5.40815e-13
4.66796e-13
4.12072e-13
3.76849e-13
1.19217e-12
1.01451e-12
5.8781e-12
5.39458e-12
6.52735e-13
5.6711e-13
4.84482e-13
4.19882e-13
3.71919e-13
3.42322e-13
1.26816e-12
1.10047e-12
5.81797e-12
5.40195e-12
5.72819e-13
5.02694e-13
4.31366e-13
3.7459e-13
3.31936e-13
3.06015e-13
1.23367e-12
1.08081e-12
5.75945e-12
5.40287e-12
5.03923e-13
4.4618e-13
3.84146e-13
3.33695e-13
2.95247e-13
2.7222e-13
1.20069e-12
1.06197e-12
5.703e-12
5.39894e-12
4.46185e-13
3.98081e-13
3.43448e-13
2.97837e-13
2.62306e-13
2.40998e-13
1.16903e-12
1.04393e-12
5.64873e-12
5.39126e-12
3.98321e-13
3.57704e-13
3.0895e-13
2.6697e-13
2.33223e-13
2.12522e-13
1.13875e-12
1.02672e-12
5.59664e-12
5.38058e-12
3.59248e-13
3.24328e-13
2.80328e-13
2.41055e-13
2.08212e-13
1.87084e-13
1.10971e-12
1.01028e-12
5.54689e-12
5.3677e-12
3.28005e-13
2.97451e-13
2.57299e-13
2.20056e-13
1.87446e-13
1.6499e-13
1.08191e-12
9.94546e-13
1.75362e-10
5.39801e-12
3.03907e-13
2.7662e-13
2.39752e-13
2.04234e-13
1.71555e-13
1.46916e-13
1.05529e-12
9.79553e-13
4.66292e-08
1.12603e-09
1.81967e-12
2.61311e-13
2.29325e-13
1.96906e-13
1.6604e-13
1.41339e-13
1.03096e-12
9.93474e-13
5.2282e-12
5.0326e-12
7.35173e-13
5.15792e-13
3.32904e-13
2.29175e-13
2.63615e-13
3.8524e-13
1.26482e-12
1.2181e-12
5.15722e-12
5.01506e-12
7.29902e-13
5.22225e-13
3.35645e-13
1.95165e-13
1.83416e-13
2.99509e-13
1.29031e-12
1.25602e-12
5.08971e-12
4.99367e-12
7.28061e-13
5.36542e-13
3.56314e-13
1.97666e-13
1.19347e-13
2.15153e-13
1.21161e-12
1.19414e-12
5.0246e-12
4.96716e-12
7.29247e-13
5.54335e-13
3.84787e-13
2.24126e-13
9.03363e-14
1.36363e-13
1.13963e-12
1.1371e-12
4.96227e-12
4.93719e-12
7.32474e-13
5.73995e-13
4.17118e-13
2.63146e-13
1.13898e-13
6.5257e-14
1.07433e-12
1.08486e-12
4.90269e-12
4.90474e-12
7.36253e-13
5.93554e-13
4.4986e-13
3.05769e-13
1.61109e-13
2.64746e-14
1.01558e-12
1.03736e-12
4.846e-12
4.87069e-12
7.39637e-13
6.11802e-13
4.8112e-13
3.47821e-13
2.1204e-13
7.58815e-14
9.63137e-13
9.94445e-13
4.79213e-12
4.83561e-12
7.42139e-13
6.28218e-13
5.10017e-13
3.87525e-13
2.61231e-13
1.32746e-13
9.16791e-13
9.56011e-13
1.65339e-10
4.8437e-12
7.43596e-13
6.42622e-13
5.36315e-13
4.2439e-13
3.07454e-13
1.86794e-13
8.76481e-13
9.22063e-13
3.88122e-08
1.7385e-09
2.87559e-12
6.53713e-13
5.59203e-13
4.57819e-13
3.50601e-13
2.38651e-13
8.42671e-13
9.11079e-13
4.12953e-12
4.42622e-12
9.37116e-13
6.54393e-13
3.94176e-13
2.16313e-13
3.34181e-13
6.10192e-13
1.56241e-12
1.78029e-12
4.05343e-12
4.37081e-12
9.84363e-13
7.33474e-13
4.98209e-13
3.05225e-13
2.92401e-13
4.9887e-13
1.47268e-12
1.70807e-12
3.97755e-12
4.30675e-12
1.01389e-12
7.94133e-13
5.84037e-13
3.96341e-13
3.05121e-13
4.15531e-13
1.2931e-12
1.54521e-12
3.90508e-12
4.24051e-12
1.03318e-12
8.40815e-13
6.53417e-13
4.76905e-13
3.51673e-13
3.71665e-13
1.13188e-12
1.39785e-12
3.83647e-12
4.1736e-12
1.04492e-12
8.7707e-13
7.10582e-13
5.47876e-13
4.12219e-13
3.67591e-13
9.88688e-13
1.26522e-12
3.77166e-12
4.1069e-12
1.05042e-12
9.04495e-13
7.57344e-13
6.09308e-13
4.74448e-13
3.92622e-13
8.62929e-13
1.1467e-12
3.71051e-12
4.04101e-12
1.05092e-12
9.24631e-13
7.95232e-13
6.61811e-13
5.33199e-13
4.33758e-13
7.54341e-13
1.04172e-12
3.65295e-12
3.97649e-12
1.04731e-12
9.38672e-13
8.25613e-13
7.06372e-13
5.86687e-13
4.81345e-13
6.62993e-13
9.49852e-13
1.47262e-10
3.95414e-12
1.04053e-12
9.47786e-13
8.49675e-13
7.4403e-13
6.34481e-13
5.30041e-13
5.8934e-13
8.70898e-13
2.60765e-08
3.18543e-09
4.32518e-12
9.48454e-13
8.66527e-13
7.73637e-13
6.74662e-13
5.74791e-13
5.32934e-13
8.14173e-13
3.03486e-12
3.69293e-12
1.22528e-12
1.03803e-12
8.77997e-13
7.88821e-13
8.66044e-13
1.1713e-12
2.3034e-12
3.0645e-12
2.95657e-12
3.60199e-12
1.24954e-12
1.09187e-12
9.49249e-13
8.45948e-13
8.51144e-13
1.04644e-12
2.01366e-12
2.75363e-12
2.87583e-12
3.50012e-12
1.24954e-12
1.11991e-12
9.97915e-13
8.9582e-13
8.59173e-13
9.63012e-13
1.66233e-12
2.37494e-12
2.8e-12
3.40048e-12
1.23977e-12
1.13421e-12
1.03201e-12
9.38508e-13
8.82616e-13
9.22347e-13
1.35599e-12
2.04345e-12
2.72921e-12
3.30404e-12
1.22349e-12
1.13878e-12
1.05501e-12
9.73548e-13
9.12512e-13
9.12216e-13
1.09007e-12
1.75374e-12
2.66326e-12
3.21136e-12
1.20256e-12
1.13574e-12
1.0687e-12
1.00046e-12
9.42284e-13
9.20165e-13
8.59311e-13
1.50105e-12
2.60187e-12
3.12259e-12
1.17839e-12
1.1269e-12
1.07474e-12
1.01967e-12
9.68482e-13
9.37074e-13
6.59404e-13
1.28164e-12
2.54475e-12
3.0379e-12
1.15209e-12
1.11366e-12
1.07461e-12
1.03198e-12
9.89763e-13
9.56966e-13
4.87099e-13
1.09223e-12
1.24461e-10
2.99355e-12
1.12444e-12
1.09724e-12
1.0696e-12
1.03845e-12
1.00595e-12
9.76503e-13
3.41399e-13
9.30624e-13
1.19299e-08
4.22374e-09
4.6429e-12
1.07127e-12
1.05835e-12
1.03723e-12
1.01392e-12
9.8997e-13
2.12572e-13
7.98201e-13
2.15955e-12
2.97048e-12
1.41294e-12
1.38939e-12
1.39135e-12
1.44793e-12
1.64949e-12
2.15746e-12
4.01114e-12
6.23934e-12
2.08183e-12
2.8544e-12
1.38807e-12
1.3841e-12
1.39883e-12
1.44723e-12
1.5873e-12
1.94286e-12
3.32447e-12
5.28256e-12
2.00077e-12
2.72856e-12
1.34094e-12
1.35326e-12
1.38091e-12
1.43028e-12
1.53635e-12
1.78529e-12
2.64802e-12
4.35881e-12
1.92619e-12
2.60994e-12
1.29043e-12
1.31526e-12
1.35404e-12
1.40858e-12
1.49949e-12
1.68224e-12
2.09313e-12
3.59206e-12
1.85793e-12
2.49876e-12
1.239e-12
1.27335e-12
1.32138e-12
1.38252e-12
1.46889e-12
1.61367e-12
1.63917e-12
2.95446e-12
1.79533e-12
2.39474e-12
1.18786e-12