/*--------------------------------*- C++ -*----------------------------------*\
| =========                 |                                                 |
| \\      /  F ield         | OpenFOAM: The Open Source CFD Toolbox           |
|  \\    /   O peration     | Version:  4.1                                   |
|   \\  /    A nd           | Web:      www.OpenFOAM.org                      |
|    \\/     M anipulation  |                                                 |
\*---------------------------------------------------------------------------*/
FoamFile
{
    version     2.0;
    format      ascii;
    class       surfaceScalarField;
    location    "0.04";
    object      phi;
}
// * * * * * * * * * * * * * * * * * * * * * * * * * * * * * * * * * * * * * //

dimensions      [1 0 -1 0 0 0 0];

internalField   nonuniform List<scalar> 
51500
(
3.72146e-13
8.40937e-15
1.59913e-11
-2.35563e-15
1.57816e-14
1.58026e-11
-1.82438e-15
1.54004e-14
1.56168e-11
-1.82129e-15
1.47587e-14
1.5433e-11
-1.79927e-15
1.39977e-14
1.52519e-11
-1.78413e-15
1.31595e-14
1.50732e-11
-1.77434e-15
1.22654e-14
1.48971e-11
-1.74995e-15
1.1331e-14
1.47234e-11
-1.71902e-15
1.03582e-14
1.45521e-11
9.35664e-15
1.43842e-11
-7.89299e-17
3.79488e-13
5.42628e-15
2.02217e-11
-8.70278e-15
8.63981e-15
1.94731e-11
-7.13386e-15
7.43268e-15
1.87589e-11
-6.96145e-15
6.28423e-15
1.8075e-11
-6.77476e-15
5.20466e-15
1.74217e-11
-6.59679e-15
4.18744e-15
1.6797e-11
-6.42822e-15
3.2279e-15
1.61998e-11
-6.26604e-15
2.32312e-15
1.56283e-11
-5.93567e-15
1.46695e-15
1.50815e-11
6.60286e-16
1.45609e-11
-6.93456e-16
3.85824e-13
6.64152e-15
2.59178e-11
-1.69166e-14
8.44722e-15
2.42523e-11
-1.43481e-14
6.92498e-15
2.27174e-11
-1.3661e-14
5.63114e-15
2.12973e-11
-1.29921e-14
4.50009e-15
1.9985e-11
-1.23683e-14
3.49148e-15
1.87707e-11
-1.18063e-14
2.58095e-15
1.76461e-11
-1.12835e-14
1.75399e-15
1.66033e-11
-1.03832e-14
1.00892e-15
1.56355e-11
3.63059e-16
1.47407e-11
-1.37087e-15
3.90201e-13
8.25007e-15
3.37186e-11
-2.7573e-14
1.03289e-14
3.05584e-11
-2.39442e-14
8.15009e-15
2.77553e-11
-2.22107e-14
6.41636e-15
2.52569e-11
-2.06029e-14
4.99738e-15
2.30293e-11
-1.91632e-14
3.79733e-15
2.10386e-11
-1.78749e-14
2.7568e-15
1.92554e-11
-1.67364e-14
1.84397e-15
1.76549e-11
-1.50249e-14
1.04368e-15
1.62153e-11
3.70847e-16
1.49236e-11
-2.08861e-15
3.90886e-13
1.04212e-14
4.46025e-11
-4.14865e-14
1.2857e-14
3.9e-11
-3.65334e-14
9.77694e-15
3.42363e-11
-3.30428e-14
7.40226e-15
3.01605e-11
-2.9891e-14
5.58323e-15
2.66645e-11
-2.71334e-14
4.14289e-15
2.36534e-11
-2.47246e-14
2.94937e-15
2.10497e-11
-2.26433e-14
1.93807e-15
1.87902e-11
-1.9867e-14
1.08074e-15
1.68222e-11
3.80239e-16
1.51097e-11
-2.83931e-15
3.84777e-13
1.34189e-14
6.01073e-11
-5.99068e-14
1.61567e-14
5.04812e-11
-5.30181e-14
1.19048e-14
4.26732e-11
-4.6701e-14
8.6653e-15
3.62851e-11
-4.12134e-14
6.2871e-15
3.10306e-11
-3.64755e-14
4.53343e-15
2.66795e-11
-3.24463e-14
3.15969e-15
2.30545e-11
-2.9054e-14
2.03924e-15
2.00171e-11
-2.49198e-14
1.12031e-15
1.74578e-11
3.8855e-16
1.52991e-11
-3.63403e-15
3.66026e-13
1.76608e-14
8.27177e-11
-1.0297e-13
1.97742e-14
6.6374e-11
-7.38984e-14
1.40198e-14
5.37979e-11
-6.39641e-14
9.84408e-15
4.40045e-11
-5.49679e-14
6.93495e-15
3.63064e-11
-4.74497e-14
4.88416e-15
3.01952e-11
-4.11655e-14
3.33053e-15
2.52996e-11
-3.60164e-14
2.12263e-15
2.13444e-11
-3.02077e-14
1.22239e-15
1.81237e-11
1.09214e-15
1.54918e-11
-4.46496e-15
3.22348e-13
2.20416e-14
1.16577e-10
-1.56629e-13
2.33233e-14
8.88078e-11
-9.98479e-14
1.64976e-14
6.8675e-11
-8.51304e-14
1.15207e-14
5.38298e-11
-7.1761e-14
7.83548e-15
4.27237e-11
-6.03204e-14
5.06113e-15
3.42965e-11
-5.10455e-14
2.94294e-15
2.78194e-11
-4.35736e-14
1.30351e-15
2.27821e-11
-3.57152e-14
2.12732e-17
1.88217e-11
-9.91752e-16
1.56879e-11
-5.34425e-15
4.94754e-13
-5.62008e-11
1.67519e-10
2.3646e-14
-5.70049e-11
1.20042e-10
3.16727e-14
-5.6873e-11
8.79599e-11
3.60361e-14
-5.67507e-11
6.57352e-11
3.80102e-14
-5.66385e-11
5.00166e-11
3.85142e-14
-5.65357e-11
3.86832e-11
3.81109e-14
-5.64414e-11
3.03701e-11
3.71497e-14
-5.63549e-11
2.41776e-11
3.59405e-14
-5.62752e-11
1.94998e-11
-5.62534e-11
1.59339e-11
-6.27449e-15
-1.09091e-11
1.05688e-08
-9.19799e-07
7.31951e-12
8.73168e-09
-9.39339e-07
8.10684e-12
7.47569e-09
-9.40867e-07
8.25531e-12
6.47338e-09
-9.42137e-07
8.74034e-12
5.66015e-09
-9.43209e-07
9.40393e-12
4.99104e-09
-9.44125e-07
1.0385e-11
4.4338e-09
-9.44917e-07
1.19251e-11
3.96475e-09
-9.45607e-07
1.45376e-11
3.56619e-09
-9.46214e-07
3.22648e-09
-7.24247e-15
-9.48433e-07
3.45396e-13
9.58071e-14
4.61983e-14
-2.1927e-14
8.99011e-14
4.48494e-14
-2.64587e-14
7.90969e-14
4.36977e-14
-2.61738e-14
6.86501e-14
4.19496e-14
-2.59137e-14
5.85674e-14
4.0419e-14
-2.56761e-14
4.88321e-14
3.90672e-14
-2.54479e-14
3.94362e-14
3.7765e-14
-2.52501e-14
3.03625e-14
3.67388e-14
-2.75749e-14
2.15963e-14
3.58097e-14
1.31615e-14
3.49132e-14
-1.54954e-15
2.82265e-13
9.16724e-14
6.63888e-14
-7.7927e-14
8.27954e-14
6.24037e-14
-9.1155e-14
7.00174e-14
5.96541e-14
-8.84506e-14
5.77943e-14
5.513e-14
-8.59199e-14
4.59637e-14
5.10495e-14
-8.34548e-14
3.36176e-14
4.7412e-14
-8.11253e-14
2.28569e-14
4.42319e-14
-7.89908e-14
1.47867e-14
4.14697e-14
-8.43691e-14
8.13054e-15
3.90634e-14
2.66879e-15
3.64545e-14
-4.38777e-15
1.86824e-13
1.16614e-13
9.45135e-14
-1.9746e-13
1.03083e-13
8.65372e-14
-1.74784e-13
8.5861e-14
8.10361e-14
-1.66066e-13
7.02479e-14
7.23626e-14
-1.57993e-13
5.61645e-14
6.4847e-14
-1.50405e-13
4.34823e-14
5.83583e-14
-1.43296e-13
3.20693e-14
5.27664e-14
-1.36839e-13
2.18141e-14
4.78443e-14
-1.43453e-13
1.26033e-14
4.36172e-14
4.36047e-15
3.89071e-14
-7.2956e-15
5.82848e-14
1.44565e-13
1.39805e-13
-3.39667e-13
1.24106e-13
1.24941e-13
-2.83103e-13
1.00838e-13
1.1326e-13
-2.62887e-13
8.05411e-14
9.76116e-14
-2.44591e-13
6.29191e-14
8.45507e-14
-2.27949e-13
4.76344e-14
7.35425e-14
-2.12703e-13
3.43895e-14
6.43684e-14
-1.99111e-13
2.29177e-14
5.66052e-14
-2.04785e-13
1.29841e-14
4.99303e-14
4.41417e-15
4.2391e-14
-1.02722e-14
-8.15657e-14
1.81548e-13
2.1352e-13
-5.22812e-13
1.50981e-13
1.85596e-13
-4.23578e-13
1.19366e-13
1.61547e-13
-3.83663e-13
9.28737e-14
1.3401e-13
-3.48618e-13
7.07627e-14
1.11971e-13
-3.17631e-13
5.23154e-14
9.41006e-14
-2.90088e-13
3.69275e-14
7.96681e-14
-2.6605e-13
2.40894e-14
6.78465e-14
-2.68447e-13
1.338e-14
5.81198e-14
4.46786e-15
4.68827e-14
-1.33348e-14
-3.27162e-13
2.31254e-13
3.35731e-13
-7.65315e-13
1.85784e-13
2.81802e-13
-6.06169e-13
1.42507e-13
2.33938e-13
-5.34482e-13
1.0775e-13
1.86279e-13
-4.73548e-13
7.99156e-14
1.49865e-13
-4.21304e-13
5.76094e-14
1.21635e-13
-3.76286e-13
3.97159e-14
9.96591e-14
-3.37887e-13
2.53416e-14
8.22807e-14
-3.34537e-13
1.3793e-14
6.84464e-14
4.51983e-15
5.25102e-14
-1.64638e-14
-7.62848e-13
2.99026e-13
5.42011e-13
-1.09181e-12
2.31437e-13
4.37118e-13
-8.44121e-13
1.71701e-13
3.43386e-13
-7.22993e-13
1.25822e-13
2.61573e-13
-6.23546e-13
9.06474e-14
2.02171e-13
-5.41046e-13
6.36143e-14
1.58156e-13
-4.72178e-13
4.27763e-14
1.25223e-13
-4.14883e-13
2.66806e-14
1.00356e-13
-4.03153e-13
1.4217e-14
8.1016e-14
4.57781e-15
5.93599e-14
-1.96689e-14
-1.37014e-12
2.90364e-13
9.00871e-13
-1.53703e-12
3.37923e-13
6.90915e-13
-1.15494e-12
2.38698e-13
5.10407e-13
-9.58727e-13
1.66812e-13
3.70472e-13
-8.03524e-13
1.13921e-13
2.74178e-13
-6.79211e-13
7.42068e-14
2.06331e-13
-5.78634e-13
4.33377e-14
1.57877e-13
-4.97346e-13
2.34447e-14
1.22475e-13
-4.74338e-13
1.2178e-14
9.61961e-14
3.81081e-15
6.7402e-14
-2.29461e-14
-2.2846e-12
2.97027e-12
1.59515e-12
-2.15016e-12
1.60372e-12
1.09845e-12
-1.56017e-12
1.24436e-12
7.5752e-13
-1.25284e-12
9.55717e-13
5.20769e-13
-1.01895e-12
7.17796e-13
3.67798e-13
-8.38206e-13
5.17844e-13
2.65846e-13
-6.96713e-13
3.47052e-13
1.96422e-13
-5.85604e-13
1.99167e-13
1.48092e-13
-5.48509e-13
6.96368e-14
1.13533e-13
-4.39178e-14
7.66236e-14
-2.62847e-14
-4.96388e-11
3.00625e-10
1.66455e-08
-3.03192e-11
2.88761e-11
-1.95414e-10
-2.802e-11
2.04123e-11
-1.85558e-10
-2.58854e-11
1.50988e-11
-1.75524e-10
-2.40826e-11
1.14544e-11
-1.66373e-10
-2.25352e-11
8.8981e-12
-1.58143e-10
-2.11893e-11
7.07073e-12
-1.50794e-10
-2.00058e-11
5.74301e-12
-1.4426e-10
-1.89525e-11
4.76528e-12
-1.38483e-10
3.97968e-12
-2.97713e-14
-1.16407e-10
3.49989e-13
8.12585e-14
9.27979e-15
-1.86368e-14
7.71858e-14
8.41675e-15
-1.88214e-14
6.81267e-14
7.39988e-15
-1.82752e-14
5.93523e-14
5.60425e-15
-1.79217e-14
5.08685e-14
4.13103e-15
-1.77846e-14
4.26649e-14
2.81914e-15
-1.74279e-14
3.47431e-14
1.88721e-15
-1.74767e-14
2.70824e-14
1.16389e-15
-2.32772e-14
1.96755e-14
6.18533e-16
1.25453e-14
3.37771e-16
-1.51637e-15
2.99077e-13
5.80912e-14
1.53481e-14
-6.61421e-14
5.34132e-14
1.34991e-14
-6.32509e-14
4.52338e-14
1.32433e-14
-6.10023e-14
3.75285e-14
1.0544e-14
-5.91106e-14
3.03339e-14
8.45112e-15
-5.71963e-14
2.36522e-14
6.44674e-15
-5.54741e-14
1.74865e-14
4.78666e-15
-5.44428e-14
1.18495e-14
3.5813e-15
-7.11535e-14
6.76964e-15
2.82722e-15
2.35261e-15
1.79872e-15
-4.39514e-15
2.21721e-13
7.40183e-14
2.19378e-14
-1.65539e-13
6.68063e-14
2.03272e-14
-1.19767e-13
5.60688e-14
2.05717e-14
-1.13346e-13
4.62562e-14
1.70037e-14
-1.07667e-13
3.73103e-14
1.41975e-14
-1.02288e-13
2.91377e-14
1.13248e-14
-9.73553e-14
2.16649e-14
9.88383e-15
-9.36564e-14
1.48512e-14
8.28709e-15
-1.20948e-13
8.63557e-15
7.06412e-15
3.02765e-15
4.85047e-15
-7.31316e-15
9.97765e-14
9.18466e-14
3.50218e-14
-2.88389e-13
8.03744e-14
3.37885e-14
-1.92057e-13
6.58111e-14
3.38339e-14
-1.77884e-13
5.30263e-14
2.7902e-14
-1.65377e-13
4.18179e-14
2.32263e-14
-1.53958e-13
3.19599e-14
1.94915e-14
-1.43517e-13
2.32786e-14
1.65792e-14
-1.3539e-13
1.56362e-14
1.42853e-14
-1.72624e-13
8.93699e-15
1.2465e-14
3.08696e-15
9.01232e-15
-1.03257e-14
-1.62354e-14
1.15536e-13
5.88261e-14
-4.43924e-13
9.77215e-14
5.82783e-14
-2.84342e-13
7.78537e-14
5.61145e-14
-2.57152e-13
6.11315e-14
4.58769e-14
-2.33654e-13
4.70498e-14
3.78355e-14
-2.12807e-13
3.51436e-14
3.15513e-14
-1.94307e-13
2.5054e-14
2.65655e-14
-1.79381e-13
1.64932e-14
2.27062e-14
-2.26264e-13
9.25875e-15
1.96622e-14
3.15494e-15
1.35744e-14
-1.33925e-14
-1.50403e-13
1.47582e-13
1.01443e-13
-6.47238e-13
1.2025e-13
1.01423e-13
-4.02438e-13
9.28983e-14
9.27295e-14
-3.54651e-13
7.09101e-14
7.44653e-14
-3.14413e-13
5.31631e-14
6.0419e-14
-2.79807e-13
3.8748e-14
4.9595e-14
-2.50042e-13
2.69941e-14
4.11609e-14
-2.25805e-13
1.74085e-14
3.46872e-14
-2.81941e-13
9.5843e-15
2.94951e-14
3.22139e-15
1.97254e-14
-1.65434e-14
-5.56032e-13
1.91869e-13
1.77178e-13
-9.17622e-13
1.49891e-13
1.76062e-13
-5.54406e-13
1.11898e-13
1.52062e-13
-4.75015e-13
8.28015e-14
1.18947e-13
-4.10177e-13
6.03385e-14
9.42176e-14
-3.56251e-13
4.28507e-14
7.56733e-14
-3.11185e-13
2.91526e-14
6.16067e-14
-2.74894e-13
1.83787e-14
5.08141e-14
-3.39701e-13
9.93422e-15
4.24095e-14
3.29355e-15
2.75144e-14
-1.97791e-14
-1.07728e-12
2.84012e-13
3.12752e-13
-1.28065e-12
1.90146e-13
3.04477e-13
-7.51679e-13
1.37088e-13
2.4749e-13
-6.24492e-13
9.84297e-14
1.87088e-13
-5.24155e-13
7.01176e-14
1.43891e-13
-4.43645e-13
4.91982e-14
1.12508e-13
-3.78525e-13
3.37337e-14
8.93068e-14
-3.26809e-13
2.17136e-14
7.20203e-14
-3.99613e-13
1.19889e-14
5.88605e-14
4.27354e-15
3.71669e-14
-2.3087e-14
-1.85777e-12
1.3624e-12
6.43548e-13
-1.76903e-12
2.89692e-13
5.25584e-13
-1.01041e-12
2.53392e-13
4.00171e-13
-8.11333e-13
1.67107e-13
2.90764e-13
-6.60459e-13
1.0748e-13
2.15931e-13
-5.43923e-13
6.51095e-14
1.63647e-13
-4.52715e-13
3.66589e-14
1.26329e-13
-3.81938e-13
2.14522e-14
9.91761e-14
-4.61741e-13
1.05833e-14
7.90816e-14
2.80405e-15
4.89591e-14
-2.64719e-14
-1.92892e-11
3.55095e-10
1.70497e-08
-2.02905e-12
1.97726e-12
3.93046e-12
-1.50378e-12
8.04633e-13
2.64497e-12
-1.17544e-12
5.5695e-13
2.45753e-12
-9.3422e-13
3.96628e-13
2.23847e-12
-7.5416e-13
2.89695e-13
1.97842e-12
-6.17351e-13
2.16556e-13
1.59527e-12
-5.13709e-13
1.65638e-13
1.05675e-12
-5.81864e-13
1.28492e-13
9.68914e-13
7.84574e-14
-3.00077e-14
9.54607e-13
3.49861e-13
8.12677e-14
1.26328e-14
-1.88168e-14
7.71936e-14
1.11118e-14
-1.89321e-14
6.81321e-14
9.90277e-15
-1.83161e-14
5.93541e-14
7.85897e-15
-1.80628e-14
5.08695e-14
5.11047e-15
-1.77768e-14
4.26725e-14
3.82859e-15
-1.74563e-14
3.47512e-14
2.2607e-15
-1.75188e-14
2.70944e-14
1.15792e-15
-2.32699e-14
1.96962e-14
6.45161e-16
1.257e-14
2.58126e-16
-1.54499e-15
2.98948e-13
5.80959e-14
2.19464e-14
-6.63167e-14
5.34213e-14
1.90803e-14
-6.33352e-14
4.524e-14
1.89551e-14
-6.10216e-14
3.75422e-14
1.47119e-14
-5.9072e-14
3.03529e-14
1.1357e-14
-5.7209e-14
2.36712e-14
8.37553e-15
-5.54408e-14
1.75118e-14
6.30341e-15
-5.43306e-14
1.18798e-14
5.00685e-15
-7.113e-14
6.79937e-15
3.44665e-15
2.38391e-15
2.20466e-15
-4.39189e-15
2.21583e-13
7.40347e-14
3.10904e-14
-1.65843e-13
6.68285e-14
2.97826e-14
-1.19719e-13
5.60893e-14
3.11706e-14
-1.13289e-13
4.6268e-14
2.46744e-14
-1.07641e-13
3.7323e-14
1.96415e-14
-1.02203e-13
2.91598e-14
1.61434e-14
-9.72271e-14
2.16956e-14
1.30047e-14
-9.35964e-14
1.48832e-14
1.12907e-14
-1.20891e-13
8.69229e-15
9.4852e-15
3.08174e-15
6.47433e-15
-7.31359e-15
9.9686e-14
9.19162e-14
5.06839e-14
-2.8875e-13
8.04445e-14
5.11447e-14
-1.92027e-13
6.58722e-14
5.35052e-14
-1.7779e-13
5.30862e-14
4.33891e-14
-1.65293e-13
4.18765e-14
3.57138e-14
-1.5384e-13
3.20223e-14
3.03116e-14
-1.43419e-13
2.33407e-14
2.50369e-14
-1.35201e-13
1.57097e-14
2.17227e-14
-1.72616e-13
9.01224e-15
1.83589e-14
3.16721e-15
1.23726e-14
-1.034e-14
-1.64239e-14
1.1569e-13
8.803e-14
-4.4447e-13
9.78746e-14
9.25644e-14
-2.84312e-13
7.79831e-14
9.10761e-14
-2.57105e-13
6.12497e-14
7.42655e-14
-2.33571e-13
4.7161e-14
6.10556e-14
-2.12762e-13
3.52492e-14
5.06922e-14
-1.94197e-13
2.51589e-14
4.3514e-14
-1.79258e-13
1.66016e-14
3.7114e-14
-2.26354e-13
9.36055e-15
3.20125e-14
3.26483e-15
2.18045e-14
-1.33897e-14
-1.5076e-13
1.47871e-13
1.5552e-13
-6.48177e-13
1.2052e-13
1.64357e-13
-4.02525e-13
9.3129e-14
1.53402e-13
-3.54748e-13
7.11137e-14
1.23239e-13
-3.14473e-13
5.33411e-14
9.98536e-14
-2.79882e-13
3.89095e-14
8.24534e-14
-2.5003e-13
2.71485e-14
6.89323e-14
-2.25845e-13
1.75453e-14
5.77001e-14
-2.82187e-13
9.71827e-15
4.95061e-14
3.34324e-15
3.26637e-14
-1.65772e-14
-5.57344e-13
1.92374e-13
2.76837e-13
-9.19245e-13
1.50345e-13
2.90482e-13
-5.54856e-13
1.12278e-13
2.53209e-13
-4.75456e-13
8.31144e-14
1.98613e-13
-4.10529e-13
6.06073e-14
1.5768e-13
-3.56554e-13
4.30851e-14
1.27511e-13
-3.11454e-13
2.93545e-14
1.0388e-13
-2.75105e-13
1.85673e-14
8.6026e-14
-3.4024e-13
1.01071e-14
7.22513e-14
3.44022e-15
4.71381e-14
-1.9798e-14
-1.08017e-12
2.85359e-13
4.94481e-13
-1.28342e-12
1.90737e-13
5.0527e-13
-7.529e-13
1.37547e-13
4.13051e-13
-6.25517e-13
9.87984e-14
3.14099e-13
-5.25024e-13
7.04072e-14
2.42251e-13
-4.44414e-13
4.94201e-14
1.90136e-13
-3.79158e-13
3.3912e-14
1.50938e-13
-3.27334e-13
2.19118e-14
1.21979e-13
-4.00585e-13
1.21953e-14
9.92345e-14
4.47999e-15
6.39623e-14
-2.31135e-14
-1.8638e-12
1.35086e-12
1.03578e-12
-1.77368e-12
2.37492e-13
8.74719e-13
-1.01289e-12
2.42512e-13
6.70194e-13
-8.13418e-13
1.60571e-13
4.88019e-13
-6.62191e-13
1.04215e-13
3.63324e-13
-5.45382e-13
6.31311e-14
2.75697e-13
-4.53959e-13
2.97737e-14
2.12725e-13
-3.82967e-13
1.64466e-14
1.66686e-13
-4.63234e-13
8.42969e-15
1.32726e-13
2.90847e-15
8.28009e-14
-2.65354e-14
-1.91597e-11
5.22414e-10
1.71379e-08
-1.93404e-12
2.56964e-12
1.39998e-12
-1.35537e-12
1.048e-12
1.42964e-13
-1.04962e-12
7.33782e-13
9.80539e-14
-8.26654e-13
5.27044e-13
7.17377e-14
-6.6132e-13
3.86767e-13
5.43391e-14
-5.36416e-13
2.89544e-13
4.21217e-14
-4.41912e-13
2.20393e-13
3.32118e-14
-5.27811e-13
1.70882e-13
2.65381e-14
1.04322e-13
-3.00738e-14
2.14584e-14
3.49649e-13
8.13961e-14
1.66499e-14
-1.90883e-14
7.73017e-14
1.42196e-14
-1.90542e-14
6.82216e-14
1.26078e-14
-1.86091e-14
5.94251e-14
9.0451e-15
-1.81367e-14
5.09312e-14
7.14026e-15
-1.79258e-14
4.27241e-14
4.70996e-15
-1.75759e-14
3.47985e-14
3.3522e-15
-1.75497e-14
2.71413e-14
2.14709e-15
-2.3302e-14
1.97375e-14
1.01769e-15
1.26095e-14
3.03574e-16
-1.55258e-15
2.98604e-13
5.82407e-14
2.82758e-14
-6.66597e-14
5.35532e-14
2.47336e-14
-6.36308e-14
4.53496e-14
2.42233e-14
-6.1254e-14
3.76357e-14
1.87849e-14
-5.92486e-14
3.04334e-14
1.37733e-14
-5.7361e-14
2.37439e-14
1.08495e-14
-5.5505e-14
1.75754e-14
8.12044e-15
-5.44707e-14
1.19383e-14
6.14648e-15
-7.11834e-14
6.85276e-15
4.87853e-15
2.43098e-15
2.71711e-15
-4.39189e-15
2.21044e-13
7.42704e-14
3.97016e-14
-1.66571e-13
6.70324e-14
3.77221e-14
-1.20119e-13
5.62651e-14
3.9261e-14
-1.13616e-13
4.64189e-14
3.17032e-14
-1.0786e-13
3.74564e-14
2.54265e-14
-1.02441e-13
2.92806e-14
2.04183e-14
-9.73302e-14
2.1803e-14
1.71863e-14
-9.37552e-14
1.49799e-14
1.35106e-14
-1.20979e-13
8.77642e-15
1.23426e-14
3.15784e-15
7.77189e-15
-7.34829e-15
9.90847e-14
9.23005e-14
6.53764e-14
-2.89762e-13
8.07852e-14
6.63443e-14
-1.9264e-13
6.61515e-14
6.72072e-14
-1.78271e-13
5.33235e-14
5.55267e-14
-1.65651e-13
4.20793e-14
4.57572e-14
-1.54192e-13
3.21914e-14
3.72993e-14
-1.43644e-13
2.35014e-14
3.21857e-14
-1.35454e-13
1.58545e-14
2.74205e-14
-1.72824e-13
9.15082e-15
2.45776e-14
3.29841e-15
1.67367e-14
-1.03262e-14
-1.74911e-14
1.16304e-13
1.12763e-13
-4.46091e-13
9.83932e-14
1.18123e-13
-2.85258e-13
7.8414e-14
1.15514e-13
-2.57893e-13
6.16068e-14
9.48639e-14
-2.34242e-13
4.7459e-14
7.84244e-14
-2.13252e-13
3.55117e-14
6.53831e-14
-1.94658e-13
2.53779e-14
5.48028e-14
-1.79633e-13
1.67894e-14
4.68392e-14
-2.2676e-13
9.52364e-15
4.10373e-14
3.40483e-15
2.71968e-14
-1.34111e-14
-1.52474e-13
1.48837e-13
2.00648e-13
-6.50829e-13
1.21323e-13
2.11036e-13
-4.04125e-13
9.3766e-14
1.9511e-13
-3.56088e-13
7.16298e-14
1.57109e-13
-3.15525e-13
5.37667e-14
1.28253e-13
-2.80792e-13
3.92592e-14
1.05622e-13
-2.50803e-13
2.74431e-14
8.73636e-14
-2.26467e-13
1.78008e-14
7.4107e-14
-2.82924e-13
9.94522e-15
6.28454e-14
3.53686e-15
4.21869e-14
-1.65788e-14
-5.62206e-13
1.93894e-13
3.56915e-13
-9.23738e-13
1.51549e-13
3.71389e-13
-5.57521e-13
1.13212e-13
3.24058e-13
-4.77647e-13
8.38497e-14
2.53754e-13
-4.12306e-13
6.1192e-14
2.02344e-13
-3.58049e-13
4.35569e-14
1.62099e-13
-3.12683e-13
2.974e-14
1.32291e-13
-2.76122e-13
1.88869e-14
1.09074e-13
-3.41458e-13
1.03603e-14
9.11512e-14
3.66433e-15
5.96721e-14
-1.98335e-14
-1.08928e-12
2.87453e-13
6.3716e-13
-1.29093e-12
1.92551e-13
6.47624e-13
-7.57337e-13
1.38902e-13
5.29557e-13
-6.29088e-13
9.98184e-14
4.01245e-13
-5.27889e-13
7.11874e-14
3.09229e-13
-4.46775e-13
5.00203e-14
2.41537e-13
-3.81071e-13
3.43715e-14
1.9242e-13
-3.28981e-13
2.23054e-14
1.54855e-13
-4.02434e-13
1.25451e-14
1.26682e-13
4.77333e-15
8.10286e-14
-2.31711e-14
-1.88079e-12
1.35675e-12
1.33157e-12
-1.78608e-12
2.39744e-13
1.12316e-12
-1.02022e-12
2.4544e-13
8.57482e-13
-8.19107e-13
1.62683e-13
6.24867e-13
-6.66673e-13
1.05782e-13
4.64197e-13
-5.48991e-13
6.45066e-14
3.5148e-13
-4.56871e-13
3.04471e-14
2.71111e-13
-3.85361e-13
1.68706e-14
2.1325e-13
-4.6599e-13
8.69166e-15
1.69323e-13
3.21761e-15
1.06194e-13
-2.66013e-14
-1.92053e-11
6.5389e-10
1.71709e-08
-1.9473e-12
3.31701e-12
1.38801e-12
-1.36698e-12
1.36958e-12
1.11899e-13
-1.0584e-12
9.54047e-13
8.26136e-14
-8.33415e-13
6.82406e-13
6.28811e-14
-6.66602e-13
4.99615e-13
4.88825e-14
-5.40604e-13
3.73701e-13
3.86775e-14
-4.45296e-13
2.84558e-13
3.10832e-14
-5.31663e-13
2.19526e-13
2.53456e-14
1.34995e-13
-3.01768e-14
2.09943e-14
3.49344e-13
8.15592e-14
1.99762e-14
-1.94327e-14
7.74427e-14
1.6836e-14
-1.9405e-14
6.83361e-14
1.55849e-14
-1.87394e-14
5.95214e-14
1.18655e-14
-1.83985e-14
5.10062e-14
8.1369e-15
-1.80455e-14
4.27914e-14
5.67779e-15
-1.76779e-14
3.48569e-14
3.34271e-15
-1.76701e-14
2.71951e-14
2.03796e-15
-2.33568e-14
1.97902e-14
9.85248e-16
1.26608e-14
5.85277e-16
-1.54694e-15
2.98155e-13
5.8425e-14
3.43997e-14
-6.71079e-14
5.37173e-14
3.0238e-14
-6.39557e-14
4.54891e-14
2.92607e-14
-6.16181e-14
3.77543e-14
2.3134e-14
-5.94237e-14
3.05395e-14
1.83319e-14
-5.75649e-14
2.38359e-14
1.31312e-14
-5.5631e-14
1.76596e-14
9.65738e-15
-5.45556e-14
1.20118e-14
7.00854e-15
-7.12612e-14
6.92183e-15
5.61591e-15
2.49002e-15
3.77183e-15
-4.40164e-15
2.20332e-13
7.45771e-14
4.83488e-14
-1.675e-13
6.73024e-14
4.57118e-14
-1.20598e-13
5.64877e-14
4.77088e-14
-1.1404e-13
4.66111e-14
3.82973e-14
-1.08181e-13
3.76245e-14
3.08243e-14
-1.02655e-13
2.94238e-14
2.5023e-14
-9.76006e-14
2.19387e-14
1.9926e-14
-9.37966e-14
1.51138e-14
1.77361e-14
-1.21134e-13
8.89648e-15
1.43187e-14
3.28455e-15
9.87502e-15
-7.34265e-15
9.83039e-14
9.27906e-14
7.92473e-14
-2.91091e-13
8.12139e-14
7.9865e-14
-1.93343e-13
6.6512e-14
8.23817e-14
-1.78881e-13
5.36293e-14
6.71002e-14
-1.66211e-13
4.2342e-14
5.52166e-14
-1.5453e-13
3.24274e-14
4.63222e-14
-1.44006e-13
2.37025e-14
3.89309e-14
-1.35676e-13
1.60325e-14
3.33536e-14
-1.73099e-13
9.31567e-15
2.88067e-14
3.43613e-15
1.90909e-14
-1.03487e-14
-1.88871e-14
1.17097e-13
1.37874e-13
-4.48166e-13
9.90661e-14
1.43998e-13
-2.86447e-13
7.89649e-14
1.41292e-13
-2.58896e-13
6.20619e-14
1.14796e-13
-2.35076e-13
4.78431e-14
9.45505e-14
-2.13951e-13
3.58395e-14
7.88672e-14
-1.95231e-13
2.56598e-14
6.6436e-14
-1.80063e-13
1.70425e-14
5.71913e-14
-2.27309e-13
9.73887e-15
4.93372e-14
3.60804e-15
3.34424e-14
-1.34283e-14
-1.54711e-13
1.5008e-13
2.43186e-13
-6.54252e-13
1.22348e-13
2.57029e-13
-4.06175e-13
9.45896e-14
2.37158e-13
-3.57748e-13
7.22943e-14
1.90368e-13
-3.16918e-13
5.43135e-14
1.54561e-13
-2.81984e-13
3.97075e-14
1.26715e-13
-2.51731e-13
2.78242e-14
1.06267e-13
-2.27311e-13
1.81179e-14
8.96995e-14
-2.83865e-13
1.02224e-14
7.70715e-14
3.76989e-15
5.10927e-14
-1.66048e-14
-5.68561e-13
1.9585e-13
4.33977e-13
-9.29453e-13
1.53102e-13
4.52109e-13
-5.60997e-13
1.14412e-13
3.91951e-13
-4.80407e-13
8.47938e-14
3.07513e-13
-4.14643e-13
6.1939e-14
2.43919e-13
-3.59936e-13
4.41612e-14
1.96797e-13
-3.14273e-13
3.02354e-14
1.60621e-13
-2.77444e-13
1.92939e-14
1.33413e-13
-3.43007e-13
1.07013e-14
1.11409e-13
3.95138e-15
7.24203e-14
-1.98693e-14
-1.10108e-12
2.90228e-13
7.76902e-13
-1.30053e-12
1.94891e-13
7.86955e-13
-7.6307e-13
1.40643e-13
6.41212e-13
-6.33655e-13
1.01138e-13
4.86483e-13
-5.31597e-13
7.21972e-14
3.75035e-13
-4.49763e-13
5.07961e-14
2.93938e-13
-3.83566e-13
3.49569e-14
2.33353e-13
-3.31031e-13
2.28253e-14
1.88346e-13
-4.0483e-13
1.29929e-14
1.53974e-13
5.15463e-15
9.86448e-14
-2.32219e-14
-1.90278e-12
1.36573e-12
1.62109e-12
-1.80201e-12
2.42382e-13
1.36341e-12
-1.02961e-12
2.49351e-13
1.04123e-12
-8.26424e-13
1.65515e-13
7.57438e-13
-6.72453e-13
1.079e-13
5.62944e-13
-5.53611e-13
6.63629e-14
4.26706e-13
-4.60579e-13
3.13803e-14
3.28989e-13
-3.88454e-13
1.74219e-14
2.57956e-13
-4.69522e-13
9.04609e-15
2.05702e-13
3.61192e-15
1.29348e-13
-2.66855e-14
-1.92788e-11
7.84975e-10
1.72152e-08
-1.96516e-12
4.0132e-12
1.38924e-12
-1.38218e-12
1.66331e-12
1.11902e-13
-1.06986e-12
1.15904e-12
8.29218e-14
-8.42205e-13
8.28784e-13
6.32919e-14
-6.73465e-13
6.07001e-13
4.93295e-14
-5.46054e-13
4.53275e-13
3.91395e-14
-4.49715e-13
3.45021e-13
3.15583e-14
-5.36638e-13
2.68479e-13
2.58423e-14
1.64443e-13
-3.0308e-14
2.15291e-14
3.48958e-13
8.1759e-14
2.37656e-14
-1.984e-14
7.76171e-14
2.18508e-14
-1.97424e-14
6.84748e-14
1.92885e-14
-1.90601e-14
5.96362e-14
1.45188e-14
-1.86206e-14
5.11065e-14
1.02854e-14
-1.82722e-14
4.28737e-14
6.25568e-15
-1.77743e-14
3.49319e-14
3.99176e-15
-1.7796e-14
2.7262e-14
2.00362e-15
-2.34069e-14
1.98555e-14
1.04409e-15
1.27249e-14
5.79468e-16
-1.57079e-15
2.97602e-13
5.86506e-14
4.10197e-14
-6.7659e-14
5.39156e-14
3.75401e-14
-6.43576e-14
4.56584e-14
3.64244e-14
-6.19101e-14
3.78974e-14
2.77697e-14
-5.98131e-14
3.06617e-14
2.07578e-14
-5.7754e-14
2.39495e-14
1.50303e-14
-5.58265e-14
1.77594e-14
1.08358e-14
-5.46462e-14
1.21073e-14
7.5528e-15
-7.13354e-14
7.00474e-15
5.2989e-15
2.56119e-15
3.36889e-15
-4.40902e-15
2.19444e-13
7.4948e-14
5.80939e-14
-1.68634e-13
6.76291e-14
5.78883e-14
-1.21199e-13
5.67631e-14
5.87773e-14
-1.14527e-13
4.68486e-14
4.69586e-14
-1.0855e-13
3.78309e-14
3.7629e-14
-1.03047e-13
2.9606e-14
2.97576e-14
-9.77178e-14
2.2111e-14
2.33678e-14
-9.40649e-14
1.52586e-14
1.83419e-14
-1.21292e-13
9.03992e-15
1.53332e-14
3.41164e-15
9.4192e-15
-7.35848e-15
9.73359e-14
9.33973e-14
9.50501e-14
-2.92689e-13
8.17413e-14
1.00313e-13
-1.94258e-13
6.69542e-14
1.01057e-13
-1.7964e-13
5.39992e-14
8.2282e-14
-1.66801e-13
4.26613e-14
6.69572e-14
-1.5504e-13
3.27073e-14
5.53537e-14
-1.44381e-13
2.39467e-14
4.48596e-14
-1.36002e-13
1.62572e-14
3.78716e-14
-1.7345e-13
9.5158e-15
3.19009e-14
3.63405e-15
2.01858e-14
-1.03426e-14
-2.06177e-14
1.18058e-13
1.65301e-13
-4.5068e-13
9.98867e-14
1.78352e-13
-2.87967e-13
7.96352e-14
1.72196e-13
-2.60108e-13
6.26207e-14
1.40083e-13
-2.36078e-13
4.83125e-14
1.1481e-13
-2.14798e-13
3.6232e-14
9.49748e-14
-1.95905e-13
2.60079e-14
7.95504e-14
-1.8066e-13
1.73416e-14
6.58428e-14
-2.2795e-13
1.00155e-14
5.58233e-14
3.84396e-15
3.57799e-14
-1.34521e-14
-1.57463e-13
1.51604e-13
2.93454e-13
-6.58427e-13
1.236e-13
3.16643e-13
-4.0867e-13
9.55902e-14
2.90272e-13
-3.59791e-13
7.31054e-14
2.33031e-13
-3.18655e-13
5.49764e-14
1.88716e-13
-2.83341e-13
4.02671e-14
1.54295e-13
-2.52948e-13
2.82883e-14
1.26986e-13
-2.28252e-13
1.85193e-14
1.04276e-13
-2.8503e-13
1.05541e-14
8.77687e-14
4.05556e-15
5.64061e-14
-1.66349e-14
-5.76358e-13
1.98248e-13
5.22932e-13
-9.36462e-13
1.55001e-13
5.57886e-13
-5.65183e-13
1.15883e-13
4.82755e-13
-4.83838e-13
8.59479e-14
3.76925e-13
-4.17427e-13
6.28595e-14
2.97938e-13
-3.62259e-13
4.49014e-14
2.38458e-13
-3.16189e-13
3.08389e-14
1.92744e-13
-2.79074e-13
1.97874e-14
1.5579e-13
-3.44912e-13
1.11143e-14
1.28271e-13
4.30126e-15
8.26304e-14
-1.99081e-14
-1.11558e-12
2.93663e-13
9.35229e-13
-1.31228e-12
1.97754e-13
9.75707e-13
-7.70069e-13
1.42779e-13
7.91194e-13
-6.39242e-13
1.02751e-13
5.96707e-13
-5.36093e-13
7.34285e-14
4.57547e-13
-4.5345e-13
5.17397e-14
3.56235e-13
-3.86587e-13
3.56787e-14
2.81009e-13
-3.33555e-13
2.34472e-14
2.23853e-13
-4.07752e-13
1.35342e-14
1.78999e-13
5.61973e-15
1.13271e-13
-2.33012e-14
-1.9298e-12
1.37687e-12
1.94894e-12
-1.82146e-12
2.45983e-13
1.69597e-12
-1.04113e-12
2.54142e-13
1.28578e-12
-8.35373e-13
1.68984e-13
9.31546e-13
-6.79505e-13
1.10492e-13
6.89014e-13
-5.59257e-13
6.85571e-14
5.1876e-13
-4.65142e-13
3.25526e-14
3.97923e-13
-3.92206e-13
1.81042e-14
3.09005e-13
-4.73821e-13
9.49792e-15
2.41445e-13
4.09394e-15
1.49741e-13
-2.6795e-14
-1.9372e-11
9.39692e-10
1.72724e-08
-1.98728e-12
4.90258e-12
1.39641e-12
-1.40082e-12
2.06032e-12
1.12048e-13
-1.0839e-12
1.42777e-12
8.33532e-14
-8.52966e-13
1.01621e-12
6.38172e-14
-6.81883e-13
7.39237e-13
4.98891e-14
-5.52734e-13
5.49545e-13
3.97156e-14
-4.55041e-13
4.16109e-13
3.21518e-14
-5.4276e-13
3.16808e-13
2.64582e-14
1.92127e-13
-3.04325e-14
2.22192e-14
3.48509e-13
8.19937e-14
3.63289e-14
-2.03337e-14
7.78128e-14
2.32144e-14
-2.014e-14
6.86359e-14
2.03846e-14
-1.93579e-14
5.97674e-14
1.54042e-14
-1.89905e-14
5.12168e-14
1.5248e-14
-1.83935e-14
4.29724e-14
8.29228e-15
-1.80278e-14
3.50191e-14
5.80329e-15
-1.78123e-14
2.7345e-14
4.43708e-15
-2.35164e-14
1.9932e-14
5.7132e-15
1.28029e-14
1.32959e-14
-1.55301e-15
2.96932e-13
5.89177e-14
6.23758e-14
-6.82907e-14
5.41492e-14
3.93374e-14
-6.49056e-14
4.58528e-14
3.87536e-14
-6.2313e-14
3.80673e-14
3.02788e-14
-6.01698e-14
3.08112e-14
2.39936e-14
-5.79857e-14
2.40838e-14
1.80149e-14
-5.60272e-14
1.78794e-14
1.38715e-14
-5.48174e-14
1.22153e-14
1.12555e-14
-7.14668e-14
7.10659e-15
1.07726e-14
2.64758e-15
1.39156e-14
-4.39709e-15
2.18391e-13
7.53836e-14
9.01582e-14
-1.69967e-13
6.80075e-14
6.06859e-14
-1.21881e-13
5.70854e-14
6.32711e-14
-1.15092e-13
4.71248e-14
5.10198e-14
-1.08999e-13
3.8069e-14
4.11738e-14
-1.03423e-13
2.98203e-14
4.34789e-14
-9.80483e-14
2.22984e-14
2.81319e-14
-9.41588e-14
1.54476e-14
2.41125e-14
-1.21544e-13
9.20303e-15
2.19965e-14
3.57771e-15
1.98902e-14
-7.34027e-15
9.61937e-14
9.4112e-14
1.49297e-13
-2.94554e-13
8.23516e-14
1.06795e-13
-1.95301e-13
6.7463e-14
1.09493e-13
-1.80534e-13
5.44303e-14
8.97233e-14
-1.67462e-13
4.30353e-14
7.42335e-14
-1.55701e-13
3.30319e-14
8.18239e-14
-1.44792e-13
2.425e-14
4.44849e-14
-1.36391e-13
1.65189e-14
4.58494e-14
-1.73882e-13
9.75488e-15
4.11276e-14
3.85428e-15
3.17843e-14
-1.03632e-14
-2.26699e-14
1.19198e-13
2.5887e-13
-4.5361e-13
1.00841e-13
1.9284e-13
-2.89681e-13
8.04212e-14
1.8853e-13
-2.61533e-13
6.32789e-14
1.54181e-13
-2.37258e-13
4.88686e-14
1.38363e-13
-2.15751e-13
3.67085e-14
1.37815e-13
-1.96759e-13
2.64125e-14
9.97801e-14
-1.81342e-13
1.76966e-14
7.79886e-14
-2.28743e-13
1.03356e-14
6.85227e-14
4.12034e-15
4.92681e-14
-1.34747e-14
-1.60776e-13
1.53402e-13
4.55177e-13
-6.63246e-13
1.25063e-13
3.46104e-13
-4.11553e-13
9.67675e-14
3.25284e-13
-3.62186e-13
7.40587e-14
2.79377e-13
-3.20628e-13
5.57586e-14
2.48948e-13
-2.84995e-13
4.09189e-14
2.24267e-13
-2.54396e-13
2.88377e-14
1.88512e-13
-2.29388e-13
1.89811e-14
9.95286e-14
-2.8642e-13
1.09475e-14
1.05126e-13
4.40896e-15
7.25519e-14
-1.6677e-14
-5.85606e-13
2.01079e-13
8.02883e-13
-9.4453e-13
1.57223e-13
6.74972e-13
-5.7009e-13
1.17607e-13
6.26485e-13
-4.87825e-13
8.73031e-14
5.03347e-13
-4.20687e-13
6.394e-14
4.16225e-13
-3.64974e-13
4.57738e-14
3.5048e-13
-3.18528e-13
3.15515e-14
2.89972e-13
-2.80988e-13
2.03868e-14
1.48275e-13
-3.47148e-13
1.16026e-14
1.46673e-13
4.7022e-15
1.01713e-13
-1.99693e-14
-1.13262e-12
2.97658e-13
1.42145e-12
-1.32586e-12
2.01105e-13
1.32559e-12
-7.78252e-13
1.45283e-13
1.10327e-12
-6.45754e-13
1.04652e-13
8.43719e-13
-5.41357e-13
7.48887e-14
6.61691e-13
-4.5776e-13
5.28627e-14
5.29185e-13
-3.90152e-13
3.65432e-14
4.23685e-13
-3.36604e-13
2.41735e-14
3.0604e-13
-4.11215e-13
1.41771e-14
1.70351e-13
6.16648e-15
1.3726e-13
-2.33849e-14
-1.96146e-12
1.3722e-12
2.87008e-12
-1.84408e-12
2.49436e-13
2.43108e-12
-1.05455e-12
2.59781e-13
1.86201e-12
-8.45805e-13
1.73071e-13
1.35778e-12
-6.87788e-13
1.13546e-13
1.01584e-12
-5.6585e-13
7.10788e-14
7.76772e-13
-4.70539e-13
3.39957e-14
5.99867e-13
-3.9669e-13
1.8929e-14
4.48185e-13
-4.78942e-13
1.00435e-14
2.26966e-13
4.66732e-15
1.79542e-13
-2.69034e-14
-1.94016e-11
1.03558e-09
1.73728e-08
-2.01246e-12
6.89047e-12
1.30239e-12
-1.42253e-12
3.03554e-12
1.12202e-13
-1.10029e-12
2.11387e-12
8.3872e-14
-8.65604e-13
1.51511e-12