/*--------------------------------*- C++ -*----------------------------------*\
| =========                 |                                                 |
| \\      /  F ield         | OpenFOAM: The Open Source CFD Toolbox           |
|  \\    /   O peration     | Version:  4.1                                   |
|   \\  /    A nd           | Web:      www.OpenFOAM.org                      |
|    \\/     M anipulation  |                                                 |
\*---------------------------------------------------------------------------*/
FoamFile
{
    version     2.0;
    format      ascii;
    class       volVectorField;
    location    "0.04";
    object      U;
}
// * * * * * * * * * * * * * * * * * * * * * * * * * * * * * * * * * * * * * //

dimensions      [0 1 -1 0 0 0 0];

internalField   nonuniform List<vector> 
18000
(
(7.32556e-14 3.9495e-13 -6.71068e-12)
(8.0483e-14 3.92712e-13 -6.63139e-12)
(7.3085e-14 -1.00091e-14 -6.55317e-12)
(6.58557e-14 -1.01219e-14 -6.47604e-12)
(5.88016e-14 -1.00167e-14 -6.40001e-12)
(5.1918e-14 -9.90003e-15 -6.32504e-12)
(4.51989e-14 -9.81058e-15 -6.25113e-12)
(3.86478e-14 -9.70101e-15 -6.17826e-12)
(3.22471e-14 -9.60701e-15 -6.10637e-12)
(2.60083e-14 -8.2595e-15 -6.03595e-12)
(9.07344e-14 4.10973e-13 -8.48585e-12)
(1.10137e-13 4.02898e-13 -8.17152e-12)
(9.75382e-14 -3.70039e-14 -7.87112e-12)
(8.56698e-14 -3.60466e-14 -7.58421e-12)
(7.45112e-14 -3.48942e-14 -7.31011e-12)
(6.40123e-14 -3.37808e-14 -7.04805e-12)
(5.41307e-14 -3.27222e-14 -6.79748e-12)
(4.48394e-14 -3.17044e-14 -6.55773e-12)
(3.608e-14 -3.07348e-14 -6.32831e-12)
(2.78529e-14 -2.5652e-14 -6.10997e-12)
(8.80393e-14 4.22122e-13 -1.08763e-11)
(1.07433e-13 4.07631e-13 -1.0177e-11)
(8.97764e-14 -7.426e-14 -9.53162e-12)
(7.38461e-14 -7.0376e-14 -8.93584e-12)
(5.94752e-14 -6.65147e-14 -8.38527e-12)
(4.64988e-14 -6.29318e-14 -7.87581e-12)
(3.47792e-14 -5.95978e-14 -7.40398e-12)
(2.41864e-14 -5.6498e-14 -6.96648e-12)
(1.46168e-14 -5.35956e-14 -6.56046e-12)
(5.97687e-15 -4.37225e-14 -6.1852e-12)
(1.14574e-13 4.24004e-13 -1.41495e-11)
(1.32529e-13 4.03355e-13 -1.28225e-11)
(1.07667e-13 -1.25464e-13 -1.16444e-11)
(8.61997e-14 -1.15564e-13 -1.05963e-11)
(6.76485e-14 -1.06448e-13 -9.66176e-12)
(5.15899e-14 -9.82404e-14 -8.82661e-12)
(3.76839e-14 -9.08496e-14 -8.07853e-12)
(2.56202e-14 -8.41581e-14 -7.40712e-12)
(1.51567e-14 -7.80688e-14 -6.80315e-12)
(6.0825e-15 -6.23826e-14 -6.26159e-12)
(1.51793e-13 4.08924e-13 -1.87159e-11)
(1.65695e-13 3.8415e-13 -1.63633e-11)
(1.30418e-13 -1.96178e-13 -1.43619e-11)
(1.01345e-13 -1.75283e-13 -1.26521e-11)
(7.73235e-14 -1.56964e-13 -1.11857e-11)
(5.74298e-14 -1.41049e-13 -9.92258e-12)
(4.09091e-14 -1.27173e-13 -8.83039e-12)
(2.71666e-14 -1.15036e-13 -7.88258e-12)
(1.57185e-14 -1.04324e-13 -7.05705e-12)
(6.18718e-15 -8.16399e-14 -6.33923e-12)
(2.05203e-13 3.63553e-13 -2.52204e-11)
(2.10299e-13 3.40309e-13 -2.11781e-11)
(1.59727e-13 -2.94563e-13 -1.78988e-11)
(1.20078e-13 -2.54522e-13 -1.52194e-11)
(8.88555e-14 -2.21016e-13 -1.30154e-11)
(6.41395e-14 -1.93003e-13 -1.11905e-11)
(4.4497e-14 -1.6946e-13 -9.67012e-12)
(2.88291e-14 -1.49508e-13 -8.39616e-12)
(1.63164e-14 -1.32456e-13 -7.32274e-12)
(6.29414e-15 -1.01543e-13 -6.41811e-12)
(2.83838e-13 2.64355e-13 -3.4705e-11)
(2.71465e-13 2.55915e-13 -2.78417e-11)
(1.98023e-13 -4.32745e-13 -2.25615e-11)
(1.43497e-13 -3.60327e-13 -1.84543e-11)
(1.0269e-13 -3.02545e-13 -1.5226e-11)
(7.18871e-14 -2.56208e-13 -1.26632e-11)
(4.84898e-14 -2.18682e-13 -1.06101e-11)
(3.0631e-14 -1.87983e-13 -8.9515e-12)
(1.69327e-14 -1.62626e-13 -7.60085e-12)
(6.40574e-15 -1.22108e-13 -6.49824e-12)
(3.92842e-13 6.88765e-14 -4.89075e-11)
(3.4745e-13 1.04137e-13 -3.7246e-11)
(2.39693e-13 -6.29045e-13 -2.87959e-11)
(1.64519e-13 -5.02623e-13 -2.25709e-11)
(1.11331e-13 -4.06782e-13 -1.79141e-11)
(7.32549e-14 -3.33281e-13 -1.43806e-11)
(4.57331e-14 -2.7607e-13 -1.16648e-11)
(2.57008e-14 -2.30976e-13 -9.55269e-12)
(1.10227e-14 -1.94973e-13 -7.89213e-12)
(2.54546e-16 -1.43335e-13 -6.57967e-12)
(-3.44541e-10 -3.02455e-13 -7.09537e-11)
(-3.24879e-10 -1.59944e-13 -5.09181e-11)
(-3.02907e-10 -9.10149e-13 -3.73533e-11)
(-2.8368e-10 -6.94121e-13 -2.79453e-11)
(-2.66724e-10 -5.39366e-13 -2.12762e-11)
(-2.51665e-10 -4.26263e-13 -1.64548e-11)
(-2.38203e-10 -3.4197e-13 -1.29071e-11)
(-2.26101e-10 -2.78066e-13 -1.02548e-11)
(-2.15163e-10 -2.28798e-13 -8.243e-12)
(-2.0542e-10 -1.65235e-13 -6.70404e-12)
(5.68263e-08 -2.33038e-11 -4.34919e-09)
(2.09356e-08 4.96123e-11 -3.68062e-09)
(1.78921e-08 5.52375e-11 -3.15486e-09)
(1.54504e-08 4.84485e-11 -2.73501e-09)
(1.34576e-08 4.27947e-11 -2.39421e-09)
(1.181e-08 3.80527e-11 -2.11365e-09)
(1.04319e-08 3.40415e-11 -1.87986e-09)
(9.26762e-09 3.06229e-11 -1.68294e-09)
(8.27361e-09 2.71857e-11 -1.5155e-09)
(1.28857e-09 -1.73981e-13 -1.37321e-09)
(2.74898e-13 3.7055e-13 -6.73498e-12)
(2.56691e-13 3.44262e-13 -6.65514e-12)
(2.24945e-13 -5.79248e-14 -6.57616e-12)
(1.94447e-13 -5.74819e-14 -6.49832e-12)
(1.65152e-13 -5.68258e-14 -6.42165e-12)
(1.36997e-13 -5.61733e-14 -6.34611e-12)
(1.09945e-13 -5.55484e-14 -6.27161e-12)
(8.3939e-14 -5.49238e-14 -6.19828e-12)
(5.89394e-14 -5.41427e-14 -6.12595e-12)
(3.50398e-14 -3.12722e-14 -6.0551e-12)
(5.56937e-13 3.18264e-13 -8.52e-12)
(5.10694e-13 2.21571e-13 -8.20377e-12)
(4.37106e-13 -2.1162e-13 -7.90124e-12)
(3.6861e-13 -2.04128e-13 -7.61244e-12)
(3.04855e-13 -1.96768e-13 -7.33658e-12)
(2.45476e-13 -1.89732e-13 -7.0729e-12)
(1.90164e-13 -1.83016e-13 -6.82089e-12)
(1.38625e-13 -1.76603e-13 -6.57985e-12)
(9.05844e-14 -1.69938e-13 -6.34926e-12)
(4.60431e-14 -9.65044e-14 -6.12979e-12)
(6.89804e-13 2.25072e-13 -1.09256e-11)
(6.09353e-13 2.85599e-14 -1.02217e-11)
(5.03167e-13 -4.28951e-13 -9.57193e-12)
(4.08711e-13 -4.02391e-13 -8.97222e-12)
(3.24683e-13 -3.77603e-13 -8.41817e-12)
(2.49895e-13 -3.54678e-13 -7.90568e-12)
(1.83297e-13 -3.33439e-13 -7.43118e-12)
(1.24004e-13 -3.13753e-13 -6.99126e-12)
(7.1199e-14 -2.94683e-13 -6.58314e-12)
(2.4414e-14 -1.64654e-13 -6.20598e-12)
(9.02914e-13 6.77337e-14 -1.42224e-11)
(7.68723e-13 -2.69734e-13 -1.2886e-11)
(6.15278e-13 -7.35742e-13 -1.16994e-11)
(4.85008e-13 -6.69767e-13 -1.06439e-11)
(3.74333e-13 -6.10643e-13 -9.70333e-12)
(2.80212e-13 -5.57853e-13 -8.86295e-12)
(2.00109e-13 -5.10564e-13 -8.11047e-12)
(1.3193e-13 -4.68111e-13 -7.43527e-12)
(7.38909e-14 -4.28822e-13 -6.82801e-12)
(2.47731e-14 -2.35661e-13 -6.28368e-12)
(1.20177e-12 -1.91356e-13 -1.88265e-11)
(9.82391e-13 -7.27651e-13 -1.64553e-11)
(7.59663e-13 -1.1698e-12 -1.44382e-11)
(5.7957e-13 -1.03071e-12 -1.27156e-11)
(4.3365e-13 -9.11061e-13 -1.12388e-11)
(3.15172e-13 -8.08091e-13 -9.96728e-12)
(2.18854e-13 -7.19062e-13 -8.86826e-12)
(1.40485e-13 -6.41826e-13 -7.9148e-12)
(7.67185e-14 -5.73111e-13 -7.0846e-12)
(2.51382e-14 -3.09685e-13 -6.36297e-12)
(1.62981e-12 -6.13712e-13 -2.53928e-11)
(1.27353e-12 -1.43062e-12 -2.1314e-11)
(9.47829e-13 -1.78702e-12 -1.80063e-11)
(6.97757e-13 -1.51938e-12 -1.53048e-11)
(5.04913e-13 -1.2989e-12 -1.3084e-11)
(3.55639e-13 -1.11649e-12 -1.1246e-11)
(2.39792e-13 -9.64563e-13 -9.71546e-12)
(1.49724e-13 -8.37326e-13 -8.43342e-12)
(7.9682e-14 -7.28349e-13 -7.35357e-12)
(2.55031e-14 -3.86859e-13 -6.44386e-12)
(2.25768e-12 -1.30265e-12 -3.49809e-11)
(1.67733e-12 -2.516e-12 -2.80468e-11)
(1.19626e-12 -2.67122e-12 -2.27153e-11)
(8.46829e-13 -2.18399e-12 -1.85707e-11)
(5.9107e-13 -1.80086e-12 -1.53153e-11)
(4.02674e-13 -1.49701e-12 -1.27326e-11)
(2.63242e-13 -1.25378e-12 -1.06647e-11)
(1.59731e-13 -1.0574e-12 -8.99486e-12)
(8.27816e-14 -8.95431e-13 -7.63554e-12)
(2.58791e-14 -4.67358e-13 -6.52641e-12)
(3.20482e-12 -2.43637e-12 -4.93628e-11)
(2.24905e-12 -4.20973e-12 -3.75624e-11)
(1.52925e-12 -3.95029e-12 -2.90191e-11)
(1.03694e-12 -3.09339e-12 -2.27311e-11)
(6.96064e-13 -2.45278e-12 -1.80313e-11)
(4.57663e-13 -1.96742e-12 -1.44679e-11)
(2.89646e-13 -1.59478e-12 -1.17308e-11)
(1.70617e-13 -1.30526e-12 -9.60328e-12)
(8.60456e-14 -1.07533e-12 -7.93138e-12)
(2.62612e-14 -5.51289e-13 -6.61062e-12)
(8.27714e-12 -4.33445e-12 -7.17246e-11)
(1.50348e-12 -6.89655e-12 -5.1414e-11)
(7.20635e-13 -5.82528e-12 -3.76802e-11)
(2.56278e-13 -4.34909e-12 -2.81664e-11)
(-2.00119e-14 -3.30478e-12 -2.143e-11)
(-1.81997e-13 -2.55156e-12 -1.65641e-11)
(-2.73648e-13 -1.99839e-12 -1.29866e-11)
(-3.2169e-13 -1.58556e-12 -1.03137e-11)
(-3.42635e-13 -1.27e-12 -8.28745e-12)
(-3.43118e-13 -6.39604e-13 -6.73819e-12)
(1.84294e-08 -1.03349e-10 -4.37581e-09)
(-6.30655e-10 -9.30519e-11 -3.6989e-09)
(-5.70547e-10 -6.66398e-11 -3.16826e-09)
(-5.15125e-10 -5.66528e-11 -2.74506e-09)
(-4.67237e-10 -4.88569e-11 -2.40189e-09)
(-4.26063e-10 -4.26308e-11 -2.11963e-09)
(-3.90639e-10 -3.75668e-11 -1.88458e-09)
(-3.60094e-10 -3.33839e-11 -1.68672e-09)
(-3.33721e-10 -2.98708e-11 -1.51856e-09)
(-3.19587e-10 -2.66243e-11 -1.37569e-09)
(2.27145e-13 3.77062e-13 -2.77321e-14)
(2.14444e-13 3.50421e-13 -2.68099e-14)
(1.88069e-13 -5.19092e-14 -2.53528e-14)
(1.62843e-13 -5.14981e-14 -2.40519e-14)
(1.38706e-13 -5.0866e-14 -2.29481e-14)
(1.15599e-13 -5.02676e-14 -2.19326e-14)
(9.3501e-14 -4.96725e-14 -2.10613e-14)
(7.23373e-14 -4.90642e-14 -2.03711e-14)
(5.20797e-14 -4.83422e-14 -1.97518e-14)
(3.2812e-14 -2.53606e-14 -1.92785e-14)
(4.98059e-13 3.43062e-13 -3.92272e-14)
(4.59921e-13 2.44726e-13 -3.67277e-14)
(3.93901e-13 -1.89374e-13 -3.36732e-14)
(3.32496e-13 -1.8262e-13 -3.09645e-14)
(2.75383e-13 -1.75989e-13 -2.85654e-14)
(2.22226e-13 -1.69633e-13 -2.64762e-14)
(1.72749e-13 -1.63561e-13 -2.46021e-14)
(1.26651e-13 -1.5777e-13 -2.30054e-14)
(8.37062e-14 -1.51746e-13 -2.16723e-14)
(4.39275e-14 -7.85767e-14 -2.04168e-14)
(6.14951e-13 2.77945e-13 -5.74895e-14)
(5.46611e-13 7.65722e-14 -5.19691e-14)
(4.51242e-13 -3.84006e-13 -4.61366e-14)
(3.66469e-13 -3.60135e-13 -4.11016e-14)
(2.91127e-13 -3.37826e-13 -3.67454e-14)
(2.24118e-13 -3.17202e-13 -3.29467e-14)
(1.64488e-13 -2.98127e-13 -2.97168e-14)
(1.11422e-13 -2.80454e-13 -2.69066e-14)
(6.41716e-14 -2.63251e-13 -2.44613e-14)
(2.23696e-14 -1.344e-13 -2.24214e-14)
(8.06485e-13 1.63785e-13 -8.6867e-14)
(6.90403e-13 -1.85435e-13 -7.58183e-14)
(5.52397e-13 -6.59151e-13 -6.50294e-14)
(4.35335e-13 -5.99835e-13 -5.58904e-14)
(3.35986e-13 -5.46667e-13 -4.83351e-14)
(2.51559e-13 -4.99219e-13 -4.19621e-14)
(1.79763e-13 -4.56732e-13 -3.66871e-14)
(1.18693e-13 -4.18653e-13 -3.22175e-14)
(6.67263e-14 -3.83283e-13 -2.84448e-14)
(2.28011e-14 -1.92852e-13 -2.52977e-14)
(1.07574e-12 -2.86303e-14 -1.35063e-13)
(8.83493e-13 -5.90356e-13 -1.13162e-13)
(6.82867e-13 -1.0491e-12 -9.34452e-14)
(5.20801e-13 -9.23952e-13 -7.74569e-14)
(3.89645e-13 -8.1629e-13 -6.46789e-14)
(2.83256e-13 -7.2371e-13 -5.43515e-14)
(1.96835e-13 -6.43714e-13 -4.59787e-14)
(1.26562e-13 -5.74375e-13 -3.91893e-14)
(6.94195e-14 -5.12537e-13 -3.36278e-14)
(2.32431e-14 -2.54064e-13 -2.90769e-14)
(1.46233e-12 -3.47108e-13 -2.15488e-13)
(1.14712e-12 -1.21563e-12 -1.72102e-13)
(8.53173e-13 -1.60465e-12 -1.36272e-13)
(6.27782e-13 -1.36356e-12 -1.08613e-13)
(4.54208e-13 -1.16495e-12 -8.74476e-14)
(3.19996e-13 -1.00079e-12 -7.10404e-14)
(2.1593e-13 -8.64192e-13 -5.8237e-14)
(1.35091e-13 -7.49889e-13 -4.81982e-14)
(7.22461e-14 -6.51824e-13 -4.01681e-14)
(2.3696e-14 -3.18224e-13 -3.3855e-14)
(2.03109e-12 -8.71602e-13 -3.52054e-13)
(1.51356e-12 -2.18616e-12 -2.66655e-13)
(1.07844e-12 -2.40241e-12 -2.01306e-13)
(7.62947e-13 -1.96265e-12 -1.53692e-13)
(5.32386e-13 -1.61706e-12 -1.18991e-13)
(3.6276e-13 -1.34332e-12 -9.32789e-14)
(2.37352e-13 -1.12436e-12 -7.40272e-14)
(1.44325e-13 -9.47789e-13 -5.946e-14)
(7.52092e-14 -8.01992e-13 -4.8166e-14)
(2.41592e-14 -3.8548e-13 -3.95839e-14)
(2.89151e-12 -1.74047e-12 -5.90668e-13)
(2.03334e-12 -3.7086e-12 -4.20411e-13)
(1.38079e-12 -3.55947e-12 -3.00836e-13)
(9.35449e-13 -2.78434e-12 -2.19002e-13)
(6.27672e-13 -2.2055e-12 -1.62567e-13)
(4.12735e-13 -1.76756e-12 -1.22729e-13)
(2.61439e-13 -1.43172e-12 -9.41849e-14)
(1.54353e-13 -1.1711e-12 -7.33318e-14)
(7.83295e-14 -9.63968e-13 -5.78823e-14)
(2.46294e-14 -4.55997e-13 -4.63303e-14)
(9.90781e-12 -3.19914e-12 -1.01403e-12)
(2.78101e-12 -6.13423e-12 -6.71893e-13)
(1.78507e-12 -5.25906e-12 -4.52143e-13)
(1.15152e-12 -3.92046e-12 -3.12287e-13)
(7.39164e-13 -2.97509e-12 -2.21467e-13)
(4.66654e-13 -2.29443e-12 -1.60684e-13)
(2.84404e-13 -1.79524e-12 -1.19098e-13)
(1.61483e-13 -1.42321e-12 -9.0001e-14)
(7.82187e-14 -1.13882e-12 -6.92151e-14)
(2.20486e-14 -5.29986e-13 -5.42556e-14)
(1.97634e-08 -2.22854e-11 -2.74111e-11)
(4.55441e-12 -2.55155e-11 -1.85967e-11)
(-1.3006e-13 -8.28494e-12 -1.36058e-11)
(-3.20075e-13 -5.87031e-12 -1.01897e-11)
(-4.03072e-13 -4.26728e-12 -7.78522e-12)
(-4.28738e-13 -3.16945e-12 -6.05198e-12)
(-4.24597e-13 -2.39924e-12 -4.77657e-12)
(-4.05564e-13 -1.84708e-12 -3.8209e-12)
(-3.79929e-13 -1.44021e-12 -3.09307e-12)
(-3.54137e-13 -6.99747e-13 -2.50805e-12)
(2.27134e-13 3.76947e-13 -8.18554e-15)
(2.14426e-13 3.50035e-13 -7.29956e-15)
(1.88037e-13 -5.23766e-14 -5.6323e-15)
(1.62801e-13 -5.18727e-14 -4.2724e-15)
(1.38663e-13 -5.11845e-14 -3.07155e-15)
(1.15578e-13 -5.05168e-14 -2.10134e-15)
(9.34884e-14 -4.98381e-14 -1.35387e-15)
(7.23431e-14 -4.91875e-14 -7.66081e-16)
(5.2118e-14 -4.83932e-14 -3.86978e-16)
(3.28706e-14 -2.53661e-14 -2.47974e-16)
(4.98358e-13 3.42977e-13 -1.21023e-14)
(4.60191e-13 2.44301e-13 -1.06398e-14)
(3.94121e-13 -1.89888e-13 -8.42994e-15)
(3.32687e-13 -1.83033e-13 -6.51405e-15)
(2.75558e-13 -1.76281e-13 -4.97552e-15)
(2.22399e-13 -1.69852e-13 -3.79043e-15)
(1.72923e-13 -1.63718e-13 -2.81779e-15)
(1.26838e-13 -1.57832e-13 -2.14102e-15)
(8.39064e-14 -1.51738e-13 -1.6633e-15)
(4.41456e-14 -7.85106e-14 -1.40341e-15)
(6.15632e-13 2.77904e-13 -1.95965e-14)
(5.47255e-13 7.60392e-14 -1.72762e-14)
(4.51791e-13 -3.84614e-13 -1.39254e-14)
(3.66951e-13 -3.60583e-13 -1.12169e-14)
(2.91568e-13 -3.38175e-13 -9.05141e-15)
(2.24526e-13 -3.17451e-13 -7.32206e-15)
(1.64886e-13 -2.98265e-13 -5.9671e-15)
(1.11813e-13 -2.80529e-13 -5.0438e-15)
(6.45582e-14 -2.63244e-13 -4.27831e-15)
(2.27532e-14 -1.34288e-13 -3.90898e-15)
(8.07832e-13 1.63785e-13 -3.34831e-14)
(6.91649e-13 -1.86198e-13 -2.93264e-14)
(5.53462e-13 -6.60061e-13 -2.39609e-14)
(4.36255e-13 -6.00537e-13 -1.9563e-14)
(3.36798e-13 -5.47182e-13 -1.61252e-14)
(2.52301e-13 -4.9959e-13 -1.34391e-14)
(1.80439e-13 -4.56989e-13 -1.13236e-14)
(1.19323e-13 -4.18806e-13 -9.70403e-15)
(6.73249e-14 -3.83355e-13 -8.48095e-15)
(2.33531e-14 -1.92806e-13 -7.61121e-15)
(1.0782e-12 -2.87335e-14 -5.85082e-14)
(8.85699e-13 -5.91755e-13 -5.0418e-14)
(6.84697e-13 -1.05064e-12 -4.08665e-14)
(5.22361e-13 -9.25164e-13 -3.33861e-14)
(3.90984e-13 -8.17228e-13 -2.75123e-14)
(2.84424e-13 -7.24443e-13 -2.29221e-14)
(1.97859e-13 -6.44274e-13 -1.93654e-14)
(1.27481e-13 -5.74781e-13 -1.66e-14)
(7.02344e-14 -5.12857e-13 -1.44433e-14)
(2.39781e-14 -2.54139e-13 -1.27697e-14)
(1.46668e-12 -3.47616e-13 -1.03002e-13)
(1.15084e-12 -1.21846e-12 -8.61936e-14)
(8.56181e-13 -1.60752e-12 -6.86393e-14)
(6.30252e-13 -1.36583e-12 -5.52452e-14)
(4.56252e-13 -1.16676e-12 -4.48982e-14)
(3.21708e-13 -1.00225e-12 -3.69884e-14)
(2.17384e-13 -8.65345e-13 -3.07871e-14)
(1.36327e-13 -7.50815e-13 -2.59987e-14)
(7.33027e-14 -6.52588e-13 -2.22181e-14)
(2.46088e-14 -3.18563e-13 -1.92828e-14)
(2.03862e-12 -8.73249e-13 -1.8195e-13)
(1.51971e-12 -2.19194e-12 -1.46569e-13)
(1.08323e-12 -2.40785e-12 -1.13344e-13)
(7.66716e-13 -1.96696e-12 -8.89521e-14)
(5.35385e-13 -1.62049e-12 -7.06505e-14)
(3.65176e-13 -1.34606e-12 -5.69119e-14)
(2.39317e-13 -1.12658e-12 -4.64248e-14)
(1.45932e-13 -9.49596e-13 -3.83873e-14)
(7.65429e-14 -8.03484e-13 -3.21714e-14)
(2.5253e-14 -3.86223e-13 -2.72776e-14)
(2.90447e-12 -1.74473e-12 -3.23312e-13)
(2.04336e-12 -3.7203e-12 -2.47951e-13)
(1.38825e-12 -3.56976e-12 -1.84817e-13)
(9.41077e-13 -2.79233e-12 -1.40146e-13)
(6.31974e-13 -2.21173e-12 -1.08017e-13)
(4.16061e-13 -1.77248e-12 -8.4617e-14)
(2.64033e-13 -1.43563e-12 -6.72314e-14)
(1.56395e-13 -1.17423e-12 -5.42746e-14)
(7.99524e-14 -9.66539e-13 -4.43836e-14)
(2.59365e-14 -4.57366e-13 -3.67927e-14)
(9.96007e-12 -3.2092e-12 -5.80268e-13)
(2.79985e-12 -6.15777e-12 -4.19458e-13)
(1.79816e-12 -5.27826e-12 -2.98548e-13)
(1.16083e-12 -3.93485e-12 -2.17355e-13)
(7.45888e-13 -2.986e-12 -1.61605e-13)
(4.716e-13 -2.30281e-12 -1.22544e-13)
(2.88111e-13 -1.80177e-12 -9.45461e-14)
(1.64325e-13 -1.42834e-12 -7.41718e-14)
(8.03931e-14 -1.14287e-12 -5.9137e-14)
(2.37253e-14 -5.3217e-13 -4.79146e-14)
(2.00837e-08 -2.1431e-11 -1.52555e-12)
(6.98141e-12 -2.49718e-11 -7.41449e-13)
(1.73786e-12 -7.83398e-12 -4.96332e-13)
(1.14071e-12 -5.52819e-12 -3.42951e-13)
(7.58174e-13 -4.00306e-12 -2.43689e-13)
(5.07437e-13 -2.96217e-12 -1.77571e-13)
(3.40045e-13 -2.23432e-12 -1.3245e-13)
(2.26564e-13 -1.71436e-12 -1.01079e-13)
(1.48638e-13 -1.33235e-12 -7.83651e-14)
(9.48131e-14 -6.10357e-13 -6.17502e-14)
(2.27569e-13 3.76731e-13 -1.08861e-14)
(2.14788e-13 3.49447e-13 -9.62679e-15)
(1.88327e-13 -5.30657e-14 -7.45005e-15)
(1.63024e-13 -5.24747e-14 -5.59814e-15)
(1.3885e-13 -5.16866e-14 -4.04509e-15)
(1.1573e-13 -5.09101e-14 -2.77875e-15)
(9.36222e-14 -5.01642e-14 -1.77603e-15)
(7.24723e-14 -4.94107e-14 -1.00425e-15)
(5.22294e-14 -4.85104e-14 -4.88621e-16)
(3.29745e-14 -2.54088e-14 -2.49196e-16)
(4.99404e-13 3.42581e-13 -1.60642e-14)
(4.611e-13 2.43451e-13 -1.40552e-14)
(3.9487e-13 -1.9082e-13 -1.10943e-14)
(3.33304e-13 -1.83817e-13 -8.60075e-15)
(2.76086e-13 -1.76913e-13 -6.51272e-15)
(2.22857e-13 -1.70348e-13 -4.93564e-15)
(1.73328e-13 -1.64083e-13 -3.69107e-15)
(1.2722e-13 -1.58107e-13 -2.81118e-15)
(8.42534e-14 -1.51925e-13 -2.14822e-15)
(4.44742e-14 -7.85736e-14 -1.80018e-15)
(6.1747e-13 2.77231e-13 -2.60174e-14)
(5.48863e-13 7.47445e-14 -2.28497e-14)
(4.53132e-13 -3.85988e-13 -1.84285e-14)
(3.6808e-13 -3.61714e-13 -1.47969e-14)
(2.92533e-13 -3.39068e-13 -1.18747e-14)
(2.2537e-13 -3.18164e-13 -9.62831e-15)
(1.65629e-13 -2.98806e-13 -7.87703e-15)
(1.12475e-13 -2.80927e-13 -6.57143e-15)
(6.516e-14 -2.63527e-13 -5.69322e-15)
(2.33063e-14 -1.34441e-13 -5.09493e-15)
(8.10994e-13 1.62489e-13 -4.45105e-14)
(6.94369e-13 -1.88369e-13 -3.88028e-14)
(5.55693e-13 -6.62228e-13 -3.16117e-14)
(4.38116e-13 -6.02317e-13 -2.58775e-14)
(3.38366e-13 -5.48605e-13 -2.13185e-14)
(2.53632e-13 -5.00732e-13 -1.77219e-14)
(1.81601e-13 -4.57902e-13 -1.49704e-14)
(1.20331e-13 -4.19531e-13 -1.284e-14)
(6.82161e-14 -3.83911e-13 -1.12311e-14)
(2.41431e-14 -1.93085e-13 -1.00999e-14)
(1.08355e-12 -3.12806e-14 -7.76996e-14)
(8.90157e-13 -5.95686e-13 -6.6698e-14)
(6.88273e-13 -1.05438e-12 -5.4039e-14)
(5.25265e-13 -9.28186e-13 -4.41823e-14)
(3.93364e-13 -8.19676e-13 -3.64301e-14)
(2.86403e-13 -7.26395e-13 -3.03366e-14)
(1.99522e-13 -6.45836e-13 -2.5636e-14)
(1.28886e-13 -5.7606e-13 -2.19326e-14)
(7.14415e-14 -5.13875e-13 -1.90847e-14)
(2.50127e-14 -2.54735e-13 -1.68736e-14)
(1.47564e-12 -3.52835e-13 -1.36926e-13)
(1.15803e-12 -1.22583e-12 -1.14122e-13)
(8.6176e-13 -1.61415e-12 -9.09017e-14)
(6.34639e-13 -1.37113e-12 -7.31106e-14)
(4.59743e-13 -1.17098e-12 -5.94695e-14)
(3.24523e-13 -1.00562e-12 -4.89777e-14)
(2.19664e-13 -8.68089e-13 -4.07551e-14)
(1.382e-13 -7.5304e-13 -3.43964e-14)
(7.48572e-14 -6.54389e-13 -2.93874e-14)
(2.58969e-14 -3.19615e-13 -2.55038e-14)
(2.05365e-12 -8.83812e-13 -2.4192e-13)
(1.53122e-12 -2.20597e-12 -1.94175e-13)
(1.09181e-12 -2.41981e-12 -1.50271e-13)
(7.73211e-13 -1.97622e-12 -1.1782e-13)
(5.40375e-13 -1.62775e-12 -9.36768e-14)
(3.69049e-13 -1.35179e-12 -7.53934e-14)
(2.42357e-13 -1.13115e-12 -6.14891e-14)
(1.48351e-13 -9.53257e-13 -5.08232e-14)
(7.8473e-14 -8.0646e-13 -4.25882e-14)
(2.68156e-14 -3.87998e-13 -3.61349e-14)
(2.92988e-12 -1.76614e-12 -4.29874e-13)
(2.06174e-12 -3.74702e-12 -3.2876e-13)
(1.40135e-12 -3.59115e-12 -2.45002e-13)
(9.50575e-13 -2.8084e-12 -1.85843e-13)
(6.38974e-13 -2.22398e-12 -1.43276e-13)
(4.21296e-13 -1.78194e-12 -1.12191e-13)
(2.67998e-13 -1.44302e-12 -8.91897e-14)
(1.59429e-13 -1.18008e-12 -7.19331e-14)
(8.22925e-14 -9.712e-13 -5.87937e-14)
(2.77597e-14 -4.60092e-13 -4.88083e-14)
(1.00121e-11 -3.25236e-12 -7.71612e-13)
(2.82944e-12 -6.20849e-12 -5.56637e-13)
(1.81814e-12 -5.31638e-12 -3.96136e-13)
(1.17462e-12 -3.96239e-12 -2.88478e-13)
(7.55614e-13 -3.00626e-12 -2.14509e-13)
(4.78572e-13 -2.318e-12 -1.62606e-13)
(2.93192e-13 -1.81335e-12 -1.25452e-13)
(1.68074e-13 -1.43728e-12 -9.8489e-14)
(8.31944e-14 -1.14987e-12 -7.84671e-14)
(2.58304e-14 -5.36202e-13 -6.34972e-14)
(2.0079e-08 -2.15402e-11 -1.71329e-12)
(7.02709e-12 -2.50888e-11 -9.47254e-13)
(1.75991e-12 -7.90069e-12 -6.37813e-13)
(1.1556e-12 -5.57421e-12 -4.42812e-13)
(7.68496e-13 -4.03565e-12 -3.15807e-13)
(5.14782e-13 -2.98576e-12 -2.30723e-13)
(3.45403e-13 -2.25174e-12 -1.72309e-13)
(2.30553e-13 -1.72745e-12 -1.31251e-13)
(1.5166e-13 -1.34235e-12 -1.01758e-13)
(9.71423e-14 -6.16012e-13 -8.03858e-14)
(2.28121e-13 3.76421e-13 -1.36355e-14)
(2.15255e-13 3.48664e-13 -1.19341e-14)
(1.88697e-13 -5.39736e-14 -9.27775e-15)
(1.63324e-13 -5.32248e-14 -6.95489e-15)
(1.39078e-13 -5.23051e-14 -5.04337e-15)
(1.15926e-13 -5.14189e-14 -3.42655e-15)
(9.37878e-14 -5.0545e-14 -2.16004e-15)
(7.26206e-14 -4.97017e-14 -1.26084e-15)
(5.23715e-14 -4.86951e-14 -6.03734e-16)
(3.31085e-14 -2.54656e-14 -3.09052e-16)
(5.00738e-13 3.42068e-13 -2.00918e-14)
(4.62262e-13 2.42341e-13 -1.75501e-14)
(3.95827e-13 -1.92017e-13 -1.38026e-14)
(3.34108e-13 -1.84832e-13 -1.07477e-14)
(2.76759e-13 -1.77729e-13 -8.2077e-15)
(2.23442e-13 -1.70974e-13 -6.14272e-15)
(1.7385e-13 -1.64567e-13 -4.57563e-15)
(1.27685e-13 -1.58453e-13 -3.42787e-15)
(8.47005e-14 -1.52151e-13 -2.68497e-15)
(4.4889e-14 -7.86753e-14 -2.28635e-15)
(6.19834e-13 2.76346e-13 -3.25214e-14)
(5.50925e-13 7.3065e-14 -2.84342e-14)
(4.54841e-13 -3.87731e-13 -2.29276e-14)
(3.69524e-13 -3.63152e-13 -1.84368e-14)
(2.93777e-13 -3.40226e-13 -1.48197e-14)
(2.2644e-13 -3.19062e-13 -1.19953e-14)
(1.66581e-13 -2.99518e-13 -9.79717e-15)
(1.13328e-13 -2.81443e-13 -8.21113e-15)
(6.59406e-14 -2.63885e-13 -7.08203e-15)
(2.40248e-14 -1.34631e-13 -6.31649e-15)
(8.15055e-13 1.60817e-13 -5.56769e-14)
(6.97854e-13 -1.9121e-13 -4.84153e-14)
(5.58554e-13 -6.65027e-13 -3.94044e-14)
(4.40501e-13 -6.04576e-13 -3.22664e-14)
(3.4038e-13 -5.5045e-13 -2.65738e-14)
(2.5535e-13 -5.02194e-13 -2.20789e-14)
(1.8308e-13 -4.59049e-13 -1.86613e-14)
(1.2163e-13 -4.2043e-13 -1.60067e-14)
(6.9356e-14 -3.84593e-13 -1.40251e-14)
(2.51568e-14 -1.93483e-13 -1.25504e-14)
(1.09042e-12 -3.45943e-14 -9.72774e-14)
(8.95875e-13 -6.00766e-13 -8.32375e-14)
(6.92865e-13 -1.05917e-12 -6.74787e-14)
(5.28985e-13 -9.32035e-13 -5.51014e-14)
(3.96425e-13 -8.22789e-13 -4.54412e-14)
(2.88952e-13 -7.28916e-13 -3.78868e-14)
(2.0165e-13 -6.47868e-13 -3.19463e-14)
(1.30696e-13 -5.7768e-13 -2.73453e-14)
(7.29784e-14 -5.15186e-13 -2.37754e-14)
(2.63346e-14 -2.55514e-13 -2.10084e-14)
(1.48717e-12 -3.59574e-13 -1.71361e-13)
(1.16726e-12 -1.23538e-12 -1.42615e-13)
(8.68933e-13 -1.62269e-12 -1.13488e-13)
(6.40266e-13 -1.37788e-12 -9.12539e-14)
(4.64226e-13 -1.17637e-12 -7.42506e-14)
(3.28122e-13 -1.00997e-12 -6.10393e-14)
(2.22593e-13 -8.71587e-13 -5.08622e-14)
(1.40603e-13 -7.55871e-13 -4.29238e-14)
(7.68404e-14 -6.56703e-13 -3.67222e-14)
(2.75522e-14 -3.20976e-13 -3.183e-14)
(2.073e-12 -8.97489e-13 -3.03008e-13)
(1.54599e-12 -2.22406e-12 -2.42644e-13)
(1.10284e-12 -2.43513e-12 -1.87742e-13)
(7.81559e-13 -1.98809e-12 -1.47164e-13)
(5.46773e-13 -1.63705e-12 -1.16962e-13)
(3.74014e-13 -1.35916e-12 -9.41363e-14)
(2.46265e-13 -1.13701e-12 -7.67859e-14)
(1.51443e-13 -9.57973e-13 -6.3461e-14)
(8.09505e-14 -8.1027e-13 -5.31089e-14)
(2.88099e-14 -3.90242e-13 -4.50307e-14)
(2.96262e-12 -1.79375e-12 -5.3879e-13)
(2.0854e-12 -3.78144e-12 -4.11245e-13)
(1.41819e-12 -3.61862e-12 -3.06393e-13)
(9.6279e-13 -2.82903e-12 -2.32286e-13)
(6.47966e-13 -2.2397e-12 -1.79038e-13)
(4.2802e-13 -1.79407e-12 -1.40168e-13)
(2.73088e-13 -1.4525e-12 -1.11401e-13)
(1.63334e-13 -1.18757e-12 -8.97949e-14)
(8.53075e-14 -9.77174e-13 -7.34055e-14)
(3.01074e-14 -4.63574e-13 -6.0845e-14)
(1.00848e-11 -3.30801e-12 -9.67683e-13)
(2.86748e-12 -6.2739e-12 -6.96857e-13)
(1.84381e-12 -5.36537e-12 -4.95765e-13)
(1.19235e-12 -3.99774e-12 -3.60882e-13)
(7.68098e-13 -3.03229e-12 -2.68226e-13)
(4.87529e-13 -2.3375e-12 -2.0323e-13)
(2.99715e-13 -1.82816e-12 -1.56763e-13)
(1.72889e-13 -1.44873e-12 -1.23015e-13)
(8.6778e-14 -1.15885e-12 -9.79744e-14)
(2.85329e-14 -5.41361e-13 -7.92767e-14)
(2.00779e-08 -2.17214e-11 -2.23936e-12)
(7.05583e-12 -2.52562e-11 -1.18638e-12)
(1.78323e-12 -7.98759e-12 -7.98484e-13)
(1.17138e-12 -5.63403e-12 -5.54152e-13)
(7.79501e-13 -4.0779e-12 -3.95031e-13)
(5.22672e-13 -3.0163e-12 -2.88533e-13)
(3.51196e-13 -2.27427e-12 -2.15359e-13)
(2.34893e-13 -1.74441e-12 -1.63939e-13)
(1.54981e-13 -1.35528e-12 -1.2713e-13)
(9.97305e-14 -6.23307e-13 -1.00315e-13)
(2.28797e-13 3.76025e-13 -1.63611e-14)
(2.15832e-13 3.47712e-13 -1.43012e-14)
(1.89146e-13 -5.50411e-14 -1.11104e-14)
(1.63684e-13 -5.41557e-14 -8.36621e-15)
(1.3938e-13 -5.30882e-14 -6.02681e-15)
(1.16166e-13 -5.20562e-14 -4.06571e-15)
(9.39998e-14 -5.10271e-14 -2.59204e-15)
(7.2805e-14 -5.00316e-14 -1.45973e-15)
(5.25475e-14 -4.88894e-14 -7.58036e-16)
(3.32768e-14 -2.55426e-14 -3.65243e-16)
(5.0237e-13 3.41435e-13 -2.41259e-14)
(4.6368e-13 2.40976e-13 -2.09889e-14)
(3.9699e-13 -1.93474e-13 -1.65367e-14)
(3.35074e-13 -1.86014e-13 -1.28306e-14)
(2.77587e-13 -1.78733e-13 -9.85306e-15)
(2.24162e-13 -1.7179e-13 -7.3397e-15)
(1.7449e-13 -1.6517e-13 -5.50403e-15)
(1.28276e-13 -1.58868e-13 -4.11916e-15)
(8.52418e-14 -1.52393e-13 -3.20568e-15)
(4.53957e-14 -7.87702e-14 -2.74926e-15)
(6.2272e-13 2.75244e-13 -3.9096e-14)
(5.53434e-13 7.09934e-14 -3.408e-14)
(4.56931e-13 -3.89854e-13 -2.74321e-14)
(3.71281e-13 -3.64887e-13 -2.20646e-14)
(2.95273e-13 -3.41624e-13 -1.77727e-14)
(2.27755e-13 -3.20189e-13 -1.43972e-14)
(1.67745e-13 -3.00357e-13 -1.17275e-14)
(1.14377e-13 -2.82066e-13 -9.85084e-15)
(6.68859e-14 -2.64344e-13 -8.50067e-15)
(2.48798e-14 -1.34852e-13 -7.58715e-15)
(8.20026e-13 1.58752e-13 -6.68725e-14)
(7.02111e-13 -1.94669e-13 -5.80107e-14)
(5.62057e-13 -6.68424e-13 -4.72406e-14)
(4.43408e-13 -6.07343e-13 -3.86552e-14)
(3.42828e-13 -5.52681e-13 -3.18211e-14)
(2.57443e-13 -5.03979e-13 -2.65326e-14)
(1.84892e-13 -4.60458e-13 -2.22989e-14)
(1.23204e-13 -4.21541e-13 -1.91797e-14)
(7.07472e-14 -3.85467e-13 -1.67752e-14)
(2.63929e-14 -1.93952e-13 -1.50181e-14)
(1.09882e-12 -3.8683e-14 -1.17037e-13)
(9.02862e-13 -6.06991e-13 -9.98147e-14)
(6.98464e-13 -1.06503e-12 -8.08773e-14)
(5.33526e-13 -9.36761e-13 -6.60119e-14)
(4.00155e-13 -8.26577e-13 -5.44328e-14)
(2.92043e-13 -7.31973e-13 -4.5399e-14)
(2.04255e-13 -6.50335e-13 -3.83282e-14)
(1.32897e-13 -5.79669e-13 -3.27774e-14)
(7.48702e-14 -5.16777e-13 -2.84573e-14)
(2.79619e-14 -2.56443e-13 -2.52062e-14)
(1.50127e-12 -3.67816e-13 -2.06214e-13)
(1.17854e-12 -1.24703e-12 -1.71113e-13)
(8.77674e-13 -1.6331e-12 -1.3618e-13)
(6.47145e-13 -1.38615e-12 -1.09546e-13)
(4.69695e-13 -1.18298e-12 -8.90863e-14)
(3.32524e-13 -1.01525e-12 -7.32639e-14)
(2.26174e-13 -8.75837e-13 -6.10625e-14)
(1.43542e-13 -7.59311e-13 -5.14001e-14)
(7.9271e-14 -6.59508e-13 -4.40111e-14)
(2.95673e-14 -3.22653e-13 -3.81401e-14)
(2.09671e-12 -9.14248e-13 -3.64848e-13)
(1.56406e-12 -2.24624e-12 -2.915e-13)
(1.11632e-12 -2.45385e-12 -2.2556e-13)
(7.91761e-13 -2.00261e-12 -1.76815e-13)
(5.54598e-13 -1.64839e-12 -1.40438e-13)
(3.80102e-13 -1.36812e-12 -1.13092e-13)
(2.51036e-13 -1.14416e-12 -9.22136e-14)
(1.55228e-13 -9.63717e-13 -7.60775e-14)
(8.3969e-14 -8.14941e-13 -6.36553e-14)
(3.12439e-14 -3.92997e-13 -5.40319e-14)
(3.00276e-12 -1.82763e-12 -6.49186e-13)
(2.11436e-12 -3.82367e-12 -4.94746e-13)
(1.43882e-12 -3.65225e-12 -3.686e-13)
(9.77737e-13 -2.85426e-12 -2.79315e-13)
(6.58975e-13 -2.2589e-12 -2.15225e-13)
(4.36245e-13 -1.80889e-12 -1.68487e-13)
(2.79311e-13 -1.46408e-12 -1.33838e-13)
(1.68095e-13 -1.19672e-12 -1.07829e-13)
(8.89853e-14 -9.84466e-13 -8.7994e-14)
(3.29791e-14 -4.67835e-13 -7.296e-14)
(1.0176e-11 -3.37632e-12 -1.16693e-12)
(2.91412e-12 -6.35417e-12 -8.39516e-13)
(1.87528e-12 -5.42538e-12 -5.97118e-13)
(1.21407e-12 -4.04105e-12 -4.34413e-13)
(7.83396e-13 -3.06414e-12 -3.2278e-13)
(4.98494e-13 -2.36134e-12 -2.44455e-13)
(3.07696e-13 -1.84631e-12 -1.88539e-13)
(1.78771e-13 -1.46273e-12 -1.47768e-13)
(9.11741e-14 -1.16978e-12 -1.17556e-13)
(3.18392e-14 -5.47637e-13 -9.50862e-14)
(2.00829e-08 -2.19359e-11 -2.65975e-12)
(7.12275e-12 -2.54671e-11 -1.43174e-12)
(1.81182e-12 -8.0942e-12 -9.62764e-13)
(1.19072e-12 -5.70736e-12 -6.67816e-13)
(7.9299e-13 -4.12969e-12 -4.75887e-13)
(5.32336e-13 -3.05371e-12 -3.47356e-13)
(3.58291e-13 -2.30188e-12 -2.59165e-13)
(2.4022e-13 -1.76513e-12 -1.97238e-13)
(1.59056e-13 -1.37108e-12 -1.52738e-13)
(1.02897e-13 -6.3222e-13 -1.20421e-13)
(2.29591e-13 3.75564e-13 -1.90692e-14)
(2.16477e-13 3.46578e-13 -1.6247e-14)
(1.89661e-13 -5.63239e-14 -1.26111e-14)
(1.64092e-13 -5.52398e-14 -9.47865e-15)
(1.39715e-13 -5.40142e-14 -6.96943e-15)
(1.16458e-13 -5.27869e-14 -4.9171e-15)
(9.42512e-14 -5.15858e-14 -3.4019e-15)
(7.30398e-14 -5.04388e-14 -2.46521e-15)
(5.27664e-14 -4.91511e-14 -3.13134e-15)
(3.34955e-14 -2.56934e-14 -7.32318e-15)
(5.04293e-13 3.40667e-13 -2.80168e-14)
(4.65308e-13 2.39375e-13 -2.3659e-14)
(3.98334e-13 -1.95188e-13 -1.87098e-14)
(3.36202e-13 -1.87445e-13 -1.45723e-14)
(2.78549e-13 -1.79889e-13 -1.12185e-14)
(2.25018e-13 -1.72702e-13 -8.67051e-15)
(1.75246e-13 -1.65863e-13 -6.72938e-15)
(1.28972e-13 -1.59397e-13 -5.51916e-15)
(8.58965e-14 -1.52751e-13 -5.40696e-15)
(4.60117e-14 -7.90041e-14 -8.03224e-15)
(6.26119e-13 2.73934e-13 -4.5427e-14)
(5.56345e-13 6.85585e-14 -3.86148e-14)
(4.59356e-13 -3.92339e-13 -3.11437e-14)
(3.7334e-13 -3.66907e-13 -2.5152e-14)
(2.97038e-13 -3.43253e-13 -2.033e-14)
(2.29307e-13 -3.2149e-13 -1.66802e-14)
(1.6911e-13 -3.01389e-13 -1.3959e-14)
(1.15612e-13 -2.82817e-13 -1.19754e-14)
(6.80164e-14 -2.64907e-13 -1.10669e-14)
(2.59156e-14 -1.3525e-13 -1.21714e-14)
(8.25888e-13 1.56312e-13 -7.7774e-14)
(7.07044e-13 -1.98701e-13 -6.60166e-14)
(5.66122e-13 -6.72375e-13 -5.38073e-14)
(4.46802e-13 -6.10559e-13 -4.41575e-14)
(3.45702e-13 -5.55269e-13 -3.65743e-14)