/*--------------------------------*- C++ -*----------------------------------*\
| =========                 |                                                 |
| \\      /  F ield         | OpenFOAM: The Open Source CFD Toolbox           |
|  \\    /   O peration     | Version:  4.1                                   |
|   \\  /    A nd           | Web:      www.OpenFOAM.org                      |
|    \\/     M anipulation  |                                                 |
\*---------------------------------------------------------------------------*/
FoamFile
{
    version     2.0;
    format      ascii;
    class       volScalarField;
    location    "1";
    object      Ma;
}
// * * * * * * * * * * * * * * * * * * * * * * * * * * * * * * * * * * * * * //

dimensions      [0 0 0 0 0 0 0];

internalField   nonuniform List<scalar> 
18000
(
5.03724e-12
4.98258e-12
4.91579e-12
4.86194e-12
4.80829e-12
4.75539e-12
4.7029e-12
4.65161e-12
4.60106e-12
4.55248e-12
6.25336e-12
6.04198e-12
5.82634e-12
5.62907e-12
5.44019e-12
5.25875e-12
5.08437e-12
4.91724e-12
4.75599e-12
4.60566e-12
7.84955e-12
7.39206e-12
6.95315e-12
6.552e-12
6.17795e-12
5.82961e-12
5.50559e-12
5.20212e-12
4.91934e-12
4.65997e-12
9.96972e-12
9.12655e-12
8.35709e-12
7.66459e-12
7.04126e-12
6.47863e-12
5.96932e-12
5.508e-12
5.08903e-12
4.71523e-12
1.28245e-11
1.13789e-11
1.01172e-11
9.0149e-12
8.05577e-12
7.21724e-12
6.48213e-12
5.83625e-12
5.26641e-12
4.77171e-12
1.67215e-11
1.43366e-11
1.23455e-11
1.06642e-11
9.25265e-12
8.06061e-12
7.04997e-12
6.18908e-12
5.45131e-12
4.82911e-12
2.21068e-11
1.82758e-11
1.51907e-11
1.26926e-11
1.06723e-11
9.02749e-12
7.67954e-12
6.56774e-12
5.64487e-12
4.88745e-12
2.99315e-11
2.39497e-11
1.93198e-11
1.57461e-11
1.29881e-11
1.08432e-11
9.16283e-12
7.83749e-12
6.78413e-12
5.99708e-12
6.36138e-09
6.58697e-09
6.22871e-09
5.89771e-09
5.59617e-09
5.32114e-09
5.06976e-09
4.83947e-09
4.62883e-09
4.5743e-09
7.19624e-07
7.42667e-08
6.35845e-08
5.58882e-08
4.93588e-08
4.38016e-08
3.90587e-08
3.50022e-08
3.14085e-08
1.32053e-07
5.49082e-12
5.42723e-12
5.35578e-12
5.29356e-12
5.23253e-12
5.17267e-12
5.11245e-12
5.05457e-12
4.99726e-12
4.94149e-12
6.88408e-12
6.63841e-12
6.39798e-12
6.17066e-12
5.95374e-12
5.74552e-12
5.54715e-12
5.3567e-12
5.17438e-12
5.00209e-12
8.73159e-12
8.19423e-12
7.69838e-12
7.23193e-12
6.80024e-12
6.39962e-12
6.02881e-12
5.68304e-12
5.36118e-12
5.06524e-12
1.12266e-11
1.02275e-11
9.34079e-12
8.52845e-12
7.8021e-12
7.15051e-12
6.56482e-12
6.03694e-12
5.55856e-12
5.12866e-12
1.46521e-11
1.29168e-11
1.14331e-11
1.01236e-11
8.99367e-12
8.01475e-12
7.16287e-12
6.41927e-12
5.76687e-12
5.19516e-12
1.94391e-11
1.65218e-11
1.41284e-11
1.20997e-11
1.04169e-11
9.01158e-12
7.832e-12
6.83518e-12
5.98773e-12
5.26396e-12
2.62438e-11
2.14396e-11
1.76394e-11
1.45688e-11
1.21278e-11
1.01676e-11
8.5806e-12
7.28651e-12
6.22046e-12
5.3347e-12
3.61685e-11
2.82512e-11
2.22724e-11
1.76887e-11
1.42055e-11
1.15229e-11
9.4343e-12
7.78944e-12
6.47888e-12
5.42134e-12
3.0073e-10
7.13524e-10
5.92954e-10
4.93313e-10
4.14609e-10
3.51556e-10
3.00531e-10
2.58852e-10
2.24583e-10
2.00644e-10
5.15129e-07
7.35842e-08
6.46238e-08
5.69513e-08
5.0535e-08
4.51255e-08
4.05284e-08
3.65932e-08
3.32193e-08
3.24409e-08
6.06355e-13
5.86021e-13
4.86131e-13
4.71395e-13
4.57526e-13
4.44832e-13
4.33101e-13
4.22868e-13
4.13409e-13
4.03231e-13
8.39792e-13
7.70422e-13
7.02252e-13
6.50046e-13
6.02349e-13
5.59698e-13
5.20861e-13
4.86571e-13
4.57484e-13
4.16794e-13
1.09262e-12
9.69439e-13
9.27971e-13
8.3579e-13
7.53154e-13
6.80307e-13
6.17163e-13
5.62566e-13
5.13145e-13
4.35421e-13
1.50248e-12
1.31535e-12
1.2656e-12
1.10579e-12
9.67153e-13
8.49554e-13
7.49978e-13
6.65394e-13
5.91033e-13
4.60785e-13
2.14942e-12
1.86623e-12
1.74883e-12
1.47871e-12
1.25272e-12
1.06834e-12
9.16732e-13
7.91739e-13
6.84529e-13
4.93105e-13
3.18123e-12
2.72961e-12
2.44058e-12
1.98751e-12
1.62821e-12
1.34537e-12
1.1215e-12
9.42733e-13
7.92938e-13
5.3132e-13
4.84995e-12
4.07189e-12
3.43694e-12
2.68517e-12
2.11927e-12
1.69327e-12
1.3684e-12
1.11836e-12
9.16312e-13
5.75777e-13
7.73029e-12
6.18135e-12
4.8863e-12
3.64602e-12
2.7633e-12
2.12903e-12
1.66541e-12
1.32117e-12
1.05426e-12
6.25438e-13
4.77357e-10
3.65096e-11
2.9466e-11
2.14898e-11
1.60015e-11
1.21313e-11
9.3505e-12
7.31958e-12
5.81457e-12
4.65872e-12
4.40755e-07
8.22434e-09
6.12055e-09
4.7293e-09
3.70948e-09
2.94839e-09
2.37179e-09
1.92901e-09
1.5858e-09
1.36524e-09
3.82014e-13
3.59664e-13
1.72327e-13
1.52023e-13
1.31737e-13
1.12683e-13
9.48767e-14
7.84682e-14
6.40521e-14
3.89266e-14
5.30814e-13
4.59621e-13
3.86088e-13
3.36655e-13
2.90003e-13
2.48369e-13
2.11665e-13
1.79869e-13
1.53217e-13
8.03115e-14
5.9599e-13
4.9075e-13
5.23822e-13
4.56992e-13
3.96567e-13
3.45185e-13
3.02536e-13
2.68528e-13
2.39242e-13
1.19925e-13
7.32177e-13
6.38229e-13
7.61221e-13
6.60017e-13
5.70551e-13
4.96691e-13
4.3591e-13
3.866e-13
3.43239e-13
1.71161e-13
9.65453e-13
9.49375e-13
1.10915e-12
9.45198e-13
8.0491e-13
6.9076e-13
5.97984e-13
5.22741e-13
4.56349e-13
2.24316e-13
1.35845e-12
1.49405e-12
1.61351e-12
1.33965e-12
1.11324e-12
9.34466e-13
7.91571e-13
6.78091e-13
5.7936e-13
2.80733e-13
2.01172e-12
2.37519e-12
2.34525e-12
1.88218e-12
1.51752e-12
1.23887e-12
1.0223e-12
8.53766e-13
7.12336e-13
3.40383e-13
3.35859e-12
3.78258e-12
3.4101e-12
2.63027e-12
2.04681e-12
1.61839e-12
1.29683e-12
1.0529e-12
8.56364e-13
4.03187e-13
5.45411e-10
8.41553e-12
4.76421e-12
3.54265e-12
2.67607e-12
2.05873e-12
1.608e-12
1.27509e-12
1.01403e-12
4.76387e-13
4.37111e-07
2.64822e-09
3.07409e-10
2.06352e-10
1.42148e-10
1.00015e-10
7.17208e-11
5.23353e-11
3.88386e-11
2.96817e-11
3.81456e-13
3.5865e-13
1.71705e-13
1.51222e-13
1.30822e-13
1.11671e-13
9.41388e-14
7.7654e-14
6.27274e-14
3.69257e-14
5.30215e-13
4.59007e-13
3.85684e-13
3.36413e-13
2.89789e-13
2.47828e-13
2.11101e-13
1.79669e-13
1.52697e-13
7.91224e-14
5.94892e-13
4.8974e-13
5.23657e-13
4.56891e-13
3.96181e-13
3.44945e-13
3.02244e-13
2.67974e-13
2.3858e-13
1.19014e-13
7.2988e-13
6.36772e-13
7.60937e-13
6.59936e-13
5.70502e-13
4.966e-13
4.3593e-13
3.86536e-13
3.43046e-13
1.69946e-13
9.60189e-13
9.47157e-13
1.10954e-12
9.45528e-13
8.05294e-13
6.91459e-13
5.98115e-13
5.22344e-13
4.56353e-13
2.23917e-13
1.34614e-12
1.4909e-12
1.61361e-12
1.34084e-12
1.11436e-12
9.35656e-13
7.9273e-13
6.78706e-13
5.79977e-13
2.80522e-13
1.98439e-12
2.37094e-12
2.3469e-12
1.8846e-12
1.52033e-12
1.24153e-12
1.02445e-12
8.5536e-13
7.14118e-13
3.40974e-13
3.32549e-12
3.77717e-12
3.41398e-12
2.63552e-12
2.05223e-12
1.62346e-12
1.3011e-12
1.05648e-12
8.59259e-13
4.04818e-13
5.83121e-10
9.96921e-12
4.99321e-12
3.67117e-12
2.74932e-12
2.09927e-12
1.62923e-12
1.28489e-12
1.01727e-12
4.71844e-13
4.64539e-07
2.90285e-09
2.5732e-11
8.82237e-12
5.68759e-12
3.85229e-12
2.70383e-12
1.95939e-12
1.44764e-12
7.74539e-13
3.81495e-13
3.58302e-13
1.72192e-13
1.51754e-13
1.31148e-13
1.1188e-13
9.41308e-14
7.79762e-14
6.31625e-14
3.6819e-14
5.31099e-13
4.59459e-13
3.8687e-13
3.37429e-13
2.90731e-13
2.48535e-13
2.11488e-13
1.79874e-13
1.53308e-13
7.97087e-14
5.96753e-13
4.91516e-13
5.26024e-13
4.58738e-13
3.97941e-13
3.46165e-13
3.03134e-13
2.68619e-13
2.39083e-13
1.19591e-13
7.33701e-13
6.40779e-13
7.64819e-13
6.63039e-13
5.73062e-13
4.98489e-13
4.37207e-13
3.87719e-13
3.43742e-13
1.7038e-13
9.6749e-13
9.54555e-13
1.11566e-12
9.50541e-13
8.09215e-13
6.94794e-13
6.00791e-13
5.24467e-13
4.57796e-13
2.24841e-13
1.3596e-12
1.50411e-12
1.62429e-12
1.34893e-12
1.12064e-12
9.40929e-13
7.96955e-13
6.81648e-13
5.82474e-13
2.82185e-13
2.00918e-12
2.39365e-12
2.36504e-12
1.8984e-12
1.53092e-12
1.2501e-12
1.03116e-12
8.60512e-13
7.17965e-13
3.43635e-13
3.38103e-12
3.81796e-12
3.44531e-12
2.6587e-12
2.06959e-12
1.63693e-12
1.31183e-12
1.06459e-12
8.65241e-13
4.08718e-13
6.20599e-10
1.04632e-11
5.05921e-12
3.7146e-12
2.77989e-12
2.12162e-12
1.64575e-12
1.29705e-12
1.02648e-12
4.77985e-13
5.05463e-07
3.11823e-09
2.45729e-11
5.21727e-12
3.70678e-12
2.7293e-12
2.05011e-12
1.56888e-12
1.20799e-12
5.59423e-13
3.81401e-13
3.58035e-13
1.72716e-13
1.52391e-13
1.31736e-13
1.12495e-13
9.46328e-14
7.83455e-14
6.5834e-14
6.3779e-14
5.32064e-13
4.60042e-13
3.88525e-13
3.3869e-13
2.91835e-13
2.49615e-13
2.12465e-13
1.80583e-13
1.53963e-13
8.84091e-14
5.98963e-13
4.93518e-13
5.28667e-13
4.61118e-13
3.99818e-13
3.47749e-13
3.04185e-13
2.69535e-13
2.40241e-13
1.23928e-13
7.38142e-13
6.45272e-13
7.68988e-13
6.66742e-13
5.76209e-13
5.011e-13
4.39039e-13
3.88897e-13
3.45446e-13
1.73742e-13
9.75945e-13
9.62926e-13
1.12251e-12
9.5617e-13
8.13764e-13
6.98805e-13
6.04219e-13
5.27125e-13
4.60049e-13
2.28237e-13
1.37553e-12
1.51848e-12
1.6361e-12
1.35855e-12
1.12802e-12
9.47144e-13
8.02475e-13
6.85998e-13
5.85732e-13
2.86194e-13
2.03808e-12
2.41866e-12
2.38469e-12
1.91405e-12
1.54306e-12
1.26015e-12
1.03959e-12
8.67267e-13
7.23285e-13
3.48732e-13
3.39875e-12
3.86141e-12
3.47944e-12
2.68458e-12
2.08936e-12
1.65233e-12
1.32489e-12
1.07548e-12
8.73485e-13
4.15259e-13
6.14687e-10
9.98067e-12
5.11543e-12
3.75852e-12
2.81242e-12
2.14651e-12
1.66592e-12
1.31233e-12
1.03859e-12
4.87286e-13
5.23213e-07
3.00047e-09
2.2111e-11
5.24385e-12
3.74413e-12
2.75993e-12
2.07575e-12
1.58868e-12
1.22373e-12
5.70532e-13
3.81332e-13
3.56826e-13
1.72781e-13
1.52583e-13
1.32932e-13
1.17122e-13
1.12389e-13
2.33686e-13
8.45401e-13
2.18231e-12
5.32121e-13
4.59222e-13
3.88798e-13
3.39284e-13
2.93037e-13
2.52423e-13
2.19756e-13
2.32892e-13
5.27441e-13
1.44002e-12
5.99407e-13
4.92959e-13
5.29051e-13
4.61659e-13
4.01059e-13
3.50577e-13
3.10854e-13
2.92649e-13
4.1281e-13
9.61644e-13
7.39332e-13
6.44656e-13
7.69241e-13
6.67316e-13
5.77319e-13
5.03638e-13
4.45658e-13
4.03663e-13
4.2709e-13
6.88673e-13
9.77674e-13
9.61706e-13
1.12216e-12
9.56464e-13
8.14951e-13
7.00956e-13
6.10202e-13
5.39998e-13
5.07706e-13
5.42832e-13
1.37674e-12
1.51585e-12
1.63473e-12
1.3586e-12
1.12944e-12
9.50226e-13
8.09437e-13
6.99977e-13
6.20337e-13
4.82539e-13
2.03683e-12
2.41362e-12
2.38205e-12
1.91406e-12
1.54508e-12
1.26457e-12
1.04779e-12
8.81902e-13
7.52879e-13
4.78614e-13
3.20519e-12
3.85087e-12
3.47545e-12
2.6853e-12
2.09298e-12
1.6581e-12
1.33382e-12
1.0922e-12
9.02663e-13
5.08296e-13
3.84663e-10
7.06024e-12
5.09211e-12
3.76075e-12
2.81828e-12
2.15511e-12
1.67863e-12
1.33272e-12
1.06772e-12
5.59597e-13
3.93317e-07
1.38094e-09
1.08549e-11
5.18341e-12
3.74946e-12
2.77094e-12
2.09198e-12
1.61281e-12
1.25481e-12
6.31889e-13
4.19256e-13
4.60471e-13
2.58616e-13
1.54901e-13
2.73845e-13
7.78738e-13
1.83808e-12
7.41926e-12
2.78217e-11
5.67563e-11
6.04785e-13
6.41498e-13
5.04105e-13
3.68634e-13
3.08617e-13
6.59697e-13
1.38415e-12
4.63592e-12
1.67342e-11
3.77693e-11
7.40975e-13
8.12373e-13
7.16631e-13
5.44557e-13
3.9306e-13
5.4101e-13
1.17733e-12
3.1607e-12
1.07915e-11
2.52203e-11
9.74359e-13
1.10484e-12
1.02719e-12
8.04444e-13
5.91488e-13
5.46427e-13
1.07663e-12
2.36402e-12
7.4461e-12
1.73692e-11
1.34368e-12
1.55372e-12
1.45151e-12
1.14809e-12
8.67845e-13
6.83946e-13
9.55016e-13
1.97507e-12
5.44402e-12
1.2326e-11
1.91971e-12
2.23405e-12
2.03753e-12
1.60034e-12
1.21893e-12
9.27872e-13
9.50828e-13
1.78773e-12
4.17876e-12
8.99065e-12
2.81026e-12
3.27174e-12
2.85833e-12
2.20096e-12
1.66621e-12
1.2514e-12
1.07014e-12
1.58266e-12
3.34468e-12
6.72352e-12
4.07294e-12
4.8546e-12
4.02152e-12
3.00693e-12
2.23497e-12
1.65686e-12
1.30046e-12
1.48999e-12
2.77635e-12
5.14545e-12
3.08093e-10
7.25361e-12
5.68022e-12
4.10398e-12
2.96649e-12
2.15497e-12
1.61877e-12
1.52464e-12
2.38005e-12
4.02491e-12
1.29836e-07
3.48942e-09
1.81005e-11
5.46436e-12
3.88892e-12
2.75796e-12
2.00821e-12
1.66935e-12
2.12745e-12
3.2245e-12
2.49533e-12
2.33537e-12
1.48882e-12
1.79341e-13
2.76397e-12
9.35203e-12
3.16124e-11
1.36252e-10
3.4728e-10
4.44712e-10
3.51693e-12
3.37873e-12
2.49169e-12
1.11165e-12
1.38265e-12
6.5615e-12
2.16614e-11
8.2743e-11
2.15454e-10
2.81039e-10
4.78225e-12
4.62631e-12
3.64457e-12
2.24949e-12
2.21548e-13
4.2515e-12
1.50383e-11
5.34777e-11
1.399e-10
1.9301e-10
6.44569e-12
6.19392e-12
5.02654e-12
3.50901e-12
1.34834e-12
2.36991e-12
1.03893e-11
3.61391e-11
9.43009e-11
1.3822e-10
8.68263e-12
8.19727e-12
6.70828e-12
4.96627e-12
2.73898e-12
7.81619e-13
7.0972e-12
2.49999e-11
6.55802e-11
1.015e-10
1.17466e-11
1.08042e-11
8.79152e-12
6.6665e-12
4.21895e-12
1.06568e-12
4.54559e-12
1.75048e-11
4.67812e-11
7.59544e-11
1.6029e-11
1.42745e-11
1.14218e-11
8.69105e-12
5.87999e-12
2.59511e-12
2.47803e-12
1.24257e-11
3.40723e-11
5.77274e-11
2.21839e-11
1.89817e-11
1.47955e-11
1.11431e-11
7.75235e-12
4.18322e-12
9.71129e-13
8.70472e-12
2.5185e-11
4.44401e-11
8.39121e-10
2.6059e-11
1.92078e-11
1.41663e-11
9.90946e-12
5.88303e-12
1.5928e-12
5.85592e-12
1.87998e-11
3.45828e-11
1.08581e-06
4.83274e-09
2.9533e-11
1.79648e-11
1.24152e-11
7.71083e-12
3.11223e-12
3.6292e-12
1.40798e-11
2.71488e-11
3.2644e-12
2.93653e-12
1.9281e-12
1.98462e-12
8.65292e-12
3.26325e-11
1.51539e-10
4.90571e-10
8.40381e-10
9.45334e-10
4.31599e-12
4.02233e-12
3.05701e-12
1.62398e-12
5.3676e-12
2.15768e-11
9.10457e-11
2.96173e-10
5.14541e-10
5.63782e-10
5.58957e-12
5.27514e-12
4.3297e-12
2.65696e-12
2.89089e-12
1.41075e-11
5.75702e-11
1.86805e-10
3.38705e-10
3.66599e-10
7.21393e-12
6.78535e-12
5.75967e-12
4.10965e-12
1.93144e-12
8.78691e-12
3.75083e-11
1.22093e-10
2.31667e-10
2.49025e-10
9.33535e-12
8.65592e-12
7.4202e-12
5.70785e-12
3.007e-12
5.03227e-12
2.46465e-11
8.17897e-11
1.62298e-10
1.73765e-10
1.2177e-11
1.10271e-11
9.4012e-12
7.47246e-12
4.74245e-12
2.58209e-12
1.59735e-11
5.5671e-11
1.15665e-10
1.2374e-10
1.60737e-11
1.41032e-11
1.18251e-11
9.48308e-12
6.61445e-12
2.65222e-12
9.9778e-12
3.83399e-11
8.33301e-11
8.94998e-11
2.15659e-11
1.8182e-11
1.48606e-11
1.18305e-11
8.61534e-12
4.41861e-12
5.64985e-12
2.64064e-11
6.05566e-11
6.55297e-11
3.80938e-10
2.53859e-11
1.87457e-11
1.46395e-11
1.08196e-11
6.47294e-12
2.86352e-12
1.79449e-11
4.42558e-11
4.83885e-11
2.43731e-07
1.07241e-08
8.08422e-11
1.80426e-11
1.32833e-11
8.56868e-12
2.87307e-12
1.17598e-11
3.23912e-11
3.59162e-11
1.04065e-12
1.29054e-12
1.54172e-12
3.17998e-12
8.29605e-12
2.40835e-11
8.37447e-11
2.24329e-10
3.29887e-10
3.25835e-10
1.14392e-12
1.31076e-12
1.43244e-12
2.43066e-12
5.97011e-12
1.70445e-11
5.63806e-11
1.46352e-10
2.01539e-10
1.6532e-10
1.2532e-12
1.3743e-12
1.45274e-12
1.98198e-12
4.30373e-12
1.20836e-11
3.86101e-11
9.80378e-11
1.28946e-10
7.71387e-11
1.37023e-12
1.46941e-12
1.55009e-12
1.82461e-12
3.19151e-12
8.57864e-12
2.69699e-11
6.73222e-11
8.56972e-11
3.47534e-11
1.49686e-12
1.58605e-12
1.68679e-12
1.85227e-12
2.53426e-12
6.09771e-12
1.89807e-11
4.72357e-11
5.83936e-11
1.62753e-11
1.64469e-12
1.72186e-12
1.84137e-12
1.969e-12
2.25646e-12
4.43685e-12
1.34211e-11
3.3676e-11
4.05122e-11
1.03026e-11
1.8221e-12
1.88102e-12
2.0067e-12
2.12726e-12
2.23089e-12
3.35666e-12
9.50193e-12
2.41405e-11
2.84196e-11
9.44185e-12
2.19229e-12
2.06849e-12
2.1877e-12
2.30295e-12
2.33228e-12
2.77759e-12
6.79846e-12
1.74142e-11
2.0094e-11
9.38939e-12
9.2599e-10
1.84683e-11
2.38273e-12
2.48887e-12
2.49283e-12
2.56511e-12
4.95776e-12
1.26232e-11
1.42554e-11
9.19374e-12
4.11967e-07
1.35506e-08
5.87689e-11
3.01903e-12
2.67507e-12
2.56946e-12
3.74408e-12
9.16476e-12
1.00833e-11
8.64744e-12
7.73414e-13
1.47494e-12
1.60282e-12
2.5134e-12
4.12302e-12
6.75231e-12
1.45765e-11
5.64347e-11
1.95523e-10
5.04646e-10
7.09956e-13
1.32484e-12
1.38526e-12
2.13777e-12
3.46986e-12
5.71578e-12
1.09781e-11
3.50866e-11
1.19514e-10
3.05297e-10
6.47233e-13
1.18372e-12
1.19318e-12
1.80931e-12
2.91093e-12
4.78295e-12
8.6961e-12
2.31721e-11
7.6521e-11
1.92574e-10
5.94532e-13
1.06244e-12
1.03234e-12
1.54905e-12
2.45257e-12
4.00615e-12
7.0377e-12
1.61944e-11
5.09191e-11
1.26063e-10
5.48531e-13
9.58512e-13
8.95032e-13
1.32438e-12
2.07362e-12
3.38044e-12
5.76238e-12
1.18975e-11
3.4923e-11
8.50873e-11
5.09388e-13
8.69364e-13
7.79636e-13
1.14401e-12
1.7773e-12
2.85739e-12
4.77493e-12
9.0921e-12
2.45589e-11
5.8954e-11
4.7581e-13
7.93106e-13
6.81438e-13
9.9021e-13
1.52021e-12
2.42253e-12
4.01181e-12
7.16393e-12
1.76548e-11
4.17739e-11
1.09343e-12
7.29306e-13
5.98965e-13
8.60339e-13
1.31027e-12
2.07276e-12
3.3957e-12
5.78312e-12
1.29292e-11
3.01966e-11
1.34817e-09
5.17233e-11
6.31727e-13
7.48313e-13
1.13555e-12
1.78437e-12
2.89163e-12
4.75818e-12
9.63179e-12
2.22201e-11
4.09514e-07
4.12081e-08
3.23105e-10
3.47082e-12
9.33646e-13
1.53336e-12
2.46437e-12
3.96934e-12
7.27137e-12
1.66083e-11
1.04365e-12
1.83026e-12
1.63602e-12
2.16595e-12
3.01119e-12
4.35351e-12
6.63354e-12
1.22706e-11
4.98878e-11
1.80092e-10
9.71247e-13
1.67811e-12
1.46628e-12
1.93501e-12
2.66408e-12
3.7931e-12
5.65833e-12
9.87475e-12
3.48914e-11
1.08498e-10
9.01347e-13
1.53231e-12
1.30289e-12
1.71149e-12
2.34073e-12
3.30495e-12
4.81794e-12
7.84863e-12
2.45514e-11
6.91948e-11
8.40079e-13
1.40478e-12
1.16387e-12
1.51745e-12
2.06535e-12
2.89116e-12
4.15463e-12
6.33773e-12
1.76718e-11
4.62148e-11
7.86735e-13
1.29344e-12
1.04399e-12
1.35097e-12
1.83393e-12
2.54649e-12
3.62158e-12
5.25692e-12
1.28967e-11
3.19502e-11
7.40247e-13
1.19608e-12
9.3975e-13
1.2087e-12
1.62914e-12
2.25004e-12
3.18595e-12
4.46976e-12
9.51197e-12
2.26977e-11
6.99406e-13
1.11017e-12
8.49466e-13
1.08482e-12
1.45352e-12
2.00118e-12
2.81772e-12
3.86738e-12
7.07332e-12
1.64756e-11
1.53181e-12
1.03797e-12
7.71386e-13
9.76789e-13
1.3007e-12
1.78212e-12
2.49909e-12
3.38587e-12
5.305e-12
1.21679e-11
1.92483e-09
9.12147e-11
8.3954e-13
8.79857e-13
1.16782e-12
1.59139e-12
2.22619e-12
2.98417e-12
4.01889e-12
9.09966e-12
5.01796e-07
7.20543e-08
7.83761e-10
3.65468e-12
9.61239e-13
1.42465e-12
1.9874e-12
2.64014e-12
3.05899e-12
6.86352e-12
1.43655e-12
2.30226e-12
1.65331e-12
1.89206e-12
2.27009e-12
2.81818e-12
3.77266e-12
5.68408e-12
1.29144e-11
2.92087e-11
1.35871e-12
2.15489e-12
1.53577e-12
1.76285e-12
2.11165e-12
2.59566e-12
3.34224e-12
4.69274e-12
1.04294e-11
2.13095e-11
1.28037e-12
2.00791e-12
1.41189e-12
1.62309e-12
1.9445e-12
2.3768e-12
2.99409e-12
3.94367e-12
8.15811e-12
1.58041e-11
1.21108e-12
1.87648e-12
1.30007e-12
1.49508e-12
1.79201e-12
2.1854e-12
2.71942e-12
3.41065e-12
6.33708e-12
1.19226e-11
1.14961e-12
1.75897e-12
1.19977e-12
1.37829e-12
1.65409e-12
2.01495e-12
2.49411e-12
3.02266e-12
4.90411e-12
9.1244e-12
1.09483e-12
1.65297e-12
1.10963e-12
1.27368e-12
1.52607e-12
1.85931e-12
2.29595e-12
2.72721e-12
3.78326e-12
7.04166e-12
1.04625e-12
1.55781e-12
1.02858e-12
1.17849e-12
1.41029e-12
1.71928e-12
2.12429e-12
2.48627e-12
2.91246e-12
5.46016e-12
1.97307e-12
1.47714e-12
9.55823e-13
1.09186e-12
1.30495e-12
1.59121e-12
1.9677e-12
2.28796e-12
2.23527e-12
4.25312e-12
2.33309e-09
1.31466e-10
1.18637e-12
1.01168e-12
1.2082e-12
1.47328e-12
1.82363e-12
2.11592e-12
1.70812e-12
3.32122e-12
4.09339e-07
9.86477e-08
1.23458e-09
3.84236e-12
1.01877e-12
1.3606e-12
1.68813e-12
1.95749e-12
1.29243e-12
2.58788e-12
2.00262e-12
2.89599e-12
1.6202e-12
1.59693e-12
1.6575e-12
1.799e-12
2.13416e-12
2.90607e-12
6.10217e-12
8.57821e-12
1.92063e-12
2.76314e-12
1.56024e-12
1.55534e-12
1.62412e-12
1.74484e-12
1.97754e-12
2.46521e-12
4.98373e-12
7.06641e-12
1.83818e-12
2.62599e-12
1.48282e-12
1.49368e-12
1.57115e-12
1.68443e-12
1.85874e-12
2.15036e-12
3.96052e-12
5.73765e-12
1.76341e-12
2.49954e-12
1.40757e-12
1.42938e-12
1.51398e-12
1.62655e-12
1.77158e-12
1.94109e-12
3.12504e-12
4.6597e-12
1.69547e-12
2.38255e-12
1.33499e-12
1.3658e-12
1.4563e-12
1.56984e-12
1.70068e-12
1.80181e-12
2.44641e-12
3.77995e-12
1.6344e-12
2.27491e-12
1.26641e-12
1.30268e-12
1.39628e-12
1.51355e-12
1.6433e-12
1.70174e-12
1.89838e-12
3.06183e-12
1.57867e-12
2.17549e-12
1.2019e-12
1.24156e-12
1.33629e-12
1.45615e-12
1.58826e-12
1.62726e-12
1.45029e-12
2.47664e-12
2.4979e-12
2.09099e-12
1.14119e-12
1.1829e-12
1.27819e-12
1.39827e-12
1.53226e-12
1.56755e-12
1.08813e-12
1.99621e-12
2.61008e-09
1.63186e-10
2.21668e-12
1.12721e-12
1.22102e-12
1.34135e-12
1.47687e-12
1.51547e-12
7.97723e-13
1.60005e-12
1.32751e-07
1.09474e-07
2.72615e-09
2.19606e-11
1.07167e-12
1.27848e-12
1.41997e-12
1.46124e-12
5.53495e-13
1.26839e-12
2.75979e-12
3.566e-12
1.47186e-12
1.21335e-12
1.06429e-12
1.00366e-12
1.13114e-12
1.51179e-12
3.16285e-12
3.71014e-12
2.68043e-12
3.4628e-12
1.46855e-12
1.24647e-12
1.1168e-12
1.03592e-12
1.07234e-12
1.28924e-12
2.70703e-12
3.25731e-12
2.599e-12
3.35074e-12
1.44433e-12
1.25582e-12
1.14798e-12
1.06532e-12
1.04768e-12
1.13271e-12
2.2273e-12
2.777e-12
2.52376e-12
3.24344e-12
1.41226e-12
1.25275e-12
1.16578e-12
1.09173e-12
1.0477e-12
1.03977e-12
1.81511e-12
2.36386e-12
2.45447e-12
3.14204e-12
1.3771e-12
1.24225e-12
1.17391e-12
1.1113e-12
1.0576e-12
9.95487e-13
1.46055e-12
2.00749e-12
2.38989e-12
3.04467e-12
1.33887e-12
1.22525e-12
1.17382e-12
1.12517e-12
1.07403e-12
9.80124e-13
1.15519e-12
1.69831e-12
2.33039e-12
2.95327e-12
1.29938e-12
1.20354e-12
1.16744e-12
1.13284e-12
1.08981e-12
9.80728e-13
8.94827e-13
1.43094e-12
3.22629e-12
2.87545e-12
1.25977e-12
1.17943e-12
1.15539e-12
1.13367e-12
1.10181e-12
9.91033e-13
6.72551e-13
1.20161e-12
2.93994e-09
1.8089e-10
2.95862e-12
1.15626e-12
1.13992e-12
1.12948e-12
1.10797e-12
1.00322e-12
4.82774e-13
1.00447e-12
1.86912e-07
9.96463e-08
2.55721e-09
3.27243e-11
1.1005e-12
1.11614e-12
1.10925e-12
1.01264e-12
3.15565e-13
8.38562e-13
3.65082e-12
4.21726e-12
1.1638e-12
7.63048e-13
4.95647e-13
3.50887e-13
4.83754e-13
7.89895e-13
1.92881e-12
1.96849e-12
3.57983e-12
4.15367e-12
1.20635e-12
8.44217e-13
6.00098e-13
4.21413e-13
4.27512e-13
6.33858e-13
1.76604e-12
1.84348e-12
3.5079e-12
4.08317e-12
1.22693e-12
9.0128e-13
6.83615e-13
5.00124e-13
4.23436e-13
5.11938e-13
1.53315e-12
1.64885e-12
3.4397e-12
4.01093e-12
1.23655e-12
9.44069e-13
7.49882e-13
5.74308e-13
4.55747e-13
4.33273e-13
1.32606e-12
1.4739e-12
3.37515e-12
3.93959e-12
1.23722e-12
9.74122e-13
8.02818e-13
6.39832e-13
5.04504e-13
4.02474e-13
1.14057e-12
1.31634e-12
3.31505e-12
3.8694e-12
1.23146e-12
9.95576e-13
8.45795e-13
6.97692e-13
5.5903e-13
4.11001e-13
9.76673e-13
1.17547e-12
3.25782e-12
3.80061e-12
1.22107e-12
1.0094e-12
8.78686e-13
7.46394e-13
6.12752e-13
4.44263e-13
8.34154e-13
1.05114e-12
4.10774e-12
3.7448e-12
1.20719e-12
1.01696e-12
9.03506e-13
7.8698e-13
6.62687e-13
4.89656e-13
7.12446e-13
9.4168e-13
3.23681e-09
1.79544e-10
3.69211e-12
1.02663e-12
9.2356e-13
8.20566e-13
7.06061e-13
5.38337e-13
6.11296e-13
8.47489e-13
5.36038e-07
6.41151e-08
2.18239e-09
3.97183e-11
1.0784e-12
8.45934e-13
7.4346e-13
5.83123e-13
5.3126e-13
7.69712e-13
4.50379e-12
4.72213e-12
7.4272e-13
4.95664e-13
2.72318e-13
1.5002e-13
2.65246e-13
4.86804e-13
1.39622e-12
1.23102e-12
4.44398e-12
4.70175e-12
7.90856e-13
5.34538e-13
3.1163e-13
1.24594e-13
1.62474e-13
3.84038e-13
1.38388e-12
1.23982e-12
4.38569e-12
4.67694e-12
8.2641e-13
5.71778e-13
3.61097e-13
1.63396e-13
7.56315e-14
2.83841e-13
1.28155e-12
1.16607e-12
4.32874e-12
4.64724e-12
8.5467e-13
6.04775e-13
4.10529e-13
2.21667e-13
4.64455e-14
1.90526e-13
1.18908e-12
1.09815e-12
4.27465e-12
4.61427e-12
8.75423e-13
6.3497e-13
4.5718e-13
2.81656e-13
1.09277e-13
1.05867e-13
1.10419e-12
1.03561e-12
4.22216e-12
4.57856e-12
8.91288e-13
6.60891e-13
4.99551e-13
3.37755e-13
1.76692e-13
3.71523e-14
1.02675e-12
9.7875e-13
4.17235e-12
4.5426e-12
9.02574e-13
6.83292e-13
5.37496e-13
3.8946e-13
2.38812e-13
5.79401e-14
9.58336e-13
9.27626e-13
4.97403e-12
4.51731e-12
9.0946e-13
7.01265e-13
5.70752e-13
4.35723e-13
2.95346e-13
1.20514e-13
8.97773e-13
8.82018e-13
3.44104e-09
1.62785e-10
3.82444e-12
7.2365e-13
5.99461e-13
4.76229e-13
3.46744e-13
1.80834e-13
8.44967e-13
8.40962e-13
8.51758e-07
2.33189e-08
1.1904e-09
2.78256e-11
7.96415e-13
5.13404e-13
3.93405e-13
2.37647e-13
7.99392e-13
8.15848e-13
5.04791e-12
4.97861e-12
3.71399e-13
5.85616e-13
5.08991e-13
4.39334e-13
4.01623e-13
4.4617e-13
1.17551e-12
9.22257e-13
4.99511e-12
4.9854e-12
3.45714e-13
5.2636e-13
4.55572e-13
3.91734e-13
3.55981e-13
4.10495e-13
1.23508e-12
9.90328e-13
4.94649e-12
4.99264e-12
3.35833e-13
4.75017e-13
4.08668e-13
3.46313e-13
3.13127e-13
3.68836e-13
1.19419e-12
9.68724e-13
4.89867e-12
4.99337e-12
3.38372e-13
4.30973e-13
3.68059e-13
3.08498e-13
2.74418e-13
3.30039e-13
1.15536e-12
9.47259e-13
4.85171e-12
4.98885e-12
3.50893e-13
3.96286e-13
3.36752e-13
2.78141e-13
2.41734e-13
2.94388e-13
1.11808e-12
9.27153e-13
4.80732e-12
4.9815e-12
3.68086e-13
3.69362e-13
3.11379e-13
2.535e-13
2.14385e-13
2.62896e-13
1.08333e-12
9.08276e-13
4.76419e-12
4.97141e-12
3.87173e-13
3.49249e-13
2.93798e-13
2.36451e-13
1.94279e-13
2.34461e-13
1.0499e-12
8.90904e-13
5.53641e-12
4.97179e-12
4.06948e-13
3.34222e-13
2.81671e-13
2.25316e-13
1.78903e-13
2.11076e-13
1.01921e-12
8.73368e-13
3.53913e-09
1.47402e-10
3.53325e-12
3.25642e-13
2.73616e-13
2.19743e-13
1.7204e-13
1.92391e-13
9.88415e-13
8.56789e-13
1.04587e-06
3.64167e-08
1.07916e-09
2.21944e-11
3.75183e-13
2.20024e-13
1.749e-13
1.84259e-13
9.59881e-13
8.98411e-13
5.05084e-12
4.9497e-12
3.33165e-13
6.09197e-13
5.38619e-13
4.65413e-13
4.1344e-13
4.3766e-13
1.11167e-12
8.81061e-13
4.99797e-12
4.95872e-12
2.77896e-13
5.41182e-13
4.81403e-13
4.16981e-13
3.73277e-13
4.10434e-13
1.18015e-12
9.52605e-13
4.9497e-12
4.96887e-12
2.44176e-13
4.79142e-13
4.28207e-13
3.71362e-13
3.33208e-13
3.73667e-13
1.14683e-12
9.3417e-13
4.90221e-12
4.97205e-12
2.31757e-13
4.2437e-13
3.8001e-13
3.29814e-13
2.96431e-13
3.40062e-13
1.11492e-12
9.15804e-13
4.85672e-12
4.97094e-12
2.38332e-13
3.78489e-13
3.39301e-13
2.93798e-13
2.63424e-13
3.08044e-13
1.08428e-12
8.99005e-13
4.81264e-12
4.96584e-12
2.5656e-13
3.40352e-13
3.05308e-13
2.62722e-13
2.33531e-13
2.78561e-13
1.05539e-12
8.82975e-13
4.77004e-12
4.95777e-12
2.80375e-13
3.08615e-13
2.76959e-13
2.37252e-13
2.08691e-13
2.51654e-13
1.02757e-12
8.6847e-13
5.54191e-12
4.96031e-12
3.06467e-13
2.83739e-13
2.54654e-13
2.16838e-13
1.87157e-13
2.27574e-13
1.00098e-12
8.5366e-13
3.53913e-09
1.47402e-10
3.51722e-12
2.65135e-13
2.35803e-13
2.00797e-13
1.71601e-13
2.07041e-13
9.75144e-13
8.39666e-13
1.04587e-06
3.64167e-08
1.07914e-09
2.21728e-11
3.1981e-13
1.9124e-13
1.65895e-13
1.94889e-13
9.49691e-13
8.97096e-13
4.50557e-12
4.64194e-12
6.41326e-13
5.07444e-13
3.33243e-13
2.2614e-13
2.61323e-13
4.25852e-13
1.17553e-12
1.09414e-12
4.44741e-12
4.62988e-12
6.76987e-13
5.16407e-13
3.36022e-13
1.93799e-13
1.82371e-13
3.45769e-13
1.19414e-12
1.11397e-12
4.3916e-12
4.6143e-12
7.08427e-13
5.32682e-13
3.56702e-13
1.97562e-13
1.19024e-13
2.61953e-13
1.11886e-12
1.05167e-12
4.3373e-12
4.59333e-12
7.34863e-13
5.51296e-13
3.85057e-13
2.25539e-13
9.12276e-14
1.8442e-13
1.05065e-12
9.94515e-13
4.28501e-12
4.56836e-12
7.5839e-13
5.71184e-13
4.16837e-13
2.64263e-13
1.15842e-13
1.18411e-13
9.88255e-13
9.42304e-13
4.2349e-12
4.54046e-12
7.77185e-13
5.90942e-13
4.49254e-13
3.06397e-13
1.62502e-13
7.26825e-14
9.32323e-13
8.96328e-13
4.1866e-12
4.51093e-12
7.92421e-13
6.09308e-13
4.80218e-13
3.48222e-13
2.12802e-13
7.67967e-14
8.82148e-13
8.54894e-13
4.98859e-12
4.49208e-12
8.0425e-13
6.25902e-13
5.09016e-13
3.872e-13
2.6119e-13
1.17156e-13
8.38577e-13
8.183e-13
3.44104e-09
1.62786e-10
3.78917e-12
6.45903e-13
5.3476e-13
4.23944e-13
3.07069e-13
1.65923e-13
8.00916e-13
7.86773e-13
8.51758e-07
2.33189e-08
1.19036e-09
2.77789e-11
7.21282e-13
4.57443e-13
3.49713e-13
2.15269e-13
7.68756e-13
7.81217e-13
3.6486e-12
4.11684e-12
1.01499e-12
6.57127e-13
3.96175e-13
2.19455e-13
3.31412e-13
6.06777e-13
1.44541e-12
1.66319e-12
3.5836e-12
4.06917e-12
1.06508e-12
7.34735e-13
4.99038e-13
3.08764e-13
2.90118e-13
4.81774e-13
1.35321e-12
1.57044e-12
3.51754e-12
4.01276e-12
1.09588e-12
7.94538e-13
5.83603e-13
3.9789e-13
3.02701e-13
3.80309e-13
1.18303e-12
1.40702e-12
3.45392e-12
3.95414e-12
1.11486e-12
8.39966e-13
6.52252e-13
4.77764e-13
3.49115e-13
3.17548e-13
1.02936e-12
1.25935e-12
3.39342e-12
3.89392e-12
1.12605e-12
8.76434e-13
7.08877e-13
5.47611e-13
4.07782e-13
3.01417e-13
8.92138e-13
1.12681e-12
3.33649e-12
3.83421e-12
1.12948e-12
9.0271e-13
7.55045e-13
6.09103e-13
4.69449e-13
3.21888e-13
7.71906e-13
1.00871e-12
3.28198e-12
3.77479e-12
1.12831e-12
9.22602e-13
7.92099e-13
6.61163e-13
5.27464e-13
3.64766e-13
6.68849e-13
9.06196e-13
4.13033e-12
3.72721e-12
1.12224e-12
9.36166e-13
8.22735e-13
7.05293e-13
5.81073e-13
4.15821e-13
5.83814e-13
8.16029e-13
3.23682e-09
1.79547e-10
3.65482e-12
9.5137e-13
8.46739e-13
7.42293e-13
6.28242e-13
4.68205e-13
5.15757e-13
7.40475e-13
5.36038e-07
6.41151e-08
2.18236e-09
3.96816e-11
1.00538e-12
7.71501e-13
6.68651e-13
5.16303e-13
4.66382e-13
6.83436e-13
2.76138e-12
3.47484e-12
1.30913e-12
1.03645e-12
8.74648e-13
7.89697e-13
8.60104e-13
1.13372e-12
2.12113e-12
2.96777e-12
2.69146e-12
3.39298e-12
1.32806e-12
1.08892e-12
9.44182e-13
8.45073e-13
8.44462e-13
9.90397e-13
1.84454e-12
2.62929e-12
2.61779e-12
3.29955e-12
1.32338e-12
1.1172e-12
9.92956e-13
8.9467e-13
8.51283e-13
8.92819e-13
1.51891e-12
2.2465e-12
2.54794e-12
3.208e-12
1.30982e-12
1.13081e-12
1.02659e-12
9.37226e-13
8.73117e-13
8.43166e-13
1.23025e-12
1.91306e-12
2.48316e-12
3.11914e-12
1.28939e-12
1.1359e-12
1.04938e-12
9.71874e-13
9.03066e-13
8.26719e-13
9.81679e-13
1.62251e-12
2.42197e-12
3.03354e-12
1.2649e-12
1.13255e-12
1.06302e-12
9.99041e-13
9.34542e-13
8.32045e-13
7.66625e-13
1.37034e-12
2.36517e-12
2.95082e-12
1.23766e-12
1.12417e-12
1.06909e-12
1.01772e-12
9.62205e-13
8.48976e-13
5.79962e-13
1.1527e-12
3.25446e-12
2.88141e-12
1.20804e-12
1.11054e-12
1.06957e-12
1.03082e-12
9.83763e-13
8.71396e-13
4.18062e-13
9.65695e-13
2.93995e-09
1.80894e-10
2.93058e-12
1.09783e-12
1.06439e-12
1.03653e-12
1.00054e-12
8.94265e-13
2.80795e-13
8.06651e-13
1.86912e-07
9.96463e-08
2.55719e-09
3.26949e-11
1.03603e-12
1.0338e-12
1.01124e-12
9.12537e-13
1.55657e-13
6.73994e-13
2.01989e-12
2.83505e-12
1.46452e-12
1.38069e-12
1.38084e-12
1.44533e-12
1.63891e-12
2.0874e-12
3.64697e-12
6.2812e-12
1.94746e-12
2.72671e-12
1.43689e-12
1.37641e-12
1.38821e-12
1.44397e-12
1.5758e-12
1.85079e-12
3.02349e-12
5.26581e-12
1.87075e-12
2.60812e-12
1.38679e-12
1.34662e-12
1.37138e-12
1.42636e-12
1.52484e-12
1.68172e-12
2.41938e-12
4.30223e-12
1.80034e-12
2.49587e-12
1.33364e-12
1.30991e-12
1.34478e-12
1.40486e-12
1.49045e-12
1.56908e-12
1.918e-12
3.50433e-12
1.73541e-12
2.39044e-12
1.27922e-12
1.26926e-12
1.31351e-12
1.37908e-12
1.46234e-12
1.49623e-12
1.50857e-12
2.85332e-12
1.67553e-12