/*--------------------------------*- C++ -*----------------------------------*\
| =========                 |                                                 |
| \\      /  F ield         | OpenFOAM: The Open Source CFD Toolbox           |
|  \\    /   O peration     | Version:  4.1                                   |
|   \\  /    A nd           | Web:      www.OpenFOAM.org                      |
|    \\/     M anipulation  |                                                 |
\*---------------------------------------------------------------------------*/
FoamFile
{
    version     2.0;
    format      ascii;
    class       surfaceScalarField;
    location    "1";
    object      phi;
}
// * * * * * * * * * * * * * * * * * * * * * * * * * * * * * * * * * * * * * //

dimensions      [1 0 -1 0 0 0 0];

internalField   nonuniform List<scalar> 
51500
(
3.60612e-13
1.97487e-14
1.3606e-11
-6.04263e-16
2.34874e-14
1.34574e-11
-3.94139e-15
2.1785e-14
1.33084e-11
-3.24893e-15
2.00323e-14
1.31626e-11
-3.12492e-15
1.82546e-14
1.30174e-11
-3.03967e-15
1.64723e-14
1.28742e-11
-3.1795e-15
1.47228e-14
1.2732e-11
-3.0919e-15
1.30337e-14
1.25931e-11
-3.3008e-15
1.13419e-14
1.24561e-11
9.69665e-15
1.23243e-11
-7.26415e-17
3.60414e-13
1.09233e-14
1.69094e-11
-1.19136e-14
1.22392e-14
1.63363e-11
-1.20244e-14
1.03942e-14
1.57782e-11
-1.16993e-14
8.63461e-15
1.52433e-11
-1.13241e-14
7.03992e-15
1.47313e-11
-1.08922e-14
5.58716e-15
1.42394e-11
-1.05556e-14
4.22492e-15
1.37666e-11
-1.02672e-14
3.44575e-15
1.33134e-11
-1.02285e-14
2.28048e-15
1.28763e-11
9.19388e-16
1.24685e-11
-9.19187e-16
3.54876e-13
1.39104e-14
2.12485e-11
-2.77132e-14
1.48715e-14
2.00085e-11
-2.39689e-14
1.22521e-14
1.88375e-11
-2.25502e-14
9.91028e-15
1.77488e-11
-2.12283e-14
7.83737e-15
1.67339e-11
-2.02785e-14
5.99318e-15
1.57888e-11
-1.90705e-14
4.38847e-15
1.49098e-11
-1.82318e-14
2.94882e-15
1.40866e-11
-1.79018e-14
1.6967e-15
1.33195e-11
6.52742e-16
1.26161e-11
-1.607e-15
3.40629e-13
1.84224e-14
2.70144e-11
-5.0101e-14
1.84876e-14
2.47277e-11
-3.97975e-14
1.48004e-14
2.26497e-11
-3.65868e-14
1.16032e-14
2.07693e-11
-3.37256e-14
8.93104e-15
1.90773e-11
-3.11755e-14
6.67412e-15
1.75502e-11
-2.8857e-14
4.77331e-15
1.61681e-11
-2.68002e-14
3.14124e-15
1.49165e-11
-2.54774e-14
1.7614e-15
1.37797e-11
6.12921e-16
1.2766e-11
-2.42948e-15
3.11016e-13
2.48666e-14
3.47839e-11
-9.26073e-14
2.33689e-14
3.08592e-11
-6.1444e-14
1.80595e-14
2.74312e-11
-5.46931e-14
1.37283e-14
2.44366e-11
-4.90373e-14
1.02555e-14
2.18318e-11
-4.40973e-14
7.46015e-15
1.95552e-11
-3.99672e-14
5.1743e-15
1.75597e-11
-3.62358e-14
3.33242e-15
1.58069e-11
-3.36674e-14
1.83926e-15
1.42607e-11
6.56218e-16
1.29193e-11
-3.22767e-15
2.546e-13
3.43116e-14
4.53985e-11
-1.64887e-13
3.01367e-14
3.89154e-11
-9.07911e-14
2.23736e-14
3.34869e-11
-7.82406e-14
1.63659e-14
2.8917e-11
-6.8019e-14
1.18447e-14
2.50821e-11
-5.96297e-14
8.34832e-15
2.18447e-11
-5.25203e-14
5.66501e-15
1.91008e-11
-4.64721e-14
3.56601e-15
1.6764e-11
-4.21529e-14
1.93541e-15
1.47622e-11
7.81923e-16
1.30751e-11
-4.14035e-15
1.59271e-13
6.03677e-14
6.00816e-11
-2.57517e-13
4.90942e-14
4.96499e-11
-1.31523e-13
3.47523e-14
4.12215e-11
-1.08927e-13
2.43485e-14
3.44281e-11
-9.17739e-14
1.68782e-14
2.8938e-11
-7.7921e-14
1.14474e-14
2.44696e-11
-6.68719e-14
7.41378e-15
2.08092e-11
-5.77471e-14
4.43487e-15
1.77913e-11
-5.11662e-14
2.19448e-15
1.52869e-11
4.87239e-16
1.32334e-11
-5.00836e-15
5.99917e-14
-8.41701e-13
8.07752e-11
-3.76807e-13
-9.44516e-13
6.41224e-11
-1.85626e-13
-9.7242e-13
5.12227e-11
-1.47497e-13
-9.90484e-13
4.12766e-11
-1.19512e-13
-1.0029e-12
3.35584e-11
-9.82653e-14
-1.01144e-12
2.75126e-11
-8.16601e-14
-1.01728e-12
2.27341e-11
-6.86553e-14
-1.02128e-12
1.89253e-11
-5.86001e-14
-1.02411e-12
1.58601e-11
-1.04895e-12
1.34228e-11
-5.98068e-15
4.3383e-12
-1.17251e-09
2.10051e-10
4.16364e-12
-1.30669e-09
1.70724e-10
3.78827e-12
-1.32219e-09
1.44401e-10
3.44999e-12
-1.33389e-09
1.24342e-10
3.14873e-12
-1.34348e-09
1.08858e-10
2.8815e-12
-1.35143e-09
9.67464e-11
2.64723e-12
-1.35807e-09
8.71647e-11
2.43321e-12
-1.36367e-09
7.95037e-11
2.12673e-12
-1.36868e-09
7.33201e-11
-1.41617e-09
6.95772e-11
-6.98551e-15
-9.04759e-10
2.06976e-07
-8.03688e-07
3.61551e-10
1.77659e-07
-9.35105e-07
4.69347e-10
1.57089e-07
-9.37623e-07
4.6127e-10
1.39714e-07
-9.39248e-07
4.50825e-10
1.24888e-07
-9.40691e-07
4.39271e-10
1.12182e-07
-9.4199e-07
4.27083e-10
1.01236e-07
-9.43171e-07
3.97745e-10
9.17573e-08
-9.44256e-07
4.51853e-11
8.35255e-08
-9.45454e-07
7.87144e-08
-8.06712e-15
-1.00541e-06
3.3951e-13
8.58884e-14
9.32058e-13
-1.6346e-14
8.12627e-14
9.16472e-13
-2.47229e-14
7.17016e-14
9.02196e-13
-2.37099e-14
6.24061e-14
8.85818e-13
-2.31751e-14
5.34426e-14
8.71338e-13
-2.30711e-14
4.47332e-14
8.57603e-13
-2.29717e-14
3.63177e-14
8.42199e-13
-2.27656e-14
2.82005e-14
8.28981e-13
-2.45266e-14
2.02656e-14
8.1532e-13
1.28136e-14
8.00882e-13
-1.59334e-15
2.85855e-13
7.90404e-14
1.28398e-12
-6.61434e-14
7.2177e-14
1.22096e-12
-8.20676e-14
6.11021e-14
1.16032e-12
-7.84822e-14
5.04546e-14
1.102e-12
-7.64854e-14
3.97851e-14
1.04729e-12
-7.44066e-14
2.7814e-14
9.94595e-13
-7.21482e-14
1.98791e-14
9.47123e-13
-7.15294e-14
1.30882e-14
9.00552e-13
-7.45915e-14
7.32626e-15
8.58264e-13
2.48466e-15
8.15449e-13
-4.22383e-15
2.06548e-13
9.98485e-14
1.79952e-12
-1.67429e-13
8.94726e-14
1.64389e-12
-1.55078e-13
7.50276e-14
1.50904e-12
-1.46584e-13
6.15879e-14
1.37929e-12
-1.39536e-13
4.94688e-14
1.26461e-12
-1.33253e-13
3.84502e-14
1.16014e-12
-1.27638e-13
2.84241e-14
1.06619e-12
-1.22693e-13
1.94404e-14
9.80889e-13
-1.27721e-13
1.12628e-14
9.01828e-13
4.09384e-15
8.32446e-13
-6.61819e-15
8.88071e-14
1.21856e-13
2.56469e-12
-2.91243e-13
1.06206e-13
2.24979e-12
-2.48894e-13
8.70322e-14
1.98262e-12
-2.29818e-13
6.99437e-14
1.74305e-12
-2.14757e-13
5.50079e-14
1.53705e-12
-2.01325e-13
4.18799e-14
1.35867e-12
-1.88465e-13
3.04487e-14
1.20512e-12
-1.78272e-13
2.04003e-14
1.07095e-12
-1.81879e-13
1.1635e-14
9.51105e-13
4.06088e-15
8.47221e-13
-9.62837e-15
-2.4483e-14
1.50234e-13
3.72822e-12
-4.46863e-13
1.26967e-13
3.12764e-12
-3.68097e-13
1.01753e-13
2.63792e-12
-3.32182e-13
7.98907e-14
2.22308e-12
-3.04249e-13
6.13617e-14
1.88135e-12
-2.78781e-13
4.57387e-14
1.60014e-12
-2.5621e-13
3.25194e-14
1.36589e-12
-2.3763e-13
2.14043e-14
1.16951e-12
-2.38348e-13
1.19561e-14
1.00387e-12
4.17464e-15
8.64981e-13
-1.26626e-14
-1.49757e-13
1.86302e-13
5.5418e-12
-6.47965e-13
1.54207e-13
4.41844e-12
-5.20052e-13
1.19847e-13
3.55353e-12
-4.58538e-13
9.17027e-14
2.8584e-12
-4.10119e-13
6.88043e-14
2.31702e-12
-3.67849e-13
5.00898e-14
1.89106e-12
-3.3087e-13
3.48832e-14
1.55368e-12
-3.01323e-13
2.24135e-14
1.28197e-12
-2.96708e-13
1.23493e-14
1.0635e-12
4.14139e-15
8.84756e-13
-1.5578e-14
-5.129e-13
2.54631e-13
7.51742e-12
-9.15436e-13
2.14883e-13
6.35957e-12
-7.13526e-13
1.62234e-13
4.85226e-12
-6.13529e-13
1.20772e-13
3.7097e-12
-5.35906e-13
8.8221e-14
2.87246e-12
-4.69528e-13
6.23513e-14
2.24532e-12
-4.13964e-13
4.13274e-14
1.77053e-12
-3.68681e-13
2.3633e-14
1.40877e-12
-3.5761e-13
1.05892e-14
1.1259e-12
3.50545e-15
9.05578e-13
-1.85678e-14
-9.75452e-13
2.69027e-13
1.03715e-11
-1.27008e-12
1.43603e-13
8.0277e-12
-9.60291e-13
8.78068e-14
6.55711e-12
-8.03719e-13
4.77555e-14
4.87057e-12
-6.83855e-13
1.80365e-14
3.58984e-12
-5.85984e-13
-4.35571e-15
2.68164e-12
-5.04476e-13
-2.14034e-14
2.0299e-12
-4.4121e-13
-3.45618e-14
1.55164e-12
-4.20185e-13
-4.48674e-14
1.19573e-12
-5.35352e-14
9.28672e-13
-2.1562e-14
-1.95824e-12
-1.08199e-11
3.33292e-11
-9.54004e-13
-1.06454e-10
1.79499e-11
-8.09129e-13
-9.67629e-11
1.29628e-11
-6.96287e-13
-8.77402e-11
9.70613e-12
-6.09709e-13
-8.03997e-11
7.556e-12
-5.42027e-13
-7.43501e-11
6.08623e-12
-4.89046e-13
-6.93412e-11
5.05487e-12
-4.49774e-13
-6.51759e-11
4.31235e-12
-5.97404e-13
-6.17195e-11
3.76125e-12
-6.01792e-11
3.36978e-12
-2.46608e-14
-1.64062e-09
2.61746e-08
1.2689e-07
-2.60808e-10
1.54704e-08
-2.01866e-09
-4.21314e-10
1.17968e-08
-2.69362e-09
-4.19033e-10
9.15931e-09
-2.71587e-09
-4.13641e-10
7.21376e-09
-2.71403e-09
-4.06405e-10
5.75341e-09
-2.6992e-09
-3.97982e-10
4.64222e-09
-2.67683e-09
-3.89152e-10
3.786e-09
-2.6511e-09
-3.97356e-10
3.1197e-09
-2.64327e-09
2.65528e-09
-2.80067e-14
-3.88943e-09
3.40614e-13
8.24886e-14
4.02177e-14
-1.54526e-14
7.82923e-14
3.80101e-14
-2.31851e-14
6.90464e-14
3.63021e-14
-2.05885e-14
6.01506e-14
3.49603e-14
-1.86097e-14
5.15377e-14
3.25117e-14
-2.08113e-14
4.3128e-14
2.98509e-14
-1.90742e-14
3.51422e-14
2.8909e-14
-1.98258e-14
2.73365e-14
2.73678e-14
-2.36042e-14
1.97898e-14
2.6243e-14
1.26763e-14
2.60225e-14
-1.25833e-15
2.892e-13
6.00251e-14
6.35324e-14
-6.40008e-14
5.50399e-14
5.81397e-14
-7.39999e-14
4.67217e-14
5.50961e-14
-6.79914e-14
3.86595e-14
4.89956e-14
-6.73053e-14
3.11923e-14
4.41589e-14
-6.30853e-14
2.43385e-14
4.18589e-14
-6.26518e-14
1.79519e-14
3.58721e-14
-6.22438e-14
1.21432e-14
3.23814e-14
-7.1305e-14
6.89969e-15
3.09214e-14
2.4544e-15
2.75267e-14
-4.49619e-15
2.10104e-13
7.6863e-14
9.67163e-14
-1.64687e-13
6.95834e-14
8.72298e-14
-1.40745e-13
5.86818e-14
8.05738e-14
-1.27516e-13
4.86902e-14
7.14952e-14
-1.21445e-13
3.97531e-14
6.2014e-14
-1.14697e-13
3.22553e-14
5.34709e-14
-1.09613e-13
2.42728e-14
4.66232e-14
-1.08172e-13
1.68005e-14
4.12301e-14
-1.2111e-13
9.72553e-15
3.64904e-14
3.33281e-15
3.0997e-14
-7.23727e-15
8.99211e-14
9.56205e-14
1.54419e-13
-2.88705e-13
8.38012e-14
1.36678e-13
-2.26037e-13
6.89664e-14
1.22039e-13
-2.00746e-13
5.59566e-14
1.02033e-13
-1.86856e-13
4.48484e-14
8.54653e-14
-1.73458e-13
3.60785e-14
7.23175e-14
-1.60451e-13
2.63284e-14
6.12956e-14
-1.57065e-13
1.74583e-14
5.18776e-14
-1.73091e-13
9.96344e-15
4.60457e-14
3.54837e-15
3.67558e-14
-1.04903e-14
-2.84986e-14
1.20678e-13
2.57438e-13
-4.46253e-13
1.01652e-13
2.17422e-13
-3.35412e-13
8.16893e-14
1.86694e-13
-2.89057e-13
6.45182e-14
1.50936e-13
-2.62657e-13
5.02735e-14
1.21393e-13
-2.3872e-13
3.9457e-14
9.86764e-14
-2.17871e-13
2.84128e-14
8.12934e-14
-2.0793e-13
1.87485e-14
6.83903e-14
-2.26893e-13
1.05875e-14
5.81973e-14
3.78341e-15
4.44446e-14
-1.30228e-14
-1.65442e-13
1.53514e-13
4.39264e-13
-6.52384e-13
1.26043e-13
3.58185e-13
-4.7575e-13
9.77548e-14
2.90648e-13
-3.77874e-13
7.4837e-14
2.22014e-13
-3.37214e-13
5.70893e-14
1.73723e-13
-2.98124e-13
4.36924e-14
1.36973e-13
-2.67563e-13
3.03926e-14
1.09724e-13
-2.61544e-13
1.96572e-14
9.02996e-14
-2.8285e-13
1.07116e-14
7.07974e-14
3.55935e-15
5.18915e-14
-1.65252e-14
-5.7993e-13
1.86591e-13
7.61718e-13
-9.31207e-13
1.56978e-13
5.92538e-13
-6.35723e-13
1.18609e-13
4.5072e-13
-4.98589e-13
8.93151e-14
3.31632e-13
-4.33457e-13
6.99508e-14
2.47979e-13
-3.75484e-13
5.0628e-14
1.88315e-13
-3.26697e-13
3.48172e-14
1.47036e-13
-3.17586e-13
2.2164e-14
1.15522e-13
-3.40951e-13
1.22256e-14
9.05125e-14
4.55942e-15
6.30339e-14
-1.95302e-14
-1.10726e-12
3.67536e-13
1.35325e-12
-1.309e-12
2.27427e-13
9.85753e-13
-8.10443e-13
1.59272e-13
7.09334e-13
-6.53324e-13
1.11219e-13
4.94697e-13
-5.49783e-13
7.67939e-14
3.55009e-13
-4.64325e-13
5.17499e-14
2.59662e-13
-3.95717e-13
3.33637e-14
1.93151e-13
-3.58864e-13
1.98164e-14
1.46737e-13
-4.00998e-13
9.71178e-15
1.14811e-13
2.31253e-15
7.47275e-14
-2.28645e-14
-2.70345e-12
9.70429e-11
1.10099e-11
-1.53044e-12
-5.62803e-13
1.4851e-12
-1.07172e-12
-1.478e-12
9.23958e-13
-8.58431e-13
-1.4185e-12
6.47356e-13
-7.07048e-13
-1.3812e-12
4.74833e-13
-5.88251e-13
-1.35062e-12
3.63172e-13
-4.9427e-13
-1.3215e-12
2.87329e-13
-4.42586e-13
-1.29201e-12
2.33158e-13
-4.88065e-13
-1.26228e-12
1.93234e-13
-1.23562e-12
1.46475e-13
-2.62383e-14
-1.18582e-09
9.54696e-09
1.12204e-07
-7.75657e-11
1.02304e-09
3.50605e-10
-7.73237e-11
5.92355e-10
-1.51379e-10
-6.63383e-11
3.98218e-10
-1.28996e-10
-5.67552e-11
2.75028e-10
-1.07007e-10
-4.88481e-11
1.93902e-10
-8.84886e-11
-4.22915e-11
1.39339e-10
-7.24151e-11
-3.68354e-11
1.01916e-10
-5.8221e-11
-3.25001e-11
7.58232e-11
-4.61979e-11
5.75753e-11
-2.97225e-14
-5.06781e-11
3.40902e-13
8.10911e-14
1.20455e-14
-1.53061e-14
7.70768e-14
1.09105e-14
-2.25313e-14
6.80065e-14
1.08396e-14
-2.02071e-14
5.92297e-14
6.53305e-15
-1.83763e-14
5.07904e-14
6.41737e-15
-1.9663e-14
4.26235e-14
4.88417e-15
-1.8344e-14
3.46928e-14
3.32581e-15
-1.92764e-14
2.70233e-14
1.15766e-15
-2.30571e-14
1.96503e-14
8.86563e-16
1.26255e-14
9.53495e-16
-1.54846e-15
2.90816e-13
5.82661e-14
1.95733e-14
-6.297e-14
5.35538e-14
1.71088e-14
-7.2143e-14
4.5474e-14
1.77554e-14
-6.49296e-14
3.77531e-14
1.44172e-14
-6.14352e-14
3.04959e-14
1.3036e-14
-6.22087e-14
2.37412e-14
7.73069e-15
-5.94467e-14
1.76034e-14
8.2068e-15
-5.89823e-14
1.1954e-14
5.66063e-15
-7.0232e-14
6.79675e-15
3.88839e-15
2.4519e-15
3.52951e-15
-4.17721e-15
2.13982e-13
7.39931e-14
2.92049e-14
-1.61541e-13
6.70035e-14
2.69232e-14
-1.35215e-13
5.63074e-14
2.76749e-14
-1.18256e-13
4.63063e-14
2.19145e-14
-1.14111e-13
3.73547e-14
1.79464e-14
-1.03625e-13
2.93079e-14
1.49584e-14
-9.88616e-14
2.17923e-14
1.02538e-14
-1.0431e-13
1.49855e-14
8.77994e-15
-1.19041e-13
9.39357e-15
1.05537e-14
3.1089e-15
8.03833e-15
-7.00264e-15
9.46509e-14
9.20638e-14
4.76332e-14
-2.83397e-13
8.05393e-14
4.58257e-14
-2.16974e-13
6.60937e-14
4.64693e-14
-1.7971e-13
5.34047e-14
3.84403e-14
-1.67184e-13
4.21425e-14
3.15003e-14
-1.55548e-13
3.22803e-14
2.64267e-14
-1.44884e-13
2.35823e-14
2.17155e-14
-1.49695e-13
1.58661e-14
1.84236e-14
-1.70175e-13
9.60056e-15
1.57379e-14
3.62614e-15
1.0941e-14
-1.06564e-14
-2.11713e-14
1.16138e-13
8.27461e-14
-4.37537e-13
9.79313e-14
8.25208e-14
-3.18091e-13
7.84083e-14
7.88222e-14
-2.59003e-13
6.14034e-14
6.33282e-14
-2.35075e-13
4.73836e-14
5.25727e-14
-2.14135e-13
3.55428e-14
4.26358e-14
-1.95431e-13
2.56865e-14
3.51535e-14
-1.97944e-13
1.80353e-14
3.08886e-14
-2.23016e-13
9.48097e-15
2.76776e-14
3.52643e-15
1.79321e-14
-1.33051e-14
-1.55379e-13
1.47836e-13
1.47408e-13
-6.39027e-13
1.21257e-13
1.44093e-13
-4.28762e-13
9.36215e-14
1.32184e-13
-3.55018e-13
7.14332e-14
1.05905e-13
-3.16211e-13
5.36296e-14
8.49744e-14
-2.80712e-13
3.91287e-14
6.99725e-14
-2.5019e-13
2.74417e-14
5.73076e-14
-2.5036e-13
1.78063e-14
4.77159e-14
-2.77827e-13
1.04977e-14
4.14472e-14
3.73478e-15
2.71499e-14
-1.67292e-14
-5.58444e-13
1.81531e-13
2.63574e-13
-9.11184e-13
1.50518e-13
2.55416e-13
-5.73196e-13
1.13053e-13
2.17734e-13
-4.75454e-13
8.35588e-14
1.70056e-13
-4.12618e-13
6.10181e-14
1.33692e-13
-3.57161e-13
4.36525e-14
1.0711e-13
-3.12081e-13
2.99294e-14
8.63479e-14
-2.8609e-13
1.90977e-14
7.21797e-14
-3.35259e-13
1.1004e-14
6.09368e-14
3.48455e-15
3.84749e-14
-1.99495e-14
-1.07517e-12
3.62067e-13
4.83214e-13
-1.27701e-12
2.20952e-13
4.46192e-13
-7.71155e-13
2.06586e-13
3.54998e-13
-6.26047e-13
1.44928e-13
2.6691e-13
-5.26984e-13
1.0072e-13
2.04034e-13
-4.4575e-13
6.85671e-14
1.58667e-13
-3.80353e-13
4.49314e-14
1.26016e-13
-3.35078e-13
2.73639e-14
1.02592e-13
-3.9518e-13
1.38898e-14
8.38682e-14
3.72375e-15
5.41679e-14
-2.28741e-14
-2.66976e-12
1.02866e-10
1.64345e-11
-1.4107e-12
1.45895e-12
9.01547e-13
-1.02639e-12
2.85852e-13
5.63035e-13
-8.15358e-13
1.72574e-13
4.10479e-13
-6.65137e-13
1.03636e-13
3.03189e-13
-5.47802e-13
5.74901e-14
2.29743e-13
-4.55536e-13
2.69561e-14
1.76134e-13
-3.92169e-13
6.71034e-15
1.38217e-13
-4.57282e-13
-6.63696e-15
1.09201e-13
-1.49505e-14
6.81982e-14
-2.63797e-14
-1.10941e-09
1.31126e-08
1.11985e-07
-1.50629e-11
2.09656e-10
5.39917e-10
-4.51093e-12
2.39191e-11
-2.63298e-12
-5.219e-12
1.34196e-11
-2.95773e-12
-3.98035e-12
8.11612e-12
-1.59499e-12
-3.06571e-12
5.10738e-12
-1.05617e-12
-2.39546e-12
3.30845e-12
-6.89467e-13
-1.90018e-12
2.20177e-12
-4.38147e-13
-1.55684e-12
1.49691e-12
-2.66937e-13
1.00029e-12
-3.00771e-14
-3.40169e-14
3.40791e-13
8.11209e-14
1.59283e-14
-1.56887e-14
7.70774e-14
1.39817e-14
-2.26824e-14
6.80852e-14
1.18308e-14
-2.05584e-14
5.92974e-14
7.51217e-15
-1.71041e-14
5.08279e-14
6.12327e-15
-2.02606e-14
4.26075e-14
3.51752e-15
-1.93939e-14
3.47426e-14
5.85362e-15
-1.8844e-14
2.71019e-14
4.5871e-15
-2.29432e-14
1.96829e-14
6.53833e-16
1.26794e-14
2.87888e-17
-1.96306e-15
2.90556e-13
5.83319e-14
2.49285e-14
-6.29519e-14
5.36373e-14
2.40252e-14
-7.25518e-14
4.54885e-14
1.86537e-14
-6.54305e-14
3.77149e-14
1.63336e-14
-6.2852e-14
3.04998e-14
1.11601e-14
-6.04732e-14
2.37948e-14
8.52977e-15
-5.97473e-14
1.76032e-14
5.96416e-15
-5.99126e-14
1.19772e-14
6.71269e-15
-6.99717e-14
6.8597e-15
6.16286e-15
2.50079e-15
1.53657e-15
-4.39731e-15
2.13724e-13
7.40319e-14
3.71881e-14
-1.61913e-13
6.70169e-14
3.53563e-14
-1.3621e-13
5.63624e-14
3.36645e-14
-1.15399e-13
4.65169e-14
3.12148e-14
-1.10496e-13
3.75025e-14
2.26597e-14
-1.05313e-13
2.94762e-14
1.66727e-14
-9.81218e-14
2.20646e-14
1.48799e-14
-1.04229e-13
1.50983e-14
1.15402e-14
-1.18884e-13
8.79008e-15
1.07329e-14
3.01768e-15
6.11252e-15
-7.38927e-15
9.44492e-14
9.21982e-14
6.27497e-14
-2.83816e-13
8.07804e-14
6.21973e-14
-2.17101e-13
6.62368e-14
6.21785e-14
-1.80087e-13
5.33839e-14
4.92346e-14
-1.66412e-13
4.22209e-14
4.09997e-14
-1.56272e-13
3.21568e-14
3.20561e-14
-1.44461e-13
2.34324e-14
3.00249e-14
-1.49843e-13
1.60318e-14
2.50502e-14
-1.70282e-13
1.01213e-14
2.10042e-14
3.85343e-15
2.03817e-14
-1.01043e-14
-2.13079e-14
1.16411e-13
1.08347e-13
-4.385e-13
9.80922e-14
1.08076e-13
-3.19134e-13
7.8659e-14
1.07464e-13
-2.58011e-13
6.17177e-14
8.95664e-14
-2.35905e-13
4.75589e-14
7.24574e-14
-2.14603e-13
3.59281e-14
6.32575e-14
-1.94703e-13
2.61843e-14
5.39447e-14
-1.96377e-13
1.77913e-14
4.23881e-14
-2.23577e-13
9.30179e-15
3.41973e-14
3.70594e-15
2.37457e-14
-1.32572e-14
-1.56132e-13
1.48263e-13
1.8632e-13
-6.40141e-13
1.21748e-13
1.9694e-13
-4.28364e-13
9.39756e-14
1.78043e-13
-3.55737e-13
7.17486e-14
1.43704e-13
-3.16012e-13
5.39377e-14
1.1767e-13
-2.81393e-13
3.9322e-14
9.7672e-14
-2.50715e-13
2.75575e-14
7.7685e-14
-2.46452e-13
1.83852e-14
6.90412e-14
-2.78447e-13
1.08606e-14
5.73933e-14
3.67101e-15
3.60678e-14
-1.65915e-14
-5.60431e-13
1.82064e-13
3.32655e-13
-9.1379e-13
1.51274e-13
3.44285e-13
-5.73411e-13
1.13629e-13
3.04686e-13
-4.76543e-13
8.39638e-14
2.33727e-13
-4.13253e-13
6.13524e-14
1.91598e-13
-3.5824e-13
4.38375e-14
1.50391e-13
-3.12273e-13
3.01252e-14
1.24114e-13
-2.85797e-13
1.90556e-14
1.00679e-13
-3.36475e-13
1.11351e-14
8.16681e-14
4.15034e-15
5.45314e-14
-1.97516e-14
-1.07935e-12
3.68527e-13
6.03981e-13
-1.28167e-12
2.22315e-13
6.03464e-13
-7.7252e-13
1.41326e-13
4.96257e-13
-6.27761e-13
1.07067e-13
3.77543e-13
-5.2862e-13
8.06785e-14
2.92767e-13
-4.47088e-13
5.63393e-14
2.32906e-13
-3.81303e-13
3.75926e-14
1.81529e-13
-3.36183e-13
2.35829e-14
1.46378e-13
-3.96553e-13
1.28381e-14
1.17723e-13
4.96412e-15
7.54305e-14
-2.30916e-14
-2.73841e-12
1.09756e-10
2.58664e-11
-1.34781e-12
1.39833e-12
1.34039e-12
-1.02948e-12
2.05174e-13
8.08699e-13
-8.18987e-13
1.7269e-13
5.84359e-13
-6.67343e-13
1.15529e-13
4.37211e-13
-5.49987e-13
7.61593e-14
3.29367e-13
-4.56748e-13
4.83849e-14
2.51443e-13
-3.93142e-13
2.8634e-14
1.99671e-13
-4.58909e-13
1.44418e-14
1.56987e-13
3.9994e-15
9.93839e-14
-2.64894e-14
-1.17467e-09
2.12296e-08
1.18609e-07
-1.05294e-11
2.30532e-10
6.1013e-10
-1.81287e-12
3.70914e-12
2.39663e-12
-1.17929e-12
1.29056e-12
9.96888e-14
-9.27309e-13
8.56635e-13
7.85781e-14
-7.30708e-13
5.97281e-13
6.86512e-14
-5.84696e-13
4.30841e-13
5.88447e-14
-4.87528e-13
3.19274e-13
4.34504e-14
-5.45957e-13
2.40263e-13
4.63643e-14
1.47506e-13
-3.00287e-14
4.12071e-14
3.40473e-13
8.1262e-14
2.32815e-14
-1.60137e-14
7.72208e-14
1.45594e-14
-2.33372e-14
6.81327e-14
1.89715e-14
-2.00273e-14
5.94042e-14
1.30225e-14
-1.91349e-14
5.08759e-14
7.71864e-15
-1.92449e-14
4.26638e-14
4.39465e-15
-1.94287e-14
3.47428e-14
1.93283e-15
-1.98074e-14
2.7127e-14
1.5996e-15
-2.30438e-14
1.97572e-14
1.76341e-15
1.27073e-14
3.42654e-15
-1.37e-15
2.9022e-13
5.85224e-14
3.92248e-14
-6.36986e-14
5.37989e-14
3.51025e-14
-7.1867e-14
4.56681e-14
3.30262e-14
-6.70454e-14
3.78469e-14
2.1286e-14
-6.21864e-14
3.06231e-14
2.03724e-14
-6.13821e-14
2.38781e-14
1.22441e-14
-5.85397e-14
1.76967e-14
7.93858e-15
-5.96965e-14
1.20346e-14
5.32143e-15
-7.04067e-14
6.91678e-15
4.68209e-15
2.56797e-15
5.8242e-15
-4.44306e-15
2.13091e-13
7.4345e-14
5.22454e-14
-1.62983e-13
6.72809e-14
5.27491e-14
-1.36026e-13
5.66058e-14
5.698e-14
-1.17399e-13
4.66338e-14
4.28102e-14
-1.13866e-13
3.76335e-14
3.25488e-14
-1.03945e-13
2.95356e-14
2.62142e-14
-9.8886e-14
2.22147e-14
1.7237e-14
-1.0388e-13
1.53759e-14
1.61854e-14
-1.19155e-13
9.00622e-15
1.18511e-14
3.32398e-15
1.13633e-14
-7.53911e-15
9.36687e-14
9.27045e-14
9.24397e-14
-2.85106e-13
8.11912e-14
9.1106e-14
-2.18292e-13
6.66072e-14
9.42375e-14
-1.80096e-13
5.37675e-14
7.64935e-14
-1.68036e-13
4.25507e-14
5.88558e-14
-1.55384e-13
3.25659e-14
4.12424e-14
-1.44992e-13
2.36747e-14
3.27563e-14
-1.50588e-13
1.61329e-14
2.96697e-14
-1.70296e-13
1.01274e-14
2.52767e-14
3.68551e-15
1.57537e-14
-1.02327e-14
-2.27534e-14
1.17148e-13
1.61757e-13
-4.40429e-13
9.87768e-14
1.64755e-13
-3.20657e-13
7.91378e-14
1.61778e-13
-2.59046e-13
6.2097e-14
1.30015e-13
-2.3636e-13
4.784e-14
1.0685e-13
-2.15804e-13
3.6158e-14
8.60593e-14
-1.9507e-13
2.61255e-14
5.98242e-14
-1.97875e-13
1.79342e-14
5.08226e-14
-2.23943e-13
9.74875e-15
4.24132e-14
3.95624e-15
2.69334e-14
-1.33121e-14
-1.58258e-13
1.49499e-13
2.82662e-13
-6.43664e-13
1.22739e-13
2.94457e-13
-4.30037e-13
9.48642e-14
2.71823e-13
-3.57336e-13
7.24091e-14
2.12876e-13
-3.16815e-13
5.45828e-14
1.71368e-13
-2.83638e-13
3.97099e-14
1.36005e-13
-2.51075e-13
2.80805e-14
1.10987e-13
-2.46287e-13
1.85246e-14
7.9527e-14
-2.79506e-13
1.09867e-14
6.68203e-14
4.06646e-15
4.27863e-14
-1.62904e-14
-5.66517e-13
1.83762e-13
5.01849e-13
-9.19265e-13
1.52823e-13
5.15136e-13
-5.7785e-13
1.1478e-13
4.4423e-13
-4.78532e-13
8.49364e-14
3.48001e-13
-4.1606e-13
6.20441e-14
2.71103e-13
-3.59963e-13
4.45648e-14
2.16238e-13
-3.14071e-13
3.06917e-14
1.69139e-13
-2.8718e-13
1.95683e-14
1.20343e-13
-3.37836e-13
1.15677e-14
9.98206e-14
4.50986e-15
6.16569e-14
-1.97114e-14
-1.09051e-12
3.73555e-13
9.18863e-13
-1.29137e-12
2.25072e-13
9.01495e-13
-7.78194e-13
1.38788e-13
7.29566e-13
-6.32209e-13
1.0194e-13
5.49432e-13
-5.32113e-13
7.31032e-14
4.18982e-13
-4.50259e-13
5.42828e-14
3.2162e-13
-3.83969e-13
3.69604e-14
2.52025e-13
-3.38451e-13
2.35442e-14
1.73936e-13
-3.98667e-13
1.29892e-14
1.36822e-13
5.20014e-15
8.55674e-14
-2.29552e-14
-2.7906e-12
1.16074e-10
3.23005e-11
-1.34638e-12
1.46439e-12
1.89887e-12
-1.03884e-12
2.00253e-13
1.19418e-12
-8.26032e-13
1.66106e-13
8.6153e-13
-6.73155e-13
1.09142e-13
6.31765e-13
-5.54843e-13
6.79418e-14
4.70748e-13
-4.60254e-13
3.20155e-14
3.47576e-13
-3.96433e-13
1.75527e-14
2.51344e-13
-4.62225e-13
9.04669e-15
1.8902e-13
3.76258e-15
1.13859e-13
-2.65014e-14
-1.24651e-09
2.75709e-08
1.27843e-07
-1.08358e-11
3.28287e-10
6.53835e-10
-1.65277e-12
3.2026e-12
2.70752e-12
-1.06156e-12
1.04058e-12
1.1649e-13
-8.45386e-13
7.49754e-13
6.62347e-14
-6.75414e-13
5.52743e-13
5.04656e-14
-5.46901e-13
4.12364e-13
3.94551e-14
-4.58191e-13
3.09991e-13
3.14028e-14
-5.28687e-13
2.35625e-13
2.5384e-14
1.40568e-13
-3.02716e-14
2.08538e-14
3.39902e-13
8.14698e-14
2.97222e-14
-1.62001e-14
7.74285e-14
2.81392e-14
-2.3994e-14
6.82432e-14
2.21681e-14
-1.97021e-14
5.95071e-14
1.81961e-14
-1.9613e-14
5.09857e-14
8.30633e-15
-2.02085e-14
4.27624e-14
8.07261e-15
-1.91159e-14
3.48557e-14
6.97943e-15
-1.98153e-14
2.72084e-14
1.23564e-14
-2.26721e-14
1.98491e-14
3.79678e-14
1.27694e-14
1.0369e-13
-2.03808e-15
2.89653e-13
5.87078e-14
5.20564e-14
-6.43347e-14
5.39717e-14
4.41356e-14
-7.24241e-14
4.58792e-14
4.45397e-14
-6.66291e-14
3.80051e-14
3.50042e-14
-6.36592e-14
3.07271e-14
1.81246e-14
-6.13732e-14
2.3989e-14
1.32913e-14
-5.9878e-14
1.77892e-14
1.42441e-14
-5.92545e-14
1.21696e-14
1.48938e-14
-7.03882e-14
6.99962e-15
2.55873e-14
2.63258e-15
7.23482e-14
-4.68787e-15
2.12353e-13
7.47391e-14
7.4876e-14
-1.63933e-13
6.75772e-14
6.71595e-14
-1.37115e-13
5.68295e-14
6.85331e-14
-1.18234e-13
4.68547e-14
5.64449e-14
-1.115e-13
3.78005e-14
4.41051e-14
-1.06283e-13
2.95997e-14
2.35881e-14
-9.715e-14
2.22964e-14
2.01932e-14
-1.05071e-13
1.5299e-14
2.38501e-14
-1.19322e-13
9.74599e-15
3.18312e-14
3.25874e-15
5.60553e-14
-7.7965e-15
9.26844e-14
9.33095e-14
1.19373e-13
-2.86486e-13
8.1704e-14
1.16615e-13
-2.19442e-13
6.7048e-14
1.18832e-13
-1.81208e-13
5.41539e-14
9.75868e-14
-1.68674e-13
4.2987e-14
7.93866e-14
-1.56185e-13
3.30249e-14
4.88595e-14
-1.44762e-13
2.39874e-14
3.90462e-14
-1.5e-13
1.6446e-14
4.25097e-14
-1.71284e-13
9.71042e-15
4.38003e-14
4.1757e-15
5.45078e-14
-9.96122e-15
-2.4478e-14
1.18069e-13
2.06871e-13
-4.42635e-13
9.95888e-14
2.0851e-13
-3.22804e-13
7.97962e-14
2.01654e-13
-2.59981e-13
6.25901e-14
1.66231e-13
-2.3719e-13
4.82166e-14
1.35564e-13
-2.17429e-13
3.64707e-14
1.07664e-13
-1.95347e-13
2.65031e-14
6.64153e-14
-1.99063e-13
1.77505e-14
5.87035e-14
-2.24679e-13
1.01106e-14
6.54345e-14
4.26441e-15
6.22444e-14
-1.34497e-14
-1.60915e-13
1.50965e-13
3.67466e-13
-6.47453e-13
1.23888e-13
3.70956e-13
-4.34203e-13
9.57989e-14
3.39983e-13
-3.5916e-13
7.32569e-14
2.76631e-13
-3.18168e-13
5.52725e-14
2.22493e-13
-2.85145e-13
4.02918e-14
1.81772e-13
-2.53045e-13
2.83979e-14
1.08481e-13
-2.43898e-13
1.89151e-14
8.77145e-14
-2.80606e-13
1.142e-14
9.6921e-14
4.07424e-15
7.70472e-14
-1.65768e-14
-5.73883e-13
1.86626e-13
6.45531e-13
-9.25584e-13
1.54718e-13
6.46967e-13
-5.81833e-13
1.16169e-13
5.63562e-13
-4.81969e-13
8.60221e-14
4.43463e-13
-4.18409e-13
6.29272e-14
3.49851e-13
-3.62597e-13
4.52574e-14
2.7877e-13
-3.16584e-13
3.15986e-14
1.78644e-13
-2.87791e-13
2.00844e-14
1.30102e-13
-3.39821e-13
1.17027e-14
1.11373e-13
4.88713e-15
9.9259e-14
-1.97784e-14
-1.10375e-12
3.64059e-13
1.15217e-12
-1.30205e-12
2.27934e-13
1.11823e-12
-7.84905e-13
1.41307e-13
9.18723e-13
-6.37502e-13
1.03285e-13
6.97005e-13
-5.36475e-13
7.40403e-14
5.33571e-13
-4.53329e-13
5.45747e-14
4.15408e-13
-3.88188e-13
3.74715e-14
3.21321e-13
-3.4094e-13
2.42148e-14
1.91255e-13
-4.01462e-13
1.36231e-14
1.50236e-13
5.67542e-15
1.27112e-13
-2.30519e-14
-2.69524e-12
1.08027e-10
2.48442e-11
-1.44485e-12
1.24578e-12
2.09346e-12
-1.05102e-12
2.01882e-13
1.50222e-12
-8.34429e-13
1.68692e-13
1.08508e-12
-6.80046e-13
1.1073e-13
8.05012e-13
-5.60349e-13
6.89289e-14
6.06833e-13
-4.65478e-13
3.28208e-14
4.67302e-13
-3.99983e-13
1.82155e-14
2.69316e-13
-4.66634e-13
9.5309e-15
2.01701e-13
4.22859e-15
1.35042e-13
-2.65588e-14
-1.17131e-09
2.26951e-08
1.29733e-07
-9.21814e-12
1.94243e-10
5.98931e-10
-1.65375e-12
3.16535e-12
1.89856e-12
-1.07412e-12
1.61317e-12
8.85255e-14
-8.54043e-13
1.17101e-12
6.42947e-14
-6.82403e-13
8.57806e-13
5.01204e-14
-5.53841e-13
6.41917e-13
3.98482e-14
-4.62809e-13
3.8281e-13
3.23142e-14
-5.34632e-13
2.67861e-13
2.64827e-14
1.63974e-13
-3.00803e-14
2.22996e-14
3.39724e-13
8.1618e-14
1.3631e-14
-1.69071e-14
7.73759e-14
-6.46331e-15
-2.38519e-14
6.83184e-14
4.51281e-16
-2.06421e-14
5.95794e-14
6.59102e-15
-2.01641e-14
5.11144e-14
2.45493e-14
-2.1232e-14
4.29651e-14
5.80168e-14
-2.07405e-14
3.51486e-14
1.18935e-13
-1.8767e-14
2.76949e-14
4.42363e-13
-8.77384e-15
2.05469e-14
1.69655e-12
1.28208e-14
4.38965e-12
-1.71428e-14
2.88913e-13
5.88507e-14
1.94453e-14
-6.45817e-14
5.40109e-14
-9.8885e-15
-7.28768e-14
4.58613e-14
4.14625e-15
-6.69758e-14
3.80659e-14
9.72372e-15
-6.44438e-14
3.08428e-14
2.60279e-14
-6.17504e-14
2.41521e-14
5.66118e-14
-6.23065e-14
1.79842e-14
1.01932e-13
-6.41912e-14
1.24441e-14
2.91267e-13
-6.83263e-14
7.47094e-15
1.01423e-12
2.69639e-15
2.89069e-12
-1.64335e-14
2.11482e-13
7.4936e-14
2.48766e-14
-1.64596e-13
6.76585e-14
-1.38117e-14
-1.36883e-13
5.70061e-14
6.49422e-15
-1.19257e-13
4.70018e-14
1.44213e-14
-1.12447e-13
3.79964e-14
2.96116e-14
-1.06304e-13
2.99891e-14
5.94039e-14
-1.01353e-13
2.26885e-14
1.06727e-13
-1.07728e-13
1.55434e-14
2.18911e-13
-1.23799e-13
9.29969e-15
6.65099e-13
3.5093e-15
1.91271e-12
-1.34265e-14
9.20523e-14
9.37183e-14
4.33894e-14
-2.86934e-13
8.18855e-14
-7.86842e-15
-2.19728e-13
6.721e-14
2.10123e-14
-1.81808e-13
5.43933e-14
3.02517e-14
-1.68139e-13
4.32312e-14
4.58936e-14
-1.56693e-13
3.31225e-14
7.02868e-14
-1.4821e-13
2.43948e-14
1.16417e-13
-1.53659e-13
1.70488e-14
1.90494e-13
-1.77525e-13
9.94869e-15
4.85132e-13
4.45086e-15
1.3244e-12
-9.53165e-15
-2.54122e-14
1.18762e-13
7.79055e-14
-4.43198e-13
9.99385e-14
1.96574e-14
-3.22389e-13
8.01571e-14
5.3615e-14
-2.60825e-13
6.30381e-14
6.20217e-14
-2.37891e-13
4.86696e-14
7.31256e-14
-2.16866e-13
3.71051e-14
1.18025e-13
-1.97522e-13
2.67795e-14
1.33489e-13
-2.04567e-13
1.79078e-14
1.91662e-13
-2.3171e-13
1.06545e-14
3.9554e-13
4.25258e-15
9.61337e-13
-1.06523e-14
-1.62692e-13
1.51948e-13
1.44575e-13
-6.48143e-13
1.24394e-13
8.07434e-14
-4.32979e-13
9.63634e-14
1.16374e-13
-3.60742e-13
7.3809e-14
1.19469e-13
-3.18113e-13
5.58342e-14
1.24121e-13
-2.87182e-13
4.07511e-14
1.64318e-13
-2.54773e-13
2.87334e-14
1.67044e-13
-2.49969e-13
1.93364e-14
2.25147e-13
-2.88438e-13
1.16422e-14
3.57229e-13
4.53639e-15
7.36953e-13
-1.2564e-14
-5.7882e-13
1.94118e-13
2.7191e-13
-9.26327e-13
1.55855e-13
2.00958e-13
-5.82942e-13
1.1691e-13
2.2856e-13
-4.83653e-13
8.67977e-14
2.13348e-13
-4.19254e-13
6.3637e-14
2.0143e-13
-3.65432e-13
4.59338e-14
2.00109e-13
-3.18169e-13
3.2532e-14
1.76215e-13
-2.92555e-13
2.10001e-14
2.60102e-13
-3.48178e-13
1.24055e-14
3.51522e-13
5.10729e-15
6.00088e-13
-1.48269e-14
-1.11041e-12
3.11417e-13
4.75321e-13
-1.30327e-12
1.86303e-13
4.25576e-13
-7.87174e-13
1.45651e-13
4.19045e-13
-6.39962e-13
1.0466e-13
3.65095e-13
-5.38621e-13
7.53506e-14
3.22489e-13
-4.5561e-13
5.59452e-14
2.93682e-13
-3.91708e-13
3.8604e-14
3.61547e-13
-3.45293e-13
2.48794e-14
3.11516e-13
-4.10874e-13
1.43517e-14
3.72704e-13
6.34553e-15
5.16995e-13
-2.13909e-14
-2.11871e-12
4.32068e-11
-7.84005e-12
-1.76682e-12
3.15737e-13
5.35353e-13
-1.05893e-12
2.30092e-13
7.26307e-13
-8.37621e-13
1.7232e-13
5.97175e-13
-6.83988e-13
1.12708e-13
4.9677e-13
-5.62906e-13
7.09041e-14
4.2631e-13
-4.72346e-13
3.40715e-14
5.04127e-13
-4.03805e-13
1.8991e-14
3.84406e-13
-4.76658e-13
1.01083e-14
4.10177e-13
4.82341e-15
4.71307e-13
-2.58281e-14
-4.82728e-10
-1.29761e-08
9.21907e-08
-2.27029e-12
-2.83165e-10
1.39363e-10
-1.32096e-12
-7.0734e-13
-8.59959e-13