/*--------------------------------*- C++ -*----------------------------------*\
| =========                 |                                                 |
| \\      /  F ield         | OpenFOAM: The Open Source CFD Toolbox           |
|  \\    /   O peration     | Version:  4.1                                   |
|   \\  /    A nd           | Web:      www.OpenFOAM.org                      |
|    \\/     M anipulation  |                                                 |
\*---------------------------------------------------------------------------*/
FoamFile
{
    version     2.0;
    format      ascii;
    class       volVectorField;
    location    "1";
    object      U;
}
// * * * * * * * * * * * * * * * * * * * * * * * * * * * * * * * * * * * * * //

dimensions      [0 1 -1 0 0 0 0];

internalField   nonuniform List<vector> 
18000
(
(9.03022e-14 3.83139e-13 -5.68536e-12)
(9.48079e-14 3.83121e-13 -5.62329e-12)
(8.53259e-14 -9.6287e-15 -5.56091e-12)
(7.6085e-14 -1.4759e-14 -5.50009e-12)
(6.7095e-14 -1.44553e-14 -5.43951e-12)
(5.8363e-14 -1.40426e-14 -5.37976e-12)
(4.99464e-14 -1.40735e-14 -5.32045e-12)
(4.19258e-14 -1.41099e-14 -5.2625e-12)
(3.41193e-14 -1.38646e-14 -5.20536e-12)
(2.66655e-14 -9.90981e-15 -5.15045e-12)
(1.40297e-13 3.92683e-13 -7.06255e-12)
(1.51432e-13 3.78838e-13 -6.82352e-12)
(1.32284e-13 -4.92421e-14 -6.59022e-12)
(1.14118e-13 -5.28927e-14 -6.3673e-12)
(9.73175e-14 -5.10851e-14 -6.15388e-12)
(8.17331e-14 -4.90296e-14 -5.94882e-12)
(6.7096e-14 -4.70792e-14 -5.75171e-12)
(5.37078e-14 -4.54225e-14 -5.56276e-12)
(4.11336e-14 -4.36074e-14 -5.38044e-12)
(2.95222e-14 -3.08633e-14 -5.21053e-12)
(1.58211e-13 3.93371e-13 -8.8706e-12)
(1.64008e-13 3.59622e-13 -8.35379e-12)
(1.35498e-13 -1.07236e-13 -7.86467e-12)
(1.09879e-13 -1.06026e-13 -7.41115e-12)
(8.73105e-14 -9.88182e-14 -6.98829e-12)
(6.73557e-14 -9.26416e-14 -6.59443e-12)
(4.9634e-14 -8.68706e-14 -6.22805e-12)
(3.39435e-14 -8.14762e-14 -5.88484e-12)
(2.00469e-14 -7.65724e-14 -5.56502e-12)
(7.83149e-15 -5.28467e-14 -5.27187e-12)
(2.15412e-13 3.78483e-13 -1.1271e-11)
(2.10545e-13 3.1581e-13 -1.03185e-11)
(1.68105e-13 -1.91053e-13 -9.45152e-12)
(1.31901e-13 -1.78859e-13 -8.66862e-12)
(1.01546e-13 -1.6206e-13 -7.96396e-12)
(7.59235e-14 -1.47226e-13 -7.32784e-12)
(5.44744e-14 -1.34056e-13 -6.75195e-12)
(3.61831e-14 -1.22371e-13 -6.23026e-12)
(2.0825e-14 -1.11486e-13 -5.75645e-12)
(7.99802e-15 -7.53638e-14 -5.33412e-12)
(2.9996e-13 3.35292e-13 -1.45023e-11)
(2.74994e-13 2.31164e-13 -1.28687e-11)
(2.11306e-13 -3.13107e-13 -1.144e-11)
(1.59822e-13 -2.79851e-13 -1.01941e-11)
(1.18913e-13 -2.44789e-13 -9.10998e-12)
(8.62072e-14 -2.15218e-13 -8.16206e-12)
(5.99082e-14 -1.90242e-13 -7.33096e-12)
(3.87377e-14 -1.68932e-13 -6.60067e-12)
(2.17193e-14 -1.49787e-13 -5.95632e-12)
(8.07023e-15 -9.90336e-14 -5.39764e-12)
(4.2803e-13 2.42905e-13 -1.89117e-11)
(3.66538e-13 7.79209e-14 -1.62157e-11)
(2.69421e-13 -4.92237e-13 -1.3956e-11)
(1.95567e-13 -4.1989e-13 -1.20562e-11)
(1.40231e-13 -3.53817e-13 -1.04612e-11)
(9.81592e-14 -3.00716e-13 -9.11403e-12)
(6.60629e-14 -2.5741e-13 -7.97168e-12)
(4.14913e-14 -2.21527e-13 -6.99849e-12)
(2.26267e-14 -1.91067e-13 -6.16443e-12)
(8.1656e-15 -1.23751e-13 -5.46209e-12)
(6.25018e-13 6.48676e-14 -2.50031e-11)
(4.9623e-13 -1.91267e-13 -2.06698e-11)
(3.4625e-13 -7.59666e-13 -1.7166e-11)
(2.39457e-13 -6.1643e-13 -1.43447e-11)
(1.64106e-13 -4.98185e-13 -1.20629e-11)
(1.10044e-13 -4.07903e-13 -1.02047e-11)
(7.09234e-14 -3.37311e-13 -8.68155e-12)
(4.24838e-14 -2.81565e-13 -7.42507e-12)
(2.16597e-14 -2.36161e-13 -6.38202e-12)
(6.36321e-15 -1.49522e-13 -5.52747e-12)
(-4.32773e-12 -2.67633e-13 -3.35848e-11)
(-4.70426e-12 -6.60801e-13 -2.66762e-11)
(-4.67497e-12 -1.16191e-12 -2.13203e-11)
(-4.58001e-12 -8.9389e-13 -1.71926e-11)
(-4.45323e-12 -6.9014e-13 -1.39862e-11)
(-4.31098e-12 -5.42622e-13 -1.14724e-11)
(-4.16322e-12 -4.3266e-13 -9.48396e-12)
(-4.01565e-12 -3.49254e-13 -7.89796e-12)
(-3.87225e-12 -2.84711e-13 -6.62084e-12)
(-3.81774e-12 -1.76547e-13 -5.60612e-12)
(-7.19634e-09 -2.11948e-12 -1.02508e-10)
(-7.45179e-09 -1.85047e-12 -8.60189e-11)
(-7.04659e-09 -1.10432e-12 -7.25299e-11)
(-6.67219e-09 -6.45787e-13 -6.19079e-11)
(-6.3311e-09 -3.51129e-13 -5.34346e-11)
(-6.01999e-09 -1.59272e-13 -4.65791e-11)
(-5.73562e-09 -3.32908e-14 -4.09635e-11)
(-5.4751e-09 4.80314e-14 -3.63111e-11)
(-5.23681e-09 -1.19111e-13 -3.24168e-11)
(-5.17513e-09 -4.13652e-13 -2.96869e-11)
(8.09841e-07 -2.20062e-09 -8.3722e-08)
(3.9473e-08 -8.05675e-10 -7.41695e-08)
(2.93955e-08 9.52329e-10 -6.56506e-08)
(2.41678e-08 8.90595e-10 -5.84224e-08)
(1.96949e-08 8.17868e-10 -5.22483e-08)
(1.58323e-08 7.50725e-10 -4.69526e-08)
(1.24754e-08 6.89684e-10 -4.23866e-08)
(9.53762e-09 6.31874e-10 -3.84295e-08)
(6.20227e-09 1.62299e-10 -3.49888e-08)
(-1.45712e-07 -4.44594e-10 -3.29935e-08)
(2.50488e-13 3.63488e-13 -6.19644e-12)
(2.35523e-13 3.44639e-13 -6.12599e-12)
(2.06907e-13 -4.78528e-14 -6.05564e-12)
(1.79262e-13 -5.24977e-14 -5.98605e-12)
(1.52731e-13 -5.19995e-14 -5.91772e-12)
(1.27092e-13 -5.13129e-14 -5.85058e-12)
(1.02422e-13 -5.08548e-14 -5.78293e-12)
(7.87382e-14 -5.02422e-14 -5.71781e-12)
(5.57266e-14 -4.89979e-14 -5.65325e-12)
(3.42247e-14 -2.85152e-14 -5.59046e-12)
(4.98676e-13 3.1995e-13 -7.76586e-12)
(4.61639e-13 2.38898e-13 -7.49247e-12)
(3.9635e-13 -1.85695e-13 -7.22523e-12)
(3.35088e-13 -1.84304e-13 -6.97081e-12)
(2.77932e-13 -1.78064e-13 -6.72778e-12)
(2.24569e-13 -1.72019e-13 -6.49414e-12)
(1.74741e-13 -1.66024e-13 -6.27124e-12)
(1.28113e-13 -1.60711e-13 -6.05692e-12)
(8.44999e-14 -1.53415e-13 -5.85151e-12)
(4.44674e-14 -8.73259e-14 -5.65835e-12)
(6.08331e-13 2.42438e-13 -9.85691e-12)
(5.4368e-13 7.46953e-14 -9.25444e-12)
(4.51027e-13 -3.78333e-13 -8.68978e-12)
(3.67307e-13 -3.61346e-13 -8.16573e-12)
(2.92643e-13 -3.39911e-13 -7.68048e-12)
(2.25956e-13 -3.19875e-13 -7.22972e-12)
(1.66239e-13 -3.0171e-13 -6.8121e-12)
(1.12805e-13 -2.84783e-13 -6.42231e-12)
(6.50989e-14 -2.66292e-13 -6.05926e-12)
(2.30221e-14 -1.49539e-13 -5.72865e-12)
(7.86283e-13 1.11658e-13 -1.26765e-11)
(6.78375e-13 -1.75798e-13 -1.15499e-11)
(5.46604e-13 -6.46512e-13 -1.05339e-11)
(4.32559e-13 -5.97504e-13 -9.62058e-12)
(3.35392e-13 -5.46433e-13 -8.80372e-12)
(2.52093e-13 -5.01149e-13 -8.07038e-12)
(1.80772e-13 -4.60435e-13 -7.41073e-12)
(1.19724e-13 -4.23719e-13 -6.8158e-12)
(6.7349e-14 -3.86784e-13 -6.27651e-12)
(2.34326e-14 -2.13859e-13 -5.79841e-12)
(1.03173e-12 -1.03223e-13 -1.65444e-11)
(8.56534e-13 -5.56411e-13 -1.45779e-11)
(6.68282e-13 -1.02039e-12 -1.28775e-11)
(5.12919e-13 -9.12112e-13 -1.14057e-11)
(3.86112e-13 -8.10013e-13 -1.01355e-11)
(2.82223e-13 -7.22293e-13 -9.03441e-12)
(1.97117e-13 -6.45964e-13 -8.07565e-12)
(1.2728e-13 -5.7959e-13 -7.23828e-12)
(6.98744e-14 -5.16451e-13 -6.5036e-12)
(2.37487e-14 -2.81097e-13 -5.87086e-12)
(1.37468e-12 -4.49821e-13 -2.19452e-11)
(1.09693e-12 -1.13153e-12 -1.86257e-11)
(8.25104e-13 -1.54358e-12 -1.58884e-11)
(6.12396e-13 -1.33284e-12 -1.36104e-11)
(4.46681e-13 -1.14698e-12 -1.17209e-11)
(3.16959e-13 -9.92692e-13 -1.0142e-11)
(2.15244e-13 -8.63133e-13 -8.81611e-12)
(1.35298e-13 -7.54241e-13 -7.69504e-12)
(7.2511e-14 -6.556e-13 -6.74213e-12)
(2.40345e-14 -3.50804e-13 -5.94509e-12)
(1.86563e-12 -9.99078e-13 -2.96159e-11)
(1.42375e-12 -1.99983e-12 -2.41315e-11)
(1.02881e-12 -2.28447e-12 -1.97987e-11)
(7.36027e-13 -1.89736e-12 -1.63565e-11)
(5.1893e-13 -1.57841e-12 -1.36201e-11)
(3.5684e-13 -1.3237e-12 -1.14213e-11)
(2.35227e-13 -1.11771e-12 -9.64038e-12)
(1.43884e-13 -9.50067e-13 -8.18753e-12)
(7.50992e-14 -8.05112e-13 -6.99102e-12)
(2.4282e-14 -4.23802e-13 -6.02056e-12)
(2.38903e-12 -1.88987e-12 -4.08063e-11)
(1.40642e-12 -3.32736e-12 -3.17577e-11)
(8.86635e-13 -3.33597e-12 -2.49607e-11)
(5.32532e-13 -2.65914e-12 -1.98278e-11)
(2.87327e-13 -2.13243e-12 -1.59269e-11)
(1.16327e-13 -1.72941e-12 -1.29209e-11)
(-3.31773e-15 -1.41585e-12 -1.05793e-11)
(-8.68229e-14 -1.1697e-12 -8.73432e-12)
(-1.45223e-13 -9.65777e-13 -7.26464e-12)
(-1.86823e-13 -4.99492e-13 -6.1103e-12)
(-3.1834e-10 -5.24214e-12 -1.1997e-10)
(-8.01193e-10 -6.95386e-12 -9.85297e-11)
(-6.65847e-10 -5.4601e-12 -8.1589e-11)
(-5.53867e-10 -4.25509e-12 -6.86266e-11)
(-4.65393e-10 -3.37517e-12 -5.85639e-11)
(-3.94498e-10 -2.72216e-12 -5.05952e-11)
(-3.37121e-10 -2.22732e-12 -4.41822e-11)
(-2.9025e-10 -1.84755e-12 -3.89466e-11)
(-2.51712e-10 -1.54779e-12 -3.46161e-11)
(-2.24793e-10 -1.00253e-12 -3.15758e-11)
(5.75131e-07 -3.30538e-09 -9.41802e-08)
(-9.32949e-09 -2.60379e-09 -8.26855e-08)
(-1.15872e-08 -8.30777e-10 -7.21845e-08)
(-1.09133e-08 -7.6708e-10 -6.34973e-08)
(-1.02339e-08 -7.20357e-10 -5.62457e-08)
(-9.58915e-09 -6.72998e-10 -5.01405e-08)
(-8.99166e-09 -6.2743e-10 -4.49579e-08)
(-8.44709e-09 -5.84639e-10 -4.05252e-08)
(-8.01794e-09 -5.58307e-10 -3.67138e-08)
(-1.26181e-08 -6.12839e-10 -3.44599e-08)
(2.3273e-13 3.66341e-13 -5.31264e-13)
(2.19495e-13 3.44812e-13 -5.22018e-13)
(1.92429e-13 -4.79277e-14 -5.12997e-13)
(1.6664e-13 -5.25823e-14 -5.03883e-13)
(1.41913e-13 -5.16284e-14 -4.95113e-13)
(1.18006e-13 -5.12581e-14 -4.86545e-13)
(9.54801e-14 -5.07988e-14 -4.77912e-13)
(7.36687e-14 -4.99166e-14 -4.70071e-13)
(5.27723e-14 -4.9038e-14 -4.62136e-13)
(3.32881e-14 -2.58657e-14 -4.54251e-13)
(5.04543e-13 3.30072e-13 -7.34306e-13)
(4.65624e-13 2.37545e-13 -6.975e-13)
(3.99063e-13 -1.87045e-13 -6.61061e-13)
(3.36673e-13 -1.85036e-13 -6.27126e-13)
(2.78761e-13 -1.78663e-13 -5.95637e-13)
(2.24802e-13 -1.72095e-13 -5.6641e-13)
(1.74792e-13 -1.65748e-13 -5.37804e-13)
(1.28001e-13 -1.60216e-13 -5.10868e-13)
(8.43129e-14 -1.52916e-13 -4.87237e-13)
(4.47055e-14 -7.98974e-14 -4.62574e-13)
(6.24121e-13 2.60248e-13 -1.0348e-12)
(5.54655e-13 6.72595e-14 -9.43815e-13)
(4.58679e-13 -3.84239e-13 -8.62679e-13)
(3.72177e-13 -3.66048e-13 -7.88433e-13)
(2.95534e-13 -3.42892e-13 -7.21907e-13)
(2.2756e-13 -3.21727e-13 -6.61145e-13)
(1.66963e-13 -3.02458e-13 -6.06777e-13)
(1.13146e-13 -2.85068e-13 -5.57698e-13)
(6.49906e-14 -2.65426e-13 -5.12221e-13)
(2.31807e-14 -1.36327e-13 -4.72814e-13)
(8.18539e-13 1.39124e-13 -1.48329e-12)
(7.00807e-13 -1.97524e-13 -1.29786e-12)
(5.61686e-13 -6.633e-13 -1.13788e-12)
(4.42319e-13 -6.10322e-13 -9.98498e-13)
(3.41234e-13 -5.55326e-13 -8.78897e-13)
(2.55432e-13 -5.06732e-13 -7.7576e-13)
(1.82436e-13 -4.63403e-13 -6.8697e-13)
(1.2035e-13 -4.25405e-13 -6.09314e-13)
(6.75242e-14 -3.86789e-13 -5.4126e-13)
(2.35493e-14 -1.9601e-13 -4.82491e-13)
(1.09245e-12 -6.63707e-14 -2.17158e-12)
(8.96909e-13 -6.07545e-13 -1.81229e-12)
(6.9482e-13 -1.05873e-12 -1.52021e-12)
(5.29411e-13 -9.40583e-13 -1.27822e-12)
(3.95921e-13 -8.29536e-13 -1.07881e-12)
(2.87734e-13 -7.34969e-13 -9.15391e-13)
(1.99918e-13 -6.53807e-13 -7.79918e-13)
(1.28406e-13 -5.83838e-13 -6.6709e-13)
(7.03883e-14 -5.1702e-13 -5.72289e-13)
(2.41776e-14 -2.57581e-13 -4.94268e-13)
(1.4838e-12 -4.08718e-13 -3.25347e-12)
(1.16639e-12 -1.24112e-12 -2.57606e-12)
(8.68959e-13 -1.62212e-12 -2.05859e-12)
(6.38385e-13 -1.38898e-12 -1.64906e-12)
(4.61778e-13 -1.18439e-12 -1.33317e-12)
(3.25153e-13 -1.0166e-12 -1.08517e-12)
(2.19325e-13 -8.77685e-13 -8.8966e-13)
(1.37243e-13 -7.62108e-13 -7.33446e-13)
(7.32639e-14 -6.57576e-13 -6.05825e-13)
(2.46032e-14 -3.23028e-13 -5.06351e-13)
(2.05988e-12 -9.66424e-13 -4.99309e-12)
(1.54146e-12 -2.21967e-12 -3.73091e-12)
(1.09924e-12 -2.43562e-12 -2.82478e-12)
(7.76413e-13 -2.00062e-12 -2.15026e-12)
(5.416e-13 -1.64445e-12 -1.6587e-12)
(3.68919e-13 -1.36534e-12 -1.29217e-12)
(2.41301e-13 -1.14219e-12 -1.01686e-12)
(1.46672e-13 -9.63334e-13 -8.07099e-13)
(7.61175e-14 -8.09527e-13 -6.43109e-13)
(2.50144e-14 -3.91103e-13 -5.20341e-13)
(3.25334e-12 -1.90032e-12 -7.89262e-12)
(2.07318e-12 -3.75744e-12 -5.52186e-12)
(1.40411e-12 -3.61563e-12 -3.93912e-12)
(9.48139e-13 -2.83966e-12 -2.83776e-12)
(6.34086e-13 -2.24382e-12 -2.08255e-12)
(4.14937e-13 -1.7969e-12 -1.54949e-12)
(2.60779e-13 -1.45498e-12 -1.16842e-12)
(1.51819e-13 -1.19103e-12 -8.90286e-13)
(7.43503e-14 -9.73419e-13 -6.85265e-13)
(2.06815e-14 -4.6245e-13 -5.35173e-13)
(5.39714e-10 -4.56765e-12 -1.8969e-11)
(-3.84293e-11 -7.22326e-12 -1.33109e-11)
(-3.14571e-11 -5.50027e-12 -9.56823e-12)
(-2.28987e-11 -4.11359e-12 -7.06001e-12)
(-1.70049e-11 -3.12299e-12 -5.3684e-12)
(-1.28447e-11 -2.41415e-12 -4.19071e-12)
(-9.85374e-12 -1.89385e-12 -3.35103e-12)
(-7.66843e-12 -1.5073e-12 -2.73872e-12)
(-6.05146e-12 -1.20308e-12 -2.2821e-12)
(-4.85848e-12 -5.85569e-13 -1.95776e-12)
(4.98522e-07 -2.04061e-09 -1.1402e-08)
(1.37918e-09 -1.83844e-09 -9.01645e-09)
(-8.82385e-10 -2.28408e-10 -6.86435e-09)
(-7.32287e-10 -1.69661e-10 -5.29752e-09)
(-6.01884e-10 -1.36077e-10 -4.15117e-09)
(-4.99642e-10 -1.10092e-10 -3.29624e-09)
(-4.18081e-10 -8.98718e-11 -2.64908e-09)
(-3.52708e-10 -7.40081e-11 -2.15245e-09)
(-3.03754e-10 -6.15133e-11 -1.76716e-09)
(-3.71457e-10 -5.49027e-11 -1.49826e-09)
(2.26794e-13 3.67022e-13 -2.56039e-14)
(2.14241e-13 3.45081e-13 -2.44465e-14)
(1.87819e-13 -4.74646e-14 -2.1961e-14)
(1.62576e-13 -5.21197e-14 -2.08461e-14)
(1.38539e-13 -5.15122e-14 -1.9169e-14)
(1.15514e-13 -5.08786e-14 -1.79039e-14)
(9.33856e-14 -5.02345e-14 -1.66612e-14)
(7.21866e-14 -4.94452e-14 -1.50172e-14)
(5.20142e-14 -4.83201e-14 -1.45288e-14)
(3.30227e-14 -2.51651e-14 -1.46891e-14)
(4.98018e-13 3.33374e-13 -3.86702e-14)
(4.60066e-13 2.39801e-13 -3.51418e-14)
(3.94358e-13 -1.85016e-13 -3.24322e-14)
(3.32808e-13 -1.82977e-13 -2.8788e-14)
(2.75656e-13 -1.76103e-13 -2.55151e-14)
(2.22426e-13 -1.70072e-13 -2.36921e-14)
(1.73011e-13 -1.64249e-13 -2.08785e-14)
(1.26875e-13 -1.58002e-13 -1.8696e-14)
(8.37603e-14 -1.50786e-13 -1.72092e-14)
(4.4627e-14 -7.74727e-14 -1.61955e-14)
(6.15607e-13 2.68187e-13 -6.13451e-14)
(5.47753e-13 7.2562e-14 -5.44918e-14)
(4.53004e-13 -3.79172e-13 -4.72419e-14)
(3.6766e-13 -3.61195e-13 -4.09861e-14)
(2.92009e-13 -3.38771e-13 -3.55519e-14)
(2.24802e-13 -3.17847e-13 -3.08589e-14)
(1.65189e-13 -2.9861e-13 -2.64532e-14)
(1.12079e-13 -2.81394e-13 -2.35012e-14)
(6.45809e-14 -2.62012e-13 -2.10198e-14)
(2.33473e-14 -1.32282e-13 -1.91103e-14)
(8.07667e-13 1.54871e-13 -9.93591e-14)
(6.92064e-13 -1.87475e-13 -8.53706e-14)
(5.54899e-13 -6.5473e-13 -7.15385e-14)
(4.37023e-13 -6.02507e-13 -5.99266e-14)
(3.37233e-13 -5.48128e-13 -5.00347e-14)
(2.52616e-13 -5.00155e-13 -4.25077e-14)
(1.80617e-13 -4.57532e-13 -3.55382e-14)
(1.1941e-13 -4.19703e-13 -2.99669e-14)
(6.73505e-14 -3.81536e-13 -2.63525e-14)
(2.39507e-14 -1.90813e-13 -2.27093e-14)
(1.07867e-12 -3.84169e-14 -1.6758e-13)
(8.86258e-13 -5.91174e-13 -1.36876e-13)
(6.86839e-13 -1.04442e-12 -1.10012e-13)
(5.2336e-13 -9.28378e-13 -8.80473e-14)
(3.91697e-13 -8.19003e-13 -7.13383e-14)
(2.84889e-13 -7.25469e-13 -5.72809e-14)
(1.98249e-13 -6.45153e-13 -4.67124e-14)
(1.27821e-13 -5.7605e-13 -3.99546e-14)
(7.0144e-14 -5.10326e-13 -3.48134e-14)
(2.45946e-14 -2.50933e-13 -2.88869e-14)
(1.46613e-12 -3.59314e-13 -2.88848e-13)
(1.15342e-12 -1.21546e-12 -2.22347e-13)
(8.59451e-13 -1.6013e-12 -1.71913e-13)
(6.31601e-13 -1.3715e-12 -1.31294e-13)
(4.57249e-13 -1.16907e-12 -1.02394e-13)
(3.22337e-13 -1.00362e-12 -8.10748e-14)
(2.17903e-13 -8.66248e-13 -6.44833e-14)
(1.36715e-13 -7.53049e-13 -5.26997e-14)
(7.32691e-14 -6.49998e-13 -4.21138e-14)
(2.5173e-14 -3.14652e-13 -3.51861e-14)
(2.03731e-12 -8.80576e-13 -5.04101e-13)
(1.52523e-12 -2.1817e-12 -3.67407e-13)
(1.08814e-12 -2.40521e-12 -2.66666e-13)
(7.68999e-13 -1.97601e-12 -1.96317e-13)
(5.36897e-13 -1.62415e-12 -1.46676e-13)
(3.66196e-13 -1.34834e-12 -1.11456e-13)
(2.39916e-13 -1.12813e-12 -8.66067e-14)
(1.46155e-13 -9.52336e-13 -6.85668e-14)
(7.66761e-14 -8.00414e-13 -5.4362e-14)
(2.5795e-14 -3.81741e-13 -4.36901e-14)
(3.25099e-12 -1.75105e-12 -8.96294e-13)
(2.05944e-12 -3.70168e-12 -6.08486e-13)
(1.39575e-12 -3.57221e-12 -4.19433e-13)
(9.44685e-13 -2.8067e-12 -2.9221e-13)
(6.34107e-13 -2.21729e-12 -2.09793e-13)
(4.17397e-13 -1.77619e-12 -1.53304e-13)
(2.64711e-13 -1.43859e-12 -1.1419e-13)
(1.56716e-13 -1.17764e-12 -8.72465e-14)
(7.992e-14 -9.63116e-13 -6.86612e-14)
(2.65641e-14 -4.52188e-13 -5.3809e-14)
(6.17042e-10 -4.18037e-12 -2.21135e-12)
(6.3233e-12 -7.03551e-12 -1.0808e-12)
(6.00254e-13 -5.31041e-12 -7.01507e-13)
(3.9047e-13 -3.95984e-12 -4.81222e-13)
(2.52307e-13 -2.99771e-12 -3.41434e-13)
(1.44703e-13 -2.311e-12 -2.51858e-13)
(6.65772e-14 -1.80796e-12 -1.9097e-13)
(1.10818e-14 -1.43483e-12 -1.49078e-13)
(-2.77958e-14 -1.1407e-12 -1.19107e-13)
(-5.19151e-14 -5.27471e-13 -9.78111e-14)
(4.94528e-07 -1.77307e-09 -1.46423e-09)
(2.4528e-09 -1.63756e-09 -5.28051e-10)
(-3.66224e-11 -3.86627e-11 -3.43691e-10)
(-3.2419e-11 -1.69189e-11 -2.30579e-10)
(-2.3331e-11 -1.19404e-11 -1.58672e-10)
(-1.71338e-11 -8.64051e-12 -1.11515e-10)
(-1.27819e-11 -6.35513e-12 -7.98772e-11)
(-9.67934e-12 -4.75213e-12 -5.82203e-11)
(-7.52117e-12 -3.59284e-12 -4.31429e-11)
(-7.65039e-12 -2.38527e-12 -3.26107e-11)
(2.2686e-13 3.66944e-13 -1.17322e-14)
(2.14217e-13 3.44446e-13 -1.06489e-14)
(1.87992e-13 -4.82857e-14 -8.06799e-15)
(1.62687e-13 -5.26422e-14 -5.74697e-15)
(1.38585e-13 -5.17638e-14 -4.5634e-15)
(1.15429e-13 -5.12405e-14 -3.52773e-15)
(9.34831e-14 -5.09527e-14 -2.85913e-15)
(7.23713e-14 -4.97844e-14 -1.56408e-15)
(5.20825e-14 -4.82031e-14 -5.53525e-16)
(3.31586e-14 -2.54076e-14 -4.93505e-16)
(4.98584e-13 3.33138e-13 -1.6545e-14)
(4.6055e-13 2.3949e-13 -1.47406e-14)
(3.94849e-13 -1.85363e-13 -1.16734e-14)
(3.33139e-13 -1.83794e-13 -9.98205e-15)
(2.75941e-13 -1.76914e-13 -6.99754e-15)
(2.22642e-13 -1.70356e-13 -5.01266e-15)
(1.73248e-13 -1.6434e-13 -4.305e-15)
(1.27243e-13 -1.58475e-13 -3.75238e-15)
(8.41293e-14 -1.50865e-13 -2.62451e-15)
(4.50119e-14 -7.73521e-14 -1.94469e-15)
(6.16742e-13 2.68061e-13 -2.75167e-14)
(5.48853e-13 7.18578e-14 -2.44277e-14)
(4.53858e-13 -3.80287e-13 -1.97425e-14)
(3.68428e-13 -3.62232e-13 -1.57039e-14)
(2.92724e-13 -3.39216e-13 -1.23476e-14)
(2.25544e-13 -3.18332e-13 -9.85583e-15)
(1.65732e-13 -2.98997e-13 -7.90382e-15)
(1.12605e-13 -2.81409e-13 -6.7427e-15)
(6.515e-14 -2.61866e-13 -6.29375e-15)
(2.38008e-14 -1.32407e-13 -5.66458e-15)
(8.09748e-13 1.54841e-13 -4.70785e-14)
(6.94119e-13 -1.88473e-13 -4.10672e-14)
(5.5659e-13 -6.55887e-13 -3.41788e-14)
(4.38487e-13 -6.03667e-13 -2.78062e-14)
(3.38581e-13 -5.49042e-13 -2.27616e-14)
(2.53673e-13 -5.00965e-13 -1.85761e-14)
(1.81581e-13 -4.58286e-13 -1.57072e-14)
(1.20374e-13 -4.20208e-13 -1.33887e-14)
(6.83104e-14 -3.81884e-13 -1.13501e-14)
(2.46628e-14 -1.90382e-13 -1.07005e-14)
(1.08249e-12 -3.80088e-14 -8.28869e-14)
(8.89632e-13 -5.93039e-13 -7.17697e-14)
(6.89724e-13 -1.04721e-12 -5.8401e-14)
(5.25754e-13 -9.3045e-13 -4.67774e-14)
(3.93716e-13 -8.20697e-13 -3.89474e-14)
(2.86644e-13 -7.27191e-13 -3.1823e-14)
(1.99768e-13 -6.46011e-13 -2.58836e-14)
(1.29121e-13 -5.76242e-13 -2.2579e-14)
(7.1406e-14 -5.10957e-13 -1.98057e-14)
(2.56942e-14 -2.51455e-13 -1.696e-14)
(1.47266e-12 -3.59454e-13 -1.46754e-13)
(1.159e-12 -1.21944e-12 -1.21829e-13)
(8.63924e-13 -1.60529e-12 -9.72374e-14)
(6.35404e-13 -1.37531e-12 -7.7551e-14)
(4.60283e-13 -1.17206e-12 -6.24334e-14)
(3.24969e-13 -1.00612e-12 -5.17957e-14)
(2.20103e-13 -8.68454e-13 -4.14463e-14)
(1.38544e-13 -7.54463e-13 -3.47737e-14)
(7.47713e-14 -6.51189e-13 -3.02858e-14)
(2.64674e-14 -3.15226e-13 -2.56597e-14)
(2.04841e-12 -8.80646e-13 -2.624e-13)
(1.53452e-12 -2.19012e-12 -2.09574e-13)
(1.09505e-12 -2.41351e-12 -1.61148e-13)
(7.7441e-13 -1.98267e-12 -1.2455e-13)
(5.41262e-13 -1.62967e-12 -9.88778e-14)
(3.69611e-13 -1.35285e-12 -7.85486e-14)
(2.42735e-13 -1.13157e-12 -6.31644e-14)
(1.48548e-13 -9.54843e-13 -5.19998e-14)
(7.85778e-14 -8.02922e-13 -4.35168e-14)
(2.74514e-14 -3.83055e-13 -3.64946e-14)
(3.29598e-12 -1.75178e-12 -4.72358e-13)
(2.07358e-12 -3.71937e-12 -3.58118e-13)
(1.40607e-12 -3.58795e-12 -2.61252e-13)
(9.52816e-13 -2.81863e-12 -1.95707e-13)
(6.40373e-13 -2.22675e-12 -1.49739e-13)
(4.22331e-13 -1.78372e-12 -1.16529e-13)
(2.68575e-13 -1.4444e-12 -9.18355e-14)
(1.59714e-13 -1.18226e-12 -7.35944e-14)
(8.22208e-14 -9.66809e-13 -5.97697e-14)
(2.84571e-14 -4.54336e-13 -5.03152e-14)
(6.59709e-10 -4.2542e-12 -1.31591e-12)
(8.71322e-12 -7.13627e-12 -6.04729e-13)
(1.81002e-12 -5.33485e-12 -4.19766e-13)
(1.15693e-12 -3.97742e-12 -3.04441e-13)
(7.45791e-13 -3.01139e-12 -2.24715e-13)
(4.72954e-13 -2.3213e-12 -1.69524e-13)
(2.89881e-13 -1.81574e-12 -1.29082e-13)
(1.66139e-13 -1.44062e-12 -1.0108e-13)
(8.16269e-14 -1.14522e-12 -7.99044e-14)
(2.56451e-14 -5.29286e-13 -6.45966e-14)
(5.2556e-07 -1.87906e-09 -1.03623e-09)
(2.79897e-09 -1.71771e-09 -3.40167e-11)
(9.22174e-12 -2.41736e-11 -1.33464e-11)
(2.87735e-14 -6.15305e-12 -7.85916e-12)
(3.90087e-14 -4.34419e-12 -4.74685e-12)
(4.87944e-14 -3.17978e-12 -2.98026e-12)
(3.82322e-14 -2.3769e-12 -1.92524e-12)
(2.36333e-14 -1.8123e-12 -1.2764e-12)
(7.78892e-15 -1.39135e-12 -8.64022e-13)
(-2.51187e-14 -6.45578e-13 -5.92014e-13)
(2.27348e-13 3.66616e-13 -1.39104e-14)
(2.14658e-13 3.43676e-13 -1.16013e-14)
(1.88202e-13 -4.93562e-14 -9.79374e-15)
(1.63018e-13 -5.34574e-14 -6.67213e-15)
(1.38742e-13 -5.23456e-14 -5.12378e-15)
(1.15585e-13 -5.15064e-14 -3.00455e-15)
(9.34844e-14 -5.09683e-14 -2.10219e-15)
(7.24413e-14 -5.03227e-14 -1.61442e-15)
(5.2283e-14 -4.8705e-14 -9.23358e-16)
(3.32316e-14 -2.50515e-14 -1.81522e-15)
(4.9989e-13 3.32782e-13 -2.02218e-14)
(4.61732e-13 2.38093e-13 -1.80504e-14)
(3.95698e-13 -1.86639e-13 -1.278e-14)
(3.33989e-13 -1.84602e-13 -1.05246e-14)
(2.76577e-13 -1.77855e-13 -7.96974e-15)
(2.23172e-13 -1.70955e-13 -5.78666e-15)
(1.73623e-13 -1.64587e-13 -4.12708e-15)
(1.27565e-13 -1.58523e-13 -3.39803e-15)
(8.45869e-14 -1.51384e-13 -3.48454e-15)
(4.54037e-14 -7.78603e-14 -2.94764e-15)
(6.19134e-13 2.67306e-13 -3.23124e-14)
(5.50897e-13 7.00881e-14 -2.88273e-14)
(4.55738e-13 -3.82021e-13 -2.3213e-14)
(3.6985e-13 -3.63622e-13 -1.87833e-14)
(2.93999e-13 -3.40661e-13 -1.45132e-14)
(2.26566e-13 -3.19251e-13 -1.13399e-14)
(1.66724e-13 -2.9956e-13 -9.28811e-15)
(1.1343e-13 -2.81814e-13 -8.5688e-15)
(6.58521e-14 -2.62249e-13 -7.37048e-15)
(2.46731e-14 -1.32859e-13 -6.80511e-15)
(8.13878e-13 1.53189e-13 -5.63705e-14)
(6.97574e-13 -1.91267e-13 -4.86747e-14)
(5.59552e-13 -6.588e-13 -4.01613e-14)
(4.40868e-13 -6.06055e-13 -3.23022e-14)
(3.40639e-13 -5.51028e-13 -2.61567e-14)
(2.55508e-13 -5.02339e-13 -2.09162e-14)
(1.83083e-13 -4.59157e-13 -1.80622e-14)
(1.21669e-13 -4.21133e-13 -1.61177e-14)
(6.93396e-14 -3.8239e-13 -1.45701e-14)
(2.56634e-14 -1.90622e-13 -1.27276e-14)
(1.08931e-12 -4.13736e-14 -9.90339e-14)
(8.95341e-13 -5.98021e-13 -8.38665e-14)
(6.94264e-13 -1.05189e-12 -6.88628e-14)
(5.29474e-13 -9.34362e-13 -5.60002e-14)
(3.96783e-13 -8.23764e-13 -4.63977e-14)
(2.89335e-13 -7.29845e-13 -3.89036e-14)
(2.01806e-13 -6.48287e-13 -3.18219e-14)
(1.30871e-13 -5.78116e-13 -2.71514e-14)
(7.29247e-14 -5.12263e-13 -2.29332e-14)
(2.68639e-14 -2.52095e-13 -2.08468e-14)
(1.48408e-12 -3.65676e-13 -1.72831e-13)
(1.16827e-12 -1.22883e-12 -1.44554e-13)
(8.7113e-13 -1.61399e-12 -1.14881e-13)
(6.40931e-13 -1.38201e-12 -9.1398e-14)
(4.64801e-13 -1.17723e-12 -7.44763e-14)
(3.28513e-13 -1.01068e-12 -6.20056e-14)
(2.23023e-13 -8.72178e-13 -5.03722e-14)
(1.40896e-13 -7.57056e-13 -4.19137e-14)
(7.67626e-14 -6.53501e-13 -3.62539e-14)
(2.81385e-14 -3.16424e-13 -3.17459e-14)
(2.06767e-12 -8.93439e-13 -3.05936e-13)
(1.54933e-12 -2.20757e-12 -2.45058e-13)
(1.10615e-12 -2.42892e-12 -1.90556e-13)
(7.82821e-13 -1.99454e-12 -1.48396e-13)
(5.47743e-13 -1.63885e-12 -1.186e-13)
(3.74653e-13 -1.36047e-12 -9.52367e-14)
(2.46794e-13 -1.13762e-12 -7.68685e-14)
(1.51652e-13 -9.59661e-13 -6.2161e-14)
(8.10088e-14 -8.06545e-13 -5.22098e-14)
(2.95363e-14 -3.85047e-13 -4.48757e-14)
(3.3432e-12 -1.77717e-12 -5.44705e-13)
(2.09746e-12 -3.75298e-12 -4.17257e-13)
(1.42288e-12 -3.61563e-12 -3.10402e-13)
(9.651e-13 -2.83925e-12 -2.34815e-13)
(6.49377e-13 -2.24231e-12 -1.81127e-13)
(4.29116e-13 -1.79594e-12 -1.42259e-13)
(2.73656e-13 -1.45431e-12 -1.13254e-13)
(1.63644e-13 -1.18995e-12 -8.901e-14)
(8.52515e-14 -9.72524e-13 -7.20094e-14)
(3.08265e-14 -4.57355e-13 -6.08239e-14)
(7.02113e-10 -4.27613e-12 -6.64457e-13)
(9.34082e-12 -7.23824e-12 -6.99258e-13)
(1.8729e-12 -5.3851e-12 -5.05097e-13)
(1.19387e-12 -4.0128e-12 -3.65752e-13)
(7.69092e-13 -3.03743e-12 -2.72116e-13)
(4.8827e-13 -2.34113e-12 -2.0571e-13)
(3.00361e-13 -1.83078e-12 -1.57774e-13)
(1.73501e-13 -1.452e-12 -1.22444e-13)
(8.68555e-14 -1.15399e-12 -9.71052e-14)
(2.9383e-14 -5.3416e-13 -7.90486e-14)
(5.71861e-07 -1.94544e-09 -4.37316e-10)
(3.01907e-09 -1.82512e-09 8.423e-14)
(1.24983e-11 -2.48064e-11 -1.15449e-12)
(1.16833e-12 -5.73586e-12 -7.59032e-13)
(7.63045e-13 -4.09271e-12 -5.04797e-13)
(5.13358e-13 -3.02466e-12 -3.50232e-13)
(3.46052e-13 -2.27963e-12 -2.51549e-13)
(2.31877e-13 -1.75018e-12 -1.83462e-13)
(1.52966e-13 -1.35108e-12 -1.37876e-13)
(9.89838e-14 -6.15942e-13 -1.06756e-13)
(2.28008e-13 3.66006e-13 -1.57575e-14)
(2.15334e-13 3.42814e-13 -1.38051e-14)
(1.88545e-13 -5.02362e-14 -1.05074e-14)
(1.63356e-13 -5.44929e-14 -8.3997e-15)
(1.3907e-13 -5.32213e-14 -6.38184e-15)
(1.15879e-13 -5.24433e-14 -4.49264e-15)
(9.38041e-14 -5.15085e-14 -3.23698e-15)
(7.27074e-14 -5.02867e-14 -6.44294e-15)
(5.26366e-14 -4.82641e-14 -2.11564e-14)
(3.34878e-14 -2.55261e-14 -5.85977e-14)
(5.0146e-13 3.3214e-13 -2.40011e-14)
(4.63161e-13 2.36612e-13 -1.98096e-14)
(3.96889e-13 -1.8827e-13 -1.58231e-14)
(3.34961e-13 -1.85673e-13 -1.24612e-14)
(2.77389e-13 -1.78787e-13 -1.02259e-14)
(2.23929e-13 -1.71892e-13 -7.87884e-15)
(1.74362e-13 -1.65322e-13 -6.86219e-15)
(1.28333e-13 -1.58803e-13 -7.28345e-15)
(8.51976e-14 -1.51278e-13 -1.40838e-14)
(4.58803e-14 -7.87157e-14 -4.12731e-14)
(6.21954e-13 2.66359e-13 -3.78611e-14)
(5.53235e-13 6.83976e-14 -3.17444e-14)
(4.57801e-13 -3.84071e-13 -2.55366e-14)
(3.71607e-13 -3.65564e-13 -2.08921e-14)
(2.95416e-13 -3.4212e-13 -1.72015e-14)
(2.27818e-13 -3.20435e-13 -1.44425e-14)
(1.67843e-13 -3.00184e-13 -1.2419e-14)
(1.14562e-13 -2.82329e-13 -1.2493e-14)
(6.68994e-14 -2.62905e-13 -1.67763e-14)
(2.53662e-14 -1.33994e-13 -3.25683e-14)
(8.18802e-13 1.51168e-13 -6.4183e-14)
(7.01622e-13 -1.94458e-13 -5.35892e-14)
(5.62893e-13 -6.6192e-13 -4.39236e-14)
(4.43724e-13 -6.08939e-13 -3.62916e-14)
(3.43148e-13 -5.5345e-13 -3.03605e-14)
(2.5771e-13 -5.04268e-13 -2.65935e-14)
(1.84943e-13 -4.60407e-13 -2.33932e-14)
(1.23187e-13 -4.21862e-13 -2.10934e-14)
(7.07211e-14 -3.83699e-13 -2.27804e-14)
(2.68566e-14 -1.92134e-13 -3.16449e-14)
(1.09746e-12 -4.52839e-14 -1.12638e-13)
(9.02062e-13 -6.03786e-13 -9.25783e-14)
(6.9964e-13 -1.05722e-12 -7.50168e-14)
(5.33846e-13 -9.38814e-13 -6.2325e-14)
(4.00497e-13 -8.27324e-13 -5.25782e-14)
(2.92556e-13 -7.33085e-13 -4.53122e-14)
(2.0455e-13 -6.51043e-13 -4.00352e-14)
(1.33002e-13 -5.80275e-13 -3.53706e-14)
(7.47126e-14 -5.14076e-13 -3.23777e-14)
(2.86372e-14 -2.53833e-13 -3.77685e-14)
(1.4977e-12 -3.73236e-13 -1.98554e-13)
(1.17895e-12 -1.23937e-12 -1.59446e-13)
(8.79464e-13 -1.62379e-12 -1.27064e-13)
(6.47646e-13 -1.39005e-12 -1.03713e-13)
(4.70155e-13 -1.18336e-12 -8.55632e-14)
(3.32934e-13 -1.01589e-12 -7.33836e-14)
(2.26653e-13 -8.76959e-13 -6.19926e-14)
(1.43749e-13 -7.60846e-13 -5.29604e-14)
(7.9204e-14 -6.56206e-13 -4.75678e-14)
(3.01649e-14 -3.18822e-13 -4.77815e-14)
(2.09043e-12 -9.08593e-13 -3.48406e-13)
(1.56633e-12 -2.22751e-12 -2.69521e-13)
(1.11897e-12 -2.44591e-12 -2.10687e-13)
(7.92778e-13 -2.00817e-12 -1.67767e-13)
(5.55453e-13 -1.64954e-12 -1.34906e-13)
(3.80718e-13 -1.36938e-12 -1.11625e-13)
(2.51695e-13 -1.14527e-12 -9.13918e-14)
(1.55469e-13 -9.65722e-13 -7.71956e-14)
(8.39622e-14 -8.11236e-13 -6.68091e-14)
(3.19085e-14 -3.88421e-13 -6.14481e-14)
(3.33833e-12 -1.8068e-12 -6.13873e-13)
(2.1236e-12 -3.79048e-12 -4.55948e-13)
(1.44281e-12 -3.64635e-12 -3.44461e-13)
(9.79631e-13 -2.86276e-12 -2.64231e-13)
(6.60238e-13 -2.26038e-12 -2.06219e-13)
(4.37291e-13 -1.81003e-12 -1.64909e-13)
(2.79997e-13 -1.46637e-12 -1.34827e-13)
(1.6849e-13 -1.2001e-12 -1.09008e-13)
(8.89385e-14 -9.80035e-13 -9.06933e-14)
(3.36786e-14 -4.61961e-13 -7.86135e-14)
(6.95423e-10 -3.88379e-12 2.09229e-12)
(8.67631e-12 -7.19097e-12 -7.1869e-13)
(1.89947e-12 -5.43755e-12 -5.65196e-13)
(1.21644e-12 -4.05363e-12 -4.12437e-13)
(7.85121e-13 -3.06775e-12 -3.11217e-13)
(4.99783e-13 -2.3644e-12 -2.3959e-13)
(3.08731e-13 -1.8496e-12 -1.89876e-13)
(1.79551e-13 -1.46647e-12 -1.47036e-13)
(9.13579e-14 -1.16526e-12 -1.20406e-13)
(3.26368e-14 -5.41033e-13 -1.00744e-13)
(5.91935e-07 -1.45953e-09 3.24249e-09)
(2.87685e-09 -1.80125e-09 5.27e-11)
(9.82673e-12 -2.29969e-11 -5.9949e-13)
(1.20588e-12 -5.77371e-12 -6.38202e-13)
(7.94541e-13 -4.13483e-12 -4.64153e-13)
(5.3352e-13 -3.05734e-12 -3.43584e-13)
(3.59533e-13 -2.30595e-12 -2.61675e-13)
(2.41171e-13 -1.77037e-12 -1.95473e-13)
(1.59294e-13 -1.36656e-12 -1.54768e-13)
(1.03716e-13 -6.24736e-13 -1.24876e-13)
(2.28381e-13 3.6587e-13 -1.04787e-14)
(2.14951e-13 3.41718e-13 2.11907e-17)
(1.88598e-13 -5.14025e-14 -8.19357e-16)
(1.63543e-13 -5.50604e-14 -4.70522e-15)
(1.39632e-13 -5.39598e-14 -1.44955e-14)
(1.16912e-13 -5.29816e-14 -3.29082e-14)
(9.54216e-14 -5.07053e-14 -6.70202e-14)
(7.63586e-14 -4.51495e-14 -2.49059e-13)
(5.99613e-14 -3.54563e-14 -9.5392e-13)
(3.81242e-14 -4.73771e-14 -2.46824e-12)
(5.02471e-13 3.31355e-13 -1.26672e-14)
(4.6304e-13 2.3559e-13 4.70286e-15)
(3.97171e-13 -1.8906e-13 7.13591e-16)
(3.35468e-13 -1.86535e-13 -3.22817e-15)
(2.78296e-13 -1.79711e-13 -1.29834e-14)
(2.25299e-13 -1.72824e-13 -3.04939e-14)
(1.76104e-13 -1.66052e-13 -5.6817e-14)
(1.30913e-13 -1.59479e-13 -1.63871e-13)
(8.9101e-14 -1.51366e-13 -5.70295e-13)
(4.63541e-14 -1.18062e-13 -1.62425e-12)
(6.23681e-13 2.65456e-13 -2.10169e-14)
(5.53654e-13 6.7059e-14 4.54837e-15)
(4.58381e-13 -3.84897e-13 2.12704e-15)
(3.72549e-13 -3.66054e-13 -3.98374e-15)
(2.96777e-13 -3.42971e-13 -1.33799e-14)
(2.29772e-13 -3.21796e-13 -3.11175e-14)
(1.70167e-13 -3.02205e-13 -5.83199e-14)
(1.17203e-13 -2.8458e-13 -1.22069e-13)
(7.05237e-14 -2.68869e-13 -3.75316e-13)
(2.64476e-14 -1.77083e-13 -1.07314e-12)
(8.21983e-13 1.50337e-13 -3.74457e-14)
(7.02712e-13 -1.95287e-13 8.01165e-16)
(5.64254e-13 -6.62589e-13 -2.22167e-15)
(4.45469e-13 -6.09478e-13 -9.34581e-15)