/*--------------------------------*- C++ -*----------------------------------*\
| =========                 |                                                 |
| \\      /  F ield         | OpenFOAM: The Open Source CFD Toolbox           |
|  \\    /   O peration     | Version:  4.1                                   |
|   \\  /    A nd           | Web:      www.OpenFOAM.org                      |
|    \\/     M anipulation  |                                                 |
\*---------------------------------------------------------------------------*/
FoamFile
{
    version     2.0;
    format      ascii;
    class       volScalarField;
    location    "9.58";
    object      p;
}
// * * * * * * * * * * * * * * * * * * * * * * * * * * * * * * * * * * * * * //

dimensions      [1 -1 -2 0 0 0 0];

internalField   nonuniform List<scalar> 
52500
(
1.00001
1.00004
1.00014
1.0003
1.00085
1.00175
1.00496
1.00994
1.02965
1.05542
1.18962
1.36065
2.29968
4.20866
10.1846
11.4032
11.2459
11.1794
11.2623
11.4823
11.7161
11.8689
11.9865
12.0803
12.154
1.00001
1.00004
1.00013
1.00029
1.00084
1.00173
1.00492
1.00985
1.02936
1.05492
1.1877
1.35653
2.28702
4.17084
10.1047
11.3974
11.2388
11.168
11.2513
11.4719
11.7057
11.8588
11.9782
12.0736
12.149
1.00001
1.00004
1.00013
1.00029
1.00083
1.0017
1.00482
1.00966
1.02875
1.05391
1.18373
1.34812
2.26035
4.09111
9.92737
11.3828
11.2195
11.1358
11.2173
11.4351
11.6661
11.8165
11.9348
12.0291
12.1036
1.00001
1.00004
1.00013
1.00028
1.0008
1.00164
1.00467
1.00935
1.02785
1.05212
1.17826
1.33481
2.22117
3.97665
9.65381
11.3613
11.1884
11.0823
11.1601
11.3712
11.5962
11.7411
11.8556
11.9468
12.021
1.00001
1.00003
1.00012
1.00026
1.00076
1.00157
1.00446
1.00892
1.02664
1.04963
1.17114
1.3171
2.16903
3.82786
9.28049
11.3364
11.1475
11.0096
11.082
11.2835
11.4998
11.6364
11.7444
11.8309
11.9057
1.00001
1.00003
1.00011
1.00025
1.00072
1.00147
1.00419
1.00836
1.02514
1.04631
1.16244
1.29528
2.10347
3.64258
8.7984
11.3133
11.0989
10.918
10.9828
11.1703
11.3741
11.4984
11.5957
11.6738
11.748
1.00001
1.00003
1.0001
1.00023
1.00066
1.00135
1.00387
1.00766
1.02338
1.04219
1.15166
1.26885
2.03125
3.41718
8.2078
11.2968
11.0438
10.8082
10.8641
11.0326
11.2173
11.3214
11.3989
11.4584
11.5252
1.00001
1.00003
1.0001
1.00021
1.0006
1.00124
1.00354
1.00703
1.02135
1.03867
1.13818
1.24427
1.92797
3.16327
7.49465
11.291
10.9902
10.6843
10.7286
10.8716
11.0283
11.1027
11.1466
11.1683
11.2067
1.00001
1.00002
1.00009
1.00019
1.00055
1.00114
1.00323
1.00652
1.01901
1.03666
1.11969
1.22211
1.80305
2.88277
6.6618
11.2746
10.9378
10.5538
10.5815
10.6872
10.8047
10.8352
10.8238
10.7688
10.7119
1
1.00002
1.00008
1.00017
1.00048
1.00099
1.00282
1.0057
1.01659
1.03236
1.10293
1.19555
1.68025
2.59684
5.75735
11.183
10.8579
10.4294
10.4268
10.4809
10.5446
10.5229
10.4293
10.2114
9.87699
1.00001
1.00004
1.00014
1.0003
1.00086
1.00175
1.00497
1.00995
1.02967
1.05544
1.18966
1.36077
2.29994
4.20958
10.1862
11.403
11.2458
11.1795
11.2624
11.4824
11.7162
11.869
11.9865
12.0803
12.154
1.00001
1.00004
1.00014
1.0003
1.00085
1.00174
1.00492
1.00986
1.02937
1.05494
1.18774
1.35665
2.28728
4.17175
10.1063
11.3972
11.2387
11.1681
11.2514
11.472
11.7058
11.8589
11.9782
12.0737
12.149
1.00001
1.00004
1.00013
1.00029
1.00083
1.0017
1.00483
1.00967
1.02876
1.05393
1.18377
1.34824
2.26058
4.09198
9.92895
11.3827
11.2195
11.1359
11.2174
11.4353
11.6662
11.8166
11.9349
12.0291
12.1037
1.00001
1.00004
1.00013
1.00028
1.0008
1.00165
1.00467
1.00936
1.02786
1.05214
1.1783
1.33493
2.22138
3.97737
9.65533
11.3611
11.1883
11.0824
11.1602
11.3713
11.5963
11.7412
11.8557
11.9469
12.0211
1.00001
1.00004
1.00012
1.00027
1.00077
1.00157
1.00447
1.00894
1.02665
1.04966
1.17117
1.31721
2.16922
3.82851
9.28196
11.3363
11.1475
11.0098
11.0821
11.2836
11.5
11.6365
11.7445
11.8311
11.9058
1.00001
1.00004
1.00012
1.00025
1.00072
1.00148
1.0042
1.00837
1.02516
1.04635
1.16246
1.2954
2.10363
3.6432
8.79984
11.3131
11.0989
10.9181
10.983
11.1704
11.3742
11.4985
11.5958
11.6739
11.7482
1.00001
1.00003
1.00011
1.00023
1.00067
1.00136
1.00388
1.00767
1.02339
1.04222
1.1517
1.26895
2.03144
3.41779
8.20924
11.2966
11.0439
10.8084
10.8642
11.0327
11.2174
11.3215
11.399
11.4586
11.5254
1.00001
1.00003
1.0001
1.00021
1.00061
1.00125
1.00355
1.00704
1.02136
1.0387
1.13822
1.24435
1.92817
3.16385
7.49612
11.2908
10.9902
10.6844
10.7287
10.8717
11.0284
11.1028
11.1468
11.1685
11.2069
1.00001
1.00003
1.00009
1.0002
1.00056
1.00114
1.00323
1.00653
1.01902
1.03669
1.11973
1.2222
1.80323
2.88331
6.66327
11.2744
10.9378
10.5539
10.5816
10.6873
10.8049
10.8353
10.8239
10.769
10.7121
1.00001
1.00002
1.00008
1.00017
1.00049
1.001
1.00283
1.00571
1.0166
1.03238
1.10296
1.19563
1.68042
2.59734
5.75884
11.183
10.858
10.4295
10.4269
10.4811
10.5447
10.523
10.4294
10.2115
9.87716
1.00001
1.00004
1.00014
1.0003
1.00086
1.00175
1.00497
1.00995
1.02967
1.05544
1.18967
1.36078
2.29997
4.20965
10.1863
11.403
11.2458
11.1795
11.2624
11.4824
11.7162
11.869
11.9865
12.0803
12.154
1.00001
1.00004
1.00014
1.0003
1.00085
1.00174
1.00492
1.00986
1.02937
1.05494
1.18775
1.35665
2.2873
4.17181
10.1065
11.3972
11.2387
11.1681
11.2514
11.472
11.7058
11.8589
11.9782
12.0737
12.149
1.00001
1.00004
1.00013
1.00029
1.00083
1.0017
1.00483
1.00967
1.02876
1.05393
1.18377
1.34825
2.26061
4.09204
9.92909
11.3827
11.2195
11.1359
11.2175
11.4353
11.6662
11.8167
11.9349
12.0292
12.1037
1.00001
1.00004
1.00013
1.00028
1.0008
1.00165
1.00467
1.00936
1.02786
1.05214
1.1783
1.33494
2.2214
3.97742
9.65547
11.3611
11.1884
11.0824
11.1602
11.3713
11.5963
11.7413
11.8557
11.9469
12.0211
1.00001
1.00004
1.00012
1.00027
1.00077
1.00157
1.00447
1.00894
1.02665
1.04966
1.17117
1.31722
2.16924
3.82857
9.2821
11.3363
11.1476
11.0098
11.0821
11.2837
11.5
11.6366
11.7445
11.8311
11.9058
1.00001
1.00004
1.00012
1.00025
1.00072
1.00148
1.0042
1.00837
1.02516
1.04635
1.16247
1.29541
2.10365
3.64325
8.79998
11.3131
11.0989
10.9181
10.983
11.1704
11.3743
11.4985
11.5959
11.6739
11.7482
1.00001
1.00003
1.00011
1.00023
1.00067
1.00136
1.00388
1.00767
1.02339
1.04222
1.15171
1.26895
2.03145
3.41784
8.20939
11.2966
11.0439
10.8084
10.8643
11.0328
11.2174
11.3215
11.399
11.4586
11.5254
1.00001
1.00003
1.0001
1.00021
1.00061
1.00125
1.00355
1.00704
1.02136
1.0387
1.13822
1.24435
1.9282
3.1639
7.49628
11.2908
10.9902
10.6844
10.7287
10.8718
11.0285
11.1028
11.1468
11.1685
11.2069
1.00001
1.00003
1.00009
1.0002
1.00056
1.00114
1.00323
1.00653
1.01902
1.03669
1.11973
1.2222
1.80326
2.88337
6.66344
11.2744
10.9378
10.554
10.5817
10.6873
10.8049
10.8353
10.8239
10.769
10.7121
1.00001
1.00002
1.00008
1.00017
1.00049
1.001
1.00283
1.00571
1.01661
1.03238
1.10296
1.19563
1.68045
2.5974
5.75901
11.183
10.858
10.4295
10.427
10.4811
10.5447
10.5231
10.4295
10.2115
9.87719
1.00001
1.00004
1.00014
1.0003
1.00086
1.00175
1.00497
1.00995
1.02967
1.05544
1.18967
1.36078
2.29997
4.20966
10.1863
11.403
11.2458
11.1795
11.2624
11.4824
11.7162
11.869
11.9865
12.0803
12.154
1.00001
1.00004
1.00014
1.0003
1.00085
1.00174
1.00492
1.00986
1.02937
1.05494
1.18775
1.35666
2.2873
4.17182
10.1065
11.3972
11.2387
11.1681
11.2514
11.472
11.7059
11.8589
11.9782
12.0737
12.149
1.00001
1.00004
1.00013
1.00029
1.00083
1.0017
1.00483
1.00967
1.02876
1.05393
1.18377
1.34825
2.26061
4.09205
9.9291
11.3826
11.2195
11.1359
11.2175
11.4353
11.6662
11.8167
11.9349
12.0292
12.1037
1.00001
1.00004
1.00013
1.00028
1.0008
1.00165
1.00467
1.00936
1.02786
1.05214
1.1783
1.33494
2.2214
3.97743
9.65549
11.3611
11.1884
11.0824
11.1602
11.3713
11.5963
11.7413
11.8557
11.9469
12.0211
1.00001
1.00004
1.00012
1.00027
1.00077
1.00157
1.00447
1.00894
1.02665
1.04966
1.17117
1.31722
2.16924
3.82858
9.28212
11.3363
11.1476
11.0098
11.0821
11.2837
11.5
11.6366
11.7445
11.8311
11.9058
1.00001
1.00004
1.00012
1.00025
1.00072
1.00148
1.0042
1.00837
1.02516
1.04635
1.16247
1.29541
2.10365
3.64326
8.8
11.3131
11.0989
10.9181
10.983
11.1704
11.3743
11.4985
11.5959
11.6739
11.7482
1.00001
1.00003
1.00011
1.00023
1.00067
1.00136
1.00388
1.00767
1.02339
1.04222
1.15171
1.26895
2.03146
3.41785
8.20941
11.2966
11.0439
10.8084
10.8643
11.0328
11.2174
11.3215
11.399
11.4586
11.5254
1.00001
1.00003
1.0001
1.00021
1.00061
1.00125
1.00355
1.00704
1.02136
1.0387
1.13822
1.24435
1.9282
3.16391
7.4963
11.2908
10.9902
10.6844
10.7287
10.8718
11.0285
11.1028
11.1468
11.1685
11.2069
1.00001
1.00003
1.00009
1.0002
1.00056
1.00114
1.00323
1.00653
1.01902
1.03669
1.11973
1.2222
1.80326
2.88337
6.66346
11.2744
10.9378
10.554
10.5817
10.6873
10.8049
10.8353
10.8239
10.769
10.7121
1.00001
1.00002
1.00008
1.00017
1.00049
1.001
1.00283
1.00571
1.01661
1.03238
1.10296
1.19563
1.68045
2.5974
5.75903
11.183
10.858
10.4295
10.427
10.4811
10.5447
10.5231
10.4295
10.2115
9.87719
1.00001
1.00004
1.00014
1.0003
1.00086
1.00175
1.00497
1.00995
1.02967
1.05544
1.18967
1.36078
2.29997
4.20966
10.1863
11.403
11.2458
11.1795
11.2624
11.4824
11.7162
11.869
11.9865
12.0804
12.154
1.00001
1.00004
1.00014
1.0003
1.00085
1.00174
1.00492
1.00986
1.02937
1.05494
1.18775
1.35666
2.2873
4.17183
10.1065
11.3972
11.2387
11.1681
11.2514
11.4721
11.7059
11.8589
11.9782
12.0737
12.149
1.00001
1.00004
1.00013
1.00029
1.00083
1.0017
1.00483
1.00967
1.02876
1.05393
1.18377
1.34825
2.26061
4.09206
9.92912
11.3826
11.2195
11.1359
11.2175
11.4353
11.6662
11.8167
11.9349
12.0292
12.1037
1.00001
1.00004
1.00013
1.00028
1.0008
1.00165
1.00467
1.00936
1.02786
1.05215
1.1783
1.33494
2.2214
3.97744
9.6555
11.3611
11.1884
11.0824
11.1602
11.3713
11.5963
11.7413
11.8557
11.9469
12.0211
1.00001
1.00004
1.00012
1.00027
1.00077
1.00157
1.00447
1.00894
1.02665
1.04966
1.17117
1.31722
2.16924
3.82858
9.28213
11.3363
11.1476
11.0098
11.0821
11.2837
11.5
11.6366
11.7445
11.8311
11.9058
1.00001
1.00004
1.00012
1.00025
1.00072
1.00148
1.0042
1.00837
1.02516
1.04635
1.16247
1.29541
2.10365
3.64326
8.80002
11.3131
11.0989
10.9181
10.983
11.1704
11.3743
11.4985
11.5959
11.6739
11.7482
1.00001
1.00003
1.00011
1.00023
1.00067
1.00136
1.00388
1.00767
1.02339
1.04222
1.15171
1.26896
2.03146
3.41786
8.20942
11.2966
11.0439
10.8084
10.8643
11.0328
11.2174
11.3215
11.399
11.4586
11.5254
1.00001
1.00003
1.0001
1.00021
1.00061
1.00125
1.00355
1.00704
1.02136
1.0387
1.13822
1.24435
1.9282
3.16391
7.49632
11.2908
10.9902
10.6844
10.7287
10.8718
11.0285
11.1028
11.1468
11.1685
11.2069
1.00001
1.00003
1.00009
1.0002
1.00056
1.00114
1.00323
1.00653
1.01902
1.03669
1.11973
1.2222
1.80326
2.88338
6.66348
11.2744
10.9378
10.554
10.5817
10.6873
10.8049
10.8353
10.8239
10.769
10.7121
1.00001
1.00002
1.00008
1.00017
1.00049
1.001
1.00283
1.00571
1.01661
1.03238
1.10296
1.19563
1.68045
2.59741
5.75905
11.183
10.858
10.4295
10.427
10.4811
10.5447
10.5231
10.4295
10.2116
9.8772
1.00001
1.00004
1.00014
1.0003
1.00086
1.00175
1.00497
1.00995
1.02967
1.05544
1.18967
1.36078
2.29997
4.20966
10.1863
11.403
11.2458
11.1795
11.2624
11.4824
11.7162
11.869
11.9865
12.0804
12.154
1.00001
1.00004
1.00014
1.0003
1.00085
1.00174
1.00492
1.00986
1.02937
1.05494
1.18775
1.35666
2.2873
4.17183
10.1065
11.3972
11.2387
11.1681
11.2514
11.4721
11.7059
11.8589
11.9782
12.0737
12.149
1.00001
1.00004
1.00013
1.00029
1.00083
1.0017
1.00483
1.00967
1.02876
1.05393
1.18377
1.34825
2.26061
4.09206
9.92912
11.3826
11.2195
11.1359
11.2175
11.4353
11.6662
11.8167
11.9349
12.0292
12.1037
1.00001
1.00004
1.00013
1.00028
1.0008
1.00165
1.00467
1.00936
1.02786
1.05215
1.1783
1.33494
2.2214
3.97744
9.6555
11.3611
11.1884
11.0824
11.1602
11.3713
11.5963
11.7413
11.8557
11.9469
12.0211
1.00001
1.00004
1.00012
1.00027
1.00077
1.00157
1.00447
1.00894
1.02665
1.04966
1.17117
1.31722
2.16924
3.82858
9.28214
11.3363
11.1476
11.0098
11.0821
11.2837
11.5
11.6366
11.7445
11.8311
11.9058
1.00001
1.00004
1.00012
1.00025
1.00072
1.00148
1.0042
1.00837
1.02516
1.04635
1.16247
1.29541
2.10365
3.64327
8.80002
11.3131
11.0989
10.9181
10.983
11.1704
11.3743
11.4985
11.5959
11.6739
11.7482
1.00001
1.00003
1.00011
1.00023
1.00067
1.00136
1.00388
1.00767
1.02339
1.04222
1.15171
1.26896
2.03146
3.41786
8.20943
11.2966
11.0439
10.8084
10.8643
11.0328
11.2174
11.3215
11.399
11.4586
11.5254
1.00001
1.00003
1.0001
1.00021
1.00061
1.00125
1.00355
1.00704
1.02136
1.0387
1.13822
1.24435
1.9282
3.16392
7.49632
11.2908
10.9902
10.6844
10.7287
10.8718
11.0285
11.1028
11.1468
11.1685
11.2069
1.00001
1.00003
1.00009
1.0002
1.00056
1.00114
1.00323
1.00653
1.01902
1.03669
1.11973
1.2222
1.80326
2.88338
6.66348
11.2744
10.9378
10.554
10.5817
10.6873
10.8049
10.8353
10.8239
10.769
10.7122
1.00001
1.00002
1.00008
1.00017
1.00049
1.001
1.00283
1.00571
1.01661
1.03238
1.10296
1.19563
1.68045
2.59741
5.75905
11.183
10.858
10.4295
10.427
10.4811
10.5447
10.5231
10.4295
10.2116
9.8772
1.00001
1.00004
1.00014
1.0003
1.00086
1.00175
1.00497
1.00995
1.02967
1.05544
1.18967
1.36078
2.29997
4.20966
10.1863
11.403
11.2458
11.1795
11.2624
11.4824
11.7162
11.869
11.9865
12.0803
12.154
1.00001
1.00004
1.00014
1.0003
1.00085
1.00174
1.00492
1.00986
1.02937
1.05494
1.18775
1.35666
2.2873
4.17182
10.1065
11.3972
11.2387
11.1681
11.2514
11.472
11.7059
11.8589
11.9782
12.0737
12.149
1.00001
1.00004
1.00013
1.00029
1.00083
1.0017
1.00483
1.00967
1.02876
1.05393
1.18377
1.34825
2.26061
4.09205
9.92911
11.3826
11.2195
11.1359
11.2175
11.4353
11.6662
11.8167
11.9349
12.0292
12.1037
1.00001
1.00004
1.00013
1.00028
1.0008
1.00165
1.00467
1.00936
1.02786
1.05214
1.1783
1.33494
2.2214
3.97743
9.65549
11.3611
11.1884
11.0824
11.1602
11.3713
11.5963
11.7413
11.8557
11.9469
12.0211
1.00001
1.00004
1.00012
1.00027
1.00077
1.00157
1.00447
1.00894
1.02665
1.04966
1.17117
1.31722
2.16924
3.82858
9.28213
11.3363
11.1476
11.0098
11.0821
11.2837
11.5
11.6366
11.7445
11.8311
11.9058
1.00001
1.00004
1.00012
1.00025
1.00072
1.00148
1.0042
1.00837
1.02516
1.04635
1.16247
1.29541
2.10365
3.64326
8.80001
11.3131
11.0989
10.9181
10.983
11.1704
11.3743
11.4985
11.5959
11.6739
11.7482
1.00001
1.00003
1.00011
1.00023
1.00067
1.00136
1.00388
1.00767
1.02339
1.04222
1.15171
1.26895
2.03146
3.41785
8.20942
11.2966
11.0439
10.8084
10.8643
11.0328
11.2174
11.3215
11.399
11.4586
11.5254
1.00001
1.00003
1.0001
1.00021
1.00061
1.00125
1.00355
1.00704
1.02136
1.0387
1.13822
1.24435
1.9282
3.16391
7.49631
11.2908
10.9902
10.6844
10.7287
10.8718
11.0285
11.1028
11.1468
11.1685
11.2069
1.00001
1.00003
1.00009
1.0002
1.00056
1.00114
1.00323
1.00653
1.01902
1.03669
1.11973
1.2222
1.80326
2.88338
6.66347
11.2744
10.9378
10.554
10.5817
10.6873
10.8049
10.8353
10.8239
10.769
10.7121
1.00001
1.00002
1.00008
1.00017
1.00049
1.001
1.00283
1.00571
1.01661
1.03238
1.10296
1.19563
1.68045
2.59741
5.75904
11.183
10.858
10.4295
10.427
10.4811
10.5447
10.5231
10.4295
10.2116
9.87719
1.00001
1.00004
1.00014
1.0003
1.00086
1.00175
1.00497
1.00995
1.02967
1.05544
1.18967
1.36078
2.29997
4.20965
10.1863
11.403
11.2458
11.1795
11.2624
11.4824
11.7162
11.869
11.9865
12.0803
12.154
1.00001
1.00004
1.00014
1.0003
1.00085
1.00174
1.00492
1.00986
1.02937
1.05494
1.18775
1.35665
2.2873
4.17181
10.1065
11.3972
11.2387
11.1681
11.2514
11.472
11.7058
11.8589
11.9782
12.0737
12.149
1.00001
1.00004
1.00013
1.00029
1.00083
1.0017
1.00483
1.00967
1.02876
1.05393
1.18377
1.34825
2.26061
4.09204
9.92909
11.3827
11.2195
11.1359
11.2175
11.4353
11.6662
11.8167
11.9349
12.0292
12.1037
1.00001
1.00004
1.00013
1.00028
1.0008
1.00165
1.00467
1.00936
1.02786
1.05214
1.1783
1.33494
2.2214
3.97742
9.65547
11.3611
11.1884
11.0824
11.1602
11.3713
11.5963
11.7413
11.8557
11.9469
12.0211
1.00001
1.00004
1.00012
1.00027
1.00077
1.00157
1.00447
1.00894
1.02665
1.04966
1.17117
1.31722
2.16924
3.82857
9.2821
11.3363
11.1476
11.0098
11.0821
11.2837
11.5
11.6366
11.7445
11.8311
11.9058
1.00001
1.00004
1.00012
1.00025
1.00072
1.00148
1.0042
1.00837
1.02516
1.04635
1.16247
1.29541
2.10365
3.64325
8.79998
11.3131
11.0989
10.9181
10.983
11.1704
11.3743
11.4985
11.5959
11.6739
11.7482
1.00001
1.00003
1.00011
1.00023
1.00067
1.00136
1.00388
1.00767
1.02339
1.04222
1.15171
1.26895
2.03146
3.41784
8.20939
11.2966
11.0439
10.8084
10.8643
11.0328
11.2174
11.3215
11.399
11.4586
11.5254
1.00001
1.00003
1.0001
1.00021
1.00061
1.00125
1.00355
1.00704
1.02136
1.0387
1.13822
1.24435
1.9282
3.1639
7.49628
11.2908
10.9902
10.6844
10.7287
10.8718
11.0285
11.1028
11.1468
11.1685
11.2069
1.00001
1.00003
1.00009
1.0002
1.00056
1.00114
1.00323
1.00653
1.01902
1.03669
1.11973
1.2222
1.80326
2.88337
6.66344
11.2744
10.9378
10.554
10.5817
10.6873
10.8049
10.8353
10.8239
10.769
10.7121
1.00001
1.00002
1.00008
1.00017
1.00049
1.001
1.00283
1.00571
1.01661
1.03238
1.10296
1.19563
1.68045
2.5974
5.75901
11.183
10.858
10.4295
10.427
10.4811
10.5447
10.5231
10.4295
10.2115
9.87719
1.00001
1.00004
1.00014
1.0003
1.00086
1.00175
1.00497
1.00995
1.02967
1.05544
1.18966
1.36077
2.29994
4.20958
10.1862
11.403
11.2458
11.1795
11.2624
11.4824
11.7162
11.869
11.9865
12.0803
12.154
1.00001
1.00004
1.00014
1.0003
1.00085
1.00174
1.00492
1.00986
1.02937
1.05494
1.18774
1.35665
2.28728
4.17175
10.1063
11.3972
11.2387
11.1681
11.2514
11.472
11.7058
11.8589
11.9782
12.0737
12.149
1.00001
1.00004
1.00013
1.00029
1.00083
1.0017
1.00483
1.00967
1.02876
1.05393
1.18377
1.34824
2.26058
4.09198
9.92895
11.3827
11.2195
11.1359
11.2174
11.4353
11.6662
11.8166
11.9349
12.0291
12.1037
1.00001
1.00004
1.00013
1.00028
1.0008
1.00165
1.00467
1.00936
1.02786
1.05214
1.1783
1.33493
2.22138
3.97737
9.65533
11.3611
11.1883
11.0824
11.1602
11.3713
11.5963
11.7412
11.8557
11.9469
12.0211
1.00001
1.00004
1.00012
1.00027
1.00077
1.00157
1.00447
1.00894
1.02665
1.04966
1.17117
1.31721
2.16922
3.82851
9.28196
11.3363
11.1475
11.0098
11.0821
11.2836
11.5
11.6365
11.7445
11.8311
11.9058
1.00001
1.00004
1.00012
1.00025
1.00072
1.00148
1.0042
1.00837
1.02516
1.04635
1.16246
1.2954
2.10363
3.6432
8.79984
11.3131
11.0989
10.9181
10.983
11.1704
11.3742
11.4985
11.5958
11.6739
11.7482
1.00001
1.00003
1.00011
1.00023
1.00067
1.00136
1.00388
1.00767
1.02339
1.04222
1.1517
1.26895
2.03144
3.41779
8.20924
11.2966
11.0439
10.8084
10.8642
11.0327
11.2174
11.3215
11.399
11.4586
11.5254
1.00001
1.00003
1.0001
1.00021
1.00061
1.00125
1.00355
1.00704
1.02136
1.0387
1.13822
1.24435
1.92817
3.16385
7.49612
11.2908
10.9902
10.6844
10.7287
10.8717
11.0284
11.1028
11.1468
11.1685
11.2069
1.00001
1.00003
1.00009
1.0002
1.00056
1.00114
1.00323
1.00653
1.01902
1.03669
1.11973
1.2222
1.80323
2.88331
6.66327
11.2744
10.9378
10.5539
10.5816
10.6873
10.8049
10.8353
10.8239
10.769
10.7121
1.00001
1.00002
1.00008
1.00017
1.00049
1.001
1.00283
1.00571
1.0166
1.03238
1.10296
1.19563
1.68042
2.59734
5.75884
11.183
10.858
10.4295
10.4269
10.4811
10.5447
10.523
10.4294
10.2115
9.87716
1.00001
1.00004
1.00014
1.0003
1.00085
1.00175
1.00496
1.00994
1.02965
1.05542
1.18962
1.36065
2.29968
4.20865
10.1845
11.4032
11.2459
11.1794
11.2623
11.4823
11.7161
11.8689
11.9865
12.0803
12.154
1.00001
1.00004
1.00013
1.00029
1.00084
1.00173
1.00492
1.00985
1.02936
1.05492
1.1877
1.35653
2.28702
4.17083
10.1047
11.3974
11.2388
11.168
11.2513
11.4719
11.7057
11.8588
11.9782
12.0736
12.149
1.00001
1.00004
1.00013
1.00029
1.00083
1.0017
1.00482
1.00966
1.02875
1.05391
1.18373
1.34812
2.26035
4.09111
9.92736
11.3828
11.2195
11.1358
11.2173
11.4351
11.6661
11.8165
11.9348
12.0291
12.1036
1.00001
1.00004
1.00013
1.00028
1.0008
1.00164
1.00467
1.00935
1.02785
1.05212
1.17826
1.33481
2.22117
3.97665
9.65381
11.3613
11.1884
11.0823
11.1601
11.3712
11.5962
11.7411
11.8556
11.9468
12.021
1.00001
1.00003
1.00012
1.00026
1.00076
1.00157
1.00446
1.00892
1.02664
1.04963
1.17114
1.3171
2.16902
3.82786
9.28048
11.3364
11.1475
11.0096
11.082
11.2835
11.4998
11.6364
11.7444
11.8309
11.9057
1.00001
1.00003
1.00011
1.00025
1.00072
1.00147
1.00419
1.00836
1.02514
1.04631
1.16244
1.29528
2.10346
3.64258
8.7984
11.3133
11.0989
10.918
10.9828
11.1703
11.3741
11.4984
11.5957
11.6738
11.748
1.00001
1.00003
1.0001
1.00023
1.00066
1.00135
1.00387
1.00766
1.02338
1.04219
1.15166
1.26885
2.03125
3.41718
8.20779
11.2968
11.0438
10.8082
10.8641
11.0326
11.2173
11.3214
11.3989
11.4584
11.5252
1.00001
1.00003
1.0001
1.00021
1.0006
1.00124
1.00354
1.00703
1.02135
1.03867
1.13818
1.24427
1.92797
3.16327
7.49464
11.291
10.9902
10.6843
10.7286
10.8716
11.0283
11.1027
11.1466
11.1683
11.2067
1.00001
1.00002
1.00009
1.00019
1.00055
1.00114
1.00323
1.00652
1.01901
1.03666
1.11969
1.22211
1.80305
2.88277
6.66179
11.2746
10.9378
10.5538
10.5815
10.6872
10.8047
10.8352
10.8238
10.7688
10.7119
1
1.00002
1.00008
1.00017
1.00048
1.00099
1.00282
1.0057
1.01659
1.03236
1.10293
1.19555
1.68024
2.59684
5.75735
11.183
10.8579
10.4294
10.4268
10.4809
10.5446
10.5229
10.4293
10.2114
9.87699
1
1.00002
1.00005
1.00017
1.00035
1.00099
1.00201
1.0058
1.01114
1.03581
1.06225
1.22886
1.4455
2.50157
4.91532
10.8128
10.6776
10.3423
10.2468
10.2631
10.2559
10.1733
9.92721
9.35718
7.92788
1
1.00002
1.00005
1.00015
1.00031
1.00089
1.00182
1.00515
1.01032
1.03068
1.05761
1.1949
1.37615
2.32601
4.27498
9.95122
10.4212
10.248
10.067
10.0361
9.97073
9.80308
9.42385
8.66314
7.22384
1
1.00002
1.00004
1.00013
1.00027
1.00076
1.00156
1.00443
1.00888
1.02632
1.04944
1.16782
1.31376
2.1381
3.73601
8.8057
10.2553
10.1393
9.90364
9.80734
9.69376
9.45722
8.99451
8.24349
7.13744
1
1.00001
1.00003
1.00011
1.00022
1.00063
1.0013
1.00369
1.00729
1.02225
1.04
1.14344
1.25271
1.96683
3.23495
7.54607
10.1413
10.0339
9.76981
9.59262
9.4333
9.15654
8.69397
8.02121
7.14965
1
1.00001
1.00003
1.00009
1.00019
1.00053
1.0011
1.00311
1.00627
1.01832
1.03524
1.11492
1.21473
1.76363
2.78086
6.24755
10.0557
9.95152
9.66157
9.40267
9.20248
8.91781
8.48867
7.89838
7.17822
1
1.00001
1.00002
1.00006
1.00017
1.00035
1.001
1.00202
1.00586
1.01109
1.03625
1.06239
1.22917
1.45026
2.47165
4.76532
9.81419
9.81109
9.59895
9.25453
9.01435
8.7337
8.34476
7.83123
7.2201
1
1
1.00002
1.00005
1.00014
1.0003
1.00084
1.00172
1.00485
1.00976
1.02873
1.05444
1.18146
1.34699
2.22279
3.94422
8.96474
9.5962
9.45423
9.13681
8.86608
8.59413
8.2457
7.80352
7.27718
1
1
1.00001
1.00003
1.00011
1.00023
1.00065
1.00132
1.00376
1.00738
1.02282
1.04069
1.14698
1.26063
1.98933
3.28003
7.47692
9.34995
9.27672
9.05641
8.76556
8.49903
8.18836
7.80729
7.35254
0.999999
1
1.00001
1.00003
1.00007
1.0002
1.00041
1.00119
1.00233
1.00719
1.01266
1.04566
1.0754
1.28787
1.58405
2.87617
5.87305
9.18283
9.18406
9.04034
8.73605
8.45386
8.17428
7.83029
7.45292
0.999998
1
1
1.00002
1.00005
1.00016
1.00033
1.00095
1.00193
1.00548
1.01089
1.03284
1.06076
1.20541
1.41179
2.32366
4.27652
8.79585
9.15932
9.03022
8.7429
8.4562
8.18743
7.89
7.59083
0.999996
0.999997
1
1.00001
1.00005
1.0001
1.00029
1.0006
1.00171
1.00341
1.0102
1.01864
1.06413
1.11066
1.40557
1.86957
3.6642
7.68565
9.05666
8.98574
8.76715
8.48001
8.23455
8.0103
7.77119
0.999995
0.999996
1
1.00001
1.00003
1.00008
1.00023
1.00047
1.00132
1.00267
1.00772
1.01474
1.04789
1.08301
1.30637
1.61841
2.99174
6.05679
8.87221
8.93974
8.8198
8.55763
8.34384
8.17928
7.98409
0.999994
0.999995
0.999997
1
1.00002
1.00007
1.00014
1.00041
1.00085
1.00241
1.00487
1.014
1.02772
1.08398
1.16747
1.52891
2.23045
4.37081
8.49727
8.97814
8.90545
8.72559
8.54878
8.39706
8.2162
0.999993
0.999994
0.999995
1
1.00001
1.00005
1.00011
1.00031
1.00064
1.0018
1.00364
1.0104
1.02044
1.06318
1.1174
1.39846
1.89164
3.61861
7.52562
8.97305
9.01666
8.95459
8.81186
8.64182
8.45086
0.999992
0.999993
0.999994
0.999997
1.00001
1.00003
1.00009
1.00019
1.00055
1.00113
1.00321
1.00635
1.01915
1.03472
1.12123
1.21621
1.78111
2.78423
5.98425
8.92114
9.25322
9.20885
9.09058
8.89526
8.68042
0.999992
0.999992
0.999993
0.999996
1
1.00002
1.00007
1.00015
1.00042
1.00087
1.00245
1.00496
1.01417
1.02817
1.08446
1.17001
1.53293
2.23377
4.42439
8.70677
9.58588
9.53599
9.39788
9.1673
8.90622
0.999992
0.999992
0.999992
0.999995
0.999999
1.00001
1.00004
1.00013
1.00027
1.00075
1.00154
1.00437
1.00865
1.02619
1.04766
1.16678
1.30495
2.09683
3.58605
7.98576
9.81585
9.80546
9.70235
9.46054
9.11841
0.999991
0.999991
0.999992
0.999994
0.999997
1.00001
1.00003
1.0001
1.00021
1.00059
1.00122
1.00345
1.00695
1.02037
1.03857
1.12867
1.23636
1.85325
2.96942
6.63859
10.099
10.1495
10.0205
9.71165
9.29661
0.999991
0.999991
0.999992
0.999993
0.999996
1
1.00002
1.00006
1.00018
1.00037
1.00106
1.0021
1.00634
1.01146
1.03979
1.06665
1.24971
1.49441
2.60042
5.06937
10.3511
10.5522
10.3577
9.92489
9.45059
0.999991
0.999991
0.999991
0.999993
0.999995
1
1.00001
1.00006
1.00013
1.00038
1.00079
1.00225
1.00457
1.01324
1.02615
1.08168
1.15492
1.52937
2.22594
4.63736
10.0389
10.7108
10.5252
10.0861
9.57943
0.999991
0.999991
0.999991
0.999992
0.999994
1
1.00001
1.00005
1.0001
1.00031
1.00064
1.00184
1.00363
1.0112
1.01994
1.07193
1.12258
1.46402
2.03103
4.20435
9.32322
10.7882
10.6286
10.2128
9.68049
0.999991
0.999991
0.999991
0.999992
0.999994
0.999998
1.00001
1.00003
1.00011
1.00023
1.00068
1.00138
1.00401
1.00785
1.02467
1.04392
1.16042
1.28826
2.09631
3.59868
8.50293
10.9691
10.7902
10.3127
9.76201
0.999991
0.999991
0.999991
0.999992
0.999994
0.999997
1.00001
1.00003
1.0001
1.00021
1.00061
1.00126
1.0036
1.00719
1.02165
1.03994
1.14041
1.25227
1.95536
3.24133
7.68451
11.2584
10.9822
10.3375
9.80596
0.999991
0.999991
0.999991
0.999992
0.999993
0.999996
1.00001
1.00002
1.00009
1.00019
1.00055
1.00113
1.00322
1.0065
1.01914
1.03677
1.12179
1.22563
1.82713
2.95088
6.9031
11.5505
11.1458
10.3261
9.83439
0.999991
0.999991
0.999991
0.999991
0.999993
0.999996
1.00001
1.00002
1.00008
1.00016
1.00048
1.00099
1.00285
1.00575
1.01696
1.03272
1.10711
1.20112
1.71967
2.70243
6.1578
11.7629
11.2593
10.3448
9.88085
0.999991
0.999991
0.999991
0.999991
0.999992
0.999996
1
1.00002
1.00005
1.00016
1.00034
1.00099
1.00194
1.00609
1.01069
1.03915
1.06433
1.24898
1.49606
2.64602
5.44709
11.7345
11.2826
10.4071
9.9497
0.999991
0.999991
0.999991
0.999991
0.999992
0.999995
1
1.00001
1.00006
1.00013
1.00039
1.0008
1.00232
1.00457
1.01426
1.02554
1.09197
1.16215
1.59928
2.38955
5.23533
11.4676
11.2049
10.5345
10.0276
0.999991
0.999991
0.999991
0.999991
0.999992
0.999995
1
1.00002
1.00005
1.00015
1.00031
1.0009
1.00184
1.00536
1.01052
1.03313
1.05924
1.21655
1.41451
2.47666
4.77101
11.1325
11.0957
10.7211
10.1201
0.999991
0.999991
0.999991
0.999991
0.999992
0.999995
0.999999
1.00002
1.00004
1.00014
1.00029
1.00085
1.00173
1.00501
1.00991
1.03092
1.05601
1.20261
1.38481
2.40139
4.51642
10.7627
11.1104
10.803
10.1882
0.999991
0.999991
0.999991
0.999991
0.999992
0.999994
1
1.00001
1.00004
1.0001
1.0003
1.00062
1.00188
1.00347
1.01191
1.02012
1.07655
1.13003
1.50831
2.13347
4.58916
10.4186
11.1232
10.8312
10.233
0.999991
0.999991
0.999991
0.999991
0.999992
0.999994
0.999998
1.00001
1.00003
1.00012
1.00025
1.00073
1.00147
1.00448
1.0083
1.02862
1.0489
1.18681
1.34364
2.30265
4.1949
10.1192
11.1804
10.8864
10.2779
0.999991
0.999991
0.999991
0.999991
0.999992
0.999993
0.999999
1.00001
1.00004
1.00009
1.00028
1.00058
1.00171
1.00334
1.01077
1.01877
1.0708
1.11857
1.47214
2.02513
4.32689
9.82736
11.2138
10.9153
10.2952
0.999991
0.999991
0.999991
0.999991
0.999992
0.999993
0.999998
1.00001
1.00004
1.00009
1.00026
1.00055
1.00162
1.00313
1.01027
1.01771
1.06775
1.1126
1.4555
1.98176
4.22854
9.62568
11.2781
10.9547
10.2969
0.999991
0.999991
0.999991
0.999991
0.999991
0.999993
0.999997
1.00001
1.00003
1.0001
1.00021
1.00064
1.00128
1.00398
1.00728
1.02581
1.04368
1.16906
1.30787
2.18867
3.89059
9.4754
11.3933
11.0259
10.3034
0.999991
0.99999
0.999991
0.999991
0.999992
0.999993
0.999997
1
1.00003
1.00007
1.00023
1.00047
1.00151
1.00264
1.00985
1.01607
1.06393
1.10628
1.43343
1.92811
4.08926
9.34941
11.4541
11.0474
10.2921
0.999991
0.99999
0.999991
0.999991
0.999991
0.999993
0.999996
1.00001
1.00003
1.00009
1.00019
1.00059
1.00117
1.00375
1.00674
1.0246
1.04134
1.16178
1.29362
2.14407
3.77762
9.27138
11.5401
11.0794
10.2805
0.999991
0.99999
0.999991
0.999991
0.999992
0.999993
0.999997
1
1.00003
1.00007
1.00023
1.00048
1.00146
1.00278
1.00937
1.01608
1.06243
1.10421
1.42014
1.91366
3.9892
9.18162
11.5779
11.0862
10.2609
0.999991
0.99999
0.999991
0.999991
0.999992
0.999993
0.999997
1
1.00003
1.00007
1.00023
1.00048
1.00144
1.00276
1.00926
1.01603
1.06181
1.10408
1.41291
1.91278
3.95138
9.13091
11.5992
11.0919
10.2506
0.999991
0.99999
0.999991
0.999991
0.999991
0.999993
0.999996
1.00001
1.00003
1.00009
1.0002
1.00059
1.0012
1.00365
1.00693
1.02361
1.04099
1.15815
1.28548
2.12492
3.72698
9.21527
11.5988
11.0566
10.2269
0.999991
0.99999
0.999991
0.999991
0.999991
0.999993
0.999997
1.00001
1.00003
1.0001
1.0002
1.00061
1.00125
1.00369
1.00725
1.02335
1.04154
1.15765
1.28184
2.12226
3.70638
9.19875
11.5914
11.0433
10.2273
1
1.00002
1.00006
1.00017
1.00035
1.001
1.00202
1.00581
1.01116
1.03583
1.06228
1.22891
1.44564
2.50177
4.91628
10.8134
10.6779
10.3424
10.2469
10.2633
10.2561
10.1735
9.92738
9.35735
7.92804
1
1.00002
1.00005
1.00015
1.00032
1.00089
1.00182
1.00516
1.01033
1.0307
1.05763
1.19495
1.37626
2.32624
4.27579
9.95247
10.4214
10.2481
10.0672
10.0363
9.97092
9.80329
9.42406
8.66334
7.22402
1
1.00002
1.00004
1.00013
1.00027
1.00077
1.00157
1.00444
1.0089
1.02633
1.04947
1.16786
1.31388
2.13829
3.73666
8.80705
10.2554
10.1394
9.90378
9.80754
9.69399
9.45747
8.99476
8.24373
7.1377
1
1.00002
1.00004
1.00011
1.00023
1.00064
1.0013
1.0037
1.0073
1.02226
1.04002
1.14348
1.2528
1.96703
3.23551
7.54745
10.1413
10.034
9.76998
9.59286
9.43357
9.15682
8.69426
8.02151
7.14994
1
1.00001
1.00003
1.00009
1.00019
1.00054
1.0011
1.00312
1.00628
1.01833
1.03526
1.11495
1.21481
1.7638
2.78135
6.24891
10.056
9.95172
9.66173
9.40293
9.20279
8.91814
8.48902
7.89875
7.17858
1
1.00001
1.00003
1.00006
1.00018
1.00036
1.00101
1.00203
1.00587
1.01111
1.03627
1.06242
1.22923
1.4504
2.47198
4.76618
9.81494
9.81144
9.59922
9.25482
9.01471
8.73409
8.34518
7.83168
7.22056
1
1.00001
1.00002
1.00005
1.00015
1.0003
1.00085
1.00173
1.00486
1.00977
1.02875
1.05447
1.1815
1.34713
2.22303
3.94498
8.96621
9.5966
9.45457
9.1371
8.86647
8.59459
8.24619
7.80404
7.27771
1
1.00001
1.00002
1.00004
1.00011
1.00023
1.00065
1.00132
1.00377
1.0074
1.02283
1.04072
1.14703
1.26073
1.98953
3.28069
7.47843
9.35036
9.2771
9.05674
8.766
8.49955
8.18892
7.80784