/*--------------------------------*- C++ -*----------------------------------*\
| =========                 |                                                 |
| \\      /  F ield         | OpenFOAM: The Open Source CFD Toolbox           |
|  \\    /   O peration     | Version:  4.1                                   |
|   \\  /    A nd           | Web:      www.OpenFOAM.org                      |
|    \\/     M anipulation  |                                                 |
\*---------------------------------------------------------------------------*/
FoamFile
{
    version     2.0;
    format      ascii;
    class       volScalarField;
    location    "1.04";
    object      Ma;
}
// * * * * * * * * * * * * * * * * * * * * * * * * * * * * * * * * * * * * * //

dimensions      [0 0 0 0 0 0 0];

internalField   nonuniform List<scalar> 
52500
(
3.00002
3.00001
2.99999
2.99991
2.99981
2.99937
2.99874
2.99626
2.99228
2.97864
2.94952
2.87245
2.65905
2.23607
1.29933
0.510597
0.175597
0.292626
0.317173
0.272937
0.210848
0.165623
0.134166
0.0775373
0.0350746
3.00002
3.00001
2.99999
2.99991
2.99981
2.99938
2.99876
2.9963
2.9924
2.97892
2.95053
2.87469
2.66593
2.24951
1.32255
0.524022
0.183141
0.297845
0.322529
0.27851
0.217322
0.173021
0.142908
0.0927544
0.0635894
3.00002
3.00001
2.99999
2.99992
2.99982
2.99939
2.99879
2.99638
2.99264
2.9795
2.95256
2.87927
2.68007
2.27832
1.37367
0.554208
0.200739
0.309778
0.334722
0.291708
0.233275
0.191773
0.165319
0.125289
0.105831
3.00002
3.00001
2.99999
2.99992
2.99982
2.99941
2.99884
2.9965
2.99297
2.9803
2.95536
2.88568
2.70002
2.31999
1.45008
0.598816
0.22638
0.327357
0.352287
0.3111
0.257026
0.219265
0.19716
0.165614
0.15127
3.00002
3.00001
2.99999
2.99993
2.99983
2.99944
2.99889
2.99665
2.99333
2.98108
2.95849
2.89265
2.72404
2.36854
1.54869
0.654144
0.257509
0.348202
0.372218
0.334216
0.286122
0.252568
0.234839
0.210005
0.199117
3.00002
3.00001
2.99999
2.99993
2.99984
2.99947
2.99895
2.99684
2.99375
2.98199
2.96166
2.89886
2.74776
2.41156
1.65606
0.708752
0.290563
0.370157
0.392554
0.360072
0.319858
0.291208
0.278063
0.259209
0.252283
3.00002
3.00001
3
2.99994
2.99985
2.99951
2.99903
2.99706
2.99419
2.98331
2.96452
2.90578
2.7658
2.45525
1.73299
0.78345
0.339277
0.395333
0.411836
0.388078
0.357341
0.334323
0.327272
0.315072
0.314251
3.00002
3.00001
3
2.99994
2.99987
2.99955
2.9991
2.99727
2.99463
2.98437
2.96752
2.91214
2.78719
2.4951
1.81059
0.875073
0.401158
0.419893
0.429501
0.420294
0.399303
0.382922
0.383643
0.380079
0.390566
3.00002
3.00001
3
2.99995
2.99988
2.99959
2.99919
2.99752
2.99514
2.98572
2.97066
2.91986
2.80821
2.54049
1.89888
0.98253
0.470195
0.439141
0.451728
0.45487
0.442676
0.43635
0.446763
0.457712
0.493242
3.00002
3.00002
3.00001
2.99996
2.9999
2.99966
2.99931
2.99791
2.99579
2.98802
2.97415
2.93083
2.82737
2.5929
1.98493
1.09361
0.544379
0.458507
0.476517
0.489798
0.487595
0.492586
0.517999
0.559587
0.663356
3
2.99999
2.99997
2.99989
2.99979
2.99935
2.99872
2.99623
2.99226
2.9786
2.94948
2.87236
2.6589
2.23568
1.29877
0.510258
0.1753
0.292376
0.316919
0.272648
0.210486
0.165181
0.133621
0.0765703
0.0330209
3
2.99999
2.99997
2.9999
2.99979
2.99936
2.99874
2.99627
2.99238
2.97888
2.95049
2.8746
2.66578
2.24912
1.32198
0.523686
0.182851
0.297601
0.322282
0.278232
0.216977
0.172604
0.142404
0.0919573
0.0624936
3
2.99999
2.99997
2.9999
2.9998
2.99937
2.99877
2.99636
2.99262
2.97946
2.95253
2.87918
2.67993
2.27795
1.3731
0.553875
0.200461
0.309544
0.334492
0.291451
0.23296
0.191402
0.164889
0.124706
0.105182
3
2.99999
2.99997
2.9999
2.9998
2.99939
2.99882
2.99648
2.99294
2.98026
2.95532
2.8856
2.69988
2.31965
1.44952
0.59849
0.226126
0.327145
0.352085
0.310872
0.256749
0.218946
0.196805
0.165179
0.15082
3
2.99999
2.99998
2.99991
2.99981
2.99942
2.99887
2.99663
2.99331
2.98105
2.95845
2.89259
2.72392
2.36826
1.54813
0.653859
0.257301
0.348026
0.37205
0.334018
0.285881
0.252298
0.234546
0.209668
0.198779
3
2.99999
2.99998
2.99991
2.99982
2.99945
2.99893
2.99681
2.99373
2.98196
2.96162
2.89881
2.74769
2.41137
1.65568
0.70854
0.290346
0.370004
0.392414
0.3599
0.319651
0.29098
0.277822
0.25894
0.252019
3
2.99999
2.99998
2.99992
2.99983
2.99949
2.99901
2.99703
2.99417
2.98328
2.96449
2.90573
2.76574
2.45509
1.73279
0.783179
0.339048
0.395199
0.411717
0.387928
0.357164
0.334132
0.327073
0.314857
0.314043
3
2.99999
2.99998
2.99993
2.99985
2.99953
2.99908
2.99725
2.99461
2.98435
2.96749
2.9121
2.78713
2.49499
1.8104
0.874805
0.400947
0.419781
0.42939
0.420159
0.399152
0.382761
0.38348
0.379907
0.390404
3.00001
3
2.99998
2.99993
2.99986
2.99957
2.99917
2.9975
2.99512
2.9857
2.97064
2.91982
2.80815
2.5404
1.8987
0.982283
0.47001
0.439044
0.451622
0.454752
0.442547
0.436216
0.44663
0.457577
0.493121
3.00001
3
2.99999
2.99994
2.99988
2.99964
2.99929
2.99788
2.99577
2.98799
2.97412
2.93078
2.82732
2.59279
1.98479
1.09339
0.544221
0.45842
0.476423
0.489696
0.487486
0.492474
0.517892
0.559484
0.663273
3
2.99999
2.99997
2.99989
2.99979
2.99935
2.99872
2.99623
2.99226
2.9786
2.94948
2.87235
2.65889
2.23566
1.29874
0.510249
0.175303
0.292376
0.316917
0.272646
0.210485
0.16518
0.133622
0.0765726
0.033019
3
2.99999
2.99997
2.9999
2.99979
2.99936
2.99874
2.99627
2.99238
2.97888
2.95049
2.8746
2.66578
2.2491
1.32196
0.523677
0.182853
0.2976
0.32228
0.27823
0.216976
0.172603
0.142405
0.0919595
0.0624931
3
2.99999
2.99997
2.9999
2.9998
2.99937
2.99877
2.99636
2.99262
2.97946
2.95253
2.87918
2.67992
2.27793
1.37308
0.553866
0.200462
0.309543
0.33449
0.29145
0.23296
0.191401
0.164889
0.124708
0.105182
3
2.99999
2.99997
2.9999
2.9998
2.99939
2.99882
2.99648
2.99294
2.98026
2.95532
2.8856
2.69988
2.31964
1.4495
0.598481
0.226126
0.327145
0.352084
0.310872
0.256749
0.218945
0.196805
0.165179
0.15082
3
2.99999
2.99998
2.99991
2.99981
2.99942
2.99887
2.99663
2.99331
2.98105
2.95845
2.89259
2.72391
2.36825
1.54811
0.653851
0.257302
0.348025
0.37205
0.334018
0.285881
0.252297
0.234546
0.209668
0.198779
3
2.99999
2.99998
2.99991
2.99982
2.99945
2.99893
2.99681
2.99373
2.98196
2.96162
2.89881
2.74768
2.41136
1.65567
0.708534
0.290345
0.370004
0.392415
0.3599
0.319651
0.290979
0.277822
0.258941
0.25202
3
2.99999
2.99998
2.99992
2.99983
2.99949
2.99901
2.99703
2.99417
2.98328
2.96449
2.90573
2.76573
2.45508
1.73278
0.78317
0.339045
0.3952
0.411718
0.387928
0.357164
0.334131
0.327073
0.314857
0.314044
3
2.99999
2.99998
2.99993
2.99985
2.99953
2.99908
2.99725
2.99461
2.98435
2.96749
2.9121
2.78713
2.49498
1.81039
0.874795
0.400943
0.419782
0.42939
0.42016
0.399152
0.382761
0.38348
0.379907
0.390404
3.00001
3
2.99998
2.99993
2.99986
2.99957
2.99917
2.9975
2.99512
2.9857
2.97064
2.91982
2.80815
2.5404
1.89869
0.982273
0.470006
0.439045
0.451623
0.454752
0.442547
0.436215
0.44663
0.457578
0.493121
3.00001
3
2.99999
2.99994
2.99988
2.99964
2.99929
2.99788
2.99577
2.98799
2.97412
2.93078
2.82732
2.59278
1.98478
1.09338
0.544217
0.458421
0.476424
0.489696
0.487487
0.492474
0.517892
0.559485
0.663273
3
2.99999
2.99997
2.99989
2.99979
2.99935
2.99872
2.99623
2.99226
2.9786
2.94948
2.87235
2.65889
2.23566
1.29874
0.510248
0.175303
0.292375
0.316917
0.272646
0.210485
0.16518
0.133623
0.076573
0.0330196
3
2.99999
2.99997
2.9999
2.99979
2.99936
2.99874
2.99627
2.99238
2.97888
2.95049
2.8746
2.66577
2.2491
1.32195
0.523676
0.182853
0.2976
0.32228
0.27823
0.216976
0.172603
0.142405
0.0919596
0.0624933
3
2.99999
2.99997
2.9999
2.9998
2.99937
2.99877
2.99636
2.99262
2.97946
2.95253
2.87918
2.67992
2.27793
1.37308
0.553864
0.200462
0.309543
0.33449
0.29145
0.232959
0.191401
0.16489
0.124708
0.105182
3
2.99999
2.99997
2.9999
2.9998
2.99939
2.99882
2.99648
2.99294
2.98026
2.95532
2.8856
2.69988
2.31964
1.4495
0.59848
0.226126
0.327144
0.352084
0.310872
0.256749
0.218945
0.196805
0.165179
0.15082
3
2.99999
2.99998
2.99991
2.99981
2.99942
2.99887
2.99663
2.99331
2.98105
2.95845
2.89259
2.72391
2.36825
1.5481
0.65385
0.257302
0.348025
0.372049
0.334018
0.285881
0.252297
0.234547
0.209668
0.198779
3
2.99999
2.99998
2.99991
2.99982
2.99945
2.99893
2.99681
2.99373
2.98196
2.96162
2.89881
2.74768
2.41136
1.65567
0.708533
0.290345
0.370004
0.392415
0.3599
0.319651
0.290979
0.277822
0.258941
0.25202
3
2.99999
2.99998
2.99992
2.99983
2.99949
2.99901
2.99703
2.99417
2.98328
2.96449
2.90573
2.76573
2.45508
1.73278
0.783169
0.339044
0.3952
0.411718
0.387928
0.357164
0.334131
0.327073
0.314857
0.314044
3
2.99999
2.99998
2.99993
2.99985
2.99953
2.99908
2.99725
2.99461
2.98435
2.96749
2.9121
2.78713
2.49498
1.81039
0.874794
0.400942
0.419782
0.42939
0.420159
0.399151
0.382761
0.38348
0.379907
0.390404
3.00001
3
2.99998
2.99993
2.99986
2.99957
2.99917
2.9975
2.99512
2.9857
2.97064
2.91982
2.80815
2.54039
1.89869
0.982272
0.470005
0.439045
0.451623
0.454752
0.442547
0.436215
0.44663
0.457577
0.493121
3.00001
3
2.99999
2.99994
2.99988
2.99964
2.99929
2.99788
2.99577
2.98799
2.97412
2.93078
2.82732
2.59278
1.98478
1.09338
0.544216
0.458421
0.476424
0.489696
0.487486
0.492474
0.517892
0.559485
0.663273
3
2.99999
2.99997
2.99989
2.99979
2.99935
2.99872
2.99623
2.99226
2.9786
2.94948
2.87235
2.65888
2.23564
1.29871
0.510238
0.175307
0.292374
0.316914
0.272644
0.210483
0.165178
0.133621
0.0765713
0.0330187
3
2.99999
2.99997
2.9999
2.99979
2.99936
2.99874
2.99627
2.99238
2.97888
2.95049
2.8746
2.66577
2.24908
1.32192
0.523666
0.182857
0.297598
0.322278
0.278228
0.216974
0.172601
0.142403
0.0919585
0.0624925
3
2.99999
2.99997
2.9999
2.9998
2.99937
2.99877
2.99636
2.99262
2.97946
2.95252
2.87918
2.67991
2.27791
1.37305
0.553854
0.200465
0.309542
0.334488
0.291448
0.232958
0.1914
0.164888
0.124707
0.105181
3
2.99999
2.99997
2.9999
2.9998
2.99939
2.99882
2.99648
2.99294
2.98026
2.95532
2.88559
2.69987
2.31962
1.44947
0.598469
0.226128
0.327144
0.352083
0.310871
0.256748
0.218944
0.196804
0.165179
0.150819
3
2.99999
2.99998
2.99991
2.99981
2.99942
2.99887
2.99663
2.99331
2.98105
2.95845
2.89259
2.72391
2.36824
1.54808
0.653841
0.257304
0.348026
0.37205
0.334018
0.28588
0.252296
0.234546
0.209668
0.198778
3
2.99999
2.99998
2.99991
2.99982
2.99945
2.99893
2.99681
2.99373
2.98196
2.96162
2.89881
2.74768
2.41135
1.65565
0.708527
0.290345
0.370005
0.392416
0.359901
0.31965
0.290979
0.277821
0.25894
0.252019
3
2.99999
2.99998
2.99992
2.99983
2.99949
2.99901
2.99703
2.99416
2.98328
2.96449
2.90573
2.76573
2.45508
1.73277
0.78316
0.339042
0.395201
0.41172
0.387929
0.357164
0.334131
0.327072
0.314856
0.314043
3
2.99999
2.99998
2.99993
2.99985
2.99953
2.99908
2.99725
2.99461
2.98435
2.96749
2.9121
2.78713
2.49498
1.81038
0.874784
0.400939
0.419784
0.429392
0.42016
0.399152
0.382761
0.38348
0.379907
0.390404
3.00001
3
2.99998
2.99993
2.99986
2.99957
2.99917
2.9975
2.99512
2.9857
2.97064
2.91982
2.80814
2.54039
1.89868
0.982263
0.470002
0.439047
0.451625
0.454753
0.442548
0.436215
0.44663
0.457577
0.493121
3.00001
3
2.99999
2.99994
2.99988
2.99964
2.99929
2.99788
2.99577
2.98799
2.97412
2.93078
2.82731
2.59278
1.98477
1.09337
0.544213
0.458423
0.476425
0.489697
0.487487
0.492474
0.517892
0.559485
0.663273
3
2.99999
2.99997
2.99989
2.99979
2.99935
2.99872
2.99623
2.99226
2.9786
2.94948
2.87235
2.65889
2.23565
1.29873
0.510243
0.175305
0.292375
0.316916
0.272645
0.210484
0.165179
0.133622
0.0765723
0.0330195
3
2.99999
2.99997
2.9999
2.99979
2.99936
2.99874
2.99627
2.99238
2.97888
2.95049
2.8746
2.66577
2.24909
1.32194
0.523671
0.182855
0.297599
0.322279
0.278229
0.216975
0.172602
0.142405
0.091959
0.0624932
3
2.99999
2.99997
2.9999
2.9998
2.99937
2.99877
2.99636
2.99262
2.97946
2.95252
2.87918
2.67992
2.27792
1.37306
0.553859
0.200464
0.309542
0.334489
0.291449
0.232959
0.1914
0.164889
0.124707
0.105182
3
2.99999
2.99997
2.9999
2.9998
2.99939
2.99882
2.99648
2.99294
2.98026
2.95532
2.8856
2.69987
2.31963
1.44948
0.598474
0.226127
0.327144
0.352083
0.310871
0.256748
0.218945
0.196805
0.165179
0.15082
3
2.99999
2.99998
2.99991
2.99981
2.99942
2.99887
2.99663
2.99331
2.98105
2.95845
2.89259
2.72391
2.36825
1.54809
0.653845
0.257303
0.348026
0.37205
0.334018
0.28588
0.252296
0.234546
0.209668
0.198779
3
2.99999
2.99998
2.99991
2.99982
2.99945
2.99893
2.99681
2.99373
2.98196
2.96162
2.89881
2.74768
2.41136
1.65566
0.70853
0.290345
0.370004
0.392415
0.3599
0.31965
0.290979
0.277822
0.25894
0.252019
3
2.99999
2.99998
2.99992
2.99983
2.99949
2.99901
2.99703
2.99416
2.98328
2.96449
2.90573
2.76573
2.45508
1.73278
0.783164
0.339043
0.3952
0.411719
0.387928
0.357164
0.334131
0.327073
0.314856
0.314044
3
2.99999
2.99998
2.99993
2.99985
2.99953
2.99908
2.99725
2.99461
2.98435
2.96749
2.9121
2.78713
2.49498
1.81039
0.874789
0.400941
0.419783
0.429391
0.42016
0.399151
0.382761
0.38348
0.379907
0.390404
3.00001
3
2.99998
2.99993
2.99986
2.99957
2.99917
2.9975
2.99512
2.9857
2.97064
2.91982
2.80815
2.54039
1.89869
0.982267
0.470004
0.439046
0.451624
0.454752
0.442547
0.436215
0.44663
0.457577
0.493121
3.00001
3
2.99999
2.99994
2.99988
2.99964
2.99929
2.99788
2.99577
2.98799
2.97412
2.93078
2.82731
2.59278
1.98478
1.09338
0.544215
0.458422
0.476424
0.489697
0.487487
0.492474
0.517892
0.559485
0.663273
3
2.99999
2.99997
2.99989
2.99979
2.99935
2.99872
2.99623
2.99226
2.9786
2.94948
2.87235
2.65889
2.23566
1.29874
0.510248
0.175303
0.292375
0.316917
0.272646
0.210485
0.16518
0.133623
0.076573
0.0330196
3
2.99999
2.99997
2.9999
2.99979
2.99936
2.99874
2.99627
2.99238
2.97888
2.95049
2.8746
2.66577
2.2491
1.32195
0.523676
0.182853
0.2976
0.32228
0.27823
0.216976
0.172603
0.142405
0.0919596
0.0624933
3
2.99999
2.99997
2.9999
2.9998
2.99937
2.99877
2.99636
2.99262
2.97946
2.95253
2.87918
2.67992
2.27793
1.37308
0.553865
0.200462
0.309543
0.33449
0.29145
0.232959
0.191401
0.16489
0.124708
0.105182
3
2.99999
2.99997
2.9999
2.9998
2.99939
2.99882
2.99648
2.99294
2.98026
2.95532
2.8856
2.69988
2.31964
1.4495
0.59848
0.226126
0.327144
0.352084
0.310872
0.256749
0.218945
0.196805
0.165179
0.15082
3
2.99999
2.99998
2.99991
2.99981
2.99942
2.99887
2.99663
2.99331
2.98105
2.95845
2.89259
2.72391
2.36825
1.5481
0.65385
0.257302
0.348025
0.372049
0.334018
0.285881
0.252297
0.234547
0.209668
0.198779
3
2.99999
2.99998
2.99991
2.99982
2.99945
2.99893
2.99681
2.99373
2.98196
2.96162
2.89881
2.74768
2.41136
1.65567
0.708533
0.290345
0.370004
0.392415
0.3599
0.319651
0.290979
0.277822
0.258941
0.25202
3
2.99999
2.99998
2.99992
2.99983
2.99949
2.99901
2.99703
2.99417
2.98328
2.96449
2.90573
2.76573
2.45508
1.73278
0.783169
0.339044
0.395199
0.411718
0.387928
0.357164
0.334131
0.327073
0.314857
0.314044
3
2.99999
2.99998
2.99993
2.99985
2.99953
2.99908
2.99725
2.99461
2.98435
2.96749
2.9121
2.78713
2.49498
1.81039
0.874794
0.400942
0.419782
0.42939
0.420159
0.399151
0.382761
0.38348
0.379907
0.390404
3.00001
3
2.99998
2.99993
2.99986
2.99957
2.99917
2.9975
2.99512
2.9857
2.97064
2.91982
2.80815
2.54039
1.89869
0.982272
0.470005
0.439045
0.451623
0.454752
0.442547
0.436215
0.44663
0.457577
0.493121
3.00001
3
2.99999
2.99994
2.99988
2.99964
2.99929
2.99788
2.99577
2.98799
2.97412
2.93078
2.82732
2.59278
1.98478
1.09338
0.544217
0.458421
0.476424
0.489696
0.487486
0.492474
0.517892
0.559485
0.663273
3
2.99999
2.99997
2.99989
2.99979
2.99935
2.99872
2.99623
2.99226
2.9786
2.94948
2.87235
2.65889
2.23566
1.29874
0.510249
0.175303
0.292376
0.316917
0.272646
0.210485
0.16518
0.133622
0.0765726
0.033019
3
2.99999
2.99997
2.9999
2.99979
2.99936
2.99874
2.99627
2.99238
2.97888
2.95049
2.8746
2.66578
2.2491
1.32196
0.523677
0.182853
0.2976
0.32228
0.27823
0.216976
0.172603
0.142405
0.0919595
0.0624931
3
2.99999
2.99997
2.9999
2.9998
2.99937
2.99877
2.99636
2.99262
2.97946
2.95253
2.87918
2.67992
2.27793
1.37308
0.553866
0.200462
0.309543
0.33449
0.29145
0.23296
0.191401
0.164889
0.124708
0.105182
3
2.99999
2.99997
2.9999
2.9998
2.99939
2.99882
2.99648
2.99294
2.98026
2.95532
2.8856
2.69988
2.31964
1.4495
0.598481
0.226126
0.327145
0.352084
0.310872
0.256749
0.218945
0.196805
0.165179
0.15082
3
2.99999
2.99998
2.99991
2.99981
2.99942
2.99887
2.99663
2.99331
2.98105
2.95845
2.89259
2.72391
2.36825
1.54811
0.653851
0.257302
0.348025
0.37205
0.334018
0.285881
0.252297
0.234546
0.209668
0.198779
3
2.99999
2.99998
2.99991
2.99982
2.99945
2.99893
2.99681
2.99373
2.98196
2.96162
2.89881
2.74768
2.41136
1.65567
0.708534
0.290345
0.370004
0.392415
0.3599
0.319651
0.290979
0.277822
0.258941
0.25202
3
2.99999
2.99998
2.99992
2.99983
2.99949
2.99901
2.99703
2.99417
2.98328
2.96449
2.90573
2.76573
2.45508
1.73278
0.78317
0.339045
0.3952
0.411718
0.387928
0.357164
0.334131
0.327073
0.314857
0.314044
3
2.99999
2.99998
2.99993
2.99985
2.99953
2.99908
2.99725
2.99461
2.98435
2.96749
2.9121
2.78713
2.49498
1.81039
0.874795
0.400943
0.419782
0.42939
0.42016
0.399152
0.382761
0.38348
0.379907
0.390404
3.00001
3
2.99998
2.99993
2.99986
2.99957
2.99917
2.9975
2.99512
2.9857
2.97064
2.91982
2.80815
2.5404
1.89869
0.982273
0.470006
0.439045
0.451623
0.454752
0.442547
0.436215
0.44663
0.457578
0.493121
3.00001
3
2.99999
2.99994
2.99988
2.99964
2.99929
2.99788
2.99577
2.98799
2.97412
2.93078
2.82732
2.59278
1.98478
1.09338
0.544217
0.458421
0.476424
0.489696
0.487487
0.492474
0.517892
0.559485
0.663273
3
2.99999
2.99997
2.99989
2.99979
2.99935
2.99872
2.99623
2.99226
2.9786
2.94948
2.87236
2.6589
2.23568
1.29877
0.510258
0.1753
0.292376
0.316919
0.272648
0.210486
0.165181
0.133621
0.0765703
0.0330209
3
2.99999
2.99997
2.9999
2.99979
2.99936
2.99874
2.99627
2.99238
2.97888
2.95049
2.8746
2.66578
2.24912
1.32198
0.523686
0.182851
0.297601
0.322282
0.278232
0.216977
0.172604
0.142404
0.0919573
0.0624936
3
2.99999
2.99997
2.9999
2.9998
2.99937
2.99877
2.99636
2.99262
2.97946
2.95253
2.87918
2.67993
2.27795
1.3731
0.553875
0.200461
0.309544
0.334492
0.291451
0.23296
0.191402
0.164889
0.124706
0.105182
3
2.99999
2.99997
2.9999
2.9998
2.99939
2.99882
2.99648
2.99294
2.98026
2.95532
2.8856
2.69988
2.31965
1.44952
0.59849
0.226126
0.327145
0.352085
0.310872
0.256749
0.218946
0.196805
0.165179
0.15082
3
2.99999
2.99998
2.99991
2.99981
2.99942
2.99887
2.99663
2.99331
2.98105
2.95845
2.89259
2.72392
2.36826
1.54813
0.653859
0.257301
0.348026
0.37205
0.334018
0.285881
0.252298
0.234546
0.209668
0.198779
3
2.99999
2.99998
2.99991
2.99982
2.99945
2.99893
2.99681
2.99373
2.98196
2.96162
2.89881
2.74769
2.41137
1.65568
0.70854
0.290346
0.370004
0.392414
0.3599
0.319651
0.29098
0.277822
0.25894
0.252019
3
2.99999
2.99998
2.99992
2.99983
2.99949
2.99901
2.99703
2.99417
2.98328
2.96449
2.90573
2.76574
2.45509
1.73279
0.783179
0.339048
0.395199
0.411717
0.387928
0.357164
0.334132
0.327073
0.314857
0.314043
3
2.99999
2.99998
2.99993
2.99985
2.99953
2.99908
2.99725
2.99461
2.98435
2.96749
2.9121
2.78713
2.49499
1.8104
0.874805
0.400947
0.419781
0.42939
0.420159
0.399152
0.382761
0.38348
0.379907
0.390404
3.00001
3
2.99998
2.99993
2.99986
2.99957
2.99917
2.9975
2.99512
2.9857
2.97064
2.91982
2.80815
2.5404
1.8987
0.982283
0.47001
0.439044
0.451622
0.454752
0.442547
0.436216
0.44663
0.457577
0.493121
3.00001
3
2.99999
2.99994
2.99988
2.99964
2.99929
2.99788
2.99577
2.98799
2.97412
2.93078
2.82732
2.59279
1.98479
1.09339
0.544221
0.45842
0.476423
0.489696
0.487486
0.492474
0.517892
0.559484
0.663273
3.00002
3.00001
2.99999
2.99991
2.99981
2.99937
2.99874
2.99626
2.99228
2.97864
2.94952
2.87245
2.65905
2.23607
1.29934
0.510598
0.175596
0.292626
0.317174
0.272938
0.210849
0.165623
0.134167
0.0775401
0.0350736
3.00002
3.00001
2.99999
2.99991
2.99981
2.99938
2.99876
2.9963
2.9924
2.97892
2.95053
2.87469
2.66593
2.24951
1.32255
0.524023
0.183141
0.297845
0.322529
0.27851
0.217323
0.173021
0.142909
0.0927564
0.0635893
3.00002
3.00001
2.99999
2.99992
2.99982
2.99939
2.99879
2.99638
2.99264
2.9795
2.95257
2.87927
2.68007
2.27832
1.37367
0.554209
0.200739
0.309778
0.334722
0.291708
0.233275
0.191773
0.16532
0.12529
0.105831
3.00002
3.00001
2.99999
2.99992
2.99982
2.99941
2.99884
2.9965
2.99297
2.9803
2.95536
2.88568
2.70002
2.32
1.45008
0.598817
0.22638
0.327357
0.352287
0.3111
0.257027
0.219265
0.197161
0.165615
0.15127
3.00002
3.00001
2.99999
2.99993
2.99983
2.99944
2.99889
2.99665
2.99333
2.98108
2.95849
2.89265
2.72405
2.36854
1.54869
0.654144
0.257509
0.348202
0.372218
0.334215
0.286122
0.252568
0.234839
0.210006
0.199117
3.00002
3.00001
2.99999
2.99993
2.99984
2.99947
2.99895
2.99684
2.99375
2.98199
2.96166
2.89886
2.74776
2.41156
1.65607
0.708752
0.290562
0.370157
0.392554
0.360072
0.319858
0.291208
0.278063
0.259209
0.252283
3.00002
3.00001
3
2.99994
2.99985
2.99951
2.99903
2.99706
2.99419
2.98331
2.96452
2.90578
2.7658
2.45525
1.73299
0.783451
0.339277
0.395333
0.411836
0.388077
0.357341
0.334323
0.327272
0.315072
0.314251
3.00002
3.00001
3
2.99994
2.99987
2.99955
2.9991
2.99727
2.99463
2.98437
2.96752
2.91214
2.78719
2.4951
1.81059
0.875074
0.401158
0.419893
0.429501
0.420294
0.399302
0.382922
0.383644
0.38008
0.390566
3.00002
3.00001
3
2.99995
2.99988
2.99959
2.99919
2.99752
2.99514
2.98572
2.97066
2.91986
2.80821
2.5405
1.89888
0.982531
0.470195
0.439141
0.451727
0.454869
0.442676
0.436349
0.446763
0.457712
0.493242
3.00002
3.00002
3.00001
2.99996
2.9999
2.99966
2.99931
2.99791
2.99579
2.98802
2.97415
2.93083
2.82737
2.5929
1.98493
1.09361
0.544379
0.458506
0.476516
0.489797
0.487595
0.492586
0.517999
0.559587
0.663356
3.00002
3.00002
3
2.99998
2.9999
2.99978
2.9993
2.99856
2.99595
2.99102
2.97646
2.94096
2.8574
2.61238
2.15349
1.19837
0.631224
0.477735
0.501933
0.525749
0.534571
0.552378
0.598143
0.681307
0.862131
3.00002
3.00002
3.00001
2.99999
2.99991
2.99981
2.99937
2.99875
2.99626
2.99241
2.97894
2.95139
2.87704
2.6763
2.27746
1.39201
0.741741
0.51558
0.539411
0.566446
0.582925
0.611166
0.673598
0.779936
0.966941
3.00002
3.00002
3.00001
3
2.99993
2.99984
2.99947
2.99895
2.99681
2.9937
2.98192
2.96119
2.89897
2.74537
2.41481
1.64491
0.88764
0.586274
0.599167
0.617188
0.637243
0.670342
0.736639
0.844969
1.00792
3.00002
3.00002
3.00001
3
2.99995
2.99987
2.99957
2.99914
2.99738
2.99487
2.98497
2.96907
2.91632
2.79953
2.52432
1.88345
1.02583
0.655819
0.652796
0.667621
0.691082
0.725702
0.791186
0.887171
1.02437
3.00003
3.00002
3.00002
3.00001
2.99997
2.99991
2.99967
2.99934
2.99799
2.99598
2.98854
2.97546
2.93431
2.83736
2.61707
2.04553
1.20187
0.75024
0.689949
0.706831
0.735068
0.773247
0.833024
0.923224
1.03618
3.00003
3.00002
3.00002
3.00001
2.99999
2.99992
2.99981
2.99939
2.99875
2.99648
2.99229
2.97969
2.94965
2.87747
2.6711
2.27271
1.4162
0.871632
0.724501
0.739989
0.768383
0.811996
0.868212
0.949788
1.0513
3.00003
3.00003
3.00002
3.00001
3
2.99994
2.99985
2.9995
2.99901
2.99698
2.99405
2.98285
2.96348
2.90465
2.76197
2.45065
1.72307
1.03706
0.789262
0.786354
0.807247
0.847553
0.900016
0.970985
1.06188
3.00003
3.00003
3.00002
3.00002
3.00001
2.99996
2.9999
2.99964
2.99927
2.99779
2.9956
2.98742
2.97332
2.92856
2.82454
2.58891
2.0064
1.2068
0.864417
0.833276
0.850025
0.885071
0.932997
0.992454
1.07073
3.00003
3.00003
3.00003
3.00002
3.00001
2.99999
2.99991
2.9998
2.99937
2.99871
2.99637
2.99208
2.97915
2.94859
2.87486
2.66729
2.26633
1.42759
0.98019
0.87453
0.885716
0.915329
0.963402
1.01435
1.0809
3.00003
3.00003
3.00003
3.00002
3.00001
3
2.99994
2.99986
2.99952
2.99904
2.99712
2.99425
2.98384
2.96464
2.90926
2.76994
2.47822
1.79682
1.1526
0.938757
0.929141
0.948813
0.987657
1.03855
1.09463
3.00003
3.00003
3.00003
3.00002
3.00002
3
2.99998
2.99988
2.99973
2.99916
2.99832
2.99509
2.98999
2.97216
2.93817
2.84313
2.61507
2.1073
1.34555
1.01927
0.97085
0.985962
1.01564
1.06221
1.11338
3.00003
3.00003
3.00003
3.00003
3.00002
3.00001
2.99999
2.99992
2.99982
2.99941
2.99883
2.99651
2.99304
2.9803
2.95753
2.89055
2.72721
2.37661
1.64766
1.16247
1.02469
1.02375
1.04441
1.08306
1.13364
3.00003
3.00003
3.00003
3.00003
3.00002
3.00002
3
2.99997
2.99985
2.99968
2.99903
2.99804
2.99434
2.98838
2.96807
2.93014
2.81869
2.58702
2.00809
1.35737
1.10266
1.06823
1.07996
1.10848
1.15175
3.00003
3.00003
3.00003
3.00003
3.00003
3.00002
3.00001
2.99999
2.99991
2.9998
2.99935
2.99871
2.99617
2.9924
2.97828
2.95441
2.88077
2.71478
2.33328
1.62367
1.22593
1.11894
1.11684
1.13451
1.16866
3.00003
3.00003
3.00003
3.00003
3.00003
3.00002
3.00002
3
2.99997
2.99985
2.99967
2.99899
2.99796
2.99416
2.98801
2.96731
2.92843
2.81652
2.58181
2.01313
1.41093
1.19176
1.16125
1.16972
1.19379
3.00003
3.00003
3.00003
3.00003
3.00003
3.00003
3.00002
3.00001
2.99999
2.99991
2.9998
2.99935
2.99871
2.99619
2.99243
2.97858
2.9548
2.88281
2.72269
2.34888
1.67365
1.30209
1.2101
1.2056
1.21905
3.00003
3.00003
3.00003
3.00003
3.00003
3.00003
3.00002
3.00002
3
2.99997
2.99985
2.99968
2.99904
2.99806
2.99444
2.9886
2.969
2.93239
2.82654
2.60721
2.06539
1.49537
1.2793
1.24855
1.2527
3.00003
3.00003
3.00003
3.00003
3.00003
3.00003
3.00003
3.00002
3.00001
2.99999
2.99992
2.99982
2.99941
2.99882
2.99652
2.99306
2.98065
2.95847
2.89468
2.74855
2.41351
1.7806
1.39494
1.29532
1.28698
3.00003
3.00003
3.00003
3.00003
3.00003
3.00003
3.00003
3.00002
3.00002
3
2.99998
2.99987
2.99972
2.99915
2.99828
2.99511
2.98991
2.97262
2.94065
2.84542
2.6576
2.14958
1.61434
1.37635
1.33387
3.00003
3.00003
3.00003
3.00003
3.00003
3.00003
3.00003
3.00003
3.00002
3.00002
2.99999
2.99995
2.99981
2.9996
2.9988
2.9976
2.99316
2.98599
2.96252
2.91367
2.79567
2.49386
1.93728
1.50559
1.38066
3.00003
3.00003
3.00003
3.00003
3.00003
3.00003
3.00003
3.00003
3.00003
3.00002
3.00001
2.99998
2.9999
2.99978
2.9993
2.9986
2.99591
2.99186
2.97707
2.95208
2.87287
2.71935
2.29712
1.76212
1.4763
3.00003
3.00003
3.00003
3.00003
3.00003
3.00003
3.00003
3.00003
3.00003
3.00002
3.00002
3
2.99997
2.99986
2.99969
2.99907
2.99812
2.99471
2.9891
2.9709
2.93571
2.8411
2.6313
2.15326
1.66131
3.00003
3.00003
3.00003
3.00003
3.00003
3.00003
3.00003
3.00003
3.00003
3.00003
3.00002
3.00001
3
2.99993
2.99984
2.99947
2.99895
2.99693
2.99395
2.98299
2.96471
2.9077
2.79065
2.49826
1.96028
3.00003
3.00003
3.00003
3.00003
3.00003
3.00003
3.00003
3.00003
3.00003
3.00003
3.00003
3.00002
3.00001
2.99997
2.99992
2.99972
2.99944
2.99832
2.99673
2.99054
2.98122
2.94899
2.88624
2.72989
2.35577
3.00003
3.00003
3.00003
3.00003
3.00003
3.00003
3.00003
3.00003
3.00003
3.00003
3.00003
3.00002
3.00002
3
2.99997
2.99986
2.99971
2.99911
2.99823
2.99497
2.98986
2.97258
2.94102
2.85277
2.6632
3.00003
3.00003
3.00003
3.00003
3.00003
3.00003
3.00003
3.00003
3.00003
3.00003
3.00003
3.00003
3.00002
3.00002
2.99999
2.99996
2.99983
2.99963
2.99891
2.99781
2.99383
2.98736
2.9665
2.92361
2.8196
3.00003
3.00003
3.00003
3.00003
3.00003
3.00003
3.00003
3.00003
3.00003
3.00003
3.00003
3.00003
3.00003
3.00002
3.00001
2.99998
2.99994
2.99978
2.99954
2.99865
2.99727
2.99249
2.98416
2.95911
2.9033
3.00003
3.00003
3.00003
3.00003
3.00003
3.00003
3.00003
3.00003
3.00003
3.00003
3.00003
3.00003
3.00003
3.00003
3.00002
3.00001
2.99997
2.99992
2.99972
2.99943
2.99833
2.99665
2.99069
2.98078
2.94984
3.00003
3.00003
3.00003
3.00003
3.00003
3.00003
3.00003
3.00003
3.00003
3.00003
3.00003
3.00003
3.00003
3.00003
3.00002
3.00002
3
2.99997
2.99987
2.99972
2.99915
2.99831
2.99525
2.9904
2.97444
3.00003
3.00003
3.00003
3.00003
3.00003
3.00003
3.00003
3.00003
3.00003
3.00003
3.00003
3.00003
3.00003
3.00003
3.00003
3.00002
3.00002
3
2.99996
2.99985
2.99967
2.99904
2.99807
2.99462
2.98899
3.00003
3.00003
3.00003
3.00003
3.00003
3.00003
3.00003
3.00003
3.00003
3.00003
3.00003
3.00003
3.00003
3.00003
3.00003
3.00003
3.00002
3.00002
2.99999
2.99995
2.99982
2.99962
2.99889
2.99776
2.99382
3.00003
3.00003
3.00003
3.00003
3.00003
3.00003
3.00003
3.00003
3.00003
3.00003
3.00003
3.00003
3.00003
3.00003
3.00003
3.00003
3.00003
3.00002
3.00001
2.99999
2.99995
2.9998
2.99957
2.99874
2.99748
3.00003
3.00003
3.00003
3.00003
3.00003
3.00003
3.00003
3.00003
3.00003
3.00003
3.00003
3.00003
3.00003
3.00003
3.00003
3.00003
3.00003
3.00003
3.00002
3.00001
2.99999
2.99992
2.99981
2.9994
2.9988
3.00003
3.00003
3.00003
3.00003
3.00003
3.00003
3.00003
3.00003
3.00003
3.00003
3.00003
3.00003
3.00003
3.00003
3.00003
3.00003
3.00003
3.00003
3.00003
3.00002
3.00001
2.99999
2.99991
2.99979
2.99937
3.00003
3.00003
3.00003
3.00003
3.00003
3.00003
3.00003
3.00003
3.00003
3.00003
3.00003
3.00003
3.00003
3.00003
3.00003
3.00003
3.00003
3.00003
3.00003
3.00003
3.00002
3.00001
2.99998
2.9999
2.99977
3.00003
3.00003
3.00003
3.00003
3.00003
3.00003
3.00003
3.00003
3.00003
3.00003
3.00003
3.00003
3.00003
3.00003
3.00003
3.00003
3.00003
3.00003
3.00003
3.00003
3.00002
3.00002
3.00001
2.99998
2.9999
3.00003
3.00003
3.00003
3.00003
3.00003
3.00003
3.00003
3.00003
3.00003
3.00003
3.00003
3.00003
3.00003
3.00003
3.00003
3.00003
3.00003
3.00003
3.00003
3.00003
3.00003
3.00002
3.00002
3
2.99998
3.00003
3.00003
3.00003
3.00003
3.00003
3.00003
3.00003
3.00003
3.00003
3.00003
3.00003
3.00003
3.00003
3.00003
3.00003
3.00003
3.00003
3.00003
3.00003
3.00003
3.00003
3.00003
3.00003
3.00002
3.00001
3.00003
3.00003
3.00003
3.00003
3.00003
3.00003
3.00003
3.00003
3.00003
3.00003
3.00003
3.00003
3.00003
3.00003
3.00003
3.00003
3.00003
3.00003
3.00003
3.00003
3.00003
3.00003
3.00003
3.00003
3.00002
3.00003
3.00003
3.00003
3.00003
3.00003
3.00003
3.00003
3.00003
3.00003
3.00003
3.00003
3.00003
3.00003
3.00003
3.00003
3.00003
3.00003
3.00003
3.00003
3.00003
3.00003
3.00003
3.00003
3.00003
3.00002
3
3
2.99999
2.99996
2.99988
2.99976
2.99928
2.99854
2.99593
2.991
2.97643
2.94093
2.85734
2.61229
2.15333
1.19815
0.631065
0.477645
0.501843
0.525657
0.534478
0.552286
0.598058
0.681232
0.862081
3.00001
3
2.99999
2.99997
2.99989
2.99979
2.99935
2.99873
2.99624
2.99239
2.97891
2.95136
2.87699
2.67622
2.27729
1.39177
0.741573
0.515475
0.539312
0.566355
0.582841
0.611087
0.673529
0.779877
0.966898
3.00001
3
2.99999
2.99998
2.99991
2.99982
2.99945
2.99893
2.99679
2.99368
2.98189
2.96116
2.89892
2.74529
2.41463
1.64454
0.887443
0.586163
0.599068
0.617099
0.637161
0.670268
0.736576
0.844917
1.00788
3.00001
3
2.99999
2.99998
2.99993
2.99985
2.99955
2.99912
2.99736
2.99485
2.98494
2.96905
2.91628
2.79947
2.52421
1.88328
1.02566
0.65573
0.65272
0.667544
0.691006
0.725633
0.791128
0.887124
1.02434
3.00001
3
3
2.99999
2.99995
2.99989
2.99965
2.99932
2.99797
2.99596
2.98852
2.97543
2.93427
2.83731
2.61697
2.04539
1.20168
0.750126
0.689889
0.706769
0.735007
0.773187
0.832969
0.923177
1.03615
3.00001
3