/*--------------------------------*- C++ -*----------------------------------*\
| =========                 |                                                 |
| \\      /  F ield         | OpenFOAM: The Open Source CFD Toolbox           |
|  \\    /   O peration     | Version:  4.1                                   |
|   \\  /    A nd           | Web:      www.OpenFOAM.org                      |
|    \\/     M anipulation  |                                                 |
\*---------------------------------------------------------------------------*/
FoamFile
{
    version     2.0;
    format      ascii;
    class       volScalarField;
    location    "3.4";
    object      Ma;
}
// * * * * * * * * * * * * * * * * * * * * * * * * * * * * * * * * * * * * * //

dimensions      [0 0 0 0 0 0 0];

internalField   nonuniform List<scalar> 
52500
(
3.00002
2.99997
2.99992
2.99969
2.99937
2.99807
2.99621
2.98911
2.97718
2.93872
2.85064
2.64781
2.10751
1.27312
0.529842
0.275372
0.328114
0.343883
0.311408
0.256417
0.204098
0.162357
0.121172
0.0763026
0.0434273
3.00002
2.99997
2.99992
2.99969
2.99938
2.9981
2.99626
2.98925
2.97751
2.93951
2.8528
2.65236
2.11932
1.28795
0.537778
0.275993
0.329973
0.346483
0.31422
0.260026
0.209008
0.168719
0.129717
0.0898941
0.0659619
3.00002
2.99997
2.99992
2.9997
2.99939
2.99815
2.99637
2.98952
2.97817
2.94111
2.85731
2.66189
2.14504
1.32135
0.55648
0.279787
0.335995
0.354272
0.322849
0.270761
0.222682
0.185782
0.151632
0.11997
0.103885
3.00002
2.99998
2.99992
2.99971
2.99942
2.99823
2.99652
2.98995
2.97915
2.94358
2.86409
2.67632
2.18447
1.37383
0.58518
0.286686
0.345993
0.367137
0.33719
0.288144
0.243823
0.211106
0.182387
0.15752
0.145789
3.00002
2.99998
2.99993
2.99973
2.99945
2.9983
2.99668
2.99026
2.98035
2.94592
2.8746
2.6956
2.24087
1.44897
0.626196
0.3012
0.362244
0.386363
0.357886
0.312251
0.271577
0.24288
0.218946
0.199313
0.19053
3.00002
2.99998
2.99993
2.99975
2.99948
2.99841
2.9969
2.99087
2.98178
2.94921
2.88652
2.71857
2.30757
1.54438
0.678701
0.326451
0.386549
0.412425
0.385278
0.342961
0.305964
0.281077
0.261718
0.246835
0.240862
3.00002
2.99998
2.99994
2.99977
2.99953
2.99855
2.99716
2.99165
2.98336
2.95345
2.89797
2.7425
2.37872
1.65342
0.741232
0.365602
0.421343
0.445594
0.41977
0.380818
0.347185
0.326106
0.3112
0.301658
0.300866
3.00002
2.99999
2.99995
2.99979
2.99958
2.99869
2.99743
2.99241
2.9849
2.9576
2.90757
2.7652
2.43258
1.74393
0.796444
0.400909
0.449317
0.470842
0.451771
0.420861
0.39291
0.377251
0.368877
0.367242
0.376374
3.00002
2.99999
2.99996
2.99982
2.99963
2.99883
2.99771
2.99323
2.98654
2.96227
2.91682
2.79139
2.47909
1.85542
0.878677
0.459781
0.472613
0.485526
0.480294
0.459882
0.441048
0.432898
0.433542
0.44623
0.480284
3.00002
3
2.99997
2.99985
2.99969
2.99905
2.99808
2.9946
2.98836
2.96934
2.92467
2.81925
2.52246
1.96809
0.991697
0.532822
0.489482
0.502349
0.507593
0.4976
0.490207
0.492166
0.508931
0.551476
0.652467
3
2.99995
2.9999
2.99967
2.99935
2.99805
2.99619
2.98909
2.97716
2.93869
2.85061
2.64774
2.10743
1.27299
0.529704
0.275161
0.327924
0.343694
0.311196
0.256158
0.20377
0.16194
0.120606
0.0753914
0.0417812
3
2.99995
2.9999
2.99967
2.99936
2.99808
2.99624
2.98922
2.97749
2.93947
2.85276
2.65229
2.11925
1.28782
0.537644
0.275784
0.329785
0.346296
0.314011
0.259772
0.20869
0.168321
0.129195
0.0891313
0.064905
3
2.99996
2.9999
2.99968
2.99938
2.99813
2.99635
2.9895
2.97815
2.94108
2.85728
2.66182
2.14497
1.32122
0.55635
0.279579
0.335809
0.354088
0.322646
0.270517
0.222384
0.185422
0.151188
0.119405
0.103225
3
2.99996
2.99991
2.99969
2.9994
2.99821
2.9965
2.98993
2.97913
2.94355
2.86406
2.67626
2.1844
1.3737
0.585055
0.28648
0.345812
0.366963
0.337001
0.287921
0.243557
0.210794
0.182023
0.157095
0.145324
3
2.99996
2.99991
2.99971
2.99943
2.99828
2.99666
2.99024
2.98032
2.94588
2.87458
2.69555
2.24084
1.44887
0.626101
0.30102
0.362084
0.38621
0.357718
0.312056
0.271347
0.242618
0.218649
0.198983
0.19018
3
2.99996
2.99992
2.99973
2.99947
2.99839
2.99688
2.99085
2.98175
2.94918
2.8865
2.71852
2.30753
1.54428
0.678607
0.326278
0.3864
0.412286
0.385128
0.34279
0.305768
0.280858
0.261477
0.246574
0.240588
3
2.99997
2.99992
2.99975
2.99951
2.99853
2.99714
2.99163
2.98334
2.95342
2.89794
2.74245
2.37868
1.65334
0.741145
0.365442
0.421208
0.44547
0.419637
0.380669
0.347018
0.325924
0.311004
0.301451
0.300652
3
2.99997
2.99993
2.99978
2.99956
2.99867
2.99741
2.99239
2.98488
2.95757
2.90754
2.76515
2.43255
1.74385
0.796355
0.400754
0.449193
0.470728
0.451651
0.42073
0.392767
0.377099
0.368719
0.367079
0.376209
3
2.99997
2.99994
2.9998
2.99961
2.99881
2.99769
2.99321
2.98652
2.96224
2.91679
2.79135
2.47907
1.85533
0.878594
0.459643
0.4725
0.485417
0.480183
0.459765
0.440925
0.432771
0.433414
0.446103
0.480163
3
2.99998
2.99995
2.99984
2.99967
2.99903
2.99806
2.99458
2.98834
2.96931
2.92464
2.81921
2.52243
1.96802
0.99162
0.532701
0.489374
0.502244
0.507488
0.497494
0.490099
0.492059
0.508828
0.551381
0.652386
3
2.99995
2.9999
2.99967
2.99935
2.99805
2.99619
2.98909
2.97716
2.93869
2.85061
2.64774
2.10743
1.27299
0.529703
0.275162
0.327924
0.343694
0.311197
0.256158
0.203771
0.16194
0.120606
0.0753914
0.0417812
3
2.99995
2.9999
2.99967
2.99936
2.99808
2.99624
2.98922
2.97749
2.93947
2.85276
2.65229
2.11925
1.28781
0.537642
0.275785
0.329785
0.346296
0.314011
0.259773
0.208691
0.168322
0.129195
0.0891314
0.064905
3
2.99996
2.9999
2.99968
2.99938
2.99813
2.99635
2.9895
2.97815
2.94108
2.85728
2.66182
2.14497
1.32122
0.556348
0.27958
0.335809
0.354088
0.322646
0.270517
0.222384
0.185423
0.151189
0.119405
0.103225
3
2.99996
2.99991
2.99969
2.9994
2.99821
2.9965
2.98993
2.97913
2.94355
2.86406
2.67625
2.18439
1.3737
0.585053
0.286481
0.345813
0.366963
0.337001
0.287921
0.243557
0.210794
0.182023
0.157095
0.145325
3
2.99996
2.99991
2.99971
2.99943
2.99828
2.99666
2.99024
2.98032
2.94588
2.87458
2.69555
2.24084
1.44887
0.626099
0.30102
0.362084
0.38621
0.357718
0.312056
0.271347
0.242618
0.218649
0.198983
0.19018
3
2.99996
2.99992
2.99973
2.99947
2.99839
2.99688
2.99085
2.98175
2.94918
2.8865
2.71852
2.30753
1.54427
0.678605
0.326277
0.386399
0.412285
0.385128
0.342789
0.305768
0.280858
0.261477
0.246574
0.240589
3
2.99997
2.99992
2.99975
2.99951
2.99853
2.99714
2.99163
2.98334
2.95342
2.89794
2.74245
2.37867
1.65334
0.741144
0.365441
0.421208
0.44547
0.419637
0.380669
0.347018
0.325924
0.311004
0.301451
0.300653
3
2.99997
2.99993
2.99978
2.99956
2.99867
2.99741
2.99239
2.98488
2.95757
2.90754
2.76515
2.43255
1.74385
0.796353
0.400753
0.449193
0.470728
0.451651
0.42073
0.392767
0.377099
0.368719
0.367079
0.376209
3
2.99997
2.99994
2.9998
2.99961
2.99881
2.99769
2.99321
2.98652
2.96224
2.91679
2.79134
2.47907
1.85533
0.878592
0.459642
0.4725
0.485417
0.480183
0.459765
0.440925
0.432771
0.433413
0.446103
0.480163
3
2.99998
2.99995
2.99984
2.99967
2.99903
2.99806
2.99458
2.98834
2.96931
2.92464
2.81921
2.52243
1.96801
0.991617
0.5327
0.489374
0.502245
0.507488
0.497493
0.490099
0.492059
0.508828
0.551381
0.652386
3
2.99995
2.9999
2.99967
2.99935
2.99805
2.99619
2.98909
2.97716
2.93869
2.8506
2.64774
2.10743
1.27299
0.529703
0.275162
0.327924
0.343694
0.311197
0.256158
0.203771
0.16194
0.120606
0.0753914
0.0417813
3
2.99995
2.9999
2.99967
2.99936
2.99808
2.99624
2.98922
2.97749
2.93947
2.85276
2.65229
2.11925
1.28781
0.537642
0.275785
0.329785
0.346296
0.314011
0.259773
0.208691
0.168322
0.129195
0.0891314
0.0649051
3
2.99996
2.9999
2.99968
2.99938
2.99813
2.99635
2.9895
2.97815
2.94108
2.85728
2.66182
2.14497
1.32122
0.556348
0.27958
0.335809
0.354088
0.322646
0.270517
0.222384
0.185423
0.151189
0.119405
0.103225
3
2.99996
2.99991
2.99969
2.9994
2.99821
2.9965
2.98993
2.97913
2.94355
2.86406
2.67625
2.18439
1.3737
0.585053
0.286481
0.345813
0.366963
0.337001
0.287921
0.243557
0.210794
0.182023
0.157095
0.145325
3
2.99996
2.99991
2.99971
2.99943
2.99828
2.99666
2.99024
2.98032
2.94588
2.87458
2.69555
2.24084
1.44887
0.626099
0.30102
0.362084
0.38621
0.357718
0.312056
0.271347
0.242618
0.218649
0.198983
0.19018
3
2.99996
2.99992
2.99973
2.99947
2.99839
2.99688
2.99085
2.98175
2.94918
2.8865
2.71852
2.30753
1.54427
0.678605
0.326277
0.386399
0.412285
0.385128
0.342789
0.305768
0.280858
0.261477
0.246574
0.240589
3
2.99997
2.99992
2.99975
2.99951
2.99853
2.99714
2.99163
2.98334
2.95342
2.89794
2.74245
2.37867
1.65334
0.741144
0.365441
0.421208
0.44547
0.419637
0.380669
0.347018
0.325924
0.311004
0.301451
0.300653
3
2.99997
2.99993
2.99978
2.99956
2.99867
2.99741
2.99239
2.98488
2.95757
2.90754
2.76515
2.43255
1.74385
0.796353
0.400753
0.449193
0.470728
0.451651
0.42073
0.392767
0.377099
0.368719
0.367079
0.376209
3
2.99997
2.99994
2.9998
2.99961
2.99881
2.99769
2.99321
2.98652
2.96224
2.91679
2.79134
2.47907
1.85533
0.878591
0.459642
0.4725
0.485417
0.480183
0.459765
0.440925
0.432771
0.433413
0.446103
0.480163
3
2.99998
2.99995
2.99984
2.99967
2.99903
2.99806
2.99458
2.98834
2.96931
2.92464
2.81921
2.52243
1.96801
0.991617
0.532699
0.489374
0.502245
0.507488
0.497493
0.490099
0.492059
0.508828
0.551381
0.652386
3
2.99995
2.9999
2.99967
2.99935
2.99805
2.99619
2.98909
2.97716
2.93869
2.8506
2.64774
2.10743
1.27299
0.529703
0.275162
0.327924
0.343694
0.311197
0.256158
0.203771
0.16194
0.120606
0.0753914
0.0417813
3
2.99995
2.9999
2.99967
2.99936
2.99808
2.99624
2.98922
2.97749
2.93947
2.85276
2.65229
2.11925
1.28781
0.537642
0.275785
0.329785
0.346296
0.314011
0.259773
0.208691
0.168322
0.129195
0.0891314
0.0649051
3
2.99996
2.9999
2.99968
2.99938
2.99813
2.99635
2.9895
2.97815
2.94108
2.85728
2.66182
2.14497
1.32122
0.556348
0.27958
0.335809
0.354088
0.322646
0.270517
0.222384
0.185423
0.151189
0.119405
0.103225
3
2.99996
2.99991
2.99969
2.9994
2.99821
2.9965
2.98993
2.97913
2.94355
2.86406
2.67625
2.18439
1.3737
0.585053
0.286481
0.345813
0.366963
0.337001
0.287921
0.243557
0.210794
0.182023
0.157095
0.145325
3
2.99996
2.99991
2.99971
2.99943
2.99828
2.99666
2.99024
2.98032
2.94588
2.87458
2.69555
2.24084
1.44887
0.626098
0.30102
0.362084
0.38621
0.357718
0.312056
0.271347
0.242618
0.218649
0.198983
0.19018
3
2.99996
2.99992
2.99973
2.99947
2.99839
2.99688
2.99085
2.98175
2.94918
2.8865
2.71852
2.30753
1.54427
0.678605
0.326277
0.386399
0.412285
0.385128
0.342789
0.305768
0.280858
0.261477
0.246574
0.240589
3
2.99997
2.99992
2.99975
2.99951
2.99853
2.99714
2.99163
2.98334
2.95342
2.89794
2.74245
2.37867
1.65334
0.741144
0.365441
0.421208
0.44547
0.419637
0.380669
0.347018
0.325924
0.311004
0.301451
0.300653
3
2.99997
2.99993
2.99978
2.99956
2.99867
2.99741
2.99239
2.98488
2.95757
2.90754
2.76515
2.43255
1.74385
0.796352
0.400753
0.449193
0.470728
0.451651
0.42073
0.392767
0.377099
0.368719
0.367079
0.376209
3
2.99997
2.99994
2.9998
2.99961
2.99881
2.99769
2.99321
2.98652
2.96224
2.91679
2.79134
2.47907
1.85533
0.878591
0.459642
0.4725
0.485417
0.480183
0.459765
0.440925
0.432771
0.433413
0.446103
0.480163
3
2.99998
2.99995
2.99984
2.99967
2.99903
2.99806
2.99458
2.98834
2.96931
2.92464
2.81921
2.52243
1.96801
0.991617
0.532699
0.489374
0.502245
0.507488
0.497493
0.490099
0.492059
0.508828
0.551381
0.652386
3
2.99995
2.9999
2.99967
2.99935
2.99805
2.99619
2.98909
2.97716
2.93869
2.8506
2.64774
2.10743
1.27299
0.529703
0.275162
0.327924
0.343694
0.311197
0.256158
0.203771
0.16194
0.120606
0.0753914
0.0417813
3
2.99995
2.9999
2.99967
2.99936
2.99808
2.99624
2.98922
2.97749
2.93947
2.85276
2.65229
2.11925
1.28781
0.537642
0.275785
0.329785
0.346296
0.314011
0.259773
0.208691
0.168322
0.129195
0.0891314
0.0649051
3
2.99996
2.9999
2.99968
2.99938
2.99813
2.99635
2.9895
2.97815
2.94108
2.85728
2.66182
2.14497
1.32122
0.556348
0.27958
0.335809
0.354088
0.322646
0.270517
0.222384
0.185423
0.151189
0.119405
0.103225
3
2.99996
2.99991
2.99969
2.9994
2.99821
2.9965
2.98993
2.97913
2.94355
2.86406
2.67625
2.18439
1.3737
0.585053
0.286481
0.345813
0.366963
0.337001
0.287921
0.243557
0.210794
0.182023
0.157095
0.145325
3
2.99996
2.99991
2.99971
2.99943
2.99828
2.99666
2.99024
2.98032
2.94588
2.87458
2.69555
2.24084
1.44887
0.626099
0.30102
0.362084
0.38621
0.357718
0.312056
0.271347
0.242618
0.218649
0.198983
0.19018
3
2.99996
2.99992
2.99973
2.99947
2.99839
2.99688
2.99085
2.98175
2.94918
2.8865
2.71852
2.30753
1.54427
0.678605
0.326277
0.386399
0.412285
0.385128
0.342789
0.305768
0.280858
0.261477
0.246574
0.240589
3
2.99997
2.99992
2.99975
2.99951
2.99853
2.99714
2.99163
2.98334
2.95342
2.89794
2.74245
2.37867
1.65334
0.741144
0.365441
0.421208
0.44547
0.419637
0.380669
0.347018
0.325924
0.311004
0.301451
0.300653
3
2.99997
2.99993
2.99978
2.99956
2.99867
2.99741
2.99239
2.98488
2.95757
2.90754
2.76515
2.43255
1.74385
0.796353
0.400753
0.449193
0.470728
0.451651
0.42073
0.392767
0.377099
0.368719
0.367079
0.376209
3
2.99997
2.99994
2.9998
2.99961
2.99881
2.99769
2.99321
2.98652
2.96224
2.91679
2.79134
2.47907
1.85533
0.878591
0.459642
0.4725
0.485417
0.480183
0.459765
0.440925
0.432771
0.433413
0.446103
0.480163
3
2.99998
2.99995
2.99984
2.99967
2.99903
2.99806
2.99458
2.98834
2.96931
2.92464
2.81921
2.52243
1.96801
0.991617
0.532699
0.489374
0.502245
0.507488
0.497493
0.490099
0.492059
0.508828
0.551381
0.652386
3
2.99995
2.9999
2.99967
2.99935
2.99805
2.99619
2.98909
2.97716
2.93869
2.8506
2.64774
2.10743
1.27299
0.529703
0.275162
0.327924
0.343694
0.311197
0.256158
0.203771
0.16194
0.120606
0.0753914
0.0417813
3
2.99995
2.9999
2.99967
2.99936
2.99808
2.99624
2.98922
2.97749
2.93947
2.85276
2.65229
2.11925
1.28781
0.537642
0.275785
0.329785
0.346296
0.314011
0.259773
0.208691
0.168322
0.129195
0.0891314
0.0649051
3
2.99996
2.9999
2.99968
2.99938
2.99813
2.99635
2.9895
2.97815
2.94108
2.85728
2.66182
2.14497
1.32122
0.556348
0.27958
0.335809
0.354088
0.322646
0.270517
0.222384
0.185423
0.151189
0.119405
0.103225
3
2.99996
2.99991
2.99969
2.9994
2.99821
2.9965
2.98993
2.97913
2.94355
2.86406
2.67625
2.18439
1.3737
0.585053
0.286481
0.345813
0.366963
0.337001
0.287921
0.243557
0.210794
0.182023
0.157095
0.145325
3
2.99996
2.99991
2.99971
2.99943
2.99828
2.99666
2.99024
2.98032
2.94588
2.87458
2.69555
2.24084
1.44887
0.626099
0.30102
0.362084
0.38621
0.357718
0.312056
0.271347
0.242618
0.218649
0.198983
0.19018
3
2.99996
2.99992
2.99973
2.99947
2.99839
2.99688
2.99085
2.98175
2.94918
2.8865
2.71852
2.30753
1.54427
0.678605
0.326277
0.386399
0.412285
0.385128
0.342789
0.305768
0.280858
0.261477
0.246574
0.240589
3
2.99997
2.99992
2.99975
2.99951
2.99853
2.99714
2.99163
2.98334
2.95342
2.89794
2.74245
2.37867
1.65334
0.741144
0.365441
0.421208
0.44547
0.419637
0.380669
0.347018
0.325924
0.311004
0.301451
0.300653
3
2.99997
2.99993
2.99978
2.99956
2.99867
2.99741
2.99239
2.98488
2.95757
2.90754
2.76515
2.43255
1.74385
0.796353
0.400753
0.449193
0.470728
0.451651
0.42073
0.392767
0.377099
0.368719
0.367079
0.376209
3
2.99997
2.99994
2.9998
2.99961
2.99881
2.99769
2.99321
2.98652
2.96224
2.91679
2.79134
2.47907
1.85533
0.878591
0.459642
0.4725
0.485417
0.480183
0.459765
0.440925
0.432771
0.433413
0.446103
0.480163
3
2.99998
2.99995
2.99984
2.99967
2.99903
2.99806
2.99458
2.98834
2.96931
2.92464
2.81921
2.52243
1.96801
0.991617
0.532699
0.489374
0.502245
0.507488
0.497493
0.490099
0.492059
0.508828
0.551381
0.652386
3
2.99995
2.9999
2.99967
2.99935
2.99805
2.99619
2.98909
2.97716
2.93869
2.85061
2.64774
2.10743
1.27299
0.529703
0.275162
0.327924
0.343694
0.311197
0.256158
0.203771
0.16194
0.120606
0.0753914
0.0417812
3
2.99995
2.9999
2.99967
2.99936
2.99808
2.99624
2.98922
2.97749
2.93947
2.85276
2.65229
2.11925
1.28781
0.537642
0.275785
0.329785
0.346296
0.314011
0.259773
0.208691
0.168322
0.129195
0.0891314
0.064905
3
2.99996
2.9999
2.99968
2.99938
2.99813
2.99635
2.9895
2.97815
2.94108
2.85728
2.66182
2.14497
1.32122
0.556348
0.27958
0.335809
0.354088
0.322646
0.270517
0.222384
0.185423
0.151189
0.119405
0.103225
3
2.99996
2.99991
2.99969
2.9994
2.99821
2.9965
2.98993
2.97913
2.94355
2.86406
2.67625
2.18439
1.3737
0.585053
0.286481
0.345813
0.366963
0.337001
0.287921
0.243557
0.210794
0.182023
0.157095
0.145325
3
2.99996
2.99991
2.99971
2.99943
2.99828
2.99666
2.99024
2.98032
2.94588
2.87458
2.69555
2.24084
1.44887
0.626099
0.30102
0.362084
0.38621
0.357718
0.312056
0.271347
0.242618
0.218649
0.198983
0.19018
3
2.99996
2.99992
2.99973
2.99947
2.99839
2.99688
2.99085
2.98175
2.94918
2.8865
2.71852
2.30753
1.54427
0.678605
0.326277
0.386399
0.412285
0.385128
0.342789
0.305768
0.280858
0.261477
0.246574
0.240589
3
2.99997
2.99992
2.99975
2.99951
2.99853
2.99714
2.99163
2.98334
2.95342
2.89794
2.74245
2.37867
1.65334
0.741144
0.365441
0.421208
0.44547
0.419637
0.380669
0.347018
0.325924
0.311004
0.301451
0.300653
3
2.99997
2.99993
2.99978
2.99956
2.99867
2.99741
2.99239
2.98488
2.95757
2.90754
2.76515
2.43255
1.74385
0.796353
0.400753
0.449193
0.470728
0.451651
0.42073
0.392767
0.377099
0.368719
0.367079
0.376209
3
2.99997
2.99994
2.9998
2.99961
2.99881
2.99769
2.99321
2.98652
2.96224
2.91679
2.79134
2.47907
1.85533
0.878592
0.459642
0.4725
0.485417
0.480183
0.459765
0.440925
0.432771
0.433413
0.446103
0.480163
3
2.99998
2.99995
2.99984
2.99967
2.99903
2.99806
2.99458
2.98834
2.96931
2.92464
2.81921
2.52243
1.96801
0.991617
0.5327
0.489374
0.502245
0.507488
0.497493
0.490099
0.492059
0.508828
0.551381
0.652386
3
2.99995
2.9999
2.99967
2.99935
2.99805
2.99619
2.98909
2.97716
2.93869
2.85061
2.64774
2.10743
1.27299
0.529704
0.275161
0.327924
0.343694
0.311196
0.256158
0.20377
0.16194
0.120606
0.0753914
0.0417812
3
2.99995
2.9999
2.99967
2.99936
2.99808
2.99624
2.98922
2.97749
2.93947
2.85276
2.65229
2.11925
1.28782
0.537644
0.275784
0.329785
0.346296
0.314011
0.259772
0.20869
0.168321
0.129195
0.0891313
0.064905
3
2.99996
2.9999
2.99968
2.99938
2.99813
2.99635
2.9895
2.97815
2.94108
2.85728
2.66182
2.14497
1.32122
0.55635
0.279579
0.335809
0.354088
0.322646
0.270517
0.222384
0.185422
0.151188
0.119405
0.103225
3
2.99996
2.99991
2.99969
2.9994
2.99821
2.9965
2.98993
2.97913
2.94355
2.86406
2.67626
2.1844
1.3737
0.585055
0.28648
0.345812
0.366963
0.337001
0.287921
0.243557
0.210794
0.182023
0.157095
0.145324
3
2.99996
2.99991
2.99971
2.99943
2.99828
2.99666
2.99024
2.98032
2.94588
2.87458
2.69555
2.24084
1.44887
0.626101
0.30102
0.362084
0.38621
0.357718
0.312056
0.271347
0.242618
0.218649
0.198983
0.19018
3
2.99996
2.99992
2.99973
2.99947
2.99839
2.99688
2.99085
2.98175
2.94918
2.8865
2.71852
2.30753
1.54428
0.678607
0.326278
0.3864
0.412286
0.385128
0.34279
0.305768
0.280858
0.261477
0.246574
0.240588
3
2.99997
2.99992
2.99975
2.99951
2.99853
2.99714
2.99163
2.98334
2.95342
2.89794
2.74245
2.37868
1.65334
0.741146
0.365442
0.421208
0.44547
0.419637
0.380669
0.347018
0.325924
0.311004
0.301451
0.300652
3
2.99997
2.99993
2.99978
2.99956
2.99867
2.99741
2.99239
2.98488
2.95757
2.90754
2.76515
2.43255
1.74385
0.796355
0.400754
0.449193
0.470728
0.451651
0.42073
0.392767
0.377099
0.368719
0.367079
0.376209
3
2.99997
2.99994
2.9998
2.99961
2.99881
2.99769
2.99321
2.98652
2.96224
2.91679
2.79135
2.47907
1.85533
0.878594
0.459643
0.4725
0.485417
0.480183
0.459765
0.440925
0.432771
0.433414
0.446103
0.480163
3
2.99998
2.99995
2.99984
2.99967
2.99903
2.99806
2.99458
2.98834
2.96931
2.92464
2.81921
2.52243
1.96802
0.99162
0.532701
0.489374
0.502244
0.507488
0.497494
0.490099
0.492059
0.508828
0.551381
0.652386
3.00002
2.99997
2.99992
2.99969
2.99937
2.99807
2.99621
2.98911
2.97718
2.93872
2.85064
2.64781
2.10751
1.27312
0.529841
0.275372
0.328114
0.343883
0.311408
0.256417
0.204098
0.162357
0.121172
0.0763026
0.0434273
3.00002
2.99997
2.99992
2.99969
2.99938
2.9981
2.99626
2.98925
2.97751
2.93951
2.8528
2.65236
2.11932
1.28795
0.537778
0.275993
0.329973
0.346483
0.31422
0.260026
0.209008
0.168719
0.129717
0.0898941
0.0659619
3.00002
2.99997
2.99992
2.9997
2.99939
2.99815
2.99637
2.98952
2.97817
2.94111
2.85731
2.66189
2.14504
1.32135
0.55648
0.279787
0.335995
0.354272
0.322849
0.270761
0.222682
0.185782
0.151632
0.11997
0.103885
3.00002
2.99998
2.99992
2.99971
2.99942
2.99823
2.99652
2.98995
2.97915
2.94358
2.86409
2.67632
2.18447
1.37383
0.58518
0.286686
0.345993
0.367137
0.33719
0.288144
0.243823
0.211106
0.182387
0.15752
0.145789
3.00002
2.99998
2.99993
2.99973
2.99945
2.9983
2.99668
2.99026
2.98035
2.94592
2.8746
2.6956
2.24087
1.44897
0.626196
0.3012
0.362244
0.386363
0.357886
0.312251
0.271577
0.24288
0.218946
0.199313
0.19053
3.00002
2.99998
2.99993
2.99975
2.99948
2.99841
2.9969
2.99087
2.98178
2.94921
2.88652
2.71857
2.30757
1.54438
0.678701
0.326451
0.38655
0.412425
0.385278
0.342961
0.305964
0.281077
0.261718
0.246834
0.240862
3.00002
2.99998
2.99994
2.99977
2.99953
2.99855
2.99716
2.99165
2.98336
2.95345
2.89797
2.7425
2.37872
1.65342
0.741232
0.365602
0.421343
0.445594
0.41977
0.380818
0.347185
0.326106
0.3112
0.301658
0.300866
3.00002
2.99999
2.99995
2.99979
2.99958
2.99869
2.99743
2.99241
2.9849
2.9576
2.90757
2.7652
2.43258
1.74393
0.796444
0.400909
0.449317
0.470842
0.451771
0.420861
0.39291
0.377251
0.368877
0.367242
0.376374
3.00002
2.99999
2.99996
2.99982
2.99963
2.99883
2.99771
2.99323
2.98654
2.96227
2.91682
2.79139
2.47909
1.85542
0.878677
0.459781
0.472613
0.485526
0.480294
0.459882
0.441048
0.432898
0.433542
0.44623
0.480284
3.00002
3
2.99997
2.99985
2.99969
2.99905
2.99808
2.9946
2.98836
2.96934
2.92467
2.81925
2.52246
1.96809
0.991697
0.532822
0.489482
0.502349
0.507593
0.4976
0.490207
0.492166
0.508931
0.551476
0.652467
3.00002
3.00001
2.99996
2.9999
2.99965
2.99929
2.99788
2.99574
2.98806
2.97419
2.93211
2.83178
2.60918
2.03001
1.17115
0.622867
0.513048
0.525719
0.537339
0.536248
0.538257
0.552891
0.59193
0.676725
0.856405
3.00002
3.00001
2.99997
2.99992
2.9997
2.99939
2.99814
2.99635
2.98952
2.97814
2.94123
2.85751
2.66319
2.15076
1.33953
0.715181
0.536862
0.551297
0.56886
0.576233
0.586912
0.61428
0.671257
0.77658
0.966661
3.00002
3.00001
2.99998
2.99993
2.99974
2.99947
2.99839
2.99686
2.99073
2.98152
2.94864
2.88425
2.71556
2.29733
1.54227
0.824616
0.574534
0.586728
0.604299
0.617412
0.634359
0.669811
0.735394
0.840094
1.00397
3.00002
3.00001
2.99999
2.99995
2.99979
2.99957
2.99867
2.99741
2.99237
2.98485
2.95747
2.90828
2.76512
2.44787
1.76831
0.947379
0.632452
0.634556
0.648017
0.664104
0.683746
0.721569
0.785625
0.879771
1.01712
3.00002
3.00002
2.99999
2.99996
2.99984
2.99966
2.99895
2.99792
2.99393
2.98779
2.96636
2.92464
2.81246
2.53318
1.95979
1.07107
0.699378
0.674423
0.687858
0.705237
0.727881
0.765326
0.827943
0.91062
1.02582
3.00002
3.00002
3.00001
2.99996
2.99991
2.99967
2.99934
2.99803
2.99604
2.98905
2.97601
2.93792
2.84492
2.64166
2.0961
1.28729
0.804634
0.709479
0.721225
0.739844
0.766258
0.802497
0.859079
0.935932
1.03382
3.00002
3.00002
3.00001
2.99998
2.99993
2.99973
2.99946
2.99834
2.99678
2.99053
2.98106
2.94789
2.88071
2.71069
2.28367
1.53525
0.926813
0.745931
0.750323
0.769923
0.801349
0.837752
0.887524
0.955613
1.04102
3.00002
3.00002
3.00001
2.99999
2.99995
2.9998
2.99959
2.99874
2.99752
2.99278
2.98553
2.95982
2.91262
2.77739
2.47842
1.82387
1.08428
0.808006
0.792183
0.805746
0.833451
0.870692
0.916622
0.976325
1.05038
3.00002
3.00002
3.00002
3
2.99996
2.99989
2.99963
2.99924
2.99777
2.99555
2.98749
2.97359
2.93021
2.83095
2.60907
2.05503
1.26276
0.881525
0.83235
0.844111
0.867319
0.901264
0.942315
0.994636
1.05941
3.00003
3.00002
3.00002
3.00001
2.99997
2.99992
2.99973
2.99944
2.99832
2.99667
2.99054
2.98019
2.94717
2.87278
2.69895
2.25065
1.50137
0.997128
0.871581
0.875155
0.896589
0.930049
0.968867
1.01441
1.0704
3.00003
3.00003
3.00002
3.00001
3
2.99994
2.99985
2.99952
2.99902
2.99719
2.99421
2.98439
2.96439
2.91087
2.77363
2.49374
1.8299
1.17839
0.935095
0.914566
0.926951
0.955242
0.992717
1.03459
1.08286
3.00003
3.00003
3.00002
3.00002
3.00001
2.99996
2.9999
2.99965
2.99929
2.99787
2.99581
2.98811
2.97522
2.93429
2.84209
2.63494
2.11142
1.3676
1.013
0.954415
0.961794
0.983874
1.01726
1.05588
1.09956
3.00003
3.00003
3.00003
3.00002
3.00001
2.99999
2.99992
2.99981
2.99941
2.9988
2.99664
2.99287
2.98117
2.95515
2.89045
2.71804
2.379
1.62712
1.14876
1.00176
0.995485
1.00876
1.03724
1.07446
1.11479
3.00003
3.00003
3.00003
3.00002
3.00001
3
2.99995
2.99987
2.99957
2.99914
2.99743
2.99498
2.98557
2.9707
2.92205
2.82047
2.57254
2.03707
1.3376
1.07598
1.03818
1.04288
1.06323
1.09551
1.13219
3.00003
3.00003
3.00003
3.00002
3.00002
3.00001
2.99998
2.9999
2.99977
2.99929
2.99858
2.99591
2.99177
2.97757
2.95054
2.87589
2.69333
2.31299
1.57855
1.18072
1.07704
1.07323
1.08657
1.11335
1.1491
3.00003
3.00003
3.00003
3.00003
3.00002
3.00001
3
2.99994
2.99985
2.99953
2.99905
2.99722
2.99454
2.98469
2.96815
2.91706
2.80132
2.55164
1.96498
1.36551
1.13981
1.11084
1.11581
1.13632
1.16662
3.00003
3.00003
3.00003
3.00003
3.00002
3.00002
3
2.99998
2.99989
2.99975
2.99923
2.99847
2.9956
2.99115
2.97576
2.94755
2.86884
2.6852
2.27692
1.581
1.23066
1.14792
1.14463
1.15755
1.18244
3.00003
3.00003
3.00003
3.00003
3.00003
3.00002
3.00001
3
2.99993
2.99985
2.9995
2.99901
2.99711
2.99432
2.98412
2.96697
2.91431
2.79541
2.5388
1.94892
1.40524
1.20591
1.17893
1.1837
1.20302
3.00003
3.00003
3.00003
3.00003
3.00003
3.00002
3.00002
3
2.99998
2.99988
2.99975
2.99923
2.99844
2.99558
2.99101
2.97565
2.94728
2.86678
2.69248
2.26694
1.63137
1.30335
1.22086
1.21389
1.22331
3.00003
3.00003
3.00003
3.00003
3.00003
3.00003
3.00002
3.00002
2.99999
2.99995
2.99981
2.9996
2.99881
2.99764
2.99334
2.98651
2.96385
2.92082
2.80536
2.54758
1.99056
1.4633
1.27575
1.24721
1.24993
3.00003
3.00003
3.00003
3.00003
3.00003
3.00003
3.00002
3.00002
3
2.99998
2.99989
2.99976
2.99925
2.99852
2.99573
2.99156
2.97674
2.95114
2.87608
2.71406
2.33414
1.70584
1.37393
1.28619
1.27714
3.00003
3.00003
3.00003
3.00003
3.00003
3.00003
3.00003
3.00002
3.00002
2.99999
2.99996
2.99983
2.99963
2.99892
2.99785
2.99396
2.98778
2.96741
2.92937
2.82496
2.60277
2.09019
1.55023
1.34283
1.31137
3.00003
3.00003
3.00003
3.00003
3.00003
3.00003
3.00003
3.00003
3.00002
3.00001
2.99998
2.9999
2.99978
2.99933
2.99868
2.99617
2.99253
2.97912
2.95748
2.88894
2.749
2.41431
1.80805
1.44463
1.3448
3.00003
3.00003
3.00003
3.00003
3.00003
3.00003
3.00003
3.00003
3.00002
3.00002
3
2.99995
2.99988
2.99961
2.99921
2.99772
2.99555
2.98752
2.9749
2.93401
2.85444
2.65364
2.2226
1.64917
1.41493
3.00003
3.00003
3.00003
3.00003
3.00003
3.00003
3.00003
3.00003
3.00003
3.00002
3.00001
2.99998
2.99994
2.99977
2.99954
2.99863
2.99733
2.99243
2.98494
2.95949
2.91186
2.788
2.49588
1.93737
1.54352
3.00003
3.00003
3.00003
3.00003
3.00003
3.00003
3.00003
3.00003
3.00003
3.00003
3.00002
3.00001
2.99997
2.99991
2.99969
2.99936
2.99817
2.99634
2.99
2.97927
2.94649
2.87561
2.71565
2.32635
1.7607
3.00003
3.00003
3.00003
3.00003
3.00003
3.00003
3.00003
3.00003
3.00003
3.00003
3.00002
3.00001
3
2.99994
2.99986
2.99957
2.99912
2.99753
2.99506
2.98674
2.97193
2.92959
2.83337
2.63098
2.15142
3.00003
3.00003
3.00003
3.00003
3.00003
3.00003
3.00003
3.00003
3.00003
3.00003
3.00003
3.00002
3.00001
2.99999
2.99991
2.9998
2.99939
2.99878
2.99657
2.99311
2.98162
2.96071
2.90339
2.77682
2.48453
3.00003
3.00003
3.00003
3.00003
3.00003
3.00003
3.00003
3.00003
3.00003
3.00003
3.00003
3.00002
3.00002
3.00001
2.99996
2.9999
2.99966
2.99932
2.99803
2.99615
2.98931
2.97848
2.94394
2.87609
2.70963
3.00003
3.00003
3.00003
3.00003
3.00003
3.00003
3.00003
3.00003
3.00003
3.00003
3.00003
3.00003
3.00002
3.00001
3
2.99994
2.99986
2.99956
2.99911
2.9975
2.99501
2.98651
2.97209
2.92939
2.83795
3.00003
3.00003
3.00003
3.00003
3.00003
3.00003
3.00003
3.00003
3.00003
3.00003
3.00003
3.00003
3.00003
3.00002
3.00001
2.99999
2.99991
2.9998
2.99941
2.99881
2.9967
2.99332
2.98234
2.96241
2.90649
3.00003
3.00003
3.00003
3.00003
3.00003
3.00003
3.00003
3.00003
3.00003
3.00003
3.00003
3.00003
3.00003
3.00002
3.00002
3
2.99998
2.99988
2.99974
2.99923
2.99846
2.99576
2.9914
2.97741
2.95206
3.00003
3.00003
3.00003
3.00003
3.00003
3.00003
3.00003
3.00003
3.00003
3.00003
3.00003
3.00003
3.00003
3.00003
3.00002
3.00001
3
2.99995
2.99987
2.99959
2.99918
2.9977
2.99546
2.98781
2.975
3.00003
3.00003
3.00003
3.00003
3.00003
3.00003
3.00003
3.00003
3.00003
3.00003
3.00003
3.00003
3.00003
3.00003
3.00003
3.00002
3.00001
2.99999
2.99993
2.99983
2.99948
2.99895
2.9971
2.99421
2.98447
3.00003
3.00003
3.00003
3.00003
3.00003
3.00003
3.00003
3.00003
3.00003
3.00003
3.00003
3.00003
3.00003
3.00003
3.00003
3.00002
3.00002
3
2.99998
2.99989
2.99976
2.99931
2.9986
2.99618
2.99226
3.00003
3.00003
3.00003
3.00003
3.00003
3.00003
3.00003
3.00003
3.00003
3.00003
3.00003
3.00003
3.00003
3.00003
3.00003
3.00003
3.00002
3.00002
2.99999
2.99996
2.99983
2.99964
2.99897
2.99793
2.9943
3.00003
3.00003
3.00003
3.00003
3.00003
3.00003
3.00003
3.00003
3.00003
3.00003
3.00003
3.00003
3.00003
3.00003
3.00003
3.00003
3.00003
3.00002
3.00001
2.99997
2.99991
2.99968
2.99934
2.99806
2.99617
3.00003
3.00003
3.00003
3.00003
3.00003
3.00003
3.00003
3.00003
3.00003
3.00003
3.00003
3.00003
3.00003
3.00003
3.00003
3.00003
3.00003
3.00002
3.00001
2.99998
2.99992
2.99973
2.99944
2.99831
2.99659
3.00003
3.00003
3.00003
3.00003
3.00003
3.00003
3.00003
3.00003
3.00003
3.00003
3.00003
3.00003
3.00003
3.00003
3.00003
3.00003
3.00003
3.00002
3.00001
2.99999
2.99991
2.99981
2.99938
2.99873
2.99642
3.00003
3.00003
3.00003
3.00003
3.00003
3.00003
3.00003
3.00003
3.00003
3.00003
3.00003
3.00003
3.00003
3.00003
3.00003
3.00003
3.00003
3.00002
3.00001
2.99999
2.99991
2.9998
2.99936
2.99872
2.99624
3
2.99999
2.99994
2.99988
2.99963
2.99927
2.99786
2.99572
2.98804
2.97416
2.93208
2.83175
2.60912
2.02997
1.17106
0.62276
0.512944
0.525618
0.537241
0.53615
0.538161
0.552799
0.591847
0.676655
0.856359
3
2.99999
2.99995
2.9999
2.99968
2.99937
2.99812
2.99633
2.9895
2.97812
2.9412
2.85748
2.66313
2.15071
1.33943
0.715086
0.53676
0.551198
0.568766
0.576142
0.586826
0.6142
0.671187
0.776524
0.966623
3
2.99999
2.99996
2.99991
2.99972
2.99945
2.99837
2.99684
2.9907
2.98149
2.94861
2.88423
2.71551
2.2973
1.54219
0.824541
0.574438
0.586634
0.60421
0.617327
0.63428
0.669739
0.735332
0.840045
1.00393
3
3
2.99997
2.99993
2.99977
2.99955
2.99865
2.99739
2.99234
2.98483
2.95744
2.90825
2.76508
2.44784
1.76824
0.947314
0.632363
0.634472
0.647937
0.664029
0.683674
0.721504