/*--------------------------------*- C++ -*----------------------------------*\
| =========                 |                                                 |
| \\      /  F ield         | OpenFOAM: The Open Source CFD Toolbox           |
|  \\    /   O peration     | Version:  4.1                                   |
|   \\  /    A nd           | Web:      www.OpenFOAM.org                      |
|    \\/     M anipulation  |                                                 |
\*---------------------------------------------------------------------------*/
FoamFile
{
    version     2.0;
    format      ascii;
    class       volScalarField;
    location    "1.22";
    object      p;
}
// * * * * * * * * * * * * * * * * * * * * * * * * * * * * * * * * * * * * * //

dimensions      [1 -1 -2 0 0 0 0];

internalField   nonuniform List<scalar> 
52500
(
1
1.00001
1.00005
1.00011
1.00033
1.00069
1.00201
1.00405
1.01217
1.02294
1.07873
1.14054
1.52469
2.21042
4.81482
11.002
11.5142
11.3403
11.3234
11.425
11.6371
11.7761
11.8756
11.936
12.0072
1
1.00001
1.00005
1.00011
1.00033
1.00068
1.00197
1.00397
1.01198
1.02252
1.0776
1.13817
1.51709
2.19243
4.76235
10.9068
11.5096
11.3323
11.3114
11.4135
11.6275
11.7688
11.8717
11.9359
12.0095
1
1.00001
1.00005
1.00011
1.00032
1.00065
1.0019
1.00381
1.01159
1.02157
1.07546
1.13291
1.50228
2.15107
4.65081
10.6851
11.4982
11.3081
11.2725
11.3738
11.5896
11.7345
11.8402
11.9064
11.981
1
1.00001
1.00004
1.0001
1.0003
1.00061
1.0018
1.0036
1.01101
1.02033
1.07211
1.12508
1.48182
2.08181
4.48772
10.3264
11.4925
11.2744
11.2082
11.3067
11.5224
11.6725
11.7805
11.8472
11.9253
1
1.00001
1.00004
1.00009
1.00027
1.00056
1.00165
1.00326
1.01023
1.01844
1.06771
1.11474
1.45374
1.99357
4.26499
9.81863
11.4981
11.2371
11.1239
11.2171
11.4305
11.5862
11.6949
11.7604
11.8427
1
1.00001
1.00004
1.00008
1.00025
1.00051
1.0015
1.00296
1.00934
1.01648
1.0622
1.10225
1.41848
1.88386
3.9851
9.13164
11.5251
11.206
11.0234
11.1073
11.3107
11.4679
11.5729
11.6331
11.7182
1
1.00001
1.00003
1.00007
1.00023
1.00047
1.00137
1.00273
1.00839
1.01532
1.05515
1.09255
1.37067
1.77739
3.62818
8.25316
11.5888
11.1981
10.9136
10.9813
11.1607
11.3098
11.4
11.4452
11.5239
1
1.00001
1.00003
1.00007
1.0002
1.00042
1.00123
1.00249
1.00738
1.01424
1.04727
1.08303
1.31578
1.66666
3.2229
7.19331
11.6678
11.21
10.8002
10.84
10.9723
11.0988
11.1586
11.1719
11.2183
1
1.00001
1.00003
1.00006
1.00018
1.00037
1.00107
1.00218
1.00637
1.01263
1.03951
1.07296
1.25837
1.54986
2.79313
5.97462
11.6396
11.1905
10.6755
10.6723
10.7383
10.8189
10.8169
10.7649
10.7073
1
1
1.00002
1.00005
1.00015
1.00032
1.00092
1.00186
1.00546
1.01071
1.03412
1.06092
1.22505
1.44301
2.54633
5.05554
11.2878
11.0345
10.5443
10.4472
10.4662
10.4584
10.3794
10.1621
9.79241
1
1.00002
1.00005
1.00012
1.00034
1.0007
1.00201
1.00406
1.01219
1.02297
1.07875
1.14062
1.52481
2.2108
4.81576
11.0035
11.5138
11.3401
11.3234
11.425
11.637
11.7759
11.8754
11.9358
12.007
1
1.00002
1.00005
1.00011
1.00033
1.00068
1.00198
1.00398
1.01199
1.02255
1.07763
1.13826
1.51721
2.19281
4.76329
10.9084
11.5092
11.3321
11.3114
11.4134
11.6273
11.7686
11.8715
11.9356
12.0092
1
1.00002
1.00005
1.00011
1.00032
1.00066
1.00191
1.00382
1.01161
1.0216
1.07548
1.13301
1.50238
2.15152
4.65171
10.6868
11.4977
11.3078
11.2725
11.3737
11.5894
11.7343
11.84
11.9061
11.9807
1
1.00001
1.00005
1.0001
1.0003
1.00062
1.0018
1.00361
1.01102
1.02036
1.07213
1.12517
1.48194
2.08226
4.48871
10.3284
11.4919
11.2741
11.2082
11.3066
11.5222
11.6723
11.7802
11.8469
11.925
1
1.00001
1.00004
1.0001
1.00028
1.00057
1.00165
1.00328
1.01024
1.01847
1.06773
1.11484
1.45385
1.99406
4.26602
9.82092
11.4974
11.2368
11.1238
11.217
11.4302
11.5859
11.6947
11.7601
11.8424
1
1.00001
1.00004
1.00009
1.00025
1.00052
1.00151
1.00297
1.00935
1.0165
1.06224
1.10231
1.41866
1.88429
3.98628
9.1342
11.5242
11.2056
11.0233
11.1072
11.3104
11.4676
11.5726
11.6328
11.7179
1
1.00001
1.00004
1.00008
1.00023
1.00048
1.00138
1.00275
1.0084
1.01535
1.05518
1.09264
1.37081
1.77788
3.62933
8.25604
11.5876
11.1975
10.9134
10.9811
11.1604
11.3095
11.3997
11.4449
11.5236
1
1.00001
1.00003
1.00007
1.00021
1.00043
1.00123
1.0025
1.0074
1.01426
1.0473
1.08309
1.31595
1.66708
3.22413
7.19671
11.6665
11.2093
10.7999
10.8397
10.972
11.0985
11.1583
11.1716
11.2181
1
1.00001
1.00003
1.00006
1.00018
1.00038
1.00108
1.00219
1.00638
1.01265
1.03954
1.07302
1.25851
1.55034
2.79441
5.97868
11.6387
11.1899
10.6752
10.672
10.738
10.8186
10.8166
10.7647
10.7071
1
1.00001
1.00003
1.00005
1.00016
1.00032
1.00092
1.00187
1.00547
1.01073
1.03414
1.06096
1.22514
1.44326
2.54677
5.0573
11.2882
11.0343
10.5437
10.4469
10.4659
10.4581
10.3792
10.1619
9.79229
1
1.00002
1.00005
1.00012
1.00034
1.0007
1.00201
1.00406
1.01219
1.02297
1.07875
1.14063
1.52481
2.21081
4.8158
11.0035
11.5138
11.3401
11.3234
11.425
11.6369
11.7759
11.8754
11.9358
12.007
1
1.00002
1.00005
1.00011
1.00033
1.00068
1.00198
1.00398
1.01199
1.02255
1.07763
1.13826
1.51722
2.19282
4.76334
10.9085
11.5092
11.3321
11.3114
11.4134
11.6273
11.7686
11.8715
11.9356
12.0092
1
1.00002
1.00005
1.00011
1.00032
1.00066
1.00191
1.00382
1.01161
1.0216
1.07548
1.13301
1.50239
2.15154
4.65175
10.6869
11.4977
11.3078
11.2725
11.3737
11.5894
11.7342
11.84
11.9061
11.9807
1
1.00001
1.00005
1.0001
1.0003
1.00062
1.0018
1.00361
1.01102
1.02036
1.07213
1.12518
1.48195
2.08228
4.48875
10.3285
11.4919
11.2741
11.2081
11.3066
11.5222
11.6722
11.7802
11.8469
11.925
1
1.00001
1.00004
1.0001
1.00028
1.00057
1.00165
1.00328
1.01024
1.01847
1.06773
1.11484
1.45386
1.99408
4.26607
9.82101
11.4973
11.2368
11.1238
11.217
11.4302
11.5859
11.6947
11.7601
11.8424
1
1.00001
1.00004
1.00009
1.00025
1.00052
1.00151
1.00297
1.00935
1.0165
1.06224
1.10231
1.41867
1.8843
3.98633
9.1343
11.5241
11.2056
11.0233
11.1072
11.3104
11.4676
11.5726
11.6328
11.7179
1
1.00001
1.00004
1.00008
1.00023
1.00048
1.00138
1.00275
1.0084
1.01535
1.05518
1.09264
1.37081
1.77789
3.62938
8.25615
11.5875
11.1975
10.9134
10.9811
11.1604
11.3094
11.3997
11.4449
11.5236
1
1.00001
1.00003
1.00007
1.00021
1.00043
1.00123
1.0025
1.0074
1.01426
1.0473
1.08309
1.31596
1.66709
3.22418
7.19685
11.6665
11.2092
10.7999
10.8397
10.972
11.0984
11.1583
11.1716
11.2181
1
1.00001
1.00003
1.00006
1.00018
1.00038
1.00108
1.00219
1.00638
1.01265
1.03954
1.07302
1.25851
1.55036
2.79446
5.97884
11.6386
11.1898
10.6752
10.672
10.738
10.8186
10.8166
10.7647
10.7071
1
1.00001
1.00003
1.00005
1.00016
1.00032
1.00092
1.00187
1.00547
1.01073
1.03414
1.06096
1.22515
1.44327
2.54679
5.05737
11.2882
11.0343
10.5437
10.4469
10.4659
10.4581
10.3792
10.1619
9.79228
1
1.00002
1.00005
1.00012
1.00034
1.0007
1.00201
1.00406
1.01219
1.02297
1.07875
1.14063
1.52482
2.21082
4.81581
11.0036
11.5138
11.3401
11.3234
11.425
11.6369
11.7759
11.8754
11.9358
12.007
1
1.00002
1.00005
1.00011
1.00033
1.00068
1.00198
1.00398
1.01199
1.02255
1.07763
1.13826
1.51722
2.19283
4.76335
10.9085
11.5092
11.3321
11.3114
11.4134
11.6273
11.7686
11.8715
11.9356
12.0092
1
1.00002
1.00005
1.00011
1.00032
1.00066
1.00191
1.00382
1.01161
1.0216
1.07548
1.13301
1.50239
2.15155
4.65176
10.6869
11.4977
11.3078
11.2725
11.3737
11.5894
11.7342
11.8399
11.9061
11.9807
1
1.00001
1.00005
1.0001
1.0003
1.00062
1.0018
1.00361
1.01102
1.02036
1.07213
1.12518
1.48195
2.08228
4.48876
10.3285
11.4919
11.2741
11.2081
11.3066
11.5222
11.6722
11.7802
11.8469
11.925
1
1.00001
1.00004
1.0001
1.00028
1.00057
1.00165
1.00328
1.01024
1.01847
1.06773
1.11484
1.45386
1.99408
4.26608
9.82104
11.4973
11.2368
11.1238
11.217
11.4302
11.5859
11.6947
11.7601
11.8424
1
1.00001
1.00004
1.00009
1.00025
1.00052
1.00151
1.00297
1.00935
1.0165
1.06224
1.10231
1.41867
1.88431
3.98634
9.13433
11.5241
11.2056
11.0233
11.1072
11.3104
11.4676
11.5726
11.6328
11.7179
1
1.00001
1.00004
1.00008
1.00023
1.00048
1.00138
1.00275
1.0084
1.01535
1.05518
1.09264
1.37082
1.7779
3.62939
8.25618
11.5875
11.1975
10.9134
10.9811
11.1604
11.3094
11.3997
11.4449
11.5236
1
1.00001
1.00003
1.00007
1.00021
1.00043
1.00123
1.0025
1.0074
1.01426
1.0473
1.08309
1.31596
1.66709
3.22419
7.19688
11.6665
11.2092
10.7999
10.8397
10.972
11.0984
11.1583
11.1716
11.218
1
1.00001
1.00003
1.00006
1.00018
1.00038
1.00108
1.00219
1.00638
1.01265
1.03954
1.07302
1.25851
1.55036
2.79447
5.97888
11.6386
11.1898
10.6752
10.672
10.738
10.8186
10.8166
10.7647
10.7071
1
1.00001
1.00003
1.00005
1.00016
1.00032
1.00092
1.00187
1.00547
1.01073
1.03414
1.06096
1.22515
1.44327
2.54679
5.05739
11.2883
11.0343
10.5437
10.4469
10.4659
10.4581
10.3792
10.1619
9.79228
1
1.00002
1.00005
1.00012
1.00034
1.0007
1.00201
1.00406
1.01219
1.02297
1.07875
1.14063
1.52482
2.21083
4.81585
11.0036
11.5138
11.3401
11.3234
11.4249
11.6369
11.7759
11.8754
11.9358
12.0069
1
1.00002
1.00005
1.00011
1.00033
1.00068
1.00198
1.00398
1.01199
1.02255
1.07763
1.13826
1.51723
2.19284
4.76338
10.9085
11.5092
11.3321
11.3114
11.4134
11.6273
11.7686
11.8715
11.9356
12.0092
1
1.00002
1.00005
1.00011
1.00032
1.00066
1.00191
1.00382
1.01161
1.0216
1.07548
1.13301
1.50239
2.15156
4.6518
10.687
11.4977
11.3078
11.2725
11.3737
11.5894
11.7342
11.8399
11.9061
11.9807
1
1.00001
1.00005
1.0001
1.0003
1.00062
1.0018
1.00361
1.01102
1.02036
1.07213
1.12518
1.48195
2.08229
4.48879
10.3286
11.4918
11.2741
11.2081
11.3065
11.5221
11.6722
11.7802
11.8469
11.925
1
1.00001
1.00004
1.0001
1.00028
1.00057
1.00165
1.00328
1.01024
1.01847
1.06773
1.11484
1.45386
1.9941
4.26612
9.82111
11.4973
11.2368
11.1238
11.217
11.4302
11.5859
11.6946
11.7601
11.8424
1
1.00001
1.00004
1.00009
1.00025
1.00052
1.00151
1.00297
1.00935
1.0165
1.06224
1.10232
1.41868
1.88432
3.98638
9.13442
11.5241
11.2056
11.0233
11.1071
11.3104
11.4676
11.5726
11.6328
11.7179
1
1.00001
1.00004
1.00008
1.00023
1.00048
1.00138
1.00275
1.0084
1.01535
1.05518
1.09264
1.37082
1.77791
3.62944
8.25627
11.5874
11.1975
10.9134
10.9811
11.1604
11.3094
11.3996
11.4449
11.5236
1
1.00001
1.00003
1.00007
1.00021
1.00043
1.00123
1.0025
1.0074
1.01426
1.0473
1.08309
1.31597
1.66711
3.22423
7.19699
11.6664
11.2092
10.7999
10.8397
10.972
11.0984
11.1583
11.1716
11.218
1
1.00001
1.00003
1.00006
1.00018
1.00038
1.00108
1.00219
1.00638
1.01265
1.03954
1.07302
1.25852
1.55038
2.79451
5.979
11.6386
11.1898
10.6752
10.672
10.738
10.8186
10.8166
10.7647
10.7071
1
1.00001
1.00003
1.00005
1.00016
1.00032
1.00092
1.00187
1.00547
1.01073
1.03414
1.06096
1.22515
1.44327
2.54681
5.05744
11.2883
11.0343
10.5436
10.4469
10.4659
10.4581
10.3792
10.1619
9.79228
1
1.00002
1.00005
1.00012
1.00034
1.0007
1.00201
1.00406
1.01219
1.02297
1.07875
1.14063
1.52482
2.21082
4.81583
11.0036
11.5138
11.3401
11.3234
11.4249
11.6369
11.7759
11.8754
11.9358
12.007
1
1.00002
1.00005
1.00011
1.00033
1.00068
1.00198
1.00398
1.01199
1.02255
1.07763
1.13826
1.51722
2.19283
4.76336
10.9085
11.5092
11.3321
11.3114
11.4134
11.6273
11.7686
11.8715
11.9356
12.0092
1
1.00002
1.00005
1.00011
1.00032
1.00066
1.00191
1.00382
1.01161
1.0216
1.07548
1.13301
1.50239
2.15155
4.65178
10.6869
11.4977
11.3078
11.2725
11.3737
11.5894
11.7342
11.8399
11.9061
11.9807
1
1.00001
1.00005
1.0001
1.0003
1.00062
1.0018
1.00361
1.01102
1.02036
1.07213
1.12518
1.48195
2.08229
4.48877
10.3285
11.4919
11.2741
11.2081
11.3065
11.5222
11.6722
11.7802
11.8469
11.925
1
1.00001
1.00004
1.0001
1.00028
1.00057
1.00165
1.00328
1.01024
1.01847
1.06773
1.11484
1.45386
1.99409
4.26609
9.82107
11.4973
11.2368
11.1238
11.217
11.4302
11.5859
11.6946
11.7601
11.8424
1
1.00001
1.00004
1.00009
1.00025
1.00052
1.00151
1.00297
1.00935
1.0165
1.06224
1.10231
1.41868
1.88431
3.98636
9.13437
11.5241
11.2056
11.0233
11.1071
11.3104
11.4676
11.5726
11.6328
11.7179
1
1.00001
1.00004
1.00008
1.00023
1.00048
1.00138
1.00275
1.0084
1.01535
1.05518
1.09264
1.37082
1.7779
3.62941
8.25622
11.5875
11.1975
10.9134
10.9811
11.1604
11.3094
11.3997
11.4449
11.5236
1
1.00001
1.00003
1.00007
1.00021
1.00043
1.00123
1.0025
1.0074
1.01426
1.0473
1.08309
1.31596
1.6671
3.22421
7.19693
11.6664
11.2092
10.7999
10.8397
10.972
11.0984
11.1583
11.1716
11.218
1
1.00001
1.00003
1.00006
1.00018
1.00038
1.00108
1.00219
1.00638
1.01265
1.03954
1.07302
1.25851
1.55037
2.79449
5.97893
11.6386
11.1898
10.6752
10.672
10.738
10.8186
10.8166
10.7647
10.7071
1
1.00001
1.00003
1.00005
1.00016
1.00032
1.00092
1.00187
1.00547
1.01073
1.03414
1.06096
1.22515
1.44327
2.5468
5.05741
11.2883
11.0343
10.5436
10.4469
10.4659
10.4581
10.3792
10.1619
9.79228
1
1.00002
1.00005
1.00012
1.00034
1.0007
1.00201
1.00406
1.01219
1.02297
1.07875
1.14063
1.52482
2.21082
4.81581
11.0036
11.5138
11.3401
11.3234
11.425
11.6369
11.7759
11.8754
11.9358
12.007
1
1.00002
1.00005
1.00011
1.00033
1.00068
1.00198
1.00398
1.01199
1.02255
1.07763
1.13826
1.51722
2.19283
4.76335
10.9085
11.5092
11.3321
11.3114
11.4134
11.6273
11.7686
11.8715
11.9356
12.0092
1
1.00002
1.00005
1.00011
1.00032
1.00066
1.00191
1.00382
1.01161
1.0216
1.07548
1.13301
1.50239
2.15155
4.65176
10.6869
11.4977
11.3078
11.2725
11.3737
11.5894
11.7342
11.8399
11.9061
11.9807
1
1.00001
1.00005
1.0001
1.0003
1.00062
1.0018
1.00361
1.01102
1.02036
1.07213
1.12518
1.48195
2.08228
4.48876
10.3285
11.4919
11.2741
11.2081
11.3066
11.5222
11.6722
11.7802
11.8469
11.925
1
1.00001
1.00004
1.0001
1.00028
1.00057
1.00165
1.00328
1.01024
1.01847
1.06773
1.11484
1.45386
1.99408
4.26608
9.82103
11.4973
11.2368
11.1238
11.217
11.4302
11.5859
11.6947
11.7601
11.8424
1
1.00001
1.00004
1.00009
1.00025
1.00052
1.00151
1.00297
1.00935
1.0165
1.06224
1.10231
1.41867
1.88431
3.98634
9.13433
11.5241
11.2056
11.0233
11.1072
11.3104
11.4676
11.5726
11.6328
11.7179
1
1.00001
1.00004
1.00008
1.00023
1.00048
1.00138
1.00275
1.0084
1.01535
1.05518
1.09264
1.37082
1.7779
3.62939
8.25618
11.5875
11.1975
10.9134
10.9811
11.1604
11.3094
11.3997
11.4449
11.5236
1
1.00001
1.00003
1.00007
1.00021
1.00043
1.00123
1.0025
1.0074
1.01426
1.0473
1.08309
1.31596
1.66709
3.22419
7.19688
11.6665
11.2092
10.7999
10.8397
10.972
11.0984
11.1583
11.1716
11.218
1
1.00001
1.00003
1.00006
1.00018
1.00038
1.00108
1.00219
1.00638
1.01265
1.03954
1.07302
1.25851
1.55036
2.79447
5.97887
11.6386
11.1898
10.6752
10.672
10.738
10.8186
10.8166
10.7647
10.7071
1
1.00001
1.00003
1.00005
1.00016
1.00032
1.00092
1.00187
1.00547
1.01073
1.03414
1.06096
1.22515
1.44327
2.54679
5.05739
11.2883
11.0343
10.5437
10.4469
10.4659
10.4581
10.3792
10.1619
9.79228
1
1.00002
1.00005
1.00012
1.00034
1.0007
1.00201
1.00406
1.01219
1.02297
1.07875
1.14063
1.52481
2.21081
4.8158
11.0035
11.5138
11.3401
11.3234
11.425
11.6369
11.7759
11.8754
11.9358
12.007
1
1.00002
1.00005
1.00011
1.00033
1.00068
1.00198
1.00398
1.01199
1.02255
1.07763
1.13826
1.51722
2.19282
4.76334
10.9085
11.5092
11.3321
11.3114
11.4134
11.6273
11.7686
11.8715
11.9356
12.0092
1
1.00002
1.00005
1.00011
1.00032
1.00066
1.00191
1.00382
1.01161
1.0216
1.07548
1.13301
1.50239
2.15154
4.65175
10.6869
11.4977
11.3078
11.2725
11.3737
11.5894
11.7342
11.84
11.9061
11.9807
1
1.00001
1.00005
1.0001
1.0003
1.00062
1.0018
1.00361
1.01102
1.02036
1.07213
1.12518
1.48195
2.08228
4.48875
10.3285
11.4919
11.2741
11.2081
11.3066
11.5222
11.6722
11.7802
11.8469
11.925
1
1.00001
1.00004
1.0001
1.00028
1.00057
1.00165
1.00328
1.01024
1.01847
1.06773
1.11484
1.45386
1.99408
4.26607
9.82101
11.4973
11.2368
11.1238
11.217
11.4302
11.5859
11.6947
11.7601
11.8424
1
1.00001
1.00004
1.00009
1.00025
1.00052
1.00151
1.00297
1.00935
1.0165
1.06224
1.10231
1.41867
1.8843
3.98633
9.1343
11.5241
11.2056
11.0233
11.1072
11.3104
11.4676
11.5726
11.6328
11.7179
1
1.00001
1.00004
1.00008
1.00023
1.00048
1.00138
1.00275
1.0084
1.01535
1.05518
1.09264
1.37081
1.77789
3.62938
8.25615
11.5875
11.1975
10.9134
10.9811
11.1604
11.3094
11.3997
11.4449
11.5236
1
1.00001
1.00003
1.00007
1.00021
1.00043
1.00123
1.0025
1.0074
1.01426
1.0473
1.08309
1.31596
1.66709
3.22418
7.19685
11.6665
11.2092
10.7999
10.8397
10.972
11.0984
11.1583
11.1716
11.2181
1
1.00001
1.00003
1.00006
1.00018
1.00038
1.00108
1.00219
1.00638
1.01265
1.03954
1.07302
1.25851
1.55036
2.79446
5.97884
11.6386
11.1898
10.6752
10.672
10.738
10.8186
10.8166
10.7647
10.7071
1
1.00001
1.00003
1.00005
1.00016
1.00032
1.00092
1.00187
1.00547
1.01073
1.03414
1.06096
1.22515
1.44327
2.54679
5.05737
11.2882
11.0343
10.5437
10.4469
10.4659
10.4581
10.3792
10.1619
9.79228
1
1.00002
1.00005
1.00012
1.00034
1.0007
1.00201
1.00406
1.01219
1.02297
1.07875
1.14062
1.52481
2.2108
4.81576
11.0035
11.5138
11.3401
11.3234
11.425
11.637
11.7759
11.8754
11.9358
12.007
1
1.00002
1.00005
1.00011
1.00033
1.00068
1.00198
1.00398
1.01199
1.02255
1.07763
1.13826
1.51721
2.19281
4.76329
10.9084
11.5092
11.3321
11.3114
11.4134
11.6273
11.7686
11.8715
11.9356
12.0092
1
1.00002
1.00005
1.00011
1.00032
1.00066
1.00191
1.00382
1.01161
1.0216
1.07548
1.13301
1.50238
2.15152
4.65171
10.6868
11.4977
11.3078
11.2725
11.3737
11.5894
11.7343
11.84
11.9061
11.9807
1
1.00001
1.00005
1.0001
1.0003
1.00062
1.0018
1.00361
1.01102
1.02036
1.07213
1.12517
1.48194
2.08226
4.48871
10.3284
11.4919
11.2741
11.2082
11.3066
11.5222
11.6723
11.7802
11.8469
11.925
1
1.00001
1.00004
1.0001
1.00028
1.00057
1.00165
1.00328
1.01024
1.01847
1.06773
1.11484
1.45385
1.99406
4.26602
9.82092
11.4974
11.2368
11.1238
11.217
11.4302
11.5859
11.6947
11.7601
11.8424
1
1.00001
1.00004
1.00009
1.00025
1.00052
1.00151
1.00297
1.00935
1.0165
1.06224
1.10231
1.41866
1.88429
3.98628
9.1342
11.5242
11.2056
11.0233
11.1072
11.3104
11.4676
11.5726
11.6328
11.7179
1
1.00001
1.00004
1.00008
1.00023
1.00048
1.00138
1.00275
1.0084
1.01535
1.05518
1.09264
1.37081
1.77788
3.62933
8.25604
11.5876
11.1975
10.9134
10.9811
11.1604
11.3095
11.3997
11.4449
11.5236
1
1.00001
1.00003
1.00007
1.00021
1.00043
1.00123
1.0025
1.0074
1.01426
1.0473
1.08309
1.31595
1.66708
3.22413
7.19671
11.6665
11.2093
10.7999
10.8397
10.972
11.0985
11.1583
11.1716
11.2181
1
1.00001
1.00003
1.00006
1.00018
1.00038
1.00108
1.00219
1.00638
1.01265
1.03954
1.07302
1.25851
1.55034
2.79441
5.97868
11.6387
11.1899
10.6752
10.672
10.738
10.8186
10.8166
10.7647
10.7071
1
1.00001
1.00003
1.00005
1.00016
1.00032
1.00092
1.00187
1.00547
1.01073
1.03414
1.06096
1.22514
1.44326
2.54677
5.0573
11.2882
11.0343
10.5437
10.4469
10.4659
10.4581
10.3792
10.1619
9.79229
1
1.00001
1.00005
1.00011
1.00033
1.00069
1.00201
1.00405
1.01217
1.02294
1.07873
1.14054
1.52469
2.21042
4.81482
11.0019
11.5142
11.3403
11.3234
11.425
11.6371
11.7761
11.8756
11.936
12.0072
1
1.00001
1.00005
1.00011
1.00033
1.00068
1.00197
1.00397
1.01198
1.02252
1.0776
1.13817
1.51709
2.19243
4.76235
10.9068
11.5096
11.3323
11.3114
11.4135
11.6275
11.7688
11.8717
11.9359
12.0095
1
1.00001
1.00005
1.00011
1.00032
1.00065
1.0019
1.00381
1.01159
1.02157
1.07546
1.13291
1.50228
2.15107
4.65081
10.6851
11.4982
11.3081
11.2725
11.3738
11.5896
11.7345
11.8402
11.9064
11.981
1
1.00001
1.00004
1.0001
1.0003
1.00061
1.0018
1.0036
1.01101
1.02033
1.07211
1.12508
1.48182
2.08181
4.48772
10.3264
11.4925
11.2744
11.2082
11.3067
11.5224
11.6725
11.7805
11.8472
11.9253
1
1.00001
1.00004
1.00009
1.00027
1.00056
1.00165
1.00326
1.01023
1.01844
1.06771
1.11474
1.45374
1.99356
4.26498
9.81862
11.4981
11.2371
11.1239
11.2171
11.4305
11.5862
11.6949
11.7604
11.8427
1
1.00001
1.00004
1.00008
1.00025
1.00051
1.0015
1.00296
1.00934
1.01648
1.0622
1.10225
1.41848
1.88386
3.98509
9.13163
11.5251
11.206
11.0234
11.1073
11.3107
11.4679
11.5729
11.6331
11.7182
1
1.00001
1.00003
1.00007
1.00023
1.00047
1.00137
1.00273
1.00839
1.01532
1.05515
1.09255
1.37066
1.77739
3.62818
8.25315
11.5888
11.1981
10.9136
10.9813
11.1607
11.3098
11.4
11.4452
11.5239
1
1.00001
1.00003
1.00007
1.0002
1.00042
1.00123
1.00249
1.00738
1.01424
1.04727
1.08303
1.31578
1.66666
3.2229
7.1933
11.6678
11.21
10.8002
10.84
10.9723
11.0988
11.1586
11.1719
11.2183
1
1.00001
1.00003
1.00006
1.00018
1.00037
1.00107
1.00218
1.00637
1.01263
1.03951
1.07296
1.25837
1.54986
2.79313
5.97461
11.6396
11.1905
10.6755
10.6723
10.7383
10.8189
10.8169
10.7649
10.7073
1
1
1.00002
1.00005
1.00015
1.00032
1.00092
1.00186
1.00546
1.01071
1.03412
1.06092
1.22505
1.44301
2.54633
5.05553
11.2878
11.0345
10.5443
10.4472
10.4662
10.4584
10.3794
10.1621
9.79241
1
1
1.00001
1.00005
1.0001
1.00031
1.00064
1.00189
1.00369
1.01175
1.02076
1.07709
1.13207
1.50912
2.15421
4.61448
10.3474
10.669
10.4334
10.2142
10.1604
10.05
9.79214
9.18991
7.63116
1
1
1.00001
1.00004
1.00009
1.00027
1.00056
1.00162
1.00319
1.01001
1.0177
1.06609
1.10948
1.43918
1.93662
4.08377
9.13024
10.4341
10.2749
9.9754
9.83203
9.6297
9.21621
8.38736
6.74609
1
1
1.00001
1.00003
1.00008
1.00023
1.00047
1.00138
1.00276
1.00841
1.01538
1.0548
1.09194
1.36428
1.75594
3.52964
7.7658
10.2909
10.1248
9.75967
9.51748
9.23482
8.72643
7.86349
6.51575
0.999998
1
1.00001
1.00003
1.00006
1.00019
1.0004
1.00115
1.00233
1.00686
1.0132
1.04357
1.07601
1.28787
1.59419
2.96559
6.2685
10.1355
9.98357
9.59405
9.2449
8.89279
8.36693
7.5644
6.47369
0.999997
0.999999
1
1.00002
1.00005
1.00015
1.00031
1.00091
1.00186
1.00539
1.01072
1.03311
1.06097
1.21385
1.42946
2.43919
4.64128
9.76638
9.74016
9.48758
9.02854
8.61438
8.10036
7.37648
6.46188
0.999995
0.999996
1
1.00001
1.00004
1.00009
1.00028
1.00057
1.00167
1.00326
1.01037
1.01816
1.06755
1.11379
1.44246
1.95507
4.01704
8.64671
9.43747
9.26383
8.85433
8.39198
7.88795
7.23776
6.44815
0.999994
0.999995
0.999999
1.00001
1.00003
1.00007
1.00022
1.00047
1.00134
1.00271
1.00805
1.01515
1.05141
1.08812
1.3391
1.69414
3.29939
6.98138
9.15939
9.05085
8.72068
8.22217
7.71857
7.12834
6.43713
0.999993
0.999994
0.999997
1
1.00002
1.00005
1.00017
1.00035
1.00101
1.00205
1.00598
1.01155
1.03757
1.06534
1.24519
1.4877
2.61936
5.16863
8.85442
8.85569
8.6363
8.14252
7.59654
7.03968
6.42177
0.999993
0.999993
0.999995
1
1.00001
1.00005
1.0001
1.00031
1.00064
1.00184
1.00374
1.01095
1.02153
1.06817
1.1293
1.44067
2.00733
3.91836
8.05065
8.64789
8.48464
8.06985
7.50384
6.96691
6.40673
0.999992
0.999993
0.999994
0.999998
1.00001
1.00003
1.00007
1.00023
1.00047
1.00136
1.00275
1.00799
1.01562
1.04967
1.08954
1.32109
1.67986
3.13253
6.42303
8.36774
8.28915
8.0029
7.44773
6.91973
6.3994
0.999992
0.999992
0.999993
0.999995
1
1.00002
1.00006
1.00014
1.0004
1.00082
1.00235
1.00475
1.01386
1.02726
1.08487
1.16711
1.54555
2.27827
4.54593
7.939
8.09344
7.91011
7.45578
6.91463
6.40187
0.999991
0.999992
0.999992
0.999994
1
1.00001
1.00004
1.00009
1.00028
1.00058
1.00166
1.00337
1.00969
1.01924
1.05897
1.11203
1.37426
1.84134
3.43866
6.91643
7.88425
7.77366
7.44518
6.92582
6.41103
0.999991
0.999991
0.999992
0.999993
0.999996
1.00001
1.00002
1.00007
1.00016
1.00047
1.00097
1.00277
1.00558
1.01638
1.03119
1.10243
1.19081
1.66061
2.51571
5.15499
7.53301
7.54816
7.39133
6.97768
6.43538
0.999991
0.999991
0.999991
0.999992
0.999994
1
1.00001
1.00005
1.00011
1.00032
1.00067
1.0019
1.00386
1.01103
1.0223
1.06506
1.13574
1.40458
1.93231
3.53288
6.75014
7.39437
7.29247
6.99082
6.48879
0.999991
0.999991
0.999991
0.999991
0.999993
0.999996
1.00001
1.00002
1.00008
1.00018
1.00051
1.00104
1.00295
1.00584
1.01759
1.03199
1.11092
1.19764
1.70512
2.57181
5.21165
7.09352
7.09555
6.96103
6.60701
0.999991
0.999991
0.999991
0.999991
0.999992
0.999994
1
1.00001
1.00005
1.00011
1.00033
1.00069
1.00196
1.00398
1.0113
1.02287
1.06613
1.13843
1.40616
1.9309
3.45029
6.40974
6.96374
6.88891
6.64821
0.999991
0.99999
0.999991
0.999991
0.999991
0.999993
0.999996
1.00001
1.00002
1.00008
1.00018
1.0005
1.00103
1.00291
1.00577
1.01732
1.03147
1.10846
1.19282
1.68278
2.50227
4.97193
6.67316
6.73419
6.62053
0.999991
0.99999
0.99999
0.999991
0.999991
0.999992
0.999994
1
1.00001
1.00005
1.00011
1.00032
1.00067
1.00188
1.00382
1.0108
1.02189
1.0628
1.13149
1.38138
1.86698
3.25505
5.96956
6.58341
6.53848
0.999991
0.99999
0.99999
0.99999
0.999991
0.999991
0.999993
0.999996
1.00001
1.00002
1.00007
1.00016
1.00047
1.00096
1.00271
1.00545
1.01582
1.03002
1.09746
1.17952
1.60631
2.33464
4.51437
6.23426
6.39889
0.999991
0.99999
0.99999
0.99999
0.99999
0.999991
0.999992
0.999994
0.999998
1.00001
1.00003
1.00011
1.00024
1.00067
1.00138
1.00388
1.00774
1.02285
1.04248
1.14048
1.26401
1.84386
2.87801
5.44092
6.21788
0.999991
0.99999
0.99999
0.99999
0.99999
0.999991
0.999991
0.999993
0.999995
1
1.00002
1.00006
1.00014
1.0004
1.00083
1.00232
1.0047
1.01335
1.02644
1.07954
1.1551
1.48587
2.07466
3.75641
5.75866
0.999991
0.99999
0.99999
0.99999
0.99999
0.99999
0.999991
0.999991
0.999993
0.999997
1.00001
1.00003
1.00009
1.00019
1.00055
1.00113
1.00316
1.00626
1.01866
1.03411
1.11463
1.20779
1.69388
2.50723
4.71642
0.999991
0.99999
0.99999
0.99999
0.99999
0.99999
0.999991
0.999991
0.999992
0.999994
1
1.00001
1.00005
1.00011
1.00032
1.00067
1.00187
1.00379
1.01059
1.02133
1.06082
1.12549
1.35814
1.79902
2.96783
0.999991
0.99999
0.99999
0.99999
0.99999
0.99999
0.99999
0.999991
0.999991
0.999992
0.999996
1
1.00002
1.00006
1.00018
1.00038
1.00105
1.00215
1.00599
1.01198
1.03472
1.06729
1.20689
1.42707
2.21626
0.999991
0.99999
0.99999
0.99999
0.99999
0.99999
0.99999
0.99999
0.999991
0.999991
0.999994
0.999997
1.00001
1.00003
1.0001
1.00021
1.00058
1.0012
1.00331
1.0067
1.01891
1.03687
1.11328
1.21485
1.67325
0.999991
0.99999
0.99999
0.99999
0.99999
0.99999
0.99999
0.99999
0.99999
0.999991
0.999992
0.999995
0.999999
1.00001
1.00004
1.00013
1.00027
1.00074
1.00152
1.00421
1.00851
1.02383
1.0484
1.13674
1.29375
0.999991
0.99999
0.99999
0.99999
0.99999
0.99999
0.99999
0.99999
0.99999
0.999991
0.999991
0.999992
0.999996
1
1.00002
1.00005
1.00016
1.00034
1.00095
1.00194
1.00538
1.0109
1.03055
1.06268
1.17662
0.999991
0.99999
0.99999
0.99999
0.99999
0.99999
0.99999
0.99999
0.99999
0.99999
0.999991
0.999991
0.999993
0.999997
1
1.00003
1.00007
1.00021
1.00044
1.00121
1.00246
1.00686
1.01387
1.03901
1.08085
0.999991
0.99999
0.99999
0.99999
0.99999
0.99999
0.99999
0.99999
0.99999
0.99999
0.99999
0.999991
0.999992
0.999994
0.999998
1.00001
1.00003
1.00011
1.00023
1.00063
1.00129
1.00354
1.00717
1.01995
1.0398
0.999991
0.99999
0.99999
0.99999
0.99999
0.99999
0.99999
0.99999
0.99999
0.99999
0.99999
0.99999
0.999991
0.999992
0.999995
0.999999
1.00001
1.00004
1.00013
1.00027
1.00075
1.00152
1.00417
1.00843
1.02327
0.999991
0.99999
0.99999
0.99999
0.99999
0.99999
0.99999
0.99999
0.99999
0.99999
0.99999
0.99999
0.999991
0.999991
0.999992
0.999996
1
1.00002
1.00005
1.00015
1.00032
1.00089
1.00182
1.00499
1.01008
0.999991
0.99999
0.99999
0.99999
0.99999
0.99999
0.99999
0.99999
0.99999
0.99999
0.99999
0.99999
0.99999
0.999991
0.999991
0.999993
0.999997
1
1.00003
1.00006
1.00018
1.00038
1.00106
1.00215
1.00593
0.999991
0.99999
0.99999
0.99999
0.99999
0.99999
0.99999
0.99999
0.99999
0.99999
0.99999
0.99999
0.99999
0.99999
0.999991
0.999991
0.999993
0.999997
1.00001
1.00003
1.00009
1.00019
1.00052
1.00107
1.00292
0.999991
0.99999
0.99999
0.99999
0.99999
0.99999
0.99999
0.99999
0.99999
0.99999
0.99999
0.99999
0.99999
0.99999
0.99999
0.999991
0.999992
0.999994
0.999998
1.00001
1.00003
1.0001
1.00021
1.00059
1.00121
0.999991
0.99999
0.99999
0.99999
0.99999
0.99999
0.99999
0.99999
0.99999
0.99999
0.99999
0.99999
0.99999
0.99999
0.99999
0.99999
0.999991
0.999992
0.999994
0.999999
1.00001
1.00004
1.00011
1.00024
1.00066
0.999991
0.99999
0.99999
0.99999
0.99999
0.99999
0.99999
0.99999
0.99999
0.99999
0.99999
0.99999
0.99999
0.99999
0.99999
0.99999
0.999991
0.999991
0.999992
0.999995
0.999999
1.00001
1.00004
1.00013
1.00026
0.999991
0.99999
0.99999
0.99999
0.99999
0.99999
0.99999
0.99999
0.99999
0.99999
0.99999
0.99999
0.99999
0.99999
0.99999
0.99999
0.99999
0.999991
0.999991
0.999992
0.999995
1
1.00002
1.00005
1.00014
0.999991
0.99999
0.99999
0.99999
0.99999
0.99999
0.99999
0.99999
0.99999
0.99999
0.99999
0.99999
0.99999
0.99999
0.99999
0.99999
0.99999
0.99999
0.999991
0.999991
0.999993
0.999995
1
1.00002
1.00006
0.999991
0.99999
0.99999
0.99999
0.99999
0.99999
0.99999
0.99999
0.99999
0.99999
0.99999
0.99999
0.99999
0.99999
0.99999
0.99999
0.99999
0.99999
0.99999
0.999991
0.999991
0.999993
0.999996
1
1.00002
0.999991
0.99999
0.99999
0.99999
0.99999
0.99999
0.99999
0.99999
0.99999
0.99999
0.99999
0.99999
0.99999
0.99999
0.99999
0.99999
0.99999
0.99999
0.99999
0.999991
0.999991
0.999992
0.999993
0.999999
1.00001
1
1.00001
1.00002
1.00005
1.00011
1.00032
1.00065
1.00189
1.00371
1.01177
1.02079
1.07713
1.13215
1.50927
2.15481
4.61564
10.3495
10.669
10.4331
10.214
10.1601
10.0497
9.79191
9.18973
7.63108
1
1.00001
1.00002
1.00005
1.0001
1.00028
1.00056
1.00163
1.0032
1.01003
1.01772
1.06613
1.10956
1.43929
1.9371
4.08466
9.1324
10.4337
10.2745
9.97511
9.83175
9.62943
9.21597
8.38719
6.74603
1
1.00001
1.00001
1.00004
1.00008
1.00024
1.00048
1.00139
1.00277
1.00842
1.0154
1.05483
1.092
1.36441
1.75625
3.53052
7.7679
10.2904
10.1244
9.75934
9.51718
9.23454
8.72619
7.86333
6.51568
1
1
1.00001
1.00003
1.00007
1.0002
1.0004
1.00116
1.00234
1.00687
1.01322
1.04359
1.07607
1.28796
1.59452
2.96634
6.27072
10.1351
9.98318
9.59366
9.24461
8.89251
8.3667
7.56423
6.4736
1
1
1.00001
1.00003
1.00006
1.00016
1.00032
1.00092
1.00187
1.0054
1.01074
1.03313
1.061
1.21392
1.42968
2.4395
4.64261
9.76689
9.74001
9.48732
9.02829
8.61415
8.10014
7.37631
6.46176
1
1
1.00001
1.00002
1.00005
1.0001
1.00029
1.00058
1.00168
1.00327
1.01039
1.01818
1.06759
1.11386
1.44255
1.95555
4.01777
8.64856
9.43749
9.26375
8.85408
8.39177
7.88775
7.23759
6.44802
1
1
1.00001
1.00001
1.00004
1.00008
1.00023
1.00048
1.00135
1.00272
1.00806
1.01517
1.05143
1.08817
1.33922
1.69441
3.3002
6.98333
9.15928
9.05068
8.72047
8.22198
7.71839
7.12818
6.437
1
1
1
1.00001
1.00003
1.00006
1.00018
1.00036
1.00102
1.00206
1.006
1.01157
1.0376
1.06538
1.2453
1.48795
2.62009
5.17075
8.85443
8.85543
8.63605
8.14233
7.59636
7.03953
6.42164
1
1
1
1.00001
1.00002
1.00006
1.00011
1.00032
1.00065
1.00185
1.00376
1.01097
1.02156
1.06819
1.1294
1.44079
2.00773
3.9191
8.05132
8.64782
8.48454
8.06973
7.50369
6.96677
6.40661
1
1
1
1.00001
1.00001
1.00004
1.00008
1.00024
1.00048
1.00137
1.00276
1.00801
1.01563
1.0497
1.0896
1.32118
1.68015
3.13321
6.42468
8.36781
8.28914
8.00277
7.44759
6.91959
6.39928
1
1
1
1
1.00001
1.00003
1.00007
1.00015
1.00041
1.00083
1.00236
1.00476
1.01387
1.02728
1.08491
1.16718
1.54579
2.27886
4.54768
7.93934
8.09336
7.91001