/*--------------------------------*- C++ -*----------------------------------*\
| =========                 |                                                 |
| \\      /  F ield         | OpenFOAM: The Open Source CFD Toolbox           |
|  \\    /   O peration     | Version:  4.1                                   |
|   \\  /    A nd           | Web:      www.OpenFOAM.org                      |
|    \\/     M anipulation  |                                                 |
\*---------------------------------------------------------------------------*/
FoamFile
{
    version     2.0;
    format      ascii;
    class       volScalarField;
    location    "2.34";
    object      p;
}
// * * * * * * * * * * * * * * * * * * * * * * * * * * * * * * * * * * * * * //

dimensions      [1 -1 -2 0 0 0 0];

internalField   nonuniform List<scalar> 
52500
(
1.00001
1.00003
1.0001
1.00022
1.00063
1.00129
1.0037
1.00727
1.02255
1.0402
1.14707
1.25792
2.00241
3.33688
8.04084
11.6298
11.2203
10.9675
11.0495
11.2769
11.5025
11.6343
11.7336
11.8111
11.8671
1.00001
1.00003
1.0001
1.00021
1.00062
1.00127
1.00365
1.00718
1.02222
1.03964
1.14486
1.254
1.98515
3.29688
7.93251
11.639
11.2174
10.9566
11.0398
11.2682
11.4939
11.6265
11.7279
11.8077
11.8661
1.00001
1.00003
1.00009
1.00021
1.0006
1.00123
1.00354
1.00698
1.02154
1.03854
1.14027
1.24594
1.94845
3.21072
7.68912
11.6567
11.2078
10.9242
11.0061
11.2325
11.4569
11.5892
11.6917
11.7729
11.8333
1.00001
1.00003
1.00009
1.0002
1.00058
1.00118
1.00339
1.00669
1.02053
1.03688
1.13335
1.23388
1.89329
3.0808
7.31122
11.684
11.1959
10.8715
10.9488
11.1689
11.3916
11.5225
11.6245
11.7067
11.7708
1.00001
1.00002
1.00009
1.00019
1.00055
1.00113
1.00323
1.00648
1.01918
1.03612
1.12207
1.22176
1.81771
2.91348
6.80672
11.7085
11.1835
10.8027
10.8721
11.081
11.3013
11.4284
11.5276
11.6099
11.6788
1
1.00002
1.00008
1.00018
1.00051
1.00106
1.003
1.00606
1.01764
1.03435
1.11
1.20608
1.73329
2.71955
6.19796
11.6918
11.1586
10.7178
10.7755
10.9651
11.1804
11.3007
11.3924
11.4705
11.5441
1
1.00002
1.00007
1.00016
1.00047
1.00097
1.00276
1.00557
1.01611
1.03175
1.09872
1.19053
1.64895
2.52537
5.57646
11.5479
11.085
10.6161
10.6602
10.8209
11.0221
11.128
11.2043
11.2692
11.3402
1
1.00002
1.00007
1.00015
1.00043
1.00088
1.0025
1.00505
1.01459
1.02878
1.08941
1.17163
1.58479
2.36876
5.1421
11.1169
10.8959
10.5033
10.5272
10.644
10.819
10.9016
10.9476
10.9787
11.027
1
1.00002
1.00006
1.00013
1.00038
1.00077
1.0022
1.00444
1.01298
1.02478
1.08142
1.14685
1.5295
2.20731
4.71823
10.4121
10.6085
10.4318
10.3845
10.4432
10.5681
10.6128
10.6057
10.5611
10.513
1
1.00001
1.00005
1.00011
1.00031
1.00064
1.00186
1.00361
1.01138
1.01976
1.07315
1.12209
1.47623
2.03735
4.28777
9.53919
10.4551
10.336
10.2087
10.2274
10.2764
10.2604
10.173
9.95923
9.60701
1.00001
1.00003
1.0001
1.00022
1.00063
1.00129
1.00371
1.00728
1.02256
1.04022
1.1471
1.25798
2.00247
3.33712
8.04127
11.6296
11.2203
10.9675
11.0496
11.2769
11.5026
11.6344
11.7337
11.8112
11.8672
1.00001
1.00003
1.0001
1.00022
1.00063
1.00128
1.00365
1.00719
1.02223
1.03966
1.14489
1.25405
1.98521
3.29712
7.93294
11.6388
11.2174
10.9567
11.0398
11.2682
11.4939
11.6266
11.728
11.8077
11.8661
1.00001
1.00003
1.0001
1.00021
1.00061
1.00124
1.00355
1.00699
1.02155
1.03856
1.1403
1.24599
1.9485
3.21094
7.68954
11.6566
11.2078
10.9243
11.0061
11.2326
11.457
11.5893
11.6917
11.773
11.8334
1.00001
1.00003
1.00009
1.0002
1.00058
1.00119
1.0034
1.00671
1.02054
1.0369
1.13337
1.23394
1.89331
3.08099
7.31157
11.684
11.1959
10.8715
10.9488
11.169
11.3916
11.5226
11.6245
11.7067
11.7708
1.00001
1.00003
1.00009
1.0002
1.00056
1.00114
1.00323
1.00649
1.01919
1.03614
1.12207
1.22183
1.81772
2.91364
6.80703
11.7085
11.1835
10.8028
10.8722
11.0811
11.3013
11.4285
11.5277
11.6099
11.6788
1.00001
1.00003
1.00008
1.00018
1.00052
1.00106
1.00301
1.00607
1.01765
1.03437
1.11001
1.20613
1.73332
2.7197
6.19828
11.6918
11.1587
10.7179
10.7756
10.9651
11.1805
11.3007
11.3924
11.4706
11.5441
1.00001
1.00002
1.00008
1.00017
1.00048
1.00098
1.00276
1.00558
1.01612
1.03176
1.09874
1.19057
1.64898
2.52549
5.57666
11.5481
11.0851
10.6162
10.6603
10.821
11.0221
11.128
11.2043
11.2692
11.3402
1
1.00002
1.00007
1.00015
1.00043
1.00089
1.0025
1.00506
1.0146
1.02879
1.08942
1.17167
1.58481
2.36887
5.14229
11.1171
10.896
10.5034
10.5272
10.644
10.8191
10.9016
10.9476
10.9788
11.027
1
1.00002
1.00006
1.00013
1.00038
1.00078
1.00221
1.00445
1.01299
1.0248
1.08142
1.14691
1.52949
2.20742
4.71836
10.4124
10.6086
10.4319
10.3846
10.4433
10.5682
10.6129
10.6057
10.5612
10.513
1
1.00002
1.00005
1.00011
1.00032
1.00065
1.00187
1.00362
1.01139
1.01977
1.07316
1.12212
1.47624
2.03747
4.28788
9.53949
10.4552
10.336
10.2088
10.2275
10.2764
10.2605
10.1731
9.95927
9.60705
1.00001
1.00003
1.0001
1.00022
1.00063
1.00129
1.00371
1.00728
1.02256
1.04022
1.1471
1.25798
2.00247
3.33713
8.0413
11.6296
11.2203
10.9675
11.0496
11.277
11.5026
11.6344
11.7337
11.8112
11.8672
1.00001
1.00003
1.0001
1.00022
1.00063
1.00128
1.00365
1.00719
1.02223
1.03966
1.14489
1.25405
1.98522
3.29713
7.93296
11.6388
11.2174
10.9567
11.0398
11.2682
11.4939
11.6266
11.728
11.8077
11.8661
1.00001
1.00003
1.0001
1.00021
1.00061
1.00124
1.00355
1.00699
1.02155
1.03856
1.1403
1.24599
1.94851
3.21095
7.68957
11.6566
11.2078
10.9243
11.0061
11.2326
11.457
11.5893
11.6917
11.773
11.8334
1.00001
1.00003
1.00009
1.0002
1.00058
1.00119
1.0034
1.00671
1.02054
1.0369
1.13337
1.23394
1.89332
3.081
7.31159
11.684
11.1959
10.8715
10.9488
11.169
11.3916
11.5226
11.6245
11.7067
11.7708
1.00001
1.00003
1.00009
1.0002
1.00056
1.00114
1.00323
1.00649
1.01919
1.03614
1.12207
1.22183
1.81772
2.91365
6.80705
11.7085
11.1835
10.8028
10.8722
11.0811
11.3013
11.4285
11.5277
11.6099
11.6788
1.00001
1.00003
1.00008
1.00018
1.00052
1.00106
1.00301
1.00607
1.01765
1.03437
1.11001
1.20613
1.73332
2.71971
6.1983
11.6918
11.1587
10.7179
10.7756
10.9651
11.1805
11.3007
11.3924
11.4706
11.5441
1.00001
1.00002
1.00008
1.00017
1.00048
1.00098
1.00276
1.00558
1.01612
1.03176
1.09874
1.19057
1.64898
2.52549
5.57667
11.5481
11.0851
10.6162
10.6603
10.821
11.0221
11.128
11.2043
11.2692
11.3402
1
1.00002
1.00007
1.00015
1.00043
1.00089
1.0025
1.00506
1.0146
1.02879
1.08942
1.17167
1.58481
2.36887
5.1423
11.1171
10.896
10.5034
10.5272
10.644
10.8191
10.9016
10.9476
10.9788
11.027
1
1.00002
1.00006
1.00013
1.00038
1.00078
1.00221
1.00445
1.01299
1.0248
1.08142
1.14691
1.52949
2.20742
4.71837
10.4124
10.6086
10.4319
10.3846
10.4433
10.5682
10.6129
10.6057
10.5612
10.513
1
1.00002
1.00005
1.00011
1.00032
1.00065
1.00187
1.00362
1.01139
1.01977
1.07316
1.12213
1.47624
2.03747
4.28789
9.5395
10.4552
10.336
10.2088
10.2275
10.2764
10.2605
10.1731
9.95927
9.60705
1.00001
1.00003
1.0001
1.00022
1.00063
1.00129
1.00371
1.00728
1.02256
1.04022
1.1471
1.25798
2.00247
3.33713
8.0413
11.6296
11.2203
10.9675
11.0496
11.277
11.5026
11.6344
11.7337
11.8112
11.8672
1.00001
1.00003
1.0001
1.00022
1.00063
1.00128
1.00365
1.00719
1.02223
1.03966
1.14489
1.25405
1.98522
3.29713
7.93297
11.6388
11.2174
10.9567
11.0398
11.2682
11.4939
11.6266
11.728
11.8077
11.8661
1.00001
1.00003
1.0001
1.00021
1.00061
1.00124
1.00355
1.00699
1.02155
1.03856
1.1403
1.24599
1.94851
3.21095
7.68957
11.6566
11.2078
10.9243
11.0061
11.2326
11.457
11.5893
11.6917
11.773
11.8334
1.00001
1.00003
1.00009
1.0002
1.00058
1.00119
1.0034
1.00671
1.02054
1.0369
1.13337
1.23394
1.89332
3.081
7.3116
11.6839
11.1959
10.8715
10.9488
11.169
11.3916
11.5226
11.6245
11.7067
11.7708
1.00001
1.00003
1.00009
1.0002
1.00056
1.00114
1.00323
1.00649
1.01919
1.03614
1.12207
1.22183
1.81772
2.91365
6.80706
11.7085
11.1835
10.8028
10.8722
11.0811
11.3013
11.4285
11.5277
11.6099
11.6788
1.00001
1.00003
1.00008
1.00018
1.00052
1.00106
1.00301
1.00607
1.01765
1.03437
1.11001
1.20613
1.73332
2.71971
6.1983
11.6918
11.1587
10.7179
10.7756
10.9651
11.1805
11.3007
11.3924
11.4706
11.5441
1.00001
1.00002
1.00008
1.00017
1.00048
1.00098
1.00276
1.00558
1.01612
1.03176
1.09874
1.19057
1.64898
2.52549
5.57667
11.5481
11.0851
10.6162
10.6603
10.821
11.0221
11.128
11.2043
11.2692
11.3402
1
1.00002
1.00007
1.00015
1.00043
1.00089
1.0025
1.00506
1.0146
1.02879
1.08942
1.17167
1.58481
2.36887
5.1423
11.1171
10.896
10.5034
10.5272
10.644
10.8191
10.9016
10.9476
10.9788
11.027
1
1.00002
1.00006
1.00013
1.00038
1.00078
1.00221
1.00445
1.01299
1.0248
1.08142
1.14691
1.52949
2.20742
4.71837
10.4124
10.6086
10.4319
10.3846
10.4433
10.5682
10.6129
10.6057
10.5612
10.513
1
1.00002
1.00005
1.00011
1.00032
1.00065
1.00187
1.00362
1.01139
1.01977
1.07316
1.12213
1.47624
2.03747
4.28789
9.5395
10.4552
10.336
10.2088
10.2275
10.2764
10.2605
10.1731
9.95927
9.60705
1.00001
1.00003
1.0001
1.00022
1.00063
1.00129
1.00371
1.00728
1.02256
1.04022
1.1471
1.25798
2.00248
3.33713
8.0413
11.6296
11.2203
10.9675
11.0496
11.2769
11.5026
11.6344
11.7337
11.8112
11.8672
1.00001
1.00003
1.0001
1.00022
1.00063
1.00128
1.00365
1.00719
1.02223
1.03966
1.14489
1.25405
1.98522
3.29713
7.93297
11.6388
11.2174
10.9567
11.0398
11.2682
11.4939
11.6266
11.728
11.8077
11.8661
1.00001
1.00003
1.0001
1.00021
1.00061
1.00124
1.00355
1.00699
1.02155
1.03856
1.1403
1.24599
1.94851
3.21095
7.68957
11.6566
11.2078
10.9243
11.0061
11.2326
11.457
11.5893
11.6917
11.773
11.8334
1.00001
1.00003
1.00009
1.0002
1.00058
1.00119
1.0034
1.00671
1.02054
1.0369
1.13337
1.23394
1.89332
3.081
7.3116
11.6839
11.1959
10.8715
10.9488
11.169
11.3916
11.5226
11.6245
11.7067
11.7708
1.00001
1.00003
1.00009
1.0002
1.00056
1.00114
1.00323
1.00649
1.01919
1.03614
1.12207
1.22183
1.81772
2.91365
6.80706
11.7085
11.1835
10.8028
10.8722
11.0811
11.3013
11.4285
11.5277
11.6099
11.6788
1.00001
1.00003
1.00008
1.00018
1.00052
1.00106
1.00301
1.00607
1.01765
1.03437
1.11001
1.20613
1.73332
2.71972
6.19831
11.6918
11.1587
10.7179
10.7756
10.9651
11.1805
11.3007
11.3924
11.4706
11.5441
1.00001
1.00002
1.00008
1.00017
1.00048
1.00098
1.00276
1.00558
1.01612
1.03176
1.09874
1.19057
1.64898
2.5255
5.57668
11.5481
11.0851
10.6162
10.6603
10.821
11.0221
11.128
11.2043
11.2692
11.3402
1
1.00002
1.00007
1.00015
1.00043
1.00089
1.0025
1.00506
1.0146
1.02879
1.08942
1.17167
1.58481
2.36887
5.1423
11.1171
10.896
10.5034
10.5272
10.644
10.8191
10.9016
10.9476
10.9788
11.027
1
1.00002
1.00006
1.00013
1.00038
1.00078
1.00221
1.00445
1.01299
1.0248
1.08142
1.14691
1.52949
2.20743
4.71837
10.4124
10.6086
10.4319
10.3846
10.4433
10.5682
10.6129
10.6057
10.5612
10.513
1
1.00002
1.00005
1.00011
1.00032
1.00065
1.00187
1.00362
1.01139
1.01977
1.07316
1.12213
1.47624
2.03747
4.28789
9.53951
10.4552
10.336
10.2088
10.2275
10.2764
10.2605
10.1731
9.95927
9.60705
1.00001
1.00003
1.0001
1.00022
1.00063
1.00129
1.00371
1.00728
1.02256
1.04022
1.1471
1.25798
2.00247
3.33713
8.0413
11.6296
11.2203
10.9675
11.0496
11.277
11.5026
11.6344
11.7337
11.8112
11.8672
1.00001
1.00003
1.0001
1.00022
1.00063
1.00128
1.00365
1.00719
1.02223
1.03966
1.14489
1.25405
1.98522
3.29713
7.93297
11.6388
11.2174
10.9567
11.0398
11.2682
11.4939
11.6266
11.728
11.8077
11.8661
1.00001
1.00003
1.0001
1.00021
1.00061
1.00124
1.00355
1.00699
1.02155
1.03856
1.1403
1.24599
1.94851
3.21095
7.68957
11.6566
11.2078
10.9243
11.0061
11.2326
11.457
11.5893
11.6917
11.773
11.8334
1.00001
1.00003
1.00009
1.0002
1.00058
1.00119
1.0034
1.00671
1.02054
1.0369
1.13337
1.23394
1.89332
3.081
7.3116
11.6839
11.1959
10.8715
10.9488
11.169
11.3916
11.5226
11.6245
11.7067
11.7708
1.00001
1.00003
1.00009
1.0002
1.00056
1.00114
1.00323
1.00649
1.01919
1.03614
1.12207
1.22183
1.81772
2.91365
6.80706
11.7085
11.1835
10.8028
10.8722
11.0811
11.3013
11.4285
11.5277
11.6099
11.6788
1.00001
1.00003
1.00008
1.00018
1.00052
1.00106
1.00301
1.00607
1.01765
1.03437
1.11001
1.20613
1.73332
2.71971
6.1983
11.6918
11.1587
10.7179
10.7756
10.9651
11.1805
11.3007
11.3924
11.4706
11.5441
1.00001
1.00002
1.00008
1.00017
1.00048
1.00098
1.00276
1.00558
1.01612
1.03176
1.09874
1.19057
1.64898
2.52549
5.57667
11.5481
11.0851
10.6162
10.6603
10.821
11.0221
11.128
11.2043
11.2692
11.3402
1
1.00002
1.00007
1.00015
1.00043
1.00089
1.0025
1.00506
1.0146
1.02879
1.08942
1.17167
1.58481
2.36887
5.1423
11.1171
10.896
10.5034
10.5272
10.644
10.8191
10.9016
10.9476
10.9788
11.027
1
1.00002
1.00006
1.00013
1.00038
1.00078
1.00221
1.00445
1.01299
1.0248
1.08142
1.14691
1.52949
2.20743
4.71837
10.4124
10.6086
10.4319
10.3846
10.4433
10.5682
10.6129
10.6057
10.5612
10.513
1
1.00002
1.00005
1.00011
1.00032
1.00065
1.00187
1.00362
1.01139
1.01977
1.07316
1.12213
1.47624
2.03747
4.28789
9.53951
10.4552
10.336
10.2088
10.2275
10.2764
10.2605
10.1731
9.95927
9.60705
1.00001
1.00003
1.0001
1.00022
1.00063
1.00129
1.00371
1.00728
1.02256
1.04022
1.1471
1.25798
2.00247
3.33713
8.0413
11.6296
11.2203
10.9675
11.0496
11.277
11.5026
11.6344
11.7337
11.8112
11.8672
1.00001
1.00003
1.0001
1.00022
1.00063
1.00128
1.00365
1.00719
1.02223
1.03966
1.14489
1.25405
1.98522
3.29713
7.93297
11.6388
11.2174
10.9567
11.0398
11.2682
11.4939
11.6266
11.728
11.8077
11.8661
1.00001
1.00003
1.0001
1.00021
1.00061
1.00124
1.00355
1.00699
1.02155
1.03856
1.1403
1.24599
1.94851
3.21095
7.68957
11.6566
11.2078
10.9243
11.0061
11.2326
11.457
11.5893
11.6917
11.773
11.8334
1.00001
1.00003
1.00009
1.0002
1.00058
1.00119
1.0034
1.00671
1.02054
1.0369
1.13337
1.23394
1.89332
3.081
7.3116
11.6839
11.1959
10.8715
10.9488
11.169
11.3916
11.5226
11.6245
11.7067
11.7708
1.00001
1.00003
1.00009
1.0002
1.00056
1.00114
1.00323
1.00649
1.01919
1.03614
1.12207
1.22183
1.81772
2.91365
6.80706
11.7085
11.1835
10.8028
10.8722
11.0811
11.3013
11.4285
11.5277
11.6099
11.6788
1.00001
1.00003
1.00008
1.00018
1.00052
1.00106
1.00301
1.00607
1.01765
1.03437
1.11001
1.20613
1.73332
2.71971
6.1983
11.6918
11.1587
10.7179
10.7756
10.9651
11.1805
11.3007
11.3924
11.4706
11.5441
1.00001
1.00002
1.00008
1.00017
1.00048
1.00098
1.00276
1.00558
1.01612
1.03176
1.09874
1.19057
1.64898
2.52549
5.57667
11.5481
11.0851
10.6162
10.6603
10.821
11.0221
11.128
11.2043
11.2692
11.3402
1
1.00002
1.00007
1.00015
1.00043
1.00089
1.0025
1.00506
1.0146
1.02879
1.08942
1.17167
1.58481
2.36887
5.1423
11.1171
10.896
10.5034
10.5272
10.644
10.8191
10.9016
10.9476
10.9788
11.027
1
1.00002
1.00006
1.00013
1.00038
1.00078
1.00221
1.00445
1.01299
1.0248
1.08142
1.14691
1.52949
2.20742
4.71837
10.4124
10.6086
10.4319
10.3846
10.4433
10.5682
10.6129
10.6057
10.5612
10.513
1
1.00002
1.00005
1.00011
1.00032
1.00065
1.00187
1.00362
1.01139
1.01977
1.07316
1.12213
1.47624
2.03747
4.28789
9.5395
10.4552
10.336
10.2088
10.2275
10.2764
10.2605
10.1731
9.95927
9.60705
1.00001
1.00003
1.0001
1.00022
1.00063
1.00129
1.00371
1.00728
1.02256
1.04022
1.1471
1.25798
2.00247
3.33713
8.0413
11.6296
11.2203
10.9675
11.0496
11.277
11.5026
11.6344
11.7337
11.8112
11.8672
1.00001
1.00003
1.0001
1.00022
1.00063
1.00128
1.00365
1.00719
1.02223
1.03966
1.14489
1.25405
1.98522
3.29713
7.93296
11.6388
11.2174
10.9567
11.0398
11.2682
11.4939
11.6266
11.728
11.8077
11.8661
1.00001
1.00003
1.0001
1.00021
1.00061
1.00124
1.00355
1.00699
1.02155
1.03856
1.1403
1.24599
1.94851
3.21095
7.68957
11.6566
11.2078
10.9243
11.0061
11.2326
11.457
11.5893
11.6917
11.773
11.8334
1.00001
1.00003
1.00009
1.0002
1.00058
1.00119
1.0034
1.00671
1.02054
1.0369
1.13337
1.23394
1.89332
3.081
7.31159
11.684
11.1959
10.8715
10.9488
11.169
11.3916
11.5226
11.6245
11.7067
11.7708
1.00001
1.00003
1.00009
1.0002
1.00056
1.00114
1.00323
1.00649
1.01919
1.03614
1.12207
1.22183
1.81772
2.91365
6.80705
11.7085
11.1835
10.8028
10.8722
11.0811
11.3013
11.4285
11.5277
11.6099
11.6788
1.00001
1.00003
1.00008
1.00018
1.00052
1.00106
1.00301
1.00607
1.01765
1.03437
1.11001
1.20613
1.73332
2.71971
6.1983
11.6918
11.1587
10.7179
10.7756
10.9651
11.1805
11.3007
11.3924
11.4706
11.5441
1.00001
1.00002
1.00008
1.00017
1.00048
1.00098
1.00276
1.00558
1.01612
1.03176
1.09874
1.19057
1.64898
2.52549
5.57667
11.5481
11.0851
10.6162
10.6603
10.821
11.0221
11.128
11.2043
11.2692
11.3402
1
1.00002
1.00007
1.00015
1.00043
1.00089
1.0025
1.00506
1.0146
1.02879
1.08942
1.17167
1.58481
2.36887
5.1423
11.1171
10.896
10.5034
10.5272
10.644
10.8191
10.9016
10.9476
10.9788
11.027
1
1.00002
1.00006
1.00013
1.00038
1.00078
1.00221
1.00445
1.01299
1.0248
1.08142
1.14691
1.52949
2.20742
4.71837
10.4124
10.6086
10.4319
10.3846
10.4433
10.5682
10.6129
10.6057
10.5612
10.513
1
1.00002
1.00005
1.00011
1.00032
1.00065
1.00187
1.00362
1.01139
1.01977
1.07316
1.12213
1.47624
2.03747
4.28789
9.5395
10.4552
10.336
10.2088
10.2275
10.2764
10.2605
10.1731
9.95927
9.60705
1.00001
1.00003
1.0001
1.00022
1.00063
1.00129
1.00371
1.00728
1.02256
1.04022
1.1471
1.25798
2.00247
3.33712
8.04127
11.6296
11.2203
10.9675
11.0496
11.2769
11.5026
11.6344
11.7337
11.8112
11.8672
1.00001
1.00003
1.0001
1.00022
1.00063
1.00128
1.00365
1.00719
1.02223
1.03966
1.14489
1.25405
1.98521
3.29712
7.93294
11.6388
11.2174
10.9567
11.0398
11.2682
11.4939
11.6266
11.728
11.8077
11.8661
1.00001
1.00003
1.0001
1.00021
1.00061
1.00124
1.00355
1.00699
1.02155
1.03856
1.1403
1.24599
1.9485
3.21094
7.68954
11.6566
11.2078
10.9243
11.0061
11.2326
11.457
11.5893
11.6917
11.773
11.8334
1.00001
1.00003
1.00009
1.0002
1.00058
1.00119
1.0034
1.00671
1.02054
1.0369
1.13337
1.23394
1.89331
3.08099
7.31157
11.684
11.1959
10.8715
10.9488
11.169
11.3916
11.5226
11.6245
11.7067
11.7708
1.00001
1.00003
1.00009
1.0002
1.00056
1.00114
1.00323
1.00649
1.01919
1.03614
1.12207
1.22183
1.81772
2.91364
6.80703
11.7085
11.1835
10.8028
10.8722
11.0811
11.3013
11.4285
11.5277
11.6099
11.6788
1.00001
1.00003
1.00008
1.00018
1.00052
1.00106
1.00301
1.00607
1.01765
1.03437
1.11001
1.20613
1.73332
2.7197
6.19828
11.6918
11.1587
10.7179
10.7756
10.9651
11.1805
11.3007
11.3924
11.4706
11.5441
1.00001
1.00002
1.00008
1.00017
1.00048
1.00098
1.00276
1.00558
1.01612
1.03176
1.09874
1.19057
1.64898
2.52549
5.57666
11.5481
11.0851
10.6162
10.6603
10.821
11.0221
11.128
11.2043
11.2692
11.3402
1
1.00002
1.00007
1.00015
1.00043
1.00089
1.0025
1.00506
1.0146
1.02879
1.08942
1.17167
1.58481
2.36887
5.14229
11.1171
10.896
10.5034
10.5272
10.644
10.8191
10.9016
10.9476
10.9788
11.027
1
1.00002
1.00006
1.00013
1.00038
1.00078
1.00221
1.00445
1.01299
1.0248
1.08142
1.14691
1.52949
2.20742
4.71836
10.4124
10.6086
10.4319
10.3846
10.4433
10.5682
10.6129
10.6057
10.5612
10.513
1
1.00002
1.00005
1.00011
1.00032
1.00065
1.00187
1.00362
1.01139
1.01977
1.07316
1.12212
1.47624
2.03747
4.28788
9.53949
10.4552
10.336
10.2088
10.2275
10.2764
10.2605
10.1731
9.95927
9.60705
1.00001
1.00003
1.0001
1.00022
1.00063
1.00129
1.0037
1.00727
1.02255
1.0402
1.14707
1.25792
2.00241
3.33688
8.04084
11.6298
11.2203
10.9675
11.0495
11.2769
11.5025
11.6343
11.7336
11.8111
11.8671
1.00001
1.00003
1.0001
1.00021
1.00062
1.00127
1.00365
1.00718
1.02222
1.03964
1.14486
1.254
1.98515
3.29688
7.93251
11.639
11.2174
10.9566
11.0398
11.2682
11.4939
11.6265
11.7279
11.8077
11.8661
1.00001
1.00003
1.00009
1.00021
1.0006
1.00123
1.00354
1.00698
1.02154
1.03854
1.14027
1.24594
1.94844
3.21072
7.68912
11.6567
11.2078
10.9242
11.0061
11.2325
11.4569
11.5892
11.6917
11.7729
11.8333
1.00001
1.00003
1.00009
1.0002
1.00058
1.00118
1.00339
1.00669
1.02053
1.03688
1.13335
1.23388
1.89329
3.0808
7.31121
11.684
11.1959
10.8715
10.9488
11.1689
11.3916
11.5225
11.6245
11.7067
11.7708
1.00001
1.00002
1.00009
1.00019
1.00055
1.00113
1.00323
1.00648
1.01918
1.03612
1.12207
1.22176
1.81771
2.91347
6.80671
11.7085
11.1835
10.8027
10.8721
11.081
11.3013
11.4284
11.5276
11.6099
11.6788
1
1.00002
1.00008
1.00018
1.00051
1.00106
1.003
1.00606
1.01764
1.03435
1.11
1.20608
1.73329
2.71955
6.19796
11.6918
11.1586
10.7178
10.7755
10.9651
11.1804
11.3007
11.3924
11.4705
11.5441
1
1.00002
1.00007
1.00016
1.00047
1.00097
1.00276
1.00557
1.01611
1.03175
1.09872
1.19053
1.64895
2.52536
5.57645
11.5479
11.085
10.6161
10.6602
10.8209
11.0221
11.128
11.2043
11.2692
11.3402
1
1.00002
1.00007
1.00015
1.00043
1.00088
1.0025
1.00505
1.01459
1.02878
1.08941
1.17163
1.58479
2.36876
5.1421
11.1169
10.8959
10.5033
10.5272
10.644
10.819
10.9016
10.9476
10.9787
11.027
1
1.00002
1.00006
1.00013
1.00038
1.00077
1.0022
1.00444
1.01298
1.02478
1.08142
1.14685
1.5295
2.20731
4.71822
10.4121
10.6085
10.4318
10.3845
10.4432
10.5681
10.6128
10.6057
10.5611
10.513
1
1.00001
1.00005
1.00011
1.00031
1.00064
1.00186
1.00361
1.01138
1.01976
1.07315
1.12209
1.47623
2.03735
4.28777
9.53918
10.4551
10.336
10.2087
10.2274
10.2764
10.2604
10.173
9.95923
9.60701
1
1.00001
1.00004
1.00011
1.00024
1.00069
1.00141
1.00409
1.00795
1.02517
1.0443
1.16295
1.29115
2.10833
3.62178
8.5243
10.3612
10.2477
10.0279
9.99003
9.96434
9.87007
9.61234
9.00906
7.47539
1
1.00001
1.00003
1.0001
1.00021
1.0006
1.00123
1.00353
1.00696
1.0214
1.03836
1.13868
1.24405
1.92871
3.15138
7.33226
10.2803
10.1506
9.86237
9.74514
9.65637
9.46285
9.04973
8.22005
6.62055
1
1.00001
1.00003
1.00009
1.00018
1.00052
1.00107
1.00304
1.00613
1.01783
1.03463
1.11124
1.20763
1.73765
2.71427
6.05055
10.1687
10.0422
9.72255
9.5084
9.35339
9.07736
8.56774
7.71225
6.4078
1
1.00001
1.00002
1.00007
1.00015
1.00043
1.00088
1.00251
1.00507
1.01457
1.02887
1.08783
1.17358
1.56464
2.31656
4.82322
9.83297
9.83219
9.60707
9.29126
9.0639
8.74094
8.21456
7.42228
6.36881
1
1.00001
1.00002
1.00005
1.00012
1.00034
1.0007
1.00198
1.00397
1.0117
1.02196
1.07303
1.13046
1.46516
2.04538
4.14488
8.93649
9.55817
9.41078
9.09215
8.80713
8.45877
7.95644
7.24933
6.36208
1
1
1.00001
1.00003
1.00011
1.00023
1.00065
1.00132
1.0038
1.00736
1.02327
1.04064
1.14921
1.2624
2.00333
3.304
7.50029
9.28947
9.19842
8.94088
8.59443
8.22664
7.75422
7.12204
6.35761
0.999999
1
1.00001
1.00003
1.00009
1.00019
1.00053
1.0011
1.0031
1.00625
1.01818
1.03505
1.11345
1.21045
1.74589
2.71984
5.93308
9.09493
9.053
8.8397
8.43242
8.04217
7.58981
7.02162
6.35062
0.999998
0.999999
1.00001
1.00002
1.00007
1.00014
1.00041
1.00084
1.00238
1.0048
1.01378
1.02729
1.08261
1.16394
1.52345
2.20942
4.40283
8.66296
8.91685
8.74195
8.34199
7.9021
7.45755
6.93981
6.34258
0.999996
0.999998
1
1.00002
1.00004
1.00012
1.00026
1.00073
1.00148
1.00422
1.00825
1.02539
1.04531
1.16104
1.29056
2.05587
3.46196
7.61454
8.67785
8.56283
8.25063
7.78947
7.34945
6.87134
6.33329
0.999995
0.999996
0.999999
1.00001
1.00003
1.00009
1.00019
1.00056
1.00114
1.00322
1.00646
1.01898
1.03571
1.11911
1.21715
1.7764
2.7718
5.99135
8.41899
8.37883
8.1673
7.72212
7.26773
6.81479
6.32637
0.999994
0.999994
0.999997
1
1.00002
1.00005
1.00016
1.00033
1.00094
1.0019
1.00543
1.01052
1.03293
1.05794
1.20649
1.39669
2.2889
4.12857
7.95387
8.25921
8.09846
7.70875
7.22083
6.77358
6.31911
0.999993
0.999993
0.999995
0.999999
1.00001
1.00004
1.00011
1.00024
1.00068
1.00139
1.00393
1.00773
1.02353
1.04223
1.14892
1.26535
1.96435
3.18944
6.83735
8.03251
7.94829
7.67668
7.20288
6.74877
6.31632
0.999992
0.999993
0.999993
0.999997
1
1.00003
1.00006
1.00019
1.0004
1.00113
1.00223
1.00676
1.01203
1.04228
1.06993
1.26263
1.51712
2.65511
5.0968
7.66866
7.7368
7.5935
7.22036
6.75032
6.31877
0.999992
0.999992
0.999993
0.999995
1
1.00002
1.00004
1.00014
1.00029
1.00082
1.00167
1.00469
1.00938
1.0275
1.05186
1.16927
1.32737
2.0649
3.45077
6.93774
7.58821
7.49041
7.21434
6.76636
6.33012
0.999991
0.999991
0.999992
0.999993
0.999998
1.00001
1.00003
1.00008
1.00022
1.00047
1.00131
1.00262
1.00765
1.01425
1.04704
1.08047
1.29353
1.57834
2.8145
5.38455
7.3081
7.30826
7.175
6.8292
6.36148
0.999991
0.999991
0.999992
0.999992
0.999996
1
1.00002
1.00005
1.00015
1.00032
1.0009
1.00183
1.00512
1.01028
1.0295
1.05809
1.17555
1.36601
2.08454
3.51938
6.75285
7.20697
7.1167
6.87117
6.4259
0.999991
0.999991
0.999991
0.999992
0.999993
0.999999
1.00001
1.00004
1.00008
1.00024
1.0005
1.00141
1.00286
1.00808
1.01583
1.04815
1.08853
1.29504
1.61716
2.81154
5.39085
6.96951
6.97718
6.85735
6.55275
0.999991
0.999991
0.999991
0.999991
0.999992
0.999996
1
1.00002
1.00005
1.00016
1.00033
1.00092
1.00188
1.00522
1.01037
1.03032
1.05603
1.18318
1.35652
2.09103
3.5261
6.43503
6.87509
6.80868
6.6039
0.999991
0.999991
0.999991
0.999991
0.999992
0.999993
0.999998
1.00001
1.00004
1.00008
1.00024
1.00051
1.00142
1.00287
1.00805
1.01595
1.04716
1.09042
1.28296
1.62313
2.72276
5.16517
6.62918
6.68523
6.5837
0.999991
0.99999
0.99999
0.999991
0.999991
0.999993
0.999995
1
1.00002
1.00006
1.00013
1.00037
1.00077
1.00213
1.0043
1.01208
1.02392
1.06978
1.14015
1.41366
1.92795
3.34304
6.06322
6.56235
6.51766
0.999991
0.99999
0.99999
0.999991
0.999991
0.999992
0.999993
0.999998
1.00001
1.00003
1.00008
1.00023
1.00049
1.00135
1.00274
1.00762
1.01517
1.04402
1.08485
1.26197
1.56074
2.57457
4.75343
6.27003
6.38623
0.999991
0.99999
0.99999
0.99999
0.999991
0.999991
0.999992
0.999994
1
1.00001
1.00005
1.00012
1.00034
1.00071
1.00196
1.00396
1.01104
1.02214
1.06277
1.13
1.36881
1.83239
3.10038
5.60019
6.23583
0.999991
0.99999
0.99999
0.99999
0.99999
0.999991
0.999992
0.999993
0.999997
1
1.00003
1.00007
1.00021
1.00044
1.00121
1.00246
1.00678
1.01355
1.03878
1.07427
1.23021
1.4695
2.36021
4.17559
5.86505
0.999991
0.99999
0.99999
0.99999
0.99999
0.99999
0.999991
0.999992
0.999995
0.999999
1.00001
1.00004
1.00012
1.00026
1.00072
1.00147
1.00403
1.0081
1.02266
1.04416
1.13258
1.25926
1.77906
2.72859
5.05222
0.999991
0.99999
0.99999
0.99999
0.99999
0.99999
0.999991
0.999991
0.999993
0.999995
1
1.00002
1.00007
1.00015
1.00042
1.00087
1.00237
1.0048
1.01329
1.02624
1.07669
1.14917
1.45125
1.97765
3.43872
0.999991
0.99999
0.99999
0.99999
0.99999
0.99999
0.99999
0.999991
0.999991
0.999994
0.999997
1.00001
1.00003
1.0001
1.0002
1.00057
1.00116
1.0032
1.0063
1.0184
1.03344
1.10985
1.19606
1.64262
2.35909
0.999991
0.99999
0.99999
0.99999
0.99999
0.99999
0.99999
0.999991
0.999991
0.999992
0.999995
1
1.00002
1.00004
1.00013
1.00028
1.00078
1.00159
1.00434
1.00871
1.02451
1.04714
1.14117
1.2834
1.79399
0.999991
0.99999
0.99999
0.99999
0.99999
0.99999
0.99999
0.99999
0.999991
0.999991
0.999993
0.999997
1
1.00003
1.00006
1.00019
1.00039
1.00106
1.00215
1.00589
1.01178
1.03324
1.06461
1.19184
1.39502
0.999991
0.99999
0.99999
0.99999
0.99999
0.99999
0.99999
0.99999
0.99999
0.999991
0.999992
0.999994
0.999998
1.00001
1.00003
1.0001
1.00022
1.0006
1.00122
1.00332
1.00669
1.01845
1.0361
1.10721
1.2016
0.999991
0.99999
0.99999
0.99999
0.99999
0.99999
0.99999
0.99999
0.99999
0.999991
0.999991
0.999992
0.999995
1
1.00002
1.00004
1.00013
1.00028
1.00077
1.00156
1.00424
1.00848
1.02349
1.04673
1.1318
0.999991
0.99999
0.99999
0.99999
0.99999
0.99999
0.99999
0.99999
0.99999
0.99999
0.999991
0.999991
0.999993
0.999996
1
1.00002
1.00006
1.00018
1.00037
1.001
1.00202
1.0055
1.01099
1.03058
1.06063
0.999991
0.99999
0.99999
0.99999
0.99999
0.99999
0.99999
0.99999
0.99999
0.99999
0.99999
0.999991
0.999992
0.999993
0.999998
1.00001
1.00003
1.00008
1.00023
1.00047
1.00128
1.00259
1.00705
1.01417
1.03894
0.999991
0.99999
0.99999
0.99999
0.99999
0.99999
0.99999
0.99999
0.99999
0.99999
0.99999
0.999991
0.999991
0.999992
0.999995
0.999999
1.00001
1.00004
1.00012
1.00025
1.00069
1.0014
1.00375
1.00755
1.02057
0.999991
0.99999
0.99999
0.99999
0.99999
0.99999
0.99999
0.99999
0.99999
0.99999
0.99999
0.99999
0.999991
0.999991
0.999992
0.999996
1
1.00002
1.00005
1.00015
1.00031
1.00083
1.00169
1.00453
1.00905
0.999991
0.99999
0.99999
0.99999
0.99999
0.99999
0.99999
0.99999
0.99999
0.99999
0.99999
0.99999
0.99999
0.999991
0.999991
0.999993
0.999997
1
1.00003
1.00006
1.00018
1.00038
1.00103
1.00209
1.00563
0.999991
0.99999
0.99999
0.99999
0.99999
0.99999
0.99999
0.99999
0.99999
0.99999
0.99999
0.99999
0.99999
0.99999
0.999991
0.999992
0.999993
0.999998
1.00001
1.00003
1.00008
1.00023
1.00047
1.00127
1.00257
0.999991
0.99999
0.99999
0.99999
0.99999
0.99999
0.99999
0.99999
0.99999
0.99999
0.99999
0.99999
0.99999
0.99999
0.999991
0.999991
0.999992
0.999994
1
1.00001
1.00004
1.0001
1.00028
1.00058
1.00156
0.999991
0.99999
0.99999
0.99999
0.99999
0.99999
0.99999
0.99999
0.99999
0.99999
0.99999
0.99999
0.99999
0.99999
0.99999
0.999991
0.999991
0.999992
0.999996
1
1.00002
1.00005
1.00015
1.00031
1.00085
0.999991
0.99999
0.99999
0.99999
0.99999
0.99999
0.99999
0.99999
0.99999
0.99999
0.99999
0.99999
0.99999
0.99999
0.99999
0.99999
0.999991
0.999992
0.999993
0.999998
1.00001
1.00003
1.00008
1.00022
1.00046
0.999991
0.99999
0.99999
0.99999
0.99999
0.99999
0.99999
0.99999
0.99999
0.99999
0.99999
0.99999
0.99999
0.99999
0.99999
0.99999
0.999991
0.999991
0.999993
0.999996
1
1.00002
1.00006
1.00018
1.00038
1
1.00002
1.00004
1.00012
1.00025
1.0007
1.00142
1.0041
1.00796
1.02518
1.04432
1.16297
1.2912
2.10836
3.62196
8.52459
10.3612
10.2478
10.0279
9.9901
9.96441
9.87013
9.61239
9.00909
7.47542
1
1.00001
1.00004
1.0001
1.00022
1.00061
1.00124
1.00354
1.00698
1.02141
1.03838
1.1387
1.2441
1.92875
3.15155
7.33256
10.2803
10.1506
9.86244
9.74521
9.65644
9.46291
9.04978
8.22009
6.62059
1
1.00001
1.00003
1.00009
1.00019
1.00053
1.00108
1.00304
1.00614
1.01784
1.03465
1.11125
1.20768
1.73768
2.71441
6.05083
10.1688
10.0422
9.72261
9.50846
9.35345
9.07741
8.56779
7.71229
6.40786
1
1.00001
1.00003
1.00007
1.00016
1.00044
1.00089
1.00251
1.00508
1.01458
1.02888
1.08784
1.17361
1.56466
2.31667
4.82337
9.8331
9.83228
9.60712
9.29132
9.06396
8.74099
8.21461
7.42232
6.36884
1
1.00001
1.00002
1.00006
1.00012
1.00035
1.00071
1.00199
1.00398
1.01171
1.02199
1.07303
1.13051
1.46515
2.04547
4.14498
8.93674
9.55824
9.41084
9.0922
8.80718
8.45882
7.95649
7.24938
6.36212
1
1.00001
1.00002
1.00004
1.00011
1.00023
1.00066
1.00133
1.00381
1.00737
1.02329
1.04067
1.14923
1.26245
2.00335
3.30414
7.50052
9.28951
9.19846
8.94092
8.59448
8.22669
7.75427
7.12208
6.35764
1
1
1.00002
1.00003
1.00009
1.00019
1.00054
1.0011
1.00311
1.00627
1.01819
1.03507
1.11345
1.2105
1.74589
2.71997
5.9333
9.095
9.05305
8.83974
8.43246
8.04222
7.58986
7.02166
6.35066
1
1
1.00001
1.00003
1.00007
1.00015
1.00042
1.00085
1.00238
1.00481
1.01379
1.02731
1.08262
1.16397
1.52347
2.20951
4.40296
8.66312
8.9169
8.74199
8.34202
7.90214
7.45759
6.93984
6.34261
1
1
1.00001
1.00002
1.00005
1.00013
1.00026
1.00074
1.00149
1.00423
1.00826
1.0254
1.04533
1.16106
1.2906
2.05593
3.46209
7.61479
8.6779
8.56286
8.25066
7.7895
7.34948
6.87137
6.33331