/*--------------------------------*- C++ -*----------------------------------*\
| =========                 |                                                 |
| \\      /  F ield         | OpenFOAM: The Open Source CFD Toolbox           |
|  \\    /   O peration     | Version:  4.1                                   |
|   \\  /    A nd           | Web:      www.OpenFOAM.org                      |
|    \\/     M anipulation  |                                                 |
\*---------------------------------------------------------------------------*/
FoamFile
{
    version     2.0;
    format      ascii;
    class       volVectorField;
    location    "1.16";
    object      U;
}
// * * * * * * * * * * * * * * * * * * * * * * * * * * * * * * * * * * * * * //

dimensions      [0 1 -1 0 0 0 0];

internalField   nonuniform List<vector> 
52500
(
(3 7.52802e-09 -0.00571424)
(2.99999 3.97e-08 -0.0057143)
(2.99998 1.56451e-07 -0.00571438)
(2.99996 4.0291e-07 -0.00571465)
(2.9999 1.19595e-06 -0.00571516)
(2.99974 2.84333e-06 -0.00571671)
(2.99942 7.68289e-06 -0.00571981)
(2.99838 1.86863e-05 -0.00572845)
(2.99657 4.46372e-05 -0.00574903)
(2.98964 0.000110484 -0.00579328)
(2.97812 0.000262785 -0.00595201)
(2.93161 0.000618305 -0.00618673)
(2.82012 0.00167793 -0.00734238)
(2.49913 0.00457225 -0.00942622)
(1.48142 0.0130945 -0.015093)
(0.639916 0.0319406 -0.0187972)
(0.421196 0.0297367 -0.019055)
(0.47544 0.0283557 -0.0190539)
(0.477149 0.0279318 -0.0191404)
(0.406134 0.028252 -0.0192747)
(0.312979 0.0297909 -0.0194756)
(0.243704 0.0327304 -0.0195875)
(0.195239 0.0366827 -0.0196958)
(0.120682 0.0416369 -0.0203702)
(0.0227255 0.0464959 -0.0198924)
(3 2.10059e-08 -0.00571424)
(2.99999 1.10455e-07 -0.0057143)
(2.99999 4.37722e-07 -0.00571438)
(2.99996 1.12215e-06 -0.00571464)
(2.9999 3.37716e-06 -0.00571514)
(2.99974 8.03416e-06 -0.00571665)
(2.99943 2.21775e-05 -0.00571969)
(2.99841 5.45696e-05 -0.00572806)
(2.99664 0.000131372 -0.00574838)
(2.98982 0.00033604 -0.00579147)
(2.97855 0.000785184 -0.00594799)
(2.93274 0.00190124 -0.00617783)
(2.82363 0.00516319 -0.00731818)
(2.50769 0.0141685 -0.00934656)
(1.5007 0.0408167 -0.014959)
(0.651884 0.0961571 -0.0186544)
(0.417117 0.0835432 -0.0189484)
(0.476432 0.0760731 -0.018952)
(0.480869 0.0734928 -0.0190355)
(0.411034 0.0731127 -0.0191661)
(0.317843 0.0755527 -0.0193592)
(0.246718 0.0798504 -0.0194659)
(0.195722 0.0853222 -0.0195678)
(0.11925 0.0919864 -0.0202265)
(0.0207238 0.0955585 -0.0197265)
(3 3.0339e-08 -0.00571424)
(2.99999 1.60417e-07 -0.00571429)
(2.99999 6.27735e-07 -0.00571438)
(2.99996 1.5938e-06 -0.00571463)
(2.99991 4.78256e-06 -0.0057151)
(2.99975 1.11951e-05 -0.00571653)
(2.99945 3.19624e-05 -0.00571946)
(2.99847 7.66617e-05 -0.00572724)
(2.9968 0.000200886 -0.00574719)
(2.99018 0.000511713 -0.0057874)
(2.97944 0.00125425 -0.00594033)
(2.9351 0.0032041 -0.00616039)
(2.83105 0.00850339 -0.00726757)
(2.52638 0.0244585 -0.00918886)
(1.54553 0.069682 -0.0146868)
(0.681212 0.166321 -0.0184656)
(0.412346 0.140235 -0.018821)
(0.481949 0.125714 -0.0188337)
(0.491656 0.122462 -0.0189112)
(0.424016 0.123434 -0.0190369)
(0.330873 0.129702 -0.0192187)
(0.256983 0.138203 -0.0193237)
(0.202613 0.148397 -0.0194221)
(0.123563 0.160195 -0.0200667)
(0.0221575 0.164381 -0.0195719)
(3 3.88145e-08 -0.00571424)
(2.99999 2.07638e-07 -0.00571429)
(2.99999 7.84731e-07 -0.00571437)
(2.99996 1.98512e-06 -0.00571461)
(2.99991 5.71001e-06 -0.00571506)
(2.99976 1.29929e-05 -0.00571641)
(2.99948 3.70448e-05 -0.00571916)
(2.99856 8.00739e-05 -0.00572631)
(2.99701 0.000248531 -0.00574552)
(2.99069 0.000524701 -0.00578084)
(2.98082 0.00169595 -0.00593038)
(2.9385 0.00386647 -0.00612718)
(2.84266 0.0119675 -0.00720072)
(2.55472 0.0326532 -0.00892738)
(1.61713 0.0973263 -0.0143094)
(0.729034 0.235356 -0.0182148)
(0.407739 0.194959 -0.0186863)
(0.493161 0.172696 -0.0187042)
(0.510685 0.169872 -0.018756)
(0.445791 0.173401 -0.0188752)
(0.352457 0.184906 -0.0190494)
(0.274594 0.198781 -0.0191508)
(0.215694 0.214676 -0.0192392)
(0.132565 0.23242 -0.0198707)
(0.0259581 0.237802 -0.019412)
(3 4.77247e-08 -0.00571424)
(2.99999 2.54965e-07 -0.00571429)
(2.99999 9.53843e-07 -0.00571436)
(2.99996 2.41849e-06 -0.00571459)
(2.99992 6.83253e-06 -0.00571501)
(2.99978 1.5473e-05 -0.0057163)
(2.99951 4.32672e-05 -0.00571886)
(2.99865 8.90688e-05 -0.00572583)
(2.99717 0.000293121 -0.00574317)
(2.99138 0.00053026 -0.0057773)
(2.98225 0.00210198 -0.00591257)
(2.94324 0.00412243 -0.00609392)
(2.85693 0.0153087 -0.00708829)
(2.59171 0.0375684 -0.0086071)
(1.72143 0.122148 -0.0138135)
(0.795885 0.300477 -0.0178731)
(0.407328 0.248036 -0.0185443)
(0.511748 0.21798 -0.018559)
(0.538577 0.216343 -0.0185658)
(0.475887 0.223321 -0.0186779)
(0.381555 0.241233 -0.0188499)
(0.298466 0.261627 -0.0189627)
(0.234121 0.283843 -0.0190435)
(0.145783 0.307969 -0.0196397)
(0.0319463 0.315909 -0.0192204)
(3 5.46813e-08 -0.00571424)
(3 2.88097e-07 -0.00571428)
(2.99999 1.0792e-06 -0.00571435)
(2.99997 2.74193e-06 -0.00571456)
(2.99992 7.75597e-06 -0.00571495)
(2.9998 1.7666e-05 -0.00571615)
(2.99954 4.88726e-05 -0.00571849)
(2.99876 0.000102841 -0.00572509)
(2.99738 0.000328434 -0.00574052)
(2.99219 0.00057481 -0.00577326)
(2.98384 0.00237526 -0.00589118)
(2.94901 0.00440569 -0.00606174)
(2.87267 0.017495 -0.00693741)
(2.63632 0.0409798 -0.00830399)
(1.8579 0.14012 -0.0130999)
(0.882779 0.358332 -0.0174785)
(0.419832 0.299637 -0.0183768)
(0.540905 0.263779 -0.0183593)
(0.575737 0.264153 -0.0183249)
(0.513417 0.275192 -0.0184514)
(0.417403 0.300532 -0.0186251)
(0.328481 0.328593 -0.0187199)
(0.257941 0.358293 -0.0187849)
(0.163514 0.390025 -0.0193461)
(0.0407473 0.403622 -0.0189963)
(3 6.89935e-08 -0.00571424)
(3 2.96375e-07 -0.00571428)
(2.99999 1.16538e-06 -0.00571434)
(2.99997 2.96971e-06 -0.00571454)
(2.99993 8.38434e-06 -0.00571489)
(2.99981 1.91478e-05 -0.00571599)
(2.99958 5.22479e-05 -0.0057181)
(2.99888 0.000112872 -0.00572433)
(2.99757 0.000340676 -0.00573762)
(2.99307 0.000630692 -0.00576972)
(2.98548 0.00245055 -0.00586721)
(2.95535 0.00449386 -0.00602698)
(2.88959 0.0180573 -0.00676695)
(2.68602 0.0427686 -0.00796202)
(2.02135 0.146068 -0.0123151)
(0.999699 0.392584 -0.0168568)
(0.461375 0.341534 -0.0181016)
(0.581163 0.311098 -0.0180786)
(0.617116 0.315941 -0.0180786)
(0.553333 0.331439 -0.018236)
(0.457157 0.363963 -0.018395)
(0.363829 0.400295 -0.0184764)
(0.287887 0.439029 -0.0184944)
(0.187911 0.480855 -0.018982)
(0.0545157 0.505623 -0.0186882)
(3 7.754e-08 -0.00571424)
(3 2.84985e-07 -0.00571428)
(2.99999 1.17915e-06 -0.00571433)
(2.99997 3.00729e-06 -0.00571451)
(2.99994 8.4923e-06 -0.00571483)
(2.99983 1.94218e-05 -0.00571581)
(2.99962 5.24411e-05 -0.0057177)
(2.999 0.000116543 -0.00572334)
(2.99781 0.0003249 -0.00573481)
(2.99394 0.000687183 -0.00576519)
(2.98709 0.00218066 -0.00584417)
(2.96164 0.0044387 -0.00599567)
(2.90671 0.0151204 -0.00659049)
(2.73655 0.0395947 -0.00762944)
(2.19255 0.119106 -0.011146)
(1.14846 0.34955 -0.0160767)
(0.510835 0.368565 -0.0178561)
(0.613247 0.36628 -0.0178767)
(0.648444 0.374206 -0.0178594)
(0.588223 0.392412 -0.0179944)
(0.498011 0.430319 -0.0181072)
(0.404815 0.47586 -0.0181696)
(0.325842 0.527052 -0.0181807)
(0.22256 0.583643 -0.0186092)
(0.0769119 0.630194 -0.018311)
(3 7.95293e-08 -0.00571424)
(3 3.10627e-07 -0.00571427)
(2.99999 1.26259e-06 -0.00571432)
(2.99998 3.22906e-06 -0.00571448)
(2.99994 8.97868e-06 -0.00571476)
(2.99985 2.05934e-05 -0.00571565)
(2.99966 5.42674e-05 -0.00571732)
(2.99911 0.000121606 -0.00572236)
(2.99804 0.000320478 -0.00573247)
(2.99461 0.000710326 -0.00575948)
(2.98863 0.00194138 -0.0058288)
(2.96589 0.00428454 -0.00596236)
(2.92052 0.0120158 -0.00649349)
(2.76768 0.0331265 -0.00733739)
(2.30136 0.0851855 -0.0105777)
(1.2991 0.265649 -0.0158586)
(0.553326 0.409534 -0.017808)
(0.6292 0.436648 -0.0177358)
(0.663113 0.432336 -0.0176909)
(0.616508 0.454436 -0.0177828)
(0.540237 0.495828 -0.0178097)
(0.454332 0.552346 -0.0178064)
(0.376745 0.618163 -0.0177321)
(0.276689 0.699952 -0.0180293)
(0.116841 0.792436 -0.0176745)
(3 9.19106e-08 -0.00571424)
(3 2.19808e-07 -0.00571427)
(2.99999 1.79633e-06 -0.00571431)
(2.99998 2.77746e-06 -0.00571444)
(2.99995 1.21062e-05 -0.00571469)
(2.99987 1.83342e-05 -0.00571545)
(2.99971 7.33905e-05 -0.00571692)
(2.99923 0.0001044 -0.00572122)
(2.9983 0.000453296 -0.00573016)
(2.99528 0.00049523 -0.00575315)
(2.99008 0.00291889 -0.00581464)
(2.96985 0.00176129 -0.00593067)
(2.93176 0.0187047 -0.00640626)
(2.79288 0.0146172 -0.00711888)
(2.391 0.105913 -0.0101869)
(1.4759 0.215848 -0.0154275)
(0.646136 0.467459 -0.0175863)
(0.635189 0.496198 -0.0174896)
(0.663845 0.486549 -0.0174859)
(0.644183 0.512643 -0.0174832)
(0.585873 0.557738 -0.0174921)
(0.514051 0.624858 -0.0174365)
(0.447618 0.711357 -0.0172319)
(0.368819 0.838649 -0.0173407)
(0.190627 1.05046 -0.0167175)
(3 7.74778e-09 -2.39602e-09)
(2.99999 3.97283e-08 -8.78333e-09)
(2.99998 1.5741e-07 -1.02619e-08)
(2.99996 4.03041e-07 -1.62597e-08)
(2.9999 1.20165e-06 -1.67694e-08)
(2.99973 2.85202e-06 -2.27723e-08)
(2.99941 7.70054e-06 -2.47469e-08)
(2.99838 1.8719e-05 -3.64827e-08)
(2.99656 4.47057e-05 -4.21614e-08)
(2.98963 0.000110469 -9.63256e-08)
(2.9781 0.0002631 -8.6914e-08)
(2.93158 0.000618046 -2.95082e-07)
(2.82004 0.00167833 -3.79831e-07)
(2.49892 0.00457087 -1.29158e-06)
(1.48101 0.0130924 -2.15771e-06)
(0.639694 0.0319306 -2.41487e-06)
(0.421444 0.0297383 6.93152e-07)
(0.475499 0.0283644 1.67765e-07)
(0.477134 0.0279428 -1.19654e-09)
(0.406123 0.028261 1.04196e-07)
(0.312971 0.0297953 2.78808e-07)
(0.243691 0.0327304 3.33922e-07)
(0.195226 0.0366797 3.66279e-07)
(0.12067 0.0416318 4.04903e-07)
(0.0227241 0.0464909 4.245e-07)
(3 2.15396e-08 -2.39024e-09)
(2.99999 1.10304e-07 -8.78382e-09)
(2.99998 4.39291e-07 -1.02351e-08)
(2.99996 1.12192e-06 -1.62737e-08)
(2.9999 3.38977e-06 -1.66535e-08)
(2.99974 8.05706e-06 -2.27401e-08)
(2.99943 2.22303e-05 -2.46967e-08)
(2.99841 5.47245e-05 -3.69169e-08)
(2.99664 0.000131545 -4.17622e-08)
(2.98981 0.000336508 -1.0138e-07)
(2.97853 0.000785837 -8.1893e-08)
(2.93271 0.00190099 -3.06072e-07)
(2.82354 0.00516385 -3.71411e-07)
(2.50749 0.0141647 -1.31912e-06)
(1.50028 0.0408092 -2.1726e-06)
(0.651652 0.0961258 -2.50128e-06)
(0.417365 0.0835459 7.17339e-07)
(0.476483 0.0760942 1.84248e-07)
(0.480847 0.0735192 4.73264e-09)
(0.411016 0.0731338 1.05982e-07)
(0.317832 0.0755618 2.71754e-07)
(0.246705 0.0798493 3.2664e-07)
(0.19571 0.0853143 3.61239e-07)
(0.119239 0.091975 4.00658e-07)
(0.0207209 0.0955463 4.19451e-07)
(3 3.05613e-08 -2.3799e-09)
(2.99999 1.59934e-07 -8.78773e-09)
(2.99998 6.26562e-07 -1.01939e-08)
(2.99996 1.59509e-06 -1.62829e-08)
(2.99991 4.7845e-06 -1.64069e-08)
(2.99975 1.12076e-05 -2.24402e-08)
(2.99945 3.20012e-05 -2.4128e-08)
(2.99847 7.68492e-05 -3.56483e-08)
(2.9968 0.000201003 -4.10957e-08)
(2.99017 0.000513355 -1.02419e-07)
(2.97942 0.00125326 -7.62595e-08)
(2.93508 0.00320765 -3.25569e-07)
(2.83096 0.0084999 -3.569e-07)
(2.52617 0.0244581 -1.38591e-06)
(1.54507 0.0696664 -2.22729e-06)
(0.680962 0.166268 -2.73722e-06)
(0.412586 0.14024 7.97202e-07)
(0.481985 0.12575 2.18624e-07)
(0.491618 0.122506 2.71824e-08)
(0.423985 0.123468 1.18038e-07)
(0.330854 0.129715 2.69479e-07)
(0.256969 0.138199 3.18814e-07)
(0.202602 0.148383 3.52095e-07)
(0.123553 0.160176 3.90726e-07)
(0.0221547 0.164361 4.08698e-07)
(3 3.82385e-08 -2.37764e-09)
(2.99999 2.0711e-07 -8.79157e-09)
(2.99999 7.81489e-07 -1.02138e-08)
(2.99996 1.99194e-06 -1.62418e-08)
(2.99991 5.70613e-06 -1.64551e-08)
(2.99976 1.30078e-05 -2.22471e-08)
(2.99948 3.70722e-05 -2.34988e-08)
(2.99855 8.01592e-05 -3.20358e-08)
(2.997 0.000248662 -4.09287e-08)
(2.99068 0.000525311 -6.9087e-08)
(2.9808 0.00169589 -1.15837e-07)
(2.93847 0.00386899 -2.56909e-07)
(2.84257 0.0119656 -4.37401e-07)
(2.5545 0.0326589 -1.40508e-06)
(1.61662 0.0973102 -2.3859e-06)
(0.728758 0.235291 -3.11301e-06)
(0.407963 0.194968 9.34654e-07)
(0.493174 0.172746 2.93227e-07)
(0.510626 0.16993 7.24051e-08)
(0.445742 0.173444 1.48465e-07)
(0.352429 0.184919 2.84181e-07)
(0.274579 0.198771 3.21935e-07)
(0.215685 0.214654 3.39948e-07)
(0.132558 0.232394 3.71934e-07)
(0.0259559 0.237774 3.8646e-07)
(3 4.67925e-08 -2.38759e-09)
(2.99999 2.54589e-07 -8.78611e-09)
(2.99999 9.52658e-07 -1.02466e-08)
(2.99996 2.42813e-06 -1.6105e-08)
(2.99992 6.84766e-06 -1.65834e-08)
(2.99978 1.55255e-05 -2.20908e-08)
(2.99951 4.33728e-05 -2.36955e-08)
(2.99865 8.92994e-05 -3.34391e-08)
(2.99717 0.000293573 -4.02312e-08)
(2.99137 0.000530693 -8.60486e-08)
(2.98224 0.00210425 -9.31397e-08)
(2.94321 0.00412404 -2.68495e-07)
(2.85684 0.0153132 -4.93363e-07)
(2.59149 0.0375779 -1.27819e-06)
(1.72086 0.122149 -2.66433e-06)
(0.795577 0.300429 -3.61567e-06)
(0.407512 0.248055 1.06765e-06)
(0.511728 0.218038 3.79448e-07)
(0.538496 0.216404 1.15837e-07)
(0.475824 0.223362 1.79113e-07)
(0.381522 0.241242 3.05984e-07)
(0.298454 0.261611 3.34712e-07)
(0.234117 0.283814 3.30803e-07)
(0.14578 0.307937 3.45827e-07)
(0.0319457 0.315875 3.52739e-07)
(3 5.31473e-08 -2.39563e-09)
(2.99999 2.87219e-07 -8.77785e-09)
(2.99999 1.07943e-06 -1.0237e-08)
(2.99997 2.75022e-06 -1.6025e-08)
(2.99992 7.78225e-06 -1.64084e-08)
(2.99979 1.7731e-05 -2.16971e-08)
(2.99954 4.90261e-05 -2.28963e-08)
(2.99876 0.000103245 -3.12649e-08)
(2.99737 0.00032906 -3.82047e-08)
(2.99218 0.000577161 -7.6051e-08)
(2.98383 0.00237696 -9.2409e-08)
(2.94898 0.0044133 -2.60975e-07)
(2.87259 0.0175 -4.48267e-07)
(2.6361 0.0410019 -1.3257e-06)
(1.85728 0.14015 -2.66614e-06)
(0.882424 0.358348 -4.11181e-06)
(0.419921 0.299667 1.09715e-06)
(0.540844 0.263828 4.23092e-07)
(0.575646 0.264199 1.58393e-07)
(0.51336 0.275217 2.06555e-07)
(0.417382 0.300529 3.20483e-07)
(0.328479 0.328568 3.41028e-07)
(0.257945 0.358258 3.18628e-07)
(0.163517 0.389989 3.14249e-07)
(0.0407488 0.403584 3.08007e-07)
(3 5.76333e-08 -2.41276e-09)
(3 3.10808e-07 -8.77487e-09)
(2.99999 1.16718e-06 -1.02314e-08)
(2.99997 2.98052e-06 -1.59613e-08)
(2.99993 8.39914e-06 -1.62265e-08)
(2.99981 1.91955e-05 -2.12961e-08)
(2.99958 5.23326e-05 -2.18753e-08)
(2.99888 0.000113116 -2.82968e-08)
(2.99756 0.00034113 -3.53092e-08)
(2.99307 0.000632272 -5.224e-08)
(2.98547 0.00245287 -1.00624e-07)
(2.95532 0.00450012 -1.75768e-07)
(2.88952 0.0180741 -4.87671e-07)
(2.68582 0.0428027 -1.08721e-06)
(2.02072 0.146189 -2.68941e-06)
(0.999226 0.392809 -4.68286e-06)
(0.461328 0.341651 9.67921e-07)
(0.581112 0.311134 5.36966e-07)
(0.617074 0.315958 2.28234e-07)
(0.553323 0.33144 2.3916e-07)
(0.457166 0.363945 3.02531e-07)
(0.363844 0.400264 3.21073e-07)
(0.287902 0.438993 2.95638e-07)
(0.187921 0.480818 2.78899e-07)
(0.0545201 0.505584 2.56763e-07)
(3 5.83619e-08 -2.60299e-09)
(3 3.14679e-07 -8.35492e-09)
(2.99999 1.18182e-06 -1.04109e-08)
(2.99997 3.01838e-06 -1.58953e-08)
(2.99993 8.49645e-06 -1.62913e-08)
(2.99983 1.94462e-05 -2.098e-08)
(2.99962 5.24787e-05 -2.18922e-08)
(2.999 0.000116669 -2.74804e-08)
(2.9978 0.000325276 -3.30207e-08)
(2.99393 0.00068811 -4.96181e-08)
(2.98708 0.00218339 -7.73948e-08)
(2.96162 0.00444502 -1.73088e-07)
(2.90665 0.0151408 -3.18182e-07)
(2.73641 0.0396419 -1.13575e-06)
(2.1921 0.119288 -2.34994e-06)
(1.14807 0.349989 -5.63996e-06)
(0.51093 0.368676 6.47246e-07)
(0.613305 0.366257 4.18031e-07)
(0.648498 0.374191 2.23984e-07)
(0.588274 0.3924 2.21724e-07)
(0.498052 0.430297 2.51041e-07)
(0.404849 0.47583 2.74544e-07)
(0.325869 0.527019 2.5964e-07)
(0.222577 0.58361 2.41311e-07)
(0.0769198 0.630159 2.12144e-07)
(3 6.17561e-08 -2.7905e-09)
(3 3.37966e-07 -7.92133e-09)
(2.99999 1.2588e-06 -1.05893e-08)
(2.99997 3.22589e-06 -1.58505e-08)
(2.99994 8.95912e-06 -1.63019e-08)
(2.99985 2.05629e-05 -2.08404e-08)
(2.99966 5.42349e-05 -2.13771e-08)
(2.99911 0.00012159 -2.61842e-08)
(2.99804 0.000320589 -2.95897e-08)
(2.99461 0.000710884 -3.9216e-08)
(2.98862 0.00194256 -6.42054e-08)
(2.96588 0.00429015 -1.00904e-07)
(2.92048 0.0120239 -2.40965e-07)
(2.7676 0.0331693 -6.67765e-07)
(2.30111 0.085289 -9.66762e-07)
(1.29869 0.266012 -3.01709e-06)
(0.55331 0.409521 -4.71624e-07)
(0.629304 0.436615 2.3507e-07)
(0.663248 0.432324 1.94023e-07)
(0.616597 0.454426 1.9053e-07)
(0.540296 0.49581 1.96158e-07)
(0.454378 0.552322 2.23968e-07)
(0.376781 0.618137 2.25447e-07)
(0.276713 0.699925 2.15529e-07)
(0.116853 0.792408 1.7274e-07)
(3 1.09799e-07 -2.97458e-09)
(3 2.57873e-07 -7.5294e-09)
(2.99999 1.69612e-06 -1.08495e-08)
(2.99998 2.79146e-06 -1.59276e-08)
(2.99995 1.19267e-05 -1.65494e-08)
(2.99987 1.82589e-05 -2.11059e-08)
(2.9997 7.31083e-05 -2.16843e-08)
(2.99922 0.00010419 -2.65846e-08)
(2.9983 0.000452746 -2.92505e-08)
(2.99528 0.000495017 -3.77806e-08)
(2.99008 0.00291872 -5.78304e-08)
(2.96984 0.00176145 -7.7366e-08)
(2.93173 0.0187093 -2.18922e-07)
(2.79282 0.0146341 -4.11406e-07)
(2.39081 0.105931 -9.92448e-07)
(1.47548 0.216022 -2.40985e-06)
(0.646003 0.467472 -1.8301e-06)
(0.635311 0.496245 7.98748e-08)
(0.663979 0.486576 1.68791e-07)
(0.644277 0.512646 1.84904e-07)
(0.585939 0.557729 1.7891e-07)
(0.514104 0.624841 1.88522e-07)
(0.447663 0.711337 1.98258e-07)
(0.36885 0.838628 2.01109e-07)
(0.190644 1.05044 1.53697e-07)
(3 7.74885e-09 -5.74941e-13)
(2.99999 3.97338e-08 -2.81649e-12)
(2.99998 1.57429e-07 -7.46456e-12)
(2.99996 4.03092e-07 -1.6018e-11)
(2.9999 1.20176e-06 -3.73004e-11)
(2.99973 2.85227e-06 -7.53283e-11)
(2.99941 7.70097e-06 -1.76145e-10)
(2.99838 1.87194e-05 -3.76569e-10)
(2.99656 4.47076e-05 -8.18442e-10)
(2.98963 0.000110465 -1.80454e-09)
(2.9781 0.000263111 -4.29909e-09)
(2.93158 0.000618035 -8.91221e-09)
(2.82004 0.00167835 -2.30561e-08)
(2.49891 0.00457085 -6.10034e-08)
(1.48099 0.0130923 -1.14909e-07)
(0.639684 0.0319302 -1.24206e-07)
(0.421456 0.0297384 3.67602e-08)
(0.475501 0.0283647 1.01276e-08)
(0.477134 0.0279432 5.01835e-10)
(0.406123 0.0282612 4.69767e-09)
(0.312971 0.0297954 1.12123e-08)
(0.243691 0.0327303 1.31639e-08)
(0.195225 0.0366796 1.50627e-08)
(0.120672 0.0416319 1.50782e-08)
(0.0227228 0.0464904 1.80996e-08)
(3 2.15426e-08 -5.47607e-13)
(2.99999 1.10319e-07 -2.68527e-12)
(2.99998 4.39348e-07 -7.12322e-12)
(2.99996 1.12207e-06 -1.52709e-11)
(2.9999 3.39017e-06 -3.64381e-11)
(2.99974 8.05803e-06 -7.45606e-11)
(2.99943 2.22323e-05 -1.78577e-10)
(2.99841 5.47285e-05 -4.00341e-10)
(2.99664 0.000131553 -8.09009e-10)
(2.98981 0.000336509 -2.01033e-09)
(2.97853 0.000785874 -4.11367e-09)
(2.93271 0.00190095 -9.21924e-09)
(2.82354 0.00516394 -2.29618e-08)
(2.50748 0.0141646 -6.12197e-08)
(1.50026 0.040809 -1.16485e-07)
(0.651642 0.0961244 -1.28712e-07)
(0.417376 0.0835461 3.79444e-08)
(0.476486 0.076095 1.08676e-08)
(0.480846 0.07352 8.47882e-10)
(0.411016 0.0731343 4.94248e-09)
(0.317832 0.0755619 1.09637e-08)
(0.246705 0.0798491 1.29914e-08)
(0.195709 0.0853139 1.4692e-08)
(0.119241 0.0919747 1.49081e-08)
(0.020721 0.095546 1.78762e-08)
(3 3.05645e-08 -4.89396e-13)
(2.99999 1.59947e-07 -2.44711e-12)
(2.99998 6.26625e-07 -6.24877e-12)
(2.99996 1.59526e-06 -1.32917e-11)
(2.99991 4.78506e-06 -3.17222e-11)
(2.99975 1.12091e-05 -6.51776e-11)
(2.99945 3.20049e-05 -1.67165e-10)
(2.99847 7.68606e-05 -3.99146e-10)
(2.9968 0.000201017 -7.79721e-10)
(2.99017 0.000513412 -2.38863e-09)
(2.97942 0.0012533 -3.61231e-09)
(2.93507 0.00320774 -1.07385e-08)
(2.83096 0.00849996 -2.16602e-08)
(2.52616 0.024458 -6.44142e-08)
(1.54505 0.0696661 -1.19116e-07)
(0.680951 0.166265 -1.41005e-07)
(0.412598 0.14024 4.17666e-08)
(0.481987 0.125751 1.25266e-08)
(0.491617 0.122507 1.95325e-09)
(0.423984 0.123469 5.65873e-09)
(0.330854 0.129715 1.10534e-08)
(0.256969 0.138198 1.28008e-08)
(0.202601 0.148382 1.40614e-08)
(0.123555 0.160175 1.41851e-08)
(0.0221554 0.164361 1.73229e-08)
(3 3.82398e-08 -4.43886e-13)
(2.99999 2.07114e-07 -2.30567e-12)
(2.99999 7.81516e-07 -5.41618e-12)
(2.99996 1.99201e-06 -1.14503e-11)
(2.99991 5.70642e-06 -2.39423e-11)
(2.99976 1.30086e-05 -4.58683e-11)
(2.99948 3.70746e-05 -1.18583e-10)
(2.99855 8.0168e-05 -2.22931e-10)
(2.997 0.000248673 -7.16579e-10)
(2.99068 0.00052538 -1.42508e-09)
(2.9808 0.0016959 -4.3482e-09)
(2.93847 0.00386924 -1.00344e-08)
(2.84256 0.0119654 -2.16724e-08)
(2.55449 0.0326596 -7.12065e-08)
(1.61659 0.0973096 -1.21404e-07)
(0.728746 0.235289 -1.60348e-07)
(0.407973 0.194969 4.83323e-08)
(0.493175 0.172748 1.59068e-08)
(0.510623 0.169932 4.06584e-09)
(0.445741 0.173445 7.22977e-09)
(0.352429 0.184919 1.21232e-08)
(0.274579 0.198771 1.31599e-08)
(0.215685 0.214653 1.3358e-08)
(0.13256 0.232392 1.2939e-08)
(0.0259569 0.237774 1.68144e-08)
(3 4.67935e-08 -4.4173e-13)
(2.99999 2.54594e-07 -2.31322e-12)
(2.99999 9.52678e-07 -5.37212e-12)
(2.99996 2.42819e-06 -1.13073e-11)
(2.99992 6.84781e-06 -2.3053e-11)
(2.99978 1.55259e-05 -4.34726e-11)
(2.99951 4.33738e-05 -1.05389e-10)
(2.99865 8.93017e-05 -1.7577e-10)
(2.99717 0.000293579 -6.49741e-10)
(2.99137 0.000530713 -7.50353e-10)
(2.98224 0.00210427 -4.68487e-09)
(2.94321 0.00412419 -5.97751e-09)
(2.85684 0.0153132 -2.79321e-08)
(2.59148 0.0375788 -5.45029e-08)
(1.72083 0.122149 -1.4252e-07)
(0.795564 0.300428 -1.80905e-07)
(0.407521 0.248055 5.39882e-08)
(0.511727 0.21804 1.90823e-08)
(0.538493 0.216405 5.83976e-09)
(0.475822 0.223363 8.63423e-09)
(0.381522 0.241242 1.35375e-08)
(0.298454 0.26161 1.41409e-08)
(0.234116 0.283812 1.31009e-08)
(0.145783 0.307935 1.14809e-08)
(0.0319471 0.315876 1.55583e-08)
(3 5.31491e-08 -4.20461e-13)
(2.99999 2.87229e-07 -2.21148e-12)
(2.99999 1.07947e-06 -5.09348e-12)
(2.99997 2.75031e-06 -1.05629e-11)
(2.99992 7.78248e-06 -2.17566e-11)
(2.99979 1.77315e-05 -4.07282e-11)
(2.99954 4.90274e-05 -1.00504e-10)
(2.99876 0.000103247 -1.75892e-10)
(2.99737 0.000329068 -6.14689e-10)
(2.99218 0.000577171 -8.61116e-10)
(2.98383 0.00237701 -4.29754e-09)
(2.94898 0.00441341 -6.09147e-09)
(2.87259 0.0175004 -2.70868e-08)
(2.63609 0.0410027 -5.27413e-08)
(1.85726 0.140152 -1.42585e-07)
(0.882409 0.358349 -2.02305e-07)
(0.419926 0.299668 5.38946e-08)
(0.540842 0.263829 2.00959e-08)
(0.575642 0.2642 7.36918e-09)
(0.513359 0.275217 9.71765e-09)
(0.417381 0.300528 1.44668e-08)
(0.328479 0.328566 1.45627e-08)
(0.257945 0.358256 1.26054e-08)
(0.16352 0.389987 9.40009e-09)
(0.0407508 0.403586 1.38721e-08)
(3 5.76353e-08 -4.05909e-13)
(3 3.10818e-07 -2.13568e-12)
(2.99999 1.16722e-06 -4.88896e-12)
(2.99997 2.98062e-06 -1.01547e-11)
(2.99993 8.39937e-06 -2.06588e-11)
(2.99981 1.9196e-05 -3.88302e-11)
(2.99958 5.23341e-05 -9.27336e-11)
(2.99888 0.000113118 -1.72931e-10)
(2.99756 0.000341142 -5.52984e-10)
(2.99307 0.000632285 -7.00887e-10)
(2.98547 0.00245296 -3.93823e-09)
(2.95532 0.00450027 -4.80501e-09)
(2.88952 0.0180749 -2.51959e-08)
(2.68581 0.0428041 -4.5466e-08)
(2.02069 0.146194 -1.37317e-07)
(0.999207 0.392819 -2.28481e-07)
(0.461328 0.341655 4.43178e-08)
(0.58111 0.311135 2.33246e-08)
(0.617073 0.315958 1.00338e-08)
(0.553323 0.33144 1.07934e-08)
(0.457167 0.363944 1.34753e-08)
(0.363845 0.400262 1.37704e-08)
(0.287903 0.438991 1.16793e-08)
(0.187924 0.480817 8.08752e-09)
(0.0545227 0.505586 1.2432e-08)
(3 5.83641e-08 -3.81655e-13)
(3 3.14689e-07 -2.05162e-12)
(2.99999 1.18186e-06 -4.59411e-12)
(2.99997 3.01848e-06 -9.55874e-12)
(2.99993 8.49674e-06 -1.88736e-11)
(2.99983 1.94468e-05 -3.51306e-11)
(2.99962 5.24807e-05 -8.02001e-11)
(2.999 0.000116673 -1.52956e-10)
(2.9978 0.000325291 -4.14643e-10)
(2.99393 0.000688136 -7.79837e-10)
(2.98708 0.00218351 -2.61953e-09)
(2.96162 0.00444523 -4.49949e-09)
(2.90665 0.0151417 -1.73845e-08)
(2.7364 0.0396438 -4.46922e-08)
(2.19208 0.119296 -1.20203e-07)
(1.14805 0.350007 -2.69883e-07)
(0.510935 0.368679 2.74774e-08)
(0.613308 0.366255 1.74515e-08)
(0.648501 0.37419 9.82027e-09)
(0.588276 0.392399 9.80405e-09)
(0.498055 0.430295 1.07061e-08)
(0.404851 0.475828 1.13252e-08)
(0.32587 0.527017 9.84216e-09)
(0.22258 0.583608 6.32749e-09)
(0.0769229 0.630161 1.13652e-08)
(3 6.17576e-08 -3.53071e-13)
(3 3.37971e-07 -1.94343e-12)
(2.99999 1.25882e-06 -4.15757e-12)
(2.99997 3.22595e-06 -8.64119e-12)
(2.99994 8.95931e-06 -1.56114e-11)
(2.99985 2.05633e-05 -2.81256e-11)
(2.99966 5.42363e-05 -5.77312e-11)
(2.99911 0.000121594 -1.04937e-10)
(2.99804 0.000320599 -2.78579e-10)
(2.99461 0.000710907 -4.67263e-10)
(2.98862 0.00194263 -1.84173e-09)
(2.96588 0.00429032 -2.60053e-09)
(2.92048 0.0120244 -1.12449e-08)
(2.7676 0.0331708 -2.80583e-08)
(2.3011 0.0852935 -4.92154e-08)
(1.29867 0.266027 -1.44322e-07)
(0.553309 0.409519 -2.81169e-08)
(0.629308 0.436613 9.07083e-09)
(0.663254 0.432322 8.39152e-09)
(0.616601 0.454425 8.18716e-09)
(0.540299 0.495809 7.91731e-09)
(0.45438 0.55232 8.74511e-09)
(0.376782 0.618135 8.70815e-09)
(0.276716 0.699924 5.68191e-09)
(0.116856 0.792411 1.03539e-08)
(3 1.09797e-07 -3.44219e-13)
(3 2.57884e-07 -1.91958e-12)
(2.99999 1.69611e-06 -4.06883e-12)
(2.99998 2.7915e-06 -8.46493e-12)
(2.99995 1.19267e-05 -1.50319e-11)
(2.99987 1.82591e-05 -2.70945e-11)
(2.9997 7.31091e-05 -5.32642e-11)
(2.99922 0.000104191 -9.66119e-11)
(2.9983 0.000452752 -2.35363e-10)
(2.99528 0.000495021 -3.93502e-10)
(2.99008 0.00291876 -1.45369e-09)
(2.96984 0.00176146 -1.9367e-09)
(2.93173 0.0187096 -9.38902e-09)
(2.79282 0.0146347 -1.79741e-08)
(2.3908 0.105932 -4.95981e-08)
(1.47547 0.216029 -1.16737e-07)
(0.645997 0.467471 -9.64527e-08)
(0.635317 0.496246 2.44725e-09)
(0.663985 0.486576 7.2006e-09)
(0.644281 0.512645 7.76436e-09)
(0.585942 0.557728 7.06372e-09)
(0.514106 0.62484 7.25681e-09)
(0.447664 0.711335 7.70151e-09)
(0.368853 0.838627 5.67366e-09)
(0.190648 1.05044 9.98274e-09)
(3 7.749e-09 -2.57506e-13)
(2.99999 3.97345e-08 -1.10396e-12)
(2.99998 1.57432e-07 -3.92576e-12)
(2.99996 4.03099e-07 -8.60839e-12)
(2.9999 1.20178e-06 -2.52521e-11)
(2.99973 2.85231e-06 -5.3135e-11)
(2.99941 7.70103e-06 -1.38423e-10)
(2.99838 1.87195e-05 -3.00329e-10)
(2.99656 4.47078e-05 -6.93579e-10)
(2.98963 0.000110464 -1.48225e-09)
(2.9781 0.000263112 -3.8123e-09)
(2.93158 0.000618034 -7.51593e-09)
(2.82004 0.00167836 -2.05859e-08)
(2.49891 0.00457085 -5.21792e-08)
(1.48098 0.0130923 -1.0097e-07)
(0.639682 0.0319301 -1.06289e-07)
(0.421458 0.0297384 3.33593e-08)
(0.475502 0.0283647 8.78481e-09)
(0.477134 0.0279432 7.56557e-11)
(0.406123 0.0282612 4.7299e-09)
(0.312971 0.0297953 1.25998e-08)
(0.24369 0.0327303 1.518e-08)
(0.195225 0.0366795 1.68557e-08)
(0.120672 0.0416317 1.91193e-08)
(0.0227233 0.0464909 2.00167e-08)
(3 2.1543e-08 -2.33706e-13)
(2.99999 1.10321e-07 -9.9076e-13)
(2.99998 4.39356e-07 -3.61776e-12)
(2.99996 1.12209e-06 -7.92534e-12)
(2.9999 3.39023e-06 -2.42918e-11)
(2.99974 8.05817e-06 -5.18872e-11)
(2.99943 2.22325e-05 -1.39101e-10)
(2.99841 5.4729e-05 -3.15716e-10)
(2.99664 0.000131554 -6.83763e-10)
(2.98981 0.000336508 -1.63762e-09)
(2.97853 0.000785879 -3.6575e-09)
(2.93271 0.00190094 -7.76105e-09)
(2.82354 0.00516396 -2.05071e-08)
(2.50747 0.0141645 -5.23574e-08)
(1.50025 0.040809 -1.02278e-07)
(0.65164 0.0961242 -1.10081e-07)
(0.417378 0.0835461 3.44797e-08)
(0.476486 0.0760951 9.41045e-09)
(0.480846 0.0735201 3.14531e-10)
(0.411015 0.0731344 4.78079e-09)
(0.317832 0.0755619 1.22401e-08)
(0.246704 0.079849 1.47858e-08)
(0.195709 0.0853137 1.64494e-08)
(0.119242 0.0919745 1.87095e-08)
(0.0207207 0.0955463 1.94786e-08)
(3 3.05649e-08 -1.85347e-13)
(2.99999 1.59949e-07 -7.86047e-13)
(2.99998 6.26634e-07 -2.88498e-12)
(2.99996 1.59528e-06 -6.2588e-12)
(2.99991 4.78514e-06 -2.02045e-11)
(2.99975 1.12093e-05 -4.3572e-11)
(2.99945 3.20054e-05 -1.27245e-10)
(2.99847 7.68623e-05 -3.0358e-10)
(2.9968 0.000201019 -6.56372e-10)
(2.99017 0.000513421 -1.84613e-09)
(2.97942 0.0012533 -3.33048e-09)
(2.93507 0.00320776 -8.72319e-09)
(2.83095 0.00849997 -1.97418e-08)
(2.52616 0.0244579 -5.45235e-08)
(1.54505 0.069666 -1.04867e-07)
(0.680948 0.166265 -1.20364e-07)
(0.412599 0.14024 3.7952e-08)
(0.481987 0.125751 1.10339e-08)
(0.491616 0.122507 1.35543e-09)
(0.423984 0.123469 5.33373e-09)
(0.330854 0.129715 1.20392e-08)
(0.256968 0.138198 1.4242e-08)
(0.202601 0.148382 1.571e-08)
(0.123556 0.160175 1.79651e-08)
(0.0221548 0.164361 1.85231e-08)
(3 3.824e-08 -1.44129e-13)
(2.99999 2.07115e-07 -6.467e-13)
(2.99999 7.8152e-07 -2.14771e-12)
(2.99996 1.99202e-06 -4.61405e-12)
(2.99991 5.70647e-06 -1.37762e-11)
(2.99976 1.30087e-05 -2.79373e-11)
(2.99948 3.7075e-05 -8.92646e-11)
(2.99855 8.01693e-05 -1.71195e-10)
(2.997 0.000248674 -5.98851e-10)
(2.99068 0.000525392 -1.13999e-09)
(2.9808 0.0016959 -3.78828e-09)
(2.93847 0.00386928 -7.98797e-09)
(2.84256 0.0119654 -2.01502e-08)
(2.55449 0.0326598 -5.82607e-08)
(1.61659 0.0973095 -1.08187e-07)
(0.728743 0.235288 -1.36614e-07)
(0.407974 0.194969 4.38097e-08)
(0.493175 0.172748 1.42874e-08)
(0.510623 0.169932 3.44199e-09)
(0.445741 0.173445 6.76367e-09)
(0.352428 0.184919 1.2618e-08)
(0.274578 0.19877 1.40886e-08)
(0.215685 0.214653 1.46612e-08)
(0.132561 0.232392 1.65675e-08)
(0.0259563 0.237775 1.67153e-08)
(3 4.67936e-08 -1.44452e-13)
(2.99999 2.54595e-07 -6.51854e-13)
(2.99999 9.5268e-07 -2.13265e-12)
(2.99996 2.4282e-06 -4.60672e-12)
(2.99992 6.84782e-06 -1.31007e-11)
(2.99978 1.55259e-05 -2.62556e-11)
(2.99951 4.33739e-05 -7.83841e-11)
(2.99865 8.9302e-05 -1.31837e-10)
(2.99717 0.00029358 -5.46708e-10)
(2.99137 0.000530716 -5.95944e-10)
(2.98224 0.00210428 -4.09603e-09)
(2.94321 0.00412422 -5.08238e-09)
(2.85684 0.0153132 -2.43144e-08)
(2.59148 0.037579 -4.72107e-08)
(1.72082 0.122149 -1.23337e-07)
(0.795561 0.300428 -1.53987e-07)
(0.407522 0.248055 4.89342e-08)
(0.511727 0.21804 1.7515e-08)
(0.538492 0.216406 5.29706e-09)
(0.475822 0.223363 8.0974e-09)
(0.381522 0.241242 1.34697e-08)
(0.298453 0.26161 1.43068e-08)
(0.234116 0.283812 1.37305e-08)
(0.145783 0.307935 1.47959e-08)
(0.0319464 0.315876 1.42394e-08)
(3 5.31493e-08 -1.22246e-13)
(2.99999 2.8723e-07 -5.51159e-13)
(2.99999 1.07947e-06 -1.83087e-12)
(2.99997 2.75032e-06 -3.92335e-12)
(2.99992 7.78251e-06 -1.16537e-11)
(2.99979 1.77316e-05 -2.34544e-11)
(2.99954 4.90276e-05 -7.32631e-11)
(2.99876 0.000103247 -1.3013e-10)
(2.99737 0.00032907 -5.12835e-10)
(2.99218 0.000577172 -6.9054e-10)
(2.98383 0.00237702 -3.73407e-09)
(2.94898 0.00441342 -5.132e-09)
(2.87258 0.0175004 -2.35466e-08)
(2.63609 0.0410028 -4.52689e-08)
(1.85725 0.140153 -1.22523e-07)