/*--------------------------------*- C++ -*----------------------------------*\
| =========                 |                                                 |
| \\      /  F ield         | OpenFOAM: The Open Source CFD Toolbox           |
|  \\    /   O peration     | Version:  4.1                                   |
|   \\  /    A nd           | Web:      www.OpenFOAM.org                      |
|    \\/     M anipulation  |                                                 |
\*---------------------------------------------------------------------------*/
FoamFile
{
    version     2.0;
    format      ascii;
    class       volScalarField;
    location    "2.62";
    object      p;
}
// * * * * * * * * * * * * * * * * * * * * * * * * * * * * * * * * * * * * * //

dimensions      [1 -1 -2 0 0 0 0];

internalField   nonuniform List<scalar> 
52500
(
1.00001
1.00003
1.0001
1.00022
1.00064
1.00131
1.00375
1.00737
1.02274
1.04059
1.14774
1.25917
2.00192
3.33069
7.99397
11.5817
11.208
10.9593
11.0366
11.2591
11.4936
11.6355
11.7394
11.8221
11.8821
1.00001
1.00003
1.0001
1.00022
1.00063
1.00129
1.00369
1.00727
1.02242
1.04005
1.14559
1.25537
1.98517
3.29196
7.88907
11.5908
11.2053
10.9486
11.0271
11.2508
11.4853
11.6272
11.7326
11.8165
11.878
1.00001
1.00003
1.0001
1.00021
1.00061
1.00126
1.00359
1.00708
1.02176
1.03898
1.14112
1.24754
1.94956
3.2085
7.65361
11.6085
11.1959
10.9169
10.9944
11.2165
11.4484
11.5879
11.6926
11.7762
11.8388
1.00001
1.00003
1.00009
1.0002
1.00059
1.0012
1.00344
1.0068
1.02077
1.03741
1.13427
1.236
1.89594
3.08305
7.29055
11.6363
11.1828
10.8649
10.939
11.1553
11.3829
11.5178
11.6193
11.7015
11.7663
1.00001
1.00002
1.00009
1.00019
1.00056
1.00115
1.00328
1.00659
1.01943
1.03663
1.12317
1.22409
1.82216
2.92031
6.80299
11.663
11.1678
10.7955
10.8632
11.0694
11.2916
11.4203
11.5167
11.596
11.6633
1
1.00002
1.00008
1.00018
1.00052
1.00108
1.00306
1.00617
1.01789
1.03488
1.11119
1.20872
1.73909
2.73127
6.21538
11.6536
11.1418
10.711
10.7685
10.957
11.1708
11.2887
11.3751
11.4476
11.5178
1
1.00002
1.00008
1.00017
1.00048
1.00099
1.0028
1.00566
1.01632
1.03212
1.09991
1.1918
1.65537
2.53586
5.59371
11.5329
11.071
10.6083
10.6537
10.8159
11.0145
11.1161
11.185
11.2409
11.3065
1
1.00002
1.00007
1.00015
1.00043
1.00089
1.00254
1.00513
1.0148
1.02917
1.09044
1.17345
1.59018
2.37953
5.16605
11.1289
10.8867
10.4928
10.5198
10.6407
10.8134
10.8901
10.9282
10.9486
10.9906
1
1.00002
1.00006
1.00013
1.00039
1.00079
1.00226
1.00456
1.01319
1.02573
1.08171
1.15047
1.53248
2.21934
4.74226
10.4393
10.5911
10.4161
10.3778
10.4388
10.5655
10.6032
10.5905
10.5336
10.4802
1
1.00001
1.00005
1.00011
1.00032
1.00066
1.0019
1.00369
1.01156
1.02014
1.07408
1.12405
1.48026
2.05069
4.31034
9.57979
10.434
10.3185
10.2032
10.2237
10.274
10.2547
10.1603
9.93479
9.58227
1.00001
1.00003
1.0001
1.00023
1.00064
1.00131
1.00375
1.00738
1.02275
1.04061
1.14776
1.25922
2.00196
3.33091
7.99438
11.5817
11.2081
10.9594
11.0367
11.2592
11.4937
11.6356
11.7395
11.8222
11.8822
1.00001
1.00003
1.0001
1.00022
1.00064
1.0013
1.0037
1.00728
1.02243
1.04007
1.14561
1.25541
1.98522
3.29216
7.88947
11.5908
11.2054
10.9487
11.0271
11.2509
11.4853
11.6273
11.7327
11.8166
11.8781
1.00001
1.00003
1.0001
1.00022
1.00062
1.00126
1.0036
1.00709
1.02177
1.039
1.14114
1.24759
1.9496
3.2087
7.654
11.6084
11.196
10.9169
10.9945
11.2166
11.4485
11.588
11.6927
11.7763
11.8389
1.00001
1.00003
1.0001
1.00021
1.00059
1.00121
1.00345
1.00682
1.02078
1.03744
1.13427
1.23608
1.89592
3.08323
7.29092
11.6363
11.1829
10.865
10.9391
11.1554
11.383
11.5179
11.6194
11.7016
11.7664
1.00001
1.00003
1.00009
1.0002
1.00057
1.00116
1.00329
1.0066
1.01944
1.03666
1.12317
1.22415
1.82215
2.92046
6.80329
11.663
11.1679
10.7956
10.8633
11.0695
11.2917
11.4204
11.5168
11.5961
11.6634
1.00001
1.00003
1.00009
1.00019
1.00053
1.00108
1.00306
1.00618
1.0179
1.0349
1.1112
1.20877
1.7391
2.7314
6.21564
11.6536
11.1419
10.7111
10.7685
10.9571
11.1709
11.2888
11.3752
11.4477
11.518
1.00001
1.00002
1.00008
1.00017
1.00049
1.001
1.00281
1.00567
1.01633
1.03213
1.09992
1.19184
1.65539
2.53596
5.59386
11.533
11.0711
10.6084
10.6538
10.816
11.0146
11.1162
11.1852
11.241
11.3067
1
1.00002
1.00007
1.00015
1.00044
1.0009
1.00254
1.00514
1.01481
1.02918
1.09045
1.17348
1.5902
2.37962
5.16619
11.1291
10.8868
10.4928
10.5198
10.6408
10.8135
10.8902
10.9283
10.9487
10.9907
1
1.00002
1.00006
1.00014
1.00039
1.0008
1.00226
1.00457
1.0132
1.02575
1.08172
1.15051
1.53249
2.21943
4.74237
10.4395
10.5911
10.4161
10.3778
10.4388
10.5656
10.6032
10.5905
10.5337
10.4803
1
1.00002
1.00005
1.00012
1.00033
1.00067
1.0019
1.0037
1.01157
1.02015
1.07409
1.12408
1.48027
2.05079
4.31042
9.58005
10.4341
10.3185
10.2032
10.2238
10.274
10.2548
10.1604
9.93488
9.58235
1.00001
1.00003
1.0001
1.00023
1.00064
1.00131
1.00375
1.00738
1.02275
1.04061
1.14776
1.25922
2.00197
3.33091
7.99439
11.5817
11.2081
10.9594
11.0367
11.2592
11.4937
11.6356
11.7395
11.8222
11.8822
1.00001
1.00003
1.0001
1.00022
1.00064
1.0013
1.0037
1.00728
1.02243
1.04007
1.14561
1.25541
1.98522
3.29217
7.88948
11.5908
11.2054
10.9487
11.0271
11.2509
11.4853
11.6273
11.7327
11.8166
11.8781
1.00001
1.00003
1.0001
1.00022
1.00062
1.00126
1.0036
1.00709
1.02177
1.039
1.14114
1.24759
1.9496
3.2087
7.65402
11.6084
11.196
10.9169
10.9945
11.2166
11.4485
11.588
11.6927
11.7763
11.8389
1.00001
1.00003
1.0001
1.00021
1.00059
1.00121
1.00345
1.00682
1.02078
1.03744
1.13427
1.23608
1.89593
3.08324
7.29094
11.6363
11.1829
10.865
10.9391
11.1554
11.383
11.5179
11.6194
11.7016
11.7664
1.00001
1.00003
1.00009
1.0002
1.00057
1.00116
1.00329
1.0066
1.01944
1.03666
1.12317
1.22415
1.82215
2.92047
6.80331
11.663
11.1679
10.7956
10.8633
11.0695
11.2917
11.4204
11.5168
11.5961
11.6634
1.00001
1.00003
1.00009
1.00019
1.00053
1.00108
1.00306
1.00618
1.0179
1.0349
1.1112
1.20877
1.7391
2.7314
6.21566
11.6536
11.1419
10.7111
10.7685
10.9571
11.1709
11.2888
11.3752
11.4477
11.518
1.00001
1.00002
1.00008
1.00017
1.00049
1.001
1.00281
1.00567
1.01633
1.03213
1.09992
1.19184
1.65539
2.53596
5.59387
11.533
11.0711
10.6084
10.6538
10.816
11.0146
11.1162
11.1852
11.241
11.3067
1
1.00002
1.00007
1.00015
1.00044
1.0009
1.00254
1.00514
1.01481
1.02918
1.09045
1.17348
1.5902
2.37962
5.1662
11.1291
10.8868
10.4929
10.5198
10.6408
10.8135
10.8902
10.9283
10.9487
10.9907
1
1.00002
1.00006
1.00014
1.00039
1.0008
1.00226
1.00457
1.0132
1.02575
1.08172
1.15051
1.53249
2.21943
4.74238
10.4395
10.5911
10.4161
10.3778
10.4388
10.5656
10.6032
10.5905
10.5337
10.4803
1
1.00002
1.00005
1.00012
1.00033
1.00067
1.0019
1.0037
1.01157
1.02015
1.07409
1.12408
1.48027
2.05079
4.31043
9.58006
10.4341
10.3185
10.2032
10.2238
10.274
10.2548
10.1604
9.93488
9.58235
1.00001
1.00003
1.0001
1.00023
1.00064
1.00131
1.00375
1.00738
1.02275
1.04061
1.14776
1.25922
2.00197
3.33091
7.99439
11.5817
11.2081
10.9594
11.0367
11.2592
11.4937
11.6356
11.7395
11.8222
11.8822
1.00001
1.00003
1.0001
1.00022
1.00064
1.0013
1.0037
1.00728
1.02243
1.04007
1.14561
1.25541
1.98522
3.29217
7.88948
11.5908
11.2054
10.9487
11.0271
11.2509
11.4853
11.6273
11.7327
11.8166
11.8781
1.00001
1.00003
1.0001
1.00022
1.00062
1.00126
1.0036
1.00709
1.02177
1.039
1.14114
1.24759
1.9496
3.2087
7.65402
11.6084
11.196
10.9169
10.9945
11.2166
11.4485
11.588
11.6927
11.7763
11.8389
1.00001
1.00003
1.0001
1.00021
1.00059
1.00121
1.00345
1.00682
1.02078
1.03744
1.13427
1.23608
1.89593
3.08324
7.29094
11.6363
11.1829
10.865
10.9391
11.1554
11.383
11.5179
11.6194
11.7016
11.7664
1.00001
1.00003
1.00009
1.0002
1.00057
1.00116
1.00329
1.0066
1.01944
1.03666
1.12317
1.22415
1.82215
2.92047
6.80331
11.663
11.1679
10.7956
10.8633
11.0695
11.2917
11.4204
11.5168
11.5961
11.6634
1.00001
1.00003
1.00009
1.00019
1.00053
1.00108
1.00306
1.00618
1.0179
1.0349
1.1112
1.20877
1.7391
2.7314
6.21566
11.6536
11.1419
10.7111
10.7685
10.9571
11.1709
11.2888
11.3752
11.4477
11.518
1.00001
1.00002
1.00008
1.00017
1.00049
1.001
1.00281
1.00567
1.01633
1.03213
1.09992
1.19184
1.65539
2.53596
5.59387
11.533
11.0711
10.6084
10.6538
10.816
11.0146
11.1162
11.1852
11.241
11.3067
1
1.00002
1.00007
1.00015
1.00044
1.0009
1.00254
1.00514
1.01481
1.02918
1.09045
1.17348
1.5902
2.37962
5.1662
11.1291
10.8868
10.4929
10.5198
10.6408
10.8135
10.8902
10.9283
10.9487
10.9907
1
1.00002
1.00006
1.00014
1.00039
1.0008
1.00226
1.00457
1.0132
1.02575
1.08172
1.15051
1.53249
2.21943
4.74238
10.4395
10.5911
10.4161
10.3778
10.4388
10.5656
10.6032
10.5905
10.5337
10.4803
1
1.00002
1.00005
1.00012
1.00033
1.00067
1.0019
1.0037
1.01157
1.02015
1.07409
1.12408
1.48027
2.05079
4.31043
9.58006
10.4341
10.3185
10.2032
10.2238
10.274
10.2548
10.1604
9.93488
9.58235
1.00001
1.00003
1.0001
1.00023
1.00064
1.00131
1.00375
1.00738
1.02275
1.04061
1.14776
1.25922
2.00197
3.33091
7.99439
11.5817
11.2081
10.9594
11.0367
11.2592
11.4937
11.6356
11.7395
11.8222
11.8822
1.00001
1.00003
1.0001
1.00022
1.00064
1.0013
1.0037
1.00728
1.02243
1.04007
1.14561
1.25541
1.98522
3.29217
7.88948
11.5908
11.2054
10.9487
11.0271
11.2509
11.4853
11.6273
11.7327
11.8166
11.8781
1.00001
1.00003
1.0001
1.00022
1.00062
1.00126
1.0036
1.00709
1.02177
1.039
1.14114
1.24759
1.9496
3.2087
7.65402
11.6084
11.196
10.9169
10.9945
11.2166
11.4485
11.588
11.6927
11.7763
11.8389
1.00001
1.00003
1.0001
1.00021
1.00059
1.00121
1.00345
1.00682
1.02078
1.03744
1.13427
1.23608
1.89593
3.08324
7.29094
11.6363
11.1829
10.865
10.9391
11.1554
11.383
11.5179
11.6194
11.7016
11.7664
1.00001
1.00003
1.00009
1.0002
1.00057
1.00116
1.00329
1.0066
1.01944
1.03666
1.12317
1.22415
1.82215
2.92047
6.80331
11.663
11.1679
10.7956
10.8633
11.0695
11.2917
11.4204
11.5168
11.5961
11.6634
1.00001
1.00003
1.00009
1.00019
1.00053
1.00108
1.00306
1.00618
1.0179
1.0349
1.1112
1.20877
1.7391
2.7314
6.21566
11.6536
11.1419
10.7111
10.7685
10.9571
11.1709
11.2888
11.3752
11.4477
11.518
1.00001
1.00002
1.00008
1.00017
1.00049
1.001
1.00281
1.00567
1.01633
1.03213
1.09992
1.19184
1.65539
2.53596
5.59387
11.533
11.0711
10.6084
10.6538
10.816
11.0146
11.1162
11.1852
11.241
11.3067
1
1.00002
1.00007
1.00015
1.00044
1.0009
1.00254
1.00514
1.01481
1.02918
1.09045
1.17348
1.5902
2.37962
5.1662
11.1291
10.8868
10.4929
10.5198
10.6408
10.8135
10.8902
10.9283
10.9487
10.9907
1
1.00002
1.00006
1.00014
1.00039
1.0008
1.00226
1.00457
1.0132
1.02575
1.08172
1.15051
1.53249
2.21943
4.74238
10.4395
10.5911
10.4161
10.3778
10.4388
10.5656
10.6032
10.5905
10.5337
10.4803
1
1.00002
1.00005
1.00012
1.00033
1.00067
1.0019
1.0037
1.01157
1.02015
1.07409
1.12408
1.48027
2.05079
4.31043
9.58006
10.4341
10.3185
10.2032
10.2238
10.274
10.2548
10.1604
9.93488
9.58235
1.00001
1.00003
1.0001
1.00023
1.00064
1.00131
1.00375
1.00738
1.02275
1.04061
1.14776
1.25922
2.00197
3.33091
7.99439
11.5817
11.2081
10.9594
11.0367
11.2592
11.4937
11.6356
11.7395
11.8222
11.8822
1.00001
1.00003
1.0001
1.00022
1.00064
1.0013
1.0037
1.00728
1.02243
1.04007
1.14561
1.25541
1.98522
3.29217
7.88948
11.5908
11.2054
10.9487
11.0271
11.2509
11.4853
11.6273
11.7327
11.8166
11.8781
1.00001
1.00003
1.0001
1.00022
1.00062
1.00126
1.0036
1.00709
1.02177
1.039
1.14114
1.24759
1.9496
3.2087
7.65402
11.6084
11.196
10.9169
10.9945
11.2166
11.4485
11.588
11.6927
11.7763
11.8389
1.00001
1.00003
1.0001
1.00021
1.00059
1.00121
1.00345
1.00682
1.02078
1.03744
1.13427
1.23608
1.89593
3.08324
7.29094
11.6363
11.1829
10.865
10.9391
11.1554
11.383
11.5179
11.6194
11.7016
11.7664
1.00001
1.00003
1.00009
1.0002
1.00057
1.00116
1.00329
1.0066
1.01944
1.03666
1.12317
1.22415
1.82215
2.92047
6.80331
11.663
11.1679
10.7956
10.8633
11.0695
11.2917
11.4204
11.5168
11.5961
11.6634
1.00001
1.00003
1.00009
1.00019
1.00053
1.00108
1.00306
1.00618
1.0179
1.0349
1.1112
1.20877
1.7391
2.7314
6.21566
11.6536
11.1419
10.7111
10.7685
10.9571
11.1709
11.2888
11.3752
11.4477
11.518
1.00001
1.00002
1.00008
1.00017
1.00049
1.001
1.00281
1.00567
1.01633
1.03213
1.09992
1.19184
1.65539
2.53596
5.59387
11.533
11.0711
10.6084
10.6538
10.816
11.0146
11.1162
11.1852
11.241
11.3067
1
1.00002
1.00007
1.00015
1.00044
1.0009
1.00254
1.00514
1.01481
1.02918
1.09045
1.17348
1.5902
2.37962
5.1662
11.1291
10.8868
10.4929
10.5198
10.6408
10.8135
10.8902
10.9283
10.9487
10.9907
1
1.00002
1.00006
1.00014
1.00039
1.0008
1.00226
1.00457
1.0132
1.02575
1.08172
1.15051
1.53249
2.21943
4.74238
10.4395
10.5911
10.4161
10.3778
10.4388
10.5656
10.6032
10.5905
10.5337
10.4803
1
1.00002
1.00005
1.00012
1.00033
1.00067
1.0019
1.0037
1.01157
1.02015
1.07409
1.12408
1.48027
2.05079
4.31043
9.58006
10.4341
10.3185
10.2032
10.2238
10.274
10.2548
10.1604
9.93488
9.58235
1.00001
1.00003
1.0001
1.00023
1.00064
1.00131
1.00375
1.00738
1.02275
1.04061
1.14776
1.25922
2.00197
3.33091
7.99439
11.5817
11.2081
10.9594
11.0367
11.2592
11.4937
11.6356
11.7395
11.8222
11.8822
1.00001
1.00003
1.0001
1.00022
1.00064
1.0013
1.0037
1.00728
1.02243
1.04007
1.14561
1.25541
1.98522
3.29217
7.88948
11.5908
11.2054
10.9487
11.0271
11.2509
11.4853
11.6273
11.7327
11.8166
11.8781
1.00001
1.00003
1.0001
1.00022
1.00062
1.00126
1.0036
1.00709
1.02177
1.039
1.14114
1.24759
1.9496
3.2087
7.65402
11.6084
11.196
10.9169
10.9945
11.2166
11.4485
11.588
11.6927
11.7763
11.8389
1.00001
1.00003
1.0001
1.00021
1.00059
1.00121
1.00345
1.00682
1.02078
1.03744
1.13427
1.23608
1.89593
3.08324
7.29094
11.6363
11.1829
10.865
10.9391
11.1554
11.383
11.5179
11.6194
11.7016
11.7664
1.00001
1.00003
1.00009
1.0002
1.00057
1.00116
1.00329
1.0066
1.01944
1.03666
1.12317
1.22415
1.82215
2.92047
6.80331
11.663
11.1679
10.7956
10.8633
11.0695
11.2917
11.4204
11.5168
11.5961
11.6634
1.00001
1.00003
1.00009
1.00019
1.00053
1.00108
1.00306
1.00618
1.0179
1.0349
1.1112
1.20877
1.7391
2.7314
6.21566
11.6536
11.1419
10.7111
10.7685
10.9571
11.1709
11.2888
11.3752
11.4477
11.518
1.00001
1.00002
1.00008
1.00017
1.00049
1.001
1.00281
1.00567
1.01633
1.03213
1.09992
1.19184
1.65539
2.53596
5.59387
11.533
11.0711
10.6084
10.6538
10.816
11.0146
11.1162
11.1852
11.241
11.3067
1
1.00002
1.00007
1.00015
1.00044
1.0009
1.00254
1.00514
1.01481
1.02918
1.09045
1.17348
1.5902
2.37962
5.1662
11.1291
10.8868
10.4929
10.5198
10.6408
10.8135
10.8902
10.9283
10.9487
10.9907
1
1.00002
1.00006
1.00014
1.00039
1.0008
1.00226
1.00457
1.0132
1.02575
1.08172
1.15051
1.53249
2.21943
4.74238
10.4395
10.5911
10.4161
10.3778
10.4388
10.5656
10.6032
10.5905
10.5337
10.4803
1
1.00002
1.00005
1.00012
1.00033
1.00067
1.0019
1.0037
1.01157
1.02015
1.07409
1.12408
1.48027
2.05079
4.31043
9.58006
10.4341
10.3185
10.2032
10.2238
10.274
10.2548
10.1604
9.93488
9.58235
1.00001
1.00003
1.0001
1.00023
1.00064
1.00131
1.00375
1.00738
1.02275
1.04061
1.14776
1.25922
2.00197
3.33091
7.99439
11.5817
11.2081
10.9594
11.0367
11.2592
11.4937
11.6356
11.7395
11.8222
11.8822
1.00001
1.00003
1.0001
1.00022
1.00064
1.0013
1.0037
1.00728
1.02243
1.04007
1.14561
1.25541
1.98522
3.29217
7.88948
11.5908
11.2054
10.9487
11.0271
11.2509
11.4853
11.6273
11.7327
11.8166
11.8781
1.00001
1.00003
1.0001
1.00022
1.00062
1.00126
1.0036
1.00709
1.02177
1.039
1.14114
1.24759
1.9496
3.2087
7.65402
11.6084
11.196
10.9169
10.9945
11.2166
11.4485
11.588
11.6927
11.7763
11.8389
1.00001
1.00003
1.0001
1.00021
1.00059
1.00121
1.00345
1.00682
1.02078
1.03744
1.13427
1.23608
1.89593
3.08324
7.29094
11.6363
11.1829
10.865
10.9391
11.1554
11.383
11.5179
11.6194
11.7016
11.7664
1.00001
1.00003
1.00009
1.0002
1.00057
1.00116
1.00329
1.0066
1.01944
1.03666
1.12317
1.22415
1.82215
2.92047
6.80331
11.663
11.1679
10.7956
10.8633
11.0695
11.2917
11.4204
11.5168
11.5961
11.6634
1.00001
1.00003
1.00009
1.00019
1.00053
1.00108
1.00306
1.00618
1.0179
1.0349
1.1112
1.20877
1.7391
2.7314
6.21566
11.6536
11.1419
10.7111
10.7685
10.9571
11.1709
11.2888
11.3752
11.4477
11.518
1.00001
1.00002
1.00008
1.00017
1.00049
1.001
1.00281
1.00567
1.01633
1.03213
1.09992
1.19184
1.65539
2.53596
5.59387
11.533
11.0711
10.6084
10.6538
10.816
11.0146
11.1162
11.1852
11.241
11.3067
1
1.00002
1.00007
1.00015
1.00044
1.0009
1.00254
1.00514
1.01481
1.02918
1.09045
1.17348
1.5902
2.37962
5.1662
11.1291
10.8868
10.4929
10.5198
10.6408
10.8135
10.8902
10.9283
10.9487
10.9907
1
1.00002
1.00006
1.00014
1.00039
1.0008
1.00226
1.00457
1.0132
1.02575
1.08172
1.15051
1.53249
2.21943
4.74238
10.4395
10.5911
10.4161
10.3778
10.4388
10.5656
10.6032
10.5905
10.5337
10.4803
1
1.00002
1.00005
1.00012
1.00033
1.00067
1.0019
1.0037
1.01157
1.02015
1.07409
1.12408
1.48027
2.05079
4.31043
9.58006
10.4341
10.3185
10.2032
10.2238
10.274
10.2548
10.1604
9.93488
9.58235
1.00001
1.00003
1.0001
1.00023
1.00064
1.00131
1.00375
1.00738
1.02275
1.04061
1.14776
1.25922
2.00196
3.33091
7.99438
11.5817
11.2081
10.9594
11.0367
11.2592
11.4937
11.6356
11.7395
11.8222
11.8822
1.00001
1.00003
1.0001
1.00022
1.00064
1.0013
1.0037
1.00728
1.02243
1.04007
1.14561
1.25541
1.98522
3.29216
7.88947
11.5908
11.2054
10.9487
11.0271
11.2509
11.4853
11.6273
11.7327
11.8166
11.8781
1.00001
1.00003
1.0001
1.00022
1.00062
1.00126
1.0036
1.00709
1.02177
1.039
1.14114
1.24759
1.9496
3.2087
7.654
11.6084
11.196
10.9169
10.9945
11.2166
11.4485
11.588
11.6927
11.7763
11.8389
1.00001
1.00003
1.0001
1.00021
1.00059
1.00121
1.00345
1.00682
1.02078
1.03744
1.13427
1.23608
1.89592
3.08323
7.29092
11.6363
11.1829
10.865
10.9391
11.1554
11.383
11.5179
11.6194
11.7016
11.7664
1.00001
1.00003
1.00009
1.0002
1.00057
1.00116
1.00329
1.0066
1.01944
1.03666
1.12317
1.22415
1.82215
2.92046
6.80329
11.663
11.1679
10.7956
10.8633
11.0695
11.2917
11.4204
11.5168
11.5961
11.6634
1.00001
1.00003
1.00009
1.00019
1.00053
1.00108
1.00306
1.00618
1.0179
1.0349
1.1112
1.20877
1.7391
2.7314
6.21564
11.6536
11.1419
10.7111
10.7685
10.9571
11.1709
11.2888
11.3752
11.4477
11.518
1.00001
1.00002
1.00008
1.00017
1.00049
1.001
1.00281
1.00567
1.01633
1.03213
1.09992
1.19184
1.65539
2.53596
5.59386
11.533
11.0711
10.6084
10.6538
10.816
11.0146
11.1162
11.1852
11.241
11.3067
1
1.00002
1.00007
1.00015
1.00044
1.0009
1.00254
1.00514
1.01481
1.02918
1.09045
1.17348
1.5902
2.37962
5.16619
11.1291
10.8868
10.4928
10.5198
10.6408
10.8135
10.8902
10.9283
10.9487
10.9907
1
1.00002
1.00006
1.00014
1.00039
1.0008
1.00226
1.00457
1.0132
1.02575
1.08172
1.15051
1.53249
2.21943
4.74237
10.4395
10.5911
10.4161
10.3778
10.4388
10.5656
10.6032
10.5905
10.5337
10.4803
1
1.00002
1.00005
1.00012
1.00033
1.00067
1.0019
1.0037
1.01157
1.02015
1.07409
1.12408
1.48027
2.05079
4.31042
9.58005
10.4341
10.3185
10.2032
10.2238
10.274
10.2548
10.1604
9.93488
9.58235
1.00001
1.00003
1.0001
1.00022
1.00064
1.00131
1.00375
1.00737
1.02274
1.04059
1.14774
1.25917
2.00192
3.3307
7.99398
11.5817
11.208
10.9593
11.0366
11.2591
11.4936
11.6355
11.7394
11.8221
11.8821
1.00001
1.00003
1.0001
1.00022
1.00063
1.00129
1.00369
1.00727
1.02242
1.04005
1.14559
1.25537
1.98517
3.29196
7.88907
11.5908
11.2053
10.9486
11.0271
11.2508
11.4853
11.6272
11.7326
11.8165
11.878
1.00001
1.00003
1.0001
1.00021
1.00061
1.00126
1.00359
1.00708
1.02176
1.03898
1.14112
1.24754
1.94956
3.2085
7.65362
11.6085
11.1959
10.9169
10.9944
11.2165
11.4484
11.5879
11.6926
11.7762
11.8388
1.00001
1.00003
1.00009
1.0002
1.00059
1.0012
1.00344
1.0068
1.02077
1.03741
1.13427
1.236
1.89594
3.08305
7.29056
11.6363
11.1828
10.8649
10.939
11.1553
11.3829
11.5178
11.6193
11.7015
11.7663
1.00001
1.00002
1.00009
1.00019
1.00056
1.00115
1.00328
1.00659
1.01943
1.03663
1.12317
1.22409
1.82216
2.92031
6.803
11.663
11.1678
10.7955
10.8632
11.0694
11.2916
11.4203
11.5167
11.596
11.6633
1
1.00002
1.00008
1.00018
1.00052
1.00108
1.00306
1.00617
1.01789
1.03488
1.11119
1.20872
1.73909
2.73127
6.21539
11.6536
11.1418
10.711
10.7685
10.957
11.1708
11.2887
11.3751
11.4476
11.5178
1
1.00002
1.00008
1.00017
1.00048
1.00099
1.0028
1.00566
1.01632
1.03212
1.09991
1.1918
1.65537
2.53586
5.59371
11.5329
11.071
10.6083
10.6537
10.8159
11.0145
11.1161
11.185
11.2409
11.3065
1
1.00002
1.00007
1.00015
1.00043
1.00089
1.00254
1.00513
1.0148
1.02917
1.09044
1.17345
1.59018
2.37953
5.16605
11.1289
10.8867
10.4928
10.5198
10.6407
10.8134
10.8901
10.9282
10.9486
10.9906
1
1.00002
1.00006
1.00013
1.00039
1.00079
1.00226
1.00456
1.01319
1.02573
1.08171
1.15047
1.53248
2.21934
4.74226
10.4393
10.5911
10.4161
10.3778
10.4388
10.5655
10.6032
10.5905
10.5336
10.4802
1
1.00001
1.00005
1.00011
1.00032
1.00066
1.0019
1.00369
1.01156
1.02014
1.07408
1.12405
1.48026
2.05069
4.31034
9.57979
10.434
10.3185
10.2032
10.2237
10.274
10.2547
10.1603
9.93479
9.58227
1
1.00001
1.00004
1.00012
1.00025
1.00071
1.00145
1.00417
1.00814
1.02554
1.04519
1.16492
1.29571
2.11652
3.64865
8.57464
10.3378
10.2311
10.0246
9.98911
9.96203
9.86468
9.60209
8.99328
7.46379
1
1.00001
1.00003
1.0001
1.00021
1.00062
1.00126
1.0036
1.00708
1.02174
1.03892
1.14054
1.24718
1.94077
3.17659
7.39026
10.2548
10.1344
9.86176
9.74458
9.65358
9.45705
9.04115
8.20953
6.61854
1
1.00001
1.00003
1.00009
1.00019
1.00053
1.00109
1.00309
1.00624
1.01813
1.03515
1.11316
1.21052
1.74957
2.73956
6.11868
10.1548
10.0321
9.71931
9.50489
9.34799
9.0704
8.56099
7.70804
6.41076
1
1.00001
1.00002
1.00007
1.00015
1.00044
1.0009
1.00255
1.00516
1.01481
1.02932
1.0892
1.17575
1.57283
2.33419
4.86119
9.85511
9.83835
9.6002
9.2842
9.05734
8.73475
8.20864
7.41989
6.3684
1
1.00001
1.00002
1.00006
1.00012
1.00035
1.00072
1.00204
1.00411
1.01192
1.02285
1.07371
1.1341
1.47048
2.06155
4.18429
9.00476
9.55848
9.40626
9.08205
8.80028
8.45291
7.95154
7.24656
6.36169
1
1
1.00002
1.00004
1.00011
1.00023
1.00067
1.00135
1.00388
1.0075
1.0237
1.04131
1.15166
1.26643
2.0207
3.33968
7.58089
9.28178
9.18943
8.93039
8.58681
8.22
7.74846
7.11941
6.35752
1
1
1.00001
1.00003
1.00009
1.00019
1.00055
1.00112
1.00317
1.00638
1.01858
1.03551
1.11624
1.21392
1.76262
2.75481
6.02815
9.09945
9.04898
8.82561
8.42237
8.03632
7.58524
7.01725
6.34832
0.999998
0.999999
1.00001
1.00002
1.00007
1.00014
1.00042
1.00086
1.00243
1.0049
1.01406
1.02781
1.08435
1.16635
1.53465
2.23266
4.45513
8.71375
8.91362
8.7338
8.32825
7.89376
7.45186
6.93591
6.34109
0.999996
0.999998
1
1.00002
1.00004
1.00013
1.00026
1.00075
1.00153
1.00434
1.00852
1.02598
1.04673
1.1648
1.29863
2.0769
3.51505
7.72581
8.67921
8.55795
8.23717
7.77947
7.34044
6.86491
6.33077
0.999995
0.999996
0.999999
1.00001
1.00003
1.00009
1.0002
1.00056
1.00115
1.00326
1.00645
1.0195
1.03523
1.12398
1.21892
1.80287
2.81716
6.1044
8.40753
8.36419
8.15119
7.70575
7.25858
6.80956
6.32287
0.999994
0.999994
0.999997
1
1.00002
1.00005
1.00016
1.00034
1.00096
1.00194
1.00563
1.01058
1.0346
1.05932
1.21525
1.41892
2.3424
4.2895
7.9636
8.23477
8.07827
7.69202
7.20924
6.76708
6.31547
0.999993
0.999993
0.999996
0.999999
1.00001
1.00004
1.00012
1.00025
1.00071
1.00144
1.00407
1.00802
1.02429
1.04383
1.15333
1.27536
1.98692
3.25257
6.92734
8.01993
7.92986
7.65787
7.19099
6.74323
6.31529
0.999992
0.999993
0.999994
0.999998
1
1.00003
1.00007
1.0002
1.00041
1.00117
1.0023
1.007
1.0124
1.04386
1.0723
1.27184
1.53589
2.71193
5.2279
7.67972
7.71664
7.57427
7.20824
6.74543
6.31844
0.999992
0.999992
0.999993
0.999996
1
1.00002
1.00005
1.00014
1.0003
1.00085
1.00174
1.00487
1.00976
1.02844
1.05402
1.17361
1.34194
2.08903
3.51375
7.00832
7.58816
7.48711
7.20719
6.76291
6.33128
0.999991
0.999991
0.999992
0.999994
0.999998
1.00001
1.00003
1.00008
1.00024
1.00049
1.00137
1.00278
1.00793
1.01532
1.04804
1.08549
1.29897
1.60587
2.85341
5.49068
7.3262
7.32013
7.18007
6.82648
6.36445
0.999991
0.999991
0.999992
0.999993
0.999996
1
1.00002
1.00005
1.00016
1.00033
1.00093
1.0019
1.00529
1.01052
1.03092
1.05767
1.18704
1.37089
2.1326
3.65156
6.79365
7.22066
7.12708
6.87396
6.43098
0.999991
0.999991
0.999991
0.999992
0.999994
0.999999
1.00001
1.00004
1.00009
1.00026
1.00053
1.00148
1.003
1.00845
1.01668
1.04994
1.09374
1.30372
1.65312
2.8662
5.52448
6.99525
6.99242
6.863
6.54837
0.999991
0.999991
0.999991
0.999992
0.999992
0.999996
1
1.00002
1.00005
1.00016
1.00034
1.00096
1.00196
1.00544
1.01074
1.03188
1.05793
1.19505
1.37007
2.1637
3.69753
6.48055
6.88515
6.81337
6.59936
0.999991
0.999991
0.999991
0.999991
0.999992
0.999993
0.999999
1.00001
1.00004
1.00009
1.00026
1.00054
1.0015
1.00302
1.00851
1.01685
1.04961
1.09656
1.29627
1.65724
2.79497
5.28635
6.64703
6.68186
6.57868
0.999991
0.99999
0.999991
0.999991
0.999991
0.999993
0.999995
1
1.00002
1.00006
1.00014
1.0004
1.00081
1.00225
1.00455
1.01276
1.02521
1.07415
1.14647
1.44134
1.98416
3.49719
6.11232
6.56523
6.51557
0.999991
0.99999
0.99999
0.999991
0.999991
0.999992
0.999993
0.999999
1.00001
1.00004
1.00009
1.00025
1.00052
1.00143
1.0029
1.00805
1.01604
1.04625
1.09035
1.2734
1.59763
2.63693
4.88642
6.30053
6.3886
0.999991
0.99999
0.99999
0.99999
0.999991
0.999991
0.999992
0.999995
1
1.00002
1.00006
1.00013
1.00037
1.00075
1.00207
1.00418
1.01164
1.02315
1.06639
1.13475
1.38859
1.86895
3.17229
5.70153
6.26007
0.999991
0.99999
0.99999
0.99999
0.99999
0.999991
0.999992
0.999993
0.999998
1.00001
1.00003
1.00008
1.00023
1.00047
1.00129
1.00262
1.0072
1.01436
1.04114
1.07869
1.24335
1.50197
2.43424
4.36867
5.93329
0.999991
0.99999
0.99999
0.99999
0.99999
0.999991
0.999991
0.999992
0.999995
1
1.00002
1.00004
1.00013
1.00028
1.00077
1.00157
1.00429
1.00863
1.02406
1.04723
1.13934
1.27968
1.81459
2.82584
5.21087
0.999991
0.99999
0.99999
0.99999
0.99999
0.99999
0.999991
0.999991
0.999993
0.999996
1.00001
1.00002
1.00008
1.00016
1.00046
1.00094
1.00257
1.00519
1.01437
1.02828
1.08344
1.15957
1.4942
2.06693
3.68258
0.999991
0.99999
0.99999
0.99999
0.99999
0.99999
0.99999
0.999991
0.999992
0.999994
0.999998
1.00001
1.00003
1.00011
1.00023
1.00062
1.00127
1.00349
1.00691
1.01991
1.03665
1.11849
1.21444
1.68507
2.46111
0.999991
0.99999
0.99999
0.99999
0.99999
0.99999
0.99999
0.999991
0.999991
0.999992
0.999995
1
1.00002
1.00005
1.00015
1.00031
1.00085
1.00173
1.00472
1.00941
1.02665
1.05043
1.15328
1.30487
1.84849
0.999991
0.99999
0.99999
0.99999
0.99999
0.99999
0.99999
0.99999
0.999991
0.999992
0.999993
0.999997
1
1.00003
1.00007
1.00021
1.00043
1.00117
1.00236
1.00648
1.01283
1.03685
1.06984
1.21211
1.43672
0.999991
0.99999
0.99999
0.99999
0.99999
0.99999
0.99999
0.99999
0.99999
0.999991
0.999992
0.999994
0.999999
1.00001
1.00004
1.00011
1.00024
1.00066
1.00135
1.00365
1.00735
1.02026
1.03973
1.11654
1.22504
0.999991
0.99999
0.99999
0.99999
0.99999
0.99999
0.99999
0.99999
0.99999
0.999991
0.999991
0.999992
0.999996
1
1.00002
1.00005
1.00015
1.00031
1.00085
1.00173
1.00467
1.00939
1.02586
1.05083
1.14584
0.999991
0.99999
0.99999
0.99999
0.99999
0.99999
0.99999
0.99999
0.99999
0.99999
0.999991
0.999992
0.999993
0.999997
1
1.00003
1.00007
1.0002
1.00041
1.00112
1.00228
1.00618
1.01245
1.03402
1.06988
0.999991
0.99999
0.99999
0.99999
0.99999
0.99999
0.99999
0.99999
0.99999
0.99999
0.999991
0.999991
0.999992
0.999994
0.999999
1.00001
1.00004
1.00009
1.00026
1.00053
1.00145
1.00292
1.00794
1.01598
1.04367
0.999991
0.99999
0.99999
0.99999
0.99999
0.99999
0.99999
0.99999
0.99999
0.99999
0.99999
0.999991
0.999991
0.999992
0.999995
1
1.00002
1.00005
1.00014
1.00028
1.00077
1.00157
1.0042
1.00846
1.02285
0.999991
0.99999
0.99999
0.99999
0.99999
0.99999
0.99999
0.99999
0.99999
0.99999
0.99999
0.99999
0.999991
0.999991
0.999993
0.999996
1
1.00002
1.00006
1.00017
1.00035
1.00096
1.00194
1.00522
1.01043
0.999991
0.99999
0.99999
0.99999
0.99999
0.99999
0.99999
0.99999
0.99999
0.99999
0.99999
0.99999
0.99999
0.999991
0.999992
0.999993
0.999998
1.00001
1.00003
1.00008
1.00022
1.00045
1.0012
1.00243
1.00654
0.999991
0.99999
0.99999
0.99999
0.99999
0.99999
0.99999
0.99999
0.99999
0.99999
0.99999
0.99999
0.99999
0.999991
0.999991
0.999992
0.999994
1
1.00001
1.00004
1.0001
1.00027
1.00055
1.00149
1.00301
0.999991
0.99999
0.99999
0.99999
0.99999
0.99999
0.99999
0.99999
0.99999
0.99999
0.99999
0.99999
0.99999
0.99999
0.999991
0.999991
0.999993
0.999995
1
1.00002
1.00006
1.00012
1.00034
1.00071
1.00188
0.999991
0.99999
0.99999
0.99999
0.99999
0.99999
0.99999
0.99999
0.99999
0.99999
0.99999
0.99999
0.99999
0.99999
0.99999
0.999991
0.999992
0.999993
0.999997
1
1.00003
1.00007
1.0002
1.00042
1.00114
0.999991
0.99999
0.99999
0.99999
0.99999
0.99999
0.99999
0.99999
0.99999
0.99999
0.99999
0.99999
0.99999
0.99999
0.99999
0.999991
0.999991
0.999992
0.999995
1
1.00001
1.00005
1.00012
1.00035
1.00072
0.999991
0.99999
0.99999
0.99999
0.99999
0.99999
0.99999
0.99999
0.99999
0.99999
0.99999
0.99999
0.99999
0.99999
0.99999
0.999991
0.999991
0.999992
0.999994
1
1.00001
1.00005
1.0001
1.0003
1.00062
1
1.00002
1.00004
1.00012
1.00025
1.00072
1.00145
1.00418
1.00815
1.02555
1.04521
1.16494
1.29575
2.11655
3.6488
8.57489
10.3379
10.2311
10.0246
9.98917
9.96209
9.86475
9.60216
8.99335
7.46384
1
1.00002
1.00004
1.00011
1.00022
1.00062
1.00127
1.0036
1.00709
1.02175
1.03894
1.14056
1.24722
1.9408
3.17674
7.39053
10.2549
10.1345
9.86181
9.74463
9.65364
9.45711
9.04121
8.20959
6.61858
1
1.00001
1.00003
1.00009
1.00019
1.00054
1.0011
1.0031
1.00625
1.01814
1.03517
1.11316
1.21058
1.74958
2.73969
6.11893
10.1548
10.0322
9.71936
9.50495
9.34805
9.07046
8.56105
7.7081
6.4108
1
1.00001
1.00003
1.00008
1.00016
1.00045
1.00091
1.00256
1.00517
1.01482
1.02933
1.08922
1.17578
1.57285
2.33428
4.86132
9.85524
9.83844
9.60024
9.28425
9.05739
8.73481
8.20869
7.41995
6.36844
1
1.00001
1.00002
1.00006
1.00013
1.00036
1.00073
1.00205
1.00412
1.01193
1.02288
1.07371
1.13415
1.47047
2.06164
4.18437
9.00498
9.55855
9.40631
9.08209
8.80034
8.45296
7.9516
7.24661
6.36173
1
1.00001
1.00002
1.00004
1.00012
1.00024
1.00067
1.00136
1.00389
1.00751
1.02371
1.04133
1.15168
1.26647
2.02071
3.33981
7.58108
9.28184
9.18948
8.93044
8.58686
8.22005
7.74852
7.11946
6.35756
1
1
1.00002
1.00003
1.0001
1.0002
1.00056
1.00113
1.00318
1.0064
1.01859
1.03553
1.11624
1.21398
1.76261
2.75492
6.02833
9.09952
9.04905
8.82566
8.42242
8.03637
7.58528
7.0173
6.34836
1
1
1.00001
1.00003
1.00007
1.00015
1.00043
1.00087
1.00244
1.00491
1.01407
1.02782
1.08436
1.16638
1.53467
2.23273
4.45522
8.71388
8.91368
8.73385
8.32829
7.89381
7.4519
6.93595
6.34113
1
1
1.00001
1.00002
1.00005
1.00013
1.00027
1.00076
1.00154
1.00434
1.00853
1.02599
1.04674
1.16482
1.29867
2.07695
3.51516
7.726
8.67926
8.558
8.2372
7.7795
7.34048
6.86495
6.3308
1
1
1.00001
1.00002
1.00004
1.0001
1.00021
1.00057
1.00116