/*--------------------------------*- C++ -*----------------------------------*\
| =========                 |                                                 |
| \\      /  F ield         | OpenFOAM: The Open Source CFD Toolbox           |
|  \\    /   O peration     | Version:  4.1                                   |
|   \\  /    A nd           | Web:      www.OpenFOAM.org                      |
|    \\/     M anipulation  |                                                 |
\*---------------------------------------------------------------------------*/
FoamFile
{
    version     2.0;
    format      ascii;
    class       surfaceScalarField;
    location    "2.62";
    object      phi;
}
// * * * * * * * * * * * * * * * * * * * * * * * * * * * * * * * * * * * * * //

dimensions      [1 0 -1 0 0 0 0];

internalField   nonuniform List<scalar> 
150500
(
0.0168001
1.75664e-10
-3.38216e-12
0.0168001
9.7221e-10
-1.16395e-11
0.0168001
3.62747e-09
-1.34645e-11
0.0168
9.27587e-09
-2.16374e-11
0.0168
2.5729e-08
-2.13018e-11
0.0168
5.85834e-08
-2.90378e-11
0.0167998
1.56739e-07
-2.88219e-11
0.0167995
3.38589e-07
-3.94004e-11
0.0167986
9.78868e-07
-3.9487e-11
0.0167969
2.02097e-06
-7.30155e-11
0.0167905
6.64283e-06
-8.07862e-11
0.0167771
1.49984e-05
-2.02681e-10
0.0167143
6.48567e-05
-1.81632e-10
0.0165386
0.000182002
-8.90183e-10
0.0154926
0.00107359
-1.78484e-09
0.0141887
0.00129635
1.88421e-10
0.0129342
0.001251
-1.60976e-10
0.01163
0.00130135
-3.78231e-10
0.0102537
0.00137216
-3.98362e-10
0.00878764
0.00146169
-4.10232e-10
0.00720736
0.00157114
-4.10638e-10
0.00551031
0.00168171
-4.27455e-10
0.0037316
0.00177198
-4.25063e-10
0.00188727
0.00184226
-4.45518e-10
0.00187936
-4.68378e-10
0.0168001
3.48656e-10
-3.37479e-12
0.0168001
1.92239e-09
-1.16395e-11
0.0168001
7.18768e-09
-1.34698e-11
0.0168
1.8337e-08
-2.16077e-11
0.0168
5.10569e-08
-2.13371e-11
0.0168
1.16063e-07
-2.89984e-11
0.0167998
3.1289e-07
-2.88262e-11
0.0167995
6.71623e-07
-3.92856e-11
0.0167986
1.97851e-06
-3.9522e-11
0.0167968
4.03649e-06
-7.25024e-11
0.0167903
1.35406e-05
-8.02991e-11
0.0167764
3.03253e-05
-1.99671e-10
0.0167114
0.000131914
-1.78295e-10
0.0165311
0.000368599
-8.66393e-10
0.0154982
0.00213399
-1.75499e-09
0.0141636
0.00262336
1.81595e-10
0.0129232
0.00248795
-1.65475e-10
0.0116376
0.00258413
-3.81129e-10
0.0102709
0.00273473
-3.99373e-10
0.0087932
0.00293509
-4.0831e-10
0.00719859
0.0031568
-4.0699e-10
0.0054957
0.00336956
-4.23857e-10
0.00370937
0.00355166
-4.22738e-10
0.0018593
0.0036902
-4.44892e-10
0.00373078
-4.68745e-10
0.0168001
5.05021e-10
-3.36239e-12
0.0168001
2.76561e-09
-1.16358e-11
0.0168001
1.03214e-08
-1.34924e-11
0.0168
2.6204e-08
-2.15303e-11
0.0168
7.31465e-08
-2.14481e-11
0.0168
1.65594e-07
-2.8904e-11
0.0167999
4.49371e-07
-2.88645e-11
0.0167996
9.54139e-07
-3.88756e-11
0.0167988
2.85467e-06
-3.97126e-11
0.0167973
5.71229e-06
-7.00236e-11
0.0167912
2.00438e-05
-7.75886e-11
0.0167781
4.47691e-05
-1.91189e-10
0.0167168
0.000195367
-1.67882e-10
0.0165471
0.000544198
-8.1753e-10
0.0156078
0.00310054
-1.70998e-09
0.0142486
0.00397499
1.44631e-10
0.0130041
0.00372901
-1.77176e-10
0.0117288
0.00385664
-3.83778e-10
0.0103744
0.00408521
-4.01328e-10
0.00889793
0.00440777
-4.0609e-10
0.00729708
0.00474801
-4.02118e-10
0.0055862
0.00506489
-4.21739e-10
0.0037813
0.00535047
-4.24499e-10
0.00190239
0.00556799
-4.47708e-10
0.00562619
-4.71725e-10
0.0168001
5.61645e-10
-3.34517e-12
0.0168001
3.1319e-09
-1.16401e-11
0.0168001
1.17134e-08
-1.35486e-11
0.0168001
2.98733e-08
-2.15131e-11
0.0168
8.27368e-08
-2.18249e-11
0.0168
1.85531e-07
-2.94183e-11
0.0168
5.17589e-07
-3.01991e-11
0.0168
9.81447e-07
-4.51786e-11
0.0167992
3.72795e-06
-3.70954e-11
0.0167997
5.29572e-06
-1.24404e-10
0.016791
2.91895e-05
2.05869e-11
0.0167842
5.2334e-05
-3.26857e-10
0.0167242
0.000257415
4.97093e-11
0.0165823
0.000691514
-7.50885e-10
0.0158229
0.00388658
-1.60115e-09
0.0144444
0.00534606
-1.5495e-11
0.0131899
0.00498026
-2.51761e-10
0.0119193
0.00512424
-3.85743e-10
0.0105761
0.00542385
-3.95559e-10
0.00911422
0.00586464
-3.94607e-10
0.00751731
0.00633718
-3.94878e-10
0.00579207
0.00677704
-4.21432e-10
0.00395455
0.00718107
-4.2752e-10
0.00199968
0.00752134
-4.54857e-10
0.0076196
-4.81282e-10
0.0168001
7.72451e-10
-3.33819e-12
0.0168001
4.25311e-09
-1.15886e-11
0.0168001
1.58347e-08
-1.35964e-11
0.0168
4.04557e-08
-2.13337e-11
0.0168
1.12069e-07
-2.17683e-11
0.0167999
2.55277e-07
-2.88231e-11
0.0167998
6.82829e-07
-2.92415e-11
0.0167993
1.45877e-06
-4.11379e-11
0.0167987
4.43911e-06
-3.55486e-11
0.0167964
7.64959e-06
-1.035e-10
0.0167932
3.29045e-05
9.46873e-12
0.0167827
6.36322e-05
-2.6596e-10
0.0167537
0.000288337
2.93074e-11
0.0166686
0.000781256
-6.2337e-10
0.0162864
0.00429393
-1.2907e-09
0.014883
0.00674274
-1.34166e-10
0.0135609
0.00629888
-3.52213e-10
0.0122678
0.00641459
-4.00934e-10
0.0109308
0.0067579
-3.94188e-10
0.00946692
0.00732415
-3.80503e-10
0.00787303
0.00792117
-3.93127e-10
0.00612384
0.00851181
-4.31732e-10
0.00422705
0.00907459
-4.42779e-10
0.00217692
0.00957118
-4.71726e-10
0.009791
-5.00515e-10
0.0168001
9.05911e-10
-3.307e-12
0.0168001
4.98763e-09
-1.15757e-11
0.0168001
1.85772e-08
-1.3551e-11
0.0168
4.75324e-08
-2.1224e-11
0.0168
1.31578e-07
-2.1472e-11
0.0168
3.00695e-07
-2.81416e-11
0.0167999
7.92951e-07
-2.78578e-11
0.0167996
1.75636e-06
-3.54696e-11
0.0167993
4.80774e-06
-3.61033e-11
0.016797
1.00279e-05
-6.37385e-11
0.016797
3.32273e-05
-3.33211e-11
0.0167937
6.77618e-05
-1.84343e-10
0.0167942
0.000289638
-5.21315e-11
0.0168032
0.000776012
-5.30243e-10
0.0170514
0.00406803
-1.09896e-09
0.0156148
0.00817541
-2.68373e-10
0.0141376
0.00777343
-3.88303e-10
0.0127885
0.00776089
-3.75519e-10
0.0114446
0.00809909
-3.65003e-10
0.010002
0.00876089
-3.57768e-10
0.0083959
0.00952249
-3.88033e-10
0.00662288
0.0102711
-4.36268e-10
0.00464839
0.0110431
-4.50772e-10
0.00242575
0.0117938
-4.84356e-10
0.0122127
-5.2094e-10
0.0168001
9.54004e-10
-3.27181e-12
0.0168001
5.28045e-09
-1.15807e-11
0.0168001
1.96506e-08
-1.3532e-11
0.0168001
5.04352e-08
-2.11995e-11
0.0168
1.38641e-07
-2.1391e-11
0.0168
3.17155e-07
-2.80017e-11
0.0168
8.25796e-07
-2.74599e-11
0.0167999
1.83731e-06
-3.46839e-11
0.0167999
4.84072e-06
-3.54383e-11
0.0167995
1.06125e-05
-5.01909e-11
0.0168024
3.04584e-05
-4.59263e-11
0.0168017
6.91843e-05
-1.42599e-10
0.0168477
0.000244631
-6.6259e-11
0.0169737
0.000653692
-4.17431e-10
0.017985
0.0030662
-6.6779e-10
0.0167069
0.00945896
-6.37151e-10
0.0149458
0.00953526
-4.42414e-10
0.0135318
0.00917341
-3.23792e-10
0.012171
0.00945587
-3.23008e-10
0.0107297
0.0101986
-3.30574e-10
0.009109
0.0111381
-3.71049e-10
0.00728718
0.01208
-4.2617e-10
0.00523534
0.0130884
-4.50425e-10
0.00284841
0.0141803
-4.86516e-10
0.0150589
-5.24063e-10
0.0168001
1.04141e-09
-3.2398e-12
0.0168001
5.77942e-09
-1.15907e-11
0.0168001
2.15634e-08
-1.35327e-11
0.0168001
5.55295e-08
-2.12006e-11
0.0168
1.52876e-07
-2.13814e-11
0.0168
3.50903e-07
-2.79776e-11
0.0167999
9.12656e-07
-2.7385e-11
0.0167997
2.0545e-06
-3.44738e-11
0.0167993
5.28665e-06
-3.50221e-11
0.0167979
1.20776e-05
-4.88548e-11
0.0167979
3.06047e-05
-4.4362e-11
0.0167894
7.83166e-05
-1.35697e-10
0.0168079
0.000226982
-5.8554e-11
0.0168202
0.000642436
-3.7333e-10
0.0171762
0.00271942
-6.06863e-10
0.0166243
0.0100212
-9.28195e-10
0.0151911
0.0109711
-4.65311e-10
0.0140663
0.0102965
-2.62403e-10
0.012836
0.010682
-2.73842e-10
0.0114868
0.0115447
-3.01667e-10
0.00994763
0.01267
-3.45e-10
0.00815367
0.0138645
-4.03449e-10
0.00605856
0.0151764
-4.29496e-10
0.00346098
0.0167776
-4.63151e-10
0.0185184
-5.03492e-10
0.0168001
1.37532e-09
-3.21256e-12
0.0168001
6.16056e-09
-1.15936e-11
0.0168001
2.50096e-08
-1.35452e-11
0.0168001
6.04439e-08
-2.12055e-11
0.0168
1.75649e-07
-2.14259e-11
0.0168
3.85354e-07
-2.80749e-11
0.0167999
1.0242e-06
-2.77025e-11
0.0167996
2.33133e-06
-3.52874e-11
0.0167995
5.39055e-06
-3.58853e-11
0.0167982
1.35076e-05
-5.70379e-11
0.0167973
3.15429e-05
-3.56935e-11
0.0168047
7.16346e-05
-1.621e-10
0.0167988
0.000233665
-1.90597e-11
0.0168061
0.000634371
-3.86982e-10
0.0169951
0.00253752
-4.87836e-10
0.0163348
0.0106923
-1.04512e-09
0.0157384
0.0115679
-2.873e-10
0.0145601
0.0114734
-2.1945e-10
0.0133539
0.0118848
-2.48293e-10
0.012203
0.0126902
-2.73216e-10
0.0108241
0.014046
-3.16516e-10
0.00920224
0.0154725
-3.71922e-10
0.00724912
0.0171221
-3.91148e-10
0.00455507
0.0194704
-4.26093e-10
0.0230732
-4.46754e-10
0.0168001
-3.23708e-12
1.96989e-09
0.0168001
-1.16305e-11
1.44512e-09
0.0168001
-1.36186e-11
2.60759e-08
0.0168001
-2.18589e-11
2.2239e-08
0.0168001
-2.11489e-11
1.71625e-07
0.0168003
-2.90469e-11
1.44417e-07
0.0168003
-2.79065e-11
1.04284e-06
0.0168019
-3.704e-11
7.2061e-07
0.0168003
-3.50901e-11
7.06307e-06
0.0168112
-5.73403e-11
2.81324e-06
0.0167897
-5.46551e-11
5.31506e-05
0.0168518
-1.21432e-10
1.00494e-05
0.0167084
-3.35451e-11
0.000377288
0.0169965
-4.19552e-10
0.000347625
0.01692
-3.59532e-10
0.00261762
0.0165663
-1.11972e-09
0.0110571
0.0157238
-2.11553e-10
0.0124104
0.0148629
-1.80916e-10
0.0123333
0.0139612
-2.36011e-10
0.0127831
0.0129635
-2.55668e-10
0.0136838
0.0119051
-2.81277e-10
0.0151021
0.0106303
-3.2508e-10
0.0167394
0.00885398
-3.64917e-10
0.0188884
0.00627292
-3.80282e-10
0.0220481
-3.57396e-10
0.0293474
0.0168001
1.79354e-10
-4.38438e-16
0.0168001
9.75209e-10
-2.39679e-15
0.0168001
3.62852e-09
-4.86609e-15
0.0168
9.2918e-09
-1.02673e-14
0.0168
2.5727e-08
-1.63408e-14
0.0168
5.8604e-08
-2.95914e-14
0.0167998
1.56762e-07
-5.29202e-14
0.0167995
3.38684e-07
-9.00333e-14
0.0167986
9.78981e-07
-2.34699e-13
0.0167968
2.02141e-06
-3.71817e-13
0.0167905
6.6438e-06
-1.34257e-12
0.016777
1.50012e-05
-2.49078e-12
0.0167142
6.4863e-05
-1.03783e-11
0.0165386
0.000182025
-2.64818e-11
0.0154924
0.00107367
-7.59225e-11
0.0141885
0.00129635
1.56079e-11
0.0129341
0.001251
8.11635e-13
0.0116299
0.00130135
-6.64061e-12
0.0102536
0.00137215
-6.42268e-12
0.00878753
0.00146167
-5.8203e-12
0.0072073
0.00157112
-7.17044e-12
0.00551029
0.00168168
-8.9377e-12
0.0037316
0.00177194
-1.00014e-11
0.00188729
0.00184224
-1.17429e-11
0.00187938
-1.33979e-11
0.0168001
3.54894e-10
-4.3803e-16
0.0168001
1.92993e-09
-2.39538e-15
0.0168001
7.18349e-09
-4.86209e-15
0.0168
1.83745e-08
-1.02561e-14
0.0168
5.10231e-08
-1.63171e-14
0.0168
1.1608e-07
-2.95398e-14
0.0167998
3.12832e-07
-5.27924e-14
0.0167995
6.71674e-07
-8.98667e-14
0.0167986
1.97787e-06
-2.34003e-13
0.0167968
4.03706e-06
-3.71264e-13
0.0167903
1.35389e-05
-1.34152e-12
0.0167764
3.03325e-05
-2.4872e-12
0.0167114
0.000131927
-1.03542e-11
0.016531
0.000368665
-2.64045e-11
0.0154979
0.00213416
-7.60683e-11
0.0141634
0.00262337
1.57836e-11
0.012923
0.00248793
8.67302e-13
0.0116374
0.00258411
-6.53817e-12
0.0102708
0.00273471
-6.30266e-12
0.00879306
0.00293506
-5.70655e-12
0.0071985
0.00315676
-7.03207e-12
0.00549565
0.0033695
-8.76188e-12
0.00370934
0.00355158
-9.82731e-12
0.00185929
0.00369016
-1.15612e-11
0.0037308
-1.31761e-11
0.0168001
5.13382e-10
-4.36379e-16
0.0168001
2.77225e-09
-2.38826e-15
0.0168001
1.03083e-08
-4.84229e-15
0.0168
2.62175e-08
-1.02064e-14
0.0168
7.30153e-08
-1.6215e-14
0.0168
1.65359e-07
-2.93531e-14
0.0167999
4.48767e-07
-5.23396e-14
0.0167996
9.51548e-07
-8.98494e-14
0.0167988
2.85503e-06
-2.31525e-13
0.0167974
5.69163e-06
-3.74248e-13
0.0167912
2.00779e-05
-1.34378e-12
0.0167782
4.47256e-05
-2.48144e-12
0.0167167
0.000195476
-1.0317e-11
0.016547
0.000544299
-2.62645e-11
0.0156075
0.00310086
-7.67143e-11
0.0142483
0.00397498
1.60337e-11
0.0130038
0.00372896
1.03677e-12
0.0117285
0.0038566
-6.39761e-12
0.0103742
0.00408517
-6.17999e-12
0.00889773
0.00440773
-5.60757e-12
0.00729693
0.00474795
-6.80963e-12
0.00558609
0.0050648
-8.42723e-12
0.00378123
0.00535034
-9.4345e-12
0.00190236
0.00556789
-1.09924e-11
0.00562618
-1.2409e-11
0.0168001
5.66396e-10
-4.25006e-16
0.0168001
3.15993e-09
-2.34393e-15
0.0168001
1.17079e-08
-4.66948e-15
0.0168001
2.9957e-08
-9.81868e-15
0.0168
8.27969e-08
-1.496e-14
0.0168
1.85818e-07
-2.63205e-14
0.0168
5.1814e-07
-4.59465e-14
0.0168
9.83227e-07
-5.96452e-14
0.0167992
3.72971e-06
-2.40291e-13
0.0167996
5.30362e-06
-1.25751e-13
0.016791
2.91915e-05
-1.73647e-12
0.0167841
5.23684e-05
-1.82763e-12
0.0167242
0.000257429
-1.10439e-11
0.0165822
0.000691628
-2.58757e-11
0.0158227
0.00388708
-7.76479e-11
0.014444
0.00534615
1.92895e-11
0.0131896
0.00498014
1.45206e-12
0.011919
0.00512415
-6.19056e-12
0.0105759
0.00542378
-6.06698e-12
0.009114
0.00586457
-5.70391e-12
0.00751717
0.00633707
-6.62969e-12
0.00579199
0.0067769
-7.95724e-12
0.0039545
0.0071809
-8.64687e-12
0.00199966
0.00752122
-9.9094e-12
0.00761957
-1.10141e-11
0.0168001
7.87537e-10
-4.23071e-16
0.0168001
4.27119e-09
-2.34961e-15
0.0168001
1.58742e-08
-4.70803e-15
0.0168
4.05361e-08
-9.66134e-15
0.0168
1.12279e-07
-1.54207e-14
0.0167999
2.55753e-07
-2.6761e-14
0.0167998
6.83875e-07
-4.71708e-14
0.0167993
1.4623e-06
-6.91955e-14
0.0167987
4.44141e-06
-2.33642e-13
0.0167964
7.67276e-06
-1.83793e-13
0.0167932
3.28976e-05
-1.62203e-12
0.0167827
6.36773e-05
-1.90671e-12
0.0167537
0.00028832
-1.04379e-11
0.0166686
0.000781328
-2.48316e-11
0.0162866
0.00429431
-7.6927e-11
0.0148832
0.00674277
1.24358e-11
0.013561
0.00629884
1.78932e-12
0.0122678
0.00641455
-5.78165e-12
0.0109308
0.00675786
-5.9244e-12
0.00946692
0.0073241
-5.6686e-12
0.00787305
0.00792107
-6.10264e-12
0.00612385
0.00851168
-7.26e-12
0.00422707
0.0090744
-7.75968e-12
0.00217694
0.00957105
-8.65578e-12
0.00979099
-9.37031e-12
0.0168001
9.23403e-10
-4.28088e-16
0.0168001
4.9996e-09
-2.36503e-15
0.0168001
1.8602e-08
-4.78259e-15
0.0168
4.75705e-08
-9.84861e-15
0.0168
1.31665e-07
-1.59575e-14
0.0168
3.0087e-07
-2.82792e-14
0.0167999
7.9338e-07
-4.89933e-14
0.0167996
1.75734e-06
-8.75306e-14
0.0167993
4.80944e-06
-2.06689e-13
0.0167971
1.00369e-05
-3.12794e-13
0.0167971
3.32299e-05
-1.311e-12
0.0167938
6.77861e-05
-1.94828e-12
0.0167942
0.000289651
-9.189e-12
0.0168032
0.000776087
-2.26852e-11
0.0170513
0.00406849
-7.34756e-11
0.0156149
0.00817524
2.8619e-12
0.0141377
0.00777332
-5.28659e-13
0.0127887
0.00776084
-5.31139e-12
0.0114447
0.00809905
-5.72454e-12
0.0100022
0.00876084
-6.11751e-12
0.00839607
0.00952238
-6.07444e-12
0.00662302
0.010271
-6.7914e-12
0.00464847
0.011043
-6.80071e-12
0.00242578
0.0117937
-7.22888e-12
0.0122128
-7.50944e-12
0.0168001
9.69996e-10
-4.20692e-16
0.0168001
5.28873e-09
-2.33065e-15
0.0168001
1.96618e-08
-4.67235e-15
0.0168001
5.04473e-08
-9.60847e-15
0.0168
1.3866e-07
-1.52168e-14
0.0168
3.17188e-07
-2.67301e-14
0.0168
8.25862e-07
-4.40581e-14
0.0167999
1.83746e-06
-7.75587e-14
0.0167999
4.84101e-06
-1.65815e-13
0.0167995
1.06134e-05
-2.87033e-13
0.0168024
3.04601e-05
-9.65072e-13
0.0168017
6.91888e-05
-1.33028e-12
0.0168477
0.000244641
-6.594e-12
0.0169738
0.000653728
-1.55592e-11
0.0179854
0.00306636
-4.11984e-11
0.0167071
0.00945897
-2.62658e-11
0.014946
0.00953514
-8.21207e-12
0.013532
0.00917333
-5.5534e-12
0.0121712
0.00945585
-5.99854e-12
0.0107299
0.0101986
-6.60708e-12
0.00910922
0.011138
-6.28438e-12
0.00728737
0.0120799
-6.46993e-12
0.00523545
0.0130883
-6.2028e-12
0.00284845
0.0141803
-5.98073e-12
0.015059
-5.58211e-12
0.0168001
1.05343e-09
-4.18828e-16
0.0168001
5.78263e-09
-2.32004e-15
0.0168001
2.15558e-08
-4.64662e-15
0.0168001
5.54978e-08
-9.54895e-15
0.0168
1.52779e-07
-1.50575e-14
0.0168
3.50759e-07
-2.63947e-14
0.0167999
9.123e-07
-4.3064e-14
0.0167997
2.05378e-06
-7.58551e-14
0.0167993
5.28552e-06
-1.56714e-13
0.0167979
1.20733e-05
-2.86991e-13
0.0167979
3.06065e-05
-7.84846e-13
0.0167894
7.83023e-05
-1.54508e-12
0.0168079
0.000226999
-5.03038e-12
0.0168203
0.000642432
-1.25804e-11
0.0171763
0.00271954
-3.64913e-11
0.0166245
0.0100211
-5.00512e-11
0.0151913
0.010971
-1.6985e-11
0.0140665
0.0102964
-4.89547e-12
0.0128362
0.0106819
-5.61307e-12
0.011487
0.0115446
-6.84387e-12
0.00994783
0.0126699
-6.9559e-12
0.00815386
0.0138645
-6.64822e-12
0.00605868
0.0151764
-5.94848e-12
0.00346102
0.0167776
-5.07802e-12
0.0185185
-3.8632e-12
0.0168001
1.35034e-09
-4.23257e-16
0.0168001
6.2659e-09
-2.33449e-15
0.0168001
2.50636e-08
-4.71495e-15
0.0168
6.01976e-08
-9.69367e-15
0.0168
1.75681e-07
-1.55623e-14
0.0168
3.8491e-07
-2.74898e-14
0.0167999
1.0239e-06
-4.64424e-14
0.0167996
2.33049e-06
-8.49613e-14
0.0167995
5.38998e-06
-1.66892e-13
0.0167982
1.35073e-05
-3.85717e-13
0.0167973
3.15355e-05
-6.23219e-13
0.0168047
7.16463e-05
-2.19197e-12
0.0167988
0.000233655
-3.82992e-12
0.0168061
0.000634373
-1.21377e-11
0.0169952
0.00253757
-3.1478e-11
0.0163348
0.0106922
-5.70036e-11
0.0157385
0.0115677
-6.90223e-12
0.0145602
0.0114733
-3.2011e-12
0.0133541
0.0118847
-5.51578e-12
0.0122031
0.0126901
-6.33391e-12
0.0108242
0.0140458
-7.19204e-12
0.00920239
0.0154725
-6.64268e-12
0.00724922
0.0171221
-5.95174e-12
0.00455511
0.0194705
-4.46785e-12
0.0230734
-2.72789e-12
0.0168001
-4.24132e-16
1.83478e-09
0.0168001
-2.31101e-15
1.81352e-09
0.0168001
-4.62827e-15
2.48842e-08
0.0168001
-9.74532e-15
2.27594e-08
0.0168001
-1.4675e-14
1.70219e-07
0.0168003
-2.63411e-14
1.45058e-07
0.0168003
-4.14798e-14
1.04173e-06
0.0168019
-7.28796e-14
7.2167e-07
0.0168003
-1.42673e-13
7.06162e-06
0.0168112
-2.62257e-13
2.81864e-06
0.0167897
-6.60949e-13
5.31463e-05
0.0168518
-1.41726e-12
1.00676e-05
0.0167084
-3.32478e-12
0.000377244
0.0169965
-1.22503e-11
0.000347708
0.0169201
-2.64111e-11
0.00261753
0.0165663
-6.26498e-11
0.0110571
0.0157238
-3.89296e-12
0.0124103
0.0148629
-2.34817e-12
0.0123332
0.0139612
-5.85637e-12
0.012783
0.0129636
-6.47015e-12
0.0136837
0.0119052
-6.88654e-12
0.015102
0.0106305
-6.97578e-12
0.0167394
0.0088541
-6.14652e-12
0.0188885
0.00627294
-4.1608e-12
0.0220482
-2.14046e-12
0.0293476
0.0168001
1.79355e-10
1.76096e-16
0.0168001
9.7521e-10
2.35107e-16
0.0168001
3.62853e-09
5.74034e-17
0.0168
9.29181e-09
1.2407e-16
0.0168
2.5727e-08
3.77505e-16
0.0168
5.8604e-08
7.64643e-16
0.0167998
1.56763e-07
2.41085e-15
0.0167995
3.38684e-07
4.40618e-15
0.0167986
9.78982e-07
1.67256e-14
0.0167969
2.02141e-06
2.65529e-14
0.0167905
6.6438e-06
1.16337e-13
0.016777
1.50012e-05
2.17702e-13
0.0167142
6.48631e-05
9.7531e-13
0.0165386
0.000182025
2.51444e-12
0.0154924
0.00107367
7.3816e-12
0.0141885
0.00129635
-1.8728e-12
0.0129341
0.001251
-9.31438e-13
0.0116299
0.00130135
-7.5172e-14
0.0102536
0.00137215
-1.28617e-13
0.00878754
0.00146167
-3.96626e-13
0.00720731
0.00157112
-1.01586e-12
0.0055103
0.00168168
-1.64475e-12
0.00373161
0.00177194
-1.96398e-12
0.00188729
0.00184225
-2.31591e-12
0.00187938
-2.71633e-12
0.0168001
3.54895e-10
1.75897e-16
0.0168001
1.92994e-09
2.34543e-16
0.0168001
7.18351e-09
5.57703e-17
0.0168
1.83745e-08
1.20516e-16
0.0168
5.10232e-08
3.67645e-16
0.0168
1.1608e-07
7.4471e-16
0.0167998
3.12832e-07
2.35513e-15
0.0167995
6.71675e-07
4.30752e-15
0.0167986
1.97787e-06
1.63884e-14
0.0167968
4.03706e-06
2.60413e-14
0.0167903
1.35389e-05
1.14519e-13
0.0167764
3.03325e-05
2.14152e-13
0.0167114
0.000131927
9.6038e-13
0.016531
0.000368666
2.47677e-12
0.0154979
0.00213416
7.31541e-12
0.0141634
0.00262336
-1.86601e-12
0.012923
0.00248793
-9.06035e-13
0.0116374
0.00258411
-6.24933e-14
0.0102708
0.00273471
-1.14948e-13
0.00879307
0.00293506
-3.80121e-13
0.00719851
0.00315676
-1.00055e-12
0.00549566
0.0033695
-1.61938e-12
0.00370935
0.00355158
-1.93745e-12
0.00185929
0.00369016
-2.27757e-12
0.00373081
-2.66813e-12
0.0168001
5.13387e-10
1.75231e-16
0.0168001
2.77227e-09
2.33319e-16
0.0168001
1.03084e-08
5.16529e-17
0.0168
2.62177e-08
1.11479e-16
0.0168
7.3016e-08
3.44565e-16
0.0168
1.65361e-07
7.00648e-16
0.0167999
4.48771e-07
2.23354e-15
0.0167996
9.51562e-07
4.15954e-15
0.0167988
2.85503e-06
1.56269e-14
0.0167974
5.69174e-06
2.54712e-14
0.0167912
2.00778e-05
1.11148e-13
0.0167782
4.47258e-05
2.07171e-13
0.0167167
0.000195476
9.28595e-13
0.016547
0.0005443
2.39462e-12
0.0156075
0.00310086
7.17727e-12
0.0142483
0.00397498
-1.85658e-12
0.0130038
0.00372896
-8.70471e-13
0.0117285
0.0038566
-6.19146e-14
0.0103742
0.00408517
-1.19607e-13
0.00889774
0.00440772
-3.83952e-13
0.00729694
0.00474795
-9.9135e-13
0.0055861
0.0050648
-1.58051e-12
0.00378124
0.00535034
-1.88299e-12
0.00190237
0.0055679
-2.15774e-12
0.00562619
-2.62108e-12
0.0168001
5.66397e-10
1.71367e-16
0.0168001
3.15993e-09
2.2997e-16
0.0168001
1.17079e-08
3.24405e-17
0.0168001
2.99571e-08
6.97328e-17
0.0168
8.27969e-08
2.11975e-16
0.0168
1.85818e-07
3.95872e-16
0.0168
5.1814e-07
1.5447e-15
0.0168
9.83225e-07
1.36377e-15
0.0167992
3.72972e-06
1.53749e-14
0.0167996
5.30361e-06
3.18423e-15
0.016791
2.91916e-05
1.39006e-13
0.0167841
5.23684e-05
1.41072e-13
0.0167242
0.00025743
9.48472e-13
0.0165822
0.000691629
2.25462e-12
0.0158226
0.00388709
6.93637e-12
0.014444
0.00534614
-1.79758e-12
0.0131896
0.00498013
-7.87643e-13
0.011919
0.00512414
-7.15874e-14
0.0105759
0.00542378
-1.30517e-13
0.009114
0.00586457
-4.16036e-13
0.00751717
0.00633707
-9.8213e-13
0.005792
0.0067769
-1.51743e-12
0.0039545
0.0071809
-1.75198e-12
0.00199966
0.00752123
-1.92885e-12
0.00761958
-2.36421e-12
0.0168001
7.87535e-10
1.70852e-16
0.0168001
4.27119e-09
2.29363e-16
0.0168001
1.58741e-08
3.31766e-17
0.0168
4.05361e-08
7.04986e-17
0.0168
1.12278e-07
2.26484e-16
0.0167999
2.55753e-07
4.44413e-16
0.0167998
6.83874e-07
1.59162e-15
0.0167993
1.46229e-06
2.15715e-15
0.0167987
4.44142e-06
1.40617e-14
0.0167964
7.6727e-06
8.03137e-15
0.0167932
3.28977e-05
1.21153e-13
0.0167827
6.36774e-05
1.39319e-13
0.0167537
0.000288322
8.41278e-13
0.0166686
0.000781331
2.03621e-12
0.0162866
0.00429433
6.4708e-12
0.0148832
0.00674276
-1.48628e-12
0.013561
0.00629883
-7.39037e-13
0.0122678
0.00641454
-1.08961e-13
0.0109308
0.00675786
-1.61173e-13
0.00946693
0.00732409
-4.23066e-13
0.00787305
0.00792107
-9.17392e-13
0.00612385
0.00851168
-1.40999e-12
0.00422707
0.0090744
-1.60859e-12
0.00217694
0.00957107
-1.86261e-12
0.009791
-1.84128e-12
0.0168001
9.23406e-10
1.72227e-16
0.0168001
4.99962e-09
2.29097e-16
0.0168001
1.8602e-08
3.63936e-17
0.0168
4.75707e-08
7.93433e-17
0.0168
1.31666e-07
2.48584e-16
0.0168
3.00871e-07
5.1758e-16
0.0167999
7.93382e-07
1.60301e-15
0.0167996
1.75734e-06
3.23557e-15
0.0167993
4.80946e-06
1.11374e-14
0.0167971
1.00369e-05
1.62045e-14
0.0167971
3.323e-05
8.90996e-14
0.0167938
6.77865e-05
1.30282e-13
0.0167942
0.000289653
6.77974e-13
0.0168032
0.000776093
1.70516e-12
0.0170513
0.00406853
5.65603e-12
0.0156149
0.00817523
-7.43695e-13
0.0141377
0.0077733
-6.01448e-13
0.0127887
0.00776083
-1.18281e-13
0.0114447
0.00809905
-1.83482e-13
0.0100022
0.00876083
-4.6865e-13
0.00839606
0.00952238
-8.7884e-13
0.00662301
0.010271
-1.30709e-12
0.00464847
0.011043
-1.41528e-12
0.00242578
0.0117937
-1.57944e-12
0.0122128
-1.47224e-12
0.0168001
9.69997e-10
1.69723e-16
0.0168001
5.28873e-09
2.27864e-16
0.0168001
1.96618e-08
2.58684e-17
0.0168001
5.04473e-08
5.63082e-17
0.0168
1.3866e-07
1.76638e-16
0.0168
3.17188e-07
3.66032e-16
0.0168
8.25863e-07
1.12575e-15
0.0167999
1.83746e-06
2.2659e-15
0.0167999
4.84102e-06
7.30385e-15
0.0167995
1.06134e-05
1.33248e-14
0.0168024
3.04602e-05
5.51226e-14
0.0168017
6.91888e-05
8.13425e-14
0.0168477
0.000244642
4.16944e-13
0.0169738
0.000653732
1.03454e-12
0.0179854
0.00306638
2.7548e-12
0.0167071
0.00945898
1.39525e-12
0.014946
0.00953513
1.94664e-13
0.013532
0.00917332
-9.09561e-14
0.0121712
0.00945584
-2.06156e-13
0.0107299
0.0101986
-4.91522e-13
0.00910921
0.011138
-8.13809e-13
0.00728736
0.0120799
-1.16705e-12
0.00523545
0.0130883
-1.23959e-12
0.00284845
0.0141803
-1.11571e-12
0.015059
-1.26422e-12
0.0168001
1.05342e-09
1.68746e-16
0.0168001
5.78262e-09
2.26034e-16
0.0168001
2.15558e-08
1.92954e-17
0.0168001
5.54977e-08
4.20052e-17
0.0168
1.52778e-07
1.35736e-16
0.0168
3.50758e-07
2.82225e-16
0.0167999
9.12298e-07
8.83582e-16
0.0167997
2.05377e-06
1.802e-15
0.0167993
5.28552e-06
5.66635e-15
0.0167979
1.20733e-05
1.13104e-14
0.0167979
3.06066e-05
3.72007e-14
0.0167894
7.8302e-05
8.07304e-14
0.0168079
0.000227
2.73769e-13
0.0168203
0.000642433
7.22949e-13
0.0171763
0.00271955
2.15016e-12
0.0166246
0.0100211
2.94183e-12
0.0151913
0.010971
8.6485e-13
0.0140665
0.0102964
-1.4243e-13
0.0128362
0.0106819
-2.75055e-13
0.011487
0.0115446
-5.14893e-13
0.00994783
0.0126699
-7.57736e-13
0.00815385
0.0138645
-1.04146e-12
0.00605867
0.0151764
-1.06561e-12
0.00346102
0.0167776
-1.02561e-12
0.0185186
-7.11407e-13
0.0168001
1.35034e-09
1.69467e-16
0.0168001
6.26592e-09
2.23523e-16
0.0168001
2.50637e-08
1.64003e-17
0.0168
6.01976e-08
3.57295e-17
0.0168
1.75681e-07
1.23133e-16
0.0168
3.84911e-07
2.59972e-16
0.0167999
1.02391e-06
8.41019e-16
0.0167996
2.3305e-06
1.84046e-15
0.0167995
5.38999e-06
5.02304e-15
0.0167982
1.35074e-05
1.39708e-14
0.0167973
3.15355e-05
2.30753e-14
0.0168047
7.16466e-05
9.74043e-14
0.0167988
0.000233655
1.77188e-13
0.0168061
0.000634374
5.9284e-13
0.0169952
0.00253758
1.58762e-12
0.0163348
0.0106923
2.9201e-12
0.0157385
0.0115677
1.39891e-13
0.0145602
0.0114733
-1.94507e-13
0.0133541
0.0118847
-3.7183e-13
0.0122031
0.0126901
-5.01461e-13
0.0108242
0.0140458
-7.0445e-13
0.00920239
0.0154725
-9.28563e-13
0.00724921
0.0171221
-9.23191e-13
0.00455511
0.0194705
-7.88187e-13
0.0230734
-4.93107e-13
0.0168001
1.68766e-16
1.83475e-09
0.0168001
2.22377e-16
1.81358e-09
0.0168001
8.08832e-18
2.4884e-08
0.0168001
1.76556e-17
2.27597e-08
0.0168001
6.57382e-17
1.70219e-07
0.0168003
1.40801e-16
1.45059e-07
0.0168003
4.61361e-16
1.04173e-06
0.0168019
1.03615e-15
7.21674e-07
0.0168003
2.98024e-15
7.06164e-06
0.0168112
6.61637e-15
2.81867e-06
0.0167897
2.05883e-14
5.31464e-05
0.0168518
5.06068e-14
1.00678e-05
0.0167084
1.18866e-13
0.000377245
0.0169965
5.19249e-13
0.00034771
0.0169201
1.11121e-12
0.00261754
0.0165663
2.77764e-12
0.0110571
0.0157238
-2.65505e-14
0.0124103
0.0148629
-2.10002e-13
0.0123332
0.0139612
-3.83513e-13
0.012783
0.0129636
-4.86545e-13
0.0136837
0.0119052
-5.80601e-13
0.015102
0.0106305
-8.19771e-13
0.0167394
0.0088541
-9.35425e-13
0.0188885
0.00627294
-7.78694e-13
0.0220482
-3.22542e-13
0.0293476
0.0168001
1.79354e-10
-6.79829e-18
0.0168001
9.7521e-10
-2.78047e-17
0.0168001
3.62852e-09
-7.18326e-17
0.0168
9.2918e-09
-1.28302e-16
0.0168
2.5727e-08
-2.36415e-16
0.0168
5.8604e-08
-3.63025e-16
0.0167998
1.56763e-07
-4.69492e-16
0.0167995
3.38684e-07
-5.9922e-16
0.0167986
9.78981e-07
-4.11244e-18
0.0167969
2.02141e-06
-6.98906e-16
0.0167905
6.6438e-06
6.18374e-15
0.016777
1.50012e-05
1.16211e-14
0.0167142
6.4863e-05
9.98798e-14
0.0165386
0.000182025
2.78769e-13
0.0154924
0.00107367
1.13669e-12
0.0141885
0.00129635
2.78572e-13
0.0129341
0.001251
3.08351e-14
0.0116299
0.00130135
1.8187e-13
0.0102536
0.00137215
1.96869e-13
0.00878754
0.00146167
7.35815e-14
0.00720731
0.00157112
-1.00369e-12
0.0055103
0.00168168
-1.89613e-12
0.00373161
0.00177194
-2.39977e-12
0.00188729
0.00184225
-3.08936e-12
0.00187938
-3.98176e-12
0.0168001
3.54895e-10
-7.06087e-18
0.0168001
1.92994e-09
-2.87644e-17
0.0168001
7.18351e-09
-7.46372e-17
0.0168
1.83745e-08
-1.33417e-16
0.0168
5.10232e-08
-2.48569e-16
0.0168
1.1608e-07
-3.85587e-16
0.0167998
3.12832e-07
-5.30943e-16
0.0167995
6.71675e-07
-7.20912e-16
0.0167986
1.97787e-06
-3.03662e-16
0.0167968
4.03706e-06
-1.20929e-15
0.0167903
1.35389e-05
4.32471e-15
0.0167764
3.03325e-05
8.05062e-15
0.0167114
0.000131927
8.60996e-14
0.016531
0.000368666
2.70642e-13
0.015498
0.00213416
8.52002e-13
0.0141634
0.00262336
2.93511e-13
0.012923
0.00248793
3.94468e-14
0.0116374
0.00258411
1.99036e-13
0.0102708
0.00273471
2.19043e-13
0.00879307
0.00293506
8.90239e-14
0.00719851
0.00315675
-9.72317e-13
0.00549566
0.0033695
-1.84554e-12
0.00370935
0.00355158
-2.34965e-12
0.0018593
0.00369016
-3.03687e-12
0.00373081
-3.90424e-12
0.0168001
5.13386e-10
-7.52589e-18
0.0168001
2.77226e-09
-3.04051e-17
0.0168001
1.03084e-08
-7.93475e-17
0.0168
2.62177e-08
-1.42208e-16
0.0168
7.30159e-08
-2.70588e-16
0.0168
1.65361e-07
-4.26817e-16
0.0167999
4.4877e-07
-6.49051e-16
0.0167996
9.51561e-07
-9.36189e-16
0.0167988
2.85503e-06
-9.10803e-16
0.0167974
5.69173e-06
-2.14058e-15
0.0167912
2.00778e-05
4.83818e-16
0.0167782
4.47258e-05
9.18446e-16
0.0167167
0.000195476
5.56562e-14
0.016547
0.0005443
1.96105e-13
0.0156075
0.00310086
8.64125e-13
0.0142483
0.00397497
3.13294e-13
0.0130038
0.00372896
4.71889e-14
0.0117286
0.0038566
1.97864e-13
0.0103742
0.00408517
2.09309e-13
0.00889774
0.00440772
7.85093e-14
0.00729694
0.00474795
-9.44588e-13
0.0055861
0.0050648
-1.77847e-12
0.00378124
0.00535034
-2.24862e-12
0.00190237
0.0055679
-2.85216e-12
0.0056262
-3.62691e-12
0.0168001
5.66397e-10
-7.70969e-18
0.0168001
3.15993e-09
-3.15588e-17
0.0168001
1.17079e-08
-8.22952e-17
0.0168001
2.99571e-08
-1.49477e-16
0.0168
8.27969e-08
-2.9504e-16
0.0168
1.85818e-07
-4.84383e-16
0.0168
5.1814e-07
-8.57989e-16
0.0168
9.83225e-07
-1.52786e-15
0.0167992
3.72972e-06
-1.75013e-15
0.0167996
5.30361e-06
-5.66917e-15
0.016791
2.91916e-05
-3.65651e-15
0.0167841
5.23684e-05
-1.24894e-14
0.0167242
0.00025743
1.37927e-14
0.0165822
0.000691629
7.94667e-14
0.0158226
0.00388709
5.25839e-13
0.014444
0.00534614
3.31043e-13
0.0131896
0.00498013
6.60948e-14
0.011919
0.00512414
1.86072e-13
0.0105759
0.00542377
1.7873e-13
0.00911401
0.00586457
1.59269e-14
0.00751717
0.00633707
-9.41045e-13
0.005792
0.0067769
-1.66561e-12
0.0039545
0.0071809
-2.00044e-12
0.00199966
0.00752123
-2.48885e-12
0.00761959
-3.11335e-12
0.0168001
7.87535e-10
-8.15777e-18
0.0168001
4.27119e-09
-3.34663e-17
0.0168001
1.58741e-08
-8.82295e-17
0.0168
4.05361e-08
-1.60565e-16
0.0168
1.12278e-07
-3.22712e-16
0.0167999
2.55753e-07
-5.32221e-16
0.0167998
6.83874e-07
-9.94468e-16
0.0167993
1.46229e-06
-1.66652e-15
0.0167987
4.44142e-06
-2.70983e-15
0.0167964
7.6727e-06
-6.02127e-15
0.0167932
3.28977e-05
-1.17663e-14
0.0167827
6.36773e-05
-2.26475e-14
0.0167537
0.000288321
-4.21871e-14
0.0166686
0.000781331
-5.81488e-14
0.0162866
0.00429433
8.78747e-14
0.0148832
0.00674276
3.31591e-13
0.013561
0.00629883
1.24624e-13
0.0122678
0.00641454
1.62061e-13
0.0109308
0.00675786
1.18853e-13
0.00946693
0.00732409
-5.78125e-15
0.00787305
0.00792107
-8.20406e-13
0.00612385
0.00851168
-1.50823e-12
0.00422707
0.0090744
-1.76299e-12
0.00217694
0.00957107
-2.1193e-12
0.00979101
-2.53228e-12
0.0168001