/*--------------------------------*- C++ -*----------------------------------*\
| =========                 |                                                 |
| \\      /  F ield         | OpenFOAM: The Open Source CFD Toolbox           |
|  \\    /   O peration     | Version:  4.1                                   |
|   \\  /    A nd           | Web:      www.OpenFOAM.org                      |
|    \\/     M anipulation  |                                                 |
\*---------------------------------------------------------------------------*/
FoamFile
{
    version     2.0;
    format      ascii;
    class       volScalarField;
    location    "0.92";
    object      Ma;
}
// * * * * * * * * * * * * * * * * * * * * * * * * * * * * * * * * * * * * * //

dimensions      [0 0 0 0 0 0 0];

internalField   nonuniform List<scalar> 
52500
(
13.1156
1.62776
0.563293
0.411294
0.441742
0.489476
0.505193
0.502809
0.496038
0.491161
0.484808
0.475759
0.468168
0.476288
0.487944
0.489641
0.486328
0.467219
0.428588
0.384057
0.330852
0.25634
0.165414
0.0789765
0.0330234
13.8211
1.64637
0.572843
0.412117
0.441783
0.489472
0.50488
0.502425
0.495711
0.49094
0.484782
0.476084
0.468859
0.477362
0.489448
0.491661
0.488863
0.470308
0.431944
0.387715
0.334775
0.260714
0.171059
0.0890876
0.0528749
13.181
1.67322
0.584534
0.40938
0.440865
0.490054
0.505883
0.503853
0.497739
0.493576
0.488072
0.480281
0.47346
0.481671
0.494304
0.497062
0.494654
0.477005
0.439134
0.395652
0.343819
0.271712
0.18604
0.113499
0.0874136
11.5941
1.70879
0.600566
0.403574
0.438734
0.490884
0.507768
0.506301
0.500919
0.497546
0.492898
0.48655
0.48024
0.487482
0.501032
0.504694
0.502809
0.486475
0.449756
0.407429
0.357402
0.288381
0.208104
0.144784
0.124534
11.1009
1.77183
0.630026
0.39867
0.437631
0.493869
0.511871
0.510599
0.505714
0.503063
0.499457
0.494918
0.489107
0.494769
0.509454
0.514493
0.513333
0.498625
0.463612
0.422728
0.375153
0.310438
0.236722
0.181735
0.165428
9.62337
1.84477
0.663529
0.390193
0.43628
0.498451
0.518131
0.516801
0.512179
0.510201
0.507792
0.505076
0.499648
0.503391
0.519569
0.526299
0.525955
0.513223
0.48062
0.441597
0.397381
0.33827
0.272276
0.225224
0.212564
8.39382
1.94693
0.707523
0.381328
0.436444
0.506042
0.527394
0.525363
0.520462
0.518903
0.517766
0.516761
0.511662
0.513481
0.531192
0.539942
0.540561
0.530123
0.500869
0.464229
0.424138
0.372057
0.315234
0.276662
0.269168
7.41249
2.09
0.764874
0.376209
0.440739
0.518574
0.540794
0.536757
0.530685
0.52918
0.529203
0.529656
0.524923
0.525005
0.543865
0.555116
0.556818
0.549016
0.524213
0.490607
0.455649
0.412171
0.366672
0.338786
0.341579
6.41823
2.25976
0.825759
0.381872
0.453569
0.538446
0.55954
0.551326
0.542822
0.540946
0.541868
0.543441
0.539297
0.538228
0.556905
0.571083
0.574448
0.56972
0.550667
0.52065
0.491951
0.459042
0.427722
0.414902
0.438784
5.62617
2.44671
0.887149
0.408848
0.479995
0.565705
0.582265
0.567793
0.556128
0.553698
0.555276
0.557699
0.554715
0.553017
0.569987
0.587255
0.593117
0.591667
0.579511
0.554656
0.532644
0.512458
0.5017
0.516943
0.602911
13.1271
1.62794
0.563402
0.411309
0.441726
0.489441
0.505143
0.502749
0.495964
0.491065
0.484678
0.4756
0.468011
0.476161
0.487816
0.489536
0.486263
0.4672
0.428598
0.384063
0.330845
0.256306
0.165283
0.0786048
0.0322102
13.8105
1.64641
0.572841
0.412074
0.44175
0.489456
0.504878
0.502441
0.495753
0.491013
0.484874
0.476223
0.469001
0.477426
0.489558
0.491794
0.488988
0.470444
0.432043
0.387766
0.334789
0.260691
0.170937
0.088763
0.0523785
13.1772
1.67331
0.58457
0.409349
0.44083
0.490032
0.505875
0.503864
0.497776
0.493641
0.488139
0.480387
0.473558
0.481667
0.494333
0.497118
0.494718
0.477097
0.439195
0.395679
0.343821
0.271684
0.185929
0.11325
0.0871223
11.606
1.70905
0.600685
0.403582
0.438714
0.490855
0.507746
0.50629
0.50092
0.497557
0.492898
0.486557
0.480224
0.487376
0.500946
0.504631
0.502757
0.486438
0.449729
0.407408
0.357379
0.288341
0.207999
0.144591
0.124337
11.0988
1.77194
0.630079
0.398646
0.437599
0.493832
0.511833
0.510562
0.505677
0.503028
0.499406
0.494841
0.489015
0.494695
0.509355
0.514374
0.513208
0.498486
0.463485
0.422636
0.375087
0.310376
0.23662
0.181582
0.165282
9.62627
1.84498
0.66362
0.390179
0.436249
0.498414
0.51809
0.516755
0.512124
0.510136
0.507702
0.50494
0.499492
0.503277
0.519439
0.526132
0.525776
0.513041
0.480448
0.441463
0.397281
0.338185
0.272174
0.225097
0.212448
8.39311
1.94708
0.707588
0.381302
0.436409
0.506005
0.527354
0.525316
0.520402
0.518827
0.517658
0.516606
0.511489
0.513374
0.531062
0.539738
0.54033
0.529886
0.500638
0.464068
0.42402
0.371961
0.315135
0.276553
0.269072
7.41286
2.09021
0.76496
0.376192
0.440707
0.518542
0.540758
0.536712
0.530628
0.529105
0.529095
0.529511
0.524759
0.524925
0.543799
0.554913
0.556579
0.548752
0.523925
0.490418
0.455519
0.412072
0.366584
0.338689
0.341495
6.41831
2.25998
0.825845
0.381869
0.453548
0.538422
0.559512
0.551287
0.54277
0.540877
0.54177
0.543318
0.539142
0.538145
0.556904
0.570938
0.574227
0.569464
0.550366
0.520449
0.491816
0.458948
0.427642
0.414815
0.438712
5.62561
2.44688
0.887193
0.408844
0.47998
0.565688
0.582245
0.567759
0.556085
0.553641
0.555197
0.557602
0.554573
0.552946
0.570039
0.587162
0.592926
0.591442
0.57924
0.554464
0.532521
0.51237
0.501624
0.516866
0.602855
13.1188
1.62796
0.563384
0.411278
0.441709
0.489437
0.505146
0.502757
0.495971
0.491068
0.484692
0.475594
0.467989
0.476156
0.487769
0.489453
0.48615
0.46705
0.428467
0.383967
0.330772
0.25624
0.16523
0.0785923
0.0322141
13.8202
1.64654
0.572914
0.412086
0.441747
0.489438
0.504846
0.502393
0.495676
0.490897
0.484734
0.476017
0.468786
0.477305
0.489367
0.491572
0.488775
0.470219
0.431877
0.387658
0.334714
0.260624
0.170883
0.0887475
0.0523743
13.1781
1.67339
0.584607
0.409343
0.440826
0.490021
0.505851
0.503825
0.497714
0.49355
0.488043
0.480248
0.473426
0.481632
0.494251
0.497011
0.494604
0.47696
0.43909
0.395606
0.343764
0.271628
0.18588
0.113233
0.0871112
11.5979
1.70904
0.600679
0.403551
0.438701
0.490853
0.507738
0.506273
0.500895
0.497522
0.49287
0.486525
0.480209
0.487414
0.500968
0.504639
0.502766
0.48644
0.449725
0.407399
0.357361
0.288309
0.207964
0.144576
0.124321
11.0994
1.77205
0.630124
0.398633
0.437595
0.493839
0.511842
0.510569
0.505686
0.503039
0.499431
0.494897
0.489086
0.494747
0.509421
0.51446
0.513307
0.498596
0.46358
0.422696
0.375112
0.310371
0.236601
0.181571
0.165266
9.62398
1.84507
0.663654
0.39016
0.436246
0.498425
0.518105
0.516772
0.512151
0.510174
0.507763
0.50505
0.499614
0.503323
0.519513
0.52627
0.525942
0.513215
0.4806
0.441563
0.397337
0.338205
0.272171
0.225091
0.212435
8.39287
1.94724
0.707651
0.381292
0.436411
0.50602
0.527373
0.525338
0.520434
0.518873
0.517735
0.516731
0.511625
0.513396
0.531118
0.539902
0.540538
0.530109
0.500856
0.464199
0.424095
0.371997
0.315143
0.276553
0.269064
7.412
2.09039
0.765028
0.376182
0.440712
0.518559
0.54078
0.536737
0.530659
0.529149
0.529168
0.529621
0.524886
0.524949
0.543804
0.555073
0.556786
0.548984
0.524177
0.490569
0.455606
0.412116
0.366596
0.338695
0.341493
6.41771
2.2602
0.825917
0.381875
0.45356
0.538445
0.559536
0.551311
0.542797
0.540915
0.541829
0.5434
0.539248
0.538176
0.556872
0.571049
0.574411
0.569679
0.550612
0.520602
0.491906
0.458993
0.427659
0.414828
0.438715
5.62517
2.44708
0.887251
0.408851
0.479992
0.565706
0.582266
0.56778
0.556106
0.553668
0.555235
0.557652
0.554652
0.552968
0.569988
0.587235
0.59308
0.591624
0.579449
0.554601
0.5326
0.512414
0.501646
0.516883
0.602861
13.1195
1.62804
0.56343
0.411284
0.441709
0.489431
0.505137
0.502744
0.495955
0.491048
0.484667
0.475562
0.467957
0.476128
0.487743
0.489437
0.486145
0.467053
0.428478
0.383981
0.330788
0.256256
0.165237
0.0785877
0.0322096
13.8195
1.64662
0.572954
0.412088
0.441745
0.489434
0.504838
0.502384
0.495667
0.490886
0.484721
0.476001
0.46877
0.477287
0.489355
0.491571
0.488782
0.47023
0.431892
0.387674
0.33473
0.260639
0.170889
0.088742
0.0523693
13.1785
1.67348
0.584652
0.409345
0.440824
0.490016
0.505844
0.503817
0.497706
0.493542
0.488033
0.48024
0.47342
0.481624
0.494245
0.497013
0.494614
0.476973
0.439108
0.395625
0.343783
0.271643
0.185885
0.113226
0.0871053
11.5978
1.70913
0.600724
0.40355
0.438699
0.490848
0.507731
0.506265
0.500886
0.497513
0.492858
0.486514
0.480195
0.487383
0.500943
0.504627
0.502763
0.486445
0.449729
0.407405
0.35737
0.288317
0.207964
0.144567
0.124314
11.0992
1.77214
0.63017
0.398631
0.437593
0.493835
0.511836
0.51056
0.505675
0.503026
0.499414
0.494874
0.489056
0.494701
0.509382
0.514435
0.513292
0.498583
0.463558
0.422679
0.375105
0.310369
0.236595
0.181559
0.165257
9.62373
1.84517
0.663701
0.390157
0.436245
0.498423
0.5181
0.516763
0.512138
0.510157
0.507738
0.50501
0.499569
0.503291
0.519478
0.526227
0.525902
0.51318
0.480569
0.441539
0.397322
0.338195
0.272159
0.225077
0.212424
8.39248
1.94735
0.707698
0.381289
0.436411
0.506021
0.52737
0.525331
0.520421
0.518853
0.517702
0.51668
0.51157
0.513384
0.531095
0.539842
0.540472
0.530042
0.50079
0.464165
0.424077
0.371984
0.315129
0.276538
0.269052
7.41162
2.09052
0.765077
0.37618
0.440714
0.518563
0.54078
0.536732
0.530648
0.52913
0.529135
0.529572
0.524829
0.524937
0.543804
0.555013
0.556718
0.54891
0.524092
0.490526
0.455585
0.412104
0.366585
0.338681
0.34148
6.41736
2.26034
0.825962
0.381882
0.453568
0.538454
0.559541
0.551309
0.542789
0.540899
0.541801
0.54336
0.539199
0.53816
0.556882
0.571009
0.574353
0.569616
0.550537
0.520561
0.491886
0.458983
0.427651
0.414814
0.438702
5.62472
2.44718
0.887279
0.408855
0.48
0.565715
0.582273
0.567781
0.556101
0.553657
0.555216
0.557625
0.554616
0.552953
0.569991
0.587205
0.593037
0.591582
0.579406
0.554578
0.53259
0.512408
0.50164
0.516872
0.602849
13.1151
1.62815
0.563471
0.411266
0.44169
0.489418
0.505128
0.502737
0.495949
0.491046
0.484672
0.475577
0.467976
0.476142
0.487761
0.489456
0.486161
0.467065
0.428482
0.383983
0.330787
0.256249
0.165238
0.0786058
0.0322123
13.8155
1.64673
0.573003
0.412072
0.44173
0.489423
0.50483
0.502376
0.495659
0.490882
0.484722
0.476011
0.468783
0.477297
0.489368
0.491584
0.48879
0.470236
0.431892
0.387674
0.334728
0.260633
0.170891
0.0887599
0.0523708
13.1763
1.67362
0.584706
0.409324
0.440809
0.490008
0.505837
0.503809
0.497697
0.493537
0.488034
0.480247
0.47343
0.481632
0.494256
0.497022
0.494619
0.476976
0.439109
0.395625
0.343781
0.271637
0.185887
0.11324
0.0871055
11.592
1.70922
0.600756
0.403515
0.43868
0.490842
0.507726
0.506257
0.500879
0.497511
0.492862
0.486524
0.48021
0.487411
0.500965
0.504641
0.50277
0.486444
0.449727
0.407403
0.357366
0.28831
0.207964
0.144576
0.124313
11.0973
1.77228
0.630224
0.398601
0.437579
0.493835
0.511836
0.510558
0.505673
0.503026
0.49942
0.494886
0.489066
0.494682
0.509374
0.514438
0.513294
0.498586
0.46356
0.422678
0.375102
0.310363
0.236593
0.181565
0.165256
9.62014
1.84528
0.663741
0.390117
0.43623
0.498425
0.518103
0.516764
0.512138
0.510161
0.507749
0.505026
0.499587
0.503304
0.519486
0.526233
0.525904
0.513181
0.48057
0.441539
0.397318
0.338188
0.272155
0.22508
0.212423
8.39121
1.94753
0.70776
0.381255
0.436401
0.506027
0.527378
0.525334
0.520425
0.518862
0.517715
0.516697
0.511587
0.51342
0.531125
0.539857
0.540478
0.530044
0.500786
0.464162
0.424072
0.371976
0.315123
0.276538
0.26905
7.41008
2.09073
0.765142
0.376146
0.440707
0.518575
0.540793
0.536739
0.530655
0.529142
0.529152
0.52959
0.524843
0.524957
0.543831
0.555028
0.556726
0.548914
0.524091
0.490524
0.455581
0.412097
0.366578
0.338679
0.341479
6.41636
2.26058
0.826026
0.381867
0.453573
0.538473
0.559558
0.551321
0.542799
0.540913
0.541822
0.543382
0.53922
0.538181
0.556896
0.57102
0.574363
0.569623
0.550544
0.520564
0.491884
0.458978
0.427643
0.414812
0.438701
5.62382
2.44737
0.887322
0.408835
0.480001
0.565727
0.582286
0.567792
0.556111
0.553671
0.555238
0.55765
0.554652
0.552977
0.569982
0.587208
0.593049
0.591593
0.579419
0.554586
0.532591
0.512404
0.501635
0.516872
0.602848
13.1165
1.62815
0.563477
0.411274
0.441696
0.489421
0.505129
0.502737
0.495947
0.491041
0.484663
0.475561
0.467958
0.476131
0.487745
0.48944
0.486145
0.467048
0.42847
0.383975
0.330782
0.256247
0.165237
0.0786034
0.0322144
13.8165
1.64673
0.573005
0.412078
0.441734
0.489426
0.504831
0.502378
0.49566
0.490881
0.484719
0.476003
0.468774
0.477292
0.48936
0.491575
0.488782
0.470226
0.431884
0.387668
0.334724
0.26063
0.170888
0.0887542
0.0523702
13.1765
1.67361
0.584706
0.40933
0.440814
0.49001
0.505839
0.503811
0.497699
0.493537
0.488032
0.480242
0.473424
0.481628
0.49425
0.497016
0.494614
0.476969
0.439102
0.39562
0.343777
0.271634
0.185884
0.113234
0.0871027
11.5939
1.70922
0.600764
0.403526
0.438686
0.490844
0.507728
0.50626
0.500881
0.497511
0.49286
0.486519
0.480203
0.487405
0.500959
0.504634
0.502765
0.486439
0.449721
0.407399
0.357363
0.288309
0.207962
0.14457
0.124308
11.0977
1.77227
0.630224
0.39861
0.437584
0.493836
0.511836
0.510559
0.505673
0.503025
0.499416
0.494879
0.489059
0.494677
0.509368
0.514432
0.513289
0.498582
0.463555
0.422675
0.3751
0.310362
0.236592
0.181559
0.16525
9.62119
1.84528
0.663745
0.390128
0.436235
0.498425
0.518103
0.516764
0.512138
0.510159
0.507745
0.505019
0.49958
0.503299
0.519479
0.526226
0.525899
0.513176
0.480565
0.441535
0.397317
0.338188
0.272154
0.225074
0.212416
8.39151
1.94752
0.707758
0.381265
0.436405
0.506026
0.527377
0.525334
0.520424
0.51886
0.51771
0.51669
0.511579
0.513414
0.531118
0.53985
0.540473
0.53004
0.500782
0.464159
0.424071
0.371977
0.315124
0.276533
0.269043
7.4105
2.09071
0.765139
0.376156
0.44071
0.518573
0.540791
0.536738
0.530654
0.529139
0.529147
0.529583
0.524835
0.524951
0.543825
0.555021
0.55672
0.54891
0.524087
0.490521
0.455579
0.412098
0.366579
0.338674
0.341473
6.41663
2.26055
0.826022
0.381873
0.453573
0.538469
0.559555
0.551319
0.542797
0.54091
0.541817
0.543375
0.539212
0.538174
0.556891
0.571014
0.574357
0.569618
0.550539
0.52056
0.491883
0.458978
0.427644
0.414807
0.438696
5.62406
2.44735
0.88732
0.408842
0.480002
0.565725
0.582284
0.567791
0.55611
0.553668
0.555233
0.557644
0.554644
0.552971
0.569979
0.587203
0.593043
0.591588
0.579414
0.554582
0.532589
0.512404
0.501633
0.516867
0.602845
13.1195
1.62804
0.563431
0.411284
0.441709
0.489431
0.505137
0.502745
0.495955
0.491048
0.484667
0.475562
0.467957
0.476128
0.487743
0.489437
0.486145
0.467053
0.428478
0.383981
0.330788
0.256256
0.165237
0.0785877
0.0322096
13.8195
1.64662
0.572954
0.412088
0.441745
0.489434
0.504838
0.502385
0.495667
0.490886
0.484721
0.476001
0.46877
0.477287
0.489355
0.491571
0.488781
0.47023
0.431892
0.387674
0.33473
0.260639
0.170889
0.0887421
0.0523693
13.1785
1.67348
0.584653
0.409345
0.440824
0.490016
0.505844
0.503817
0.497706
0.493542
0.488032
0.48024
0.47342
0.481623
0.494245
0.497012
0.494614
0.476973
0.439108
0.395625
0.343783
0.271643
0.185885
0.113226
0.0871053
11.5978
1.70913
0.600724
0.40355
0.438699
0.490848
0.507732
0.506265
0.500886
0.497513
0.492858
0.486514
0.480195
0.487383
0.500943
0.504627
0.502763
0.486445
0.449729
0.407405
0.35737
0.288317
0.207964
0.144567
0.124314
11.0992
1.77214
0.63017
0.398631
0.437593
0.493835
0.511836
0.51056
0.505676
0.503026
0.499414
0.494873
0.489056
0.494701
0.509382
0.514435
0.513291
0.498583
0.463558
0.422679
0.375105
0.310369
0.236595
0.181559
0.165257
9.62375
1.84517
0.663701
0.390157
0.436245
0.498423
0.5181
0.516763
0.512138
0.510157
0.507738
0.505009
0.499569
0.503291
0.519477
0.526227
0.525902
0.51318
0.480569
0.441539
0.397322
0.338195
0.272159
0.225077
0.212424
8.39248
1.94735
0.707698
0.381289
0.436411
0.506021
0.52737
0.525331
0.520421
0.518853
0.517702
0.51668
0.511569
0.513384
0.531095
0.539842
0.540471
0.530042
0.50079
0.464165
0.424077
0.371984
0.315129
0.276538
0.269052
7.41162
2.09052
0.765077
0.376181
0.440714
0.518563
0.54078
0.536732
0.530648
0.52913
0.529135
0.529572
0.524829
0.524937
0.543804
0.555013
0.556718
0.54891
0.524092
0.490526
0.455585
0.412104
0.366585
0.338681
0.34148
6.41736
2.26034
0.825962
0.381882
0.453568
0.538454
0.559541
0.551309
0.542789
0.540899
0.541801
0.54336
0.539198
0.538159
0.556882
0.571008
0.574353
0.569616
0.550537
0.520561
0.491886
0.458983
0.427651
0.414814
0.438702
5.62472
2.44718
0.88728
0.408855
0.48
0.565715
0.582273
0.567781
0.556101
0.553657
0.555216
0.557625
0.554616
0.552952
0.569991
0.587205
0.593037
0.591582
0.579406
0.554578
0.53259
0.512408
0.50164
0.516872
0.602849
13.1188
1.62796
0.563385
0.411278
0.441709
0.489437
0.505146
0.502757
0.495971
0.491068
0.484692
0.475594
0.467989
0.476156
0.487769
0.489453
0.48615
0.46705
0.428467
0.383967
0.330772
0.25624
0.16523
0.0785923
0.0322141
13.8202
1.64654
0.572914
0.412087
0.441747
0.489438
0.504846
0.502393
0.495676
0.490897
0.484734
0.476017
0.468786
0.477305
0.489367
0.491572
0.488775
0.470219
0.431877
0.387658
0.334714
0.260624
0.170883
0.0887475
0.0523743
13.1781
1.6734
0.584607
0.409344
0.440826
0.490021
0.505851
0.503825
0.497714
0.49355
0.488043
0.480248
0.473426
0.481632
0.494251
0.497011
0.494604
0.47696
0.43909
0.395606
0.343764
0.271628
0.18588
0.113233
0.0871112
11.5979
1.70904
0.600679
0.403551
0.438701
0.490853
0.507738
0.506273
0.500895
0.497522
0.49287
0.486525
0.480209
0.487414
0.500967
0.504639
0.502766
0.48644
0.449725
0.407399
0.357361
0.288309
0.207964
0.144576
0.124321
11.0994
1.77205
0.630124
0.398633
0.437595
0.493839
0.511842
0.510569
0.505686
0.503039
0.499431
0.494897
0.489086
0.494747
0.509421
0.51446
0.513307
0.498596
0.46358
0.422696
0.375112
0.310371
0.236601
0.181571
0.165266
9.62398
1.84507
0.663654
0.39016
0.436246
0.498425
0.518105
0.516772
0.512151
0.510174
0.507763
0.50505
0.499614
0.503323
0.519513
0.52627
0.525942
0.513215
0.4806
0.441563
0.397337
0.338205
0.272171
0.225091
0.212435
8.39287
1.94724
0.707651
0.381292
0.436411
0.50602
0.527373
0.525338
0.520434
0.518873
0.517735
0.516731
0.511625
0.513396
0.531118
0.539902
0.540538
0.530109
0.500856
0.464199
0.424095
0.371997
0.315143
0.276553
0.269064
7.412
2.09039
0.765028
0.376182
0.440712
0.518559
0.54078
0.536737
0.530659
0.529149
0.529168
0.529621
0.524886
0.524949
0.543804
0.555073
0.556786
0.548984
0.524177
0.490569
0.455606
0.412116
0.366596
0.338695
0.341493
6.41771
2.2602
0.825917
0.381875
0.45356
0.538445
0.559536
0.551311
0.542798
0.540915
0.541829
0.5434
0.539248
0.538176
0.556872
0.571049
0.574411
0.569679
0.550612
0.520602
0.491906
0.458993
0.427659
0.414828
0.438715
5.62517
2.44708
0.887251
0.408851
0.479992
0.565706
0.582266
0.56778
0.556106
0.553668
0.555235
0.557652
0.554652
0.552968
0.569988
0.587235
0.59308
0.591624
0.579449
0.554601
0.5326
0.512414
0.501646
0.516883
0.602861
13.1271
1.62795
0.563403
0.411309
0.441726
0.489441
0.505143
0.502749
0.495964
0.491065
0.484678
0.4756
0.468012
0.476161
0.487817
0.489536
0.486263
0.4672
0.428598
0.384063
0.330844
0.256306
0.165283
0.0786048
0.0322102
13.8105
1.64641
0.572842
0.412075
0.44175
0.489456
0.504878
0.502441
0.495753
0.491013
0.484874
0.476223
0.469002
0.477426
0.489558
0.491794
0.488988
0.470443
0.432043
0.387766
0.334789
0.260691
0.170937
0.088763
0.0523785
13.1772
1.67331
0.584571
0.409349
0.44083
0.490032
0.505875
0.503864
0.497776
0.493641
0.48814
0.480388
0.473558
0.481667
0.494333
0.497118
0.494717
0.477097
0.439195
0.395678
0.343821
0.271683
0.185929
0.11325
0.0871223
11.606
1.70905
0.600686
0.403582
0.438714
0.490855
0.507746
0.50629
0.500921
0.497557
0.492898
0.486557
0.480224
0.487376
0.500946
0.504631
0.502757
0.486438
0.449729
0.407408
0.357379
0.288341
0.207999
0.144591
0.124337
11.0989
1.77194
0.63008
0.398646
0.437599
0.493832
0.511833
0.510562
0.505677
0.503029
0.499407
0.494841
0.489015
0.494695
0.509355
0.514374
0.513208
0.498486
0.463485
0.422635
0.375087
0.310376
0.23662
0.181582
0.165282
9.62626
1.84498
0.66362
0.390179
0.436249
0.498414
0.51809
0.516756
0.512124
0.510136
0.507702
0.50494
0.499492
0.503277
0.519439
0.526132
0.525777
0.513041
0.480448
0.441463
0.39728
0.338185
0.272174
0.225097
0.212448
8.39311
1.94708
0.707589
0.381302
0.436409
0.506005
0.527354
0.525317
0.520402
0.518827
0.517659
0.516607
0.51149
0.513374
0.531062
0.539738
0.54033
0.529886
0.500638
0.464068
0.42402
0.371961
0.315135
0.276553
0.269072
7.41286
2.09021
0.76496
0.376192
0.440708
0.518542
0.540758
0.536713
0.530629
0.529105
0.529095
0.529511
0.52476
0.524925
0.543799
0.554913
0.556579
0.548753
0.523925
0.490418
0.455519
0.412072
0.366584
0.338689
0.341496
6.4183
2.25999
0.825846
0.381869
0.453548
0.538422
0.559512
0.551287
0.54277
0.540878
0.54177
0.543318
0.539142
0.538146
0.556905
0.570938
0.574227
0.569464
0.550367
0.520449
0.491816
0.458948
0.427642
0.414815
0.438712
5.62561
2.44688
0.887193
0.408844
0.47998
0.565689
0.582245
0.567759
0.556085
0.553642
0.555197
0.557602
0.554573
0.552946
0.570039
0.587162
0.592926
0.591442
0.57924
0.554464
0.532521
0.51237
0.501624
0.516866
0.602855
13.1209
1.62773
0.563294
0.411318
0.441757
0.489478
0.505185
0.502793
0.496005
0.4911
0.484719
0.475604
0.467996
0.476183
0.487792
0.489474
0.486181
0.467087
0.428511
0.384013
0.330819
0.256311
0.165388
0.0789424
0.0330102
13.8274
1.64633
0.572838
0.412139
0.441796
0.489477
0.504881
0.502431
0.49572
0.490947
0.484789
0.476087
0.468872
0.4774
0.489481
0.491694
0.4889
0.470343
0.431982
0.387744
0.334787
0.260717
0.171057
0.0890743
0.0528645
13.1802
1.67313
0.584503
0.409395
0.440874
0.490058
0.50589
0.503872
0.497778
0.493636
0.488148
0.480412
0.473621
0.481796
0.494438
0.497204
0.494796
0.477157
0.439247
0.395722
0.343856
0.271732
0.186052
0.113496
0.0874057
11.5986
1.70875
0.600559
0.403603
0.438747
0.490887
0.507778
0.506323
0.500963
0.497617
0.492982
0.486704
0.480393
0.487467
0.501086
0.504822
0.502954
0.486629
0.449861
0.407488
0.357436
0.288404
0.208119
0.144786
0.124531
11.104
1.77177
0.630011
0.3987
0.437643
0.493869
0.511872
0.510611
0.505745
0.503117
0.499522
0.495027
0.489211
0.494734
0.509469
0.514586
0.513442
0.498745
0.463678
0.422748
0.375158
0.310445
0.236731
0.181741
0.165431
9.6262
1.84471
0.663514
0.390227
0.436291
0.498448
0.518127
0.516802
0.512189
0.510224
0.507816
0.505107
0.499676
0.503387
0.519571
0.526316
0.525969
0.513239
0.480625
0.441587
0.39737
0.338265
0.272279
0.225231
0.21257
8.39508
1.94682
0.707487
0.381357
0.436452
0.506035
0.527386
0.525355
0.520455
0.518898
0.517745
0.516727
0.511626
0.513514
0.531208
0.539892
0.540488
0.530046
0.500794
0.464199
0.424123
0.372048
0.315236
0.27667
0.269176
7.41339
2.08984
0.764825
0.376234
0.440744
0.518564
0.540783
0.536744
0.530669
0.529159
0.529161
0.529594
0.524853
0.525034
0.543922
0.555042
0.556717
0.548893
0.524068
0.490547
0.455628
0.412164
0.366682
0.338796
0.341587
6.419
2.25957
0.825709
0.381883
0.453566
0.538431
0.559527
0.551312
0.542803
0.540919
0.541823
0.543379
0.539221
0.538226
0.556961
0.57103
0.574346
0.569599
0.550519
0.520578
0.491924
0.459039
0.427735
0.414914
0.438792
5.62671
2.44655
0.887107
0.408861
0.479994
0.565697
0.582255
0.567782
0.556112
0.553674
0.555239
0.557649
0.554657
0.553007
0.570016
0.587211
0.593037
0.591581
0.579414
0.554602
0.532621
0.512456
0.501715
0.516956
0.602916
4.69475
2.53832
0.912992
0.405179
0.490532
0.575373
0.593284
0.579359
0.567975
0.566134
0.568758
0.572155
0.571028
0.568486
0.582599
0.603482
0.612461
0.614686
0.608856
0.59014
0.576611
0.571946
0.586317
0.639769
0.796686
4.19893
2.62082
0.94825
0.410684
0.493735
0.574855
0.595642
0.586411
0.578014
0.577898
0.582066
0.586717
0.587713
0.584488
0.595207
0.619353
0.632452
0.639137
0.638963
0.628361
0.622108
0.630288
0.662239
0.736298
0.896735
3.86412
2.62924
1.02712
0.448054
0.500931
0.565364
0.593963
0.592213
0.587841
0.589884
0.595527
0.601427
0.604239
0.600501
0.607978
0.634728
0.652112
0.662926
0.667645
0.66494
0.665509
0.681279
0.7218
0.798257
0.934988
3.47503
2.54804
1.10361
0.501031
0.503806
0.549299
0.590878
0.598571
0.598553
0.602416
0.609351
0.616314
0.620408
0.617043
0.621411
0.648044
0.671047
0.685729
0.695306
0.700212
0.705108
0.724596
0.767337
0.838223
0.948437
3.42431
2.57005
1.20841
0.567525
0.501516
0.543077
0.592304
0.608526
0.611772
0.61647
0.624019
0.631454
0.636137
0.634045
0.635839
0.659411
0.688233
0.707079
0.721369
0.731939
0.739857
0.760808
0.801012
0.864654
0.958638
3.34417
2.58729
1.32767
0.640572
0.501966
0.542767
0.599974
0.623619
0.628443
0.632749
0.639867
0.646793
0.651407
0.651078
0.650344
0.669258
0.702748
0.727229
0.745558
0.759553
0.771242
0.791704
0.828719
0.88354
0.964022
3.23438
2.60243
1.47503
0.720479
0.509142
0.552862
0.618477
0.643947
0.647222
0.65008
0.655869
0.661883
0.665996
0.666971
0.664748
0.678576
0.714801
0.745064
0.767263
0.784392
0.799931
0.817221
0.85012
0.897449
0.964894
3.11239
2.62692
1.67023
0.811071
0.538518
0.584992
0.646319
0.666749
0.668796
0.669478
0.672727
0.677007
0.679975
0.681299
0.679807
0.689284
0.723949
0.759935
0.786496
0.80669
0.824335
0.841015
0.869204
0.910503
0.964793
3.02706
2.68334
1.90527
0.911382
0.579408
0.617808
0.661861
0.684365
0.688304
0.687692
0.688758
0.691115
0.693011
0.694856
0.695638
0.701648
0.731302
0.771853
0.803166
0.826076
0.845233
0.863052
0.884911
0.920576
0.965777
2.99038
2.70689
2.04062
1.00995
0.615818
0.636463
0.662959
0.69428
0.704796
0.704787
0.703434
0.703707
0.705222
0.707993
0.710687
0.714724
0.737772
0.780878
0.816791
0.842947
0.863376
0.883208
0.90139
0.929644
0.96718
2.94996
2.71876
2.15291
1.16643
0.696737
0.644475
0.663216
0.69895
0.718393
0.721031
0.717879
0.716647
0.71793
0.721154
0.725562
0.729443
0.74518
0.786237
0.826546
0.856664
0.878988
0.89902
0.917144
0.936952
0.967501
2.90087
2.72129
2.26261
1.38459
0.806548
0.651155
0.670349
0.70897
0.733933
0.737984
0.733245
0.729982
0.730459
0.734409
0.740464
0.745348
0.755052
0.78832
0.832336
0.866653
0.891674
0.911809
0.931451
0.946484
0.968067
2.83513
2.7128
2.37977
1.67464
0.923976
0.675208
0.696302
0.728842
0.750696
0.754449
0.749837
0.744731
0.744239
0.748841
0.755949
0.761643
0.766952
0.789388
0.834871
0.873232
0.901627
0.923505
0.942939
0.960988
0.974934
2.77841
2.72024
2.4951
1.92465
1.03578
0.71594
0.727926
0.745246
0.764035
0.770137
0.766014
0.761277
0.760963
0.765367
0.772114
0.777758
0.780738
0.794201
0.833332
0.875854
0.909069
0.933218
0.95263
0.971136
0.98516
2.81945
2.80293
2.6192
2.11649
1.19298
0.799477
0.756392
0.759579
0.77353
0.784528
0.785514
0.781225
0.780267
0.783437
0.788693
0.793769
0.796102
0.801756
0.831353
0.875558
0.913234
0.940832
0.9614
0.978741
0.994967
2.89581
2.89801
2.75377
2.32435
1.47466
0.942038
0.789483
0.778001
0.78703
0.804011
0.808552
0.804714
0.801846
0.802367
0.80556
0.809657
0.811649
0.812749
0.8308
0.874693
0.914328
0.946577
0.969356
0.986355
1.00202
2.95921
2.98293
2.88502
2.57235
1.88417
1.08732
0.818156
0.803281
0.813896
0.827494
0.832212
0.829803
0.825609
0.823069
0.82302
0.825072
0.827233
0.826995
0.834378
0.870703
0.915188
0.949605
0.975517
0.993744
1.00755
3.00026
3.05031
2.97809
2.73546
2.14742
1.21284
0.862038
0.838415
0.840817
0.845365
0.853063
0.854608
0.850404
0.844697
0.841839
0.841727
0.843161
0.843239
0.843642
0.865448
0.913549
0.9523
0.980463
1.00035
1.01353
3.03722
3.10861
3.05635
2.87322
2.38732
1.47949
0.986527
0.878043
0.864837
0.865906
0.87632
0.879446
0.875073
0.868271
0.862283
0.859715
0.859848
0.860233
0.858541
0.865945
0.906003
0.952202
0.983823
1.00568
1.02081
3.06677
3.15833
3.1245
3.00459
2.67248
1.95265
1.14816
0.911467
0.892489
0.892621
0.899388
0.903451
0.899611
0.891134
0.884111
0.879509
0.877855
0.877987
0.876519
0.875391
0.895685
0.946974
0.985443
1.0106
1.02673
3.08912
3.19455
3.17143
3.08673
2.84615
2.26426
1.33416
0.973478
0.926064
0.918715
0.919579
0.927279
0.926171
0.918136
0.907329
0.900817
0.898073
0.896944
0.895405
0.891864
0.895925
0.931143
0.981496
1.0135
1.03255
3.10716
3.22419
3.20897
3.1523
2.98917
2.55945
1.71491
1.09724
0.959625
0.947043
0.945521
0.949632
0.953606
0.944102
0.934799
0.925421
0.919591
0.917119
0.915117
0.911548
0.907838
0.920692
0.967486
1.01034
1.03601
3.11999
3.24544
3.23559
3.19839
3.09191
2.81043
2.15677
1.28583
1.0079
0.978525
0.972173
0.970616
0.976249
0.97598
0.963483
0.952502
0.944653
0.939133
0.935657
0.931766
0.92624
0.925644
0.951696
0.997164
1.03287
3.12946
3.26114
3.25472
3.23008
3.15967
2.97021
2.48522
1.60448
1.10821
1.00965
0.999476
0.997842
0.999499
1.00238
0.997141
0.982659
0.971324
0.963867
0.95806
0.952909
0.947375
0.941111
0.946549
0.982893
1.02149
3.13572
3.272
3.26804
3.25223
3.20784
3.08997
2.78663
2.10263
1.28757
1.05399
1.03056
1.02607
1.02221
1.02602
1.02728
1.01819
1.00199
0.990073
0.982107
0.97534
0.969028
0.962069
0.95645
0.969909
1.00986
3.14011
3.27968
3.27689
3.2662
3.23703
3.16095
2.96219
2.45878
1.58158
1.14247
1.06093
1.0528
1.05088
1.04979
1.05186
1.05077
1.03906
1.02213
1.0088
0.999257
0.991523
0.984754
0.975919
0.972402
0.995166
3.14288
3.28401
3.28122
3.27387
3.25567
3.20999
3.09135
2.78608
2.09496
1.31313
1.10727
1.08284
1.07914
1.07493
1.07783
1.07763
1.0742
1.05947
1.0414
1.02671
1.01566
1.00762
0.998676
0.9883
0.98941
3.14114
3.28367
3.28207
3.27785
3.26658
3.23804
3.1648
2.97253
2.47972
1.62261
1.18957
1.11456
1.10629
1.10544
1.10128
1.10343
1.10297
1.09757
1.07971
1.05957
1.04309
1.03153
1.02236
1.01113
1.00088
3.1377
3.28238
3.2826
3.28013
3.27351
3.25657
3.2136
3.10175
2.8132
2.14307
1.37459
1.16929
1.13655
1.13336
1.13031
1.12976
1.12947
1.12787
1.12043
1.09887
1.07594
1.05854
1.047
1.03589
1.02259
3.13599
3.28109
3.2833
3.28192
3.27806
3.2681
3.24283
3.17757
3.00525
2.55497
1.73
1.24957
1.17222
1.16093
1.16105
1.15609
1.15679
1.15519
1.15237
1.14227
1.11639
1.09058
1.07378
1.06112
1.04747
3.13497
3.28027
3.2838
3.28305
3.28085
3.27508
3.26039
3.22308
3.12522
2.86951
2.24243
1.4718
1.23701
1.19217
1.18885
1.18728
1.18224
1.18246
1.18027
1.17608
1.1614
1.13234
1.10603
1.08808
1.07288
3.13441
3.27985
3.28419
3.28382
3.28262
3.27941
3.27122
3.25046
3.19707
3.05528
2.67915
1.90961
1.3317
1.23554
1.21779
1.2175
1.21347
1.20929
1.20712
1.20504
1.19829
1.17766
1.14584
1.1202
1.09904
3.1342
3.27972
3.28451
3.28435
3.2837
3.28194
3.2774
3.26587
3.23644
3.15896
2.95162
2.41091
1.61925
1.30481
1.25268
1.24513
1.24442
1.23809
1.23531
1.23174
1.22845
1.21812
1.19024
1.15425
1.12041
3.13424
3.27972
3.28474
3.28467
3.28435