/*--------------------------------*- C++ -*----------------------------------*\
| =========                 |                                                 |
| \\      /  F ield         | OpenFOAM: The Open Source CFD Toolbox           |
|  \\    /   O peration     | Version:  4.1                                   |
|   \\  /    A nd           | Web:      www.OpenFOAM.org                      |
|    \\/     M anipulation  |                                                 |
\*---------------------------------------------------------------------------*/
FoamFile
{
    version     2.0;
    format      ascii;
    class       volScalarField;
    location    "0.92";
    object      p;
}
// * * * * * * * * * * * * * * * * * * * * * * * * * * * * * * * * * * * * * //

dimensions      [1 -1 -2 0 0 0 0];

internalField   nonuniform List<scalar> 
52500
(
0.0103375
0.139754
0.611126
0.708846
0.682208
0.631206
0.600799
0.575988
0.554366
0.534425
0.517706
0.510153
0.504598
0.504882
0.504458
0.503018
0.498596
0.486139
0.482974
0.485696
0.494757
0.510334
0.540224
0.558142
0.548706
0.00934865
0.138058
0.605529
0.711292
0.684436
0.631853
0.600917
0.576051
0.554484
0.534623
0.518045
0.510578
0.504817
0.505083
0.504638
0.503197
0.498492
0.485769
0.482901
0.485653
0.494737
0.510342
0.540127
0.558053
0.548801
0.0102186
0.136146
0.593227
0.714996
0.687536
0.632821
0.600926
0.575862
0.554239
0.534434
0.518099
0.510709
0.504546
0.504678
0.504145
0.50273
0.497487
0.484459
0.481929
0.484679
0.49369
0.5092
0.538561
0.556451
0.547551
0.0129884
0.134274
0.574906
0.72045
0.691614
0.634355
0.601212
0.575743
0.554001
0.534274
0.518373
0.511008
0.504379
0.504261
0.503558
0.502087
0.495868
0.483089
0.480437
0.483123
0.491884
0.507042
0.535433
0.553273
0.545109
0.0140626
0.130156
0.549944
0.728832
0.697136
0.636506
0.601685
0.575683
0.553741
0.534148
0.518812
0.511296
0.504225
0.503843
0.50282
0.501048
0.493488
0.481481
0.47825
0.480796
0.489116
0.503626
0.530692
0.548544
0.541523
0.0182335
0.126449
0.516894
0.740435
0.703922
0.639111
0.602232
0.575565
0.553469
0.534137
0.519428
0.511681
0.50441
0.503681
0.501936
0.49935
0.490429
0.47928
0.475122
0.477556
0.485158
0.498561
0.523799
0.541622
0.536174
0.023212
0.121555
0.475454
0.756991
0.71276
0.642078
0.602602
0.575356
0.553296
0.534375
0.520192
0.512183
0.505045
0.503769
0.500978
0.496998
0.486513
0.476532
0.470914
0.473244
0.479878
0.49156
0.514193
0.531758
0.528167
0.0286722
0.115176
0.424649
0.779016
0.723883
0.644995
0.602534
0.575055
0.553328
0.534961
0.521104
0.512771
0.505949
0.503416
0.500074
0.493965
0.482238
0.473351
0.465708
0.467783
0.472928
0.482261
0.501399
0.517481
0.515611
0.0362256
0.10934
0.369351
0.805424
0.737297
0.647788
0.601998
0.574793
0.553712
0.535822
0.522123
0.513439
0.507034
0.502045
0.498991
0.490789
0.478212
0.469725
0.459758
0.461038
0.46386
0.470462
0.485054
0.496268
0.494365
0.0443297
0.10448
0.32292
0.816123
0.74997
0.651777
0.602215
0.574982
0.554698
0.537049
0.523321
0.514305
0.507951
0.500027
0.496946
0.488072
0.474531
0.46558
0.453848
0.451778
0.453225
0.457102
0.463354
0.46566
0.457413
0.0103202
0.139732
0.611058
0.708825
0.682191
0.631186
0.600784
0.575982
0.554362
0.534416
0.517699
0.510155
0.504594
0.504881
0.504459
0.503016
0.498586
0.486133
0.482943
0.485667
0.494722
0.510286
0.54018
0.558128
0.548688
0.00936232
0.138052
0.605459
0.711261
0.684412
0.631832
0.600902
0.576045
0.55448
0.534618
0.518042
0.510574
0.504818
0.505066
0.504619
0.503192
0.498508
0.485775
0.48287
0.485623
0.494702
0.510295
0.540084
0.558039
0.548782
0.010224
0.136136
0.593158
0.714969
0.687515
0.632802
0.600911
0.575852
0.554232
0.534426
0.518097
0.510702
0.504544
0.504658
0.504124
0.502727
0.497513
0.484461
0.481897
0.484649
0.493654
0.50915
0.538518
0.556435
0.547532
0.0129635
0.134244
0.574834
0.720433
0.691603
0.634339
0.601199
0.575733
0.553994
0.534265
0.518371
0.511005
0.504381
0.504254
0.503552
0.502085
0.495888
0.483077
0.480405
0.483095
0.491849
0.506984
0.535387
0.553255
0.54509
0.0140673
0.130145
0.549868
0.728814
0.697123
0.636493
0.601673
0.575675
0.553736
0.53414
0.518802
0.511302
0.50422
0.503839
0.50282
0.50105
0.493483
0.481457
0.478219
0.480769
0.48908
0.503568
0.53064
0.548522
0.541504
0.0182233
0.126427
0.516814
0.740421
0.703912
0.6391
0.602221
0.575558
0.553465
0.53413
0.519415
0.511693
0.504398
0.503676
0.501941
0.49936
0.490421
0.479254
0.47509
0.477525
0.485118
0.498505
0.523747
0.541596
0.536155
0.0232151
0.121542
0.475373
0.756977
0.712752
0.642069
0.602593
0.575349
0.553293
0.534369
0.520183
0.512196
0.505025
0.503761
0.500985
0.497013
0.486522
0.476497
0.470888
0.473216
0.479836
0.491503
0.514144
0.531731
0.528148
0.0286695
0.11516
0.42457
0.779006
0.723881
0.644989
0.602528
0.575049
0.553325
0.534954
0.5211
0.512785
0.50591
0.503448
0.500047
0.493982
0.48225
0.473309
0.46569
0.467765
0.472894
0.482211
0.501346
0.517452
0.515593
0.0362246
0.109327
0.36928
0.805415
0.737297
0.647785
0.601993
0.574787
0.553707
0.535816
0.522121
0.513449
0.50699
0.502101
0.498996
0.490756
0.478208
0.469692
0.459744
0.46102
0.463833
0.470424
0.485003
0.49624
0.494348
0.0443359
0.104476
0.322887
0.816085
0.749959
0.651774
0.602211
0.574978
0.554693
0.537043
0.523318
0.514309
0.507923
0.500072
0.49697
0.488024
0.474522
0.46556
0.453835
0.451759
0.453204
0.457067
0.463315
0.465635
0.457397
0.0103326
0.139734
0.611032
0.708838
0.682203
0.631191
0.600785
0.575977
0.554361
0.534426
0.517704
0.510154
0.504603
0.504898
0.504472
0.503009
0.498566
0.48611
0.482949
0.485672
0.494726
0.510304
0.540209
0.558139
0.548698
0.0093497
0.13804
0.605433
0.711281
0.684429
0.631839
0.600904
0.576042
0.55448
0.534624
0.518044
0.51058
0.504822
0.505093
0.504645
0.503188
0.498472
0.485743
0.482874
0.485628
0.494707
0.510314
0.540113
0.558051
0.548793
0.0102228
0.13613
0.593128
0.714986
0.687528
0.632808
0.600913
0.575852
0.554233
0.534433
0.5181
0.51071
0.504549
0.504681
0.504146
0.502725
0.497478
0.484433
0.481901
0.484652
0.493661
0.509173
0.538547
0.55645
0.547544
0.0129804
0.134249
0.574802
0.720446
0.691612
0.634344
0.601201
0.575734
0.553994
0.534271
0.518377
0.511009
0.504385
0.504262
0.503557
0.502084
0.495873
0.483064
0.480408
0.483096
0.491858
0.507014
0.535418
0.553273
0.545105
0.0140659
0.130137
0.549833
0.72883
0.697133
0.636497
0.601675
0.575675
0.553735
0.534145
0.518815
0.511296
0.504226
0.503841
0.502815
0.501044
0.493488
0.481456
0.478223
0.480771
0.489091
0.5036
0.530677
0.548545
0.541521
0.0182311
0.126424
0.516772
0.740441
0.703923
0.639103
0.602222
0.575558
0.553463
0.534134
0.519429
0.511679
0.504417
0.503686
0.501934
0.49934
0.49042
0.479263
0.475096
0.477531
0.485133
0.498538
0.523784
0.541621
0.536173
0.0232162
0.121532
0.475321
0.757002
0.712766
0.642071
0.602593
0.575349
0.553291
0.534372
0.520191
0.51218
0.505057
0.503774
0.500975
0.496993
0.486504
0.476519
0.470888
0.473218
0.479854
0.491537
0.514179
0.531757
0.528167
0.0286749
0.115151
0.424505
0.779034
0.723894
0.64499
0.602526
0.575048
0.553323
0.534957
0.521103
0.512768
0.505952
0.503417
0.500073
0.493968
0.482233
0.473335
0.465688
0.467763
0.472907
0.48224
0.501384
0.517479
0.515611
0.0362297
0.109317
0.369213
0.805446
0.737313
0.647785
0.60199
0.574785
0.553706
0.535818
0.522122
0.513437
0.507028
0.502053
0.498992
0.490788
0.478205
0.46971
0.459741
0.461021
0.463843
0.470444
0.485037
0.496265
0.494365
0.0443409
0.104471
0.322856
0.816074
0.749959
0.651774
0.602208
0.574975
0.554692
0.537044
0.523319
0.514303
0.507946
0.500038
0.496953
0.488063
0.474524
0.465568
0.453833
0.451763
0.45321
0.457085
0.463339
0.465657
0.457413
0.0103315
0.139726
0.610995
0.708843
0.682209
0.631192
0.600787
0.575982
0.554369
0.534437
0.517716
0.51017
0.504617
0.504913
0.504484
0.503015
0.498565
0.486102
0.482936
0.485659
0.494712
0.510288
0.540197
0.558132
0.548688
0.00935059
0.138033
0.605396
0.711287
0.684435
0.631841
0.600906
0.576047
0.554488
0.534635
0.518058
0.510595
0.504837
0.505106
0.504657
0.503195
0.498473
0.485734
0.482861
0.485615
0.494693
0.510297
0.5401
0.558045
0.548783
0.0102221
0.136122
0.593091
0.714992
0.687535
0.632811
0.600917
0.575857
0.554241
0.534444
0.518114
0.510725
0.504563
0.504693
0.504157
0.502733
0.497481
0.484425
0.481887
0.484639
0.493646
0.509155
0.538534
0.556443
0.547535
0.0129806
0.134242
0.574764
0.720454
0.691619
0.634348
0.601205
0.57574
0.554002
0.534281
0.51839
0.511023
0.504402
0.504275
0.503568
0.502091
0.495879
0.483055
0.480394
0.483083
0.491843
0.506996
0.535405
0.553266
0.545096
0.0140663
0.13013
0.549793
0.72884
0.697141
0.636502
0.601679
0.57568
0.553742
0.534155
0.518826
0.511311
0.504241
0.503855
0.502827
0.501052
0.493488
0.481446
0.478209
0.480758
0.489076
0.503582
0.530661
0.548536
0.541512
0.0182318
0.126416
0.516729
0.740453
0.703932
0.639108
0.602226
0.575563
0.553471
0.534143
0.519439
0.511698
0.504427
0.503696
0.501947
0.499352
0.49042
0.479253
0.475081
0.477516
0.485117
0.49852
0.523769
0.541612
0.536164
0.023218
0.121525
0.475277
0.757016
0.712775
0.642076
0.602596
0.575353
0.553299
0.53438
0.520202
0.5122
0.505058
0.503782
0.500989
0.497009
0.486513
0.476503
0.470878
0.473207
0.479838
0.491518
0.514163
0.531747
0.528158
0.0286773
0.115143
0.424458
0.779049
0.723903
0.644994
0.602528
0.575052
0.55333
0.534965
0.521113
0.512788
0.505948
0.503443
0.50007
0.493982
0.48224
0.473317
0.46568
0.467756
0.472895
0.482224
0.501366
0.517469
0.515603
0.0362327
0.10931
0.36917
0.805463
0.737324
0.647789
0.601992
0.574789
0.553713
0.535825
0.522132
0.513454
0.507027
0.502084
0.499003
0.490781
0.478206
0.469698
0.459734
0.461013
0.463832
0.470431
0.485021
0.496256
0.494358
0.0443461
0.10447
0.322839
0.816066
0.749959
0.651777
0.60221
0.574979
0.554698
0.537051
0.523327
0.514317
0.507951
0.50006
0.496967
0.488058
0.474526
0.465561
0.453827
0.451753
0.453199
0.457072
0.463326
0.465648
0.457407
0.0103381
0.139721
0.610945
0.708874
0.682237
0.631202
0.60079
0.575981
0.554368
0.534436
0.517719
0.510176
0.504622
0.504917
0.504488
0.503021
0.498566
0.486091
0.482939
0.485662
0.494719
0.510302
0.540213
0.558141
0.548696
0.00935571
0.138027
0.605346
0.711317
0.684462
0.631853
0.60091
0.576046
0.554486
0.534634
0.51806
0.510601
0.504842
0.50511
0.50466
0.5032
0.498472
0.485724
0.482864
0.485618
0.4947
0.510311
0.540116
0.558053
0.548791
0.0102253
0.136114
0.593039
0.715022
0.68756
0.632824
0.600922
0.575857
0.55424
0.534443
0.518117
0.510731
0.504568
0.504698
0.50416
0.502736
0.497475
0.484418
0.481891
0.484643
0.493654
0.509169
0.538549
0.556451
0.547542
0.0129927
0.13424
0.574713
0.720484
0.691642
0.634362
0.601211
0.57574
0.554001
0.534281
0.518393
0.511029
0.504404
0.504279
0.503571
0.502093
0.495869
0.483051
0.480398
0.483086
0.49185
0.50701
0.535419
0.553272
0.545101
0.0140708
0.130122
0.549739
0.728872
0.697162
0.636514
0.601683
0.575681
0.553742
0.534155
0.518829
0.511317
0.504248
0.503861
0.50283
0.501051
0.493482
0.481446
0.478213
0.480761
0.489082
0.503595
0.530675
0.548542
0.541516
0.0182442
0.126413
0.516673
0.740489
0.703953
0.639119
0.602229
0.575562
0.55347
0.534144
0.519444
0.511704
0.504432
0.503699
0.501948
0.499352
0.490413
0.47925
0.475084
0.477519
0.485123
0.498531
0.523781
0.541617
0.536167
0.0232241
0.121516
0.475214
0.75706
0.712799
0.642087
0.602598
0.575353
0.553299
0.534383
0.520207
0.512207
0.505056
0.503782
0.500989
0.497008
0.486508
0.476498
0.470881
0.47321
0.479844
0.491528
0.514174
0.531753
0.528161
0.0286872
0.115135
0.424385
0.779098
0.723927
0.645002
0.602529
0.575052
0.553332
0.534968
0.521118
0.512795
0.50595
0.503445
0.50007
0.493976
0.482234
0.473313
0.465682
0.467758
0.4729
0.482232
0.501375
0.517475
0.515606
0.0362415
0.109301
0.369096
0.805518
0.737352
0.647797
0.601992
0.57479
0.553715
0.535829
0.522135
0.513459
0.507034
0.50208
0.499001
0.490776
0.4782
0.469694
0.459734
0.461014
0.463836
0.470436
0.485029
0.496261
0.494361
0.0443565
0.10447
0.322811
0.81607
0.749967
0.651785
0.602212
0.574981
0.554702
0.537055
0.523331
0.514322
0.507957
0.500052
0.496959
0.488058
0.474521
0.465556
0.453825
0.451755
0.453201
0.457076
0.463333
0.465654
0.45741
0.010336
0.139719
0.610945
0.708868
0.682232
0.6312
0.60079
0.575983
0.55437
0.534439
0.517721
0.510177
0.504625
0.50492
0.504492
0.503022
0.498567
0.486095
0.48294
0.485663
0.494718
0.510299
0.540209
0.558137
0.548692
0.00935439
0.138026
0.605346
0.711311
0.684457
0.63185
0.60091
0.576048
0.554489
0.534637
0.518063
0.510603
0.504844
0.505113
0.504663
0.503201
0.498474
0.485728
0.482865
0.485619
0.494699
0.510308
0.540112
0.558049
0.548787
0.010225
0.136114
0.59304
0.715016
0.687555
0.632822
0.600921
0.575859
0.554242
0.534447
0.518119
0.510732
0.50457
0.5047
0.504163
0.502737
0.497479
0.484421
0.481892
0.484643
0.493653
0.509166
0.538545
0.556447
0.547538
0.0129888
0.134237
0.574714
0.720478
0.691638
0.634359
0.60121
0.575742
0.554004
0.534284
0.518395
0.51103
0.504406
0.504281
0.503573
0.502097
0.495874
0.483052
0.480398
0.483087
0.491849
0.507006
0.535415
0.553269
0.545098
0.01407
0.130122
0.54974
0.728866
0.697158
0.636512
0.601683
0.575682
0.553744
0.534157
0.518831
0.511319
0.50425
0.503863
0.502833
0.501054
0.493487
0.481447
0.478213
0.480761
0.489081
0.503592
0.530671
0.548538
0.541513
0.0182405
0.126411
0.516675
0.740481
0.703949
0.639117
0.602229
0.575564
0.553472
0.534146
0.519445
0.511706
0.504433
0.503701
0.50195
0.499356
0.490419
0.479252
0.475084
0.477519
0.485122
0.498529
0.523777
0.541614
0.536164
0.0232227
0.121516
0.475218
0.75705
0.712794
0.642084
0.602598
0.575354
0.5533
0.534384
0.520208
0.512209
0.505057
0.503784
0.500992
0.497013
0.486513
0.4765
0.470881
0.473211
0.479843
0.491526
0.51417
0.53175
0.528158
0.0286844
0.115135
0.424392
0.779088
0.723922
0.645
0.602529
0.575052
0.553332
0.534969
0.521119
0.512796
0.505951
0.503448
0.500072
0.493982
0.482238
0.473315
0.465683
0.467759
0.472899
0.48223
0.501371
0.517472
0.515604
0.0362391
0.109301
0.369105
0.805506
0.737346
0.647795
0.601993
0.57479
0.553715
0.535829
0.522135
0.51346
0.507035
0.502084
0.499004
0.49078
0.478204
0.469697
0.459735
0.461015
0.463835
0.470435
0.485026
0.496259
0.49436
0.0443536
0.104468
0.322814
0.816066
0.749964
0.651783
0.602211
0.57498
0.554701
0.537055
0.52333
0.514322
0.507957
0.500056
0.496963
0.488061
0.474525
0.465559
0.453827
0.451755
0.453201
0.457075
0.46333
0.465652
0.457409
0.0103315
0.139726
0.610994
0.708843
0.682209
0.631192
0.600787
0.575982
0.554369
0.534437
0.517716
0.51017
0.504618
0.504913
0.504484
0.503015
0.498566
0.486102
0.482936
0.485659
0.494712
0.510288
0.540197
0.558132
0.548688
0.00935057
0.138033
0.605395
0.711286
0.684434
0.631841
0.600906
0.576047
0.554488
0.534635
0.518058
0.510595
0.504837
0.505106
0.504657
0.503195
0.498474
0.485734
0.482861
0.485615
0.494693
0.510297
0.5401
0.558045
0.548783
0.0102221
0.136122
0.59309
0.714992
0.687535
0.632811
0.600917
0.575857
0.554241
0.534444
0.518114
0.510725
0.504564
0.504693
0.504157
0.502733
0.497481
0.484425
0.481887
0.484639
0.493646
0.509155
0.538534
0.556443
0.547535
0.0129805
0.134242
0.574763
0.720454
0.691619
0.634348
0.601205
0.57574
0.554002
0.534281
0.51839
0.511023
0.504402
0.504276
0.503568
0.502091
0.495879
0.483055
0.480394
0.483083
0.491843
0.506996
0.535405
0.553266
0.545095
0.0140663
0.13013
0.549792
0.72884
0.697141
0.636502
0.601679
0.57568
0.553743
0.534155
0.518826
0.511311
0.504241
0.503855
0.502827
0.501052
0.493488
0.481447
0.478209
0.480758
0.489076
0.503582
0.530661
0.548536
0.541512
0.0182318
0.126416
0.516729
0.740452
0.703932
0.639108
0.602226
0.575563
0.553471
0.534143
0.519439
0.511698
0.504427
0.503696
0.501947
0.499352
0.49042
0.479253
0.475081
0.477516
0.485117
0.49852
0.523769
0.541612
0.536164
0.023218
0.121525
0.475277
0.757016
0.712775
0.642076
0.602596
0.575353
0.553299
0.53438
0.520202
0.512201
0.505058
0.503782
0.500989
0.497009
0.486513
0.476503
0.470878
0.473207
0.479838
0.491518
0.514163
0.531747
0.528158
0.0286772
0.115143
0.424458
0.779049
0.723903
0.644994
0.602528
0.575052
0.55333
0.534965
0.521113
0.512788
0.505948
0.503443
0.50007
0.493982
0.48224
0.473317
0.465681
0.467756
0.472895
0.482224
0.501366
0.517469
0.515603
0.0362327
0.10931
0.36917
0.805463
0.737323
0.647789
0.601992
0.574789
0.553713
0.535825
0.522132
0.513454
0.507027
0.502084
0.499003
0.490781
0.478206
0.469698
0.459734
0.461013
0.463832
0.470431
0.485021
0.496256
0.494358
0.044346
0.10447
0.322839
0.816066
0.749959
0.651777
0.60221
0.574979
0.554698
0.537051
0.523327
0.514317
0.507951
0.50006
0.496967
0.488058
0.474526
0.465561
0.453827
0.451753
0.453199
0.457072
0.463326
0.465648
0.457406
0.0103326
0.139734
0.611032
0.708838
0.682203
0.631191
0.600785
0.575977
0.554361
0.534426
0.517704
0.510154
0.504603
0.504898
0.504472
0.503009
0.498566
0.48611
0.482949
0.485672
0.494726
0.510304
0.540209
0.558139
0.548698
0.0093497
0.13804
0.605433
0.711281
0.684429
0.631839
0.600904
0.576042
0.55448
0.534624
0.518044
0.51058
0.504822
0.505093
0.504645
0.503188
0.498472
0.485743
0.482874
0.485628
0.494707
0.510314
0.540113
0.558051
0.548793
0.0102228
0.13613
0.593128
0.714986
0.687528
0.632808
0.600913
0.575852
0.554233
0.534433
0.5181
0.51071
0.504549
0.504681
0.504146
0.502725
0.497478
0.484433
0.481901
0.484652
0.493661
0.509173
0.538547
0.55645
0.547544
0.0129804
0.134249
0.574802
0.720446
0.691612
0.634344
0.601201
0.575734
0.553994
0.534271
0.518377
0.511009
0.504385
0.504262
0.503557
0.502084
0.495873
0.483064
0.480408
0.483096
0.491858
0.507014
0.535418
0.553273
0.545105
0.0140659
0.130137
0.549833
0.72883
0.697133
0.636497
0.601675
0.575675
0.553735
0.534145
0.518815
0.511296
0.504225
0.503841
0.502815
0.501044
0.493488
0.481456
0.478223
0.480771
0.489091
0.5036
0.530677
0.548545
0.541521
0.0182311
0.126424
0.516771
0.740441
0.703923
0.639103
0.602222
0.575558
0.553463
0.534134
0.519429
0.511679
0.504417
0.503686
0.501934
0.49934
0.49042
0.479263
0.475096
0.477531
0.485133
0.498538
0.523784
0.541621
0.536173
0.0232162
0.121532
0.475321
0.757002
0.712766
0.642071
0.602593
0.575349
0.553291
0.534372
0.520191
0.51218
0.505057
0.503774
0.500975
0.496993
0.486504
0.476519
0.470888
0.473218
0.479854
0.491537
0.514179
0.531757
0.528167
0.0286749
0.115151
0.424505
0.779034
0.723894
0.64499
0.602526
0.575048
0.553323
0.534957
0.521103
0.512768
0.505952
0.503417
0.500073
0.493968
0.482233
0.473335
0.465688
0.467763
0.472907
0.48224
0.501384
0.517479
0.515611
0.0362297
0.109317
0.369212
0.805446
0.737313
0.647785
0.60199
0.574785
0.553706
0.535818
0.522122
0.513437
0.507028
0.502053
0.498992
0.490788
0.478205
0.46971
0.459741
0.461021
0.463843
0.470444
0.485037
0.496265
0.494365
0.0443409
0.104471
0.322856
0.816074
0.749959
0.651774
0.602208
0.574975
0.554692
0.537044
0.523319
0.514303
0.507946
0.500038
0.496953
0.488063
0.474524
0.465568
0.453833
0.451763
0.45321
0.457085
0.463339
0.465657
0.457413
0.0103202
0.139731
0.611057
0.708825
0.682191
0.631186
0.600784
0.575982
0.554362
0.534416
0.517699
0.510155
0.504594
0.50488
0.504458
0.503016
0.498586
0.486133
0.482943
0.485667
0.494722
0.510286
0.54018
0.558128
0.548688
0.00936231
0.138052
0.605458
0.71126
0.684412
0.631832
0.600902
0.576045
0.55448
0.534618
0.518042
0.510574
0.504817
0.505066
0.504619
0.503192
0.498508
0.485775
0.48287
0.485624
0.494702
0.510295
0.540084
0.558039
0.548782
0.010224
0.136136
0.593157
0.714969
0.687515
0.632802
0.600911
0.575852
0.554232
0.534426
0.518097
0.510702
0.504544
0.504658
0.504123
0.502727
0.497513
0.484462
0.481897
0.484649
0.493654
0.50915
0.538518
0.556436
0.547532
0.0129635
0.134244
0.574833
0.720433
0.691603
0.634339
0.601199
0.575733
0.553994
0.534265
0.518371
0.511005
0.50438
0.504254
0.503551
0.502085
0.495888
0.483077
0.480405
0.483095
0.491849
0.506984
0.535387
0.553255
0.54509
0.0140673
0.130145
0.549868
0.728814
0.697123
0.636493
0.601673
0.575675
0.553736
0.534139
0.518802
0.511302
0.50422
0.503839
0.502819
0.501049
0.493483
0.481457
0.478219
0.480769
0.48908
0.503568
0.53064
0.548522
0.541504
0.0182233
0.126427
0.516813
0.740421
0.703912
0.6391
0.602221
0.575558
0.553465
0.53413
0.519415
0.511692
0.504398
0.503676
0.501941
0.49936
0.490421
0.479254
0.475091
0.477525
0.485118
0.498505
0.523748
0.541596
0.536155
0.0232151
0.121542
0.475372
0.756977
0.712752
0.642069
0.602593
0.575349
0.553293
0.534369
0.520183
0.512196
0.505024
0.503761
0.500985
0.497013
0.486522
0.476497
0.470888
0.473216
0.479836
0.491503
0.514144
0.531731
0.528148
0.0286695
0.11516
0.424569
0.779006
0.723881
0.644989
0.602528
0.575049
0.553325
0.534954
0.5211
0.512784
0.505909
0.503447
0.500046
0.493982
0.48225
0.473309
0.46569
0.467765
0.472894
0.482211
0.501346
0.517452
0.515593
0.0362246
0.109327
0.36928
0.805415
0.737297
0.647785
0.601993
0.574787
0.553707
0.535815
0.522121
0.513449
0.50699
0.502101
0.498996
0.490756
0.478207
0.469692
0.459744
0.461021
0.463833
0.470424
0.485003
0.49624
0.494348
0.044336
0.104476
0.322886
0.816085
0.749959
0.651774
0.602211
0.574978
0.554693
0.537042
0.523318
0.514309
0.507923
0.500071
0.496969
0.488024
0.474522
0.46556
0.453835
0.451759
0.453204
0.457067
0.463315
0.465635
0.457397
0.0103296
0.139753
0.611144
0.708823
0.682188
0.631199
0.600799
0.575992
0.554372
0.534426
0.517692
0.510139
0.504582
0.504882
0.504459
0.503001
0.49857
0.486149
0.482983
0.485704
0.494764
0.510345
0.540232
0.558136
0.548688
0.00934058
0.138056
0.605549
0.711269
0.684416
0.631845
0.600916
0.576054
0.554487
0.534623
0.518038
0.510566
0.504798
0.505068
0.504626
0.503184
0.498483
0.48578
0.482905
0.485657
0.494744
0.510354
0.540136
0.558048
0.548784
0.0102198
0.136151
0.593248
0.71497
0.687516
0.632811
0.600924
0.575863
0.554238
0.534431
0.518098
0.51069
0.504523
0.504644
0.504114
0.502722
0.497509
0.48448
0.481931
0.484679
0.493695
0.509212
0.538569
0.556446
0.547536
0.0129792
0.134272
0.574928
0.720425
0.691597
0.634344
0.60121
0.575743
0.553998
0.534266
0.518375
0.510979
0.50437
0.504228
0.503523
0.50207
0.495911
0.48312
0.48044
0.483122
0.491887
0.507052
0.535437
0.553269
0.545097
0.0140553
0.130157
0.549971
0.728808
0.69712
0.636497
0.601683
0.575684
0.553738
0.534138
0.518806
0.511273
0.504205
0.503811
0.502785
0.501023
0.493511
0.4815
0.478251
0.480794
0.489114
0.503635
0.530693
0.54854
0.541514
0.0182237
0.126449
0.516925
0.740407
0.703905
0.639101
0.60223
0.575567
0.553467
0.534126
0.519416
0.511669
0.504382
0.503652
0.501913
0.499342
0.490439
0.479288
0.475118
0.477551
0.485156
0.498564
0.5238
0.541617
0.536166
0.0232059
0.121558
0.475492
0.756957
0.712742
0.642069
0.602599
0.575356
0.553295
0.534364
0.520178
0.512179
0.504999
0.503736
0.50096
0.497008
0.486534
0.476517
0.470916
0.473244
0.479875
0.491556
0.514194
0.531754
0.528161
0.0286664
0.115183
0.424699
0.778978
0.723865
0.644988
0.602532
0.575053
0.553326
0.534951
0.521091
0.512771
0.505894
0.503425
0.500028
0.493974
0.482249
0.473325
0.465716
0.467792
0.472931
0.482258
0.501392
0.517477
0.515607
0.0362188
0.109347
0.369407
0.805383
0.737276
0.647782
0.601995
0.574788
0.553707
0.535813
0.522111
0.513437
0.506988
0.502066
0.498978
0.490755
0.478209
0.469708
0.459763
0.461043
0.463864
0.470461
0.485048
0.496264
0.494362
0.0443234
0.104482
0.322944
0.816123
0.749966
0.651772
0.602212
0.574976
0.554691
0.537039
0.523309
0.514301
0.507922
0.500037
0.496944
0.48804
0.47453
0.46557
0.45385
0.451779
0.453224
0.457099
0.463352
0.465657
0.45741
0.057554
0.10925
0.305742
0.811252
0.747952
0.65356
0.603665
0.57633
0.556115
0.538516
0.52474
0.515351
0.508334
0.498248
0.494427
0.485293
0.471235
0.460733
0.448293
0.441966
0.440961
0.439333
0.43489
0.419457
0.364426
0.0667246
0.112207
0.290706
0.787303
0.739136
0.654987
0.607052
0.57881
0.557782
0.540298
0.526438
0.516492
0.508288
0.496767
0.491886
0.482026
0.46811
0.455231
0.443293
0.43292
0.42791
0.421367
0.409648
0.383752
0.325527
0.0742518
0.116368
0.27671
0.743709
0.718792
0.659176
0.611604
0.581157
0.559423
0.542119
0.528304
0.51764
0.50821
0.49602
0.489706
0.47815
0.464728
0.450356
0.438663
0.424619
0.415668
0.405242
0.390455
0.362571
0.314938
0.0843126
0.12208
0.265034
0.695811
0.69666
0.668418
0.615865
0.582778
0.560746
0.543947
0.530276
0.518745
0.508091
0.495539
0.486189
0.47544
0.461256
0.446595
0.434252
0.417679
0.405164
0.391925
0.374967
0.348938
0.310584
0.0858745
0.120845
0.250842
0.643949
0.696437
0.671524
0.619332
0.584126
0.562058
0.545862
0.532205
0.519719
0.507931
0.495041
0.481945
0.473412
0.458393
0.443898
0.429555
0.412718
0.397093
0.381635
0.362831
0.339633
0.307745
0.088016
0.119158
0.234791
0.584923
0.701523
0.677122
0.623701
0.586183
0.563973
0.548015
0.533979
0.520553
0.507607
0.49394
0.479062
0.470801
0.456419
0.441925
0.425816
0.409738
0.390889
0.374031
0.354529
0.332269
0.305551
0.0909457
0.117194
0.216187
0.517397
0.715366
0.688345
0.629713
0.588681
0.56666
0.550593
0.535747
0.521351
0.507097
0.492875
0.477869
0.468432
0.454748
0.44015
0.423762
0.407414
0.386997
0.368577
0.349132
0.327186
0.303787
0.0942015
0.114767
0.19545
0.441738
0.738672
0.705475
0.635815
0.593811
0.570706
0.553515
0.537474
0.52198
0.506417
0.491896
0.477448
0.465314
0.454725
0.439514
0.4231
0.404996
0.385679
0.365229
0.345868
0.324526
0.302631
0.0961314
0.110903
0.171937
0.354777
0.739265
0.710301
0.646786
0.601509
0.575432
0.556442
0.539327
0.522291
0.505654
0.491003
0.477127
0.463096
0.454451
0.439524
0.423099
0.404271
0.385299
0.363942
0.34414
0.324058
0.302895
0.0968592
0.108404
0.159933
0.315901
0.71163
0.702025
0.66082
0.609549
0.579738
0.559063
0.540563
0.52245
0.505367
0.490417
0.47719
0.463378
0.454423
0.43992
0.423311
0.404585
0.385087
0.36454
0.344058
0.324302
0.303819
0.0977617
0.106542
0.148778
0.279264
0.640724
0.687643
0.665171
0.6165
0.583814
0.560967
0.541405
0.522744
0.505454
0.490361
0.477637
0.46436
0.453571
0.441287
0.424225
0.405628
0.385672
0.365992
0.344993
0.325452
0.305991
0.0989667
0.104964
0.137263
0.239937
0.537097
0.690588
0.670915
0.625394
0.588865
0.563234
0.542641
0.523448
0.505852
0.491096
0.47949
0.466381
0.453625
0.443528
0.426261
0.407518
0.387601
0.368152
0.34798
0.327797
0.309637
0.100722
0.103765
0.126003
0.200263
0.417
0.695242
0.677733
0.635409
0.594302
0.566994
0.544813
0.524687
0.507702
0.494385
0.4825
0.469485
0.454613
0.444302
0.427727
0.409534
0.390525
0.370777
0.35207
0.331852
0.313388
0.102102
0.102677
0.117567
0.170793
0.324676
0.680034
0.675293
0.64621
0.600983
0.570826
0.547038
0.527757
0.512626
0.498756
0.485615
0.472481
0.456923
0.443603
0.429495
0.411617
0.392976
0.374143
0.355185
0.337219
0.31749
0.100395
0.0974451
0.108881
0.151775
0.280015
0.621857
0.667938
0.65045
0.610789
0.575572
0.55151
0.533846
0.518182
0.503377
0.488974
0.474888
0.459057
0.443812
0.431899
0.414108
0.396223
0.378126
0.359333
0.341473
0.323631
0.097669
0.0902378
0.0989056
0.131518
0.231755
0.514559
0.668455
0.656705
0.624074
0.58488
0.559053
0.540636
0.524188
0.50824
0.492501
0.477041
0.461431
0.444718
0.432579
0.416517
0.399619
0.381772
0.364058
0.346127
0.329172
0.095624
0.0832812
0.089015
0.110229
0.175181
0.357954
0.667466
0.664627
0.643581
0.598812
0.568357
0.548015
0.530241
0.512999
0.496006
0.479482
0.463609
0.446717
0.432289
0.420615
0.403417
0.386358
0.369029
0.351549
0.33464
0.0943717
0.0783783
0.0824896
0.0977347
0.145391
0.284044
0.631997
0.664249
0.649683
0.614552
0.578825
0.555662
0.536201
0.517595
0.4995
0.482219
0.466048
0.449679
0.433456
0.422823
0.407205
0.390869
0.37392
0.357236
0.340452
0.0932577
0.0744027
0.0773631
0.0884146
0.123576
0.231406
0.538466
0.662599
0.654354
0.628246
0.590838
0.56362
0.541781
0.521836
0.502974
0.485271
0.468857
0.453284
0.43695
0.423207
0.412425
0.395717
0.379298
0.362775
0.346603
0.0924119
0.0709557
0.0728665
0.0798578
0.1012
0.165139
0.347068
0.652073
0.654669
0.640406
0.60664
0.572548
0.547235
0.526093
0.506762
0.488845
0.472271
0.456922
0.44126
0.425375
0.415267
0.400293
0.384678
0.368838
0.353168
0.0917594
0.0685664
0.0698864
0.0747155
0.08925
0.133084
0.262534
0.594489
0.653373
0.643741
0.617976
0.582101
0.553734
0.530784
0.511119
0.493081
0.47633
0.46081
0.445774
0.430468
0.416706
0.406398
0.390618
0.375021
0.359568
0.0912463
0.0666164
0.0674948
0.070734
0.080373
0.10921
0.198658
0.459889
0.646119
0.643677
0.628639
0.596676
0.562418
0.536685
0.516151
0.497915
0.480997
0.465189
0.450121
0.435395
0.419903
0.409252
0.396139
0.381178
0.366226
0.0908821
0.0652308
0.0657984
0.0679053
0.0739993
0.0913553
0.142813
0.28801
0.61066
0.642108
0.632383
0.607988
0.572494
0.544494
0.522091
0.503467
0.4862
0.470041
0.454746
0.440358
0.425617
0.411985
0.402339
0.387773
0.373298
0.0906177
0.0642065
0.0645723
0.0659744
0.0700097
0.081303
0.114668
0.217061
0.507741
0.635604
0.63225
0.617582
0.587241
0.554198
0.529373
0.5097
0.49193
0.47537
0.459821
0.44529
0.43121
0.416724
0.404918
0.39448
0.380186
0.0904459
0.063498
0.0637184
0.0646045
0.0671248
0.0739264
0.0928399
0.148301
0.300395
0.608675
0.630646
0.621659
0.59928
0.56512
0.538167
0.51657
0.498185
0.481217
0.465391
0.450493
0.436933
0.422913
0.409766
0.400038
0.387034
0.0903277
0.0630135
0.0631422
0.0637102
0.0653476
0.0697162
0.0816654
0.116774
0.223182
0.514761
0.623923
0.621125
0.608261
0.580977
0.549216
0.525041
0.505212
0.487689
0.471565
0.456325
0.442588
0.429257
0.415982
0.403344
0.394665
0.0902599
0.0627083
0.0627735
0.0631154
0.064121
0.0667534
0.0736924
0.0928642
0.149127
0.305223
0.597007
0.618647
0.611299
0.593007
0.560556
0.534069
0.512836
0.494614
0.478132
0.462732
0.448639
0.435585
0.422535
0.409985
0.399111
0.0903389
0.0625753
0.0626036
0.0628162
0.0634271
0.0650603
0.0693066
0.080949
0.115169
0.218846
0.501675
0.609291
0.609581
0.600477
0.577877
0.546493
0.522304
0.502661
0.485347
0.469643
0.455033
0.442087
0.429432
0.416959
0.405338
0.0904294
0.0627322
0.0624417
0.0625487
0.0629085
0.063885
0.0664059
0.0730088
0.0912321
0.144525
0.289997
0.574408
0.606375
0.601636
0.587806
0.559558
0.532694
0.51158
0.493603
0.477304
0.462146
0.449021
0.436444
0.424375
0.412751
0.0904694
0.0628689
0.062305
0.0623668
0.0625801
0.0631603
0.0646659
0.0685459
0.0790724
0.109809
0.203146
0.462544
0.592266
0.600179
0.593274
0.575252
0.545073
0.521166
0.502078
0.48551
0.469942
0.456328
0.443729
0.431809
0.420542
0.0904924
0.0629539
0.0622202