/*--------------------------------*- C++ -*----------------------------------*\
| =========                 |                                                 |
| \\      /  F ield         | OpenFOAM: The Open Source CFD Toolbox           |
|  \\    /   O peration     | Version:  4.1                                   |
|   \\  /    A nd           | Web:      www.OpenFOAM.org                      |
|    \\/     M anipulation  |                                                 |
\*---------------------------------------------------------------------------*/
FoamFile
{
    version     2.0;
    format      ascii;
    class       surfaceScalarField;
    location    "0.92";
    object      phi;
}
// * * * * * * * * * * * * * * * * * * * * * * * * * * * * * * * * * * * * * //

dimensions      [1 0 -1 0 0 0 0];

internalField   nonuniform List<scalar> 
150500
(
0.00168504
-1.22554e-07
7.77303e-11
0.00179076
3.76102e-06
9.64687e-11
0.00213365
8.19858e-05
3.12768e-10
0.00198916
8.31192e-05
9.56899e-11
0.00182336
7.81335e-05
8.19549e-11
0.00168907
7.3734e-05
9.10045e-11
0.0015766
6.73537e-05
6.85316e-11
0.00148278
6.21174e-05
2.73183e-11
0.00140413
5.88983e-05
1.46751e-11
0.00133202
5.69509e-05
4.06987e-11
0.00127391
5.59176e-05
3.35052e-11
0.00124093
5.68804e-05
-1.08329e-11
0.00125386
5.98042e-05
1.69225e-11
0.00134099
6.58366e-05
8.39e-12
0.00138499
7.14295e-05
-1.5739e-12
0.00137803
7.48066e-05
1.25755e-11
0.00131541
7.59907e-05
4.61296e-11
0.0011789
7.51944e-05
2.92503e-11
0.00104286
7.6079e-05
1.44917e-10
0.000924975
8.08509e-05
1.3559e-10
0.000781859
8.75298e-05
1.61649e-10
0.000588584
9.56137e-05
2.2746e-10
0.000367592
0.000105024
2.11528e-10
0.000179154
0.000114951
6.44131e-11
0.000121899
8.57373e-11
0.00168923
-8.02387e-06
-6.14904e-11
0.00180377
1.78625e-06
2.22566e-11
0.00214701
0.00016307
3.22985e-10
0.00199604
0.000172611
1.46129e-10
0.00182585
0.000159598
1.10333e-10
0.0016876
0.000146819
9.54896e-11
0.00157368
0.000133787
6.94397e-11
0.00147977
0.000123748
3.04084e-11
0.00140199
0.000117666
2.033e-11
0.00133091
0.000114039
2.45025e-11
0.00127372
0.000112055
1.1839e-11
0.00124163
0.000113699
1.85833e-11
0.00125554
0.000119996
-5.51881e-12
0.00134367
0.000131602
7.70701e-11
0.001389
0.000141915
8.49211e-11
0.00138187
0.000148636
2.22975e-11
0.0013176
0.000150732
-7.1754e-11
0.00118501
0.000149619
-2.6921e-11
0.00104928
0.000152506
1.414e-10
0.000931478
0.000162208
1.3754e-10
0.000788157
0.000175797
1.6573e-10
0.000593448
0.000192785
2.22338e-10
0.000370566
0.000213651
2.05042e-10
0.000179427
0.000233772
6.6672e-11
0.000244936
8.7185e-11
0.00169187
-1.7352e-05
-2.43947e-11
0.00180764
6.20361e-07
4.05314e-11
0.00214604
0.00025001
3.1558e-10
0.00199578
0.000263822
1.25212e-10
0.00182929
0.000240347
9.43466e-11
0.00168955
0.000216129
8.48829e-11
0.00157443
0.000197061
6.78736e-11
0.00148097
0.000183039
4.27016e-11
0.00140482
0.000174981
3.35823e-11
0.00133561
0.000170393
3.809e-11
0.00127992
0.000167884
5.36111e-12
0.00124936
0.000170534
3.31971e-11
0.00126183
0.00018047
6.41637e-12
0.00135028
0.000197328
9.32461e-11
0.00139822
0.000212042
9.93844e-11
0.00139043
0.00022222
1.30212e-11
0.00132184
0.000225713
-1.16332e-10
0.0011951
0.000223522
-1.04943e-11
0.00105939
0.000228787
1.47853e-10
0.000941973
0.000243513
1.40163e-10
0.000798897
0.000264561
1.69572e-10
0.000603289
0.000291149
2.32901e-10
0.000379338
0.000325919
2.03038e-10
0.000184647
0.00035796
7.24828e-11
0.000374557
8.81618e-11
0.00169306
-1.54285e-05
1.11796e-10
0.00180398
3.55217e-06
1.25573e-10
0.00214055
0.000343609
3.27432e-10
0.00199133
0.000354048
7.46283e-11
0.00183312
0.000313577
5.26052e-11
0.00169489
0.000278988
7.06561e-11
0.00157846
0.000256265
6.01283e-11
0.00148502
0.000239672
4.44575e-11
0.00141055
0.000230899
2.89986e-11
0.00134347
0.000226002
3.75393e-11
0.00128972
0.000223633
6.81783e-12
0.00126135
0.000227598
1.45409e-11
0.0012697
0.000239922
-6.97152e-12
0.00135899
0.000260964
2.97964e-11
0.00141183
0.000280983
2.97692e-11
0.00140322
0.000294841
7.29489e-12
0.00133109
0.0003
-9.09929e-11
0.00121067
0.000297407
5.48352e-11
0.00107496
0.000304949
1.46474e-10
0.000958386
0.000324866
1.29664e-10
0.000815815
0.000354351
1.62616e-10
0.000618958
0.000391989
2.66781e-10
0.000394457
0.000442916
2.14554e-10
0.00019374
0.000490796
8.47092e-11
0.00051516
8.80731e-11
0.0017035
-2.76656e-05
-2.13022e-11
0.00182252
2.54481e-06
4.58672e-11
0.00216557
0.000441219
3.41805e-10
0.00200367
0.000452804
8.2812e-11
0.00184445
0.000384838
5.65741e-11
0.00170657
0.00033796
5.98655e-11
0.00158873
0.000312573
5.43135e-11
0.0014941
0.000295104
3.65511e-11
0.00142009
0.000286166
2.30675e-11
0.00135494
0.000281393
3.96172e-11
0.00130351
0.000279844
4.46888e-11
0.0012776
0.000285239
-2.96552e-11
0.00128056
0.000298146
1.99389e-11
0.00136874
0.000321712
1.81818e-11
0.00142748
0.00034889
3.7396e-12
0.00142045
0.00036736
-6.43433e-12
0.00134927
0.000373676
2.31921e-11
0.00123132
0.000371832
1.09267e-10
0.00109524
0.000380882
1.40992e-10
0.000979141
0.000406076
1.25506e-10
0.000837807
0.000444702
1.6396e-10
0.000641854
0.000495026
2.71958e-10
0.000416535
0.000564884
2.41579e-10
0.000207375
0.000634328
1.02806e-10
0.000671312
8.97053e-11
0.00171091
-3.28477e-05
4.55065e-11
0.00182488
4.85117e-06
9.18434e-11
0.00219131
0.0005352
3.60497e-10
0.00202128
0.000557998
6.58582e-11
0.00186033
0.000450448
4.22986e-11
0.00172458
0.000392013
5.11321e-11
0.00160475
0.000367007
4.92704e-11
0.00150774
0.000350239
3.054e-11
0.0014334
0.000341789
1.54531e-11
0.00137033
0.000337632
3.37293e-11
0.0013215
0.000337263
5.91518e-11
0.00129751
0.000343918
-5.37626e-11
0.0012939
0.000356172
5.39898e-11
0.0013767
0.000381373
2.3937e-11
0.00143942
0.000415234
-2.54895e-11
0.00143523
0.000438624
-4.68301e-11
0.00136958
0.000446682
3.65701e-11
0.00125605
0.000445664
1.18078e-10
0.00112011
0.000456092
1.46096e-10
0.0010054
0.000486281
1.4164e-10
0.000865798
0.000535116
1.84728e-10
0.000672967
0.000599543
2.59535e-10
0.000447698
0.000691824
2.40426e-10
0.000227386
0.000790218
1.17498e-10
0.000849054
8.81979e-11
0.00172462
-3.5204e-05
-1.39962e-11
0.00183084
9.59822e-06
5.48541e-11
0.0022411
0.000605212
3.61816e-10
0.00206054
0.000674131
6.43506e-11
0.00188963
0.000513207
3.49744e-11
0.00175218
0.000443294
3.95595e-11
0.00162811
0.000422048
3.92374e-11
0.00152677
0.000407358
2.97165e-11
0.00145065
0.000399491
1.28473e-11
0.00138928
0.000396295
2.87476e-11
0.00134316
0.000396725
4.14069e-11
0.00132045
0.00040376
-5.95439e-11
0.00130843
0.000415491
9.0391e-11
0.00138436
0.000440966
3.32396e-11
0.00144898
0.000479772
-3.1282e-11
0.00144537
0.000508033
-6.79286e-11
0.00139186
0.000517572
-3.94445e-11
0.00128566
0.000518401
1.57897e-10
0.00115077
0.000529719
1.20211e-10
0.00103797
0.000565184
1.2464e-10
0.000900104
0.000623686
1.92772e-10
0.000713569
0.00070377
2.59067e-10
0.000490849
0.000821871
2.26107e-10
0.00025792
0.000959272
1.28304e-10
0.00105922
8.83139e-11
0.00174817
-4.2007e-05
1.20678e-11
0.00184814
9.02328e-06
6.92861e-11
0.00233086
0.000613943
3.50172e-10
0.00214008
0.00080573
4.5636e-11
0.00194304
0.000584856
1.2011e-11
0.00179302
0.000501923
2.42468e-11
0.00166051
0.000482702
3.03918e-11
0.00155183
0.000469657
2.83098e-11
0.0014722
0.000461526
1.71811e-11
0.0014116
0.00045852
2.75832e-11
0.00136772
0.000459032
1.56048e-11
0.00134514
0.000465259
-6.06627e-11
0.00132532
0.000474591
1.79266e-10
0.00139193
0.000500727
-1.41932e-10
0.00145942
0.000542905
1.2425e-10
0.0014568
0.000573427
-7.69177e-11
0.00141612
0.000585935
-5.19913e-11
0.00132006
0.000588988
1.89782e-10
0.00118846
0.000600581
8.07089e-11
0.00107696
0.00064108
8.15548e-11
0.000942024
0.000709087
1.57081e-10
0.000767272
0.000804625
2.26084e-10
0.000551435
0.000951261
2.44761e-10
0.000305831
0.0011405
1.34614e-10
0.00131985
8.22046e-11
0.00178001
-4.54111e-05
4.81501e-12
0.00186085
-1.50368e-06
5.82953e-11
0.00244513
0.000506704
3.08902e-10
0.00227394
0.000954522
4.16973e-11
0.00203114
0.000695917
-2.45558e-12
0.00185174
0.00058959
1.40839e-11
0.00170334
0.000559443
2.24913e-11
0.00158303
0.000541413
2.48118e-11
0.00149767
0.000530519
2.09465e-11
0.00143654
0.0005253
2.74305e-11
0.0013943
0.000524331
7.29803e-12
0.00137064
0.000528301
-4.85852e-11
0.00134474
0.000534354
1.9635e-10
0.00140024
0.000557412
-2.49945e-10
0.00147856
0.000602549
-2.05721e-11
0.00147974
0.000635179
1.4693e-10
0.00144236
0.00065105
2.0221e-11
0.00136002
0.000656808
1.5045e-10
0.00123549
0.00066798
6.54117e-11
0.00112007
0.000710933
8.08744e-11
0.000992685
0.000788293
1.22445e-10
0.000839075
0.000899949
1.74861e-10
0.000635086
0.00107251
2.33012e-10
0.000386806
0.00132463
1.31415e-10
0.00166218
7.84907e-11
0.00182557
-2.76826e-11
-5.8991e-05
0.00184545
1.50972e-11
-2.76127e-05
0.00239768
1.4537e-10
0.000264413
0.00244375
1.7349e-10
0.00107658
0.00215356
5.04612e-11
0.00089703
0.00192726
1.59501e-11
0.000730925
0.0017524
1.9608e-11
0.000661285
0.00161695
2.10182e-11
0.000626456
0.00152503
2.15835e-11
0.000607796
0.00146264
2.74051e-11
0.000596716
0.00142153
1.14261e-11
0.000592121
0.00139621
-2.06542e-11
0.000592452
0.00136718
1.23181e-10
0.000595323
0.00140663
-2.02119e-10
0.00061396
0.00149874
-1.07758e-10
0.000655741
0.0015046
2.15198e-10
0.000693761
0.00147073
3.93897e-11
0.000711856
0.00140425
9.16025e-11
0.000720603
0.00128738
6.09918e-11
0.000731625
0.00117267
8.62939e-11
0.000768515
0.00106617
9.22894e-11
0.000854175
0.000931158
1.54992e-10
0.000981267
0.000749932
1.77493e-10
0.00117944
0.00053267
1.16375e-10
0.00147798
7.26441e-11
0.00214856
0.00168509
-1.99386e-07
-6.17879e-11
0.00179088
3.69177e-06
-9.58009e-12
0.00213399
8.19049e-05
9.37274e-11
0.00198935
8.31634e-05
-6.58331e-11
0.00182339
7.81864e-05
-6.51131e-11
0.00168901
7.37654e-05
-2.25404e-11
0.00157651
6.73726e-05
-2.89657e-12
0.00148268
6.21504e-05
2.58893e-11
0.00140399
5.8952e-05
4.05821e-12
0.00133183
5.7003e-05
-6.18879e-11
0.00127365
5.5941e-05
-3.29319e-11
0.00124069
5.68445e-05
3.69768e-12
0.00125369
5.98664e-05
-5.49041e-11
0.0013408
6.58512e-05
-1.07143e-10
0.0013848
7.13378e-05
-7.37746e-11
0.00137784
7.46718e-05
4.35497e-11
0.00131543
7.58523e-05
1.21947e-10
0.00117902
7.51699e-05
1.31501e-10
0.00104301
7.60961e-05
-2.93436e-11
0.000925158
8.0873e-05
-2.14391e-11
0.000781947
8.75457e-05
-1.97817e-11
0.000588665
9.56179e-05
-8.8688e-11
0.000367598
0.00010502
-1.42506e-10
0.000179084
0.000114959
-5.36746e-11
0.000121914
-4.37804e-11
0.00168921
-7.9892e-06
6.56882e-11
0.00180364
1.80306e-06
6.59829e-11
0.00214695
0.000163063
1.14834e-10
0.001996
0.000172589
-1.08098e-10
0.00182589
0.00015958
-8.85002e-11
0.00168775
0.000146801
-3.00339e-11
0.00157392
0.000133763
-7.32683e-12
0.00148007
0.000123727
1.78746e-11
0.00140238
0.000117644
7.50506e-13
0.00133137
0.000114009
-4.07672e-11
0.00127415
0.000111982
-1.60599e-11
0.00124213
0.000113581
-2.18118e-11
0.00125564
0.000119868
-3.29781e-11
0.0013438
0.00013144
-1.58057e-10
0.00138946
0.000141804
-1.47643e-10
0.00138267
0.000148623
2.85971e-11
0.00131841
0.000150841
2.05356e-10
0.00118548
0.00014976
1.84109e-10
0.0010496
0.000152617
-2.08405e-11
0.000931745
0.000162287
-1.90902e-11
0.000788291
0.000175855
-2.61775e-11
0.00059355
0.000192818
-8.7735e-11
0.000370579
0.000213661
-1.36654e-10
0.000179355
0.000233794
-6.13574e-11
0.00024496
-4.94065e-11
0.00169186
-1.71375e-05
5.63583e-12
0.00180761
6.55102e-07
2.30155e-11
0.00214609
0.000250042
1.11326e-10
0.00199578
0.000263783
-8.96458e-11
0.00182932
0.000240281
-6.9162e-11
0.00168968
0.000216058
-2.68868e-11
0.00157465
0.000196991
-1.12266e-11
0.00148127
0.000182964
-2.129e-13
0.00140521
0.000174894
-7.56287e-12
0.00133602
0.000170277
-4.44769e-11
0.00128026
0.000167747
-1.57077e-11
0.00124974
0.00017037
-3.68405e-11
0.00126173
0.000180176
-3.75604e-11
0.00135012
0.000197023
-1.34574e-10
0.00139833
0.000211918
-1.27659e-10
0.00139102
0.000222269
1.52337e-11
0.00132249
0.000225944
1.96338e-10
0.0011954
0.000223763
1.55443e-10
0.00105961
0.00022896
-2.09353e-11
0.000942166
0.000243632
-1.62132e-11
0.000798982
0.000264647
-3.34467e-11
0.000603366
0.000291205
-1.05455e-10
0.000379342
0.000325938
-1.37766e-10
0.000184573
0.00035799
-7.56466e-11
0.000374586
-5.76935e-11
0.00169314
-1.54825e-05
-8.39954e-11
0.00180417
3.52535e-06
-2.05956e-11
0.0021409
0.000343589
1.19327e-10
0.00199151
0.00035406
-7.00023e-11
0.00183318
0.000313547
-4.92112e-11
0.00169495
0.000278919
-2.04396e-11
0.00157859
0.000256173
-9.54433e-12
0.00148521
0.000239565
-5.48604e-12
0.00141078
0.000230764
1.11398e-12
0.0013437
0.000225837
-3.28792e-11
0.00128987
0.000223468
-3.44239e-11
0.00126149
0.000227448
-1.56649e-11
0.00126944
0.00023962
-2.33055e-11
0.00135857
0.000260689
-4.64797e-11
0.00141154
0.000280931
-2.73174e-11
0.00140312
0.00029501
2.10627e-12
0.00133103
0.000300278
7.25373e-11
0.00121057
0.000297676
6.00076e-11
0.00107496
0.000305153
-1.55784e-11
0.000958464
0.000325022
-8.46813e-12
0.00081579
0.000354456
-4.14544e-11
0.000618968
0.000392035
-1.37904e-10
0.000394436
0.000442921
-1.50822e-10
0.000193661
0.000490818
-9.86342e-11
0.000515181
-7.39779e-11
0.00170349
-2.76457e-05
6.1844e-12
0.00182249
2.54181e-06
2.82996e-11
0.0021657
0.000441172
1.32211e-10
0.00200374
0.000452791
-9.46139e-11
0.00184448
0.000384802
-5.52695e-11
0.00170659
0.000337886
-1.56596e-11
0.00158876
0.00031247
-6.09588e-12
0.00149415
0.000294982
-1.14293e-12
0.00142016
0.000286024
4.66493e-12
0.00135501
0.000281231
-3.11649e-11
0.00130351
0.000279669
-7.63619e-11
0.00127758
0.00028509
3.08127e-11
0.00128053
0.000297979
-1.98229e-11
0.00136869
0.000321662
-7.2488e-12
0.00142731
0.000348978
2.01174e-11
0.00142003
0.000367593
2.3705e-11
0.00134887
0.000373946
-2.34979e-11
0.00123092
0.000372088
5.32729e-12
0.00109499
0.000381064
-1.81512e-11
0.000979039
0.000406214
-9.79231e-12
0.000837662
0.000444781
-4.7856e-11
0.000641778
0.000495031
-1.50565e-10
0.000416487
0.000564848
-1.7492e-10
0.000207296
0.000634323
-1.18358e-10
0.000671319
-8.76672e-11
0.00171095
-3.28901e-05
-4.0112e-11
0.00182497
4.82957e-06
1.36133e-11
0.00219155
0.000535133
1.54393e-10
0.00202139
0.000558012
-1.15967e-10
0.00186037
0.000450435
-6.3768e-11
0.0017246
0.000391952
-1.33433e-11
0.00160476
0.000366911
-3.60237e-12
0.00150774
0.000350129
2.3157e-12
0.00143338
0.000341675
8.2687e-12
0.00137027
0.00033751
-2.2596e-11
0.00132136
0.000337123
-7.6479e-11
0.00129731
0.000343806
6.28704e-11
0.00129383
0.000356107
-1.07731e-10
0.00137674
0.000381455
-4.57962e-11
0.00143941
0.000415423
3.25478e-11
0.00143476
0.000438878
9.663e-11
0.00136911
0.000446898
7.13212e-12
0.00125558
0.00044587
-4.17317e-11
0.00111979
0.000456205
-2.68039e-11
0.00100518
0.000486349
-2.80307e-11
0.000865573
0.000535129
-6.88668e-11
0.000672833
0.000599485
-1.53737e-10
0.00044763
0.00069172
-1.73816e-10
0.000227307
0.000790169
-1.31058e-10
0.000849038
-9.55689e-11
0.00172463
-3.51885e-05
-4.0042e-12
0.00183084
9.59553e-06
3.73225e-11
0.00224125
0.000605122
1.9576e-10
0.00206061
0.000674149
-1.4931e-10
0.00188966
0.000513205
-7.98412e-11
0.00175219
0.000443254
-1.17175e-11
0.00162812
0.000421973
2.47607e-12
0.00152676
0.000407272
2.49557e-12
0.0014506
0.000399414
8.86022e-12
0.00138917
0.000396225
-1.79511e-11
0.00134296
0.000396647
-4.60976e-11
0.00132019
0.000403724
7.221e-11
0.00130836
0.00041556
-1.76682e-10
0.00138448
0.000441115
-7.39798e-11
0.00144891
0.000480079
4.52306e-11
0.00144476
0.000508231
9.35495e-11
0.0013912
0.000517652
9.74913e-11
0.00128493
0.00051847
-1.00441e-10
0.00115035
0.000529658
-2.36088e-12
0.00103768
0.000565139
-1.00077e-11
0.000899848
0.00062361
-8.26874e-11
0.000713407
0.000703655
-1.56911e-10
0.000490786
0.00082172
-1.64847e-10
0.000257851
0.000959175
-1.36216e-10
0.00105917
-9.77599e-11
0.0017482
-4.20159e-05
-3.06526e-11
0.00184822
9.01255e-06
3.33089e-11
0.00233107
0.000613823
3.25531e-10
0.00214019
0.00080577
-1.66065e-10
0.0019431
0.000584887
-7.98726e-11
0.00179306
0.000501912
-2.91179e-12
0.00166052
0.000482658
1.26683e-11
0.00155182
0.0004696
3.65877e-12
0.00147216
0.000461481
5.42792e-12
0.00141149
0.000458498
-1.63545e-11
0.00136752
0.000459026
-1.46132e-11
0.00134491
0.000465307
7.32993e-11
0.0013253
0.000474741
-2.205e-10
0.00139227
0.000501046
1.40801e-10
0.0014594
0.000543246
-1.3473e-10
0.0014561
0.000573677
6.06423e-11
0.00141531
0.000585949
9.0251e-11
0.00131904
0.000588831
-1.18028e-10
0.00118789
0.000600334
1.20961e-11
0.00107661
0.000640906
1.07221e-11
0.000941753
0.000708912
-6.04658e-11
0.000767115
0.000804458
-1.32057e-10
0.000551385
0.000951085
-1.75548e-10
0.00030578
0.00114036
-1.36316e-10
0.00131975
-9.28081e-11
0.00178005
-4.54459e-05
-2.9449e-11
0.00186093
-1.53214e-06
4.97346e-11
0.00244536
0.000506511
3.595e-10
0.0022741
0.000954594
-1.85618e-10
0.00203124
0.000696
-9.62102e-11
0.0018518
0.000589613
-2.12518e-12
0.00170337
0.000559427
1.89574e-11
0.00158303
0.000541385
8.95433e-12
0.00149764
0.000530509
3.28595e-12
0.00143643
0.000525323
-1.24867e-11
0.00139411
0.000524388
-4.89778e-12
0.00137045
0.000528417
5.6549e-11
0.00134467
0.00053452
-1.97141e-10
0.00140075
0.000557835
2.212e-10
0.00147803
0.000603081
1.00993e-11
0.001479
0.000635354
-1.61916e-10
0.00144156
0.000651002
1.56417e-11
0.0013589
0.000656504
-8.36257e-11
0.0012348
0.000667632
8.77146e-12
0.00111967
0.00071065
-2.56373e-12
0.000992447
0.000788086
-4.27822e-11
0.000838898
0.000899764
-9.31042e-11
0.000635057
0.00107229
-1.59098e-10
0.000386774
0.00132444
-1.27267e-10
0.00166206
-8.79585e-11
0.00182561
-1.85916e-11
-5.90027e-05
0.0018454
2.96694e-11
-2.76423e-05
0.00239752
1.69152e-10
0.000264277
0.0024438
4.18905e-11
0.00107653
0.00215366
8.17532e-13
0.000897128
0.00192734
-3.1696e-12
0.000730981
0.00175244
1.73644e-11
0.000661303
0.00161696
1.31368e-11
0.000626459
0.00152502
4.03017e-12
0.000607822
0.00146256
-9.39367e-12
0.000596777
0.00142136
-4.09456e-12
0.000592225
0.00139606
3.0911e-11
0.000592609
0.00136702
-1.20082e-10
0.000595504
0.00140717
1.52171e-10
0.000614442
0.00149855
7.29852e-11
0.000656227
0.00150401
-1.94612e-10
0.000693898
0.00147006
-5.80389e-12
0.000711777
0.00140329
-3.91967e-11
0.000720285
0.00128668
7.96869e-12
0.000731276
0.00117231
-1.89758e-11
0.000768219
0.00106598
-2.57339e-11
0.00085397
0.000931028
-8.10545e-11
0.000981046
0.00074993
-1.11045e-10
0.00117921
0.000532662
-1.0807e-10
0.00147777
-8.00632e-11
0.00214841
0.00168507
-1.42488e-07
4.83385e-12
0.00179081
3.74539e-06
4.19973e-11
0.00213385
8.19833e-05
1.5815e-10
0.00198929
8.3131e-05
-2.71821e-11
0.0018234
7.8143e-05
-2.88928e-11
0.00168905
7.37446e-05
-5.46102e-12
0.00157656
6.73681e-05
-1.14327e-11
0.00148273
6.21407e-05
-2.69192e-11
0.00140403
5.89373e-05
-4.61243e-11
0.00133186
5.70069e-05
-5.99414e-11
0.00127373
5.59789e-05
-7.18802e-11
0.00124066
5.69243e-05
-9.11005e-11
0.00125386
5.98993e-05
-8.97522e-11
0.00134089
6.59125e-05
-8.24856e-11
0.0013846
7.14237e-05
-7.54087e-11
0.00137736
7.47349e-05
-3.51934e-11
0.0013148
7.58837e-05
3.35229e-12
0.0011786
7.5121e-05
3.31473e-11
0.00104271
7.60255e-05
7.43553e-11
0.0009249
8.0808e-05
7.3263e-11
0.000781807
8.74886e-05
8.12414e-11
0.000588542
9.55772e-05
7.69059e-11
0.000367517
0.000104991
6.04924e-11
0.000179079
0.000114935
3.20186e-11
0.000121893
4.87388e-11
0.00168925
-8.0308e-06
-4.02327e-12
0.00180378
1.78472e-06
2.38028e-11
0.00214713
0.000163094
1.5686e-10
0.00199611
0.000172619
-2.45238e-11
0.00182589
0.000159594
-2.7428e-11
0.00168763
0.000146818
-9.79376e-12
0.00157373
0.000133796
-1.46811e-11
0.00147982
0.000123768
-2.8633e-11
0.00140204
0.000117706
-4.55764e-11
0.00133095
0.000114105
-6.29666e-11
0.00127375
0.000112129
-8.00417e-11
0.00124161
0.000113755
-9.33247e-11
0.00125563
0.000120104
-8.74401e-11
0.00134369
0.000131682
-5.24162e-11
0.00138886
0.000141904
-6.15255e-11
0.0013816
0.00014856
-3.70281e-11
0.00131731
0.00015062
-5.84646e-12
0.00118488
0.000149534
3.52525e-11
0.00104923
0.000152441
7.60389e-11
0.00093147
0.000162155
7.35686e-11
0.000788146
0.000175744
8.20077e-11
0.000593424
0.000192732
7.7828e-11
0.000370497
0.000213601
5.95354e-11
0.00017935
0.000233748
3.22917e-11
0.000244917
4.754e-11
0.00169188
-1.72732e-05
3.22391e-12
0.00180764
6.32354e-07
3.9005e-11
0.00214615
0.000250055
1.51259e-10
0.00199584
0.000263828
-2.90067e-11
0.00182933
0.000240326
-2.92113e-11
0.0016896
0.000216108
-1.5136e-11
0.00157449
0.000197056
-1.94263e-11
0.00148105
0.000183048
-3.04335e-11
0.00140491
0.000175011
-4.52496e-11
0.0013357
0.000170447
-6.36774e-11
0.00128
0.000167951
-8.27617e-11
0.00124943
0.00017059
-8.78441e-11
0.00126191
0.000180558
-7.84936e-11
0.00135029
0.000197378
-4.5835e-11
0.00139818
0.000212025
-5.44711e-11
0.00139044
0.000222147
-4.23124e-11
0.0013218
0.000225615
-1.47999e-11
0.00119508
0.000223464
3.20966e-11
0.00105939
0.000228721
7.91898e-11
0.000941986
0.000243445
7.42609e-11
0.000798899
0.000264491
7.91891e-11
0.000603279
0.000291083
8.04205e-11
0.000379282
0.000325859
5.93423e-11
0.00018458
0.00035793
3.27541e-11
0.00037453
4.51618e-11
0.0016931
-1.54484e-05
-6.26316e-13
0.00180407
3.547e-06
3.87666e-11
0.00214079
0.000343645
1.52915e-10
0.00199146
0.000354085
-3.65405e-11
0.00183318
0.000313567
-2.845e-11
0.00169494
0.000278966
-1.78493e-11
0.00157852
0.00025625
-2.27789e-11
0.0014851
0.00023967
-3.14345e-11
0.00141064
0.000230912
-4.64388e-11
0.00134357
0.000226034
-6.31811e-11
0.0012898
0.000223691
-7.94165e-11
0.00126142
0.000227665
-8.07812e-11
0.00126964
0.000239971
-9.87494e-11
0.00135884
0.00026097
-7.96472e-11
0.00141168
0.000280966
-6.95172e-11
0.00140317
0.000294813
-4.07358e-11
0.00133104
0.000299949
-2.95517e-11
0.00121061
0.000297338
4.98962e-11
0.00107497
0.000304898
8.14114e-11
0.000958441
0.000324821
7.86071e-11
0.000815837
0.000354297
8.02809e-11
0.000618961
0.00039192
8.48869e-11
0.000394418
0.000442853
6.20285e-11
0.000193688
0.000490763
3.48041e-11
0.000515127
4.44332e-11
0.00170351
-2.76576e-05
-1.58423e-12
0.00182254
2.54901e-06
3.54615e-11
0.00216576
0.000441242
1.5505e-10
0.00200378
0.000452839
-3.91577e-11
0.00184451
0.000384821
-2.75336e-11
0.00170662
0.000337927
-1.85501e-11
0.00158878
0.000312546
-2.39448e-11
0.00149416
0.000295087
-3.12053e-11
0.00142017
0.000286163
-4.62793e-11
0.00135503
0.000281407
-5.82491e-11
0.00130359
0.000279879
-5.29278e-11
0.0012777
0.00028529
-9.23588e-11
0.00128064
0.000298188
-9.37602e-11
0.00136878
0.000321756
-8.19871e-11
0.00142748
0.000348903
-6.72074e-11
0.00142051
0.000367355
-4.4941e-11
0.00134925
0.000373679
-6.79133e-13
0.00123127
0.000371802
5.57159e-11
0.00109523
0.000380862
7.79708e-11
0.000979177
0.000406049
7.72799e-11
0.000837825
0.000444657
7.97927e-11
0.000641856
0.000494957
8.41586e-11
0.000416511
0.000564815
7.12755e-11
0.000207338
0.00063429
3.95606e-11
0.000671276
4.55413e-11
0.00171095
-3.28683e-05
-3.43454e-12
0.00182495
4.84706e-06
4.13021e-11
0.00219157
0.000535194
1.57939e-10
0.00202143
0.000558066
-5.25544e-11
0.00186042
0.000450444
-2.93502e-11
0.00172465
0.000391978
-1.82891e-11
0.00160481
0.000366972
-2.23325e-11
0.0015078
0.000350214
-2.91187e-11
0.00143347
0.000341779
-4.38674e-11
0.0013704
0.000337636
-5.24599e-11
0.00132156
0.000337282
-4.46946e-11
0.00129757
0.000343946
-1.10255e-10
0.00129385
0.000356201
-5.58719e-11
0.00137659
0.000381347
-6.55674e-11
0.00143932
0.000415241
-6.97552e-11
0.00143533
0.000438675
-6.3306e-11
0.00136966
0.000446758
7.79266e-13
0.00125611
0.000445702
6.05866e-11
0.00112014
0.000456114
8.72538e-11
0.00100542
0.000486268
8.48345e-11
0.000865806
0.000535071
8.37641e-11
0.000672968
0.00059947
8.40229e-11
0.000447683
0.000691739
7.07566e-11
0.000227361
0.00079017
4.3832e-11
0.000849015
4.54442e-11
0.00172466
-3.51995e-05
-6.68031e-12
0.00183088
9.60173e-06
2.64329e-11
0.00224136
0.000605149
1.61136e-10
0.00206071
0.000674221
-6.41295e-11
0.00188973
0.000513212
-3.37392e-11
0.00175226
0.000443264
-2.05303e-11
0.00162819
0.000422013
-1.94701e-11
0.00152683
0.000407332
-2.74785e-11
0.00145071
0.000399477
-4.13284e-11
0.00138934
0.000396295
-4.72093e-11
0.00134321
0.000396739
-5.87389e-11
0.00132049
0.000403783
-1.17584e-10
0.00130833
0.000415523
-6.23308e-12
0.0013841
0.000440955
-4.47111e-11
0.0014488
0.000479777
-7.47933e-11
0.0014454
0.000508108
-8.69541e-11
0.00139191
0.000517654
-4.1364e-11
0.00128574
0.000518494
9.032e-11
0.00115082
0.000529747
6.04733e-11
0.00103799
0.000565172
6.37284e-11
0.000900108
0.000623634
7.96259e-11
0.00071357
0.00070369
8.73602e-11
0.000490846
0.000821777
7.1785e-11
0.000257906
0.000959213
4.43042e-11
0.00105918
4.30852e-11
0.00174822
-4.20127e-05
-1.05352e-11
0.00184822
9.01696e-06
2.6526e-11
0.00233119
0.000613772
1.67621e-10
0.00214031
0.000805844
-7.09895e-11
0.00194319
0.000584892
-4.14079e-11
0.00179313
0.000501917
-2.19971e-11
0.00166059
0.000482678
-1.48194e-11
0.0015519
0.000469635
-2.39514e-11
0.00147226
0.000461511
-3.91563e-11
0.00141166
0.00045852
-4.50376e-11
0.00136777
0.000459047
-6.15722e-11
0.00134518
0.000465283
-1.10961e-10
0.0013253
0.00047464
1.71213e-11
0.00139184
0.000500712
-1.40222e-10
0.00145935
0.000542967
1.65259e-11
0.00145677
0.000573564
-7.01855e-11
0.00141609
0.000586029
-2.99402e-11
0.00132002
0.000589059
9.40692e-11
0.00118846
0.000600574
4.20574e-11
0.00107696
0.00064104
4.18882e-11
0.00094203
0.000709014
5.98562e-11
0.000767279
0.000804536
7.53592e-11
0.000551445
0.000951167
8.29833e-11
0.000305828
0.00114043
4.48857e-11
0.00131979
3.79384e-11
0.00178009
-4.54385e-05
-1.05867e-11
0.00186095
-1.54068e-06
2.19242e-11
0.00244552
0.000506298
1.53942e-10
0.00227427
0.000954699
-7.53468e-11
0.00203135
0.000696049
-4.64366e-11
0.00185188
0.000589633
-2.12152e-11
0.00170344
0.000559445
-1.24301e-11
0.00158311
0.000541402
-2.11719e-11
0.00149773
0.00053051
-3.66548e-11
0.00143658
0.000525303
-4.27005e-11
0.00139432
0.000524349
-5.38967e-11
0.00137067
0.000528332
-9.65419e-11
0.00134475
0.000534404
4.11257e-12
0.0014003
0.000557464
-1.4597e-10
0.0014785
0.000602726
-5.98435e-11
0.00147967
0.000635342
3.03257e-11
0.00144228
0.000651153
-1.75661e-12
0.00135987
0.000656843
6.45121e-11
0.00123541
0.000667941
3.94477e-11
0.00112004
0.000710861
4.63041e-11
0.000992681
0.00078821
5.54673e-11
0.000839077
0.000899853
6.408e-11
0.000635112
0.00107241
7.53029e-11
0.000386814
0.00132455
4.27149e-11
0.00166212
3.34123e-11
0.00182565
-1.88756e-11
-5.90018e-05
0.0018453
2.88606e-12
-2.76679e-05
0.00239733
6.21973e-11
0.000264069
0.00244385
4.74353e-11
0.00107639
0.00215374
-3.89585e-13
0.000897198
0.00192741
-1.15296e-11
0.000731027
0.00175251
-1.49302e-11
0.000661326
0.00161702
-2.07429e-11
0.000626461
0.00152509
-3.35416e-11
0.000607799
0.00146267
-3.89872e-11
0.000596725
0.00142152
-4.70624e-11
0.000592142
0.0013962
-8.29921e-11
0.000592485
0.00136715
-2.31122e-11
0.000595368
0.00140681
-9.9395e-11
0.00061409
0.00149877
-6.93465e-11
0.000655958
0.00150455
2.34747e-11
0.000693939
0.00147065
-1.0105e-11
0.00071196
0.00140408
4.11703e-11
0.000720624
0.00128724
3.69461e-11
0.000731578
0.00117261
5.70995e-11
0.000768431
0.00106616
5.97241e-11
0.000854088
0.000931159
6.17405e-11
0.000981157
0.000749965
5.86576e-11
0.00117932
0.000532691
3.92677e-11
0.0014779
2.92391e-11
0.0021485
0.00168508
-1.46599e-07
-3.68281e-11
0.00179083
3.74222e-06
2.05052e-11
0.00213392
8.19861e-05
2.97901e-10
0.00198933
8.31324e-05
-1.82956e-10
0.0018234
7.81432e-05
-1.66572e-10
0.00168902
7.37447e-05
-5.81429e-11
0.00157652
6.73677e-05
-1.65672e-11
0.0014827
6.21408e-05
4.7029e-12
0.00140399
5.89396e-05
8.79929e-12
0.00133182
5.70092e-05
3.82522e-12
0.00127368
5.59777e-05
-1.07398e-11
0.00124061
5.69178e-05
-3.08276e-11
0.00125383
5.99017e-05
-1.73345e-11
0.00134087
6.5914e-05
-1.61714e-11
0.00138457
7.1422e-05
-1.50968e-11
0.00137732
7.47328e-05
-3.23063e-11
0.00131476
7.58856e-05
-5.24125e-13
0.00117859
7.51252e-05
6.75626e-11
0.00104272
7.60282e-05
-1.35511e-11
0.000924922
8.08088e-05
-1.36611e-11
0.000781814
8.74871e-05
-3.45798e-11
0.000588561
9.55726e-05
-7.61651e-11
0.000367516
0.000104982
-8.99134e-11
0.000179065
0.000114926
-5.02692e-11
0.000121883
-4.05427e-11
0.00168925
-8.02673e-06
-2.96098e-11
0.00180378
1.78733e-06
3.17664e-11
0.00214717
0.000163103
2.99505e-10
0.00199614
0.000172618
-1.82108e-10
0.00182589
0.00015959
-1.63611e-10
0.00168762
0.000146813
-6.80784e-11
0.00157371
0.000133791
-2.12194e-11
0.00147981
0.000123764
3.00663e-12
0.00140203
0.000117703
7.48291e-12
0.00133094
0.0001141
3.1707e-12
0.00127374
0.00011212
-1.10496e-11
0.00124161
0.000113741
-2.9644e-11
0.00125562
0.000120098
-1.66576e-11
0.0013437
0.000131677
-1.52616e-11
0.00138888
0.000141905
-1.45334e-11
0.00138162
0.000148565
-1.83915e-11
0.00131732
0.000150635
1.07057e-11
0.0011849
0.000149549
6.09455e-11
0.00104926
0.000152452
-1.46368e-11
0.000931497
0.000162159
-1.4498e-11
0.000788154
0.00017574
-3.48332e-11
0.000593443
0.000192722
-7.39019e-11
0.000370495
0.000213586
-8.67284e-11
0.000179335
0.000233731
-4.66337e-11
0.000244897
-3.77837e-11
0.00169189
-1.72758e-05
-1.89096e-11
0.00180765
6.32358e-07
4.08838e-11
0.00214621
0.000250063
3.05693e-10
0.00199587
0.00026383
-1.78391e-10
0.00182933
0.000240321
-1.4928e-10
0.00168959
0.000216101
-7.64261e-11
0.00157448
0.000197047
-2.79716e-11
0.00148105
0.000183038
-3.82153e-14
0.00140491
0.000174998
5.04081e-12
0.0013357
0.00017043
1.82864e-12
0.00128
0.000167933
-1.18881e-11
0.00124944
0.000170568
-2.96478e-11
0.00126191
0.00018054
-1.60012e-11
0.00135029
0.000197363
-1.61883e-11
0.00139818
0.000212009
-1.25139e-11
0.00139046
0.000222141
-1.24302e-11
0.00132179
0.000225611
3.37609e-11
0.00119507
0.000223496
3.01643e-11
0.00105941
0.000228751
-1.83549e-11
0.00094202
0.000243466
-1.68085e-11
0.000798911
0.000264495
-3.40438e-11
0.000603295
0.000291074
-7.19376e-11
0.00037928
0.000325837
-8.21716e-11
0.000184565
0.000357905
-4.08613e-11
0.000374502
-3.41507e-11
0.00169311
-1.54504e-05
-6.84307e-11
0.00180408
3.54593e-06
6.74261e-12
0.00214086
0.00034365
2.9865e-10
0.00199149
0.000354093
-1.79228e-10
0.00183319
0.000313564
-1.36397e-10
0.00169493
0.000278958
-8.02242e-11
0.00157851
0.000256239
-3.01516e-11
0.00148509
0.000239657
-2.60942e-12
0.00141064
0.000230893
3.31099e-12
0.00134357
0.000226012
7.23148e-14
0.0012898
0.00022367