/*--------------------------------*- C++ -*----------------------------------*\
| =========                 |                                                 |
| \\      /  F ield         | OpenFOAM: The Open Source CFD Toolbox           |
|  \\    /   O peration     | Version:  4.1                                   |
|   \\  /    A nd           | Web:      www.OpenFOAM.org                      |
|    \\/     M anipulation  |                                                 |
\*---------------------------------------------------------------------------*/
FoamFile
{
    version     2.0;
    format      ascii;
    class       volScalarField;
    location    "0.92";
    object      T;
}
// * * * * * * * * * * * * * * * * * * * * * * * * * * * * * * * * * * * * * //

dimensions      [0 0 0 1 0 0 0];

internalField   nonuniform List<scalar> 
52500
(
0.027949
0.73195
0.862047
0.915265
0.947346
1.00103
1.07216
1.12299
1.14769
1.16133
1.17285
1.17963
1.1654
1.09218
1.02419
0.999026
1.00125
1.0285
1.06136
1.07342
1.07557
1.08231
1.09767
1.09427
1.03629
0.0252307
0.72449
0.86045
0.915472
0.947715
1.00149
1.07263
1.12339
1.14792
1.16132
1.17266
1.17931
1.16479
1.09113
1.02335
0.998168
1
1.0265
1.06
1.07244
1.07457
1.08117
1.09631
1.09284
1.03486
0.0276607
0.713363
0.858631
0.917049
0.94768
1.00064
1.0714
1.12268
1.14757
1.16095
1.17235
1.17919
1.16541
1.09288
1.02354
0.996853
0.997501
1.02218
1.05743
1.07135
1.07383
1.08045
1.09518
1.09189
1.03376
0.0354539
0.699167
0.856756
0.919221
0.946879
0.998467
1.06857
1.12059
1.14623
1.15983
1.17184
1.17941
1.16799
1.09883
1.0259
0.996614
0.995311
1.01767
1.05441
1.07007
1.07275
1.07909
1.09332
1.09039
1.03284
0.0385137
0.676106
0.852447
0.919635
0.94722
0.996689
1.06461
1.11667
1.14351
1.15795
1.17069
1.17899
1.17064
1.10703
1.02967
0.996462
0.992027
1.01158
1.04972
1.06785
1.0712
1.07719
1.09067
1.08838
1.03172
0.0505798
0.651193
0.848066
0.918449
0.947872
0.99499
1.05962
1.11178
1.14018
1.15554
1.16871
1.17799
1.17301
1.11716
1.03462
0.996152
0.987972
1.00448
1.04342
1.06492
1.06874
1.0742
1.0864
1.0852
1.03005
0.0654095
0.61858
0.84314
0.91475
0.948377
0.992574
1.05308
1.10561
1.13624
1.15295
1.16641
1.1768
1.17489
1.12763
1.04032
0.995675
0.982995
0.996163
1.03464
1.06009
1.0655
1.07029
1.08103
1.08118
1.0272
0.0823155
0.576902
0.836805
0.907927
0.948139
0.988805
1.04468
1.09812
1.13165
1.15009
1.16394
1.17536
1.17631
1.13802
1.04774
0.995331
0.977639
0.987356
1.02371
1.05345
1.06065
1.06492
1.07278
1.07359
1.02187
0.106862
0.531614
0.833821
0.899113
0.946325
0.98308
1.03408
1.08929
1.12663
1.14698
1.16138
1.17357
1.17738
1.14723
1.05786
0.996245
0.972642
0.978107
1.00988
1.04484
1.05329
1.05688
1.06278
1.06279
1.01049
0.134737
0.48837
0.845713
0.876918
0.938494
0.97503
1.02281
1.08029
1.1215
1.14381
1.15903
1.17173
1.17782
1.15489
1.06981
0.999154
0.968499
0.969493
0.994335
1.03074
1.044
1.04767
1.04845
1.04375
0.986582
0.0279016
0.731915
0.861996
0.915238
0.947338
1.00105
1.07221
1.12303
1.14773
1.16138
1.17288
1.17964
1.16533
1.09201
1.02414
0.999031
1.00125
1.02851
1.06133
1.07339
1.07555
1.08229
1.09764
1.09425
1.0363
0.0252687
0.724495
0.860419
0.915465
0.947721
1.00145
1.07255
1.1233
1.14783
1.16121
1.17258
1.17928
1.16498
1.09166
1.0236
0.998217
0.999986
1.02638
1.05989
1.07238
1.07454
1.08115
1.09628
1.09281
1.03486
0.0276762
0.713351
0.858596
0.917039
0.947692
1.00061
1.07133
1.12259
1.14745
1.1608
1.17227
1.17919
1.16567
1.09352
1.02394
0.997063
0.997644
1.02216
1.05738
1.07132
1.07381
1.08044
1.09516
1.09186
1.03376
0.0353838
0.699097
0.856704
0.919202
0.946881
0.998465
1.06854
1.12053
1.14615
1.15972
1.17176
1.17939
1.16814
1.09933
1.02627
0.996894
0.995594
1.0179
1.05451
1.07009
1.07274
1.07905
1.09329
1.09037
1.03284
0.0385278
0.676092
0.852404
0.919626
0.947215
0.996685
1.0646
1.11667
1.14349
1.1579
1.17063
1.17896
1.17057
1.10683
1.02957
0.996451
0.992067
1.01171
1.04982
1.06789
1.07119
1.07716
1.09064
1.08836
1.03172
0.0505508
0.65114
0.848014
0.918441
0.947865
0.994982
1.05962
1.11178
1.14017
1.15553
1.1687
1.17798
1.1729
1.11684
1.0344
0.996064
0.987934
1.00448
1.0434
1.06488
1.0687
1.07416
1.08638
1.08518
1.03004
0.06542
0.618546
0.843093
0.914747
0.948369
0.992564
1.05308
1.1056
1.13622
1.15294
1.1664
1.17678
1.17475
1.12718
1.04005
0.995651
0.983107
0.996356
1.03478
1.06009
1.06545
1.07024
1.081
1.08116
1.0272
0.082308
0.576847
0.836757
0.907927
0.94813
0.988792
1.04468
1.0981
1.13162
1.15007
1.16393
1.17534
1.17614
1.13743
1.04724
0.995322
0.977888
0.987753
1.02413
1.05363
1.06068
1.06488
1.07273
1.07357
1.02187
0.106859
0.531557
0.833782
0.899112
0.946309
0.983066
1.03407
1.08928
1.1266
1.14695
1.16136
1.17356
1.17723
1.14669
1.05726
0.996166
0.972919
0.978547
1.01044
1.04515
1.05339
1.05689
1.06274
1.06276
1.01048
0.13476
0.488327
0.845731
0.876907
0.938469
0.975013
1.02279
1.08027
1.12147
1.14378
1.15902
1.17173
1.17773
1.15448
1.0692
0.999005
0.968723
0.969848
0.994839
1.03106
1.04413
1.0477
1.04844
1.04373
0.986571
0.0279359
0.731896
0.862009
0.915252
0.947336
1.00102
1.07217
1.12299
1.1477
1.16136
1.17285
1.1796
1.16522
1.09183
1.02407
0.999062
1.00134
1.02866
1.06144
1.07342
1.07556
1.08229
1.09766
1.09425
1.03631
0.0252339
0.724441
0.860415
0.915463
0.94771
1.00147
1.07261
1.12336
1.14789
1.1613
1.17263
1.17927
1.1647
1.091
1.02334
0.998233
1.0001
1.02663
1.06006
1.07245
1.07455
1.08115
1.09629
1.09282
1.03487
0.0276727
0.713316
0.858596
0.917042
0.947676
1.00062
1.07137
1.12265
1.14753
1.16091
1.17232
1.17916
1.16538
1.09289
1.02359
0.996903
0.997552
1.0222
1.05742
1.07133
1.07381
1.08044
1.09517
1.09187
1.03377
0.0354317
0.699099
0.856709
0.919207
0.946876
0.998457
1.06855
1.12056
1.14619
1.15979
1.1718
1.17938
1.16803
1.09904
1.02607
0.99677
0.995488
1.01783
1.05448
1.07008
1.07274
1.07907
1.09331
1.09038
1.03285
0.0385238
0.676051
0.852402
0.919623
0.947215
0.996679
1.06459
1.11666
1.1435
1.15792
1.17066
1.17898
1.17064
1.10699
1.02965
0.996477
0.992071
1.01165
1.04977
1.06787
1.07119
1.07718
1.09066
1.08837
1.03173
0.0505737
0.651113
0.848015
0.918435
0.947866
0.994977
1.0596
1.11177
1.14017
1.15552
1.16869
1.17799
1.17305
1.11733
1.0347
0.996145
0.987927
1.0044
1.04336
1.06489
1.06872
1.07419
1.0864
1.0852
1.03006
0.0654235
0.618499
0.843087
0.914736
0.948371
0.992559
1.05306
1.10559
1.13623
1.15294
1.16638
1.17678
1.17492
1.12787
1.04049
0.995721
0.982978
0.996094
1.03453
1.06001
1.06545
1.07027
1.08103
1.08117
1.02721
0.0823256
0.576802
0.836746
0.907911
0.948131
0.988789
1.04466
1.09809
1.13163
1.15008
1.16391
1.17534
1.17629
1.13806
1.04781
0.995366
0.977659
0.987375
1.02371
1.05343
1.06063
1.0649
1.07277
1.07359
1.02188
0.106877
0.531507
0.83377
0.899091
0.94631
0.98306
1.03406
1.08927
1.12661
1.14696
1.16136
1.17355
1.17735
1.14716
1.05779
0.996234
0.972673
0.97817
1.00997
1.04489
1.0533
1.05688
1.06277
1.06278
1.01049
0.134779
0.488285
0.845764
0.876876
0.938456
0.975009
1.02278
1.08027
1.12148
1.14379
1.15902
1.17173
1.17781
1.15478
1.06961
0.999079
0.968517
0.96955
0.994453
1.03084
1.04404
1.04769
1.04846
1.04374
0.986585
0.0279331
0.731872
0.861995
0.915246
0.947332
1.00102
1.07218
1.123
1.1477
1.16137
1.17286
1.17961
1.16522
1.09181
1.02406
0.999061
1.00134
1.02867
1.06144
1.07342
1.07555
1.08228
1.09765
1.09425
1.0363
0.0252365
0.72442
0.860402
0.915459
0.947707
1.00147
1.07261
1.12336
1.1479
1.16131
1.17264
1.17928
1.16472
1.09102
1.02334
0.998227
1.0001
1.02663
1.06006
1.07244
1.07454
1.08114
1.09629
1.09281
1.03486
0.0276709
0.713291
0.858581
0.917038
0.947674
1.00062
1.07137
1.12265
1.14753
1.16091
1.17233
1.17918
1.1654
1.09292
1.02363
0.996951
0.997609
1.02226
1.05745
1.07134
1.0738
1.08043
1.09517
1.09186
1.03376
0.0354323
0.699075
0.856694
0.919203
0.946874
0.998458
1.06855
1.12056
1.1462
1.15979
1.1718
1.17939
1.16808
1.09916
1.02616
0.996823
0.995537
1.01786
1.05449
1.07008
1.07273
1.07906
1.0933
1.09037
1.03284
0.038525
0.676025
0.852386
0.919619
0.947213
0.99668
1.06459
1.11666
1.1435
1.15792
1.17065
1.17898
1.17066
1.10707
1.02969
0.996448
0.992019
1.0116
1.04975
1.06786
1.07119
1.07717
1.09065
1.08836
1.03173
0.0505762
0.651085
0.847999
0.91843
0.947863
0.994978
1.0596
1.11178
1.14017
1.15552
1.16869
1.17799
1.17302
1.11721
1.03462
0.996091
0.98788
1.00435
1.04329
1.06484
1.0687
1.07417
1.08639
1.08519
1.03005
0.0654291
0.618469
0.843071
0.91473
0.948368
0.992558
1.05307
1.1056
1.13623
1.15295
1.1664
1.1768
1.17487
1.1276
1.04031
0.995694
0.983034
0.996205
1.03463
1.06003
1.06545
1.07026
1.08102
1.08117
1.02721
0.0823334
0.576768
0.83673
0.907905
0.948127
0.988786
1.04466
1.0981
1.13164
1.15009
1.16394
1.17536
1.17625
1.13781
1.04757
0.995364
0.977782
0.987573
1.02394
1.05355
1.06066
1.0649
1.07275
1.07358
1.02188
0.106888
0.531474
0.833759
0.899083
0.946305
0.983056
1.03406
1.08927
1.12662
1.14697
1.16138
1.17358
1.17733
1.14699
1.05759
0.996223
0.97279
0.978344
1.0102
1.04504
1.05337
1.05689
1.06276
1.06278
1.01049
0.134797
0.488263
0.845784
0.876862
0.938446
0.975003
1.02277
1.08027
1.12148
1.1438
1.15903
1.17174
1.1778
1.15471
1.06951
0.999071
0.968583
0.969638
0.994568
1.03092
1.04407
1.0477
1.04845
1.04374
0.98658
0.0279512
0.731816
0.862003
0.915257
0.947336
1.00102
1.07217
1.12299
1.14769
1.16135
1.17285
1.17961
1.16523
1.09184
1.02408
0.999067
1.00134
1.02865
1.06143
1.07341
1.07555
1.08229
1.09765
1.09425
1.0363
0.0252507
0.724362
0.860407
0.91547
0.947708
1.00147
1.0726
1.12335
1.14788
1.16129
1.17263
1.17928
1.16472
1.09104
1.02335
0.998231
1.0001
1.0266
1.06005
1.07243
1.07454
1.08115
1.09629
1.09282
1.03487
0.0276799
0.71323
0.858583
0.917052
0.947672
1.00062
1.07137
1.12264
1.14752
1.1609
1.17232
1.17917
1.1654
1.09292
1.02363
0.996962
0.997613
1.02225
1.05745
1.07134
1.07381
1.08044
1.09517
1.09187
1.03377
0.0354666
0.699035
0.8567
0.919214
0.946875
0.998456
1.06854
1.12055
1.14618
1.15977
1.1718
1.1794
1.16806
1.09906
1.02609
0.996784
0.995495
1.01783
1.05448
1.07007
1.07273
1.07906
1.0933
1.09037
1.03285
0.0385377
0.675969
0.852389
0.919622
0.947217
0.996677
1.06458
1.11664
1.14348
1.15791
1.17064
1.17897
1.17068
1.10723
1.0298
0.996509
0.992055
1.0116
1.04975
1.06786
1.07119
1.07718
1.09065
1.08836
1.03173
0.050612
0.651043
0.848006
0.918428
0.947867
0.994978
1.05959
1.11176
1.14015
1.15551
1.16868
1.17797
1.173
1.11721
1.03464
0.99611
0.987892
1.00436
1.04328
1.06483
1.0687
1.07418
1.08639
1.08518
1.03005
0.0654475
0.618411
0.843076
0.91472
0.948373
0.992559
1.05305
1.10558
1.13622
1.15293
1.16639
1.1768
1.17485
1.12746
1.04019
0.995631
0.982993
0.996182
1.03463
1.06003
1.06544
1.07026
1.08101
1.08116
1.02721
0.0823648
0.576712
0.836732
0.907891
0.948133
0.988785
1.04465
1.09808
1.13163
1.15008
1.16393
1.17537
1.17626
1.13777
1.0475
0.995314
0.977747
0.987546
1.02393
1.05354
1.06066
1.0649
1.07274
1.07357
1.02188
0.106917
0.531416
0.833762
0.899063
0.946312
0.983054
1.03404
1.08926
1.12661
1.14696
1.16137
1.17358
1.17734
1.14703
1.05762
0.996224
0.972783
0.978331
1.01018
1.04502
1.05336
1.05689
1.06275
1.06277
1.01049
0.134835
0.488229
0.845835
0.876832
0.938439
0.975002
1.02276
1.08025
1.12148
1.1438
1.15903
1.17174
1.1778
1.15478
1.06965
0.999138
0.968607
0.969646
0.994551
1.0309
1.04407
1.04769
1.04845
1.04373
0.986583
0.0279455
0.731823
0.861996
0.915252
0.947334
1.00102
1.07217
1.12299
1.14769
1.16136
1.17286
1.17961
1.16521
1.0918
1.02406
0.999063
1.00135
1.02867
1.06144
1.07342
1.07555
1.08229
1.09765
1.09425
1.0363
0.0252471
0.724369
0.8604
0.915465
0.947707
1.00147
1.0726
1.12335
1.14789
1.1613
1.17263
1.17928
1.16471
1.09101
1.02334
0.998229
1.0001
1.02663
1.06006
1.07244
1.07454
1.08115
1.09629
1.09282
1.03487
0.0276789
0.713239
0.858577
0.917047
0.947671
1.00061
1.07137
1.12264
1.14752
1.1609
1.17232
1.17917
1.1654
1.09291
1.02363
0.996959
0.997616
1.02226
1.05746
1.07134
1.07381
1.08044
1.09517
1.09187
1.03377
0.0354556
0.699037
0.856692
0.919209
0.946873
0.998455
1.06854
1.12056
1.14619
1.15978
1.1718
1.1794
1.16806
1.09906
1.02609
0.996784
0.995502
1.01784
1.05449
1.07008
1.07273
1.07906
1.0933
1.09037
1.03284
0.0385356
0.675977
0.852383
0.91962
0.947214
0.996676
1.06459
1.11665
1.14348
1.15791
1.17064
1.17897
1.17068
1.10722
1.02979
0.996507
0.99206
1.01161
1.04976
1.06786
1.07119
1.07718
1.09066
1.08836
1.03173
0.0506016
0.651046
0.847998
0.918427
0.947865
0.994976
1.0596
1.11176
1.14016
1.15551
1.16868
1.17797
1.173
1.1172
1.03463
0.996107
0.987893
1.00436
1.0433
1.06484
1.0687
1.07418
1.0864
1.08519
1.03005
0.0654432
0.618419
0.843069
0.914721
0.94837
0.992557
1.05305
1.10559
1.13622
1.15294
1.1664
1.1768
1.17484
1.12745
1.04019
0.995628
0.982993
0.996184
1.03464
1.06004
1.06545
1.07026
1.08102
1.08117
1.02721
0.0823562
0.576719
0.836725
0.907893
0.94813
0.988784
1.04465
1.09809
1.13163
1.15008
1.16394
1.17537
1.17626
1.13776
1.04749
0.995312
0.977748
0.98755
1.02394
1.05355
1.06067
1.0649
1.07275
1.07358
1.02188
0.106909
0.531424
0.833755
0.899066
0.946309
0.983053
1.03404
1.08926
1.12661
1.14696
1.16138
1.17358
1.17734
1.14702
1.0576
0.99622
0.972784
0.978335
1.01019
1.04503
1.05337
1.0569
1.06276
1.06278
1.01049
0.134825
0.488232
0.845822
0.876836
0.938438
0.975
1.02277
1.08025
1.12148
1.1438
1.15903
1.17174
1.1778
1.15477
1.06963
0.999132
0.968606
0.969648
0.994557
1.03091
1.04407
1.0477
1.04845
1.04374
0.986582
0.027933
0.731872
0.861995
0.915246
0.947332
1.00102
1.07218
1.123
1.1477
1.16137
1.17286
1.17961
1.16522
1.09181
1.02406
0.999061
1.00134
1.02867
1.06144
1.07342
1.07555
1.08228
1.09765
1.09425
1.0363
0.0252365
0.72442
0.860402
0.915459
0.947707
1.00147
1.07261
1.12336
1.1479
1.16131
1.17264
1.17928
1.16472
1.09102
1.02334
0.998227
1.0001
1.02663
1.06006
1.07244
1.07454
1.08114
1.09629
1.09281
1.03486
0.0276708
0.713291
0.858581
0.917038
0.947674
1.00062
1.07137
1.12265
1.14753
1.16091
1.17233
1.17918
1.1654
1.09292
1.02363
0.996951
0.997609
1.02226
1.05745
1.07134
1.0738
1.08043
1.09517
1.09186
1.03376
0.0354322
0.699075
0.856694
0.919203
0.946874
0.998458
1.06855
1.12056
1.1462
1.15979
1.1718
1.17939
1.16808
1.09916
1.02616
0.996823
0.995537
1.01786
1.05449
1.07008
1.07273
1.07906
1.0933
1.09037
1.03284
0.038525
0.676025
0.852386
0.919619
0.947213
0.99668
1.06459
1.11666
1.1435
1.15792
1.17065
1.17898
1.17066
1.10707
1.02969
0.996448
0.992019
1.0116
1.04975
1.06786
1.07119
1.07717
1.09065
1.08836
1.03173
0.050576
0.651085
0.847999
0.91843
0.947863
0.994978
1.0596
1.11178
1.14017
1.15552
1.16869
1.17799
1.17302
1.11721
1.03462
0.996091
0.98788
1.00435
1.04329
1.06484
1.0687
1.07417
1.08639
1.08519
1.03005
0.0654291
0.618469
0.843071
0.91473
0.948368
0.992558
1.05307
1.1056
1.13623
1.15295
1.1664
1.1768
1.17487
1.1276
1.04031
0.995694
0.983034
0.996205
1.03463
1.06003
1.06545
1.07026
1.08102
1.08117
1.02721
0.0823333
0.576768
0.83673
0.907905
0.948127
0.988786
1.04466
1.0981
1.13164
1.15009
1.16394
1.17536
1.17625
1.13781
1.04757
0.995364
0.977782
0.987573
1.02394
1.05355
1.06066
1.0649
1.07275
1.07358
1.02188
0.106888
0.531474
0.833759
0.899083
0.946305
0.983056
1.03406
1.08927
1.12662
1.14697
1.16138
1.17358
1.17733
1.14699
1.05759
0.996223
0.97279
0.978344
1.0102
1.04504
1.05337
1.05689
1.06276
1.06278
1.01049
0.134797
0.488263
0.845784
0.876862
0.938446
0.975003
1.02277
1.08027
1.12148
1.1438
1.15903
1.17174
1.1778
1.15471
1.06951
0.999071
0.968583
0.969638
0.994568
1.03092
1.04407
1.0477
1.04845
1.04374
0.98658
0.0279359
0.731896
0.862009
0.915252
0.947336
1.00102
1.07217
1.12299
1.1477
1.16136
1.17285
1.1796
1.16522
1.09183
1.02407
0.999062
1.00134
1.02866
1.06144
1.07342
1.07556
1.08229
1.09766
1.09425
1.03631
0.0252339
0.724441
0.860415
0.915463
0.94771
1.00147
1.07261
1.12336
1.14789
1.1613
1.17263
1.17927
1.1647
1.091
1.02334
0.998233
1.0001
1.02663
1.06006
1.07245
1.07455
1.08115
1.09629
1.09282
1.03487
0.0276727
0.713316
0.858596
0.917042
0.947676
1.00062
1.07137
1.12265
1.14753
1.16091
1.17232
1.17916
1.16538
1.09289
1.02359
0.996903
0.997552
1.0222
1.05742
1.07133
1.07381
1.08044
1.09517
1.09187
1.03377
0.0354317
0.699099
0.856709
0.919207
0.946876
0.998457
1.06855
1.12056
1.14619
1.15979
1.1718
1.17938
1.16803
1.09904
1.02607
0.99677
0.995488
1.01783
1.05448
1.07008
1.07274
1.07907
1.0933
1.09038
1.03285
0.0385238
0.67605
0.852402
0.919623
0.947215
0.996679
1.06459
1.11666
1.1435
1.15792
1.17066
1.17898
1.17064
1.10699
1.02965
0.996477
0.992071
1.01165
1.04977
1.06787
1.07119
1.07718
1.09066
1.08837
1.03173
0.0505737
0.651113
0.848015
0.918435
0.947866
0.994977
1.0596
1.11177
1.14017
1.15552
1.16869
1.17799
1.17305
1.11733
1.0347
0.996145
0.987927
1.0044
1.04336
1.06489
1.06872
1.07419
1.0864
1.0852
1.03006
0.0654235
0.618499
0.843087
0.914736
0.948371
0.992559
1.05306
1.10559
1.13623
1.15294
1.16638
1.17678
1.17492
1.12787
1.04049
0.995721
0.982978
0.996094
1.03453
1.06001
1.06545
1.07027
1.08103
1.08117
1.02721
0.0823256
0.576801
0.836746
0.907911
0.948131
0.988789
1.04466
1.09809
1.13163
1.15008
1.16391
1.17534
1.17629
1.13806
1.04781
0.995366
0.977659
0.987375
1.02371
1.05343
1.06063
1.0649
1.07277
1.07359
1.02188
0.106877
0.531507
0.83377
0.899091
0.94631
0.98306
1.03406
1.08927
1.12661
1.14696
1.16136
1.17355
1.17735
1.14716
1.05779
0.996234
0.972674
0.97817
1.00997
1.04489
1.0533
1.05688
1.06277
1.06278
1.01049
0.134779
0.488285
0.845764
0.876876
0.938456
0.975008
1.02278
1.08027
1.12148
1.14379
1.15902
1.17173
1.17781
1.15478
1.06961
0.999079
0.968517
0.96955
0.994453
1.03084
1.04404
1.04769
1.04846
1.04374
0.986585
0.0279015
0.731915
0.861995
0.915238
0.947337
1.00105
1.07221
1.12303
1.14773
1.16137
1.17288
1.17963
1.16533
1.09201
1.02414
0.999031
1.00125
1.02851
1.06133
1.07339
1.07555
1.08229
1.09764
1.09425
1.0363
0.0252687
0.724495
0.860419
0.915464
0.947721
1.00145
1.07255
1.1233
1.14783
1.16121
1.17257
1.17928
1.16498
1.09166
1.0236
0.998217
0.999986
1.02638
1.05989
1.07238
1.07454
1.08115
1.09628
1.09281
1.03486
0.0276761
0.71335
0.858596
0.917039
0.947692
1.00061
1.07133
1.12259
1.14745
1.1608
1.17227
1.17919
1.16566
1.09352
1.02394
0.997063
0.997644
1.02216
1.05738
1.07132
1.07381
1.08044
1.09516
1.09186
1.03376
0.0353838
0.699097
0.856703
0.919202
0.946881
0.998465
1.06854
1.12053
1.14615
1.15972
1.17176
1.17939
1.16814
1.09933
1.02627
0.996894
0.995594
1.0179
1.05451
1.07009
1.07274
1.07905
1.09329
1.09037
1.03284
0.0385277
0.676092
0.852403
0.919626
0.947215
0.996685
1.0646
1.11667
1.1435
1.1579
1.17063
1.17896
1.17057
1.10683
1.02957
0.996451
0.992067
1.01171
1.04982
1.06789
1.07119
1.07716
1.09064
1.08836
1.03172
0.0505509
0.65114
0.848014
0.918441
0.947865
0.994982
1.05962
1.11178
1.14017
1.15553
1.1687
1.17798
1.1729
1.11684
1.0344
0.996064
0.987934
1.00448
1.0434
1.06488
1.0687
1.07416
1.08638
1.08518
1.03004
0.06542
0.618546
0.843093
0.914747
0.948369
0.992564
1.05308
1.1056
1.13622
1.15294
1.1664
1.17678
1.17475
1.12718
1.04005
0.995651
0.983107
0.996356
1.03478
1.06009
1.06545
1.07024
1.081
1.08116
1.0272
0.0823081
0.576847
0.836757
0.907927
0.948129
0.988792
1.04468
1.0981
1.13162
1.15007
1.16393
1.17534
1.17614
1.13743
1.04724
0.995322
0.977888
0.987753
1.02413
1.05363
1.06068
1.06488
1.07273
1.07357
1.02187
0.10686
0.531556
0.833781
0.899112
0.946309
0.983066
1.03407
1.08928
1.1266
1.14695
1.16136
1.17356
1.17723
1.14669
1.05726
0.996166
0.972919
0.978547
1.01044
1.04515
1.05339
1.05689
1.06274
1.06276
1.01048
0.13476
0.488326
0.845732
0.876907
0.938469
0.975013
1.02279
1.08027
1.12147
1.14378
1.15902
1.17172
1.17773
1.15448
1.0692
0.999005
0.968723
0.969848
0.994839
1.03106
1.04413
1.0477
1.04844
1.04373
0.986571
0.0279272
0.731989
0.862024
0.915249
0.947342
1.00105
1.07221
1.12303
1.14774
1.16141
1.17289
1.17961
1.16517
1.09166
1.02393
0.998944
1.00122
1.02859
1.0614
1.07342
1.07558
1.08232
1.09773
1.09434
1.03621
0.0252085
0.724526
0.860429
0.915456
0.947716
1.0015
1.07265
1.12341
1.14794
1.16135
1.17267
1.17929
1.16472
1.09099
1.02328
0.99814
0.999987
1.02652
1.06
1.07243
1.07457
1.08118
1.09636
1.0929
1.03478
0.0276641
0.713414
0.858617
0.917035
0.947685
1.00064
1.07141
1.12269
1.14757
1.16092
1.17235
1.17919
1.16553
1.09317
1.02374
0.996961
0.997562
1.02212
1.05736
1.07132
1.07383
1.08047
1.09525
1.09196
1.03369
0.0354278
0.699195
0.856739
0.919207
0.946884
0.998472
1.06856
1.12059
1.14622
1.15976
1.17179
1.17941
1.16836
1.09987
1.02643
0.996759
0.995358
1.01758
1.05434
1.07004
1.07275
1.0791
1.09337
1.09046
1.03277
0.0384932
0.676139
0.852432
0.919628
0.947223
0.996691
1.06461
1.11668
1.1435
1.15789
1.17061
1.17895
1.17083
1.10773
1.02998
0.996403
0.991832
1.01122
1.04946
1.06775
1.07117
1.0772
1.09072
1.08844
1.03166
0.0505516
0.651222
0.84805
0.918448
0.94787
0.994994
1.05964
1.11181
1.14019
1.15552
1.16866
1.17797
1.173
1.11719
1.03459
0.996063
0.987852
1.00431
1.04324
1.06482
1.06871
1.0742
1.08644
1.08525
1.03
0.0653912
0.618619
0.843127
0.914756
0.948374
0.992576
1.0531
1.10564
1.13627
1.15297
1.16642
1.17681
1.1748
1.12716
1.04002
0.99567
0.983144
0.996382
1.0348
1.06012
1.06549
1.07028
1.08105
1.08122
1.02717
0.0822973
0.576944
0.8368
0.90794
0.948131
0.988803
1.0447
1.09814
1.13168
1.15011
1.16398
1.1754
1.17621
1.13747
1.04726
0.995373
0.977954
0.987819
1.02421
1.0537
1.06073
1.06493
1.07276
1.07362
1.02184
0.106839
0.531656
0.833818
0.899131
0.946316
0.983082
1.0341
1.08931
1.12665
1.147
1.16141
1.1736
1.1773
1.14687
1.05747
0.996274
0.972955
0.978543
1.01041
1.04517
1.05344
1.05691
1.06277
1.06281
1.01046
0.134714
0.4884
0.845678
0.876944
0.938499
0.97503
1.02282
1.0803
1.12151
1.14382
1.15905
1.17174
1.17777
1.15472
1.06962
0.999179
0.968689
0.969731
0.994637
1.03097
1.04412
1.0477
1.04845
1.04375
0.986563
0.183267
0.458679
0.88821
0.881411
0.926301
0.969956
1.01507
1.07196
1.1157
1.14028
1.15656
1.16971
1.17726
1.16167
1.08424
1.00392
0.965461
0.961539
0.980061
1.01831
1.03467
1.03631
1.0304
1.01838
0.912644
0.219549
0.42887
0.908062
0.891335
0.926832
0.96787
1.0097
1.0655
1.11101
1.13784
1.15468
1.16778
1.17581
1.16622
1.09961
1.0108
0.963242
0.951387
0.963132
0.997268
1.01911
1.02085
1.01061
0.992908
0.909578
0.249861
0.423224
0.892023
0.893021
0.92655
0.96879
1.00359
1.0578
1.10531
1.13424
1.15216
1.16522
1.17354
1.16931
1.11629
1.0194
0.963142
0.943231
0.949591
0.97875
1.00253
1.00689
0.995553
0.977386
0.915746
0.292517
0.437645
0.855778
0.894724
0.926487
0.968957
0.998508
1.04954
1.09813
1.12987
1.14933
1.16233
1.17049
1.16987
1.13165
1.03333
0.965678
0.936845
0.93725
0.957944
0.984185
0.992404
0.983461
0.966041
0.927906
0.298431
0.432666
0.812252
0.893518
0.937413
0.964474
0.990925
1.03786
1.08764
1.12359
1.14555
1.15895
1.16675
1.16815
1.14232
1.05223
0.971836
0.933219
0.926516
0.9386
0.965697
0.97786
0.974596
0.958165
0.926536
0.30831
0.428966
0.765243
0.892882
0.94562
0.958756
0.979554
1.02242
1.07409
1.11464
1.1396
1.15452
1.1626
1.16483
1.14995
1.07479
0.983196
0.93241
0.916517
0.922021
0.944841
0.960858
0.961507
0.95192
0.924114
0.322743
0.4259
0.712194
0.894031
0.947151
0.950492
0.965955
1.00822
1.0635
1.10783
1.13518
1.15076
1.15931
1.16172
1.15468
1.09915
0.999261
0.935728
0.908305
0.907291
0.9218
0.944402
0.95044
0.946024
0.925248
0.340046
0.421347
0.650222
0.899398
0.940872
0.939026
0.959828
1.00219
1.05236
1.09664
1.12683
1.14446
1.15452
1.1585
1.15573
1.11951
1.02222
0.944452
0.904172
0.894171
0.901183
0.923189
0.93463
0.934366
0.925832
0.352892
0.410636
0.587954
0.891929
0.913348
0.927272
0.966954
0.99964
1.04084
1.08411
1.11684
1.13692
1.14871
1.15492
1.15463
1.13286
1.04837
0.958064
0.90472
0.884335
0.884848
0.900701
0.92014
0.925094
0.922686
0.358298
0.406607
0.551017
0.86234
0.904354
0.930237
0.982145
1.00272
1.02945
1.06948
1.10604
1.12987
1.14348
1.15119
1.153
1.14159
1.07792
0.9779
0.910543
0.878168
0.87154
0.878134
0.900226
0.912935
0.914602
0.364389
0.404391
0.522405
0.808924
0.897638
0.945282
0.985024
1.00139
1.01759
1.05318
1.09263
1.11997
1.13575
1.14573
1.15032
1.14609
1.10532
1.00447
0.922644
0.876604
0.860021
0.860681
0.876442
0.896763
0.903033
0.371987
0.403679
0.49679
0.733914
0.886792
0.95732
0.979575
0.990515
1.00356
1.03558
1.07663
1.10869
1.12832
1.1403
1.14798
1.14794
1.1246
1.03752
0.941636
0.88119
0.852379
0.846665
0.852244
0.874305
0.891107
0.382728
0.40524
0.471334
0.643473
0.876379
0.954089
0.958115
0.96961
0.991502
1.02247
1.05959
1.09444
1.11987
1.13604
1.14581
1.1481
1.13676
1.0748
0.967822
0.892259
0.850975
0.834712
0.834122
0.844828
0.868944
0.392868
0.404357
0.447785
0.581011
0.859978
0.925749
0.927992
0.959463
0.98934
1.01337
1.04577
1.08015
1.11033
1.13089
1.14232
1.14698
1.14285
1.10332
1.00271
0.912051
0.856038
0.82915
0.821731
0.824962
0.842432
0.38618
0.389944
0.424119
0.533892
0.815588
0.893037
0.922333
0.962905
0.990669
1.00621
1.02838
1.06577
1.10008
1.12369
1.13757
1.14418
1.14362
1.12323
1.03987
0.940015
0.868805
0.829845
0.813303
0.811254
0.817821
0.372911
0.374407
0.399775
0.486926
0.713003
0.871278
0.934625
0.967658
0.985403
0.992731
1.01267
1.04991
1.08755
1.11562
1.13212
1.14012
1.14229
1.13361
1.07774
0.970397
0.889695
0.836208
0.809036
0.799984
0.80033
0.362502
0.361064
0.377199
0.43439
0.590593
0.840013
0.933609
0.952108
0.960271
0.978493
1.00086
1.0341
1.0716
1.10345
1.12504
1.13632
1.13974
1.1375
1.1084
1.00991
0.913356
0.849433
0.810999
0.792945
0.788577
0.356305
0.350592
0.362041
0.403319
0.527975
0.803642
0.908282
0.91988
0.944942
0.975074
0.995677
1.0197
1.05357
1.08894
1.11442
1.12942
1.13621
1.13685
1.12549
1.05873
0.944953
0.866863
0.818245
0.790844
0.780486
0.350814
0.341878
0.349937
0.379435
0.473572
0.711957
0.881004
0.919233
0.946756
0.968153
0.981179
1.00345
1.03541
1.06954
1.10018
1.12047
1.13122
1.13475
1.1322
1.10004
0.992649
0.892716
0.831451
0.794913
0.775053
0.346539
0.334514
0.33958
0.357913
0.41509
0.573004
0.833623
0.915585
0.931306
0.946843
0.965853
0.989647
1.01875
1.05363
1.08463
1.10942
1.1251
1.1319
1.13272
1.12115
1.05543
0.932634
0.852258
0.804202
0.776643
0.343321
0.329324
0.332732
0.345288
0.38381
0.501054
0.758185
0.891404
0.912487
0.937479
0.959651
0.972485
0.996269
1.02909
1.06784
1.09722
1.11604
1.1271
1.13125
1.12897
1.10092
1.00022
0.888086
0.821777
0.783489
0.340764
0.325127
0.32735
0.335567
0.360384
0.437746
0.636648
0.869657
0.911882
0.924574
0.940849
0.958022
0.975446
1.01082
1.04486
1.07994
1.10613
1.1209
1.12834
1.12996
1.12024
1.06773
0.948395
0.854094
0.799161
0.338955
0.322151
0.323583
0.328877
0.344446
0.389828
0.52687
0.784631
0.889884
0.905226
0.927011
0.950622
0.962698
0.980731
1.02122
1.0589
1.08936
1.11162
1.12379
1.12886
1.12715
1.10553
1.02115
0.910618
0.830785
0.337631
0.319975
0.32091
0.324384
0.334442
0.36327
0.453126
0.667059
0.868845
0.904895
0.916112
0.931278
0.94845
0.965255
0.990822
1.03403
1.0709
1.09735
1.11553
1.12581
1.12783
1.12072
1.08134
0.976711
0.881926
0.336768
0.318472
0.31905
0.321258
0.327468
0.34462
0.393897
0.537524
0.790656
0.884505
0.899321
0.915408
0.939744
0.953237
0.967698
0.999343
1.04472
1.08049
1.10418
1.1197
1.12626
1.12484
1.11069
1.0496
0.940304
0.336171
0.317404
0.317809
0.319292
0.323336
0.334143
0.364425
0.458671
0.67387
0.862182
0.897121
0.905852
0.920257
0.939986
0.956938
0.973766
1.00833
1.05251
1.08771
1.11049
1.12253
1.1241
1.12029
1.09538
1.01189
0.33579
0.316777
0.317177
0.318181
0.320665
0.327
0.344239
0.393884
0.538665
0.78951
0.87382
0.893117
0.906173
0.928719
0.941972
0.958487
0.977665
1.01592
1.05978
1.09384
1.1147
1.12178
1.12136
1.11321
1.07475
0.336065
0.316769
0.316988
0.31758
0.319156
0.32314
0.333561
0.362829
0.454562
0.662537
0.855345
0.887615
0.896104
0.908319
0.931331
0.946002
0.960285
0.980642
1.02209
1.06637
1.09948
1.11604
1.11927
1.11691
1.10286
0.336566
0.316912
0.316943
0.317294
0.318211
0.320553
0.326557
0.342834
0.389367
0.528538
0.769822
0.857994
0.885621
0.8967
0.914852
0.931177
0.947244
0.961608
0.983384
1.02823
1.07339
1.10316
1.11405
1.11471
1.11033
0.336795
0.317105
0.316856
0.317051
0.317588
0.318964
0.322476
0.331745
0.357778
0.439294
0.632747
0.843899
0.872922
0.886195
0.89657
0.918496
0.932511
0.947337
0.961458
0.985268
1.034
1.08019
1.10335
1.11006
1.10912
0.336931
0.31723
0.316792
0.316899
0.317207
0.318005
0.320039
0.32526
0.33945
0.379961
0.508298
0.732689
0.842191
0.876959
0.886494
0.899546
0.920376
0.93407
0.947311
0.961067
0.989003
1.03943
1.08118
1.10046
1.10501
0.337005
0.317296
0.316742
0.316795
0.316964
0.317409
0.318542
0.321426
0.328972
0.350093
0.414863
0.585915
0.817593
0.853579
0.87577
0.884549
0.902165
0.920411
0.934863
0.94573
0.960854
0.995078
1.04518
1.07924
1.09582
0.337031
0.31732
0.3167
0.316725
0.316817
0.317063
0.31769
0.319289
0.323406
0.334547
0.366648
0.471069
0.677882
0.832368
0.862963
0.87439
0.88481
0.905099
0.919892
0.933744
0.944097
0.961544
1.00226
1.04939
1.08182
0.337021
0.317326
0.31667
0.316682
0.316728
0.316855
0.317191
0.318052
0.320259
0.325966
0.341769
0.387811
0.529947
0.75478
0.832658
0.863984
0.871723
0.88549
0.908985
0.921104
0.931242
0.942123
0.966919
1.01833
1.06733
0.337005
0.317335
0.316643
0.316646
0.316668
0.316738
0.316917
0.317368
0.318515
0.32147
0.329319
0.351668
0.42238
0.596247
0.811408
0.841344
0.861863
0.870539
0.886491
0.909137
0.923089
0.936628
0.95835
1.00071
1.07483
0.337002
0.317331
0.316628
0.316628
0.316638
0.316671
0.31676
0.316991
0.317582
0.319103
0.323057
0.33391
0.365507
0.471713
0.664736
0.818495
0.847701
0.858595
0.871948
0.894405
0.91658
0.945099
0.980674
1.03971
1.13947
0.337001
0.317325
0.316627
0.316615
0.316619
0.316635
0.31668
0.316795
0.317091
0.31785
0.319816
0.32496
0.339402
0.381864
0.51706
0.72037
0.819574
0.84981
0.862235
0.883978
0.929818
0.983782
1.06274
1.16238
1.27043
0.337001
0.317323
0.316627
0.316608
0.31661
0.316618
0.316639
0.316694
0.316837
0.317206
0.318152
0.320615
0.327168
0.345975
0.404794
0.563114
0.774852
0.828923
0.862339
0.905123
0.981641
1.08473
1.21984
1.34101
1.36335
0.337002
0.317321
0.316627
0.316605
0.316606
0.31661
0.31662
0.316646
0.316714
0.31689
0.317346
0.318528
0.321631
0.330101
0.354933
0.437295
0.615737
0.81411
0.875438
0.997417
1.13297
1.24565
1.34717
1.32145
1.30442
0.337002
0.317321
0.316627
0.316604
0.316604
0.316606
0.316611
0.316625
0.316662
0.316758
0.317007
0.317653
0.319347
0.323855
0.336643
0.375423
0.509577
0.717197
0.953151
1.12671
1.28631
1.28818
1.25876
1.19827
1.19176