/*--------------------------------*- C++ -*----------------------------------*\
| =========                 |                                                 |
| \\      /  F ield         | OpenFOAM: The Open Source CFD Toolbox           |
|  \\    /   O peration     | Version:  4.1                                   |
|   \\  /    A nd           | Web:      www.OpenFOAM.org                      |
|    \\/     M anipulation  |                                                 |
\*---------------------------------------------------------------------------*/
FoamFile
{
    version     2.0;
    format      ascii;
    class       volVectorField;
    location    "0.92";
    object      U;
}
// * * * * * * * * * * * * * * * * * * * * * * * * * * * * * * * * * * * * * //

dimensions      [0 1 -1 0 0 0 0];

internalField   nonuniform List<vector> 
52500
(
(2.19266 0.000621531 -0.000186803)
(1.39261 0.00219206 -0.00458646)
(0.522894 0.00849232 -0.00588409)
(0.393339 0.00853964 -0.00628719)
(0.429813 0.00885447 -0.00651081)
(0.489585 0.00952882 -0.00686446)
(0.522956 0.00994966 -0.00733783)
(0.532677 0.0102903 -0.00767717)
(0.531241 0.0106558 -0.00784419)
(0.529123 0.0110796 -0.00793858)
(0.524848 0.0115648 -0.00801796)
(0.516518 0.0121771 -0.00806573)
(0.505175 0.0128818 -0.00796461)
(0.49752 0.013372 -0.00746326)
(0.49357 0.0136443 -0.00700728)
(0.489156 0.0139093 -0.00684209)
(0.486372 0.014237 -0.00686611)
(0.473545 0.0148303 -0.00706746)
(0.441202 0.0156586 -0.00731327)
(0.397479 0.0168276 -0.00742151)
(0.342567 0.0180842 -0.0074721)
(0.265862 0.0194511 -0.007567)
(0.171887 0.020719 -0.00772969)
(0.079205 0.0221761 -0.00774962)
(0.0231051 0.0232779 -0.00737668)
(2.19537 -0.00100035 -0.000168891)
(1.40133 0.00275603 -0.00453545)
(0.530768 0.0245959 -0.00586008)
(0.393506 0.0244366 -0.00627819)
(0.429319 0.0247002 -0.0065032)
(0.489107 0.0258185 -0.00685668)
(0.522181 0.026251 -0.00732911)
(0.531812 0.0263322 -0.00766733)
(0.530392 0.0264543 -0.00783268)
(0.528321 0.0267566 -0.00792492)
(0.524196 0.0272662 -0.00800252)
(0.516178 0.0281331 -0.00804862)
(0.505096 0.0294583 -0.00794467)
(0.497668 0.0301795 -0.00744076)
(0.494134 0.0305668 -0.00698672)
(0.490165 0.0312699 -0.00682154)
(0.487758 0.0321093 -0.00684296)
(0.475266 0.0335168 -0.00703703)
(0.443247 0.035338 -0.00728521)
(0.39967 0.0377062 -0.00739431)
(0.344624 0.040121 -0.00744318)
(0.267586 0.0427734 -0.00753548)
(0.173139 0.0451962 -0.00769464)
(0.079722 0.0475217 -0.007713)
(0.0228555 0.0481345 -0.00734124)
(2.19219 -0.0051937 -0.000184963)
(1.41321 -8.46265e-05 -0.00446574)
(0.539969 0.0421309 -0.00583237)
(0.389754 0.0417314 -0.00627944)
(0.427095 0.0417141 -0.00649337)
(0.488255 0.0431917 -0.00684052)
(0.521711 0.0441953 -0.00730919)
(0.53193 0.044746 -0.00764974)
(0.531206 0.0453843 -0.00781635)
(0.529734 0.0463059 -0.00790743)
(0.526261 0.0474855 -0.00798465)
(0.519156 0.0491394 -0.0080309)
(0.508433 0.0517167 -0.00793111)
(0.500683 0.0530658 -0.0074353)
(0.497149 0.0536747 -0.00697166)
(0.493181 0.0549433 -0.00679691)
(0.490748 0.0564809 -0.00681066)
(0.478614 0.0588109 -0.0069902)
(0.447194 0.0622559 -0.00724792)
(0.404027 0.0664548 -0.00736502)
(0.349098 0.0708081 -0.00741453)
(0.271999 0.075675 -0.00750514)
(0.177077 0.0805633 -0.00765893)
(0.0825155 0.084841 -0.00767741)
(0.0237355 0.0853365 -0.00730697)
(2.18307 -0.00624766 -0.000236562)
(1.42882 0.00161119 -0.00438015)
(0.552226 0.0634519 -0.00580043)
(0.38232 0.0592123 -0.00628591)
(0.423029 0.0571515 -0.00647994)
(0.486932 0.0587117 -0.00681662)
(0.521335 0.0605199 -0.00727928)
(0.532345 0.0616567 -0.00762331)
(0.532544 0.0628125 -0.0077934)
(0.531906 0.0642706 -0.00788464)
(0.529413 0.0659828 -0.00796476)
(0.523902 0.0682986 -0.00801445)
(0.513941 0.071925 -0.0079302)
(0.505587 0.0738199 -0.00745695)
(0.50192 0.0745832 -0.00697004)
(0.497978 0.0763211 -0.00677861)
(0.495377 0.0786508 -0.00677923)
(0.483841 0.0817814 -0.0069409)
(0.453484 0.0870947 -0.00720645)
(0.410915 0.0933995 -0.00733295)
(0.356311 0.100085 -0.00738177)
(0.279445 0.107682 -0.0074682)
(0.183971 0.115954 -0.00761527)
(0.0874774 0.123071 -0.00763508)
(0.0253537 0.123783 -0.00727164)
(2.17853 -0.00813029 -0.000257129)
(1.45689 0.00264176 -0.00423216)
(0.575069 0.0873207 -0.00574388)
(0.374542 0.0764363 -0.00627917)
(0.419893 0.071131 -0.00647397)
(0.487627 0.0726003 -0.00679535)
(0.522667 0.075531 -0.00724169)
(0.533887 0.0776813 -0.00758441)
(0.534815 0.0797564 -0.00776095)
(0.53502 0.0820735 -0.00785629)
(0.533674 0.0846376 -0.0079398)
(0.530094 0.087872 -0.00799276)
(0.521019 0.0923222 -0.00792921)
(0.51185 0.0946037 -0.00749315)
(0.507972 0.0956891 -0.00697696)
(0.504119 0.0978967 -0.00675988)
(0.50118 0.100906 -0.0067386)
(0.490385 0.104789 -0.00688053)
(0.461574 0.111892 -0.00715288)
(0.419859 0.120369 -0.00729338)
(0.365933 0.129611 -0.00734403)
(0.289945 0.140311 -0.00742508)
(0.194212 0.152781 -0.00756308)
(0.0949258 0.163945 -0.00758544)
(0.0279322 0.165536 -0.00723165)
(2.16425 -0.0117996 -0.000336994)
(1.48866 0.00213007 -0.00407912)
(0.600181 0.114576 -0.0056799)
(0.361874 0.0940297 -0.00626221)
(0.41629 0.0841313 -0.00647083)
(0.489787 0.0852606 -0.00677476)
(0.525729 0.0895583 -0.00719704)
(0.536843 0.0931688 -0.00753862)
(0.53826 0.0965192 -0.00772378)
(0.539214 0.0998931 -0.0078236)
(0.539061 0.10346 -0.00790855)
(0.53744 0.107708 -0.00796634)
(0.529213 0.112731 -0.0079259)
(0.519356 0.115335 -0.00754201)
(0.515359 0.116845 -0.00699231)
(0.51146 0.119529 -0.00674047)
(0.508032 0.123121 -0.00669255)
(0.498219 0.127707 -0.00681307)
(0.471489 0.13665 -0.00708767)
(0.431096 0.147551 -0.00724756)
(0.378373 0.159834 -0.00729825)
(0.304081 0.174346 -0.00737162)
(0.208775 0.192083 -0.00749596)
(0.105898 0.209229 -0.00752299)
(0.0320275 0.213222 -0.00718297)
(2.1467 -0.0131811 -0.000435167)
(1.53124 0.00573995 -0.00387786)
(0.632933 0.146383 -0.00560212)
(0.346823 0.112646 -0.0062277)
(0.414006 0.0959509 -0.00646642)
(0.494734 0.0967891 -0.00674887)
(0.531267 0.10301 -0.00714117)
(0.541576 0.108596 -0.00748327)
(0.542994 0.113505 -0.00768166)
(0.544473 0.118035 -0.00778878)
(0.545521 0.122617 -0.00787423)
(0.545766 0.127793 -0.00793787)
(0.53832 0.133155 -0.00791924)
(0.527925 0.136198 -0.00759277)
(0.523901 0.137907 -0.00701285)
(0.519953 0.140989 -0.00672066)
(0.515888 0.14509 -0.00664037)
(0.507274 0.150262 -0.00673709)
(0.483278 0.161095 -0.00700517)
(0.44482 0.174756 -0.00718769)
(0.39409 0.190564 -0.0072454)
(0.322666 0.209735 -0.00730883)
(0.229075 0.234294 -0.00741674)
(0.122296 0.260275 -0.00744816)
(0.0391068 0.269893 -0.00711879)
(2.12663 -0.0153448 -0.000546311)
(1.58741 0.00713078 -0.00361954)
(0.677511 0.174653 -0.00550264)
(0.333779 0.130592 -0.00617)
(0.415649 0.10663 -0.00645439)
(0.504257 0.10764 -0.00671144)
(0.540271 0.116539 -0.00707093)
(0.548455 0.124561 -0.00741752)
(0.549037 0.131159 -0.0076339)
(0.550695 0.136878 -0.00775112)
(0.552843 0.142371 -0.00783788)
(0.554711 0.148199 -0.00790725)
(0.548169 0.153527 -0.0079093)
(0.537466 0.1573 -0.00764239)
(0.533466 0.158977 -0.00704389)
(0.529554 0.161991 -0.00670164)
(0.524731 0.166513 -0.00658545)
(0.517592 0.172221 -0.00665769)
(0.497097 0.184826 -0.00690781)
(0.461346 0.20166 -0.00711482)
(0.413613 0.221537 -0.00717997)
(0.346797 0.246154 -0.00723254)
(0.257301 0.27924 -0.00731256)
(0.147351 0.318521 -0.00734052)
(0.051909 0.341297 -0.00702549)
(2.09802 -0.0177083 -0.00070675)
(1.64761 0.00575127 -0.00334663)
(0.728647 0.193921 -0.00541927)
(0.327617 0.154089 -0.00609537)
(0.423782 0.122676 -0.00642482)
(0.519711 0.121954 -0.00665502)
(0.553294 0.132557 -0.00698238)
(0.557474 0.142368 -0.00734079)
(0.556197 0.150179 -0.00758171)
(0.557661 0.156796 -0.00771075)
(0.560719 0.162898 -0.00780014)
(0.563891 0.168975 -0.00787415)
(0.558662 0.173962 -0.0078967)
(0.548046 0.178676 -0.00768344)
(0.543682 0.180129 -0.00709062)
(0.540007 0.182365 -0.00668857)
(0.534672 0.187199 -0.00653343)
(0.529153 0.193463 -0.00657529)
(0.513016 0.20736 -0.00679079)
(0.481016 0.227604 -0.00702894)
(0.437377 0.252114 -0.0070963)
(0.377419 0.283212 -0.00713425)
(0.29636 0.326419 -0.00719051)
(0.187614 0.38432 -0.00719852)
(0.0767785 0.434289 -0.00687026)
(2.06504 -0.0226929 -0.000887365)
(1.70982 -0.0092749 -0.00309132)
(0.799811 0.160853 -0.00547299)
(0.34307 0.169852 -0.00592836)
(0.439433 0.151925 -0.00634306)
(0.538486 0.148392 -0.00657534)
(0.567925 0.155488 -0.00688565)
(0.566866 0.163951 -0.00726085)
(0.563363 0.171523 -0.0075276)
(0.564704 0.178102 -0.00766943)
(0.568654 0.18422 -0.00776353)
(0.57293 0.190075 -0.00784088)
(0.569619 0.194673 -0.00787922)
(0.559523 0.200179 -0.00771385)
(0.5542 0.200935 -0.00714828)
(0.551032 0.202221 -0.00668852)
(0.545751 0.206926 -0.0064877)
(0.541862 0.213849 -0.00649699)
(0.530814 0.228301 -0.00666363)
(0.504019 0.251032 -0.00690706)
(0.466147 0.280803 -0.0069964)
(0.415748 0.319744 -0.0070248)
(0.349243 0.376667 -0.00703179)
(0.253006 0.463529 -0.00698658)
(0.124567 0.585715 -0.00659226)
(2.19271 0.000587878 4.40349e-08)
(1.39274 0.00214282 3.3823e-07)
(0.523014 0.00847132 4.53308e-07)
(0.393397 0.00854386 3.6787e-08)
(0.429845 0.00887087 2.71651e-08)
(0.489603 0.00955132 8.07914e-08)
(0.522967 0.00997707 8.71546e-08)
(0.532678 0.0103255 6.83864e-08)
(0.531228 0.0107017 2.88575e-08)
(0.529088 0.0111321 -1.09255e-08)
(0.524774 0.0116126 1.8719e-08)
(0.516408 0.0122057 -1.22764e-08)
(0.505054 0.0129071 -3.86728e-08)
(0.497405 0.0133699 -1.17859e-07)
(0.493479 0.013619 -9.30733e-08)
(0.4891 0.0138792 6.41616e-08)
(0.486358 0.0142104 2.08558e-07)
(0.47358 0.0148237 2.08713e-07)
(0.441267 0.0156621 1.88984e-07)
(0.39755 0.0168324 1.87723e-07)
(0.342637 0.0180872 2.29469e-07)
(0.265932 0.019452 2.19004e-07)
(0.17192 0.0207186 1.05503e-07)
(0.0791782 0.0221767 1.85813e-08)
(0.0230892 0.0232819 5.89625e-08)
(2.19533 -0.00102387 -9.45364e-09)
(1.40137 0.00272113 2.91592e-07)
(0.53079 0.0245808 4.65414e-07)
(0.393513 0.0244364 4.87495e-08)
(0.429337 0.0247029 3.50567e-08)
(0.489128 0.0258189 7.71929e-08)
(0.52221 0.0262481 8.24875e-08)
(0.531863 0.0263287 6.37406e-08)
(0.530473 0.0264511 3.24692e-08)
(0.528435 0.0267493 -9.49902e-09)
(0.524339 0.027244 2.08749e-09)
(0.516387 0.0280892 -1.00334e-08)
(0.505357 0.0294252 -4.37471e-08)
(0.497914 0.03014 -7.14035e-08)
(0.49436 0.0305228 -4.86466e-08)
(0.49036 0.0312334 5.6786e-08)
(0.487929 0.0320866 1.37105e-07)
(0.475428 0.0335221 1.91432e-07)
(0.443385 0.0353523 1.96899e-07)
(0.399778 0.0377198 1.94626e-07)
(0.344713 0.0401328 2.25521e-07)
(0.267664 0.0427818 2.12197e-07)
(0.173175 0.0451997 1.03593e-07)
(0.0796958 0.0475253 1.36795e-08)
(0.0228379 0.0481411 5.30079e-08)
(2.19217 -0.00515685 -3.77482e-08)
(1.41328 -2.93291e-05 2.66113e-07)
(0.540021 0.0421524 4.839e-07)
(0.389773 0.0417311 4.45736e-08)
(0.427113 0.0417048 3.56347e-08)
(0.488274 0.043177 6.82336e-08)
(0.521737 0.0441775 7.51422e-08)
(0.531978 0.0447274 6.16282e-08)
(0.531279 0.0453631 4.25646e-08)
(0.529831 0.0462788 7.33601e-09)
(0.526379 0.0474481 -1.28679e-08)
(0.519339 0.0490914 -7.60841e-09)
(0.508664 0.0516601 -2.972e-08)
(0.500887 0.05302 -1.92946e-08)
(0.497328 0.0536541 -4.83559e-09)
(0.493335 0.054947 3.44901e-08)
(0.490891 0.0565138 6.56486e-08)
(0.478749 0.0588569 1.8473e-07)
(0.447302 0.0622956 2.07209e-07)
(0.404112 0.0664876 2.03871e-07)
(0.34917 0.0708357 2.20299e-07)
(0.272064 0.0756962 2.01232e-07)
(0.177107 0.0805726 1.00046e-07)
(0.0824886 0.084848 6.02517e-09)
(0.0237174 0.0853464 4.28028e-08)
(2.18315 -0.00624568 7.28593e-08)
(1.42897 0.00161556 4.0624e-07)
(0.55235 0.0634548 5.23561e-07)
(0.382376 0.0592097 1.67123e-08)
(0.42306 0.0571433 1.33492e-08)
(0.486953 0.0586941 5.8811e-08)
(0.521358 0.060494 6.68929e-08)
(0.532378 0.0616235 5.64348e-08)
(0.532589 0.06277 4.60356e-08)
(0.531958 0.0642168 2.0185e-08)
(0.529461 0.0659268 -3.08012e-08)
(0.523971 0.0682496 -7.72133e-09)
(0.514029 0.0718616 -4.6757e-08)
(0.505652 0.0737832 -8.62145e-09)
(0.501969 0.0745991 9.28925e-09)
(0.498022 0.0763833 1.38867e-08)
(0.495428 0.0787453 -3.16488e-08)
(0.483892 0.0818752 1.81182e-07)
(0.453521 0.087167 2.13785e-07)
(0.41095 0.0934533 1.99752e-07)
(0.356348 0.100125 1.96605e-07)
(0.279484 0.10771 2.041e-07)
(0.183987 0.115965 1.0136e-07)
(0.0874488 0.123079 -3.01642e-09)
(0.0253357 0.123796 2.42537e-08)
(2.17852 -0.00814405 -3.07792e-08)
(1.45697 0.00262224 3.06158e-07)
(0.575133 0.0873175 5.80986e-07)
(0.37457 0.0764365 6.17965e-09)
(0.419911 0.071126 1.19659e-08)
(0.487639 0.0725842 5.15045e-08)
(0.522681 0.075504 6.34788e-08)
(0.533906 0.0776452 5.11033e-08)
(0.534834 0.0797087 4.26112e-08)
(0.535038 0.0820133 2.4554e-08)
(0.533676 0.0845748 -2.2384e-08)
(0.530072 0.0878198 1.98604e-09)
(0.520973 0.0922596 -6.25233e-09)
(0.511782 0.0945722 1.78715e-08)
(0.50789 0.0957158 3.63454e-08)
(0.504024 0.0979791 2.82789e-08)
(0.501087 0.101015 3.02445e-09)
(0.490298 0.104904 1.79167e-07)
(0.461497 0.111984 2.00651e-07)
(0.419812 0.120435 1.91246e-07)
(0.365917 0.129654 1.89195e-07)
(0.289952 0.140334 1.93208e-07)
(0.194215 0.152788 1.09398e-07)
(0.0948972 0.163951 -2.03291e-09)
(0.0279156 0.165546 1.21067e-08)
(2.16429 -0.0118001 2.19225e-08)
(1.48877 0.00212877 4.03524e-07)
(0.600274 0.114574 6.72473e-07)
(0.361913 0.0940314 -2.2768e-08)
(0.416309 0.0841269 -7.51189e-09)
(0.489798 0.0852457 4.37734e-08)
(0.52574 0.0895338 5.97864e-08)
(0.536852 0.0931367 4.76518e-08)
(0.53826 0.096478 3.63608e-08)
(0.539205 0.0998442 2.55642e-08)
(0.539027 0.103406 -9.01704e-10)
(0.537356 0.107657 1.56013e-08)
(0.529085 0.112679 -5.44067e-08)
(0.519215 0.115307 -3.31761e-08)
(0.51521 0.116859 1.00721e-08)
(0.511296 0.119584 6.61532e-08)
(0.507867 0.123188 6.36952e-08)
(0.498056 0.12779 1.19066e-07)
(0.471334 0.136713 1.94926e-07)
(0.430985 0.147596 1.88509e-07)
(0.37831 0.159862 1.899e-07)
(0.304057 0.174354 1.69625e-07)
(0.208766 0.192077 1.097e-07)
(0.105871 0.209227 2.13083e-09)
(0.0320123 0.213226 1.95928e-09)
(2.14669 -0.0131883 -3.96228e-08)
(1.53132 0.00572739 3.63291e-07)
(0.633002 0.146378 7.85247e-07)
(0.346851 0.11265 -4.63077e-08)
(0.41402 0.0959495 -2.67083e-08)
(0.494742 0.0967779 3.21609e-08)
(0.531277 0.10299 5.42386e-08)
(0.54158 0.108568 4.6056e-08)
(0.542984 0.113473 3.31686e-08)
(0.544448 0.118003 2.38937e-08)
(0.545465 0.122583 1.06244e-08)
(0.545652 0.127763 2.16529e-08)
(0.538155 0.133147 -9.378e-08)
(0.527749 0.136197 -4.14655e-08)
(0.523728 0.137943 1.96002e-08)
(0.519766 0.141037 3.7454e-08)
(0.515713 0.145131 6.29237e-08)
(0.507108 0.150321 8.93918e-08)
(0.48311 0.161121 1.92689e-07)
(0.444698 0.174766 1.91074e-07)
(0.394012 0.190563 1.81864e-07)
(0.322628 0.209724 1.65509e-07)
(0.229062 0.234274 1.01732e-07)
(0.122275 0.260263 1.04058e-08)
(0.039094 0.269889 -1.95797e-11)
(2.12664 -0.0153425 -2.58401e-08)
(1.5875 0.00713121 4.05253e-07)
(0.677595 0.174647 9.32821e-07)
(0.333816 0.130599 -7.11651e-08)
(0.415665 0.106632 -4.81104e-08)
(0.504268 0.107633 2.43357e-08)
(0.540281 0.116524 5.16279e-08)
(0.548458 0.12454 4.64203e-08)
(0.549025 0.131139 3.44045e-08)
(0.550665 0.136863 2.43568e-08)
(0.552779 0.142358 6.69595e-09)
(0.554598 0.148196 2.15509e-08)
(0.547991 0.153557 -1.72895e-08)
(0.537277 0.157312 -3.3198e-09)
(0.533291 0.159017 7.01835e-09)
(0.529364 0.16205 -2.43982e-08)
(0.524584 0.166557 3.67044e-08)
(0.517458 0.17227 1.11418e-07)
(0.496945 0.184842 1.51857e-07)
(0.461241 0.201655 1.54652e-07)
(0.413544 0.221514 1.61231e-07)
(0.346761 0.246125 1.54498e-07)
(0.257294 0.279207 1.14631e-07)
(0.147341 0.318496 1.85803e-08)
(0.0519008 0.341284 -1.72604e-09)
(2.09802 -0.0177162 -3.9826e-08)
(1.64769 0.00573521 3.66661e-07)
(0.728736 0.1939 1.01397e-06)
(0.327663 0.154105 -8.28009e-08)
(0.423802 0.122687 -7.20811e-08)
(0.519726 0.121955 1.33167e-08)
(0.553307 0.132549 4.7207e-08)
(0.557479 0.142355 4.60351e-08)
(0.556188 0.150169 3.66637e-08)
(0.557631 0.156795 2.85716e-08)
(0.560658 0.162906 3.97256e-09)
(0.563796 0.168996 1.35438e-08)
(0.55849 0.174008 4.46692e-08)
(0.547856 0.178697 -6.18833e-08)
(0.543541 0.18017 -7.73933e-09)
(0.539851 0.182427 5.53424e-09)
(0.534549 0.187248 4.46482e-08)
(0.529048 0.193489 1.03587e-07)
(0.512893 0.207374 1.2822e-07)
(0.480932 0.227597 1.32084e-07)
(0.437321 0.252085 1.34614e-07)
(0.377393 0.283176 1.36676e-07)
(0.296359 0.326377 1.22077e-07)
(0.187614 0.38428 2.54083e-08)
(0.0767783 0.434269 -5.96311e-10)
(2.06501 -0.022702 -1.12085e-07)
(1.70986 -0.0092975 1.26949e-07)
(0.799889 0.160806 5.41656e-07)
(0.343112 0.169856 1.78153e-07)
(0.439452 0.15194 4.77396e-08)
(0.538501 0.1484 1.58872e-08)
(0.56794 0.155488 4.17065e-08)
(0.566874 0.163947 4.34009e-08)
(0.563357 0.171524 3.75454e-08)
(0.564681 0.178114 3.20179e-08)
(0.568605 0.184246 1.02841e-08)
(0.572858 0.190117 1.73869e-08)
(0.569466 0.194726 3.85591e-08)
(0.559364 0.200226 -8.7061e-08)
(0.554107 0.20098 -5.56642e-08)
(0.550911 0.202265 6.38617e-08)
(0.545646 0.206962 4.89587e-08)
(0.541778 0.213849 8.12293e-08)
(0.530717 0.228307 1.12472e-07)
(0.503952 0.25102 1.14319e-07)
(0.466106 0.280778 1.1409e-07)
(0.41573 0.319706 1.26098e-07)
(0.349246 0.376619 1.11882e-07)
(0.253019 0.463479 2.87653e-08)
(0.124578 0.585689 1.44885e-09)
(2.19267 0.000614607 -1.02552e-07)
(1.39273 0.00218274 9.12618e-08)
(0.523001 0.00849062 3.03251e-07)
(0.393371 0.00854113 -8.12569e-08)
(0.429828 0.00885795 -8.73675e-08)
(0.489593 0.00953449 -3.3042e-08)
(0.522961 0.00995763 -1.63499e-08)
(0.532677 0.0103014 -4.65071e-09)
(0.531228 0.0106718 -5.0091e-08)
(0.529088 0.0111011 -1.51364e-07)
(0.524785 0.0115886 -1.33069e-07)
(0.516394 0.0121966 -1.13991e-07)
(0.505007 0.0129021 -1.85777e-07)
(0.497358 0.0133781 -2.36747e-07)
(0.493415 0.0136329 -1.78418e-07)
(0.489025 0.0138858 2.96069e-09)
(0.486267 0.0142073 1.44668e-07)
(0.473463 0.0148061 2.22714e-07)
(0.441155 0.015639 5.08804e-08)
(0.397457 0.0168122 6.06506e-08)
(0.342563 0.0180723 7.62727e-08)
(0.265865 0.0194424 -1.85938e-08)
(0.171866 0.0207123 -1.22843e-07)
(0.0791661 0.0221727 -2.86727e-08)
(0.0230984 0.0232783 2.3647e-09)
(2.19537 -0.00100923 1.05856e-07)
(1.40143 0.00274469 3.1708e-07)
(0.530856 0.0245977 3.04562e-07)
(0.393525 0.0244375 -1.14673e-07)
(0.429331 0.0247005 -1.06877e-07)
(0.489116 0.02582 -4.69702e-08)
(0.522191 0.0262547 -2.59996e-08)
(0.531826 0.0263386 -1.45227e-08)
(0.530406 0.0264658 -5.40601e-08)
(0.52833 0.0267751 -1.26962e-07)
(0.524199 0.0272871 -1.21507e-07)
(0.516159 0.028147 -1.64163e-07)
(0.505059 0.029483 -1.52976e-07)
(0.497634 0.0301933 -2.95416e-07)
(0.494099 0.0305638 -2.59887e-07)
(0.490141 0.0312564 -2.30559e-08)
(0.487744 0.0320899 2.35514e-07)
(0.475257 0.0335068 2.94589e-07)
(0.443251 0.0353296 6.61982e-08)
(0.39968 0.0376966 6.50964e-08)
(0.344639 0.0401098 6.77179e-08)
(0.267597 0.0427622 -1.62565e-08)
(0.173121 0.0451852 -1.1616e-07)
(0.0796834 0.0475151 -3.64134e-08)
(0.0228467 0.0481324 -5.7994e-09)
(2.19217 -0.00518512 1.78283e-08)
(1.41331 -6.94921e-05 2.39097e-07)
(0.540056 0.0421479 3.30312e-07)
(0.389768 0.0417346 -1.026e-07)
(0.427105 0.0417114 -9.10863e-08)
(0.488265 0.0431889 -5.04766e-08)
(0.521722 0.0441956 -3.63134e-08)
(0.531947 0.0447504 -3.46605e-08)
(0.531227 0.045395 -6.3231e-08)
(0.529754 0.0463257 -1.33185e-07)
(0.526281 0.0475092 -1.28627e-07)
(0.519174 0.0491546 -1.793e-07)
(0.50845 0.0517381 -1.50497e-07)
(0.500698 0.053075 -2.5886e-07)
(0.497158 0.0536655 -2.2921e-07)
(0.493191 0.054919 -3.6958e-08)
(0.490762 0.0564474 2.1712e-07)
(0.478627 0.058789 2.63709e-07)
(0.44721 0.062235 7.04977e-08)
(0.404046 0.0664355 7.10113e-08)
(0.349119 0.0707906 5.3958e-08)
(0.272015 0.0756597 -3.95273e-08)
(0.177064 0.0805481 -1.17381e-07)
(0.0824814 0.0848313 -5.19763e-08)
(0.0237275 0.0853323 -1.85374e-08)
(2.1831 -0.00624665 -1.55433e-07)
(1.42896 0.00161599 4.17749e-08)
(0.552344 0.0634687 3.54725e-07)
(0.382346 0.0592162 -9.00377e-08)
(0.423046 0.0571482 -7.49348e-08)
(0.486947 0.0587064 -4.83904e-08)
(0.521349 0.0605164 -3.67737e-08)
(0.532363 0.0616564 -4.28881e-08)
(0.532567 0.0628171 -5.42856e-08)
(0.531928 0.064283 -1.18499e-07)
(0.529431 0.0660017 -1.4498e-07)
(0.523926 0.0683185 -1.38063e-07)
(0.513975 0.0719514 -1.64962e-07)
(0.505616 0.073839 -1.56474e-07)
(0.501943 0.0745903 -1.16052e-07)
(0.498009 0.0763169 -4.15626e-08)
(0.495427 0.0786368 6.01269e-08)
(0.483895 0.0817703 1.56103e-07)
(0.453528 0.0870811 8.06965e-08)
(0.410955 0.0933844 8.82234e-08)
(0.356345 0.100069 4.39428e-08)
(0.279468 0.107666 -8.39589e-08)
(0.183964 0.115937 -1.3038e-07)
(0.0874503 0.123059 -7.61931e-08)
(0.0253475 0.123778 -3.72721e-08)
(2.17852 -0.00813534 9.36575e-09)
(1.45701 0.00263878 2.53212e-07)
(0.575171 0.0873391 3.96251e-07)
(0.374556 0.0764417 -1.13331e-07)
(0.419907 0.0711279 -8.04187e-08)
(0.487643 0.0725936 -4.47049e-08)
(0.522683 0.0755247 -3.25062e-08)
(0.533906 0.0776777 -3.65293e-08)
(0.534838 0.0797565 -4.83738e-08)
(0.535044 0.0820785 -1.10828e-07)
(0.533696 0.0846492 -1.82843e-07)
(0.530125 0.0878906 -7.03197e-08)
(0.521051 0.092343 -1.63832e-07)
(0.511868 0.0946212 -1.14303e-07)
(0.507981 0.0957031 -4.91601e-08)
(0.504131 0.0979097 -1.34087e-08)
(0.501207 0.10092 -3.26824e-08)
(0.49042 0.104798 7.44476e-08)
(0.461606 0.111899 7.25137e-08)
(0.419891 0.120368 8.48552e-08)
(0.365963 0.129602 3.42837e-08)
(0.289968 0.140296 -1.05688e-07)
(0.194211 0.152764 -1.51035e-07)
(0.0949059 0.163933 -9.53978e-08)
(0.0279282 0.165528 -5.05021e-08)
(2.16426 -0.0118007 -7.90472e-08)
(1.48881 0.00213356 1.76267e-07)
(0.600302 0.114599 4.63539e-07)
(0.361891 0.0940381 -1.34108e-07)
(0.416306 0.0841287 -8.80823e-08)
(0.489806 0.0852527 -4.14761e-08)
(0.525748 0.08955 -2.71777e-08)
(0.536863 0.0931629 -2.90653e-08)
(0.538282 0.0965162 -4.02211e-08)
(0.539236 0.099894 -9.3164e-08)
(0.539082 0.103467 -1.79858e-07)
(0.537468 0.107719 -4.14851e-08)
(0.529244 0.112736 -2.28246e-07)
(0.519377 0.11534 -1.53284e-07)
(0.515369 0.116849 -3.67618e-08)
(0.51147 0.119536 5.25684e-08)
(0.508048 0.123134 1.00476e-08)
(0.498234 0.127714 1.01723e-08)
(0.471503 0.136658 7.18229e-08)
(0.431111 0.147552 6.72239e-08)
(0.378392 0.159827 8.50258e-09)
(0.3041 0.174331 -1.11766e-07)
(0.208777 0.192065 -1.52153e-07)
(0.105884 0.209215 -1.07687e-07)
(0.0320253 0.213212 -5.9155e-08)
(2.14668 -0.0131853 -2.68224e-08)
(1.53139 0.00573869 2.74505e-07)
(0.633052 0.146407 5.67929e-07)
(0.346836 0.112658 -1.61818e-07)
(0.414022 0.0959498 -1.01962e-07)
(0.494756 0.096781 -3.83576e-08)
(0.53129 0.103001 -1.63524e-08)
(0.541598 0.108588 -2.72047e-08)
(0.543015 0.1135 -3.58795e-08)
(0.544492 0.118034 -8.02564e-08)
(0.545537 0.122622 -1.39154e-07)
(0.545783 0.127802 -3.58936e-08)
(0.538341 0.133166 -2.61033e-07)
(0.527943 0.136214 -1.55187e-07)
(0.52391 0.137926 -2.59914e-08)
(0.519963 0.14101 2.71788e-08)
(0.515898 0.145108 6.00305e-08)
(0.507281 0.150274 -3.76818e-08)
(0.483286 0.161096 7.40582e-08)
(0.444828 0.174751 6.7878e-08)
(0.394104 0.190552 -1.67934e-08)
(0.322682 0.209718 -1.12678e-07)
(0.22908 0.234274 -1.39688e-07)
(0.122288 0.260259 -1.16667e-07)
(0.0391062 0.269881 -6.54705e-08)
(2.12662 -0.0153447 -7.41204e-08)
(1.58758 0.00713273 2.64784e-07)
(0.677649 0.174668 7.21215e-07)
(0.333801 0.130604 -1.72289e-07)
(0.41567 0.106629 -1.00362e-07)
(0.504285 0.107633 -2.41519e-08)
(0.540299 0.11653 -3.22626e-09)
(0.54848 0.124553 -2.0518e-08)
(0.549058 0.131153 -3.77197e-08)
(0.550712 0.136876 -7.52634e-08)
(0.552853 0.142373 -9.84056e-08)
(0.554719 0.148206 -2.65205e-08)
(0.548176 0.153545 -2.97784e-07)
(0.537463 0.157319 3.45462e-08)
(0.533457 0.159004 -1.6651e-07)
(0.52955 0.162028 -2.46834e-09)
(0.524735 0.166542 6.99588e-08)
(0.517598 0.172246 -5.67952e-08)
(0.497104 0.184831 7.34833e-08)
(0.461358 0.201653 7.22964e-08)
(0.413628 0.221521 -9.32981e-09)
(0.346814 0.246133 -9.3156e-08)
(0.257311 0.279217 -1.42929e-07)
(0.14735 0.318502 -1.19925e-07)
(0.0519108 0.341283 -6.70034e-08)
(2.098 -0.0177146 -7.9442e-08)
(1.64778 0.00573767 2.52626e-07)
(0.728798 0.193901 8.0865e-07)
(0.327657 0.154122 -1.80003e-07)
(0.423812 0.122694 -1.14079e-07)
(0.519747 0.121957 -2.27651e-08)
(0.553328 0.132552 5.09896e-09)
(0.557502 0.142362 -1.2424e-08)
(0.556219 0.150174 -3.76124e-08)
(0.557675 0.156795 -6.76301e-08)
(0.560724 0.1629 -7.67884e-08)
(0.563892 0.168981 -3.54281e-08)
(0.558651 0.173978 -2.87466e-07)
(0.54802 0.178687 1.30877e-07)
(0.543661 0.18016 -5.24207e-08)
(0.539994 0.18241 -1.70571e-07)
(0.534671 0.187238 1.13761e-08)
(0.529158 0.193494 -4.28255e-08)
(0.513022 0.207374 7.28618e-08)
(0.48103 0.227603 5.75313e-08)
(0.437394 0.252099 9.33076e-09)
(0.377439 0.283191 -5.26024e-08)
(0.296374 0.326395 -1.35036e-07)
(0.18762 0.384296 -1.15925e-07)
(0.0767844 0.434274 -6.91555e-08)
(2.06499 -0.0227022 -1.01527e-07)
(1.70993 -0.00931085 8.70762e-08)
(0.799973 0.16074 4.0391e-07)
(0.34312 0.16984 6.88357e-08)
(0.43946 0.151944 3.98405e-10)
(0.538516 0.148406 -1.81161e-08)
(0.567958 0.155492 2.11051e-09)
(0.566894 0.16395 -8.60017e-09)
(0.563384 0.171522 -3.36113e-08)
(0.564717 0.178102 -5.93299e-08)
(0.568656 0.184224 -6.84125e-08)
(0.572928 0.190084 -5.84297e-08)
(0.569592 0.194689 -2.13834e-07)
(0.559484 0.20019 8.94177e-08)
(0.554178 0.200966 1.75017e-08)
(0.551012 0.202266 -2.28145e-07)
(0.545741 0.206966 -2.62157e-08)
(0.541863 0.213877 -8.6832e-09)
(0.530818 0.22832 5.94726e-08)
(0.504031 0.251035 4.55701e-08)
(0.466164 0.280793 3.9276e-08)
(0.415769 0.319724 -3.87265e-08)
(0.349259 0.376642 -8.82034e-08)
(0.253017 0.463504 -9.9829e-08)
(0.124578 0.585699 -6.82088e-08)
(2.19268 0.000612465 -4.94934e-08)
(1.39278 0.00217986 2.12096e-07)
(0.523039 0.00849024 4.17554e-07)
(0.393376 0.00854114 -1.62149e-07)
(0.429827 0.00885858 -1.63638e-07)
(0.489587 0.00953575 -6.08152e-08)
(0.522953 0.00995924 -3.02892e-08)
(0.532666 0.0103033 -2.65833e-08)
(0.531213 0.0106746 -4.27877e-08)
(0.529069 0.0111044 -6.84472e-08)
(0.52476 0.0115915 -1.1341e-07)
(0.516363 0.0121985 -1.67496e-07)
(0.504973 0.012905 -1.53782e-07)
(0.497324 0.0133808 -1.34956e-07)
(0.493387 0.0136365 -1.1388e-07)
(0.489009 0.0138911 -8.15711e-08)
(0.486263 0.0142142 3.00301e-10)
(0.473469 0.0148134 1.43995e-07)
(0.441166 0.0156448 7.67086e-08)
(0.39747 0.0168157 7.34435e-08)
(0.342578 0.0180737 5.24478e-08)
(0.26588 0.0194423 1.55004e-08)
(0.171873 0.0207111 -2.26361e-08)
(0.0791613 0.0221711 -1.62263e-08)
(0.0230933 0.0232768 8.35192e-09)
(2.19536 -0.00100997 -5.42915e-08)
(1.40148 0.00274431 2.13572e-07)
(0.530889 0.0246 4.22744e-07)
(0.393525 0.0244372 -1.58733e-07)
(0.429329 0.0246997 -1.58921e-07)
(0.489111 0.0258193 -7.47967e-08)
(0.522184 0.0262539 -3.91774e-08)
(0.531818 0.0263375 -2.97827e-08)
(0.530396 0.0264647 -4.36894e-08)
(0.528319 0.0267734 -7.27346e-08)
(0.524186 0.0272837 -1.22262e-07)
(0.516144 0.0281417 -1.70235e-07)
(0.505045 0.0294794 -1.52693e-07)
(0.49762 0.0301888 -1.28409e-07)
(0.494089 0.0305585 -1.05674e-07)
(0.490139 0.0312507 -7.68168e-08)
(0.48775 0.0320856 1.93073e-09)
(0.475269 0.0335044 1.3702e-07)
(0.443265 0.0353276 7.63331e-08)
(0.399694 0.0376947 7.26435e-08)
(0.344654 0.0401081 5.3731e-08)
(0.267612 0.0427605 1.86954e-08)
(0.173128 0.0451823 -2.03104e-08)
(0.0796784 0.0475118 -1.19049e-08)
(0.0228416 0.0481291 1.08508e-08)
(2.19218 -0.00518449 -2.30731e-08)
(1.41336 -6.79927e-05 2.57993e-07)
(0.540093 0.0421523 4.37726e-07)
(0.389768 0.0417344 -1.59678e-07)
(0.427103 0.0417101 -1.48263e-07)
(0.48826 0.0431874 -8.89254e-08)
(0.521715 0.0441939 -5.12081e-08)
(0.53194 0.0447484 -3.44069e-08)
(0.531219 0.0453925 -4.62978e-08)
(0.529746 0.0463222 -7.60015e-08)
(0.526273 0.0475036 -1.26745e-07)
(0.51917 0.0491467 -1.63023e-07)
(0.508449 0.0517305 -1.43125e-07)
(0.500697 0.0530691 -1.21542e-07)
(0.497161 0.0536614 -9.70408e-08)
(0.493205 0.0549174 -7.05737e-08)
(0.490786 0.0564486 1.75451e-08)
(0.478654 0.0587978 1.08082e-07)
(0.447235 0.0622435 7.4715e-08)
(0.404067 0.0664411 7.00344e-08)
(0.349137 0.0707925 5.29931e-08)
(0.27203 0.0756589 2.50138e-08)
(0.17707 0.0805443 -1.53628e-08)
(0.0824761 0.0848263 -4.93876e-09)
(0.0237223 0.0853272 1.4536e-08)
(2.1831 -0.00624771 -1.11671e-07)
(1.42901 0.00161489 1.47569e-07)
(0.55238 0.0634729 4.47671e-07)
(0.382345 0.0592163 -1.67038e-07)
(0.423043 0.0571467 -1.41337e-07)
(0.486943 0.0587041 -9.73544e-08)
(0.521344 0.0605137 -5.60054e-08)
(0.532356 0.0616527 -3.87221e-08)
(0.532558 0.0628119 -5.0585e-08)
(0.531918 0.064276 -7.79331e-08)
(0.52942 0.0659938 -1.2239e-07)
(0.523918 0.068309 -1.51181e-07)
(0.513973 0.0719387 -1.4583e-07)
(0.505613 0.0738307 -1.2259e-07)
(0.501939 0.0745918 -9.84291e-08)
(0.498008 0.0763292 -6.04495e-08)
(0.495434 0.0786549 2.8815e-08)
(0.483903 0.0817938 8.94887e-08)
(0.453531 0.0870998 7.6212e-08)
(0.410958 0.0933952 7.59366e-08)
(0.356352 0.100072 6.27513e-08)
(0.279476 0.107664 3.02908e-08)
(0.183967 0.115931 -5.49779e-09)
(0.0874436 0.123052 6.66415e-09)
(0.0253423 0.123771 2.49852e-08)
(2.17852 -0.00813621 -4.41754e-08)
(1.45706 0.00263816 2.44469e-07)
(0.575208 0.0873443 4.88487e-07)
(0.374553 0.0764422 -1.79615e-07)
(0.419905 0.0711264 -1.3403e-07)
(0.48764 0.0725911 -9.24409e-08)
(0.522678 0.0755214 -5.14437e-08)
(0.533898 0.0776732 -3.68778e-08)
(0.534827 0.0797498 -5.1134e-08)
(0.53503 0.0820699 -7.51371e-08)
(0.533678 0.084641 -1.09715e-07)
(0.5301 0.087883 -1.68589e-07)
(0.521024 0.0923336 -1.74294e-07)
(0.511838 0.094618 -1.47321e-07)
(0.507948 0.0957144 -1.06035e-07)
(0.504094 0.0979349 -4.50937e-08)
(0.501172 0.100949 3.99826e-08)
(0.490386 0.104824 6.95368e-08)
(0.461574 0.111916 7.20505e-08)
(0.419868 0.120377 7.41721e-08)
(0.365954 0.129603 6.59407e-08)
(0.289967 0.140291 3.69302e-08)
(0.194209 0.152755 1.40745e-08)
(0.0948981 0.163923 1.85632e-08)
(0.0279231 0.165519 3.55109e-08)
(2.16426 -0.0118023 -1.20855e-07)
(1.48886 0.00213202 1.71838e-07)
(0.600339 0.114604 5.43019e-07)
(0.361886 0.0940396 -2.03606e-07)
(0.416304 0.0841279 -1.37881e-07)
(0.489805 0.085251 -8.55031e-08)
(0.525744 0.0895476 -4.09752e-08)
(0.536855 0.0931595 -3.03733e-08)
(0.538269 0.0965111 -4.85979e-08)
(0.539219 0.0998873 -7.55611e-08)
(0.539055 0.103459 -1.15439e-07)
(0.537425 0.107713 -1.98586e-07)
(0.529187 0.112733 -1.14859e-07)
(0.519314 0.115343 -1.01983e-07)
(0.515306 0.116864 -9.39514e-08)