/*--------------------------------*- C++ -*----------------------------------*\
| =========                 |                                                 |
| \\      /  F ield         | OpenFOAM: The Open Source CFD Toolbox           |
|  \\    /   O peration     | Version:  4.1                                   |
|   \\  /    A nd           | Web:      www.OpenFOAM.org                      |
|    \\/     M anipulation  |                                                 |
\*---------------------------------------------------------------------------*/
FoamFile
{
    version     2.0;
    format      ascii;
    class       volScalarField;
    location    "0.5";
    object      Ma;
}
// * * * * * * * * * * * * * * * * * * * * * * * * * * * * * * * * * * * * * //

dimensions      [0 0 0 0 0 0 0];

internalField   nonuniform List<scalar> 
52500
(
3.13428
3.26312
3.25146
3.19862
3.01236
2.35496
0.850954
0.259399
0.416216
0.148792
0.16572
0.195865
0.191381
0.181979
0.16065
0.137067
0.107183
0.0787774
0.0496013
0.0279242
0.0412461
0.0531474
0.0750642
0.0465515
0.0483792
3.13456
3.26373
3.25229
3.20058
3.01865
2.37468
0.880118
0.258251
0.423192
0.158205
0.171035
0.199973
0.194692
0.185174
0.164428
0.142113
0.114739
0.0905719
0.0689391
0.0586505
0.0701045
0.0815052
0.0999649
0.0833717
0.0860038
3.13515
3.26501
3.25406
3.20477
3.03223
2.41851
0.951123
0.250685
0.433463
0.172783
0.180655
0.209371
0.203575
0.194636
0.175747
0.156338
0.133721
0.11637
0.103507
0.100709
0.112479
0.124991
0.141893
0.134242
0.138729
3.13601
3.26686
3.25661
3.21078
3.05157
2.48167
1.0626
0.239139
0.448781
0.194851
0.193678
0.222309
0.216292
0.208011
0.191042
0.175098
0.157887
0.146771
0.140474
0.143424
0.156847
0.171415
0.189384
0.187635
0.195367
3.13708
3.26914
3.25971
3.21809
3.07486
2.55897
1.2113
0.224271
0.466693
0.223152
0.21032
0.239073
0.23303
0.225653
0.210448
0.197542
0.185443
0.179619
0.178634
0.186901
0.202017
0.219078
0.239309
0.242332
0.253883
3.13828
3.27168
3.26316
3.22625
3.10078
2.64714
1.39173
0.212821
0.484237
0.258646
0.229648
0.258946
0.253093
0.246237
0.232853
0.222666
0.215303
0.214079
0.218358
0.230725
0.248077
0.268228
0.291402
0.299488
0.315073
3.13954
3.27433
3.26671
3.23472
3.12772
2.74221
1.59945
0.234219
0.498248
0.302122
0.25114
0.281035
0.276022
0.269008
0.258081
0.249727
0.246594
0.249589
0.259456
0.274442
0.295041
0.319153
0.346354
0.359145
0.38222
3.14077
3.27689
3.27012
3.24301
3.15408
2.83835
1.83552
0.332459
0.506555
0.354154
0.274473
0.304431
0.30135
0.293141
0.285118
0.277909
0.278594
0.285539
0.300942
0.318572
0.342969
0.371628
0.404717
0.42428
0.460244
3.14172
3.2791
3.27318
3.25077
3.17831
2.92653
2.07853
0.517928
0.504786
0.415513
0.299209
0.328566
0.32855
0.318837
0.313561
0.306749
0.310721
0.321836
0.342105
0.36338
0.392102
0.426193
0.467908
0.499807
0.560258
3.14231
3.28093
3.27595
3.25793
3.19998
3.00311
2.31058
0.777545
0.487956
0.482221
0.325113
0.352829
0.357083
0.345981
0.342936
0.33579
0.342678
0.358308
0.382331
0.407986
0.442164
0.483512
0.538624
0.594116
0.713727
3.13426
3.26308
3.25142
3.19854
3.0121
2.35418
0.849831
0.259677
0.416084
0.148572
0.165584
0.195668
0.191146
0.181746
0.160422
0.136826
0.106888
0.0783915
0.0489851
0.0268192
0.0405198
0.0525951
0.0746811
0.0459564
0.047846
3.13454
3.2637
3.25226
3.20052
3.01847
2.37417
0.879387
0.257771
0.422503
0.157312
0.170375
0.199462
0.194267
0.184875
0.164191
0.141886
0.114473
0.0902405
0.0684944
0.0581202
0.0696604
0.0811258
0.0996614
0.0830208
0.0856994
3.13513
3.26498
3.25402
3.20469
3.03199
2.41781
0.950044
0.250915
0.433411
0.172657
0.180708
0.209461
0.203625
0.194583
0.17564
0.156199
0.133535
0.116124
0.103201
0.100381
0.112179
0.124722
0.141663
0.133999
0.138528
3.136
3.26684
3.25658
3.21071
3.05136
2.48103
1.0615
0.239251
0.448639
0.194705
0.193743
0.222424
0.216441
0.208122
0.191056
0.17502
0.157731
0.146563
0.140231
0.14317
0.156607
0.171198
0.189192
0.187433
0.195201
3.13706
3.26911
3.25968
3.21803
3.07469
2.55842
1.21024
0.224429
0.466661
0.223088
0.210515
0.239261
0.233193
0.225713
0.21042
0.197443
0.185282
0.179424
0.178413
0.18668
0.201805
0.218885
0.239134
0.242149
0.253729
3.13826
3.27166
3.26313
3.2262
3.10064
2.64667
1.39075
0.212955
0.484258
0.258628
0.22985
0.259124
0.25315
0.246173
0.2327
0.222482
0.215106
0.213883
0.218147
0.230519
0.247882
0.268047
0.291235
0.299323
0.314929
3.13953
3.27431
3.26669
3.23468
3.12762
2.74187
1.59872
0.234144
0.49831
0.301981
0.251389
0.28112
0.275994
0.268906
0.257902
0.249513
0.24637
0.249378
0.259254
0.274242
0.294859
0.318981
0.346193
0.358993
0.382077
3.14076
3.27688
3.27011
3.24299
3.15402
2.83811
1.83488
0.332078
0.506624
0.353955
0.274552
0.304428
0.301273
0.293016
0.284951
0.277705
0.278367
0.285315
0.300752
0.318385
0.342797
0.371468
0.404566
0.424129
0.460098
3.14171
3.27909
3.27317
3.25075
3.17828
2.9264
2.07813
0.517505
0.504875
0.415325
0.299248
0.328558
0.32846
0.318683
0.313364
0.306518
0.310494
0.321623
0.341925
0.363203
0.391941
0.426047
0.467767
0.499656
0.560107
3.1423
3.28092
3.27594
3.25792
3.19995
3.00304
2.31033
0.777145
0.488059
0.482066
0.32512
0.352837
0.357017
0.345847
0.342766
0.335583
0.342468
0.358124
0.382167
0.40783
0.44202
0.483376
0.538498
0.59397
0.713571
3.13426
3.2631
3.25143
3.19857
3.01222
2.35455
0.850378
0.259422
0.416133
0.148694
0.165739
0.195863
0.191355
0.181911
0.160531
0.13689
0.106934
0.0784219
0.0490009
0.0268213
0.0405217
0.0526058
0.0747013
0.0459696
0.0478513
3.13454
3.26371
3.25227
3.20054
3.01854
2.37437
0.879664
0.258078
0.422942
0.157887
0.17085
0.199818
0.194538
0.185021
0.164257
0.141913
0.114491
0.090255
0.0685034
0.0581225
0.0696663
0.0811378
0.0996801
0.0830324
0.085707
3.13514
3.26499
3.25404
3.20473
3.03212
2.41821
0.950661
0.250637
0.433307
0.172529
0.1805
0.20923
0.203427
0.194479
0.175571
0.156143
0.133497
0.116114
0.103207
0.100389
0.11219
0.124737
0.141682
0.134012
0.138539
3.136
3.26685
3.25659
3.21075
3.05147
2.48139
1.06212
0.239083
0.448624
0.194608
0.193528
0.222164
0.216143
0.207857
0.190879
0.17492
0.157684
0.146554
0.140242
0.143185
0.156626
0.171217
0.189215
0.18745
0.195216
3.13707
3.26912
3.25969
3.21806
3.07479
2.55873
1.21084
0.224202
0.466558
0.222929
0.210215
0.238983
0.23294
0.225561
0.210326
0.197387
0.185262
0.179429
0.178439
0.186706
0.201831
0.218908
0.239161
0.242169
0.253747
3.13827
3.27167
3.26314
3.22622
3.10071
2.64691
1.39125
0.212723
0.48415
0.258494
0.229589
0.258935
0.253023
0.246119
0.232695
0.222497
0.215137
0.213919
0.218189
0.230553
0.247915
0.268076
0.291264
0.299346
0.314948
3.13953
3.27432
3.26669
3.23469
3.12766
2.742
1.59901
0.234023
0.49821
0.301915
0.251215
0.281035
0.275965
0.26891
0.257945
0.249574
0.246439
0.249442
0.259305
0.274286
0.294897
0.319013
0.346225
0.359017
0.382097
3.14076
3.27688
3.27011
3.24299
3.15403
2.83817
1.83505
0.332112
0.506527
0.353934
0.274436
0.304389
0.30129
0.293057
0.285
0.277771
0.278445
0.285392
0.300805
0.318433
0.342837
0.371502
0.404597
0.424156
0.460118
3.14171
3.27909
3.27317
3.25075
3.17828
2.92641
2.07818
0.517558
0.504779
0.415312
0.299147
0.328523
0.328481
0.318736
0.313424
0.306603
0.310578
0.321692
0.341978
0.363249
0.39198
0.426081
0.467798
0.499683
0.560126
3.1423
3.28092
3.27594
3.25792
3.19995
3.00303
2.31032
0.777142
0.487981
0.482041
0.325033
0.352794
0.357019
0.345877
0.342792
0.335629
0.342529
0.358184
0.382219
0.407869
0.442052
0.483406
0.538524
0.593996
0.713589
3.13426
3.2631
3.25143
3.19857
3.0122
2.3545
0.850305
0.259456
0.416135
0.148704
0.16575
0.195866
0.191357
0.181916
0.16054
0.1369
0.106943
0.0784293
0.0490056
0.0268185
0.0405196
0.0526071
0.0747107
0.0459763
0.047851
3.13454
3.26371
3.25227
3.20054
3.01853
2.37434
0.879616
0.258071
0.422912
0.157852
0.170826
0.199801
0.194529
0.185022
0.164267
0.141922
0.114497
0.0902579
0.0685014
0.058115
0.06966
0.0811349
0.0996836
0.0830314
0.0857025
3.13514
3.26499
3.25404
3.20473
3.03211
2.41818
0.95061
0.250653
0.433293
0.172509
0.18049
0.209232
0.20344
0.194496
0.175591
0.156159
0.133504
0.116112
0.103198
0.100377
0.112179
0.124729
0.14168
0.134004
0.13853
3.136
3.26685
3.25659
3.21074
3.05147
2.48136
1.06208
0.239065
0.448611
0.194615
0.193577
0.222248
0.216238
0.207949
0.190936
0.174947
0.15769
0.146547
0.140228
0.143169
0.156611
0.171204
0.189207
0.187437
0.195202
3.13707
3.26912
3.25969
3.21806
3.07477
2.55868
1.21073
0.224235
0.466627
0.223038
0.210369
0.239129
0.23305
0.225598
0.210337
0.19739
0.185257
0.179418
0.178419
0.186686
0.201813
0.218892
0.239149
0.242152
0.253729
3.13827
3.27167
3.26314
3.22622
3.1007
2.64687
1.39116
0.212784
0.484207
0.258579
0.229703
0.259012
0.253054
0.246109
0.232665
0.222468
0.215113
0.213895
0.218165
0.230531
0.247895
0.268057
0.291248
0.299325
0.314925
3.13953
3.27432
3.26669
3.23469
3.12766
2.742
1.599
0.234083
0.498232
0.301942
0.25126
0.281037
0.275947
0.268889
0.257919
0.24954
0.246406
0.24941
0.259282
0.274262
0.294875
0.318993
0.346205
0.358995
0.38207
3.14076
3.27689
3.27011
3.24299
3.15404
2.83819
1.83509
0.332155
0.506535
0.353929
0.274447
0.304364
0.301253
0.293024
0.284997
0.277757
0.27842
0.285359
0.300785
0.318413
0.342817
0.371481
0.404577
0.424131
0.460088
3.14171
3.27909
3.27317
3.25076
3.17829
2.92643
2.07822
0.517594
0.504782
0.415304
0.299148
0.328498
0.328452
0.318708
0.313415
0.30658
0.310558
0.321671
0.341964
0.363232
0.391964
0.426062
0.467778
0.499657
0.560092
3.1423
3.28092
3.27594
3.25792
3.19996
3.00304
2.31036
0.777194
0.487976
0.482039
0.325029
0.352778
0.357011
0.345877
0.342809
0.335637
0.342527
0.358174
0.382208
0.407857
0.44204
0.48339
0.538507
0.593971
0.713555
3.13426
3.2631
3.25143
3.19857
3.01221
2.35454
0.85037
0.259423
0.416134
0.148695
0.165742
0.195865
0.191359
0.181922
0.160549
0.13691
0.106953
0.0784395
0.0490171
0.0268229
0.0405154
0.0526028
0.074702
0.0459712
0.0478381
3.13454
3.26371
3.25227
3.20054
3.01854
2.37437
0.879678
0.258051
0.422921
0.157859
0.170833
0.199812
0.19454
0.185034
0.164278
0.141932
0.114506
0.0902644
0.0685078
0.0581183
0.0696623
0.0811393
0.0996856
0.0830411
0.0856929
3.13514
3.26499
3.25404
3.20473
3.03212
2.41821
0.950682
0.250629
0.433301
0.172515
0.180488
0.209235
0.203445
0.194503
0.1756
0.156167
0.133512
0.11612
0.103205
0.100382
0.112185
0.124737
0.141686
0.134022
0.138523
3.136
3.26685
3.25659
3.21075
3.05148
2.48141
1.06218
0.239044
0.448625
0.194625
0.193561
0.222239
0.216235
0.20795
0.190939
0.174953
0.157698
0.146556
0.140236
0.143175
0.156618
0.171213
0.189213
0.187458
0.195203
3.13707
3.26912
3.25969
3.21806
3.07478
2.55873
1.21085
0.224221
0.466645
0.223053
0.210333
0.239105
0.233033
0.225591
0.210337
0.197393
0.185265
0.179428
0.178427
0.186694
0.20182
0.2189
0.239155
0.242174
0.25374
3.13827
3.27167
3.26315
3.22623
3.10072
2.64694
1.3913
0.212793
0.48422
0.258584
0.22969
0.258962
0.253029
0.246096
0.232665
0.222471
0.21512
0.213903
0.218173
0.230541
0.247903
0.268064
0.291255
0.299345
0.314941
3.13953
3.27432
3.2667
3.2347
3.12768
2.74208
1.59917
0.234139
0.498224
0.302024
0.251125
0.280977
0.275913
0.26887
0.257915
0.249543
0.246412
0.249418
0.25929
0.274275
0.294884
0.318999
0.346215
0.359011
0.382094
3.14076
3.27689
3.27012
3.243
3.15406
2.83826
1.8353
0.332275
0.50653
0.354031
0.274426
0.304348
0.301235
0.293008
0.284996
0.277763
0.278428
0.285368
0.300797
0.318427
0.342827
0.37149
0.404588
0.424144
0.460116
3.14171
3.27909
3.27317
3.25076
3.1783
2.92648
2.07838
0.517728
0.504771
0.415397
0.299172
0.328502
0.32845
0.318702
0.313418
0.306585
0.310566
0.321683
0.341978
0.363248
0.391978
0.426072
0.467788
0.499671
0.560124
3.1423
3.28092
3.27594
3.25792
3.19997
3.00308
2.31047
0.777354
0.487945
0.482124
0.325081
0.352792
0.357016
0.345876
0.342817
0.335649
0.34254
0.358188
0.382223
0.407874
0.442058
0.483404
0.538518
0.593983
0.713591
3.13426
3.26309
3.25143
3.19857
3.0122
2.35451
0.850317
0.259449
0.41614
0.148713
0.16576
0.195875
0.191367
0.181924
0.160547
0.136905
0.106947
0.078433
0.0490093
0.0268203
0.0405182
0.0526058
0.0747104
0.0459765
0.0478512
3.13454
3.26371
3.25227
3.20054
3.01853
2.37435
0.879635
0.258059
0.422912
0.157856
0.170834
0.199809
0.194537
0.185029
0.164272
0.141927
0.114501
0.0902613
0.0685052
0.0581183
0.069662
0.0811367
0.099685
0.0830331
0.085704
3.13514
3.26499
3.25404
3.20473
3.03211
2.41819
0.950639
0.250646
0.433299
0.172516
0.180493
0.209236
0.203445
0.1945
0.175595
0.156162
0.133506
0.116115
0.103202
0.100381
0.112184
0.124733
0.141683
0.134008
0.138533
3.136
3.26685
3.25659
3.21075
3.05147
2.48138
1.06213
0.239059
0.448625
0.194628
0.193567
0.222242
0.216237
0.20795
0.190936
0.174948
0.157692
0.146551
0.140233
0.143176
0.156618
0.17121
0.189212
0.187442
0.195206
3.13707
3.26912
3.25969
3.21806
3.07478
2.55871
1.21081
0.224236
0.466649
0.223056
0.210341
0.23911
0.233036
0.225593
0.210335
0.19739
0.18526
0.179423
0.178426
0.186694
0.201822
0.2189
0.239156
0.242159
0.253735
3.13827
3.27167
3.26314
3.22622
3.10071
2.64692
1.39126
0.212804
0.484224
0.258587
0.229699
0.258969
0.253032
0.246097
0.232661
0.222467
0.215115
0.2139
0.218173
0.23054
0.247905
0.268067
0.291258
0.299334
0.314933
3.13953
3.27432
3.26669
3.2347
3.12768
2.74206
1.59914
0.234137
0.49823
0.302026
0.251133
0.280983
0.275916
0.268871
0.257912
0.249538
0.246408
0.249415
0.25929
0.274273
0.294887
0.319005
0.346217
0.359004
0.38208
3.14076
3.27689
3.27011
3.243
3.15405
2.83825
1.83527
0.332256
0.506537
0.354031
0.274432
0.304354
0.301238
0.293009
0.284993
0.277756
0.278423
0.285365
0.300796
0.318425
0.34283
0.371495
0.40459
0.424145
0.460101
3.14171
3.27909
3.27317
3.25076
3.1783
2.92647
2.07835
0.517705
0.504779
0.415396
0.299178
0.328507
0.328451
0.318701
0.313413
0.30658
0.310562
0.32168
0.341975
0.363245
0.391977
0.426077
0.467793
0.499675
0.56011
3.1423
3.28092
3.27594
3.25792
3.19996
3.00307
2.31045
0.777327
0.487954
0.482122
0.325086
0.352796
0.357016
0.345874
0.342811
0.335642
0.342536
0.358184
0.38222
0.407871
0.442055
0.483407
0.538523
0.593992
0.713578
3.13426
3.2631
3.25143
3.19857
3.0122
2.3545
0.850305
0.259455
0.416135
0.148704
0.16575
0.195865
0.191357
0.181916
0.16054
0.1369
0.106942
0.0784291
0.0490054
0.0268185
0.0405198
0.0526073
0.0747109
0.0459764
0.047851
3.13454
3.26371
3.25227
3.20054
3.01853
2.37434
0.879616
0.258071
0.422912
0.157852
0.170826
0.199801
0.194529
0.185022
0.164267
0.141922
0.114497
0.0902578
0.0685013
0.058115
0.0696601
0.081135
0.0996837
0.0830314
0.0857025
3.13514
3.26499
3.25404
3.20473
3.03211
2.41818
0.95061
0.250653
0.433293
0.172509
0.180491
0.209233
0.20344
0.194496
0.175591
0.156159
0.133504
0.116112
0.103198
0.100377
0.112179
0.124729
0.14168
0.134004
0.13853
3.136
3.26685
3.25659
3.21074
3.05147
2.48136
1.06208
0.239065
0.448611
0.194615
0.193577
0.222248
0.216238
0.207949
0.190936
0.174947
0.15769
0.146547
0.140228
0.143169
0.156611
0.171204
0.189207
0.187437
0.195202
3.13707
3.26912
3.25969
3.21806
3.07477
2.55868
1.21073
0.224235
0.466627
0.223038
0.210369
0.239129
0.23305
0.225598
0.210337
0.19739
0.185257
0.179418
0.178419
0.186686
0.201813
0.218892
0.239149
0.242152
0.253729
3.13827
3.27167
3.26314
3.22622
3.1007
2.64687
1.39116
0.212784
0.484207
0.258579
0.229703
0.259012
0.253054
0.246109
0.232665
0.222468
0.215113
0.213895
0.218165
0.230531
0.247895
0.268057
0.291248
0.299325
0.314925
3.13953
3.27432
3.26669
3.23469
3.12766
2.742
1.599
0.234083
0.498232
0.301942
0.25126
0.281037
0.275947
0.268889
0.257919
0.24954
0.246406
0.24941
0.259282
0.274262
0.294875
0.318993
0.346205
0.358995
0.38207
3.14076
3.27689
3.27011
3.24299
3.15404
2.83819
1.83509
0.332155
0.506535
0.353929
0.274447
0.304364
0.301253
0.293024
0.284997
0.277757
0.27842
0.285359
0.300785
0.318413
0.342817
0.371481
0.404577
0.424131
0.460088
3.14171
3.27909
3.27317
3.25076
3.17829
2.92643
2.07822
0.517594
0.504783
0.415304
0.299148
0.328498
0.328452
0.318708
0.313415
0.30658
0.310558
0.321671
0.341964
0.363232
0.391963
0.426062
0.467777
0.499657
0.560092
3.1423
3.28092
3.27594
3.25792
3.19996
3.00304
2.31036
0.777194
0.487976
0.482039
0.325029
0.352778
0.357011
0.345877
0.342809
0.335637
0.342527
0.358174
0.382208
0.407857
0.44204
0.48339
0.538507
0.593971
0.713555
3.13426
3.2631
3.25143
3.19857
3.01222
2.35455
0.850378
0.259422
0.416133
0.148694
0.165739
0.195863
0.191355
0.181911
0.160531
0.13689
0.106934
0.0784218
0.0490009
0.0268213
0.0405217
0.0526058
0.0747012
0.0459696
0.0478513
3.13454
3.26371
3.25227
3.20054
3.01854
2.37437
0.879664
0.258078
0.422942
0.157887
0.17085
0.199818
0.194538
0.185021
0.164257
0.141913
0.114491
0.0902549
0.0685034
0.0581225
0.0696663
0.0811378
0.0996801
0.0830324
0.085707
3.13514
3.26499
3.25404
3.20473
3.03212
2.41821
0.950661
0.250637
0.433307
0.172529
0.1805
0.20923
0.203427
0.194479
0.175571
0.156143
0.133497
0.116114
0.103207
0.100389
0.11219
0.124737
0.141682
0.134012
0.138539
3.136
3.26685
3.25659
3.21075
3.05147
2.48139
1.06212
0.239083
0.448624
0.194608
0.193528
0.222164
0.216143
0.207857
0.190879
0.17492
0.157684
0.146554
0.140242
0.143185
0.156626
0.171217
0.189215
0.18745
0.195216
3.13707
3.26912
3.25969
3.21806
3.07479
2.55873
1.21084
0.224202
0.466557
0.222929
0.210215
0.238983
0.23294
0.225561
0.210326
0.197387
0.185262
0.179429
0.178439
0.186706
0.201831
0.218908
0.239161
0.242169
0.253747
3.13827
3.27167
3.26314
3.22622
3.10071
2.64691
1.39125
0.212723
0.48415
0.258493
0.229589
0.258935
0.253023
0.246119
0.232695
0.222497
0.215137
0.213919
0.218189
0.230553
0.247915
0.268076
0.291264
0.299346
0.314948
3.13953
3.27432
3.26669
3.23469
3.12766
2.742
1.59901
0.234023
0.49821
0.301915
0.251215
0.281035
0.275965
0.26891
0.257945
0.249574
0.246439
0.249442
0.259305
0.274286
0.294897
0.319013
0.346225
0.359017
0.382097
3.14076
3.27688
3.27011
3.24299
3.15403
2.83817
1.83505
0.332112
0.506527
0.353934
0.274436
0.304389
0.30129
0.293057
0.285
0.277771
0.278445
0.285392
0.300805
0.318433
0.342837
0.371502
0.404597
0.424156
0.460118
3.14171
3.27909
3.27317
3.25075
3.17828
2.92641
2.07818
0.517558
0.504779
0.415312
0.299147
0.328523
0.328481
0.318736
0.313424
0.306603
0.310578
0.321692
0.341978
0.363249
0.39198
0.426081
0.467798
0.499683
0.560126
3.1423
3.28092
3.27594
3.25792
3.19995
3.00303
2.31032
0.777142
0.487981
0.482041
0.325033
0.352794
0.357019
0.345877
0.342792
0.335629
0.342529
0.358184
0.382219
0.407869
0.442052
0.483406
0.538524
0.593996
0.713589
3.13426
3.26308
3.25142
3.19854
3.0121
2.35418
0.849833
0.259676
0.416084
0.148572
0.165584
0.195668
0.191146
0.181746
0.160422
0.136826
0.106888
0.0783914
0.048985
0.0268191
0.0405198
0.052595
0.0746809
0.0459563
0.047846
3.13454
3.2637
3.25226
3.20052
3.01847
2.37417
0.87939
0.25777
0.422503
0.157312
0.170374
0.199462
0.194267
0.184875
0.16419
0.141886
0.114473
0.0902403
0.0684943
0.0581201
0.0696603
0.0811256
0.0996613
0.0830207
0.0856994
3.13513
3.26498
3.25403
3.20469
3.03199
2.41782
0.950046
0.250914
0.433411
0.172657
0.180708
0.209461
0.203625
0.194583
0.17564
0.156199
0.133535
0.116124
0.103201
0.100381
0.112179
0.124722
0.141663
0.133998
0.138528
3.136
3.26684
3.25658
3.21071
3.05136
2.48103
1.0615
0.23925
0.448639
0.194705
0.193742
0.222424
0.21644
0.208122
0.191056
0.17502
0.157731
0.146563
0.140231
0.14317
0.156607
0.171198
0.189192
0.187433
0.195201
3.13706
3.26911
3.25968
3.21803
3.07469
2.55842
1.21024
0.224428
0.466661
0.223088
0.210514
0.23926
0.233193
0.225713
0.21042
0.197443
0.185282
0.179424
0.178413
0.18668
0.201804
0.218885
0.239134
0.242149
0.253729
3.13826
3.27166
3.26313
3.2262
3.10064
2.64667
1.39075
0.212955
0.484257
0.258628
0.229849
0.259124
0.25315
0.246173
0.2327
0.222482
0.215106
0.213883
0.218147
0.230519
0.247882
0.268047
0.291234
0.299323
0.314929
3.13953
3.27431
3.26669
3.23468
3.12762
2.74187
1.59872
0.234143
0.49831
0.301981
0.251389
0.281119
0.275994
0.268906
0.257902
0.249513
0.24637
0.249378
0.259254
0.274242
0.294858
0.318981
0.346193
0.358993
0.382077
3.14076
3.27688
3.27011
3.24299
3.15402
2.83811
1.83488
0.332078
0.506623
0.353954
0.274552
0.304428
0.301273
0.293016
0.284951
0.277705
0.278367
0.285315
0.300752
0.318385
0.342797
0.371468
0.404566
0.424129
0.460098
3.14171
3.27909
3.27317
3.25075
3.17828
2.9264
2.07813
0.517504
0.504875
0.415325
0.299248
0.328558
0.32846
0.318683
0.313364
0.306518
0.310494
0.321622
0.341925
0.363203
0.391941
0.426047
0.467767
0.499655
0.560107
3.1423
3.28092
3.27594
3.25792
3.19995
3.00304
2.31033
0.777144
0.488059
0.482066
0.32512
0.352837
0.357017
0.345847
0.342766
0.335583
0.342468
0.358124
0.382167
0.40783
0.44202
0.483376
0.538498
0.59397
0.71357
3.13428
3.26312
3.25146
3.19862
3.01236
2.35495
0.850938
0.25952
0.416366
0.149029
0.165919
0.196005
0.191469
0.182018
0.160667
0.137074
0.107192
0.0787931
0.0496187
0.0279292
0.0412166
0.053095
0.0750096
0.0464898
0.0483905
3.13456
3.26373
3.2523
3.20059
3.01869
2.37479
0.880272
0.258179
0.4231
0.15803
0.1708
0.19974
0.19449
0.185027
0.164345
0.142066
0.114716
0.0905645
0.068937
0.058644
0.0700887
0.0814757
0.0999367
0.0833339
0.0860115
3.13516
3.26501
3.25407
3.20478
3.03229
2.41871
0.951462
0.250451
0.433239
0.172369
0.180224
0.209057
0.203379
0.194552
0.175722
0.156332
0.133719
0.116369
0.103506
0.100704
0.112468
0.124972
0.141872
0.134209
0.138734
3.13601
3.26686
3.25661
3.21078
3.05158
2.48172
1.06272
0.238979
0.448766
0.194809
0.193698
0.222433
0.216439
0.208142
0.191139
0.175162
0.157917
0.14678
0.140472
0.143414
0.156834
0.171398
0.189363
0.187604
0.195362
3.13708
3.26913
3.25971
3.21808
3.07484
2.5589
1.21115
0.224231
0.466841
0.223358
0.210593
0.239367
0.233264
0.22576
0.210514
0.197593
0.185474
0.179631
0.178624
0.186885
0.201993
0.219055
0.239283
0.242302
0.253869
3.13828
3.27168
3.26316
3.22624
3.10076
2.64706
1.39154
0.212869
0.484332
0.258804
0.229846
0.259093
0.25318
0.24626
0.232839
0.222658
0.215304
0.214073
0.218339
0.230701
0.248048
0.268198
0.291371
0.299463
0.315061
3.13954
3.27433
3.26671
3.23472
3.12771
2.74218
1.59937
0.234273
0.498244
0.302138
0.251182
0.281024
0.27602
0.269043
0.258128
0.249741
0.246582
0.249559
0.25943
0.274413
0.29501
0.319121
0.346321
0.359121
0.382205
3.14077
3.27689
3.27012
3.24301
3.15408
2.83832
1.83546
0.33242
0.506522
0.354104
0.274467
0.304402
0.301337
0.293149
0.28516
0.277924
0.278581
0.285492
0.300913
0.318539
0.342934
0.371594
0.404683
0.424249
0.460223
3.14172
3.27909
3.27318
3.25077
3.17831
2.9265
2.07843
0.517817
0.504756
0.415452
0.29921
0.328569
0.328561
0.318842
0.313572
0.306743
0.310711
0.321794
0.342075
0.363346
0.392065
0.426156
0.467872
0.499769
0.560228
3.14231
3.28093
3.27595
3.25793
3.19996
3.00306
2.31044
0.777345
0.487942
0.482153
0.32509
0.352862
0.357123
0.346005
0.342931
0.335763
0.342657
0.35828
0.382304
0.407952
0.442125
0.48347
0.538584
0.594069
0.713686
3.14243
3.28231
3.27839
3.26438
3.21877
3.06669
2.51779
1.11814
0.456284
0.54579
0.354264
0.376914
0.387054
0.374677
0.37281
0.365837
0.374639
0.39413
0.420697
0.451781
0.492439
0.542104
0.613676
0.705132
0.899479
3.14199
3.28327
3.28054
3.26987
3.23441
3.11926
2.70357
1.50072
0.412157
0.594136
0.391869
0.401137
0.417881
0.405305
0.402433
0.398294
0.406756
0.428731
0.457419
0.493928
0.53966
0.597118
0.682602
0.792495
0.999217
3.14109
3.28401
3.28234
3.27391
3.24656
3.16145
2.86167
1.88762
0.445396
0.620437
0.447199
0.425332
0.447933
0.438023
0.43254
0.432517
0.438664
0.461036
0.490488
0.532471
0.583565
0.644764
0.735797
0.846434
1.03158
3.1401
3.2847
3.28326
3.27678
3.25677
3.19484
2.98353
2.23826
0.677597
0.619601
0.522924
0.448923
0.477609
0.472896
0.463956
0.467397
0.472531
0.490556
0.520927
0.568034
0.623693
0.686624
0.777018
0.883725
1.03
3.13945
3.28484
3.28419
3.27979
3.26515
3.22017
3.07228
2.52936
1.11255
0.590597
0.606492
0.473319
0.509211
0.510527
0.497584
0.501501
0.510294
0.518317
0.549696
0.597275
0.657495
0.721632
0.810721
0.905915
1.01554
3.1391
3.28475
3.28512
3.28219
3.27163
3.23923
3.13612
2.76221
1.62675
0.536506
0.668345
0.506758
0.54019
0.549508
0.532712
0.533381
0.544278
0.544852
0.572926
0.61771
0.682393
0.745518
0.827706
0.909184
0.992951
3.13891
3.28446
3.28611
3.28414
3.27651
3.25334
3.18165
2.93209
2.07759
0.594227
0.69152
0.564572
0.568034
0.586302
0.571456
0.563959
0.572915
0.575692
0.592805
0.635979
0.696008
0.756818
0.830262
0.904173
0.98077
3.1388
3.2842
3.28698
3.28557
3.28012
3.26381
3.21472
3.0511
2.44124
0.945071
0.693269
0.642543
0.59431
0.617986
0.612805
0.593275
0.599296
0.608319
0.611845
0.649394
0.702475
0.76012
0.829965
0.902663
0.975213
3.13875
3.28402
3.28761
3.2866
3.28272
3.27129
3.23794
3.13284
2.74697
1.54291
0.665898
0.711463
0.622169
0.648408
0.651392
0.626782
0.624143
0.634799
0.638234
0.662541
0.711724
0.764728
0.826405
0.901078
0.971278
3.13872
3.2839
3.28806
3.28734
3.28459
3.27663
3.25388
3.1852
2.94749
2.11399
0.72657
0.749773
0.671384
0.67909
0.686266
0.665417
0.650415
0.659109
0.671378
0.678657
0.719231
0.770122
0.824986
0.892736
0.965581
3.1387
3.28383
3.28836
3.28783
3.28588
3.28035
3.26512
3.22093
3.07618
2.53242
1.11271
0.770514
0.736878
0.714997
0.715764
0.705834
0.679712
0.680366
0.692149
0.698662
0.726661
0.773443
0.825742
0.883141
0.953998
3.13869
3.28379
3.28854
3.28815
3.28672
3.28282
3.27268
3.24474
3.1593
2.85071
1.78451
0.799528
0.794642
0.760781
0.746603
0.74033
0.709365
0.70231
0.712652
0.729166
0.738452
0.776428
0.826271
0.879419
0.937178
3.13868
3.28377
3.28864
3.28834
3.28723
3.2844
3.27756
3.25984
3.2092
3.04241
2.41626
1.07116
0.83658
0.814687
0.787278
0.769934
0.741539
0.728122
0.734318
0.750624
0.766195
0.784807
0.828063
0.879281
0.931035
3.13867
3.28376
3.28867
3.28842
3.28752
3.28527
3.28052
3.26926
3.23907
3.14791
2.82026
1.71201
0.893719
0.862383
0.839232
0.807857
0.78265
0.758355
0.758979
0.775303
0.798136
0.8107
0.836235
0.8809
0.930636
3.13867
3.28376
3.28867
3.28844
3.28762
3.28557
3.28224
3.27473
3.25621
3.20641
3.04864
2.44413
1.2099
0.908858
0.895831
0.855446
0.829185
0.801132
0.791145
0.800804
0.823316
0.850694
0.861635
0.88947
0.932496
3.13867
3.28376
3.28867
3.28844
3.28764
3.28563
3.28305
3.27756
3.2654
3.23689
3.15868
2.88839
1.93812
1.03375
0.945571
0.918022
0.879672
0.854751
0.830637
0.831363
0.854766
0.881932
0.907951
0.913309
0.941135
3.13867
3.28376
3.28867
3.28844
3.28765
3.28565
3.28319
3.27873
3.26925
3.25187
3.21186
3.09393
2.66497
1.56491
1.02118
0.976483
0.936731
0.908283
0.880538
0.865906
0.884473
0.915534
0.945956
0.96787
0.966517
3.13867
3.28376
3.28867
3.28844
3.28765
3.28565
3.28319
3.27889
3.27008
3.25895
3.23544
3.17756
3.00716
2.40662
1.38809
1.03801
1.00096
0.959495
0.935389
0.910365
0.914563
0.945715
0.977158
1.00926
1.02436
3.13867
3.28376
3.28867
3.28844
3.28765
3.28566
3.28319
3.2789
3.27
3.26078
3.24498
3.20814
3.12773
2.91034
2.20685
1.33323
1.05422
1.01704
0.985996
0.959642
0.951354
0.973169
1.01027
1.0408
1.06778
3.13867
3.28376
3.28867
3.28844
3.28765
3.28565
3.28319
3.2789
3.26997
3.2606
3.24633
3.21568
3.16893
3.06839
2.80687
2.10667
1.3248
1.06638
1.03247
1.00749
0.991661
1.00144
1.03344
1.06899
1.09942
3.13867
3.28376
3.28867
3.28844
3.28765
3.28566
3.28319
3.2789
3.26998
3.2606
3.2464
3.21615
3.17725
3.10913
2.96279
2.67921
2.08067
1.38828
1.09222
1.04506
1.03036
1.03136
1.05241
1.08883
1.12174
3.13867
3.28376
3.28867
3.28844
3.28765
3.28565
3.28319
3.2789
3.26997
3.26059
3.24639
3.2162
3.17711
3.11198
2.98142
2.79858
2.47634
2.00724
1.52792
1.17568
1.0637
1.05811
1.07062
1.09976
1.13926
3.13867
3.28376
3.28867
3.28844
3.28765
3.28566
3.28319
3.2789
3.26998
3.2606
3.2464
3.21621
3.17713
3.11215
2.98192
2.80749
2.51475
2.15376
1.87489
1.60108
1.29948
1.10388
1.08198
1.10703
1.14332
3.13868
3.28376
3.28868
3.28844
3.28765
3.28565
3.28319
3.2789
3.26997
3.26059
3.24639
3.2162
3.1771
3.11209
2.98191
2.80777
2.51604
2.16337
1.91118
1.75541
1.6066
1.39948
1.18192
1.10916
1.13927
3.13867
3.28376
3.28867
3.28844
3.28765
3.28566
3.28319
3.2789
3.26998
3.2606
3.2464
3.21623
3.17713
3.11216
2.98205
2.80798
2.5164
2.16456
1.91377
1.77261
1.67921
1.59363
1.47139
1.30813
1.17464
3.13867
3.28376
3.28868
3.28844
3.28765
3.28565
3.28319
3.2789
3.26997
3.26059
3.24639
3.2162
3.1771
3.11209
2.98192
2.8078
2.51604
2.16407
1.91326
1.77289
1.68551
1.62374
1.57657
1.51764
1.4248
3.13867
3.28376
3.28867
3.28844
3.28765
3.28566
3.28319
3.2789
3.26998
3.2606
3.2464
3.21622
3.17714
3.11216
2.98198
2.80792
2.51627
2.16418
1.91336
1.77303
1.68611
1.62639
1.59062
1.5697
1.54726
3.13867
3.28376
3.28867
3.28844
3.28765
3.28565
3.28319
3.2789
3.26997
3.26059
3.24639
3.21621
3.17711
3.11211
2.98194
2.80783
2.51611
2.16413
1.91331
1.77304
1.68627
1.62686
1.59227
1.57678
1.56995
3.13867
3.28376
3.28867
3.28844
3.28765
3.28566
3.28319
3.2789
3.26998
3.2606
3.2464
3.21622
3.17714
3.11216
2.98198
2.80793
2.5163
2.1642
1.91335
1.773
1.68612
1.62661
1.59217
1.57733
1.57259
3.13867
3.28376
3.28867
3.28844
3.28765
3.28566
3.28319
3.2789
3.26998
3.2606
3.24639
3.21621
3.17712
3.11212
2.98195
2.80784
2.51613
2.16412
1.91326
1.77295
1.68613
1.62669
1.59224
1.57749
1.57307
3.13867
3.28376
3.28867
3.28844
3.28765
3.28566
3.28319
3.27891
3.26998
3.2606
3.24641
3.21623
3.17715
3.11218
2.98206
2.808
2.51642
2.1646
1.91385
1.77369
1.68708
1.62782
1.59342
1.57876
1.57448
3.13867
3.28376
3.28867
3.28844
3.28765
3.28566
3.28319
3.2789
3.26998
3.2606
3.2464
3.21621
3.17714
3.11214
2.98195
2.80788
2.51616
2.16405
1.91324
1.77289
1.686
1.6265
1.59206
1.57733
1.57301
3.13867
3.28376
3.28867
3.28844
3.28765
3.28566
3.28319
3.27891
3.26998
3.26061
3.2464
3.21622
3.17716
3.11217
2.98198
2.80792
2.51625
2.16409
1.91324
1.77288
1.68599
1.62647
1.59205
1.57732
1.57301
3.13867
3.28376
3.28867
3.28844
3.28765
3.28566
3.28319
3.27891
3.26998
3.2606
3.2464
3.21623
3.17714
3.11218
2.98205
2.80799
2.51644
2.16452
1.91373
1.77358
1.68701
1.62781
1.59344
1.57881
1.57457
3.13867
3.28376
3.28867
3.28844
3.28765
3.28566
3.28319
3.27891
3.26998
3.26061
3.24641
3.21622
3.17716
3.11219
2.98198
2.80792
2.51632
2.16412
1.91323
1.77285
1.68594
1.62643
1.59202
1.57729
1.57299
3.13867
3.28376
3.28867
3.28844
3.28765
3.28566
3.28319
3.27891
3.26998
3.26061
3.2464
3.21622
3.17716
3.11217
2.98197
2.8079
2.5162
2.16405
1.91321
1.77285
1.68595
1.62644
1.59201
1.57729
1.57297
3.13867
3.28376
3.28867
3.28844
3.28765
3.28566
3.28319
3.27891
3.26999
3.26061