/*--------------------------------*- C++ -*----------------------------------*\
| =========                 |                                                 |
| \\      /  F ield         | OpenFOAM: The Open Source CFD Toolbox           |
|  \\    /   O peration     | Version:  4.1                                   |
|   \\  /    A nd           | Web:      www.OpenFOAM.org                      |
|    \\/     M anipulation  |                                                 |
\*---------------------------------------------------------------------------*/
FoamFile
{
    version     2.0;
    format      ascii;
    class       volScalarField;
    location    "0.5";
    object      p;
}
// * * * * * * * * * * * * * * * * * * * * * * * * * * * * * * * * * * * * * //

dimensions      [1 -1 -2 0 0 0 0];

internalField   nonuniform List<scalar> 
52500
(
0.0904182
0.064298
0.0650279
0.0681875
0.0796088
0.126829
0.376204
1.74808
1.72246
1.26673
1.20626
1.14773
1.04479
0.968902
0.902962
0.851144
0.80888
0.772851
0.741484
0.712598
0.683382
0.650414
0.625984
0.591298
0.582292
0.0904118
0.0642538
0.0649678
0.0680599
0.0792145
0.125073
0.36651
1.72076
1.738
1.26972
1.2078
1.15077
1.04797
0.971667
0.904976
0.852869
0.81051
0.774364
0.743055
0.714126
0.685252
0.652533
0.627996
0.593748
0.584307
0.0903984
0.0641607
0.0648412
0.0677892
0.0783716
0.121302
0.3455
1.65367
1.77493
1.27222
1.20812
1.15429
1.0509
0.97389
0.906081
0.853698
0.81111
0.77457
0.743049
0.713671
0.68555
0.653412
0.628407
0.59558
0.584867
0.0903792
0.0640262
0.0646578
0.0673981
0.0771692
0.116082
0.317297
1.53627
1.83732
1.27753
1.20825
1.15893
1.05527
0.977298
0.907939
0.854856
0.81186
0.774571
0.742548
0.712072
0.685158
0.654483
0.628845
0.598307
0.58558
0.0903556
0.0638613
0.0644327
0.0669188
0.0757146
0.110029
0.285573
1.36629
1.92396
1.28702
1.20755
1.16372
1.06072
0.981274
0.910401
0.856363
0.812704
0.77446
0.74182
0.709192
0.684398
0.655285
0.629404
0.60129
0.586681
0.0903293
0.0636755
0.0641791
0.0663796
0.0740887
0.103547
0.252887
1.15707
2.01575
1.30387
1.20523
1.1686
1.06747
0.986057
0.913382
0.858118
0.813463
0.774074
0.740148
0.706639
0.683256
0.655084
0.629575
0.602566
0.587898
0.0903023
0.0634797
0.0639122
0.0658141
0.0723927
0.0969738
0.219028
0.93724
2.08649
1.33394
1.20037
1.17223
1.07584
0.991291
0.917193
0.860196
0.813989
0.773167
0.737278
0.705268
0.681496
0.654222
0.629215
0.602012
0.587481
0.0902773
0.0632841
0.0636464
0.0652544
0.0707349
0.0906299
0.184894
0.72375
2.11831
1.38275
1.19376
1.17403
1.08599
0.997116
0.92209
0.86253
0.814245
0.771788
0.734367
0.703983
0.679421
0.65212
0.627372
0.599341
0.583896
0.0902623
0.0631
0.0633956
0.0647283
0.0692169
0.0849975
0.155254
0.541805
2.07875
1.46142
1.18913
1.1742
1.09801
1.0044
0.92748
0.865106
0.814367
0.769855
0.732358
0.701684
0.676142
0.648441
0.622844
0.592226
0.571403
0.0902585
0.0629343
0.0631681
0.0642507
0.0678655
0.0802007
0.131524
0.406304
1.8728
1.59501
1.19035
1.1719
1.11186
1.01285
0.933752
0.867777
0.814792
0.768093
0.731057
0.699325
0.67165
0.641618
0.613495
0.576947
0.539148
0.0904187
0.0643
0.0650305
0.0681927
0.0796245
0.126897
0.376565
1.74878
1.72161
1.26655
1.20619
1.14766
1.04475
0.968873
0.902946
0.851137
0.808878
0.772854
0.741481
0.712592
0.683368
0.650382
0.625939
0.591242
0.582235
0.0904123
0.0642554
0.0649699
0.0680639
0.0792259
0.12512
0.366725
1.72149
1.73736
1.26942
1.20776
1.15076
1.04794
0.971632
0.904955
0.85286
0.810505
0.774362
0.74305
0.714117
0.685236
0.652501
0.627954
0.593696
0.584254
0.090399
0.0641625
0.0648436
0.067794
0.0783855
0.121359
0.345783
1.65438
1.77415
1.27208
1.20807
1.1542
1.05086
0.97387
0.906068
0.853675
0.811093
0.77456
0.743037
0.713656
0.68553
0.653382
0.628369
0.595537
0.584821
0.0903797
0.0640278
0.06466
0.0674024
0.0771817
0.116133
0.317548
1.53728
1.83648
1.27742
1.20818
1.1588
1.05515
0.977226
0.907894
0.854821
0.811831
0.774549
0.74253
0.712051
0.685132
0.654456
0.628809
0.598272
0.585541
0.0903561
0.0638627
0.0644346
0.0669225
0.0757251
0.11007
0.285776
1.36747
1.92317
1.28688
1.2075
1.16358
1.0606
0.981203
0.910348
0.856316
0.81266
0.774434
0.741794
0.709161
0.684363
0.655263
0.629379
0.601269
0.586658
0.0903296
0.0636766
0.0641805
0.0663825
0.0740972
0.103581
0.253054
1.15817
2.01504
1.30381
1.20532
1.16849
1.06734
0.98599
0.913346
0.858071
0.81341
0.774038
0.740115
0.706594
0.683217
0.655062
0.629559
0.602559
0.587891
0.0903026
0.0634805
0.0639133
0.0658162
0.0723988
0.0969966
0.219138
0.937913
2.08636
1.3339
1.20039
1.17208
1.07571
0.991224
0.917129
0.86014
0.813927
0.773116
0.737229
0.705219
0.681452
0.654199
0.629203
0.602008
0.587477
0.0902776
0.0632846
0.063647
0.0652556
0.0707388
0.0906452
0.184981
0.724312
2.11827
1.38269
1.19387
1.17397
1.08589
0.997041
0.922005
0.862449
0.814182
0.771724
0.734305
0.703922
0.679372
0.652095
0.62737
0.599346
0.583906
0.0902626
0.0631003
0.063396
0.0647291
0.0692191
0.0850059
0.1553
0.542093
2.07904
1.46123
1.18924
1.1742
1.09796
1.00435
0.927415
0.865033
0.814297
0.769782
0.732285
0.701618
0.676088
0.648416
0.622845
0.59224
0.571431
0.0902589
0.0629345
0.0631684
0.0642512
0.0678668
0.0802052
0.131547
0.406454
1.87331
1.59479
1.19035
1.1719
1.11183
1.01281
0.933696
0.867707
0.814713
0.768007
0.730973
0.699255
0.671598
0.641589
0.61349
0.576973
0.539194
0.0904186
0.0642992
0.0650294
0.0681904
0.0796172
0.126864
0.376384
1.7484
1.72203
1.26672
1.20624
1.14766
1.04475
0.968859
0.902928
0.851105
0.808837
0.772813
0.741451
0.712571
0.683359
0.650391
0.62596
0.591279
0.582268
0.0904122
0.0642547
0.0649691
0.0680623
0.0792211
0.125101
0.366642
1.72111
1.73765
1.26963
1.20778
1.15073
1.04793
0.971624
0.904937
0.852823
0.810461
0.77432
0.743017
0.714095
0.685227
0.652511
0.627974
0.593732
0.584288
0.0903988
0.0641615
0.0648423
0.0677914
0.0783777
0.121326
0.345621
1.65401
1.7746
1.27213
1.20808
1.15425
1.05086
0.973843
0.906036
0.853645
0.811055
0.774519
0.743001
0.713631
0.68552
0.653393
0.628389
0.595572
0.584854
0.0903796
0.064027
0.0646588
0.0674
0.0771746
0.116104
0.317404
1.5367
1.83699
1.27741
1.20819
1.15888
1.05522
0.977253
0.907883
0.854794
0.811797
0.77451
0.742493
0.712024
0.685123
0.654466
0.628831
0.598307
0.585575
0.0903559
0.0638619
0.0644336
0.0669205
0.0757192
0.110047
0.28566
1.36679
1.92365
1.28682
1.20748
1.16366
1.06064
0.981204
0.910324
0.85629
0.812633
0.774396
0.741757
0.709134
0.684357
0.655272
0.6294
0.601302
0.586692
0.0903296
0.0636762
0.0641799
0.0663811
0.074093
0.103564
0.252967
1.15758
2.01542
1.30372
1.20524
1.16857
1.06739
0.985995
0.913316
0.858045
0.813385
0.774001
0.74008
0.706573
0.683211
0.655071
0.629579
0.602589
0.587926
0.0903026
0.0634803
0.0639129
0.0658154
0.0723966
0.0969876
0.219092
0.93761
2.08643
1.33387
1.2003
1.17211
1.07574
0.991223
0.917117
0.86012
0.813905
0.773083
0.737199
0.7052
0.681447
0.654208
0.629222
0.602038
0.587512
0.0902776
0.0632846
0.063647
0.0652554
0.070738
0.0906414
0.184957
0.724148
2.1182
1.3827
1.19381
1.17395
1.08589
0.997034
0.922007
0.862444
0.814162
0.771694
0.734283
0.703908
0.679367
0.652103
0.627387
0.599375
0.583941
0.0902626
0.0631003
0.063396
0.064729
0.069219
0.085005
0.155294
0.542043
2.07888
1.46125
1.18922
1.17414
1.09792
1.00433
0.927406
0.86502
0.814279
0.769761
0.73227
0.701609
0.676085
0.648421
0.622861
0.592267
0.571464
0.0902589
0.0629346
0.0631685
0.0642513
0.0678669
0.0802056
0.131548
0.406452
1.8732
1.5948
1.19038
1.17184
1.11179
1.01279
0.933688
0.867701
0.814696
0.767996
0.730965
0.699251
0.671597
0.641593
0.613504
0.576997
0.539222
0.0904186
0.0642993
0.0650295
0.0681907
0.0796181
0.126869
0.376408
1.74845
1.72198
1.26672
1.20625
1.14767
1.04476
0.968868
0.90294
0.851117
0.808849
0.772825
0.741461
0.712582
0.683374
0.65041
0.625986
0.591322
0.582311
0.0904122
0.0642548
0.0649692
0.0680625
0.0792218
0.125104
0.366656
1.72116
1.73762
1.26962
1.20779
1.15074
1.04794
0.971633
0.904946
0.852833
0.810471
0.774331
0.743027
0.714105
0.685242
0.65253
0.628001
0.593775
0.584332
0.0903988
0.0641616
0.0648424
0.0677916
0.0783784
0.121329
0.345635
1.65405
1.77457
1.27213
1.2081
1.15426
1.05086
0.973854
0.906041
0.853649
0.81106
0.774527
0.74301
0.713641
0.685535
0.653415
0.628416
0.595617
0.584899
0.0903796
0.064027
0.0646589
0.0674002
0.0771752
0.116106
0.317414
1.53674
1.83695
1.27742
1.2082
1.15888
1.0552
0.977237
0.907875
0.85479
0.811798
0.774514
0.7425
0.712033
0.685138
0.654488
0.628859
0.598353
0.585622
0.0903559
0.0638621
0.0644337
0.0669208
0.0757202
0.110051
0.285679
1.3669
1.92356
1.28687
1.20749
1.16363
1.06063
0.9812
0.910318
0.856282
0.812626
0.774397
0.741761
0.70914
0.684371
0.655296
0.629431
0.601349
0.586741
0.0903296
0.0636762
0.0641799
0.0663813
0.0740936
0.103567
0.252982
1.15768
2.01531
1.30376
1.20525
1.16853
1.06737
0.985983
0.913312
0.858036
0.813373
0.773999
0.740081
0.706577
0.683223
0.655094
0.629611
0.602636
0.587979
0.0903025
0.0634802
0.0639129
0.0658154
0.0723965
0.0969879
0.219095
0.937641
2.08639
1.33388
1.20031
1.17209
1.07573
0.991202
0.917101
0.860103
0.813888
0.773074
0.737195
0.705203
0.681458
0.65423
0.629255
0.602086
0.587567
0.0902775
0.0632845
0.0636468
0.0652552
0.0707376
0.0906403
0.184953
0.724119
2.11824
1.38268
1.19379
1.17395
1.0859
0.997023
0.921977
0.862413
0.814141
0.771681
0.734274
0.703907
0.679376
0.652124
0.627421
0.599422
0.583998
0.0902626
0.0631002
0.0633959
0.0647289
0.0692186
0.0850039
0.155288
0.542015
2.07891
1.46122
1.18917
1.17416
1.09795
1.00433
0.927389
0.864998
0.814256
0.769742
0.732258
0.701604
0.67609
0.64844
0.622893
0.592313
0.571523
0.0902589
0.0629345
0.0631684
0.0642512
0.0678667
0.0802047
0.131544
0.406431
1.87317
1.59478
1.19032
1.17186
1.11181
1.01279
0.933671
0.867674
0.814676
0.767974
0.730949
0.699243
0.671599
0.641607
0.61353
0.57704
0.539279
0.0904186
0.0642992
0.0650294
0.0681905
0.0796175
0.126865
0.376385
1.74837
1.72198
1.26671
1.20624
1.14767
1.04476
0.96887
0.90294
0.851117
0.808849
0.772822
0.741456
0.712575
0.68337
0.650407
0.625987
0.591323
0.582317
0.0904122
0.0642548
0.0649691
0.0680623
0.0792212
0.125101
0.366636
1.72107
1.73761
1.26961
1.20778
1.15074
1.04794
0.971634
0.904946
0.852834
0.810472
0.774329
0.743023
0.7141
0.685238
0.652528
0.628002
0.593776
0.584336
0.0903988
0.0641616
0.0648423
0.0677914
0.0783777
0.121326
0.345614
1.65395
1.77457
1.27212
1.20811
1.15426
1.05086
0.973856
0.906042
0.85365
0.811061
0.774526
0.743007
0.713637
0.685531
0.653411
0.628417
0.595616
0.584901
0.0903795
0.064027
0.0646588
0.0674
0.0771745
0.116102
0.317392
1.53661
1.83694
1.27744
1.20823
1.15889
1.0552
0.977241
0.907878
0.854792
0.8118
0.774513
0.742498
0.71203
0.685133
0.654482
0.628859
0.598351
0.585622
0.0903559
0.063862
0.0644336
0.0669205
0.0757193
0.110047
0.285656
1.36674
1.92358
1.28694
1.20752
1.16366
1.06065
0.98121
0.910324
0.856286
0.81263
0.774398
0.74176
0.709141
0.684366
0.655289
0.629429
0.601345
0.586737
0.0903295
0.0636761
0.0641798
0.0663809
0.0740925
0.103562
0.252958
1.15752
2.0154
1.30382
1.20521
1.16852
1.06741
0.986
0.91332
0.858043
0.813379
0.774002
0.740083
0.706576
0.683221
0.655087
0.629608
0.60263
0.587969
0.0903025
0.0634801
0.0639127
0.0658149
0.0723951
0.0969826
0.219071
0.937498
2.08639
1.33386
1.20034
1.17217
1.07578
0.991226
0.917113
0.860112
0.813896
0.773079
0.737199
0.7052
0.681455
0.654224
0.62925
0.602078
0.587559
0.0902775
0.0632843
0.0636467
0.0652548
0.0707363
0.0906353
0.184925
0.723943
2.11832
1.38265
1.19371
1.17401
1.08595
0.997051
0.92199
0.862422
0.814149
0.771688
0.734278
0.703907
0.679374
0.652117
0.627412
0.599412
0.583987
0.0902626
0.0631001
0.0633958
0.0647286
0.0692178
0.0850005
0.155271
0.541912
2.07889
1.46129
1.18905
1.17419
1.098
1.00435
0.927403
0.865011
0.814266
0.76975
0.732262
0.701604
0.676088
0.648433
0.622882
0.592299
0.57151
0.0902589
0.0629345
0.0631683
0.064251
0.0678661
0.0802026
0.131534
0.406367
1.873
1.59487
1.19023
1.17188
1.11185
1.0128
0.933685
0.867686
0.814688
0.76798
0.730952
0.699241
0.671594
0.641599
0.613519
0.577021
0.539264
0.0904186
0.0642993
0.0650295
0.0681907
0.0796182
0.126868
0.376404
1.74842
1.72196
1.26672
1.20624
1.14766
1.04475
0.968859
0.902932
0.85111
0.808843
0.772819
0.741457
0.712578
0.683374
0.650411
0.625991
0.59133
0.58232
0.0904122
0.0642548
0.0649692
0.0680625
0.0792217
0.125103
0.36665
1.72112
1.7376
1.26962
1.20778
1.15073
1.04793
0.971624
0.904938
0.852826
0.810466
0.774326
0.743023
0.714103
0.685241
0.652532
0.628005
0.593783
0.584341
0.0903988
0.0641616
0.0648424
0.0677916
0.0783782
0.121328
0.345626
1.654
1.77455
1.27213
1.20811
1.15426
1.05086
0.973847
0.906035
0.853643
0.811055
0.774523
0.743007
0.713639
0.685534
0.653415
0.628419
0.595623
0.584907
0.0903796
0.064027
0.0646589
0.0674002
0.0771749
0.116104
0.317403
1.53666
1.83693
1.27744
1.20823
1.15889
1.0552
0.977233
0.90787
0.854785
0.811794
0.77451
0.742498
0.712031
0.685136
0.654488
0.628862
0.598358
0.585628
0.0903559
0.063862
0.0644337
0.0669207
0.0757197
0.110048
0.285664
1.3668
1.92356
1.28694
1.20752
1.16365
1.06065
0.981201
0.910316
0.856279
0.812624
0.774395
0.741759
0.709139
0.68437
0.655294
0.629431
0.601351
0.586745
0.0903295
0.0636761
0.0641798
0.066381
0.0740928
0.103563
0.252964
1.15757
2.01538
1.30382
1.20521
1.16852
1.0674
0.985992
0.913312
0.858035
0.813372
0.773998
0.74008
0.706577
0.683223
0.655092
0.629609
0.602635
0.587979
0.0903025
0.0634801
0.0639127
0.065815
0.0723954
0.0969836
0.219076
0.937529
2.0864
1.33387
1.20035
1.17217
1.07577
0.991218
0.917105
0.860104
0.813889
0.773075
0.737196
0.705204
0.681458
0.654228
0.629252
0.602083
0.587566
0.0902775
0.0632844
0.0636467
0.0652549
0.0707365
0.090636
0.184929
0.723973
2.11833
1.38265
1.19372
1.17401
1.08595
0.997043
0.921982
0.862415
0.814143
0.771683
0.734275
0.703909
0.679376
0.652122
0.627416
0.599418
0.583993
0.0902626
0.0631002
0.0633958
0.0647287
0.0692179
0.0850011
0.155274
0.54193
2.07891
1.46128
1.18905
1.17419
1.098
1.00435
0.927394
0.865002
0.814259
0.769746
0.73226
0.701606
0.67609
0.648437
0.622886
0.592306
0.571514
0.0902589
0.0629345
0.0631683
0.064251
0.0678662
0.0802029
0.131535
0.406378
1.87303
1.59486
1.19023
1.17188
1.11184
1.0128
0.933677
0.867679
0.81468
0.767978
0.730952
0.699245
0.671599
0.641605
0.613524
0.57703
0.539265
0.0904186
0.0642993
0.0650295
0.0681907
0.0796181
0.126869
0.376408
1.74845
1.72198
1.26672
1.20625
1.14767
1.04476
0.968868
0.90294
0.851117
0.808849
0.772825
0.741461
0.712582
0.683374
0.65041
0.625986
0.591322
0.582311
0.0904122
0.0642548
0.0649692
0.0680625
0.0792218
0.125104
0.366656
1.72116
1.73762
1.26962
1.20779
1.15074
1.04794
0.971633
0.904945
0.852833
0.810471
0.774331
0.743027
0.714105
0.685242
0.65253
0.628001
0.593775
0.584332
0.0903988
0.0641616
0.0648424
0.0677916
0.0783784
0.121329
0.345635
1.65405
1.77457
1.27213
1.2081
1.15426
1.05086
0.973854
0.906041
0.853648
0.81106
0.774527
0.74301
0.713641
0.685535
0.653415
0.628416
0.595617
0.584899
0.0903796
0.064027
0.0646589
0.0674002
0.0771752
0.116106
0.317414
1.53674
1.83695
1.27742
1.2082
1.15888
1.0552
0.977237
0.907875
0.85479
0.811798
0.774513
0.7425
0.712033
0.685138
0.654488
0.628859
0.598353
0.585622
0.0903559
0.0638621
0.0644337
0.0669208
0.0757202
0.110051
0.285679
1.36691
1.92356
1.28687
1.20749
1.16363
1.06063
0.9812
0.910318
0.856282
0.812626
0.774397
0.741761
0.70914
0.684371
0.655296
0.629431
0.601349
0.586742
0.0903296
0.0636762
0.0641799
0.0663813
0.0740936
0.103567
0.252982
1.15768
2.01531
1.30376
1.20525
1.16853
1.06737
0.985983
0.913312
0.858036
0.813373
0.773999
0.740081
0.706577
0.683223
0.655094
0.629611
0.602636
0.587979
0.0903025
0.0634802
0.0639129
0.0658154
0.0723965
0.0969879
0.219095
0.937641
2.08639
1.33388
1.20031
1.17209
1.07573
0.991202
0.917101
0.860103
0.813888
0.773073
0.737195
0.705203
0.681458
0.654231
0.629255
0.602086
0.587567
0.0902775
0.0632845
0.0636468
0.0652552
0.0707376
0.0906403
0.184953
0.724119
2.11824
1.38268
1.19379
1.17395
1.0859
0.997023
0.921976
0.862412
0.814141
0.771681
0.734274
0.703907
0.679376
0.652124
0.627421
0.599422
0.583998
0.0902626
0.0631002
0.0633959
0.0647289
0.0692186
0.0850039
0.155289
0.542015
2.07891
1.46122
1.18917
1.17416
1.09795
1.00433
0.927389
0.864998
0.814256
0.769742
0.732258
0.701604
0.67609
0.64844
0.622893
0.592313
0.571523
0.0902589
0.0629345
0.0631684
0.0642512
0.0678667
0.0802047
0.131545
0.406431
1.87317
1.59478
1.19032
1.17186
1.11181
1.01279
0.933671
0.867674
0.814676
0.767974
0.730949
0.699243
0.671599
0.641607
0.61353
0.57704
0.539279
0.0904186
0.0642992
0.0650294
0.0681904
0.0796172
0.126864
0.376384
1.7484
1.72203
1.26672
1.20624
1.14766
1.04475
0.968859
0.902928
0.851105
0.808837
0.772813
0.741451
0.712571
0.683359
0.650391
0.62596
0.591279
0.582268
0.0904122
0.0642547
0.0649691
0.0680623
0.0792211
0.125101
0.366642
1.72111
1.73765
1.26963
1.20778
1.15073
1.04793
0.971624
0.904937
0.852823
0.810461
0.77432
0.743017
0.714095
0.685227
0.652511
0.627974
0.593732
0.584288
0.0903988
0.0641615
0.0648423
0.0677914
0.0783777
0.121326
0.345621
1.65401
1.7746
1.27213
1.20808
1.15425
1.05086
0.973843
0.906036
0.853645
0.811055
0.774519
0.743001
0.713631
0.68552
0.653393
0.628389
0.595572
0.584854
0.0903796
0.064027
0.0646588
0.0674
0.0771746
0.116104
0.317404
1.5367
1.83699
1.27741
1.20819
1.15888
1.05522
0.977253
0.907883
0.854794
0.811797
0.77451
0.742493
0.712024
0.685123
0.654466
0.628831
0.598307
0.585575
0.0903559
0.0638619
0.0644336
0.0669205
0.0757192
0.110047
0.28566
1.36679
1.92365
1.28682
1.20748
1.16366
1.06064
0.981204
0.910324
0.85629
0.812633
0.774396
0.741757
0.709134
0.684357
0.655272
0.6294
0.601302
0.586692
0.0903296
0.0636762
0.0641799
0.0663811
0.074093
0.103564
0.252967
1.15758
2.01542
1.30372
1.20524
1.16857
1.06739
0.985995
0.913316
0.858045
0.813385
0.774001
0.74008
0.706573
0.683211
0.655071
0.629579
0.602589
0.587926
0.0903026
0.0634803
0.0639129
0.0658154
0.0723966
0.0969876
0.219092
0.93761
2.08643
1.33387
1.2003
1.17211
1.07574
0.991223
0.917117
0.86012
0.813905
0.773083
0.737199
0.7052
0.681447
0.654208
0.629222
0.602038
0.587512
0.0902776
0.0632846
0.063647
0.0652554
0.070738
0.0906414
0.184957
0.724148
2.1182
1.3827
1.19381
1.17395
1.08589
0.997034
0.922007
0.862444
0.814162
0.771694
0.734283
0.703908
0.679367
0.652103
0.627387
0.599375
0.583941
0.0902626
0.0631003
0.063396
0.064729
0.069219
0.085005
0.155294
0.542043
2.07888
1.46125
1.18922
1.17414
1.09792
1.00433
0.927406
0.86502
0.814279
0.769761
0.73227
0.701609
0.676085
0.648421
0.622861
0.592267
0.571464
0.0902589
0.0629346
0.0631685
0.0642513
0.0678669
0.0802056
0.131548
0.406452
1.8732
1.5948
1.19038
1.17184
1.11179
1.01279
0.933688
0.867701
0.814696
0.767996
0.730965
0.699251
0.671597
0.641593
0.613504
0.576997
0.539222
0.0904187
0.0643
0.0650305
0.0681927
0.0796245
0.126897
0.376564
1.74878
1.72161
1.26655
1.20619
1.14766
1.04475
0.968873
0.902946
0.851137
0.808879
0.772854
0.741481
0.712592
0.683368
0.650382
0.625938
0.591242
0.582234
0.0904123
0.0642554
0.0649699
0.0680639
0.0792258
0.12512
0.366724
1.72149
1.73736
1.26942
1.20776
1.15076
1.04794
0.971632
0.904956
0.85286
0.810506
0.774362
0.74305
0.714117
0.685236
0.652501
0.627953
0.593695
0.584254
0.090399
0.0641625
0.0648436
0.067794
0.0783855
0.121359
0.345782
1.65438
1.77415
1.27208
1.20807
1.1542
1.05086
0.97387
0.906068
0.853676
0.811093
0.77456
0.743037
0.713656
0.68553
0.653382
0.628368
0.595536
0.58482
0.0903797
0.0640278
0.06466
0.0674024
0.0771817
0.116133
0.317548
1.53728
1.83648
1.27742
1.20818
1.1588
1.05515
0.977226
0.907894
0.854821
0.811831
0.774549
0.742529
0.71205
0.685132
0.654455
0.628809
0.598272
0.585541
0.0903561
0.0638627
0.0644346
0.0669225
0.0757251
0.11007
0.285775
1.36747
1.92317
1.28688
1.2075
1.16358
1.0606
0.981203
0.910348
0.856316
0.81266
0.774434
0.741794
0.709161
0.684363
0.655262
0.629378
0.601268
0.586657
0.0903296
0.0636766
0.0641805
0.0663825
0.0740972
0.103581
0.253054
1.15817
2.01504
1.30381
1.20532
1.16849
1.06734
0.98599
0.913345
0.858071
0.81341
0.774038
0.740115
0.706594
0.683216
0.655062
0.629559
0.602558
0.58789
0.0903026
0.0634805
0.0639133
0.0658162
0.0723988
0.0969965
0.219138
0.937912
2.08636
1.3339
1.20039
1.17208
1.07571
0.991224
0.917128
0.86014
0.813927
0.773115
0.737229
0.705219
0.681452
0.654199
0.629203
0.602008
0.587477
0.0902776
0.0632846
0.063647
0.0652556
0.0707388
0.0906452
0.184981
0.724312
2.11827
1.38269
1.19387
1.17397
1.08589
0.997041
0.922005
0.862449
0.814182
0.771724
0.734304
0.703921
0.679371
0.652095
0.627369
0.599346
0.583906
0.0902626
0.0631003
0.063396
0.0647291
0.0692191
0.0850059
0.1553
0.542093
2.07904
1.46123
1.18924
1.1742
1.09796
1.00435
0.927414
0.865033
0.814296
0.769782
0.732285
0.701618
0.676088
0.648415
0.622845
0.59224
0.571431
0.0902589
0.0629345
0.0631684
0.0642512
0.0678668
0.0802052
0.131548
0.406454
1.87331
1.59479
1.19035
1.1719
1.11183
1.01281
0.933696
0.867707
0.814713
0.768007
0.730973
0.699255
0.671598
0.641589
0.61349
0.576973
0.539194
0.0904182
0.064298
0.0650279
0.0681875
0.0796089
0.126829
0.37621
1.74801
1.72245
1.26683
1.20629
1.14775
1.04484
0.968951
0.903012
0.851189
0.808912
0.77287
0.741486
0.712587
0.683374
0.650377
0.625949
0.591238
0.582244
0.0904118
0.0642536
0.0649676
0.0680593
0.0792126
0.125065
0.36646
1.72068
1.73814
1.2697
1.20783
1.15083
1.04802
0.971722
0.905019
0.852903
0.810536
0.774381
0.743058
0.714119
0.685237
0.652496
0.627961
0.59369
0.584256
0.0903984
0.0641603
0.0648407
0.0677881
0.078368
0.121286
0.345415
1.6535
1.77525
1.27212
1.20817
1.1544
1.05093
0.973925
0.9061
0.853716
0.811125
0.77458
0.743049
0.713662
0.685532
0.653376
0.628371
0.595529
0.58482
0.0903793
0.0640262
0.0646578
0.0673979
0.0771683
0.116077
0.317266
1.5361
1.83743
1.2775
1.20827
1.15894
1.05525
0.97729
0.907931
0.854852
0.811865
0.774575
0.742546
0.71206
0.685135
0.654446
0.628808
0.598261
0.585539
0.0903556
0.0638615
0.064433
0.0669194
0.075716
0.110034
0.285594
1.36641
1.92385
1.28712
1.20754
1.16363
1.06069
0.981262
0.910386
0.856347
0.812691
0.774459
0.741815
0.709178
0.684366
0.655252
0.62937
0.601252
0.586646
0.0903293
0.0636757
0.0641793
0.0663801
0.0740902
0.103553
0.252916
1.15727
2.01552
1.30398
1.20523
1.1685
1.06743
0.986037
0.913386
0.858103
0.813442
0.774066
0.74014
0.706616
0.683227
0.655055
0.629546
0.602537
0.587868
0.0903023
0.0634798
0.0639123
0.0658142
0.0723933
0.0969763
0.219042
0.937334
2.08643
1.33398
1.20039
1.1722
1.0758
0.991242
0.917162
0.860171
0.813962
0.773148
0.73726
0.705243
0.681467
0.654193
0.629188
0.601985
0.587453
0.0902773
0.0632842
0.0636465
0.0652544
0.0707353
0.0906314
0.184903
0.723804
2.11839
1.38273
1.19374
1.17404
1.08599
0.997091
0.922049
0.862491
0.814218
0.771767
0.734346
0.703957
0.679394
0.652093
0.627351
0.59932
0.583874
0.0902623
0.0631
0.0633957
0.0647285
0.0692175
0.0849996
0.155265
0.541869
2.07887
1.46133
1.18908
1.17423
1.09803
1.00439
0.927458
0.865078
0.814342
0.769832
0.732337
0.701662
0.676118
0.64842
0.622828
0.592211
0.571393
0.0902586
0.0629344
0.0631683
0.064251
0.0678663
0.0802034
0.131537
0.406376
1.87295
1.59488
1.1903
1.17191
1.11184
1.01283
0.933739
0.867759
0.814767
0.768071
0.731037
0.699308
0.671633
0.6416
0.613481
0.576941
0.539152
0.0902691
0.0627932
0.0629708
0.0638293
0.0666875
0.0762295
0.113552
0.308813
1.5048
1.76483
1.2051
1.16723
1.12612
1.02297
0.941167
0.870794
0.814576
0.768909
0.731236
0.697183
0.666045
0.632185
0.596307
0.546108
0.443813
0.0902945
0.0626812
0.0628113
0.0634785
0.0656897
0.0728965
0.0997323
0.236705
1.06731
1.93803
1.24514
1.16045
1.1375
1.03479
0.949407
0.874595
0.813577
0.76978
0.731826
0.695872
0.661246
0.622476
0.577738
0.51214
0.406676
0.0903277
0.0626033
0.0627012
0.0632138
0.0648817
0.0701783
0.0891116
0.17935
0.692322
2.03037
1.33135
1.14373
1.1424
1.04924
0.958474
0.879993
0.813557
0.771989
0.733551
0.696109
0.658273
0.615801
0.565989
0.497211
0.407854
0.0903524
0.0625835
0.0626349
0.0629737
0.0641637
0.068025
0.0813443
0.13897
0.455164
1.98666
1.48085
1.12853
1.14104
1.0661
0.968409
0.885265
0.815856
0.775514
0.737251
0.697363
0.658522
0.615462
0.564528
0.498311
0.415184
0.0903594
0.0626461
0.0624898
0.0627147
0.0635949
0.0664141
0.0757632
0.112711
0.313226
1.61753
1.66762
1.13044
1.12739
1.0824
0.97953
0.890926
0.820059
0.781118
0.741691
0.700857
0.660438
0.617063
0.566498
0.504123
0.432797
0.0903596
0.0627046
0.0623551
0.062519
0.0631538
0.0651855
0.0717061
0.0957092
0.217167
0.954007
1.81879
1.17561
1.09673
1.09111
0.991823
0.899148
0.828236
0.786746
0.748326
0.708246
0.665921
0.622691
0.573734
0.518627
0.463785
0.0903578
0.0627542
0.0622477
0.0623616
0.0628141
0.0642634
0.0687996
0.0846263
0.156723
0.552335
1.85922
1.31893
1.06967
1.08991
1.00738
0.911165
0.841438
0.795917
0.757958
0.718801
0.677906
0.635669
0.59013
0.544711
0.49473
0.0903554
0.0627915
0.0621644
0.0622442
0.0625617
0.0635713
0.0666749
0.0770972
0.120356
0.362172
1.73252
1.49665
1.05921
1.08035
1.02088
0.925822
0.855753
0.805444
0.768837
0.731754
0.695773
0.656868
0.614775
0.570774
0.523597
0.0903533
0.062817
0.0621041
0.0621591
0.0623792
0.0630743
0.0651774
0.0718647
0.0968379
0.230112
1.14493
1.6158
1.07164
1.05461
1.02971
0.945016
0.871501
0.820776
0.781919
0.749046
0.71445
0.678054
0.638651
0.595804
0.551149
0.0903518
0.0628338
0.0620622
0.0620991
0.0622477
0.0627173
0.0641334
0.0684938
0.083631
0.152558
0.536785
1.62166
1.1559
1.05379
1.03524
0.962771
0.88937
0.838901
0.796971
0.767655
0.735425
0.700411
0.662626
0.622626
0.579216
0.090351
0.0628439
0.0620346
0.062059
0.0621572
0.0624655
0.0633849
0.0661699
0.0754212
0.112966
0.320353
1.45497
1.31616
1.05984
1.03455
0.979144
0.910173
0.858195
0.817863
0.785701
0.757125
0.724439
0.688175
0.649954
0.609462
0.0903507
0.0628496
0.0620178
0.0620338
0.062098
0.0622965
0.062877
0.0646061
0.0700329
0.0899243
0.192128
0.873333
1.34252
1.08076
1.03516
0.991337
0.931593
0.881889
0.842528
0.806521
0.780884
0.750814
0.715978
0.678687
0.640431
0.0903507
0.0628526
0.0620086
0.062019
0.0620607
0.0621862
0.0625448
0.0635977
0.0667674
0.0774348
0.122703
0.380129
1.24715
1.1389
1.03963
1.00874
0.955838
0.906388
0.866968
0.83354
0.805467
0.779312
0.746027
0.709154
0.671505
0.0903507
0.0628533
0.0620057
0.062013
0.0620411
0.0621215
0.0623396
0.0629607
0.0647815
0.0705403
0.0919599
0.203452
0.883332
1.1373
1.07092
1.02208
0.975973
0.931251
0.893869
0.863405
0.835407
0.808592
0.777957
0.741614
0.703561
0.0903507
0.0628533
0.0620056
0.0620119
0.0620346
0.0620914
0.0622308
0.0626005
0.0636239
0.0666531
0.0768233
0.12008
0.370843
1.02811
1.07027
1.04265
1.00657
0.960239
0.924843
0.896854
0.870634
0.840887
0.811524
0.776848
0.73792
0.0903507
0.0628534
0.0620053
0.0620116
0.0620336
0.0620833
0.0621881
0.0624198
0.0629886
0.0645762
0.0694568
0.087151
0.175019
0.638359
1.02661
1.03904
1.02117
0.991772
0.960285
0.937112
0.911305
0.881128
0.847085
0.81274
0.774319
0.0903507
0.0628534
0.0620053
0.0620114
0.0620331
0.0620817
0.0621796
0.0623675
0.0627009
0.063524
0.0658646
0.0733145
0.102344
0.25554
0.787041
1.00401
1.01676
1.00733
0.992891
0.979914
0.960645
0.931031
0.893232
0.852322
0.8126
0.0903507
0.0628534
0.0620053
0.0620114
0.0620329
0.062081
0.062177
0.0623777
0.0626163
0.0630916
0.0642474
0.0674946
0.0781879
0.123584
0.33819
0.825412
0.983166
1.00349
1.00906
1.01546
1.00762
0.987277
0.950688
0.90335
0.85234
0.0903507
0.0628534
0.0620053
0.0620114
0.0620329
0.062081
0.062177
0.0623743
0.0626331
0.0629765
0.0636864
0.0652636
0.069442
0.0835326
0.143207
0.382157
0.819367
0.967832
1.00443
1.02854
1.03933
1.03056
1.00636
0.960686
0.905784
0.0903507
0.0628534
0.0620053
0.0620114
0.062033
0.0620811
0.0621772
0.0623737
0.0626357
0.0629842
0.063717
0.0645841
0.0665239
0.0716554
0.0882118
0.152102
0.379596
0.78011
0.953361
1.02217
1.04875
1.04986
1.03922
1.01257
0.96178
0.0903507
0.0628534
0.0620053
0.0620114
0.0620329
0.0620811
0.0621771
0.0623736
0.0626358
0.0629842
0.0637201
0.0645381
0.0660933
0.0687689
0.0747435
0.0916699
0.147945
0.32072
0.674816
0.942201
1.03373
1.05165
1.0467
1.03231
1.00418
0.0903506
0.0628534
0.0620053
0.0620114
0.062033
0.0620811
0.0621772
0.0623737
0.062636
0.0629846
0.0637211
0.0645348
0.0660866
0.0687237
0.0730516
0.0810439
0.0990322
0.144621
0.261307
0.544171
0.902259
1.01225
1.03958
1.03088
1.01666
0.0903507
0.0628534
0.0620053
0.0620114
0.0620329
0.0620811
0.0621771
0.0623736
0.0626358
0.0629843
0.0637208
0.0645336
0.066088
0.0687116
0.0730658
0.0802504
0.0943896
0.123259
0.172965
0.249823
0.429792
0.772154
0.961628
1.00377
1.00598
0.0903506
0.0628534
0.0620053
0.0620114
0.062033
0.0620811
0.0621772
0.0623737
0.062636
0.0629846
0.0637213
0.0645339
0.0660889
0.0687117
0.0730641
0.0802652
0.0940543
0.12189
0.165405
0.210642
0.260014
0.362762
0.598447
0.863306
0.946135
0.0903507
0.0628534
0.0620053
0.0620114
0.0620329
0.062081
0.0621771
0.0623736
0.0626359
0.0629844
0.0637208
0.0645333
0.0660879
0.0687103
0.073062
0.0802615
0.0940251
0.121781
0.16504
0.206327
0.239174
0.268577
0.323423
0.443481
0.675006
0.0903506
0.0628534
0.0620053
0.0620114
0.062033
0.0620811
0.0621772
0.0623737
0.0626359
0.0629846
0.0637213
0.0645338
0.066089
0.0687117
0.0730635
0.0802662
0.0940345
0.121794
0.165079
0.206125
0.236971
0.257522
0.273708
0.3012
0.35798
0.0903507
0.0628534
0.0620053
0.0620114
0.0620329
0.0620811
0.0621771
0.0623736
0.0626357
0.0629843
0.0637208
0.0645334
0.0660879
0.0687122
0.0730593
0.0802632
0.0940274
0.121777
0.165066
0.206097
0.236785
0.256495
0.268036
0.2759
0.288916
0.0903507
0.0628534
0.0620053
0.0620114
0.0620329
0.0620811
0.0621772
0.0623736
0.0626359
0.0629845
0.0637211
0.0645337
0.0660885
0.0687114
0.0730628
0.0802656
0.0940324
0.121789
0.165082
0.206109
0.23679
0.256432
0.267441
0.273016
0.277566
0.0903507
0.0628534
0.0620053
0.0620114
0.0620329
0.062081
0.0621771
0.0623736
0.0626357
0.0629843
0.0637208
0.0645334
0.0660878
0.068712
0.073059
0.0802628
0.0940261
0.121774
0.165065
0.206102
0.236782
0.256442
0.26738
0.272705
0.276382
0.0903507
0.0628534
0.0620053
0.0620114
0.0620329
0.0620811
0.0621771
0.0623736
0.0626358
0.0629844
0.0637209
0.0645335
0.0660882
0.0687116
0.0730619
0.0802649
0.0940306
0.121785
0.165076
0.206106
0.236792
0.256449
0.267388
0.27269
0.276233
0.0903507
0.0628534
0.0620053
0.0620114
0.0620329