/*--------------------------------*- C++ -*----------------------------------*\
| =========                 |                                                 |
| \\      /  F ield         | OpenFOAM: The Open Source CFD Toolbox           |
|  \\    /   O peration     | Version:  4.1                                   |
|   \\  /    A nd           | Web:      www.OpenFOAM.org                      |
|    \\/     M anipulation  |                                                 |
\*---------------------------------------------------------------------------*/
FoamFile
{
    version     2.0;
    format      ascii;
    class       surfaceScalarField;
    location    "0.5";
    object      phi;
}
// * * * * * * * * * * * * * * * * * * * * * * * * * * * * * * * * * * * * * //

dimensions      [1 0 -1 0 0 0 0];

internalField   nonuniform List<scalar> 
150500
(
0.0020327
1.69209e-08
-2.37003e-12
0.00201586
1.0945e-07
-8.22918e-12
0.00199342
2.16911e-07
-1.08696e-11
0.00195131
4.56736e-07
-2.21467e-11
0.00185351
1.30405e-06
-6.68448e-11
0.00162432
5.50965e-06
-2.96642e-10
0.000547961
3.70379e-05
-1.67777e-09
-0.00277391
0.000408434
-3.32959e-09
-0.00133332
0.000374524
3.88949e-09
-0.00106974
0.000255984
8.44426e-10
-0.00114229
0.000268721
3.07176e-10
-0.00105365
0.000254314
3.66976e-10
-0.000915524
0.000221725
1.87025e-10
-0.000741535
0.000202508
1.37205e-10
-0.000611015
0.000185152
7.41938e-11
-0.000482369
0.000179689
3.49849e-11
-0.000351497
0.000178332
7.61371e-12
-0.000210778
0.000179492
-1.19131e-11
-7.53339e-05
0.000176187
1.35971e-11
4.65209e-05
0.000174805
2.86695e-11
0.000136106
0.000179417
6.90743e-11
0.000170834
0.000187466
1.52311e-10
0.000178695
0.000192977
2.14379e-10
8.48513e-05
0.000202839
2.66431e-10
0.000212656
2.73645e-10
0.00203261
3.44051e-08
-2.12642e-12
0.00201607
2.27483e-07
-6.74621e-12
0.00199399
4.4634e-07
-8.67853e-12
0.00195251
9.42447e-07
-1.67964e-11
0.00185594
2.69948e-06
-4.83952e-11
0.00163099
1.12714e-05
-2.04126e-10
0.000609357
7.38619e-05
-9.95217e-10
-0.00278689
0.000810948
-3.4662e-09
-0.00134769
0.000747886
2.9462e-09
-0.00106487
0.000501444
1.40102e-09
-0.00113142
0.000529048
2.00061e-10
-0.00104572
0.000507295
3.71252e-11
-0.000906834
0.000445296
1.40055e-10
-0.000732341
0.000406109
1.66409e-10
-0.000601069
0.000370349
9.80329e-11
-0.000472509
0.000360155
4.24559e-11
-0.00034243
0.000357622
2.12074e-11
-0.000201792
0.000359655
7.89463e-12
-6.54821e-05
0.000353588
2.44728e-11
5.84448e-05
0.000351872
4.21036e-11
0.00014792
0.000360214
7.6843e-11
0.00018115
0.00037664
1.49042e-10
0.000186517
0.000387612
2.01112e-10
8.95494e-05
0.000406265
2.48254e-10
0.000426571
2.50288e-10
0.00203243
4.7589e-08
-2.38512e-12
0.00201654
3.24191e-07
-7.68314e-12
0.00199529
6.36775e-07
-1.01028e-11
0.00195531
1.34554e-06
-2.02713e-11
0.00186187
3.83602e-06
-5.93222e-11
0.00164845
1.56994e-05
-2.49677e-10
0.000749461
9.95398e-05
-1.30186e-09
-0.00280162
0.00112817
-3.37988e-09
-0.00134918
0.00117945
3.52479e-09
-0.00103559
0.000745774
6.67254e-10
-0.00110219
0.000786031
2.46786e-10
-0.00102987
0.000762788
4.4125e-10
-0.000889292
0.00067117
2.02468e-10
-0.000716727
0.000613409
9.37413e-11
-0.000585158
0.000555909
6.08254e-11
-0.000455883
0.000540083
1.04591e-10
-0.000326164
0.000536559
8.2715e-11
-0.000186651
0.000540634
4.7671e-11
-4.98107e-05
0.000533561
5.56111e-11
7.76332e-05
0.000533559
6.91648e-11
0.000167964
0.000544165
9.22116e-11
0.000199276
0.00056746
1.43174e-10
0.000200041
0.000585555
1.78264e-10
9.86583e-05
0.000609631
2.04924e-10
0.000643778
2.18528e-10
0.00203216
5.51232e-08
-2.07459e-12
0.00201724
3.91256e-07
-6.85946e-12
0.00199721
7.698e-07
-9.03367e-12
0.00195938
1.62608e-06
-1.81639e-11
0.00187015
4.6052e-06
-5.32485e-11
0.00167325
1.84029e-05
-2.21475e-10
0.000921841
0.000113214
-1.14597e-09
-0.00275265
0.00132743
-4.7707e-09
-0.00136092
0.00167648
3.78035e-09
-0.000993592
0.000992283
4.95584e-10
-0.00105649
0.0010391
3.51254e-10
-0.00100582
0.00102198
6.12025e-10
-0.000864053
0.000901058
5.20174e-10
-0.000694296
0.000824737
3.35775e-10
-0.000561069
0.000742249
2.1037e-10
-0.000431633
0.000720046
1.60361e-10
-0.000302301
0.000715408
1.35781e-10
-0.000163641
0.00072266
1.04165e-10
-2.6219e-05
0.000715498
8.62688e-11
0.000105084
0.000719134
9.90094e-11
0.000196587
0.000731769
1.19071e-10
0.000228066
0.000759549
1.26694e-10
0.000221666
0.000784153
1.65189e-10
0.00011488
0.000815378
1.63161e-10
0.000868214
1.8265e-10
0.00203183
5.51942e-08
-2.03958e-12
0.00201811
4.29999e-07
-6.09124e-12
0.00199961
8.4748e-07
-7.94418e-12
0.00196448
1.79188e-06
-1.56546e-11
0.00188016
5.04892e-06
-4.489e-11
0.00170106
1.96849e-05
-1.79588e-10
0.00108556
0.0001178
-9.17544e-10
-0.00246565
0.00136474
-5.56106e-09
-0.00138193
0.00226564
3.59497e-09
-0.000934695
0.00124216
6.40488e-10
-0.000998576
0.0012828
2.27421e-10
-0.000977425
0.00128508
6.31631e-10
-0.000835082
0.0011372
5.37271e-10
-0.000669617
0.0010418
3.31619e-10
-0.000531889
0.000931341
2.46158e-10
-0.000400795
0.000900122
2.19946e-10
-0.000271291
0.000893837
2.05414e-10
-0.000132963
0.000904224
1.22129e-10
1.73024e-06
0.000899076
1.23449e-10
0.00013971
0.000907028
1.44605e-10
0.000233497
0.000918833
1.59557e-10
0.000267032
0.000953323
1.06191e-10
0.000252464
0.00098582
1.17677e-10
0.000140373
0.00102892
9.88427e-11
0.00110369
1.10709e-10
0.00203145
4.64915e-08
-1.62843e-12
0.00201909
4.36778e-07
-4.58013e-12
0.00200239
8.64857e-07
-6.055e-12
0.00197058
1.83638e-06
-1.22814e-11
0.00189243
5.14653e-06
-3.6039e-11
0.0017283
1.96107e-05
-1.43364e-10
0.00119873
0.000114392
-7.49491e-10
-0.00187754
0.00124459
-5.13044e-09
-0.00141292
0.00292178
3.19132e-09
-0.000861415
0.00151213
2.68382e-10
-0.000927014
0.00151226
-4.228e-10
-0.000943087
0.00154986
5.01708e-10
-0.000799608
0.00138024
6.07159e-10
-0.000640643
0.00126366
3.12497e-10
-0.00049699
0.00112468
1.67809e-10
-0.000363567
0.00108003
2.14651e-10
-0.000233489
0.0010712
2.46581e-10
-9.38715e-05
0.0010849
1.68955e-10
5.00877e-05
0.00108805
1.54379e-10
0.000181037
0.00109116
2.0707e-10
0.000278924
0.00110634
1.83831e-10
0.000315845
0.00115142
1.01693e-10
0.000294516
0.00119182
7.61049e-11
0.000173811
0.00125677
3.54292e-11
0.00135643
3.22847e-11
0.00203104
2.5225e-08
-1.33624e-12
0.0020201
4.10313e-07
-3.28203e-12
0.00200534
8.23626e-07
-4.33366e-12
0.00197737
1.77062e-06
-8.80759e-12
0.00190755
4.94751e-06
-2.57518e-11
0.00175539
1.84178e-05
-9.82147e-11
0.00129146
0.000103547
-4.9244e-10
-0.00124419
0.00102141
-3.13981e-09
-0.00146153
0.0035935
5.8672e-10
-0.000807065
0.00182036
1.86842e-10
-0.000841995
0.00172142
-1.06816e-10
-0.000900705
0.00181011
6.90347e-10
-0.000757324
0.00163326
5.87664e-10
-0.000609455
0.00148612
3.07429e-10
-0.000456927
0.00132906
2.97284e-10
-0.000320302
0.00125947
2.58991e-10
-0.00018796
0.00124673
2.89363e-10
-4.4952e-05
0.00126229
2.37065e-10
0.000104203
0.00127463
2.24608e-10
0.0002321
0.00127225
2.23739e-10
0.000334051
0.00129306
2.00981e-10
0.000375695
0.00134607
1.04411e-10
0.000350327
0.00140141
5.63903e-11
0.000219649
0.00149476
1.56272e-11
0.00165153
1.47333e-11
0.0020306
-9.70244e-09
-1.07509e-12
0.00202107
3.55242e-07
-1.95046e-12
0.0020083
7.34834e-07
-2.60698e-12
0.0019844
1.62068e-06
-5.42643e-12
0.00192499
4.54077e-06
-1.63512e-11
0.00178665
1.63649e-05
-6.55744e-11
0.00141862
8.57682e-05
-3.85744e-10
-0.000734356
0.000741097
-2.61158e-09
-0.00153352
0.00424935
2.02472e-10
-0.000782491
0.00220862
2.57843e-10
-0.000746565
0.00191023
-5.22756e-10
-0.00084512
0.00206358
2.76757e-10
-0.000709243
0.00189728
4.66063e-10
-0.000570909
0.00171288
3.42497e-10
-0.000411541
0.00154201
3.92454e-10
-0.000271386
0.00143751
3.71052e-10
-0.000133305
0.00141676
2.91866e-10
8.14927e-06
0.00143358
2.94691e-10
0.000163702
0.00145694
2.87277e-10
0.00029505
0.00145381
2.81003e-10
0.000400987
0.00147847
2.25728e-10
0.00044955
0.00154068
1.133e-10
0.000422573
0.00161395
8.56003e-12
0.000286983
0.00173936
-2.24911e-11
0.00200022
-4.81445e-11
0.00203008
-3.66481e-08
-1.34653e-12
0.00202193
2.91743e-07
-1.32018e-12
0.0020112
6.24862e-07
-1.66894e-12
0.0019913
1.43312e-06
-3.20485e-12
0.00194153
4.05264e-06
-9.15969e-12
0.00181981
1.40966e-05
-3.55671e-11
0.00152439
6.81108e-05
-2.01354e-10
-3.63755e-05
0.000515534
-1.3481e-09
-0.0018015
0.00443197
-1.31068e-09
-0.000792056
0.00274729
8.48556e-10
-0.00064881
0.0020818
-5.09982e-10
-0.000772566
0.00230008
1.11151e-11
-0.000656587
0.00217195
2.46548e-10
-0.000525271
0.00194725
2.498e-10
-0.000361683
0.00176534
2.99524e-10
-0.000217395
0.00161486
3.3529e-10
-7.15054e-05
0.0015812
3.22769e-10
7.79126e-05
0.0015998
3.33305e-10
0.000231522
0.00163308
3.33962e-10
0.000368517
0.00163364
2.99859e-10
0.000480713
0.00166086
2.44163e-10
0.00054262
0.00172966
1.16651e-10
0.000521355
0.00182691
-6.94691e-12
0.000388271
0.00198461
-6.33133e-11
0.00244362
-1.26443e-10
0.00202955
-1.46279e-12
-5.97719e-08
0.00202284
-1.01348e-12
2.1594e-07
0.00201422
-1.20007e-12
4.91983e-07
0.00199796
-2.05013e-12
1.21964e-06
0.00195664
-5.28916e-12
3.53224e-06
0.00185182
-1.92621e-11
1.1903e-05
0.0016074
-1.03774e-10
5.25315e-05
0.000543038
-6.8923e-10
0.000356701
-0.00192075
-2.32961e-09
0.00386291
-0.000831064
9.91141e-10
0.00353114
-0.000560944
1.80209e-11
0.00225961
-0.000677777
3.00904e-11
0.00250341
-0.000598154
1.24843e-10
0.00245538
-0.000472936
1.83993e-10
0.00219162
-0.000307553
2.59285e-10
0.00199985
-0.000158281
3.21027e-10
0.00179509
-6.98975e-06
3.61965e-10
0.00174149
0.000148902
3.93345e-10
0.00175561
0.000308986
3.84189e-10
0.00179778
0.000453456
3.20344e-10
0.00180574
0.000575571
2.34847e-10
0.00183601
0.000657251
1.29184e-10
0.00190495
0.000661618
1.82347e-11
0.00202644
0.000542567
-1.16266e-10
0.00222175
-2.04606e-10
0.0030333
0.00203271
1.70714e-08
5.3018e-13
0.00201586
1.10203e-07
3.38064e-12
0.0019934
2.18232e-07
4.61316e-12
0.00195126
4.59914e-07
9.91749e-12
0.00185342
1.31522e-06
3.12076e-11
0.00162405
5.56886e-06
1.4294e-10
0.000545271
3.74795e-05
8.41494e-10
-0.00277379
0.000410519
1.79298e-09
-0.00133309
0.000372984
-1.95187e-09
-0.00106978
0.000255766
-9.49709e-10
-0.00114217
0.000268241
-2.63646e-10
-0.00105312
0.000253757
-3.19136e-11
-0.000915111
0.000221706
1.93429e-11
-0.000741316
0.000202642
8.57152e-11
-0.000610937
0.000185281
1.10419e-10
-0.000482341
0.000179746
1.96983e-10
-0.000351475
0.000178342
2.5226e-10
-0.000210757
0.000179461
2.42558e-10
-7.5318e-05
0.000176129
1.82529e-10
4.65332e-05
0.000174733
1.29122e-10
0.000136104
0.000179325
4.98894e-11
0.000170816
0.000187365
-4.52373e-11
0.000178675
0.000192885
-1.20526e-10
8.48491e-05
0.000202752
-2.22013e-10
0.000212593
-1.99507e-10
0.00203262
3.42955e-08
4.21916e-13
0.00201607
2.27101e-07
2.62639e-12
0.00199398
4.45799e-07
3.4446e-12
0.00195248
9.4095e-07
6.86231e-12
0.00185589
2.6935e-06
2.01574e-11
0.00163091
1.12392e-05
8.4785e-11
0.0006095
7.35737e-05
3.862e-10
-0.00278049
0.000809218
1.8233e-09
-0.00134394
0.000748961
-1.35066e-09
-0.00106172
0.000500664
-1.10086e-09
-0.00112874
0.000528243
-1.08397e-10
-0.00104392
0.000507645
2.18748e-10
-0.000905968
0.000446124
2.80234e-11
-0.000731955
0.000406826
3.18016e-11
-0.000600921
0.000370752
1.14595e-10
-0.000472455
0.000360336
2.26978e-10
-0.000342424
0.00035768
2.72278e-10
-0.000201788
0.000359609
2.56912e-10
-6.54853e-05
0.000353489
2.01009e-10
5.84346e-05
0.000351741
1.39414e-10
0.000147903
0.000360037
4.9966e-11
0.000181125
0.000376443
-5.32698e-11
0.000186495
0.000387424
-1.20681e-10
8.95536e-05
0.000406076
-2.19495e-10
0.000426454
-2.02861e-10
0.00203243
4.78243e-08
7.99477e-13
0.00201654
3.24821e-07
3.96309e-12
0.00199526
6.37826e-07
5.36006e-12
0.00195526
1.34757e-06
1.12881e-11
0.00186179
3.84139e-06
3.40887e-11
0.00164822
1.57221e-05
1.45701e-10
0.000747427
9.96906e-05
7.70317e-10
-0.00280209
0.001129
1.81522e-09
-0.00134954
0.00117873
-2.17207e-09
-0.00103672
0.000745645
-2.32709e-10
-0.00110368
0.000785652
-7.03123e-11
-0.00103068
0.000762573
-2.56061e-10
-0.000889635
0.000671465
4.55547e-12
-0.000716943
0.000613718
1.67581e-10
-0.00058538
0.000556214
1.9701e-10
-0.000456079
0.000540224
1.9152e-10
-0.000326288
0.00053657
2.36849e-10
-0.000186709
0.000540537
2.56268e-10
-4.98395e-05
0.000533403
2.21009e-10
7.76133e-05
0.000533338
1.55614e-10
0.000167952
0.000543916
6.06765e-11
0.000199272
0.000567185
-6.61134e-11
0.000200048
0.0005853
-1.19324e-10
9.86785e-05
0.000609366
-2.19165e-10
0.000643605
-2.05308e-10
0.00203216
5.52177e-08
5.82599e-13
0.00201724
3.91782e-07
3.59364e-12
0.00199719
7.70913e-07
4.87331e-12
0.00195934
1.62847e-06
1.02626e-11
0.00187008
4.61217e-06
3.10554e-11
0.00167305
1.84336e-05
1.31294e-10
0.000920652
0.000113419
6.86346e-10
-0.00275224
0.0013292
2.86882e-09
-0.00136098
0.00167574
-2.45603e-09
-0.000994764
0.000992412
7.50472e-11
-0.0010582
0.00103943
-5.77356e-11
-0.00100718
0.0010221
-4.07827e-10
-0.000865346
0.000901394
-3.01604e-10
-0.000695189
0.000824823
-1.29355e-10
-0.00056169
0.000742298
4.81734e-11
-0.000432032
0.000719984
1.66323e-10
-0.000302525
0.000715265
2.14223e-10
-0.000163754
0.000722439
2.46148e-10
-2.6276e-05
0.000715239
2.24633e-10
0.000105042
0.000718842
1.62869e-10
0.00019658
0.000731419
4.33423e-11
0.000228092
0.000759189
-6.16499e-11
0.00022169
0.000783821
-1.27308e-10
0.000114913
0.000815048
-2.16283e-10
0.000867991
-2.08721e-10
0.00203183
5.53713e-08
6.77831e-13
0.00201811
4.30871e-07
3.25108e-12
0.0019996
8.49092e-07
4.30414e-12
0.00196445
1.79512e-06
8.74594e-12
0.00188009
5.0576e-06
2.55619e-11
0.00170089
1.9718e-05
1.03175e-10
0.00108471
0.000117995
5.3001e-10
-0.00246778
0.00136703
3.25668e-09
-0.00138228
0.00226569
-2.28398e-09
-0.00093674
0.00124307
2.78883e-10
-0.00100113
0.00128386
1.80038e-10
-0.000979496
0.00128525
-3.75334e-10
-0.000836799
0.001137
-1.84954e-10
-0.000670776
0.00104107
-4.52232e-12
-0.000532753
0.000930842
9.50187e-11
-0.000401337
0.000899678
1.06382e-10
-0.000271586
0.000893472
1.52166e-10
-0.000133102
0.000903864
2.38291e-10
1.64442e-06
0.0008987
2.3097e-10
0.000139662
0.000906657
1.65021e-10
0.000233493
0.000918424
2.60263e-11
0.000267081
0.000952917
-5.99016e-11
0.000252505
0.000985463
-1.31188e-10
0.000140412
0.00102854
-2.04031e-10
0.00110341
-2.10546e-10
0.00203145
4.65888e-08
2.9174e-13
0.00201909
4.37518e-07
2.03551e-12
0.00200237
8.6633e-07
2.77121e-12
0.00197055
1.83943e-06
5.87843e-12
0.00189237
5.15497e-06
1.77788e-11
0.00172817
1.96439e-05
7.22155e-11
0.0011983
0.000114602
3.87503e-10
-0.00188033
0.00124725
2.75317e-09
-0.00141317
0.00292265
-1.71899e-09
-0.000863284
0.00151328
4.68828e-10
-0.00092917
0.0015143
4.52096e-10
-0.000944706
0.00155005
-3.84096e-10
-0.00080082
0.00137931
-2.2706e-10
-0.000641313
0.00126237
-2.40106e-11
-0.000497612
0.00112357
1.48212e-10
-0.000364027
0.00107924
1.04653e-10
-0.000233818
0.00107068
9.84282e-11
-9.40235e-05
0.00108441
2.23339e-10
4.99863e-05
0.00108757
2.16581e-10
0.000180973
0.0010907
8.7014e-11
0.000278918
0.00110589
2.65635e-11
0.00031591
0.00115102
-5.40787e-11
0.000294574
0.00119145
-1.23025e-10
0.000173871
0.00125636
-1.83148e-10
0.00135609
-2.06702e-10
0.00203104
2.52734e-08
1.84818e-13
0.00202009
4.11019e-07
1.03288e-12
0.00200532
8.24991e-07
1.42565e-12
0.00197734
1.77347e-06
3.12238e-12
0.00190749
4.95529e-06
9.64418e-12
0.00175534
1.84466e-05
3.84309e-11
0.00129123
0.000103703
2.05823e-10
-0.00124603
0.00102312
1.41248e-09
-0.0014613
0.00359547
-3.3972e-10
-0.000808188
0.00182139
1.4725e-10
-0.000843508
0.00172422
4.98441e-10
-0.000901381
0.0018104
-1.42213e-10
-0.00075794
0.00163255
-1.47571e-10
-0.000609775
0.00148515
6.65693e-12
-0.00045727
0.00132803
5.24037e-11
-0.000320559
0.00125865
7.51342e-11
-0.000188177
0.00124614
8.56155e-11
-4.50681e-05
0.00126176
1.87979e-10
0.000104114
0.0012741
1.59273e-10
0.000232036
0.00127173
7.37932e-11
0.000334044
0.00129258
2.21603e-11
0.00037576
0.00134565
-5.4356e-11
0.000350435
0.00140112
-1.14796e-10
0.00021971
0.00149439
-1.73881e-10
0.00165115
-2.01109e-10
0.0020306
-9.88472e-09
-4.79974e-14
0.00202106
3.55462e-07
2.32215e-13
0.00200829
7.35458e-07
3.7605e-13
0.00198438
1.62231e-06
1.01666e-12
0.00192494
4.54581e-06
3.6283e-12
0.00178656
1.63847e-05
1.62792e-11
0.00141831
8.58886e-05
1.0614e-10
-0.000736702
0.000742368
7.62322e-10
-0.0015326
0.0042517
3.45829e-10
-0.000782307
0.0022093
-1.64554e-11
-0.000746403
0.0019126
3.20931e-10
-0.000844872
0.00206456
1.71425e-10
-0.000709364
0.00189728
1.64062e-11
-0.000571085
0.00171249
3.46376e-11
-0.000411729
0.00154143
-9.8224e-12
-0.000271502
0.00143674
2.39176e-11
-0.000133352
0.0014161
7.97857e-11
8.08778e-06
0.00143292
1.11143e-10
0.000163631
0.00145638
8.37728e-11
0.000295004
0.00145328
6.21116e-11
0.000400974
0.00147798
2.04037e-11
0.000449611
0.00154029
-4.57841e-11
0.000422719
0.00161368
-9.35576e-11
0.000287058
0.00173904
-1.53481e-10
0.00199989
-1.4607e-10
0.00203008
-3.67082e-08
5.13739e-16
0.00202193
2.91836e-07
-2.77022e-14
0.0020112
6.25158e-07
-1.12006e-14
0.00199129
1.43397e-06
8.61917e-14
0.0019415
4.05534e-06
5.76078e-13
0.00181975
1.41068e-05
3.4557e-12
0.00152422
6.81698e-05
2.74375e-11
-3.70873e-05
0.0005161
2.33337e-10
-0.00179939
0.00443582
7.02362e-10
-0.000791338
0.00274766
-7.35261e-11
-0.000647817
0.00208291
9.04383e-11
-0.000771835
0.00230132
3.47404e-10
-0.000656223
0.00217246
2.26814e-10
-0.000525078
0.00194721
6.06047e-11
-0.000361533
0.00176502
4.09313e-11
-0.000217299
0.00161414
6.21566e-11
-7.14473e-05
0.00158051
7.01497e-11
7.79093e-05
0.0015991
7.59078e-11
0.00023147
0.0016325
6.81655e-11
0.000368462
0.00163307
4.09084e-11
0.000480708
0.00166038
1.30857e-11
0.000542688
0.00172928
-3.12086e-11
0.000521507
0.00182658
-7.66721e-11
0.000388361
0.00198435
-1.06088e-10
0.00244332
-1.20415e-10
0.00202955
-1.71448e-14
-5.99063e-08
0.00202284
-1.3222e-13
2.15877e-07
0.00201421
-1.50851e-13
4.91998e-07
0.00199796
-2.87324e-13
1.22003e-06
0.00195662
-6.47767e-13
3.53367e-06
0.00185178
-1.63908e-12
1.19082e-05
0.00160728
-4.20027e-12
5.25602e-05
0.000542274
7.32089e-12
0.000356958
-0.00191985
4.68192e-10
0.00386514
-0.000830137
-5.87958e-11
0.00353119
-0.000559687
-1.55522e-10
0.00225894
-0.000676824
2.84037e-10
0.0025043
-0.000597457
2.45419e-10
0.00245617
-0.000472448
7.22502e-11
0.0021918
-0.000307202
3.5566e-11
0.00199973
-0.000158043
2.5195e-11
0.00179453
-6.86783e-06
7.93274e-11
0.00174089
0.000148917
5.26311e-11
0.00175493
0.000308938
3.67994e-11
0.00179722
0.000453388
1.8073e-11
0.00180521
0.000575555
6.91092e-12
0.00183556
0.00065731
-1.83361e-11
0.0019046
0.000661763
-5.55055e-11
0.00202617
0.000542674
-8.7442e-11
0.00222155
-1.01055e-10
0.00303306
0.0020327
1.70099e-08
-7.32747e-15
0.00201586
1.09891e-07
-3.59333e-13
0.00199341
2.17728e-07
-5.19178e-13
0.00195128
4.58501e-07
-1.22015e-12
0.00185347
1.30944e-06
-4.07039e-12
0.0016242
5.53507e-06
-1.91021e-11
0.00054673
3.72195e-05
-1.1227e-10
-0.00277372
0.000409403
-2.31672e-10
-0.0013338
0.000374161
2.42656e-10
-0.00107077
0.000256157
-8.74255e-13
-0.0011433
0.000268757
-3.47366e-11
-0.00105427
0.000254042
-4.97786e-11
-0.000915981
0.000221468
-5.40475e-11
-0.000741905
0.000202301
-5.15048e-11
-0.000611285
0.000185014
-5.98626e-11
-0.000482568
0.00017958
-5.76645e-11
-0.000351626
0.000178247
-5.47144e-11
-0.000210848
0.000179423
-5.42081e-11
-7.53669e-05
0.000176123
-4.80747e-11
4.65139e-05
0.000174735
-5.11419e-11
0.000136124
0.000179337
-8.59313e-11
0.000170871
0.000187388
-1.18929e-10
0.000178746
0.000192905
-1.6688e-10
8.4894e-05
0.000202775
-2.67433e-10
0.00021262
-2.69093e-10
0.00203261
3.45029e-08
1.58651e-14
0.00201607
2.2782e-07
-2.52668e-13
0.00199398
4.46982e-07
-3.63897e-13
0.00195249
9.43596e-07
-8.47465e-13
0.00185591
2.702e-06
-2.79938e-12
0.00163092
1.12796e-05
-1.28602e-11
0.000608959
7.38926e-05
-6.85874e-11
-0.00278479
0.000811314
-2.33617e-10
-0.00134692
0.000748123
1.64338e-10
-0.00106462
0.000501548
4.64236e-11
-0.0011313
0.000529109
-3.8359e-11
-0.00104563
0.00050718
-6.14645e-11
-0.000906841
0.000445089
-4.92586e-11
-0.000732422
0.000405916
-4.79821e-11
-0.000601178
0.000370204
-3.96611e-11
-0.000472624
0.000360013
-4.4396e-11
-0.000342533
0.000357498
-4.83435e-11
-0.000201865
0.000359544
-5.22467e-11
-6.55283e-05
0.00035348
-4.8405e-11
5.84206e-05
0.000351751
-5.03803e-11
0.000147926
0.000360066
-8.53136e-11
0.000181181
0.000376485
-1.22881e-10
0.000186565
0.000387472
-1.67111e-10
8.96004e-05
0.000406124
-2.67313e-10
0.000426509
-2.72653e-10
0.00203243
4.76502e-08
-1.73525e-14
0.00201654
3.24512e-07
-2.80031e-13
0.00199528
6.37383e-07
-3.93504e-13
0.00195529
1.34674e-06
-8.733e-13
0.00186184
3.83911e-06
-2.74438e-12
0.00164837
1.57118e-05
-1.20076e-11
0.000748814
9.96167e-05
-6.45902e-11
-0.00280096
0.0011287
-2.14014e-10
-0.00134874
0.00117939
1.35687e-10
-0.00103541
0.000745998
8.70638e-12
-0.00110215
0.000786234
-1.06618e-10
-0.00102979
0.000762729
-5.33394e-11
-0.000889249
0.000670999
-3.80092e-11
-0.000716743
0.000613215
-5.40346e-11
-0.000585218
0.000555746
-2.38021e-11
-0.00045597
0.000539923
-1.69198e-11
-0.000326254
0.000536405
-2.55617e-11
-0.000186721
0.000540493
-3.81713e-11
-4.98621e-05
0.000533415
-4.4199e-11
7.76057e-05
0.000533376
-4.75812e-11
0.000167979
0.000543964
-8.44186e-11
0.000199333
0.000567247
-1.3243e-10
0.000200117
0.000585371
-1.66828e-10
9.87274e-05
0.000609437
-2.74366e-10
0.000643687
-2.78121e-10
0.00203216
5.51941e-08
7.05813e-15
0.00201724
3.91511e-07
-3.16833e-13
0.0019972
7.70285e-07
-4.31289e-13
0.00195936
1.62709e-06
-8.97185e-13
0.00187012
4.60813e-06
-2.62075e-12
0.00167317
1.84156e-05
-1.03346e-11
0.000921357
0.000113296
-4.74626e-11
-0.00275233
0.00132815
-1.5292e-10
-0.00136032
0.00167616
1.72717e-10
-0.000993127
0.000992477
-6.49151e-11
-0.00105625
0.00103952
-6.62375e-11
-0.00100558
0.00102206
4.13598e-11
-0.000863887
0.000901059
1.04879e-10
-0.000694219
0.000824685
7.96559e-11
-0.000561082
0.000742129
4.87236e-11
-0.000431699
0.000719904
2.04536e-11
-0.000302381
0.000715229
-2.8089e-12
-0.000163715
0.000722469
-1.87435e-11
-2.62764e-05
0.000715291
-3.27309e-11
0.000105055
0.000718896
-4.02977e-11
0.000196614
0.000731516
-8.32405e-11
0.000228151
0.000759277
-1.36354e-10
0.000221761
0.000783922
-1.76103e-10
0.000114965
0.000815146
-2.82962e-10
0.000868097
-2.85797e-10
0.00203183
5.51906e-08
-6.89493e-14
0.00201811
4.30143e-07
-5.38816e-13
0.0019996
8.47779e-07
-7.18133e-13
0.00196447
1.79252e-06
-1.45831e-12
0.00188013
5.05075e-06
-4.24966e-12
0.00170099
1.96923e-05
-1.69231e-11
0.00108524
0.000117845
-8.37239e-11
-0.00246628
0.00136535
-5.16018e-10
-0.00138119
0.0022655
4.16151e-10
-0.000934296
0.00124248
-2.92574e-10
-0.000998515
0.00128309
-4.67436e-11
-0.000977492
0.00128534
1.4776e-10
-0.000835303
0.00113747
5.54725e-11
-0.000669839
0.00104177
1.55197e-11
-0.000532047
0.000931188
2.20587e-11
-0.000400895
0.000899887
2.91242e-11
-0.000271362
0.000893596
2.63334e-11
-0.000133028
0.000903987
-7.90394e-12
1.66376e-06
0.000898816
-2.01933e-11
0.000139668
0.000906761
-2.84105e-11
0.000233525
0.000918541
-8.14391e-11
0.00026714
0.000953036
-1.43672e-10
0.000252576
0.000985583
-1.91577e-10
0.000140468
0.00102866
-2.87614e-10
0.00110353
-3.01974e-10
0.00203145
4.65212e-08
9.19821e-14
0.00201909
4.36918e-07
-1.48329e-13
0.00200238
8.65149e-07
-2.56117e-13
0.00197056
1.837e-06
-7.17495e-13
0.0018924
5.14838e-06
-2.60133e-12
0.00172824
1.96187e-05
-1.16017e-11
0.00119855
0.00011445
-6.61854e-11
-0.00187878
0.00124546
-4.91365e-10
-0.00141244
0.00292165
4.90647e-10
-0.000861425
0.00151241
-2.54296e-10
-0.00092723
0.00151314
-4.56662e-11
-0.000943349
0.00155023
2.1254e-10
-0.000799804
0.00138023
9.07686e-11
-0.000640713
0.00126337
6.1686e-11
-0.000497073
0.00112429
1.46903e-11
-0.000363658
0.00107968
4.45238e-11
-0.000233605
0.00107094
5.13967e-11
-9.39588e-05
0.00108461
1.26115e-11
4.99986e-05
0.00108775
-5.72638e-12
0.000180975
0.00109086
-1.84885e-11
0.000278944
0.00110604
-7.25112e-11
0.000315963
0.00115115
-1.40911e-10
0.000294643
0.00119159
-1.97189e-10
0.000173926
0.00125651
-2.86901e-10
0.00135623
-3.22086e-10
0.00203104
2.51727e-08
1.08846e-13
0.00202009
4.10535e-07
2.09198e-13
0.00200533
8.24096e-07
2.17629e-13
0.00197735
1.77169e-06
2.29334e-13
0.00190751
4.95067e-06
9.4908e-14
0.00175536
1.84298e-05
-1.20669e-12
0.00129133
0.000103609
-1.50238e-11
-0.00124537
0.00102213
-1.42126e-10
-0.0014612
0.00359351
1.93941e-10
-0.000807599
0.00182049
-5.07912e-11
-0.000842881
0.00172306
-2.30275e-11
-0.000901004
0.00181013
7.18999e-11
-0.000757476
0.00163305
6.05145e-11
-0.000609489
0.00148579
1.15744e-10
-0.000456993
0.00132863
9.75939e-11
-0.000320376
0.00125909
1.03806e-10
-0.000188074
0.00124643
9.98209e-11
-4.50571e-05
0.001262
3.41462e-11
0.000104093
0.00127431
1.86441e-11
0.000232028
0.00127192
-1.48755e-11
0.000334056
0.00129275
-6.16871e-11
0.000375803
0.00134581
-1.37301e-10
0.000350495
0.00140126
-1.9876e-10
0.000219767
0.00149453
-2.84226e-10
0.00165131
-3.26491e-10
0.0020306
-9.86459e-09
2.24984e-13
0.00202106
3.5535e-07
4.70633e-13
0.00200829
7.35176e-07
5.03418e-13
0.00198438
1.62164e-06
6.22932e-13
0.00192496
4.54384e-06
1.54627e-12
0.00178658
1.63771e-05
4.89424e-12
0.00141839
8.58418e-05
2.10308e-11
-0.000736192
0.000741888
1.35581e-10
-0.00153295
0.00424949
-1.70093e-10
-0.000782588
0.00220831
5.94692e-11
-0.000746823
0.00191159
7.92386e-11
-0.000845224
0.00206381
-3.62637e-11
-0.000709387
0.00189716
-4.34271e-11
-0.00057102
0.00171263
5.26361e-11
-0.000411645
0.00154162
1.77753e-10
-0.000271473
0.00143711
1.8845e-10
-0.000133387
0.00141638
1.25848e-10
8.0331e-06
0.00143321
7.06457e-11
0.000163579
0.0014566
4.52114e-11
0.000294971
0.00145348
4.6872e-12
0.000400966
0.00147816
-5.18015e-11
0.000449639
0.00154044
-1.26942e-10
0.000422769
0.00161383
-2.0036e-10
0.00028711
0.00173919
-2.80362e-10
0.00200007
-3.38447e-10
0.00203008
-3.6736e-08
-4.74297e-14
0.00202193
2.91772e-07
3.25373e-13
0.0020112
6.25035e-07
4.09644e-13
0.00199129
1.43371e-06
6.96869e-13
0.00194151
4.05463e-06
1.37836e-12
0.00181976
1.41042e-05
4.22384e-12
0.00152426
6.81547e-05
2.03868e-11
-3.70134e-05
0.000515948
1.2134e-10
-0.00180002
0.00443376
-1.20637e-10
-0.000791918
0.00274671
1.044e-10
-0.000648656
0.00208227
2.27743e-10
-0.00077252
0.0023005
-1.03332e-10
-0.000656596
0.00217197
-1.87876e-10
-0.000525277
0.00194703
1.34421e-11
-0.00036171
0.00176489
9.97146e-11
-0.000217454
0.0016144
1.30995e-10
-7.1577e-05
0.00158081
1.37945e-10
7.7799e-05
0.00159939
1.12911e-10
0.000231391
0.00163273
7.78383e-11
0.000368409
0.00163326
2.08949e-11
0.000480681
0.00166055
-2.59936e-11
0.0005427
0.00172943
-1.08026e-10
0.000521549
0.00182674
-1.86566e-10
0.000388405
0.0019845
-2.68372e-10
0.0024435
-3.44559e-10
0.00202955
-5.64284e-14
-5.99062e-08
0.00202283
2.37461e-13
2.15913e-07
0.00201421
3.08275e-13
4.92061e-07
0.00199796
5.68581e-13
1.22009e-06
0.00195662
1.40897e-12
3.53366e-06
0.00185178
4.28814e-12
1.19079e-05
0.00160729
1.67205e-11
5.25579e-05
0.000542233
8.22159e-11
0.000356931
-0.00192018
1.52359e-10
0.00386448
-0.000830715
1.18421e-10
0.00353026
-0.000560502
3.93159e-10
0.00225887
-0.000677524
-6.12628e-11
0.00250384
-0.000597919
-1.55296e-10
0.00245556
-0.000472727
8.92383e-12
0.00219146
-0.000307401
9.85202e-11
0.00199941
-0.000158218
1.62249e-10
0.00179455
-7.01473e-06
1.22211e-10
0.00174101
0.000148794
1.31409e-10
0.00175523
0.000308842
9.6444e-11
0.00179745
0.000453318
4.68894e-11
0.00180539
0.00057551
-7.75718e-12
0.00183571
0.000657303
-8.05097e-11
0.00190473
0.000661796
-1.51432e-10
0.00202631
0.000542713
-2.44548e-10
0.00222169
-3.28027e-10
0.00303324
0.0020327
1.70234e-08
3.44086e-14
0.00201586
1.0994e-07
1.79338e-13
0.00199341
2.17816e-07
2.70101e-13
0.00195128
4.58717e-07
6.98431e-13
0.00185346
1.31022e-06
2.6336e-12
0.00162418
5.53919e-06
1.4513e-11
0.000546539
3.72506e-05
1.08127e-10
-0.00277375
0.000409563
4.44623e-10
-0.00133383
0.000374041
-6.68039e-12
-0.00107082
0.000256131
8.36577e-11
-0.00114334
0.000268729
4.24462e-11
-0.00105429
0.000254025
7.55129e-12
-0.000916
0.000221494
-5.70253e-12
-0.000741944
0.000202335
-7.33461e-12
-0.000611335
0.000185033
3.772e-13
-0.000482616
0.000179578
-1.08578e-13
-0.000351666
0.000178232
-4.54864e-13
-0.000210881
0.0001794
1.31503e-11
-7.53903e-05
0.000176099
2.42907e-11
4.65059e-05
0.000174714
3.35116e-11
0.000136135
0.000179318
1.75238e-11
0.000170901
0.000187376
1.14998e-11
0.000178795
0.000192893
-4.42037e-12
8.49278e-05
0.000202768
-7.34503e-12
0.000212616
-2.81805e-11
0.00203262
3.44731e-08
3.7296e-14
0.00201607
2.27789e-07
1.69034e-13
0.00199398
4.46935e-07
2.51059e-13
0.00195249
9.43533e-07
6.38981e-13
0.0018559
2.70192e-06
2.3992e-12
0.00163091
1.12796e-05
1.35318e-11
0.000608932
7.3891e-05
1.04372e-10
-0.00278448
0.000811318
4.7943e-10
-0.00134674
0.000748096
1.28972e-11
-0.00106449
0.000501481
5.00346e-11
-0.00113121
0.000529047
2.84892e-11
-0.00104558
0.000507216
1.00889e-11
-0.000906842
0.000445188
-5.70255e-12
-0.000732457
0.000406003
-9.44365e-12
-0.000601225
0.000370246
-3.46698e-12
-0.000472671
0.000360018
-3.32036e-12
-0.000342574
0.000357475
-3.85593e-12
-0.000201897
0.000359503
7.7771e-12
-6.55507e-05
0.000353435
1.88514e-11
5.84134e-05
0.00035171
2.41474e-11
0.00014794
0.000360027
1.98666e-11
0.000181212
0.000376459
1.10296e-11
0.000186615
0.000387451
-6.21571e-12
8.96356e-05
0.000406111
-4.39446e-12
0.000426503
-1.82186e-11
0.00203243
4.76707e-08
4.40699e-14
0.00201654
3.2448e-07
2.11744e-13
0.00199528
6.37299e-07
3.09199e-13
0.00195529
1.34659e-06
7.55281e-13
0.00186184
3.83886e-06
2.7635e-12
0.00164836
1.57115e-05
1.48618e-11
0.000748732
9.96197e-05
1.06479e-10
-0.00280091
0.00112872
5.47307e-10
-0.00134862
0.00117932
2.79361e-11
-0.00103533
0.000745934
1.88064e-11
-0.00110208
0.000786168
-2.41177e-11
-0.00102974
0.000762813
-9.19172e-12
-0.000889245
0.000671202
-1.16368e-11
-0.000716777
0.000613368
-7.77866e-12
-0.000585288
0.000555817
-5.85485e-12
-0.000456042
0.000539934
-6.45355e-12
-0.000326312
0.000536373
-8.24001e-12
-0.000186759
0.000540442
5.10858e-12
-4.98846e-05
0.000533357
1.51019e-11
7.75995e-05
0.00053332
1.8834e-11
0.000167995
0.000543908
1.753e-11
0.000199368
0.000567205
1.78894e-11
0.000200166
0.000585342
-6.76137e-12
9.87663e-05
0.000609417
4.53385e-12
0.000643678