/*--------------------------------*- C++ -*----------------------------------*\
| =========                 |                                                 |
| \\      /  F ield         | OpenFOAM: The Open Source CFD Toolbox           |
|  \\    /   O peration     | Version:  4.1                                   |
|   \\  /    A nd           | Web:      www.OpenFOAM.org                      |
|    \\/     M anipulation  |                                                 |
\*---------------------------------------------------------------------------*/
FoamFile
{
    version     2.0;
    format      ascii;
    class       volScalarField;
    location    "0.5";
    object      T;
}
// * * * * * * * * * * * * * * * * * * * * * * * * * * * * * * * * * * * * * //

dimensions      [0 0 0 1 0 0 0];

internalField   nonuniform List<scalar> 
52500
(
0.336888
0.319964
0.321719
0.329478
0.358416
0.490056
0.988326
1.76338
1.65437
1.44528
1.29693
1.22549
1.21051
1.24514
1.29079
1.28351
1.24509
1.2044
1.19477
1.19014
1.16994
1.14462
1.12124
1.08339
1.02618
0.336851
0.319874
0.321594
0.329183
0.357386
0.485272
0.976101
1.75871
1.65943
1.44802
1.29785
1.22557
1.20958
1.24254
1.28994
1.28381
1.24615
1.20432
1.19423
1.18981
1.16987
1.14487
1.12141
1.08396
1.02551
0.336773
0.319683
0.321329
0.328555
0.355179
0.474864
0.946793
1.74254
1.67213
1.45421
1.3025
1.22563
1.20705
1.23681
1.28785
1.28424
1.24811
1.20454
1.19363
1.18946
1.17029
1.14591
1.12207
1.08579
1.02563
0.336659
0.319408
0.320948
0.327653
0.352062
0.460369
0.903792
1.70825
1.69043
1.46315
1.30996
1.22644
1.20444
1.23031
1.28503
1.28437
1.25054
1.20479
1.19264
1.18855
1.17038
1.14723
1.12368
1.0892
1.02629
0.336519
0.31907
0.320484
0.326559
0.348344
0.443409
0.849962
1.65112
1.71636
1.47342
1.31856
1.22645
1.19912
1.21863
1.27879
1.28338
1.25292
1.20512
1.19119
1.18647
1.17057
1.14862
1.12518
1.09303
1.02568
0.336361
0.318691
0.319967
0.325338
0.344251
0.425021
0.788367
1.56297
1.74694
1.48746
1.33029
1.22714
1.19305
1.20599
1.26994
1.28131
1.25501
1.20552
1.18874
1.18396
1.17011
1.15004
1.1272
1.09512
1.02663
0.336195
0.318295
0.319433
0.324072
0.340044
0.406243
0.718228
1.44603
1.77499
1.5041
1.34481
1.22943
1.1866
1.19207
1.25546
1.27754
1.25669
1.20632
1.18473
1.18128
1.16889
1.1503
1.12815
1.09842
1.02575
0.336032
0.317908
0.318915
0.322833
0.335979
0.388288
0.639422
1.30276
1.79437
1.52882
1.36137
1.23437
1.18033
1.17907
1.23667
1.27269
1.25725
1.20945
1.17958
1.17735
1.16647
1.14948
1.12782
1.0996
1.0239
0.33591
0.317572
0.318447
0.321671
0.332296
0.372684
0.564425
1.15634
1.79709
1.56113
1.38041
1.24268
1.17491
1.16577
1.21279
1.2647
1.2562
1.21525
1.17488
1.17128
1.16296
1.14748
1.12653
1.09853
1.01468
0.33584
0.317285
0.318017
0.320597
0.329045
0.359798
0.501647
1.02382
1.75306
1.60948
1.40308
1.25556
1.17195
1.15229
1.18471
1.25359
1.25314
1.22098
1.17096
1.16532
1.15846
1.14458
1.12257
1.09259
0.993663
0.336891
0.319969
0.321725
0.329491
0.358458
0.490245
0.988783
1.7636
1.65417
1.44524
1.29699
1.22555
1.21055
1.24514
1.29079
1.2835
1.24508
1.20441
1.19478
1.19014
1.16993
1.14459
1.12119
1.08335
1.0262
0.336854
0.319878
0.321598
0.329193
0.357416
0.485396
0.976373
1.75862
1.65942
1.44852
1.29819
1.22563
1.20952
1.24233
1.28991
1.28383
1.24617
1.20433
1.19424
1.18981
1.16986
1.14484
1.12138
1.08393
1.02552
0.336775
0.319688
0.321335
0.328567
0.355216
0.475025
0.947195
1.74277
1.67189
1.45399
1.30246
1.22578
1.20734
1.23725
1.28797
1.28422
1.24805
1.20453
1.19364
1.18946
1.17028
1.14589
1.12204
1.08577
1.02564
0.336662
0.319412
0.320953
0.327664
0.352095
0.460511
0.904191
1.70847
1.69006
1.46288
1.30983
1.2264
1.20448
1.2304
1.28509
1.28435
1.25048
1.20477
1.19264
1.18854
1.17037
1.14721
1.12366
1.08918
1.0263
0.336522
0.319073
0.320488
0.326567
0.348372
0.443525
0.850329
1.6515
1.71607
1.47305
1.31822
1.22647
1.19929
1.21894
1.27883
1.28332
1.25286
1.20512
1.19118
1.18646
1.17055
1.1486
1.12514
1.09301
1.02572
0.336363
0.318693
0.31997
0.325345
0.344273
0.425115
0.788697
1.56344
1.74656
1.48718
1.33028
1.22736
1.19367
1.2068
1.2704
1.2814
1.25491
1.20547
1.18873
1.18393
1.17008
1.14999
1.12714
1.09511
1.0267
0.336196
0.318297
0.319435
0.324078
0.340059
0.406308
0.718465
1.44637
1.77496
1.5041
1.34391
1.22968
1.18701
1.19254
1.25581
1.27767
1.25663
1.20622
1.18472
1.18127
1.16885
1.15025
1.12808
1.09841
1.02585
0.336033
0.31791
0.318917
0.322836
0.335989
0.388331
0.639634
1.30319
1.79438
1.52895
1.36111
1.23447
1.18029
1.17894
1.23641
1.27253
1.2572
1.2094
1.17955
1.1773
1.16642
1.14942
1.12775
1.09957
1.02402
0.335911
0.317573
0.318448
0.321673
0.332302
0.372707
0.564544
1.15661
1.79716
1.56115
1.38042
1.24265
1.1747
1.16547
1.21245
1.26458
1.25615
1.21526
1.17485
1.17125
1.16291
1.14738
1.12645
1.0985
1.01481
0.335842
0.317287
0.318018
0.320598
0.329048
0.35981
0.501712
1.024
1.75322
1.60948
1.40315
1.25551
1.17174
1.152
1.18432
1.25344
1.25309
1.22099
1.17093
1.16531
1.15843
1.14449
1.12248
1.09255
0.993796
0.33689
0.319967
0.321723
0.329485
0.358438
0.490154
0.988556
1.76346
1.6542
1.44515
1.29691
1.2256
1.21068
1.24531
1.29083
1.28349
1.24503
1.20439
1.19477
1.19013
1.16993
1.1446
1.12121
1.08337
1.02622
0.336853
0.319876
0.321597
0.329189
0.357404
0.485347
0.976273
1.75871
1.65934
1.44805
1.29793
1.22567
1.2097
1.24265
1.28997
1.2838
1.24611
1.20431
1.19422
1.1898
1.16986
1.14485
1.12139
1.08395
1.02554
0.336774
0.319686
0.321332
0.32856
0.355196
0.474934
0.946966
1.7426
1.67203
1.45421
1.30254
1.22568
1.20711
1.23689
1.28788
1.28423
1.24807
1.20452
1.19361
1.18945
1.17028
1.14589
1.12205
1.08579
1.02566
0.336661
0.31941
0.320951
0.327658
0.352076
0.46043
0.903964
1.70836
1.69033
1.46312
1.31
1.22645
1.20446
1.2304
1.28506
1.28436
1.25049
1.20475
1.19262
1.18853
1.17037
1.14722
1.12367
1.0892
1.02632
0.336521
0.319072
0.320486
0.326563
0.348357
0.44346
0.850121
1.65128
1.71629
1.47336
1.31854
1.22636
1.19895
1.21839
1.27863
1.28332
1.25291
1.20512
1.19116
1.18645
1.17055
1.1486
1.12515
1.09303
1.02574
0.336363
0.318692
0.319969
0.325342
0.344263
0.425068
0.788528
1.5632
1.74679
1.48736
1.33048
1.22711
1.19312
1.20612
1.27006
1.28135
1.25498
1.20549
1.18871
1.18392
1.17008
1.15
1.12715
1.09513
1.02672
0.336196
0.318296
0.319435
0.324076
0.340054
0.406283
0.718369
1.44624
1.77509
1.50421
1.34393
1.22947
1.18674
1.19226
1.25563
1.27762
1.25667
1.20626
1.18471
1.18126
1.16885
1.15026
1.12809
1.09843
1.02587
0.336033
0.317909
0.318917
0.322836
0.335987
0.388321
0.639578
1.30308
1.79446
1.52901
1.36104
1.2344
1.18034
1.17907
1.23666
1.27268
1.25723
1.2094
1.17954
1.17729
1.16641
1.14942
1.12776
1.09959
1.02403
0.335911
0.317573
0.318448
0.321673
0.332301
0.372705
0.564528
1.15656
1.79717
1.56118
1.38035
1.24266
1.17488
1.16574
1.21277
1.26464
1.25615
1.21523
1.17485
1.17125
1.16291
1.14739
1.12646
1.09852
1.01483
0.335842
0.317287
0.318018
0.320599
0.329048
0.359811
0.501714
1.024
1.7532
1.60947
1.40309
1.25551
1.17191
1.15228
1.18475
1.25365
1.25313
1.22095
1.17092
1.16531
1.15843
1.1445
1.12249
1.09257
0.993813
0.33689
0.319967
0.321723
0.329486
0.358441
0.490166
0.988586
1.76347
1.65419
1.44515
1.29691
1.2256
1.21068
1.24533
1.29085
1.2835
1.24503
1.20439
1.19477
1.19014
1.16993
1.14461
1.12122
1.0834
1.02624
0.336853
0.319877
0.321597
0.329189
0.357406
0.485354
0.976292
1.75871
1.65933
1.44808
1.29795
1.22567
1.2097
1.24266
1.28998
1.28381
1.24611
1.20431
1.19423
1.1898
1.16987
1.14486
1.1214
1.08398
1.02556
0.336774
0.319686
0.321332
0.328561
0.355197
0.474941
0.946986
1.74261
1.67203
1.45424
1.30259
1.22572
1.20716
1.23696
1.2879
1.28424
1.24806
1.20452
1.19362
1.18946
1.17029
1.14591
1.12207
1.08581
1.02568
0.336661
0.31941
0.320951
0.327659
0.352078
0.460437
0.903979
1.70834
1.69028
1.4631
1.30995
1.22638
1.20439
1.23025
1.28504
1.28436
1.2505
1.20476
1.19262
1.18853
1.17038
1.14723
1.12369
1.08922
1.02634
0.336521
0.319072
0.320487
0.326564
0.348359
0.443471
0.850158
1.65135
1.71626
1.47324
1.31837
1.2264
1.1991
1.21866
1.27872
1.28333
1.25289
1.20511
1.19116
1.18645
1.17056
1.14862
1.12517
1.09306
1.02577
0.336362
0.318692
0.319969
0.325342
0.344264
0.425076
0.788558
1.56325
1.74674
1.48732
1.33043
1.22724
1.19339
1.20646
1.27025
1.2814
1.25495
1.20547
1.18871
1.18392
1.17009
1.15001
1.12717
1.09515
1.02675
0.336196
0.318296
0.319435
0.324076
0.340053
0.406284
0.718375
1.44625
1.77506
1.50421
1.34402
1.22955
1.18673
1.19222
1.25563
1.27765
1.25665
1.20624
1.1847
1.18126
1.16886
1.15027
1.12811
1.09845
1.02589
0.336033
0.317909
0.318916
0.322835
0.335986
0.388317
0.639565
1.30305
1.79445
1.52904
1.36115
1.23437
1.18013
1.17878
1.23628
1.27253
1.25722
1.20942
1.17953
1.17729
1.16642
1.14944
1.12778
1.09962
1.02406
0.335911
0.317573
0.318448
0.321673
0.3323
0.372702
0.564515
1.15654
1.79719
1.56123
1.38046
1.24263
1.17468
1.16547
1.21246
1.26461
1.25616
1.21525
1.17484
1.17124
1.16291
1.1474
1.12648
1.09855
1.01486
0.335842
0.317287
0.318018
0.320598
0.329047
0.359809
0.501704
1.02398
1.75321
1.60953
1.40318
1.25552
1.17179
1.15209
1.18447
1.25355
1.25313
1.22098
1.17092
1.1653
1.15842
1.14451
1.1225
1.09259
0.993845
0.33689
0.319967
0.321723
0.329486
0.358439
0.490157
0.988555
1.76344
1.6542
1.44517
1.29693
1.2256
1.21067
1.2453
1.29082
1.28349
1.24504
1.20439
1.19476
1.19013
1.16993
1.14461
1.12122
1.0834
1.02624
0.336853
0.319876
0.321597
0.329189
0.357404
0.485346
0.976263
1.75869
1.65934
1.44808
1.29796
1.22568
1.2097
1.24264
1.28996
1.2838
1.24611
1.20431
1.19422
1.18979
1.16986
1.14485
1.1214
1.08398
1.02557
0.336774
0.319686
0.321332
0.328561
0.355196
0.474932
0.946955
1.74257
1.67203
1.45425
1.30261
1.22573
1.20716
1.23694
1.28788
1.28422
1.24806
1.20452
1.19361
1.18945
1.17028
1.14589
1.12206
1.08581
1.02569
0.336661
0.31941
0.320951
0.327658
0.352076
0.460427
0.903942
1.70829
1.69029
1.46312
1.30996
1.22639
1.20439
1.23024
1.28502
1.28435
1.2505
1.20476
1.19262
1.18852
1.17036
1.14721
1.12368
1.08922
1.02635
0.336521
0.319072
0.320486
0.326563
0.348357
0.443459
0.850115
1.65128
1.71625
1.47327
1.31842
1.22642
1.19911
1.21867
1.27872
1.28332
1.25288
1.2051
1.19116
1.18645
1.17055
1.14861
1.12518
1.09306
1.02574
0.336362
0.318692
0.319969
0.325342
0.344261
0.425062
0.788509
1.56318
1.74682
1.48739
1.33015
1.22725
1.1934
1.20645
1.27024
1.28139
1.25493
1.20546
1.18871
1.18393
1.17009
1.15003
1.12721
1.09516
1.02668
0.336196
0.318296
0.319434
0.324075
0.34005
0.406268
0.718321
1.44616
1.77494
1.50407
1.34486
1.22955
1.18674
1.19221
1.25562
1.27765
1.25665
1.20623
1.18471
1.18127
1.16888
1.15032
1.12817
1.09846
1.02578
0.336033
0.317909
0.318916
0.322834
0.335983
0.388303
0.639497
1.30291
1.79435
1.52883
1.36151
1.23439
1.18015
1.17879
1.23627
1.2725
1.2572
1.20941
1.17954
1.17731
1.16646
1.1495
1.12785
1.09964
1.02393
0.335911
0.317573
0.318448
0.321672
0.332298
0.372693
0.56447
1.15645
1.79714
1.56115
1.38053
1.24266
1.17469
1.16547
1.21244
1.26461
1.25615
1.21525
1.17485
1.17125
1.16295
1.14748
1.12656
1.09858
1.01473
0.335842
0.317286
0.318018
0.320598
0.329046
0.359803
0.501675
1.0239
1.75317
1.60953
1.40318
1.25555
1.1718
1.15208
1.18443
1.25349
1.2531
1.22097
1.17092
1.16531
1.15845
1.14457
1.12259
1.09265
0.993723
0.33689
0.319968
0.321723
0.329486
0.358441
0.490166
0.988579
1.76346
1.65418
1.44514
1.29691
1.2256
1.21068
1.24533
1.29084
1.2835
1.24503
1.20439
1.19477
1.19013
1.16993
1.14461
1.12122
1.0834
1.02625
0.336853
0.319877
0.321597
0.329189
0.357405
0.485352
0.976282
1.75869
1.65932
1.44807
1.29794
1.22567
1.2097
1.24266
1.28998
1.28381
1.24611
1.20431
1.19423
1.1898
1.16987
1.14486
1.12141
1.08398
1.02556
0.336774
0.319686
0.321332
0.328561
0.355197
0.474938
0.946973
1.74258
1.67202
1.45424
1.30259
1.22572
1.20716
1.23696
1.2879
1.28423
1.24805
1.20452
1.19362
1.18945
1.17029
1.14591
1.12207
1.08582
1.02568
0.336661
0.31941
0.320951
0.327658
0.352077
0.460432
0.903959
1.7083
1.69027
1.4631
1.30995
1.22638
1.20439
1.23025
1.28504
1.28436
1.2505
1.20476
1.19262
1.18853
1.17038
1.14723
1.12369
1.08923
1.02634
0.336521
0.319072
0.320487
0.326563
0.348358
0.443464
0.85013
1.6513
1.71624
1.47325
1.31841
1.22641
1.19911
1.21866
1.27872
1.28333
1.25289
1.20511
1.19116
1.18645
1.17056
1.14862
1.12517
1.09306
1.02577
0.336362
0.318692
0.319969
0.325342
0.344262
0.425066
0.788523
1.5632
1.74681
1.48738
1.33013
1.22725
1.1934
1.20645
1.27024
1.2814
1.25495
1.20547
1.18871
1.18392
1.17009
1.15001
1.12717
1.09515
1.02675
0.336196
0.318296
0.319434
0.324075
0.340051
0.406271
0.718331
1.44618
1.77494
1.50406
1.34484
1.22954
1.18673
1.19221
1.25562
1.27765
1.25666
1.20624
1.1847
1.18126
1.16885
1.15027
1.12811
1.09845
1.02589
0.336033
0.317909
0.318916
0.322834
0.335983
0.388305
0.639508
1.30294
1.79435
1.52882
1.3615
1.23438
1.18014
1.17878
1.23628
1.27252
1.25722
1.20942
1.17953
1.17729
1.16642
1.14943
1.12777
1.09961
1.02406
0.335911
0.317573
0.318448
0.321672
0.332299
0.372694
0.564477
1.15647
1.79714
1.56114
1.38051
1.24264
1.17468
1.16546
1.21245
1.26462
1.25617
1.21525
1.17484
1.17124
1.16291
1.1474
1.12647
1.09854
1.01486
0.335842
0.317286
0.318018
0.320598
0.329046
0.359804
0.501679
1.02392
1.75317
1.60952
1.40316
1.25553
1.17178
1.15207
1.18444
1.25353
1.25312
1.22098
1.17092
1.1653
1.15842
1.1445
1.1225
1.09258
0.993837
0.33689
0.319967
0.321723
0.329486
0.358441
0.490166
0.988586
1.76347
1.65419
1.44515
1.29691
1.2256
1.21068
1.24533
1.29085
1.2835
1.24503
1.20439
1.19477
1.19014
1.16993
1.14461
1.12122
1.0834
1.02624
0.336853
0.319877
0.321597
0.329189
0.357406
0.485354
0.976292
1.75871
1.65933
1.44807
1.29795
1.22567
1.2097
1.24265
1.28998
1.28381
1.24611
1.20431
1.19423
1.1898
1.16987
1.14486
1.1214
1.08398
1.02556
0.336774
0.319686
0.321332
0.328561
0.355197
0.474941
0.946986
1.74261
1.67203
1.45424
1.30259
1.22572
1.20716
1.23696
1.2879
1.28424
1.24806
1.20452
1.19362
1.18946
1.17029
1.14591
1.12207
1.08581
1.02568
0.336661
0.31941
0.320951
0.327659
0.352078
0.460437
0.903979
1.70834
1.69028
1.4631
1.30995
1.22638
1.20439
1.23025
1.28504
1.28436
1.2505
1.20476
1.19262
1.18853
1.17038
1.14723
1.12369
1.08922
1.02634
0.336521
0.319072
0.320487
0.326564
0.348359
0.443471
0.850158
1.65135
1.71626
1.47324
1.31837
1.2264
1.1991
1.21866
1.27872
1.28333
1.25289
1.20511
1.19116
1.18645
1.17056
1.14862
1.12517
1.09306
1.02577
0.336362
0.318692
0.319969
0.325342
0.344264
0.425076
0.788558
1.56325
1.74674
1.48732
1.33043
1.22724
1.19339
1.20646
1.27025
1.2814
1.25495
1.20547
1.18871
1.18392
1.17009
1.15001
1.12717
1.09515
1.02675
0.336196
0.318296
0.319435
0.324076
0.340053
0.406284
0.718375
1.44625
1.77506
1.50421
1.34402
1.22955
1.18673
1.19222
1.25563
1.27765
1.25665
1.20624
1.1847
1.18126
1.16886
1.15027
1.12811
1.09845
1.02589
0.336033
0.317909
0.318916
0.322835
0.335986
0.388317
0.639565
1.30305
1.79445
1.52904
1.36115
1.23437
1.18013
1.17878
1.23628
1.27253
1.25722
1.20942
1.17953
1.17729
1.16642
1.14944
1.12778
1.09962
1.02406
0.335911
0.317573
0.318448
0.321673
0.3323
0.372702
0.564515
1.15654
1.79719
1.56123
1.38046
1.24263
1.17468
1.16547
1.21246
1.26461
1.25616
1.21525
1.17484
1.17124
1.16291
1.1474
1.12648
1.09855
1.01486
0.335842
0.317287
0.318018
0.320598
0.329047
0.359809
0.501704
1.02398
1.75322
1.60953
1.40318
1.25552
1.17179
1.15209
1.18447
1.25355
1.25313
1.22098
1.17092
1.1653
1.15842
1.14451
1.1225
1.09259
0.993846
0.33689
0.319967
0.321723
0.329485
0.358438
0.490154
0.988556
1.76346
1.6542
1.44515
1.29691
1.2256
1.21068
1.24531
1.29083
1.28349
1.24503
1.20439
1.19477
1.19013
1.16993
1.1446
1.12121
1.08337
1.02622
0.336853
0.319876
0.321597
0.329189
0.357404
0.485347
0.976273
1.75871
1.65934
1.44805
1.29793
1.22567
1.2097
1.24265
1.28997
1.2838
1.24611
1.20431
1.19422
1.1898
1.16986
1.14485
1.12139
1.08395
1.02554
0.336774
0.319686
0.321332
0.32856
0.355196
0.474934
0.946966
1.7426
1.67203
1.45421
1.30254
1.22568
1.20711
1.23689
1.28788
1.28423
1.24807
1.20452
1.19361
1.18945
1.17028
1.14589
1.12205
1.08579
1.02566
0.336661
0.31941
0.320951
0.327658
0.352076
0.46043
0.903964
1.70836
1.69033
1.46312
1.31
1.22645
1.20446
1.2304
1.28506
1.28436
1.25049
1.20475
1.19262
1.18853
1.17037
1.14722
1.12367
1.0892
1.02632
0.336521
0.319072
0.320486
0.326563
0.348357
0.44346
0.850121
1.65128
1.71629
1.47336
1.31854
1.22636
1.19895
1.21839
1.27863
1.28332
1.25291
1.20512
1.19116
1.18645
1.17055
1.1486
1.12515
1.09303
1.02574
0.336363
0.318692
0.319969
0.325342
0.344263
0.425068
0.788528
1.5632
1.74679
1.48736
1.33048
1.22711
1.19312
1.20612
1.27006
1.28135
1.25498
1.20549
1.18871
1.18392
1.17008
1.15
1.12715
1.09513
1.02672
0.336196
0.318296
0.319435
0.324076
0.340054
0.406283
0.718369
1.44624
1.77509
1.50421
1.34393
1.22947
1.18674
1.19226
1.25563
1.27762
1.25667
1.20626
1.18471
1.18126
1.16885
1.15026
1.12809
1.09843
1.02587
0.336033
0.317909
0.318917
0.322836
0.335987
0.388321
0.639578
1.30308
1.79446
1.52901
1.36104
1.2344
1.18034
1.17907
1.23666
1.27268
1.25723
1.2094
1.17954
1.17729
1.16641
1.14942
1.12776
1.09959
1.02403
0.335911
0.317573
0.318448
0.321673
0.332301
0.372705
0.564528
1.15656
1.79717
1.56118
1.38035
1.24266
1.17488
1.16574
1.21277
1.26464
1.25615
1.21523
1.17485
1.17125
1.16291
1.14739
1.12646
1.09852
1.01483
0.335842
0.317287
0.318018
0.320599
0.329048
0.359811
0.501714
1.024
1.7532
1.60947
1.40309
1.25551
1.17191
1.15228
1.18475
1.25365
1.25313
1.22095
1.17092
1.16531
1.15843
1.1445
1.12249
1.09257
0.993813
0.336891
0.319969
0.321725
0.329491
0.358458
0.490245
0.988782
1.7636
1.65417
1.44524
1.29699
1.22555
1.21055
1.24514
1.29079
1.2835
1.24508
1.20441
1.19478
1.19014
1.16993
1.14459
1.12119
1.08335
1.0262
0.336854
0.319878
0.321598
0.329193
0.357416
0.485395
0.976372
1.75862
1.65942
1.44852
1.29819
1.22563
1.20952
1.24233
1.28991
1.28383
1.24617
1.20433
1.19424
1.18981
1.16986
1.14484
1.12138
1.08393
1.02552
0.336775
0.319688
0.321335
0.328567
0.355216
0.475025
0.947194
1.74277
1.67189
1.45399
1.30246
1.22578
1.20734
1.23725
1.28797
1.28422
1.24805
1.20453
1.19363
1.18946
1.17028
1.14589
1.12204
1.08576
1.02564
0.336662
0.319412
0.320953
0.327664
0.352095
0.460511
0.90419
1.70847
1.69006
1.46288
1.30983
1.2264
1.20448
1.2304
1.28509
1.28435
1.25048
1.20477
1.19264
1.18854
1.17037
1.14721
1.12366
1.08918
1.0263
0.336522
0.319073
0.320488
0.326567
0.348372
0.443525
0.850329
1.65149
1.71607
1.47305
1.31822
1.22647
1.19929
1.21894
1.27883
1.28332
1.25286
1.20512
1.19118
1.18646
1.17055
1.1486
1.12514
1.09301
1.02572
0.336363
0.318693
0.31997
0.325345
0.344273
0.425115
0.788696
1.56344
1.74656
1.48718
1.33028
1.22736
1.19367
1.2068
1.2704
1.2814
1.25491
1.20547
1.18873
1.18393
1.17008
1.14999
1.12714
1.09511
1.0267
0.336196
0.318297
0.319435
0.324078
0.340059
0.406308
0.718465
1.44637
1.77496
1.5041
1.34391
1.22968
1.18701
1.19254
1.25581
1.27767
1.25663
1.20622
1.18472
1.18127
1.16885
1.15025
1.12808
1.09841
1.02585
0.336033
0.31791
0.318917
0.322836
0.335989
0.388331
0.639634
1.30319
1.79438
1.52895
1.36111
1.23447
1.18029
1.17894
1.23641
1.27253
1.2572
1.2094
1.17955
1.1773
1.16642
1.14942
1.12775
1.09957
1.02402
0.335911
0.317573
0.318448
0.321673
0.332302
0.372707
0.564544
1.15661
1.79716
1.56115
1.38042
1.24265
1.1747
1.16547
1.21245
1.26458
1.25615
1.21526
1.17485
1.17125
1.16291
1.14738
1.12645
1.0985
1.01481
0.335842
0.317287
0.318018
0.320598
0.329048
0.35981
0.501712
1.024
1.75322
1.60948
1.40315
1.25551
1.17174
1.152
1.18432
1.25344
1.25309
1.22099
1.17093
1.16531
1.15842
1.14449
1.12248
1.09255
0.993796
0.336888
0.319964
0.321719
0.329478
0.358416
0.490059
0.988333
1.76343
1.65433
1.44515
1.29685
1.22552
1.21058
1.24523
1.29081
1.28351
1.24506
1.20442
1.1948
1.19017
1.17
1.14468
1.1213
1.08336
1.02601
0.336851
0.319874
0.321593
0.329181
0.357381
0.485247
0.976036
1.75869
1.65954
1.44817
1.29804
1.22568
1.20964
1.24254
1.28993
1.28381
1.24615
1.20434
1.19426
1.18984
1.16992
1.14492
1.12147
1.08393
1.02535
0.336772
0.319683
0.321328
0.328552
0.35517
0.474818
0.946668
1.74237
1.67228
1.45461
1.30287
1.22559
1.20685
1.23655
1.28778
1.28424
1.24811
1.20454
1.19364
1.18948
1.17032
1.14595
1.12212
1.08576
1.02549
0.33666
0.319408
0.320948
0.327653
0.35206
0.460356
0.903744
1.7082
1.69041
1.46304
1.3098
1.22623
1.20425
1.23006
1.28495
1.28435
1.25055
1.2048
1.19264
1.18855
1.17038
1.14723
1.12369
1.08917
1.02619
0.33652
0.319071
0.320485
0.32656
0.348349
0.443424
0.85001
1.65126
1.71632
1.47314
1.31823
1.22657
1.19953
1.21918
1.27891
1.28333
1.25287
1.20511
1.19118
1.18646
1.17055
1.1486
1.12516
1.09301
1.02566
0.336361
0.318691
0.319967
0.325339
0.344255
0.425037
0.788427
1.56308
1.74685
1.48735
1.33013
1.2275
1.19375
1.20686
1.27051
1.28148
1.25493
1.20546
1.18873
1.18394
1.17008
1.15001
1.12717
1.09511
1.02663
0.336195
0.318295
0.319433
0.324073
0.340045
0.40625
0.718255
1.44605
1.7749
1.50408
1.34498
1.22964
1.18664
1.192
1.25531
1.27752
1.25665
1.20625
1.18472
1.18126
1.16886
1.15027
1.12812
1.09841
1.02575
0.336032
0.317908
0.318915
0.322833
0.33598
0.388292
0.639442
1.30279
1.79433
1.52882
1.36156
1.23431
1.17996
1.17855
1.23601
1.27244
1.25719
1.20947
1.17956
1.17733
1.16644
1.14946
1.1278
1.09959
1.02391
0.33591
0.317572
0.318447
0.321671
0.332297
0.37269
0.564452
1.1564
1.79712
1.56114
1.38049
1.24258
1.1746
1.16537
1.21227
1.26447
1.25612
1.2153
1.17487
1.17126
1.16294
1.14746
1.12651
1.09852
1.01469
0.33584
0.317286
0.318017
0.320598
0.329047
0.359805
0.501682
1.0239
1.75314
1.60949
1.40313
1.25549
1.17184
1.15218
1.18458
1.2536
1.25316
1.22102
1.17095
1.16531
1.15845
1.14456
1.12256
1.09259
0.993673
0.33584
0.317059
0.317628
0.31963
0.326265
0.349568
0.452862
0.887151
1.6514
1.65913
1.42958
1.27582
1.17243
1.1389
1.15438
1.23545
1.24891
1.22612
1.17168
1.15883
1.14987
1.13972
1.11593
1.08393
0.936769
0.335922
0.316886
0.31728
0.318821
0.324002
0.341388
0.414169
0.753301
1.47925
1.71246
1.46218
1.30367
1.1767
1.12571
1.1274
1.20111
1.24147
1.22897
1.17507
1.14995
1.14426
1.13454
1.10741
1.07798
0.9429
0.336066
0.316737
0.316998
0.318268
0.322301
0.334969
0.38441
0.624483
1.2631
1.74732
1.50758
1.3344
1.18899
1.11534
1.10429
1.15453
1.22794
1.22827
1.18678
1.14964
1.13643
1.1273
1.09909
1.07445
0.968387
0.336211
0.316596
0.316901
0.317916
0.320838
0.329915
0.363232
0.5212
1.07596
1.75093
1.56838
1.36641
1.21333
1.11377
1.08644
1.10841
1.19518
1.22394
1.19978
1.15231
1.12813
1.11807
1.094
1.07469
1.01361
0.336294
0.316575
0.316807
0.317486
0.319608
0.326146
0.348748
0.45055
0.891188
1.6767
1.63055
1.39976
1.24859
1.11794
1.07095
1.07284
1.13359
1.21363
1.20108
1.16062
1.12806
1.11563
1.08888
1.07595
1.04208
0.33633
0.316601
0.316695
0.317137
0.318655
0.323334
0.338747
0.40279
0.710159
1.39876
1.67701
1.44489
1.28939
1.1321
1.06308
1.04791
1.0784
1.19061
1.19765
1.17772
1.13193
1.11743
1.09026
1.07443
1.06207
0.336344
0.316665
0.316559
0.316849
0.317938
0.321265
0.331819
0.371998
0.566754
1.1538
1.69831
1.52011
1.33393
1.16807
1.06477
1.029
1.03768
1.13283
1.18775
1.17946
1.14209
1.12293
1.09432
1.07467
1.0642
0.336349
0.316724
0.316432
0.316637
0.317407
0.319732
0.326871
0.352132
0.471258
0.962586
1.70028
1.59224
1.37645
1.2259
1.07488
1.02468
1.01009
1.062
1.16783
1.17545
1.15692
1.13852
1.10372
1.07658
1.06203
0.33635
0.316766
0.316337
0.316481
0.317025
0.31864
0.323441
0.339181
0.405672
0.737661
1.52672
1.62927
1.41818
1.27832
1.1012
1.02773
1.00022
1.01757
1.11414
1.15971
1.15578
1.14904
1.12853
1.08503
1.06293
0.33635
0.316794
0.31627
0.31637
0.316748
0.317862
0.321109
0.331204
0.3693
0.556808
1.12491
1.64771
1.4801
1.34767
1.14946
1.03727
1.00064
0.991552
1.03522
1.13012
1.15082
1.1503
1.14441
1.10974
1.07056
0.33635
0.316812
0.316224
0.316294
0.316557
0.317318
0.319466
0.325861
0.348047
0.450612
0.890326
1.64263
1.54941
1.42233
1.23293
1.06103
1.00753
0.981184
0.998476
1.08685
1.13808
1.14868
1.14813
1.13569
1.0921
0.336351
0.316821
0.316196
0.316244
0.316433
0.316959
0.31836
0.322338
0.335007
0.386273
0.656402
1.39869
1.5581
1.47293
1.33342
1.11878
1.0309
0.982501
0.978095
1.01493
1.1094
1.14138
1.1472
1.14432
1.12774
0.336353
0.316826
0.31618
0.316215
0.316356
0.316727
0.317646
0.320112
0.327435
0.353288
0.477662
0.941521
1.55495
1.4913
1.41076
1.21043
1.07032
0.993273
0.967676
0.980233
1.04126
1.11845
1.14134
1.14353
1.14
0.336353
0.316827
0.316174
0.316203
0.316313
0.316599
0.317207
0.318713
0.322975
0.336545
0.391703
0.676857
1.40095
1.47673
1.44279
1.30052
1.11436
1.02048
0.969909
0.955367
0.976977
1.05686
1.12057
1.13887
1.13997
0.336353
0.316827
0.316174
0.3162
0.316297
0.316556
0.316941
0.317898
0.320438
0.327599
0.351955
0.471022
0.917734
1.44574
1.43456
1.36754
1.1805
1.05403
0.983175
0.950203
0.950481
0.978495
1.06457
1.11999
1.13631
0.336353
0.316827
0.316174
0.3162
0.316293
0.316549
0.316813
0.317471
0.319071
0.323015
0.33445
0.378827
0.607294
1.20632
1.41137
1.3764
1.25164
1.09096
1.00738
0.958844
0.931876
0.940383
0.977571
1.07219
1.11942
0.336353
0.316827
0.316173
0.3162
0.316292
0.316548
0.31679
0.317288
0.31851
0.320753
0.326243
0.343978
0.421447
0.742436
1.30439
1.36784
1.29722
1.13958
1.02896
0.978851
0.936706
0.917451
0.928277
0.971452
1.07064
0.336353
0.316827
0.316173
0.3162
0.316291
0.316547
0.316789
0.317265
0.31841
0.319645
0.322624
0.330761
0.357382
0.478971
0.85984
1.31306
1.30044
1.19229
1.04898
0.990624
0.954131
0.91601
0.90817
0.918574
0.96743
0.336353
0.316827
0.316173
0.3162
0.316291
0.316547
0.316789
0.31726
0.318437
0.319355
0.321094
0.326068
0.33757
0.372467
0.527676
0.920375
1.27853
1.21107
1.07658
0.994737
0.960606
0.926704
0.895417
0.893835
0.909132
0.336353
0.316827
0.316173
0.3162
0.316291
0.316547
0.31679
0.31726
0.318442
0.319385
0.320904
0.324964
0.330826
0.344973
0.38847
0.549124
0.927865
1.1899
1.08963
0.992812
0.956668
0.932024
0.899232
0.878619
0.878635
0.336353
0.316827
0.316173
0.3162
0.316291
0.316547
0.316789
0.317259
0.318442
0.319384
0.320897
0.324906
0.329458
0.338019
0.359817
0.407038
0.540931
0.830213
1.023
0.976853
0.941797
0.925671
0.904021
0.87416
0.861893
0.336353
0.316827
0.316173
0.3162
0.316291
0.316547
0.31679
0.31726
0.318443
0.319386
0.320898
0.324896
0.329489
0.337533
0.35676
0.382253
0.435762
0.533109
0.662327
0.825347
0.902698
0.907029
0.899415
0.877038
0.848496
0.336353
0.316827
0.316173
0.3162
0.316291
0.316547
0.316789
0.317259
0.318442
0.319385
0.320897
0.324893
0.329486
0.337501
0.356729
0.380478
0.426543
0.490842
0.529289
0.577137
0.683049
0.835277
0.881617
0.873092
0.847078
0.336352
0.316827
0.316173
0.3162
0.316291
0.316547
0.31679
0.31726
0.318443
0.319386
0.320898
0.324895
0.329492
0.337509
0.35672
0.380434
0.426302
0.487855
0.519532
0.527625
0.549459
0.613872
0.752877
0.8479
0.840888
0.336353
0.316827
0.316173
0.3162
0.316291
0.316546
0.316789
0.317259
0.318442
0.319385
0.320897
0.324891
0.329488
0.337499
0.3567
0.380404
0.42625
0.487502
0.519129
0.522328
0.527149
0.542766
0.580958
0.658144
0.771499
0.336353
0.316827
0.316173
0.3162
0.316291
0.316547
0.31679
0.31726
0.318443
0.319386
0.320898
0.324895
0.329491
0.337509
0.35672
0.380427
0.426315
0.487588
0.519224
0.522192
0.524888
0.534071
0.544452
0.561401
0.594909
0.336353
0.316827
0.316173
0.3162
0.316291
0.316547
0.316789
0.317259
0.318442
0.319385
0.320897
0.324893
0.329485
0.337501
0.356715
0.380411
0.426272
0.487592
0.519219
0.52217
0.524687
0.533421
0.540271
0.54303
0.547301
0.336353
0.316827
0.316173
0.3162
0.316291
0.316547
0.31679
0.31726
0.318443
0.319385
0.320898
0.324894
0.329491
0.337507
0.356716
0.380425
0.426301
0.487577
0.519221
0.522171
0.524641
0.53332
0.539835
0.540635
0.539681
0.336353
0.316827
0.316173
0.3162
0.316291
0.316547
0.316789
0.317259
0.318442
0.319384
0.320897
0.324893
0.329485
0.337501
0.356715
0.38041
0.426266
0.48759
0.519224
0.522177
0.524674
0.533389
0.539815
0.540317
0.53885
0.336353
0.316827
0.316173
0.3162
0.316291
0.316547
0.316789
0.31726
0.318442
0.319385
0.320898
0.324894
0.329489
0.337505
0.356716
0.380424
0.426298
0.487585
0.519232
0.522185
0.524661
0.533353
0.539811
0.540297
0.538756
0.336353
0.316827
0.316173
0.3162
0.316291
0.316546
0.316789
0.317259
0.318442
0.319385
0.320897
0.324891
0.329486
0.337497
0.356699
0.380401
0.42625
0.487482
0.519134
0.522083
0.52453
0.533193
0.539684
0.540166
0.538584
0.336353
0.316827
0.316173
0.3162
0.316291
0.316547
0.316789
0.317259
0.318442
0.319385
0.320898
0.324894
0.329485
0.337503
0.35672
0.380417
0.426294
0.487617
0.519235
0.522185
0.524681
0.533393
0.539813
0.54028
0.538714
0.336353
0.316827
0.316173
0.3162
0.316291
0.316546
0.316789
0.317259
0.318442
0.319384
0.320897
0.324893
0.329482
0.337499
0.356717
0.380413
0.426277
0.487618
0.519242
0.52219
0.524688
0.533403
0.539811
0.540272
0.538698
0.336353
0.316827
0.316173
0.3162
0.316291
0.316546
0.316789
0.317259
0.318442
0.319386
0.320897
0.324891
0.329486
0.337496
0.356702
0.380403
0.426242
0.487506
0.519161
0.522099
0.524535
0.533181
0.539665
0.540146
0.538559
0.336353
0.316827
0.316173
0.3162
0.316291
0.316546
0.316789
0.317259
0.318442
0.319384
0.320897
0.324892
0.329481
0.337497
0.356717
0.380413
0.426261
0.487617
0.519251
0.522199
0.524698
0.533413
0.539816
0.540274
0.538698
0.336353
0.316827
0.316173
0.3162
0.316291
0.316546
0.316789
0.317259
0.318442
0.319384
0.320897
0.324893
0.329482
0.337499
0.356718
0.380414
0.426289
0.487625
0.519242
0.522191
0.52469
0.533405
0.53982
0.540287
0.538718
0.336353
0.316827
0.316173
0.3162
0.316291
0.316546
0.316789
0.317259
0.318441
0.319385
0.320897
0.324891
0.32948
0.337492
0.356702
0.380396
0.426236
0.487521
0.51916
0.522108
0.524575
0.533255
0.539698
0.540163
0.538572
0.336353
0.316827
0.316173
0.3162
0.316291
0.316546
0.316789
0.317259
0.318441
0.319384
0.320897
0.324892
0.329483
0.337499
0.356714
0.380418
0.426282
0.487596
0.51924
0.52219
0.524671
0.533369
0.539815
0.540291
0.538724
0.336353
0.316827
0.316173
0.3162
0.316291
0.316546
0.316789
0.317259
0.318441
0.319385
0.320896
0.32489
0.32948
0.337491
0.3567
0.380395
0.426238
0.487528
0.519171
0.522114
0.524572
0.533239
0.539685
0.540153
0.538564
0.336353
0.316827
0.316173
0.3162
0.316291
0.316546
0.316789
0.317259
0.318441
0.319384
0.320897
0.324893
0.329479
0.337497
0.356717
0.380412
0.426281
0.487637
0.519251
0.522195
0.524691
0.5334
0.539805
0.540267
0.538695
0.335842
0.31706
0.317629
0.319631
0.326267
0.349575
0.452897