/*--------------------------------*- C++ -*----------------------------------*\
| =========                 |                                                 |
| \\      /  F ield         | OpenFOAM: The Open Source CFD Toolbox           |
|  \\    /   O peration     | Version:  4.1                                   |
|   \\  /    A nd           | Web:      www.OpenFOAM.org                      |
|    \\/     M anipulation  |                                                 |
\*---------------------------------------------------------------------------*/
FoamFile
{
    version     2.0;
    format      ascii;
    class       volVectorField;
    location    "0.5";
    object      U;
}
// * * * * * * * * * * * * * * * * * * * * * * * * * * * * * * * * * * * * * //

dimensions      [0 1 -1 0 0 0 0];

internalField   nonuniform List<vector> 
52500
(
(1.81919 4.72753e-06 -0.00216261)
(1.84579 4.04451e-05 -0.00198861)
(1.84423 7.89718e-05 -0.0020039)
(1.83601 0.000161915 -0.00206385)
(1.80343 0.000428814 -0.00227735)
(1.64856 0.00153197 -0.00320041)
(0.845915 0.00680041 -0.00690332)
(-0.343007 0.0290395 -0.012525)
(-0.534455 0.0287353 -0.0113052)
(-0.176692 0.0259959 -0.0100515)
(-0.186659 0.0263457 -0.00906933)
(-0.215188 0.0251836 -0.00856322)
(-0.208996 0.0241961 -0.00846029)
(-0.201377 0.0246065 -0.00870752)
(-0.180555 0.0251187 -0.00904161)
(-0.15283 0.0259941 -0.00900805)
(-0.116262 0.0266444 -0.00876087)
(-0.0815506 0.0274156 -0.00849825)
(-0.0456422 0.0280134 -0.0084556)
(-0.00420526 0.0289676 -0.00843871)
(0.0314513 0.0305357 -0.00828994)
(0.0458935 0.0325781 -0.00809963)
(0.0713744 0.0340667 -0.00792995)
(0.0306644 0.0367218 -0.00767786)
(0.0311936 0.0370898 -0.00728883)
(1.81926 1.43335e-05 -0.00216239)
(1.84587 0.000125154 -0.0019879)
(1.84435 0.000245223 -0.00200287)
(1.83631 0.000504721 -0.00206152)
(1.8046 0.0013428 -0.00226971)
(1.65423 0.00480439 -0.00316574)
(0.869242 0.0215109 -0.00678906)
(-0.330843 0.0876499 -0.012412)
(-0.539529 0.0772649 -0.011284)
(-0.179152 0.0636084 -0.0100271)
(-0.18432 0.0625314 -0.00903979)
(-0.213142 0.0592195 -0.00853245)
(-0.206381 0.0564372 -0.00842402)
(-0.198154 0.0571455 -0.00865882)
(-0.177359 0.0577764 -0.00900316)
(-0.149672 0.0586977 -0.00897674)
(-0.113229 0.059232 -0.00873511)
(-0.078515 0.0603581 -0.00846477)
(-0.0426883 0.0615023 -0.00841839)
(-0.000854155 0.0634152 -0.00839945)
(0.0351094 0.066699 -0.0082496)
(0.0490878 0.0716301 -0.00806002)
(0.0742851 0.0750047 -0.00788943)
(0.0326264 0.0800724 -0.00763932)
(0.0318579 0.0807335 -0.00724402)
(1.81939 2.29219e-05 -0.00216192)
(1.84605 0.000205543 -0.00198642)
(1.84459 0.000403499 -0.00200075)
(1.83696 0.000832959 -0.00205666)
(1.80711 0.00222025 -0.00225366)
(1.66658 0.00789415 -0.00309204)
(0.924771 0.0354173 -0.00653852)
(-0.294983 0.14947 -0.0122323)
(-0.544519 0.13246 -0.0113099)
(-0.179372 0.105542 -0.0100293)
(-0.177483 0.10453 -0.00903918)
(-0.208888 0.100101 -0.00850358)
(-0.201703 0.0962755 -0.00837806)
(-0.192891 0.0978435 -0.00859033)
(-0.172732 0.0993022 -0.00895773)
(-0.145161 0.101179 -0.00894765)
(-0.108623 0.10219 -0.00871685)
(-0.0737631 0.103921 -0.00843459)
(-0.0381199 0.106135 -0.00838153)
(0.00427077 0.109434 -0.008359)
(0.041212 0.114193 -0.00821051)
(0.0549562 0.121728 -0.00802425)
(0.0796022 0.127252 -0.00785063)
(0.0364655 0.13483 -0.00760912)
(0.0332823 0.136306 -0.00720459)
(1.81958 2.87235e-05 -0.00216125)
(1.8463 0.000266726 -0.00198429)
(1.84494 0.000523891 -0.00199769)
(1.83788 0.00108308 -0.00204967)
(1.81063 0.0028829 -0.00223098)
(1.68379 0.0101066 -0.00298981)
(1.00916 0.045161 -0.00618684)
(-0.23782 0.202457 -0.0119409)
(-0.551216 0.191025 -0.0113816)
(-0.183773 0.147234 -0.0100477)
(-0.166707 0.145823 -0.00905943)
(-0.202181 0.140223 -0.00848216)
(-0.195234 0.134759 -0.0083328)
(-0.185711 0.136646 -0.00851814)
(-0.166139 0.138628 -0.00890899)
(-0.13848 0.141849 -0.00891842)
(-0.102096 0.143786 -0.00870345)
(-0.0668991 0.146311 -0.00840608)
(-0.0311618 0.149978 -0.00834343)
(0.0119501 0.155682 -0.00831382)
(0.0499625 0.161955 -0.00816694)
(0.063718 0.172004 -0.00798849)
(0.0880371 0.180251 -0.00781698)
(0.0430279 0.190887 -0.00758849)
(0.0359463 0.194493 -0.00716803)
(1.81982 3.09535e-05 -0.00216042)
(1.84661 0.000306679 -0.00198168)
(1.84536 0.00060325 -0.00199395)
(1.83898 0.00124952 -0.00204117)
(1.8148 0.00332204 -0.0022039)
(1.70395 0.0114581 -0.00287091)
(1.11555 0.0510854 -0.00576658)
(-0.15626 0.241862 -0.0115118)
(-0.555688 0.254761 -0.0115325)
(-0.193898 0.188874 -0.010074)
(-0.152695 0.186888 -0.00909053)
(-0.193612 0.180392 -0.00845699)
(-0.187478 0.172913 -0.00827047)
(-0.177185 0.17489 -0.0084124)
(-0.158411 0.177377 -0.00883817)
(-0.130167 0.18182 -0.00888309)
(-0.093879 0.184926 -0.00869103)
(-0.0580738 0.188249 -0.00837976)
(-0.0216227 0.193582 -0.0083032)
(0.022259 0.202193 -0.00825934)
(0.0610258 0.209718 -0.00812271)
(0.0754245 0.222207 -0.00795117)
(0.0995439 0.233383 -0.0077805)
(0.0528101 0.247672 -0.00756781)
(0.0404481 0.25382 -0.00712163)
(1.82009 2.86664e-05 -0.00215948)
(1.84695 0.000324305 -0.00197875)
(1.84582 0.000640255 -0.00198977)
(1.8402 0.00133199 -0.00203163)
(1.81931 0.003542 -0.00217384)
(1.72572 0.01204 -0.00274302)
(1.23453 0.0536984 -0.00530981)
(-0.0430585 0.262331 -0.010893)
(-0.551574 0.324436 -0.0117474)
(-0.214296 0.231261 -0.0101227)
(-0.135259 0.227547 -0.00914583)
(-0.183062 0.220681 -0.0084383)
(-0.178714 0.21075 -0.00820427)
(-0.167196 0.212364 -0.00830217)
(-0.149334 0.21559 -0.00875117)
(-0.120116 0.221407 -0.00884212)
(-0.0839819 0.225937 -0.0086782)
(-0.0472384 0.230103 -0.0083554)
(-0.00933709 0.237748 -0.00824796)
(0.035003 0.248463 -0.00819653)
(0.0742697 0.257739 -0.00807265)
(0.0901039 0.273055 -0.00791113)
(0.114535 0.287293 -0.00774457)
(0.0659728 0.306293 -0.00753084)
(0.046577 0.315744 -0.00708334)
(1.82037 2.11345e-05 -0.0021585)
(1.84729 0.000317899 -0.00197568)
(1.84628 0.000632627 -0.00198543)
(1.84143 0.00132893 -0.00202165)
(1.82387 0.00354122 -0.00214253)
(1.74776 0.0118893 -0.00261285)
(1.35446 0.0528639 -0.00480378)
(0.107222 0.260247 -0.0100962)
(-0.531807 0.397089 -0.0119433)
(-0.247381 0.275661 -0.0101832)
(-0.115061 0.267384 -0.00921731)
(-0.169988 0.261024 -0.00843205)
(-0.168999 0.248551 -0.00813681)
(-0.155801 0.248844 -0.00818585)
(-0.1391 0.253372 -0.00862663)
(-0.108477 0.260436 -0.0087915)
(-0.0723991 0.266647 -0.00866412)
(-0.0340066 0.271885 -0.00833562)
(0.00551045 0.282232 -0.00818342)
(0.0497773 0.293986 -0.00813244)
(0.0904081 0.305798 -0.008016)
(0.108054 0.3247 -0.00786201)
(0.133544 0.342695 -0.00769828)
(0.0841498 0.3668 -0.00749687)
(0.0552966 0.383074 -0.00702528)
(1.82064 4.41987e-06 -0.00215755)
(1.84762 0.000285672 -0.00197268)
(1.84672 0.000582499 -0.00198118)
(1.84262 0.00125124 -0.00201182)
(1.82821 0.00335951 -0.00211186)
(1.76861 0.0111132 -0.00248763)
(1.46695 0.0482726 -0.00423864)
(0.298728 0.233816 -0.00913596)
(-0.489749 0.469499 -0.0120534)
(-0.293647 0.324679 -0.0102869)
(-0.0935241 0.306146 -0.0092995)
(-0.153507 0.301269 -0.0084454)
(-0.158284 0.286476 -0.0080725)
(-0.142986 0.284269 -0.00807736)
(-0.127176 0.29032 -0.00847558)
(-0.095356 0.298538 -0.00873559)
(-0.0590468 0.306625 -0.00864468)
(-0.018266 0.313378 -0.00833249)
(0.0227881 0.325951 -0.00811095)
(0.0665034 0.339114 -0.00805848)
(0.10993 0.353639 -0.00794984)
(0.130174 0.376491 -0.00780308)
(0.157213 0.399946 -0.00763962)
(0.109228 0.431225 -0.00744252)
(0.0687686 0.460553 -0.00695088)
(1.82086 -1.37034e-05 -0.00215687)
(1.84788 0.000241092 -0.00197001)
(1.84709 0.000508889 -0.00197727)
(1.8437 0.00113021 -0.00200256)
(1.83213 0.00307217 -0.0020839)
(1.78655 0.00995657 -0.0023776)
(1.56101 0.0412816 -0.00371115)
(0.522069 0.193812 -0.00813307)
(-0.415429 0.534026 -0.012133)
(-0.350514 0.382832 -0.0103985)
(-0.0741545 0.343504 -0.00939412)
(-0.132764 0.341255 -0.00848236)
(-0.146287 0.324593 -0.00801617)
(-0.129054 0.319045 -0.00796835)
(-0.113682 0.325959 -0.00829284)
(-0.0810403 0.3352 -0.00866082)
(-0.0439251 0.345367 -0.00861674)
(-0.000138666 0.354688 -0.00833735)
(0.0425519 0.368276 -0.00803395)
(0.0856641 0.383743 -0.00796949)
(0.1328 0.401371 -0.00787483)
(0.157345 0.428498 -0.00773336)
(0.188086 0.459571 -0.00756831)
(0.146793 0.50281 -0.00736439)
(0.0911444 0.556905 -0.00680837)
(1.82102 -2.67554e-05 -0.00215651)
(1.84808 0.000191157 -0.00196768)
(1.8474 0.000420853 -0.00197365)
(1.84468 0.000985893 -0.00199399)
(1.83558 0.00273745 -0.0020591)
(1.80133 0.0086944 -0.00228569)
(1.63615 0.0340171 -0.00327398)
(0.770582 0.158507 -0.00707557)
(-0.298544 0.572829 -0.0118961)
(-0.408303 0.455455 -0.010626)
(-0.0637003 0.379677 -0.00950655)
(-0.106653 0.380596 -0.00855058)
(-0.132476 0.363069 -0.00797888)
(-0.114306 0.353277 -0.00785932)
(-0.09887 0.359842 -0.00808451)
(-0.0658444 0.370053 -0.00856667)
(-0.0265994 0.382586 -0.00857763)
(0.0201792 0.39532 -0.00834352)
(0.06446 0.408594 -0.00796361)
(0.107967 0.426907 -0.00788169)
(0.15957 0.448291 -0.00779207)
(0.190824 0.48074 -0.00765472)
(0.22921 0.522573 -0.00747145)
(0.206418 0.585657 -0.00724035)
(0.130917 0.69928 -0.00655291)
(1.81919 4.77327e-06 -5.10078e-09)
(1.84579 4.07789e-05 -1.79527e-08)
(1.84422 7.96524e-05 -2.30317e-08)
(1.836 0.000163452 -4.39729e-08)
(1.80338 0.000433405 -1.19562e-07)
(1.64833 0.00155028 -4.43268e-07)
(0.845021 0.00689386 -1.64778e-06)
(-0.343604 0.0293182 -1.15151e-06)
(-0.534369 0.0287765 1.38704e-06)
(-0.1767 0.0260464 3.45767e-08)
(-0.186724 0.0263578 6.81483e-08)
(-0.215146 0.0251729 2.66227e-07)
(-0.208909 0.0242231 1.7793e-07)
(-0.201299 0.0246504 1.94785e-07)
(-0.180517 0.0251421 1.68125e-07)
(-0.152818 0.0259914 2.09519e-07)
(-0.116257 0.0266339 2.32583e-07)
(-0.0815489 0.0274064 2.06648e-07)
(-0.0456371 0.028003 1.86823e-07)
(-0.00419969 0.0289549 1.60431e-07)
(0.0314535 0.0305208 1.39155e-07)
(0.0458897 0.0325629 1.45898e-07)
(0.0713686 0.0340542 1.53081e-07)
(0.0306627 0.0367126 1.24743e-07)
(0.0312002 0.0370913 1.50932e-07)
(1.81925 1.43366e-05 -4.72535e-09)
(1.84587 0.000125268 -1.52607e-08)
(1.84434 0.000245453 -1.92781e-08)
(1.8363 0.000505217 -3.57551e-08)
(1.80457 0.0013443 -9.49336e-08)
(1.65408 0.00481123 -3.45542e-07)
(0.868667 0.0215454 -1.21674e-06)
(-0.330408 0.0876516 -1.24673e-06)
(-0.538764 0.0771563 1.13578e-06)
(-0.17838 0.0634599 3.53469e-07)
(-0.183825 0.0623806 8.56061e-08)
(-0.212746 0.0591655 1.62624e-07)
(-0.206059 0.0564472 1.50535e-07)
(-0.197973 0.0571655 1.90379e-07)
(-0.177291 0.0578069 1.94644e-07)
(-0.149654 0.0587297 2.41477e-07)
(-0.113222 0.0592494 2.64015e-07)
(-0.0785158 0.0603528 2.40084e-07)
(-0.0426892 0.0614847 2.15655e-07)
(-0.000855411 0.0633905 1.86013e-07)
(0.0351059 0.0666663 1.4939e-07)
(0.0490811 0.0715937 1.34775e-07)
(0.0742782 0.074971 1.3698e-07)
(0.0326244 0.0800409 1.03863e-07)
(0.0318696 0.0807224 1.18817e-07)
(1.81939 2.29567e-05 -4.39545e-09)
(1.84605 0.000205615 -1.37916e-08)
(1.84459 0.000403605 -1.76113e-08)
(1.83695 0.000832978 -3.31635e-08)
(1.80706 0.00221963 -8.82911e-08)
(1.66638 0.00789076 -3.1655e-07)
(0.92394 0.0353914 -1.14426e-06)
(-0.295645 0.149382 -1.25759e-06)
(-0.544535 0.132427 1.03518e-06)
(-0.179508 0.105456 3.6972e-07)
(-0.177827 0.104448 1.41584e-07)
(-0.209156 0.100165 1.65231e-07)
(-0.201911 0.0963926 1.76984e-07)
(-0.193016 0.0979291 2.08198e-07)
(-0.172801 0.0993618 2.21328e-07)
(-0.145214 0.101219 2.7708e-07)
(-0.108667 0.102206 2.98783e-07)
(-0.0737948 0.103909 2.81689e-07)
(-0.0381323 0.106107 2.6862e-07)
(0.00426334 0.109395 2.33866e-07)
(0.0412064 0.114145 1.79101e-07)
(0.0549552 0.121675 1.17328e-07)
(0.0796044 0.127202 1.1085e-07)
(0.0364729 0.134778 4.93702e-08)
(0.0332934 0.136284 7.73236e-08)
(1.81958 2.88276e-05 -4.13533e-09)
(1.8463 0.000267196 -1.21257e-08)
(1.84494 0.000524781 -1.55131e-08)
(1.83787 0.00108482 -2.93364e-08)
(1.8106 0.00288727 -7.84593e-08)
(1.68362 0.0101222 -2.79636e-07)
(1.00835 0.0452246 -1.04001e-06)
(-0.23825 0.202561 -1.69201e-06)
(-0.551094 0.190957 1.01667e-06)
(-0.183808 0.147214 4.8646e-07)
(-0.167065 0.145791 2.36792e-07)
(-0.202481 0.140266 1.78817e-07)
(-0.195541 0.134867 1.85653e-07)
(-0.186002 0.13674 1.9338e-07)
(-0.166352 0.138693 2.76133e-07)
(-0.138621 0.141867 3.20275e-07)
(-0.102181 0.14377 3.3936e-07)
(-0.0669505 0.146277 3.34806e-07)
(-0.031186 0.149934 3.06496e-07)
(0.011936 0.155626 2.77066e-07)
(0.0499567 0.16189 2.07485e-07)
(0.0637243 0.171937 1.02688e-07)
(0.0880457 0.180188 8.74351e-08)
(0.0430429 0.190817 -1.60321e-09)
(0.0359554 0.194454 2.91943e-08)
(1.81982 3.10304e-05 -3.77374e-09)
(1.84661 0.000307194 -1.05586e-08)
(1.84536 0.000604235 -1.34719e-08)
(1.83897 0.00125149 -2.52969e-08)
(1.81477 0.00332714 -6.72304e-08)
(1.70381 0.0114758 -2.33739e-07)
(1.11482 0.0511581 -8.85502e-07)
(-0.156792 0.242071 -2.14133e-06)
(-0.555711 0.254749 9.36368e-07)
(-0.193968 0.188911 8.08631e-07)
(-0.153192 0.186952 2.73303e-07)
(-0.194066 0.180411 2.00998e-07)
(-0.187932 0.172909 2.96435e-07)
(-0.177576 0.174834 3.02349e-07)
(-0.158685 0.177316 3.73784e-07)
(-0.130361 0.181753 3.83127e-07)
(-0.0939953 0.184864 3.78117e-07)
(-0.0581369 0.188192 3.48566e-07)
(-0.0216532 0.193515 3.56349e-07)
(0.022239 0.202121 3.3897e-07)
(0.0610199 0.209636 2.41629e-07)
(0.075437 0.222124 8.08898e-08)
(0.0995556 0.233302 2.44623e-08)
(0.0528308 0.247585 -7.49907e-08)
(0.0404545 0.253767 -6.48901e-08)
(1.82009 2.87243e-05 -3.7036e-09)
(1.84695 0.000324882 -9.47614e-09)
(1.84582 0.000641394 -1.21817e-08)
(1.84019 0.00133429 -2.33527e-08)
(1.81929 0.00354786 -6.31888e-08)
(1.72561 0.0120594 -2.17672e-07)
(1.23393 0.053779 -8.46461e-07)
(-0.0436519 0.262671 -2.39606e-06)
(-0.551594 0.32453 9.48119e-07)
(-0.214293 0.231417 5.81121e-07)
(-0.13569 0.227746 -3.12142e-08)
(-0.183503 0.220766 9.80212e-08)
(-0.179113 0.210748 3.16302e-07)
(-0.167528 0.212291 2.62722e-07)
(-0.149544 0.215471 3.1437e-07)
(-0.120271 0.221273 3.73555e-07)
(-0.0840735 0.225825 4.17056e-07)
(-0.0473044 0.230016 3.91957e-07)
(-0.00937334 0.237659 3.81798e-07)
(0.0349826 0.248372 3.81503e-07)
(0.0742614 0.257645 2.68147e-07)
(0.0901184 0.272954 8.10235e-08)
(0.114549 0.287192 -2.15477e-08)
(0.0660021 0.3062 -1.43935e-07)
(0.0465854 0.315686 -1.6793e-07)
(1.82037 2.11881e-05 -3.18964e-09)
(1.84729 0.000318454 -8.39121e-09)
(1.84628 0.000633713 -1.08146e-08)
(1.84143 0.00133112 -2.08319e-08)
(1.82385 0.00354683 -5.63354e-08)
(1.74769 0.0119079 -1.86773e-07)
(1.35408 0.0529426 -7.0457e-07)
(0.106671 0.260607 -1.99353e-06)
(-0.531898 0.397275 1.56463e-07)
(-0.247165 0.27581 2.91826e-07)
(-0.115363 0.267622 2.36615e-07)
(-0.17021 0.261166 4.27876e-07)
(-0.169184 0.248585 3.61351e-07)
(-0.155974 0.248807 2.81165e-07)
(-0.139222 0.253269 3.56286e-07)
(-0.108576 0.260297 3.86696e-07)
(-0.0724526 0.266506 4.51318e-07)
(-0.0340547 0.271762 4.5248e-07)
(0.00547881 0.282131 4.36099e-07)
(0.0497608 0.29388 3.90352e-07)
(0.0903996 0.305694 2.84797e-07)
(0.108068 0.324588 8.41858e-08)
(0.133566 0.342578 -4.33869e-08)
(0.0841921 0.366701 -1.65798e-07)
(0.0553041 0.38301 -1.90686e-07)
(1.82064 4.38778e-06 -3.11051e-09)
(1.84762 0.000286019 -6.42248e-09)
(1.84672 0.000583253 -8.31769e-09)
(1.84262 0.0012529 -1.62345e-08)
(1.82821 0.00336402 -4.49842e-08)
(1.76856 0.0111282 -1.57594e-07)
(1.46669 0.0483365 -7.2407e-07)
(0.298147 0.234133 -2.50708e-06)
(-0.489765 0.469772 2.98831e-07)
(-0.293311 0.32484 1.98963e-07)
(-0.0935198 0.306353 -1.96277e-07)
(-0.153472 0.301416 3.1295e-07)
(-0.158263 0.2865 3.9021e-07)
(-0.143003 0.284204 3.31812e-07)
(-0.127212 0.290189 3.81799e-07)
(-0.0954068 0.298386 4.33644e-07)
(-0.0590725 0.306476 4.44447e-07)
(-0.018283 0.313235 5.04233e-07)
(0.0227706 0.325842 4.64623e-07)
(0.0664877 0.339 4.27012e-07)
(0.109921 0.353528 3.14446e-07)
(0.130182 0.376375 1.02809e-07)
(0.157238 0.399822 -9.63353e-08)
(0.109281 0.431108 -2.09651e-07)
(0.0687789 0.460481 -2.69631e-07)
(1.82086 -1.37901e-05 -3.72716e-09)
(1.84788 0.000241186 -5.04749e-09)
(1.84709 0.000509193 -6.27968e-09)
(1.8437 0.00113106 -1.15327e-08)
(1.83213 0.00307479 -3.06703e-08)
(1.78653 0.00996585 -1.05009e-07)
(1.56087 0.0413252 -4.72588e-07)
(0.521633 0.194034 -1.78247e-06)
(-0.41545 0.534317 -3.89402e-07)
(-0.350179 0.382968 6.17654e-07)
(-0.0739734 0.343719 -3.62497e-07)
(-0.132606 0.341408 2.24208e-07)
(-0.146162 0.324607 3.33973e-07)
(-0.128964 0.318954 2.73886e-07)
(-0.113626 0.325802 3.31185e-07)
(-0.0810099 0.335035 4.32342e-07)
(-0.0439081 0.345213 4.65567e-07)
(-0.000130311 0.354551 5.08271e-07)
(0.042547 0.368163 4.80077e-07)
(0.0856513 0.383628 4.23298e-07)
(0.132796 0.401258 3.29251e-07)
(0.157352 0.428378 1.2025e-07)
(0.188107 0.459444 -1.06575e-07)
(0.146849 0.502674 -2.56643e-07)
(0.0911634 0.556825 -3.62109e-07)
(1.82102 -2.68006e-05 -4.09727e-09)
(1.84808 0.000191188 -4.33498e-09)
(1.8474 0.00042099 -5.15323e-09)
(1.84468 0.000986359 -8.70321e-09)
(1.83557 0.0027389 -2.14213e-08)
(1.80132 0.00869929 -6.98978e-08)
(1.63608 0.0340394 -3.07532e-07)
(0.770251 0.158624 -1.29008e-06)
(-0.298634 0.573093 -1.29756e-06)
(-0.408048 0.455541 7.00761e-07)
(-0.063437 0.379858 -1.20685e-07)
(-0.106459 0.380749 2.15746e-07)
(-0.132312 0.363103 2.4803e-07)
(-0.114152 0.353213 2.19041e-07)
(-0.0987504 0.359711 2.78283e-07)
(-0.0657665 0.369908 3.72152e-07)
(-0.02655 0.382443 5.05364e-07)
(0.0202105 0.395204 5.27602e-07)
(0.0644624 0.408485 5.01817e-07)
(0.107957 0.426807 4.19658e-07)
(0.159565 0.448189 3.10293e-07)
(0.19083 0.480621 1.47132e-07)
(0.229223 0.522448 -5.78658e-08)
(0.206471 0.585509 -3.15651e-07)
(0.13095 0.699195 -4.50771e-07)
(1.81919 4.75171e-06 1.44955e-09)
(1.84579 4.06173e-05 1.11871e-08)
(1.84423 7.93143e-05 1.50713e-08)
(1.836 0.000162634 3.12737e-08)
(1.8034 0.000430798 9.10472e-08)
(1.64844 0.00153933 3.57159e-07)
(0.845469 0.00683539 1.43706e-06)
(-0.343265 0.0291376 1.1702e-06)
(-0.534438 0.0287518 -1.22322e-06)
(-0.176847 0.0260201 -6.83249e-07)
(-0.186899 0.0263491 -2.0542e-07)
(-0.215368 0.0251576 -5.79691e-08)
(-0.209157 0.0241662 -1.95641e-08)
(-0.201507 0.0245771 2.03002e-08)
(-0.180653 0.0250912 3.14931e-08)
(-0.152895 0.0259686 1.05559e-07)
(-0.116309 0.0266235 1.61193e-07)
(-0.0815852 0.0274004 1.57607e-07)
(-0.045658 0.0280013 1.12881e-07)
(-0.00421133 0.0289554 6.12478e-08)
(0.0314541 0.030523 -3.72298e-08)
(0.0459014 0.0325664 -1.70545e-07)
(0.0713914 0.0340569 -2.99963e-07)
(0.030682 0.036715 -5.14893e-07)
(0.0312057 0.0370942 -4.75951e-07)
(1.81925 1.43882e-05 1.21365e-09)
(1.84587 0.000125458 8.79281e-09)
(1.84434 0.000245806 1.13471e-08)
(1.83631 0.000505854 2.16491e-08)
(1.80458 0.0013456 5.83576e-08)
(1.65414 0.00481416 2.0826e-07)
(0.868896 0.0215526 6.34617e-07)
(-0.330816 0.0877393 1.20663e-06)
(-0.539307 0.0772589 -8.44241e-07)
(-0.179026 0.0636135 -7.96691e-07)
(-0.184325 0.0625306 -1.11343e-07)
(-0.21315 0.0591976 8.44959e-08)
(-0.206396 0.0564068 -4.04901e-09)
(-0.198184 0.0571161 -5.50914e-09)
(-0.177396 0.0577458 4.86052e-08)
(-0.149708 0.0586695 1.44194e-07)
(-0.113263 0.0592076 1.84444e-07)
(-0.0785457 0.0603387 1.70491e-07)
(-0.0427073 0.0614834 1.28502e-07)
(-0.000865366 0.0633926 7.13587e-08)
(0.0351085 0.066672 -3.62075e-08)
(0.0490932 0.0716014 -1.80644e-07)
(0.0743002 0.0749778 -2.97362e-07)
(0.0326443 0.0800468 -5.08844e-07)
(0.0318756 0.0807291 -4.78525e-07)
(1.81939 2.29673e-05 2.16808e-09)
(1.84605 0.000205788 1.36545e-08)
(1.84459 0.000403959 1.81911e-08)
(1.83695 0.000833788 3.67985e-08)
(1.80709 0.00222207 1.02762e-07)
(1.6665 0.00789994 3.7752e-07)
(0.924427 0.0354376 1.40018e-06)
(-0.295147 0.149518 1.22048e-06)
(-0.544409 0.13247 -1.344e-06)
(-0.179287 0.105557 -1.90607e-07)
(-0.177501 0.104548 -1.28899e-07)
(-0.208893 0.100102 -2.3554e-07)
(-0.20171 0.0962594 -1.97864e-08)
(-0.192906 0.0978205 6.84897e-08)
(-0.172753 0.0992728 1.31812e-07)
(-0.145186 0.10115 1.41068e-07)
(-0.108652 0.102161 1.74818e-07)
(-0.0737922 0.103897 1.82363e-07)
(-0.0381404 0.10611 1.49317e-07)
(0.0042574 0.109403 8.90812e-08)
(0.0412122 0.114155 -2.56685e-08)
(0.0549684 0.121686 -1.99928e-07)
(0.0796259 0.127215 -2.93275e-07)
(0.036493 0.134789 -5.10732e-07)
(0.0332997 0.136296 -4.83788e-07)
(1.81958 2.87586e-05 1.63434e-09)
(1.8463 0.000266936 1.21603e-08)
(1.84494 0.000524294 1.62599e-08)
(1.83787 0.00108388 3.31275e-08)
(1.81062 0.00288491 9.36193e-08)
(1.68371 0.0101136 3.4468e-07)
(1.00882 0.0451886 1.30952e-06)
(-0.237987 0.202517 2.12594e-06)
(-0.551099 0.191027 -1.45406e-06)
(-0.18363 0.147279 5.40868e-09)
(-0.166681 0.145879 -9.23872e-08)
(-0.20215 0.140246 -2.70546e-07)
(-0.195207 0.134772 -1.67092e-07)
(-0.185698 0.136656 -4.98182e-08)
(-0.166144 0.138625 9.37089e-08)
(-0.138499 0.141829 1.64522e-07)
(-0.10212 0.14375 1.80521e-07)
(-0.0669263 0.146276 1.92556e-07)
(-0.0311848 0.149946 1.64276e-07)
(0.0119345 0.155643 1.04046e-07)
(0.049964 0.161909 -3.04092e-08)
(0.0637384 0.171954 -1.9764e-07)
(0.0880669 0.180205 -3.09221e-07)
(0.0430637 0.190832 -5.13063e-07)
(0.0359623 0.19447 -4.92761e-07)
(1.81982 3.09768e-05 1.68736e-09)
(1.84661 0.000306832 1.00831e-08)
(1.84536 0.000603533 1.3272e-08)
(1.83898 0.00125009 2.62542e-08)
(1.81478 0.00332354 7.20475e-08)
(1.70389 0.0114635 2.54803e-07)
(1.11525 0.0511069 9.77085e-07)
(-0.15646 0.241917 2.40023e-06)
(-0.555602 0.254756 -1.17227e-06)
(-0.193723 0.188926 6.29602e-08)
(-0.152676 0.186967 6.23653e-08)
(-0.193621 0.180421 -1.78454e-07)
(-0.187488 0.172927 -1.08914e-07)
(-0.177218 0.174877 1.01609e-08)
(-0.158461 0.177348 1.45818e-07)
(-0.130213 0.181782 1.78534e-07)
(-0.0939138 0.184885 1.78777e-07)
(-0.0580971 0.188211 1.98006e-07)
(-0.0216436 0.193542 1.84715e-07)
(0.0222407 0.202147 1.23585e-07)
(0.0610268 0.209663 -4.51629e-08)
(0.0754503 0.222147 -2.00122e-07)
(0.0995762 0.233326 -3.25335e-07)
(0.0528519 0.247605 -5.0355e-07)
(0.0404619 0.253787 -5.08258e-07)
(1.82009 2.86677e-05 1.12324e-09)
(1.84695 0.0003244 7.02789e-09)
(1.84582 0.000640452 9.33011e-09)
(1.84019 0.00133241 1.88228e-08)
(1.8193 0.00354312 5.25219e-08)
(1.72566 0.0120439 1.85448e-07)
(1.23424 0.0537151 7.51433e-07)
(-0.043347 0.262407 2.28057e-06)
(-0.551531 0.324438 -7.91006e-07)
(-0.214157 0.231345 1.7741e-07)
(-0.135287 0.227658 2.78577e-07)
(-0.183162 0.220739 -1.41661e-07)
(-0.178781 0.210763 -1.13363e-07)
(-0.167259 0.212331 2.86714e-08)
(-0.149376 0.215537 1.60654e-07)
(-0.120148 0.221354 1.80064e-07)
(-0.0840085 0.225893 1.94475e-07)
(-0.0472672 0.230066 2.10788e-07)
(-0.00936461 0.237702 1.90455e-07)
(0.0349823 0.248409 1.00272e-07)
(0.0742668 0.257681 -3.94782e-08)
(0.0901297 0.272984 -1.91892e-07)
(0.114568 0.28722 -3.22279e-07)
(0.0660223 0.306223 -4.86358e-07)
(0.0465925 0.315707 -5.29423e-07)
(1.82037 2.1128e-05 8.38302e-10)
(1.84729 0.00031803 4.634e-09)
(1.84628 0.000632903 6.11119e-09)
(1.84143 0.00132953 1.22815e-08)
(1.82386 0.00354287 3.40622e-08)
(1.74772 0.011895 1.16296e-07)
(1.35423 0.0528871 4.69062e-07)
(0.106889 0.260346 1.4665e-06)
(-0.531891 0.397101 -1.06672e-07)
(-0.247199 0.275689 9.22409e-08)
(-0.11521 0.267471 3.06461e-07)
(-0.170098 0.261095 -5.48787e-08)
(-0.169066 0.248585 -7.14626e-08)
(-0.155857 0.248844 9.20353e-08)
(-0.139138 0.253346 1.29307e-07)
(-0.108509 0.260393 1.87124e-07)
(-0.0724234 0.266598 2.0922e-07)
(-0.0340389 0.271838 2.26886e-07)
(0.00547622 0.282184 1.89815e-07)
(0.0497549 0.293928 9.2938e-08)
(0.0904007 0.305737 -3.44913e-08)
(0.108076 0.324623 -1.89235e-07)
(0.133581 0.34261 -3.19549e-07)
(0.0842103 0.366726 -4.80632e-07)
(0.0553113 0.383033 -5.3354e-07)
(1.82064 4.36345e-06 3.62437e-10)
(1.84762 0.000285801 2.33812e-09)
(1.84672 0.000582828 3.13732e-09)
(1.84262 0.00125202 6.49346e-09)
(1.82821 0.00336174 1.8601e-08)
(1.76857 0.0111206 6.76908e-08)
(1.46675 0.0483031 3.29335e-07)
(0.29831 0.233962 1.21753e-06)
(-0.489808 0.469563 6.958e-08)
(-0.29344 0.324701 3.13494e-08)
(-0.0935845 0.306183 3.14563e-07)
(-0.153547 0.30132 6.50096e-08)
(-0.158311 0.286502 -2.67248e-08)
(-0.143025 0.284262 7.32385e-08)
(-0.127213 0.290283 1.30697e-07)
(-0.0953925 0.298488 1.86023e-07)
(-0.0590746 0.30657 2.19079e-07)
(-0.0182951 0.313318 2.34222e-07)
(0.0227527 0.3259 1.68249e-07)
(0.0664769 0.339054 8.31324e-08)
(0.109916 0.353574 -2.5765e-08)
(0.130185 0.376414 -1.73072e-07)
(0.157249 0.399856 -3.12219e-07)
(0.109296 0.431137 -4.71293e-07)
(0.0687855 0.460504 -5.44466e-07)
(1.82086 -1.37836e-05 -9.36939e-11)
(1.84788 0.000241127 8.7513e-10)
(1.84709 0.000509062 1.20674e-09)
(1.8437 0.00113075 2.58685e-09)
(1.83213 0.00307391 7.58033e-09)
(1.78653 0.00996269 2.79351e-08)
(1.56089 0.0413098 1.37722e-07)
(0.521714 0.19395 5.84215e-07)
(-0.415489 0.534126 3.7243e-07)
(-0.350314 0.382827 2.46047e-08)
(-0.0741319 0.343555 2.6098e-07)
(-0.13276 0.341308 1.42545e-07)
(-0.146284 0.324606 2.3136e-08)
(-0.129064 0.319018 6.95297e-08)
(-0.113692 0.325898 1.15775e-07)
(-0.0810554 0.33513 1.76477e-07)
(-0.043949 0.345303 2.14872e-07)
(-0.000164719 0.354625 2.17442e-07)
(0.0425185 0.368225 1.51983e-07)
(0.0856352 0.383682 7.8757e-08)
(0.132783 0.401306 -9.72957e-09)
(0.157349 0.428419 -1.42343e-07)
(0.188113 0.459478 -2.90094e-07)
(0.146861 0.502705 -4.53734e-07)
(0.0911687 0.556849 -5.45039e-07)
(1.82102 -2.68129e-05 -1.61655e-10)
(1.84808 0.000191166 1.70816e-10)
(1.8474 0.000420957 2.54874e-10)
(1.84468 0.000986279 5.97634e-10)
(1.83557 0.00273864 1.85434e-09)
(1.80132 0.00869836 7.14104e-09)
(1.63608 0.0340348 3.73854e-08)
(0.770253 0.158595 2.01564e-07)
(-0.298664 0.572957 4.326e-07)
(-0.408148 0.455406 4.4814e-08)
(-0.0636016 0.379718 1.27344e-07)
(-0.106609 0.380657 1.4387e-07)
(-0.132432 0.363092 5.35583e-08)
(-0.114267 0.353258 7.01726e-08)
(-0.0988361 0.359786 1.06269e-07)
(-0.0658193 0.369983 1.62786e-07)
(-0.0265998 0.382514 1.97294e-07)
(0.0201629 0.395267 1.81469e-07)
(0.0644285 0.408546 1.32025e-07)
(0.107935 0.426858 6.79685e-08)
(0.159547 0.448232 -1.08616e-09)
(0.190821 0.480659 -1.07196e-07)
(0.229225 0.52248 -2.40736e-07)
(0.20648 0.585539 -4.1826e-07)
(0.130954 0.699219 -5.18346e-07)
(1.81919 4.75742e-06 6.87303e-11)
(1.84579 4.06455e-05 -6.66471e-10)
(1.84423 7.93705e-05 -9.16933e-10)
(1.836 0.000162756 -1.87597e-09)
(1.8034 0.000431142 -4.82052e-09)
(1.64843 0.00154062 -1.32353e-08)
(0.845409 0.0068417 -1.02633e-08)
(-0.343309 0.029156 1.18524e-07)
(-0.53444 0.0287542 1.68885e-07)
(-0.176859 0.0260258 5.53854e-08)
(-0.18691 0.0263561 -2.09308e-10)
(-0.215371 0.0251669 -2.87566e-08)
(-0.209159 0.0241778 -4.11599e-08)
(-0.201513 0.0245866 -4.93303e-08)
(-0.180664 0.0250944 -5.73136e-08)
(-0.152907 0.0259666 -6.48293e-08)
(-0.11632 0.0266191 -6.31905e-08)
(-0.0815954 0.027396 -4.76121e-08)
(-0.0456666 0.0279971 -2.85174e-08)
(-0.00421707 0.0289516 -2.191e-08)
(0.0314546 0.0305195 -6.60678e-08)
(0.0459053 0.0325639 -1.01931e-07)
(0.0714045 0.034054 -1.73203e-07)
(0.0306969 0.0367123 -2.86387e-07)
(0.0312085 0.037092 -3.04946e-07)
(1.81925 1.43804e-05 1.28892e-10)
(1.84587 0.000125458 -3.09796e-10)
(1.84434 0.000245813 -4.15616e-10)
(1.83631 0.000505899 -7.50391e-10)
(1.80458 0.00134583 -1.34539e-09)
(1.65413 0.00481531 1.01922e-09)
(0.868857 0.0215587 5.44596e-08)
(-0.330803 0.0877494 1.3507e-07)
(-0.539269 0.0772439 1.26134e-07)
(-0.17899 0.0635959 7.43482e-08)
(-0.184306 0.06251 -1.68322e-08)
(-0.213135 0.0591842 -4.07155e-08)
(-0.206386 0.0564036 -3.88333e-08)
(-0.198185 0.0571176 -4.52662e-08)
(-0.177407 0.0577487 -4.59571e-08)
(-0.149721 0.0586697 -5.43634e-08)
(-0.113274 0.0592036 -6.07334e-08)
(-0.0785556 0.0603314 -5.14649e-08)
(-0.0427158 0.0614751 -3.53447e-08)
(-0.000870819 0.0633845 -3.25221e-08)
(0.0351098 0.0666639 -6.27426e-08)
(0.0490974 0.0715952 -1.06439e-07)
(0.074313 0.0749714 -1.75367e-07)
(0.0326596 0.0800405 -2.81416e-07)
(0.0318787 0.080724 -2.94228e-07)
(1.81939 2.29672e-05 6.26557e-11)
(1.84605 0.000205771 -2.53167e-10)
(1.84459 0.000403923 -3.10871e-10)
(1.83695 0.000833735 -4.25657e-10)
(1.80709 0.00222202 -1.75095e-10)
(1.66649 0.00790006 5.58775e-09)
(0.924388 0.0354389 6.38256e-08)
(-0.295169 0.149525 1.92637e-07)
(-0.544391 0.13247 1.14858e-07)
(-0.179263 0.105554 1.80346e-08)
(-0.177492 0.104549 -9.40802e-08)
(-0.208888 0.100128 -5.93843e-08)
(-0.20171 0.0963042 -3.2439e-08)
(-0.192913 0.097861 -5.96373e-08)
(-0.172769 0.099296 -3.12405e-08)
(-0.145205 0.101155 -2.61652e-08)
(-0.108669 0.102154 -3.64979e-08)
(-0.0738057 0.103884 -3.82607e-08)
(-0.0381496 0.106097 -3.47818e-08)
(0.00425203 0.10939 -3.56525e-08)
(0.0412144 0.114142 -6.53697e-08)
(0.0549736 0.121676 -1.07074e-07)
(0.0796386 0.127205 -1.76251e-07)
(0.0365089 0.134778 -2.75947e-07)
(0.0333034 0.136287 -2.88279e-07)
(1.81958 2.875e-05 1.56118e-10)
(1.8463 0.000266864 -1.67637e-10)
(1.84494 0.000524148 -1.57504e-10)
(1.83787 0.0010836 6.2009e-11)
(1.81062 0.00288429 1.75614e-09)
(1.68371 0.0101119 1.49748e-08)
(1.00879 0.0451817 1.14487e-07)
(-0.237979 0.202485 3.76032e-07)
(-0.551074 0.191019 1.39164e-07)
(-0.183641 0.147277 -1.31148e-07)
(-0.166748 0.145881 -1.54379e-07)
(-0.202235 0.140274 -2.22679e-08)
(-0.195305 0.134801 5.98457e-08)
(-0.185806 0.136658 5.3436e-08)
(-0.166229 0.13862 2.27811e-08)
(-0.138553 0.141819 9.46345e-09)
(-0.102151 0.143737 -1.29527e-08)
(-0.0669418 0.146261 -2.05865e-08)
(-0.0311937 0.149928 -2.58851e-08)
(0.0119291 0.155626 -3.30407e-08)
(0.0499669 0.161892 -5.67531e-08)
(0.0637454 0.171938 -9.90393e-08)
(0.0880796 0.180192 -1.77126e-07)
(0.0430797 0.190817 -2.78128e-07)
(0.0359669 0.194457 -2.84588e-07)
(1.81982 3.09673e-05 -2.23025e-11)
(1.84661 0.000306832 -6.85325e-10)
(1.84536 0.000603543 -7.89098e-10)
(1.83898 0.00125012 -1.06279e-09)
(1.81478 0.00332366 -1.34756e-09)
(1.70387 0.0114637 1.65749e-09)
(1.11517 0.0511061 4.89243e-08)
(-0.156556 0.241912 2.29631e-07)
(-0.555688 0.25477 1.9933e-07)
(-0.193865 0.188953 -4.72322e-07)
(-0.1529 0.186992 -1.49069e-07)
(-0.19383 0.18044 1.42374e-08)
(-0.187688 0.172913 -4.61614e-08)
(-0.177367 0.174824 -2.55954e-08)
(-0.158548 0.1773 1.8314e-09)
(-0.130272 0.181744 1.70322e-08)
(-0.093948 0.18486 1.92713e-08)
(-0.0581181 0.18819 -1.3327e-08)
(-0.0216556 0.193519 -2.10768e-08)
(0.0222358 0.202127 -3.9061e-08)
(0.0610299 0.209643 -5.15252e-08)
(0.0754588 0.222127 -9.99817e-08)
(0.0995895 0.233308 -1.79105e-07)
(0.0528678 0.247586 -2.70569e-07)