/*--------------------------------*- C++ -*----------------------------------*\
| =========                 |                                                 |
| \\      /  F ield         | OpenFOAM: The Open Source CFD Toolbox           |
|  \\    /   O peration     | Version:  4.1                                   |
|   \\  /    A nd           | Web:      www.OpenFOAM.org                      |
|    \\/     M anipulation  |                                                 |
\*---------------------------------------------------------------------------*/
FoamFile
{
    version     2.0;
    format      ascii;
    class       volVectorField;
    location    "9.92";
    object      U;
}
// * * * * * * * * * * * * * * * * * * * * * * * * * * * * * * * * * * * * * //

dimensions      [0 1 -1 0 0 0 0];

internalField   nonuniform List<vector> 
52500
(
(2.99999 1.30883e-08 -0.00571427)
(2.99998 7.19346e-08 -0.00571444)
(2.99995 2.60036e-07 -0.00571471)
(2.99986 6.63614e-07 -0.00571554)
(2.99968 1.82576e-06 -0.00571709)
(2.99918 4.15936e-06 -0.00572178)
(2.99819 1.10006e-05 -0.00573085)
(2.99513 2.3927e-05 -0.00575622)
(2.98963 6.7226e-05 -0.00581521)
(2.96982 0.000138029 -0.00594099)
(2.93193 0.000425025 -0.00638592)
(2.79804 0.00100608 -0.00710531)
(2.41527 0.00301262 -0.0100619)
(1.53598 0.00807318 -0.0155002)
(0.641098 0.0200166 -0.0182954)
(0.539403 0.0209871 -0.0184944)
(0.566599 0.0221554 -0.0185415)
(0.560877 0.0241671 -0.0186264)
(0.509495 0.0263528 -0.0187985)
(0.424552 0.0287387 -0.0189785)
(0.342046 0.0314814 -0.0191713)
(0.272306 0.0346444 -0.0193349)
(0.201962 0.0379778 -0.0194957)
(0.121591 0.0418786 -0.0196466)
(0.0540967 0.0477339 -0.0197964)
(2.99999 3.98329e-08 -0.00571427)
(2.99998 2.18513e-07 -0.00571444)
(2.99995 7.9042e-07 -0.0057147)
(2.99986 2.01507e-06 -0.00571553)
(2.99969 5.54772e-06 -0.00571706)
(2.99919 1.2627e-05 -0.00572171)
(2.9982 3.34361e-05 -0.00573068)
(2.99518 7.25176e-05 -0.00575585)
(2.98973 0.000204814 -0.00581414)
(2.97011 0.000417903 -0.0059389)
(2.93268 0.00130286 -0.00637872)
(2.80002 0.00306146 -0.00708923)
(2.42172 0.0092937 -0.0100207)
(1.55002 0.0248102 -0.0154189)
(0.6499 0.060469 -0.0181982)
(0.53892 0.0607956 -0.0184191)
(0.566781 0.0619036 -0.0184636)
(0.561589 0.0658169 -0.0185402)
(0.510141 0.0700044 -0.0187049)
(0.425242 0.0745912 -0.0188764)
(0.342653 0.0795297 -0.0190608)
(0.272277 0.0847417 -0.019216)
(0.200763 0.0896303 -0.0193658)
(0.118743 0.0944254 -0.0195079)
(0.0504638 0.0995266 -0.0196447)
(2.99999 6.75346e-08 -0.00571426)
(2.99998 3.68944e-07 -0.00571443)
(2.99995 1.33673e-06 -0.00571469)
(2.99986 3.40403e-06 -0.00571551)
(2.99969 9.36485e-06 -0.005717)
(2.9992 2.12917e-05 -0.00572156)
(2.99824 5.63265e-05 -0.00573035)
(2.99528 0.000121782 -0.0057551)
(2.98992 0.000344614 -0.00581201)
(2.97072 0.000698584 -0.00593479)
(2.93421 0.00219496 -0.00636405)
(2.80416 0.00511853 -0.00705768)
(2.4354 0.0157139 -0.00993731)
(1.58059 0.0417677 -0.015267)
(0.670079 0.103494 -0.0180629)
(0.539428 0.102791 -0.0183313)
(0.569199 0.104005 -0.0183733)
(0.565679 0.110882 -0.0184382)
(0.514613 0.118416 -0.0185964)
(0.430275 0.127057 -0.018758)
(0.347859 0.136209 -0.0189338)
(0.276922 0.145664 -0.0190818)
(0.204227 0.15466 -0.0192245)
(0.120529 0.162981 -0.0193535)
(0.0500562 0.169769 -0.0194803)
(2.99999 1.04455e-07 -0.00571426)
(2.99998 5.26263e-07 -0.00571443)
(2.99995 1.95565e-06 -0.00571468)
(2.99987 4.98162e-06 -0.00571547)
(2.9997 1.37134e-05 -0.00571692)
(2.99922 3.12719e-05 -0.00572135)
(2.99829 8.20482e-05 -0.00572986)
(2.99542 0.000180887 -0.005754)
(2.99021 0.000489659 -0.00580884)
(2.97162 0.00104339 -0.00592879)
(2.93649 0.00301158 -0.00634217)
(2.81037 0.00722839 -0.00701151)
(2.45582 0.0217224 -0.00981329)
(1.62724 0.0566961 -0.0150405)
(0.701312 0.145171 -0.017892)
(0.540309 0.143581 -0.0182342)
(0.573266 0.145266 -0.0182704)
(0.572527 0.155393 -0.0183219)
(0.522234 0.166477 -0.0184703)
(0.43902 0.179388 -0.0186208)
(0.357108 0.193119 -0.0187834)
(0.285839 0.207469 -0.0189121)
(0.211907 0.221482 -0.019058)
(0.125873 0.234234 -0.0191853)
(0.0517878 0.243245 -0.01931)
(2.99999 1.33406e-07 -0.00571426)
(2.99998 6.9043e-07 -0.00571442)
(2.99995 2.58825e-06 -0.00571466)
(2.99987 6.62085e-06 -0.00571542)
(2.99971 1.82353e-05 -0.0057168)
(2.99926 4.16973e-05 -0.00572104)
(2.99836 0.000108715 -0.00572918)
(2.99561 0.000243356 -0.00575224)
(2.99065 0.00063544 -0.00580475)
(2.97278 0.00141104 -0.00591921)
(2.93953 0.00379055 -0.00631775)
(2.8185 0.00929133 -0.00694478)
(2.48117 0.0275759 -0.0096685)
(1.68429 0.0707174 -0.0147598)
(0.738182 0.187408 -0.0176927)
(0.536938 0.184173 -0.0181422)
(0.575783 0.186163 -0.0181643)
(0.579719 0.199421 -0.0182029)
(0.53108 0.213886 -0.0183349)
(0.449926 0.231007 -0.0184711)
(0.369293 0.24949 -0.0186291)
(0.298327 0.269108 -0.0187451)
(0.223497 0.288737 -0.0188543)
(0.134511 0.306846 -0.0189695)
(0.0553652 0.319002 -0.0190901)
(3 1.57035e-07 -0.00571426)
(2.99998 8.7044e-07 -0.00571441)
(2.99996 3.24666e-06 -0.00571463)
(2.99988 8.35323e-06 -0.00571535)
(2.99973 2.30527e-05 -0.00571665)
(2.9993 5.30317e-05 -0.00572065)
(2.99845 0.000137356 -0.00572833)
(2.99586 0.000315341 -0.00575003)
(2.99119 0.000783558 -0.00579971)
(2.97421 0.00183281 -0.00590711)
(2.94325 0.0046059 -0.00628831)
(2.8286 0.0113487 -0.00686263)
(2.51228 0.0330149 -0.00948804)
(1.75569 0.0852226 -0.0143929)
(0.78452 0.231531 -0.0174507)
(0.531877 0.224859 -0.0180455)
(0.578682 0.226588 -0.0180606)
(0.588551 0.242848 -0.018071)
(0.542059 0.260571 -0.0181968)
(0.463818 0.281993 -0.0182939)
(0.385225 0.305873 -0.0184311)
(0.315068 0.331873 -0.0185442)
(0.239534 0.358658 -0.0186496)
(0.14711 0.384263 -0.0187509)
(0.0612204 0.401923 -0.0188645)
(3 1.77336e-07 -0.00571426)
(2.99998 9.82345e-07 -0.00571439)
(2.99996 3.66815e-06 -0.0057146)
(2.99989 9.43739e-06 -0.00571526)
(2.99975 2.60965e-05 -0.00571647)
(2.99935 6.00585e-05 -0.00572013)
(2.99858 0.000156246 -0.00572727)
(2.99615 0.000357176 -0.00574673)
(2.99192 0.000902179 -0.00579405)
(2.97591 0.0020678 -0.00588928)
(2.94768 0.00549035 -0.0062555)
(2.84031 0.0129138 -0.00676584)
(2.54904 0.0390698 -0.00928257)
(1.84226 0.100556 -0.0139419)
(0.838075 0.278276 -0.01716)
(0.523221 0.26614 -0.0179475)
(0.581257 0.266454 -0.0179532)
(0.598712 0.285341 -0.0179434)
(0.555049 0.306106 -0.0180571)
(0.480953 0.331894 -0.0181465)
(0.405799 0.361895 -0.0182323)
(0.337708 0.395577 -0.01831)
(0.262421 0.43178 -0.0183821)
(0.166417 0.468508 -0.0184554)
(0.0711999 0.496651 -0.0185434)
(3 1.77769e-07 -0.00571425)
(2.99998 9.83845e-07 -0.00571438)
(2.99996 3.66142e-06 -0.00571457)
(2.9999 9.36076e-06 -0.00571517)
(2.99977 2.58175e-05 -0.00571628)
(2.99941 5.86681e-05 -0.00571962)
(2.9987 0.000155877 -0.00572616)
(2.99648 0.000332602 -0.00574382)
(2.99262 0.000965401 -0.00578734)
(2.97797 0.00188613 -0.00587336)
(2.95253 0.0063989 -0.006209)
(2.85433 0.0133364 -0.00666743)
(2.59348 0.0472691 -0.00899238)
(1.94701 0.116358 -0.0133577)
(0.904383 0.328044 -0.0167997)
(0.516643 0.31025 -0.0178206)
(0.587232 0.306994 -0.0178212)
(0.612874 0.326871 -0.0177792)
(0.572073 0.349849 -0.0178698)
(0.503199 0.380189 -0.0179522)
(0.432699 0.417137 -0.0180269)
(0.368061 0.460011 -0.0180604)
(0.294916 0.508374 -0.0180983)
(0.196789 0.561777 -0.0181245)
(0.0888518 0.611269 -0.0181732)
(3 1.97009e-07 -0.00571425)
(2.99999 1.08509e-06 -0.00571437)
(2.99997 4.01881e-06 -0.00571454)
(2.99991 1.02727e-05 -0.00571509)
(2.99979 2.81552e-05 -0.0057161)
(2.99946 6.38901e-05 -0.00571918)
(2.99881 0.000169084 -0.00572504)
(2.99682 0.00035684 -0.00574196)
(2.99321 0.00105469 -0.00577935)
(2.98036 0.00196025 -0.00586309)
(2.95746 0.00713779 -0.00614575)
(2.87156 0.0139103 -0.00657936)
(2.64606 0.0528622 -0.00856117)
(2.0721 0.126762 -0.0125772)
(0.994269 0.370028 -0.0163451)
(0.524271 0.355166 -0.0176687)
(0.602731 0.349031 -0.017676)
(0.635066 0.367239 -0.0176201)
(0.596618 0.391282 -0.0176996)
(0.533636 0.426155 -0.0177394)
(0.468838 0.47092 -0.0177747)
(0.40933 0.52363 -0.0177676)
(0.341989 0.586683 -0.0177337)
(0.247837 0.666071 -0.0176704)
(0.122888 0.759656 -0.0175481)
(3 3.96127e-07 -0.00571425)
(2.99999 8.17235e-07 -0.00571435)
(2.99997 5.9481e-06 -0.00571451)
(2.99992 9.3853e-06 -0.00571498)
(2.99982 4.08628e-05 -0.00571587)
(2.99953 6.06392e-05 -0.00571855)
(2.99895 0.000249796 -0.00572375)
(2.99721 0.000332107 -0.00573864)
(2.99396 0.00159713 -0.00577108)
(2.98296 0.00142986 -0.00584726)
(2.96272 0.0108294 -0.00608207)
(2.88953 0.00856631 -0.00648353)
(2.70032 0.0679474 -0.00811509)
(2.20593 0.122173 -0.0118089)
(1.10624 0.395362 -0.0157378)
(0.558418 0.403785 -0.0173776)
(0.632529 0.399859 -0.0174115)
(0.667808 0.408704 -0.0173804)
(0.632132 0.432852 -0.0174822)
(0.575633 0.469813 -0.0175078)
(0.516644 0.521564 -0.0175076)
(0.464073 0.583508 -0.0174496)
(0.41077 0.666066 -0.0173201)
(0.33675 0.78882 -0.017089)
(0.189308 0.997179 -0.0166537)
(2.99999 1.27337e-08 -2.42318e-09)
(2.99998 6.94358e-08 -8.59237e-09)
(2.99995 2.57889e-07 -1.00105e-08)
(2.99986 6.60837e-07 -1.60336e-08)
(2.99968 1.8234e-06 -1.65428e-08)
(2.99918 4.15773e-06 -2.23098e-08)
(2.99818 1.10018e-05 -2.444e-08)
(2.99513 2.39344e-05 -3.39535e-08)
(2.98963 6.72487e-05 -4.99003e-08)
(2.96981 0.000138088 -8.29188e-08)
(2.93191 0.000425173 -1.7799e-07)
(2.79799 0.00100652 -4.25422e-07)
(2.41507 0.00301372 -8.49331e-07)
(1.53554 0.00807704 -2.42498e-06)
(0.640862 0.0200214 -2.1011e-06)
(0.539456 0.0209926 1.64567e-07)
(0.566611 0.0221605 9.09154e-08)
(0.560851 0.0241709 -8.53955e-08)
(0.509455 0.0263557 -1.12055e-07)
(0.424508 0.0287414 -1.24703e-07)
(0.34201 0.0314847 -7.52781e-08)
(0.272271 0.0346486 -3.63961e-08)
(0.201922 0.0379816 -7.86171e-09)
(0.121552 0.0418766 2.34536e-08)
(0.0540662 0.0477145 6.26585e-08)
(2.99999 3.8674e-08 -2.43025e-09)
(2.99998 2.11021e-07 -8.63212e-09)
(2.99995 7.83993e-07 -1.00084e-08)
(2.99986 2.00704e-06 -1.60429e-08)
(2.99969 5.54122e-06 -1.65337e-08)
(2.99918 1.26231e-05 -2.22908e-08)
(2.9982 3.34406e-05 -2.43787e-08)
(2.99518 7.25367e-05 -3.38138e-08)
(2.98972 0.000204888 -4.95842e-08)
(2.9701 0.000418036 -8.2113e-08)
(2.93265 0.00130336 -1.76461e-07)
(2.79996 0.00306266 -4.19873e-07)
(2.42153 0.00929737 -8.40848e-07)
(1.54958 0.0248218 -2.40091e-06)
(0.649665 0.0604807 -2.10596e-06)
(0.538972 0.0608064 1.65033e-07)
(0.56679 0.0619108 8.72447e-08)
(0.56156 0.0658201 -9.2338e-08)
(0.510099 0.0700057 -1.17188e-07)
(0.425197 0.0745931 -1.27595e-07)
(0.342616 0.0795328 -7.84024e-08)
(0.272244 0.0847446 -4.04061e-08)
(0.200731 0.0896303 -1.21985e-08)
(0.118718 0.0944152 1.80209e-08)
(0.0504472 0.0994934 5.48898e-08)
(2.99999 6.53811e-08 -2.4463e-09)
(2.99998 3.57077e-07 -8.70991e-09)
(2.99995 1.32583e-06 -1.00041e-08)
(2.99986 3.39198e-06 -1.60573e-08)
(2.99969 9.35591e-06 -1.6515e-08)
(2.9992 2.12906e-05 -2.22586e-08)
(2.99823 5.63415e-05 -2.42871e-08)
(2.99527 0.000121832 -3.37012e-08)
(2.98992 0.000344774 -4.89702e-08)
(2.97071 0.00069868 -8.13715e-08)
(2.93419 0.00219624 -1.72587e-07)
(2.8041 0.0051197 -4.10809e-07)
(2.43521 0.0157216 -8.17637e-07)
(1.58016 0.0417889 -2.35876e-06)
(0.66984 0.10352 -2.12846e-06)
(0.539469 0.102815 1.63245e-07)
(0.569196 0.10402 7.78018e-08)
(0.565641 0.110889 -1.03889e-07)
(0.514565 0.118419 -1.24489e-07)
(0.430227 0.12706 -1.29718e-07)
(0.34782 0.136212 -8.21496e-08)
(0.27689 0.145664 -4.74016e-08)
(0.204201 0.154655 -2.1229e-08)
(0.120512 0.162963 4.25098e-09)
(0.0500475 0.169723 3.13851e-08)
(2.99999 9.57286e-08 -2.47215e-09)
(2.99998 5.21947e-07 -8.81007e-09)
(2.99995 1.93922e-06 -1.00054e-08)
(2.99987 4.96876e-06 -1.60466e-08)
(2.9997 1.36919e-05 -1.64672e-08)
(2.99922 3.12487e-05 -2.21545e-08)
(2.99828 8.20148e-05 -2.41551e-08)
(2.99542 0.000180792 -3.38606e-08)
(2.99021 0.000489698 -4.73565e-08)
(2.97161 0.00104277 -8.74972e-08)
(2.93647 0.00301337 -1.51312e-07)
(2.81032 0.00722951 -4.30535e-07)
(2.45565 0.021732 -7.22296e-07)
(1.62682 0.0567383 -2.3143e-06)
(0.701092 0.145214 -2.1452e-06)
(0.540373 0.143613 1.5054e-07)
(0.573292 0.145283 5.17407e-08)
(0.572519 0.155402 -1.21175e-07)
(0.522217 0.166481 -1.35362e-07)
(0.438999 0.179393 -1.34497e-07)
(0.357091 0.193122 -9.28789e-08)
(0.285824 0.207466 -6.30437e-08)
(0.211894 0.221471 -4.01946e-08)
(0.125866 0.234208 -2.09982e-08)
(0.0517846 0.243192 -4.73028e-09)
(2.99999 1.27438e-07 -2.62225e-09)
(2.99998 6.93922e-07 -8.6429e-09)
(2.99995 2.5794e-06 -1.0217e-08)
(2.99987 6.61527e-06 -1.60205e-08)
(2.99971 1.82187e-05 -1.66726e-08)
(2.99926 4.16724e-05 -2.23228e-08)
(2.99836 0.00010867 -2.45001e-08)
(2.99561 0.000243231 -3.50221e-08)
(2.99064 0.000635394 -4.64384e-08)
(2.97277 0.0014105 -9.4937e-08)
(2.93951 0.00379169 -1.29545e-07)
(2.81845 0.0092934 -4.20685e-07)
(2.48103 0.0275833 -7.11693e-07)
(1.68397 0.0707555 -1.97474e-06)
(0.738017 0.187443 -2.18853e-06)
(0.537039 0.184201 1.19278e-07)
(0.575835 0.186179 9.93765e-09)
(0.579737 0.199432 -1.4052e-07)
(0.531091 0.213895 -1.44857e-07)
(0.449933 0.231016 -1.34499e-07)
(0.369299 0.249495 -1.03587e-07)
(0.298331 0.269106 -8.24152e-08)
(0.223498 0.288724 -6.47427e-08)
(0.134513 0.306817 -5.16003e-08)
(0.0553668 0.318946 -4.43794e-08)
(2.99999 1.60733e-07 -2.5941e-09)
(2.99998 8.71906e-07 -8.64926e-09)
(2.99995 3.25057e-06 -1.02199e-08)
(2.99988 8.35532e-06 -1.60319e-08)
(2.99973 2.30556e-05 -1.66822e-08)
(2.9993 5.30325e-05 -2.23317e-08)
(2.99845 0.000137361 -2.44652e-08)
(2.99585 0.000315359 -3.48362e-08)
(2.99118 0.000783609 -4.60056e-08)
(2.9742 0.00183333 -9.34511e-08)
(2.94323 0.00460481 -1.25609e-07)
(2.82856 0.0113517 -4.01793e-07)
(2.51215 0.0330206 -6.88465e-07)
(1.75537 0.0852381 -1.89586e-06)
(0.78436 0.231546 -2.25884e-06)
(0.531982 0.224882 1.3162e-07)
(0.578739 0.226608 -5.15502e-09)
(0.58858 0.242864 -1.4738e-07)
(0.542086 0.260585 -1.46302e-07)
(0.463843 0.282007 -1.29503e-07)
(0.385249 0.305882 -1.07341e-07)
(0.315088 0.331873 -9.40437e-08)
(0.239549 0.358646 -8.42756e-08)
(0.14712 0.384235 -8.06307e-08)
(0.0612261 0.401869 -8.36162e-08)
(3 1.81574e-07 -2.54847e-09)
(2.99998 9.84431e-07 -8.67858e-09)
(2.99996 3.67374e-06 -1.01827e-08)
(2.99989 9.44277e-06 -1.60544e-08)
(2.99975 2.61067e-05 -1.66679e-08)
(2.99935 6.00752e-05 -2.23686e-08)
(2.99858 0.000156285 -2.44251e-08)
(2.99615 0.000357292 -3.47933e-08)
(2.99191 0.000902341 -4.57342e-08)
(2.9759 0.0020688 -8.61076e-08)
(2.94766 0.00548961 -1.59351e-07)
(2.84027 0.0129187 -3.55065e-07)
(2.5489 0.0390684 -6.62836e-07)
(1.84194 0.100563 -1.91689e-06)
(0.837916 0.278272 -2.37288e-06)
(0.523321 0.266152 1.76006e-07)
(0.581307 0.266469 -1.82729e-09)
(0.59874 0.285357 -1.49734e-07)
(0.55508 0.306122 -1.45109e-07)
(0.480987 0.33191 -1.25139e-07)
(0.405833 0.361907 -1.10363e-07)
(0.337739 0.395581 -1.04673e-07)
(0.262446 0.431771 -1.01018e-07)
(0.166434 0.468483 -1.04956e-07)
(0.0712091 0.496605 -1.18444e-07)
(3 1.80637e-07 -2.50912e-09)
(2.99998 9.87884e-07 -8.68161e-09)
(2.99996 3.66316e-06 -1.01632e-08)
(2.9999 9.36458e-06 -1.60289e-08)
(2.99977 2.58208e-05 -1.65868e-08)
(2.99941 5.86753e-05 -2.21866e-08)
(2.9987 0.000155893 -2.39997e-08)
(2.99647 0.000332621 -3.31952e-08)
(2.99262 0.000965551 -4.49833e-08)
(2.97796 0.00188582 -7.62989e-08)
(2.95251 0.00640107 -1.57511e-07)
(2.85429 0.013339 -3.01068e-07)
(2.59334 0.0472709 -7.93219e-07)
(1.94667 0.116371 -1.87736e-06)
(0.904193 0.328043 -2.59939e-06)
(0.51671 0.31025 2.14009e-07)
(0.58726 0.306999 1.15755e-08)
(0.612887 0.326882 -1.45731e-07)
(0.572096 0.349863 -1.39486e-07)
(0.503231 0.380204 -1.20201e-07)
(0.432735 0.41715 -1.08946e-07)
(0.368095 0.460017 -1.06667e-07)
(0.294947 0.50837 -1.07964e-07)
(0.19681 0.56176 -1.19004e-07)
(0.0888638 0.611231 -1.43651e-07)
(3 1.96254e-07 -2.49045e-09)
(2.99999 1.09001e-06 -8.64796e-09)
(2.99996 4.01417e-06 -1.02233e-08)
(2.99991 1.02703e-05 -1.60189e-08)
(2.99979 2.81518e-05 -1.66581e-08)
(2.99946 6.38998e-05 -2.22623e-08)
(2.9988 0.000169127 -2.41749e-08)
(2.99682 0.000356981 -3.44031e-08)
(2.99321 0.00105498 -4.32651e-08)
(2.98036 0.00196093 -9.20907e-08)
(2.95744 0.0071398 -1.19495e-07)
(2.87151 0.0139139 -3.32369e-07)
(2.64594 0.0528714 -7.17432e-07)
(2.07178 0.126785 -1.83176e-06)
(0.99407 0.370049 -2.82529e-06)
(0.524304 0.355151 1.696e-07)
(0.602738 0.349012 1.74043e-09)
(0.635065 0.367238 -1.32699e-07)
(0.596627 0.391291 -1.30759e-07)
(0.533657 0.426165 -1.23707e-07)
(0.468868 0.47093 -1.13665e-07)
(0.409364 0.523636 -1.11254e-07)
(0.342022 0.586682 -1.13169e-07)
(0.247862 0.66606 -1.22112e-07)
(0.122903 0.759631 -1.56303e-07)
(3 3.81504e-07 -2.52424e-09)
(2.99999 8.6736e-07 -8.57195e-09)
(2.99997 5.83256e-06 -1.03279e-08)
(2.99992 9.41468e-06 -1.60038e-08)
(2.99982 4.07344e-05 -1.65901e-08)
(2.99952 6.06913e-05 -2.19217e-08)
(2.99894 0.00024974 -2.32819e-08)
(2.99721 0.000332411 -3.12374e-08)
(2.99396 0.0015972 -4.17252e-08)
(2.98295 0.00143207 -6.81756e-08)
(2.9627 0.010831 -1.33458e-07)
(2.88949 0.00857384 -2.66749e-07)
(2.7002 0.0679648 -7.12126e-07)
(2.20561 0.122224 -1.71219e-06)
(1.10599 0.395505 -2.96541e-06)
(0.558361 0.403785 -3.79414e-08)
(0.632499 0.399821 -8.39448e-08)
(0.667789 0.408697 -8.92082e-08)
(0.632121 0.432852 -1.13058e-07)
(0.575637 0.469816 -1.34824e-07)
(0.516663 0.521567 -1.18735e-07)
(0.464101 0.583511 -1.15156e-07)
(0.410802 0.666066 -1.13682e-07)
(0.336777 0.788815 -1.1868e-07)
(0.189326 0.997166 -1.52129e-07)
(2.99999 1.27337e-08 -1.00512e-12)
(2.99998 6.94359e-08 -4.82222e-12)
(2.99995 2.57889e-07 -1.37851e-11)
(2.99986 6.60839e-07 -2.93806e-11)
(2.99968 1.82341e-06 -7.60577e-11)
(2.99918 4.15775e-06 -1.51232e-10)
(2.99818 1.10019e-05 -4.2275e-10)
(2.99513 2.39346e-05 -7.9514e-10)
(2.98963 6.72494e-05 -2.64833e-09)
(2.96981 0.00013809 -4.31909e-09)
(2.9319 0.000425178 -1.67314e-08)
(2.79798 0.00100654 -3.48959e-08)
(2.41506 0.00301376 -9.26872e-08)
(1.5355 0.00807721 -2.36214e-07)
(0.640837 0.0200213 -2.36323e-07)
(0.53946 0.0209927 1.26313e-09)
(0.566612 0.0221606 -3.84131e-09)
(0.560849 0.0241709 -1.89268e-08)
(0.509452 0.0263556 -2.08373e-08)
(0.424506 0.0287414 -2.13229e-08)
(0.342008 0.0314847 -1.77379e-08)
(0.272269 0.0346486 -1.53582e-08)
(0.201921 0.0379816 -1.41006e-08)
(0.121551 0.0418765 -1.28959e-08)
(0.0540654 0.047714 -1.15961e-08)
(2.99999 3.86741e-08 -1.00405e-12)
(2.99998 2.11022e-07 -4.81813e-12)
(2.99995 7.83996e-07 -1.37599e-11)
(2.99986 2.00705e-06 -2.93235e-11)
(2.99969 5.54125e-06 -7.58435e-11)
(2.99918 1.26231e-05 -1.50794e-10)
(2.9982 3.34408e-05 -4.21192e-10)
(2.99518 7.25369e-05 -7.92217e-10)
(2.98972 0.00020489 -2.63709e-09)
(2.9701 0.000418038 -4.29563e-09)
(2.93265 0.00130338 -1.66777e-08)
(2.79996 0.0030627 -3.46376e-08)
(2.42151 0.00929751 -9.2462e-08)
(1.54954 0.0248223 -2.35333e-07)
(0.64964 0.0604805 -2.38236e-07)
(0.538976 0.0608065 1.62182e-09)
(0.566791 0.0619109 -3.91466e-09)
(0.561558 0.0658199 -1.9366e-08)
(0.510096 0.0700055 -2.11284e-08)
(0.425194 0.0745929 -2.14159e-08)
(0.342614 0.0795326 -1.78495e-08)
(0.272242 0.0847445 -1.55145e-08)
(0.200729 0.0896301 -1.42554e-08)
(0.118718 0.0944148 -1.30541e-08)
(0.0504467 0.0994924 -1.17719e-08)
(2.99999 6.53819e-08 -1.00034e-12)
(2.99998 3.57079e-07 -4.79655e-12)
(2.99995 1.32585e-06 -1.37023e-11)
(2.99986 3.39202e-06 -2.92046e-11)
(2.99969 9.35601e-06 -7.56728e-11)
(2.9992 2.12908e-05 -1.50769e-10)
(2.99823 5.6342e-05 -4.2038e-10)
(2.99527 0.000121832 -7.95731e-10)
(2.98992 0.000344779 -2.61864e-09)
(2.97071 0.000698675 -4.28499e-09)
(2.93419 0.00219629 -1.65594e-08)
(2.8041 0.00511973 -3.41906e-08)
(2.43519 0.0157219 -9.18621e-08)
(1.58011 0.0417897 -2.3422e-07)
(0.669815 0.10352 -2.43752e-07)
(0.539473 0.102816 2.32329e-09)
(0.569197 0.104021 -4.15285e-09)
(0.565639 0.110889 -2.02112e-08)
(0.514562 0.118418 -2.17004e-08)
(0.430224 0.127059 -2.16211e-08)
(0.347819 0.136212 -1.81001e-08)
(0.276889 0.145664 -1.59565e-08)
(0.2042 0.154655 -1.47471e-08)
(0.120512 0.162962 -1.36409e-08)
(0.0500472 0.169722 -1.25886e-08)
(2.99999 9.57263e-08 -9.74918e-13)
(2.99998 5.21935e-07 -4.68611e-12)
(2.99995 1.93917e-06 -1.33709e-11)
(2.99987 4.96864e-06 -2.84094e-11)
(2.9997 1.36916e-05 -7.46714e-11)
(2.99922 3.12479e-05 -1.49732e-10)
(2.99828 8.20131e-05 -4.21737e-10)
(2.99542 0.000180786 -8.27473e-10)
(2.99021 0.000489696 -2.55547e-09)
(2.97161 0.00104273 -4.66711e-09)
(2.93646 0.00301344 -1.55873e-08)
(2.81031 0.00722953 -3.52733e-08)
(2.45563 0.0217323 -8.79261e-08)
(1.62678 0.05674 -2.34305e-07)
(0.701067 0.145214 -2.52264e-07)
(0.540378 0.143613 3.14705e-09)
(0.573294 0.145283 -5.0046e-09)
(0.572518 0.155401 -2.14108e-08)
(0.522215 0.166481 -2.25062e-08)
(0.438997 0.179392 -2.19987e-08)
(0.35709 0.193121 -1.86612e-08)
(0.285823 0.207466 -1.67418e-08)
(0.211893 0.22147 -1.56429e-08)
(0.125865 0.234207 -1.4735e-08)
(0.0517844 0.24319 -1.40075e-08)
(2.99999 1.27435e-07 -1.05306e-12)
(2.99998 6.93906e-07 -5.02753e-12)
(2.99995 2.57934e-06 -1.44645e-11)
(2.99987 6.61512e-06 -3.09361e-11)
(2.99971 1.82183e-05 -8.03931e-11)
(2.99926 4.16714e-05 -1.61933e-10)
(2.99836 0.000108668 -4.40897e-10)
(2.99561 0.000243225 -8.99979e-10)
(2.99064 0.00063539 -2.52836e-09)
(2.97277 0.00141047 -5.18756e-09)
(2.93951 0.00379172 -1.45275e-08)
(2.81844 0.00929346 -3.52227e-08)
(2.48101 0.0275834 -8.89067e-08)
(1.68393 0.0707569 -2.19016e-07)
(0.737994 0.187442 -2.65491e-07)
(0.537047 0.184201 4.07336e-09)
(0.575838 0.186179 -6.29484e-09)
(0.579737 0.199432 -2.27191e-08)
(0.53109 0.213894 -2.32201e-08)
(0.449933 0.231016 -2.20425e-08)
(0.369299 0.249495 -1.9228e-08)
(0.298331 0.269106 -1.77997e-08)
(0.223498 0.288723 -1.68677e-08)
(0.134513 0.306816 -1.61313e-08)
(0.0553669 0.318944 -1.56968e-08)
(2.99999 1.60732e-07 -1.05889e-12)
(2.99998 8.71903e-07 -5.06109e-12)
(2.99995 3.25056e-06 -1.4535e-11)
(2.99988 8.35529e-06 -3.10756e-11)
(2.99973 2.30555e-05 -8.04138e-11)
(2.9993 5.30322e-05 -1.61562e-10)
(2.99845 0.00013736 -4.39371e-10)
(2.99585 0.000315356 -8.87657e-10)
(2.99118 0.000783607 -2.53122e-09)
(2.9742 0.00183332 -5.07981e-09)
(2.94323 0.00460475 -1.47124e-08)
(2.82855 0.0113517 -3.41474e-08)
(2.51213 0.033021 -9.03788e-08)
(1.75533 0.0852383 -2.20437e-07)
(0.784337 0.231544 -2.847e-07)
(0.53199 0.224882 8.29971e-09)
(0.578742 0.226607 -5.79984e-09)
(0.58858 0.242864 -2.31432e-08)
(0.542085 0.260584 -2.33676e-08)
(0.463843 0.282006 -2.17498e-08)
(0.38525 0.305881 -1.92107e-08)
(0.315089 0.331872 -1.81085e-08)
(0.239549 0.358645 -1.7592e-08)
(0.147121 0.384233 -1.74157e-08)
(0.0612262 0.401868 -1.74605e-08)
(3 1.81578e-07 -1.06984e-12)
(2.99998 9.84454e-07 -5.08881e-12)
(2.99996 3.67382e-06 -1.47098e-11)
(2.99989 9.443e-06 -3.15506e-11)
(2.99975 2.61073e-05 -8.20071e-11)
(2.99935 6.00767e-05 -1.66371e-10)
(2.99858 0.000156288 -4.4813e-10)
(2.99615 0.000357302 -9.39963e-10)
(2.99191 0.000902353 -2.51356e-09)
(2.9759 0.00206886 -5.26255e-09)
(2.94766 0.00548961 -1.57072e-08)
(2.84026 0.012919 -3.44074e-08)
(2.54888 0.0390678 -8.43722e-08)
(1.8419 0.100563 -2.30804e-07)
(0.837894 0.278268 -3.07559e-07)
(0.523329 0.26615 1.45117e-08)
(0.58131 0.266469 -4.80655e-09)
(0.59874 0.285356 -2.36824e-08)
(0.55508 0.306121 -2.36102e-08)
(0.480988 0.33191 -2.17792e-08)
(0.405834 0.361907 -1.95334e-08)
(0.337739 0.39558 -1.87396e-08)
(0.262447 0.43177 -1.84119e-08)
(0.166435 0.468482 -1.85592e-08)
(0.0712094 0.496603 -1.91178e-08)
(3 1.80647e-07 -9.57926e-13)
(2.99998 9.87937e-07 -4.6198e-12)
(2.99996 3.66337e-06 -1.30683e-11)
(2.9999 9.36512e-06 -2.78068e-11)
(2.99977 2.58223e-05 -7.13978e-11)
(2.99941 5.86789e-05 -1.41508e-10)
(2.9987 0.000155901 -3.94886e-10)
(2.99647 0.000332648 -7.35611e-10)
(2.99262 0.000965576 -2.47414e-09)
(2.97796 0.001886 -4.05104e-09)
(2.95251 0.00640105 -1.59752e-08)
(2.85428 0.0133395 -2.74051e-08)
(2.59332 0.0472699 -1.08152e-07)
(1.94663 0.116371 -2.30709e-07)
(0.904167 0.328039 -3.4416e-07)
(0.516716 0.310247 2.11226e-08)
(0.58726 0.306997 -1.84052e-09)
(0.612885 0.326881 -2.33358e-08)
(0.572095 0.349863 -2.32707e-08)
(0.503231 0.380203 -2.19143e-08)
(0.432735 0.417149 -1.98156e-08)
(0.368096 0.460016 -1.9009e-08)
(0.294948 0.508369 -1.88011e-08)
(0.196811 0.561758 -1.92149e-08)
(0.0888642 0.61123 -2.03417e-08)
(3 1.96257e-07 -8.33268e-13)
(2.99999 1.09002e-06 -4.0937e-12)
(2.99996 4.01423e-06 -1.12355e-11)
(2.99991 1.02705e-05 -2.36969e-11)
(2.99979 2.81522e-05 -5.95573e-11)
(2.99946 6.39007e-05 -1.14818e-10)
(2.9988 0.00016913 -3.35713e-10)
(2.99682 0.000356985 -5.06028e-10)
(2.99321 0.001055 -2.50196e-09)
(2.98036 0.00196099 -1.94302e-09)
(2.95744 0.00713983 -1.94828e-08)
(2.87151 0.0139142 -2.24451e-08)
(2.64592 0.0528722 -1.13198e-07)
(2.07174 0.126787 -2.32141e-07)
(0.994038 0.370049 -3.86094e-07)
(0.524303 0.355147 1.73632e-08)
(0.602735 0.349007 -5.79084e-10)
(0.63506 0.367236 -2.10564e-08)
(0.596624 0.39129 -2.1914e-08)
(0.533656 0.426164 -2.27489e-08)
(0.468867 0.470929 -2.07667e-08)
(0.409364 0.523635 -1.98119e-08)
(0.342023 0.586681 -1.95259e-08)
(0.247862 0.666059 -1.94276e-08)
(0.122903 0.759629 -2.10829e-08)
(3 3.8151e-07 -8.86821e-13)
(2.99999 8.67392e-07 -4.27423e-12)
(2.99997 5.83269e-06 -1.19785e-11)
(2.99992 9.41494e-06 -2.55598e-11)
(2.99982 4.07354e-05 -6.46695e-11)
(2.99952 6.06926e-05 -1.29573e-10)
(2.99894 0.000249748 -3.51566e-10)
(2.99721 0.000332409 -6.90613e-10)
(2.99396 0.00159728 -2.22421e-09)
(2.98295 0.00143199 -3.10291e-09)
(2.9627 0.0108315 -1.67005e-08)
(2.88948 0.00857399 -2.17869e-08)
(2.70018 0.0679682 -1.04887e-07)
(2.20557 0.122231 -2.23918e-07)
(1.10596 0.395523 -4.19151e-07)
(0.558348 0.403784 -9.99083e-09)
(0.63249 0.399814 -1.27495e-08)
(0.667782 0.408694 -1.49794e-08)
(0.632115 0.43285 -1.96296e-08)
(0.575633 0.469814 -2.46946e-08)
(0.516661 0.521565 -2.20738e-08)
(0.464101 0.583509 -2.12676e-08)
(0.410802 0.666065 -2.02717e-08)
(0.336778 0.788814 -1.95993e-08)
(0.189327 0.997165 -2.12552e-08)
(2.99999 1.27337e-08 -1.58682e-13)
(2.99998 6.94359e-08 -7.07632e-13)
(2.99995 2.57889e-07 -2.36214e-12)
(2.99986 6.60839e-07 -5.09044e-12)
(2.99968 1.82341e-06 -1.48241e-11)
(2.99918 4.15775e-06 -3.0087e-11)
(2.99818 1.10019e-05 -8.93635e-11)
(2.99513 2.39346e-05 -1.69363e-10)
(2.98963 6.72495e-05 -5.79153e-10)
(2.96981 0.00013809 -9.43329e-10)
(2.9319 0.000425179 -3.70748e-09)
(2.79798 0.00100654 -7.72805e-09)
(2.41505 0.00301377 -2.0662e-08)
(1.53549 0.00807723 -5.27049e-08)
(0.640833 0.0200213 -5.29991e-08)
(0.539461 0.0209927 9.69278e-11)
(0.566612 0.0221606 -9.32234e-10)
(0.560849 0.0241709 -4.1771e-09)
(0.509452 0.0263556 -4.56871e-09)
(0.424505 0.0287414 -4.6186e-09)
(0.342008 0.0314847 -3.79204e-09)
(0.272269 0.0346486 -3.25967e-09)
(0.201921 0.0379816 -2.98266e-09)
(0.121551 0.0418764 -2.72128e-09)
(0.0540652 0.0477139 -2.45371e-09)
(2.99999 3.86741e-08 -1.58434e-13)
(2.99998 2.11022e-07 -7.06485e-13)
(2.99995 7.83997e-07 -2.35735e-12)
(2.99986 2.00705e-06 -5.08011e-12)
(2.99969 5.54125e-06 -1.47856e-11)
(2.99918 1.26231e-05 -3.00098e-11)
(2.9982 3.34408e-05 -8.90756e-11)
(2.99518 7.25369e-05 -1.68826e-10)
(2.98972 0.00020489 -5.76998e-10)
(2.9701 0.000418038 -9.38706e-10)
(2.93265 0.00130338 -3.69742e-09)
(2.79996 0.00306271 -7.67457e-09)
(2.42151 0.00929752 -2.06208e-08)
(1.54953 0.0248223 -5.25281e-08)
(0.649636 0.0604805 -5.34431e-08)
(0.538977 0.0608065 1.79334e-10)
(0.566791 0.0619109 -9.43997e-10)
(0.561558 0.0658199 -4.26976e-09)
(0.510096 0.0700054 -4.62983e-09)
(0.425194 0.0745929 -4.63747e-09)
(0.342614 0.0795326 -3.81452e-09)
(0.272242 0.0847445 -3.29123e-09)
(0.200729 0.0896301 -3.01401e-09)
(0.118717 0.0944147 -2.75223e-09)
(0.0504467 0.0994923 -2.48701e-09)
(2.99999 6.5382e-08 -1.57517e-13)
(2.99998 3.5708e-07 -7.01312e-13)
(2.99995 1.32585e-06 -2.34617e-12)
(2.99986 3.39202e-06 -5.05859e-12)
(2.99969 9.35602e-06 -1.47659e-11)
(2.9992 2.12908e-05 -3.00439e-11)
(2.99823 5.63421e-05 -8.90105e-11)
(2.99527 0.000121832 -1.69835e-10)
(2.98992 0.00034478 -5.73563e-10)
(2.97071 0.000698674 -9.37737e-10)
(2.93419 0.0021963 -3.67466e-09)
(2.8041 0.00511973 -7.58403e-09)
(2.43519 0.015722 -2.0506e-08)
(1.58011 0.0417899 -5.23213e-08)
(0.669811 0.10352 -5.47137e-08)
(0.539473 0.102816 3.41242e-10)
(0.569197 0.104021 -9.88152e-10)
(0.565638 0.110889 -4.45148e-09)
(0.514561 0.118418 -4.75345e-09)
(0.430224 0.127059 -4.68339e-09)
(0.347818 0.136211 -3.86953e-09)
(0.276889 0.145664 -3.38618e-09)
(0.2042 0.154655 -3.11901e-09)
(0.120511 0.162962 -2.87436e-09)
(0.0500471 0.169722 -2.65115e-09)
(2.99999 9.5726e-08 -1.51863e-13)
(2.99998 5.21933e-07 -6.76661e-13)
(2.99995 1.93917e-06 -2.27543e-12)
(2.99987 4.96862e-06 -4.89023e-12)
(2.9997 1.36916e-05 -1.45666e-11)
(2.99922 3.12478e-05 -2.98548e-11)
(2.99828 8.20129e-05 -8.94416e-11)
(2.99542 0.000180785 -1.76937e-10)
(2.99021 0.000489696 -5.60748e-10)
(2.97161 0.00104272 -1.02253e-09)
(2.93646 0.00301345 -3.46781e-09)
(2.81031 0.00722953 -7.82999e-09)
(2.45562 0.0217323 -1.96761e-08)
(1.62678 0.0567403 -5.23904e-08)
(0.701063 0.145214 -5.6687e-08)
(0.540379 0.143613 5.35736e-10)
(0.573294 0.145283 -1.16197e-09)
(0.572518 0.155401 -4.71189e-09)
(0.522215 0.166481 -4.93168e-09)
(0.438997 0.179392 -4.76981e-09)
(0.35709 0.193121 -3.99537e-09)
(0.285823 0.207466 -3.55644e-09)
(0.211893 0.22147 -3.30975e-09)
(0.125865 0.234207 -3.10399e-09)
(0.0517844 0.24319 -2.94283e-09)
(2.99999 1.27434e-07 -1.69503e-13)
(2.99998 6.93904e-07 -7.50939e-13)
(2.99995 2.57933e-06 -2.52048e-12)
(2.99987 6.61509e-06 -5.4563e-12)
(2.99971 1.82182e-05 -1.58724e-11)
(2.99926 4.16712e-05 -3.26537e-11)
(2.99836 0.000108668 -9.39489e-11)
(2.99561 0.000243224 -1.93813e-10)
(2.99064 0.000635389 -5.55636e-10)
(2.97277 0.00141046 -1.14291e-09)
(2.93951 0.00379172 -3.23546e-09)
(2.81844 0.00929347 -7.83968e-09)
(2.48101 0.0275834 -1.992e-08)
(1.68392 0.0707571 -4.90993e-08)
(0.737991 0.187442 -5.97376e-08)
(0.537048 0.184201 7.57603e-10)
(0.575838 0.186179 -1.43055e-09)
(0.579737 0.199432 -4.99972e-09)
(0.53109 0.213894 -5.09326e-09)
(0.449932 0.231016 -4.78859e-09)
(0.369299 0.249494 -4.11999e-09)
(0.298331 0.269106 -3.78279e-09)
(0.223498 0.288723 -3.56913e-09)
(0.134513 0.306816 -3.39694e-09)
(0.0553669 0.318944 -3.29409e-09)
(2.99999 1.60732e-07 -1.71171e-13)
(2.99998 8.71903e-07 -7.60435e-13)
(2.99995 3.25055e-06 -2.54149e-12)
(2.99988 8.35528e-06 -5.49905e-12)