/*--------------------------------*- C++ -*----------------------------------*\
| =========                 |                                                 |
| \\      /  F ield         | OpenFOAM: The Open Source CFD Toolbox           |
|  \\    /   O peration     | Version:  4.1                                   |
|   \\  /    A nd           | Web:      www.OpenFOAM.org                      |
|    \\/     M anipulation  |                                                 |
\*---------------------------------------------------------------------------*/
FoamFile
{
    version     2.0;
    format      ascii;
    class       volScalarField;
    location    "3.24";
    object      T;
}
// * * * * * * * * * * * * * * * * * * * * * * * * * * * * * * * * * * * * * //

dimensions      [0 0 0 1 0 0 0];

internalField   nonuniform List<scalar> 
52500
(
0.999995
1.00002
1.00004
1.00015
1.00027
1.00088
1.00164
1.00485
1.01023
1.0263
1.07134
1.15725
1.49458
2.26155
2.64248
2.73286
2.72713
2.72215
2.73749
2.74908
2.76085
2.76999
2.77336
2.77945
2.78906
0.999995
1.00002
1.00004
1.00015
1.00027
1.00087
1.00162
1.00479
1.01008
1.02597
1.07023
1.15522
1.48617
2.2473
2.63855
2.73267
2.72679
2.72148
2.73668
2.74815
2.75969
2.7686
2.77185
2.77721
2.78599
0.999995
1.00002
1.00004
1.00014
1.00026
1.00085
1.00157
1.00468
1.00977
1.0253
1.06792
1.15105
1.46804
2.21551
2.62817
2.73098
2.72499
2.71904
2.73431
2.74547
2.75721
2.76534
2.76855
2.77476
2.78256
0.999995
1.00002
1.00004
1.00014
1.00025
1.00081
1.00151
1.00449
1.00931
1.02427
1.06447
1.14476
1.44079
2.16571
2.61136
2.72761
2.72124
2.71414
2.72941
2.74091
2.75288
2.76146
2.76351
2.76774
2.77781
0.999995
1.00001
1.00003
1.00013
1.00024
1.00078
1.00143
1.00442
1.00868
1.02368
1.05859
1.1364
1.40176
2.09325
2.58743
2.72198
2.71582
2.70557
2.7212
2.73071
2.74336
2.75329
2.7573
2.76185
2.76789
0.999995
1.00001
1.00003
1.00012
1.00022
1.00073
1.00133
1.00416
1.00797
1.0225
1.0523
1.12648
1.35821
2.00337
2.5544
2.71413
2.70772
2.69686
2.71357
2.72325
2.73222
2.74131
2.74373
2.74743
2.75789
0.999995
1.00001
1.00003
1.00011
1.0002
1.00067
1.00122
1.00381
1.00726
1.02079
1.04653
1.1167
1.314
1.91084
2.50584
2.69736
2.68862
2.67899
2.69607
2.71121
2.7205
2.72736
2.73169
2.73485
2.73769
0.999995
1.00001
1.00002
1.0001
1.00018
1.00061
1.00111
1.00346
1.00658
1.01894
1.04205
1.10583
1.28345
1.81877
2.49071
2.68859
2.67983
2.66651
2.68118
2.69079
2.70417
2.70804
2.70647
2.70685
2.71305
0.999994
1.00001
1.00002
1.00009
1.00016
1.00054
1.00098
1.00308
1.00587
1.01661
1.0382
1.09202
1.26083
1.69595
2.45429
2.67522
2.66085
2.66175
2.66692
2.67346
2.68212
2.68816
2.68635
2.67893
2.65909
0.999994
1.00001
1.00002
1.00007
1.00014
1.00044
1.00084
1.00237
1.00524
1.01295
1.03544
1.07776
1.24107
1.59321
2.35875
2.64296
2.65642
2.65404
2.65334
2.65809
2.65713
2.65475
2.64506
2.62249
2.57741
1
1.00002
1.00005
1.00016
1.00028
1.00089
1.00165
1.00486
1.01024
1.02632
1.07135
1.15729
1.49461
2.26167
2.64255
2.73293
2.7272
2.72222
2.73756
2.74915
2.76093
2.77007
2.77344
2.77953
2.78914
1
1.00002
1.00005
1.00015
1.00028
1.00088
1.00163
1.0048
1.01009
1.02599
1.07025
1.15526
1.4862
2.24742
2.63862
2.73274
2.72686
2.72155
2.73675
2.74823
2.75977
2.76868
2.77193
2.77729
2.78606
1
1.00002
1.00004
1.00015
1.00027
1.00086
1.00158
1.00469
1.00978
1.02532
1.06794
1.15109
1.46807
2.21563
2.62824
2.73105
2.72506
2.71911
2.73438
2.74555
2.75728
2.76541
2.76862
2.77484
2.78264
1
1.00002
1.00004
1.00014
1.00026
1.00082
1.00152
1.0045
1.00932
1.02429
1.06448
1.14479
1.4408
2.16578
2.61142
2.72767
2.7213
2.71421
2.72947
2.74098
2.75296
2.76153
2.76359
2.76781
2.77789
1
1.00002
1.00004
1.00014
1.00025
1.00079
1.00144
1.00443
1.00868
1.0237
1.05859
1.13644
1.40175
2.09332
2.58749
2.72205
2.71589
2.70563
2.72127
2.73077
2.74342
2.75336
2.75738
2.76192
2.76797
1
1.00002
1.00004
1.00013
1.00023
1.00074
1.00134
1.00417
1.00798
1.02252
1.05231
1.12651
1.35821
2.00345
2.55446
2.71419
2.70778
2.69693
2.71364
2.72332
2.73229
2.74138
2.7438
2.7475
2.75797
1
1.00002
1.00004
1.00012
1.00021
1.00068
1.00123
1.00382
1.00727
1.0208
1.04654
1.11673
1.31401
1.9109
2.5059
2.69742
2.68868
2.67905
2.69613
2.71127
2.72058
2.72743
2.73176
2.73492
2.73776
1
1.00002
1.00003
1.00011
1.00019
1.00062
1.00111
1.00347
1.00659
1.01896
1.04206
1.10586
1.28346
1.81884
2.49076
2.68866
2.67989
2.66658
2.68124
2.69085
2.70424
2.70811
2.70653
2.70691
2.71312
1
1.00002
1.00003
1.00009
1.00017
1.00055
1.00099
1.00309
1.00588
1.01663
1.0382
1.09205
1.26082
1.69602
2.45434
2.67529
2.66091
2.66181
2.66698
2.67352
2.68218
2.68822
2.68641
2.67899
2.65915
1
1.00001
1.00002
1.00008
1.00014
1.00045
1.00085
1.00238
1.00525
1.01297
1.03545
1.07778
1.24108
1.59327
2.35882
2.64302
2.65647
2.65409
2.6534
2.65816
2.65719
2.65482
2.64512
2.62254
2.57746
1
1.00002
1.00005
1.00016
1.00028
1.00089
1.00165
1.00486
1.01024
1.02632
1.07135
1.15729
1.49462
2.26167
2.64255
2.73293
2.7272
2.72222
2.73756
2.74916
2.76093
2.77007
2.77344
2.77953
2.78914
1
1.00002
1.00005
1.00015
1.00028
1.00088
1.00163
1.0048
1.01009
1.02599
1.07025
1.15526
1.4862
2.24743
2.63862
2.73273
2.72686
2.72155
2.73675
2.74823
2.75977
2.76868
2.77193
2.77729
2.78606
1
1.00002
1.00004
1.00015
1.00027
1.00086
1.00158
1.00469
1.00978
1.02532
1.06794
1.15109
1.46808
2.21564
2.62824
2.73105
2.72506
2.71911
2.73438
2.74555
2.75728
2.76541
2.76862
2.77484
2.78264
1
1.00002
1.00004
1.00014
1.00026
1.00082
1.00152
1.0045
1.00932
1.02429
1.06449
1.14479
1.4408
2.16578
2.61142
2.72767
2.7213
2.71421
2.72947
2.74098
2.75296
2.76153
2.76359
2.76781
2.77789
1
1.00002
1.00004
1.00014
1.00025
1.00079
1.00144
1.00443
1.00868
1.0237
1.05859
1.13644
1.40175
2.09333
2.58749
2.72205
2.71589
2.70563
2.72127
2.73077
2.74342
2.75336
2.75738
2.76192
2.76797
1
1.00002
1.00004
1.00013
1.00023
1.00074
1.00134
1.00417
1.00798
1.02252
1.05231
1.12651
1.35822
2.00345
2.55446
2.71419
2.70778
2.69693
2.71364
2.72332
2.73229
2.74138
2.7438
2.7475
2.75797
1
1.00002
1.00004
1.00012
1.00021
1.00068
1.00123
1.00382
1.00727
1.0208
1.04654
1.11673
1.31401
1.91091
2.5059
2.69742
2.68868
2.67905
2.69613
2.71127
2.72058
2.72743
2.73176
2.73492
2.73776
1
1.00002
1.00003
1.00011
1.00019
1.00062
1.00111
1.00347
1.00659
1.01896
1.04206
1.10586
1.28346
1.81884
2.49077
2.68866
2.67989
2.66658
2.68124
2.69085
2.70424
2.70811
2.70653
2.70691
2.71312
1
1.00002
1.00003
1.00009
1.00017
1.00055
1.00099
1.00309
1.00588
1.01663
1.0382
1.09205
1.26082
1.69602
2.45434
2.67529
2.66091
2.66181
2.66698
2.67352
2.68218
2.68822
2.68641
2.67899
2.65915
1
1.00001
1.00002
1.00008
1.00014
1.00045
1.00085
1.00238
1.00525
1.01297
1.03545
1.07778
1.24108
1.59327
2.35882
2.64302
2.65647
2.65409
2.6534
2.65816
2.65719
2.65482
2.64512
2.62254
2.57746
1
1.00002
1.00005
1.00016
1.00028
1.00089
1.00165
1.00486
1.01024
1.02632
1.07135
1.15729
1.49462
2.26167
2.64255
2.73293
2.7272
2.72222
2.73756
2.74916
2.76093
2.77007
2.77344
2.77953
2.78914
1
1.00002
1.00005
1.00015
1.00028
1.00088
1.00163
1.0048
1.01009
1.02599
1.07025
1.15526
1.4862
2.24743
2.63862
2.73273
2.72686
2.72155
2.73675
2.74823
2.75977
2.76868
2.77193
2.77729
2.78606
1
1.00002
1.00004
1.00015
1.00027
1.00086
1.00158
1.00469
1.00978
1.02532
1.06794
1.15109
1.46808
2.21564
2.62824
2.73105
2.72506
2.71911
2.73438
2.74555
2.75728
2.76541
2.76862
2.77484
2.78264
1
1.00002
1.00004
1.00014
1.00026
1.00082
1.00152
1.0045
1.00932
1.02429
1.06449
1.14479
1.4408
2.16578
2.61142
2.72767
2.7213
2.71421
2.72947
2.74098
2.75296
2.76153
2.76359
2.76781
2.77789
1
1.00002
1.00004
1.00014
1.00025
1.00079
1.00144
1.00443
1.00868
1.0237
1.05859
1.13644
1.40175
2.09333
2.58749
2.72205
2.71589
2.70563
2.72127
2.73077
2.74342
2.75336
2.75738
2.76192
2.76797
1
1.00002
1.00004
1.00013
1.00023
1.00074
1.00134
1.00417
1.00798
1.02252
1.05231
1.12651
1.35822
2.00345
2.55446
2.71419
2.70778
2.69693
2.71364
2.72332
2.73229
2.74138
2.7438
2.7475
2.75797
1
1.00002
1.00004
1.00012
1.00021
1.00068
1.00123
1.00382
1.00727
1.0208
1.04654
1.11673
1.31401
1.91091
2.5059
2.69742
2.68868
2.67905
2.69613
2.71127
2.72058
2.72743
2.73176
2.73492
2.73776
1
1.00002
1.00003
1.00011
1.00019
1.00062
1.00111
1.00347
1.00659
1.01896
1.04206
1.10586
1.28346
1.81884
2.49077
2.68866
2.67989
2.66658
2.68124
2.69085
2.70424
2.70811
2.70653
2.70691
2.71312
1
1.00002
1.00003
1.00009
1.00017
1.00055
1.00099
1.00309
1.00588
1.01663
1.0382
1.09205
1.26082
1.69602
2.45434
2.67529
2.66091
2.66181
2.66698
2.67352
2.68218
2.68822
2.68641
2.67899
2.65915
1
1.00001
1.00002
1.00008
1.00014
1.00045
1.00085
1.00238
1.00525
1.01297
1.03545
1.07778
1.24108
1.59327
2.35882
2.64302
2.65647
2.65409
2.6534
2.65816
2.65719
2.65482
2.64512
2.62254
2.57746
1
1.00002
1.00005
1.00016
1.00028
1.00089
1.00165
1.00486
1.01024
1.02632
1.07135
1.15729
1.49462
2.26167
2.64255
2.73293
2.7272
2.72222
2.73756
2.74916
2.76093
2.77007
2.77344
2.77953
2.78914
1
1.00002
1.00005
1.00015
1.00028
1.00088
1.00163
1.0048
1.01009
1.02599
1.07025
1.15526
1.4862
2.24743
2.63862
2.73273
2.72686
2.72155
2.73675
2.74823
2.75977
2.76868
2.77193
2.77729
2.78606
1
1.00002
1.00004
1.00015
1.00027
1.00086
1.00158
1.00469
1.00978
1.02532
1.06794
1.15109
1.46808
2.21564
2.62824
2.73105
2.72506
2.71911
2.73438
2.74555
2.75728
2.76541
2.76862
2.77484
2.78264
1
1.00002
1.00004
1.00014
1.00026
1.00082
1.00152
1.0045
1.00932
1.02429
1.06449
1.14479
1.4408
2.16578
2.61142
2.72767
2.7213
2.71421
2.72947
2.74098
2.75296
2.76153
2.76359
2.76781
2.77789
1
1.00002
1.00004
1.00014
1.00025
1.00079
1.00144
1.00443
1.00868
1.0237
1.05859
1.13644
1.40175
2.09333
2.58749
2.72205
2.71589
2.70563
2.72127
2.73077
2.74342
2.75336
2.75738
2.76192
2.76797
1
1.00002
1.00004
1.00013
1.00023
1.00074
1.00134
1.00417
1.00798
1.02252
1.05231
1.12651
1.35822
2.00345
2.55446
2.71419
2.70778
2.69693
2.71364
2.72332
2.73229
2.74138
2.7438
2.7475
2.75797
1
1.00002
1.00004
1.00012
1.00021
1.00068
1.00123
1.00382
1.00727
1.0208
1.04654
1.11673
1.31401
1.91091
2.5059
2.69742
2.68868
2.67905
2.69613
2.71127
2.72058
2.72743
2.73176
2.73492
2.73776
1
1.00002
1.00003
1.00011
1.00019
1.00062
1.00111
1.00347
1.00659
1.01896
1.04206
1.10586
1.28346
1.81884
2.49077
2.68866
2.67989
2.66658
2.68124
2.69085
2.70424
2.70811
2.70653
2.70691
2.71312
1
1.00002
1.00003
1.00009
1.00017
1.00055
1.00099
1.00309
1.00588
1.01663
1.0382
1.09205
1.26082
1.69602
2.45434
2.67529
2.66091
2.66181
2.66698
2.67352
2.68218
2.68822
2.68641
2.67899
2.65915
1
1.00001
1.00002
1.00008
1.00014
1.00045
1.00085
1.00238
1.00525
1.01297
1.03545
1.07778
1.24108
1.59327
2.35882
2.64302
2.65647
2.65409
2.6534
2.65816
2.65719
2.65482
2.64512
2.62254
2.57746
1
1.00002
1.00005
1.00016
1.00028
1.00089
1.00165
1.00486
1.01024
1.02632
1.07135
1.15729
1.49462
2.26167
2.64255
2.73293
2.7272
2.72222
2.73756
2.74916
2.76093
2.77007
2.77344
2.77953
2.78914
1
1.00002
1.00005
1.00015
1.00028
1.00088
1.00163
1.0048
1.01009
1.02599
1.07025
1.15526
1.4862
2.24743
2.63862
2.73273
2.72686
2.72155
2.73675
2.74823
2.75977
2.76868
2.77193
2.77729
2.78606
1
1.00002
1.00004
1.00015
1.00027
1.00086
1.00158
1.00469
1.00978
1.02532
1.06794
1.15109
1.46808
2.21564
2.62824
2.73105
2.72506
2.71911
2.73438
2.74555
2.75728
2.76541
2.76862
2.77484
2.78264
1
1.00002
1.00004
1.00014
1.00026
1.00082
1.00152
1.0045
1.00932
1.02429
1.06449
1.14479
1.4408
2.16578
2.61142
2.72767
2.7213
2.71421
2.72947
2.74098
2.75296
2.76153
2.76359
2.76781
2.77789
1
1.00002
1.00004
1.00014
1.00025
1.00079
1.00144
1.00443
1.00868
1.0237
1.05859
1.13644
1.40175
2.09333
2.58749
2.72205
2.71589
2.70563
2.72127
2.73077
2.74342
2.75336
2.75738
2.76192
2.76797
1
1.00002
1.00004
1.00013
1.00023
1.00074
1.00134
1.00417
1.00798
1.02252
1.05231
1.12651
1.35822
2.00345
2.55446
2.71419
2.70778
2.69693
2.71364
2.72332
2.73229
2.74138
2.7438
2.7475
2.75797
1
1.00002
1.00004
1.00012
1.00021
1.00068
1.00123
1.00382
1.00727
1.0208
1.04654
1.11673
1.31401
1.91091
2.5059
2.69742
2.68868
2.67905
2.69613
2.71127
2.72058
2.72743
2.73176
2.73492
2.73776
1
1.00002
1.00003
1.00011
1.00019
1.00062
1.00111
1.00347
1.00659
1.01896
1.04206
1.10586
1.28346
1.81884
2.49077
2.68866
2.67989
2.66658
2.68124
2.69085
2.70424
2.70811
2.70653
2.70691
2.71312
1
1.00002
1.00003
1.00009
1.00017
1.00055
1.00099
1.00309
1.00588
1.01663
1.0382
1.09205
1.26082
1.69602
2.45434
2.67529
2.66091
2.66181
2.66698
2.67352
2.68218
2.68822
2.68641
2.67899
2.65915
1
1.00001
1.00002
1.00008
1.00014
1.00045
1.00085
1.00238
1.00525
1.01297
1.03545
1.07778
1.24108
1.59327
2.35882
2.64302
2.65647
2.65409
2.6534
2.65816
2.65719
2.65482
2.64512
2.62254
2.57746
1
1.00002
1.00005
1.00016
1.00028
1.00089
1.00165
1.00486
1.01024
1.02632
1.07135
1.15729
1.49462
2.26167
2.64255
2.73293
2.7272
2.72222
2.73756
2.74916
2.76093
2.77007
2.77344
2.77953
2.78914
1
1.00002
1.00005
1.00015
1.00028
1.00088
1.00163
1.0048
1.01009
1.02599
1.07025
1.15526
1.4862
2.24743
2.63862
2.73273
2.72686
2.72155
2.73675
2.74823
2.75977
2.76868
2.77193
2.77729
2.78606
1
1.00002
1.00004
1.00015
1.00027
1.00086
1.00158
1.00469
1.00978
1.02532
1.06794
1.15109
1.46808
2.21564
2.62824
2.73105
2.72506
2.71911
2.73438
2.74555
2.75728
2.76541
2.76862
2.77484
2.78264
1
1.00002
1.00004
1.00014
1.00026
1.00082
1.00152
1.0045
1.00932
1.02429
1.06449
1.14479
1.4408
2.16578
2.61142
2.72767
2.7213
2.71421
2.72947
2.74098
2.75296
2.76153
2.76359
2.76781
2.77789
1
1.00002
1.00004
1.00014
1.00025
1.00079
1.00144
1.00443
1.00868
1.0237
1.05859
1.13644
1.40175
2.09333
2.58749
2.72205
2.71589
2.70563
2.72127
2.73077
2.74342
2.75336
2.75738
2.76192
2.76797
1
1.00002
1.00004
1.00013
1.00023
1.00074
1.00134
1.00417
1.00798
1.02252
1.05231
1.12651
1.35822
2.00345
2.55446
2.71419
2.70778
2.69693
2.71364
2.72332
2.73229
2.74138
2.7438
2.7475
2.75797
1
1.00002
1.00004
1.00012
1.00021
1.00068
1.00123
1.00382
1.00727
1.0208
1.04654
1.11673
1.31401
1.91091
2.5059
2.69742
2.68868
2.67905
2.69613
2.71127
2.72058
2.72743
2.73176
2.73492
2.73776
1
1.00002
1.00003
1.00011
1.00019
1.00062
1.00111
1.00347
1.00659
1.01896
1.04206
1.10586
1.28346
1.81884
2.49077
2.68866
2.67989
2.66658
2.68124
2.69085
2.70424
2.70811
2.70653
2.70691
2.71312
1
1.00002
1.00003
1.00009
1.00017
1.00055
1.00099
1.00309
1.00588
1.01663
1.0382
1.09205
1.26082
1.69602
2.45434
2.67529
2.66091
2.66181
2.66698
2.67352
2.68218
2.68822
2.68641
2.67899
2.65915
1
1.00001
1.00002
1.00008
1.00014
1.00045
1.00085
1.00238
1.00525
1.01297
1.03545
1.07778
1.24108
1.59327
2.35882
2.64302
2.65647
2.65409
2.6534
2.65816
2.65719
2.65482
2.64512
2.62254
2.57746
1
1.00002
1.00005
1.00016
1.00028
1.00089
1.00165
1.00486
1.01024
1.02632
1.07135
1.15729
1.49462
2.26167
2.64255
2.73293
2.7272
2.72222
2.73756
2.74916
2.76093
2.77007
2.77344
2.77953
2.78914
1
1.00002
1.00005
1.00015
1.00028
1.00088
1.00163
1.0048
1.01009
1.02599
1.07025
1.15526
1.4862
2.24743
2.63862
2.73273
2.72686
2.72155
2.73675
2.74823
2.75977
2.76868
2.77193
2.77729
2.78606
1
1.00002
1.00004
1.00015
1.00027
1.00086
1.00158
1.00469
1.00978
1.02532
1.06794
1.15109
1.46808
2.21564
2.62824
2.73105
2.72506
2.71911
2.73438
2.74555
2.75728
2.76541
2.76862
2.77484
2.78264
1
1.00002
1.00004
1.00014
1.00026
1.00082
1.00152
1.0045
1.00932
1.02429
1.06449
1.14479
1.4408
2.16578
2.61142
2.72767
2.7213
2.71421
2.72947
2.74098
2.75296
2.76153
2.76359
2.76781
2.77789
1
1.00002
1.00004
1.00014
1.00025
1.00079
1.00144
1.00443
1.00868
1.0237
1.05859
1.13644
1.40175
2.09333
2.58749
2.72205
2.71589
2.70563
2.72127
2.73077
2.74342
2.75336
2.75738
2.76192
2.76797
1
1.00002
1.00004
1.00013
1.00023
1.00074
1.00134
1.00417
1.00798
1.02252
1.05231
1.12651
1.35822
2.00345
2.55446
2.71419
2.70778
2.69693
2.71364
2.72332
2.73229
2.74138
2.7438
2.7475
2.75797
1
1.00002
1.00004
1.00012
1.00021
1.00068
1.00123
1.00382
1.00727
1.0208
1.04654
1.11673
1.31401
1.91091
2.5059
2.69742
2.68868
2.67905
2.69613
2.71127
2.72058
2.72743
2.73176
2.73492
2.73776
1
1.00002
1.00003
1.00011
1.00019
1.00062
1.00111
1.00347
1.00659
1.01896
1.04206
1.10586
1.28346
1.81884
2.49077
2.68866
2.67989
2.66658
2.68124
2.69085
2.70424
2.70811
2.70653
2.70691
2.71312
1
1.00002
1.00003
1.00009
1.00017
1.00055
1.00099
1.00309
1.00588
1.01663
1.0382
1.09205
1.26082
1.69602
2.45434
2.67529
2.66091
2.66181
2.66698
2.67352
2.68218
2.68822
2.68641
2.67899
2.65915
1
1.00001
1.00002
1.00008
1.00014
1.00045
1.00085
1.00238
1.00525
1.01297
1.03545
1.07778
1.24108
1.59327
2.35882
2.64302
2.65647
2.65409
2.6534
2.65816
2.65719
2.65482
2.64512
2.62254
2.57746
1
1.00002
1.00005
1.00016
1.00028
1.00089
1.00165
1.00486
1.01024
1.02632
1.07135
1.15729
1.49461
2.26167
2.64255
2.73293
2.7272
2.72222
2.73756
2.74915
2.76093
2.77007
2.77344
2.77953
2.78914
1
1.00002
1.00005
1.00015
1.00028
1.00088
1.00163
1.0048
1.01009
1.02599
1.07025
1.15526
1.4862
2.24742
2.63862
2.73274
2.72686
2.72155
2.73675
2.74823
2.75977
2.76868
2.77193
2.77729
2.78606
1
1.00002
1.00004
1.00015
1.00027
1.00086
1.00158
1.00469
1.00978
1.02532
1.06794
1.15109
1.46807
2.21563
2.62824
2.73105
2.72506
2.71911
2.73438
2.74555
2.75728
2.76541
2.76862
2.77484
2.78264
1
1.00002
1.00004
1.00014
1.00026
1.00082
1.00152
1.0045
1.00932
1.02429
1.06448
1.14479
1.4408
2.16578
2.61142
2.72767
2.7213
2.71421
2.72947
2.74098
2.75296
2.76153
2.76359
2.76781
2.77789
1
1.00002
1.00004
1.00014
1.00025
1.00079
1.00144
1.00443
1.00868
1.0237
1.05859
1.13644
1.40175
2.09332
2.58749
2.72205
2.71589
2.70563
2.72127
2.73077
2.74342
2.75336
2.75738
2.76192
2.76797
1
1.00002
1.00004
1.00013
1.00023
1.00074
1.00134
1.00417
1.00798
1.02252
1.05231
1.12651
1.35821
2.00345
2.55446
2.71419
2.70778
2.69693
2.71364
2.72332
2.73229
2.74138
2.7438
2.7475
2.75797
1
1.00002
1.00004
1.00012
1.00021
1.00068
1.00123
1.00382
1.00727
1.0208
1.04654
1.11673
1.31401
1.9109
2.5059
2.69742
2.68868
2.67905
2.69613
2.71127
2.72058
2.72743
2.73176
2.73492
2.73776
1
1.00002
1.00003
1.00011
1.00019
1.00062
1.00111
1.00347
1.00659
1.01896
1.04206
1.10586
1.28346
1.81884
2.49076
2.68866
2.67989
2.66658
2.68124
2.69085
2.70424
2.70811
2.70653
2.70691
2.71312
1
1.00002
1.00003
1.00009
1.00017
1.00055
1.00099
1.00309
1.00588
1.01663
1.0382
1.09205
1.26082
1.69602
2.45434
2.67529
2.66091
2.66181
2.66698
2.67352
2.68218
2.68822
2.68641
2.67899
2.65915
1
1.00001
1.00002
1.00008
1.00014
1.00045
1.00085
1.00238
1.00525
1.01297
1.03545
1.07778
1.24108
1.59327
2.35882
2.64302
2.65647
2.65409
2.6534
2.65816
2.65719
2.65482
2.64512
2.62254
2.57746
0.999995
1.00002
1.00004
1.00015
1.00027
1.00088
1.00164
1.00485
1.01023
1.0263
1.07134
1.15725
1.49458
2.26155
2.64248
2.73286
2.72713
2.72215
2.73749
2.74908
2.76085
2.76999
2.77336
2.77945
2.78906
0.999995
1.00002
1.00004
1.00015
1.00027
1.00087
1.00162
1.00479
1.01008
1.02597
1.07023
1.15522
1.48617
2.2473
2.63855
2.73267
2.72679
2.72148
2.73668
2.74815
2.75969
2.7686
2.77185
2.77721
2.78599
0.999995
1.00002
1.00004
1.00014
1.00026
1.00085
1.00157
1.00468
1.00977
1.0253
1.06792
1.15105
1.46804
2.21551
2.62817
2.73098
2.72499
2.71904
2.73431
2.74547
2.75721
2.76534
2.76855
2.77476
2.78256
0.999995
1.00002
1.00004
1.00014
1.00025
1.00081
1.00151
1.00449
1.00931
1.02427
1.06447
1.14476
1.44079
2.16571
2.61136
2.72761
2.72124
2.71414
2.72941
2.74091
2.75288
2.76146
2.76351
2.76774
2.77781
0.999995
1.00001
1.00003
1.00013
1.00024
1.00078
1.00143
1.00442
1.00868
1.02368
1.05859
1.1364
1.40176
2.09325
2.58743
2.72198
2.71582
2.70557
2.72119
2.73071
2.74336
2.75329
2.7573
2.76185
2.76789
0.999995
1.00001
1.00003
1.00012
1.00022
1.00073
1.00133
1.00416
1.00797
1.0225
1.0523
1.12648
1.35821
2.00337
2.5544
2.71413
2.70772
2.69686
2.71357
2.72325
2.73222
2.74131
2.74373
2.74743
2.75789
0.999995
1.00001
1.00003
1.00011
1.0002
1.00067
1.00122
1.00381
1.00726
1.02079
1.04653
1.1167
1.314
1.91084
2.50584
2.69736
2.68862
2.67899
2.69607
2.71121
2.7205
2.72736
2.73169
2.73485
2.73769
0.999995
1.00001
1.00002
1.0001
1.00018
1.00061
1.00111
1.00346
1.00658
1.01894
1.04205
1.10583
1.28345
1.81877
2.49071
2.68859
2.67983
2.66651
2.68118
2.69079
2.70417
2.70804
2.70646
2.70685
2.71305
0.999994
1.00001
1.00002
1.00009
1.00016
1.00054
1.00098
1.00308
1.00587
1.01661
1.0382
1.09202
1.26083
1.69595
2.45429
2.67522
2.66085
2.66175
2.66692
2.67346
2.68212
2.68816
2.68635
2.67893
2.65909
0.999994
1.00001
1.00002
1.00007
1.00014
1.00044
1.00084
1.00237
1.00524
1.01295
1.03544
1.07776
1.24107
1.59321
2.35875
2.64296
2.65642
2.65404
2.65334
2.65809
2.65713
2.65475
2.64506
2.62249
2.57741
0.999996
1
1.00002
1.00005
1.00016
1.00031
1.00096
1.00186
1.00524
1.01166
1.02902
1.08084
1.17658
1.54695
2.33131
2.58108
2.64151
2.63698
2.63536
2.63909
2.63755
2.62882
2.60606
2.55121
2.35923
0.999996
0.999999
1.00002
1.00004
1.00014
1.00026
1.00085
1.00158
1.00468
1.00979
1.02528
1.06785
1.15077
1.46456
2.20071
2.53488
2.63395
2.62596
2.61403
2.61084
2.60488
2.58802
2.5526
2.48751
2.29169
0.999995
0.999998
1.00001
1.00003
1.00012
1.00023
1.00074
1.00135
1.00423
1.0081
1.02275
1.05355
1.12769
1.36548
2.00397
2.45759
2.6175
2.61106
2.60155
2.59175
2.58202
2.56104
2.51336
2.44777
2.2894
0.999995
0.999997
1.00001
1.00003
1.0001
1.00019
1.00061
1.00112
1.00349
1.00659
1.0191
1.04135
1.1072
1.2723
1.81173
2.35092
2.57854
2.5757
2.57246
2.56054
2.54546
2.5202
2.47694
2.42293
2.30134
0.999994
0.999997
1.00001
1.00002
1.00008
1.00015
1.00048
1.00089
1.00275
1.00535
1.01468
1.03466
1.08248
1.2307
1.61646
2.2783
2.54082
2.55556
2.5538
2.54598
2.52607
2.49822
2.43659
2.39136
2.30161
0.999994
0.999997
1
1.00002
1.00004
1.00015
1.00029
1.00089
1.00173
1.00478
1.01087
1.02635
1.07446
1.1591
1.50702
2.21587
2.45612
2.52055
2.51372
2.51102
2.50155
2.48145
2.43033
2.36737
2.29552
0.999994
0.999996
0.999999
1.00002
1.00003
1.00013
1.00023
1.00076
1.00139
1.00431
1.00833
1.02294
1.0554
1.12967
1.37447
2.00845
2.39212
2.50765
2.50119
2.48908
2.46338
2.44431
2.41514
2.35939
2.29217
0.999993
0.999995
0.999997
1.00001
1.00002
1.00009
1.00018
1.00058
1.00107
1.00328
1.0063
1.01795
1.03933
1.10119
1.25484
1.76344
2.24192
2.46571
2.47294
2.46796
2.45184
2.41949
2.38659
2.34051
2.28249
0.999993
0.999993
0.999997
1
1.00002
1.00005
1.00017
1.00033
1.00102
1.00193
1.00554
1.01183
1.03003
1.08062
1.17778
1.52714
2.20335
2.41005
2.43898
2.42959
2.42213
2.40264
2.3735
2.33248
2.27917
0.999992
0.999993
0.999996
0.999999
1.00002
1.00004
1.00013
1.00024
1.00077
1.00145
1.00421
1.00884
1.02269
1.06004
1.13453
1.39776
2.03703
2.34206
2.4199
2.41313
2.39436
2.37034
2.34292
2.31257
2.26995
0.999992
0.999992
0.999993
0.999998
1
1.00003
1.00007
1.00022
1.00042
1.00127
1.00255
1.00673
1.0162
1.03807
1.10787
1.2408
1.68537
2.18846
2.3871
2.3908
2.38102
2.35902
2.32825
2.29516
2.2609
0.999992
0.999992
0.999993
0.999996
1
1.00002
1.00005
1.00017
1.00031
1.00097
1.00181
1.00527
1.01105
1.02822
1.07493
1.16486
1.48641
2.10552
2.32537
2.3584
2.3516
2.33533
2.30798
2.27525
2.24067
0.999991
0.999992
0.999993
0.999994
1
1.00001
1.00004
1.00008
1.00027
1.00052
1.00148
1.00318
1.00796
1.02077
1.04682
1.13701
1.306
1.84909
2.22365
2.33464
2.33301
2.32193
2.29941
2.26697
2.23325
0.999991
0.999991
0.999992
0.999993
0.999997
1
1.00003
1.00006
1.0002
1.00037
1.00117
1.00216
1.0065
1.01293
1.03434
1.08343
1.2031
1.5157
2.10576
2.27467
2.29381
2.29044
2.27769
2.2511
2.21954
0.999991
0.999991
0.999991
0.999993
0.999994
1
1.00001
1.00005
1.0001
1.00033
1.00061
1.00184
1.00359
1.00976
1.02243
1.05381
1.14787
1.35023
1.86459
2.20254
2.27486
2.27251
2.26096
2.24172
2.20939
0.999991
0.999991
0.999991
0.999992
0.999993
0.999998
1
1.00003
1.00007
1.00022
1.00041
1.00126
1.00235
1.00681
1.01416
1.03592
1.09336
1.2104
1.55889
2.03061
2.2305
2.24223
2.23807
2.22337
2.19725
0.999991
0.999991
0.999991
0.999991
0.999993
0.999995
1
1.00001
1.00006
1.00011
1.00035
1.00066
1.00198
1.00382
1.01071
1.02342
1.05751
1.14815
1.37702
1.85858
2.15577
2.21956
2.21819
2.20689
2.1885
0.999991
0.999991
0.999991
0.999991
0.999992
0.999993
0.999998
1
1.00003
1.00007
1.00023
1.00042
1.00131
1.00244
1.00701
1.01465
1.03699
1.09641
1.21647
1.57428
1.99623
2.17429
2.19054
2.18697
2.17307
0.999991
0.999991
0.999991
0.999991
0.999991
0.999993
0.999995
1
1.00001
1.00006
1.00011
1.00035
1.00067
1.00198
1.00388
1.01073
1.02335
1.05881
1.14301
1.39077
1.81529
2.08794
2.15775
2.16281
2.15684
0.999991
0.999991
0.999991
0.999991
0.999991
0.999992
0.999994
0.999997
1.00001
1.00002
1.00009
1.00017
1.00054
1.00101
1.00298
1.00584
1.01593
1.03529
1.08718
1.21598
1.59429
1.9491
2.11037
2.13043
2.12938
0.999991
0.999991
0.999991
0.999991
0.999991
0.999991
0.999993
0.999994
1
1.00001
1.00005
1.00011
1.00034
1.00063
1.00193
1.00363
1.01035
1.02158
1.05462
1.13271
1.34334
1.76142
2.03358
2.1032
2.10798
0.999991
0.999991
0.999991
0.999991
0.999991
0.999991
0.999992
0.999994
0.999996
1.00001
1.00002
1.00008
1.00016
1.00049
1.00093
1.00271
1.0053
1.01446
1.03125
1.07923
1.18662
1.52486
1.87957
2.05807
2.07626
0.999991
0.999991
0.999991
0.999991
0.999991
0.999991
0.999991
0.999993
0.999994
1
1.00001
1.00005
1.0001
1.00031
1.00057
1.00174
1.00322
1.00929
1.01897
1.04888
1.11765
1.29365
1.68005
1.97664
2.05537
0.999991
0.999991
0.999991
0.999991
0.999991
0.999991
0.999991
0.999992
0.999993
0.999997
1
1.00003
1.00005
1.00018
1.00034
1.00104
1.00191
1.00564
1.01093
1.02934
1.06607
1.16185
1.39309
1.82394
1.99862
0.999991
0.999991
0.999991
0.999991
0.999991
0.999991
0.999991
0.999991
0.999992
0.999995
0.999998
1.00001
1.00003
1.00011
1.0002
1.00062
1.00115
1.00342
1.00653
1.01792
1.0398
1.09447
1.24635
1.6394
1.88506
0.999991
0.999991
0.999991
0.999991
0.999991
0.999991
0.999991
0.999991
0.999992
0.999992
0.999996
1
1.00002
1.00004
1.00014
1.00028
1.00083
1.00158
1.00442
1.00917
1.02308
1.05793
1.12763
1.3471
1.76021
0.999991
0.999991
0.999991
0.999991
0.999991
0.999991
0.999991
0.999991
0.999991
0.999992
0.999993
0.999998
1
1.00003
1.00006
1.0002
1.00038
1.00111
1.00214
1.00586
1.01245
1.0306
1.07773
1.16999
1.44843
0.999991
0.999991
0.999991
0.999991
0.999991
0.999991
0.999991
0.999991
0.999991
0.999991
0.999992
0.999994
1
1.00001
1.00004
1.00009
1.00028
1.00053
1.00154
1.00298
1.00804
1.01756
1.04156
1.10411
1.24645
0.999991
0.999991
0.999991
0.999991
0.999991
0.999991
0.999991
0.999991
0.999991
0.999991
0.999992
0.999993
0.999996
1
1.00002
1.00005
1.00016
1.00029
1.00089
1.00165
1.0048
1.00936
1.02468
1.05637
1.13192
0.999991
0.999991
0.999991
0.999991
0.999991
0.999991
0.999991
0.999991
0.999991
0.999991
0.999991
0.999992
0.999993
0.999998
1
1.00003
1.00006
1.0002
1.00038
1.00113
1.00215
1.00596
1.01229
1.03064
1.07473
0.999991
0.999991
0.999991
0.999991
0.999991
0.999991
0.999991
0.999991
0.999991
0.999991
0.999991
0.999991
0.999992
0.999994
1
1.00001
1.00004
1.00009
1.00027
1.00051
1.00148
1.00288
1.00781
1.01643
1.04124
0.999991
0.999991
0.999991
0.999991
0.999991
0.999991
0.999991
0.999991
0.999991
0.999991
0.999991
0.999991
0.999991
0.999993
0.999995
1
1.00001
1.00006
1.00011
1.00035
1.00066
1.0019
1.00371
1.01002
1.02082
0.999991
0.999991
0.999991
0.999991
0.999991
0.999991
0.999991
0.999991
0.999991
0.999991
0.999991
0.999991
0.999991
0.999992
0.999993
0.999998
1
1.00003
1.00006
1.00019
1.00035
1.00104
1.00195
1.00543
1.01081
0.999991
0.999991
0.999991
0.999991
0.999991
0.999991
0.999991
0.999991
0.999991
0.999991
0.999991
0.999991
0.999991
0.999991
0.999992
0.999994
0.999999
1.00001
1.00004
1.00008
1.00024
1.00045
1.0013
1.00247
1.00688
0.999991
0.999991
0.999991
0.999991
0.999991
0.999991
0.999991
0.999991
0.999991
0.999991
0.999991
0.999991
0.999991
0.999991
0.999991
0.999993
0.999995
1
1.00001
1.00005
1.0001
1.00031
1.00059
1.00168
1.00328
0.999991
0.999991
0.999991
0.999991
0.999991
0.999991
0.999991
0.999991
0.999991
0.999991
0.999991
0.999991
0.999991
0.999991
0.999991
0.999992
0.999994
0.999996
1.00001
1.00002
1.00007
1.00015
1.00044
1.00084
1.00238
0.999991
0.999991
0.999991
0.999991
0.999991
0.999991
0.999991
0.999991
0.999991
0.999991
0.999991
0.999991
0.999991
0.999991
0.999991
0.999992
0.999992
0.999995
0.999999
1.00002
1.00004
1.00013
1.00026
1.00079
1.00146
0.999991
0.999991
0.999991
0.999991
0.999991
0.999991
0.999991
0.999991
0.999991
0.999991
0.999991
0.999991
0.999991
0.999991
0.999991
0.999991
0.999992
0.999995
0.999998
1.00001
1.00003
1.00011
1.00021
1.00068
1.00126
0.999991
0.999991
0.999991
0.999991
0.999991
0.999991
0.999991
0.999991
0.999991
0.999991
0.999991
0.999991
0.999991
0.999991
0.999991
0.999991
0.999992
0.999993
0.999999
1.00001
1.00004
1.00008
1.00025
1.00047
1.00145
0.999991
0.999991
0.999991
0.999991
0.999991
0.999991
0.999991
0.999991
0.999991
0.999991
0.999991
0.999991
0.999991
0.999991
0.999991
0.999991
0.999992
0.999993
0.999999
1.00001
1.00004
1.00007
1.00025
1.00046
1.00148
1
1.00001
1.00003
1.00005
1.00017
1.00032
1.00097
1.00187
1.00525
1.01167
1.02904
1.08085
1.17661
1.54697
2.3314
2.58114
2.64156
2.63703
2.63541
2.63915
2.63761
2.62888
2.60611
2.55125
2.35926
1
1.00001
1.00003
1.00005
1.00015
1.00027
1.00086
1.00159
1.00469
1.0098
1.0253
1.06787
1.15081
1.46458
2.2008
2.53494
2.63401
2.62601
2.61408
2.61089
2.60493
2.58808
2.55265
2.48756
2.29173
1
1.00001
1.00002
1.00004
1.00013
1.00024
1.00075
1.00136
1.00424
1.00811
1.02277
1.05355
1.12772
1.36548
2.00404
2.45765
2.61756
2.61112
2.6016
2.5918
2.58207
2.56109
2.51341
2.44781
2.28943
1
1.00001
1.00002
1.00003
1.00011
1.0002
1.00062
1.00113
1.0035
1.0066
1.01912
1.04136
1.10723
1.27232
1.81179
2.35097
2.5786
2.57576
2.57252
2.56058
2.5455
2.52024
2.47699
2.42298
2.30138
1
1
1.00001
1.00003
1.00009
1.00016
1.00049
1.0009
1.00276
1.00536
1.0147
1.03467
1.08251
1.23069
1.61652
2.27835
2.54088
2.55561
2.55385
2.54602
2.52611
2.49826
2.43663
2.3914
2.30165
1
1
1.00001
1.00003
1.00005
1.00016
1.0003
1.0009
1.00174
1.00479
1.01088
1.02637
1.07447
1.15913
1.50704
2.21594
2.45617
2.5206
2.51376
2.51107
2.5016
2.4815
2.43036
2.36741
2.29555
1
1
1.00001
1.00002
1.00004
1.00014
1.00024
1.00077
1.0014
1.00432
1.00834
1.02296
1.0554
1.1297
1.37446
2.00851
2.39218
2.5077
2.50124
2.48912
2.46342
2.44436
2.41518
2.35942
2.29221
1
1
1.00001
1.00002
1.00003
1.0001
1.00019
1.00059
1.00108
1.00329
1.00631
1.01796
1.03934
1.10122
1.25485
1.76349
2.24197
2.46576
2.47299
2.46801
2.45188
2.41953
2.38663
2.34054
2.28251
1
1
1.00001
1.00001
1.00003
1.00006
1.00018
1.00034
1.00103
1.00194