/*--------------------------------*- C++ -*----------------------------------*\
| =========                 |                                                 |
| \\      /  F ield         | OpenFOAM: The Open Source CFD Toolbox           |
|  \\    /   O peration     | Version:  4.1                                   |
|   \\  /    A nd           | Web:      www.OpenFOAM.org                      |
|    \\/     M anipulation  |                                                 |
\*---------------------------------------------------------------------------*/
FoamFile
{
    version     2.0;
    format      ascii;
    class       volScalarField;
    location    "7.28";
    object      p;
}
// * * * * * * * * * * * * * * * * * * * * * * * * * * * * * * * * * * * * * //

dimensions      [1 -1 -2 0 0 0 0];

internalField   nonuniform List<scalar> 
52500
(
1.00001
1.00004
1.00012
1.00027
1.00077
1.00158
1.00451
1.00901
1.02701
1.05008
1.17361
1.32034
2.1841
3.86304
9.38027
11.435
11.2314
11.0988
11.1756
11.3921
11.6297
11.7828
11.8985
11.9912
12.0642
1.00001
1.00003
1.00012
1.00026
1.00076
1.00157
1.00446
1.0089
1.0267
1.04944
1.17188
1.31595
2.17182
3.82836
9.29474
11.4313
11.2237
11.0866
11.1645
11.3823
11.6196
11.7725
11.8899
11.9841
12.0586
1.00001
1.00003
1.00012
1.00026
1.00074
1.00152
1.00435
1.00865
1.02608
1.048
1.16843
1.30687
2.14575
3.75423
9.10456
11.423
11.2039
11.0525
11.13
11.3464
11.5801
11.7298
11.8462
11.9391
12.0127
1.00001
1.00003
1.00011
1.00025
1.00071
1.00146
1.00417
1.00825
1.02517
1.04552
1.16348
1.29303
2.10592
3.64059
8.80657
11.4153
11.1749
10.9979
11.0727
11.2839
11.5112
11.6548
11.767
11.8566
11.9298
1.00001
1.00003
1.00011
1.00023
1.00067
1.00138
1.00395
1.00778
1.02392
1.0429
1.15547
1.27529
2.0552
3.48477
8.40133
11.4113
11.1376
10.9244
10.9949
11.1977
11.4156
11.5505
11.6563
11.7413
11.8148
1.00001
1.00003
1.0001
1.00022
1.00063
1.00129
1.00369
1.00726
1.02239
1.03999
1.14539
1.25504
1.98442
3.29163
7.87759
11.415
11.0972
10.8339
10.8979
11.0877
11.2926
11.4144
11.5085
11.5844
11.6574
1.00001
1.00003
1.00009
1.0002
1.00058
1.0012
1.00342
1.00677
1.02058
1.03731
1.13281
1.23461
1.88762
3.06547
7.22411
11.4253
11.058
10.7276
10.7819
10.952
11.1383
11.2398
11.3139
11.3712
11.4359
1.00001
1.00002
1.00008
1.00019
1.00054
1.00111
1.00314
1.00634
1.01849
1.03575
1.11591
1.21536
1.77456
2.81343
6.46129
11.4188
11.0183
10.6117
10.6517
10.7924
10.952
11.0233
11.0632
11.0817
11.1183
1
1.00002
1.00008
1.00017
1.00048
1.00099
1.0028
1.00567
1.01638
1.03221
1.10054
1.19257
1.66077
2.54833
5.61006
11.3152
10.9356
10.4883
10.5078
10.6058
10.7279
10.7555
10.7415
10.6825
10.6238
1
1.00002
1.00007
1.00014
1.00042
1.00087
1.00246
1.00497
1.01441
1.02829
1.08858
1.16827
1.57829
2.34948
5.05254
10.8817
10.7352
10.3716
10.3441
10.3929
10.4587
10.4362
10.3403
10.1188
9.78234
1.00001
1.00004
1.00013
1.00027
1.00078
1.00159
1.00452
1.00902
1.02702
1.0501
1.17362
1.32041
2.18415
3.86329
9.38074
11.4351
11.2314
11.0989
11.1757
11.3922
11.6298
11.7829
11.8987
11.9913
12.0644
1.00001
1.00004
1.00012
1.00027
1.00077
1.00157
1.00447
1.00891
1.02671
1.04946
1.17189
1.31602
2.17187
3.82862
9.29523
11.4314
11.2237
11.0867
11.1646
11.3824
11.6197
11.7726
11.89
11.9842
12.0588
1.00001
1.00004
1.00012
1.00026
1.00075
1.00153
1.00435
1.00867
1.02609
1.04803
1.16843
1.30695
2.14578
3.75449
9.10505
11.4231
11.2039
11.0526
11.1301
11.3465
11.5802
11.7299
11.8463
11.9392
12.0129
1.00001
1.00004
1.00012
1.00025
1.00072
1.00146
1.00417
1.00826
1.02518
1.04554
1.1635
1.29308
2.106
3.64085
8.8071
11.4153
11.1749
10.998
11.0728
11.284
11.5113
11.6549
11.7672
11.8567
11.93
1.00001
1.00003
1.00011
1.00024
1.00068
1.00138
1.00395
1.00779
1.02394
1.04292
1.1555
1.27534
2.05527
3.48505
8.4019
11.4113
11.1377
10.9245
10.995
11.1977
11.4157
11.5506
11.6565
11.7415
11.8149
1.00001
1.00003
1.0001
1.00022
1.00063
1.0013
1.0037
1.00727
1.0224
1.04001
1.14542
1.2551
1.9845
3.29191
7.87821
11.415
11.0972
10.834
10.898
11.0878
11.2927
11.4145
11.5086
11.5845
11.6575
1.00001
1.00003
1.0001
1.00021
1.00059
1.0012
1.00343
1.00679
1.02059
1.03734
1.13281
1.2347
1.88764
3.06573
7.22471
11.4252
11.0581
10.7277
10.782
10.9521
11.1384
11.2399
11.314
11.3713
11.436
1.00001
1.00003
1.00009
1.00019
1.00054
1.00111
1.00315
1.00635
1.0185
1.03577
1.11592
1.21542
1.77461
2.81367
6.46189
11.4188
11.0183
10.6118
10.6518
10.7925
10.9521
11.0234
11.0633
11.0818
11.1184
1.00001
1.00002
1.00008
1.00017
1.00049
1.001
1.00281
1.00568
1.01639
1.03222
1.10056
1.19262
1.66084
2.54856
5.61069
11.3153
10.9357
10.4883
10.5078
10.6059
10.728
10.7556
10.7416
10.6826
10.6239
1
1.00002
1.00007
1.00015
1.00043
1.00087
1.00247
1.00498
1.01442
1.02831
1.0886
1.16831
1.57833
2.34964
5.05286
10.882
10.7354
10.3717
10.3442
10.393
10.4588
10.4363
10.3404
10.1189
9.7824
1.00001
1.00004
1.00013
1.00027
1.00078
1.00159
1.00452
1.00902
1.02702
1.0501
1.17362
1.32041
2.18415
3.86331
9.38079
11.4351
11.2314
11.0989
11.1757
11.3922
11.6298
11.7829
11.8987
11.9913
12.0644
1.00001
1.00004
1.00012
1.00027
1.00077
1.00157
1.00447
1.00891
1.02671
1.04946
1.17189
1.31603
2.17187
3.82864
9.29528
11.4314
11.2237
11.0867
11.1646
11.3824
11.6197
11.7727
11.8901
11.9842
12.0588
1.00001
1.00004
1.00012
1.00026
1.00075
1.00153
1.00435
1.00867
1.02609
1.04803
1.16843
1.30695
2.14579
3.75451
9.1051
11.423
11.2039
11.0526
11.1301
11.3465
11.5803
11.7299
11.8463
11.9392
12.0129
1.00001
1.00004
1.00012
1.00025
1.00072
1.00146
1.00417
1.00826
1.02519
1.04554
1.1635
1.29309
2.106
3.64087
8.80716
11.4153
11.1749
10.998
11.0728
11.284
11.5113
11.6549
11.7672
11.8567
11.93
1.00001
1.00003
1.00011
1.00024
1.00068
1.00138
1.00395
1.00779
1.02394
1.04292
1.1555
1.27535
2.05528
3.48507
8.40196
11.4113
11.1377
10.9245
10.995
11.1978
11.4157
11.5506
11.6565
11.7415
11.8149
1.00001
1.00003
1.0001
1.00022
1.00063
1.0013
1.0037
1.00727
1.0224
1.04001
1.14542
1.2551
1.98451
3.29193
7.87827
11.415
11.0972
10.8341
10.898
11.0878
11.2927
11.4145
11.5086
11.5845
11.6575
1.00001
1.00003
1.0001
1.00021
1.00059
1.0012
1.00343
1.00679
1.02059
1.03734
1.13281
1.2347
1.88765
3.06576
7.22478
11.4252
11.0581
10.7278
10.782
10.9521
11.1384
11.2399
11.314
11.3713
11.4361
1.00001
1.00003
1.00009
1.00019
1.00054
1.00111
1.00315
1.00635
1.0185
1.03577
1.11592
1.21543
1.77462
2.81369
6.46196
11.4188
11.0183
10.6118
10.6518
10.7925
10.9522
11.0234
11.0633
11.0818
11.1184
1.00001
1.00002
1.00008
1.00017
1.00049
1.001
1.00281
1.00568
1.01639
1.03222
1.10056
1.19262
1.66085
2.54858
5.61076
11.3153
10.9357
10.4883
10.5078
10.6059
10.728
10.7556
10.7416
10.6826
10.6239
1
1.00002
1.00007
1.00015
1.00043
1.00087
1.00247
1.00498
1.01442
1.02831
1.0886
1.16831
1.57833
2.34965
5.05289
10.882
10.7354
10.3717
10.3442
10.393
10.4588
10.4363
10.3404
10.1189
9.78241
1.00001
1.00004
1.00013
1.00027
1.00078
1.00159
1.00452
1.00902
1.02702
1.0501
1.17362
1.32041
2.18416
3.86331
9.38079
11.4351
11.2314
11.0989
11.1757
11.3922
11.6298
11.7829
11.8987
11.9913
12.0644
1.00001
1.00004
1.00012
1.00027
1.00077
1.00157
1.00447
1.00891
1.02671
1.04946
1.17189
1.31603
2.17187
3.82864
9.29528
11.4314
11.2237
11.0867
11.1646
11.3824
11.6197
11.7727
11.8901
11.9842
12.0588
1.00001
1.00004
1.00012
1.00026
1.00075
1.00153
1.00435
1.00867
1.02609
1.04803
1.16843
1.30695
2.14579
3.75451
9.1051
11.423
11.2039
11.0526
11.1301
11.3465
11.5803
11.7299
11.8463
11.9392
12.0129
1.00001
1.00004
1.00012
1.00025
1.00072
1.00146
1.00417
1.00826
1.02519
1.04554
1.1635
1.29309
2.106
3.64088
8.80716
11.4153
11.1749
10.998
11.0728
11.284
11.5113
11.6549
11.7672
11.8567
11.93
1.00001
1.00003
1.00011
1.00024
1.00068
1.00138
1.00395
1.00779
1.02394
1.04292
1.1555
1.27535
2.05528
3.48507
8.40196
11.4113
11.1377
10.9245
10.995
11.1978
11.4157
11.5506
11.6565
11.7415
11.8149
1.00001
1.00003
1.0001
1.00022
1.00063
1.0013
1.0037
1.00727
1.0224
1.04001
1.14542
1.2551
1.98451
3.29193
7.87828
11.415
11.0972
10.8341
10.898
11.0878
11.2927
11.4145
11.5086
11.5845
11.6575
1.00001
1.00003
1.0001
1.00021
1.00059
1.0012
1.00343
1.00679
1.02059
1.03734
1.13281
1.2347
1.88765
3.06576
7.22479
11.4252
11.0581
10.7278
10.782
10.9521
11.1384
11.2399
11.314
11.3713
11.4361
1.00001
1.00003
1.00009
1.00019
1.00054
1.00111
1.00315
1.00635
1.0185
1.03577
1.11592
1.21543
1.77462
2.8137
6.46196
11.4188
11.0183
10.6118
10.6518
10.7925
10.9522
11.0234
11.0633
11.0818
11.1184
1.00001
1.00002
1.00008
1.00017
1.00049
1.001
1.00281
1.00568
1.01639
1.03222
1.10056
1.19262
1.66085
2.54858
5.61077
11.3153
10.9357
10.4883
10.5078
10.6059
10.728
10.7556
10.7416
10.6826
10.6239
1
1.00002
1.00007
1.00015
1.00043
1.00087
1.00247
1.00498
1.01442
1.02831
1.0886
1.16831
1.57833
2.34965
5.0529
10.882
10.7354
10.3717
10.3442
10.393
10.4588
10.4363
10.3404
10.1189
9.78241
1.00001
1.00004
1.00013
1.00027
1.00078
1.00159
1.00452
1.00902
1.02702
1.0501
1.17362
1.32041
2.18416
3.86332
9.3808
11.4351
11.2314
11.099
11.1757
11.3922
11.6298
11.7829
11.8987
11.9913
12.0644
1.00001
1.00004
1.00012
1.00027
1.00077
1.00157
1.00447
1.00891
1.02671
1.04946
1.17189
1.31603
2.17187
3.82864
9.29529
11.4314
11.2237
11.0867
11.1646
11.3824
11.6197
11.7727
11.8901
11.9842
12.0588
1.00001
1.00004
1.00012
1.00026
1.00075
1.00153
1.00435
1.00867
1.02609
1.04803
1.16843
1.30695
2.14579
3.75451
9.10511
11.423
11.2039
11.0526
11.1301
11.3465
11.5803
11.7299
11.8463
11.9392
12.0129
1.00001
1.00004
1.00012
1.00025
1.00072
1.00146
1.00417
1.00826
1.02519
1.04554
1.1635
1.29309
2.10601
3.64088
8.80717
11.4153
11.1749
10.998
11.0728
11.284
11.5113
11.6549
11.7672
11.8567
11.93
1.00001
1.00003
1.00011
1.00024
1.00068
1.00139
1.00395
1.00779
1.02394
1.04292
1.1555
1.27535
2.05528
3.48507
8.40197
11.4113
11.1377
10.9245
10.995
11.1978
11.4157
11.5506
11.6565
11.7415
11.8149
1.00001
1.00003
1.0001
1.00022
1.00063
1.0013
1.0037
1.00727
1.0224
1.04001
1.14542
1.2551
1.98451
3.29194
7.87829
11.415
11.0972
10.8341
10.898
11.0878
11.2927
11.4145
11.5086
11.5845
11.6575
1.00001
1.00003
1.0001
1.00021
1.00059
1.0012
1.00343
1.00679
1.02059
1.03734
1.13281
1.2347
1.88765
3.06576
7.2248
11.4252
11.0581
10.7278
10.782
10.9521
11.1384
11.2399
11.314
11.3713
11.4361
1.00001
1.00003
1.00009
1.00019
1.00054
1.00111
1.00315
1.00635
1.0185
1.03577
1.11592
1.21543
1.77462
2.8137
6.46198
11.4188
11.0183
10.6118
10.6518
10.7925
10.9522
11.0234
11.0633
11.0818
11.1184
1.00001
1.00002
1.00008
1.00017
1.00049
1.001
1.00281
1.00568
1.01639
1.03222
1.10056
1.19262
1.66086
2.54859
5.61078
11.3153
10.9357
10.4883
10.5078
10.6059
10.728
10.7556
10.7416
10.6826
10.6239
1
1.00002
1.00007
1.00015
1.00043
1.00087
1.00247
1.00498
1.01442
1.02831
1.0886
1.16831
1.57834
2.34966
5.0529
10.882
10.7354
10.3717
10.3442
10.393
10.4588
10.4363
10.3404
10.1189
9.78241
1.00001
1.00004
1.00013
1.00027
1.00078
1.00159
1.00452
1.00902
1.02702
1.0501
1.17362
1.32041
2.18416
3.86332
9.38081
11.4351
11.2314
11.099
11.1757
11.3922
11.6298
11.7829
11.8987
11.9913
12.0644
1.00001
1.00004
1.00012
1.00027
1.00077
1.00157
1.00447
1.00891
1.02671
1.04946
1.17189
1.31603
2.17187
3.82864
9.29529
11.4314
11.2237
11.0867
11.1646
11.3824
11.6197
11.7727
11.8901
11.9842
12.0588
1.00001
1.00004
1.00012
1.00026
1.00075
1.00153
1.00435
1.00867
1.02609
1.04803
1.16843
1.30695
2.14579
3.75451
9.10512
11.423
11.2039
11.0526
11.1301
11.3465
11.5803
11.7299
11.8463
11.9392
12.0129
1.00001
1.00004
1.00012
1.00025
1.00072
1.00146
1.00417
1.00826
1.02519
1.04554
1.1635
1.29309
2.10601
3.64088
8.80718
11.4153
11.1749
10.998
11.0728
11.284
11.5113
11.6549
11.7672
11.8567
11.93
1.00001
1.00003
1.00011
1.00024
1.00068
1.00139
1.00395
1.00779
1.02394
1.04292
1.1555
1.27535
2.05528
3.48507
8.40198
11.4113
11.1377
10.9245
10.995
11.1978
11.4157
11.5506
11.6565
11.7415
11.8149
1.00001
1.00003
1.0001
1.00022
1.00063
1.0013
1.0037
1.00727
1.0224
1.04001
1.14542
1.2551
1.98451
3.29194
7.87829
11.415
11.0972
10.8341
10.898
11.0878
11.2927
11.4145
11.5086
11.5845
11.6575
1.00001
1.00003
1.0001
1.00021
1.00059
1.0012
1.00343
1.00679
1.02059
1.03734
1.13281
1.2347
1.88766
3.06576
7.22481
11.4252
11.0581
10.7278
10.782
10.9521
11.1384
11.2399
11.314
11.3713
11.4361
1.00001
1.00003
1.00009
1.00019
1.00054
1.00111
1.00315
1.00635
1.0185
1.03577
1.11592
1.21543
1.77462
2.8137
6.46198
11.4188
11.0183
10.6118
10.6518
10.7925
10.9522
11.0234
11.0633
11.0818
11.1184
1.00001
1.00002
1.00008
1.00017
1.00049
1.001
1.00281
1.00568
1.01639
1.03222
1.10056
1.19262
1.66086
2.54859
5.61079
11.3153
10.9357
10.4883
10.5078
10.6059
10.728
10.7556
10.7416
10.6826
10.6239
1
1.00002
1.00007
1.00015
1.00043
1.00087
1.00247
1.00498
1.01442
1.02831
1.0886
1.16831
1.57834
2.34966
5.05291
10.882
10.7354
10.3717
10.3442
10.393
10.4588
10.4363
10.3404
10.1189
9.78241
1.00001
1.00004
1.00013
1.00027
1.00078
1.00159
1.00452
1.00902
1.02702
1.0501
1.17362
1.32041
2.18416
3.86331
9.3808
11.4351
11.2314
11.099
11.1757
11.3922
11.6298
11.7829
11.8987
11.9913
12.0644
1.00001
1.00004
1.00012
1.00027
1.00077
1.00157
1.00447
1.00891
1.02671
1.04946
1.17189
1.31603
2.17187
3.82864
9.29528
11.4314
11.2237
11.0867
11.1646
11.3824
11.6197
11.7727
11.8901
11.9842
12.0588
1.00001
1.00004
1.00012
1.00026
1.00075
1.00153
1.00435
1.00867
1.02609
1.04803
1.16843
1.30695
2.14579
3.75451
9.10511
11.423
11.2039
11.0526
11.1301
11.3465
11.5803
11.7299
11.8463
11.9392
12.0129
1.00001
1.00004
1.00012
1.00025
1.00072
1.00146
1.00417
1.00826
1.02519
1.04554
1.1635
1.29309
2.106
3.64088
8.80717
11.4153
11.1749
10.998
11.0728
11.284
11.5113
11.6549
11.7672
11.8567
11.93
1.00001
1.00003
1.00011
1.00024
1.00068
1.00138
1.00395
1.00779
1.02394
1.04292
1.1555
1.27535
2.05528
3.48507
8.40197
11.4113
11.1377
10.9245
10.995
11.1978
11.4157
11.5506
11.6565
11.7415
11.8149
1.00001
1.00003
1.0001
1.00022
1.00063
1.0013
1.0037
1.00727
1.0224
1.04001
1.14542
1.2551
1.98451
3.29193
7.87828
11.415
11.0972
10.8341
10.898
11.0878
11.2927
11.4145
11.5086
11.5845
11.6575
1.00001
1.00003
1.0001
1.00021
1.00059
1.0012
1.00343
1.00679
1.02059
1.03734
1.13281
1.2347
1.88765
3.06576
7.22479
11.4252
11.0581
10.7278
10.782
10.9521
11.1384
11.2399
11.314
11.3713
11.4361
1.00001
1.00003
1.00009
1.00019
1.00054
1.00111
1.00315
1.00635
1.0185
1.03577
1.11592
1.21543
1.77462
2.8137
6.46197
11.4188
11.0183
10.6118
10.6518
10.7925
10.9522
11.0234
11.0633
11.0818
11.1184
1.00001
1.00002
1.00008
1.00017
1.00049
1.001
1.00281
1.00568
1.01639
1.03222
1.10056
1.19262
1.66085
2.54858
5.61077
11.3153
10.9357
10.4883
10.5078
10.6059
10.728
10.7556
10.7416
10.6826
10.6239
1
1.00002
1.00007
1.00015
1.00043
1.00087
1.00247
1.00498
1.01442
1.02831
1.0886
1.16831
1.57833
2.34965
5.0529
10.882
10.7354
10.3717
10.3442
10.393
10.4588
10.4363
10.3404
10.1189
9.78241
1.00001
1.00004
1.00013
1.00027
1.00078
1.00159
1.00452
1.00902
1.02702
1.0501
1.17362
1.32041
2.18415
3.86331
9.38079
11.4351
11.2314
11.0989
11.1757
11.3922
11.6298
11.7829
11.8987
11.9913
12.0644
1.00001
1.00004
1.00012
1.00027
1.00077
1.00157
1.00447
1.00891
1.02671
1.04946
1.17189
1.31603
2.17187
3.82864
9.29528
11.4314
11.2237
11.0867
11.1646
11.3824
11.6197
11.7727
11.8901
11.9842
12.0588
1.00001
1.00004
1.00012
1.00026
1.00075
1.00153
1.00435
1.00867
1.02609
1.04803
1.16843
1.30695
2.14579
3.75451
9.1051
11.423
11.2039
11.0526
11.1301
11.3465
11.5803
11.7299
11.8463
11.9392
12.0129
1.00001
1.00004
1.00012
1.00025
1.00072
1.00146
1.00417
1.00826
1.02519
1.04554
1.1635
1.29309
2.106
3.64087
8.80716
11.4153
11.1749
10.998
11.0728
11.284
11.5113
11.6549
11.7672
11.8567
11.93
1.00001
1.00003
1.00011
1.00024
1.00068
1.00138
1.00395
1.00779
1.02394
1.04292
1.1555
1.27535
2.05528
3.48507
8.40196
11.4113
11.1377
10.9245
10.995
11.1978
11.4157
11.5506
11.6565
11.7415
11.8149
1.00001
1.00003
1.0001
1.00022
1.00063
1.0013
1.0037
1.00727
1.0224
1.04001
1.14542
1.2551
1.98451
3.29193
7.87827
11.415
11.0972
10.8341
10.898
11.0878
11.2927
11.4145
11.5086
11.5845
11.6575
1.00001
1.00003
1.0001
1.00021
1.00059
1.0012
1.00343
1.00679
1.02059
1.03734
1.13281
1.2347
1.88765
3.06576
7.22478
11.4252
11.0581
10.7278
10.782
10.9521
11.1384
11.2399
11.314
11.3713
11.4361
1.00001
1.00003
1.00009
1.00019
1.00054
1.00111
1.00315
1.00635
1.0185
1.03577
1.11592
1.21543
1.77462
2.81369
6.46196
11.4188
11.0183
10.6118
10.6518
10.7925
10.9522
11.0234
11.0633
11.0818
11.1184
1.00001
1.00002
1.00008
1.00017
1.00049
1.001
1.00281
1.00568
1.01639
1.03222
1.10056
1.19262
1.66085
2.54858
5.61076
11.3153
10.9357
10.4883
10.5078
10.6059
10.728
10.7556
10.7416
10.6826
10.6239
1
1.00002
1.00007
1.00015
1.00043
1.00087
1.00247
1.00498
1.01442
1.02831
1.0886
1.16831
1.57833
2.34965
5.05289
10.882
10.7354
10.3717
10.3442
10.393
10.4588
10.4363
10.3404
10.1189
9.78241
1.00001
1.00004
1.00013
1.00027
1.00078
1.00159
1.00452
1.00902
1.02702
1.0501
1.17362
1.32041
2.18415
3.86329
9.38074
11.4351
11.2314
11.0989
11.1757
11.3922
11.6298
11.7829
11.8987
11.9913
12.0644
1.00001
1.00004
1.00012
1.00027
1.00077
1.00157
1.00447
1.00891
1.02671
1.04946
1.17189
1.31602
2.17187
3.82862
9.29523
11.4314
11.2237
11.0867
11.1646
11.3824
11.6197
11.7726
11.89
11.9842
12.0588
1.00001
1.00004
1.00012
1.00026
1.00075
1.00153
1.00435
1.00867
1.02609
1.04803
1.16843
1.30695
2.14578
3.75449
9.10505
11.4231
11.2039
11.0526
11.1301
11.3465
11.5802
11.7299
11.8463
11.9392
12.0129
1.00001
1.00004
1.00012
1.00025
1.00072
1.00146
1.00417
1.00826
1.02518
1.04554
1.1635
1.29308
2.106
3.64085
8.8071
11.4153
11.1749
10.998
11.0728
11.284
11.5113
11.6549
11.7672
11.8567
11.93
1.00001
1.00003
1.00011
1.00024
1.00068
1.00138
1.00395
1.00779
1.02394
1.04292
1.1555
1.27534
2.05527
3.48505
8.4019
11.4113
11.1377
10.9245
10.995
11.1977
11.4157
11.5506
11.6565
11.7415
11.8149
1.00001
1.00003
1.0001
1.00022
1.00063
1.0013
1.0037
1.00727
1.0224
1.04001
1.14542
1.2551
1.9845
3.29191
7.87821
11.415
11.0972
10.834
10.898
11.0878
11.2927
11.4145
11.5086
11.5845
11.6575
1.00001
1.00003
1.0001
1.00021
1.00059
1.0012
1.00343
1.00679
1.02059
1.03734
1.13281
1.2347
1.88764
3.06573
7.22471
11.4252
11.0581
10.7277
10.782
10.9521
11.1384
11.2399
11.314
11.3713
11.436
1.00001
1.00003
1.00009
1.00019
1.00054
1.00111
1.00315
1.00635
1.0185
1.03577
1.11592
1.21542
1.77461
2.81367
6.46189
11.4188
11.0183
10.6118
10.6518
10.7925
10.9521
11.0234
11.0633
11.0818
11.1184
1.00001
1.00002
1.00008
1.00017
1.00049
1.001
1.00281
1.00568
1.01639
1.03222
1.10056
1.19262
1.66084
2.54856
5.61069
11.3153
10.9357
10.4883
10.5078
10.6059
10.728
10.7556
10.7416
10.6826
10.6239
1
1.00002
1.00007
1.00015
1.00043
1.00087
1.00247
1.00498
1.01442
1.02831
1.0886
1.16831
1.57833
2.34964
5.05286
10.882
10.7354
10.3717
10.3442
10.393
10.4588
10.4363
10.3404
10.1189
9.7824
1.00001
1.00004
1.00012
1.00027
1.00077
1.00158
1.00451
1.00901
1.02701
1.05008
1.17361
1.32034
2.1841
3.86303
9.38026
11.435
11.2314
11.0988
11.1756
11.3921
11.6297
11.7828
11.8985
11.9912
12.0642
1.00001
1.00003
1.00012
1.00026
1.00076
1.00157
1.00446
1.0089
1.0267
1.04944
1.17188
1.31595
2.17182
3.82836
9.29474
11.4313
11.2237
11.0866
11.1645
11.3823
11.6196
11.7725
11.8899
11.9841
12.0586
1.00001
1.00003
1.00012
1.00026
1.00074
1.00152
1.00435
1.00865
1.02608
1.048
1.16843
1.30687
2.14575
3.75423
9.10456
11.423
11.2039
11.0525
11.13
11.3464
11.5801
11.7298
11.8462
11.9391
12.0127
1.00001
1.00003
1.00011
1.00025
1.00071
1.00146
1.00417
1.00825
1.02517
1.04552
1.16348
1.29303
2.10592
3.64059
8.80656
11.4153
11.1749
10.9979
11.0727
11.2839
11.5112
11.6548
11.767
11.8566
11.9298
1.00001
1.00003
1.00011
1.00023
1.00067
1.00138
1.00395
1.00778
1.02392
1.0429
1.15547
1.27529
2.05519
3.48477
8.40132
11.4113
11.1376
10.9244
10.9949
11.1977
11.4156
11.5505
11.6563
11.7413
11.8148
1.00001
1.00003
1.0001
1.00022
1.00063
1.00129
1.00369
1.00726
1.02239
1.03999
1.14539
1.25504
1.98442
3.29163
7.87759
11.415
11.0972
10.8339
10.8979
11.0877
11.2926
11.4144
11.5085
11.5844
11.6574
1.00001
1.00003
1.00009
1.0002
1.00058
1.0012
1.00342
1.00677
1.02058
1.03731
1.13281
1.23461
1.88762
3.06547
7.2241
11.4253
11.058
10.7276
10.7819
10.952
11.1383
11.2398
11.3139
11.3712
11.4359
1.00001
1.00002
1.00008
1.00019
1.00054
1.00111
1.00314
1.00634
1.01849
1.03575
1.11591
1.21536
1.77456
2.81342
6.46128
11.4188
11.0183
10.6117
10.6517
10.7924
10.952
11.0233
11.0632
11.0817
11.1183
1
1.00002
1.00008
1.00017
1.00048
1.00099
1.0028
1.00567
1.01638
1.03221
1.10054
1.19257
1.66077
2.54833
5.61005
11.3152
10.9356
10.4883
10.5078
10.6058
10.7279
10.7555
10.7415
10.6825
10.6238
1
1.00002
1.00007
1.00014
1.00042
1.00087
1.00246
1.00497
1.01441
1.02829
1.08858
1.16827
1.57829
2.34948
5.05254
10.8817
10.7352
10.3716
10.3441
10.3929
10.4587
10.4362
10.3403
10.1188
9.78234
1
1.00002
1.00005
1.00015
1.00031
1.00089
1.0018
1.00516
1.01018
1.03121
1.05658
1.20041
1.37641
2.35638
4.3246
10.0602
10.4733
10.2966
10.1622
10.1664
10.1569
10.0721
9.82363
9.25002
7.81346
1
1.00002
1.00004
1.00013
1.00027
1.00078
1.00159
1.00452
1.00904
1.0269
1.05035
1.17149
1.3208
2.16262
3.79842
8.97442
10.3226
10.2038
9.9891
9.92959
9.85617
9.68172
9.29796
8.53108
7.0778
1
1.00001
1.00003
1.00011
1.00023
1.00065
1.00133
1.0038
1.00747
1.02296
1.041
1.14823
1.26061
1.99784
3.31318
7.76574
10.2169
10.1007
9.83266
9.68991
9.56381
9.31155
8.84472
8.08015
6.94021
1
1.00001
1.00003
1.00009
1.00019
1.00055
1.00113
1.00321
1.00641
1.0191
1.0354
1.12154
1.21765
1.80332
2.85367
6.46527
10.1295
10.0052
9.69095
9.45914
9.2798
8.99014
8.51393
7.81995
6.9241
1
1.00001
1.00002
1.00007
1.00016
1.00045
1.00093
1.00264
1.00534
1.01541
1.03037
1.09393
1.18252
1.60922
2.41923
5.09895
9.91424
9.85682
9.58294
9.25641
9.02594
8.72298
8.27058
7.6507
6.90223
1
1
1.00002
1.00005
1.00015
1.00031
1.00087
1.00177
1.00506
1.00998
1.03042
1.05532
1.19352
1.36501
2.2829
4.11099
9.22427
9.60961
9.43623
9.08388
8.81043
8.49862
8.07821
7.525
6.87216
1
1
1.00002
1.00004
1.00012
1.00025
1.00071
1.00144
1.00409
1.00815
1.02428
1.04501
1.15473
1.28195
2.02875
3.41421
7.76281
9.32616
9.22771
8.95885
8.63189
8.30837
7.91415
7.41883
6.84183
1
1
1.00001
1.00003
1.00009
1.00019
1.00054
1.00111
1.00316
1.00622
1.019
1.03407
1.12172
1.21387
1.79475
2.81443
6.24032
9.15616
9.10114
8.87645
8.49607
8.1573
7.77922
7.32761
6.80854
0.999998
1
1
1.00002
1.00005
1.00016
1.00034
1.00097
1.00195
1.00574
1.01063
1.03556
1.06033
1.22227
1.43508
2.40371
4.50772
8.81315
8.99908
8.81694
8.42196
8.03848
7.66644
7.24914
6.77628
0.999996
0.999998
1
1.00002
1.00004
1.00013
1.00026
1.00075
1.00153
1.00437
1.00861
1.02623
1.04738
1.16763
1.30337
2.10154
3.56851
7.87632
8.79438
8.67744
8.36322
7.93982
7.56443
7.17327
6.74375
0.999995
0.999996
1
1.00001
1.00003
1.00007
1.00022
1.00046
1.00131
1.00255
1.00795
1.01381
1.05038
1.08259
1.31772
1.63989
3.05694
6.19841
8.52513
8.48748
8.28582
7.86994
7.47845
7.10522
6.71086
0.999994
0.999994
0.999997
1
1.00002
1.00006
1.00017
1.00035
1.001
1.00202
1.00577
1.01125
1.03496
1.06193
1.22055
1.42426
2.39133
4.40224
8.09506
8.36105
8.21406
7.8545
7.42478
7.05211
6.68365
0.999993
0.999994
0.999995
1
1.00001
1.00005
1.0001
1.0003
1.00062
1.00177
1.00357
1.01023
1.02016
1.06166
1.11675
1.38405
1.86497
3.46766
7.05417
8.15198
8.07009
7.8197
7.39847
7.01574
6.66175
0.999992
0.999993
0.999994
0.999998
1.00001
1.00003
1.00007
1.00022
1.00045
1.00126
1.00256
1.0073
1.01416
1.04441
1.07829
1.28005
1.55942
2.77006
5.37182
7.84339
7.88051
7.74632
7.41055
7.00733
6.65061
0.999992
0.999992
0.999993
0.999995
1
1.00002
1.00006
1.00013
1.00037
1.00076
1.00215
1.00434
1.01237
1.02464
1.07257
1.14799
1.44485
2.02571
3.7495
7.18482
7.76477
7.67063
7.40797
7.01508
6.65267
0.999991
0.999992
0.999992
0.999994
0.999999
1.00001
1.00004
1.00009
1.00026
1.00053
1.00149
1.00302
1.00853
1.01681
1.05083
1.09414
1.31388
1.66533
2.97522
5.81261
7.53227
7.52058
7.38353
7.05247
6.66447
0.999991
0.999991
0.999992
0.999993
0.999996
1
1.00002
1.00007
1.00015
1.00042
1.00087
1.00243
1.00489
1.01392
1.02743
1.08243
1.16183
1.50642
2.15142
4.04043
7.05051
7.42402
7.33152
7.0861
6.69747
0.999991
0.999991
0.999991
0.999992
0.999994
1
1.00001
1.00004
1.0001
1.00029
1.00059
1.00165
1.00334
1.00937
1.01862
1.05486
1.10661
1.33261
1.73834
3.06216
5.93335
7.22127
7.20782
7.07539
6.77013
0.999991
0.999991
0.999991
0.999991
0.999993
0.999996
1.00001
1.00002
1.00007
1.00016
1.00045
1.00093
1.0026
1.00524
1.01492
1.02916
1.08889
1.17194
1.54739
2.23247
4.264
6.78037
7.10611
7.03071
6.82251
0.999991
0.999991
0.999991
0.999991
0.999992
0.999994
0.999999
1.00001
1.00004
1.00012
1.00025
1.0007
1.00143
1.004
1.00791
1.02334
1.04273
1.14295
1.2608
1.87087
2.9448
5.8122
6.91981
6.91512
6.8182
0.999991
0.99999
0.999991
0.999991
0.999991
0.999993
0.999996
1.00001
1.00002
1.00008
1.00016
1.00047
1.00095
1.00265
1.00535
1.01507
1.02973
1.08889
1.17284
1.54397
2.21113
4.16115
6.48706
6.83608
6.79512
0.999991
0.99999
0.99999
0.999991
0.999991
0.999992
0.999994
0.999999
1.00001
1.00004
1.00012
1.00025
1.00069
1.00141
1.00393
1.00778
1.02277
1.04189
1.1387
1.25357
1.83378
2.84883
5.54318
6.65947
6.75786
0.999991
0.99999
0.99999
0.99999
0.999991
0.999991
0.999993
0.999996
1.00001
1.00002
1.00007
1.00016
1.00045
1.00092
1.00254
1.00513
1.01433
1.02832
1.08359
1.16282
1.50255
2.11142
3.8436
6.21883
6.72391
0.999991
0.99999
0.99999
0.99999
0.999991
0.999991
0.999992
0.999994
1
1.00001
1.00004
1.0001
1.00028
1.00058
1.00159
1.00322
1.0089
1.01774
1.05097
1.10117
1.30061
1.66474
2.78391
5.18994
6.59385
0.999991
0.99999
0.99999
0.99999
0.99999
0.999991
0.999991
0.999992
0.999996
1
1.00002
1.00006
1.00017
1.00035
1.00097
1.00198
1.00545
1.01085
1.03119
1.05838
1.18507
1.36251
2.0735
3.44539
6.21968
0.999991
0.99999
0.99999
0.99999
0.99999
0.99999
0.999991
0.999992
0.999993
0.999999
1.00001
1.00004
1.00009
1.00026
1.00054
1.00148
1.003
1.00838
1.01661
1.0487
1.09347
1.28951
1.63489
2.74391
5.19106
0.999991
0.99999
0.99999
0.99999
0.99999
0.99999
0.999991
0.999991
0.999993
0.999995
1
1.00002
1.00007
1.00015
1.00042
1.00087
1.00243
1.00489
1.01389
1.02741
1.08211
1.16168
1.50704
2.15474
4.17665
0.999991
0.99999
0.99999
0.99999
0.99999
0.99999
0.99999
0.999991
0.999992
0.999995
0.999999
1.00001
1.00004
1.00013
1.00027
1.00078
1.00159
1.00451
1.00902
1.02693
1.05029
1.17151
1.32205
2.15558
3.77746
0.999991
0.99999
0.99999
0.99999
0.99999
0.99999
0.99999
0.999991
0.999991
0.999994
0.999997
1.00001
1.00003
1.0001
1.00022
1.00064
1.0013
1.00379
1.00729
1.02378
1.0412
1.1573
1.27865
2.11519
3.67055
0.999991
0.99999
0.99999
0.99999
0.99999
0.99999
0.99999
0.999991
0.999991
0.999993
0.999997
1
1.00003
1.00007
1.00021
1.00042
1.00138
1.00236
1.00894
1.01443
1.05846
1.09606
1.39829
1.84509
3.86326
0.999991
0.99999
0.99999
0.99999
0.99999
0.99999
0.99999
0.999991
0.999991
0.999993
0.999996
1.00001
1.00002
1.00008
1.00017
1.00053
1.00101
1.00335
1.00569
1.02195
1.03575
1.14558
1.25795
2.05355
3.53888
0.999991
0.99999
0.99999
0.99999
0.99999
0.99999
0.99999
0.999991
0.999991
0.999992
0.999996
1
1.00003
1.00006
1.0002
1.00041
1.00126
1.00231
1.0082
1.01357
1.05462
1.08908
1.37275
1.78562
3.68419
0.999991
0.99999
0.99999
0.99999
0.99999
0.99999
0.99999
0.999991
0.999991
0.999992
0.999996
1
1.00002
1.00006
1.00019
1.00039
1.0012
1.00223
1.00773
1.01291
1.05176
1.08414
1.35343
1.74172
3.55012
0.999991
0.99999
0.99999
0.99999
0.99999
0.99999
0.99999
0.999991
0.999991
0.999993
0.999995
1
1.00002
1.00007
1.00016
1.00048
1.00096
1.003
1.00539
1.01956
1.03243
1.12949
1.22807
1.92417
3.22664
0.999991
0.99999
0.99999
0.99999
0.99999
0.99999
0.99999
0.999991
0.999991
0.999992
0.999996
1
1.00002
1.00005
1.00017
1.00035
1.00111
1.00196
1.00725
1.01171
1.04724
1.0773
1.31854
1.66866
3.27024
0.999991
0.99999
0.99999
0.99999
0.99999
0.99999
0.99999
0.999991
0.999991
0.999993
0.999995
1
1.00002
1.00007
1.00016
1.00046
1.00094
1.00282
1.00536
1.01787
1.03091
1.11824
1.20907
1.82016
2.96892
0.999991
0.99999
0.99999
0.99999
0.99999
0.99999
0.99999
0.999991
0.999991
0.999992
0.999996
1
1.00002
1.00006
1.00018
1.00037
1.00108
1.00211
1.00672
1.01165
1.0441
1.07182
1.28856
1.59308
2.99425
0.999991
0.99999
0.99999
0.99999
0.99999
0.99999
0.99999
0.999991
0.999991
0.999992
0.999996
1
1.00002
1.00006
1.00018
1.00037
1.00108
1.00212
1.00663
1.01165
1.04305
1.07023
1.27835
1.56468
2.89111
0.999991
0.99999
0.99999
0.99999
0.99999
0.99999
0.99999
0.999991
0.999991
0.999993
0.999995
1
1.00002
1.00007
1.00016
1.00047
1.00097
1.00279
1.00563
1.01681
1.03197
1.10754
1.19982
1.72799
2.73944
0.999991
0.99999
0.99999
0.99999
0.99999
0.99999
0.99999
0.999991
0.999991
0.999993
0.999995
1
1.00002
1.00008
1.00016
1.00048
1.00099
1.00284
1.00574
1.01685
1.0331
1.10543
1.20236
1.71308
2.7078
1
1.00002
1.00005
1.00015
1.00032
1.00089
1.00181
1.00517
1.01019
1.03122
1.0566
1.20043
1.37648
2.35647
4.325
10.0607
10.4734
10.2967
10.1623
10.1665
10.157
10.0721
9.82372
9.2501
7.81353
1
1.00002
1.00005
1.00013
1.00028
1.00079
1.0016
1.00453
1.00905
1.02691
1.05038
1.17151
1.32088
2.1627
3.79874
8.97501
10.3226
10.2038
9.98916
9.92966
9.85625
9.6818
9.29805
8.53117
7.07787
1
1.00002
1.00004
1.00011
1.00023
1.00066
1.00134
1.00381
1.00748
1.02297
1.04102
1.14825
1.26067
1.99792
3.31347
7.76636
10.2169
10.1008
9.8327
9.68998
9.56389
9.31163
8.84481
8.08024
6.94029
1
1.00001
1.00003
1.0001
1.0002
1.00056
1.00114
1.00322
1.00643
1.01911
1.03543
1.12155
1.21772
1.80337
2.85392
6.46588
10.1295
10.0052
9.69099
9.45921
9.27988
8.99022
8.51402
7.82004
6.92418
1
1.00001
1.00003
1.00008
1.00016
1.00046
1.00094
1.00265
1.00535
1.01543
1.03039
1.09395
1.18257
1.60929
2.41946
5.09957
9.91426
9.85684
9.58298
9.25648
9.02603
8.72306
8.27066
7.65078
6.90232
1
1.00001
1.00002
1.00005
1.00015
1.00031
1.00088
1.00178
1.00507
1.01
1.03043
1.05535
1.19354
1.3651
2.28297
4.11125
9.22447
9.6097
9.43632
9.08397
8.81052
8.49871
8.07829
7.52508
6.87225
1
1.00001
1.00002
1.00004
1.00012
1.00026
1.00071
1.00145
1.0041
1.00816
1.0243
1.04504
1.15474
1.28203
2.02879
3.41445
7.76327
9.3263
9.22783
8.95894
8.63198
8.30845
7.91423
7.41891
6.84191
1
1
1.00002
1.00003
1.0001
1.0002
1.00055
1.00112
1.00317
1.00624
1.01901
1.03409
1.12174
1.21392
1.79479
2.81462
6.24069
9.1563
9.10126
8.87653
8.49614
8.15737
7.7793
7.32769
6.80862
1
1
1.00001
1.00003
1.00006
1.00017
1.00035
1.00098
1.00196
1.00575
1.01064
1.03557
1.06035
1.22231