/*--------------------------------*- C++ -*----------------------------------*\
| =========                 |                                                 |
| \\      /  F ield         | OpenFOAM: The Open Source CFD Toolbox           |
|  \\    /   O peration     | Version:  4.1                                   |
|   \\  /    A nd           | Web:      www.OpenFOAM.org                      |
|    \\/     M anipulation  |                                                 |
\*---------------------------------------------------------------------------*/
FoamFile
{
    version     2.0;
    format      ascii;
    class       volScalarField;
    location    "0.34";
    object      Ma;
}
// * * * * * * * * * * * * * * * * * * * * * * * * * * * * * * * * * * * * * //

dimensions      [0 0 0 0 0 0 0];

internalField   nonuniform List<scalar> 
18000
(
5.64015e-12
5.5753e-12
5.50024e-12
5.43681e-12
5.37423e-12
5.31244e-12
5.25148e-12
5.19144e-12
5.13232e-12
5.07471e-12
7.08746e-12
6.83258e-12
6.57838e-12
6.34407e-12
6.11992e-12
5.9054e-12
5.69994e-12
5.50323e-12
5.31452e-12
5.13605e-12
9.02081e-12
8.4587e-12
7.92903e-12
7.44556e-12
6.99754e-12
6.5821e-12
6.19673e-12
5.83859e-12
5.50558e-12
5.19835e-12
1.16433e-11
1.05862e-11
9.63628e-12
8.7908e-12
8.03479e-12
7.35702e-12
6.74793e-12
6.19953e-12
5.70494e-12
5.26181e-12
1.52608e-11
1.34067e-11
1.18143e-11
1.04459e-11
9.26695e-12
8.24666e-12
7.36059e-12
6.5886e-12
5.9134e-12
5.32661e-12
2.03437e-11
1.72002e-11
1.46242e-11
1.24981e-11
1.07382e-11
9.27169e-12
8.04303e-12
7.0081e-12
6.13138e-12
5.39221e-12
2.76311e-11
2.23852e-11
1.82906e-11
1.50642e-11
1.25052e-11
1.04571e-11
8.80457e-12
7.46073e-12
6.35965e-12
5.45898e-12
3.8324e-11
2.9589e-11
2.3136e-11
1.83029e-11
1.46444e-11
1.18399e-11
9.66513e-12
7.96057e-12
6.61069e-12
5.54154e-12
2.47647e-09
2.40128e-09
2.249e-09
2.11379e-09
1.99337e-09
1.88553e-09
1.78847e-09
1.70069e-09
1.621e-09
1.56419e-09
2.64986e-07
3.4839e-08
2.9591e-08
2.55174e-08
2.21433e-08
1.93217e-08
1.69429e-08
1.49231e-08
1.31559e-08
4.17727e-08
5.81296e-12
5.74352e-12
5.66746e-12
5.60014e-12
5.53406e-12
5.46926e-12
5.40494e-12
5.34207e-12
5.28015e-12
5.21958e-12
7.33522e-12
7.06363e-12
6.80274e-12
6.55465e-12
6.31812e-12
6.09195e-12
5.87606e-12
5.66967e-12
5.47232e-12
5.28432e-12
9.36954e-12
8.77208e-12
8.22622e-12
7.71442e-12
7.24163e-12
6.80423e-12
6.3993e-12
6.02367e-12
5.67504e-12
5.35095e-12
1.21475e-11
1.1025e-11
1.00379e-11
9.14045e-12
8.34035e-12
7.62495e-12
6.98381e-12
6.40812e-12
5.88925e-12
5.41929e-12
1.60081e-11
1.40366e-11
1.23665e-11
1.09068e-11
9.65402e-12
8.57355e-12
7.6379e-12
6.82514e-12
6.1157e-12
5.4901e-12
2.14815e-11
1.81237e-11
1.53946e-11
1.31127e-11
1.12331e-11
9.67348e-12
8.3717e-12
7.27886e-12
6.35552e-12
5.563e-12
2.94098e-11
2.37702e-11
1.93813e-11
1.58926e-11
1.31434e-11
1.09545e-11
9.19619e-12
7.77248e-12
6.60882e-12
5.63834e-12
4.11949e-11
3.17148e-11
2.47041e-11
1.94311e-11
1.54706e-11
1.24532e-11
1.01264e-11
8.31075e-12
6.8776e-12
5.71645e-12
7.02817e-11
1.04197e-10
8.36938e-11
6.80569e-11
5.61175e-11
4.68383e-11
3.95159e-11
3.36595e-11
2.89193e-11
2.5035e-11
1.67503e-07
2.71442e-08
2.35183e-08
2.05415e-08
1.80932e-08
1.60566e-08
1.43452e-08
1.2894e-08
1.16543e-08
1.08216e-08
4.25115e-13
4.01188e-13
2.41448e-13
2.24026e-13
2.08006e-13
1.93687e-13
1.81164e-13
1.70693e-13
1.61904e-13
1.50997e-13
5.87505e-13
5.15927e-13
4.45015e-13
3.95049e-13
3.49903e-13
3.09643e-13
2.74429e-13
2.44629e-13
2.20349e-13
1.69784e-13
6.91562e-13
5.83569e-13
5.99678e-13
5.26717e-13
4.62829e-13
4.08211e-13
3.62428e-13
3.24539e-13
2.92765e-13
1.9595e-13
8.88944e-13
7.74718e-13
8.55439e-13
7.40151e-13
6.42137e-13
5.60316e-13
4.92298e-13
4.36328e-13
3.88633e-13
2.3447e-13
1.21976e-12
1.13575e-12
1.22906e-12
1.0402e-12
8.84159e-13
7.5724e-13
6.5359e-13
5.68955e-13
4.97139e-13
2.79935e-13
1.77015e-12
1.74472e-12
1.76901e-12
1.4545e-12
1.20401e-12
1.00607e-12
8.48418e-13
7.22205e-13
6.17196e-13
3.31204e-13
2.68275e-12
2.72348e-12
2.55084e-12
2.02446e-12
1.6234e-12
1.31765e-12
1.08135e-12
8.97392e-13
7.4855e-13
3.86953e-13
4.22894e-12
4.28122e-12
3.69024e-12
2.81058e-12
2.17312e-12
1.70647e-12
1.35889e-12
1.0967e-12
8.91466e-13
4.46706e-13
8.71931e-11
6.41433e-12
5.14073e-12
3.77404e-12
2.82937e-12
2.16506e-12
1.68659e-12
1.33572e-12
1.06854e-12
5.52429e-13
1.45669e-07
1.09969e-09
7.98522e-10
6.07556e-10
4.70373e-10
3.69807e-10
2.94757e-10
2.37851e-10
1.94101e-10
1.60665e-10
3.8662e-13
3.61653e-13
1.72205e-13
1.51051e-13
1.30699e-13
1.11552e-13
9.36923e-14
7.73482e-14
6.28563e-14
3.67148e-14
5.33239e-13
4.60022e-13
3.86222e-13
3.3569e-13
2.89152e-13
2.47435e-13
2.10623e-13
1.7903e-13
1.5298e-13
7.94398e-14
5.96233e-13
4.88668e-13
5.23871e-13
4.55099e-13
3.94975e-13
3.43882e-13
3.01375e-13
2.6726e-13
2.39231e-13
1.1986e-13
7.28813e-13
6.33957e-13
7.60838e-13
6.5689e-13
5.68351e-13
4.95053e-13
4.34548e-13
3.85236e-13
3.43622e-13
1.71257e-13
9.55459e-13
9.42796e-13
1.10794e-12
9.40536e-13
8.01663e-13
6.88492e-13
5.96105e-13
5.20978e-13
4.57107e-13
2.25066e-13
1.33706e-12
1.4836e-12
1.60992e-12
1.33208e-12
1.10872e-12
9.31405e-13
7.89358e-13
6.75535e-13
5.8006e-13
2.81866e-13
1.96952e-12
2.3603e-12
2.33591e-12
1.87026e-12
1.51088e-12
1.23448e-12
1.01918e-12
8.50642e-13
7.13184e-13
3.41752e-13
3.02983e-12
3.75598e-12
3.39128e-12
2.6117e-12
2.03702e-12
1.61208e-12
1.29235e-12
1.04908e-12
8.57248e-13
4.04842e-13
9.30411e-11
6.1498e-12
4.93607e-12
3.63522e-12
2.72534e-12
2.08141e-12
1.61571e-12
1.27361e-12
1.01284e-12
4.71056e-13
1.46355e-07
3.54581e-10
1.61063e-11
1.04861e-11
7.22238e-12
5.10574e-12
3.69221e-12
2.72371e-12
2.04221e-12
1.32876e-12
3.86724e-13
3.61394e-13
1.72621e-13
1.51382e-13
1.30942e-13
1.11719e-13
9.39668e-14
7.759e-14
6.29257e-14
3.68271e-14
5.33819e-13
4.60395e-13
3.87106e-13
3.3647e-13
2.89862e-13
2.47922e-13
2.10994e-13
1.7946e-13
1.53324e-13
7.96101e-14
5.97469e-13
4.89911e-13
5.2555e-13
4.5645e-13
3.95968e-13
3.44821e-13
3.02129e-13
2.67737e-13
2.39521e-13
1.20111e-13
7.31411e-13
6.36769e-13
7.63477e-13
6.59138e-13
5.70082e-13
4.96428e-13
4.35705e-13
3.86124e-13
3.44257e-13
1.71463e-13
9.60331e-13
9.48038e-13
1.11255e-12
9.44115e-13
8.04532e-13
6.90877e-13
5.97893e-13
5.22248e-13
4.58098e-13
2.25784e-13
1.34607e-12
1.49277e-12
1.61746e-12
1.33812e-12
1.1134e-12
9.35143e-13
7.92365e-13
6.77862e-13
5.81901e-13
2.8305e-13
1.98587e-12
2.37653e-12
2.34903e-12
1.88033e-12
1.51869e-12
1.24065e-12
1.02402e-12
8.54333e-13
7.16209e-13
3.43834e-13
3.05928e-12
3.78525e-12
3.4137e-12
2.62859e-12
2.04993e-12
1.622e-12
1.30005e-12
1.05505e-12
8.61854e-13
4.08116e-13
9.41108e-11
6.22067e-12
4.98015e-12
3.66624e-12
2.74768e-12
2.09779e-12
1.62792e-12
1.28291e-12
1.02006e-12
4.7583e-13
1.51392e-07
3.66842e-10
8.06954e-12
5.0626e-12
3.64899e-12
2.69041e-12
2.02238e-12
1.54744e-12
1.19705e-12
5.54632e-13
3.86831e-13
3.61067e-13
1.73207e-13
1.51895e-13
1.31314e-13
1.1205e-13
9.41382e-14
7.78519e-14
6.32006e-14
3.68582e-14
5.3466e-13
4.60889e-13
3.88386e-13
3.3756e-13
2.908e-13
2.48675e-13
2.1156e-13
1.79838e-13
1.53781e-13
7.99761e-14
5.99317e-13
4.91734e-13
5.27857e-13
4.58375e-13
3.97586e-13
3.46044e-13
3.03096e-13
2.68406e-13
2.40054e-13
1.20533e-13
7.35218e-13
6.40899e-13
7.6727e-13
6.62239e-13
5.72652e-13
4.9835e-13
4.3713e-13
3.87317e-13
3.45038e-13
1.72043e-13
9.67835e-13
9.55639e-13
1.11885e-12
9.49153e-13
8.08484e-13
6.94132e-13
6.00457e-13
5.24242e-13
4.59634e-13
2.26799e-13
1.36036e-12
1.50636e-12
1.62824e-12
1.34651e-12
1.11992e-12
9.40344e-13
7.96495e-13
6.80993e-13
5.84474e-13
2.84852e-13
2.01266e-12
2.40036e-12
2.36746e-12
1.89443e-12
1.52951e-12
1.24915e-12
1.03068e-12
8.59501e-13
7.20293e-13
3.46696e-13
3.10991e-12
3.8281e-12
3.44575e-12
2.65219e-12
2.06762e-12
1.63549e-12
1.31051e-12
1.06318e-12
8.68128e-13
4.12411e-13
9.67205e-11
6.30351e-12
5.03592e-12
3.70582e-12
2.77642e-12
2.11918e-12
1.64397e-12
1.2951e-12
1.02944e-12
4.82294e-13
1.61313e-07
3.82032e-10
8.17429e-12
5.11647e-12
3.68793e-12
2.71887e-12
2.04369e-12
1.56368e-12
1.20948e-12
5.62791e-13
3.86856e-13
3.60748e-13
1.73865e-13
1.52517e-13
1.31899e-13
1.12552e-13
9.45474e-14
7.80704e-14
6.33768e-14
3.71693e-14
5.35666e-13
4.61577e-13
3.89974e-13
3.38851e-13
2.91937e-13
2.4971e-13
2.12444e-13
1.80503e-13
1.54037e-13
8.03401e-14
6.01599e-13
4.93942e-13
5.306e-13
4.60699e-13
3.99515e-13
3.47631e-13
3.04219e-13
2.69293e-13
2.40711e-13
1.20999e-13
7.39892e-13
6.45871e-13
7.71848e-13
6.65969e-13
5.75746e-13
5.00849e-13
4.38975e-13
3.88676e-13
3.46249e-13
1.72892e-13
9.77066e-13
9.64937e-13
1.12643e-12
9.55208e-13
8.13315e-13
6.98089e-13
6.03622e-13
5.26685e-13
4.61507e-13
2.28244e-13
1.37797e-12
1.52266e-12
1.64119e-12
1.35672e-12
1.12792e-12
9.46707e-13
8.01607e-13
6.85015e-13
5.87583e-13
2.8718e-13
2.0458e-12
2.42925e-12
2.38965e-12
1.91152e-12
1.54271e-12
1.25951e-12
1.03897e-12
8.65935e-13
7.2534e-13
3.50405e-13
3.1724e-12
3.8798e-12
3.48446e-12
2.68099e-12
2.08929e-12
1.65205e-12
1.32347e-12
1.07321e-12
8.75897e-13
4.17888e-13
1.01429e-10
6.40264e-12
5.10349e-12
3.75422e-12
2.81175e-12
2.14542e-12
1.66386e-12
1.31004e-12
1.04103e-12
4.90213e-13
1.77724e-07
4.06286e-10
8.30338e-12
5.19377e-12
3.74274e-12
2.75852e-12
2.07308e-12
1.5858e-12
1.22604e-12
5.74012e-13
3.86954e-13
3.59968e-13
1.74483e-13
1.53032e-13
1.32523e-13
1.13322e-13
9.56626e-14
8.28963e-14
1.24038e-13
3.63799e-13
5.36637e-13
4.61802e-13
3.91364e-13
3.40149e-13
2.93148e-13
2.50943e-13
2.1374e-13
1.82995e-13
1.68812e-13
2.48928e-13
6.03814e-13
4.9546e-13
5.3302e-13
4.62847e-13
4.0145e-13
3.49499e-13
3.06201e-13
2.71457e-13
2.47287e-13
2.00233e-13
7.44633e-13
6.4961e-13
7.7576e-13
6.69303e-13
5.78589e-13
5.03507e-13
4.41754e-13
3.91492e-13
3.51005e-13
2.1182e-13
9.86297e-13
9.72133e-13
1.1328e-12
9.60556e-13
8.17772e-13
7.01896e-13
6.07475e-13
5.3057e-13
4.66494e-13
2.51546e-13
1.39492e-12
1.53554e-12
1.65184e-12
1.36549e-12
1.1351e-12
9.52943e-13
8.07561e-13
6.90721e-13
5.93611e-13
3.04713e-13
2.07637e-12
2.45231e-12
2.40785e-12
1.92608e-12
1.55446e-12
1.26934e-12
1.04784e-12
8.7446e-13
7.33256e-13
3.65809e-13
3.22308e-12
3.92106e-12
3.51589e-12
2.70553e-12
2.10856e-12
1.66756e-12
1.33683e-12
1.08571e-12
8.87155e-13
4.33192e-13
8.97787e-11
6.42408e-12
5.15744e-12
3.79512e-12
2.84301e-12
2.16996e-12
1.68411e-12
1.32784e-12
1.0565e-12
5.06768e-13
1.70598e-07
3.11365e-10
8.10138e-12
5.25751e-12
3.79104e-12
2.79555e-12
2.10226e-12
1.61033e-12
1.24749e-12
5.93244e-13
3.87684e-13
4.02679e-13
2.1473e-13
1.59573e-13
1.52847e-13
3.06439e-13
6.05618e-13
2.22003e-12
9.28215e-12
3.03129e-11
5.42088e-13
5.37872e-13
4.38374e-13
3.55955e-13
2.93029e-13
3.40712e-13
5.39806e-13
1.46506e-12
5.39301e-12
1.93686e-11
6.16713e-13
6.2834e-13
6.03232e-13
4.95671e-13
4.02416e-13
3.80188e-13
5.60809e-13
1.07001e-12
3.39639e-12
1.23288e-11
7.64278e-13
8.28387e-13
8.61267e-13
7.14067e-13
5.85679e-13
5.06678e-13
5.87762e-13
8.82605e-13
2.31321e-12
8.1776e-12
1.00923e-12
1.17363e-12
1.22542e-12
1.01121e-12
8.29756e-13
6.95226e-13
6.75699e-13
8.38034e-13
1.72048e-12
5.65014e-12
1.41094e-12
1.73516e-12
1.74074e-12
1.41319e-12
1.1459e-12
9.40987e-13
8.32145e-13
9.38173e-13
1.41569e-12
4.05654e-12
2.06449e-12
2.62586e-12
2.47737e-12
1.95916e-12
1.55568e-12
1.24995e-12
1.04651e-12
1.03105e-12
1.32637e-12
3.02032e-12
3.12916e-12
4.03472e-12
3.54253e-12
2.70743e-12
2.08904e-12
1.63475e-12
1.31743e-12
1.17528e-12
1.34701e-12
2.33291e-12
1.07967e-11
6.23371e-12
5.10587e-12
3.74301e-12
2.78769e-12
2.11465e-12
1.64785e-12
1.37178e-12
1.39483e-12
1.87396e-12
1.08978e-08
3.40391e-10
6.92223e-12
5.11635e-12
3.67977e-12
2.70578e-12
2.04359e-12
1.61876e-12
1.47761e-12
1.57582e-12
2.53268e-12
2.38989e-12
1.53156e-12
1.55142e-13
2.64298e-12
8.46543e-12
2.45916e-11
8.73731e-11
3.74752e-10
8.03084e-10
3.56662e-12
3.45663e-12
2.56641e-12
1.17568e-12
1.31874e-12
6.16816e-12
1.82326e-11
5.7899e-11
2.18597e-10
4.90619e-10
4.83376e-12
4.72004e-12
3.74557e-12
2.33952e-12
2.99371e-13
4.07115e-12
1.32795e-11
4.02996e-11
1.37866e-10
3.16737e-10
6.49216e-12
6.29916e-12
5.14785e-12
3.63725e-12
1.4732e-12
2.26984e-12
9.59997e-12
2.90093e-11
9.21901e-11
2.12812e-10
8.70442e-12
8.3072e-12
6.84505e-12
5.12138e-12
2.88659e-12
7.81473e-13
6.69868e-12
2.12166e-11
6.42694e-11
1.47816e-10
1.17121e-11
1.09041e-11
8.9361e-12
6.84576e-12
4.41128e-12
1.28262e-12
4.34147e-12
1.54675e-11
4.61691e-11
1.05594e-10
1.58874e-11
1.4333e-11
1.15575e-11
8.88652e-12
6.09913e-12
2.8155e-12
2.38653e-12
1.13009e-11
3.37876e-11
7.7229e-11
2.18341e-11
1.8946e-11
1.48982e-11
1.13459e-11
7.99613e-12
4.43991e-12
1.14668e-12
8.06954e-12
2.50334e-11
5.75922e-11
9.56367e-11
2.52758e-11
1.92356e-11
1.43554e-11
1.01703e-11
6.16873e-12
1.92082e-12
5.49109e-12
1.87358e-11
4.36277e-11
4.3234e-07
6.73954e-10
2.49447e-11
1.80775e-11
1.26869e-11
8.02122e-12
3.43159e-12
3.44357e-12
1.40552e-11
3.34312e-11
3.41079e-12
3.06711e-12
2.02627e-12
1.93322e-12
8.30435e-12
2.84203e-11
1.09878e-10
5.40328e-10
1.55516e-09
1.95297e-09
4.52265e-12
4.2132e-12
3.21729e-12
1.67654e-12
5.19692e-12
1.96616e-11
7.09524e-11
3.06491e-10
8.99781e-10
1.08939e-09
5.87649e-12
5.54253e-12
4.55808e-12
2.81674e-12
2.79965e-12
1.3165e-11
4.74631e-11
1.87595e-10
5.50567e-10
6.49685e-10
7.61197e-12
7.1532e-12
6.07943e-12
4.34969e-12
1.9781e-12
8.37654e-12
3.23978e-11
1.21206e-10
3.51597e-10
4.0722e-10
9.892e-12
9.15687e-12
7.85487e-12
6.04773e-12
3.21777e-12
4.78956e-12
2.20931e-11
8.12132e-11
2.32627e-10
2.65846e-10
1.29614e-11
1.171e-11
9.98414e-12
7.939e-12
5.0562e-12
2.51024e-12
1.46385e-11
5.55512e-11
1.58529e-10
1.7943e-10
1.7192e-11
1.50389e-11
1.26028e-11
1.0103e-11
7.05277e-12
2.84574e-12
9.23702e-12
3.83777e-11
1.10355e-10
1.24511e-10
2.31734e-11
1.94768e-11
1.58988e-11
1.26433e-11
9.20452e-12
4.76761e-12
5.21278e-12
2.64734e-11
7.80895e-11
8.8295e-11
8.22429e-11
2.54821e-11
2.0135e-11
1.56991e-11
1.15856e-11
6.94551e-12
2.71349e-12
1.80056e-11
5.59274e-11
6.35659e-11
8.08944e-08
4.04824e-09
2.72718e-11
1.94281e-11
1.42669e-11
9.19098e-12
3.14215e-12
1.17852e-11
4.02968e-11
4.61786e-11
1.01194e-12
1.26553e-12
1.53824e-12
3.23855e-12
8.5945e-12
2.53976e-11
8.85648e-11
3.133e-10
5.33797e-10
1.19343e-10
1.09418e-12
1.26386e-12
1.40175e-12
2.44981e-12
6.10141e-12
1.76369e-11
5.85014e-11
1.94773e-10
3.1084e-10
1.16443e-10
1.1798e-12
1.30178e-12
1.38988e-12
1.97518e-12
4.3678e-12
1.23537e-11
3.95843e-11
1.25449e-10
1.88751e-10
9.25411e-11
1.26702e-12
1.36668e-12
1.45469e-12
1.77867e-12
3.21777e-12
8.71118e-12
2.72804e-11
8.32468e-11
1.18757e-10
6.99328e-11
1.35829e-12
1.44734e-12
1.55415e-12
1.7596e-12
2.52956e-12
6.19298e-12
1.90711e-11
5.66096e-11
7.69206e-11
5.24164e-11
1.45835e-12
1.54062e-12
1.66646e-12
1.82977e-12
2.20225e-12
4.48148e-12
1.3431e-11
3.93682e-11
5.10181e-11
3.97587e-11
1.57183e-12
1.64525e-12
1.78377e-12
1.93847e-12
2.11616e-12
3.37479e-12
9.50692e-12
2.76851e-11
3.45641e-11
3.07533e-11
1.71071e-12
1.76336e-12
1.90638e-12
2.05913e-12
2.15733e-12
2.74601e-12
6.80489e-12
1.96802e-11
2.37755e-11
2.43079e-11
2.19147e-10
2.70862e-12
2.03455e-12
2.18534e-12
2.2567e-12
2.46461e-12
4.96201e-12
1.41177e-11
1.64661e-11
1.9638e-11
1.39455e-07
3.96307e-09
5.98056e-12
2.30375e-12
2.37172e-12
2.39333e-12
3.74004e-12
1.01913e-11
1.13928e-11
1.60866e-11
7.91083e-13
1.50225e-12
1.60882e-12
2.51996e-12
4.15154e-12
7.16851e-12
1.48186e-11
5.36923e-11
2.69057e-10
8.29689e-10
7.26056e-13
1.34959e-12
1.39496e-12
2.15032e-12
3.48763e-12
5.92124e-12
1.13302e-11
3.34504e-11
1.62657e-10
4.57982e-10
6.63266e-13
1.20666e-12
1.20114e-12
1.82613e-12
2.92403e-12
4.8827e-12
8.89174e-12
2.22322e-11
1.02276e-10
2.7019e-10
6.09683e-13
1.08493e-12
1.04017e-12
1.56256e-12
2.46705e-12
4.06282e-12
7.14532e-12
1.57273e-11
6.66253e-11
1.68024e-10
5.63608e-13
9.80712e-13
9.05017e-13
1.34177e-12
2.09415e-12
3.41146e-12
5.83647e-12
1.17144e-11
4.46757e-11
1.08893e-10
5.24044e-13
8.91678e-13
7.91477e-13
1.16062e-12
1.79238e-12
2.88105e-12
4.83221e-12
9.06999e-12
3.07096e-11
7.29778e-11
4.89869e-13
8.1477e-13
6.95684e-13
1.00873e-12
1.53915e-12
2.44702e-12
4.05002e-12
7.22631e-12
2.15736e-11
5.02848e-11
4.73374e-13
7.48087e-13
6.14867e-13
8.80287e-13
1.32978e-12
2.09379e-12
3.42267e-12
5.88883e-12
1.5448e-11
3.54747e-11
3.58874e-10
5.69493e-12
5.46857e-13
7.72256e-13
1.15558e-12
1.80197e-12
2.91178e-12
4.88049e-12
1.12599e-11
2.55395e-11
1.38411e-07
1.33137e-08
3.60235e-11
6.4509e-13
1.00181e-12
1.55098e-12
2.48352e-12
4.0855e-12
8.32436e-12
1.8699e-11
1.0661e-12
1.85824e-12
1.61943e-12
2.17408e-12
3.02851e-12
4.39222e-12
6.97726e-12
1.3668e-11
5.24937e-11
1.43532e-10
9.92818e-13
1.70387e-12
1.45181e-12
1.93866e-12
2.67775e-12
3.82352e-12
5.81778e-12
1.04808e-11
3.73046e-11
8.98703e-11
9.21594e-13
1.55554e-12
1.29029e-12
1.71351e-12
2.35204e-12
3.32561e-12
4.91207e-12
8.18245e-12
2.65526e-11
5.92603e-11
8.59506e-13
1.42642e-12
1.15174e-12
1.51913e-12
2.07431e-12
2.90841e-12
4.21693e-12
6.61232e-12
1.91102e-11
4.06161e-11
8.05597e-13
1.31374e-12
1.03252e-12
1.35224e-12
1.83824e-12
2.55924e-12
3.66341e-12
5.5022e-12
1.38925e-11
2.86685e-11
7.58485e-13
1.21506e-12
9.29324e-13
1.20877e-12
1.63286e-12
2.26098e-12
3.21189e-12
4.6829e-12
1.01966e-11
2.07012e-11
7.17061e-13
1.12807e-12
8.39992e-13
1.08439e-12
1.45602e-12
2.00721e-12
2.8321e-12
4.0499e-12
7.54866e-12
1.52252e-11
6.97272e-13
1.05113e-12
7.62416e-13
9.76213e-13
1.3025e-12
1.78661e-12
2.50678e-12
3.54186e-12
5.63632e-12
1.13665e-11
5.35207e-10
1.01267e-11
6.98893e-13
8.81986e-13
1.16907e-12
1.59479e-12
2.22942e-12
3.12039e-12
4.24387e-12
8.58194e-12
1.70228e-07
2.35301e-08
8.86545e-11
9.13875e-13
1.04425e-12
1.4249e-12
1.98417e-12
2.75669e-12
3.20547e-12
6.52685e-12
1.48177e-12
2.35126e-12
1.63024e-12
1.90274e-12
2.28382e-12
2.8295e-12
3.80383e-12
5.96273e-12
1.59159e-11
2.47641e-11
1.40147e-12
2.20018e-12
1.51371e-12
1.76987e-12
2.12299e-12
2.60393e-12
3.36608e-12
4.87933e-12
1.22982e-11
1.89742e-11
1.32143e-12
2.05019e-12
1.39109e-12
1.6281e-12
1.95407e-12
2.38522e-12
3.01356e-12
4.10346e-12
9.36411e-12
1.45564e-11
1.25066e-12
1.91605e-12
1.28029e-12
1.49853e-12
1.79959e-12
2.19275e-12
2.7353e-12
3.55888e-12
7.12962e-12
1.12701e-11
1.18804e-12
1.7959e-12
1.18085e-12
1.3809e-12
1.65944e-12
2.02052e-12
2.50516e-12
3.16284e-12
5.42967e-12
8.77993e-12
1.1324e-12
1.68779e-12
1.09173e-12
1.27494e-12
1.53092e-12
1.86463e-12
2.30401e-12
2.85888e-12
4.13343e-12
6.87108e-12
1.08284e-12
1.59064e-12
1.01175e-12
1.17892e-12
1.41388e-12
1.72234e-12
2.12822e-12
2.611e-12
3.14597e-12
5.39104e-12
1.05686e-12
1.50286e-12
9.3983e-13
1.092e-12
1.30755e-12
1.59253e-12
1.96848e-12
2.40271e-12
2.39038e-12
4.2387e-12
7.0481e-10
1.49503e-11
8.81719e-13
1.0131e-12
1.21061e-12
1.4736e-12
1.82243e-12
2.21975e-12
1.81114e-12
3.3371e-12
1.38002e-07
3.26433e-08
1.40739e-10
1.20435e-12
1.11267e-12
1.36216e-12
1.6834e-12
2.04956e-12
1.35712e-12
2.61813e-12
2.09468e-12
2.98532e-12
1.5854e-12
1.60436e-12
1.66602e-12
1.79883e-12
2.14686e-12
2.96258e-12
6.7004e-12
8.38923e-12
2.00927e-12
2.84713e-12
1.52668e-12
1.56211e-12
1.63252e-12
1.74534e-12
1.99091e-12
2.54289e-12
5.4325e-12
6.99392e-12
1.92361e-12
2.70523e-12
1.45115e-12
1.49915e-12
1.579e-12
1.6853e-12
1.87213e-12
2.24191e-12
4.29443e-12
5.72958e-12
1.84615e-12
2.57428e-12
1.37742e-12
1.43389e-12
1.52123e-12
1.62784e-12
1.78473e-12
2.03985e-12
3.37807e-12
4.69241e-12
1.77618e-12
2.45356e-12
1.30655e-12
1.36919e-12
1.4621e-12
1.57118e-12
1.71386e-12
1.90225e-12
2.63927e-12
3.84254e-12
1.71281e-12
2.34232e-12
1.23971e-12
1.30533e-12
1.4017e-12
1.51425e-12
1.65298e-12
1.80235e-12
2.04346e-12
3.14159e-12
1.65538e-12
2.23994e-12
1.17665e-12
1.24347e-12
1.34131e-12
1.45644e-12
1.59521e-12
1.72456e-12
1.55959e-12
2.56226e-12
1.62145e-12
2.1456e-12
1.11748e-12
1.18435e-12
1.28232e-12
1.39836e-12
1.53764e-12
1.65906e-12
1.16875e-12
2.08207e-12
8.71607e-10
1.93702e-11
1.06997e-12
1.12763e-12
1.22486e-12
1.34104e-12
1.48069e-12
1.60011e-12
8.54471e-13
1.68358e-12
4.2502e-08
3.75364e-08
3.20113e-10
9.36105e-13
1.15825e-12
1.28221e-12
1.41983e-12
1.53863e-12
5.90658e-13
1.35018e-12
2.9386e-12
3.71313e-12
1.41198e-12
1.21441e-12
1.06793e-12
1.00317e-12
1.13648e-12
1.54157e-12
3.38227e-12
3.78839e-12
2.85355e-12
3.60279e-12
1.4132e-12
1.24885e-12
1.1208e-12
1.03661e-12
1.07928e-12
1.33517e-12
2.89986e-12
3.36004e-12
2.76775e-12
3.48504e-12
1.39194e-12
1.2581e-12
1.15184e-12
1.06656e-12
1.05626e-12
1.19171e-12
2.38941e-12
2.88729e-12
2.68845e-12
3.37231e-12
1.3631e-12
1.25512e-12
1.16998e-12
1.09289e-12
1.0569e-12
1.10742e-12
1.95161e-12
2.47635e-12
2.61522e-12
3.26523e-12
1.33043e-12
1.24427e-12
1.17813e-12
1.11327e-12
1.06847e-12
1.0667e-12
1.57638e-12
2.11915e-12
2.5476e-12
3.16363e-12
1.29478e-12
1.22704e-12
1.17797e-12
1.12692e-12
1.08394e-12
1.05273e-12
1.25404e-12
1.80837e-12
2.48526e-12
3.06776e-12
1.25763e-12
1.20541e-12
1.17139e-12
1.13396e-12
1.09848e-12
1.05319e-12
9.78541e-13
1.53821e-12
2.44561e-12
2.97741e-12
1.22001e-12
1.18093e-12
1.15949e-12
1.13476e-12
1.10898e-12
1.06066e-12
7.4314e-13
1.30477e-12
1.05095e-09
2.24288e-11
1.19263e-12
1.15422e-12
1.14387e-12
1.13041e-12
1.11453e-12
1.07015e-12
5.43018e-13
1.10407e-12
6.77392e-08
3.56637e-08
3.1068e-10
1.19122e-12
1.11658e-12
1.11982e-12
1.11306e-12
1.07509e-12
3.67799e-13
9.35345e-13
3.96645e-12
4.42761e-12
1.08805e-12
7.60469e-13
4.95117e-13
3.49336e-13
4.86125e-13
7.94217e-13
2.0461e-12
2.07053e-12
3.88784e-12
4.35837e-12
1.1339e-12
8.42611e-13
6.0048e-13
4.19847e-13
4.30052e-13
6.49732e-13
1.87964e-12
1.95882e-12
3.80971e-12
4.28202e-12
1.15718e-12
9.00848e-13
6.84598e-13
4.99488e-13
4.26454e-13
5.41621e-13
1.63641e-12
1.7638e-12
3.73583e-12
4.20468e-12
1.16882e-12
9.43597e-13
7.51316e-13
5.74173e-13
4.59066e-13
4.76758e-13
1.41942e-12
1.5876e-12
3.66591e-12
4.12826e-12
1.17224e-12
9.74418e-13
8.04954e-13
6.40616e-13
5.09062e-13
4.55236e-13
1.22604e-12
1.4282e-12
3.60067e-12
4.05315e-12
1.16896e-12
9.96134e-13
8.47911e-13
6.98581e-13
5.64351e-13
4.67295e-13
1.05533e-12
1.28516e-12
3.53922e-12
3.97982e-12
1.16082e-12
1.01028e-12
8.81024e-13
7.47548e-13
6.18476e-13
4.9966e-13
9.0637e-13
1.15776e-12
3.49855e-12
3.90923e-12
1.14911e-12
1.01825e-12
9.06421e-13
7.88313e-13
6.6829e-13
5.42165e-13
7.78347e-13
1.04503e-12
1.21702e-09
2.36423e-11
1.14869e-12
1.02128e-12
9.25871e-13
8.21973e-13
7.12266e-13
5.87717e-13
6.71261e-13
9.46752e-13
1.88671e-07
2.56728e-08
2.84174e-10
1.65759e-12
9.35008e-13
8.47494e-13
7.4944e-13
6.2969e-13
5.84878e-13
8.6682e-13
4.98003e-12
4.98609e-12
7.38359e-13
4.98601e-13
2.72048e-13
1.52744e-13
2.67243e-13
4.60877e-13
1.47236e-12
1.32861e-12
4.91165e-12
4.96195e-12
7.69195e-13
5.36223e-13
3.10837e-13
1.24616e-13
1.63913e-13
3.56855e-13
1.46277e-12
1.34877e-12
4.84594e-12
4.93357e-12
7.91622e-13
5.72548e-13
3.60422e-13
1.62171e-13
7.67115e-14
2.58113e-13
1.35659e-12
1.27434e-12
4.78221e-12
4.90011e-12
8.0974e-13
6.05599e-13
4.10108e-13
2.20168e-13
4.51872e-14
1.67118e-13
1.26008e-12
1.20554e-12
4.72144e-12
4.86387e-12
8.23955e-13
6.35819e-13
4.57163e-13
2.8045e-13
1.08084e-13
8.70157e-14
1.17185e-12
1.14179e-12
4.66311e-12
4.82523e-12
8.34584e-13
6.6202e-13
4.99932e-13
3.37064e-13
1.76116e-13
4.14927e-14
1.09189e-12
1.08345e-12
4.60759e-12
4.78549e-12
8.41898e-13
6.84397e-13
5.38067e-13
3.89035e-13
2.38917e-13
8.43761e-14
1.02052e-12
1.03019e-12
4.57112e-12
4.74579e-12
8.45893e-13
7.02785e-13
5.71443e-13
4.354e-13
2.95923e-13
1.45754e-13
9.57035e-13
9.82191e-13
1.34501e-09
2.31846e-11
8.69088e-13
7.18057e-13
6.00469e-13
4.76637e-13
3.48019e-13
2.04933e-13
9.01623e-13
9.3886e-13
2.98497e-07
1.24447e-08
1.81803e-10
1.40973e-12
6.24637e-13
5.13305e-13
3.9503e-13
2.6064e-13
8.53918e-13
9.09302e-13
5.64085e-12
5.27565e-12
5.95394e-13
6.05894e-13
5.10582e-13
4.41235e-13
4.00547e-13
4.04418e-13
1.23468e-12
1.01649e-12
5.57961e-12
5.28133e-12
5.30741e-13
5.45427e-13
4.57908e-13
3.93457e-13
3.55085e-13
3.64586e-13
1.29861e-12
1.09374e-12
5.52313e-12
5.28648e-12
4.75003e-13
4.91403e-13
4.10729e-13
3.48906e-13
3.12067e-13
3.22581e-13
1.25664e-12
1.07108e-12
5.46805e-12
5.28539e-12
4.31623e-13
4.45911e-13
3.7044e-13
3.11008e-13
2.73701e-13
2.83984e-13
1.2166e-12
1.04869e-12
5.41452e-12
5.27938e-12
3.99627e-13
4.09473e-13
3.38939e-13
2.80304e-13
2.40667e-13
2.48466e-13
1.17856e-12
1.02779e-12
5.36335e-12
5.27004e-12
3.77837e-13
3.80905e-13
3.14033e-13
2.55795e-13
2.1349e-13
2.17464e-13
1.14242e-12
1.00749e-12
5.31388e-12
5.25761e-12
3.63453e-13
3.58877e-13
2.95937e-13
2.38477e-13
1.93296e-13
1.90142e-13
1.10807e-12
9.88753e-13
5.28234e-12
5.24368e-12
3.54996e-13
3.42407e-13
2.83551e-13
2.27077e-13
1.78577e-13
1.68162e-13
1.07581e-12
9.70237e-13
1.41419e-09
2.20799e-11
3.97124e-13
3.30813e-13
2.75822e-13
2.21377e-13
1.71461e-13
1.52151e-13
1.04449e-12
9.526e-13
3.66246e-07
9.30303e-09
1.32027e-10
9.13932e-13
2.71908e-13
2.23431e-13
1.74792e-13
1.49534e-13
1.01613e-12
9.66621e-13
5.64654e-12
5.24636e-12
5.97913e-13
6.31369e-13
5.40239e-13
4.66207e-13
4.1214e-13
3.97105e-13
1.16594e-12
9.7022e-13
5.58513e-12
5.25432e-12
5.16053e-13
5.62005e-13
4.8368e-13
4.18906e-13
3.71674e-13
3.65189e-13
1.23982e-12
1.05137e-12
5.52894e-12
5.26235e-12
4.43442e-13
4.98181e-13
4.3049e-13
3.7333e-13
3.31703e-13
3.28689e-13
1.20571e-12
1.03216e-12
5.47415e-12
5.26392e-12
3.8308e-13
4.41848e-13
3.83053e-13
3.32393e-13
2.95019e-13
2.95104e-13
1.17305e-12
1.0133e-12
5.42132e-12
5.26085e-12
3.35485e-13
3.94334e-13
3.42481e-13
2.96262e-13
2.61956e-13
2.63744e-13
1.14167e-12
9.95673e-13
5.37054e-12
5.25401e-12
2.99784e-13
3.54412e-13
3.08168e-13
2.65552e-13
2.32793e-13
2.34857e-13
1.11183e-12
9.78925e-13
5.32152e-12
5.24402e-12
2.7472e-13
3.21371e-13
2.7963e-13
2.39732e-13
2.07824e-13
2.08937e-13
1.0831e-12
9.63036e-13
5.29036e-12
5.23234e-12
2.5913e-13
2.94923e-13
2.5673e-13
2.18842e-13
1.86666e-13
1.86004e-13
1.05597e-12
9.47792e-13
1.41419e-09
2.20784e-11
3.0985e-13
2.7422e-13
2.3908e-13
2.03208e-13
1.71113e-13
1.66823e-13
1.0294e-12
9.33101e-13
3.66246e-07
9.30303e-09
1.32005e-10
8.68689e-13
2.25409e-13
1.96055e-13
1.65642e-13
1.58608e-13
1.00496e-12
9.60602e-13
4.9884e-12
4.90615e-12
6.85017e-13
5.14381e-13
3.33308e-13
2.28135e-13
2.62451e-13
3.98368e-13
1.23568e-12
1.17645e-12
4.92177e-12
4.89037e-12
6.93692e-13
5.21136e-13
3.35938e-13
1.94604e-13
1.82633e-13
3.14258e-13
1.25908e-12
1.2084e-12
4.8581e-12
4.87092e-12
7.03632e-13
5.35805e-13
3.56539e-13
1.97685e-13
1.18682e-13
2.2972e-13
1.18158e-12
1.14647e-12
4.79655e-12
4.84586e-12
7.142e-13
5.53684e-13
3.84951e-13
2.24547e-13
9.02128e-14
1.51151e-13
1.11095e-12
1.08947e-12
4.73773e-12
4.81787e-12
7.25022e-13
5.73322e-13
4.17039e-13
2.63456e-13
1.14523e-13
8.10872e-14
1.04645e-12
1.03739e-12
4.68117e-12
4.787e-12
7.3476e-13
5.92942e-13
4.49718e-13
3.05955e-13
1.61604e-13
3.6226e-14
9.88672e-13
9.90364e-13
4.62727e-12
4.75444e-12
7.42749e-13
6.11109e-13
4.80881e-13
3.47959e-13
2.12473e-13
6.98195e-14
9.37142e-13
9.48046e-13
4.59236e-12
4.72105e-12
7.48855e-13
6.27434e-13
5.09699e-13
3.87463e-13
2.61446e-13
1.24105e-13
8.91566e-13
9.1013e-13
1.34501e-09
2.31827e-11
7.75192e-13
6.4174e-13
5.35844e-13
4.24246e-13
3.0758e-13
1.77485e-13
8.52202e-13
8.77176e-13
2.98497e-07
1.24447e-08
1.81763e-10
1.33927e-12
5.58304e-13
4.57752e-13
3.50432e-13
2.29052e-13
8.18736e-13
8.67775e-13
3.971e-12
4.32593e-12
9.57645e-13
6.5488e-13
3.94629e-13
2.1749e-13
3.33544e-13
6.08448e-13
1.52381e-12
1.74034e-12
3.89834e-12
4.27308e-12
1.00648e-12
7.33424e-13
4.98282e-13
3.06603e-13
2.92164e-13
4.91992e-13
1.43351e-12
1.66132e-12
3.82596e-12
4.21148e-12
1.03682e-12
7.93925e-13
5.8377e-13
3.97035e-13
3.04957e-13
4.02579e-13
1.25711e-12
1.49846e-12
3.75625e-12
4.14762e-12
1.05619e-12
8.40129e-13
6.52914e-13
4.77388e-13
3.5157e-13
3.52759e-13
1.09848e-12
1.35116e-12
3.69039e-12
4.08309e-12
1.06801e-12
8.76436e-13
7.09982e-13
5.47934e-13
4.11459e-13
3.45085e-13
9.57284e-13
1.21865e-12
3.62806e-12
4.01861e-12
1.07308e-12
9.03513e-13
7.56606e-13
6.0944e-13
4.73621e-13
3.68734e-13
8.3354e-13
1.10058e-12
3.56929e-12
3.95498e-12
1.07319e-12
9.23447e-13
7.94195e-13
6.61751e-13
5.32118e-13
4.10513e-13
7.26631e-13
9.9648e-13
3.53083e-12
3.8929e-12
1.06875e-12
9.37315e-13
8.24494e-13
7.06137e-13
5.85637e-13
4.59247e-13
6.37486e-13
9.05368e-13
1.21703e-09
2.36442e-11
1.07479e-12
9.46599e-13
8.48533e-13
7.43547e-13
6.33156e-13
5.09105e-13
5.65615e-13
8.27532e-13
1.88671e-07
2.56728e-08
2.84145e-10
1.59982e-12
8.62985e-13
7.73049e-13
6.73542e-13
5.54849e-13
5.11535e-13
7.70768e-13
2.94522e-12
3.62226e-12
1.25233e-12
1.03698e-12
8.76953e-13
7.89182e-13
8.64718e-13
1.1584e-12
2.24247e-12
3.02984e-12
2.86978e-12
3.53433e-12
1.27499e-12
1.09064e-12
9.47377e-13
8.458e-13
8.50125e-13
1.02703e-12
1.95731e-12
2.71038e-12
2.79131e-12
3.43528e-12
1.27335e-12
1.11858e-12
9.96108e-13
8.95538e-13
8.57989e-13
9.38996e-13
1.61468e-12
2.33079e-12
2.7176e-12
3.33839e-12
1.26226e-12
1.13267e-12
1.03006e-12
9.38138e-13
8.80959e-13
8.95486e-13
1.31422e-12
1.99893e-12
2.6486e-12
3.24433e-12
1.24461e-12
1.13747e-12
1.05299e-12
9.72903e-13
9.10996e-13
8.83392e-13
1.05416e-12
1.70925e-12
2.58427e-12
3.15399e-12
1.2225e-12
1.13434e-12
1.0668e-12
9.99921e-13
9.41373e-13
8.90611e-13
8.28583e-13
1.4568e-12
2.52441e-12
3.06722e-12
1.19725e-12
1.12564e-12
1.07279e-12
1.0188e-12
9.68001e-13
9.07635e-13
6.33189e-13
1.23805e-12
2.48645e-12
2.98486e-12
1.16984e-12
1.11244e-12
1.07294e-12
1.03118e-12
9.89344e-13
9.28362e-13
4.64488e-13
1.0497e-12
1.05096e-09
2.24346e-11
1.15063e-12
1.09612e-12
1.06793e-12
1.03762e-12
1.00574e-12
9.48998e-13
3.21684e-13
8.89051e-13
6.77392e-08
3.56637e-08
3.10661e-10
1.14702e-12
1.05104e-12
1.03721e-12
1.01416e-12
9.64059e-13
1.94248e-13
7.56613e-13
2.11436e-12
2.92674e-12
1.42964e-12
1.38637e-12
1.38802e-12
1.44615e-12
1.64769e-12
2.13282e-12
3.88632e-12
6.26027e-12
2.03833e-12
2.81316e-12
1.40373e-12
1.38154e-12
1.39567e-12
1.44506e-12
1.58552e-12
1.91138e-12
3.22207e-12
5.2733e-12
1.95865e-12
2.68961e-12
1.35581e-12
1.35107e-12
1.37779e-12
1.42773e-12
1.53477e-12
1.75058e-12
2.57019e-12
4.33558e-12
1.88523e-12
2.57307e-12
1.3045e-12
1.31343e-12
1.35107e-12
1.40613e-12
1.49867e-12
1.64477e-12
2.03357e-12
3.56027e-12
1.8182e-12
2.46386e-12
1.25206e-12
1.27189e-12
1.31899e-12
1.38021e-12
1.46896e-12
1.57502e-12
1.59446e-12
2.9189e-12