/*--------------------------------*- C++ -*----------------------------------*\
| =========                 |                                                 |
| \\      /  F ield         | OpenFOAM: The Open Source CFD Toolbox           |
|  \\    /   O peration     | Version:  4.1                                   |
|   \\  /    A nd           | Web:      www.OpenFOAM.org                      |
|    \\/     M anipulation  |                                                 |
\*---------------------------------------------------------------------------*/
FoamFile
{
    version     2.0;
    format      ascii;
    class       surfaceScalarField;
    location    "0.34";
    object      phi;
}
// * * * * * * * * * * * * * * * * * * * * * * * * * * * * * * * * * * * * * //

dimensions      [1 0 -1 0 0 0 0];

internalField   nonuniform List<scalar> 
51500
(
3.68445e-13
1.10813e-14
1.5197e-11
-1.83473e-15
1.85348e-14
1.50217e-11
-2.27708e-15
1.7615e-14
1.48485e-11
-2.28808e-15
1.65631e-14
1.46774e-11
-2.22811e-15
1.54455e-14
1.45086e-11
-2.2019e-15
1.4281e-14
1.43419e-11
-2.21792e-15
1.30966e-14
1.41773e-11
-2.19509e-15
1.19031e-14
1.40152e-11
-2.16686e-15
1.06915e-14
1.38556e-11
9.46821e-15
1.37e-11
-7.28584e-17
3.73238e-13
8.19676e-15
1.9111e-11
-9.8753e-15
9.16573e-15
1.84224e-11
-8.58481e-15
7.99257e-15
1.77615e-11
-8.4201e-15
7.0188e-15
1.71287e-11
-8.18285e-15
6.10426e-15
1.65233e-11
-7.94179e-15
5.15477e-15
1.59439e-11
-7.72605e-15
3.93515e-15
1.5389e-11
-7.52284e-15
2.80308e-15
1.48577e-11
-7.21324e-15
1.73757e-15
1.4348e-11
7.4783e-16
1.38658e-11
-7.60676e-16
3.75406e-13
9.71918e-15
2.43398e-11
-2.06702e-14
1.03773e-14
2.28218e-11
-1.68727e-14
8.60485e-15
2.14121e-11
-1.60964e-14
7.01566e-15
2.01059e-11
-1.53141e-14
5.59154e-15
1.88954e-11
-1.4654e-14
4.31344e-15
1.7773e-11
-1.39699e-14
3.17335e-15
1.67319e-11
-1.33887e-14
2.14801e-15
1.57643e-11
-1.25801e-14
1.23778e-15
1.48646e-11
4.55581e-16
1.40345e-11
-1.44437e-15
3.73285e-13
1.22825e-14
3.1433e-11
-3.5449e-14
1.25798e-14
2.85782e-11
-2.75861e-14
1.01659e-14
2.60272e-11
-2.57318e-14
8.07192e-15
2.37422e-11
-2.39869e-14
6.2806e-15
2.16992e-11
-2.24171e-14
4.74179e-15
1.98677e-11
-2.0976e-14
3.41874e-15
1.82219e-11
-1.96722e-14
2.26861e-15
1.67401e-11
-1.81405e-14
1.2796e-15
1.54037e-11
4.49435e-16
1.42062e-11
-2.19898e-15
3.63214e-13
1.57528e-14
4.12198e-11
-5.55394e-14
1.54892e-14
3.62112e-11
-4.17172e-14
1.21247e-14
3.19166e-11
-3.78698e-14
9.35832e-15
2.82174e-11
-3.44433e-14
7.09673e-15
2.50306e-11
-3.1441e-14
5.23352e-15
2.2273e-11
-2.88479e-14
3.68324e-15
1.98784e-11
-2.65058e-14
2.39789e-15
1.77922e-11
-2.4003e-14
1.33037e-15
1.59676e-11
4.69667e-16
1.43817e-11
-2.96378e-15
3.39249e-13
2.05517e-14
5.49754e-11
-9.75678e-14
1.94095e-14
4.64804e-11
-6.04051e-14
1.46577e-14
3.95166e-11
-5.32166e-14
1.09429e-14
3.37676e-11
-4.71299e-14
8.05964e-15
2.90094e-11
-4.20297e-14
5.78166e-15
2.5045e-11
-3.76679e-14
3.97853e-15
2.1724e-11
-3.38972e-14
2.53599e-15
1.89268e-11
-3.01215e-14
1.37954e-15
1.65576e-11
4.6914e-16
1.45595e-11
-3.79818e-15
2.89379e-13
4.35328e-14
7.4704e-11
-1.61308e-13
3.74064e-14
6.05209e-11
-8.55543e-14
2.23781e-14
4.94365e-11
-7.28345e-14
1.61908e-14
4.07094e-11
-6.2671e-14
1.16223e-14
3.37892e-11
-5.43754e-14
8.19568e-15
2.82515e-11
-4.75884e-14
5.58012e-15
2.37839e-11
-4.19245e-14
3.57432e-15
2.01514e-11
-3.65778e-14
2.01667e-15
1.71754e-11
7.95166e-16
1.47405e-11
-4.6341e-15
2.12472e-13
-7.56993e-14
1.03671e-10
-2.40194e-13
-8.73166e-14
8.0039e-11
-1.19494e-13
-9.91429e-14
6.2548e-11
-9.79729e-14
-1.06988e-13
4.94656e-11
-8.15539e-14
-1.12329e-13
3.95641e-11
-6.87846e-14
-1.1599e-13
3.19747e-11
-5.86412e-14
-1.18514e-13
2.60893e-11
-5.04962e-14
-1.20271e-13
2.14763e-11
-4.31515e-14
-1.215e-13
1.78226e-11
-1.23441e-13
1.49264e-11
-5.54765e-15
1.90756e-12
-4.56456e-10
1.52946e-10
1.35046e-12
-4.7627e-10
1.12375e-10
1.22156e-12
-4.7741e-10
8.48597e-11
1.10735e-12
-4.78154e-10
6.55038e-11
1.00591e-12
-4.78676e-10
5.16867e-11
9.1623e-13
-4.79036e-10
4.16685e-11
8.36983e-13
-4.79278e-10
3.43077e-11
7.66899e-13
-4.79431e-10
2.88362e-11
7.0135e-13
-4.79529e-10
2.47251e-11
-4.84494e-10
2.16929e-11
-6.48873e-15
-8.19086e-11
8.28429e-08
-8.82599e-07
1.88565e-10
6.9564e-08
-9.38027e-07
1.86946e-10
6.03854e-08
-9.39759e-07
1.80241e-10
5.28789e-08
-9.41157e-07
1.73491e-10
4.6665e-08
-9.4236e-07
1.66871e-10
4.14684e-08
-9.43407e-07
1.60484e-10
3.70821e-08
-9.4433e-07
1.54008e-10
3.33484e-08
-9.45152e-07
1.07901e-10
3.01468e-08
-9.45913e-07
2.76547e-08
-7.48316e-15
-9.66565e-07
3.43592e-13
9.23832e-14
3.51858e-13
-2.00864e-14
8.69302e-14
3.45594e-13
-2.59121e-14
7.65502e-14
3.39813e-13
-2.53041e-14
6.65079e-14
3.32822e-13
-2.50062e-14
5.68055e-14
3.26525e-13
-2.47773e-14
4.74279e-14
3.21027e-13
-2.4615e-14
3.83682e-14
3.14675e-13
-2.44068e-14
2.96228e-14
3.09287e-13
-2.65185e-14
2.11428e-14
3.03838e-13
1.30415e-14
2.98145e-13
-1.59226e-15
2.83798e-13
8.76711e-14
4.91418e-13
-7.39613e-14
7.95176e-14
4.65862e-13
-8.79625e-14
6.73269e-14
4.42363e-13
-8.50894e-14
5.57053e-14
4.18251e-13
-8.26701e-14
4.45956e-14
3.96317e-13
-8.03772e-14
3.34099e-14
3.75188e-13
-7.80856e-14
2.17787e-14
3.5596e-13
-7.64361e-14
1.41978e-14
3.37698e-13
-8.10329e-14
7.85216e-15
3.21131e-13
2.603e-15
3.04304e-13
-4.34201e-15
1.94095e-13
1.10857e-13
6.96875e-13
-1.87134e-13
9.84152e-14
6.3463e-13
-1.67924e-13
8.21345e-14
5.81796e-13
-1.59355e-13
6.72702e-14
5.29283e-13
-1.51684e-13
5.38655e-14
4.83059e-13
-1.44584e-13
4.17649e-14
4.41568e-13
-1.37868e-13
3.08383e-14
4.0414e-13
-1.32043e-13
2.09956e-14
3.70266e-13
-1.38099e-13
1.21559e-14
3.39659e-13
4.2688e-15
3.11749e-13
-7.06141e-15
6.93719e-14
1.36685e-13
1.00874e-12
-3.22797e-13
1.17894e-13
8.81539e-13
-2.71124e-13
9.60585e-14
7.75413e-13
-2.51445e-13
7.68858e-14
6.77557e-13
-2.34308e-13
6.01889e-14
5.94223e-13
-2.18789e-13
4.56517e-14
5.22601e-13
-2.04485e-13
3.3033e-14
4.61101e-13
-1.91899e-13
2.20654e-14
4.08381e-13
-1.97005e-13
1.2517e-14
3.61164e-13
4.31424e-15
3.19325e-13
-9.99634e-15
-6.0742e-14
1.70525e-13
1.49424e-12
-4.9596e-13
1.42622e-13
1.24793e-12
-4.03983e-13
1.13197e-13
1.04923e-12
-3.65806e-13
8.83241e-14
8.76751e-13
-3.33245e-13
6.74963e-14
7.37455e-13
-3.0425e-13
5.00506e-14
6.23323e-13
-2.78477e-13
3.54183e-14
5.28908e-13
-2.56361e-13
2.31688e-14
4.5089e-13
-2.58088e-13
1.28944e-14
3.85377e-13
4.35718e-15
3.28246e-13
-1.31574e-14
-2.17919e-13
2.15365e-13
2.27199e-12
-7.23407e-13
1.74542e-13
1.79871e-12
-5.75561e-13
1.34478e-13
1.43934e-12
-5.07837e-13
1.02104e-13
1.14645e-12
-4.51457e-13
7.60226e-14
9.22034e-13
-4.02852e-13
5.49728e-14
7.47151e-13
-3.60715e-13
3.80258e-14
6.0976e-13
-3.25394e-13
2.43354e-14
5.00795e-13
-3.21555e-13
1.33033e-14
4.13386e-13
4.38723e-15
3.38728e-13
-1.61917e-14
-6.71836e-13
2.72935e-13
3.54705e-12
-1.02764e-12
2.15651e-13
2.65064e-12
-7.97268e-13
1.61147e-13
2.00409e-12
-6.84435e-13
1.18902e-13
1.51475e-12
-5.93001e-13
8.62688e-14
1.16154e-12
-5.16281e-13
6.10473e-14
9.00703e-13
-4.52091e-13
4.14495e-14
7.05338e-13
-3.99064e-13
2.62292e-14
5.5811e-13
-3.87555e-13
1.43344e-14
4.43361e-13
5.05461e-15
3.50648e-13
-1.92758e-14
-1.22076e-12
3.28354e-13
5.7111e-12
-1.43849e-12
2.391e-13
3.99591e-12
-1.08472e-12
1.69825e-13
2.837e-12
-9.04044e-13
1.19815e-13
2.02758e-12
-7.61716e-13
8.33514e-14
1.47751e-12
-6.46932e-13
5.64586e-14
1.09249e-12
-5.53225e-13
3.64524e-14
8.20391e-13
-4.78131e-13
2.14491e-14
6.23273e-13
-4.55732e-13
1.01278e-14
4.77845e-13
1.60517e-15
3.63424e-13
-2.24972e-14
-2.06137e-12
1.10124e-11
9.90546e-12
-1.93377e-12
-5.61143e-12
5.54031e-12
-1.35358e-12
-5.58409e-12
3.65516e-12
-1.1165e-12
-5.61032e-12
2.46711e-12
-9.31692e-13
-5.72433e-12
1.72737e-12
-7.83365e-13
-5.89668e-12
1.25127e-12
-6.64005e-13
-6.10749e-12
9.37381e-13
-5.699e-13
-6.34279e-12
7.26116e-13
-5.46666e-13
-6.59312e-12
5.78565e-13
-6.84392e-12
4.65786e-13
-2.57361e-14
-4.50135e-10
5.1099e-09
5.04024e-08
-2.00941e-10
2.10923e-09
-1.08806e-09
-1.97248e-10
1.56547e-09
-1.13251e-09
-1.88066e-10
1.19148e-09
-1.10425e-09
-1.79462e-10
9.22866e-10
-1.07455e-09
-1.71439e-10
7.26111e-10
-1.04548e-09
-1.63971e-10
5.79484e-10
-1.01794e-09
-1.57032e-10
4.68513e-10
-9.92413e-10
-1.51146e-10
3.83357e-10
-9.70521e-10
3.17011e-10
-2.91761e-14
-9.83758e-10
3.46992e-13
8.17768e-14
1.37159e-14
-1.76297e-14
7.76457e-14
1.21175e-14
-2.15342e-14
6.85051e-14
1.07207e-14
-1.99968e-14
5.96777e-14
9.27054e-15
-1.87826e-14
5.11475e-14
7.80678e-15
-1.98162e-14
4.28603e-14
5.91535e-15
-1.88191e-14
3.49013e-14
5.1187e-15
-1.91388e-14
2.71865e-14
4.38924e-15
-2.34017e-14
1.97261e-14
3.62234e-15
1.25927e-14
3.53604e-15
-1.38214e-15
2.95784e-13
5.88228e-14
2.21084e-14
-6.55785e-14
5.40335e-14
1.95472e-14
-7.04829e-14
4.57894e-14
1.93556e-14
-6.61126e-14
3.79602e-14
1.56557e-14
-6.47205e-14
3.06578e-14
1.30022e-14
-6.20381e-14
2.39111e-14
1.10478e-14
-6.0404e-14
1.76635e-14
8.644e-15
-5.98371e-14
1.19603e-14
7.05276e-15
-7.12788e-14
6.82173e-15
6.41236e-15
2.38536e-15
5.07587e-15
-4.4127e-15
2.17658e-13
7.51237e-14
3.28344e-14
-1.65656e-13
6.78343e-14
3.01182e-14
-1.33532e-13
5.70087e-14
3.02018e-14
-1.23174e-13
4.71065e-14
2.53887e-14
-1.16775e-13
3.81086e-14
2.10152e-14
-1.11009e-13
2.98864e-14
1.69138e-14
-1.05242e-13
2.24584e-14
1.44869e-14
-1.03213e-13
1.61335e-14
1.24193e-14
-1.21206e-13
9.41708e-15
1.03743e-14
3.32536e-15
8.27682e-15
-7.25353e-15
9.60637e-14
9.33365e-14
5.31291e-14
-2.89157e-13
8.16882e-14
5.08876e-14
-2.13667e-13
6.70077e-14
5.02092e-14
-1.86416e-13
5.40602e-14
4.10844e-14
-1.73422e-13
4.27886e-14
3.41479e-14
-1.61636e-13
3.29286e-14
2.84205e-14
-1.48457e-13
2.43274e-14
2.39943e-14
-1.49449e-13
1.6762e-14
2.02706e-14
-1.73032e-13
9.69357e-15
1.80803e-14
3.43665e-15
1.29e-14
-1.03483e-14
-2.12379e-14
1.17621e-13
9.16412e-14
-4.45747e-13
9.93114e-14
8.76084e-14
-3.06326e-13
7.93059e-14
8.25403e-14
-2.64274e-13
6.234e-14
6.76552e-14
-2.40581e-13
4.81209e-14
5.49465e-14
-2.19213e-13
3.61973e-14
4.50967e-14
-1.99492e-13
2.63682e-14
3.8145e-14
-1.94866e-13
1.80262e-14
3.28429e-14
-2.26763e-13
1.02114e-14
2.82558e-14
3.51667e-15
1.95113e-14
-1.32884e-14
-1.56979e-13
1.50247e-13
1.60982e-13
-6.50772e-13
1.22583e-13
1.53899e-13
-4.19614e-13
9.47432e-14
1.36408e-13
-3.62327e-13
7.23584e-14
1.08695e-13
-3.2164e-13
5.44e-14
8.73076e-14
-2.86142e-13
3.98644e-14
7.06441e-14
-2.55305e-13
2.81522e-14
5.83783e-14
-2.3512e-13
1.89743e-14
4.91852e-14
-2.8269e-13
1.03977e-14
4.05594e-14
3.54329e-15
2.79128e-14
-1.65016e-14
-5.69224e-13
1.94289e-13
2.85137e-13
-9.25366e-13
1.52845e-13
2.66753e-13
-5.71966e-13
1.14172e-13
2.22739e-13
-4.84005e-13
8.45777e-14
1.72288e-13
-4.18463e-13
6.18226e-14
1.34521e-13
-3.63127e-13
4.41928e-14
1.0648e-13
-3.16474e-13
3.09954e-14
8.62333e-14
-2.83647e-13
1.99787e-14
7.03604e-14
-3.4055e-13
1.08708e-14
5.80473e-14
3.70515e-15
3.81717e-14
-1.97088e-14
-1.09603e-12
3.06198e-13
5.14514e-13
-1.29559e-12
2.94478e-13
4.60029e-13
-7.71825e-13
2.05617e-13
3.6203e-13
-6.35851e-13
1.43287e-13
2.67381e-13
-5.34042e-13
9.83494e-14
2.02019e-13
-4.51241e-13
6.54125e-14
1.56128e-13
-3.84779e-13
4.0755e-14
1.22044e-13
-3.35008e-13
2.16147e-14
9.74256e-14
-4.00604e-13
1.06269e-14
7.91709e-14
3.45696e-15
4.98435e-14
-2.30345e-14
-1.96101e-12
1.71205e-11
2.34163e-12
-1.7875e-12
8.31257e-13
7.71915e-13
-1.034e-12
5.16546e-13
5.6434e-13
-8.25217e-13
3.43564e-13
4.02168e-13
-6.7185e-13
2.20121e-13
2.94008e-13
-5.53179e-13
1.3138e-13
2.19736e-13
-4.59977e-13
6.712e-14
1.67949e-13
-3.90994e-13
2.03757e-14
1.30655e-13
-4.63956e-13
-1.37492e-14
1.03693e-13
-3.77389e-14
6.58799e-14
-2.63847e-14
-2.27304e-10
2.76659e-09
4.6432e-08
-1.29292e-11
5.97193e-11
5.19872e-11
-1.29042e-11
2.63658e-11
-5.47704e-12
-1.06265e-11
1.7234e-11
-2.90975e-12
-8.81367e-12
1.16619e-11
-1.21881e-12
-7.389e-12
8.10314e-12
-2.18089e-13
-6.25442e-12
5.76513e-12
5.2911e-13
-5.34293e-12
4.18752e-12
1.08842e-12
-4.60637e-12
3.09958e-12
1.50345e-12
2.27527e-12
-2.99424e-14
2.99835e-12
3.47008e-13
8.11878e-14
1.06288e-14
-1.7717e-14
7.71355e-14
9.62125e-15
-2.12698e-14
6.80847e-14
8.10254e-15
-1.96641e-14
5.93047e-14
6.19147e-15
-1.91945e-14
5.08433e-14
4.15694e-15
-1.9301e-14
4.26515e-14
3.34379e-15
-1.77634e-14
3.473e-14
1.97105e-15
-1.91048e-14
2.70677e-14
8.61332e-16
-2.31701e-14
1.9684e-14
4.71309e-16
1.25936e-14
1.59055e-16
-1.50401e-15
2.9638e-13
5.81368e-14
1.84238e-14
-6.52032e-14
5.3454e-14
1.62534e-14
-6.97688e-14
4.52965e-14
1.64193e-14
-6.43928e-14
3.76008e-14
1.29024e-14
-6.29308e-14
3.03811e-14
9.16299e-15
-6.10964e-14
2.36813e-14
6.79637e-15
-5.89988e-14
1.75365e-14
5.40026e-15
-5.83431e-14
1.1901e-14
4.1382e-15
-7.07867e-14
6.79186e-15
2.78178e-15
2.40496e-15
1.62478e-15
-4.34331e-15
2.19211e-13
7.39855e-14
2.6367e-14
-1.64433e-13
6.68556e-14
2.49303e-14
-1.30645e-13
5.61566e-14
2.67032e-14
-1.16159e-13
4.62818e-14
2.04223e-14
-1.12605e-13
3.73925e-14
1.68462e-14
-1.03633e-13
2.93253e-14
1.41325e-14
-9.88971e-14
2.18366e-14
1.08286e-14
-1.01697e-13
1.50643e-14
9.07667e-15
-1.2019e-13
9.34653e-15
7.77198e-15
3.17269e-15
5.49992e-15
-7.21775e-15
9.81458e-14
9.19185e-14
4.35999e-14
-2.8694e-13
8.04436e-14
4.38232e-14
-2.07232e-13
6.59321e-14
4.63705e-14
-1.79092e-13
5.31933e-14
3.77533e-14
-1.6704e-13
4.19812e-14
3.08248e-14
-1.55456e-13
3.21442e-14
2.63039e-14
-1.4455e-13
2.35718e-14
2.14199e-14
-1.44588e-13
1.6043e-14
1.85024e-14
-1.71828e-13
9.533e-15
1.55705e-14
3.47571e-15
1.04608e-14
-1.03958e-14
-1.78145e-14
1.15763e-13
7.70507e-14
-4.42088e-13
9.78453e-14
8.08108e-14
-2.91122e-13
7.8079e-14
7.96178e-14
-2.58079e-13
6.13013e-14
6.426e-14
-2.34839e-13
4.72896e-14
5.37424e-14
-2.13671e-13
3.54725e-14
4.43197e-14
-1.94825e-13
2.5467e-14
3.72055e-14
-1.84533e-13
1.71263e-14
3.19769e-14
-2.25261e-13
9.89756e-15
2.8552e-14
3.57351e-15
1.91743e-14
-1.3348e-14
-1.52002e-13
1.47766e-13
1.35804e-13
-6.45053e-13
1.20679e-13
1.4254e-13
-4.08471e-13
9.32344e-14
1.35002e-13
-3.54889e-13
7.12077e-14
1.08514e-13
-3.15329e-13
5.34562e-14
8.83106e-14
-2.80464e-13
3.90545e-14
7.32942e-14
-2.50192e-13
2.7422e-14
6.1378e-14
-2.30378e-13
1.7991e-14
5.10366e-14
-2.80716e-13
1.04207e-14
4.47341e-14
3.65148e-15
2.90117e-14
-1.66423e-14
-5.57266e-13
1.91135e-13
2.42607e-13
-9.16347e-13
1.50466e-13
2.54513e-13
-5.59795e-13
1.12443e-13
2.24035e-13
-4.75321e-13
8.32023e-14
1.76375e-13
-4.11217e-13
6.07352e-14
1.40399e-13
-3.56782e-13
4.33299e-14
1.14361e-13
-3.11559e-13
2.96724e-14
9.24606e-14
-2.78452e-13
1.90283e-14
7.74116e-14
-3.38587e-13
1.08548e-14
6.56818e-14
3.60114e-15
4.20655e-14
-1.98489e-14
-1.07764e-12
3.02919e-13
4.34337e-13
-1.28085e-12
1.78567e-13
4.43533e-13
-7.57926e-13
1.40159e-13
3.66324e-13
-6.25281e-13
1.01265e-13
2.80811e-13
-5.25442e-13
7.36466e-14
2.17457e-13
-4.44736e-13
5.45363e-14
1.70809e-13
-3.79358e-13
3.66556e-14
1.361e-13
-3.29737e-13
2.2947e-14
1.1066e-13
-3.98833e-13
1.249e-14
9.05313e-14
4.64113e-15
5.9364e-14
-2.30267e-14
-1.93602e-12
1.71469e-11
3.24051e-12
-1.76458e-12
3.67145e-13
7.84756e-13
-1.01802e-12
2.54555e-13
5.97799e-13
-8.1338e-13
1.6395e-13
4.38477e-13
-6.62688e-13
1.07815e-13
3.26303e-13
-5.45775e-13
6.87517e-14
2.4954e-13
-4.54086e-13
4.1138e-14
1.93283e-13
-3.85447e-13
2.12879e-14
1.53273e-13
-4.60978e-13
1.04647e-14
1.21393e-13
2.80809e-15
7.42601e-14
-2.6527e-14
-2.15588e-10
4.11788e-09
4.67478e-08
-2.87889e-12
2.27454e-11
6.53452e-11
-1.45858e-12
1.43795e-12
6.50071e-13
-1.21621e-12
9.11861e-13
4.75182e-13
-9.54196e-13
6.31439e-13
3.64893e-13
-7.59267e-13
4.51712e-13
2.00977e-13
-6.12582e-13
3.31575e-13
1.68964e-13
-5.08089e-13
2.48713e-13
1.49335e-13
-5.68236e-13
1.8998e-13
1.35612e-13
1.16864e-13
-3.0079e-14
1.24765e-13
3.46879e-13
8.13096e-14
1.8481e-14
-1.80279e-14
7.72325e-14
1.62993e-14
-2.13693e-14
6.81778e-14
1.26323e-14
-2.02399e-14
5.93848e-14
8.19488e-15
-1.7991e-14
5.09005e-14
8.29714e-15
-1.95884e-14
4.26852e-14
3.90881e-15
-1.89985e-14
3.47789e-14
4.45354e-15
-1.88447e-14
2.71338e-14
3.40867e-15
-2.31737e-14
1.97249e-14
8.85497e-16
1.26276e-14
2.37392e-16
-1.70437e-15
2.96088e-13
5.82653e-14
2.8942e-14
-6.55068e-14
5.35739e-14
2.44405e-14
-6.98632e-14
4.53947e-14
2.12892e-14
-6.5382e-14
3.76541e-14
1.74785e-14
-6.28655e-14
3.0464e-14
1.21561e-14
-6.0954e-14
2.37658e-14
9.7033e-15
-5.8801e-14
1.75873e-14
6.64022e-15
-5.88162e-14
1.19463e-14
6.79025e-15
-7.0848e-14
6.84583e-15
5.62799e-15
2.45668e-15
1.96392e-15
-4.35936e-15
2.18753e-13
7.41904e-14
4.12439e-14
-1.65077e-13
6.70331e-14
3.6256e-14
-1.31688e-13
5.63268e-14
3.70944e-14
-1.15362e-13
4.648e-14
3.05579e-14
-1.11085e-13
3.74992e-14
2.3764e-14
-1.04801e-13
2.94307e-14
1.80894e-14
-9.86139e-14
2.19697e-14
1.62758e-14
-1.01896e-13
1.51913e-14
1.23687e-14
-1.2021e-13
9.2672e-15
1.36556e-14
3.09013e-15
6.58854e-15
-7.43719e-15
9.7637e-14
9.22894e-14
6.93432e-14
-2.87813e-13
8.07925e-14
6.39922e-14
-2.08259e-13
6.61811e-14
6.43403e-14
-1.7967e-13
5.33738e-14
5.22844e-14
-1.66886e-13
4.21866e-14
4.34593e-14
-1.5622e-13
3.22512e-14
3.38108e-14
-1.4449e-13
2.36645e-14
3.41374e-14
-1.45371e-13
1.61535e-14
2.60382e-14
-1.72004e-13
9.83448e-15
2.54033e-14
3.70403e-15
1.92358e-14
-1.0224e-14
-1.87267e-14
1.16308e-13
1.08282e-13
-4.43659e-13
9.82863e-14
1.12112e-13
-2.92279e-13
7.84894e-14
1.11628e-13
-2.58392e-13
6.1657e-14
9.22397e-14
-2.35686e-13
4.75516e-14
7.66888e-14
-2.1416e-13
3.57608e-14
6.82591e-14
-1.95178e-13
2.57468e-14
5.71306e-14
-1.84416e-13
1.72112e-14
4.57432e-14
-2.25669e-13
9.88198e-15
3.92027e-14
3.6267e-15
2.49762e-14
-1.33923e-14
-1.53571e-13
1.48655e-13
1.97505e-13
-6.47424e-13
1.21458e-13
2.05251e-13
-4.10124e-13
9.3837e-14
1.86846e-13
-3.56107e-13
7.16912e-14
1.51128e-13
-3.16179e-13
5.38667e-14
1.22248e-13
-2.81314e-13
3.93878e-14
1.03237e-13
-2.51068e-13
2.76372e-14
8.23611e-14
-2.30568e-13
1.82988e-14
7.64354e-14
-2.81458e-13
1.07062e-14
6.1614e-14
3.84059e-15
3.98093e-14
-1.65686e-14
-5.61596e-13
1.92535e-13
3.45636e-13
-9.20553e-13
1.51576e-13
3.54411e-13
-5.62285e-13
1.13313e-13
3.14715e-13
-4.77333e-13
8.39117e-14
2.42273e-13
-4.12735e-13
6.13116e-14
1.97725e-13
-3.58399e-13
4.37705e-14
1.55311e-13
-3.12582e-13
3.00679e-14
1.28554e-13
-2.79241e-13
1.92442e-14
1.05805e-13
-3.39823e-13
1.10889e-14
8.7878e-14
4.00305e-15
5.73354e-14
-1.98285e-14
-1.08593e-12
3.05585e-13
6.14262e-13
-1.28785e-12
1.79507e-13
6.24532e-13
-7.61935e-13
1.39257e-13
5.07757e-13
-6.28631e-13
1.00107e-13
3.85147e-13
-5.28135e-13
7.1583e-14
2.9929e-13
-4.47016e-13
5.31146e-14
2.34443e-13
-3.81132e-13
3.63515e-14
1.89864e-13
-3.31323e-13
2.29596e-14
1.52887e-13
-4.00543e-13
1.26005e-14
1.25429e-13
4.79672e-15
8.02057e-14
-2.31553e-14
-1.9522e-12
1.73091e-11
4.43798e-12
-1.77621e-12
3.55051e-13
1.09125e-12
-1.02483e-12
2.32223e-13
8.23104e-13
-8.18849e-13
1.63506e-13
5.99251e-13
-6.66822e-13
1.06583e-13
4.52691e-13
-5.49298e-13
6.57807e-14
3.43482e-13
-4.56745e-13
3.0786e-14
2.65032e-13
-3.87855e-13
1.69163e-14
2.07848e-13
-4.63695e-13
8.66227e-15
1.69128e-13
3.26459e-15
1.11215e-13
-2.65571e-14
-2.18874e-10
5.64894e-09
4.80159e-08
-2.65225e-12
3.25469e-11
6.83269e-11
-1.29347e-12
1.25535e-12
2.65721e-13
-1.05957e-12
8.23797e-13
1.088e-13
-8.3495e-13
5.92862e-13
7.06185e-14
-6.67554e-13
4.37786e-13
5.27741e-14
-5.41143e-13
3.30195e-13
4.07318e-14
-4.47902e-13
2.53791e-13
3.20817e-14
-5.2939e-13
1.97075e-13
2.56371e-14
1.20742e-13
-3.01584e-14
2.08405e-14
3.46594e-13
8.14723e-14
1.97551e-14
-1.83829e-14
7.73722e-14
1.51438e-14
-2.18835e-14
6.82733e-14
1.73741e-14
-1.98921e-14
5.94871e-14
1.31939e-14
-1.96711e-14
5.09586e-14
7.51202e-15
-1.92101e-14
4.27523e-14
4.88022e-15
-1.89004e-14
3.48161e-14
2.43639e-15
-1.93876e-14
2.71737e-14
1.38747e-15
-2.3218e-14
1.97834e-14
8.39072e-16
1.26658e-14
3.98973e-16
-1.54195e-15
2.95653e-13
5.84488e-14
3.55748e-14
-6.60506e-14
5.3735e-14
3.24209e-14
-6.97196e-14
4.55499e-14
3.15472e-14
-6.63736e-14
3.77706e-14
2.29198e-14
-6.24242e-14
3.05804e-14
2.05483e-14
-6.16022e-14
2.38534e-14
1.28945e-14
-5.80906e-14
1.76764e-14
8.98553e-15
-5.87883e-14
1.20146e-14
5.54198e-15
-7.10504e-14
6.91537e-15
4.93956e-15
2.51614e-15
3.23169e-15
-4.37367e-15
2.1804e-13
7.451e-14
4.72533e-14
-1.66027e-13
6.73011e-14
4.93493e-14
-1.32106e-13
5.65434e-14
4.97912e-14
-1.15847e-13
4.66636e-14
4.19033e-14
-1.12017e-13
3.76466e-14
3.19017e-14
-1.04484e-13
2.95167e-14
2.55764e-14
-9.92585e-14
2.21387e-14
1.82386e-14
-1.01379e-13
1.53786e-14
1.93829e-14
-1.20494e-13
9.24904e-15
1.25714e-14
3.49356e-15
9.08204e-15
-7.3999e-15
9.68237e-14
9.2754e-14
8.61066e-14
-2.89125e-13
8.12155e-14
8.5821e-14
-2.08853e-13
6.65479e-14
8.6511e-14
-1.80137e-13
5.36923e-14
7.22385e-14
-1.68122e-13
4.2484e-14
5.59717e-14
-1.5561e-13
3.2587e-14
4.65139e-14
-1.45269e-13
2.38486e-14
3.55904e-14
-1.45579e-13
1.62845e-14
3.51405e-14
-1.72204e-13
9.95266e-15
2.76756e-14
3.67305e-15
1.65552e-14
-1.03309e-14
-2.00803e-14
1.17117e-13
1.51455e-13
-4.45681e-13
9.89725e-14
1.53864e-13
-2.93639e-13
7.90252e-14
1.50571e-13
-2.5934e-13
6.21033e-14
1.22975e-13
-2.36359e-13
4.78842e-14
1.00485e-13
-2.15111e-13
3.60388e-14
8.07036e-14
-1.95664e-13
2.59556e-14
6.30472e-14
-1.84814e-13
1.74815e-14
5.50514e-14
-2.26235e-13
1.01434e-14
4.58823e-14
3.92996e-15
3.08514e-14
-1.33413e-14
-1.55794e-13
1.49887e-13
2.4701e-13
-6.50871e-13
1.22459e-13
2.74292e-13
-4.12164e-13
9.46825e-14
2.53717e-13
-3.57864e-13
7.23442e-14
2.013e-13
-3.17274e-13
5.44554e-14
1.63633e-13
-2.82895e-13
3.98077e-14
1.24043e-13
-2.5175e-13
2.8044e-14
1.11343e-13
-2.31407e-13
1.84719e-14
8.54968e-14
-2.82458e-13
1.09616e-14
7.29721e-14
4.04552e-15
4.76434e-14
-1.65235e-14
-5.67907e-13
1.94454e-13
4.5444e-13
-9.26145e-13
1.53154e-13
4.86951e-13
-5.66135e-13
1.14489e-13
4.16004e-13
-4.7979e-13
8.48646e-14
3.28119e-13
-4.15278e-13
6.20299e-14
2.51219e-13
-3.60201e-13
4.43923e-14
2.01869e-13
-3.14273e-13
3.05964e-14
1.5889e-13
-2.80424e-13
1.97116e-14
1.3325e-13
-3.41397e-13
1.14559e-14
1.07994e-13
4.35962e-15
6.77848e-14
-1.9799e-14
-1.09751e-12
3.09376e-13
8.22331e-13
-1.29762e-12
1.81649e-13
8.46459e-13
-7.67662e-13
1.40954e-13
6.85454e-13
-6.33121e-13
1.01369e-13
5.16001e-13
-5.31867e-13
7.25865e-14
3.89519e-13
-4.49944e-13
5.37773e-14
3.0206e-13
-3.83745e-13
3.69639e-14
2.30126e-13
-3.33397e-13
2.35053e-14
1.86717e-13
-4.02877e-13
1.30619e-14
1.49404e-13
5.17817e-15
9.36119e-14
-2.31468e-14
-1.9764e-12
1.78882e-11
6.07029e-12
-1.79203e-12
3.60705e-13
1.48872e-12
-1.03434e-12
2.31129e-13
1.11134e-12
-8.26012e-13
1.65515e-13
8.04614e-13
-6.72674e-13
1.07948e-13
5.78336e-13
-5.54004e-13
6.65957e-14
4.27823e-13
-4.60442e-13
3.14343e-14
3.22033e-13
-3.90969e-13
1.74509e-14
2.60607e-13
-4.67165e-13
9.05477e-15
2.02553e-13
3.65622e-15
1.23112e-13
-2.66898e-14
-2.28411e-10
8.55973e-09
5.04522e-08
-2.6881e-12
4.78741e-11
7.20463e-11
-1.30508e-12
1.86622e-12
2.61139e-13
-1.06943e-12
1.18802e-12
8.35392e-14
-8.42553e-13
8.43252e-13
6.34132e-14
-6.73617e-13
6.07091e-13
4.94109e-14
-5.46071e-13
4.45298e-13
3.91721e-14
-4.52043e-13
3.34377e-13
3.15767e-14
-5.3404e-13
2.61629e-13
2.58389e-14
1.56269e-13
-3.02781e-14
2.15483e-14
3.46126e-13
8.16763e-14
2.76971e-14
-1.86891e-14
7.7564e-14
2.69118e-14
-2.23341e-14
6.84091e-14
2.16619e-14
-2.03606e-14
5.95954e-14
1.68054e-14
-1.98353e-14
5.10754e-14
9.17319e-15
-1.97641e-14
4.28422e-14
5.55541e-15
-1.86602e-14
3.49067e-14
4.43914e-15
-1.93477e-14
2.72336e-14
2.98805e-15
-2.32488e-14
1.98441e-14
3.07139e-15
1.27382e-14
5.95504e-15
-1.59638e-15
2.95105e-13
5.86641e-14
4.67377e-14
-6.66072e-14
5.39295e-14
4.36688e-14
-7.03629e-14
4.57157e-14
4.24172e-14
-6.59789e-14
3.79286e-14
3.24006e-14
-6.38239e-14
3.06809e-14
2.28049e-14
-6.12909e-14
2.39619e-14
1.26928e-14
-5.94486e-14
1.77668e-14
9.46324e-15
-5.85293e-14
1.21301e-14
9.38356e-15
-7.10206e-14
6.99725e-15
6.8814e-15
2.5851e-15
7.75055e-15
-4.41877e-15
2.17202e-13
7.48939e-14
6.86566e-14
-1.67183e-13
6.76206e-14
6.69836e-14
-1.32282e-13
5.68151e-14
6.77672e-14
-1.17508e-13
4.68776e-14
5.35982e-14
-1.11474e-13
3.7856e-14
4.19658e-14
-1.05834e-13
2.96838e-14
2.61663e-14
-9.82122e-14
2.23154e-14
1.95123e-14
-1.02411e-13
1.54366e-14
1.60973e-14
-1.20557e-13
9.59732e-15
1.83332e-14
3.36578e-15
1.39568e-14
-7.50225e-15
9.58416e-14
9.33661e-14
1.10083e-13
-2.90726e-13
8.17396e-14
1.15179e-13
-2.09076e-13
6.69952e-14
1.15566e-13
-1.81204e-13
5.40745e-14
9.28036e-14
-1.68522e-13
4.28322e-14
7.56625e-14
-1.56434e-13
3.29099e-14
6.04983e-14
-1.45147e-13
2.40792e-14
3.94847e-14
-1.45982e-13
1.64934e-14
3.16096e-14
-1.72694e-13
9.86548e-15
2.83595e-14
4.02201e-15
2.5209e-14
-1.02624e-14
-2.18465e-14
1.18069e-13
1.93351e-13
-4.48149e-13
9.97942e-14
2.04625e-13
-2.9515e-13
7.97029e-14
1.95653e-13
-2.60577e-13
6.26418e-14
1.58064e-13
-2.37214e-13
4.83351e-14
1.28182e-13
-2.1633e-13
3.63881e-14
1.05464e-13
-1.9605e-13
2.63292e-14
7.24875e-14
-1.86136e-13
1.76887e-14
5.69505e-14
-2.26819e-13
1.05602e-14
4.69516e-14
4.13943e-15
4.10786e-14
-1.3453e-14
-1.58564e-13
1.51433e-13
3.46656e-13
-6.54965e-13
1.23709e-13
3.6172e-13
-4.14878e-13
9.56675e-14
3.28471e-13
-3.59816e-13
7.31783e-14
2.62688e-13
-3.19056e-13
5.5122e-14
2.11017e-13
-2.84152e-13
4.03874e-14
1.72923e-13
-2.53268e-13
2.84809e-14
1.27831e-13
-2.32083e-13
1.88623e-14
9.20217e-14
-2.8362e-13
1.13109e-14
7.47582e-14
4.31362e-15
5.04815e-14
-1.65356e-14
-5.75756e-13
1.96859e-13
6.16895e-13
-9.33107e-13
1.55051e-13
6.30729e-13
-5.70216e-13
1.15973e-13
5.43546e-13
-4.83338e-13
8.601e-14
4.23705e-13
-4.17994e-13
6.29451e-14
3.34281e-13
-3.62541e-13
4.51247e-14
2.66279e-13
-3.16499e-13
3.12152e-14
2.10395e-13
-2.81789e-13
2.01645e-14
1.40779e-13
-3.43339e-13
1.18132e-14
1.12098e-13
4.74611e-15
6.96691e-14
-1.977e-14
-1.11207e-12
3.13857e-13
1.1087e-12
-1.30928e-12
1.8431e-13
1.10022e-12
-7.7474e-13
1.43135e-13
8.91681e-13
-6.38769e-13
1.03025e-13
6.71632e-13
-5.36352e-13
7.38394e-14
5.13851e-13
-4.53616e-13
5.42446e-14
3.98541e-13
-3.86998e-13
3.77602e-14
3.11122e-13
-3.3596e-13
2.42191e-14
2.06946e-13
-4.05747e-13
1.36552e-14
1.58917e-13
5.64522e-15
9.50397e-14
-2.32472e-14
-2.00544e-12
1.84132e-11
7.16115e-12
-1.81134e-12
3.65752e-13
1.94362e-12
-1.04602e-12
2.37848e-13
1.45854e-12
-8.35057e-13
1.68978e-13
1.05273e-12
-6.79834e-13
1.10538e-13
7.76966e-13
-5.59763e-13
6.87226e-14
5.81722e-13
-4.65032e-13
3.26179e-14
4.43237e-13
-3.94805e-13
1.81304e-14
3.14474e-13
-4.71502e-13
9.50357e-15
2.17968e-13
4.13235e-15
1.28081e-13
-2.671e-14
-2.39353e-10
1.03247e-08
5.4044e-08
-2.72131e-12
5.15611e-11
7.59266e-11
-1.32185e-12
2.46059e-12
2.51022e-13
-1.08354e-12
1.61972e-12
8.3844e-14
-8.53462e-13
1.14818e-12
6.39141e-14
-6.82093e-13
8.3048e-13
4.99709e-14
-5.52931e-13
6.12513e-13
3.97611e-14
-4.57533e-13
4.52053e-13
3.2203e-14
-5.40123e-13
2.90631e-13
2.64831e-14
1.68371e-13
-3.03241e-14
2.22781e-14
3.45732e-13
8.18934e-14
2.61171e-14
-1.9288e-14
7.76931e-14
1.57037e-14
-2.25208e-14
6.85586e-14
1.53001e-14
-2.0761e-14
5.97112e-14
1.22059e-14
-2.01482e-14
5.11831e-14
1.24895e-14
-2.00149e-14
4.29489e-14
1.47586e-14
-1.94463e-14
3.50278e-14
2.01233e-14
-1.96016e-14
2.73866e-14
5.30344e-14
-2.33076e-14
2.00234e-14
2.16523e-13
1.2934e-14
7.3944e-13
-2.69446e-15
2.94419e-13
5.89248e-14
4.22872e-14
-6.71216e-14
5.41225e-14
2.66418e-14
-7.10968e-14
4.58638e-14
2.99481e-14
-6.62892e-14
3.80737e-14
2.45958e-14
-6.43482e-14
3.08128e-14
2.51165e-14
-6.1111e-14
2.4099e-14
2.29676e-14
-5.92657e-14
1.78928e-14
2.58588e-14
-6.02418e-14
1.22499e-14
4.4896e-14
-7.20001e-14
7.17381e-15
1.3461e-13
2.71246e-15
4.78196e-13
-4.07161e-15
2.16151e-13
7.52718e-14
6.08164e-14
-1.68331e-13
6.79185e-14
4.22794e-14
-1.32922e-13
5.70967e-14
4.92056e-14
-1.18632e-13
4.71107e-14
4.18088e-14
-1.114e-13
3.81152e-14
3.6535e-14
-1.05971e-13
2.99396e-14
3.62599e-14
-9.926e-14
2.25397e-14
3.94876e-14
-1.02063e-13
1.56425e-14
4.88649e-14
-1.22272e-13
9.32872e-15
9.97322e-14
3.56523e-15
3.15956e-13
-6.88598e-15
9.47886e-14
9.40457e-14
1.01409e-13
-2.92226e-13
8.22611e-14
7.90158e-14
-2.10811e-13
6.74234e-14
8.80018e-14
-1.81719e-13
5.4465e-14
7.5324e-14
-1.68901e-13
4.31443e-14
6.62618e-14
-1.57183e-13
3.3172e-14
4.84011e-14
-1.46029e-13
2.43929e-14
6.10263e-14
-1.45842e-13
1.68067e-14
6.46735e-14
-1.74452e-13
1.00475e-14
9.33228e-14
4.29268e-15
2.3057e-13
-9.88359e-15
-2.37256e-14
1.1916e-13
1.75995e-13
-4.50535e-13
1.00616e-13
1.50874e-13
-2.96543e-13
8.04003e-14
1.56057e-13
-2.61904e-13
6.32558e-14
1.32203e-13
-2.38005e-13
4.88723e-14
1.13695e-13
-2.17251e-13
3.69001e-14
1.31937e-13
-1.97097e-13
2.663e-14
9.49291e-14
-1.87166e-13
1.79853e-14
9.2608e-14
-2.28806e-13
1.08675e-14
1.06228e-13
4.23764e-15
1.88109e-13
-1.30868e-14
-1.61721e-13
1.53104e-13
3.11052e-13
-6.58817e-13
1.24937e-13
2.81956e-13
-4.17172e-13
9.66993e-14
2.7075e-13
-3.62059e-13
7.40415e-14
2.24004e-13
-3.20294e-13
5.58678e-14
1.8755e-13
-2.86309e-13
4.09921e-14
2.05168e-13
-2.54599e-13
2.91032e-14
1.17279e-13
-2.33391e-13
1.92598e-14
1.35866e-13
-2.861e-13
1.17257e-14
1.33299e-13
4.80634e-15
1.73245e-13
-1.63884e-14
-5.84641e-13
1.99813e-13
6.13422e-13
-9.39391e-13
1.56958e-13
5.13835e-13
-5.74328e-13
1.17495e-13
4.58729e-13
-4.86757e-13
8.72446e-14
3.67238e-13
-4.20732e-13
6.3941e-14
2.98181e-13
-3.65006e-13
4.59551e-14
3.10888e-13
-3.19302e-13
3.18824e-14
2.57737e-13
-2.83619e-13
2.07315e-14
1.88938e-13
-3.46472e-13
1.22185e-14
1.74408e-13
5.07399e-15
1.76682e-13
-1.96668e-14
-1.12772e-12
3.17079e-13
1.18104e-12
-1.31982e-12
1.89057e-13
9.12528e-13
-7.81615e-13
1.4544e-13
7.60501e-13
-6.4433e-13
1.0479e-13
5.87831e-13
-5.40913e-13
7.52649e-14
5.15459e-13
-4.57334e-13
5.45982e-14
4.66479e-13
-3.91135e-13
3.87686e-14
4.02852e-13
-3.38893e-13
2.49866e-14
2.20503e-13
-4.10057e-13
1.43415e-14
2.30736e-13
6.21441e-15
1.94344e-13
-2.31583e-14
-2.0129e-12
1.36381e-11
5.39571e-12
-1.8312e-12
3.42285e-13
1.65584e-12
-1.05735e-12
2.58068e-13
1.36926e-12
-8.43824e-13
1.72796e-13
1.04906e-12
-6.87228e-13
1.13441e-13
8.35379e-13
-5.65443e-13
7.11464e-14
6.90917e-13
-4.71013e-13
3.40394e-14
5.71004e-13
-3.99103e-13
1.8986e-14
2.84557e-13
-4.77293e-13
1.00488e-14
2.99445e-13
4.71662e-15
2.2331e-13
-2.67238e-14
-1.87799e-10
2.80617e-09
4.98626e-08
-2.51329e-12
1.12938e-11
4.15948e-11
-1.35039e-12
2.39068e-12
1.04862e-13
-1.09768e-12
1.72685e-12
8.38782e-14
-8.64644e-13