/*--------------------------------*- C++ -*----------------------------------*\
| =========                 |                                                 |
| \\      /  F ield         | OpenFOAM: The Open Source CFD Toolbox           |
|  \\    /   O peration     | Version:  4.1                                   |
|   \\  /    A nd           | Web:      www.OpenFOAM.org                      |
|    \\/     M anipulation  |                                                 |
\*---------------------------------------------------------------------------*/
FoamFile
{
    version     2.0;
    format      ascii;
    class       volVectorField;
    location    "0.34";
    object      U;
}
// * * * * * * * * * * * * * * * * * * * * * * * * * * * * * * * * * * * * * //

dimensions      [0 1 -1 0 0 0 0];

internalField   nonuniform List<vector> 
18000
(
(7.90608e-14 3.91173e-13 -6.3686e-12)
(8.53694e-14 3.89586e-13 -6.29509e-12)
(7.72545e-14 -9.96379e-15 -6.22231e-12)
(6.93285e-14 -1.16733e-14 -6.15063e-12)
(6.16189e-14 -1.15069e-14 -6.07991e-12)
(5.41045e-14 -1.1297e-14 -6.01007e-12)
(4.68125e-14 -1.12322e-14 -5.94116e-12)
(3.97533e-14 -1.11747e-14 -5.87328e-12)
(3.28861e-14 -1.10456e-14 -5.80644e-12)
(2.62227e-14 -8.80492e-15 -5.7413e-12)
(1.07609e-13 4.05015e-13 -8.00757e-12)
(1.24157e-13 3.94862e-13 -7.71908e-12)
(1.09321e-13 -4.12881e-14 -7.44165e-12)
(9.53003e-14 -4.17598e-14 -7.17673e-12)
(8.22267e-14 -4.0366e-14 -6.92328e-12)
(6.9999e-14 -3.89354e-14 -6.6807e-12)
(5.85173e-14 -3.75742e-14 -6.44835e-12)
(4.78225e-14 -3.63221e-14 -6.22589e-12)
(3.7777e-14 -3.50893e-14 -6.01246e-12)
(2.84086e-14 -2.74356e-14 -5.81063e-12)
(1.12126e-13 4.12469e-13 -1.01969e-11)
(1.2677e-13 3.91301e-13 -9.56105e-12)
(1.05337e-13 -8.56094e-14 -8.96962e-12)
(8.60943e-14 -8.24903e-14 -8.42283e-12)
(6.89167e-14 -7.74683e-14 -7.91611e-12)
(5.35597e-14 -7.29762e-14 -7.44622e-12)
(3.97971e-14 -6.88258e-14 -7.01034e-12)
(2.74808e-14 -6.49637e-14 -6.60521e-12)
(1.6445e-14 -6.13474e-14 -6.22851e-12)
(6.59501e-15 -4.6796e-14 -5.88106e-12)
(1.4958e-13 4.08486e-13 -1.31657e-11)
(1.59466e-13 3.73176e-13 -1.197e-11)
(1.28411e-13 -1.48156e-13 -1.09004e-11)
(1.01849e-13 -1.37167e-13 -9.94416e-12)
(7.92029e-14 -1.25393e-13 -9.0891e-12)
(5.98566e-14 -1.14889e-13 -8.32248e-12)
(4.3363e-14 -1.05494e-13 -7.63354e-12)
(2.91866e-14 -9.70653e-14 -7.01321e-12)
(1.70756e-14 -8.93806e-14 -6.45374e-12)
(6.71155e-15 -6.68135e-14 -5.95267e-12)
(2.03884e-13 3.83332e-13 -1.72601e-11)
(2.03811e-13 3.30755e-13 -1.51629e-11)
(1.58409e-13 -2.3685e-13 -1.33633e-11)
(1.21482e-13 -2.11259e-13 -1.18157e-11)
(9.15766e-14 -1.87098e-13 -1.04823e-11)
(6.72481e-14 -1.66364e-13 -9.32828e-12)
(4.73669e-14 -1.4862e-13 -8.32607e-12)
(3.108e-14 -1.33277e-13 -7.45288e-12)
(1.77414e-14 -1.19714e-13 -6.68914e-12)
(6.80735e-15 -8.75787e-14 -6.02571e-12)
(2.84705e-13 3.20897e-13 -2.30122e-11)
(2.65367e-13 2.47481e-13 -1.94564e-11)
(1.98018e-13 -3.63979e-13 -1.65401e-11)
(1.46257e-13 -3.11801e-13 -1.41358e-11)
(1.0656e-13 -2.66779e-13 -1.21454e-11)
(7.57905e-14 -2.29918e-13 -1.04869e-11)
(5.18397e-14 -1.99458e-13 -9.09729e-12)
(3.31292e-14 -1.73951e-13 -7.92676e-12)
(1.84539e-14 -1.52332e-13 -6.93515e-12)
(6.91252e-15 -1.0913e-13 -6.0996e-12)
(4.08531e-13 1.92274e-13 -3.12577e-11)
(3.52626e-13 9.53213e-14 -2.53232e-11)
(2.51101e-13 -5.48522e-13 -2.06846e-11)
(1.77812e-13 -4.49792e-13 -1.70363e-11)
(1.24703e-13 -3.70454e-13 -1.41426e-11)
(8.56833e-14 -3.0847e-13 -1.18265e-11)
(5.67849e-14 -2.59251e-13 -9.95767e-12)
(3.52516e-14 -2.19766e-13 -8.43789e-12)
(1.91087e-14 -1.87594e-13 -7.19263e-12)
(6.95023e-15 -1.31478e-13 -6.17472e-12)
(-9.59918e-14 -5.48773e-14 -4.33584e-11)
(-2.01536e-13 -1.75165e-13 -3.3475e-11)
(-3.1705e-13 -8.20271e-13 -2.61605e-11)
(-3.85296e-13 -6.40659e-13 -2.06938e-11)
(-4.24199e-13 -5.05921e-13 -1.6555e-11)
(-4.444e-13 -4.05894e-13 -1.33818e-11)
(-4.52662e-13 -3.29956e-13 -1.09205e-11)
(-4.53245e-13 -2.71353e-13 -8.99083e-12)
(-4.48954e-13 -2.25467e-13 -7.46223e-12)
(-4.4553e-13 -1.5466e-13 -6.25176e-12)
(-2.80093e-09 -5.94607e-13 -6.96668e-11)
(-2.71623e-09 -5.99069e-13 -5.21017e-11)
(-2.54414e-09 -1.11785e-12 -3.97027e-11)
(-2.39128e-09 -8.08536e-13 -3.08274e-11)
(-2.25511e-09 -5.95624e-13 -2.43552e-11)
(-2.13314e-09 -4.46941e-13 -1.95461e-11)
(-2.02336e-09 -3.40809e-13 -1.59125e-11)
(-1.92406e-09 -2.63622e-13 -1.31247e-11)
(-1.83391e-09 -2.16789e-13 -1.0955e-11)
(-1.76965e-09 -1.85166e-13 -9.28368e-12)
(2.97885e-07 -3.75217e-10 -3.38057e-08)
(2.6518e-08 1.95479e-10 -2.9161e-08)
(2.18921e-08 4.27948e-10 -2.5325e-08)
(1.84717e-08 3.81452e-10 -2.21835e-08)
(1.56218e-08 3.40699e-10 -1.95821e-08)
(1.32212e-08 3.05748e-10 -1.74059e-08)
(1.11796e-08 2.75641e-10 -1.55684e-08)
(9.42796e-09 2.49481e-10 -1.40038e-08)
(7.8226e-09 1.79172e-10 -1.26614e-08)
(-4.58092e-08 -4.77812e-11 -1.16212e-08)
(2.66473e-13 3.68359e-13 -6.56086e-12)
(2.49417e-13 3.44526e-13 -6.4841e-12)
(2.18741e-13 -5.45884e-14 -6.40802e-12)
(1.89246e-13 -5.57696e-14 -6.33274e-12)
(1.6089e-13 -5.51576e-14 -6.25875e-12)
(1.33612e-13 -5.4503e-14 -6.18606e-12)
(1.07375e-13 -5.39296e-14 -6.11379e-12)
(8.21653e-14 -5.33172e-14 -6.04305e-12)
(5.78483e-14 -5.23629e-14 -5.97328e-12)
(3.47598e-14 -3.03384e-14 -5.90508e-12)
(5.36609e-13 3.19164e-13 -8.27531e-12)
(4.9364e-13 2.27755e-13 -7.97305e-12)
(4.22955e-13 -2.02773e-13 -7.68209e-12)
(3.57e-13 -1.97266e-13 -7.4045e-12)
(2.95546e-13 -1.90311e-13 -7.13947e-12)
(2.38257e-13 -1.83604e-13 -6.88566e-12)
(1.84835e-13 -1.77165e-13 -6.64305e-12)
(1.35018e-13 -1.71132e-13 -6.41077e-12)
(8.84987e-14 -1.64263e-13 -6.18839e-12)
(4.54881e-14 -9.33859e-14 -5.97761e-12)
(6.61056e-13 2.31502e-13 -1.05772e-11)
(5.8627e-13 4.49681e-14 -9.90701e-12)
(4.84891e-13 -4.11405e-13 -9.28514e-12)
(3.94235e-13 -3.88059e-13 -8.71029e-12)
(3.13527e-13 -3.64497e-13 -8.17883e-12)
(2.41582e-13 -3.42641e-13 -7.68666e-12)
(1.77395e-13 -3.22424e-13 -7.2306e-12)
(1.20128e-13 -3.03714e-13 -6.80716e-12)
(6.91035e-14 -2.84967e-13 -6.41385e-12)
(2.39178e-14 -1.59514e-13 -6.05175e-12)
(8.61207e-13 8.36214e-14 -1.37161e-11)
(7.36606e-13 -2.36207e-13 -1.24494e-11)
(5.90977e-13 -7.04442e-13 -1.13193e-11)
(4.66549e-13 -6.44332e-13 -1.03106e-11)
(3.60678e-13 -5.88133e-13 -9.41074e-12)
(2.704e-13 -5.38051e-13 -8.60559e-12)
(1.93401e-13 -4.93172e-13 -7.88348e-12)
(1.27695e-13 -4.52737e-13 -7.23466e-12)
(7.16248e-14 -4.14353e-13 -6.64963e-12)
(2.43259e-14 -2.28219e-13 -6.12692e-12)
(1.13987e-12 -1.59416e-13 -1.80745e-11)
(9.37105e-13 -6.65839e-13 -1.58388e-11)
(7.26959e-13 -1.11666e-12 -1.39275e-11)
(5.55868e-13 -9.88608e-13 -1.22873e-11)
(4.16867e-13 -8.75439e-13 -1.08791e-11)
(3.03619e-13 -7.77985e-13 -9.66382e-12)
(2.11268e-13 -6.9355e-13 -8.61081e-12)
(1.35909e-13 -6.20242e-13 -7.69559e-12)
(7.43317e-14 -5.53537e-13 -6.89653e-12)
(2.46587e-14 -2.999e-13 -6.20403e-12)
(1.53523e-12 -5.53406e-13 -2.42487e-11)
(1.20888e-12 -1.32097e-12 -2.04262e-11)
(9.03323e-13 -1.69951e-12 -1.73102e-11)
(6.67106e-13 -1.45244e-12 -1.47489e-11)
(4.84202e-13 -1.24478e-12 -1.26384e-11)
(3.41973e-13 -1.07277e-12 -1.08862e-11)
(2.31171e-13 -9.29045e-13 -9.42296e-12)
(1.44705e-13 -8.08449e-13 -8.19401e-12)
(7.72073e-14 -7.03229e-13 -7.15555e-12)
(2.49696e-14 -3.74511e-13 -6.2826e-12)
(2.10945e-12 -1.19007e-12 -3.31851e-11)
(1.58287e-12 -2.32376e-12 -2.67455e-11)
(1.13471e-12 -2.52964e-12 -2.17514e-11)
(8.06699e-13 -2.07988e-12 -1.78415e-11)
(5.65251e-13 -1.72107e-12 -1.47593e-11)
(3.8644e-13 -1.43549e-12 -1.2304e-11)
(2.53424e-13 -1.20581e-12 -1.03311e-11)
(1.54237e-13 -1.01987e-12 -8.73283e-12)
(8.0169e-14 -8.64198e-13 -7.42647e-12)
(2.53733e-14 -4.52436e-13 -6.36292e-12)
(2.98808e-12 -2.23034e-12 -4.64572e-11)
(2.10755e-12 -3.87472e-12 -3.5609e-11)
(1.44127e-12 -3.72151e-12 -2.7663e-11)
(9.80841e-13 -2.93348e-12 -2.1765e-11)
(6.59531e-13 -2.33662e-12 -1.73338e-11)
(4.3312e-13 -1.88219e-12 -1.39562e-11)
(2.72379e-13 -1.53142e-12 -1.13506e-11)
(1.57743e-13 -1.25771e-12 -9.31668e-12)
(7.5722e-14 -1.03725e-12 -7.71127e-12)
(1.76302e-14 -5.33452e-13 -6.44535e-12)
(-2.66257e-11 -4.15141e-12 -7.4809e-11)
(-1.03859e-10 -6.48948e-12 -5.53907e-11)
(-8.47435e-11 -5.56671e-12 -4.18742e-11)
(-6.977e-11 -4.20412e-12 -3.22967e-11)
(-5.8106e-11 -3.22601e-12 -2.53812e-11)
(-4.88914e-11 -2.51451e-12 -2.02828e-11)
(-4.15209e-11 -1.98737e-12 -1.64556e-11)
(-3.55588e-11 -1.59098e-12 -1.35358e-11)
(-3.06882e-11 -1.2833e-12 -1.1273e-11)
(-2.66614e-11 -6.71595e-13 -9.53698e-12)
(1.86182e-07 -9.12302e-10 -3.53373e-08)
(-4.71349e-09 -7.47548e-10 -3.03369e-08)
(-4.59626e-09 -4.25494e-10 -2.62044e-08)
(-4.20394e-09 -3.7777e-10 -2.28535e-08)
(-3.85278e-09 -3.37865e-10 -2.01014e-08)
(-3.54322e-09 -3.03605e-10 -1.78144e-08)
(-3.27159e-09 -2.74054e-10 -1.58942e-08)
(-3.03363e-09 -2.48443e-10 -1.42667e-08)
(-2.83014e-09 -2.26107e-10 -1.2876e-08)
(-3.26419e-09 -2.17483e-10 -1.1798e-08)
(2.29285e-13 3.73629e-13 -1.97871e-13)
(2.16361e-13 3.4862e-13 -1.94086e-13)
(1.89703e-13 -5.07161e-14 -1.89897e-13)
(1.64259e-13 -5.19653e-14 -1.859e-13)
(1.39917e-13 -5.1142e-14 -1.82177e-13)
(1.16505e-13 -5.0607e-14 -1.7856e-13)
(9.42232e-14 -5.01153e-14 -1.74986e-13)
(7.28293e-14 -4.94093e-14 -1.71897e-13)
(5.23418e-14 -4.86134e-14 -1.6867e-13)
(3.298e-14 -2.55041e-14 -1.65668e-13)
(5.00893e-13 3.38749e-13 -2.75971e-13)
(4.62379e-13 2.42147e-13 -2.61304e-13)
(3.96058e-13 -1.88952e-13 -2.46825e-13)
(3.3425e-13 -1.83639e-13 -2.33055e-13)
(2.76807e-13 -1.77029e-13 -2.20796e-13)
(2.23308e-13 -1.70672e-13 -2.09115e-13)
(1.73577e-13 -1.64503e-13 -1.9801e-13)
(1.27203e-13 -1.58729e-13 -1.8768e-13)
(8.3977e-14 -1.52276e-13 -1.7863e-13)
(4.41854e-14 -7.90757e-14 -1.69388e-13)
(6.19073e-13 2.71853e-13 -3.93714e-13)
(5.5011e-13 7.29083e-14 -3.57727e-13)
(4.54347e-13 -3.84738e-13 -3.25343e-13)
(3.68848e-13 -3.62579e-13 -2.95968e-13)
(2.92945e-13 -3.39899e-13 -2.69889e-13)
(2.25515e-13 -3.19106e-13 -2.46186e-13)
(1.65488e-13 -2.99957e-13 -2.25325e-13)
(1.12118e-13 -2.82257e-13 -2.06341e-13)
(6.45111e-14 -2.6428e-13 -1.88956e-13)
(2.264e-14 -1.35207e-13 -1.74223e-13)
(8.12259e-13 1.5483e-13 -5.72487e-13)
(6.95149e-13 -1.90799e-13 -4.98598e-13)
(5.56466e-13 -6.61784e-13 -4.34805e-13)
(4.38306e-13 -6.04268e-13 -3.79419e-13)
(3.38207e-13 -5.50294e-13 -3.32544e-13)
(2.53162e-13 -5.02397e-13 -2.92173e-13)
(1.80859e-13 -4.59506e-13 -2.57605e-13)
(1.19386e-13 -4.21329e-13 -2.27852e-13)
(6.70477e-14 -3.84905e-13 -2.01686e-13)
(2.30715e-14 -1.94123e-13 -1.79313e-13)
(1.08422e-12 -4.29277e-14 -8.52649e-13)
(8.89976e-13 -5.98702e-13 -7.0752e-13)
(6.8827e-13 -1.05463e-12 -5.89545e-13)
(5.2457e-13 -9.31278e-13 -4.92458e-13)
(3.92359e-13 -8.2196e-13 -4.13587e-13)
(2.85163e-13 -7.28549e-13 -3.4909e-13)
(1.98123e-13 -6.47909e-13 -2.96224e-13)
(1.27341e-13 -5.78189e-13 -2.52641e-13)
(6.98062e-14 -5.14648e-13 -2.15895e-13)
(2.35427e-14 -2.5553e-13 -1.8562e-13)
(1.4745e-12 -3.71454e-13 -1.30332e-12)
(1.15671e-12 -1.2294e-12 -1.02321e-12)
(8.60442e-13 -1.61463e-12 -8.11308e-13)
(6.32612e-13 -1.37506e-12 -6.45712e-13)
(4.5753e-13 -1.17344e-12 -5.1888e-13)
(3.22202e-13 -1.00768e-12 -4.19956e-13)
(2.17364e-13 -8.69893e-13 -3.42629e-13)
(1.3599e-13 -7.54899e-13 -2.81519e-13)
(7.2637e-14 -6.5465e-13 -2.31834e-13)
(2.39929e-14 -3.20228e-13 -1.93103e-13)
(2.04912e-12 -9.11385e-13 -2.04519e-12)
(1.52796e-12 -2.20779e-12 -1.51167e-12)
(1.08843e-12 -2.42074e-12 -1.13313e-12)
(7.69349e-13 -1.98026e-12 -8.55931e-13)
(5.36602e-13 -1.62954e-12 -6.55735e-13)
(3.65429e-13 -1.35304e-12 -5.08005e-13)
(2.39022e-13 -1.13193e-12 -3.97911e-13)
(1.45265e-13 -9.5428e-13 -3.14709e-13)
(7.55753e-14 -8.05606e-13 -2.50005e-13)
(2.44722e-14 -3.87789e-13 -2.01688e-13)
(2.94106e-12 -1.81015e-12 -3.31131e-12)
(2.05574e-12 -3.74408e-12 -2.284e-12)
(1.39533e-12 -3.59066e-12 -1.60967e-12)
(9.44249e-13 -2.81075e-12 -1.14858e-12)
(6.33153e-13 -2.22362e-12 -8.36262e-13)
(4.16119e-13 -1.78099e-12 -6.18309e-13)
(2.63426e-13 -1.44185e-12 -4.64005e-13)
(1.55411e-13 -1.17942e-12 -3.52598e-13)
(7.87431e-14 -9.68354e-13 -2.70766e-13)
(2.48953e-14 -4.58669e-13 -2.10762e-13)
(9.84344e-11 -3.38199e-12 -5.52757e-12)
(1.05885e-12 -6.24799e-12 -3.53625e-12)
(3.50718e-13 -5.31353e-12 -2.33876e-12)
(1.35769e-13 -3.96216e-12 -1.58566e-12)
(1.32941e-15 -3.00263e-12 -1.10947e-12)
(-8.03824e-14 -2.31447e-12 -7.97949e-13)
(-1.28447e-13 -1.81029e-12 -5.89389e-13)
(-1.54717e-13 -1.43538e-12 -4.46601e-13)
(-1.67357e-13 -1.14618e-12 -3.46032e-13)
(-1.67602e-13 -5.35073e-13 -2.76101e-13)
(1.64797e-07 -3.32052e-10 -1.61485e-09)
(1.29163e-10 -3.04512e-10 -1.19938e-09)
(-1.21559e-10 -4.00528e-11 -8.9431e-10)
(-9.70353e-11 -2.96136e-11 -6.79841e-10)
(-7.81583e-11 -2.28161e-11 -5.259e-10)
(-6.37201e-11 -1.78526e-11 -4.13121e-10)
(-5.25336e-11 -1.4165e-11 -3.29011e-10)
(-4.37744e-11 -1.13822e-11 -2.65269e-10)
(-3.69369e-11 -9.23678e-12 -2.16274e-10)
(-3.58294e-11 -7.24683e-12 -1.78058e-10)
(2.26938e-13 3.73793e-13 -1.02625e-14)
(2.14291e-13 3.48431e-13 -9.44355e-15)
(1.87926e-13 -5.08533e-14 -7.44011e-15)
(1.62686e-13 -5.19413e-14 -6.34101e-15)
(1.38605e-13 -5.12683e-14 -5.04585e-15)
(1.15531e-13 -5.06398e-14 -4.04103e-15)
(9.34394e-14 -4.99462e-14 -3.24806e-15)
(7.2275e-14 -4.92793e-14 -2.40014e-15)
(5.20877e-14 -4.83724e-14 -2.03041e-15)
(3.29342e-14 -2.52298e-14 -2.04854e-15)
(4.98151e-13 3.39958e-13 -1.52471e-14)
(4.6007e-13 2.42948e-13 -1.35808e-14)
(3.94137e-13 -1.88304e-13 -1.14614e-14)
(3.32679e-13 -1.82965e-13 -9.38823e-15)
(2.75546e-13 -1.76174e-13 -7.46965e-15)
(2.22363e-13 -1.69943e-13 -6.3359e-15)
(1.72932e-13 -1.63863e-13 -5.1457e-15)
(1.26833e-13 -1.57863e-13 -4.28453e-15)
(8.3842e-14 -1.5137e-13 -3.64371e-15)
(4.43092e-14 -7.81303e-14 -3.1595e-15)
(6.15498e-13 2.74914e-13 -2.47618e-14)
(5.47313e-13 7.50096e-14 -2.1901e-14)
(4.52097e-13 -3.82831e-13 -1.8193e-14)
(3.67101e-13 -3.60723e-13 -1.48833e-14)
(2.91648e-13 -3.38334e-13 -1.25349e-14)
(2.24581e-13 -3.17527e-13 -1.02837e-14)
(1.64949e-13 -2.9829e-13 -8.5226e-15)
(1.11883e-13 -2.80813e-13 -7.32957e-15)
(6.45544e-14 -2.62775e-13 -6.14828e-15)
(2.29152e-14 -1.33523e-13 -5.95554e-15)
(8.0758e-13 1.6118e-13 -4.15605e-14)
(6.91632e-13 -1.86407e-13 -3.64365e-14)
(5.5383e-13 -6.58265e-13 -3.02383e-14)
(4.36402e-13 -6.01057e-13 -2.46523e-14)
(3.3687e-13 -5.47329e-13 -2.04167e-14)
(2.52352e-13 -4.99721e-13 -1.71816e-14)
(1.80467e-13 -4.57089e-13 -1.43088e-14)
(1.19364e-13 -4.19005e-13 -1.21077e-14)
(6.73362e-14 -3.82739e-13 -1.06121e-14)
(2.35145e-14 -1.92091e-13 -9.41924e-15)
(1.07807e-12 -3.13388e-14 -7.2728e-14)
(8.85676e-13 -5.91211e-13 -6.15373e-14)
(6.85212e-13 -1.04845e-12 -4.95039e-14)
(5.22575e-13 -9.26059e-13 -4.02768e-14)
(3.91139e-13 -8.17635e-13 -3.29869e-14)
(2.84522e-13 -7.24615e-13 -2.69063e-14)
(1.97961e-13 -6.44308e-13 -2.26642e-14)
(1.27584e-13 -5.75111e-13 -1.95656e-14)
(7.01848e-14 -5.12086e-13 -1.70999e-14)
(2.4179e-14 -2.53046e-13 -1.48735e-14)
(1.46606e-12 -3.50343e-13 -1.27336e-13)
(1.15135e-12 -1.21695e-12 -1.03832e-13)
(8.5696e-13 -1.60514e-12 -8.1761e-14)
(6.30542e-13 -1.36728e-12 -6.49846e-14)
(4.56481e-13 -1.16719e-12 -5.21874e-14)
(3.21864e-13 -1.00251e-12 -4.24045e-14)
(2.1752e-13 -8.6545e-13 -3.503e-14)
(1.36431e-13 -7.51431e-13 -2.93277e-14)
(7.3289e-14 -6.51697e-13 -2.44513e-14)
(2.48006e-14 -3.17212e-13 -2.13289e-14)
(2.03745e-12 -8.73646e-13 -2.25026e-13)
(1.52101e-12 -2.18779e-12 -1.75889e-13)
(1.08446e-12 -2.40634e-12 -1.33172e-13)
(7.67215e-13 -1.96928e-12 -1.02907e-13)
(5.35714e-13 -1.62125e-12 -8.04419e-14)
(3.65413e-13 -1.34649e-12 -6.38784e-14)
(2.39462e-13 -1.12676e-12 -5.14907e-14)
(1.45987e-13 -9.50318e-13 -4.2156e-14)
(7.65896e-14 -8.02464e-13 -3.50609e-14)
(2.54112e-14 -3.84691e-13 -2.93859e-14)
(2.92404e-12 -1.74277e-12 -4.03643e-13)
(2.04594e-12 -3.71267e-12 -2.95978e-13)
(1.39028e-12 -3.56953e-12 -2.15617e-13)
(9.41968e-13 -2.79607e-12 -1.59594e-13)
(6.32532e-13 -2.21282e-12 -1.20748e-13)
(4.1645e-13 -1.77321e-12 -9.33688e-14)
(2.6424e-13 -1.43619e-12 -7.29766e-14)
(1.56487e-13 -1.17509e-12 -5.83604e-14)
(7.99657e-14 -9.65389e-13 -4.75921e-14)
(2.6172e-14 -4.55619e-13 -3.88977e-14)
(1.05211e-10 -3.25992e-12 -7.28939e-13)
(3.12032e-12 -6.19907e-12 -4.94476e-13)
(1.78336e-12 -5.28101e-12 -3.42424e-13)
(1.15146e-12 -3.94078e-12 -2.43514e-13)
(7.40053e-13 -2.98796e-12 -1.77544e-13)
(4.6774e-13 -2.3041e-12 -1.32699e-13)
(2.855e-13 -1.80269e-12 -1.01173e-13)
(1.62552e-13 -1.42956e-12 -7.87584e-14)
(7.90677e-14 -1.14145e-12 -6.24038e-14)
(2.31063e-14 -5.30038e-13 -5.04824e-14)
(1.65582e-07 -2.88065e-10 -9.83491e-11)
(2.91935e-10 -2.74055e-10 -2.44581e-11)
(-1.4375e-13 -9.54374e-12 -1.55224e-11)
(-3.93565e-13 -6.06865e-12 -1.01863e-11)
(-3.15133e-13 -4.36867e-12 -6.89807e-12)
(-2.6122e-13 -3.21722e-12 -4.7905e-12)
(-2.20893e-13 -2.41566e-12 -3.40077e-12)
(-1.89971e-13 -1.84629e-12 -2.45985e-12)
(-1.66507e-13 -1.42682e-12 -1.80965e-12)
(-1.67635e-13 -6.79198e-13 -1.33062e-12)
(2.27339e-13 3.73671e-13 -1.08212e-14)
(2.14609e-13 3.4788e-13 -9.84493e-15)
(1.88219e-13 -5.15675e-14 -7.47865e-15)
(1.62915e-13 -5.2545e-14 -5.52745e-15)
(1.38773e-13 -5.169e-14 -4.09333e-15)
(1.15629e-13 -5.09626e-14 -2.88486e-15)
(9.35733e-14 -5.04165e-14 -2.06157e-15)
(7.24533e-14 -4.95483e-14 -1.14789e-15)
(5.21955e-14 -4.84119e-14 -4.83722e-16)
(3.30215e-14 -2.54058e-14 -3.22489e-16)
(4.99141e-13 3.39631e-13 -1.60708e-14)
(4.60919e-13 2.42202e-13 -1.42363e-14)
(3.9487e-13 -1.89115e-13 -1.10141e-14)
(3.33235e-13 -1.83808e-13 -8.93036e-15)
(2.76066e-13 -1.76899e-13 -6.28748e-15)
(2.22798e-13 -1.70331e-13 -4.822e-15)
(1.73304e-13 -1.64121e-13 -3.69859e-15)
(1.27227e-13 -1.58199e-13 -3.09093e-15)
(8.41903e-14 -1.51649e-13 -2.26174e-15)
(4.46528e-14 -7.8205e-14 -1.55036e-15)
(6.17226e-13 2.7436e-13 -2.60147e-14)
(5.48843e-13 7.38857e-14 -2.29644e-14)
(4.53394e-13 -3.84219e-13 -1.86372e-14)
(3.68162e-13 -3.61834e-13 -1.46655e-14)
(2.92594e-13 -3.39024e-13 -1.19349e-14)
(2.25433e-13 -3.18243e-13 -9.69294e-15)
(1.6565e-13 -2.98898e-13 -7.78134e-15)
(1.12505e-13 -2.81166e-13 -6.4946e-15)
(6.51359e-14 -2.62976e-13 -5.85486e-15)
(2.34657e-14 -1.33753e-13 -5.05933e-15)
(8.1063e-13 1.60111e-13 -4.46319e-14)
(6.94289e-13 -1.88283e-13 -3.89461e-14)
(5.55982e-13 -6.60273e-13 -3.20527e-14)
(4.38219e-13 -6.02821e-13 -2.60881e-14)
(3.38403e-13 -5.48649e-13 -2.13711e-14)
(2.5361e-13 -5.00812e-13 -1.76637e-14)
(1.81593e-13 -4.58026e-13 -1.51068e-14)
(1.20357e-13 -4.19744e-13 -1.28821e-14)
(6.82477e-14 -3.83293e-13 -1.11597e-14)
(2.43009e-14 -1.92187e-13 -1.02463e-14)
(1.08317e-12 -3.34259e-14 -7.792e-14)
(8.89961e-13 -5.94862e-13 -6.73557e-14)
(6.88677e-13 -1.05218e-12 -5.46056e-14)
(5.25388e-13 -9.2894e-13 -4.43209e-14)
(3.93467e-13 -8.19957e-13 -3.68561e-14)
(2.86458e-13 -7.26607e-13 -3.06407e-14)
(1.99612e-13 -6.45808e-13 -2.55764e-14)
(1.28962e-13 -5.76192e-13 -2.193e-14)
(7.14158e-14 -5.12974e-13 -1.9187e-14)
(2.52263e-14 -2.53638e-13 -1.68317e-14)
(1.47459e-12 -3.54817e-13 -1.37478e-13)
(1.15828e-12 -1.22372e-12 -1.14716e-13)
(8.62383e-13 -1.61139e-12 -9.16288e-14)
(6.34844e-13 -1.37241e-12 -7.34523e-14)
(4.59885e-13 -1.1712e-12 -5.95902e-14)
(3.24666e-13 -1.00573e-12 -4.93731e-14)
(2.19777e-13 -8.68144e-13 -4.07268e-14)
(1.38297e-13 -7.53556e-13 -3.43597e-14)
(7.48317e-14 -6.5341e-13 -2.9535e-14)
(2.60696e-14 -3.18158e-13 -2.54086e-14)
(2.05181e-12 -8.82562e-13 -2.43046e-13)
(1.53213e-12 -2.20083e-12 -1.95468e-13)
(1.09277e-12 -2.41781e-12 -1.51587e-13)
(7.73562e-13 -1.97819e-12 -1.18212e-13)
(5.40622e-13 -1.62821e-12 -9.42324e-14)
(3.69217e-13 -1.35208e-12 -7.57163e-14)
(2.42447e-13 -1.13122e-12 -6.14725e-14)
(1.48395e-13 -9.53755e-13 -5.07808e-14)
(7.85069e-14 -8.05352e-13 -4.27139e-14)
(2.70108e-14 -3.86388e-13 -3.60283e-14)
(2.94818e-12 -1.76094e-12 -4.32491e-13)
(2.06364e-12 -3.73784e-12 -3.3138e-13)
(1.40294e-12 -3.58989e-12 -2.46246e-13)
(9.51221e-13 -2.81148e-12 -1.86647e-13)
(6.39356e-13 -2.2247e-12 -1.43902e-13)
(4.21574e-13 -1.78244e-12 -1.12599e-13)
(2.68159e-13 -1.44341e-12 -8.94621e-14)
(1.59503e-13 -1.18075e-12 -7.20112e-14)
(8.22595e-14 -9.69813e-13 -5.88596e-14)
(2.79666e-14 -4.58247e-13 -4.92024e-14)
(1.0642e-10 -3.29695e-12 -7.83946e-13)
(3.19196e-12 -6.24726e-12 -5.61003e-13)
(1.81937e-12 -5.31766e-12 -3.98156e-13)
(1.17494e-12 -3.96745e-12 -2.8924e-13)
(7.55922e-13 -3.00765e-12 -2.14975e-13)
(4.78796e-13 -2.31885e-12 -1.62974e-13)
(2.93377e-13 -1.81393e-12 -1.25433e-13)
(1.68229e-13 -1.43829e-12 -9.85872e-14)
(8.32229e-14 -1.14839e-12 -7.84032e-14)
(2.60997e-14 -5.33946e-13 -6.34772e-14)
(1.71279e-07 -2.89862e-10 -5.08799e-11)
(3.10102e-10 -2.75838e-10 -1.54511e-12)
(2.07851e-12 -8.85226e-12 -8.16862e-13)
(1.13883e-12 -5.58706e-12 -5.42196e-13)
(7.57751e-13 -4.04097e-12 -3.73719e-13)
(5.08148e-13 -2.98926e-12 -2.66566e-13)
(3.41208e-13 -2.25403e-12 -1.95297e-13)
(2.27802e-13 -1.72967e-12 -1.46152e-13)
(1.49765e-13 -1.34137e-12 -1.11512e-13)
(9.59975e-14 -6.14014e-13 -8.67093e-14)
(2.27892e-13 3.73382e-13 -1.36667e-14)
(2.15062e-13 3.47104e-13 -1.17733e-14)
(1.88544e-13 -5.25586e-14 -9.43814e-15)
(1.63234e-13 -5.328e-14 -6.90653e-15)
(1.38956e-13 -5.2313e-14 -5.09904e-15)
(1.1582e-13 -5.14414e-14 -3.15879e-15)
(9.36782e-14 -5.06313e-14 -2.03942e-15)
(7.25647e-14 -4.99037e-14 -1.38484e-15)
(5.23534e-14 -4.86967e-14 -6.64965e-16)
(3.31207e-14 -2.53318e-14 -4.70296e-16)
(5.00476e-13 3.39142e-13 -2.01837e-14)
(4.62072e-13 2.40977e-13 -1.77182e-14)
(3.95807e-13 -1.90344e-13 -1.35776e-14)
(3.34047e-13 -1.84794e-13 -1.07067e-14)
(2.76717e-13 -1.77769e-13 -8.23188e-15)
(2.2337e-13 -1.7095e-13 -5.99373e-15)
(1.7378e-13 -1.64533e-13 -4.35511e-15)
(1.27631e-13 -1.58421e-13 -3.19412e-15)
(8.46545e-14 -1.51973e-13 -2.75777e-15)
(4.50339e-14 -7.84444e-14 -2.34269e-15)
(6.19599e-13 2.73479e-13 -3.24827e-14)
(5.5089e-13 7.21765e-14 -2.85693e-14)
(4.5514e-13 -3.85971e-13 -2.28617e-14)
(3.69604e-13 -3.63294e-13 -1.86134e-14)
(2.93849e-13 -3.40255e-13 -1.46285e-14)
(2.26466e-13 -3.19143e-13 -1.16618e-14)
(1.66638e-13 -2.99551e-13 -9.48714e-15)
(1.13351e-13 -2.81595e-13 -8.27914e-15)
(6.59033e-14 -2.63375e-13 -7.13549e-15)
(2.42453e-14 -1.34046e-13 -6.30912e-15)
(8.14665e-13 1.58377e-13 -5.59739e-14)
(6.97762e-13 -1.91156e-13 -4.84468e-14)
(5.58855e-13 -6.63071e-13 -3.94198e-14)
(4.40608e-13 -6.05124e-13 -3.23022e-14)
(3.4044e-13 -5.50595e-13 -2.63687e-14)
(2.55385e-13 -5.02195e-13 -2.16207e-14)
(1.83088e-13 -4.59042e-13 -1.85365e-14)
(1.21669e-13 -4.20661e-13 -1.60794e-14)
(6.93516e-14 -3.83895e-13 -1.41203e-14)
(2.5315e-14 -1.92585e-13 -1.25048e-14)
(1.09002e-12 -3.66751e-14 -9.73736e-14)
(8.95684e-13 -5.99802e-13 -8.32948e-14)
(6.93267e-13 -1.05693e-12 -6.77723e-14)
(5.29117e-13 -9.32794e-13 -5.53729e-14)
(3.96526e-13 -8.23004e-13 -4.57698e-14)
(2.89079e-13 -7.29171e-13 -3.83239e-14)
(2.01701e-13 -6.4792e-13 -3.18722e-14)
(1.3077e-13 -5.77869e-13 -2.73155e-14)
(7.29492e-14 -5.14339e-13 -2.34471e-14)
(2.64958e-14 -2.54373e-13 -2.07937e-14)
(1.48612e-12 -3.61494e-13 -1.71695e-13)
(1.16751e-12 -1.23325e-12 -1.43103e-13)
(8.69578e-13 -1.61998e-12 -1.1399e-13)
(6.40443e-13 -1.37921e-12 -9.14083e-14)
(4.64375e-13 -1.17654e-12 -7.43296e-14)
(3.28227e-13 -1.01012e-12 -6.13429e-14)
(2.22699e-13 -8.71698e-13 -5.07961e-14)
(1.40679e-13 -7.56296e-13 -4.27168e-14)
(7.68213e-14 -6.55757e-13 -3.66064e-14)
(2.77313e-14 -3.19517e-13 -3.1616e-14)
(2.07111e-12 -8.96198e-13 -3.03905e-13)
(1.54694e-12 -2.21872e-12 -2.43345e-13)
(1.10379e-12 -2.43315e-12 -1.88694e-13)
(7.81911e-13 -1.99011e-12 -1.47635e-13)
(5.47052e-13 -1.63748e-12 -1.17557e-13)
(3.74183e-13 -1.35953e-12 -9.44793e-14)
(2.46412e-13 -1.13714e-12 -7.69801e-14)
(1.51488e-13 -9.58465e-13 -6.30958e-14)
(8.09744e-14 -8.09153e-13 -5.29537e-14)
(2.90387e-14 -3.88592e-13 -4.47876e-14)
(2.98149e-12 -1.78827e-12 -5.40698e-13)
(2.0874e-12 -3.77215e-12 -4.13629e-13)
(1.41979e-12 -3.61759e-12 -3.07922e-13)
(9.63451e-13 -2.83213e-12 -2.33231e-13)
(6.48365e-13 -2.24039e-12 -1.79802e-13)
(4.28334e-13 -1.79457e-12 -1.40825e-13)
(2.73257e-13 -1.45296e-12 -1.11989e-13)
(1.63422e-13 -1.18831e-12 -8.97141e-14)
(8.52799e-14 -9.75726e-13 -7.31327e-14)
(3.03538e-14 -4.61606e-13 -6.0855e-14)
(1.09371e-10 -3.35438e-12 -9.83086e-13)
(3.24e-12 -6.3142e-12 -7.02065e-13)
(1.84563e-12 -5.36709e-12 -4.99257e-13)
(1.19297e-12 -4.00293e-12 -3.62856e-13)
(7.68528e-13 -3.03371e-12 -2.69882e-13)
(4.87826e-13 -2.33851e-12 -2.04211e-13)
(2.99947e-13 -1.82886e-12 -1.57116e-13)
(1.7309e-13 -1.44975e-12 -1.23143e-13)
(8.68211e-14 -1.1573e-12 -9.79196e-14)
(2.88009e-14 -5.3909e-13 -7.93004e-14)
(1.82504e-07 -3.04124e-10 -1.01045e-10)
(3.26278e-10 -2.83468e-10 -1.42511e-12)
(2.17723e-12 -8.95177e-12 -8.08331e-13)
(1.17265e-12 -5.64092e-12 -5.59393e-13)
(7.79689e-13 -4.07955e-12 -3.97927e-13)
(5.22873e-13 -3.01734e-12 -2.90352e-13)
(3.51409e-13 -2.27502e-12 -2.16607e-13)
(2.35065e-13 -1.74568e-12 -1.64376e-13)
(1.55056e-13 -1.35362e-12 -1.26847e-13)
(9.9997e-14 -6.20796e-13 -1.00147e-13)
(2.28577e-13 3.72889e-13 -1.63511e-14)
(2.15692e-13 3.46198e-13 -1.4194e-14)
(1.88973e-13 -5.34972e-14 -1.0955e-14)
(1.6358e-13 -5.42682e-14 -8.42574e-15)
(1.39298e-13 -5.3179e-14 -6.05403e-15)
(1.16084e-13 -5.21793e-14 -4.09532e-15)
(9.39302e-14 -5.1121e-14 -2.42589e-15)
(7.27304e-14 -5.00961e-14 -1.48428e-15)
(5.25224e-14 -4.87831e-14 -1.68997e-15)
(3.33165e-14 -2.54265e-14 -3.44721e-15)
(5.02099e-13 3.38513e-13 -2.41653e-14)
(4.63529e-13 2.39614e-13 -2.08039e-14)
(3.96961e-13 -1.91851e-13 -1.66091e-14)
(3.35029e-13 -1.85906e-13 -1.27754e-14)
(2.77542e-13 -1.78768e-13 -1.01152e-14)
(2.24099e-13 -1.7187e-13 -7.37e-15)
(1.74442e-13 -1.65246e-13 -5.73206e-15)
(1.28274e-13 -1.58846e-13 -4.20495e-15)
(8.5177e-14 -1.52003e-13 -3.28218e-15)
(4.55547e-14 -7.85014e-14 -4.90458e-15)
(6.22501e-13 2.72433e-13 -3.9121e-14)
(5.53379e-13 7.01354e-14 -3.38261e-14)
(4.57212e-13 -3.88053e-13 -2.7136e-14)
(3.71374e-13 -3.65057e-13 -2.20341e-14)
(2.95293e-13 -3.41759e-13 -1.74884e-14)
(2.27773e-13 -3.20311e-13 -1.42899e-14)
(1.67781e-13 -3.00294e-13 -1.1642e-14)
(1.14456e-13 -2.82174e-13 -1.00599e-14)
(6.68694e-14 -2.6384e-13 -9.05893e-15)
(2.50271e-14 -1.3429e-13 -8.94375e-15)
(8.19663e-13 1.56302e-13 -6.66574e-14)
(7.01984e-13 -1.94638e-13 -5.73069e-14)
(5.6236e-13 -6.66427e-13 -4.67028e-14)
(4.43501e-13 -6.07901e-13 -3.82147e-14)
(3.4293e-13 -5.52898e-13 -3.162e-14)
(2.57534e-13 -5.04037e-13 -2.66253e-14)
(1.8492e-13 -4.60388e-13 -2.23886e-14)
(1.23217e-13 -4.21676e-13 -1.93302e-14)
(7.07254e-14 -3.84916e-13 -1.71636e-14)
(2.65209e-14 -1.93163e-13 -1.56753e-14)
(1.09844e-12 -4.08352e-14 -1.17105e-13)
(9.02656e-13 -6.06012e-13 -9.88251e-14)
(6.9888e-13 -1.06268e-12 -8.00334e-14)
(5.33642e-13 -9.37458e-13 -6.5516e-14)
(4.00282e-13 -8.26758e-13 -5.41905e-14)
(2.92206e-13 -7.3233e-13 -4.56637e-14)
(2.04357e-13 -6.50487e-13 -3.85056e-14)
(1.32937e-13 -5.79918e-13 -3.30126e-14)
(7.48132e-14 -5.15956e-13 -2.85659e-14)
(2.81523e-14 -2.5537e-13 -2.59909e-14)
(1.50032e-12 -3.69763e-13 -2.06778e-13)
(1.17877e-12 -1.24473e-12 -1.69719e-13)
(8.78312e-13 -1.63033e-12 -1.35214e-13)
(6.47342e-13 -1.3875e-12 -1.08899e-13)
(4.69856e-13 -1.18312e-12 -8.87988e-14)
(3.32656e-13 -1.01543e-12 -7.37457e-14)
(2.26327e-13 -8.76084e-13 -6.11664e-14)
(1.43592e-13 -7.59849e-13 -5.13896e-14)
(7.92727e-14 -6.58547e-13 -4.42109e-14)
(2.97372e-14 -3.21215e-13 -3.87339e-14)
(2.09505e-12 -9.13102e-13 -3.6626e-13)
(1.56501e-12 -2.24074e-12 -2.88871e-13)
(1.11729e-12 -2.45169e-12 -2.24068e-13)
(7.92173e-13 -2.00459e-12 -1.76277e-13)
(5.54914e-13 -1.64884e-12 -1.40353e-13)
(3.80322e-13 -1.36857e-12 -1.13677e-13)
(2.51225e-13 -1.14454e-12 -9.28427e-14)
(1.55288e-13 -9.64326e-13 -7.58677e-14)
(8.39822e-14 -8.13814e-13 -6.38887e-14)
(3.14739e-14 -3.91383e-13 -5.46941e-14)
(3.02243e-12 -1.82243e-12 -6.52489e-13)
(2.11645e-12 -3.81401e-12 -4.91425e-13)
(1.44058e-12 -3.65112e-12 -3.6741e-13)
(9.78509e-13 -2.85744e-12 -2.7891e-13)
(6.59466e-13 -2.25966e-12 -2.15337e-13)
(4.36609e-13 -1.80947e-12 -1.6921e-13)
(2.79509e-13 -1.46481e-12 -1.34902e-13)
(1.68234e-13 -1.19767e-12 -1.07589e-13)
(8.89664e-14 -9.83036e-13 -8.79255e-14)
(3.32275e-14 -4.65877e-13 -7.33505e-14)
(1.14697e-10 -3.41582e-12 -1.11331e-12)
(3.29758e-12 -6.39501e-12 -8.37619e-13)
(1.87729e-12 -5.42736e-12 -5.98178e-13)
(1.21485e-12 -4.0466e-12 -4.35504e-13)
(7.83969e-13 -3.06591e-12 -3.24264e-13)
(4.98876e-13 -2.36269e-12 -2.4575e-13)
(3.07988e-13 -1.84732e-12 -1.89978e-13)
(1.78995e-13 -1.46386e-12 -1.47697e-13)
(9.12024e-14 -1.16834e-12 -1.17633e-13)
(3.2083e-14 -5.45379e-13 -9.55337e-14)
(2.01071e-07 -2.93914e-10 9.49765e-11)
(3.50701e-10 -2.97145e-10 -4.30294e-13)
(2.18436e-12 -9.08597e-12 -9.61397e-13)
(1.19255e-12 -5.71457e-12 -6.70472e-13)
(7.93588e-13 -4.13177e-12 -4.78532e-13)
(5.32799e-13 -3.05517e-12 -3.49459e-13)
(3.58693e-13 -2.30308e-12 -2.61069e-13)
(2.40495e-13 -1.76685e-12 -1.98183e-13)
(1.59132e-13 -1.36952e-12 -1.52207e-13)
(1.03163e-13 -6.29692e-13 -1.2079e-13)
(2.29306e-13 3.72495e-13 -1.80044e-14)
(2.16073e-13 3.44992e-13 -1.22843e-14)
(1.89399e-13 -5.48188e-14 -9.57864e-15)
(1.63916e-13 -5.52094e-14 -7.7176e-15)
(1.39647e-13 -5.40384e-14 -7.62134e-15)
(1.16459e-13 -5.29172e-14 -8.63608e-15)
(9.43755e-14 -5.17398e-14 -1.13971e-14)
(7.34072e-14 -5.04186e-14 -2.94143e-14)
(5.36956e-14 -4.88652e-14 -1.20093e-13)
(3.45991e-14 -2.90637e-14 -4.09102e-13)
(5.0389e-13 3.37715e-13 -2.55879e-14)
(4.64718e-13 2.382e-13 -1.64463e-14)
(3.98084e-13 -1.93356e-13 -1.39435e-14)
(3.36005e-13 -1.8726e-13 -1.14595e-14)
(2.7844e-13 -1.7988e-13 -1.05568e-14)
(2.25006e-13 -1.72759e-13 -1.14496e-14)
(1.75339e-13 -1.65976e-13 -1.35891e-14)
(1.29239e-13 -1.5988e-13 -2.448e-14)
(8.64247e-14 -1.53393e-13 -7.40144e-14)
(4.66784e-14 -8.48412e-14 -2.64458e-13)
(6.25641e-13 2.71111e-13 -4.17998e-14)
(5.55696e-13 6.79762e-14 -2.8183e-14)
(4.5921e-13 -3.90186e-13 -2.32319e-14)
(3.73155e-13 -3.66836e-13 -1.99094e-14)
(2.96957e-13 -3.43209e-13 -1.76312e-14)
(2.29388e-13 -3.21564e-13 -1.81177e-14)
(1.69287e-13 -3.01563e-13 -2.0319e-14)
(1.15853e-13 -2.83265e-13 -2.57051e-14)
(6.8428e-14 -2.65684e-13 -5.479e-14)
(2.6407e-14 -1.41299e-13 -1.7509e-13)
(8.25138e-13 1.54052e-13 -7.17145e-14)
(7.06035e-13 -1.97873e-13 -5.01008e-14)
(5.65798e-13 -6.69659e-13 -4.16471e-14)
(4.46515e-13 -6.10523e-13 -3.5785e-14)
(3.45625e-13 -5.54983e-13 -3.21546e-14)