/*--------------------------------*- C++ -*----------------------------------*\
| =========                 |                                                 |
| \\      /  F ield         | OpenFOAM: The Open Source CFD Toolbox           |
|  \\    /   O peration     | Version:  4.1                                   |
|   \\  /    A nd           | Web:      www.OpenFOAM.org                      |
|    \\/     M anipulation  |                                                 |
\*---------------------------------------------------------------------------*/
FoamFile
{
    version     2.0;
    format      ascii;
    class       volVectorField;
    location    "6.58";
    object      U;
}
// * * * * * * * * * * * * * * * * * * * * * * * * * * * * * * * * * * * * * //

dimensions      [0 1 -1 0 0 0 0];

internalField   nonuniform List<vector> 
52500
(
(3 1.65377e-08 -0.00571426)
(2.99998 9.18051e-08 -0.0057144)
(2.99996 3.42842e-07 -0.00571463)
(2.99988 8.86466e-07 -0.00571533)
(2.99974 2.44495e-06 -0.00571662)
(2.99931 5.68003e-06 -0.00572054)
(2.99849 1.4398e-05 -0.00572814)
(2.99592 3.48163e-05 -0.00574911)
(2.9914 7.67322e-05 -0.005799)
(2.97451 0.000202211 -0.00590257)
(2.94431 0.000414622 -0.00628709)
(2.83132 0.00106481 -0.00684488)
(2.52077 0.00296309 -0.00947084)
(1.77803 0.00751727 -0.0143967)
(0.788758 0.0212187 -0.0178226)
(0.499289 0.021444 -0.018491)
(0.55615 0.0226807 -0.018512)
(0.570167 0.0249216 -0.0185634)
(0.520701 0.027098 -0.0187441)
(0.433725 0.0291854 -0.0189278)
(0.347533 0.031726 -0.0191237)
(0.276736 0.0348964 -0.019294)
(0.206097 0.038369 -0.0194553)
(0.12484 0.0425786 -0.0196122)
(0.0559363 0.0490674 -0.0197794)
(3 4.68421e-08 -0.00571426)
(2.99998 2.60129e-07 -0.0057144)
(2.99996 9.68957e-07 -0.00571462)
(2.99988 2.49625e-06 -0.00571531)
(2.99974 6.8764e-06 -0.00571658)
(2.99932 1.58575e-05 -0.00572043)
(2.99851 4.0692e-05 -0.00572793)
(2.99597 9.46338e-05 -0.00574842)
(2.99154 0.000226921 -0.00579802)
(2.97479 0.000540931 -0.00589887)
(2.94505 0.00133054 -0.00628223)
(2.83327 0.00318258 -0.00682789)
(2.52651 0.00918233 -0.00943451)
(1.79138 0.0235371 -0.0143078)
(0.796491 0.0649308 -0.0177185)
(0.496384 0.0624785 -0.0184182)
(0.555158 0.0635191 -0.0184362)
(0.569878 0.0678586 -0.0184792)
(0.519994 0.0718687 -0.0186521)
(0.432886 0.0755969 -0.0188283)
(0.34674 0.0801057 -0.0190165)
(0.275367 0.0854427 -0.0191765)
(0.203523 0.090614 -0.0193298)
(0.120784 0.0959219 -0.0194745)
(0.0515745 0.101944 -0.0196238)
(3 7.49331e-08 -0.00571426)
(2.99998 4.1576e-07 -0.0057144)
(2.99996 1.54929e-06 -0.00571461)
(2.99989 3.98481e-06 -0.00571528)
(2.99975 1.09939e-05 -0.00571651)
(2.99934 2.52813e-05 -0.00572025)
(2.99856 6.54853e-05 -0.00572756)
(2.99608 0.000149356 -0.00574737)
(2.99177 0.000376076 -0.00579595)
(2.97542 0.000847094 -0.00589319)
(2.94657 0.00231441 -0.00626874)
(2.83733 0.00537864 -0.00679405)
(2.53941 0.0154461 -0.00935614)
(1.82165 0.0405697 -0.014132)
(0.814844 0.112312 -0.0175667)
(0.492277 0.106053 -0.0183348)
(0.555126 0.106823 -0.0183503)
(0.571619 0.114185 -0.0183846)
(0.521402 0.121363 -0.0185499)
(0.434654 0.128713 -0.0187172)
(0.349261 0.137247 -0.0188953)
(0.277839 0.146798 -0.019047)
(0.205203 0.156104 -0.0191881)
(0.121315 0.165051 -0.0193219)
(0.0505301 0.172917 -0.0194595)
(3 9.92261e-08 -0.00571425)
(2.99998 5.49315e-07 -0.00571439)
(2.99996 2.05193e-06 -0.0057146)
(2.99989 5.27019e-06 -0.00571524)
(2.99976 1.45902e-05 -0.00571642)
(2.99937 3.35085e-05 -0.00571999)
(2.99862 8.76068e-05 -0.00572701)
(2.99623 0.000197929 -0.0057458)
(2.99213 0.000513868 -0.00579286)
(2.97638 0.00113365 -0.00588469)
(2.94893 0.003226 -0.00624784)
(2.84334 0.00737776 -0.0067424)
(2.55918 0.0222527 -0.00924494)
(1.86827 0.0578359 -0.0138736)
(0.841239 0.161388 -0.0173717)
(0.48434 0.15024 -0.0182456)
(0.55483 0.149817 -0.0182579)
(0.574947 0.159919 -0.0182777)
(0.525028 0.170243 -0.0184331)
(0.439444 0.181525 -0.0185901)
(0.355402 0.194405 -0.0187513)
(0.284352 0.208695 -0.0188866)
(0.211071 0.222948 -0.0190269)
(0.125556 0.236339 -0.0191548)
(0.0517481 0.246509 -0.0192893)
(3 1.15059e-07 -0.00571425)
(2.99998 6.35731e-07 -0.00571438)
(2.99996 2.3783e-06 -0.00571458)
(2.9999 6.08867e-06 -0.00571518)
(2.99977 1.69127e-05 -0.0057163)
(2.9994 3.8632e-05 -0.00571968)
(2.99869 0.000102695 -0.00572633)
(2.99643 0.000225356 -0.00574399)
(2.99256 0.000626343 -0.00578872)
(2.97764 0.00131452 -0.00587476)
(2.95191 0.004038 -0.00621911)
(2.85191 0.00878437 -0.00668059)
(2.58649 0.0305213 -0.00906597)
(1.93277 0.0754575 -0.0135013)
(0.87977 0.213095 -0.0171177)
(0.476665 0.195856 -0.0181421)
(0.556993 0.192704 -0.0181497)
(0.581988 0.204959 -0.0181545)
(0.532547 0.218153 -0.018297)
(0.448482 0.233486 -0.0184468)
(0.365976 0.250771 -0.0186026)
(0.295456 0.270011 -0.0187174)
(0.221474 0.289819 -0.0188214)
(0.13341 0.308569 -0.0189483)
(0.0549893 0.321879 -0.0190716)
(3 1.20185e-07 -0.00571425)
(2.99999 6.63673e-07 -0.00571437)
(2.99996 2.47556e-06 -0.00571456)
(2.9999 6.29596e-06 -0.00571513)
(2.99979 1.74571e-05 -0.00571617)
(2.99944 3.93221e-05 -0.00571934)
(2.99877 0.000107331 -0.00572554)
(2.99667 0.000216835 -0.00574223)
(2.99304 0.000708047 -0.00578347)
(2.97917 0.00123204 -0.00586501)
(2.95531 0.00497112 -0.00618164)
(2.86357 0.00966654 -0.00661953)
(2.62177 0.0383073 -0.00878266)
(2.0166 0.0917172 -0.0129857)
(0.935483 0.264119 -0.0167852)
(0.474942 0.243262 -0.0180124)
(0.565305 0.236528 -0.0180249)
(0.595728 0.249957 -0.0180018)
(0.546604 0.265477 -0.0181432)
(0.464123 0.285085 -0.0182546)
(0.382847 0.307393 -0.0184051)
(0.31261 0.332534 -0.0185295)
(0.237611 0.35922 -0.0186215)
(0.146013 0.385345 -0.0187161)
(0.06075 0.404107 -0.0188464)
(3 1.37057e-07 -0.00571425)
(2.99999 7.57557e-07 -0.00571436)
(2.99997 2.82255e-06 -0.00571453)
(2.99991 7.20259e-06 -0.00571507)
(2.9998 1.99224e-05 -0.00571605)
(2.99948 4.50965e-05 -0.00571905)
(2.99884 0.000121827 -0.00572473)
(2.99693 0.000250543 -0.00574132)
(2.99341 0.000801729 -0.00577702)
(2.98113 0.00133805 -0.00585972)
(2.95912 0.00574542 -0.00612558)
(2.87742 0.0106868 -0.00655061)
(2.66449 0.042762 -0.00842076)
(2.11938 0.102825 -0.0123274)
(1.0127 0.306208 -0.0163687)
(0.488482 0.29184 -0.0178403)
(0.583842 0.284335 -0.0178588)
(0.618742 0.296941 -0.017829)
(0.569728 0.313308 -0.0179764)
(0.488933 0.336763 -0.0180804)
(0.408649 0.364518 -0.0181743)
(0.338518 0.396678 -0.0182673)
(0.262311 0.432319 -0.0183503)
(0.166226 0.469251 -0.0184335)
(0.0710815 0.498339 -0.0185262)
(3 1.59474e-07 -0.00571425)
(2.99999 8.81371e-07 -0.00571435)
(2.99997 3.28543e-06 -0.00571451)
(2.99992 8.42799e-06 -0.00571499)
(2.99982 2.32913e-05 -0.00571588)
(2.99952 5.32975e-05 -0.0057186)
(2.99894 0.000140346 -0.00572376)
(2.99723 0.00030934 -0.00573885)
(2.99395 0.000857159 -0.00577042)
(2.98323 0.00170309 -0.00584881)
(2.96329 0.00575821 -0.00607112)
(2.89221 0.0112372 -0.00647304)
(2.70952 0.041901 -0.00804949)
(2.23426 0.102134 -0.0115822)
(1.11366 0.312113 -0.0158771)
(0.529362 0.33506 -0.0176035)
(0.617015 0.337209 -0.0176053)
(0.651888 0.346298 -0.0175814)
(0.603404 0.362164 -0.0177227)
(0.52515 0.389484 -0.0178597)
(0.445656 0.423218 -0.0179524)
(0.37564 0.463456 -0.01801)
(0.298982 0.510192 -0.0180486)
(0.198864 0.563137 -0.0180803)
(0.0895898 0.613248 -0.0181497)
(3 1.74197e-07 -0.00571425)
(2.99999 9.56307e-07 -0.00571434)
(2.99997 3.55193e-06 -0.00571448)
(2.99993 9.10084e-06 -0.00571491)
(2.99984 2.50218e-05 -0.00571571)
(2.99957 5.72193e-05 -0.00571814)
(2.99905 0.000149204 -0.00572275)
(2.99753 0.000332228 -0.0057363)
(2.99457 0.000869305 -0.00576426)
(2.98517 0.00191747 -0.00583556)
(2.96722 0.00528565 -0.00602628)
(2.90569 0.0117053 -0.00640052)
(2.74946 0.0363872 -0.00772556)
(2.33544 0.0899482 -0.010926)
(1.22719 0.272008 -0.0154423)
(0.587054 0.370415 -0.0173635)
(0.649073 0.39687 -0.0173796)
(0.681654 0.395784 -0.0173646)
(0.640696 0.411809 -0.0174907)
(0.569715 0.442199 -0.0175505)
(0.493615 0.483145 -0.0176328)
(0.42558 0.532195 -0.0176725)
(0.351745 0.592113 -0.0176696)
(0.253273 0.669714 -0.0176241)
(0.125202 0.763599 -0.017518)
(3 3.08477e-07 -0.00571425)
(2.99999 5.50781e-07 -0.00571433)
(2.99998 4.49569e-06 -0.00571445)
(2.99994 6.61821e-06 -0.00571482)
(2.99986 3.04565e-05 -0.00571552)
(2.99963 4.27398e-05 -0.00571762)
(2.99917 0.000182141 -0.00572168)
(2.99783 0.000240917 -0.00573335)
(2.99527 0.00110413 -0.00575822)
(2.98688 0.00116742 -0.00581877)
(2.97158 0.00727711 -0.00599345)
(2.91676 0.005502 -0.00630401)
(2.78045 0.0465395 -0.00752897)
(2.41124 0.0648203 -0.0102443)
(1.35705 0.252186 -0.0151555)
(0.659104 0.423749 -0.0171298)
(0.664916 0.451319 -0.0171083)
(0.690878 0.444643 -0.0171855)
(0.671611 0.462121 -0.0172737)
(0.615505 0.493539 -0.017336)
(0.549003 0.54151 -0.0173309)
(0.487688 0.599392 -0.0173046)
(0.426106 0.677627 -0.0172082)
(0.346075 0.797173 -0.0170059)
(0.193995 1.00541 -0.0165937)
(2.99999 1.70409e-08 -2.58689e-09)
(2.99998 9.20206e-08 -8.65717e-09)
(2.99996 3.44297e-07 -1.01542e-08)
(2.99988 8.85474e-07 -1.60262e-08)
(2.99973 2.44912e-06 -1.64874e-08)
(2.99931 5.68074e-06 -2.2084e-08)
(2.99849 1.44021e-05 -2.30825e-08)
(2.99592 3.48e-05 -3.39703e-08)
(2.9914 7.67383e-05 -3.10033e-08)
(2.97451 0.000202084 -8.95898e-08)
(2.9443 0.0004146 -1.09093e-08)
(2.8313 0.00106443 -2.2402e-07)
(2.52075 0.0029622 -1.07331e-07)
(1.77796 0.00751455 -5.5946e-07)
(0.788746 0.0212078 -5.73899e-07)
(0.49935 0.0214347 1.02104e-08)
(0.556193 0.0226759 -5.39956e-08)
(0.570202 0.0249198 -8.67384e-08)
(0.520734 0.0270988 -8.47959e-08)
(0.433754 0.029188 -8.09664e-08)
(0.347554 0.0317304 -8.22257e-08)
(0.27675 0.034901 -8.33562e-08)
(0.206104 0.0383724 -8.34238e-08)
(0.124842 0.0425804 -8.38437e-08)
(0.0559371 0.0490682 -8.42349e-08)
(2.99999 4.81715e-08 -2.57693e-09)
(2.99998 2.61108e-07 -8.66272e-09)
(2.99996 9.74014e-07 -1.01349e-08)
(2.99988 2.49939e-06 -1.60778e-08)
(2.99974 6.89881e-06 -1.64143e-08)
(2.99932 1.58954e-05 -2.21656e-08)
(2.99851 4.07804e-05 -2.30969e-08)
(2.99597 9.49125e-05 -3.44797e-08)
(2.99154 0.000227115 -3.09106e-08)
(2.97479 0.000542776 -9.27136e-08)
(2.94504 0.0013288 -9.86411e-09)
(2.83325 0.00318471 -2.31545e-07)
(2.52648 0.00917753 -1.12908e-07)
(1.7913 0.0235289 -5.82006e-07)
(0.796461 0.0649128 -6.11435e-07)
(0.496411 0.0624705 2.16781e-08)
(0.555166 0.0635192 -3.83828e-08)
(0.569879 0.0678614 -8.11024e-08)
(0.519996 0.071873 -8.19348e-08)
(0.432888 0.0756019 -7.98261e-08)
(0.346743 0.0801122 -7.74851e-08)
(0.27537 0.0854495 -7.8353e-08)
(0.203526 0.0906194 -7.92809e-08)
(0.120786 0.0959252 -8.04519e-08)
(0.0515755 0.101946 -8.15209e-08)
(2.99999 7.68581e-08 -2.5602e-09)
(2.99998 4.17164e-07 -8.66125e-09)
(2.99996 1.5557e-06 -1.00785e-08)
(2.99989 3.98795e-06 -1.60575e-08)
(2.99975 1.10201e-05 -1.61304e-08)
(2.99934 2.53231e-05 -2.17426e-08)
(2.99855 6.55835e-05 -2.21043e-08)
(2.99607 0.000149662 -3.0209e-08)
(2.99177 0.000376302 -3.23979e-08)
(2.97541 0.000849078 -5.81429e-08)
(2.94656 0.00231268 -7.24829e-08)
(2.83731 0.00538119 -1.64352e-07)
(2.53937 0.0154421 -1.91273e-07)
(1.82155 0.0405638 -6.246e-07)
(0.814801 0.112301 -6.57427e-07)
(0.492306 0.106052 5.40964e-08)
(0.555134 0.106826 -1.88225e-08)
(0.571617 0.114189 -7.84584e-08)
(0.521399 0.121368 -8.17364e-08)
(0.434652 0.128717 -8.08271e-08)
(0.349261 0.137253 -7.38451e-08)
(0.27784 0.146805 -7.35168e-08)
(0.205205 0.15611 -7.44764e-08)
(0.121316 0.165055 -7.62944e-08)
(0.0505309 0.17292 -7.77862e-08)
(3 1.01524e-07 -2.53819e-09)
(2.99998 5.50996e-07 -8.66776e-09)
(2.99996 2.05653e-06 -1.0039e-08)
(2.99989 5.27039e-06 -1.61276e-08)
(2.99976 1.46031e-05 -1.5971e-08)
(2.99937 3.35188e-05 -2.17817e-08)
(2.99861 8.7633e-05 -2.19406e-08)
(2.99623 0.000197965 -3.02524e-08)
(2.99212 0.000513947 -3.19423e-08)
(2.97637 0.00113378 -5.86643e-08)
(2.94891 0.00322612 -7.35428e-08)
(2.84333 0.00737828 -1.64629e-07)
(2.55914 0.0222523 -1.96448e-07)
(1.86817 0.0578361 -6.41902e-07)
(0.841198 0.161383 -6.96558e-07)
(0.484371 0.15024 6.77333e-08)
(0.554839 0.149819 -1.37707e-08)
(0.574944 0.159921 -7.94681e-08)
(0.525023 0.170246 -8.23831e-08)
(0.439441 0.181528 -8.09039e-08)
(0.355401 0.19441 -7.20186e-08)
(0.284352 0.2087 -7.06607e-08)
(0.211072 0.222954 -7.11957e-08)
(0.125557 0.236343 -7.27799e-08)
(0.0517488 0.246513 -7.41742e-08)
(3 1.17421e-07 -2.51407e-09)
(2.99998 6.38112e-07 -8.6679e-09)
(2.99996 2.38042e-06 -1.00248e-08)
(2.9999 6.09661e-06 -1.61402e-08)
(2.99977 1.69178e-05 -1.58993e-08)
(2.9994 3.86502e-05 -2.17512e-08)
(2.99869 0.000102726 -2.17996e-08)
(2.99643 0.000225445 -2.99544e-08)
(2.99255 0.000626469 -3.16013e-08)
(2.97764 0.00131492 -5.70639e-08)
(2.9519 0.0040386 -7.29761e-08)
(2.85189 0.00878592 -1.57838e-07)
(2.58645 0.0305223 -2.09268e-07)
(1.93266 0.0754613 -6.40854e-07)
(0.879726 0.213093 -7.41524e-07)
(0.476694 0.195859 8.14395e-08)
(0.556998 0.192708 -8.88297e-09)
(0.581981 0.204962 -8.0187e-08)
(0.532539 0.218157 -8.31156e-08)
(0.448475 0.233489 -8.11122e-08)
(0.365973 0.250775 -7.14562e-08)
(0.295454 0.270016 -6.89432e-08)
(0.221473 0.289824 -6.87176e-08)
(0.13341 0.308574 -6.94874e-08)
(0.0549897 0.321884 -7.04473e-08)
(3 1.2174e-07 -2.49081e-09)
(2.99998 6.67299e-07 -8.66139e-09)
(2.99996 2.47365e-06 -1.00457e-08)
(2.9999 6.30774e-06 -1.60169e-08)
(2.99978 1.74494e-05 -1.60054e-08)
(2.99944 3.93303e-05 -2.15354e-08)
(2.99877 0.000107328 -2.1655e-08)
(2.99666 0.000216791 -2.90943e-08)
(2.99303 0.000708158 -3.11467e-08)
(2.97917 0.00123109 -5.31832e-08)
(2.9553 0.00497348 -6.98e-08)
(2.86355 0.00966624 -1.47705e-07)
(2.62172 0.0383141 -2.09612e-07)
(2.01649 0.091729 -6.25665e-07)
(0.935433 0.264133 -7.99713e-07)
(0.474962 0.243269 8.51276e-08)
(0.565305 0.236532 -8.40348e-09)
(0.59572 0.24996 -7.99349e-08)
(0.546597 0.26548 -8.3076e-08)
(0.464117 0.285088 -8.16611e-08)
(0.382844 0.307396 -7.2123e-08)
(0.312608 0.332538 -6.8799e-08)
(0.23761 0.359223 -6.78781e-08)
(0.146013 0.38535 -6.7252e-08)
(0.0607502 0.404112 -6.78173e-08)
(3 1.39066e-07 -2.48285e-09)
(2.99999 7.61086e-07 -8.62278e-09)
(2.99997 2.82361e-06 -1.01271e-08)
(2.99991 7.21362e-06 -1.58856e-08)
(2.9998 1.99299e-05 -1.62318e-08)
(2.99947 4.51282e-05 -2.14993e-08)
(2.99884 0.000121888 -2.19732e-08)
(2.99693 0.00025071 -3.07893e-08)
(2.9934 0.000801972 -2.87334e-08)
(2.98113 0.0013388 -7.713e-08)
(2.95911 0.00574708 -1.59782e-08)
(2.87741 0.0106892 -1.98596e-07)
(2.66446 0.0427669 -1.15436e-07)
(2.1193 0.102838 -5.75704e-07)
(1.01267 0.306229 -7.90177e-07)
(0.488514 0.291847 4.8377e-08)
(0.583853 0.284336 -2.76962e-08)
(0.618743 0.296943 -8.50032e-08)
(0.569728 0.31331 -8.6751e-08)
(0.488933 0.336765 -8.32279e-08)
(0.40865 0.36452 -7.41745e-08)
(0.338519 0.396681 -7.03463e-08)
(0.262312 0.432323 -6.88118e-08)
(0.166226 0.469256 -6.70877e-08)
(0.0710819 0.498345 -6.6477e-08)
(3 1.62429e-07 -2.45062e-09)
(2.99999 8.83532e-07 -8.62582e-09)
(2.99997 3.28961e-06 -1.00912e-08)
(2.99992 8.43501e-06 -1.58303e-08)
(2.99982 2.3309e-05 -1.6045e-08)
(2.99952 5.33386e-05 -2.10883e-08)
(2.99894 0.000140445 -2.10501e-08)
(2.99723 0.000309655 -2.70268e-08)
(2.99394 0.000857477 -2.94943e-08)
(2.98323 0.00170534 -4.35221e-08)
(2.96328 0.00575859 -5.12633e-08)
(2.8922 0.0112423 -1.33481e-07)
(2.70949 0.0419053 -1.57906e-07)
(2.23418 0.102152 -5.03696e-07)
(1.11361 0.312164 -7.87143e-07)
(0.529366 0.335073 -4.64575e-09)
(0.617018 0.337211 -4.75564e-08)
(0.651889 0.346299 -8.57419e-08)
(0.603406 0.362165 -8.66024e-08)
(0.525154 0.389486 -8.28509e-08)
(0.445661 0.423221 -7.58038e-08)
(0.375644 0.463459 -7.2131e-08)
(0.298985 0.510196 -6.97986e-08)
(0.198866 0.563142 -6.69521e-08)
(0.0895907 0.613254 -6.59165e-08)
(3 1.73738e-07 -2.42382e-09)
(2.99999 9.57896e-07 -8.62985e-09)
(2.99997 3.54554e-06 -1.00942e-08)
(2.99993 9.09075e-06 -1.58285e-08)
(2.99983 2.50025e-05 -1.60213e-08)
(2.99957 5.71907e-05 -2.10273e-08)
(2.99905 0.000149156 -2.0833e-08)
(2.99752 0.000332137 -2.65121e-08)
(2.99457 0.000869313 -2.82457e-08)
(2.98517 0.00191609 -4.05607e-08)
(2.96721 0.00528697 -4.43593e-08)
(2.90568 0.0117041 -1.19952e-07)
(2.74944 0.0363945 -1.04975e-07)
(2.33539 0.0899641 -3.60357e-07)
(1.22715 0.272067 -4.5643e-07)
(0.587063 0.37042 -1.74708e-07)
(0.649087 0.396867 -9.45723e-08)
(0.681664 0.395782 -9.39222e-08)
(0.640705 0.41181 -9.03274e-08)
(0.569724 0.442202 -8.23292e-08)
(0.493623 0.483148 -7.66776e-08)
(0.425587 0.532199 -7.33438e-08)
(0.351751 0.592117 -7.12475e-08)
(0.253277 0.66972 -6.68583e-08)
(0.125204 0.763606 -6.5177e-08)
(3 2.94016e-07 -2.4598e-09)
(2.99999 6.0383e-07 -8.58575e-09)
(2.99998 4.38491e-06 -1.02368e-08)
(2.99994 6.65046e-06 -1.59157e-08)
(2.99986 3.03257e-05 -1.62219e-08)
(2.99963 4.27659e-05 -2.12741e-08)
(2.99917 0.000182006 -2.14305e-08)
(2.99783 0.000240954 -2.78599e-08)
(2.99527 0.00110394 -2.74136e-08)
(2.98688 0.00116775 -7.06817e-08)
(2.97157 0.0072761 -3.21267e-09)
(2.91676 0.00550617 -1.7616e-07)
(2.78044 0.046536 -1.81376e-08)
(2.41121 0.064834 -3.48379e-07)
(1.35701 0.252206 -3.92578e-07)
(0.659094 0.423745 -3.74009e-07)
(0.664938 0.451316 -1.19775e-07)
(0.690898 0.444644 -9.23996e-08)
(0.671627 0.462123 -8.35809e-08)
(0.615519 0.493543 -8.13831e-08)
(0.549015 0.541514 -7.75177e-08)
(0.487698 0.599396 -7.55184e-08)
(0.426115 0.677632 -7.13892e-08)
(0.346082 0.797179 -6.47632e-08)
(0.193999 1.00542 -6.20401e-08)
(2.99999 1.7041e-08 -4.44369e-13)
(2.99998 9.20217e-08 -2.3268e-12)
(2.99996 3.44301e-07 -5.39268e-12)
(2.99988 8.85478e-07 -1.13297e-11)
(2.99973 2.44914e-06 -2.30122e-11)
(2.99931 5.68078e-06 -4.42924e-11)
(2.99849 1.44022e-05 -9.70298e-11)
(2.99592 3.48002e-05 -2.07829e-10)
(2.9914 7.67385e-05 -4.23408e-10)
(2.97451 0.000202086 -1.12329e-09)
(2.9443 0.000414599 -1.98906e-09)
(2.8313 0.00106443 -5.58047e-09)
(2.52075 0.00296219 -1.30485e-08)
(1.77795 0.00751452 -3.25453e-08)
(0.788742 0.0212077 -4.28524e-08)
(0.499352 0.0214346 2.8273e-09)
(0.556194 0.0226758 -1.22699e-09)
(0.570202 0.0249198 -4.7807e-09)
(0.520734 0.0270988 -4.96204e-09)
(0.433754 0.0291881 -4.9214e-09)
(0.347554 0.0317304 -4.65341e-09)
(0.276749 0.0349011 -4.52523e-09)
(0.206104 0.0383724 -4.44707e-09)
(0.124842 0.0425804 -4.37551e-09)
(0.055937 0.0490681 -4.30979e-09)
(2.99999 4.81723e-08 -4.4258e-13)
(2.99998 2.61113e-07 -2.30916e-12)
(2.99996 9.74032e-07 -5.33811e-12)
(2.99988 2.49943e-06 -1.13495e-11)
(2.99974 6.89893e-06 -2.26547e-11)
(2.99932 1.58957e-05 -4.39885e-11)
(2.99851 4.0781e-05 -9.6205e-11)
(2.99597 9.49145e-05 -2.05707e-10)
(2.99154 0.000227116 -4.2484e-10)
(2.97479 0.000542789 -1.1042e-09)
(2.94504 0.00132879 -2.03998e-09)
(2.83325 0.00318472 -5.52637e-09)
(2.52648 0.00917757 -1.32283e-08)
(1.79129 0.0235288 -3.28192e-08)
(0.796457 0.0649126 -4.35572e-08)
(0.496413 0.0624705 3.00874e-09)
(0.555167 0.0635192 -1.14348e-09)
(0.569879 0.0678614 -4.71638e-09)
(0.519995 0.0718731 -4.88313e-09)
(0.432888 0.0756019 -4.82821e-09)
(0.346743 0.0801123 -4.57979e-09)
(0.27537 0.0854495 -4.49016e-09)
(0.203525 0.0906193 -4.44409e-09)
(0.120786 0.0959252 -4.39956e-09)
(0.0515754 0.101946 -4.36378e-09)
(2.99999 7.68591e-08 -4.28577e-13)
(2.99998 4.17169e-07 -2.24469e-12)
(2.99996 1.55571e-06 -5.12739e-12)
(2.99989 3.988e-06 -1.08962e-11)
(2.99975 1.10202e-05 -2.13284e-11)
(2.99934 2.53234e-05 -4.10223e-11)
(2.99855 6.55841e-05 -9.00948e-11)
(2.99607 0.000149664 -1.78975e-10)
(2.99177 0.000376303 -4.34603e-10)
(2.97541 0.000849091 -8.82426e-10)
(2.94656 0.00231267 -2.46428e-09)
(2.83731 0.00538119 -5.35954e-09)
(2.53937 0.0154421 -1.24511e-08)
(1.82154 0.0405638 -3.41893e-08)
(0.814798 0.1123 -4.4526e-08)
(0.492308 0.106051 3.44726e-09)
(0.555135 0.106826 -1.19861e-09)
(0.571617 0.114189 -4.74802e-09)
(0.521399 0.121368 -4.84852e-09)
(0.434652 0.128717 -4.73645e-09)
(0.349261 0.137253 -4.51958e-09)
(0.27784 0.146805 -4.47678e-09)
(0.205205 0.15611 -4.44936e-09)
(0.121317 0.165055 -4.45576e-09)
(0.0505309 0.17292 -4.45451e-09)
(3 1.01525e-07 -4.23204e-13)
(2.99998 5.51003e-07 -2.21495e-12)
(2.99996 2.05656e-06 -5.0507e-12)
(2.99989 5.27045e-06 -1.0734e-11)
(2.99976 1.46032e-05 -2.09839e-11)
(2.99937 3.35192e-05 -4.03878e-11)
(2.99861 8.76339e-05 -8.88956e-11)
(2.99623 0.000197968 -1.77972e-10)
(2.99212 0.00051395 -4.31358e-10)
(2.97637 0.0011338 -8.84797e-10)
(2.94891 0.00322613 -2.49731e-09)
(2.84332 0.00737834 -5.36081e-09)
(2.55913 0.0222521 -1.28059e-08)
(1.86816 0.0578359 -3.48695e-08)
(0.841195 0.161382 -4.6617e-08)
(0.484374 0.15024 4.09546e-09)
(0.55484 0.149819 -1.0283e-09)
(0.574944 0.159921 -4.7018e-09)
(0.525023 0.170246 -4.77342e-09)
(0.439441 0.181528 -4.64757e-09)
(0.355401 0.19441 -4.43784e-09)
(0.284352 0.2087 -4.415e-09)
(0.211072 0.222954 -4.41017e-09)
(0.125557 0.236343 -4.45337e-09)
(0.0517488 0.246513 -4.48814e-09)
(3 1.17422e-07 -4.03588e-13)
(2.99998 6.38118e-07 -2.12963e-12)
(2.99996 2.38044e-06 -4.758e-12)
(2.9999 6.09666e-06 -1.00976e-11)
(2.99977 1.69179e-05 -1.91048e-11)
(2.9994 3.86505e-05 -3.60545e-11)
(2.99869 0.000102727 -8.00079e-11)
(2.99643 0.000225447 -1.42107e-10)
(2.99255 0.000626472 -4.29254e-10)
(2.97763 0.00131494 -6.83381e-10)
(2.9519 0.00403861 -2.56098e-09)
(2.85189 0.00878597 -4.37218e-09)
(2.58645 0.0305221 -1.66943e-08)
(1.93266 0.0754611 -3.5165e-08)
(0.879722 0.213092 -5.12497e-08)
(0.476695 0.195858 5.31023e-09)
(0.556998 0.192707 -2.59775e-10)
(0.581981 0.204962 -4.48757e-09)
(0.532539 0.218157 -4.62607e-09)
(0.448475 0.233489 -4.55182e-09)
(0.365973 0.250775 -4.29712e-09)
(0.295455 0.270016 -4.27011e-09)
(0.221473 0.289824 -4.29501e-09)
(0.13341 0.308574 -4.35754e-09)
(0.0549897 0.321884 -4.41269e-09)
(3 1.21741e-07 -3.99955e-13)
(2.99998 6.67305e-07 -2.11183e-12)
(2.99996 2.47367e-06 -4.71666e-12)
(2.9999 6.30781e-06 -9.9972e-12)
(2.99978 1.74495e-05 -1.89752e-11)
(2.99944 3.93307e-05 -3.58769e-11)
(2.99877 0.000107329 -7.99223e-11)
(2.99666 0.000216793 -1.44763e-10)
(2.99303 0.00070816 -4.29339e-10)
(2.97917 0.00123111 -7.0663e-10)
(2.9553 0.00497347 -2.61594e-09)
(2.86355 0.00966628 -4.47573e-09)
(2.62172 0.0383141 -1.70388e-08)
(2.01648 0.091729 -3.62427e-08)
(0.935429 0.264132 -5.65754e-08)
(0.474963 0.243268 6.48334e-09)
(0.565305 0.236531 3.84714e-10)
(0.595719 0.24996 -4.49024e-09)
(0.546596 0.26548 -4.66734e-09)
(0.464117 0.285088 -4.5695e-09)
(0.382844 0.307396 -4.14871e-09)
(0.312608 0.332538 -4.07173e-09)
(0.23761 0.359224 -4.10018e-09)
(0.146013 0.38535 -4.13397e-09)
(0.0607502 0.404112 -4.21246e-09)
(3 1.39067e-07 -3.79278e-13)
(2.99999 7.61088e-07 -2.04029e-12)
(2.99997 2.82362e-06 -4.45573e-12)
(2.99991 7.21365e-06 -9.22415e-12)
(2.9998 1.993e-05 -1.72723e-11)
(2.99947 4.51283e-05 -3.13673e-11)
(2.99884 0.000121888 -7.02916e-11)
(2.99693 0.00025071 -1.04452e-10)
(2.9934 0.000801975 -4.38159e-10)
(2.98113 0.00133881 -3.24784e-10)
(2.95911 0.00574709 -3.18461e-09)
(2.87741 0.0106892 -3.51173e-09)
(2.66446 0.0427671 -1.77283e-08)
(2.11929 0.102838 -3.59678e-08)
(1.01267 0.30623 -6.1874e-08)
(0.488514 0.291846 5.36865e-09)
(0.583852 0.284335 7.77312e-10)
(0.618741 0.296943 -4.4024e-09)
(0.569727 0.31331 -4.73154e-09)
(0.488932 0.336765 -4.71369e-09)
(0.408649 0.36452 -4.04985e-09)
(0.338519 0.396681 -3.90111e-09)
(0.262311 0.432323 -3.94708e-09)
(0.166226 0.469256 -3.95527e-09)
(0.0710819 0.498345 -3.97104e-09)
(3 1.62428e-07 -3.90207e-13)
(2.99999 8.83532e-07 -2.07748e-12)
(2.99997 3.28961e-06 -4.61803e-12)
(2.99992 8.43501e-06 -9.61332e-12)
(2.99982 2.3309e-05 -1.8449e-11)
(2.99952 5.33385e-05 -3.44642e-11)
(2.99894 0.000140445 -7.50248e-11)
(2.99723 0.000309654 -1.41972e-10)
(2.99394 0.000857482 -3.8208e-10)
(2.98323 0.00170533 -6.88609e-10)
(2.96328 0.00575866 -2.47087e-09)
(2.8922 0.0112423 -3.79525e-09)
(2.70949 0.0419059 -1.56681e-08)
(2.23417 0.102153 -3.38408e-08)
(1.11361 0.312168 -6.54559e-08)
(0.529364 0.335074 9.96496e-10)
(0.617016 0.337211 -8.73308e-10)
(0.651887 0.346298 -4.66934e-09)
(0.603404 0.362165 -4.94848e-09)
(0.525153 0.389486 -4.89212e-09)
(0.44566 0.423221 -4.09657e-09)
(0.375643 0.463459 -3.84307e-09)
(0.298985 0.510196 -3.82102e-09)
(0.198866 0.563142 -3.72549e-09)
(0.0895906 0.613254 -3.69684e-09)
(3 1.73738e-07 -3.80195e-13)
(2.99999 9.57895e-07 -2.03341e-12)
(2.99997 3.54553e-06 -4.46539e-12)
(2.99993 9.09074e-06 -9.27951e-12)
(2.99983 2.50025e-05 -1.73706e-11)
(2.99957 5.71907e-05 -3.22038e-11)
(2.99905 0.000149155 -6.75268e-11)
(2.99752 0.000332136 -1.27445e-10)
(2.99457 0.000869317 -3.21283e-10)
(2.98517 0.00191607 -6.22714e-10)
(2.96721 0.00528703 -1.72282e-09)
(2.90568 0.0117041 -3.71186e-09)
(2.74944 0.0363951 -9.86075e-09)
(2.33539 0.0899655 -2.24591e-08)
(1.22714 0.272072 -3.82675e-08)
(0.587062 0.37042 -1.34982e-08)
(0.649087 0.396866 -5.30841e-09)
(0.681663 0.395781 -5.80062e-09)
(0.640703 0.411809 -5.6759e-09)
(0.569722 0.442201 -5.22093e-09)
(0.493622 0.483148 -4.49697e-09)
(0.425586 0.532198 -4.14326e-09)
(0.35175 0.592116 -4.02223e-09)
(0.253276 0.669719 -3.76581e-09)
(0.125204 0.763606 -3.61791e-09)
(3 2.94015e-07 -3.94196e-13)
(2.99999 6.03843e-07 -2.0873e-12)
(2.99998 4.38491e-06 -4.67109e-12)
(2.99994 6.65052e-06 -9.6652e-12)
(2.99986 3.03259e-05 -1.88087e-11)
(2.99963 4.27663e-05 -3.49568e-11)
(2.99917 0.000182007 -7.72031e-11)
(2.99783 0.000240956 -1.53373e-10)
(2.99527 0.00110395 -3.03236e-10)
(2.98688 0.00116776 -1.21949e-09)
(2.97157 0.00727615 -7.83408e-10)
(2.91676 0.00550626 -5.22537e-09)
(2.78044 0.0465363 -6.99896e-09)
(2.4112 0.0648347 -2.12578e-08)
(1.35701 0.252209 -3.71208e-08)
(0.659091 0.423744 -3.1641e-08)
(0.664938 0.451315 -7.79304e-09)
(0.690898 0.444643 -5.55481e-09)
(0.671627 0.462123 -5.38264e-09)
(0.615518 0.493542 -5.34353e-09)
(0.549014 0.541513 -4.98719e-09)
(0.487697 0.599395 -4.76177e-09)
(0.426114 0.677632 -4.38502e-09)
(0.346081 0.797178 -3.95401e-09)
(0.193999 1.00542 -4.01183e-09)
(2.99999 1.7041e-08 -4.47211e-14)
(2.99998 9.20217e-08 -1.97567e-13)
(2.99996 3.44301e-07 -6.59588e-13)
(2.99988 8.85478e-07 -1.43686e-12)
(2.99973 2.44915e-06 -4.08479e-12)
(2.99931 5.68078e-06 -8.52719e-12)
(2.99849 1.44022e-05 -2.2961e-11)
(2.99592 3.48002e-05 -5.25846e-11)
(2.9914 7.67385e-05 -1.14689e-10)
(2.97451 0.000202086 -3.15982e-10)
(2.9443 0.000414599 -5.8413e-10)
(2.8313 0.00106443 -1.64357e-09)
(2.52075 0.00296219 -3.99632e-09)
(1.77795 0.00751452 -1.00164e-08)
(0.788742 0.0212077 -1.34473e-08)
(0.499352 0.0214346 6.3504e-10)
(0.556194 0.0226758 -4.46867e-10)
(0.570202 0.0249198 -1.46896e-09)
(0.520734 0.0270988 -1.52446e-09)
(0.433754 0.0291881 -1.49797e-09)
(0.347554 0.0317304 -1.34483e-09)
(0.276749 0.0349011 -1.26828e-09)
(0.206104 0.0383724 -1.19463e-09)
(0.124842 0.0425804 -1.16643e-09)
(0.055937 0.0490681 -1.11868e-09)
(2.99999 4.81723e-08 -4.3926e-14)
(2.99998 2.61113e-07 -1.95057e-13)
(2.99996 9.74032e-07 -6.50474e-13)
(2.99988 2.49943e-06 -1.40884e-12)
(2.99974 6.89893e-06 -4.03912e-12)
(2.99932 1.58957e-05 -8.40819e-12)
(2.99851 4.0781e-05 -2.27501e-11)
(2.99597 9.49146e-05 -5.19797e-11)
(2.99154 0.000227116 -1.15047e-10)
(2.97479 0.00054279 -3.10581e-10)
(2.94504 0.00132879 -5.98993e-10)
(2.83325 0.00318472 -1.62836e-09)
(2.52648 0.00917757 -4.05173e-09)
(1.79129 0.0235288 -1.01041e-08)
(0.796457 0.0649126 -1.36723e-08)
(0.496413 0.0624705 6.86176e-10)
(0.555167 0.0635192 -4.21344e-10)
(0.569879 0.0678614 -1.45121e-09)
(0.519995 0.0718731 -1.50388e-09)
(0.432888 0.0756019 -1.47494e-09)
(0.346743 0.0801123 -1.32677e-09)
(0.27537 0.0854495 -1.26067e-09)
(0.203525 0.0906193 -1.19532e-09)
(0.120786 0.0959252 -1.17343e-09)
(0.0515754 0.101946 -1.13191e-09)
(2.99999 7.68591e-08 -4.01088e-14)
(2.99998 4.17169e-07 -1.78374e-13)
(2.99996 1.55571e-06 -5.92731e-13)
(2.99989 3.988e-06 -1.2827e-12)
(2.99975 1.10202e-05 -3.66394e-12)
(2.99934 2.53234e-05 -7.54876e-12)
(2.99855 6.55841e-05 -2.10104e-11)
(2.99607 0.000149664 -4.40605e-11)
(2.99177 0.000376303 -1.18468e-10)
(2.97541 0.000849091 -2.4504e-10)
(2.94656 0.00231267 -7.23988e-10)
(2.83731 0.00538119 -1.58239e-09)
(2.53937 0.0154421 -3.82743e-09)
(1.82154 0.0405638 -1.05257e-08)
(0.814798 0.1123 -1.40079e-08)
(0.492308 0.106051 8.08536e-10)
(0.555135 0.106826 -4.3188e-10)
(0.571617 0.114189 -1.46185e-09)
(0.521399 0.121368 -1.49919e-09)
(0.434652 0.128717 -1.4586e-09)
(0.349261 0.137253 -1.31831e-09)
(0.27784 0.146805 -1.26615e-09)
(0.205205 0.15611 -1.20592e-09)
(0.121317 0.165055 -1.19775e-09)
(0.0505309 0.17292 -1.16479e-09)
(3 1.01525e-07 -3.87309e-14)
(2.99998 5.51003e-07 -1.71682e-13)
(2.99996 2.05656e-06 -5.73714e-13)
(2.99989 5.27045e-06 -1.24084e-12)
(2.99976 1.46032e-05 -3.57542e-12)
(2.99937 3.35192e-05 -7.38224e-12)
(2.99861 8.76339e-05 -2.07014e-11)
(2.99623 0.000197968 -4.38168e-11)
(2.99212 0.00051395 -1.17804e-10)
(2.97637 0.0011338 -2.45963e-10)
(2.94891 0.00322613 -7.35403e-10)
(2.84332 0.00737834 -1.58506e-09)
(2.55913 0.0222521 -3.94701e-09)
(1.86816 0.0578359 -1.07559e-08)
(0.841195 0.161382 -1.47008e-08)
(0.484374 0.15024 9.95581e-10)
(0.55484 0.149819 -3.74066e-10)
(0.574944 0.159921 -1.45403e-09)
(0.525023 0.170246 -1.48791e-09)
(0.439441 0.181528 -1.45034e-09)
(0.355401 0.19441 -1.31239e-09)
(0.284352 0.2087 -1.2691e-09)
(0.211072 0.222954 -1.21639e-09)
(0.125557 0.236343 -1.21921e-09)
(0.0517488 0.246513 -1.1956e-09)
(3 1.17422e-07 -3.34042e-14)
(2.99998 6.38118e-07 -1.49163e-13)
(2.99996 2.38044e-06 -4.93381e-13)
(2.9999 6.09666e-06 -1.06537e-12)
(2.99977 1.69179e-05 -3.05004e-12)
(2.9994 3.86505e-05 -6.16077e-12)
(2.99869 0.000102727 -1.81966e-11)
(2.99643 0.000225447 -3.35187e-11)
(2.99255 0.000626472 -1.17568e-10)
(2.97763 0.00131494 -1.87687e-10)
(2.9519 0.00403861 -7.55886e-10)
(2.85189 0.00878598 -1.29604e-09)
(2.58645 0.030522 -5.108e-09)
(1.93266 0.0754611 -1.0868e-08)
(0.879722 0.213092 -1.61471e-08)
(0.476695 0.195858 1.34626e-09)
(0.556998 0.192707 -1.4635e-10)
(0.581981 0.204962 -1.40388e-09)
(0.532539 0.218157 -1.46175e-09)
(0.448475 0.233489 -1.44764e-09)
(0.365973 0.250775 -1.29825e-09)
(0.295455 0.270016 -1.2586e-09)
(0.221473 0.289824 -1.21646e-09)
(0.13341 0.308574 -1.22503e-09)
(0.0549897 0.321884 -1.20653e-09)
(3 1.21741e-07 -3.27563e-14)
(2.99998 6.67305e-07 -1.45601e-13)
(2.99996 2.47367e-06 -4.85359e-13)
(2.9999 6.30781e-06 -1.04744e-12)
(2.99978 1.74495e-05 -3.03394e-12)
(2.99944 3.93307e-05 -6.15497e-12)
(2.99877 0.000107329 -1.82788e-11)