/*--------------------------------*- C++ -*----------------------------------*\
| =========                 |                                                 |
| \\      /  F ield         | OpenFOAM: The Open Source CFD Toolbox           |
|  \\    /   O peration     | Version:  4.1                                   |
|   \\  /    A nd           | Web:      www.OpenFOAM.org                      |
|    \\/     M anipulation  |                                                 |
\*---------------------------------------------------------------------------*/
FoamFile
{
    version     2.0;
    format      ascii;
    class       volScalarField;
    location    "3.12";
    object      Ma;
}
// * * * * * * * * * * * * * * * * * * * * * * * * * * * * * * * * * * * * * //

dimensions      [0 0 0 0 0 0 0];

internalField   nonuniform List<scalar> 
52500
(
3.00002
2.99997
2.99992
2.99969
2.99938
2.9981
2.99627
2.98926
2.97752
2.93953
2.85282
2.65234
2.11909
1.28755
0.533954
0.270539
0.326665
0.343757
0.311006
0.256129
0.203836
0.162054
0.121459
0.0766263
0.0429227
3.00002
2.99997
2.99992
2.9997
2.99939
2.99813
2.99632
2.98939
2.97784
2.94032
2.85497
2.6569
2.13098
1.30263
0.541959
0.271246
0.328587
0.346399
0.313862
0.259782
0.208766
0.168437
0.129984
0.0901989
0.0656774
3.00002
2.99997
2.99992
2.99971
2.9994
2.99818
2.99642
2.98967
2.9785
2.94194
2.85949
2.66647
2.15683
1.3365
0.560766
0.275243
0.334704
0.354253
0.322569
0.270586
0.222472
0.185552
0.151899
0.120249
0.103731
3.00002
2.99998
2.99993
2.99972
2.99943
2.99825
2.99656
2.99005
2.97946
2.94426
2.86648
2.68096
2.19709
1.39027
0.590324
0.283485
0.34551
0.367737
0.337433
0.288369
0.243838
0.211021
0.182689
0.157831
0.14574
3.00002
2.99998
2.99993
2.99973
2.99945
2.99832
2.99673
2.99036
2.98064
2.94656
2.87702
2.70017
2.25348
1.46627
0.631984
0.299702
0.362757
0.387718
0.358816
0.313017
0.271928
0.243018
0.21935
0.199677
0.190627
3.00002
2.99998
2.99994
2.99975
2.99949
2.99844
2.99695
2.99101
2.98205
2.94995
2.88851
2.72273
2.31899
1.56175
0.684828
0.327039
0.388216
0.414466
0.386889
0.344317
0.306763
0.281511
0.262279
0.247324
0.241109
3.00002
2.99998
2.99994
2.99977
2.99954
2.99857
2.9972
2.99175
2.98357
2.95398
2.89936
2.74504
2.38719
1.66285
0.746163
0.366024
0.421709
0.446264
0.420529
0.381923
0.347946
0.326605
0.3119
0.302241
0.301299
3.00002
2.99999
2.99995
2.9998
2.99958
2.9987
2.99746
2.99251
2.9851
2.95809
2.90868
2.76789
2.43841
1.75443
0.803329
0.403261
0.448699
0.469919
0.451397
0.421143
0.393285
0.377636
0.369603
0.367895
0.376931
3.00002
2.99999
2.99996
2.99982
2.99963
2.99885
2.99776
2.99335
2.98677
2.96314
2.91749
2.7946
2.48226
1.86817
0.886272
0.462789
0.470756
0.483761
0.479207
0.459467
0.440969
0.433007
0.43411
0.446886
0.480871
3.00002
3
2.99997
2.99986
2.9997
2.99906
2.99811
2.99468
2.98851
2.96975
2.92557
2.82127
2.52673
1.97766
1.00026
0.536434
0.48748
0.50048
0.506314
0.496794
0.489784
0.492059
0.50921
0.552078
0.653028
3
2.99995
2.9999
2.99967
2.99936
2.99808
2.99625
2.98923
2.9775
2.9395
2.85278
2.65227
2.11902
1.28741
0.533818
0.270324
0.326473
0.343567
0.310793
0.255869
0.203507
0.161637
0.120895
0.0757174
0.0412545
3
2.99996
2.9999
2.99968
2.99937
2.99811
2.9963
2.98937
2.97782
2.94029
2.85494
2.65684
2.1309
1.3025
0.541826
0.271032
0.328396
0.346211
0.313652
0.259528
0.208448
0.168039
0.129463
0.0894374
0.0646142
3
2.99996
2.9999
2.99969
2.99938
2.99816
2.9964
2.98965
2.97848
2.9419
2.85945
2.6664
2.15676
1.33637
0.560635
0.275026
0.334513
0.354067
0.322363
0.270341
0.222173
0.185192
0.151457
0.119685
0.103069
3
2.99996
2.99991
2.9997
2.99941
2.99823
2.99654
2.99002
2.97944
2.94421
2.86647
2.6809
2.19708
1.39017
0.590226
0.283296
0.345341
0.367572
0.337249
0.28815
0.243574
0.21071
0.182326
0.157406
0.145275
3
2.99996
2.99991
2.99971
2.99944
2.9983
2.99671
2.99034
2.98062
2.94652
2.877
2.70012
2.25346
1.46618
0.631893
0.299522
0.362602
0.387571
0.358654
0.312826
0.271701
0.242757
0.219054
0.199347
0.190277
3
2.99996
2.99992
2.99973
2.99947
2.99842
2.99693
2.99099
2.98203
2.94993
2.88849
2.72268
2.31895
1.56165
0.684734
0.326862
0.388067
0.414328
0.386741
0.344148
0.306568
0.281293
0.262039
0.247063
0.240837
3
2.99997
2.99993
2.99975
2.99952
2.99855
2.99718
2.99173
2.98355
2.95396
2.89933
2.745
2.38715
1.66278
0.746075
0.365862
0.421573
0.44614
0.420397
0.381775
0.347779
0.326424
0.311705
0.302034
0.301086
3
2.99997
2.99993
2.99978
2.99956
2.99868
2.99744
2.99248
2.98507
2.95807
2.90865
2.76784
2.43838
1.75435
0.803238
0.403105
0.448572
0.469803
0.451276
0.421013
0.393142
0.377485
0.369445
0.367732
0.376767
3
2.99998
2.99994
2.9998
2.99961
2.99883
2.99774
2.99333
2.98674
2.9631
2.91747
2.79456
2.48226
1.86809
0.886196
0.462654
0.470644
0.483653
0.479095
0.45935
0.440846
0.432881
0.433982
0.446758
0.480751
3
2.99998
2.99995
2.99984
2.99968
2.99904
2.99809
2.99466
2.98849
2.96972
2.92555
2.82123
2.5267
1.97758
1.00019
0.536313
0.487373
0.500377
0.50621
0.496688
0.489677
0.491953
0.509107
0.551982
0.652948
3
2.99995
2.9999
2.99967
2.99936
2.99808
2.99625
2.98923
2.9775
2.9395
2.85278
2.65227
2.11901
1.28741
0.533816
0.270326
0.326473
0.343566
0.310793
0.255869
0.203507
0.161637
0.120895
0.0757175
0.0412545
3
2.99996
2.9999
2.99968
2.99937
2.99811
2.9963
2.98937
2.97782
2.94029
2.85494
2.65684
2.1309
1.30249
0.541824
0.271033
0.328396
0.346211
0.313652
0.259528
0.208448
0.168039
0.129463
0.0894374
0.0646143
3
2.99996
2.9999
2.99969
2.99938
2.99816
2.9964
2.98965
2.97848
2.9419
2.85945
2.6664
2.15676
1.33637
0.560634
0.275027
0.334513
0.354066
0.322363
0.270341
0.222173
0.185192
0.151457
0.119685
0.103069
3
2.99996
2.99991
2.9997
2.99941
2.99823
2.99654
2.99002
2.97944
2.94421
2.86647
2.6809
2.19707
1.39017
0.590224
0.283297
0.345341
0.367572
0.337249
0.288149
0.243574
0.21071
0.182326
0.157406
0.145275
3
2.99996
2.99991
2.99971
2.99944
2.9983
2.99671
2.99034
2.98062
2.94652
2.877
2.70011
2.25346
1.46617
0.631891
0.299523
0.362601
0.38757
0.358654
0.312826
0.271701
0.242757
0.219054
0.199347
0.190277
3
2.99996
2.99992
2.99973
2.99947
2.99842
2.99693
2.99099
2.98203
2.94993
2.88849
2.72268
2.31895
1.56165
0.684732
0.326862
0.388066
0.414327
0.386741
0.344148
0.306568
0.281293
0.262039
0.247063
0.240837
3
2.99997
2.99993
2.99975
2.99952
2.99855
2.99718
2.99173
2.98355
2.95396
2.89933
2.745
2.38714
1.66277
0.746074
0.365861
0.421573
0.44614
0.420397
0.381774
0.347779
0.326424
0.311705
0.302034
0.301086
3
2.99997
2.99993
2.99978
2.99956
2.99868
2.99744
2.99248
2.98507
2.95807
2.90865
2.76784
2.43837
1.75434
0.803235
0.403104
0.448572
0.469803
0.451276
0.421013
0.393142
0.377485
0.369445
0.367732
0.376767
3
2.99998
2.99994
2.9998
2.99961
2.99883
2.99774
2.99333
2.98674
2.9631
2.91747
2.79456
2.48226
1.86809
0.886193
0.462653
0.470644
0.483653
0.479095
0.45935
0.440846
0.432881
0.433982
0.446758
0.480751
3
2.99998
2.99995
2.99984
2.99968
2.99904
2.99809
2.99466
2.98849
2.96972
2.92554
2.82123
2.5267
1.97758
1.00018
0.536312
0.487374
0.500377
0.50621
0.496688
0.489677
0.491953
0.509107
0.551982
0.652948
3
2.99995
2.9999
2.99967
2.99936
2.99808
2.99625
2.98923
2.9775
2.9395
2.85278
2.65227
2.11901
1.28741
0.533816
0.270326
0.326473
0.343566
0.310793
0.255869
0.203507
0.161637
0.120895
0.0757175
0.0412545
3
2.99996
2.9999
2.99968
2.99937
2.99811
2.9963
2.98937
2.97782
2.94029
2.85494
2.65684
2.1309
1.30249
0.541824
0.271033
0.328396
0.346211
0.313652
0.259528
0.208448
0.168039
0.129463
0.0894374
0.0646143
3
2.99996
2.9999
2.99969
2.99938
2.99816
2.9964
2.98965
2.97848
2.9419
2.85945
2.6664
2.15676
1.33637
0.560633
0.275027
0.334513
0.354066
0.322363
0.270341
0.222173
0.185192
0.151457
0.119685
0.103069
3
2.99996
2.99991
2.9997
2.99941
2.99823
2.99654
2.99002
2.97944
2.94421
2.86647
2.6809
2.19707
1.39017
0.590224
0.283297
0.345341
0.367572
0.337249
0.288149
0.243574
0.21071
0.182326
0.157406
0.145275
3
2.99996
2.99991
2.99971
2.99944
2.9983
2.99671
2.99034
2.98062
2.94652
2.877
2.70011
2.25346
1.46617
0.631891
0.299523
0.362601
0.38757
0.358653
0.312826
0.271701
0.242756
0.219054
0.199347
0.190277
3
2.99996
2.99992
2.99973
2.99947
2.99842
2.99693
2.99099
2.98203
2.94993
2.88849
2.72268
2.31895
1.56165
0.684732
0.326862
0.388066
0.414327
0.386741
0.344148
0.306568
0.281293
0.262039
0.247063
0.240837
3
2.99997
2.99993
2.99975
2.99952
2.99855
2.99718
2.99173
2.98355
2.95396
2.89933
2.745
2.38714
1.66277
0.746073
0.365861
0.421573
0.44614
0.420397
0.381774
0.347779
0.326424
0.311705
0.302034
0.301086
3
2.99997
2.99993
2.99978
2.99956
2.99868
2.99744
2.99248
2.98507
2.95807
2.90865
2.76784
2.43837
1.75434
0.803235
0.403104
0.448572
0.469803
0.451276
0.421012
0.393142
0.377485
0.369445
0.367732
0.376767
3
2.99998
2.99994
2.9998
2.99961
2.99883
2.99774
2.99333
2.98674
2.9631
2.91747
2.79456
2.48226
1.86809
0.886193
0.462653
0.470644
0.483653
0.479095
0.45935
0.440846
0.432881
0.433982
0.446758
0.480751
3
2.99998
2.99995
2.99984
2.99968
2.99904
2.99809
2.99466
2.98849
2.96972
2.92554
2.82123
2.5267
1.97758
1.00018
0.536312
0.487374
0.500378
0.50621
0.496688
0.489677
0.491953
0.509107
0.551982
0.652948
3
2.99995
2.9999
2.99967
2.99936
2.99808
2.99625
2.98923
2.9775
2.9395
2.85278
2.65227
2.11901
1.28741
0.533816
0.270326
0.326473
0.343566
0.310793
0.255869
0.203507
0.161637
0.120895
0.0757175
0.0412545
3
2.99996
2.9999
2.99968
2.99937
2.99811
2.9963
2.98937
2.97782
2.94029
2.85494
2.65684
2.1309
1.30249
0.541824
0.271033
0.328396
0.346211
0.313652
0.259528
0.208448
0.168039
0.129463
0.0894374
0.0646143
3
2.99996
2.9999
2.99969
2.99938
2.99816
2.9964
2.98965
2.97848
2.9419
2.85945
2.6664
2.15676
1.33637
0.560633
0.275027
0.334513
0.354066
0.322363
0.270341
0.222173
0.185192
0.151457
0.119685
0.103069
3
2.99996
2.99991
2.9997
2.99941
2.99823
2.99654
2.99002
2.97944
2.94421
2.86647
2.6809
2.19707
1.39017
0.590224
0.283297
0.345341
0.367571
0.337249
0.288149
0.243574
0.21071
0.182326
0.157406
0.145275
3
2.99996
2.99991
2.99971
2.99944
2.9983
2.99671
2.99034
2.98062
2.94652
2.877
2.70011
2.25346
1.46617
0.631891
0.299523
0.362601
0.38757
0.358653
0.312826
0.271701
0.242756
0.219054
0.199347
0.190277
3
2.99996
2.99992
2.99973
2.99947
2.99842
2.99693
2.99099
2.98203
2.94993
2.88849
2.72268
2.31895
1.56165
0.684732
0.326862
0.388066
0.414327
0.38674
0.344148
0.306568
0.281293
0.262039
0.247063
0.240837
3
2.99997
2.99993
2.99975
2.99952
2.99855
2.99718
2.99173
2.98355
2.95396
2.89933
2.745
2.38714
1.66277
0.746073
0.365861
0.421573
0.44614
0.420397
0.381774
0.347779
0.326424
0.311705
0.302034
0.301086
3
2.99997
2.99993
2.99978
2.99956
2.99868
2.99744
2.99248
2.98507
2.95807
2.90865
2.76784
2.43837
1.75434
0.803235
0.403104
0.448572
0.469803
0.451276
0.421012
0.393142
0.377485
0.369445
0.367732
0.376767
3
2.99998
2.99994
2.9998
2.99961
2.99883
2.99774
2.99333
2.98674
2.9631
2.91747
2.79455
2.48226
1.86809
0.886193
0.462653
0.470644
0.483653
0.479095
0.45935
0.440846
0.432881
0.433982
0.446758
0.480751
3
2.99998
2.99995
2.99984
2.99968
2.99904
2.99809
2.99466
2.98849
2.96972
2.92554
2.82123
2.5267
1.97758
1.00018
0.536312
0.487374
0.500378
0.50621
0.496688
0.489677
0.491953
0.509107
0.551982
0.652948
3
2.99995
2.9999
2.99967
2.99936
2.99808
2.99625
2.98923
2.9775
2.9395
2.85278
2.65227
2.11901
1.28741
0.533816
0.270326
0.326473
0.343566
0.310793
0.255869
0.203507
0.161637
0.120895
0.0757175
0.0412545
3
2.99996
2.9999
2.99968
2.99937
2.99811
2.9963
2.98937
2.97782
2.94029
2.85494
2.65684
2.1309
1.30249
0.541824
0.271033
0.328396
0.346211
0.313652
0.259528
0.208448
0.168039
0.129463
0.0894374
0.0646143
3
2.99996
2.9999
2.99969
2.99938
2.99816
2.9964
2.98965
2.97848
2.9419
2.85945
2.6664
2.15676
1.33637
0.560633
0.275027
0.334513
0.354066
0.322363
0.270341
0.222173
0.185192
0.151457
0.119685
0.103069
3
2.99996
2.99991
2.9997
2.99941
2.99823
2.99654
2.99002
2.97944
2.94421
2.86647
2.6809
2.19707
1.39017
0.590224
0.283297
0.345341
0.367571
0.337249
0.288149
0.243574
0.21071
0.182326
0.157406
0.145275
3
2.99996
2.99991
2.99971
2.99944
2.9983
2.99671
2.99034
2.98062
2.94652
2.877
2.70011
2.25346
1.46617
0.631891
0.299523
0.362601
0.38757
0.358653
0.312826
0.271701
0.242756
0.219054
0.199347
0.190277
3
2.99996
2.99992
2.99973
2.99947
2.99842
2.99693
2.99099
2.98203
2.94993
2.88849
2.72268
2.31895
1.56165
0.684732
0.326862
0.388066
0.414327
0.386741
0.344148
0.306568
0.281293
0.262039
0.247063
0.240837
3
2.99997
2.99993
2.99975
2.99952
2.99855
2.99718
2.99173
2.98355
2.95396
2.89933
2.745
2.38714
1.66277
0.746073
0.365861
0.421573
0.44614
0.420397
0.381774
0.347779
0.326424
0.311705
0.302034
0.301086
3
2.99997
2.99993
2.99978
2.99956
2.99868
2.99744
2.99248
2.98507
2.95807
2.90865
2.76784
2.43837
1.75434
0.803235
0.403104
0.448572
0.469803
0.451276
0.421012
0.393142
0.377485
0.369445
0.367732
0.376767
3
2.99998
2.99994
2.9998
2.99961
2.99883
2.99774
2.99333
2.98674
2.9631
2.91747
2.79455
2.48226
1.86809
0.886193
0.462653
0.470644
0.483653
0.479095
0.45935
0.440846
0.432881
0.433982
0.446758
0.480751
3
2.99998
2.99995
2.99984
2.99968
2.99904
2.99809
2.99466
2.98849
2.96972
2.92554
2.82123
2.5267
1.97758
1.00018
0.536312
0.487374
0.500378
0.50621
0.496688
0.489677
0.491953
0.509107
0.551982
0.652948
3
2.99995
2.9999
2.99967
2.99936
2.99808
2.99625
2.98923
2.9775
2.9395
2.85278
2.65227
2.11901
1.28741
0.533816
0.270326
0.326473
0.343566
0.310793
0.255869
0.203507
0.161637
0.120895
0.0757175
0.0412545
3
2.99996
2.9999
2.99968
2.99937
2.99811
2.9963
2.98937
2.97782
2.94029
2.85494
2.65684
2.1309
1.30249
0.541824
0.271033
0.328396
0.346211
0.313652
0.259528
0.208448
0.168039
0.129463
0.0894374
0.0646143
3
2.99996
2.9999
2.99969
2.99938
2.99816
2.9964
2.98965
2.97848
2.9419
2.85945
2.6664
2.15676
1.33637
0.560633
0.275027
0.334513
0.354066
0.322363
0.270341
0.222173
0.185192
0.151457
0.119685
0.103069
3
2.99996
2.99991
2.9997
2.99941
2.99823
2.99654
2.99002
2.97944
2.94421
2.86647
2.6809
2.19707
1.39017
0.590224
0.283297
0.345341
0.367572
0.337249
0.288149
0.243574
0.21071
0.182326
0.157406
0.145275
3
2.99996
2.99991
2.99971
2.99944
2.9983
2.99671
2.99034
2.98062
2.94652
2.877
2.70011
2.25346
1.46617
0.631891
0.299523
0.362601
0.38757
0.358654
0.312826
0.271701
0.242756
0.219054
0.199347
0.190277
3
2.99996
2.99992
2.99973
2.99947
2.99842
2.99693
2.99099
2.98203
2.94993
2.88849
2.72268
2.31895
1.56165
0.684732
0.326862
0.388066
0.414327
0.386741
0.344148
0.306568
0.281293
0.262039
0.247063
0.240837
3
2.99997
2.99993
2.99975
2.99952
2.99855
2.99718
2.99173
2.98355
2.95396
2.89933
2.745
2.38714
1.66277
0.746073
0.365861
0.421573
0.44614
0.420397
0.381774
0.347779
0.326424
0.311705
0.302034
0.301086
3
2.99997
2.99993
2.99978
2.99956
2.99868
2.99744
2.99248
2.98507
2.95807
2.90865
2.76784
2.43837
1.75434
0.803235
0.403104
0.448572
0.469803
0.451276
0.421013
0.393142
0.377485
0.369445
0.367732
0.376767
3
2.99998
2.99994
2.9998
2.99961
2.99883
2.99774
2.99333
2.98674
2.9631
2.91747
2.79456
2.48226
1.86809
0.886193
0.462653
0.470644
0.483653
0.479095
0.45935
0.440846
0.432881
0.433982
0.446758
0.480751
3
2.99998
2.99995
2.99984
2.99968
2.99904
2.99809
2.99466
2.98849
2.96972
2.92554
2.82123
2.5267
1.97758
1.00018
0.536312
0.487374
0.500378
0.50621
0.496688
0.489677
0.491953
0.509107
0.551982
0.652948
3
2.99995
2.9999
2.99967
2.99936
2.99808
2.99625
2.98923
2.9775
2.9395
2.85278
2.65227
2.11901
1.28741
0.533816
0.270326
0.326473
0.343566
0.310793
0.255869
0.203507
0.161637
0.120895
0.0757175
0.0412545
3
2.99996
2.9999
2.99968
2.99937
2.99811
2.9963
2.98937
2.97782
2.94029
2.85494
2.65684
2.1309
1.30249
0.541824
0.271033
0.328396
0.346211
0.313652
0.259528
0.208448
0.168039
0.129463
0.0894374
0.0646143
3
2.99996
2.9999
2.99969
2.99938
2.99816
2.9964
2.98965
2.97848
2.9419
2.85945
2.6664
2.15676
1.33637
0.560634
0.275027
0.334513
0.354066
0.322363
0.270341
0.222173
0.185192
0.151457
0.119685
0.103069
3
2.99996
2.99991
2.9997
2.99941
2.99823
2.99654
2.99002
2.97944
2.94421
2.86647
2.6809
2.19707
1.39017
0.590224
0.283297
0.345341
0.367572
0.337249
0.288149
0.243574
0.21071
0.182326
0.157406
0.145275
3
2.99996
2.99991
2.99971
2.99944
2.9983
2.99671
2.99034
2.98062
2.94652
2.877
2.70011
2.25346
1.46617
0.631891
0.299523
0.362601
0.38757
0.358654
0.312826
0.271701
0.242757
0.219054
0.199347
0.190277
3
2.99996
2.99992
2.99973
2.99947
2.99842
2.99693
2.99099
2.98203
2.94993
2.88849
2.72268
2.31895
1.56165
0.684732
0.326862
0.388066
0.414327
0.386741
0.344148
0.306568
0.281293
0.262039
0.247063
0.240837
3
2.99997
2.99993
2.99975
2.99952
2.99855
2.99718
2.99173
2.98355
2.95396
2.89933
2.745
2.38714
1.66277
0.746074
0.365861
0.421573
0.44614
0.420397
0.381774
0.347779
0.326424
0.311705
0.302034
0.301086
3
2.99997
2.99993
2.99978
2.99956
2.99868
2.99744
2.99248
2.98507
2.95807
2.90865
2.76784
2.43837
1.75434
0.803235
0.403104
0.448572
0.469803
0.451276
0.421013
0.393142
0.377485
0.369445
0.367732
0.376767
3
2.99998
2.99994
2.9998
2.99961
2.99883
2.99774
2.99333
2.98674
2.9631
2.91747
2.79456
2.48226
1.86809
0.886193
0.462653
0.470644
0.483653
0.479095
0.45935
0.440846
0.432881
0.433982
0.446758
0.480751
3
2.99998
2.99995
2.99984
2.99968
2.99904
2.99809
2.99466
2.98849
2.96972
2.92554
2.82123
2.5267
1.97758
1.00018
0.536312
0.487374
0.500377
0.50621
0.496688
0.489677
0.491953
0.509107
0.551982
0.652948
3
2.99995
2.9999
2.99967
2.99936
2.99808
2.99625
2.98923
2.9775
2.9395
2.85278
2.65227
2.11902
1.28741
0.533818
0.270324
0.326473
0.343567
0.310793
0.255869
0.203507
0.161637
0.120895
0.0757174
0.0412545
3
2.99996
2.9999
2.99968
2.99937
2.99811
2.9963
2.98937
2.97782
2.94029
2.85494
2.65684
2.1309
1.3025
0.541826
0.271032
0.328396
0.346211
0.313652
0.259528
0.208448
0.168039
0.129463
0.0894374
0.0646142
3
2.99996
2.9999
2.99969
2.99938
2.99816
2.9964
2.98965
2.97848
2.9419
2.85945
2.6664
2.15676
1.33637
0.560635
0.275026
0.334513
0.354067
0.322363
0.270341
0.222173
0.185192
0.151457
0.119685
0.103069
3
2.99996
2.99991
2.9997
2.99941
2.99823
2.99654
2.99002
2.97944
2.94421
2.86647
2.6809
2.19708
1.39017
0.590226
0.283296
0.345341
0.367572
0.337249
0.28815
0.243574
0.21071
0.182326
0.157406
0.145275
3
2.99996
2.99991
2.99971
2.99944
2.9983
2.99671
2.99034
2.98062
2.94652
2.877
2.70012
2.25346
1.46618
0.631893
0.299522
0.362602
0.387571
0.358654
0.312826
0.271701
0.242757
0.219054
0.199347
0.190277
3
2.99996
2.99992
2.99973
2.99947
2.99842
2.99693
2.99099
2.98203
2.94993
2.88849
2.72268
2.31895
1.56165
0.684734
0.326862
0.388067
0.414328
0.386741
0.344148
0.306568
0.281293
0.262039
0.247063
0.240837
3
2.99997
2.99993
2.99975
2.99952
2.99855
2.99718
2.99173
2.98355
2.95396
2.89933
2.745
2.38715
1.66278
0.746075
0.365862
0.421573
0.44614
0.420397
0.381775
0.347779
0.326424
0.311705
0.302034
0.301086
3
2.99997
2.99993
2.99978
2.99956
2.99868
2.99744
2.99248
2.98507
2.95807
2.90865
2.76784
2.43838
1.75435
0.803238
0.403105
0.448572
0.469803
0.451276
0.421013
0.393142
0.377485
0.369445
0.367732
0.376767
3
2.99998
2.99994
2.9998
2.99961
2.99883
2.99774
2.99333
2.98674
2.9631
2.91747
2.79456
2.48226
1.86809
0.886196
0.462654
0.470644
0.483653
0.479095
0.45935
0.440846
0.432881
0.433982
0.446758
0.480751
3
2.99998
2.99995
2.99984
2.99968
2.99904
2.99809
2.99466
2.98849
2.96972
2.92555
2.82123
2.5267
1.97758
1.00019
0.536313
0.487373
0.500377
0.50621
0.496688
0.489677
0.491953
0.509107
0.551982
0.652948
3.00002
2.99997
2.99992
2.99969
2.99938
2.9981
2.99627
2.98926
2.97752
2.93953
2.85282
2.65234
2.11909
1.28755
0.533954
0.270539
0.326665
0.343757
0.311006
0.256129
0.203836
0.162054
0.121459
0.0766262
0.0429227
3.00002
2.99997
2.99992
2.9997
2.99939
2.99813
2.99632
2.98939
2.97784
2.94032
2.85497
2.6569
2.13098
1.30263
0.541959
0.271246
0.328587
0.346399
0.313862
0.259782
0.208766
0.168437
0.129984
0.0901988
0.0656774
3.00002
2.99997
2.99992
2.99971
2.9994
2.99818
2.99642
2.98967
2.9785
2.94194
2.85949
2.66647
2.15683
1.3365
0.560766
0.275243
0.334704
0.354253
0.322569
0.270586
0.222472
0.185552
0.151899
0.120249
0.103731
3.00002
2.99998
2.99993
2.99972
2.99943
2.99825
2.99656
2.99005
2.97946
2.94425
2.86648
2.68096
2.19709
1.39027
0.590325
0.283485
0.34551
0.367737
0.337433
0.288369
0.243838
0.211021
0.182689
0.157831
0.14574
3.00002
2.99998
2.99993
2.99973
2.99945
2.99832
2.99673
2.99036
2.98064
2.94656
2.87702
2.70017
2.25348
1.46627
0.631985
0.299702
0.362757
0.387718
0.358817
0.313017
0.271928
0.243018
0.21935
0.199677
0.190627
3.00002
2.99998
2.99994
2.99975
2.99949
2.99844
2.99695
2.99101
2.98205
2.94995
2.88851
2.72273
2.31899
1.56175
0.684828
0.327039
0.388216
0.414466
0.386889
0.344317
0.306763
0.281511
0.262279
0.247324
0.241109
3.00002
2.99998
2.99994
2.99977
2.99954
2.99857
2.9972
2.99175
2.98357
2.95398
2.89936
2.74504
2.38719
1.66285
0.746163
0.366024
0.421709
0.446264
0.420529
0.381923
0.347946
0.326605
0.3119
0.302241
0.301299
3.00002
2.99999
2.99995
2.9998
2.99958
2.9987
2.99746
2.99251
2.9851
2.95809
2.90868
2.76789
2.43841
1.75443
0.803329
0.403261
0.448699
0.469919
0.451397
0.421143
0.393285
0.377636
0.369603
0.367895
0.376931
3.00002
2.99999
2.99996
2.99982
2.99963
2.99885
2.99776
2.99335
2.98677
2.96314
2.91749
2.7946
2.48226
1.86817
0.886272
0.462789
0.470756
0.483761
0.479207
0.459467
0.440969
0.433007
0.43411
0.446886
0.480871
3.00002
3
2.99997
2.99986
2.9997
2.99906
2.99811
2.99468
2.98851
2.96975
2.92557
2.82127
2.52673
1.97766
1.00026
0.536434
0.48748
0.50048
0.506314
0.496794
0.489784
0.492059
0.50921
0.552078
0.653028
3.00002
3.00001
2.99996
2.9999
2.99966
2.9993
2.99791
2.9958
2.98825
2.97449
2.93305
2.83359
2.61356
2.03681
1.18086
0.626829
0.511132
0.523967
0.536071
0.535206
0.537507
0.552506
0.591957
0.677193
0.856807
3.00002
3.00001
2.99997
2.99992
2.9997
2.9994
2.99816
2.9964
2.98963
2.9784
2.94183
2.85917
2.66655
2.15997
1.35102
0.720068
0.53602
0.550529
0.568029
0.57524
0.585976
0.613614
0.671058
0.776912
0.967094
3.00002
3.00001
2.99998
2.99993
2.99974
2.99948
2.99841
2.99689
2.99083
2.98173
2.94913
2.886
2.7189
2.30693
1.55611
0.830175
0.575554
0.587455
0.604105
0.616743
0.633534
0.669126
0.73506
0.840244
1.00447
3.00002
3.00001
2.99999
2.99995
2.99979
2.99957
2.99869
2.99744
2.99245
2.98502
2.95791
2.90938
2.76719
2.45482
1.77679
0.953327
0.634941
0.6354
0.647938
0.663591
0.683095
0.720979
0.785293
0.879743
1.01747
3.00002
3.00002
2.99999
2.99996
2.99984
2.99966
2.99897
2.99796
2.99404
2.98798
2.96706
2.92527
2.8152
2.53688
1.9717
1.08021
0.703662
0.674645
0.687593
0.704645
0.727323
0.764784
0.827518
0.910456
1.02596
3.00002
3.00002
3.00001
2.99997
2.99991
2.99968
2.99934
2.99806
2.99608
2.98919
2.97629
2.93865
2.84674
2.64557
2.10512
1.29833
0.809932
0.709924
0.721144
0.739421
0.765786
0.801931
0.858552
0.93564
1.03379
3.00002
3.00002
3.00001
2.99998
2.99993
2.99974
2.99947
2.99836
2.99682
2.99062
2.9813
2.94838
2.88267
2.71432
2.29406
1.5496
0.933123
0.74775
0.750817
0.769941
0.801305
0.837373
0.886791
0.955115
1.04082
3.00002
3.00002
3.00001
2.99999
2.99995
2.9998
2.99959
2.99876
2.99755
2.99287
2.98571
2.9603
2.91381
2.77975
2.48628
1.83443
1.0925
0.811293
0.792965
0.80599
0.833266
0.870499
0.916224
0.975727
1.04995
3.00002
3.00002
3.00002
3
2.99996
2.99989
2.99963
2.99926
2.9978
2.99561
2.9877
2.97395
2.93138
2.83329
2.61511
2.06445
1.27406
0.886903
0.832968
0.844005
0.86671
0.900531
0.941839
0.994156
1.05904
3.00003
3.00002
3.00002
3.00001
2.99998
2.99993
2.99973
2.99945
2.99833
2.99671
2.99062
2.98047
2.94773
2.87491
2.703
2.26265
1.51613
1.00427
0.872715
0.875049
0.89586
0.929144
0.968409
1.01419
1.07027
3.00003
3.00003
3.00002
3.00001
3
2.99994
2.99985
2.99952
2.99904
2.99722
2.99432
2.98461
2.96524
2.91262
2.77906
2.505
1.85316
1.18922
0.937921
0.915411
0.927128
0.955119
0.992773
1.03471
1.08299
3.00003
3.00003
3.00002
3.00002
3.00001
2.99996
2.9999
2.99965
2.9993
2.99792
2.99588
2.98836
2.97564
2.93562
2.84473
2.64147
2.12177
1.37791
1.01542
0.954774
0.962183
0.984356
1.01788
1.05648
1.09995
3.00003
3.00003
3.00003
3.00002
3.00001
2.99999
2.99992
2.99982
2.99942
2.99882
2.99669
2.99298
2.98148
2.95592
2.89225
2.72268
2.38853
1.64163
1.15383
1.00273
0.996088
1.0096
1.03807
1.07527
1.11536
3.00003
3.00003
3.00003
3.00002
3.00001
3
2.99995
2.99987
2.99958
2.99915
2.99747
2.99506
2.98581
2.97117
2.92328
2.82294
2.57947
2.04611
1.34395
1.07829
1.03897
1.04394
1.06428
1.09638
1.13328
3.00003
3.00003
3.00003
3.00002
3.00002
3.00001
2.99998
2.9999
2.99978
2.99931
2.99861
2.99599
2.99192
2.97806
2.95132
2.87801
2.69748
2.32406
1.5915
1.18754
1.07894
1.07453
1.08701
1.11388
1.14973
3.00003
3.00003
3.00003
3.00003
3.00002
3.00001
3
2.99994
2.99986
2.99953
2.99907
2.99726
2.99462
2.98482
2.96873
2.91831
2.8074
2.55833
1.99423
1.37538
1.14351
1.11293
1.11708
1.13695
1.16705
3.00003
3.00003
3.00003
3.00003
3.00002
3.00002
3
2.99998
2.99989
2.99976
2.99925
2.9985
2.99568
2.99134
2.97622
2.94872
2.87147
2.69091
2.29294
1.59441
1.23575
1.14945
1.14576
1.1579
1.18233
3.00003
3.00003
3.00003
3.00003
3.00003
3.00002
3.00001
3
2.99994
2.99985
2.99951
2.99903
2.99717
2.99445
2.98451
2.96779
2.91644
2.80022
2.55137
1.96851
1.41404
1.20775
1.1801
1.18417
1.20319
3.00003
3.00003
3.00003
3.00003
3.00003
3.00002
3.00002
3
2.99998
2.99989
2.99975
2.99924
2.99847
2.99567
2.99121
2.97621
2.94842
2.87031
2.69727
2.28495
1.64224
1.30609
1.22076
1.21362
1.22305
3.00003
3.00003
3.00003
3.00003
3.00003
3.00003
3.00002
3.00002
2.99999
2.99995
2.99981
2.99961
2.99884
2.99769
2.99349
2.98681
2.96465
2.92273
2.80936
2.55918
2.00852
1.47096
1.27662
1.24723
1.24975
3.00003
3.00003
3.00003
3.00003
3.00003
3.00003
3.00002
3.00002
3
2.99998
2.99989
2.99976
2.99927
2.99855
2.99582
2.99174
2.97722
2.95209
2.87894
2.71833
2.34872
1.71596
1.37545
1.28576
1.27699
3.00003
3.00003
3.00003
3.00003
3.00003
3.00003
3.00003
3.00002
3.00002
2.99999
2.99996
2.99983
2.99964
2.99894
2.99788
2.99407
2.98797
2.96796
2.93058
2.82714
2.6098
2.09801
1.55677
1.34367
1.31059
3.00003
3.00003
3.00003
3.00003
3.00003
3.00003
3.00003
3.00003
3.00002
3.00001
2.99999
2.9999
2.99979
2.99934
2.99869
2.99623
2.99263
2.97957
2.95755
2.8931
2.74988
2.43403
1.81367
1.45021
1.34602
3.00003
3.00003
3.00003
3.00003
3.00003
3.00003
3.00003
3.00003
3.00002
3.00002
3
2.99995
2.99988
2.99961
2.99923
2.99775
2.99561
2.98771
2.97524
2.93509
2.85615
2.65984
2.23001
1.65534
1.41886
3.00003
3.00003
3.00003
3.00003
3.00003
3.00003
3.00003
3.00003
3.00003
3.00002
3.00001
2.99998
2.99994
2.99978
2.99954
2.99866
2.99737
2.99255
2.9852
2.96018
2.91355
2.79165
2.50631
1.95228
1.55173
3.00003
3.00003
3.00003
3.00003
3.00003
3.00003
3.00003
3.00003
3.00003
3.00003
3.00002
3.00001
2.99997
2.99991
2.99969
2.99937
2.9982
2.99641
2.99019
2.97962
2.94754
2.87758
2.72067
2.33555
1.77024
3.00003
3.00003
3.00003
3.00003
3.00003
3.00003
3.00003
3.00003
3.00003
3.00003
3.00002
3.00001
3
2.99995
2.99987
2.99958
2.99914
2.99757
2.99513
2.98692
2.97251
2.93018
2.83765
2.63291
2.17555
3.00003
3.00003
3.00003
3.00003
3.00003
3.00003
3.00003
3.00003
3.00003
3.00003
3.00003
3.00002
3.00001
2.99999
2.99991
2.9998
2.9994
2.9988
2.99662
2.99326
2.98171
2.96193
2.90385
2.78301
2.48975
3.00003
3.00003
3.00003
3.00003
3.00003
3.00003
3.00003
3.00003
3.00003
3.00003
3.00003
3.00002
3.00002
3.00001
2.99996
2.9999
2.99967
2.99933
2.99806
2.99621
2.98948
2.97888
2.94482
2.87843
2.71492
3.00003
3.00003
3.00003
3.00003
3.00003
3.00003
3.00003
3.00003
3.00003
3.00003
3.00003
3.00003
3.00002
3.00001
3
2.99994
2.99986
2.99957
2.99913
2.99755
2.99512
2.98685
2.97271
2.93096
2.84128
3.00003
3.00003
3.00003
3.00003
3.00003
3.00003
3.00003
3.00003
3.00003
3.00003
3.00003
3.00003
3.00003
3.00002
3.00001
2.99999
2.99992
2.99981
2.99942
2.99883
2.99676
2.99346
2.9827
2.9632
2.90867
3.00003
3.00003
3.00003
3.00003
3.00003
3.00003
3.00003
3.00003
3.00003
3.00003
3.00003
3.00003
3.00003
3.00002
3.00002
3
2.99998
2.99988
2.99974
2.99925
2.99848
2.99584
2.99156
2.97783
2.95299
3.00003
3.00003
3.00003
3.00003
3.00003
3.00003
3.00003
3.00003
3.00003
3.00003
3.00003
3.00003
3.00003
3.00003
3.00002
3.00001
3
2.99995
2.99987
2.9996
2.9992
2.99775
2.99555
2.98806
2.97551
3.00003
3.00003
3.00003
3.00003
3.00003
3.00003
3.00003
3.00003
3.00003
3.00003
3.00003
3.00003
3.00003
3.00003
3.00003
3.00002
3.00001
2.99999
2.99993
2.99983
2.9995
2.99898
2.9972
2.99436
2.98515
3.00003
3.00003
3.00003
3.00003
3.00003
3.00003
3.00003
3.00003
3.00003
3.00003
3.00003
3.00003
3.00003
3.00003
3.00003
3.00002
3.00002
3.00001
2.99998
2.9999
2.99978
2.99934
2.99867
2.99637
2.99265
3.00003
3.00003
3.00003
3.00003
3.00003
3.00003
3.00003
3.00003
3.00003
3.00003
3.00003
3.00003
3.00003
3.00003
3.00003
3.00003
3.00002
3.00002
3
2.99997
2.99986
2.99969
2.99911
2.9982
2.99511
3.00003
3.00003
3.00003
3.00003
3.00003
3.00003
3.00003
3.00003
3.00003
3.00003
3.00003
3.00003
3.00003
3.00003
3.00003
3.00003
3.00003
3.00002
3.00001
2.99998
2.99993
2.99974
2.99947
2.99845
2.99695
3.00003
3.00003
3.00003
3.00003
3.00003
3.00003
3.00003
3.00003
3.00003
3.00003
3.00003
3.00003
3.00003
3.00003
3.00003
3.00003
3.00003
3.00002
3.00001
2.99999
2.99995
2.99979
2.99957
2.9987
2.99743
3.00003
3.00003
3.00003
3.00003
3.00003
3.00003
3.00003
3.00003
3.00003
3.00003
3.00003
3.00003
3.00003
3.00003
3.00003
3.00003
3.00003
3.00002
3.00001
3
2.99994
2.99986
2.99952
2.99903
2.99712
3.00003
3.00003
3.00003
3.00003
3.00003
3.00003
3.00003
3.00003
3.00003
3.00003
3.00003
3.00003
3.00003
3.00003
3.00003
3.00003
3.00003
3.00002
3.00001
3
2.99994
2.99986
2.99952
2.99906
2.99713
3
2.99999
2.99994
2.99988
2.99964
2.99928
2.99789
2.99578
2.98823
2.97446
2.93302
2.83356
2.6135
2.03676
1.18077
0.626722
0.511028
0.523868
0.535974
0.535109
0.537412
0.552414
0.591873
0.677123
0.856762
3
2.99999
2.99995
2.9999
2.99968
2.99938
2.99814
2.99638
2.98961
2.97837
2.9418
2.85914
2.66649
2.15991
1.35092
0.719972
0.535918
0.550431
0.567936
0.57515
0.58589
0.613535
0.670988
0.776855
0.967056
3
2.99999
2.99996
2.99991
2.99972
2.99946
2.99839
2.99687
2.99081
2.98171
2.9491
2.88597
2.71885
2.30688
1.55601
0.830095
0.575456
0.587359
0.604016
0.61666
0.633455
0.669055
0.734999
0.840194
1.00443
3
3
2.99997
2.99993
2.99977
2.99955
2.99867
2.99742
2.99243
2.985
2.95788
2.90936
2.76715
2.45478
1.77672
0.953259
0.63485
0.635314
0.647857
0.663515
0.683023
0.720913
0.785235
0.879696
1.01743
3
3
2.99998