/*--------------------------------*- C++ -*----------------------------------*\
| =========                 |                                                 |
| \\      /  F ield         | OpenFOAM: The Open Source CFD Toolbox           |
|  \\    /   O peration     | Version:  4.1                                   |
|   \\  /    A nd           | Web:      www.OpenFOAM.org                      |
|    \\/     M anipulation  |                                                 |
\*---------------------------------------------------------------------------*/
FoamFile
{
    version     2.0;
    format      ascii;
    class       volScalarField;
    location    "0.18";
    object      Ma;
}
// * * * * * * * * * * * * * * * * * * * * * * * * * * * * * * * * * * * * * //

dimensions      [0 0 0 0 0 0 0];

internalField   nonuniform List<scalar> 
52500
(
3.01833
3.14272
3.09958
3.03704
2.93405
2.77665
2.49219
2.14866
1.92679
1.81392
1.75709
1.70922
1.66178
1.60179
1.54913
1.557
1.5854
1.53478
1.25063
0.525901
0.138124
0.29858
0.104835
0.0550478
0.124016
3.01831
3.1427
3.09955
3.037
2.93399
2.77657
2.49209
2.14857
1.92676
1.81392
1.75713
1.70926
1.66184
1.6019
1.54911
1.55693
1.58754
1.53929
1.26518
0.556018
0.136571
0.303211
0.113224
0.0750099
0.138867
3.01832
3.14271
3.09955
3.037
2.93398
2.77655
2.49207
2.14856
1.92675
1.81392
1.75714
1.70927
1.66188
1.60207
1.54906
1.55683
1.5918
1.54825
1.29466
0.620434
0.138412
0.313573
0.129618
0.104436
0.166333
3.01827
3.14261
3.0994
3.03682
2.93378
2.77646
2.49226
2.14897
1.92729
1.81446
1.7576
1.7096
1.66212
1.60239
1.54887
1.5567
1.59783
1.56002
1.33495
0.712708
0.153055
0.327865
0.154546
0.135804
0.200502
3.0184
3.14272
3.09948
3.03692
2.9339
2.77668
2.49268
2.14937
1.92763
1.81479
1.75793
1.70988
1.66239
1.60287
1.54855
1.55679
1.60488
1.57288
1.38281
0.827774
0.196072
0.344203
0.191294
0.167269
0.238195
3.0181
3.14248
3.09934
3.03667
2.93345
2.77582
2.49122
2.14717
1.92479
1.81177
1.7551
1.70757
1.66094
1.60238
1.54757
1.55721
1.61143
1.58403
1.43588
0.960601
0.277257
0.359844
0.242905
0.199492
0.279689
3.01811
3.14245
3.09925
3.03657
2.93335
2.77586
2.49159
2.14772
1.92541
1.81234
1.75554
1.70805
1.66125
1.60234
1.54711
1.5589
1.61463
1.59623
1.49056
1.09961
0.399201
0.368961
0.310719
0.239245
0.325837
3.01838
3.14263
3.09931
3.0367
2.93363
2.77653
2.49289
2.14987
1.92837
1.8155
1.75846
1.71063
1.66288
1.60256
1.54729
1.56129
1.61353
1.61185
1.54301
1.2314
0.569318
0.379505
0.391689
0.303635
0.382718
3.01808
3.14241
3.09921
3.03652
2.93329
2.77579
2.49155
2.14769
1.9254
1.81229
1.75536
1.70826
1.66133
1.60143
1.54688
1.56291
1.61142
1.6305
1.58856
1.35384
0.78212
0.403939
0.476124
0.393282
0.458404
3.01809
3.14241
3.09921
3.03651
2.93326
2.77572
2.49143
2.14755
1.92526
1.81217
1.75523
1.70835
1.66148
1.60165
1.54588
1.5655
1.60796
1.64992
1.62625
1.45989
1.0094
0.469777
0.561485
0.505342
0.61057
3.01826
3.14259
3.09938
3.03679
2.93373
2.77637
2.49213
2.14884
1.92722
1.81442
1.75759
1.70968
1.66211
1.60199
1.54924
1.55706
1.58542
1.53477
1.25053
0.525666
0.137759
0.298362
0.104349
0.0539853
0.123562
3.01836
3.14273
3.09955
3.03701
2.93401
2.77666
2.49235
2.14888
1.92712
1.81427
1.75747
1.70954
1.66203
1.60199
1.54916
1.55695
1.58753
1.53927
1.26508
0.555779
0.136228
0.303003
0.112767
0.0742283
0.138464
3.01809
3.14244
3.09925
3.03658
2.93336
2.77586
2.49157
2.14768
1.92531
1.81225
1.75545
1.70784
1.66099
1.6018
1.54889
1.55674
1.59175
1.5482
1.29456
0.620209
0.138081
0.313362
0.129259
0.103911
0.165943
3.01838
3.14277
3.09962
3.03709
2.9341
2.77676
2.49242
2.14889
1.92704
1.81416
1.75735
1.70939
1.66198
1.60229
1.5488
1.55666
1.59778
1.55997
1.33485
0.712494
0.152749
0.327675
0.154234
0.135417
0.200167
3.01809
3.14244
3.09925
3.03658
2.93337
2.77587
2.49161
2.14773
1.92536
1.81229
1.75549
1.70783
1.66106
1.60233
1.54821
1.55661
1.60477
1.57279
1.3827
0.827577
0.195793
0.344041
0.191038
0.16697
0.237914
3.01838
3.14275
3.09958
3.03705
2.93407
2.77678
2.49252
2.14905
1.92723
1.81434
1.75749
1.70954
1.66216
1.6028
1.54777
1.55727
1.61143
1.584
1.43578
0.96042
0.277002
0.359708
0.242695
0.199249
0.279445
3.01828
3.14261
3.0994
3.03682
2.93378
2.77646
2.49226
2.14895
1.92728
1.81443
1.75754
1.70973
1.66229
1.6027
1.54728
1.55894
1.61461
1.59619
1.49047
1.09946
0.398972
0.368853
0.31054
0.239031
0.325643
3.01831
3.1427
3.09955
3.03701
2.934
2.77659
2.49213
2.14863
1.92683
1.81394
1.75705
1.70948
1.66207
1.60207
1.54698
1.5611
1.6134
1.61175
1.54291
1.23126
0.569108
0.379414
0.391551
0.303461
0.382572
3.01831
3.14269
3.09954
3.037
2.93399
2.77657
2.49208
2.14856
1.92673
1.81383
1.75689
1.70956
1.66211
1.60164
1.54695
1.5629
1.61137
1.63044
1.58848
1.35372
0.781925
0.403856
0.47602
0.393154
0.458291
3.01832
3.14271
3.09957
3.03703
2.93404
2.77665
2.4922
2.14867
1.9268
1.81384
1.75681
1.70963
1.66221
1.60178
1.54591
1.56547
1.6079
1.64985
1.62617
1.45979
1.00924
0.469703
0.561386
0.505248
0.610496
3.01832
3.14272
3.09957
3.03704
2.93405
2.77666
2.49222
2.1487
1.92683
1.81395
1.75712
1.70925
1.6618
1.60181
1.54912
1.55698
1.58537
1.53473
1.2505
0.525638
0.137774
0.298363
0.104346
0.0539839
0.123562
3.01831
3.1427
3.09955
3.03701
2.934
2.77659
2.49213
2.14862
1.92681
1.81396
1.75715
1.70928
1.66184
1.60189
1.5491
1.55691
1.5875
1.53924
1.26505
0.555756
0.136238
0.303004
0.112765
0.0742274
0.138464
3.01831
3.14271
3.09956
3.03702
2.93402
2.77663
2.49218
2.14869
1.92689
1.81402
1.7572
1.70929
1.66186
1.60202
1.54899
1.55677
1.59174
1.54817
1.29453
0.620177
0.138092
0.313364
0.129257
0.10391
0.165943
3.01829
3.14264
3.09943
3.03687
2.93385
2.77656
2.49242
2.1491
1.92737
1.8145
1.75761
1.70961
1.66212
1.60239
1.54884
1.55667
1.59779
1.55997
1.33484
0.712482
0.152748
0.327676
0.154233
0.135416
0.200167
3.0184
3.14278
3.09962
3.03709
2.93413
2.77682
2.49255
2.14907
1.92722
1.81432
1.75748
1.70948
1.66207
1.60262
1.54837
1.55667
1.60478
1.57279
1.38269
0.827556
0.195787
0.344043
0.191038
0.16697
0.237913
3.01809
3.14249
3.09938
3.03673
2.93354
2.77592
2.4913
2.14716
1.92466
1.81159
1.75488
1.7074
1.6608
1.6023
1.54749
1.55714
1.61137
1.58397
1.43578
0.960419
0.277
0.359707
0.242695
0.199249
0.279445
3.0184
3.14278
3.09962
3.03709
2.93412
2.77682
2.49253
2.14904
1.9272
1.81428
1.75741
1.70958
1.66219
1.60262
1.54722
1.55891
1.6146
1.59618
1.49047
1.09945
0.398968
0.368853
0.310539
0.239031
0.325643
3.01827
3.1426
3.09939
3.03681
2.93376
2.77644
2.49224
2.14895
1.92729
1.81442
1.75747
1.70985
1.66233
1.60225
1.54708
1.56116
1.61343
1.61177
1.54292
1.23126
0.569111
0.379413
0.39155
0.303461
0.382572
3.01832
3.14272
3.09957
3.03703
2.93403
2.77663
2.49216
2.14866
1.92687
1.81394
1.75698
1.70962
1.66214
1.60163
1.54694
1.5629
1.61137
1.63044
1.58849
1.35372
0.781925
0.403855
0.476019
0.393154
0.458291
3.01827
3.1426
3.09939
3.03681
2.93376
2.77644
2.49224
2.14894
1.92728
1.81437
1.75729
1.71006
1.66251
1.60197
1.54603
1.56553
1.60794
1.64987
1.62619
1.4598
1.00924
0.469704
0.561385
0.505248
0.610496
3.01832
3.14272
3.09957
3.03705
2.93406
2.77669
2.49228
2.14877
1.92691
1.81402
1.75716
1.70929
1.66182
1.60181
1.54912
1.55698
1.58536
1.53472
1.2505
0.525629
0.137779
0.298364
0.104345
0.0539842
0.123562
3.01832
3.14272
3.09957
3.03704
2.93406
2.77669
2.49228
2.14876
1.92691
1.81402
1.75717
1.70929
1.66183
1.60188
1.54908
1.5569
1.58749
1.53923
1.26505
0.555746
0.136244
0.303005
0.112764
0.0742275
0.138464
3.01832
3.14272
3.09957
3.03704
2.93406
2.77669
2.49227
2.14876
1.92691
1.81402
1.75718
1.70928
1.66185
1.60202
1.54899
1.55676
1.59173
1.54817
1.29452
0.620169
0.138095
0.313364
0.129257
0.10391
0.165943
3.01832
3.14272
3.09957
3.03704
2.93406
2.77669
2.49227
2.14876
1.92691
1.81402
1.75719
1.70926
1.66188
1.60224
1.54875
1.55662
1.59776
1.55994
1.33482
0.71247
0.15275
0.327677
0.154233
0.135416
0.200167
3.01832
3.14272
3.09957
3.03704
2.93406
2.77669
2.49227
2.14876
1.92691
1.81402
1.7572
1.70926
1.66192
1.60255
1.54832
1.55664
1.60475
1.57277
1.38267
0.827544
0.195784
0.344045
0.191038
0.16697
0.237914
3.01832
3.14272
3.09958
3.03705
2.93406
2.77669
2.49228
2.14877
1.92691
1.81402
1.75718
1.70929
1.66198
1.60271
1.54771
1.55723
1.6114
1.58398
1.43577
0.9604
0.276992
0.359711
0.242695
0.199248
0.279445
3.01832
3.14272
3.09957
3.03704
2.93406
2.77669
2.49227
2.14876
1.92691
1.814
1.75712
1.70937
1.66203
1.60254
1.54717
1.55888
1.61457
1.59616
1.49045
1.09943
0.398959
0.368856
0.310539
0.23903
0.325643
3.01832
3.14272
3.09957
3.03704
2.93406
2.77669
2.49227
2.14876
1.92691
1.81398
1.75705
1.70948
1.66206
1.60207
1.54697
1.56109
1.61339
1.61174
1.5429
1.23125
0.569098
0.379415
0.391551
0.30346
0.382572
3.01832
3.14272
3.09957
3.03704
2.93406
2.77669
2.49227
2.14876
1.9269
1.81395
1.75696
1.7096
1.66212
1.60163
1.54693
1.56288
1.61136
1.63043
1.58848
1.35371
0.781914
0.403855
0.47602
0.393154
0.458291
3.01832
3.14272
3.09957
3.03704
2.93406
2.77669
2.49227
2.14876
1.9269
1.81393
1.75687
1.70969
1.66224
1.6018
1.54591
1.56546
1.6079
1.64985
1.62617
1.45978
1.00923
0.469701
0.561386
0.505248
0.610496
3.01834
3.14275
3.0996
3.03708
2.9341
2.77674
2.49236
2.14882
1.92691
1.814
1.75713
1.70928
1.66182
1.60185
1.54915
1.55701
1.58539
1.53474
1.25051
0.525636
0.137769
0.298373
0.10437
0.0540011
0.123549
3.01834
3.14275
3.0996
3.03708
2.9341
2.77674
2.49236
2.14882
1.92691
1.81401
1.75714
1.70928
1.66183
1.60191
1.54911
1.55692
1.58752
1.53925
1.26506
0.555758
0.136222
0.303003
0.112801
0.0742535
0.138454
3.01833
3.14274
3.09959
3.03706
2.93408
2.77671
2.49229
2.14879
1.92695
1.81406
1.75722
1.70931
1.66187
1.60202
1.54899
1.55677
1.59174
1.54817
1.29453
0.620167
0.138079
0.313379
0.129244
0.103886
0.165998
3.01833
3.14273
3.09959
3.03706
2.93408
2.77671
2.49229
2.14879
1.92695
1.81407
1.75723
1.7093
1.6619
1.60224
1.54876
1.55663
1.59776
1.55995
1.33483
0.712464
0.152751
0.327701
0.154232
0.135361
0.20023
3.01834
3.14275
3.0996
3.03708
2.93409
2.77673
2.49236
2.14882
1.92692
1.81402
1.75718
1.70924
1.66192
1.60258
1.54835
1.55666
1.60478
1.57279
1.38269
0.827553
0.195803
0.34406
0.191065
0.16693
0.237933
3.01833
3.14273
3.09959
3.03706
2.93408
2.77672
2.49233
2.14879
1.9269
1.81399
1.75714
1.70925
1.66196
1.60272
1.54773
1.55726
1.61143
1.584
1.43579
0.960419
0.277015
0.359718
0.242717
0.199232
0.279444
3.01834
3.14275
3.0996
3.03708
2.9341
2.77673
2.49235
2.14881
1.9269
1.81398
1.75709
1.70934
1.66201
1.60255
1.5472
1.55891
1.6146
1.59618
1.49047
1.09946
0.39898
0.368856
0.310553
0.23903
0.325638
3.01833
3.14273
3.09959
3.03706
2.93407
2.7767
2.49228
2.14877
1.92692
1.814
1.75706
1.70949
1.66207
1.60206
1.54697
1.5611
1.6134
1.61175
1.54291
1.23126
0.569111
0.379413
0.391558
0.303466
0.382567
3.01834
3.14274
3.0996
3.03707
2.93409
2.77672
2.49233
2.14878
1.92687
1.81391
1.75691
1.70956
1.66211
1.60166
1.54697
1.56291
1.61138
1.63045
1.58849
1.35373
0.78193
0.403854
0.476024
0.393157
0.458288
3.01834
3.14274
3.09959
3.03707
2.93408
2.7767
2.49231
2.14876
1.92685
1.81387
1.75682
1.70965
1.66223
1.60183
1.54595
1.56549
1.60792
1.64987
1.62618
1.4598
1.00924
0.469702
0.561387
0.505249
0.610494
3.01832
3.14272
3.09957
3.03704
2.93406
2.77668
2.49227
2.14876
1.92691
1.81402
1.75716
1.70929
1.66182
1.60182
1.54912
1.55698
1.58536
1.53473
1.2505
0.525637
0.137776
0.298365
0.104343
0.0539836
0.123562
3.01832
3.14272
3.09957
3.03704
2.93406
2.77668
2.49227
2.14876
1.92691
1.81402
1.75717
1.70929
1.66183
1.60188
1.54908
1.5569
1.58749
1.53924
1.26505
0.555754
0.13624
0.303006
0.112762
0.0742277
0.138464
3.01832
3.14272
3.09957
3.03704
2.93406
2.77669
2.49227
2.14876
1.92691
1.81402
1.75718
1.70928
1.66185
1.60202
1.54899
1.55676
1.59173
1.54817
1.29453
0.620175
0.138092
0.313365
0.129255
0.103911
0.165943
3.01832
3.14272
3.09957
3.03704
2.93405
2.77668
2.49226
2.14876
1.92691
1.81402
1.75718
1.70925
1.66187
1.60223
1.54875
1.55662
1.59776
1.55995
1.33483
0.712476
0.152747
0.327676
0.154232
0.135418
0.200168
3.01832
3.14272
3.09957
3.03704
2.93406
2.77669
2.49227
2.14876
1.92691
1.81403
1.7572
1.70926
1.66192
1.60255
1.54832
1.55664
1.60475
1.57277
1.38267
0.827547
0.195783
0.344043
0.191037
0.166971
0.237913
3.01832
3.14272
3.09957
3.03704
2.93405
2.77668
2.49226
2.14876
1.92691
1.81401
1.75717
1.70928
1.66197
1.6027
1.5477
1.55723
1.6114
1.58398
1.43577
0.960403
0.276992
0.35971
0.242694
0.19925
0.279443
3.01832
3.14272
3.09957
3.03704
2.93406
2.77669
2.49227
2.14876
1.9269
1.814
1.75712
1.70936
1.66203
1.60253
1.54717
1.55888
1.61457
1.59616
1.49045
1.09944
0.398959
0.368855
0.310539
0.239032
0.325644
3.01832
3.14272
3.09957
3.03704
2.93406
2.77668
2.49227
2.14875
1.92689
1.81397
1.75704
1.70947
1.66206
1.60207
1.54697
1.56109
1.61339
1.61174
1.5429
1.23125
0.569098
0.379414
0.391551
0.303461
0.382575
3.01832
3.14272
3.09957
3.03704
2.93405
2.77668
2.49225
2.14873
1.92687
1.81392
1.75693
1.70957
1.6621
1.60163
1.54693
1.56289
1.61136
1.63043
1.58848
1.35372
0.781916
0.403854
0.47602
0.393154
0.458293
3.01832
3.14272
3.09957
3.03704
2.93405
2.77667
2.49224
2.14871
1.92686
1.81389
1.75685
1.70967
1.66223
1.6018
1.54592
1.56547
1.6079
1.64985
1.62617
1.45979
1.00923
0.469701
0.561386
0.505248
0.610497
3.01832
3.14272
3.09958
3.03705
2.93406
2.77669
2.49228
2.14877
1.92691
1.81402
1.75716
1.70929
1.66182
1.60181
1.54912
1.55698
1.58536
1.53472
1.2505
0.525629
0.137779
0.298364
0.104345
0.0539842
0.123562
3.01832
3.14272
3.09958
3.03704
2.93406
2.77669
2.49228
2.14876
1.92691
1.81402
1.75717
1.70929
1.66183
1.60188
1.54908
1.5569
1.58749
1.53923
1.26505
0.555746
0.136244
0.303005
0.112764
0.0742276
0.138464
3.01832
3.14272
3.09958
3.03704
2.93406
2.77669
2.49227
2.14876
1.92691
1.81402
1.75718
1.70928
1.66185
1.60202
1.54899
1.55676
1.59173
1.54817
1.29452
0.620169
0.138095
0.313364
0.129257
0.10391
0.165943
3.01832
3.14272
3.09957
3.03704
2.93406
2.77669
2.49227
2.14876
1.92691
1.81402
1.75719
1.70926
1.66188
1.60224
1.54875
1.55662
1.59776
1.55994
1.33482
0.712469
0.15275
0.327677
0.154233
0.135416
0.200167
3.01832
3.14272
3.09957
3.03704
2.93406
2.77669
2.49227
2.14876
1.92691
1.81402
1.7572
1.70926
1.66192
1.60255
1.54832
1.55664
1.60475
1.57277
1.38267
0.827544
0.195784
0.344045
0.191038
0.166969
0.237913
3.01832
3.14272
3.09958
3.03705
2.93406
2.77669
2.49228
2.14877
1.92691
1.81402
1.75718
1.70929
1.66198
1.60271
1.54771
1.55723
1.6114
1.58398
1.43577
0.9604
0.276992
0.359711
0.242695
0.199248
0.279445
3.01832
3.14272
3.09957
3.03704
2.93406
2.77669
2.49227
2.14876
1.92691
1.814
1.75712
1.70937
1.66203
1.60254
1.54717
1.55888
1.61457
1.59616
1.49045
1.09943
0.398959
0.368856
0.310539
0.23903
0.325643
3.01832
3.14272
3.09957
3.03704
2.93406
2.77669
2.49227
2.14876
1.92691
1.81398
1.75705
1.70948
1.66206
1.60207
1.54697
1.56109
1.61339
1.61174
1.5429
1.23125
0.569097
0.379415
0.391551
0.30346
0.382572
3.01832
3.14272
3.09957
3.03704
2.93406
2.77669
2.49227
2.14876
1.9269
1.81395
1.75696
1.7096
1.66212
1.60163
1.54693
1.56288
1.61136
1.63043
1.58848
1.35371
0.781914
0.403855
0.47602
0.393154
0.458291
3.01832
3.14272
3.09957
3.03704
2.93406
2.77669
2.49227
2.14876
1.9269
1.81393
1.75687
1.70969
1.66224
1.6018
1.54591
1.56546
1.6079
1.64985
1.62617
1.45978
1.00923
0.469701
0.561386
0.505248
0.610496
3.01832
3.14272
3.09957
3.03704
2.93405
2.77666
2.49222
2.1487
1.92683
1.81395
1.75712
1.70925
1.6618
1.60181
1.54912
1.55698
1.58537
1.53473
1.2505
0.525638
0.137774
0.298363
0.104346
0.0539839
0.123562
3.01831
3.1427
3.09955
3.03701
2.934
2.77659
2.49213
2.14862
1.92681
1.81396
1.75715
1.70928
1.66184
1.60189
1.5491
1.55691
1.5875
1.53924
1.26505
0.555756
0.136238
0.303004
0.112765
0.0742274
0.138464
3.01831
3.14271
3.09956
3.03702
2.93402
2.77663
2.49218
2.14869
1.92689
1.81402
1.7572
1.70929
1.66186
1.60202
1.54899
1.55677
1.59174
1.54817
1.29453
0.620177
0.138092
0.313364
0.129257
0.10391
0.165943
3.01829
3.14264
3.09943
3.03687
2.93385
2.77656
2.49242
2.1491
1.92737
1.8145
1.75761
1.70961
1.66212
1.60239
1.54884
1.55667
1.59779
1.55997
1.33484
0.712482
0.152748
0.327676
0.154233
0.135416
0.200167
3.0184
3.14278
3.09962
3.03709
2.93413
2.77682
2.49255
2.14907
1.92722
1.81432
1.75748
1.70948
1.66207
1.60262
1.54837
1.55667
1.60478
1.57279
1.38269
0.827556
0.195787
0.344043
0.191038
0.16697
0.237913
3.01809
3.14249
3.09938
3.03673
2.93354
2.77592
2.4913
2.14716
1.92466
1.81159
1.75488
1.7074
1.6608
1.6023
1.54749
1.55714
1.61137
1.58397
1.43578
0.960419
0.277
0.359707
0.242695
0.199249
0.279445
3.0184
3.14278
3.09962
3.03709
2.93412
2.77682
2.49253
2.14904
1.9272
1.81428
1.75741
1.70958
1.66219
1.60262
1.54722
1.55891
1.6146
1.59618
1.49047
1.09945
0.398968
0.368853
0.310539
0.239031
0.325643
3.01827
3.1426
3.09939
3.03681
2.93376
2.77644
2.49224
2.14895
1.92729
1.81442
1.75747
1.70985
1.66233
1.60225
1.54708
1.56116
1.61343
1.61177
1.54292
1.23126
0.569111
0.379413
0.39155
0.303461
0.382572
3.01832
3.14272
3.09957
3.03703
2.93403
2.77663
2.49216
2.14866
1.92687
1.81394
1.75698
1.70962
1.66214
1.60163
1.54694
1.5629
1.61137
1.63044
1.58849
1.35372
0.781925
0.403855
0.476019
0.393154
0.458291
3.01827
3.1426
3.09939
3.03681
2.93376
2.77644
2.49224
2.14894
1.92728
1.81437
1.75729
1.71006
1.66251
1.60197
1.54603
1.56553
1.60794
1.64987
1.62619
1.4598
1.00924
0.469704
0.561385
0.505248
0.610496
3.01826
3.14259
3.09938
3.03679
2.93373
2.77637
2.49213
2.14884
1.92722
1.81442
1.75759
1.70968
1.66211
1.60199
1.54924
1.55706
1.58542
1.53477
1.25053
0.525666
0.137759
0.298362
0.104348
0.0539853
0.123562
3.01836
3.14273
3.09955
3.03701
2.93401
2.77666
2.49235
2.14888
1.92712
1.81427
1.75747
1.70954
1.66203
1.60199
1.54916
1.55695
1.58753
1.53927
1.26508
0.555779
0.136228
0.303003
0.112767
0.0742283
0.138464
3.01809
3.14244
3.09925
3.03658
2.93336
2.77586
2.49157
2.14768
1.92531
1.81225
1.75545
1.70784
1.66099
1.6018
1.54889
1.55674
1.59175
1.5482
1.29456
0.620209
0.138081
0.313362
0.129259
0.103911
0.165943
3.01838
3.14277
3.09962
3.03709
2.9341
2.77676
2.49242
2.14889
1.92704
1.81416
1.75735
1.70939
1.66198
1.60229
1.5488
1.55666
1.59778
1.55997
1.33485
0.712494
0.152749
0.327675
0.154234
0.135417
0.200167
3.01809
3.14244
3.09925
3.03658
2.93337
2.77587
2.49161
2.14773
1.92536
1.81229
1.75549
1.70783
1.66106
1.60233
1.54821
1.55661
1.60477
1.57279
1.3827
0.827577
0.195793
0.344041
0.191038
0.16697
0.237914
3.01838
3.14275
3.09958
3.03705
2.93407
2.77677
2.49252
2.14904
1.92723
1.81434
1.75749
1.70954
1.66216
1.6028
1.54777
1.55727
1.61143
1.584
1.43578
0.96042
0.277002
0.359708
0.242695
0.199249
0.279445
3.01828
3.14261
3.0994
3.03682
2.93378
2.77646
2.49226
2.14895
1.92728
1.81443
1.75754
1.70973
1.66229
1.6027
1.54728
1.55894
1.61461
1.59619
1.49047
1.09946
0.398972
0.368853
0.31054
0.239031
0.325643
3.01831
3.1427
3.09955
3.03701
2.934
2.77659
2.49213
2.14863
1.92683
1.81394
1.75705
1.70948
1.66208
1.60207
1.54698
1.5611
1.6134
1.61175
1.54291
1.23126
0.569109
0.379414
0.391551
0.303461
0.382572
3.01831
3.14269
3.09954
3.037
2.93399
2.77657
2.49208
2.14856
1.92673
1.81383
1.75689
1.70956
1.66211
1.60164
1.54695
1.5629
1.61137
1.63044
1.58848
1.35372
0.781925
0.403856
0.47602
0.393154
0.458291
3.01832
3.14271
3.09957
3.03703
2.93404
2.77665
2.4922
2.14867
1.9268
1.81384
1.75681
1.70963
1.66221
1.60178
1.54591
1.56547
1.6079
1.64985
1.62617
1.45979
1.00924
0.469703
0.561386
0.505248
0.610496
3.01831
3.1427
3.09954
3.03699
2.93397
2.77653
2.49201
2.14853
1.92676
1.81393
1.75715
1.70928
1.66184
1.60182
1.54916
1.55702
1.58542
1.53479
1.25064
0.525906
0.13811
0.298606
0.10481
0.0549412
0.124088
3.01832
3.14266
3.09946
3.03689
2.93387
2.77658
2.49243
2.14907
1.92728
1.81442
1.75753
1.7096
1.66207
1.60206
1.54922
1.557
1.58759
1.53933
1.26521
0.556042
0.136548
0.303207
0.113266
0.0749878
0.138864
3.01839
3.14276
3.09959
3.03706
2.93406
2.77671
2.49235
2.14885
1.92704
1.8142
1.75742
1.70948
1.66202
1.60212
1.54909
1.55685
1.59181
1.54825
1.29467
0.620437
0.138409
0.313575
0.129633
0.104436
0.166329
3.01811
3.14251
3.09938
3.03673
2.93349
2.77583
2.49123
2.14704
1.9245
1.81146
1.75478
1.70732
1.66071
1.60194
1.54865
1.55663
1.59783
1.56004
1.33498
0.71273
0.153056
0.327868
0.154554
0.135807
0.200497
3.01834
3.14267
3.09945
3.03689
2.93387
2.77663
2.49259
2.14932
1.92764
1.81479
1.75792
1.70983
1.66234
1.60279
1.54849
1.55675
1.60485
1.57286
1.3828
0.827761
0.196072
0.344209
0.191301
0.16727
0.238194
3.01835
3.14263
3.09933
3.03672
2.93365
2.7765
2.49276
2.14968
1.9281
1.81528
1.75833
1.71026
1.66268
1.60317
1.54803
1.55744
1.61157
1.5841
1.43591
0.960614
0.277263
0.359849
0.24291
0.199492
0.27969
3.01812
3.14251
3.09937
3.03672
2.93352
2.77593
2.49138
2.14731
1.9249
1.81183
1.75511
1.7077
1.66102
1.6022
1.54702
1.55885
1.61459
1.59621
1.49055
1.09961
0.399199
0.368967
0.310722
0.239245
0.325838
3.01811
3.14243
3.09922
3.03651
2.93325
2.77569
2.49135
2.14751
1.9253
1.81229
1.75551
1.70826
1.66137
1.60196
1.54697
1.56115
1.61347
1.61182
1.54301
1.23141
0.569329
0.379507
0.391692
0.303635
0.382719
3.01837
3.1427
3.09947
3.0369
2.93389
2.77669
2.49275
2.14948
1.92781
1.81488
1.75783
1.71029
1.66262
1.60191
1.54712
1.56301
1.61146
1.63051
1.58856
1.35383
0.78212
0.403939
0.476126
0.393282
0.458404
3.01809
3.14237
3.09911
3.03639
2.93311
2.7757
2.49176
2.14806
1.92578
1.81267
1.7556
1.70865
1.66168
1.60185
1.54603
1.56561
1.60805
1.64998
1.6263
1.45993
1.00943
0.469782
0.561486
0.505342
0.61057
3.01835
3.14265
3.0994
3.03681
2.93374
2.77644
2.49233
2.14905
1.92745
1.81459
1.75756
1.71034
1.66295
1.60342
1.54346
1.56872
1.60563
1.66194
1.65237
1.55703
1.22542
0.623787
0.664397
0.64235
0.819195
3.01805
3.14237
3.09917
3.03647
2.9332
2.7756
2.49118
2.1473
1.92505
1.81198
1.75502
1.70818
1.66171
1.60411
1.54188
1.56807
1.60939
1.66197
1.68381
1.64513
1.43732
0.904137
0.78853
0.758907
0.907595
3.0183
3.14259
3.09935
3.03674
2.93365
2.77629
2.4921
2.14886
1.92733
1.8145
1.75749
1.7102
1.66301
1.60447
1.54301
1.56607
1.61376
1.65729
1.70715
1.69685
1.60435
1.25961
0.949493
0.847064
0.984329
3.01831
3.14254
3.09924
3.03661
2.9335
2.77627
2.49241
2.14935
1.9279
1.81508
1.75798
1.71061
1.66325
1.60431
1.54369
1.56599
1.61277
1.66149
1.70957
1.73686
1.71004
1.53629
1.1762
0.982326
1.07621
3.01804
3.14236
3.09915
3.03643
2.93314
2.77556
2.4912
2.14736
1.92515
1.81209
1.75514
1.70824
1.66172
1.60376
1.54312
1.56623
1.6122
1.66251
1.70995
1.75505
1.76435
1.71862
1.50293
1.19762
1.16921
3.01814
3.14243
3.09921
3.0365
2.93324
2.77574
2.49152
2.14768
1.92545
1.81238
1.75542
1.70846
1.66189
1.60384
1.54324
1.56616
1.61244
1.66235
1.71124
1.75574
1.7958
1.79763
1.73956
1.50623
1.31458
3.01812
3.14238
3.0991
3.03638
2.93313
2.77578
2.49192
2.14826
1.92606
1.81294
1.75585
1.70878
1.66208
1.60394
1.54328
1.56622
1.61237
1.66252
1.7112
1.75718
1.79832
1.83289
1.83702
1.78367
1.60837
3.01811
3.14237
3.09908
3.03635
2.93308
2.77571
2.49184
2.14819
1.92603
1.81293
1.75588
1.70883
1.66213
1.60399
1.54331
1.56622
1.61242
1.66246
1.71136
1.7572
1.79961
1.83692
1.86719
1.87688
1.84673
3.01812
3.14241
3.09918
3.03646
2.93318
2.77567
2.49146
2.14766
1.92548
1.81242
1.75548
1.70851
1.66192
1.60385
1.54325
1.56619
1.6124
1.66248
1.71133
1.75733
1.79969
1.83798
1.87129
1.89793
1.91159
3.01804
3.14229
3.09902
3.03628
2.93297
2.77549
2.49145
2.14779
1.9257
1.81264
1.75563
1.70865
1.66201
1.60393
1.54328
1.5662
1.6124
1.66247
1.71133
1.75733
1.79975
1.83813
1.87206
1.90117
1.9242
3.01834
3.14257
3.09924
3.0366
2.93349
2.7763
2.49253
2.14951
1.92807
1.81525
1.75816
1.71074
1.66336
1.60442
1.54358
1.56634
1.61246
1.6625
1.71134
1.75733
1.79976
1.83816
1.87221
1.90165
1.92629
3.01805
3.14235
3.09914
3.03642
2.93313
2.77552
2.49109
2.14723
1.92504
1.81203
1.75514
1.70826
1.66176
1.60377
1.5432
1.56617
1.61238
1.66247
1.71132
1.75733
1.79976
1.83816
1.87223
1.90175
1.9266
3.01806
3.14236
3.09915
3.03643
2.93314
2.77553
2.49113
2.14727
1.92508
1.81206
1.75517
1.70829
1.66178
1.60379
1.54321
1.56617
1.61238
1.66246
1.71132
1.75732
1.79975
1.83816
1.87223
1.90176
1.92665
3.01834
3.14258
3.09925
3.03661
2.9335
2.77632
2.49256
2.14954
1.9281
1.81526
1.75816
1.71074
1.66334
1.60441
1.54357
1.56633
1.61246
1.6625
1.71134
1.75733
1.79976
1.83816
1.87223
1.90176
1.92666
3.01804
3.14231
3.09905
3.03632
2.93303
2.77558
2.49156
2.14789
1.92572
1.81263
1.75558
1.70857
1.66194
1.60387
1.54325
1.56618
1.61239
1.66247
1.71133
1.75733
1.79976
1.83816
1.87223
1.90177
1.92666
3.01814
3.14243
3.09921
3.0365
2.93324
2.77573
2.49152
2.14765
1.92541
1.81234
1.7554
1.70846
1.6619
1.60385
1.54324
1.56619
1.61239
1.66247
1.71133
1.75733
1.79976
1.83816
1.87224
1.90177
1.92666
3.01813
3.14243
3.0992
3.03649
2.93323
2.77572
2.4915
2.14764
1.92541
1.81235
1.75541
1.70847
1.66191
1.60386
1.54325
1.56619
1.61239
1.66247
1.71133
1.75733
1.79976
1.83816
1.87224
1.90177
1.92666
3.01804
3.1423
3.09903
3.03628
2.93298
2.77549
2.49141
2.14774
1.92563
1.81259
1.75561
1.70864
1.66201
1.60392
1.54328
1.5662
1.6124
1.66248
1.71133
1.75733
1.79976
1.83817
1.87224
1.90177
1.92666
3.01832
3.14256
3.09923
3.03658
2.93347
2.77627
2.49251
2.14953
1.92814
1.81532
1.75822
1.71078
1.66338
1.60443
1.54358
1.56634
1.61246
1.66251
1.71134
1.75734
1.79976
1.83817
1.87224
1.90177
1.92666
3.01803
3.14228
3.099
3.03625
2.93292
2.77541
2.49132
2.14766
1.92561
1.81259
1.75563
1.70867
1.66203
1.60394
1.5433
1.56621
1.61241
1.66248
1.71133
1.75733
1.79976
1.83817
1.87224
1.90177
1.92666
3.01813
3.14244
3.09921
3.03651
2.93326
2.77576
2.49155
2.1477
1.92545
1.81237
1.75541
1.70844
1.66187
1.60382
1.54323
1.56618
1.61239
1.66247
1.71133
1.75733
1.79976
1.83817
1.87224
1.90177
1.92666
3.0181
3.14233
3.09905
3.03631
2.93301
2.77559
2.49165
2.14799
1.92585
1.8128
1.75579
1.70879
1.66213
1.60401
1.54333
1.56623
1.61242
1.66249
1.71134
1.75734
1.79976
1.83817
1.87224
1.90177
1.92666
3.01813
3.14244
3.09921
3.03651
2.93326
2.77576
2.49154
2.1477
1.92544
1.81236
1.75541
1.70844
1.66187
1.60382
1.54323
1.56618
1.61239
1.66247
1.71133
1.75733
1.79976
1.83817
1.87224
1.90177
1.92666
3.01803
3.14227
3.099
3.03624
2.9329
2.77539
2.49129
2.14763
1.92558
1.81257
1.75561
1.70866
1.66203
1.60395
1.5433
1.56622
1.61241
1.66248
1.71133
1.75733
1.79976
1.83817
1.87224
1.90177
1.92666
3.01833
3.14256
3.09923
3.03658
2.93346
2.77627
2.49251
2.14953
1.92815
1.81532
1.75823
1.7108
1.66339
1.60444
1.54359
1.56634
1.61246
1.6625
1.71134
1.75734
1.79976
1.83817
1.87224
1.90177
1.92666
3.01802
3.14226
3.09899
3.03623
2.9329
2.77538
2.49127
2.14762
1.92558
1.81257
1.7556
1.70864
1.66201
1.60392
1.54329
1.56622
1.61241
1.66248
1.71134
1.75734
1.79976
1.83817
1.87224
1.90177
1.92666
3.01814
3.14244
3.09922
3.03652
2.93326
2.77577
2.49157
2.14772
1.92547
1.81239
1.75544
1.70848
1.66191
1.60385
1.54324
1.56619
1.61239
1.66247
1.71133
1.75733
1.79976
1.83817
1.87224
1.90177
1.92666
3.01809
3.14233
3.09904
3.0363
2.933
2.77559
2.49167
2.14802
1.92588
1.81283
1.7558
1.70878
1.66211
1.60398
1.54332
1.56623
1.61242
1.66249
1.71134
1.75734
1.79976
1.83817
1.87224
1.90177
1.92666
3.01814
3.14244
3.09922
3.03652
2.93327
2.77578
2.49158
2.14774
1.9255
1.8124
1.75543
1.70845
1.66187
1.60382
1.54322
1.56618
1.61239
1.66247
1.71133
1.75733
1.79976
1.83817
1.87224
1.90177
1.92666
3.01804
3.1423
3.09903
3.03628
2.93297
2.7755
2.49146
2.1478
1.92569
1.81263
1.75562
1.70864
1.662
1.60392
1.54328
1.5662
1.6124
1.66247
1.71133
1.75733
1.79976
1.83816
1.87224
1.90177
1.92666
3.01834
3.14258
3.09925
3.03662
2.93351
2.77634
2.4926
2.14958
1.92815
1.81531
1.7582
1.71077
1.66337
1.60443
1.54358
1.56634
1.61246
1.6625
1.71134
1.75733
1.79976
1.83816
1.87223
1.90177
1.92666
3.01806
3.14237
3.09915
3.03644
2.93315
2.77555
2.49115
2.14728
1.92509
1.81207
1.75518
1.70831
1.66179
1.6038
1.54321
1.56617
1.61238
1.66246
1.71132
1.75732
1.79975
1.83816
1.87223
1.90176
1.92666
3.01807
3.14239
3.09918
3.03647
2.93321
2.77566
2.49133
2.14745
1.9252
1.81212
1.75518
1.70827
1.66176
1.60377
1.54318
1.56615
1.61237
1.66245
1.71131
1.75732
1.79975
1.83816
1.87223
1.90176
1.92666
3.01836
3.1426
3.09927
3.03665
2.93355
2.77637
2.49261
2.14957
1.92811
1.81526
1.75814
1.71073
1.66334
1.60443
1.54357
1.56633
1.61245
1.66249
1.71133
1.75733
1.79975
1.83816
1.87223
1.90176
1.92666
3.01809
3.14241
3.09921
3.03652
2.93328
2.77576
2.49147
2.14758
1.92527
1.81215
1.75517
1.70825
1.66172
1.60374
1.54316
1.56613
1.61235
1.66245
1.71131
1.75731
1.79975
1.83816
1.87223
1.90176
1.92666
3.01808
3.14239
3.09918
3.03647
2.93319
2.7756
2.49122
2.14735
1.92512
1.81208
1.75515
1.70826
1.66175
1.60377
1.54319
1.56616
1.61237
1.66246
1.71132
1.75732
1.79975
1.83816
1.87223
1.90176
1.92666
3.01835
3.14264
3.09939
3.0368
2.93373
2.77644
2.49234
2.14909
1.92751
1.81464
1.75761
1.71029
1.66303
1.60422
1.54345
1.56626
1.61242
1.66247
1.71132
1.75732
1.79975
1.83816
1.87223
1.90176
1.92665
3.01806
3.14233
3.09906
3.03634
2.93307
2.77565
2.49168
2.14804
1.92588
1.81278
1.75569
1.70866
1.66199
1.6039
1.54325
1.56618
1.61238
1.66246
1.71132
1.75732
1.79975
1.83816
1.87223
1.90176
1.92666
3.01836
3.14265
3.09941
3.03682
2.93375
2.77647
2.49242
2.14912
1.92748
1.81459
1.75753
1.71024
1.66301
1.60425
1.54347
1.56628
1.61243
1.66248
1.71133
1.75732
1.79975
1.83816
1.87223
1.90176
1.92665
3.01809
3.14241
3.09921
3.03651
2.93325
2.7757
2.49136
2.14748
1.92521
1.81213
1.75516
1.70825
1.66173
1.60375
1.54317
1.56615
1.61237
1.66245
1.71132
1.75732
1.79975
1.83816
1.87223
1.90176
1.92666
3.01831
3.1427
3.09954
3.037
2.93399
2.77657
2.4921
2.14858
1.92675
1.8138
1.75676
1.70968
1.66244
1.60311
1.54324
1.56857
1.60553
1.66185
1.6523
1.55694
1.2253
0.623684
0.664278
0.642293
0.819166
3.01831
3.14271
3.09956
3.03702
2.93402
2.77661
2.49215
2.14864
1.92683
1.81386
1.75679
1.70964
1.66256
1.60429
1.54194
1.56804
1.60934
1.6619
1.68374
1.64505
1.4372
0.903999
0.788412
0.758877
0.907568
3.01829
3.14263
3.09943
3.03686
2.93384
2.77655
2.49238
2.14905
1.92732
1.81436
1.75722
1.70995
1.66278
1.60433
1.54288
1.56596
1.61367
1.65723
1.7071
1.69679
1.60427
1.2595
0.949392
0.84703
0.984301
3.01839
3.14276
3.09959
3.03705
2.93406
2.77672
2.49239
2.1489
1.92709
1.81415
1.75709
1.70986
1.6627
1.60396
1.54344
1.56584
1.61266
1.6614
1.7095
1.7368
1.70997
1.5362
1.1761
0.982262
1.07617
3.01808
3.14247
3.09935
3.0367
2.93351
2.77587
2.49123
2.14711
1.92466
1.81151
1.75457
1.70775