/*--------------------------------*- C++ -*----------------------------------*\
| =========                 |                                                 |
| \\      /  F ield         | OpenFOAM: The Open Source CFD Toolbox           |
|  \\    /   O peration     | Version:  4.1                                   |
|   \\  /    A nd           | Web:      www.OpenFOAM.org                      |
|    \\/     M anipulation  |                                                 |
\*---------------------------------------------------------------------------*/
FoamFile
{
    version     2.0;
    format      ascii;
    class       volScalarField;
    location    "0.18";
    object      p;
}
// * * * * * * * * * * * * * * * * * * * * * * * * * * * * * * * * * * * * * //

dimensions      [1 -1 -2 0 0 0 0];

internalField   nonuniform List<scalar> 
52500
(
0.0945423
0.0710194
0.0716945
0.0733962
0.0769164
0.0839082
0.0973592
0.124825
0.164632
0.198259
0.218583
0.238167
0.275903
0.337356
0.407466
0.472458
0.528282
0.655637
1.0137
2.28475
7.11711
8.55294
6.58678
5.91945
7.87109
0.0945427
0.0710212
0.0716965
0.0733989
0.0769205
0.083915
0.0973705
0.124846
0.16465
0.19827
0.218587
0.23815
0.275917
0.337265
0.407521
0.472579
0.527102
0.651677
0.99893
2.21833
6.91301
8.58265
6.58743
5.91023
7.86198
0.0945423
0.0710217
0.0716972
0.0733998
0.076922
0.0839176
0.0973747
0.124854
0.164647
0.19826
0.218576
0.238108
0.275954
0.337097
0.407654
0.47281
0.524754
0.643788
0.969763
2.08863
6.45218
8.6173
6.59018
5.87947
7.8275
0.0945444
0.0710259
0.0717016
0.0734044
0.0769271
0.0839235
0.0973742
0.124843
0.164585
0.198171
0.218487
0.238005
0.275967
0.336833
0.407931
0.472928
0.521574
0.633354
0.931351
1.92194
5.79017
8.60216
6.59543
5.81298
7.74593
0.0945394
0.0710239
0.0716997
0.0734028
0.0769259
0.0839216
0.0973754
0.124848
0.164602
0.198184
0.218493
0.238002
0.276019
0.336546
0.408407
0.472688
0.518422
0.621868
0.88823
1.73335
4.99046
8.47311
6.60848
5.7222
7.61595
0.0945508
0.0710287
0.0717045
0.0734079
0.0769316
0.0839285
0.0973871
0.124867
0.164687
0.198241
0.218496
0.238097
0.275974
0.336355
0.409062
0.47185
0.516365
0.612075
0.84194
1.53312
4.1095
8.18127
6.63982
5.64502
7.43587
0.0945508
0.0710305
0.0717063
0.0734095
0.0769326
0.0839275
0.0973784
0.124843
0.164614
0.19814
0.218421
0.238111
0.275643
0.336456
0.409639
0.470199
0.517689
0.602234
0.795317
1.344
3.2361
7.6209
6.7121
5.59451
7.17146
0.0945406
0.0710302
0.0717066
0.0734107
0.0769359
0.0839359
0.0973857
0.124855
0.164533
0.198067
0.218419
0.2382
0.2752
0.336902
0.409894
0.468384
0.520991
0.592754
0.751774
1.17832
2.55686
6.62951
6.81999
5.56074
6.80144
0.0945517
0.0710325
0.0717086
0.0734121
0.0769361
0.0839327
0.0973839
0.12485
0.164615
0.198132
0.218478
0.238418
0.27489
0.337299
0.409919
0.467343
0.523527
0.583211
0.713123
1.04365
2.04481
5.29477
6.89258
5.54511
6.30993
0.0945513
0.0710333
0.0717096
0.0734139
0.0769394
0.0839392
0.0973989
0.124882
0.16467
0.19819
0.21857
0.238564
0.274715
0.337222
0.410502
0.466417
0.524578
0.576133
0.685121
0.940593
1.65632
3.89295
6.81221
5.52381
5.69382
0.0945446
0.0710278
0.0717038
0.0734074
0.0769315
0.0839312
0.0973867
0.124866
0.16461
0.198188
0.218507
0.238043
0.275788
0.337266
0.407394
0.472414
0.528251
0.655629
1.01376
2.2851
7.1181
8.55252
6.5864
5.91936
7.87092
0.0945409
0.0710214
0.0716969
0.0733994
0.0769214
0.0839161
0.0973711
0.124847
0.164626
0.198227
0.218534
0.238102
0.275868
0.337228
0.407494
0.47256
0.527091
0.651685
0.999004
2.21869
6.91404
8.58225
6.58704
5.91019
7.86177
0.0945516
0.0710298
0.0717055
0.0734083
0.0769308
0.0839244
0.0973729
0.124831
0.164614
0.198152
0.218433
0.238022
0.275882
0.336986
0.40761
0.472787
0.524739
0.64379
0.969825
2.08895
6.45327
8.61703
6.58965
5.87953
7.82723
0.0945403
0.0710187
0.0716939
0.0733957
0.0769162
0.0839079
0.0973571
0.12482
0.164602
0.198214
0.218518
0.238054
0.276001
0.33685
0.40794
0.472925
0.521577
0.633368
0.931409
1.9222
5.79119
8.60207
6.59491
5.81309
7.74566
0.0945515
0.0710295
0.0717052
0.0734079
0.0769301
0.0839234
0.0973695
0.124823
0.164596
0.198135
0.218414
0.237965
0.275994
0.336467
0.40839
0.472677
0.518413
0.621869
0.88827
1.73356
4.99135
8.47323
6.60808
5.7223
7.6157
0.0945405
0.0710195
0.0716946
0.0733963
0.0769165
0.0839075
0.0973545
0.124813
0.164578
0.198185
0.2185
0.238051
0.275946
0.336403
0.409064
0.471845
0.516352
0.61207
0.84197
1.53328
4.11028
8.18159
6.63949
5.64505
7.43566
0.0945442
0.0710262
0.0717019
0.073405
0.0769281
0.0839254
0.097377
0.124847
0.16459
0.19818
0.218519
0.238129
0.275652
0.336518
0.409643
0.470194
0.517676
0.602229
0.795338
1.34412
3.23666
7.62148
6.71181
5.59442
7.17139
0.0945429
0.0710207
0.071696
0.073398
0.0769188
0.0839121
0.0973633
0.124831
0.16461
0.198223
0.218578
0.238336
0.275313
0.336967
0.409931
0.468392
0.520985
0.592753
0.75179
1.1784
2.55721
6.63022
6.81966
5.56058
6.80156
0.094543
0.0710213
0.0716967
0.073399
0.0769207
0.0839153
0.0973711
0.124847
0.164649
0.19827
0.218661
0.238537
0.274974
0.337401
0.409952
0.467348
0.523519
0.583206
0.713126
1.04369
2.04501
5.29548
6.89232
5.54492
6.31005
0.0945427
0.0710197
0.0716948
0.0733965
0.0769166
0.0839082
0.0973585
0.124823
0.164617
0.198236
0.218667
0.238617
0.274756
0.337312
0.41052
0.466408
0.524564
0.576115
0.685106
0.940607
1.65643
3.89341
6.81208
5.52364
5.69388
0.0945427
0.0710195
0.0716946
0.0733962
0.0769163
0.0839077
0.0973567
0.124818
0.164613
0.198234
0.218561
0.238125
0.275861
0.337315
0.407431
0.472428
0.528261
0.655633
1.01376
2.28511
7.11813
8.55241
6.58638
5.91936
7.87092
0.0945429
0.0710209
0.0716962
0.0733983
0.0769196
0.0839134
0.097366
0.124836
0.164627
0.198243
0.218565
0.238106
0.275876
0.337228
0.407489
0.47255
0.527081
0.651674
0.998994
2.21869
6.91406
8.58215
6.58702
5.91018
7.86178
0.0945428
0.0710201
0.0716952
0.0733969
0.0769173
0.0839095
0.0973579
0.12482
0.164593
0.198204
0.218525
0.238052
0.275908
0.337066
0.407627
0.472784
0.524734
0.643784
0.969819
2.08895
6.4533
8.61694
6.58964
5.87953
7.82724
0.0945438
0.0710243
0.0716997
0.073402
0.0769234
0.0839173
0.0973616
0.124816
0.164553
0.198144
0.218475
0.237968
0.275934
0.336803
0.407909
0.472906
0.521558
0.63335
0.931395
1.92219
5.7912
8.60201
6.59489
5.81308
7.74566
0.0945398
0.0710178
0.0716928
0.0733942
0.0769138
0.0839039
0.0973498
0.124806
0.164577
0.198188
0.218498
0.238021
0.276033
0.336565
0.408418
0.472683
0.518417
0.621871
0.888267
1.73356
4.99137
8.47319
6.60807
5.7223
7.6157
0.0945515
0.0710253
0.0717006
0.0734027
0.0769235
0.0839143
0.0973654
0.124828
0.164656
0.198236
0.218516
0.23809
0.275979
0.336352
0.40906
0.471842
0.516351
0.612069
0.841968
1.53328
4.11029
8.18158
6.63948
5.64506
7.43567
0.0945398
0.0710178
0.0716928
0.0733942
0.0769138
0.0839037
0.0973506
0.124809
0.164585
0.198193
0.218518
0.238177
0.275686
0.336543
0.409662
0.470202
0.517679
0.60223
0.795338
1.34412
3.23666
7.62149
6.7118
5.59443
7.1714
0.0945443
0.0710269
0.0717027
0.073406
0.0769296
0.083928
0.0973799
0.124851
0.164588
0.198174
0.21854
0.238269
0.275259
0.336924
0.409897
0.46837
0.52097
0.592739
0.751778
1.17839
2.5572
6.63023
6.81966
5.56059
6.80157
0.0945427
0.0710196
0.0716947
0.0733963
0.0769163
0.083908
0.097356
0.124817
0.164588
0.198191
0.218576
0.238452
0.274899
0.337354
0.409916
0.467322
0.523499
0.583188
0.713111
1.04368
2.045
5.29547
6.89232
5.54493
6.31006
0.0945443
0.0710269
0.0717027
0.073406
0.0769296
0.0839279
0.0973801
0.124852
0.164588
0.198169
0.218607
0.23851
0.274666
0.337243
0.410464
0.466373
0.524539
0.576094
0.685091
0.940594
1.65642
3.8934
6.81209
5.52365
5.69389
0.0945426
0.0710191
0.0716941
0.0733955
0.0769151
0.0839057
0.0973514
0.124807
0.164587
0.198203
0.218535
0.238081
0.275822
0.337283
0.407406
0.472407
0.52824
0.655613
1.01374
2.28509
7.11811
8.55238
6.58638
5.91936
7.87093
0.0945426
0.0710191
0.0716941
0.0733955
0.0769151
0.0839057
0.0973515
0.124807
0.164586
0.198203
0.218533
0.238071
0.275851
0.337209
0.407475
0.472537
0.527068
0.65166
0.99898
2.21868
6.91405
8.58212
6.58702
5.91018
7.86178
0.0945426
0.0710191
0.0716941
0.0733955
0.0769151
0.0839057
0.0973515
0.124807
0.164586
0.198203
0.218531
0.238053
0.275908
0.337059
0.407621
0.472775
0.524725
0.643774
0.969808
2.08894
6.45329
8.6169
6.58963
5.87953
7.82724
0.0945426
0.0710191
0.0716941
0.0733955
0.0769151
0.0839057
0.0973515
0.124807
0.164586
0.198205
0.218528
0.238032
0.275979
0.33683
0.407922
0.472905
0.521555
0.633346
0.931389
1.92218
5.7912
8.60197
6.59489
5.81308
7.74567
0.0945426
0.0710191
0.0716941
0.0733955
0.0769151
0.0839057
0.0973516
0.124807
0.164586
0.198206
0.218526
0.238018
0.276036
0.336554
0.408408
0.472671
0.518406
0.621861
0.888257
1.73355
4.99137
8.47315
6.60806
5.7223
7.61571
0.0945426
0.0710191
0.0716941
0.0733955
0.0769151
0.0839057
0.0973516
0.124807
0.164585
0.198206
0.218532
0.238062
0.275947
0.336397
0.409055
0.471829
0.516337
0.612055
0.841956
1.53327
4.11029
8.18154
6.63946
5.64505
7.43567
0.0945426
0.0710191
0.0716941
0.0733955
0.0769151
0.0839057
0.0973517
0.124807
0.164585
0.198205
0.218546
0.238168
0.275683
0.336533
0.409651
0.47019
0.517667
0.602218
0.795326
1.34411
3.23666
7.62145
6.71178
5.59442
7.1714
0.0945426
0.0710191
0.0716941
0.0733955
0.0769151
0.0839057
0.0973518
0.124808
0.164585
0.198204
0.21857
0.238316
0.275297
0.336948
0.409914
0.468373
0.520967
0.592734
0.751771
1.17838
2.5572
6.63021
6.81964
5.56058
6.80157
0.0945426
0.0710191
0.0716941
0.0733955
0.0769151
0.0839057
0.0973518
0.124808
0.164586
0.198201
0.218601
0.238465
0.274915
0.337356
0.409916
0.467317
0.523491
0.583178
0.7131
1.04366
2.04499
5.29547
6.8923
5.54492
6.31005
0.0945426
0.0710191
0.0716941
0.0733955
0.0769152
0.0839057
0.097352
0.124809
0.164585
0.198199
0.218637
0.238559
0.274703
0.337268
0.410483
0.466378
0.524536
0.576089
0.685083
0.940585
1.65641
3.8934
6.81206
5.52364
5.69389
0.0945418
0.071018
0.0716929
0.0733941
0.0769134
0.0839028
0.0973487
0.124803
0.164589
0.198203
0.218537
0.238081
0.275822
0.337275
0.407402
0.472409
0.528243
0.655617
1.01375
2.2851
7.11811
8.55228
6.58624
5.91956
7.87102
0.0945418
0.071018
0.0716929
0.0733942
0.0769134
0.0839028
0.0973487
0.124803
0.164587
0.198202
0.218535
0.238068
0.275849
0.337202
0.407471
0.472539
0.52707
0.651664
0.998985
2.21868
6.91404
8.58204
6.5869
5.91029
7.86193
0.0945423
0.0710183
0.0716932
0.0733944
0.0769137
0.0839036
0.0973485
0.124802
0.16458
0.198197
0.218524
0.238045
0.2759
0.337057
0.407618
0.472776
0.524728
0.643778
0.969817
2.08896
6.45329
8.61674
6.58969
5.87945
7.82749
0.0945423
0.0710184
0.0716933
0.0733946
0.0769139
0.083904
0.097349
0.124803
0.16458
0.198198
0.218521
0.238023
0.275972
0.336829
0.407919
0.472907
0.521558
0.633352
0.931398
1.9222
5.79121
8.60172
6.59503
5.8129
7.74594
0.0945418
0.0710181
0.0716931
0.0733943
0.0769136
0.0839031
0.0973488
0.124803
0.164584
0.198202
0.218524
0.238013
0.276033
0.336549
0.408406
0.472675
0.518411
0.621867
0.888265
1.73356
4.99137
8.47295
6.60804
5.72228
7.61588
0.0945423
0.0710186
0.0716935
0.0733948
0.0769141
0.0839039
0.0973495
0.124804
0.164585
0.198204
0.21853
0.23806
0.275947
0.336394
0.409053
0.471833
0.516342
0.61206
0.841959
1.53327
4.11025
8.18142
6.63937
5.6452
7.43569
0.0945418
0.071018
0.0716929
0.0733941
0.0769134
0.0839029
0.097349
0.124804
0.164588
0.198208
0.218551
0.238171
0.275687
0.336533
0.40965
0.470192
0.51767
0.602221
0.795327
1.3441
3.23661
7.62132
6.71167
5.59455
7.17137
0.0945424
0.0710185
0.0716935
0.0733948
0.0769142
0.0839043
0.0973501
0.124806
0.164586
0.198206
0.218571
0.238324
0.275303
0.336955
0.409917
0.468377
0.520971
0.592739
0.751774
1.17838
2.55717
6.63011
6.81958
5.5607
6.80157
0.0945418
0.0710183
0.0716933
0.0733947
0.0769142
0.0839041
0.0973517
0.12481
0.164598
0.198214
0.218615
0.238485
0.274934
0.337367
0.409926
0.467329
0.523503
0.58319
0.713111
1.04367
2.04499
5.29542
6.89226
5.54496
6.31005
0.094542
0.0710187
0.0716938
0.0733952
0.0769149
0.0839051
0.0973536
0.124814
0.164601
0.198212
0.218647
0.238578
0.27472
0.337276
0.410494
0.466393
0.524551
0.576105
0.685098
0.940597
1.65641
3.89338
6.81205
5.52366
5.69388
0.0945426
0.0710191
0.0716941
0.0733955
0.0769152
0.0839059
0.0973517
0.124807
0.164588
0.198204
0.218535
0.238081
0.275823
0.337283
0.407406
0.472407
0.52824
0.655612
1.01374
2.28508
7.11807
8.55242
6.58642
5.91936
7.87095
0.0945426
0.0710192
0.0716942
0.0733956
0.0769153
0.083906
0.0973519
0.124807
0.164587
0.198203
0.218533
0.238072
0.275851
0.337209
0.407475
0.472537
0.527067
0.651659
0.998976
2.21866
6.91401
8.58215
6.58706
5.91019
7.86179
0.0945426
0.0710191
0.0716941
0.0733955
0.0769152
0.0839059
0.0973517
0.124807
0.164586
0.198204
0.218531
0.238054
0.275909
0.33706
0.407621
0.472775
0.524725
0.643773
0.969805
2.08893
6.45325
8.61693
6.58966
5.87954
7.82724
0.0945427
0.0710192
0.0716942
0.0733956
0.0769153
0.0839061
0.0973518
0.124807
0.164586
0.198204
0.218527
0.238032
0.27598
0.336831
0.407922
0.472905
0.521555
0.633346
0.931387
1.92217
5.79117
8.60198
6.59491
5.81308
7.74565
0.0945426
0.0710191
0.0716941
0.0733955
0.0769152
0.0839058
0.0973517
0.124807
0.164586
0.198206
0.218526
0.238019
0.276037
0.336555
0.408409
0.472672
0.518406
0.621861
0.888256
1.73354
4.99135
8.47315
6.60807
5.72228
7.61568
0.0945427
0.0710192
0.0716942
0.0733957
0.0769153
0.0839061
0.0973519
0.124807
0.164586
0.198207
0.218531
0.238064
0.275949
0.336401
0.409056
0.471831
0.516339
0.612057
0.841956
1.53327
4.11028
8.18153
6.63947
5.64504
7.43564
0.0945426
0.0710191
0.0716941
0.0733955
0.0769152
0.0839059
0.097352
0.124808
0.164587
0.198208
0.218549
0.238174
0.275688
0.336539
0.409656
0.470194
0.51767
0.602222
0.795329
1.34411
3.23666
7.62145
6.71179
5.59441
7.17137
0.0945426
0.0710192
0.0716942
0.0733956
0.0769153
0.083906
0.0973525
0.124809
0.16459
0.198209
0.218575
0.238327
0.275308
0.336959
0.409923
0.468381
0.520973
0.592741
0.751776
1.17839
2.5572
6.63022
6.81964
5.56056
6.80155
0.0945426
0.0710193
0.0716943
0.0733958
0.0769156
0.0839066
0.0973541
0.124813
0.164597
0.198216
0.218615
0.238487
0.274935
0.337374
0.40993
0.467328
0.523501
0.583188
0.713109
1.04367
2.045
5.29548
6.8923
5.54491
6.31004
0.0945426
0.0710194
0.0716945
0.073396
0.0769159
0.083907
0.0973553
0.124816
0.1646
0.198216
0.21865
0.238582
0.274722
0.337281
0.410494
0.466388
0.524544
0.576097
0.685091
0.940592
1.65641
3.89341
6.81207
5.52363
5.69388
0.0945426
0.0710191
0.0716941
0.0733955
0.0769151
0.0839057
0.0973514
0.124807
0.164587
0.198203
0.218535
0.23808
0.275822
0.337283
0.407406
0.472407
0.52824
0.655613
1.01374
2.28509
7.11811
8.55238
6.58638
5.91936
7.87093
0.0945426
0.0710191
0.0716941
0.0733955
0.0769151
0.0839057
0.0973515
0.124807
0.164586
0.198203
0.218533
0.238071
0.275851
0.337209
0.407475
0.472537
0.527068
0.65166
0.99898
2.21868
6.91405
8.58212
6.58702
5.91018
7.86178
0.0945426
0.0710191
0.0716941
0.0733955
0.0769151
0.0839057
0.0973515
0.124807
0.164586
0.198203
0.218531
0.238053
0.275908
0.337059
0.407621
0.472775
0.524725
0.643774
0.969808
2.08894
6.45329
8.6169
6.58963
5.87953
7.82724
0.0945426
0.0710191
0.0716941
0.0733955
0.0769151
0.0839057
0.0973515
0.124807
0.164586
0.198205
0.218528
0.238032
0.275979
0.33683
0.407922
0.472905
0.521555
0.633346
0.931389
1.92218
5.7912
8.60197
6.59489
5.81308
7.74567
0.0945426
0.0710191
0.0716941
0.0733955
0.0769151
0.0839057
0.0973515
0.124807
0.164586
0.198206
0.218526
0.238018
0.276036
0.336554
0.408408
0.472671
0.518406
0.621861
0.888257
1.73355
4.99137
8.47315
6.60806
5.7223
7.61571
0.0945426
0.0710191
0.0716941
0.0733955
0.0769151
0.0839057
0.0973516
0.124807
0.164585
0.198206
0.218532
0.238062
0.275947
0.336397
0.409055
0.471829
0.516337
0.612055
0.841956
1.53327
4.1103
8.18154
6.63946
5.64505
7.43567
0.0945426
0.0710191
0.0716941
0.0733955
0.0769151
0.0839057
0.0973517
0.124807
0.164585
0.198205
0.218546
0.238168
0.275683
0.336534
0.409651
0.47019
0.517667
0.602218
0.795326
1.34411
3.23666
7.62145
6.71178
5.59442
7.1714
0.0945426
0.0710191
0.0716941
0.0733955
0.0769151
0.0839057
0.0973518
0.124808
0.164586
0.198204
0.21857
0.238316
0.275297
0.336948
0.409914
0.468373
0.520967
0.592734
0.751771
1.17838
2.5572
6.63021
6.81964
5.56058
6.80157
0.0945426
0.0710191
0.0716941
0.0733955
0.0769151
0.0839057
0.0973518
0.124808
0.164586
0.198201
0.218601
0.238465
0.274915
0.337356
0.409916
0.467317
0.523491
0.583178
0.7131
1.04366
2.04499
5.29547
6.8923
5.54492
6.31005
0.0945426
0.0710191
0.0716941
0.0733955
0.0769152
0.0839057
0.097352
0.124809
0.164585
0.198199
0.218637
0.238559
0.274703
0.337268
0.410483
0.466378
0.524536
0.576089
0.685083
0.940585
1.65641
3.8934
6.81206
5.52364
5.69389
0.0945427
0.0710195
0.0716946
0.0733962
0.0769163
0.0839077
0.0973568
0.124818
0.164613
0.198234
0.218561
0.238125
0.275861
0.337315
0.407431
0.472428
0.528261
0.655633
1.01376
2.28511
7.11813
8.55241
6.58638
5.91936
7.87092
0.0945429
0.0710209
0.0716962
0.0733983
0.0769196
0.0839134
0.097366
0.124836
0.164627
0.198243
0.218565
0.238106
0.275876
0.337228
0.407489
0.47255
0.527081
0.651674
0.998994
2.21869
6.91406
8.58215
6.58702
5.91018
7.86178
0.0945428
0.0710201
0.0716952
0.0733969
0.0769173
0.0839095
0.0973579
0.12482
0.164593
0.198204
0.218525
0.238052
0.275908
0.337066
0.407627
0.472784
0.524734
0.643784
0.969819
2.08895
6.4533
8.61694
6.58964
5.87953
7.82724
0.0945438
0.0710243
0.0716997
0.073402
0.0769234
0.0839173
0.0973616
0.124816
0.164553
0.198144
0.218475
0.237968
0.275934
0.336803
0.407909
0.472906
0.521558
0.63335
0.931395
1.92219
5.7912
8.60201
6.59489
5.81308
7.74566
0.0945398
0.0710178
0.0716928
0.0733942
0.0769138
0.0839039
0.0973498
0.124806
0.164577
0.198188
0.218498
0.238021
0.276033
0.336565
0.408418
0.472683
0.518417
0.621871
0.888267
1.73356
4.99137
8.47319
6.60807
5.7223
7.6157
0.0945515
0.0710253
0.0717006
0.0734027
0.0769235
0.0839143
0.0973654
0.124828
0.164656
0.198236
0.218516
0.23809
0.275979
0.336352
0.40906
0.471842
0.516351
0.612069
0.841968
1.53328
4.11029
8.18158
6.63948
5.64506
7.43567
0.0945398
0.0710178
0.0716928
0.0733942
0.0769138
0.0839037
0.0973506
0.124809
0.164585
0.198193
0.218518
0.238177
0.275686
0.336543
0.409662
0.470202
0.517679
0.60223
0.795338
1.34412
3.23666
7.62149
6.7118
5.59443
7.1714
0.0945443
0.0710269
0.0717027
0.073406
0.0769296
0.083928
0.0973799
0.124851
0.164588
0.198174
0.21854
0.238269
0.275259
0.336924
0.409897
0.46837
0.52097
0.592739
0.751778
1.17839
2.5572
6.63023
6.81966
5.56059
6.80157
0.0945427
0.0710196
0.0716947
0.0733963
0.0769163
0.083908
0.097356
0.124817
0.164588
0.198191
0.218576
0.238452
0.274899
0.337354
0.409916
0.467322
0.523499
0.583188
0.713111
1.04368
2.045
5.29547
6.89232
5.54493
6.31006
0.0945443
0.0710269
0.0717027
0.073406
0.0769296
0.0839279
0.0973801
0.124852
0.164588
0.198169
0.218607
0.23851
0.274666
0.337242
0.410464
0.466373
0.524539
0.576094
0.685091
0.940594
1.65642
3.8934
6.81209
5.52365
5.69389
0.0945446
0.0710278
0.0717038
0.0734074
0.0769315
0.0839312
0.0973867
0.124866
0.16461
0.198188
0.218507
0.238043
0.275788
0.337266
0.407394
0.472414
0.528251
0.655629
1.01376
2.2851
7.1181
8.55252
6.5864
5.91936
7.87092
0.0945409
0.0710214
0.0716969
0.0733994
0.0769214
0.0839161
0.0973711
0.124847
0.164626
0.198227
0.218534
0.238101
0.275868
0.337228
0.407494
0.47256
0.527091
0.651685
0.999004
2.21869
6.91404
8.58225
6.58704
5.91019
7.86177
0.0945516
0.0710297
0.0717055
0.0734083
0.0769308
0.0839244
0.0973729
0.124831
0.164614
0.198152
0.218433
0.238022
0.275882
0.336986
0.40761
0.472787
0.524739
0.64379
0.969825
2.08895
6.45327
8.61703
6.58965
5.87954
7.82723
0.0945402
0.0710187
0.0716939
0.0733957
0.0769162
0.0839079
0.0973571
0.12482
0.164602
0.198214
0.218518
0.238054
0.276001
0.33685
0.40794
0.472925
0.521577
0.633368
0.931408
1.9222
5.79119
8.60207
6.59491
5.81309
7.74566
0.0945515
0.0710295
0.0717052
0.0734079
0.0769301
0.0839234
0.0973695
0.124823
0.164596
0.198135
0.218414
0.237965
0.275994
0.336467
0.40839
0.472677
0.518413
0.621869
0.88827
1.73356
4.99135
8.47323
6.60808
5.7223
7.6157
0.0945405
0.0710195
0.0716946
0.0733963
0.0769165
0.0839075
0.0973545
0.124813
0.164578
0.198184
0.218499
0.23805
0.275946
0.336403
0.409064
0.471845
0.516352
0.61207
0.84197
1.53328
4.11028
8.18159
6.63949
5.64505
7.43566
0.0945442
0.0710262
0.0717019
0.073405
0.0769281
0.0839254
0.097377
0.124847
0.16459
0.19818
0.218519
0.238129
0.275652
0.336518
0.409643
0.470194
0.517676
0.602229
0.795338
1.34412
3.23666
7.62148
6.71181
5.59442
7.17139
0.0945429
0.0710207
0.071696
0.0733979
0.0769188
0.0839121
0.0973633
0.124831
0.164611
0.198223
0.218578
0.238336
0.275313
0.336967
0.409932
0.468392
0.520985
0.592753
0.75179
1.1784
2.55721
6.63022
6.81966
5.56058
6.80156
0.094543
0.0710213
0.0716967
0.073399
0.0769207
0.0839153
0.0973711
0.124847
0.164649
0.19827
0.218661
0.238537
0.274973
0.337401
0.409952
0.467348
0.523519
0.583206
0.713126
1.04369
2.04501
5.29548
6.89232
5.54492
6.31005
0.0945427
0.0710197
0.0716948
0.0733965
0.0769166
0.0839082
0.0973585
0.124823
0.164617
0.198236
0.218667
0.238617
0.274755
0.337312
0.41052
0.466408
0.524564
0.576115
0.685106
0.940607
1.65643
3.89341
6.81208
5.52364
5.69388
0.0945428
0.0710215
0.0716969
0.0733993
0.0769212
0.0839166
0.0973724
0.12485
0.164645
0.198258
0.218572
0.238145
0.275879
0.337339
0.407449
0.472449
0.528276
0.655633
1.0137
2.28474
7.11701
8.55272
6.58697
5.91931
7.87134
0.0945427
0.0710238
0.0716993
0.0734017
0.0769234
0.0839174
0.0973674
0.124832
0.164595
0.198188
0.218519
0.238072
0.275858
0.337228
0.407501
0.472575
0.527099
0.651675
0.998929
2.21832
6.91292
8.58256
6.58739
5.91025
7.86214
0.0945399
0.0710199
0.0716953
0.0733977
0.0769193
0.083913
0.097369
0.124845
0.164647
0.19826
0.218564
0.238124
0.275964
0.337107
0.407656
0.472812
0.524756
0.64379
0.969765
2.08863
6.45214
8.61724
6.59002
5.87966
7.8275
0.0945503
0.0710266
0.0717023
0.0734053
0.0769282
0.0839227
0.0973845
0.124868
0.164712
0.198276
0.218547
0.238093
0.276041
0.33679
0.407937
0.472935
0.521581
0.63336
0.931354
1.92194
5.79016
8.60211
6.59534
5.81309
7.74595
0.0945417
0.0710247
0.0717003
0.073403
0.0769254
0.0839205
0.0973685
0.124832
0.16456
0.198134
0.218436
0.237976
0.275996
0.336545
0.40841
0.472692
0.518426
0.621872
0.888234
1.73336
4.99049
8.47306
6.60845
5.72222
7.61601
0.0945414
0.0710289
0.0717051
0.0734089
0.0769335
0.0839321
0.0973834
0.124855
0.164553
0.198105
0.218427
0.237964
0.275873
0.33636
0.409037
0.471844
0.51636
0.612072
0.841943
1.53313
4.10954
8.18127
6.63981
5.64501
7.4359
0.0945503
0.0710267
0.0717022
0.0734047
0.0769264
0.0839191
0.0973711
0.124837
0.164644
0.19819
0.218463
0.238164
0.27568
0.336481
0.409658
0.470214
0.517701
0.602246
0.79533
1.34402
3.23613
7.62092
6.71212
5.5945
7.17146
0.0945507
0.0710334
0.0717098
0.0734144
0.0769405
0.0839417
0.0974038
0.124892
0.164678
0.198203
0.218507
0.238291
0.27528
0.33688
0.409904
0.468393
0.521003
0.592767
0.751788
1.17833
2.55688
6.62954
6.82002
5.56072
6.80142
0.0945406
0.0710241
0.0716998
0.0734024
0.0769245
0.0839188
0.0973669
0.124831
0.164549
0.198108
0.218482
0.238401
0.274853
0.337337
0.409916
0.467339
0.523525
0.583211
0.713125
1.04365
2.04481
5.29476
6.89261
5.5451
6.3099
0.0945514
0.0710363
0.0717128
0.0734172
0.0769431
0.0839422
0.0973976
0.124871
0.164617
0.198101
0.218491
0.238453
0.274625
0.337148
0.410448
0.466388
0.524564
0.576123
0.685115
0.940588
1.65631
3.89293
6.81224
5.5238
5.6938
0.0945411
0.0710289
0.0717053
0.0734099
0.0769363
0.0839388
0.0974051
0.124907
0.164666
0.198233
0.218665
0.238588
0.274837
0.336357
0.412056
0.46541
0.523762
0.578473
0.662845
0.852879
1.36331
2.88103
6.23965
5.36827
4.32572
0.0945528
0.0710347
0.0717111
0.0734157
0.0769418
0.0839431
0.0974082
0.124903
0.164704
0.198231
0.218645
0.238503
0.275179
0.335385
0.412944
0.465685
0.521701
0.581644
0.642381
0.77475
1.10803
2.07887
4.84415
4.80596
4.01228
0.0945429
0.071031
0.0717076
0.0734127
0.07694
0.0839453
0.097415
0.124925
0.164676
0.198241
0.218688
0.238458
0.275269
0.335416
0.412575
0.466665
0.520337
0.581668
0.640259
0.728826
0.928047
1.44503
2.85274
4.32238
3.87884
0.0945429
0.0710342
0.071711
0.0734165
0.0769447
0.0839509
0.0974165
0.124919
0.164631
0.198169
0.218623
0.238394
0.275188
0.335595
0.412192
0.466772
0.520888
0.579315
0.642867
0.70141
0.825047
1.11588
1.86598
3.56757
3.55439
0.0945529
0.0710364
0.071713
0.0734181
0.0769453
0.0839488
0.0974128
0.124907
0.16469
0.198206
0.218612
0.238437
0.275237
0.335518
0.412301
0.466624
0.520991
0.579527
0.640193
0.70312
0.771915
0.920801
1.28412
2.21594
3.18629
0.0945495
0.0710348
0.0717114
0.0734165
0.0769436
0.0839458
0.0974119
0.124909
0.164698
0.198208
0.218608
0.23845
0.275239
0.335534
0.41226
0.466685
0.520954
0.579396
0.640348
0.700934
0.761285
0.834822
0.997881
1.39945
2.33379
0.0945506
0.0710367
0.0717133
0.0734178
0.0769438
0.083943
0.0973968
0.124869
0.164601
0.198084
0.218496
0.238348
0.275166
0.335495
0.412242
0.466656
0.520971
0.579378
0.64015
0.700841
0.75869
0.815722
0.88294
1.03085
1.37009
0.0945507
0.0710382
0.071715
0.0734201
0.0769473
0.0839492
0.0974069
0.124888
0.16462
0.198102
0.218513
0.238352
0.275166
0.335491
0.412236
0.466662
0.520955
0.579395
0.640124
0.700647
0.758489
0.81186
0.862332
0.916632
1.02741
0.0945502
0.0710361
0.0717129
0.0734183
0.0769461
0.0839498
0.0974166
0.124917
0.164689
0.198187
0.218582
0.238419
0.27521
0.335517
0.412248
0.466666
0.520961
0.579389
0.640136
0.700609
0.758349
0.811366
0.858368
0.899992
0.944651
0.0945533
0.0710409
0.0717179
0.0734237
0.0769523
0.0839582
0.0974209
0.124914
0.164652
0.198139
0.218552
0.238375
0.275188
0.335504
0.412244
0.466667
0.520964
0.579392
0.640137
0.700603
0.758326
0.811227
0.857752
0.897108
0.930415
0.0945416
0.0710348
0.0717118
0.0734176
0.0769462
0.0839526
0.097419
0.124923
0.164634
0.198165
0.218609
0.238404
0.275194
0.335583
0.412254
0.466676
0.520971
0.579397
0.640143
0.700605
0.758325
0.811203
0.857627
0.896638
0.928131
0.0945526
0.0710375
0.0717144
0.0734201
0.0769484
0.0839539
0.0974276
0.124941
0.164746
0.198263
0.218661
0.238482
0.275266
0.335553
0.412273
0.466683
0.520977
0.579402
0.640146
0.700607
0.758326
0.811199
0.857605
0.89655
0.927764
0.0945523
0.0710373
0.0717141
0.0734197
0.0769479
0.0839531
0.0974255
0.124936
0.164737
0.198254
0.218654
0.238477
0.275262
0.33555
0.412274
0.466685
0.520977
0.579401
0.640146
0.700606
0.758325
0.811196
0.8576
0.896533
0.9277
0.0945415
0.0710344
0.0717113
0.0734169
0.0769452
0.083951
0.0974159
0.124917
0.164624
0.198157
0.218607
0.238398
0.275196
0.33559
0.412262
0.466682
0.520976
0.5794
0.640144
0.700604
0.758323
0.811195
0.857598
0.896529
0.927689
0.0945532
0.071039
0.0717157
0.0734208
0.0769479
0.0839505
0.0974078
0.124888
0.16463
0.198126
0.218544
0.238386
0.275207
0.335528
0.412266
0.466684
0.520977
0.579401
0.640145
0.700604
0.758323
0.811194
0.857597
0.896528
0.927687
0.0945496
0.0710349
0.0717116
0.0734168
0.0769442
0.0839467
0.0974153
0.124917
0.164716
0.19823
0.218632
0.23848
0.275266
0.335557
0.412283
0.466691
0.520981
0.579403
0.640146
0.700606
0.758324
0.811196
0.857599
0.896529
0.927688
0.0945497
0.0710353
0.071712
0.0734173
0.0769449
0.0839478
0.0974172
0.124921
0.164717
0.198227
0.218625
0.238471
0.275255
0.335546
0.412273
0.466684
0.520976
0.579399
0.640144
0.700604
0.758323
0.811195
0.857598
0.896528
0.927688
0.0945532
0.0710407
0.0717177
0.0734235
0.0769522
0.0839577
0.0974225
0.12492
0.164668
0.198159
0.218572
0.238389
0.2752
0.335514
0.412252
0.466674
0.52097
0.579396
0.640142
0.700602
0.758322
0.811194
0.857597
0.896528
0.927687
0.0945421
0.0710354
0.0717123
0.0734181
0.0769468
0.0839541
0.0974185
0.12492
0.16461
0.19813
0.218572
0.238365
0.275163
0.335565
0.412243
0.46667
0.520967
0.579393
0.640139
0.700601
0.758321
0.811193
0.857597
0.896528
0.927687
0.0945534
0.0710425
0.0717198
0.0734263
0.0769564
0.0839649
0.0974339
0.12494
0.164686
0.198173
0.218583
0.238389
0.275196
0.335507
0.412246
0.46667
0.520968
0.579395
0.640141
0.700603
0.758322
0.811195
0.857598
0.896528
0.927688
0.0945498
0.0710341
0.0717106
0.0734153
0.0769415
0.083942
0.0974065
0.1249
0.16469
0.198198
0.218595
0.238457
0.27525
0.335555
0.41228
0.46669
0.520982
0.579404
0.640148
0.700608
0.758326
0.811197
0.8576
0.896529
0.927688
0.0945511
0.0710407
0.0717179
0.0734242
0.0769537
0.08396
0.0974285
0.124932
0.164691
0.198182
0.218589
0.238429
0.275224
0.335526
0.412262
0.466683
0.520977
0.579402
0.640147
0.700607
0.758327
0.811198
0.8576
0.89653
0.927689
0.0945498
0.0710341
0.0717106
0.0734153
0.0769416
0.083942
0.0974069
0.124901
0.164693
0.198202
0.218599
0.23846
0.275251
0.335555
0.412281
0.466692
0.520983
0.579406
0.64015
0.700609
0.758328
0.811198
0.857601
0.89653
0.927689
0.0945535
0.0710429
0.0717202
0.0734269
0.0769573
0.0839663
0.0974368
0.124946
0.164696
0.198185
0.218593
0.2384
0.275206
0.335515
0.412251
0.466674
0.520972
0.579399
0.640145
0.700606
0.758326
0.811197
0.8576
0.89653
0.927689
0.094542
0.0710355
0.0717125
0.0734183
0.0769471
0.0839546
0.0974194
0.124922
0.164612
0.19813
0.218569
0.238369
0.275163
0.335564
0.412243
0.46667
0.520968
0.579395
0.640142
0.700603
0.758323
0.811195
0.857599
0.896529
0.927688
0.0945538
0.071043
0.0717204
0.073427
0.0769574
0.0839665
0.0974365
0.124945
0.164693
0.198181
0.218588
0.238395
0.275201
0.335511
0.412246
0.46667
0.520969
0.579396
0.640143
0.700604
0.758324
0.811196
0.857599
0.89653
0.927688
0.0945495
0.0710339
0.0717104
0.0734151
0.0769413
0.0839415
0.0974065
0.124901
0.16469
0.198197
0.218595
0.23845
0.275241
0.335544
0.412273
0.466685
0.520977
0.579401
0.640146
0.700606
0.758325
0.811197
0.857599
0.896529
0.927688
0.0945514
0.0710407
0.0717179
0.073424
0.0769533
0.0839593
0.0974254
0.124924
0.164676
0.198163
0.218568
0.238407
0.275207
0.335515
0.412252
0.466674
0.52097
0.579396
0.640142
0.700603
0.758323
0.811195
0.857599
0.896529
0.927688
0.0945496
0.0710337
0.0717102
0.0734147
0.0769408
0.083941
0.0974038
0.124894
0.164675
0.198181
0.218582
0.23844
0.275237
0.335545
0.412272
0.466683
0.520975
0.579398
0.640142
0.700603
0.758322
0.811194
0.857598
0.896528
0.927687
0.0945533
0.0710407
0.0717177
0.0734235
0.0769521
0.0839577
0.0974204
0.124914
0.164654
0.198145
0.218561
0.238378
0.275192
0.335507
0.412248
0.466669
0.520966
0.579392