/*--------------------------------*- C++ -*----------------------------------*\
| =========                 |                                                 |
| \\      /  F ield         | OpenFOAM: The Open Source CFD Toolbox           |
|  \\    /   O peration     | Version:  4.1                                   |
|   \\  /    A nd           | Web:      www.OpenFOAM.org                      |
|    \\/     M anipulation  |                                                 |
\*---------------------------------------------------------------------------*/
FoamFile
{
    version     2.0;
    format      ascii;
    class       surfaceScalarField;
    location    "0.18";
    object      phi;
}
// * * * * * * * * * * * * * * * * * * * * * * * * * * * * * * * * * * * * * //

dimensions      [1 0 -1 0 0 0 0];

internalField   nonuniform List<scalar> 
150500
(
0.00203533
3.49303e-11
-9.68137e-12
0.00206652
-4.16879e-09
-3.54354e-11
0.00208613
-7.95872e-09
-3.8885e-11
0.00209999
-1.26447e-08
-4.67202e-11
0.00212767
-2.07396e-08
-6.30602e-11
0.00216693
-3.84026e-08
-9.63034e-11
0.00216466
-7.41402e-08
-1.15172e-10
0.00234596
-1.4384e-07
-1.72182e-10
0.00261132
-2.10963e-07
9.38805e-11
0.00290095
-2.53439e-07
3.03346e-10
0.00316394
-2.56769e-07
3.28698e-10
0.00352394
-1.92957e-07
5.334e-10
0.00398221
-2.13108e-07
4.93804e-10
0.00423288
3.92616e-08
3.9279e-10
0.00446193
-2.57658e-07
3.08531e-10
0.00485432
3.04233e-09
1.85376e-10
0.00531647
1.25868e-06
1.31386e-10
0.00553641
7.80138e-06
3.06576e-11
0.00531028
4.009e-05
-2.84987e-10
0.00241991
0.00023202
-1.65966e-09
-0.00709058
0.00157779
-4.68798e-09
-0.00190954
0.0018466
1.97303e-09
0.00239621
0.001027
1.73654e-09
0.00131188
0.000922032
3.9061e-10
0.0015151
8.17575e-10
0.00203534
-1.85555e-09
8.03361e-12
0.00206653
-9.36192e-09
-1.11568e-12
0.00208614
-2.02578e-08
-1.55144e-12
0.00210002
-3.48432e-08
-2.24977e-12
0.00212774
-5.65685e-08
-3.8139e-12
0.00216705
-9.39946e-08
-4.29389e-12
0.00216482
-1.54751e-07
-2.43534e-12
0.00234615
-2.49522e-07
-6.21877e-12
0.00261147
-3.1139e-07
1.05239e-10
0.00290106
-3.28882e-07
1.87167e-10
0.00316396
-2.97575e-07
2.26256e-10
0.003524
-1.74174e-07
2.09521e-10
0.0039819
-2.74329e-07
2.11427e-10
0.00423308
1.81122e-07
1.60633e-10
0.00446227
-4.71751e-07
1.14046e-10
0.00485197
7.40763e-08
8.08596e-11
0.00531937
2.36541e-06
4.40395e-11
0.00555522
1.52194e-05
-3.39442e-11
0.00536945
7.68659e-05
-3.24812e-10
0.00273397
0.000427206
-1.65817e-09
-0.00662746
0.00291478
-4.85374e-09
-0.00189132
0.00376921
1.86344e-09
0.00242091
0.00208158
1.79524e-09
0.00136647
0.00181854
2.00356e-10
0.00300562
9.94069e-10
0.00203534
-4.29377e-09
-4.02879e-11
0.00206654
-1.83757e-08
-3.38602e-11
0.00208616
-3.67512e-08
-3.48364e-11
0.00210004
-6.06695e-08
-3.57631e-11
0.00212776
-9.50416e-08
-3.6875e-11
0.0021671
-1.50083e-07
-2.8331e-11
0.00216488
-2.16394e-07
7.53518e-12
0.00234614
-2.72601e-07
9.56446e-11
0.00261133
-2.61614e-07
1.39448e-10
0.00290086
-2.29549e-07
4.63172e-10
0.00316362
-1.79415e-07
6.18105e-10
0.00352393
-8.00109e-08
3.71822e-10
0.00398126
-2.3679e-07
3.08686e-10
0.00423362
3.2831e-07
4.78085e-10
0.00446302
-7.38947e-07
1.88526e-10
0.0048475
4.32877e-07
9.60646e-11
0.00532617
2.54876e-06
6.35613e-11
0.00559501
1.98814e-05
-9.85524e-12
0.00549273
0.000103662
-2.71216e-10
0.00330979
0.000560124
-1.45994e-09
-0.00560376
0.00382229
-5.09932e-09
-0.00185526
0.00584027
1.23819e-09
0.00246557
0.00321871
2.42397e-09
0.00148072
0.00266238
-2.99819e-10
0.00445694
1.24827e-09
0.00203534
-4.02591e-09
1.79146e-11
0.00206652
-1.09266e-08
3.0091e-11
0.00208613
-2.41255e-08
3.20979e-11
0.00209999
-4.85432e-08
3.64724e-11
0.00212776
-8.77279e-08
4.55194e-11
0.00216721
-1.33995e-07
6.51619e-11
0.00216502
-1.67978e-07
7.14562e-11
0.00234625
-1.62562e-07
9.45976e-11
0.00261128
-8.5432e-08
-7.09573e-11
0.00290075
5.61574e-08
-1.82069e-10
0.00316352
1.1205e-07
-1.34176e-10
0.00352423
7.78575e-08
-2.09544e-10
0.00398058
5.06098e-09
-1.46511e-10
0.00423472
4.36566e-07
-7.24762e-11
0.00446331
-9.63654e-07
-3.94994e-11
0.00484107
1.05486e-06
1.01872e-11
0.00534438
1.54825e-06
-1.22474e-11
0.00565915
2.19671e-05
-5.96697e-11
0.00566088
0.000120034
-2.48574e-10
0.00394896
0.000627489
-1.16214e-09
-0.00412404
0.00421128
-4.762e-09
-0.00179151
0.0079387
4.1733e-10
0.00251823
0.00454438
2.38666e-09
0.00163837
0.00345168
-5.11828e-10
0.00580282
1.24498e-09
0.00203539
-3.22398e-08
-5.22863e-11
0.00206656
-3.547e-08
-2.32456e-11
0.00208618
-5.87343e-08
-2.26665e-11
0.00210006
-1.02571e-07
-2.12658e-11
0.00212791
-1.66951e-07
-1.78424e-11
0.00216761
-2.31576e-07
-7.93987e-12
0.00216568
-2.48144e-07
2.47041e-11
0.00234697
-1.75788e-07
1.05275e-10
0.00261199
9.66806e-09
2.70856e-11
0.00290147
3.22512e-07
2.10904e-10
0.00316433
4.63745e-07
3.42972e-10
0.00352521
2.16824e-07
1.60833e-10
0.0039802
5.47072e-07
1.05175e-10
0.00423699
3.02932e-07
3.39288e-10
0.00446287
-9.13474e-07
6.95532e-11
0.00483504
1.98674e-06
5.06411e-11
0.00538067
-1.32766e-07
3.97453e-11
0.00575718
2.18001e-05
-3.6928e-12
0.00585697
0.000127198
-1.71828e-10
0.00454316
0.000634218
-9.33143e-10
-0.00243446
0.00408055
-4.1606e-09
-0.00167481
0.0098622
-5.55363e-10
0.0025638
0.00621106
1.80151e-09
0.00181804
0.00420531
-4.53573e-10
0.00706547
1.18318e-09
0.00203528
-4.93465e-09
4.46484e-11
0.00206649
-1.87196e-08
3.86835e-11
0.00208611
-3.83146e-08
4.15067e-11
0.00209988
-6.39839e-08
4.87076e-11
0.00212741
-9.94935e-08
6.33309e-11
0.00216645
-1.51493e-07
8.76653e-11
0.00216374
-2.13918e-07
1.37105e-10
0.00234393
-2.70416e-07
2.26124e-10
0.00260741
-2.47439e-07
4.649e-10
0.00289551
-1.96419e-07
2.42986e-10
0.00315836
-1.67274e-07
-1.67501e-11
0.0035198
-2.80421e-07
1.99051e-10
0.00397595
6.89116e-07
1.21634e-10
0.00423733
-6.45645e-07
-2.10956e-10
0.00445957
-6.90158e-07
-1.14379e-11
0.00483151
2.5762e-06
2.36943e-11
0.00543425
-2.96534e-06
5.48119e-11
0.00587687
2.12905e-05
2.13054e-11
0.00603861
0.000123472
-1.28269e-10
0.00516904
0.000586928
-7.37075e-10
-0.000723203
0.00349432
-3.63034e-09
-0.00136198
0.0114325
-1.48922e-09
0.00256613
0.00835792
1.48376e-09
0.00201163
0.00499106
-1.42706e-10
0.00832996
9.4214e-10
0.00203529
1.63593e-08
2.86005e-11
0.00206648
1.30608e-09
1.78824e-11
0.00208607
-3.99494e-09
1.83354e-11
0.00209982
-5.43232e-09
1.87959e-11
0.00212739
-6.05003e-09
1.91069e-11
0.00216657
-3.13586e-08
8.98596e-12
0.00216395
-1.05084e-07
6.05678e-12
0.00234403
-2.47891e-07
-1.67978e-11
0.00260727
-3.03545e-07
9.85006e-11
0.00289542
-4.8874e-07
-1.75278e-10
0.00315839
-5.8267e-07
-4.2237e-10
0.00351885
-6.72303e-07
-7.74048e-11
0.00397643
6.51332e-07
-3.94164e-11
0.00423922
-1.44876e-06
-2.65348e-10
0.00445625
-2.04912e-07
-1.91843e-11
0.0048369
2.03764e-06
2.18717e-11
0.00544989
-3.86851e-06
5.51844e-11
0.00593251
1.93167e-05
2.22965e-11
0.00621236
0.000112088
-8.69038e-11
0.00577208
0.000511112
-5.23617e-10
0.00193263
0.00271699
-2.56895e-09
-0.000775892
0.0118906
-2.67763e-09
0.00259508
0.0111504
1.33936e-09
0.00220745
0.00617541
4.15899e-10
0.00972238
3.07057e-10
0.00203541
-2.12299e-08
-1.02358e-11
0.00206658
-1.62791e-08
3.96866e-11
0.00208618
-2.38141e-08
4.42875e-11
0.00210005
-4.01149e-08
5.31644e-11
0.00212799
-6.43054e-08
7.12962e-11
0.0021679
-8.41437e-08
9.96758e-11
0.00216603
-8.35554e-08
9.40566e-11
0.0023473
-4.65485e-08
1.00798e-10
0.00261201
-3.19899e-08
-3.2951e-10
0.00290164
7.50678e-08
-6.66717e-10
0.00316501
5.37069e-08
-6.82589e-10
0.0035229
-4.1405e-07
-5.88512e-10
0.00398135
9.59521e-07
-4.90621e-10
0.00424168
-9.81376e-07
-2.7995e-10
0.00445403
1.53052e-07
-1.60105e-10
0.00484455
9.79567e-07
-3.24525e-11
0.00542625
-1.34263e-06
2.65843e-11
0.00598253
1.55774e-05
4.50317e-12
0.0063404
9.23082e-05
-6.62893e-11
0.00621315
0.000426612
-3.4858e-10
0.00412743
0.00209807
-1.5627e-09
0.000200135
0.0109741
-3.2415e-09
0.00318933
0.0143221
1.45275e-09
0.0024946
0.00798285
7.06067e-10
0.0113893
-5.46842e-10
0.00203528
2.64631e-09
3.76799e-11
0.00206649
5.27592e-09
4.71504e-11
0.00208609
1.22604e-08
4.98436e-11
0.00209984
2.14987e-08
5.47942e-11
0.00212743
3.31139e-08
6.43322e-11
0.00216664
4.77353e-08
7.28446e-11
0.00216399
5.4158e-08
5.3978e-11
0.00234406
2.51818e-08
1.16896e-11
0.00260719
-7.87177e-08
-1.42652e-10
0.00289562
-2.04174e-07
-5.91486e-10
0.0031589
-3.68087e-07
-7.87859e-10
0.00351629
-6.62145e-07
-5.16495e-10
0.00397875
2.47319e-07
-3.58594e-10
0.0042399
-2.64573e-07
-4.40579e-10
0.0044513
-1.07507e-06
-1.42001e-10
0.00485046
9.41739e-07
-2.0763e-11
0.00540703
8.7248e-07
3.28869e-11
0.00601069
6.65986e-06
2.05553e-11
0.00646295
7.30422e-05
-1.01746e-11
0.00663584
0.000357729
-1.7018e-10
0.00565909
0.001618
-9.00202e-10
0.00198248
0.00864608
-3.21515e-09
0.00405086
0.0177407
1.13031e-09
0.00289667
0.010897
8.59243e-10
0.0137224
-5.29904e-10
0.00203529
3.70403e-11
2.06375e-08
0.0020665
5.71142e-11
2.18068e-08
0.0020861
6.19997e-11
3.58865e-08
0.00209988
7.28949e-11
6.05684e-08
0.00212751
9.51918e-11
9.33386e-08
0.0021668
1.29733e-10
1.19607e-07
0.0021643
1.69627e-10
1.07051e-07
0.00234453
2.4941e-10
9.66923e-09
0.00260771
2.26218e-10
-1.88372e-07
0.00289633
-1.97746e-10
-5.22337e-07
0.00315953
-4.20017e-10
-7.24151e-07
0.00351613
-2.31569e-10
-6.823e-07
0.00397869
-1.73668e-10
-7.00874e-07
0.00424165
-3.90549e-10
1.04576e-06
0.00445026
-7.68989e-11
-2.93769e-06
0.00485357
3.8085e-11
1.53531e-06
0.00538985
5.96102e-11
1.90784e-06
0.0060878
7.41898e-11
-2.09964e-06
0.00661969
5.92497e-11
5.88016e-05
0.00691789
-6.011e-11
0.00029447
0.00674063
-4.69781e-10
0.00125087
0.00467238
-2.03755e-09
0.0059517
0.00564374
5.42189e-10
0.0202412
0.00391164
7.34421e-10
0.0145387
-2.92575e-10
0.0176254
0.00203535
-3.26275e-09
9.66678e-12
0.00206654
-2.93687e-10
4.11477e-11
0.00208616
-2.03552e-09
4.54182e-11
0.00210004
-8.97325e-09
5.52492e-11
0.00212784
-2.08659e-08
7.57464e-11
0.00216733
-2.16082e-08
1.17231e-10
0.00216519
2.06045e-08
1.51948e-10
0.00234647
1.47784e-07
2.442e-10
0.00261147
2.89155e-07
-1.31931e-11
0.00290096
4.74897e-07
-1.97048e-10
0.00316362
5.58793e-07
-2.34723e-10
0.00352349
4.47199e-07
-3.51277e-10
0.00398192
3.00938e-07
-3.14013e-10
0.00423275
4.05029e-07
-2.1184e-10
0.00446186
-1.01636e-08
-1.59076e-10
0.00485424
1.57999e-07
-5.61576e-11
0.00531643
1.36657e-06
-4.02304e-11
0.00553632
7.89217e-06
-1.67432e-11
0.00531001
4.01875e-05
3.84701e-12
0.00241846
0.000232177
-3.51762e-11
-0.00709113
0.00157811
-1.42464e-10
-0.00190896
0.00184663
4.71888e-10
0.00239565
0.0010272
8.89403e-11
0.00131137
0.000921838
3.06531e-11
0.00151483
-9.86224e-12
0.00203536
-1.78907e-08
-1.03646e-11
0.00206655
-1.79635e-08
1.81582e-12
0.00208617
-2.77929e-08
2.94867e-12
0.00210005
-4.88741e-08
4.95565e-12
0.00212781
-7.95358e-08
9.28123e-12
0.00216727
-1.01695e-07
1.27869e-11
0.00216509
-7.33095e-08
1.77162e-11
0.0023464
4.56419e-08
4.21853e-11
0.0026116
2.51392e-07
-3.76131e-12
0.00290118
5.54723e-07
-6.79564e-11
0.00316416
6.9079e-07
-1.30175e-10
0.00352418
6.27851e-07
-1.84431e-11
0.00398201
4.06408e-07
-3.31451e-11
0.00423313
7.68679e-07
1.98882e-12
0.00446229
-1.15999e-07
2.10082e-11
0.00485196
3.21583e-07
3.81809e-11
0.00531933
2.57465e-06
5.11643e-11
0.00555508
1.53954e-05
6.0204e-11
0.0053691
7.70537e-05
4.51164e-11
0.00273247
0.000427555
4.30336e-12
-0.00662866
0.00291594
-1.02705e-10
-0.00189097
0.00376912
4.11198e-10
0.00242007
0.00208207
8.73343e-11
0.00136604
0.00181736
2.85689e-11
0.00300539
-1.04142e-11
0.00203527
6.60079e-09
4.50438e-11
0.00206646
1.06737e-08
4.92781e-11
0.00208605
1.61664e-08
5.23116e-11
0.00209979
2.30786e-08
5.82535e-11
0.00212733
3.32541e-08
6.97088e-11
0.00216646
4.94318e-08
7.80574e-11
0.00216384
7.19519e-08
7.81187e-11
0.00234389
1.05206e-07
4.12137e-11
0.0026072
1.51152e-07
8.96837e-11
0.00289531
1.48073e-07
-2.31292e-10
0.00315811
1.55555e-07
-4.41404e-10
0.00351941
2.00369e-07
-1.30173e-10
0.00397835
2.53724e-08
-1.0927e-10
0.00423253
4.54172e-07
-3.72655e-10
0.00446254
-5.83837e-07
-7.32074e-11
0.00484724
5.95814e-07
1.55805e-11
0.00532599
2.73764e-06
1.87221e-11
0.00559482
2.00251e-05
3.57262e-11
0.0054924
0.00010384
2.64341e-11
0.00330861
0.000560507
3.19623e-12
-0.00560491
0.00382375
-1.31089e-10
-0.00185436
0.00584036
4.91575e-10
0.00246612
0.00321855
7.67353e-11
0.00148031
0.00266227
2.40034e-11
0.0044561
-1.18128e-11
0.00203536
-6.01052e-09
-1.68865e-11
0.00206655
-7.70614e-09
-2.32578e-11
0.00208616
-1.08866e-08
-2.43586e-11
0.00210003
-1.48551e-08
-2.631e-11
0.00212774
-2.01412e-08
-3.01887e-11
0.0021671
-2.6937e-08
-3.90972e-11
0.00216481
-3.07634e-08
-1.85618e-11
0.00234597
-2.4988e-08
1.79896e-11
0.0026112
-4.06667e-09
2.40152e-10
0.00290077
5.17485e-08
3.24055e-10
0.00316372
1.04732e-07
1.8912e-10
0.00352445
1.54337e-07
4.23234e-10
0.00398064
1.15245e-07
3.33782e-10
0.0042346
6.34074e-07
2.42893e-10
0.00446314
-7.69791e-07
1.64614e-10
0.00484092
1.23793e-06
1.04076e-10
0.0053442
1.74219e-06
1.03189e-10
0.00565888
2.21435e-05
9.26639e-11
0.00566044
0.000120233
5.86294e-11
0.003948
0.000627866
2.6932e-11
-0.00412571
0.00421282
-7.72574e-11
-0.00179052
0.00793918
3.46176e-10
0.0025189
0.00454397
8.83314e-11
0.00163794
0.00345177
1.31469e-11
0.00580204
-1.37796e-11
0.00203527
1.86606e-08
5.82971e-11
0.00206646
2.22663e-08
6.04028e-11
0.00208604
3.53524e-08
6.38559e-11
0.00209978
6.0593e-08
7.10824e-11
0.00212732
9.81883e-08
8.51199e-11
0.00216643
1.34883e-07
1.02852e-10
0.00216376
1.36856e-07
1.04614e-10
0.00234376
7.60419e-08
7.40188e-11
0.00260705
-6.27316e-08
8.48818e-11
0.00289514
-3.20588e-07
-2.89404e-10
0.00315786
-4.41029e-07
-4.44952e-10
0.00351975
-4.25795e-07
-2.85018e-10
0.00397654
4.71499e-08
-2.097e-10
0.00423533
-2.06814e-07
-4.95328e-10
0.00446198
-1.11502e-06
-1.39922e-10
0.0048345
1.95654e-06
-2.79878e-11
0.00538024
-7.87066e-08
-1.77479e-11
0.00575677
2.18953e-05
-7.04935e-12
0.00585655
0.000127339
1.1794e-11
0.00454245
0.000634536
-9.87915e-12
-0.00243604
0.00408206
-9.9333e-11
-0.0016742
0.00986313
1.73415e-10
0.00256444
0.00621054
6.52392e-11
0.00181768
0.00420548
-9.54377e-13
0.00706487
-1.70127e-11
0.00203536
5.4696e-09
-5.01579e-11
0.00206654
8.69249e-09
-2.44781e-11
0.00208615
1.91497e-08
-2.51149e-11
0.00210001
3.94987e-08
-2.67722e-11
0.00212773
6.99918e-08
-2.9504e-11
0.00216712
9.96636e-08
-2.84888e-11
0.00216484
1.03683e-07
-4.58807e-11
0.00234599
4.62673e-08
-5.95526e-11
0.00261117
-8.09536e-08
-3.33209e-10
0.00290078
-2.61578e-07
-2.35584e-10
0.00316374
-3.96868e-07
-6.59198e-11
0.00352436
-5.26346e-07
-1.70088e-10
0.00397911
4.69906e-07
-1.4606e-10
0.00423862
-7.46722e-07
2.34036e-10
0.00445998
-7.06961e-07
2.89184e-11
0.00483152
2.6283e-06
1.2522e-11
0.005434
-2.88298e-06
4.0115e-12
0.00587651
2.13848e-05
2.87479e-12
0.0060382
0.000123596
7.29809e-12
0.00516827
0.00058719
4.49473e-12
-0.000724788
0.00349562
-5.08794e-11
-0.0013615
0.0114337
3.62814e-11
0.00256677
0.00835693
4.83132e-11
0.00201116
0.00499208
-1.62342e-11
0.0083291
-2.2727e-11
0.00203534
1.6251e-09
2.45159e-11
0.00206653
1.21278e-08
4.53425e-11
0.00208614
2.35492e-08
4.91647e-11
0.00210001
3.83166e-08
5.81372e-11
0.00212779
5.9841e-08
7.6723e-11
0.00216727
9.45405e-08
1.15761e-10
0.0021651
1.35805e-07
1.4039e-10
0.00234632
1.76915e-07
2.05338e-10
0.00261135
1.37153e-07
3.35884e-11
0.00290095
7.35996e-08
-5.52687e-11
0.00316377
-1.46676e-08
3.51466e-13
0.00352316
-3.96492e-07
-2.60581e-10
0.00397925
9.30029e-07
-1.87309e-10
0.0042403
-1.13705e-06
-1.34663e-10
0.00445651
6.54594e-08
-1.00234e-10
0.00483681
2.20435e-06
-3.427e-11
0.00544966
-3.71272e-06
-1.24268e-11
0.00593213
1.94362e-05
-7.21118e-12
0.00621191
0.000112208
-7.35118e-13
0.0057714
0.000511332
3.22304e-12
0.0019307
0.00271792
-1.72481e-11
-0.000776303
0.0118925
-1.2372e-11
0.00259489
0.011149
3.88244e-12
0.00220687
0.00617543
-2.41012e-11
0.0097219
-2.89046e-11
0.00203534
2.23966e-09
-7.72719e-12
0.00206653
8.14167e-09
-2.56535e-11
0.00208614
1.76607e-08
-2.81627e-11
0.0021
3.0199e-08
-3.35929e-11
0.00212769
4.79644e-08
-4.48498e-11
0.00216694
7.69232e-08
-6.6361e-11
0.0021646
1.17097e-07
-6.96972e-11
0.0023458
1.63704e-07
-8.51872e-11
0.00261099
1.77746e-07
9.5539e-11
0.00290074
1.57936e-07
2.08777e-10
0.00316388
6.46375e-08
1.63869e-10
0.00352168
-3.20329e-07
2.90815e-10
0.00398016
1.01325e-06
2.33646e-10
0.00424062
-9.72301e-07
1.87207e-10
0.00445318
2.2246e-07
1.63882e-10
0.00484387
1.04681e-06
1.13603e-10
0.00542571
-1.25641e-06
7.91871e-11
0.00598204
1.56586e-05
7.25373e-11
0.00633989
9.24081e-05
6.25989e-11
0.00621251
0.000426774
4.31848e-11
0.00412608
0.00209864
2.53101e-11
0.000199689
0.0109764
-2.46219e-11
0.00318872
0.0143208
-2.42107e-11
0.00249404
0.0079821
-3.73677e-11
0.0113893
-3.6138e-11
0.00203534
2.40368e-10
1.09533e-12
0.00206653
2.13339e-09
6.96766e-12
0.00208614
3.62277e-09
8.23133e-12
0.00210002
5.59693e-09
9.88609e-12
0.00212774
8.84788e-09
1.54029e-11
0.00216705
1.55389e-08
2.50039e-11
0.00216481
2.82972e-08
8.08487e-11
0.00234613
5.18652e-08
1.61698e-10
0.00261139
7.24715e-08
3.14322e-10
0.00290135
7.05475e-08
3.38938e-10
0.00316461
6.78542e-10
3.66748e-10
0.00352079
-2.01187e-07
4.05838e-10
0.00398152
6.88268e-07
3.56231e-10
0.00424079
1.50324e-07
2.0253e-10
0.0044514
-8.28809e-07
1.78226e-10
0.00485022
1.12974e-06
1.39554e-10
0.00540668
1.02714e-06
1.03921e-10
0.00601024
6.76332e-06
9.1067e-11
0.00646237
7.31506e-05
7.68545e-11
0.00663519
0.000357868
4.85221e-11
0.00565814
0.00161837
4.01555e-11
0.00198149
0.00864858
3.01737e-11
0.00404998
0.0177391
-2.23601e-11
0.00289618
0.010896
-4.36716e-11
0.0137224
-4.11659e-11
0.00203533
-6.85931e-12
-1.04957e-10
0.00206652
-3.00622e-11
-1.3565e-09
0.00208613
-3.30901e-11
-2.22678e-09
0.00209999
-3.98905e-11
-3.35946e-09
0.00212767
-5.40801e-11
-5.21059e-09
0.00216693
-8.25731e-11
-9.14291e-09
0.00216462
-9.05584e-11
-1.60707e-08
0.00234584
-1.22236e-10
-2.68444e-08
0.00261104
1.52615e-10
-1.78603e-08
0.00290116
3.19141e-10
-1.87531e-08
0.00316441
2.60542e-10
-5.41335e-08
0.00351999
5.53259e-10
-7.00785e-08
0.00398109
4.57433e-10
-6.09289e-08
0.00424227
3.3017e-10
1.63637e-06
0.00445015
2.92504e-10
-2.55965e-06
0.00485319
1.93076e-10
1.78906e-06
0.00538939
1.33907e-10
2.06877e-06
0.00608719
8.63642e-11
-1.94799e-06
0.00661911
6.81715e-11
5.88894e-05
0.00691735
6.63252e-11
0.000294569
0.0067402
5.25577e-11
0.00125109
0.0046714
4.52909e-11
0.00595289
0.00564264
-2.55411e-11
0.0202403
0.00391113
-4.38758e-11
0.0145384
-4.16775e-11
0.0176258
0.00203533
-3.39507e-10
3.81922e-13
0.00206652
-2.70416e-09
1.96329e-12
0.00208613
-4.82509e-09
2.30506e-12
0.00209999
-7.58208e-09
3.19725e-12
0.00212766
-1.21742e-08
5.03765e-12
0.00216691
-2.1631e-08
8.47765e-12
0.0021646
-3.8661e-08
2.22971e-11
0.00234581
-6.90385e-08
4.52759e-11
0.00261109
-8.56788e-08
1.38237e-10
0.0029007
-9.11489e-08
1.47082e-10
0.00316357
-8.01679e-08
1.147e-10
0.00352352
-2.4618e-08
1.99445e-10
0.00398187
-7.95276e-08
1.75214e-10
0.00423263
1.40531e-07
1.57164e-10
0.00446167
-1.83152e-07
1.23715e-10
0.00485406
6.53366e-08
1.06531e-10
0.0053162
1.31151e-06
1.07544e-10
0.00553608
7.85301e-06
1.0762e-10
0.00530977
4.01483e-05
1.08955e-10
0.00241811
0.000232136
1.0217e-10
-0.00709145
0.00157809
7.8709e-11
-0.001909
0.00184659
1.59746e-10
0.00239561
0.0010272
5.94092e-12
0.00131136
0.00092184
-1.24241e-11
0.00151483
-2.5717e-11
0.00203534
-1.8943e-09
1.43451e-12
0.00206652
-6.43638e-09
9.66506e-12
0.00208614
-1.42069e-08
1.12015e-11
0.00210001
-2.45218e-08
1.52608e-11
0.00212771
-3.88201e-08
2.38024e-11
0.002167
-6.0952e-08
4.14463e-11
0.00216472
-8.8544e-08
7.82382e-11
0.00234596
-1.10951e-07
1.55727e-10
0.00261122
-9.67929e-08
2.16833e-10
0.0029008
-6.63712e-08
2.11311e-10
0.00316355
-1.73889e-08
1.61118e-10
0.00352355
7.82757e-08
1.90232e-10
0.00398154
-5.76536e-08
1.37157e-10
0.00423281
3.3942e-07
1.05851e-10
0.004462
-3.44252e-07
7.56327e-11
0.00485172
1.77228e-07
6.93144e-11
0.00531911
2.46003e-06
7.22427e-11
0.00555489
1.53114e-05
7.58297e-11
0.00536893
7.69806e-05
8.09877e-11
0.0027322
0.000427487
7.82547e-11
-0.00662891
0.00291587
5.45324e-11
-0.001891
0.00376909
1.59679e-10
0.00242003
0.00208208
6.0614e-12
0.00136602
0.00181736
-1.0349e-11
0.0030054
-2.42775e-11
0.00203533
-2.61734e-10
8.15341e-13
0.00206652
-7.60939e-09
4.06808e-12
0.00208613
-1.54791e-08
4.59214e-12
0.00209998
-2.55498e-08
5.99157e-12
0.00212766
-3.99702e-08
8.9559e-12
0.00216689
-6.19985e-08
1.39532e-11
0.00216451
-8.24198e-08
2.40123e-11
0.00234566
-8.75934e-08
6.83134e-11
0.00261086
-2.47147e-08
3.17583e-11
0.00290042
2.56891e-08
1.34985e-12
0.00316315
7.82025e-08
-2.69873e-11
0.00352349
1.71595e-07
-3.47711e-12
0.0039809
-4.25512e-08
-8.98397e-13
0.00423322
5.14277e-07
2.72516e-11
0.00446259
-5.98356e-07
2.51228e-11
0.00484709
5.45001e-07
4.59348e-11
0.00532573
2.66407e-06
5.0247e-11
0.00559456
1.99789e-05
5.47881e-11
0.00549215
0.00010379
5.88072e-11
0.00330826
0.000560454
5.44061e-11
-0.00560533
0.00382376
2.89596e-11
-0.0018544
0.00584017
1.53432e-10
0.00246608
0.00321854
9.82442e-12
0.0014803
0.00266227
-7.14295e-12
0.0044561
-2.11407e-11
0.00203534
-3.8396e-09
5.26143e-12
0.00206652
-2.51302e-09
2.58513e-11
0.00208612
-4.7037e-09
2.81072e-11
0.00209997
-1.30036e-08
3.26501e-11
0.00212772
-2.71477e-08
4.2011e-11
0.00216714
-3.39259e-08
5.90681e-11
0.00216489
-1.41069e-08
5.30803e-11
0.00234598
7.61821e-08
5.04789e-11
0.00261102
1.62269e-07
-1.5084e-10
0.00290054
2.93477e-07
-2.93831e-10
0.00316315
3.47663e-07
-2.68707e-10
0.00352384
2.28769e-07
-3.05332e-10
0.00398031
1.29188e-07
-2.06974e-10
0.00423455
5.39346e-07
-1.20546e-10
0.00446309
-8.74301e-07
-5.59304e-11
0.00484082
1.13776e-06
6.19127e-12
0.00534409
1.65343e-06
1.04052e-11
0.00565879
2.20502e-05
1.39716e-11
0.00566038
0.000120148
3.52758e-11
0.0039479
0.000627785
4.39809e-11
-0.00412583
0.00421277
1.53116e-11
-0.00179054
0.00793913
1.6567e-10
0.00251886
0.00454395
2.23561e-11
0.00163793
0.00345176
-2.47953e-12
0.00580204
-1.62208e-11
0.00203536
-1.79912e-08
-1.22028e-11
0.00206654
-1.54075e-08
-5.58517e-12
0.00208614
-2.16547e-08
-5.49979e-12
0.00209999
-3.76178e-08
-5.52964e-12
0.0021277
-6.14187e-08
-5.44095e-12
0.00216706
-7.69133e-08
-7.89913e-12
0.00216479
-6.27373e-08
-7.52068e-12
0.00234595
4.95534e-09
-5.81168e-12
0.00261118
5.71823e-08
-4.21342e-11
0.00290075
2.34082e-07
-6.06277e-11
0.0031637
2.77916e-07
-9.95496e-11
0.00352463
6.67489e-08
1.01247e-11
0.00397968
4.53689e-07
-1.58241e-11
0.00423642
1.95628e-07
4.65524e-11
0.0044623
-9.34219e-07
4.41365e-11
0.00483454
2.00999e-06
5.97642e-11
0.00538014
-8.37562e-08
5.75433e-11
0.00575657
2.18648e-05
5.23507e-11
0.00585639
0.000127296
5.07114e-11
0.00454229
0.000634494
5.36186e-11
-0.00243624
0.00408206
2.20294e-11
-0.00167423
0.00986305
1.75741e-10
0.00256442
0.0062105
4.80334e-11
0.00181767
0.00420548
4.40384e-12
0.00706487
-1.24184e-11
0.00203525
1.7422e-08
4.45507e-11
0.00206645
1.25442e-08
3.11966e-11
0.00208605
1.62471e-08
3.27474e-11
0.00209979
2.94529e-08
3.61528e-11
0.00212724
4.90399e-08
4.23411e-11
0.00216615
5.61435e-08
4.34177e-11
0.00216334
1.42392e-08
6.93735e-11
0.00234336
-7.19495e-08
1.0301e-10
0.00260693
-1.82705e-07
3.39131e-10
0.00289517
-4.20722e-07
1.26255e-10
0.00315786
-5.29725e-07
-9.5849e-11
0.00351934
-6.20323e-07
1.39421e-10
0.0039757
3.47581e-07
1.56127e-10
0.00423718
-9.52799e-07
-2.18971e-10
0.00445934
-8.14148e-07
2.08094e-11
0.00483122
2.5382e-06
6.72438e-11
0.00543389
-2.9622e-06
7.19522e-11
0.00587648
2.13126e-05
7.1768e-11
0.00603819
0.000123527
6.54938e-11
0.00516825
0.000587123
5.61532e-11
-0.000724813
0.00349557
-2.64417e-11
-0.0013615
0.0114336
1.83301e-10
0.00256676
0.0083569
7.20513e-11
0.00201116
0.00499208
1.33457e-11
0.00832911
-6.44359e-12
0.00203536
3.59977e-09
-1.23655e-11
0.00206654
-1.53775e-10
-5.34422e-12
0.00208614
1.0253e-09
-5.29241e-12
0.00209999
7.54799e-09
-5.43165e-12
0.0021277
1.73636e-08
-5.58538e-12
0.00216707
1.70967e-08
-8.67752e-12
0.0021648
-2.78361e-08
-4.31014e-12
0.002346
-1.67516e-07
6.27812e-12
0.00261121
-3.06564e-07
-3.42841e-12
0.00290087
-4.69418e-07
-7.05673e-11
0.00316407
-5.75813e-07
-1.52527e-10
0.00352352
-7.07188e-07
3.60876e-11
0.00397941
6.79495e-07
1.60833e-11
0.00424027
-1.32331e-06
4.022e-11
0.00445646
-1.10476e-07
5.78936e-11
0.00483675
2.11291e-06
6.26827e-11
0.00544961
-3.79791e-06
6.55161e-11
0.00593208
1.93789e-05
6.47182e-11
0.00621185
0.00011216
6.60865e-11
0.00577135
0.000511281
6.60788e-11
0.00193065
0.00271787
-4.82961e-12
-0.000776307
0.0118924
1.52652e-10
0.0025949
0.011149
9.6877e-11
0.00220687
0.00617543
2.27071e-11
0.0097219
-2.88997e-12
0.00203535
-1.43092e-09
8.94336e-12
0.00206653
-2.96532e-11
3.95227e-11
0.00208615
-9.44575e-10
4.37147e-11
0.00210003
-1.95206e-09
5.3369e-11
0.00212783
-2.71163e-09
7.35359e-11
0.00216731
-3.3164e-09
1.13647e-10
0.00216514
-6.98956e-09
1.45456e-10
0.00234632
-1.45562e-08
2.29097e-10
0.0026113
-4.17029e-08
1.04825e-11
0.002901
-8.80906e-08
-1.34748e-10
0.00316395
-1.44717e-07
-1.43845e-10
0.00352171
-4.82028e-07
-2.31402e-10
0.00398028
9.05886e-07
-1.83426e-10
0.0042408
-1.02771e-06
-1.14271e-10
0.00445329
1.97375e-07
-7.19313e-11
0.00484392
1.03136e-06
-1.46732e-11
0.00542573
-1.28028e-06
1.57091e-11
0.00598206
1.56334e-05
2.54972e-11
0.00633992
9.23769e-05
3.90493e-11
0.00621255
0.000426743
5.23051e-11
0.00412614
0.00209861
1.75645e-11
0.000199732
0.0109764
8.0086e-11
0.00318873
0.0143208
1.05142e-10
0.00249405
0.0079821
3.71519e-11
0.0113893
3.92781e-12
0.00203533
1.43073e-09
5.58675e-13
0.00206652
3.18725e-11
2.1071e-12
0.00208613
9.50854e-10
2.02287e-12
0.00209997
1.95856e-09
2.62402e-12
0.00212763
2.70684e-09
4.34227e-12
0.00216684
3.3042e-09
8.10699e-12
0.00216443
6.6753e-09
1.46557e-11
0.00234557
1.33198e-08
3.18962e-11
0.00261068
4.46618e-08
8.9916e-12
0.00290056
7.81607e-08
-4.32084e-11
0.00316379
2.06336e-08
-1.09939e-10
0.00352004
-1.60532e-07
-5.65927e-11
0.00398098
7.18094e-07
-6.7881e-11
0.00424039
1.62194e-07
-9.49577e-12
0.00445112
-8.18667e-07
1.67406e-12
0.00485003
1.1291e-06
2.67818e-11
0.00540653
1.02121e-06
4.72973e-11
0.00601015
6.75539e-06
5.14413e-11
0.00646235
7.31399e-05
5.63618e-11
0.00663519
0.000357857
5.89285e-11
0.00565813
0.00161836
4.08429e-11
0.00198151
0.00864856
1.63954e-11
0.00405
0.0177391
1.376e-10
0.00289619
0.010896
4.84266e-11
0.0137224
1.30625e-11
0.00203535
9.054e-12
-3.5992e-09
0.00206653
3.88877e-11
1.57634e-10
0.00208615
4.29825e-11
-1.01818e-09
0.00210003
5.23977e-11
-7.543e-09
0.00212783
7.20427e-11
-1.73669e-08
0.00216732
1.11269e-10
-1.7108e-08
0.00216513
1.41482e-10
2.74423e-08
0.00234632
2.21372e-10
1.6612e-07
0.00261123
7.22005e-12
3.10043e-07
0.00290126
-1.29159e-10
4.58191e-07
0.0031642
-1.36674e-10
4.78557e-07
0.00351968
-2.19689e-10
3.02703e-07
0.00398095
-1.62013e-10
2.24785e-07
0.00424225
-1.09417e-10
1.86346e-06
0.00445014
-8.39275e-11
-2.4142e-06
0.00485316
-2.22563e-11
1.8757e-06
0.00538936
1.51038e-11
2.11665e-06
0.00608722
3.02984e-11
-1.89609e-06
0.00661917
4.33533e-11
5.89188e-05
0.00691737
5.22292e-11
0.000294591
0.00674024
5.03111e-11
0.0012511
0.00467146
6.71201e-12
0.00595289
0.00564267
1.30539e-10
0.0202403
0.00391115
5.15596e-11
0.0145384
2.15677e-11
0.0176259
0.00203533
-2.24463e-12
3.99106e-12
0.00206651
-7.33015e-12
5.53047e-12
0.00208612
-1.79654e-11
5.90452e-12
0.00209997
-2.54868e-11
6.88537e-12
0.00212764
-1.04581e-10
8.79471e-12
0.00216687
-2.53385e-10
1.49735e-11
0.0021645
-3.49811e-10
1.39058e-11
0.00234562
-4.7848e-10
1.13804e-11
0.00261083
-8.55498e-10
-8.09172e-12
0.00290043
-3.11184e-09
-2.22476e-12
0.00316317
-2.27466e-09
-1.1963e-11
0.0035231
1.3902e-08
-1.65918e-12
0.00398156
-6.48196e-08
9.6335e-13
0.00423241
1.38639e-07
2.6417e-11
0.00446148
-1.89261e-07
1.67758e-11
0.00485388
6.15372e-08
-9.88888e-12
0.00531604
1.30964e-06
-1.33965e-11
0.00553595
7.85252e-06
-1.83784e-11
0.00530967
4.01503e-05
-2.68988e-11
0.00241798
0.000232139
-3.77252e-11
-0.00709157
0.00157809
1.21708e-11
-0.00190901
0.0018466
5.62347e-10
0.0023956
0.00102721
7.74304e-10
0.00131136
0.00092184
-1.15601e-09
0.00151484
-5.43436e-10
0.00203533
-8.71891e-13
4.38957e-12
0.00206652
-3.76916e-12
5.80546e-12
0.00208612
-9.8527e-12
6.16187e-12
0.00209997
-1.6648e-11
7.05934e-12
0.00212764
-4.24987e-11
8.22017e-12
0.00216687
-9.95313e-11
1.28567e-11
0.0021645
-1.37027e-10
9.83445e-12
0.00234562
-2.77149e-10
1.48551e-11
0.00261084
-9.79511e-10
-1.35946e-12
0.00290044
-3.16759e-09
5.88576e-12
0.00316317
-4.71813e-10
-6.32263e-12
0.00352322
3.43098e-08
1.51048e-11
0.00398133
-1.24914e-07
8.42175e-12
0.00423266
2.88806e-07
2.65798e-11
0.00446186
-3.82406e-07
1.35777e-11
0.00485158
1.56027e-07
-8.93754e-12
0.00531897
2.44948e-06
-1.19827e-11
0.00555476
1.53081e-05
-1.66847e-11
0.00536883
7.69813e-05
-2.28418e-11
0.00273208
0.000427492
-1.75143e-11
-0.00662904
0.00291589
3.61949e-11
-0.00189102
0.00376909
4.32711e-10
0.00242002
0.00208209
6.5882e-10
0.00136603
0.00181736
-6.62092e-10
0.0030054
-8.526e-10
0.00203533
-2.75969e-12
1.68741e-12
0.00206652
-5.25897e-12
4.38063e-12
0.00208612
-8.53523e-12
4.81013e-12
0.00209997
-1.21519e-11
5.79456e-12
0.00212764
-1.55663e-11
7.78929e-12
0.00216687
-2.24592e-11
1.14694e-11
0.0021645
-3.68455e-11
1.60699e-11
0.00234562
-1.50908e-10
2.29595e-11
0.00261084
-2.0939e-10
3.50148e-11
0.00290043
-2.82429e-09
3.33833e-11
0.00316313
1.01962e-09
3.4819e-11
0.00352344
4.37123e-08
4.31952e-11
0.00398085
-1.51473e-07
3.86977e-11
0.00423318
4.25948e-07
6.75886e-12
0.00446252
-6.50569e-07
1.13403e-11
0.004847
5.31528e-07
-4.03638e-12
0.00532562
2.66801e-06
-9.7549e-12
0.00559445
1.99803e-05
-1.97088e-11
0.00549207
0.000103796
-3.79355e-11
0.00330816
0.000560466
-6.35097e-11
-0.00560543
0.00382378
1.60179e-11
-0.00185442
0.00584018
8.96896e-10
0.00246607
0.00321856
-3.30548e-10
0.0014803
0.00266228
4.39008e-10
0.00445611
-1.36901e-09
0.00203533
1.21352e-11
1.00399e-12
0.00206652
2.51522e-11
2.95017e-12
0.00208612
4.06116e-11
3.22627e-12
0.00209997
6.09744e-11
3.85047e-12
0.00212764
8.74608e-11
4.96206e-12
0.00216687
1.26293e-10
6.95288e-12
0.0021645
1.51197e-10
8.69195e-12
0.00234561
9.33941e-11
1.56525e-11
0.00261085
6.62639e-10
2.59231e-11
0.00290042
-2.95137e-09
2.79137e-11
0.00316311
-2.85836e-09
3.19682e-11
0.00352373
7.12232e-09
3.90217e-11