/*--------------------------------*- C++ -*----------------------------------*\
| =========                 |                                                 |
| \\      /  F ield         | OpenFOAM: The Open Source CFD Toolbox           |
|  \\    /   O peration     | Version:  4.1                                   |
|   \\  /    A nd           | Web:      www.OpenFOAM.org                      |
|    \\/     M anipulation  |                                                 |
\*---------------------------------------------------------------------------*/
FoamFile
{
    version     2.0;
    format      ascii;
    class       volScalarField;
    location    "0.18";
    object      T;
}
// * * * * * * * * * * * * * * * * * * * * * * * * * * * * * * * * * * * * * //

dimensions      [0 0 0 1 0 0 0];

internalField   nonuniform List<scalar> 
52500
(
0.355431
0.334509
0.340245
0.348161
0.36219
0.383894
0.433382
0.506693
0.547276
0.54603
0.519
0.501261
0.517734
0.592552
0.714467
0.810089
0.865624
0.938928
1.14476
1.65234
2.35134
2.36991
2.1883
2.23622
2.16424
0.355433
0.334512
0.340249
0.348167
0.3622
0.383907
0.4334
0.506714
0.547287
0.546035
0.518998
0.501254
0.517736
0.592477
0.71449
0.810333
0.864227
0.936856
1.13627
1.63243
2.33084
2.37129
2.18824
2.23694
2.16476
0.355432
0.334511
0.340248
0.348167
0.362203
0.383912
0.433401
0.506724
0.5473
0.546047
0.519013
0.501255
0.517755
0.592326
0.714552
0.81078
0.861443
0.932804
1.1192
1.59116
2.27793
2.36793
2.18724
2.23679
2.16264
0.355439
0.334522
0.340267
0.348189
0.362229
0.383916
0.433335
0.506615
0.547171
0.54592
0.518914
0.501155
0.517707
0.592065
0.714773
0.811275
0.857361
0.927954
1.0967
1.53336
2.19662
2.35804
2.18303
2.23454
2.1567
0.355417
0.334505
0.340254
0.348174
0.362217
0.383889
0.433256
0.506554
0.54716
0.54591
0.518886
0.501107
0.517685
0.591697
0.715212
0.811468
0.85254
0.923761
1.07114
1.46084
2.08908
2.33876
2.17477
2.22996
2.1484
0.355469
0.334547
0.340282
0.348221
0.362287
0.384019
0.433507
0.507007
0.547827
0.54657
0.519379
0.501572
0.517998
0.591529
0.716088
0.810952
0.848133
0.922802
1.04281
1.37507
1.9566
2.30631
2.16148
2.2275
2.13309
0.355467
0.334548
0.340291
0.348232
0.362299
0.384006
0.433411
0.506876
0.547697
0.546452
0.519292
0.501518
0.517832
0.591473
0.716926
0.808917
0.847101
0.921364
1.0135
1.28558
1.81031
2.2509
2.14909
2.21986
2.12129
0.355421
0.334514
0.340274
0.348202
0.362255
0.383904
0.433186
0.50644
0.547005
0.545762
0.518744
0.501072
0.517336
0.591654
0.717393
0.806141
0.850337
0.915853
0.985761
1.202
1.6691
2.16902
2.12609
2.20666
2.09114
0.355471
0.334553
0.340296
0.348239
0.362309
0.384015
0.433415
0.506882
0.5477
0.546467
0.519306
0.501623
0.517593
0.59204
0.717675
0.804257
0.854034
0.905174
0.963808
1.13031
1.52978
2.0412
2.10312
2.17549
2.0646
0.355469
0.334553
0.340298
0.348241
0.362315
0.384028
0.433439
0.506916
0.547746
0.546518
0.519353
0.501674
0.517543
0.591776
0.718728
0.801962
0.857948
0.892448
0.949396
1.07687
1.38993
1.87738
2.08648
2.11156
1.99299
0.35544
0.334524
0.34027
0.348194
0.362239
0.383932
0.433364
0.506645
0.547185
0.545931
0.518917
0.501169
0.517646
0.592471
0.714393
0.810044
0.865601
0.938917
1.14481
1.65246
2.35148
2.36994
2.18832
2.23623
2.16431
0.355425
0.334506
0.340247
0.348164
0.362199
0.383894
0.433347
0.506669
0.547237
0.545975
0.518912
0.501167
0.51766
0.592427
0.714453
0.81031
0.86422
0.936856
1.13632
1.63256
2.33099
2.37133
2.18828
2.23697
2.16482
0.35547
0.33455
0.340292
0.348231
0.362297
0.384005
0.433413
0.506871
0.547709
0.546474
0.519344
0.501527
0.517921
0.592251
0.714496
0.810741
0.861418
0.932793
1.11923
1.59126
2.2781
2.36795
2.18727
2.23652
2.16287
0.355422
0.334501
0.340238
0.348154
0.362185
0.383879
0.433339
0.506673
0.54725
0.545988
0.51892
0.501154
0.517705
0.592072
0.714793
0.811288
0.85738
0.927971
1.09675
1.53347
2.19679
2.35808
2.18307
2.23414
2.15701
0.355469
0.33455
0.340292
0.34823
0.362296
0.384002
0.433406
0.506861
0.547694
0.546459
0.519338
0.501501
0.517958
0.591702
0.715233
0.811473
0.852543
0.923769
1.07116
1.46093
2.08926
2.33881
2.17484
2.22963
2.14867
0.355423
0.334503
0.340242
0.348158
0.362189
0.383875
0.433315
0.506633
0.547203
0.545945
0.518898
0.501136
0.51768
0.591484
0.716067
0.810963
0.848153
0.922818
1.04287
1.37517
1.9568
2.30634
2.16157
2.22708
2.13338
0.355438
0.334522
0.340267
0.348189
0.36223
0.383918
0.433338
0.506621
0.547175
0.54593
0.518927
0.501194
0.517604
0.591471
0.716931
0.808945
0.847131
0.921389
1.01355
1.28567
1.81047
2.25097
2.14918
2.21962
2.12155
0.355434
0.334511
0.340248
0.348165
0.362198
0.383903
0.433392
0.506705
0.547259
0.546013
0.518973
0.501296
0.517531
0.591799
0.717522
0.806222
0.850386
0.915889
0.985801
1.20207
1.66922
2.16912
2.12614
2.20656
2.09128
0.355434
0.334513
0.34025
0.348167
0.362201
0.383908
0.433401
0.50672
0.547291
0.546057
0.519019
0.501379
0.517434
0.592092
0.71773
0.804313
0.854081
0.905214
0.963846
1.13037
1.52992
2.04125
2.1032
2.17546
2.06469
0.355433
0.33451
0.340246
0.348162
0.362191
0.383894
0.433379
0.506696
0.547269
0.546043
0.519019
0.501393
0.517357
0.591829
0.718778
0.802011
0.857991
0.89248
0.949423
1.07691
1.39005
1.87732
2.08663
2.11152
1.99302
0.355432
0.33451
0.340246
0.348161
0.362191
0.383892
0.433375
0.506687
0.547263
0.546016
0.518991
0.50124
0.517708
0.592517
0.714442
0.810073
0.865623
0.938934
1.14482
1.65247
2.35148
2.36994
2.18832
2.23623
2.16431
0.355434
0.334512
0.340249
0.348166
0.362199
0.383903
0.433391
0.506704
0.547268
0.546017
0.518989
0.501233
0.517712
0.592448
0.714469
0.810319
0.864225
0.936861
1.13632
1.63256
2.331
2.37132
2.18828
2.23697
2.16482
0.355433
0.33451
0.340247
0.348163
0.362195
0.383897
0.433383
0.506692
0.547242
0.545988
0.518962
0.501202
0.51771
0.592308
0.714553
0.810787
0.86146
0.932823
1.11926
1.59129
2.27811
2.36794
2.18727
2.23652
2.16287
0.355436
0.334518
0.340262
0.348183
0.362219
0.3839
0.433308
0.506588
0.547149
0.545904
0.518918
0.501139
0.517681
0.592027
0.714751
0.811265
0.857361
0.927959
1.09675
1.53347
2.1968
2.35807
2.18307
2.23414
2.15701
0.355419
0.334499
0.340238
0.348152
0.362181
0.383869
0.433312
0.506627
0.547206
0.545949
0.518904
0.501131
0.517709
0.591742
0.715273
0.811512
0.852581
0.923792
1.07119
1.46095
2.08927
2.33881
2.17484
2.22963
2.14867
0.355471
0.334546
0.340278
0.348213
0.362271
0.384
0.433494
0.506998
0.547832
0.546591
0.519438
0.501606
0.518016
0.591515
0.716088
0.810958
0.848141
0.92281
1.04285
1.37516
1.95679
2.30634
2.16157
2.22708
2.13338
0.35542
0.334499
0.340238
0.348152
0.362181
0.383869
0.433315
0.506631
0.547212
0.54596
0.518904
0.501182
0.517599
0.591487
0.716954
0.808959
0.847139
0.921394
1.01356
1.28567
1.81048
2.25097
2.14918
2.21962
2.12155
0.355439
0.334523
0.340268
0.348191
0.362233
0.383921
0.433341
0.506625
0.547172
0.545934
0.518933
0.501243
0.517477
0.59174
0.717466
0.806186
0.850364
0.915874
0.98579
1.20206
1.66922
2.16912
2.12614
2.20656
2.09128
0.355433
0.334509
0.340245
0.348162
0.362193
0.383897
0.433388
0.506699
0.547242
0.545999
0.518953
0.501319
0.517385
0.592071
0.717717
0.804302
0.854071
0.905206
0.96384
1.13036
1.52992
2.04125
2.1032
2.17546
2.06469
0.355439
0.334523
0.340268
0.348191
0.362233
0.383921
0.43334
0.506627
0.547172
0.545947
0.518959
0.501318
0.517284
0.59176
0.718709
0.801969
0.857962
0.892461
0.949409
1.0769
1.39005
1.87731
2.08663
2.11152
1.99302
0.355432
0.334509
0.340245
0.34816
0.362189
0.383887
0.433363
0.506672
0.547241
0.545994
0.518978
0.501219
0.517686
0.592494
0.714425
0.810062
0.865612
0.938926
1.14481
1.65247
2.35148
2.36993
2.18832
2.23623
2.16431
0.355432
0.334509
0.340245
0.34816
0.362189
0.383887
0.433363
0.506673
0.54724
0.545992
0.518976
0.501215
0.517693
0.592429
0.714459
0.810313
0.864219
0.936856
1.13632
1.63256
2.331
2.37131
2.18828
2.23697
2.16482
0.355432
0.334509
0.340245
0.34816
0.362189
0.383887
0.433363
0.506673
0.54724
0.545992
0.518976
0.501208
0.517711
0.592297
0.714546
0.810783
0.861456
0.93282
1.11925
1.59129
2.27811
2.36794
2.18727
2.23652
2.16287
0.355432
0.334509
0.340245
0.34816
0.362189
0.383887
0.433363
0.506673
0.54724
0.545991
0.518975
0.501199
0.517735
0.592072
0.714793
0.811287
0.857376
0.927969
1.09675
1.53347
2.1968
2.35807
2.18307
2.23414
2.15701
0.355432
0.334509
0.340245
0.34816
0.362189
0.383887
0.433364
0.506673
0.54724
0.54599
0.518975
0.501192
0.517758
0.591761
0.715287
0.811519
0.852585
0.923795
1.07119
1.46095
2.08927
2.33881
2.17484
2.22963
2.14867
0.355432
0.334509
0.340245
0.34816
0.362189
0.383887
0.433363
0.506673
0.547241
0.545992
0.518975
0.501205
0.517731
0.591502
0.716081
0.81097
0.848156
0.92282
1.04287
1.37518
1.9568
2.30634
2.16157
2.22708
2.13338
0.355432
0.334509
0.340245
0.34816
0.362189
0.383887
0.433364
0.506674
0.547241
0.545997
0.518977
0.501241
0.517644
0.591503
0.716966
0.808966
0.847142
0.921396
1.01356
1.28567
1.81048
2.25097
2.14918
2.21962
2.12155
0.355432
0.334509
0.340245
0.34816
0.362189
0.383887
0.433363
0.506675
0.547241
0.546003
0.518981
0.501292
0.51752
0.591778
0.717507
0.806211
0.850379
0.915882
0.985795
1.20206
1.66922
2.16912
2.12614
2.20656
2.09128
0.355432
0.334509
0.340245
0.34816
0.362189
0.383887
0.433363
0.506676
0.547242
0.546011
0.51899
0.501341
0.517396
0.592057
0.717706
0.804296
0.854068
0.905202
0.963837
1.13036
1.52992
2.04125
2.1032
2.17546
2.06469
0.355432
0.334509
0.340245
0.34816
0.362189
0.383887
0.433363
0.506677
0.547242
0.546017
0.519007
0.501367
0.517327
0.591797
0.718752
0.801995
0.857978
0.892467
0.949414
1.07691
1.39005
1.87731
2.08662
2.11152
1.99302
0.355429
0.334505
0.340241
0.348154
0.362184
0.38388
0.433344
0.506664
0.547263
0.546021
0.519008
0.501241
0.517699
0.592481
0.714402
0.810042
0.865594
0.93891
1.1448
1.65246
2.35147
2.36992
2.1883
2.23625
2.16431
0.355428
0.334505
0.340241
0.348154
0.362184
0.38388
0.433344
0.506665
0.547259
0.546017
0.519004
0.501234
0.517704
0.592418
0.714437
0.810293
0.864201
0.936841
1.13631
1.63255
2.33099
2.3713
2.18824
2.23696
2.16484
0.355431
0.334507
0.340243
0.348158
0.362185
0.383884
0.433362
0.50667
0.547231
0.545981
0.518962
0.501195
0.517701
0.5923
0.714545
0.81078
0.861454
0.932818
1.11925
1.59129
2.2781
2.36794
2.18725
2.2368
2.16272
0.355431
0.334507
0.340243
0.348158
0.362186
0.383884
0.433362
0.50667
0.547231
0.54598
0.518961
0.501186
0.517726
0.592076
0.714792
0.811285
0.857374
0.927966
1.09675
1.53348
2.19678
2.35808
2.18307
2.23466
2.15671
0.355429
0.334505
0.340241
0.348155
0.362185
0.383881
0.433345
0.506664
0.547257
0.546012
0.518999
0.50121
0.517769
0.591752
0.715268
0.8115
0.852568
0.923781
1.07118
1.46094
2.08925
2.3388
2.17481
2.22982
2.14857
0.355431
0.334507
0.340243
0.348157
0.362186
0.383883
0.433351
0.506671
0.547261
0.546016
0.519003
0.501229
0.517751
0.591504
0.716068
0.810952
0.848139
0.922804
1.04285
1.37516
1.95678
2.30632
2.16153
2.22713
2.13337
0.355429
0.334505
0.340241
0.348155
0.362184
0.383881
0.433347
0.506666
0.54726
0.546021
0.519007
0.501267
0.517665
0.591505
0.716951
0.808946
0.847123
0.921379
1.01354
1.28566
1.81046
2.25095
2.14915
2.2196
2.12156
0.355431
0.334508
0.340243
0.348159
0.362187
0.383885
0.433365
0.506674
0.547238
0.546
0.518975
0.501291
0.517524
0.591791
0.717512
0.806211
0.850376
0.915879
0.985791
1.20205
1.66921
2.16911
2.12613
2.20655
2.09128
0.355429
0.334506
0.340242
0.348156
0.362186
0.383883
0.43335
0.506673
0.547271
0.546045
0.519025
0.501372
0.51742
0.592057
0.717694
0.804282
0.854055
0.905192
0.963828
1.13035
1.5299
2.04125
2.10319
2.17545
2.06469
0.35543
0.334507
0.340243
0.348157
0.362187
0.383886
0.433353
0.506678
0.547274
0.546052
0.519037
0.501398
0.517352
0.5918
0.718743
0.801982
0.857968
0.89246
0.949407
1.0769
1.39004
1.87731
2.08662
2.11152
1.99302
0.355432
0.334509
0.340245
0.34816
0.362189
0.383888
0.433363
0.506673
0.547242
0.545995
0.518978
0.50122
0.517686
0.592494
0.714425
0.810062
0.865611
0.938925
1.14481
1.65246
2.35148
2.36993
2.18832
2.23623
2.16431
0.355432
0.334509
0.340245
0.34816
0.362189
0.383888
0.433364
0.506674
0.54724
0.545992
0.518976
0.501215
0.517693
0.59243
0.714459
0.810313
0.864218
0.936856
1.13632
1.63256
2.331
2.37132
2.18828
2.23697
2.16482
0.355432
0.334509
0.340245
0.34816
0.362189
0.383887
0.433364
0.506673
0.54724
0.545991
0.518975
0.501208
0.517711
0.592298
0.714546
0.810783
0.861455
0.93282
1.11925
1.59128
2.27811
2.36794
2.18727
2.23652
2.16287
0.355432
0.334509
0.340245
0.348161
0.36219
0.383888
0.433366
0.506673
0.547238
0.545989
0.518975
0.501202
0.51774
0.59208
0.714797
0.811287
0.857374
0.927967
1.09675
1.53347
2.19679
2.35807
2.18307
2.23414
2.15701
0.355432
0.334509
0.340245
0.34816
0.362189
0.383887
0.433364
0.506673
0.54724
0.54599
0.518974
0.501192
0.517759
0.591763
0.715288
0.811519
0.852585
0.923795
1.07119
1.46095
2.08927
2.33881
2.17484
2.22963
2.14866
0.355432
0.334509
0.340245
0.348161
0.36219
0.383888
0.433366
0.506673
0.547239
0.545991
0.518976
0.501209
0.517737
0.59151
0.716086
0.810971
0.848157
0.92282
1.04287
1.37517
1.9568
2.30634
2.16157
2.22708
2.1334
0.355432
0.334509
0.340245
0.34816
0.362189
0.383887
0.433364
0.506675
0.547242
0.545999
0.518978
0.501243
0.517647
0.591507
0.716969
0.808968
0.847144
0.921397
1.01356
1.28567
1.81048
2.25097
2.14918
2.21962
2.12155
0.355432
0.334509
0.340245
0.348161
0.362189
0.383888
0.433365
0.506676
0.547245
0.546008
0.518984
0.501297
0.517526
0.591785
0.717512
0.806215
0.850382
0.915885
0.985797
1.20206
1.66923
2.16912
2.12614
2.20656
2.09125
0.355432
0.334509
0.340245
0.348161
0.36219
0.383889
0.433368
0.506682
0.547252
0.546021
0.518998
0.501352
0.517408
0.592068
0.717715
0.804302
0.854072
0.905206
0.96384
1.13036
1.52992
2.04125
2.1032
2.17545
2.06466
0.355432
0.334509
0.340246
0.348161
0.36219
0.383891
0.433371
0.506686
0.547255
0.546029
0.519011
0.501377
0.517339
0.591809
0.718761
0.802
0.857982
0.892471
0.949417
1.07691
1.39005
1.87732
2.08663
2.11152
1.99299
0.355432
0.334509
0.340245
0.34816
0.362189
0.383887
0.433363
0.506672
0.547241
0.545994
0.518978
0.501219
0.517685
0.592494
0.714425
0.810062
0.865612
0.938926
1.14481
1.65247
2.35148
2.36993
2.18832
2.23623
2.16431
0.355432
0.334509
0.340245
0.34816
0.362189
0.383887
0.433363
0.506673
0.54724
0.545992
0.518976
0.501215
0.517693
0.592429
0.714459
0.810313
0.864219
0.936856
1.13632
1.63256
2.331
2.37131
2.18828
2.23697
2.16482
0.355432
0.334509
0.340245
0.34816
0.362189
0.383887
0.433363
0.506673
0.54724
0.545992
0.518976
0.501208
0.517711
0.592297
0.714546
0.810783
0.861456
0.93282
1.11925
1.59129
2.27811
2.36794
2.18727
2.23652
2.16287
0.355432
0.334509
0.340245
0.34816
0.362189
0.383887
0.433363
0.506673
0.54724
0.545991
0.518975
0.501199
0.517735
0.592072
0.714793
0.811287
0.857376
0.927969
1.09675
1.53347
2.1968
2.35807
2.18307
2.23414
2.15701
0.355432
0.334509
0.340245
0.34816
0.362189
0.383887
0.433364
0.506673
0.54724
0.54599
0.518975
0.501192
0.517758
0.591761
0.715287
0.811519
0.852585
0.923795
1.07119
1.46095
2.08927
2.33881
2.17484
2.22963
2.14867
0.355432
0.334509
0.340245
0.34816
0.362189
0.383887
0.433363
0.506673
0.547241
0.545992
0.518975
0.501205
0.517731
0.591502
0.716081
0.81097
0.848156
0.92282
1.04287
1.37518
1.9568
2.30634
2.16157
2.22708
2.13338
0.355432
0.334509
0.340245
0.34816
0.362189
0.383887
0.433364
0.506674
0.547241
0.545997
0.518977
0.501241
0.517644
0.591503
0.716966
0.808966
0.847142
0.921396
1.01356
1.28567
1.81048
2.25097
2.14918
2.21962
2.12155
0.355432
0.334509
0.340245
0.34816
0.362189
0.383887
0.433363
0.506675
0.547241
0.546003
0.518981
0.501292
0.51752
0.591778
0.717507
0.806211
0.850379
0.915882
0.985795
1.20206
1.66922
2.16912
2.12614
2.20656
2.09128
0.355432
0.334509
0.340245
0.34816
0.362189
0.383887
0.433363
0.506676
0.547242
0.546011
0.51899
0.501341
0.517396
0.592057
0.717706
0.804296
0.854068
0.905202
0.963837
1.13036
1.52992
2.04125
2.1032
2.17546
2.06469
0.355432
0.334509
0.340245
0.34816
0.362189
0.383887
0.433363
0.506677
0.547242
0.546017
0.519007
0.501367
0.517327
0.591797
0.718752
0.801995
0.857978
0.892467
0.949414
1.07691
1.39005
1.87731
2.08662
2.11152
1.99302
0.355432
0.33451
0.340246
0.348161
0.362191
0.383892
0.433375
0.506687
0.547263
0.546016
0.518991
0.50124
0.517708
0.592517
0.714442
0.810073
0.865623
0.938934
1.14482
1.65247
2.35148
2.36994
2.18832
2.23623
2.16431
0.355434
0.334512
0.340249
0.348166
0.362199
0.383903
0.433391
0.506704
0.547268
0.546017
0.518989
0.501233
0.517712
0.592448
0.714469
0.810319
0.864225
0.936861
1.13632
1.63256
2.331
2.37132
2.18828
2.23697
2.16482
0.355433
0.33451
0.340247
0.348163
0.362195
0.383897
0.433383
0.506692
0.547242
0.545988
0.518962
0.501202
0.51771
0.592308
0.714553
0.810787
0.86146
0.932823
1.11926
1.59129
2.27811
2.36794
2.18727
2.23652
2.16287
0.355436
0.334518
0.340262
0.348183
0.362219
0.3839
0.433308
0.506588
0.547149
0.545904
0.518918
0.501139
0.517681
0.592027
0.714751
0.811265
0.857361
0.927959
1.09675
1.53347
2.1968
2.35807
2.18307
2.23414
2.15701
0.355419
0.334499
0.340238
0.348152
0.362181
0.383869
0.433312
0.506627
0.547206
0.545949
0.518904
0.501131
0.517709
0.591742
0.715273
0.811512
0.852581
0.923792
1.07119
1.46095
2.08927
2.33881
2.17484
2.22963
2.14867
0.355471
0.334546
0.340278
0.348213
0.362271
0.384
0.433494
0.506998
0.547832
0.546591
0.519438
0.501606
0.518016
0.591515
0.716088
0.810958
0.848141
0.92281
1.04285
1.37516
1.95679
2.30634
2.16157
2.22708
2.13338
0.35542
0.334499
0.340238
0.348152
0.362181
0.383869
0.433315
0.506631
0.547212
0.54596
0.518904
0.501182
0.517599
0.591487
0.716954
0.808959
0.847139
0.921394
1.01356
1.28567
1.81048
2.25097
2.14918
2.21962
2.12155
0.355439
0.334523
0.340268
0.348191
0.362233
0.383921
0.433341
0.506625
0.547172
0.545934
0.518933
0.501243
0.517477
0.59174
0.717466
0.806186
0.850364
0.915874
0.98579
1.20206
1.66922
2.16912
2.12614
2.20656
2.09128
0.355433
0.334509
0.340245
0.348162
0.362193
0.383897
0.433388
0.506699
0.547242
0.545999
0.518953
0.501319
0.517385
0.592071
0.717717
0.804302
0.854071
0.905206
0.96384
1.13036
1.52992
2.04125
2.1032
2.17546
2.06469
0.355439
0.334523
0.340268
0.348191
0.362233
0.383921
0.43334
0.506627
0.547172
0.545947
0.518959
0.501318
0.517284
0.59176
0.718709
0.801969
0.857962
0.892461
0.949409
1.0769
1.39005
1.87731
2.08663
2.11152
1.99302
0.35544
0.334524
0.34027
0.348194
0.362239
0.383932
0.433364
0.506645
0.547185
0.545931
0.518917
0.501169
0.517646
0.592471
0.714393
0.810044
0.865601
0.938917
1.14481
1.65246
2.35148
2.36994
2.18832
2.23623
2.16431
0.355425
0.334506
0.340247
0.348164
0.362199
0.383894
0.433347
0.506669
0.547237
0.545975
0.518912
0.501167
0.51766
0.592427
0.714453
0.81031
0.86422
0.936856
1.13632
1.63256
2.33099
2.37133
2.18828
2.23697
2.16482
0.35547
0.33455
0.340292
0.348231
0.362297
0.384005
0.433413
0.506871
0.547709
0.546474
0.519344
0.501527
0.517921
0.592251
0.714496
0.810741
0.861418
0.932793
1.11923
1.59126
2.2781
2.36795
2.18727
2.23652
2.16287
0.355422
0.334501
0.340238
0.348154
0.362185
0.383879
0.433339
0.506673
0.54725
0.545988
0.51892
0.501154
0.517705
0.592072
0.714793
0.811288
0.85738
0.927971
1.09675
1.53347
2.19679
2.35808
2.18307
2.23414
2.15701
0.355469
0.33455
0.340292
0.34823
0.362296
0.384002
0.433406
0.506861
0.547694
0.546459
0.519338
0.501501
0.517958
0.591702
0.715233
0.811473
0.852543
0.923769
1.07116
1.46093
2.08926
2.33881
2.17484
2.22963
2.14867
0.355423
0.334503
0.340242
0.348158
0.362189
0.383875
0.433315
0.506633
0.547203
0.545945
0.518898
0.501136
0.51768
0.591484
0.716067
0.810963
0.848153
0.922818
1.04287
1.37517
1.9568
2.30634
2.16157
2.22708
2.13338
0.355438
0.334522
0.340267
0.348189
0.36223
0.383918
0.433338
0.506621
0.547175
0.54593
0.518927
0.501194
0.517605
0.591471
0.716931
0.808945
0.847131
0.921389
1.01355
1.28567
1.81047
2.25097
2.14918
2.21962
2.12155
0.355434
0.334511
0.340248
0.348165
0.362198
0.383903
0.433392
0.506705
0.547259
0.546013
0.518973
0.501296
0.51753
0.591799
0.717522
0.806222
0.850386
0.915889
0.985801
1.20207
1.66922
2.16912
2.12614
2.20656
2.09128
0.355434
0.334513
0.34025
0.348167
0.362201
0.383908
0.433401
0.50672
0.547291
0.546057
0.519019
0.501379
0.517435
0.592092
0.71773
0.804313
0.854081
0.905214
0.963846
1.13037
1.52992
2.04125
2.1032
2.17546
2.06469
0.355433
0.33451
0.340246
0.348162
0.362191
0.383894
0.433379
0.506696
0.547269
0.546043
0.519019
0.501393
0.517357
0.591829
0.718778
0.802011
0.857991
0.89248
0.949423
1.07691
1.39005
1.87732
2.08663
2.11152
1.99302
0.355434
0.334512
0.340249
0.348168
0.362203
0.383914
0.433416
0.506723
0.547277
0.546021
0.518978
0.501245
0.517723
0.592555
0.714463
0.810083
0.865618
0.938922
1.14476
1.65233
2.35132
2.36991
2.18831
2.23664
2.164
0.355432
0.334514
0.340259
0.348178
0.362217
0.3839
0.433306
0.506598
0.547197
0.545958
0.518959
0.501203
0.517683
0.592409
0.714423
0.810288
0.864192
0.936827
1.13625
1.63241
2.33081
2.37128
2.18821
2.237
2.16471
0.355421
0.334502
0.340241
0.348158
0.362191
0.383888
0.433352
0.506674
0.547253
0.545993
0.51893
0.501184
0.517705
0.592324
0.714555
0.810786
0.861452
0.93281
1.1192
1.59116
2.27792
2.36791
2.1872
2.23678
2.16267
0.355467
0.334543
0.340276
0.348212
0.362281
0.384018
0.433499
0.507029
0.54792
0.546683
0.519522
0.501679
0.51808
0.592083
0.714765
0.811237
0.857316
0.927917
1.09666
1.53333
2.1966
2.35804
2.18301
2.23455
2.15672
0.355427
0.334512
0.340259
0.348179
0.362219
0.383893
0.433273
0.506559
0.547126
0.545869
0.518834
0.501077
0.517667
0.591715
0.715241
0.811492
0.852561
0.923777
1.07115
1.46085
2.08909
2.33876
2.17477
2.22996
2.14841
0.355425
0.334515
0.340273
0.348199
0.362252
0.383908
0.433209
0.506471
0.547059
0.545815
0.518823
0.501055
0.517604
0.591403
0.715969
0.810894
0.848095
0.922779
1.04281
1.37507
1.9566
2.30631
2.16148
2.2275
2.1331
0.355466
0.334543
0.340277
0.348214
0.362275
0.384
0.433479
0.506979
0.547796
0.546541
0.519338
0.501567
0.517877
0.591515
0.716969
0.808948
0.847123
0.921381
1.01352
1.28559
1.81032
2.25091
2.14909
2.21986
2.1213
0.355467
0.334551
0.340296
0.348241
0.362317
0.384035
0.433458
0.506923
0.547731
0.546487
0.519317
0.501579
0.517716
0.591749
0.717462
0.806161
0.85034
0.915851
0.985752
1.20198
1.66909
2.16902
2.12609
2.20666
2.09113
0.355422
0.334508
0.340256
0.348176
0.362215
0.383882
0.433242
0.506541
0.547111
0.545865
0.518803
0.501181
0.517269
0.591998
0.717653
0.804261
0.854047
0.905189
0.96382
1.13032
1.52978
2.04121
2.10312
2.17549
2.0646
0.355468
0.334556
0.340309
0.348253
0.362337
0.384026
0.433338
0.506778
0.547659
0.546458
0.519369
0.501676
0.517526
0.5917
0.718625
0.801874
0.857877
0.892395
0.949354
1.07684
1.3899
1.87737
2.08648
2.11156
1.99299
0.355425
0.334515
0.340266
0.348191
0.36224
0.383926
0.433325
0.506628
0.547195
0.545954
0.518911
0.501262
0.51732
0.590534
0.721228
0.799524
0.859578
0.886587
0.946371
1.02976
1.25774
1.74503
2.03107
2.0225
1.841
0.355476
0.334559
0.340303
0.348248
0.362323
0.384046
0.433488
0.506957
0.547773
0.546547
0.519429
0.501659
0.517771
0.589558
0.722283
0.800553
0.855595
0.889905
0.931156
0.985771
1.13294
1.56781
1.84477
1.89046
1.81889
0.355434
0.334523
0.340274
0.3482
0.362253
0.383948
0.433366
0.506662
0.547205
0.54596
0.518953
0.501222
0.517497
0.58969
0.721319
0.802848
0.851736
0.894663
0.917737
0.969898
1.0462
1.31893
1.51702
1.82222
1.79501
0.355432
0.334527
0.340286
0.348217
0.362274
0.383945
0.43328
0.506542
0.547093
0.545856
0.518879
0.501152
0.517412
0.589943
0.720725
0.802833
0.853191
0.890429
0.91993
0.950578
0.996292
1.12707
1.33927
1.74394
1.70726
0.355477
0.334561
0.340306
0.348253
0.362332
0.384053
0.43348
0.506953
0.54776
0.546526
0.5194
0.501619
0.51776
0.589932
0.721006
0.802451
0.853646
0.889996
0.919446
0.942245
0.978947
1.02644
1.17304
1.46431
1.59649
0.355461
0.334549
0.340297
0.348241
0.36232
0.384029
0.433422
0.5069
0.547734
0.546499
0.51935
0.501569
0.517716
0.589925
0.720916
0.802557
0.853469
0.890126
0.918794
0.942904
0.961361
0.996081
1.04697
1.21125
1.43441
0.355464
0.334554
0.340308
0.348254
0.362333
0.384012
0.433314
0.506761
0.547603
0.546379
0.51927
0.501487
0.517641
0.589863
0.720878
0.802486
0.853533
0.889999
0.918848
0.942104
0.961374
0.977231
1.00378
1.04951
1.17432
0.355465
0.334556
0.340311
0.348259
0.362342
0.384024
0.433328
0.506779
0.547616
0.546389
0.519275
0.501486
0.517636
0.58985
0.720863
0.802498
0.853493
0.890073
0.918723
0.942143
0.960756
0.975871
0.988342
1.00578
1.03584
0.355465
0.334552
0.340301
0.348247
0.362328
0.384038
0.433427
0.506905
0.547723
0.546481
0.519327
0.50155
0.5177
0.589918
0.720917
0.802522
0.853515
0.890054
0.918773
0.942042
0.960774
0.975357
0.986526
0.995249
1.00584
0.355477
0.334567
0.340321
0.348271
0.362358
0.384057
0.433404
0.506852
0.547661
0.546433
0.519331
0.501545
0.51769
0.589888
0.72089
0.802511
0.853512
0.890056
0.91877
0.942047
0.960745
0.975297
0.986155
0.993768
0.999473
0.355427
0.334522
0.340284
0.348216
0.362277
0.383941
0.433256
0.50652
0.547082
0.54584
0.51884
0.50112
0.517389
0.589885
0.720869
0.80252
0.853527
0.890069
0.918782
0.942054
0.960746
0.975293
0.986072
0.993576
0.998387
0.355476
0.334562
0.340307
0.348254
0.362335
0.384062
0.433505
0.506984
0.547796
0.546558
0.519414
0.501636
0.517777
0.589969
0.720956
0.802546
0.853531
0.890066
0.918777
0.942049
0.960742
0.975287
0.986061
0.993523
0.998254
0.355474
0.33456
0.340306
0.348253
0.362333
0.384059
0.433496
0.506978
0.547792
0.546554
0.519408
0.501626
0.517765
0.589954
0.720948
0.802545
0.853533
0.890068
0.918779
0.942051
0.960743
0.975287
0.986059
0.993515
0.998229
0.355426
0.334521
0.340283
0.348215
0.362275
0.383938
0.433249
0.506514
0.547074
0.545835
0.518842
0.501119
0.517388
0.589885
0.720871
0.802523
0.853529
0.89007
0.918783
0.942054
0.960746
0.975289
0.98606
0.993514
0.998226
0.355476
0.334564
0.340317
0.348265
0.362347
0.384042
0.433384
0.506828
0.54765
0.546427
0.519333
0.501554
0.517702
0.589908
0.720909
0.802522
0.853519
0.890058
0.918772
0.942046
0.960739
0.975284
0.986058
0.993512
0.998224
0.355462
0.33455
0.340297
0.348241
0.362321
0.38403
0.433421
0.50691
0.547755
0.54652
0.519362
0.501578
0.517722
0.589925
0.720928
0.802535
0.853527
0.890064
0.918777
0.942049
0.960741
0.975286
0.986058
0.993512
0.998224
0.355462
0.33455
0.340298
0.348242
0.362322
0.384032
0.433423
0.506912
0.547755
0.546517
0.519356
0.501573
0.517717
0.58992
0.720924
0.802531
0.853525
0.890063
0.918776
0.942048
0.960741
0.975285
0.986058
0.993512
0.998224
0.355477
0.334566
0.34032
0.34827
0.362357
0.384058
0.433412
0.506861
0.547675
0.546447
0.519341
0.501553
0.517697
0.589895
0.720896
0.802515
0.853516
0.890058
0.918773
0.942046
0.96074
0.975285
0.986058
0.993512
0.998224
0.355429
0.334523
0.340286
0.348219
0.36228
0.383945
0.433257
0.506517
0.547059
0.545813
0.518813
0.501096
0.517368
0.589874
0.720862
0.802516
0.853525
0.890067
0.918781
0.942053
0.960745
0.975288
0.98606
0.993513
0.998225
0.355478
0.334569
0.340324
0.348276
0.362367
0.384071
0.43343
0.50688
0.547684
0.546452
0.519345
0.501556
0.517699
0.589894
0.720893
0.802512
0.853513
0.890056
0.918771
0.942046
0.96074
0.975285
0.986058
0.993512
0.998224
0.355462
0.334549
0.340296
0.34824
0.362316
0.384024
0.433414
0.506894
0.547732
0.546495
0.519336
0.501564
0.517717
0.589938
0.720937
0.802537
0.853526
0.890063
0.918775
0.942047
0.96074
0.975285
0.986058
0.993512
0.998224
0.355467
0.334561
0.340317
0.348266
0.362354
0.384045
0.433363
0.506823
0.547673
0.546447
0.519323
0.501534
0.517679
0.589875
0.720878
0.802506
0.853511
0.890055
0.918771
0.942046
0.96074
0.975285
0.986058
0.993512
0.998224
0.355462
0.334549
0.340296
0.34824
0.362316
0.384024
0.433416
0.506896
0.547734
0.546497
0.519338
0.501566
0.517719
0.589939
0.720938
0.802537
0.853527
0.890063
0.918776
0.942048
0.960741
0.975285
0.986058
0.993512
0.998224
0.355479
0.33457
0.340325
0.348277
0.362368
0.384074
0.433436
0.506887
0.547691
0.546459
0.519351
0.501563
0.517706
0.5899
0.720897
0.802514
0.853515
0.890058
0.918773
0.942047
0.960741
0.975285
0.986058
0.993512
0.998224
0.355429
0.334523
0.340286
0.348219
0.36228
0.383945
0.433257
0.506518
0.547062
0.545814
0.518807
0.501093
0.517365
0.589871
0.72086
0.802516
0.853525
0.890069
0.918782
0.942054
0.960746
0.975289
0.986061
0.993513
0.998225
0.35548
0.334571
0.340325
0.348278
0.362369
0.384075
0.433439
0.506885
0.547686
0.546455
0.519351
0.501566
0.517712
0.589911
0.720902
0.802514
0.853512
0.890054
0.91877
0.942044
0.960739
0.975284
0.986057
0.993512
0.998224
0.355461
0.334547
0.340295
0.348239
0.362316
0.384022
0.43341
0.506895
0.547733
0.546494
0.519332
0.501554
0.517704
0.589921
0.720926
0.802532
0.853525
0.890063
0.918776
0.942048
0.960741
0.975286
0.986058
0.993512
0.998224
0.355468
0.334561
0.340318
0.348267
0.362354
0.384044
0.433361
0.506813
0.547657
0.546431
0.519315
0.50153
0.517677
0.589881
0.72088
0.802503
0.853506
0.89005
0.918767
0.942042
0.960737
0.975283
0.986057
0.993511
0.998223
0.355462
0.334548
0.340295
0.348239
0.362315
0.384021
0.433408
0.506887
0.547719
0.546483
0.51933
0.501556
0.517708
0.58993
0.720931
0.802533
0.853523
0.89006
0.918773
0.942046
0.960739
0.975284
0.986057
0.993512
0.998224
0.355477
0.334567
0.34032
0.348271
0.362357
0.384056
0.433402
0.506851
0.547665
0.546438
0.519338
0.501548
0.517691
0.589887
0.720891
0.802512
0.853513
0.890056
0.918771
0.942045
0.960739
0.975284
0.986058
0.993512
0.998224
0.355426
0.334521
0.340283
0.348214
0.362274
0.383935
0.433241
0.506505
0.547063
0.545822
0.518824
0.5011
0.517368
0.589863
0.720856
0.802513
0.853523
0.890066
0.91878
0.942052
0.960744
0.975288
0.98606
0.993513
0.998225
0.355474
0.33456
0.340305
0.348251
0.362332
0.384057
0.433493
0.506975
0.547786
0.546549
0.519409
0.50162
0.517756
0.589942
0.720939
0.802539
0.853529
0.890064
0.918776
0.942048
0.960741
0.975285
0.986058
0.993512
0.998224
0.355473
0.334557
0.340301
0.348246
0.362322
0.384039
0.433458
0.50694
0.547763
0.54653
0.519391
0.501609
0.517747
0.589939
0.720942
0.802541
0.85353
0.890065
0.918777
0.942048
0.960741
0.975285
0.986058
0.993512
0.998224
0.355423
0.334518
0.34028
0.34821
0.362269
0.383932
0.43324
0.506506
0.547076
0.545842
0.51886
0.501125
0.517387
0.58987
0.720862
0.802519
0.853527
0.890069
0.918782
0.942053
0.960745
0.975288
0.98606
0.993513
0.998225
0.355471
0.334553
0.340297
0.348239
0.362311