/*--------------------------------*- C++ -*----------------------------------*\
| =========                 |                                                 |
| \\      /  F ield         | OpenFOAM: The Open Source CFD Toolbox           |
|  \\    /   O peration     | Version:  4.1                                   |
|   \\  /    A nd           | Web:      www.OpenFOAM.org                      |
|    \\/     M anipulation  |                                                 |
\*---------------------------------------------------------------------------*/
FoamFile
{
    version     2.0;
    format      ascii;
    class       volVectorField;
    location    "0.18";
    object      U;
}
// * * * * * * * * * * * * * * * * * * * * * * * * * * * * * * * * * * * * * //

dimensions      [0 1 -1 0 0 0 0];

internalField   nonuniform List<vector> 
52500
(
(1.79946 -3.8023e-07 -0.00227928)
(1.81764 -2.49493e-06 -0.00208717)
(1.80799 -4.79621e-06 -0.00211838)
(1.79201 -7.69837e-06 -0.00216598)
(1.76577 -1.22609e-05 -0.0022516)
(1.72038 -2.07241e-05 -0.00238993)
(1.64065 -3.63777e-05 -0.0027077)
(1.52946 -6.14308e-05 -0.00317144)
(1.4254 -7.54897e-05 -0.00346175)
(1.34037 -7.65855e-05 -0.00348514)
(1.26583 -6.81204e-05 -0.00333378)
(1.21011 -4.89682e-05 -0.0032237)
(1.19571 -4.37578e-05 -0.00332735)
(1.23301 -4.10617e-06 -0.00381043)
(1.30941 -3.98945e-05 -0.00457089)
(1.40137 -3.37351e-06 -0.00514853)
(1.47502 0.000150938 -0.0054732)
(1.48716 0.000825202 -0.00599927)
(1.33807 0.00329348 -0.00749928)
(0.675807 0.0119143 -0.0114707)
(-0.208004 0.036273 -0.0166646)
(-0.457888 0.0367225 -0.016323)
(0.152273 0.0251241 -0.0152287)
(0.0765815 0.0257437 -0.0157747)
(0.179236 0.0304045 -0.0153634)
(1.79946 5.71663e-07 -0.00227925)
(1.81764 -1.98089e-06 -0.00208708)
(1.80799 -4.56743e-06 -0.00211828)
(1.792 -7.55551e-06 -0.00216586)
(1.76576 -1.28027e-05 -0.00225144)
(1.72036 -2.46477e-05 -0.00238968)
(1.64061 -4.98451e-05 -0.00270743)
(1.52943 -9.17339e-05 -0.00317106)
(1.42538 -0.00011115 -0.00346177)
(1.34037 -0.000113514 -0.00348539)
(1.26585 -0.000101711 -0.00333393)
(1.21014 -6.59136e-05 -0.00322412)
(1.19575 -7.62461e-05 -0.00332779)
(1.23301 2.26862e-05 -0.00381016)
(1.30942 -9.96371e-05 -0.00457127)
(1.40151 4.25423e-06 -0.00515046)
(1.47582 0.000458356 -0.00546362)
(1.48989 0.0024748 -0.00598064)
(1.34857 0.00984917 -0.00742808)
(0.709424 0.0355623 -0.0112666)
(-0.177372 0.108368 -0.0164074)
(-0.453612 0.109456 -0.0162402)
(0.149566 0.0738416 -0.0151509)
(0.0822145 0.0747023 -0.0156963)
(0.183338 0.0888758 -0.0152743)
(1.79946 -3.54755e-06 -0.00227937)
(1.81764 -1.38437e-05 -0.00208718)
(1.80799 -2.77944e-05 -0.00211839)
(1.792 -4.63498e-05 -0.00216598)
(1.76576 -7.24626e-05 -0.00225158)
(1.72036 -0.000111241 -0.00238979)
(1.6406 -0.00016133 -0.00270739)
(1.52943 -0.000201678 -0.00317082)
(1.4254 -0.000173208 -0.00346176)
(1.34039 -0.000129953 -0.00348489)
(1.26588 -8.59983e-05 -0.00333334)
(1.21014 -3.04225e-05 -0.00322382)
(1.1958 -6.55342e-05 -0.00332785)
(1.23299 7.47432e-05 -0.00380863)
(1.30943 -0.000150972 -0.00457158)
(1.40181 6.54564e-05 -0.00515372)
(1.4774 0.000632839 -0.0054444)
(1.4953 0.00381505 -0.00594459)
(1.36954 0.0155468 -0.00729006)
(0.780533 0.0560609 -0.0108851)
(-0.112211 0.175483 -0.015949)
(-0.443367 0.189731 -0.0161546)
(0.142071 0.127814 -0.0150617)
(0.0934911 0.124145 -0.0156108)
(0.192881 0.149665 -0.0151693)
(1.79945 1.15033e-06 -0.00227926)
(1.81761 -6.40782e-06 -0.00208704)
(1.80795 -1.68109e-05 -0.00211827)
(1.79195 -3.05075e-05 -0.00216586)
(1.76571 -5.03194e-05 -0.00225144)
(1.72031 -8.01857e-05 -0.00238949)
(1.64061 -0.000120609 -0.00270679)
(1.52956 -0.000154591 -0.00317017)
(1.42563 -0.000138602 -0.00346142)
(1.34063 -0.000107653 -0.00348534)
(1.26609 -7.89405e-05 -0.00333397)
(1.21026 -4.37666e-05 -0.00322399)
(1.19592 -8.09255e-05 -0.00332829)
(1.23297 8.09955e-05 -0.00380743)
(1.30947 -0.000235955 -0.00457341)
(1.40212 0.000175746 -0.00515745)
(1.47948 0.000508096 -0.00541587)
(1.50275 0.00457794 -0.00589852)
(1.39785 0.0196456 -0.00710957)
(0.879649 0.0705595 -0.010386)
(-0.0137928 0.225903 -0.0153241)
(-0.422981 0.272591 -0.0160504)
(0.129872 0.187218 -0.0149409)
(0.108223 0.171049 -0.0155093)
(0.207908 0.207964 -0.0150431)
(1.79947 -9.21085e-06 -0.00227931)
(1.81763 -1.38798e-05 -0.00208712)
(1.80796 -2.4238e-05 -0.00211838)
(1.79197 -4.69196e-05 -0.00216597)
(1.76574 -8.10731e-05 -0.00225157)
(1.72039 -0.000107838 -0.00238953)
(1.64073 -9.75784e-05 -0.00270642)
(1.52975 -2.93521e-05 -0.00316972)
(1.42586 6.21682e-05 -0.00346108)
(1.34086 0.000170376 -0.0034844)
(1.26629 0.000179734 -0.00333287)
(1.2104 9.0597e-05 -0.00322304)
(1.19609 9.1795e-05 -0.00332788)
(1.23295 0.000121139 -0.00380424)
(1.3096 -0.000243239 -0.00457637)
(1.40237 0.000387431 -0.00515879)
(1.48182 0.000178244 -0.00538115)
(1.51171 0.00486268 -0.00585024)
(1.43096 0.0222673 -0.00690527)
(0.9973 0.0791936 -0.00979665)
(0.117424 0.257512 -0.0145524)
(-0.385984 0.357558 -0.0159046)
(0.11418 0.257539 -0.0147775)
(0.123322 0.216671 -0.0153903)
(0.227592 0.264334 -0.0149035)
(1.79942 -1.68052e-05 -0.00227937)
(1.8176 -3.04515e-05 -0.00208715)
(1.80795 -5.40112e-05 -0.00211833)
(1.79194 -9.51186e-05 -0.00216601)
(1.76565 -0.000153748 -0.00225175)
(1.72015 -0.000211692 -0.00239009)
(1.64025 -0.000230499 -0.00270775)
(1.52887 -0.000167146 -0.0031724)
(1.42463 -2.88858e-05 -0.00346464)
(1.33944 0.000126141 -0.00348901)
(1.26486 0.000171192 -0.00333704)
(1.20933 8.16297e-05 -0.00322631)
(1.19541 0.000248684 -0.00332995)
(1.23239 1.49117e-05 -0.00380377)
(1.30957 -0.000180722 -0.00458262)
(1.4023 0.00061889 -0.00515524)
(1.48402 -0.000377369 -0.00534804)
(1.52164 0.00484668 -0.00581689)
(1.46609 0.0232148 -0.00668734)
(1.12345 0.081421 -0.00912027)
(0.281346 0.266579 -0.0136388)
(-0.321733 0.441452 -0.0156764)
(0.0948798 0.343974 -0.0145717)
(0.135618 0.264616 -0.0152817)
(0.251058 0.321894 -0.0147131)
(1.79942 1.13573e-05 -0.00227941)
(1.81759 4.96215e-06 -0.00208724)
(1.80793 7.25089e-07 -0.00211848)
(1.79191 4.60736e-06 -0.0021662)
(1.76562 1.15809e-05 -0.00225199)
(1.72014 -4.58725e-06 -0.00239027)
(1.64031 -7.69047e-05 -0.00270761)
(1.52907 -0.000203686 -0.00317231)
(1.42492 -0.000270212 -0.00346463)
(1.33972 -0.000335247 -0.00348899)
(1.26507 -0.000323491 -0.00333712)
(1.20959 -0.000292831 -0.00322651)
(1.19544 9.19901e-05 -0.00332878)
(1.23231 -0.000348888 -0.00380341)
(1.30995 -0.00015247 -0.00458848)
(1.40206 0.000575651 -0.00514118)
(1.48606 -0.000905145 -0.00534153)
(1.53216 0.00460731 -0.005796)
(1.50041 0.0224568 -0.00646342)
(1.24431 0.0779579 -0.00842781)
(0.472754 0.254639 -0.0124457)
(-0.214903 0.509904 -0.0152846)
(0.0747213 0.449106 -0.014357)
(0.145216 0.325183 -0.0151043)
(0.275263 0.38631 -0.0145303)
(1.79947 -9.737e-07 -0.00227922)
(1.8176 -3.97055e-06 -0.00208697)
(1.80792 -7.54914e-06 -0.00211829)
(1.79191 -1.19639e-05 -0.0021659)
(1.76568 -1.79556e-05 -0.0022515)
(1.72033 -2.70457e-05 -0.00238927)
(1.64073 -3.89033e-05 -0.0027058)
(1.52994 -5.03419e-05 -0.00316906)
(1.42621 -5.04833e-05 -0.00346089)
(1.34121 -4.93875e-05 -0.00348509)
(1.2665 -6.81444e-05 -0.00333366)
(1.21089 -0.000160591 -0.00322444)
(1.19604 0.000238882 -0.00332557)
(1.23267 -0.000319105 -0.00380469)
(1.31053 3.31963e-05 -0.00459192)
(1.4018 0.000354237 -0.0051226)
(1.48788 -0.000638983 -0.00536619)
(1.54253 0.0040162 -0.00574914)
(1.53184 0.0200252 -0.00625569)
(1.34816 0.0708774 -0.00779835)
(0.698606 0.229815 -0.0112404)
(-0.0663754 0.554769 -0.0146963)
(0.0625173 0.56752 -0.0140442)
(0.168969 0.417934 -0.0148427)
(0.294532 0.468341 -0.0141971)
(1.79942 -1.36234e-05 -0.00227941)
(1.81758 -1.71157e-05 -0.00208717)
(1.80792 -2.62019e-05 -0.0021184)
(1.7919 -4.80614e-05 -0.00216612)
(1.7656 -8.10362e-05 -0.00225189)
(1.72012 -0.000104548 -0.00239011)
(1.64029 -8.87087e-05 -0.00270749)
(1.52906 -2.17796e-05 -0.00317231)
(1.42492 3.88819e-05 -0.00346529)
(1.3397 0.000120267 -0.00348992)
(1.26495 0.000101828 -0.0033379)
(1.20988 -5.10512e-05 -0.00322844)
(1.19522 0.000270278 -0.00332677)
(1.2322 -0.000106725 -0.00380778)
(1.31044 -4.12542e-05 -0.00459387)
(1.40161 0.000230844 -0.00510999)
(1.48916 2.72206e-06 -0.00539226)
(1.55125 0.00245733 -0.0056767)
(1.55945 0.0165752 -0.006085)
(1.43795 0.0629967 -0.00725378)
(0.945699 0.203296 -0.0101063)
(0.13079 0.561924 -0.0137406)
(0.0817834 0.685484 -0.0136689)
(0.206945 0.54171 -0.0143797)
(0.304431 0.583928 -0.0138237)
(1.79942 1.5883e-05 -0.0022794)
(1.81758 2.63465e-05 -0.00208714)
(1.80792 4.63561e-05 -0.00211837)
(1.7919 8.26932e-05 -0.00216607)
(1.7656 0.000134274 -0.00225182)
(1.72011 0.000180276 -0.00238999)
(1.64025 0.000174704 -0.00270725)
(1.52901 6.56356e-05 -0.00317181)
(1.42488 -0.00010583 -0.00346468)
(1.33967 -0.00028014 -0.00348939)
(1.26492 -0.000350739 -0.00333755)
(1.21 -0.000347981 -0.00322847)
(1.19527 -0.000164725 -0.00332604)
(1.23209 2.38584e-05 -0.00380591)
(1.31055 -0.000596809 -0.0046005)
(1.40193 0.000306665 -0.00509539)
(1.48937 0.000347993 -0.00541735)
(1.55865 0.000177918 -0.00559036)
(1.58449 0.0136736 -0.00595718)
(1.5139 0.0562697 -0.00684897)
(1.17667 0.17762 -0.00902799)
(0.379574 0.519699 -0.0124558)
(0.164428 0.794089 -0.0133318)
(0.257902 0.687406 -0.0136478)
(0.321904 0.79949 -0.0130386)
(1.79945 5.59491e-06 -3.77052e-09)
(1.81761 1.64594e-05 -2.30959e-09)
(1.80795 3.04039e-05 -1.879e-09)
(1.79194 4.91005e-05 -6.17951e-10)
(1.7657 7.57133e-05 1.86106e-09)
(1.7203 0.000116283 6.36814e-09)
(1.64057 0.00017302 3.45023e-08)
(1.52952 0.000235614 7.90583e-08)
(1.4256 0.00024759 1.9959e-07)
(1.34062 0.000225458 2.17749e-07)
(1.26609 0.000176846 1.68241e-07)
(1.21033 0.000106485 2.85406e-07)
(1.19584 4.87369e-05 2.51293e-07)
(1.23309 4.79963e-05 2.36512e-07)
(1.30945 -9.98001e-06 1.95135e-07)
(1.40138 1.79576e-05 1.64959e-07)
(1.47503 0.000166974 1.1117e-07)
(1.48715 0.000838275 1.48626e-08)
(1.33801 0.00330468 -2.36664e-07)
(0.675626 0.0119236 -9.17179e-07)
(-0.208108 0.0362752 -1.18714e-06)
(-0.457846 0.0367209 5.06716e-07)
(0.152305 0.0251189 4.51914e-07)
(0.0765176 0.0257355 1.18442e-07)
(0.179217 0.0304109 1.65212e-07)
(1.79947 -1.20414e-05 -2.11033e-09)
(1.81764 -1.99802e-05 3.8153e-09)
(1.80799 -3.65867e-05 4.89602e-09)
(1.792 -6.87246e-05 7.61411e-09)
(1.76577 -0.000115951 1.31204e-08)
(1.72039 -0.000158012 2.27005e-08)
(1.64068 -0.000156762 6.35266e-08)
(1.52958 -6.85612e-05 1.30288e-07)
(1.42559 7.12335e-05 2.51017e-07)
(1.34056 0.000223302 2.44174e-07)
(1.266 0.000271078 1.69816e-07)
(1.21023 0.000221392 2.99367e-07)
(1.1958 0.000152176 2.49119e-07)
(1.23304 0.000197174 2.12564e-07)
(1.30943 1.21484e-05 1.79973e-07)
(1.40152 7.51413e-05 1.57881e-07)
(1.47582 0.000505093 1.071e-07)
(1.48987 0.00250733 1.27673e-08)
(1.34851 0.00987417 -2.37108e-07)
(0.709233 0.0355864 -9.10562e-07)
(-0.17751 0.108392 -1.24354e-06)
(-0.453574 0.109468 4.72688e-07)
(0.149567 0.0738698 4.65993e-07)
(0.0821539 0.0746727 6.44853e-08)
(0.183325 0.0888594 2.01479e-07)
(1.79942 1.07839e-06 -6.20364e-09)
(1.81759 5.42798e-06 2.3789e-08)
(1.80793 1.07833e-05 2.90384e-08)
(1.79191 1.76665e-05 4.19526e-08)
(1.76562 2.76198e-05 6.86988e-08)
(1.72014 4.40475e-05 1.15684e-07)
(1.6403 7.2954e-05 2.34002e-07)
(1.52903 0.000116586 4.37648e-07)
(1.42487 0.000140182 5.73656e-07)
(1.33968 0.000139671 4.92413e-07)
(1.26507 0.000125533 3.90435e-07)
(1.20947 0.000111319 3.79008e-07)
(1.19536 3.02748e-05 2.7878e-07)
(1.2327 0.000142487 1.77314e-07)
(1.30924 -9.75489e-05 1.50508e-07)
(1.4017 0.00011211 1.42536e-07)
(1.47734 0.000672854 1.01871e-07)
(1.49526 0.00384954 1.94051e-08)
(1.36947 0.0155789 -2.10464e-07)
(0.780349 0.0560988 -8.30027e-07)
(-0.112353 0.175533 -1.375e-06)
(-0.443304 0.189744 3.41883e-07)
(0.142128 0.127844 6.18474e-07)
(0.0935261 0.124102 -7.80825e-08)
(0.192779 0.14965 2.5414e-07)
(1.79947 3.65769e-08 7.39881e-09)
(1.81765 2.9635e-07 2.39465e-08)
(1.808 5.64967e-07 2.73267e-08)
(1.79202 9.28026e-07 3.58684e-08)
(1.76579 1.5356e-06 5.37134e-08)
(1.72042 2.67111e-06 8.86999e-08)
(1.64072 6.09962e-06 1.75111e-07)
(1.5296 1.46289e-05 3.40281e-07)
(1.42555 2.69356e-05 3.34933e-07)
(1.34049 3.23341e-05 2.34886e-07)
(1.26593 3.72095e-05 9.09518e-08)
(1.21011 5.28033e-05 2.5501e-07)
(1.19582 -8.85368e-07 1.99734e-07)
(1.2329 0.000149551 1.70591e-07)
(1.30943 -0.000176894 1.24774e-07)
(1.4021 0.000228024 1.15853e-07)
(1.47946 0.000552218 8.41815e-08)
(1.50273 0.00461496 1.68139e-08)
(1.39779 0.0196792 -1.66558e-07)
(0.879474 0.0706003 -6.77116e-07)
(-0.0139705 0.225966 -1.36799e-06)
(-0.422938 0.272602 1.44639e-07)
(0.129917 0.187223 6.10391e-07)
(0.108278 0.171011 -1.42642e-07)
(0.20778 0.20797 2.55033e-07)
(1.79942 -7.33377e-07 -4.07282e-09)
(1.81759 -2.96608e-06 9.07792e-08)
(1.80793 -6.08152e-06 1.02913e-07)
(1.79191 -1.00151e-05 1.27427e-07)
(1.76562 -1.51176e-05 1.76282e-07)
(1.72015 -2.2097e-05 2.52009e-07)
(1.64031 -3.06238e-05 3.56888e-07)
(1.52905 -3.70997e-05 5.42544e-07)
(1.42488 -2.93578e-05 2.62626e-07)
(1.33969 -2.01067e-05 -3.79467e-08)
(1.26509 -7.83907e-06 -3.32561e-08)
(1.20943 3.91359e-06 -1.2382e-07)
(1.19545 4.61388e-05 -8.52993e-08)
(1.23254 9.95517e-05 -1.07973e-07)
(1.30934 -0.000232956 -6.52128e-08)
(1.40222 0.000414548 2.89542e-08)
(1.48173 0.000212004 2.69439e-08)
(1.51164 0.00489606 -1.18985e-08)
(1.43088 0.0222996 -1.43651e-07)
(0.997137 0.0792336 -5.94124e-07)
(0.117226 0.257583 -1.32955e-06)
(-0.385961 0.357583 -7.83563e-08)
(0.114209 0.257542 4.57521e-07)
(0.123385 0.216647 -1.31814e-07)
(0.227467 0.264347 2.44733e-07)
(1.79947 1.23123e-05 -7.76407e-09)
(1.81765 2.19095e-05 4.97815e-08)
(1.80799 4.03066e-05 5.78778e-08)
(1.792 7.45567e-05 7.74212e-08)
(1.76578 0.000124755 1.18517e-07)
(1.72042 0.000172385 2.01378e-07)
(1.64074 0.000181418 3.01989e-07)
(1.52965 0.000108912 5.03414e-07)
(1.42563 -2.54827e-05 3.2581e-07)
(1.34058 -0.000179795 4.74113e-08)
(1.266 -0.00023625 -1.58495e-07)
(1.2102 -0.000228811 4.75229e-08)
(1.19592 -2.94723e-06 -3.1269e-08)
(1.23268 -0.000178029 1.62511e-08)
(1.30973 -0.000282863 1.03939e-08)
(1.40238 0.000578505 4.63423e-08)
(1.48405 -0.000384262 7.20126e-08)
(1.52163 0.0048558 2.71262e-08)
(1.46605 0.0232341 -1.1159e-07)
(1.12331 0.081455 -4.9125e-07)
(0.28114 0.266655 -1.30948e-06)
(-0.321727 0.441484 -3.04225e-07)
(0.0949106 0.343963 3.71357e-07)
(0.135671 0.264591 -4.66716e-08)
(0.250923 0.321919 1.96211e-07)
(1.79945 -2.44926e-06 1.32905e-07)
(1.81761 -2.72053e-06 1.85734e-07)
(1.80795 -2.68815e-06 1.993e-07)
(1.79195 -3.01546e-06 2.25615e-07)
(1.76571 -3.80644e-06 2.7589e-07)
(1.72032 -5.73973e-06 3.3984e-07)
(1.64061 -1.19552e-05 3.85991e-07)
(1.52956 -3.00616e-05 4.34936e-07)
(1.42563 -5.61753e-05 3.03872e-07)
(1.34063 -7.12378e-05 -4.72282e-07)
(1.26607 -7.96132e-05 -7.45945e-07)
(1.2104 -0.000138852 -4.43705e-07)
(1.19593 0.000219176 -2.6274e-07)
(1.23259 -0.000234126 -4.87976e-07)
(1.3101 -6.73544e-05 -1.31985e-07)
(1.40213 0.000637933 -1.58821e-08)
(1.48608 -0.000860293 5.2084e-08)
(1.53216 0.00464052 1.71863e-08)
(1.50037 0.0224847 -8.31796e-08)
(1.2442 0.0779921 -3.71673e-07)
(0.472557 0.25471 -1.08026e-06)
(-0.214943 0.50995 -5.90603e-07)
(0.0747214 0.449079 3.20271e-07)
(0.145229 0.325158 1.15654e-07)
(0.275164 0.386343 6.12061e-08)
(1.79946 3.04488e-06 -4.51114e-08)
(1.81764 1.33406e-05 4.91777e-08)
(1.80799 2.7012e-05 5.69352e-08)
(1.792 4.50478e-05 6.90773e-08)
(1.76576 7.05549e-05 9.26595e-08)
(1.72037 0.000108965 1.13376e-07)
(1.64063 0.000159279 8.06488e-08)
(1.52946 0.0002022 4.71827e-08)
(1.42541 0.00018019 -5.78853e-07)
(1.34036 0.000135932 -9.38125e-07)
(1.26577 7.04394e-05 -9.16778e-07)
(1.21035 -7.74991e-05 -4.66094e-07)
(1.19569 0.000294441 -3.59731e-07)
(1.23245 -0.000277305 -1.21192e-07)
(1.31039 6.75463e-05 -1.56397e-08)
(1.40171 0.000384964 7.69905e-08)
(1.48781 -0.000612669 1.09801e-07)
(1.54247 0.00403953 7.17892e-08)
(1.53178 0.0200478 -1.45063e-08)
(1.34807 0.0709063 -2.32247e-07)
(0.698421 0.229874 -7.49211e-07)
(-0.0664521 0.554832 -7.94757e-07)
(0.0624909 0.5675 3.31599e-07)
(0.168962 0.417911 1.97451e-07)
(0.294466 0.468371 -1.33333e-07)
(1.79946 1.16597e-07 1.0846e-07)
(1.81764 1.43297e-06 1.89653e-07)
(1.80799 2.87971e-06 2.05056e-07)
(1.792 4.59315e-06 2.33769e-07)
(1.76576 7.11499e-06 2.88943e-07)
(1.72036 1.19937e-05 3.51474e-07)
(1.64061 2.04587e-05 3.87771e-07)
(1.52943 3.17776e-05 4.14495e-07)
(1.42538 2.99551e-05 2.91791e-07)
(1.34034 2.09336e-05 -5.17216e-07)
(1.26571 -5.44475e-06 -7.43981e-07)
(1.2105 -9.73712e-05 -2.32039e-07)
(1.1956 0.000238166 -5.26186e-08)
(1.23242 -0.000135739 -3.10814e-07)
(1.31056 -4.84712e-05 1.18353e-08)
(1.40166 0.000238012 1.15006e-07)
(1.48917 1.43631e-05 1.41139e-07)
(1.55124 0.00247233 1.12275e-07)
(1.55941 0.0165922 5.40827e-08)
(1.43788 0.0630194 -9.81569e-08)
(0.945541 0.203344 -4.80489e-07)
(0.130713 0.561996 -9.14279e-07)
(0.0817275 0.685487 2.51649e-07)
(0.206948 0.541693 2.38103e-07)
(0.304386 0.583948 -1.39017e-07)
(1.79946 1.6831e-11 8.4421e-08)
(1.81764 1.35238e-07 9.48029e-08)
(1.80799 2.71547e-07 1.02078e-07)
(1.792 4.60554e-07 1.1649e-07)
(1.76577 7.92077e-07 1.44042e-07)
(1.72039 1.46793e-06 1.60491e-07)
(1.64065 3.10819e-06 2.6177e-07)
(1.52947 6.61816e-06 3.8435e-07)
(1.4254 1.30639e-05 8.68565e-07)
(1.34033 1.23525e-05 1.8167e-07)
(1.26566 -3.53245e-06 -2.81731e-07)
(1.21057 -4.07419e-05 3.63454e-07)
(1.19559 9.51785e-05 3.0118e-07)
(1.23226 0.000233305 -1.16494e-07)
(1.31063 -0.000453672 2.16411e-07)
(1.40195 0.000399132 2.45097e-07)
(1.48936 0.000407463 2.02894e-07)
(1.55863 0.000216517 1.85232e-07)
(1.58445 0.0137004 1.28536e-07)
(1.51384 0.0562938 -5.82002e-09)
(1.17655 0.177659 -2.6143e-07)
(0.379507 0.519758 -7.16626e-07)
(0.164342 0.794102 1.17487e-07)
(0.257905 0.687388 1.96316e-07)
(0.321875 0.799502 -8.70439e-08)
(1.79946 -2.32814e-07 2.43781e-08)
(1.81764 -1.81013e-06 1.28753e-07)
(1.80799 -3.51454e-06 1.43561e-07)
(1.79201 -5.70751e-06 1.75568e-07)
(1.76577 -9.25742e-06 2.40454e-07)
(1.72039 -1.59967e-05 3.62958e-07)
(1.64065 -2.83514e-05 4.89654e-07)
(1.52948 -4.77591e-05 7.47762e-07)
(1.42541 -5.74777e-05 2.39145e-07)
(1.34038 -5.75719e-05 -1.32276e-07)
(1.26584 -4.96213e-05 -2.12088e-07)
(1.21012 -3.1748e-05 -2.52239e-07)
(1.1957 -3.05754e-05 -2.06395e-07)
(1.23299 5.15938e-06 -9.69961e-08)
(1.30939 -3.25034e-05 -6.7374e-08)
(1.40134 2.87505e-06 3.99505e-08)
(1.475 0.000156018 5.77277e-08)
(1.48713 0.000829543 7.46377e-08)
(1.33798 0.00329735 7.63389e-08)
(0.675593 0.0119184 2.539e-08)
(-0.208132 0.0362733 -1.56685e-08)
(-0.457847 0.0367202 1.33116e-07)
(0.152301 0.0251191 2.34887e-08)
(0.0765153 0.0257356 5.12523e-09)
(0.179216 0.0304109 -7.2775e-09)
(1.79946 8.57579e-09 -2.05691e-08)
(1.81764 -7.17299e-07 3.43305e-08)
(1.80799 -1.54731e-06 4.14116e-08)
(1.792 -2.47299e-06 5.76783e-08)
(1.76576 -3.81393e-06 9.15119e-08)
(1.72037 -6.59062e-06 1.46991e-07)
(1.64063 -1.10026e-05 2.72461e-07)
(1.52945 -1.55675e-05 5.13154e-07)
(1.4254 -6.71766e-06 4.13685e-07)
(1.34038 -1.46056e-07 2.09196e-07)
(1.26586 5.4726e-06 9.28897e-09)
(1.21013 2.05735e-05 2.04222e-07)
(1.19573 -1.37881e-05 1.05104e-07)
(1.23298 6.50382e-05 1.09658e-07)
(1.30939 -6.7765e-05 1.07524e-07)
(1.40149 3.01199e-05 1.2298e-07)
(1.4758 0.000479664 1.21855e-07)
(1.48985 0.00249251 1.12684e-07)
(1.34849 0.00986515 9.18794e-08)
(0.709206 0.0355815 3.55375e-08)
(-0.177529 0.108391 -1.2168e-08)
(-0.453575 0.109467 1.2307e-07)
(0.149563 0.0738701 2.31183e-08)
(0.0821518 0.0746729 5.1323e-09)
(0.183325 0.0888595 -7.10578e-09)
(1.79946 -2.73302e-06 1.08769e-07)
(1.81764 -1.11702e-05 1.56707e-07)
(1.80799 -2.27607e-05 1.68258e-07)
(1.792 -3.80853e-05 1.89325e-07)
(1.76577 -5.92641e-05 2.29267e-07)
(1.72038 -8.94589e-05 2.65706e-07)
(1.64064 -0.000124304 2.9709e-07)
(1.52948 -0.000142182 3.1076e-07)
(1.42543 -0.000106696 2.96866e-07)
(1.34039 -6.51915e-05 -4.5423e-07)
(1.26586 -2.40555e-05 -7.50338e-07)
(1.2101 2.88652e-05 -2.0945e-07)
(1.19574 -1.32596e-05 -1.53933e-07)
(1.23293 0.000117946 -4.1217e-07)
(1.30938 -0.000116362 -6.2759e-08)
(1.40177 9.4029e-05 6.52552e-08)
(1.47737 0.000656854 7.21199e-08)
(1.49526 0.00383599 7.66555e-08)
(1.36945 0.0155681 6.31554e-08)
(0.780314 0.056092 2.84853e-08)
(-0.112384 0.175533 -2.68485e-08)
(-0.443307 0.189742 1.20362e-07)
(0.142125 0.127844 2.1408e-08)
(0.0935238 0.124102 4.77313e-09)
(0.192779 0.14965 -6.77324e-09)
(1.79945 3.19499e-06 -2.79941e-08)
(1.81762 5.3596e-06 -5.27796e-09)
(1.80796 7.80523e-06 -2.8189e-09)
(1.79196 1.11656e-05 2.99246e-09)
(1.76572 1.57325e-05 1.52293e-08)
(1.72035 2.25456e-05 3.08764e-08)
(1.64066 3.2968e-05 7.78785e-08)
(1.52962 5.12437e-05 1.67037e-07)
(1.42567 6.85796e-05 1.64803e-07)
(1.34065 7.3644e-05 7.89671e-08)
(1.26611 6.41753e-05 -7.63204e-08)
(1.21025 4.90656e-05 1.47824e-07)
(1.19589 -2.02148e-05 1.32082e-07)
(1.23293 0.000120816 1.13317e-07)
(1.30943 -0.000206475 1.0334e-07)
(1.40209 0.000201063 1.10751e-07)
(1.47945 0.000530158 1.11906e-07)
(1.50271 0.00459798 1.00542e-07)
(1.39778 0.019667 7.55646e-08)
(0.879459 0.0705925 3.96223e-08)
(-0.0139813 0.225964 -1.75113e-08)
(-0.422939 0.272599 9.33977e-08)
(0.129915 0.187223 2.72983e-08)
(0.108276 0.171011 3.05127e-09)
(0.20778 0.20797 -6.21438e-09)
(1.79948 -1.07201e-05 1.08046e-07)
(1.81765 -1.25277e-05 1.5267e-07)
(1.808 -1.95168e-05 1.63529e-07)
(1.79201 -3.82402e-05 1.82963e-07)
(1.7658 -6.69708e-05 2.19713e-07)
(1.72044 -8.46736e-05 2.52116e-07)
(1.64075 -6.08388e-05 2.50184e-07)
(1.52965 2.1881e-05 2.06586e-07)
(1.42563 0.000108742 1.09874e-07)
(1.34057 0.000206014 -6.25488e-07)
(1.266 0.000211731 -8.55124e-07)
(1.21014 0.000122634 -3.59876e-07)
(1.19589 0.000122529 -2.54234e-07)
(1.23281 0.000151415 -4.90902e-07)
(1.30951 -0.000215159 -9.83537e-08)
(1.40231 0.000413273 2.8266e-08)
(1.48177 0.000201902 3.73587e-08)
(1.51166 0.00488376 4.01676e-08)
(1.43088 0.0222893 4.80446e-08)
(0.99712 0.0792276 2.34547e-08)
(0.117207 0.257583 -2.4127e-08)
(-0.385966 0.357581 7.16297e-08)
(0.114208 0.257541 2.7762e-08)
(0.123384 0.216646 1.00035e-09)
(0.227466 0.264347 -6.17642e-09)
(1.79942 -4.96614e-08 -2.51179e-08)
(1.81761 -1.29866e-07 5.59624e-09)
(1.80796 -2.27288e-07 7.85792e-09)
(1.79196 -3.51269e-07 1.18057e-08)
(1.76567 -5.3254e-07 1.99452e-08)
(1.72017 -8.35561e-07 2.55444e-08)
(1.64028 -2.25503e-06 3.98839e-08)
(1.52886 -6.68522e-06 7.83934e-08)
(1.42455 -1.24618e-05 -8.15962e-08)
(1.33934 -1.66815e-05 -1.91915e-07)
(1.26477 -2.64366e-05 -2.45516e-07)
(1.20925 -7.40529e-05 -7.6726e-08)
(1.19533 0.000122648 -6.39455e-09)
(1.23233 -8.01645e-05 3.52344e-08)
(1.30951 -0.000232626 5.50486e-08)
(1.40225 0.000596075 8.31976e-08)
(1.48398 -0.000382886 7.53617e-08)
(1.5216 0.00484991 6.78894e-08)
(1.46603 0.0232257 5.46258e-08)
(1.1233 0.0814476 3.1855e-08)
(0.281137 0.266652 -2.75046e-08)
(-0.321727 0.441481 5.36471e-08)
(0.0949114 0.343961 2.91751e-08)
(0.13567 0.264591 -8.48197e-10)
(0.250923 0.321919 -6.54667e-09)
(1.79948 1.02676e-05 1.94628e-08)
(1.81765 9.16079e-06 1.04346e-07)
(1.808 1.30409e-05 1.15879e-07)
(1.79201 2.77817e-05 1.40111e-07)
(1.76579 5.02003e-05 1.8939e-07)
(1.72044 5.59849e-05 2.79774e-07)
(1.64075 9.1088e-06 3.51754e-07)
(1.52964 -0.000112027 5.04813e-07)
(1.42562 -0.000221812 5.1727e-08)
(1.34056 -0.000328787 -2.2044e-07)
(1.26594 -0.000343711 -2.12541e-07)
(1.21028 -0.000323739 -2.6585e-07)
(1.19585 6.80788e-05 -1.85114e-07)
(1.23254 -0.000358496 -8.83648e-08)
(1.31008 -0.000149099 -4.13041e-08)
(1.40212 0.000585741 2.21857e-08)
(1.48608 -0.000894042 4.93969e-08)
(1.53215 0.00461841 5.08875e-08)
(1.50036 0.0224701 4.86638e-08)
(1.24419 0.0779827 3.82376e-08)
(0.472553 0.254706 -9.22183e-09)
(-0.214944 0.509949 3.48295e-08)
(0.0747224 0.449077 2.61057e-08)
(0.145229 0.325158 -4.11532e-10)
(0.275164 0.386343 -6.99626e-09)
(1.79945 -2.99445e-06 4.11525e-09)
(1.81761 -4.55595e-06 2.42225e-08)
(1.80795 -6.34055e-06 2.77071e-08)
(1.79195 -8.79465e-06 3.63537e-08)
(1.76571 -1.19197e-05 5.41496e-08)
(1.72031 -1.64832e-05 9.04935e-08)
(1.64061 -2.31949e-05 1.60404e-07)
(1.52957 -3.56117e-05 2.95758e-07)
(1.42563 -4.71877e-05 2.62285e-07)
(1.34062 -5.7404e-05 1.68232e-07)
(1.26603 -7.27217e-05 6.09788e-08)
(1.21055 -0.000149001 1.33855e-07)
(1.19581 0.000261818 9.65921e-08)
(1.23252 -0.000291259 1.07471e-07)
(1.31043 6.14726e-05 9.92712e-08)
(1.40173 0.000379237 9.97765e-08)
(1.48782 -0.000620116 9.29027e-08)
(1.54247 0.00403167 8.90589e-08)
(1.53178 0.0200401 7.9388e-08)
(1.34807 0.0708994 6.35435e-08)
(0.698425 0.229869 2.3029e-08)
(-0.0664491 0.55483 1.34963e-08)
(0.0624919 0.567499 2.31905e-08)
(0.168963 0.417911 -6.37261e-11)
(0.294466 0.46837 -7.36681e-09)
(1.79946 -5.95427e-10 4.62652e-09)
(1.81764 -2.74308e-10 3.24174e-08)
(1.80799 -1.25827e-10 3.80318e-08)
(1.792 -1.44834e-09 5.20893e-08)
(1.76577 -7.19577e-09 8.10528e-08)
(1.72038 -1.23321e-08 1.36237e-07)
(1.64064 -1.14494e-07 2.67433e-07)
(1.52947 -3.67129e-07 4.97343e-07)
(1.42541 7.58109e-07 6.6706e-07)
(1.34035 -2.16528e-06 6.05871e-07)
(1.2657 -2.1942e-05 4.53843e-07)
(1.21047 -0.00010208 4.87599e-07)
(1.19557 0.000237317 3.54812e-07)
(1.23239 -0.000135369 2.52067e-07)
(1.31054 -4.7635e-05 1.99135e-07)
(1.40165 0.00023739 1.69867e-07)
(1.48916 1.24279e-05 1.4489e-07)
(1.55123 0.00246878 1.34044e-07)
(1.55941 0.0165885 1.08255e-07)
(1.43788 0.0630165 7.59552e-08)
(0.945541 0.203342 4.10244e-08)
(0.130714 0.561995 1.33681e-08)
(0.0817283 0.685486 2.09727e-08)
(0.206949 0.541693 1.3882e-09)
(0.304386 0.583948 -7.16838e-09)
(1.79945 2.99374e-06 1.40538e-09)
(1.81761 4.55985e-06 8.75142e-09)
(1.80795 6.34994e-06 1.02848e-08)
(1.79195 8.80706e-06 1.40959e-08)
(1.76571 1.19279e-05 2.17708e-08)
(1.72031 1.64913e-05 3.52806e-08)
(1.64061 2.30059e-05 9.11452e-08)
(1.52957 3.48482e-05 1.83376e-07)
(1.42563 4.88986e-05 3.34641e-07)
(1.3406 5.30993e-05 3.28027e-07)
(1.26593 3.29988e-05 2.28996e-07)
(1.21078 -2.11676e-05 3.94617e-07)
(1.19571 0.000103847 3.17571e-07)
(1.23233 0.000234562 2.50524e-07)
(1.31067 -0.000456527 2.07256e-07)
(1.40197 0.000395067 1.67846e-07)
(1.48937 0.00040497 1.44583e-07)
(1.55863 0.000215111 1.25246e-07)
(1.58446 0.0136998 1.02051e-07)
(1.51384 0.0562935 8.06024e-08)
(1.17656 0.177659 5.71362e-08)
(0.37951 0.519756 1.87056e-08)
(0.164344 0.7941 1.82552e-08)
(0.257906 0.687388 2.18443e-09)
(0.321875 0.799502 -5.99328e-09)
(1.79946 -3.53121e-11 1.03569e-08)
(1.81764 -2.73065e-09 2.27282e-08)
(1.80799 -8.45101e-09 2.51439e-08)
(1.79201 -1.35809e-08 3.10138e-08)
(1.76578 -5.69474e-08 4.2525e-08)
(1.72039 -1.40524e-07 7.00678e-08)
(1.64067 -1.99612e-07 1.1129e-07)
(1.52951 -2.69148e-07 1.89442e-07)
(1.42544 -5.04558e-07 2.51795e-07)
(1.3404 -1.13726e-06 2.6683e-07)
(1.26586 -9.73775e-07 1.79537e-07)
(1.21012 1.58312e-06 2.95599e-07)
(1.19568 -9.60787e-06 2.33815e-07)
(1.23297 1.76764e-05 2.22325e-07)
(1.30937 -2.52095e-05 1.62229e-07)
(1.40133 7.57251e-06 9.9021e-08)
(1.47499 0.000159142 9.04563e-08)
(1.48712 0.000831734 7.28928e-08)
(1.33797 0.003299 5.04575e-08)
(0.675581 0.0119195 2.40108e-08)
(-0.20814 0.0362736 2.23349e-08)
(-0.457848 0.0367204 1.28322e-07)
(0.152299 0.0251192 1.68697e-07)
(0.0765158 0.0257356 -2.7453e-07)
(0.179217 0.0304109 -9.43989e-08)
(1.79946 -4.71657e-10 1.39867e-08)
(1.81764 -2.9724e-09 4.23497e-08)
(1.80799 -8.68449e-09 4.79165e-08)
(1.79201 -1.35095e-08 6.17493e-08)
(1.76578 -5.53564e-08 8.99274e-08)
(1.72039 -1.3616e-07 1.51083e-07)
(1.64067 -1.84848e-07 2.40333e-07)
(1.52951 -2.68043e-07 4.09015e-07)
(1.42544 -5.94265e-07 4.19707e-07)
(1.3404 -1.54944e-06 3.60503e-07)
(1.26586 -7.61134e-07 2.28225e-07)
(1.21011 7.28988e-06 2.56817e-07)
(1.1957 -2.68709e-05 1.63201e-07)
(1.23295 5.53875e-05 1.43198e-07)
(1.30937 -7.45577e-05 9.72887e-08)
(1.40147 2.63874e-05 5.6915e-08)
(1.47578 0.00047774 5.38746e-08)
(1.48984 0.00249176 4.56266e-08)
(1.34848 0.00986522 3.42685e-08)
(0.709193 0.0355819 2.35257e-08)
(-0.177538 0.108391 2.26813e-08)
(-0.453576 0.109468 1.05234e-07)
(0.149561 0.0738705 1.42274e-07)
(0.0821521 0.0746728 -1.53049e-07)
(0.183325 0.0888595 -1.50121e-07)
(1.79946 -1.64057e-09 6.07136e-09)
(1.81764 -5.32054e-09 2.62598e-08)
(1.80799 -1.0395e-08 2.94852e-08)
(1.79201 -1.59931e-08 3.70838e-08)
(1.76578 -2.15329e-08 5.25826e-08)
(1.72039 -3.01357e-08 8.4072e-08)
(1.64067 -3.97997e-08 1.29747e-07)
(1.52951 -1.05966e-07 2.20947e-07)
(1.42544 -2.23188e-07 1.36369e-07)
(1.3404 -1.07689e-06 5.97387e-08)
(1.26587 4.48431e-07 8.97648e-09)
(1.2101 1.28255e-05 5.16759e-08)
(1.19573 -3.90891e-05 4.47806e-08)
(1.23292 9.31314e-05 4.62349e-08)
(1.30937 -0.000133261 4.85384e-08)
(1.40176 8.56305e-05 4.02095e-08)
(1.47736 0.000653006 3.59949e-08)
(1.49525 0.00383466 2.52946e-08)
(1.36945 0.0155683 7.80867e-09)
(0.780303 0.0560932 -9.52299e-09)
(-0.112392 0.175534 1.1824e-08)
(-0.443308 0.189743 1.81615e-07)
(0.142123 0.127844 -6.26369e-08)
(0.0935239 0.124102 1.05333e-07)
(0.192779 0.14965 -2.40372e-07)
(1.79946 -7.44797e-10 1.81972e-08)
(1.81764 5.88956e-10 8.65675e-08)
(1.80799 1.72419e-09 9.45822e-08)
(1.79201 2.92017e-09 1.09446e-07)
(1.76578 4.51243e-09 1.38944e-07)
(1.72039 6.27901e-09 1.89393e-07)
(1.64067 -2.44168e-09 1.74626e-07)
(1.52951 -6.76728e-08 1.61869e-07)
(1.42544 5.20301e-08 -2.81588e-07)
(1.3404 -1.22599e-06 -4.71745e-07)
(1.26588 8.75445e-08 -3.4795e-07)
(1.21008 1.1848e-05 -3.74517e-07)
(1.19578 -3.77759e-05 -2.28269e-07)
(1.23286 0.000118421 -1.44361e-07)
(1.3094 -0.000200927 -5.85985e-08)
(1.40207 0.000208929 -3.01631e-10)
(1.47943 0.000537279 -2.00409e-09)
(1.5027 0.00460356 -6.06027e-09)
(1.39776 0.0196711 -1.28791e-08)
(0.879444 0.0705955 -2.56187e-08)
(-0.0139927 0.225966 -1.45588e-08)
(-0.422941 0.2726 2.72093e-07)
(0.129914 0.187224 -1.5745e-07)
(0.108275 0.171011 2.47027e-07)
(0.20778 0.20797 -2.63325e-07)
(1.79946 1.90581e-08 -2.47899e-08)
(1.81764 3.45889e-08 -5.47426e-09)
(1.80799 5.48896e-08 -4.27218e-09)
(1.79201 8.15911e-08 -1.77441e-09)
(1.76578 1.14899e-07 3.6387e-09)
(1.72039 1.62418e-07 1.13126e-08)
(1.64067 1.94752e-07 1.37779e-08)
(1.52951 1.69809e-07 3.01028e-08)
(1.42544 5.72434e-07 -7.11359e-08)
(1.3404 -9.9774e-07 -1.18396e-07)
(1.26588 -3.11167e-06 -1.99641e-07)
(1.21006 -1.12278e-05 5.28028e-08)
(1.19584 2.41683e-05 -5.11604e-09)