/*--------------------------------*- C++ -*----------------------------------*\
| =========                 |                                                 |
| \\      /  F ield         | OpenFOAM: The Open Source CFD Toolbox           |
|  \\    /   O peration     | Version:  4.1                                   |
|   \\  /    A nd           | Web:      www.OpenFOAM.org                      |
|    \\/     M anipulation  |                                                 |
\*---------------------------------------------------------------------------*/
FoamFile
{
    version     2.0;
    format      ascii;
    class       volScalarField;
    location    "3.18";
    object      Ma;
}
// * * * * * * * * * * * * * * * * * * * * * * * * * * * * * * * * * * * * * //

dimensions      [0 0 0 0 0 0 0];

internalField   nonuniform List<scalar> 
52500
(
3.00002
2.99997
2.99992
2.99969
2.99938
2.99809
2.99625
2.98922
2.97743
2.9393
2.85217
2.65098
2.11541
1.28293
0.532385
0.271731
0.326912
0.343624
0.310888
0.255948
0.203733
0.161975
0.121255
0.0765527
0.0430435
3.00002
2.99997
2.99992
2.9997
2.99938
2.99812
2.9963
2.98935
2.97775
2.94009
2.85433
2.65555
2.12728
1.29795
0.540381
0.272419
0.32882
0.346257
0.313736
0.259597
0.208665
0.168353
0.129787
0.0901007
0.0657198
3.00002
2.99997
2.99992
2.9997
2.9994
2.99817
2.99641
2.98963
2.97841
2.9417
2.85885
2.66511
2.15312
1.33172
0.559185
0.276366
0.334913
0.354092
0.322421
0.270391
0.222362
0.18545
0.151697
0.120124
0.103723
3.00002
2.99998
2.99992
2.99972
2.99943
2.99824
2.99655
2.99004
2.97938
2.94412
2.8657
2.67959
2.19299
1.3851
0.588489
0.284238
0.345523
0.367448
0.337202
0.288129
0.243712
0.210906
0.182475
0.157677
0.145687
3.00002
2.99998
2.99993
2.99973
2.99945
2.99832
2.99672
2.99034
2.98056
2.94639
2.87631
2.69886
2.24963
1.46101
0.630085
0.300065
0.362563
0.387303
0.35849
0.312733
0.271781
0.242882
0.219132
0.199501
0.190532
3.00002
2.99998
2.99994
2.99975
2.99949
2.99843
2.99694
2.99097
2.98198
2.94975
2.88795
2.72157
2.3156
1.55664
0.682926
0.326872
0.387765
0.413936
0.386478
0.343972
0.306585
0.281379
0.262061
0.24713
0.240979
3.00002
2.99998
2.99994
2.99977
2.99953
2.99856
2.99719
2.99173
2.98351
2.95384
2.89898
2.74433
2.38479
1.66008
0.744649
0.365869
0.421622
0.446129
0.420399
0.381641
0.347844
0.326488
0.311683
0.30205
0.301148
3.00002
2.99999
2.99995
2.9998
2.99958
2.9987
2.99745
2.99248
2.98505
2.95797
2.90839
2.76717
2.43679
1.75147
0.801279
0.402555
0.448847
0.470174
0.451533
0.4211
0.393257
0.377573
0.369417
0.36772
0.376785
3.00002
2.99999
2.99996
2.99982
2.99963
2.99885
2.99775
2.99332
2.98671
2.9629
2.91736
2.79376
2.48143
1.86465
0.884105
0.461925
0.471258
0.484223
0.479476
0.45956
0.441043
0.432991
0.433971
0.44675
0.480753
3.00002
3
2.99997
2.99986
2.99969
2.99906
2.9981
2.99466
2.98848
2.96964
2.92534
2.82074
2.52562
1.97502
0.99795
0.535411
0.487998
0.500962
0.506615
0.496966
0.489886
0.492094
0.509138
0.551979
0.652936
3
2.99995
2.9999
2.99967
2.99936
2.99807
2.99623
2.98919
2.9774
2.93927
2.85213
2.65091
2.11533
1.2828
0.53225
0.271516
0.32672
0.343434
0.310676
0.255689
0.203404
0.161557
0.120691
0.0756435
0.0413806
3
2.99996
2.9999
2.99968
2.99937
2.9981
2.99628
2.98933
2.97773
2.94006
2.85429
2.65548
2.12721
1.29782
0.54025
0.272205
0.328629
0.346068
0.313526
0.259342
0.208347
0.167955
0.129265
0.0893388
0.0646576
3
2.99996
2.9999
2.99969
2.99938
2.99815
2.99639
2.98961
2.97839
2.94167
2.85881
2.66505
2.15305
1.33159
0.559055
0.276149
0.334721
0.353905
0.322216
0.270146
0.222063
0.18509
0.151254
0.119559
0.103061
3
2.99996
2.99991
2.9997
2.99941
2.99822
2.99653
2.99001
2.97936
2.94407
2.86569
2.67954
2.19299
1.38501
0.588392
0.28405
0.345354
0.367283
0.337018
0.28791
0.243447
0.210595
0.182111
0.157253
0.145221
3
2.99996
2.99991
2.99971
2.99943
2.9983
2.9967
2.99031
2.98054
2.94635
2.87629
2.6988
2.24961
1.46093
0.629996
0.299886
0.362408
0.387156
0.358327
0.312542
0.271553
0.24262
0.218836
0.199171
0.190181
3
2.99996
2.99992
2.99973
2.99947
2.99841
2.99692
2.99095
2.98196
2.94973
2.88792
2.72152
2.31556
1.55654
0.682834
0.326695
0.387615
0.413798
0.386331
0.343803
0.306391
0.281161
0.261821
0.246869
0.240706
3
2.99997
2.99993
2.99975
2.99951
2.99854
2.99717
2.99171
2.98349
2.95381
2.89895
2.74429
2.38475
1.66001
0.744563
0.365706
0.421486
0.446005
0.420267
0.381493
0.347678
0.326307
0.311488
0.301842
0.300934
3
2.99997
2.99993
2.99978
2.99956
2.99868
2.99743
2.99246
2.98502
2.95794
2.90836
2.76712
2.43675
1.75139
0.801189
0.402399
0.448721
0.470058
0.451411
0.420969
0.393115
0.377422
0.36926
0.367556
0.37662
3
2.99998
2.99994
2.9998
2.99961
2.99883
2.99773
2.9933
2.98669
2.96287
2.91734
2.79371
2.48143
1.86458
0.88403
0.46179
0.471146
0.484114
0.479364
0.459443
0.44092
0.432865
0.433842
0.446623
0.480632
3
2.99998
2.99995
2.99984
2.99968
2.99904
2.99808
2.99464
2.98845
2.96961
2.92531
2.8207
2.52559
1.97495
0.997874
0.535291
0.48789
0.500858
0.506511
0.49686
0.489778
0.491988
0.509035
0.551883
0.652855
3
2.99995
2.9999
2.99967
2.99936
2.99807
2.99623
2.98919
2.9774
2.93927
2.85213
2.65091
2.11533
1.2828
0.532249
0.271518
0.32672
0.343434
0.310676
0.255689
0.203404
0.161557
0.120691
0.0756435
0.0413807
3
2.99996
2.9999
2.99968
2.99937
2.9981
2.99628
2.98933
2.97773
2.94006
2.85429
2.65548
2.12721
1.29782
0.540248
0.272206
0.32863
0.346068
0.313526
0.259343
0.208347
0.167955
0.129265
0.0893389
0.0646577
3
2.99996
2.9999
2.99969
2.99938
2.99815
2.99639
2.98961
2.97839
2.94167
2.85881
2.66505
2.15305
1.33159
0.559054
0.27615
0.334721
0.353905
0.322216
0.270146
0.222063
0.18509
0.151254
0.119559
0.103061
3
2.99996
2.99991
2.9997
2.99941
2.99822
2.99653
2.99001
2.97936
2.94407
2.86569
2.67954
2.19298
1.385
0.58839
0.28405
0.345354
0.367283
0.337018
0.28791
0.243448
0.210595
0.182111
0.157253
0.145222
3
2.99996
2.99991
2.99971
2.99943
2.9983
2.9967
2.99031
2.98054
2.94635
2.87629
2.6988
2.24961
1.46092
0.629994
0.299886
0.362408
0.387155
0.358327
0.312542
0.271553
0.24262
0.218836
0.199171
0.190181
3
2.99996
2.99992
2.99973
2.99947
2.99841
2.99692
2.99095
2.98196
2.94973
2.88792
2.72152
2.31556
1.55654
0.682832
0.326695
0.387615
0.413797
0.38633
0.343803
0.30639
0.281161
0.261821
0.246869
0.240706
3
2.99997
2.99993
2.99975
2.99951
2.99854
2.99717
2.99171
2.98349
2.95381
2.89895
2.74429
2.38475
1.66001
0.744561
0.365706
0.421486
0.446004
0.420267
0.381493
0.347677
0.326307
0.311488
0.301842
0.300934
3
2.99997
2.99993
2.99978
2.99956
2.99868
2.99743
2.99246
2.98502
2.95794
2.90836
2.76712
2.43675
1.75139
0.801187
0.402398
0.448721
0.470058
0.451411
0.420969
0.393115
0.377422
0.369259
0.367556
0.37662
3
2.99998
2.99994
2.9998
2.99961
2.99883
2.99773
2.9933
2.98669
2.96287
2.91734
2.79371
2.48143
1.86457
0.884027
0.461789
0.471146
0.484115
0.479364
0.459443
0.44092
0.432865
0.433842
0.446622
0.480632
3
2.99998
2.99995
2.99984
2.99968
2.99904
2.99808
2.99464
2.98845
2.96961
2.92531
2.8207
2.52559
1.97494
0.997871
0.53529
0.487891
0.500859
0.506511
0.49686
0.489778
0.491988
0.509035
0.551883
0.652855
3
2.99995
2.9999
2.99967
2.99936
2.99807
2.99623
2.98919
2.9774
2.93927
2.85213
2.65091
2.11533
1.2828
0.532249
0.271518
0.32672
0.343434
0.310676
0.255689
0.203404
0.161557
0.120691
0.0756435
0.0413807
3
2.99996
2.9999
2.99968
2.99937
2.9981
2.99628
2.98933
2.97773
2.94006
2.85429
2.65548
2.12721
1.29781
0.540248
0.272206
0.32863
0.346068
0.313526
0.259343
0.208347
0.167955
0.129265
0.0893389
0.0646577
3
2.99996
2.9999
2.99969
2.99938
2.99815
2.99639
2.98961
2.97839
2.94167
2.85881
2.66505
2.15305
1.33159
0.559054
0.27615
0.334721
0.353905
0.322216
0.270146
0.222063
0.18509
0.151254
0.119559
0.103061
3
2.99996
2.99991
2.9997
2.99941
2.99822
2.99653
2.99001
2.97936
2.94407
2.86569
2.67954
2.19298
1.385
0.58839
0.28405
0.345354
0.367283
0.337018
0.28791
0.243447
0.210595
0.182111
0.157253
0.145222
3
2.99996
2.99991
2.99971
2.99943
2.9983
2.9967
2.99031
2.98054
2.94635
2.87629
2.6988
2.24961
1.46092
0.629993
0.299886
0.362408
0.387155
0.358327
0.312542
0.271553
0.24262
0.218836
0.199171
0.190181
3
2.99996
2.99992
2.99973
2.99947
2.99841
2.99692
2.99095
2.98196
2.94973
2.88792
2.72152
2.31556
1.55654
0.682832
0.326695
0.387615
0.413797
0.38633
0.343803
0.30639
0.281161
0.261821
0.246869
0.240706
3
2.99997
2.99993
2.99975
2.99951
2.99854
2.99717
2.99171
2.98349
2.95381
2.89895
2.74429
2.38475
1.66001
0.744561
0.365706
0.421486
0.446004
0.420267
0.381493
0.347677
0.326307
0.311488
0.301842
0.300934
3
2.99997
2.99993
2.99978
2.99956
2.99868
2.99743
2.99246
2.98502
2.95794
2.90836
2.76712
2.43675
1.75138
0.801187
0.402398
0.448721
0.470058
0.451411
0.420969
0.393115
0.377422
0.369259
0.367556
0.37662
3
2.99998
2.99994
2.9998
2.99961
2.99883
2.99773
2.9933
2.98669
2.96287
2.91734
2.79371
2.48143
1.86457
0.884027
0.461789
0.471146
0.484115
0.479365
0.459443
0.44092
0.432865
0.433842
0.446622
0.480632
3
2.99998
2.99995
2.99984
2.99968
2.99904
2.99808
2.99464
2.98845
2.96961
2.92531
2.8207
2.52559
1.97494
0.997871
0.53529
0.487891
0.500859
0.506511
0.49686
0.489778
0.491988
0.509035
0.551883
0.652855
3
2.99995
2.9999
2.99967
2.99936
2.99807
2.99623
2.98919
2.9774
2.93927
2.85213
2.65091
2.11533
1.28279
0.532249
0.271518
0.32672
0.343434
0.310676
0.255689
0.203404
0.161557
0.120691
0.0756435
0.0413807
3
2.99996
2.9999
2.99968
2.99937
2.9981
2.99628
2.98933
2.97773
2.94006
2.85429
2.65548
2.12721
1.29781
0.540248
0.272206
0.32863
0.346068
0.313526
0.259343
0.208347
0.167955
0.129265
0.0893389
0.0646577
3
2.99996
2.9999
2.99969
2.99938
2.99815
2.99639
2.98961
2.97839
2.94167
2.85881
2.66505
2.15305
1.33159
0.559054
0.27615
0.334721
0.353905
0.322216
0.270146
0.222063
0.18509
0.151254
0.119559
0.103061
3
2.99996
2.99991
2.9997
2.99941
2.99822
2.99653
2.99001
2.97936
2.94407
2.86569
2.67954
2.19298
1.385
0.58839
0.28405
0.345354
0.367283
0.337018
0.28791
0.243447
0.210595
0.182111
0.157253
0.145222
3
2.99996
2.99991
2.99971
2.99943
2.9983
2.9967
2.99031
2.98054
2.94635
2.87629
2.6988
2.2496
1.46092
0.629993
0.299886
0.362408
0.387155
0.358327
0.312542
0.271553
0.24262
0.218836
0.199171
0.190181
3
2.99996
2.99992
2.99973
2.99947
2.99841
2.99692
2.99095
2.98196
2.94973
2.88792
2.72152
2.31556
1.55654
0.682832
0.326695
0.387615
0.413797
0.38633
0.343803
0.30639
0.281161
0.261821
0.246869
0.240706
3
2.99997
2.99993
2.99975
2.99951
2.99854
2.99717
2.99171
2.98349
2.95381
2.89895
2.74429
2.38475
1.66001
0.744561
0.365706
0.421486
0.446004
0.420267
0.381493
0.347677
0.326307
0.311488
0.301842
0.300934
3
2.99997
2.99993
2.99978
2.99956
2.99868
2.99743
2.99246
2.98502
2.95794
2.90836
2.76712
2.43675
1.75138
0.801187
0.402398
0.448721
0.470058
0.451411
0.420969
0.393115
0.377421
0.369259
0.367556
0.37662
3
2.99998
2.99994
2.9998
2.99961
2.99883
2.99773
2.9933
2.98669
2.96287
2.91734
2.79371
2.48143
1.86457
0.884027
0.461789
0.471146
0.484115
0.479365
0.459443
0.44092
0.432865
0.433842
0.446622
0.480632
3
2.99998
2.99995
2.99984
2.99968
2.99904
2.99808
2.99464
2.98845
2.96961
2.92531
2.8207
2.52559
1.97494
0.997871
0.53529
0.487891
0.500859
0.506511
0.49686
0.489778
0.491988
0.509035
0.551883
0.652855
3
2.99995
2.9999
2.99967
2.99936
2.99807
2.99623
2.98919
2.9774
2.93927
2.85213
2.65091
2.11533
1.2828
0.532249
0.271518
0.32672
0.343434
0.310676
0.255689
0.203404
0.161557
0.120691
0.0756435
0.0413807
3
2.99996
2.9999
2.99968
2.99937
2.9981
2.99628
2.98933
2.97773
2.94006
2.85429
2.65548
2.12721
1.29781
0.540248
0.272206
0.32863
0.346068
0.313526
0.259343
0.208347
0.167955
0.129265
0.0893389
0.0646577
3
2.99996
2.9999
2.99969
2.99938
2.99815
2.99639
2.98961
2.97839
2.94167
2.85881
2.66505
2.15305
1.33159
0.559054
0.27615
0.334721
0.353905
0.322216
0.270146
0.222063
0.18509
0.151254
0.119559
0.103061
3
2.99996
2.99991
2.9997
2.99941
2.99822
2.99653
2.99001
2.97936
2.94407
2.86569
2.67954
2.19298
1.385
0.58839
0.28405
0.345354
0.367283
0.337018
0.28791
0.243447
0.210595
0.182111
0.157253
0.145222
3
2.99996
2.99991
2.99971
2.99943
2.9983
2.9967
2.99031
2.98054
2.94635
2.87629
2.6988
2.24961
1.46092
0.629993
0.299886
0.362408
0.387155
0.358327
0.312542
0.271553
0.24262
0.218836
0.199171
0.190181
3
2.99996
2.99992
2.99973
2.99947
2.99841
2.99692
2.99095
2.98196
2.94973
2.88792
2.72152
2.31556
1.55654
0.682832
0.326695
0.387615
0.413797
0.38633
0.343803
0.30639
0.281161
0.261821
0.246869
0.240706
3
2.99997
2.99993
2.99975
2.99951
2.99854
2.99717
2.99171
2.98349
2.95381
2.89895
2.74429
2.38475
1.66001
0.744561
0.365706
0.421486
0.446004
0.420267
0.381493
0.347677
0.326307
0.311488
0.301842
0.300934
3
2.99997
2.99993
2.99978
2.99956
2.99868
2.99743
2.99246
2.98502
2.95794
2.90836
2.76712
2.43675
1.75138
0.801187
0.402398
0.448721
0.470058
0.451411
0.420969
0.393115
0.377422
0.369259
0.367556
0.37662
3
2.99998
2.99994
2.9998
2.99961
2.99883
2.99773
2.9933
2.98669
2.96287
2.91734
2.79371
2.48143
1.86457
0.884027
0.461789
0.471146
0.484115
0.479365
0.459443
0.44092
0.432865
0.433842
0.446622
0.480632
3
2.99998
2.99995
2.99984
2.99968
2.99904
2.99808
2.99464
2.98845
2.96961
2.92531
2.8207
2.52559
1.97494
0.997871
0.53529
0.487891
0.500859
0.506511
0.49686
0.489778
0.491988
0.509035
0.551883
0.652855
3
2.99995
2.9999
2.99967
2.99936
2.99807
2.99623
2.98919
2.9774
2.93927
2.85213
2.65091
2.11533
1.2828
0.532249
0.271518
0.32672
0.343434
0.310676
0.255689
0.203404
0.161557
0.120691
0.0756435
0.0413807
3
2.99996
2.9999
2.99968
2.99937
2.9981
2.99628
2.98933
2.97773
2.94006
2.85429
2.65548
2.12721
1.29782
0.540248
0.272206
0.32863
0.346068
0.313526
0.259343
0.208347
0.167955
0.129265
0.0893389
0.0646577
3
2.99996
2.9999
2.99969
2.99938
2.99815
2.99639
2.98961
2.97839
2.94167
2.85881
2.66505
2.15305
1.33159
0.559054
0.27615
0.334721
0.353905
0.322216
0.270146
0.222063
0.18509
0.151254
0.119559
0.103061
3
2.99996
2.99991
2.9997
2.99941
2.99822
2.99653
2.99001
2.97936
2.94407
2.86569
2.67954
2.19298
1.385
0.58839
0.28405
0.345354
0.367283
0.337018
0.28791
0.243447
0.210595
0.182111
0.157253
0.145222
3
2.99996
2.99991
2.99971
2.99943
2.9983
2.9967
2.99031
2.98054
2.94635
2.87629
2.6988
2.24961
1.46092
0.629993
0.299886
0.362408
0.387155
0.358327
0.312542
0.271553
0.24262
0.218836
0.199171
0.190181
3
2.99996
2.99992
2.99973
2.99947
2.99841
2.99692
2.99095
2.98196
2.94973
2.88792
2.72152
2.31556
1.55654
0.682832
0.326695
0.387615
0.413797
0.38633
0.343803
0.30639
0.281161
0.261821
0.246869
0.240706
3
2.99997
2.99993
2.99975
2.99951
2.99854
2.99717
2.99171
2.98349
2.95381
2.89895
2.74429
2.38475
1.66001
0.744561
0.365706
0.421486
0.446004
0.420267
0.381493
0.347677
0.326307
0.311488
0.301842
0.300934
3
2.99997
2.99993
2.99978
2.99956
2.99868
2.99743
2.99246
2.98502
2.95794
2.90836
2.76712
2.43675
1.75138
0.801187
0.402398
0.448721
0.470058
0.451411
0.420969
0.393115
0.377422
0.369259
0.367556
0.37662
3
2.99998
2.99994
2.9998
2.99961
2.99883
2.99773
2.9933
2.98669
2.96287
2.91734
2.79371
2.48143
1.86457
0.884027
0.461789
0.471146
0.484115
0.479365
0.459443
0.44092
0.432865
0.433842
0.446622
0.480632
3
2.99998
2.99995
2.99984
2.99968
2.99904
2.99808
2.99464
2.98845
2.96961
2.92531
2.8207
2.52559
1.97494
0.997871
0.53529
0.487891
0.500859
0.506511
0.49686
0.489778
0.491988
0.509035
0.551883
0.652855
3
2.99995
2.9999
2.99967
2.99936
2.99807
2.99623
2.98919
2.9774
2.93927
2.85213
2.65091
2.11533
1.2828
0.532249
0.271518
0.32672
0.343434
0.310676
0.255689
0.203404
0.161557
0.120691
0.0756435
0.0413807
3
2.99996
2.9999
2.99968
2.99937
2.9981
2.99628
2.98933
2.97773
2.94006
2.85429
2.65548
2.12721
1.29782
0.540248
0.272206
0.32863
0.346068
0.313526
0.259343
0.208347
0.167955
0.129265
0.0893389
0.0646577
3
2.99996
2.9999
2.99969
2.99938
2.99815
2.99639
2.98961
2.97839
2.94167
2.85881
2.66505
2.15305
1.33159
0.559054
0.27615
0.334721
0.353905
0.322216
0.270146
0.222063
0.18509
0.151254
0.119559
0.103061
3
2.99996
2.99991
2.9997
2.99941
2.99822
2.99653
2.99001
2.97936
2.94407
2.86569
2.67954
2.19298
1.385
0.58839
0.28405
0.345354
0.367283
0.337018
0.28791
0.243448
0.210595
0.182111
0.157253
0.145222
3
2.99996
2.99991
2.99971
2.99943
2.9983
2.9967
2.99031
2.98054
2.94635
2.87629
2.6988
2.24961
1.46092
0.629994
0.299886
0.362408
0.387155
0.358327
0.312542
0.271553
0.24262
0.218836
0.199171
0.190181
3
2.99996
2.99992
2.99973
2.99947
2.99841
2.99692
2.99095
2.98196
2.94973
2.88792
2.72152
2.31556
1.55654
0.682832
0.326695
0.387615
0.413797
0.38633
0.343803
0.30639
0.281161
0.261821
0.246869
0.240706
3
2.99997
2.99993
2.99975
2.99951
2.99854
2.99717
2.99171
2.98349
2.95381
2.89895
2.74429
2.38475
1.66001
0.744561
0.365706
0.421486
0.446004
0.420267
0.381493
0.347677
0.326307
0.311488
0.301842
0.300934
3
2.99997
2.99993
2.99978
2.99956
2.99868
2.99743
2.99246
2.98502
2.95794
2.90836
2.76712
2.43675
1.75139
0.801187
0.402398
0.448721
0.470058
0.451411
0.420969
0.393115
0.377422
0.369259
0.367556
0.37662
3
2.99998
2.99994
2.9998
2.99961
2.99883
2.99773
2.9933
2.98669
2.96287
2.91734
2.79371
2.48143
1.86457
0.884027
0.461789
0.471146
0.484115
0.479364
0.459443
0.44092
0.432865
0.433842
0.446622
0.480632
3
2.99998
2.99995
2.99984
2.99968
2.99904
2.99808
2.99464
2.98845
2.96961
2.92531
2.8207
2.52559
1.97494
0.997871
0.53529
0.487891
0.500859
0.506511
0.49686
0.489778
0.491988
0.509035
0.551883
0.652855
3
2.99995
2.9999
2.99967
2.99936
2.99807
2.99623
2.98919
2.9774
2.93927
2.85213
2.65091
2.11533
1.2828
0.53225
0.271516
0.32672
0.343434
0.310676
0.255689
0.203404
0.161557
0.120691
0.0756435
0.0413806
3
2.99996
2.9999
2.99968
2.99937
2.9981
2.99628
2.98933
2.97773
2.94006
2.85429
2.65548
2.12721
1.29782
0.54025
0.272205
0.328629
0.346068
0.313526
0.259342
0.208347
0.167955
0.129265
0.0893388
0.0646576
3
2.99996
2.9999
2.99969
2.99938
2.99815
2.99639
2.98961
2.97839
2.94167
2.85881
2.66505
2.15305
1.33159
0.559055
0.276149
0.334721
0.353905
0.322216
0.270146
0.222063
0.18509
0.151254
0.119559
0.103061
3
2.99996
2.99991
2.9997
2.99941
2.99822
2.99653
2.99001
2.97936
2.94407
2.86569
2.67954
2.19299
1.38501
0.588392
0.28405
0.345354
0.367283
0.337018
0.28791
0.243447
0.210595
0.182111
0.157253
0.145221
3
2.99996
2.99991
2.99971
2.99943
2.9983
2.9967
2.99031
2.98054
2.94635
2.87629
2.6988
2.24961
1.46093
0.629996
0.299885
0.362408
0.387156
0.358327
0.312542
0.271553
0.24262
0.218836
0.199171
0.190181
3
2.99996
2.99992
2.99973
2.99947
2.99841
2.99692
2.99095
2.98196
2.94973
2.88792
2.72152
2.31556
1.55654
0.682834
0.326695
0.387615
0.413798
0.386331
0.343803
0.306391
0.281161
0.261821
0.246869
0.240706
3
2.99997
2.99993
2.99975
2.99951
2.99854
2.99717
2.99171
2.98349
2.95381
2.89895
2.74429
2.38475
1.66001
0.744563
0.365706
0.421486
0.446005
0.420267
0.381493
0.347678
0.326307
0.311488
0.301842
0.300934
3
2.99997
2.99993
2.99978
2.99956
2.99868
2.99743
2.99246
2.98502
2.95794
2.90836
2.76712
2.43675
1.75139
0.801189
0.402399
0.448721
0.470058
0.451411
0.420969
0.393115
0.377422
0.36926
0.367556
0.37662
3
2.99998
2.99994
2.9998
2.99961
2.99883
2.99773
2.9933
2.98669
2.96287
2.91734
2.79371
2.48143
1.86458
0.88403
0.46179
0.471146
0.484114
0.479364
0.459443
0.44092
0.432865
0.433842
0.446623
0.480632
3
2.99998
2.99995
2.99984
2.99968
2.99904
2.99808
2.99464
2.98845
2.96961
2.92531
2.8207
2.52559
1.97495
0.997874
0.535291
0.48789
0.500858
0.506511
0.49686
0.489778
0.491988
0.509035
0.551883
0.652855
3.00002
2.99997
2.99992
2.99969
2.99938
2.99809
2.99625
2.98922
2.97743
2.9393
2.85217
2.65098
2.11541
1.28293
0.532385
0.271731
0.326912
0.343624
0.310888
0.255948
0.203733
0.161975
0.121255
0.0765527
0.0430435
3.00002
2.99997
2.99992
2.9997
2.99938
2.99812
2.9963
2.98935
2.97775
2.94009
2.85433
2.65555
2.12728
1.29795
0.540381
0.272419
0.32882
0.346257
0.313736
0.259597
0.208665
0.168353
0.129787
0.0901007
0.0657198
3.00002
2.99997
2.99992
2.9997
2.9994
2.99817
2.99641
2.98963
2.97841
2.9417
2.85885
2.66511
2.15312
1.33172
0.559185
0.276366
0.334913
0.354092
0.322421
0.270391
0.222362
0.18545
0.151697
0.120124
0.103723
3.00002
2.99998
2.99992
2.99972
2.99943
2.99824
2.99655
2.99004
2.97938
2.94412
2.8657
2.67959
2.19299
1.3851
0.588489
0.284238
0.345523
0.367448
0.337202
0.288129
0.243712
0.210906
0.182475
0.157677
0.145687
3.00002
2.99998
2.99993
2.99973
2.99945
2.99832
2.99672
2.99034
2.98056
2.94639
2.87631
2.69886
2.24963
1.46101
0.630085
0.300065
0.362563
0.387303
0.35849
0.312733
0.271781
0.242882
0.219132
0.199501
0.190532
3.00002
2.99998
2.99994
2.99975
2.99949
2.99843
2.99694
2.99097
2.98198
2.94975
2.88795
2.72157
2.3156
1.55664
0.682926
0.326872
0.387765
0.413936
0.386478
0.343972
0.306585
0.281379
0.262061
0.24713
0.240979
3.00002
2.99998
2.99994
2.99977
2.99953
2.99856
2.99719
2.99173
2.98351
2.95384
2.89898
2.74433
2.38479
1.66008
0.74465
0.365869
0.421622
0.446129
0.420399
0.381641
0.347844
0.326488
0.311683
0.30205
0.301148
3.00002
2.99999
2.99995
2.9998
2.99958
2.9987
2.99745
2.99248
2.98505
2.95797
2.90839
2.76717
2.43679
1.75147
0.801279
0.402555
0.448847
0.470174
0.451533
0.4211
0.393257
0.377573
0.369417
0.36772
0.376784
3.00002
2.99999
2.99996
2.99982
2.99963
2.99885
2.99775
2.99332
2.98671
2.9629
2.91736
2.79376
2.48143
1.86465
0.884105
0.461925
0.471258
0.484223
0.479476
0.45956
0.441043
0.432991
0.433971
0.44675
0.480753
3.00002
3
2.99997
2.99986
2.99969
2.99906
2.9981
2.99466
2.98848
2.96964
2.92534
2.82074
2.52562
1.97502
0.99795
0.535411
0.487998
0.500962
0.506615
0.496967
0.489886
0.492094
0.509138
0.551979
0.652936
3.00002
3.00001
2.99996
2.9999
2.99966
2.9993
2.99791
2.99579
2.98821
2.97441
2.93283
2.83313
2.61245
2.03496
1.17823
0.625693
0.51159
0.524392
0.536354
0.535416
0.537645
0.552576
0.591942
0.677125
0.856782
3.00002
3.00001
2.99997
2.99992
2.9997
2.9994
2.99816
2.99639
2.98961
2.97834
2.94169
2.85876
2.66569
2.15755
1.34796
0.718717
0.536198
0.550693
0.568187
0.575418
0.586137
0.61373
0.671091
0.776859
0.967057
3.00002
3.00001
2.99998
2.99993
2.99974
2.99948
2.9984
2.99689
2.99081
2.98168
2.949
2.88558
2.71808
2.30449
1.55256
0.828689
0.575278
0.587257
0.604116
0.616831
0.633644
0.669219
0.735112
0.840209
1.00439
3.00002
3.00001
2.99999
2.99995
2.99979
2.99957
2.99869
2.99743
2.99243
2.98498
2.9578
2.90912
2.76669
2.4531
1.77463
0.951776
0.634302
0.635189
0.647941
0.663664
0.683169
0.721012
0.785301
0.879711
1.01741
3.00002
3.00002
2.99999
2.99996
2.99984
2.99966
2.99896
2.99795
2.99401
2.98794
2.9669
2.92513
2.81454
2.53596
1.96869
1.07791
0.702594
0.674602
0.68765
0.704752
0.727389
0.764815
0.827513
0.9104
1.02589
3.00002
3.00002
3.00001
2.99997
2.99991
2.99968
2.99934
2.99805
2.99607
2.98916
2.97622
2.93851
2.84631
2.64472
2.10267
1.29556
0.808627
0.709833
0.721164
0.739496
0.765834
0.801962
0.858558
0.935599
1.03371
3.00002
3.00002
3.00001
2.99998
2.99993
2.99974
2.99946
2.99836
2.99681
2.9906
2.98124
2.94827
2.88222
2.71349
2.29162
1.54618
0.931651
0.747342
0.750695
0.769921
0.80128
0.837379
0.886821
0.955095
1.04075
3.00002
3.00002
3.00001
2.99999
2.99995
2.9998
2.99959
2.99876
2.99755
2.99285
2.98567
2.9602
2.91356
2.77925
2.4846
1.83224
1.09062
0.810546
0.792795
0.80592
0.833271
0.870489
0.916231
0.975729
1.0499
3.00002
3.00002
3.00002
3
2.99996
2.99989
2.99963
2.99925
2.99779
2.9956
2.98766
2.97388
2.93114
2.83279
2.61381
2.06233
1.27142
0.88561
0.832818
0.844004
0.866792
0.900622
0.941878
0.994166
1.05901
3.00003
3.00002
3.00002
3.00001
2.99998
2.99993
2.99973
2.99945
2.99833
2.9967
2.99062
2.98042
2.94767
2.87437
2.70212
2.25981
1.51274
1.0026
0.872443
0.875038
0.895962
0.929254
0.968455
1.01419
1.07023
3.00003
3.00003
3.00002
3.00001
3
2.99994
2.99985
2.99952
2.99904
2.99721
2.9943
2.98457
2.96507
2.91227
2.77791
2.50256
1.8481
1.18676
0.937268
0.915205
0.927067
0.95511
0.992707
1.03466
1.08294
3.00003
3.00003
3.00002
3.00002
3.00001
2.99996
2.9999
2.99965
2.9993
2.99791
2.99587
2.98831
2.97556
2.93536
2.84418
2.6401
2.11952
1.37559
1.0148
0.954683
0.962114
0.984268
1.01776
1.05633
1.09987
3.00003
3.00003
3.00003
3.00002
3.00001
2.99999
2.99992
2.99982
2.99942
2.99882
2.99669
2.99296
2.98143
2.95576
2.89188
2.72171
2.38651
1.63848
1.15268
1.00253
0.995962
1.00943
1.03793
1.07514
1.11522
3.00003
3.00003
3.00003
3.00002
3.00001
3
2.99995
2.99987
2.99957
2.99915
2.99747
2.99505
2.98577
2.97108
2.92304
2.82245
2.57806
2.04422
1.34259
1.07781
1.0388
1.04374
1.0641
1.09625
1.1331
3.00003
3.00003
3.00003
3.00002
3.00002
3.00001
2.99998
2.9999
2.99978
2.9993
2.99861
2.99598
2.99189
2.97797
2.95119
2.8776
2.69677
2.32185
1.58907
1.1862
1.07859
1.07431
1.08697
1.1138
1.14962
3.00003
3.00003
3.00003
3.00003
3.00002
3.00001
3
2.99994
2.99986
2.99953
2.99907
2.99725
2.99461
2.98483
2.96864
2.91822
2.806
2.55813
1.9873
1.37397
1.14283
1.11253
1.11682
1.13681
1.167
3.00003
3.00003
3.00003
3.00003
3.00002
3.00002
3
2.99998
2.99989
2.99975
2.99925
2.99849
2.99567
2.99131
2.97613
2.94852
2.871
2.68996
2.28975
1.59195
1.23476
1.14915
1.14552
1.15781
1.18229
3.00003
3.00003
3.00003
3.00003
3.00003
3.00002
3.00001
3
2.99994
2.99985
2.99951
2.99903
2.99716
2.99443
2.98445
2.96765
2.91609
2.79937
2.54919
1.96487
1.41244
1.20741
1.17987
1.18406
1.20308
3.00003
3.00003
3.00003
3.00003
3.00003
3.00002
3.00002
3
2.99998
2.99989
2.99975
2.99924
2.99847
2.99566
2.99118
2.97612
2.94823
2.86971
2.69642
2.28171
1.64025
1.30554
1.22073
1.21362
1.22305
3.00003
3.00003
3.00003
3.00003
3.00003
3.00003
3.00002
3.00002
2.99999
2.99995
2.99981
2.99961
2.99884
2.99768
2.99347
2.98676
2.96452
2.92242
2.80868
2.55722
2.00531
1.46951
1.27644
1.24716
1.24971
3.00003
3.00003
3.00003
3.00003
3.00003
3.00003
3.00002
3.00002
3
2.99998
2.99989
2.99976
2.99926
2.99854
2.99581
2.99171
2.97715
2.95196
2.8785
2.71763
2.34637
1.71425
1.37506
1.28569
1.27695
3.00003
3.00003
3.00003
3.00003
3.00003
3.00003
3.00003
3.00002
3.00002
2.99999
2.99996
2.99983
2.99964
2.99894
2.99788
2.99405
2.98795
2.96785
2.93042
2.82663
2.60874
2.09637
1.55536
1.34355
1.31062
3.00003
3.00003
3.00003
3.00003
3.00003
3.00003
3.00003
3.00003
3.00002
3.00001
2.99999
2.9999
2.99979
2.99934
2.99869
2.99623
2.99261
2.97955
2.95748
2.89232
2.7492
2.42887
1.81395
1.44881
1.34558
3.00003
3.00003
3.00003
3.00003
3.00003
3.00003
3.00003
3.00003
3.00002
3.00002
3
2.99995
2.99988
2.99961
2.99922
2.99775
2.9956
2.98768
2.9752
2.93486
2.85583
2.65863
2.22848
1.65397
1.41814
3.00003
3.00003
3.00003
3.00003
3.00003
3.00003
3.00003
3.00003
3.00003
3.00002
3.00001
2.99998
2.99994
2.99978
2.99954
2.99865
2.99736
2.99254
2.98516
2.96007
2.91329
2.79104
2.50454
1.94965
1.55034
3.00003
3.00003
3.00003
3.00003
3.00003
3.00003
3.00003
3.00003
3.00003
3.00003
3.00002
3.00001
2.99997
2.99991
2.99969
2.99937
2.99819
2.9964
2.99017
2.97957
2.94738
2.87724
2.71982
2.33397
1.76872
3.00003
3.00003
3.00003
3.00003
3.00003
3.00003
3.00003
3.00003
3.00003
3.00003
3.00002
3.00001
3
2.99995
2.99987
2.99958
2.99914
2.99757
2.99512
2.98686
2.97243
2.93013
2.83677
2.63368
2.17
3.00003
3.00003
3.00003
3.00003
3.00003
3.00003
3.00003
3.00003
3.00003
3.00003
3.00003
3.00002
3.00001
2.99999
2.99991
2.9998
2.9994
2.9988
2.99662
2.99322
2.98187
2.96141
2.90501
2.78027
2.49445
3.00003
3.00003
3.00003
3.00003
3.00003
3.00003
3.00003
3.00003
3.00003
3.00003
3.00003
3.00002
3.00002
3.00001
2.99996
2.9999
2.99967
2.99933
2.99806
2.9962
2.98947
2.97882
2.94479
2.87792
2.71452
3.00003
3.00003
3.00003
3.00003
3.00003
3.00003
3.00003
3.00003
3.00003
3.00003
3.00003
3.00003
3.00002
3.00001
3
2.99994
2.99986
2.99957
2.99912
2.99754
2.9951
2.98678
2.97263
2.93074
2.84084
3.00003
3.00003
3.00003
3.00003
3.00003
3.00003
3.00003
3.00003
3.00003
3.00003
3.00003
3.00003
3.00003
3.00002
3.00001
2.99999
2.99992
2.99981
2.99942
2.99883
2.99675
2.99344
2.98265
2.96308
2.90834
3.00003
3.00003
3.00003
3.00003
3.00003
3.00003
3.00003
3.00003
3.00003
3.00003
3.00003
3.00003
3.00003
3.00002
3.00002
3
2.99998
2.99988
2.99974
2.99924
2.99848
2.99583
2.99154
2.97777
2.95285
3.00003
3.00003
3.00003
3.00003
3.00003
3.00003
3.00003
3.00003
3.00003
3.00003
3.00003
3.00003
3.00003
3.00003
3.00002
3.00001
3
2.99995
2.99987
2.9996
2.9992
2.99775
2.99554
2.98803
2.97541
3.00003
3.00003
3.00003
3.00003
3.00003
3.00003
3.00003
3.00003
3.00003
3.00003
3.00003
3.00003
3.00003
3.00003
3.00003
3.00002
3.00001
2.99999
2.99993
2.99983
2.9995
2.99898
2.99718
2.99435
2.98492
3.00003
3.00003
3.00003
3.00003
3.00003
3.00003
3.00003
3.00003
3.00003
3.00003
3.00003
3.00003
3.00003
3.00003
3.00003
3.00002
3.00002
3.00001
2.99998
2.9999
2.99977
2.99934
2.99866
2.99633
2.99257
3.00003
3.00003
3.00003
3.00003
3.00003
3.00003
3.00003
3.00003
3.00003
3.00003
3.00003
3.00003
3.00003
3.00003
3.00003
3.00003
3.00002
3.00002
3
2.99996
2.99985
2.99968
2.99907
2.99814
2.99491
3.00003
3.00003
3.00003
3.00003
3.00003
3.00003
3.00003
3.00003
3.00003
3.00003
3.00003
3.00003
3.00003
3.00003
3.00003
3.00003
3.00003
3.00002
3.00001
2.99997
2.99992
2.99973
2.99944
2.99837
2.99679
3.00003
3.00003
3.00003
3.00003
3.00003
3.00003
3.00003
3.00003
3.00003
3.00003
3.00003
3.00003
3.00003
3.00003
3.00003
3.00003
3.00003
3.00002
3.00001
2.99999
2.99994
2.99978
2.99954
2.99862
2.99728
3.00003
3.00003
3.00003
3.00003
3.00003
3.00003
3.00003
3.00003
3.00003
3.00003
3.00003
3.00003
3.00003
3.00003
3.00003
3.00003
3.00003
3.00002
3.00001
3
2.99993
2.99984
2.99948
2.99897
2.99695
3.00003
3.00003
3.00003
3.00003
3.00003
3.00003
3.00003
3.00003
3.00003
3.00003
3.00003
3.00003
3.00003
3.00003
3.00003
3.00003
3.00003
3.00002
3.00001
3
2.99993
2.99985
2.99949
2.99899
2.99695
3
2.99999
2.99994
2.99988
2.99964
2.99928
2.99789
2.99577
2.98818
2.97439
2.93279
2.8331
2.61239
2.03491
1.17813
0.625586
0.511486
0.524292
0.536257
0.535319
0.53755
0.552485
0.591858
0.677055
0.856736
3
2.99999
2.99995
2.9999
2.99968
2.99938
2.99814
2.99637
2.98958
2.97831
2.94165
2.85872
2.66563
2.1575
1.34786
0.718622
0.536096
0.550594
0.568093
0.575329
0.586052
0.613651
0.671021
0.776802
0.967019
3
2.99999
2.99996
2.99991
2.99972
2.99946
2.99838
2.99687
2.99079
2.98166
2.94896
2.88556
2.71803
2.30445
1.55247
0.82861
0.57518
0.587161
0.604028
0.616747
0.633566
0.669148
0.735051
0.84016
1.00436
3
3
2.99997
2.99993
2.99977
2.99955
2.99867
2.99741
2.99241
2.98496
2.95778
2.90909
2.76665
2.45306
1.77456
0.951709
0.634212
0.635104
0.647861
0.663588
0.683098
0.720946
0.785243
0.879664
1.01737
3
3
2.99998
2.99994
2.99982
2.99964
2.99894