/*--------------------------------*- C++ -*----------------------------------*\
| =========                 |                                                 |
| \\      /  F ield         | OpenFOAM: The Open Source CFD Toolbox           |
|  \\    /   O peration     | Version:  4.1                                   |
|   \\  /    A nd           | Web:      www.OpenFOAM.org                      |
|    \\/     M anipulation  |                                                 |
\*---------------------------------------------------------------------------*/
FoamFile
{
    version     2.0;
    format      ascii;
    class       surfaceScalarField;
    location    "3.18";
    object      phi;
}
// * * * * * * * * * * * * * * * * * * * * * * * * * * * * * * * * * * * * * //

dimensions      [1 0 -1 0 0 0 0];

internalField   nonuniform List<scalar> 
150500
(
0.0168001
1.73511e-10
-3.37927e-12
0.0168001
9.59405e-10
-1.1648e-11
0.0168001
3.58259e-09
-1.34654e-11
0.0168
9.15917e-09
-2.16944e-11
0.0168
2.54486e-08
-2.13315e-11
0.0168
5.79705e-08
-2.92076e-11
0.0167998
1.55455e-07
-2.919e-11
0.0167994
3.36078e-07
-4.01598e-11
0.0167983
9.74005e-07
-4.1732e-11
0.0167963
2.01233e-06
-7.6904e-11
0.0167888
6.63039e-06
-9.43982e-11
0.0167735
1.49896e-05
-2.28356e-10
0.0167057
6.48769e-05
-2.77321e-10
0.0165186
0.000182539
-1.12392e-09
0.0154181
0.00107687
-2.38597e-09
0.0141273
0.00129915
4.9295e-10
0.0128807
0.00124938
-7.00905e-11
0.0115874
0.00129487
-3.95581e-10
0.0102282
0.00135988
-4.00907e-10
0.00878818
0.00144492
-3.72881e-10
0.00724144
0.00154829
-3.27074e-10
0.00558981
0.00165569
-3.04532e-10
0.00383472
0.00175832
-2.86648e-10
0.00197065
0.00186113
-2.76724e-10
0.00197033
-2.66015e-10
0.0168001
3.43732e-10
-3.37214e-12
0.0168001
1.89045e-09
-1.16484e-11
0.0168001
7.07206e-09
-1.34726e-11
0.0168
1.80223e-08
-2.16678e-11
0.0168
5.0295e-08
-2.13747e-11
0.0168
1.14336e-07
-2.91829e-11
0.0167998
3.0913e-07
-2.92218e-11
0.0167994
6.64391e-07
-4.01035e-11
0.0167983
1.96053e-06
-4.18213e-11
0.0167963
4.01095e-06
-7.65632e-11
0.0167886
1.34784e-05
-9.36924e-11
0.0167729
3.02751e-05
-2.24962e-10
0.016703
0.000131892
-2.6854e-10
0.0165114
0.00036967
-1.08631e-09
0.0154238
0.00214058
-2.32099e-09
0.0141017
0.00262975
4.706e-10
0.01287
0.00248387
-8.30817e-11
0.0115962
0.00257017
-4.03118e-10
0.010247
0.00270979
-4.08077e-10
0.00879435
0.00290247
-3.77921e-10
0.00722848
0.00311568
-3.303e-10
0.00556018
0.00332816
-3.08067e-10
0.00378489
0.00353673
-2.87933e-10
0.00191198
0.00373128
-2.76023e-10
0.00388208
-2.64029e-10
0.0168001
4.88088e-10
-3.35982e-12
0.0168001
2.67213e-09
-1.16451e-11
0.0168001
1.00038e-08
-1.34948e-11
0.0168
2.53926e-08
-2.15941e-11
0.0168
7.11302e-08
-2.14789e-11
0.0168
1.61057e-07
-2.90866e-11
0.0167998
4.39836e-07
-2.92248e-11
0.0167995
9.30261e-07
-3.96149e-11
0.0167985
2.8261e-06
-4.17722e-11
0.0167969
5.62207e-06
-7.3542e-11
0.0167896
1.99619e-05
-8.94128e-11
0.0167749
4.45884e-05
-2.14031e-10
0.0167083
0.000195563
-2.46749e-10
0.0165276
0.000545927
-1.01801e-09
0.0155314
0.0031126
-2.25822e-09
0.014182
0.00398778
3.52039e-10
0.0129485
0.00372022
-1.31935e-10
0.0116861
0.00383413
-4.06322e-10
0.0103487
0.00404806
-4.08249e-10
0.00889576
0.00436005
-3.75217e-10
0.00732374
0.00468932
-3.30664e-10
0.00563819
0.00501804
-3.12155e-10
0.00383496
0.00534285
-2.91734e-10
0.00193675
0.00562665
-2.78987e-10
0.00581864
-2.64874e-10
0.0168001
5.58508e-10
-3.34432e-12
0.0168001
3.11013e-09
-1.1651e-11
0.0168001
1.16299e-08
-1.35691e-11
0.0168001
2.96444e-08
-2.15728e-11
0.0168
8.21686e-08
-2.19445e-11
0.0168
1.84264e-07
-2.96749e-11
0.0167999
5.14344e-07
-3.0789e-11
0.0167999
9.77135e-07
-4.66634e-11
0.0167989
3.69924e-06
-3.88456e-11
0.0167993
5.2895e-06
-1.32188e-10
0.0167893
2.89769e-05
1.74741e-11
0.0167818
5.22607e-05
-3.51637e-10
0.016718
0.000256462
1.40928e-11
0.016568
0.000692056
-8.71022e-10
0.0157633
0.00389264
-1.87666e-09
0.0143964
0.00536347
1.21651e-10
0.0131507
0.00496914
-3.28845e-10
0.0118902
0.0050963
-4.47179e-10
0.0105613
0.00537794
-4.2183e-10
0.00911242
0.0058136
-3.73085e-10
0.00753614
0.00626745
-3.50708e-10
0.00583886
0.0067194
-3.37732e-10
0.00400106
0.00718371
-3.14291e-10
0.00202417
0.00760084
-2.99217e-10
0.00784259
-2.83212e-10
0.0168001
7.64201e-10
-3.33616e-12
0.0168001
4.2058e-09
-1.15958e-11
0.0168001
1.56531e-08
-1.3603e-11
0.0168
3.99811e-08
-2.13595e-11
0.0168
1.10764e-07
-2.18236e-11
0.0167999
2.52198e-07
-2.89357e-11
0.0167998
6.74933e-07
-2.95263e-11
0.0167993
1.44102e-06
-4.16625e-11
0.0167985
4.39319e-06
-3.71261e-11
0.0167962
7.55674e-06
-1.05947e-10
0.0167917
3.26275e-05
6.996e-13
0.0167809
6.30668e-05
-2.81995e-10
0.0167479
0.000286544
-2.07748e-11
0.016657
0.000779527
-7.44147e-10
0.0162394
0.00428581
-1.59828e-09
0.0148531
0.00675767
-8.67589e-11
0.0135424
0.00628374
-4.27527e-10
0.0122574
0.00638327
-4.36279e-10
0.0109316
0.00670489
-4.01473e-10
0.00948279
0.00726678
-3.48056e-10
0.00789317
0.00785866
-3.56666e-10
0.00615934
0.00845764
-3.56814e-10
0.00426214
0.00908451
-3.3809e-10
0.0021953
0.00966493
-3.27301e-10
0.0100376
-3.14024e-10
0.0168001
8.84724e-10
-3.30533e-12
0.0168001
4.87339e-09
-1.15834e-11
0.0168001
1.81655e-08
-1.35569e-11
0.0168
4.64993e-08
-2.12509e-11
0.0168
1.28742e-07
-2.1528e-11
0.0168
2.9431e-07
-2.8259e-11
0.0167999
7.76234e-07
-2.81519e-11
0.0167996
1.71919e-06
-3.6059e-11
0.0167991
4.71593e-06
-3.76402e-11
0.0167969
9.78911e-06
-6.67051e-11
0.016796
3.28217e-05
-4.18986e-11
0.0167929
6.60007e-05
-2.01112e-10
0.01679
0.00028676
-1.06202e-10
0.0167981
0.00076841
-6.63596e-10
0.0170267
0.00403438
-1.48491e-09
0.0156145
0.00817449
-2.58848e-10
0.0141403
0.00776069
-4.10035e-10
0.0127997
0.0077265
-3.69578e-10
0.01146
0.00804633
-3.48861e-10
0.0100297
0.00870142
-3.22472e-10
0.00842383
0.00946706
-3.49913e-10
0.00665201
0.0102336
-3.60232e-10
0.00467096
0.011069
-3.49755e-10
0.00243427
0.0118993
-3.51053e-10
0.0124714
-3.49217e-10
0.0168001
9.43079e-10
-3.27102e-12
0.0168001
5.21753e-09
-1.15867e-11
0.0168001
1.9427e-08
-1.35375e-11
0.0168001
4.98554e-08
-2.12199e-11
0.0168
1.37165e-07
-2.14334e-11
0.0168
3.13831e-07
-2.80877e-11
0.0168
8.18097e-07
-2.76777e-11
0.0167999
1.82078e-06
-3.51126e-11
0.0167997
4.80092e-06
-3.65936e-11
0.0167989
1.05424e-05
-5.23391e-11
0.016801
3.01562e-05
-5.3044e-11
0.0167978
6.9026e-05
-1.53065e-10
0.0168408
0.000241961
-1.10998e-10
0.0169565
0.00064891
-5.19349e-10
0.0179333
0.00304744
-9.23117e-10
0.0166672
0.00943532
-7.76243e-10
0.0149214
0.00950595
-4.46183e-10
0.0135183
0.00913008
-2.97152e-10
0.0121692
0.00939372
-2.92326e-10
0.0107331
0.0101429
-2.89181e-10
0.00912307
0.0110783
-3.19121e-10
0.0073054
0.0120543
-3.42021e-10
0.00524187
0.013136
-3.46974e-10
0.00284283
0.0142957
-3.62783e-10
0.0153136
-3.73942e-10
0.0168001
1.041e-09
-3.2396e-12
0.0168001
5.76718e-09
-1.15957e-11
0.0168001
2.15293e-08
-1.35394e-11
0.0168
5.53728e-08
-2.12192e-11
0.0168
1.52752e-07
-2.14223e-11
0.0168
3.50382e-07
-2.80571e-11
0.0167999
9.13799e-07
-2.75909e-11
0.0167996
2.05671e-06
-3.48484e-11
0.0167991
5.26436e-06
-3.61002e-11
0.0167973
1.22953e-05
-5.09437e-11
0.016797
3.00209e-05
-4.99536e-11
0.0167871
7.87587e-05
-1.46164e-10
0.0168029
0.000224339
-9.30899e-11
0.0168114
0.000639495
-4.5713e-10
0.0171433
0.00270472
-8.49654e-10
0.0165652
0.0100009
-1.22167e-09
0.0151429
0.0109255
-4.98641e-10
0.0140324
0.0102436
-2.41768e-10
0.0128083
0.0106185
-2.45559e-10
0.0114652
0.0114903
-2.60032e-10
0.00992776
0.0126175
-2.91523e-10
0.00814969
0.0138351
-3.16471e-10
0.00604775
0.015241
-3.27118e-10
0.00344326
0.0168986
-3.54003e-10
0.0187557
-3.80908e-10
0.0168001
1.35545e-09
-3.21259e-12
0.0168001
6.0637e-09
-1.15982e-11
0.0168001
2.45781e-08
-1.35583e-11
0.0168001
5.95557e-08
-2.12305e-11
0.0168
1.72684e-07
-2.15104e-11
0.0168
3.79878e-07
-2.82278e-11
0.0167999
1.00653e-06
-2.825e-11
0.0167996
2.29863e-06
-3.64808e-11
0.0167995
5.33619e-06
-3.55015e-11
0.0167985
1.31964e-05
-8.85616e-11
0.0167967
3.14954e-05
3.48935e-13
0.0168044
7.04382e-05
-2.22837e-10
0.0167935
0.000233156
2.37737e-11
0.0168035
0.000630836
-4.68171e-10
0.0169688
0.00253063
-6.48206e-10
0.0162782
0.0106771
-1.42925e-09
0.0156768
0.0115265
-3.00193e-10
0.0145057
0.0114163
-1.96421e-10
0.0133067
0.0118187
-2.17616e-10
0.0121624
0.012639
-2.32093e-10
0.0107806
0.0140013
-2.62743e-10
0.00916708
0.015451
-2.84608e-10
0.00722832
0.0171824
-2.95098e-10
0.00452416
0.019602
-3.21165e-10
0.0232777
-3.58801e-10
0.0168001
-3.23803e-12
1.9521e-09
0.0168001
-1.16353e-11
1.39241e-09
0.0168001
-1.36264e-11
2.57852e-08
0.0168001
-2.18766e-11
2.16754e-08
0.0168001
-2.11848e-11
1.69741e-07
0.0168003
-2.91139e-11
1.40943e-07
0.0168003
-2.80724e-11
1.03293e-06
0.0168019
-3.73143e-11
7.01224e-07
0.0168001
-3.60079e-11
7.02027e-06
0.0168108
-5.87984e-11
2.63853e-06
0.016789
-5.88225e-11
5.29873e-05
0.0168499
-1.31141e-10
9.37055e-06
0.016705
-5.33872e-11
0.000376684
0.0169892
-4.99013e-10
0.000345038
0.0169009
-5.1826e-10
0.00261405
0.016513
-1.51278e-09
0.0110492
0.0156643
-1.84238e-10
0.0123752
0.014802
-1.43781e-10
0.0122793
0.0138968
-2.02796e-10
0.0127252
0.0129043
-2.13427e-10
0.0136345
0.0118432
-2.367e-10
0.0150654
0.0105724
-2.46518e-10
0.0167244
0.00881994
-2.61497e-10
0.0189374
0.00623012
-2.76722e-10
0.0221919
-2.9789e-10
0.0295055
0.0168001
1.77064e-10
-4.92683e-16
0.0168001
9.62105e-10
-2.63863e-15
0.0168001
3.5822e-09
-5.66317e-15
0.0168
9.17214e-09
-1.19881e-14
0.0168
2.54386e-08
-2.12282e-14
0.0168
5.79757e-08
-3.94862e-14
0.0167998
1.55446e-07
-8.16546e-14
0.0167994
3.36111e-07
-1.43967e-13
0.0167983
9.74036e-07
-4.16102e-13
0.0167963
2.01259e-06
-6.74251e-13
0.0167888
6.63141e-06
-2.52018e-12
0.0167735
1.49928e-05
-4.71485e-12
0.0167057
6.48885e-05
-1.94857e-11
0.0165185
0.000182578
-4.9342e-11
0.0154179
0.00107704
-1.38532e-10
0.014127
0.00129919
3.87526e-11
0.0128805
0.00124938
6.71287e-12
0.0115871
0.00129485
-8.33466e-12
0.010228
0.00135986
-7.45475e-12
0.00878797
0.00144489
-5.11534e-12
0.00724125
0.00154826
-5.14947e-12
0.00558966
0.00165565
-5.63599e-12
0.00383462
0.00175827
-5.99659e-12
0.00197061
0.00186107
-6.68974e-12
0.00197029
-7.03342e-12
0.0168001
3.49865e-10
-4.90831e-16
0.0168001
1.89699e-09
-2.63069e-15
0.0168001
7.06567e-09
-5.63903e-15
0.0168
1.80494e-08
-1.1933e-14
0.0168
5.02484e-08
-2.10979e-14
0.0168
1.14308e-07
-3.92183e-14
0.0167998
3.08997e-07
-8.10482e-14
0.0167994
6.64245e-07
-1.42898e-13
0.0167983
1.95958e-06
-4.13467e-13
0.0167963
4.01073e-06
-6.70354e-13
0.0167886
1.34761e-05
-2.51481e-12
0.0167729
3.02827e-05
-4.70244e-12
0.016703
0.000131915
-1.94489e-11
0.0165113
0.000369771
-4.92431e-11
0.0154236
0.00214094
-1.39047e-10
0.0141014
0.00262984
3.89374e-11
0.0128697
0.00248386
6.70432e-12
0.0115959
0.00257013
-8.21538e-12
0.0102468
0.00270974
-7.30703e-12
0.00879409
0.00290242
-4.97188e-12
0.00722826
0.00311562
-4.97044e-12
0.00556
0.00332807
-5.41322e-12
0.00378477
0.00353661
-5.78297e-12
0.00191193
0.00373116
-6.47312e-12
0.00388198
-6.83401e-12
0.0168001
4.95491e-10
-4.86773e-16
0.0168001
2.67652e-09
-2.61144e-15
0.0168001
9.97856e-09
-5.58707e-15
0.0168
2.53995e-08
-1.18141e-14
0.0168
7.09372e-08
-2.08601e-14
0.0168
1.60739e-07
-3.87939e-14
0.0167998
4.39026e-07
-8.01262e-14
0.0167995
9.27117e-07
-1.42939e-13
0.0167985
2.82626e-06
-4.08723e-13
0.0167969
5.59879e-06
-6.77346e-13
0.0167896
1.99998e-05
-2.51983e-12
0.0167749
4.45427e-05
-4.6928e-12
0.0167082
0.000195705
-1.93887e-11
0.0165274
0.000546097
-4.89873e-11
0.0155309
0.00311334
-1.40257e-10
0.0141814
0.00398796
3.95744e-11
0.0129481
0.00372009
7.06522e-12
0.0116857
0.00383405
-8.00151e-12
0.0103483
0.00404799
-7.12202e-12
0.00889536
0.00435999
-4.82271e-12
0.00732339
0.0046892
-4.62504e-12
0.0056379
0.00501788
-4.93712e-12
0.00383476
0.00534265
-5.26748e-12
0.00193665
0.00562643
-5.94891e-12
0.00581844
-6.26352e-12
0.0168001
5.63742e-10
-4.57926e-16
0.0168001
3.14104e-09
-2.49389e-15
0.0168001
1.16341e-08
-5.15848e-15
0.0168
2.97513e-08
-1.08763e-14
0.0168
8.22871e-08
-1.79688e-14
0.0168
1.84671e-07
-3.20969e-14
0.0167999
5.15177e-07
-6.60247e-14
0.0167999
9.79579e-07
-8.0693e-14
0.0167988
3.7017e-06
-4.21731e-13
0.0167992
5.30071e-06
-1.92714e-13
0.0167893
2.8978e-05
-3.26519e-12
0.0167817
5.23064e-05
-3.46191e-12
0.016718
0.000256467
-2.55752e-11
0.016568
0.000692181
-4.86275e-11
0.0157636
0.00389319
-1.43738e-10
0.0143967
0.00536363
3.17997e-11
0.0131509
0.00496914
8.6278e-12
0.0118903
0.00509631
-7.32475e-12
0.0105612
0.00537797
-6.78008e-12
0.00911227
0.00581361
-4.79525e-12
0.00753595
0.00626738
-4.14747e-12
0.00583866
0.00671923
-4.26946e-12
0.00400089
0.00718348
-4.45861e-12
0.00202407
0.00760056
-5.08918e-12
0.0078423
-5.3201e-12
0.0168001
7.7924e-10
-4.64141e-16
0.0168001
4.22381e-09
-2.53446e-15
0.0168001
1.56951e-08
-5.31824e-15
0.0168
4.0068e-08
-1.09667e-14
0.0168
1.10991e-07
-1.92043e-14
0.0167999
2.52716e-07
-3.42887e-14
0.0167998
6.76069e-07
-7.05369e-14
0.0167993
1.44473e-06
-1.06386e-13
0.0167985
4.39601e-06
-4.07586e-13
0.0167962
7.58016e-06
-3.44739e-13
0.0167917
3.26231e-05
-3.68343e-12
0.0167808
6.31137e-05
-3.65832e-12
0.0167479
0.000286533
-2.37999e-11
0.016657
0.000779596
-4.6442e-11
0.0162396
0.00428622
-1.42001e-10
0.0148535
0.00675765
3.24838e-11
0.0135427
0.00628378
9.15767e-12
0.0122577
0.00638335
-6.4862e-12
0.0109318
0.00670498
-6.41338e-12
0.00948293
0.00726686
-4.77655e-12
0.00789322
0.00785868
-3.4914e-12
0.0061593
0.00845756
-3.36986e-12
0.00426207
0.00908429
-3.4232e-12
0.00219525
0.00966463
-4.01709e-12
0.0100372
-4.16527e-12
0.0168001
9.01767e-10
-4.71968e-16
0.0168001
4.88587e-09
-2.55978e-15
0.0168001
1.81905e-08
-5.43046e-15
0.0168
4.65409e-08
-1.12513e-14
0.0168
1.28838e-07
-1.99798e-14
0.0168
2.94506e-07
-3.65483e-14
0.0167999
7.76714e-07
-7.26221e-14
0.0167996
1.72026e-06
-1.34962e-13
0.0167991
4.71791e-06
-3.55538e-13
0.0167969
9.79862e-06
-5.46622e-13
0.016796
3.28256e-05
-2.39828e-12
0.0167929
6.60293e-05
-3.62109e-12
0.01679
0.000286785
-1.70181e-11
0.0167981
0.000768514
-4.19841e-11
0.0170264
0.00403504
-1.34633e-10
0.0156145
0.00817425
1.39918e-11
0.0141404
0.00776053
4.17679e-12
0.0127999
0.00772654
-5.93363e-12
0.0114602
0.00804642
-6.33586e-12
0.0100298
0.00870148
-5.71331e-12
0.00842399
0.00946711
-3.88563e-12
0.00665211
0.0102335
-3.16778e-12
0.00467099
0.0110688
-2.70676e-12
0.00243427
0.011899
-3.04138e-12
0.012471
-2.98129e-12
0.0168001
9.58745e-10
-4.57834e-16
0.0168001
5.22603e-09
-2.49646e-15
0.0168001
1.94377e-08
-5.21746e-15
0.0168001
4.98675e-08
-1.07873e-14
0.0168
1.37184e-07
-1.85328e-14
0.0168
3.13862e-07
-3.35131e-14
0.0168
8.18158e-07
-6.29526e-14
0.0167999
1.82092e-06
-1.15331e-13
0.0167997
4.80116e-06
-2.76491e-13
0.0167989
1.05429e-05
-4.90921e-13
0.0168011
3.01567e-05
-1.72757e-12
0.0167979
6.90324e-05
-2.43859e-12
0.0168408
0.00024198
-1.19666e-11
0.0169566
0.000648976
-2.83133e-11
0.0179338
0.00304773
-7.39216e-11
0.0166674
0.00943542
-4.16883e-11
0.0149215
0.0095058
-1.06127e-11
0.0135185
0.00913007
-5.73518e-12
0.0121694
0.00939379
-6.13935e-12
0.0107333
0.010143
-6.1182e-12
0.00912326
0.0110783
-4.19878e-12
0.00730556
0.0120543
-3.20505e-12
0.00524197
0.0131359
-2.49132e-12
0.00284288
0.0142955
-2.45571e-12
0.0153133
-1.9895e-12
0.0168001
1.0531e-09
-4.52576e-16
0.0168001
5.77052e-09
-2.47104e-15
0.0168001
2.15189e-08
-5.14143e-15
0.0168
5.53392e-08
-1.0617e-14
0.0168
1.52633e-07
-1.80533e-14
0.0168
3.50202e-07
-3.24998e-14
0.0167999
9.13271e-07
-6.00208e-14
0.0167996
2.0556e-06
-1.09598e-13
0.0167991
5.26381e-06
-2.53718e-13
0.0167973
1.22785e-05
-4.76945e-13
0.016797
3.00398e-05
-1.3679e-12
0.0167872
7.87247e-05
-2.71716e-12
0.0168029
0.000224393
-8.96934e-12
0.0168115
0.000639507
-2.2448e-11
0.0171434
0.00270495
-6.5e-11
0.0165655
0.0100009
-8.67804e-11
0.015143
0.0109255
-2.70505e-11
0.0140325
0.0102435
-4.96066e-12
0.0128085
0.0106185
-5.44409e-12
0.0114654
0.0114903
-6.37761e-12
0.00992794
0.0126176
-5.57878e-12
0.00814987
0.0138351
-4.22178e-12
0.00604789
0.0152409
-3.0388e-12
0.00344333
0.0168985
-2.34314e-12
0.0187554
-1.44612e-12
0.0168001
1.32972e-09
-4.61746e-16
0.0168001
6.16919e-09
-2.50384e-15
0.0168001
2.46413e-08
-5.28961e-15
0.0168
5.93132e-08
-1.09041e-14
0.0168
1.72767e-07
-1.92402e-14
0.0168
3.79473e-07
-3.48262e-14
0.0167999
1.00642e-06
-6.86559e-14
0.0167996
2.29815e-06
-1.3219e-13
0.0167995
5.33544e-06
-2.48952e-13
0.0167984
1.32047e-05
-9.74506e-13
0.0167967
3.14808e-05
-7.11716e-13
0.0168043
7.0464e-05
-4.33128e-12
0.0167935
0.000233133
-5.89729e-12
0.0168035
0.000630842
-2.12838e-11
0.016969
0.00253072
-5.45899e-11
0.0162783
0.0106771
-9.85574e-11
0.015677
0.0115265
-7.98149e-12
0.0145058
0.0114163
-1.17364e-12
0.0133068
0.0118187
-4.6833e-12
0.0121626
0.012639
-5.56556e-12
0.0107808
0.0140013
-6.44481e-12
0.00916726
0.015451
-4.80971e-12
0.00722846
0.0171824
-3.81029e-12
0.00452427
0.0196019
-2.26208e-12
0.0232776
-1.39746e-12
0.0168001
-4.52247e-16
1.81806e-09
0.0168001
-2.4361e-15
1.75994e-09
0.0168001
-5.03977e-15
2.45992e-08
0.0168001
-1.06345e-14
2.21987e-08
0.0168001
-1.71682e-14
1.68353e-07
0.0168003
-3.14649e-14
1.41605e-07
0.0168003
-5.53931e-14
1.0319e-06
0.0168019
-1.01928e-13
7.0243e-07
0.0168001
-2.18951e-13
7.01904e-06
0.0168108
-4.20889e-13
2.64721e-06
0.016789
-1.09793e-12
5.29834e-05
0.0168499
-2.44417e-12
9.39383e-06
0.016705
-5.56138e-12
0.00037664
0.0169891
-2.14606e-11
0.000345127
0.016901
-4.48004e-11
0.00261397
0.0165131
-1.07122e-10
0.0110492
0.0156644
-2.69975e-12
0.0123751
0.0148021
-1.87872e-13
0.0122793
0.0138969
-5.61492e-12
0.0127252
0.0129044
-6.11215e-12
0.0136345
0.0118433
-6.60728e-12
0.0150654
0.0105726
-5.83013e-12
0.0167244
0.00882011
-4.4074e-12
0.0189373
0.00623024
-2.44203e-12
0.0221918
-1.5605e-12
0.0295055
0.0168001
1.77065e-10
1.7114e-16
0.0168001
9.62109e-10
1.50876e-16
0.0168001
3.58221e-09
-1.0698e-16
0.0168
9.17219e-09
-2.31056e-16
0.0168
2.54387e-08
-6.57491e-16
0.0168
5.79759e-08
-1.33007e-15
0.0167998
1.55447e-07
-3.89683e-15
0.0167994
3.36112e-07
-7.2594e-15
0.0167983
9.74039e-07
-2.50006e-14
0.0167963
2.0126e-06
-4.11111e-14
0.0167888
6.63142e-06
-1.64411e-13
0.0167735
1.49928e-05
-3.08706e-13
0.0167057
6.48886e-05
-1.29772e-12
0.0165185
0.000182578
-3.26872e-12
0.0154179
0.00107704
-9.08655e-12
0.014127
0.00129919
3.14022e-12
0.0128805
0.00124938
8.97082e-13
0.0115871
0.00129485
-1.42081e-13
0.010228
0.00135986
-7.58423e-14
0.00878797
0.00144489
1.63304e-13
0.00724126
0.00154826
2.53217e-13
0.00558967
0.00165565
3.70346e-13
0.00383462
0.00175827
4.62033e-13
0.00197061
0.00186107
4.07214e-13
0.00197029
4.98958e-13
0.0168001
3.49867e-10
1.70973e-16
0.0168001
1.897e-09
1.52413e-16
0.0168001
7.06572e-09
-1.05209e-16
0.0168
1.80496e-08
-2.27188e-16
0.0168
5.02488e-08
-6.47912e-16
0.0168
1.14309e-07
-1.31066e-15
0.0167998
3.08999e-07
-3.8513e-15
0.0167994
6.6425e-07
-7.17971e-15
0.0167983
1.95959e-06
-2.47853e-14
0.0167963
4.01075e-06
-4.07978e-14
0.0167886
1.34761e-05
-1.63762e-13
0.0167729
3.02828e-05
-3.07381e-13
0.016703
0.000131915
-1.29273e-12
0.0165113
0.000369772
-3.2563e-12
0.0154236
0.00214095
-9.10552e-12
0.0141014
0.00262984
3.14634e-12
0.0128697
0.00248386
8.86964e-13
0.0115959
0.00257013
-1.43016e-13
0.0102468
0.00270974
-7.49322e-14
0.0087941
0.00290242
1.62516e-13
0.00722826
0.00311562
2.5725e-13
0.00556001
0.00332807
3.72726e-13
0.00378477
0.00353662
4.63278e-13
0.00191193
0.00373116
4.13524e-13
0.00388198
5.04131e-13
0.0168001
4.95504e-10
1.7061e-16
0.0168001
2.67658e-09
1.55999e-16
0.0168001
9.97878e-09
-1.01504e-16
0.0168
2.54e-08
-2.19142e-16
0.0168
7.09388e-08
-6.30859e-16
0.0168
1.60742e-07
-1.28025e-15
0.0167998
4.39034e-07
-3.78232e-15
0.0167995
9.27149e-07
-7.16587e-15
0.0167985
2.82627e-06
-2.43989e-14
0.0167969
5.599e-06
-4.1142e-14
0.0167896
1.99996e-05
-1.63453e-13
0.0167749
4.45432e-05
-3.05719e-13
0.0167082
0.000195705
-1.28287e-12
0.0165274
0.000546098
-3.2258e-12
0.0155309
0.00311335
-9.14777e-12
0.0141814
0.00398795
3.17882e-12
0.0129481
0.00372008
8.95199e-13
0.0116857
0.00383404
-1.38849e-13
0.0103483
0.00404799
-6.99202e-14
0.00889536
0.00435999
1.64925e-13
0.00732339
0.00468921
2.71962e-13
0.00563791
0.00501788
3.82784e-13
0.00383476
0.00534265
4.68648e-13
0.00193666
0.00562644
4.18499e-13
0.00581845
5.15658e-13
0.0168001
5.6374e-10
1.67692e-16
0.0168001
3.14103e-09
1.76852e-16
0.0168001
1.1634e-08
-7.36334e-17
0.0168
2.97513e-08
-1.58936e-16
0.0168
8.22867e-08
-4.44936e-16
0.0168
1.8467e-07
-8.57075e-16
0.0167999
5.15175e-07
-2.87333e-15
0.0167999
9.79571e-07
-3.29861e-15
0.0167988
3.70171e-06
-2.48956e-14
0.0167992
5.30068e-06
-1.11301e-14
0.0167893
2.89782e-05
-2.087e-13
0.0167817
5.23064e-05
-2.27278e-13
0.016718
0.000256469
-1.36892e-12
0.016568
0.000692185
-3.18292e-12
0.0157635
0.00389321
-9.31167e-12
0.0143967
0.00536362
3.12696e-12
0.0131509
0.00496914
9.75526e-13
0.0118903
0.00509631
-1.02354e-13
0.0105612
0.00537797
-5.12952e-14
0.00911227
0.00581361
1.63957e-13
0.00753595
0.00626738
2.92234e-13
0.00583866
0.00671924
4.00042e-13
0.00400089
0.00718348
4.80296e-13
0.00202407
0.00760057
4.22701e-13
0.00784231
5.20768e-13
0.0168001
7.79236e-10
1.68161e-16
0.0168001
4.2238e-09
1.7033e-16
0.0168001
1.56951e-08
-8.24366e-17
0.0168
4.00679e-08
-1.76374e-16
0.0168
1.1099e-07
-5.08899e-16
0.0167999
2.52715e-07
-1.0099e-15
0.0167998
6.76067e-07
-3.1543e-15
0.0167993
1.44472e-06
-4.90304e-15
0.0167985
4.39603e-06
-2.39359e-14
0.0167962
7.58007e-06
-2.05517e-14
0.0167917
3.26234e-05
-1.88737e-13
0.0167808
6.3114e-05
-2.37635e-13
0.0167479
0.000286535
-1.2654e-12
0.016657
0.000779603
-3.01231e-12
0.0162396
0.00428627
-9.12051e-12
0.0148535
0.00675763
2.6788e-12
0.0135427
0.00628377
9.8355e-13
0.0122577
0.00638335
-5.10426e-14
0.0109318
0.00670498
-2.54811e-14
0.00948293
0.00726686
1.57685e-13
0.00789322
0.00785868
3.04202e-13
0.0061593
0.00845756
4.05718e-13
0.00426207
0.0090843
4.89453e-13
0.00219525
0.00966464
4.22083e-13
0.0100372
5.18037e-13
0.0168001
9.01774e-10
1.6904e-16
0.0168001
4.8859e-09
1.6583e-16
0.0168001
1.81906e-08
-8.89859e-17
0.0168
4.65412e-08
-1.92993e-16
0.0168
1.28839e-07
-5.5164e-16
0.0168
2.94508e-07
-1.13496e-15
0.0167999
7.76719e-07
-3.24243e-15
0.0167996
1.72027e-06
-6.51348e-15
0.0167991
4.71795e-06
-2.04999e-14
0.0167969
9.79868e-06
-3.20765e-14
0.016796
3.2826e-05
-1.50726e-13
0.0167929
6.60303e-05
-2.30093e-13
0.01679
0.000286789
-1.09108e-12
0.016798
0.000768526
-2.68879e-12
0.0170264
0.00403512
-8.55571e-12
0.0156145
0.00817423
1.44828e-12
0.0141404
0.0077605
6.31423e-13
0.0127999
0.00772653
-1.53922e-14
0.0114602
0.00804642
-3.24435e-15
0.0100298
0.00870148
1.37234e-13
0.00842398
0.0094671
2.83679e-13
0.0066521
0.0102335
3.8753e-13
0.00467099
0.0110688
4.89115e-13
0.00243426
0.011899
4.05768e-13
0.012471
4.97243e-13
0.0168001
9.58747e-10
1.67665e-16
0.0168001
5.22605e-09
1.76878e-16
0.0168001
1.94377e-08
-7.42424e-17
0.0168001
4.98676e-08
-1.60845e-16
0.0168
1.37184e-07
-4.50556e-16
0.0168
3.13863e-07
-9.22127e-16
0.0168
8.1816e-07
-2.56659e-15
0.0167999
1.82092e-06
-5.12972e-15
0.0167997
4.80118e-06
-1.5098e-14
0.0167989
1.05429e-05
-2.76285e-14
0.0168011
3.01569e-05
-1.05587e-13
0.0167979
6.90325e-05
-1.49027e-13
0.0168408
0.000241982
-7.502e-13
0.0169566
0.000648983
-1.77179e-12
0.0179338
0.00304776
-4.56106e-12
0.0166674
0.00943545
-2.19985e-12
0.0149215
0.00950579
-3.52132e-13
0.0135185
0.00913006
6.93827e-15
0.0121694
0.00939379
6.0654e-15
0.0107333
0.0101429
1.05885e-13
0.00912325
0.0110783
2.39076e-13
0.00730555
0.0120543
3.42862e-13
0.00524196
0.0131359
4.60832e-13
0.00284288
0.0142955
3.72792e-13
0.0153133
4.64211e-13
0.0168001
1.0531e-09
1.67205e-16
0.0168001
5.77051e-09
1.81354e-16
0.0168001
2.15188e-08
-6.81463e-17
0.0168
5.53391e-08
-1.47573e-16
0.0168
1.52632e-07
-4.12662e-16
0.0168
3.50201e-07
-8.4274e-16
0.0167999
9.13267e-07
-2.33995e-15
0.0167996
2.0556e-06
-4.68388e-15
0.0167991
5.26381e-06
-1.34257e-14
0.0167973
1.22783e-05
-2.63554e-14
0.016797
3.00402e-05
-8.10512e-14
0.0167872
7.87242e-05
-1.65649e-13
0.0168029
0.000224394
-5.48853e-13
0.0168115
0.000639509
-1.38169e-12
0.0171435
0.00270497
-3.97142e-12
0.0165655
0.0100009
-5.13805e-12
0.015143
0.0109255
-1.40892e-12
0.0140325
0.0102435
9.527e-14
0.0128085
0.0106185
8.44527e-14
0.0114654
0.0114903
1.03962e-13
0.00992793
0.0126176
1.79068e-13
0.00814986
0.0138351
2.6822e-13
0.00604789
0.0152409
3.92625e-13
0.00344333
0.0168985
3.37396e-13
0.0187554
4.10075e-13
0.0168001
1.32972e-09
1.68267e-16
0.0168001
6.16923e-09
1.76057e-16
0.0168001
2.46414e-08
-7.66057e-17
0.0168
5.93134e-08
-1.63727e-16
0.0168
1.72768e-07
-4.83082e-16
0.0168
3.79475e-07
-9.81221e-16
0.0167999
1.00643e-06
-2.86451e-15
0.0167996
2.29816e-06
-6.10444e-15
0.0167995
5.33547e-06
-1.28312e-14
0.0167984
1.32049e-05
-5.8865e-14
0.0167967
3.14808e-05
-2.86556e-14
0.0168043
7.04646e-05
-2.67814e-13
0.0167935
0.000233134
-3.44638e-13
0.0168035
0.000630844
-1.29327e-12
0.016969
0.00253073
-3.27967e-12
0.0162783
0.0106771
-5.80809e-12
0.015677
0.0115265
-1.31052e-13
0.0145058
0.0114163
3.396e-13
0.0133068
0.0118187
1.68594e-13
0.0121626
0.012639
1.50199e-13
0.0107808
0.0140013
1.53927e-13
0.00916726
0.015451
2.39281e-13
0.00722845
0.0171824
3.05484e-13
0.00452427
0.0196019
3.47282e-13
0.0232776
3.41293e-13
0.0168001
1.68155e-16
1.81804e-09
0.0168001
1.88987e-16
1.76001e-09
0.0168001
-5.6509e-17
2.45991e-08
0.0168001
-1.22478e-16
2.21991e-08
0.0168001
-3.42336e-16
1.68353e-07
0.0168003
-7.05279e-16
1.41607e-07
0.0168003
-1.91647e-15
1.0319e-06
0.0168019
-4.01361e-15
7.0244e-07
0.0168001
-1.05771e-14
7.01907e-06
0.0168108
-2.19037e-14
2.6473e-06
0.016789
-6.19174e-14
5.29836e-05
0.0168499
-1.42225e-13
9.3942e-06
0.016705
-3.26097e-13
0.000376641
0.0169891
-1.28301e-12
0.000345131
0.016901
-2.6539e-12
0.00261398
0.0165131
-6.26992e-12
0.0110493
0.0156644
2.26386e-13
0.0123751
0.0148021
5.21842e-13
0.0122793
0.0138969
1.44993e-13
0.0127252
0.0129044
1.42904e-13
0.0136345
0.0118433
1.72516e-13
0.0150654
0.0105726
2.10173e-13
0.0167244
0.00882011
2.89421e-13
0.0189373
0.00623024
3.60366e-13
0.0221918
2.82819e-13
0.0295055
0.0168001
1.77065e-10
-1.79071e-17
0.0168001
9.6211e-10
-7.23214e-17
0.0168001
3.58221e-09
-2.0623e-16
0.0168
9.17219e-09
-3.95741e-16
0.0168
2.54387e-08
-9.77853e-16
0.0168
5.7976e-08
-1.83266e-15
0.0167998
1.55447e-07
-5.02756e-15
0.0167994
3.36112e-07
-9.13764e-15
0.0167983
9.74039e-07
-3.11112e-14
0.0167963
2.0126e-06
-5.07003e-14
0.0167888
6.63142e-06
-2.04095e-13
0.0167735
1.49928e-05
-3.80816e-13
0.0167057
6.48886e-05
-1.6345e-12
0.0165185
0.000182578
-4.08575e-12
0.0154179
0.00107704
-1.17059e-11
0.014127
0.00129919
4.17118e-12
0.0128805
0.00124938
1.3775e-12
0.0115871
0.00129485
8.68135e-14
0.010228
0.00135986
1.54167e-13
0.00878797
0.00144489
5.4862e-13
0.00724126
0.00154826
4.70254e-13
0.00558967
0.00165565
7.66522e-13
0.00383462
0.00175827
7.94922e-13
0.00197061
0.00186107
6.78143e-13
0.00197029
7.68398e-13
0.0168001
3.49867e-10
-1.76335e-17
0.0168001
1.89701e-09
-7.11542e-17
0.0168001
7.06573e-09
-2.03316e-16
0.0168
1.80496e-08
-3.90045e-16
0.0168
5.02488e-08
-9.6547e-16
0.0168
1.14309e-07
-1.80852e-15
0.0167998
3.08999e-07
-4.97305e-15
0.0167994
6.6425e-07
-9.04274e-15
0.0167983
1.95959e-06
-3.08606e-14
0.0167963
4.01075e-06
-5.03403e-14
0.0167886
1.34761e-05
-2.03419e-13
0.0167729
3.02828e-05
-3.79451e-13
0.016703
0.000131915
-1.62902e-12
0.0165113
0.000369772
-4.07118e-12
0.0154236
0.00214095
-1.17201e-11
0.0141014
0.00262984
4.17542e-12
0.0128697
0.00248386
1.36533e-12
0.0115959
0.00257013
8.51538e-14
0.0102468
0.00270974
1.5378e-13
0.0087941
0.00290242
5.41371e-13
0.00722826
0.00311562
4.76318e-13
0.00556001
0.00332807
7.75298e-13
0.00378477
0.00353662
7.92204e-13
0.00191193
0.00373116
6.91246e-13
0.00388198
7.74238e-13
0.0168001
4.95505e-10
-1.69517e-17
0.0168001
2.67659e-09
-6.84038e-17
0.0168001
9.9788e-09
-1.97099e-16
0.0168
2.54001e-08
-3.78201e-16
0.0168
7.09389e-08
-9.43572e-16
0.0168
1.60743e-07
-1.77159e-15
0.0167998
4.39035e-07
-4.89297e-15
0.0167995
9.27151e-07
-9.04318e-15
0.0167985
2.82627e-06
-3.04198e-14
0.0167969
5.59902e-06
-5.08853e-14
0.0167896
1.99996e-05
-2.03385e-13
0.0167749
4.45433e-05
-3.78059e-13
0.0167082
0.000195705
-1.61874e-12
0.0165274
0.000546098
-4.03674e-12
0.0155309
0.00311335
-1.17692e-11
0.0141814
0.00398795
4.21724e-12
0.0129481
0.00372008
1.38012e-12
0.0116857
0.00383404
8.59863e-14
0.0103483
0.00404799
1.54828e-13
0.00889536
0.00435999
5.28334e-13
0.00732339
0.00468921
4.95742e-13
0.00563791
0.00501788
7.92289e-13
0.00383476
0.00534265
8.05459e-13
0.00193666
0.00562644
7.11666e-13
0.00581845
8.00094e-13
0.0168001
5.6374e-10
-1.2066e-17
0.0168001
3.14103e-09
-5.08779e-17
0.0168001
1.1634e-08
-1.45484e-16
0.0168
2.97513e-08
-2.80617e-16
0.0168
8.22866e-08
-6.80413e-16
0.0168
1.8467e-07
-1.19992e-15
0.0167999
5.15175e-07
-3.71411e-15
0.0167999
9.7957e-07
-3.99145e-15
0.0167988
3.70171e-06
-3.11854e-14
0.0167992
5.30068e-06
-1.18619e-14
0.0167893
2.89782e-05
-2.63003e-13
0.0167817
5.23064e-05
-2.77224e-13
0.016718
0.000256469
-1.73655e-12
0.016568
0.000692185
-3.99018e-12
0.0157635
0.00389321
-1.19905e-11
0.0143967
0.00536362
4.15285e-12
0.0131509
0.00496914
1.49413e-12
0.0118903
0.00509631
1.20829e-13
0.0105612
0.00537797
1.72356e-13
0.00911227
0.00581361
5.07364e-13
0.00753595
0.00626738
5.20556e-13
0.00583866
0.00671924
8.06019e-13
0.00400089
0.00718348
8.24761e-13
0.00202407
0.00760057
7.29871e-13
0.00784231
8.24471e-13
0.0168001
7.79236e-10
-1.36254e-17
0.0168001
4.2238e-09
-5.67038e-17
0.0168001
1.56951e-08
-1.63564e-16
0.0168
4.00679e-08
-3.12239e-16
0.0168
1.1099e-07
-7.77939e-16
0.0167999
2.52715e-07
-1.41928e-15
0.0167998
6.76067e-07
-4.10667e-15
0.0167993
1.44472e-06
-6.1371e-15
0.0167985
4.39603e-06
-3.00832e-14
0.0167962
7.58007e-06
-2.42541e-14
0.0167917
3.26234e-05
-2.38096e-13
0.0167808
6.3114e-05
-2.92143e-13
0.0167479
0.000286535
-1.60728e-12
0.016657
0.000779603
-3.78372e-12
0.0162396
0.00428627
-1.1746e-11
0.0148535
0.00675763
3.57029e-12
0.0135427
0.00628377
1.50998e-12
0.0122577
0.00638335
1.83283e-13
0.0109318
0.00670498
1.91798e-13
0.00948293
0.00726686
4.79796e-13
0.00789322
0.00785868
5.4437e-13
0.0061593
0.00845756
8.24092e-13
0.00426207