/*--------------------------------*- C++ -*----------------------------------*\
| =========                 |                                                 |
| \\      /  F ield         | OpenFOAM: The Open Source CFD Toolbox           |
|  \\    /   O peration     | Version:  4.1                                   |
|   \\  /    A nd           | Web:      www.OpenFOAM.org                      |
|    \\/     M anipulation  |                                                 |
\*---------------------------------------------------------------------------*/
FoamFile
{
    version     2.0;
    format      ascii;
    class       volVectorField;
    location    "3.18";
    object      U;
}
// * * * * * * * * * * * * * * * * * * * * * * * * * * * * * * * * * * * * * //

dimensions      [0 1 -1 0 0 0 0];

internalField   nonuniform List<vector> 
52500
(
(3 1.29107e-08 -0.00571425)
(2.99998 7.14449e-08 -0.00571438)
(2.99996 2.66962e-07 -0.00571458)
(2.9999 6.82672e-07 -0.00571519)
(2.99977 1.89638e-06 -0.00571631)
(2.9994 4.31772e-06 -0.0057197)
(2.99869 1.1559e-05 -0.00572639)
(2.99642 2.49326e-05 -0.00574414)
(2.99254 7.16844e-05 -0.00578922)
(2.97756 0.000146436 -0.00587581)
(2.95172 0.000463926 -0.00622321)
(2.85112 0.000985503 -0.00668941)
(2.58418 0.00363516 -0.00910557)
(1.92761 0.0086726 -0.0136123)
(0.864871 0.0249396 -0.0175346)
(0.448232 0.0235405 -0.0185225)
(0.539033 0.0240327 -0.0185342)
(0.566023 0.0260218 -0.0185601)
(0.513287 0.0279777 -0.0187536)
(0.422822 0.0299153 -0.0189275)
(0.336434 0.0322182 -0.0191202)
(0.266578 0.0349939 -0.0192883)
(0.197357 0.0380006 -0.0194264)
(0.119101 0.0415562 -0.0196004)
(0.0514257 0.0461812 -0.0197923)
(3 3.85168e-08 -0.00571425)
(2.99998 2.12689e-07 -0.00571438)
(2.99996 7.96116e-07 -0.00571457)
(2.9999 2.03358e-06 -0.00571517)
(2.99977 5.66334e-06 -0.00571628)
(2.99941 1.28864e-05 -0.00571962)
(2.99871 3.46643e-05 -0.00572621)
(2.99647 7.45594e-05 -0.00574374)
(2.99264 0.000216829 -0.00578805)
(2.97788 0.000440965 -0.00587362)
(2.95244 0.00141785 -0.00621505)
(2.85353 0.00300932 -0.00667535)
(2.59133 0.011258 -0.00904395)
(1.94381 0.0269614 -0.0134944)
(0.874264 0.0761954 -0.0174081)
(0.444765 0.0682753 -0.0184421)
(0.538586 0.0666199 -0.0184541)
(0.566586 0.0700536 -0.0184713)
(0.513475 0.0733702 -0.0186574)
(0.422974 0.0766599 -0.0188245)
(0.336634 0.080455 -0.0190098)
(0.266275 0.0847697 -0.0191698)
(0.196021 0.0888149 -0.0193009)
(0.116474 0.0927971 -0.0194633)
(0.0485053 0.0964266 -0.0196407)
(3 6.21168e-08 -0.00571425)
(2.99999 3.42285e-07 -0.00571438)
(2.99996 1.2845e-06 -0.00571456)
(2.9999 3.27861e-06 -0.00571515)
(2.99978 9.16945e-06 -0.00571622)
(2.99943 2.08702e-05 -0.00571948)
(2.99874 5.65855e-05 -0.00572587)
(2.99657 0.000121253 -0.00574298)
(2.99285 0.000359192 -0.00578573)
(2.97854 0.000722991 -0.00586933)
(2.95392 0.00239285 -0.00619842)
(2.85862 0.00503706 -0.00664755)
(2.60671 0.019077 -0.00891718)
(1.97983 0.0459063 -0.0132587)
(0.896785 0.131219 -0.0172165)
(0.441338 0.116158 -0.0183458)
(0.541114 0.111967 -0.0183589)
(0.571557 0.117805 -0.0183653)
(0.518222 0.123945 -0.018545)
(0.428061 0.130674 -0.0187031)
(0.342012 0.137833 -0.0188825)
(0.271136 0.145632 -0.01903)
(0.19965 0.153221 -0.0191555)
(0.1184 0.160207 -0.0193179)
(0.0485223 0.164957 -0.0194861)
(3 7.75505e-08 -0.00571425)
(2.99999 4.27633e-07 -0.00571437)
(2.99997 1.59795e-06 -0.00571455)
(2.99991 4.05696e-06 -0.00571511)
(2.99979 1.12958e-05 -0.00571614)
(2.99945 2.5387e-05 -0.00571927)
(2.99879 7.02334e-05 -0.00572537)
(2.99672 0.000139095 -0.00574189)
(2.99315 0.000476739 -0.00578231)
(2.97955 0.000791484 -0.00586315)
(2.95613 0.00345326 -0.00617317)
(2.86627 0.00657917 -0.00660667)
(2.62992 0.0265821 -0.00872748)
(2.03519 0.0635551 -0.0129044)
(0.9327 0.184465 -0.01696)
(0.439408 0.164225 -0.0182317)
(0.547637 0.157039 -0.0182434)
(0.582116 0.165039 -0.0182353)
(0.528872 0.174116 -0.0184087)
(0.439254 0.184894 -0.0185609)
(0.353271 0.195834 -0.0187338)
(0.281737 0.207554 -0.0188773)
(0.208676 0.219322 -0.0189879)
(0.124567 0.230129 -0.0191316)
(0.0506807 0.236718 -0.0193171)
(3 9.80855e-08 -0.00571425)
(2.99999 5.42065e-07 -0.00571436)
(2.99997 2.01989e-06 -0.00571454)
(2.99991 5.14767e-06 -0.00571507)
(2.9998 1.4255e-05 -0.00571606)
(2.99947 3.218e-05 -0.00571907)
(2.99884 8.77226e-05 -0.0057248)
(2.99691 0.000176665 -0.00574135)
(2.99339 0.000592275 -0.00577759)
(2.98098 0.000928287 -0.0058599)
(2.95886 0.00434753 -0.00613106)
(2.87634 0.00793392 -0.00655667)
(2.66108 0.0323419 -0.00845941)
(2.11002 0.0775507 -0.0124155)
(0.98665 0.230857 -0.0166332)
(0.446657 0.212756 -0.0180901)
(0.561431 0.203642 -0.018102)
(0.600229 0.212603 -0.0180691)
(0.547084 0.22381 -0.0182403)
(0.457955 0.238587 -0.0183717)
(0.371386 0.253701 -0.0185415)
(0.298569 0.269998 -0.0186852)
(0.223154 0.286757 -0.0188003)
(0.134937 0.302338 -0.0189422)
(0.0552372 0.311604 -0.0191015)
(3 1.22939e-07 -0.00571425)
(2.99999 6.79414e-07 -0.00571436)
(2.99997 2.53582e-06 -0.00571452)
(2.99992 6.50299e-06 -0.00571502)
(2.99981 1.80067e-05 -0.00571593)
(2.99951 4.11791e-05 -0.00571874)
(2.99891 0.000109124 -0.00572406)
(2.99714 0.00023817 -0.00573965)
(2.99377 0.000680958 -0.00577236)
(2.98263 0.00129221 -0.00585262)
(2.96211 0.00469873 -0.00608668)
(2.88791 0.00894634 -0.00649613)
(2.69648 0.034618 -0.00816383)
(2.1992 0.0842116 -0.01183)
(1.06007 0.258805 -0.0162364)
(0.471547 0.259476 -0.0179148)
(0.585055 0.254045 -0.017924)
(0.626622 0.262766 -0.0178871)
(0.57393 0.274907 -0.0180628)
(0.485622 0.293184 -0.0181891)
(0.39809 0.313006 -0.0183231)
(0.323418 0.334744 -0.0184533)
(0.244889 0.35788 -0.0185494)
(0.150804 0.380483 -0.018678)
(0.0624358 0.394912 -0.0188696)
(3 1.36039e-07 -0.00571425)
(2.99999 7.51426e-07 -0.00571435)
(2.99997 2.80028e-06 -0.00571449)
(2.99992 7.17999e-06 -0.00571495)
(2.99983 1.98106e-05 -0.00571579)
(2.99955 4.53077e-05 -0.00571836)
(2.999 0.000118627 -0.00572324)
(2.99739 0.000263198 -0.00573753)
(2.99427 0.000703219 -0.00576719)
(2.98429 0.00149387 -0.00584202)
(2.96538 0.00449411 -0.00604648)
(2.89968 0.00927542 -0.00643662)
(2.732 0.0318683 -0.00786866)
(2.29233 0.0779433 -0.0112499)
(1.15388 0.238622 -0.0157714)
(0.523674 0.294177 -0.0176596)
(0.619444 0.30652 -0.0176497)
(0.658817 0.314428 -0.0176374)
(0.607691 0.327131 -0.0178181)
(0.521931 0.349313 -0.0179636)
(0.433938 0.374867 -0.018091)
(0.357366 0.403295 -0.0181958)
(0.275709 0.434709 -0.01829)
(0.175037 0.467586 -0.0184032)
(0.07483 0.49236 -0.0185405)
(3 1.47135e-07 -0.00571425)
(2.99999 8.11613e-07 -0.00571434)
(2.99997 3.02064e-06 -0.00571447)
(2.99993 7.73753e-06 -0.00571489)
(2.99984 2.13148e-05 -0.00571565)
(2.99959 4.86989e-05 -0.00571798)
(2.99909 0.000126974 -0.0057224)
(2.99763 0.000283034 -0.0057354)
(2.9948 0.000731276 -0.00576222)
(2.98576 0.00165756 -0.00583052)
(2.9687 0.00423855 -0.00601516)
(2.90944 0.0101123 -0.00636834)
(2.75953 0.0283699 -0.00766754)
(2.35918 0.0705978 -0.0106998)
(1.2477 0.204638 -0.0156527)
(0.568868 0.334292 -0.0175125)
(0.635778 0.367945 -0.0174751)
(0.67442 0.366399 -0.0174457)
(0.634801 0.378694 -0.0175926)
(0.559065 0.405139 -0.0176897)
(0.475236 0.438176 -0.0178218)
(0.399723 0.475312 -0.0178891)
(0.317436 0.517884 -0.0179261)
(0.211626 0.566584 -0.0179966)
(0.0957376 0.61303 -0.0181384)
(3 1.7486e-07 -0.00571425)
(2.99999 9.57253e-07 -0.00571432)
(2.99998 3.56605e-06 -0.00571444)
(2.99994 9.17686e-06 -0.00571481)
(2.99986 2.53182e-05 -0.00571549)
(2.99964 5.85504e-05 -0.00571756)
(2.9992 0.000149926 -0.00572146)
(2.99789 0.000354536 -0.00573299)
(2.99542 0.000813568 -0.00575701)
(2.98719 0.00210129 -0.0058155)
(2.97253 0.0044053 -0.0059883)
(2.91883 0.0113955 -0.0062798)
(2.78592 0.0276755 -0.00751471)
(2.42456 0.0716733 -0.00998162)
(1.37017 0.200838 -0.0153336)
(0.649389 0.38575 -0.0173062)
(0.645071 0.417851 -0.0172564)
(0.673079 0.413277 -0.0173104)
(0.654986 0.428768 -0.0173835)
(0.595161 0.458168 -0.0174449)
(0.520627 0.500301 -0.0175193)
(0.450406 0.548424 -0.0175714)
(0.372873 0.605401 -0.0175705)
(0.269533 0.679583 -0.0175411)
(0.134571 0.772279 -0.0174682)
(3 2.63118e-07 -0.00571424)
(2.99999 4.49911e-07 -0.00571431)
(2.99998 3.81101e-06 -0.00571441)
(2.99995 5.54559e-06 -0.00571471)
(2.99988 2.5751e-05 -0.00571528)
(2.9997 3.57303e-05 -0.00571695)
(2.99934 0.000153866 -0.00572037)
(2.99818 0.000197414 -0.00572877)
(2.99626 0.000942003 -0.00575221)
(2.98873 0.00086889 -0.0057931)
(2.97655 0.00636207 -0.00596693)
(2.928 0.00361331 -0.00618956)
(2.81274 0.0408519 -0.00737333)
(2.49069 0.0517255 -0.00937256)
(1.51619 0.219288 -0.0146499)
(0.751104 0.439514 -0.0169271)
(0.654191 0.452165 -0.0171578)
(0.67934 0.452041 -0.0171821)
(0.675594 0.47359 -0.0171857)
(0.6317 0.506959 -0.0172185)
(0.571416 0.557435 -0.0171986)
(0.511103 0.617447 -0.0171591)
(0.448444 0.695833 -0.0170607)
(0.366288 0.815268 -0.0168564)
(0.20793 1.0275 -0.0164741)
(3 1.31758e-08 -2.51469e-09)
(2.99998 7.1659e-08 -8.66848e-09)
(2.99996 2.66922e-07 -1.00226e-08)
(2.9999 6.83675e-07 -1.61491e-08)
(2.99977 1.89554e-06 -1.58824e-08)
(2.9994 4.31811e-06 -2.17494e-08)
(2.99869 1.1558e-05 -2.1741e-08)
(2.99642 2.4934e-05 -2.98846e-08)
(2.99254 7.16821e-05 -3.10641e-08)
(2.97756 0.000146447 -5.64076e-08)
(2.95171 0.000463962 -6.88693e-08)
(2.85111 0.000985646 -1.5108e-07)
(2.58413 0.00363563 -1.75879e-07)
(1.92751 0.00867416 -5.68899e-07)
(0.864841 0.0249427 -6.22148e-07)
(0.448265 0.0235429 9.3079e-08)
(0.539041 0.0240347 -1.14582e-08)
(0.566021 0.0260235 -7.45577e-08)
(0.513284 0.0279791 -7.52697e-08)
(0.422819 0.0299164 -6.85346e-08)
(0.336433 0.0322191 -5.92691e-08)
(0.266578 0.0349943 -5.48258e-08)
(0.197356 0.0380007 -5.13124e-08)
(0.1191 0.041556 -4.94733e-08)
(0.0514273 0.0461814 -4.75586e-08)
(3 3.92407e-08 -2.50938e-09)
(2.99998 2.13426e-07 -8.66878e-09)
(2.99996 7.95773e-07 -1.00279e-08)
(2.9999 2.03717e-06 -1.61293e-08)
(2.99977 5.66059e-06 -1.59145e-08)
(2.99941 1.28893e-05 -2.1731e-08)
(2.99871 3.46651e-05 -2.17647e-08)
(2.99647 7.45817e-05 -2.98436e-08)
(2.99264 0.000216848 -3.11315e-08)
(2.97788 0.000441113 -5.61769e-08)
(2.95243 0.00141817 -6.84011e-08)
(2.85352 0.00301012 -1.49176e-07)
(2.59129 0.0112599 -1.71007e-07)
(1.94372 0.0269663 -5.5364e-07)
(0.874234 0.0762023 -6.13454e-07)
(0.444794 0.0682773 8.91236e-08)
(0.538591 0.0666199 -1.38103e-08)
(0.566581 0.0700534 -7.5983e-08)
(0.51347 0.07337 -7.66077e-08)
(0.42297 0.0766598 -6.94505e-08)
(0.336631 0.0804549 -5.98321e-08)
(0.266273 0.0847693 -5.54231e-08)
(0.196019 0.0888144 -5.1502e-08)
(0.116473 0.0927966 -4.92959e-08)
(0.0485063 0.0964269 -4.71409e-08)
(3 6.31451e-08 -2.50021e-09)
(2.99998 3.43078e-07 -8.66632e-09)
(2.99996 1.28165e-06 -1.00444e-08)
(2.9999 3.27991e-06 -1.60744e-08)
(2.99978 9.14784e-06 -1.5992e-08)
(2.99942 2.08332e-05 -2.16593e-08)
(2.99874 5.64895e-05 -2.17672e-08)
(2.99657 0.000120915 -2.94845e-08)
(2.99284 0.000358992 -3.10988e-08)
(2.97854 0.000720676 -5.4024e-08)
(2.95391 0.00239513 -6.54328e-08)
(2.85861 0.00503407 -1.42691e-07)
(2.60667 0.0190864 -1.58701e-07)
(1.97974 0.045921 -5.26337e-07)
(0.896746 0.131244 -6.1417e-07)
(0.44135 0.116169 6.83512e-08)
(0.541109 0.111968 -2.25831e-08)
(0.571545 0.117805 -7.66876e-08)
(0.518211 0.123945 -7.67633e-08)
(0.428051 0.130674 -6.90753e-08)
(0.342004 0.137833 -5.99731e-08)
(0.271128 0.145631 -5.61824e-08)
(0.199644 0.153219 -5.21929e-08)
(0.118396 0.160205 -4.98468e-08)
(0.0485221 0.164956 -4.72901e-08)
(3 7.8426e-08 -2.48865e-09)
(2.99999 4.3025e-07 -8.67067e-09)
(2.99996 1.59618e-06 -1.00994e-08)
(2.9999 4.06472e-06 -1.60579e-08)
(2.99979 1.12888e-05 -1.63363e-08)
(2.99945 2.53882e-05 -2.20923e-08)
(2.99879 7.0222e-05 -2.292e-08)
(2.99672 0.000139009 -3.4671e-08)
(2.99314 0.000476839 -2.89604e-08)
(2.97955 0.000790345 -9.64659e-08)
(2.95612 0.00345577 1.01293e-08)
(2.86627 0.00657862 -2.332e-07)
(2.6299 0.0265903 -4.08681e-09)
(2.03514 0.0635705 -4.61687e-07)
(0.932701 0.184495 -5.3986e-07)
(0.439455 0.164239 2.79337e-08)
(0.547657 0.157043 -5.78972e-08)
(0.582126 0.165041 -8.43689e-08)
(0.528879 0.174117 -7.94645e-08)
(0.439257 0.184897 -6.89408e-08)
(0.35327 0.195835 -6.37313e-08)
(0.281734 0.207553 -6.08754e-08)
(0.208672 0.219319 -5.62635e-08)
(0.124563 0.230125 -5.34392e-08)
(0.0506803 0.236715 -5.05546e-08)
(3 9.95427e-08 -2.48259e-09)
(2.99999 5.45867e-07 -8.6296e-09)
(2.99997 2.02394e-06 -1.01248e-08)
(2.99991 5.16401e-06 -1.58994e-08)
(2.9998 1.42859e-05 -1.62476e-08)
(2.99947 3.2264e-05 -2.15447e-08)
(2.99883 8.79028e-05 -2.19867e-08)
(2.99691 0.000177241 -3.09895e-08)
(2.99339 0.00059286 -2.76874e-08)
(2.98098 0.000931361 -7.76077e-08)
(2.95886 0.00434798 -1.62293e-09)
(2.87633 0.0079401 -1.89309e-07)
(2.66106 0.0323415 -2.43371e-08)
(2.10997 0.0775574 -4.05555e-07)
(0.986649 0.230874 -4.93982e-07)
(0.446698 0.212762 -9.39834e-09)
(0.561457 0.203646 -7.55845e-08)
(0.60025 0.212608 -8.24461e-08)
(0.547104 0.223816 -7.59148e-08)
(0.457972 0.238593 -6.46273e-08)
(0.371396 0.253705 -6.49776e-08)
(0.298575 0.269998 -6.44639e-08)
(0.223156 0.286755 -6.06757e-08)
(0.134936 0.302334 -5.85894e-08)
(0.0552377 0.311599 -5.60493e-08)
(3 1.25364e-07 -2.45966e-09)
(2.99999 6.8184e-07 -8.62043e-09)
(2.99997 2.54093e-06 -1.00906e-08)
(2.99992 6.51327e-06 -1.58188e-08)
(2.99981 1.80315e-05 -1.60286e-08)
(2.99951 4.1235e-05 -2.10438e-08)
(2.99891 0.000109249 -2.09693e-08)
(2.99714 0.000238538 -2.68593e-08)
(2.99377 0.000681327 -2.80413e-08)
(2.98263 0.00129462 -4.92003e-08)
(2.9621 0.00469878 -3.1633e-08)
(2.88791 0.00895137 -1.37115e-07)
(2.69646 0.0346182 -7.51636e-08)
(2.19915 0.0842193 -3.7109e-07)
(1.06005 0.258831 -4.97129e-07)
(0.471559 0.25948 -4.23197e-08)
(0.585069 0.254048 -7.3274e-08)
(0.626638 0.262773 -7.02368e-08)
(0.573949 0.274916 -6.64917e-08)
(0.485641 0.293193 -6.0563e-08)
(0.398105 0.313013 -6.42492e-08)
(0.32343 0.334748 -6.55061e-08)
(0.244896 0.357881 -6.30865e-08)
(0.150807 0.380481 -6.30952e-08)
(0.0624374 0.394908 -6.26076e-08)
(3 1.3848e-07 -2.43412e-09)
(2.99999 7.53037e-07 -8.62282e-09)
(2.99997 2.80283e-06 -1.0076e-08)
(2.99992 7.18373e-06 -1.57955e-08)
(2.99983 1.98183e-05 -1.59575e-08)
(2.99955 4.53227e-05 -2.09149e-08)
(2.999 0.000118663 -2.06123e-08)
(2.99739 0.000263278 -2.61481e-08)
(2.99427 0.000703356 -2.72277e-08)
(2.98429 0.00149459 -3.87146e-08)
(2.96537 0.00449444 -3.92041e-08)
(2.89968 0.00927779 -1.05353e-07)
(2.73199 0.0318707 -7.57661e-08)
(2.29229 0.0779523 -2.9672e-07)
(1.15386 0.23865 -3.33974e-07)
(0.523673 0.294178 -1.41964e-07)
(0.619456 0.30652 -8.24143e-08)
(0.658834 0.314434 -5.68241e-08)
(0.607709 0.32714 -5.61209e-08)
(0.52195 0.349323 -5.49545e-08)
(0.433955 0.374876 -5.9296e-08)
(0.357381 0.403302 -6.28803e-08)
(0.27572 0.434712 -6.33345e-08)
(0.175042 0.467586 -6.59806e-08)
(0.074833 0.492358 -6.75898e-08)
(3 1.49309e-07 -2.41074e-09)
(2.99999 8.12969e-07 -8.62947e-09)
(2.99997 3.02143e-06 -1.00774e-08)
(2.99993 7.73808e-06 -1.5795e-08)
(2.99984 2.13124e-05 -1.59492e-08)
(2.99959 4.86912e-05 -2.08922e-08)
(2.99909 0.000126944 -2.05482e-08)
(2.99763 0.000282952 -2.59537e-08)
(2.9948 0.000731232 -2.68647e-08)
(2.98576 0.00165614 -3.77368e-08)
(2.9687 0.00423937 -3.68575e-08)
(2.90944 0.0101102 -1.01667e-07)
(2.75951 0.0283734 -6.38014e-08)
(2.35915 0.0706026 -2.63652e-07)
(1.24767 0.204654 -3.30769e-07)
(0.568852 0.334289 -2.34494e-07)
(0.635789 0.367946 -9.6122e-08)
(0.674438 0.366403 -4.65626e-08)
(0.63482 0.378702 -4.75175e-08)
(0.559083 0.405148 -5.00148e-08)
(0.475253 0.438186 -5.51648e-08)
(0.399739 0.475321 -5.9205e-08)
(0.317449 0.517891 -6.0683e-08)
(0.211634 0.566587 -6.5416e-08)
(0.0957419 0.613031 -7.0107e-08)
(3 1.74916e-07 -2.39065e-09)
(2.99999 9.55665e-07 -8.63138e-09)
(2.99998 3.56121e-06 -1.00916e-08)
(2.99994 9.14711e-06 -1.58037e-08)
(2.99986 2.5301e-05 -1.6016e-08)
(2.99964 5.84891e-05 -2.10218e-08)
(2.99919 0.000149851 -2.10473e-08)
(2.99789 0.000354364 -2.7189e-08)
(2.99542 0.000813405 -2.644e-08)
(2.98719 0.00210081 -6.5784e-08)
(2.97252 0.0044045 -1.73833e-10)
(2.91882 0.0113953 -1.55921e-07)
(2.78591 0.0276762 1.14211e-08)
(2.42453 0.0716726 -2.68337e-07)
(1.37015 0.200846 -2.73473e-07)
(0.649376 0.385748 -2.90357e-07)
(0.645089 0.417856 -5.74966e-08)
(0.673099 0.413285 -3.74952e-08)
(0.655006 0.428776 -4.24264e-08)
(0.595179 0.458177 -4.51841e-08)
(0.520645 0.500311 -5.0735e-08)
(0.450422 0.548434 -5.44766e-08)
(0.372887 0.60541 -5.62815e-08)
(0.269542 0.67959 -6.10739e-08)
(0.134576 0.772284 -6.79104e-08)
(3 2.48961e-07 -2.40958e-09)
(2.99999 5.06539e-07 -8.65896e-09)
(2.99998 3.70575e-06 -1.01421e-08)
(2.99995 5.58698e-06 -1.62843e-08)
(2.99988 2.56248e-05 -1.57727e-08)
(2.99969 3.5778e-05 -2.16793e-08)
(2.99934 0.000153763 -2.09098e-08)
(2.99818 0.000197544 -2.77881e-08)
(2.99626 0.000941851 -2.68273e-08)
(2.98873 0.000870626 -4.35295e-08)
(2.97655 0.00636052 -4.35244e-08)
(2.92799 0.0036175 -9.22091e-08)
(2.81273 0.0408463 -3.86083e-08)
(2.49066 0.0517312 -2.87762e-07)
(1.51616 0.219283 -2.32996e-07)
(0.751082 0.439511 -3.31108e-07)
(0.654208 0.45217 -3.53373e-08)
(0.679358 0.452049 -2.74979e-08)
(0.675612 0.473599 -4.02481e-08)
(0.631717 0.506968 -4.23765e-08)
(0.571433 0.557445 -4.67137e-08)
(0.51112 0.617458 -4.84993e-08)
(0.44846 0.695844 -5.13897e-08)
(0.366299 0.815278 -5.47139e-08)
(0.207937 1.02751 -5.98703e-08)
(3 1.31759e-08 -3.71983e-13)
(2.99998 7.16594e-08 -1.98749e-12)
(2.99996 2.66923e-07 -4.29303e-12)
(2.9999 6.83678e-07 -9.09081e-12)
(2.99977 1.89555e-06 -1.62788e-11)
(2.9994 4.31813e-06 -3.03527e-11)
(2.99869 1.15581e-05 -6.35418e-11)
(2.99642 2.49341e-05 -1.12132e-10)
(2.99254 7.16823e-05 -3.25102e-10)
(2.97756 0.000146447 -5.20144e-10)
(2.95171 0.000463963 -1.90765e-09)
(2.85111 0.000985647 -3.25635e-09)
(2.58413 0.00363564 -1.23155e-08)
(1.92751 0.00867416 -2.55102e-08)
(0.864839 0.0249427 -3.63796e-08)
(0.448267 0.0235429 7.33369e-09)
(0.539041 0.0240346 1.37582e-09)
(0.566021 0.0260235 -1.5647e-09)
(0.513285 0.0279791 -1.38804e-09)
(0.42282 0.0299164 -8.97855e-10)
(0.336433 0.0322191 -8.73498e-10)
(0.266578 0.0349943 -9.30764e-10)
(0.197357 0.0380007 -9.7043e-10)
(0.1191 0.0415561 -1.09669e-09)
(0.0514274 0.0461815 -1.13815e-09)
(3 3.92409e-08 -3.70515e-13)
(2.99998 2.13427e-07 -1.98115e-12)
(2.99996 7.95777e-07 -4.27376e-12)
(2.9999 2.03718e-06 -9.04693e-12)
(2.99977 5.66061e-06 -1.61749e-11)
(2.99941 1.28893e-05 -3.01392e-11)
(2.99871 3.46652e-05 -6.3059e-11)
(2.99647 7.45818e-05 -1.11286e-10)
(2.99264 0.000216849 -3.23038e-10)
(2.97788 0.000441114 -5.17266e-10)
(2.95243 0.00141817 -1.9044e-09)
(2.85352 0.00301012 -3.25409e-09)
(2.59129 0.0112599 -1.23162e-08)
(1.94372 0.0269663 -2.55961e-08)
(0.874231 0.0762022 -3.69442e-08)
(0.444796 0.0682773 7.36091e-09)
(0.538592 0.0666199 1.37263e-09)
(0.566581 0.0700534 -1.54399e-09)
(0.51347 0.07337 -1.36143e-09)
(0.42297 0.0766598 -8.72341e-10)
(0.336632 0.0804549 -8.41112e-10)
(0.266273 0.0847694 -8.91155e-10)
(0.196019 0.0888144 -9.32788e-10)
(0.116473 0.0927967 -1.05741e-09)
(0.0485064 0.096427 -1.10165e-09)
(3 6.31463e-08 -3.67293e-13)
(2.99998 3.43084e-07 -1.96586e-12)
(2.99996 1.28167e-06 -4.23235e-12)
(2.9999 3.27998e-06 -8.95254e-12)
(2.99978 9.14802e-06 -1.59854e-11)
(2.99942 2.08336e-05 -2.98014e-11)
(2.99874 5.64905e-05 -6.23258e-11)
(2.99657 0.000120918 -1.11318e-10)
(2.99284 0.000358994 -3.19328e-10)
(2.97854 0.000720697 -5.22986e-10)
(2.95391 0.00239512 -1.90982e-09)
(2.85861 0.00503411 -3.26094e-09)
(2.60667 0.0190863 -1.23266e-08)
(1.97973 0.045921 -2.57562e-08)
(0.896744 0.131244 -3.82573e-08)
(0.441352 0.116169 7.46204e-09)
(0.54111 0.111968 1.43967e-09)
(0.571545 0.117805 -1.50671e-09)
(0.518211 0.123945 -1.32912e-09)
(0.428051 0.130674 -8.46589e-10)
(0.342004 0.137833 -7.78633e-10)
(0.271128 0.145631 -8.06937e-10)
(0.199644 0.153219 -8.43313e-10)
(0.118396 0.160205 -9.67492e-10)
(0.0485222 0.164956 -1.00251e-09)
(3 7.84268e-08 -3.44459e-13)
(2.99999 4.30253e-07 -1.87262e-12)
(2.99996 1.59619e-06 -3.89275e-12)
(2.9999 4.06477e-06 -8.21001e-12)
(2.99979 1.12889e-05 -1.36967e-11)
(2.99945 2.53885e-05 -2.4507e-11)
(2.99879 7.02227e-05 -5.11795e-11)
(2.99672 0.000139011 -6.22983e-11)
(2.99314 0.000476841 -3.29395e-10)
(2.97955 0.000790359 -1.48543e-10)
(2.95612 0.00345577 -2.47643e-09)
(2.86626 0.00657866 -2.4228e-09)
(2.6299 0.0265904 -1.3366e-08)
(2.03513 0.0635706 -2.60102e-08)
(0.932698 0.184495 -4.08954e-08)
(0.439456 0.164239 7.32168e-09)
(0.547657 0.157043 1.73634e-09)
(0.582126 0.165041 -1.37868e-09)
(0.528879 0.174117 -1.26654e-09)
(0.439257 0.184897 -8.44938e-10)
(0.35327 0.195835 -6.92392e-10)
(0.281734 0.207553 -6.88746e-10)
(0.208672 0.219319 -7.02226e-10)
(0.124563 0.230125 -8.19479e-10)
(0.0506804 0.236715 -8.40906e-10)
(3 9.95422e-08 -3.49489e-13)
(2.99999 5.45864e-07 -1.9045e-12)
(2.99997 2.02392e-06 -4.01817e-12)
(2.99991 5.16398e-06 -8.29031e-12)
(2.9998 1.42858e-05 -1.46635e-11)
(2.99947 3.22637e-05 -2.62513e-11)
(2.99883 8.79023e-05 -5.4743e-11)
(2.99691 0.000177238 -8.25688e-11)
(2.99339 0.00059286 -3.1832e-10)
(2.98098 0.000931347 -2.66715e-10)
(2.95886 0.004348 -2.25643e-09)
(2.87633 0.00794011 -2.58197e-09)
(2.66106 0.0323417 -1.25478e-08)
(2.10996 0.0775578 -2.53691e-08)
(0.986646 0.230874 -4.28959e-08)
(0.446699 0.212762 6.0888e-09)
(0.561456 0.203645 1.83216e-09)
(0.600249 0.212607 -1.21728e-09)
(0.547104 0.223816 -1.19839e-09)
(0.457971 0.238593 -8.46023e-10)
(0.371396 0.253705 -5.75017e-10)
(0.298575 0.269998 -5.30506e-10)
(0.223156 0.286755 -5.21231e-10)
(0.134936 0.302334 -6.35732e-10)
(0.0552378 0.3116 -6.42462e-10)
(3 1.25364e-07 -3.55644e-13)
(2.99999 6.81842e-07 -1.92458e-12)
(2.99997 2.54093e-06 -4.10655e-12)
(2.99992 6.51328e-06 -8.51446e-12)
(2.99981 1.80315e-05 -1.52724e-11)
(2.99951 4.12351e-05 -2.80256e-11)
(2.99891 0.000109249 -5.63633e-11)
(2.99714 0.000238538 -1.04988e-10)
(2.99377 0.000681332 -2.7752e-10)
(2.98263 0.00129461 -4.23367e-10)
(2.9621 0.00469883 -1.82028e-09)
(2.8879 0.00895145 -2.57925e-09)
(2.69646 0.0346186 -1.10464e-08)
(2.19914 0.0842203 -2.34951e-08)
(1.06005 0.258834 -4.39526e-08)
(0.471558 0.25948 2.66859e-09)
(0.585068 0.254048 8.68078e-10)
(0.626637 0.262773 -1.11272e-09)
(0.573948 0.274916 -1.18666e-09)
(0.485641 0.293193 -1.02901e-09)
(0.398104 0.313013 -6.54109e-10)
(0.323429 0.334748 -5.01165e-10)
(0.244896 0.357881 -3.96931e-10)
(0.150807 0.380481 -4.69633e-10)
(0.0624374 0.394908 -4.4157e-10)
(3 1.38481e-07 -3.44401e-13)
(2.99999 7.53041e-07 -1.87437e-12)
(2.99997 2.80284e-06 -3.93711e-12)
(2.99992 7.18377e-06 -8.14534e-12)
(2.99983 1.98184e-05 -1.41211e-11)
(2.99955 4.5323e-05 -2.56109e-11)
(2.999 0.000118664 -4.86831e-11)
(2.99739 0.000263279 -8.94127e-11)
(2.99427 0.000703361 -2.15332e-10)
(2.98429 0.0014946 -3.80001e-10)
(2.96537 0.00449449 -1.31212e-09)
(2.89968 0.00927787 -1.75312e-09)
(2.73199 0.0318711 -7.83557e-09)
(2.29229 0.0779534 -1.62999e-08)
(1.15386 0.238653 -2.62889e-08)
(0.523672 0.294179 -7.61745e-09)
(0.619456 0.306519 -1.97826e-09)
(0.658834 0.314433 -1.07467e-09)
(0.607708 0.32714 -1.15325e-09)
(0.52195 0.349323 -1.11888e-09)
(0.433955 0.374876 -7.26201e-10)
(0.35738 0.403302 -5.21327e-10)
(0.275719 0.434712 -3.67991e-10)
(0.175042 0.467586 -3.76281e-10)
(0.0748329 0.492358 -2.74236e-10)
(3 1.49309e-07 -3.40184e-13)
(2.99999 8.12968e-07 -1.85414e-12)
(2.99997 3.02142e-06 -3.87602e-12)
(2.99993 7.73807e-06 -8.0088e-12)
(2.99984 2.13123e-05 -1.37365e-11)
(2.99959 4.86911e-05 -2.47992e-11)
(2.99909 0.000126943 -4.63421e-11)
(2.99763 0.000282951 -8.48459e-11)
(2.9948 0.000731232 -1.97413e-10)
(2.98576 0.00165612 -3.69365e-10)
(2.9687 0.0042394 -1.04059e-09)
(2.90944 0.0101101 -1.96859e-09)
(2.75951 0.0283736 -5.95018e-09)
(2.35915 0.070603 -1.31006e-08)
(1.24767 0.204655 -2.49422e-08)
(0.568851 0.334289 -1.64732e-08)
(0.63579 0.367946 -5.20376e-09)
(0.674439 0.366403 -9.18197e-10)
(0.63482 0.378702 -1.01464e-09)
(0.559083 0.405148 -1.17779e-09)
(0.475253 0.438186 -1.0026e-09)
(0.399739 0.475321 -7.2989e-10)
(0.317449 0.517891 -4.86368e-10)
(0.211634 0.566587 -3.68202e-10)
(0.0957418 0.613031 -1.89965e-10)
(3 1.74916e-07 -3.47402e-13)
(2.99999 9.55666e-07 -1.87996e-12)
(2.99998 3.56122e-06 -3.99258e-12)
(2.99994 9.14711e-06 -8.23448e-12)
(2.99986 2.53011e-05 -1.46722e-11)
(2.99964 5.84892e-05 -2.66337e-11)
(2.99919 0.000149851 -5.31562e-11)
(2.99789 0.000354364 -1.02698e-10)
(2.99542 0.000813407 -1.93607e-10)
(2.98719 0.00210082 -7.59242e-10)
(2.97252 0.00440452 -4.4628e-10)
(2.91882 0.0113953 -3.15671e-09)
(2.78591 0.0276763 -3.98784e-09)
(2.42453 0.0716728 -1.23777e-08)
(1.37015 0.200847 -2.25182e-08)
(0.649374 0.385748 -1.98344e-08)
(0.645089 0.417856 -1.51357e-09)
(0.6731 0.413285 -1.58266e-10)
(0.655006 0.428776 -8.61644e-10)
(0.595179 0.458177 -1.02958e-09)
(0.520644 0.500311 -1.18567e-09)
(0.450422 0.548434 -8.60285e-10)
(0.372887 0.60541 -6.59921e-10)
(0.269542 0.679589 -3.61578e-10)
(0.134576 0.772284 -1.99126e-10)
(3 2.48959e-07 -3.39356e-13)
(2.99999 5.06551e-07 -1.82544e-12)
(2.99998 3.70575e-06 -3.79176e-12)
(2.99995 5.58705e-06 -8.00331e-12)
(2.99988 2.56249e-05 -1.30265e-11)
(2.99969 3.57784e-05 -2.39292e-11)
(2.99934 0.000153764 -4.26032e-11)
(2.99818 0.000197546 -7.86801e-11)
(2.99626 0.000941855 -1.69974e-10)
(2.98873 0.000870652 -3.25478e-10)
(2.97655 0.00636053 -8.42481e-10)
(2.92799 0.00361758 -1.78531e-09)
(2.81272 0.0408464 -3.85596e-09)
(2.49066 0.0517316 -1.25747e-08)
(1.51616 0.219284 -1.96366e-08)
(0.751079 0.439511 -2.31774e-08)
(0.654209 0.45217 -4.67544e-10)
(0.679358 0.452049 4.20305e-11)
(0.675612 0.473599 -1.05635e-09)
(0.631718 0.506968 -1.15222e-09)
(0.571433 0.557445 -1.23544e-09)
(0.51112 0.617458 -1.08011e-09)
(0.44846 0.695844 -7.95859e-10)
(0.366299 0.815278 -4.0799e-10)
(0.207937 1.02751 -2.55452e-10)
(3 1.31759e-08 -1.0638e-14)
(2.99998 7.16594e-08 -4.75625e-14)
(2.99996 2.66923e-07 -1.56784e-13)
(2.9999 6.83679e-07 -3.38525e-13)
(2.99977 1.89555e-06 -9.66454e-13)
(2.9994 4.31813e-06 -1.9545e-12)
(2.99869 1.15581e-05 -5.73586e-12)
(2.99642 2.49341e-05 -1.06532e-11)
(2.99254 7.16823e-05 -3.66106e-11)
(2.97756 0.000146447 -5.92448e-11)
(2.95171 0.000463963 -2.32233e-10)
(2.85111 0.000985647 -3.9749e-10)
(2.58413 0.00363564 -1.53005e-09)
(1.92751 0.00867416 -3.15269e-09)
(0.864839 0.0249427 -4.4592e-09)
(0.448267 0.0235429 1.10959e-09)
(0.539041 0.0240346 3.54026e-10)
(0.566021 0.0260235 -1.02016e-11)
(0.513285 0.0279791 1.18487e-11)
(0.42282 0.0299164 1.08557e-10)
(0.336433 0.0322191 1.10577e-10)
(0.266578 0.0349943 1.7091e-10)
(0.197357 0.0380007 1.88673e-10)
(0.1191 0.0415561 1.62435e-10)
(0.0514274 0.0461815 1.89706e-10)
(3 3.92409e-08 -1.04631e-14)
(2.99998 2.13427e-07 -4.67255e-14)
(2.99996 7.95778e-07 -1.54205e-13)
(2.9999 2.03718e-06 -3.32845e-13)
(2.99977 5.66062e-06 -9.52468e-13)
(2.99941 1.28894e-05 -1.92614e-12)
(2.99871 3.46653e-05 -5.66996e-12)
(2.99647 7.45819e-05 -1.05385e-11)
(2.99264 0.000216849 -3.63089e-11)
(2.97788 0.000441114 -5.88289e-11)
(2.95243 0.00141818 -2.31526e-10)
(2.85352 0.00301012 -3.96745e-10)
(2.59129 0.0112599 -1.52796e-09)
(1.94372 0.0269663 -3.15929e-09)
(0.874231 0.0762022 -4.52327e-09)
(0.444796 0.0682773 1.11097e-09)
(0.538592 0.0666199 3.50783e-10)
(0.566581 0.0700534 -1.06885e-11)
(0.51347 0.07337 1.19212e-11)
(0.42297 0.0766598 1.07479e-10)
(0.336632 0.0804549 1.12251e-10)
(0.266273 0.0847694 1.72747e-10)
(0.196019 0.0888144 1.88686e-10)
(0.116473 0.0927967 1.65383e-10)
(0.0485064 0.096427 1.91389e-10)
(3 6.31464e-08 -1.00449e-14)
(2.99998 3.43084e-07 -4.48017e-14)
(2.99996 1.28168e-06 -1.48768e-13)
(2.9999 3.27998e-06 -3.21053e-13)
(2.99978 9.14804e-06 -9.27655e-13)
(2.99942 2.08336e-05 -1.88221e-12)
(2.99874 5.64906e-05 -5.57167e-12)
(2.99657 0.000120919 -1.05297e-11)
(2.99284 0.000358995 -3.57731e-11)
(2.97854 0.000720699 -5.94416e-11)
(2.95391 0.00239511 -2.31559e-10)
(2.85861 0.00503411 -3.96688e-10)
(2.60667 0.0190863 -1.52416e-09)
(1.97973 0.045921 -3.16934e-09)
(0.896744 0.131244 -4.67004e-09)
(0.441352 0.116169 1.12062e-09)
(0.54111 0.111968 3.54646e-10)
(0.571545 0.117805 -9.78437e-12)
(0.518211 0.123945 1.28775e-11)
(0.428051 0.130674 1.06262e-10)
(0.342004 0.137833 1.17873e-10)
(0.271128 0.145631 1.77388e-10)
(0.199644 0.153219 1.92048e-10)
(0.118396 0.160205 1.69623e-10)
(0.0485222 0.164956 1.97456e-10)
(3 7.84268e-08 -7.26605e-15)
(2.99999 4.30254e-07 -3.31059e-14)
(2.99996 1.59619e-06 -1.0669e-13)
(2.9999 4.06477e-06 -2.30129e-13)
(2.99979 1.12889e-05 -6.46667e-13)
(2.99945 2.53885e-05 -1.24183e-12)
(2.99879 7.02227e-05 -4.20154e-12)
(2.99672 0.000139011 -4.67944e-12)
(2.99314 0.000476841 -3.66047e-11)
(2.97955 0.00079036 -1.48925e-11)
(2.95612 0.00345577 -2.98111e-10)
(2.86626 0.00657866 -2.94779e-10)
(2.6299 0.0265904 -1.64188e-09)
(2.03513 0.0635706 -3.18713e-09)
(0.932698 0.184495 -4.9688e-09)
(0.439456 0.164239 1.09977e-09)
(0.547657 0.157043 3.85234e-10)
(0.582126 0.165041 2.82139e-12)
(0.528879 0.174117 1.84911e-11)
(0.439257 0.184897 1.03454e-10)
(0.35327 0.195835 1.25427e-10)
(0.281734 0.207553 1.83241e-10)
(0.208672 0.219319 1.97773e-10)
(0.124563 0.230125 1.73701e-10)
(0.0506804 0.236715 2.02759e-10)
(3 9.95421e-08 -8.12179e-15)
(2.99999 5.45864e-07 -3.66941e-14)
(2.99997 2.02392e-06 -1.2048e-13)
(2.99991 5.16398e-06 -2.57601e-13)
(2.9998 1.42858e-05 -7.46279e-13)
(2.99947 3.22637e-05 -1.47923e-12)
(2.99883 8.79023e-05 -4.64164e-12)
(2.99691 0.000177238 -7.1353e-12)
(2.99339 0.000592861 -3.52557e-11)
(2.98098 0.000931346 -2.90274e-11)
(2.95886 0.004348 -2.69882e-10)
(2.87633 0.00794011 -3.12246e-10)
(2.66106 0.0323417 -1.53007e-09)
(2.10996 0.0775578 -3.08686e-09)
(0.986646 0.230874 -5.17789e-09)
(0.446699 0.212762 9.40734e-10)
(0.561456 0.203645 3.88963e-10)
(0.600249 0.212607 2.02681e-11)
(0.547103 0.223816 2.57389e-11)
(0.457971 0.238593 9.88253e-11)
(0.371396 0.253705 1.31543e-10)
(0.298575 0.269998 1.87915e-10)
(0.223156 0.286755 2.03817e-10)
(0.134936 0.302334 1.77714e-10)
(0.0552378 0.3116 2.0582e-10)
(3 1.25364e-07 -8.87169e-15)
(2.99999 6.81842e-07 -3.94517e-14)
(2.99997 2.54093e-06 -1.31128e-13)
(2.99992 6.51328e-06 -2.84395e-13)
(2.99981 1.80315e-05 -8.15646e-13)
(2.99951 4.12351e-05 -1.6786e-12)
(2.99891 0.000109249 -4.80117e-12)
(2.99714 0.000238538 -9.63513e-12)
(2.99377 0.000681332 -3.02319e-11)