/*--------------------------------*- C++ -*----------------------------------*\
| =========                 |                                                 |
| \\      /  F ield         | OpenFOAM: The Open Source CFD Toolbox           |
|  \\    /   O peration     | Version:  4.1                                   |
|   \\  /    A nd           | Web:      www.OpenFOAM.org                      |
|    \\/     M anipulation  |                                                 |
\*---------------------------------------------------------------------------*/
FoamFile
{
    version     2.0;
    format      ascii;
    class       volScalarField;
    location    "2.5";
    object      T;
}
// * * * * * * * * * * * * * * * * * * * * * * * * * * * * * * * * * * * * * //

dimensions      [0 0 0 1 0 0 0];

internalField   nonuniform List<scalar> 
52500
(
0.999995
1.00002
1.00004
1.00015
1.00028
1.00089
1.00166
1.00488
1.0103
1.02646
1.07178
1.1581
1.49738
2.2672
2.6389
2.7312
2.7253
2.72304
2.73835
2.75226
2.76721
2.77991
2.78515
2.78216
2.78913
0.999995
1.00002
1.00004
1.00015
1.00027
1.00088
1.00163
1.00482
1.01014
1.02613
1.07067
1.15606
1.48887
2.25291
2.63496
2.73103
2.72497
2.72237
2.73756
2.75123
2.7659
2.77833
2.78308
2.7796
2.78638
0.999995
1.00002
1.00004
1.00014
1.00026
1.00086
1.00159
1.0047
1.00983
1.02545
1.06833
1.15185
1.47054
2.221
2.62449
2.72937
2.72317
2.71983
2.73494
2.74847
2.76326
2.77586
2.78005
2.77643
2.78255
0.999995
1.00002
1.00004
1.00014
1.00025
1.00082
1.00152
1.00452
1.00937
1.02441
1.06483
1.14549
1.443
2.1709
2.60783
2.72607
2.71949
2.7151
2.73038
2.74414
2.75693
2.76902
2.77532
2.77134
2.77794
0.999995
1.00001
1.00003
1.00013
1.00024
1.00079
1.00144
1.00443
1.00872
1.02377
1.05894
1.13707
1.40373
2.09836
2.58389
2.72061
2.71397
2.7062
2.72085
2.73431
2.75018
2.76139
2.76628
2.76475
2.7684
0.999995
1.00001
1.00003
1.00012
1.00022
1.00073
1.00134
1.00418
1.008
1.0226
1.05251
1.12701
1.35944
2.00759
2.55097
2.71251
2.70577
2.69715
2.71366
2.72427
2.73676
2.75155
2.75557
2.75106
2.75831
0.999995
1.00001
1.00003
1.00011
1.00021
1.00067
1.00122
1.00382
1.00728
1.02083
1.04665
1.11687
1.31463
1.91139
2.5042
2.69561
2.68628
2.67842
2.69644
2.71122
2.72343
2.73583
2.74392
2.73928
2.73838
0.999995
1.00001
1.00002
1.0001
1.00019
1.00061
1.00111
1.00347
1.00659
1.01897
1.04208
1.10599
1.28342
1.81945
2.48867
2.68705
2.67742
2.66599
2.6815
2.6916
2.70628
2.71421
2.71742
2.71149
2.71411
0.999995
1.00001
1.00002
1.00009
1.00016
1.00054
1.00098
1.00308
1.00587
1.01666
1.03813
1.09207
1.26033
1.69562
2.45238
2.67331
2.65876
2.66026
2.66562
2.67426
2.68414
2.69545
2.69612
2.68476
2.66021
0.999994
1.00001
1.00002
1.00007
1.00014
1.00044
1.00084
1.00237
1.00524
1.01294
1.03539
1.07764
1.2407
1.59176
2.35671
2.64054
2.65445
2.65246
2.65213
2.65762
2.65813
2.65898
2.65274
2.62948
2.57816
1
1.00002
1.00005
1.00016
1.00028
1.0009
1.00166
1.00489
1.01031
1.02648
1.07179
1.15814
1.49739
2.26729
2.63896
2.73126
2.72537
2.72311
2.73842
2.75233
2.76727
2.77998
2.78524
2.78225
2.78922
1
1.00002
1.00005
1.00015
1.00028
1.00089
1.00164
1.00483
1.01015
1.02614
1.07068
1.15609
1.48889
2.253
2.63502
2.7311
2.72504
2.72243
2.73763
2.7513
2.76596
2.7784
2.78316
2.77969
2.78647
1
1.00002
1.00005
1.00015
1.00027
1.00086
1.00159
1.00472
1.00984
1.02547
1.06834
1.15189
1.47056
2.22109
2.62456
2.72943
2.72324
2.7199
2.73501
2.74853
2.76332
2.77593
2.78013
2.77652
2.78264
1
1.00002
1.00004
1.00014
1.00026
1.00083
1.00153
1.00453
1.00938
1.02442
1.06484
1.14552
1.44301
2.17099
2.60789
2.72613
2.71955
2.71516
2.73045
2.74421
2.75699
2.76909
2.7754
2.77142
2.77803
1
1.00002
1.00004
1.00014
1.00025
1.0008
1.00145
1.00444
1.00873
1.02379
1.05894
1.1371
1.4037
2.09841
2.58395
2.72067
2.71403
2.70626
2.72092
2.73437
2.75024
2.76145
2.76636
2.76484
2.76848
1
1.00002
1.00004
1.00013
1.00023
1.00074
1.00135
1.00418
1.00801
1.02262
1.05252
1.12704
1.35944
2.00765
2.55103
2.71257
2.70583
2.69721
2.71372
2.72434
2.73681
2.7516
2.75564
2.75115
2.75839
1
1.00002
1.00004
1.00012
1.00021
1.00068
1.00123
1.00383
1.00729
1.02084
1.04666
1.11689
1.31463
1.91143
2.50426
2.69567
2.68634
2.67847
2.6965
2.71128
2.72348
2.73589
2.744
2.73936
2.73846
1
1.00002
1.00003
1.00011
1.00019
1.00062
1.00112
1.00348
1.0066
1.01898
1.04209
1.10601
1.28343
1.81951
2.48872
2.68712
2.67748
2.66605
2.68156
2.69166
2.70633
2.71426
2.71749
2.71157
2.71418
1
1.00002
1.00003
1.00009
1.00017
1.00055
1.00099
1.00309
1.00588
1.01667
1.03814
1.09209
1.26033
1.69567
2.45243
2.67337
2.65881
2.66031
2.66568
2.67432
2.68419
2.6955
2.69619
2.68484
2.66028
1
1.00001
1.00002
1.00008
1.00014
1.00045
1.00085
1.00238
1.00525
1.01295
1.0354
1.07767
1.2407
1.59181
2.35676
2.6406
2.65451
2.65252
2.65219
2.65768
2.65818
2.65903
2.6528
2.62955
2.57823
1
1.00002
1.00005
1.00016
1.00028
1.0009
1.00166
1.00489
1.01031
1.02648
1.07179
1.15814
1.49739
2.26729
2.63896
2.73126
2.72537
2.72311
2.73842
2.75233
2.76727
2.77998
2.78524
2.78225
2.78922
1
1.00002
1.00005
1.00015
1.00028
1.00089
1.00164
1.00483
1.01015
1.02614
1.07068
1.1561
1.48889
2.25301
2.63502
2.7311
2.72503
2.72243
2.73763
2.7513
2.76596
2.7784
2.78316
2.77969
2.78647
1
1.00002
1.00005
1.00015
1.00027
1.00086
1.00159
1.00472
1.00984
1.02547
1.06834
1.15189
1.47056
2.22109
2.62456
2.72943
2.72324
2.7199
2.73501
2.74853
2.76332
2.77593
2.78013
2.77652
2.78264
1
1.00002
1.00004
1.00014
1.00026
1.00083
1.00153
1.00453
1.00938
1.02442
1.06484
1.14552
1.44302
2.17099
2.60789
2.72613
2.71955
2.71516
2.73045
2.74421
2.75699
2.76909
2.7754
2.77142
2.77803
1
1.00002
1.00004
1.00014
1.00025
1.0008
1.00145
1.00444
1.00873
1.02379
1.05894
1.1371
1.40371
2.09842
2.58395
2.72067
2.71403
2.70626
2.72092
2.73437
2.75024
2.76145
2.76636
2.76484
2.76848
1
1.00002
1.00004
1.00013
1.00023
1.00074
1.00135
1.00418
1.00801
1.02262
1.05252
1.12704
1.35944
2.00765
2.55103
2.71257
2.70583
2.69721
2.71372
2.72434
2.73681
2.7516
2.75564
2.75115
2.75839
1
1.00002
1.00004
1.00012
1.00021
1.00068
1.00123
1.00383
1.00729
1.02084
1.04666
1.11689
1.31464
1.91144
2.50426
2.69567
2.68634
2.67847
2.6965
2.71128
2.72348
2.73589
2.744
2.73936
2.73846
1
1.00002
1.00003
1.00011
1.00019
1.00062
1.00112
1.00348
1.0066
1.01898
1.04209
1.10601
1.28343
1.81951
2.48872
2.68712
2.67748
2.66605
2.68156
2.69166
2.70633
2.71426
2.71749
2.71157
2.71418
1
1.00002
1.00003
1.00009
1.00017
1.00055
1.00099
1.00309
1.00588
1.01667
1.03814
1.09209
1.26033
1.69567
2.45243
2.67337
2.65881
2.66031
2.66568
2.67432
2.68419
2.6955
2.69619
2.68484
2.66028
1
1.00001
1.00002
1.00008
1.00014
1.00045
1.00085
1.00238
1.00525
1.01295
1.0354
1.07767
1.2407
1.59181
2.35677
2.6406
2.65451
2.65252
2.65219
2.65768
2.65818
2.65903
2.6528
2.62955
2.57823
1
1.00002
1.00005
1.00016
1.00028
1.0009
1.00166
1.00489
1.01031
1.02648
1.07179
1.15814
1.49739
2.26729
2.63896
2.73126
2.72537
2.72311
2.73842
2.75233
2.76727
2.77998
2.78524
2.78225
2.78922
1
1.00002
1.00005
1.00015
1.00028
1.00089
1.00164
1.00483
1.01015
1.02614
1.07068
1.1561
1.48889
2.25301
2.63502
2.7311
2.72503
2.72243
2.73763
2.7513
2.76596
2.7784
2.78316
2.77969
2.78647
1
1.00002
1.00005
1.00015
1.00027
1.00086
1.00159
1.00472
1.00984
1.02547
1.06834
1.15189
1.47056
2.22109
2.62456
2.72943
2.72324
2.7199
2.73501
2.74853
2.76332
2.77593
2.78013
2.77652
2.78264
1
1.00002
1.00004
1.00014
1.00026
1.00083
1.00153
1.00453
1.00938
1.02442
1.06484
1.14552
1.44302
2.17099
2.60789
2.72613
2.71955
2.71516
2.73045
2.74421
2.75699
2.76909
2.7754
2.77142
2.77803
1
1.00002
1.00004
1.00014
1.00025
1.0008
1.00145
1.00444
1.00873
1.02379
1.05894
1.1371
1.40371
2.09842
2.58395
2.72067
2.71403
2.70626
2.72092
2.73437
2.75024
2.76145
2.76636
2.76484
2.76848
1
1.00002
1.00004
1.00013
1.00023
1.00074
1.00135
1.00418
1.00801
1.02262
1.05252
1.12704
1.35944
2.00765
2.55103
2.71257
2.70583
2.69721
2.71372
2.72434
2.73681
2.7516
2.75564
2.75115
2.75839
1
1.00002
1.00004
1.00012
1.00021
1.00068
1.00123
1.00383
1.00729
1.02084
1.04666
1.11689
1.31464
1.91144
2.50426
2.69567
2.68634
2.67847
2.6965
2.71128
2.72348
2.73589
2.744
2.73936
2.73846
1
1.00002
1.00003
1.00011
1.00019
1.00062
1.00112
1.00348
1.0066
1.01898
1.04209
1.10601
1.28343
1.81951
2.48872
2.68712
2.67748
2.66605
2.68156
2.69166
2.70633
2.71426
2.71749
2.71157
2.71418
1
1.00002
1.00003
1.00009
1.00017
1.00055
1.00099
1.00309
1.00588
1.01667
1.03814
1.09209
1.26033
1.69567
2.45243
2.67337
2.65881
2.66031
2.66568
2.67432
2.68419
2.6955
2.69619
2.68484
2.66028
1
1.00001
1.00002
1.00008
1.00014
1.00045
1.00085
1.00238
1.00525
1.01295
1.0354
1.07767
1.2407
1.59181
2.35677
2.6406
2.65451
2.65252
2.65219
2.65768
2.65818
2.65903
2.6528
2.62955
2.57823
1
1.00002
1.00005
1.00016
1.00028
1.0009
1.00166
1.00489
1.01031
1.02648
1.07179
1.15814
1.49739
2.26729
2.63896
2.73126
2.72537
2.72311
2.73842
2.75233
2.76727
2.77998
2.78524
2.78225
2.78922
1
1.00002
1.00005
1.00015
1.00028
1.00089
1.00164
1.00483
1.01015
1.02614
1.07068
1.1561
1.48889
2.25301
2.63502
2.7311
2.72503
2.72243
2.73763
2.7513
2.76596
2.7784
2.78316
2.77969
2.78647
1
1.00002
1.00005
1.00015
1.00027
1.00086
1.00159
1.00472
1.00984
1.02547
1.06834
1.15189
1.47056
2.22109
2.62456
2.72943
2.72324
2.7199
2.73501
2.74853
2.76332
2.77593
2.78013
2.77652
2.78264
1
1.00002
1.00004
1.00014
1.00026
1.00083
1.00153
1.00453
1.00938
1.02442
1.06484
1.14552
1.44302
2.17099
2.60789
2.72613
2.71955
2.71516
2.73045
2.74421
2.75699
2.76909
2.7754
2.77142
2.77803
1
1.00002
1.00004
1.00014
1.00025
1.0008
1.00145
1.00444
1.00873
1.02379
1.05894
1.1371
1.40371
2.09842
2.58395
2.72067
2.71403
2.70626
2.72091
2.73437
2.75024
2.76145
2.76636
2.76484
2.76848
1
1.00002
1.00004
1.00013
1.00023
1.00074
1.00135
1.00418
1.00801
1.02262
1.05252
1.12704
1.35944
2.00765
2.55103
2.71257
2.70583
2.69721
2.71372
2.72434
2.73681
2.7516
2.75564
2.75115
2.75839
1
1.00002
1.00004
1.00012
1.00021
1.00068
1.00123
1.00383
1.00729
1.02084
1.04666
1.11689
1.31464
1.91144
2.50426
2.69567
2.68634
2.67847
2.69649
2.71128
2.72348
2.73589
2.744
2.73936
2.73846
1
1.00002
1.00003
1.00011
1.00019
1.00062
1.00112
1.00348
1.0066
1.01898
1.04209
1.10601
1.28343
1.81951
2.48872
2.68712
2.67748
2.66605
2.68156
2.69166
2.70633
2.71426
2.71749
2.71157
2.71418
1
1.00002
1.00003
1.00009
1.00017
1.00055
1.00099
1.00309
1.00588
1.01667
1.03814
1.09209
1.26033
1.69567
2.45243
2.67337
2.65881
2.66031
2.66568
2.67432
2.68419
2.6955
2.69619
2.68484
2.66028
1
1.00001
1.00002
1.00008
1.00014
1.00045
1.00085
1.00238
1.00525
1.01295
1.0354
1.07767
1.2407
1.59181
2.35677
2.6406
2.65451
2.65252
2.65219
2.65768
2.65818
2.65903
2.6528
2.62955
2.57823
1
1.00002
1.00005
1.00016
1.00028
1.0009
1.00166
1.00489
1.01031
1.02648
1.07179
1.15814
1.49739
2.26729
2.63896
2.73126
2.72537
2.72311
2.73842
2.75233
2.76727
2.77998
2.78524
2.78225
2.78922
1
1.00002
1.00005
1.00015
1.00028
1.00089
1.00164
1.00483
1.01015
1.02614
1.07068
1.1561
1.48889
2.25301
2.63502
2.7311
2.72503
2.72243
2.73763
2.7513
2.76596
2.7784
2.78316
2.77969
2.78647
1
1.00002
1.00005
1.00015
1.00027
1.00086
1.00159
1.00472
1.00984
1.02547
1.06834
1.15189
1.47056
2.22109
2.62456
2.72943
2.72324
2.7199
2.73501
2.74853
2.76332
2.77593
2.78013
2.77652
2.78264
1
1.00002
1.00004
1.00014
1.00026
1.00083
1.00153
1.00453
1.00938
1.02442
1.06484
1.14552
1.44302
2.17099
2.60789
2.72613
2.71955
2.71516
2.73045
2.74421
2.75699
2.76909
2.7754
2.77142
2.77803
1
1.00002
1.00004
1.00014
1.00025
1.0008
1.00145
1.00444
1.00873
1.02379
1.05894
1.1371
1.40371
2.09842
2.58395
2.72067
2.71403
2.70626
2.72092
2.73437
2.75024
2.76145
2.76636
2.76484
2.76848
1
1.00002
1.00004
1.00013
1.00023
1.00074
1.00135
1.00418
1.00801
1.02262
1.05252
1.12704
1.35944
2.00765
2.55103
2.71257
2.70583
2.69721
2.71372
2.72434
2.73681
2.7516
2.75564
2.75115
2.75839
1
1.00002
1.00004
1.00012
1.00021
1.00068
1.00123
1.00383
1.00729
1.02084
1.04666
1.11689
1.31464
1.91144
2.50426
2.69567
2.68634
2.67847
2.6965
2.71128
2.72348
2.73589
2.744
2.73936
2.73846
1
1.00002
1.00003
1.00011
1.00019
1.00062
1.00112
1.00348
1.0066
1.01898
1.04209
1.10601
1.28343
1.81951
2.48872
2.68712
2.67748
2.66605
2.68156
2.69166
2.70633
2.71426
2.71749
2.71157
2.71418
1
1.00002
1.00003
1.00009
1.00017
1.00055
1.00099
1.00309
1.00588
1.01667
1.03814
1.09209
1.26033
1.69567
2.45243
2.67337
2.65881
2.66031
2.66568
2.67432
2.68419
2.6955
2.69619
2.68484
2.66028
1
1.00001
1.00002
1.00008
1.00014
1.00045
1.00085
1.00238
1.00525
1.01295
1.0354
1.07767
1.2407
1.59181
2.35677
2.6406
2.65451
2.65252
2.65219
2.65768
2.65818
2.65903
2.6528
2.62955
2.57823
1
1.00002
1.00005
1.00016
1.00028
1.0009
1.00166
1.00489
1.01031
1.02648
1.07179
1.15814
1.49739
2.26729
2.63896
2.73126
2.72537
2.72311
2.73842
2.75233
2.76727
2.77998
2.78524
2.78225
2.78922
1
1.00002
1.00005
1.00015
1.00028
1.00089
1.00164
1.00483
1.01015
1.02614
1.07068
1.1561
1.48889
2.25301
2.63502
2.7311
2.72503
2.72243
2.73763
2.7513
2.76596
2.7784
2.78316
2.77969
2.78647
1
1.00002
1.00005
1.00015
1.00027
1.00086
1.00159
1.00472
1.00984
1.02547
1.06834
1.15189
1.47056
2.22109
2.62456
2.72943
2.72324
2.7199
2.73501
2.74853
2.76332
2.77593
2.78013
2.77652
2.78264
1
1.00002
1.00004
1.00014
1.00026
1.00083
1.00153
1.00453
1.00938
1.02442
1.06484
1.14552
1.44302
2.17099
2.60789
2.72613
2.71955
2.71516
2.73045
2.74421
2.75699
2.76909
2.7754
2.77142
2.77803
1
1.00002
1.00004
1.00014
1.00025
1.0008
1.00145
1.00444
1.00873
1.02379
1.05894
1.1371
1.40371
2.09842
2.58395
2.72067
2.71403
2.70626
2.72092
2.73437
2.75024
2.76145
2.76636
2.76484
2.76848
1
1.00002
1.00004
1.00013
1.00023
1.00074
1.00135
1.00418
1.00801
1.02262
1.05252
1.12704
1.35944
2.00765
2.55103
2.71257
2.70583
2.69721
2.71372
2.72434
2.73681
2.7516
2.75564
2.75115
2.75839
1
1.00002
1.00004
1.00012
1.00021
1.00068
1.00123
1.00383
1.00729
1.02084
1.04666
1.11689
1.31464
1.91144
2.50426
2.69567
2.68634
2.67847
2.6965
2.71128
2.72348
2.73589
2.744
2.73936
2.73846
1
1.00002
1.00003
1.00011
1.00019
1.00062
1.00112
1.00348
1.0066
1.01898
1.04209
1.10601
1.28343
1.81951
2.48872
2.68712
2.67748
2.66605
2.68156
2.69166
2.70633
2.71426
2.71749
2.71157
2.71418
1
1.00002
1.00003
1.00009
1.00017
1.00055
1.00099
1.00309
1.00588
1.01667
1.03814
1.09209
1.26033
1.69567
2.45243
2.67337
2.65881
2.66031
2.66568
2.67432
2.68419
2.6955
2.69619
2.68484
2.66028
1
1.00001
1.00002
1.00008
1.00014
1.00045
1.00085
1.00238
1.00525
1.01295
1.0354
1.07767
1.2407
1.59181
2.35677
2.6406
2.65451
2.65252
2.65219
2.65768
2.65818
2.65903
2.6528
2.62955
2.57823
1
1.00002
1.00005
1.00016
1.00028
1.0009
1.00166
1.00489
1.01031
1.02648
1.07179
1.15814
1.49739
2.26729
2.63896
2.73126
2.72537
2.72311
2.73842
2.75233
2.76727
2.77998
2.78524
2.78225
2.78922
1
1.00002
1.00005
1.00015
1.00028
1.00089
1.00164
1.00483
1.01015
1.02614
1.07068
1.1561
1.48889
2.25301
2.63502
2.7311
2.72503
2.72243
2.73763
2.7513
2.76596
2.7784
2.78316
2.77969
2.78647
1
1.00002
1.00005
1.00015
1.00027
1.00086
1.00159
1.00472
1.00984
1.02547
1.06834
1.15189
1.47056
2.22109
2.62456
2.72943
2.72324
2.7199
2.73501
2.74853
2.76332
2.77593
2.78013
2.77652
2.78264
1
1.00002
1.00004
1.00014
1.00026
1.00083
1.00153
1.00453
1.00938
1.02442
1.06484
1.14552
1.44302
2.17099
2.60789
2.72613
2.71955
2.71516
2.73045
2.74421
2.75699
2.76909
2.7754
2.77142
2.77803
1
1.00002
1.00004
1.00014
1.00025
1.0008
1.00145
1.00444
1.00873
1.02379
1.05894
1.1371
1.40371
2.09842
2.58395
2.72067
2.71403
2.70626
2.72092
2.73437
2.75024
2.76145
2.76636
2.76484
2.76848
1
1.00002
1.00004
1.00013
1.00023
1.00074
1.00135
1.00418
1.00801
1.02262
1.05252
1.12704
1.35944
2.00765
2.55103
2.71257
2.70583
2.69721
2.71372
2.72434
2.73681
2.7516
2.75564
2.75115
2.75839
1
1.00002
1.00004
1.00012
1.00021
1.00068
1.00123
1.00383
1.00729
1.02084
1.04666
1.11689
1.31464
1.91144
2.50426
2.69567
2.68634
2.67847
2.6965
2.71128
2.72348
2.73589
2.744
2.73936
2.73846
1
1.00002
1.00003
1.00011
1.00019
1.00062
1.00112
1.00348
1.0066
1.01898
1.04209
1.10601
1.28343
1.81951
2.48872
2.68712
2.67748
2.66605
2.68156
2.69166
2.70633
2.71426
2.71749
2.71157
2.71418
1
1.00002
1.00003
1.00009
1.00017
1.00055
1.00099
1.00309
1.00588
1.01667
1.03814
1.09209
1.26033
1.69567
2.45243
2.67337
2.65881
2.66031
2.66568
2.67432
2.68419
2.6955
2.69619
2.68484
2.66028
1
1.00001
1.00002
1.00008
1.00014
1.00045
1.00085
1.00238
1.00525
1.01295
1.0354
1.07767
1.2407
1.59181
2.35677
2.6406
2.65451
2.65252
2.65219
2.65768
2.65818
2.65903
2.6528
2.62955
2.57823
1
1.00002
1.00005
1.00016
1.00028
1.0009
1.00166
1.00489
1.01031
1.02648
1.07179
1.15814
1.49739
2.26729
2.63896
2.73126
2.72537
2.72311
2.73842
2.75233
2.76727
2.77998
2.78524
2.78225
2.78922
1
1.00002
1.00005
1.00015
1.00028
1.00089
1.00164
1.00483
1.01015
1.02614
1.07068
1.15609
1.48889
2.253
2.63502
2.7311
2.72504
2.72243
2.73763
2.7513
2.76596
2.7784
2.78316
2.77969
2.78647
1
1.00002
1.00005
1.00015
1.00027
1.00086
1.00159
1.00472
1.00984
1.02547
1.06834
1.15189
1.47056
2.22109
2.62456
2.72943
2.72324
2.7199
2.73501
2.74853
2.76332
2.77593
2.78013
2.77652
2.78264
1
1.00002
1.00004
1.00014
1.00026
1.00083
1.00153
1.00453
1.00938
1.02442
1.06484
1.14552
1.44301
2.17099
2.60789
2.72613
2.71955
2.71516
2.73045
2.74421
2.75699
2.76909
2.7754
2.77142
2.77803
1
1.00002
1.00004
1.00014
1.00025
1.0008
1.00145
1.00444
1.00873
1.02379
1.05894
1.1371
1.4037
2.09841
2.58395
2.72067
2.71403
2.70626
2.72092
2.73437
2.75024
2.76145
2.76636
2.76484
2.76848
1
1.00002
1.00004
1.00013
1.00023
1.00074
1.00135
1.00418
1.00801
1.02262
1.05252
1.12704
1.35944
2.00765
2.55103
2.71257
2.70583
2.69721
2.71372
2.72434
2.73681
2.7516
2.75564
2.75115
2.75839
1
1.00002
1.00004
1.00012
1.00021
1.00068
1.00123
1.00383
1.00729
1.02084
1.04666
1.11689
1.31463
1.91143
2.50426
2.69567
2.68634
2.67847
2.6965
2.71128
2.72348
2.73589
2.744
2.73936
2.73846
1
1.00002
1.00003
1.00011
1.00019
1.00062
1.00112
1.00348
1.0066
1.01898
1.04209
1.10601
1.28343
1.81951
2.48872
2.68712
2.67748
2.66605
2.68156
2.69166
2.70633
2.71426
2.71749
2.71157
2.71418
1
1.00002
1.00003
1.00009
1.00017
1.00055
1.00099
1.00309
1.00588
1.01667
1.03814
1.09209
1.26033
1.69567
2.45243
2.67337
2.65881
2.66031
2.66568
2.67432
2.68419
2.6955
2.69619
2.68484
2.66028
1
1.00001
1.00002
1.00008
1.00014
1.00045
1.00085
1.00238
1.00525
1.01295
1.0354
1.07767
1.2407
1.59181
2.35676
2.6406
2.65451
2.65252
2.65219
2.65768
2.65818
2.65903
2.6528
2.62955
2.57823
0.999995
1.00002
1.00004
1.00015
1.00028
1.00089
1.00166
1.00488
1.0103
1.02646
1.07178
1.1581
1.49738
2.2672
2.6389
2.7312
2.7253
2.72304
2.73835
2.75226
2.76721
2.77991
2.78515
2.78216
2.78913
0.999995
1.00002
1.00004
1.00015
1.00027
1.00088
1.00163
1.00482
1.01014
1.02613
1.07067
1.15606
1.48887
2.25292
2.63496
2.73103
2.72497
2.72237
2.73756
2.75123
2.7659
2.77833
2.78308
2.7796
2.78638
0.999995
1.00002
1.00004
1.00014
1.00026
1.00086
1.00159
1.0047
1.00983
1.02545
1.06833
1.15185
1.47054
2.221
2.6245
2.72937
2.72317
2.71983
2.73494
2.74847
2.76326
2.77586
2.78005
2.77643
2.78255
0.999995
1.00002
1.00004
1.00014
1.00025
1.00082
1.00152
1.00452
1.00937
1.02441
1.06483
1.14549
1.443
2.1709
2.60783
2.72607
2.71949
2.7151
2.73038
2.74414
2.75693
2.76902
2.77532
2.77133
2.77794
0.999995
1.00001
1.00003
1.00013
1.00024
1.00079
1.00144
1.00443
1.00872
1.02377
1.05894
1.13707
1.40373
2.09836
2.58389
2.72061
2.71397
2.7062
2.72085
2.73431
2.75018
2.76139
2.76628
2.76475
2.7684
0.999995
1.00001
1.00003
1.00012
1.00022
1.00073
1.00134
1.00418
1.008
1.0226
1.05251
1.12701
1.35944
2.00759
2.55097
2.71251
2.70577
2.69715
2.71366
2.72427
2.73676
2.75155
2.75557
2.75106
2.75831
0.999995
1.00001
1.00003
1.00011
1.00021
1.00067
1.00122
1.00382
1.00728
1.02083
1.04665
1.11687
1.31463
1.91139
2.5042
2.69561
2.68628
2.67842
2.69644
2.71122
2.72343
2.73583
2.74392
2.73928
2.73838
0.999995
1.00001
1.00002
1.0001
1.00019
1.00061
1.00111
1.00347
1.00659
1.01897
1.04208
1.10599
1.28342
1.81945
2.48867
2.68705
2.67742
2.66599
2.6815
2.6916
2.70628
2.71421
2.71742
2.71149
2.71411
0.999995
1.00001
1.00002
1.00009
1.00016
1.00054
1.00098
1.00308
1.00587
1.01666
1.03813
1.09207
1.26033
1.69562
2.45238
2.67331
2.65876
2.66026
2.66562
2.67426
2.68414
2.69545
2.69612
2.68476
2.66021
0.999994
1.00001
1.00002
1.00007
1.00014
1.00044
1.00084
1.00237
1.00524
1.01294
1.03539
1.07764
1.2407
1.59176
2.35671
2.64054
2.65445
2.65246
2.65213
2.65762
2.65813
2.65898
2.65274
2.62948
2.57816
0.999996
1
1.00002
1.00005
1.00016
1.00031
1.00096
1.00185
1.00523
1.01164
1.02894
1.08064
1.17605
1.5457
2.32879
2.57847
2.63979
2.63509
2.6348
2.63959
2.63896
2.63219
2.61219
2.55935
2.36076
0.999996
0.999999
1.00002
1.00004
1.00014
1.00026
1.00085
1.00158
1.00467
1.00976
1.02522
1.0676
1.15033
1.46244
2.19704
2.53196
2.63217
2.62379
2.61272
2.61065
2.60588
2.59084
2.55768
2.49379
2.2947
0.999995
0.999998
1.00001
1.00003
1.00012
1.00023
1.00074
1.00135
1.00421
1.00806
1.02268
1.05321
1.12712
1.3631
1.99853
2.45436
2.61561
2.60887
2.60004
2.59116
2.58305
2.56325
2.51952
2.45541
2.29526
0.999995
0.999997
1.00001
1.00003
1.0001
1.00019
1.00061
1.00111
1.00347
1.00656
1.01902
1.04108
1.10681
1.27023
1.80833
2.34628
2.5764
2.57401
2.57062
2.55955
2.54453
2.52295
2.47902
2.42843
2.30973
0.999994
0.999997
1.00001
1.00002
1.00008
1.00015
1.00048
1.00089
1.00272
1.00532
1.01451
1.03452
1.08176
1.22954
1.61016
2.2733
2.53774
2.55429
2.55226
2.54474
2.52536
2.49898
2.4421
2.39178
2.30812
0.999994
0.999997
1
1.00002
1.00004
1.00015
1.00029
1.00089
1.00172
1.00475
1.01079
1.02619
1.07384
1.1581
1.5021
2.20907
2.45202
2.5188
2.5123
2.50978
2.50046
2.48122
2.43387
2.37368
2.30199
0.999994
0.999996
0.999999
1.00002
1.00003
1.00013
1.00023
1.00076
1.00137
1.00429
1.00825
1.02283
1.05465
1.12853
1.36953
1.99836
2.38726
2.50513
2.49947
2.48748
2.46272
2.44328
2.41372
2.35953
2.29658
0.999993
0.999995
0.999997
1.00001
1.00002
1.00009
1.00018
1.00057
1.00106
1.00325
1.00624
1.01779
1.03886
1.10044
1.25127
1.75724
2.23416
2.4626
2.47159
2.46681
2.45063
2.42065
2.39001
2.3425
2.28447
0.999993
0.999993
0.999997
1
1.00002
1.00005
1.00017
1.00032
1.001
1.00191
1.00544
1.01169
1.02952
1.07963
1.17471
1.52195
2.19456
2.40453
2.4369
2.4286
2.42061
2.39833
2.37416
2.33441
2.28126
0.999992
0.999993
0.999995
0.999999
1.00002
1.00004
1.00013
1.00024
1.00077
1.00143
1.00422
1.0087
1.02265
1.05869
1.13286
1.38915
2.02374
2.33512
2.41797
2.41243
2.39493
2.36983
2.34054
2.312
2.27057
0.999992
0.999992
0.999993
0.999998
1
1.00003
1.00007
1.00022
1.00042
1.00126
1.00249
1.00666
1.01573
1.03732
1.10498
1.23442
1.66603
2.17807
2.3832
2.38848
2.38012
2.35924
2.32693
2.29433
2.26057
0.999991
0.999992
0.999993
0.999996
1
1.00002
1.00005
1.00016
1.0003
1.00095
1.00177
1.00513
1.01085
1.02754
1.07358
1.1609
1.4801
2.09723
2.32171
2.35635
2.34912
2.33425
2.30701
2.27422
2.24029
0.999991
0.999992
0.999992
0.999994
1
1.00001
1.00004
1.00008
1.00027
1.00051
1.00145
1.00312
1.00782
1.02032
1.04591
1.13411
1.2996
1.83575
2.21769
2.33231
2.3305
2.31919
2.29783
2.26605
2.23261
0.999991
0.999991
0.999992
0.999993
0.999997
1
1.00003
1.00006
1.0002
1.00036
1.00115
1.00211
1.00635
1.01267
1.03361
1.0822
1.19795
1.51064
2.10141
2.27132
2.29182
2.28735
2.27335
2.24811
2.21631
0.999991
0.999991
0.999991
0.999993
0.999994
1
1.00001
1.00005
1.0001
1.00032
1.00059
1.00178
1.00351
1.00943
1.02204
1.05264
1.14567
1.34167
1.85333
2.19503
2.27301
2.27113
2.26067
2.23965
2.20801
0.999991
0.999991
0.999991
0.999992
0.999993
0.999998
1
1.00003
1.00006
1.00022
1.0004
1.00124
1.0023
1.00679
1.01381
1.03553
1.08766
1.2112
1.51941
2.03805
2.22261
2.23728
2.23466
2.2217
2.19664
0.999991
0.999991
0.999991
0.999991
0.999993
0.999994
1
1.00001
1.00005
1.00011
1.00034
1.00064
1.00193
1.00371
1.01037
1.02272
1.05576
1.14533
1.36119
1.84408
2.14871
2.21518
2.21389
2.20421
2.18725
0.999991
0.999991
0.999991
0.999991
0.999992
0.999993
0.999998
1
1.00003
1.00007
1.00022
1.00041
1.00126
1.00236
1.00677
1.01411
1.03562
1.0929
1.20665
1.55437
1.98557
2.17182
2.1864
2.18356
2.16912
0.999991
0.999991
0.999991
0.999991
0.999991
0.999993
0.999994
1
1.00001
1.00005
1.00011
1.00034
1.00064
1.00191
1.00374
1.01033
1.02263
1.05612
1.13985
1.37009
1.80215
2.08447
2.1575
2.16187
2.15533
0.999991
0.999991
0.999991
0.999991
0.999991
0.999992
0.999994
0.999996
1.00001
1.00002
1.00009
1.00017
1.00052
1.00097
1.00287
1.00561
1.01533
1.03375
1.08425
1.20552
1.57156
1.93679
2.10942
2.12967
2.12887
0.999991
0.999991
0.999991
0.999991
0.999991
0.999991
0.999993
0.999994
1
1.00001
1.00005
1.0001
1.00033
1.00061
1.00186
1.00349
1.01002
1.02083
1.05281
1.129
1.32986
1.74457
2.02978
2.10382
2.10748
0.999991
0.999991
0.999991
0.999991
0.999991
0.999991
0.999992
0.999994
0.999996
1.00001
1.00002
1.00008
1.00015
1.00047
1.0009
1.00262
1.00513
1.01401
1.03014
1.07734
1.1797
1.51533
1.8672
2.05692
2.07869
0.999991
0.999991
0.999991
0.999991
0.999991
0.999991
0.999991
0.999993
0.999994
1
1.00001
1.00005
1.00009
1.0003
1.00055
1.00169
1.00311
1.00905
1.01834
1.04674
1.11438
1.27682
1.67101
1.96176
2.05099
0.999991
0.999991
0.999991
0.999991
0.999991
0.999991
0.999991
0.999992
0.999993
0.999997
1
1.00002
1.00005
1.00018
1.00033
1.00101
1.00184
1.00547
1.01057
1.02835
1.06455
1.15533
1.38622
1.81729
1.99002
0.999991
0.999991
0.999991
0.999991
0.999991
0.999991
0.999991
0.999991
0.999992
0.999994
0.999997
1.00001
1.00003
1.0001
1.00019
1.0006
1.0011
1.00327
1.00624
1.01718
1.03783
1.09075
1.23282
1.61335
1.86866
0.999991
0.999991
0.999991
0.999991
0.999991
0.999991
0.999991
0.999991
0.999992
0.999992
0.999996
1
1.00002
1.00004
1.00014
1.00026
1.00079
1.0015
1.0042
1.00876
1.02193
1.0554
1.12123
1.33503
1.7453
0.999991
0.999991
0.999991
0.999991
0.999991
0.999991
0.999991
0.999991
0.999991
0.999992
0.999993
0.999997
1
1.00003
1.00006
1.00019
1.00036
1.00106
1.00204
1.00568
1.01177
1.02963
1.06991
1.17002
1.3993
0.999991
0.999991
0.999991
0.999991
0.999991
0.999991
0.999991
0.999991
0.999991
0.999991
0.999992
0.999994
1
1.00001
1.00004
1.00008
1.00026
1.00049
1.00146
1.00278
1.00782
1.01609
1.04079
1.09652
1.23719
0.999991
0.999991
0.999991
0.999991
0.999991
0.999991
0.999991
0.999991
0.999991
0.999991
0.999992
0.999992
0.999996
1
1.00002
1.00004
1.00015
1.00028
1.00084
1.00155
1.00455
1.00876
1.02346
1.05304
1.12382
0.999991
0.999991
0.999991
0.999991
0.999991
0.999991
0.999991
0.999991
0.999991
0.999991
0.999991
0.999992
0.999993
0.999997
1
1.00003
1.00006
1.00019
1.00036
1.00104
1.002
1.00554
1.01132
1.0291
1.0654
0.999991
0.999991
0.999991
0.999991
0.999991
0.999991
0.999991
0.999991
0.999991
0.999991
0.999991
0.999991
0.999992
0.999994
0.999999
1.00001
1.00004
1.00008
1.00025
1.00047
1.00138
1.00263
1.00738
1.0148
1.03892
0.999991
0.999991
0.999991
0.999991
0.999991
0.999991
0.999991
0.999991
0.999991
0.999991
0.999991
0.999991
0.999991
0.999993
0.999995
1
1.00001
1.00005
1.0001
1.00032
1.00061
1.00175
1.0034
1.00925
1.01915
0.999991
0.999991
0.999991
0.999991
0.999991
0.999991
0.999991
0.999991
0.999991
0.999991
0.999991
0.999991
0.999991
0.999992
0.999993
0.999997
1
1.00002
1.00005
1.00017
1.00032
1.00095
1.00178
1.00502
1.0099
0.999991
0.999991
0.999991
0.999991
0.999991
0.999991
0.999991
0.999991
0.999991
0.999991
0.999991
0.999991
0.999991
0.999991
0.999992
0.999993
0.999998
1
1.00003
1.00007
1.00021
1.0004
1.00115
1.00219
1.00605
0.999991
0.999991
0.999991
0.999991
0.999991
0.999991
0.999991
0.999991
0.999991
0.999991
0.999991
0.999991
0.999991
0.999991
0.999991
0.999992
0.999994
1
1.00001
1.00004
1.00008
1.00026
1.0005
1.00141
1.00275
0.999991
0.999991
0.999991
0.999991
0.999991
0.999991
0.999991
0.999991
0.999991
0.999991
0.999991
0.999991
0.999991
0.999991
0.999991
0.999991
0.999993
0.999995
1
1.00001
1.00005
1.00011
1.00032
1.00062
1.00174
0.999991
0.999991
0.999991
0.999991
0.999991
0.999991
0.999991
0.999991
0.999991
0.999991
0.999991
0.999991
0.999991
0.999991
0.999991
0.999991
0.999992
0.999993
0.999996
1.00001
1.00002
1.00007
1.00013
1.0004
1.00076
0.999991
0.999991
0.999991
0.999991
0.999991
0.999991
0.999991
0.999991
0.999991
0.999991
0.999991
0.999991
0.999991
0.999991
0.999991
0.999991
0.999991
0.999992
0.999994
0.999999
1.00001
1.00004
1.00007
1.00023
1.00043
0.999991
0.999991
0.999991
0.999991
0.999991
0.999991
0.999991
0.999991
0.999991
0.999991
0.999991
0.999991
0.999991
0.999991
0.999991
0.999991
0.999991
0.999991
0.999993
0.999995
1
1.00001
1.00006
1.00012
1.00038
0.999991
0.999991
0.999991
0.999991
0.999991
0.999991
0.999991
0.999991
0.999991
0.999991
0.999991
0.999991
0.999991
0.999991
0.999991
0.999991
0.999991
0.999991
0.999993
0.999994
1
1.00001
1.00005
1.0001
1.00033
1
1.00001
1.00003
1.00005
1.00017
1.00032
1.00097
1.00186
1.00524
1.01165
1.02896
1.08065
1.17608
1.54572
2.32887
2.57854
2.63985
2.63515
2.63486
2.63964
2.63901
2.63224
2.61224
2.55941
2.36081
1
1.00001
1.00003
1.00005
1.00015
1.00027
1.00086
1.00159
1.00468
1.00977
1.02523
1.06761
1.15036
1.46245
2.19712
2.53202
2.63223
2.62384
2.61277
2.6107
2.60592
2.59088
2.55772
2.49384
2.29474
1
1.00001
1.00002
1.00004
1.00013
1.00024
1.00075
1.00136
1.00422
1.00807
1.0227
1.05321
1.12715
1.3631
1.9986
2.45442
2.61567
2.60892
2.60009
2.59121
2.5831
2.56329
2.51956
2.45544
2.29529
1
1.00001
1.00002
1.00003
1.00011
1.00019
1.00062
1.00112
1.00348
1.00657
1.01903
1.04109
1.10683
1.27024
1.80838
2.34633
2.57645
2.57406
2.57067
2.5596
2.54457
2.52299
2.47906
2.42847
2.30977
1
1
1.00001
1.00003
1.00009
1.00016
1.00049
1.0009
1.00273
1.00532
1.01453
1.03452
1.08179
1.22952
1.61021
2.27335
2.53779
2.55434
2.55231
2.54479
2.52539
2.49901
2.44213
2.39181
2.30815
1
1
1.00001
1.00003
1.00005
1.00016
1.0003
1.0009
1.00173
1.00476
1.0108
1.02621
1.07385
1.15813
1.50211
2.20913
2.45208
2.51885
2.51235
2.50983
2.50051
2.48126
2.43391
2.37369
2.302
1
1
1.00001
1.00002
1.00004
1.00013
1.00024
1.00077
1.00138
1.0043
1.00825
1.02285
1.05465
1.12856
1.36951
1.99841
2.38731
2.50518
2.49952
2.48752
2.46276
2.44331
2.41377
2.35957
2.2966
1
1
1.00001
1.00002
1.00003
1.0001
1.00019
1.00058
1.00107
1.00326
1.00625
1.0178
1.03887
1.10047
1.25128
1.75728
2.2342
2.46265
2.47164
2.46686
2.45067
2.42069
2.39002
2.34251
2.28448
1
1
1.00001
1.00001
1.00003
1.00006
1.00018
1.00033
1.00101
1.00192
1.00545
1.0117
1.02953
1.07964
1.17474
1.52197
2.19463
2.40458
2.43694
2.42864
2.42065