/*--------------------------------*- C++ -*----------------------------------*\
| =========                 |                                                 |
| \\      /  F ield         | OpenFOAM: The Open Source CFD Toolbox           |
|  \\    /   O peration     | Version:  4.1                                   |
|   \\  /    A nd           | Web:      www.OpenFOAM.org                      |
|    \\/     M anipulation  |                                                 |
\*---------------------------------------------------------------------------*/
FoamFile
{
    version     2.0;
    format      ascii;
    class       volVectorField;
    location    "2.5";
    object      U;
}
// * * * * * * * * * * * * * * * * * * * * * * * * * * * * * * * * * * * * * //

dimensions      [0 1 -1 0 0 0 0];

internalField   nonuniform List<vector> 
52500
(
(3 1.32289e-08 -0.00571425)
(2.99998 7.32614e-08 -0.00571438)
(2.99996 2.7351e-07 -0.00571458)
(2.9999 6.99531e-07 -0.0057152)
(2.99977 1.94006e-06 -0.00571633)
(2.99939 4.41524e-06 -0.00571976)
(2.99868 1.17961e-05 -0.00572652)
(2.99638 2.54151e-05 -0.00574443)
(2.99246 7.29573e-05 -0.00579)
(2.97732 0.000148851 -0.00587734)
(2.9512 0.000470628 -0.00622826)
(2.84952 0.000998513 -0.00669801)
(2.57955 0.003684 -0.00913843)
(1.91807 0.00877407 -0.0136718)
(0.86201 0.0251338 -0.017516)
(0.454944 0.0238456 -0.0185051)
(0.540465 0.0244398 -0.018519)
(0.564898 0.0265908 -0.0185676)
(0.511009 0.0287531 -0.0187606)
(0.419532 0.0309375 -0.0189595)
(0.331993 0.0334773 -0.019171)
(0.260632 0.0362319 -0.0193696)
(0.188897 0.0385171 -0.0195226)
(0.110409 0.0402631 -0.0196227)
(0.0485306 0.0427382 -0.0197958)
(3 3.95142e-08 -0.00571425)
(2.99998 2.18375e-07 -0.00571438)
(2.99996 8.16451e-07 -0.00571458)
(2.9999 2.08542e-06 -0.00571518)
(2.99977 5.79625e-06 -0.0057163)
(2.9994 1.31784e-05 -0.00571968)
(2.99869 3.53736e-05 -0.00572634)
(2.99643 7.59345e-05 -0.00574403)
(2.99256 0.000220647 -0.00578882)
(2.97765 0.000447763 -0.00587512)
(2.95193 0.00143771 -0.00622001)
(2.85195 0.00304845 -0.00668385)
(2.58679 0.0114111 -0.00907612)
(1.93437 0.0272875 -0.0135536)
(0.87144 0.0767983 -0.0173892)
(0.451414 0.0691151 -0.0184241)
(0.539934 0.0676301 -0.0184379)
(0.565401 0.0713376 -0.0184772)
(0.511167 0.0749553 -0.0186624)
(0.419797 0.0785787 -0.018853)
(0.332632 0.0825218 -0.0190559)
(0.261324 0.086441 -0.0192458)
(0.189306 0.0890785 -0.0193899)
(0.109905 0.090127 -0.0194838)
(0.046825 0.0901848 -0.019653)
(3 6.47519e-08 -0.00571425)
(2.99999 3.57264e-07 -0.00571438)
(2.99996 1.33916e-06 -0.00571457)
(2.9999 3.42136e-06 -0.00571516)
(2.99978 9.54735e-06 -0.00571624)
(2.99942 2.17445e-05 -0.00571953)
(2.99873 5.86363e-05 -0.00572599)
(2.99654 0.000126403 -0.00574327)
(2.99277 0.000368311 -0.00578646)
(2.97832 0.000750585 -0.0058708)
(2.95342 0.00242494 -0.00620318)
(2.85711 0.00513414 -0.00665581)
(2.60235 0.0193145 -0.00894786)
(1.97067 0.0464433 -0.013317)
(0.894175 0.132189 -0.0171969)
(0.448007 0.11743 -0.0183271)
(0.542497 0.113624 -0.0183416)
(0.570491 0.119967 -0.018369)
(0.516151 0.12661 -0.0185464)
(0.425336 0.133886 -0.0187279)
(0.338779 0.141165 -0.0189243)
(0.267398 0.148103 -0.0191082)
(0.19459 0.153303 -0.019243)
(0.113483 0.155996 -0.0193336)
(0.0477458 0.155895 -0.0195001)
(3 8.06894e-08 -0.00571425)
(2.99999 4.45257e-07 -0.00571437)
(2.99996 1.66321e-06 -0.00571455)
(2.99991 4.22699e-06 -0.00571512)
(2.99979 1.17576e-05 -0.00571616)
(2.99944 2.64623e-05 -0.00571931)
(2.99878 7.28396e-05 -0.00572547)
(2.99669 0.000145812 -0.00574208)
(2.99309 0.000488617 -0.00578299)
(2.97934 0.000832443 -0.00586421)
(2.95567 0.00349646 -0.00617814)
(2.86485 0.00672817 -0.00661425)
(2.62575 0.0269589 -0.008758)
(2.02625 0.0644213 -0.0129631)
(0.92974 0.186174 -0.0169428)
(0.445072 0.165945 -0.0182143)
(0.548496 0.159271 -0.0182267)
(0.580872 0.167963 -0.0182393)
(0.527029 0.177641 -0.0184108)
(0.437266 0.188942 -0.0185843)
(0.351205 0.199891 -0.0187589)
(0.279411 0.210475 -0.0189321)
(0.205107 0.219265 -0.0190752)
(0.120872 0.224772 -0.0191612)
(0.0506185 0.225438 -0.0193345)
(3 9.95337e-08 -0.00571425)
(2.99999 5.49926e-07 -0.00571437)
(2.99997 2.04911e-06 -0.00571454)
(2.99991 5.21811e-06 -0.00571508)
(2.9998 1.44517e-05 -0.00571607)
(2.99947 3.25882e-05 -0.00571911)
(2.99883 8.90213e-05 -0.00572489)
(2.99688 0.000178276 -0.00574149)
(2.99335 0.000602964 -0.0057782)
(2.98078 0.000940313 -0.00586071)
(2.95846 0.00442917 -0.00613587)
(2.87507 0.0080834 -0.00656367)
(2.65733 0.0329953 -0.00848715)
(2.10175 0.0789527 -0.0124727)
(0.983381 0.23383 -0.0166158)
(0.450927 0.214953 -0.0180748)
(0.56182 0.206069 -0.018086)
(0.59894 0.215846 -0.0180709)
(0.54553 0.22779 -0.018233)
(0.456751 0.243125 -0.0183959)
(0.370616 0.258097 -0.0185816)
(0.297981 0.272953 -0.0187399)
(0.221527 0.286465 -0.0188667)
(0.132609 0.296295 -0.0189659)
(0.0557803 0.299008 -0.0191229)
(3 1.25262e-07 -0.00571425)
(2.99999 6.92128e-07 -0.00571436)
(2.99997 2.58376e-06 -0.00571452)
(2.99992 6.62288e-06 -0.00571502)
(2.99981 1.83482e-05 -0.00571595)
(2.99951 4.19345e-05 -0.00571878)
(2.9989 0.000111414 -0.00572414)
(2.99712 0.000241956 -0.00573987)
(2.99372 0.000699362 -0.00577284)
(2.98247 0.00131309 -0.00585371)
(2.96177 0.00484064 -0.00608995)
(2.88689 0.00922271 -0.0065022)
(2.69352 0.0356751 -0.00818421)
(2.19218 0.0866384 -0.0118793)
(1.05657 0.265605 -0.0162191)
(0.473862 0.263041 -0.017899)
(0.584969 0.256815 -0.0179077)
(0.625634 0.266158 -0.0178869)
(0.573103 0.27898 -0.0180581)
(0.485627 0.297863 -0.0181937)
(0.398888 0.317493 -0.0183483)
(0.324676 0.337729 -0.0185201)
(0.245291 0.357535 -0.0186316)
(0.150105 0.374208 -0.0187055)
(0.0637927 0.38184 -0.0188892)
(3 1.39376e-07 -0.00571425)
(2.99999 7.69975e-07 -0.00571435)
(2.99997 2.86971e-06 -0.0057145)
(2.99992 7.35968e-06 -0.00571496)
(2.99983 2.0311e-05 -0.0057158)
(2.99955 4.64679e-05 -0.00571839)
(2.999 0.000121699 -0.00572329)
(2.99737 0.000270145 -0.00573766)
(2.99424 0.000722393 -0.00576748)
(2.98419 0.00153196 -0.00584262)
(2.9652 0.00462792 -0.00604845)
(2.8991 0.00952993 -0.00643901)
(2.73037 0.0328679 -0.00788107)
(2.28918 0.0803248 -0.0112628)
(1.15274 0.245965 -0.0157574)
(0.526712 0.297687 -0.0176392)
(0.621344 0.308985 -0.0176265)
(0.659981 0.317616 -0.0176258)
(0.608815 0.331001 -0.0178074)
(0.523782 0.353668 -0.0179602)
(0.436651 0.378993 -0.0181017)
(0.360743 0.406135 -0.018246)
(0.27825 0.434533 -0.0183714)
(0.1759 0.461745 -0.0184323)
(0.0770005 0.479721 -0.01856)
(3 1.48878e-07 -0.00571425)
(2.99999 8.21691e-07 -0.00571434)
(2.99997 3.05576e-06 -0.00571447)
(2.99993 7.82942e-06 -0.00571489)
(2.99984 2.15395e-05 -0.00571566)
(2.99959 4.9205e-05 -0.005718)
(2.99909 0.000128099 -0.00572244)
(2.99762 0.00028515 -0.00573549)
(2.99478 0.000739989 -0.00576243)
(2.9857 0.00164972 -0.00583102)
(2.96855 0.00432768 -0.00601622)
(2.90908 0.01015 -0.00637127)
(2.75861 0.0289717 -0.00767249)
(2.35722 0.0718771 -0.0107177)
(1.24588 0.208594 -0.0156369)
(0.570701 0.336983 -0.0174932)
(0.638856 0.370826 -0.0174489)
(0.677694 0.369858 -0.0174339)
(0.637946 0.382628 -0.0175822)
(0.562712 0.409178 -0.0176887)
(0.479638 0.441862 -0.0178259)
(0.404853 0.477828 -0.0179219)
(0.321884 0.517772 -0.0179949)
(0.213929 0.561641 -0.018025)
(0.0986452 0.601729 -0.0181562)
(3 1.77002e-07 -0.00571425)
(2.99999 9.69195e-07 -0.00571432)
(2.99998 3.6101e-06 -0.00571444)
(2.99994 9.28989e-06 -0.00571481)
(2.99986 2.56251e-05 -0.00571549)
(2.99964 5.9246e-05 -0.00571758)
(2.99919 0.000151732 -0.0057215)
(2.99788 0.000358433 -0.0057331)
(2.99538 0.000823999 -0.00575716)
(2.98716 0.00212383 -0.00581664)
(2.97239 0.00446408 -0.00598781)
(2.91863 0.0115347 -0.00628321)
(2.7855 0.0280761 -0.00751237)
(2.42356 0.072543 -0.00999928)
(1.36919 0.203526 -0.0153205)
(0.650934 0.38899 -0.0172866)
(0.648599 0.421951 -0.0172295)
(0.676906 0.417414 -0.0172886)
(0.658981 0.432872 -0.0173625)
(0.599759 0.462 -0.0174434)
(0.52601 0.503654 -0.0175228)
(0.456505 0.550747 -0.0176088)
(0.378645 0.605533 -0.017629)
(0.272957 0.67579 -0.0175752)
(0.138117 0.763022 -0.0174806)
(3 2.65968e-07 -0.00571424)
(2.99999 4.64291e-07 -0.00571431)
(2.99998 3.86802e-06 -0.00571441)
(2.99995 5.68521e-06 -0.00571471)
(2.99988 2.61622e-05 -0.00571528)
(2.9997 3.66462e-05 -0.00571695)
(2.99934 0.000156396 -0.00572038)
(2.99818 0.000203275 -0.00572881)
(2.99625 0.000953715 -0.00575227)
(2.98871 0.000920394 -0.00579327)
(2.9765 0.00640087 -0.00596726)
(2.92791 0.00381828 -0.00619031)
(2.81247 0.0410935 -0.00737389)
(2.49027 0.0525004 -0.00937591)
(1.5163 0.221041 -0.0146449)
(0.752967 0.442488 -0.0169054)
(0.657941 0.456049 -0.017132)
(0.683228 0.45606 -0.0171588)
(0.679794 0.477373 -0.0171662)
(0.636625 0.510446 -0.0172074)
(0.577167 0.560354 -0.0171973)
(0.517536 0.619549 -0.0171785)
(0.454829 0.696273 -0.0171039)
(0.370539 0.812689 -0.0168961)
(0.2121 1.02063 -0.0164791)
(3 1.35075e-08 -2.51733e-09)
(2.99998 7.35119e-08 -8.66673e-09)
(2.99996 2.73604e-07 -1.00111e-08)
(2.9999 7.00897e-07 -1.61374e-08)
(2.99977 1.94007e-06 -1.58178e-08)
(2.99939 4.41764e-06 -2.16502e-08)
(2.99867 1.17996e-05 -2.14072e-08)
(2.99638 2.54264e-05 -2.93271e-08)
(2.99246 7.29727e-05 -2.88714e-08)
(2.97732 0.000148901 -5.32146e-08)
(2.95119 0.000470705 -5.51227e-08)
(2.84951 0.000998706 -1.28417e-07)
(2.57953 0.00368419 -8.43822e-08)
(1.91802 0.00877472 -3.85171e-07)
(0.862001 0.0251345 -3.56835e-07)
(0.454969 0.0238464 3.13086e-08)
(0.540476 0.0244407 -2.76438e-08)
(0.564903 0.0265916 -5.9176e-08)
(0.511015 0.0287534 -5.82766e-08)
(0.419538 0.0309373 -5.56619e-08)
(0.332 0.0334764 -6.35247e-08)
(0.260641 0.0362311 -7.32804e-08)
(0.188906 0.0385177 -8.19504e-08)
(0.110415 0.0402656 -9.36187e-08)
(0.048532 0.0427407 -1.02825e-07)
(3 4.02665e-08 -2.51176e-09)
(2.99998 2.19226e-07 -8.66657e-09)
(2.99996 8.16387e-07 -1.00146e-08)
(2.9999 2.09003e-06 -1.6113e-08)
(2.99977 5.79512e-06 -1.58401e-08)
(2.9994 1.31851e-05 -2.16092e-08)
(2.99869 3.53814e-05 -2.13833e-08)
(2.99643 7.59649e-05 -2.91765e-08)
(2.99256 0.000220683 -2.87872e-08)
(2.97765 0.000447893 -5.25791e-08)
(2.95192 0.00143791 -5.45757e-08)
(2.85195 0.00304898 -1.26398e-07)
(2.58677 0.0114116 -8.41016e-08)
(1.93432 0.0272896 -3.79571e-07)
(0.87143 0.0768005 -3.57818e-07)
(0.451438 0.0691167 3.07211e-08)
(0.539943 0.0676311 -2.76924e-08)
(0.565404 0.0713381 -5.92658e-08)
(0.511171 0.0749551 -5.82276e-08)
(0.419802 0.078578 -5.52257e-08)
(0.332638 0.0825202 -6.31874e-08)
(0.261332 0.0864396 -7.28108e-08)
(0.189314 0.0890793 -8.15377e-08)
(0.10991 0.0901311 -9.30222e-08)
(0.0468265 0.0901899 -1.01955e-07)
(3 6.59855e-08 -2.50229e-09)
(2.99998 3.58725e-07 -8.66286e-09)
(2.99996 1.33931e-06 -1.00296e-08)
(2.9999 3.42885e-06 -1.60483e-08)
(2.99978 9.54695e-06 -1.59139e-08)
(2.99942 2.17576e-05 -2.15178e-08)
(2.99873 5.86555e-05 -2.13712e-08)
(2.99653 0.000126471 -2.8905e-08)
(2.99277 0.000368403 -2.87389e-08)
(2.97832 0.000750908 -5.14995e-08)
(2.95342 0.00242548 -5.37305e-08)
(2.8571 0.00513537 -1.22781e-07)
(2.60233 0.0193161 -8.2525e-08)
(1.97062 0.0464476 -3.66292e-07)
(0.894163 0.132193 -3.5889e-07)
(0.448024 0.117432 2.88739e-08)
(0.542502 0.113625 -2.76138e-08)
(0.57049 0.119968 -5.9056e-08)
(0.516152 0.12661 -5.77423e-08)
(0.425338 0.133884 -5.42607e-08)
(0.338783 0.141162 -6.28599e-08)
(0.267405 0.1481 -7.30293e-08)
(0.194597 0.153304 -8.15673e-08)
(0.113487 0.156003 -9.21411e-08)
(0.0477472 0.155903 -1.00434e-07)
(3 8.16561e-08 -2.48708e-09)
(2.99998 4.47684e-07 -8.65895e-09)
(2.99996 1.66114e-06 -1.00408e-08)
(2.9999 4.2337e-06 -1.59734e-08)
(2.99979 1.17473e-05 -1.59687e-08)
(2.99944 2.64558e-05 -2.13743e-08)
(2.99878 7.28093e-05 -2.12374e-08)
(2.99669 0.000145674 -2.82379e-08)
(2.99308 0.00048864 -2.82736e-08)
(2.97933 0.000830991 -4.82496e-08)
(2.95567 0.00349885 -5.02945e-08)
(2.86484 0.00672676 -1.14234e-07)
(2.62572 0.0269661 -7.75753e-08)
(2.0262 0.0644327 -3.45142e-07)
(0.929722 0.186192 -3.68193e-07)
(0.445081 0.165953 1.47541e-08)
(0.5485 0.159272 -3.34922e-08)
(0.580876 0.167962 -5.76521e-08)
(0.527037 0.17764 -5.62249e-08)
(0.437276 0.18894 -5.33727e-08)
(0.351215 0.199887 -6.425e-08)
(0.279421 0.210472 -7.50209e-08)
(0.205116 0.219267 -8.24725e-08)
(0.120877 0.224781 -9.08506e-08)
(0.0506197 0.225449 -9.76352e-08)
(3 1.00819e-07 -2.48299e-09)
(2.99999 5.53146e-07 -8.63129e-09)
(2.99997 2.04985e-06 -1.01125e-08)
(2.99991 5.22817e-06 -1.58888e-08)
(2.99979 1.44597e-05 -1.62097e-08)
(2.99947 3.26193e-05 -2.14883e-08)
(2.99883 8.90778e-05 -2.17985e-08)
(2.99688 0.000178431 -3.10108e-08)
(2.99334 0.000603203 -2.58416e-08)
(2.98078 0.000940653 -7.94225e-08)
(2.95846 0.00443102 1.26229e-08)
(2.87506 0.00808462 -1.82255e-07)
(2.65732 0.0329996 3.64263e-08)
(2.10172 0.0789624 -2.96563e-07)
(0.983396 0.233848 -3.03023e-07)
(0.450963 0.214959 -1.89918e-08)
(0.561843 0.206069 -6.14616e-08)
(0.598961 0.215844 -6.32389e-08)
(0.545552 0.227788 -5.79769e-08)
(0.456772 0.243122 -5.24733e-08)
(0.370632 0.258093 -6.67992e-08)
(0.297995 0.27295 -7.84302e-08)
(0.221537 0.286468 -8.47585e-08)
(0.132614 0.296306 -9.07594e-08)
(0.0557814 0.299022 -9.41283e-08)
(3 1.27666e-07 -2.46136e-09)
(2.99999 6.94723e-07 -8.61734e-09)
(2.99997 2.58866e-06 -1.0084e-08)
(2.99991 6.63308e-06 -1.58017e-08)
(2.99981 1.83727e-05 -1.59825e-08)
(2.9995 4.19908e-05 -2.09472e-08)
(2.9989 0.000111539 -2.07038e-08)
(2.99712 0.000242346 -2.63189e-08)
(2.99372 0.000699712 -2.65014e-08)
(2.98247 0.00131568 -4.6468e-08)
(2.96177 0.00484045 -2.18379e-08)
(2.88689 0.00922772 -1.2224e-07)
(2.69351 0.0356738 -1.90061e-08)
(2.19215 0.0866432 -2.55278e-07)
(1.05658 0.26562 -2.83495e-07)
(0.473883 0.263042 -4.3648e-08)
(0.584989 0.256813 -6.82896e-08)
(0.625656 0.266157 -5.98509e-08)
(0.573128 0.278979 -5.54601e-08)
(0.485649 0.297861 -5.06907e-08)
(0.398906 0.317491 -6.74947e-08)
(0.32469 0.33773 -7.82157e-08)
(0.245301 0.357542 -8.27054e-08)
(0.15011 0.374222 -8.64346e-08)
(0.0637933 0.381856 -8.86786e-08)
(3 1.41892e-07 -2.43483e-09)
(2.99999 7.71553e-07 -8.62128e-09)
(2.99997 2.87221e-06 -1.00704e-08)
(2.99992 7.36299e-06 -1.57848e-08)
(2.99982 2.03174e-05 -1.59269e-08)
(2.99955 4.64797e-05 -2.08543e-08)
(2.99899 0.000121727 -2.04415e-08)
(2.99737 0.000270205 -2.58112e-08)
(2.99424 0.00072248 -2.62264e-08)
(2.98419 0.00153259 -3.69014e-08)
(2.96519 0.00462793 -3.24805e-08)
(2.8991 0.00953173 -9.60547e-08)
(2.73036 0.0328679 -3.5595e-08)
(2.28916 0.0803284 -2.13418e-07)
(1.15273 0.245977 -2.00658e-07)
(0.526718 0.297683 -1.02343e-07)
(0.621359 0.308981 -7.53875e-08)
(0.66 0.317615 -5.22289e-08)
(0.608836 0.331001 -5.0247e-08)
(0.5238 0.353668 -4.89256e-08)
(0.436665 0.378994 -6.56483e-08)
(0.360754 0.406139 -7.53723e-08)
(0.278258 0.434542 -7.76932e-08)
(0.175903 0.461761 -7.86138e-08)
(0.0770003 0.479739 -7.97519e-08)
(3 1.51071e-07 -2.41099e-09)
(2.99999 8.22994e-07 -8.62848e-09)
(2.99997 3.0566e-06 -1.00718e-08)
(2.99993 7.82996e-06 -1.57859e-08)
(2.99984 2.15375e-05 -1.59221e-08)
(2.99959 4.91984e-05 -2.08405e-08)
(2.99909 0.000128074 -2.03966e-08)
(2.99762 0.000285095 -2.56735e-08)
(2.99477 0.000739875 -2.59762e-08)
(2.98569 0.00164924 -3.59926e-08)
(2.96855 0.00432753 -3.18255e-08)
(2.90908 0.010149 -9.2313e-08)
(2.7586 0.0289724 -3.46617e-08)
(2.3572 0.0718784 -2.00379e-07)
(1.24586 0.208599 -2.10119e-07)
(0.570694 0.336977 -1.58056e-07)
(0.638867 0.370823 -7.87991e-08)
(0.67771 0.369856 -4.4693e-08)
(0.637962 0.382628 -4.50364e-08)
(0.562726 0.40918 -4.77132e-08)
(0.479648 0.441865 -6.08167e-08)
(0.404861 0.477834 -6.80857e-08)
(0.32189 0.517784 -6.88286e-08)
(0.213931 0.56166 -6.69757e-08)
(0.0986444 0.601749 -6.86367e-08)
(3 1.77092e-07 -2.39096e-09)
(2.99999 9.67637e-07 -8.63147e-09)
(2.99998 3.60526e-06 -1.00843e-08)
(2.99994 9.26011e-06 -1.57952e-08)
(2.99986 2.56077e-05 -1.59745e-08)
(2.99963 5.91842e-05 -2.0944e-08)
(2.99919 0.000151654 -2.07269e-08)
(2.99788 0.000358256 -2.63195e-08)
(2.99538 0.00082382 -2.69933e-08)
(2.98716 0.00212331 -4.21235e-08)
(2.97238 0.00446318 -2.63733e-08)
(2.91862 0.0115343 -1.10444e-07)
(2.78549 0.0280758 -8.97778e-09)
(2.42354 0.0725408 -2.06688e-07)
(1.36918 0.203528 -1.84494e-07)
(0.65093 0.388984 -1.98622e-07)
(0.648614 0.42195 -5.61275e-08)
(0.676922 0.417415 -4.2487e-08)
(0.658996 0.432874 -4.34571e-08)
(0.599771 0.462004 -4.68293e-08)
(0.526018 0.503659 -5.55821e-08)
(0.456511 0.550756 -5.96465e-08)
(0.378649 0.605547 -5.91699e-08)
(0.272959 0.675809 -5.65907e-08)
(0.138116 0.763043 -5.5246e-08)
(3 2.51828e-07 -2.40914e-09)
(2.99999 5.20954e-07 -8.65795e-09)
(2.99998 3.76249e-06 -1.0137e-08)
(2.99995 5.72621e-06 -1.62761e-08)
(2.99988 2.60344e-05 -1.57498e-08)
(2.99969 3.66907e-05 -2.16366e-08)
(2.99934 0.000156281 -2.07926e-08)
(2.99818 0.000203367 -2.75718e-08)
(2.99625 0.000953597 -2.6149e-08)
(2.98871 0.000921125 -4.22935e-08)
(2.9765 0.00640003 -4.01347e-08)
(2.92791 0.00382103 -8.41483e-08)
(2.81245 0.0410887 -2.36879e-08)
(2.49025 0.0525045 -2.30928e-07)
(1.51629 0.221032 -1.52547e-07)
(0.752955 0.442481 -2.30449e-07)
(0.657954 0.456048 -3.99809e-08)
(0.683242 0.456063 -3.39996e-08)
(0.679807 0.477377 -4.25414e-08)
(0.636636 0.510451 -4.50315e-08)
(0.577176 0.560361 -5.11223e-08)
(0.517542 0.619559 -5.19672e-08)
(0.454835 0.696287 -5.14775e-08)
(0.370542 0.812709 -4.6447e-08)
(0.2121 1.02066 -4.34301e-08)
(3 1.35075e-08 -3.33572e-13)
(2.99998 7.35119e-08 -1.8167e-12)
(2.99996 2.73604e-07 -3.71532e-12)
(2.9999 7.00897e-07 -7.84348e-12)
(2.99977 1.94007e-06 -1.25862e-11)
(2.99939 4.41763e-06 -2.2885e-11)
(2.99867 1.17995e-05 -4.06177e-11)
(2.99638 2.54264e-05 -7.01294e-11)
(2.99246 7.29727e-05 -1.71022e-10)
(2.97732 0.000148901 -2.76784e-10)
(2.95119 0.000470705 -8.9218e-10)
(2.84951 0.000998705 -1.52649e-09)
(2.57953 0.00368419 -5.34197e-09)
(1.91802 0.00877472 -1.0961e-08)
(0.862 0.0251345 -1.50496e-08)
(0.45497 0.0238464 3.00129e-09)
(0.540476 0.0244407 1.06484e-10)
(0.564903 0.0265915 -1.09248e-09)
(0.511015 0.0287534 -8.57646e-10)
(0.419539 0.0309372 -5.01232e-10)
(0.332001 0.0334764 -7.63161e-10)
(0.260642 0.0362311 -1.1996e-09)
(0.188907 0.0385178 -1.51769e-09)
(0.110415 0.0402657 -1.90571e-09)
(0.0485322 0.0427408 -2.19794e-09)
(3 4.02665e-08 -3.33552e-13)
(2.99998 2.19226e-07 -1.81689e-12)
(2.99996 8.16387e-07 -3.71716e-12)
(2.9999 2.09003e-06 -7.84572e-12)
(2.99977 5.79512e-06 -1.26026e-11)
(2.9994 1.31851e-05 -2.29184e-11)
(2.99869 3.53814e-05 -4.07373e-11)
(2.99643 7.59649e-05 -7.04387e-11)
(2.99256 0.000220683 -1.71807e-10)
(2.97765 0.000447893 -2.78778e-10)
(2.95192 0.00143791 -8.98637e-10)
(2.85194 0.00304898 -1.53905e-09)
(2.58677 0.0114116 -5.37671e-09)
(1.93431 0.0272895 -1.10643e-08)
(0.871429 0.0768004 -1.53797e-08)
(0.451439 0.0691166 3.03002e-09)
(0.539943 0.067631 1.15746e-10)
(0.565405 0.071338 -1.07354e-09)
(0.511172 0.074955 -8.39954e-10)
(0.419802 0.078578 -4.87224e-10)
(0.332638 0.0825202 -7.51839e-10)
(0.261332 0.0864397 -1.1576e-09)
(0.189314 0.0890794 -1.4492e-09)
(0.10991 0.0901313 -1.80117e-09)
(0.0468267 0.0901902 -2.06007e-09)
(3 6.59856e-08 -3.33149e-13)
(2.99998 3.58726e-07 -1.81557e-12)
(2.99996 1.33931e-06 -3.71508e-12)
(2.9999 3.42885e-06 -7.83628e-12)
(2.99978 9.54696e-06 -1.25989e-11)
(2.99942 2.17576e-05 -2.2909e-11)
(2.99873 5.86556e-05 -4.07846e-11)
(2.99653 0.000126471 -7.06645e-11)
(2.99277 0.000368403 -1.72541e-10)
(2.97832 0.000750907 -2.80992e-10)
(2.95342 0.00242548 -9.09132e-10)
(2.8571 0.00513536 -1.55916e-09)
(2.60233 0.0193161 -5.45055e-09)
(1.97061 0.0464476 -1.1304e-08)
(0.894162 0.132193 -1.62323e-08)
(0.448025 0.117432 3.05564e-09)
(0.542502 0.113625 1.36003e-10)
(0.57049 0.119968 -1.0575e-09)
(0.516152 0.12661 -8.33211e-10)
(0.425339 0.133884 -4.89611e-10)
(0.338784 0.141162 -7.25226e-10)
(0.267405 0.1481 -1.05415e-09)
(0.194597 0.153304 -1.27768e-09)
(0.113487 0.156003 -1.54718e-09)
(0.0477474 0.155903 -1.74452e-09)
(3 8.16566e-08 -3.32234e-13)
(2.99998 4.47686e-07 -1.81165e-12)
(2.99996 1.66114e-06 -3.70712e-12)
(2.9999 4.23373e-06 -7.81397e-12)
(2.99979 1.17473e-05 -1.25798e-11)
(2.99944 2.6456e-05 -2.28833e-11)
(2.99878 7.28096e-05 -4.08419e-11)
(2.99669 0.000145676 -7.12098e-11)
(2.99308 0.000488641 -1.73417e-10)
(2.97933 0.000830999 -2.85837e-10)
(2.95567 0.00349885 -9.23847e-10)
(2.86484 0.00672677 -1.57988e-09)
(2.62572 0.0269661 -5.54186e-09)
(2.0262 0.0644327 -1.16078e-08)
(0.929721 0.186192 -1.75869e-08)
(0.445081 0.165953 2.9464e-09)
(0.5485 0.159272 1.97959e-10)
(0.580876 0.167962 -1.06054e-09)
(0.527037 0.17764 -9.02059e-10)
(0.437276 0.188939 -6.29065e-10)
(0.351215 0.199887 -7.11651e-10)
(0.279422 0.210472 -9.05475e-10)
(0.205116 0.219267 -1.01338e-09)
(0.120877 0.224781 -1.15245e-09)
(0.0506198 0.225449 -1.24839e-09)
(3 1.00819e-07 -3.23742e-13)
(2.99999 5.53148e-07 -1.78916e-12)
(2.99997 2.04985e-06 -3.62565e-12)
(2.99991 5.22819e-06 -7.45456e-12)
(2.99979 1.44597e-05 -1.21046e-11)
(2.99947 3.26193e-05 -2.12003e-11)
(2.99883 8.9078e-05 -3.76329e-11)
(2.99688 0.000178431 -5.76757e-11)
(2.99334 0.000603205 -1.76397e-10)
(2.98078 0.000940656 -1.68427e-10)
(2.95846 0.00443102 -1.10315e-09)
(2.87506 0.00808464 -1.31446e-09)
(2.65732 0.0329996 -5.82132e-09)
(2.10172 0.0789625 -1.17048e-08)
(0.983394 0.233848 -1.92259e-08)
(0.450963 0.214959 2.41486e-09)
(0.561843 0.206068 3.31376e-10)
(0.598961 0.215843 -1.00438e-09)
(0.545552 0.227787 -9.18873e-10)
(0.456772 0.243122 -6.84068e-10)
(0.370632 0.258093 -6.16941e-10)
(0.297995 0.27295 -7.63938e-10)
(0.221537 0.286469 -7.96286e-10)
(0.132614 0.296307 -8.02057e-10)
(0.0557814 0.299022 -7.09291e-10)
(3 1.27666e-07 -3.25709e-13)
(2.99999 6.94724e-07 -1.79272e-12)
(2.99997 2.58866e-06 -3.65632e-12)
(2.99991 6.63309e-06 -7.53695e-12)
(2.99981 1.83727e-05 -1.23692e-11)
(2.9995 4.19909e-05 -2.20223e-11)
(2.9989 0.000111539 -3.85715e-11)
(2.99712 0.000242346 -6.91976e-11)
(2.99372 0.000699714 -1.59611e-10)
(2.98247 0.00131568 -2.50953e-10)
(2.96177 0.00484047 -9.29428e-10)
(2.88689 0.00922776 -1.37185e-09)
(2.69351 0.035674 -5.3686e-09)
(2.19215 0.0866436 -1.1387e-08)
(1.05657 0.265621 -2.07822e-08)
(0.473883 0.263042 8.10208e-10)
(0.584989 0.256813 1.7881e-11)
(0.625655 0.266157 -9.08948e-10)
(0.573127 0.278979 -9.40763e-10)
(0.485648 0.297861 -8.30275e-10)
(0.398905 0.317491 -7.08544e-10)
(0.324689 0.33773 -6.26167e-10)
(0.245301 0.357542 -5.08813e-10)
(0.15011 0.374222 -3.62096e-10)
(0.0637932 0.381856 -1.65012e-10)
(3 1.41893e-07 -3.1912e-13)
(2.99999 7.71555e-07 -1.76202e-12)
(2.99997 2.87221e-06 -3.55936e-12)
(2.99992 7.36302e-06 -7.32689e-12)
(2.99982 2.03175e-05 -1.17445e-11)
(2.99955 4.64798e-05 -2.0731e-11)
(2.99899 0.000121727 -3.46168e-11)
(2.99737 0.000270206 -6.12464e-11)
(2.99424 0.000722483 -1.29893e-10)
(2.98419 0.0015326 -2.24545e-10)
(2.96519 0.00462795 -7.13744e-10)
(2.8991 0.00953177 -9.43334e-10)
(2.73036 0.0328681 -4.06523e-09)
(2.28916 0.0803289 -8.29908e-09)
(1.15273 0.245978 -1.32333e-08)
(0.526718 0.297683 -4.08281e-09)
(0.621359 0.30898 -1.24132e-09)
(0.66 0.317614 -8.88231e-10)
(0.608835 0.331001 -9.30238e-10)
(0.5238 0.353668 -9.05505e-10)
(0.436665 0.378994 -7.78574e-10)
(0.360753 0.406139 -5.94313e-10)
(0.278257 0.434542 -3.15489e-10)
(0.175903 0.461761 1.18145e-11)
(0.0770003 0.479739 3.18901e-10)
(3 1.51071e-07 -3.1741e-13)
(2.99999 8.22993e-07 -1.75268e-12)
(2.99997 3.0566e-06 -3.53698e-12)
(2.99993 7.82995e-06 -7.27585e-12)
(2.99984 2.15374e-05 -1.16192e-11)
(2.99959 4.91983e-05 -2.04709e-11)
(2.99909 0.000128074 -3.39099e-11)
(2.99762 0.000285095 -6.0051e-11)
(2.99477 0.000739874 -1.23846e-10)
(2.98569 0.00164923 -2.25937e-10)
(2.96855 0.00432754 -5.9258e-10)
(2.90908 0.010149 -1.11665e-09)
(2.7586 0.0289725 -3.21419e-09)
(2.3572 0.0718786 -7.02103e-09)
(1.24586 0.208599 -1.31206e-08)
(0.570693 0.336976 -8.60776e-09)
(0.638867 0.370822 -2.78426e-09)
(0.67771 0.369856 -7.22773e-10)
(0.637962 0.382628 -8.25954e-10)
(0.562726 0.409179 -9.79257e-10)
(0.479648 0.441865 -8.79425e-10)
(0.40486 0.477834 -5.71875e-10)
(0.321889 0.517784 -1.96195e-10)
(0.213931 0.56166 3.07954e-10)
(0.0986443 0.601749 6.59592e-10)
(3 1.77091e-07 -3.22343e-13)
(2.99999 9.67638e-07 -1.77074e-12)
(2.99998 3.60526e-06 -3.61372e-12)
(2.99994 9.2601e-06 -7.43407e-12)
(2.99986 2.56077e-05 -1.2154e-11)
(2.99963 5.91842e-05 -2.15654e-11)
(2.99919 0.000151654 -3.7227e-11)
(2.99788 0.000358257 -6.75742e-11)
(2.99538 0.000823821 -1.3445e-10)
(2.98716 0.00212332 -3.04593e-10)
(2.97238 0.00446319 -4.78943e-10)
(2.91862 0.0115343 -1.59393e-09)
(2.78549 0.0280759 -2.49794e-09)
(2.42354 0.0725409 -6.85097e-09)
(1.36918 0.203529 -1.24477e-08)
(0.650929 0.388984 -1.07923e-08)
(0.648614 0.42195 -1.00237e-09)
(0.676922 0.417415 -3.65236e-10)
(0.658996 0.432874 -7.60105e-10)
(0.599771 0.462004 -8.76936e-10)
(0.526018 0.503659 -9.58731e-10)
(0.456511 0.550756 -5.24034e-10)
(0.378649 0.605547 -2.02722e-10)
(0.272958 0.675809 4.14123e-10)
(0.138116 0.763043 7.98681e-10)
(3 2.51825e-07 -3.20083e-13)
(2.99999 5.20964e-07 -1.74006e-12)
(2.99998 3.76248e-06 -3.50608e-12)
(2.99995 5.72625e-06 -7.38478e-12)
(2.99988 2.60344e-05 -1.12491e-11)
(2.99969 3.66909e-05 -2.02596e-11)
(2.99934 0.000156281 -3.24207e-11)
(2.99818 0.000203368 -5.70802e-11)
(2.99625 0.0009536 -1.13089e-10)
(2.98871 0.000921133 -2.05374e-10)
(2.9765 0.00640004 -5.12888e-10)
(2.92791 0.00382107 -1.03182e-09)
(2.81245 0.0410887 -2.32233e-09)
(2.49025 0.0525047 -7.00858e-09)
(1.51629 0.221032 -1.13608e-08)
(0.752953 0.442481 -1.30049e-08)
(0.657955 0.456048 -3.73765e-10)
(0.683242 0.456063 -1.25368e-10)
(0.679807 0.477377 -8.39637e-10)
(0.636636 0.510451 -9.2205e-10)
(0.577175 0.560361 -9.36491e-10)
(0.517542 0.619559 -6.96891e-10)
(0.454835 0.696287 -2.36642e-10)
(0.370542 0.812709 4.43673e-10)
(0.2121 1.02066 6.887e-10)
(3 1.35075e-08 -7.2654e-15)
(2.99998 7.35119e-08 -3.32369e-14)
(2.99996 2.73604e-07 -9.97437e-14)
(2.9999 7.00897e-07 -2.14468e-13)
(2.99977 1.94007e-06 -5.19414e-13)
(2.99939 4.41763e-06 -1.05159e-12)
(2.99867 1.17995e-05 -2.32779e-12)
(2.99638 2.54264e-05 -4.82117e-12)
(2.99246 7.29726e-05 -8.84466e-12)
(2.97732 0.000148901 -1.94213e-11)
(2.95119 0.000470705 -2.69473e-11)
(2.84951 0.000998705 -5.31233e-11)
(2.57953 0.00368419 5.20872e-11)
(1.91802 0.00877472 2.52573e-10)
(0.862 0.0251345 8.7902e-10)
(0.45497 0.0238464 5.12527e-10)
(0.540476 0.0244407 6.79544e-11)
(0.564903 0.0265915 5.9275e-11)
(0.511015 0.0287534 1.55294e-10)
(0.419539 0.0309372 2.56401e-10)
(0.332001 0.0334764 7.84166e-11)
(0.260642 0.0362311 -1.34102e-10)
(0.188907 0.0385178 -2.8182e-10)
(0.110415 0.0402657 -4.50838e-10)
(0.0485322 0.0427408 -6.03459e-10)
(3 4.02665e-08 -7.42932e-15)
(2.99998 2.19226e-07 -3.38849e-14)
(2.99996 8.16387e-07 -1.01995e-13)
(2.9999 2.09003e-06 -2.19288e-13)
(2.99977 5.79512e-06 -5.34026e-13)
(2.9994 1.31851e-05 -1.08112e-12)
(2.99869 3.53814e-05 -2.41967e-12)
(2.99643 7.59648e-05 -4.99399e-12)
(2.99256 0.000220683 -9.45457e-12)
(2.97765 0.000447892 -2.04492e-11)
(2.95192 0.00143791 -3.09111e-11)
(2.85194 0.00304898 -6.03271e-11)
(2.58677 0.0114116 2.62748e-11)
(1.93431 0.0272895 1.98819e-10)
(0.871429 0.0768004 8.0878e-10)
(0.451439 0.0691166 5.15696e-10)
(0.539944 0.067631 6.8884e-11)
(0.565405 0.071338 6.3209e-11)
(0.511172 0.074955 1.57998e-10)
(0.419802 0.078578 2.57321e-10)
(0.332638 0.0825202 7.85268e-11)
(0.261332 0.0864397 -1.19395e-10)
(0.189314 0.0890795 -2.55246e-10)
(0.10991 0.0901313 -4.07593e-10)
(0.0468267 0.0901902 -5.44363e-10)
(3 6.59856e-08 -7.65778e-15)
(2.99998 3.58726e-07 -3.49394e-14)
(2.99996 1.33931e-06 -1.05767e-13)
(2.9999 3.42885e-06 -2.27382e-13)
(2.99978 9.54696e-06 -5.59845e-13)
(2.99942 2.17576e-05 -1.13337e-12)
(2.99873 5.86555e-05 -2.59125e-12)
(2.99653 0.000126471 -5.31466e-12)
(2.99277 0.000368403 -1.06579e-11)
(2.97832 0.000750907 -2.24443e-11)
(2.95342 0.00242548 -3.90617e-11)
(2.8571 0.00513536 -7.51237e-11)
(2.60233 0.0193161 -2.93025e-11)
(1.97061 0.0464475 7.90802e-11)
(0.894162 0.132193 6.39701e-10)
(0.448025 0.117432 5.18077e-10)
(0.542502 0.113625 6.74437e-11)
(0.57049 0.119968 6.01052e-11)
(0.516152 0.12661 1.50662e-10)
(0.425339 0.133884 2.47207e-10)
(0.338784 0.141162 8.03672e-11)
(0.267405 0.1481 -8.11019e-11)
(0.194597 0.153304 -1.84504e-10)
(0.113487 0.156003 -2.99078e-10)
(0.0477474 0.155903 -4.10257e-10)
(3 8.16566e-08 -7.93915e-15)
(2.99998 4.47686e-07 -3.60442e-14)
(2.99996 1.66114e-06 -1.09916e-13)
(2.9999 4.23373e-06 -2.36251e-13)
(2.99979 1.17473e-05 -5.89362e-13)
(2.99944 2.64559e-05 -1.19132e-12)
(2.99878 7.28096e-05 -2.80267e-12)
(2.99669 0.000145675 -5.64762e-12)
(2.99308 0.000488641 -1.23435e-11)
(2.97933 0.000830998 -2.46522e-11)
(2.95567 0.00349885 -5.07639e-11)
(2.86484 0.00672677 -9.52386e-11)
(2.62572 0.0269661 -1.16594e-10)
(2.0262 0.0644327 -1.09952e-10)
(0.929721 0.186192 3.33946e-10)
(0.445082 0.165953 5.07955e-10)
(0.5485 0.159272 8.03526e-11)
(0.580876 0.167962 4.8204e-11)
(0.527037 0.17764 1.12056e-10)
(0.437276 0.188939 1.81812e-10)
(0.351215 0.199887 7.64619e-11)
(0.279422 0.210472 -2.47425e-11)
(0.205116 0.219267 -7.42259e-11)
(0.120877 0.224781 -1.29267e-10)
(0.0506198 0.225449 -1.96621e-10)
(3 1.00819e-07 -8.06371e-15)
(2.99999 5.53148e-07 -3.64824e-14)
(2.99997 2.04985e-06 -1.12855e-13)
(2.99991 5.22819e-06 -2.44223e-13)
(2.99979 1.44597e-05 -6.22066e-13)
(2.99947 3.26193e-05 -1.27234e-12)
(2.99883 8.9078e-05 -3.06386e-12)
(2.99688 0.000178431 -6.52085e-12)
(2.99334 0.000603205 -1.33842e-11)
(2.98078 0.000940656 -3.34721e-11)
(2.95846 0.00443102 -5.13452e-11)
(2.87506 0.00808463 -1.33445e-10)
(2.65732 0.0329996 -1.94675e-10)
(2.10172 0.0789624 -3.41099e-10)
(0.983394 0.233848 -9.54823e-11)
(0.450963 0.214959 4.74583e-10)
(0.561843 0.206068 1.20233e-10)
(0.598961 0.215843 4.24146e-11)
(0.545552 0.227787 8.70079e-11)
(0.456772 0.243122 1.53242e-10)
(0.370632 0.258093 1.04189e-10)
(0.297995 0.272951 2.8401e-11)
(0.221537 0.286469 1.5635e-11)
(0.132614 0.296307 2.59339e-11)
(0.0557814 0.299022 3.72902e-11)
(3 1.27666e-07 -7.82235e-15)
(2.99999 6.94725e-07 -3.53634e-14)
(2.99997 2.58866e-06 -1.0937e-13)
(2.99991 6.6331e-06 -2.3556e-13)
(2.99981 1.83727e-05 -6.0225e-13)
(2.9995 4.19909e-05 -1.21576e-12)
(2.9989 0.000111539 -3.01564e-12)
(2.99712 0.000242346 -5.98073e-12)
(2.99372 0.000699714 -1.46997e-11)