/*--------------------------------*- C++ -*----------------------------------*\
| =========                 |                                                 |
| \\      /  F ield         | OpenFOAM: The Open Source CFD Toolbox           |
|  \\    /   O peration     | Version:  4.1                                   |
|   \\  /    A nd           | Web:      www.OpenFOAM.org                      |
|    \\/     M anipulation  |                                                 |
\*---------------------------------------------------------------------------*/
FoamFile
{
    version     2.0;
    format      ascii;
    class       surfaceScalarField;
    location    "1.7";
    object      phi;
}
// * * * * * * * * * * * * * * * * * * * * * * * * * * * * * * * * * * * * * //

dimensions      [1 0 -1 0 0 0 0];

internalField   nonuniform List<scalar> 
150500
(
0.0168001
9.57555e-11
-3.26878e-12
0.0168001
5.33707e-10
-1.15748e-11
0.0168001
1.98321e-09
-1.35574e-11
0.0168
5.10954e-09
-2.11492e-11
0.0168
1.4008e-08
-2.13908e-11
0.0168
3.20807e-08
-2.78904e-11
0.0167999
8.34963e-08
-2.73595e-11
0.0167997
1.85082e-07
-3.43618e-11
0.016799
4.96139e-07
-3.50575e-11
0.0167979
1.05743e-06
-4.93977e-11
0.0167934
3.40101e-06
-4.61006e-11
0.0167861
6.68791e-06
-1.45742e-10
0.016753
2.89903e-05
-8.92434e-11
0.0166655
7.85743e-05
-5.13547e-10
0.0162333
0.000401798
-1.0767e-09
0.0149059
0.00128799
-1.39654e-09
0.0136225
0.00127891
-6.57983e-10
0.0123278
0.00128468
-6.12095e-10
0.0109571
0.00134525
-6.95261e-10
0.00948578
0.00144991
-7.83511e-10
0.00786642
0.00159353
-7.44935e-10
0.00607517
0.00174421
-7.20399e-10
0.00415354
0.00188512
-7.22217e-10
0.00212186
0.00200813
-7.16065e-10
0.00210366
-7.4993e-10
0.0168001
2.00758e-10
-3.2649e-12
0.0168001
1.11221e-09
-1.15769e-11
0.0168001
4.13393e-09
-1.35554e-11
0.0168
1.06149e-08
-2.1149e-11
0.0168
2.916e-08
-2.13867e-11
0.0168
6.66694e-08
-2.78833e-11
0.0167999
1.739e-07
-2.73401e-11
0.0167997
3.85167e-07
-3.43157e-11
0.016799
1.03124e-06
-3.4968e-11
0.0167977
2.20869e-06
-4.90802e-11
0.0167933
6.88417e-06
-4.59637e-11
0.0167851
1.42052e-05
-1.43737e-10
0.0167527
5.74865e-05
-8.76519e-11
0.0166668
0.000155413
-5.01142e-10
0.0162601
0.000779812
-1.04001e-09
0.0149773
0.00253275
-1.38774e-09
0.0136823
0.00256811
-6.65616e-10
0.0123809
0.00257421
-6.06366e-10
0.0110041
0.00269506
-6.845e-10
0.00951064
0.00292168
-7.69333e-10
0.00785634
0.00322158
-7.36723e-10
0.00604219
0.00351119
-7.16001e-10
0.00410661
0.00378474
-7.17508e-10
0.00207267
0.0040185
-7.14947e-10
0.00415786
-7.52062e-10
0.0168001
3.10386e-10
-3.2582e-12
0.0168001
1.71477e-09
-1.15784e-11
0.0168001
6.38507e-09
-1.35545e-11
0.0168
1.63724e-08
-2.11482e-11
0.0168
4.51541e-08
-2.13825e-11
0.0168
1.03223e-07
-2.78746e-11
0.0167999
2.70342e-07
-2.73199e-11
0.0167996
6.01342e-07
-3.42634e-11
0.0167989
1.59502e-06
-3.48772e-11
0.0167975
3.51937e-06
-4.87975e-11
0.0167935
1.0004e-05
-4.52896e-11
0.0167833
2.36586e-05
-1.43683e-10
0.0167547
8.17337e-05
-8.05207e-11
0.0166854
0.000221804
-4.72381e-10
0.0163332
0.00109772
-9.58524e-10
0.0151315
0.00369469
-1.35349e-09
0.0137966
0.00389069
-6.91931e-10
0.0124753
0.00388133
-5.99879e-10
0.0111005
0.00404295
-6.68362e-10
0.00960598
0.00439556
-7.49284e-10
0.00793974
0.00486173
-7.27265e-10
0.00610561
0.0052972
-7.1789e-10
0.00415095
0.00570267
-7.19709e-10
0.00209814
0.00604719
-7.14792e-10
0.00623735
-7.51432e-10
0.0168001
4.17317e-10
-3.24762e-12
0.0168001
2.30937e-09
-1.15808e-11
0.0168001
8.59323e-09
-1.35539e-11
0.0168
2.206e-08
-2.11478e-11
0.0168
6.06745e-08
-2.13786e-11
0.0168
1.38752e-07
-2.78675e-11
0.0167999
3.61818e-07
-2.73015e-11
0.0167997
8.04872e-07
-3.42113e-11
0.016799
2.12113e-06
-3.47697e-11
0.0167977
4.67772e-06
-4.84956e-11
0.0167937
1.31759e-05
-4.454e-11
0.0167857
3.09803e-05
-1.40772e-10
0.0167578
0.000105503
-7.3513e-11
0.0166932
0.000284212
-4.44341e-10
0.0163992
0.00136152
-8.74023e-10
0.0152454
0.00480941
-1.31933e-09
0.0138914
0.00523065
-7.0883e-10
0.012589
0.00516901
-5.77028e-10
0.0112499
0.00535463
-6.39117e-10
0.00977163
0.00585027
-7.26581e-10
0.00810752
0.00649767
-7.12001e-10
0.0062715
0.00708476
-7.12669e-10
0.00428287
0.00765334
-7.17777e-10
0.00217595
0.00812952
-7.06089e-10
0.00839493
-7.43818e-10
0.0168001
5.36817e-10
-3.2342e-12
0.0168001
2.97719e-09
-1.15854e-11
0.0168001
1.10721e-08
-1.35549e-11
0.0168
2.84766e-08
-2.11509e-11
0.0168
7.81079e-08
-2.13809e-11
0.0168
1.78862e-07
-2.7872e-11
0.0167999
4.64503e-07
-2.73096e-11
0.0167996
1.03444e-06
-3.42049e-11
0.0167989
2.7072e-06
-3.47698e-11
0.0167975
5.99184e-06
-4.83459e-11
0.0167932
1.66102e-05
-4.4328e-11
0.0167847
3.89052e-05
-1.36611e-10
0.0167587
0.000127774
-6.73687e-11
0.0166922
0.000348419
-4.11018e-10
0.0164547
0.001573
-7.68848e-10
0.0153292
0.00589732
-1.28105e-09
0.0139434
0.00660035
-7.31381e-10
0.0127186
0.00638096
-5.22489e-10
0.0114459
0.00660108
-5.94502e-10
0.00999974
0.00727686
-7.09305e-10
0.00836043
0.00811578
-7.02189e-10
0.00651941
0.00888428
-7.31788e-10
0.00450772
0.00962923
-7.29488e-10
0.00231994
0.0102997
-7.21695e-10
0.0106977
-7.44518e-10
0.0168001
7.04641e-10
-3.2191e-12
0.0168001
3.87204e-09
-1.15922e-11
0.0168001
1.4437e-08
-1.35622e-11
0.0168
3.69545e-08
-2.1162e-11
0.0168
1.0238e-07
-2.14033e-11
0.0168
2.34239e-07
-2.79103e-11
0.0167998
6.14468e-07
-2.74066e-11
0.0167994
1.38031e-06
-3.43438e-11
0.0167985
3.49204e-06
-3.51613e-11
0.0167958
8.56543e-06
-4.91516e-11
0.0167924
1.92799e-05
-4.3637e-11
0.016777
5.34636e-05
-1.43276e-10
0.0167565
0.000144628
-4.73147e-11
0.0166865
0.000418089
-4.36454e-10
0.0164911
0.00174828
-6.22477e-10
0.0153259
0.00702584
-1.27812e-09
0.0141017
0.00780781
-8.07949e-10
0.0129273
0.0075464
-4.05119e-10
0.0116839
0.0078225
-5.27998e-10
0.0103024
0.00864139
-6.91328e-10
0.00870385
0.00969495
-6.86164e-10
0.00687243
0.0106699
-7.24743e-10
0.00482324
0.0116377
-7.20092e-10
0.00251832
0.0125748
-7.05897e-10
0.0131984
-7.36973e-10
0.0168001
8.365e-10
-3.19943e-12
0.0168001
4.57406e-09
-1.1604e-11
0.0168001
1.7012e-08
-1.35809e-11
0.0168
4.36391e-08
-2.11954e-11
0.0168
1.20698e-07
-2.15003e-11
0.0168
2.78257e-07
-2.81049e-11
0.0167999
7.14948e-07
-2.79906e-11
0.0167995
1.6958e-06
-3.57605e-11
0.016799
3.83524e-06
-3.47527e-11
0.016797
1.04367e-05
-7.78882e-11
0.0167949
2.07357e-05
-5.78485e-12
0.0167887
5.86423e-05
-1.86082e-10
0.0167775
0.000152204
2.72857e-11
0.0167086
0.000487814
-3.77038e-10
0.0165846
0.00185464
-4.98066e-10
0.015481
0.00809062
-1.33434e-09
0.0145249
0.00875363
-6.08754e-10
0.0132906
0.00877088
-4.94598e-10
0.0119388
0.00915432
-5.36707e-10
0.0106398
0.00992069
-6.15349e-10
0.00912037
0.0111878
-6.81876e-10
0.00733543
0.0124042
-7.12663e-10
0.00526301
0.0136653
-7.07527e-10
0.00286525
0.0149395
-6.75984e-10
0.0160438
-7.18733e-10
0.0168001
8.35763e-10
-3.1729e-12
0.0168001
4.59856e-09
-1.1653e-11
0.0168001
1.70928e-08
-1.35856e-11
0.0168001
4.40233e-08
-2.12966e-11
0.0168001
1.21159e-07
-2.16718e-11
0.0168
2.79233e-07
-2.85725e-11
0.0168
7.19424e-07
-2.87753e-11
0.0168
1.66181e-06
-3.94261e-11
0.0167997
4.06737e-06
-3.48869e-11
0.0168004
9.57346e-06
-8.87421e-11
0.0167966
2.39537e-05
9.25699e-13
0.0167965
5.78707e-05
-2.08661e-10
0.0167785
0.000167339
8.12744e-11
0.0167336
0.000528924
-4.10226e-10
0.0166023
0.00197326
-3.1326e-10
0.0156857
0.00897073
-1.32663e-09
0.0145809
0.00985082
-5.28845e-10
0.0135267
0.00981423
-4.79518e-10
0.012311
0.0103518
-5.41086e-10
0.0110429
0.0111697
-5.80773e-10
0.00966634
0.012545
-6.52651e-10
0.00796205
0.0140725
-6.86754e-10
0.00590931
0.015676
-7.03853e-10
0.00338467
0.0174533
-6.91e-10
0.0194102
-7.18155e-10
0.0168001
9.64357e-10
-3.15707e-12
0.0168001
4.14888e-09
-1.16771e-11
0.0168001
1.68073e-08
-1.3557e-11
0.0168001
4.1135e-08
-2.12698e-11
0.0168001
1.1692e-07
-2.15031e-11
0.0168001
2.58888e-07
-2.81944e-11
0.0168001
6.93157e-07
-2.78644e-11
0.0168002
1.48916e-06
-3.52944e-11
0.0168001
4.0756e-06
-3.54517e-11
0.0168017
7.8998e-06
-5.1622e-11
0.0167979
2.70586e-05
-5.5492e-11
0.0168084
4.71337e-05
-9.69367e-11
0.0167712
0.000201487
-9.99228e-11
0.0167963
0.000501557
-3.42424e-10
0.0166549
0.00210334
-3.85788e-10
0.015964
0.00962435
-1.31138e-09
0.014851
0.0109593
-3.64322e-10
0.0138396
0.0108207
-3.66568e-10
0.0127772
0.0113963
-4.77394e-10
0.0116365
0.01229
-5.16824e-10
0.0103693
0.0137863
-5.90679e-10
0.00883329
0.0155569
-6.59666e-10
0.00698175
0.0174765
-6.33038e-10
0.0043665
0.0200388
-6.78367e-10
0.0237609
-6.50299e-10
0.0168001
-3.21645e-12
1.53167e-09
0.0168001
-1.16785e-11
8.39509e-10
0.0168001
-1.36938e-11
1.98221e-08
0.0168001
-2.1606e-11
1.45719e-08
0.0168001
-2.14427e-11
1.29103e-07
0.0168002
-2.86367e-11
9.4575e-08
0.0168001
-2.79205e-11
7.85986e-07
0.0168011
-3.59321e-11
4.4785e-07
0.0167997
-3.50672e-11
5.41184e-06
0.0168062
-5.24773e-11
1.41551e-06
0.0167904
-5.55857e-11
4.2207e-05
0.0168307
-9.33527e-11
6.53629e-06
0.0167149
-1.04002e-10
0.00031471
0.0169412
-3.03567e-10
0.000272304
0.0167709
-4.50494e-10
0.0022623
0.0166739
-1.40963e-09
0.0096822
0.0154837
-2.28683e-10
0.0121488
0.0143706
-2.63839e-10
0.0119303
0.0134239
-4.20973e-10
0.0123296
0.0123709
-4.70755e-10
0.0133281
0.0113257
-5.63898e-10
0.014814
0.0101592
-5.75029e-10
0.0166813
0.00847685
-6.18578e-10
0.0191069
0.00599001
-6.18994e-10
0.0224836
-5.55166e-10
0.0297358
0.0168001
9.76629e-11
-3.70025e-16
0.0168001
5.34211e-10
-2.10426e-15
0.0168001
1.98523e-09
-3.93672e-15
0.0168
5.11118e-09
-8.00845e-15
0.0168
1.40116e-08
-1.07968e-14
0.0168
3.2087e-08
-1.76592e-14
0.0167999
8.35108e-08
-1.9272e-14
0.0167997
1.85115e-07
-2.80675e-14
0.016799
4.96208e-07
-2.24992e-14
0.0167979
1.05764e-06
-2.88744e-14
0.0167934
3.40124e-06
3.91047e-14
0.0167861
6.68911e-06
-4.00783e-14
0.0167529
2.89921e-05
4.27826e-13
0.0166655
7.85836e-05
4.44767e-13
0.0162332
0.000401844
-7.10509e-13
0.0149056
0.00128806
-1.26714e-11
0.0136222
0.00127892
-1.96205e-11
0.0123275
0.00128469
-2.39784e-11
0.0109568
0.00134527
-2.53051e-11
0.00948548
0.00144992
-2.57072e-11
0.0078662
0.00159353
-2.39338e-11
0.00607504
0.00174418
-2.34135e-11
0.00415345
0.00188507
-2.18514e-11
0.00212183
0.00200809
-2.62513e-11
0.00210365
-2.70485e-11
0.0168001
2.04114e-10
-3.69916e-16
0.0168001
1.11435e-09
-2.10376e-15
0.0168001
4.13672e-09
-3.93581e-15
0.0168
1.06181e-08
-8.00633e-15
0.0168
2.9165e-08
-1.07938e-14
0.0168
6.66781e-08
-1.76526e-14
0.0167999
1.73917e-07
-1.92705e-14
0.0167997
3.85207e-07
-2.80753e-14
0.016799
1.03132e-06
-2.25902e-14
0.0167977
2.2089e-06
-2.929e-14
0.0167933
6.88471e-06
3.80909e-14
0.0167851
1.42057e-05
-4.46159e-14
0.0167527
5.74917e-05
4.13083e-13
0.0166667
0.000155432
4.1128e-13
0.0162599
0.000779905
-6.57055e-13
0.014977
0.00253289
-1.20858e-11
0.013682
0.00256812
-1.89038e-11
0.0123806
0.00257422
-2.34885e-11
0.0110038
0.00269509
-2.48592e-11
0.00951038
0.0029217
-2.53326e-11
0.00785616
0.00322158
-2.35716e-11
0.00604209
0.00351115
-2.3064e-11
0.00410654
0.00378466
-2.1811e-11
0.00207264
0.00401842
-2.55884e-11
0.00415785
-2.69859e-11
0.0168001
3.15652e-10
-3.69149e-16
0.0168001
1.71783e-09
-2.10009e-15
0.0168001
6.3888e-09
-3.92422e-15
0.0168
1.63761e-08
-7.98105e-15
0.0168
4.5159e-08
-1.07108e-14
0.0168
1.0323e-07
-1.74794e-14
0.0167999
2.70355e-07
-1.87131e-14
0.0167996
6.01374e-07
-2.67973e-14
0.0167989
1.59509e-06
-1.98105e-14
0.0167975
3.51956e-06
-1.73599e-14
0.0167935
1.00045e-05
1.59787e-14
0.0167833
2.36603e-05
1.29866e-13
0.0167547
8.17393e-05
1.69803e-13
0.0166854
0.000221824
3.39007e-13
0.016333
0.00109783
-1.10801e-12
0.0151313
0.00369485
-1.15947e-11
0.0137963
0.00389071
-1.73184e-11
0.0124751
0.00388136
-2.25122e-11
0.0111003
0.004043
-2.40531e-11
0.00960575
0.00439558
-2.4753e-11
0.00793958
0.00486173
-2.28424e-11
0.00610552
0.00529715
-2.28418e-11
0.00415088
0.00570256
-2.19223e-11
0.00209811
0.0060471
-2.46724e-11
0.00623734
-2.62731e-11
0.0168001
4.24003e-10
-3.69083e-16
0.0168001
2.31245e-09
-2.0989e-15
0.0168001
8.5965e-09
-3.92367e-15
0.0168
2.2061e-08
-7.97936e-15
0.0168
6.06733e-08
-1.07108e-14
0.0168
1.38746e-07
-1.74807e-14
0.0167999
3.61802e-07
-1.87318e-14
0.0167997
8.04846e-07
-2.68507e-14
0.016799
2.12108e-06
-1.99698e-14
0.0167977
4.67768e-06
-1.79665e-14
0.0167937
1.31759e-05
1.50797e-14
0.0167857
3.09821e-05
1.25907e-13
0.0167578
0.000105507
1.60851e-13
0.0166932
0.000284234
3.39616e-13
0.016399
0.00136164
-8.86582e-13
0.0152452
0.00480958
-1.03654e-11
0.0138912
0.00523067
-1.58268e-11
0.0125888
0.00516906
-2.16493e-11
0.0112497
0.00535472
-2.3215e-11
0.00977142
0.00585029
-2.40016e-11
0.00810738
0.00649765
-2.20076e-11
0.00627145
0.00708469
-2.2516e-11
0.00428281
0.00765324
-2.1701e-11
0.00217592
0.0081294
-2.32879e-11
0.00839491
-2.54046e-11
0.0168001
5.44398e-10
-3.68957e-16
0.0168001
2.98012e-09
-2.09738e-15
0.0168001
1.10718e-08
-3.92263e-15
0.0168
2.847e-08
-7.97588e-15
0.0168
7.80869e-08
-1.07061e-14
0.0168
1.78813e-07
-1.74697e-14
0.0167999
4.6438e-07
-1.87156e-14
0.0167996
1.03418e-06
-2.68317e-14
0.0167989
2.70662e-06
-1.98636e-14
0.0167975
5.98999e-06
-1.82992e-14
0.0167932
1.66072e-05
1.91357e-14
0.0167847
3.89011e-05
1.13574e-13
0.0167587
0.000127781
1.99554e-13
0.0166922
0.000348416
4.11373e-13
0.0164546
0.00157315
-4.12291e-13
0.015329
0.00589748
-8.68457e-12
0.0139433
0.00660031
-1.45491e-11
0.0127184
0.00638108
-2.12086e-11
0.0114457
0.00660119
-2.22812e-11
0.00999953
0.00727686
-2.27587e-11
0.00836027
0.00811574
-2.12689e-11
0.00651935
0.00888419
-2.25599e-11
0.00450767
0.00962911
-2.18046e-11
0.00231993
0.0102996
-2.35511e-11
0.0106977
-2.46526e-11
0.0168001
7.1451e-10
-3.68364e-16
0.0168001
3.87367e-09
-2.09372e-15
0.0168001
1.44275e-08
-3.91498e-15
0.0168
3.69303e-08
-7.95769e-15
0.0168
1.02301e-07
-1.0656e-14
0.0168
2.3406e-07
-1.7369e-14
0.0167998
6.1398e-07
-1.84114e-14
0.0167994
1.37913e-06
-2.62919e-14
0.0167985
3.49093e-06
-1.80825e-14
0.0167958
8.55006e-06
-1.45161e-14
0.0167924
1.92904e-05
2.19783e-14
0.016777
5.34428e-05
1.64947e-13
0.0167564
0.000144657
1.76837e-13
0.0166864
0.000418132
7.98003e-13
0.016491
0.00174841
1.54934e-13
0.0153257
0.007026
-6.46216e-12
0.0141013
0.00780804
-1.31835e-11
0.0129271
0.00754634
-2.11691e-11
0.0116838
0.00782249
-2.13183e-11
0.0103022
0.00864141
-2.1413e-11
0.00870375
0.00969487
-2.05803e-11
0.0068724
0.0106699
-2.23838e-11
0.00482323
0.0116376
-2.10904e-11
0.00251829
0.0125747
-2.21481e-11
0.0131984
-2.34844e-11
0.0168001
8.49254e-10
-3.6648e-16
0.0168001
4.55907e-09
-2.08411e-15
0.0168001
1.70047e-08
-3.88571e-15
0.0168
4.3585e-08
-7.89698e-15
0.0168
1.20589e-07
-1.04464e-14
0.0168
2.77978e-07
-1.69445e-14
0.0167999
7.14425e-07
-1.70382e-14
0.0167995
1.69392e-06
-2.28799e-14
0.016799
3.83429e-06
-1.75015e-14
0.016797
1.04313e-05
4.8138e-14
0.0167949
2.07354e-05
-4.82597e-14
0.0167887
5.86311e-05
2.89369e-13
0.0167774
0.000152224
1.18544e-13
0.0167086
0.000487802
8.5043e-13
0.0165846
0.00185475
1.0558e-12
0.015481
0.00809074
-3.359e-12
0.014525
0.00875371
-1.5714e-11
0.0132906
0.00877093
-1.86366e-11
0.0119388
0.00915431
-1.95188e-11
0.0106398
0.00992065
-2.03229e-11
0.00912036
0.0111878
-2.05841e-11
0.00733549
0.0124042
-2.20479e-11
0.00526302
0.0136653
-2.02715e-11
0.00286524
0.0149393
-2.17176e-11
0.0160438
-2.09504e-11
0.0168001
8.42822e-10
-3.66971e-16
0.0168001
4.58457e-09
-2.08723e-15
0.0168001
1.70921e-08
-3.89329e-15
0.0168001
4.40077e-08
-7.90548e-15
0.0168001
1.21173e-07
-1.04735e-14
0.0168
2.79361e-07
-1.68764e-14
0.0168
7.19798e-07
-1.74858e-14
0.0168
1.66379e-06
-2.00092e-14
0.0167997
4.06761e-06
-2.10002e-14
0.0168004
9.59125e-06
2.93202e-14
0.0167966
2.39327e-05
-1.09567e-14
0.0167964
5.79203e-05
2.4374e-13
0.0167785
0.000167267
2.19324e-13
0.0167336
0.000528933
1.339e-12
0.0166025
0.00197315
1.63422e-12
0.0156858
0.00897073
-3.21878e-13
0.0145811
0.00985088
-1.61495e-11
0.0135269
0.00981432
-1.72344e-11
0.0123111
0.0103518
-1.88558e-11
0.0110429
0.0111697
-1.95383e-11
0.00966637
0.012545
-2.04918e-11
0.00796218
0.0140725
-2.15756e-11
0.0059093
0.0156761
-1.98132e-11
0.00338469
0.0174531
-2.08813e-11
0.0194103
-1.99739e-11
0.0168001
9.24289e-10
-3.71775e-16
0.0168001
4.27027e-09
-2.1072e-15
0.0168001
1.67307e-08
-3.959e-15
0.0168001
4.10009e-08
-8.05641e-15
0.0168001
1.16829e-07
-1.08503e-14
0.0168001
2.5872e-07
-1.77478e-14
0.0168001
6.93087e-07
-1.9173e-14
0.0168002
1.48949e-06
-2.64032e-14
0.0168001
4.07616e-06
-1.99557e-14
0.0168018
7.9044e-06
-1.53567e-14
0.0167979
2.70594e-05
5.59675e-14
0.0168084
4.71462e-05
1.36021e-13
0.0167712
0.000201479
5.46496e-13
0.0167963
0.000501574
1.49207e-12
0.0166548
0.00210328
2.72866e-12
0.0159638
0.0096243
3.05534e-12
0.014851
0.0109592
-1.67928e-11
0.0138397
0.0108207
-1.68543e-11
0.0127772
0.0113963
-1.77772e-11
0.0116365
0.01229
-1.84764e-11
0.0103694
0.0137862
-1.95137e-11
0.00883345
0.015557
-2.1392e-11
0.00698184
0.0174766
-1.87508e-11
0.0043665
0.0200388
-1.85386e-11
0.023761
-1.85579e-11
0.0168001
-3.8177e-16
1.41066e-09
0.0168001
-2.12632e-15
1.15649e-09
0.0168001
-4.01398e-15
1.87632e-08
0.0168001
-8.38154e-15
1.50756e-08
0.0168001
-1.0884e-14
1.27975e-07
0.0168002
-1.84492e-14
9.51802e-08
0.0168001
-1.99197e-14
7.85141e-07
0.0168011
-2.83401e-14
4.48899e-07
0.0167997
-2.15325e-14
5.41123e-06
0.0168062
-2.1335e-14
1.42003e-06
0.0167904
5.43639e-14
4.22074e-05
0.0168307
1.22277e-13
6.54814e-06
0.0167149
6.09302e-13
0.0003147
0.0169412
1.36526e-12
0.000272363
0.0167707
4.04041e-12
0.00226226
0.0166735
6.77593e-12
0.00968237
0.0154833
-1.74883e-11
0.0121485
0.0143704
-1.6602e-11
0.0119302
0.0134238
-1.67048e-11
0.0123295
0.0123708
-1.76914e-11
0.013328
0.0113257
-1.9414e-11
0.0148139
0.0101594
-1.90233e-11
0.0166813
0.00847702
-1.89427e-11
0.019107
0.00599003
-1.68119e-11
0.0224838
-1.53089e-11
0.029736
0.0168001
9.76629e-11
1.36039e-16
0.0168001
5.34211e-10
1.73936e-16
0.0168001
1.98523e-09
-1.67209e-16
0.0168
5.11119e-09
-3.61537e-16
0.0168
1.40117e-08
-9.47317e-16
0.0168
3.2087e-08
-1.90089e-15
0.0167999
8.35108e-08
-5.75645e-15
0.0167997
1.85115e-07
-1.50125e-14
0.016799
4.96208e-07
-4.70825e-14
0.0167979
1.05764e-06
-8.35844e-14
0.0167934
3.40124e-06
-3.38576e-13
0.0167861
6.68911e-06
-4.69447e-13
0.0167529
2.89921e-05
-2.67644e-12
0.0166655
7.85835e-05
-6.76617e-12
0.0162332
0.000401844
-2.19643e-11
0.0149056
0.00128806
-2.46172e-11
0.0136222
0.00127892
-1.86546e-12
0.0123275
0.00128469
-6.98329e-14
0.0109568
0.00134527
-1.26204e-12
0.00948547
0.00144992
-2.68695e-12
0.0078662
0.00159353
-2.04274e-12
0.00607504
0.00174418
-2.14058e-12
0.00415346
0.00188507
-1.8155e-12
0.00212183
0.00200809
-3.45249e-12
0.00210365
-4.0006e-12
0.0168001
2.04115e-10
1.36139e-16
0.0168001
1.11435e-09
1.74192e-16
0.0168001
4.13673e-09
-1.65827e-16
0.0168
1.06181e-08
-3.58588e-16
0.0168
2.91651e-08
-1.02619e-15
0.0168
6.66782e-08
-2.09991e-15
0.0167999
1.73917e-07
-5.46652e-15
0.0167997
3.85207e-07
-1.45953e-14
0.016799
1.03132e-06
-4.57683e-14
0.0167977
2.20891e-06
-8.04521e-14
0.0167933
6.8847e-06
-3.30264e-13
0.0167851
1.42058e-05
-4.34612e-13
0.0167527
5.74916e-05
-2.59529e-12
0.0166667
0.000155431
-6.46332e-12
0.0162599
0.000779904
-2.10813e-11
0.014977
0.00253289
-2.45586e-11
0.013682
0.00256812
-2.45754e-12
0.0123806
0.00257423
-2.06349e-13
0.0110038
0.0026951
-1.23517e-12
0.00951037
0.0029217
-2.5526e-12
0.00785616
0.00322158
-2.11158e-12
0.00604209
0.00351115
-2.22926e-12
0.00410654
0.00378466
-1.89958e-12
0.00207264
0.00401843
-3.50729e-12
0.00415785
-3.87205e-12
0.0168001
3.15652e-10
1.34802e-16
0.0168001
1.71783e-09
1.70954e-16
0.0168001
6.38881e-09
1.31731e-17
0.0168
1.63761e-08
-3.79508e-16
0.0168
4.5159e-08
-9.22783e-16
0.0168
1.0323e-07
-2.23489e-15
0.0167999
2.70355e-07
-7.00312e-15
0.0167996
6.01374e-07
-1.61665e-14
0.0167989
1.59509e-06
-4.7297e-14
0.0167975
3.51956e-06
-9.09898e-14
0.0167935
1.00045e-05
-2.90745e-13
0.0167833
2.36603e-05
-5.95534e-13
0.0167547
8.17393e-05
-2.18228e-12
0.0166854
0.000221824
-5.76143e-12
0.016333
0.00109783
-1.88053e-11
0.0151313
0.00369485
-2.33998e-11
0.0137963
0.00389072
-3.8943e-12
0.0124751
0.00388136
-5.82616e-13
0.0111003
0.00404301
-1.26819e-12
0.00960574
0.00439559
-2.42036e-12
0.00793958
0.00486174
-2.28201e-12
0.00610552
0.00529716
-2.52123e-12
0.00415088
0.00570257
-2.17534e-12
0.00209811
0.00604711
-3.4536e-12
0.00623733
-3.6901e-12
0.0168001
4.24003e-10
1.34912e-16
0.0168001
2.31245e-09
1.70919e-16
0.0168001
8.5965e-09
-1.74615e-16
0.0168
2.2061e-08
-3.77362e-16
0.0168
6.06733e-08
-1.07537e-15
0.0168
1.38746e-07
-1.86797e-15
0.0167999
3.61802e-07
-6.55793e-15
0.0167997
8.04847e-07
-1.56751e-14
0.016799
2.12108e-06
-4.54098e-14
0.0167977
4.67768e-06
-8.75969e-14
0.0167937
1.31759e-05
-2.70342e-13
0.0167857
3.09821e-05
-5.68879e-13
0.0167578
0.000105507
-1.97056e-12
0.0166932
0.000284234
-5.21868e-12
0.016399
0.00136164
-1.68742e-11
0.0152452
0.00480958
-2.27698e-11
0.0138912
0.00523067
-4.20927e-12
0.0125888
0.00516906
-4.70534e-13
0.0112497
0.00535472
-1.01684e-12
0.00977141
0.00585029
-2.30885e-12
0.00810737
0.00649765
-2.4196e-12
0.00627145
0.0070847
-2.70982e-12
0.00428281
0.00765324
-2.3653e-12
0.00217592
0.0081294
-3.28515e-12
0.00839491
-3.6778e-12
0.0168001
5.44398e-10
1.35029e-16
0.0168001
2.98012e-09
1.71005e-16
0.0168001
1.10718e-08
1.37169e-17
0.0168
2.847e-08
-3.74618e-16
0.0168
7.80869e-08
-1.05627e-15
0.0168
1.78813e-07
-2.16073e-15
0.0167999
4.6438e-07
-5.9822e-15
0.0167996
1.03418e-06
-1.51033e-14
0.0167989
2.70662e-06
-4.33744e-14
0.0167975
5.98999e-06
-8.31453e-14
0.0167932
1.66072e-05
-2.54232e-13
0.0167847
3.89012e-05
-5.19053e-13
0.0167587
0.000127781
-1.80183e-12
0.0166922
0.000348416
-4.69899e-12
0.0164546
0.00157315
-1.49678e-11
0.015329
0.00589749
-2.23452e-11
0.0139433
0.00660032
-4.62856e-12
0.0127184
0.00638109
5.16285e-13
0.0114456
0.00660119
-4.82389e-13
0.00999952
0.00727686
-2.56563e-12
0.00836026
0.00811574
-2.7213e-12
0.00651935
0.0088842
-3.10687e-12
0.00450767
0.00962911
-2.75319e-12
0.00231993
0.0102996
-3.56084e-12
0.0106977
-3.6496e-12
0.0168001
7.14511e-10
1.34009e-16
0.0168001
3.87367e-09
1.6838e-16
0.0168001
1.44275e-08
1.20169e-17
0.0168
3.69303e-08
-3.89246e-16
0.0168
1.02301e-07
-1.09679e-15
0.0168
2.34061e-07
-1.85504e-15
0.0167998
6.13981e-07
-6.81341e-15
0.0167994
1.37913e-06
-1.5742e-14
0.0167985
3.49094e-06
-4.43071e-14
0.0167958
8.5501e-06
-8.77368e-14
0.0167924
1.92903e-05
-2.33769e-13
0.016777
5.34429e-05
-6.15175e-13
0.0167564
0.000144657
-1.49937e-12
0.0166864
0.000418132
-4.99282e-12
0.016491
0.00174841
-1.27943e-11
0.0153257
0.007026
-2.24612e-11
0.0141013
0.00780804
-8.64177e-12
0.0129271
0.00754634
2.85335e-12
0.0116838
0.00782249
4.45613e-13
0.0103022
0.00864141
-2.89293e-12
0.00870375
0.00969487
-3.00207e-12
0.0068724
0.0106699
-3.20436e-12
0.00482323
0.0116376
-2.71688e-12
0.0025183
0.0125747
-3.31011e-12
0.0131984
-3.61058e-12
0.0168001
8.49253e-10
1.31307e-16
0.0168001
4.55907e-09
1.63015e-16
0.0168001
1.70047e-08
-1.98271e-16
0.0168
4.3585e-08
-4.25723e-16
0.0168
1.20589e-07
-8.92799e-16
0.0168
2.77978e-07
-2.16688e-15
0.0167999
7.14425e-07
-8.67374e-15
0.0167995
1.69392e-06
-1.8765e-14
0.016799
3.83429e-06
-4.26298e-14
0.016797
1.04313e-05
-1.29935e-13
0.0167949
2.07354e-05
-1.66057e-13
0.0167887
5.8631e-05
-6.49863e-13
0.0167774
0.000152224
-1.35622e-12
0.0167086
0.000487802
-4.15791e-12
0.0165846
0.00185475
-1.19474e-11
0.015481
0.00809074
-2.36747e-11
0.014525
0.00875372
-1.70828e-12
0.0132906
0.00877094
6.8327e-13
0.0119388
0.00915431
-2.54682e-13
0.0106397
0.00992065
-1.96382e-12
0.00912036
0.0111878
-3.36599e-12
0.00733549
0.0124042
-3.32096e-12
0.00526303
0.0136653
-2.61692e-12
0.00286524
0.0149394
-3.21958e-12
0.0160438
-3.26348e-12
0.0168001
8.4282e-10
1.3253e-16
0.0168001
4.58455e-09
1.65708e-16
0.0168001
1.70921e-08
1.1285e-17
0.0168001
4.40075e-08
-4.09346e-16
0.0168001
1.21172e-07
-8.84635e-16
0.0168
2.7936e-07
-2.37316e-15
0.0168
7.19797e-07
-7.38061e-15
0.0168
1.66379e-06
-1.81265e-14
0.0167997
4.06761e-06
-3.95377e-14
0.0168004
9.59122e-06
-9.5282e-14
0.0167966
2.39327e-05
-1.8824e-13
0.0167964
5.79202e-05
-5.27546e-13
0.0167785
0.000167267
-1.12598e-12
0.0167336
0.000528933
-4.45236e-12
0.0166025
0.00197316
-1.01239e-11
0.0156858
0.00897074
-2.44873e-11
0.014581
0.00985088
1.70343e-13
0.0135269
0.00981433
6.50072e-13
0.012311
0.0103518
-1.07462e-12
0.0110429
0.0111697
-1.88421e-12
0.00966637
0.012545
-3.10422e-12
0.00796219
0.0140725
-3.50169e-12
0.0059093
0.0156761
-2.71427e-12
0.00338469
0.0174531
-3.33661e-12
0.0194103
-3.38383e-12
0.0168001
9.24281e-10
1.37786e-16
0.0168001
4.27028e-09
1.7459e-16
0.0168001
1.67307e-08
1.22422e-17
0.0168001
4.10008e-08
-3.42737e-16
0.0168001
1.16829e-07
-9.45835e-16
0.0168001
2.58719e-07
-1.93334e-15
0.0168001
6.93086e-07
-4.33769e-15
0.0168002
1.48949e-06
-1.26094e-14
0.0168001
4.07615e-06
-3.74361e-14
0.0168018
7.90439e-06
-6.71831e-14
0.0167979
2.70594e-05
-2.12003e-13
0.0168084
4.71462e-05
-3.80756e-13
0.0167712
0.000201479
-1.35114e-12
0.0167963
0.000501574
-3.79942e-12
0.0166548
0.00210328
-9.70636e-12
0.0159638
0.0096243
-2.49796e-11
0.014851
0.0109592
1.54496e-12
0.0138397
0.0108207
1.22668e-12
0.0127772
0.0113963
-1.11896e-12
0.0116365
0.01229
-1.68079e-12
0.0103694
0.0137862
-2.56584e-12
0.00883346
0.015557
-3.39956e-12
0.00698184
0.0174766
-2.49877e-12
0.0043665
0.0200388
-2.85521e-12
0.023761
-3.1088e-12
0.0168001
1.43158e-16
1.41063e-09
0.0168001
1.82339e-16
1.15654e-09
0.0168001
9.79085e-18
1.8763e-08
0.0168001
-2.88612e-16
1.50758e-08
0.0168001
-7.93888e-16
1.27974e-07
0.0168002
-1.60558e-15
9.51808e-08
0.0168001
-3.58509e-15
7.8514e-07
0.0168011
-7.22335e-15
4.489e-07
0.0167997
-3.3589e-14
5.41122e-06
0.0168062
-5.49913e-14
1.42004e-06
0.0167904
-1.8626e-13
4.22074e-05
0.0168307
-3.16917e-13
6.54817e-06
0.0167149
-1.22615e-12
0.0003147
0.0169412
-2.94213e-12
0.000272363
0.0167707
-9.78315e-12
0.00226226
0.0166735
-2.57899e-11
0.00968237
0.0154833
2.83672e-12
0.0121485
0.0143704
1.77821e-12
0.0119302
0.0134238
-1.17042e-12
0.0123295
0.0123708
-1.75092e-12
0.013328
0.0113257
-2.6726e-12
0.0148139
0.0101594
-2.67473e-12
0.0166813
0.00847703
-2.93619e-12
0.019107
0.00599004
-2.81615e-12
0.0224838
-2.64308e-12
0.029736
0.0168001
9.76629e-11
4.22119e-17
0.0168001
5.34211e-10
1.50307e-16
0.0168001
1.98523e-09
3.78103e-16
0.0168
5.11118e-09
6.85396e-16
0.0168
1.40117e-08
1.56789e-15
0.0168
3.2087e-08
2.89122e-15
0.0167999
8.35108e-08
7.3367e-15
0.0167997
1.85116e-07
1.41218e-14
0.016799
4.96208e-07
4.06402e-14
0.0167979
1.05764e-06
7.20384e-14
0.0167934
3.40125e-06
2.85007e-13
0.0167861
6.68912e-06
3.60836e-13
0.0167529
2.89921e-05
2.02596e-12
0.0166654
7.85838e-05
4.68619e-12
0.0162332
0.000401845
1.30592e-11
0.0149055
0.00128806
6.50573e-12
0.0136222
0.00127892
-1.10466e-11
0.0123275
0.00128469
-1.75701e-11
0.0109568
0.00134527
-1.88326e-11
0.00948547
0.00144992
-1.9773e-11
0.0078662
0.00159353
-1.93645e-11
0.00607504
0.00174418
-1.86342e-11
0.00415346
0.00188507
-2.24422e-11
0.00212183
0.00200809
-1.93511e-11
0.00210365
-2.01931e-11
0.0168001
2.04114e-10
4.20298e-17
0.0168001
1.11435e-09
1.49828e-16
0.0168001
4.13672e-09
3.76907e-16
0.0168
1.06181e-08
6.83473e-16
0.0168
2.9165e-08
1.56233e-15
0.0168
6.66781e-08
2.88156e-15
0.0167999
1.73917e-07
7.29822e-15
0.0167997
3.85207e-07
1.40469e-14
0.016799
1.03132e-06
4.02488e-14
0.0167977
2.2089e-06
7.14276e-14
0.0167933
6.88471e-06
2.79239e-13
0.0167851
1.42057e-05
3.57582e-13
0.0167527
5.74918e-05
1.96221e-12
0.0166667
0.000155432
4.53905e-12
0.0162599
0.000779907
1.27143e-11
0.014977
0.00253289
6.9176e-12
0.013682
0.00256812
-1.01042e-11
0.0123806
0.00257422
-1.70367e-11
0.0110038
0.0026951
-1.84164e-11
0.00951037
0.0029217
-1.95062e-11
0.00785616
0.00322158
-1.91341e-11
0.00604209
0.00351115
-1.83767e-11
0.00410654
0.00378465
-2.20512e-11
0.00207264
0.00401843
-1.92633e-11
0.00415785
-2.03415e-11
0.0168001
3.15652e-10
4.35121e-17
0.0168001
1.71783e-09
1.53951e-16
0.0168001
6.3888e-09
3.89624e-16
0.0168
1.63761e-08
7.06034e-16
0.0168
4.5159e-08
1.63803e-15
0.0168
1.0323e-07
3.03381e-15
0.0167999
2.70355e-07
7.82383e-15
0.0167996
6.01374e-07
1.53419e-14
0.0167989
1.59509e-06
4.27629e-14
0.0167975
3.51956e-06
8.54727e-14
0.0167935
1.00046e-05
2.44022e-13
0.0167833
2.36603e-05
5.68682e-13
0.0167547
8.17394e-05
1.5995e-12
0.0166854
0.000221824
4.13293e-12
0.016333
0.00109783
1.13289e-11
0.0151313
0.00369485
6.91466e-12
0.0137963
0.00389072
-7.84115e-12
0.0124751
0.00388136
-1.59491e-11
0.0111003
0.00404301
-1.76748e-11
0.00960574
0.00439559
-1.9178e-11
0.00793958
0.00486174
-1.88093e-11
0.00610552
0.00529716
-1.82656e-11
0.00415088
0.00570256
-2.15384e-11
0.00209811
0.00604711
-1.91598e-11
0.00623733
-2.02358e-11
0.0168001
4.24003e-10
4.25956e-17
0.0168001
2.31245e-09
1.50965e-16
0.0168001
8.5965e-09
3.82086e-16
0.0168
2.2061e-08
6.9197e-16
0.0168
6.06733e-08
1.60062e-15
0.0168
1.38746e-07
2.96018e-15
0.0167999
3.61802e-07
7.60567e-15
0.0167997
8.04847e-07
1.4903e-14
0.016799
2.12108e-06
4.1367e-14
0.0167977
4.67768e-06
8.26877e-14
0.0167937
1.31759e-05
2.33188e-13
0.0167857
3.09821e-05
5.49616e-13
0.0167578
0.000105507
1.49923e-12
0.0166932
0.000284234
3.88165e-12
0.016399
0.00136164
1.06444e-11
0.0152452
0.00480959
7.71485e-12
0.0138912
0.00523067
-5.78613e-12
0.0125888
0.00516906
-1.52325e-11
0.0112497
0.00535472
-1.70512e-11
0.00977141
0.00585029
-1.86659e-11
0.00810737
0.00649765
-1.8387e-11
0.00627145
0.0070847
-1.81537e-11
0.00428281
0.00765324
-2.1293e-11
0.00217592
0.0081294
-1.90543e-11
0.00839491
-1.95431e-11
0.0168001
5.44398e-10
4.1613e-17
0.0168001
2.98012e-09
1.48024e-16
0.0168001
1.10718e-08
3.74542e-16
0.0168
2.847e-08
6.78327e-16
0.0168
7.80869e-08
1.56364e-15
0.0168
1.78813e-07
2.8887e-15
0.0167999
4.6438e-07
7.38755e-15
0.0167996
1.03418e-06
1.44562e-14
0.0167989
2.70662e-06
4.00155e-14
0.0167975
5.98999e-06
7.94018e-14
0.0167932
1.66072e-05
2.27292e-13
0.0167847
3.89011e-05
5.12393e-13
0.0167587
0.000127781
1.44735e-12
0.0166922
0.000348416
3.68889e-12
0.0164546
0.00157316
1.01509e-11
0.015329
0.00589749
9.4596e-12
0.0139433
0.00660032
-3.73593e-12
0.0127184
0.00638109
-1.54174e-11
0.0114456
0.00660119
-1.66344e-11
0.00999952
0.00727686
-1.77117e-11
0.00836026
0.00811574
-1.80672e-11
0.00651935
0.0088842
-1.83422e-11