/*--------------------------------*- C++ -*----------------------------------*\
| =========                 |                                                 |
| \\      /  F ield         | OpenFOAM: The Open Source CFD Toolbox           |
|  \\    /   O peration     | Version:  4.1                                   |
|   \\  /    A nd           | Web:      www.OpenFOAM.org                      |
|    \\/     M anipulation  |                                                 |
\*---------------------------------------------------------------------------*/
FoamFile
{
    version     2.0;
    format      ascii;
    class       surfaceScalarField;
    location    "1.56";
    object      phi;
}
// * * * * * * * * * * * * * * * * * * * * * * * * * * * * * * * * * * * * * //

dimensions      [1 0 -1 0 0 0 0];

internalField   nonuniform List<scalar> 
150500
(
0.0168001
1.01548e-10
-3.26159e-12
0.0168001
5.64132e-10
-1.15866e-11
0.0168001
2.09676e-09
-1.35512e-11
0.0168
5.39332e-09
-2.11634e-11
0.0168
1.48234e-08
-2.13909e-11
0.0168
3.39471e-08
-2.78965e-11
0.0167998
8.8506e-08
-2.7316e-11
0.0167996
1.97063e-07
-3.42492e-11
0.0167988
5.20382e-07
-3.45471e-11
0.0167975
1.14518e-06
-4.80023e-11
0.0167929
3.27043e-06
-4.19101e-11
0.0167841
7.65378e-06
-1.33194e-10
0.0167531
2.67186e-05
-4.21223e-11
0.0166675
7.33757e-05
-3.5338e-10
0.0162773
0.000368786
-4.98617e-10
0.0150025
0.00123055
-4.64385e-10
0.0136961
0.00129658
-1.10313e-10
0.0123753
0.00131831
-6.95486e-11
0.0109928
0.00138307
-1.36072e-10
0.00949469
0.00148851
-3.242e-10
0.00781499
0.00163559
-6.44094e-10
0.00599507
0.00178291
-8.22703e-10
0.00406881
0.00190405
-9.91942e-10
0.00206736
0.00197472
-1.11606e-09
0.00203861
-1.24464e-09
0.0168001
2.07217e-10
-3.25758e-12
0.0168001
1.14619e-09
-1.15888e-11
0.0168001
4.2666e-09
-1.35497e-11
0.0168
1.09467e-08
-2.1164e-11
0.0168
3.01494e-08
-2.13894e-11
0.0168
6.89288e-08
-2.78947e-11
0.0167998
1.80193e-07
-2.73119e-11
0.0167996
4.00797e-07
-3.42387e-11
0.0167988
1.06101e-06
-3.45279e-11
0.0167974
2.34061e-06
-4.80106e-11
0.0167927
6.6349e-06
-4.14999e-11
0.0167833
1.57251e-05
-1.34011e-10
0.016751
5.40659e-05
-3.88679e-11
0.0166745
0.000145598
-3.46116e-10
0.0162809
0.000728593
-4.66658e-10
0.0150159
0.00245166
-4.5549e-10
0.0136959
0.00260597
-1.23899e-10
0.0123762
0.00263495
-7.61547e-11
0.0110002
0.00275954
-1.38557e-10
0.00948824
0.00299079
-3.23029e-10
0.00779009
0.00328952
-6.43562e-10
0.00596662
0.00356979
-8.27311e-10
0.00403846
0.00380956
-1.0049e-09
0.00202813
0.00395729
-1.12923e-09
0.00403787
-1.25374e-09
0.0168001
3.14656e-10
-3.25058e-12
0.0168001
1.74108e-09
-1.15906e-11
0.0168001
6.47543e-09
-1.35496e-11
0.0168
1.6619e-08
-2.11643e-11
0.0168
4.56977e-08
-2.13876e-11
0.0168
1.04459e-07
-2.78909e-11
0.0167998
2.72389e-07
-2.73006e-11
0.0167996
6.0558e-07
-3.42039e-11
0.0167988
1.59714e-06
-3.44575e-11
0.0167974
3.52055e-06
-4.77905e-11
0.0167928
9.92432e-06
-4.1106e-11
0.0167839
2.34495e-05
-1.31856e-10
0.0167531
7.99398e-05
-3.56247e-11
0.0166805
0.000215249
-3.27879e-10
0.0163214
0.00105321
-4.31263e-10
0.015088
0.00364347
-4.4106e-10
0.0137387
0.0039426
-1.40008e-10
0.012417
0.00395211
-8.90238e-11
0.0110626
0.00411374
-1.48771e-10
0.00955788
0.00448516
-3.30596e-10
0.00785444
0.00494831
-6.57125e-10
0.00602495
0.00536127
-8.42884e-10
0.0040871
0.00572378
-1.02853e-09
0.00205954
0.00595649
-1.14978e-09
0.00606864
-1.26171e-09
0.0168001
4.27327e-10
-3.24034e-12
0.0168001
2.37022e-09
-1.15943e-11
0.0168001
8.81575e-09
-1.35501e-11
0.0168
2.26632e-08
-2.11668e-11
0.0168
6.21518e-08
-2.13887e-11
0.0168
1.42168e-07
-2.7893e-11
0.0167998
3.69019e-07
-2.73024e-11
0.0167996
8.20831e-07
-3.41902e-11
0.0167988
2.14975e-06
-3.44376e-11
0.0167973
4.73722e-06
-4.76608e-11
0.0167928
1.32638e-05
-4.07212e-11
0.016784
3.09031e-05
-1.30104e-10
0.0167542
0.000104977
-3.11323e-11
0.0166864
0.000279938
-3.10096e-10
0.0163828
0.00132581
-3.87792e-10
0.0151867
0.00479546
-4.23863e-10
0.0137916
0.00531994
-1.49588e-10
0.0124968
0.00524285
-1.04647e-10
0.011194
0.00542048
-1.6389e-10
0.0097044
0.00596725
-3.36718e-10
0.00800852
0.00659708
-6.86171e-10
0.00618023
0.00715239
-8.49221e-10
0.00421467
0.00766533
-1.04702e-09
0.00213135
0.00801344
-1.15561e-09
0.0081716
-1.26368e-09
0.0168001
5.70984e-10
-3.22718e-12
0.0168001
3.16499e-09
-1.16005e-11
0.0168001
1.1755e-08
-1.3553e-11
0.0168
3.02211e-08
-2.11739e-11
0.0168
8.2817e-08
-2.13986e-11
0.0168
1.8955e-07
-2.79112e-11
0.0167998
4.91634e-07
-2.73409e-11
0.0167995
1.0951e-06
-3.42465e-11
0.0167985
2.85406e-06
-3.45712e-11
0.0167966
6.36676e-06
-4.77796e-11
0.0167917
1.69823e-05
-4.13111e-11
0.0167797
4.16579e-05
-1.26696e-10
0.0167539
0.000126076
-3.15967e-11
0.016675
0.000355924
-2.90295e-10
0.0164278
0.00154242
-3.37986e-10
0.0152429
0.00593617
-4.28252e-10
0.013802
0.0067472
-1.81783e-10
0.0126358
0.00641541
-1.15306e-10
0.011392
0.00667122
-1.80866e-10
0.00992294
0.00742346
-3.62458e-10
0.00824336
0.0082242
-6.96364e-10
0.00641356
0.0089387
-8.5472e-10
0.00443478
0.00961805
-1.04878e-09
0.00227391
0.0101452
-1.16168e-09
0.0104175
-1.26322e-09
0.0168001
7.55121e-10
-3.21244e-12
0.0168001
4.13395e-09
-1.16095e-11
0.0168001
1.5413e-08
-1.35649e-11
0.0168
3.94325e-08
-2.11938e-11
0.0168
1.09457e-07
-2.14418e-11
0.0167999
2.50996e-07
-2.79891e-11
0.0167997
6.5454e-07
-2.75343e-11
0.0167992
1.50692e-06
-3.4582e-11
0.0167982
3.58036e-06
-3.53424e-11
0.0167947
9.616e-06
-4.95844e-11
0.0167916
1.87583e-05
-4.12753e-11
0.0167761
5.53677e-05
-1.39636e-10
0.016752
0.000144118
-1.55416e-11
0.0166985
0.000413525
-3.08887e-10
0.0164734
0.00174141
-2.71698e-10
0.0152387
0.00712167
-4.73665e-10
0.0142014
0.00776722
-2.53235e-10
0.0129115
0.00771073
-1.11972e-10
0.0115656
0.00801401
-1.99525e-10
0.0101923
0.00877403
-3.77156e-10
0.00855237
0.00980564
-6.72349e-10
0.00674505
0.0107004
-8.29621e-10
0.00473117
0.0116061
-1.02909e-09
0.00247653
0.0123729
-1.14619e-09
0.0128663
-1.24861e-09
0.0168001
8.40033e-10
-3.19031e-12
0.0168001
4.59524e-09
-1.16356e-11
0.0168001
1.70268e-08
-1.35896e-11
0.0168
4.37226e-08
-2.12714e-11
0.0168
1.2033e-07
-2.16265e-11
0.0168
2.77456e-07
-2.84274e-11
0.0167999
7.09473e-07
-2.84725e-11
0.0167996
1.67537e-06
-3.82079e-11
0.0167991
3.85923e-06
-3.44683e-11
0.0167982
9.90984e-06
-8.28795e-11
0.0167943
2.14872e-05
-1.76902e-12
0.01679
5.70764e-05
-1.9283e-10
0.016776
0.000151895
6.37615e-11
0.0166982
0.00049654
-2.97567e-10
0.0165755
0.00183652
-1.87122e-10
0.0154429
0.00819313
-5.88483e-10
0.014348
0.00885648
-2.22177e-10
0.0131728
0.00888434
-1.78135e-10
0.0118283
0.00934814
-2.80278e-10
0.0104718
0.0101137
-3.79106e-10
0.00894596
0.0112762
-6.27948e-10
0.00719522
0.0124085
-7.97756e-10
0.00518985
0.0135861
-9.91463e-10
0.00281348
0.0147299
-1.09107e-09
0.015654
-1.201e-09
0.0168001
7.99806e-10
-3.16895e-12
0.0168001
4.39981e-09
-1.16896e-11
0.0168001
1.63879e-08
-1.35954e-11
0.0168001
4.2213e-08
-2.13757e-11
0.0168
1.16283e-07
-2.17833e-11
0.0168
2.67682e-07
-2.88285e-11
0.0168
6.93906e-07
-2.9235e-11
0.0168
1.57875e-06
-4.05722e-11
0.0167996
4.00547e-06
-3.61095e-11
0.0168
9.0367e-06
-9.15495e-11
0.0167959
2.4278e-05
-2.22179e-12
0.0167939
5.60466e-05
-2.07893e-10
0.0167688
0.00017155
8.08071e-11
0.0167298
0.000526582
-3.3143e-10
0.0165569
0.00198798
-1.55325e-10
0.015597
0.00908777
-7.06733e-10
0.0144457
0.0100124
-1.30718e-10
0.0133737
0.00995781
-1.44957e-10
0.0121812
0.010528
-2.74593e-10
0.0109055
0.0113689
-3.45488e-10
0.00947267
0.0126507
-5.48915e-10
0.00780374
0.014026
-7.15423e-10
0.00583448
0.0155238
-8.80347e-10
0.00334902
0.0171795
-9.95113e-10
0.0189783
-1.09479e-09
0.0168001
9.4401e-10
-3.15886e-12
0.0168001
4.087e-09
-1.17009e-11
0.0168001
1.65178e-08
-1.35713e-11
0.0168001
4.04675e-08
-2.13133e-11
0.0168
1.14961e-07
-2.15611e-11
0.0168
2.54511e-07
-2.83004e-11
0.0168
6.82505e-07
-2.80824e-11
0.0168001
1.46031e-06
-3.56748e-11
0.0167997
4.03117e-06
-3.63264e-11
0.0168007
7.77087e-06
-5.29811e-11
0.0167964
2.68461e-05
-5.84469e-11
0.0168041
4.6898e-05
-1.0139e-10
0.0167674
0.000201037
-1.02732e-10
0.0167911
0.00049726
-3.281e-10
0.016632
0.0021236
-3.03065e-10
0.0159211
0.00971043
-8.87851e-10
0.0147631
0.0111841
1.03806e-10
0.0137082
0.0110164
5.20927e-12
0.0126386
0.011586
-2.10444e-10
0.0114812
0.0125119
-2.89555e-10
0.0101725
0.0139146
-4.79955e-10
0.00870243
0.0154757
-6.18561e-10
0.00690591
0.0173127
-7.32287e-10
0.00434949
0.0197239
-8.96757e-10
0.0233045
-9.33175e-10
0.0168001
-3.22281e-12
1.48645e-09
0.0168001
-1.17048e-11
8.46301e-10
0.0168001
-1.37088e-11
1.96281e-08
0.0168001
-2.16698e-11
1.52296e-08
0.0168001
-2.14777e-11
1.28081e-07
0.0168002
-2.87596e-11
9.83831e-08
0.0168
-2.81364e-11
7.79575e-07
0.016801
-3.63439e-11
4.7113e-07
0.0167993
-3.61273e-11
5.3478e-06
0.0168052
-5.41622e-11
1.65659e-06
0.0167888
-6.01391e-11
4.16289e-05
0.0168256
-1.00463e-10
8.22608e-06
0.0167096
-1.19595e-10
0.000310179
0.0169199
-3.23005e-10
0.000278615
0.0167606
-4.56341e-10
0.00225064
0.0167098
-1.19727e-09
0.00965285
0.0154723
3.23964e-10
0.0124512
0.014317
1.60995e-10
0.0121886
0.0133627
-1.18109e-10
0.01254
0.0123161
-2.78072e-10
0.0135527
0.0112649
-4.19613e-10
0.01494
0.0100505
-4.62305e-10
0.0166766
0.00841429
-5.72074e-10
0.0189454
0.00599097
-7.66709e-10
0.0221551
-7.36402e-10
0.0292843
0.0168001
1.03527e-10
-3.83582e-16
0.0168001
5.64588e-10
-2.16628e-15
0.0168001
2.09847e-09
-4.1162e-15
0.0168
5.39417e-09
-8.39276e-15
0.0168
1.48249e-08
-1.16465e-14
0.0168
3.39489e-08
-1.93418e-14
0.0167998
8.8509e-08
-2.24559e-14
0.0167996
1.9707e-07
-3.40583e-14
0.0167988
5.20399e-07
-3.118e-14
0.0167975
1.1452e-06
-3.82021e-14
0.0167929
3.27066e-06
1.46475e-14
0.0167841
7.65375e-06
1.69533e-13
0.0167531
2.67206e-05
7.55428e-13
0.0166675
7.33827e-05
2.84941e-12
0.0162773
0.000368816
1.05418e-11
0.0150025
0.00123058
1.72017e-11
0.0136961
0.00129656
7.01787e-12
0.0123753
0.00131827
3.38617e-12
0.0109929
0.00138301
1.35273e-12
0.00949483
0.00148845
-4.92464e-12
0.00781523
0.00163552
-1.6516e-11
0.00599531
0.00178284
-2.23757e-11
0.00406902
0.00190404
-2.64915e-11
0.00206746
0.00197481
-3.58473e-11
0.00203874
-3.09598e-11
0.0168001
2.10678e-10
-3.83801e-16
0.0168001
1.14814e-09
-2.16745e-15
0.0168001
4.26862e-09
-4.11966e-15
0.0168
1.09483e-08
-8.4002e-15
0.0168
3.0151e-08
-1.16602e-14
0.0168
6.89304e-08
-1.93674e-14
0.0167998
1.80197e-07
-2.24811e-14
0.0167996
4.0081e-07
-3.40878e-14
0.0167988
1.06104e-06
-3.10488e-14
0.0167974
2.34071e-06
-3.76418e-14
0.0167927
6.63514e-06
1.59851e-14
0.0167833
1.57263e-05
1.7668e-13
0.016751
5.40686e-05
7.70663e-13
0.0166745
0.00014561
2.88019e-12
0.0162809
0.000728631
1.05081e-11
0.0150159
0.00245169
1.73222e-11
0.013696
0.00260593
7.06914e-12
0.0123763
0.00263487
3.13411e-12
0.0110003
0.00275942
1.1284e-12
0.00948842
0.00299065
-5.13994e-12
0.00779036
0.00328939
-1.66076e-11
0.00596687
0.00356967
-2.27595e-11
0.00403867
0.00380957
-2.69538e-11
0.00202823
0.00395745
-3.57443e-11
0.00403812
-3.20806e-11
0.0168001
3.19745e-10
-3.84366e-16
0.0168001
1.74333e-09
-2.16973e-15
0.0168001
6.47775e-09
-4.12711e-15
0.0168
1.66193e-08
-8.41594e-15
0.0168
4.56961e-08
-1.16902e-14
0.0168
1.04453e-07
-1.94243e-14
0.0167998
2.72377e-07
-2.25505e-14
0.0167996
6.05563e-07
-3.41909e-14
0.0167988
1.59711e-06
-3.09247e-14
0.0167974
3.52052e-06
-3.69906e-14
0.0167928
9.92447e-06
1.90465e-14
0.0167839
2.34502e-05
1.84699e-13
0.0167531
7.99432e-05
8.00402e-13
0.0166805
0.00021526
2.83705e-12
0.0163214
0.00105325
1.06282e-11
0.015088
0.00364348
1.7657e-11
0.0137388
0.00394252
7.21597e-12
0.0124172
0.00395198
2.45996e-12
0.0110628
0.00411355
3.67703e-13
0.00955812
0.00448494
-5.89029e-12
0.00785475
0.00494811
-1.73225e-11
0.00602522
0.00536113
-2.36591e-11
0.0040873
0.0057238
-2.78299e-11
0.00205964
0.00595674
-3.67527e-11
0.00606902
-3.2682e-11
0.0168001
4.33877e-10
-3.85404e-16
0.0168001
2.37215e-09
-2.17392e-15
0.0168001
8.81674e-09
-4.14187e-15
0.0168
2.26592e-08
-8.44706e-15
0.0168
6.21407e-08
-1.17647e-14
0.0168
1.42143e-07
-1.95723e-14
0.0167998
3.68965e-07
-2.28644e-14
0.0167996
8.2073e-07
-3.47937e-14
0.0167988
2.14955e-06
-3.19533e-14
0.0167973
4.73689e-06
-3.92636e-14
0.0167928
1.32629e-05
2.19521e-14
0.016784
3.09042e-05
1.62125e-13
0.0167543
0.000104974
8.54673e-13
0.0166864
0.00027995
2.85193e-12
0.0163829
0.00132586
1.06182e-11
0.0151868
0.00479543
1.83838e-11
0.0137917
0.00531978
7.56026e-12
0.012497
0.00524265
1.3263e-12
0.0111941
0.0054202
-8.65549e-13
0.00970469
0.00596691
-6.61977e-12
0.00800889
0.00659684
-1.85077e-11
0.00618054
0.00715221
-2.41623e-11
0.00421489
0.00766538
-2.86572e-11
0.00213146
0.00801377
-3.58967e-11
0.00817212
-3.41807e-11
0.0168001
5.78476e-10
-3.86322e-16
0.0168001
3.1665e-09
-2.17704e-15
0.0168001
1.175e-08
-4.15491e-15
0.0168
3.02046e-08
-8.47311e-15
0.0168
8.27718e-08
-1.18305e-14
0.0168
1.89448e-07
-1.97022e-14
0.0167998
4.91389e-07
-2.31536e-14
0.0167995
1.09454e-06
-3.54088e-14
0.0167985
2.85284e-06
-3.30949e-14
0.0167966
6.36356e-06
-4.25759e-14
0.0167917
1.69782e-05
1.94796e-14
0.0167797
4.16489e-05
1.40045e-13
0.0167539
0.000126078
8.37705e-13
0.016675
0.000355918
2.76579e-12
0.0164278
0.00154247
1.033e-11
0.0152429
0.00593607
1.89931e-11
0.0138022
0.0067469
8.07913e-12
0.012636
0.00641512
-2.71958e-13
0.0113923
0.00667083
-2.4299e-12
0.00992331
0.00742303
-7.83354e-12
0.00824378
0.00822391
-1.86329e-11
0.0064139
0.00893853
-2.41219e-11
0.00443503
0.00961813
-2.83739e-11
0.00227405
0.0101456
-3.57221e-11
0.0104181
-3.56386e-11
0.0168001
7.65925e-10
-3.88397e-16
0.0168001
4.12828e-09
-2.18479e-15
0.0168001
1.5397e-08
-4.18324e-15
0.0168
3.93817e-08
-8.5305e-15
0.0168
1.09324e-07
-1.19726e-14
0.0167999
2.50673e-07
-1.9979e-14
0.0167997
6.5382e-07
-2.3764e-14
0.0167992
1.50459e-06
-3.65018e-14
0.0167982
3.57895e-06
-3.55356e-14
0.0167947
9.59951e-06
-4.50307e-14
0.0167916
1.87655e-05
8.88231e-15
0.0167761
5.53413e-05
1.41073e-13
0.016752
0.000144144
8.21115e-13
0.0166984
0.000413536
2.69662e-12
0.0164734
0.00174144
9.57527e-12
0.0152389
0.00712139
1.94759e-11
0.0142015
0.00776693
9.58961e-12
0.0129118
0.00771027
-2.59461e-12
0.011566
0.00801342
-4.28326e-12
0.0101929
0.00877349
-8.58023e-12
0.00855293
0.00980537
-1.80472e-11
0.00674544
0.0107003
-2.37346e-11
0.00473142
0.0116063
-2.80127e-11
0.00247665
0.0123734
-3.48751e-11
0.0128671
-3.65076e-11
0.0168001
8.50516e-10
-3.89365e-16
0.0168001
4.57646e-09
-2.18902e-15
0.0168001
1.70171e-08
-4.19729e-15
0.0168
4.36653e-08
-8.55754e-15
0.0168
1.20226e-07
-1.20414e-14
0.0168
2.77207e-07
-2.00647e-14
0.0167999
7.08968e-07
-2.43063e-14
0.0167996
1.67397e-06
-3.55192e-14
0.0167991
3.85777e-06
-4.25495e-14
0.0167982
9.90422e-06
-3.8489e-14
0.0167943
2.1485e-05
-3.23311e-14
0.0167899
5.70646e-05
1.09546e-13
0.016776
0.000151895
6.59161e-13
0.0166982
0.000496506
2.39224e-12
0.0165757
0.00183643
8.7987e-12
0.0154433
0.00819257
2.14009e-11
0.0143486
0.00885599
4.59918e-12
0.0131734
0.00888387
-3.4575e-13
0.0118288
0.00934758
-5.71878e-12
0.0104723
0.0101132
-8.74917e-12
0.00894655
0.0112758
-1.64907e-11
0.00719564
0.0124084
-2.23529e-11
0.00519009
0.0135864
-2.69674e-11
0.00281359
0.0147306
-3.33721e-11
0.0156549
-3.58877e-11
0.0168001
8.0273e-10
-3.9469e-16
0.0168001
4.38869e-09
-2.21428e-15
0.0168001
1.63802e-08
-4.26933e-15
0.0168001
4.22037e-08
-8.71476e-15
0.0168
1.16319e-07
-1.23896e-14
0.0168
2.67884e-07
-2.07147e-14
0.0168
6.94441e-07
-2.58372e-14
0.0168
1.58115e-06
-3.69677e-14
0.0167996
4.00633e-06
-5.16059e-14
0.0167999
9.05548e-06
-3.65348e-14
0.0167959
2.4257e-05
-9.21093e-14
0.0167938
5.60976e-05
9.54244e-14
0.0167688
0.000171466
2.68916e-13
0.0167298
0.000526551
2.39e-12
0.0165571
0.00198771
7.16374e-12
0.0155974
0.00908703
2.22461e-11
0.0144462
0.0100117
4.03353e-12
0.0133743
0.00995729
2.76083e-13
0.0121818
0.0105274
-5.841e-12
0.0109061
0.0113683
-8.13272e-12
0.00947325
0.0126504
-1.45757e-11
0.00780414
0.0140259
-2.0292e-11
0.00583471
0.0155242
-2.41589e-11
0.00334911
0.0171802
-3.06698e-11
0.0189793
-3.29227e-11
0.0168001
9.04044e-10
-3.96822e-16
0.0168001
4.21012e-09
-2.22171e-15
0.0168001
1.64505e-08
-4.30637e-15
0.0168001
4.03298e-08
-8.80168e-15
0.0168
1.14887e-07
-1.26949e-14
0.0168
2.54343e-07
-2.14811e-14
0.0168
6.82448e-07
-2.78324e-14
0.0168001
1.46069e-06
-4.39118e-14
0.0167997
4.03171e-06
-5.66988e-14
0.0168007
7.77542e-06
-8.93255e-14
0.0167964
2.68461e-05
-8.06336e-14
0.0168042
4.69076e-05
-1.10183e-13
0.0167673
0.000201019
3.5306e-13
0.0167911
0.00049724
1.80472e-12
0.016632
0.0021234
5.65691e-12
0.0159212
0.0097097
2.18028e-11
0.0147633
0.0111832
5.65356e-12
0.0137086
0.0110157
1.39958e-12
0.012639
0.0115854
-4.93695e-12
0.0114816
0.0125112
-7.25568e-12
0.0101729
0.0139143
-1.31458e-11
0.0087026
0.0154757
-1.75865e-11
0.00690596
0.017313
-2.16261e-11
0.00434951
0.0197246
-2.805e-11
0.0233056
-2.96102e-11
0.0168001
-4.07054e-16
1.37727e-09
0.0168001
-2.24049e-15
1.24572e-09
0.0168001
-4.36626e-15
1.85784e-08
0.0168001
-9.13631e-15
1.57505e-08
0.0168001
-1.28009e-14
1.26933e-07
0.0168002
-2.23388e-14
9.89703e-08
0.0168
-2.92646e-14
7.78643e-07
0.016801
-4.7196e-14
4.7204e-07
0.0167993
-6.42717e-14
5.34686e-06
0.0168052
-1.04593e-13
1.66015e-06
0.0167888
-1.29845e-13
4.1628e-05
0.0168256
-2.03019e-13
8.23284e-06
0.0167096
6.55566e-14
0.00031016
0.0169199
6.76269e-13
0.00027864
0.0167606
4.77433e-12
0.0022505
0.0167096
1.97981e-11
0.00965248
0.0154722
7.78344e-12
0.0124501
0.014317
2.99144e-12
0.0121877
0.0133628
-3.38772e-12
0.0125393
0.0123163
-7.61106e-12
0.013552
0.0112651
-1.21609e-11
0.0149397
0.0100505
-1.44674e-11
0.0166766
0.00841423
-1.77443e-11
0.0189457
0.00599083
-2.38929e-11
0.0221558
-2.29036e-11
0.0292852
0.0168001
1.03527e-10
1.35557e-16
0.0168001
5.64587e-10
1.3255e-16
0.0168001
2.09846e-09
-2.46293e-16
0.0168
5.39416e-09
-5.3284e-16
0.0168
1.48249e-08
-1.34541e-15
0.0168
3.39488e-08
-2.69835e-15
0.0167998
8.85089e-08
-6.54302e-15
0.0167996
1.9707e-07
-1.38122e-14
0.0167988
5.20399e-07
-5.70786e-14
0.0167975
1.1452e-06
-1.06065e-13
0.0167929
3.27066e-06
-3.61058e-13
0.0167841
7.65375e-06
-5.89765e-13
0.0167531
2.67206e-05
-2.43993e-12
0.0166675
7.33827e-05
-6.10959e-12
0.0162773
0.000368816
-1.78005e-11
0.0150025
0.00123058
-1.47261e-11
0.0136961
0.00129656
7.05423e-13
0.0123754
0.00131827
2.57799e-12
0.0109929
0.00138301
2.3747e-12
0.00949484
0.00148845
1.1878e-13
0.00781524
0.00163552
-1.50533e-12
0.00599533
0.00178284
-3.00914e-12
0.00406903
0.00190405
-4.16584e-12
0.00206746
0.00197482
-6.63527e-12
0.00203874
-5.62598e-12
0.0168001
2.10678e-10
1.35665e-16
0.0168001
1.14813e-09
1.32377e-16
0.0168001
4.26861e-09
-2.46552e-16
0.0168
1.09483e-08
-5.32887e-16
0.0168
3.0151e-08
-1.46615e-15
0.0168
6.89303e-08
-2.99034e-15
0.0167998
1.80196e-07
-6.63386e-15
0.0167996
4.00809e-07
-1.41942e-14
0.0167988
1.06104e-06
-5.77983e-14
0.0167974
2.34071e-06
-1.13705e-13
0.0167927
6.63513e-06
-3.40645e-13
0.0167833
1.57263e-05
-7.07153e-13
0.016751
5.40686e-05
-2.26515e-12
0.0166745
0.00014561
-5.96185e-12
0.0162809
0.000728631
-1.64053e-11
0.0150159
0.00245169
-1.45086e-11
0.013696
0.00260593
-1.71385e-13
0.0123763
0.00263487
2.96234e-12
0.0110003
0.00275942
2.11853e-12
0.00948843
0.00299065
5.72873e-14
0.00779038
0.00328938
-1.54084e-12
0.00596688
0.00356967
-3.04234e-12
0.00403868
0.00380957
-4.27612e-12
0.00202824
0.00395746
-6.85471e-12
0.00403813
-5.62818e-12
0.0168001
3.19745e-10
1.35996e-16
0.0168001
1.74333e-09
1.32005e-16
0.0168001
6.47773e-09
-6.12261e-17
0.0168
1.66193e-08
-5.30461e-16
0.0168
4.56961e-08
-1.36566e-15
0.0168
1.04453e-07
-2.95796e-15
0.0167998
2.72377e-07
-6.51587e-15
0.0167996
6.05562e-07
-1.37969e-14
0.0167988
1.59711e-06
-5.64222e-14
0.0167974
3.52052e-06
-1.11132e-13
0.0167928
9.92447e-06
-3.2963e-13
0.0167839
2.34501e-05
-6.85008e-13
0.0167531
7.99432e-05
-2.15262e-12
0.0166805
0.00021526
-5.35698e-12
0.0163214
0.00105325
-1.54797e-11
0.015088
0.00364348
-1.44535e-11
0.0137388
0.00394252
-1.34639e-12
0.0124172
0.00395197
2.43076e-12
0.0110628
0.00411355
1.7364e-12
0.00955813
0.00448493
-1.06175e-13
0.00785477
0.00494811
-1.74344e-12
0.00602523
0.00536113
-3.11179e-12
0.00408731
0.00572381
-4.38846e-12
0.00205965
0.00595675
-6.72263e-12
0.00606903
-5.91647e-12
0.0168001
4.33876e-10
1.36273e-16
0.0168001
2.37215e-09
1.30604e-16
0.0168001
8.81673e-09
-2.46883e-16
0.0168
2.26592e-08
-5.33588e-16
0.0168
6.21406e-08
-1.45283e-15
0.0168
1.42143e-07
-2.78664e-15
0.0167998
3.68965e-07
-6.47531e-15
0.0167996
8.2073e-07
-1.35202e-14
0.0167988
2.14954e-06
-5.53884e-14
0.0167973
4.73689e-06
-1.09644e-13
0.0167928
1.32629e-05
-3.18546e-13
0.016784
3.09042e-05
-6.75637e-13
0.0167543
0.000104974
-2.02708e-12
0.0166864
0.00027995
-5.06662e-12
0.0163829
0.00132585
-1.45781e-11
0.0151868
0.00479543
-1.49243e-11
0.0137917
0.00531978
-2.27864e-12
0.012497
0.00524264
2.24057e-12
0.0111941
0.00542019
1.58975e-12
0.00970471
0.0059669
-4.09175e-13
0.0080089
0.00659684
-2.26442e-12
0.00618055
0.00715221
-3.23416e-12
0.00421489
0.00766538
-4.61219e-12
0.00213147
0.00801379
-6.43281e-12
0.00817213
-6.50175e-12
0.0168001
5.78475e-10
1.36565e-16
0.0168001
3.16649e-09
1.29943e-16
0.0168001
1.175e-08
-6.73747e-17
0.0168
3.02046e-08
-5.33377e-16
0.0168
8.27716e-08
-1.44248e-15
0.0168
1.89448e-07
-2.94058e-15
0.0167998
4.91388e-07
-6.38771e-15
0.0167995
1.09454e-06
-1.31673e-14
0.0167985
2.85283e-06
-5.39738e-14
0.0167966
6.36356e-06
-1.06332e-13
0.0167917
1.69782e-05
-3.17172e-13
0.0167797
4.16489e-05
-6.25683e-13
0.0167539
0.000126078
-2.00865e-12
0.016675
0.000355918
-4.80375e-12
0.0164278
0.00154247
-1.37842e-11
0.0152429
0.00593607
-1.59319e-11
0.0138022
0.00674689
-3.68697e-12
0.012636
0.00641511
2.21682e-12
0.0113923
0.00667082
1.33535e-12
0.00992333
0.00742302
-1.08077e-12
0.0082438
0.00822391
-2.67401e-12
0.00641391
0.00893853
-3.26854e-12
0.00443504
0.00961814
-4.46693e-12
0.00227405
0.0101456
-6.32126e-12
0.0104181
-6.68359e-12
0.0168001
7.65925e-10
1.34515e-16
0.0168001
4.12827e-09
1.18285e-16
0.0168001
1.5397e-08
-8.41332e-17
0.0168
3.93816e-08
-5.97124e-16
0.0168
1.09324e-07
-1.64558e-15
0.0167999
2.50673e-07
-2.95291e-15
0.0167997
6.5382e-07
-7.43178e-15
0.0167992
1.50459e-06
-1.57148e-14
0.0167982
3.57895e-06
-6.22748e-14
0.0167947
9.59951e-06
-1.32542e-13
0.0167916
1.87655e-05
-3.10205e-13
0.0167761
5.53413e-05
-9.37927e-13
0.016752
0.000144143
-1.7779e-12
0.0166984
0.000413536
-5.25495e-12
0.0164734
0.00174144
-1.3419e-11
0.0152389
0.00712138
-1.79752e-11
0.0142015
0.00776692
-6.02182e-12
0.0129118
0.00771026
5.60357e-12
0.011566
0.00801341
2.45911e-12
0.0101929
0.00877348
-1.60633e-12
0.00855294
0.00980537
-2.93065e-12
0.00674545
0.0107003
-3.3061e-12
0.00473143
0.0116063
-4.39697e-12
0.00247666
0.0123734
-6.14686e-12
0.0128671
-6.8492e-12
0.0168001
8.50513e-10
1.34521e-16
0.0168001
4.57644e-09
1.15469e-16
0.0168001
1.70171e-08
-2.8399e-16
0.0168
4.36651e-08
-6.1336e-16
0.0168
1.20225e-07
-1.52486e-15
0.0168
2.77207e-07
-3.61194e-15
0.0167999
7.08966e-07
-8.00459e-15
0.0167996
1.67397e-06
-2.14954e-14
0.0167991
3.85776e-06
-5.56381e-14
0.0167982
9.90421e-06
-2.02133e-13
0.0167943
2.14849e-05
-2.28352e-13
0.0167899
5.70645e-05
-1.02648e-12
0.016776
0.000151895
-1.71282e-12
0.0166982
0.000496505
-5.3584e-12
0.0165757
0.00183643
-1.36746e-11
0.0154434
0.00819256
-2.34107e-11
0.0143486
0.00885598
-7.21962e-13
0.0131734
0.00888386
1.69807e-12
0.0118288
0.00934756
-9.9489e-15
0.0104724
0.0101131
-1.26565e-12
0.00894657
0.0112758
-3.12568e-12
0.00719566
0.0124084
-3.25543e-12
0.0051901
0.0135864
-4.20284e-12
0.00281359
0.0147306
-5.6241e-12
0.0156549
-6.50673e-12
0.0168001
8.02729e-10
1.33256e-16
0.0168001
4.38868e-09
9.99507e-17
0.0168001
1.63802e-08
-1.15211e-16
0.0168001
4.22036e-08
-6.91995e-16
0.0168
1.16319e-07
-1.62823e-15
0.0168
2.67883e-07
-3.98588e-15
0.0168
6.9444e-07
-8.43583e-15
0.0168
1.58115e-06
-2.16725e-14
0.0167996
4.00632e-06
-5.58826e-14
0.0167999
9.05545e-06
-1.75675e-13
0.0167959
2.4257e-05
-2.79457e-13
0.0167938
5.60975e-05
-8.94612e-13
0.0167688
0.000171466
-1.65029e-12
0.0167298
0.00052655
-6.42171e-12
0.0165571
0.00198771
-1.33262e-11
0.0155974
0.00908701
-2.8801e-11
0.0144462
0.0100117
1.77833e-12
0.0133743
0.00995728
1.77301e-12
0.0121818
0.0105274
-4.57127e-13
0.0109061
0.0113683
-1.07217e-12
0.00947327
0.0126504
-2.44077e-12
0.00780415
0.0140259
-2.63654e-12
0.00583472
0.0155242
-3.34019e-12
0.00334911
0.0171803
-4.70933e-12
0.0189794
-5.62169e-12
0.0168001
9.04036e-10
1.40054e-16
0.0168001
4.21012e-09
1.23906e-16
0.0168001
1.64505e-08
-9.78586e-17
0.0168001
4.03297e-08
-5.4297e-16
0.0168
1.14887e-07
-1.4865e-15
0.0168
2.54343e-07
-3.01903e-15
0.0168
6.82447e-07
-7.12019e-15
0.0168001
1.46068e-06
-1.34525e-14
0.0167997
4.03171e-06
-4.96826e-14
0.0168007
7.7754e-06
-9.42155e-14
0.0167964
2.6846e-05
-3.72112e-13
0.0168042
4.69075e-05
-6.82231e-13
0.0167673
0.000201019
-2.32744e-12
0.0167911
0.000497239
-6.32218e-12
0.016632
0.00212339
-1.48723e-11
0.0159212
0.00970968
-3.45469e-11
0.0147633
0.0111832
3.59313e-12
0.0137086
0.0110157
2.83986e-12
0.012639
0.0115854
1.40411e-14
0.0114817
0.0125112
-6.13158e-13
0.0101729
0.0139143
-1.82351e-12
0.00870261
0.0154757
-1.93288e-12
0.00690597
0.017313
-2.65619e-12
0.00434951
0.0197246
-3.80054e-12
0.0233056
-4.3359e-12
0.0168001
1.43456e-16
1.37725e-09
0.0168001
1.2755e-16
1.24577e-09
0.0168001
-1.05949e-16
1.85782e-08
0.0168001
-5.22881e-16
1.57507e-08
0.0168001
-1.45168e-15
1.26932e-07
0.0168002
-2.9524e-15
9.89705e-08
0.0168
-7.60617e-15
7.78642e-07
0.016801
-1.32486e-14
4.7204e-07
0.0167993
-4.44115e-14
5.34686e-06
0.0168052
-7.73308e-14
1.66014e-06
0.0167888
-3.62812e-13
4.1628e-05
0.0168256
-6.33822e-13
8.23278e-06
0.0167096
-2.38428e-12
0.00031016
0.0169199
-5.51397e-12
0.00027864
0.0167606
-1.73411e-11
0.0022505
0.0167096
-4.15377e-11
0.00965247
0.0154722
6.32264e-12
0.0124501
0.014317
4.42386e-12
0.0121877
0.0133629
1.24282e-12
0.0125392
0.0123163
-4.1852e-13
0.013552
0.0112651
-1.13095e-12
0.0149397
0.0100505
-1.42697e-12
0.0166766
0.00841423
-1.70903e-12
0.0189457
0.00599083
-2.73267e-12
0.0221558
-3.00034e-12
0.0292852
0.0168001
1.03527e-10
-2.23092e-17
0.0168001
5.64587e-10
-8.83159e-17
0.0168001
2.09846e-09
-2.05373e-16
0.0168
5.39416e-09
-3.94429e-16
0.0168
1.48249e-08
-6.94733e-16
0.0168
3.39488e-08
-1.28094e-15
0.0167998
8.85089e-08
-1.35284e-15
0.0167996
1.9707e-07
-2.17772e-15
0.0167988
5.20398e-07
-1.39391e-15
0.0167975
1.14519e-06
1.34493e-15
0.0167929
3.27066e-06
2.65447e-14
0.0167841
7.65372e-06
1.61234e-13
0.0167531
2.67207e-05
5.44655e-13
0.0166675
7.33829e-05
2.15861e-12
0.0162773
0.000368817
8.75001e-12
0.0150025
0.00123058
2.0573e-11
0.0136961
0.00129656
1.48006e-11
0.0123754
0.00131827
1.3432e-11
0.0109929
0.00138301
1.2004e-11
0.00949484
0.00148845
6.22484e-12
0.00781525
0.00163552
-7.28542e-12
0.00599533
0.00178284
-1.50045e-11
0.00406903
0.00190405
-2.33155e-11
0.00206746
0.00197482
-2.54633e-11
0.00203874
-3.53863e-11
0.0168001
2.10677e-10
-2.3207e-17
0.0168001
1.14813e-09
-9.17455e-17
0.0168001
4.26861e-09
-2.13373e-16
0.0168
1.09483e-08
-4.09218e-16
0.0168
3.0151e-08
-7.29178e-16
0.0168
6.89303e-08
-1.34591e-15
0.0167998
1.80197e-07
-1.56707e-15
0.0167996
4.00809e-07
-2.56397e-15
0.0167988
1.06104e-06
-1.94084e-15
0.0167974
2.34071e-06
-9.76577e-16
0.0167927
6.63514e-06
2.87744e-14
0.0167833
1.57263e-05
1.31757e-13
0.016751
5.40687e-05
5.66736e-13
0.0166745
0.00014561
2.12591e-12
0.0162809
0.000728632
8.88857e-12
0.0150159
0.00245169
2.04939e-11
0.013696
0.00260593
1.45053e-11
0.0123763
0.00263487
1.30896e-11
0.0110003
0.00275942
1.16964e-11
0.00948844
0.00299065
5.89316e-12
0.00779038
0.00328938
-7.48958e-12
0.00596689
0.00356967
-1.52293e-11
0.00403868
0.00380957
-2.36789e-11
0.00202824
0.00395747
-2.57602e-11
0.00403813
-3.5374e-11
0.0168001
3.19744e-10
-2.51416e-17
0.0168001
1.74333e-09
-9.87293e-17
0.0168001
6.47773e-09
-2.29218e-16
0.0168
1.66193e-08
-4.3845e-16
0.0168
4.5696e-08
-7.89824e-16
0.0168
1.04453e-07
-1.45646e-15
0.0167998
2.72377e-07
-1.89909e-15
0.0167996
6.05562e-07
-3.13522e-15
0.0167988
1.59711e-06
-2.37099e-15
0.0167974
3.52052e-06
-1.4587e-15
0.0167928
9.92447e-06
2.68023e-14
0.0167839
2.34502e-05
1.30899e-13
0.0167531
7.99433e-05
5.55365e-13
0.0166805
0.00021526
2.04433e-12
0.0163214
0.00105325
8.69263e-12
0.015088
0.00364348
2.02358e-11
0.0137388
0.00394252
1.42027e-11
0.0124172
0.00395197
1.23679e-11
0.0110628
0.00411355
1.08537e-11
0.00955813
0.00448493
4.89873e-12
0.00785477
0.00494811
-8.29404e-12
0.00602523
0.00536113
-1.58002e-11
0.00408732
0.00572381
-2.4303e-11
0.00205965
0.00595675
-2.63989e-11
0.00606903
-3.45969e-11
0.0168001
4.33876e-10
-2.83205e-17
0.0168001
2.37215e-09
-1.09884e-16
0.0168001
8.81673e-09
-2.57367e-16
0.0168
2.26592e-08
-4.9126e-16
0.0168
6.21406e-08
-9.17173e-16
0.0168
1.42143e-07
-1.69901e-15
0.0167998
3.68965e-07
-2.63277e-15
0.0167996
8.20729e-07
-4.69319e-15
0.0167988
2.14954e-06
-3.61945e-15
0.0167973
4.73689e-06
-5.17233e-15
0.0167928
1.32629e-05
2.27612e-14
0.016784
3.09042e-05
9.92947e-14
0.0167543
0.000104974
5.48703e-13
0.0166864
0.00027995
1.92184e-12
0.0163829
0.00132586
8.17987e-12
0.0151868
0.00479543
1.99083e-11
0.0137917
0.00531978
1.4119e-11
0.012497
0.00524264
1.13342e-11
0.0111942
0.00542019
9.59292e-12
0.00970471
0.0059669
3.71932e-12
0.0080089
0.00659684
-9.77928e-12
0.00618055
0.00715221
-1.6246e-11
0.0042149
0.00766538
-2.45658e-11
0.00213147
0.00801379
-2.71532e-11
0.00817213
-3.26217e-11
0.0168001
5.78473e-10
-3.08972e-17
0.0168001
3.16648e-09
-1.1817e-16
0.0168001
1.175e-08
-2.79478e-16
0.0168
3.02045e-08
-5.32138e-16
0.0168
8.27715e-08
-1.01741e-15
0.0168
1.89448e-07
-1.89162e-15
0.0167998
4.91387e-07
-3.16742e-15
0.0167995
1.09454e-06
-5.83854e-15
0.0167985
2.85283e-06
-4.89896e-15
0.0167966
6.36355e-06
-8.31101e-15
0.0167917
1.69782e-05
1.05261e-14
0.0167797
4.16487e-05
8.34627e-14
0.0167539
0.000126078
4.48728e-13
0.016675
0.000355917
1.71104e-12
0.0164278
0.00154247
7.29828e-12
0.0152429
0.00593607
1.89617e-11
0.0138022
0.00674689
1.38984e-11
0.012636
0.00641511
1.00995e-11
0.0113923
0.00667082
8.06622e-12
0.00992333
0.00742302
2.0313e-12
0.0082438
0.00822391
-1.03208e-11
0.00641391
0.00893853
-1.62987e-11
0.00443504
0.00961814