/*--------------------------------*- C++ -*----------------------------------*\
| =========                 |                                                 |
| \\      /  F ield         | OpenFOAM: The Open Source CFD Toolbox           |
|  \\    /   O peration     | Version:  4.1                                   |
|   \\  /    A nd           | Web:      www.OpenFOAM.org                      |
|    \\/     M anipulation  |                                                 |
\*---------------------------------------------------------------------------*/
FoamFile
{
    version     2.0;
    format      ascii;
    class       volScalarField;
    location    "1";
    object      Ma;
}
// * * * * * * * * * * * * * * * * * * * * * * * * * * * * * * * * * * * * * //

dimensions      [0 0 0 0 0 0 0];

internalField   nonuniform List<scalar> 
52500
(
3.00002
3.00001
2.99999
2.99992
2.99982
2.9994
2.99881
2.99644
2.99282
2.97999
2.9542
2.88334
2.69224
2.30585
1.41749
0.560085
0.170418
0.299342
0.326824
0.282403
0.219311
0.172825
0.136964
0.0760676
0.0361826
3.00002
3.00001
2.99999
2.99992
2.99982
2.99941
2.99883
2.99648
2.99292
2.98021
2.95502
2.88513
2.69801
2.3175
1.43983
0.57353
0.179757
0.304388
0.331353
0.287093
0.225124
0.179813
0.145679
0.0920079
0.0644703
3.00002
3.00001
2.99999
2.99992
2.99982
2.99942
2.99885
2.99656
2.9931
2.98065
2.95662
2.88868
2.70957
2.34173
1.48807
0.602999
0.199872
0.315412
0.341485
0.298567
0.239978
0.197953
0.168017
0.125231
0.106608
3.00002
3.00001
2.99999
2.99993
2.99983
2.99944
2.99889
2.99666
2.99334
2.98117
2.95859
2.89318
2.72519
2.37373
1.55711
0.643003
0.227144
0.330734
0.355601
0.315586
0.262425
0.224743
0.199673
0.1659
0.151979
3.00002
3.00001
2.99999
2.99993
2.99984
2.99946
2.99894
2.99678
2.99364
2.98173
2.9609
2.89768
2.74328
2.40483
1.63573
0.689611
0.260367
0.348663
0.371646
0.336515
0.290345
0.257275
0.237053
0.210384
0.19976
3.00002
3.00001
3
2.99993
2.99985
2.9995
2.999
2.99697
2.99402
2.98286
2.96346
2.90318
2.75887
2.43991
1.70766
0.749662
0.304576
0.370065
0.388899
0.360677
0.323107
0.295103
0.279823
0.259669
0.252879
3.00002
3.00001
3
2.99994
2.99986
2.99953
2.99906
2.99715
2.9944
2.98378
2.96601
2.90895
2.77688
2.47676
1.77295
0.827681
0.358504
0.393805
0.40586
0.388166
0.359993
0.337525
0.32894
0.315577
0.314722
3.00002
3.00001
3
2.99995
2.99987
2.99957
2.99914
2.99737
2.99484
2.98494
2.96884
2.91545
2.79629
2.51498
1.8488
0.920551
0.421971
0.415441
0.425375
0.420482
0.400899
0.385297
0.384848
0.380246
0.390798
3.00002
3.00001
3
2.99996
2.99989
2.99961
2.99923
2.99763
2.99536
2.98634
2.97199
2.92303
2.81651
2.55856
1.93439
1.02881
0.490138
0.433792
0.448135
0.45433
0.443227
0.437704
0.447328
0.45709
0.493036
3.00002
3.00002
3.00001
2.99997
2.99991
2.99968
2.99934
2.99802
2.99601
2.98869
2.97534
2.93438
2.83502
2.61156
2.01877
1.1385
0.564332
0.452893
0.473025
0.489011
0.487765
0.493434
0.51844
0.558546
0.662921
3
2.99999
2.99997
2.9999
2.9998
2.99938
2.99879
2.99642
2.99279
2.97996
2.95416
2.88326
2.69212
2.30553
1.41698
0.559755
0.170042
0.299099
0.326592
0.282136
0.218972
0.172411
0.136436
0.0750848
0.0342127
3
2.99999
2.99997
2.9999
2.9998
2.99939
2.99881
2.99646
2.99289
2.98018
2.95499
2.88506
2.6979
2.31719
1.43934
0.573207
0.179398
0.304153
0.33113
0.286836
0.2248
0.179421
0.145189
0.091208
0.063401
3
2.99999
2.99997
2.9999
2.99981
2.9994
2.99883
2.99653
2.99308
2.98062
2.95659
2.88862
2.70946
2.34145
1.4876
0.602697
0.199549
0.315194
0.341281
0.298329
0.239681
0.197603
0.167599
0.124652
0.105972
3
2.99999
2.99997
2.99991
2.99981
2.99942
2.99887
2.99663
2.99331
2.98114
2.95856
2.89312
2.7251
2.37351
1.55667
0.642744
0.226869
0.330539
0.35542
0.31537
0.26216
0.224441
0.199328
0.16547
0.151539
3
2.99999
2.99998
2.99991
2.99982
2.99944
2.99892
2.99676
2.99362
2.98171
2.96087
2.89764
2.7432
2.40468
1.63538
0.689387
0.260098
0.34849
0.371488
0.336323
0.290114
0.257018
0.23677
0.210051
0.199429
3
2.99999
2.99998
2.99992
2.99983
2.99948
2.99898
2.99695
2.994
2.98283
2.96343
2.90313
2.75882
2.43975
1.7075
0.749397
0.304321
0.369902
0.388761
0.360508
0.322906
0.294886
0.279589
0.259405
0.252621
3
2.99999
2.99998
2.99992
2.99984
2.99951
2.99904
2.99713
2.99438
2.98375
2.96599
2.90891
2.77682
2.47666
1.77278
0.827439
0.358264
0.393664
0.405743
0.388011
0.359816
0.33734
0.328747
0.315365
0.314519
3.00001
3
2.99998
2.99993
2.99985
2.99955
2.99912
2.99735
2.99482
2.98492
2.96881
2.91541
2.79624
2.51488
1.84863
0.920315
0.421759
0.415322
0.425255
0.420344
0.400748
0.385141
0.38469
0.380077
0.390638
3.00001
3
2.99998
2.99994
2.99987
2.99959
2.99921
2.99761
2.99534
2.98632
2.97196
2.92299
2.81647
2.55845
1.93427
1.0286
0.48997
0.433692
0.448027
0.454211
0.443099
0.437574
0.447199
0.456956
0.492916
3.00001
3
2.99999
2.99995
2.99989
2.99966
2.99932
2.998
2.99598
2.98866
2.97531
2.93433
2.83497
2.61146
2.01865
1.1383
0.564183
0.452804
0.472929
0.488909
0.487658
0.493326
0.518336
0.558444
0.662839
3
2.99999
2.99997
2.9999
2.9998
2.99938
2.99879
2.99642
2.99279
2.97996
2.95416
2.88326
2.69211
2.30552
1.41696
0.559746
0.170041
0.299098
0.326591
0.282136
0.218972
0.17241
0.136437
0.0750875
0.0342105
3
2.99999
2.99997
2.9999
2.9998
2.99939
2.99881
2.99646
2.99289
2.98018
2.95499
2.88506
2.69789
2.31718
1.43932
0.573199
0.179397
0.304152
0.331129
0.286836
0.224799
0.17942
0.145191
0.0912106
0.0634005
3
2.99999
2.99997
2.9999
2.99981
2.9994
2.99883
2.99653
2.99308
2.98062
2.95659
2.88862
2.70946
2.34144
1.48758
0.602688
0.199549
0.315193
0.34128
0.298329
0.23968
0.197602
0.1676
0.124654
0.105972
3
2.99999
2.99997
2.99991
2.99981
2.99942
2.99887
2.99663
2.99331
2.98114
2.95856
2.89312
2.7251
2.3735
1.55665
0.642737
0.226869
0.330539
0.35542
0.31537
0.262159
0.22444
0.199329
0.165471
0.151539
3
2.99999
2.99998
2.99991
2.99982
2.99944
2.99892
2.99676
2.99362
2.98171
2.96087
2.89764
2.7432
2.40467
1.63537
0.68938
0.260096
0.34849
0.371488
0.336323
0.290114
0.257018
0.23677
0.210052
0.19943
3
2.99999
2.99998
2.99992
2.99983
2.99948
2.99898
2.99695
2.994
2.98283
2.96343
2.90313
2.75882
2.43975
1.7075
0.749389
0.304318
0.369902
0.388762
0.360508
0.322906
0.294885
0.27959
0.259405
0.252622
3
2.99999
2.99998
2.99992
2.99984
2.99951
2.99904
2.99713
2.99438
2.98375
2.96599
2.90891
2.77682
2.47666
1.77277
0.827431
0.35826
0.393664
0.405744
0.388011
0.359815
0.337339
0.328747
0.315365
0.31452
3.00001
3
2.99998
2.99993
2.99985
2.99955
2.99912
2.99735
2.99482
2.98492
2.96881
2.91541
2.79623
2.51487
1.84863
0.920307
0.421754
0.415322
0.425256
0.420344
0.400748
0.38514
0.38469
0.380077
0.390639
3.00001
3
2.99998
2.99994
2.99987
2.99959
2.99921
2.99761
2.99534
2.98632
2.97196
2.92299
2.81647
2.55845
1.93426
1.02859
0.489965
0.433692
0.448028
0.454211
0.443099
0.437574
0.4472
0.456957
0.492917
3.00001
3
2.99999
2.99995
2.99989
2.99966
2.99932
2.998
2.99598
2.98866
2.97531
2.93433
2.83497
2.61145
2.01864
1.13829
0.564179
0.452805
0.47293
0.488908
0.487658
0.493325
0.518336
0.558445
0.66284
3
2.99999
2.99997
2.9999
2.9998
2.99938
2.99879
2.99642
2.99279
2.97996
2.95416
2.88326
2.69211
2.30552
1.41696
0.559745
0.170041
0.299098
0.32659
0.282135
0.218971
0.17241
0.136438
0.0750878
0.0342114
3
2.99999
2.99997
2.9999
2.9998
2.99939
2.99881
2.99646
2.99289
2.98018
2.95499
2.88506
2.69789
2.31718
1.43932
0.573198
0.179397
0.304152
0.331129
0.286835
0.224799
0.17942
0.145192
0.0912105
0.0634008
3
2.99999
2.99997
2.9999
2.99981
2.9994
2.99883
2.99653
2.99308
2.98062
2.95659
2.88862
2.70946
2.34144
1.48758
0.602687
0.199548
0.315193
0.34128
0.298328
0.23968
0.197602
0.167601
0.124654
0.105972
3
2.99999
2.99997
2.99991
2.99981
2.99942
2.99887
2.99663
2.99331
2.98114
2.95856
2.89312
2.7251
2.3735
1.55665
0.642736
0.226868
0.330539
0.355419
0.31537
0.262159
0.22444
0.199329
0.165471
0.151539
3
2.99999
2.99998
2.99991
2.99982
2.99944
2.99892
2.99676
2.99362
2.98171
2.96087
2.89764
2.7432
2.40467
1.63537
0.689379
0.260096
0.34849
0.371488
0.336323
0.290113
0.257017
0.236771
0.210052
0.19943
3
2.99999
2.99998
2.99992
2.99983
2.99948
2.99898
2.99695
2.994
2.98283
2.96343
2.90313
2.75882
2.43974
1.7075
0.749388
0.304317
0.369902
0.388761
0.360508
0.322906
0.294885
0.27959
0.259405
0.252622
3
2.99999
2.99998
2.99992
2.99984
2.99951
2.99904
2.99713
2.99438
2.98375
2.96599
2.90891
2.77682
2.47666
1.77277
0.82743
0.358259
0.393664
0.405744
0.388011
0.359815
0.337339
0.328747
0.315365
0.31452
3.00001
3
2.99998
2.99993
2.99985
2.99955
2.99912
2.99735
2.99482
2.98492
2.96881
2.91541
2.79623
2.51487
1.84863
0.920306
0.421754
0.415322
0.425256
0.420343
0.400747
0.38514
0.38469
0.380077
0.390639
3.00001
3
2.99998
2.99994
2.99987
2.99959
2.99921
2.99761
2.99534
2.98632
2.97196
2.92299
2.81647
2.55845
1.93426
1.02859
0.489965
0.433692
0.448028
0.45421
0.443098
0.437573
0.4472
0.456957
0.492917
3.00001
3
2.99999
2.99995
2.99989
2.99966
2.99932
2.998
2.99598
2.98866
2.97531
2.93433
2.83497
2.61145
2.01864
1.13829
0.564179
0.452805
0.47293
0.488908
0.487657
0.493325
0.518336
0.558444
0.66284
3
2.99999
2.99997
2.9999
2.9998
2.99938
2.99879
2.99642
2.99279
2.97996
2.95416
2.88326
2.6921
2.3055
1.41693
0.559733
0.170042
0.299097
0.326589
0.282134
0.21897
0.172408
0.136436
0.0750865
0.0342103
3
2.99999
2.99997
2.9999
2.9998
2.99939
2.99881
2.99646
2.99289
2.98018
2.95499
2.88506
2.69788
2.31716
1.43929
0.573186
0.179397
0.304151
0.331128
0.286834
0.224797
0.179419
0.14519
0.0912099
0.0634001
3
2.99999
2.99997
2.9999
2.99981
2.9994
2.99883
2.99653
2.99308
2.98062
2.95659
2.88861
2.70945
2.34143
1.48755
0.602677
0.199548
0.315192
0.34128
0.298328
0.239679
0.197601
0.1676
0.124653
0.105972
3
2.99999
2.99997
2.99991
2.99981
2.99942
2.99887
2.99663
2.99331
2.98114
2.95856
2.89312
2.72509
2.37349
1.55663
0.642728
0.226869
0.330539
0.35542
0.315369
0.262158
0.224439
0.199329
0.165471
0.151539
3
2.99999
2.99998
2.99991
2.99982
2.99944
2.99892
2.99676
2.99362
2.98171
2.96087
2.89764
2.7432
2.40467
1.63535
0.689372
0.260094
0.34849
0.371489
0.336323
0.290113
0.257017
0.23677
0.210052
0.19943
3
2.99999
2.99998
2.99992
2.99983
2.99948
2.99898
2.99695
2.994
2.98283
2.96343
2.90312
2.75882
2.43974
1.70749
0.749378
0.304314
0.369902
0.388763
0.360508
0.322906
0.294885
0.27959
0.259405
0.252622
3
2.99999
2.99998
2.99992
2.99984
2.99951
2.99904
2.99713
2.99438
2.98375
2.96599
2.90891
2.77682
2.47665
1.77276
0.82742
0.358255
0.393665
0.405747
0.388011
0.359815
0.337339
0.328747
0.315365
0.31452
3.00001
3
2.99998
2.99993
2.99985
2.99955
2.99912
2.99735
2.99482
2.98492
2.96881
2.91541
2.79623
2.51487
1.84862
0.920296
0.421749
0.415324
0.425257
0.420344
0.400748
0.38514
0.38469
0.380077
0.390639
3.00001
3
2.99998
2.99994
2.99987
2.99959
2.99921
2.99761
2.99534
2.98632
2.97196
2.92299
2.81646
2.55844
1.93425
1.02858
0.489961
0.433694
0.448029
0.454211
0.443099
0.437574
0.4472
0.456957
0.492917
3.00001
3
2.99999
2.99995
2.99989
2.99966
2.99932
2.998
2.99598
2.98866
2.97531
2.93433
2.83497
2.61145
2.01863
1.13828
0.564175
0.452807
0.472931
0.488909
0.487658
0.493326
0.518336
0.558445
0.66284
3
2.99999
2.99997
2.9999
2.9998
2.99938
2.99879
2.99642
2.99279
2.97996
2.95416
2.88326
2.69211
2.30551
1.41695
0.559739
0.170042
0.299098
0.32659
0.282135
0.218971
0.172409
0.136437
0.0750873
0.0342113
3
2.99999
2.99997
2.9999
2.9998
2.99939
2.99881
2.99646
2.99289
2.98018
2.95499
2.88506
2.69789
2.31717
1.4393
0.573192
0.179398
0.304152
0.331128
0.286835
0.224798
0.179419
0.145191
0.0912102
0.0634008
3
2.99999
2.99997
2.9999
2.99981
2.9994
2.99883
2.99653
2.99308
2.98062
2.95659
2.88861
2.70945
2.34144
1.48757
0.602682
0.199549
0.315193
0.34128
0.298328
0.239679
0.197601
0.1676
0.124653
0.105972
3
2.99999
2.99997
2.99991
2.99981
2.99942
2.99887
2.99663
2.99331
2.98114
2.95856
2.89312
2.72509
2.3735
1.55664
0.642732
0.226869
0.330539
0.35542
0.315369
0.262159
0.22444
0.199329
0.165471
0.151539
3
2.99999
2.99998
2.99991
2.99982
2.99944
2.99892
2.99676
2.99362
2.98171
2.96087
2.89764
2.7432
2.40467
1.63536
0.689376
0.260095
0.34849
0.371489
0.336323
0.290113
0.257017
0.23677
0.210052
0.19943
3
2.99999
2.99998
2.99992
2.99983
2.99948
2.99898
2.99695
2.994
2.98283
2.96343
2.90313
2.75882
2.43974
1.70749
0.749383
0.304316
0.369902
0.388762
0.360508
0.322906
0.294885
0.27959
0.259405
0.252622
3
2.99999
2.99998
2.99992
2.99984
2.99951
2.99904
2.99713
2.99438
2.98375
2.96599
2.90891
2.77682
2.47665
1.77277
0.827425
0.358257
0.393664
0.405746
0.388011
0.359815
0.337339
0.328747
0.315365
0.31452
3.00001
3
2.99998
2.99993
2.99985
2.99955
2.99912
2.99735
2.99482
2.98492
2.96881
2.91541
2.79623
2.51487
1.84862
0.920301
0.421752
0.415323
0.425257
0.420344
0.400748
0.38514
0.38469
0.380077
0.390639
3.00001
3
2.99998
2.99994
2.99987
2.99959
2.99921
2.99761
2.99534
2.98632
2.97196
2.92299
2.81647
2.55845
1.93426
1.02859
0.489963
0.433693
0.448028
0.454211
0.443099
0.437574
0.4472
0.456957
0.492917
3.00001
3
2.99999
2.99995
2.99989
2.99966
2.99932
2.998
2.99598
2.98866
2.97531
2.93433
2.83497
2.61145
2.01864
1.13829
0.564177
0.452806
0.47293
0.488909
0.487658
0.493325
0.518336
0.558444
0.66284
3
2.99999
2.99997
2.9999
2.9998
2.99938
2.99879
2.99642
2.99279
2.97996
2.95416
2.88326
2.69211
2.30552
1.41696
0.559745
0.170041
0.299098
0.32659
0.282135
0.218971
0.17241
0.136438
0.0750878
0.0342114
3
2.99999
2.99997
2.9999
2.9998
2.99939
2.99881
2.99646
2.99289
2.98018
2.95499
2.88506
2.69789
2.31718
1.43932
0.573198
0.179397
0.304152
0.331129
0.286835
0.224799
0.17942
0.145192
0.0912105
0.0634008
3
2.99999
2.99997
2.9999
2.99981
2.9994
2.99883
2.99653
2.99308
2.98062
2.95659
2.88862
2.70946
2.34144
1.48758
0.602688
0.199548
0.315193
0.34128
0.298328
0.23968
0.197602
0.167601
0.124654
0.105972
3
2.99999
2.99997
2.99991
2.99981
2.99942
2.99887
2.99663
2.99331
2.98114
2.95856
2.89312
2.7251
2.3735
1.55665
0.642737
0.226868
0.330539
0.355419
0.31537
0.262159
0.22444
0.199329
0.165471
0.151539
3
2.99999
2.99998
2.99991
2.99982
2.99944
2.99892
2.99676
2.99362
2.98171
2.96087
2.89764
2.7432
2.40467
1.63537
0.68938
0.260096
0.34849
0.371488
0.336323
0.290113
0.257017
0.236771
0.210052
0.19943
3
2.99999
2.99998
2.99992
2.99983
2.99948
2.99898
2.99695
2.994
2.98283
2.96343
2.90313
2.75882
2.43974
1.7075
0.749388
0.304317
0.369902
0.388761
0.360508
0.322906
0.294885
0.27959
0.259405
0.252622
3
2.99999
2.99998
2.99992
2.99984
2.99951
2.99904
2.99713
2.99438
2.98375
2.96599
2.90891
2.77682
2.47666
1.77277
0.82743
0.358259
0.393664
0.405744
0.388011
0.359815
0.337339
0.328747
0.315365
0.31452
3.00001
3
2.99998
2.99993
2.99985
2.99955
2.99912
2.99735
2.99482
2.98492
2.96881
2.91541
2.79623
2.51487
1.84863
0.920306
0.421754
0.415322
0.425256
0.420343
0.400747
0.38514
0.38469
0.380077
0.390639
3.00001
3
2.99998
2.99994
2.99987
2.99959
2.99921
2.99761
2.99534
2.98632
2.97196
2.92299
2.81647
2.55845
1.93426
1.02859
0.489965
0.433692
0.448028
0.45421
0.443098
0.437573
0.4472
0.456957
0.492917
3.00001
3
2.99999
2.99995
2.99989
2.99966
2.99932
2.998
2.99598
2.98866
2.97531
2.93433
2.83497
2.61145
2.01864
1.13829
0.564179
0.452805
0.47293
0.488908
0.487657
0.493325
0.518336
0.558444
0.66284
3
2.99999
2.99997
2.9999
2.9998
2.99938
2.99879
2.99642
2.99279
2.97996
2.95416
2.88326
2.69211
2.30552
1.41696
0.559746
0.170041
0.299098
0.326591
0.282136
0.218972
0.17241
0.136437
0.0750875
0.0342105
3
2.99999
2.99997
2.9999
2.9998
2.99939
2.99881
2.99646
2.99289
2.98018
2.95499
2.88506
2.69789
2.31718
1.43932
0.573199
0.179397
0.304152
0.331129
0.286836
0.224799
0.17942
0.145191
0.0912106
0.0634005
3
2.99999
2.99997
2.9999
2.99981
2.9994
2.99883
2.99653
2.99308
2.98062
2.95659
2.88862
2.70946
2.34144
1.48758
0.602688
0.199549
0.315193
0.34128
0.298329
0.23968
0.197602
0.1676
0.124654
0.105972
3
2.99999
2.99997
2.99991
2.99981
2.99942
2.99887
2.99663
2.99331
2.98114
2.95856
2.89312
2.7251
2.3735
1.55665
0.642737
0.226869
0.330539
0.35542
0.31537
0.262159
0.22444
0.199329
0.165471
0.151539
3
2.99999
2.99998
2.99991
2.99982
2.99944
2.99892
2.99676
2.99362
2.98171
2.96087
2.89764
2.7432
2.40467
1.63537
0.68938
0.260096
0.34849
0.371488
0.336323
0.290114
0.257018
0.23677
0.210052
0.19943
3
2.99999
2.99998
2.99992
2.99983
2.99948
2.99898
2.99695
2.994
2.98283
2.96343
2.90313
2.75882
2.43975
1.7075
0.749389
0.304318
0.369902
0.388762
0.360508
0.322906
0.294885
0.27959
0.259405
0.252622
3
2.99999
2.99998
2.99992
2.99984
2.99951
2.99904
2.99713
2.99438
2.98375
2.96599
2.90891
2.77682
2.47666
1.77277
0.827431
0.35826
0.393664
0.405744
0.388011
0.359815
0.337339
0.328747
0.315365
0.31452
3.00001
3
2.99998
2.99993
2.99985
2.99955
2.99912
2.99735
2.99482
2.98492
2.96881
2.91541
2.79623
2.51487
1.84863
0.920307
0.421754
0.415322
0.425256
0.420344
0.400748
0.38514
0.38469
0.380077
0.390639
3.00001
3
2.99998
2.99994
2.99987
2.99959
2.99921
2.99761
2.99534
2.98632
2.97196
2.92299
2.81647
2.55845
1.93426
1.02859
0.489965
0.433692
0.448028
0.454211
0.443099
0.437574
0.4472
0.456957
0.492917
3.00001
3
2.99999
2.99995
2.99989
2.99966
2.99932
2.998
2.99598
2.98866
2.97531
2.93433
2.83497
2.61145
2.01864
1.13829
0.564179
0.452805
0.47293
0.488908
0.487658
0.493325
0.518336
0.558445
0.66284
3
2.99999
2.99997
2.9999
2.9998
2.99938
2.99879
2.99642
2.99279
2.97996
2.95416
2.88326
2.69212
2.30553
1.41698
0.559755
0.170042
0.299099
0.326592
0.282136
0.218972
0.172411
0.136436
0.0750848
0.0342128
3
2.99999
2.99997
2.9999
2.9998
2.99939
2.99881
2.99646
2.99289
2.98018
2.95499
2.88506
2.6979
2.31719
1.43934
0.573207
0.179398
0.304153
0.33113
0.286836
0.2248
0.179421
0.145189
0.091208
0.063401
3
2.99999
2.99997
2.9999
2.99981
2.9994
2.99883
2.99653
2.99308
2.98062
2.95659
2.88862
2.70946
2.34145
1.4876
0.602697
0.199549
0.315194
0.341281
0.298329
0.239681
0.197603
0.167599
0.124652
0.105972
3
2.99999
2.99997
2.99991
2.99981
2.99942
2.99887
2.99663
2.99331
2.98114
2.95856
2.89312
2.7251
2.37351
1.55667
0.642744
0.226869
0.330539
0.35542
0.31537
0.26216
0.224441
0.199328
0.16547
0.151539
3
2.99999
2.99998
2.99991
2.99982
2.99944
2.99892
2.99676
2.99362
2.98171
2.96087
2.89764
2.7432
2.40468
1.63538
0.689387
0.260098
0.34849
0.371488
0.336323
0.290114
0.257018
0.23677
0.210051
0.199429
3
2.99999
2.99998
2.99992
2.99983
2.99948
2.99898
2.99695
2.994
2.98283
2.96343
2.90313
2.75882
2.43975
1.7075
0.749397
0.304321
0.369902
0.388761
0.360508
0.322906
0.294886
0.279589
0.259405
0.252621
3
2.99999
2.99998
2.99992
2.99984
2.99951
2.99904
2.99713
2.99438
2.98375
2.96599
2.90891
2.77682
2.47666
1.77278
0.827439
0.358264
0.393664
0.405743
0.388011
0.359816
0.33734
0.328747
0.315365
0.314519
3.00001
3
2.99998
2.99993
2.99985
2.99955
2.99912
2.99735
2.99482
2.98492
2.96881
2.91541
2.79624
2.51488
1.84863
0.920315
0.421759
0.415322
0.425255
0.420344
0.400748
0.385141
0.38469
0.380077
0.390638
3.00001
3
2.99998
2.99994
2.99987
2.99959
2.99921
2.99761
2.99534
2.98632
2.97196
2.92299
2.81647
2.55845
1.93427
1.0286
0.48997
0.433692
0.448027
0.454211
0.443099
0.437574
0.447199
0.456956
0.492916
3.00001
3
2.99999
2.99995
2.99989
2.99966
2.99932
2.998
2.99598
2.98866
2.97531
2.93433
2.83497
2.61146
2.01865
1.1383
0.564183
0.452804
0.472929
0.488909
0.487658
0.493326
0.518336
0.558444
0.662839
3.00002
3.00001
2.99999
2.99992
2.99982
2.9994
2.99881
2.99644
2.99282
2.97999
2.9542
2.88334
2.69224
2.30585
1.41749
0.560086
0.170418
0.299343
0.326824
0.282403
0.219311
0.172825
0.136966
0.0760707
0.0361811
3.00002
3.00001
2.99999
2.99992
2.99982
2.99941
2.99883
2.99648
2.99292
2.98021
2.95502
2.88513
2.69801
2.3175
1.43984
0.573532
0.179757
0.304388
0.331353
0.287093
0.225124
0.179813
0.14568
0.0920099
0.0644699
3.00002
3.00001
2.99999
2.99992
2.99982
2.99942
2.99885
2.99656
2.9931
2.98065
2.95662
2.88868
2.70957
2.34174
1.48808
0.603
0.199872
0.315412
0.341485
0.298567
0.239978
0.197953
0.168018
0.125232
0.106608
3.00002
3.00001
2.99999
2.99993
2.99983
2.99944
2.99889
2.99666
2.99334
2.98117
2.95859
2.89318
2.72519
2.37373
1.55711
0.643004
0.227144
0.330733
0.3556
0.315586
0.262425
0.224742
0.199673
0.165901
0.151979
3.00002
3.00001
2.99999
2.99993
2.99984
2.99946
2.99894
2.99678
2.99364
2.98173
2.9609
2.89768
2.74328
2.40483
1.63573
0.689612
0.260367
0.348662
0.371646
0.336515
0.290345
0.257275
0.237054
0.210384
0.19976
3.00002
3.00001
3
2.99993
2.99985
2.9995
2.999
2.99697
2.99402
2.98286
2.96346
2.90318
2.75887
2.43991
1.70766
0.749663
0.304576
0.370065
0.388898
0.360677
0.323107
0.295103
0.279824
0.259669
0.252879
3.00002
3.00001
3
2.99994
2.99986
2.99953
2.99906
2.99715
2.9944
2.98378
2.96601
2.90895
2.77688
2.47676
1.77295
0.827682
0.358504
0.393805
0.40586
0.388165
0.359992
0.337525
0.32894
0.315577
0.314722
3.00002
3.00001
3
2.99995
2.99987
2.99957
2.99914
2.99737
2.99484
2.98494
2.96884
2.91545
2.79629
2.51498
1.8488
0.920552
0.421971
0.41544
0.425375
0.420482
0.400899
0.385296
0.384848
0.380246
0.390797
3.00002
3.00001
3
2.99996
2.99989
2.99961
2.99923
2.99763
2.99536
2.98634
2.97199
2.92303
2.81651
2.55856
1.93439
1.02881
0.490138
0.433792
0.448135
0.45433
0.443226
0.437704
0.447329
0.45709
0.493036
3.00002
3.00002
3.00001
2.99997
2.99991
2.99968
2.99934
2.99802
2.99601
2.98869
2.97534
2.93438
2.83502
2.61156
2.01877
1.1385
0.564333
0.452893
0.473025
0.489011
0.487765
0.493433
0.51844
0.558546
0.662921
3.00002
3.00002
3.00001
2.99999
2.99991
2.99979
2.99933
2.99863
2.99615
2.99147
2.97759
2.94387
2.86405
2.63082
2.19002
1.25533
0.656459
0.476618
0.501819
0.526344
0.534805
0.552677
0.598319
0.679727
0.86131
3.00002
3.00002
3.00001
2.99999
2.99992
2.99982
2.9994
2.99881
2.99641
2.99279
2.9799
2.95428
2.88365
2.69506
2.31626
1.45489
0.774602
0.523049
0.545922
0.570141
0.584816
0.612158
0.674474
0.779048
0.965476
3.00002
3.00002
3.00001
3
2.99994
2.99985
2.9995
2.999
2.99697
2.99405
2.9827
2.96378
2.90386
2.76488
2.44963
1.74456
0.920868
0.594825
0.605936
0.622426
0.64192
0.67345
0.738491
0.845208
1.00555
3.00002
3.00002
3.00001
3
2.99995
2.99988
2.99959
2.99919
2.99751
2.99514
2.98567
2.9708
2.91995
2.81149
2.54507
1.92667
1.06611
0.666866
0.655305
0.671169
0.69548
0.729532
0.793814
0.888159
1.02284
3.00003
3.00002
3.00002
3.00001
2.99997
2.99992
2.99969
2.99938
2.99812
2.99621
2.98931
2.9767
2.93843
2.84575
2.6376
2.08046
1.25054
0.768048
0.688961
0.707065
0.736546
0.776087
0.836238
0.927133
1.03644
3.00003
3.00002
3.00002
3.00001
2.99999
2.99992
2.99982
2.99943
2.99882
2.99668
2.99272
2.9808
2.95247
2.88421
2.68933
2.31074
1.47383
0.89939
0.728602
0.742107
0.770928
0.814511
0.870936
0.952336
1.05491
3.00003
3.00003
3.00002
3.00001
3
2.99994
2.99986
2.99953
2.99906
2.99714
2.99441
2.98366
2.96618
2.91012
2.78322
2.48968
1.82658
1.07735
0.800915
0.792693
0.812424
0.851377
0.903377
0.973503
1.06503
3.00003
3.00003
3.00002
3.00002
3.00001
2.99997
2.9999
2.99966
2.99931
2.99793
2.99587
2.9882
2.97491
2.93292
2.83508
2.6144
2.04889
1.24964
0.875168
0.835707
0.853521
0.888691
0.937172
0.995545
1.07379
3.00003
3.00003
3.00003
3.00002
3.00001
2.99999
2.99992
2.99982
2.99941
2.99879
2.99659
2.99256
2.98042
2.95176
2.88258
2.68723
2.30764
1.4843
1.00744
0.881837
0.889904
0.918769
0.967144
1.01831
1.08435
3.00003
3.00003
3.00003
3.00002
3.00001
3
2.99995
2.99987
2.99955
2.9991
2.99727
2.99462
2.98439
2.96767
2.91402
2.79732
2.515
1.90513
1.19021
0.951672
0.936737
0.955095
0.992234
1.04377
1.09893
3.00003
3.00003
3.00003
3.00002
3.00002
3.00001
2.99998
2.99989
2.99976
2.99924
2.99847
2.9955
2.99085
2.97457
2.94296
2.85509
2.63917
2.17679
1.38715
1.03456
0.977756
0.991725
1.02018
1.06696
1.11849
3.00003
3.00003
3.00003
3.00003
3.00002
3.00001
3
2.99993
2.99984
2.99946
2.99892
2.99678
2.9936
2.98188
2.96096
2.89873
2.74898
2.42172
1.72465
1.18951
1.03411
1.03024
1.04968
1.08775
1.14018
3.00003
3.00003
3.00003
3.00003
3.00002
3.00002
3
2.99997
2.99987
2.99971
2.99911
2.9982
2.99476
2.98932
2.97029
2.93554
2.83104
2.61547
2.06194
1.39587
1.1172
1.07467
1.08567
1.11365
1.15679
3.00003
3.00003
3.00003
3.00003
3.00003
3.00002
3.00001
2.99999
2.99992
2.99982
2.99941
2.99882
2.99648
2.99304
2.98013
2.95788
2.89165
2.73481
2.39083
1.69127
1.25668
1.13081
1.12599
1.14101
1.17349
3.00003
3.00003
3.00003
3.00003
3.00003
3.00002
3.00002
3
2.99997
2.99986
2.9997
2.99908
2.99813
2.99463
2.98899
2.96986
2.93426
2.82985
2.61419
2.06838
1.45535
1.20944
1.16965
1.17555
1.19894
3.00003
3.00003
3.00003
3.00003
3.00003
3.00003
3.00002
3.00001
2.99999
2.99992
2.99982
2.99941
2.99883
2.99653
2.99313
2.98046
2.95902
2.89328
2.74719
2.40579
1.75152
1.33628
1.22337
1.21398
1.22614
3.00003
3.00003
3.00003
3.00003
3.00003
3.00003
3.00002
3.00002
3
2.99997
2.99987
2.99971
2.99913
2.99823
2.99494
2.98962
2.97169
2.93857
2.84094
2.64179
2.12939
1.54367
1.30073
1.26038
1.26047
3.00003
3.00003
3.00003
3.00003
3.00003
3.00003
3.00003
3.00002
3.00001
3
2.99993
2.99984
2.99947
2.99894
2.99689
2.99382
2.98255
2.96338
2.90386
2.77672
2.46422
1.87915
1.43654
1.31021
1.2967
3.00003
3.00003
3.00003
3.00003
3.00003
3.00003
3.00003
3.00003
3.00002
3
2.99998
2.99989
2.99975
2.99924
2.99846
2.99559
2.99094
2.97526
2.94668
2.86022
2.69075
2.22225
1.67016
1.4033
1.345
3.00003
3.00003
3.00003
3.00003
3.00003
3.00003
3.00003
3.00003
3.00002
3.00002
2.99999
2.99996
2.99984
2.99965
2.99894
2.99787
2.99396
2.98762
2.96683
2.92562
2.81923
2.56745
2.04281
1.5614
1.39979
3.00003
3.00003
3.00003
3.00003
3.00003
3.00003
3.00003
3.00003
3.00003
3.00002
3.00001
2.99999
2.99991
2.99981
2.99938
2.99877
2.99642
2.99285
2.98015
2.95782
2.89188
2.7498
2.40448
1.83271
1.50035
3.00003
3.00003
3.00003
3.00003
3.00003
3.00003
3.00003
3.00003
3.00003
3.00002
3.00002
3
2.99998
2.99988
2.99973
2.99917
2.99833
2.99528
2.9903
2.97388
2.94356
2.85532
2.67737
2.21688
1.70976
3.00003
3.00003
3.00003
3.00003
3.00003
3.00003
3.00003
3.00003
3.00003
3.00003
3.00002
3.00001
3
2.99994
2.99986
2.99954
2.99909
2.99732
2.99474
2.98508
2.96968
2.9193
2.8197
2.56524
2.06264
3.00003
3.00003
3.00003
3.00003
3.00003
3.00003
3.00003
3.00003
3.00003
3.00003
3.00003
3.00002
3.00001
2.99998
2.99994
2.99976
2.99952
2.99855
2.99715
2.99191
2.98358
2.95636
2.89887
2.7667
2.42078
3.00003
3.00003
3.00003
3.00003
3.00003
3.00003
3.00003
3.00003
3.00003
3.00003
3.00003
3.00002
3.00002
3
2.99998
2.99988
2.99975
2.99922
2.99845
2.99554
2.99109
2.97545
2.9486
2.86683
2.70614
3.00003
3.00003
3.00003
3.00003
3.00003
3.00003
3.00003
3.00003
3.00003
3.00003
3.00003
3.00003
3.00002
3.00002
3
2.99997
2.99985
2.99968
2.99906
2.9981
2.99471
2.98909
2.97133
2.93568
2.84588
3.00003
3.00003
3.00003
3.00003
3.00003
3.00003
3.00003
3.00003
3.00003
3.00003
3.00003
3.00003
3.00003
3.00002
3.00002
2.99999
2.99995
2.99981
2.9996
2.99883
2.99765
2.99346
2.98648
2.96481
2.91821
3.00003
3.00003
3.00003
3.00003
3.00003
3.00003
3.00003
3.00003
3.00003
3.00003
3.00003
3.00003
3.00003
3.00003
3.00002
3.00001
2.99998
2.99994
2.99977
2.99952
2.99859
2.99718
2.99219
2.98375
2.95777
3.00003
3.00003
3.00003
3.00003
3.00003
3.00003
3.00003
3.00003
3.00003
3.00003
3.00003
3.00003
3.00003
3.00003
3.00003
3.00002
3.00001
2.99998
2.99989
2.99977
2.99928
2.99857
2.9959
2.99182
2.97759
3.00003
3.00003
3.00003
3.00003
3.00003
3.00003
3.00003
3.00003
3.00003
3.00003
3.00003
3.00003
3.00003
3.00003
3.00003
3.00002
3.00002
3
2.99998
2.99988
2.99973
2.9992
2.99837
2.99549
2.99065
3.00003
3.00003
3.00003
3.00003
3.00003
3.00003
3.00003
3.00003
3.00003
3.00003
3.00003
3.00003
3.00003
3.00003
3.00003
3.00003
3.00002
3.00002
3
2.99997
2.99986
2.99969
2.99909
2.99816
2.99492
3.00003
3.00003
3.00003
3.00003
3.00003
3.00003
3.00003
3.00003
3.00003
3.00003
3.00003
3.00003
3.00003
3.00003
3.00003
3.00003
3.00003
3.00002
3.00002
3
2.99996
2.99984
2.99966
2.99899
2.99797
3.00003
3.00003
3.00003
3.00003
3.00003
3.00003
3.00003
3.00003
3.00003
3.00003
3.00003
3.00003
3.00003
3.00003
3.00003
3.00003
3.00003
3.00003
3.00002
3.00001
3
2.99994
2.99986
2.99954
2.99908
3.00003
3.00003
3.00003
3.00003
3.00003
3.00003
3.00003
3.00003
3.00003
3.00003
3.00003
3.00003
3.00003
3.00003
3.00003
3.00003
3.00003
3.00003
3.00003
3.00002
3.00001
3
2.99994
2.99985
2.99953
3.00003
3.00003
3.00003
3.00003
3.00003
3.00003
3.00003
3.00003
3.00003
3.00003
3.00003
3.00003
3.00003
3.00003
3.00003
3.00003
3.00003
3.00003
3.00003
3.00003
3.00002
3.00001
3
2.99993
2.99984
3.00003
3.00003
3.00003
3.00003
3.00003
3.00003
3.00003
3.00003
3.00003
3.00003
3.00003
3.00003
3.00003
3.00003
3.00003
3.00003
3.00003
3.00003
3.00003
3.00003
3.00003
3.00002
3.00001
2.99999
2.99993
3.00003
3.00003
3.00003
3.00003
3.00003
3.00003
3.00003
3.00003
3.00003
3.00003
3.00003
3.00003
3.00003
3.00003
3.00003
3.00003
3.00003
3.00003
3.00003
3.00003
3.00003
3.00003
3.00002
3.00001
2.99999
3.00003
3.00003
3.00003
3.00003
3.00003
3.00003
3.00003
3.00003
3.00003
3.00003
3.00003
3.00003
3.00003
3.00003
3.00003
3.00003
3.00003
3.00003
3.00003
3.00003
3.00003
3.00003
3.00003
3.00002
3.00001
3.00003
3.00003
3.00003
3.00003
3.00003
3.00003
3.00003
3.00003
3.00003
3.00003
3.00003
3.00003
3.00003
3.00003
3.00003
3.00003
3.00003
3.00003
3.00003
3.00003
3.00003
3.00003
3.00003
3.00003
3.00002
3.00003
3.00003
3.00003
3.00003
3.00003
3.00003
3.00003
3.00003
3.00003
3.00003
3.00003
3.00003
3.00003
3.00003
3.00003
3.00003
3.00003
3.00003
3.00003
3.00003
3.00003
3.00003
3.00003
3.00003
3.00003
3
3
2.99999
2.99997
2.99989
2.99977
2.99931
2.99861
2.99613
2.99144
2.97756
2.94384
2.864
2.63074
2.18988
1.25512
0.656309
0.476519
0.501721
0.526251
0.534713
0.552588
0.598237
0.679653
0.861262
3.00001
3
2.99999
2.99997
2.9999
2.9998
2.99938
2.99879
2.99639
2.99277
2.97987
2.95425
2.8836
2.69499
2.31613
1.45467
0.774445
0.522929
0.545812
0.570046
0.584729
0.612079
0.674406
0.77899
0.965434
3.00001
3
2.99999
2.99998
2.99992
2.99983
2.99948
2.99898
2.99695
2.99403
2.98267
2.96375
2.90382
2.76483
2.4495
1.74431
0.920751
0.594723
0.60584
0.622337
0.641837
0.673376
0.73843
0.845159
1.00551
3.00001
3
2.99999
2.99998
2.99993
2.99986
2.99957
2.99917
2.99749
2.99512
2.98564
2.97077
2.91992
2.81144
2.54498
1.92654
1.06593
0.666755
0.655232
0.671095
0.695409
0.729466
0.793758
0.888113
1.0228
3.00001
3
3
2.99999
2.99995
2.99989
2.99967
2.99935
2.99809
2.99618
2.98928
2.97668
2.93839
2.84571
2.63751
2.08035
1.25037
0.767947
0.6889
0.707003
0.736486
0.776028
0.836184
0.927088
1.0364
3.00001
3
3
2.99999
2.99997
2.9999
2.9998
2.99941
2.9988
2.99665