/*--------------------------------*- C++ -*----------------------------------*\
| =========                 |                                                 |
| \\      /  F ield         | OpenFOAM: The Open Source CFD Toolbox           |
|  \\    /   O peration     | Version:  4.1                                   |
|   \\  /    A nd           | Web:      www.OpenFOAM.org                      |
|    \\/     M anipulation  |                                                 |
\*---------------------------------------------------------------------------*/
FoamFile
{
    version     2.0;
    format      ascii;
    class       volScalarField;
    location    "1";
    object      p;
}
// * * * * * * * * * * * * * * * * * * * * * * * * * * * * * * * * * * * * * //

dimensions      [1 -1 -2 0 0 0 0];

internalField   nonuniform List<scalar> 
52500
(
1
1.00001
1.00003
1.00007
1.0002
1.00042
1.0012
1.00242
1.00721
1.01355
1.04635
1.07925
1.30767
1.64051
3.15021
7.08552
12.7433
11.7312
11.3899
11.5426
11.8773
12.1264
12.2673
12.3304
12.4505
1
1.00001
1.00003
1.00007
1.0002
1.00041
1.00119
1.0024
1.0071
1.01344
1.04548
1.0782
1.30143
1.62746
3.10178
6.94374
12.7473
11.7402
11.3875
11.5375
11.869
12.1176
12.26
12.3248
12.4455
1
1.00001
1.00003
1.00006
1.00019
1.0004
1.00116
1.00235
1.0069
1.01321
1.04378
1.07607
1.28895
1.60046
3.00107
6.63685
12.7417
11.7499
11.3721
11.5127
11.8318
12.0757
12.2165
12.2791
12.3993
1
1.00001
1.00003
1.00006
1.00019
1.00039
1.00112
1.00228
1.00664
1.01292
1.04159
1.0735
1.27207
1.56523
2.8646
6.21748
12.6834
11.744
11.3393
11.4647
11.7608
11.9968
12.134
12.1918
12.3126
1
1.00001
1.00003
1.00006
1.00018
1.00038
1.00108
1.00219
1.00635
1.01253
1.03917
1.07134
1.25344
1.5312
2.73
5.81124
12.5013
11.703
11.2901
11.3947
11.6568
11.8832
12.0164
12.0675
12.1902
1
1.00001
1.00002
1.00006
1.00017
1.00035
1.00101
1.00207
1.00597
1.01174
1.03682
1.06622
1.23915
1.4823
2.62268
5.42428
12.1087
11.5969
11.2228
11.2998
11.5131
11.7274
11.8555
11.8955
12.0184
1
1.00001
1.00002
1.00005
1.00016
1.00033
1.00095
1.00194
1.00559
1.01108
1.03418
1.06217
1.22263
1.43433
2.53124
5.00337
11.5977
11.4354
11.1389
11.1776
11.3275
11.5236
11.6404
11.657
11.7723
1
1
1.00002
1.00005
1.00015
1.00031
1.00088
1.00179
1.00515
1.01027
1.03132
1.05776
1.20391
1.39081
2.41711
4.58326
10.9419
11.2351
11.0591
11.027
11.1047
11.2644
11.3497
11.334
11.4155
1
1
1.00002
1.00004
1.00013
1.00027
1.00079
1.00161
1.00465
1.00929
1.0282
1.05243
1.18399
1.34618
2.28355
4.16199
10.1174
11.0902
10.9308
10.8157
10.856
10.948
10.9676
10.8906
10.8622
1
1
1.00001
1.00003
1.00011
1.00023
1.00067
1.00137
1.00399
1.00781
1.02486
1.04406
1.1642
1.29619
2.147
3.7655
9.14973
10.956
10.7843
10.569
10.5684
10.5656
10.5002
10.2662
9.918
1
1.00001
1.00003
1.00007
1.00021
1.00042
1.00121
1.00243
1.00722
1.01357
1.04637
1.07931
1.30779
1.64093
3.1513
7.08908
12.7422
11.7305
11.3895
11.5422
11.8771
12.1262
12.2671
12.3302
12.4504
1
1.00001
1.00003
1.00007
1.0002
1.00042
1.00119
1.00241
1.00711
1.01346
1.0455
1.07827
1.30154
1.62786
3.10282
6.94719
12.7463
11.7396
11.3871
11.5372
11.8688
12.1174
12.2598
12.3247
12.4454
1
1.00001
1.00003
1.00007
1.0002
1.00041
1.00117
1.00236
1.00691
1.01323
1.0438
1.07613
1.28905
1.60082
3.00202
6.64008
12.741
11.7493
11.3718
11.5124
11.8316
12.0755
12.2163
12.279
12.3992
1
1.00001
1.00003
1.00007
1.00019
1.0004
1.00113
1.00229
1.00665
1.01293
1.04161
1.07354
1.27216
1.56552
2.8654
6.22027
12.683
11.7437
11.339
11.4644
11.7607
11.9967
12.1339
12.1917
12.3126
1
1.00001
1.00003
1.00007
1.00019
1.00038
1.00109
1.0022
1.00636
1.01254
1.03919
1.07138
1.2535
1.53142
2.73047
5.8127
12.502
11.7029
11.2898
11.3945
11.6566
11.8831
12.0163
12.0675
12.1901
1
1.00001
1.00003
1.00006
1.00018
1.00036
1.00102
1.00207
1.00598
1.01176
1.03684
1.06627
1.23917
1.48255
2.62279
5.42556
12.1097
11.5971
11.2226
11.2996
11.513
11.7273
11.8554
11.8955
12.0184
1
1.00001
1.00003
1.00006
1.00016
1.00034
1.00096
1.00195
1.0056
1.01109
1.0342
1.0622
1.22267
1.43445
2.53145
5.00436
11.5987
11.4357
11.1386
11.1775
11.3274
11.5236
11.6403
11.657
11.7723
1
1.00001
1.00002
1.00005
1.00015
1.00031
1.00088
1.0018
1.00516
1.01028
1.03134
1.05778
1.20395
1.39092
2.41733
4.58406
10.9431
11.2351
11.059
11.0269
11.1046
11.2644
11.3497
11.334
11.4155
1
1.00001
1.00002
1.00005
1.00014
1.00028
1.0008
1.00162
1.00466
1.00931
1.02822
1.05246
1.18402
1.3463
2.28369
4.16266
10.1185
11.0901
10.9307
10.8156
10.856
10.948
10.9676
10.8906
10.8622
1
1.00001
1.00002
1.00004
1.00012
1.00024
1.00068
1.00138
1.004
1.00782
1.02487
1.04409
1.16424
1.29628
2.14716
3.76604
9.15087
10.9558
10.7842
10.5689
10.5684
10.5656
10.5002
10.2662
9.91799
1
1.00001
1.00003
1.00007
1.00021
1.00042
1.00121
1.00243
1.00722
1.01357
1.04637
1.07931
1.30779
1.64095
3.15135
7.08922
12.7422
11.7305
11.3895
11.5422
11.8771
12.1262
12.2671
12.3302
12.4504
1
1.00001
1.00003
1.00007
1.0002
1.00042
1.00119
1.00241
1.00711
1.01346
1.0455
1.07827
1.30154
1.62788
3.10287
6.94733
12.7463
11.7396
11.3871
11.5371
11.8688
12.1173
12.2598
12.3247
12.4454
1
1.00001
1.00003
1.00007
1.0002
1.00041
1.00117
1.00236
1.00691
1.01323
1.0438
1.07613
1.28906
1.60083
3.00206
6.64021
12.741
11.7493
11.3718
11.5124
11.8316
12.0755
12.2163
12.279
12.3992
1
1.00001
1.00003
1.00007
1.00019
1.0004
1.00113
1.00229
1.00665
1.01293
1.04161
1.07354
1.27216
1.56553
2.86544
6.22039
12.683
11.7437
11.339
11.4644
11.7607
11.9967
12.1339
12.1917
12.3126
1
1.00001
1.00003
1.00007
1.00019
1.00038
1.00109
1.0022
1.00636
1.01254
1.03919
1.07138
1.25351
1.53143
2.73049
5.81276
12.502
11.7029
11.2898
11.3945
11.6566
11.8831
12.0163
12.0674
12.1901
1
1.00001
1.00003
1.00006
1.00018
1.00036
1.00102
1.00207
1.00598
1.01176
1.03684
1.06627
1.23917
1.48256
2.6228
5.42561
12.1098
11.5971
11.2226
11.2996
11.513
11.7273
11.8554
11.8955
12.0184
1
1.00001
1.00003
1.00006
1.00016
1.00034
1.00096
1.00195
1.0056
1.01109
1.0342
1.0622
1.22268
1.43446
2.53146
5.0044
11.5988
11.4358
11.1386
11.1774
11.3274
11.5236
11.6403
11.657
11.7723
1
1.00001
1.00002
1.00005
1.00015
1.00031
1.00088
1.0018
1.00516
1.01028
1.03134
1.05778
1.20395
1.39093
2.41734
4.5841
10.9431
11.2351
11.059
11.0269
11.1046
11.2644
11.3497
11.334
11.4155
1
1.00001
1.00002
1.00005
1.00014
1.00028
1.0008
1.00162
1.00466
1.00931
1.02822
1.05246
1.18402
1.34631
2.28371
4.16269
10.1186
11.0901
10.9307
10.8156
10.856
10.948
10.9676
10.8906
10.8622
1
1.00001
1.00002
1.00004
1.00012
1.00024
1.00068
1.00138
1.004
1.00782
1.02487
1.04409
1.16424
1.29629
2.14717
3.76607
9.15094
10.9558
10.7842
10.5689
10.5684
10.5656
10.5002
10.2662
9.91798
1
1.00001
1.00003
1.00007
1.00021
1.00042
1.00121
1.00243
1.00722
1.01357
1.04637
1.07931
1.30779
1.64095
3.15136
7.08923
12.7422
11.7305
11.3895
11.5422
11.8771
12.1262
12.2671
12.3302
12.4504
1
1.00001
1.00003
1.00007
1.0002
1.00042
1.00119
1.00241
1.00711
1.01346
1.0455
1.07827
1.30154
1.62788
3.10287
6.94735
12.7463
11.7396
11.3871
11.5371
11.8688
12.1173
12.2598
12.3247
12.4454
1
1.00001
1.00003
1.00007
1.0002
1.00041
1.00117
1.00236
1.00691
1.01323
1.0438
1.07613
1.28906
1.60083
3.00206
6.64022
12.741
11.7493
11.3718
11.5124
11.8316
12.0755
12.2163
12.279
12.3992
1
1.00001
1.00003
1.00007
1.00019
1.0004
1.00113
1.00229
1.00665
1.01293
1.04161
1.07354
1.27216
1.56553
2.86544
6.2204
12.683
11.7437
11.339
11.4644
11.7607
11.9967
12.1339
12.1917
12.3126
1
1.00001
1.00003
1.00007
1.00019
1.00038
1.00109
1.0022
1.00636
1.01254
1.03919
1.07138
1.25351
1.53143
2.73049
5.81276
12.502
11.7029
11.2898
11.3945
11.6566
11.8831
12.0163
12.0674
12.1901
1
1.00001
1.00003
1.00006
1.00018
1.00036
1.00102
1.00207
1.00598
1.01176
1.03684
1.06627
1.23917
1.48256
2.62281
5.42562
12.1098
11.5971
11.2226
11.2996
11.513
11.7273
11.8554
11.8955
12.0184
1
1.00001
1.00003
1.00006
1.00016
1.00034
1.00096
1.00195
1.0056
1.01109
1.0342
1.0622
1.22268
1.43446
2.53147
5.00441
11.5988
11.4358
11.1386
11.1775
11.3274
11.5236
11.6403
11.657
11.7723
1
1.00001
1.00002
1.00005
1.00015
1.00031
1.00088
1.0018
1.00516
1.01028
1.03134
1.05778
1.20395
1.39093
2.41734
4.5841
10.9431
11.2351
11.059
11.0269
11.1046
11.2644
11.3497
11.334
11.4155
1
1.00001
1.00002
1.00005
1.00014
1.00028
1.0008
1.00162
1.00466
1.00931
1.02822
1.05246
1.18402
1.34631
2.28371
4.1627
10.1186
11.0901
10.9307
10.8156
10.856
10.948
10.9676
10.8906
10.8622
1
1.00001
1.00002
1.00004
1.00012
1.00024
1.00068
1.00138
1.004
1.00782
1.02487
1.04409
1.16424
1.29629
2.14717
3.76607
9.15095
10.9558
10.7842
10.5689
10.5684
10.5656
10.5002
10.2662
9.91799
1
1.00001
1.00003
1.00007
1.00021
1.00042
1.00121
1.00243
1.00722
1.01357
1.04637
1.07932
1.3078
1.64096
3.15142
7.08942
12.7421
11.7304
11.3895
11.5422
11.877
12.1262
12.2671
12.3302
12.4504
1
1.00001
1.00003
1.00007
1.0002
1.00042
1.00119
1.00241
1.00711
1.01346
1.0455
1.07827
1.30155
1.62789
3.10294
6.94753
12.7462
11.7395
11.3871
11.5371
11.8688
12.1173
12.2598
12.3246
12.4453
1
1.00001
1.00003
1.00007
1.0002
1.00041
1.00117
1.00236
1.00691
1.01323
1.0438
1.07613
1.28906
1.60085
3.00212
6.6404
12.7409
11.7493
11.3718
11.5124
11.8316
12.0755
12.2163
12.279
12.3992
1
1.00001
1.00003
1.00007
1.00019
1.0004
1.00113
1.00229
1.00665
1.01293
1.04161
1.07355
1.27217
1.56554
2.86549
6.22055
12.683
11.7436
11.339
11.4644
11.7606
11.9967
12.1339
12.1917
12.3126
1
1.00001
1.00003
1.00007
1.00019
1.00038
1.00109
1.0022
1.00636
1.01254
1.03919
1.07138
1.25351
1.53144
2.73052
5.81284
12.502
11.7029
11.2898
11.3945
11.6566
11.8831
12.0163
12.0674
12.1901
1
1.00001
1.00003
1.00006
1.00018
1.00036
1.00102
1.00207
1.00598
1.01176
1.03684
1.06627
1.23917
1.48257
2.62282
5.42568
12.1098
11.5971
11.2226
11.2996
11.513
11.7273
11.8554
11.8955
12.0184
1
1.00001
1.00003
1.00006
1.00016
1.00034
1.00096
1.00195
1.0056
1.01109
1.0342
1.0622
1.22268
1.43446
2.53148
5.00446
11.5989
11.4358
11.1386
11.1774
11.3274
11.5236
11.6403
11.657
11.7723
1
1.00001
1.00002
1.00005
1.00015
1.00031
1.00088
1.0018
1.00516
1.01028
1.03134
1.05778
1.20395
1.39093
2.41735
4.58414
10.9432
11.2351
11.059
11.0269
11.1046
11.2644
11.3497
11.334
11.4155
1
1.00001
1.00002
1.00005
1.00014
1.00028
1.0008
1.00162
1.00466
1.00931
1.02822
1.05246
1.18402
1.34631
2.28372
4.16273
10.1187
11.0901
10.9307
10.8156
10.8559
10.948
10.9676
10.8906
10.8622
1
1.00001
1.00002
1.00004
1.00012
1.00024
1.00068
1.00138
1.004
1.00782
1.02487
1.04409
1.16424
1.29629
2.14718
3.7661
9.15102
10.9558
10.7842
10.5689
10.5684
10.5656
10.5002
10.2662
9.91798
1
1.00001
1.00003
1.00007
1.00021
1.00042
1.00121
1.00243
1.00722
1.01357
1.04637
1.07932
1.3078
1.64096
3.15139
7.08933
12.7422
11.7305
11.3895
11.5422
11.8771
12.1262
12.2671
12.3302
12.4504
1
1.00001
1.00003
1.00007
1.0002
1.00042
1.00119
1.00241
1.00711
1.01346
1.0455
1.07827
1.30155
1.62788
3.1029
6.94744
12.7463
11.7395
11.3871
11.5371
11.8688
12.1173
12.2598
12.3246
12.4454
1
1.00001
1.00003
1.00007
1.0002
1.00041
1.00117
1.00236
1.00691
1.01323
1.0438
1.07613
1.28906
1.60084
3.00209
6.64031
12.7409
11.7493
11.3718
11.5124
11.8316
12.0755
12.2163
12.279
12.3992
1
1.00001
1.00003
1.00007
1.00019
1.0004
1.00113
1.00229
1.00665
1.01293
1.04161
1.07354
1.27217
1.56553
2.86546
6.22047
12.683
11.7437
11.339
11.4644
11.7607
11.9967
12.1339
12.1917
12.3126
1
1.00001
1.00003
1.00007
1.00019
1.00038
1.00109
1.0022
1.00636
1.01254
1.03919
1.07138
1.25351
1.53143
2.7305
5.8128
12.502
11.7029
11.2898
11.3945
11.6566
11.8831
12.0163
12.0674
12.1901
1
1.00001
1.00003
1.00006
1.00018
1.00036
1.00102
1.00207
1.00598
1.01176
1.03684
1.06627
1.23917
1.48256
2.62281
5.42565
12.1098
11.5971
11.2226
11.2996
11.513
11.7273
11.8554
11.8955
12.0184
1
1.00001
1.00003
1.00006
1.00016
1.00034
1.00096
1.00195
1.0056
1.01109
1.0342
1.0622
1.22268
1.43446
2.53147
5.00443
11.5988
11.4358
11.1386
11.1774
11.3274
11.5236
11.6403
11.657
11.7723
1
1.00001
1.00002
1.00005
1.00015
1.00031
1.00088
1.0018
1.00516
1.01028
1.03134
1.05778
1.20395
1.39093
2.41735
4.58412
10.9432
11.2351
11.059
11.0269
11.1046
11.2644
11.3497
11.334
11.4155
1
1.00001
1.00002
1.00005
1.00014
1.00028
1.0008
1.00162
1.00466
1.00931
1.02822
1.05246
1.18402
1.34631
2.28371
4.16271
10.1186
11.0901
10.9307
10.8156
10.856
10.948
10.9676
10.8906
10.8622
1
1.00001
1.00002
1.00004
1.00012
1.00024
1.00068
1.00138
1.004
1.00782
1.02487
1.04409
1.16424
1.29629
2.14718
3.76609
9.15098
10.9558
10.7842
10.5689
10.5684
10.5656
10.5002
10.2662
9.91798
1
1.00001
1.00003
1.00007
1.00021
1.00042
1.00121
1.00243
1.00722
1.01357
1.04637
1.07931
1.30779
1.64095
3.15135
7.08923
12.7422
11.7305
11.3895
11.5422
11.8771
12.1262
12.2671
12.3302
12.4504
1
1.00001
1.00003
1.00007
1.0002
1.00042
1.00119
1.00241
1.00711
1.01346
1.0455
1.07827
1.30154
1.62788
3.10287
6.94734
12.7463
11.7396
11.3871
11.5371
11.8688
12.1173
12.2598
12.3247
12.4454
1
1.00001
1.00003
1.00007
1.0002
1.00041
1.00117
1.00236
1.00691
1.01323
1.0438
1.07613
1.28906
1.60083
3.00206
6.64022
12.741
11.7493
11.3718
11.5124
11.8316
12.0755
12.2163
12.279
12.3992
1
1.00001
1.00003
1.00007
1.00019
1.0004
1.00113
1.00229
1.00665
1.01293
1.04161
1.07354
1.27216
1.56553
2.86544
6.2204
12.683
11.7437
11.339
11.4644
11.7607
11.9967
12.1339
12.1917
12.3126
1
1.00001
1.00003
1.00007
1.00019
1.00038
1.00109
1.0022
1.00636
1.01254
1.03919
1.07138
1.25351
1.53143
2.73049
5.81276
12.502
11.7029
11.2898
11.3945
11.6566
11.8831
12.0163
12.0674
12.1901
1
1.00001
1.00003
1.00006
1.00018
1.00036
1.00102
1.00207
1.00598
1.01176
1.03684
1.06627
1.23917
1.48256
2.62281
5.42561
12.1098
11.5971
11.2226
11.2996
11.513
11.7273
11.8554
11.8955
12.0184
1
1.00001
1.00003
1.00006
1.00016
1.00034
1.00096
1.00195
1.0056
1.01109
1.0342
1.0622
1.22268
1.43446
2.53147
5.00441
11.5988
11.4358
11.1386
11.1775
11.3274
11.5236
11.6403
11.657
11.7723
1
1.00001
1.00002
1.00005
1.00015
1.00031
1.00088
1.0018
1.00516
1.01028
1.03134
1.05778
1.20395
1.39093
2.41734
4.5841
10.9431
11.2351
11.059
11.0269
11.1046
11.2644
11.3497
11.334
11.4155
1
1.00001
1.00002
1.00005
1.00014
1.00028
1.0008
1.00162
1.00466
1.00931
1.02822
1.05246
1.18402
1.34631
2.28371
4.1627
10.1186
11.0901
10.9307
10.8156
10.856
10.948
10.9676
10.8906
10.8622
1
1.00001
1.00002
1.00004
1.00012
1.00024
1.00068
1.00138
1.004
1.00782
1.02487
1.04409
1.16424
1.29629
2.14717
3.76607
9.15094
10.9558
10.7842
10.5689
10.5684
10.5656
10.5002
10.2662
9.91799
1
1.00001
1.00003
1.00007
1.00021
1.00042
1.00121
1.00243
1.00722
1.01357
1.04637
1.07931
1.30779
1.64095
3.15135
7.08922
12.7422
11.7305
11.3895
11.5422
11.8771
12.1262
12.2671
12.3302
12.4504
1
1.00001
1.00003
1.00007
1.0002
1.00042
1.00119
1.00241
1.00711
1.01346
1.0455
1.07827
1.30154
1.62788
3.10287
6.94733
12.7463
11.7396
11.3871
11.5371
11.8688
12.1173
12.2598
12.3247
12.4454
1
1.00001
1.00003
1.00007
1.0002
1.00041
1.00117
1.00236
1.00691
1.01323
1.0438
1.07613
1.28906
1.60083
3.00206
6.64021
12.741
11.7493
11.3718
11.5124
11.8316
12.0755
12.2163
12.279
12.3992
1
1.00001
1.00003
1.00007
1.00019
1.0004
1.00113
1.00229
1.00665
1.01293
1.04161
1.07354
1.27216
1.56553
2.86544
6.22039
12.683
11.7437
11.339
11.4644
11.7607
11.9967
12.1339
12.1917
12.3126
1
1.00001
1.00003
1.00007
1.00019
1.00038
1.00109
1.0022
1.00636
1.01254
1.03919
1.07138
1.25351
1.53143
2.73049
5.81276
12.502
11.7029
11.2898
11.3945
11.6566
11.8831
12.0163
12.0674
12.1901
1
1.00001
1.00003
1.00006
1.00018
1.00036
1.00102
1.00207
1.00598
1.01176
1.03684
1.06627
1.23917
1.48256
2.6228
5.42561
12.1098
11.5971
11.2226
11.2996
11.513
11.7273
11.8554
11.8955
12.0184
1
1.00001
1.00003
1.00006
1.00016
1.00034
1.00096
1.00195
1.0056
1.01109
1.0342
1.0622
1.22268
1.43446
2.53146
5.0044
11.5988
11.4358
11.1386
11.1774
11.3274
11.5236
11.6403
11.657
11.7723
1
1.00001
1.00002
1.00005
1.00015
1.00031
1.00088
1.0018
1.00516
1.01028
1.03134
1.05778
1.20395
1.39093
2.41734
4.5841
10.9431
11.2351
11.059
11.0269
11.1046
11.2644
11.3497
11.334
11.4155
1
1.00001
1.00002
1.00005
1.00014
1.00028
1.0008
1.00162
1.00466
1.00931
1.02822
1.05246
1.18402
1.34631
2.28371
4.16269
10.1186
11.0901
10.9307
10.8156
10.856
10.948
10.9676
10.8906
10.8622
1
1.00001
1.00002
1.00004
1.00012
1.00024
1.00068
1.00138
1.004
1.00782
1.02487
1.04409
1.16424
1.29629
2.14717
3.76607
9.15094
10.9558
10.7842
10.5689
10.5684
10.5656
10.5002
10.2662
9.91798
1
1.00001
1.00003
1.00007
1.00021
1.00042
1.00121
1.00243
1.00722
1.01357
1.04637
1.07931
1.30779
1.64093
3.1513
7.08908
12.7422
11.7305
11.3895
11.5422
11.8771
12.1262
12.2671
12.3302
12.4504
1
1.00001
1.00003
1.00007
1.0002
1.00042
1.00119
1.00241
1.00711
1.01346
1.0455
1.07826
1.30154
1.62786
3.10282
6.94719
12.7463
11.7396
11.3871
11.5372
11.8688
12.1174
12.2598
12.3247
12.4454
1
1.00001
1.00003
1.00007
1.0002
1.00041
1.00117
1.00236
1.00691
1.01323
1.0438
1.07613
1.28905
1.60082
3.00202
6.64008
12.741
11.7493
11.3718
11.5124
11.8316
12.0755
12.2163
12.279
12.3992
1
1.00001
1.00003
1.00007
1.00019
1.0004
1.00113
1.00229
1.00665
1.01293
1.04161
1.07354
1.27216
1.56552
2.8654
6.22027
12.683
11.7437
11.339
11.4644
11.7607
11.9967
12.1339
12.1917
12.3126
1
1.00001
1.00003
1.00007
1.00019
1.00038
1.00109
1.0022
1.00636
1.01254
1.03919
1.07138
1.2535
1.53142
2.73047
5.81269
12.502
11.7029
11.2898
11.3945
11.6566
11.8831
12.0163
12.0675
12.1901
1
1.00001
1.00003
1.00006
1.00018
1.00036
1.00102
1.00207
1.00598
1.01176
1.03684
1.06627
1.23917
1.48255
2.62279
5.42556
12.1097
11.5971
11.2226
11.2996
11.513
11.7273
11.8554
11.8955
12.0184
1
1.00001
1.00003
1.00006
1.00016
1.00034
1.00096
1.00195
1.0056
1.01109
1.0342
1.0622
1.22267
1.43445
2.53145
5.00436
11.5987
11.4357
11.1386
11.1775
11.3274
11.5236
11.6403
11.657
11.7723
1
1.00001
1.00002
1.00005
1.00015
1.00031
1.00088
1.0018
1.00516
1.01028
1.03134
1.05778
1.20395
1.39092
2.41733
4.58406
10.9431
11.2351
11.059
11.0269
11.1046
11.2644
11.3497
11.334
11.4155
1
1.00001
1.00002
1.00005
1.00014
1.00028
1.0008
1.00162
1.00466
1.00931
1.02822
1.05246
1.18402
1.3463
2.28369
4.16266
10.1185
11.0901
10.9307
10.8156
10.856
10.948
10.9676
10.8906
10.8622
1
1.00001
1.00002
1.00004
1.00012
1.00024
1.00068
1.00138
1.004
1.00782
1.02487
1.04409
1.16424
1.29628
2.14716
3.76604
9.15086
10.9558
10.7842
10.5689
10.5684
10.5656
10.5002
10.2662
9.91799
1
1.00001
1.00003
1.00007
1.0002
1.00042
1.0012
1.00242
1.00721
1.01355
1.04635
1.07925
1.30767
1.64051
3.1502
7.08549
12.7433
11.7312
11.3899
11.5426
11.8773
12.1264
12.2673
12.3303
12.4505
1
1.00001
1.00003
1.00007
1.0002
1.00041
1.00119
1.0024
1.0071
1.01344
1.04548
1.0782
1.30143
1.62746
3.10177
6.94371
12.7473
11.7402
11.3875
11.5375
11.869
12.1176
12.26
12.3248
12.4455
1
1.00001
1.00003
1.00006
1.00019
1.0004
1.00116
1.00235
1.0069
1.01321
1.04378
1.07607
1.28895
1.60046
3.00106
6.63682
12.7417
11.7499
11.3721
11.5127
11.8318
12.0757
12.2165
12.2791
12.3993
1
1.00001
1.00003
1.00006
1.00019
1.00039
1.00112
1.00228
1.00664
1.01292
1.04159
1.0735
1.27207
1.56523
2.8646
6.21746
12.6834
11.744
11.3393
11.4647
11.7608
11.9968
12.134
12.1918
12.3126
1
1.00001
1.00003
1.00006
1.00018
1.00038
1.00108
1.00219
1.00635
1.01253
1.03917
1.07134
1.25344
1.5312
2.72999
5.81124
12.5013
11.703
11.2901
11.3947
11.6568
11.8832
12.0164
12.0675
12.1902
1
1.00001
1.00002
1.00006
1.00017
1.00035
1.00101
1.00207
1.00597
1.01174
1.03682
1.06622
1.23915
1.4823
2.62268
5.42427
12.1087
11.5969
11.2228
11.2998
11.5131
11.7274
11.8555
11.8955
12.0184
1
1.00001
1.00002
1.00005
1.00016
1.00033
1.00095
1.00194
1.00559
1.01108
1.03418
1.06217
1.22263
1.43433
2.53124
5.00336
11.5977
11.4354
11.1389
11.1776
11.3275
11.5236
11.6404
11.657
11.7723
1
1
1.00002
1.00005
1.00015
1.00031
1.00088
1.00179
1.00515
1.01027
1.03132
1.05776
1.20391
1.39081
2.41711
4.58325
10.9419
11.2351
11.0591
11.027
11.1047
11.2644
11.3497
11.334
11.4155
1
1
1.00002
1.00004
1.00013
1.00027
1.00079
1.00161
1.00465
1.00929
1.0282
1.05243
1.18399
1.34618
2.28354
4.16199
10.1174
11.0902
10.9308
10.8157
10.856
10.948
10.9676
10.8906
10.8622
1
1
1.00001
1.00003
1.00011
1.00023
1.00067
1.00137
1.00399
1.00781
1.02486
1.04406
1.1642
1.29619
2.147
3.7655
9.14973
10.956
10.7843
10.569
10.5684
10.5656
10.5002
10.2662
9.91799
1
1
1.00001
1.00003
1.00008
1.00023
1.00047
1.00138
1.00267
1.00861
1.01487
1.05605
1.09243
1.36949
1.77155
3.55566
7.93624
10.839
10.6447
10.3224
10.2514
10.1495
9.90111
9.28817
7.72007
0.999999
1
1.00001
1.00003
1.00007
1.0002
1.00042
1.00121
1.00244
1.00724
1.01366
1.04621
1.07912
1.30385
1.62486
3.07336
6.612
10.7281
10.5205
10.103
9.93227
9.73151
9.32053
8.48298
6.82175
0.999998
1
1
1.00002
1.00005
1.00017
1.00035
1.00101
1.00207
1.00596
1.01188
1.03635
1.06774
1.23273
1.48588
2.55806
5.11581
10.4733
10.3333
9.94962
9.63358
9.33576
8.83235
7.9592
6.57657
0.999996
0.999998
1
1.00002
1.00004
1.00014
1.00029
1.00083
1.0017
1.00488
1.0098
1.02939
1.05536
1.18924
1.36515
2.30314
4.19909
9.64779
9.97478
9.75955
9.35647
8.98095
8.45924
7.63988
6.52123
0.999995
0.999996
0.999999
1.00001
1.00003
1.0001
1.00022
1.00064
1.00131
1.0038
1.00741
1.0235
1.04154
1.15399
1.27485
2.06106
3.49171
8.1344
9.64412
9.49967
9.1393
8.69526
8.16872
7.4408
6.50289
0.999994
0.999995
0.999998
1
1.00003
1.00006
1.0002
1.00041
1.00119
1.00232
1.00736
1.01284
1.04759
1.07852
1.30788
1.63189
3.06078
6.45651
9.43573
9.32381
8.98209
8.4788
7.94608
7.28956
6.49106
0.999993
0.999994
0.999997
1
1.00002
1.00005
1.00016
1.00033
1.00096
1.00196
1.00561
1.01122
1.03383
1.06388
1.21396
1.44758
2.40853
4.63489
9.05904
9.11415
8.87703
8.35606
7.78314
7.1696
6.47041
0.999993
0.999993
0.999995
0.999999
1.00001
1.00003
1.00011
1.00024
1.0007
1.00144
1.00415
1.00819
1.02535
1.04579
1.16479
1.30032
2.10798
3.61287
8.0475
8.82991
8.66452
8.24614
7.66154
7.0788
6.44891
0.999992
0.999992
0.999993
0.999997
1
1.00003
1.00007
1.0002
1.00042
1.00123
1.0024
1.00753
1.01317
1.04842
1.07999
1.31138
1.63458
3.05658
6.28159
8.52265
8.4462
8.15349
7.57582
7.01516
6.43678
0.999992
0.999992
0.999993
0.999996
1
1.00002
1.00005
1.00015
1.00032
1.00092
1.00189
1.0054
1.01085
1.03217
1.0625
1.19969
1.42383
2.29797
4.29171
8.05143
8.25797
8.06107
7.57707
6.99733
6.43848
0.999991
0.999991
0.999992
0.999994
0.999999
1.00001
1.00004
1.00009
1.00026
1.00054
1.00155
1.00315
1.00921
1.01785
1.05721
1.10539
1.36371
1.80575
3.3838
6.90797
8.01338
7.90094
7.56031
7.0052
6.44607
0.999991
0.999991
0.999992
0.999993
0.999996
1
1.00002
1.00006
1.00018
1.00038
1.0011
1.00224
1.00645
1.0127
1.03949
1.0716
1.25177
1.51489
2.62589
5.0692
7.63548
7.66896
7.49759
7.05011
6.46756
0.999991
0.999991
0.999991
0.999992
0.999994
1
1.00001
1.00005
1.0001
1.00031
1.00064
1.00182
1.0037
1.01066
1.02143
1.06355
1.13096
1.39587
1.92072
3.50316
6.80498
7.49103
7.37934
7.04939
6.51589
0.999991
0.999991
0.999991
0.999992
0.999993
0.999997
1
1.00003
1.00007
1.0002
1.00042
1.00121
1.00247
1.00704
1.01403
1.04237
1.079
1.26679
1.55335
2.69609
5.13634
7.15666
7.16017
7.01372
6.62809
0.999991
0.999991
0.999991
0.999991
0.999992
0.999994
1
1.00001
1.00005
1.00011
1.00032
1.00066
1.00189
1.00382
1.01096
1.02201
1.06473
1.13343
1.39786
1.91553
3.41951
6.41705
7.00799
6.92757
6.66753
0.999991
0.99999
0.999991
0.999991
0.999991
0.999993
0.999997
1
1.00003
1.00007
1.0002
1.00042
1.0012
1.00245
1.00694
1.01391
1.04115
1.07959
1.25359
1.54453
2.59236
4.87093
6.6785
6.74987
6.63252
0.999991
0.99999
0.99999
0.999991
0.999991
0.999992
0.999994
1
1.00001
1.00005
1.0001
1.00031
1.00063
1.00179
1.00363
1.01034
1.02083
1.06053
1.12565
1.3677
1.84181
3.19599
5.91414
6.58316
6.53805
0.999991
0.99999
0.99999
0.99999
0.999991
0.999991
0.999992
0.999996
1
1.00002
1.00006
1.00018
1.00038
1.00109
1.00222
1.00626
1.01251
1.03703
1.07111
1.22515
1.47987
2.3784
4.30833
6.19248
6.39584
0.999991
0.99999
0.99999
0.99999
0.99999
0.999991
0.999992
0.999993
0.999999
1.00001
1.00004
1.00009
1.00027
1.00055
1.00157
1.00319
1.00905
1.01837
1.05256
1.11045
1.31635
1.72268
2.88391
5.28504
6.18763
0.999991
0.99999
0.99999
0.99999
0.99999
0.999991
0.999991
0.999992
0.999995
1
1.00001
1.00006
1.00013
1.00037
1.00077
1.00216
1.00437
1.01247
1.02441
1.07425
1.14347
1.44716
1.98643
3.49687
5.68953
0.999991
0.99999
0.99999
0.99999
0.99999
0.99999
0.999991
0.999991
0.999993
0.999997
1
1.00003
1.00007
1.00022
1.00045
1.00126
1.00257
1.00724
1.01444
1.04229
1.08312
1.2525
1.55226
2.49428
4.4952
0.999991
0.99999
0.99999
0.99999
0.99999
0.99999
0.99999
0.999991
0.999992
0.999994
1
1.00001
1.00004
1.0001
1.00029
1.00061
1.0017
1.00345
1.00969
1.01964
1.05556
1.1169
1.32815
1.74128
2.84887
0.999991
0.99999
0.99999
0.99999
0.99999
0.99999
0.99999
0.999991
0.999991
0.999992
0.999996
1
1.00002
1.00005
1.00016
1.00034
1.00095
1.00194
1.00538
1.01087
1.03078
1.06169
1.1816
1.38451
2.07195
0.999991
0.99999
0.99999
0.99999
0.99999
0.99999
0.99999
0.99999
0.999991
0.999991
0.999993
0.999996
1.00001
1.00002
1.00008
1.00018
1.00051
1.00106
1.00292
1.00586
1.01691
1.03162
1.10276
1.18617
1.60401
0.999991
0.99999
0.99999
0.99999
0.99999
0.99999
0.99999
0.99999
0.99999
0.999991
0.999992
0.999994
0.999999
1.00001
1.00004
1.0001
1.00028
1.00058
1.0016
1.00325
1.00901
1.01831
1.05118
1.10733
1.29758
0.999991
0.99999
0.99999
0.99999
0.99999
0.99999
0.99999
0.99999
0.99999
0.999991
0.999991
0.999992
0.999994
1
1.00001
1.00005
1.00012
1.00034
1.0007
1.00195
1.00393
1.01104
1.02161
1.06429
1.1245
0.999991
0.99999
0.99999
0.99999
0.99999
0.99999
0.99999
0.99999
0.99999
0.99999
0.999991
0.999991
0.999993
0.999995
1
1.00002
1.00007
1.00015
1.00042
1.00087
1.00241
1.00486
1.01385
1.0261
1.08298
0.999991
0.99999
0.99999
0.99999
0.99999
0.99999
0.99999
0.99999
0.99999
0.99999
0.99999
0.999991
0.999991
0.999993
0.999996
1.00001
1.00002
1.00008
1.00018
1.00051
1.00105
1.00291
1.00583
1.01675
1.03149
0.999991
0.99999
0.99999
0.99999
0.99999
0.99999
0.99999
0.99999
0.99999
0.99999
0.99999
0.99999
0.999991
0.999992
0.999993
0.999999
1.00001
1.00004
1.00009
1.00026
1.00054
1.00149
1.00304
1.00837
1.01705
0.999991
0.99999
0.99999
0.99999
0.99999
0.99999
0.99999
0.99999
0.99999
0.99999
0.99999
0.99999
0.999991
0.999991
0.999992
0.999994
1
1.00001
1.00005
1.0001
1.0003
1.00061
1.00169
1.00342
1.00951
0.999991
0.99999
0.99999
0.99999
0.99999
0.99999
0.99999
0.99999
0.99999
0.99999
0.99999
0.99999
0.99999
0.999991
0.999991
0.999992
0.999994
1
1.00001
1.00005
1.00012
1.00034
1.0007
1.00192
1.00387
0.999991
0.99999
0.99999
0.99999
0.99999
0.99999
0.99999
0.99999
0.99999
0.99999
0.99999
0.99999
0.99999
0.99999
0.999991
0.999991
0.999993
0.999995
1
1.00002
1.00006
1.00013
1.00038
1.00077
1.00212
0.999991
0.99999
0.99999
0.99999
0.99999
0.99999
0.99999
0.99999
0.99999
0.99999
0.99999
0.99999
0.99999
0.99999
0.99999
0.999991
0.999991
0.999992
0.999996
1
1.00002
1.00006
1.00017
1.00036
1.00099
0.999991
0.99999
0.99999
0.99999
0.99999
0.99999
0.99999
0.99999
0.99999
0.99999
0.99999
0.99999
0.99999
0.99999
0.99999
0.99999
0.999991
0.999991
0.999993
0.999996
1
1.00002
1.00006
1.00018
1.00038
0.999991
0.99999
0.99999
0.99999
0.99999
0.99999
0.99999
0.99999
0.99999
0.99999
0.99999
0.99999
0.99999
0.99999
0.99999
0.99999
0.99999
0.999991
0.999991
0.999993
0.999997
1
1.00003
1.00006
1.00019
0.999991
0.99999
0.99999
0.99999
0.99999
0.99999
0.99999
0.99999
0.99999
0.99999
0.99999
0.99999
0.99999
0.99999
0.99999
0.99999
0.99999
0.99999
0.999991
0.999991
0.999993
0.999997
1
1.00003
1.00007
0.999991
0.99999
0.99999
0.99999
0.99999
0.99999
0.99999
0.99999
0.99999
0.99999
0.99999
0.99999
0.99999
0.99999
0.99999
0.99999
0.99999
0.99999
0.99999
0.999991
0.999991
0.999993
0.999997
1
1.00003
0.999991
0.99999
0.99999
0.99999
0.99999
0.99999
0.99999
0.99999
0.99999
0.99999
0.99999
0.99999
0.99999
0.99999
0.99999
0.99999
0.99999
0.99999
0.99999
0.99999
0.999991
0.999991
0.999993
0.999996
1.00001
0.999991
0.99999
0.99999
0.99999
0.99999
0.99999
0.99999
0.99999
0.99999
0.99999
0.99999
0.99999
0.99999
0.99999
0.99999
0.99999
0.99999
0.99999
0.99999
0.99999
0.99999
0.999991
0.999991
0.999993
0.999996
0.999991
0.99999
0.99999
0.99999
0.99999
0.99999
0.99999
0.99999
0.99999
0.99999
0.99999
0.99999
0.99999
0.99999
0.99999
0.99999
0.99999
0.99999
0.99999
0.99999
0.99999
0.999991
0.999991
0.999992
0.999994
1
1.00001
1.00001
1.00004
1.00008
1.00024
1.00048
1.00139
1.00268
1.00862
1.01489
1.05607
1.09247
1.36957
1.77173
3.55612
7.93742
10.8388
10.6446
10.3223
10.2514
10.1495
9.90107
9.28815
7.72006
1
1
1.00001
1.00004
1.00007
1.00021
1.00043
1.00122
1.00246
1.00725
1.01368
1.04623
1.07916
1.30392
1.62503
3.07377
6.61322
10.728
10.5204
10.1029
9.93223
9.73147
9.32049
8.48296
6.82174
1
1
1.00001
1.00003
1.00006
1.00018
1.00036
1.00102
1.00208
1.00598
1.0119
1.03637
1.06777
1.23277
1.48607
2.55831
5.1168
10.4734
10.3334
9.94954
9.63353
9.33573
8.83233
7.95918
6.57656
1
1
1.00001
1.00002
1.00005
1.00014
1.0003
1.00084
1.00171
1.00489
1.00981
1.0294
1.05539
1.18928
1.36527
2.30326
4.19979
9.6486
9.97483
9.75951
9.35645
8.98094
8.45923
7.63987
6.52122
1
1
1.00001
1.00002
1.00004
1.00011
1.00023
1.00065
1.00132
1.00381
1.00742
1.02351
1.04157
1.15402
1.27493
2.06119
3.49216
8.13527
9.64412
9.49964
9.13927
8.69525
8.16872
7.4408
6.50288
1
1
1.00001
1.00001
1.00004
1.00007
1.00021
1.00042
1.0012
1.00233
1.00737
1.01285
1.04761
1.07855
1.30793
1.63201
3.06111
6.45732
9.43567
9.32373
8.98204
8.47878
7.94609
7.28956
6.49107
1
1
1
1.00001
1.00003
1.00006
1.00017
1.00034
1.00097
1.00196
1.00562
1.01123
1.03384
1.06391
1.21399
1.44776
2.40874
4.63594
9.05913
9.11411
8.877
8.35603
7.78314
7.16961
6.47042
1
1
1
1.00001
1.00002
1.00004
1.00012
1.00025
1.00071
1.00145
1.00416
1.0082
1.02536
1.04581
1.16483
1.30039
2.10811
3.61328
8.04815
8.82997
8.66454
8.24614
7.66153
7.0788
6.44891
1
1
1
1.00001
1.00001
1.00004
1.00008
1.00021
1.00043
1.00124
1.00241
1.00754
1.01318
1.04843
1.08001
1.31143
1.6347
3.05688
6.28228
8.52266
8.4462
8.15347
7.5758
7.01516
6.43679
1
1
1
1
1.00001
1.00003
1.00006
1.00016
1.00033
1.00093
1.0019
1.00541
1.01086
1.03218
1.06252
1.19974
1.42391
2.2983
4.29266
8.05158
8.25796
8.06106
7.57704
6.99732
6.43849
1
1
1
1
1.00001
1.00002
1.00005
1.0001
1.00027
1.00055
1.00156
1.00316
1.00923
1.01787
1.05722
1.10544
1.36373
1.80598
3.38407
6.90855
8.01342
7.90096
7.56028
7.00519
6.44608
1
1
1
1
1.00001
1.00001
1.00003
1.00007
1.00019
1.00039
1.00111
1.00225
1.00646
1.01271
1.0395
1.07164
1.2518