/*--------------------------------*- C++ -*----------------------------------*\
| =========                 |                                                 |
| \\      /  F ield         | OpenFOAM: The Open Source CFD Toolbox           |
|  \\    /   O peration     | Version:  4.1                                   |
|   \\  /    A nd           | Web:      www.OpenFOAM.org                      |
|    \\/     M anipulation  |                                                 |
\*---------------------------------------------------------------------------*/
FoamFile
{
    version     2.0;
    format      ascii;
    class       surfaceScalarField;
    location    "1";
    object      phi;
}
// * * * * * * * * * * * * * * * * * * * * * * * * * * * * * * * * * * * * * //

dimensions      [1 0 -1 0 0 0 0];

internalField   nonuniform List<scalar> 
150500
(
0.0168001
4.47162e-11
-3.21997e-12
0.0168001
2.35896e-10
-1.17687e-11
0.0168001
8.82303e-10
-1.37056e-11
0.0168001
2.24494e-09
-2.13775e-11
0.0168
6.35545e-09
-2.16722e-11
0.0168
1.44746e-08
-2.84078e-11
0.0167998
4.00922e-08
-2.88971e-11
0.0167996
8.35505e-08
-3.78779e-11
0.0167984
2.77811e-07
-4.27323e-11
0.0167975
4.54502e-07
-8.01389e-11
0.0167882
2.10564e-06
-8.71874e-11
0.0167797
3.85171e-06
-2.69364e-10
0.0167218
1.71605e-05
-4.36147e-10
0.0166197
4.6118e-05
-1.73869e-09
0.0162044
0.000202002
-4.4548e-09
0.0144924
0.000970544
-1.57142e-08
0.0132841
0.00142906
4.89863e-09
0.012126
0.00127323
2.99027e-09
0.0108599
0.00133162
1.75055e-09
0.00944925
0.00144234
1.45926e-09
0.00787062
0.00161119
1.13383e-09
0.00610727
0.00179151
1.09348e-09
0.00405258
0.0019118
9.15803e-10
0.00203575
0.00199542
6.36398e-10
0.00217599
5.40099e-10
0.0168001
8.61265e-11
-3.2218e-12
0.0168001
4.51916e-10
-1.17707e-11
0.0168001
1.6878e-09
-1.37024e-11
0.0168001
4.29821e-09
-2.13665e-11
0.0168
1.22776e-08
-2.16311e-11
0.0168
2.80344e-08
-2.83176e-11
0.0167998
7.74607e-08
-2.86976e-11
0.0167996
1.67318e-07
-3.73804e-11
0.0167985
5.26407e-07
-4.19917e-11
0.0167976
8.89723e-07
-7.81061e-11
0.0167888
4.02075e-06
-8.32827e-11
0.0167807
7.36525e-06
-2.59851e-10
0.0167258
3.29168e-05
-4.14077e-10
0.0166281
8.87577e-05
-1.67065e-09
0.0162516
0.000381943
-4.2499e-09
0.0147145
0.00178802
-1.51601e-08
0.0134655
0.00286524
4.35533e-09
0.0122524
0.0025901
2.77146e-09
0.0109482
0.0026958
1.65184e-09
0.00951223
0.00290674
1.38352e-09
0.00789724
0.00325562
1.06697e-09
0.00610446
0.00360894
1.01005e-09
0.00403069
0.00383966
8.41787e-10
0.00199643
0.00400667
5.88183e-10
0.00431056
5.09298e-10
0.0168001
1.35574e-10
-3.22481e-12
0.0168001
6.49491e-10
-1.17736e-11
0.0168001
2.41418e-09
-1.36947e-11
0.0168001
6.20878e-09
-2.1345e-11
0.0168
1.72756e-08
-2.15524e-11
0.0168
3.9365e-08
-2.81513e-11
0.0167999
1.06051e-07
-2.82114e-11
0.0167997
2.29581e-07
-3.59658e-11
0.0167988
6.98504e-07
-4.01546e-11
0.016798
1.22506e-06
-7.04084e-11
0.0167906
5.31939e-06
-7.75392e-11
0.0167843
9.306e-06
-2.28137e-10
0.0167377
4.41113e-05
-3.76207e-10
0.016659
0.000114983
-1.49156e-09
0.0163898
0.000495016
-3.8561e-09
0.0152635
0.00222969
-1.40682e-08
0.0139125
0.00433619
3.40559e-09
0.012526
0.00405839
2.31636e-09
0.011146
0.00412626
1.51623e-09
0.00967458
0.00440186
1.26826e-09
0.00803411
0.00492008
9.38277e-10
0.00621104
0.00545027
8.47672e-10
0.00410224
0.00579741
6.94944e-10
0.00203506
0.00604465
4.96131e-10
0.00647911
4.4969e-10
0.0168001
2.51819e-10
-3.23213e-12
0.0168001
8.16454e-10
-1.17666e-11
0.0168001
3.4858e-09
-1.37004e-11
0.0168001
8.85382e-09
-2.13252e-11
0.0168
2.43628e-08
-2.14842e-11
0.0168
5.51396e-08
-2.80107e-11
0.0167999
1.45002e-07
-2.77099e-11
0.0167997
3.14155e-07
-3.46932e-11
0.016799
8.89177e-07
-3.79996e-11
0.0167978
1.6895e-06
-5.27174e-11
0.0167923
6.47735e-06
-7.68872e-11
0.0167885
1.07156e-05
-1.57694e-10
0.0167554
5.0666e-05
-3.27788e-10
0.016702
0.000123369
-1.1702e-09
0.0165891
0.000516901
-3.21802e-09
0.0160217
0.00214452
-1.20642e-08
0.0144323
0.00593852
1.46112e-09
0.0128498
0.00567379
1.52228e-09
0.0114077
0.00560519
1.29436e-09
0.00992809
0.00590525
1.11129e-09
0.00827917
0.00659364
8.08233e-10
0.00642718
0.00731791
6.77472e-10
0.00426703
0.00780032
5.42261e-10
0.00213533
0.00813968
4.03966e-10
0.0087424
3.59564e-10
0.0168001
2.89487e-10
-3.39562e-12
0.0168001
1.00701e-09
-1.14165e-11
0.0168001
4.25212e-09
-1.38594e-11
0.0168001
1.08382e-08
-2.12915e-11
0.0168
3.05735e-08
-2.16334e-11
0.0168
6.99846e-08
-2.77571e-11
0.0167999
1.87021e-07
-2.82175e-11
0.0167997
4.1832e-07
-3.44712e-11
0.016799
1.11726e-06
-3.78893e-11
0.0167975
2.50251e-06
-5.2061e-11
0.0167939
6.83951e-06
-7.001e-11
0.0167851
1.63898e-05
-1.46855e-10
0.0167702
4.60356e-05
-2.29191e-10
0.0166968
0.000156769
-9.29841e-10
0.0167521
0.000467974
-1.89483e-09
0.0163544
0.00214384
-6.21527e-09
0.014765
0.00724688
-2.9785e-09
0.0131269
0.00728581
4.10033e-10
0.0116962
0.00708008
1.13095e-09
0.0102457
0.00739345
9.72264e-10
0.00859582
0.00826627
6.93849e-10
0.0067332
0.00919065
5.36557e-10
0.00452129
0.00985157
4.11719e-10
0.00229215
0.01032
3.06328e-10
0.0111511
2.7777e-10
0.0168001
3.03011e-10
-3.56096e-12
0.0168001
1.14245e-09
-1.10391e-11
0.0168001
4.65946e-09
-1.40061e-11
0.0168001
1.19485e-08
-2.12427e-11
0.0168
3.29483e-08
-2.16516e-11
0.0168
7.50617e-08
-2.76828e-11
0.0167999
1.9682e-07
-2.80903e-11
0.0167998
4.34975e-07
-3.42841e-11
0.0167993
1.17686e-06
-3.70504e-11
0.0167988
2.44747e-06
-5.32696e-11
0.0167951
7.76626e-06
-5.57166e-11
0.016791
1.51487e-05
-1.78271e-10
0.0167724
5.2996e-05
-6.78838e-11
0.0167326
0.000156177
-1.0234e-09
0.0166983
0.000469533
-4.52671e-10
0.016368
0.00213939
-5.44867e-09
0.0149476
0.00834579
-4.31425e-09
0.0133406
0.00882233
-8.15169e-10
0.0120321
0.00845255
9.40839e-10
0.0106316
0.00883065
7.89412e-10
0.00899821
0.00991184
5.44885e-10
0.00712148
0.0110675
4.16431e-10
0.0048548
0.0119476
3.05939e-10
0.00251835
0.0125981
2.22796e-10
0.0137777
1.96381e-10
0.0168001
3.47874e-10
-3.71257e-12
0.0168001
1.39843e-09
-1.07006e-11
0.0168001
5.61423e-09
-1.41535e-11
0.0168001
1.43924e-08
-2.12115e-11
0.0168
3.96195e-08
-2.1682e-11
0.0168
9.04559e-08
-2.76228e-11
0.0167999
2.35283e-07
-2.78737e-11
0.0167997
5.22025e-07
-3.36354e-11
0.0167992
1.37373e-06
-3.56027e-11
0.0167982
2.93231e-06
-4.55836e-11
0.016795
8.58568e-06
-5.94774e-11
0.016791
1.72556e-05
-9.50987e-11
0.0167734
5.8365e-05
-1.74678e-10
0.0167476
0.000155148
-5.24102e-10
0.0166413
0.000533535
-8.50131e-10
0.0164477
0.00207398
-4.20716e-09
0.0150483
0.00943158
-4.51728e-09
0.0137609
0.0100388
-1.45093e-09
0.0124866
0.00979465
1.40404e-09
0.0110189
0.0103344
8.28632e-10
0.00947201
0.0114578
2.38984e-10
0.00764541
0.0128902
3.01399e-10
0.00532474
0.0141371
2.28005e-10
0.00284965
0.0150053
1.5382e-10
0.016727
1.1995e-10
0.0168001
4.02614e-10
-3.85924e-12
0.0168001
1.72816e-09
-1.03752e-11
0.0168001
6.83104e-09
-1.43187e-11
0.0168001
1.75588e-08
-2.12216e-11
0.0168
4.80865e-08
-2.17984e-11
0.0168
1.10123e-07
-2.77255e-11
0.0167999
2.84659e-07
-2.80029e-11
0.0167997
6.34948e-07
-3.3749e-11
0.0167991
1.64118e-06
-3.55015e-11
0.0167979
3.58681e-06
-4.50331e-11
0.0167943
9.878e-06
-5.7567e-11
0.0167888
2.0584e-05
-9.30181e-11
0.0167703
6.44311e-05
-1.59307e-10
0.0167432
0.000164348
-4.53052e-10
0.0166433
0.000584106
-8.41225e-10
0.0165272
0.00200913
-3.39793e-09
0.0153292
0.0102753
-4.94344e-09
0.014306
0.0110602
-2.13284e-12
0.0130309
0.011099
5.85028e-10
0.0115545
0.0118274
3.27474e-10
0.010066
0.0129381
2.39924e-10
0.00831451
0.0146232
2.36032e-10
0.00601893
0.0163054
1.70543e-10
0.00339248
0.0175415
1.16675e-10
0.0202054
7.11996e-11
0.0168001
5.01763e-10
-4.00083e-12
0.0168001
2.15621e-09
-1.00811e-11
0.0168001
8.75573e-09
-1.45485e-11
0.0168
2.15424e-08
-2.1365e-11
0.0168
5.96318e-08
-2.21304e-11
0.0168
1.34713e-07
-2.81871e-11
0.0167998
3.53527e-07
-2.86698e-11
0.0167996
7.8164e-07
-3.47878e-11
0.0167988
2.02883e-06
-3.68206e-11
0.0167975
4.43379e-06
-4.85494e-11
0.0167935
1.16448e-05
-5.62239e-11
0.0167875
2.35513e-05
-1.13687e-10
0.0167648
7.53022e-05
-1.07321e-10
0.0167511
0.000159396
-5.13735e-10
0.0166446
0.000639808
-5.77042e-10
0.0165661
0.00194711
-2.82322e-09
0.0156888
0.0107717
-4.88357e-09
0.0145506
0.0122141
3.81274e-10
0.0134028
0.0122703
3.81934e-10
0.0121494
0.0130806
1.84488e-10
0.0107737
0.0142971
1.75066e-10
0.00917928
0.0161902
1.74422e-10
0.00714669
0.0182181
1.32648e-10
0.0044039
0.0201625
9.87688e-11
0.0246704
3.53286e-11
0.0168001
-4.16406e-12
6.51758e-10
0.0168001
-9.84655e-12
1.9239e-09
0.0168001
-1.50075e-11
1.2689e-08
0.0168001
-2.18732e-11
1.32401e-08
0.0168
-2.28389e-11
7.61758e-08
0.0168001
-2.95476e-11
7.90532e-08
0.0167999
-2.94023e-11
4.44723e-07
0.0168002
-3.67351e-11
4.32815e-07
0.016799
-3.79774e-11
2.76e-06
0.0168011
-5.13227e-11
1.91345e-06
0.0167915
-5.5864e-11
1.89e-05
0.0168062
-1.06129e-10
6.07866e-06
0.016736
-1.50899e-10
0.000133516
0.0168297
-3.70863e-10
4.92338e-05
0.0164782
-6.07983e-10
0.000943222
0.0165903
-2.26963e-09
0.0017038
0.015965
-4.85671e-09
0.0110071
0.0148895
6.07625e-10
0.0133269
0.0138319
3.99956e-10
0.013357
0.0128372
1.54729e-10
0.0140875
0.0117076
1.58948e-10
0.0154316
0.0105116
1.5141e-10
0.0173767
0.00871775
1.20567e-10
0.0199516
0.00601542
8.39538e-11
0.0227449
3.20268e-11
0.0307316
0.0168001
4.37864e-11
-4.42438e-16
0.0168001
2.33423e-10
-2.41264e-15
0.0168001
8.81497e-10
-5.00252e-15
0.0168
2.24841e-09
-1.02422e-14
0.0168
6.37559e-09
-1.75465e-14
0.0168
1.45288e-08
-3.08697e-14
0.0167998
4.02299e-08
-6.37383e-14
0.0167996
8.39432e-08
-1.00051e-13
0.0167984
2.78496e-07
-3.83713e-13
0.0167975
4.56241e-07
-4.0784e-13
0.0167881
2.10986e-06
-2.99409e-12
0.0167796
3.86028e-06
-3.99436e-12
0.0167217
1.71851e-05
-2.20109e-11
0.0166194
4.61844e-05
-5.29256e-11
0.0162033
0.000202281
-1.94954e-10
0.0144889
0.00097207
-6.32481e-10
0.0132813
0.00142928
1.37914e-10
0.0121237
0.00127282
8.40125e-11
0.0108581
0.0013312
4.30924e-11
0.00944778
0.00144203
3.20216e-11
0.00786945
0.00161096
2.31273e-11
0.00610641
0.00179131
3.25121e-11
0.00405203
0.00191163
7.94461e-12
0.00203551
0.00199524
4.35485e-11
0.0021759
-4.99196e-12
0.0168001
8.31734e-11
-4.40025e-16
0.0168001
4.44221e-10
-2.40006e-15
0.0168001
1.6917e-09
-4.97325e-15
0.0168001
4.30814e-09
-1.02006e-14
0.0168
1.23191e-08
-1.74854e-14
0.0168
2.81265e-08
-3.09879e-14
0.0167998
7.77441e-08
-6.24136e-14
0.0167996
1.68053e-07
-1.00589e-13
0.0167985
5.2784e-07
-3.64435e-13
0.0167976
8.95055e-07
-3.93173e-13
0.0167888
4.02739e-06
-2.85783e-12
0.0167806
7.38834e-06
-3.78979e-12
0.0167256
3.296e-05
-2.10004e-11
0.0166278
8.8912e-05
-5.04671e-11
0.0162504
0.0003825
-1.86284e-10
0.0147109
0.00179111
-6.09953e-10
0.0134628
0.00286549
1.15537e-10
0.0122504
0.00258915
7.48611e-11
0.0109466
0.00269501
3.89976e-11
0.0095109
0.00290617
2.90065e-11
0.00789618
0.0032552
2.06443e-11
0.0061037
0.00360857
3.11854e-11
0.00403022
0.00383934
4.84175e-12
0.00199617
0.00400639
4.46273e-11
0.00431034
-2.90238e-12
0.0168001
1.18327e-10
-4.33495e-16
0.0168001
6.49884e-10
-2.37213e-15
0.0168001
2.42748e-09
-4.87069e-15
0.0168001
6.22841e-09
-9.97332e-15
0.0168
1.73087e-08
-1.68399e-14
0.0168
3.94415e-08
-2.98928e-14
0.0167999
1.06266e-07
-5.8427e-14
0.0167997
2.30151e-07
-1.02689e-13
0.0167988
6.99553e-07
-3.18699e-13
0.016798
1.23269e-06
-3.67881e-13
0.0167906
5.32302e-06
-2.50661e-12
0.0167842
9.34145e-06
-3.31747e-12
0.0167376
4.41592e-05
-1.868e-11
0.0166586
0.000115212
-4.52751e-11
0.0163885
0.000495843
-1.68509e-10
0.0152599
0.00223402
-5.66675e-10
0.0139102
0.00433645
7.5686e-11
0.0125246
0.00405687
5.53995e-11
0.0111448
0.0041253
3.28048e-11
0.00967349
0.0044012
2.39464e-11
0.00803322
0.00491958
1.57208e-11
0.00621042
0.0054498
2.73544e-11
0.00410184
0.005797
1.7105e-13
0.00203485
0.00604431
4.04234e-11
0.00647879
-2.9334e-12
0.0168001
1.73017e-10
-4.27625e-16
0.0168001
9.45037e-10
-2.36617e-15
0.0168001
3.47549e-09
-4.78526e-15
0.0168001
8.88856e-09
-9.81283e-15
0.0168
2.43272e-08
-1.59184e-14
0.0168
5.52544e-08
-2.79744e-14
0.0167999
1.44817e-07
-5.01449e-14
0.0167997
3.14179e-07
-8.73867e-14
0.016799
8.89201e-07
-2.36503e-13
0.0167978
1.68961e-06
-3.47448e-13
0.0167923
6.48202e-06
-1.80015e-12
0.0167885
1.07198e-05
-2.30908e-12
0.0167553
5.07297e-05
-1.46889e-11
0.0167018
0.000123473
-3.60722e-11
0.0165879
0.000517703
-1.3891e-10
0.0160191
0.00214919
-4.87071e-10
0.0144315
0.00593766
-6.34247e-12
0.0128492
0.00567244
2.2816e-11
0.011407
0.00560426
2.33928e-11
0.00992724
0.00590464
1.76055e-11
0.00827848
0.00659317
1.15216e-11
0.00642671
0.00731744
2.36088e-11
0.00426674
0.00779988
-6.43441e-12
0.00213517
0.0081393
2.68503e-11
0.00874199
2.3204e-12
0.0168001
2.10719e-10
-4.31257e-16
0.0168001
1.13318e-09
-2.39654e-15
0.0168001
4.26468e-09
-4.87664e-15
0.0168001
1.08868e-08
-1.00147e-14
0.0168
3.06059e-08
-1.65044e-14
0.0168
7.00588e-08
-2.86243e-14
0.0167999
1.87172e-07
-5.21458e-14
0.0167997
4.1861e-07
-9.02164e-14
0.016799
1.11805e-06
-2.23791e-13
0.0167975
2.5038e-06
-3.49387e-13
0.0167939
6.84579e-06
-1.51719e-12
0.0167851
1.63931e-05
-1.8534e-12
0.0167701
4.60967e-05
-1.1089e-11
0.0166968
0.000156825
-2.48915e-11
0.0167517
0.000468739
-8.83744e-11
0.0163567
0.00214558
-2.58814e-10
0.0147658
0.00724844
-1.876e-10
0.0131269
0.00728545
-2.37041e-11
0.0116957
0.00707953
1.74082e-11
0.010245
0.00739308
1.30309e-11
0.00859531
0.0082659
8.76534e-12
0.00673287
0.00919023
2.04222e-11
0.00452109
0.00985111
-1.11933e-11
0.00229204
0.0103196
2.6981e-11
0.0111506
3.00194e-12
0.0168001
2.28969e-10
-4.21899e-16
0.0168001
1.25594e-09
-2.36145e-15
0.0168001
4.6637e-09
-4.77049e-15
0.0168001
1.19776e-08
-9.81071e-15
0.0168
3.2948e-08
-1.60274e-14
0.0168
7.5073e-08
-2.78233e-14
0.0167999
1.96888e-07
-5.0271e-14
0.0167998
4.35231e-07
-8.96806e-14
0.0167993
1.17761e-06
-2.07157e-13
0.0167988
2.45075e-06
-4.08387e-13
0.0167951
7.76787e-06
-1.09399e-12
0.0167909
1.51802e-05
-2.7911e-12
0.0167724
5.2974e-05
-5.89648e-12
0.0167323
0.000156416
-2.74295e-11
0.0166988
0.000469509
-4.01729e-11
0.0163682
0.00214089
-2.2393e-10
0.0149479
0.00834674
-2.4691e-10
0.0133409
0.00882185
-7.71788e-11
0.0120317
0.00845272
1.19095e-11
0.0106311
0.00883058
7.40659e-12
0.00899782
0.00991153
3.77313e-12
0.00712125
0.0110672
1.59526e-11
0.00485468
0.0119472
-1.86486e-11
0.00251829
0.0125976
2.2125e-11
0.0137772
1.03716e-11
0.0168001
2.76145e-10
-4.18683e-16
0.0168001
1.50669e-09
-2.35812e-15
0.0168001
5.60043e-09
-4.73685e-15
0.0168001
1.43739e-08
-9.76835e-15
0.0168
3.95127e-08
-1.56702e-14
0.0168
9.02604e-08
-2.706e-14
0.0167999
2.34954e-07
-4.65683e-14
0.0167997
5.2154e-07
-8.0203e-14
0.0167992
1.37316e-06
-1.80868e-13
0.0167982
2.93184e-06
-2.85725e-13
0.016795
8.5859e-06
-1.10518e-12
0.016791
1.72576e-05
-1.33884e-12
0.0167734
5.8374e-05
-7.32403e-12
0.0167477
0.000155201
-1.75715e-11
0.0166413
0.000533602
-4.28804e-11
0.016448
0.00207491
-1.87058e-10
0.0150485
0.00943231
-2.59272e-10
0.0137591
0.0100403
-1.07106e-10
0.0124858
0.00979414
3.70731e-11
0.0110187
0.0103338
1.24789e-11
0.00947171
0.0114576
-1.01534e-11
0.00764524
0.0128898
4.81907e-12
0.00532468
0.0141366
-1.9028e-11
0.00284964
0.0150049
1.52108e-11
0.0167265
2.00875e-11
0.0168001
3.31972e-10
-4.17757e-16
0.0168001
1.81689e-09
-2.36342e-15
0.0168001
6.7549e-09
-4.74671e-15
0.0168001
1.73836e-08
-9.8098e-15
0.0168
4.76872e-08
-1.57472e-14
0.0168
1.09425e-07
-2.7271e-14
0.0167999
2.83541e-07
-4.70738e-14
0.0167997
6.33292e-07
-8.21171e-14
0.0167991
1.63883e-06
-1.82181e-13
0.0167979
3.58296e-06
-3.18648e-13
0.0167943
9.87525e-06
-1.02458e-12
0.0167888
2.05713e-05
-1.63397e-12
0.0167703
6.44518e-05
-6.5653e-12
0.0167432
0.000164336
-1.53365e-11
0.0166433
0.000584267
-4.55575e-11
0.0165271
0.00200991
-1.54381e-10
0.0153285
0.0102764
-2.87285e-10
0.0143063
0.0110606
-4.20335e-11
0.0130308
0.0110991
7.27189e-13
0.0115542
0.0118271
-6.81413e-12
0.0100659
0.0129378
-8.2969e-12
0.0083145
0.014623
2.83177e-12
0.00601893
0.016305
-8.46635e-12
0.0033925
0.0175411
6.77929e-12
0.0202049
1.388e-11
0.0168001
4.46955e-10
-4.20377e-16
0.0168001
2.15328e-09
-2.38584e-15
0.0168001
8.27258e-09
-4.81234e-15
0.0168001
2.07606e-08
-9.96579e-15
0.0168
5.8382e-08
-1.61766e-14
0.0168
1.32703e-07
-2.82016e-14
0.0167999
3.51198e-07
-4.97361e-14
0.0167996
7.78239e-07
-8.85201e-14
0.0167988
2.02492e-06
-1.93885e-13
0.0167975
4.42883e-06
-3.75442e-13
0.0167935
1.16404e-05
-9.77608e-13
0.0167875
2.35487e-05
-2.04728e-12
0.0167649
7.52912e-05
-5.50154e-12
0.0167509
0.00015944
-1.63047e-11
0.016645
0.000639876
-3.9623e-11
0.0165661
0.0019476
-1.37425e-10
0.0156889
0.010773
-2.99248e-10
0.0145508
0.0122145
-5.93708e-12
0.0134029
0.0122705
-2.78415e-12
0.0121494
0.0130805
-9.53065e-12
0.0107737
0.014297
-8.66953e-12
0.00917939
0.01619
2.08216e-13
0.00714683
0.0182178
-1.70392e-12
0.00440398
0.0201622
3.81816e-12
0.02467
2.79918e-11
0.0168001
-4.26462e-16
7.17116e-10
0.0168001
-2.44288e-15
9.95396e-10
0.0168001
-4.94668e-15
1.03814e-08
0.0168001
-1.02905e-14
1.16529e-08
0.0168
-1.67178e-14
7.2031e-08
0.0168001
-2.97463e-14
7.63981e-08
0.0167999
-5.14428e-14
4.39244e-07
0.0168002
-9.39684e-14
4.29339e-07
0.016799
-1.97965e-13
2.75287e-06
0.0168011
-4.03617e-13
1.91114e-06
0.0167915
-9.43692e-13
1.88909e-05
0.0168063
-2.03373e-12
6.08163e-06
0.016736
-5.83155e-12
0.000133517
0.0168298
-1.38156e-11
4.92653e-05
0.0164782
-3.77326e-11
0.000943246
0.0165904
-1.24286e-10
0.00170419
0.0159651
-3.10665e-10
0.0110083
0.0148897
9.47164e-12
0.0133271
0.0138321
1.34697e-12
0.0133571
0.0128373
-1.03533e-11
0.0140876
0.0117077
-7.78607e-12
0.0154316
0.0105118
-1.46401e-12
0.0173766
0.00871791
3.1079e-12
0.0199513
0.00601554
3.92878e-12
0.0227446
3.43443e-11
0.0307313
0.0168001
4.37876e-11
1.83352e-16
0.0168001
2.3343e-10
1.5641e-16
0.0168001
8.81519e-10
-4.94845e-17
0.0168
2.24846e-09
-1.03767e-16
0.0168
6.37572e-09
-3.16469e-16
0.0168
1.4529e-08
-5.71513e-16
0.0167998
4.02309e-08
-2.35508e-15
0.0167996
8.39433e-08
-2.35705e-15
0.0167984
2.78508e-07
-2.59716e-14
0.0167975
4.56254e-07
-7.54351e-15
0.0167881
2.10995e-06
-2.56599e-13
0.0167796
3.86047e-06
-2.61771e-13
0.0167217
1.7186e-05
-1.98295e-12
0.0166194
4.61868e-05
-4.53389e-12
0.0162033
0.000202292
-1.79851e-11
0.0144888
0.000972128
-5.9512e-11
0.0132812
0.00142928
1.4526e-12
0.0121237
0.0012728
-1.84774e-12
0.010858
0.00133118
-8.6913e-12
0.00944774
0.00144201
-1.14182e-11
0.00786943
0.00161095
-1.55493e-11
0.00610641
0.0017913
-1.42441e-11
0.00405205
0.00191162
-1.5018e-11
0.0020355
0.00199525
1.07061e-11
0.00217588
-9.31736e-12
0.0168001
8.3176e-11
1.81452e-16
0.0168001
4.44233e-10
1.59174e-16
0.0168001
1.69174e-09
-5.52613e-17
0.0168001
4.30825e-09
-1.19369e-16
0.0168
1.23195e-08
-3.62589e-16
0.0168
2.81274e-08
-6.9239e-16
0.0167998
7.77466e-08
-2.43595e-15
0.0167996
1.68056e-07
-2.65061e-15
0.0167985
5.27864e-07
-2.52577e-14
0.0167976
8.95082e-07
-3.06443e-15
0.0167888
4.02761e-06
-2.54945e-13
0.0167806
7.38875e-06
-2.29003e-13
0.0167256
3.29619e-05
-1.93814e-12
0.0166278
8.8917e-05
-4.3062e-12
0.0162504
0.000382524
-1.73611e-11
0.0147107
0.00179123
-5.75114e-11
0.0134627
0.00286549
-2.77066e-13
0.0122504
0.00258911
-2.37184e-12
0.0109466
0.00269498
-8.8334e-12
0.00951087
0.00290614
-1.13881e-11
0.00789617
0.00325517
-1.53542e-11
0.0061037
0.00360855
-1.42789e-11
0.00403024
0.00383934
-1.56895e-11
0.00199619
0.00400637
8.19156e-12
0.00431033
-1.17922e-11
0.0168001
1.18328e-10
1.77622e-16
0.0168001
6.49882e-10
1.65783e-16
0.0168001
2.4275e-09
-6.22984e-17
0.0168001
6.22843e-09
-1.34688e-16
0.0168
1.7309e-08
-4.26412e-16
0.0168
3.94421e-08
-8.65496e-16
0.0167999
1.06269e-07
-2.86909e-15
0.0167997
2.30157e-07
-5.13597e-15
0.0167988
6.99587e-07
-2.37791e-14
0.016798
1.23271e-06
-1.59428e-14
0.0167906
5.32333e-06
-2.25344e-13
0.0167842
9.34212e-06
-2.37378e-13
0.0167376
4.41617e-05
-1.73247e-12
0.0166586
0.00011522
-4.09023e-12
0.0163885
0.000495877
-1.59138e-11
0.0152598
0.00223419
-5.37117e-11
0.0139101
0.00433645
-3.55968e-12
0.0125246
0.0040568
-3.6875e-12
0.0111447
0.00412526
-9.10601e-12
0.00967347
0.00440117
-1.14753e-11
0.00803321
0.00491954
-1.521e-11
0.00621043
0.00544977
-1.47027e-11
0.00410187
0.00579699
-1.70755e-11
0.00203487
0.00604426
3.98551e-12
0.00647877
-1.11376e-11
0.0168001
1.73016e-10
1.76896e-16
0.0168001
9.45028e-10
1.68926e-16
0.0168001
3.47545e-09
-5.57966e-17
0.0168001
8.88848e-09
-1.21349e-16
0.0168
2.43269e-08
-3.82728e-16
0.0168
5.52539e-08
-7.86552e-16
0.0167999
1.44815e-07
-2.5403e-15
0.0167997
3.14176e-07
-4.96403e-15
0.016799
8.89202e-07
-1.84027e-14
0.0167978
1.6896e-06
-2.97684e-14
0.0167923
6.48215e-06
-1.58726e-13
0.0167885
1.072e-05
-2.2993e-13
0.0167553
5.07317e-05
-1.33779e-12
0.0167018
0.000123478
-3.60605e-12
0.0165878
0.000517734
-1.33363e-11
0.016019
0.00214937
-4.73117e-11
0.0144314
0.00593761
-1.06874e-11
0.0128492
0.00567238
-6.12303e-12
0.011407
0.00560421
-9.32102e-12
0.00992723
0.00590461
-1.13987e-11
0.00827848
0.00659313
-1.48473e-11
0.00642673
0.0073174
-1.50363e-11
0.00426676
0.00779988
-1.84686e-11
0.00213518
0.00813923
-1.06801e-12
0.00874197
-7.58092e-12
0.0168001
2.10723e-10
1.79452e-16
0.0168001
1.1332e-09
1.61217e-16
0.0168001
4.26475e-09
-5.68935e-17
0.0168001
1.08869e-08
-1.23859e-16
0.0168
3.06063e-08
-3.91918e-16
0.0168
7.00596e-08
-8.01277e-16
0.0167999
1.87174e-07
-2.53682e-15
0.0167997
4.18613e-07
-4.97186e-15
0.016799
1.11806e-06
-1.71154e-14
0.0167975
2.5038e-06
-2.88232e-14
0.0167939
6.84595e-06
-1.37329e-13
0.0167851
1.6393e-05
-1.88084e-13
0.0167701
4.60987e-05
-1.06805e-12
0.0166969
0.000156826
-2.6423e-12
0.0167517
0.000468766
-9.1292e-12
0.0163568
0.00214565
-2.79927e-11
0.0147659
0.00724849
-2.68347e-11
0.0131269
0.00728542
-1.20468e-11
0.0116957
0.00707949
-9.41339e-12
0.010245
0.00739305
-1.13625e-11
0.0085953
0.00826587
-1.46001e-11
0.00673289
0.00919019
-1.47669e-11
0.00452111
0.00985112
-2.12643e-11
0.00229205
0.0103195
-2.17535e-12
0.0111506
-1.06445e-11
0.0168001
2.2897e-10
1.76444e-16
0.0168001
1.25594e-09
1.75586e-16
0.0168001
4.66372e-09
-4.62438e-17
0.0168001
1.19776e-08
-1.00209e-16
0.0168
3.29481e-08
-3.37919e-16
0.0168
7.50733e-08
-7.0106e-16
0.0167999
1.9689e-07
-2.31999e-15
0.0167998
4.35235e-07
-4.826e-15
0.0167993
1.17762e-06
-1.55528e-14
0.0167988
2.45079e-06
-3.45984e-14
0.0167951
7.7679e-06
-9.80167e-14
0.0167909
1.51807e-05
-2.88816e-13
0.0167724
5.29737e-05
-5.65676e-13
0.0167323
0.000156421
-2.9986e-12
0.0166988
0.000469512
-4.35839e-12
0.0163682
0.00214094
-2.55457e-11
0.0149479
0.00834676
-3.26784e-11
0.0133409
0.00882181
-1.4783e-11
0.0120317
0.00845271
-9.204e-12
0.0106311
0.00883057
-1.09601e-11
0.00899782
0.0099115
-1.39171e-11
0.00712126
0.0110671
-1.40411e-11
0.0048547
0.0119472
-2.36593e-11
0.00251829
0.0125976
-4.27429e-12
0.0137771
-1.14797e-11
0.0168001
2.76145e-10
1.75885e-16
0.0168001
1.50668e-09
1.77213e-16
0.0168001
5.60041e-09
-4.21907e-17
0.0168001
1.43739e-08
-9.25468e-17
0.0168
3.95126e-08
-2.89802e-16
0.0168
9.02601e-08
-5.93627e-16
0.0167999
2.34954e-07
-1.8326e-15
0.0167997
5.21539e-07
-3.56005e-15
0.0167992
1.37316e-06
-1.22686e-14
0.0167982
2.93183e-06
-1.83638e-14
0.016795
8.58593e-06
-1.02719e-13
0.016791
1.72575e-05
-1.05271e-13
0.0167734
5.83743e-05
-7.81492e-13
0.0167477
0.000155203
-1.82922e-12
0.0166413
0.000533602
-4.95355e-12
0.016448
0.00207495
-2.18441e-11
0.0150485
0.00943233
-3.45658e-11
0.013759
0.0100403
-1.87745e-11
0.0124857
0.0097941
-5.77645e-12
0.0110187
0.0103338
-9.72657e-12
0.00947171
0.0114576
-1.56508e-11
0.00764524
0.0128898
-1.46667e-11
0.00532471
0.0141366
-2.44899e-11
0.00284962
0.0150048
-5.26447e-12
0.0167264
-1.20135e-11
0.0168001
3.31971e-10
1.75897e-16
0.0168001
1.81688e-09
1.78201e-16
0.0168001
6.75485e-09
-3.98097e-17
0.0168001
1.73835e-08
-8.69064e-17
0.0168
4.76869e-08
-2.85949e-16
0.0168
1.09425e-07
-5.93456e-16
0.0167999
2.83539e-07
-1.92706e-15
0.0167997
6.33288e-07
-3.93976e-15
0.0167991
1.63882e-06
-1.29491e-14
0.0167979
3.58293e-06
-2.47205e-14
0.0167943
9.87526e-06
-9.30879e-14
0.0167888
2.05711e-05
-1.54457e-13
0.0167703
6.44523e-05
-6.8069e-13
0.0167432
0.000164336
-1.62793e-12
0.0166433
0.000584271
-5.23834e-12
0.0165271
0.00200994
-1.83625e-11
0.0153285
0.0102765
-3.73515e-11
0.0143064
0.0110606
-1.32997e-11
0.0130308
0.0110991
-8.69944e-12
0.0115542
0.0118271
-1.17949e-11
0.0100659
0.0129378
-1.34555e-11
0.00831451
0.0146229
-1.44357e-11
0.00601897
0.016305
-2.04003e-11
0.00339248
0.017541
-8.28508e-12
0.0202048
-1.55862e-11
0.0168001
4.46947e-10
1.76384e-16
0.0168001
2.15325e-09
1.76072e-16
0.0168001
8.27246e-09
-4.0434e-17
0.0168001
2.07603e-08
-8.90198e-17
0.0168
5.83815e-08
-2.95302e-16
0.0168
1.32702e-07
-6.21247e-16
0.0167999
3.51196e-07
-2.01495e-15
0.0167996
7.78236e-07
-4.19653e-15
0.0167988
2.02492e-06
-1.34348e-14
0.0167975
4.42882e-06
-2.79064e-14
0.0167935
1.16404e-05
-8.93227e-14
0.0167875
2.35487e-05
-1.85104e-13
0.0167649
7.52913e-05
-5.97592e-13
0.0167509
0.00015944
-1.68061e-12
0.016645
0.00063988
-4.76825e-12
0.0165661
0.00194762
-1.63015e-11
0.0156889
0.010773
-3.85143e-11
0.0145508
0.0122145
-8.03551e-12
0.013403
0.0122705
-8.20582e-12
0.0121494
0.0130805
-1.21384e-11
0.0107737
0.014297
-1.33355e-11
0.0091794
0.0161899
-1.41231e-11
0.00714686
0.0182178
-1.70453e-11
0.00440395
0.0201621
-9.83296e-12
0.0246698
-1.66209e-11
0.0168001
1.77497e-16
7.17067e-10
0.0168001
1.75644e-16
9.95352e-10
0.0168001
-3.40007e-17
1.03808e-08
0.0168001
-7.39832e-17
1.16525e-08
0.0168
-2.68519e-16
7.20295e-08
0.0168001
-5.66269e-16
7.63973e-08
0.0167999
-1.93488e-15
4.39243e-07
0.0168002
-4.08497e-15
4.2934e-07
0.016799
-1.31291e-14
2.75289e-06
0.0168011
-2.82079e-14
1.91115e-06
0.0167915
-8.62295e-14
1.88911e-05
0.0168063
-1.80133e-13
6.08163e-06
0.016736
-6.18853e-13
0.000133518
0.0168298
-1.4561e-12
4.92654e-05
0.0164782
-4.52113e-12
0.00094325
0.0165904
-1.48414e-11
0.0017042
0.015965
-3.94278e-11
0.0110083
0.0148897
-5.95518e-12
0.0133271
0.0138321
-6.90097e-12
0.0133571
0.0128373
-1.08451e-11
0.0140875
0.0117077
-1.19241e-11
0.0154315
0.0105118
-1.34914e-11
0.0173766
0.00871792
-1.57037e-11
0.0199513
0.0060155
-1.33366e-11
0.0227446
-1.68164e-11
0.0307311
0.0168001
4.37874e-11
-2.25493e-16
0.0168001
2.33429e-10
-7.43379e-16
0.0168001
8.81516e-10
-2.14403e-15
0.0168
2.24846e-09
-4.27191e-15
0.0168
6.37569e-09
-1.23994e-14
0.0168
1.45289e-08
-2.42516e-14
0.0167998
4.02308e-08
-7.988e-14
0.0167996
8.39427e-08
-1.33764e-13
0.0167984
2.78508e-07
-6.31455e-13
0.0167975
4.56254e-07
-7.09174e-13
0.0167881
2.10995e-06
-5.1768e-12
0.0167796
3.86048e-06
-7.01467e-12
0.0167217
1.7186e-05
-3.80001e-11
0.0166194
4.61869e-05
-8.87195e-11
0.0162033
0.000202293
-3.28064e-10
0.0144888
0.000972133
-1.04317e-09
0.0132812
0.00142928
3.62814e-10
0.0121237
0.0012728
2.31459e-10
0.010858
0.00133118
1.50971e-10
0.00944774
0.00144201
1.30918e-10
0.00786943
0.00161095
1.11869e-10
0.00610642
0.0017913
1.08707e-10
0.00405205
0.00191162
9.72585e-11
0.00203552
0.00199523
3.85776e-11
0.0021759
5.58832e-11
0.0168001
8.31759e-11
-2.14278e-16
0.0168001
4.44232e-10
-7.01655e-16
0.0168001
1.69174e-09
-2.04575e-15
0.0168001
4.30825e-09
-4.09669e-15
0.0168
1.23195e-08
-1.20483e-14
0.0168
2.81273e-08
-2.39807e-14
0.0167998
7.77464e-08
-7.65874e-14
0.0167996
1.68056e-07
-1.3386e-13
0.0167985
5.27864e-07
-5.91011e-13
0.0167976
8.95075e-07
-6.94683e-13
0.0167888
4.02762e-06
-4.88336e-12
0.0167806
7.38875e-06
-6.70114e-12
0.0167256
3.2962e-05
-3.59884e-11
0.0166278
8.89173e-05
-8.45102e-11
0.0162504
0.000382525
-3.12139e-10
0.0147107
0.00179124
-1.0025e-09
0.0134627
0.00286549
3.20338e-10
0.0122504
0.0025891
2.135e-10
0.0109465
0.00269497
1.42724e-10
0.00951087
0.00290614
1.24192e-10
0.00789617
0.00325517
1.05401e-10
0.00610371
0.00360855
1.00937e-10
0.00403024
0.00383934
8.9813e-11
0.00199619
0.00400635
3.79954e-11
0.00431036
5.37234e-11
0.0168001
1.18329e-10
-1.87415e-16
0.0168001
6.49883e-10
-6.12722e-16
0.0168001
2.4275e-09
-1.75915e-15
0.0168001
6.22844e-09
-3.47085e-15
0.0168
1.7309e-08
-1.02421e-14
0.0168
3.94421e-08
-2.05225e-14
0.0167999
1.06269e-07
-6.55204e-14
0.0167997
2.30158e-07
-1.25834e-13
0.0167988
6.99589e-07
-4.96359e-13
0.016798
1.23271e-06
-5.83574e-13
0.0167906
5.32335e-06
-4.22511e-12
0.0167842
9.34214e-06
-5.6575e-12
0.0167376
4.41619e-05
-3.17244e-11
0.0166586
0.00011522
-7.44253e-11
0.0163885
0.00049588
-2.79848e-10
0.0152598
0.0022342
-9.24959e-10
0.0139101
0.00433645
2.45751e-10
0.0125246
0.0040568
1.78173e-10
0.0111447
0.00412525
1.32288e-10
0.00967346
0.00440116
1.14769e-10
0.00803321
0.00491954
9.39565e-11
0.00621044
0.00544978
8.68283e-11
0.00410187
0.00579699
7.67476e-11
0.00203486
0.00604424
3.61679e-11
0.0064788
4.55832e-11
0.0168001
1.73016e-10
-1.79703e-16
0.0168001
9.45028e-10
-5.99606e-16
0.0168001
3.47545e-09
-1.59667e-15
0.0168001
8.88849e-09
-3.14589e-15
0.0168
2.43269e-08
-8.3382e-15
0.0168
5.52539e-08
-1.64293e-14
0.0167999
1.44815e-07
-4.80356e-14
0.0167997
3.14176e-07
-9.05514e-14
0.016799
8.89202e-07
-3.36292e-13
0.0167978
1.6896e-06
-4.57853e-13
0.0167923
6.48216e-06
-2.98454e-12
0.0167885
1.072e-05
-3.3426e-12
0.0167553
5.07319e-05
-2.49516e-11
0.0167018
0.000123478
-5.6303e-11
0.0165878
0.000517736
-2.27507e-10
0.016019
0.00214938
-7.86729e-10
0.0144314
0.00593761
1.01256e-10
0.0128492
0.00567237
1.20568e-10
0.011407
0.00560421
1.17502e-10
0.00992722
0.00590461
1.03959e-10
0.00827848
0.00659314
8.37329e-11
0.00642673
0.00731741
7.26617e-11
0.00426675
0.00779988
6.28871e-11
0.00213518
0.0081392
3.38149e-11
0.00874199
3.25221e-11
0.0168001
2.10724e-10
-2.01335e-16
0.0168001
1.1332e-09
-6.69231e-16
0.0168001
4.26476e-09
-1.81359e-15
0.0168001
1.08869e-08
-3.62415e-15
0.0168
3.06063e-08
-9.56673e-15
0.0168
7.00597e-08
-1.89238e-14
0.0167999
1.87174e-07
-5.26288e-14
0.0167997
4.18613e-07
-1.00829e-13
0.016799
1.11806e-06
-3.18684e-13
0.0167975
2.5038e-06
-5.01872e-13
0.0167939
6.84597e-06
-2.43516e-12
0.0167851
1.6393e-05
-2.8124e-12
0.0167701
4.60989e-05
-1.79726e-11
0.0166969
0.000156826
-3.85088e-11
0.0167517
0.000468768
-1.38916e-10
0.0163568
0.00214565
-3.92361e-10
0.0147659
0.00724849
-2.1618e-10
0.0131269
0.00728541
4.20846e-11
0.0116957
0.00707949
1.0769e-10
0.010245
0.00739305
9.59427e-11
0.0085953
0.00826587
7.66184e-11
0.00673289