/*--------------------------------*- C++ -*----------------------------------*\
| =========                 |                                                 |
| \\      /  F ield         | OpenFOAM: The Open Source CFD Toolbox           |
|  \\    /   O peration     | Version:  4.1                                   |
|   \\  /    A nd           | Web:      www.OpenFOAM.org                      |
|    \\/     M anipulation  |                                                 |
\*---------------------------------------------------------------------------*/
FoamFile
{
    version     2.0;
    format      ascii;
    class       volScalarField;
    location    "1";
    object      T;
}
// * * * * * * * * * * * * * * * * * * * * * * * * * * * * * * * * * * * * * //

dimensions      [0 0 0 1 0 0 0];

internalField   nonuniform List<scalar> 
52500
(
0.999994
1
1.00001
1.00004
1.00008
1.00028
1.00052
1.00163
1.00319
1.00874
1.02129
1.05027
1.15159
1.3562
2.02589
2.70572
2.78498
2.78081
2.77697
2.79281
2.81312
2.81549
2.87593
2.97038
2.75823
0.999994
1
1.00001
1.00004
1.00008
1.00028
1.00051
1.00161
1.00314
1.00867
1.02086
1.04954
1.14841
1.34911
2.00711
2.69467
2.78466
2.78056
2.77586
2.79165
2.81157
2.81382
2.87446
2.96695
2.75263
0.999994
1
1.00001
1.00004
1.00008
1.00027
1.0005
1.00158
1.00305
1.00851
1.02004
1.04808
1.1421
1.33441
1.96633
2.66782
2.78274
2.77874
2.77322
2.78891
2.80828
2.81058
2.87056
2.96386
2.74975
0.999994
1
1.00001
1.00004
1.00008
1.00026
1.00048
1.00154
1.00293
1.00835
1.01901
1.04631
1.13346
1.3154
1.90394
2.63333
2.77841
2.77561
2.76953
2.78467
2.80155
2.80303
2.861
2.95774
2.74709
0.999994
1
1.00001
1.00004
1.00007
1.00025
1.00046
1.00148
1.00278
1.00819
1.01778
1.04475
1.12326
1.29842
1.82114
2.611
2.77744
2.77404
2.76436
2.77569
2.79112
2.79405
2.84749
2.94588
2.74219
0.999994
0.999999
1
1.00003
1.00007
1.00024
1.00044
1.0014
1.00262
1.00767
1.01662
1.04232
1.11633
1.27645
1.75161
2.6108
2.77195
2.76779
2.75335
2.7623
2.77649
2.77878
2.8312
2.93505
2.73711
0.999994
0.999999
1
1.00003
1.00006
1.00022
1.00041
1.00132
1.00245
1.00731
1.01538
1.03989
1.10764
1.25282
1.7115
2.59092
2.75848
2.75076
2.74053
2.74892
2.76349
2.76637
2.80574
2.9141
2.72652
0.999994
0.999998
1
1.00003
1.00006
1.0002
1.00038
1.00122
1.00225
1.00682
1.01403
1.03718
1.09789
1.23095
1.66303
2.54295
2.73557
2.73224
2.72773
2.72965
2.74051
2.74327
2.77448
2.88083
2.70925
0.999994
0.999998
1
1.00002
1.00005
1.00018
1.00034
1.0011
1.00202
1.00621
1.01257
1.03389
1.08794
1.20684
1.60688
2.46808
2.70195
2.72244
2.71876
2.7161
2.72401
2.72432
2.74085
2.8413
2.6714
0.999994
0.999997
1
1.00002
1.00004
1.00015
1.00029
1.00091
1.00176
1.00501
1.01124
1.02821
1.07993
1.17584
1.5569
2.38996
2.66072
2.70498
2.69827
2.69465
2.70074
2.69843
2.69887
2.77548
2.60397
1
1.00001
1.00001
1.00005
1.00009
1.00029
1.00053
1.00164
1.0032
1.00876
1.02131
1.05031
1.15164
1.35641
2.0263
2.70608
2.78505
2.78086
2.77703
2.79288
2.81321
2.81558
2.87602
2.97047
2.75832
1
1.00001
1.00001
1.00005
1.00009
1.00029
1.00052
1.00162
1.00315
1.00868
1.02088
1.04957
1.14845
1.34931
2.00753
2.69503
2.78474
2.78062
2.77593
2.79171
2.81165
2.8139
2.87456
2.96703
2.75271
1
1.00001
1.00001
1.00005
1.00009
1.00028
1.00051
1.00159
1.00306
1.00853
1.02005
1.04812
1.14214
1.33459
1.96675
2.66816
2.78281
2.7788
2.77328
2.78897
2.80836
2.81066
2.87065
2.96394
2.74981
1
1.00001
1.00001
1.00005
1.00008
1.00027
1.00049
1.00155
1.00294
1.00836
1.01902
1.04634
1.1335
1.31554
1.90439
2.63358
2.77848
2.77566
2.76959
2.78475
2.80163
2.80312
2.86109
2.95782
2.74715
1
1.00001
1.00001
1.00004
1.00008
1.00026
1.00047
1.00149
1.00279
1.00821
1.01779
1.04477
1.12329
1.29851
1.8216
2.61103
2.77748
2.7741
2.76443
2.77578
2.79121
2.79413
2.84758
2.94596
2.74224
1
1.00001
1.00001
1.00004
1.00008
1.00025
1.00044
1.0014
1.00263
1.00769
1.01663
1.04234
1.11634
1.27657
1.75171
2.61086
2.77203
2.76788
2.75345
2.7624
2.77658
2.77886
2.83129
2.93513
2.73717
1
1.00001
1.00001
1.00004
1.00007
1.00023
1.00042
1.00133
1.00245
1.00733
1.01539
1.03991
1.10767
1.25288
1.71161
2.59103
2.75859
2.75089
2.7406
2.749
2.76357
2.76645
2.80582
2.91417
2.72658
1
1.00001
1.00001
1.00004
1.00007
1.00021
1.00038
1.00123
1.00226
1.00683
1.01404
1.0372
1.09792
1.23101
1.66313
2.5431
2.73568
2.73233
2.72781
2.72973
2.74059
2.74334
2.77455
2.8809
2.7093
1
1.00001
1.00001
1.00003
1.00006
1.00019
1.00035
1.00111
1.00203
1.00622
1.01258
1.03391
1.08796
1.2069
1.60694
2.46825
2.70205
2.72251
2.71884
2.71618
2.72409
2.72439
2.74091
2.84136
2.67145
1
1
1.00001
1.00003
1.00005
1.00016
1.0003
1.00092
1.00177
1.00503
1.01125
1.02824
1.07995
1.1759
1.55696
2.39013
2.66082
2.70505
2.69835
2.69473
2.70082
2.6985
2.69894
2.77554
2.60402
1
1.00001
1.00001
1.00005
1.00009
1.00029
1.00053
1.00164
1.0032
1.00876
1.02131
1.05031
1.15164
1.35642
2.02632
2.70609
2.78505
2.78086
2.77703
2.79288
2.81321
2.81558
2.87601
2.97049
2.75834
1
1.00001
1.00001
1.00005
1.00009
1.00029
1.00052
1.00162
1.00315
1.00868
1.02088
1.04957
1.14846
1.34932
2.00754
2.69505
2.78474
2.78062
2.77593
2.79171
2.81166
2.8139
2.87455
2.96705
2.75274
1
1.00001
1.00001
1.00005
1.00009
1.00028
1.00051
1.00159
1.00306
1.00853
1.02005
1.04812
1.14215
1.33459
1.96677
2.66817
2.78281
2.7788
2.77328
2.78897
2.80836
2.81066
2.87064
2.96396
2.74986
1
1.00001
1.00001
1.00005
1.00008
1.00027
1.00049
1.00155
1.00294
1.00836
1.01902
1.04634
1.13351
1.31554
1.90441
2.63358
2.77848
2.77566
2.76959
2.78475
2.80164
2.80312
2.86108
2.95784
2.7472
1
1.00001
1.00001
1.00004
1.00008
1.00026
1.00047
1.00149
1.00279
1.00821
1.01779
1.04478
1.12329
1.29851
1.82162
2.61103
2.77748
2.7741
2.76443
2.77578
2.79121
2.79413
2.84757
2.94598
2.74229
1
1.00001
1.00001
1.00004
1.00008
1.00025
1.00044
1.0014
1.00263
1.00769
1.01663
1.04234
1.11634
1.27657
1.75171
2.61086
2.77203
2.76788
2.75345
2.7624
2.77658
2.77886
2.83128
2.93515
2.73721
1
1.00001
1.00001
1.00004
1.00007
1.00023
1.00042
1.00133
1.00245
1.00733
1.01539
1.03991
1.10767
1.25288
1.71162
2.59103
2.75859
2.75089
2.7406
2.749
2.76357
2.76646
2.80582
2.91419
2.72662
1
1.00001
1.00001
1.00004
1.00007
1.00021
1.00038
1.00123
1.00226
1.00683
1.01404
1.0372
1.09792
1.23101
1.66314
2.54311
2.73568
2.73234
2.72781
2.72974
2.74059
2.74334
2.77454
2.88091
2.70934
1
1.00001
1.00001
1.00003
1.00006
1.00019
1.00035
1.00111
1.00203
1.00622
1.01258
1.03391
1.08796
1.20691
1.60694
2.46826
2.70205
2.72251
2.71884
2.71618
2.72409
2.72439
2.7409
2.84137
2.67149
1
1
1.00001
1.00003
1.00005
1.00016
1.0003
1.00092
1.00177
1.00503
1.01125
1.02824
1.07995
1.1759
1.55697
2.39013
2.66083
2.70505
2.69835
2.69473
2.70083
2.69851
2.69894
2.77554
2.60405
1
1.00001
1.00001
1.00005
1.00009
1.00029
1.00053
1.00164
1.0032
1.00876
1.02131
1.05031
1.15164
1.35642
2.02632
2.7061
2.78505
2.78086
2.77703
2.79288
2.81321
2.81557
2.87601
2.9705
2.75835
1
1.00001
1.00001
1.00005
1.00009
1.00029
1.00052
1.00162
1.00315
1.00868
1.02088
1.04957
1.14846
1.34932
2.00754
2.69505
2.78474
2.78062
2.77593
2.79171
2.81166
2.8139
2.87454
2.96706
2.75275
1
1.00001
1.00001
1.00005
1.00009
1.00028
1.00051
1.00159
1.00306
1.00853
1.02005
1.04812
1.14215
1.33459
1.96677
2.66817
2.78281
2.7788
2.77328
2.78897
2.80836
2.81066
2.87064
2.96397
2.74986
1
1.00001
1.00001
1.00005
1.00008
1.00027
1.00049
1.00155
1.00294
1.00836
1.01902
1.04634
1.13351
1.31554
1.90441
2.63358
2.77848
2.77566
2.76959
2.78475
2.80164
2.80311
2.86108
2.95785
2.7472
1
1.00001
1.00001
1.00004
1.00008
1.00026
1.00047
1.00149
1.00279
1.00821
1.01779
1.04478
1.12329
1.29851
1.82162
2.61103
2.77748
2.7741
2.76444
2.77578
2.79121
2.79413
2.84756
2.94598
2.74229
1
1.00001
1.00001
1.00004
1.00008
1.00025
1.00044
1.0014
1.00263
1.00769
1.01663
1.04234
1.11634
1.27657
1.75172
2.61086
2.77203
2.76788
2.75345
2.7624
2.77658
2.77886
2.83127
2.93515
2.73721
1
1.00001
1.00001
1.00004
1.00007
1.00023
1.00042
1.00133
1.00245
1.00733
1.01539
1.03991
1.10767
1.25288
1.71162
2.59103
2.75859
2.75089
2.7406
2.749
2.76357
2.76645
2.80581
2.91419
2.72662
1
1.00001
1.00001
1.00004
1.00007
1.00021
1.00038
1.00123
1.00226
1.00683
1.01404
1.0372
1.09792
1.23101
1.66314
2.54311
2.73568
2.73234
2.72781
2.72974
2.74059
2.74334
2.77454
2.88091
2.70934
1
1.00001
1.00001
1.00003
1.00006
1.00019
1.00035
1.00111
1.00203
1.00622
1.01258
1.03391
1.08796
1.20691
1.60694
2.46826
2.70205
2.72251
2.71884
2.71618
2.72409
2.72439
2.7409
2.84137
2.67148
1
1
1.00001
1.00003
1.00005
1.00016
1.0003
1.00092
1.00177
1.00503
1.01125
1.02824
1.07995
1.1759
1.55697
2.39013
2.66083
2.70505
2.69835
2.69473
2.70083
2.69851
2.69893
2.77554
2.60404
1
1.00001
1.00001
1.00005
1.00009
1.00029
1.00053
1.00164
1.0032
1.00876
1.02131
1.05031
1.15165
1.35643
2.02634
2.70611
2.78505
2.78086
2.77703
2.79288
2.81321
2.81558
2.87601
2.97049
2.75833
1
1.00001
1.00001
1.00005
1.00009
1.00029
1.00052
1.00162
1.00315
1.00868
1.02088
1.04957
1.14846
1.34933
2.00756
2.69506
2.78474
2.78062
2.77593
2.79171
2.81166
2.8139
2.87455
2.96705
2.75273
1
1.00001
1.00001
1.00005
1.00009
1.00028
1.00051
1.00159
1.00306
1.00853
1.02005
1.04812
1.14215
1.3346
1.96679
2.66819
2.78281
2.7788
2.77328
2.78897
2.80837
2.81067
2.87064
2.96396
2.74985
1
1.00001
1.00001
1.00005
1.00008
1.00027
1.00049
1.00155
1.00294
1.00836
1.01902
1.04634
1.13351
1.31555
1.90443
2.63359
2.77848
2.77566
2.76959
2.78475
2.80164
2.80312
2.86108
2.95784
2.74719
1
1.00001
1.00001
1.00004
1.00008
1.00026
1.00047
1.00149
1.00279
1.00821
1.01779
1.04478
1.1233
1.29851
1.82164
2.61103
2.77748
2.7741
2.76443
2.77578
2.79121
2.79414
2.84757
2.94598
2.74228
1
1.00001
1.00001
1.00004
1.00008
1.00025
1.00044
1.0014
1.00263
1.00769
1.01663
1.04235
1.11634
1.27658
1.75172
2.61086
2.77203
2.76788
2.75345
2.7624
2.77658
2.77887
2.83128
2.93515
2.73721
1
1.00001
1.00001
1.00004
1.00007
1.00023
1.00042
1.00133
1.00245
1.00733
1.01539
1.03991
1.10767
1.25288
1.71162
2.59103
2.75859
2.7509
2.7406
2.749
2.76358
2.76646
2.80582
2.91419
2.72661
1
1.00001
1.00001
1.00004
1.00007
1.00021
1.00038
1.00123
1.00226
1.00683
1.01404
1.0372
1.09792
1.23101
1.66314
2.54311
2.73568
2.73234
2.72781
2.72974
2.74059
2.74334
2.77454
2.88091
2.70934
1
1.00001
1.00001
1.00003
1.00006
1.00019
1.00035
1.00111
1.00203
1.00622
1.01258
1.03391
1.08796
1.20691
1.60695
2.46827
2.70205
2.72251
2.71884
2.71618
2.72409
2.72439
2.74091
2.84137
2.67148
1
1
1.00001
1.00003
1.00005
1.00016
1.0003
1.00092
1.00177
1.00503
1.01125
1.02824
1.07995
1.17591
1.55697
2.39014
2.66083
2.70505
2.69835
2.69473
2.70083
2.69851
2.69894
2.77554
2.60404
1
1.00001
1.00001
1.00005
1.00009
1.00029
1.00053
1.00164
1.0032
1.00876
1.02131
1.05031
1.15165
1.35642
2.02633
2.7061
2.78505
2.78086
2.77703
2.79288
2.81321
2.81558
2.87601
2.97049
2.75834
1
1.00001
1.00001
1.00005
1.00009
1.00029
1.00052
1.00162
1.00315
1.00868
1.02088
1.04957
1.14846
1.34932
2.00755
2.69505
2.78474
2.78062
2.77593
2.79171
2.81166
2.8139
2.87455
2.96705
2.75274
1
1.00001
1.00001
1.00005
1.00009
1.00028
1.00051
1.00159
1.00306
1.00853
1.02005
1.04812
1.14215
1.3346
1.96678
2.66818
2.78281
2.7788
2.77328
2.78897
2.80837
2.81066
2.87064
2.96397
2.74985
1
1.00001
1.00001
1.00005
1.00008
1.00027
1.00049
1.00155
1.00294
1.00836
1.01902
1.04634
1.13351
1.31555
1.90442
2.63359
2.77848
2.77566
2.76959
2.78475
2.80164
2.80312
2.86108
2.95785
2.7472
1
1.00001
1.00001
1.00004
1.00008
1.00026
1.00047
1.00149
1.00279
1.00821
1.01779
1.04478
1.1233
1.29851
1.82163
2.61103
2.77748
2.7741
2.76443
2.77578
2.79121
2.79414
2.84757
2.94598
2.74228
1
1.00001
1.00001
1.00004
1.00008
1.00025
1.00044
1.0014
1.00263
1.00769
1.01663
1.04235
1.11634
1.27657
1.75172
2.61086
2.77203
2.76788
2.75345
2.7624
2.77658
2.77887
2.83128
2.93515
2.73721
1
1.00001
1.00001
1.00004
1.00007
1.00023
1.00042
1.00133
1.00245
1.00733
1.01539
1.03991
1.10767
1.25288
1.71162
2.59103
2.75859
2.75089
2.7406
2.749
2.76357
2.76646
2.80582
2.91419
2.72662
1
1.00001
1.00001
1.00004
1.00007
1.00021
1.00038
1.00123
1.00226
1.00683
1.01404
1.0372
1.09792
1.23101
1.66314
2.54311
2.73568
2.73234
2.72781
2.72974
2.74059
2.74334
2.77454
2.88091
2.70934
1
1.00001
1.00001
1.00003
1.00006
1.00019
1.00035
1.00111
1.00203
1.00622
1.01258
1.03391
1.08796
1.20691
1.60694
2.46826
2.70205
2.72251
2.71884
2.71618
2.72409
2.72439
2.74091
2.84137
2.67148
1
1
1.00001
1.00003
1.00005
1.00016
1.0003
1.00092
1.00177
1.00503
1.01125
1.02824
1.07995
1.17591
1.55697
2.39014
2.66083
2.70505
2.69835
2.69473
2.70083
2.69851
2.69894
2.77555
2.60404
1
1.00001
1.00001
1.00005
1.00009
1.00029
1.00053
1.00164
1.0032
1.00876
1.02131
1.05031
1.15164
1.35642
2.02632
2.7061
2.78505
2.78086
2.77703
2.79288
2.81321
2.81557
2.87601
2.9705
2.75835
1
1.00001
1.00001
1.00005
1.00009
1.00029
1.00052
1.00162
1.00315
1.00868
1.02088
1.04957
1.14846
1.34932
2.00754
2.69505
2.78474
2.78062
2.77593
2.79171
2.81166
2.8139
2.87454
2.96706
2.75275
1
1.00001
1.00001
1.00005
1.00009
1.00028
1.00051
1.00159
1.00306
1.00853
1.02005
1.04812
1.14215
1.33459
1.96677
2.66817
2.78281
2.7788
2.77328
2.78897
2.80836
2.81066
2.87064
2.96397
2.74986
1
1.00001
1.00001
1.00005
1.00008
1.00027
1.00049
1.00155
1.00294
1.00836
1.01902
1.04634
1.13351
1.31554
1.90441
2.63358
2.77848
2.77566
2.76959
2.78475
2.80164
2.80311
2.86108
2.95785
2.7472
1
1.00001
1.00001
1.00004
1.00008
1.00026
1.00047
1.00149
1.00279
1.00821
1.01779
1.04478
1.12329
1.29851
1.82162
2.61103
2.77748
2.7741
2.76444
2.77578
2.79121
2.79413
2.84756
2.94598
2.74229
1
1.00001
1.00001
1.00004
1.00008
1.00025
1.00044
1.0014
1.00263
1.00769
1.01663
1.04234
1.11634
1.27657
1.75172
2.61086
2.77203
2.76788
2.75345
2.7624
2.77658
2.77886
2.83127
2.93515
2.73721
1
1.00001
1.00001
1.00004
1.00007
1.00023
1.00042
1.00133
1.00245
1.00733
1.01539
1.03991
1.10767
1.25288
1.71162
2.59103
2.75859
2.75089
2.7406
2.749
2.76357
2.76645
2.80581
2.91419
2.72662
1
1.00001
1.00001
1.00004
1.00007
1.00021
1.00038
1.00123
1.00226
1.00683
1.01404
1.0372
1.09792
1.23101
1.66314
2.54311
2.73568
2.73234
2.72781
2.72974
2.74059
2.74334
2.77454
2.88091
2.70934
1
1.00001
1.00001
1.00003
1.00006
1.00019
1.00035
1.00111
1.00203
1.00622
1.01258
1.03391
1.08796
1.20691
1.60694
2.46826
2.70205
2.72251
2.71884
2.71618
2.72409
2.72439
2.7409
2.84137
2.67148
1
1
1.00001
1.00003
1.00005
1.00016
1.0003
1.00092
1.00177
1.00503
1.01125
1.02824
1.07995
1.1759
1.55697
2.39013
2.66083
2.70505
2.69835
2.69473
2.70083
2.69851
2.69893
2.77554
2.60404
1
1.00001
1.00001
1.00005
1.00009
1.00029
1.00053
1.00164
1.0032
1.00876
1.02131
1.05031
1.15164
1.35642
2.02632
2.70609
2.78505
2.78086
2.77703
2.79288
2.81321
2.81558
2.87601
2.97049
2.75834
1
1.00001
1.00001
1.00005
1.00009
1.00029
1.00052
1.00162
1.00315
1.00868
1.02088
1.04957
1.14846
1.34932
2.00754
2.69505
2.78474
2.78062
2.77593
2.79171
2.81166
2.8139
2.87455
2.96705
2.75274
1
1.00001
1.00001
1.00005
1.00009
1.00028
1.00051
1.00159
1.00306
1.00853
1.02005
1.04812
1.14215
1.33459
1.96677
2.66817
2.78281
2.7788
2.77328
2.78897
2.80836
2.81066
2.87064
2.96396
2.74986
1
1.00001
1.00001
1.00005
1.00008
1.00027
1.00049
1.00155
1.00294
1.00836
1.01902
1.04634
1.13351
1.31554
1.90441
2.63358
2.77848
2.77566
2.76959
2.78475
2.80164
2.80312
2.86108
2.95784
2.7472
1
1.00001
1.00001
1.00004
1.00008
1.00026
1.00047
1.00149
1.00279
1.00821
1.01779
1.04478
1.12329
1.29851
1.82162
2.61103
2.77748
2.7741
2.76443
2.77578
2.79121
2.79413
2.84757
2.94598
2.74229
1
1.00001
1.00001
1.00004
1.00008
1.00025
1.00044
1.0014
1.00263
1.00769
1.01663
1.04234
1.11634
1.27657
1.75171
2.61086
2.77203
2.76788
2.75345
2.7624
2.77658
2.77886
2.83128
2.93515
2.73721
1
1.00001
1.00001
1.00004
1.00007
1.00023
1.00042
1.00133
1.00245
1.00733
1.01539
1.03991
1.10767
1.25288
1.71162
2.59103
2.75859
2.75089
2.7406
2.749
2.76357
2.76646
2.80582
2.91419
2.72662
1
1.00001
1.00001
1.00004
1.00007
1.00021
1.00038
1.00123
1.00226
1.00683
1.01404
1.0372
1.09792
1.23101
1.66314
2.54311
2.73568
2.73234
2.72781
2.72974
2.74059
2.74334
2.77454
2.88091
2.70934
1
1.00001
1.00001
1.00003
1.00006
1.00019
1.00035
1.00111
1.00203
1.00622
1.01258
1.03391
1.08796
1.20691
1.60694
2.46826
2.70205
2.72251
2.71884
2.71618
2.72409
2.72439
2.7409
2.84137
2.67149
1
1
1.00001
1.00003
1.00005
1.00016
1.0003
1.00092
1.00177
1.00503
1.01125
1.02824
1.07995
1.1759
1.55697
2.39013
2.66083
2.70505
2.69835
2.69473
2.70083
2.69851
2.69894
2.77554
2.60405
1
1.00001
1.00001
1.00005
1.00009
1.00029
1.00053
1.00164
1.0032
1.00876
1.02131
1.05031
1.15164
1.35641
2.0263
2.70608
2.78505
2.78086
2.77703
2.79288
2.81321
2.81558
2.87602
2.97047
2.75832
1
1.00001
1.00001
1.00005
1.00009
1.00029
1.00052
1.00162
1.00315
1.00868
1.02088
1.04957
1.14845
1.34931
2.00753
2.69503
2.78474
2.78062
2.77593
2.79171
2.81165
2.8139
2.87456
2.96703
2.75271
1
1.00001
1.00001
1.00005
1.00009
1.00028
1.00051
1.00159
1.00306
1.00853
1.02005
1.04812
1.14214
1.33459
1.96675
2.66816
2.78281
2.7788
2.77328
2.78897
2.80836
2.81066
2.87065
2.96394
2.74981
1
1.00001
1.00001
1.00005
1.00008
1.00027
1.00049
1.00155
1.00294
1.00836
1.01902
1.04634
1.1335
1.31554
1.90439
2.63358
2.77848
2.77566
2.76959
2.78475
2.80163
2.80312
2.86109
2.95782
2.74715
1
1.00001
1.00001
1.00004
1.00008
1.00026
1.00047
1.00149
1.00279
1.00821
1.01779
1.04477
1.12329
1.29851
1.8216
2.61103
2.77748
2.7741
2.76443
2.77578
2.79121
2.79413
2.84758
2.94596
2.74224
1
1.00001
1.00001
1.00004
1.00008
1.00025
1.00044
1.0014
1.00263
1.00769
1.01663
1.04234
1.11634
1.27657
1.75171
2.61086
2.77203
2.76788
2.75345
2.7624
2.77658
2.77886
2.83129
2.93513
2.73717
1
1.00001
1.00001
1.00004
1.00007
1.00023
1.00042
1.00133
1.00245
1.00733
1.01539
1.03991
1.10767
1.25288
1.71161
2.59103
2.75859
2.75089
2.7406
2.749
2.76357
2.76645
2.80582
2.91417
2.72658
1
1.00001
1.00001
1.00004
1.00007
1.00021
1.00038
1.00123
1.00226
1.00683
1.01404
1.0372
1.09792
1.23101
1.66313
2.5431
2.73568
2.73233
2.72781
2.72973
2.74059
2.74334
2.77455
2.8809
2.7093
1
1.00001
1.00001
1.00003
1.00006
1.00019
1.00035
1.00111
1.00203
1.00622
1.01258
1.03391
1.08796
1.2069
1.60694
2.46825
2.70205
2.72251
2.71884
2.71618
2.72409
2.72439
2.74091
2.84136
2.67145
1
1
1.00001
1.00003
1.00005
1.00016
1.0003
1.00092
1.00177
1.00503
1.01125
1.02824
1.07995
1.1759
1.55696
2.39013
2.66082
2.70505
2.69835
2.69473
2.70082
2.6985
2.69894
2.77554
2.60402
0.999994
1
1.00001
1.00004
1.00008
1.00028
1.00052
1.00163
1.00319
1.00874
1.02129
1.05027
1.15159
1.3562
2.02588
2.70572
2.78498
2.78081
2.77697
2.79281
2.81312
2.81549
2.87592
2.9704
2.75825
0.999994
1
1.00001
1.00004
1.00008
1.00028
1.00051
1.00161
1.00314
1.00867
1.02086
1.04954
1.14841
1.34911
2.00711
2.69467
2.78466
2.78056
2.77586
2.79165
2.81157
2.81381
2.87446
2.96697
2.75265
0.999994
1
1.00001
1.00004
1.00008
1.00027
1.0005
1.00158
1.00305
1.00851
1.02004
1.04808
1.1421
1.3344
1.96632
2.66781
2.78274
2.77874
2.77322
2.78891
2.80828
2.81058
2.87055
2.96388
2.74977
0.999994
1
1.00001
1.00004
1.00008
1.00026
1.00048
1.00154
1.00293
1.00835
1.01901
1.04631
1.13346
1.3154
1.90394
2.63333
2.77841
2.77561
2.76953
2.78467
2.80155
2.80303
2.86099
2.95776
2.74711
0.999994
1
1.00001
1.00004
1.00007
1.00025
1.00046
1.00148
1.00278
1.00819
1.01778
1.04475
1.12326
1.29842
1.82114
2.611
2.77744
2.77404
2.76436
2.77569
2.79112
2.79405
2.84748
2.9459
2.7422
0.999994
0.999999
1
1.00003
1.00007
1.00024
1.00044
1.0014
1.00262
1.00767
1.01662
1.04232
1.11633
1.27645
1.75161
2.6108
2.77195
2.76779
2.75335
2.7623
2.77649
2.77878
2.8312
2.93507
2.73713
0.999994
0.999999
1
1.00003
1.00006
1.00022
1.00041
1.00132
1.00245
1.00731
1.01538
1.03989
1.10764
1.25282
1.7115
2.59092
2.75848
2.75076
2.74053
2.74892
2.76348
2.76637
2.80574
2.91411
2.72654
0.999994
0.999998
1
1.00003
1.00006
1.0002
1.00038
1.00122
1.00225
1.00682
1.01403
1.03718
1.09789
1.23095
1.66302
2.54295
2.73557
2.73224
2.72773
2.72965
2.74051
2.74326
2.77448
2.88083
2.70926
0.999994
0.999998
1
1.00002
1.00005
1.00018
1.00034
1.0011
1.00202
1.00621
1.01257
1.03389
1.08794
1.20684
1.60688
2.46808
2.70195
2.72244
2.71877
2.7161
2.72401
2.72432
2.74085
2.84131
2.67141
0.999994
0.999997
1
1.00002
1.00004
1.00015
1.00029
1.00091
1.00176
1.00501
1.01124
1.02821
1.07993
1.17584
1.5569
2.38996
2.66072
2.70498
2.69827
2.69465
2.70074
2.69843
2.69887
2.77548
2.60398
0.999994
0.999995
1
1.00001
1.00005
1.00009
1.00031
1.00061
1.00169
1.0039
1.00947
1.02659
1.0579
1.18538
1.4276
2.17302
2.62507
2.69914
2.68388
2.66645
2.66644
2.65952
2.64077
2.67709
2.41073
0.999994
0.999995
1
1.00001
1.00004
1.00008
1.00028
1.00052
1.00164
1.0032
1.00879
1.02122
1.05016
1.15013
1.34915
1.99152
2.54078
2.68281
2.67151
2.64922
2.64229
2.6296
2.57764
2.56968
2.38517
0.999993
0.999994
0.999999
1
1.00003
1.00007
1.00024
1.00043
1.0014
1.0026
1.00783
1.01635
1.0424
1.11197
1.27332
1.73123
2.42351
2.63501
2.63341
2.62261
2.60582
2.58888
2.53789
2.49722
2.37643
0.999993
0.999993
0.999997
1
1.00003
1.00005
1.00019
1.00035
1.00115
1.00211
1.00654
1.01307
1.03547
1.08981
1.21608
1.6087
2.38908
2.60365
2.60106
2.5925
2.57298
2.55346
2.49259
2.45726
2.37152
0.999992
0.999993
0.999996
1
1.00002
1.00004
1.00015
1.00027
1.00087
1.00167
1.00474
1.01062
1.02643
1.07457
1.16279
1.51731
2.27521
2.54092
2.58234
2.56957
2.54327
2.52071
2.47207
2.39136
2.35017
0.999992
0.999993
0.999994
1
1.00001
1.00004
1.00008
1.00027
1.00052
1.00147
1.00331
1.00813
1.02243
1.04947
1.15374
1.35148
1.99173
2.45881
2.56518
2.55351
2.53051
2.4944
2.4558
2.37723
2.29914
0.999992
0.999992
0.999993
0.999998
1
1.00003
1.00006
1.00022
1.00041
1.00133
1.00244
1.00743
1.0152
1.03978
1.10248
1.2509
1.67557
2.28856
2.50682
2.51125
2.50224
2.47655
2.44338
2.37895
2.29239
0.999991
0.999992
0.999993
0.999996
1
1.00002
1.00004
1.00016
1.0003
1.00095
1.00181
1.00528
1.01136
1.0291
1.07953
1.17644
1.5339
2.22674
2.45827
2.47777
2.46457
2.43744
2.40908
2.3712
2.29741
0.999991
0.999991
0.999992
0.999994
1
1.00001
1.00004
1.00008
1.00027
1.00054
1.00151
1.00338
1.00831
1.02275
1.05028
1.15496
1.35317
1.98277
2.37141
2.45465
2.44632
2.4246
2.3762
2.34951
2.29624
0.999991
0.999991
0.999992
0.999993
0.999997
1
1.00003
1.00006
1.00021
1.00039
1.00126
1.00235
1.00711
1.01444
1.03833
1.09479
1.23811
1.60348
2.22427
2.4105
2.40787
2.39492
2.36633
2.31887
2.28627
0.999991
0.999991
0.999991
0.999993
0.999994
1
1.00001
1.00005
1.00011
1.00036
1.00067
1.00205
1.00406
1.01125
1.02623
1.06417
1.17582
1.45144
2.0269
2.34991
2.37877
2.36425
2.34582
2.2996
2.26352
0.999991
0.999991
0.999991
0.999992
0.999993
0.999999
1.00001
1.00004
1.00007
1.00025
1.00047
1.00148
1.00281
1.00811
1.01782
1.0444
1.12093
1.29054
1.73473
2.21304
2.34577
2.341
2.32247
2.29222
2.2391
0.999991
0.999991
0.999991
0.999991
0.999993
0.999995
1
1.00001
1.00006
1.00013
1.00042
1.00079
1.0024
1.00469
1.01342
1.02885
1.07763
1.18219
1.56383
2.00329
2.27565
2.3056
2.2965
2.27722
2.23529
0.999991
0.999991
0.999991
0.999991
0.999992
0.999994
0.999999
1.00001
1.00004
1.00008
1.00028
1.00051
1.00162
1.00305
1.00899
1.01911
1.04777
1.1273
1.30901
1.77363
2.14365
2.25985
2.26144
2.25166
2.22874
0.999991
0.999991
0.999991
0.999991
0.999991
0.999993
0.999995
1
1.00002
1.00007
1.00013
1.00043
1.00082
1.00245
1.00484
1.01358
1.02941
1.0781
1.18301
1.55425
1.95567
2.19093
2.22415
2.22106
2.20787
0.999991
0.999991
0.999991
0.999991
0.999991
0.999992
0.999994
0.999999
1.00001
1.00004
1.00008
1.00028
1.00051
1.0016
1.003
1.00887
1.01842
1.04767
1.11941
1.30393
1.72407
2.0854
2.17985
2.18798
2.18035
0.999991
0.999991
0.999991
0.999991
0.999991
0.999991
0.999993
0.999995
1
1.00001
1.00006
1.00013
1.00041
1.00077
1.00231
1.00456
1.01276
1.02738
1.07298
1.1686
1.50657
1.89036
2.11915
2.14402
2.14793
0.999991
0.999991
0.999991
0.999991
0.999991
0.999991
0.999992
0.999993
0.999999
1.00001
1.00004
1.00007
1.00025
1.00046
1.00143
1.00271
1.00789
1.01649
1.04306
1.10466
1.27251
1.62081
2.00966
2.11393
2.11822
0.999991
0.999991
0.999991
0.999991
0.999991
0.999991
0.999991
0.999993
0.999994
1
1.00001
1.00005
1.00011
1.00035
1.00068
1.00201
1.00398
1.01118
1.02364
1.06428
1.14342
1.44552
1.78966
2.03278
2.07824
0.999991
0.999991
0.999991
0.999991
0.999991
0.999991
0.999991
0.999992
0.999993
0.999996
1.00001
1.00002
1.00008
1.00016
1.00049
1.00093
1.00275
1.00548
1.01477
1.03405
1.08137
1.21184
1.55796
1.89871
2.03495
0.999991
0.999991
0.999991
0.999991
0.999991
0.999991
0.999991
0.999991
0.999992
0.999994
1
1.00001
1.00004
1.00009
1.00029
1.00054
1.00165
1.00314
1.00897
1.01892
1.04862
1.11671
1.30934
1.67028
1.9559
0.999991
0.999991
0.999991
0.999991
0.999991
0.999991
0.999991
0.999991
0.999991
0.999993
0.999995
1
1.00001
1.00006
1.00012
1.00038
1.00073
1.00215
1.00426
1.01178
1.02503
1.06626
1.15027
1.4421
1.7671
0.999991
0.999991
0.999991
0.999991
0.999991
0.999991
0.999991
0.999991
0.999991
0.999992
0.999993
0.999998
1
1.00003
1.00006
1.00022
1.0004
1.00124
1.00229
1.00683
1.01344
1.03651
1.08317
1.21355
1.50539
0.999991
0.999991
0.999991
0.999991
0.999991
0.999991
0.999991
0.999991
0.999991
0.999991
0.999992
0.999995
0.999998
1.00001
1.00003
1.00011
1.00021
1.00067
1.00124
1.00368
1.00734
1.01919
1.04757
1.10461
1.29513
0.999991
0.999991
0.999991
0.999991
0.999991
0.999991
0.999991
0.999991
0.999991
0.999991
0.999991
0.999993
0.999995
1
1.00001
1.00006
1.00011
1.00036
1.00068
1.00205
1.00389
1.01118
1.02271
1.06118
1.13576
0.999991
0.999991
0.999991
0.999991
0.999991
0.999991
0.999991
0.999991
0.999991
0.999991
0.999991
0.999992
0.999993
0.999996
1.00001
1.00002
1.00007
1.00014
1.00043
1.00083
1.00241
1.00483
1.01275
1.02935
1.06905
0.999991
0.999991
0.999991
0.999991
0.999991
0.999991
0.999991
0.999991
0.999991
0.999991
0.999991
0.999991
0.999992
0.999994
0.999997
1.00001
1.00002
1.00009
1.00018
1.00054
1.00103
1.00297
1.00605
1.01545
1.03828
0.999991
0.999991
0.999991
0.999991
0.999991
0.999991
0.999991
0.999991
0.999991
0.999991
0.999991
0.999991
0.999991
0.999992
0.999995
0.999998
1.00001
1.00003
1.00011
1.00021
1.00065
1.00124
1.00353
1.0073
1.01858
0.999991
0.999991
0.999991
0.999991
0.999991
0.999991
0.999991
0.999991
0.999991
0.999991
0.999991
0.999991
0.999991
0.999991
0.999993
0.999994
1
1.00001
1.00005
1.0001
1.00034
1.00063
1.00189
1.00358
1.01023
0.999991
0.999991
0.999991
0.999991
0.999991
0.999991
0.999991
0.999991
0.999991
0.999991
0.999991
0.999991
0.999991
0.999991
0.999991
0.999993
0.999995
1
1.00001
1.00006
1.00012
1.00037
1.00072
1.00205
1.00414
0.999991
0.999991
0.999991
0.999991
0.999991
0.999991
0.999991
0.999991
0.999991
0.999991
0.999991
0.999991
0.999991
0.999991
0.999991
0.999992
0.999993
0.999995
1
1.00002
1.00007
1.00014
1.00042
1.00081
1.00231
0.999991
0.999991
0.999991
0.999991
0.999991
0.999991
0.999991
0.999991
0.999991
0.999991
0.999991
0.999991
0.999991
0.999991
0.999991
0.999991
0.999992
0.999994
0.999996
1.00001
1.00002
1.00008
1.00015
1.00047
1.00089
0.999991
0.999991
0.999991
0.999991
0.999991
0.999991
0.999991
0.999991
0.999991
0.999991
0.999991
0.999991
0.999991
0.999991
0.999991
0.999991
0.999991
0.999992
0.999993
0.999998
1
1.00003
1.00007
1.00022
1.00041
0.999991
0.999991
0.999991
0.999991
0.999991
0.999991
0.999991
0.999991
0.999991
0.999991
0.999991
0.999991
0.999991
0.999991
0.999991
0.999991
0.999991
0.999991
0.999992
0.999993
0.999998
1
1.00003
1.00007
1.00022
0.999991
0.999991
0.999991
0.999991
0.999991
0.999991
0.999991
0.999991
0.999991
0.999991
0.999991
0.999991
0.999991
0.999991
0.999991
0.999991
0.999991
0.999991
0.999991
0.999992
0.999993
0.999999
1.00001
1.00003
1.00007
0.999991
0.999991
0.999991
0.999991
0.999991
0.999991
0.999991
0.999991
0.999991
0.999991
0.999991
0.999991
0.999991
0.999991
0.999991
0.999991
0.999991
0.999991
0.999991
0.999991
0.999992
0.999993
0.999999
1.00001
1.00004
0.999991
0.999991
0.999991
0.999991
0.999991
0.999991
0.999991
0.999991
0.999991
0.999991
0.999991
0.999991
0.999991
0.999991
0.999991
0.999991
0.999991
0.999991
0.999991
0.999991
0.999991
0.999992
0.999993
0.999999
1.00001
0.999991
0.999991
0.999991
0.999991
0.999991
0.999991
0.999991
0.999991
0.999991
0.999991
0.999991
0.999991
0.999991
0.999991
0.999991
0.999991
0.999991
0.999991
0.999991
0.999991
0.999991
0.999991
0.999992
0.999994
0.999997
0.999991
0.999991
0.999991
0.999991
0.999991
0.999991
0.999991
0.999991
0.999991
0.999991
0.999991
0.999991
0.999991
0.999991
0.999991
0.999991
0.999991
0.999991
0.999991
0.999991
0.999991
0.999991
0.999991
0.999992
0.999994
0.999991
0.999991
0.999991
0.999991
0.999991
0.999991
0.999991
0.999991
0.999991
0.999991
0.999991
0.999991
0.999991
0.999991
0.999991
0.999991
0.999991
0.999991
0.999991
0.999991
0.999991
0.999991
0.999991
0.999991
0.999993
1
1
1.00001
1.00002
1.00006
1.0001
1.00032
1.00062
1.0017
1.00391
1.00948
1.02661
1.05792
1.18542
1.4277
2.17317
2.62517
2.6992
2.68395
2.66652
2.66651
2.65958
2.64083
2.67713
2.41077
1
1
1.00001
1.00002
1.00005
1.00009
1.00029
1.00053
1.00165
1.00321
1.00881
1.02123
1.05019
1.15016
1.34923
1.99172
2.54093
2.68289
2.67158
2.64928
2.64234
2.62965
2.57768
2.56972
2.38521
1
1
1.00001
1.00001
1.00004
1.00008
1.00025
1.00044
1.00141
1.00261
1.00785
1.01637
1.04242
1.11199
1.2734
1.73154
2.42346
2.63505
2.63349
2.6227
2.60589
2.58893
2.53792
2.49724
2.37644
1
1
1.00001
1.00001
1.00003
1.00006
1.0002
1.00036
1.00116
1.00212
1.00655
1.01308
1.03549
1.08983
1.21613
1.60879
2.38915
2.60372
2.60113
2.59257
2.57304
2.55351
2.49263
2.45729
2.37154
1
1
1
1.00001
1.00003
1.00005
1.00015
1.00028
1.00088
1.00168
1.00475
1.01063
1.02645
1.07459
1.16284
1.51736
2.27536
2.54099
2.58239
2.56963
2.54331
2.52076
2.47212
2.3914
2.3502
1
1
1
1.00001
1.00002
1.00005
1.00009
1.00027
1.00053
1.00148
1.00332
1.00815
1.02244
1.0495
1.15377
1.35156
1.99182
2.45895
2.56525
2.55356
2.53056
2.49444
2.45583
2.37726
2.29917
1
1
1
1.00001
1.00001
1.00004
1.00007
1.00023
1.00042
1.00134
1.00244
1.00744
1.01521
1.0398
1.10249
1.25097
1.67588
2.28853
2.5069
2.51131
2.50229
2.47659
2.44342
2.37898
2.29242
1
1
1
1.00001
1.00001
1.00003
1.00005
1.00017
1.00031
1.00096
1.00182
1.00529
1.01137
1.02912
1.07955
1.17649
1.53396
2.22682
2.45831
2.47781
2.46462
2.43749
2.40914
2.37124
2.29744
1
1
1
1
1.00001
1.00002
1.00005
1.00009
1.00028
1.00054
1.00152
1.00339
1.00832
1.02276
1.05031
1.15499
1.35325
1.98289
2.37152
2.45469
2.44637
2.42465
2.37625
2.34956
2.29628
1
1
1
1