/*--------------------------------*- C++ -*----------------------------------*\
| =========                 |                                                 |
| \\      /  F ield         | OpenFOAM: The Open Source CFD Toolbox           |
|  \\    /   O peration     | Version:  4.1                                   |
|   \\  /    A nd           | Web:      www.OpenFOAM.org                      |
|    \\/     M anipulation  |                                                 |
\*---------------------------------------------------------------------------*/
FoamFile
{
    version     2.0;
    format      ascii;
    class       volVectorField;
    location    "1";
    object      U;
}
// * * * * * * * * * * * * * * * * * * * * * * * * * * * * * * * * * * * * * //

dimensions      [0 1 -1 0 0 0 0];

internalField   nonuniform List<vector> 
52500
(
(3 3.33117e-09 -0.00571424)
(3 1.7644e-08 -0.00571428)
(2.99999 6.61518e-08 -0.00571435)
(2.99997 1.68752e-07 -0.00571454)
(2.99993 4.77476e-07 -0.00571491)
(2.99981 1.08906e-06 -0.00571602)
(2.99958 3.01045e-06 -0.00571815)
(2.99887 6.28028e-06 -0.00572433)
(2.99758 2.07334e-05 -0.00573797)
(2.99297 3.40861e-05 -0.00576849)
(2.98547 0.000154258 -0.00587072)
(2.95491 0.000278805 -0.00602562)
(2.88908 0.00114986 -0.00679006)
(2.68528 0.00273755 -0.00797474)
(2.01749 0.0094861 -0.0126376)
(0.920742 0.0262275 -0.0177038)
(0.282746 0.024007 -0.0189831)
(0.498246 0.023807 -0.0189659)
(0.543661 0.0262531 -0.0189949)
(0.470655 0.0290786 -0.0191955)
(0.365867 0.0326554 -0.0194437)
(0.286984 0.0367577 -0.0195761)
(0.227713 0.0411297 -0.0201234)
(0.120984 0.0459652 -0.0209146)
(0.0303809 0.0480141 -0.0195611)
(3 9.66339e-09 -0.00571424)
(3 5.09859e-08 -0.00571428)
(2.99999 1.91891e-07 -0.00571434)
(2.99997 4.8867e-07 -0.00571454)
(2.99993 1.39181e-06 -0.0057149)
(2.99981 3.185e-06 -0.005716)
(2.99958 8.813e-06 -0.0057181)
(2.99888 1.88916e-05 -0.00572424)
(2.9976 6.03237e-05 -0.00573757)
(2.99308 0.000101479 -0.00576802)
(2.98568 0.00045147 -0.0058674)
(2.95571 0.000823591 -0.00602094)
(2.89127 0.00340632 -0.00676637)
(2.69177 0.0082114 -0.00792616)
(2.03961 0.0284834 -0.0124858)
(0.938061 0.0781515 -0.0175108)
(0.291044 0.0701088 -0.0188866)
(0.502723 0.0673629 -0.0188734)
(0.547092 0.0714604 -0.0188922)
(0.473181 0.0763417 -0.0190865)
(0.367719 0.0830712 -0.0193228)
(0.287296 0.0897829 -0.0194457)
(0.226701 0.0959679 -0.0199829)
(0.119344 0.102192 -0.0207462)
(0.0291389 0.101075 -0.0193865)
(3 1.61393e-08 -0.00571424)
(3 8.10364e-08 -0.00571428)
(2.99999 3.0382e-07 -0.00571434)
(2.99997 7.73954e-07 -0.00571453)
(2.99993 2.17683e-06 -0.00571488)
(2.99982 4.96e-06 -0.00571596)
(2.99959 1.35249e-05 -0.00571801)
(2.99891 2.92482e-05 -0.00572402)
(2.99765 9.04268e-05 -0.00573686)
(2.9933 0.000155811 -0.00576707)
(2.98608 0.000680776 -0.00586113)
(2.95731 0.00120717 -0.00601188)
(2.89567 0.00523001 -0.00672048)
(2.70504 0.012513 -0.00782968)
(2.08616 0.0438661 -0.0121839)
(0.977255 0.121288 -0.0171869)
(0.311561 0.117237 -0.0187629)
(0.512462 0.116068 -0.0187532)
(0.554988 0.122581 -0.0187682)
(0.480859 0.130475 -0.0189584)
(0.375534 0.142592 -0.0191813)
(0.293072 0.154497 -0.019296)
(0.230787 0.165466 -0.0198178)
(0.122334 0.17633 -0.0205732)
(0.0298017 0.173186 -0.0192298)
(3 2.89168e-08 -0.00571424)
(3 1.09719e-07 -0.00571428)
(2.99999 4.40011e-07 -0.00571434)
(2.99997 1.12412e-06 -0.00571452)
(2.99993 3.10404e-06 -0.00571486)
(2.99982 7.03224e-06 -0.00571591)
(2.9996 1.86399e-05 -0.00571789)
(2.99895 4.02316e-05 -0.00572375)
(2.99771 0.000117107 -0.00573595)
(2.99357 0.000213217 -0.00576602)
(2.98656 0.000856085 -0.00585331)
(2.9594 0.00142626 -0.00600101)
(2.90133 0.00639854 -0.00665817)
(2.7224 0.0146931 -0.00770674)
(2.14791 0.0508357 -0.0117476)
(1.03404 0.138702 -0.0168112)
(0.340739 0.164012 -0.0186093)
(0.524088 0.169095 -0.018613)
(0.564673 0.176091 -0.0186301)
(0.492427 0.185736 -0.0188135)
(0.388974 0.20315 -0.0190087)
(0.304178 0.220655 -0.0191082)
(0.239743 0.237073 -0.0196054)
(0.129391 0.253472 -0.0203709)
(0.0318415 0.249146 -0.0190685)
(3 4.06469e-08 -0.00571424)
(3 1.36961e-07 -0.00571428)
(2.99999 5.7848e-07 -0.00571433)
(2.99997 1.47874e-06 -0.00571451)
(2.99993 4.12566e-06 -0.00571484)
(2.99983 9.42335e-06 -0.00571584)
(2.99962 2.5001e-05 -0.00571773)
(2.99899 5.53493e-05 -0.00572341)
(2.99779 0.000150863 -0.00573489)
(2.99391 0.00031725 -0.00576491)
(2.9871 0.000986264 -0.00584435)
(2.9618 0.00199394 -0.00599187)
(2.90742 0.00657107 -0.00658664)
(2.74019 0.0174409 -0.00759658)
(2.20682 0.0495276 -0.0112105)
(1.10503 0.14255 -0.0165276)
(0.377144 0.213785 -0.0185097)
(0.53446 0.226357 -0.0184844)
(0.572971 0.2306 -0.0184808)
(0.506007 0.240695 -0.0186346)
(0.406748 0.263617 -0.0188065)
(0.319657 0.287056 -0.0189041)
(0.25287 0.309344 -0.019358)
(0.140215 0.332149 -0.0201201)
(0.0354312 0.328347 -0.0188821)
(3 4.40501e-08 -0.00571424)
(3 1.59415e-07 -0.00571427)
(2.99999 6.60611e-07 -0.00571433)
(2.99997 1.68773e-06 -0.0057145)
(2.99994 4.7063e-06 -0.0057148)
(2.99984 1.07493e-05 -0.00571575)
(2.99964 2.84687e-05 -0.00571753)
(2.99905 6.33576e-05 -0.00572285)
(2.99793 0.000170081 -0.00573364)
(2.99427 0.000368031 -0.00576164)
(2.98797 0.00106929 -0.00583601)
(2.96395 0.00230007 -0.00597524)
(2.9149 0.00670296 -0.00653804)
(2.75652 0.019565 -0.00744766)
(2.25953 0.047258 -0.0107984)
(1.20179 0.150579 -0.0163658)
(0.433552 0.26237 -0.0183677)
(0.545748 0.284367 -0.0183285)
(0.57905 0.28423 -0.0182981)
(0.521661 0.294737 -0.018426)
(0.429292 0.324381 -0.0185716)
(0.339889 0.355134 -0.0186521)
(0.270591 0.384839 -0.0190833)
(0.155611 0.416287 -0.0198621)
(0.0414708 0.415888 -0.0186785)
(3 4.83874e-08 -0.00571424)
(3 1.88247e-07 -0.00571427)
(2.99999 7.60253e-07 -0.00571432)
(2.99998 1.94494e-06 -0.00571448)
(2.99994 5.35735e-06 -0.00571477)
(2.99985 1.21955e-05 -0.00571566)
(2.99966 3.18257e-05 -0.00571732)
(2.99911 7.02985e-05 -0.00572236)
(2.99805 0.000187209 -0.00573236)
(2.99466 0.000392323 -0.00575932)
(2.98872 0.00118389 -0.00582692)
(2.96638 0.00231677 -0.00595992)
(2.92249 0.00755979 -0.0064776)
(2.77213 0.0196154 -0.0072915)
(2.31885 0.0513751 -0.0105467)
(1.32263 0.159122 -0.0160438)
(0.507546 0.310804 -0.0181688)
(0.559199 0.336988 -0.0181076)
(0.582297 0.334705 -0.0180992)
(0.539909 0.349788 -0.0182118)
(0.457394 0.385467 -0.0183452)
(0.366301 0.425015 -0.0184092)
(0.295008 0.464976 -0.0187332)
(0.178083 0.50805 -0.0195184)
(0.0518252 0.516755 -0.0184135)
(3 5.57787e-08 -0.00571424)
(3 2.31471e-07 -0.00571427)
(2.99999 9.20153e-07 -0.00571432)
(2.99998 2.35744e-06 -0.00571446)
(2.99995 6.4731e-06 -0.00571473)
(2.99986 1.47809e-05 -0.00571554)
(2.99969 3.83116e-05 -0.00571708)
(2.99918 8.50684e-05 -0.00572174)
(2.99819 0.000221431 -0.0057309)
(2.99509 0.000476804 -0.00575622)
(2.98958 0.00133898 -0.0058171)
(2.96913 0.00271947 -0.00594305)
(2.92993 0.00839556 -0.00640987)
(2.79023 0.0203398 -0.00714896)
(2.38343 0.0588152 -0.010224)
(1.45851 0.165585 -0.0155605)
(0.596181 0.362408 -0.0178871)
(0.570652 0.381568 -0.0178759)
(0.588454 0.38336 -0.0178984)
(0.562449 0.407362 -0.0179512)
(0.490734 0.446437 -0.01805)
(0.401145 0.495984 -0.0180908)
(0.328506 0.550153 -0.0183291)
(0.211576 0.609426 -0.0190675)
(0.0706923 0.639091 -0.0180627)
(3 6.7096e-08 -0.00571424)
(3 2.9576e-07 -0.00571427)
(2.99999 1.15907e-06 -0.00571431)
(2.99998 2.97151e-06 -0.00571444)
(2.99995 8.14168e-06 -0.00571468)
(2.99988 1.87179e-05 -0.00571541)
(2.99972 4.83599e-05 -0.00571679)
(2.99926 0.000108893 -0.005721)
(2.99837 0.000275681 -0.00572922)
(2.99559 0.000628053 -0.00575235)
(2.99059 0.00155514 -0.00580648)
(2.97213 0.00351077 -0.00592252)
(2.93772 0.00930322 -0.00633997)
(2.81063 0.0223191 -0.00699497)
(2.45122 0.0638546 -0.0098446)
(1.60747 0.16768 -0.014931)
(0.692199 0.411889 -0.0175183)
(0.577147 0.422943 -0.0177148)
(0.60003 0.430862 -0.0177345)
(0.587405 0.463987 -0.0177291)
(0.527034 0.506998 -0.0177916)
(0.446377 0.567773 -0.0177882)
(0.37571 0.637943 -0.0178899)
(0.265283 0.723128 -0.0185278)
(0.107334 0.798464 -0.0175012)
(3 7.32093e-08 -0.00571424)
(3 2.67269e-07 -0.00571426)
(2.99999 1.62991e-06 -0.0057143)
(2.99998 2.60472e-06 -0.00571441)
(2.99996 1.06224e-05 -0.00571461)
(2.99989 1.64209e-05 -0.00571522)
(2.99976 6.29784e-05 -0.00571641)
(2.99937 9.28473e-05 -0.00571986)
(2.99863 0.000381224 -0.00572718)
(2.99616 0.000453922 -0.0057452)
(2.99199 0.00241437 -0.00579616)
(2.97547 0.00169182 -0.00588753)
(2.94609 0.0155152 -0.00628006)
(2.83184 0.0107237 -0.00680525)
(2.5172 0.0927169 -0.00949165)
(1.75211 0.166367 -0.0143383)
(0.791734 0.46928 -0.0170827)
(0.577689 0.469884 -0.0175072)
(0.613348 0.476698 -0.0175015)
(0.616192 0.514174 -0.0174634)
(0.569251 0.564086 -0.0174863)
(0.502906 0.63544 -0.0174273)
(0.443339 0.727014 -0.0173726)
(0.357984 0.858722 -0.0177688)
(0.178479 1.05462 -0.0166059)
(3 3.26501e-09 -2.39613e-09)
(2.99999 1.74708e-08 -8.75822e-09)
(2.99999 6.60755e-08 -1.02011e-08)
(2.99997 1.6898e-07 -1.59129e-08)
(2.99993 4.78923e-07 -1.61365e-08)
(2.99981 1.09306e-06 -2.11559e-08)
(2.99957 3.0207e-06 -2.15355e-08)
(2.99887 6.30928e-06 -2.82271e-08)
(2.99757 2.07839e-05 -3.19761e-08)
(2.99297 3.421e-05 -5.94938e-08)
(2.98546 0.000154527 -6.59657e-08)
(2.95489 0.000279393 -1.93703e-07)
(2.88902 0.00115131 -3.12014e-07)
(2.68513 0.00274107 -1.04982e-06)
(2.01702 0.00949677 -2.28827e-06)
(0.920429 0.0262567 -4.62271e-06)
(0.282755 0.0240151 8.19061e-07)
(0.498206 0.023803 5.42256e-07)
(0.543612 0.0262473 3.25396e-07)
(0.470605 0.0290745 2.68485e-07)
(0.365819 0.0326532 2.03897e-07)
(0.286955 0.0367562 1.94525e-07)
(0.227694 0.0411285 1.61138e-07)
(0.120971 0.0459627 1.21879e-07)
(0.030383 0.0480156 8.82067e-08)
(3 9.4518e-09 -2.39749e-09)
(2.99999 5.05049e-08 -8.75972e-09)
(2.99999 1.91747e-07 -1.01988e-08)
(2.99997 4.89502e-07 -1.59047e-08)
(2.99993 1.39631e-06 -1.61059e-08)
(2.99981 3.19658e-06 -2.10889e-08)
(2.99958 8.84608e-06 -2.13863e-08)
(2.99888 1.89812e-05 -2.78583e-08)
(2.9976 6.04943e-05 -3.14134e-08)
(2.99308 0.000102032 -5.79903e-08)
(2.98567 0.000452302 -6.30173e-08)
(2.9557 0.000825941 -1.8699e-07)
(2.89122 0.00341074 -2.96618e-07)
(2.69162 0.00822395 -1.01205e-06)
(2.03916 0.0285183 -2.19653e-06)
(0.937748 0.0782462 -4.53176e-06)
(0.29104 0.0701293 7.26751e-07)
(0.502688 0.0673477 5.01617e-07)
(0.547053 0.0714428 3.06688e-07)
(0.47314 0.0763297 2.54313e-07)
(0.367677 0.0830638 1.91704e-07)
(0.28727 0.0897777 1.79906e-07)
(0.226685 0.0959643 1.47699e-07)
(0.119331 0.102188 1.1335e-07)
(0.0291372 0.101074 8.33379e-08)
(3 1.49422e-08 -2.39973e-09)
(3 8.08873e-08 -8.7618e-09)
(2.99999 3.03933e-07 -1.0193e-08)
(2.99997 7.75911e-07 -1.58886e-08)
(2.99993 2.18244e-06 -1.60469e-08)
(2.99981 4.97359e-06 -2.09645e-08)
(2.99959 1.35644e-05 -2.1022e-08)
(2.99891 2.93551e-05 -2.68093e-08)
(2.99764 9.06322e-05 -3.00188e-08)
(2.99329 0.000156839 -5.23005e-08)
(2.98607 0.000681715 -5.85741e-08)
(2.95729 0.00121159 -1.64467e-07)
(2.89562 0.00523673 -2.69839e-07)
(2.70491 0.0125364 -9.10213e-07)
(2.08575 0.0439325 -2.01777e-06)
(0.97695 0.121471 -4.35519e-06)
(0.311543 0.117269 5.65729e-07)
(0.512445 0.116038 4.17362e-07)
(0.554969 0.122553 2.81078e-07)
(0.480832 0.130458 2.32921e-07)
(0.375501 0.142582 1.68483e-07)
(0.293053 0.15449 1.51538e-07)
(0.230775 0.165461 1.21533e-07)
(0.122324 0.176326 9.63652e-08)
(0.0297997 0.173183 7.37192e-08)
(3 2.16953e-08 -2.40517e-09)
(3 1.18971e-07 -8.75664e-09)
(2.99999 4.40531e-07 -1.01971e-08)
(2.99997 1.12815e-06 -1.58737e-08)
(2.99993 3.10366e-06 -1.59955e-08)
(2.99982 7.04483e-06 -2.08586e-08)
(2.9996 1.86403e-05 -2.06433e-08)
(2.99894 4.02657e-05 -2.5853e-08)
(2.9977 0.000117165 -2.83617e-08)
(2.99357 0.000213715 -3.92284e-08)
(2.98655 0.000856591 -5.76011e-08)
(2.95939 0.00142858 -1.13987e-07)
(2.90129 0.00640571 -2.34667e-07)
(2.7223 0.0147127 -7.21907e-07)
(2.14759 0.0509156 -1.70651e-06)
(1.03376 0.138952 -3.93427e-06)
(0.340744 0.164013 2.37121e-07)
(0.524099 0.169048 2.71719e-07)
(0.564681 0.176062 2.39482e-07)
(0.492415 0.185721 2.04026e-07)
(0.38895 0.203142 1.45299e-07)
(0.304166 0.220649 1.21884e-07)
(0.239737 0.237069 9.40051e-08)
(0.129385 0.253468 7.77677e-08)
(0.0318399 0.249141 6.00763e-08)
(3 2.86224e-08 -2.52681e-09)
(3 1.5553e-07 -8.49612e-09)
(2.99999 5.79926e-07 -1.03155e-08)
(2.99997 1.48545e-06 -1.58489e-08)
(2.99993 4.12617e-06 -1.6107e-08)
(2.99983 9.43782e-06 -2.06705e-08)
(2.99961 2.5001e-05 -2.10227e-08)
(2.99899 5.53724e-05 -2.56912e-08)
(2.99779 0.00015092 -2.82728e-08)
(2.99391 0.000317308 -3.8763e-08)
(2.98709 0.000986971 -5.23744e-08)
(2.96179 0.00199404 -1.06267e-07)
(2.90739 0.00657921 -1.64901e-07)
(2.74012 0.017449 -5.78818e-07)
(2.20666 0.0496079 -1.01035e-06)
(1.10477 0.142732 -2.14793e-06)
(0.377093 0.213776 -5.23817e-07)
(0.53449 0.22632 6.81392e-08)
(0.573002 0.230584 2.09217e-07)
(0.506009 0.24069 1.78588e-07)
(0.406733 0.263614 1.2518e-07)
(0.31965 0.287052 9.74435e-08)
(0.252868 0.30934 7.06205e-08)
(0.140212 0.332145 6.0542e-08)
(0.0354304 0.328342 4.69949e-08)
(3 3.26783e-08 -2.64982e-09)
(3 1.7731e-07 -8.21531e-09)
(2.99999 6.61947e-07 -1.04246e-08)
(2.99997 1.69395e-06 -1.58124e-08)
(2.99994 4.70991e-06 -1.61203e-08)
(2.99984 1.07585e-05 -2.06149e-08)
(2.99964 2.8491e-05 -2.09273e-08)
(2.99905 6.34141e-05 -2.55532e-08)
(2.99792 0.000170224 -2.76433e-08)
(2.99426 0.000368455 -3.97141e-08)
(2.98796 0.00107001 -4.16361e-08)
(2.96395 0.00230294 -1.29745e-07)
(2.91487 0.00670631 -5.09363e-08)
(2.75648 0.0195822 -6.43012e-07)
(2.25942 0.0472971 -2.53351e-07)
(1.20147 0.150666 -2.00745e-06)
(0.433442 0.262389 -7.77836e-07)
(0.545771 0.284349 -1.58471e-07)
(0.579094 0.284237 1.73925e-07)
(0.521671 0.294745 1.44937e-07)
(0.429283 0.324383 9.84515e-08)
(0.339887 0.355133 7.62316e-08)
(0.270594 0.384837 5.10487e-08)
(0.15561 0.416283 4.49645e-08)
(0.0414709 0.415882 3.50353e-08)
(3 3.75353e-08 -2.76263e-09)
(3 2.04789e-07 -7.96349e-09)
(2.99999 7.59799e-07 -1.05342e-08)
(2.99997 1.94682e-06 -1.57892e-08)
(2.99994 5.35205e-06 -1.61427e-08)
(2.99985 1.21867e-05 -2.05699e-08)
(2.99966 3.18146e-05 -2.07641e-08)
(2.99911 7.02942e-05 -2.50654e-08)
(2.99804 0.000187241 -2.65537e-08)
(2.99465 0.000392571 -3.39532e-08)
(2.98871 0.00118406 -4.4435e-08)
(2.96637 0.00231938 -6.93146e-08)
(2.92247 0.00755894 -1.26249e-07)
(2.7721 0.0196328 -3.34175e-07)
(2.31873 0.0513732 -4.71434e-07)
(1.32235 0.159183 -1.65814e-06)
(0.50741 0.310816 -8.46918e-07)
(0.559224 0.337009 -2.78868e-07)
(0.582358 0.334719 2.63831e-07)
(0.539917 0.349794 1.53915e-07)
(0.457384 0.385473 4.15387e-08)
(0.366302 0.425017 5.46971e-08)
(0.295015 0.464975 3.74794e-08)
(0.178085 0.508049 3.14406e-08)
(0.0518263 0.51675 2.41431e-08)
(3 4.52044e-08 -2.87176e-09)
(3 2.46388e-07 -7.72134e-09)
(2.99999 9.14465e-07 -1.06571e-08)
(2.99998 2.34606e-06 -1.57968e-08)
(2.99995 6.44125e-06 -1.62295e-08)
(2.99986 1.47233e-05 -2.06467e-08)
(2.99969 3.82173e-05 -2.08614e-08)
(2.99918 8.49214e-05 -2.51529e-08)
(2.99819 0.000221226 -2.64847e-08)
(2.99509 0.000476477 -3.35861e-08)
(2.98957 0.00133876 -4.30148e-08)
(2.96912 0.00271853 -6.82511e-08)
(2.92992 0.00839714 -1.15579e-07)
(2.79019 0.020342 -2.92438e-07)
(2.38331 0.0588234 -4.8063e-07)
(1.45826 0.165639 -1.42546e-06)
(0.596047 0.362422 -9.75469e-07)
(0.570679 0.381614 -6.2924e-09)
(0.588493 0.383374 1.07501e-07)
(0.562465 0.407363 5.9062e-08)
(0.490735 0.446444 4.25331e-08)
(0.401151 0.495988 4.32833e-08)
(0.328517 0.550154 2.94801e-08)
(0.211582 0.609427 2.33478e-08)
(0.0706948 0.639089 1.55917e-08)
(3 5.58722e-08 -2.9771e-09)
(3 3.06299e-07 -7.50256e-09)
(2.99999 1.13716e-06 -1.08282e-08)
(2.99998 2.92391e-06 -1.59036e-08)
(2.99995 8.05024e-06 -1.6477e-08)
(2.99987 1.85512e-05 -2.0991e-08)
(2.99972 4.81359e-05 -2.13602e-08)
(2.99926 0.000108544 -2.5932e-08)
(2.99837 0.000275236 -2.74788e-08)
(2.99558 0.000627361 -3.62502e-08)
(2.99059 0.00155453 -4.20427e-08)
(2.97213 0.00350956 -8.3727e-08)
(2.9377 0.00930252 -7.90614e-08)
(2.8106 0.0223205 -3.35144e-07)
(2.45114 0.063864 -3.43485e-07)
(1.60727 0.167721 -1.2625e-06)
(0.692106 0.411906 -1.03304e-06)
(0.5772 0.422978 6.85615e-08)
(0.600072 0.430883 7.0169e-08)
(0.587429 0.463996 3.26917e-08)
(0.527048 0.507006 3.10667e-08)
(0.446391 0.56778 3.23335e-08)
(0.375725 0.637946 2.43484e-08)
(0.265294 0.72313 1.99142e-08)
(0.107338 0.798466 1.04169e-08)
(3 9.36104e-08 -3.09856e-09)
(3 2.31188e-07 -7.32808e-09)
(2.99999 1.46174e-06 -1.11698e-08)
(2.99998 2.47338e-06 -1.6282e-08)
(2.99996 1.02493e-05 -1.70046e-08)
(2.99989 1.60947e-05 -2.20046e-08)
(2.99976 6.23981e-05 -2.19077e-08)
(2.99937 9.23261e-05 -2.73859e-08)
(2.99862 0.000380352 -2.83513e-08)
(2.99616 0.000453424 -3.8336e-08)
(2.99199 0.00241344 -4.18434e-08)
(2.97546 0.00169214 -7.84059e-08)
(2.94608 0.0155145 -1.10933e-07)
(2.83181 0.0107295 -2.45241e-07)
(2.51712 0.0927193 -3.72391e-07)
(1.75193 0.166393 -1.08925e-06)
(0.791651 0.469289 -1.12234e-06)
(0.577754 0.469912 1.13374e-07)
(0.613392 0.476724 7.47101e-08)
(0.61622 0.514193 2.7389e-08)
(0.569273 0.5641 2.87427e-08)
(0.502927 0.635451 2.84946e-08)
(0.443359 0.72702 2.36526e-08)
(0.357998 0.858727 1.76782e-08)
(0.178486 1.05462 1.1447e-08)
(3 3.2651e-09 -3.31604e-13)
(2.99999 1.74713e-08 -1.80615e-12)
(2.99999 6.60772e-08 -3.75885e-12)
(2.99997 1.68984e-07 -7.69761e-12)
(2.99993 4.78932e-07 -1.32895e-11)
(2.99981 1.09307e-06 -2.33896e-11)
(2.99957 3.02077e-06 -4.91475e-11)
(2.99887 6.30926e-06 -7.61151e-11)
(2.99757 2.07848e-05 -3.03834e-10)
(2.99297 3.42109e-05 -3.06812e-10)
(2.98546 0.000154534 -2.37779e-09)
(2.95489 0.000279406 -3.01592e-09)
(2.88902 0.00115136 -1.634e-08)
(2.68512 0.00274119 -3.36693e-08)
(2.017 0.0094972 -1.0479e-07)
(0.920417 0.0262578 -1.95683e-07)
(0.282754 0.0240153 2.26643e-08)
(0.498204 0.0238028 1.44926e-08)
(0.54361 0.0262469 6.24092e-09)
(0.470604 0.0290742 3.70936e-09)
(0.365817 0.0326529 1.33552e-09)
(0.286953 0.0367561 3.15597e-09)
(0.227696 0.0411283 -1.23387e-09)
(0.120976 0.0459634 9.7251e-09)
(0.0303781 0.0480146 -2.35876e-09)
(3 9.45209e-09 -3.3007e-13)
(2.99999 5.05063e-08 -1.79777e-12)
(2.99999 1.91753e-07 -3.74138e-12)
(2.99997 4.89516e-07 -7.6783e-12)
(2.99993 1.39635e-06 -1.32784e-11)
(2.99981 3.19666e-06 -2.35674e-11)
(2.99958 8.84637e-06 -4.82229e-11)
(2.99888 1.89815e-05 -7.67346e-11)
(2.9976 6.04971e-05 -2.89015e-10)
(2.99308 0.000102035 -2.92716e-10)
(2.98567 0.000452324 -2.27718e-09)
(2.9557 0.000825983 -2.85038e-09)
(2.89121 0.00341091 -1.56384e-08)
(2.69162 0.00822436 -3.2208e-08)
(2.03914 0.0285197 -1.0083e-07)
(0.937735 0.0782497 -1.918e-07)
(0.291039 0.0701298 1.87358e-08)
(0.502687 0.0673468 1.2775e-08)
(0.547052 0.0714419 5.47124e-09)
(0.473138 0.0763289 3.17203e-09)
(0.367676 0.0830632 9.32446e-10)
(0.287269 0.0897774 2.92114e-09)
(0.226688 0.0959638 -1.89245e-09)
(0.119337 0.102188 9.46104e-09)
(0.0291349 0.101075 -2.41832e-09)
(3 1.49426e-08 -3.25501e-13)
(3 8.0888e-08 -1.77828e-12)
(2.99999 3.03937e-07 -3.67031e-12)
(2.99997 7.75922e-07 -7.5206e-12)
(2.99993 2.18249e-06 -1.28457e-11)
(2.99981 4.9737e-06 -2.28817e-11)
(2.99959 1.35649e-05 -4.55811e-11)
(2.99891 2.93559e-05 -8.01448e-11)
(2.99764 9.06369e-05 -2.54014e-10)
(2.99329 0.000156844 -2.83629e-10)
(2.98607 0.000681755 -1.99912e-09)
(2.95729 0.00121167 -2.52602e-09)
(2.89562 0.00523704 -1.39484e-08)
(2.70491 0.0125371 -2.92375e-08)
(2.08574 0.0439353 -9.24598e-08)
(0.976938 0.121478 -1.84616e-07)
(0.311541 0.117269 1.1721e-08)
(0.512444 0.116036 9.09983e-09)
(0.554968 0.122552 4.30023e-09)
(0.480831 0.130457 2.24792e-09)
(0.3755 0.142581 9.01994e-11)
(0.293051 0.154489 2.19104e-09)
(0.230778 0.16546 -2.95553e-09)
(0.12233 0.176326 7.97591e-09)
(0.0297978 0.173185 -2.32189e-09)
(3 2.16953e-08 -3.20811e-13)
(3 1.1897e-07 -1.77235e-12)
(2.99999 4.40528e-07 -3.60191e-12)
(2.99997 1.12814e-06 -7.39127e-12)
(2.99993 3.10365e-06 -1.21276e-11)
(2.99982 7.04481e-06 -2.13959e-11)
(2.9996 1.86403e-05 -3.91785e-11)
(2.99894 4.02657e-05 -6.86458e-11)
(2.9977 0.000117167 -1.89076e-10)
(2.99357 0.000213715 -2.78859e-10)
(2.98655 0.000856621 -1.43394e-09)
(2.95939 0.00142864 -1.80881e-09)
(2.90129 0.00640601 -1.09815e-08)
(2.72229 0.0147135 -2.3746e-08)
(2.14758 0.0509188 -7.7394e-08)
(1.03375 0.138961 -1.67501e-07)
(0.340743 0.164012 -2.77577e-09)
(0.524099 0.169046 2.93559e-09)
(0.564681 0.17606 2.55735e-09)
(0.492415 0.18572 1.12176e-09)
(0.38895 0.203141 -5.89467e-10)
(0.304165 0.220648 1.49033e-09)
(0.23974 0.237068 -4.36895e-09)
(0.129391 0.253468 4.65406e-09)
(0.0318382 0.249145 -8.73315e-10)
(3 2.86227e-08 -3.2356e-13)
(3 1.55531e-07 -1.79496e-12)
(2.99999 5.79929e-07 -3.67071e-12)
(2.99997 1.48546e-06 -7.54337e-12)
(2.99993 4.12618e-06 -1.25704e-11)
(2.99983 9.43785e-06 -2.18905e-11)
(2.99961 2.50011e-05 -4.06647e-11)
(2.99899 5.53724e-05 -7.07582e-11)
(2.99779 0.000150921 -1.78707e-10)
(2.99391 0.000317307 -2.79726e-10)
(2.98709 0.000986991 -1.21149e-09)
(2.96179 0.00199404 -1.45885e-09)
(2.90738 0.00657947 -8.34316e-09)
(2.74012 0.0174493 -1.66928e-08)
(2.20665 0.0496107 -4.96737e-08)
(1.10476 0.142739 -9.51542e-08)
(0.377089 0.213775 -3.54773e-08)
(0.53449 0.226317 -5.92247e-09)
(0.573003 0.230582 1.45656e-09)
(0.506009 0.240689 3.02389e-10)
(0.406733 0.263613 -1.03955e-09)
(0.319649 0.287051 9.89389e-10)
(0.252871 0.309339 -5.28106e-09)
(0.140218 0.332145 4.50573e-09)
(0.035429 0.328347 -1.27921e-09)
(3 3.26787e-08 -3.16028e-13)
(3 1.77312e-07 -1.76617e-12)
(2.99999 6.61954e-07 -3.58382e-12)
(2.99997 1.69396e-06 -7.37399e-12)
(2.99994 4.70996e-06 -1.21755e-11)
(2.99984 1.07586e-05 -2.12202e-11)
(2.99964 2.84913e-05 -3.91104e-11)
(2.99905 6.34147e-05 -7.02554e-11)
(2.99792 0.000170227 -1.6524e-10)
(2.99426 0.00036846 -3.27746e-10)
(2.98796 0.00107003 -8.73611e-10)
(2.96395 0.00230297 -2.20701e-09)
(2.91487 0.00670645 -4.46126e-09)
(2.75648 0.0195825 -1.86199e-08)
(2.25941 0.0472986 -2.28909e-08)
(1.20146 0.150669 -8.82857e-08)
(0.433436 0.262389 -4.76794e-08)
(0.545771 0.284347 -1.63314e-08)
(0.579096 0.284236 4.9389e-10)
(0.521671 0.294745 -6.46367e-10)
(0.429283 0.324382 -1.82024e-09)
(0.339885 0.355132 3.37003e-10)
(0.270596 0.384836 -6.69215e-09)
(0.155616 0.416283 3.27721e-09)
(0.0414697 0.415888 -1.87769e-10)
(3 3.75354e-08 -3.13493e-13)
(3 2.04789e-07 -1.7633e-12)
(2.99999 7.59799e-07 -3.55578e-12)
(2.99997 1.94682e-06 -7.33678e-12)
(2.99994 5.35205e-06 -1.1874e-11)
(2.99985 1.21867e-05 -2.05727e-11)
(2.99966 3.18147e-05 -3.59955e-11)
(2.99911 7.02944e-05 -6.22725e-11)
(2.99804 0.000187242 -1.4332e-10)
(2.99465 0.000392573 -2.25091e-10)
(2.98871 0.00118407 -8.85951e-10)
(2.96637 0.00231942 -1.03795e-09)
(2.92247 0.00755895 -5.62254e-09)
(2.77209 0.0196332 -1.19689e-08)
(2.31872 0.0513732 -2.52518e-08)
(1.32234 0.159185 -7.88278e-08)
(0.507402 0.310815 -5.20994e-08)
(0.559225 0.337009 -2.25309e-08)
(0.58236 0.334718 5.72963e-09)
(0.539917 0.349794 5.03657e-10)
(0.457384 0.385473 -4.46994e-09)
(0.366301 0.425016 -1.75899e-09)
(0.295016 0.464975 -6.82646e-09)
(0.178091 0.508049 1.85008e-09)
(0.0518254 0.516757 1.40207e-09)
(3 4.52043e-08 -3.12659e-13)
(3 2.46386e-07 -1.76658e-12)
(2.99999 9.1446e-07 -3.56134e-12)
(2.99998 2.34605e-06 -7.36344e-12)
(2.99995 6.44121e-06 -1.19285e-11)
(2.99986 1.47233e-05 -2.07297e-11)
(2.99969 3.82171e-05 -3.6443e-11)
(2.99918 8.4921e-05 -6.39819e-11)
(2.99819 0.000221226 -1.44827e-10)
(2.99509 0.000476474 -2.54288e-10)
(2.98957 0.00133876 -8.20532e-10)
(2.96912 0.0027185 -1.28958e-09)
(2.92992 0.00839719 -5.04895e-09)
(2.79019 0.0203421 -1.05917e-08)
(2.38331 0.0588234 -2.75306e-08)
(1.45824 0.16564 -6.93177e-08)
(0.596039 0.362421 -6.05406e-08)
(0.57068 0.381615 -7.9039e-09)
(0.588495 0.383373 -1.46311e-09)
(0.562465 0.407362 -3.42757e-09)
(0.490735 0.446443 -3.93605e-09)
(0.40115 0.495988 -2.10268e-09)
(0.328518 0.550154 -4.58507e-09)
(0.211586 0.609427 -2.84778e-10)
(0.0706942 0.639096 2.74896e-10)
(3 5.58719e-08 -3.14623e-13)
(3 3.06296e-07 -1.78325e-12)
(2.99999 1.13715e-06 -3.61064e-12)
(2.99998 2.92388e-06 -7.48108e-12)
(2.99995 8.05019e-06 -1.2255e-11)
(2.99987 1.85511e-05 -2.1443e-11)
(2.99972 4.81357e-05 -3.849e-11)
(2.99926 0.000108544 -6.89387e-11)
(2.99837 0.000275235 -1.5391e-10)
(2.99558 0.000627357 -2.98856e-10)
(2.99059 0.00155453 -7.84186e-10)
(2.97213 0.00350954 -1.615e-09)
(2.9377 0.00930254 -4.27398e-09)
(2.8106 0.0223205 -1.13722e-08)
(2.45113 0.0638643 -2.47256e-08)
(1.60726 0.167722 -6.55534e-08)
(0.692099 0.411905 -6.73221e-08)
(0.577201 0.422978 -2.55233e-09)
(0.600073 0.430883 -2.03391e-09)
(0.58743 0.463996 -3.975e-09)
(0.527048 0.507006 -3.94349e-09)
(0.44639 0.567779 -2.50821e-09)
(0.375726 0.637945 -3.08828e-09)
(0.265297 0.723131 -1.15651e-09)
(0.107338 0.798473 9.10603e-10)
(3 9.36067e-08 -3.18804e-13)
(3 2.31187e-07 -1.82376e-12)
(2.99999 1.4617e-06 -3.70581e-12)
(2.99998 2.47334e-06 -7.71153e-12)
(2.99996 1.02491e-05 -1.26378e-11)
(2.99989 1.60946e-05 -2.25516e-11)
(2.99976 6.2398e-05 -3.97022e-11)
(2.99937 9.2326e-05 -7.29122e-11)
(2.99862 0.000380354 -1.56771e-10)
(2.99616 0.000453424 -3.20038e-10)
(2.99199 0.00241345 -7.58618e-10)
(2.97546 0.00169214 -1.60481e-09)
(2.94608 0.0155146 -4.56555e-09)
(2.83181 0.0107295 -9.73611e-09)
(2.51712 0.0927196 -2.43679e-08)
(1.75192 0.166394 -6.33034e-08)
(0.791645 0.469288 -7.60385e-08)
(0.577755 0.469912 6.46052e-10)
(0.613392 0.476724 -1.03399e-09)
(0.61622 0.514193 -3.95592e-09)
(0.569273 0.564099 -3.64163e-09)
(0.502926 0.63545 -2.76011e-09)
(0.443359 0.72702 -2.2705e-09)
(0.358001 0.858728 -1.76533e-09)
(0.178487 1.05463 1.9053e-09)
(3 3.26509e-09 -7.71335e-14)
(2.99999 1.74712e-08 -3.37625e-13)
(2.99999 6.60769e-08 -1.16845e-12)
(2.99997 1.68983e-07 -2.49328e-12)
(2.99993 4.7893e-07 -7.63585e-12)
(2.99981 1.09306e-06 -1.51158e-11)
(2.99957 3.02076e-06 -5.07222e-11)
(2.99887 6.30922e-06 -8.39511e-11)
(2.99757 2.07847e-05 -4.06653e-10)
(2.99297 3.42109e-05 -4.41167e-10)
(2.98546 0.000154534 -3.31265e-09)
(2.95489 0.000279406 -4.30989e-09)
(2.88902 0.00115136 -2.2529e-08)
(2.68512 0.0027412 -4.56133e-08)
(2.017 0.00949723 -1.39524e-07)
(0.920415 0.0262579 -2.53793e-07)
(0.282754 0.0240153 4.74958e-08)
(0.498204 0.0238027 3.22223e-08)
(0.54361 0.0262469 2.02842e-08)
(0.470603 0.0290742 1.67833e-08)
(0.365817 0.0326529 1.30859e-08)
(0.286953 0.036756 1.26127e-08)
(0.227697 0.0411282 1.10454e-08)
(0.120977 0.0459629 7.30136e-09)
(0.0303792 0.0480157 6.0078e-09)
(3 9.45206e-09 -7.30704e-14)
(2.99999 5.05062e-08 -3.16616e-13)
(2.99999 1.91752e-07 -1.1159e-12)
(2.99997 4.89515e-07 -2.40207e-12)
(2.99993 1.39635e-06 -7.45983e-12)
(2.99981 3.19665e-06 -1.50337e-11)
(2.99958 8.84634e-06 -4.87394e-11)
(2.99888 1.89813e-05 -8.40122e-11)
(2.9976 6.04971e-05 -3.81663e-10)
(2.99308 0.000102034 -4.28338e-10)
(2.98567 0.000452325 -3.13609e-09)
(2.9557 0.000825984 -4.10602e-09)
(2.89121 0.00341092 -2.14076e-08)
(2.69162 0.00822438 -4.35975e-08)
(2.03913 0.0285198 -1.33782e-07)
(0.937734 0.07825 -2.48383e-07)
(0.291039 0.0701298 4.17685e-08)
(0.502687 0.0673467 2.96451e-08)
(0.547051 0.0714418 1.90974e-08)
(0.473138 0.0763289 1.58584e-08)
(0.367676 0.0830632 1.22526e-08)
(0.287268 0.0897773 1.15824e-08)
(0.226689 0.0959637 9.93241e-09)
(0.119338 0.102188 6.7805e-09)
(0.0291347 0.101075 5.32772e-09)
(3 1.49426e-08 -6.24975e-14)
(3 8.08881e-08 -2.7073e-13)
(2.99999 3.03937e-07 -9.51662e-13)
(2.99997 7.75922e-07 -2.03308e-12)
(2.99993 2.18249e-06 -6.40285e-12)
(2.99981 4.97371e-06 -1.30661e-11)
(2.99959 1.35649e-05 -4.22825e-11)
(2.99891 2.93559e-05 -8.12038e-11)
(2.99764 9.06371e-05 -3.22285e-10)
(2.99329 0.000156843 -3.702e-10)
(2.98607 0.000681758 -2.71923e-09)
(2.95729 0.00121167 -3.50526e-09)
(2.89562 0.00523706 -1.89525e-08)
(2.70491 0.0125372 -3.88891e-08)
(2.08574 0.0439355 -1.21879e-07)
(0.976936 0.121478 -2.38314e-07)
(0.311541 0.117269 3.18383e-08)
(0.512444 0.116036 2.45057e-08)
(0.554968 0.122552 1.75822e-08)
(0.48083 0.130457 1.45568e-08)
(0.3755 0.142581 1.07621e-08)
(0.293051 0.154489 9.65801e-09)
(0.230779 0.16546 7.9463e-09)
(0.122331 0.176325 5.81747e-09)
(0.0297972 0.173186 4.31088e-09)
(3 2.16953e-08 -5.77251e-14)
(3 1.1897e-07 -2.59681e-13)
(2.99999 4.40529e-07 -8.46006e-13)
(2.99997 1.12814e-06 -1.81596e-12)
(2.99993 3.10365e-06 -5.17772e-12)
(2.99982 7.04482e-06 -1.04382e-11)
(2.9996 1.86403e-05 -3.11848e-11)
(2.99894 4.02658e-05 -5.91443e-11)
(2.9977 0.000117168 -2.19911e-10)
(2.99357 0.000213715 -3.03283e-10)
(2.98655 0.000856623 -1.92216e-09)
(2.95939 0.00142864 -2.1532e-09)
(2.90129 0.00640603 -1.49791e-08)
(2.72229 0.0147136 -3.01672e-08)
(2.14758 0.050919 -1.0138e-07)
(1.03375 0.138962 -2.14816e-07)
(0.340743 0.164012 1.17898e-08)
(0.524099 0.169046 1.59906e-08)
(0.564681 0.17606 1.54137e-08)
(0.492414 0.18572 1.30748e-08)
(0.38895 0.203141 9.48739e-09)
(0.304164 0.220648 7.73361e-09)
(0.23974 0.237067 5.83092e-09)
(0.129391 0.253467 4.64825e-09)
(0.0318376 0.249145 3.10178e-09)
(3 2.86227e-08 -6.63161e-14)
(3 1.55531e-07 -2.96465e-13)
(2.99999 5.79929e-07 -9.72799e-13)
(2.99997 1.48546e-06 -2.10482e-12)
(2.99993 4.12618e-06 -5.92045e-12)
(2.99983 9.43785e-06 -1.19398e-11)
(2.99961 2.50011e-05 -3.38487e-11)
(2.99899 5.53724e-05 -6.50789e-11)
(2.99779 0.000150921 -2.07203e-10)
(2.99391 0.000317307 -3.25719e-10)
(2.98709 0.000986993 -1.57175e-09)
(2.96179 0.00199404 -1.78505e-09)
(2.90738 0.0065795 -1.08709e-08)
(2.74012 0.0174494 -2.08533e-08)
(2.20665 0.0496109 -6.22882e-08)
(1.10476 0.14274 -1.14893e-07)
(0.377088 0.213775 -3.23565e-08)
(0.53449 0.226317 4.34726e-09)
(0.573002 0.230582 1.40911e-08)
(0.506008 0.240688 1.20066e-08)
(0.406733 0.263613 8.57714e-09)
(0.319649 0.287051 6.23528e-09)
(0.252871 0.309339 3.95987e-09)
(0.140218 0.332145 3.36634e-09)
(0.0354283 0.328347 1.87381e-09)
(3 3.26788e-08 -5.61795e-14)
(3 1.77312e-07 -2.4974e-13)
(2.99999 6.61955e-07 -8.33964e-13)
(2.99997 1.69396e-06 -1.80057e-12)
(2.99994 4.70996e-06 -5.21047e-12)
(2.99984 1.07586e-05 -1.0637e-11)
(2.99964 2.84914e-05 -3.07668e-11)
(2.99905 6.34148e-05 -6.25378e-11)
(2.99792 0.000170227 -1.83592e-10)
(2.99426 0.00036846 -3.81067e-10)
(2.98796 0.00107003 -1.07889e-09)
(2.96395 0.00230298 -2.72562e-09)
(2.91487 0.00670646 -5.50224e-09)
(2.75648 0.0195825 -2.27952e-08)
(2.25941 0.0472987 -2.63644e-08)