/*--------------------------------*- C++ -*----------------------------------*\
| =========                 |                                                 |
| \\      /  F ield         | OpenFOAM: The Open Source CFD Toolbox           |
|  \\    /   O peration     | Version:  4.1                                   |
|   \\  /    A nd           | Web:      www.OpenFOAM.org                      |
|    \\/     M anipulation  |                                                 |
\*---------------------------------------------------------------------------*/
FoamFile
{
    version     2.0;
    format      ascii;
    class       volScalarField;
    location    "9.52";
    object      T;
}
// * * * * * * * * * * * * * * * * * * * * * * * * * * * * * * * * * * * * * //

dimensions      [0 0 0 1 0 0 0];

internalField   nonuniform List<scalar> 
52500
(
0.999997
1.00003
1.00005
1.0002
1.00037
1.00118
1.00217
1.00662
1.01326
1.0356
1.09053
1.21403
1.61162
2.48554
2.70313
2.72826
2.72584
2.72661
2.74007
2.75207
2.76545
2.77394
2.78101
2.78583
2.7897
0.999997
1.00003
1.00005
1.0002
1.00036
1.00117
1.00215
1.00656
1.01313
1.03529
1.08958
1.21179
1.60627
2.47794
2.7
2.72774
2.72519
2.72572
2.73915
2.75096
2.76434
2.77243
2.77951
2.78368
2.78681
0.999996
1.00002
1.00005
1.00019
1.00036
1.00115
1.0021
1.00644
1.01285
1.03465
1.08761
1.20714
1.59472
2.46089
2.69242
2.72608
2.72332
2.72368
2.73724
2.74852
2.76183
2.7701
2.77657
2.78026
2.78246
0.999996
1.00002
1.00005
1.00019
1.00034
1.00111
1.00204
1.00623
1.01244
1.03351
1.08515
1.19927
1.57962
2.43491
2.68162
2.72404
2.72019
2.72024
2.73294
2.74478
2.75634
2.76424
2.77187
2.77589
2.77786
0.999996
1.00002
1.00005
1.00018
1.00033
1.00106
1.00195
1.00595
1.01189
1.03198
1.0819
1.18884
1.55929
2.39732
2.66688
2.72167
2.71656
2.71562
2.72703
2.73871
2.75157
2.75738
2.76205
2.76597
2.76718
0.999996
1.00002
1.00004
1.00017
1.00031
1.00099
1.00183
1.00554
1.01123
1.02983
1.07799
1.17631
1.53303
2.34515
2.64734
2.71849
2.71281
2.70891
2.72133
2.72777
2.74103
2.7493
2.75391
2.75676
2.75769
0.999995
1.00002
1.00004
1.00015
1.00028
1.00091
1.00169
1.00503
1.01047
1.02709
1.07282
1.16094
1.5039
2.28225
2.6223
2.71475
2.70814
2.70266
2.71474
2.72226
2.72844
2.73444
2.73819
2.73935
2.73708
0.999995
1.00002
1.00004
1.00014
1.00026
1.00084
1.00155
1.00464
1.00953
1.02496
1.06593
1.14802
1.45189
2.18853
2.5892
2.70701
2.69943
2.6909
2.70101
2.71081
2.7189
2.72002
2.72143
2.71962
2.71511
0.999995
1.00001
1.00003
1.00013
1.00024
1.00077
1.0014
1.00438
1.00844
1.02361
1.05621
1.13346
1.38697
2.06432
2.54732
2.69839
2.6912
2.68004
2.68883
2.69272
2.6999
2.70024
2.69637
2.68744
2.66415
0.999995
1.00001
1.00003
1.00011
1.00021
1.00066
1.00123
1.00378
1.00739
1.02062
1.04806
1.11789
1.32427
1.94518
2.47991
2.67036
2.66821
2.662
2.67557
2.67706
2.68034
2.67739
2.66643
2.6439
2.59257
1.00001
1.00003
1.00006
1.00021
1.00037
1.00119
1.00218
1.00663
1.01327
1.03562
1.09056
1.21408
1.61175
2.48576
2.70326
2.72834
2.72593
2.72671
2.74017
2.75218
2.76555
2.77403
2.7811
2.78591
2.78978
1.00001
1.00003
1.00006
1.0002
1.00037
1.00118
1.00216
1.00657
1.01314
1.03531
1.0896
1.21184
1.60639
2.47815
2.70014
2.72782
2.72528
2.72581
2.73924
2.75106
2.76443
2.77251
2.77959
2.78377
2.78689
1.00001
1.00003
1.00006
1.0002
1.00036
1.00116
1.00211
1.00646
1.01286
1.03467
1.08763
1.2072
1.59484
2.4611
2.69255
2.72616
2.72341
2.72377
2.73733
2.74861
2.76192
2.77019
2.77666
2.78034
2.78254
1.00001
1.00003
1.00006
1.00019
1.00035
1.00112
1.00205
1.00624
1.01245
1.03353
1.08517
1.19934
1.57969
2.4351
2.68174
2.72411
2.72027
2.72032
2.73302
2.74486
2.75643
2.76432
2.77195
2.77597
2.77794
1
1.00003
1.00006
1.00019
1.00034
1.00107
1.00195
1.00596
1.0119
1.032
1.08192
1.1889
1.55936
2.39752
2.66699
2.72174
2.71663
2.7157
2.7271
2.7388
2.75166
2.75746
2.76213
2.76605
2.76726
1
1.00003
1.00005
1.00017
1.00032
1.001
1.00184
1.00555
1.01124
1.02985
1.07799
1.17636
1.53309
2.34534
2.64745
2.71855
2.71289
2.70898
2.72141
2.72785
2.7411
2.74938
2.75398
2.75684
2.75777
1
1.00003
1.00005
1.00016
1.00029
1.00092
1.0017
1.00504
1.01048
1.02711
1.07285
1.161
1.50398
2.28247
2.6224
2.71482
2.70821
2.70273
2.71481
2.72234
2.72851
2.73451
2.73826
2.73943
2.73716
1
1.00002
1.00004
1.00015
1.00027
1.00085
1.00156
1.00465
1.00954
1.02498
1.06594
1.14807
1.45196
2.18875
2.58931
2.70708
2.6995
2.69097
2.70108
2.71088
2.71898
2.7201
2.7215
2.7197
2.71519
1
1.00002
1.00004
1.00013
1.00024
1.00078
1.00141
1.00439
1.00845
1.02363
1.05623
1.13351
1.38706
2.06457
2.54743
2.69847
2.69128
2.68012
2.68891
2.6928
2.69997
2.70031
2.69644
2.68751
2.66422
1
1.00002
1.00004
1.00012
1.00021
1.00067
1.00124
1.00379
1.0074
1.02064
1.04808
1.11793
1.32435
1.94545
2.48002
2.67043
2.66828
2.66207
2.67564
2.67714
2.68041
2.67746
2.6665
2.64397
2.59264
1.00001
1.00003
1.00006
1.00021
1.00037
1.00119
1.00218
1.00663
1.01327
1.03562
1.09056
1.21409
1.61176
2.48577
2.70326
2.72834
2.72593
2.72671
2.74017
2.75218
2.76555
2.77404
2.7811
2.78591
2.78979
1.00001
1.00003
1.00006
1.0002
1.00037
1.00118
1.00216
1.00657
1.01314
1.03531
1.0896
1.21185
1.6064
2.47816
2.70014
2.72782
2.72528
2.72582
2.73925
2.75106
2.76443
2.77251
2.77959
2.78377
2.78689
1.00001
1.00003
1.00006
1.0002
1.00036
1.00116
1.00211
1.00646
1.01286
1.03467
1.08763
1.2072
1.59484
2.46111
2.69256
2.72616
2.72341
2.72377
2.73733
2.74861
2.76192
2.77019
2.77666
2.78034
2.78254
1.00001
1.00003
1.00006
1.00019
1.00035
1.00112
1.00205
1.00624
1.01245
1.03353
1.08517
1.19934
1.5797
2.43511
2.68174
2.72411
2.72027
2.72032
2.73302
2.74486
2.75643
2.76432
2.77196
2.77598
2.77794
1
1.00003
1.00006
1.00019
1.00034
1.00107
1.00195
1.00596
1.0119
1.032
1.08192
1.1889
1.55937
2.39753
2.66699
2.72174
2.71663
2.7157
2.72711
2.7388
2.75166
2.75746
2.76213
2.76605
2.76726
1
1.00003
1.00005
1.00017
1.00032
1.001
1.00184
1.00555
1.01124
1.02986
1.07799
1.17637
1.53309
2.34535
2.64745
2.71855
2.71289
2.70898
2.72141
2.72785
2.7411
2.74938
2.75398
2.75684
2.75777
1
1.00003
1.00005
1.00016
1.00029
1.00092
1.0017
1.00504
1.01048
1.02711
1.07285
1.161
1.50398
2.28248
2.6224
2.71482
2.70821
2.70273
2.71481
2.72234
2.72851
2.73451
2.73826
2.73943
2.73716
1
1.00002
1.00004
1.00015
1.00027
1.00085
1.00156
1.00465
1.00954
1.02498
1.06594
1.14808
1.45198
2.18877
2.58931
2.70708
2.6995
2.69097
2.70108
2.71088
2.71898
2.7201
2.72151
2.7197
2.71519
1
1.00002
1.00004
1.00013
1.00024
1.00078
1.00141
1.00439
1.00845
1.02363
1.05623
1.13352
1.38707
2.06459
2.54744
2.69847
2.69128
2.68012
2.68891
2.69281
2.69998
2.70031
2.69644
2.68751
2.66423
1
1.00002
1.00004
1.00012
1.00021
1.00067
1.00124
1.00379
1.0074
1.02064
1.04808
1.11793
1.32436
1.94548
2.48003
2.67044
2.66829
2.66207
2.67564
2.67714
2.68042
2.67746
2.6665
2.64397
2.59264
1.00001
1.00003
1.00006
1.00021
1.00037
1.00119
1.00218
1.00663
1.01327
1.03562
1.09056
1.21409
1.61176
2.48577
2.70326
2.72834
2.72593
2.72671
2.74017
2.75218
2.76555
2.77404
2.7811
2.78591
2.78979
1.00001
1.00003
1.00006
1.0002
1.00037
1.00118
1.00216
1.00657
1.01314
1.03531
1.0896
1.21185
1.6064
2.47816
2.70014
2.72782
2.72528
2.72582
2.73925
2.75106
2.76443
2.77251
2.77959
2.78377
2.78689
1.00001
1.00003
1.00006
1.0002
1.00036
1.00116
1.00211
1.00646
1.01286
1.03467
1.08763
1.20721
1.59485
2.46111
2.69256
2.72616
2.72341
2.72377
2.73733
2.74861
2.76192
2.77019
2.77666
2.78034
2.78254
1.00001
1.00003
1.00006
1.00019
1.00035
1.00112
1.00205
1.00624
1.01245
1.03353
1.08517
1.19935
1.5797
2.43511
2.68174
2.72411
2.72027
2.72032
2.73302
2.74486
2.75643
2.76432
2.77196
2.77598
2.77794
1
1.00003
1.00006
1.00019
1.00034
1.00107
1.00195
1.00596
1.0119
1.032
1.08192
1.1889
1.55937
2.39753
2.66699
2.72174
2.71663
2.7157
2.72711
2.7388
2.75166
2.75746
2.76213
2.76605
2.76726
1
1.00003
1.00005
1.00017
1.00032
1.001
1.00184
1.00555
1.01124
1.02986
1.07799
1.17637
1.53309
2.34536
2.64745
2.71855
2.71289
2.70898
2.72141
2.72785
2.7411
2.74938
2.75398
2.75684
2.75777
1
1.00003
1.00005
1.00016
1.00029
1.00092
1.0017
1.00504
1.01048
1.02711
1.07285
1.161
1.50398
2.28249
2.6224
2.71482
2.70821
2.70273
2.71481
2.72234
2.72851
2.73451
2.73826
2.73943
2.73716
1
1.00002
1.00004
1.00015
1.00027
1.00085
1.00156
1.00465
1.00954
1.02498
1.06594
1.14808
1.45198
2.18877
2.58931
2.70708
2.6995
2.69097
2.70108
2.71088
2.71898
2.7201
2.72151
2.7197
2.71519
1
1.00002
1.00004
1.00013
1.00024
1.00078
1.00141
1.00439
1.00845
1.02363
1.05623
1.13352
1.38707
2.0646
2.54744
2.69847
2.69128
2.68012
2.68891
2.69281
2.69998
2.70031
2.69644
2.68751
2.66423
1
1.00002
1.00004
1.00012
1.00021
1.00067
1.00124
1.00379
1.0074
1.02064
1.04808
1.11794
1.32437
1.94548
2.48003
2.67044
2.66829
2.66207
2.67564
2.67714
2.68042
2.67746
2.6665
2.64397
2.59264
1.00001
1.00003
1.00006
1.00021
1.00037
1.00119
1.00218
1.00663
1.01327
1.03562
1.09056
1.21409
1.61176
2.48577
2.70326
2.72834
2.72593
2.72671
2.74017
2.75218
2.76555
2.77404
2.7811
2.78591
2.78979
1.00001
1.00003
1.00006
1.0002
1.00037
1.00118
1.00216
1.00657
1.01314
1.03531
1.0896
1.21185
1.6064
2.47816
2.70014
2.72782
2.72528
2.72582
2.73925
2.75106
2.76443
2.77251
2.77959
2.78377
2.78689
1.00001
1.00003
1.00006
1.0002
1.00036
1.00116
1.00211
1.00646
1.01286
1.03467
1.08763
1.20721
1.59485
2.46111
2.69256
2.72616
2.72341
2.72377
2.73733
2.74861
2.76192
2.77019
2.77666
2.78034
2.78254
1.00001
1.00003
1.00006
1.00019
1.00035
1.00112
1.00205
1.00624
1.01245
1.03353
1.08517
1.19935
1.5797
2.43511
2.68174
2.72411
2.72027
2.72032
2.73302
2.74486
2.75643
2.76432
2.77196
2.77598
2.77794
1
1.00003
1.00006
1.00019
1.00034
1.00107
1.00195
1.00596
1.0119
1.032
1.08192
1.1889
1.55937
2.39753
2.66699
2.72174
2.71663
2.7157
2.72711
2.7388
2.75166
2.75746
2.76213
2.76605
2.76726
1
1.00003
1.00005
1.00017
1.00032
1.001
1.00184
1.00555
1.01124
1.02986
1.07799
1.17637
1.53309
2.34536
2.64745
2.71855
2.71289
2.70898
2.72141
2.72785
2.7411
2.74938
2.75398
2.75684
2.75777
1
1.00003
1.00005
1.00016
1.00029
1.00092
1.0017
1.00504
1.01048
1.02711
1.07285
1.161
1.50398
2.28249
2.6224
2.71482
2.70821
2.70273
2.71481
2.72234
2.72851
2.73451
2.73826
2.73943
2.73716
1
1.00002
1.00004
1.00015
1.00027
1.00085
1.00156
1.00465
1.00954
1.02498
1.06594
1.14808
1.45198
2.18878
2.58932
2.70708
2.6995
2.69097
2.70108
2.71088
2.71898
2.7201
2.72151
2.7197
2.71519
1
1.00002
1.00004
1.00013
1.00024
1.00078
1.00141
1.00439
1.00845
1.02363
1.05623
1.13352
1.38708
2.0646
2.54744
2.69847
2.69128
2.68012
2.68891
2.69281
2.69998
2.70031
2.69644
2.68751
2.66423
1
1.00002
1.00004
1.00012
1.00021
1.00067
1.00124
1.00379
1.0074
1.02064
1.04808
1.11794
1.32437
1.94548
2.48003
2.67044
2.66829
2.66207
2.67564
2.67714
2.68042
2.67746
2.6665
2.64397
2.59264
1.00001
1.00003
1.00006
1.00021
1.00037
1.00119
1.00218
1.00663
1.01327
1.03562
1.09056
1.21409
1.61177
2.48577
2.70326
2.72834
2.72593
2.72671
2.74017
2.75218
2.76555
2.77404
2.7811
2.78591
2.78979
1.00001
1.00003
1.00006
1.0002
1.00037
1.00118
1.00216
1.00657
1.01314
1.03531
1.0896
1.21185
1.6064
2.47817
2.70014
2.72782
2.72528
2.72582
2.73925
2.75106
2.76443
2.77251
2.77959
2.78377
2.78689
1.00001
1.00003
1.00006
1.0002
1.00036
1.00116
1.00211
1.00646
1.01286
1.03467
1.08763
1.20721
1.59485
2.46111
2.69256
2.72616
2.72341
2.72377
2.73733
2.74861
2.76192
2.77019
2.77666
2.78034
2.78254
1.00001
1.00003
1.00006
1.00019
1.00035
1.00112
1.00205
1.00624
1.01245
1.03353
1.08517
1.19935
1.5797
2.43511
2.68174
2.72411
2.72027
2.72032
2.73302
2.74486
2.75643
2.76432
2.77196
2.77598
2.77794
1
1.00003
1.00006
1.00019
1.00034
1.00107
1.00195
1.00596
1.0119
1.032
1.08192
1.1889
1.55937
2.39753
2.66699
2.72174
2.71663
2.7157
2.72711
2.7388
2.75166
2.75746
2.76213
2.76605
2.76726
1
1.00003
1.00005
1.00017
1.00032
1.001
1.00184
1.00555
1.01124
1.02986
1.07799
1.17637
1.53309
2.34536
2.64745
2.71855
2.71289
2.70898
2.72141
2.72785
2.7411
2.74938
2.75398
2.75684
2.75777
1
1.00003
1.00005
1.00016
1.00029
1.00092
1.0017
1.00504
1.01048
1.02711
1.07285
1.161
1.50399
2.28249
2.6224
2.71482
2.70821
2.70273
2.71481
2.72234
2.72851
2.73451
2.73826
2.73944
2.73716
1
1.00002
1.00004
1.00015
1.00027
1.00085
1.00156
1.00465
1.00954
1.02498
1.06594
1.14808
1.45198
2.18878
2.58932
2.70708
2.6995
2.69097
2.70108
2.71088
2.71898
2.7201
2.72151
2.7197
2.71519
1
1.00002
1.00004
1.00013
1.00024
1.00078
1.00141
1.00439
1.00845
1.02363
1.05623
1.13352
1.38708
2.0646
2.54744
2.69847
2.69128
2.68012
2.68891
2.69281
2.69998
2.70031
2.69644
2.68751
2.66423
1
1.00002
1.00004
1.00012
1.00021
1.00067
1.00124
1.00379
1.0074
1.02064
1.04808
1.11794
1.32437
1.94548
2.48003
2.67044
2.66829
2.66207
2.67564
2.67714
2.68042
2.67746
2.6665
2.64397
2.59264
1.00001
1.00003
1.00006
1.00021
1.00037
1.00119
1.00218
1.00663
1.01327
1.03562
1.09056
1.21409
1.61176
2.48577
2.70326
2.72834
2.72593
2.72671
2.74017
2.75218
2.76555
2.77404
2.7811
2.78591
2.78979
1.00001
1.00003
1.00006
1.0002
1.00037
1.00118
1.00216
1.00657
1.01314
1.03531
1.0896
1.21185
1.6064
2.47816
2.70014
2.72782
2.72528
2.72582
2.73925
2.75106
2.76443
2.77251
2.77959
2.78377
2.78689
1.00001
1.00003
1.00006
1.0002
1.00036
1.00116
1.00211
1.00646
1.01286
1.03467
1.08763
1.20721
1.59485
2.46111
2.69256
2.72616
2.72341
2.72377
2.73733
2.74861
2.76192
2.77019
2.77666
2.78034
2.78254
1.00001
1.00003
1.00006
1.00019
1.00035
1.00112
1.00205
1.00624
1.01245
1.03353
1.08517
1.19935
1.5797
2.43511
2.68174
2.72411
2.72027
2.72032
2.73302
2.74486
2.75643
2.76432
2.77196
2.77598
2.77794
1
1.00003
1.00006
1.00019
1.00034
1.00107
1.00195
1.00596
1.0119
1.032
1.08192
1.1889
1.55937
2.39753
2.66699
2.72174
2.71663
2.7157
2.72711
2.7388
2.75166
2.75746
2.76213
2.76605
2.76726
1
1.00003
1.00005
1.00017
1.00032
1.001
1.00184
1.00555
1.01124
1.02986
1.07799
1.17637
1.53309
2.34536
2.64745
2.71855
2.71289
2.70898
2.72141
2.72785
2.7411
2.74938
2.75398
2.75684
2.75777
1
1.00003
1.00005
1.00016
1.00029
1.00092
1.0017
1.00504
1.01048
1.02711
1.07285
1.161
1.50398
2.28249
2.6224
2.71482
2.70821
2.70273
2.71481
2.72234
2.72851
2.73451
2.73826
2.73943
2.73716
1
1.00002
1.00004
1.00015
1.00027
1.00085
1.00156
1.00465
1.00954
1.02498
1.06594
1.14808
1.45198
2.18878
2.58931
2.70708
2.6995
2.69097
2.70108
2.71088
2.71898
2.7201
2.72151
2.7197
2.71519
1
1.00002
1.00004
1.00013
1.00024
1.00078
1.00141
1.00439
1.00845
1.02363
1.05623
1.13352
1.38707
2.0646
2.54744
2.69847
2.69128
2.68012
2.68891
2.69281
2.69998
2.70031
2.69644
2.68751
2.66423
1
1.00002
1.00004
1.00012
1.00021
1.00067
1.00124
1.00379
1.0074
1.02064
1.04808
1.11794
1.32437
1.94548
2.48003
2.67044
2.66829
2.66207
2.67564
2.67714
2.68042
2.67746
2.6665
2.64397
2.59264
1.00001
1.00003
1.00006
1.00021
1.00037
1.00119
1.00218
1.00663
1.01327
1.03562
1.09056
1.21409
1.61176
2.48577
2.70326
2.72834
2.72593
2.72671
2.74017
2.75218
2.76555
2.77404
2.7811
2.78591
2.78979
1.00001
1.00003
1.00006
1.0002
1.00037
1.00118
1.00216
1.00657
1.01314
1.03531
1.0896
1.21185
1.6064
2.47816
2.70014
2.72782
2.72528
2.72582
2.73925
2.75106
2.76443
2.77251
2.77959
2.78377
2.78689
1.00001
1.00003
1.00006
1.0002
1.00036
1.00116
1.00211
1.00646
1.01286
1.03467
1.08763
1.2072
1.59484
2.46111
2.69256
2.72616
2.72341
2.72377
2.73733
2.74861
2.76192
2.77019
2.77666
2.78034
2.78254
1.00001
1.00003
1.00006
1.00019
1.00035
1.00112
1.00205
1.00624
1.01245
1.03353
1.08517
1.19934
1.5797
2.43511
2.68174
2.72411
2.72027
2.72032
2.73302
2.74486
2.75643
2.76432
2.77196
2.77598
2.77794
1
1.00003
1.00006
1.00019
1.00034
1.00107
1.00195
1.00596
1.0119
1.032
1.08192
1.1889
1.55937
2.39753
2.66699
2.72174
2.71663
2.7157
2.72711
2.7388
2.75166
2.75746
2.76213
2.76605
2.76726
1
1.00003
1.00005
1.00017
1.00032
1.001
1.00184
1.00555
1.01124
1.02986
1.07799
1.17637
1.53309
2.34535
2.64745
2.71855
2.71289
2.70898
2.72141
2.72785
2.7411
2.74938
2.75398
2.75684
2.75777
1
1.00003
1.00005
1.00016
1.00029
1.00092
1.0017
1.00504
1.01048
1.02711
1.07285
1.161
1.50398
2.28248
2.6224
2.71482
2.70821
2.70273
2.71481
2.72234
2.72851
2.73451
2.73826
2.73943
2.73716
1
1.00002
1.00004
1.00015
1.00027
1.00085
1.00156
1.00465
1.00954
1.02498
1.06594
1.14808
1.45198
2.18877
2.58931
2.70708
2.6995
2.69097
2.70108
2.71088
2.71898
2.7201
2.72151
2.7197
2.71519
1
1.00002
1.00004
1.00013
1.00024
1.00078
1.00141
1.00439
1.00845
1.02363
1.05623
1.13352
1.38707
2.06459
2.54744
2.69847
2.69128
2.68012
2.68891
2.69281
2.69998
2.70031
2.69644
2.68751
2.66423
1
1.00002
1.00004
1.00012
1.00021
1.00067
1.00124
1.00379
1.0074
1.02064
1.04808
1.11793
1.32436
1.94548
2.48003
2.67044
2.66829
2.66207
2.67564
2.67714
2.68042
2.67746
2.6665
2.64397
2.59264
1.00001
1.00003
1.00006
1.00021
1.00037
1.00119
1.00218
1.00663
1.01327
1.03562
1.09056
1.21408
1.61175
2.48576
2.70326
2.72834
2.72593
2.72671
2.74017
2.75218
2.76555
2.77403
2.7811
2.78591
2.78978
1.00001
1.00003
1.00006
1.0002
1.00037
1.00118
1.00216
1.00657
1.01314
1.03531
1.0896
1.21184
1.60639
2.47815
2.70014
2.72782
2.72528
2.72581
2.73924
2.75106
2.76443
2.77251
2.77959
2.78377
2.78689
1.00001
1.00003
1.00006
1.0002
1.00036
1.00116
1.00211
1.00646
1.01286
1.03467
1.08763
1.2072
1.59484
2.4611
2.69255
2.72616
2.72341
2.72377
2.73733
2.74861
2.76192
2.77019
2.77666
2.78034
2.78254
1.00001
1.00003
1.00006
1.00019
1.00035
1.00112
1.00205
1.00624
1.01245
1.03353
1.08517
1.19934
1.57969
2.4351
2.68174
2.72411
2.72027
2.72032
2.73302
2.74486
2.75643
2.76432
2.77195
2.77597
2.77794
1
1.00003
1.00006
1.00019
1.00034
1.00107
1.00195
1.00596
1.0119
1.032
1.08192
1.1889
1.55936
2.39751
2.66699
2.72174
2.71663
2.7157
2.7271
2.7388
2.75166
2.75746
2.76213
2.76605
2.76726
1
1.00003
1.00005
1.00017
1.00032
1.001
1.00184
1.00555
1.01124
1.02985
1.07799
1.17636
1.53309
2.34534
2.64745
2.71855
2.71289
2.70898
2.72141
2.72785
2.7411
2.74938
2.75398
2.75684
2.75777
1
1.00003
1.00005
1.00016
1.00029
1.00092
1.0017
1.00504
1.01048
1.02711
1.07285
1.161
1.50398
2.28247
2.6224
2.71482
2.70821
2.70273
2.71481
2.72234
2.72851
2.73451
2.73826
2.73943
2.73716
1
1.00002
1.00004
1.00015
1.00027
1.00085
1.00156
1.00465
1.00954
1.02498
1.06594
1.14807
1.45196
2.18875
2.58931
2.70708
2.6995
2.69097
2.70108
2.71088
2.71898
2.7201
2.7215
2.7197
2.71519
1
1.00002
1.00004
1.00013
1.00024
1.00078
1.00141
1.00439
1.00845
1.02363
1.05623
1.13351
1.38706
2.06457
2.54743
2.69847
2.69128
2.68012
2.68891
2.6928
2.69997
2.70031
2.69644
2.68751
2.66422
1
1.00002
1.00004
1.00012
1.00021
1.00067
1.00124
1.00379
1.0074
1.02064
1.04808
1.11793
1.32435
1.94545
2.48002
2.67043
2.66828
2.66207
2.67564
2.67714
2.68041
2.67746
2.6665
2.64397
2.59264
0.999997
1.00003
1.00005
1.0002
1.00037
1.00118
1.00217
1.00662
1.01326
1.0356
1.09053
1.21403
1.61162
2.48554
2.70313
2.72826
2.72584
2.72661
2.74007
2.75207
2.76545
2.77394
2.78101
2.78583
2.7897
0.999997
1.00003
1.00005
1.0002
1.00036
1.00117
1.00215
1.00656
1.01313
1.03529
1.08958
1.21179
1.60627
2.47793
2.7
2.72774
2.72519
2.72572
2.73915
2.75096
2.76434
2.77243
2.77951
2.78368
2.78681
0.999996
1.00002
1.00005
1.00019
1.00036
1.00115
1.0021
1.00644
1.01285
1.03465
1.08761
1.20714
1.59472
2.46089
2.69242
2.72608
2.72332
2.72368
2.73724
2.74852
2.76183
2.7701
2.77657
2.78026
2.78246
0.999996
1.00002
1.00005
1.00019
1.00034
1.00111
1.00204
1.00623
1.01244
1.03351
1.08515
1.19927
1.57962
2.43491
2.68162
2.72404
2.72019
2.72024
2.73294
2.74478
2.75634
2.76424
2.77187
2.77589
2.77786
0.999996
1.00002
1.00005
1.00018
1.00033
1.00106
1.00195
1.00595
1.01189
1.03198
1.0819
1.18884
1.55929
2.39732
2.66688
2.72167
2.71656
2.71562
2.72703
2.73871
2.75157
2.75738
2.76205
2.76597
2.76718
0.999996
1.00002
1.00004
1.00017
1.00031
1.00099
1.00183
1.00554
1.01123
1.02983
1.07799
1.17631
1.53303
2.34515
2.64734
2.71849
2.71281
2.70891
2.72133
2.72777
2.74103
2.7493
2.75391
2.75676
2.75769
0.999995
1.00002
1.00004
1.00015
1.00028
1.00091
1.00169
1.00503
1.01047
1.02709
1.07282
1.16094
1.5039
2.28225
2.6223
2.71475
2.70814
2.70266
2.71474
2.72226
2.72844
2.73444
2.73819
2.73935
2.73708
0.999995
1.00002
1.00004
1.00014
1.00026
1.00084
1.00155
1.00464
1.00953
1.02496
1.06593
1.14802
1.45189
2.18852
2.5892
2.70701
2.69943
2.6909
2.70101
2.71081
2.7189
2.72002
2.72143
2.71962
2.71511
0.999995
1.00001
1.00003
1.00013
1.00024
1.00077
1.0014
1.00438
1.00844
1.02361
1.05621
1.13346
1.38697
2.06432
2.54732
2.69839
2.6912
2.68004
2.68883
2.69272
2.6999
2.70024
2.69637
2.68744
2.66415
0.999995
1.00001
1.00003
1.00011
1.00021
1.00066
1.00123
1.00378
1.00739
1.02062
1.04806
1.11789
1.32427
1.94518
2.47991
2.67036
2.66821
2.662
2.67557
2.67706
2.68034
2.67739
2.66643
2.6439
2.59257
0.999997
1
1.00003
1.00007
1.00023
1.00043
1.00133
1.00258
1.00709
1.01633
1.03951
1.1123
1.2547
1.6985
2.49405
2.65182
2.63847
2.63858
2.64787
2.65489
2.65473
2.64763
2.62668
2.57602
2.415
0.999997
1
1.00003
1.00006
1.00021
1.00038
1.00123
1.00225
1.00687
1.0137
1.03687
1.09276
1.22217
1.61883
2.45126
2.629
2.62731
2.62243
2.62334
2.63071
2.62946
2.61633
2.58469
2.52656
2.36907
0.999996
1
1.00002
1.00005
1.00018
1.00033
1.00106
1.00193
1.00592
1.01172
1.03171
1.07995
1.18607
1.5427
2.34547
2.58522
2.62114
2.6152
2.6018
2.60308
2.60061
2.58583
2.54667
2.4939
2.37372
0.999996
1
1.00002
1.00004
1.00015
1.00027
1.00087
1.00161
1.00476
1.00995
1.02554
1.06871
1.15099
1.47294
2.19058
2.53411
2.61914
2.60818
2.59655
2.57888
2.57058
2.55443
2.51965
2.47602
2.38242
0.999995
0.999998
1.00001
1.00003
1.00012
1.00023
1.00073
1.00135
1.00417
1.00816
1.02254
1.05397
1.12921
1.36565
2.03671
2.43092
2.59938
2.59255
2.58583
2.57055
2.54702
2.52747
2.48677
2.45703
2.392
0.999994
0.999999
1.00001
1.00003
1.00007
1.00023
1.00043
1.00132
1.0026
1.00702
1.01657
1.03943
1.11247
1.25453
1.69319
2.37506
2.5568
2.55603
2.5569
2.55154
2.53453
2.51374
2.46986
2.42746
2.388
0.999994
0.999998
1
1.00003
1.00006
1.0002
1.00036
1.00116
1.00211
1.0065
1.01277
1.03467
1.08593
1.20439
1.57377
2.32561
2.52831
2.53445
2.5294
2.5251
2.51412
2.50074
2.46926
2.42106
2.37782
0.999994
0.999997
1
1.00002
1.00004
1.00015
1.00028
1.00087
1.00165
1.00471
1.01027
1.02569
1.07076
1.15415
1.48303
2.20085
2.46979
2.52784
2.51221
2.50704
2.49366
2.47792
2.46222
2.42646
2.38082
0.999994
0.999995
1
1.00001
1.00004
1.00008
1.00027
1.00052
1.00147
1.00322
1.00798
1.02134
1.04738
1.14286
1.3226
1.92596
2.37286
2.51369
2.5074
2.49542
2.48566
2.46541
2.44804
2.42596
2.38999
0.999993
0.999994
0.999998
1
1.00003
1.00006
1.00022
1.00041
1.00128
1.00239
1.00708
1.01471
1.03804
1.09799
1.23632
1.60816
2.29069
2.47179
2.48393
2.47937
2.46946
2.45764
2.43953
2.42298
2.40061
0.999992
0.999994
0.999995
1
1.00001
1.00006
1.00012
1.00039
1.00074
1.00216
1.00452
1.01161
1.02987
1.06783
1.19874
1.47795
2.13859
2.43992
2.47929
2.46959
2.46032
2.44789
2.43466
2.42372
2.40962
0.999992
0.999993
0.999994
1
1.00001
1.00005
1.00009
1.00031
1.00057
1.00176
1.00338
1.00935
1.02156
1.0517
1.14822
1.34525
1.88277
2.34293
2.4695
2.46686
2.4574
2.44895
2.43695
2.4291
2.41972
0.999992
0.999992
0.999994
0.999997
1.00001
1.00002
1.00009
1.00017
1.00055
1.00104
1.00313
1.00617
1.01717
1.03821
1.09864
1.24289
1.72655
2.18374
2.42811
2.4552
2.45769
2.45304
2.44693
2.43982
2.42895
0.999992
0.999992
0.999993
0.999995
1
1.00001
1.00007
1.00013
1.00041
1.00077
1.00235
1.00452
1.01269
1.02859
1.0691
1.18872
1.4848
2.08181
2.37866
2.44629
2.45516
2.46381
2.46193
2.45617
2.4452
0.999991
0.999992
0.999992
0.999995
0.999998
1.00001
1.00003
1.00012
1.00023
1.00073
1.00138
1.00406
1.00836
1.02174
1.05566
1.12651
1.36439
1.94728
2.30533
2.44951
2.46409
2.47457
2.47348
2.46725
2.45513
0.999991
0.999991
0.999992
0.999994
0.999997
1.00001
1.00002
1.00009
1.00017
1.00056
1.00103
1.00317
1.00609
1.01745
1.03734
1.09941
1.23801
1.73913
2.17066
2.42697
2.47251
2.48053
2.48447
2.47886
2.46606
0.999991
0.999991
0.999992
0.999993
0.999996
1
1.00002
1.00005
1.00016
1.00031
1.00097
1.00185
1.00529
1.01134
1.02866
1.07727
1.16937
1.51019
2.17606
2.42486
2.4978
2.4952
2.49126
2.4828
2.46609
0.999991
0.999991
0.999992
0.999992
0.999995
0.999999
1.00002
1.00004
1.00013
1.00024
1.00078
1.00144
1.00442
1.00867
1.02383
1.05711
1.13609
1.38402
2.04942
2.39023
2.53302
2.52864
2.511
2.49292
2.46808
0.999991
0.999991
0.999991
0.999992
0.999993
0.999998
1
1.00003
1.00007
1.00023
1.00045
1.00134
1.00272
1.00711
1.01743
1.04042
1.11645
1.26705
1.69355
2.38664
2.56227
2.55701
2.52835
2.50135
2.47191
0.999991
0.999991
0.999991
0.999992
0.999993
0.999996
1.00001
1.00002
1.00008
1.00015
1.00048
1.00091
1.00271
1.00559
1.01479
1.03726
1.08636
1.24795
1.64921
2.33982
2.61623
2.61456
2.57443
2.52698
2.48411
0.999991
0.999991
0.999991
0.999991
0.999993
0.999995
1
1.00001
1.00006
1.00012
1.0004
1.00076
1.00219
1.00473
1.01197
1.03211
1.07177
1.21868
1.53895
2.25104
2.60582
2.65929
2.62054
2.58063
2.52774
0.999991
0.999991
0.999991
0.999992
0.999992
0.999995
0.999999
1.00002
1.00004
1.00014
1.00027
1.00086
1.00166
1.00468
1.01053
1.02601
1.07325
1.15871
1.50655
2.24962
2.57782
2.67639
2.63587
2.59822
2.55409
0.999991
0.999991
0.999991
0.999991
0.999992
0.999995
0.999998
1.00002
1.00003
1.00013
1.00025
1.00081
1.00147
1.00462
1.00898
1.02491
1.06115
1.14339
1.42588
2.14025
2.57412
2.69959
2.66127
2.61723
2.5783
0.999991
0.999991
0.999991
0.999991
0.999992
0.999995
0.999998
1.00001
1.00003
1.00012
1.00022
1.00072
1.00131
1.0041
1.00793
1.02238
1.0525
1.12721
1.36365
2.00633
2.55744
2.71552
2.68096
2.62828
2.5943
0.999991
0.999991
0.999991
0.999991
0.999992
0.999994
0.999997
1.00001
1.00003
1.0001
1.00019
1.00063
1.00117
1.0036
1.00709
1.01986
1.04634
1.11451
1.31523
1.91946
2.50589
2.71173
2.68503
2.63922
2.60939
0.999991
0.999991
0.999991
0.999991
0.999992
0.999993
0.999998
1
1.00003
1.00006
1.00021
1.00042
1.0012
1.00261
1.00656
1.0173
1.03928
1.11708
1.26304
1.72932
2.56143
2.72746
2.69654
2.65626
2.62613
0.999991
0.999991
0.999991
0.999991
0.999992
0.999993
0.999996
1.00001
1.00002
1.00008
1.00015
1.00048
1.00095
1.00264
1.00611
1.01499
1.04156
1.09212
1.27837
1.74791
2.48292
2.72963
2.69835
2.68343
2.64899
0.999991
0.999991
0.999991
0.999991
0.999992
0.999993
0.999997
1
1.00003
1.00006
1.0002
1.00037
1.00117
1.00224
1.00649
1.01417
1.03616
1.0992
1.22985
1.65958
2.51586
2.71689
2.71035
2.68568
2.65181
0.999991
0.999991
0.999991
0.999991
0.999992
0.999992
0.999996
1
1.00002
1.00005
1.00018
1.00034
1.00108
1.00207
1.00608
1.01309
1.03398
1.09227
1.21459
1.62489
2.48658
2.7206
2.71794
2.69256
2.65718
0.999991
0.999991
0.999991
0.999991
0.999991
0.999993
0.999994
1
1.00001
1.00006
1.00012
1.00035
1.00077
1.00197
1.00517
1.01182
1.03466
1.07324
1.24097
1.57884
2.37607
2.72134
2.73371
2.70851
2.67225
0.999991
0.999991
0.999991
0.999991
0.999992
0.999992
0.999995
0.999999
1.00002
1.00004
1.00015
1.00029
1.00088
1.00186
1.00488
1.01236
1.02902
1.08577
1.18536
1.58847
2.40106
2.70645
2.7331
2.70957
2.67295
0.999991
0.999991
0.999991
0.999991
0.999991
0.999993
0.999994
1
1.00001
1.00005
1.00011
1.00035
1.00069
1.00193
1.00449
1.01089
1.03098
1.06708
1.21838
1.51104
2.29015
2.71874
2.74653
2.71957
2.67775
0.999991
0.999991
0.999991
0.999991
0.999991
0.999992
0.999994
1
1.00001
1.00005
1.0001
1.00033
1.00065
1.00181
1.00423
1.01026
1.02927
1.06356
1.20796
1.48503
2.24729
2.71279
2.75173
2.72539
2.68288
0.999991
0.999991
0.999991
0.999991
0.999991
0.999992
0.999995
0.999998
1.00001
1.00003
1.00012
1.00025
1.0007
1.00161
1.00402
1.0109
1.02493
1.07528
1.15886
1.53427
2.28286
2.70738
2.74914
2.72262
2.67786
0.999991
0.999991
0.999991
0.999991
0.999991
0.999992
0.999994
0.999999
1.00001
1.00004
1.00009
1.00026
1.0006
1.0015
1.00407
1.00917
1.02728
1.05741
1.19143
1.44263
2.18074
2.72762
2.76466
2.73461
2.68417
0.999991
0.999991
0.999991
0.999991
0.999991
0.999992
0.999994
0.999997
1.00001
1.00003
1.00011
1.00023
1.00064
1.00148
1.00363
1.01002
1.0226
1.06904
1.14495
1.4921
2.20547
2.72894
2.76107
2.7318
2.67891
0.999991
0.999991
0.999991
0.999991
0.999991
0.999992
0.999993
0.999999
1.00001
1.00004
1.00008
1.00028
1.00055
1.00156
1.00361
1.00884
1.02504
1.05516
1.1775
1.4138
2.10657
2.74916
2.76806
2.7335
2.67703
0.999991
0.999991
0.999991
0.999991
0.999991
0.999992
0.999993
0.999999
1.00001
1.00004
1.00008
1.00027
1.00054
1.00152
1.00348
1.00853
1.02423
1.05337
1.17232
1.40223
2.07432
2.75432
2.76688
2.72994
2.67476
0.999991
0.999991
0.999991
0.999991
0.999991
0.999992
0.999994
0.999997
1.00001
1.00003
1.00012
1.00022
1.0007
1.00138
1.00389
1.00894
1.022
1.06377
1.13789
1.45753
2.15425
2.769
2.76284
2.72846
2.67338
0.999991
0.999991
0.999991
0.999991
0.999991
0.999992
0.999995
0.999998
1.00001
1.00003
1.00012
1.00023
1.00075
1.00138
1.00429
1.00872
1.02314
1.06218
1.13918
1.44611
2.14666
2.77485
2.76494
2.72774
2.67258
1.00001
1.00001
1.00004
1.00008
1.00024
1.00044
1.00133
1.00259
1.0071
1.01634
1.03952
1.11233
1.25477
1.6986
2.49407
2.65191
2.63856
2.63866
2.64795
2.65495
2.6548
2.6477
2.62674
2.57609
2.41505
1
1.00001
1.00004
1.00007
1.00022
1.00039
1.00124
1.00226
1.00689
1.01371
1.03688
1.09279
1.22222
1.61894
2.45139
2.62907
2.62738
2.6225
2.62342
2.63078
2.62953
2.6164
2.58475
2.52662
2.36914
1
1.00001
1.00003
1.00006
1.00019
1.00034
1.00106
1.00194
1.00593
1.01174
1.03173
1.07996
1.18613
1.54278
2.34567
2.58532
2.6212
2.61526
2.60187
2.60316
2.60068
2.58589
2.54673
2.49397
2.37379
1
1.00001
1.00003
1.00005
1.00015
1.00028
1.00088
1.00162
1.00477
1.00996
1.02556
1.06873
1.15105
1.47303
2.1908
2.53422
2.6192
2.60825
2.59662
2.57896
2.57066
2.5545
2.51972
2.47608
2.38249
1
1.00001
1.00002
1.00004
1.00013
1.00024
1.00074
1.00136
1.00418
1.00817
1.02256
1.05399
1.12925
1.36573
2.03691
2.43106
2.59947
2.59263
2.5859
2.57062
2.54711
2.52755
2.48685
2.4571
2.39207
1
1.00001
1.00001
1.00004
1.00008
1.00024
1.00044
1.00133
1.00261
1.00703
1.01659
1.03945
1.1125
1.2546
1.69343
2.37512
2.55688
2.55611
2.55697
2.55161
2.53461
2.51383
2.46996
2.42755
2.38808
1
1.00001
1.00001
1.00004
1.00006
1.0002
1.00037
1.00117
1.00212
1.00651
1.01279
1.03469
1.08595
1.20446
1.57385
2.32576
2.52842
2.53451
2.52948
2.52518
2.51419
2.50082
2.46935
2.42116
2.37792
1
1
1.00001
1.00003
1.00005
1.00016
1.00028
1.00088
1.00166
1.00473
1.01028
1.02571
1.07079
1.15421
1.48311
2.20107
2.4699
2.52791
2.51228
2.50712
2.49376
2.47801
2.46232
2.42656
2.38093
1
1
1.00001
1.00002
1.00005
1.00009
1.00028
1.00053
1.00148
1.00323
1.008
1.02135
1.04741
1.1429