/*--------------------------------*- C++ -*----------------------------------*\
| =========                 |                                                 |
| \\      /  F ield         | OpenFOAM: The Open Source CFD Toolbox           |
|  \\    /   O peration     | Version:  4.1                                   |
|   \\  /    A nd           | Web:      www.OpenFOAM.org                      |
|    \\/     M anipulation  |                                                 |
\*---------------------------------------------------------------------------*/
FoamFile
{
    version     2.0;
    format      ascii;
    class       volVectorField;
    location    "7.84";
    object      U;
}
// * * * * * * * * * * * * * * * * * * * * * * * * * * * * * * * * * * * * * //

dimensions      [0 1 -1 0 0 0 0];

internalField   nonuniform List<vector> 
52500
(
(2.99999 1.40392e-08 -0.00571426)
(2.99998 7.82724e-08 -0.00571442)
(2.99995 2.90414e-07 -0.00571466)
(2.99987 7.46391e-07 -0.00571543)
(2.99971 2.05004e-06 -0.00571684)
(2.99925 4.69219e-06 -0.00572112)
(2.99835 1.21518e-05 -0.00572937)
(2.99557 2.73557e-05 -0.00575261)
(2.99057 6.99289e-05 -0.00580583)
(2.97254 0.000158001 -0.00592136)
(2.93913 0.000405525 -0.00632448)
(2.81745 0.00100993 -0.00695736)
(2.47856 0.00288711 -0.0097047)
(1.68071 0.0073279 -0.0148698)
(0.731575 0.0200207 -0.018004)
(0.523311 0.020865 -0.0184686)
(0.564345 0.0222295 -0.0185012)
(0.56953 0.0244738 -0.0185685)
(0.520129 0.026751 -0.0187469)
(0.434389 0.0290499 -0.0189286)
(0.34898 0.0317698 -0.0191269)
(0.277774 0.0350548 -0.0192969)
(0.206619 0.0385827 -0.0194616)
(0.124908 0.0427661 -0.019624)
(0.0556195 0.0490062 -0.0197873)
(2.99999 4.29237e-08 -0.00571426)
(2.99998 2.38997e-07 -0.00571442)
(2.99995 8.86971e-07 -0.00571466)
(2.99987 2.27712e-06 -0.00571542)
(2.99971 6.25668e-06 -0.00571681)
(2.99926 1.43033e-05 -0.00572104)
(2.99836 3.70931e-05 -0.00572919)
(2.99562 8.31803e-05 -0.00575214)
(2.99068 0.000214128 -0.00580479)
(2.97281 0.000479851 -0.00591882)
(2.93986 0.00125131 -0.00631868)
(2.81934 0.00308477 -0.00694022)
(2.48425 0.00897953 -0.00966921)
(1.69326 0.0227807 -0.0147896)
(0.739231 0.0611494 -0.0179067)
(0.521097 0.0609204 -0.0183975)
(0.563292 0.0624866 -0.0184265)
(0.569014 0.0669291 -0.0184863)
(0.519269 0.0712478 -0.0186565)
(0.433404 0.0755042 -0.0188299)
(0.348008 0.0803649 -0.0190201)
(0.2763 0.0858975 -0.0191789)
(0.20409 0.0911025 -0.0193363)
(0.12104 0.0962786 -0.0194841)
(0.0514675 0.101919 -0.0196305)
(2.99999 7.43197e-08 -0.00571426)
(2.99998 4.13332e-07 -0.00571441)
(2.99995 1.53569e-06 -0.00571465)
(2.99988 3.94504e-06 -0.00571539)
(2.99972 1.0847e-05 -0.00571674)
(2.99928 2.48448e-05 -0.00572088)
(2.9984 6.42154e-05 -0.00572884)
(2.99572 0.000145571 -0.00575122)
(2.99091 0.000366303 -0.00580271)
(2.97339 0.000840546 -0.0059138)
(2.94136 0.00212762 -0.0063067)
(2.82336 0.00523297 -0.00690632)
(2.49652 0.0153775 -0.0095956)
(1.72123 0.0390714 -0.0146338)
(0.757473 0.105791 -0.0177666)
(0.51869 0.103444 -0.0183156)
(0.563753 0.105103 -0.0183403)
(0.571158 0.112707 -0.0183914)
(0.52137 0.12041 -0.018553)
(0.435933 0.128568 -0.0187172)
(0.35114 0.137575 -0.0188973)
(0.279254 0.147381 -0.0190476)
(0.206133 0.156856 -0.0191872)
(0.121791 0.165712 -0.0193344)
(0.0505977 0.173115 -0.0194678)
(3 1.07453e-07 -0.00571426)
(2.99998 5.96661e-07 -0.00571441)
(2.99996 2.22301e-06 -0.00571463)
(2.99988 5.72343e-06 -0.00571534)
(2.99973 1.57765e-05 -0.00571665)
(2.9993 3.63415e-05 -0.00572062)
(2.99846 9.34233e-05 -0.00572829)
(2.99587 0.000217028 -0.00574968)
(2.99126 0.000521984 -0.00579964)
(2.97426 0.00125447 -0.00590547)
(2.94362 0.00301733 -0.0062895)
(2.82949 0.00739903 -0.00685631)
(2.5152 0.021616 -0.00948467)
(1.76464 0.0552903 -0.0143978)
(0.785471 0.151309 -0.0175853)
(0.514871 0.145853 -0.0182259)
(0.565227 0.14725 -0.0182454)
(0.575838 0.157959 -0.0182808)
(0.526527 0.169094 -0.0184327)
(0.442178 0.181468 -0.0185836)
(0.358383 0.195073 -0.0187513)
(0.28666 0.209721 -0.0188963)
(0.212728 0.224124 -0.0190297)
(0.126511 0.237379 -0.0191505)
(0.0519856 0.247073 -0.0192948)
(3 1.33376e-07 -0.00571426)
(2.99998 7.39394e-07 -0.0057144)
(2.99996 2.76008e-06 -0.00571461)
(2.99989 7.10643e-06 -0.00571528)
(2.99975 1.96359e-05 -0.00571651)
(2.99934 4.52806e-05 -0.00572025)
(2.99855 0.000116932 -0.00572754)
(2.99607 0.000270868 -0.00574732)
(2.99177 0.000662468 -0.00579577)
(2.97544 0.00155232 -0.00589278)
(2.94661 0.00399115 -0.00626707)
(2.83762 0.00950488 -0.00679074)
(2.54038 0.0273112 -0.00933745)
(1.82425 0.0714716 -0.0140728)
(0.822791 0.197703 -0.0173598)
(0.509068 0.188177 -0.0181301)
(0.567263 0.188967 -0.0181444)
(0.58251 0.202544 -0.018161)
(0.534157 0.216876 -0.0183014)
(0.451631 0.23332 -0.0184382)
(0.369421 0.251645 -0.0185835)
(0.29819 0.271585 -0.0187006)
(0.22339 0.291711 -0.0188303)
(0.134527 0.31029 -0.0189601)
(0.0554245 0.323064 -0.0190748)
(3 1.44293e-07 -0.00571425)
(2.99998 7.9842e-07 -0.00571439)
(2.99996 2.98241e-06 -0.00571459)
(2.9999 7.6484e-06 -0.00571521)
(2.99976 2.118e-05 -0.00571636)
(2.99938 4.84944e-05 -0.00571983)
(2.99865 0.000127595 -0.00572667)
(2.99632 0.000283957 -0.00574482)
(2.99234 0.000761146 -0.00579085)
(2.97699 0.00163651 -0.00587923)
(2.95042 0.00483006 -0.0062335)
(2.8474 0.0107634 -0.00670743)
(2.57254 0.0349184 -0.00915852)
(1.90019 0.0883793 -0.0136658)
(0.867309 0.247665 -0.0170859)
(0.49935 0.232335 -0.018031)
(0.568915 0.230868 -0.0180386)
(0.590657 0.246743 -0.0180335)
(0.543957 0.26401 -0.0181611)
(0.464211 0.284731 -0.0182829)
(0.384384 0.308301 -0.0184189)
(0.314336 0.334385 -0.0185201)
(0.239101 0.361589 -0.01861)
(0.146868 0.387726 -0.0187108)
(0.0610605 0.405964 -0.0188472)
(3 1.44467e-07 -0.00571425)
(2.99999 7.98361e-07 -0.00571438)
(2.99996 2.97595e-06 -0.00571456)
(2.9999 7.57957e-06 -0.00571514)
(2.99978 2.09728e-05 -0.00571621)
(2.99943 4.73557e-05 -0.00571943)
(2.99875 0.000128021 -0.00572575)
(2.9966 0.000263388 -0.00574269)
(2.9929 0.000825281 -0.00578479)
(2.97877 0.00150031 -0.00586749)
(2.95442 0.00565939 -0.00619071)
(2.86063 0.0112651 -0.00663428)
(2.61298 0.0432899 -0.00884636)
(1.99612 0.104287 -0.0130926)
(0.930824 0.298043 -0.0167254)
(0.496702 0.278584 -0.0178965)
(0.576738 0.273424 -0.0179097)
(0.604868 0.290366 -0.0178823)
(0.559382 0.309926 -0.0179988)
(0.482711 0.335061 -0.018096)
(0.40561 0.364667 -0.0181935)
(0.337129 0.398335 -0.0182827)
(0.261908 0.434796 -0.0183644)
(0.166124 0.471925 -0.0184397)
(0.0710765 0.500601 -0.0185251)
(3 1.58838e-07 -0.00571425)
(2.99999 8.78239e-07 -0.00571436)
(2.99997 3.26825e-06 -0.00571454)
(2.99991 8.34164e-06 -0.00571507)
(2.9998 2.30317e-05 -0.00571606)
(2.99947 5.21514e-05 -0.00571908)
(2.99883 0.000140215 -0.0057248)
(2.9969 0.000290255 -0.0057414)
(2.99337 0.000910899 -0.00577757)
(2.98095 0.00156212 -0.0058601)
(2.95876 0.0064295 -0.00613041)
(2.87617 0.0121056 -0.00655598)
(2.66066 0.0478947 -0.00844814)
(2.11057 0.115093 -0.0123675)
(1.01634 0.340444 -0.0162793)
(0.509941 0.327113 -0.0177169)
(0.595371 0.320297 -0.0177271)
(0.628478 0.335626 -0.0176925)
(0.583591 0.355742 -0.0178188)
(0.510131 0.384805 -0.0179094)
(0.435871 0.420875 -0.0179915)
(0.369481 0.463405 -0.0180185)
(0.295427 0.511771 -0.0180535)
(0.196888 0.565454 -0.0180874)
(0.0887622 0.615229 -0.0181525)
(3 1.86956e-07 -0.00571425)
(2.99999 1.02824e-06 -0.00571435)
(2.99997 3.81801e-06 -0.00571451)
(2.99992 9.7911e-06 -0.00571499)
(2.99982 2.69155e-05 -0.00571587)
(2.99953 6.15585e-05 -0.00571858)
(2.99895 0.000161223 -0.00572371)
(2.99724 0.000354689 -0.00573874)
(2.99397 0.000975918 -0.00577015)
(2.9833 0.00194304 -0.00584826)
(2.96341 0.00643913 -0.00606919)
(2.89268 0.0126973 -0.00647003)
(2.71087 0.0462945 -0.00803334)
(2.23787 0.11241 -0.0115473)
(1.12828 0.342965 -0.0157392)
(0.552683 0.369978 -0.0174788)
(0.62959 0.372212 -0.0175041)
(0.662864 0.382483 -0.0174502)
(0.618864 0.401964 -0.0175651)
(0.549425 0.434362 -0.0176293)
(0.478317 0.47749 -0.0177098)
(0.41465 0.529099 -0.017727)
(0.34461 0.591461 -0.0177004)
(0.248868 0.670574 -0.017636)
(0.123039 0.763927 -0.0175238)
(3 3.43236e-07 -0.00571425)
(2.99999 6.39855e-07 -0.00571434)
(2.99997 5.04672e-06 -0.00571447)
(2.99993 7.55522e-06 -0.00571489)
(2.99984 3.43256e-05 -0.00571567)
(2.99958 4.88978e-05 -0.00571801)
(2.99908 0.000206174 -0.00572255)
(2.99758 0.00027661 -0.00573554)
(2.9947 0.00126149 -0.00576326)
(2.98545 0.0013438 -0.0058316)
(2.9679 0.00849161 -0.0060214)
(2.90732 0.00674245 -0.00638541)
(2.7538 0.0547016 -0.00768933)
(2.3457 0.0855424 -0.0108892)
(1.2553 0.312496 -0.0152211)
(0.616115 0.411754 -0.0171772)
(0.664133 0.432853 -0.0172339)
(0.695419 0.429545 -0.0172515)
(0.659337 0.449239 -0.0173593)
(0.598236 0.48317 -0.0173826)
(0.532595 0.532799 -0.0173907)
(0.474191 0.592935 -0.0173596)
(0.416235 0.673933 -0.0172555)
(0.33888 0.795379 -0.0170413)
(0.189676 1.00239 -0.0166195)
(2.99999 1.4403e-08 -2.63702e-09)
(2.99998 7.82952e-08 -8.61063e-09)
(2.99995 2.90857e-07 -1.0178e-08)
(2.99987 7.46446e-07 -1.59264e-08)
(2.99971 2.04982e-06 -1.63049e-08)
(2.99925 4.69073e-06 -2.15818e-08)
(2.99834 1.21476e-05 -2.21415e-08)
(2.99557 2.7345e-05 -3.01947e-08)
(2.99057 6.99074e-05 -3.20593e-08)
(2.97253 0.000157948 -6.55205e-08)
(2.93911 0.000405458 -4.40722e-08)
(2.81743 0.00100982 -2.16139e-07)
(2.47852 0.00288697 -1.83539e-07)
(1.68061 0.00732799 -6.75941e-07)
(0.731532 0.0200203 -6.66286e-07)
(0.523345 0.0208654 -8.81468e-09)
(0.564365 0.02223 -5.21006e-08)
(0.569541 0.0244744 -1.01957e-07)
(0.520139 0.0267517 -1.06488e-07)
(0.434398 0.0290507 -1.09987e-07)
(0.348988 0.0317707 -1.10363e-07)
(0.27778 0.0350558 -1.13662e-07)
(0.206623 0.0385839 -1.15697e-07)
(0.124908 0.0427675 -1.16618e-07)
(0.0556188 0.0490066 -1.15987e-07)
(2.99999 4.39488e-08 -2.62975e-09)
(2.99998 2.39132e-07 -8.61652e-09)
(2.99995 8.8829e-07 -1.01714e-08)
(2.99987 2.27738e-06 -1.5933e-08)
(2.99971 6.25636e-06 -1.63115e-08)
(2.99926 1.43001e-05 -2.16063e-08)
(2.99836 3.70836e-05 -2.21973e-08)
(2.99562 8.31608e-05 -3.03253e-08)
(2.99068 0.00021408 -3.22793e-08)
(2.97281 0.000479782 -6.61461e-08)
(2.93984 0.00125118 -4.43591e-08)
(2.81932 0.00308473 -2.16945e-07)
(2.4842 0.00897915 -1.83556e-07)
(1.69316 0.0227807 -6.745e-07)
(0.739189 0.0611464 -6.70615e-07)
(0.521132 0.0609194 -4.82519e-09)
(0.563313 0.0624862 -5.0741e-08)
(0.569026 0.0669292 -1.01245e-07)
(0.51928 0.0712486 -1.05499e-07)
(0.433414 0.0755059 -1.08823e-07)
(0.348016 0.0803673 -1.09388e-07)
(0.276306 0.0859003 -1.12808e-07)
(0.204093 0.0911055 -1.1477e-07)
(0.121041 0.0962811 -1.15552e-07)
(0.0514672 0.101919 -1.14998e-07)
(2.99999 7.60413e-08 -2.61653e-09)
(2.99998 4.13318e-07 -8.62596e-09)
(2.99995 1.53691e-06 -1.01593e-08)
(2.99988 3.94243e-06 -1.59443e-08)
(2.99972 1.08374e-05 -1.63198e-08)
(2.99927 2.48146e-05 -2.16398e-08)
(2.9984 6.41451e-05 -2.22695e-08)
(2.99572 0.000145315 -3.04005e-08)
(2.9909 0.00036613 -3.26327e-08)
(2.97338 0.000838962 -6.60054e-08)
(2.94135 0.00212791 -4.51249e-08)
(2.82335 0.00523155 -2.15098e-07)
(2.49648 0.0153786 -1.86754e-07)
(1.72112 0.039073 -6.77929e-07)
(0.757428 0.105789 -6.9338e-07)
(0.518724 0.103445 1.12538e-09)
(0.563772 0.105104 -4.89619e-08)
(0.571169 0.112708 -9.99557e-08)
(0.52138 0.120411 -1.03325e-07)
(0.435942 0.128571 -1.05844e-07)
(0.351148 0.137578 -1.0714e-07)
(0.27926 0.147385 -1.10835e-07)
(0.206138 0.156861 -1.13002e-07)
(0.121793 0.165716 -1.14194e-07)
(0.0505983 0.173115 -1.14676e-07)
(2.99999 1.10249e-07 -2.59544e-09)
(2.99998 5.97351e-07 -8.64701e-09)
(2.99995 2.22835e-06 -1.01557e-08)
(2.99988 5.72273e-06 -1.60046e-08)
(2.99973 1.57859e-05 -1.64585e-08)
(2.9993 3.63436e-05 -2.20197e-08)
(2.99846 9.3431e-05 -2.30102e-08)
(2.99587 0.000217035 -3.40292e-08)
(2.99126 0.000521973 -3.09737e-08)
(2.97425 0.0012548 -9.32115e-08)
(2.94361 0.00301583 -1.35232e-08)
(2.82947 0.00739997 -2.43766e-07)
(2.51516 0.0216135 -1.50116e-07)
(1.76455 0.0552869 -6.76132e-07)
(0.785443 0.151299 -7.12296e-07)
(0.514923 0.145851 1.2421e-08)
(0.565257 0.147251 -4.93005e-08)
(0.575858 0.157961 -1.0062e-07)
(0.526545 0.169097 -1.02117e-07)
(0.442194 0.181473 -1.02388e-07)
(0.358397 0.195079 -1.04474e-07)
(0.286671 0.209727 -1.08308e-07)
(0.212735 0.224131 -1.10496e-07)
(0.126515 0.237385 -1.12305e-07)
(0.0519874 0.247076 -1.14496e-07)
(2.99999 1.36826e-07 -2.56065e-09)
(2.99998 7.41236e-07 -8.66135e-09)
(2.99996 2.76888e-06 -1.00799e-08)
(2.99989 7.10568e-06 -1.60535e-08)
(2.99975 1.96645e-05 -1.61483e-08)
(2.99934 4.53117e-05 -2.1757e-08)
(2.99855 0.000117012 -2.21905e-08)
(2.99607 0.000271113 -3.03917e-08)
(2.99177 0.0006626 -3.30545e-08)
(2.97543 0.00155413 -5.96389e-08)
(2.9466 0.0039891 -7.78868e-08)
(2.8376 0.00950713 -1.77166e-07)
(2.54033 0.0273067 -2.23118e-07)
(1.82413 0.0714656 -7.14907e-07)
(0.822742 0.197686 -7.74888e-07)
(0.509106 0.188172 4.06544e-08)
(0.567283 0.188968 -3.41908e-08)
(0.582523 0.202547 -9.51385e-08)
(0.534172 0.21688 -9.68872e-08)
(0.451647 0.233326 -9.67522e-08)
(0.369436 0.251653 -9.88704e-08)
(0.298203 0.271594 -1.03063e-07)
(0.2234 0.29172 -1.05935e-07)
(0.134533 0.310298 -1.08956e-07)
(0.0554273 0.32307 -1.12548e-07)
(3 1.47427e-07 -2.52633e-09)
(2.99998 8.01005e-07 -8.67108e-09)
(2.99996 2.98679e-06 -1.00302e-08)
(2.99989 7.65249e-06 -1.61808e-08)
(2.99976 2.11904e-05 -1.59321e-08)
(2.99938 4.85081e-05 -2.18968e-08)
(2.99865 0.000127622 -2.20904e-08)
(2.99632 0.000284015 -3.07129e-08)
(2.99233 0.000761221 -3.29657e-08)
(2.97698 0.00163675 -6.09465e-08)
(2.95041 0.00483024 -8.05166e-08)
(2.84738 0.0107642 -1.77876e-07)
(2.57249 0.0349168 -2.34816e-07)
(1.90007 0.088378 -7.40568e-07)
(0.867256 0.247649 -8.50949e-07)
(0.499384 0.232327 6.75371e-08)
(0.568928 0.230865 -2.05314e-08)
(0.590661 0.246743 -9.02139e-08)
(0.543965 0.264012 -9.17504e-08)
(0.464222 0.284736 -9.0449e-08)
(0.384397 0.30831 -9.14595e-08)
(0.314348 0.334395 -9.56265e-08)
(0.239111 0.3616 -9.91428e-08)
(0.146874 0.387738 -1.02994e-07)
(0.0610637 0.405973 -1.08286e-07)
(3 1.46547e-07 -2.49788e-09)
(2.99998 8.02214e-07 -8.66464e-09)
(2.99996 2.97419e-06 -1.00498e-08)
(2.9999 7.59214e-06 -1.60593e-08)
(2.99978 2.09639e-05 -1.60306e-08)
(2.99943 4.73634e-05 -2.16746e-08)
(2.99875 0.000128014 -2.19387e-08)
(2.9966 0.000263343 -2.97468e-08)
(2.9929 0.000825369 -3.27074e-08)
(2.97876 0.00149939 -5.64023e-08)
(2.95441 0.00566156 -7.91082e-08)
(2.86061 0.0112646 -1.65445e-07)
(2.61293 0.043294 -2.63036e-07)
(1.99599 0.104294 -7.46069e-07)
(0.930758 0.298039 -9.62181e-07)
(0.496723 0.278578 7.35496e-08)
(0.576741 0.273419 -1.38938e-08)
(0.604864 0.290364 -8.9082e-08)
(0.559383 0.309926 -9.00982e-08)
(0.482716 0.335065 -8.64968e-08)
(0.405618 0.364674 -8.39281e-08)
(0.337137 0.398346 -8.6854e-08)
(0.261916 0.434809 -8.99584e-08)
(0.16613 0.471939 -9.37446e-08)
(0.0710795 0.500614 -9.96055e-08)
(3 1.61099e-07 -2.48452e-09)
(2.99999 8.81891e-07 -8.63045e-09)
(2.99997 3.26855e-06 -1.01345e-08)
(2.99991 8.35214e-06 -1.5915e-08)
(2.9998 2.30355e-05 -1.6295e-08)
(2.99947 5.21788e-05 -2.1635e-08)
(2.99883 0.000140268 -2.23045e-08)
(2.9969 0.000290415 -3.14552e-08)
(2.99337 0.000911126 -3.05521e-08)
(2.98094 0.00156287 -7.98923e-08)
(2.95875 0.00643102 -2.75154e-08)
(2.87616 0.0121079 -2.16653e-07)
(2.66062 0.047898 -1.83034e-07)
(2.11045 0.115103 -7.20005e-07)
(1.01629 0.340449 -1.02139e-06)
(0.509967 0.327104 5.80947e-08)
(0.595376 0.320285 -2.29734e-08)
(0.628474 0.335619 -8.6684e-08)
(0.583589 0.35574 -8.72423e-08)
(0.510132 0.384806 -8.29698e-08)
(0.435875 0.420881 -7.83508e-08)
(0.369486 0.463415 -7.99033e-08)
(0.295433 0.511785 -8.17802e-08)
(0.196893 0.56547 -8.43667e-08)
(0.0887648 0.615246 -8.91294e-08)
(3 1.86842e-07 -2.45263e-09)
(2.99999 1.03096e-06 -8.63069e-09)
(2.99997 3.81491e-06 -1.0113e-08)
(2.99992 9.78842e-06 -1.58698e-08)
(2.99982 2.6917e-05 -1.61297e-08)
(2.99952 6.15793e-05 -2.12422e-08)
(2.99895 0.000161297 -2.13882e-08)
(2.99724 0.000354977 -2.76558e-08)
(2.99396 0.000976217 -3.1256e-08)
(2.9833 0.00194521 -4.66348e-08)
(2.9634 0.00643964 -6.32487e-08)
(2.89266 0.0127021 -1.50972e-07)
(2.71083 0.0463002 -2.35407e-07)
(2.23775 0.11243 -6.69122e-07)
(1.1282 0.343019 -1.1105e-06)
(0.552671 0.369979 -2.06869e-08)
(0.629583 0.372199 -5.11255e-08)
(0.662857 0.382474 -8.32311e-08)
(0.618859 0.401959 -8.24702e-08)
(0.549423 0.434362 -7.74292e-08)
(0.478318 0.477494 -7.30575e-08)
(0.414653 0.529109 -7.27656e-08)
(0.344614 0.591475 -7.24146e-08)
(0.248871 0.670592 -7.14827e-08)
(0.123041 0.763946 -7.38464e-08)
(3 3.28971e-07 -2.48686e-09)
(2.99999 6.9125e-07 -8.57489e-09)
(2.99997 4.93293e-06 -1.02374e-08)
(2.99993 7.58808e-06 -1.59169e-08)
(2.99984 3.41926e-05 -1.62087e-08)
(2.99958 4.89438e-05 -2.12461e-08)
(2.99908 0.000206077 -2.12325e-08)
(2.99758 0.00027674 -2.72355e-08)
(2.99469 0.00126156 -2.99008e-08)
(2.98544 0.00134448 -4.42894e-08)
(2.96789 0.00849229 -5.20785e-08)
(2.90731 0.00674725 -1.46616e-07)
(2.75377 0.0547061 -1.50519e-07)
(2.34563 0.0855718 -4.85671e-07)
(1.25523 0.31256 -6.75531e-07)
(0.616113 0.411742 -2.64919e-07)
(0.664145 0.43284 -1.20886e-07)
(0.695428 0.429537 -8.76501e-08)
(0.659341 0.449234 -7.86864e-08)
(0.598238 0.48317 -7.65355e-08)
(0.532596 0.532802 -7.10756e-08)
(0.474192 0.592943 -6.91966e-08)
(0.416238 0.673946 -6.57132e-08)
(0.338883 0.795397 -6.01896e-08)
(0.189677 1.00241 -5.70638e-08)
(2.99999 1.44029e-08 -4.70812e-13)
(2.99998 7.82946e-08 -2.45312e-12)
(2.99995 2.90855e-07 -5.78179e-12)
(2.99987 7.4644e-07 -1.21336e-11)
(2.99971 2.04981e-06 -2.53356e-11)
(2.99925 4.69069e-06 -4.85046e-11)
(2.99834 1.21475e-05 -1.12647e-10)
(2.99557 2.73448e-05 -2.20978e-10)
(2.99057 6.9907e-05 -5.75179e-10)
(2.97253 0.000157947 -1.16137e-09)
(2.93911 0.000405457 -3.05814e-09)
(2.81743 0.00100982 -7.47841e-09)
(2.47851 0.00288697 -1.7833e-08)
(1.6806 0.00732798 -4.38186e-08)
(0.731527 0.0200203 -5.30036e-08)
(0.523347 0.0208653 1.51464e-09)
(0.564366 0.02223 -1.82861e-09)
(0.569541 0.0244744 -6.19367e-09)
(0.520138 0.0267517 -6.65186e-09)
(0.434398 0.0290507 -6.97746e-09)
(0.348988 0.0317707 -6.79558e-09)
(0.27778 0.0350558 -6.85274e-09)
(0.206623 0.0385839 -6.99584e-09)
(0.124908 0.0427675 -7.09319e-09)
(0.0556188 0.0490066 -7.12163e-09)
(2.99999 4.39485e-08 -4.73294e-13)
(2.99998 2.3913e-07 -2.46387e-12)
(2.99995 8.88284e-07 -5.81783e-12)
(2.99987 2.27736e-06 -1.22126e-11)
(2.99971 6.25631e-06 -2.55455e-11)
(2.99926 1.43e-05 -4.89416e-11)
(2.99836 3.70834e-05 -1.13698e-10)
(2.99562 8.31603e-05 -2.23295e-10)
(2.99068 0.000214079 -5.79548e-10)
(2.97281 0.00047978 -1.17274e-09)
(2.93984 0.00125118 -3.07351e-09)
(2.81932 0.00308472 -7.49181e-09)
(2.4842 0.00897913 -1.79187e-08)
(1.69315 0.0227807 -4.39532e-08)
(0.739184 0.0611462 -5.35701e-08)
(0.521134 0.0609193 1.80626e-09)
(0.563313 0.0624862 -1.75615e-09)
(0.569026 0.0669292 -6.20497e-09)
(0.51928 0.0712485 -6.62758e-09)
(0.433414 0.0755059 -6.9085e-09)
(0.348016 0.0803673 -6.72861e-09)
(0.276306 0.0859004 -6.78853e-09)
(0.204093 0.0911055 -6.92364e-09)
(0.121041 0.0962811 -7.01221e-09)
(0.0514672 0.101919 -7.03685e-09)
(2.99999 7.604e-08 -4.78273e-13)
(2.99998 4.13312e-07 -2.48647e-12)
(2.99995 1.53688e-06 -5.88783e-12)
(2.99988 3.94236e-06 -1.23628e-11)
(2.99972 1.08372e-05 -2.59127e-11)
(2.99927 2.48141e-05 -4.96519e-11)
(2.9984 6.41441e-05 -1.15345e-10)
(2.99572 0.000145311 -2.25706e-10)
(2.9909 0.000366127 -5.87167e-10)
(2.97338 0.000838941 -1.1779e-09)
(2.94135 0.00212791 -3.10675e-09)
(2.82335 0.00523153 -7.46932e-09)
(2.49648 0.0153786 -1.81414e-08)
(1.72112 0.0390729 -4.43493e-08)
(0.757423 0.105788 -5.51981e-08)
(0.518726 0.103445 2.43266e-09)
(0.563772 0.105104 -1.59829e-09)
(0.571169 0.112708 -6.25038e-09)
(0.52138 0.120411 -6.60843e-09)
(0.435942 0.128571 -6.80773e-09)
(0.351148 0.137579 -6.65274e-09)
(0.27926 0.147385 -6.71225e-09)
(0.206138 0.156861 -6.81658e-09)
(0.121793 0.165716 -6.89487e-09)
(0.0505983 0.173115 -6.91402e-09)
(2.99999 1.10248e-07 -5.01615e-13)
(2.99998 5.97349e-07 -2.57768e-12)
(2.99995 2.22834e-06 -6.23018e-12)
(2.99988 5.72271e-06 -1.31508e-11)
(2.99973 1.57859e-05 -2.82077e-11)
(2.9993 3.63434e-05 -5.5174e-11)
(2.99846 9.34307e-05 -1.264e-10)
(2.99587 0.000217034 -2.77218e-10)
(2.99126 0.000521971 -5.67487e-10)
(2.97425 0.00125479 -1.56e-09)
(2.94361 0.00301581 -2.71623e-09)
(2.82947 0.00739995 -7.77791e-09)
(2.51516 0.0216135 -1.80073e-08)
(1.76454 0.0552868 -4.50254e-08)
(0.785438 0.151298 -5.78341e-08)
(0.514925 0.14585 3.28562e-09)
(0.565258 0.147251 -1.47484e-09)
(0.575858 0.157961 -6.31624e-09)
(0.526544 0.169097 -6.59044e-09)
(0.442194 0.181473 -6.64307e-09)
(0.358397 0.195079 -6.50236e-09)
(0.286671 0.209727 -6.58211e-09)
(0.212735 0.224131 -6.64549e-09)
(0.126515 0.237385 -6.72137e-09)
(0.0519874 0.247076 -6.7534e-09)
(2.99999 1.36827e-07 -4.8836e-13)
(2.99998 7.41241e-07 -2.5112e-12)
(2.99996 2.7689e-06 -5.99896e-12)
(2.99989 7.10572e-06 -1.27763e-11)
(2.99975 1.96646e-05 -2.65982e-11)
(2.99934 4.5312e-05 -5.18491e-11)
(2.99855 0.000117013 -1.19581e-10)
(2.99607 0.000271115 -2.41015e-10)
(2.99177 0.000662601 -5.95908e-10)
(2.97543 0.00155415 -1.22111e-09)
(2.9466 0.00398908 -3.42375e-09)
(2.8376 0.00950713 -7.47733e-09)
(2.54032 0.0273068 -1.72724e-08)
(1.82412 0.0714655 -4.74031e-08)
(0.822737 0.197685 -6.13428e-08)
(0.509108 0.188172 4.35873e-09)
(0.567284 0.188967 -1.40947e-09)
(0.582523 0.202547 -6.3798e-09)
(0.534172 0.21688 -6.56883e-09)
(0.451647 0.233326 -6.56969e-09)
(0.369436 0.251653 -6.38196e-09)
(0.298203 0.271594 -6.45074e-09)
(0.2234 0.29172 -6.46904e-09)
(0.134533 0.310298 -6.53159e-09)
(0.0554273 0.32307 -6.55101e-09)
(3 1.47428e-07 -4.82789e-13)
(2.99998 8.01014e-07 -2.47821e-12)
(2.99996 2.98682e-06 -5.91984e-12)
(2.99989 7.65257e-06 -1.26133e-11)
(2.99976 2.11906e-05 -2.62719e-11)
(2.99938 4.85086e-05 -5.12772e-11)
(2.99865 0.000127623 -1.18673e-10)
(2.99632 0.000284018 -2.40806e-10)
(2.99233 0.000761225 -5.95918e-10)
(2.97698 0.00163676 -1.22571e-09)
(2.95041 0.00483025 -3.50108e-09)
(2.84738 0.0107643 -7.43956e-09)
(2.57249 0.0349166 -1.81039e-08)
(1.90006 0.0883778 -4.88306e-08)
(0.867251 0.247648 -6.63207e-08)
(0.499386 0.232326 5.8725e-09)
(0.568929 0.230865 -1.09888e-09)
(0.590662 0.246743 -6.31187e-09)
(0.543965 0.264012 -6.37057e-09)
(0.464222 0.284736 -6.24407e-09)
(0.384397 0.30831 -6.06718e-09)
(0.314348 0.334395 -6.18291e-09)
(0.239111 0.3616 -6.2145e-09)
(0.146874 0.387738 -6.25554e-09)
(0.0610638 0.405973 -6.29484e-09)
(3 1.4655e-07 -4.55283e-13)
(2.99998 8.02228e-07 -2.36055e-12)
(2.99996 2.97424e-06 -5.52061e-12)
(2.9999 7.59229e-06 -1.17358e-11)
(2.99978 2.09643e-05 -2.37736e-11)
(2.99943 4.73643e-05 -4.55895e-11)
(2.99875 0.000128016 -1.0705e-10)
(2.9966 0.00026335 -1.95826e-10)
(2.9929 0.000825375 -5.91724e-10)
(2.97876 0.00149943 -9.76788e-10)
(2.95441 0.00566155 -3.59273e-09)
(2.86061 0.0112648 -6.15462e-09)
(2.61292 0.0432938 -2.31055e-08)
(1.99598 0.104293 -4.91935e-08)
(0.930752 0.298038 -7.49001e-08)
(0.496725 0.278577 6.8968e-09)
(0.576742 0.273418 -1.18266e-10)
(0.604864 0.290363 -6.17913e-09)
(0.559382 0.309926 -6.27255e-09)
(0.482716 0.335065 -6.11096e-09)
(0.405618 0.364674 -5.77732e-09)
(0.337137 0.398346 -5.80357e-09)
(0.261916 0.43481 -5.8298e-09)
(0.16613 0.471939 -5.83735e-09)
(0.0710795 0.500614 -5.87053e-09)
(3 1.611e-07 -4.24894e-13)
(2.99999 8.81895e-07 -2.24783e-12)
(2.99997 3.26856e-06 -5.12353e-12)
(2.99991 8.35218e-06 -1.06534e-11)
(2.9998 2.30356e-05 -2.1267e-11)
(2.99947 5.2179e-05 -3.92678e-11)
(2.99883 0.000140269 -9.39581e-11)
(2.9969 0.000290416 -1.40819e-10)
(2.99337 0.00091113 -6.09025e-10)
(2.98094 0.00156287 -4.70401e-10)
(2.95875 0.00643103 -4.43972e-09)
(2.87616 0.0121079 -4.96928e-09)
(2.66062 0.0478982 -2.46506e-08)
(2.11044 0.115103 -4.98261e-08)
(1.01628 0.340448 -8.42015e-08)
(0.509967 0.327103 6.70953e-09)
(0.595376 0.320284 9.83707e-10)
(0.628473 0.335618 -5.37993e-09)
(0.583588 0.35574 -5.75514e-09)
(0.510132 0.384806 -5.88804e-09)
(0.435874 0.420881 -5.45578e-09)
(0.369486 0.463415 -5.42803e-09)
(0.295433 0.511785 -5.47728e-09)
(0.196893 0.56547 -5.47656e-09)
(0.0887648 0.615246 -5.44213e-09)
(3 1.86843e-07 -4.36858e-13)
(2.99999 1.03097e-06 -2.28566e-12)
(2.99997 3.81492e-06 -5.30203e-12)
(2.99992 9.78843e-06 -1.10867e-11)
(2.99982 2.6917e-05 -2.26421e-11)
(2.99952 6.15794e-05 -4.30049e-11)
(2.99895 0.000161298 -9.95105e-11)
(2.99724 0.000354976 -1.90495e-10)
(2.99396 0.000976224 -5.31472e-10)
(2.9833 0.0019452 -9.58495e-10)
(2.9634 0.00643974 -3.51243e-09)
(2.89266 0.0127021 -5.37696e-09)
(2.71082 0.0463009 -2.24481e-08)
(2.23774 0.112432 -4.84269e-08)
(1.12819 0.343024 -9.36002e-08)
(0.552669 0.369979 9.51433e-10)
(0.629581 0.372198 -1.31314e-09)
(0.662855 0.382473 -5.38394e-09)
(0.618857 0.401958 -5.69065e-09)
(0.549422 0.434362 -5.7241e-09)
(0.478317 0.477494 -5.16753e-09)
(0.414652 0.529109 -5.06265e-09)
(0.344614 0.591475 -5.02169e-09)
(0.248871 0.670592 -4.91377e-09)
(0.123041 0.763947 -4.8111e-09)
(3 3.28971e-07 -4.18236e-13)
(2.99999 6.9127e-07 -2.20113e-12)
(2.99997 4.93297e-06 -5.01343e-12)
(2.99993 7.58823e-06 -1.04364e-11)
(2.99984 3.4193e-05 -2.06823e-11)
(2.99958 4.89448e-05 -3.88871e-11)
(2.99908 0.00020608 -8.70296e-11)
(2.99758 0.000276745 -1.66907e-10)
(2.99469 0.00126158 -4.38449e-10)
(2.98544 0.0013445 -8.64217e-10)
(2.96789 0.00849244 -2.37378e-09)
(2.90731 0.00674739 -5.51389e-09)
(2.75377 0.054707 -1.37161e-08)
(2.34563 0.0855742 -3.23474e-08)
(1.25522 0.312566 -5.56551e-08)
(0.616112 0.411742 -1.98471e-08)
(0.664144 0.432838 -8.0492e-09)
(0.695427 0.429536 -6.57797e-09)
(0.659339 0.449233 -6.18708e-09)
(0.598236 0.483169 -6.02796e-09)
(0.532594 0.532801 -5.36084e-09)
(0.474192 0.592943 -5.17874e-09)
(0.416238 0.673946 -4.88846e-09)
(0.338882 0.795397 -4.56792e-09)
(0.189677 1.00241 -4.3356e-09)
(2.99999 1.44029e-08 -4.34356e-14)
(2.99998 7.82946e-08 -1.93673e-13)
(2.99995 2.90855e-07 -6.37526e-13)
(2.99987 7.46439e-07 -1.37801e-12)
(2.99971 2.04981e-06 -3.89235e-12)
(2.99925 4.69069e-06 -7.96267e-12)
(2.99834 1.21475e-05 -2.22096e-11)
(2.99557 2.73448e-05 -4.54847e-11)
(2.99057 6.9907e-05 -1.26352e-10)
(2.97253 0.000157947 -2.60535e-10)
(2.93911 0.000405457 -6.96811e-10)
(2.81743 0.00100982 -1.72439e-09)
(2.47851 0.00288697 -4.11613e-09)
(1.6806 0.00732798 -1.01466e-08)
(0.731527 0.0200203 -1.22907e-08)
(0.523347 0.0208653 4.48753e-10)
(0.564366 0.02223 -3.26705e-10)
(0.569541 0.0244744 -1.34666e-09)
(0.520138 0.0267517 -1.45433e-09)
(0.434398 0.0290507 -1.52535e-09)
(0.348988 0.0317707 -1.47849e-09)
(0.27778 0.0350558 -1.48311e-09)
(0.206623 0.0385839 -1.51582e-09)
(0.124908 0.0427675 -1.53994e-09)
(0.0556188 0.0490066 -1.53868e-09)
(2.99999 4.39485e-08 -4.40777e-14)
(2.99998 2.3913e-07 -1.96504e-13)
(2.99995 8.88283e-07 -6.46701e-13)
(2.99987 2.27736e-06 -1.39807e-12)
(2.99971 6.25631e-06 -3.94514e-12)
(2.99926 1.43e-05 -8.07247e-12)
(2.99836 3.70834e-05 -2.24745e-11)
(2.99562 8.31603e-05 -4.60707e-11)
(2.99068 0.000214079 -1.27466e-10)
(2.97281 0.00047978 -2.63451e-10)
(2.93984 0.00125118 -7.00793e-10)
(2.81932 0.00308472 -1.72881e-09)
(2.4842 0.00897913 -4.1382e-09)
(1.69315 0.0227807 -1.01833e-08)
(0.739184 0.0611462 -1.24287e-08)
(0.521134 0.0609193 5.1481e-10)
(0.563313 0.0624862 -3.11549e-10)
(0.569026 0.0669292 -1.35105e-09)
(0.51928 0.0712485 -1.45018e-09)
(0.433414 0.0755059 -1.51061e-09)
(0.348016 0.0803673 -1.46386e-09)
(0.276306 0.0859004 -1.46911e-09)
(0.204093 0.0911055 -1.4998e-09)
(0.121041 0.0962811 -1.52154e-09)
(0.0514672 0.101919 -1.51928e-09)
(2.99999 7.60399e-08 -4.53471e-14)
(2.99998 4.13311e-07 -2.02476e-13)
(2.99995 1.53688e-06 -6.64468e-13)
(2.99988 3.94235e-06 -1.43609e-12)
(2.99972 1.08372e-05 -4.03717e-12)
(2.99927 2.48141e-05 -8.24989e-12)
(2.9984 6.4144e-05 -2.2889e-11)
(2.99572 0.000145311 -4.66757e-11)
(2.9909 0.000366127 -1.29432e-10)
(2.97338 0.000838939 -2.64807e-10)
(2.94135 0.00212791 -7.09577e-10)
(2.82335 0.00523153 -1.72529e-09)
(2.49648 0.0153786 -4.19552e-09)
(1.72111 0.0390729 -1.0288e-08)
(0.757422 0.105788 -1.28239e-08)
(0.518726 0.103445 6.55944e-10)
(0.563772 0.105104 -2.78838e-10)
(0.571169 0.112708 -1.36588e-09)
(0.52138 0.120411 -1.44978e-09)
(0.435942 0.128571 -1.4909e-09)
(0.351148 0.137579 -1.45061e-09)
(0.27926 0.147385 -1.45557e-09)
(0.206138 0.156861 -1.47886e-09)
(0.121793 0.165716 -1.49846e-09)
(0.0505983 0.173115 -1.49501e-09)
(2.99999 1.10248e-07 -5.11805e-14)
(2.99998 5.97349e-07 -2.25742e-13)
(2.99995 2.22834e-06 -7.49937e-13)
(2.99988 5.72271e-06 -1.63312e-12)
(2.99973 1.57859e-05 -4.60705e-12)
(2.9993 3.63434e-05 -9.62502e-12)
(2.99846 9.34306e-05 -2.56297e-11)
(2.99587 0.000217034 -5.94835e-11)
(2.99126 0.000521971 -1.24547e-10)
(2.97425 0.00125479 -3.59788e-10)
(2.94361 0.00301581 -6.12579e-10)
(2.82947 0.00739995 -1.80788e-09)
(2.51516 0.0216135 -4.16234e-09)
(1.76454 0.0552868 -1.04642e-08)
(0.785438 0.151298 -1.34603e-08)
(0.514925 0.14585 8.46925e-10)
(0.565258 0.147251 -2.57096e-10)
(0.575858 0.157961 -1.38804e-09)
(0.526544 0.169097 -1.45245e-09)
(0.442194 0.181473 -1.45852e-09)
(0.358397 0.195079 -1.42185e-09)
(0.286671 0.209727 -1.43231e-09)
(0.212735 0.224131 -1.44504e-09)
(0.126515 0.237385 -1.46554e-09)
(0.0519874 0.247076 -1.46575e-09)
(2.99999 1.36827e-07 -4.77052e-14)
(2.99998 7.41242e-07 -2.12625e-13)
(2.99996 2.7689e-06 -6.9945e-13)
(2.99989 7.10572e-06 -1.51214e-12)
(2.99975 1.96647e-05 -4.25842e-12)
(2.99934 4.5312e-05 -8.76084e-12)
(2.99855 0.000117013 -2.39719e-11)
(2.99607 0.000271116 -5.03771e-11)
(2.99177 0.000662601 -1.31961e-10)
(2.97543 0.00155415 -2.75611e-10)
(2.9466 0.00398908 -7.8815e-10)
(2.8376 0.00950713 -1.73239e-09)
(2.54032 0.0273068 -4.01433e-09)
(1.82412 0.0714655 -1.10468e-08)
(0.822737 0.197685 -1.43168e-08)
(0.509108 0.188172 1.08935e-09)
(0.567284 0.188967 -2.47343e-10)
(0.582523 0.202547 -1.40987e-09)
(0.534172 0.21688 -1.45542e-09)
(0.451647 0.233326 -1.45313e-09)
(0.369436 0.251653 -1.40314e-09)
(0.298203 0.271594 -1.41257e-09)
(0.2234 0.29172 -1.4137e-09)
(0.134533 0.310298 -1.43125e-09)
(0.0554273 0.32307 -1.42844e-09)
(3 1.47428e-07 -4.65617e-14)
(2.99998 8.01014e-07 -2.07088e-13)
(2.99996 2.98683e-06 -6.84426e-13)
(2.99989 7.65258e-06 -1.47899e-12)
(2.99976 2.11906e-05 -4.19771e-12)