/*--------------------------------*- C++ -*----------------------------------*\
| =========                 |                                                 |
| \\      /  F ield         | OpenFOAM: The Open Source CFD Toolbox           |
|  \\    /   O peration     | Version:  4.1                                   |
|   \\  /    A nd           | Web:      www.OpenFOAM.org                      |
|    \\/     M anipulation  |                                                 |
\*---------------------------------------------------------------------------*/
FoamFile
{
    version     2.0;
    format      ascii;
    class       volScalarField;
    location    "9.24";
    object      Ma;
}
// * * * * * * * * * * * * * * * * * * * * * * * * * * * * * * * * * * * * * //

dimensions      [0 0 0 0 0 0 0];

internalField   nonuniform List<scalar> 
52500
(
3.00001
2.99995
2.99988
2.99958
2.99917
2.99747
2.99507
2.98563
2.97073
2.92028
2.81291
2.55182
1.93546
1.02854
0.421676
0.32411
0.344813
0.344924
0.314006
0.262115
0.210989
0.168572
0.126568
0.0799053
0.0459513
3.00001
2.99996
2.99988
2.99959
2.99918
2.9975
2.99512
2.98576
2.97102
2.92101
2.81473
2.55605
1.94311
1.03849
0.428476
0.325327
0.346324
0.346837
0.316172
0.265054
0.215203
0.174331
0.134633
0.0934278
0.0694192
3.00001
2.99996
2.99989
2.9996
2.99919
2.99755
2.99522
2.98607
2.97163
2.92263
2.81821
2.56523
1.95861
1.05936
0.442736
0.328095
0.350351
0.352349
0.322823
0.27396
0.227276
0.190219
0.155974
0.12389
0.108779
3.00001
2.99996
2.99989
2.99961
2.99922
2.99763
2.99538
2.98653
2.97256
2.92511
2.82352
2.57918
1.98263
1.09228
0.464632
0.332191
0.356729
0.361303
0.333776
0.28823
0.246062
0.214019
0.186032
0.161938
0.152012
3.00001
2.99996
2.9999
2.99963
2.99926
2.99774
2.9956
2.98716
2.97382
2.92843
2.83068
2.59787
2.01578
1.13861
0.494238
0.337493
0.365294
0.373391
0.348365
0.306985
0.26975
0.24331
0.221438
0.20373
0.19746
3.00002
2.99997
2.99991
2.99966
2.99931
2.9979
2.99589
2.98812
2.97538
2.93341
2.8393
2.62096
2.05776
1.19979
0.530879
0.343333
0.375551
0.388248
0.36607
0.32983
0.298022
0.277237
0.26165
0.250118
0.247588
3.00002
2.99997
2.99991
2.99969
2.99937
2.99807
2.9962
2.9891
2.97718
2.9388
2.85099
2.64893
2.11075
1.27777
0.574842
0.350268
0.387686
0.405575
0.386595
0.355677
0.330395
0.315943
0.307123
0.302651
0.305941
3.00002
2.99998
2.99992
2.99971
2.99942
2.99823
2.99652
2.98995
2.9792
2.94371
2.8648
2.67768
2.18941
1.38215
0.632928
0.364964
0.405649
0.427807
0.411433
0.385598
0.366476
0.359133
0.35835
0.363293
0.377435
3.00002
2.99998
2.99993
2.99974
2.99947
2.99838
2.99684
2.99064
2.98133
2.94801
2.88282
2.71119
2.28589
1.51431
0.704766
0.39218
0.433094
0.456551
0.44175
0.421264
0.408068
0.407438
0.416224
0.436095
0.473898
3.00002
2.99999
2.99994
2.99978
2.99954
2.9986
2.99723
2.99192
2.98366
2.9548
2.89897
2.74672
2.38495
1.65872
0.789489
0.438742
0.474804
0.492399
0.479348
0.462847
0.454939
0.460608
0.483105
0.530614
0.632727
2.99999
2.99994
2.99986
2.99956
2.99915
2.99745
2.99505
2.98561
2.9707
2.92024
2.81286
2.55175
1.93532
1.02832
0.421445
0.323909
0.344615
0.34472
0.313785
0.261853
0.210665
0.168164
0.12602
0.0790299
0.0443957
2.99999
2.99994
2.99987
2.99957
2.99916
2.99748
2.9951
2.98574
2.97099
2.92097
2.81469
2.55596
1.94301
1.03832
0.428292
0.325165
0.346157
0.346657
0.315969
0.264808
0.214897
0.173948
0.13413
0.0926927
0.0684134
2.99999
2.99994
2.99987
2.99958
2.99918
2.99753
2.9952
2.98604
2.97161
2.92259
2.81817
2.56515
1.95852
1.0592
0.442556
0.327932
0.350187
0.352177
0.32263
0.273729
0.226993
0.189876
0.155548
0.123345
0.108149
2.99999
2.99994
2.99987
2.99959
2.9992
2.99761
2.99536
2.98651
2.97254
2.92507
2.82349
2.5791
1.98254
1.09212
0.464458
0.332029
0.356568
0.361136
0.333592
0.288014
0.245806
0.21372
0.185683
0.161528
0.151569
3
2.99995
2.99988
2.99961
2.99924
2.99772
2.99558
2.98713
2.9738
2.92839
2.83065
2.59779
2.01569
1.13845
0.494075
0.33734
0.365141
0.373234
0.348193
0.306788
0.269522
0.243052
0.221151
0.203412
0.197127
3
2.99995
2.99989
2.99964
2.99929
2.99788
2.99586
2.98809
2.97536
2.93337
2.83925
2.62087
2.05766
1.19962
0.530716
0.343176
0.375399
0.388096
0.365908
0.32965
0.297821
0.277016
0.261412
0.249866
0.247329
3
2.99995
2.9999
2.99967
2.99935
2.99805
2.99618
2.98908
2.97715
2.93876
2.85094
2.64885
2.11063
1.27757
0.574678
0.350106
0.387532
0.405425
0.386439
0.35551
0.330215
0.315754
0.306927
0.302449
0.305738
3
2.99996
2.99991
2.99969
2.9994
2.99821
2.9965
2.98992
2.97918
2.94366
2.86477
2.6776
2.18933
1.38196
0.632785
0.364815
0.405503
0.427665
0.411288
0.385446
0.366316
0.35897
0.358186
0.363131
0.377278
3
2.99996
2.99991
2.99972
2.99945
2.99836
2.99681
2.99062
2.98131
2.94797
2.88279
2.71111
2.28577
1.5141
0.704618
0.392028
0.432952
0.456416
0.441613
0.421123
0.407925
0.407297
0.416089
0.435967
0.473782
3
2.99997
2.99993
2.99976
2.99952
2.99858
2.99721
2.9919
2.98364
2.95477
2.89893
2.74664
2.38482
1.65848
0.789338
0.438589
0.474663
0.492274
0.479221
0.462719
0.454811
0.460485
0.482991
0.530515
0.63265
2.99999
2.99994
2.99986
2.99956
2.99915
2.99745
2.99505
2.98561
2.9707
2.92024
2.81286
2.55174
1.93531
1.02831
0.421439
0.32391
0.344615
0.34472
0.313785
0.261853
0.210665
0.168163
0.12602
0.0790298
0.0443957
2.99999
2.99994
2.99987
2.99957
2.99916
2.99748
2.9951
2.98574
2.97099
2.92097
2.81469
2.55596
1.943
1.03831
0.428287
0.325167
0.346157
0.346657
0.315969
0.264808
0.214896
0.173948
0.13413
0.0926927
0.0684134
2.99999
2.99994
2.99987
2.99958
2.99918
2.99753
2.9952
2.98604
2.97161
2.92259
2.81817
2.56514
1.95852
1.05919
0.442551
0.327934
0.350188
0.352177
0.322629
0.273728
0.226993
0.189876
0.155548
0.123345
0.108149
2.99999
2.99994
2.99987
2.99959
2.9992
2.99761
2.99536
2.98651
2.97254
2.92507
2.82348
2.57909
1.98253
1.0921
0.464452
0.33203
0.356568
0.361136
0.333592
0.288014
0.245806
0.21372
0.185683
0.161528
0.151569
3
2.99995
2.99988
2.99961
2.99924
2.99772
2.99558
2.98713
2.97379
2.92839
2.83065
2.59779
2.01568
1.13844
0.49407
0.337341
0.365141
0.373233
0.348193
0.306788
0.269522
0.243052
0.221151
0.203412
0.197127
3
2.99995
2.99989
2.99964
2.99929
2.99788
2.99586
2.98809
2.97536
2.93337
2.83925
2.62086
2.05765
1.1996
0.53071
0.343178
0.375399
0.388096
0.365908
0.32965
0.297821
0.277016
0.261412
0.249866
0.247329
3
2.99995
2.9999
2.99967
2.99935
2.99805
2.99618
2.98908
2.97715
2.93876
2.85094
2.64885
2.11062
1.27755
0.574671
0.350107
0.387532
0.405424
0.386439
0.35551
0.330215
0.315754
0.306927
0.30245
0.305738
3
2.99996
2.99991
2.99969
2.9994
2.99821
2.9965
2.98992
2.97918
2.94366
2.86477
2.67759
2.18932
1.38194
0.632776
0.364815
0.405502
0.427664
0.411287
0.385445
0.366316
0.35897
0.358186
0.363131
0.377278
3
2.99996
2.99991
2.99972
2.99945
2.99836
2.99681
2.99062
2.98131
2.94797
2.88278
2.7111
2.28576
1.51408
0.704608
0.392026
0.43295
0.456414
0.441612
0.421122
0.407924
0.407297
0.416089
0.435967
0.473782
3
2.99997
2.99993
2.99976
2.99952
2.99858
2.99721
2.9919
2.98364
2.95477
2.89893
2.74664
2.3848
1.65846
0.789327
0.438585
0.474659
0.492271
0.479219
0.462717
0.454809
0.460484
0.482991
0.530515
0.63265
2.99999
2.99994
2.99986
2.99956
2.99915
2.99745
2.99505
2.98561
2.9707
2.92024
2.81286
2.55174
1.93531
1.02831
0.421438
0.32391
0.344615
0.34472
0.313784
0.261853
0.210665
0.168163
0.12602
0.0790297
0.0443957
2.99999
2.99994
2.99987
2.99957
2.99916
2.99748
2.9951
2.98574
2.97099
2.92097
2.81469
2.55596
1.943
1.03831
0.428286
0.325167
0.346157
0.346657
0.315969
0.264808
0.214896
0.173948
0.13413
0.0926927
0.0684134
2.99999
2.99994
2.99987
2.99958
2.99918
2.99753
2.9952
2.98604
2.97161
2.92259
2.81817
2.56514
1.95852
1.05919
0.44255
0.327934
0.350188
0.352177
0.322629
0.273728
0.226993
0.189876
0.155548
0.123345
0.108149
2.99999
2.99994
2.99987
2.99959
2.9992
2.99761
2.99536
2.98651
2.97254
2.92507
2.82348
2.57909
1.98253
1.0921
0.464451
0.332031
0.356568
0.361136
0.333592
0.288014
0.245806
0.21372
0.185683
0.161528
0.151569
3
2.99995
2.99988
2.99961
2.99924
2.99772
2.99558
2.98713
2.97379
2.92839
2.83065
2.59778
2.01568
1.13844
0.494069
0.337341
0.365141
0.373233
0.348193
0.306788
0.269522
0.243052
0.221151
0.203412
0.197127
3
2.99995
2.99989
2.99964
2.99929
2.99788
2.99586
2.98809
2.97536
2.93337
2.83925
2.62086
2.05765
1.1996
0.530709
0.343178
0.375399
0.388096
0.365908
0.32965
0.297821
0.277016
0.261412
0.249866
0.247329
3
2.99995
2.9999
2.99967
2.99935
2.99805
2.99618
2.98908
2.97715
2.93876
2.85094
2.64884
2.11062
1.27755
0.57467
0.350107
0.387532
0.405424
0.386439
0.35551
0.330215
0.315754
0.306927
0.30245
0.305738
3
2.99996
2.99991
2.99969
2.9994
2.99821
2.9965
2.98992
2.97918
2.94366
2.86477
2.67759
2.18931
1.38194
0.632775
0.364815
0.405502
0.427664
0.411287
0.385445
0.366316
0.35897
0.358186
0.363131
0.377278
3
2.99996
2.99991
2.99972
2.99945
2.99836
2.99681
2.99062
2.98131
2.94797
2.88278
2.7111
2.28576
1.51408
0.704607
0.392026
0.432949
0.456413
0.441611
0.421122
0.407924
0.407297
0.416089
0.435967
0.473782
3
2.99997
2.99993
2.99976
2.99952
2.99858
2.99721
2.9919
2.98364
2.95477
2.89893
2.74664
2.3848
1.65846
0.789326
0.438585
0.474659
0.492271
0.479219
0.462717
0.454809
0.460484
0.482991
0.530515
0.63265
2.99999
2.99994
2.99986
2.99956
2.99915
2.99745
2.99505
2.98561
2.9707
2.92024
2.81286
2.55174
1.93531
1.02831
0.421437
0.32391
0.344615
0.34472
0.313784
0.261853
0.210665
0.168163
0.12602
0.0790297
0.0443957
2.99999
2.99994
2.99987
2.99957
2.99916
2.99748
2.9951
2.98574
2.97099
2.92097
2.81469
2.55596
1.943
1.03831
0.428285
0.325167
0.346158
0.346657
0.315969
0.264808
0.214896
0.173948
0.13413
0.0926927
0.0684134
2.99999
2.99994
2.99987
2.99958
2.99918
2.99753
2.9952
2.98604
2.97161
2.92259
2.81817
2.56514
1.95851
1.05919
0.44255
0.327934
0.350188
0.352177
0.322629
0.273728
0.226993
0.189876
0.155548
0.123345
0.108149
2.99999
2.99994
2.99987
2.99959
2.9992
2.99761
2.99536
2.98651
2.97254
2.92507
2.82348
2.57909
1.98253
1.0921
0.464451
0.332031
0.356568
0.361136
0.333592
0.288014
0.245806
0.21372
0.185683
0.161528
0.151569
3
2.99995
2.99988
2.99961
2.99924
2.99772
2.99558
2.98713
2.97379
2.92839
2.83065
2.59778
2.01568
1.13843
0.494068
0.337341
0.365141
0.373233
0.348193
0.306788
0.269522
0.243052
0.221151
0.203412
0.197127
3
2.99995
2.99989
2.99964
2.99929
2.99788
2.99586
2.98809
2.97536
2.93337
2.83925
2.62086
2.05765
1.1996
0.530709
0.343178
0.375399
0.388096
0.365908
0.32965
0.297821
0.277016
0.261412
0.249866
0.247329
3
2.99995
2.9999
2.99967
2.99935
2.99805
2.99618
2.98908
2.97715
2.93876
2.85094
2.64884
2.11062
1.27755
0.57467
0.350107
0.387532
0.405424
0.386439
0.35551
0.330215
0.315754
0.306927
0.30245
0.305738
3
2.99996
2.99991
2.99969
2.9994
2.99821
2.9965
2.98992
2.97918
2.94366
2.86477
2.67759
2.18931
1.38194
0.632774
0.364815
0.405502
0.427664
0.411287
0.385445
0.366316
0.35897
0.358186
0.363131
0.377278
3
2.99996
2.99991
2.99972
2.99945
2.99836
2.99681
2.99062
2.98131
2.94797
2.88278
2.7111
2.28575
1.51408
0.704606
0.392026
0.432949
0.456413
0.441611
0.421121
0.407924
0.407297
0.416088
0.435967
0.473782
3
2.99997
2.99993
2.99976
2.99952
2.99858
2.99721
2.9919
2.98364
2.95477
2.89893
2.74664
2.3848
1.65845
0.789325
0.438584
0.474659
0.492271
0.479219
0.462716
0.454809
0.460484
0.482991
0.530515
0.63265
2.99999
2.99994
2.99986
2.99956
2.99915
2.99745
2.99505
2.98561
2.9707
2.92024
2.81286
2.55174
1.93531
1.02831
0.421437
0.32391
0.344615
0.34472
0.313784
0.261853
0.210665
0.168163
0.12602
0.0790297
0.0443957
2.99999
2.99994
2.99987
2.99957
2.99916
2.99748
2.9951
2.98574
2.97099
2.92097
2.81469
2.55596
1.943
1.03831
0.428285
0.325167
0.346158
0.346657
0.315969
0.264808
0.214896
0.173948
0.13413
0.0926927
0.0684134
2.99999
2.99994
2.99987
2.99958
2.99918
2.99753
2.9952
2.98604
2.97161
2.92259
2.81817
2.56514
1.95851
1.05919
0.442549
0.327934
0.350188
0.352177
0.322629
0.273728
0.226993
0.189876
0.155548
0.123345
0.108149
2.99999
2.99994
2.99987
2.99959
2.9992
2.99761
2.99536
2.98651
2.97254
2.92507
2.82348
2.57909
1.98253
1.0921
0.464451
0.332031
0.356568
0.361136
0.333592
0.288014
0.245806
0.21372
0.185683
0.161528
0.151569
3
2.99995
2.99988
2.99961
2.99924
2.99772
2.99558
2.98713
2.97379
2.92839
2.83065
2.59778
2.01568
1.13843
0.494068
0.337341
0.365141
0.373233
0.348193
0.306788
0.269522
0.243052
0.221151
0.203412
0.197127
3
2.99995
2.99989
2.99964
2.99929
2.99788
2.99586
2.98809
2.97536
2.93337
2.83925
2.62086
2.05764
1.1996
0.530709
0.343178
0.375399
0.388096
0.365908
0.329649
0.297821
0.277016
0.261412
0.249866
0.247329
3
2.99995
2.9999
2.99967
2.99935
2.99805
2.99618
2.98908
2.97715
2.93876
2.85094
2.64884
2.11062
1.27755
0.574669
0.350107
0.387532
0.405424
0.386439
0.35551
0.330215
0.315754
0.306927
0.30245
0.305738
3
2.99996
2.99991
2.99969
2.9994
2.99821
2.9965
2.98992
2.97918
2.94366
2.86477
2.67759
2.18931
1.38194
0.632774
0.364815
0.405502
0.427663
0.411287
0.385445
0.366316
0.35897
0.358186
0.363131
0.377278
3
2.99996
2.99991
2.99972
2.99945
2.99836
2.99681
2.99062
2.98131
2.94797
2.88278
2.7111
2.28575
1.51407
0.704606
0.392026
0.432949
0.456413
0.441611
0.421121
0.407924
0.407297
0.416088
0.435967
0.473782
3
2.99997
2.99993
2.99976
2.99952
2.99858
2.99721
2.9919
2.98364
2.95477
2.89893
2.74664
2.3848
1.65845
0.789324
0.438584
0.474659
0.492271
0.479219
0.462716
0.454809
0.460484
0.482991
0.530515
0.63265
2.99999
2.99994
2.99986
2.99956
2.99915
2.99745
2.99505
2.98561
2.9707
2.92024
2.81286
2.55174
1.93531
1.02831
0.421438
0.32391
0.344615
0.34472
0.313784
0.261853
0.210665
0.168163
0.12602
0.0790297
0.0443957
2.99999
2.99994
2.99987
2.99957
2.99916
2.99748
2.9951
2.98574
2.97099
2.92097
2.81469
2.55596
1.943
1.03831
0.428286
0.325167
0.346158
0.346657
0.315969
0.264808
0.214896
0.173948
0.13413
0.0926927
0.0684134
2.99999
2.99994
2.99987
2.99958
2.99918
2.99753
2.9952
2.98604
2.97161
2.92259
2.81817
2.56514
1.95851
1.05919
0.44255
0.327934
0.350188
0.352177
0.322629
0.273728
0.226993
0.189876
0.155548
0.123345
0.108149
2.99999
2.99994
2.99987
2.99959
2.9992
2.99761
2.99536
2.98651
2.97254
2.92507
2.82348
2.57909
1.98253
1.0921
0.464451
0.332031
0.356568
0.361136
0.333592
0.288014
0.245806
0.21372
0.185683
0.161528
0.151569
3
2.99995
2.99988
2.99961
2.99924
2.99772
2.99558
2.98713
2.97379
2.92839
2.83065
2.59778
2.01568
1.13844
0.494069
0.337341
0.365141
0.373233
0.348193
0.306788
0.269522
0.243052
0.221151
0.203412
0.197127
3
2.99995
2.99989
2.99964
2.99929
2.99788
2.99586
2.98809
2.97536
2.93337
2.83925
2.62086
2.05765
1.1996
0.530709
0.343178
0.375399
0.388096
0.365908
0.32965
0.297821
0.277016
0.261412
0.249866
0.247329
3
2.99995
2.9999
2.99967
2.99935
2.99805
2.99618
2.98908
2.97715
2.93876
2.85094
2.64884
2.11062
1.27755
0.57467
0.350107
0.387532
0.405424
0.386439
0.35551
0.330215
0.315754
0.306927
0.30245
0.305738
3
2.99996
2.99991
2.99969
2.9994
2.99821
2.9965
2.98992
2.97918
2.94366
2.86477
2.67759
2.18931
1.38194
0.632774
0.364815
0.405502
0.427664
0.411287
0.385445
0.366316
0.35897
0.358186
0.363131
0.377278
3
2.99996
2.99991
2.99972
2.99945
2.99836
2.99681
2.99062
2.98131
2.94797
2.88278
2.7111
2.28575
1.51408
0.704606
0.392026
0.432949
0.456413
0.441611
0.421122
0.407924
0.407297
0.416089
0.435967
0.473782
3
2.99997
2.99993
2.99976
2.99952
2.99858
2.99721
2.9919
2.98364
2.95477
2.89893
2.74664
2.3848
1.65846
0.789325
0.438584
0.474659
0.492271
0.479219
0.462717
0.454809
0.460484
0.482991
0.530515
0.63265
2.99999
2.99994
2.99986
2.99956
2.99915
2.99745
2.99505
2.98561
2.9707
2.92024
2.81286
2.55174
1.93531
1.02831
0.421438
0.32391
0.344615
0.34472
0.313785
0.261853
0.210665
0.168163
0.12602
0.0790298
0.0443957
2.99999
2.99994
2.99987
2.99957
2.99916
2.99748
2.9951
2.98574
2.97099
2.92097
2.81469
2.55596
1.943
1.03831
0.428287
0.325167
0.346157
0.346657
0.315969
0.264808
0.214896
0.173948
0.13413
0.0926927
0.0684134
2.99999
2.99994
2.99987
2.99958
2.99918
2.99753
2.9952
2.98604
2.97161
2.92259
2.81817
2.56514
1.95852
1.05919
0.442551
0.327934
0.350188
0.352177
0.322629
0.273728
0.226993
0.189876
0.155548
0.123345
0.108149
2.99999
2.99994
2.99987
2.99959
2.9992
2.99761
2.99536
2.98651
2.97254
2.92507
2.82348
2.57909
1.98253
1.0921
0.464452
0.33203
0.356568
0.361136
0.333592
0.288014
0.245806
0.21372
0.185683
0.161528
0.151569
3
2.99995
2.99988
2.99961
2.99924
2.99772
2.99558
2.98713
2.97379
2.92839
2.83065
2.59779
2.01568
1.13844
0.49407
0.337341
0.365141
0.373233
0.348193
0.306788
0.269522
0.243052
0.221151
0.203412
0.197127
3
2.99995
2.99989
2.99964
2.99929
2.99788
2.99586
2.98809
2.97536
2.93337
2.83925
2.62086
2.05765
1.1996
0.53071
0.343178
0.375399
0.388096
0.365908
0.32965
0.297821
0.277016
0.261412
0.249866
0.247329
3
2.99995
2.9999
2.99967
2.99935
2.99805
2.99618
2.98908
2.97715
2.93876
2.85094
2.64885
2.11062
1.27755
0.574671
0.350107
0.387532
0.405424
0.386439
0.35551
0.330215
0.315754
0.306927
0.30245
0.305738
3
2.99996
2.99991
2.99969
2.9994
2.99821
2.9965
2.98992
2.97918
2.94366
2.86477
2.67759
2.18931
1.38194
0.632776
0.364815
0.405502
0.427664
0.411287
0.385445
0.366316
0.35897
0.358186
0.363131
0.377278
3
2.99996
2.99991
2.99972
2.99945
2.99836
2.99681
2.99062
2.98131
2.94797
2.88278
2.7111
2.28576
1.51408
0.704608
0.392026
0.43295
0.456414
0.441611
0.421122
0.407924
0.407297
0.416089
0.435967
0.473782
3
2.99997
2.99993
2.99976
2.99952
2.99858
2.99721
2.9919
2.98364
2.95477
2.89893
2.74664
2.3848
1.65846
0.789327
0.438585
0.474659
0.492271
0.479219
0.462717
0.454809
0.460484
0.482991
0.530515
0.63265
2.99999
2.99994
2.99986
2.99956
2.99915
2.99745
2.99505
2.98561
2.9707
2.92024
2.81286
2.55175
1.93532
1.02832
0.421445
0.323909
0.344615
0.34472
0.313785
0.261853
0.210665
0.168164
0.12602
0.0790299
0.0443957
2.99999
2.99994
2.99987
2.99957
2.99916
2.99748
2.9951
2.98574
2.97099
2.92097
2.81469
2.55596
1.94301
1.03832
0.428292
0.325165
0.346157
0.346657
0.315969
0.264808
0.214897
0.173948
0.13413
0.0926927
0.0684134
2.99999
2.99994
2.99987
2.99958
2.99918
2.99753
2.9952
2.98604
2.97161
2.92259
2.81817
2.56515
1.95852
1.0592
0.442556
0.327932
0.350187
0.352177
0.32263
0.273729
0.226993
0.189876
0.155548
0.123345
0.108149
2.99999
2.99994
2.99987
2.99959
2.9992
2.99761
2.99536
2.98651
2.97254
2.92507
2.82349
2.5791
1.98254
1.09212
0.464458
0.332029
0.356568
0.361136
0.333593
0.288014
0.245806
0.21372
0.185683
0.161528
0.151569
3
2.99995
2.99988
2.99961
2.99924
2.99772
2.99558
2.98713
2.9738
2.92839
2.83065
2.59779
2.01569
1.13845
0.494075
0.337339
0.365141
0.373234
0.348193
0.306788
0.269522
0.243052
0.221151
0.203412
0.197127
3
2.99995
2.99989
2.99964
2.99929
2.99788
2.99586
2.98809
2.97536
2.93337
2.83925
2.62087
2.05766
1.19962
0.530716
0.343176
0.375399
0.388096
0.365908
0.32965
0.297821
0.277016
0.261412
0.249866
0.247329
3
2.99995
2.9999
2.99967
2.99935
2.99805
2.99618
2.98908
2.97715
2.93876
2.85094
2.64885
2.11063
1.27757
0.574678
0.350106
0.387532
0.405425
0.386439
0.35551
0.330215
0.315754
0.306927
0.302449
0.305738
3
2.99996
2.99991
2.99969
2.9994
2.99821
2.9965
2.98992
2.97918
2.94366
2.86477
2.6776
2.18933
1.38196
0.632785
0.364815
0.405503
0.427665
0.411288
0.385446
0.366316
0.35897
0.358186
0.363131
0.377278
3
2.99996
2.99991
2.99972
2.99945
2.99836
2.99681
2.99062
2.98131
2.94797
2.88279
2.71111
2.28577
1.5141
0.704618
0.392028
0.432952
0.456416
0.441613
0.421123
0.407925
0.407297
0.416089
0.435967
0.473782
3
2.99997
2.99993
2.99976
2.99952
2.99858
2.99721
2.9919
2.98364
2.95477
2.89893
2.74664
2.38482
1.65848
0.789338
0.438589
0.474663
0.492274
0.479221
0.462719
0.454811
0.460485
0.482991
0.530515
0.63265
3.00001
2.99995
2.99988
2.99958
2.99917
2.99747
2.99507
2.98563
2.97073
2.92028
2.81291
2.55182
1.93546
1.02854
0.421676
0.32411
0.344813
0.344924
0.314006
0.262115
0.210989
0.168572
0.126568
0.0799053
0.0459513
3.00001
2.99996
2.99988
2.99959
2.99918
2.9975
2.99512
2.98576
2.97102
2.92101
2.81473
2.55605
1.94311
1.03849
0.428477
0.325327
0.346324
0.346837
0.316172
0.265054
0.215203
0.174331
0.134633
0.0934278
0.0694192
3.00001
2.99996
2.99989
2.9996
2.99919
2.99755
2.99522
2.98607
2.97163
2.92263
2.81821
2.56523
1.95862
1.05936
0.442737
0.328095
0.350351
0.352349
0.322823
0.27396
0.227276
0.190219
0.155974
0.12389
0.108779
3.00001
2.99996
2.99989
2.99961
2.99922
2.99763
2.99538
2.98653
2.97256
2.92511
2.82352
2.57918
1.98263
1.09228
0.464632
0.332191
0.356729
0.361303
0.333777
0.28823
0.246062
0.214019
0.186032
0.161938
0.152012
3.00001
2.99996
2.9999
2.99963
2.99926
2.99774
2.9956
2.98716
2.97382
2.92843
2.83068
2.59787
2.01578
1.13861
0.494238
0.337493
0.365294
0.373391
0.348365
0.306985
0.26975
0.24331
0.221438
0.20373
0.19746
3.00002
2.99997
2.99991
2.99966
2.99931
2.9979
2.99589
2.98812
2.97538
2.93341
2.8393
2.62096
2.05776
1.19979
0.530879
0.343333
0.375551
0.388248
0.36607
0.32983
0.298022
0.277237
0.26165
0.250118
0.247588
3.00002
2.99997
2.99991
2.99969
2.99937
2.99807
2.9962
2.9891
2.97718
2.9388
2.85099
2.64893
2.11075
1.27777
0.574842
0.350268
0.387686
0.405575
0.386595
0.355677
0.330395
0.315943
0.307123
0.302651
0.305941
3.00002
2.99998
2.99992
2.99971
2.99942
2.99823
2.99652
2.98995
2.9792
2.94371
2.8648
2.67768
2.18942
1.38215
0.632928
0.364965
0.405649
0.427807
0.411433
0.385598
0.366477
0.359133
0.35835
0.363293
0.377435
3.00002
2.99998
2.99993
2.99974
2.99947
2.99838
2.99684
2.99064
2.98133
2.94801
2.88282
2.71119
2.28589
1.51432
0.704767
0.39218
0.433095
0.456552
0.44175
0.421264
0.408068
0.407438
0.416224
0.436095
0.473898
3.00002
2.99999
2.99994
2.99978
2.99954
2.9986
2.99723
2.99192
2.98366
2.9548
2.89897
2.74672
2.38495
1.65872
0.789489
0.438742
0.474804
0.492399
0.479348
0.462847
0.454939
0.460608
0.483105
0.530614
0.632727
3.00002
3
2.99994
2.99985
2.99952
2.99903
2.99715
2.99426
2.98411
2.96517
2.90985
2.7736
2.48302
1.80653
0.902662
0.49513
0.515103
0.526851
0.521301
0.508605
0.505453
0.518966
0.559174
0.643475
0.811073
3.00002
3
2.99995
2.99987
2.99957
2.99914
2.9974
2.99493
2.98519
2.96995
2.91823
2.80909
2.54205
1.92644
1.04006
0.572569
0.543908
0.555257
0.559062
0.553604
0.556355
0.578274
0.631669
0.730199
0.894472
3.00002
3.00001
2.99996
2.99989
2.99963
2.99927
2.99777
2.99566
2.98734
2.9743
2.92974
2.83495
2.60743
2.04256
1.19085
0.656124
0.562835
0.577574
0.591292
0.595421
0.60507
0.63356
0.691339
0.783514
0.916554
3.00002
3.00001
2.99997
2.99992
2.9997
2.99939
2.99816
2.99639
2.98968
2.9784
2.9423
2.85985
2.66992
2.1628
1.36621
0.745855
0.579646
0.597291
0.617361
0.632354
0.649313
0.681339
0.736259
0.816051
0.92521
3.00002
3.00001
2.99998
2.99993
2.99975
2.99949
2.99845
2.99695
2.99108
2.98201
2.95031
2.88752
2.72162
2.31995
1.55915
0.859593
0.614741
0.626351
0.645588
0.665527
0.687636
0.720994
0.772736
0.840373
0.930789
3.00002
3.00001
3
2.99994
2.99985
2.99952
2.99903
2.99717
2.99426
2.98432
2.96489
2.91069
2.77377
2.4887
1.83507
1.00749
0.67834
0.670902
0.683783
0.702499
0.723066
0.753948
0.802061
0.862509
0.936906
3.00002
3.00001
3
2.99995
2.99988
2.9996
2.9992
2.99757
2.99528
2.9862
2.97213
2.924
2.82323
2.57851
1.99797
1.1642
0.747748
0.706925
0.719856
0.736954
0.756988
0.783801
0.824595
0.879349
0.943688
3.00002
3.00002
3.00001
2.99997
2.99992
2.9997
2.99939
2.99818
2.99636
2.9898
2.978
2.94228
2.85715
2.6661
2.15283
1.36267
0.847252
0.733465
0.744968
0.761791
0.784708
0.811089
0.8448
0.890795
0.946587
3.00002
3.00002
3.00001
2.99999
2.99992
2.99983
2.99945
2.99887
2.99683
2.99314
2.982
2.95617
2.89354
2.71987
2.38119
1.60153
0.989404
0.774858
0.770211
0.783892
0.806589
0.833541
0.862979
0.900312
0.946942
3.00002
3.00002
3.00001
3
2.99994
2.99987
2.99955
2.9991
2.99731
2.99471
2.98481
2.9686
2.91631
2.8027
2.53033
1.9391
1.15336
0.838715
0.806065
0.814078
0.831935
0.853981
0.879593
0.909061
0.944511
3.00003
3.00002
3.00002
3
2.99998
2.99988
2.99975
2.99921
2.99841
2.99556
2.99044
2.97488
2.93907
2.85255
2.61644
2.16769
1.31447
0.914604
0.830821
0.837893
0.853183
0.871844
0.893395
0.915929
0.939131
3.00003
3.00002
3.00002
3.00001
2.99999
2.99991
2.99981
2.99938
2.99877
2.99636
2.99275
2.97987
2.95597
2.88739
2.7164
2.36483
1.61135
1.04783
0.869619
0.860891
0.870231
0.886151
0.902527
0.916326
0.928497
3.00003
3.00003
3.00002
3.00002
2.99999
2.99996
2.99983
2.99963
2.99888
2.99776
2.99357
2.98688
2.96409
2.92142
2.7984
2.53928
1.92007
1.21425
0.927936
0.885901
0.886627
0.895194
0.904324
0.908673
0.912368
3.00003
3.00003
3.00002
3.00002
3
2.99998
2.99988
2.99974
2.99918
2.99838
2.99528
2.99056
2.97394
2.94296
2.85661
2.64516
2.20351
1.40891
1.01036
0.906601
0.896255
0.896697
0.897538
0.894363
0.892275
3.00003
3.00003
3.00003
3.00002
3.00001
2.99998
2.99994
2.99977
2.99952
2.99856
2.99714
2.9918
2.98331
2.95484
2.8974
2.74976
2.39683
1.71213
1.12867
0.932866
0.900954
0.890561
0.881674
0.873906
0.869557
3.00003
3.00003
3.00003
3.00002
3.00002
3
2.99996
2.99984
2.99966
2.99895
2.99793
2.99398
2.98795
2.96649
2.92844
2.81368
2.57894
1.99884
1.29182
0.973798
0.896656
0.873825
0.86167
0.851223
0.846773
3.00003
3.00003
3.00003
3.00003
3.00002
3.00001
2.99997
2.99992
2.99971
2.99941
2.99825
2.99651
2.99028
2.97928
2.94587
2.86844
2.69383
2.23794
1.51073
1.03918
0.878193
0.840309
0.830519
0.824961
0.827067
3.00003
3.00003
3.00003
3.00003
3.00002
3.00001
2.99999
2.99995
2.99979
2.99957
2.99868
2.99739
2.99243
2.98483
2.95801
2.90885
2.76835
2.46395
1.80392
1.13015
0.855274
0.796339
0.793731
0.797049
0.813243
3.00003
3.00003
3.00003
3.00003
3.00002
3.00002
3
2.99996
2.99989
2.99962
2.99922
2.99772
2.99539
2.9872
2.97233
2.92737
2.8221
2.58551
2.01744
1.21367
0.815647
0.73115
0.745628
0.767122
0.80263
3.00003
3.00003
3.00003
3.00003
3.00003
3.00002
3.00001
2.99998
2.9999
2.99977
2.99928
2.99854
2.99591
2.99113
2.97674
2.94307
2.86247
2.63611
2.21132
1.3371
0.80369
0.641448
0.678061
0.729266
0.787976
3.00003
3.00003
3.00003
3.00003
3.00003
3.00002
3.00001
2.99999
2.99992
2.99981
2.9994
2.9988
2.99648
2.9928
2.98039
2.95486
2.88669
2.70574
2.34606
1.54568
0.82633
0.567014
0.625332
0.698612
0.769159
3.00003
3.00003
3.00003
3.00003
3.00003
3.00002
3.00002
2.99999
2.99995
2.99979
2.99956
2.99866
2.99733
2.9922
2.98406
2.95599
2.9003
2.75086
2.39425
1.67916
0.808167
0.489172
0.569854
0.656905
0.733279
3.00003
3.00003
3.00003
3.00003
3.00003
3.00002
3.00002
2.99999
2.99996
2.99981
2.99961
2.99877
2.99758
2.99277
2.9856
2.95899
2.91091
2.76936
2.4464
1.7522
0.81522
0.435893
0.514757
0.601291
0.682702
3.00003
3.00003
3.00003
3.00003
3.00003
3.00002
3.00002
3
2.99996
2.99983
2.99965
2.9989
2.99784
2.99351
2.98702
2.96337
2.91734
2.79155
2.47502
1.83983
0.863598
0.434525
0.469868
0.545979
0.627012
3.00003
3.00003
3.00003
3.00003
3.00003
3.00002
3.00002
3
2.99997
2.99986
2.9997
2.99907
2.9981
2.99461
2.98822
2.96864
2.92211
2.81193
2.50092
1.91569
0.918785
0.449048
0.435486
0.501794
0.578574
3.00003
3.00003
3.00003
3.00003
3.00003
3.00003
3.00002
3.00001
2.99997
2.9999
2.99967
2.9993
2.99796
2.99559
2.98804
2.97158
2.92743
2.81328
2.56629
1.93389
1.04222
0.492792
0.426421
0.479725
0.54882
3.00003
3.00003
3.00003
3.00003
3.00003
3.00003
3.00002
3.00001
2.99998
2.9999
2.99977
2.99931
2.99843
2.99583
2.98965
2.97421
2.9324
2.84044
2.55855
2.0488
1.0581
0.516978
0.405845
0.460664
0.528883
3.00003
3.00003
3.00003
3.00003
3.00003
3.00003
3.00002
3.00001
2.99997
2.99992
2.99971
2.99939
2.99817
2.99621
2.98943
2.97583
2.93711
2.83904
2.62547
2.04014
1.18751
0.551164
0.390738
0.448535
0.518565
3.00003
3.00003
3.00003
3.00003
3.00003
3.00003
3.00002
3.00001
2.99998
2.99993
2.99973
2.99944
2.99831
2.99653
2.9903
2.97799
2.94258
2.85269
2.65491
2.10076
1.26676
0.575817
0.366274
0.434388
0.510397
3.00003
3.00003
3.00003
3.00003
3.00003
3.00003
3.00002
3.00001
2.99999
2.99993
2.99982
2.99945
2.99876
2.99667
2.99181
2.97943
2.94662
2.8728
2.64881
2.22962
1.32026
0.617978
0.353304
0.432197
0.514442
3.00003
3.00003
3.00003
3.00003
3.00003
3.00003
3.00002
3.00001
2.99999
2.99994
2.99978
2.99953
2.99861
2.99702
2.992
2.98088
2.95168
2.87483
2.70726
2.2316
1.44841
0.639415
0.331432
0.426023
0.517186
3.00003
3.00003
3.00003
3.00003
3.00003
3.00003
3.00002
3.00001
3
2.99993
2.99984
2.99947
2.99891
2.99689
2.99321
2.98195
2.95555
2.89058
2.70822
2.35152
1.52855
0.693507
0.338171
0.437754
0.530302
3.00003
3.00003
3.00003
3.00003
3.00003
3.00003
3.00002
3.00001
3
2.99993
2.99985
2.99949
2.99896
2.99695
2.99369
2.98274
2.95973
2.89845
2.73437
2.40203
1.6378
0.727022
0.327214
0.434754
0.528755
3.00003
3.00003
3.00003
3.00003
3.00003
3.00003
3.00002
3.00002
2.99999
2.99996
2.99981
2.9996
2.99878
2.9975
2.99299
2.98455
2.95908
2.89835
2.75562
2.37955
1.66329
0.708984
0.301049
0.412773
0.50693
3.00003
3.00003
3.00003
3.00003
3.00003
3.00003
3.00002
3.00001
3
2.99994
2.99986
2.99955
2.99906
2.99736
2.99415
2.98466
2.96221
2.90691
2.75466
2.44751
1.71962
0.774493
0.327432
0.416598
0.500744
3.00003
3.00003
3.00003
3.00003
3.00003
3.00003
3.00002
3.00002
2.99999
2.99996
2.99982
2.99962
2.99886
2.99765
2.99341
2.98555
2.96177
2.90521
2.77232
2.41731
1.73309
0.756347
0.317141
0.398016
0.478795
3.00003
3.00003
3.00003
3.00003
3.00003
3.00003
3.00002
3.00001
3
2.99994
2.99986
2.99953
2.99906
2.99719
2.99433
2.98408
2.96509
2.9086
2.76998
2.46782
1.76668
0.82905
0.354698
0.410901
0.48071
3.00003
3.00003
3.00003
3.00003
3.00003
3.00003
3.00002
3.00001
3
2.99994
2.99986
2.99954
2.99907
2.99722
2.99441
2.98425
2.96571
2.90978
2.77446
2.47453
1.78275
0.847736
0.368
0.413647
0.479639
3.00003
3.00003
3.00003
3.00003
3.00003
3.00003
3.00002
3.00002
2.99999
2.99996
2.99983
2.99964
2.99888
2.99775
2.99352
2.98629
2.96269
2.91054
2.78049
2.4432
1.77666
0.798296
0.346511
0.390911
0.45616
3.00003
3.00003
3.00003
3.00003
3.00003
3.00003
3.00002
3.00002
2.99999
2.99996
2.99982
2.99962
2.99882
2.99769
2.99307
2.98622
2.96087
2.91365
2.78022
2.45395
1.78785
0.801855
0.347521
0.386571
0.447635
3
2.99998
2.99992
2.99984
2.9995
2.99901
2.99713
2.99424
2.98408
2.96515
2.90981
2.77355
2.48292
1.80639
0.902496
0.494983
0.514983
0.526743
0.521188
0.508489
0.505338
0.518858
0.559079
0.6434
0.811028
3
2.99998
2.99993
2.99985
2.99955
2.99912
2.99738
2.99491
2.98517
2.96992
2.9182
2.80904
2.54196
1.92629
1.03985
0.572404
0.543802
0.555156
0.55896
0.553499
0.556252
0.578178
0.631585
0.730134
0.894432
3
2.99999
2.99994
2.99988
2.99961
2.99925
2.99775
2.99564
2.98731
2.97428