/*--------------------------------*- C++ -*----------------------------------*\
| =========                 |                                                 |
| \\      /  F ield         | OpenFOAM: The Open Source CFD Toolbox           |
|  \\    /   O peration     | Version:  4.1                                   |
|   \\  /    A nd           | Web:      www.OpenFOAM.org                      |
|    \\/     M anipulation  |                                                 |
\*---------------------------------------------------------------------------*/
FoamFile
{
    version     2.0;
    format      ascii;
    class       volScalarField;
    location    "2.18";
    object      T;
}
// * * * * * * * * * * * * * * * * * * * * * * * * * * * * * * * * * * * * * //

dimensions      [0 0 0 1 0 0 0];

internalField   nonuniform List<scalar> 
52500
(
0.999995
1.00002
1.00004
1.00014
1.00025
1.00082
1.00153
1.00454
1.00955
1.02473
1.06686
1.14856
1.46437
2.20243
2.6537
2.74366
2.73804
2.73381
2.75028
2.76154
2.77055
2.77589
2.77629
2.78022
2.80544
0.999995
1.00002
1.00004
1.00013
1.00025
1.00081
1.00151
1.00448
1.00939
1.02438
1.06571
1.1464
1.45551
2.18649
2.64919
2.74338
2.73754
2.73271
2.74891
2.7599
2.76882
2.77378
2.77392
2.77761
2.80261
0.999995
1.00001
1.00003
1.00013
1.00024
1.00079
1.00146
1.00436
1.00909
1.02367
1.0633
1.14198
1.43633
2.15026
2.63653
2.74126
2.73518
2.72902
2.74541
2.75614
2.76559
2.77115
2.77146
2.77496
2.79911
0.999995
1.00001
1.00003
1.00013
1.00023
1.00077
1.0014
1.00432
1.00859
1.02323
1.0587
1.13544
1.40493
2.09344
2.61573
2.73653
2.73021
2.72306
2.73982
2.75119
2.75903
2.76458
2.76628
2.77079
2.79496
0.999995
1.00001
1.00003
1.00012
1.00022
1.00073
1.00132
1.00414
1.00799
1.02236
1.05329
1.12697
1.36767
2.01728
2.58721
2.73136
2.72521
2.71282
2.72851
2.73785
2.74886
2.75526
2.75593
2.76191
2.78601
0.999995
1.00001
1.00003
1.00011
1.00021
1.00067
1.00123
1.00385
1.00737
1.02107
1.0478
1.11873
1.32629
1.93566
2.54512
2.7157
2.70834
2.69709
2.71632
2.72677
2.7377
2.74708
2.74805
2.74878
2.77438
0.999995
1.00001
1.00003
1.0001
1.00019
1.00062
1.00114
1.00356
1.00678
1.01951
1.04362
1.10973
1.2958
1.85913
2.51188
2.71017
2.70262
2.6896
2.70489
2.71621
2.7238
2.7292
2.73207
2.73562
2.75305
0.999995
1.00001
1.00002
1.00009
1.00017
1.00057
1.00103
1.00325
1.00616
1.01785
1.03976
1.09931
1.27111
1.76825
2.48055
2.69815
2.6855
2.68216
2.69535
2.70195
2.71198
2.71621
2.71149
2.70779
2.72745
0.999994
1.00001
1.00002
1.00008
1.00015
1.00049
1.0009
1.00275
1.00553
1.01478
1.03725
1.08548
1.25377
1.64575
2.43191
2.68217
2.68069
2.67746
2.67869
2.68647
2.68913
2.69043
2.6892
2.68016
2.67011
0.999994
1
1.00001
1.00006
1.00012
1.0004
1.00078
1.00219
1.00493
1.01209
1.03354
1.07334
1.2318
1.55887
2.32387
2.64087
2.67392
2.67099
2.66825
2.67383
2.67213
2.66549
2.64778
2.62164
2.58864
1
1.00002
1.00004
1.00014
1.00026
1.00083
1.00154
1.00455
1.00956
1.02474
1.06688
1.14861
1.46442
2.20259
2.65374
2.74372
2.73809
2.73387
2.75035
2.76163
2.77064
2.77598
2.77638
2.7803
2.80552
1
1.00002
1.00004
1.00014
1.00026
1.00082
1.00151
1.00449
1.0094
1.0244
1.06572
1.14645
1.45556
2.18666
2.64924
2.74343
2.73759
2.73278
2.74898
2.75998
2.76891
2.77387
2.77401
2.77768
2.80268
1
1.00002
1.00004
1.00014
1.00025
1.0008
1.00147
1.00437
1.0091
1.02369
1.06332
1.14202
1.43636
2.1504
2.63657
2.74132
2.73524
2.72909
2.74547
2.75622
2.76568
2.77123
2.77155
2.77503
2.79918
1
1.00002
1.00004
1.00013
1.00024
1.00077
1.00141
1.00433
1.0086
1.02325
1.0587
1.13548
1.40495
2.0936
2.61579
2.73659
2.73026
2.72313
2.73989
2.75128
2.75912
2.76467
2.76636
2.77086
2.79503
1
1.00002
1.00004
1.00013
1.00023
1.00073
1.00133
1.00415
1.008
1.02238
1.0533
1.12701
1.3677
2.01746
2.58728
2.73141
2.72527
2.7129
2.72859
2.73794
2.74894
2.75534
2.75601
2.76198
2.78609
1
1.00002
1.00004
1.00012
1.00021
1.00068
1.00124
1.00386
1.00738
1.02108
1.04782
1.11876
1.32635
1.93579
2.54526
2.71577
2.70839
2.69714
2.71637
2.72684
2.73777
2.74716
2.74812
2.74885
2.77445
1
1.00002
1.00003
1.00011
1.0002
1.00063
1.00114
1.00357
1.00679
1.01953
1.04363
1.10976
1.29583
1.85927
2.51192
2.71023
2.70267
2.68965
2.70493
2.71628
2.72388
2.72928
2.73214
2.73569
2.75312
1
1.00002
1.00003
1.0001
1.00018
1.00057
1.00104
1.00326
1.00617
1.01787
1.03978
1.09934
1.27112
1.76841
2.48062
2.6982
2.68555
2.68219
2.69541
2.70201
2.71205
2.71629
2.71158
2.70785
2.72751
1
1.00001
1.00003
1.00009
1.00016
1.0005
1.00091
1.00276
1.00554
1.0148
1.03726
1.0855
1.25376
1.64582
2.43201
2.68221
2.68073
2.67749
2.67873
2.68652
2.6892
2.6905
2.68927
2.68023
2.67016
1
1.00001
1.00002
1.00007
1.00013
1.00041
1.00079
1.0022
1.00494
1.0121
1.03355
1.07337
1.23182
1.55895
2.32398
2.64093
2.67396
2.67102
2.66829
2.67388
2.67218
2.66555
2.64785
2.6217
2.58869
1
1.00002
1.00004
1.00014
1.00026
1.00083
1.00154
1.00455
1.00956
1.02474
1.06688
1.14861
1.46442
2.20259
2.65374
2.74372
2.73809
2.73387
2.75035
2.76163
2.77064
2.77598
2.77638
2.7803
2.80552
1
1.00002
1.00004
1.00014
1.00026
1.00082
1.00151
1.00449
1.0094
1.0244
1.06572
1.14645
1.45556
2.18666
2.64924
2.74343
2.73759
2.73278
2.74898
2.75998
2.76891
2.77387
2.77401
2.77768
2.80268
1
1.00002
1.00004
1.00014
1.00025
1.0008
1.00147
1.00437
1.0091
1.02369
1.06332
1.14203
1.43637
2.1504
2.63657
2.74132
2.73524
2.72909
2.74547
2.75622
2.76568
2.77123
2.77155
2.77503
2.79918
1
1.00002
1.00004
1.00013
1.00024
1.00077
1.00141
1.00433
1.0086
1.02325
1.0587
1.13548
1.40496
2.0936
2.61579
2.73659
2.73026
2.72313
2.73989
2.75128
2.75913
2.76468
2.76636
2.77086
2.79503
1
1.00002
1.00004
1.00013
1.00023
1.00073
1.00133
1.00415
1.008
1.02238
1.0533
1.12701
1.36771
2.01747
2.58729
2.73141
2.72527
2.7129
2.72859
2.73794
2.74894
2.75534
2.75601
2.76198
2.78609
1
1.00002
1.00004
1.00012
1.00021
1.00068
1.00124
1.00386
1.00738
1.02108
1.04782
1.11876
1.32635
1.93579
2.54526
2.71577
2.70839
2.69714
2.71637
2.72684
2.73777
2.74716
2.74812
2.74884
2.77445
1
1.00002
1.00003
1.00011
1.0002
1.00063
1.00114
1.00357
1.00679
1.01953
1.04363
1.10976
1.29583
1.85927
2.51192
2.71023
2.70267
2.68965
2.70493
2.71628
2.72388
2.72928
2.73214
2.73569
2.75312
1
1.00002
1.00003
1.0001
1.00018
1.00057
1.00104
1.00326
1.00617
1.01787
1.03978
1.09934
1.27112
1.76842
2.48062
2.6982
2.68555
2.68219
2.69541
2.70201
2.71205
2.71629
2.71158
2.70785
2.72751
1
1.00001
1.00003
1.00009
1.00016
1.0005
1.00091
1.00276
1.00554
1.0148
1.03726
1.0855
1.25376
1.64583
2.43201
2.68221
2.68073
2.67749
2.67873
2.68652
2.6892
2.6905
2.68927
2.68023
2.67017
1
1.00001
1.00002
1.00007
1.00013
1.00041
1.00079
1.0022
1.00494
1.0121
1.03355
1.07337
1.23182
1.55895
2.32398
2.64093
2.67396
2.67102
2.66829
2.67388
2.67218
2.66556
2.64785
2.6217
2.58869
1
1.00002
1.00004
1.00014
1.00026
1.00083
1.00154
1.00455
1.00956
1.02474
1.06688
1.14861
1.46442
2.20259
2.65374
2.74372
2.73809
2.73387
2.75035
2.76163
2.77064
2.77598
2.77638
2.7803
2.80552
1
1.00002
1.00004
1.00014
1.00026
1.00082
1.00151
1.00449
1.0094
1.0244
1.06572
1.14645
1.45556
2.18667
2.64923
2.74343
2.73759
2.73278
2.74898
2.75998
2.76891
2.77387
2.77401
2.77768
2.80268
1
1.00002
1.00004
1.00014
1.00025
1.0008
1.00147
1.00437
1.0091
1.02369
1.06332
1.14203
1.43637
2.15041
2.63657
2.74132
2.73524
2.72909
2.74547
2.75622
2.76568
2.77123
2.77155
2.77503
2.79918
1
1.00002
1.00004
1.00013
1.00024
1.00077
1.00141
1.00433
1.0086
1.02325
1.0587
1.13548
1.40496
2.0936
2.61579
2.73659
2.73026
2.72313
2.73989
2.75128
2.75913
2.76468
2.76636
2.77086
2.79503
1
1.00002
1.00004
1.00013
1.00023
1.00073
1.00133
1.00415
1.008
1.02238
1.0533
1.12701
1.36771
2.01747
2.58729
2.73141
2.72527
2.7129
2.72859
2.73794
2.74894
2.75534
2.75601
2.76198
2.78609
1
1.00002
1.00004
1.00012
1.00021
1.00068
1.00124
1.00386
1.00738
1.02108
1.04782
1.11876
1.32635
1.93579
2.54526
2.71577
2.70839
2.69714
2.71637
2.72684
2.73777
2.74716
2.74813
2.74884
2.77445
1
1.00002
1.00003
1.00011
1.0002
1.00063
1.00114
1.00357
1.00679
1.01953
1.04363
1.10976
1.29583
1.85927
2.51192
2.71023
2.70266
2.68965
2.70493
2.71628
2.72388
2.72928
2.73214
2.73569
2.75312
1
1.00002
1.00003
1.0001
1.00018
1.00057
1.00104
1.00326
1.00617
1.01787
1.03978
1.09934
1.27112
1.76842
2.48062
2.6982
2.68555
2.68219
2.69541
2.70201
2.71205
2.71629
2.71158
2.70785
2.72752
1
1.00001
1.00003
1.00009
1.00016
1.0005
1.00091
1.00276
1.00554
1.0148
1.03726
1.0855
1.25376
1.64583
2.43201
2.68221
2.68073
2.67749
2.67873
2.68652
2.6892
2.6905
2.68927
2.68023
2.67017
1
1.00001
1.00002
1.00007
1.00013
1.00041
1.00079
1.0022
1.00494
1.0121
1.03355
1.07337
1.23182
1.55895
2.32398
2.64093
2.67396
2.67102
2.66829
2.67388
2.67218
2.66556
2.64785
2.6217
2.58869
1
1.00002
1.00004
1.00014
1.00026
1.00083
1.00154
1.00455
1.00956
1.02474
1.06688
1.14861
1.46442
2.2026
2.65374
2.74372
2.73809
2.73387
2.75035
2.76163
2.77064
2.77598
2.77638
2.7803
2.80552
1
1.00002
1.00004
1.00014
1.00026
1.00082
1.00151
1.00449
1.0094
1.0244
1.06572
1.14645
1.45556
2.18667
2.64923
2.74343
2.73759
2.73278
2.74898
2.75998
2.76891
2.77387
2.77401
2.77768
2.80268
1
1.00002
1.00004
1.00014
1.00025
1.0008
1.00147
1.00437
1.0091
1.02369
1.06332
1.14203
1.43637
2.15041
2.63657
2.74132
2.73524
2.72909
2.74547
2.75622
2.76568
2.77123
2.77155
2.77503
2.79918
1
1.00002
1.00004
1.00013
1.00024
1.00077
1.00141
1.00433
1.0086
1.02325
1.0587
1.13548
1.40496
2.09361
2.61579
2.73659
2.73026
2.72313
2.73989
2.75128
2.75913
2.76468
2.76636
2.77086
2.79503
1
1.00002
1.00004
1.00013
1.00023
1.00073
1.00133
1.00415
1.008
1.02238
1.0533
1.12701
1.36771
2.01747
2.58729
2.73141
2.72527
2.7129
2.72859
2.73794
2.74894
2.75534
2.75601
2.76198
2.78609
1
1.00002
1.00004
1.00012
1.00021
1.00068
1.00124
1.00386
1.00738
1.02108
1.04782
1.11876
1.32635
1.93579
2.54526
2.71577
2.70839
2.69714
2.71637
2.72684
2.73777
2.74716
2.74813
2.74884
2.77445
1
1.00002
1.00003
1.00011
1.0002
1.00063
1.00114
1.00357
1.00679
1.01953
1.04363
1.10976
1.29583
1.85927
2.51192
2.71023
2.70266
2.68965
2.70493
2.71628
2.72388
2.72928
2.73214
2.73569
2.75312
1
1.00002
1.00003
1.0001
1.00018
1.00057
1.00104
1.00326
1.00617
1.01787
1.03978
1.09934
1.27112
1.76842
2.48062
2.6982
2.68555
2.68219
2.69541
2.70201
2.71205
2.71629
2.71158
2.70785
2.72751
1
1.00001
1.00003
1.00009
1.00016
1.0005
1.00091
1.00276
1.00554
1.0148
1.03726
1.0855
1.25376
1.64583
2.43201
2.68221
2.68072
2.67749
2.67873
2.68652
2.6892
2.6905
2.68927
2.68023
2.67016
1
1.00001
1.00002
1.00007
1.00013
1.00041
1.00079
1.0022
1.00494
1.0121
1.03355
1.07337
1.23182
1.55895
2.32398
2.64093
2.67396
2.67102
2.66829
2.67388
2.67218
2.66556
2.64785
2.6217
2.58869
1
1.00002
1.00004
1.00014
1.00026
1.00083
1.00154
1.00455
1.00956
1.02474
1.06688
1.14861
1.46442
2.20259
2.65374
2.74372
2.73809
2.73387
2.75035
2.76163
2.77064
2.77598
2.77638
2.7803
2.80552
1
1.00002
1.00004
1.00014
1.00026
1.00082
1.00151
1.00449
1.0094
1.0244
1.06572
1.14645
1.45556
2.18667
2.64923
2.74343
2.73759
2.73278
2.74898
2.75998
2.76891
2.77387
2.77401
2.77768
2.80268
1
1.00002
1.00004
1.00014
1.00025
1.0008
1.00147
1.00437
1.0091
1.02369
1.06332
1.14203
1.43637
2.15041
2.63657
2.74132
2.73524
2.72909
2.74547
2.75622
2.76568
2.77123
2.77155
2.77503
2.79918
1
1.00002
1.00004
1.00013
1.00024
1.00077
1.00141
1.00433
1.0086
1.02325
1.0587
1.13548
1.40496
2.0936
2.61579
2.73659
2.73026
2.72313
2.73989
2.75128
2.75913
2.76468
2.76636
2.77086
2.79503
1
1.00002
1.00004
1.00013
1.00023
1.00073
1.00133
1.00415
1.008
1.02238
1.0533
1.12701
1.36771
2.01747
2.58729
2.73141
2.72527
2.7129
2.72859
2.73794
2.74894
2.75534
2.75601
2.76198
2.78609
1
1.00002
1.00004
1.00012
1.00021
1.00068
1.00124
1.00386
1.00738
1.02108
1.04782
1.11876
1.32635
1.93579
2.54526
2.71577
2.70839
2.69714
2.71637
2.72684
2.73777
2.74716
2.74813
2.74884
2.77445
1
1.00002
1.00003
1.00011
1.0002
1.00063
1.00114
1.00357
1.00679
1.01953
1.04363
1.10976
1.29583
1.85927
2.51192
2.71023
2.70266
2.68965
2.70493
2.71628
2.72388
2.72928
2.73214
2.73569
2.75312
1
1.00002
1.00003
1.0001
1.00018
1.00057
1.00104
1.00326
1.00617
1.01787
1.03978
1.09934
1.27112
1.76842
2.48062
2.6982
2.68555
2.68219
2.69541
2.70201
2.71205
2.71629
2.71158
2.70785
2.72751
1
1.00001
1.00003
1.00009
1.00016
1.0005
1.00091
1.00276
1.00554
1.0148
1.03726
1.0855
1.25376
1.64583
2.43201
2.68221
2.68072
2.67749
2.67873
2.68652
2.6892
2.6905
2.68927
2.68023
2.67017
1
1.00001
1.00002
1.00007
1.00013
1.00041
1.00079
1.0022
1.00494
1.0121
1.03355
1.07337
1.23182
1.55895
2.32398
2.64093
2.67396
2.67102
2.66829
2.67388
2.67218
2.66556
2.64785
2.6217
2.58869
1
1.00002
1.00004
1.00014
1.00026
1.00083
1.00154
1.00455
1.00956
1.02474
1.06688
1.14861
1.46442
2.20259
2.65374
2.74372
2.73809
2.73387
2.75035
2.76163
2.77064
2.77598
2.77638
2.7803
2.80552
1
1.00002
1.00004
1.00014
1.00026
1.00082
1.00151
1.00449
1.0094
1.0244
1.06572
1.14645
1.45556
2.18667
2.64923
2.74343
2.73759
2.73278
2.74898
2.75998
2.76891
2.77387
2.77401
2.77768
2.80268
1
1.00002
1.00004
1.00014
1.00025
1.0008
1.00147
1.00437
1.0091
1.02369
1.06332
1.14203
1.43637
2.15041
2.63657
2.74132
2.73524
2.72909
2.74547
2.75622
2.76568
2.77123
2.77155
2.77503
2.79918
1
1.00002
1.00004
1.00013
1.00024
1.00077
1.00141
1.00433
1.0086
1.02325
1.0587
1.13548
1.40496
2.0936
2.61579
2.73659
2.73026
2.72313
2.73989
2.75128
2.75913
2.76468
2.76636
2.77086
2.79503
1
1.00002
1.00004
1.00013
1.00023
1.00073
1.00133
1.00415
1.008
1.02238
1.0533
1.12701
1.36771
2.01747
2.58729
2.73141
2.72527
2.7129
2.72859
2.73794
2.74894
2.75534
2.75601
2.76198
2.78609
1
1.00002
1.00004
1.00012
1.00021
1.00068
1.00124
1.00386
1.00738
1.02108
1.04782
1.11876
1.32635
1.93579
2.54526
2.71577
2.70839
2.69714
2.71637
2.72684
2.73777
2.74716
2.74813
2.74884
2.77445
1
1.00002
1.00003
1.00011
1.0002
1.00063
1.00114
1.00357
1.00679
1.01953
1.04363
1.10976
1.29583
1.85927
2.51192
2.71023
2.70266
2.68965
2.70493
2.71628
2.72388
2.72928
2.73214
2.73569
2.75312
1
1.00002
1.00003
1.0001
1.00018
1.00057
1.00104
1.00326
1.00617
1.01787
1.03978
1.09934
1.27112
1.76842
2.48062
2.6982
2.68555
2.68219
2.69541
2.70201
2.71205
2.71629
2.71158
2.70785
2.72752
1
1.00001
1.00003
1.00009
1.00016
1.0005
1.00091
1.00276
1.00554
1.0148
1.03726
1.0855
1.25376
1.64583
2.43201
2.68221
2.68073
2.67749
2.67873
2.68652
2.6892
2.6905
2.68927
2.68023
2.67017
1
1.00001
1.00002
1.00007
1.00013
1.00041
1.00079
1.0022
1.00494
1.0121
1.03355
1.07337
1.23182
1.55895
2.32398
2.64093
2.67396
2.67102
2.66829
2.67388
2.67218
2.66556
2.64785
2.6217
2.58869
1
1.00002
1.00004
1.00014
1.00026
1.00083
1.00154
1.00455
1.00956
1.02474
1.06688
1.14861
1.46442
2.20259
2.65374
2.74372
2.73809
2.73387
2.75035
2.76163
2.77064
2.77598
2.77638
2.7803
2.80552
1
1.00002
1.00004
1.00014
1.00026
1.00082
1.00151
1.00449
1.0094
1.0244
1.06572
1.14645
1.45556
2.18666
2.64924
2.74343
2.73759
2.73278
2.74898
2.75998
2.76891
2.77387
2.77401
2.77768
2.80268
1
1.00002
1.00004
1.00014
1.00025
1.0008
1.00147
1.00437
1.0091
1.02369
1.06332
1.14203
1.43637
2.1504
2.63657
2.74132
2.73524
2.72909
2.74547
2.75622
2.76568
2.77123
2.77155
2.77503
2.79918
1
1.00002
1.00004
1.00013
1.00024
1.00077
1.00141
1.00433
1.0086
1.02325
1.0587
1.13548
1.40496
2.0936
2.61579
2.73659
2.73026
2.72313
2.73989
2.75128
2.75913
2.76468
2.76636
2.77086
2.79503
1
1.00002
1.00004
1.00013
1.00023
1.00073
1.00133
1.00415
1.008
1.02238
1.0533
1.12701
1.36771
2.01747
2.58729
2.73141
2.72527
2.7129
2.72859
2.73794
2.74894
2.75534
2.75601
2.76198
2.78609
1
1.00002
1.00004
1.00012
1.00021
1.00068
1.00124
1.00386
1.00738
1.02108
1.04782
1.11876
1.32635
1.93579
2.54526
2.71577
2.70839
2.69714
2.71637
2.72684
2.73777
2.74716
2.74812
2.74884
2.77445
1
1.00002
1.00003
1.00011
1.0002
1.00063
1.00114
1.00357
1.00679
1.01953
1.04363
1.10976
1.29583
1.85927
2.51192
2.71023
2.70267
2.68965
2.70493
2.71628
2.72388
2.72928
2.73214
2.73569
2.75312
1
1.00002
1.00003
1.0001
1.00018
1.00057
1.00104
1.00326
1.00617
1.01787
1.03978
1.09934
1.27112
1.76842
2.48062
2.6982
2.68555
2.68219
2.69541
2.70201
2.71205
2.71629
2.71158
2.70785
2.72751
1
1.00001
1.00003
1.00009
1.00016
1.0005
1.00091
1.00276
1.00554
1.0148
1.03726
1.0855
1.25376
1.64583
2.43201
2.68221
2.68073
2.67749
2.67873
2.68652
2.6892
2.6905
2.68927
2.68023
2.67017
1
1.00001
1.00002
1.00007
1.00013
1.00041
1.00079
1.0022
1.00494
1.0121
1.03355
1.07337
1.23182
1.55895
2.32398
2.64093
2.67396
2.67102
2.66829
2.67388
2.67218
2.66556
2.64785
2.6217
2.58869
1
1.00002
1.00004
1.00014
1.00026
1.00083
1.00154
1.00455
1.00956
1.02474
1.06688
1.14861
1.46442
2.20259
2.65374
2.74372
2.73809
2.73387
2.75035
2.76163
2.77064
2.77598
2.77638
2.7803
2.80552
1
1.00002
1.00004
1.00014
1.00026
1.00082
1.00151
1.00449
1.0094
1.0244
1.06572
1.14645
1.45556
2.18666
2.64924
2.74343
2.73759
2.73278
2.74898
2.75998
2.76891
2.77387
2.77401
2.77768
2.80268
1
1.00002
1.00004
1.00014
1.00025
1.0008
1.00147
1.00437
1.0091
1.02369
1.06332
1.14202
1.43636
2.1504
2.63657
2.74132
2.73524
2.72909
2.74547
2.75622
2.76568
2.77123
2.77155
2.77503
2.79918
1
1.00002
1.00004
1.00013
1.00024
1.00077
1.00141
1.00433
1.0086
1.02325
1.0587
1.13548
1.40495
2.0936
2.61579
2.73659
2.73026
2.72313
2.73989
2.75128
2.75912
2.76467
2.76636
2.77086
2.79503
1
1.00002
1.00004
1.00013
1.00023
1.00073
1.00133
1.00415
1.008
1.02238
1.0533
1.12701
1.3677
2.01746
2.58728
2.73141
2.72527
2.7129
2.72859
2.73794
2.74894
2.75534
2.75601
2.76198
2.78609
1
1.00002
1.00004
1.00012
1.00021
1.00068
1.00124
1.00386
1.00738
1.02108
1.04782
1.11876
1.32635
1.93579
2.54526
2.71577
2.70839
2.69714
2.71637
2.72684
2.73777
2.74716
2.74812
2.74885
2.77445
1
1.00002
1.00003
1.00011
1.0002
1.00063
1.00114
1.00357
1.00679
1.01953
1.04363
1.10976
1.29583
1.85927
2.51192
2.71023
2.70267
2.68965
2.70493
2.71628
2.72388
2.72928
2.73214
2.73569
2.75312
1
1.00002
1.00003
1.0001
1.00018
1.00057
1.00104
1.00326
1.00617
1.01787
1.03978
1.09934
1.27112
1.76841
2.48062
2.6982
2.68555
2.68219
2.69541
2.70201
2.71205
2.71629
2.71158
2.70785
2.72751
1
1.00001
1.00003
1.00009
1.00016
1.0005
1.00091
1.00276
1.00554
1.0148
1.03726
1.0855
1.25376
1.64582
2.43201
2.68221
2.68073
2.67749
2.67873
2.68652
2.6892
2.6905
2.68927
2.68023
2.67016
1
1.00001
1.00002
1.00007
1.00013
1.00041
1.00079
1.0022
1.00494
1.0121
1.03355
1.07337
1.23182
1.55895
2.32397
2.64093
2.67396
2.67102
2.66829
2.67388
2.67218
2.66555
2.64785
2.6217
2.58869
0.999995
1.00002
1.00004
1.00014
1.00025
1.00082
1.00153
1.00454
1.00955
1.02473
1.06686
1.14856
1.46436
2.20242
2.6537
2.74366
2.73804
2.73381
2.75028
2.76154
2.77055
2.77589
2.77629
2.78022
2.80544
0.999995
1.00002
1.00004
1.00013
1.00025
1.00081
1.00151
1.00448
1.00939
1.02438
1.06571
1.1464
1.45551
2.18649
2.64919
2.74338
2.73754
2.73271
2.74891
2.7599
2.76882
2.77378
2.77392
2.77761
2.80261
0.999995
1.00001
1.00003
1.00013
1.00024
1.00079
1.00146
1.00436
1.00909
1.02367
1.0633
1.14198
1.43633
2.15026
2.63653
2.74126
2.73518
2.72902
2.74541
2.75614
2.76559
2.77115
2.77146
2.77496
2.79911
0.999995
1.00001
1.00003
1.00013
1.00023
1.00077
1.0014
1.00432
1.00859
1.02323
1.0587
1.13544
1.40493
2.09344
2.61573
2.73653
2.73021
2.72306
2.73982
2.75119
2.75903
2.76458
2.76628
2.77079
2.79496
0.999995
1.00001
1.00003
1.00012
1.00022
1.00073
1.00132
1.00414
1.00799
1.02236
1.05329
1.12697
1.36767
2.01727
2.58721
2.73136
2.72521
2.71282
2.72851
2.73784
2.74886
2.75526
2.75593
2.76191
2.78601
0.999995
1.00001
1.00003
1.00011
1.00021
1.00067
1.00123
1.00385
1.00737
1.02107
1.0478
1.11873
1.32629
1.93566
2.54511
2.7157
2.70834
2.69709
2.71632
2.72677
2.7377
2.74708
2.74805
2.74878
2.77438
0.999995
1.00001
1.00003
1.0001
1.00019
1.00062
1.00114
1.00356
1.00678
1.01951
1.04362
1.10973
1.2958
1.85913
2.51188
2.71017
2.70262
2.6896
2.70489
2.71621
2.7238
2.7292
2.73207
2.73562
2.75305
0.999995
1.00001
1.00002
1.00009
1.00017
1.00057
1.00103
1.00325
1.00616
1.01785
1.03976
1.09931
1.27111
1.76825
2.48055
2.69815
2.68551
2.68216
2.69535
2.70195
2.71198
2.71621
2.71149
2.70779
2.72745
0.999994
1.00001
1.00002
1.00008
1.00015
1.00049
1.0009
1.00275
1.00553
1.01478
1.03725
1.08548
1.25376
1.64575
2.43191
2.68217
2.68069
2.67746
2.67869
2.68647
2.68913
2.69043
2.6892
2.68016
2.67011
0.999994
1
1.00001
1.00006
1.00012
1.0004
1.00078
1.00219
1.00493
1.01209
1.03354
1.07334
1.2318
1.55887
2.32386
2.64087
2.67392
2.67099
2.66825
2.67383
2.67213
2.66549
2.64778
2.62164
2.58864
0.999996
1
1.00002
1.00004
1.00015
1.00028
1.00088
1.00173
1.00474
1.01113
1.02687
1.07705
1.16503
1.53117
2.30022
2.57478
2.65277
2.65117
2.64723
2.65029
2.64887
2.63922
2.61262
2.55164
2.36774
0.999995
0.999999
1.00002
1.00004
1.00013
1.00025
1.00081
1.00149
1.00449
1.0092
1.0242
1.06366
1.14377
1.43539
2.14992
2.52928
2.6429
2.63639
2.62806
2.62521
2.6189
2.60017
2.56077
2.49048
2.29495
0.999995
0.999998
1.00001
1.00003
1.00011
1.00021
1.00069
1.00126
1.00396
1.00757
1.02156
1.04948
1.12107
1.33814
1.94827
2.44454
2.61812
2.61218
2.60674
2.60327
2.59619
2.57465
2.52341
2.45316
2.29109
0.999995
0.999997
1.00001
1.00002
1.00009
1.00017
1.00057
1.00104
1.00327
1.00618
1.01801
1.03894
1.10092
1.25803
1.76247
2.35116
2.586
2.57935
2.57594
2.56431
2.55479
2.53442
2.48989
2.43208
2.30021
0.999994
0.999996
1.00001
1.00002
1.00007
1.00013
1.00043
1.00081
1.00235
1.00503
1.01277
1.03378
1.07582
1.22398
1.56574
2.24999
2.5407
2.56377
2.5599
2.55071
2.52991
2.50516
2.45171
2.40481
2.3111
0.999994
0.999996
1
1.00002
1.00004
1.00014
1.00027
1.00083
1.00162
1.00451
1.0102
1.025
1.07
1.15175
1.47442
2.17191
2.44676
2.52913
2.52338
2.5194
2.50583
2.48418
2.43412
2.38037
2.30806
0.999994
0.999996
0.999998
1.00001
1.00003
1.00012
1.00022
1.00071
1.00129
1.00404
1.00774
1.0218
1.05082
1.12206
1.34468
1.94653
2.37458
2.51107
2.50778
2.4982
2.47462
2.45509
2.41684
2.36171
2.2996
0.999993
0.999995
0.999997
1.00001
1.00002
1.00009
1.00017
1.00054
1.001
1.00307
1.00591
1.01697
1.03658
1.09687
1.23533
1.73332
2.20401
2.46287
2.47569
2.47066
2.4556
2.42871
2.39564
2.34713
2.2893
0.999993
0.999993
0.999996
1
1.00002
1.00005
1.00016
1.0003
1.00093
1.00178
1.00497
1.01108
1.02722
1.07556
1.16162
1.50321
2.1603
2.39823
2.44671
2.44131
2.43083
2.40774
2.37769
2.33419
2.28232
0.999992
0.999993
0.999995
0.999998
1.00001
1.00003
1.00012
1.00023
1.00074
1.00136
1.00418
1.00813
1.02254
1.05322
1.12769
1.35589
1.98707
2.3016
2.41713
2.4163
2.40651
2.38578
2.35869
2.32106
2.2728
0.999992
0.999992
0.999993
0.999998
1
1.00003
1.00006
1.00021
1.00039
1.00122
1.00232
1.00662
1.0143
1.0359
1.09441
1.22242
1.57387
2.18889
2.37004
2.38289
2.37848
2.36407
2.33741
2.3094
2.26822
0.999991
0.999992
0.999993
0.999996
1
1.00002
1.00004
1.00015
1.00028
1.00087
1.00165
1.0047
1.01014
1.02534
1.06879
1.14919
1.45798
2.07547
2.31555
2.35625
2.35096
2.33615
2.31177
2.28336
2.25447
0.999991
0.999991
0.999992
0.999994
0.999999
1.00001
1.00004
1.00007
1.00025
1.00047
1.00137
1.00287
1.00735
1.01854
1.04258
1.12318
1.27546
1.77056
2.19858
2.33245
2.33034
2.31754
2.29642
2.26701
2.23642
0.999991
0.999991
0.999992
0.999993
0.999997
1
1.00002
1.00005
1.00018
1.00033
1.00105
1.00194
1.00581
1.01169
1.03087
1.07762
1.17959
1.49091
2.07623
2.27978
2.30257
2.29587
2.27606
2.24886
2.21631
0.999991
0.999991
0.999991
0.999992
0.999994
1
1.00001
1.00004
1.00009
1.00028
1.00054
1.00159
1.00323
1.00844
1.02064
1.04811
1.13741
1.3099
1.81799
2.1687
2.27575
2.2754
2.2649
2.24138
2.20935
0.999991
0.999991
0.999991
0.999992
0.999993
0.999997
1
1.00003
1.00006
1.0002
1.00037
1.00115
1.00212
1.00639
1.01261
1.03379
1.08015
1.19819
1.49129
2.04178
2.21614
2.2371
2.23542
2.22228
2.19497
0.999991
0.999991
0.999991
0.999991
0.999993
0.999994
1
1.00001
1.00005
1.00009
1.00031
1.00058
1.00175
1.00339
1.0093
1.02096
1.05083
1.13785
1.32543
1.80884
2.12621
2.21247
2.21579
2.20889
2.19026
0.999991
0.999991
0.999991
0.999991
0.999992
0.999993
0.999997
1
1.00003
1.00006
1.0002
1.00037
1.00116
1.00216
1.0064
1.01266
1.03408
1.07801
1.19881
1.47304
1.9929
2.1595
2.17521
2.17896
2.17
0.999991
0.999991
0.999991
0.999991
0.999991
0.999993
0.999994
1
1.00001
1.00005
1.0001
1.00031
1.00058
1.00173
1.00335
1.00937
1.0204
1.05025
1.1288
1.3225
1.74623
2.07595
2.15489
2.15521
2.14879
0.999991
0.999991
0.999991
0.999991
0.999991
0.999992
0.999993
0.999996
1.00001
1.00002
1.00008
1.00015
1.00046
1.00088
1.00258
1.00507
1.01392
1.03003
1.07761
1.18103
1.52636
1.89863
2.1077
2.12846
2.12838
0.999991
0.999991
0.999991
0.999991
0.999991
0.999991
0.999992
0.999994
1
1.00001
1.00005
1.00009
1.00029
1.00054
1.00167
1.00312
1.00901
1.01861
1.04745
1.11596
1.29141
1.67978
2.00726
2.10114
2.10495
0.999991
0.999991
0.999991
0.999991
0.999991
0.999991
0.999992
0.999993
0.999995
1
1.00002
1.00007
1.00013
1.00042
1.0008
1.00233
1.00458
1.01263
1.02665
1.07065
1.15847
1.47402
1.82224
2.04103
2.07765
0.999991
0.999991
0.999991
0.999991
0.999991
0.999991
0.999991
0.999992
0.999994
0.999999
1.00001
1.00004
1.00008
1.00026
1.00048
1.00147
1.00271
1.00797
1.0159
1.04131
1.10003
1.23926
1.59497
1.91106
2.03619
0.999991
0.999991
0.999991
0.999991
0.999991
0.999991
0.999991
0.999992
0.999992
0.999996
1
1.00002
1.00004
1.00015
1.00028
1.00088
1.00159
1.00479
1.00916
1.02477
1.05737
1.13209
1.35326
1.77397
1.96447
0.999991
0.999991
0.999991
0.999991
0.999991
0.999991
0.999991
0.999991
0.999992
0.999994
0.999996
1.00001
1.00002
1.00008
1.00016
1.0005
1.00092
1.00276
1.00525
1.01457
1.03117
1.07771
1.1873
1.51918
1.81269
0.999991
0.999991
0.999991
0.999991
0.999991
0.999991
0.999991
0.999991
0.999991
0.999992
0.999995
0.999998
1.00001
1.00003
1.00011
1.00022
1.00066
1.00127
1.00353
1.00743
1.01847
1.04716
1.10277
1.29151
1.68516
0.999991
0.999991
0.999991
0.999991
0.999991
0.999991
0.999991
0.999991
0.999991
0.999992
0.999993
0.999996
1
1.00002
1.00005
1.00016
1.0003
1.0009
1.00172
1.00482
1.01
1.02526
1.06233
1.14104
1.36664
0.999991
0.999991
0.999991
0.999991
0.999991
0.999991
0.999991
0.999991
0.999991
0.999991
0.999992
0.999993
0.999998
1
1.00003
1.00007
1.00021
1.0004
1.0012
1.00229
1.00636
1.01339
1.03327
1.08408
1.18663
0.999991
0.999991
0.999991
0.999991
0.999991
0.999991
0.999991
0.999991
0.999991
0.999991
0.999991
0.999992
0.999995
0.999998
1.00001
1.00003
1.00012
1.00022
1.00069
1.00127
1.00369
1.00734
1.01886
1.04632
1.10095
0.999991
0.999991
0.999991
0.999991
0.999991
0.999991
0.999991
0.999991
0.999991
0.999991
0.999991
0.999992
0.999993
0.999996
1
1.00002
1.00005
1.00015
1.00029
1.00087
1.00166
1.0047
1.00956
1.02445
1.05771
0.999991
0.999991
0.999991
0.999991
0.999991
0.999991
0.999991
0.999991
0.999991
0.999991
0.999991
0.999991
0.999992
0.999993
0.999998
1
1.00003
1.00006
1.0002
1.00038
1.0011
1.00211
1.00586
1.0121
1.03053
0.999991
0.999991
0.999991
0.999991
0.999991
0.999991
0.999991
0.999991
0.999991
0.999991
0.999991
0.999991
0.999991
0.999992
0.999994
1
1.00001
1.00004
1.00008
1.00026
1.00049
1.00143
1.00274
1.00755
1.01556
0.999991
0.999991
0.999991
0.999991
0.999991
0.999991
0.999991
0.999991
0.999991
0.999991
0.999991
0.999991
0.999991
0.999992
0.999992
0.999996
1
1.00002
1.00004
1.00014
1.00026
1.00078
1.00144
1.00421
1.00809
0.999991
0.999991
0.999991
0.999991
0.999991
0.999991
0.999991
0.999991
0.999991
0.999991
0.999991
0.999991
0.999991
0.999991
0.999992
0.999993
0.999997
1
1.00002
1.00005
1.00016
1.00032
1.00092
1.00177
1.00486
0.999991
0.999991
0.999991
0.999991
0.999991
0.999991
0.999991
0.999991
0.999991
0.999991
0.999991
0.999991
0.999991
0.999991
0.999991
0.999992
0.999993
0.999998
1
1.00003
1.00006
1.0002
1.00039
1.00112
1.00215
0.999991
0.999991
0.999991
0.999991
0.999991
0.999991
0.999991
0.999991
0.999991
0.999991
0.999991
0.999991
0.999991
0.999991
0.999991
0.999991
0.999992
0.999994
1
1.00001
1.00004
1.00008
1.00025
1.00048
1.00136
0.999991
0.999991
0.999991
0.999991
0.999991
0.999991
0.999991
0.999991
0.999991
0.999991
0.999991
0.999991
0.999991
0.999991
0.999991
0.999991
0.999991
0.999993
0.999994
1
1.00001
1.00005
1.0001
1.00031
1.00058
0.999991
0.999991
0.999991
0.999991
0.999991
0.999991
0.999991
0.999991
0.999991
0.999991
0.999991
0.999991
0.999991
0.999991
0.999991
0.999991
0.999991
0.999992
0.999993
0.999997
1
1.00002
1.00005
1.00016
1.0003
0.999991
0.999991
0.999991
0.999991
0.999991
0.999991
0.999991
0.999991
0.999991
0.999991
0.999991
0.999991
0.999991
0.999991
0.999991
0.999991
0.999991
0.999991
0.999992
0.999993
0.999999
1.00001
1.00003
1.00007
1.00023
0.999991
0.999991
0.999991
0.999991
0.999991
0.999991
0.999991
0.999991
0.999991
0.999991
0.999991
0.999991
0.999991
0.999991
0.999991
0.999991
0.999991
0.999991
0.999992
0.999993
0.999997
1
1.00002
1.00005
1.00018
1
1.00001
1.00003
1.00005
1.00016
1.00029
1.00088
1.00174
1.00475
1.01114
1.02688
1.07706
1.16508
1.5312
2.30034
2.57483
2.65281
2.65121
2.64728
2.65035
2.64893
2.63928
2.61268
2.55169
2.36777
1
1.00001
1.00002
1.00004
1.00014
1.00026
1.00082
1.0015
1.0045
1.00921
1.02423
1.06366
1.14381
1.4354
2.15004
2.52934
2.64295
2.63643
2.62809
2.62525
2.61894
2.60022
2.56083
2.49054
2.29499
1
1.00001
1.00002
1.00004
1.00012
1.00022
1.0007
1.00127
1.00397
1.00758
1.02158
1.04949
1.1211
1.33818
1.94841
2.4446
2.61817
2.61224
2.6068
2.60332
2.59624
2.5747
2.52346
2.45321
2.29112
1
1
1.00002
1.00003
1.0001
1.00018
1.00058
1.00105
1.00328
1.00619
1.01802
1.03895
1.10096
1.25805
1.7626
2.35116
2.58604
2.57939
2.57599
2.56436
2.55484
2.53446
2.48993
2.43212
2.30026
1
1
1.00001
1.00002
1.00008
1.00014
1.00044
1.00082
1.00236
1.00504
1.01278
1.03379
1.07585
1.22399
1.56584
2.25007
2.54075
2.56381
2.55994
2.55075
2.52996
2.5052
2.45175
2.40485
2.31114
1
1
1.00001
1.00003
1.00005
1.00015
1.00028
1.00084
1.00163
1.00452
1.01021
1.02501
1.07001
1.15179
1.47447
2.17202
2.44682
2.52917
2.52342
2.51943
2.50587
2.48423
2.43416
2.38041
2.30809
1
1
1.00001
1.00002
1.00004
1.00013
1.00023
1.00072
1.0013
1.00405
1.00775
1.02181
1.05083
1.1221
1.34472
1.94663
2.37465
2.51112
2.50782
2.49823
2.47466
2.45512
2.41688
2.36175
2.29964
1
1
1.00001
1.00002
1.00003
1.0001
1.00018
1.00055
1.00101
1.00308
1.00592
1.01698
1.03659
1.0969
1.23535
1.73342
2.20406
2.46291
2.47574
2.4707
2.45564
2.42875
2.39568
2.34716
2.28933
1
1
1
1.00001
1.00003
1.00005
1.00017
1.00031
1.00093
1.00179
1.00498
1.01109
1.02723
1.07558
1.16166
1.50325
2.16039
2.39827
2.44673
2.44133
2.43085
2.40777
2.37773
2.33423
2.28235
1
1
1