/*--------------------------------*- C++ -*----------------------------------*\
| =========                 |                                                 |
| \\      /  F ield         | OpenFOAM: The Open Source CFD Toolbox           |
|  \\    /   O peration     | Version:  4.1                                   |
|   \\  /    A nd           | Web:      www.OpenFOAM.org                      |
|    \\/     M anipulation  |                                                 |
\*---------------------------------------------------------------------------*/
FoamFile
{
    version     2.0;
    format      ascii;
    class       surfaceScalarField;
    location    "0.9";
    object      phi;
}
// * * * * * * * * * * * * * * * * * * * * * * * * * * * * * * * * * * * * * //

dimensions      [1 0 -1 0 0 0 0];

internalField   nonuniform List<scalar> 
150500
(
0.0168001
6.07275e-11
-3.31592e-12
0.0168001
1.98033e-10
-1.15855e-11
0.0168001
8.33764e-10
-1.37775e-11
0.0168001
2.13624e-09
-2.12986e-11
0.0168
5.83058e-09
-2.1522e-11
0.0168
1.31912e-08
-2.78984e-11
0.0167999
3.44029e-08
-2.77146e-11
0.0167998
7.43014e-08
-3.43007e-11
0.0167991
2.08716e-07
-3.68978e-11
0.0167982
3.89832e-07
-5.00951e-11
0.0167935
1.52021e-06
-6.48093e-11
0.01679
2.36754e-06
-1.30709e-10
0.0167621
1.15881e-05
-1.97495e-10
0.0167126
2.64176e-05
-7.03331e-10
0.0165959
0.000111818
-1.40696e-09
0.0158811
0.000439904
-4.26776e-09
0.0141441
0.00146294
-3.08448e-09
0.0126795
0.0014459
-1.19602e-10
0.0112555
0.00143561
3.08076e-10
0.00975069
0.00150116
1.59291e-10
0.00807336
0.0016642
-1.46242e-11
0.00614318
0.00183411
8.67564e-11
0.00400394
0.0018859
1.08366e-10
0.00201215
0.00200782
1.705e-10
0.00216496
3.01931e-10
0.0168001
1.21937e-10
-3.35651e-12
0.0168001
4.04413e-10
-1.14977e-11
0.0168001
1.72128e-09
-1.38185e-11
0.0168001
4.38297e-09
-2.12879e-11
0.0168
1.22476e-08
-2.15927e-11
0.0168
2.79408e-08
-2.77e-11
0.0167999
7.3957e-08
-2.80536e-11
0.0167997
1.62644e-07
-3.41308e-11
0.0167991
4.43319e-07
-3.70106e-11
0.016798
9.07734e-07
-4.94823e-11
0.0167935
2.98972e-06
-6.57351e-11
0.0167888
5.56689e-06
-1.2705e-10
0.0167627
2.14259e-05
-2.00662e-10
0.016704
5.78702e-05
-7.25128e-10
0.0166169
0.0002098
-1.41399e-09
0.0159072
0.000857112
-4.28815e-09
0.0141754
0.00291165
-3.18101e-09
0.0127061
0.00289746
-1.53806e-10
0.0112833
0.00287292
3.61547e-10
0.00977945
0.00300384
2.0031e-10
0.00808029
0.00335132
1.07902e-11
0.00613647
0.00368422
1.10119e-10
0.00398352
0.00378892
1.3e-10
0.0019875
0.00402183
1.5531e-10
0.00430213
2.75782e-10
0.0168001
1.63965e-10
-3.433e-12
0.0168001
5.6825e-10
-1.13269e-11
0.0168001
2.40367e-09
-1.38884e-11
0.0168001
6.12422e-09
-2.12729e-11
0.0168
1.73247e-08
-2.16268e-11
0.0168
3.97258e-08
-2.77293e-11
0.0167999
1.06797e-07
-2.81777e-11
0.0167997
2.4015e-07
-3.44783e-11
0.0167991
6.42241e-07
-3.74269e-11
0.016798
1.47176e-06
-5.32781e-11
0.0167945
3.86679e-06
-6.03315e-11
0.0167853
9.88663e-06
-1.58669e-10
0.016767
2.47125e-05
-1.30672e-10
0.0166936
9.29784e-05
-8.88483e-10
0.0166722
0.000245366
-1.17134e-09
0.015967
0.00122302
-4.44575e-09
0.0143065
0.00428812
-3.53235e-09
0.0128128
0.00437812
-2.51491e-10
0.0113877
0.0043175
4.26202e-10
0.00989332
0.00450217
2.62046e-10
0.0081833
0.00505107
4.10854e-11
0.00622635
0.005553
1.37845e-10
0.00405372
0.00571681
1.54081e-10
0.0020261
0.00606418
1.27884e-10
0.00647805
2.34475e-10
0.0168001
1.9235e-10
-3.52657e-12
0.0168001
7.04925e-10
-1.11123e-11
0.0168001
2.91919e-09
-1.39688e-11
0.0168001
7.47466e-09
-2.12398e-11
0.0168
2.08413e-08
-2.16178e-11
0.0168
4.74948e-08
-2.76474e-11
0.0167999
1.26122e-07
-2.79851e-11
0.0167998
2.79659e-07
-3.41005e-11
0.0167993
7.63533e-07
-3.653e-11
0.0167986
1.61254e-06
-5.27121e-11
0.0167951
5.01854e-06
-5.21607e-11
0.0167893
1.03638e-05
-1.73609e-10
0.01677
3.34912e-05
-3.79887e-11
0.0167167
0.00010856
-9.69954e-10
0.016635
0.000299731
-2.54204e-10
0.0160945
0.00145857
-4.83632e-09
0.0145093
0.00560336
-3.51152e-09
0.0129681
0.00590775
-1.24363e-10
0.0115747
0.00573877
4.51837e-10
0.0100987
0.00598505
2.40398e-10
0.00838474
0.00674776
2.17599e-11
0.0064136
0.00743607
1.14119e-10
0.00421175
0.00767882
1.38493e-10
0.00211793
0.00816411
1.04872e-10
0.00874637
1.65592e-10
0.0168001
2.41933e-10
-3.62698e-12
0.0168001
9.26499e-10
-1.08818e-11
0.0168001
3.75037e-09
-1.40592e-11
0.0168001
9.60223e-09
-2.1203e-11
0.0168
2.63699e-08
-2.16047e-11
0.0168
6.00426e-08
-2.75402e-11
0.0167999
1.56254e-07
-2.76969e-11
0.0167998
3.44483e-07
-3.33466e-11
0.0167993
9.22502e-07
-3.49625e-11
0.0167986
1.89698e-06
-4.48159e-11
0.0167952
6.04712e-06
-5.59417e-11
0.0167924
1.12096e-05
-9.87652e-11
0.0167718
4.24303e-05
-1.39054e-10
0.0167405
0.000113354
-5.96188e-10
0.0166284
0.000374944
-6.47827e-10
0.0162257
0.00160525
-3.8564e-09
0.0146678
0.0068828
-3.52444e-09
0.0131489
0.00744533
1.23219e-10
0.0118273
0.00708223
3.53722e-10
0.0103568
0.00743672
9.8366e-11
0.00865808
0.00841667
-8.23634e-11
0.00669187
0.00931822
8.52401e-11
0.00444555
0.00969322
1.00304e-10
0.00226673
0.0103354
5.958e-11
0.0111633
8.78745e-11
0.0168001
2.87504e-10
-3.74202e-12
0.0168001
1.16286e-09
-1.0627e-11
0.0168001
4.65928e-09
-1.41756e-11
0.0168001
1.19434e-08
-2.119e-11
0.0168
3.28654e-08
-2.16558e-11
0.0168
7.50285e-08
-2.75542e-11
0.0167999
1.95246e-07
-2.77092e-11
0.0167998
4.33503e-07
-3.33113e-11
0.0167992
1.14098e-06
-3.47588e-11
0.0167982
2.45166e-06
-4.43683e-11
0.016795
7.09749e-06
-5.3824e-11
0.0167894
1.45578e-05
-9.22151e-11
0.0167725
4.84038e-05
-1.35691e-10
0.0167334
0.000126635
-4.50991e-10
0.016617
0.000456886
-6.71731e-10
0.0163268
0.00168282
-3.36522e-09
0.0147591
0.00814263
-4.02956e-09
0.0137014
0.00851241
4.54567e-10
0.0122444
0.00857225
4.2009e-10
0.0106537
0.00902002
1.98508e-10
0.00902669
0.0100074
-3.20155e-11
0.00706166
0.0112054
5.32284e-11
0.00476745
0.0117641
5.80045e-11
0.00248928
0.0126066
7.81057e-12
0.0137962
1.72605e-12
0.0168001
3.37224e-10
-3.86064e-12
0.0168001
1.43824e-09
-1.0364e-11
0.0168001
5.68691e-09
-1.43125e-11
0.0168001
1.45863e-08
-2.12044e-11
0.0168
3.9983e-08
-2.17628e-11
0.0168
9.13626e-08
-2.76626e-11
0.0167999
2.36617e-07
-2.78553e-11
0.0167998
5.26496e-07
-3.34689e-11
0.0167992
1.36901e-06
-3.47417e-11
0.0167983
2.97273e-06
-4.34991e-11
0.016795
8.32788e-06
-5.32489e-11
0.0167904
1.72123e-05
-8.34288e-11
0.0167723
5.52185e-05
-1.36016e-10
0.0167428
0.000139735
-3.77426e-10
0.0166469
0.000506895
-6.87629e-10
0.016429
0.00173301
-2.81842e-09
0.0151405
0.00909775
-4.16155e-09
0.0139025
0.00977914
4.53767e-10
0.0126139
0.00988948
5.28545e-10
0.0110296
0.010574
1.43493e-10
0.00942686
0.0115755
6.04758e-11
0.0075556
0.0130073
6.18434e-12
0.00522064
0.0138677
1.09241e-11
0.0028293
0.0149715
-5.74688e-11
0.0167586
-8.34704e-11
0.0168001
4.11596e-10
-3.98075e-12
0.0168001
1.84451e-09
-1.01192e-11
0.0168001
7.07559e-09
-1.45081e-11
0.0168001
1.793e-08
-2.13302e-11
0.0168
4.87654e-08
-2.2049e-11
0.0168
1.11184e-07
-2.80661e-11
0.0167999
2.87894e-07
-2.84352e-11
0.0167997
6.44974e-07
-3.43784e-11
0.0167991
1.65081e-06
-3.58904e-11
0.0167979
3.77049e-06
-4.66468e-11
0.0167948
9.41881e-06
-5.20119e-11
0.0167872
2.22617e-05
-1.04417e-10
0.0167734
5.84237e-05
-8.60323e-11
0.0167382
0.000156483
-4.67259e-10
0.0166585
0.000545107
-3.699e-10
0.0165156
0.00173355
-2.55609e-09
0.015464
0.00980125
-3.90305e-09
0.0142027
0.0110599
3.95055e-10
0.012938
0.0111642
2.85429e-10
0.0115002
0.0119746
4.34662e-11
0.00995122
0.0130738
1.48944e-11
0.00816136
0.0147294
-8.67936e-12
0.00584584
0.015959
-4.06407e-12
0.0033558
0.0174163
-8.60111e-11
0.0202377
-1.27051e-10
0.0168001
6.74127e-10
-4.10815e-12
0.0168001
2.60126e-09
-9.95161e-12
0.0168001
8.91405e-09
-1.48606e-11
0.0168001
2.08864e-08
-2.17471e-11
0.0168
5.50546e-08
-2.26723e-11
0.0168
1.23212e-07
-2.89303e-11
0.0167999
3.19356e-07
-2.93715e-11
0.0167998
7.0838e-07
-3.55552e-11
0.0167993
1.8491e-06
-3.68103e-11
0.0167987
4.02008e-06
-4.71566e-11
0.0167953
1.09148e-05
-5.21537e-11
0.016794
2.16105e-05
-8.98142e-11
0.0167692
7.25345e-05
-1.26771e-10
0.0167657
0.000147948
-2.99292e-10
0.0166563
0.000607753
-5.13977e-10
0.0164671
0.00179949
-1.81472e-09
0.0156816
0.0102178
-3.8542e-09
0.0144481
0.012321
3.7477e-10
0.0132583
0.0123625
1.73721e-10
0.0120293
0.0131745
-1.10519e-11
0.0106466
0.0144154
-1.59078e-11
0.00903729
0.0163014
-2.14522e-11
0.00691483
0.0179028
-5.21309e-11
0.00434914
0.0199365
-8.8323e-11
0.0246966
-1.35262e-10
0.0168001
-4.30194e-12
1.73317e-09
0.0168001
-9.93899e-12
3.44529e-09
0.0168001
-1.56088e-11
1.35511e-08
0.0168001
-2.26824e-11
1.43787e-08
0.0168
-2.36987e-11
7.22961e-08
0.0168001
-3.03213e-11
7.76907e-08
0.0167999
-3.02334e-11
4.11726e-07
0.0168002
-3.68046e-11
4.21136e-07
0.0167992
-3.7427e-11
2.52193e-06
0.016801
-4.80883e-11
1.91026e-06
0.0167931
-5.06695e-11
1.71843e-05
0.0168062
-8.83796e-11
6.73081e-06
0.0167473
-1.19474e-10
0.0001224
0.0168255
-2.71732e-10
5.52321e-05
0.016506
-4.69806e-10
0.000887722
0.0166002
-1.64037e-09
0.00160648
0.016198
-3.85733e-09
0.0102227
0.0149384
4.00298e-10
0.0136086
0.013769
1.54774e-10
0.0135265
0.0127516
8.81234e-12
0.0141507
0.0116389
1.4929e-11
0.0154627
0.0104581
7.65573e-12
0.0174372
0.00850152
-1.79293e-11
0.0196827
0.00600036
-6.72478e-11
0.0223757
-9.20329e-11
0.0307968
0.0168001
4.13111e-11
-4.10844e-16
0.0168001
2.27847e-10
-2.30369e-15
0.0168001
8.34549e-10
-4.55289e-15
0.0168001
2.14653e-09
-9.33379e-15
0.0168
5.81874e-09
-1.43829e-14
0.0168
1.32402e-08
-2.49003e-14
0.0167999
3.43189e-08
-3.97913e-14
0.0167998
7.42996e-08
-6.75446e-14
0.0167991
2.08634e-07
-1.54275e-13
0.0167982
3.89595e-07
-2.18469e-13
0.0167935
1.52003e-06
-1.01778e-12
0.0167899
2.36619e-06
-1.0316e-12
0.0167621
1.15938e-05
-7.3683e-12
0.0167126
2.64096e-05
-1.35591e-11
0.0165955
0.000111878
-5.34409e-11
0.0158809
0.000440112
-1.47833e-10
0.0141437
0.00146316
-1.64845e-10
0.012679
0.00144593
-4.10169e-11
0.011255
0.00143561
-2.42049e-11
0.00975013
0.00150114
-2.74294e-11
0.00807282
0.00166416
-4.17196e-11
0.00614275
0.00183402
-6.32081e-11
0.00400366
0.00188581
-1.17834e-10
0.00201209
0.00200763
-3.25754e-11
0.00216492
-6.17585e-11
0.0168001
8.59987e-11
-4.1254e-16
0.0168001
4.62733e-10
-2.31149e-15
0.0168001
1.72539e-09
-4.58861e-15
0.0168001
4.40449e-09
-9.38519e-15
0.0168
1.22568e-08
-1.46679e-14
0.0168
2.79557e-08
-2.48269e-14
0.0167999
7.39563e-08
-4.1122e-14
0.0167997
1.62571e-07
-6.80871e-14
0.0167991
4.433e-07
-1.56297e-13
0.016798
9.06167e-07
-2.16359e-13
0.0167935
2.9934e-06
-1.03911e-12
0.0167888
5.5534e-06
-9.91738e-13
0.0167627
2.14709e-05
-7.45197e-12
0.0167041
5.78119e-05
-1.40466e-11
0.0166164
0.000210066
-5.36757e-11
0.0159071
0.000857455
-1.48041e-10
0.014175
0.00291208
-1.67732e-10
0.0127057
0.00289748
-4.45927e-11
0.0112828
0.00287291
-2.29552e-11
0.00977896
0.00300383
-2.65998e-11
0.0080798
0.00335123
-3.90713e-11
0.00613607
0.00368406
-4.7993e-11
0.00398325
0.00378874
-1.06282e-10
0.00198734
0.0040216
-1.98917e-11
0.00430197
-5.35311e-11
0.0168001
1.1934e-10
-4.12394e-16
0.0168001
6.41046e-10
-2.31038e-15
0.0168001
2.41205e-09
-4.60613e-15
0.0168001
6.1565e-09
-9.43861e-15
0.0168
1.73566e-08
-1.49605e-14
0.0168
3.97967e-08
-2.56448e-14
0.0167999
1.06958e-07
-4.36851e-14
0.0167997
2.4051e-07
-7.53058e-14
0.0167991
6.43059e-07
-1.65706e-13
0.016798
1.47369e-06
-2.90349e-13
0.0167945
3.87088e-06
-9.53961e-13
0.0167853
9.89383e-06
-1.55452e-12
0.016767
2.47451e-05
-6.28963e-12
0.0166936
9.3018e-05
-1.7145e-11
0.0166724
0.000245799
-4.9458e-11
0.0159673
0.0012236
-1.50958e-10
0.0143061
0.00428882
-1.78058e-10
0.0128125
0.00437807
-4.43246e-11
0.0113873
0.00431747
-2.12536e-11
0.00989288
0.00450214
-2.60778e-11
0.00818287
0.00505089
-3.44053e-11
0.00622598
0.00555276
-3.77386e-11
0.00405346
0.00571658
-8.69765e-11
0.00202596
0.00606393
-6.45528e-12
0.0064778
-4.67281e-11
0.0168001
1.43212e-10
-4.07463e-16
0.0168001
7.82243e-10
-2.29336e-15
0.0168001
2.92673e-09
-4.54548e-15
0.0168001
7.50527e-09
-9.32448e-15
0.0168
2.0867e-08
-1.45966e-14
0.0168
4.75569e-08
-2.49133e-14
0.0167999
1.26286e-07
-4.16156e-14
0.0167998
2.80088e-07
-7.20087e-14
0.0167993
7.64523e-07
-1.55226e-13
0.0167986
1.61645e-06
-3.01514e-13
0.0167951
5.01995e-06
-7.8854e-13
0.0167893
1.03982e-05
-1.98755e-12
0.01677
3.34634e-05
-4.11503e-12
0.0167164
0.000108753
-1.97842e-11
0.0166354
0.000299619
-2.7577e-11
0.0160941
0.00145961
-1.61659e-10
0.014509
0.00560402
-1.81225e-10
0.0129679
0.00590773
-3.85252e-11
0.0115743
0.00573879
-2.10748e-11
0.0100984
0.00598494
-2.87222e-11
0.0083844
0.00674755
-4.54737e-11
0.00641328
0.00743581
-2.86415e-11
0.00421155
0.00767851
-6.40666e-11
0.00211782
0.00816384
-2.77459e-11
0.00874607
-2.18515e-11
0.0168001
1.8538e-10
-4.02523e-16
0.0168001
1.0131e-09
-2.27873e-15
0.0168001
3.74936e-09
-4.48482e-15
0.0168001
9.61646e-09
-9.20635e-15
0.0168
2.63492e-08
-1.41867e-14
0.0168
6.00071e-08
-2.40168e-14
0.0167999
1.56191e-07
-3.87803e-14
0.0167998
3.4441e-07
-6.49998e-14
0.0167993
9.22505e-07
-1.38771e-13
0.0167986
1.89722e-06
-2.17086e-13
0.0167952
6.04867e-06
-8.23003e-13
0.0167924
1.12132e-05
-1.09883e-12
0.0167718
4.24433e-05
-5.23258e-12
0.0167405
0.000113412
-1.49807e-11
0.0166284
0.000375009
-3.07277e-11
0.0162257
0.00160589
-1.45216e-10
0.014668
0.00688315
-1.87073e-10
0.0131483
0.00744608
-3.5971e-11
0.011827
0.00708217
-2.40909e-11
0.0103567
0.00743656
-3.41224e-11
0.00865782
0.00841651
-5.19648e-11
0.00669161
0.00931793
-2.6423e-11
0.0044454
0.00969285
-5.60151e-11
0.00226666
0.0103351
-4.48854e-11
0.011163
1.25582e-12
0.0168001
2.29176e-10
-4.04128e-16
0.0168001
1.25038e-09
-2.29274e-15
0.0168001
4.64479e-09
-4.52672e-15
0.0168001
1.19204e-08
-9.31546e-15
0.0168
3.27602e-08
-1.44687e-14
0.0168
7.48311e-08
-2.46756e-14
0.0167999
1.94904e-07
-4.05085e-14
0.0167998
4.32967e-07
-6.94377e-14
0.0167992
1.14026e-06
-1.46405e-13
0.0167982
2.45096e-06
-2.5848e-13
0.016795
7.0964e-06
-7.86378e-13
0.0167894
1.45602e-05
-1.27071e-12
0.0167725
4.84028e-05
-4.8918e-12
0.0167334
0.000126678
-1.33091e-11
0.016617
0.000456918
-3.05364e-11
0.0163266
0.00168348
-1.35713e-10
0.0147585
0.00814348
-2.166e-10
0.0137012
0.0085128
-2.03281e-11
0.0122441
0.00857234
-1.88356e-11
0.0106535
0.00901968
-2.77651e-11
0.00902652
0.0100072
-4.80301e-11
0.0070615
0.0112051
-2.73826e-11
0.00476736
0.0117638
-7.38004e-11
0.00248925
0.0126063
-1.94475e-11
0.0137959
-2.87779e-12
0.0168001
2.77023e-10
-4.05619e-16
0.0168001
1.51135e-09
-2.30764e-15
0.0168001
5.61586e-09
-4.56751e-15
0.0168001
1.4428e-08
-9.424e-15
0.0168
3.9622e-08
-1.46853e-14
0.0168
9.07274e-08
-2.51324e-14
0.0167999
2.35608e-07
-4.11301e-14
0.0167998
5.24957e-07
-7.03759e-14
0.0167992
1.36687e-06
-1.46366e-13
0.0167983
2.96922e-06
-2.53089e-13
0.016795
8.32544e-06
-7.81503e-13
0.0167904
1.72003e-05
-1.21518e-12
0.0167723
5.52389e-05
-4.98521e-12
0.0167428
0.000139711
-1.14275e-11
0.0166469
0.00050705
-3.46701e-11
0.0164289
0.00173361
-1.18417e-10
0.0151399
0.00909892
-2.33691e-10
0.0139022
0.00977938
-1.7123e-11
0.0126137
0.00988944
-1.0131e-11
0.0110295
0.0105737
-2.78945e-11
0.00942688
0.0115752
-3.4044e-11
0.0075556
0.013007
-3.78944e-11
0.00522063
0.0138674
-7.89573e-11
0.00282931
0.0149713
-2.0812e-11
0.0167583
-3.90799e-12
0.0168001
3.34341e-10
-4.09231e-16
0.0168001
1.80857e-09
-2.33393e-15
0.0168001
6.73357e-09
-4.63936e-15
0.0168001
1.72552e-08
-9.59468e-15
0.0168
4.76458e-08
-1.50909e-14
0.0168
1.09504e-07
-2.59846e-14
0.0167999
2.85642e-07
-4.33152e-14
0.0167997
6.42049e-07
-7.54288e-14
0.0167991
1.64735e-06
-1.56218e-13
0.0167979
3.76659e-06
-2.97803e-13
0.0167948
9.41455e-06
-7.56896e-13
0.0167872
2.2263e-05
-1.59389e-12
0.0167734
5.8405e-05
-4.19649e-12
0.016738
0.00015654
-1.29549e-11
0.0166589
0.000545113
-2.98106e-11
0.0165156
0.00173405
-1.11374e-10
0.015464
0.00980235
-2.43778e-10
0.0142028
0.0110601
-1.24706e-11
0.0129382
0.0111642
-1.47015e-11
0.0115004
0.0119744
-3.50967e-11
0.00995137
0.0130735
-3.98504e-11
0.00816147
0.0147291
-3.85663e-11
0.00584592
0.0159587
-7.3551e-11
0.00335585
0.0174161
-1.94469e-11
0.0202375
-1.19601e-11
0.0168001
3.98548e-10
-4.16806e-16
0.0168001
1.93664e-09
-2.38495e-15
0.0168001
7.38693e-09
-4.75612e-15
0.0168001
1.87108e-08
-9.86631e-15
0.0168
5.22924e-08
-1.55435e-14
0.0168
1.19657e-07
-2.68528e-14
0.0167999
3.15499e-07
-4.4523e-14
0.0167998
7.03819e-07
-7.77495e-14
0.0167993
1.84451e-06
-1.57568e-13
0.0167987
4.01524e-06
-3.0149e-13
0.0167953
1.09108e-05
-7.43309e-13
0.016794
2.16091e-05
-1.47398e-12
0.0167692
7.25354e-05
-4.63273e-12
0.0167657
0.000147973
-1.02628e-11
0.0166562
0.000607805
-3.26001e-11
0.0164673
0.00179975
-9.80171e-11
0.0156817
0.0102188
-2.58242e-10
0.0144482
0.012321
-8.9403e-12
0.0132586
0.0123624
-1.57152e-11
0.0120296
0.0131744
-4.03016e-11
0.0106468
0.0144152
-4.03865e-11
0.00903742
0.0163012
-3.66608e-11
0.0069149
0.0179025
-5.32639e-11
0.00434919
0.0199363
-2.42888e-11
0.0246964
-9.37982e-12
0.0168001
-4.22473e-16
6.59164e-10
0.0168001
-2.46834e-15
9.78001e-10
0.0168001
-4.8742e-15
9.63845e-09
0.0168001
-1.01717e-14
1.12851e-08
0.0168
-1.55262e-14
6.67634e-08
0.0168001
-2.6997e-14
7.3803e-08
0.0167999
-4.13152e-14
4.05484e-07
0.0168002
-7.07658e-14
4.16992e-07
0.0167992
-1.39535e-13
2.51571e-06
0.016801
-2.34723e-13
1.90739e-06
0.0167931
-7.13917e-13
1.71785e-05
0.0168062
-1.11383e-12
6.7324e-06
0.0167473
-4.46406e-12
0.000122405
0.0168255
-8.55753e-12
5.52556e-05
0.016506
-3.63801e-11
0.00088774
0.0166002
-9.67751e-11
0.00160672
0.0161978
-2.78777e-10
0.0102236
0.0149385
-6.29774e-12
0.0136084
0.0137692
-1.35106e-11
0.0135264
0.0127519
-3.46746e-11
0.0141507
0.0116392
-3.48062e-11
0.0154627
0.0104583
-3.38099e-11
0.0174371
0.00850161
-3.71168e-11
0.0196825
0.0060004
-2.31582e-11
0.0223756
5.04382e-12
0.0307967
0.0168001
4.13106e-11
1.9185e-16
0.0168001
2.27845e-10
2.26633e-16
0.0168001
8.34538e-10
8.81262e-17
0.0168001
2.14651e-09
1.91576e-16
0.0168
5.81862e-09
4.21807e-16
0.0168
1.32401e-08
8.20318e-16
0.0167999
3.43182e-08
1.73216e-15
0.0167998
7.42983e-08
2.6584e-15
0.0167991
2.08632e-07
9.88721e-15
0.0167982
3.89587e-07
-6.83855e-15
0.0167935
1.52002e-06
1.09322e-13
0.0167899
2.36616e-06
-1.46018e-13
0.0167621
1.15938e-05
7.9856e-13
0.0167126
2.64093e-05
-6.50451e-13
0.0165955
0.000111879
1.60616e-12
0.0158808
0.000440116
-6.26387e-12
0.0141437
0.00146316
-2.11915e-11
0.012679
0.00144592
-1.21061e-11
0.011255
0.0014356
-1.14918e-11
0.00975014
0.00150114
-1.06053e-11
0.00807283
0.00166415
-1.32552e-11
0.00614278
0.00183402
-2.54922e-11
0.00400369
0.00188579
-1.62965e-11
0.00201205
0.00200766
-2.38922e-11
0.0021649
-4.82843e-11
0.0168001
8.59994e-11
1.94102e-16
0.0168001
4.62737e-10
2.28269e-16
0.0168001
1.7254e-09
1.02073e-16
0.0168001
4.40451e-09
2.21414e-16
0.0168
1.22568e-08
5.17703e-16
0.0168
2.79556e-08
9.82301e-16
0.0167999
7.39556e-08
2.20626e-15
0.0167997
1.62568e-07
3.42239e-15
0.0167991
4.43297e-07
1.12913e-14
0.016798
9.06131e-07
-3.16217e-15
0.0167935
2.99345e-06
1.14427e-13
0.0167888
5.55313e-06
-1.26669e-13
0.0167627
2.14717e-05
7.76712e-13
0.0167041
5.78107e-05
-2.89777e-13
0.0166164
0.000210071
1.68462e-12
0.0159071
0.000857462
-5.5786e-12
0.014175
0.00291208
-2.04563e-11
0.0127057
0.00289747
-1.22997e-11
0.0112828
0.00287289
-1.0395e-11
0.00977897
0.00300382
-9.7575e-12
0.00807981
0.00335121
-1.1427e-11
0.0061361
0.00368404
-2.48574e-11
0.00398329
0.00378872
-1.63106e-11
0.00198737
0.00402159
-2.55492e-11
0.00430198
-5.08398e-11
0.0168001
1.19343e-10
1.93188e-16
0.0168001
6.41056e-10
2.27968e-16
0.0168001
2.41209e-09
1.0455e-16
0.0168001
6.15658e-09
2.29028e-16
0.0168
1.73568e-08
5.95874e-16
0.0168
3.97972e-08
1.22027e-15
0.0167999
1.0696e-07
2.99759e-15
0.0167997
2.40514e-07
5.79571e-15
0.0167991
6.43067e-07
1.42393e-14
0.016798
1.4737e-06
2.31689e-14
0.0167945
3.87094e-06
8.08194e-14
0.0167853
9.89383e-06
8.0253e-14
0.016767
2.47458e-05
3.60388e-13
0.0166936
9.30181e-05
7.56698e-13
0.0166724
0.00024581
5.44225e-13
0.0159673
0.00122361
-3.78833e-12
0.0143061
0.00428882
-1.80831e-11
0.0128125
0.00437805
-1.1901e-11
0.0113873
0.00431745
-9.36112e-12
0.00989289
0.00450212
-8.38043e-12
0.00818288
0.00505086
-8.92715e-12
0.00622601
0.00555273
-2.42668e-11
0.00405349
0.00571655
-1.95002e-11
0.00202597
0.00606387
-2.72484e-11
0.00647783
-4.81004e-11
0.0168001
1.43213e-10
1.87414e-16
0.0168001
7.82248e-10
2.26213e-16
0.0168001
2.92676e-09
8.03148e-17
0.0168001
7.50532e-09
1.77264e-16
0.0168
2.08672e-08
4.47241e-16
0.0168
4.75574e-08
9.16378e-16
0.0167999
1.26287e-07
2.1493e-15
0.0167998
2.80091e-07
4.2253e-15
0.0167993
7.64531e-07
9.89047e-15
0.0167986
1.61648e-06
1.74803e-14
0.0167951
5.01996e-06
4.6036e-14
0.0167893
1.03986e-05
8.58605e-14
0.01677
3.34631e-05
8.15101e-14
0.0167164
0.000108755
6.6169e-13
0.0166354
0.000299618
-1.68526e-12
0.0160941
0.00145963
-2.16914e-12
0.014509
0.00560402
-1.81701e-11
0.012968
0.00590771
-1.19618e-11
0.0115743
0.00573877
-7.85069e-12
0.0100984
0.00598492
-6.51779e-12
0.00838441
0.0067475
-6.36493e-12
0.00641331
0.00743577
-2.46931e-11
0.00421156
0.00767849
-2.79681e-11
0.00211781
0.00816375
-3.33892e-11
0.0087461
-4.53562e-11
0.0168001
1.85379e-10
1.83246e-16
0.0168001
1.0131e-09
2.26396e-16
0.0168001
3.74933e-09
6.50462e-17
0.0168001
9.61638e-09
1.42817e-16
0.0168
2.6349e-08
3.52172e-16
0.0168
6.00066e-08
7.13682e-16
0.0167999
1.5619e-07
1.63977e-15
0.0167998
3.44407e-07
3.14949e-15
0.0167993
9.225e-07
7.22194e-15
0.0167986
1.8972e-06
9.36862e-15
0.0167952
6.04868e-06
3.66502e-14
0.0167924
1.12131e-05
8.20386e-15
0.0167718
4.24436e-05
1.29713e-13
0.0167405
0.000113412
-2.77534e-14
0.0166284
0.000375009
-1.10069e-12
0.0162257
0.00160591
-4.25995e-12
0.0146681
0.00688313
-1.86853e-11
0.0131483
0.00744608
-1.9778e-11
0.011827
0.00708214
-6.91617e-12
0.0103567
0.00743654
-6.59616e-12
0.00865782
0.00841648
-3.65809e-12
0.00669163
0.00931789
-2.21666e-11
0.00444539
0.00969284
-2.75645e-11
0.00226664
0.010335
-3.77955e-11
0.011163
-4.54292e-11
0.0168001
2.29175e-10
1.84699e-16
0.0168001
1.25037e-09
2.24053e-16
0.0168001
4.64476e-09
6.99463e-17
0.0168001
1.19203e-08
1.53842e-16
0.0168
3.276e-08
4.08532e-16
0.0168
7.48306e-08
8.56874e-16
0.0167999
1.94903e-07
2.10181e-15
0.0167998
4.32965e-07
4.34974e-15
0.0167992
1.14026e-06
9.1676e-15
0.0167982
2.45095e-06
1.96033e-14
0.016795
7.09638e-06
2.83408e-14
0.0167894
1.45602e-05
6.31277e-14
0.0167725
4.84027e-05
1.1491e-14
0.0167334
0.000126679
2.29127e-15
0.016617
0.000456917
-1.24628e-12
0.0163266
0.00168349
-5.18255e-12
0.0147585
0.00814349
-1.98185e-11
0.0137012
0.00851279
-1.29632e-11
0.0122441
0.00857232
-7.60389e-12
0.0106535
0.00901965
-5.54869e-12
0.0090265
0.0100072
-3.41151e-12
0.0070615
0.011205
-2.04398e-11
0.00476731
0.0117638
-2.37046e-11
0.00248921
0.0126062
-4.39215e-11
0.0137958
-4.29763e-11
0.0168001
2.77021e-10
1.85602e-16
0.0168001
1.51133e-09
2.2327e-16
0.0168001
5.6158e-09
7.33217e-17
0.0168001
1.44278e-08
1.62217e-16
0.0168
3.96217e-08
4.27014e-16
0.0168
9.07266e-08
8.95326e-16
0.0167999
2.35606e-07
2.17655e-15
0.0167998
5.24953e-07
4.45961e-15
0.0167992
1.36686e-06
9.55102e-15
0.0167983
2.96919e-06
2.01017e-14
0.016795
8.32544e-06
3.04897e-14
0.0167904
1.72001e-05
7.14964e-14
0.0167723
5.52393e-05
-9.90959e-15
0.0167428
0.000139711
1.24252e-13
0.0166469
0.000507052
-1.52528e-12
0.0164289
0.00173362
-5.11984e-12
0.0151399
0.00909893
-2.04738e-11
0.0139021
0.00977936
-1.37617e-11
0.0126137
0.00988942
-8.78962e-12
0.0110295
0.0105737
-4.94916e-12
0.00942687
0.0115752
-6.75974e-12
0.00755558
0.013007
-1.73208e-11
0.00522058
0.0138674
-1.24023e-11
0.00282925
0.0149711
-2.70286e-11
0.0167582
-3.64716e-11
0.0168001
3.34337e-10
1.86634e-16
0.0168001
1.80854e-09
2.20333e-16
0.0168001
6.73346e-09
7.47591e-17
0.0168001
1.72549e-08
1.66635e-16
0.0168
4.76452e-08
4.40418e-16
0.0168
1.09503e-07
9.28478e-16
0.0167999
2.8564e-07
2.2737e-15
0.0167997
6.42047e-07
4.67896e-15
0.0167991
1.64735e-06
1.02148e-14
0.0167979
3.76658e-06
2.28912e-14
0.0167948
9.41456e-06
3.12843e-14
0.0167872
2.2263e-05
1.05162e-13
0.0167734
5.84049e-05
-4.92883e-14
0.016738
0.000156542
3.23577e-13
0.0166589
0.000545114
-1.72931e-12
0.0165156
0.00173406
-4.80663e-12
0.015464
0.00980238
-2.15185e-11
0.0142028
0.0110601
-1.3425e-11
0.0129382
0.0111642
-8.5593e-12
0.0115003
0.0119744
-3.65852e-12
0.00995135
0.0130735
-5.79361e-12
0.00816144
0.0147291
-1.58625e-11
0.00584585
0.0159587
-1.14185e-11
0.00335578
0.017416
-2.71383e-11
0.0202374
-3.52789e-11
0.0168001
3.98528e-10
1.87374e-16
0.0168001
1.93655e-09
2.13824e-16
0.0168001
7.38666e-09
7.25475e-17
0.0168001
1.87102e-08
1.63149e-16
0.0168
5.22916e-08
4.49431e-16
0.0168
1.19655e-07
9.68967e-16
0.0167999
3.15498e-07
2.45006e-15
0.0167998
7.0382e-07
5.21064e-15
0.0167993
1.84451e-06
1.14087e-14
0.0167987
4.01526e-06
2.77628e-14
0.0167953
1.09108e-05
3.47845e-14
0.016794
2.16092e-05
1.18552e-13
0.0167691
7.25356e-05
6.75512e-14
0.0167657
0.000147974
2.89931e-13
0.0166562
0.000607806
-1.49704e-12
0.0164673
0.00179976
-4.67837e-12
0.0156816
0.0102188
-2.16254e-11
0.0144482
0.012321
-1.4308e-11
0.0132586
0.0123624
-8.56992e-12
0.0120296
0.0131744
-2.3364e-12
0.0106468
0.0144152
-3.53416e-12
0.00903738
0.0163012
-1.45767e-11
0.00691485
0.0179025
-1.99981e-11
0.00434912
0.0199363
-2.34848e-11
0.0246964
-3.13201e-11
0.0168001
1.81451e-16
6.59061e-10
0.0168001
1.9777e-16
9.77817e-10
0.0168001
3.38593e-17
9.6375e-09
0.0168001
7.68996e-17
1.12842e-08
0.0168
2.26409e-16
6.67608e-08
0.0168001
4.77162e-16
7.3801e-08
0.0167999
1.3268e-15
4.0548e-07
0.0168002
2.75825e-15
4.16989e-07
0.0167992
7.07844e-15
2.51571e-06
0.016801
1.49917e-14
1.90739e-06
0.0167931
3.02927e-14
1.71786e-05
0.0168062
7.13826e-14
6.73233e-06
0.0167473
9.09618e-14
0.000122406
0.0168255
2.44382e-13
5.52551e-05
0.016506
-9.10208e-13
0.000887745
0.0166002
-3.78622e-12
0.00160672
0.0161978
-1.98724e-11
0.0102237
0.0149385
-1.48869e-11
0.0136084
0.0137692
-9.17689e-12
0.0135264
0.0127519
-1.8851e-12
0.0141507
0.0116391
-2.55065e-12
0.0154627
0.0104582
-1.11159e-11
0.0174371
0.00850156
-1.86041e-11
0.0196825
0.00600034
-2.18432e-11
0.0223756
-2.80008e-11
0.0307967
0.0168001
4.13109e-11
-2.16558e-16
0.0168001
2.27846e-10
-7.28475e-16
0.0168001
8.34542e-10
-1.92565e-15
0.0168001
2.14652e-09
-3.85163e-15
0.0168
5.81866e-09
-1.0019e-14
0.0168
1.32402e-08
-1.98864e-14
0.0167999
3.43185e-08
-5.53707e-14
0.0167998
7.42989e-08
-1.04359e-13
0.0167991
2.08633e-07
-3.57937e-13
0.0167982
3.89592e-07
-4.5596e-13
0.0167935
1.52002e-06
-2.97416e-12
0.0167899
2.36618e-06
-2.25987e-12
0.0167621
1.15938e-05
-2.23342e-11
0.0167126
2.64095e-05
-3.47664e-11
0.0165955
0.000111879
-1.49658e-10
0.0158808
0.000440116
-3.74378e-10
0.0141437
0.00146315
-3.21459e-10
0.012679
0.00144592
1.27603e-11
0.011255
0.0014356
7.41653e-11
0.00975015
0.00150114
6.16836e-11
0.00807285
0.00166415
4.78324e-11
0.00614279
0.00183402
5.20566e-11
0.0040037
0.00188579
4.76869e-11
0.00201208
0.00200763
4.51278e-11
0.00216493
7.84299e-11
0.0168001
8.59991e-11
-2.26334e-16
0.0168001
4.62734e-10
-7.56501e-16
0.0168001
1.72539e-09
-2.03846e-15
0.0168001
4.40449e-09
-4.08155e-15
0.0168
1.22568e-08
-1.07672e-14
0.0168
2.79556e-08
-2.09947e-14
0.0167999
7.39557e-08
-5.87644e-14
0.0167997
1.62569e-07
-1.08901e-13
0.0167991
4.43297e-07
-3.64712e-13
0.016798
9.06142e-07
-4.659e-13
0.0167935
2.99343e-06
-3.0106e-12
0.0167888
5.55322e-06
-2.24483e-12
0.0167627
2.14714e-05
-2.21942e-11
0.0167041
5.7811e-05
-3.70354e-11
0.0166164
0.00021007
-1.49035e-10
0.0159071
0.000857461
-3.74721e-10
0.014175
0.00291208
-3.31136e-10
0.0127057
0.00289746
9.23738e-12
0.0112829
0.00287289
7.65709e-11
0.00977898
0.00300382
6.38589e-11
0.00807983
0.00335121
4.79409e-11
0.00613612
0.00368404
5.44346e-11
0.00398329
0.00378871
4.91303e-11
0.00198737
0.00402156
4.83473e-11
0.00430202
7.46681e-11
0.0168001
1.19342e-10
-2.22716e-16
0.0168001
6.41051e-10
-7.34181e-16
0.0168001
2.41207e-09
-2.06495e-15
0.0168001
6.15654e-09
-4.15848e-15
0.0168
1.73567e-08
-1.15772e-14
0.0168
3.9797e-08
-2.34707e-14
0.0167999
1.06959e-07
-6.69944e-14
0.0167997
2.40512e-07
-1.33902e-13
0.0167991
6.43064e-07
-3.92966e-13
0.016798
1.47369e-06
-7.44945e-13
0.0167945
3.87093e-06
-2.6045e-12
0.0167853
9.89379e-06
-4.43463e-12
0.016767
2.47457e-05
-1.72106e-11
0.0166936
9.30178e-05
-4.80763e-11
0.0166724
0.000245808
-1.31265e-10
0.0159673
0.00122361
-3.82983e-10
0.0143061
0.00428882
-3.64384e-10
0.0128125
0.00437805
9.79488e-13
0.0113873
0.00431745
8.12561e-11
0.0098929
0.00450212
6.71997e-11
0.0081829
0.00505086
4.64838e-11
0.00622602
0.00555273
5.85472e-11
0.00405349
0.00571654
5.42216e-11
0.00202596
0.00606385
5.38574e-11
0.00647787
6.61118e-11
0.0168001
1.43213e-10
-1.94448e-16
0.0168001
7.82246e-10
-6.43741e-16
0.0168001
2.92675e-09
-1.78942e-15
0.0168001
7.5053e-09
-3.58006e-15
0.0168
2.08672e-08
-9.83749e-15
0.0168
4.75572e-08
-1.98253e-14
0.0167999
1.26287e-07
-5.66973e-14
0.0167998
2.8009e-07
-1.15109e-13
0.0167993
7.64529e-07
-3.39983e-13
0.0167986
1.61648e-06
-7.18265e-13
0.0167951
5.01995e-06
-2.03014e-12
0.0167893
1.03985e-05
-5.34109e-12
0.01677
3.3463e-05
-1.05149e-11
0.0167164
0.000108755
-5.30805e-11
0.0166354
0.000299618
-6.39481e-11
0.0160941
0.00145963
-4.07634e-10
0.014509
0.00560402
-3.67694e-10
0.012968
0.00590771
1.14651e-11
0.0115743
0.00573877
8.05363e-11
0.0100984
0.00598491
5.98695e-11
0.00838442
0.0067475
3.68591e-11
0.00641332
0.00743578
5.93926e-11
0.00421155
0.00767848
5.66201e-11
0.0021178
0.00816373
5.97453e-11
0.00874613
6.2415e-11
0.0168001
1.85379e-10
-1.71733e-16
0.0168001
1.0131e-09
-5.71169e-16
0.0168001
3.74933e-09
-1.5441e-15
0.0168001
9.61638e-09
-3.05077e-15
0.0168
2.6349e-08
-8.18227e-15
0.0168
6.00066e-08
-1.6182e-14
0.0167999
1.5619e-07
-4.57914e-14
0.0167998
3.44407e-07
-8.93053e-14
0.0167993
9.22501e-07
-2.77677e-13
0.0167986
1.8972e-06
-4.44531e-13
0.0167952
6.04868e-06
-2.04237e-12
0.0167924
1.12131e-05
-2.56817e-12
0.0167718
4.24435e-05
-1.34236e-11
0.0167405
0.000113412
-3.69538e-11
0.0166284
0.000375009
-7.26699e-11
0.0162257
0.00160591
-3.47399e-10
0.014668
0.00688313
-3.73335e-10
0.0131483
0.00744608
4.35578e-11
0.011827
0.00708214
6.57623e-11
0.0103567
0.00743653
3.81972e-11
0.00865783
0.00841647
2.39621e-11
0.00669164
0.00931789