/*--------------------------------*- C++ -*----------------------------------*\
| =========                 |                                                 |
| \\      /  F ield         | OpenFOAM: The Open Source CFD Toolbox           |
|  \\    /   O peration     | Version:  4.1                                   |
|   \\  /    A nd           | Web:      www.OpenFOAM.org                      |
|    \\/     M anipulation  |                                                 |
\*---------------------------------------------------------------------------*/
FoamFile
{
    version     2.0;
    format      ascii;
    class       volScalarField;
    location    "0.38";
    object      Ma;
}
// * * * * * * * * * * * * * * * * * * * * * * * * * * * * * * * * * * * * * //

dimensions      [0 0 0 0 0 0 0];

internalField   nonuniform List<scalar> 
52500
(
3.13791
3.28057
3.27727
3.27207
3.26448
3.25002
3.21975
3.15037
2.96296
2.3597
0.912486
0.36028
0.606711
0.455903
0.398353
0.345025
0.307018
0.283178
0.26761
0.248415
0.224317
0.190015
0.151834
0.124379
0.0363706
3.1379
3.28057
3.27728
3.27208
3.26455
3.25025
3.22045
3.15251
2.97014
2.38436
0.952948
0.34796
0.607836
0.458091
0.399403
0.345176
0.307403
0.284423
0.270111
0.252722
0.231755
0.201389
0.16748
0.145686
0.0853492
3.1379
3.28057
3.2773
3.2721
3.26469
3.25073
3.22185
3.1567
2.98402
2.43324
1.04219
0.326995
0.612595
0.466022
0.404177
0.348932
0.311899
0.290739
0.278958
0.264968
0.249237
0.225775
0.199371
0.186098
0.145799
3.1379
3.28056
3.27732
3.27213
3.26479
3.25145
3.22393
3.16261
3.00357
2.50229
1.18087
0.289229
0.617095
0.479442
0.411871
0.355202
0.31924
0.30042
0.292157
0.282868
0.273965
0.258977
0.240793
0.236052
0.208828
3.1379
3.28055
3.27733
3.27218
3.26484
3.25229
3.22631
3.16944
3.02653
2.584
1.35789
0.244647
0.620092
0.500161
0.422889
0.365137
0.330081
0.313409
0.309352
0.305638
0.303838
0.297207
0.286801
0.290706
0.273308
3.13789
3.28056
3.27733
3.27222
3.26511
3.25314
3.22858
3.17657
3.05178
2.67681
1.57678
0.2224
0.620449
0.529208
0.436837
0.379004
0.344256
0.32942
0.330318
0.332791
0.338366
0.34045
0.337298
0.350656
0.343179
3.13788
3.28057
3.27731
3.27227
3.26526
3.25397
3.23079
3.18357
3.07639
2.77031
1.83274
0.321872
0.613351
0.565852
0.453336
0.396656
0.361636
0.348101
0.354445
0.363588
0.376344
0.3879
0.391947
0.416712
0.422247
3.13788
3.28056
3.27729
3.27233
3.26525
3.25465
3.2327
3.19013
3.09878
2.85241
2.09072
0.581024
0.590655
0.608256
0.473785
0.417436
0.381384
0.369707
0.381268
0.397432
0.417132
0.438899
0.450787
0.490357
0.51398
3.13787
3.28056
3.27728
3.27233
3.26521
3.25511
3.234
3.19634
3.11857
2.92125
2.32178
0.912343
0.536128
0.64949
0.502322
0.442265
0.403691
0.394672
0.410359
0.433234
0.459736
0.494335
0.516854
0.569125
0.629698
3.13787
3.28056
3.27727
3.27233
3.26516
3.25533
3.235
3.20187
3.13514
2.97682
2.51555
1.31417
0.448301
0.677253
0.540213
0.469656
0.429458
0.422583
0.440598
0.470928
0.503858
0.553323
0.593011
0.662987
0.804385
3.13789
3.28056
3.27726
3.27205
3.26446
3.24999
3.21971
3.1503
2.96275
2.35897
0.911176
0.360661
0.606459
0.455538
0.398072
0.344865
0.306933
0.283127
0.267545
0.248326
0.2242
0.189863
0.151638
0.124128
0.0355181
3.13789
3.28056
3.27727
3.27207
3.26454
3.25024
3.22043
3.15246
2.96999
2.38382
0.951949
0.347483
0.607137
0.457473
0.399061
0.345004
0.307323
0.284376
0.270055
0.252642
0.231648
0.201252
0.167306
0.145465
0.0849981
3.13789
3.28056
3.27729
3.27208
3.26467
3.2507
3.22179
3.15656
2.98362
2.43187
1.03957
0.328339
0.613247
0.466449
0.404477
0.349093
0.311934
0.290718
0.278907
0.264889
0.249129
0.225642
0.199215
0.185913
0.145596
3.1379
3.28056
3.27732
3.27213
3.2648
3.25145
3.22391
3.16255
3.00332
2.50133
1.17889
0.28968
0.617
0.479525
0.412153
0.355388
0.319275
0.300374
0.292086
0.282775
0.273851
0.258849
0.240658
0.235899
0.208686
3.13789
3.28054
3.27733
3.27217
3.26485
3.25228
3.22627
3.16934
3.02624
2.58306
1.35606
0.245709
0.621006
0.500548
0.423311
0.365298
0.330057
0.313309
0.309235
0.305514
0.30371
0.297083
0.286682
0.290578
0.2732
3.13789
3.28056
3.27733
3.27223
3.26511
3.25316
3.22861
3.17657
3.05168
2.67636
1.57571
0.223186
0.620764
0.529036
0.436835
0.378877
0.344043
0.329217
0.33014
0.332629
0.338223
0.340326
0.337189
0.350545
0.343094
3.13788
3.28056
3.27731
3.27228
3.26525
3.25398
3.23082
3.1836
3.07642
2.77036
1.83283
0.322453
0.613202
0.565388
0.452954
0.396358
0.361328
0.347794
0.354204
0.363394
0.376187
0.387773
0.391846
0.416618
0.422174
3.13788
3.28057
3.2773
3.27235
3.26526
3.25467
3.23275
3.1902
3.09888
2.85261
2.09111
0.581292
0.590682
0.608155
0.473506
0.417139
0.381064
0.369388
0.38101
0.397224
0.416969
0.438776
0.450692
0.490276
0.513917
3.13787
3.28056
3.27729
3.27235
3.26521
3.25513
3.23405
3.19638
3.11864
2.92143
2.32217
0.912731
0.536099
0.649495
0.502158
0.441982
0.403365
0.394383
0.410117
0.43303
0.459576
0.494209
0.516765
0.569056
0.629645
3.13788
3.28057
3.27729
3.27236
3.26517
3.25537
3.23507
3.20196
3.13526
2.97707
2.51604
1.31476
0.448172
0.677201
0.540091
0.469437
0.429181
0.42233
0.440371
0.470762
0.503715
0.553214
0.592931
0.662942
0.804331
3.1379
3.28057
3.27727
3.27206
3.26448
3.25001
3.21973
3.15032
2.96278
2.359
0.911267
0.360673
0.606777
0.455947
0.398408
0.34503
0.306977
0.283102
0.267501
0.248282
0.224161
0.189833
0.15162
0.12412
0.0355195
3.1379
3.28057
3.27728
3.27208
3.26455
3.25025
3.22044
3.15248
2.97
2.3838
0.951906
0.348138
0.607693
0.457967
0.399326
0.345102
0.30732
0.284331
0.270002
0.252597
0.231613
0.201227
0.167292
0.14546
0.0850008
3.1379
3.28056
3.2773
3.2721
3.26469
3.25073
3.22185
3.15668
2.98391
2.43278
1.04123
0.32728
0.61257
0.465942
0.404109
0.348847
0.311798
0.290633
0.278845
0.264845
0.2491
0.225626
0.199208
0.185912
0.145601
3.13789
3.28055
3.27732
3.27213
3.2648
3.25145
3.22392
3.1626
3.00349
2.50195
1.18009
0.289391
0.616961
0.4793
0.4118
0.355119
0.319126
0.300295
0.292034
0.282742
0.273836
0.258844
0.240658
0.235903
0.208693
3.1379
3.28055
3.27734
3.27219
3.26485
3.25231
3.22633
3.16946
3.02648
2.58376
1.35734
0.244764
0.620184
0.500153
0.422937
0.365107
0.32997
0.313267
0.309212
0.305505
0.303712
0.297089
0.28669
0.290585
0.273209
3.13789
3.28056
3.27733
3.27222
3.26512
3.25315
3.22859
3.17657
3.05172
2.67654
1.57612
0.222448
0.620741
0.529275
0.436915
0.378952
0.344109
0.329256
0.330159
0.332647
0.338242
0.340343
0.337203
0.350556
0.343104
3.13789
3.28057
3.27732
3.27229
3.26526
3.25399
3.23085
3.18363
3.07644
2.77033
1.83258
0.321897
0.613326
0.565732
0.453279
0.396559
0.361469
0.347893
0.35426
0.36343
0.376216
0.387796
0.391864
0.416631
0.422185
3.13788
3.28057
3.2773
3.27235
3.26525
3.25466
3.23273
3.19017
3.09881
2.85243
2.09066
0.580841
0.590782
0.60831
0.473752
0.417298
0.381188
0.369488
0.381074
0.397267
0.417002
0.438801
0.450712
0.490291
0.513928
3.13788
3.28057
3.2773
3.27236
3.26522
3.25514
3.23407
3.19641
3.11866
2.9214
2.32195
0.912314
0.536242
0.649545
0.502268
0.44207
0.403445
0.394457
0.410167
0.433066
0.459606
0.494232
0.516784
0.569071
0.629655
3.13787
3.28057
3.27728
3.27236
3.26517
3.25536
3.23505
3.20193
3.13523
2.977
2.51587
1.31443
0.448374
0.677178
0.540081
0.469461
0.429213
0.422372
0.440408
0.470787
0.503736
0.553231
0.592946
0.662956
0.80434
3.1379
3.28057
3.27727
3.27207
3.26448
3.25002
3.21974
3.15034
2.96279
2.35898
0.9112
0.360694
0.606765
0.455933
0.398407
0.345042
0.30699
0.283105
0.267492
0.248266
0.224145
0.189821
0.151614
0.124117
0.0355191
3.1379
3.28057
3.27728
3.27208
3.26456
3.25026
3.22045
3.15249
2.97002
2.38378
0.951838
0.348118
0.607655
0.45794
0.399328
0.345116
0.307331
0.284331
0.269991
0.252578
0.231593
0.201213
0.167285
0.145456
0.0849994
3.1379
3.28057
3.2773
3.2721
3.26469
3.25073
3.22185
3.15668
2.9839
2.43269
1.04105
0.32728
0.612562
0.465956
0.404161
0.348891
0.311816
0.290632
0.278832
0.264822
0.249077
0.225609
0.199199
0.185907
0.145599
3.1379
3.28056
3.27733
3.27214
3.26481
3.25147
3.22393
3.16261
3.00348
2.50181
1.17975
0.289501
0.617108
0.479494
0.411979
0.355224
0.319151
0.300285
0.292015
0.282715
0.273808
0.258824
0.240647
0.235896
0.208689
3.1379
3.28055
3.27734
3.27219
3.26485
3.25231
3.22633
3.16944
3.02643
2.58358
1.35696
0.245274
0.620688
0.500419
0.423086
0.365142
0.329954
0.313239
0.309183
0.305471
0.30368
0.297066
0.286676
0.290578
0.273205
3.1379
3.28057
3.27734
3.27224
3.26512
3.25317
3.22863
3.17662
3.0518
2.67672
1.57643
0.222895
0.620559
0.529065
0.436734
0.378805
0.344015
0.329189
0.330115
0.332607
0.338207
0.340317
0.337188
0.350548
0.343099
3.13789
3.28057
3.27732
3.2723
3.26526
3.254
3.23086
3.18366
3.07651
2.77056
1.83322
0.32238
0.613133
0.56557
0.453051
0.396419
0.361363
0.347814
0.35421
0.363389
0.376182
0.387772
0.391848
0.416622
0.42218
3.13788
3.28057
3.27731
3.27236
3.26526
3.25468
3.23276
3.19022
3.0989
2.85264
2.09111
0.581176
0.590651
0.608294
0.473679
0.417258
0.381137
0.369435
0.381033
0.39723
0.416971
0.438779
0.450697
0.490282
0.513923
3.13788
3.28057
3.2773
3.27236
3.26522
3.25514
3.23408
3.19642
3.11868
2.92146
2.32211
0.91251
0.536107
0.649601
0.502305
0.442105
0.403446
0.39443
0.410139
0.433036
0.459579
0.494213
0.51677
0.569061
0.62965
3.13788
3.28058
3.2773
3.27237
3.26518
3.25538
3.23508
3.20197
3.13528
2.97709
2.516
1.31454
0.44823
0.677275
0.540189
0.469539
0.429245
0.422361
0.440381
0.470762
0.503712
0.553214
0.592934
0.662946
0.804334
3.1379
3.28057
3.27727
3.27207
3.26448
3.25002
3.21975
3.15035
2.9628
2.359
0.911221
0.360686
0.606765
0.455931
0.398408
0.345039
0.306981
0.283095
0.267485
0.248261
0.224143
0.189819
0.151609
0.124118
0.0355065
3.1379
3.28057
3.27728
3.27208
3.26456
3.25026
3.22046
3.1525
2.97003
2.3838
0.951849
0.348132
0.607675
0.457955
0.39934
0.345119
0.307325
0.284321
0.269981
0.252568
0.231585
0.201205
0.167277
0.145465
0.0849877
3.1379
3.28057
3.2773
3.2721
3.2647
3.25074
3.22186
3.15669
2.98391
2.43272
1.04108
0.327278
0.612567
0.46596
0.404164
0.348894
0.311816
0.290628
0.278827
0.264818
0.249076
0.225609
0.199202
0.185927
0.145592
3.1379
3.28056
3.27733
3.27214
3.26481
3.25147
3.22394
3.16262
3.00349
2.50185
1.1798
0.289494
0.617118
0.4795
0.411979
0.355226
0.319155
0.300289
0.292017
0.282717
0.273813
0.258828
0.240651
0.235916
0.20869
3.1379
3.28055
3.27734
3.27219
3.26486
3.25231
3.22634
3.16945
3.02645
2.58363
1.35703
0.245257
0.620682
0.500421
0.423082
0.365144
0.329961
0.313247
0.309189
0.305477
0.303686
0.297068
0.286674
0.290589
0.273209
3.1379
3.28057
3.27734
3.27224
3.26512
3.25317
3.22864
3.17663
3.05182
2.67678
1.57653
0.222912
0.620543
0.529067
0.43673
0.378809
0.344024
0.3292
0.330124
0.332616
0.338214
0.340317
0.337182
0.35055
0.343099
3.13789
3.28057
3.27733
3.2723
3.26526
3.254
3.23086
3.18366
3.07653
2.77061
1.83337
0.322499
0.613111
0.565574
0.453043
0.396423
0.361375
0.347827
0.354221
0.363401
0.376191
0.387774
0.391841
0.416614
0.422181
3.13788
3.28057
3.27731
3.27236
3.26526
3.25468
3.23277
3.19023
3.09891
2.85268
2.09123
0.581322
0.590615
0.608297
0.473673
0.417266
0.381152
0.369451
0.381049
0.397245
0.416983
0.438786
0.450693
0.490271
0.513926
3.13788
3.28057
3.2773
3.27236
3.26522
3.25514
3.23408
3.19642
3.11869
2.92148
2.32221
0.912683
0.536046
0.649597
0.502304
0.442117
0.403463
0.394449
0.41016
0.433056
0.459594
0.494225
0.516772
0.569048
0.629649
3.13788
3.28057
3.27729
3.27237
3.26518
3.25538
3.23508
3.20198
3.13529
2.9771
2.51606
1.31469
0.448152
0.677267
0.540195
0.469547
0.429265
0.422386
0.44041
0.470785
0.503732
0.553231
0.592942
0.662935
0.804337
3.1379
3.28057
3.27727
3.27207
3.26448
3.25002
3.21974
3.15033
2.96278
2.35895
0.911156
0.360714
0.606769
0.455937
0.398411
0.345042
0.306987
0.283101
0.267487
0.24826
0.22414
0.189817
0.151611
0.124115
0.0355187
3.1379
3.28057
3.27728
3.27208
3.26456
3.25026
3.22045
3.15249
2.97001
2.38376
0.951796
0.34814
0.60766
0.457945
0.399331
0.345116
0.307328
0.284327
0.269986
0.252573
0.231589
0.201209
0.167282
0.145455
0.084999
3.1379
3.28057
3.2773
3.2721
3.26469
3.25073
3.22185
3.15668
2.98389
2.43267
1.04102
0.327296
0.612566
0.465959
0.404163
0.34889
0.311813
0.290628
0.278827
0.264817
0.249073
0.225605
0.199196
0.185905
0.145597
3.1379
3.28056
3.27733
3.27214
3.26481
3.25146
3.22393
3.16261
3.00347
2.5018
1.17973
0.289518
0.617116
0.479499
0.411981
0.355223
0.319148
0.300282
0.292011
0.28271
0.273803
0.25882
0.240644
0.235894
0.208688
3.1379
3.28055
3.27734
3.27219
3.26485
3.25231
3.22633
3.16944
3.02643
2.58359
1.35698
0.245285
0.620691
0.50042
0.423084
0.365139
0.329952
0.313238
0.309181
0.305468
0.303677
0.297063
0.286674
0.290576
0.273203
3.1379
3.28056
3.27734
3.27224
3.26511
3.25317
3.22863
3.17662
3.0518
2.67674
1.57647
0.222921
0.620554
0.529062
0.436727
0.378799
0.344013
0.329191
0.330116
0.332607
0.338206
0.340316
0.337186
0.350546
0.343098
3.13789
3.28057
3.27732
3.2723
3.26526
3.254
3.23086
3.18365
3.07651
2.77058
1.83332
0.32247
0.613121
0.565566
0.453039
0.396412
0.361361
0.347818
0.354215
0.363394
0.376185
0.387772
0.391848
0.416621
0.422178
3.13788
3.28057
3.27731
3.27236
3.26526
3.25468
3.23276
3.19022
3.0989
2.85266
2.0912
0.581299
0.590621
0.608287
0.473666
0.417255
0.38114
0.369442
0.381042
0.397239
0.416977
0.438782
0.450698
0.490281
0.513921
3.13788
3.28057
3.2773
3.27236
3.26522
3.25514
3.23407
3.19641
3.11867
2.92146
2.32219
0.912663
0.536054
0.64959
0.502299
0.442107
0.403454
0.394441
0.410154
0.43305
0.459589
0.494218
0.516773
0.569062
0.629649
3.13788
3.28057
3.27729
3.27237
3.26518
3.25537
3.23508
3.20197
3.13528
2.97709
2.51604
1.31467
0.448157
0.677261
0.540192
0.469544
0.429258
0.422381
0.440405
0.47078
0.503727
0.553223
0.592939
0.662948
0.804333
3.1379
3.28057
3.27727
3.27207
3.26448
3.25002
3.21974
3.15034
2.96279
2.35898
0.9112
0.360694
0.606765
0.455933
0.398407
0.345041
0.306989
0.283105
0.267492
0.248265
0.224144
0.189821
0.151614
0.124116
0.0355192
3.1379
3.28057
3.27728
3.27208
3.26456
3.25026
3.22045
3.15249
2.97002
2.38378
0.951838
0.348118
0.607655
0.45794
0.399328
0.345116
0.307331
0.284331
0.269991
0.252578
0.231593
0.201213
0.167285
0.145456
0.0849994
3.1379
3.28057
3.2773
3.2721
3.26469
3.25073
3.22185
3.15668
2.9839
2.43269
1.04105
0.32728
0.612562
0.465956
0.404162
0.348891
0.311816
0.290632
0.278832
0.264822
0.249077
0.225609
0.199199
0.185907
0.145599
3.1379
3.28056
3.27733
3.27214
3.26481
3.25147
3.22393
3.16261
3.00348
2.50181
1.17975
0.289501
0.617108
0.479494
0.411979
0.355224
0.319151
0.300285
0.292015
0.282715
0.273808
0.258824
0.240647
0.235896
0.208689
3.1379
3.28055
3.27734
3.27219
3.26485
3.25231
3.22633
3.16944
3.02643
2.58358
1.35696
0.245274
0.620688
0.500419
0.423086
0.365142
0.329954
0.313239
0.309183
0.305471
0.30368
0.297065
0.286676
0.290578
0.273205
3.1379
3.28057
3.27734
3.27224
3.26512
3.25317
3.22863
3.17662
3.0518
2.67672
1.57643
0.222895
0.620559
0.529065
0.436734
0.378805
0.344015
0.329189
0.330115
0.332607
0.338207
0.340317
0.337188
0.350548
0.343099
3.13789
3.28057
3.27732
3.2723
3.26526
3.254
3.23086
3.18366
3.07651
2.77056
1.83322
0.32238
0.613133
0.56557
0.453051
0.396419
0.361363
0.347814
0.354209
0.363389
0.376182
0.387772
0.391848
0.416622
0.42218
3.13788
3.28057
3.27731
3.27236
3.26526
3.25468
3.23276
3.19022
3.0989
2.85264
2.09111
0.581176
0.590651
0.608294
0.473679
0.417258
0.381137
0.369435
0.381033
0.39723
0.416971
0.438779
0.450697
0.490282
0.513923
3.13788
3.28057
3.2773
3.27236
3.26522
3.25514
3.23408
3.19642
3.11868
2.92146
2.32211
0.91251
0.536107
0.649601
0.502305
0.442105
0.403446
0.39443
0.410139
0.433036
0.459579
0.494213
0.51677
0.569061
0.62965
3.13788
3.28058
3.2773
3.27237
3.26518
3.25538
3.23508
3.20197
3.13528
2.97709
2.516
1.31454
0.44823
0.677275
0.540189
0.469539
0.429245
0.422361
0.440381
0.470762
0.503712
0.553214
0.592934
0.662946
0.804334
3.1379
3.28057
3.27727
3.27206
3.26448
3.25001
3.21973
3.15032
2.96278
2.359
0.911267
0.360673
0.606777
0.455947
0.398408
0.34503
0.306977
0.283102
0.267501
0.248282
0.224161
0.189833
0.15162
0.12412
0.0355195
3.1379
3.28057
3.27728
3.27208
3.26455
3.25025
3.22044
3.15248
2.97
2.3838
0.951906
0.348138
0.607693
0.457967
0.399326
0.345102
0.30732
0.284331
0.270002
0.252597
0.231613
0.201227
0.167292
0.14546
0.0850008
3.1379
3.28056
3.2773
3.2721
3.26469
3.25073
3.22185
3.15668
2.98391
2.43278
1.04123
0.32728
0.61257
0.465942
0.404109
0.348847
0.311798
0.290633
0.278845
0.264845
0.2491
0.225626
0.199208
0.185912
0.145601
3.13789
3.28055
3.27732
3.27213
3.2648
3.25145
3.22392
3.1626
3.00349
2.50195
1.18009
0.289391
0.616961
0.4793
0.4118
0.355119
0.319126
0.300295
0.292034
0.282742
0.273836
0.258844
0.240658
0.235903
0.208693
3.1379
3.28055
3.27734
3.27219
3.26485
3.25231
3.22633
3.16946
3.02648
2.58376
1.35734
0.244764
0.620184
0.500153
0.422937
0.365107
0.32997
0.313267
0.309212
0.305505
0.303712
0.297089
0.28669
0.290585
0.273209
3.13789
3.28056
3.27733
3.27222
3.26512
3.25315
3.22859
3.17657
3.05172
2.67654
1.57612
0.222448
0.620741
0.529275
0.436915
0.378952
0.344109
0.329256
0.330159
0.332647
0.338242
0.340343
0.337203
0.350556
0.343104
3.13789
3.28057
3.27732
3.27229
3.26526
3.25399
3.23085
3.18363
3.07644
2.77033
1.83258
0.321897
0.613326
0.565732
0.453279
0.396559
0.361469
0.347893
0.35426
0.36343
0.376216
0.387796
0.391864
0.416631
0.422185
3.13788
3.28057
3.2773
3.27235
3.26525
3.25466
3.23273
3.19017
3.09881
2.85243
2.09066
0.580841
0.590783
0.60831
0.473752
0.417298
0.381188
0.369488
0.381074
0.397267
0.417002
0.438801
0.450712
0.490291
0.513928
3.13788
3.28057
3.2773
3.27236
3.26522
3.25514
3.23407
3.19641
3.11866
2.9214
2.32195
0.912313
0.536242
0.649545
0.502268
0.44207
0.403445
0.394457
0.410167
0.433066
0.459606
0.494232
0.516784
0.569071
0.629655
3.13787
3.28057
3.27728
3.27236
3.26517
3.25536
3.23505
3.20193
3.13523
2.977
2.51587
1.31443
0.448374
0.677178
0.540081
0.469461
0.429213
0.422372
0.440408
0.470786
0.503736
0.553231
0.592946
0.662956
0.80434
3.13789
3.28056
3.27726
3.27205
3.26446
3.24999
3.21971
3.1503
2.96275
2.35897
0.911177
0.360661
0.606459
0.455538
0.398072
0.344865
0.306933
0.283127
0.267546
0.248326
0.2242
0.189863
0.151638
0.124128
0.0355181
3.13789
3.28056
3.27727
3.27207
3.26454
3.25024
3.22043
3.15246
2.96999
2.38382
0.95195
0.347483
0.607137
0.457473
0.399061
0.345004
0.307323
0.284377
0.270055
0.252643
0.231648
0.201252
0.167306
0.145465
0.0849981
3.13789
3.28056
3.27729
3.27208
3.26467
3.2507
3.22179
3.15656
2.98362
2.43187
1.03957
0.328339
0.613247
0.46645
0.404477
0.349093
0.311935
0.290718
0.278908
0.26489
0.249129
0.225642
0.199215
0.185913
0.145596
3.1379
3.28056
3.27732
3.27213
3.2648
3.25145
3.22391
3.16255
3.00332
2.50133
1.17889
0.289679
0.617
0.479524
0.412153
0.355388
0.319275
0.300374
0.292086
0.282775
0.273851
0.258849
0.240658
0.235899
0.208686
3.13789
3.28054
3.27733
3.27217
3.26485
3.25228
3.22627
3.16934
3.02624
2.58306
1.35606
0.245708
0.621005
0.500548
0.42331
0.365298
0.330057
0.313309
0.309236
0.305514
0.303711
0.297083
0.286682
0.290578
0.2732
3.13789
3.28056
3.27733
3.27223
3.26511
3.25316
3.22861
3.17657
3.05168
2.67636
1.57571
0.223186
0.620764
0.529037
0.436835
0.378877
0.344043
0.329217
0.33014
0.332629
0.338223
0.340326
0.337189
0.350545
0.343094
3.13788
3.28056
3.27731
3.27228
3.26525
3.25398
3.23082
3.1836
3.07642
2.77036
1.83283
0.322452
0.613202
0.565388
0.452954
0.396359
0.361328
0.347794
0.354204
0.363394
0.376187
0.387773
0.391846
0.416618
0.422174
3.13788
3.28057
3.2773
3.27235
3.26526
3.25467
3.23275
3.1902
3.09888
2.85261
2.09111
0.581291
0.590682
0.608156
0.473506
0.417139
0.381064
0.369388
0.38101
0.397224
0.416969
0.438776
0.450693
0.490276
0.513917
3.13787
3.28056
3.27729
3.27235
3.26521
3.25513
3.23405
3.19638
3.11864
2.92143
2.32217
0.91273
0.536099
0.649495
0.502158
0.441982
0.403365
0.394383
0.410117
0.43303
0.459576
0.494209
0.516765
0.569056
0.629645
3.13788
3.28057
3.27729
3.27236
3.26517
3.25537
3.23507
3.20196
3.13526
2.97707
2.51604
1.31476
0.448173
0.677201
0.540091
0.469437
0.429181
0.42233
0.44037
0.470762
0.503715
0.553214
0.592931
0.662942
0.804331
3.1379
3.28057
3.27727
3.27206
3.26448
3.25001
3.21974
3.15037
2.96296
2.3597
0.912479
0.360494
0.606869
0.456005
0.398389
0.345075
0.307084
0.28325
0.267678
0.248479
0.224376
0.190063
0.151864
0.124393
0.036367
3.1379
3.28057
3.27728
3.27207
3.26455
3.25025
3.22045
3.15253
2.97021
2.38463
0.953393
0.347564
0.60747
0.457701
0.399168
0.345083
0.307395
0.284459
0.270159
0.252764
0.231786
0.201405
0.167477
0.145685
0.0853514
3.1379
3.28057
3.2773
3.2721
3.26469
3.25073
3.22186
3.15671
2.98408
2.4335
1.04276
0.326168
0.612121
0.465688
0.404034
0.348923
0.311926
0.290781
0.279009
0.26501
0.249263
0.225785
0.199365
0.186088
0.145804
3.1379
3.28056
3.27732
3.27213
3.26481
3.25144
3.22389
3.16255
3.00342
2.50175
1.17971
0.289757
0.617738
0.480061
0.412364
0.355503
0.319376
0.300478
0.292207
0.282907
0.273992
0.258992
0.240796
0.236047
0.208827
3.1379
3.28055
3.27734
3.27218
3.26485
3.25229
3.2263
3.16941
3.02641
2.5836
1.35709
0.245548
0.620949
0.500658
0.423247
0.365314
0.330161
0.313449
0.309383
0.305661
0.303854
0.297219
0.286805
0.290705
0.273313
3.13789
3.28056
3.27733
3.27222
3.26511
3.25314
3.22859
3.17658
3.05182
2.67694
1.57703
0.223209
0.620111
0.528834
0.436589
0.378857
0.344174
0.329383
0.33031
0.332791
0.338369
0.340456
0.337304
0.350658
0.343186
3.13788
3.28057
3.27732
3.27228
3.26527
3.25399
3.23081
3.18362
3.07651
2.77068
1.8337
0.322567
0.612862
0.56553
0.453006
0.396552
0.361569
0.348028
0.354411
0.363568
0.376335
0.387901
0.391953
0.416717
0.422254
3.13787
3.28056
3.27729
3.27232
3.26526
3.25465
3.23269
3.19013
3.09879
2.85243
2.09077
0.580806
0.590729
0.608474
0.473806
0.41744
0.381379
0.36967
0.381242
0.397405
0.417115
0.438895
0.450792
0.490363
0.513987
3.13788
3.28057
3.27729
3.27235
3.26522
3.25513
3.23404
3.19638
3.11862
2.9213
2.32173
0.912036
0.53616
0.649659
0.502404
0.442281
0.403688
0.394649
0.410339
0.433204
0.459715
0.494328
0.516856
0.56913
0.629705
3.13787
3.28056
3.27727
3.27233
3.26516
3.25534
3.235
3.20188
3.13516
2.97683
2.5155
1.3139
0.448454
0.677355
0.54023
0.469632
0.429437
0.422555
0.440569
0.470902
0.503835
0.553311
0.593008
0.66299
0.80439
3.13788
3.28056
3.27727
3.27234
3.26509
3.25544
3.23556
3.20596
3.14876
3.02158
2.67572
1.7261
0.404605
0.685833
0.588073
0.497683
0.459645
0.452832
0.471175
0.510299
0.548038
0.61144
0.673997
0.762512
0.996653
3.13788
3.28056
3.27727
3.27237
3.26505
3.25546
3.23559
3.20838
3.15948
3.05429
2.79355
2.09323
0.672753
0.654699
0.643421
0.526921
0.492442
0.4839
0.504403
0.550238
0.593718
0.658586
0.746826
0.843453
1.07525
3.13788
3.28056
3.27727
3.27239
3.26505
3.25547
3.23602
3.20845
3.16716
3.07694
2.87094
2.36267
1.172
0.568786
0.687838
0.562855
0.524511
0.515564
0.540547
0.58933
0.639329
0.698227
0.798343
0.889098
1.08074
3.13788
3.28056
3.27727
3.27238
3.26508
3.25547
3.23617
3.20798
3.17229
3.09181
2.9224
2.54804
1.65855
0.484913
0.698993
0.61107
0.553531
0.550466
0.575134
0.622511
0.681338
0.73564
0.838706
0.921333
1.06359
3.13788
3.28056
3.27728
3.27238
3.26511
3.25548
3.2362
3.20802
3.17442
3.10175
2.9553
2.67174
2.03572
0.75988
0.651108
0.661289
0.581399
0.589039
0.607937
0.652816
0.71533
0.766694
0.869702
0.944555
1.04001
3.13787
3.28056
3.27727
3.27237
3.26512
3.25548
3.23622
3.20818
3.17521
3.10928
2.97289
2.74675
2.28554
1.31434
0.565281
0.691469
0.617601
0.62605
0.63984
0.681658
0.738461
0.788584
0.884389
0.954424
1.02488
3.13787
3.28056
3.27727
3.27237
3.26512
3.25548
3.23625
3.20804
3.17543
3.11157
2.98054
2.7961
2.43545
1.73291
0.648291
0.672996
0.661222
0.659992
0.673146
0.703126
0.757654
0.803267
0.887941
0.952642
1.01471
3.13787
3.28056
3.27727
3.27237
3.26511
3.25548
3.23623
3.20812
3.17541
3.11223
2.98092
2.82437
2.52565
2.01531
1.13683
0.620788
0.696303
0.688264
0.703561
0.720142
0.775731
0.816424
0.886002
0.953109
1.00944
3.13787
3.28056
3.27727
3.27237
3.26512
3.25548
3.23625
3.20818
3.17545
3.11264
2.97989
2.83651
2.58159
2.172
1.5673
0.71391
0.702053
0.71416
0.73136
0.742674
0.789163
0.831377
0.884057
0.952791
1.00825
3.13787
3.28056
3.27727
3.27237
3.26511
3.25547
3.23624
3.20816
3.17543
3.11256
2.97816
2.83618
2.60144
2.2384
1.82905
1.15911
0.691309
0.73084
0.75966
0.772429
0.799695
0.843391
0.889668
0.947787
1.00572
3.13788
3.28056
3.27727
3.27237
3.2651
3.25547
3.23628
3.20814
3.17544
3.1126
2.97831
2.83566
2.60452
2.25532
1.9696
1.5546
0.886403
0.734158
0.781645
0.803762
0.819845
0.852405
0.899191
0.945525
1.00083
3.13787
3.28056
3.27727
3.27237
3.26511
3.25547
3.23624
3.20814
3.17543
3.11258
2.97881
2.83604
2.60768
2.25321
2.01962
1.74927
1.30941
0.799577
0.792418
0.837037
0.859826
0.86776
0.907571
0.952329
1.00006
3.13787
3.28056
3.27727
3.27237
3.26511
3.25547
3.23625
3.20814
3.17543
3.1126
2.97891
2.83653
2.60874
2.25136
2.0236
1.83048
1.58319
1.13694
0.817734
0.861596
0.902335
0.904675
0.921735
0.962598
1.00518
3.13788
3.28056
3.27727
3.27237
3.2651
3.25547
3.23627
3.20814
3.17542
3.11264
2.979
2.83668
2.60911
2.25197
2.02474
1.84756
1.69474
1.46997
1.07606
0.882762
0.934386
0.951528
0.951647
0.979387
1.01937
3.13787
3.28056
3.27727
3.27237
3.26511
3.25548
3.23625
3.20815
3.17543
3.11259
2.97887
2.83651
2.60867
2.25164
2.02288
1.84892
1.71145
1.59883
1.41424
1.09706
0.954003
0.988052
0.993761
1.00755
1.03994
3.13787
3.28056
3.27727
3.27237
3.26511
3.25548
3.23624
3.20815
3.17543
3.11259
2.97888
2.83654
2.60874
2.25179
2.02293
1.84914
1.71355
1.63033
1.55203
1.41151
1.15712
1.01654
1.02876
1.03908
1.05988
3.13787
3.28056
3.27727
3.27237
3.26511
3.25548
3.23624
3.20816
3.17544
3.11261
2.97892
2.83658
2.60883
2.25185
2.02289
1.84914
1.71356
1.63363
1.58869
1.54272
1.44272
1.2333
1.07459
1.0607
1.077
3.13787
3.28056
3.27727
3.27236
3.26511
3.25547
3.23624
3.20815
3.17542
3.11257
2.97885
2.83649
2.60873
2.25168
2.0227
1.84909
1.71366
1.63396
1.59319
1.57438
1.5521
1.48656
1.31526
1.12804
1.08108
3.13788
3.28056
3.27727
3.27237
3.2651
3.25547
3.23628
3.20816
3.17544
3.11267
2.97904
2.83672
2.60918
2.25233
2.02352
1.85017
1.71497
1.6354
1.59508
1.5782
1.57941
1.56763
1.52488
1.38896
1.19889
3.13787
3.28055
3.27727
3.27236
3.2651
3.25547
3.23623
3.20815
3.17541
3.11256
2.97883
2.83647
2.60874
2.25169
2.02271
1.84912
1.71371
1.63402
1.59363
1.57693
1.58055
1.57939
1.57122
1.52347
1.42146
3.13787
3.28056
3.27727
3.27237
3.26512
3.25548
3.23625
3.20817
3.17545
3.11262
2.97892
2.83659
2.60881
2.25186
2.02295
1.8492
1.71364
1.63395
1.59353
1.57685
1.58073
1.58091
1.57794
1.54673
1.48628
3.13787
3.28055
3.27726
3.27236
3.2651
3.25546
3.23622
3.20814
3.1754
3.11254
2.97879
2.83647
2.60877
2.25186
2.02297
1.84943
1.714
1.63423
1.59381
1.57709
1.58101
1.58148
1.57962
1.55048
1.49497
3.13787
3.28056
3.27727
3.27237
3.26512
3.25548
3.23625
3.20817
3.17545
3.11262
2.97893
2.8366
2.60883
2.25189
2.02299
1.84923
1.71366
1.63396
1.59353
1.57684
1.58075
1.58126
1.57958
1.55064
1.49574
3.13787
3.28055
3.27726
3.27236
3.2651
3.25546
3.23622
3.20814
3.1754
3.11254
2.9788
2.83644
2.60873
2.25174
2.02278
1.8492
1.71378
1.63407
1.59367
1.57697
1.58088
1.58139
1.57972
1.55083
1.49597
3.13788
3.28056
3.27727
3.27237
3.2651
3.25548
3.23628
3.20816
3.17545
3.11268
2.97906
2.83675
2.60923
2.2524
2.02358
1.85021
1.71499
1.63543
1.59514
1.57848
1.5825
1.58291
1.58105
1.55193
1.49683
3.13787
3.28055
3.27726
3.27236
3.2651
3.25546
3.23623
3.20814
3.1754
3.11254
2.97881
2.83645
2.60875
2.25174
2.02276
1.84916
1.71373
1.63402
1.59363
1.57694
1.58086
1.58137
1.5797
1.55082
1.49598
3.13787
3.28056
3.27727
3.27237
3.26512
3.25548
3.23625
3.20817
3.17546
3.11263
2.97895
2.83662
2.60888
2.25192
2.02298
1.84921
1.71364
1.63394
1.59353
1.57685
1.58077
1.58129
1.57964
1.55072
1.4959
3.13787
3.28055
3.27727
3.27236
3.26511
3.25547
3.23623
3.20815
3.17541
3.11256
2.97883
2.8365
2.6088
2.25183
2.0229
1.84937
1.71395
1.6342
1.59379
1.57707
1.581
1.5815
1.57982
1.55092
1.49607
3.13788
3.28056
3.27727
3.27237
3.26512
3.25548
3.23626
3.20817
3.17546
3.11263
2.97895
2.83662
2.60884
2.25189
2.02299
1.84923
1.71367
1.63397
1.59354
1.57685
1.58075
1.58128
1.57962
1.5507
1.49588
3.13787
3.28056
3.27727
3.27236
3.26511
3.25547
3.23624
3.20815
3.17542
3.11258
2.97887
2.83651
2.60874
2.25171
2.02276
1.84916
1.71374
1.63404
1.59364
1.57694
1.58086
1.58138
1.57972
1.55083
1.49598
3.13788
3.28056
3.27727
3.27237
3.2651
3.25548
3.23629
3.20816
3.17546
3.11269
2.97909
2.83678
2.60926
2.25242
2.02359
1.85022
1.71498
1.63541
1.59512
1.57846
1.58247
1.58288
1.58103
1.55192
1.49683
3.13787
3.28056
3.27727
3.27237
3.26511
3.25548
3.23625
3.20815
3.17544
3.11261
2.97893
2.83657
2.60879
2.25177
2.02277
1.84895
1.7134
1.63374
1.59335
1.5767
1.5806
1.58114
1.57951
1.55062
1.49582
3.13788
3.28056
3.27728
3.27238
3.26512
3.25549
3.23627
3.20817
3.17546
3.11265
2.979
2.83665
2.60884
2.25182
2.02285
1.84899
1.71339
1.63372
1.59332
1.57666
1.58056
1.5811
1.57947
1.55057
1.49578
3.13788
3.28056
3.27727
3.27238
3.2651
3.25548
3.23629
3.20815
3.17544
3.11267
2.97905
2.83675
2.60919
2.25243
2.02367
1.85032
1.71507
1.63545
1.59512
1.57843
1.58243
1.58285
1.581
1.55187
1.4968
3.13788
3.28056
3.27728
3.27238
3.26512
3.25549
3.23628
3.20817
3.17546
3.11266
2.97901
2.83666
2.60879
2.25177
2.02287
1.84904
1.71345
1.63376
1.59334
1.57666
1.58055
1.58109
1.57947
1.55056
1.49578
3.13788
3.28056
3.27728
3.27237
3.26512
3.25549
3.23627
3.20816
3.17545
3.11265
2.97899
2.83663
2.60883
2.25178
2.02277
1.84892
1.71336
1.63371
1.59332
1.57666
1.58056
1.5811
1.57948
1.55059
1.4958
3.13788
3.28056
3.27728
3.27238
3.26511
3.25549
3.23631
3.20816
3.17547
3.11274
2.97917
2.83685
2.60922
2.25237
2.02353
1.84994
1.71459
1.63507
1.59477
1.57814
1.58211
1.58255
1.58074
1.55162
1.4966
3.13788
3.28056
3.27728
3.27238
3.26512
3.25549
3.23627
3.20818
3.17547
3.11265
2.97899
2.83663
2.60879
2.25171
2.02277
1.84914
1.7137
1.634
1.5936
1.57692
1.58084
1.58136
1.57971
1.55081
1.49597
3.13788
3.28056
3.27728
3.27238
3.26511
3.25549
3.23631
3.20816
3.17547
3.11274
2.97917
2.83686
2.60926
2.25242
2.02357
1.85
1.71464
1.63506
1.59474
1.57808
1.58205
1.5825
1.5807
1.55162
1.49661
3.13788
3.28056
3.27728
3.27238
3.26512
3.25549
3.23628
3.20817
3.17547
3.11267
2.97904
2.83669
2.60886
2.25181
2.02281
1.84893
1.71333
1.63367
1.59328
1.57663
1.58052
1.58107