/*--------------------------------*- C++ -*----------------------------------*\
| =========                 |                                                 |
| \\      /  F ield         | OpenFOAM: The Open Source CFD Toolbox           |
|  \\    /   O peration     | Version:  4.1                                   |
|   \\  /    A nd           | Web:      www.OpenFOAM.org                      |
|    \\/     M anipulation  |                                                 |
\*---------------------------------------------------------------------------*/
FoamFile
{
    version     2.0;
    format      ascii;
    class       volScalarField;
    location    "0.38";
    object      p;
}
// * * * * * * * * * * * * * * * * * * * * * * * * * * * * * * * * * * * * * //

dimensions      [1 -1 -2 0 0 0 0];

internalField   nonuniform List<scalar> 
52500
(
0.0904623
0.062738
0.0627186
0.0627965
0.06302
0.0635841
0.0650029
0.0688411
0.0804918
0.124917
0.36849
1.8299
2.17247
1.88202
1.80561
1.76458
1.69669
1.5968
1.48921
1.39112
1.30337
1.23687
1.18942
1.16272
1.16021
0.0904624
0.0627382
0.062718
0.062795
0.063015
0.0635687
0.0649553
0.0686988
0.0800078
0.122738
0.355502
1.78534
2.19326
1.88602
1.80849
1.76889
1.7015
1.60098
1.49293
1.39362
1.3043
1.23668
1.18865
1.16129
1.15888
0.0904624
0.0627385
0.062717
0.0627924
0.0630055
0.0635384
0.0648629
0.0684217
0.0790722
0.118535
0.32851
1.67716
2.23642
1.88918
1.80801
1.77132
1.70458
1.60274
1.49438
1.39348
1.30251
1.2329
1.18332
1.15417
1.15198
0.0904625
0.062739
0.0627159
0.0627891
0.0629938
0.063495
0.0647337
0.0680213
0.077735
0.112855
0.294874
1.49884
2.3022
1.89276
1.80673
1.77448
1.70788
1.60506
1.49603
1.39275
1.2985
1.22504
1.17275
1.14035
1.13777
0.0904625
0.0627396
0.0627157
0.0627866
0.062981
0.0634459
0.0645845
0.0675503
0.0761562
0.106464
0.25997
1.26894
2.36802
1.89789
1.805
1.77748
1.71124
1.60825
1.49872
1.39132
1.29288
1.21502
1.15917
1.12162
1.11781
0.0904626
0.0627395
0.0627141
0.0627826
0.0629659
0.0633944
0.0644216
0.0670428
0.0744305
0.099555
0.222099
1.01101
2.40825
1.90464
1.80434
1.77994
1.71395
1.6124
1.50249
1.38958
1.28555
1.20211
1.14219
1.09715
1.09128
0.090463
0.0627396
0.0627132
0.06278
0.0629541
0.0633466
0.064264
0.0665432
0.0727567
0.092834
0.183185
0.752672
2.39297
1.92637
1.80842
1.77792
1.71579
1.61766
1.50705
1.38803
1.27688
1.18579
1.12164
1.06576
1.05603
0.0904631
0.0627398
0.0627127
0.0627791
0.0629475
0.0633119
0.0641225
0.0660854
0.0712405
0.0870418
0.151157
0.520681
2.24987
2.00454
1.82184
1.7696
1.71621
1.62355
1.5125
1.38685
1.26743
1.16696
1.09769
1.027
1.01087
0.0904633
0.0627402
0.0627134
0.06278
0.0629479
0.0632972
0.064015
0.0656756
0.0699068
0.0822028
0.127456
0.370803
1.85621
2.14834
1.83998
1.76121
1.71573
1.62978
1.51882
1.38714
1.25882
1.1444
1.06821
0.980645
0.948756
0.0904633
0.0627401
0.0627138
0.0627805
0.0629495
0.0633019
0.063929
0.065331
0.0687743
0.0782789
0.11035
0.268962
1.31619
2.31067
1.86219
1.75654
1.71591
1.63661
1.5259
1.38841
1.25187
1.11839
1.03159
0.928093
0.863495
0.0904628
0.0627384
0.062719
0.062797
0.0630205
0.0635848
0.0650043
0.0688448
0.0805042
0.124978
0.368893
1.83164
2.17218
1.8818
1.8055
1.76444
1.69647
1.59659
1.48904
1.39097
1.30323
1.23673
1.18927
1.16257
1.16006
0.0904627
0.0627384
0.0627182
0.0627953
0.0630154
0.0635693
0.0649565
0.0687021
0.0800187
0.122788
0.355815
1.78703
2.19312
1.88573
1.80835
1.76874
1.70132
1.60079
1.49276
1.39347
1.30416
1.23654
1.1885
1.16114
1.15873
0.0904629
0.0627388
0.0627173
0.0627928
0.0630061
0.0635396
0.0648655
0.0684293
0.0790973
0.118644
0.329182
1.67969
2.23452
1.88903
1.80793
1.77118
1.70443
1.6026
1.49422
1.39334
1.30237
1.23276
1.18318
1.15403
1.15184
0.0904626
0.062739
0.0627158
0.062789
0.0629939
0.0634954
0.0647353
0.0680269
0.0777544
0.112937
0.29532
1.50123
2.30038
1.89239
1.80658
1.77423
1.70777
1.60497
1.49589
1.39261
1.29838
1.22492
1.17263
1.14022
1.13764
0.0904628
0.0627398
0.0627158
0.0627866
0.0629811
0.0634466
0.0645864
0.0675563
0.0761752
0.106531
0.260261
1.27082
2.36612
1.89792
1.80495
1.77732
1.71117
1.6082
1.49862
1.39122
1.29278
1.21492
1.15905
1.12151
1.1177
0.0904626
0.0627393
0.0627138
0.0627822
0.0629656
0.0633941
0.0644222
0.0670449
0.074439
0.0995909
0.222292
1.0121
2.40742
1.90462
1.80434
1.77984
1.71394
1.61241
1.50244
1.38952
1.28548
1.20203
1.14209
1.09706
1.09118
0.090463
0.0627394
0.0627129
0.0627796
0.0629537
0.063346
0.0642634
0.066542
0.0727545
0.092833
0.183193
0.752604
2.39323
1.92641
1.80842
1.7779
1.71578
1.61768
1.50704
1.38802
1.27685
1.18574
1.12156
1.06568
1.05595
0.090463
0.0627394
0.0627121
0.0627784
0.0629468
0.0633108
0.0641213
0.0660828
0.0712357
0.0870318
0.151123
0.520497
2.25012
2.00476
1.82183
1.76962
1.71619
1.62361
1.51255
1.38689
1.26744
1.16693
1.09763
1.02694
1.01082
0.0904632
0.0627397
0.0627128
0.0627794
0.0629472
0.0632964
0.0640139
0.0656736
0.0699028
0.0821941
0.127428
0.37066
1.85581
2.14831
1.83987
1.76114
1.7157
1.62983
1.5189
1.38723
1.25887
1.14441
1.06818
0.98061
0.948718
0.090463
0.0627394
0.0627127
0.0627794
0.0629483
0.0633005
0.0639269
0.0653275
0.0687681
0.0782675
0.110323
0.268867
1.31559
2.31081
1.86208
1.75647
1.71587
1.63667
1.52601
1.38851
1.25196
1.11843
1.03158
0.928068
0.86347
0.0904625
0.062738
0.0627186
0.0627965
0.0630201
0.0635844
0.0650039
0.0688444
0.0805042
0.124979
0.368869
1.8311
2.17162
1.88177
1.80544
1.76439
1.69653
1.59669
1.48912
1.39103
1.30328
1.23677
1.18929
1.16259
1.16008
0.0904626
0.0627382
0.0627179
0.062795
0.063015
0.0635689
0.064956
0.0687012
0.0800174
0.122787
0.355831
1.78652
2.19254
1.88576
1.80834
1.76872
1.70136
1.60087
1.49284
1.39353
1.30421
1.23658
1.18853
1.16116
1.15875
0.0904625
0.0627384
0.0627168
0.0627922
0.0630054
0.0635384
0.0648632
0.0684235
0.07908
0.118574
0.328768
1.67831
2.23576
1.88893
1.80786
1.77118
1.70448
1.60268
1.4943
1.3934
1.30242
1.2328
1.1832
1.15404
1.15186
0.0904626
0.062739
0.0627157
0.0627889
0.0629937
0.0634949
0.0647339
0.0680226
0.0777407
0.112883
0.295043
1.49983
2.30166
1.89246
1.80657
1.77434
1.70782
1.60503
1.49597
1.39268
1.29842
1.22494
1.17264
1.14023
1.13765
0.0904625
0.0627394
0.0627153
0.0627862
0.0629806
0.0634455
0.0645846
0.0675512
0.0761608
0.106485
0.260074
1.2696
2.3675
1.89769
1.80489
1.77739
1.7112
1.60824
1.49869
1.39127
1.29281
1.21493
1.15906
1.12151
1.1177
0.0904628
0.0627394
0.0627139
0.0627823
0.0629657
0.0633941
0.0644217
0.0670436
0.0744348
0.0995743
0.222203
1.01159
2.40789
1.90451
1.80427
1.77988
1.71395
1.61244
1.50251
1.38956
1.28549
1.20203
1.14209
1.09706
1.09118
0.0904628
0.0627392
0.0627125
0.0627793
0.0629534
0.0633457
0.0642632
0.066542
0.0727553
0.0928381
0.183228
0.75294
2.39281
1.92625
1.80838
1.77789
1.71579
1.61772
1.50709
1.38805
1.27685
1.18572
1.12155
1.06567
1.05594
0.0904631
0.0627395
0.0627122
0.0627785
0.062947
0.0633111
0.0641217
0.0660838
0.0712383
0.0870405
0.151165
0.52076
2.24983
2.0044
1.82183
1.76961
1.71621
1.62362
1.51257
1.3869
1.26742
1.16691
1.09761
1.02693
1.0108
0.090463
0.0627395
0.0627124
0.062779
0.0629468
0.0632958
0.0640132
0.0656733
0.0699032
0.082198
0.127453
0.370823
1.85621
2.14799
1.83996
1.76115
1.71571
1.62982
1.51891
1.38723
1.25884
1.14438
1.06815
0.980588
0.948698
0.0904632
0.0627395
0.0627128
0.0627795
0.0629484
0.0633005
0.063927
0.0653278
0.0687688
0.0782696
0.110333
0.268929
1.31604
2.31057
1.86208
1.75641
1.71584
1.63665
1.52602
1.38851
1.25193
1.11839
1.03155
0.928042
0.86345
0.0904625
0.0627379
0.0627184
0.0627963
0.0630199
0.0635841
0.0650036
0.068844
0.0805039
0.12498
0.36889
1.83121
2.17161
1.88174
1.80543
1.76438
1.69652
1.5967
1.48915
1.39106
1.3033
1.23677
1.18928
1.16257
1.16006
0.0904625
0.062738
0.0627177
0.0627948
0.0630148
0.0635686
0.0649556
0.0687008
0.0800172
0.122789
0.355855
1.78665
2.1925
1.88569
1.80831
1.7687
1.70136
1.60089
1.49287
1.39356
1.30423
1.23658
1.18852
1.16114
1.15873
0.0904625
0.0627383
0.0627166
0.0627921
0.0630052
0.0635383
0.0648631
0.0684236
0.0790813
0.118582
0.328815
1.67851
2.23557
1.88884
1.80783
1.77116
1.70448
1.60269
1.49433
1.39343
1.30245
1.2328
1.18319
1.15403
1.15184
0.0904624
0.0627387
0.0627154
0.0627886
0.0629934
0.0634946
0.0647337
0.0680229
0.0777433
0.112897
0.295117
1.50016
2.3012
1.89247
1.80659
1.77431
1.70784
1.60505
1.49599
1.39271
1.29845
1.22496
1.17264
1.14022
1.13764
0.0904624
0.0627393
0.0627152
0.0627861
0.0629805
0.0634454
0.0645847
0.067552
0.0761638
0.106496
0.260124
1.26998
2.36683
1.89785
1.80492
1.77738
1.71123
1.60828
1.49872
1.39131
1.29284
1.21495
1.15906
1.1215
1.11769
0.0904625
0.0627391
0.0627135
0.0627819
0.0629653
0.0633935
0.064421
0.0670418
0.0744307
0.0995641
0.222176
1.01151
2.40782
1.90459
1.80428
1.77986
1.71399
1.61249
1.50254
1.3896
1.28553
1.20205
1.1421
1.09705
1.09117
0.0904627
0.0627391
0.0627124
0.0627792
0.0629532
0.0633453
0.0642625
0.0665402
0.0727502
0.0928214
0.183141
0.752326
2.39336
1.92639
1.80834
1.77787
1.71583
1.61778
1.50714
1.38809
1.27689
1.18575
1.12156
1.06567
1.05594
0.0904629
0.0627392
0.0627118
0.0627781
0.0629465
0.0633104
0.0641208
0.066082
0.0712346
0.0870303
0.151121
0.52051
2.24998
2.00453
1.8218
1.76962
1.71625
1.62368
1.51262
1.38695
1.26747
1.16694
1.09763
1.02693
1.0108
0.090463
0.0627394
0.0627123
0.0627789
0.0629467
0.0632956
0.064013
0.0656726
0.0699017
0.0821937
0.127436
0.370737
1.85602
2.14822
1.8399
1.76115
1.71574
1.62988
1.51896
1.38729
1.2589
1.14442
1.06818
0.980597
0.948703
0.0904629
0.0627392
0.0627124
0.062779
0.0629479
0.0633
0.0639262
0.0653267
0.0687672
0.0782672
0.110328
0.268908
1.31592
2.31056
1.86201
1.75644
1.71588
1.6367
1.52608
1.38858
1.252
1.11844
1.03157
0.928055
0.863457
0.0904624
0.0627379
0.0627183
0.0627962
0.0630198
0.063584
0.0650033
0.0688436
0.0805031
0.124978
0.368883
1.83121
2.17162
1.88174
1.80542
1.76437
1.69652
1.59671
1.48917
1.39109
1.30333
1.23681
1.18933
1.16262
1.1601
0.0904624
0.062738
0.0627176
0.0627947
0.0630147
0.0635684
0.0649555
0.0687005
0.0800166
0.122787
0.355852
1.78665
2.1925
1.8857
1.8083
1.7687
1.70135
1.60089
1.49289
1.39359
1.30426
1.23662
1.18856
1.16119
1.15877
0.0904624
0.0627382
0.0627165
0.062792
0.0630051
0.0635381
0.0648629
0.0684232
0.0790804
0.118579
0.328807
1.67848
2.23558
1.88884
1.80782
1.77115
1.70447
1.60269
1.49434
1.39345
1.30247
1.23284
1.18323
1.15407
1.15188
0.0904624
0.0627387
0.0627153
0.0627885
0.0629933
0.0634945
0.0647335
0.0680225
0.0777423
0.112894
0.295105
1.50011
2.30122
1.89247
1.80658
1.77429
1.70782
1.60505
1.496
1.39272
1.29846
1.22498
1.17268
1.14026
1.13768
0.0904624
0.0627392
0.0627151
0.062786
0.0629804
0.0634453
0.0645845
0.0675515
0.0761626
0.106492
0.260111
1.2699
2.36686
1.89784
1.8049
1.77735
1.71121
1.60826
1.49872
1.39132
1.29285
1.21498
1.15909
1.12153
1.11772
0.0904625
0.062739
0.0627134
0.0627819
0.0629652
0.0633934
0.0644208
0.0670414
0.0744295
0.0995603
0.222158
1.01142
2.40781
1.90459
1.80426
1.77983
1.71396
1.61247
1.50253
1.3896
1.28554
1.20208
1.14213
1.09708
1.0912
0.0904627
0.062739
0.0627123
0.0627791
0.0629531
0.0633453
0.0642623
0.0665398
0.0727493
0.0928179
0.18312
0.752165
2.39335
1.92641
1.80833
1.77784
1.7158
1.61775
1.50713
1.38809
1.2769
1.18577
1.12159
1.06569
1.05596
0.0904629
0.0627392
0.0627118
0.0627781
0.0629465
0.0633104
0.0641207
0.0660818
0.0712338
0.0870276
0.151107
0.520418
2.24986
2.00461
1.82181
1.76959
1.71622
1.62366
1.51261
1.38694
1.26748
1.16696
1.09766
1.02695
1.01082
0.090463
0.0627394
0.0627123
0.0627789
0.0629467
0.0632957
0.064013
0.0656726
0.0699013
0.082192
0.127427
0.370676
1.85584
2.14833
1.83989
1.76113
1.71572
1.62986
1.51894
1.38728
1.2589
1.14443
1.0682
0.980608
0.948714
0.0904629
0.0627392
0.0627124
0.0627791
0.062948
0.0633
0.0639262
0.0653267
0.0687669
0.078266
0.110322
0.268878
1.31572
2.31068
1.86201
1.75643
1.71587
1.63667
1.52605
1.38856
1.25199
1.11845
1.03159
0.928066
0.863465
0.0904625
0.0627379
0.0627184
0.0627963
0.0630199
0.0635842
0.0650036
0.0688441
0.0805043
0.124983
0.368904
1.83127
2.17159
1.88175
1.80545
1.7644
1.69655
1.59673
1.48917
1.39108
1.30332
1.23679
1.1893
1.16258
1.16007
0.0904625
0.062738
0.0627177
0.0627948
0.0630148
0.0635686
0.0649557
0.068701
0.0800177
0.122791
0.355869
1.7867
2.19248
1.8857
1.80832
1.76872
1.70138
1.60091
1.49289
1.39358
1.30425
1.2366
1.18853
1.16115
1.15874
0.0904625
0.0627383
0.0627166
0.0627921
0.0630052
0.0635383
0.0648632
0.0684237
0.0790816
0.118583
0.328823
1.67854
2.23555
1.88885
1.80785
1.77117
1.7045
1.60271
1.49434
1.39345
1.30246
1.23282
1.1832
1.15404
1.15185
0.0904625
0.0627387
0.0627154
0.0627886
0.0629934
0.0634946
0.0647337
0.068023
0.0777435
0.112897
0.29512
1.50018
2.30117
1.89247
1.8066
1.77432
1.70785
1.60506
1.49601
1.39272
1.29846
1.22497
1.17265
1.14023
1.13765
0.0904625
0.0627393
0.0627152
0.0627861
0.0629805
0.0634454
0.0645847
0.067552
0.0761637
0.106495
0.260122
1.26996
2.36681
1.89785
1.80492
1.77738
1.71123
1.60828
1.49873
1.39132
1.29285
1.21496
1.15907
1.12151
1.1177
0.0904625
0.0627391
0.0627135
0.0627819
0.0629653
0.0633935
0.064421
0.0670418
0.0744304
0.0995629
0.222169
1.01146
2.40779
1.90459
1.80428
1.77986
1.71398
1.61248
1.50254
1.3896
1.28554
1.20206
1.14211
1.09706
1.09118
0.0904628
0.0627391
0.0627124
0.0627792
0.0629532
0.0633454
0.0642625
0.0665402
0.07275
0.0928198
0.183129
0.752217
2.39335
1.92641
1.80834
1.77787
1.71583
1.61777
1.50713
1.38808
1.2769
1.18576
1.12157
1.06568
1.05595
0.0904629
0.0627392
0.0627119
0.0627782
0.0629466
0.0633105
0.0641209
0.0660821
0.0712344
0.0870287
0.151111
0.520436
2.24989
2.00461
1.82182
1.76962
1.71625
1.62368
1.51261
1.38694
1.26747
1.16695
1.09764
1.02694
1.01081
0.090463
0.0627395
0.0627124
0.062779
0.0629468
0.0632958
0.0640132
0.0656728
0.0699018
0.0821928
0.127429
0.370683
1.85585
2.14833
1.83991
1.76115
1.71575
1.62987
1.51894
1.38727
1.25889
1.14442
1.06818
0.980599
0.948706
0.090463
0.0627392
0.0627125
0.0627791
0.0629481
0.0633002
0.0639264
0.0653269
0.0687674
0.0782667
0.110324
0.268882
1.31573
2.31069
1.86203
1.75645
1.71589
1.63668
1.52605
1.38855
1.25198
1.11843
1.03157
0.928055
0.863458
0.0904625
0.0627379
0.0627184
0.0627963
0.0630199
0.0635841
0.0650036
0.068844
0.0805039
0.12498
0.36889
1.83121
2.17161
1.88174
1.80543
1.76438
1.69652
1.5967
1.48915
1.39106
1.3033
1.23677
1.18928
1.16257
1.16006
0.0904625
0.062738
0.0627177
0.0627948
0.0630148
0.0635686
0.0649556
0.0687008
0.0800172
0.122789
0.355855
1.78665
2.1925
1.88569
1.80831
1.7687
1.70136
1.60089
1.49287
1.39356
1.30423
1.23658
1.18852
1.16114
1.15873
0.0904625
0.0627383
0.0627166
0.0627921
0.0630052
0.0635383
0.0648631
0.0684236
0.0790813
0.118582
0.328815
1.67851
2.23557
1.88884
1.80783
1.77116
1.70448
1.60269
1.49433
1.39343
1.30245
1.2328
1.18319
1.15402
1.15184
0.0904624
0.0627387
0.0627154
0.0627886
0.0629934
0.0634946
0.0647337
0.0680229
0.0777433
0.112897
0.295117
1.50016
2.30119
1.89247
1.80659
1.77431
1.70784
1.60505
1.49599
1.39271
1.29845
1.22496
1.17264
1.14022
1.13764
0.0904624
0.0627393
0.0627152
0.0627861
0.0629805
0.0634454
0.0645847
0.067552
0.0761638
0.106496
0.260124
1.26998
2.36683
1.89785
1.80492
1.77738
1.71123
1.60828
1.49872
1.39131
1.29284
1.21495
1.15906
1.1215
1.11769
0.0904625
0.0627391
0.0627135
0.0627819
0.0629653
0.0633935
0.064421
0.0670418
0.0744307
0.0995641
0.222176
1.01151
2.40782
1.90459
1.80428
1.77986
1.71399
1.61249
1.50254
1.3896
1.28553
1.20205
1.1421
1.09705
1.09117
0.0904627
0.0627391
0.0627124
0.0627792
0.0629532
0.0633453
0.0642625
0.0665402
0.0727502
0.0928214
0.183141
0.752327
2.39336
1.92639
1.80834
1.77787
1.71583
1.61778
1.50714
1.38809
1.27689
1.18575
1.12156
1.06567
1.05594
0.0904629
0.0627392
0.0627118
0.0627781
0.0629465
0.0633104
0.0641208
0.066082
0.0712346
0.0870303
0.151121
0.52051
2.24998
2.00453
1.8218
1.76962
1.71625
1.62368
1.51262
1.38695
1.26747
1.16694
1.09763
1.02693
1.0108
0.090463
0.0627394
0.0627123
0.0627789
0.0629467
0.0632956
0.064013
0.0656726
0.0699017
0.0821937
0.127436
0.370737
1.85602
2.14822
1.8399
1.76115
1.71574
1.62988
1.51896
1.38729
1.2589
1.14442
1.06818
0.980596
0.948703
0.0904629
0.0627392
0.0627124
0.062779
0.0629479
0.0633
0.0639262
0.0653267
0.0687672
0.0782672
0.110328
0.268908
1.31592
2.31056
1.86201
1.75644
1.71588
1.6367
1.52608
1.38858
1.252
1.11844
1.03157
0.928055
0.863457
0.0904625
0.062738
0.0627186
0.0627965
0.0630201
0.0635844
0.0650039
0.0688444
0.0805042
0.124979
0.368869
1.8311
2.17162
1.88177
1.80544
1.76439
1.69653
1.59669
1.48912
1.39103
1.30328
1.23677
1.18929
1.16259
1.16008
0.0904626
0.0627382
0.0627179
0.062795
0.063015
0.0635689
0.064956
0.0687012
0.0800174
0.122787
0.355831
1.78652
2.19254
1.88576
1.80834
1.76872
1.70136
1.60087
1.49284
1.39353
1.30421
1.23658
1.18853
1.16116
1.15875
0.0904625
0.0627384
0.0627168
0.0627922
0.0630054
0.0635384
0.0648632
0.0684235
0.07908
0.118574
0.328768
1.67831
2.23576
1.88893
1.80786
1.77118
1.70448
1.60268
1.4943
1.3934
1.30242
1.2328
1.1832
1.15404
1.15186
0.0904626
0.062739
0.0627157
0.0627889
0.0629937
0.0634949
0.0647339
0.0680226
0.0777407
0.112883
0.295043
1.49983
2.30166
1.89246
1.80657
1.77434
1.70782
1.60503
1.49597
1.39268
1.29842
1.22494
1.17264
1.14023
1.13765
0.0904625
0.0627394
0.0627153
0.0627862
0.0629806
0.0634455
0.0645846
0.0675512
0.0761608
0.106485
0.260074
1.2696
2.3675
1.89769
1.80489
1.77739
1.7112
1.60824
1.49869
1.39127
1.29281
1.21493
1.15906
1.12151
1.1177
0.0904628
0.0627394
0.0627139
0.0627823
0.0629657
0.0633941
0.0644217
0.0670436
0.0744348
0.0995743
0.222203
1.01159
2.40789
1.90451
1.80427
1.77988
1.71395
1.61244
1.50251
1.38956
1.28549
1.20203
1.14209
1.09705
1.09118
0.0904628
0.0627392
0.0627125
0.0627793
0.0629534
0.0633457
0.0642632
0.066542
0.0727553
0.0928381
0.183228
0.75294
2.39281
1.92625
1.80838
1.77789
1.71579
1.61772
1.50709
1.38805
1.27685
1.18572
1.12155
1.06567
1.05594
0.0904631
0.0627395
0.0627122
0.0627785
0.062947
0.0633111
0.0641217
0.0660838
0.0712383
0.0870405
0.151165
0.52076
2.24983
2.0044
1.82183
1.76961
1.71621
1.62362
1.51257
1.3869
1.26742
1.16691
1.09761
1.02693
1.0108
0.090463
0.0627395
0.0627124
0.062779
0.0629468
0.0632958
0.0640132
0.0656733
0.0699032
0.082198
0.127453
0.370823
1.85621
2.14799
1.83996
1.76115
1.71571
1.62982
1.51891
1.38723
1.25884
1.14438
1.06815
0.980588
0.948698
0.0904632
0.0627395
0.0627128
0.0627795
0.0629484
0.0633005
0.063927
0.0653278
0.0687688
0.0782696
0.110333
0.268929
1.31604
2.31057
1.86208
1.75641
1.71584
1.63665
1.52602
1.38851
1.25192
1.11839
1.03155
0.928042
0.86345
0.0904628
0.0627384
0.062719
0.062797
0.0630205
0.0635848
0.0650043
0.0688448
0.0805042
0.124978
0.368893
1.83164
2.17218
1.8818
1.8055
1.76444
1.69647
1.59659
1.48903
1.39097
1.30323
1.23673
1.18927
1.16257
1.16006
0.0904627
0.0627384
0.0627182
0.0627953
0.0630154
0.0635693
0.0649565
0.0687021
0.0800187
0.122788
0.355814
1.78703
2.19312
1.88573
1.80835
1.76874
1.70132
1.60079
1.49276
1.39347
1.30416
1.23654
1.1885
1.16114
1.15873
0.0904629
0.0627388
0.0627173
0.0627928
0.0630061
0.0635396
0.0648655
0.0684293
0.0790973
0.118644
0.329182
1.67969
2.23452
1.88903
1.80793
1.77118
1.70443
1.6026
1.49422
1.39334
1.30237
1.23276
1.18318
1.15403
1.15184
0.0904626
0.062739
0.0627158
0.062789
0.0629939
0.0634954
0.0647353
0.0680269
0.0777544
0.112937
0.29532
1.50123
2.30038
1.89239
1.80658
1.77423
1.70777
1.60497
1.49589
1.39261
1.29838
1.22492
1.17263
1.14022
1.13764
0.0904628
0.0627398
0.0627158
0.0627866
0.0629811
0.0634466
0.0645864
0.0675563
0.0761752
0.106531
0.260261
1.27082
2.36612
1.89792
1.80495
1.77732
1.71117
1.6082
1.49862
1.39122
1.29278
1.21492
1.15905
1.12151
1.1177
0.0904626
0.0627393
0.0627138
0.0627822
0.0629656
0.0633941
0.0644222
0.0670449
0.074439
0.0995909
0.222292
1.0121
2.40742
1.90462
1.80434
1.77984
1.71394
1.61241
1.50243
1.38951
1.28548
1.20203
1.14209
1.09706
1.09118
0.090463
0.0627394
0.0627129
0.0627796
0.0629537
0.063346
0.0642634
0.066542
0.0727545
0.0928329
0.183193
0.752604
2.39324
1.92641
1.80842
1.7779
1.71578
1.61768
1.50704
1.38802
1.27685
1.18574
1.12156
1.06568
1.05595
0.090463
0.0627394
0.0627121
0.0627784
0.0629468
0.0633108
0.0641213
0.0660828
0.0712357
0.0870318
0.151123
0.520497
2.25012
2.00476
1.82183
1.76962
1.71618
1.62361
1.51255
1.38689
1.26744
1.16693
1.09763
1.02694
1.01082
0.0904632
0.0627397
0.0627128
0.0627794
0.0629472
0.0632964
0.0640139
0.0656736
0.0699028
0.0821941
0.127429
0.37066
1.85582
2.14831
1.83987
1.76114
1.7157
1.62983
1.5189
1.38723
1.25887
1.14441
1.06818
0.98061
0.948717
0.090463
0.0627394
0.0627127
0.0627794
0.0629483
0.0633005
0.0639269
0.0653275
0.0687681
0.0782676
0.110324
0.268867
1.31559
2.31081
1.86208
1.75647
1.71587
1.63667
1.52601
1.38851
1.25196
1.11843
1.03158
0.928068
0.86347
0.0904624
0.0627381
0.0627187
0.0627966
0.0630201
0.0635842
0.0650029
0.068841
0.0804913
0.124915
0.368486
1.8298
2.17243
1.88196
1.8055
1.76446
1.69652
1.59665
1.48911
1.39106
1.30333
1.23686
1.18942
1.16272
1.16021
0.0904624
0.0627382
0.062718
0.0627951
0.063015
0.0635687
0.064955
0.0686975
0.0800031
0.122716
0.355344
1.78512
2.19381
1.88585
1.80837
1.76879
1.70137
1.60085
1.49283
1.39356
1.30426
1.23667
1.18865
1.16128
1.15888
0.0904624
0.0627385
0.062717
0.0627924
0.0630055
0.0635384
0.0648626
0.0684207
0.0790683
0.118516
0.328373
1.67665
2.23706
1.88897
1.80791
1.77123
1.70449
1.60266
1.49429
1.39342
1.30247
1.23289
1.18332
1.15416
1.15198
0.0904625
0.0627391
0.0627159
0.0627891
0.0629939
0.0634954
0.0647344
0.0680248
0.0777455
0.112896
0.29508
1.49981
2.3012
1.89288
1.80673
1.77436
1.70781
1.60501
1.49595
1.39269
1.29846
1.22503
1.17275
1.14035
1.13777
0.0904624
0.0627395
0.0627156
0.0627864
0.0629809
0.063446
0.0645853
0.0675528
0.0761643
0.106493
0.260095
1.26981
2.3665
1.89823
1.80504
1.77738
1.71116
1.60819
1.49866
1.39127
1.29285
1.21501
1.15916
1.12162
1.11781
0.0904627
0.0627395
0.0627141
0.0627825
0.0629658
0.0633942
0.0644213
0.0670417
0.0744275
0.0995466
0.22208
1.011
2.40801
1.90475
1.80432
1.77984
1.7139
1.61237
1.50245
1.38954
1.28553
1.2021
1.14219
1.09715
1.09128
0.0904628
0.0627394
0.062713
0.0627797
0.0629537
0.0633461
0.0642629
0.0665405
0.0727497
0.0928109
0.183063
0.751772
2.39414
1.92656
1.80836
1.77786
1.71575
1.61763
1.50701
1.388
1.27688
1.18579
1.12164
1.06576
1.05602
0.0904632
0.0627399
0.0627129
0.0627792
0.0629476
0.0633118
0.0641221
0.0660848
0.071239
0.0870375
0.151136
0.520593
2.25041
2.00456
1.82194
1.76964
1.71614
1.62349
1.51245
1.38683
1.26744
1.16697
1.09769
1.027
1.01087
0.090463
0.0627397
0.0627128
0.0627794
0.0629473
0.0632965
0.0640142
0.0656746
0.0699055
0.0822027
0.127469
0.370925
1.8567
2.14825
1.83999
1.76113
1.71562
1.62968
1.51877
1.38716
1.25885
1.14442
1.06822
0.980647
0.948755
0.0904633
0.06274
0.0627135
0.0627803
0.0629492
0.0633015
0.0639283
0.06533
0.0687728
0.0782774
0.110353
0.269011
1.31668
2.31047
1.86209
1.75642
1.71577
1.63648
1.52587
1.38844
1.25193
1.11843
1.0316
0.928096
0.863495
0.0904632
0.0627398
0.062714
0.062781
0.0629505
0.0633057
0.0638889
0.0650897
0.0678326
0.0750677
0.0976235
0.197743
0.812667
2.36361
1.90032
1.75779
1.71675
1.64178
1.53214
1.38975
1.24882
1.08997
0.98493
0.854577
0.678935
0.0904631
0.0627399
0.0627137
0.0627803
0.062948
0.0632952
0.0639281
0.0649248
0.0671129
0.0726761
0.0885682
0.148874
0.475918
2.18477
2.03676
1.77893
1.71172
1.64159
1.53701
1.39119
1.24725
1.07287
0.942892
0.790817
0.614901
0.090463
0.0627398
0.0627134
0.0627797
0.0629464
0.0632879
0.0639406
0.0648414
0.0666795
0.0710895
0.0826615
0.120524
0.29876
1.46159
2.22199
1.81792
1.70087
1.64063
1.53635
1.39621
1.24895
1.07348
0.924253
0.768256
0.617721
0.0904631
0.0627399
0.0627134
0.0627797
0.062946
0.0632865
0.0639374
0.0648597
0.0664494
0.0700002
0.0785899
0.103806
0.205881
0.777735
2.27274
1.90549
1.70006
1.63736
1.53685
1.40414
1.25477
1.07743
0.926125
0.772241
0.631511
0.0904631
0.0627399
0.0627134
0.0627795
0.0629452
0.0632834
0.0639466
0.0648303
0.066426
0.0692906
0.0756975
0.0931003
0.152004
0.434058
2.03919
2.09716
1.71176
1.61451
1.54004
1.41943
1.26764
1.08889
0.934797
0.785611
0.662585
0.0904632
0.06274
0.0627135
0.0627796
0.0629452
0.0632824
0.0639509
0.0648114
0.0663664
0.068882
0.074057
0.0867388
0.123162
0.267484
1.1279
2.17746
1.75677
1.57748
1.54252
1.43891
1.292
1.11415
0.955498
0.814762
0.706742
0.0904632
0.06274
0.0627135
0.0627796
0.0629452
0.0632828
0.0639473
0.064828
0.0663112
0.068993
0.0730804
0.0824285
0.107641
0.188418
0.563043
2.08111
1.92533
1.5738
1.55242
1.46016
1.32335
1.15609
0.996429
0.861872
0.755545
0.0904632
0.06274
0.0627135
0.0627797
0.0629454
0.0632832
0.0639473
0.064825
0.066316
0.0689537
0.0729671
0.0803515
0.0979976
0.146743
0.332242
1.37864
2.01354
1.5761
1.55665
1.4759
1.35917
1.20244
1.05127
0.913994
0.80484
0.0904632
0.06274
0.0627135
0.0627797
0.0629454
0.063283
0.0639475
0.0648237
0.0662755
0.0690226
0.0729998
0.0792853
0.0928578
0.126025
0.226016
0.640198
1.89444
1.66744
1.55429
1.49419
1.39172
1.24936
1.10478
0.966014
0.855084
0.0904633
0.0627401
0.0627136
0.0627797
0.0629454
0.0632832
0.0639472
0.064826
0.0662654
0.0690588
0.0729833
0.0793377
0.0923836
0.116118
0.174112
0.364186
1.27029
1.70399
1.57367
1.49891
1.41604
1.29129
1.15269
1.02203
0.906362
0.0904632
0.06274
0.0627136
0.0627797
0.0629455
0.0632831
0.0639473
0.064828
0.0662611
0.0690699
0.0729501
0.0794016
0.0928181
0.113384
0.150401
0.248738
0.590148
1.5526
1.57477
1.5115
1.43255
1.32596
1.19722
1.07432
0.961066
0.0904633
0.0627401
0.0627136
0.0627798
0.0629454
0.063283
0.0639478
0.0648274
0.066266
0.0690538
0.0729842
0.0792646
0.0922905
0.113716
0.147212
0.200251
0.344637
0.899526
1.50304
1.50217
1.44432
1.35042
1.23792
1.12031
1.01426
0.0904632
0.0627401
0.0627136
0.0627797
0.0629454
0.063283
0.0639478
0.0648271
0.0662668
0.0690488
0.0730005
0.0791838
0.091895
0.115012
0.145374
0.188713
0.25745
0.448866
1.08951
1.43609
1.42917
1.37019
1.27161
1.16204
1.06229
0.0904632
0.06274
0.0627136
0.0627797
0.0629455
0.0632831
0.0639478
0.0648276
0.066266
0.0690489
0.0730006
0.0791808
0.0918646
0.115069
0.145003
0.190424
0.223548
0.301006
0.524698
1.12014
1.36115
1.3489
1.29755
1.20122
1.10589
0.0904632
0.0627401
0.0627136
0.0627797
0.0629454
0.0632831
0.0639476
0.0648267
0.0662669
0.0690496
0.0730035
0.079185
0.0918765
0.11501
0.14541
0.188939
0.226263
0.255605
0.327956
0.539135
1.07178
1.27534
1.27457
1.22326
1.13717
0.0904633
0.0627401
0.0627137
0.0627798
0.0629455
0.0632831
0.0639478
0.0648268
0.0662673
0.0690498
0.0730035
0.0791846
0.0918763
0.114997
0.145411
0.188891
0.226238
0.247974
0.273982
0.339041
0.521854
0.986854
1.19176
1.19711
1.14873
0.0904633
0.0627401
0.0627136
0.0627797
0.0629454
0.0632831
0.0639477
0.0648264
0.0662669
0.0690487
0.073002
0.079182
0.0918727
0.114989
0.145416
0.188881
0.226273
0.248084
0.261501
0.283262
0.337391
0.484318
0.867622
1.10267
1.11709
0.0904633
0.0627401
0.0627137
0.0627798
0.0629455
0.0632833
0.0639476
0.0648259
0.0662674
0.0690497
0.0730047
0.0791849
0.0918751
0.115005
0.145443
0.188898
0.226253
0.248085
0.260701
0.272014
0.287652
0.326376
0.432265
0.717868
0.994272
0.0904632
0.06274
0.0627135
0.0627797
0.0629454
0.0632831
0.0639473
0.0648263
0.0662653
0.0690475
0.0730002
0.0791782
0.0918642
0.114992
0.145423
0.188876
0.226233
0.24808
0.260574
0.271805
0.277444
0.287107
0.311638
0.374923
0.539586
0.0904634
0.0627402
0.0627138
0.06278
0.0629457
0.0632836
0.0639475
0.0648257
0.0662676
0.0690499
0.0730053
0.0791848
0.0918735
0.115005
0.145443
0.188896
0.226245
0.248082
0.260576
0.271718
0.276876
0.281753
0.287297
0.298614
0.326961
0.0904632
0.0627401
0.0627136
0.0627797
0.0629454
0.063283
0.0639475
0.0648263
0.0662669
0.0690491
0.0730026
0.0791831
0.091874
0.11499
0.14541
0.18886
0.226226
0.24807
0.260585
0.271722
0.276876
0.281236
0.284115
0.284825
0.288262
0.0904634
0.0627403
0.0627139
0.0627801
0.0629458
0.0632836
0.0639479
0.0648263
0.0662682
0.0690514
0.0730067
0.0791853
0.0918705
0.115002
0.145426
0.188859
0.226214
0.248078
0.26059
0.271723
0.276884
0.281213
0.283082
0.282499
0.282811
0.0904632
0.0627401
0.0627136
0.0627797
0.0629454
0.063283
0.0639474
0.0648262
0.0662668
0.0690488
0.073002
0.0791822
0.0918725
0.114987
0.145403
0.188852
0.226219
0.248066
0.260587
0.271723
0.276883
0.281219
0.28295
0.282217
0.282167
0.0904634
0.0627403
0.0627139
0.0627801
0.0629458
0.0632837
0.0639477
0.064826
0.0662682
0.069051
0.0730065
0.079186
0.0918745
0.115003
0.145433
0.188879
0.226227
0.248069
0.26057
0.271694
0.276851
0.281182
0.282899
0.28215
0.282054
0.0904631
0.0627399
0.0627135
0.0627796
0.0629454
0.063283
0.0639471
0.0648259
0.066265
0.0690469
0.0729994
0.0791769
0.0918621
0.114988
0.145414
0.188865
0.226224
0.248073
0.260561
0.271682
0.27683
0.281162
0.282882
0.282131
0.282028
0.0904634
0.0627403
0.0627139
0.06278
0.0629458
0.0632836
0.0639476
0.0648259
0.066268
0.0690505
0.073006
0.0791852
0.0918734
0.115002
0.145433
0.188885
0.22624
0.248083
0.260582
0.271703
0.276858
0.281186
0.282899
0.28215
0.282044
0.0904632
0.06274
0.0627135
0.0627797
0.0629453
0.063283
0.0639474
0.0648259
0.0662667
0.0690482
0.0730015
0.0791811
0.0918708
0.114984
0.145401
0.188858
0.226229
0.248076
0.260593
0.271725
0.276883
0.281215
0.282926
0.282174
0.282068
0.0904634
0.0627402
0.0627138
0.0627799
0.0629457
0.0632834
0.0639477
0.0648259
0.0662675
0.0690502
0.0730052
0.0791835
0.0918685
0.115001
0.145433
0.188871
0.226224
0.248081
0.260586
0.271715
0.276876
0.281204
0.282917
0.282167
0.282058
0.0904632
0.06274
0.0627135
0.0627796
0.0629453
0.0632829
0.0639474
0.0648261
0.0662666
0.0690485
0.0730015
0.0791815
0.0918714
0.114986
0.145402
0.188851
0.226211
0.24805
0.260569
0.271703
0.276864
0.281205
0.282919
0.282166
0.282063
0.0904633
0.0627401
0.0627137
0.0627798
0.0629455
0.0632832
0.0639476
0.0648261
0.0662669
0.0690491
0.0730033
0.0791833
0.0918729
0.115
0.145435
0.188878
0.22622
0.248056
0.260554
0.271679
0.276836
0.281174
0.282893
0.282143
0.282041
0.0904631
0.0627399
0.0627134
0.0627796
0.0629453
0.0632828
0.0639471
0.0648262
0.0662646
0.0690462
0.0729976
0.0791751
0.091861
0.114981
0.145406
0.188864
0.226226
0.248079
0.260573
0.271694
0.276843
0.281176
0.282895
0.282143
0.28204
0.0904632
0.06274
0.0627135
0.0627796
0.0629453
0.0632829
0.0639476
0.0648268
0.0662666
0.069048
0.0730008
0.0791814
0.0918744
0.114986