/*--------------------------------*- C++ -*----------------------------------*\
| =========                 |                                                 |
| \\      /  F ield         | OpenFOAM: The Open Source CFD Toolbox           |
|  \\    /   O peration     | Version:  4.1                                   |
|   \\  /    A nd           | Web:      www.OpenFOAM.org                      |
|    \\/     M anipulation  |                                                 |
\*---------------------------------------------------------------------------*/
FoamFile
{
    version     2.0;
    format      ascii;
    class       surfaceScalarField;
    location    "0.38";
    object      phi;
}
// * * * * * * * * * * * * * * * * * * * * * * * * * * * * * * * * * * * * * //

dimensions      [1 0 -1 0 0 0 0];

internalField   nonuniform List<scalar> 
150500
(
0.00202801
-1.68313e-10
-1.93357e-12
0.00202995
-5.16809e-10
-1.61143e-12
0.00203215
-1.95567e-10
-1.82565e-12
0.0020333
5.49429e-10
-1.88721e-12
0.00203365
5.80093e-09
-2.15201e-12
0.0020311
2.56101e-08
-3.0361e-12
0.00201891
9.92971e-08
-5.94837e-12
0.00198273
3.53448e-07
-1.52695e-11
0.00188072
1.31042e-06
-5.27699e-11
0.00163289
6.02023e-06
-2.65759e-10
0.000344581
4.32127e-05
-1.87679e-09
-0.00506209
0.000518747
-8.353e-09
-0.00409787
0.000623756
1.33624e-09
-0.00352074
0.000485783
9.82789e-10
-0.00294873
0.000429479
5.24565e-10
-0.0024805
0.000386083
6.13563e-10
-0.00214062
0.000382174
9.8553e-10
-0.00192418
0.000389916
9.72129e-10
-0.00167687
0.000389354
7.94873e-10
-0.00145001
0.000387338
6.94971e-10
-0.00123366
0.000389569
6.60896e-10
-0.000983977
0.000389679
6.777e-10
-0.000694946
0.000389041
7.06347e-10
-0.000383109
0.000403727
7.13924e-10
0.000417309
7.03775e-10
0.00202801
-1.95584e-10
-1.37354e-12
0.00202995
-1.09164e-09
-1.09542e-12
0.00203217
-8.86135e-10
-1.21681e-12
0.00203336
3.76447e-10
-1.2869e-12
0.00203378
9.62243e-09
-1.56436e-12
0.00203138
4.62957e-08
-2.45314e-12
0.00201966
1.89514e-07
-5.18356e-12
0.00198446
6.8164e-07
-1.37979e-11
0.00188472
2.51856e-06
-4.62574e-11
0.00164383
1.12073e-05
-2.18008e-10
0.000418738
7.74186e-05
-1.44894e-09
-0.00493628
0.000952784
-8.03015e-09
-0.00407324
0.00128643
6.21404e-10
-0.00350744
0.000974885
1.27947e-09
-0.00293177
0.000862265
6.56989e-10
-0.00245342
0.000774777
7.03488e-10
-0.00211211
0.000765679
8.3815e-10
-0.00189766
0.000779657
8.66699e-10
-0.00165203
0.000779336
7.85627e-10
-0.00142806
0.000775108
6.98134e-10
-0.00121587
0.000778138
6.48519e-10
-0.000971656
0.000779325
6.60963e-10
-0.000689244
0.000779525
6.88053e-10
-0.000379692
0.000803766
6.93018e-10
0.000834177
6.87214e-10
0.00202801
-3.92325e-10
-2.08436e-12
0.00202994
-1.89965e-09
-1.50957e-12
0.00203222
-2.14235e-09
-1.58962e-12
0.00203348
-1.09792e-09
-1.7834e-12
0.00203406
8.39883e-09
-2.327e-12
0.00203196
5.7055e-08
-4.88169e-12
0.00202122
2.53515e-07
-1.10314e-11
0.00198789
9.54944e-07
-3.17305e-11
0.00189239
3.51197e-06
-1.06672e-10
0.00166683
1.53744e-05
-4.73552e-10
0.000658223
0.000101723
-3.08362e-09
-0.00467338
0.00128225
-1.18858e-08
-0.00402771
0.00198702
8.58483e-09
-0.00347328
0.00146488
7.01507e-10
-0.00289758
0.00129904
3.59784e-10
-0.00240508
0.00116919
6.42501e-10
-0.00205942
0.00114818
6.61692e-10
-0.00184639
0.00116693
6.58941e-10
-0.00160555
0.00117063
7.46276e-10
-0.00138597
0.00116311
6.83024e-10
-0.00117936
0.00116491
6.16823e-10
-0.000944947
0.00116626
6.19644e-10
-0.000671625
0.00116699
6.49301e-10
-0.000371666
0.00120092
6.49137e-10
0.00124998
6.54916e-10
0.00202801
-2.27417e-10
-5.27137e-13
0.00202993
-1.25209e-09
1.02271e-13
0.00203229
-1.43518e-09
3.69885e-13
0.0020336
5.31492e-10
2.87549e-13
0.00203445
1.23462e-08
-1.23726e-13
0.00203299
6.68899e-08
-1.95659e-12
0.00202357
2.94258e-07
-6.54351e-12
0.00199283
1.10204e-06
-2.3431e-11
0.0019032
4.04e-06
-8.23354e-11
0.00169616
1.73163e-05
-3.56201e-10
0.000916891
0.000110136
-2.02272e-09
-0.00406292
0.00140304
-1.11955e-08
-0.00395736
0.00277045
8.20913e-09
-0.0034283
0.00196626
1.6867e-09
-0.00284794
0.0017444
6.85129e-10
-0.00233691
0.00157258
1.1244e-09
-0.0019821
0.00153044
5.32933e-10
-0.00176853
0.00154989
4.03933e-10
-0.00153282
0.00156386
6.09009e-10
-0.00131936
0.0015514
6.30379e-10
-0.00112292
0.00154891
5.50264e-10
-0.000902181
0.0015495
5.46003e-10
-0.000642284
0.00155083
5.90293e-10
-0.000356082
0.00159709
5.85695e-10
0.00167017
6.04761e-10
0.00202801
-1.94156e-10
-1.32316e-12
0.00202993
1.13526e-09
-5.16932e-13
0.00203237
3.81743e-09
-1.17492e-13
0.00203371
8.19185e-09
-1.95246e-13
0.00203493
2.47628e-08
-6.30203e-13
0.00203438
8.68697e-08
-2.91009e-12
0.00202648
3.30335e-07
-7.58284e-12
0.00199903
1.15603e-06
-2.50939e-11
0.00191754
4.18291e-06
-8.06226e-11
0.00172641
1.77781e-05
-2.89803e-10
0.00107892
0.000110854
-1.31322e-09
-0.00320781
0.00134333
-8.74002e-09
-0.00388968
0.00359745
8.57798e-09
-0.00338975
0.00246896
-1.07145e-10
-0.00279141
0.00219598
2.47723e-10
-0.00225655
0.00199339
7.09637e-10
-0.00188575
0.00191179
3.14696e-10
-0.00166561
0.00192554
2.32623e-10
-0.00143683
0.00195689
4.4222e-10
-0.00123318
0.00193925
4.94345e-10
-0.00104663
0.0019316
4.47283e-10
-0.000842488
0.00192999
4.62353e-10
-0.000600703
0.00193101
5.24641e-10
-0.000332289
0.00199357
5.14644e-10
0.00209736
5.29723e-10
0.00202801
-7.96553e-10
1.36866e-13
0.00202992
3.71334e-10
1.02574e-12
0.00203238
2.69246e-09
1.49579e-12
0.0020339
6.12637e-09
1.45641e-12
0.00203552
1.91152e-08
1.15469e-12
0.00203561
7.36869e-08
1.02419e-12
0.00202923
2.99852e-07
-2.25827e-12
0.00200662
1.08626e-06
-8.61875e-12
0.0019387
3.96722e-06
-3.62064e-11
0.00176153
1.65838e-05
-1.54954e-10
0.00117698
9.90953e-05
-8.63951e-10
-0.00224788
0.00109618
-5.09137e-09
-0.00387467
0.00443068
3.74651e-09
-0.00336287
0.00300322
8.55416e-11
-0.00272453
0.00264615
-6.7094e-12
-0.00216273
0.00242628
4.37577e-10
-0.00177277
0.00228829
4.95134e-11
-0.00153799
0.00228979
-7.62265e-12
-0.00131604
0.00234904
2.71338e-10
-0.00112621
0.00232825
3.12415e-10
-0.000951115
0.00231355
3.13362e-10
-0.000763845
0.00231281
3.68253e-10
-0.000543483
0.00231113
4.31873e-10
-0.000296351
0.00239167
4.31111e-10
0.00254077
4.53177e-10
0.00202802
-6.41249e-10
-1.22148e-13
0.00202991
-5.69607e-10
8.62362e-13
0.00203239
-2.30718e-12
1.41437e-12
0.00203402
6.84534e-10
1.43935e-12
0.00203609
5.31821e-09
1.43976e-12
0.00203723
3.57337e-08
2.42273e-12
0.00203184
2.21361e-07
2.43736e-12
0.00201478
9.29708e-07
4.81468e-12
0.00196217
3.54376e-06
9.29536e-12
0.00180833
1.44229e-05
4.46138e-12
0.00134888
7.8501e-05
-3.65527e-11
-0.00152324
0.000754104
3.14745e-10
-0.00416786
0.00509933
-1.21021e-09
-0.00335518
0.00367226
-1.41932e-10
-0.00264595
0.00312628
-1.82797e-11
-0.00206288
0.00284416
8.36257e-11
-0.00164405
0.00266181
3.39464e-11
-0.00138363
0.00264876
-1.32906e-10
-0.0011681
0.00273809
5.79941e-11
-0.000993114
0.00271731
8.04607e-11
-0.00083127
0.00269104
1.39251e-10
-0.0006638
0.00269205
2.36762e-10
-0.000464914
0.00268862
3.36577e-10
-0.00024289
0.00279335
3.4295e-10
0.00301554
3.51923e-10
0.00202802
-2.10868e-10
6.99295e-13
0.0020299
-8.12111e-10
1.76696e-12
0.0020324
-1.6661e-09
2.79211e-12
0.00203405
-2.72437e-09
2.87716e-12
0.00203654
-4.55269e-09
3.02743e-12
0.00203895
8.82636e-10
4.33065e-12
0.00203485
1.40707e-07
5.02029e-12
0.00202284
7.58676e-07
1.11901e-11
0.00198237
3.04183e-06
2.02281e-11
0.00185406
1.20653e-05
4.25995e-11
0.00152731
5.94192e-05
1.47468e-10
-0.000185579
0.000472436
8.5572e-10
-0.00445531
0.00471909
-1.15689e-09
-0.00332258
0.0046975
-9.42433e-10
-0.00256054
0.00363507
2.40185e-11
-0.00194757
0.00327358
-9.91635e-11
-0.00150061
0.00303297
1.19587e-10
-0.0012032
0.00300925
-2.58729e-10
-0.0009917
0.00311762
-2.32193e-10
-0.000831259
0.00310251
-1.65715e-10
-0.000681842
0.00306167
-3.62213e-11
-0.00053226
0.0030648
1.12172e-10
-0.000356835
0.00306512
2.36468e-10
-0.000161413
0.00318725
2.47825e-10
0.00353473
2.60714e-10
0.00202802
-2.06308e-10
4.75712e-13
0.00202991
-2.62768e-10
1.85518e-12
0.0020324
-1.08922e-09
2.7634e-12
0.002034
-2.13819e-09
2.78836e-12
0.00203676
-4.67511e-09
2.77387e-12
0.00204027
-1.38075e-08
3.58084e-12
0.00203755
8.80004e-08
4.62714e-12
0.00203028
5.91029e-07
8.19885e-12
0.00200064
2.52388e-06
1.6515e-11
0.00189851
9.71645e-06
3.69231e-11
0.00164083
4.36766e-05
1.20497e-10
0.000493003
0.000301968
6.57567e-10
-0.0040651
0.00369633
1.82703e-09
-0.00326887
0.00590723
1.14516e-10
-0.00249169
0.00415857
4.83692e-10
-0.00182548
0.00372099
3.19083e-10
-0.00133888
0.00342145
1.49932e-10
-0.00100214
0.00337369
-2.29385e-10
-0.000785936
0.00347927
-3.54814e-10
-0.000635776
0.00347398
-4.03076e-10
-0.000498513
0.00342398
-2.32654e-10
-0.000360204
0.00343037
-4.51913e-11
-0.000213947
0.00345051
1.31442e-10
-2.81741e-05
0.00354921
1.58143e-10
0.00414132
1.71992e-10
0.00202802
1.26926e-12
-2.7308e-10
0.00202991
3.10975e-12
-1.5492e-10
0.0020324
4.51993e-12
-8.72569e-10
0.00203398
4.60108e-12
-1.94263e-09
0.00203671
4.73806e-12
-3.92498e-09
0.00204003
5.83102e-12
-9.3762e-09
0.00203947
8.62936e-12
2.12098e-08
0.0020377
1.44804e-11
4.19454e-07
0.00201736
2.58061e-11
1.95163e-06
0.00193482
4.78549e-11
7.40159e-06
0.00173112
1.15163e-10
3.14325e-05
0.00110465
4.26507e-10
0.000196423
-0.00270384
2.77644e-09
0.00233121
-0.00318861
-6.23679e-10
0.00719114
-0.0024301
5.07347e-10
0.0047098
-0.00170286
3.11877e-10
0.00415334
-0.00116412
1.49814e-10
0.00385781
-0.000784537
-2.46295e-10
0.0037459
-0.000554396
-5.22423e-10
0.00381049
-0.000403084
-4.54879e-10
0.00384043
-0.000276663
-3.89113e-10
0.00377372
-0.000132685
-1.47827e-10
0.00377357
-1.01851e-05
4.68117e-11
0.00382995
0.000139558
1.10567e-10
0.00390057
1.1006e-10
0.00486197
0.00202801
2.03329e-10
1.09283e-12
0.00202995
-8.92371e-12
1.72382e-12
0.00203215
7.92993e-10
2.26929e-12
0.00203329
2.2218e-09
2.28996e-12
0.00203364
8.22028e-09
2.29046e-12
0.00203109
2.91825e-08
2.31767e-12
0.00201888
1.04122e-07
1.90907e-12
0.00198266
3.59617e-07
1.64028e-12
0.00188054
1.31846e-06
-2.83815e-14
0.00163243
6.03326e-06
-2.24967e-12
0.000342465
4.32772e-05
1.12212e-10
-0.00506441
0.000518266
2.60755e-09
-0.0040952
0.000621942
3.55228e-09
-0.00351839
0.000486405
1.17944e-10
-0.00294779
0.000430352
2.00696e-10
-0.00248037
0.000386502
2.07568e-10
-0.00214087
0.000382245
-2.55967e-10
-0.00192444
0.000389942
-4.55141e-10
-0.00167704
0.000389356
-4.15861e-10
-0.00145013
0.000387293
-2.9993e-10
-0.00123374
0.000389508
-2.60157e-10
-0.000984015
0.000389618
-1.96659e-10
-0.000694949
0.000388975
-1.30829e-10
-0.000383054
0.000403641
-8.82007e-11
0.000417264
-7.87439e-11
0.00202801
2.29802e-11
4.87349e-13
0.00202995
-5.86701e-10
1.15854e-12
0.00203217
3.18981e-10
1.59873e-12
0.00203336
2.27287e-09
1.64493e-12
0.00203378
1.24371e-08
1.76314e-12
0.00203137
5.01801e-08
2.1063e-12
0.00201965
1.93323e-07
2.54888e-12
0.00198443
6.80991e-07
3.43092e-12
0.00188465
2.49633e-06
5.50928e-12
0.00164363
1.10758e-05
7.43172e-12
0.00041781
7.64498e-05
-7.42878e-11
-0.00493026
0.000944111
2.38692e-09
-0.0040673
0.00128821
3.55397e-09
-0.00350435
0.000977995
-1.30667e-10
-0.00293062
0.000864714
6.39813e-11
-0.00245325
0.000776145
9.60367e-11
-0.00211237
0.0007659
-1.78754e-10
-0.00189798
0.000779686
-4.00334e-10
-0.00165227
0.000779294
-4.03082e-10
-0.00142823
0.000774985
-3.02346e-10
-0.00121597
0.000778002
-2.48111e-10
-0.000971723
0.000779199
-1.83798e-10
-0.000689259
0.000779371
-1.20239e-10
-0.000379615
0.000803555
-8.04435e-11
0.000834123
-7.22616e-11
0.00202801
2.96366e-10
1.75014e-12
0.00202994
-6.51596e-10
2.28759e-12
0.00203221
-2.40065e-10
2.87612e-12
0.00203347
1.50788e-09
3.09611e-12
0.00203405
1.30789e-08
3.59662e-12
0.00203193
6.42939e-08
6.0274e-12
0.00202116
2.64405e-07
1.10766e-11
0.00198777
9.71027e-07
2.72418e-11
0.00189214
3.54197e-06
8.06939e-11
0.0016661
1.54546e-05
3.23863e-10
0.000650869
0.000102224
1.99172e-09
-0.00468795
0.00128604
6.72035e-09
-0.00403338
0.00198357
-5.98285e-09
-0.00347623
0.00146509
3.84002e-10
-0.00289922
0.00129974
3.25878e-10
-0.00240626
0.00116906
-7.18582e-12
-0.00206019
0.00114782
-2.33379e-10
-0.00184686
0.00116655
-3.65669e-10
-0.00160584
0.00117032
-3.99665e-10
-0.00138613
0.00116283
-3.06377e-10
-0.00117942
0.00116468
-2.29222e-10
-0.000944961
0.00116606
-1.53626e-10
-0.000671605
0.00116677
-9.50329e-11
-0.000371594
0.00120063
-6.22994e-11
0.0012499
-5.69623e-11
0.00202801
-1.58521e-11
-2.02226e-13
0.00202993
-5.51567e-10
1.12036e-13
0.00203229
1.38976e-10
2.70389e-13
0.0020336
2.42107e-09
3.15602e-13
0.00203445
1.49715e-08
6.36781e-13
0.00203297
7.05903e-08
2.74338e-12
0.00202354
3.00144e-07
6.83695e-12
0.00199277
1.11104e-06
2.01601e-11
0.00190307
4.05398e-06
6.2694e-11
0.00169587
1.73567e-05
2.4694e-10
0.000914912
0.000110444
1.29523e-09
-0.00406491
0.00140728
6.66887e-09
-0.0039577
0.00276895
-6.11819e-09
-0.00343123
0.00196807
-3.07964e-10
-0.00285034
0.00174419
2.4979e-11
-0.00233859
0.00157161
-5.11908e-10
-0.00198299
0.0015294
-2.60307e-10
-0.00176905
0.0015491
-3.06367e-10
-0.00153312
0.00156317
-3.85756e-10
-0.0013195
0.00155092
-3.08402e-10
-0.00112295
0.00154857
-1.83944e-10
-0.000902161
0.00154924
-1.06171e-10
-0.000642247
0.0015506
-6.10435e-11
-0.000356015
0.0015968
-3.72458e-11
0.00166999
-3.35214e-11
0.00202801
7.31469e-11
1.77172e-12
0.00202993
1.92411e-09
1.97232e-12
0.00203236
5.25005e-09
2.17133e-12
0.00203372
1.04182e-08
2.26978e-12
0.00203492
2.79402e-08
2.64785e-12
0.00203434
9.19582e-08
5.4017e-12
0.00202641
3.39042e-07
8.593e-12
0.00199893
1.17645e-06
2.41414e-11
0.00191741
4.23574e-06
6.70955e-11
0.00172621
1.7937e-05
2.16455e-10
0.00107794
0.000111588
8.80443e-10
-0.00322047
0.00135049
5.87251e-09
-0.00389657
0.00360231
-6.40277e-09
-0.00339509
0.00246571
1.20023e-09
-0.00279462
0.00219235
3.70953e-10
-0.00225839
0.00198996
-3.11573e-10
-0.00188671
0.00190964
-1.6537e-10
-0.00166607
0.00192417
-2.73564e-10
-0.00143707
0.00195579
-3.68763e-10
-0.00123326
0.00193854
-2.92273e-10
-0.00104662
0.00193116
-1.27694e-10
-0.000842442
0.00192973
-5.52274e-11
-0.000600655
0.00193079
-2.26651e-11
-0.000332215
0.00199328
-9.18033e-12
0.00209707
-8.86766e-12
0.00202801
-5.12319e-10
-6.79397e-13
0.00202992
8.83895e-10
-5.37688e-13
0.00203238
3.628e-09
-4.67433e-13
0.00203389
7.63116e-09
-4.10304e-13
0.00203551
2.14617e-08
-1.6435e-13
0.00203562
7.75786e-08
-2.96028e-14
0.00202923
3.06911e-07
2.43901e-12
0.00200657
1.10065e-06
6.16568e-12
0.00193855
4.00488e-06
2.08567e-11
0.00176148
1.67087e-05
7.78907e-11
0.0011768
9.97476e-05
4.15738e-10
-0.00225
0.00110185
2.40624e-09
-0.003873
0.004439
-2.18419e-09
-0.00336383
0.00300092
6.07413e-10
-0.00272558
0.00264313
3.97994e-10
-0.00216343
0.00242277
-1.78438e-10
-0.00177328
0.00228562
-5.87446e-11
-0.00153823
0.00228802
-2.21936e-10
-0.00131609
0.00234769
-4.05593e-10
-0.00112615
0.00232738
-2.44994e-10
-0.000951023
0.00231304
-5.70563e-11
-0.000763755
0.00231251
2.27014e-13
-0.000543405
0.00231092
1.88729e-11
-0.000296258
0.00239141
2.00811e-11
0.00254039
1.73381e-11
0.00202802
-1.21236e-10
1.23238e-12
0.0020299
3.55516e-10
1.31904e-12
0.00203239
1.78917e-09
1.5785e-12
0.00203401
3.20573e-09
1.59931e-12
0.00203608
8.94331e-09
1.61505e-12
0.00203724
4.10401e-08
1.10722e-12
0.00203187
2.28434e-07
1.03942e-12
0.00201473
9.40389e-07
-9.00888e-14
0.00196208
3.56069e-06
-3.27707e-12
0.00180837
1.44605e-05
-2.17944e-11
0.00134945
7.86311e-05
-1.54889e-10
-0.00151866
0.000754749
-1.54709e-09
-0.00416062
0.00511184
1.96461e-09
-0.00335171
0.00367487
8.30851e-10
-0.00264533
0.00312568
1.74975e-10
-0.00206258
0.00284277
5.19637e-11
-0.00164387
0.00265963
-6.54362e-11
-0.00138332
0.00264683
-1.32886e-10
-0.0011679
0.00273672
-3.21969e-10
-0.000992869
0.00271643
-1.6742e-10
-0.000831064
0.00269052
7.83787e-12
-0.000663642
0.00269176
5.83264e-11
-0.000464799
0.00268844
4.65416e-11
-0.00024279
0.00279314
4.95245e-11
0.00301511
4.34981e-11
0.00202802
-8.41588e-11
-6.15971e-13
0.00202989
-9.04751e-11
-5.93557e-13
0.0020324
-1.5569e-10
-7.46809e-13
0.00203404
-2.72424e-10
-7.62891e-13
0.00203653
-5.32054e-10
-8.15283e-13
0.00203895
7.75236e-09
-1.06576e-12
0.00203486
1.48033e-07
-1.7948e-12
0.00202282
7.70857e-07
-4.13865e-12
0.00198237
3.05791e-06
-1.10334e-11
0.00185415
1.20859e-05
-3.69414e-11
0.00152746
5.94418e-05
-1.88466e-10
-0.000184672
0.000472385
-1.30263e-09
-0.00445416
0.00472131
1.31734e-09
-0.00332095
0.00470038
1.88694e-09
-0.0025599
0.00363481
1.17074e-12
-0.00194677
0.00327206
4.57127e-11
-0.00150003
0.00303105
-1.4816e-10
-0.00120256
0.00300758
-5.85299e-11
-0.000991203
0.00311656
-1.01545e-10
-0.000830839
0.00310163
-5.05736e-11
-0.00068152
0.00306119
6.39618e-11
-0.000532023
0.00306453
1.27715e-10
-0.000356684
0.00306496
1.12112e-10
-0.000161304
0.00318711
6.27479e-11
0.00353426
5.11219e-11
0.00202802
1.28095e-10
1.02157e-12
0.0020299
5.03852e-10
9.65492e-13
0.0020324
2.29592e-10
1.37152e-12
0.002034
-2.25186e-10
1.48397e-12
0.00203674
-1.75084e-09
2.18721e-12
0.00204028
-9.2765e-09
2.98196e-12
0.00203755
9.56742e-08
2.85639e-12
0.00203025
6.04776e-07
1.518e-12
0.00200061
2.54379e-06
-1.63401e-12
0.00189858
9.74442e-06
-1.65822e-11
0.00164097
4.37144e-05
-1.08127e-10
0.000494136
0.000301982
-8.24583e-10
-0.0040636
0.00369622
-2.16242e-09
-0.00326824
0.00590904
1.83047e-09
-0.00249084
0.00415855
-3.76694e-10
-0.00182448
0.00371958
-4.48455e-11
-0.00133805
0.00341996
-4.14107e-11
-0.00100132
0.00337236
5.35679e-11
-0.000785298
0.00347844
-4.36513e-11
-0.000635165
0.00347345
1.71859e-11
-0.000498045
0.00342361
1.21817e-10
-0.000359874
0.00343014
1.47117e-10
-0.000213746
0.00345037
1.63911e-10
-2.80684e-05
0.00354919
1.24382e-10
0.00414081
8.34753e-11
0.00202802
-5.50242e-13
4.8932e-11
0.00202989
-4.47959e-13
1.9665e-10
0.0020324
-3.48489e-13
-1.69339e-10
0.00203397
-3.07645e-13
-7.87828e-10
0.00203669
-1.58051e-13
-2.16468e-09
0.00204003
2.99112e-14
-7.43266e-09
0.00203944
-2.85853e-13
2.34171e-08
0.00203762
-1.06347e-12
4.23319e-07
0.00201729
-2.90117e-12
1.95867e-06
0.00193489
-8.87673e-12
7.40887e-06
0.0017313
-4.09163e-11
3.14322e-05
0.00110499
-2.77123e-10
0.000196356
-0.00270069
-2.22146e-09
0.00232985
-0.00318746
1.33219e-09
0.00719315
-0.00242917
3.31543e-12
0.00471131
-0.00170178
3.35365e-10
0.00415274
-0.00116297
1.83276e-10
0.0038571
-0.000783629
9.3859e-11
0.00374492
-0.000553585
-1.85836e-11
0.00380985
-0.000402372
3.82247e-11
0.00384013
-0.000276092
1.57825e-10
0.00377352
-0.000132275
1.49673e-10
0.00377346
-9.95179e-06
1.73895e-10
0.00382984
0.000139712
1.48224e-10
0.00390066
1.16484e-10
0.00486147
0.00202801
-5.5609e-11
2.75824e-13
0.00202995
-3.40404e-10
4.39837e-13
0.00203215
1.80079e-10
6.31839e-13
0.00203329
1.27782e-09
6.51904e-13
0.00203364
6.85614e-09
6.95738e-13
0.00203109
2.7248e-08
8.47216e-13
0.00201888
1.01864e-07
1.14335e-12
0.00198266
3.58419e-07
2.05524e-12
0.00188056
1.32234e-06
1.98472e-12
0.00163251
6.06316e-06
-8.13415e-12
0.000342668
4.3484e-05
-1.15532e-10
-0.00506317
0.000520679
-5.49675e-10
-0.00409877
0.000623415
2.51854e-11
-0.0035215
0.000485294
1.99665e-10
-0.00294928
0.000428983
6.26843e-11
-0.00248106
0.00038566
3.56284e-11
-0.00214095
0.000381924
1.74649e-11
-0.00192424
0.000389817
-6.24685e-11
-0.00167682
0.000389322
-1.07658e-10
-0.00144992
0.000387327
-1.06152e-10
-0.00123355
0.000389562
-7.25187e-11
-0.000983888
0.000389662
-8.25322e-12
-0.000694877
0.000389005
4.91251e-11
-0.000383019
0.000403664
8.03505e-11
0.000417283
9.65283e-11
0.00202801
-3.14911e-11
5.95576e-13
0.00202995
-6.31659e-10
8.43106e-13
0.00203217
-7.33798e-11
1.15088e-12
0.00203336
1.59273e-09
1.1824e-12
0.00203378
1.1624e-08
1.24017e-12
0.00203136
4.94357e-08
1.3977e-12
0.00201964
1.94058e-07
1.57203e-12
0.00198441
6.88921e-07
1.36625e-12
0.0018846
2.53202e-06
7.19318e-13
0.00164352
1.12444e-05
-1.10067e-11
0.000416035
7.76378e-05
-1.39288e-10
-0.00493576
0.000954372
-6.06253e-10
-0.00407239
0.00128664
1.68651e-10
-0.00350708
0.000974805
4.03508e-10
-0.0029317
0.000861854
1.71333e-10
-0.00245362
0.00077431
6.65073e-11
-0.00211227
0.000765328
3.73303e-12
-0.00189769
0.000779524
-6.46512e-11
-0.00165201
0.00077929
-1.059e-10
-0.001428
0.000775084
-1.13195e-10
-0.00121579
0.000778115
-8.11379e-11
-0.0009716
0.000779283
-1.42391e-11
-0.00068919
0.000779429
4.49091e-11
-0.000379581
0.000803599
7.67831e-11
0.000834161
9.31298e-11
0.00202801
-1.65204e-10
1.64323e-13
0.00202994
-1.54047e-09
3.40368e-13
0.00203221
-1.45729e-09
4.83231e-13
0.00203348
1.14291e-10
5.63302e-13
0.00203405
1.0377e-08
6.10673e-13
0.00203195
6.01393e-08
5.68224e-13
0.0020212
2.58102e-07
4.03628e-13
0.00198784
9.62541e-07
-5.74256e-13
0.00189228
3.5268e-06
-5.31813e-12
0.00166659
1.54169e-05
-3.18013e-11
0.000656165
0.000101978
-2.18549e-10
-0.00467507
0.0012845
-9.28174e-10
-0.00402738
0.00198708
8.44486e-10
-0.00347295
0.00146505
5.25096e-10
-0.00289747
0.00129894
1.19853e-10
-0.00240521
0.0011687
1.22975e-10
-0.00205952
0.00114774
-7.71076e-12
-0.0018464
0.00116668
-7.96485e-11
-0.0016055
0.00117048
-9.8313e-11
-0.00138588
0.00116303
-1.17029e-10
-0.00117924
0.00116485
-8.69884e-11
-0.000944846
0.00116618
-2.92453e-11
-0.000671542
0.00116685
3.40824e-11
-0.000371564
0.0012007
6.77583e-11
0.00124995
8.49581e-11
0.00202801
1.69461e-10
9.12759e-13
0.00202993
-5.81477e-10
1.24396e-12
0.00203229
-2.79716e-10
1.63773e-12
0.0020336
1.97505e-09
1.68016e-12
0.00203445
1.42927e-08
1.74919e-12
0.00203298
6.98029e-08
1.41656e-12
0.00202355
2.98749e-07
8.68852e-13
0.00199279
1.10897e-06
-1.58652e-12
0.00190312
4.05092e-06
-1.10151e-11
0.001696
1.73404e-05
-5.7476e-11
0.000916045
0.000110278
-3.36202e-10
-0.00406414
0.00140485
-1.56257e-09
-0.00395583
0.00277056
2.07972e-09
-0.00342769
0.00196731
-4.93962e-11
-0.00284794
0.00174485
-1.06035e-10
-0.00233702
0.0015723
1.29379e-10
-0.00198213
0.00152997
-8.69093e-11
-0.00176849
0.00154951
-9.50831e-11
-0.00153273
0.00156357
-9.09989e-11
-0.00131925
0.00155124
-1.46152e-10
-0.00112278
0.00154881
-1.2759e-10
-0.000902061
0.00154939
-4.85706e-11
-0.000642194
0.0015507
1.52018e-11
-0.00035599
0.00159687
5.39616e-11
0.00167005
7.14697e-11
0.00202801
-1.87737e-10
1.11694e-13
0.00202993
1.35088e-09
2.87695e-13
0.00203237
4.33659e-09
4.48189e-13
0.00203371
9.12668e-09
4.44575e-13
0.00203492
2.62917e-08
4.33625e-13
0.00203438
8.90703e-08
2.57742e-13
0.00202648
3.33597e-07
-6.55752e-13
0.001999
1.16175e-06
-3.22474e-12
0.00191747
4.19328e-06
-1.25037e-11
0.00172638
1.78055e-05
-4.77759e-11
0.00107875
0.000110966
-2.22442e-10
-0.00321055
0.00134472
-1.79502e-09
-0.00389
0.00359936
3.00957e-09
-0.00339046
0.00246928
-8.09161e-10
-0.00279234
0.00219569
-1.31783e-10
-0.00225691
0.0019926
5.2921e-11
-0.00188583
0.00191096
-2.08458e-10
-0.00166551
0.0019249
-1.93847e-10
-0.00143668
0.00195644
-1.14431e-10
-0.00123303
0.00193899
-1.82305e-10
-0.00104649
0.00193144
-1.97512e-10
-0.000842366
0.00192989
-7.01649e-11
-0.000600615
0.0019309
-8.9921e-12
-0.000332196
0.00199336
3.76167e-11
0.00209714
5.5486e-11
0.00202801
-3.37448e-10
1.28361e-12
0.00202992
1.16664e-09
1.62696e-12
0.00203238
4.04579e-09
2.0045e-12
0.0020339
8.02634e-09
2.02844e-12
0.00203551
2.17187e-08
2.05867e-12
0.00203561
7.76325e-08
3.44166e-12
0.00202921
3.05173e-07
3.74259e-12
0.00200657
1.09593e-06
9.79868e-12
0.00193859
3.9896e-06
2.24272e-11
0.00176145
1.66472e-05
5.2738e-11
0.00117665
9.93923e-05
9.02905e-11
-0.0022509
0.00109879
3.78063e-10
-0.00387525
0.00443295
3.31423e-10
-0.00336408
0.00300282
-4.5675e-10
-0.00272527
0.00264527
-3.83332e-11
-0.00216306
0.00242464
8.21051e-11
-0.00177287
0.002287
-2.01919e-10
-0.00153787
0.002289
-2.66048e-10
-0.0013158
0.00234845
-1.88611e-10
-0.00112599
0.00232786
-2.1693e-10
-0.000950943
0.00231333
-2.31517e-10
-0.000763709
0.00231268
-1.38221e-10
-0.000543381
0.00231103
-3.10767e-11
-0.000296248
0.00239148
1.94727e-11
0.00254045
3.71083e-11
0.00202802
-5.85798e-10
1.32084e-13
0.0020299
-1.71829e-10
2.97968e-13
0.00203239
7.74892e-10
5.29272e-13
0.00203401
1.81079e-09
5.65899e-13
0.00203608
7.11797e-09
7.24889e-13
0.00203725
3.84884e-08
1.76616e-12
0.00203188
2.25395e-07
3.80475e-12
0.00201472
9.36209e-07
9.82071e-12
0.00196207
3.55418e-06
2.66392e-11
0.00180835
1.44484e-05
8.84505e-11
0.001349
7.86045e-05
4.69365e-10
-0.00152279
0.000754918
3.48188e-09
-0.00416395
0.00510329
-2.78374e-09
-0.00335475
0.00367344
-8.85562e-10
-0.0026465
0.003126
2.40843e-10
-0.00206319
0.00284312
7.95305e-11
-0.00164404
0.00266053
-2.44326e-10
-0.0013833
0.00264776
-3.27346e-10
-0.00116775
0.00273741
-2.60077e-10
-0.000992787
0.00271686
-2.46381e-10
-0.000831037
0.00269077
-2.59805e-10
-0.00066363
0.00269191
-1.74775e-10
-0.000464795
0.00268853
-7.6935e-11
-0.00024279
0.0027932
-4.37991e-13
0.00301515
1.78116e-11
0.00202802
1.49666e-11
1.26705e-12
0.00202989
4.60449e-11
1.64959e-12
0.0020324
-1.73084e-11
2.25458e-12
0.00203404
-2.09654e-10
2.32623e-12
0.00203652
-5.83372e-10
2.52101e-12
0.00203894
7.94533e-09
3.30117e-12
0.00203484
1.49527e-07
4.62665e-12
0.00202278
7.73714e-07
8.8722e-12
0.00198229
3.06384e-06
1.88977e-11
0.00185401
1.21014e-05
5.22999e-11
0.00152721
5.95025e-05
2.317e-10
-0.000185903
0.000472877
1.39632e-09
-0.00445492
0.00472173
-4.31219e-10
-0.0033233
0.00469877
-6.07501e-10
-0.00256137
0.00363449
1.57664e-10
-0.00194765
0.00327197
-1.36992e-11
-0.0015004
0.00303163
-2.35096e-10
-0.00120273
0.00300827
-3.36481e-10
-0.000991205
0.00311705
-2.95973e-10
-0.000830838
0.00310199
-2.96709e-10
-0.000681544
0.00306138
-2.93706e-10
-0.000532045
0.00306463
-2.03331e-10
-0.000356699
0.00306502
-1.15379e-10
-0.000161314
0.00318715
-2.50355e-11
0.00353428
5.55198e-14
0.00202802
-1.10986e-10
7.73861e-14
0.00202989
1.35679e-10
2.6083e-13
0.0020324
-1.65574e-10
4.02499e-13
0.002034
-6.40777e-10
4.14757e-13
0.00203674
-2.29784e-09
4.3354e-13
0.00204027
-1.00805e-08
5.93792e-13
0.00203754
9.45584e-08
1.05768e-12
0.00203023
6.02107e-07
3.26973e-12
0.00200058
2.54056e-06
7.96222e-12
0.00189852
9.74321e-06
2.22377e-11
0.00164088
4.37432e-05
8.68851e-11
0.000493145
0.000302299
4.52647e-10
-0.00406321
0.00369866
9.91669e-10
-0.00326983
0.00590794
-1.25087e-09
-0.0024918
0.00415775
3.32469e-10
-0.00182508
0.00371954
6.63223e-12
-0.0013384
0.00342009
-1.98424e-10
-0.00100153
0.00337292
-3.18141e-10
-0.000785349
0.0034788
-3.12576e-10
-0.000635227
0.00347362
-3.81792e-10
-0.000498109
0.00342371
-3.49382e-10
-0.000359924
0.00343018
-2.27953e-10
-0.000213776
0.00345039
-1.3767e-10
-2.80926e-05
0.0035492
-4.41353e-11
0.00414079
-2.03139e-11
0.00202802
1.31209e-12
2.58937e-10
0.00202989
1.66192e-12
4.68498e-10
0.0020324
2.12623e-12
5.88091e-11
0.00203397
2.16586e-12
-4.37913e-10
0.00203669
2.2679e-12
-1.65004e-09
0.00204002
2.77691e-12
-6.64502e-09
0.00203942
3.84031e-12
2.46914e-08
0.00203761
5.61206e-12
4.25103e-07
0.00201725
8.12941e-12
1.96093e-06
0.00193479
1.28108e-11
7.41699e-06
0.00173117
2.66012e-11
3.14539e-05
0.00110482
9.97676e-11
0.000196473
-0.00270086
5.25861e-10
0.00233113
-0.00318769
3.22844e-11
0.00719215
-0.00242887
4.05777e-10
0.00471049
-0.00170165
-1.0149e-10
0.00415355
-0.00116313
-2.17503e-10
0.0038572
-0.000783803
-2.80472e-10
0.00374529
-0.000553678
-3.49122e-10
0.00381008
-0.000402457
-4.01112e-10
0.00384023
-0.00027618
-4.10411e-10
0.00377354
-0.000132345
-2.51944e-10
0.00377344
-9.99503e-06
-1.56977e-10
0.00382982
0.000139682
-6.53268e-11
0.00390064
-2.98997e-11
0.00486141
0.00202801
-1.50599e-11
2.16642e-13
0.00202995
-2.39318e-10
3.05675e-13
0.00203215
2.77832e-10
4.64848e-13
0.00203329
1.45728e-09
4.84179e-13
0.00203364
7.12585e-09
5.56548e-13
0.00203109
2.76781e-08
7.13038e-13
0.00201887
1.02496e-07
1.1372e-12
0.00198264
3.59102e-07
2.02928e-12
0.00188054
1.32274e-06
3.99428e-12
0.00163248
6.06106e-06
9.15551e-12
0.000342558
4.34621e-05
3.13587e-11
-0.00506318
0.000520454
1.70868e-11
-0.00409851
0.000623286
-5.98115e-11
-0.00352138
0.000485483
-7.57605e-12
-0.00294932
0.000429138
1.53119e-11
-0.00248117
0.000385659
1.68171e-11
-0.00214101
0.000381867
1.24655e-11
-0.00192424
0.000389764
-2.53765e-11
-0.00167675
0.000389274
-8.54206e-11
-0.00144982
0.00038728
-1.75158e-10
-0.00123346
0.00038953
-1.85364e-10
-0.000983825
0.00038964
-2.26136e-10
-0.000694845
0.000388987
-2.57821e-10
-0.000383
0.000403649
-2.58125e-10
0.000417268
-2.21279e-10
0.00202801
-4.2567e-11
1.89284e-13
0.00202994
-6.57814e-10
2.58292e-13
0.00203217
-3.61979e-11
4.18903e-13
0.00203335
1.70842e-09
4.39018e-13
0.00203378
1.17846e-08
5.14943e-13
0.00203136
4.96665e-08
6.69413e-13
0.00201963
1.94208e-07
1.05334e-12
0.0019844
6.88433e-07
1.83654e-12
0.00188459
2.52907e-06
3.26463e-12
0.00164351
1.1231e-05
6.57484e-12
0.000415933
7.75534e-05
1.35753e-11
-0.00493533
0.000953611
2.48971e-11
-0.00407184
0.0012866
8.57986e-12
-0.00350693
0.000975369
-1.3885e-11
-0.00293178
0.00086226
1.84736e-11
-0.00245372
0.000774356
2.52571e-11
-0.00211233
0.000765227
2.31638e-11
-0.00189769
0.000779432
-1.6892e-11
-0.00165194
0.000779198
-7.18067e-11
-0.0014279
0.000774997
-1.59665e-10
-0.00121569
0.000778052
-1.76184e-10
-0.000971534
0.00077924
-2.20531e-10
-0.000689156
0.000779394
-2.53893e-10
-0.000379562
0.00080357
-2.50916e-10
0.000834132
-2.1782e-10
0.00202801
-1.84588e-11
2.21712e-13
0.00202994
-1.24713e-09
3.39392e-13
0.00203221
-1.02451e-09
4.81712e-13
0.00203347
3.75437e-10
5.03354e-13
0.00203405
1.08167e-08
5.66466e-13
0.00203194
6.07332e-08
7.40605e-13
0.00202119
2.59026e-07
1.1185e-12
0.00198782
9.62892e-07
1.87846e-12
0.00189226
3.52482e-06
3.62359e-12
0.00166654
1.5402e-05
1.01256e-11
0.000655854
0.000101875
3.92416e-11
-0.00467488
0.00128364
1.01576e-10
-0.00402701
0.00198706
-5.63482e-11
-0.00347318
0.00146573
-6.00195e-12
-0.00289783
0.0012993
4.59776e-11
-0.00240542
0.0011686
6.90542e-11
-0.00205962
0.00114752
5.58961e-11
-0.00184641
0.00116652
9.03781e-12
-0.00160543
0.00117035
-4.68169e-11
-0.00138577
0.00116292
-1.28806e-10
-0.00117913
0.00116476
-1.5133e-10
-0.000944773
0.00116612
-2.05239e-10
-0.000671504
0.0011668
-2.45779e-10
-0.000371543
0.00120066
-2.34205e-10
0.00124991
-2.20225e-10
0.00202801
3.28538e-11
1.24882e-13
0.00202993
-7.28059e-10
1.90415e-13
0.00203229
-4.1213e-10
2.86766e-13
0.0020336
1.84802e-09
3.01163e-13
0.00203445
1.3994e-08
3.53929e-13
0.00203297
6.94938e-08