/*--------------------------------*- C++ -*----------------------------------*\
| =========                 |                                                 |
| \\      /  F ield         | OpenFOAM: The Open Source CFD Toolbox           |
|  \\    /   O peration     | Version:  4.1                                   |
|   \\  /    A nd           | Web:      www.OpenFOAM.org                      |
|    \\/     M anipulation  |                                                 |
\*---------------------------------------------------------------------------*/
FoamFile
{
    version     2.0;
    format      ascii;
    class       volScalarField;
    location    "0.38";
    object      T;
}
// * * * * * * * * * * * * * * * * * * * * * * * * * * * * * * * * * * * * * //

dimensions      [0 0 0 1 0 0 0];

internalField   nonuniform List<scalar> 
52500
(
0.336592
0.317109
0.317517
0.318165
0.319057
0.320872
0.32492
0.334724
0.363794
0.484137
0.969388
1.75096
1.46632
1.37132
1.42603
1.5522
1.56474
1.49916
1.45336
1.43566
1.40822
1.37796
1.35204
1.32073
1.24897
0.336592
0.317109
0.317515
0.318164
0.319045
0.320836
0.324813
0.334396
0.362591
0.47821
0.952004
1.74606
1.47514
1.37038
1.42072
1.55045
1.56607
1.50101
1.45357
1.43572
1.40787
1.3777
1.3517
1.32071
1.24726
0.336593
0.31711
0.317512
0.318161
0.319024
0.320762
0.3246
0.333755
0.360288
0.466795
0.912908
1.72985
1.49302
1.36822
1.41076
1.54587
1.5666
1.50323
1.45349
1.43553
1.40764
1.37758
1.35144
1.32038
1.24535
0.336593
0.317111
0.317507
0.318156
0.31901
0.320646
0.32428
0.332854
0.357071
0.45127
0.858713
1.68569
1.52326
1.36376
1.3972
1.53742
1.56559
1.50591
1.45236
1.43421
1.40596
1.37562
1.3496
1.31818
1.24018
0.336593
0.317113
0.317505
0.318148
0.319006
0.32051
0.323915
0.331824
0.353321
0.433711
0.794907
1.61473
1.56051
1.35667
1.37727
1.52131
1.56166
1.50906
1.45053
1.43156
1.40378
1.37397
1.34717
1.31376
1.23355
0.336594
0.317111
0.317506
0.318142
0.318963
0.320377
0.323577
0.330749
0.349196
0.414659
0.718412
1.50065
1.60272
1.34964
1.35798
1.49951
1.55607
1.51323
1.44769
1.42665
1.39884
1.36967
1.34309
1.30895
1.2272
0.336596
0.31711
0.31751
0.318134
0.318942
0.320245
0.323247
0.329692
0.345233
0.396484
0.631009
1.33646
1.64845
1.34566
1.34007
1.46695
1.54679
1.51888
1.44519
1.4206
1.39316
1.36244
1.33537
1.30206
1.2111
0.336597
0.31711
0.317514
0.318123
0.318947
0.320135
0.322963
0.328697
0.341672
0.381391
0.55226
1.13068
1.68638
1.357
1.32464
1.42733
1.53373
1.52386
1.44432
1.41269
1.38657
1.35787
1.32976
1.29039
1.19846
0.336598
0.31711
0.317516
0.318122
0.318956
0.320059
0.322785
0.32774
0.33855
0.369273
0.490812
0.963605
1.66529
1.39453
1.30847
1.38008
1.51542
1.5239
1.44622
1.40528
1.37984
1.3505
1.31918
1.28291
1.16378
0.336598
0.31711
0.317517
0.318122
0.318964
0.320025
0.322652
0.326874
0.335962
0.359815
0.445826
0.803901
1.54841
1.46253
1.29401
1.33316
1.48522
1.52009
1.45399
1.3986
1.37068
1.33962
1.30372
1.26961
1.13251
0.336594
0.31711
0.317519
0.318167
0.319059
0.320875
0.324924
0.334734
0.363829
0.484313
0.96997
1.75133
1.46631
1.37139
1.42612
1.55219
1.56469
1.49911
1.45333
1.43563
1.40819
1.37791
1.35197
1.32066
1.24899
0.336594
0.31711
0.317516
0.318165
0.319047
0.320838
0.324816
0.334403
0.362617
0.47834
0.952443
1.74627
1.47521
1.37036
1.42058
1.55042
1.56607
1.50097
1.45353
1.4357
1.40783
1.37765
1.35165
1.32065
1.24726
0.336595
0.317111
0.317513
0.318163
0.319026
0.320766
0.324609
0.333776
0.360352
0.467106
0.913966
1.7307
1.49243
1.36849
1.41137
1.54607
1.56654
1.50317
1.45346
1.4355
1.40761
1.37754
1.35138
1.32033
1.24535
0.336593
0.317112
0.317507
0.318156
0.319009
0.320647
0.324284
0.332865
0.357113
0.451486
0.859441
1.6862
1.52274
1.36376
1.3972
1.53739
1.56555
1.50587
1.45233
1.43417
1.40593
1.37556
1.34952
1.31813
1.24022
0.336595
0.317113
0.317505
0.318149
0.319005
0.320512
0.323922
0.331839
0.353367
0.4339
0.795497
1.61543
1.55993
1.35729
1.3779
1.52166
1.56167
1.50899
1.45053
1.43155
1.40375
1.37389
1.34706
1.3137
1.23365
0.336594
0.317111
0.317506
0.318141
0.318964
0.320376
0.323574
0.330749
0.349216
0.414753
0.718792
1.50099
1.60258
1.35011
1.35843
1.49994
1.55622
1.51313
1.44768
1.42665
1.39881
1.36957
1.34298
1.30889
1.22732
0.336596
0.31711
0.31751
0.318132
0.318945
0.320245
0.323242
0.329687
0.345231
0.396481
0.630999
1.33613
1.64848
1.34556
1.33977
1.46655
1.5467
1.51893
1.44521
1.42063
1.39314
1.36236
1.33525
1.30198
1.21124
0.336596
0.317109
0.317513
0.318119
0.318948
0.320132
0.322955
0.328687
0.341661
0.381362
0.552162
1.13056
1.68645
1.35674
1.32428
1.42686
1.53361
1.52395
1.44436
1.41271
1.38655
1.35777
1.32964
1.2903
1.1986
0.336597
0.31711
0.317515
0.318119
0.318957
0.320057
0.322778
0.327734
0.338543
0.369247
0.490721
0.963446
1.66531
1.3945
1.30824
1.37993
1.51546
1.52397
1.44627
1.40534
1.37984
1.35047
1.31909
1.28282
1.16392
0.336597
0.317109
0.317515
0.318117
0.318964
0.320022
0.322643
0.326865
0.335948
0.359779
0.445726
0.80373
1.54832
1.46269
1.29379
1.33286
1.48514
1.52018
1.4541
1.39861
1.37069
1.33957
1.30364
1.26949
1.13265
0.336593
0.31711
0.317517
0.318165
0.319057
0.320873
0.324922
0.334732
0.363826
0.484309
0.969917
1.75117
1.46618
1.37146
1.42619
1.55224
1.5647
1.49912
1.45335
1.43565
1.4082
1.37792
1.35198
1.32067
1.249
0.336593
0.31711
0.317515
0.318164
0.319046
0.320837
0.324815
0.334401
0.362615
0.478345
0.952478
1.74628
1.47502
1.37044
1.42078
1.55048
1.56605
1.50099
1.45356
1.43571
1.40785
1.37767
1.35166
1.32066
1.24726
0.336593
0.31711
0.317512
0.318161
0.319024
0.320762
0.3246
0.333759
0.360307
0.466904
0.913309
1.73016
1.49284
1.36819
1.41084
1.54594
1.5666
1.50322
1.45348
1.43552
1.40762
1.37755
1.35139
1.32033
1.24536
0.336594
0.317112
0.317507
0.318156
0.31901
0.320646
0.324281
0.332857
0.357084
0.451348
0.859004
1.68596
1.52313
1.36368
1.39713
1.5374
1.56561
1.50592
1.45235
1.43419
1.40594
1.37557
1.34953
1.31813
1.24022
0.336593
0.317113
0.317504
0.318146
0.319006
0.320509
0.323913
0.331823
0.353331
0.433764
0.795099
1.61497
1.56031
1.35663
1.37711
1.52126
1.56168
1.50909
1.45055
1.43156
1.40375
1.3739
1.34707
1.3137
1.23365
0.336595
0.317111
0.317506
0.318142
0.318963
0.320376
0.323576
0.330749
0.349207
0.414714
0.718642
1.501
1.60261
1.3498
1.35823
1.49985
1.55621
1.51321
1.4477
1.42666
1.39881
1.36958
1.34298
1.30889
1.22732
0.336595
0.31711
0.317509
0.31813
0.318943
0.320243
0.323239
0.329684
0.345229
0.396489
0.63108
1.33657
1.64847
1.3457
1.34003
1.46691
1.54681
1.51894
1.44522
1.42064
1.39314
1.36236
1.33524
1.30198
1.21123
0.336597
0.31711
0.317513
0.31812
0.318949
0.320134
0.322958
0.328692
0.34167
0.381391
0.552284
1.13081
1.68634
1.35686
1.32458
1.42729
1.53373
1.52393
1.44436
1.41272
1.38655
1.35776
1.32963
1.2903
1.1986
0.336597
0.317109
0.317514
0.318118
0.318955
0.320056
0.322775
0.327732
0.338541
0.369254
0.49078
0.96365
1.66535
1.3945
1.30842
1.38013
1.51552
1.52395
1.44626
1.40534
1.37984
1.35046
1.31908
1.28281
1.16391
0.336597
0.31711
0.317516
0.318118
0.318964
0.320023
0.322646
0.326868
0.335952
0.359789
0.44576
0.803842
1.54841
1.46259
1.29381
1.33294
1.48527
1.52018
1.45408
1.3986
1.37069
1.33956
1.30363
1.26947
1.13264
0.336593
0.317109
0.317517
0.318165
0.319057
0.320872
0.324921
0.33473
0.363825
0.484315
0.969951
1.75121
1.46618
1.37144
1.42619
1.55225
1.5647
1.49912
1.45336
1.43566
1.40821
1.37792
1.35198
1.32066
1.24899
0.336593
0.317109
0.317515
0.318163
0.319045
0.320835
0.324814
0.3344
0.362614
0.478351
0.952514
1.74632
1.47502
1.37041
1.42076
1.55048
1.56605
1.501
1.45356
1.43572
1.40786
1.37767
1.35165
1.32065
1.24725
0.336593
0.31711
0.317511
0.31816
0.319023
0.320762
0.3246
0.333759
0.36031
0.466925
0.913383
1.73021
1.49283
1.36821
1.41087
1.54595
1.56659
1.50322
1.45349
1.43553
1.40763
1.37755
1.35139
1.32032
1.24535
0.336593
0.317111
0.317506
0.318154
0.319008
0.320645
0.32428
0.332857
0.357088
0.451381
0.859129
1.68609
1.52295
1.36366
1.39709
1.53736
1.5656
1.50593
1.45236
1.4342
1.40595
1.37558
1.34953
1.31813
1.24022
0.336593
0.317112
0.317503
0.318146
0.319006
0.320509
0.323913
0.331825
0.35334
0.433799
0.795213
1.61523
1.56021
1.35697
1.37751
1.52151
1.56173
1.50906
1.45055
1.43157
1.40377
1.37391
1.34707
1.31369
1.23365
0.336594
0.31711
0.317505
0.318139
0.318964
0.320374
0.32357
0.330742
0.349198
0.414683
0.718554
1.50084
1.60272
1.34982
1.35813
1.49983
1.55623
1.51322
1.44771
1.42667
1.39882
1.36959
1.34298
1.30889
1.22731
0.336595
0.317109
0.317509
0.31813
0.318944
0.320242
0.323237
0.32968
0.345219
0.396446
0.630874
1.33606
1.64863
1.34545
1.33963
1.46649
1.54675
1.51899
1.44524
1.42064
1.39315
1.36237
1.33525
1.30198
1.21123
0.336596
0.317109
0.317512
0.318118
0.318947
0.320131
0.322953
0.328685
0.341658
0.381358
0.552163
1.13062
1.68658
1.35682
1.32433
1.42699
1.5337
1.52399
1.44438
1.41273
1.38656
1.35778
1.32964
1.2903
1.1986
0.336596
0.317109
0.317514
0.318117
0.318955
0.320055
0.322775
0.327731
0.338539
0.369244
0.490739
0.963563
1.66544
1.39449
1.30835
1.3801
1.51557
1.52401
1.44628
1.40536
1.37986
1.35048
1.31909
1.28281
1.16391
0.336596
0.317109
0.317515
0.318116
0.318962
0.32002
0.322641
0.326863
0.335946
0.359777
0.445736
0.803815
1.54847
1.46259
1.29384
1.33295
1.48524
1.52021
1.45412
1.39863
1.37071
1.33958
1.30364
1.26948
1.13264
0.336593
0.317109
0.317517
0.318165
0.319056
0.320872
0.32492
0.334729
0.363822
0.48431
0.969946
1.75123
1.4662
1.37145
1.42616
1.55222
1.56469
1.49913
1.45336
1.43566
1.40821
1.37793
1.35199
1.32068
1.249
0.336593
0.317109
0.317515
0.318163
0.319045
0.320835
0.324813
0.334398
0.362612
0.478347
0.952513
1.74634
1.47504
1.37043
1.42075
1.55045
1.56603
1.50101
1.45356
1.43572
1.40786
1.37767
1.35166
1.32067
1.24728
0.336593
0.31711
0.317511
0.31816
0.319023
0.320761
0.3246
0.333758
0.360307
0.466919
0.913373
1.73022
1.49285
1.36822
1.41085
1.54591
1.56657
1.50322
1.45348
1.43552
1.40763
1.37755
1.3514
1.32034
1.24537
0.336593
0.317111
0.317506
0.318154
0.319008
0.320644
0.32428
0.332856
0.357085
0.451374
0.859111
1.68609
1.52297
1.36367
1.39708
1.53736
1.56559
1.50592
1.45235
1.4342
1.40595
1.37559
1.34956
1.31815
1.24019
0.336593
0.317112
0.317503
0.318145
0.319005
0.320508
0.323913
0.331824
0.353336
0.43379
0.79519
1.61521
1.56024
1.35697
1.3775
1.52149
1.56171
1.50904
1.45055
1.43158
1.40379
1.37396
1.34716
1.31373
1.23351
0.336594
0.31711
0.317505
0.318139
0.318964
0.320374
0.32357
0.330741
0.349194
0.414672
0.718518
1.5008
1.60274
1.34981
1.35811
1.49979
1.5562
1.5132
1.4477
1.42668
1.39887
1.36969
1.34309
1.30893
1.22715
0.336595
0.317109
0.317509
0.318129
0.318943
0.320242
0.323236
0.329679
0.345216
0.396436
0.630823
1.33593
1.64867
1.34545
1.33964
1.46646
1.54671
1.51897
1.44523
1.42065
1.3932
1.36247
1.33537
1.30206
1.21109
0.336596
0.317109
0.317512
0.318118
0.318947
0.320131
0.322953
0.328684
0.341656
0.38135
0.552127
1.13053
1.6866
1.35685
1.32433
1.42693
1.53365
1.52396
1.44438
1.41273
1.3866
1.35785
1.32974
1.29038
1.19847
0.336597
0.317109
0.317514
0.318118
0.318955
0.320055
0.322775
0.32773
0.338537
0.369239
0.490716
0.963482
1.66542
1.39453
1.30834
1.38005
1.51552
1.52398
1.44627
1.40535
1.37987
1.35052
1.31915
1.28289
1.16384
0.336596
0.317109
0.317515
0.318116
0.318962
0.32002
0.322641
0.326863
0.335944
0.359775
0.445723
0.803763
1.54842
1.46265
1.29385
1.33293
1.48517
1.52018
1.45409
1.39862
1.37071
1.3396
1.30367
1.26953
1.13258
0.336593
0.317109
0.317517
0.318165
0.319057
0.320872
0.324921
0.33473
0.363826
0.484321
0.969971
1.75122
1.46617
1.37144
1.4262
1.55226
1.56471
1.49913
1.45336
1.43566
1.40821
1.37793
1.35198
1.32067
1.24899
0.336593
0.317109
0.317515
0.318163
0.319045
0.320836
0.324814
0.3344
0.362615
0.478357
0.952534
1.74633
1.47501
1.37042
1.42077
1.55049
1.56606
1.50101
1.45357
1.43573
1.40786
1.37767
1.35166
1.32066
1.24726
0.336593
0.31711
0.317511
0.31816
0.319023
0.320762
0.3246
0.33376
0.36031
0.466928
0.913395
1.73022
1.49282
1.36821
1.41087
1.54595
1.5666
1.50323
1.45349
1.43553
1.40764
1.37756
1.35139
1.32033
1.24535
0.336593
0.317111
0.317506
0.318154
0.319008
0.320645
0.32428
0.332857
0.357088
0.451383
0.859134
1.68609
1.52294
1.36367
1.39709
1.53737
1.56561
1.50593
1.45236
1.4342
1.40595
1.37558
1.34953
1.31813
1.24022
0.336593
0.317112
0.317504
0.318146
0.319006
0.320509
0.323913
0.331825
0.35334
0.433798
0.795208
1.61522
1.56021
1.35697
1.3775
1.5215
1.56173
1.50906
1.45055
1.43157
1.40377
1.37391
1.34707
1.3137
1.23365
0.336594
0.31711
0.317505
0.31814
0.318964
0.320374
0.32357
0.330742
0.349197
0.414679
0.718537
1.50081
1.60272
1.34981
1.35811
1.49982
1.55623
1.51322
1.44771
1.42667
1.39882
1.36959
1.34298
1.30889
1.22731
0.336595
0.317109
0.317509
0.31813
0.318944
0.320242
0.323237
0.32968
0.345218
0.396441
0.630841
1.33596
1.64863
1.34544
1.33962
1.46648
1.54676
1.51899
1.44523
1.42064
1.39315
1.36237
1.33525
1.30198
1.21123
0.336596
0.317109
0.317512
0.318118
0.318947
0.320131
0.322954
0.328685
0.341658
0.381354
0.552136
1.13054
1.68658
1.35682
1.32431
1.42696
1.5337
1.52399
1.44438
1.41272
1.38656
1.35777
1.32964
1.2903
1.1986
0.336597
0.317109
0.317514
0.318118
0.318955
0.320056
0.322775
0.327731
0.338539
0.369242
0.49072
0.963489
1.6654
1.3945
1.30833
1.38008
1.51556
1.52401
1.44628
1.40535
1.37985
1.35047
1.31909
1.28281
1.16392
0.336596
0.317109
0.317515
0.318116
0.318963
0.320021
0.322642
0.326864
0.335946
0.359777
0.445727
0.803768
1.54841
1.46263
1.29384
1.33294
1.48522
1.5202
1.4541
1.39862
1.3707
1.33958
1.30364
1.26948
1.13265
0.336593
0.317109
0.317517
0.318165
0.319057
0.320872
0.324921
0.33473
0.363825
0.484315
0.969951
1.75121
1.46618
1.37144
1.42619
1.55225
1.5647
1.49912
1.45336
1.43566
1.40821
1.37792
1.35198
1.32066
1.24899
0.336593
0.317109
0.317515
0.318163
0.319045
0.320835
0.324814
0.3344
0.362614
0.478351
0.952514
1.74632
1.47502
1.37041
1.42076
1.55048
1.56605
1.501
1.45356
1.43572
1.40786
1.37767
1.35165
1.32065
1.24725
0.336593
0.31711
0.317511
0.31816
0.319023
0.320762
0.3246
0.333759
0.36031
0.466925
0.913383
1.73021
1.49283
1.36821
1.41087
1.54595
1.56659
1.50322
1.45349
1.43553
1.40763
1.37755
1.35139
1.32032
1.24535
0.336593
0.317111
0.317506
0.318154
0.319008
0.320645
0.32428
0.332857
0.357088
0.451382
0.859129
1.68609
1.52295
1.36366
1.39709
1.53736
1.5656
1.50593
1.45236
1.4342
1.40595
1.37558
1.34953
1.31813
1.24022
0.336593
0.317112
0.317503
0.318146
0.319006
0.320509
0.323913
0.331825
0.35334
0.433799
0.795213
1.61523
1.56021
1.35697
1.37751
1.52151
1.56173
1.50906
1.45055
1.43157
1.40377
1.37391
1.34707
1.31369
1.23365
0.336594
0.31711
0.317505
0.318139
0.318964
0.320374
0.32357
0.330742
0.349198
0.414683
0.718554
1.50084
1.60272
1.34982
1.35813
1.49983
1.55623
1.51322
1.44771
1.42667
1.39882
1.36959
1.34298
1.30889
1.22731
0.336595
0.317109
0.317509
0.31813
0.318944
0.320242
0.323237
0.32968
0.345219
0.396446
0.630874
1.33606
1.64863
1.34545
1.33963
1.46649
1.54675
1.51899
1.44524
1.42064
1.39315
1.36237
1.33525
1.30198
1.21123
0.336596
0.317109
0.317512
0.318118
0.318947
0.320131
0.322953
0.328685
0.341658
0.381358
0.552163
1.13062
1.68658
1.35682
1.32433
1.42699
1.5337
1.52399
1.44438
1.41273
1.38656
1.35778
1.32964
1.2903
1.1986
0.336596
0.317109
0.317514
0.318117
0.318955
0.320055
0.322775
0.327731
0.338539
0.369244
0.490739
0.963563
1.66544
1.39449
1.30835
1.3801
1.51557
1.52401
1.44628
1.40536
1.37986
1.35048
1.31909
1.28281
1.16391
0.336596
0.317109
0.317515
0.318116
0.318962
0.32002
0.322641
0.326863
0.335946
0.359777
0.445736
0.803815
1.54847
1.46259
1.29384
1.33295
1.48524
1.52021
1.45412
1.39863
1.37071
1.33958
1.30364
1.26948
1.13264
0.336593
0.31711
0.317517
0.318165
0.319057
0.320873
0.324922
0.334732
0.363826
0.484309
0.969917
1.75117
1.46618
1.37146
1.42619
1.55224
1.5647
1.49912
1.45335
1.43565
1.4082
1.37792
1.35198
1.32067
1.249
0.336593
0.31711
0.317515
0.318164
0.319046
0.320837
0.324815
0.334401
0.362615
0.478345
0.952478
1.74628
1.47502
1.37044
1.42078
1.55048
1.56605
1.50099
1.45356
1.43571
1.40785
1.37767
1.35166
1.32066
1.24726
0.336593
0.31711
0.317512
0.318161
0.319024
0.320762
0.3246
0.333759
0.360307
0.466904
0.913309
1.73016
1.49284
1.36819
1.41084
1.54594
1.5666
1.50322
1.45348
1.43552
1.40762
1.37755
1.35139
1.32033
1.24536
0.336594
0.317112
0.317507
0.318156
0.31901
0.320646
0.324281
0.332857
0.357084
0.451348
0.859004
1.68596
1.52313
1.36368
1.39713
1.5374
1.56561
1.50592
1.45235
1.43419
1.40594
1.37557
1.34953
1.31813
1.24022
0.336593
0.317113
0.317504
0.318146
0.319006
0.320509
0.323913
0.331823
0.353331
0.433764
0.795099
1.61497
1.56031
1.35663
1.37711
1.52126
1.56168
1.50909
1.45055
1.43156
1.40375
1.3739
1.34707
1.3137
1.23365
0.336595
0.317111
0.317506
0.318142
0.318963
0.320376
0.323576
0.330749
0.349207
0.414714
0.718642
1.501
1.60261
1.3498
1.35823
1.49985
1.55621
1.51321
1.4477
1.42666
1.39881
1.36958
1.34298
1.30889
1.22732
0.336595
0.31711
0.317509
0.31813
0.318943
0.320243
0.323239
0.329684
0.345229
0.396489
0.63108
1.33657
1.64847
1.3457
1.34003
1.46691
1.54681
1.51894
1.44522
1.42064
1.39314
1.36236
1.33524
1.30198
1.21123
0.336597
0.31711
0.317513
0.31812
0.318949
0.320134
0.322958
0.328692
0.34167
0.381391
0.552284
1.13081
1.68634
1.35686
1.32458
1.42729
1.53373
1.52393
1.44436
1.41272
1.38655
1.35776
1.32963
1.2903
1.1986
0.336597
0.317109
0.317514
0.318118
0.318955
0.320056
0.322775
0.327732
0.338541
0.369254
0.49078
0.96365
1.66535
1.3945
1.30842
1.38013
1.51552
1.52395
1.44626
1.40534
1.37984
1.35046
1.31908
1.28281
1.16391
0.336597
0.31711
0.317516
0.318118
0.318964
0.320023
0.322646
0.326868
0.335952
0.359789
0.44576
0.803842
1.54841
1.46259
1.29381
1.33294
1.48527
1.52018
1.45408
1.3986
1.37069
1.33956
1.30363
1.26947
1.13264
0.336594
0.31711
0.317519
0.318167
0.319059
0.320875
0.324924
0.334734
0.363829
0.484313
0.969969
1.75133
1.46631
1.37139
1.42612
1.55219
1.56469
1.49911
1.45333
1.43563
1.40819
1.37791
1.35197
1.32066
1.24899
0.336594
0.31711
0.317516
0.318165
0.319047
0.320838
0.324816
0.334403
0.362617
0.478339
0.952442
1.74627
1.47522
1.37036
1.42058
1.55042
1.56607
1.50097
1.45353
1.4357
1.40783
1.37765
1.35165
1.32065
1.24726
0.336595
0.317111
0.317513
0.318163
0.319026
0.320766
0.324609
0.333776
0.360352
0.467106
0.913966
1.7307
1.49243
1.36849
1.41137
1.54607
1.56654
1.50317
1.45346
1.4355
1.40761
1.37754
1.35138
1.32033
1.24535
0.336593
0.317112
0.317507
0.318156
0.319009
0.320647
0.324284
0.332865
0.357113
0.451486
0.85944
1.6862
1.52274
1.36376
1.3972
1.53739
1.56555
1.50587
1.45233
1.43417
1.40593
1.37556
1.34952
1.31813
1.24022
0.336595
0.317113
0.317505
0.318149
0.319005
0.320512
0.323922
0.331839
0.353367
0.4339
0.795496
1.61543
1.55993
1.35729
1.3779
1.52166
1.56167
1.50899
1.45053
1.43155
1.40375
1.37389
1.34706
1.3137
1.23365
0.336594
0.317111
0.317506
0.318141
0.318964
0.320376
0.323574
0.330749
0.349216
0.414753
0.718792
1.50099
1.60259
1.35011
1.35843
1.49994
1.55622
1.51313
1.44768
1.42665
1.39881
1.36957
1.34298
1.30889
1.22732
0.336596
0.31711
0.31751
0.318132
0.318945
0.320245
0.323242
0.329687
0.345231
0.396481
0.630999
1.33613
1.64848
1.34556
1.33977
1.46655
1.5467
1.51893
1.44521
1.42063
1.39314
1.36236
1.33525
1.30198
1.21124
0.336596
0.317109
0.317513
0.318119
0.318948
0.320132
0.322955
0.328687
0.341661
0.381362
0.552162
1.13056
1.68645
1.35674
1.32428
1.42686
1.53361
1.52395
1.44436
1.41271
1.38655
1.35777
1.32964
1.2903
1.1986
0.336597
0.31711
0.317515
0.318119
0.318957
0.320057
0.322778
0.327734
0.338543
0.369247
0.490722
0.963447
1.66531
1.3945
1.30824
1.37993
1.51546
1.52397
1.44627
1.40534
1.37984
1.35047
1.31909
1.28282
1.16392
0.336597
0.317109
0.317515
0.318117
0.318964
0.320022
0.322643
0.326865
0.335948
0.359779
0.445726
0.803731
1.54833
1.46269
1.29379
1.33286
1.48514
1.52018
1.4541
1.39861
1.37069
1.33957
1.30364
1.26949
1.13265
0.336592
0.317109
0.317517
0.318165
0.319057
0.320872
0.32492
0.334724
0.363794
0.484136
0.969394
1.75099
1.4663
1.37134
1.42608
1.55218
1.56467
1.49909
1.45335
1.43567
1.40827
1.37805
1.35215
1.32075
1.2488
0.336593
0.317109
0.317515
0.318164
0.319046
0.320836
0.324813
0.334393
0.36258
0.478147
0.95179
1.74602
1.47539
1.37038
1.42068
1.55037
1.56603
1.50098
1.45355
1.43573
1.4079
1.37776
1.35179
1.32072
1.24712
0.336593
0.31711
0.317512
0.318161
0.319024
0.320762
0.324599
0.333753
0.360277
0.466735
0.912678
1.72947
1.49314
1.36798
1.41051
1.54576
1.56656
1.50321
1.45346
1.43552
1.40765
1.37761
1.35148
1.32039
1.24527
0.336594
0.317111
0.317508
0.318156
0.319007
0.320647
0.324286
0.332863
0.357093
0.451386
0.859104
1.68631
1.52278
1.36393
1.39735
1.53738
1.56554
1.50588
1.45232
1.43417
1.40593
1.37559
1.34958
1.31818
1.24019
0.336593
0.317113
0.317504
0.318147
0.319006
0.32051
0.323917
0.331829
0.353341
0.433792
0.79516
1.61516
1.56035
1.35745
1.37812
1.52177
1.5617
1.50894
1.45051
1.43154
1.40375
1.37394
1.34716
1.31376
1.23357
0.336594
0.317111
0.317507
0.318143
0.318964
0.320377
0.323575
0.330746
0.34919
0.414636
0.718349
1.50035
1.60282
1.34975
1.35793
1.4995
1.55611
1.51316
1.44766
1.42663
1.39883
1.36965
1.34308
1.30896
1.22721
0.336596
0.317109
0.31751
0.318133
0.318941
0.320243
0.323244
0.329685
0.345214
0.396418
0.630705
1.33564
1.64877
1.34525
1.33933
1.46594
1.5465
1.51894
1.44519
1.42059
1.39316
1.36243
1.33537
1.30206
1.21111
0.336598
0.31711
0.317514
0.318124
0.318946
0.320135
0.322963
0.328697
0.34167
0.381386
0.552241
1.13074
1.68664
1.35681
1.32448
1.4271
1.53365
1.5239
1.44431
1.41268
1.38658
1.35787
1.32975
1.29039
1.19846
0.336597
0.31711
0.317515
0.31812
0.318955
0.320057
0.322779
0.327735
0.338546
0.369267
0.490828
0.963768
1.66555
1.39464
1.30861
1.38028
1.51558
1.52394
1.4462
1.40529
1.37985
1.35051
1.31918
1.28291
1.16378
0.336598
0.31711
0.317517
0.318122
0.318963
0.320025
0.322651
0.326873
0.33596
0.359814
0.445839
0.804007
1.54864
1.46261
1.29414
1.33336
1.48538
1.5201
1.45396
1.39861
1.3707
1.33963
1.30373
1.26962
1.13251
0.336597
0.317111
0.317518
0.31812
0.318976
0.320006
0.322589
0.326254
0.333824
0.352327
0.412439
0.661116
1.32394
1.5324
1.28624
1.29309
1.4331
1.50933
1.46805
1.3936
1.36332
1.32392
1.28707
1.25297
1.052
0.336597
0.31711
0.317517
0.318113
0.318985
0.319994
0.322606
0.32591
0.332089
0.346951
0.389781
0.546392
1.06514
1.58775
1.30668
1.26724
1.36316
1.48827
1.47642
1.39308
1.35232
1.31722
1.26424
1.2375
1.06021
0.336596
0.31711
0.317517
0.31811
0.318986
0.319991
0.322527
0.325951
0.330801
0.343313
0.375865
0.47615
0.840763
1.48346
1.36526
1.25204
1.29431
1.45462
1.47461
1.39665
1.34438
1.3106
1.24887
1.23324
1.10114
0.336597
0.317111
0.317517
0.318112
0.318981
0.319991
0.322496
0.32606
0.329932
0.340985
0.366909
0.434265
0.6706
1.22241
1.42867
1.25196
1.24453
1.39909
1.46562
1.40876
1.3452
1.30478
1.2274
1.21892
1.14428
0.336597
0.31711
0.317517
0.318113
0.318975
0.319989
0.322494
0.326057
0.329594
0.339363
0.361286
0.408528
0.550855
0.981701
1.47037
1.28881
1.21715
1.31546
1.43963
1.41689
1.35188
1.30713
1.21376
1.20161
1.17367
0.336597
0.317111
0.317517
0.318114
0.318974
0.319988
0.322491
0.326042
0.329454
0.338
0.35864
0.393946
0.483971
0.761354
1.27118
1.32509
1.2088
1.23298
1.39636
1.41586
1.3688
1.31511
1.21746
1.18712
1.17484
0.336597
0.317111
0.317517
0.318114
0.318974
0.319988
0.322484
0.326074
0.329394
0.337643
0.357657
0.383976
0.44853
0.623021
0.990644
1.35664
1.23933
1.1744
1.32832
1.41
1.3795
1.33237
1.23
1.18955
1.17249
0.336597
0.317111
0.317517
0.318114
0.318974
0.319989
0.322489
0.326056
0.32941
0.337474
0.35784
0.378281
0.428218
0.536279
0.77816
1.25199
1.27075
1.14601
1.25429
1.38537
1.37736
1.35188
1.26201
1.19805
1.1736
0.336597
0.317111
0.317517
0.318114
0.318974
0.319988
0.322486
0.326053
0.329389
0.33739
0.358244
0.375641
0.414641
0.495316
0.641016
0.930759
1.2789
1.15374
1.18647
1.32324
1.36844
1.35648
1.30902
1.22119
1.18
0.336598
0.317111
0.317517
0.318115
0.318975
0.319989
0.322486
0.326056
0.329389
0.337406
0.358604
0.375396
0.410096
0.481609
0.557513
0.724667
1.15399
1.17291
1.12921
1.22984
1.34358
1.35279
1.33345
1.26283
1.19988
0.336597
0.317111
0.317517
0.318114
0.318977
0.319989
0.32248
0.326063
0.329388
0.337407
0.358571
0.375463
0.409581
0.479152
0.512961
0.599705
0.825541
1.17587
1.0929
1.14088
1.27597
1.33881
1.33323
1.29982
1.23194
0.336598
0.317111
0.317517
0.318114
0.318975
0.319989
0.322485
0.326061
0.329389
0.337404
0.358477
0.375529
0.408371
0.479988
0.499886
0.539285
0.650626
0.978224
1.08234
1.06801
1.15853
1.29654
1.32432
1.30748
1.2581
0.336597
0.317111
0.317517
0.318114
0.318975
0.319989
0.322485
0.32606
0.32939
0.337398
0.358465
0.375472
0.407802
0.481358
0.498973
0.513366
0.568137
0.710178
1.01447
1.02066
1.05249
1.1938
1.29126
1.29728
1.26965
0.336597
0.317111
0.317517
0.318114
0.318977
0.31999
0.32248
0.326063
0.329392
0.337392
0.358451
0.375458
0.407722
0.481218
0.498599
0.510279
0.532176
0.593718
0.744456
0.960898
0.972405
1.0686
1.20912
1.26341
1.25716
0.336597
0.317111
0.317517
0.318114
0.318975
0.319989
0.322485
0.326059
0.32939
0.337401
0.358472
0.375478
0.407817
0.481163
0.499525
0.508413
0.531241
0.553534
0.605263
0.728767
0.898205
0.959945
1.08943
1.19106
1.22002
0.336597
0.317111
0.317517
0.318115
0.318975
0.319989
0.322486
0.326059
0.329389
0.337399
0.35847
0.375473
0.407803
0.481126
0.499534
0.50834
0.530818
0.544733
0.559198
0.597441
0.692414
0.858036
0.971566
1.0943
1.16752
0.336597
0.317111
0.317517
0.318115
0.318975
0.319989
0.322486
0.326057
0.329387
0.337397
0.358465
0.375469
0.407786
0.481113
0.499565
0.50832
0.530848
0.544444
0.546763
0.552112
0.579173
0.658265
0.833171
0.988547
1.09705
0.336598
0.317111
0.317518
0.318115
0.318975
0.319989
0.322487
0.326058
0.32939
0.337401
0.358475
0.375485
0.407797
0.481143
0.49961
0.508315
0.530782
0.544433
0.54545
0.54105
0.542227
0.561755
0.632714
0.817008
1.00602
0.336597
0.317111
0.317517
0.318114
0.318977
0.319989
0.32248
0.326059
0.329389
0.337388
0.358446
0.375454
0.407714
0.481006
0.499482
0.508154
0.53058
0.544246
0.545066
0.540892
0.532109
0.534197
0.552572
0.622554
0.788647
0.336598
0.317111
0.317518
0.318115
0.318976
0.31999
0.322488
0.326058
0.32939
0.337403
0.358478
0.375487
0.407792
0.481136
0.499611
0.508309
0.530766
0.544434
0.545251
0.541019
0.531577
0.53044
0.536755
0.569107
0.638618
0.336597
0.317111
0.317517
0.318114
0.318974
0.319988
0.322485
0.326057
0.329386
0.337396
0.358465
0.375468
0.407792
0.481111
0.499548
0.508313
0.530819
0.544435
0.545236
0.54097
0.53149
0.530033
0.534616
0.560112
0.609819
0.336598
0.317112
0.317518
0.318116
0.318976
0.31999
0.322489
0.326059
0.329391
0.337406
0.358486
0.375487
0.407784
0.481091
0.499562
0.508255
0.530719
0.544421
0.545254
0.541013
0.531498
0.529975
0.534001
0.558358
0.605767
0.336597
0.317111
0.317517
0.318114
0.318974
0.319988
0.322485
0.326057
0.329386
0.337396
0.358464
0.375465
0.40779
0.481106
0.499541
0.508308
0.530816
0.544435
0.545237
0.540969
0.531484
0.529975
0.533942
0.558244
0.605385
0.336598
0.317111
0.317518
0.318116
0.318976
0.31999
0.322489
0.326059
0.329392
0.337405
0.358483
0.375491
0.407791
0.481122
0.499594
0.508294
0.530753
0.544425
0.545247
0.541003
0.531503
0.52998
0.533922
0.558165
0.605259
0.336597
0.317111
0.317517
0.318114
0.318977
0.319989
0.32248
0.326058
0.329388
0.337386
0.358443
0.37545
0.407706
0.480995
0.499473
0.508151
0.530581
0.544241
0.54505
0.540791
0.53119
0.529657
0.533628
0.5579
0.605021
0.336598
0.317111
0.317518
0.318116
0.318976
0.31999
0.322489
0.326059
0.329392
0.337404
0.358481
0.37549
0.407786
0.481124
0.499603
0.508303
0.530763
0.544434
0.545254
0.541008
0.53151
0.529987
0.533928
0.558169
0.605258
0.336597
0.317111
0.317517
0.318114
0.318974
0.319988
0.322485
0.326055
0.329385
0.337394
0.358461
0.375463
0.407779
0.4811
0.499548
0.508312
0.530821
0.54444
0.54524
0.54097
0.531481
0.529969
0.533921
0.558206
0.605301
0.336598
0.317111
0.317518
0.318116
0.318975
0.31999
0.322488
0.326058
0.32939
0.337402
0.358479
0.375483
0.407781
0.481103
0.499581
0.508268
0.530726
0.544424
0.545253
0.54101
0.531497
0.529969
0.533909
0.558146
0.605227
0.336597
0.317111
0.317517
0.318114
0.318974
0.319988
0.322484
0.326056
0.329386
0.337394
0.358461
0.375463
0.407788
0.481106
0.49954
0.508306
0.530813
0.544426
0.545227
0.540958
0.531475
0.529965
0.533922
0.558218
0.605311
0.336598
0.317111
0.317518
0.318115
0.318975
0.319989
0.322486
0.326058
0.32939
0.3374
0.358472
0.37548
0.407797
0.481138
0.499597
0.508299
0.530755
0.54442
0.545239
0.540988
0.53149
0.529968
0.533913
0.55817
0.605262
0.336597
0.317111
0.317517
0.318113
0.318977
0.319989
0.322479
0.326059
0.329388
0.337384
0.358437
0.375444
0.407704
0.480994
0.499467
0.508146
0.530582
0.544246
0.545057
0.540796
0.531198
0.529666
0.533635
0.557907
0.605026
0.336597
0.317111
0.317517
0.318114
0.318975
0.319989
0.322485
0.326059
0.329389
0.337396
0.358462
0.37547
0.407793
0.481133
0.499583
0.508351
0.530852
0.544455
0.545252
0.540985
0.531516
0.530007
0.533955
0.558232
0.60533
0.336597
0.31711
0.317517
0.318113
0.318974
0.319988
0.322482
0.326058
0.329387
0.337392
0.358451
0.375456
0.407793
0.481134
0.499562
0.508346
0.530866
0.54446
0.545253
0.540977
0.531509
0.530004
0.533956
0.55825
0.605349
0.336597
0.317111
0.317517
0.318113
0.318977
0.319989
0.322478
0.326062
0.32939
0.337388
0.358442
0.375445
0.407721
0.480986
0.499441
0.508119
0.530552
0.544239
0.545063
0.54081
0.531218
0.529688
0.533661
0.557936
0.605036
0.336597
0.31711
0.317516
0.318113
0.318974
0.319987
0.32248
0.326059
0.329386
0.337391
0.35845
0.375453
0.40781
0.481148
0.499551
0.508329
0.530843
0.54444
0.545235
0.540958
0.531493
0.529991
0.53395
0.558261
0.605357
0.336597
0.31711
0.317517
0.318113
0.318974
0.319988
0.322482
0.326059
0.329387
0.337392
0.358452
0.37546
0.407794
0.481141
0.499579
0.508355
0.530862
0.544457
0.545251
0.540978
0.531514
0.530009
0.533959
0.558244
0.605344
0.336596
0.31711
0.317516
0.318112
0.318976
0.319987
0.322475
0.326061
0.329388
0.337379
0.358422
0.375429
0.407725
0.481023
0.499454
0.508196
0.530667
0.544262
0.545052
0.540771
0.531217
0.529704
0.533688
0.558011
0.605131
0.336597
0.31711
0.317516
0.318113
0.318974
0.319987
0.322482
0.326055
0.329385
0.337391
0.358454
0.375463
0.4078
0.48115
0.499591
0.508303
0.53077
0.54442
0.545232
0.540974
0.531479
0.52996
0.53391
0.558184
0.605281
0.336596