/*--------------------------------*- C++ -*----------------------------------*\
| =========                 |                                                 |
| \\      /  F ield         | OpenFOAM: The Open Source CFD Toolbox           |
|  \\    /   O peration     | Version:  4.1                                   |
|   \\  /    A nd           | Web:      www.OpenFOAM.org                      |
|    \\/     M anipulation  |                                                 |
\*---------------------------------------------------------------------------*/
FoamFile
{
    version     2.0;
    format      ascii;
    class       volVectorField;
    location    "0.38";
    object      U;
}
// * * * * * * * * * * * * * * * * * * * * * * * * * * * * * * * * * * * * * //

dimensions      [0 1 -1 0 0 0 0];

internalField   nonuniform List<vector> 
52500
(
(1.8205 -6.09726e-08 -0.00216152)
(1.84736 -2.23522e-07 -0.00196503)
(1.84669 -1.07466e-07 -0.00196686)
(1.84564 2.02385e-07 -0.00197052)
(1.84394 2.16816e-06 -0.00197619)
(1.84099 9.76254e-06 -0.00198863)
(1.83531 3.69591e-05 -0.00201779)
(1.82265 0.0001273 -0.00209088)
(1.78712 0.000436811 -0.00230664)
(1.64187 0.00169603 -0.00315904)
(0.898347 0.00806239 -0.0068207)
(-0.475236 0.0356686 -0.0124224)
(-0.733859 0.0331384 -0.0099085)
(-0.532942 0.0301583 -0.00933143)
(-0.474644 0.0301105 -0.00973371)
(-0.428621 0.0307867 -0.010623)
(-0.382533 0.0323195 -0.0107536)
(-0.344918 0.0337799 -0.010342)
(-0.320557 0.0349978 -0.0100432)
(-0.295264 0.036258 -0.00993913)
(-0.263389 0.0372771 -0.00976929)
(-0.219647 0.0376198 -0.0095841)
(-0.172183 0.0378599 -0.00943767)
(-0.137243 0.0388646 -0.00926114)
(0.00937956 0.0385565 -0.00880771)
(1.8205 -9.56503e-08 -0.00216151)
(1.84736 -5.83465e-07 -0.00196503)
(1.84669 -3.27153e-07 -0.00196685)
(1.84564 5.75773e-07 -0.0019705)
(1.84395 6.25067e-06 -0.00197609)
(1.84101 2.80948e-05 -0.00198833)
(1.8354 0.00010901 -0.00201691)
(1.823 0.000377121 -0.00208827)
(1.78848 0.00129382 -0.00229757)
(1.64884 0.00497375 -0.00311623)
(0.929469 0.0237345 -0.00666775)
(-0.448168 0.101978 -0.0123083)
(-0.732575 0.0907975 -0.00992005)
(-0.530554 0.0774384 -0.00928201)
(-0.470039 0.0748664 -0.00965439)
(-0.423033 0.0752353 -0.0105635)
(-0.376651 0.0775003 -0.0107133)
(-0.338999 0.079995 -0.0103052)
(-0.314749 0.0829712 -0.00999442)
(-0.28999 0.0866322 -0.00988678)
(-0.259596 0.090178 -0.00971153)
(-0.217374 0.092378 -0.00952511)
(-0.170416 0.0937278 -0.00937662)
(-0.136749 0.0961575 -0.00920052)
(0.00992214 0.094397 -0.00873852)
(1.8205 -1.63899e-07 -0.00216152)
(1.84736 -1.13939e-06 -0.00196504)
(1.84669 -1.17546e-06 -0.00196682)
(1.84565 -2.42455e-07 -0.00197046)
(1.84396 7.22039e-06 -0.0019759)
(1.84107 4.01786e-05 -0.00198774)
(1.8356 0.000166873 -0.00201519)
(1.82367 0.000599029 -0.00208329)
(1.79112 0.0020609 -0.0022806)
(1.66242 0.0078466 -0.00303547)
(0.99505 0.0372921 -0.00632669)
(-0.394812 0.170122 -0.0121251)
(-0.731764 0.157182 -0.00999987)
(-0.529095 0.130828 -0.00922735)
(-0.463039 0.126348 -0.00954757)
(-0.41444 0.127842 -0.0104876)
(-0.367379 0.1316 -0.010671)
(-0.329588 0.135397 -0.0102743)
(-0.305403 0.140485 -0.00994716)
(-0.281269 0.146888 -0.00983579)
(-0.252615 0.153403 -0.00965786)
(-0.212539 0.157981 -0.00947001)
(-0.166569 0.160891 -0.00931817)
(-0.135506 0.165173 -0.00913933)
(0.0109288 0.162106 -0.00866866)
(1.8205 -2.09394e-07 -0.00216152)
(1.84736 -1.58925e-06 -0.00196505)
(1.84669 -2.394e-06 -0.00196677)
(1.84565 -2.11713e-06 -0.00197039)
(1.84398 4.89643e-06 -0.00197572)
(1.84115 4.14267e-05 -0.00198678)
(1.83588 0.00019937 -0.00201263)
(1.82462 0.000751581 -0.00207612)
(1.79479 0.00260327 -0.0022565)
(1.68092 0.00980498 -0.00292535)
(1.09328 0.0460699 -0.00587596)
(-0.300108 0.225411 -0.0117698)
(-0.726926 0.227024 -0.0101918)
(-0.528774 0.183827 -0.00915923)
(-0.453527 0.176754 -0.0094189)
(-0.402219 0.179122 -0.0103888)
(-0.354227 0.184297 -0.0106221)
(-0.315891 0.189787 -0.0102508)
(-0.291242 0.197603 -0.00989709)
(-0.267646 0.207428 -0.00978158)
(-0.241443 0.217117 -0.00959857)
(-0.20464 0.224265 -0.0094054)
(-0.16017 0.229153 -0.00925092)
(-0.133034 0.235943 -0.00906582)
(0.0129572 0.232037 -0.00857604)
(1.8205 -4.97106e-08 -0.00216152)
(1.84736 1.41816e-07 -0.00196506)
(1.84669 1.15065e-06 -0.00196675)
(1.84565 3.52814e-06 -0.00197033)
(1.844 1.43103e-05 -0.00197559)
(1.84123 5.81818e-05 -0.00198567)
(1.8362 0.000235504 -0.00200968)
(1.82572 0.00083228 -0.00206785)
(1.79899 0.00285731 -0.00222824)
(1.70169 0.0106987 -0.00280189)
(1.2096 0.0503347 -0.00538839)
(-0.167474 0.261668 -0.0112519)
(-0.713838 0.300602 -0.0104458)
(-0.532355 0.236433 -0.00907702)
(-0.441565 0.226358 -0.00925076)
(-0.387192 0.229794 -0.0102419)
(-0.338192 0.235927 -0.0105569)
(-0.298464 0.242986 -0.0102342)
(-0.272696 0.25368 -0.00984691)
(-0.24987 0.266831 -0.00972251)
(-0.226625 0.27954 -0.00953888)
(-0.193409 0.289604 -0.00934556)
(-0.150481 0.296787 -0.00918185)
(-0.129052 0.307067 -0.00897757)
(0.0159085 0.303014 -0.00847253)
(1.8205 -2.09237e-07 -0.00216152)
(1.84736 1.02227e-06 -0.00196504)
(1.84669 3.49338e-06 -0.00196675)
(1.84566 7.19338e-06 -0.00197025)
(1.84403 1.95967e-05 -0.00197521)
(1.84133 6.63408e-05 -0.00198457)
(1.83654 0.000243704 -0.00200681)
(1.82686 0.000831982 -0.002059)
(1.80337 0.00285691 -0.0021963)
(1.72366 0.0106902 -0.0026678)
(1.33551 0.0504252 -0.00483456)
(0.0247238 0.271116 -0.0104742)
(-0.688098 0.37866 -0.0107353)
(-0.542336 0.289432 -0.00898821)
(-0.428399 0.274824 -0.00908811)
(-0.370251 0.279656 -0.0100609)
(-0.3198 0.286408 -0.0104843)
(-0.277492 0.295135 -0.0102285)
(-0.249758 0.309 -0.00979457)
(-0.227663 0.325694 -0.00965272)
(-0.207507 0.342062 -0.00946437)
(-0.178335 0.356178 -0.00927005)
(-0.13663 0.366132 -0.00910335)
(-0.122704 0.381854 -0.00888619)
(0.0203542 0.379532 -0.00836797)
(1.8205 -5.15471e-07 -0.00216153)
(1.84736 -3.32074e-07 -0.00196504)
(1.8467 7.21761e-07 -0.00196676)
(1.84567 2.16197e-06 -0.00197018)
(1.84405 8.70628e-06 -0.00197497)
(1.84142 4.07797e-05 -0.00198345)
(1.83685 0.000193826 -0.00200403)
(1.82796 0.000743673 -0.0020502)
(1.80757 0.00265637 -0.00216517)
(1.74435 0.00988709 -0.00253773)
(1.45514 0.0452413 -0.00419743)
(0.281006 0.243734 -0.00937545)
(-0.639218 0.459807 -0.0110198)
(-0.558509 0.34475 -0.00888723)
(-0.413966 0.322417 -0.00893335)
(-0.351391 0.327461 -0.00981644)
(-0.299473 0.335405 -0.01039)
(-0.25294 0.346359 -0.0102354)
(-0.222171 0.363463 -0.00974937)
(-0.200675 0.383974 -0.00958023)
(-0.183161 0.404578 -0.00938941)
(-0.158404 0.424057 -0.00917859)
(-0.116788 0.437517 -0.00900335)
(-0.11198 0.462042 -0.00877997)
(0.0274981 0.463794 -0.00819466)
(1.8205 -2.01918e-07 -0.00216154)
(1.84736 -6.12465e-07 -0.00196504)
(1.8467 -8.34198e-07 -0.00196678)
(1.84567 -1.20485e-06 -0.00197011)
(1.84406 -6.67263e-07 -0.00197491)
(1.84149 1.08313e-05 -0.00198249)
(1.83713 0.000129011 -0.00200152)
(1.82896 0.00061819 -0.00204191)
(1.81131 0.00234727 -0.00213739)
(1.76153 0.0086598 -0.00242839)
(1.55325 0.0372777 -0.00362926)
(0.588009 0.189434 -0.00796464)
(-0.550697 0.533792 -0.0114261)
(-0.578514 0.409017 -0.00887433)
(-0.400136 0.370347 -0.0087989)
(-0.33122 0.372717 -0.00952838)
(-0.276604 0.382714 -0.0102746)
(-0.225022 0.396921 -0.0102399)
(-0.18995 0.416867 -0.00972001)
(-0.168718 0.441114 -0.00950119)
(-0.152908 0.466683 -0.00931388)
(-0.132663 0.493848 -0.00910809)
(-0.0883209 0.512188 -0.00891964)
(-0.0946919 0.548846 -0.00864401)
(0.0382965 0.561311 -0.00803612)
(1.82049 8.03192e-09 -0.00216154)
(1.84736 -3.00537e-07 -0.00196504)
(1.8467 -1.05051e-06 -0.00196679)
(1.84567 -2.00612e-06 -0.00197012)
(1.84406 -4.04181e-06 -0.00197493)
(1.84153 -7.12012e-06 -0.00198187)
(1.83736 8.04866e-05 -0.00199976)
(1.82985 0.000496516 -0.00203415)
(1.81454 0.00200384 -0.00211301)
(1.77516 0.00730136 -0.00233895)
(1.62632 0.0294593 -0.00319549)
(0.883833 0.144451 -0.00667515)
(-0.390846 0.570761 -0.0113502)
(-0.59174 0.487877 -0.00908646)
(-0.39306 0.419034 -0.00866491)
(-0.311237 0.415918 -0.00919166)
(-0.251288 0.428616 -0.010126)
(-0.194191 0.446717 -0.0102154)
(-0.153658 0.46886 -0.00971365)
(-0.131637 0.496326 -0.00943225)
(-0.115078 0.52755 -0.00924407)
(-0.0994475 0.565726 -0.0090239)
(-0.0485343 0.591582 -0.00880593)
(-0.0655472 0.641223 -0.00853799)
(0.0572501 0.676847 -0.00772461)
(1.82049 -2.20155e-07 -0.00216154)
(1.84736 -1.98521e-07 -0.00196504)
(1.84669 -7.4982e-07 -0.00196679)
(1.84566 -1.49822e-06 -0.00197011)
(1.84406 -3.2276e-06 -0.00197499)
(1.84156 -9.3832e-06 -0.00198173)
(1.83755 4.48667e-05 -0.0019985)
(1.8306 0.00038075 -0.00202706)
(1.81719 0.00163138 -0.00209233)
(1.78562 0.00588399 -0.00226839)
(1.67948 0.0226099 -0.00287817)
(1.17335 0.10758 -0.00542651)
(-0.145609 0.538399 -0.0106221)
(-0.579211 0.578999 -0.00955675)
(-0.398397 0.467798 -0.00854516)
(-0.292051 0.456827 -0.00886335)
(-0.223741 0.473039 -0.00989963)
(-0.161549 0.495228 -0.010168)
(-0.113983 0.518816 -0.00975078)
(-0.0896346 0.54959 -0.00937305)
(-0.0683273 0.585854 -0.00916709)
(-0.0572346 0.637799 -0.00892456)
(0.00494129 0.677028 -0.00866642)
(-0.0141763 0.746852 -0.00837776)
(0.086284 0.851626 -0.0073881)
(1.8205 1.2648e-07 -2.56988e-09)
(1.84736 2.17477e-07 -7.37902e-10)
(1.84669 7.08519e-07 1.12964e-10)
(1.84564 1.54325e-06 -5.02184e-11)
(1.84394 4.25605e-06 -1.01605e-09)
(1.84098 1.29208e-05 -4.09898e-09)
(1.8353 4.16295e-05 -1.50243e-08)
(1.82264 0.000134132 -4.93173e-08)
(1.78707 0.000447262 -1.7786e-07)
(1.64167 0.00171593 -7.76516e-07)
(0.897351 0.0081281 -3.49919e-06)
(-0.47594 0.0358645 -4.07699e-06)
(-0.733615 0.0332337 1.95445e-06)
(-0.532602 0.0302754 5.96679e-07)
(-0.474417 0.0301877 4.52617e-07)
(-0.428549 0.0308122 5.6903e-07)
(-0.382572 0.032319 5.00722e-07)
(-0.345004 0.0337803 3.66638e-07)
(-0.320632 0.0349979 2.95463e-07)
(-0.295321 0.0362549 3.09028e-07)
(-0.263427 0.0372724 3.22229e-07)
(-0.219671 0.0376148 3.98844e-07)
(-0.172204 0.0378554 4.86893e-07)
(-0.137252 0.0388623 5.28977e-07)
(0.00938698 0.0385684 5.00805e-07)
(1.8205 2.46291e-09 -2.49217e-09)
(1.84736 -2.86491e-07 -6.46365e-10)
(1.84669 2.36715e-07 2.22205e-10)
(1.84564 1.4395e-06 1.04568e-10)
(1.84395 7.45723e-06 -5.64275e-10)
(1.84101 2.96665e-05 -2.75154e-09)
(1.8354 0.000110255 -1.08325e-08)
(1.82299 0.000375697 -3.75537e-08)
(1.78845 0.00128238 -1.37626e-07)
(1.64869 0.00492631 -6.13191e-07)
(0.928737 0.0235169 -3.07908e-06)
(-0.447884 0.101247 -4.09603e-06)
(-0.731825 0.0906437 1.62236e-06)
(-0.529882 0.0775493 6.20992e-07)
(-0.469678 0.0750207 4.21384e-07)
(-0.422924 0.0753419 5.21463e-07)
(-0.376693 0.077542 4.51669e-07)
(-0.339088 0.0800149 3.30346e-07)
(-0.314833 0.0829791 2.95262e-07)
(-0.290056 0.0866303 3.10099e-07)
(-0.259642 0.0901728 3.21652e-07)
(-0.217406 0.0923711 3.95615e-07)
(-0.170445 0.0937157 4.8057e-07)
(-0.136756 0.0961396 5.18493e-07)
(0.00993989 0.0944043 4.92609e-07)
(1.8205 1.10197e-07 -1.5162e-09)
(1.84736 -3.4629e-07 1.30887e-09)
(1.84669 3.32552e-07 2.80477e-09)
(1.84564 2.16498e-06 2.77403e-09)
(1.84396 1.08593e-05 2.33485e-09)
(1.84107 4.55005e-05 6.97824e-10)
(1.83559 0.000174141 -5.4813e-09)
(1.82364 0.000607493 -2.72802e-08)
(1.79104 0.00206756 -1.12164e-07)
(1.66204 0.00783737 -5.0049e-07)
(0.993149 0.037187 -2.4742e-06)
(-0.397167 0.169818 -4.12943e-06)
(-0.732481 0.15726 1.48504e-06)
(-0.529682 0.131085 6.23791e-07)
(-0.46356 0.126543 4.07715e-07)
(-0.414785 0.12793 4.12623e-07)
(-0.367572 0.131604 2.92935e-07)
(-0.329715 0.135391 2.23035e-07)
(-0.3055 0.140474 2.70829e-07)
(-0.281338 0.146875 2.98266e-07)
(-0.252654 0.153391 3.11738e-07)
(-0.21256 0.157969 3.87522e-07)
(-0.166587 0.160875 4.71123e-07)
(-0.135504 0.165148 4.99646e-07)
(0.0109334 0.16211 4.81118e-07)
(1.8205 3.09682e-08 -1.94042e-09)
(1.84736 -9.55576e-07 8.05956e-10)
(1.84669 -1.23679e-06 2.4118e-09)
(1.84565 -3.1757e-07 2.43116e-09)
(1.84398 7.6404e-06 2.28195e-09)
(1.84115 4.55808e-05 1.01294e-09)
(1.83588 0.000205395 -2.69793e-09)
(1.82461 0.000760033 -1.95706e-08)
(1.79474 0.00261698 -8.2885e-08)
(1.68068 0.00983813 -3.6138e-07)
(1.09192 0.0462194 -1.67659e-06)
(-0.300894 0.22574 -3.8928e-06)
(-0.726797 0.226835 1.19948e-06)
(-0.528898 0.183998 7.3907e-07)
(-0.45395 0.176835 4.08641e-07)
(-0.402604 0.179114 3.94882e-07)
(-0.354467 0.184224 1.94371e-07)
(-0.316022 0.189725 9.96217e-08)
(-0.291334 0.197556 1.90692e-07)
(-0.267708 0.207391 2.6221e-07)
(-0.241471 0.21709 2.95176e-07)
(-0.204647 0.224246 3.67563e-07)
(-0.160177 0.229134 4.53281e-07)
(-0.133025 0.235914 4.71825e-07)
(0.012946 0.232042 4.63444e-07)
(1.8205 6.69577e-08 4.30366e-10)
(1.84736 5.59159e-07 3.89862e-09)
(1.84669 1.99964e-06 5.98604e-09)
(1.84565 4.91739e-06 6.04134e-09)
(1.844 1.6355e-05 5.67979e-09)
(1.84123 6.13173e-05 5.7969e-09)
(1.8362 0.000240604 -4.67376e-10)
(1.82571 0.000842575 -1.35398e-08)
(1.79893 0.00287929 -6.73808e-08)
(1.70145 0.0107551 -2.65832e-07)
(1.20842 0.050538 -1.07907e-06)
(-0.169343 0.262395 -2.89747e-06)
(-0.71495 0.300712 1.15209e-06)
(-0.533059 0.236458 4.88889e-07)
(-0.442439 0.226176 3.03558e-07)
(-0.38777 0.22954 2.53561e-07)
(-0.338469 0.235717 1.18657e-07)
(-0.298583 0.242844 1.15459e-08)
(-0.272773 0.253581 9.5909e-08)
(-0.249914 0.266761 1.80495e-07)
(-0.226634 0.279496 2.58234e-07)
(-0.1934 0.289574 3.4261e-07)
(-0.150479 0.296759 4.34162e-07)
(-0.129037 0.307036 4.40615e-07)
(0.0158877 0.303026 4.2783e-07)
(1.8205 -1.11027e-07 -1.43269e-09)
(1.84736 1.42598e-06 1.83544e-09)
(1.8467 4.3422e-06 3.87376e-09)
(1.84566 8.62716e-06 3.94419e-09)
(1.84403 2.17982e-05 3.73275e-09)
(1.84134 6.98733e-05 3.73996e-09)
(1.83654 0.000250124 -9.89176e-10)
(1.82687 0.000846649 -1.27721e-08)
(1.80337 0.00289301 -6.39006e-08)
(1.72357 0.0107889 -2.59099e-07)
(1.33495 0.0507705 -1.12352e-06)
(0.0239532 0.272385 -3.01406e-06)
(-0.688142 0.379488 7.87628e-07)
(-0.542292 0.289458 3.11428e-07)
(-0.428739 0.274599 1.68689e-07)
(-0.37053 0.279318 1.6247e-07)
(-0.319917 0.286102 5.12682e-09)
(-0.277542 0.294905 -1.19848e-07)
(-0.249795 0.308848 -3.44171e-08)
(-0.227673 0.325595 8.36104e-08)
(-0.20749 0.342 2.07543e-07)
(-0.17831 0.356134 3.12428e-07)
(-0.13662 0.366096 3.94439e-07)
(-0.122679 0.381822 4.00602e-07)
(0.0203316 0.379549 3.93839e-07)
(1.8205 -2.15865e-07 2.33958e-09)
(1.84736 3.11459e-07 7.14908e-09)
(1.8467 1.76253e-06 1.02031e-08)
(1.84567 3.62135e-06 1.03673e-08)
(1.84405 1.07802e-05 1.0387e-08)
(1.84143 4.38664e-05 1.40707e-08)
(1.83686 0.000198062 1.31533e-08)
(1.82797 0.000750309 1.74215e-08)
(1.80758 0.00267098 2.12573e-08)
(1.74437 0.00993082 -5.52841e-08)
(1.4552 0.045422 -4.96151e-07)
(0.281306 0.244523 -1.66573e-06)
(-0.638429 0.460718 3.6315e-07)
(-0.557866 0.344833 2.9061e-07)
(-0.413568 0.322237 9.55668e-08)
(-0.351236 0.327151 7.19931e-08)
(-0.29941 0.335091 -8.83217e-09)
(-0.252895 0.346083 -2.04454e-07)
(-0.222139 0.363277 -1.32802e-07)
(-0.200638 0.383854 -4.35971e-08)
(-0.183113 0.404501 1.19423e-07)
(-0.158358 0.424001 2.48385e-07)
(-0.116765 0.437474 3.51883e-07)
(-0.111945 0.462009 3.56838e-07)
(0.0274747 0.463814 3.37546e-07)
(1.8205 -1.10537e-08 2.30677e-10)
(1.84737 -2.22778e-08 4.41284e-09)
(1.8467 2.91138e-07 7.70486e-09)
(1.84567 5.95573e-07 7.97149e-09)
(1.84406 2.10511e-06 8.33992e-09)
(1.8415 1.51913e-05 1.22837e-08)
(1.83714 0.000135525 1.20881e-08)
(1.82898 0.000627358 2.61013e-08)
(1.81134 0.00235995 3.28212e-08)
(1.76159 0.00867934 1.8498e-08)
(1.5534 0.0373173 -9.87576e-08)
(0.588277 0.189585 -6.05106e-07)
(-0.550383 0.53431 8.9196e-08)
(-0.578261 0.409153 3.04028e-07)
(-0.399836 0.370194 1.36232e-08)
(-0.331026 0.372425 -3.26608e-08)
(-0.276488 0.382424 1.23568e-08)
(-0.224923 0.396671 -2.21597e-07)
(-0.189854 0.41669 -2.43524e-07)
(-0.168631 0.440986 -1.63943e-07)
(-0.152826 0.466598 2.25827e-08)
(-0.132596 0.493782 1.83763e-07)
(-0.088285 0.512139 3.02077e-07)
(-0.0946474 0.548809 3.04515e-07)
(0.0382748 0.561335 2.89165e-07)
(1.8205 5.33628e-10 3.49139e-09)
(1.84736 6.49241e-08 1.07816e-08)
(1.8467 -1.71651e-07 1.60093e-08)
(1.84567 -5.00718e-07 1.64701e-08)
(1.84406 -1.6217e-06 1.76678e-08)
(1.84154 -3.19458e-06 2.27773e-08)
(1.83737 8.7663e-05 2.71238e-08)
(1.82986 0.000507415 3.60839e-08)
(1.81456 0.00201873 5.3639e-08)
(1.7752 0.00732089 6.81202e-08)
(1.62644 0.0294841 4.03184e-08)
(0.884165 0.144478 -1.7581e-07)
(-0.39063 0.570981 2.33647e-09)
(-0.591684 0.488024 7.4283e-07)
(-0.392936 0.418912 5.74358e-08)
(-0.311102 0.415669 1.59894e-07)
(-0.251157 0.428357 7.24554e-08)
(-0.19405 0.446519 -1.22337e-07)
(-0.153529 0.468706 -2.82325e-07)
(-0.131521 0.496208 -2.90888e-07)
(-0.114965 0.527464 -9.04045e-08)
(-0.0993554 0.565658 7.80884e-08)
(-0.0484826 0.591528 2.35743e-07)
(-0.0654919 0.641184 2.50681e-07)
(0.057231 0.676876 2.36048e-07)
(1.8205 5.41062e-08 1.99057e-09)
(1.84737 3.79514e-07 1.00102e-08)
(1.8467 2.01904e-07 1.57142e-08)
(1.84567 -1.07824e-07 1.61873e-08)
(1.84406 -1.32357e-06 1.72672e-08)
(1.84157 -7.09386e-06 2.20463e-08)
(1.83757 4.88706e-05 3.13348e-08)
(1.83062 0.000387012 4.99547e-08)
(1.81722 0.00164005 8.32697e-08)
(1.78568 0.00589394 1.33488e-07)
(1.67962 0.0226159 2.23918e-07)
(1.17378 0.107569 3.36274e-07)
(-0.145169 0.538441 6.2631e-07)
(-0.579103 0.579159 2.01678e-07)
(-0.398247 0.467754 2.64014e-07)
(-0.291868 0.456657 3.23439e-07)
(-0.223568 0.472835 1.85152e-07)
(-0.161374 0.495076 -1.05363e-07)
(-0.113829 0.51868 -3.83593e-07)
(-0.0894929 0.549494 -3.12293e-07)
(-0.0681915 0.585775 -1.88433e-07)
(-0.0571231 0.637735 1.64404e-09)
(0.00500524 0.676972 1.73882e-07)
(-0.0141074 0.746812 2.27643e-07)
(0.0862672 0.851656 1.95574e-07)
(1.8205 -5.8867e-08 3.69801e-09)
(1.84736 -2.21851e-07 7.35563e-09)
(1.84669 -1.06044e-07 9.88826e-09)
(1.84564 2.06287e-07 1.00555e-08)
(1.84394 2.18472e-06 1.0282e-08)
(1.84099 9.81301e-06 1.11333e-08)
(1.8353 3.71709e-05 1.19142e-08)
(1.82265 0.000128065 1.22155e-08)
(1.78708 0.000439466 4.80181e-09)
(1.64167 0.00170663 -2.70712e-08)
(0.897416 0.00811185 2.7823e-08)
(-0.475938 0.035819 1.46055e-06)
(-0.733971 0.0331722 1.29498e-06)
(-0.533102 0.0301554 1.54544e-07)
(-0.47484 0.0300837 1.85907e-07)
(-0.428767 0.0307476 1.90747e-07)
(-0.382631 0.0322926 -1.63687e-07)
(-0.344976 0.033766 -3.56207e-07)
(-0.320581 0.034992 -3.76386e-07)
(-0.29527 0.0362554 -3.26014e-07)
(-0.263382 0.0372746 -2.72834e-07)
(-0.219637 0.0376167 -1.69894e-07)
(-0.172183 0.0378567 -6.91215e-08)
(-0.137242 0.0388635 -6.63647e-09)
(0.00939064 0.0385692 1.42495e-08)
(1.8205 2.71911e-08 2.62558e-09)
(1.84736 -2.26814e-07 6.10899e-09)
(1.84669 3.47335e-07 8.49314e-09)
(1.84564 1.64548e-06 8.74098e-09)
(1.84395 7.85784e-06 9.30349e-09)
(1.84102 3.0512e-05 1.10123e-08)
(1.8354 0.000112667 1.38116e-08)
(1.82299 0.000382952 1.85189e-08)
(1.78846 0.00130441 2.1037e-08)
(1.64868 0.00499963 -8.62397e-09)
(0.928705 0.0238276 -3.77548e-07)
(-0.44856 0.102189 1.29261e-06)
(-0.732434 0.090829 1.39566e-06)
(-0.5305 0.0774288 1.04399e-07)
(-0.470064 0.0748227 1.13188e-07)
(-0.423086 0.0751799 1.0098e-07)
(-0.376704 0.0774623 -1.19881e-07)
(-0.339041 0.0799823 -3.23529e-07)
(-0.314772 0.0829699 -3.67413e-07)
(-0.29 0.0866348 -3.32623e-07)
(-0.259596 0.0901812 -2.7208e-07)
(-0.217372 0.092378 -1.64188e-07)
(-0.170424 0.0937206 -6.37544e-08)
(-0.136746 0.0961435 -3.09828e-09)
(0.00994328 0.0944072 1.67164e-08)
(1.8205 -9.72804e-08 4.70912e-09)
(1.84736 -9.01193e-07 8.49951e-09)
(1.84669 -6.94174e-07 1.10889e-08)
(1.84565 5.37091e-07 1.17933e-08)
(1.84396 8.41103e-06 1.34342e-08)
(1.84107 4.19834e-05 2.11699e-08)
(1.8356 0.000169609 3.71008e-08)
(1.82367 0.000603301 8.58218e-08)
(1.7911 0.00206876 2.31944e-07)
(1.6623 0.00786687 7.98401e-07)
(0.994366 0.037375 3.5307e-06)
(-0.395351 0.170346 4.27881e-06)
(-0.731747 0.157231 -2.35775e-06)
(-0.529069 0.130849 4.55321e-07)
(-0.463071 0.126333 2.58522e-07)
(-0.414484 0.127801 5.73312e-08)
(-0.367416 0.131555 -1.64891e-07)
(-0.329615 0.135375 -2.92469e-07)
(-0.305419 0.140477 -3.55702e-07)
(-0.281273 0.146889 -3.36731e-07)
(-0.252607 0.153407 -2.69581e-07)
(-0.212529 0.157982 -1.52066e-07)
(-0.166568 0.160883 -5.18067e-08)
(-0.135495 0.165155 4.64771e-09)
(0.0109363 0.162116 2.25255e-08)
(1.8205 1.11354e-08 1.49681e-09)
(1.84736 -1.08652e-06 4.02159e-09)
(1.84669 -1.5069e-06 5.83068e-09)
(1.84565 -7.3144e-07 6.28575e-09)
(1.84398 6.94578e-06 7.84136e-09)
(1.84115 4.44784e-05 1.28597e-08)
(1.83588 0.000203788 2.49328e-08)
(1.82462 0.00075842 5.99802e-08)
(1.79478 0.00261444 1.61182e-07)
(1.68084 0.00982789 5.2983e-07)
(1.09276 0.0461513 2.01999e-06)
(-0.300453 0.225658 4.18195e-06)
(-0.726779 0.227063 -1.81425e-06)
(-0.528631 0.183913 -1.91551e-07)
(-0.453507 0.176791 -3.67647e-08)
(-0.402246 0.179103 -2.46613e-07)
(-0.354251 0.184252 -2.22297e-07)
(-0.315902 0.189748 -2.58219e-07)
(-0.291242 0.197583 -3.29256e-07)
(-0.267638 0.207421 -3.3503e-07)
(-0.241425 0.217116 -2.5622e-07)
(-0.204619 0.224264 -1.34406e-07)
(-0.160161 0.229146 -3.92613e-08)
(-0.133017 0.235924 1.43803e-08)
(0.0129483 0.23205 3.07871e-08)
(1.8205 4.81094e-08 4.40266e-09)
(1.84736 3.79647e-07 7.17742e-09)
(1.84669 1.57266e-06 8.38277e-09)
(1.84565 4.17015e-06 8.71028e-09)
(1.844 1.52119e-05 9.7325e-09)
(1.84124 5.94456e-05 1.77041e-08)
(1.83621 0.000237245 2.53849e-08)
(1.82573 0.000835007 6.64092e-08)
(1.79898 0.00286163 1.68019e-07)
(1.70164 0.0107075 4.69776e-07)
(1.20926 0.050367 1.42724e-06)
(-0.167953 0.261808 3.70924e-06)
(-0.713987 0.3006 -1.58727e-06)
(-0.532385 0.236497 1.66844e-07)
(-0.441699 0.226345 8.79205e-08)
(-0.387313 0.229732 -1.64711e-07)
(-0.338244 0.235851 -2.00859e-07)
(-0.29847 0.242924 -2.54824e-07)
(-0.272682 0.253641 -3.22067e-07)
(-0.249848 0.266809 -3.15017e-07)
(-0.226596 0.279531 -2.26523e-07)
(-0.193379 0.289598 -1.1479e-07)
(-0.150467 0.296776 -2.73804e-08)
(-0.129031 0.307049 2.4788e-08)
(0.0158891 0.303036 3.82921e-08)
(1.8205 -1.45352e-07 1.08543e-09)
(1.84736 1.31634e-06 2.84097e-09)
(1.8467 4.14168e-06 4.25128e-09)
(1.84566 8.29645e-06 4.54873e-09)
(1.84403 2.13342e-05 5.56408e-09)
(1.84134 6.90456e-05 1.00976e-08)
(1.83654 0.000247742 1.84483e-08)
(1.82686 0.000838937 4.66377e-08)
(1.80337 0.00287115 1.23715e-07)
(1.72361 0.0107236 3.59983e-07)
(1.33516 0.0505269 1.26705e-06)
(0.0240348 0.271471 3.07458e-06)
(-0.68844 0.378898 -8.99153e-07)
(-0.542498 0.289511 7.99545e-08)
(-0.428678 0.274797 1.50949e-07)
(-0.37044 0.279568 -6.65177e-08)
(-0.319861 0.286288 -1.35687e-07)
(-0.277488 0.295036 -2.56706e-07)
(-0.249727 0.308937 -3.45319e-07)
(-0.227624 0.325656 -2.8268e-07)
(-0.207464 0.342041 -1.8901e-07)
(-0.178298 0.356162 -9.15842e-08)
(-0.136613 0.366115 -1.53614e-08)
(-0.122675 0.381836 3.51189e-08)
(0.0203321 0.37956 4.55738e-08)
(1.8205 -3.72964e-07 3.04341e-09)
(1.84737 1.09585e-08 5.28419e-09)
(1.8467 1.30642e-06 7.24718e-09)
(1.84567 2.99734e-06 7.45752e-09)
(1.84405 9.88108e-06 8.024e-09)
(1.84143 4.25807e-05 1.05624e-08)
(1.83686 0.000196226 1.52693e-08)
(1.82798 0.000747763 2.83345e-08)
(1.80759 0.0026655 6.3564e-08)
(1.74437 0.00991201 1.58012e-07)
(1.4551 0.0453333 5.90768e-07)
(0.280891 0.244115 1.72751e-06)
(-0.639012 0.460176 -2.82081e-07)
(-0.558351 0.344871 4.48031e-08)
(-0.41398 0.322404 2.02012e-07)
(-0.35146 0.327352 7.8258e-08)
(-0.299504 0.335263 -1.59727e-07)
(-0.252906 0.346228 -2.86001e-07)
(-0.222111 0.363375 -3.17965e-07)
(-0.200613 0.383917 -2.47156e-07)
(-0.183102 0.404543 -1.56009e-07)
(-0.158356 0.424031 -6.98167e-08)
(-0.116764 0.437495 -3.61563e-09)
(-0.111945 0.462024 4.46297e-08)
(0.0274741 0.463826 5.23366e-08)
(1.8205 -6.74863e-08 1.14326e-09)
(1.84736 -1.2319e-07 2.73061e-09)
(1.8467 1.04981e-07 4.0482e-09)
(1.84567 2.39259e-07 4.20396e-09)
(1.84406 1.52013e-06 4.57627e-09)
(1.84149 1.43762e-05 5.95964e-09)
(1.83714 0.000134528 7.12659e-09)
(1.82897 0.000626256 1.15425e-08)
(1.81133 0.00235886 1.63129e-08)
(1.76155 0.00867895 2.13535e-08)
(1.55324 0.037323 2.65848e-08)
(0.587837 0.189619 -9.80739e-08)
(-0.550736 0.534098 3.61576e-07)
(-0.578532 0.409138 4.97941e-07)
(-0.400221 0.370286 7.63569e-08)
(-0.331292 0.372544 1.86215e-08)
(-0.276617 0.382544 -1.89263e-07)
(-0.224964 0.396786 -2.24203e-07)
(-0.189858 0.416772 -2.39927e-07)
(-0.16863 0.441043 -2.11932e-07)
(-0.15283 0.466637 -1.35255e-07)
(-0.132602 0.49381 -5.25e-08)
(-0.0882913 0.512159 7.36323e-09)
(-0.0946502 0.548824 5.2976e-08)
(0.038273 0.561346 5.84872e-08)
(1.8205 8.3338e-09 2.38865e-09)
(1.84737 1.07957e-07 5.0108e-09)
(1.8467 -7.64613e-08 7.43344e-09)
(1.84567 -3.55434e-07 7.85242e-09)
(1.84407 -1.34321e-06 9.18564e-09)
(1.84154 -2.5369e-06 1.19192e-08)
(1.83738 8.85708e-05 1.42435e-08)
(1.82987 0.000508563 1.55737e-08)
(1.81456 0.00202086 1.71505e-08)
(1.7752 0.00732722 5.83724e-09)
(1.62639 0.0295101 -9.35526e-08)
(0.883825 0.144601 -6.92448e-07)
(-0.390807 0.571093 -6.32949e-07)
(-0.591781 0.488001 1.93217e-07)
(-0.393148 0.418941 -5.05167e-08)
(-0.311264 0.415724 -2.79426e-08)
(-0.251243 0.428431 -1.29324e-07)
(-0.194092 0.446596 -1.41686e-07)
(-0.153546 0.468761 -2.03651e-07)
(-0.131532 0.496251 -2.12624e-07)
(-0.11498 0.527496 -1.28452e-07)
(-0.0993685 0.565681 -4.36066e-08)
(-0.0484943 0.591547 1.38323e-08)
(-0.0654974 0.641198 5.8786e-08)
(0.0572281 0.676886 6.04735e-08)
(1.8205 -2.70601e-08 1.42505e-09)
(1.84736 1.9522e-07 3.32066e-09)
(1.8467 -8.65611e-08 5.11949e-09)
(1.84567 -5.00651e-07 5.38467e-09)
(1.84406 -1.8282e-06 6.20891e-09)
(1.84157 -7.72021e-06 8.36262e-09)
(1.83756 4.79158e-05 1.01329e-08)
(1.83061 0.000385564 1.24941e-08)
(1.81721 0.00163869 1.3235e-08)
(1.78566 0.00589561 5.18614e-09)
(1.67957 0.0226315 -5.63259e-08)
(1.17355 0.107656 -4.16759e-07)
(-0.145266 0.53869 -1.35532e-06)
(-0.579048 0.579137 5.10194e-07)
(-0.398249 0.467745 1.48863e-07)
(-0.291883 0.456701 9.00367e-08)
(-0.223575 0.4729 -3.20468e-08)
(-0.161397 0.495124 -9.45596e-08)
(-0.11385 0.518719 -2.09831e-07)
(-0.08951 0.549521 -2.09988e-07)
(-0.0682123 0.585796 -1.42244e-07)
(-0.0571399 0.637751 -4.9852e-08)
(0.00498993 0.676986 1.00518e-08)
(-0.0141166 0.746823 5.71901e-08)
(0.0862632 0.851664 5.89488e-08)
(1.8205 -4.08935e-09 1.37371e-09)
(1.84736 -8.20699e-08 2.92296e-09)
(1.84669 1.5509e-07 4.28039e-09)
(1.84564 6.26802e-07 4.43059e-09)
(1.84394 2.82306e-06 4.83102e-09)
(1.84099 1.07576e-05 5.90763e-09)
(1.83531 3.85392e-05 8.0988e-09)
(1.82265 0.000130003 1.20949e-08)
(1.78709 0.000442157 1.62686e-08)
(1.64167 0.00171027 5.9727e-09)
(0.897366 0.00811604 -1.32498e-07)
(-0.475971 0.0358247 -3.77992e-07)
(-0.733954 0.0331848 -1.70911e-08)
(-0.533081 0.0301767 8.64995e-08)
(-0.474837 0.0300983 5.05654e-08)
(-0.428783 0.0307487 3.43311e-08)
(-0.382647 0.0322872 2.05416e-08)
(-0.344981 0.0337612 -6.1373e-08)
(-0.320572 0.0349876 -1.58087e-07)
(-0.295251 0.0362515 -2.04041e-07)
(-0.263363 0.0372721 -1.78826e-07)
(-0.219622 0.0376152 -1.58008e-07)
(-0.172175 0.0378557 -1.41062e-07)
(-0.137238 0.0388627 -1.17913e-07)
(0.00939084 0.0385686 -7.58505e-08)
(1.8205 -1.73034e-08 1.75437e-09)
(1.84736 -3.16424e-07 3.49315e-09)
(1.84669 1.98326e-07 5.02912e-09)
(1.84564 1.41807e-06 5.18047e-09)
(1.84395 7.52334e-06 5.55533e-09)
(1.84102 3.00267e-05 6.52979e-09)
(1.83541 0.000111883 8.39137e-09)
(1.823 0.00038147 1.13261e-08)
(1.78846 0.0013012 1.195e-08)
(1.64868 0.00499165 -1.11191e-08)
(0.928657 0.0238011 -1.99941e-07)
(-0.448555 0.102112 -4.22029e-07)
(-0.73239 0.0908037 8.88053e-08)
(-0.53046 0.0774498 1.6753e-07)
(-0.47006 0.0748465 8.79318e-08)
(-0.423103 0.0751833 5.48143e-08)
(-0.376719 0.0774545 1.84231e-08)
(-0.339044 0.0799729 -6.09499e-08)
(-0.314762 0.0829602 -1.51085e-07)
(-0.28998 0.0866252 -2.01349e-07)
(-0.259575 0.090174 -1.81552e-07)
(-0.217357 0.0923731 -1.58812e-07)
(-0.170416 0.0937172 -1.41748e-07)
(-0.136742 0.0961411 -1.15931e-07)
(0.00994362 0.0944053 -7.6216e-08)
(1.8205 -2.14412e-08 9.37793e-10)
(1.84736 -7.16453e-07 2.49392e-09)
(1.84669 -3.68027e-07 3.71654e-09)
(1.84565 1.0471e-06 3.78173e-09)
(1.84397 9.19507e-06 4.00219e-09)
(1.84108 4.31557e-05 4.33094e-09)
(1.83561 0.000171217 4.90699e-09)
(1.82367 0.000604976 4.0336e-09)
(1.7911 0.00206936 -5.75332e-09)
(1.66228 0.0078615 -6.37361e-08)
(0.994235 0.0373374 -3.75866e-07)
(-0.395412 0.170221 -6.34401e-07)
(-0.731727 0.157259 3.91265e-07)
(-0.529068 0.13094 2.06329e-07)
(-0.463125 0.126391 8.42593e-08)
(-0.41454 0.127809 9.82759e-08)
(-0.367444 0.131537 3.29555e-08)
(-0.329621 0.135358 -4.92827e-08)
(-0.305409 0.14046 -1.27842e-07)
(-0.281252 0.146873 -1.89373e-07)
(-0.252584 0.153394 -1.78039e-07)
(-0.212511 0.157973 -1.60061e-07)
(-0.166558 0.160877 -1.44894e-07)
(-0.13549 0.16515 -1.11868e-07)
(0.010937 0.162112 -8.42358e-08)
(1.8205 1.56575e-09 2.39226e-09)
(1.84736 -1.1291e-06 4.48351e-09)
(1.84669 -1.62018e-06 6.11664e-09)
(1.84565 -9.5522e-07 6.30317e-09)
(1.84399 6.55068e-06 6.64856e-09)
(1.84115 4.38204e-05 6.55964e-09)
(1.83588 0.000202676 6.6332e-09)
(1.82462 0.000756515 6.63189e-10)
(1.79477 0.00261062 -2.34743e-08)
(1.68081 0.0098184 -1.33066e-07)
(1.09252 0.0461206 -6.15524e-07)
(-0.300728 0.225553 -1.08498e-06)
(-0.72694 0.226996 9.75265e-07)
(-0.528869 0.183908 -2.70365e-08)
(-0.45375 0.17673 -1.13349e-08)
(-0.402407 0.179051 1.39253e-07)
(-0.354313 0.184199 3.43472e-09)
(-0.315909 0.189717 -4.80874e-08)
(-0.291233 0.197557 -1.01177e-07)
(-0.267615 0.207398 -1.63966e-07)
(-0.241398 0.217098 -1.72741e-07)
(-0.204598 0.224252 -1.55696e-07)
(-0.160149 0.229138 -1.45822e-07)
(-0.133011 0.235918 -1.01628e-07)
(0.0129494 0.232046 -9.85651e-08)
(1.8205 1.89878e-08 7.42188e-10)
(1.84736 3.78626e-07 2.17677e-09)
(1.84669 1.64877e-06 3.27443e-09)
(1.84565 4.36869e-06 3.32317e-09)
(1.844 1.55366e-05 3.31789e-09)
(1.84124 6.0086e-05 2.97996e-09)
(1.83621 0.000238649 1.48289e-09)
(1.82573 0.000839461 -4.66307e-09)
(1.79898 0.00287364 -2.69463e-08)
(1.7016 0.0107413 -1.02343e-07)
(1.20901 0.0504866 -3.77107e-07)
(-0.168555 0.262221 -1.36506e-06)
(-0.71456 0.3008 1.40631e-06)
(-0.532825 0.236447 -3.65681e-07)
(-0.442056 0.226191 -2.41342e-08)
(-0.387491 0.229587 1.14912e-07)
(-0.338296 0.235755 -2.3917e-08)
(-0.298464 0.242871 -5.58171e-08)
(-0.272669 0.253604 -1.0109e-07)
(-0.249821 0.266782 -1.47776e-07)
(-0.226564 0.27951 -1.67857e-07)
(-0.193353 0.289583 -1.62499e-07)
(-0.150452 0.296766 -1.55165e-07)