/*--------------------------------*- C++ -*----------------------------------*\
| =========                 |                                                 |
| \\      /  F ield         | OpenFOAM: The Open Source CFD Toolbox           |
|  \\    /   O peration     | Version:  4.1                                   |
|   \\  /    A nd           | Web:      www.OpenFOAM.org                      |
|    \\/     M anipulation  |                                                 |
\*---------------------------------------------------------------------------*/
FoamFile
{
    version     2.0;
    format      ascii;
    class       volVectorField;
    location    "7.82";
    object      U;
}
// * * * * * * * * * * * * * * * * * * * * * * * * * * * * * * * * * * * * * //

dimensions      [0 1 -1 0 0 0 0];

internalField   nonuniform List<vector> 
52500
(
(2.99999 1.40575e-08 -0.00571426)
(2.99998 7.83748e-08 -0.00571442)
(2.99995 2.90787e-07 -0.00571466)
(2.99987 7.47357e-07 -0.00571543)
(2.99971 2.05257e-06 -0.00571683)
(2.99925 4.69795e-06 -0.00572112)
(2.99835 1.21654e-05 -0.00572936)
(2.99557 2.73866e-05 -0.00575258)
(2.99058 6.99923e-05 -0.00580575)
(2.97256 0.000158151 -0.00592116)
(2.93919 0.000405782 -0.00632403)
(2.8176 0.00101032 -0.00695605)
(2.47904 0.00288811 -0.00970209)
(1.68179 0.00732925 -0.0148647)
(0.732237 0.0200313 -0.0180022)
(0.523076 0.0208693 -0.0184689)
(0.564265 0.0222329 -0.0185012)
(0.569553 0.0244788 -0.0185685)
(0.52016 0.0267566 -0.0187469)
(0.434414 0.0290543 -0.0189285)
(0.348987 0.0317731 -0.0191268)
(0.277776 0.0350571 -0.0192968)
(0.206627 0.0385839 -0.0194615)
(0.124913 0.042766 -0.0196241)
(0.0556178 0.0490071 -0.0197872)
(2.99999 4.29787e-08 -0.00571426)
(2.99998 2.39308e-07 -0.00571442)
(2.99995 8.88072e-07 -0.00571466)
(2.99987 2.27992e-06 -0.00571542)
(2.99972 6.26374e-06 -0.0057168)
(2.99926 1.43188e-05 -0.00572104)
(2.99837 3.71286e-05 -0.00572918)
(2.99562 8.32508e-05 -0.00575211)
(2.99069 0.000214289 -0.00580471)
(2.97284 0.000480137 -0.00591862)
(2.93992 0.00125195 -0.00631823)
(2.8195 0.00308537 -0.00693891)
(2.48473 0.00898246 -0.00966659)
(1.69436 0.0227852 -0.0147844)
(0.739893 0.0611845 -0.0179048)
(0.520852 0.060934 -0.0183978)
(0.56321 0.0624955 -0.0184266)
(0.569036 0.0669409 -0.0184863)
(0.519299 0.0712589 -0.0186565)
(0.433427 0.0755102 -0.0188298)
(0.348015 0.0803675 -0.01902)
(0.276304 0.0858984 -0.0191788)
(0.2041 0.0911028 -0.0193361)
(0.121048 0.0962798 -0.0194842)
(0.0514656 0.101923 -0.0196304)
(2.99999 7.45097e-08 -0.00571426)
(2.99998 4.14372e-07 -0.00571441)
(2.99995 1.53969e-06 -0.00571465)
(2.99988 3.95573e-06 -0.00571539)
(2.99972 1.08766e-05 -0.00571674)
(2.99928 2.49185e-05 -0.00572087)
(2.9984 6.4379e-05 -0.00572882)
(2.99572 0.000146118 -0.00575119)
(2.99091 0.000366742 -0.00580263)
(2.97341 0.000843814 -0.0059136)
(2.94142 0.00212774 -0.00630625)
(2.82352 0.00523598 -0.00690501)
(2.49701 0.0153794 -0.00959292)
(1.72234 0.0390771 -0.0146284)
(0.758145 0.105849 -0.0177646)
(0.51844 0.103468 -0.0183159)
(0.563678 0.105122 -0.0183404)
(0.571189 0.112729 -0.0183913)
(0.521403 0.12043 -0.0185529)
(0.435957 0.128579 -0.018717)
(0.351148 0.137579 -0.0188972)
(0.279257 0.147383 -0.0190474)
(0.206142 0.156856 -0.0191871)
(0.121796 0.165714 -0.0193345)
(0.0505941 0.173119 -0.0194677)
(3 1.0752e-07 -0.00571426)
(2.99998 5.97029e-07 -0.00571441)
(2.99996 2.2244e-06 -0.00571463)
(2.99988 5.72718e-06 -0.00571534)
(2.99973 1.57866e-05 -0.00571664)
(2.9993 3.63667e-05 -0.00572061)
(2.99847 9.34801e-05 -0.00572827)
(2.99587 0.000217192 -0.00574963)
(2.99128 0.000522218 -0.00579957)
(2.97428 0.00125503 -0.00590519)
(2.94368 0.00302018 -0.00628913)
(2.82965 0.00740147 -0.00685502)
(2.51568 0.0216101 -0.00948205)
(1.76577 0.0553036 -0.0143921)
(0.786135 0.151389 -0.0175832)
(0.514593 0.145886 -0.0182261)
(0.565145 0.147279 -0.0182455)
(0.575866 0.157991 -0.0182807)
(0.526552 0.169123 -0.0184326)
(0.442193 0.181487 -0.0185834)
(0.358384 0.195082 -0.0187515)
(0.286659 0.209726 -0.0188961)
(0.212731 0.224126 -0.0190296)
(0.126514 0.237383 -0.0191507)
(0.0519808 0.247078 -0.0192947)
(3 1.3326e-07 -0.00571426)
(2.99998 7.38749e-07 -0.0057144)
(2.99996 2.75763e-06 -0.00571461)
(2.99989 7.0999e-06 -0.00571528)
(2.99975 1.96179e-05 -0.00571651)
(2.99934 4.52363e-05 -0.00572024)
(2.99856 0.000116839 -0.00572753)
(2.99608 0.000270523 -0.00574728)
(2.99178 0.000662371 -0.00579569)
(2.97546 0.00154984 -0.00589256)
(2.94668 0.0039949 -0.00626654)
(2.83777 0.00950501 -0.00678942)
(2.54088 0.0273119 -0.00933485)
(1.82543 0.0714935 -0.0140668)
(0.823425 0.197811 -0.0173576)
(0.508734 0.188223 -0.0181303)
(0.567155 0.189004 -0.0181447)
(0.582516 0.202583 -0.0181608)
(0.534158 0.216908 -0.0183014)
(0.451622 0.233339 -0.0184379)
(0.369406 0.251652 -0.0185832)
(0.298176 0.271586 -0.0187006)
(0.223386 0.291709 -0.0188299)
(0.134525 0.31029 -0.0189602)
(0.0554168 0.323067 -0.0190748)
(3 1.44102e-07 -0.00571425)
(2.99998 7.9733e-07 -0.00571439)
(2.99996 2.97846e-06 -0.00571459)
(2.9999 7.6379e-06 -0.00571521)
(2.99976 2.11524e-05 -0.00571636)
(2.99938 4.8428e-05 -0.00571983)
(2.99865 0.000127454 -0.00572666)
(2.99633 0.000283531 -0.00574478)
(2.99235 0.000760745 -0.00579077)
(2.97701 0.00163451 -0.00587901)
(2.95048 0.00482954 -0.00623296)
(2.84756 0.0107539 -0.00670611)
(2.57306 0.0349597 -0.0091557)
(1.90141 0.0884179 -0.0136594)
(0.86793 0.247843 -0.0170833)
(0.49897 0.232435 -0.0180312)
(0.568796 0.230928 -0.0180387)
(0.590658 0.246794 -0.0180336)
(0.543952 0.264048 -0.0181612)
(0.464193 0.284753 -0.0182835)
(0.384362 0.308307 -0.0184188)
(0.314318 0.33438 -0.01852)
(0.239092 0.361579 -0.01861)
(0.146865 0.387719 -0.0187107)
(0.0610525 0.40596 -0.0188472)
(3 1.44139e-07 -0.00571425)
(2.99999 7.96525e-07 -0.00571438)
(2.99996 2.96903e-06 -0.00571456)
(2.9999 7.56112e-06 -0.00571514)
(2.99978 2.0922e-05 -0.0057162)
(2.99943 4.72308e-05 -0.00571943)
(2.99875 0.000127743 -0.00572573)
(2.99661 0.000262473 -0.00574266)
(2.99291 0.000824533 -0.00578471)
(2.9788 0.00149461 -0.00586733)
(2.95448 0.00566074 -0.00619012)
(2.86081 0.0112487 -0.0066333)
(2.61353 0.0433295 -0.00884207)
(1.99744 0.104317 -0.0130845)
(0.931623 0.298224 -0.0167222)
(0.49646 0.278727 -0.0178963)
(0.576715 0.273503 -0.0179095)
(0.604947 0.290417 -0.0178814)
(0.559435 0.30996 -0.0179977)
(0.482735 0.335085 -0.0180953)
(0.405611 0.364674 -0.0181934)
(0.337124 0.398328 -0.0182825)
(0.261905 0.434785 -0.0183646)
(0.166123 0.471915 -0.0184403)
(0.0710706 0.500592 -0.0185252)
(3 1.58744e-07 -0.00571425)
(2.99999 8.77705e-07 -0.00571436)
(2.99997 3.26634e-06 -0.00571454)
(2.99991 8.33693e-06 -0.00571507)
(2.9998 2.30198e-05 -0.00571606)
(2.99947 5.21267e-05 -0.00571907)
(2.99883 0.00014015 -0.00572479)
(2.99691 0.000290171 -0.00574138)
(2.99338 0.00091047 -0.00577748)
(2.98097 0.0015617 -0.00586002)
(2.95881 0.00642835 -0.00612965)
(2.87636 0.0120996 -0.00655503)
(2.66124 0.0478764 -0.00844338)
(2.11195 0.115061 -0.0123587)
(1.01732 0.34052 -0.016275)
(0.50994 0.327302 -0.0177163)
(0.595502 0.320468 -0.0177268)
(0.628684 0.335735 -0.0176925)
(0.583756 0.35581 -0.0178188)
(0.510244 0.384847 -0.0179088)
(0.435933 0.420892 -0.0179912)
(0.369515 0.463401 -0.0180182)
(0.295449 0.511757 -0.018053)
(0.1969 0.56544 -0.0180873)
(0.0887604 0.615217 -0.0181527)
(3 1.86893e-07 -0.00571425)
(2.99999 1.02788e-06 -0.00571435)
(2.99997 3.81678e-06 -0.00571451)
(2.99992 9.78836e-06 -0.00571499)
(2.99982 2.69091e-05 -0.00571587)
(2.99953 6.155e-05 -0.00571857)
(2.99895 0.000161173 -0.0057237)
(2.99725 0.000354812 -0.00573871)
(2.99398 0.000974934 -0.00577007)
(2.98333 0.00194475 -0.00584809)
(2.96346 0.00642614 -0.00606862)
(2.89285 0.0126901 -0.0064691)
(2.7114 0.0461874 -0.00802916)
(2.23925 0.112171 -0.0115385)
(1.1295 0.342341 -0.0157344)
(0.553112 0.369993 -0.0174763)
(0.629943 0.37241 -0.0175015)
(0.663207 0.382654 -0.0174479)
(0.619158 0.402094 -0.0175636)
(0.549651 0.434451 -0.0176283)
(0.478467 0.47754 -0.0177092)
(0.414745 0.52912 -0.0177269)
(0.344669 0.591459 -0.0177005)
(0.248901 0.670564 -0.0176361)
(0.123049 0.763916 -0.0175239)
(3 3.42713e-07 -0.00571425)
(2.99999 6.38048e-07 -0.00571434)
(2.99997 5.03761e-06 -0.00571447)
(2.99993 7.53662e-06 -0.00571489)
(2.99984 3.42601e-05 -0.00571567)
(2.99959 4.87739e-05 -0.00571801)
(2.99908 0.000205754 -0.00572254)
(2.99758 0.000275899 -0.00573551)
(2.9947 0.00125862 -0.0057632)
(2.98547 0.0013406 -0.00583145)
(2.96795 0.00847051 -0.00602105)
(2.90744 0.00672293 -0.00638441)
(2.75413 0.0545757 -0.00768731)
(2.34652 0.085211 -0.0108814)
(1.25641 0.311594 -0.0152226)
(0.61634 0.411851 -0.0171779)
(0.664235 0.43306 -0.0172334)
(0.695584 0.429735 -0.0172501)
(0.659561 0.449403 -0.0173581)
(0.598463 0.483299 -0.0173816)
(0.532785 0.532892 -0.0173898)
(0.474334 0.592993 -0.0173589)
(0.416332 0.673958 -0.017255)
(0.338938 0.795383 -0.0170414)
(0.189702 1.00239 -0.0166196)
(2.99999 1.44216e-08 -2.63647e-09)
(2.99998 7.8397e-08 -8.61093e-09)
(2.99995 2.91229e-07 -1.01772e-08)
(2.99987 7.47407e-07 -1.59263e-08)
(2.99971 2.05234e-06 -1.6304e-08)
(2.99925 4.69647e-06 -2.15807e-08)
(2.99834 1.21611e-05 -2.21391e-08)
(2.99557 2.73757e-05 -3.01903e-08)
(2.99058 6.99704e-05 -3.20503e-08)
(2.97256 0.000158098 -6.55021e-08)
(2.93917 0.000405714 -4.40229e-08)
(2.81759 0.00101021 -2.15982e-07)
(2.479 0.00288797 -1.83386e-07)
(1.68169 0.00732935 -6.75468e-07)
(0.732195 0.0200309 -6.66358e-07)
(0.52311 0.0208696 -7.36703e-09)
(0.564285 0.0222334 -5.05376e-08)
(0.569564 0.0244794 -1.00385e-07)
(0.52017 0.0267572 -1.05101e-07)
(0.434423 0.0290551 -1.09217e-07)
(0.348995 0.0317739 -1.09925e-07)
(0.277782 0.035058 -1.13136e-07)
(0.20663 0.0385851 -1.15363e-07)
(0.124914 0.0427674 -1.17026e-07)
(0.055617 0.0490074 -1.17095e-07)
(2.99999 4.40039e-08 -2.62919e-09)
(2.99998 2.39443e-07 -8.61684e-09)
(2.99995 8.8939e-07 -1.01707e-08)
(2.99987 2.28018e-06 -1.5933e-08)
(2.99971 6.26341e-06 -1.63107e-08)
(2.99926 1.43155e-05 -2.16056e-08)
(2.99836 3.7119e-05 -2.21957e-08)
(2.99562 8.32313e-05 -3.03227e-08)
(2.99069 0.000214241 -3.22729e-08)
(2.97283 0.000480068 -6.61367e-08)
(2.9399 0.00125182 -4.43139e-08)
(2.81948 0.00308533 -2.16801e-07)
(2.48469 0.00898207 -1.83374e-07)
(1.69426 0.0227852 -6.73953e-07)
(0.739851 0.0611816 -6.7058e-07)
(0.520888 0.0609329 -3.41067e-09)
(0.563231 0.0624952 -4.92287e-08)
(0.569048 0.066941 -9.97007e-08)
(0.51931 0.0712598 -1.04125e-07)
(0.433437 0.075512 -1.08019e-07)
(0.348023 0.08037 -1.08926e-07)
(0.276309 0.0859014 -1.12326e-07)
(0.204103 0.0911058 -1.14522e-07)
(0.121048 0.0962822 -1.15972e-07)
(0.0514652 0.101923 -1.1602e-07)
(2.99999 7.62427e-08 -2.61598e-09)
(2.99998 4.1435e-07 -8.62627e-09)
(2.99995 1.5409e-06 -1.01586e-08)
(2.99988 3.95309e-06 -1.59443e-08)
(2.99972 1.08669e-05 -1.63192e-08)
(2.99927 2.48881e-05 -2.16392e-08)
(2.9984 6.43084e-05 -2.22683e-08)
(2.99572 0.00014586 -3.03978e-08)
(2.99091 0.000366567 -3.26299e-08)
(2.97341 0.000842227 -6.59971e-08)
(2.94141 0.00212804 -4.51008e-08)
(2.82351 0.00523455 -2.14944e-07)
(2.49697 0.0153805 -1.8653e-07)
(1.72224 0.0390787 -6.77229e-07)
(0.758101 0.105847 -6.93159e-07)
(0.518474 0.103469 2.48435e-09)
(0.563697 0.105123 -4.75423e-08)
(0.5712 0.11273 -9.84569e-08)
(0.521413 0.120432 -1.0197e-07)
(0.435966 0.128582 -1.04948e-07)
(0.351156 0.137583 -1.06642e-07)
(0.279263 0.147387 -1.10484e-07)
(0.206146 0.156861 -1.13009e-07)
(0.121798 0.165718 -1.14748e-07)
(0.0505948 0.17312 -1.15615e-07)
(2.99999 1.10318e-07 -2.59465e-09)
(2.99998 5.97721e-07 -8.64766e-09)
(2.99995 2.22976e-06 -1.01549e-08)
(2.99988 5.72639e-06 -1.60052e-08)
(2.99973 1.57961e-05 -1.64585e-08)
(2.9993 3.63687e-05 -2.20212e-08)
(2.99846 9.34878e-05 -2.30115e-08)
(2.99587 0.0002172 -3.40424e-08)
(2.99127 0.000522206 -3.09588e-08)
(2.97428 0.00125536 -9.32234e-08)
(2.94367 0.00301868 -1.34023e-08)
(2.82963 0.00740241 -2.43625e-07)
(2.51565 0.0216076 -1.49677e-07)
(1.76568 0.0553002 -6.75185e-07)
(0.786106 0.151379 -7.11756e-07)
(0.514645 0.145884 1.36966e-08)
(0.565176 0.14728 -4.8014e-08)
(0.575886 0.157993 -9.90961e-08)
(0.52657 0.169126 -1.00667e-07)
(0.442209 0.181492 -1.01379e-07)
(0.358398 0.195088 -1.04031e-07)
(0.28667 0.209732 -1.08195e-07)
(0.212739 0.224132 -1.10863e-07)
(0.126519 0.237388 -1.13039e-07)
(0.0519827 0.247081 -1.15342e-07)
(2.99999 1.36701e-07 -2.56006e-09)
(2.99998 7.40606e-07 -8.66164e-09)
(2.99996 2.76646e-06 -1.00789e-08)
(2.99989 7.09907e-06 -1.60556e-08)
(2.99975 1.96468e-05 -1.61445e-08)
(2.99934 4.52675e-05 -2.17586e-08)
(2.99855 0.000116919 -2.21868e-08)
(2.99608 0.00027077 -3.03898e-08)
(2.99178 0.000662505 -3.30402e-08)
(2.97546 0.00155166 -5.96087e-08)
(2.94667 0.00399285 -7.78056e-08)
(2.83775 0.00950727 -1.76914e-07)
(2.54083 0.0273074 -2.22757e-07)
(1.82531 0.0714875 -7.13775e-07)
(0.823376 0.197795 -7.7403e-07)
(0.508772 0.188218 4.19018e-08)
(0.567175 0.189005 -3.30202e-08)
(0.582528 0.202585 -9.38867e-08)
(0.534173 0.216912 -9.56541e-08)
(0.451638 0.233345 -9.57999e-08)
(0.369421 0.25166 -9.85372e-08)
(0.298189 0.271595 -1.03273e-07)
(0.223396 0.291719 -1.06666e-07)
(0.134531 0.310299 -1.09888e-07)
(0.0554198 0.323073 -1.13345e-07)
(3 1.47226e-07 -2.52574e-09)
(2.99998 7.99924e-07 -8.67127e-09)
(2.99996 2.98278e-06 -1.00292e-08)
(2.99989 7.64214e-06 -1.61833e-08)
(2.99976 2.11626e-05 -1.59274e-08)
(2.99938 4.84419e-05 -2.18986e-08)
(2.99865 0.00012748 -2.20853e-08)
(2.99633 0.000283589 -3.07106e-08)
(2.99234 0.000760821 -3.29469e-08)
(2.97701 0.00163475 -6.09158e-08)
(2.95047 0.00482972 -8.04273e-08)
(2.84754 0.0107547 -1.77617e-07)
(2.57301 0.0349581 -2.34387e-07)
(1.90129 0.0884166 -7.3926e-07)
(0.867877 0.247827 -8.49736e-07)
(0.499003 0.232426 6.87679e-08)
(0.568809 0.230925 -1.94125e-08)
(0.590663 0.246794 -8.91418e-08)
(0.54396 0.264051 -9.07966e-08)
(0.464204 0.284759 -8.98527e-08)
(0.384375 0.308315 -9.15813e-08)
(0.31433 0.33439 -9.62276e-08)
(0.239102 0.361591 -1.00135e-07)
(0.146871 0.387731 -1.04067e-07)
(0.0610558 0.40597 -1.09069e-07)
(3 1.46198e-07 -2.49747e-09)
(2.99998 8.004e-07 -8.66457e-09)
(2.99996 2.96723e-06 -1.005e-08)
(2.9999 7.57385e-06 -1.60576e-08)
(2.99978 2.09131e-05 -1.60316e-08)
(2.99943 4.7239e-05 -2.16711e-08)
(2.99875 0.000127737 -2.19351e-08)
(2.9966 0.000262432 -2.97345e-08)
(2.99291 0.000824624 -3.26896e-08)
(2.97879 0.0014937 -5.6353e-08)
(2.95447 0.00566291 -7.90156e-08)
(2.8608 0.0112483 -1.65228e-07)
(2.61348 0.0433336 -2.62475e-07)
(1.99731 0.104323 -7.44531e-07)
(0.931557 0.29822 -9.60682e-07)
(0.49648 0.278721 7.48101e-08)
(0.576718 0.273497 -1.2774e-08)
(0.604943 0.290415 -8.77442e-08)
(0.559435 0.30996 -8.88814e-08)
(0.482739 0.335088 -8.5827e-08)
(0.405619 0.364681 -8.43506e-08)
(0.337132 0.398339 -8.79985e-08)
(0.261913 0.434798 -9.14843e-08)
(0.166129 0.471929 -9.52159e-08)
(0.0710736 0.500606 -1.00647e-07)
(3 1.61004e-07 -2.48434e-09)
(2.99999 8.81351e-07 -8.62985e-09)
(2.99997 3.26666e-06 -1.01347e-08)
(2.99991 8.34738e-06 -1.59135e-08)
(2.9998 2.30236e-05 -1.62924e-08)
(2.99947 5.21541e-05 -2.1628e-08)
(2.99883 0.000140204 -2.229e-08)
(2.9969 0.000290331 -3.14045e-08)
(2.99337 0.000910698 -3.05268e-08)
(2.98097 0.00156244 -7.96038e-08)
(2.9588 0.00642987 -2.76615e-08)
(2.87634 0.0121019 -2.15868e-07)
(2.6612 0.0478797 -1.83093e-07)
(2.11184 0.11507 -7.1832e-07)
(1.01727 0.340524 -1.01962e-06)
(0.509966 0.327293 5.95655e-08)
(0.595508 0.320457 -2.17623e-08)
(0.62868 0.335728 -8.59476e-08)
(0.583754 0.355807 -8.66214e-08)
(0.510245 0.384849 -8.32743e-08)
(0.435936 0.420898 -7.93663e-08)
(0.36952 0.463411 -8.14459e-08)
(0.295455 0.511771 -8.35968e-08)
(0.196904 0.565456 -8.61391e-08)
(0.0887628 0.615234 -9.05255e-08)
(3 1.86787e-07 -2.45224e-09)
(2.99999 1.03057e-06 -8.63072e-09)
(2.99997 3.81368e-06 -1.01127e-08)
(2.99992 9.7856e-06 -1.58693e-08)
(2.99982 2.69104e-05 -1.61285e-08)
(2.99953 6.15703e-05 -2.12399e-08)
(2.99895 0.000161246 -2.13832e-08)
(2.99724 0.000355097 -2.76456e-08)
(2.99397 0.000975229 -3.12391e-08)
(2.98332 0.00194691 -4.66e-08)
(2.96345 0.00642665 -6.31824e-08)
(2.89284 0.0126948 -1.50822e-07)
(2.71135 0.046193 -2.34939e-07)
(2.23913 0.112192 -6.67866e-07)
(1.12942 0.342396 -1.10926e-06)
(0.5531 0.369994 -1.91884e-08)
(0.629936 0.372397 -5.21064e-08)
(0.6632 0.382645 -8.20448e-08)
(0.619153 0.402089 -8.19516e-08)
(0.549648 0.434451 -7.79273e-08)
(0.478467 0.477544 -7.44084e-08)
(0.414747 0.529128 -7.4632e-08)
(0.344673 0.591473 -7.44599e-08)
(0.248904 0.670581 -7.36769e-08)
(0.123051 0.763936 -7.56408e-08)
(3 3.28443e-07 -2.48652e-09)
(2.99999 6.89461e-07 -8.57499e-09)
(2.99997 4.92387e-06 -1.02372e-08)
(2.99993 7.56951e-06 -1.59166e-08)
(2.99984 3.41271e-05 -1.62078e-08)
(2.99958 4.88199e-05 -2.12444e-08)
(2.99908 0.000205657 -2.12285e-08)
(2.99758 0.000276029 -2.72273e-08)
(2.9947 0.00125869 -2.98798e-08)
(2.98546 0.00134128 -4.4252e-08)
(2.96794 0.00847118 -5.19479e-08)
(2.90743 0.00672774 -1.46368e-07)
(2.7541 0.0545802 -1.49744e-07)
(2.34645 0.0852405 -4.83793e-07)
(1.25633 0.311658 -6.72689e-07)
(0.616339 0.41184 -2.63835e-07)
(0.664248 0.433047 -1.22883e-07)
(0.695594 0.429727 -8.35773e-08)
(0.659564 0.449399 -7.88136e-08)
(0.598464 0.483298 -7.75044e-08)
(0.532785 0.532895 -7.27982e-08)
(0.474335 0.593001 -7.12972e-08)
(0.416335 0.67397 -6.83321e-08)
(0.338941 0.795401 -6.32112e-08)
(0.189703 1.00241 -5.95887e-08)
(2.99999 1.44215e-08 -4.71665e-13)
(2.99998 7.83964e-08 -2.45689e-12)
(2.99995 2.91227e-07 -5.79428e-12)
(2.99987 7.47401e-07 -1.21609e-11)
(2.99971 2.05233e-06 -2.54106e-11)
(2.99925 4.69643e-06 -4.86604e-11)
(2.99834 1.2161e-05 -1.13043e-10)
(2.99557 2.73755e-05 -2.21834e-10)
(2.99058 6.997e-05 -5.76969e-10)
(2.97256 0.000158097 -1.1658e-09)
(2.93917 0.000405712 -3.06401e-09)
(2.81759 0.00101021 -7.49451e-09)
(2.479 0.00288797 -1.78433e-08)
(1.68169 0.00732934 -4.38187e-08)
(0.73219 0.0200309 -5.29418e-08)
(0.523112 0.0208696 1.7768e-09)
(0.564286 0.0222334 -1.63582e-09)
(0.569564 0.0244794 -6.06499e-09)
(0.52017 0.0267572 -6.54041e-09)
(0.434423 0.0290551 -6.90693e-09)
(0.348995 0.0317739 -6.74587e-09)
(0.277782 0.035058 -6.78913e-09)
(0.20663 0.0385851 -6.93335e-09)
(0.124914 0.0427674 -7.0786e-09)
(0.055617 0.0490074 -7.16299e-09)
(2.99999 4.40035e-08 -4.7426e-13)
(2.99998 2.39441e-07 -2.46811e-12)
(2.99995 8.89383e-07 -5.83174e-12)
(2.99987 2.28016e-06 -1.22431e-11)
(2.99971 6.26336e-06 -2.5628e-11)
(2.99926 1.43154e-05 -4.91129e-11)
(2.99836 3.71188e-05 -1.14128e-10)
(2.99562 8.32308e-05 -2.24226e-10)
(2.99069 0.00021424 -5.81454e-10)
(2.97283 0.000480066 -1.17754e-09)
(2.9399 0.00125182 -3.0795e-09)
(2.81948 0.00308533 -7.50879e-09)
(2.48469 0.00898206 -1.79279e-08)
(1.69425 0.0227851 -4.39508e-08)
(0.739847 0.0611814 -5.3503e-08)
(0.52089 0.0609329 2.07022e-09)
(0.563231 0.0624951 -1.56563e-09)
(0.569048 0.066941 -6.07718e-09)
(0.51931 0.0712597 -6.51473e-09)
(0.433437 0.075512 -6.83352e-09)
(0.348023 0.08037 -6.67616e-09)
(0.276309 0.0859014 -6.73044e-09)
(0.204103 0.0911059 -6.87311e-09)
(0.121048 0.0962822 -7.00244e-09)
(0.0514652 0.101923 -7.06999e-09)
(2.99999 7.62414e-08 -4.79379e-13)
(2.99998 4.14344e-07 -2.49146e-12)
(2.99995 1.54087e-06 -5.90401e-12)
(2.99988 3.95302e-06 -1.23982e-11)
(2.99972 1.08667e-05 -2.60068e-11)
(2.99927 2.48876e-05 -4.98461e-11)
(2.9984 6.43073e-05 -1.15827e-10)
(2.99572 0.000145857 -2.26737e-10)
(2.99091 0.000366564 -5.893e-10)
(2.97341 0.000842205 -1.18317e-09)
(2.94141 0.00212804 -3.11334e-09)
(2.82351 0.00523453 -7.48714e-09)
(2.49696 0.0153805 -1.81495e-08)
(1.72223 0.0390787 -4.43418e-08)
(0.758096 0.105847 -5.51202e-08)
(0.518476 0.103469 2.70314e-09)
(0.563698 0.105123 -1.41075e-09)
(0.5712 0.11273 -6.1218e-09)
(0.521413 0.120432 -6.49111e-09)
(0.435966 0.128582 -6.72302e-09)
(0.351156 0.137583 -6.59307e-09)
(0.279263 0.147387 -6.66405e-09)
(0.206146 0.156861 -6.7905e-09)
(0.121798 0.165718 -6.89633e-09)
(0.0505948 0.17312 -6.93105e-09)
(2.99999 1.10317e-07 -5.03037e-13)
(2.99998 5.97719e-07 -2.58409e-12)
(2.99995 2.22975e-06 -6.25063e-12)
(2.99988 5.72636e-06 -1.31959e-11)
(2.99973 1.57961e-05 -2.83253e-11)
(2.9993 3.63685e-05 -5.54226e-11)
(2.99846 9.34875e-05 -1.26977e-10)
(2.99587 0.000217198 -2.78617e-10)
(2.99127 0.000522205 -5.6958e-10)
(2.97428 0.00125535 -1.56662e-09)
(2.94367 0.00301866 -2.72121e-09)
(2.82963 0.0074024 -7.79715e-09)
(2.51564 0.0216076 -1.80134e-08)
(1.76567 0.0553001 -4.50146e-08)
(0.786101 0.151378 -5.77468e-08)
(0.514647 0.145884 3.56535e-09)
(0.565177 0.14728 -1.2915e-09)
(0.575886 0.157993 -6.18353e-09)
(0.52657 0.169126 -6.46368e-09)
(0.442209 0.181491 -6.54621e-09)
(0.358398 0.195088 -6.43873e-09)
(0.28667 0.209732 -6.55023e-09)
(0.212739 0.224132 -6.64948e-09)
(0.126519 0.237388 -6.74029e-09)
(0.0519828 0.247081 -6.75699e-09)
(2.99999 1.36702e-07 -4.89918e-13)
(2.99998 7.40611e-07 -2.51826e-12)
(2.99996 2.76648e-06 -6.02123e-12)
(2.99989 7.09911e-06 -1.28249e-11)
(2.99975 1.96469e-05 -2.67243e-11)
(2.99934 4.52678e-05 -5.21096e-11)
(2.99855 0.00011692 -1.20197e-10)
(2.99608 0.000270772 -2.42363e-10)
(2.99178 0.000662505 -5.98426e-10)
(2.97545 0.00155168 -1.22707e-09)
(2.94666 0.00399283 -3.43317e-09)
(2.83775 0.00950727 -7.49704e-09)
(2.54083 0.0273074 -1.72733e-08)
(1.8253 0.0714874 -4.7397e-08)
(0.823371 0.197794 -6.12355e-08)
(0.508775 0.188218 4.65508e-09)
(0.567176 0.189005 -1.23058e-09)
(0.582529 0.202585 -6.26171e-09)
(0.534173 0.216912 -6.45697e-09)
(0.451638 0.233345 -6.47952e-09)
(0.369421 0.25166 -6.33062e-09)
(0.298189 0.271595 -6.44072e-09)
(0.223396 0.291719 -6.50294e-09)
(0.134531 0.310299 -6.57317e-09)
(0.0554198 0.323073 -6.55384e-09)
(3 1.47228e-07 -4.84404e-13)
(2.99998 7.99933e-07 -2.48538e-12)
(2.99996 2.98281e-06 -5.94295e-12)
(2.99989 7.64222e-06 -1.26636e-11)
(2.99976 2.11628e-05 -2.64056e-11)
(2.99938 4.84424e-05 -5.15558e-11)
(2.99865 0.000127481 -1.19347e-10)
(2.99633 0.000283592 -2.42318e-10)
(2.99234 0.000760824 -5.98768e-10)
(2.97701 0.00163477 -1.23273e-09)
(2.95047 0.00482972 -3.51294e-09)
(2.84754 0.0107548 -7.46543e-09)
(2.573 0.0349578 -1.81079e-08)
(1.90128 0.0884164 -4.88352e-08)
(0.867873 0.247825 -6.62062e-08)
(0.499006 0.232426 6.18289e-09)
(0.56881 0.230925 -9.1974e-10)
(0.590663 0.246794 -6.20421e-09)
(0.54396 0.264051 -6.27424e-09)
(0.464204 0.284759 -6.17072e-09)
(0.384375 0.308315 -6.04328e-09)
(0.31433 0.33439 -6.19272e-09)
(0.239102 0.361591 -6.2598e-09)
(0.146871 0.387731 -6.30618e-09)
(0.0610558 0.40597 -6.30726e-09)
(3 1.46201e-07 -4.56681e-13)
(2.99998 8.00413e-07 -2.36694e-12)
(2.99996 2.96728e-06 -5.54083e-12)
(2.9999 7.574e-06 -1.17794e-11)
(2.99978 2.09135e-05 -2.38902e-11)
(2.99943 4.72399e-05 -4.58268e-11)
(2.99875 0.000127739 -1.07668e-10)
(2.9966 0.000262439 -1.9702e-10)
(2.99291 0.00082463 -5.94903e-10)
(2.97879 0.00149374 -9.82473e-10)
(2.95446 0.0056629 -3.60714e-09)
(2.86079 0.0112485 -6.17878e-09)
(2.61347 0.0433333 -2.3143e-08)
(1.9973 0.104323 -4.92135e-08)
(0.931551 0.298219 -7.48313e-08)
(0.496482 0.27872 7.21955e-09)
(0.576718 0.273497 7.71412e-11)
(0.604942 0.290414 -6.0375e-09)
(0.559435 0.30996 -6.14739e-09)
(0.482739 0.335088 -6.03209e-09)
(0.405619 0.364681 -5.78137e-09)
(0.337132 0.398339 -5.85949e-09)
(0.261913 0.434798 -5.91774e-09)
(0.166129 0.471929 -5.91591e-09)
(0.0710736 0.500606 -5.91057e-09)
(3 1.61005e-07 -4.26045e-13)
(2.99999 8.81355e-07 -2.25303e-12)
(2.99997 3.26668e-06 -5.13989e-12)
(2.99991 8.34742e-06 -1.06885e-11)
(2.9998 2.30237e-05 -2.13613e-11)
(2.99947 5.21543e-05 -3.94586e-11)
(2.99883 0.000140204 -9.44956e-11)
(2.9969 0.000290332 -1.41664e-10)
(2.99337 0.000910701 -6.12715e-10)
(2.98097 0.00156245 -4.72635e-10)
(2.9588 0.00642988 -4.46185e-09)
(2.87634 0.0121019 -4.98874e-09)
(2.66119 0.0478798 -2.47128e-08)
(2.11183 0.11507 -4.98688e-08)
(1.01726 0.340524 -8.41837e-08)
(0.509966 0.327292 7.05013e-09)
(0.595507 0.320456 1.19415e-09)
(0.628679 0.335728 -5.29148e-09)
(0.583753 0.355807 -5.68683e-09)
(0.510244 0.384849 -5.91275e-09)
(0.435936 0.420898 -5.53846e-09)
(0.36952 0.463412 -5.54201e-09)
(0.295454 0.511771 -5.60478e-09)
(0.196904 0.565457 -5.58321e-09)
(0.0887628 0.615234 -5.51268e-09)
(3 1.86787e-07 -4.38428e-13)
(2.99999 1.03057e-06 -2.29277e-12)
(2.99997 3.81369e-06 -5.32501e-12)
(2.99992 9.78562e-06 -1.11367e-11)
(2.99982 2.69104e-05 -2.27792e-11)
(2.99953 6.15704e-05 -4.32872e-11)
(2.99895 0.000161247 -1.00256e-10)
(2.99724 0.000355096 -1.9203e-10)
(2.99397 0.000975236 -5.35196e-10)
(2.98332 0.0019469 -9.66671e-10)
(2.96345 0.00642675 -3.52694e-09)
(2.89284 0.0126949 -5.42277e-09)
(2.71135 0.0461938 -2.24982e-08)
(2.23912 0.112193 -4.85296e-08)
(1.12941 0.3424 -9.37252e-08)
(0.553098 0.369994 1.25745e-09)
(0.629934 0.372396 -1.31648e-09)
(0.663197 0.382644 -5.2473e-09)
(0.619151 0.402089 -5.63261e-09)
(0.549647 0.43445 -5.77941e-09)
(0.478466 0.477544 -5.31114e-09)
(0.414746 0.529128 -5.24468e-09)
(0.344672 0.591473 -5.2099e-09)
(0.248903 0.670581 -5.08326e-09)
(0.123051 0.763936 -4.91678e-09)
(3 3.28443e-07 -4.19296e-13)
(2.99999 6.89481e-07 -2.20584e-12)
(2.99997 4.92391e-06 -5.02859e-12)
(2.99993 7.56966e-06 -1.04693e-11)
(2.99984 3.41275e-05 -2.07704e-11)
(2.99958 4.88208e-05 -3.90678e-11)
(2.99908 0.00020566 -8.74898e-11)
(2.99758 0.000276034 -1.67851e-10)
(2.9947 0.00125872 -4.40606e-10)
(2.98546 0.0013413 -8.69129e-10)
(2.96794 0.00847133 -2.37977e-09)
(2.90743 0.00672788 -5.54177e-09)
(2.75409 0.0545811 -1.37179e-08)
(2.34644 0.0852429 -3.23485e-08)
(1.25632 0.311665 -5.55678e-08)
(0.616338 0.411839 -1.96913e-08)
(0.664247 0.433045 -8.14127e-09)
(0.695593 0.429726 -6.18346e-09)
(0.659563 0.449398 -6.19774e-09)
(0.598463 0.483297 -6.13127e-09)
(0.532784 0.532895 -5.56346e-09)
(0.474334 0.593001 -5.42282e-09)
(0.416334 0.67397 -5.17729e-09)
(0.33894 0.795401 -4.85753e-09)
(0.189703 1.00241 -4.51746e-09)
(2.99999 1.44215e-08 -4.39428e-14)
(2.99998 7.83963e-08 -1.95976e-13)
(2.99995 2.91227e-07 -6.44962e-13)
(2.99987 7.47401e-07 -1.39424e-12)
(2.99971 2.05232e-06 -3.93693e-12)
(2.99925 4.69643e-06 -8.05463e-12)
(2.99834 1.2161e-05 -2.24519e-11)
(2.99557 2.73755e-05 -4.59941e-11)
(2.99058 6.997e-05 -1.27577e-10)
(2.97256 0.000158097 -2.63287e-10)
(2.93917 0.000405712 -7.02278e-10)
(2.81759 0.00101021 -1.73863e-09)
(2.479 0.00288797 -4.1408e-09)
(1.68169 0.00732934 -1.02004e-08)
(0.732189 0.0200308 -1.23355e-08)
(0.523112 0.0208696 5.18917e-10)
(0.564286 0.0222334 -2.81243e-10)
(0.569564 0.0244794 -1.32465e-09)
(0.52017 0.0267572 -1.43639e-09)
(0.434423 0.0290551 -1.51545e-09)
(0.348995 0.0317739 -1.47168e-09)
(0.277782 0.035058 -1.47188e-09)
(0.20663 0.0385851 -1.50487e-09)
(0.124914 0.0427674 -1.53884e-09)
(0.055617 0.0490074 -1.55037e-09)
(2.99999 4.40035e-08 -4.46095e-14)
(2.99998 2.39441e-07 -1.9895e-13)
(2.99995 8.89382e-07 -6.54555e-13)
(2.99987 2.28016e-06 -1.41523e-12)
(2.99971 6.26336e-06 -3.99196e-12)
(2.99926 1.43154e-05 -8.16897e-12)
(2.99836 3.71187e-05 -2.27269e-11)
(2.99562 8.32307e-05 -4.66028e-11)
(2.99069 0.00021424 -1.28728e-10)
(2.97283 0.000480066 -2.66313e-10)
(2.9399 0.00125182 -7.06318e-10)
(2.81948 0.00308533 -1.74333e-09)
(2.48468 0.00898205 -4.16273e-09)
(1.69425 0.0227851 -1.02367e-08)
(0.739846 0.0611814 -1.24728e-08)
(0.52089 0.0609329 5.86236e-10)
(0.563232 0.0624951 -2.66206e-10)
(0.569048 0.066941 -1.32911e-09)
(0.51931 0.0712597 -1.43179e-09)
(0.433437 0.075512 -1.49966e-09)
(0.348023 0.08037 -1.45642e-09)
(0.276309 0.0859014 -1.45927e-09)
(0.204103 0.0911059 -1.49189e-09)
(0.121048 0.0962822 -1.52189e-09)
(0.0514652 0.101923 -1.5295e-09)
(2.99999 7.62413e-08 -4.59337e-14)
(2.99998 4.14343e-07 -2.05122e-13)
(2.99995 1.54087e-06 -6.72989e-13)
(2.99988 3.95301e-06 -1.45469e-12)
(2.99972 1.08667e-05 -4.08752e-12)
(2.99927 2.48876e-05 -8.35324e-12)
(2.9984 6.43072e-05 -2.31575e-11)
(2.99572 0.000145856 -4.72373e-11)
(2.99091 0.000366564 -1.30765e-10)
(2.97341 0.000842203 -2.67805e-10)
(2.94141 0.00212804 -7.15315e-10)
(2.82351 0.00523453 -1.74004e-09)
(2.49696 0.0153805 -4.22016e-09)
(1.72223 0.0390787 -1.03408e-08)
(0.758095 0.105847 -1.28672e-08)
(0.518476 0.103469 7.30734e-10)
(0.563698 0.105123 -2.33326e-10)
(0.5712 0.11273 -1.34349e-09)
(0.521413 0.120432 -1.43013e-09)
(0.435966 0.128582 -1.47774e-09)
(0.351156 0.137583 -1.44162e-09)
(0.279263 0.147387 -1.44835e-09)
(0.206146 0.156861 -1.47728e-09)
(0.121798 0.165718 -1.50232e-09)
(0.0505948 0.17312 -1.50257e-09)
(2.99999 1.10317e-07 -5.18768e-14)
(2.99998 5.97719e-07 -2.289e-13)
(2.99995 2.22975e-06 -7.60077e-13)
(2.99988 5.72636e-06 -1.65535e-12)
(2.99973 1.57961e-05 -4.66685e-12)
(2.9993 3.63685e-05 -9.75076e-12)
(2.99846 9.34874e-05 -2.59394e-11)
(2.99587 0.000217198 -6.02221e-11)
(2.99127 0.000522205 -1.25835e-10)
(2.97428 0.00125535 -3.63762e-10)
(2.94367 0.00301866 -6.1726e-10)
(2.82963 0.0074024 -1.82359e-09)
(2.51564 0.0216076 -4.18619e-09)
(1.76567 0.0553001 -1.05172e-08)
(0.786101 0.151378 -1.35043e-08)
(0.514647 0.145884 9.26163e-10)
(0.565177 0.14728 -2.11667e-10)
(0.575886 0.157993 -1.36451e-09)
(0.52657 0.169126 -1.4305e-09)
(0.442209 0.181491 -1.44287e-09)
(0.358398 0.195088 -1.41242e-09)
(0.28667 0.209732 -1.42956e-09)
(0.212739 0.224132 -1.45136e-09)
(0.126519 0.237388 -1.47508e-09)
(0.0519828 0.247081 -1.47187e-09)
(2.99999 1.36702e-07 -4.84029e-14)
(2.99998 7.40612e-07 -2.15861e-13)
(2.99996 2.76648e-06 -7.09697e-13)
(2.99989 7.09912e-06 -1.53438e-12)
(2.99975 1.96469e-05 -4.3181e-12)
(2.99934 4.52679e-05 -8.88382e-12)
(2.99855 0.00011692 -2.42806e-11)
(2.99608 0.000270773 -5.10412e-11)
(2.99178 0.000662505 -1.33409e-10)
(2.97545 0.00155168 -2.78845e-10)
(2.94666 0.00399283 -7.95142e-10)
(2.83775 0.00950728 -1.74766e-09)
(2.54083 0.0273074 -4.03588e-09)
(1.8253 0.0714874 -1.11043e-08)
(0.823371 0.197794 -1.43597e-08)
(0.508775 0.188218 1.17521e-09)
(0.567176 0.189005 -2.02282e-10)
(0.582528 0.202585 -1.38985e-09)
(0.534173 0.216912 -1.4372e-09)
(0.451638 0.233345 -1.43964e-09)
(0.369421 0.25166 -1.39753e-09)
(0.298189 0.271595 -1.41599e-09)
(0.223396 0.291719 -1.42847e-09)
(0.134531 0.310299 -1.44829e-09)
(0.0554198 0.323073 -1.43629e-09)
(3 1.47228e-07 -4.72851e-14)
(2.99998 7.99934e-07 -2.10258e-13)
(2.99996 2.98281e-06 -6.94768e-13)
(2.99989 7.64222e-06 -1.50134e-12)
(2.99976 2.11628e-05 -4.25869e-12)
(2.99938 4.84424e-05 -8.78107e-12)