/*--------------------------------*- C++ -*----------------------------------*\
| =========                 |                                                 |
| \\      /  F ield         | OpenFOAM: The Open Source CFD Toolbox           |
|  \\    /   O peration     | Version:  4.1                                   |
|   \\  /    A nd           | Web:      www.OpenFOAM.org                      |
|    \\/     M anipulation  |                                                 |
\*---------------------------------------------------------------------------*/
FoamFile
{
    version     2.0;
    format      ascii;
    class       volVectorField;
    location    "3.78";
    object      U;
}
// * * * * * * * * * * * * * * * * * * * * * * * * * * * * * * * * * * * * * //

dimensions      [0 1 -1 0 0 0 0];

internalField   nonuniform List<vector> 
52500
(
(3 1.29536e-08 -0.00571425)
(2.99998 7.17235e-08 -0.00571438)
(2.99996 2.67838e-07 -0.00571458)
(2.9999 6.84972e-07 -0.0057152)
(2.99977 1.90055e-06 -0.00571633)
(2.99939 4.32556e-06 -0.00571977)
(2.99867 1.15643e-05 -0.00572654)
(2.99638 2.49165e-05 -0.00574447)
(2.99245 7.1597e-05 -0.00579013)
(2.97729 0.000146072 -0.00587758)
(2.95112 0.000462416 -0.00622921)
(2.84924 0.000981427 -0.00669963)
(2.57867 0.00362489 -0.00914639)
(1.91578 0.00863736 -0.0136853)
(0.86007 0.0247129 -0.0175358)
(0.455055 0.0233526 -0.0185078)
(0.541343 0.0238447 -0.0185192)
(0.566906 0.0258602 -0.0185508)
(0.51482 0.0278597 -0.0187385)
(0.424944 0.0298513 -0.0189205)
(0.338201 0.0322198 -0.0191219)
(0.268323 0.0350703 -0.019282)
(0.198564 0.0381088 -0.0194589)
(0.118697 0.0416379 -0.0196013)
(0.0521551 0.0464793 -0.019754)
(3 3.87114e-08 -0.00571425)
(2.99998 2.13898e-07 -0.00571438)
(2.99996 7.99916e-07 -0.00571458)
(2.9999 2.04302e-06 -0.00571519)
(2.99977 5.68081e-06 -0.00571631)
(2.9994 1.29164e-05 -0.00571969)
(2.99869 3.46907e-05 -0.00572636)
(2.99643 7.44731e-05 -0.00574408)
(2.99255 0.000216577 -0.00578897)
(2.97761 0.000439521 -0.00587539)
(2.95183 0.00141273 -0.00622108)
(2.85163 0.00299657 -0.00668568)
(2.5858 0.0112267 -0.00908497)
(1.93183 0.0268589 -0.0135689)
(0.86935 0.0755454 -0.0174109)
(0.451577 0.0678018 -0.0184282)
(0.540841 0.0662299 -0.0184396)
(0.567423 0.0697671 -0.0184625)
(0.514952 0.0731942 -0.0186426)
(0.425019 0.0765888 -0.0188179)
(0.338323 0.0805249 -0.0190112)
(0.26795 0.0849875 -0.0191635)
(0.197197 0.0891484 -0.0193332)
(0.116012 0.093141 -0.0194642)
(0.0490047 0.0969584 -0.0195993)
(3 6.35026e-08 -0.00571425)
(2.99999 3.50321e-07 -0.00571438)
(2.99996 1.3134e-06 -0.00571457)
(2.9999 3.35534e-06 -0.00571516)
(2.99978 9.36606e-06 -0.00571625)
(2.99942 2.13319e-05 -0.00571955)
(2.99873 5.75485e-05 -0.00572602)
(2.99653 0.000124059 -0.00574333)
(2.99275 0.00036172 -0.00578665)
(2.97827 0.000737112 -0.00587115)
(2.95331 0.00238355 -0.00620452)
(2.85671 0.00504795 -0.00665807)
(2.60113 0.0190071 -0.00895863)
(1.96756 0.045717 -0.0133361)
(0.89166 0.129999 -0.017222)
(0.448108 0.115094 -0.0183331)
(0.543296 0.111206 -0.0183453)
(0.572322 0.117286 -0.0183573)
(0.519593 0.12363 -0.0185313)
(0.429983 0.130518 -0.018697)
(0.343602 0.13794 -0.0188845)
(0.272716 0.146005 -0.0190235)
(0.200746 0.153811 -0.0191876)
(0.117889 0.160821 -0.019318)
(0.0488343 0.165731 -0.0194481)
(3 7.92829e-08 -0.00571425)
(2.99999 4.37418e-07 -0.00571437)
(2.99996 1.63451e-06 -0.00571455)
(2.99991 4.15382e-06 -0.00571512)
(2.99979 1.15601e-05 -0.00571617)
(2.99944 2.60219e-05 -0.00571933)
(2.99878 7.16626e-05 -0.00572551)
(2.99668 0.000143602 -0.00574217)
(2.99306 0.000480671 -0.00578324)
(2.97927 0.000822554 -0.00586467)
(2.95552 0.00343705 -0.00617987)
(2.86433 0.00663472 -0.00661715)
(2.62416 0.026571 -0.00877147)
(2.02223 0.0635228 -0.0129884)
(0.926389 0.183341 -0.0169718)
(0.444658 0.162699 -0.0182233)
(0.54874 0.155988 -0.0182334)
(0.581904 0.164383 -0.0182297)
(0.529264 0.173735 -0.018396)
(0.44029 0.184676 -0.0185553)
(0.354202 0.195977 -0.0187366)
(0.282834 0.208065 -0.0188723)
(0.209474 0.220155 -0.0190167)
(0.123913 0.231007 -0.0191335)
(0.0508428 0.237684 -0.019279)
(3 9.80448e-08 -0.00571425)
(2.99999 5.41708e-07 -0.00571437)
(2.99997 2.01857e-06 -0.00571454)
(2.99991 5.13916e-06 -0.00571508)
(2.9998 1.42347e-05 -0.00571608)
(2.99947 3.20846e-05 -0.00571913)
(2.99882 8.77315e-05 -0.00572493)
(2.99687 0.000175304 -0.00574157)
(2.99332 0.000595084 -0.00577853)
(2.98069 0.000927208 -0.00586108)
(2.95828 0.00437224 -0.00613847)
(2.87441 0.00799543 -0.00656704)
(2.65534 0.0326288 -0.00850441)
(2.09669 0.078075 -0.0125049)
(0.978802 0.230742 -0.0166496)
(0.449346 0.21073 -0.0180875)
(0.561063 0.201764 -0.0180996)
(0.598689 0.21138 -0.0180714)
(0.546018 0.223057 -0.0182372)
(0.457595 0.23806 -0.0183707)
(0.371228 0.253617 -0.0185452)
(0.298853 0.270387 -0.0186752)
(0.22343 0.287623 -0.0188285)
(0.134021 0.303327 -0.0189438)
(0.0551812 0.312605 -0.0190636)
(3 1.24197e-07 -0.00571425)
(2.99999 6.86344e-07 -0.00571436)
(2.99997 2.56222e-06 -0.00571452)
(2.99992 6.56711e-06 -0.00571503)
(2.99981 1.81956e-05 -0.00571596)
(2.9995 4.15727e-05 -0.00571881)
(2.9989 0.000110558 -0.0057242)
(2.9971 0.000239596 -0.00574001)
(2.99369 0.000695942 -0.00577319)
(2.98236 0.00129879 -0.00585435)
(2.96156 0.00482352 -0.00609275)
(2.88613 0.0092043 -0.00650607)
(2.69119 0.0355954 -0.00820393)
(2.18601 0.0864606 -0.0119179)
(1.04984 0.265101 -0.0162599)
(0.469557 0.259104 -0.0179158)
(0.582405 0.252187 -0.0179246)
(0.623483 0.261366 -0.0178924)
(0.571086 0.273921 -0.0180628)
(0.483451 0.292389 -0.0181951)
(0.396422 0.31261 -0.0183367)
(0.322562 0.334847 -0.0184586)
(0.24447 0.358586 -0.0185804)
(0.149533 0.381405 -0.0186835)
(0.0621302 0.395752 -0.0188322)
(3 1.38345e-07 -0.00571425)
(2.99999 7.64375e-07 -0.00571435)
(2.99997 2.84938e-06 -0.0057145)
(2.99992 7.30832e-06 -0.00571496)
(2.99982 2.01749e-05 -0.00571581)
(2.99954 4.61629e-05 -0.00571842)
(2.99899 0.000120959 -0.00572335)
(2.99735 0.000268493 -0.00573779)
(2.99421 0.000719453 -0.0057678)
(2.98409 0.00152002 -0.00584326)
(2.96501 0.00462611 -0.00605095)
(2.8984 0.00949321 -0.0064418)
(2.72828 0.0329531 -0.00789961)
(2.28427 0.0805801 -0.0112877)
(1.14585 0.246972 -0.0157933)
(0.521809 0.294154 -0.0176586)
(0.618944 0.304227 -0.0176465)
(0.657572 0.312681 -0.0176329)
(0.605656 0.325856 -0.0178084)
(0.51974 0.348247 -0.0179578)
(0.431843 0.374078 -0.018101)
(0.355927 0.402959 -0.0181926)
(0.274806 0.435017 -0.0183215)
(0.173468 0.468251 -0.0184097)
(0.07423 0.49285 -0.0185062)
(3 1.46459e-07 -0.00571425)
(2.99999 8.08552e-07 -0.00571434)
(2.99997 3.00585e-06 -0.00571447)
(2.99993 7.70088e-06 -0.00571489)
(2.99984 2.11735e-05 -0.00571567)
(2.99959 4.83505e-05 -0.00571803)
(2.99908 0.000125825 -0.0057225)
(2.9976 0.000279724 -0.00573565)
(2.99474 0.000728169 -0.0057628)
(2.98559 0.00161212 -0.00583183)
(2.96832 0.0042995 -0.00601854)
(2.90838 0.00993447 -0.00637585)
(2.75665 0.0289092 -0.00768766)
(2.35232 0.0716391 -0.0107552)
(1.23719 0.2083 -0.0156642)
(0.564785 0.332743 -0.0175112)
(0.636736 0.366285 -0.0174683)
(0.675721 0.365215 -0.0174447)
(0.634696 0.377665 -0.0175863)
(0.558042 0.404229 -0.0176883)
(0.473735 0.437243 -0.0178245)
(0.398445 0.474656 -0.0178897)
(0.316562 0.517687 -0.0179557)
(0.210051 0.566875 -0.0180074)
(0.094908 0.613058 -0.0181073)
(3 1.76181e-07 -0.00571425)
(2.99999 9.64911e-07 -0.00571433)
(2.99998 3.59395e-06 -0.00571445)
(2.99994 9.24848e-06 -0.00571482)
(2.99986 2.55072e-05 -0.00571551)
(2.99963 5.89656e-05 -0.00571762)
(2.99918 0.000151013 -0.00572159)
(2.99786 0.000356654 -0.00573335)
(2.99532 0.000820021 -0.0057576)
(2.98704 0.00211434 -0.00581827)
(2.97205 0.00444517 -0.0059898)
(2.91788 0.0114689 -0.00629121)
(2.78351 0.0280775 -0.00752247)
(2.41848 0.0721239 -0.0100594)
(1.35868 0.20321 -0.0153522)
(0.643466 0.384807 -0.0173103)
(0.646736 0.418123 -0.0172412)
(0.674801 0.413507 -0.0172982)
(0.655782 0.428556 -0.0173803)
(0.595141 0.457756 -0.0174399)
(0.519958 0.499606 -0.0175257)
(0.449646 0.547717 -0.0175593)
(0.372384 0.604892 -0.0175907)
(0.268278 0.679537 -0.0175562)
(0.133584 0.771833 -0.017443)
(3 2.6808e-07 -0.00571424)
(2.99999 4.62927e-07 -0.00571431)
(2.99998 3.8892e-06 -0.00571441)
(2.99995 5.68276e-06 -0.00571472)
(2.99988 2.63004e-05 -0.0057153)
(2.99969 3.66561e-05 -0.00571699)
(2.99933 0.000157175 -0.00572045)
(2.99816 0.000203753 -0.00572901)
(2.9962 0.000956542 -0.00575268)
(2.98859 0.00093036 -0.00579425)
(2.97622 0.006405 -0.00596982)
(2.92723 0.00385835 -0.00619578)
(2.81021 0.0411204 -0.00738689)
(2.48507 0.0526618 -0.00942264)
(1.50505 0.220671 -0.0146974)
(0.744015 0.438687 -0.0169378)
(0.656206 0.452428 -0.0171415)
(0.681099 0.452502 -0.0171666)
(0.676656 0.473682 -0.0171785)
(0.632329 0.506751 -0.0172173)
(0.571529 0.557005 -0.0172028)
(0.510966 0.616872 -0.0171606)
(0.44847 0.695252 -0.0170675)
(0.365566 0.814925 -0.016872)
(0.206925 1.02664 -0.0164551)
(3 1.32278e-08 -2.51948e-09)
(2.99998 7.19699e-08 -8.66779e-09)
(2.99996 2.67927e-07 -1.0024e-08)
(2.9999 6.86315e-07 -1.61618e-08)
(2.99977 1.90054e-06 -1.58856e-08)
(2.99939 4.32787e-06 -2.17928e-08)
(2.99867 1.15675e-05 -2.18362e-08)
(2.99637 2.49273e-05 -3.01172e-08)
(2.99244 7.1612e-05 -3.17008e-08)
(2.97728 0.00014612 -5.7715e-08)
(2.95111 0.000462493 -7.33882e-08)
(2.84922 0.000981617 -1.59535e-07)
(2.57863 0.00362513 -2.07028e-07)
(1.91567 0.00863811 -6.37497e-07)
(0.860036 0.0247134 -7.1201e-07)
(0.455099 0.023353 1.16084e-07)
(0.541359 0.023845 1.99394e-09)
(0.566911 0.0258604 -5.91157e-08)
(0.514826 0.0278597 -5.70276e-08)
(0.424952 0.0298514 -4.89475e-08)
(0.338209 0.03222 -4.3066e-08)
(0.26833 0.0350709 -4.42476e-08)
(0.19857 0.0381096 -4.49971e-08)
(0.118702 0.041639 -4.54034e-08)
(0.0521573 0.0464809 -4.68344e-08)
(3 3.94522e-08 -2.514e-09)
(2.99998 2.14738e-07 -8.66763e-09)
(2.99996 7.9985e-07 -1.00275e-08)
(2.9999 2.04758e-06 -1.61377e-08)
(2.99977 5.67968e-06 -1.59078e-08)
(2.9994 1.2923e-05 -2.17525e-08)
(2.99869 3.46984e-05 -2.1813e-08)
(2.99642 7.45028e-05 -2.99723e-08)
(2.99255 0.000216614 -3.16117e-08)
(2.9776 0.000439649 -5.71052e-08)
(2.95182 0.00141294 -7.28167e-08)
(2.85162 0.00299711 -1.57559e-07)
(2.58576 0.0112275 -2.06124e-07)
(1.93172 0.0268615 -6.31627e-07)
(0.869315 0.0755476 -7.16811e-07)
(0.451619 0.0678035 1.15156e-07)
(0.540855 0.0662313 1.17088e-09)
(0.567427 0.0697683 -5.97914e-08)
(0.514957 0.073195 -5.73925e-08)
(0.425025 0.0765895 -4.88386e-08)
(0.338329 0.0805257 -4.26406e-08)
(0.267955 0.0849886 -4.36394e-08)
(0.197201 0.0891498 -4.42452e-08)
(0.116015 0.0931431 -4.43621e-08)
(0.0490064 0.0969617 -4.55763e-08)
(3 6.47184e-08 -2.50466e-09)
(2.99998 3.51765e-07 -8.66392e-09)
(2.99996 1.31355e-06 -1.00422e-08)
(2.9999 3.36274e-06 -1.60735e-08)
(2.99978 9.36565e-06 -1.59803e-08)
(2.99942 2.13448e-05 -2.16613e-08)
(2.99872 5.75673e-05 -2.17972e-08)
(2.99653 0.000124124 -2.97008e-08)
(2.99275 0.000361811 -3.1529e-08)
(2.97826 0.000737421 -5.60107e-08)
(2.9533 0.00238408 -7.17902e-08)
(2.85669 0.00504915 -1.53659e-07)
(2.60108 0.019009 -2.03014e-07)
(1.96745 0.045722 -6.16942e-07)
(0.891623 0.130003 -7.26119e-07)
(0.448145 0.115094 1.1298e-07)
(0.543306 0.111206 8.26673e-10)
(0.572323 0.117286 -6.04647e-08)
(0.519595 0.123631 -5.81652e-08)
(0.429987 0.130518 -4.93246e-08)
(0.343607 0.137941 -4.24923e-08)
(0.27272 0.146007 -4.29281e-08)
(0.200749 0.153813 -4.31561e-08)
(0.117891 0.160824 -4.27341e-08)
(0.0488351 0.165735 -4.32275e-08)
(3 8.0253e-08 -2.48968e-09)
(2.99998 4.39849e-07 -8.66001e-09)
(2.99996 1.63259e-06 -1.00534e-08)
(2.9999 4.16099e-06 -1.59993e-08)
(2.99978 1.15508e-05 -1.60354e-08)
(2.99944 2.60181e-05 -2.15219e-08)
(2.99878 7.16385e-05 -2.16703e-08)
(2.99668 0.000143484 -2.9078e-08)
(2.99306 0.000480714 -3.10505e-08)
(2.97926 0.000821246 -5.30139e-08)
(2.95551 0.00343941 -6.83653e-08)
(2.86431 0.00663365 -1.45825e-07)
(2.62412 0.0265788 -1.94944e-07)
(2.02213 0.0635357 -5.94876e-07)
(0.926343 0.18336 -7.50937e-07)
(0.444679 0.162705 9.51375e-08)
(0.548741 0.155988 -4.37879e-09)
(0.581899 0.164382 -5.99597e-08)
(0.529261 0.173735 -5.76842e-08)
(0.440289 0.184677 -4.89303e-08)
(0.354202 0.195978 -4.22122e-08)
(0.282834 0.208067 -4.23379e-08)
(0.209473 0.220158 -4.1878e-08)
(0.123913 0.231011 -4.06497e-08)
(0.0508425 0.237689 -4.00448e-08)
(3 9.93104e-08 -2.48523e-09)
(2.99999 5.44961e-07 -8.63236e-09)
(2.99997 2.01935e-06 -1.01227e-08)
(2.99991 5.14956e-06 -1.59063e-08)
(2.99979 1.42432e-05 -1.62667e-08)
(2.99947 3.21171e-05 -2.16e-08)
(2.99882 8.77923e-05 -2.21585e-08)
(2.99687 0.000175467 -3.1567e-08)
(2.99332 0.000595353 -2.86053e-08)
(2.98069 0.000927622 -8.16193e-08)
(2.95827 0.00437426 -8.42584e-09)
(2.8744 0.00799717 -2.06784e-07)
(2.65531 0.0326348 -8.21081e-08)
(2.09661 0.0780887 -5.37025e-07)
(0.978784 0.230766 -7.02226e-07)
(0.449385 0.210737 5.14189e-08)
(0.561079 0.201763 -2.96154e-08)
(0.598696 0.21138 -6.45344e-08)
(0.546023 0.223058 -5.98855e-08)
(0.457599 0.238061 -4.93897e-08)
(0.37123 0.253619 -4.39742e-08)
(0.298854 0.270389 -4.34968e-08)
(0.22343 0.287626 -4.18607e-08)
(0.13402 0.303331 -3.9637e-08)
(0.0551806 0.312609 -3.77045e-08)
(3 1.26589e-07 -2.46436e-09)
(2.99999 6.88995e-07 -8.61735e-09)
(2.99997 2.56722e-06 -1.00966e-08)
(2.99991 6.57758e-06 -1.58204e-08)
(2.99981 1.82208e-05 -1.60457e-08)
(2.9995 4.16304e-05 -2.1074e-08)
(2.99889 0.000110688 -2.10768e-08)
(2.9971 0.000239991 -2.70748e-08)
(2.99369 0.000696352 -2.88455e-08)
(2.98236 0.00130139 -5.02779e-08)
(2.96155 0.00482388 -3.81967e-08)
(2.88612 0.00921027 -1.47102e-07)
(2.69116 0.0355984 -1.21122e-07)
(2.18593 0.0864755 -4.75083e-07)
(1.04981 0.265145 -6.85026e-07)
(0.469571 0.259112 -4.81054e-09)
(0.582415 0.252187 -4.5817e-08)
(0.623491 0.261368 -6.00286e-08)
(0.571095 0.273924 -5.59584e-08)
(0.483459 0.292393 -4.75593e-08)
(0.396427 0.312614 -4.46441e-08)
(0.322565 0.334851 -4.48603e-08)
(0.244471 0.358589 -4.20837e-08)
(0.149533 0.381409 -3.94712e-08)
(0.0621297 0.395756 -3.70985e-08)
(3 1.40894e-07 -2.43739e-09)
(2.99999 7.66013e-07 -8.62093e-09)
(2.99997 2.85221e-06 -1.00797e-08)
(2.99992 7.31231e-06 -1.57986e-08)
(2.99982 2.01832e-05 -1.59737e-08)
(2.99954 4.61787e-05 -2.09484e-08)
(2.99899 0.000120997 -2.07133e-08)
(2.99735 0.000268577 -2.63572e-08)
(2.9942 0.00071961 -2.78508e-08)
(2.98408 0.00152077 -3.98927e-08)
(2.965 0.00462665 -4.36497e-08)
(2.89839 0.00949589 -1.11274e-07)
(2.72826 0.0329574 -1.05328e-07)
(2.28422 0.0805945 -3.59119e-07)
(1.14582 0.247018 -4.29956e-07)
(0.52181 0.294159 -1.52641e-07)
(0.618958 0.304223 -7.99747e-08)
(0.657588 0.312682 -5.17882e-08)
(0.605669 0.32586 -4.95034e-08)
(0.519752 0.348252 -4.64723e-08)
(0.431851 0.374083 -4.53987e-08)
(0.355933 0.402963 -4.59226e-08)
(0.27481 0.435021 -4.26438e-08)
(0.17347 0.468255 -3.99613e-08)
(0.0742303 0.492854 -3.73616e-08)
(3 1.48638e-07 -2.41335e-09)
(2.99999 8.09938e-07 -8.62789e-09)
(2.99997 3.00695e-06 -1.0079e-08)
(2.99993 7.70204e-06 -1.57971e-08)
(2.99984 2.11735e-05 -1.59609e-08)
(2.99959 4.83485e-05 -2.09191e-08)
(2.99908 0.000125816 -2.06283e-08)
(2.9976 0.000279695 -2.61463e-08)
(2.99473 0.000728133 -2.73676e-08)
(2.98558 0.00161181 -3.87758e-08)
(2.96831 0.0042998 -4.02382e-08)
(2.90837 0.00993365 -1.09613e-07)
(2.75663 0.0289118 -8.46182e-08)
(2.35228 0.0716444 -3.12752e-07)
(1.23714 0.20832 -4.14704e-07)
(0.564769 0.332738 -2.8252e-07)
(0.636753 0.366284 -1.11311e-07)
(0.675745 0.365219 -3.81169e-08)
(0.634716 0.377671 -3.85621e-08)
(0.558059 0.404236 -4.16729e-08)
(0.473748 0.43725 -4.37458e-08)
(0.398454 0.474663 -4.44052e-08)
(0.316568 0.517693 -4.18284e-08)
(0.210055 0.56688 -3.99997e-08)
(0.0949097 0.613063 -3.81175e-08)
(3 1.76298e-07 -2.3938e-09)
(2.99999 9.63519e-07 -8.62909e-09)
(2.99998 3.5894e-06 -1.009e-08)
(2.99994 9.21933e-06 -1.58007e-08)
(2.99986 2.5491e-05 -1.59963e-08)
(2.99963 5.89061e-05 -2.09924e-08)
(2.99918 0.000150941 -2.08726e-08)
(2.99785 0.000356487 -2.67766e-08)
(2.99532 0.000819873 -2.80211e-08)
(2.98703 0.00211389 -4.5381e-08)
(2.97204 0.00444445 -3.24725e-08)
(2.91787 0.0114689 -1.3317e-07)
(2.78349 0.028079 -5.00941e-08)
(2.41844 0.0721245 -3.13854e-07)
(1.35863 0.203223 -3.68296e-07)
(0.643441 0.384807 -3.39836e-07)
(0.646754 0.418131 -4.79669e-08)
(0.674823 0.413516 -2.45246e-08)
(0.655802 0.428565 -3.13903e-08)
(0.595159 0.457765 -3.56351e-08)
(0.519973 0.499615 -4.14309e-08)
(0.449659 0.547726 -4.084e-08)
(0.372394 0.6049 -4.02138e-08)
(0.268286 0.679544 -3.82965e-08)
(0.133588 0.77184 -3.74687e-08)
(3 2.53874e-07 -2.411e-09)
(2.99999 5.19179e-07 -8.65488e-09)
(2.99998 3.78347e-06 -1.01417e-08)
(2.99995 5.72327e-06 -1.62807e-08)
(2.99988 2.61724e-05 -1.57772e-08)
(2.99969 3.67e-05 -2.16914e-08)
(2.99933 0.000157058 -2.09608e-08)
(2.99815 0.000203844 -2.79431e-08)
(2.9962 0.000956421 -2.71373e-08)
(2.98859 0.000931034 -4.44464e-08)
(2.97621 0.0064042 -4.61498e-08)
(2.92722 0.00386145 -9.77581e-08)
(2.81019 0.0411173 -5.33682e-08)
(2.48503 0.0526698 -3.31786e-07)
(1.50501 0.220671 -3.02908e-07)
(0.743984 0.438685 -3.95881e-07)
(0.656225 0.452435 -2.46031e-08)
(0.681118 0.452512 -1.37887e-08)
(0.676674 0.473691 -2.9548e-08)
(0.632347 0.50676 -3.31504e-08)
(0.571545 0.557015 -3.80063e-08)
(0.510981 0.616883 -3.70469e-08)
(0.448483 0.695262 -3.56325e-08)
(0.365576 0.814934 -3.3529e-08)
(0.206931 1.02665 -3.19452e-08)
(3 1.32279e-08 -3.69668e-13)
(2.99998 7.197e-08 -1.97679e-12)
(2.99996 2.67927e-07 -4.26094e-12)
(2.9999 6.86315e-07 -9.02316e-12)
(2.99977 1.90054e-06 -1.61209e-11)
(2.99939 4.32787e-06 -3.00274e-11)
(2.99867 1.15675e-05 -6.29881e-11)
(2.99637 2.49273e-05 -1.10672e-10)
(2.99244 7.1612e-05 -3.2545e-10)
(2.97728 0.00014612 -5.1653e-10)
(2.95111 0.000462494 -1.93243e-09)
(2.84922 0.000981617 -3.29646e-09)
(2.57862 0.00362514 -1.27093e-08)
(1.91567 0.00863811 -2.6524e-08)
(0.860034 0.0247134 -3.81383e-08)
(0.455101 0.023353 6.29694e-09)
(0.541359 0.023845 9.03836e-10)
(0.566911 0.0258603 -2.05628e-09)
(0.514826 0.0278597 -1.9303e-09)
(0.424952 0.0298514 -1.54743e-09)
(0.338209 0.03222 -1.42181e-09)
(0.26833 0.0350709 -1.55524e-09)
(0.19857 0.0381096 -1.65022e-09)
(0.118702 0.041639 -1.71004e-09)
(0.0521573 0.046481 -1.82425e-09)
(3 3.94523e-08 -3.69399e-13)
(2.99998 2.14739e-07 -1.97581e-12)
(2.99996 7.99852e-07 -4.25896e-12)
(2.9999 2.04758e-06 -9.01718e-12)
(2.99977 5.67969e-06 -1.61136e-11)
(2.9994 1.29231e-05 -3.0016e-11)
(2.99869 3.46985e-05 -6.29507e-11)
(2.99642 7.45028e-05 -1.10798e-10)
(2.99255 0.000216614 -3.24928e-10)
(2.9776 0.00043965 -5.17274e-10)
(2.95182 0.00141295 -1.93099e-09)
(2.85162 0.00299711 -3.29615e-09)
(2.58575 0.0112275 -1.26777e-08)
(1.93172 0.0268615 -2.6531e-08)
(0.869312 0.0755475 -3.85895e-08)
(0.451621 0.0678034 6.33505e-09)
(0.540855 0.0662313 8.98132e-10)
(0.567427 0.0697682 -2.03731e-09)
(0.514957 0.073195 -1.90313e-09)
(0.425025 0.0765894 -1.51656e-09)
(0.33833 0.0805258 -1.39069e-09)
(0.267955 0.0849886 -1.51573e-09)
(0.197201 0.0891499 -1.6143e-09)
(0.116016 0.0931432 -1.67457e-09)
(0.0490065 0.0969618 -1.79187e-09)
(3 6.47186e-08 -3.68161e-13)
(2.99998 3.51766e-07 -1.97086e-12)
(2.99996 1.31355e-06 -4.24446e-12)
(2.9999 3.36275e-06 -8.98087e-12)
(2.99978 9.36567e-06 -1.60318e-11)
(2.99942 2.13448e-05 -2.98536e-11)
(2.99872 5.75674e-05 -6.25095e-11)
(2.99653 0.000124124 -1.10297e-10)
(2.99275 0.000361812 -3.22152e-10)
(2.97826 0.000737421 -5.15213e-10)
(2.9533 0.00238409 -1.92233e-09)
(2.85669 0.00504915 -3.28409e-09)
(2.60108 0.019009 -1.26106e-08)
(1.96745 0.0457221 -2.65788e-08)
(0.89162 0.130003 -3.98282e-08)
(0.448147 0.115094 6.34883e-09)
(0.543307 0.111206 9.07482e-10)
(0.572322 0.117286 -1.99876e-09)
(0.519595 0.123631 -1.86057e-09)
(0.429987 0.130518 -1.47243e-09)
(0.343607 0.137941 -1.33912e-09)
(0.27272 0.146007 -1.44086e-09)
(0.200749 0.153813 -1.53645e-09)
(0.117891 0.160824 -1.59468e-09)
(0.0488351 0.165735 -1.70254e-09)
(3 8.02539e-08 -3.66041e-13)
(2.99998 4.39853e-07 -1.96108e-12)
(2.99996 1.6326e-06 -4.21847e-12)
(2.9999 4.16104e-06 -8.91953e-12)
(2.99978 1.15509e-05 -1.59099e-11)
(2.99944 2.60184e-05 -2.96427e-11)
(2.99878 7.16392e-05 -6.19394e-11)
(2.99668 0.000143486 -1.10361e-10)
(2.99306 0.000480716 -3.17738e-10)
(2.97926 0.000821263 -5.17114e-10)
(2.95551 0.00343941 -1.90693e-09)
(2.86431 0.00663369 -3.24455e-09)
(2.62412 0.0265788 -1.24534e-08)
(2.02213 0.0635358 -2.64771e-08)
(0.92634 0.18336 -4.16401e-08)
(0.44468 0.162704 6.09186e-09)
(0.548742 0.155988 9.42042e-10)
(0.581898 0.164382 -1.94158e-09)
(0.529261 0.173735 -1.81454e-09)
(0.440289 0.184677 -1.44344e-09)
(0.354202 0.195978 -1.26369e-09)
(0.282834 0.208067 -1.34344e-09)
(0.209474 0.220158 -1.41598e-09)
(0.123913 0.231011 -1.46306e-09)
(0.0508425 0.237689 -1.55577e-09)
(3 9.93109e-08 -3.49576e-13)
(2.99999 5.44963e-07 -1.9068e-12)
(2.99997 2.01936e-06 -4.01804e-12)
(2.99991 5.14959e-06 -8.28703e-12)
(2.99979 1.42433e-05 -1.46103e-11)
(2.99947 3.21172e-05 -2.60599e-11)
(2.99882 8.77927e-05 -5.42427e-11)
(2.99687 0.000175468 -7.91117e-11)
(2.99332 0.000595355 -3.19334e-10)
(2.98069 0.000927629 -2.37759e-10)
(2.95827 0.00437427 -2.28596e-09)
(2.8744 0.00799721 -2.53445e-09)
(2.65531 0.032635 -1.27028e-08)
(2.09661 0.078089 -2.57631e-08)
(0.978781 0.230767 -4.35798e-08)
(0.449386 0.210737 4.92938e-09)
(0.561079 0.201762 1.07184e-09)
(0.598695 0.211379 -1.74768e-09)
(0.546022 0.223057 -1.71485e-09)
(0.457599 0.238061 -1.44233e-09)
(0.37123 0.253619 -1.18294e-09)
(0.298854 0.270389 -1.22055e-09)
(0.22343 0.287626 -1.26006e-09)
(0.13402 0.303331 -1.29775e-09)
(0.0551806 0.31261 -1.36796e-09)
(3 1.26589e-07 -3.55477e-13)
(2.99999 6.88997e-07 -1.92398e-12)
(2.99997 2.56723e-06 -4.10552e-12)
(2.99991 6.57759e-06 -8.51338e-12)
(2.99981 1.82209e-05 -1.52801e-11)
(2.9995 4.16305e-05 -2.80476e-11)
(2.99889 0.000110689 -5.64987e-11)
(2.9971 0.000239991 -1.05218e-10)
(2.99369 0.000696357 -2.79353e-10)
(2.98236 0.00130138 -4.24169e-10)
(2.96155 0.00482393 -1.84393e-09)
(2.88612 0.00921035 -2.60117e-09)
(2.69116 0.0355988 -1.12452e-08)
(2.18593 0.0864764 -2.40135e-08)
(1.0498 0.265148 -4.47894e-08)
(0.46957 0.259113 1.54303e-09)
(0.582414 0.252186 2.60976e-10)
(0.62349 0.261368 -1.52305e-09)
(0.571094 0.273924 -1.57873e-09)
(0.483458 0.292393 -1.44852e-09)
(0.396427 0.312614 -1.13511e-09)
(0.322565 0.334851 -1.14435e-09)
(0.244471 0.358589 -1.11185e-09)
(0.149533 0.381409 -1.11633e-09)
(0.0621297 0.395757 -1.15624e-09)
(3 1.40895e-07 -3.4366e-13)
(2.99999 7.66017e-07 -1.87112e-12)
(2.99997 2.85223e-06 -3.927e-12)
(2.99992 7.31235e-06 -8.12462e-12)
(2.99982 2.01833e-05 -1.40734e-11)
(2.99954 4.6179e-05 -2.55183e-11)
(2.99899 0.000120998 -4.85245e-11)
(2.99735 0.000268579 -8.90496e-11)
(2.9942 0.000719615 -2.15782e-10)
(2.98408 0.00152078 -3.77926e-10)
(2.965 0.0046267 -1.33625e-09)
(2.89839 0.00949596 -1.7538e-09)
(2.72825 0.0329579 -8.07058e-09)
(2.28422 0.0805955 -1.6776e-08)
(1.14582 0.247021 -2.72262e-08)
(0.521809 0.294159 -8.32662e-09)
(0.618958 0.304223 -2.46883e-09)
(0.657587 0.312682 -1.55881e-09)
(0.605669 0.32586 -1.61335e-09)
(0.519751 0.348252 -1.6443e-09)
(0.431851 0.374083 -1.29172e-09)
(0.355933 0.402963 -1.18063e-09)
(0.27481 0.435021 -1.04986e-09)
(0.17347 0.468255 -9.6552e-10)
(0.0742303 0.492854 -9.40235e-10)
(3 1.48638e-07 -3.40083e-13)
(2.99999 8.09938e-07 -1.85332e-12)
(2.99997 3.00695e-06 -3.87571e-12)
(2.99993 7.70204e-06 -8.00974e-12)
(2.99984 2.11735e-05 -1.3762e-11)
(2.99959 4.83485e-05 -2.48703e-11)
(2.99908 0.000125816 -4.66798e-11)
(2.9976 0.000279694 -8.58283e-11)
(2.99473 0.000728132 -2.00549e-10)
(2.98558 0.00161181 -3.7575e-10)
(2.96831 0.00429982 -1.06898e-09)
(2.90837 0.00993361 -2.0449e-09)
(2.75663 0.028912 -6.16094e-09)
(2.35228 0.0716448 -1.36613e-08)
(1.23714 0.208322 -2.5883e-08)
(0.564767 0.332738 -1.71166e-08)
(0.636753 0.366284 -5.64706e-09)
(0.675745 0.365218 -1.30682e-09)
(0.634716 0.377671 -1.40703e-09)
(0.558058 0.404236 -1.65095e-09)
(0.473748 0.43725 -1.47737e-09)
(0.398454 0.474663 -1.28106e-09)
(0.316568 0.517693 -1.07217e-09)
(0.210055 0.56688 -9.04832e-10)
(0.0949096 0.613064 -7.74695e-10)
(3 1.76298e-07 -3.45284e-13)
(2.99999 9.63521e-07 -1.87119e-12)
(2.99998 3.58941e-06 -3.95719e-12)
(2.99994 9.21933e-06 -8.1825e-12)
(2.99986 2.5491e-05 -1.43864e-11)
(2.99963 5.89062e-05 -2.62365e-11)
(2.99918 0.000150941 -5.09613e-11)
(2.99785 0.000356488 -9.77175e-11)
(2.99532 0.000819875 -2.1231e-10)
(2.98703 0.00211389 -5.09876e-10)
(2.97204 0.00444446 -8.35372e-10)
(2.91787 0.011469 -2.884e-09)
(2.78349 0.0280791 -4.7579e-09)
(2.41844 0.0721247 -1.3053e-08)
(1.35863 0.203224 -2.38696e-08)
(0.643438 0.384807 -2.06657e-08)
(0.646754 0.418132 -2.07879e-09)
(0.674824 0.413516 -7.1724e-10)
(0.655802 0.428565 -1.24663e-09)
(0.595159 0.457765 -1.45673e-09)
(0.519973 0.499615 -1.63898e-09)
(0.449659 0.547726 -1.32765e-09)
(0.372394 0.6049 -1.15359e-09)
(0.268286 0.679544 -8.46184e-10)
(0.133588 0.77184 -6.8941e-10)
(3 2.53872e-07 -3.39307e-13)
(2.99999 5.19191e-07 -1.82483e-12)
(2.99998 3.78346e-06 -3.79259e-12)
(2.99995 5.72332e-06 -8.00539e-12)
(2.99988 2.61725e-05 -1.30602e-11)
(2.99969 3.67003e-05 -2.40153e-11)
(2.99933 0.000157059 -4.30087e-11)
(2.99815 0.000203846 -7.96854e-11)
(2.9962 0.000956426 -1.73678e-10)
(2.98859 0.000931047 -3.32363e-10)
(2.97621 0.00640422 -8.80357e-10)
(2.92722 0.00386151 -1.84727e-09)
(2.81019 0.0411174 -4.13675e-09)
(2.48503 0.0526701 -1.32486e-08)
(1.505 0.220672 -2.09999e-08)
(0.743981 0.438685 -2.43483e-08)
(0.656225 0.452436 -1.00746e-09)
(0.681119 0.452512 -3.75968e-10)
(0.676674 0.473691 -1.32609e-09)
(0.632347 0.50676 -1.49353e-09)
(0.571545 0.557015 -1.62747e-09)
(0.510981 0.616883 -1.43607e-09)
(0.448483 0.695262 -1.1588e-09)
(0.365576 0.814935 -8.40443e-10)
(0.206931 1.02665 -6.07319e-10)
(3 1.32279e-08 -2.81181e-15)
(2.99998 7.197e-08 -1.2476e-14)
(2.99996 2.67927e-07 -4.18514e-14)
(2.9999 6.86315e-07 -9.03097e-14)
(2.99977 1.90054e-06 -2.65428e-13)
(2.99939 4.32787e-06 -5.35295e-13)
(2.99867 1.15675e-05 -1.65196e-12)
(2.99637 2.49273e-05 -3.00542e-12)
(2.99244 7.1612e-05 -1.1309e-11)
(2.97728 0.00014612 -1.7677e-11)
(2.95111 0.000462494 -7.66705e-11)
(2.84922 0.000981617 -1.31164e-10)
(2.57862 0.00362514 -5.49852e-10)
(1.91567 0.00863811 -1.18058e-09)
(0.860034 0.0247134 -1.79321e-09)
(0.455101 0.023353 1.5438e-10)
(0.541359 0.023845 -1.07459e-11)
(0.566911 0.0258603 -1.29231e-10)
(0.514826 0.0278597 -1.33347e-10)
(0.424952 0.0298514 -1.406e-10)
(0.338209 0.03222 -1.36306e-10)
(0.26833 0.0350709 -1.55038e-10)
(0.19857 0.0381096 -1.63846e-10)
(0.118702 0.041639 -1.58109e-10)
(0.0521573 0.046481 -1.72659e-10)
(3 3.94523e-08 -2.81439e-15)
(2.99998 2.14739e-07 -1.2485e-14)
(2.99996 7.99852e-07 -4.18618e-14)
(2.9999 2.04758e-06 -9.03917e-14)
(2.99977 5.67969e-06 -2.65578e-13)
(2.9994 1.29231e-05 -5.35856e-13)
(2.99869 3.46985e-05 -1.65156e-12)
(2.99642 7.45028e-05 -3.01191e-12)
(2.99255 0.000216614 -1.12833e-11)
(2.9776 0.00043965 -1.7693e-11)
(2.95182 0.00141295 -7.65066e-11)
(2.85162 0.00299711 -1.30886e-10)
(2.58575 0.0112275 -5.47502e-10)
(1.93172 0.0268615 -1.1783e-09)
(0.869312 0.0755475 -1.80922e-09)
(0.451621 0.0678034 1.5669e-10)
(0.540855 0.0662313 -1.07729e-11)
(0.567427 0.0697682 -1.29787e-10)
(0.514957 0.073195 -1.33738e-10)
(0.425025 0.0765894 -1.4094e-10)
(0.33833 0.0805258 -1.36656e-10)
(0.267955 0.0849886 -1.54953e-10)
(0.197201 0.0891499 -1.6403e-10)
(0.116016 0.0931432 -1.58704e-10)
(0.0490065 0.0969618 -1.73959e-10)
(3 6.47186e-08 -2.79116e-15)
(2.99998 3.51766e-07 -1.24121e-14)
(2.99996 1.31355e-06 -4.16217e-14)
(2.9999 3.36275e-06 -8.97872e-14)
(2.99978 9.36567e-06 -2.63839e-13)
(2.99942 2.13448e-05 -5.32662e-13)
(2.99872 5.75674e-05 -1.63928e-12)
(2.99653 0.000124124 -3.00136e-12)
(2.99275 0.000361812 -1.11735e-11)
(2.97826 0.000737421 -1.7608e-11)
(2.9533 0.00238409 -7.59711e-11)
(2.85669 0.00504915 -1.29903e-10)
(2.60108 0.019009 -5.42508e-10)
(1.96745 0.0457221 -1.17461e-09)
(0.89162 0.130003 -1.85468e-09)
(0.448147 0.115094 1.58442e-10)
(0.543307 0.111206 -1.06936e-11)
(0.572322 0.117286 -1.32046e-10)
(0.519595 0.123631 -1.36506e-10)
(0.429987 0.130518 -1.44535e-10)
(0.343607 0.137941 -1.40156e-10)
(0.27272 0.146007 -1.57042e-10)
(0.200749 0.153813 -1.65786e-10)
(0.117891 0.160824 -1.59694e-10)
(0.0488351 0.165735 -1.73839e-10)
(3 8.02539e-08 -2.75437e-15)
(2.99998 4.39853e-07 -1.22365e-14)
(2.99996 1.6326e-06 -4.11133e-14)
(2.9999 4.16104e-06 -8.87071e-14)
(2.99978 1.15509e-05 -2.61335e-13)
(2.99944 2.60184e-05 -5.29067e-13)
(2.99878 7.16392e-05 -1.62401e-12)
(2.99668 0.000143486 -3.01728e-12)
(2.99306 0.000480716 -1.09942e-11)
(2.97926 0.000821263 -1.76851e-11)
(2.95551 0.00343941 -7.50661e-11)
(2.86431 0.00663369 -1.2767e-10)
(2.62412 0.0265788 -5.32282e-10)
(2.02213 0.0635358 -1.16146e-09)
(0.92634 0.18336 -1.91925e-09)
(0.44468 0.162704 1.48741e-10)
(0.548742 0.155988 -1.1915e-11)
(0.581898 0.164382 -1.36646e-10)
(0.52926 0.173735 -1.42281e-10)
(0.440289 0.184676 -1.5222e-10)
(0.354202 0.195978 -1.46308e-10)
(0.282834 0.208067 -1.63031e-10)
(0.209474 0.220158 -1.68982e-10)
(0.123913 0.231011 -1.62272e-10)
(0.0508425 0.237689 -1.75036e-10)
(3 9.93109e-08 -2.28714e-15)
(2.99999 5.44963e-07 -1.04515e-14)
(2.99997 2.01936e-06 -3.41515e-14)
(2.99991 5.14959e-06 -7.25936e-14)
(2.99979 1.42433e-05 -2.11897e-13)
(2.99947 3.21172e-05 -4.12987e-13)
(2.99882 8.77927e-05 -1.35148e-12)
(2.99687 0.000175468 -1.8705e-12)
(2.99332 0.000595355 -1.11015e-11)
(2.98069 0.00092763 -6.58171e-12)
(2.95827 0.00437427 -9.06075e-11)
(2.8744 0.00799722 -9.74272e-11)
(2.65531 0.032635 -5.36933e-10)
(2.09661 0.078089 -1.11775e-09)
(0.978781 0.230767 -1.97727e-09)
(0.449386 0.210737 1.01285e-10)
(0.561079 0.201762 -1.4326e-11)
(0.598695 0.211379 -1.40388e-10)
(0.546022 0.223057 -1.49961e-10)
(0.457599 0.238061 -1.65513e-10)
(0.37123 0.253619 -1.56161e-10)
(0.298854 0.270389 -1.69882e-10)
(0.22343 0.287626 -1.73271e-10)
(0.13402 0.303331 -1.65333e-10)
(0.0551806 0.31261 -1.72316e-10)
(3 1.26589e-07 -2.57109e-15)
(2.99999 6.88997e-07 -1.14008e-14)
(2.99997 2.56723e-06 -3.81688e-14)
(2.99991 6.57759e-06 -8.27725e-14)
(2.99981 1.82209e-05 -2.41094e-13)
(2.9995 4.16305e-05 -4.96556e-13)
(2.99889 0.000110689 -1.4544e-12)
(2.9971 0.000239991 -2.90657e-12)