/*--------------------------------*- C++ -*----------------------------------*\
| =========                 |                                                 |
| \\      /  F ield         | OpenFOAM: The Open Source CFD Toolbox           |
|  \\    /   O peration     | Version:  4.1                                   |
|   \\  /    A nd           | Web:      www.OpenFOAM.org                      |
|    \\/     M anipulation  |                                                 |
\*---------------------------------------------------------------------------*/
FoamFile
{
    version     2.0;
    format      ascii;
    class       volScalarField;
    location    "7";
    object      Ma;
}
// * * * * * * * * * * * * * * * * * * * * * * * * * * * * * * * * * * * * * //

dimensions      [0 0 0 0 0 0 0];

internalField   nonuniform List<scalar> 
52500
(
3.00001
2.99996
2.9999
2.99963
2.99925
2.99771
2.99553
2.98697
2.97345
2.92742
2.82848
2.59226
2.00513
1.12327
0.468561
0.308578
0.339093
0.345478
0.314805
0.262221
0.210253
0.167848
0.12606
0.0795294
0.0457562
3.00001
2.99996
2.9999
2.99963
2.99926
2.99774
2.99559
2.98715
2.97378
2.92832
2.83015
2.59677
2.01272
1.1339
0.474888
0.308822
0.340162
0.347127
0.316651
0.264793
0.21418
0.173388
0.13399
0.0929597
0.0691105
3.00001
2.99996
2.9999
2.99964
2.99928
2.99781
2.99572
2.98758
2.97443
2.93045
2.8334
2.60608
2.02922
1.15779
0.489757
0.311097
0.344338
0.352897
0.323359
0.273614
0.226256
0.189295
0.155254
0.123312
0.108285
3.00002
2.99997
2.99991
2.99966
2.99931
2.99791
2.99589
2.98813
2.97539
2.93338
2.8391
2.62043
2.05565
1.19624
0.512564
0.314413
0.350806
0.362044
0.334142
0.287671
0.244844
0.212974
0.185098
0.161104
0.15127
3.00002
2.99997
2.99991
2.99968
2.99935
2.99802
2.99612
2.98883
2.97665
2.93722
2.8472
2.63995
2.09118
1.24909
0.541891
0.317689
0.358614
0.373632
0.348045
0.305789
0.268092
0.241781
0.220188
0.20256
0.196447
3.00002
2.99997
2.99992
2.9997
2.99939
2.99815
2.99636
2.98953
2.97817
2.94117
2.85744
2.66223
2.14616
1.32343
0.583758
0.326631
0.371194
0.390035
0.36651
0.328839
0.296421
0.275551
0.260018
0.248683
0.246251
3.00002
2.99998
2.99993
2.99972
2.99944
2.99827
2.99662
2.99014
2.97991
2.94505
2.87072
2.68846
2.22003
1.42212
0.638518
0.344001
0.390802
0.413038
0.391108
0.357562
0.330339
0.314946
0.305611
0.300907
0.304345
3.00002
2.99998
2.99993
2.99975
2.99949
2.99842
2.99691
2.99087
2.98179
2.94921
2.88646
2.71847
2.30702
1.54501
0.705786
0.374306
0.420446
0.443324
0.422579
0.392824
0.369946
0.360062
0.357744
0.362027
0.375946
3.00002
2.99999
2.99994
2.99978
2.99954
2.99859
2.99724
2.99186
2.98378
2.95454
2.90078
2.74803
2.39683
1.67835
0.782189
0.4182
0.459774
0.478744
0.460315
0.435327
0.416892
0.412031
0.417668
0.435739
0.473226
3.00002
2.99999
2.99995
2.99981
2.9996
2.99877
2.99757
2.99291
2.98568
2.96026
2.91192
2.77804
2.45771
1.78855
0.858404
0.46627
0.491542
0.505115
0.496566
0.478687
0.467566
0.469165
0.487985
0.532904
0.634295
2.99999
2.99994
2.99988
2.99961
2.99923
2.99769
2.99551
2.98695
2.97343
2.92738
2.82846
2.5922
2.00509
1.12317
0.468417
0.30839
0.338917
0.345305
0.314614
0.261989
0.209955
0.167465
0.125537
0.0786715
0.0442081
3
2.99995
2.99988
2.99961
2.99924
2.99772
2.99557
2.98713
2.97375
2.92828
2.83013
2.59672
2.01269
1.13381
0.474754
0.308642
0.339994
0.34696
0.316467
0.264568
0.213892
0.17302
0.1335
0.0922342
0.0681159
3
2.99995
2.99988
2.99962
2.99926
2.99779
2.9957
2.98755
2.97441
2.93041
2.83338
2.60602
2.02919
1.1577
0.489627
0.310919
0.34417
0.352728
0.323172
0.273389
0.225977
0.188956
0.154833
0.122775
0.10767
3
2.99995
2.99989
2.99964
2.99929
2.99788
2.99587
2.9881
2.97537
2.93334
2.83906
2.62036
2.05559
1.19613
0.512424
0.314226
0.350632
0.361871
0.333955
0.287451
0.244584
0.212672
0.184749
0.160702
0.150843
3
2.99995
2.99989
2.99966
2.99933
2.998
2.9961
2.98881
2.97662
2.93718
2.84717
2.63989
2.09112
1.24897
0.541757
0.317503
0.358442
0.373462
0.347862
0.305581
0.267854
0.241517
0.219899
0.202248
0.196128
3
2.99996
2.9999
2.99968
2.99937
2.99813
2.99634
2.98951
2.97815
2.94114
2.85741
2.66216
2.14609
1.3233
0.583631
0.326448
0.371025
0.38987
0.366334
0.328644
0.296205
0.275322
0.259777
0.248435
0.246003
3
2.99996
2.99991
2.9997
2.99942
2.99825
2.9966
2.99011
2.97988
2.94501
2.8707
2.6884
2.22
1.42201
0.638416
0.343837
0.390647
0.412888
0.390947
0.357387
0.330149
0.314748
0.30541
0.300707
0.304151
3
2.99996
2.99992
2.99973
2.99947
2.9984
2.99689
2.99085
2.98176
2.94918
2.88643
2.71841
2.30697
1.5449
0.705689
0.37415
0.420301
0.443186
0.422433
0.392666
0.369779
0.359892
0.357576
0.361866
0.375795
3
2.99997
2.99993
2.99976
2.99952
2.99857
2.99722
2.99183
2.98376
2.95451
2.90076
2.74798
2.39678
1.67826
0.782099
0.418056
0.459645
0.478624
0.460186
0.435189
0.416748
0.411886
0.417528
0.43561
0.473114
3
2.99997
2.99994
2.99979
2.99958
2.99875
2.99755
2.99288
2.98566
2.96023
2.9119
2.77799
2.45767
1.78847
0.858307
0.466127
0.491426
0.505009
0.496452
0.478566
0.467442
0.469041
0.487869
0.532804
0.634219
2.99999
2.99994
2.99988
2.99961
2.99923
2.99769
2.99551
2.98695
2.97343
2.92738
2.82846
2.5922
2.00509
1.12316
0.468414
0.308391
0.338918
0.345305
0.314614
0.261989
0.209955
0.167465
0.125537
0.0786715
0.044208
3
2.99995
2.99988
2.99961
2.99924
2.99772
2.99557
2.98713
2.97375
2.92828
2.83013
2.59671
2.01269
1.1338
0.474751
0.308644
0.339995
0.34696
0.316467
0.264568
0.213892
0.17302
0.1335
0.0922342
0.0681159
3
2.99995
2.99988
2.99962
2.99926
2.99779
2.9957
2.98755
2.97441
2.93041
2.83338
2.60602
2.02919
1.15769
0.489625
0.31092
0.34417
0.352728
0.323171
0.273389
0.225978
0.188956
0.154833
0.122775
0.10767
3
2.99995
2.99989
2.99964
2.99929
2.99788
2.99587
2.9881
2.97537
2.93334
2.83906
2.62036
2.05559
1.19612
0.512421
0.314227
0.350633
0.361871
0.333955
0.287452
0.244584
0.212672
0.184749
0.160703
0.150843
3
2.99995
2.99989
2.99966
2.99933
2.998
2.9961
2.98881
2.97662
2.93718
2.84716
2.63988
2.09111
1.24896
0.541754
0.317504
0.358442
0.373462
0.347862
0.305581
0.267854
0.241517
0.2199
0.202248
0.196128
3
2.99996
2.9999
2.99968
2.99937
2.99813
2.99634
2.98951
2.97815
2.94114
2.85741
2.66216
2.14609
1.3233
0.583627
0.326449
0.371025
0.38987
0.366334
0.328644
0.296205
0.275322
0.259777
0.248435
0.246003
3
2.99996
2.99991
2.9997
2.99942
2.99825
2.9966
2.99011
2.97988
2.94501
2.8707
2.6884
2.22
1.42201
0.638413
0.343837
0.390647
0.412887
0.390947
0.357386
0.330149
0.314748
0.30541
0.300707
0.304151
3
2.99996
2.99992
2.99973
2.99947
2.9984
2.99689
2.99085
2.98176
2.94918
2.88643
2.71841
2.30697
1.54489
0.705685
0.374148
0.4203
0.443185
0.422432
0.392666
0.369779
0.359892
0.357576
0.361866
0.375795
3
2.99997
2.99993
2.99976
2.99952
2.99857
2.99722
2.99183
2.98376
2.95451
2.90075
2.74798
2.39678
1.67826
0.782095
0.418054
0.459643
0.478624
0.460185
0.435189
0.416747
0.411885
0.417528
0.435611
0.473114
3
2.99997
2.99994
2.99979
2.99958
2.99875
2.99755
2.99288
2.98566
2.96023
2.9119
2.77799
2.45767
1.78846
0.858302
0.466124
0.491426
0.505009
0.496451
0.478565
0.467441
0.469041
0.487869
0.532804
0.634219
2.99999
2.99994
2.99988
2.99961
2.99923
2.99769
2.99551
2.98695
2.97343
2.92738
2.82846
2.5922
2.00509
1.12316
0.468414
0.308391
0.338918
0.345305
0.314614
0.261989
0.209955
0.167465
0.125537
0.0786715
0.044208
3
2.99995
2.99988
2.99961
2.99924
2.99772
2.99557
2.98713
2.97375
2.92828
2.83013
2.59671
2.01269
1.1338
0.474751
0.308644
0.339995
0.34696
0.316467
0.264568
0.213892
0.17302
0.1335
0.0922342
0.0681159
3
2.99995
2.99988
2.99962
2.99926
2.99779
2.9957
2.98755
2.97441
2.93041
2.83338
2.60602
2.02919
1.15769
0.489625
0.31092
0.34417
0.352728
0.323171
0.273389
0.225978
0.188956
0.154833
0.122775
0.10767
3
2.99995
2.99989
2.99964
2.99929
2.99788
2.99587
2.9881
2.97537
2.93334
2.83906
2.62036
2.05559
1.19612
0.512421
0.314227
0.350633
0.361871
0.333955
0.287452
0.244584
0.212672
0.184749
0.160703
0.150843
3
2.99995
2.99989
2.99966
2.99933
2.998
2.9961
2.98881
2.97662
2.93718
2.84716
2.63988
2.09111
1.24896
0.541754
0.317504
0.358442
0.373462
0.347862
0.305581
0.267854
0.241517
0.2199
0.202248
0.196128
3
2.99996
2.9999
2.99968
2.99937
2.99813
2.99634
2.98951
2.97815
2.94114
2.85741
2.66216
2.14609
1.3233
0.583627
0.326449
0.371025
0.38987
0.366334
0.328644
0.296205
0.275322
0.259777
0.248435
0.246003
3
2.99996
2.99991
2.9997
2.99942
2.99825
2.9966
2.99011
2.97988
2.94501
2.8707
2.6884
2.22
1.42201
0.638412
0.343837
0.390647
0.412887
0.390947
0.357386
0.330149
0.314748
0.30541
0.300707
0.304151
3
2.99996
2.99992
2.99973
2.99947
2.9984
2.99689
2.99085
2.98176
2.94918
2.88643
2.71841
2.30697
1.54489
0.705684
0.374148
0.4203
0.443185
0.422432
0.392666
0.369778
0.359892
0.357576
0.361866
0.375795
3
2.99997
2.99993
2.99976
2.99952
2.99857
2.99722
2.99183
2.98376
2.95451
2.90075
2.74798
2.39678
1.67826
0.782095
0.418054
0.459643
0.478624
0.460185
0.435189
0.416747
0.411885
0.417528
0.435611
0.473114
3
2.99997
2.99994
2.99979
2.99958
2.99875
2.99755
2.99288
2.98566
2.96023
2.9119
2.77799
2.45767
1.78846
0.858301
0.466124
0.491426
0.505009
0.496451
0.478565
0.467441
0.469041
0.487869
0.532804
0.634219
2.99999
2.99994
2.99988
2.99961
2.99923
2.99769
2.99551
2.98695
2.97343
2.92738
2.82846
2.5922
2.00509
1.12316
0.468413
0.308391
0.338918
0.345305
0.314614
0.261989
0.209955
0.167465
0.125537
0.0786716
0.044208
3
2.99995
2.99988
2.99961
2.99924
2.99772
2.99557
2.98713
2.97375
2.92828
2.83013
2.59671
2.01268
1.1338
0.47475
0.308644
0.339995
0.34696
0.316467
0.264568
0.213892
0.173021
0.1335
0.0922342
0.0681159
3
2.99995
2.99988
2.99962
2.99926
2.99779
2.9957
2.98755
2.97441
2.93041
2.83338
2.60602
2.02919
1.15769
0.489624
0.31092
0.34417
0.352728
0.323171
0.273389
0.225978
0.188956
0.154833
0.122775
0.10767
3
2.99995
2.99989
2.99964
2.99929
2.99788
2.99587
2.9881
2.97537
2.93334
2.83906
2.62036
2.05558
1.19612
0.51242
0.314228
0.350633
0.361871
0.333955
0.287452
0.244584
0.212673
0.184749
0.160703
0.150843
3
2.99995
2.99989
2.99966
2.99933
2.998
2.9961
2.98881
2.97662
2.93718
2.84716
2.63988
2.09111
1.24896
0.541753
0.317505
0.358442
0.373462
0.347862
0.305581
0.267854
0.241518
0.2199
0.202248
0.196128
3
2.99996
2.9999
2.99968
2.99937
2.99813
2.99634
2.98951
2.97815
2.94114
2.85741
2.66216
2.14609
1.32329
0.583626
0.326449
0.371025
0.38987
0.366334
0.328644
0.296205
0.275322
0.259777
0.248435
0.246003
3
2.99996
2.99991
2.9997
2.99942
2.99825
2.9966
2.99011
2.97988
2.94501
2.8707
2.6884
2.22
1.422
0.638411
0.343837
0.390647
0.412887
0.390946
0.357386
0.330149
0.314748
0.30541
0.300707
0.304151
3
2.99996
2.99992
2.99973
2.99947
2.9984
2.99689
2.99085
2.98176
2.94918
2.88643
2.71841
2.30696
1.54489
0.705683
0.374148
0.420299
0.443185
0.422431
0.392665
0.369778
0.359892
0.357576
0.361866
0.375795
3
2.99997
2.99993
2.99976
2.99952
2.99857
2.99722
2.99183
2.98376
2.95451
2.90075
2.74798
2.39677
1.67825
0.782093
0.418053
0.459643
0.478623
0.460185
0.435188
0.416747
0.411885
0.417528
0.435611
0.473114
3
2.99997
2.99994
2.99979
2.99958
2.99875
2.99755
2.99288
2.98566
2.96023
2.9119
2.77799
2.45767
1.78846
0.8583
0.466123
0.491425
0.505009
0.496451
0.478565
0.467441
0.469041
0.487869
0.532804
0.634219
2.99999
2.99994
2.99988
2.99961
2.99923
2.99769
2.99551
2.98695
2.97343
2.92738
2.82846
2.5922
2.00509
1.12316
0.468413
0.308392
0.338918
0.345305
0.314614
0.261989
0.209955
0.167465
0.125537
0.0786716
0.044208
3
2.99995
2.99988
2.99961
2.99924
2.99772
2.99557
2.98713
2.97375
2.92828
2.83013
2.59671
2.01268
1.1338
0.47475
0.308644
0.339995
0.34696
0.316467
0.264568
0.213892
0.173021
0.1335
0.0922342
0.0681159
3
2.99995
2.99988
2.99962
2.99926
2.99779
2.9957
2.98755
2.97441
2.93041
2.83338
2.60602
2.02919
1.15769
0.489624
0.310921
0.34417
0.352728
0.323171
0.273389
0.225978
0.188956
0.154833
0.122775
0.10767
3
2.99995
2.99989
2.99964
2.99929
2.99788
2.99587
2.9881
2.97537
2.93334
2.83906
2.62036
2.05558
1.19612
0.51242
0.314228
0.350633
0.361871
0.333955
0.287452
0.244584
0.212673
0.184749
0.160703
0.150843
3
2.99995
2.99989
2.99966
2.99933
2.998
2.9961
2.98881
2.97662
2.93718
2.84716
2.63988
2.09111
1.24896
0.541753
0.317505
0.358442
0.373462
0.347862
0.305581
0.267854
0.241518
0.2199
0.202248
0.196128
3
2.99996
2.9999
2.99968
2.99937
2.99813
2.99634
2.98951
2.97815
2.94114
2.85741
2.66216
2.14609
1.32329
0.583626
0.326449
0.371025
0.38987
0.366334
0.328644
0.296205
0.275322
0.259777
0.248435
0.246003
3
2.99996
2.99991
2.9997
2.99942
2.99825
2.9966
2.99011
2.97988
2.94501
2.8707
2.6884
2.21999
1.422
0.638411
0.343837
0.390646
0.412887
0.390946
0.357386
0.330149
0.314748
0.30541
0.300707
0.304151
3
2.99996
2.99992
2.99973
2.99947
2.9984
2.99689
2.99085
2.98176
2.94918
2.88643
2.71841
2.30696
1.54489
0.705683
0.374148
0.420299
0.443185
0.422431
0.392665
0.369778
0.359892
0.357576
0.361866
0.375795
3
2.99997
2.99993
2.99976
2.99952
2.99857
2.99722
2.99183
2.98376
2.95451
2.90075
2.74798
2.39677
1.67825
0.782093
0.418053
0.459643
0.478623
0.460185
0.435188
0.416747
0.411885
0.417528
0.435611
0.473114
3
2.99997
2.99994
2.99979
2.99958
2.99875
2.99755
2.99288
2.98566
2.96023
2.9119
2.77799
2.45767
1.78846
0.858299
0.466123
0.491425
0.505009
0.496451
0.478565
0.467441
0.469041
0.487869
0.532804
0.634219
2.99999
2.99994
2.99988
2.99961
2.99923
2.99769
2.99551
2.98695
2.97343
2.92738
2.82846
2.5922
2.00509
1.12316
0.468414
0.308391
0.338918
0.345305
0.314614
0.261989
0.209955
0.167465
0.125537
0.0786715
0.044208
3
2.99995
2.99988
2.99961
2.99924
2.99772
2.99557
2.98713
2.97375
2.92828
2.83013
2.59671
2.01268
1.1338
0.474751
0.308644
0.339995
0.34696
0.316467
0.264568
0.213892
0.17302
0.1335
0.0922342
0.0681159
3
2.99995
2.99988
2.99962
2.99926
2.99779
2.9957
2.98755
2.97441
2.93041
2.83338
2.60602
2.02919
1.15769
0.489624
0.31092
0.34417
0.352728
0.323171
0.273389
0.225978
0.188956
0.154833
0.122775
0.10767
3
2.99995
2.99989
2.99964
2.99929
2.99788
2.99587
2.9881
2.97537
2.93334
2.83906
2.62036
2.05559
1.19612
0.512421
0.314227
0.350633
0.361871
0.333955
0.287452
0.244584
0.212673
0.184749
0.160703
0.150843
3
2.99995
2.99989
2.99966
2.99933
2.998
2.9961
2.98881
2.97662
2.93718
2.84716
2.63988
2.09111
1.24896
0.541754
0.317504
0.358442
0.373462
0.347862
0.305581
0.267854
0.241517
0.2199
0.202248
0.196128
3
2.99996
2.9999
2.99968
2.99937
2.99813
2.99634
2.98951
2.97815
2.94114
2.85741
2.66216
2.14609
1.3233
0.583627
0.326449
0.371025
0.38987
0.366334
0.328644
0.296205
0.275322
0.259777
0.248435
0.246003
3
2.99996
2.99991
2.9997
2.99942
2.99825
2.9966
2.99011
2.97988
2.94501
2.8707
2.6884
2.22
1.422
0.638412
0.343837
0.390647
0.412887
0.390946
0.357386
0.330149
0.314748
0.30541
0.300707
0.304151
3
2.99996
2.99992
2.99973
2.99947
2.9984
2.99689
2.99085
2.98176
2.94918
2.88643
2.71841
2.30697
1.54489
0.705684
0.374148
0.4203
0.443185
0.422432
0.392666
0.369778
0.359892
0.357576
0.361866
0.375795
3
2.99997
2.99993
2.99976
2.99952
2.99857
2.99722
2.99183
2.98376
2.95451
2.90075
2.74798
2.39678
1.67826
0.782094
0.418054
0.459643
0.478624
0.460185
0.435188
0.416747
0.411885
0.417528
0.435611
0.473114
3
2.99997
2.99994
2.99979
2.99958
2.99875
2.99755
2.99288
2.98566
2.96023
2.9119
2.77799
2.45767
1.78846
0.858301
0.466124
0.491426
0.505009
0.496451
0.478565
0.467441
0.469041
0.487869
0.532804
0.634219
2.99999
2.99994
2.99988
2.99961
2.99923
2.99769
2.99551
2.98695
2.97343
2.92738
2.82846
2.5922
2.00509
1.12316
0.468414
0.308391
0.338918
0.345305
0.314614
0.261989
0.209955
0.167465
0.125537
0.0786715
0.044208
3
2.99995
2.99988
2.99961
2.99924
2.99772
2.99557
2.98713
2.97375
2.92828
2.83013
2.59671
2.01269
1.1338
0.474751
0.308644
0.339995
0.34696
0.316467
0.264568
0.213892
0.17302
0.1335
0.0922342
0.0681159
3
2.99995
2.99988
2.99962
2.99926
2.99779
2.9957
2.98755
2.97441
2.93041
2.83338
2.60602
2.02919
1.15769
0.489625
0.31092
0.34417
0.352728
0.323171
0.273389
0.225978
0.188956
0.154833
0.122775
0.10767
3
2.99995
2.99989
2.99964
2.99929
2.99788
2.99587
2.9881
2.97537
2.93334
2.83906
2.62036
2.05559
1.19612
0.512421
0.314227
0.350633
0.361871
0.333955
0.287452
0.244584
0.212672
0.184749
0.160703
0.150843
3
2.99995
2.99989
2.99966
2.99933
2.998
2.9961
2.98881
2.97662
2.93718
2.84716
2.63988
2.09111
1.24896
0.541754
0.317504
0.358442
0.373462
0.347862
0.305581
0.267854
0.241517
0.2199
0.202248
0.196128
3
2.99996
2.9999
2.99968
2.99937
2.99813
2.99634
2.98951
2.97815
2.94114
2.85741
2.66216
2.14609
1.3233
0.583627
0.326449
0.371025
0.38987
0.366334
0.328644
0.296205
0.275322
0.259777
0.248435
0.246003
3
2.99996
2.99991
2.9997
2.99942
2.99825
2.9966
2.99011
2.97988
2.94501
2.8707
2.6884
2.22
1.42201
0.638412
0.343837
0.390647
0.412887
0.390947
0.357386
0.330149
0.314748
0.30541
0.300707
0.304151
3
2.99996
2.99992
2.99973
2.99947
2.9984
2.99689
2.99085
2.98176
2.94918
2.88643
2.71841
2.30697
1.54489
0.705685
0.374148
0.4203
0.443185
0.422432
0.392666
0.369778
0.359892
0.357576
0.361866
0.375795
3
2.99997
2.99993
2.99976
2.99952
2.99857
2.99722
2.99183
2.98376
2.95451
2.90075
2.74798
2.39678
1.67826
0.782095
0.418054
0.459643
0.478624
0.460185
0.435189
0.416747
0.411885
0.417528
0.435611
0.473114
3
2.99997
2.99994
2.99979
2.99958
2.99875
2.99755
2.99288
2.98566
2.96023
2.9119
2.77799
2.45767
1.78846
0.858301
0.466124
0.491426
0.505009
0.496451
0.478565
0.467441
0.469041
0.487869
0.532804
0.634219
2.99999
2.99994
2.99988
2.99961
2.99923
2.99769
2.99551
2.98695
2.97343
2.92738
2.82846
2.5922
2.00509
1.12317
0.468417
0.30839
0.338917
0.345305
0.314614
0.261989
0.209955
0.167465
0.125537
0.0786715
0.0442081
3
2.99995
2.99988
2.99961
2.99924
2.99772
2.99557
2.98713
2.97375
2.92828
2.83013
2.59672
2.01269
1.13381
0.474754
0.308642
0.339994
0.34696
0.316467
0.264568
0.213892
0.17302
0.1335
0.0922342
0.0681159
3
2.99995
2.99988
2.99962
2.99926
2.99779
2.9957
2.98755
2.97441
2.93041
2.83338
2.60602
2.02919
1.1577
0.489627
0.310919
0.34417
0.352728
0.323172
0.273389
0.225977
0.188956
0.154833
0.122775
0.10767
3
2.99995
2.99989
2.99964
2.99929
2.99788
2.99587
2.9881
2.97537
2.93334
2.83906
2.62036
2.05559
1.19613
0.512424
0.314226
0.350632
0.361871
0.333955
0.287451
0.244584
0.212672
0.184749
0.160702
0.150843
3
2.99995
2.99989
2.99966
2.99933
2.998
2.9961
2.98881
2.97662
2.93718
2.84717
2.63989
2.09112
1.24897
0.541757
0.317503
0.358442
0.373462
0.347862
0.305581
0.267854
0.241517
0.219899
0.202248
0.196128
3
2.99996
2.9999
2.99968
2.99937
2.99813
2.99634
2.98951
2.97815
2.94114
2.85741
2.66216
2.14609
1.3233
0.583631
0.326448
0.371025
0.38987
0.366334
0.328644
0.296205
0.275322
0.259777
0.248435
0.246003
3
2.99996
2.99991
2.9997
2.99942
2.99825
2.9966
2.99011
2.97988
2.94501
2.8707
2.6884
2.22
1.42201
0.638416
0.343837
0.390647
0.412888
0.390947
0.357387
0.330149
0.314748
0.30541
0.300707
0.304151
3
2.99996
2.99992
2.99973
2.99947
2.9984
2.99689
2.99085
2.98176
2.94918
2.88643
2.71841
2.30697
1.5449
0.705689
0.37415
0.420301
0.443186
0.422433
0.392666
0.369779
0.359892
0.357576
0.361866
0.375795
3
2.99997
2.99993
2.99976
2.99952
2.99857
2.99722
2.99183
2.98376
2.95451
2.90076
2.74798
2.39678
1.67826
0.782099
0.418056
0.459645
0.478624
0.460186
0.435189
0.416748
0.411886
0.417528
0.43561
0.473114
3
2.99997
2.99994
2.99979
2.99958
2.99875
2.99755
2.99288
2.98566
2.96023
2.9119
2.77799
2.45767
1.78847
0.858307
0.466127
0.491426
0.505009
0.496452
0.478566
0.467442
0.469041
0.487869
0.532804
0.634219
3.00001
2.99996
2.9999
2.99963
2.99925
2.99771
2.99553
2.98697
2.97345
2.92742
2.82848
2.59226
2.00513
1.12327
0.468561
0.308578
0.339093
0.345478
0.314805
0.262221
0.210253
0.167848
0.12606
0.0795294
0.0457563
3.00001
2.99996
2.9999
2.99963
2.99926
2.99774
2.99559
2.98715
2.97378
2.92832
2.83015
2.59677
2.01272
1.1339
0.474889
0.308822
0.340162
0.347127
0.316651
0.264793
0.21418
0.173388
0.13399
0.0929597
0.0691106
3.00001
2.99996
2.9999
2.99964
2.99928
2.99781
2.99572
2.98758
2.97443
2.93045
2.8334
2.60608
2.02922
1.15779
0.489757
0.311097
0.344338
0.352897
0.323359
0.273614
0.226256
0.189295
0.155254
0.123312
0.108285
3.00002
2.99997
2.99991
2.99966
2.99931
2.99791
2.99589
2.98813
2.97539
2.93338
2.8391
2.62043
2.05565
1.19624
0.512564
0.314413
0.350806
0.362044
0.334142
0.287671
0.244844
0.212974
0.185098
0.161104
0.15127
3.00002
2.99997
2.99991
2.99968
2.99935
2.99802
2.99612
2.98883
2.97665
2.93722
2.8472
2.63995
2.09118
1.24909
0.541891
0.317689
0.358614
0.373632
0.348045
0.305789
0.268092
0.241781
0.220188
0.20256
0.196447
3.00002
2.99997
2.99992
2.9997
2.99939
2.99815
2.99636
2.98953
2.97817
2.94117
2.85744
2.66223
2.14616
1.32343
0.583758
0.326631
0.371194
0.390035
0.36651
0.328839
0.296421
0.275551
0.260018
0.248683
0.246251
3.00002
2.99998
2.99993
2.99972
2.99944
2.99827
2.99662
2.99014
2.97991
2.94505
2.87072
2.68846
2.22003
1.42212
0.638518
0.344001
0.390802
0.413039
0.391108
0.357562
0.330339
0.314946
0.305611
0.300907
0.304345
3.00002
2.99998
2.99993
2.99975
2.99949
2.99842
2.99691
2.99087
2.98179
2.94921
2.88646
2.71847
2.30702
1.54501
0.705786
0.374307
0.420446
0.443324
0.422579
0.392824
0.369946
0.360062
0.357744
0.362027
0.375946
3.00002
2.99999
2.99994
2.99978
2.99954
2.99859
2.99724
2.99186
2.98378
2.95454
2.90078
2.74803
2.39683
1.67835
0.782189
0.418201
0.459774
0.478744
0.460315
0.435327
0.416893
0.412031
0.417668
0.435739
0.473226
3.00002
2.99999
2.99995
2.99981
2.9996
2.99877
2.99757
2.99291
2.98568
2.96026
2.91192
2.77804
2.45771
1.78856
0.858405
0.466271
0.491542
0.505115
0.496566
0.478687
0.467567
0.469165
0.487985
0.532904
0.634295
3.00002
3
2.99995
2.99987
2.99957
2.99914
2.99744
2.9949
2.98553
2.96944
2.9186
2.80283
2.53609
1.90666
1.01576
0.546864
0.520911
0.530637
0.532493
0.522429
0.518985
0.530099
0.567228
0.649277
0.816799
3.00002
3.00001
2.99996
2.99989
2.99962
2.99925
2.99772
2.99556
2.98701
2.97368
2.92798
2.83135
2.59734
2.02502
1.16469
0.630236
0.540689
0.554028
0.564679
0.564394
0.569188
0.591058
0.642724
0.74016
0.906358
3.00002
3.00001
2.99997
2.99991
2.99969
2.99937
2.9981
2.99627
2.98935
2.9777
2.94037
2.85515
2.6591
2.13773
1.32822
0.719567
0.558947
0.575472
0.59472
0.604074
0.616687
0.646522
0.70427
0.797188
0.933083
3.00002
3.00001
2.99998
2.99993
2.99974
2.99947
2.99838
2.99684
2.99071
2.98136
2.94866
2.88212
2.71326
2.28622
1.53297
0.826748
0.590155
0.604867
0.625176
0.642763
0.661896
0.695207
0.751082
0.83263
0.945075
3.00002
3.00001
2.99999
2.99995
2.99979
2.99957
2.99869
2.99741
2.99244
2.9848
2.95774
2.90756
2.76423
2.44402
1.75263
0.956885
0.64835
0.648478
0.663097
0.681613
0.703218
0.73769
0.790914
0.860668
0.95442
3.00002
3.00001
3
2.99995
2.99987
2.99958
2.99916
2.9975
2.99503
2.98597
2.97039
2.92141
2.80982
2.55598
1.95368
1.10899
0.716367
0.691583
0.704169
0.720758
0.741176
0.773294
0.823939
0.887493
0.965092
3.00002
3.00002
3.00001
2.99996
2.9999
2.99966
2.99933
2.99797
2.99603
2.98855
2.97643
2.93636
2.84782
2.64169
2.1149
1.30854
0.815662
0.720402
0.733008
0.751186
0.775299
0.805316
0.849501
0.909581
0.978481
3.00002
3.00002
3.00001
2.99998
2.99993
2.99974
2.99947
2.9984
2.99686
2.99088
2.98146
2.94938
2.8826
2.71514
2.29661
1.54383
0.938892
0.755628
0.758397
0.776851
0.805668
0.836431
0.874271
0.92638
0.990153
3.00002
3.00002
3.00001
3
2.99994
2.99986
2.99953
2.99905
2.99721
2.99439
2.98455
2.96609
2.91295
2.78231
2.50583
1.87903
1.11231
0.820292
0.798664
0.8099
0.834002
0.865802
0.901992
0.945224
1.00088
3.00002
3.00002
3.00002
3
2.99996
2.9999
2.99964
2.99928
2.99785
2.99574
2.98793
2.9746
2.93257
2.83646
2.61907
2.07079
1.27859
0.890447
0.833506
0.844431
0.864246
0.892739
0.927428
0.966729
1.01376
3.00003
3.00002
3.00002
3.00001
2.99999
2.99991
2.9998
2.99938
2.99873
2.99646
2.99235
2.97997
2.95122
2.88194
2.68996
2.31981
1.5121
1.01253
0.870593
0.872185
0.891575
0.918834
0.951131
0.9878
1.0282
3.00003
3.00003
3.00002
3.00001
3
2.99994
2.99985
2.99952
2.99904
2.99716
2.9944
2.98417
2.96668
2.91294
2.78861
2.51571
1.89849
1.19268
0.933881
0.910684
0.92159
0.946652
0.97725
1.01034
1.04613
3.00003
3.00003
3.00002
3.00002
3
2.99998
2.99987
2.99973
2.99915
2.99831
2.9951
2.99009
2.97293
2.93939
2.84959
2.62673
2.16233
1.36901
1.00886
0.94316
0.951033
0.971832
1.00053
1.03136
1.0642
3.00003
3.00003
3.00003
3.00002
3.00001
2.99999
2.99992
2.99981
2.99939
2.99879
2.99645
2.99294
2.98044
2.95756
2.8913
2.72862
2.3932
1.66857
1.15133
0.991032
0.984062
0.997198
1.02087
1.05045
1.08093
3.00003
3.00003
3.00003
3.00002
3.00002
3
2.99996
2.99984
2.99966
2.99896
2.99792
2.99405
2.98787
2.96698
2.92814
2.81556
2.58219
2.00667
1.33642
1.06434
1.0203
1.02608
1.04382
1.07007
1.09887
3.00003
3.00003
3.00003
3.00002
3.00002
3.00001
2.99998
2.9999
2.99977
2.99928
2.99858
2.99585
2.99178
2.97715
2.95112
2.87566
2.69799
2.31705
1.58523
1.18116
1.06356
1.05637
1.06555
1.08677
1.11515
3.00003
3.00003
3.00003
3.00003
3.00002
3.00002
2.99999
2.99996
2.99982
2.99961
2.99884
2.99769
2.99344
2.98666
2.96402
2.92104
2.80239
2.54456
1.96125
1.34406
1.12142
1.09136
1.0951
1.11028
1.13315
3.00003
3.00003
3.00003
3.00003
3.00002
3.00002
3
2.99998
2.99988
2.99975
2.99922
2.99845
2.9955
2.9911
2.97519
2.94746
2.86701
2.68221
2.27417
1.56274
1.20721
1.12399
1.12065
1.13079
1.14975
3.00003
3.00003
3.00003
3.00003
3.00003
3.00002
3.00002
2.99999
2.99995
2.9998
2.99959
2.99878
2.99754
2.99306
2.98578
2.96185
2.91542
2.7897
2.51132
1.89962
1.36292
1.17623
1.15139
1.15586
1.17086
3.00003
3.00003
3.00003
3.00003
3.00003
3.00003
3.00002
3.00001
2.99997
2.99991
2.99968
2.99935
2.99811
2.99624
2.9896
2.97805
2.94318
2.8636
2.68969
2.23842
1.58061
1.25779
1.18652
1.1821
1.19038
3.00003
3.00003
3.00003
3.00003
3.00003
3.00003
3.00002
3.00001
2.99999
2.99995
2.9998
2.99958
2.99874
2.99752
2.99286
2.98577
2.961
2.91586
2.78992
2.51281
1.91654
1.41088
1.2341
1.20943
1.21104
3.00003
3.00003
3.00003
3.00003
3.00003
3.00003
3.00003
3.00002
3.00001
2.99997
2.99991
2.99969
2.99937
2.99816
2.99633
2.98988
2.97872
2.94488
2.86852
2.70006
2.26768
1.63346
1.31983
1.24337
1.23493
3.00003
3.00003
3.00003
3.00003
3.00003
3.00003
3.00003
3.00002
3.00002
2.99999
2.99995
2.99981
2.9996
2.9988
2.99765
2.99323
2.98665
2.9634
2.92194
2.80585
2.55146
2.00232
1.47641
1.28843
1.25728
3.00003
3.00003
3.00003
3.00003
3.00003
3.00003
3.00003
3.00002
3.00002
3
2.99998
2.99989
2.99976
2.99926
2.99855
2.99579
2.99175
2.97703
2.95221
2.87844
2.71735
2.35186
1.71242
1.37752
1.28179
3.00003
3.00003
3.00003
3.00003
3.00003
3.00003
3.00003
3.00003
3.00002
3.00001
3
2.99994
2.99987
2.99956
2.99912
2.99747
2.995
2.98617
2.97157
2.92606
2.83627
2.60339
2.14479
1.55483
1.32916
3.00003
3.00003
3.00003
3.00003
3.00003
3.00003
3.00003
3.00003
3.00003
3.00002
3.00001
2.99999
2.99991
2.99979
2.99935
2.9987
2.99631
2.9926
2.9797
2.95731
2.89138
2.74823
2.41204
1.81562
1.41179
3.00003
3.00003
3.00003
3.00003
3.00003
3.00003
3.00003
3.00003
3.00003
3.00002
3.00002
3
2.99996
2.99985
2.99967
2.99902
2.99803
2.99449
2.98873
2.96987
2.93501
2.83481
2.63373
2.12607
1.56418
3.00003
3.00003
3.00003
3.00003
3.00003
3.00003
3.00003
3.00003
3.00003
3.00003
3.00002
3.00001
2.99998
2.99993
2.99974
2.99945
2.99839
2.99681
2.99095
2.98169
2.95071
2.89107
2.7355
2.38163
1.73275
3.00003
3.00003
3.00003
3.00003
3.00003
3.00003
3.00003
3.00003
3.00003
3.00003
3.00002
3.00002
2.99999
2.99995
2.9998
2.99959
2.99874
2.99751
2.99274
2.98536
2.95929
2.9108
2.77331
2.46065
1.80672
3.00003
3.00003
3.00003
3.00003
3.00003
3.00003
3.00003
3.00003
3.00003
3.00003
3.00002
3.00002
3
2.99995
2.99988
2.99959
2.99915
2.99749
2.99485
2.98569
2.96803
2.91646
2.78925
2.50909
1.85013
3.00003
3.00003
3.00003
3.00003
3.00003
3.00003
3.00003
3.00003
3.00003
3.00003
3.00002
3.00002
3
2.99998
2.99987
2.99971
2.99912
2.99812
2.99482
2.9878
2.96864
2.91948
2.80866
2.48548
1.88298
3.00003
3.00003
3.00003
3.00003
3.00003
3.00003
3.00003
3.00003
3.00003
3.00003
3.00003
3.00002
3.00001
2.99996
2.9999
2.99963
2.99925
2.99772
2.99535
2.98672
2.9708
2.92158
2.80236
2.53264
1.87064
3.00003
3.00003
3.00003
3.00003
3.00003
3.00003
3.00003
3.00003
3.00003
3.00003
3.00003
3.00002
3.00001
2.99997
2.9999
2.99965
2.99929
2.99782
2.99553
2.98725
2.97157
2.92385
2.80644
2.5415
1.88042
3.00003
3.00003
3.00003
3.00003
3.00003
3.00003
3.00003
3.00003
3.00003
3.00003
3.00003
3.00002
3.00001
2.99999
2.9999
2.99976
2.99927
2.99832
2.99543
2.98859
2.97095
2.92396
2.81878
2.50399
1.91266
3.00003
3.00003
3.00003
3.00003
3.00003
3.00003
3.00003
3.00003
3.00003
3.00003
3.00003
3.00002
3.00001
2.99997
2.99992
2.9997
2.99935
2.9981
2.99572
2.9884
2.97133
2.927
2.80789
2.55282
1.89232
3.00003
3.00003
3.00003
3.00003
3.00003
3.00003
3.00003
3.00003
3.00003
3.00003
3.00003
3.00002
3.00001
2.99999
2.99991
2.99978
2.99933
2.99838
2.99563
2.98898
2.97186
2.926
2.82268
2.51263
1.92465
3.00003
3.00003
3.00003
3.00003
3.00003
3.00003
3.00003
3.00003
3.00003
3.00003
3.00003
3.00002
3.00001
2.99997
2.99992
2.99969
2.99936
2.998
2.99587
2.98812
2.97293
2.92758
2.81281
2.55737
1.89814
3.00003
3.00003
3.00003
3.00003
3.00003
3.00003
3.00003
3.00003
3.00003
3.00003
3.00003
3.00002
3.00001
2.99998
2.99992
2.99971
2.99938
2.9981
2.99599
2.98848
2.97315
2.92844
2.81351
2.5583
1.8974
3.00003
3.00003
3.00003
3.00003
3.00003
3.00003
3.00003
3.00003
3.00003
3.00003
3.00003
3.00002
3.00001
2.99999
2.99991
2.99978
2.9993
2.99846
2.99549
2.98957
2.97142
2.9274
2.82068
2.51948
1.91754
3.00003
3.00003
3.00003
3.00003
3.00003
3.00003
3.00003
3.00003
3.00003
3.00003
3.00003
3.00002
3.00001
2.99999
2.99989
2.99976
2.9992
2.99839
2.99495
2.98975
2.9697
2.92998
2.8183
2.52623
1.91725
3
2.99998
2.99993
2.99985
2.99955
2.99912
2.99742
2.99488
2.9855
2.96941
2.91856
2.8028
2.53603
1.90662
1.01566
0.546743
0.520812
0.530539
0.532391
0.522322
0.518877
0.529995
0.567134
0.649201
0.816753
3
2.99999
2.99994
2.99987
2.9996
2.99923
2.9977
2.99554
2.98698
2.97365
2.92795
2.83132
2.59728
2.02497
1.16459
0.630128
0.540594
0.553935
0.564585
0.564299
0.569094
0.590968
0.642645
0.740098
0.906317
3
2.99999
2.99995
2.99989
2.99967
2.99935
2.99808
2.99625
2.98932
2.97768
2.94034
2.85512
2.65904
2.13767
1.32811
0.719466
0.55885
0.575378
0.59463
0.603987
0.616604
0.646444
0.704202
0.797132
0.933043
3
2.99999
2.99996
2.99991
2.99972
2.99945
2.99836
2.99682
2.99068
2.98134
2.94862
2.8821
2.7132
2.28619
1.53287
0.826666
0.590059
0.604775
0.62509
0.642682
0.661821