/*--------------------------------*- C++ -*----------------------------------*\
| =========                 |                                                 |
| \\      /  F ield         | OpenFOAM: The Open Source CFD Toolbox           |
|  \\    /   O peration     | Version:  4.1                                   |
|   \\  /    A nd           | Web:      www.OpenFOAM.org                      |
|    \\/     M anipulation  |                                                 |
\*---------------------------------------------------------------------------*/
FoamFile
{
    version     2.0;
    format      ascii;
    class       volScalarField;
    location    "7";
    object      p;
}
// * * * * * * * * * * * * * * * * * * * * * * * * * * * * * * * * * * * * * //

dimensions      [1 -1 -2 0 0 0 0];

internalField   nonuniform List<scalar> 
52500
(
1.00001
1.00003
1.00012
1.00026
1.00076
1.00155
1.00443
1.00884
1.02652
1.04907
1.17084
1.31339
2.16426
3.80684
9.24107
11.4495
11.2323
11.0874
11.164
11.3809
11.6186
11.7707
11.8853
11.9774
12.0498
1.00001
1.00003
1.00012
1.00026
1.00075
1.00153
1.00437
1.00871
1.02622
1.04835
1.1692
1.30894
2.15205
3.77215
9.15435
11.4465
11.2246
11.0751
11.153
11.3714
11.6086
11.7605
11.8768
11.9704
12.0444
1.00001
1.00003
1.00012
1.00025
1.00073
1.00149
1.00425
1.00843
1.02562
1.04663
1.16604
1.29958
2.12617
3.69766
8.96102
11.4398
11.2049
11.0411
11.1187
11.336
11.5695
11.7181
11.8334
11.9258
11.9989
1.00001
1.00003
1.00011
1.00024
1.0007
1.00142
1.00408
1.00806
1.02468
1.04449
1.16037
1.2862
2.08649
3.58193
8.65844
11.4346
11.1759
10.9865
11.0618
11.2743
11.5009
11.6435
11.7547
11.8439
11.9166
1.00001
1.00003
1.0001
1.00023
1.00066
1.00135
1.00386
1.00759
1.02343
1.04185
1.15231
1.26828
2.03566
3.42465
8.24693
11.4345
11.1394
10.9134
10.9847
11.1893
11.4065
11.5402
11.6449
11.7294
11.8023
1.00001
1.00003
1.0001
1.00021
1.00062
1.00126
1.00361
1.00712
1.02189
1.03917
1.14211
1.24932
1.95882
3.2315
7.71052
11.4412
11.102
10.8247
10.8891
11.0803
11.2845
11.4051
11.4984
11.5737
11.6459
1.00001
1.00003
1.00009
1.0002
1.00057
1.00118
1.00335
1.00669
1.02007
1.037
1.12862
1.23005
1.85985
3.00445
7.04559
11.4521
11.066
10.7207
10.7751
10.9458
11.1316
11.2321
11.3053
11.3618
11.4259
1
1.00002
1.00008
1.00018
1.00053
1.00108
1.00307
1.0062
1.01801
1.03502
1.11239
1.21022
1.74897
2.75386
6.27601
11.4313
11.0221
10.6072
10.6469
10.7865
10.9462
11.0171
11.0561
11.074
11.1098
1
1.00002
1.00007
1.00016
1.00047
1.00097
1.00274
1.00554
1.016
1.03154
1.0978
1.18898
1.64036
2.50209
5.47507
11.272
10.9212
10.4885
10.5047
10.5978
10.721
10.7491
10.735
10.6757
10.6164
1
1.00002
1.00006
1.00014
1.00041
1.00085
1.00241
1.00486
1.01408
1.02764
1.08653
1.16416
1.56412
2.31559
4.95608
10.768
10.6832
10.3873
10.3401
10.3843
10.4504
10.4285
10.3334
10.112
9.77391
1.00001
1.00004
1.00012
1.00027
1.00076
1.00156
1.00444
1.00885
1.02653
1.04909
1.17085
1.31345
2.1643
3.80706
9.24146
11.4495
11.2324
11.0875
11.1641
11.381
11.6187
11.7708
11.8855
11.9776
12.05
1.00001
1.00004
1.00012
1.00026
1.00075
1.00154
1.00438
1.00872
1.02623
1.04838
1.1692
1.30901
2.15207
3.77237
9.15474
11.4466
11.2247
11.0752
11.153
11.3715
11.6087
11.7606
11.8769
11.9706
12.0446
1.00001
1.00004
1.00012
1.00026
1.00073
1.00149
1.00426
1.00844
1.02563
1.04666
1.16604
1.29966
2.12619
3.69788
8.96142
11.4398
11.205
11.0412
11.1187
11.3361
11.5696
11.7183
11.8335
11.9259
11.9991
1.00001
1.00003
1.00011
1.00025
1.0007
1.00143
1.00409
1.00807
1.02469
1.04451
1.16039
1.28625
2.08655
3.58217
8.65889
11.4346
11.176
10.9866
11.0619
11.2743
11.501
11.6436
11.7549
11.844
11.9167
1.00001
1.00003
1.00011
1.00023
1.00066
1.00135
1.00386
1.0076
1.02344
1.04187
1.15233
1.26834
2.03572
3.4249
8.24742
11.4344
11.1394
10.9135
10.9848
11.1894
11.4066
11.5403
11.645
11.7295
11.8024
1.00001
1.00003
1.0001
1.00022
1.00062
1.00127
1.00362
1.00713
1.02191
1.03919
1.14214
1.24937
1.95888
3.23175
7.71105
11.4411
11.102
10.8248
10.8892
11.0804
11.2846
11.4052
11.4985
11.5738
11.646
1.00001
1.00003
1.00009
1.0002
1.00058
1.00118
1.00336
1.0067
1.02008
1.03703
1.12862
1.23013
1.85987
3.00467
7.04609
11.4521
11.0661
10.7208
10.7752
10.9459
11.1317
11.2322
11.3053
11.3619
11.426
1.00001
1.00003
1.00009
1.00019
1.00053
1.00109
1.00308
1.0062
1.01802
1.03504
1.11241
1.21028
1.74902
2.75406
6.27648
11.4314
11.0222
10.6073
10.647
10.7866
10.9463
11.0171
11.0562
11.0741
11.1099
1.00001
1.00002
1.00008
1.00017
1.00048
1.00097
1.00275
1.00555
1.01601
1.03155
1.09782
1.18902
1.6404
2.50225
5.47535
11.2723
10.9214
10.4886
10.5048
10.5979
10.7211
10.7491
10.735
10.6758
10.6164
1
1.00002
1.00007
1.00015
1.00042
1.00085
1.00241
1.00487
1.01409
1.02766
1.08655
1.1642
1.56416
2.31572
4.95635
10.7684
10.6834
10.3873
10.3401
10.3844
10.4505
10.4286
10.3334
10.112
9.77394
1.00001
1.00004
1.00012
1.00027
1.00076
1.00156
1.00444
1.00885
1.02653
1.04909
1.17085
1.31346
2.16431
3.80708
9.24151
11.4495
11.2324
11.0875
11.1641
11.381
11.6187
11.7708
11.8855
11.9776
12.05
1.00001
1.00004
1.00012
1.00026
1.00075
1.00154
1.00438
1.00872
1.02623
1.04838
1.1692
1.30902
2.15208
3.77238
9.15479
11.4466
11.2247
11.0752
11.1531
11.3715
11.6087
11.7606
11.877
11.9706
12.0446
1.00001
1.00004
1.00012
1.00026
1.00073
1.00149
1.00426
1.00844
1.02563
1.04666
1.16604
1.29966
2.12619
3.6979
8.96147
11.4398
11.205
11.0412
11.1187
11.3361
11.5696
11.7183
11.8335
11.9259
11.9991
1.00001
1.00003
1.00011
1.00025
1.0007
1.00143
1.00409
1.00807
1.02469
1.04451
1.16039
1.28625
2.08656
3.58219
8.65894
11.4346
11.176
10.9866
11.0619
11.2744
11.501
11.6436
11.7549
11.844
11.9167
1.00001
1.00003
1.00011
1.00023
1.00066
1.00135
1.00386
1.0076
1.02344
1.04187
1.15233
1.26834
2.03573
3.42492
8.24747
11.4344
11.1394
10.9135
10.9848
11.1894
11.4066
11.5403
11.645
11.7295
11.8024
1.00001
1.00003
1.0001
1.00022
1.00062
1.00127
1.00362
1.00713
1.02191
1.03919
1.14214
1.24937
1.95889
3.23177
7.7111
11.4411
11.102
10.8248
10.8892
11.0804
11.2846
11.4052
11.4985
11.5738
11.646
1.00001
1.00003
1.00009
1.0002
1.00058
1.00118
1.00336
1.0067
1.02008
1.03703
1.12862
1.23013
1.85988
3.00469
7.04615
11.4521
11.0661
10.7208
10.7752
10.9459
11.1317
11.2322
11.3053
11.3619
11.426
1.00001
1.00003
1.00009
1.00019
1.00053
1.00109
1.00308
1.00621
1.01802
1.03504
1.11241
1.21028
1.74902
2.75408
6.27654
11.4314
11.0222
10.6073
10.647
10.7866
10.9463
11.0172
11.0562
11.0741
11.1099
1.00001
1.00002
1.00008
1.00017
1.00048
1.00097
1.00275
1.00555
1.01601
1.03155
1.09782
1.18902
1.64041
2.50226
5.47538
11.2723
10.9214
10.4886
10.5048
10.5979
10.7211
10.7491
10.735
10.6758
10.6164
1
1.00002
1.00007
1.00015
1.00042
1.00085
1.00241
1.00487
1.01409
1.02766
1.08655
1.1642
1.56416
2.31573
4.95637
10.7684
10.6835
10.3873
10.3401
10.3844
10.4505
10.4286
10.3335
10.112
9.77394
1.00001
1.00004
1.00012
1.00027
1.00076
1.00156
1.00444
1.00885
1.02653
1.04909
1.17085
1.31346
2.16431
3.80708
9.24151
11.4495
11.2324
11.0875
11.1641
11.381
11.6187
11.7708
11.8855
11.9776
12.05
1.00001
1.00004
1.00012
1.00026
1.00075
1.00154
1.00438
1.00872
1.02623
1.04838
1.1692
1.30902
2.15208
3.77239
9.15479
11.4466
11.2247
11.0752
11.1531
11.3715
11.6087
11.7606
11.877
11.9706
12.0446
1.00001
1.00004
1.00012
1.00026
1.00073
1.00149
1.00426
1.00844
1.02563
1.04666
1.16604
1.29966
2.12619
3.6979
8.96147
11.4398
11.205
11.0412
11.1188
11.3361
11.5696
11.7183
11.8335
11.9259
11.9991
1.00001
1.00003
1.00011
1.00025
1.0007
1.00143
1.00409
1.00807
1.02469
1.04451
1.16039
1.28625
2.08656
3.58219
8.65894
11.4346
11.176
10.9866
11.0619
11.2744
11.501
11.6436
11.7549
11.844
11.9167
1.00001
1.00003
1.00011
1.00023
1.00066
1.00135
1.00386
1.0076
1.02344
1.04187
1.15233
1.26834
2.03573
3.42492
8.24747
11.4344
11.1394
10.9135
10.9848
11.1894
11.4066
11.5403
11.645
11.7295
11.8024
1.00001
1.00003
1.0001
1.00022
1.00062
1.00127
1.00362
1.00713
1.02191
1.03919
1.14214
1.24937
1.95889
3.23177
7.7111
11.4411
11.102
10.8248
10.8892
11.0804
11.2846
11.4052
11.4985
11.5738
11.646
1.00001
1.00003
1.00009
1.0002
1.00058
1.00118
1.00336
1.0067
1.02008
1.03703
1.12862
1.23013
1.85988
3.00469
7.04615
11.4521
11.0661
10.7208
10.7752
10.9459
11.1317
11.2322
11.3053
11.3619
11.426
1.00001
1.00003
1.00009
1.00019
1.00053
1.00109
1.00308
1.00621
1.01802
1.03504
1.11241
1.21028
1.74902
2.75408
6.27654
11.4314
11.0222
10.6073
10.647
10.7866
10.9463
11.0172
11.0562
11.0741
11.1099
1.00001
1.00002
1.00008
1.00017
1.00048
1.00097
1.00275
1.00555
1.01601
1.03155
1.09782
1.18902
1.64041
2.50226
5.47538
11.2723
10.9214
10.4886
10.5048
10.5979
10.7211
10.7491
10.735
10.6758
10.6164
1
1.00002
1.00007
1.00015
1.00042
1.00085
1.00241
1.00487
1.01409
1.02766
1.08655
1.1642
1.56416
2.31573
4.95638
10.7684
10.6835
10.3873
10.3401
10.3844
10.4505
10.4286
10.3335
10.112
9.77394
1.00001
1.00004
1.00012
1.00027
1.00076
1.00156
1.00444
1.00885
1.02653
1.04909
1.17085
1.31346
2.16431
3.80708
9.24152
11.4495
11.2324
11.0875
11.1641
11.381
11.6187
11.7708
11.8855
11.9776
12.05
1.00001
1.00004
1.00012
1.00026
1.00075
1.00154
1.00438
1.00872
1.02623
1.04838
1.1692
1.30902
2.15208
3.77239
9.1548
11.4466
11.2247
11.0752
11.1531
11.3715
11.6087
11.7606
11.877
11.9706
12.0446
1.00001
1.00004
1.00012
1.00026
1.00073
1.00149
1.00426
1.00844
1.02563
1.04666
1.16605
1.29966
2.1262
3.69791
8.96148
11.4398
11.205
11.0412
11.1188
11.3361
11.5696
11.7183
11.8335
11.9259
11.9991
1.00001
1.00003
1.00011
1.00025
1.0007
1.00143
1.00409
1.00807
1.02469
1.04451
1.16039
1.28626
2.08656
3.5822
8.65896
11.4346
11.176
10.9866
11.0619
11.2744
11.501
11.6436
11.7549
11.844
11.9167
1.00001
1.00003
1.00011
1.00023
1.00066
1.00135
1.00386
1.0076
1.02344
1.04187
1.15233
1.26834
2.03573
3.42493
8.24749
11.4344
11.1394
10.9135
10.9848
11.1894
11.4066
11.5403
11.645
11.7295
11.8024
1.00001
1.00003
1.0001
1.00022
1.00062
1.00127
1.00362
1.00713
1.02191
1.03919
1.14214
1.24937
1.95889
3.23178
7.71112
11.4411
11.102
10.8248
10.8892
11.0804
11.2846
11.4052
11.4985
11.5738
11.646
1.00001
1.00003
1.00009
1.0002
1.00058
1.00118
1.00336
1.0067
1.02008
1.03703
1.12862
1.23013
1.85988
3.0047
7.04617
11.4521
11.0661
10.7208
10.7752
10.9459
11.1317
11.2322
11.3053
11.3619
11.426
1.00001
1.00003
1.00009
1.00019
1.00053
1.00109
1.00308
1.00621
1.01802
1.03504
1.11241
1.21028
1.74903
2.75409
6.27656
11.4314
11.0222
10.6073
10.647
10.7866
10.9463
11.0172
11.0562
11.0741
11.1099
1.00001
1.00002
1.00008
1.00017
1.00048
1.00097
1.00275
1.00555
1.01601
1.03155
1.09782
1.18902
1.64041
2.50226
5.47539
11.2723
10.9214
10.4886
10.5048
10.5979
10.7211
10.7491
10.735
10.6758
10.6164
1
1.00002
1.00007
1.00015
1.00042
1.00085
1.00241
1.00487
1.01409
1.02766
1.08655
1.1642
1.56416
2.31573
4.95638
10.7684
10.6835
10.3873
10.3401
10.3844
10.4505
10.4286
10.3335
10.112
9.77395
1.00001
1.00004
1.00012
1.00027
1.00076
1.00156
1.00444
1.00885
1.02653
1.04909
1.17085
1.31346
2.16431
3.80708
9.24152
11.4495
11.2324
11.0875
11.1641
11.381
11.6187
11.7708
11.8855
11.9776
12.05
1.00001
1.00004
1.00012
1.00026
1.00075
1.00154
1.00438
1.00872
1.02623
1.04838
1.1692
1.30902
2.15208
3.77239
9.15481
11.4466
11.2247
11.0752
11.1531
11.3715
11.6087
11.7606
11.877
11.9706
12.0446
1.00001
1.00004
1.00012
1.00026
1.00073
1.00149
1.00426
1.00844
1.02563
1.04666
1.16605
1.29966
2.1262
3.69791
8.96148
11.4398
11.205
11.0412
11.1188
11.3361
11.5696
11.7183
11.8335
11.9259
11.9991
1.00001
1.00003
1.00011
1.00025
1.0007
1.00143
1.00409
1.00807
1.02469
1.04451
1.16039
1.28626
2.08656
3.5822
8.65896
11.4346
11.176
10.9866
11.0619
11.2744
11.501
11.6436
11.7549
11.844
11.9167
1.00001
1.00003
1.00011
1.00023
1.00066
1.00135
1.00386
1.0076
1.02344
1.04187
1.15233
1.26834
2.03573
3.42493
8.24749
11.4344
11.1394
10.9135
10.9848
11.1894
11.4066
11.5403
11.645
11.7295
11.8024
1.00001
1.00003
1.0001
1.00022
1.00062
1.00127
1.00362
1.00713
1.02191
1.03919
1.14214
1.24937
1.95889
3.23178
7.71112
11.4411
11.102
10.8248
10.8892
11.0804
11.2846
11.4052
11.4985
11.5738
11.646
1.00001
1.00003
1.00009
1.0002
1.00058
1.00118
1.00336
1.0067
1.02008
1.03703
1.12862
1.23013
1.85988
3.0047
7.04617
11.4521
11.0661
10.7208
10.7752
10.9459
11.1317
11.2322
11.3053
11.3619
11.426
1.00001
1.00003
1.00009
1.00019
1.00053
1.00109
1.00308
1.00621
1.01802
1.03504
1.11241
1.21028
1.74903
2.75409
6.27656
11.4314
11.0222
10.6073
10.647
10.7866
10.9463
11.0172
11.0562
11.0741
11.1099
1.00001
1.00002
1.00008
1.00017
1.00048
1.00097
1.00275
1.00555
1.01601
1.03155
1.09782
1.18902
1.64041
2.50226
5.4754
11.2723
10.9214
10.4886
10.5048
10.5979
10.7211
10.7491
10.735
10.6758
10.6164
1
1.00002
1.00007
1.00015
1.00042
1.00085
1.00241
1.00487
1.01409
1.02766
1.08655
1.1642
1.56416
2.31573
4.95639
10.7684
10.6835
10.3873
10.3401
10.3844
10.4505
10.4286
10.3335
10.1121
9.77395
1.00001
1.00004
1.00012
1.00027
1.00076
1.00156
1.00444
1.00885
1.02653
1.04909
1.17085
1.31346
2.16431
3.80708
9.24151
11.4495
11.2324
11.0875
11.1641
11.381
11.6187
11.7708
11.8855
11.9776
12.05
1.00001
1.00004
1.00012
1.00026
1.00075
1.00154
1.00438
1.00872
1.02623
1.04838
1.1692
1.30902
2.15208
3.77239
9.1548
11.4466
11.2247
11.0752
11.1531
11.3715
11.6087
11.7606
11.877
11.9706
12.0446
1.00001
1.00004
1.00012
1.00026
1.00073
1.00149
1.00426
1.00844
1.02563
1.04666
1.16604
1.29966
2.1262
3.6979
8.96147
11.4398
11.205
11.0412
11.1188
11.3361
11.5696
11.7183
11.8335
11.9259
11.9991
1.00001
1.00003
1.00011
1.00025
1.0007
1.00143
1.00409
1.00807
1.02469
1.04451
1.16039
1.28625
2.08656
3.5822
8.65895
11.4346
11.176
10.9866
11.0619
11.2744
11.501
11.6436
11.7549
11.844
11.9167
1.00001
1.00003
1.00011
1.00023
1.00066
1.00135
1.00386
1.0076
1.02344
1.04187
1.15233
1.26834
2.03573
3.42492
8.24748
11.4344
11.1394
10.9135
10.9848
11.1894
11.4066
11.5403
11.645
11.7295
11.8024
1.00001
1.00003
1.0001
1.00022
1.00062
1.00127
1.00362
1.00713
1.02191
1.03919
1.14214
1.24937
1.95889
3.23177
7.71111
11.4411
11.102
10.8248
10.8892
11.0804
11.2846
11.4052
11.4985
11.5738
11.646
1.00001
1.00003
1.00009
1.0002
1.00058
1.00118
1.00336
1.0067
1.02008
1.03703
1.12862
1.23013
1.85988
3.0047
7.04616
11.4521
11.0661
10.7208
10.7752
10.9459
11.1317
11.2322
11.3053
11.3619
11.426
1.00001
1.00003
1.00009
1.00019
1.00053
1.00109
1.00308
1.00621
1.01802
1.03504
1.11241
1.21028
1.74902
2.75408
6.27655
11.4314
11.0222
10.6073
10.647
10.7866
10.9463
11.0172
11.0562
11.0741
11.1099
1.00001
1.00002
1.00008
1.00017
1.00048
1.00097
1.00275
1.00555
1.01601
1.03155
1.09782
1.18902
1.64041
2.50226
5.47539
11.2723
10.9214
10.4886
10.5048
10.5979
10.7211
10.7491
10.735
10.6758
10.6164
1
1.00002
1.00007
1.00015
1.00042
1.00085
1.00241
1.00487
1.01409
1.02766
1.08655
1.1642
1.56416
2.31573
4.95638
10.7684
10.6835
10.3873
10.3401
10.3844
10.4505
10.4286
10.3335
10.112
9.77394
1.00001
1.00004
1.00012
1.00027
1.00076
1.00156
1.00444
1.00885
1.02653
1.04909
1.17085
1.31346
2.16431
3.80708
9.24151
11.4495
11.2324
11.0875
11.1641
11.381
11.6187
11.7708
11.8855
11.9776
12.05
1.00001
1.00004
1.00012
1.00026
1.00075
1.00154
1.00438
1.00872
1.02623
1.04838
1.1692
1.30902
2.15208
3.77238
9.15479
11.4466
11.2247
11.0752
11.1531
11.3715
11.6087
11.7606
11.877
11.9706
12.0446
1.00001
1.00004
1.00012
1.00026
1.00073
1.00149
1.00426
1.00844
1.02563
1.04666
1.16604
1.29966
2.12619
3.6979
8.96147
11.4398
11.205
11.0412
11.1187
11.3361
11.5696
11.7183
11.8335
11.9259
11.9991
1.00001
1.00003
1.00011
1.00025
1.0007
1.00143
1.00409
1.00807
1.02469
1.04451
1.16039
1.28625
2.08656
3.58219
8.65894
11.4346
11.176
10.9866
11.0619
11.2744
11.501
11.6436
11.7549
11.844
11.9167
1.00001
1.00003
1.00011
1.00023
1.00066
1.00135
1.00386
1.0076
1.02344
1.04187
1.15233
1.26834
2.03573
3.42492
8.24747
11.4344
11.1394
10.9135
10.9848
11.1894
11.4066
11.5403
11.645
11.7295
11.8024
1.00001
1.00003
1.0001
1.00022
1.00062
1.00127
1.00362
1.00713
1.02191
1.03919
1.14214
1.24937
1.95889
3.23177
7.7111
11.4411
11.102
10.8248
10.8892
11.0804
11.2846
11.4052
11.4985
11.5738
11.646
1.00001
1.00003
1.00009
1.0002
1.00058
1.00118
1.00336
1.0067
1.02008
1.03703
1.12862
1.23013
1.85988
3.00469
7.04615
11.4521
11.0661
10.7208
10.7752
10.9459
11.1317
11.2322
11.3053
11.3619
11.426
1.00001
1.00003
1.00009
1.00019
1.00053
1.00109
1.00308
1.00621
1.01802
1.03504
1.11241
1.21028
1.74902
2.75408
6.27654
11.4314
11.0222
10.6073
10.647
10.7866
10.9463
11.0172
11.0562
11.0741
11.1099
1.00001
1.00002
1.00008
1.00017
1.00048
1.00097
1.00275
1.00555
1.01601
1.03155
1.09782
1.18902
1.64041
2.50226
5.47538
11.2723
10.9214
10.4886
10.5048
10.5979
10.7211
10.7491
10.735
10.6758
10.6164
1
1.00002
1.00007
1.00015
1.00042
1.00085
1.00241
1.00487
1.01409
1.02766
1.08655
1.1642
1.56416
2.31573
4.95638
10.7684
10.6835
10.3873
10.3401
10.3844
10.4505
10.4286
10.3335
10.112
9.77394
1.00001
1.00004
1.00012
1.00027
1.00076
1.00156
1.00444
1.00885
1.02653
1.04909
1.17085
1.31345
2.1643
3.80706
9.24146
11.4495
11.2324
11.0875
11.1641
11.381
11.6187
11.7708
11.8855
11.9776
12.05
1.00001
1.00004
1.00012
1.00026
1.00075
1.00154
1.00438
1.00872
1.02623
1.04838
1.1692
1.30901
2.15207
3.77237
9.15474
11.4466
11.2247
11.0752
11.153
11.3715
11.6087
11.7606
11.8769
11.9706
12.0446
1.00001
1.00004
1.00012
1.00026
1.00073
1.00149
1.00426
1.00844
1.02563
1.04666
1.16604
1.29966
2.12619
3.69788
8.96142
11.4398
11.205
11.0412
11.1187
11.3361
11.5696
11.7183
11.8335
11.9259
11.9991
1.00001
1.00003
1.00011
1.00025
1.0007
1.00143
1.00409
1.00807
1.02469
1.04451
1.16039
1.28625
2.08655
3.58217
8.65889
11.4346
11.176
10.9866
11.0619
11.2743
11.501
11.6436
11.7549
11.844
11.9167
1.00001
1.00003
1.00011
1.00023
1.00066
1.00135
1.00386
1.0076
1.02344
1.04187
1.15233
1.26834
2.03572
3.4249
8.24742
11.4344
11.1394
10.9135
10.9848
11.1894
11.4066
11.5403
11.645
11.7295
11.8024
1.00001
1.00003
1.0001
1.00022
1.00062
1.00127
1.00362
1.00713
1.02191
1.03919
1.14214
1.24937
1.95888
3.23175
7.71105
11.4411
11.102
10.8248
10.8892
11.0804
11.2846
11.4052
11.4985
11.5738
11.646
1.00001
1.00003
1.00009
1.0002
1.00058
1.00118
1.00336
1.0067
1.02008
1.03703
1.12862
1.23013
1.85987
3.00467
7.04609
11.4521
11.0661
10.7208
10.7752
10.9459
11.1317
11.2322
11.3053
11.3619
11.426
1.00001
1.00003
1.00009
1.00019
1.00053
1.00109
1.00308
1.0062
1.01802
1.03504
1.11241
1.21028
1.74902
2.75406
6.27648
11.4314
11.0222
10.6073
10.647
10.7866
10.9463
11.0171
11.0562
11.0741
11.1099
1.00001
1.00002
1.00008
1.00017
1.00048
1.00097
1.00275
1.00555
1.01601
1.03155
1.09782
1.18902
1.6404
2.50225
5.47535
11.2723
10.9214
10.4886
10.5048
10.5979
10.7211
10.7491
10.735
10.6758
10.6164
1
1.00002
1.00007
1.00015
1.00042
1.00085
1.00241
1.00487
1.01409
1.02766
1.08655
1.1642
1.56416
2.31572
4.95635
10.7684
10.6834
10.3873
10.3401
10.3844
10.4505
10.4286
10.3334
10.112
9.77394
1.00001
1.00003
1.00012
1.00026
1.00076
1.00155
1.00443
1.00884
1.02652
1.04907
1.17084
1.31339
2.16426
3.80684
9.24106
11.4495
11.2323
11.0874
11.164
11.3809
11.6186
11.7707
11.8853
11.9774
12.0498
1.00001
1.00003
1.00012
1.00026
1.00075
1.00153
1.00437
1.00871
1.02622
1.04835
1.1692
1.30894
2.15205
3.77215
9.15435
11.4465
11.2246
11.0751
11.153
11.3714
11.6086
11.7605
11.8768
11.9704
12.0444
1.00001
1.00003
1.00012
1.00025
1.00073
1.00149
1.00425
1.00843
1.02562
1.04663
1.16604
1.29958
2.12616
3.69766
8.96101
11.4398
11.2049
11.0411
11.1187
11.336
11.5695
11.7181
11.8334
11.9258
11.9989
1.00001
1.00003
1.00011
1.00024
1.0007
1.00142
1.00408
1.00806
1.02468
1.04449
1.16037
1.2862
2.08649
3.58193
8.65843
11.4346
11.1759
10.9865
11.0618
11.2743
11.5009
11.6435
11.7547
11.8439
11.9166
1.00001
1.00003
1.0001
1.00023
1.00066
1.00135
1.00386
1.00759
1.02343
1.04185
1.15231
1.26828
2.03565
3.42465
8.24692
11.4345
11.1394
10.9134
10.9847
11.1893
11.4065
11.5402
11.6449
11.7294
11.8023
1.00001
1.00003
1.0001
1.00021
1.00062
1.00126
1.00361
1.00712
1.02189
1.03917
1.14211
1.24932
1.95881
3.2315
7.71051
11.4412
11.102
10.8247
10.8891
11.0803
11.2845
11.4051
11.4984
11.5737
11.6459
1.00001
1.00003
1.00009
1.0002
1.00057
1.00118
1.00335
1.00669
1.02007
1.037
1.12862
1.23005
1.85985
3.00444
7.04559
11.4521
11.066
10.7207
10.7751
10.9458
11.1316
11.2321
11.3053
11.3618
11.4259
1
1.00002
1.00008
1.00018
1.00053
1.00108
1.00307
1.0062
1.01801
1.03502
1.11239
1.21022
1.74897
2.75386
6.276
11.4313
11.0221
10.6072
10.6469
10.7865
10.9462
11.0171
11.0561
11.074
11.1098
1
1.00002
1.00007
1.00016
1.00047
1.00097
1.00274
1.00554
1.016
1.03154
1.0978
1.18898
1.64036
2.50209
5.47506
11.272
10.9212
10.4885
10.5047
10.5978
10.721
10.7491
10.735
10.6757
10.6164
1
1.00002
1.00006
1.00014
1.00041
1.00085
1.00241
1.00486
1.01408
1.02764
1.08653
1.16416
1.56412
2.31559
4.95608
10.768
10.6832
10.3873
10.3401
10.3843
10.4504
10.4285
10.3334
10.112
9.77391
1
1.00002
1.00005
1.00014
1.0003
1.00086
1.00176
1.00504
1.00994
1.03049
1.05521
1.19611
1.36569
2.32675
4.23765
9.89278
10.4579
10.3008
10.1558
10.1568
10.1471
10.0628
9.81515
9.24116
7.8006
1
1.00002
1.00004
1.00013
1.00027
1.00076
1.00155
1.00441
1.00882
1.02626
1.04901
1.16779
1.31128
2.13576
3.72265
8.7957
10.3212
10.2071
9.98353
9.91985
9.84625
9.67197
9.28825
8.51989
7.06014
1
1.00001
1.00003
1.00011
1.00022
1.00064
1.0013
1.0037
1.00728
1.02237
1.0399
1.14438
1.25304
1.97093
3.24222
7.57833
10.2209
10.1032
9.82873
9.68137
9.55438
9.30204
8.83424
8.06675
6.92018
1
1.00001
1.00003
1.00009
1.00019
1.00054
1.00111
1.00314
1.00631
1.01853
1.03503
1.117
1.21274
1.77351
2.78798
6.26844
10.1244
10.0038
9.69146
9.45312
9.27113
8.98027
8.50255
7.80483
6.90395
1
1.00001
1.00002
1.00007
1.00015
1.00044
1.00091
1.00257
1.00518
1.01495
1.0295
1.09067
1.17741
1.58497
2.36244
4.92603
9.86799
9.83724
9.58712
9.25365
9.0179
8.71276
8.2583
7.63515
6.88293
1
1
1.00002
1.00005
1.00014
1.0003
1.00085
1.00172
1.00491
1.00968
1.02956
1.05347
1.18886
1.35081
2.25217
4.01966
9.08486
9.58419
9.42164
9.08195
8.80261
8.48745
8.06472
7.50972
6.85398
1
1
1.00002
1.00004
1.00011
1.00024
1.00068
1.00139
1.00395
1.00782
1.02364
1.04285
1.1517
1.27069
2.0035
3.33516
7.57776
9.3
9.21054
8.95564
8.62331
8.29634
7.90047
7.40412
6.82443
0.999999
1
1.00001
1.00003
1.00009
1.00019
1.00054
1.0011
1.00311
1.00623
1.01841
1.03455
1.11611
1.21149
1.76158
2.75044
6.05802
9.12129
9.08131
8.8751
8.4901
8.14651
7.76619
7.31338
6.79245
0.999998
1
1
1.00002
1.00005
1.00016
1.00034
1.00095
1.00193
1.00555
1.01072
1.03387
1.05935
1.21361
1.41495
2.34354
4.34149
8.74936
8.98088
8.8065
8.42083
8.03055
7.65543
7.2354
6.76098
0.999996
0.999998
1
1.00002
1.00004
1.00012
1.00026
1.00073
1.00148
1.00422
1.00831
1.02541
1.04567
1.1624
1.29163
2.07033
3.47755
7.70899
8.76718
8.6566
8.35558
7.93412
7.55537
7.16117
6.72962
0.999995
0.999995
0.999999
1.00001
1.00003
1.00007
1.00021
1.00044
1.00127
1.00246
1.00767
1.01332
1.04856
1.07955
1.30565
1.61428
2.97468
6.00907
8.5055
8.47498
8.28041
7.87193
7.47188
7.09335
6.696
0.999994
0.999994
0.999997
1
1.00002
1.00005
1.00016
1.00034
1.00096
1.00195
1.00555
1.01093
1.03329
1.06034
1.20754
1.40869
2.30086
4.18018
8.05169
8.36391
8.21344
7.85335
7.41704
7.0392
6.66839
0.999993
0.999993
0.999995
1
1.00001
1.00004
1.0001
1.00029
1.0006
1.00168
1.00339
1.00978
1.01888
1.05971
1.10901
1.37237
1.81821
3.39281
6.91537
8.13923
8.06469
7.81565
7.38492
6.99951
6.64453
0.999992
0.999993
0.999994
0.999998
1
1.00003
1.00007
1.00021
1.00043
1.00121
1.00245
1.007
1.01356
1.04259
1.07477
1.26906
1.532
2.69824
5.19271
7.79435
7.86437
7.73139
7.39413
6.98967
6.63253
0.999992
0.999992
0.999993
0.999995
1
1.00001
1.00006
1.00012
1.00036
1.00073
1.00206
1.00416
1.01187
1.02362
1.06966
1.14188
1.42682
1.98412
3.65241
7.05598
7.7195
7.63341
7.3867
6.9983
6.63508
0.999991
0.999992
0.999992
0.999994
0.999999
1.00001
1.00004
1.00008
1.00024
1.00051
1.00142
1.00288
1.00813
1.01599
1.04852
1.08916
1.30029
1.62566
2.88303
5.5761
7.47583
7.4751
7.35372
7.04182
6.64958
0.999991
0.999991
0.999992
0.999993
0.999995
1
1.00002
1.00006
1.00014
1.0004
1.00082
1.00229
1.00461
1.01308
1.02584
1.07687
1.15287
1.46748
2.06331
3.76925
6.96496
7.38845
7.30334
7.07366
6.68833
0.999991
0.999991
0.999991
0.999992
0.999994
0.999999
1.00001
1.00004
1.00009
1.00027
1.00055
1.00155
1.00314
1.0088
1.01747
1.05176
1.09834
1.31537
1.68682
2.96267
5.75192
7.18282
7.1797
7.06083
6.77287
0.999991
0.999991
0.999991
0.999991
0.999993
0.999995
1
1.00002
1.00007
1.00015
1.00042
1.00087
1.00243
1.0049
1.01394
1.02746
1.08254
1.16202
1.50609
2.14465
4.01771
6.70712
7.07926
7.00984
6.80807
0.999991
0.999991
0.999991
0.999991
0.999992
0.999994
0.999998
1.00001
1.00003
1.00011
1.00023
1.00066
1.00134
1.00373
1.00735
1.02193
1.03965
1.13452
1.24226
1.82711
2.8365
5.63412
6.87071
6.88295
6.79078
0.999991
0.99999
0.999991
0.999991
0.999991
0.999993
0.999995
1
1.00002
1.00007
1.00015
1.00043
1.00089
1.00247
1.00499
1.01406
1.02781
1.08261
1.1625
1.50309
2.12354
3.92234
6.38664
6.78618
6.74155
0.999991
0.99999
0.99999
0.999991
0.999991
0.999992
0.999994
0.999998
1.00001
1.00003
1.00011
1.00023
1.00064
1.00131
1.00364
1.00717
1.02126
1.03859
1.12978
1.23377
1.78794
2.7323
5.33156
6.57599
6.64996
0.999991
0.99999
0.99999
0.99999
0.999991
0.999991
0.999993
0.999995
1
1.00002
1.00007
1.00015
1.00041
1.00085
1.00234
1.00474
1.01323
1.02621
1.07666
1.15159
1.45741
2.01556
3.57618
6.07749
6.58079
0.999991
0.99999
0.99999
0.99999
0.999991
0.999991
0.999992
0.999993
0.999999
1.00001
1.00004
1.00009
1.00025
1.00053
1.00146
1.00296
1.00819
1.01632
1.04709
1.09146
1.27931
1.60209
2.66104
4.92895
6.36378
0.999991
0.99999
0.99999
0.99999
0.99999
0.999991
0.999991
0.999992
0.999996
1
1.00002
1.00005
1.00015
1.00032
1.00088
1.0018
1.00495
1.00992
1.02778
1.05603
1.15948
1.34294
1.94182
3.163
5.84031
0.999991
0.99999
0.99999
0.99999
0.99999
0.99999
0.999991
0.999992
0.999993
0.999998
1.00001
1.00003
1.00008
1.00023
1.00047
1.0013
1.00264
1.00732
1.01462
1.04194
1.08214
1.24703
1.53888
2.47484
4.52983
0.999991
0.99999
0.99999
0.99999
0.99999
0.99999
0.999991
0.999991
0.999992
0.999994
1
1.00001
1.00005
1.00012
1.00034
1.00071
1.00196
1.00396
1.01108
1.02218
1.06332
1.13018
1.37453
1.84325
3.2022
0.999991
0.99999
0.99999
0.99999
0.99999
0.99999
0.99999
0.999991
0.999991
0.999993
0.999997
1.00001
1.00003
1.00009
1.0002
1.00056
1.00115
1.0032
1.00645
1.01825
1.03583
1.10888
1.20913
1.67677
2.51181
0.999991
0.99999
0.99999
0.99999
0.99999
0.99999
0.99999
0.999991
0.999991
0.999993
0.999995
1
1.00002
1.00007
1.00015
1.00043
1.00089
1.00252
1.00509
1.01467
1.02899
1.08926
1.17303
1.57808
2.34603
0.999991
0.99999
0.99999
0.99999
0.99999
0.99999
0.99999
0.99999
0.999991
0.999992
0.999995
1
1.00002
1.00004
1.00014
1.0003
1.00087
1.00177
1.00519
1.01002
1.03248
1.05702
1.21239
1.40221
2.44835
0.999991
0.99999
0.99999
0.99999
0.99999
0.99999
0.99999
0.99999
0.999991
0.999992
0.999993
1
1.00001
1.00004
1.0001
1.00031
1.00063
1.00193
1.00354
1.0124
1.02078
1.08012
1.137
1.53317
2.21704
0.999991
0.99999
0.99999
0.99999
0.99999
0.99999
0.99999
0.99999
0.999991
0.999992
0.999994
0.999998
1.00001
1.00004
1.00012
1.00026
1.00077
1.00158
1.0047
1.00919
1.02979
1.05274
1.19961
1.37118
2.39817
0.999991
0.99999
0.99999
0.99999
0.99999
0.99999
0.99999
0.99999
0.999991
0.999991
0.999994
0.999998
1.00001
1.00003
1.00012
1.00025
1.00074
1.00151
1.00452
1.00878
1.02899
1.05088
1.19522
1.36045
2.38123
0.999991
0.99999
0.99999
0.99999
0.99999
0.99999
0.99999
0.99999
0.999991
0.999991
0.999993
0.999998
1.00001
1.00004
1.00008
1.00026
1.00051
1.00174
1.00301
1.01156
1.01879
1.0755
1.12848
1.50969
2.16857
0.999991
0.99999
0.99999
0.99999
0.99999
0.99999
0.99999
0.99999
0.999991
0.999991
0.999993
0.999997
1.00001
1.00003
1.0001
1.00022
1.00068
1.00133
1.00438
1.0077
1.02905
1.04803
1.1917
1.35705
2.35231
0.999991
0.99999
0.99999
0.99999
0.99999
0.99999
0.99999
0.99999
0.999991
0.999991
0.999993
0.999997
1
1.00003
1.00007
1.00025
1.00046
1.00168
1.00283
1.01121
1.01818
1.07385
1.12582
1.50179
2.15586
0.999991
0.99999
0.99999
0.99999
0.99999
0.99999
0.99999
0.99999
0.999991
0.999991
0.999993
0.999997
1.00001
1.00003
1.0001
1.00022
1.00068
1.00139
1.00424
1.00815
1.0278
1.04836
1.18904
1.35099
2.35042
0.999991
0.99999
0.99999
0.99999
0.99999
0.99999
0.99999
0.99999
0.999991
0.999991
0.999993
0.999996
1.00001
1.00003
1.0001
1.00021
1.00065
1.00132
1.00417
1.00781
1.02767
1.04746
1.18867
1.35047
2.35517
0.999991
0.99999
0.99999
0.99999
0.99999
0.99999
0.99999
0.99999
0.999991
0.999991
0.999993
0.999997
1
1.00003
1.00007
1.00025
1.0005
1.00163
1.00305
1.01086
1.0187
1.07378
1.12691
1.49993
2.1605
0.999991
0.99999
0.99999
0.99999
0.99999
0.99999
0.99999
0.99999
0.999991
0.999991
0.999993
0.999998
1.00001
1.00004
1.00008
1.00027
1.00056
1.00171
1.00347
1.0108
1.0208
1.07197
1.13158
1.4951
2.16121
1
1.00002
1.00005
1.00015
1.00031
1.00087
1.00177
1.00505
1.00995
1.0305
1.05524
1.19612
1.36577
2.32679
4.23792
9.89321
10.458
10.3008
10.1559
10.1568
10.1472
10.0629
9.81522
9.24121
7.80062
1
1.00002
1.00004
1.00013
1.00027
1.00077
1.00156
1.00442
1.00883
1.02627
1.04904
1.16781
1.31135
2.13581
3.7229
8.79615
10.3213
10.2071
9.9836
9.91993
9.84633
9.67204
9.28831
8.51993
7.06015
1
1.00002
1.00004
1.00011
1.00023
1.00064
1.00131
1.00371
1.00729
1.02238
1.03992
1.14441
1.25309
1.97099
3.24244
7.57879
10.221
10.1032
9.8288
9.68145
9.55445
9.3021
8.83429
8.06679
6.9202
1
1.00001
1.00003
1.00009
1.00019
1.00055
1.00112
1.00315
1.00632
1.01854
1.03505
1.117
1.2128
1.77354
2.78818
6.26889
10.1245
10.0039
9.69153
9.45319
9.2712
8.98033
8.5026
7.80487
6.90397
1
1.00001
1.00003
1.00008
1.00016
1.00045
1.00091
1.00257
1.00519
1.01496
1.02952
1.09068
1.17745
1.58501
2.36258
4.92627
9.86823
9.83738
9.58717
9.2537
9.01796
8.71282
8.25836
7.63519
6.88296
1
1.00001
1.00002
1.00005
1.00015
1.0003
1.00085
1.00173
1.00492
1.00969
1.02957
1.0535
1.18888
1.35089
2.25224
4.0199
9.08527
9.5843
9.42172
9.08199
8.80266
8.48751
8.06477
7.50976
6.85402
1
1.00001
1.00002
1.00004
1.00012
1.00025
1.00069
1.0014
1.00396
1.00783
1.02366
1.04288
1.15171
1.27076
2.00354
3.33538
7.57818
9.30007
9.21061
8.95568
8.62336
8.2964
7.90053
7.40417
6.82446
1
1
1.00002
1.00003
1.00009
1.00019
1.00054
1.00111
1.00312
1.00625
1.01842
1.03458
1.11611
1.21156
1.7616
2.75063
6.0584
9.1214
9.0814
8.87514
8.49015
8.14657
7.76624
7.31343
6.79249
1
1
1.00001
1.00003
1.00006
1.00017
1.00034