/*--------------------------------*- C++ -*----------------------------------*\
| =========                 |                                                 |
| \\      /  F ield         | OpenFOAM: The Open Source CFD Toolbox           |
|  \\    /   O peration     | Version:  4.1                                   |
|   \\  /    A nd           | Web:      www.OpenFOAM.org                      |
|    \\/     M anipulation  |                                                 |
\*---------------------------------------------------------------------------*/
FoamFile
{
    version     2.0;
    format      ascii;
    class       surfaceScalarField;
    location    "7";
    object      phi;
}
// * * * * * * * * * * * * * * * * * * * * * * * * * * * * * * * * * * * * * //

dimensions      [1 0 -1 0 0 0 0];

internalField   nonuniform List<scalar> 
150500
(
0.0168001
2.17404e-10
-3.50494e-12
0.0168001
1.21535e-09
-1.15941e-11
0.0168
4.50761e-09
-1.36279e-11
0.0168
1.16397e-08
-2.14026e-11
0.0168
3.18125e-08
-2.18468e-11
0.0167999
7.32386e-08
-2.8928e-11
0.0167997
1.86688e-07
-2.94659e-11
0.0167993
4.32174e-07
-3.99864e-11
0.016798
1.0434e-06
-4.09143e-11
0.0167955
2.50471e-06
-8.44495e-11
0.0167883
6.1352e-06
-4.06193e-11
0.0167716
1.61528e-05
-2.77028e-10
0.0167135
5.44683e-05
-1.43494e-10
0.016539
0.000167629
-9.33538e-10
0.0155027
0.00101056
-1.7461e-09
0.0143324
0.00117222
-9.56031e-11
0.0131448
0.00118687
-3.01122e-10
0.0118823
0.00125982
-4.16325e-10
0.0105385
0.0013413
-4.0899e-10
0.00909998
0.00143614
-4.13611e-10
0.0075428
0.0015553
-5.05142e-10
0.00585385
0.00168684
-6.11159e-10
0.00404321
0.00180843
-7.01959e-10
0.00210374
0.00193761
-8.05216e-10
0.00210129
-9.21015e-10
0.0168001
4.48044e-10
-3.49512e-12
0.0168001
2.47457e-09
-1.16108e-11
0.0168
9.20876e-09
-1.36426e-11
0.0168
2.36792e-08
-2.14709e-11
0.0168
6.52485e-08
-2.20219e-11
0.0167999
1.50669e-07
-2.93671e-11
0.0167997
3.83705e-07
-3.03175e-11
0.0167992
9.15795e-07
-4.40355e-11
0.016798
2.07405e-06
-3.89501e-11
0.0167949
5.43233e-06
-1.15486e-10
0.0167881
1.20868e-05
-1.8995e-12
0.0167702
3.31458e-05
-3.11784e-10
0.0167098
0.00011125
-8.79445e-11
0.0165284
0.000342116
-9.21999e-10
0.0154763
0.00203667
-1.7384e-09
0.0142834
0.00236717
-1.02745e-10
0.0131059
0.00236357
-3.17333e-10
0.0118573
0.00250574
-4.21455e-10
0.0105216
0.00267453
-4.12343e-10
0.00907147
0.00288392
-4.15488e-10
0.00749594
0.00312896
-5.05418e-10
0.00579248
0.00338826
-6.04524e-10
0.00396134
0.00363759
-6.87371e-10
0.00201524
0.00388176
-7.78632e-10
0.00411415
-8.76597e-10
0.0168001
6.23646e-10
-3.47002e-12
0.0168001
3.46003e-09
-1.16316e-11
0.0168001
1.2877e-08
-1.36191e-11
0.0168
3.31357e-08
-2.15096e-11
0.0168
9.13458e-08
-2.20369e-11
0.0167999
2.10369e-07
-2.95067e-11
0.0167998
5.42997e-07
-3.05496e-11
0.0167994
1.25273e-06
-4.50783e-11
0.0167982
3.09974e-06
-3.91374e-11
0.0167962
7.27065e-06
-1.20573e-10
0.0167879
1.94775e-05
7.62082e-13
0.0167713
4.88441e-05
-3.22355e-10
0.0167115
0.000167478
-8.63055e-11
0.0165303
0.000516579
-9.33725e-10
0.0154999
0.00304037
-1.78933e-09
0.0142912
0.00357841
-5.70735e-11
0.0131162
0.00353806
-3.01303e-10
0.011881
0.00373835
-4.26897e-10
0.0105593
0.00399384
-4.2138e-10
0.0091157
0.00432517
-4.23415e-10
0.00753705
0.00470571
-4.94818e-10
0.00582629
0.00509705
-5.74945e-10
0.00398026
0.00548141
-6.44392e-10
0.00201875
0.0058418
-7.10197e-10
0.00613071
-7.73749e-10
0.0168001
7.84106e-10
-3.43676e-12
0.0168001
4.32395e-09
-1.16374e-11
0.0168001
1.61044e-08
-1.35265e-11
0.0168
4.12927e-08
-2.1566e-11
0.0168
1.14269e-07
-2.15896e-11
0.0168
2.62596e-07
-2.90993e-11
0.0167998
6.83899e-07
-2.93466e-11
0.0167995
1.56458e-06
-3.99302e-11
0.0167984
3.98014e-06
-4.17123e-11
0.0167965
9.08489e-06
-7.54903e-11
0.0167889
2.60575e-05
-8.8023e-11
0.0167727
6.44367e-05
-2.21311e-10
0.0167186
0.000218031
-2.33563e-10
0.0165396
0.000688148
-1.01254e-09
0.0155623
0.00399007
-1.99865e-09
0.0143349
0.00480892
9.32541e-11
0.0131589
0.00471331
-1.9191e-10
0.0119428
0.00495176
-4.0455e-10
0.0106446
0.00528917
-4.15563e-10
0.00922504
0.005743
-4.29478e-10
0.00766128
0.00626825
-4.73177e-10
0.00594495
0.00681182
-5.32001e-10
0.00408649
0.00733797
-5.78614e-10
0.00208087
0.00784535
-6.13693e-10
0.00820945
-6.44585e-10
0.0168001
8.50126e-10
-3.39837e-12
0.0168001
4.68876e-09
-1.16498e-11
0.0168001
1.75167e-08
-1.34642e-11
0.0168001
4.47499e-08
-2.17125e-11
0.0168
1.24243e-07
-2.13305e-11
0.0168
2.83111e-07
-2.92499e-11
0.0167999
7.54406e-07
-2.92079e-11
0.0167998
1.64654e-06
-4.0297e-11
0.016799
4.6452e-06
-4.15276e-11
0.0167982
9.76072e-06
-7.72467e-11
0.0167919
3.13433e-05
-9.13688e-11
0.0167833
7.24113e-05
-2.24414e-10
0.0167043
0.000293366
-2.46823e-10
0.0165403
0.00084471
-1.04606e-09
0.015619
0.00488255
-2.14946e-09
0.0143609
0.00607069
2.08315e-10
0.0132007
0.0058734
-1.29367e-10
0.0120205
0.00612947
-4.09103e-10
0.0107646
0.0065433
-4.23586e-10
0.0093775
0.00712658
-4.31769e-10
0.00785038
0.0077922
-4.44974e-10
0.00615842
0.00850138
-4.83869e-10
0.0042684
0.00922607
-5.12696e-10
0.00220593
0.00990657
-5.24614e-10
0.0104134
-5.27134e-10
0.0168001
8.79702e-10
-3.36434e-12
0.0168001
4.87684e-09
-1.16442e-11
0.0168001
1.82369e-08
-1.34804e-11
0.0168001
4.65179e-08
-2.16084e-11
0.0168
1.29052e-07
-2.14105e-11
0.0168
2.91353e-07
-2.90591e-11
0.0168
7.95204e-07
-2.90765e-11
0.0168
1.61568e-06
-3.94293e-11
0.0167992
5.27779e-06
-4.12666e-11
0.0167996
9.32097e-06
-7.29356e-11
0.0167918
3.81433e-05
-8.86268e-11
0.0167852
7.82622e-05
-2.13049e-10
0.0167199
0.000355163
-2.51741e-10
0.016582
0.000976739
-1.03311e-09
0.015887
0.00554675
-2.29214e-09
0.0145598
0.00740309
2.08831e-10
0.0133763
0.00705692
-1.42011e-10
0.012201
0.00730271
-4.18827e-10
0.0109838
0.00775863
-4.31622e-10
0.0096399
0.00847062
-4.35508e-10
0.00813985
0.00929302
-4.29281e-10
0.00646327
0.0101766
-4.46183e-10
0.00456512
0.0111226
-4.5227e-10
0.0023914
0.0120786
-4.41088e-10
0.012803
-4.26126e-10
0.0168001
9.98684e-10
-3.34257e-12
0.0168001
5.53093e-09
-1.16193e-11
0.0168001
2.05961e-08
-1.35893e-11
0.0168
5.26633e-08
-2.14099e-11
0.0168
1.45435e-07
-2.19076e-11
0.0168
3.29949e-07
-2.91801e-11
0.0167999
8.88818e-07
-3.00621e-11
0.0167996
1.83651e-06
-4.37159e-11
0.0167988
5.9099e-06
-3.82687e-11
0.0167985
9.66196e-06
-1.18259e-10
0.0167914
4.41646e-05
1.22406e-12
0.0167863
8.31998e-05
-3.22995e-10
0.0167526
0.000385175
-6.61324e-11
0.0166813
0.00104306
-9.43438e-10
0.0164467
0.00574884
-2.13517e-09
0.0150499
0.00880519
2.83412e-11
0.0137763
0.00833266
-2.6167e-10
0.012576
0.00850182
-4.41911e-10
0.0113758
0.00895662
-4.37431e-10
0.0100779
0.00976622
-4.24635e-10
0.00860998
0.0107599
-4.11624e-10
0.00693857
0.0118475
-4.14408e-10
0.00500395
0.0130564
-4.04574e-10
0.0027231
0.0143587
-3.75721e-10
0.0155247
-3.414e-10
0.0168001
1.14963e-09
-3.31068e-12
0.0168001
6.33781e-09
-1.15862e-11
0.0168001
2.36034e-08
-1.35687e-11
0.0168
6.04194e-08
-2.12725e-11
0.0168
1.67157e-07
-2.15771e-11
0.0168
3.81955e-07
-2.83505e-11
0.0167998
1.00706e-06
-2.83549e-11
0.0167994
2.22934e-06
-3.64461e-11
0.0167991
6.11244e-06
-3.86984e-11
0.016796
1.26942e-05
-6.80623e-11
0.0167967
4.25472e-05
-4.96471e-11
0.0167938
8.55684e-05
-2.14149e-10
0.0168032
0.00037212
-1.67056e-10
0.0168507
0.000991225
-8.26297e-10
0.0173921
0.00517424
-2.00694e-09
0.0159204
0.0102786
-2.03047e-10
0.0144255
0.00982852
-3.57005e-10
0.01318
0.00974791
-4.21679e-10
0.011983
0.0101555
-4.15654e-10
0.0106961
0.011052
-4.14333e-10
0.00926778
0.0121872
-4.03493e-10
0.00762535
0.0134889
-3.87517e-10
0.00568796
0.0149929
-3.63725e-10
0.00325293
0.0167931
-3.19482e-10
0.0187766
-2.65714e-10
0.0168001
1.42916e-09
-3.26935e-12
0.0168001
6.37771e-09
-1.15945e-11
0.0168001
2.53003e-08
-1.35601e-11
0.0168001
6.26561e-08
-2.12652e-11
0.0168
1.76327e-07
-2.15126e-11
0.0168
3.94691e-07
-2.8227e-11
0.0168
1.05122e-06
-2.79033e-11
0.0167999
2.28308e-06
-3.54905e-11
0.0167997
6.20908e-06
-3.74665e-11
0.0167994
1.28438e-05
-5.35362e-11
0.0168015
3.9777e-05
-5.94557e-11
0.0168056
8.10475e-05
-1.57818e-10
0.0168584
0.000316729
-1.58499e-10
0.01704
0.000803724
-6.17881e-10
0.018454
0.00374483
-1.18593e-09
0.0170963
0.0116246
-9.7003e-10
0.0152535
0.011667
-5.754e-10
0.0140464
0.0109535
-3.29015e-10
0.0128154
0.0113854
-3.58716e-10
0.0115727
0.0122937
-4.09614e-10
0.0101759
0.0135836
-3.96418e-10
0.00863553
0.0150288
-3.6549e-10
0.00679718
0.0168306
-3.36385e-10
0.00425017
0.0193398
-2.68968e-10
0.0230263
-2.00826e-10
0.0168001
-3.31687e-12
2.56248e-09
0.0168001
-1.15278e-11
2.33879e-09
0.0168001
-1.37326e-11
3.5111e-08
0.0168001
-2.13448e-11
3.27975e-08
0.0168
-2.16575e-11
2.3435e-07
0.0168002
-2.83161e-11
2.16733e-07
0.0167998
-2.79301e-11
1.40644e-06
0.0168009
-3.54005e-11
1.21224e-06
0.0167983
-3.69861e-11
8.71611e-06
0.0168055
-5.34039e-11
5.55306e-06
0.0167831
-5.35547e-11
6.1519e-05
0.0168384
-1.62044e-10
2.53044e-05
0.0167128
-1.21475e-10
0.000439706
0.017003
-5.38218e-10
0.000511634
0.0174007
-1.08623e-09
0.00333019
0.0169654
-1.68581e-09
0.0120359
0.0159322
-9.10856e-10
0.0126915
0.0147582
-9.65776e-11
0.0121313
0.0135973
-3.1975e-10
0.0125457
0.0125184
-3.79884e-10
0.0133705
0.0113426
-3.80788e-10
0.0147585
0.0100398
-3.59625e-10
0.016331
0.00834533
-3.08975e-10
0.0185249
0.005892
-2.2247e-10
0.0217931
-1.3712e-10
0.0289181
0.0168001
2.22469e-10
-5.88574e-16
0.0168001
1.21191e-09
-3.09867e-15
0.0168
4.50058e-09
-7.11454e-15
0.0168
1.16046e-08
-1.48917e-14
0.0168
3.17061e-08
-2.99257e-14
0.0167999
7.29605e-08
-5.67329e-14
0.0167997
1.86085e-07
-1.26941e-13
0.0167993
4.29857e-07
-2.46434e-13
0.016798
1.04288e-06
-6.3272e-13
0.0167955
2.48919e-06
-1.28031e-12
0.0167883
6.1472e-06
-3.44826e-12
0.0167716
1.61351e-05
-9.05533e-12
0.0167135
5.44925e-05
-2.47707e-11
0.016539
0.000167642
-7.63386e-11
0.0155027
0.00101053
-2.03019e-10
0.0143325
0.00117209
1.34675e-11
0.0131451
0.00118675
-6.52268e-12
0.0118827
0.00125972
-2.51673e-11
0.010539
0.00134122
-2.58566e-11
0.00910054
0.00143605
-2.53972e-11
0.00754346
0.00155521
-2.48306e-11
0.00585457
0.00168677
-2.55018e-11
0.00404391
0.00180845
-2.64126e-11
0.00210421
0.00193782
-2.71756e-11
0.00210175
-2.75876e-11
0.0168001
4.6044e-10
-6.13713e-16
0.0168001
2.47488e-09
-3.19928e-15
0.0168
9.22651e-09
-7.48364e-15
0.0168
2.3676e-08
-1.57387e-14
0.0168
6.52479e-08
-3.23689e-14
0.0167999
1.50627e-07
-6.25794e-14
0.0167997
3.83593e-07
-1.38531e-13
0.0167992
9.1533e-07
-3.00973e-13
0.016798
2.07382e-06
-6.07852e-13
0.0167949
5.43037e-06
-1.70133e-12
0.0167881
1.20861e-05
-3.68342e-12
0.0167702
3.31381e-05
-9.50527e-12
0.0167098
0.000111241
-2.16755e-11
0.0165285
0.000342079
-7.60489e-11
0.0154766
0.00203642
-2.03358e-10
0.0142838
0.00236689
1.44848e-11
0.0131064
0.00236338
-6.52834e-12
0.0118579
0.00250558
-2.52117e-11
0.0105222
0.00267439
-2.57558e-11
0.00907214
0.00288379
-2.51477e-11
0.0074966
0.00312888
-2.46666e-11
0.00579306
0.00338826
-2.53046e-11
0.00396179
0.00363773
-2.60925e-11
0.0020155
0.00388215
-2.67108e-11
0.00411485
-2.69846e-11
0.0168001
6.40202e-10
-6.1583e-16
0.0168001
3.47136e-09
-3.19426e-15
0.0168001
1.29351e-08
-7.47681e-15
0.0168
3.31513e-08
-1.58943e-14
0.0168
9.15877e-08
-3.22607e-14
0.0167999
2.10721e-07
-6.28918e-14
0.0167997
5.43829e-07
-1.39058e-13
0.0167994
1.2558e-06
-3.0071e-13
0.0167982
3.10003e-06
-6.17576e-13
0.0167962
7.29461e-06
-1.66948e-12
0.0167879
1.94418e-05
-3.7789e-12
0.0167713
4.88837e-05
-9.38706e-12
0.0167115
0.000167396
-2.16576e-11
0.0165304
0.000516486
-7.6336e-11
0.0155002
0.00303994
-2.06583e-10
0.0142915
0.00357808
1.69857e-11
0.0131165
0.00353791
-6.11324e-12
0.0118813
0.0037382
-2.513e-11
0.0105596
0.0039937
-2.54375e-11
0.009116
0.00432501
-2.44705e-11
0.00753735
0.00470562
-2.40424e-11
0.00582655
0.00509709
-2.46428e-11
0.00398044
0.00548162
-2.54475e-11
0.00201884
0.00584227
-2.59228e-11
0.00613149
-2.6178e-11
0.0168001
8.03111e-10
-5.97344e-16
0.0168001
4.33412e-09
-3.1109e-15
0.0168001
1.61503e-08
-7.19658e-15
0.0168
4.12634e-08
-1.53026e-14
0.0168
1.14417e-07
-3.0472e-14
0.0168
2.62654e-07
-5.88499e-14
0.0167998
6.84153e-07
-1.31076e-13
0.0167995
1.56492e-06
-2.61953e-13
0.0167984
3.98124e-06
-6.4191e-13
0.0167965
9.08626e-06
-1.32562e-12
0.0167889
2.60612e-05
-3.78774e-12
0.0167727
6.44356e-05
-9.06122e-12
0.0167186
0.00021802
-2.32163e-11
0.0165395
0.000688107
-7.90071e-11
0.0155621
0.0039898
-2.10039e-10
0.0143347
0.00480853
2.04314e-11
0.0131588
0.00471307
-6.0414e-12
0.0119427
0.00495156
-2.49616e-11
0.0106445
0.00528898
-2.48736e-11
0.00922504
0.00574281
-2.3596e-11
0.00766129
0.00626815
-2.32402e-11
0.00594497
0.00681185
-2.38631e-11
0.0040865
0.00733819
-2.4365e-11
0.00208085
0.00784583
-2.46063e-11
0.0082102
-2.49924e-11
0.0168001
8.66989e-10
-5.89037e-16
0.0168001
4.70562e-09
-3.06479e-15
0.0168001
1.75256e-08
-7.07878e-15
0.0168
4.48128e-08
-1.5056e-14
0.0168
1.24237e-07
-2.99536e-14
0.0168
2.83201e-07
-5.78988e-14
0.0167999
7.54472e-07
-1.29354e-13
0.0167998
1.64684e-06
-2.60618e-13
0.016799
4.64499e-06
-6.38061e-13
0.0167982
9.76155e-06
-1.3289e-12
0.0167919
3.13433e-05
-3.85432e-12
0.0167833
7.24197e-05
-9.03529e-12
0.0167043
0.00029337
-2.38825e-11
0.0165402
0.000844754
-7.95356e-11
0.0156187
0.00488256
-2.15545e-10
0.0143606
0.00607032
2.58421e-11
0.0132004
0.00587311
-4.83085e-12
0.0120202
0.00612922
-2.4435e-11
0.0107645
0.00654307
-2.37161e-11
0.00937734
0.00712638
-2.14596e-11
0.00785023
0.00779207
-2.10048e-11
0.00615828
0.00850139
-2.2015e-11
0.00426827
0.00922626
-2.28018e-11
0.00220586
0.00990698
-2.32652e-11
0.0104141
-2.35586e-11
0.0168001
8.90954e-10
-5.57001e-16
0.0168001
4.90118e-09
-2.9269e-15
0.0168001
1.82077e-08
-6.61319e-15
0.0168001
4.66152e-08
-1.40346e-14
0.0168
1.28888e-07
-2.70548e-14
0.0168
2.91309e-07
-5.13203e-14
0.0168
7.94831e-07
-1.15816e-13
0.0168
1.61406e-06
-2.09195e-13
0.0167992
5.27935e-06
-6.30676e-13
0.0167996
9.30094e-06
-1.04007e-12
0.0167917
3.81876e-05
-3.94008e-12
0.0167853
7.82232e-05
-7.3318e-12
0.0167198
0.00035528
-3.04855e-11
0.0165819
0.000976848
-7.80623e-11
0.0158865
0.00554715
-2.27384e-10
0.0145593
0.0074027
2.98654e-11
0.0133758
0.00705649
-1.29842e-12
0.0122007
0.00730239
-2.27023e-11
0.0109835
0.00775836
-2.23524e-11
0.00963959
0.0084704
-2.06396e-11
0.00813958
0.00929285
-1.98759e-11
0.00646304
0.0101765
-2.01667e-11
0.00456495
0.0111228
-2.04973e-11
0.00239129
0.012079
-2.07678e-11
0.0128036
-2.13293e-11
0.0168001
1.01472e-09
-5.19733e-16
0.0168001
5.56068e-09
-2.79263e-15
0.0168001
2.06293e-08
-6.13182e-15
0.0168
5.27507e-08
-1.26926e-14
0.0168
1.45664e-07
-2.39912e-14
0.0168
3.30459e-07
-4.34196e-14
0.0167999
8.89961e-07
-9.94851e-14
0.0167996
1.84052e-06
-1.40083e-13
0.0167988
5.91177e-06
-6.45332e-13
0.0167985
9.68408e-06
-4.44281e-13
0.0167914
4.41541e-05
-6.08419e-12
0.0167862
8.32617e-05
-5.78346e-12
0.0167527
0.00038515
-2.75937e-11
0.0166813
0.00104318
-7.70474e-11
0.0164466
0.0057494
-2.3456e-10
0.0150497
0.00880483
3.25884e-11
0.0137761
0.00833228
1.46465e-12
0.0125758
0.00850151
-1.95932e-11
0.0113755
0.00895639
-1.95158e-11
0.0100777
0.00976602
-1.83287e-11
0.00860968
0.0107598
-1.73911e-11
0.00693831
0.0118474
-1.76703e-11
0.00500373
0.0130564
-1.7858e-11
0.00272298
0.014359
-1.79856e-11
0.0155251
-1.84686e-11
0.0168001
1.16908e-09
-5.35923e-16
0.0168001
6.34185e-09
-2.84337e-15
0.0168001
2.36217e-08
-6.37412e-15
0.0168
6.04247e-08
-1.32939e-14
0.0168
1.67199e-07
-2.58487e-14
0.0168
3.82069e-07
-4.86059e-14
0.0167998
1.00746e-06
-1.07305e-13
0.0167994
2.23043e-06
-2.04409e-13
0.0167991
6.11464e-06
-5.7709e-13
0.016796
1.27044e-05
-8.9177e-13
0.0167966
4.25531e-05
-4.044e-12
0.0167939
8.56026e-05
-6.153e-12
0.0168032
0.00037216
-2.91447e-11
0.0168506
0.000991384
-7.24312e-11
0.0173916
0.00517522
-2.33012e-10
0.0159201
0.0102782
6.7195e-13
0.0144253
0.00982797
-7.46466e-12
0.0131798
0.00974762
-1.69877e-11
0.0119827
0.0101553
-1.7143e-11
0.0106958
0.0110519
-1.78246e-11
0.0092675
0.012187
-1.64827e-11
0.00762509
0.0134889
-1.53512e-11
0.00568775
0.0149929
-1.50125e-11
0.0032528
0.0167932
-1.4544e-11
0.0187769
-1.47205e-11
0.0168001
1.39243e-09
-5.10669e-16
0.0168001
6.48907e-09
-2.73177e-15
0.0168001
2.51408e-08
-5.99291e-15
0.0168001
6.25289e-08
-1.24616e-14
0.0168
1.76078e-07
-2.3274e-14
0.0168
3.94495e-07
-4.3197e-14
0.0168
1.05101e-06
-9.03824e-14
0.0167999
2.28308e-06
-1.69962e-13
0.0167997
6.20915e-06
-4.42116e-13
0.0167995
1.28458e-05
-7.92192e-13
0.0168015
3.97782e-05
-2.92882e-12
0.0168057
8.10613e-05
-4.09734e-12
0.0168584
0.000316747
-2.08582e-11
0.0170401
0.000803818
-4.97338e-11
0.0184547
0.00374527
-1.31847e-10
0.0170964
0.0116247
-9.20451e-11
0.0152535
0.0116665
-3.66473e-11
0.0140463
0.0109534
-9.6191e-12
0.0128153
0.0113853
-1.37908e-11
0.0115724
0.0122935
-2.02107e-11
0.0101757
0.0135834
-1.76816e-11
0.00863532
0.0150287
-1.51008e-11
0.006797
0.0168306
-1.3847e-11
0.00425006
0.0193398
-1.14754e-11
0.0230264
-1.11075e-11
0.0168001
-5.00137e-16
2.43296e-09
0.0168001
-2.67794e-15
2.71298e-09
0.0168001
-5.8238e-15
3.39526e-08
0.0168001
-1.20603e-14
3.32364e-08
0.0168
-2.21691e-14
2.33133e-07
0.0168002
-4.08624e-14
2.17204e-07
0.0167998
-8.42212e-14
1.40522e-06
0.0168009
-1.58792e-13
1.21284e-06
0.0167983
-4.01548e-13
8.71434e-06
0.0168055
-7.68542e-13
5.55554e-06
0.0167831
-2.35045e-12
6.15081e-05
0.0168384
-4.6585e-12
2.53289e-05
0.0167128
-1.60802e-11
0.000439663
0.017003
-4.04835e-11
0.000511772
0.017401
-1.19786e-10
0.00333042
0.0169657
-1.80105e-10
0.012036
0.0159318
-8.65222e-11
0.0126917
0.0147581
1.43486e-11
0.012131
0.0135972
-1.3347e-11
0.0125455
0.0125183
-2.0145e-11
0.0133703
0.0113424
-1.9069e-11
0.0147583
0.0100397
-1.71551e-11
0.0163309
0.00834518
-1.38224e-11
0.0185248
0.0058919
-9.63055e-12
0.0217931
-9.03985e-12
0.0289182
0.0168001
2.22458e-10
1.87697e-16
0.0168001
1.21186e-09
4.18197e-17
0.0168
4.50037e-09
-1.69187e-16
0.0168
1.1604e-08
-3.65932e-16
0.0168
3.17046e-08
-1.02867e-15
0.0167999
7.29568e-08
-2.10423e-15
0.0167997
1.86078e-07
-5.84349e-15
0.0167993
4.29827e-07
-1.19525e-14
0.016798
1.04288e-06
-3.33637e-14
0.0167955
2.48898e-06
-6.93541e-14
0.0167883
6.14737e-06
-1.91786e-13
0.0167716
1.61349e-05
-5.10487e-13
0.0167135
5.44928e-05
-1.41145e-12
0.016539
0.000167642
-4.3677e-12
0.0155027
0.00101053
-1.16432e-11
0.0143325
0.00117209
7.63504e-13
0.0131451
0.00118674
-4.09157e-13
0.0118827
0.00125972
-1.4954e-12
0.010539
0.00134122
-1.537e-12
0.00910055
0.00143605
-1.50707e-12
0.00754347
0.00155521
-1.46163e-12
0.00585458
0.00168677
-1.48428e-12
0.00404391
0.00180846
-1.54708e-12
0.00210421
0.00193782
-1.59468e-12
0.00210176
-1.63992e-12
0.0168001
4.60439e-10
1.89938e-16
0.0168001
2.47488e-09
1.38244e-17
0.0168
9.22651e-09
-1.89922e-16
0.0168
2.36759e-08
-4.13693e-16
0.0168
6.52478e-08
-1.16685e-15
0.0167999
1.50626e-07
-2.43758e-15
0.0167997
3.83593e-07
-6.50141e-15
0.0167992
9.15329e-07
-1.50961e-14
0.016798
2.07381e-06
-3.18573e-14
0.0167949
5.43038e-06
-9.37883e-14
0.0167881
1.2086e-05
-1.62131e-13
0.0167702
3.31381e-05
-5.36457e-13
0.0167098
0.000111241
-1.37047e-12
0.0165285
0.000342079
-4.35002e-12
0.0154766
0.00203642
-1.1663e-11
0.0142839
0.00236688
8.20786e-13
0.0131064
0.00236338
-4.10296e-13
0.0118579
0.00250558
-1.50001e-12
0.0105222
0.00267439
-1.53302e-12
0.00907214
0.00288379
-1.4957e-12
0.00749661
0.00312888
-1.45051e-12
0.00579306
0.00338827
-1.47387e-12
0.00396179
0.00363773
-1.53074e-12
0.0020155
0.00388215
-1.5696e-12
0.00411485
-1.60945e-12
0.0168001
6.40211e-10
1.90222e-16
0.0168001
3.4714e-09
1.37821e-17
0.0168001
1.29353e-08
-1.90782e-16
0.0168
3.31517e-08
-4.12852e-16
0.0168
9.15889e-08
-1.17317e-15
0.0167999
2.10724e-07
-2.44166e-15
0.0167997
5.43835e-07
-6.52523e-15
0.0167994
1.25582e-06
-1.50665e-14
0.0167982
3.10003e-06
-3.23115e-14
0.0167962
7.29479e-06
-9.19646e-14
0.0167879
1.94415e-05
-1.68021e-13
0.0167713
4.88837e-05
-5.29174e-13
0.0167115
0.000167397
-1.39076e-12
0.0165304
0.000516485
-4.36197e-12
0.0155002
0.00303994
-1.18385e-11
0.0142915
0.00357808
9.62382e-13
0.0131165
0.0035379
-3.89006e-13
0.0118813
0.0037382
-1.49964e-12
0.0105596
0.0039937
-1.51919e-12
0.00911601
0.00432501
-1.4642e-12
0.00753736
0.00470563
-1.41956e-12
0.00582656
0.00509709
-1.4436e-12
0.00398044
0.00548163
-1.49774e-12
0.00201884
0.00584227
-1.52743e-12
0.00613149
-1.55809e-12
0.0168001
8.03116e-10
1.88683e-16
0.0168001
4.33416e-09
3.66198e-17
0.0168001
1.61504e-08
-1.74359e-16
0.0168
4.12638e-08
-3.77363e-16
0.0168
1.14418e-07
-1.06534e-15
0.0168
2.62656e-07
-2.194e-15
0.0167998
6.84156e-07
-6.03321e-15
0.0167995
1.56493e-06
-1.26964e-14
0.0167984
3.98126e-06
-3.36989e-14
0.0167965
9.08629e-06
-7.1193e-14
0.0167889
2.60612e-05
-2.10555e-13
0.0167727
6.44357e-05
-5.07562e-13
0.0167186
0.000218019
-1.3197e-12
0.0165395
0.000688107
-4.50598e-12
0.0155621
0.00398981
-1.20223e-11
0.0143347
0.00480852
1.15346e-12
0.0131588
0.00471307
-3.8884e-13
0.0119427
0.00495155
-1.49843e-12
0.0106445
0.00528898
-1.49726e-12
0.00922504
0.00574282
-1.4234e-12
0.0076613
0.00626815
-1.38357e-12
0.00594497
0.00681186
-1.4068e-12
0.0040865
0.0073382
-1.44658e-12
0.00208085
0.00784584
-1.46112e-12
0.00821021
-1.48516e-12
0.0168001
8.67005e-10
1.87976e-16
0.0168001
4.7057e-09
4.81809e-17
0.0168001
1.75259e-08
-1.6772e-16
0.0168
4.48135e-08
-3.62688e-16
0.0168
1.24239e-07
-1.0338e-15
0.0168
2.83206e-07
-2.13386e-15
0.0167999
7.54484e-07
-5.91642e-15
0.0167998
1.64688e-06
-1.25788e-14
0.016799
4.64503e-06
-3.33822e-14
0.0167982
9.76174e-06
-7.11537e-14
0.0167919
3.13434e-05
-2.13754e-13
0.0167833
7.24206e-05
-5.04567e-13
0.0167043
0.000293367
-1.35465e-12
0.0165402
0.000844755
-4.52427e-12
0.0156187
0.00488256
-1.23123e-11
0.0143606
0.0060703
1.45506e-12
0.0132004
0.0058731
-3.26056e-13
0.0120202
0.00612922
-1.4751e-12
0.0107645
0.00654307
-1.44656e-12
0.00937735
0.00712639
-1.33096e-12
0.00785024
0.00779208
-1.29136e-12
0.00615829
0.0085014
-1.32623e-12
0.00426827
0.00922627
-1.37381e-12
0.00220586
0.00990699
-1.38756e-12
0.0104141
-1.39839e-12
0.0168001
8.90971e-10
1.84779e-16
0.0168001
4.90125e-09
8.25722e-17
0.0168001
1.8208e-08
-1.41901e-16
0.0168001
4.66161e-08
-3.06549e-16
0.0168
1.2889e-07
-8.71842e-16
0.0168
2.91314e-07
-1.76656e-15
0.0168
7.94842e-07
-5.15212e-15
0.0168
1.6141e-06
-9.689e-15
0.0167992
5.27937e-06
-3.28683e-14
0.0167996
9.30125e-06
-5.48125e-14
0.0167917
3.81873e-05
-2.17813e-13
0.0167853
7.8224e-05
-4.07112e-13
0.0167198
0.00035528
-1.72091e-12
0.0165819
0.000976851
-4.42375e-12
0.0158865
0.00554717
-1.29351e-11
0.0145593
0.00740267
1.67758e-12
0.0133758
0.00705648
-1.82553e-13
0.0122007
0.00730239
-1.39422e-12
0.0109835
0.00775836
-1.38076e-12
0.00963959
0.0084704
-1.28734e-12
0.00813959
0.00929285
-1.23858e-12
0.00646305
0.0101766
-1.24147e-12
0.00456495
0.0111228
-1.2689e-12
0.00239129
0.012079
-1.27001e-12
0.0128036
-1.2815e-12
0.0168001
1.01471e-09
1.80371e-16
0.0168001
5.56066e-09
1.13855e-16
0.0168001
2.06292e-08
-1.15563e-16
0.0168
5.27505e-08
-2.46482e-16
0.0168
1.45664e-07
-7.00974e-16
0.0168
3.30457e-07
-1.37375e-15
0.0167999
8.89958e-07
-4.30044e-15
0.0167996
1.8405e-06
-6.18297e-15
0.0167988
5.91181e-06
-3.34234e-14
0.0167985
9.68396e-06
-2.42224e-14
0.0167914
4.41545e-05
-2.67898e-13
0.0167862
8.32619e-05
-3.24719e-13
0.0167527
0.000385154
-1.80683e-12
0.0166813
0.00104319
-4.34387e-12
0.0164465
0.00574947
-1.32654e-11
0.0150497
0.00880479
1.45206e-12
0.013776
0.00833224
-2.02129e-14
0.0125758
0.0085015
-1.24297e-12
0.0113755
0.00895638
-1.24389e-12
0.0100777
0.00976602
-1.18144e-12
0.00860968
0.0107598
-1.13302e-12
0.00693831
0.0118475
-1.1337e-12
0.00500373
0.0130565
-1.14985e-12
0.00272298
0.014359
-1.14405e-12
0.0155251
-1.14391e-12
0.0168001
1.1691e-09
1.82444e-16
0.0168001
6.34191e-09
1.02228e-16
0.0168001
2.36219e-08
-1.27465e-16
0.0168
6.04253e-08
-2.7619e-16
0.0168
1.67201e-07
-7.92304e-16
0.0168
3.82073e-07
-1.62901e-15
0.0167998
1.00747e-06
-4.67702e-15
0.0167994
2.23045e-06
-9.37766e-15
0.0167991
6.11472e-06
-2.98151e-14
0.016796
1.27045e-05
-4.63698e-14
0.0167966
4.25538e-05
-2.21357e-13
0.0167938
8.56042e-05
-3.38272e-13
0.0168032
0.000372167
-1.62515e-12
0.0168506
0.000991403
-4.05594e-12
0.0173915
0.00517535
-1.30856e-11
0.01592
0.0102781
1.83553e-14
0.0144252
0.00982791
-5.50501e-13
0.0131798
0.0097476
-1.11308e-12
0.0119827
0.0101553
-1.12223e-12
0.0106958
0.0110518
-1.15878e-12
0.00926749
0.012187
-1.10418e-12
0.00762508
0.0134889
-1.04102e-12
0.00568775
0.0149929
-1.02893e-12
0.0032528
0.0167933
-9.97979e-13
0.0187769
-9.82298e-13
0.0168001
1.39243e-09
1.79412e-16
0.0168001
6.48912e-09
1.26951e-16
0.0168001
2.5141e-08
-1.06067e-16
0.0168001
6.25293e-08
-2.29549e-16
0.0168
1.76079e-07
-6.47877e-16
0.0168
3.94498e-07
-1.32563e-15
0.0168
1.05101e-06
-3.72905e-15
0.0167999
2.28309e-06
-7.44738e-15
0.0167997
6.20919e-06
-2.22591e-14
0.0167995
1.28458e-05
-4.07243e-14
0.0168015
3.97787e-05
-1.58226e-13
0.0168057
8.10618e-05
-2.24772e-13
0.0168584
0.000316751
-1.15031e-12
0.0170401
0.00080383
-2.76433e-12
0.0184548
0.00374533
-7.34269e-12
0.0170964
0.0116248
-5.1849e-12
0.0152535
0.0116664
-2.20539e-12
0.0140462
0.0109534
-7.1281e-13
0.0128152
0.0113852
-9.38455e-13
0.0115724
0.0122935
-1.29011e-12
0.0101757
0.0135834
-1.18073e-12
0.00863531
0.0150287
-1.0512e-12
0.00679699
0.0168306
-9.92778e-13
0.00425006
0.0193399
-8.77906e-13
0.0230265
-8.44082e-13
0.0168001
1.78197e-16
2.43295e-09
0.0168001
1.40313e-16
2.71305e-09
0.0168001
-9.38343e-17
3.39526e-08
0.0168001
-2.02497e-16
3.32367e-08
0.0168
-5.78125e-16
2.33134e-07
0.0168002
-1.18273e-15
2.17206e-07
0.0167998
-3.36221e-15
1.40523e-06
0.0168009
-6.78084e-15
1.21284e-06
0.0167983
-1.99069e-14
8.71439e-06
0.0168055
-3.91521e-14
5.55557e-06
0.0167831
-1.25914e-13
6.15085e-05
0.0168384
-2.53277e-13
2.53291e-05
0.0167128
-8.84317e-13
0.000439666
0.017003
-2.24241e-12
0.000511779
0.017401
-6.66469e-12
0.00333046
0.0169658
-1.01096e-11
0.012036
0.0159317
-4.97555e-12
0.0126917
0.0147581
6.04129e-13
0.012131
0.0135972
-9.0476e-13
0.0125455
0.0125183
-1.28331e-12
0.0133703
0.0113424
-1.2591e-12
0.0147583
0.0100396
-1.17168e-12
0.0163309
0.00834517
-1.01969e-12
0.0185248
0.0058919
-8.30152e-13
0.0217931
-8.08285e-13
0.0289182
0.0168001
2.22457e-10
-1.23743e-16
0.0168001
1.21185e-09
-4.4595e-16
0.0168
4.50036e-09
-1.25381e-15
0.0168
1.1604e-08
-2.53211e-15
0.0168
3.17045e-08
-6.73576e-15
0.0167999
7.29566e-08
-1.35302e-14
0.0167997
1.86077e-07
-3.69486e-14
0.0167993
4.29826e-07
-7.52638e-14
0.016798
1.04288e-06
-2.08175e-13
0.0167955
2.48897e-06
-4.32525e-13
0.0167883
6.14738e-06
-1.1854e-12
0.0167716
1.61349e-05
-3.15682e-12
0.0167135
5.44928e-05
-8.73786e-12
0.016539
0.000167642
-2.69127e-11
0.0155027
0.00101053
-7.33265e-11
0.0143325
0.00117209
6.85309e-12
0.0131451
0.00118674
-6.11756e-13
0.0118827
0.00125972
-7.39624e-12
0.010539
0.00134122
-7.52344e-12
0.00910055
0.00143605
-7.15129e-12
0.00754347
0.00155521
-6.75664e-12
0.00585458
0.00168677
-7.06062e-12
0.00404391
0.00180846
-7.40408e-12
0.00210421
0.00193782
-7.70724e-12
0.00210176
-7.96287e-12
0.0168001
4.60439e-10
-1.37614e-16
0.0168001
2.47488e-09
-4.90405e-16
0.0168
9.22651e-09
-1.39901e-15
0.0168
2.36759e-08
-2.85718e-15
0.0168
6.52478e-08
-7.65913e-15
0.0167999
1.50626e-07
-1.57457e-14
0.0167997
3.83593e-07
-4.13112e-14
0.0167992
9.15329e-07
-9.59098e-14
0.016798
2.07381e-06
-1.98607e-13
0.0167949
5.43038e-06
-5.91792e-13
0.0167881
1.2086e-05
-9.92257e-13
0.0167702
3.31381e-05
-3.3333e-12
0.0167098
0.000111241
-8.47143e-12
0.0165285
0.000342079
-2.682e-11
0.0154766
0.00203642
-7.34159e-11
0.0142839
0.00236688
7.19824e-12
0.0131064
0.00236338
-6.32492e-13
0.0118579
0.00250558
-7.41534e-12
0.0105222
0.00267439
-7.48791e-12
0.00907215
0.00288379
-7.06125e-12
0.00749661
0.00312888
-6.70423e-12
0.00579306
0.00338827
-6.98556e-12
0.00396179
0.00363773
-7.27822e-12
0.0020155
0.00388215
-7.5258e-12
0.00411485
-7.72018e-12
0.0168001
6.40211e-10
-1.38215e-16
0.0168001
3.47141e-09
-4.94325e-16
0.0168001
1.29353e-08
-1.40988e-15
0.0168
3.31517e-08
-2.86043e-15
0.0168
9.1589e-08
-7.72957e-15
0.0167999
2.10724e-07
-1.58293e-14
0.0167997
5.43835e-07
-4.16204e-14
0.0167994
1.25583e-06
-9.60978e-14
0.0167982
3.10003e-06
-2.02246e-13
0.0167962
7.2948e-06
-5.8244e-13
0.0167879
1.94414e-05
-1.03333e-12
0.0167713
4.88838e-05
-3.29963e-12
0.0167115
0.000167397
-8.62775e-12
0.0165304
0.000516485
-2.69685e-11
0.0155002
0.00303994
-7.46726e-11
0.0142915
0.00357808
8.07952e-12
0.0131165
0.0035379
-4.98185e-13
0.0118813
0.0037382
-7.39606e-12
0.0105596
0.0039937
-7.38455e-12
0.00911601
0.00432501
-6.8292e-12
0.00753736
0.00470563
-6.49599e-12
0.00582656
0.00509709
-6.76413e-12
0.00398044
0.00548163
-7.037e-12
0.00201884
0.00584227
-7.22845e-12
0.00613149
-7.40267e-12
0.0168001
8.03116e-10
-1.28141e-16
0.0168001
4.33416e-09
-4.60857e-16
0.0168001
1.61504e-08
-1.30189e-15
0.0168
4.12638e-08
-2.63282e-15
0.0168
1.14418e-07
-7.0474e-15
0.0168
2.62656e-07
-1.42591e-14
0.0167998
6.84157e-07
-3.85741e-14
0.0167995
1.56493e-06
-8.09239e-14
0.0167984
3.98126e-06
-2.12456e-13
0.0167965
9.08629e-06
-4.49411e-13
0.0167889
2.60612e-05
-1.31754e-12
0.0167727
6.44357e-05
-3.16924e-12
0.0167186
0.000218019
-8.24004e-12
0.0165395
0.000688107
-2.7999e-11
0.0155621
0.00398981
-7.61017e-11
0.0143347
0.00480852
9.31661e-12
0.0131588
0.00471307
-4.8552e-13
0.0119427
0.00495155
-7.3517e-12
0.0106445
0.00528898
-7.20714e-12
0.00922504
0.00574282
-6.56009e-12
0.0076613
0.00626815
-6.26199e-12
0.00594497
0.00681186
-6.52491e-12
0.0040865
0.0073382
-6.68853e-12
0.00208085
0.00784584
-6.78119e-12
0.00821021
-6.97683e-12
0.0168001
8.67006e-10
-1.24222e-16
0.0168001
4.7057e-09
-4.45791e-16
0.0168001
1.75259e-08
-1.26381e-15
0.0168
4.48136e-08
-2.55149e-15
0.0168
1.24239e-07
-6.88672e-15
0.0168
2.83206e-07
-1.39637e-14
0.0167999
7.54484e-07
-3.80784e-14
0.0167998
1.64688e-06
-8.07862e-14
0.016799
4.64503e-06
-2.11777e-13
0.0167982
9.76175e-06
-4.5277e-13
0.0167919
3.13434e-05
-1.34697e-12
0.0167833
7.24206e-05
-3.17474e-12
0.0167043
0.000293367
-8.51236e-12
0.0165402
0.000844755
-2.82833e-11
0.0156187
0.00488256
-7.83231e-11
0.0143606
0.0060703
1.12248e-11
0.0132004
0.0058731
-4.17392e-14
0.0120202
0.00612922
-7.19152e-12
0.0107645
0.00654307
-6.81369e-12
0.00937735