/*--------------------------------*- C++ -*----------------------------------*\
| =========                 |                                                 |
| \\      /  F ield         | OpenFOAM: The Open Source CFD Toolbox           |
|  \\    /   O peration     | Version:  4.1                                   |
|   \\  /    A nd           | Web:      www.OpenFOAM.org                      |
|    \\/     M anipulation  |                                                 |
\*---------------------------------------------------------------------------*/
FoamFile
{
    version     2.0;
    format      ascii;
    class       volScalarField;
    location    "7";
    object      T;
}
// * * * * * * * * * * * * * * * * * * * * * * * * * * * * * * * * * * * * * //

dimensions      [0 0 0 1 0 0 0];

internalField   nonuniform List<scalar> 
52500
(
0.999996
1.00002
1.00005
1.00018
1.00033
1.00106
1.00194
1.00591
1.01188
1.03191
1.0821
1.18833
1.55969
2.39665
2.67551
2.73042
2.72588
2.72496
2.73917
2.751
2.76484
2.77315
2.7808
2.78527
2.7892
0.999996
1.00002
1.00005
1.00017
1.00032
1.00104
1.00192
1.00583
1.01174
1.03147
1.08137
1.18583
1.55504
2.38754
2.67255
2.73039
2.72564
2.72457
2.73865
2.75036
2.76389
2.77197
2.77919
2.78311
2.78656
0.999996
1.00002
1.00005
1.00017
1.00031
1.00101
1.00186
1.00561
1.01148
1.03036
1.08
1.18078
1.54488
2.367
2.66487
2.7292
2.72401
2.72261
2.73656
2.7482
2.76152
2.76961
2.7764
2.77997
2.78221
0.999996
1.00002
1.00004
1.00016
1.0003
1.00097
1.00179
1.00535
1.01108
1.02895
1.07734
1.17297
1.52873
2.33389
2.65281
2.72711
2.72138
2.71884
2.73253
2.74416
2.75662
2.76348
2.77187
2.77478
2.77748
0.999995
1.00002
1.00004
1.00015
1.00028
1.00091
1.0017
1.00501
1.01054
1.02714
1.07349
1.1622
1.50801
2.28943
2.63614
2.72477
2.71842
2.71426
2.72674
2.73732
2.75117
2.75686
2.76153
2.76675
2.76704
0.999995
1.00002
1.00004
1.00014
1.00026
1.00086
1.00159
1.0047
1.00984
1.02544
1.06834
1.15183
1.47064
2.22077
2.61241
2.71977
2.71292
2.70757
2.72148
2.72886
2.74189
2.74951
2.754
2.75469
2.75734
0.999995
1.00001
1.00003
1.00013
1.00025
1.0008
1.00147
1.00447
1.00898
1.02403
1.06129
1.14044
1.41956
2.12672
2.58054
2.71203
2.70507
2.69544
2.70981
2.71839
2.72656
2.73299
2.73825
2.74052
2.73716
0.999995
1.00001
1.00003
1.00012
1.00022
1.00074
1.00134
1.00419
1.00803
1.02265
1.0528
1.12738
1.36177
2.0104
2.5382
2.70212
2.69538
2.68472
2.69671
2.70742
2.71607
2.71892
2.72018
2.71747
2.71468
0.999995
1.00001
1.00003
1.00011
1.0002
1.00066
1.0012
1.00374
1.00712
1.02045
1.04542
1.11497
1.3051
1.89431
2.47577
2.68027
2.67569
2.66541
2.67924
2.68362
2.69295
2.6965
2.69549
2.68816
2.66435
0.999995
1.00001
1.00002
1.00009
1.00018
1.00057
1.00105
1.00324
1.00629
1.01773
1.04046
1.09991
1.2713
1.78431
2.44864
2.66317
2.65367
2.65478
2.66615
2.6719
2.67201
2.67031
2.66045
2.63984
2.59038
1
1.00003
1.00006
1.00019
1.00033
1.00107
1.00195
1.00593
1.01189
1.03192
1.08211
1.18837
1.55971
2.39675
2.67558
2.73049
2.72595
2.72503
2.73924
2.75107
2.76492
2.77323
2.78088
2.78536
2.78929
1
1.00003
1.00005
1.00018
1.00033
1.00105
1.00192
1.00584
1.01175
1.03149
1.08137
1.18586
1.55505
2.38763
2.67262
2.73045
2.72571
2.72464
2.73872
2.75043
2.76396
2.77205
2.77928
2.78319
2.78665
1
1.00003
1.00005
1.00018
1.00032
1.00102
1.00187
1.00563
1.01149
1.03039
1.08
1.18081
1.54488
2.36709
2.66494
2.72927
2.72408
2.72268
2.73663
2.74827
2.76159
2.76969
2.77648
2.78006
2.7823
1
1.00003
1.00005
1.00017
1.00031
1.00098
1.0018
1.00536
1.01109
1.02897
1.07735
1.17301
1.52876
2.334
2.65288
2.72718
2.72145
2.71892
2.7326
2.74424
2.7567
2.76356
2.77195
2.77487
2.77757
1
1.00003
1.00005
1.00016
1.00029
1.00092
1.0017
1.00502
1.01055
1.02716
1.0735
1.16224
1.50804
2.28955
2.63621
2.72484
2.71849
2.71433
2.72682
2.73739
2.75124
2.75694
2.76161
2.76683
2.76712
1
1.00002
1.00005
1.00015
1.00027
1.00086
1.0016
1.00471
1.00985
1.02545
1.06835
1.15187
1.47067
2.2209
2.61248
2.71983
2.71299
2.70764
2.72155
2.72894
2.74197
2.74959
2.75407
2.75477
2.75742
1
1.00002
1.00004
1.00014
1.00025
1.00081
1.00148
1.00448
1.00899
1.02406
1.06129
1.14048
1.41955
2.12681
2.5806
2.71209
2.70514
2.69551
2.70987
2.71846
2.72663
2.73306
2.73832
2.7406
2.73724
1
1.00002
1.00004
1.00013
1.00023
1.00074
1.00135
1.00419
1.00803
1.02267
1.05281
1.12741
1.36179
2.0105
2.53826
2.70219
2.69545
2.68479
2.69678
2.70749
2.71613
2.71899
2.72025
2.71754
2.71475
1
1.00002
1.00003
1.00012
1.00021
1.00066
1.00121
1.00375
1.00713
1.02046
1.04543
1.11499
1.30513
1.89438
2.47584
2.68033
2.67576
2.66547
2.6793
2.68368
2.69302
2.69657
2.69555
2.68822
2.66441
1
1.00002
1.00003
1.0001
1.00018
1.00058
1.00106
1.00325
1.0063
1.01774
1.04047
1.09993
1.27131
1.78439
2.4487
2.66324
2.65374
2.65484
2.66621
2.67196
2.67208
2.67037
2.66051
2.6399
2.59044
1
1.00003
1.00006
1.00019
1.00033
1.00107
1.00195
1.00593
1.01189
1.03192
1.08211
1.18837
1.55971
2.39675
2.67558
2.73049
2.72595
2.72503
2.73924
2.75107
2.76492
2.77323
2.78088
2.78536
2.78929
1
1.00003
1.00005
1.00018
1.00033
1.00105
1.00192
1.00584
1.01175
1.03149
1.08137
1.18586
1.55505
2.38763
2.67262
2.73045
2.72571
2.72464
2.73872
2.75043
2.76396
2.77205
2.77928
2.78319
2.78665
1
1.00003
1.00005
1.00018
1.00032
1.00102
1.00187
1.00563
1.01149
1.03039
1.08
1.18081
1.54488
2.3671
2.66494
2.72927
2.72408
2.72268
2.73663
2.74827
2.76159
2.76969
2.77648
2.78006
2.7823
1
1.00003
1.00005
1.00017
1.00031
1.00098
1.0018
1.00536
1.01109
1.02897
1.07736
1.17301
1.52876
2.334
2.65288
2.72718
2.72145
2.71892
2.7326
2.74424
2.7567
2.76356
2.77195
2.77487
2.77757
1
1.00003
1.00005
1.00016
1.00029
1.00092
1.0017
1.00502
1.01055
1.02716
1.0735
1.16224
1.50805
2.28955
2.63622
2.72484
2.71849
2.71433
2.72682
2.73739
2.75124
2.75694
2.76161
2.76683
2.76712
1
1.00002
1.00005
1.00015
1.00027
1.00086
1.0016
1.00471
1.00985
1.02545
1.06835
1.15187
1.47068
2.2209
2.61248
2.71983
2.71299
2.70764
2.72155
2.72894
2.74197
2.74959
2.75407
2.75477
2.75742
1
1.00002
1.00004
1.00014
1.00025
1.00081
1.00148
1.00448
1.00899
1.02406
1.06129
1.14048
1.41956
2.12682
2.58061
2.71209
2.70514
2.69551
2.70987
2.71846
2.72663
2.73306
2.73832
2.7406
2.73724
1
1.00002
1.00004
1.00013
1.00023
1.00074
1.00135
1.00419
1.00803
1.02267
1.05281
1.12741
1.36179
2.01051
2.53827
2.70219
2.69545
2.68479
2.69678
2.70749
2.71613
2.71899
2.72025
2.71754
2.71475
1
1.00002
1.00003
1.00012
1.00021
1.00066
1.00121
1.00375
1.00713
1.02046
1.04543
1.11499
1.30513
1.89439
2.47585
2.68033
2.67576
2.66547
2.6793
2.68368
2.69302
2.69657
2.69555
2.68822
2.66441
1
1.00002
1.00003
1.0001
1.00018
1.00058
1.00106
1.00325
1.0063
1.01774
1.04047
1.09993
1.27131
1.7844
2.4487
2.66324
2.65374
2.65484
2.66621
2.67196
2.67208
2.67037
2.66051
2.6399
2.59044
1
1.00003
1.00006
1.00019
1.00033
1.00107
1.00195
1.00593
1.01189
1.03192
1.08211
1.18837
1.55971
2.39675
2.67558
2.73049
2.72595
2.72503
2.73924
2.75107
2.76492
2.77323
2.78088
2.78536
2.78929
1
1.00003
1.00005
1.00018
1.00033
1.00105
1.00192
1.00584
1.01175
1.03149
1.08137
1.18586
1.55505
2.38763
2.67262
2.73045
2.72571
2.72464
2.73872
2.75043
2.76396
2.77205
2.77928
2.78319
2.78665
1
1.00003
1.00005
1.00018
1.00032
1.00102
1.00187
1.00563
1.01149
1.03039
1.08
1.18081
1.54488
2.3671
2.66494
2.72927
2.72408
2.72268
2.73663
2.74827
2.76159
2.76969
2.77648
2.78006
2.7823
1
1.00003
1.00005
1.00017
1.00031
1.00098
1.0018
1.00536
1.01109
1.02897
1.07736
1.17301
1.52876
2.334
2.65288
2.72718
2.72145
2.71892
2.7326
2.74424
2.7567
2.76356
2.77195
2.77487
2.77757
1
1.00003
1.00005
1.00016
1.00029
1.00092
1.0017
1.00502
1.01055
1.02716
1.0735
1.16224
1.50805
2.28955
2.63622
2.72484
2.71849
2.71433
2.72682
2.73739
2.75124
2.75694
2.76161
2.76683
2.76712
1
1.00002
1.00005
1.00015
1.00027
1.00086
1.0016
1.00471
1.00985
1.02545
1.06835
1.15187
1.47068
2.2209
2.61248
2.71983
2.71299
2.70764
2.72155
2.72894
2.74197
2.74959
2.75407
2.75477
2.75742
1
1.00002
1.00004
1.00014
1.00025
1.00081
1.00148
1.00448
1.00899
1.02406
1.06129
1.14048
1.41956
2.12682
2.58061
2.71209
2.70514
2.69551
2.70987
2.71846
2.72663
2.73306
2.73832
2.7406
2.73724
1
1.00002
1.00004
1.00013
1.00023
1.00074
1.00135
1.00419
1.00803
1.02267
1.05281
1.12741
1.36179
2.01051
2.53827
2.70219
2.69545
2.68479
2.69678
2.70749
2.71613
2.71899
2.72025
2.71754
2.71475
1
1.00002
1.00003
1.00012
1.00021
1.00066
1.00121
1.00375
1.00713
1.02046
1.04543
1.11499
1.30513
1.89439
2.47585
2.68033
2.67576
2.66547
2.6793
2.68368
2.69302
2.69657
2.69555
2.68822
2.66441
1
1.00002
1.00003
1.0001
1.00018
1.00058
1.00106
1.00325
1.0063
1.01774
1.04047
1.09993
1.27131
1.7844
2.4487
2.66324
2.65374
2.65484
2.66621
2.67196
2.67208
2.67037
2.66051
2.6399
2.59044
1
1.00003
1.00006
1.00019
1.00033
1.00107
1.00195
1.00593
1.01189
1.03192
1.08211
1.18837
1.55971
2.39675
2.67558
2.73049
2.72595
2.72503
2.73924
2.75107
2.76492
2.77323
2.78088
2.78536
2.78929
1
1.00003
1.00005
1.00018
1.00033
1.00105
1.00192
1.00584
1.01175
1.03149
1.08137
1.18586
1.55505
2.38763
2.67262
2.73045
2.72571
2.72464
2.73872
2.75043
2.76396
2.77205
2.77928
2.78319
2.78665
1
1.00003
1.00005
1.00018
1.00032
1.00102
1.00187
1.00563
1.01149
1.03039
1.08
1.18081
1.54488
2.3671
2.66494
2.72927
2.72408
2.72268
2.73663
2.74827
2.76159
2.76969
2.77648
2.78006
2.7823
1
1.00003
1.00005
1.00017
1.00031
1.00098
1.0018
1.00536
1.01109
1.02897
1.07736
1.17301
1.52876
2.33401
2.65288
2.72718
2.72145
2.71892
2.7326
2.74424
2.7567
2.76356
2.77195
2.77487
2.77757
1
1.00003
1.00005
1.00016
1.00029
1.00092
1.0017
1.00502
1.01055
1.02716
1.0735
1.16224
1.50805
2.28955
2.63622
2.72484
2.71849
2.71433
2.72682
2.73739
2.75124
2.75694
2.76161
2.76683
2.76712
1
1.00002
1.00005
1.00015
1.00027
1.00086
1.0016
1.00471
1.00985
1.02545
1.06835
1.15187
1.47068
2.22091
2.61248
2.71983
2.71299
2.70764
2.72155
2.72894
2.74197
2.74959
2.75407
2.75477
2.75742
1
1.00002
1.00004
1.00014
1.00025
1.00081
1.00148
1.00448
1.00899
1.02406
1.06129
1.14048
1.41956
2.12682
2.58061
2.71209
2.70514
2.69551
2.70987
2.71846
2.72663
2.73306
2.73832
2.7406
2.73724
1
1.00002
1.00004
1.00013
1.00023
1.00074
1.00135
1.00419
1.00803
1.02267
1.05281
1.12741
1.36179
2.01051
2.53827
2.70219
2.69545
2.68479
2.69678
2.70749
2.71613
2.71899
2.72025
2.71754
2.71475
1
1.00002
1.00003
1.00012
1.00021
1.00066
1.00121
1.00375
1.00713
1.02046
1.04543
1.11499
1.30513
1.89439
2.47585
2.68033
2.67576
2.66547
2.6793
2.68368
2.69302
2.69657
2.69555
2.68822
2.66441
1
1.00002
1.00003
1.0001
1.00018
1.00058
1.00106
1.00325
1.0063
1.01774
1.04047
1.09993
1.27131
1.7844
2.4487
2.66324
2.65374
2.65484
2.66621
2.67196
2.67208
2.67037
2.66051
2.6399
2.59044
1
1.00003
1.00006
1.00019
1.00033
1.00107
1.00195
1.00593
1.01189
1.03192
1.08211
1.18837
1.55971
2.39676
2.67558
2.73049
2.72595
2.72503
2.73924
2.75107
2.76492
2.77323
2.78088
2.78536
2.78929
1
1.00003
1.00005
1.00018
1.00033
1.00105
1.00192
1.00584
1.01175
1.03149
1.08137
1.18586
1.55505
2.38763
2.67262
2.73045
2.72571
2.72464
2.73872
2.75043
2.76396
2.77205
2.77928
2.78319
2.78665
1
1.00003
1.00005
1.00018
1.00032
1.00102
1.00187
1.00563
1.01149
1.03039
1.08
1.18081
1.54488
2.3671
2.66494
2.72927
2.72408
2.72268
2.73663
2.74827
2.76159
2.76969
2.77648
2.78006
2.7823
1
1.00003
1.00005
1.00017
1.00031
1.00098
1.0018
1.00536
1.01109
1.02897
1.07736
1.17301
1.52876
2.33401
2.65288
2.72718
2.72145
2.71892
2.7326
2.74424
2.7567
2.76356
2.77195
2.77487
2.77757
1
1.00003
1.00005
1.00016
1.00029
1.00092
1.0017
1.00502
1.01055
1.02716
1.0735
1.16224
1.50805
2.28955
2.63622
2.72484
2.71849
2.71433
2.72682
2.73739
2.75124
2.75694
2.76161
2.76683
2.76712
1
1.00002
1.00005
1.00015
1.00027
1.00086
1.0016
1.00471
1.00985
1.02545
1.06835
1.15187
1.47068
2.22091
2.61248
2.71983
2.71299
2.70764
2.72155
2.72894
2.74197
2.74959
2.75407
2.75477
2.75742
1
1.00002
1.00004
1.00014
1.00025
1.00081
1.00148
1.00448
1.00899
1.02406
1.06129
1.14048
1.41956
2.12682
2.58061
2.71209
2.70514
2.69551
2.70987
2.71846
2.72663
2.73306
2.73832
2.7406
2.73724
1
1.00002
1.00004
1.00013
1.00023
1.00074
1.00135
1.00419
1.00803
1.02267
1.05281
1.12741
1.36179
2.01051
2.53827
2.70219
2.69545
2.68479
2.69678
2.70749
2.71613
2.71899
2.72025
2.71754
2.71475
1
1.00002
1.00003
1.00012
1.00021
1.00066
1.00121
1.00375
1.00713
1.02046
1.04543
1.11499
1.30513
1.89439
2.47585
2.68033
2.67576
2.66547
2.6793
2.68368
2.69302
2.69657
2.69555
2.68822
2.66441
1
1.00002
1.00003
1.0001
1.00018
1.00058
1.00106
1.00325
1.0063
1.01774
1.04047
1.09993
1.27131
1.7844
2.4487
2.66324
2.65374
2.65484
2.66621
2.67196
2.67208
2.67037
2.66051
2.6399
2.59044
1
1.00003
1.00006
1.00019
1.00033
1.00107
1.00195
1.00593
1.01189
1.03192
1.08211
1.18837
1.55971
2.39675
2.67558
2.73049
2.72595
2.72503
2.73924
2.75107
2.76492
2.77323
2.78088
2.78536
2.78929
1
1.00003
1.00005
1.00018
1.00033
1.00105
1.00192
1.00584
1.01175
1.03149
1.08137
1.18586
1.55505
2.38763
2.67262
2.73045
2.72571
2.72464
2.73872
2.75043
2.76396
2.77205
2.77928
2.78319
2.78665
1
1.00003
1.00005
1.00018
1.00032
1.00102
1.00187
1.00563
1.01149
1.03039
1.08
1.18081
1.54488
2.3671
2.66494
2.72927
2.72408
2.72268
2.73663
2.74827
2.76159
2.76969
2.77648
2.78006
2.7823
1
1.00003
1.00005
1.00017
1.00031
1.00098
1.0018
1.00536
1.01109
1.02897
1.07736
1.17301
1.52876
2.33401
2.65288
2.72718
2.72145
2.71892
2.7326
2.74424
2.7567
2.76356
2.77195
2.77487
2.77757
1
1.00003
1.00005
1.00016
1.00029
1.00092
1.0017
1.00502
1.01055
1.02716
1.0735
1.16224
1.50805
2.28955
2.63622
2.72484
2.71849
2.71433
2.72682
2.73739
2.75124
2.75694
2.76161
2.76683
2.76712
1
1.00002
1.00005
1.00015
1.00027
1.00086
1.0016
1.00471
1.00985
1.02545
1.06835
1.15187
1.47068
2.2209
2.61248
2.71983
2.71299
2.70764
2.72155
2.72894
2.74197
2.74959
2.75407
2.75477
2.75742
1
1.00002
1.00004
1.00014
1.00025
1.00081
1.00148
1.00448
1.00899
1.02406
1.06129
1.14048
1.41956
2.12682
2.58061
2.71209
2.70514
2.69551
2.70987
2.71846
2.72663
2.73306
2.73832
2.7406
2.73724
1
1.00002
1.00004
1.00013
1.00023
1.00074
1.00135
1.00419
1.00803
1.02267
1.05281
1.12741
1.36179
2.01051
2.53827
2.70219
2.69545
2.68479
2.69678
2.70749
2.71613
2.71899
2.72025
2.71754
2.71475
1
1.00002
1.00003
1.00012
1.00021
1.00066
1.00121
1.00375
1.00713
1.02046
1.04543
1.11499
1.30513
1.89439
2.47585
2.68033
2.67576
2.66547
2.6793
2.68368
2.69302
2.69657
2.69555
2.68822
2.66441
1
1.00002
1.00003
1.0001
1.00018
1.00058
1.00106
1.00325
1.0063
1.01774
1.04047
1.09993
1.27131
1.7844
2.4487
2.66324
2.65374
2.65484
2.66621
2.67196
2.67208
2.67037
2.66051
2.6399
2.59044
1
1.00003
1.00006
1.00019
1.00033
1.00107
1.00195
1.00593
1.01189
1.03192
1.08211
1.18837
1.55971
2.39675
2.67558
2.73049
2.72595
2.72503
2.73924
2.75107
2.76492
2.77323
2.78088
2.78536
2.78929
1
1.00003
1.00005
1.00018
1.00033
1.00105
1.00192
1.00584
1.01175
1.03149
1.08137
1.18586
1.55505
2.38763
2.67262
2.73045
2.72571
2.72464
2.73872
2.75043
2.76396
2.77205
2.77928
2.78319
2.78665
1
1.00003
1.00005
1.00018
1.00032
1.00102
1.00187
1.00563
1.01149
1.03039
1.08
1.18081
1.54488
2.3671
2.66494
2.72927
2.72408
2.72268
2.73663
2.74827
2.76159
2.76969
2.77648
2.78006
2.7823
1
1.00003
1.00005
1.00017
1.00031
1.00098
1.0018
1.00536
1.01109
1.02897
1.07736
1.17301
1.52876
2.334
2.65288
2.72718
2.72145
2.71892
2.7326
2.74424
2.7567
2.76356
2.77195
2.77487
2.77757
1
1.00003
1.00005
1.00016
1.00029
1.00092
1.0017
1.00502
1.01055
1.02716
1.0735
1.16224
1.50805
2.28955
2.63622
2.72484
2.71849
2.71433
2.72682
2.73739
2.75124
2.75694
2.76161
2.76683
2.76712
1
1.00002
1.00005
1.00015
1.00027
1.00086
1.0016
1.00471
1.00985
1.02545
1.06835
1.15187
1.47068
2.2209
2.61248
2.71983
2.71299
2.70764
2.72155
2.72894
2.74197
2.74959
2.75407
2.75477
2.75742
1
1.00002
1.00004
1.00014
1.00025
1.00081
1.00148
1.00448
1.00899
1.02406
1.06129
1.14048
1.41956
2.12682
2.58061
2.71209
2.70514
2.69551
2.70987
2.71846
2.72663
2.73306
2.73832
2.7406
2.73724
1
1.00002
1.00004
1.00013
1.00023
1.00074
1.00135
1.00419
1.00803
1.02267
1.05281
1.12741
1.36179
2.01051
2.53827
2.70219
2.69545
2.68479
2.69678
2.70749
2.71613
2.71899
2.72025
2.71754
2.71475
1
1.00002
1.00003
1.00012
1.00021
1.00066
1.00121
1.00375
1.00713
1.02046
1.04543
1.11499
1.30513
1.89439
2.47585
2.68033
2.67576
2.66547
2.6793
2.68368
2.69302
2.69657
2.69555
2.68822
2.66441
1
1.00002
1.00003
1.0001
1.00018
1.00058
1.00106
1.00325
1.0063
1.01774
1.04047
1.09993
1.27131
1.7844
2.4487
2.66324
2.65374
2.65484
2.66621
2.67196
2.67208
2.67037
2.66051
2.6399
2.59044
1
1.00003
1.00006
1.00019
1.00033
1.00107
1.00195
1.00593
1.01189
1.03192
1.08211
1.18837
1.55971
2.39675
2.67558
2.73049
2.72595
2.72503
2.73924
2.75107
2.76492
2.77323
2.78088
2.78536
2.78929
1
1.00003
1.00005
1.00018
1.00033
1.00105
1.00192
1.00584
1.01175
1.03149
1.08137
1.18586
1.55505
2.38763
2.67262
2.73045
2.72571
2.72464
2.73872
2.75043
2.76396
2.77205
2.77928
2.78319
2.78665
1
1.00003
1.00005
1.00018
1.00032
1.00102
1.00187
1.00563
1.01149
1.03039
1.08
1.18081
1.54488
2.36709
2.66494
2.72927
2.72408
2.72268
2.73663
2.74827
2.76159
2.76969
2.77648
2.78006
2.7823
1
1.00003
1.00005
1.00017
1.00031
1.00098
1.0018
1.00536
1.01109
1.02897
1.07735
1.17301
1.52876
2.334
2.65288
2.72718
2.72145
2.71892
2.7326
2.74424
2.7567
2.76356
2.77195
2.77487
2.77757
1
1.00003
1.00005
1.00016
1.00029
1.00092
1.0017
1.00502
1.01055
1.02716
1.0735
1.16224
1.50804
2.28955
2.63621
2.72484
2.71849
2.71433
2.72682
2.73739
2.75124
2.75694
2.76161
2.76683
2.76712
1
1.00002
1.00005
1.00015
1.00027
1.00086
1.0016
1.00471
1.00985
1.02545
1.06835
1.15187
1.47067
2.2209
2.61248
2.71983
2.71299
2.70764
2.72155
2.72894
2.74197
2.74959
2.75407
2.75477
2.75742
1
1.00002
1.00004
1.00014
1.00025
1.00081
1.00148
1.00448
1.00899
1.02406
1.06129
1.14048
1.41955
2.12681
2.5806
2.71209
2.70514
2.69551
2.70987
2.71846
2.72663
2.73306
2.73832
2.7406
2.73724
1
1.00002
1.00004
1.00013
1.00023
1.00074
1.00135
1.00419
1.00803
1.02267
1.05281
1.12741
1.36179
2.0105
2.53826
2.70219
2.69545
2.68479
2.69678
2.70749
2.71613
2.71899
2.72025
2.71754
2.71475
1
1.00002
1.00003
1.00012
1.00021
1.00066
1.00121
1.00375
1.00713
1.02046
1.04543
1.11499
1.30513
1.89438
2.47584
2.68033
2.67576
2.66547
2.6793
2.68368
2.69302
2.69657
2.69555
2.68822
2.66441
1
1.00002
1.00003
1.0001
1.00018
1.00058
1.00106
1.00325
1.0063
1.01774
1.04047
1.09993
1.27131
1.78439
2.4487
2.66324
2.65374
2.65484
2.66621
2.67196
2.67208
2.67037
2.66051
2.6399
2.59044
0.999996
1.00002
1.00005
1.00018
1.00033
1.00106
1.00194
1.00591
1.01188
1.03191
1.0821
1.18833
1.55969
2.39665
2.67551
2.73042
2.72588
2.72496
2.73917
2.751
2.76484
2.77315
2.7808
2.78527
2.7892
0.999996
1.00002
1.00005
1.00017
1.00032
1.00104
1.00192
1.00583
1.01174
1.03147
1.08137
1.18583
1.55504
2.38754
2.67255
2.73039
2.72564
2.72457
2.73865
2.75036
2.76389
2.77197
2.77919
2.78311
2.78656
0.999996
1.00002
1.00005
1.00017
1.00031
1.00101
1.00186
1.00561
1.01148
1.03036
1.08
1.18078
1.54488
2.367
2.66487
2.7292
2.72401
2.72261
2.73656
2.7482
2.76152
2.76961
2.7764
2.77997
2.78221
0.999996
1.00002
1.00004
1.00016
1.0003
1.00097
1.00179
1.00535
1.01108
1.02895
1.07734
1.17297
1.52873
2.33389
2.65281
2.72711
2.72138
2.71884
2.73253
2.74416
2.75662
2.76348
2.77187
2.77478
2.77748
0.999995
1.00002
1.00004
1.00015
1.00028
1.00091
1.0017
1.00501
1.01054
1.02714
1.07349
1.1622
1.50801
2.28943
2.63614
2.72477
2.71842
2.71426
2.72674
2.73732
2.75117
2.75686
2.76153
2.76675
2.76704
0.999995
1.00002
1.00004
1.00014
1.00026
1.00086
1.00159
1.0047
1.00984
1.02544
1.06834
1.15183
1.47064
2.22077
2.61241
2.71977
2.71292
2.70757
2.72148
2.72886
2.74189
2.74951
2.754
2.75469
2.75734
0.999995
1.00001
1.00003
1.00013
1.00025
1.0008
1.00147
1.00447
1.00898
1.02403
1.06129
1.14044
1.41956
2.12672
2.58054
2.71203
2.70507
2.69544
2.70981
2.71839
2.72656
2.73299
2.73825
2.74052
2.73716
0.999995
1.00001
1.00003
1.00012
1.00022
1.00074
1.00134
1.00419
1.00803
1.02265
1.0528
1.12738
1.36177
2.01039
2.5382
2.70212
2.69538
2.68472
2.69671
2.70742
2.71607
2.71892
2.72018
2.71747
2.71468
0.999995
1.00001
1.00003
1.00011
1.0002
1.00066
1.0012
1.00374
1.00712
1.02045
1.04542
1.11497
1.3051
1.89431
2.47577
2.68027
2.67569
2.66541
2.67924
2.68362
2.69295
2.6965
2.69549
2.68816
2.66435
0.999995
1.00001
1.00002
1.00009
1.00018
1.00057
1.00105
1.00324
1.00629
1.01773
1.04046
1.09991
1.2713
1.78431
2.44864
2.66317
2.65367
2.65478
2.66615
2.6719
2.67201
2.67031
2.66045
2.63984
2.59038
0.999996
1
1.00003
1.00006
1.0002
1.00038
1.00118
1.00223
1.00648
1.01381
1.03554
1.095
1.21943
1.62656
2.45099
2.62532
2.62706
2.63054
2.63489
2.64829
2.64808
2.64175
2.62098
2.57046
2.40715
0.999996
1
1.00002
1.00005
1.00018
1.00033
1.00106
1.00193
1.00591
1.01175
1.03177
1.08035
1.18657
1.54506
2.3515
2.59673
2.62815
2.61855
2.61566
2.6216
2.61986
2.60694
2.57531
2.51596
2.35047
0.999996
1
1.00002
1.00004
1.00015
1.00027
1.00088
1.00163
1.00477
1.01006
1.02575
1.06952
1.15295
1.47748
2.20906
2.53731
2.62428
2.61406
2.59491
2.59295
2.59079
2.57688
2.53789
2.48149
2.35245
0.999995
0.999999
1.00001
1.00003
1.00012
1.00023
1.00075
1.00137
1.00424
1.00827
1.02265
1.05536
1.1291
1.37671
2.01418
2.46477
2.61341
2.60349
2.58869
2.56698
2.553
2.5391
2.50777
2.46245
2.36068
0.999995
0.999998
1.00001
1.00003
1.0001
1.00019
1.00061
1.00112
1.00346
1.00667
1.01898
1.04211
1.10782
1.27699
1.83705
2.3357
2.56417
2.57402
2.5722
2.55906
2.53242
2.50497
2.46645
2.43617
2.36543
0.999994
0.999998
1
1.00003
1.00006
1.0002
1.00037
1.00115
1.00217
1.00628
1.01337
1.03429
1.09151
1.20896
1.59468
2.34463
2.52401
2.53145
2.53297
2.53195
2.51942
2.4942
2.44117
2.39883
2.35717
0.999994
0.999997
1
1.00002
1.00004
1.00016
1.00029
1.00094
1.00173
1.00516
1.01059
1.02771
1.07284
1.16325
1.48882
2.21694
2.47711
2.52448
2.51053
2.50329
2.49384
2.47858
2.44065
2.37952
2.33509
0.999994
0.999996
0.999999
1.00001
1.00003
1.00012
1.00023
1.00074
1.00136
1.00415
1.00825
1.02225
1.05519
1.12854
1.36996
2.01344
2.38133
2.50726
2.50062
2.48672
2.46161
2.44296
2.42648
2.38099
2.32438
0.999993
0.999994
0.999999
1
1.00003
1.00007
1.00022
1.00041
1.00127
1.00247
1.0068
1.01549
1.03774
1.10487
1.23931
1.63511
2.2701
2.46297
2.47494
2.47018
2.45432
2.42241
2.39559
2.3717
2.32303
0.999993
0.999993
0.999997
1
1.00002
1.00005
1.00017
1.00031
1.00099
1.00186
1.0054
1.01146
1.02925
1.07864
1.17444
1.51876
2.21107
2.41075
2.44276
2.43209
2.42822
2.41227
2.37912
2.3522
2.31748
0.999992
0.999993
0.999994
1
1.00001
1.00004
1.00009
1.00029
1.00056
1.00156
1.00347
1.0085
1.02293
1.05065
1.15319
1.34463
1.95512
2.3491
2.43067
2.42361
2.40124
2.38822
2.36436
2.33426
2.3084
0.999992
0.999992
0.999993
0.999998
1
1.00003
1.00007
1.00022
1.00042
1.00131
1.00245
1.00709
1.01506
1.03817
1.10093
1.23482
1.61143
2.19473
2.39634
2.40015
2.38922
2.3664
2.34302
2.31399
2.28883
0.999992
0.999992
0.999993
0.999995
1
1.00001
1.00006
1.00012
1.00039
1.00074
1.00223
1.00438
1.01195
1.02784
1.06637
1.18174
1.45866
2.04166
2.34161
2.38085
2.37284
2.35539
2.33081
2.30117
2.2729
0.999991
0.999992
0.999993
0.999994
1
1.00001
1.00004
1.00009
1.00028
1.00053
1.00163
1.0031
1.00865
1.01941
1.04734
1.13213
1.30437
1.78438
2.21395
2.34897
2.34815
2.33645
2.32005
2.2934
2.26534
0.999991
0.999991
0.999992
0.999994
0.999996
1.00001
1.00002
1.00008
1.00015
1.00048
1.00091
1.00271
1.00532
1.01483
1.03217
1.0846
1.19924
1.60342
2.0437
2.2879
2.32027
2.31574
2.30391
2.28088
2.25398
0.999991
0.999991
0.999991
0.999993
0.999994
1
1.00001
1.00005
1.0001
1.00033
1.00062
1.0019
1.0036
1.01022
1.0222
1.05488
1.14564
1.35485
1.85647
2.18252
2.28274
2.29097
2.28707
2.27405
2.2482
0.999991
0.999991
0.999991
0.999992
0.999994
0.999996
1.00001
1.00002
1.00009
1.00017
1.00053
1.001
1.00298
1.00586
1.0161
1.03567
1.09014
1.22088
1.62862
2.04681
2.23277
2.25298
2.25228
2.24762
2.23372
0.999991
0.999991
0.999991
0.999991
0.999993
0.999995
1
1.00001
1.00006
1.00011
1.00036
1.00067
1.00207
1.00388
1.01117
1.02373
1.0592
1.15158
1.38648
1.87628
2.16758
2.23263
2.23385
2.22731
2.21877
0.999991
0.999991
0.999991
0.999991
0.999992
0.999994
0.999997
1.00001
1.00002
1.00009
1.00018
1.00056
1.00107
1.00315
1.00626
1.017
1.03846
1.09576
1.24005
1.6828
2.02711
2.18628
2.20396
2.20203
2.19576
0.999991
0.999991
0.999991
0.999991
0.999992
0.999992
0.999996
1
1.00002
1.00004
1.00015
1.00028
1.00087
1.00165
1.00464
1.00989
1.02465
1.06488
1.13972
1.40895
1.91892
2.12625
2.17889
2.17928
2.17363
0.999991
0.999991
0.999991
0.999991
0.999991
0.999992
0.999994
0.999997
1.00001
1.00003
1.0001
1.00018
1.00058
1.00108
1.00327
1.00623
1.01755
1.03811
1.09584
1.23863
1.67621
1.99744
2.14663
2.15827
2.15741
0.999991
0.999991
0.999991
0.999991
0.999991
0.999992
0.999992
0.999996
1
1.00002
1.00004
1.00015
1.00028
1.00084
1.0016
1.00452
1.00957
1.02395
1.06237
1.13513
1.3904
1.87511
2.07931
2.13678
2.13695
0.999991
0.999991
0.999991
0.999991
0.999991
0.999991
0.999992
0.999994
0.999997
1.00001
1.00002
1.00009
1.00018
1.00056
1.00102
1.00311
1.00583
1.01652
1.03518
1.08841
1.21709
1.59936
1.95461
2.10846
2.12452
0.999991
0.999991
0.999991
0.999991
0.999991
0.999991
0.999991
0.999993
0.999994
1
1.00001
1.00005
1.00011
1.00034
1.00063
1.00194
1.00359
1.0104
1.02138
1.05445
1.13304
1.33691
1.76728
2.04044
2.11366
0.999991
0.999991
0.999991
0.999991
0.999991
0.999991
0.999991
0.999992
0.999993
0.999998
1
1.00003
1.00006
1.0002
1.00038
1.00116
1.00217
1.00628
1.01251
1.03327
1.07419
1.19252
1.43774
1.90445
2.07696
0.999991
0.999991
0.999991
0.999991
0.999991
0.999991
0.999991
0.999991
0.999992
0.999994
1
1.00001
1.00005
1.00009
1.0003
1.00057
1.00169
1.00323
1.00914
1.01909
1.0486
1.1175
1.30053
1.68021
2.0085
0.999991
0.999991
0.999991
0.999991
0.999991
0.999991
0.999991
0.999991
0.999992
0.999993
0.999996
1.00001
1.00002
1.00007
1.00015
1.00045
1.00086
1.0025
1.00494
1.01354
1.02894
1.07573
1.17259
1.51211
1.86473
0.999991
0.999991
0.999991
0.999991
0.999991
0.999991
0.999991
0.999991
0.999991
0.999992
0.999995
0.999999
1.00001
1.00004
1.00013
1.00024
1.00074
1.00139
1.00413
1.00808
1.02204
1.05025
1.1211
1.31845
1.82942
0.999991
0.999991
0.999991
0.999991
0.999991
0.999991
0.999991
0.999991
0.999991
0.999992
0.999994
0.999997
1.00001
1.00002
1.0001
1.00018
1.00058
1.00109
1.00333
1.00645
1.01829
1.04086
1.10334
1.27031
1.7767
0.999991
0.999991
0.999991
0.999991
0.999991
0.999991
0.999991
0.999991
0.999991
0.999992
0.999993
0.999997
1
1.00003
1.00006
1.00019
1.00037
1.00115
1.00229
1.0063
1.0147
1.03615
1.10273
1.23521
1.66772
0.999991
0.999991
0.999991
0.999991
0.999991
0.999991
0.999991
0.999991
0.999991
0.999991
0.999993
0.999995
1
1.00001
1.00006
1.00013
1.0004
1.00085
1.00224
1.00566
1.01328
1.03848
1.08274
1.26299
1.67581
0.999991
0.999991
0.999991
0.999991
0.999991
0.999991
0.999991
0.999991
0.999991
0.999992
0.999992
0.999996
1
1.00002
1.00005
1.00017
1.00033
1.00105
1.00206
1.00589
1.01337
1.03395
1.09636
1.22029
1.65515
0.999991
0.999991
0.999991
0.999991
0.999991
0.999991
0.999991
0.999991
0.999991
0.999991
0.999992
0.999996
1
1.00002
1.00004
1.00016
1.00031
1.001
1.00198
1.00564
1.01307
1.03285
1.09452
1.21452
1.64952
0.999991
0.999991
0.999991
0.999991
0.999991
0.999991
0.999991
0.999991
0.999991
0.999991
0.999992
0.999994
1
1.00001
1.00005
1.00011
1.00032
1.00078
1.00194
1.00536
1.01226
1.03645
1.07785
1.25276
1.65021
0.999991
0.999991
0.999991
0.999991
0.999991
0.999991
0.999991
0.999991
0.999991
0.999991
0.999992
0.999995
0.999999
1.00002
1.00004
1.00014
1.00029
1.00084
1.00196
1.00494
1.01348
1.03121
1.0941
1.20775
1.6449
0.999991
0.999991
0.999991
0.999991
0.999991
0.999991
0.999991
0.999991
0.999991
0.999991
0.999992
0.999994
1
1.00001
1.00004
1.0001
1.00029
1.00075
1.00185
1.00519
1.01187
1.0355
1.07621
1.24797
1.64249
0.999991
0.999991
0.999991
0.999991
0.999991
0.999991
0.999991
0.999991
0.999991
0.999991
0.999992
0.999995
0.999999
1.00002
1.00004
1.00015
1.00028
1.00092
1.00184
1.00523
1.01252
1.03117
1.09158
1.20558
1.64227
0.999991
0.999991
0.999991
0.999991
0.999991
0.999991
0.999991
0.999991
0.999991
0.999991
0.999992
0.999995
0.999998
1.00002
1.00004
1.00014
1.00027
1.00086
1.0018
1.00504
1.01249
1.03078
1.09145
1.20508
1.6444
0.999991
0.999991
0.999991
0.999991
0.999991
0.999991
0.999991
0.999991
0.999991
0.999991
0.999992
0.999994
1
1.00001
1.00005
1.0001
1.00032
1.0007
1.00198
1.00482
1.01226
1.03471
1.07852
1.24287
1.65962
0.999991
0.999991
0.999991
0.999991
0.999991
0.999991
0.999991
0.999991
0.999991
0.999991
0.999992
0.999994
1
1.00001
1.00005
1.00011
1.00038
1.00071
1.00233
1.00458
1.01347
1.03273
1.08059
1.2374
1.66238
1
1.00001
1.00004
1.00007
1.00021
1.00038
1.00119
1.00224
1.00649
1.01382
1.03556
1.09501
1.21948
1.62657
2.45107
2.62539
2.62712
2.63061
2.63495
2.64835
2.64814
2.64181
2.62103
2.57051
2.40719
1
1.00001
1.00003
1.00006
1.00019
1.00034
1.00107
1.00194
1.00593
1.01176
1.03179
1.08036
1.1866
1.54508
2.35159
2.59681
2.62821
2.61862
2.61572
2.62166
2.61992
2.60699
2.57536
2.51601
2.35051
1
1.00001
1.00003
1.00005
1.00016
1.00028
1.00088
1.00164
1.00478
1.01007
1.02577
1.06953
1.15299
1.47751
2.20916
2.53738
2.62434
2.61412
2.59498
2.593
2.59085
2.57693
2.53794
2.48153
2.35248
1
1.00001
1.00002
1.00004
1.00013
1.00024
1.00076
1.00138
1.00426
1.00828
1.02267
1.05536
1.12913
1.37671
2.01427
2.46484
2.61347
2.60355
2.58875
2.56704
2.55305
2.53914
2.50782
2.46249
2.36072
1
1.00001
1.00002
1.00003
1.00011
1.0002
1.00062
1.00113
1.00347
1.00668
1.01899
1.04212
1.10784
1.27701
1.83711
2.33577
2.56423
2.57407
2.57225
2.55912
2.53248
2.50502
2.46649
2.43621
2.36546
1
1.00001
1.00001
1.00004
1.00007
1.0002
1.00038
1.00116
1.00218
1.00629
1.01338
1.03431
1.09152
1.209
1.5947
2.3447
2.52408
2.53151
2.53302
2.532
2.51947
2.49425
2.44121
2.39887
2.3572
1
1
1.00001
1.00003
1.00005
1.00017
1.0003
1.00095
1.00174
1.00517
1.0106
1.02773
1.07284
1.16328
1.48884
2.21704
2.47718
2.52454
2.51058
2.50334
2.49388
2.47863
2.44069
2.37955
2.33512
1
1
1.00001
1.00002
1.00004
1.00013
1.00024
1.00075
1.00137
1.00416
1.00826
1.02227
1.05519
1.12857
1.36996
2.01351
2.38141
2.50732
2.50068
2.48677
2.46166
2.44301
2.42653
2.38103
2.32441
1
1
1.00001
1.00001
1.00004
1.00007
1.00023
1.00042
1.00128
1.00248
1.00682
1.0155
1.03775
1.10488
1.2393
1.63524
2.27012
2.46303
2.47499
2.47023
2.45437
2.42245
2.39562
2.37173
2.32306
1
1
1.00001
1.00001
1.00003
1.00006