/*--------------------------------*- C++ -*----------------------------------*\
| =========                 |                                                 |
| \\      /  F ield         | OpenFOAM: The Open Source CFD Toolbox           |
|  \\    /   O peration     | Version:  4.1                                   |
|   \\  /    A nd           | Web:      www.OpenFOAM.org                      |
|    \\/     M anipulation  |                                                 |
\*---------------------------------------------------------------------------*/
FoamFile
{
    version     2.0;
    format      ascii;
    class       volVectorField;
    location    "7";
    object      U;
}
// * * * * * * * * * * * * * * * * * * * * * * * * * * * * * * * * * * * * * //

dimensions      [0 1 -1 0 0 0 0];

internalField   nonuniform List<vector> 
52500
(
(3 1.61638e-08 -0.00571426)
(2.99998 9.01692e-08 -0.00571441)
(2.99995 3.34064e-07 -0.00571464)
(2.99988 8.60605e-07 -0.00571537)
(2.99973 2.34992e-06 -0.00571671)
(2.99929 5.39279e-06 -0.00572079)
(2.99843 1.37101e-05 -0.00572865)
(2.99578 3.15763e-05 -0.00575071)
(2.99104 7.53446e-05 -0.00580161)
(2.97374 0.000179663 -0.0059111)
(2.94229 0.000417693 -0.00630069)
(2.82583 0.00104072 -0.0068887)
(2.50414 0.00294109 -0.0095642)
(1.73886 0.00743426 -0.0145915)
(0.765932 0.0207152 -0.0179013)
(0.509117 0.0211839 -0.0184865)
(0.559091 0.0224816 -0.0185124)
(0.569455 0.0247438 -0.0185714)
(0.519977 0.0269799 -0.0187521)
(0.43353 0.0291695 -0.0189325)
(0.347627 0.0318106 -0.0191325)
(0.276633 0.035058 -0.0192981)
(0.205734 0.0385281 -0.0194663)
(0.124165 0.042597 -0.0196205)
(0.0554345 0.0487372 -0.0197798)
(3 4.96122e-08 -0.00571426)
(2.99998 2.75763e-07 -0.00571441)
(2.99996 1.02654e-06 -0.00571464)
(2.99988 2.64777e-06 -0.00571536)
(2.99973 7.27328e-06 -0.00571667)
(2.9993 1.67906e-05 -0.0057207)
(2.99845 4.26663e-05 -0.00572845)
(2.99583 0.000100772 -0.00575016)
(2.99117 0.000230908 -0.00580055)
(2.97402 0.000581722 -0.00590817)
(2.94303 0.00127184 -0.00629512)
(2.82776 0.00320828 -0.00687163)
(2.50985 0.00912222 -0.00952788)
(1.75185 0.0231386 -0.0145063)
(0.773545 0.0633779 -0.0178003)
(0.506192 0.0618756 -0.0184151)
(0.557721 0.0631655 -0.0184382)
(0.568675 0.0675904 -0.0184891)
(0.518751 0.0717371 -0.0186619)
(0.432161 0.0756532 -0.018835)
(0.346382 0.0802841 -0.0190259)
(0.275009 0.0856567 -0.0191822)
(0.203176 0.090781 -0.0193397)
(0.120336 0.0958633 -0.0194819)
(0.0513179 0.101443 -0.0196261)
(3 7.98524e-08 -0.00571426)
(2.99998 4.43221e-07 -0.0057144)
(2.99996 1.65168e-06 -0.00571463)
(2.99988 4.25544e-06 -0.00571532)
(2.99974 1.17238e-05 -0.0057166)
(2.99932 2.70504e-05 -0.00572049)
(2.9985 6.92703e-05 -0.00572805)
(2.99594 0.000162065 -0.00574883)
(2.99145 0.000383005 -0.0057986)
(2.97459 0.000931792 -0.00590105)
(2.94453 0.00221291 -0.00628509)
(2.83184 0.00537959 -0.00683797)
(2.52211 0.0155767 -0.00945422)
(1.78076 0.0399806 -0.0143394)
(0.791692 0.110045 -0.0176531)
(0.502688 0.105373 -0.018332)
(0.557948 0.10648 -0.0183515)
(0.570743 0.113915 -0.018393)
(0.520665 0.121238 -0.0185577)
(0.434514 0.128796 -0.0187222)
(0.349444 0.137467 -0.0189031)
(0.277957 0.147033 -0.0190511)
(0.205255 0.15628 -0.0191973)
(0.121174 0.16497 -0.0193299)
(0.0504832 0.172325 -0.0194613)
(3 1.04939e-07 -0.00571426)
(2.99998 5.81976e-07 -0.0057144)
(2.99996 2.17039e-06 -0.00571461)
(2.99989 5.58477e-06 -0.00571528)
(2.99975 1.54213e-05 -0.0057165)
(2.99934 3.55091e-05 -0.00572022)
(2.99856 9.18908e-05 -0.00572749)
(2.99609 0.000210968 -0.00574718)
(2.99181 0.000525212 -0.00579556)
(2.97552 0.00120137 -0.00589213)
(2.94683 0.00320996 -0.00626607)
(2.83799 0.0075304 -0.00678759)
(2.54153 0.0216356 -0.00933933)
(1.82657 0.0567693 -0.014084)
(0.819712 0.157202 -0.017462)
(0.497248 0.148326 -0.0182406)
(0.558918 0.14894 -0.0182561)
(0.575003 0.159404 -0.0182828)
(0.525195 0.170055 -0.0184381)
(0.440173 0.181639 -0.0185932)
(0.356338 0.194747 -0.0187582)
(0.285086 0.209079 -0.0188881)
(0.211594 0.223233 -0.019036)
(0.125711 0.236321 -0.019157)
(0.0518339 0.245962 -0.01929)
(3 1.21813e-07 -0.00571425)
(2.99998 6.73949e-07 -0.00571439)
(2.99996 2.51835e-06 -0.00571459)
(2.99989 6.46042e-06 -0.00571522)
(2.99976 1.7902e-05 -0.00571638)
(2.99938 4.10268e-05 -0.00571988)
(2.99864 0.00010789 -0.00572678)
(2.9963 0.000241025 -0.0057451)
(2.99228 0.000642004 -0.00579151)
(2.9768 0.00138909 -0.00588092)
(2.94995 0.00406952 -0.00623851)
(2.84598 0.00912721 -0.00671913)
(2.56781 0.0291402 -0.00919265)
(1.88847 0.0741755 -0.0137477)
(0.854844 0.207445 -0.0172264)
(0.487264 0.192987 -0.0181483)
(0.559091 0.191536 -0.0181593)
(0.580395 0.204261 -0.0181672)
(0.531534 0.217808 -0.0183064)
(0.44847 0.233435 -0.0184442)
(0.366531 0.251086 -0.0186066)
(0.296038 0.270503 -0.0187165)
(0.221981 0.290269 -0.0188286)
(0.133584 0.308734 -0.0189566)
(0.0551326 0.321527 -0.0190717)
(3 1.28568e-07 -0.00571425)
(2.99999 7.10017e-07 -0.00571438)
(2.99996 2.65177e-06 -0.00571457)
(2.9999 6.76241e-06 -0.00571516)
(2.99978 1.87621e-05 -0.00571624)
(2.99942 4.25189e-05 -0.00571953)
(2.99873 0.000114602 -0.00572597)
(2.99654 0.000240815 -0.00574319)
(2.99277 0.000727761 -0.00578633)
(2.97833 0.00139487 -0.00587033)
(2.95345 0.00490271 -0.00620204)
(2.85716 0.0100747 -0.00665274)
(2.60235 0.0376696 -0.00893578)
(1.97004 0.0914045 -0.0132628)
(0.906863 0.259897 -0.016913)
(0.482032 0.23976 -0.0180268)
(0.564262 0.234697 -0.0180377)
(0.591269 0.248937 -0.0180308)
(0.543184 0.26494 -0.0181724)
(0.462206 0.284806 -0.0182787)
(0.3821 0.307531 -0.0184236)
(0.31236 0.332947 -0.0185331)
(0.237652 0.35968 -0.0186298)
(0.145968 0.385618 -0.0187171)
(0.0607965 0.40392 -0.0188452)
(3 1.39584e-07 -0.00571425)
(2.99999 7.71432e-07 -0.00571437)
(2.99997 2.87448e-06 -0.00571454)
(2.99991 7.3266e-06 -0.0057151)
(2.99979 2.0271e-05 -0.0057161)
(2.99946 4.57973e-05 -0.00571919)
(2.99881 0.000124067 -0.0057251)
(2.99681 0.000253481 -0.00574173)
(2.99324 0.000817091 -0.00578)
(2.98022 0.00137885 -0.00586193)
(2.95736 0.00579695 -0.00615198)
(2.87101 0.0109984 -0.00658204)
(2.64468 0.0437531 -0.00858741)
(2.07122 0.104939 -0.0126283)
(0.978551 0.307015 -0.0165168)
(0.487821 0.287476 -0.0178698)
(0.578451 0.279657 -0.0178835)
(0.610826 0.293965 -0.0178458)
(0.563134 0.311546 -0.0179871)
(0.484295 0.335676 -0.0180904)
(0.405798 0.364044 -0.0181911)
(0.336747 0.396679 -0.0182781)
(0.261374 0.432541 -0.0183635)
(0.165645 0.469426 -0.0184443)
(0.0709311 0.498152 -0.0185259)
(3 1.59855e-07 -0.00571425)
(2.99999 8.8347e-07 -0.00571436)
(2.99997 3.29215e-06 -0.00571452)
(2.99992 8.42789e-06 -0.00571502)
(2.99981 2.32994e-05 -0.00571595)
(2.99951 5.30966e-05 -0.00571878)
(2.9989 0.000141241 -0.00572415)
(2.99711 0.000303042 -0.0057399)
(2.99371 0.000889948 -0.00577294)
(2.98241 0.00164548 -0.00585383)
(2.96166 0.0061831 -0.00609145)
(2.88638 0.0116764 -0.00650308)
(2.69177 0.0455244 -0.00819352)
(2.18783 0.110356 -0.0118726)
(1.07321 0.335129 -0.0160356)
(0.515294 0.335766 -0.0176727)
(0.605361 0.331208 -0.0176912)
(0.640629 0.341944 -0.0176522)
(0.593544 0.359089 -0.0177787)
(0.517342 0.387064 -0.0178858)
(0.440177 0.421474 -0.0179764)
(0.371917 0.462434 -0.0180233)
(0.296725 0.509662 -0.0180622)
(0.197522 0.562865 -0.0180865)
(0.089066 0.612712 -0.0181513)
(3 1.79208e-07 -0.00571425)
(2.99999 9.84272e-07 -0.00571434)
(2.99997 3.65722e-06 -0.00571449)
(2.99992 9.37655e-06 -0.00571494)
(2.99983 2.5796e-05 -0.00571577)
(2.99956 5.90457e-05 -0.00571829)
(2.99902 0.000154155 -0.00572308)
(2.99743 0.000343148 -0.00573714)
(2.99436 0.000909086 -0.00576623)
(2.98457 0.00194745 -0.00584002)
(2.9659 0.00570783 -0.00603931)
(2.90166 0.0120567 -0.00642603)
(2.73785 0.0401545 -0.00781138)
(2.30786 0.0981283 -0.0111295)
(1.19288 0.302515 -0.0154599)
(0.576026 0.369657 -0.0173703)
(0.645029 0.386332 -0.0174034)
(0.676897 0.390394 -0.0173942)
(0.633287 0.407849 -0.0175275)
(0.561891 0.438792 -0.017587)
(0.487068 0.480086 -0.0176664)
(0.420509 0.529754 -0.0176974)
(0.348328 0.590399 -0.0176916)
(0.251107 0.668601 -0.0176417)
(0.124169 0.76219 -0.0175241)
(3 3.19639e-07 -0.00571425)
(2.99999 5.73637e-07 -0.00571433)
(2.99998 4.66196e-06 -0.00571446)
(2.99993 6.86201e-06 -0.00571485)
(2.99985 3.1588e-05 -0.00571558)
(2.99961 4.42846e-05 -0.00571776)
(2.99914 0.000188892 -0.005722)
(2.99774 0.00024981 -0.00573414)
(2.99505 0.0011448 -0.00576004)
(2.98638 0.00121764 -0.00582358)
(2.97023 0.00756659 -0.00600303)
(2.91348 0.0059264 -0.00633363)
(2.77067 0.048566 -0.00758203)
(2.38807 0.069784 -0.0104903)
(1.3165 0.266228 -0.0152612)
(0.635373 0.418327 -0.0171674)
(0.66573 0.444602 -0.0171401)
(0.695597 0.43953 -0.0172019)
(0.668864 0.457964 -0.0173077)
(0.609864 0.489901 -0.0173638)
(0.542889 0.537697 -0.0173616)
(0.482279 0.595718 -0.0173321)
(0.422103 0.67458 -0.0172295)
(0.343161 0.794749 -0.0170249)
(0.192221 1.00248 -0.0166085)
(2.99999 1.65367e-08 -2.60826e-09)
(2.99998 8.98631e-08 -8.62874e-09)
(2.99995 3.33322e-07 -1.01444e-08)
(2.99988 8.57265e-07 -1.59339e-08)
(2.99972 2.34009e-06 -1.62712e-08)
(2.99928 5.3666e-06 -2.1552e-08)
(2.99843 1.36522e-05 -2.19716e-08)
(2.99578 3.13652e-05 -2.98173e-08)
(2.99104 7.52216e-05 -3.05588e-08)
(2.97374 0.000178347 -6.21485e-08)
(2.94228 0.000418059 -3.1027e-08)
(2.82582 0.00103959 -1.82673e-07)
(2.50412 0.00294242 -9.5957e-08)
(1.73881 0.00743558 -4.5671e-07)
(0.765917 0.0207155 -4.21388e-07)
(0.509148 0.0211836 -1.4575e-08)
(0.559115 0.0224811 -5.55513e-08)
(0.569479 0.0247436 -8.07346e-08)
(0.520006 0.0269797 -7.93858e-08)
(0.433563 0.0291687 -7.89571e-08)
(0.34766 0.0318085 -9.38378e-08)
(0.276667 0.0350554 -1.11606e-07)
(0.205769 0.0385274 -1.26799e-07)
(0.124194 0.0426018 -1.44025e-07)
(0.0554501 0.0487496 -1.63376e-07)
(2.99999 5.0917e-08 -2.60097e-09)
(2.99998 2.75506e-07 -8.64125e-09)
(2.99995 1.02699e-06 -1.01557e-08)
(2.99988 2.64389e-06 -1.59853e-08)
(2.99973 7.26276e-06 -1.64033e-08)
(2.99929 1.67583e-05 -2.18831e-08)
(2.99845 4.25939e-05 -2.26131e-08)
(2.99583 0.000100507 -3.28598e-08)
(2.99116 0.000230727 -2.91003e-08)
(2.97402 0.000580152 -8.49735e-08)
(2.94302 0.00127205 -3.41092e-09)
(2.82775 0.00320658 -2.05356e-07)
(2.50983 0.00912281 -6.40688e-08)
(1.7518 0.0231385 -4.53718e-07)
(0.773541 0.0633728 -4.23325e-07)
(0.506235 0.0618704 -1.56656e-08)
(0.557755 0.0631604 -5.85144e-08)
(0.568706 0.0675861 -8.17601e-08)
(0.518787 0.0717337 -8.00433e-08)
(0.432199 0.0756504 -7.92982e-08)
(0.346417 0.0802822 -9.39061e-08)
(0.27504 0.0856569 -1.10457e-07)
(0.203201 0.0907854 -1.24222e-07)
(0.120353 0.0958753 -1.39318e-07)
(0.051326 0.101464 -1.55545e-07)
(2.99999 8.20172e-08 -2.5823e-09)
(2.99998 4.44149e-07 -8.65667e-09)
(2.99996 1.65745e-06 -1.01382e-08)
(2.99988 4.25716e-06 -1.60143e-08)
(2.99974 1.17433e-05 -1.64146e-08)
(2.99931 2.70782e-05 -2.19875e-08)
(2.99849 6.93361e-05 -2.27874e-08)
(2.99593 0.000162285 -3.36344e-08)
(2.99144 0.000383108 -2.92567e-08)
(2.97459 0.000933426 -8.86677e-08)
(2.94452 0.00221096 -1.61779e-09)
(2.83183 0.00538139 -2.12507e-07)
(2.52209 0.0155713 -6.37358e-08)
(1.78071 0.0399725 -4.64272e-07)
(0.791688 0.110027 -4.43294e-07)
(0.50273 0.105362 -7.11641e-09)
(0.557975 0.106475 -5.56076e-08)
(0.570764 0.113911 -8.29365e-08)
(0.520686 0.121235 -8.18256e-08)
(0.434535 0.128794 -8.0791e-08)
(0.349464 0.137466 -9.21488e-08)
(0.277974 0.147036 -1.05443e-07)
(0.205268 0.156289 -1.16937e-07)
(0.121181 0.164988 -1.27676e-07)
(0.0504865 0.172353 -1.38008e-07)
(2.99999 1.076e-07 -2.55754e-09)
(2.99998 5.83657e-07 -8.66095e-09)
(2.99996 2.17836e-06 -1.00691e-08)
(2.99989 5.58468e-06 -1.60558e-08)
(2.99975 1.54503e-05 -1.60808e-08)
(2.99934 3.55445e-05 -2.16821e-08)
(2.99856 9.19792e-05 -2.18901e-08)
(2.99609 0.000211236 -2.97934e-08)
(2.99181 0.000525376 -3.11853e-08)
(2.97552 0.00120319 -5.57563e-08)
(2.94682 0.00320797 -6.49664e-08)
(2.83798 0.00753247 -1.48086e-07)
(2.54149 0.0216301 -1.49113e-07)
(1.82649 0.0567608 -5.10312e-07)
(0.819682 0.15718 -5.05506e-07)
(0.49727 0.148314 2.01753e-08)
(0.558928 0.148935 -3.58652e-08)
(0.575008 0.159401 -7.90873e-08)
(0.525201 0.170053 -8.09527e-08)
(0.44018 0.181637 -8.20537e-08)
(0.356345 0.194747 -8.85318e-08)
(0.285092 0.209084 -9.81631e-08)
(0.211599 0.223244 -1.05796e-07)
(0.125713 0.236342 -1.11267e-07)
(0.0518342 0.245993 -1.1612e-07)
(3 1.24502e-07 -2.52897e-09)
(2.99998 6.76067e-07 -8.67016e-09)
(2.99996 2.52248e-06 -1.00227e-08)
(2.99989 6.463e-06 -1.61648e-08)
(2.99976 1.79119e-05 -1.5888e-08)
(2.99938 4.10376e-05 -2.1794e-08)
(2.99864 0.000107912 -2.17883e-08)
(2.99629 0.000241067 -3.00691e-08)
(2.99227 0.000642063 -3.10662e-08)
(2.97679 0.00138924 -5.70894e-08)
(2.94994 0.00406964 -6.75623e-08)
(2.84597 0.00912762 -1.50741e-07)
(2.56777 0.0291395 -1.59351e-07)
(1.88839 0.0741738 -5.38827e-07)
(0.854809 0.20743 -5.64962e-07)
(0.487282 0.192978 4.15197e-08)
(0.559095 0.19153 -2.43674e-08)
(0.580393 0.204256 -8.02277e-08)
(0.531533 0.217804 -8.26158e-08)
(0.44847 0.233432 -8.24985e-08)
(0.366531 0.251086 -8.36251e-08)
(0.296037 0.270509 -8.99208e-08)
(0.22198 0.290282 -9.44882e-08)
(0.133583 0.308756 -9.61587e-08)
(0.0551315 0.321559 -9.60653e-08)
(3 1.3063e-07 -2.50362e-09)
(2.99998 7.12973e-07 -8.66591e-09)
(2.99996 2.64988e-06 -1.00345e-08)
(2.9999 6.77278e-06 -1.60867e-08)
(2.99978 1.87481e-05 -1.59456e-08)
(2.99942 4.25117e-05 -2.1648e-08)
(2.99873 0.000114561 -2.16831e-08)
(2.99653 0.000240651 -2.93946e-08)
(2.99277 0.000727737 -3.08868e-08)
(2.97833 0.00139329 -5.38322e-08)
(2.95344 0.00490493 -6.58572e-08)
(2.85715 0.0100728 -1.43582e-07)
(2.60232 0.0376755 -1.68041e-07)
(1.96995 0.0914123 -5.46673e-07)
(0.90682 0.259898 -6.38165e-07)
(0.482042 0.239755 4.22222e-08)
(0.564259 0.234689 -2.60566e-08)
(0.591261 0.248931 -8.21734e-08)
(0.543177 0.264936 -8.44213e-08)
(0.462201 0.284803 -8.35881e-08)
(0.382095 0.307532 -8.12033e-08)
(0.312355 0.332952 -8.3652e-08)
(0.237648 0.359692 -8.42523e-08)
(0.145964 0.385639 -8.17929e-08)
(0.0607944 0.403949 -7.88266e-08)
(3 1.41581e-07 -2.4874e-09)
(2.99999 7.75335e-07 -8.64726e-09)
(2.99996 2.87482e-06 -1.01152e-08)
(2.99991 7.34027e-06 -1.59381e-08)
(2.99979 2.02762e-05 -1.63135e-08)
(2.99946 4.58316e-05 -2.1733e-08)
(2.99881 0.000124126 -2.24053e-08)
(2.9968 0.000253653 -3.25331e-08)
(2.99324 0.000817353 -2.87012e-08)
(2.98021 0.0013793 -8.658e-08)
(2.95736 0.00579885 -2.63574e-09)
(2.871 0.011 -2.16838e-07)
(2.64466 0.0437569 -5.92593e-08)
(2.07115 0.104948 -5.17744e-07)
(0.978531 0.307023 -6.49049e-07)
(0.487846 0.287472 9.57863e-09)
(0.578458 0.279648 -4.73272e-08)
(0.610825 0.293957 -8.63351e-08)
(0.56313 0.311541 -8.55042e-08)
(0.48429 0.335674 -8.18538e-08)
(0.405793 0.364045 -7.81874e-08)
(0.336741 0.396684 -7.8225e-08)
(0.261368 0.432553 -7.613e-08)
(0.165641 0.469446 -7.06588e-08)
(0.0709287 0.49818 -6.41448e-08)
(3 1.62583e-07 -2.46369e-09)
(2.99999 8.86726e-07 -8.6227e-09)
(2.99997 3.2966e-06 -1.01e-08)
(2.99991 8.4379e-06 -1.58364e-08)
(2.99981 2.3324e-05 -1.60694e-08)
(2.9995 5.31561e-05 -2.11208e-08)
(2.9989 0.00014138 -2.11456e-08)
(2.99711 0.000303487 -2.71974e-08)
(2.99371 0.000890398 -2.89834e-08)
(2.98241 0.00164838 -5.04347e-08)
(2.96165 0.00618334 -3.83293e-08)
(2.88637 0.0116829 -1.47331e-07)
(2.69175 0.0455258 -1.19492e-07)
(2.18776 0.110368 -4.71247e-07)
(1.07318 0.335162 -6.77663e-07)
(0.515298 0.335766 -3.55958e-08)
(0.605363 0.331198 -6.6317e-08)
(0.640629 0.341939 -8.26108e-08)
(0.593543 0.359087 -8.15643e-08)
(0.517338 0.387063 -8.07097e-08)
(0.440172 0.421475 -7.75365e-08)
(0.371911 0.462439 -7.39776e-08)
(0.29672 0.509674 -6.93331e-08)
(0.197518 0.562883 -6.09883e-08)
(0.0890637 0.612738 -5.0986e-08)
(3 1.78974e-07 -2.43292e-09)
(2.99999 9.86249e-07 -8.62877e-09)
(2.99997 3.65245e-06 -1.00934e-08)
(2.99992 9.36962e-06 -1.58304e-08)
(2.99983 2.5786e-05 -1.60199e-08)
(2.99956 5.90369e-05 -2.10258e-08)
(2.99902 0.000154162 -2.08007e-08)
(2.99743 0.000343194 -2.64701e-08)
(2.99436 0.000909198 -2.79976e-08)
(2.98457 0.00194811 -3.98235e-08)
(2.9659 0.00570828 -4.4671e-08)
(2.90165 0.0120591 -1.09914e-07)
(2.73783 0.0401582 -1.10677e-07)
(2.30781 0.0981413 -3.63888e-07)
(1.19284 0.302555 -4.46479e-07)
(0.576017 0.369655 -1.87809e-07)
(0.645036 0.386317 -1.11569e-07)
(0.676906 0.39039 -6.40301e-08)
(0.63329 0.407848 -7.06919e-08)
(0.56189 0.438793 -8.09846e-08)
(0.487066 0.480088 -7.73932e-08)
(0.420505 0.52976 -7.10386e-08)
(0.348325 0.590409 -6.54333e-08)
(0.251105 0.668619 -5.25423e-08)
(0.124167 0.762215 -3.9575e-08)
(3 3.05185e-07 -2.46827e-09)
(2.99999 6.25805e-07 -8.57913e-09)
(2.99997 4.54973e-06 -1.02216e-08)
(2.99993 6.89219e-06 -1.58895e-08)
(2.99985 3.1458e-05 -1.61274e-08)
(2.99961 4.43077e-05 -2.10913e-08)
(2.99914 0.000188757 -2.08197e-08)
(2.99774 0.000249846 -2.64015e-08)
(2.99505 0.0011446 -2.76392e-08)
(2.98637 0.00121793 -3.97686e-08)
(2.97022 0.00756559 -4.02338e-08)
(2.91348 0.00592987 -1.1408e-07)
(2.77065 0.0485626 -8.66623e-08)
(2.38803 0.0697968 -3.21146e-07)
(1.31645 0.266244 -4.47719e-07)
(0.635343 0.418319 -3.4291e-07)
(0.665741 0.444595 -1.84341e-07)
(0.695619 0.439527 -1.56359e-08)
(0.668873 0.457964 -6.39053e-08)
(0.609868 0.489902 -7.65842e-08)
(0.542889 0.5377 -7.60704e-08)
(0.482278 0.595723 -7.17848e-08)
(0.422102 0.67459 -6.18369e-08)
(0.343161 0.794765 -4.50841e-08)
(0.19222 1.0025 -2.88224e-08)
(2.99999 1.65357e-08 -4.46497e-13)
(2.99998 8.98584e-08 -2.34391e-12)
(2.99995 3.33303e-07 -5.41909e-12)
(2.99988 8.57216e-07 -1.13512e-11)
(2.99972 2.33995e-06 -2.30228e-11)
(2.99928 5.36624e-06 -4.37493e-11)
(2.99843 1.36514e-05 -9.85873e-11)
(2.99578 3.13624e-05 -1.91495e-10)
(2.99104 7.52198e-05 -4.89919e-10)
(2.97374 0.000178329 -9.78419e-10)
(2.94228 0.000418064 -2.56286e-09)
(2.82581 0.00103958 -6.10812e-09)
(2.50411 0.00294243 -1.49309e-08)
(1.7388 0.00743559 -3.6499e-08)
(0.765913 0.0207155 -4.64085e-08)
(0.50915 0.0211836 2.5253e-09)
(0.559115 0.022481 -1.25168e-09)
(0.569479 0.0247436 -4.87575e-09)
(0.520006 0.0269797 -5.00099e-09)
(0.433563 0.0291687 -4.83883e-09)
(0.347661 0.0318085 -4.65535e-09)
(0.276667 0.0350554 -4.73064e-09)
(0.205769 0.0385274 -4.86739e-09)
(0.124194 0.0426018 -4.97799e-09)
(0.05545 0.0487496 -5.03381e-09)
(2.99999 5.0916e-08 -4.66261e-13)
(2.99998 2.75502e-07 -2.42297e-12)
(2.99995 1.02698e-06 -5.70914e-12)
(2.99988 2.64383e-06 -1.20168e-11)
(2.99973 7.26262e-06 -2.49429e-11)
(2.99929 1.67579e-05 -4.83448e-11)
(2.99845 4.25931e-05 -1.07684e-10)
(2.99583 0.000100505 -2.34253e-10)
(2.99116 0.000230725 -4.70594e-10)
(2.97402 0.000580135 -1.30166e-09)
(2.94302 0.00127205 -2.18666e-09)
(2.82774 0.00320657 -6.41837e-09)
(2.50983 0.00912281 -1.45539e-08)
(1.75179 0.0231385 -3.65498e-08)
(0.773537 0.0633726 -4.68767e-08)
(0.506237 0.0618703 2.71664e-09)
(0.557756 0.0631603 -1.25365e-09)
(0.568706 0.067586 -4.88944e-09)
(0.518787 0.0717337 -4.98584e-09)
(0.432199 0.0756504 -4.79483e-09)
(0.346417 0.0802823 -4.62672e-09)
(0.27504 0.085657 -4.69631e-09)
(0.203201 0.0907855 -4.80951e-09)
(0.120353 0.0958753 -4.8923e-09)
(0.051326 0.101464 -4.92227e-09)
(2.99999 8.20178e-08 -4.67846e-13)
(2.99998 4.44153e-07 -2.41948e-12)
(2.99996 1.65747e-06 -5.7047e-12)
(2.99988 4.25719e-06 -1.2132e-11)
(2.99974 1.17434e-05 -2.48674e-11)
(2.99931 2.70784e-05 -4.8581e-11)
(2.99849 6.93366e-05 -1.081e-10)
(2.99593 0.000162287 -2.34051e-10)
(2.99144 0.000383108 -4.78268e-10)
(2.97459 0.000933441 -1.27766e-09)
(2.94452 0.00221094 -2.27445e-09)
(2.83183 0.00538139 -6.3522e-09)
(2.52209 0.0155713 -1.48774e-08)
(1.7807 0.0399724 -3.70926e-08)
(0.791684 0.110026 -4.85115e-08)
(0.502732 0.105361 3.18615e-09)
(0.557975 0.106475 -1.17617e-09)
(0.570764 0.113911 -4.88592e-09)
(0.520686 0.121235 -4.93657e-09)
(0.434535 0.128794 -4.67819e-09)
(0.349464 0.137466 -4.52201e-09)
(0.277974 0.147036 -4.58756e-09)
(0.205268 0.156289 -4.70395e-09)
(0.121181 0.164988 -4.76109e-09)
(0.0504865 0.172353 -4.78521e-09)
(2.99999 1.07601e-07 -4.53273e-13)
(2.99998 5.83663e-07 -2.35406e-12)
(2.99996 2.17838e-06 -5.484e-12)
(2.99989 5.58473e-06 -1.16654e-11)
(2.99975 1.54505e-05 -2.34571e-11)
(2.99934 3.55448e-05 -4.53924e-11)
(2.99856 9.19799e-05 -1.01817e-10)
(2.99609 0.000211238 -2.03591e-10)
(2.99181 0.000525377 -4.97448e-10)
(2.97552 0.00120321 -1.01387e-09)
(2.94682 0.00320796 -2.82924e-09)
(2.83798 0.00753247 -6.15095e-09)
(2.54149 0.0216301 -1.42481e-08)
(1.82648 0.0567606 -3.90435e-08)
(0.819678 0.15718 -5.08232e-08)
(0.497272 0.148314 3.83058e-09)
(0.558929 0.148935 -1.16504e-09)
(0.575008 0.159401 -4.87216e-09)
(0.525201 0.170052 -4.84699e-09)
(0.440181 0.181637 -4.53114e-09)
(0.356345 0.194748 -4.39143e-09)
(0.285092 0.209085 -4.46256e-09)
(0.211599 0.223245 -4.52879e-09)
(0.125713 0.236342 -4.54401e-09)
(0.0518342 0.245993 -4.59182e-09)
(3 1.24503e-07 -4.46734e-13)
(2.99998 6.76076e-07 -2.31801e-12)
(2.99996 2.52251e-06 -5.39144e-12)
(2.99989 6.46308e-06 -1.14711e-11)
(2.99976 1.79122e-05 -2.30485e-11)
(2.99938 4.10381e-05 -4.46419e-11)
(2.99864 0.000107913 -1.00463e-10)
(2.99629 0.00024107 -2.02546e-10)
(2.99227 0.000642066 -4.94695e-10)
(2.97679 0.00138926 -1.01722e-09)
(2.94994 0.00406964 -2.88635e-09)
(2.84597 0.00912768 -6.16e-09)
(2.56777 0.0291393 -1.48557e-08)
(1.88838 0.0741736 -4.02397e-08)
(0.854805 0.207429 -5.44312e-08)
(0.487285 0.192977 4.84023e-09)
(0.559095 0.19153 -9.3638e-10)
(0.580393 0.204256 -4.79476e-09)
(0.531533 0.217804 -4.64748e-09)
(0.44847 0.233432 -4.14843e-09)
(0.366531 0.251087 -4.0013e-09)
(0.296037 0.270509 -4.14891e-09)
(0.22198 0.290282 -4.26578e-09)
(0.133583 0.308756 -4.32683e-09)
(0.0551315 0.321559 -4.35362e-09)
(3 1.30632e-07 -4.21604e-13)
(2.99998 7.12985e-07 -2.20984e-12)
(2.99996 2.64993e-06 -5.02584e-12)
(2.9999 6.77292e-06 -1.06695e-11)
(2.99978 1.87485e-05 -2.07724e-11)
(2.99942 4.25126e-05 -3.94782e-11)
(2.99873 0.000114563 -8.98508e-11)
(2.99653 0.000240658 -1.62318e-10)
(2.99277 0.000727743 -4.89166e-10)
(2.97833 0.00139333 -7.96749e-10)
(2.95344 0.00490493 -2.95815e-09)
(2.85715 0.0100729 -5.04206e-09)
(2.60231 0.0376753 -1.91759e-08)
(1.96994 0.0914121 -4.05813e-08)
(0.906815 0.259897 -6.08694e-08)
(0.482044 0.239754 5.57954e-09)
(0.564259 0.234689 -2.6261e-10)
(0.59126 0.248931 -4.48462e-09)
(0.543176 0.264936 -4.41343e-09)
(0.462201 0.284803 -4.01806e-09)
(0.382095 0.307532 -3.8173e-09)
(0.312355 0.332952 -3.84011e-09)
(0.237649 0.359693 -3.87898e-09)
(0.145964 0.385639 -3.90282e-09)
(0.0607944 0.40395 -3.98326e-09)
(3 1.41581e-07 -3.92519e-13)
(2.99999 7.75339e-07 -2.10443e-12)
(2.99996 2.87484e-06 -4.64812e-12)
(2.99991 7.34031e-06 -9.62649e-12)
(2.99979 2.02763e-05 -1.83668e-11)
(2.99946 4.58318e-05 -3.3312e-11)
(2.99881 0.000124126 -7.70964e-11)
(2.9968 0.000253654 -1.08503e-10)
(2.99324 0.000817355 -5.00619e-10)
(2.98021 0.00137931 -3.41721e-10)
(2.95735 0.00579885 -3.69927e-09)
(2.87099 0.011 -4.02856e-09)
(2.64465 0.043757 -2.05482e-08)
(2.07114 0.104948 -4.1294e-08)
(0.978525 0.307023 -6.78767e-08)
(0.487846 0.287471 4.8404e-09)
(0.578458 0.279647 2.62721e-10)
(0.610824 0.293957 -3.8979e-09)
(0.56313 0.311541 -3.88457e-09)
(0.48429 0.335674 -3.60522e-09)
(0.405792 0.364045 -3.37599e-09)
(0.336741 0.396685 -3.40434e-09)
(0.261368 0.432554 -3.42556e-09)
(0.165641 0.469446 -3.43321e-09)
(0.0709287 0.498181 -3.49584e-09)
(3 1.62583e-07 -4.05178e-13)
(2.99999 8.86728e-07 -2.14415e-12)
(2.99997 3.29661e-06 -4.83727e-12)
(2.99991 8.43791e-06 -1.0096e-11)
(2.99981 2.3324e-05 -1.9817e-11)
(2.9995 5.31561e-05 -3.73603e-11)
(2.9989 0.00014138 -8.31955e-11)
(2.99711 0.000303487 -1.58646e-10)
(2.99371 0.000890405 -4.47865e-10)
(2.98241 0.00164837 -6.86179e-10)
(2.96165 0.00618342 -3.04496e-09)
(2.88637 0.011683 -4.34117e-09)
(2.69174 0.0455264 -1.87397e-08)
(2.18775 0.11037 -4.0106e-08)
(1.07317 0.335166 -7.44523e-08)
(0.515296 0.335766 1.21418e-10)
(0.605362 0.331197 -1.4584e-09)
(0.640627 0.341938 -3.40878e-09)
(0.593541 0.359086 -3.44225e-09)
(0.517337 0.387063 -3.54533e-09)
(0.440171 0.421475 -3.24691e-09)
(0.371911 0.462439 -3.01006e-09)
(0.29672 0.509674 -2.9366e-09)
(0.197518 0.562884 -2.83775e-09)
(0.0890637 0.612738 -2.85494e-09)
(3 1.78976e-07 -3.85338e-13)
(2.99999 9.86256e-07 -2.05659e-12)
(2.99997 3.65248e-06 -4.53775e-12)
(2.99992 9.3697e-06 -9.44218e-12)
(2.99983 2.57862e-05 -1.77948e-11)
(2.99956 5.90374e-05 -3.31136e-11)
(2.99902 0.000154163 -6.99297e-11)
(2.99743 0.000343197 -1.31688e-10)
(2.99436 0.000909208 -3.42967e-10)
(2.98457 0.00194812 -6.10541e-10)
(2.9659 0.00570836 -2.21051e-09)
(2.90165 0.0120592 -2.93403e-09)
(2.73783 0.0401589 -1.35809e-08)
(2.3078 0.0981429 -2.86145e-08)
(1.19284 0.30256 -4.7159e-08)
(0.576014 0.369655 -1.71933e-08)
(0.645035 0.386315 -7.0824e-09)
(0.676905 0.390389 -1.9536e-09)
(0.633289 0.407848 -2.79522e-09)
(0.561889 0.438792 -4.05103e-09)
(0.487065 0.480088 -3.52527e-09)
(0.420504 0.529759 -3.01483e-09)
(0.348324 0.590409 -2.77249e-09)
(0.251105 0.668619 -2.31445e-09)
(0.124167 0.762215 -2.23176e-09)
(3 3.05184e-07 -3.76874e-13)
(2.99999 6.25816e-07 -2.01355e-12)
(2.99997 4.54973e-06 -4.40284e-12)
(2.99993 6.89224e-06 -9.12357e-12)
(2.99985 3.14581e-05 -1.69215e-11)
(2.99961 4.4308e-05 -3.12723e-11)
(2.99914 0.000188758 -6.50901e-11)
(2.99774 0.000249847 -1.22932e-10)
(2.99505 0.00114461 -3.11565e-10)
(2.98637 0.00121793 -5.92937e-10)
(2.97022 0.00756565 -1.78218e-09)
(2.91348 0.00592989 -3.36131e-09)
(2.77065 0.048563 -1.06878e-08)
(2.38802 0.0697977 -2.37105e-08)
(1.31644 0.266247 -4.69431e-08)
(0.635338 0.418318 -3.49568e-08)
(0.66574 0.444594 -1.69111e-08)
(0.69562 0.439526 2.84327e-09)
(0.668872 0.457963 -2.73423e-09)
(0.609866 0.489902 -4.10237e-09)
(0.542888 0.5377 -3.8673e-09)
(0.482277 0.595723 -3.49165e-09)
(0.422102 0.67459 -2.84324e-09)
(0.343161 0.794765 -2.03193e-09)
(0.19222 1.0025 -1.94203e-09)
(2.99999 1.65357e-08 -5.21356e-14)
(2.99998 8.98582e-08 -2.32842e-13)
(2.99995 3.33302e-07 -7.6358e-13)
(2.99988 8.57213e-07 -1.65124e-12)
(2.99972 2.33994e-06 -4.62854e-12)
(2.99928 5.36622e-06 -9.46241e-12)
(2.99843 1.36514e-05 -2.61262e-11)
(2.99578 3.13622e-05 -5.3318e-11)
(2.99104 7.52198e-05 -1.46764e-10)
(2.97374 0.000178328 -3.0083e-10)
(2.94228 0.000418064 -7.99241e-10)
(2.82581 0.00103957 -1.93491e-09)
(2.50411 0.00294244 -4.71735e-09)
(1.7388 0.0074356 -1.1566e-08)
(0.765913 0.0207155 -1.46708e-08)
(0.50915 0.0211836 1.06447e-09)
(0.559115 0.022481 -1.57781e-10)
(0.569479 0.0247436 -1.30368e-09)
(0.520006 0.0269797 -1.32527e-09)
(0.433563 0.0291687 -1.2476e-09)
(0.347661 0.0318085 -1.16582e-09)
(0.276667 0.0350554 -1.19758e-09)
(0.205769 0.0385274 -1.24408e-09)
(0.124194 0.0426018 -1.28281e-09)
(0.05545 0.0487496 -1.31589e-09)
(2.99999 5.09159e-08 -5.88492e-14)
(2.99998 2.75502e-07 -2.59896e-13)
(2.99995 1.02698e-06 -8.61928e-13)
(2.99988 2.64383e-06 -1.87757e-12)
(2.99973 7.26262e-06 -5.27941e-12)
(2.99929 1.67579e-05 -1.10275e-11)
(2.99845 4.2593e-05 -2.92066e-11)
(2.99583 0.000100504 -6.78899e-11)
(2.99116 0.000230724 -1.40056e-10)
(2.97402 0.000580134 -4.10975e-10)
(2.94302 0.00127205 -6.70709e-10)
(2.82774 0.00320657 -2.04364e-09)
(2.50983 0.00912281 -4.58884e-09)
(1.75179 0.0231385 -1.15901e-08)
(0.773537 0.0633726 -1.48295e-08)
(0.506237 0.0618703 1.12265e-09)
(0.557756 0.0631603 -1.61282e-10)
(0.568706 0.067586 -1.30997e-09)
(0.518787 0.0717337 -1.32229e-09)
(0.432199 0.0756504 -1.23563e-09)
(0.346417 0.0802823 -1.15908e-09)
(0.27504 0.085657 -1.18812e-09)
(0.203201 0.0907855 -1.22676e-09)
(0.120353 0.0958754 -1.25647e-09)
(0.051326 0.101464 -1.28055e-09)
(2.99999 8.20179e-08 -5.91016e-14)
(2.99998 4.44154e-07 -2.62147e-13)
(2.99996 1.65747e-06 -8.68759e-13)
(2.99988 4.25719e-06 -1.87885e-12)
(2.99974 1.17434e-05 -5.32599e-12)
(2.99931 2.70785e-05 -1.10805e-11)
(2.99849 6.93366e-05 -2.94101e-11)
(2.99593 0.000162288 -6.79853e-11)
(2.99144 0.000383108 -1.42585e-10)
(2.97459 0.000933442 -4.04388e-10)
(2.94452 0.00221094 -6.9923e-10)
(2.83183 0.00538139 -2.02663e-09)
(2.52209 0.0155713 -4.69989e-09)
(1.7807 0.0399723 -1.17854e-08)
(0.791684 0.110026 -1.53808e-08)
(0.502732 0.105361 1.26851e-09)
(0.557975 0.106475 -1.39609e-10)
(0.570764 0.113911 -1.31189e-09)
(0.520686 0.121235 -1.31009e-09)
(0.434535 0.128794 -1.20258e-09)
(0.349464 0.137466 -1.12995e-09)
(0.277974 0.147036 -1.15843e-09)
(0.205268 0.156289 -1.19435e-09)
(0.121181 0.164988 -1.21534e-09)
(0.0504865 0.172353 -1.23505e-09)
(2.99999 1.07601e-07 -5.41569e-14)
(2.99998 5.83663e-07 -2.4146e-13)
(2.99996 2.17838e-06 -7.94744e-13)
(2.99989 5.58473e-06 -1.71874e-12)
(2.99975 1.54505e-05 -4.8409e-12)
(2.99934 3.55449e-05 -9.96318e-12)
(2.99856 9.198e-05 -2.72383e-11)
(2.99609 0.000211238 -5.72394e-11)
(2.99181 0.000525377 -1.49693e-10)
(2.97552 0.00120321 -3.12376e-10)
(2.94682 0.00320796 -8.91152e-10)
(2.83798 0.00753247 -1.95317e-09)
(2.54149 0.0216301 -4.52703e-09)
(1.82648 0.0567606 -1.24452e-08)
(0.819678 0.15718 -1.61679e-08)
(0.497272 0.148314 1.47081e-09)
(0.558929 0.148935 -1.38644e-10)
(0.575008 0.159401 -1.31142e-09)
(0.525201 0.170052 -1.28721e-09)
(0.440181 0.181637 -1.16385e-09)
(0.356345 0.194748 -1.09751e-09)
(0.285092 0.209085 -1.12586e-09)
(0.211599 0.223245 -1.14662e-09)
(0.125713 0.236342 -1.15257e-09)
(0.0518342 0.245993 -1.17475e-09)
(3 1.24503e-07 -5.22053e-14)
(2.99998 6.76076e-07 -2.31969e-13)
(2.99996 2.52251e-06 -7.68026e-13)
(2.99989 6.46309e-06 -1.66007e-12)
(2.99976 1.79122e-05 -4.72211e-12)
(2.99938 4.10381e-05 -9.7431e-12)
(2.99864 0.000107913 -2.68604e-11)
(2.99629 0.00024107 -5.70799e-11)
(2.99227 0.000642066 -1.49161e-10)
(2.97679 0.00138926 -3.14614e-10)
(2.94994 0.00406965 -9.12603e-10)
(2.84597 0.00912769 -1.9633e-09)
(2.56777 0.0291393 -4.73799e-09)
(1.88838 0.0741735 -1.28739e-08)
(0.854805 0.207429 -1.73836e-08)
(0.487285 0.192977 1.78887e-09)
(0.559096 0.19153 -6.91487e-11)
(0.580393 0.204256 -1.29234e-09)
(0.531533 0.217804 -1.23005e-09)
(0.44847 0.233432 -1.04914e-09)
(0.366531 0.251087 -9.81289e-10)
(0.296037 0.270509 -1.03318e-09)
(0.22198 0.290282 -1.06955e-09)
(0.133583 0.308756 -1.08387e-09)
(0.0551315 0.321559 -1.09828e-09)
(3 1.30633e-07 -4.43197e-14)
(2.99998 7.12986e-07 -1.98112e-13)
(2.99996 2.64993e-06 -6.51909e-13)
(2.9999 6.77292e-06 -1.40718e-12)
(2.99978 1.87485e-05 -3.99763e-12)
(2.99942 4.25127e-05 -8.0955e-12)