/*--------------------------------*- C++ -*----------------------------------*\
| =========                 |                                                 |
| \\      /  F ield         | OpenFOAM: The Open Source CFD Toolbox           |
|  \\    /   O peration     | Version:  4.1                                   |
|   \\  /    A nd           | Web:      www.OpenFOAM.org                      |
|    \\/     M anipulation  |                                                 |
\*---------------------------------------------------------------------------*/
FoamFile
{
    version     2.0;
    format      ascii;
    class       volScalarField;
    location    "2.52";
    object      p;
}
// * * * * * * * * * * * * * * * * * * * * * * * * * * * * * * * * * * * * * //

dimensions      [1 -1 -2 0 0 0 0];

internalField   nonuniform List<scalar> 
52500
(
1.00001
1.00003
1.0001
1.00022
1.00064
1.00131
1.00376
1.00739
1.02286
1.04077
1.14862
1.26071
2.00987
3.3498
8.04961
11.5742
11.2052
10.9619
11.0396
11.2614
11.4902
11.627
11.7282
11.8073
11.8643
1.00001
1.00003
1.0001
1.00022
1.00063
1.00129
1.00371
1.0073
1.02253
1.04022
1.14645
1.25687
1.99295
3.31068
7.94417
11.5832
11.2026
10.9513
11.0302
11.2532
11.4818
11.6188
11.7215
11.802
11.8607
1.00001
1.00003
1.0001
1.00021
1.00061
1.00126
1.00361
1.00711
1.02187
1.03914
1.14195
1.24897
1.95695
3.22638
7.70729
11.6009
11.1931
10.9194
10.9974
11.2187
11.445
11.5799
11.6822
11.763
11.823
1.00001
1.00003
1.00009
1.0002
1.00059
1.00121
1.00345
1.00682
1.02087
1.03749
1.13515
1.23712
1.90294
3.0995
7.34137
11.6292
11.1801
10.8673
10.9416
11.1569
11.3795
11.5105
11.6105
11.6905
11.7534
1.00001
1.00002
1.00009
1.00019
1.00056
1.00116
1.00329
1.00659
1.01952
1.03664
1.12405
1.2249
1.82847
2.93469
6.84924
11.6575
11.1655
10.7976
10.8654
11.0707
11.2888
11.4139
11.5094
11.5875
11.6537
1
1.00002
1.00008
1.00018
1.00053
1.00108
1.00306
1.00618
1.01795
1.03497
1.11178
1.20948
1.74385
2.74272
6.2539
11.6524
11.1415
10.7131
10.7703
10.9576
11.1681
11.2837
11.3698
11.4422
11.5121
1
1.00002
1.00008
1.00017
1.00048
1.00099
1.0028
1.00567
1.01636
1.03219
1.10022
1.19229
1.65797
2.5424
5.61159
11.5439
11.0748
10.6105
10.6552
10.816
11.0122
11.1122
11.1813
11.2384
11.3048
1
1.00002
1.00007
1.00015
1.00044
1.0009
1.00254
1.00514
1.01482
1.02921
1.09062
1.17385
1.59175
2.38366
5.17887
11.1479
10.8946
10.4947
10.5207
10.6403
10.8115
10.887
10.926
10.9484
10.9924
1
1.00002
1.00006
1.00013
1.00039
1.00079
1.00226
1.00456
1.01321
1.02578
1.0818
1.15085
1.53342
2.22227
4.75083
10.4562
10.595
10.418
10.3778
10.4382
10.564
10.6009
10.5892
10.5347
10.4841
1
1.00001
1.00005
1.00011
1.00032
1.00066
1.0019
1.00369
1.01157
1.02015
1.07413
1.12421
1.48067
2.05294
4.31541
9.59391
10.4373
10.3204
10.2031
10.2231
10.2725
10.2528
10.1593
9.9364
9.58634
1.00001
1.00003
1.0001
1.00023
1.00065
1.00132
1.00377
1.0074
1.02287
1.04079
1.14864
1.26076
2.0099
3.34998
8.04993
11.5741
11.2053
10.962
11.0397
11.2615
11.4902
11.6271
11.7283
11.8074
11.8644
1.00001
1.00003
1.0001
1.00022
1.00064
1.0013
1.00372
1.00731
1.02254
1.04024
1.14647
1.25691
1.99299
3.31087
7.9445
11.5832
11.2026
10.9513
11.0303
11.2533
11.4819
11.6189
11.7216
11.8021
11.8608
1.00001
1.00003
1.0001
1.00022
1.00062
1.00127
1.00361
1.00712
1.02188
1.03916
1.14197
1.24901
1.95698
3.22656
7.70761
11.6009
11.1932
10.9195
10.9975
11.2187
11.4451
11.58
11.6823
11.7631
11.8231
1.00001
1.00003
1.0001
1.00021
1.00059
1.00121
1.00346
1.00683
1.02088
1.03751
1.13517
1.23716
1.90297
3.09966
7.34169
11.6291
11.1802
10.8673
10.9417
11.157
11.3796
11.5106
11.6106
11.6906
11.7535
1.00001
1.00003
1.00009
1.0002
1.00057
1.00116
1.00329
1.0066
1.01952
1.03667
1.12405
1.22497
1.82845
2.93483
6.84948
11.6576
11.1655
10.7977
10.8655
11.0707
11.2888
11.414
11.5095
11.5876
11.6538
1.00001
1.00003
1.00009
1.00019
1.00053
1.00109
1.00307
1.00619
1.01796
1.03498
1.11178
1.20952
1.74386
2.74283
6.25411
11.6524
11.1416
10.7132
10.7704
10.9576
11.1682
11.2838
11.3699
11.4423
11.5122
1.00001
1.00002
1.00008
1.00017
1.00049
1.001
1.00281
1.00568
1.01637
1.0322
1.10023
1.19233
1.65799
2.54249
5.61172
11.5441
11.0749
10.6106
10.6553
10.8161
11.0123
11.1123
11.1814
11.2385
11.3049
1
1.00002
1.00007
1.00015
1.00044
1.0009
1.00255
1.00515
1.01483
1.02923
1.09063
1.17389
1.59176
2.38375
5.179
11.1481
10.8947
10.4948
10.5208
10.6403
10.8116
10.8871
10.9261
10.9485
10.9925
1
1.00002
1.00006
1.00014
1.00039
1.0008
1.00226
1.00457
1.01322
1.02579
1.08181
1.15089
1.53343
2.22236
4.75093
10.4564
10.5951
10.418
10.3778
10.4383
10.564
10.601
10.5893
10.5348
10.4842
1
1.00002
1.00005
1.00012
1.00033
1.00067
1.0019
1.0037
1.01158
1.02016
1.07415
1.12424
1.48068
2.05304
4.3155
9.59415
10.4373
10.3204
10.2031
10.2232
10.2726
10.2529
10.1594
9.93646
9.58639
1.00001
1.00003
1.0001
1.00023
1.00065
1.00132
1.00377
1.0074
1.02287
1.04079
1.14865
1.26076
2.00991
3.34999
8.04995
11.5741
11.2053
10.962
11.0397
11.2615
11.4902
11.6271
11.7283
11.8074
11.8644
1.00001
1.00003
1.0001
1.00022
1.00064
1.0013
1.00372
1.00731
1.02254
1.04024
1.14647
1.25691
1.99299
3.31087
7.94451
11.5832
11.2026
10.9513
11.0303
11.2533
11.4819
11.6189
11.7216
11.8021
11.8608
1.00001
1.00003
1.0001
1.00022
1.00062
1.00127
1.00361
1.00712
1.02188
1.03916
1.14197
1.24901
1.95698
3.22657
7.70762
11.6009
11.1932
10.9195
10.9975
11.2187
11.4451
11.58
11.6823
11.7631
11.8231
1.00001
1.00003
1.0001
1.00021
1.00059
1.00121
1.00346
1.00683
1.02088
1.03751
1.13517
1.23716
1.90297
3.09966
7.3417
11.6291
11.1802
10.8673
10.9417
11.157
11.3796
11.5106
11.6106
11.6906
11.7535
1.00001
1.00003
1.00009
1.0002
1.00057
1.00116
1.00329
1.0066
1.01952
1.03667
1.12405
1.22497
1.82845
2.93483
6.8495
11.6576
11.1655
10.7977
10.8655
11.0707
11.2888
11.414
11.5095
11.5876
11.6538
1.00001
1.00003
1.00009
1.00019
1.00053
1.00109
1.00307
1.00619
1.01796
1.03498
1.11178
1.20952
1.74386
2.74284
6.25413
11.6524
11.1416
10.7132
10.7704
10.9576
11.1682
11.2838
11.3699
11.4423
11.5122
1.00001
1.00002
1.00008
1.00017
1.00049
1.001
1.00281
1.00568
1.01637
1.0322
1.10023
1.19233
1.65799
2.5425
5.61173
11.5441
11.0749
10.6106
10.6553
10.8161
11.0123
11.1123
11.1814
11.2385
11.3049
1
1.00002
1.00007
1.00015
1.00044
1.0009
1.00255
1.00515
1.01483
1.02923
1.09063
1.17389
1.59176
2.38375
5.17901
11.1481
10.8947
10.4948
10.5208
10.6403
10.8116
10.8871
10.9261
10.9485
10.9925
1
1.00002
1.00006
1.00014
1.00039
1.0008
1.00226
1.00457
1.01322
1.02579
1.08181
1.15089
1.53343
2.22236
4.75094
10.4564
10.5951
10.418
10.3778
10.4383
10.564
10.601
10.5893
10.5348
10.4842
1
1.00002
1.00005
1.00012
1.00033
1.00067
1.0019
1.0037
1.01158
1.02016
1.07415
1.12424
1.48068
2.05304
4.3155
9.59417
10.4373
10.3204
10.2031
10.2232
10.2726
10.2529
10.1594
9.93646
9.58639
1.00001
1.00003
1.0001
1.00023
1.00065
1.00132
1.00377
1.0074
1.02287
1.04079
1.14865
1.26076
2.00991
3.34999
8.04995
11.5741
11.2053
10.962
11.0397
11.2615
11.4902
11.6271
11.7283
11.8074
11.8644
1.00001
1.00003
1.0001
1.00022
1.00064
1.0013
1.00372
1.00731
1.02254
1.04024
1.14647
1.25691
1.99299
3.31087
7.94451
11.5832
11.2026
10.9513
11.0303
11.2533
11.4819
11.6189
11.7216
11.8021
11.8608
1.00001
1.00003
1.0001
1.00022
1.00062
1.00127
1.00361
1.00712
1.02188
1.03916
1.14197
1.24901
1.95698
3.22656
7.70762
11.6009
11.1932
10.9195
10.9975
11.2187
11.4451
11.58
11.6823
11.7631
11.8231
1.00001
1.00003
1.0001
1.00021
1.00059
1.00121
1.00346
1.00683
1.02088
1.03751
1.13517
1.23716
1.90297
3.09966
7.3417
11.6291
11.1802
10.8673
10.9417
11.157
11.3796
11.5106
11.6106
11.6906
11.7535
1.00001
1.00003
1.00009
1.0002
1.00057
1.00116
1.00329
1.0066
1.01952
1.03667
1.12405
1.22497
1.82845
2.93483
6.8495
11.6576
11.1655
10.7977
10.8655
11.0707
11.2888
11.414
11.5095
11.5876
11.6538
1.00001
1.00003
1.00009
1.00019
1.00053
1.00109
1.00307
1.00619
1.01796
1.03498
1.11178
1.20952
1.74386
2.74284
6.25413
11.6524
11.1416
10.7132
10.7704
10.9576
11.1682
11.2838
11.3699
11.4423
11.5122
1.00001
1.00002
1.00008
1.00017
1.00049
1.001
1.00281
1.00568
1.01637
1.0322
1.10023
1.19233
1.65799
2.5425
5.61173
11.5441
11.0749
10.6106
10.6553
10.8161
11.0123
11.1123
11.1814
11.2385
11.3049
1
1.00002
1.00007
1.00015
1.00044
1.0009
1.00255
1.00515
1.01483
1.02923
1.09063
1.17389
1.59176
2.38375
5.17901
11.1481
10.8947
10.4948
10.5208
10.6403
10.8116
10.8871
10.9261
10.9485
10.9925
1
1.00002
1.00006
1.00014
1.00039
1.0008
1.00226
1.00457
1.01322
1.02579
1.08181
1.15089
1.53343
2.22236
4.75094
10.4564
10.5951
10.418
10.3778
10.4383
10.564
10.601
10.5893
10.5348
10.4842
1
1.00002
1.00005
1.00012
1.00033
1.00067
1.0019
1.0037
1.01158
1.02016
1.07415
1.12424
1.48068
2.05304
4.3155
9.59417
10.4373
10.3204
10.2031
10.2232
10.2726
10.2529
10.1594
9.93646
9.58639
1.00001
1.00003
1.0001
1.00023
1.00065
1.00132
1.00377
1.0074
1.02287
1.04079
1.14865
1.26076
2.00991
3.34999
8.04995
11.5741
11.2053
10.962
11.0397
11.2615
11.4902
11.6271
11.7283
11.8074
11.8644
1.00001
1.00003
1.0001
1.00022
1.00064
1.0013
1.00372
1.00731
1.02254
1.04024
1.14647
1.25691
1.99299
3.31087
7.94451
11.5832
11.2026
10.9513
11.0303
11.2533
11.4819
11.6189
11.7216
11.8021
11.8608
1.00001
1.00003
1.0001
1.00022
1.00062
1.00127
1.00361
1.00712
1.02188
1.03916
1.14197
1.24901
1.95698
3.22656
7.70762
11.6009
11.1932
10.9195
10.9975
11.2187
11.4451
11.58
11.6823
11.7631
11.8231
1.00001
1.00003
1.0001
1.00021
1.00059
1.00121
1.00346
1.00683
1.02088
1.03751
1.13517
1.23716
1.90297
3.09966
7.3417
11.6291
11.1802
10.8673
10.9417
11.157
11.3796
11.5106
11.6106
11.6906
11.7535
1.00001
1.00003
1.00009
1.0002
1.00057
1.00116
1.00329
1.0066
1.01952
1.03667
1.12405
1.22497
1.82845
2.93483
6.8495
11.6576
11.1655
10.7977
10.8655
11.0707
11.2888
11.414
11.5095
11.5876
11.6538
1.00001
1.00003
1.00009
1.00019
1.00053
1.00109
1.00307
1.00619
1.01796
1.03498
1.11178
1.20952
1.74386
2.74284
6.25413
11.6524
11.1416
10.7132
10.7704
10.9576
11.1682
11.2838
11.3699
11.4423
11.5122
1.00001
1.00002
1.00008
1.00017
1.00049
1.001
1.00281
1.00568
1.01637
1.0322
1.10023
1.19233
1.65799
2.5425
5.61173
11.5441
11.0749
10.6106
10.6553
10.8161
11.0123
11.1123
11.1814
11.2385
11.3049
1
1.00002
1.00007
1.00015
1.00044
1.0009
1.00255
1.00515
1.01483
1.02923
1.09063
1.17389
1.59176
2.38375
5.17901
11.1481
10.8947
10.4948
10.5208
10.6403
10.8116
10.8871
10.9261
10.9485
10.9925
1
1.00002
1.00006
1.00014
1.00039
1.0008
1.00226
1.00457
1.01322
1.02579
1.08181
1.15089
1.53343
2.22236
4.75094
10.4564
10.5951
10.418
10.3778
10.4383
10.564
10.601
10.5893
10.5348
10.4842
1
1.00002
1.00005
1.00012
1.00033
1.00067
1.0019
1.0037
1.01158
1.02016
1.07415
1.12424
1.48068
2.05304
4.3155
9.59417
10.4373
10.3204
10.2031
10.2232
10.2726
10.2529
10.1594
9.93646
9.58639
1.00001
1.00003
1.0001
1.00023
1.00065
1.00132
1.00377
1.0074
1.02287
1.04079
1.14865
1.26076
2.00991
3.34999
8.04995
11.5741
11.2053
10.962
11.0397
11.2615
11.4902
11.6271
11.7283
11.8074
11.8644
1.00001
1.00003
1.0001
1.00022
1.00064
1.0013
1.00372
1.00731
1.02254
1.04024
1.14647
1.25691
1.99299
3.31087
7.94451
11.5832
11.2026
10.9513
11.0303
11.2533
11.4819
11.6189
11.7216
11.8021
11.8608
1.00001
1.00003
1.0001
1.00022
1.00062
1.00127
1.00361
1.00712
1.02188
1.03916
1.14197
1.24901
1.95698
3.22656
7.70762
11.6009
11.1932
10.9195
10.9975
11.2187
11.4451
11.58
11.6823
11.7631
11.8231
1.00001
1.00003
1.0001
1.00021
1.00059
1.00121
1.00346
1.00683
1.02088
1.03751
1.13517
1.23716
1.90297
3.09966
7.3417
11.6291
11.1802
10.8673
10.9417
11.157
11.3796
11.5106
11.6106
11.6906
11.7535
1.00001
1.00003
1.00009
1.0002
1.00057
1.00116
1.00329
1.0066
1.01952
1.03667
1.12405
1.22497
1.82845
2.93483
6.8495
11.6576
11.1655
10.7977
10.8655
11.0707
11.2888
11.414
11.5095
11.5876
11.6538
1.00001
1.00003
1.00009
1.00019
1.00053
1.00109
1.00307
1.00619
1.01796
1.03498
1.11178
1.20952
1.74386
2.74284
6.25413
11.6524
11.1416
10.7132
10.7704
10.9576
11.1682
11.2838
11.3699
11.4423
11.5122
1.00001
1.00002
1.00008
1.00017
1.00049
1.001
1.00281
1.00568
1.01637
1.0322
1.10023
1.19233
1.65799
2.5425
5.61173
11.5441
11.0749
10.6106
10.6553
10.8161
11.0123
11.1123
11.1814
11.2385
11.3049
1
1.00002
1.00007
1.00015
1.00044
1.0009
1.00255
1.00515
1.01483
1.02923
1.09063
1.17389
1.59176
2.38375
5.17901
11.1481
10.8947
10.4948
10.5208
10.6403
10.8116
10.8871
10.9261
10.9485
10.9925
1
1.00002
1.00006
1.00014
1.00039
1.0008
1.00226
1.00457
1.01322
1.02579
1.08181
1.15089
1.53343
2.22236
4.75094
10.4564
10.5951
10.418
10.3778
10.4383
10.564
10.601
10.5893
10.5348
10.4842
1
1.00002
1.00005
1.00012
1.00033
1.00067
1.0019
1.0037
1.01158
1.02016
1.07415
1.12424
1.48068
2.05304
4.3155
9.59417
10.4373
10.3204
10.2031
10.2232
10.2726
10.2529
10.1594
9.93646
9.58639
1.00001
1.00003
1.0001
1.00023
1.00065
1.00132
1.00377
1.0074
1.02287
1.04079
1.14865
1.26076
2.00991
3.34999
8.04995
11.5741
11.2053
10.962
11.0397
11.2615
11.4902
11.6271
11.7283
11.8074
11.8644
1.00001
1.00003
1.0001
1.00022
1.00064
1.0013
1.00372
1.00731
1.02254
1.04024
1.14647
1.25691
1.99299
3.31087
7.94451
11.5832
11.2026
10.9513
11.0303
11.2533
11.4819
11.6189
11.7216
11.8021
11.8608
1.00001
1.00003
1.0001
1.00022
1.00062
1.00127
1.00361
1.00712
1.02188
1.03916
1.14197
1.24901
1.95698
3.22656
7.70762
11.6009
11.1932
10.9195
10.9975
11.2187
11.4451
11.58
11.6823
11.7631
11.8231
1.00001
1.00003
1.0001
1.00021
1.00059
1.00121
1.00346
1.00683
1.02088
1.03751
1.13517
1.23716
1.90297
3.09966
7.3417
11.6291
11.1802
10.8673
10.9417
11.157
11.3796
11.5106
11.6106
11.6906
11.7535
1.00001
1.00003
1.00009
1.0002
1.00057
1.00116
1.00329
1.0066
1.01952
1.03667
1.12405
1.22497
1.82845
2.93483
6.8495
11.6576
11.1655
10.7977
10.8655
11.0707
11.2888
11.414
11.5095
11.5876
11.6538
1.00001
1.00003
1.00009
1.00019
1.00053
1.00109
1.00307
1.00619
1.01796
1.03498
1.11178
1.20952
1.74386
2.74284
6.25413
11.6524
11.1416
10.7132
10.7704
10.9576
11.1682
11.2838
11.3699
11.4423
11.5122
1.00001
1.00002
1.00008
1.00017
1.00049
1.001
1.00281
1.00568
1.01637
1.0322
1.10023
1.19233
1.65799
2.5425
5.61173
11.5441
11.0749
10.6106
10.6553
10.8161
11.0123
11.1123
11.1814
11.2385
11.3049
1
1.00002
1.00007
1.00015
1.00044
1.0009
1.00255
1.00515
1.01483
1.02923
1.09063
1.17389
1.59176
2.38375
5.17901
11.1481
10.8947
10.4948
10.5208
10.6403
10.8116
10.8871
10.9261
10.9485
10.9925
1
1.00002
1.00006
1.00014
1.00039
1.0008
1.00226
1.00457
1.01322
1.02579
1.08181
1.15089
1.53343
2.22236
4.75094
10.4564
10.5951
10.418
10.3778
10.4383
10.564
10.601
10.5893
10.5348
10.4842
1
1.00002
1.00005
1.00012
1.00033
1.00067
1.0019
1.0037
1.01158
1.02016
1.07415
1.12424
1.48068
2.05304
4.3155
9.59417
10.4373
10.3204
10.2031
10.2232
10.2726
10.2529
10.1594
9.93646
9.58639
1.00001
1.00003
1.0001
1.00023
1.00065
1.00132
1.00377
1.0074
1.02287
1.04079
1.14865
1.26076
2.00991
3.34999
8.04995
11.5741
11.2053
10.962
11.0397
11.2615
11.4902
11.6271
11.7283
11.8074
11.8644
1.00001
1.00003
1.0001
1.00022
1.00064
1.0013
1.00372
1.00731
1.02254
1.04024
1.14647
1.25691
1.99299
3.31087
7.94451
11.5832
11.2026
10.9513
11.0303
11.2533
11.4819
11.6189
11.7216
11.8021
11.8608
1.00001
1.00003
1.0001
1.00022
1.00062
1.00127
1.00361
1.00712
1.02188
1.03916
1.14197
1.24901
1.95698
3.22657
7.70762
11.6009
11.1932
10.9195
10.9975
11.2187
11.4451
11.58
11.6823
11.7631
11.8231
1.00001
1.00003
1.0001
1.00021
1.00059
1.00121
1.00346
1.00683
1.02088
1.03751
1.13517
1.23716
1.90297
3.09966
7.3417
11.6291
11.1802
10.8673
10.9417
11.157
11.3796
11.5106
11.6106
11.6906
11.7535
1.00001
1.00003
1.00009
1.0002
1.00057
1.00116
1.00329
1.0066
1.01952
1.03667
1.12405
1.22497
1.82845
2.93483
6.8495
11.6576
11.1655
10.7977
10.8655
11.0707
11.2888
11.414
11.5095
11.5876
11.6538
1.00001
1.00003
1.00009
1.00019
1.00053
1.00109
1.00307
1.00619
1.01796
1.03498
1.11178
1.20952
1.74386
2.74284
6.25413
11.6524
11.1416
10.7132
10.7704
10.9576
11.1682
11.2838
11.3699
11.4423
11.5122
1.00001
1.00002
1.00008
1.00017
1.00049
1.001
1.00281
1.00568
1.01637
1.0322
1.10023
1.19233
1.65799
2.5425
5.61173
11.5441
11.0749
10.6106
10.6553
10.8161
11.0123
11.1123
11.1814
11.2385
11.3049
1
1.00002
1.00007
1.00015
1.00044
1.0009
1.00255
1.00515
1.01483
1.02923
1.09063
1.17389
1.59176
2.38375
5.17901
11.1481
10.8947
10.4948
10.5208
10.6403
10.8116
10.8871
10.9261
10.9485
10.9925
1
1.00002
1.00006
1.00014
1.00039
1.0008
1.00226
1.00457
1.01322
1.02579
1.08181
1.15089
1.53343
2.22236
4.75094
10.4564
10.5951
10.418
10.3778
10.4383
10.564
10.601
10.5893
10.5348
10.4842
1
1.00002
1.00005
1.00012
1.00033
1.00067
1.0019
1.0037
1.01158
1.02016
1.07415
1.12424
1.48068
2.05304
4.3155
9.59417
10.4373
10.3204
10.2031
10.2232
10.2726
10.2529
10.1594
9.93646
9.58639
1.00001
1.00003
1.0001
1.00023
1.00065
1.00132
1.00377
1.0074
1.02287
1.04079
1.14864
1.26076
2.0099
3.34998
8.04993
11.5741
11.2053
10.962
11.0397
11.2615
11.4902
11.6271
11.7283
11.8074
11.8644
1.00001
1.00003
1.0001
1.00022
1.00064
1.0013
1.00372
1.00731
1.02254
1.04024
1.14647
1.25691
1.99299
3.31087
7.9445
11.5832
11.2026
10.9513
11.0303
11.2533
11.4819
11.6189
11.7216
11.8021
11.8608
1.00001
1.00003
1.0001
1.00022
1.00062
1.00127
1.00361
1.00712
1.02188
1.03916
1.14197
1.24901
1.95698
3.22656
7.70761
11.6009
11.1932
10.9195
10.9975
11.2187
11.4451
11.58
11.6823
11.7631
11.8231
1.00001
1.00003
1.0001
1.00021
1.00059
1.00121
1.00346
1.00683
1.02088
1.03751
1.13517
1.23716
1.90297
3.09966
7.34169
11.6291
11.1802
10.8673
10.9417
11.157
11.3796
11.5106
11.6106
11.6906
11.7535
1.00001
1.00003
1.00009
1.0002
1.00057
1.00116
1.00329
1.0066
1.01952
1.03667
1.12405
1.22497
1.82845
2.93483
6.84948
11.6576
11.1655
10.7977
10.8655
11.0707
11.2888
11.414
11.5095
11.5876
11.6538
1.00001
1.00003
1.00009
1.00019
1.00053
1.00109
1.00307
1.00619
1.01796
1.03498
1.11178
1.20952
1.74386
2.74283
6.25411
11.6524
11.1416
10.7132
10.7704
10.9576
11.1682
11.2838
11.3699
11.4423
11.5122
1.00001
1.00002
1.00008
1.00017
1.00049
1.001
1.00281
1.00568
1.01637
1.0322
1.10023
1.19233
1.65799
2.54249
5.61172
11.5441
11.0749
10.6106
10.6553
10.8161
11.0123
11.1123
11.1814
11.2385
11.3049
1
1.00002
1.00007
1.00015
1.00044
1.0009
1.00255
1.00515
1.01483
1.02923
1.09063
1.17389
1.59176
2.38375
5.179
11.1481
10.8947
10.4948
10.5208
10.6403
10.8116
10.8871
10.9261
10.9485
10.9925
1
1.00002
1.00006
1.00014
1.00039
1.0008
1.00226
1.00457
1.01322
1.02579
1.08181
1.15089
1.53343
2.22236
4.75093
10.4564
10.5951
10.418
10.3778
10.4383
10.564
10.601
10.5893
10.5348
10.4842
1
1.00002
1.00005
1.00012
1.00033
1.00067
1.0019
1.0037
1.01158
1.02016
1.07415
1.12424
1.48068
2.05304
4.3155
9.59415
10.4373
10.3204
10.2031
10.2232
10.2726
10.2529
10.1594
9.93646
9.58639
1.00001
1.00003
1.0001
1.00022
1.00064
1.00131
1.00376
1.00739
1.02286
1.04077
1.14863
1.26071
2.00987
3.3498
8.04961
11.5742
11.2052
10.9619
11.0396
11.2614
11.4902
11.627
11.7282
11.8073
11.8643
1.00001
1.00003
1.0001
1.00022
1.00063
1.00129
1.00371
1.0073
1.02253
1.04022
1.14645
1.25687
1.99295
3.31068
7.94417
11.5832
11.2026
10.9513
11.0302
11.2532
11.4818
11.6188
11.7215
11.802
11.8607
1.00001
1.00003
1.0001
1.00021
1.00061
1.00126
1.00361
1.00711
1.02187
1.03914
1.14195
1.24897
1.95695
3.22639
7.70729
11.6009
11.1931
10.9194
10.9974
11.2187
11.445
11.5799
11.6822
11.763
11.823
1.00001
1.00003
1.00009
1.0002
1.00059
1.00121
1.00345
1.00682
1.02087
1.03749
1.13515
1.23712
1.90294
3.0995
7.34137
11.6292
11.1801
10.8673
10.9416
11.1569
11.3795
11.5105
11.6105
11.6905
11.7534
1.00001
1.00002
1.00009
1.00019
1.00056
1.00116
1.00329
1.00659
1.01952
1.03664
1.12405
1.2249
1.82847
2.93469
6.84924
11.6575
11.1655
10.7976
10.8654
11.0707
11.2888
11.4139
11.5094
11.5875
11.6537
1
1.00002
1.00008
1.00018
1.00053
1.00108
1.00306
1.00618
1.01795
1.03497
1.11178
1.20948
1.74385
2.74272
6.2539
11.6524
11.1415
10.7131
10.7703
10.9576
11.1681
11.2837
11.3698
11.4422
11.5121
1
1.00002
1.00008
1.00017
1.00048
1.00099
1.0028
1.00567
1.01636
1.03219
1.10022
1.19229
1.65797
2.5424
5.61159
11.5439
11.0748
10.6105
10.6552
10.816
11.0122
11.1122
11.1813
11.2384
11.3048
1
1.00002
1.00007
1.00015
1.00044
1.0009
1.00254
1.00514
1.01482
1.02921
1.09062
1.17385
1.59175
2.38366
5.17887
11.1479
10.8946
10.4947
10.5207
10.6403
10.8115
10.887
10.926
10.9484
10.9924
1
1.00002
1.00006
1.00013
1.00039
1.00079
1.00226
1.00456
1.01321
1.02578
1.0818
1.15085
1.53342
2.22227
4.75083
10.4562
10.595
10.418
10.3778
10.4382
10.564
10.6009
10.5892
10.5347
10.4841
1
1.00001
1.00005
1.00011
1.00032
1.00066
1.0019
1.00369
1.01157
1.02015
1.07413
1.12421
1.48067
2.05294
4.31541
9.59391
10.4373
10.3204
10.2031
10.2231
10.2725
10.2528
10.1593
9.9364
9.58634
1
1.00001
1.00004
1.00012
1.00025
1.00071
1.00144
1.00417
1.00813
1.02554
1.04516
1.16498
1.29583
2.11769
3.65215
8.58595
10.3409
10.2329
10.0246
9.98837
9.9609
9.86318
9.60111
8.99367
7.46594
1
1.00001
1.00003
1.0001
1.00021
1.00062
1.00126
1.00359
1.00707
1.02172
1.0389
1.14054
1.2472
1.94134
3.17867
7.39867
10.2577
10.1362
9.86183
9.74394
9.6527
9.45598
9.04024
8.20918
6.61987
1
1.00001
1.00003
1.00009
1.00018
1.00053
1.00109
1.00309
1.00623
1.01811
1.03509
1.11312
1.21032
1.74971
2.74019
6.12316
10.1571
10.0339
9.71998
9.50475
9.3473
9.06962
8.55978
7.7066
6.41183
1
1.00001
1.00002
1.00007
1.00015
1.00044
1.0009
1.00255
1.00515
1.01479
1.02927
1.0891
1.17563
1.57243
2.33381
4.86124
9.85634
9.83986
9.60152
9.28461
9.05683
8.73371
8.20776
7.41821
6.36812
1
1.00001
1.00002
1.00006
1.00012
1.00035
1.00072
1.00203
1.0041
1.01189
1.02275
1.07365
1.13374
1.47014
2.06051
4.18249
9.00285
9.56015
9.40782
9.08314
8.79989
8.4522
7.95032
7.24592
6.36207
1
1
1.00002
1.00004
1.00011
1.00023
1.00066
1.00135
1.00387
1.00748
1.02364
1.04122
1.15136
1.26596
2.01892
3.33655
7.57522
9.28375
9.19122
8.93172
8.5869
8.2196
7.74783
7.11862
6.3573
0.999999
1
1.00001
1.00003
1.00009
1.00019
1.00055
1.00112
1.00316
1.00636
1.01851
1.03543
1.11583
1.21341
1.76043
2.75057
6.01762
9.09915
9.04983
8.82773
8.42331
8.03665
7.58548
7.01767
6.34758
0.999998
0.999999
1.00001
1.00002
1.00007
1.00014
1.00042
1.00086
1.00242
1.00489
1.01401
1.02772
1.08406
1.16594
1.53289
2.22918
4.44758
8.70593
8.91426
8.73525
8.33074
7.89547
7.45274
6.93572
6.3404
0.999996
0.999998
1
1.00002
1.00004
1.00012
1.00026
1.00075
1.00152
1.00431
1.00847
1.02587
1.04645
1.16411
1.29714
2.07333
3.50585
7.70731
8.67981
8.55973
8.24045
7.78297
7.34256
6.86489
6.33018
0.999995
0.999996
0.999999
1.00001
1.00003
1.00009
1.0002
1.00056
1.00115
1.00325
1.00644
1.01939
1.03525
1.12307
1.21832
1.79791
2.80818
6.08219
8.41192
8.36931
8.15655
7.7108
7.26121
6.81116
6.32359
0.999994
0.999994
0.999997
1
1.00002
1.00005
1.00016
1.00034
1.00096
1.00193
1.00559
1.01054
1.03426
1.05896
1.2134
1.41506
2.33077
4.25784
7.96407
8.243
8.08511
7.69696
7.21235
6.76856
6.31607
0.999993
0.999993
0.999995
0.999999
1.00001
1.00004
1.00012
1.00025
1.0007
1.00143
1.00404
1.00795
1.02412
1.04345
1.15236
1.27322
1.98237
3.24132
6.9141
8.0258
7.9366
7.6631
7.19311
6.74349
6.31403
0.999992
0.999993
0.999994
0.999998
1
1.00003
1.00007
1.0002
1.00041
1.00116
1.00229
1.00695
1.01231
1.04353
1.07178
1.26996
1.53226
2.70086
5.20376
7.67978
7.72107
7.5782
7.20972
6.7453
6.31696
0.999992
0.999992
0.999993
0.999996
1
1.00002
1.00005
1.00014
1.0003
1.00084
1.00172
1.00483
1.00968
1.02823
1.05356
1.1727
1.33879
2.08453
3.50067
6.9968
7.58638
7.486
7.20738
6.76234
6.32948
0.999991
0.999991
0.999992
0.999993
0.999998
1.00001
1.00003
1.00008
1.00023
1.00048
1.00136
1.00275
1.00787
1.01507
1.04786
1.0841
1.29815
1.59852
2.84472
5.46204
7.32058
7.31598
7.17776
6.82607
6.36243
0.999991
0.999991
0.999992
0.999993
0.999996
1
1.00002
1.00005
1.00016
1.00033
1.00092
1.00189
1.00526
1.01056
1.03035
1.05884
1.18164
1.37508
2.10998
3.61875
6.7851
7.21731
7.12415
6.87274
6.42907
0.999991
0.999991
0.999991
0.999992
0.999994
0.999999
1.00001
1.00004
1.00009
1.00025
1.00052
1.00147
1.00297
1.00836
1.01648
1.04946
1.09248
1.30141
1.64345
2.85322
5.49504
6.99102
6.98943
6.86196
6.54991
0.999991
0.999991
0.999991
0.999991
0.999992
0.999996
1
1.00002
1.00005
1.00016
1.00034
1.00095
1.00193
1.00537
1.0106
1.03147
1.05722
1.19251
1.36492
2.14819
3.65851
6.47191
6.88357
6.81331
6.60223
0.999991
0.999991
0.999991
0.999991
0.999992
0.999993
0.999999
1.00001
1.00004
1.00009
1.00026
1.00053
1.00148
1.00298
1.0084
1.01662
1.04907
1.09494
1.29343
1.64955
2.77952
5.26219
6.64457
6.68424
6.5816
0.999991
0.99999
0.999991
0.999991
0.999991
0.999993
0.999995
1
1.00002
1.00006
1.00014
1.00039
1.0008
1.00222
1.00449
1.01259
1.02488
1.07309
1.14483
1.43474
1.97057
3.45914
6.10513
6.56686
6.51804
0.999991
0.99999
0.99999
0.999991
0.999991
0.999992
0.999993
0.999999
1.00001
1.00004
1.00008
1.00025
1.00051
1.00141
1.00287
1.00795
1.01585
1.04574
1.08915
1.27089
1.58934
2.62478
4.86207
6.29698
6.39027
0.999991
0.99999
0.99999
0.99999
0.999991
0.999991
0.999992
0.999995
1
1.00001
1.00006
1.00013
1.00036
1.00074
1.00205
1.00413
1.01151
1.02293
1.06562
1.13374
1.38451
1.86159
3.15865
5.68383
6.257
0.999991
0.99999
0.99999
0.99999
0.99999
0.999991
0.999992
0.999993
0.999998
1.00001
1.00003
1.00008
1.00022
1.00046
1.00127
1.00259
1.00711
1.01421
1.04064
1.07791
1.24055
1.49612
2.41968
4.33281
5.92145
0.999991
0.99999
0.99999
0.99999
0.99999
0.999991
0.999991
0.999992
0.999995
1
1.00002
1.00004
1.00013
1.00028
1.00076
1.00155
1.00424
1.00853
1.02379
1.04659
1.13815
1.27566
1.80831
2.80731
5.18333
0.999991
0.99999
0.99999
0.99999
0.99999
0.99999
0.999991
0.999991
0.999993
0.999996
1.00001
1.00002
1.00007
1.00016
1.00045
1.00093
1.00253
1.00511
1.01415
1.02786
1.08209
1.15741
1.48568
2.04892
3.63257
0.999991
0.99999
0.99999
0.99999
0.99999
0.99999
0.99999
0.999991
0.999992
0.999994
0.999998
1.00001
1.00003
1.0001
1.00022
1.00061
1.00125
1.00343
1.00678
1.0196
1.03598
1.11671
1.21065
1.6764
2.43991
0.999991
0.99999
0.99999
0.99999
0.99999
0.99999
0.99999
0.999991
0.999991
0.999992
0.999995
1
1.00002
1.00005
1.00014
1.0003
1.00084
1.0017
1.00463
1.00926
1.02607
1.0503
1.14891
1.30355
1.83036
0.999991
0.99999
0.99999
0.99999
0.99999
0.99999
0.99999
0.99999
0.999991
0.999991
0.999993
0.999997
1
1.00003
1.00007
1.0002
1.00042
1.00114
1.00232
1.00634
1.01261
1.03595
1.06878
1.20745
1.42555
0.999991
0.99999
0.99999
0.99999
0.99999
0.99999
0.99999
0.99999
0.99999
0.999991
0.999992
0.999994
0.999998
1.00001
1.00004
1.00011
1.00023
1.00065
1.00132
1.00357
1.0072
1.01983
1.03891
1.11431
1.21967
0.999991
0.99999
0.99999
0.99999
0.99999
0.99999
0.99999
0.99999
0.99999
0.999991
0.999991
0.999992
0.999995
1
1.00002
1.00005
1.00014
1.0003
1.00083
1.00168
1.00455
1.00912
1.02511
1.05038
1.14024
0.999991
0.99999
0.99999
0.99999
0.99999
0.99999
0.99999
0.99999
0.99999
0.99999
0.999991
0.999991
0.999993
0.999997
1
1.00003
1.00007
1.00019
1.0004
1.00109
1.00221
1.006
1.01194
1.0334
1.06573
0.999991
0.99999
0.99999
0.99999
0.99999
0.99999
0.99999
0.99999
0.99999
0.99999
0.99999
0.999991
0.999992
0.999994
0.999999
1.00001
1.00004
1.00009
1.00025
1.00052
1.00141
1.00284
1.00771
1.01554
1.04244
0.999991
0.99999
0.99999
0.99999
0.99999
0.99999
0.99999
0.99999
0.99999
0.99999
0.99999
0.999991
0.999991
0.999992
0.999995
1
1.00002
1.00004
1.00013
1.00028
1.00075
1.00152
1.00409
1.00821
1.02223
0.999991
0.99999
0.99999
0.99999
0.99999
0.99999
0.99999
0.99999
0.99999
0.99999
0.99999
0.99999
0.999991
0.999991
0.999992
0.999996
1
1.00002
1.00006
1.00016
1.00034
1.00092
1.00187
1.00503
1.01006
0.999991
0.99999
0.99999
0.99999
0.99999
0.99999
0.99999
0.99999
0.99999
0.99999
0.99999
0.99999
0.99999
0.999991
0.999992
0.999993
0.999998
1.00001
1.00003
1.00007
1.00021
1.00043
1.00115
1.00233
1.00627
0.999991
0.99999
0.99999
0.99999
0.99999
0.99999
0.99999
0.99999
0.99999
0.99999
0.99999
0.99999
0.99999
0.999991
0.999991
0.999992
0.999994
0.999999
1.00001
1.00004
1.00009
1.00026
1.00053
1.00143
1.00288
0.999991
0.99999
0.99999
0.99999
0.99999
0.99999
0.99999
0.99999
0.99999
0.99999
0.99999
0.99999
0.99999
0.99999
0.999991
0.999991
0.999992
0.999995
1
1.00001
1.00005
1.00012
1.00032
1.00066
1.00177
0.999991
0.99999
0.99999
0.99999
0.99999
0.99999
0.99999
0.99999
0.99999
0.99999
0.99999
0.99999
0.99999
0.99999
0.99999
0.999991
0.999991
0.999993
0.999997
1
1.00003
1.00006
1.00018
1.00038
1.00102
0.999991
0.99999
0.99999
0.99999
0.99999
0.99999
0.99999
0.99999
0.99999
0.99999
0.99999
0.99999
0.99999
0.99999
0.99999
0.999991
0.999991
0.999992
0.999994
1
1.00001
1.00005
1.0001
1.0003
1.00061
0.999991
0.99999
0.99999
0.99999
0.99999
0.99999
0.99999
0.99999
0.99999
0.99999
0.99999
0.99999
0.99999
0.99999
0.99999
0.99999
0.999991
0.999992
0.999993
0.999999
1.00001
1.00004
1.00008
1.00025
1.00052
1
1.00002
1.00004
1.00012
1.00025
1.00072
1.00145
1.00418
1.00814
1.02555
1.04518
1.165
1.29587
2.11772
3.6523
8.5862
10.3409
10.2329
10.0247
9.98842
9.96096
9.86324
9.60117
8.99372
7.46598
1
1.00001
1.00004
1.00011
1.00022
1.00062
1.00126
1.0036
1.00708
1.02173
1.03892
1.14055
1.24725
1.94137
3.17883
7.39894
10.2577
10.1363
9.86187
9.74399
9.65275
9.45603
9.04029
8.20922
6.6199
1
1.00001
1.00003
1.00009
1.00019
1.00054
1.0011
1.0031
1.00624
1.01812
1.03511
1.11312
1.21038
1.74971
2.74033
6.12342
10.1572
10.0339
9.72003
9.5048
9.34734
9.06966
8.55983
7.70665
6.41186
1
1.00001
1.00003
1.00008
1.00016
1.00045
1.00091
1.00256
1.00516
1.0148
1.02929
1.08911
1.17567
1.57245
2.3339
4.86138
9.85648
9.83995
9.60156
9.28464
9.05687
8.73376
8.2078
7.41825
6.36815
1
1.00001
1.00002
1.00006
1.00013
1.00036
1.00073
1.00204
1.00411
1.0119
1.02277
1.07365
1.13379
1.47013
2.0606
4.18258
9.00309
9.56022
9.40787
9.08317
8.79993
8.45224
7.95037
7.24596
6.3621
1
1.00001
1.00002
1.00004
1.00012
1.00024
1.00067
1.00135
1.00388
1.00749
1.02365
1.04124
1.15138
1.266
2.01894
3.33669
7.57545
9.2838
9.19127
8.93175
8.58694
8.21965
7.74787
7.11867
6.35733
1
1
1.00002
1.00003
1.0001
1.0002
1.00055
1.00113
1.00317
1.00637
1.01853
1.03546
1.11583
1.21347
1.76042
2.75069
6.01783
9.09922
9.04989
8.82777
8.42335
8.0367
7.58552
7.0177
6.34761
1
1
1.00001
1.00003
1.00007
1.00015
1.00042
1.00086
1.00243
1.0049
1.01402
1.02773
1.08407
1.16598
1.53291
2.22926
4.4477
8.70608
8.91432
8.7353
8.33077
7.8955
7.45277
6.93575
6.34044
1
1
1.00001
1.00002
1.00005
1.00013
1.00027
1.00075
1.00153
1.00432
1.00848
1.02588
1.04647
1.16413
1.29718
2.07338
3.50598
7.70755
8.67987
8.55978