/*--------------------------------*- C++ -*----------------------------------*\
| =========                 |                                                 |
| \\      /  F ield         | OpenFOAM: The Open Source CFD Toolbox           |
|  \\    /   O peration     | Version:  4.1                                   |
|   \\  /    A nd           | Web:      www.OpenFOAM.org                      |
|    \\/     M anipulation  |                                                 |
\*---------------------------------------------------------------------------*/
FoamFile
{
    version     2.0;
    format      ascii;
    class       volScalarField;
    location    "2.52";
    object      T;
}
// * * * * * * * * * * * * * * * * * * * * * * * * * * * * * * * * * * * * * //

dimensions      [0 0 0 1 0 0 0];

internalField   nonuniform List<scalar> 
52500
(
0.999995
1.00002
1.00004
1.00015
1.00028
1.00089
1.00166
1.00488
1.01029
1.02646
1.07174
1.15804
1.49684
2.26652
2.6381
2.73078
2.72485
2.72239
2.73772
2.75146
2.76621
2.77934
2.78559
2.7829
2.78903
0.999995
1.00002
1.00004
1.00015
1.00027
1.00088
1.00163
1.00482
1.01014
1.02612
1.07062
1.156
1.48836
2.25226
2.63416
2.73061
2.72451
2.72171
2.73693
2.75046
2.76491
2.77776
2.78352
2.78035
2.78628
0.999995
1.00002
1.00004
1.00014
1.00026
1.00086
1.00159
1.00471
1.00983
1.02545
1.06829
1.1518
1.47007
2.22039
2.62372
2.72895
2.72273
2.71919
2.73435
2.74763
2.76223
2.77533
2.78053
2.77722
2.78244
0.999995
1.00002
1.00004
1.00014
1.00025
1.00082
1.00152
1.00452
1.00936
1.02441
1.0648
1.14546
1.44261
2.1704
2.60707
2.72569
2.71902
2.71444
2.72976
2.74358
2.75626
2.76858
2.77569
2.77191
2.77779
0.999995
1.00001
1.00003
1.00013
1.00024
1.00079
1.00144
1.00444
1.00872
1.02378
1.0589
1.13705
1.40337
2.09795
2.58325
2.72023
2.71367
2.70573
2.72034
2.73344
2.74934
2.76078
2.7668
2.76542
2.76824
0.999995
1.00001
1.00003
1.00012
1.00022
1.00073
1.00134
1.00418
1.008
1.02261
1.0525
1.12702
1.35925
2.00738
2.55048
2.71211
2.70538
2.6967
2.71315
2.724
2.736
2.75065
2.75539
2.75151
2.75811
0.999995
1.00001
1.00003
1.00011
1.00021
1.00067
1.00122
1.00382
1.00728
1.02084
1.04665
1.11687
1.31461
1.91124
2.50403
2.69534
2.68601
2.67789
2.69577
2.71086
2.72244
2.73532
2.74391
2.73975
2.73814
0.999995
1.00001
1.00002
1.0001
1.00019
1.00061
1.00111
1.00347
1.00659
1.01898
1.04209
1.10601
1.28345
1.81944
2.48863
2.68672
2.6771
2.66553
2.68108
2.69121
2.7056
2.71324
2.7178
2.71221
2.71394
0.999995
1.00001
1.00002
1.00009
1.00016
1.00054
1.00098
1.00309
1.00587
1.01667
1.03815
1.09212
1.26035
1.69569
2.45251
2.67303
2.65838
2.65984
2.66526
2.67406
2.68332
2.69461
2.69645
2.68548
2.66029
0.999994
1.00001
1.00002
1.00007
1.00014
1.00044
1.00084
1.00237
1.00524
1.01295
1.03541
1.07767
1.24078
1.5919
2.35698
2.64039
2.65411
2.65206
2.65176
2.65738
2.6574
2.65851
2.65275
2.63021
2.57832
1
1.00002
1.00005
1.00016
1.00028
1.0009
1.00166
1.00489
1.0103
1.02647
1.07175
1.15808
1.49686
2.26661
2.63817
2.73085
2.72491
2.72245
2.7378
2.75153
2.76627
2.7794
2.78568
2.78299
2.78911
1
1.00002
1.00005
1.00015
1.00028
1.00089
1.00164
1.00483
1.01015
1.02614
1.07064
1.15604
1.48838
2.25235
2.63423
2.73068
2.72458
2.72178
2.737
2.75053
2.76497
2.77782
2.7836
2.78043
2.78637
1
1.00002
1.00005
1.00015
1.00027
1.00086
1.00159
1.00472
1.00984
1.02547
1.0683
1.15184
1.47009
2.22048
2.62379
2.72902
2.7228
2.71926
2.73442
2.7477
2.76229
2.77539
2.78061
2.77731
2.78253
1
1.00002
1.00004
1.00014
1.00026
1.00083
1.00153
1.00453
1.00937
1.02443
1.06482
1.14549
1.44262
2.17048
2.60714
2.72575
2.71909
2.7145
2.72983
2.74364
2.75632
2.76864
2.77577
2.772
2.77788
1
1.00002
1.00004
1.00014
1.00025
1.0008
1.00145
1.00445
1.00873
1.02381
1.05889
1.13708
1.40335
2.098
2.58331
2.7203
2.71374
2.7058
2.7204
2.7335
2.7494
2.76083
2.76688
2.76551
2.76832
1
1.00002
1.00004
1.00013
1.00023
1.00074
1.00135
1.00419
1.00801
1.02262
1.05251
1.12705
1.35925
2.00744
2.55054
2.71218
2.70545
2.69676
2.71322
2.72406
2.73605
2.7507
2.75546
2.75159
2.75819
1
1.00002
1.00004
1.00012
1.00021
1.00068
1.00123
1.00383
1.00729
1.02085
1.04666
1.11689
1.31462
1.91129
2.50409
2.69541
2.68607
2.67795
2.69582
2.71093
2.72249
2.73537
2.74398
2.73983
2.73822
1
1.00002
1.00003
1.00011
1.00019
1.00062
1.00112
1.00348
1.0066
1.01899
1.0421
1.10603
1.28345
1.81949
2.48868
2.68679
2.67716
2.66559
2.68113
2.69127
2.70565
2.71329
2.71787
2.71228
2.71402
1
1.00002
1.00003
1.00009
1.00017
1.00055
1.00099
1.00309
1.00588
1.01669
1.03816
1.09214
1.26034
1.69575
2.45255
2.67309
2.65844
2.65989
2.66532
2.67413
2.68337
2.69466
2.69651
2.68555
2.66036
1
1.00001
1.00002
1.00008
1.00014
1.00045
1.00085
1.00238
1.00525
1.01296
1.03542
1.0777
1.24079
1.59195
2.35704
2.64045
2.65416
2.65212
2.65181
2.65744
2.65745
2.65856
2.65281
2.63028
2.57838
1
1.00002
1.00005
1.00016
1.00028
1.0009
1.00166
1.00489
1.0103
1.02647
1.07175
1.15808
1.49686
2.26661
2.63817
2.73085
2.72491
2.72245
2.73779
2.75153
2.76627
2.7794
2.78568
2.78299
2.78911
1
1.00002
1.00005
1.00015
1.00028
1.00089
1.00164
1.00483
1.01015
1.02614
1.07064
1.15604
1.48838
2.25235
2.63423
2.73068
2.72458
2.72178
2.737
2.75053
2.76497
2.77782
2.7836
2.78043
2.78637
1
1.00002
1.00005
1.00015
1.00027
1.00086
1.00159
1.00472
1.00984
1.02547
1.0683
1.15184
1.47009
2.22048
2.62379
2.72902
2.7228
2.71926
2.73442
2.7477
2.76228
2.77539
2.78061
2.77731
2.78253
1
1.00002
1.00004
1.00014
1.00026
1.00083
1.00153
1.00453
1.00937
1.02443
1.06482
1.14549
1.44263
2.17049
2.60714
2.72575
2.71909
2.7145
2.72983
2.74364
2.75632
2.76864
2.77577
2.772
2.77788
1
1.00002
1.00004
1.00014
1.00025
1.0008
1.00145
1.00445
1.00873
1.02381
1.05889
1.13708
1.40335
2.098
2.58331
2.7203
2.71374
2.7058
2.7204
2.7335
2.7494
2.76083
2.76688
2.76551
2.76832
1
1.00002
1.00004
1.00013
1.00023
1.00074
1.00135
1.00419
1.00801
1.02262
1.05251
1.12705
1.35925
2.00744
2.55054
2.71218
2.70545
2.69676
2.71322
2.72406
2.73605
2.7507
2.75546
2.75159
2.75819
1
1.00002
1.00004
1.00012
1.00021
1.00068
1.00123
1.00383
1.00729
1.02085
1.04666
1.11689
1.31462
1.91129
2.50409
2.69541
2.68607
2.67795
2.69582
2.71093
2.72249
2.73537
2.74398
2.73983
2.73822
1
1.00002
1.00003
1.00011
1.00019
1.00062
1.00112
1.00348
1.0066
1.01899
1.0421
1.10603
1.28345
1.81949
2.48868
2.68679
2.67716
2.66559
2.68113
2.69127
2.70565
2.71329
2.71787
2.71228
2.71402
1
1.00002
1.00003
1.00009
1.00017
1.00055
1.00099
1.00309
1.00588
1.01669
1.03816
1.09214
1.26034
1.69575
2.45255
2.67309
2.65844
2.65989
2.66532
2.67413
2.68337
2.69466
2.69651
2.68555
2.66036
1
1.00001
1.00002
1.00008
1.00014
1.00045
1.00085
1.00238
1.00525
1.01296
1.03542
1.0777
1.24079
1.59195
2.35704
2.64045
2.65416
2.65212
2.65181
2.65744
2.65745
2.65856
2.65281
2.63028
2.57838
1
1.00002
1.00005
1.00016
1.00028
1.0009
1.00166
1.00489
1.0103
1.02647
1.07175
1.15808
1.49686
2.26661
2.63817
2.73085
2.72491
2.72245
2.73779
2.75153
2.76627
2.7794
2.78568
2.78299
2.78911
1
1.00002
1.00005
1.00015
1.00028
1.00089
1.00164
1.00483
1.01015
1.02614
1.07064
1.15604
1.48838
2.25235
2.63423
2.73068
2.72458
2.72178
2.737
2.75053
2.76497
2.77782
2.7836
2.78043
2.78637
1
1.00002
1.00005
1.00015
1.00027
1.00086
1.00159
1.00472
1.00984
1.02547
1.0683
1.15184
1.47009
2.22048
2.62379
2.72902
2.7228
2.71926
2.73442
2.74769
2.76228
2.77539
2.78061
2.77731
2.78253
1
1.00002
1.00004
1.00014
1.00026
1.00083
1.00153
1.00453
1.00937
1.02443
1.06482
1.14549
1.44263
2.17049
2.60714
2.72575
2.71909
2.7145
2.72983
2.74364
2.75632
2.76864
2.77577
2.772
2.77788
1
1.00002
1.00004
1.00014
1.00025
1.0008
1.00145
1.00445
1.00873
1.02381
1.05889
1.13708
1.40335
2.098
2.58331
2.7203
2.71374
2.7058
2.7204
2.7335
2.7494
2.76083
2.76688
2.76551
2.76832
1
1.00002
1.00004
1.00013
1.00023
1.00074
1.00135
1.00419
1.00801
1.02262
1.05251
1.12705
1.35925
2.00744
2.55054
2.71218
2.70545
2.69676
2.71322
2.72406
2.73605
2.7507
2.75546
2.75159
2.75819
1
1.00002
1.00004
1.00012
1.00021
1.00068
1.00123
1.00383
1.00729
1.02085
1.04666
1.11689
1.31462
1.91129
2.50409
2.69541
2.68607
2.67795
2.69582
2.71093
2.72249
2.73537
2.74398
2.73983
2.73822
1
1.00002
1.00003
1.00011
1.00019
1.00062
1.00112
1.00348
1.0066
1.01899
1.0421
1.10603
1.28345
1.81949
2.48868
2.68679
2.67716
2.66559
2.68113
2.69127
2.70565
2.71329
2.71787
2.71228
2.71402
1
1.00002
1.00003
1.00009
1.00017
1.00055
1.00099
1.00309
1.00588
1.01669
1.03816
1.09214
1.26034
1.69575
2.45255
2.67309
2.65844
2.65989
2.66532
2.67413
2.68337
2.69466
2.69651
2.68555
2.66036
1
1.00001
1.00002
1.00008
1.00014
1.00045
1.00085
1.00238
1.00525
1.01296
1.03542
1.0777
1.24079
1.59195
2.35704
2.64045
2.65416
2.65212
2.65181
2.65744
2.65745
2.65856
2.65281
2.63028
2.57838
1
1.00002
1.00005
1.00016
1.00028
1.0009
1.00166
1.00489
1.0103
1.02647
1.07175
1.15808
1.49686
2.26661
2.63817
2.73085
2.72491
2.72245
2.73779
2.75153
2.76627
2.7794
2.78568
2.78299
2.78911
1
1.00002
1.00005
1.00015
1.00028
1.00089
1.00164
1.00483
1.01015
1.02614
1.07064
1.15604
1.48838
2.25235
2.63423
2.73068
2.72458
2.72178
2.737
2.75053
2.76497
2.77782
2.7836
2.78043
2.78637
1
1.00002
1.00005
1.00015
1.00027
1.00086
1.00159
1.00472
1.00984
1.02547
1.0683
1.15184
1.47009
2.22048
2.62379
2.72902
2.7228
2.71926
2.73442
2.74769
2.76228
2.77539
2.78061
2.77731
2.78253
1
1.00002
1.00004
1.00014
1.00026
1.00083
1.00153
1.00453
1.00937
1.02443
1.06482
1.14549
1.44263
2.17049
2.60714
2.72575
2.71909
2.7145
2.72983
2.74364
2.75632
2.76864
2.77577
2.772
2.77788
1
1.00002
1.00004
1.00014
1.00025
1.0008
1.00145
1.00445
1.00873
1.02381
1.05889
1.13708
1.40335
2.098
2.58331
2.7203
2.71374
2.7058
2.7204
2.7335
2.7494
2.76083
2.76688
2.76551
2.76832
1
1.00002
1.00004
1.00013
1.00023
1.00074
1.00135
1.00419
1.00801
1.02262
1.05251
1.12705
1.35925
2.00744
2.55054
2.71218
2.70545
2.69676
2.71322
2.72406
2.73605
2.7507
2.75546
2.75159
2.75819
1
1.00002
1.00004
1.00012
1.00021
1.00068
1.00123
1.00383
1.00729
1.02085
1.04666
1.11689
1.31462
1.91129
2.50409
2.69541
2.68607
2.67794
2.69582
2.71093
2.72249
2.73537
2.74398
2.73983
2.73822
1
1.00002
1.00003
1.00011
1.00019
1.00062
1.00112
1.00348
1.0066
1.01899
1.0421
1.10603
1.28345
1.81949
2.48868
2.68679
2.67716
2.66559
2.68113
2.69127
2.70565
2.71329
2.71787
2.71228
2.71402
1
1.00002
1.00003
1.00009
1.00017
1.00055
1.00099
1.00309
1.00588
1.01669
1.03816
1.09214
1.26034
1.69575
2.45255
2.67309
2.65844
2.65989
2.66532
2.67413
2.68337
2.69466
2.69651
2.68555
2.66036
1
1.00001
1.00002
1.00008
1.00014
1.00045
1.00085
1.00238
1.00525
1.01296
1.03542
1.0777
1.24079
1.59195
2.35704
2.64045
2.65416
2.65212
2.65181
2.65744
2.65745
2.65856
2.65281
2.63028
2.57838
1
1.00002
1.00005
1.00016
1.00028
1.0009
1.00166
1.00489
1.0103
1.02647
1.07175
1.15808
1.49686
2.26661
2.63817
2.73085
2.72491
2.72245
2.73779
2.75153
2.76627
2.7794
2.78568
2.78299
2.78911
1
1.00002
1.00005
1.00015
1.00028
1.00089
1.00164
1.00483
1.01015
1.02614
1.07064
1.15604
1.48838
2.25235
2.63423
2.73068
2.72458
2.72178
2.737
2.75053
2.76497
2.77782
2.7836
2.78043
2.78637
1
1.00002
1.00005
1.00015
1.00027
1.00086
1.00159
1.00472
1.00984
1.02547
1.0683
1.15184
1.47009
2.22048
2.62379
2.72902
2.7228
2.71926
2.73442
2.74769
2.76228
2.77539
2.78061
2.77731
2.78253
1
1.00002
1.00004
1.00014
1.00026
1.00083
1.00153
1.00453
1.00937
1.02443
1.06482
1.14549
1.44263
2.17049
2.60714
2.72575
2.71909
2.7145
2.72983
2.74364
2.75632
2.76864
2.77577
2.772
2.77788
1
1.00002
1.00004
1.00014
1.00025
1.0008
1.00145
1.00445
1.00873
1.02381
1.05889
1.13708
1.40335
2.098
2.58331
2.7203
2.71374
2.7058
2.7204
2.7335
2.7494
2.76083
2.76688
2.76551
2.76832
1
1.00002
1.00004
1.00013
1.00023
1.00074
1.00135
1.00419
1.00801
1.02262
1.05251
1.12705
1.35925
2.00744
2.55054
2.71218
2.70545
2.69676
2.71322
2.72406
2.73605
2.7507
2.75546
2.75159
2.75819
1
1.00002
1.00004
1.00012
1.00021
1.00068
1.00123
1.00383
1.00729
1.02085
1.04666
1.11689
1.31462
1.91129
2.50409
2.69541
2.68607
2.67794
2.69582
2.71093
2.72249
2.73537
2.74398
2.73983
2.73822
1
1.00002
1.00003
1.00011
1.00019
1.00062
1.00112
1.00348
1.0066
1.01899
1.0421
1.10603
1.28345
1.81949
2.48868
2.68679
2.67716
2.66559
2.68113
2.69127
2.70565
2.71329
2.71787
2.71228
2.71402
1
1.00002
1.00003
1.00009
1.00017
1.00055
1.00099
1.00309
1.00588
1.01669
1.03816
1.09214
1.26034
1.69575
2.45255
2.67309
2.65844
2.65989
2.66532
2.67413
2.68337
2.69466
2.69651
2.68555
2.66036
1
1.00001
1.00002
1.00008
1.00014
1.00045
1.00085
1.00238
1.00525
1.01296
1.03542
1.0777
1.24079
1.59195
2.35704
2.64045
2.65416
2.65212
2.65181
2.65744
2.65745
2.65856
2.65281
2.63028
2.57838
1
1.00002
1.00005
1.00016
1.00028
1.0009
1.00166
1.00489
1.0103
1.02647
1.07175
1.15808
1.49686
2.26661
2.63817
2.73085
2.72491
2.72245
2.73779
2.75153
2.76627
2.7794
2.78568
2.78299
2.78911
1
1.00002
1.00005
1.00015
1.00028
1.00089
1.00164
1.00483
1.01015
1.02614
1.07064
1.15604
1.48838
2.25235
2.63423
2.73068
2.72458
2.72178
2.737
2.75053
2.76497
2.77782
2.7836
2.78043
2.78637
1
1.00002
1.00005
1.00015
1.00027
1.00086
1.00159
1.00472
1.00984
1.02547
1.0683
1.15184
1.47009
2.22048
2.62379
2.72902
2.7228
2.71926
2.73442
2.74769
2.76228
2.77539
2.78061
2.77731
2.78253
1
1.00002
1.00004
1.00014
1.00026
1.00083
1.00153
1.00453
1.00937
1.02443
1.06482
1.14549
1.44263
2.17049
2.60714
2.72575
2.71909
2.7145
2.72983
2.74364
2.75632
2.76864
2.77577
2.772
2.77788
1
1.00002
1.00004
1.00014
1.00025
1.0008
1.00145
1.00445
1.00873
1.02381
1.05889
1.13708
1.40335
2.098
2.58331
2.7203
2.71374
2.7058
2.7204
2.7335
2.7494
2.76083
2.76688
2.76551
2.76832
1
1.00002
1.00004
1.00013
1.00023
1.00074
1.00135
1.00419
1.00801
1.02262
1.05251
1.12705
1.35925
2.00744
2.55054
2.71218
2.70545
2.69676
2.71322
2.72406
2.73605
2.7507
2.75546
2.75159
2.75819
1
1.00002
1.00004
1.00012
1.00021
1.00068
1.00123
1.00383
1.00729
1.02085
1.04666
1.11689
1.31462
1.91129
2.50409
2.69541
2.68607
2.67795
2.69582
2.71093
2.72249
2.73537
2.74398
2.73983
2.73822
1
1.00002
1.00003
1.00011
1.00019
1.00062
1.00112
1.00348
1.0066
1.01899
1.0421
1.10603
1.28345
1.81949
2.48868
2.68679
2.67716
2.66559
2.68113
2.69127
2.70565
2.71329
2.71787
2.71228
2.71402
1
1.00002
1.00003
1.00009
1.00017
1.00055
1.00099
1.00309
1.00588
1.01669
1.03816
1.09214
1.26034
1.69575
2.45255
2.67309
2.65844
2.65989
2.66532
2.67413
2.68337
2.69466
2.69651
2.68555
2.66036
1
1.00001
1.00002
1.00008
1.00014
1.00045
1.00085
1.00238
1.00525
1.01296
1.03542
1.0777
1.24079
1.59195
2.35704
2.64045
2.65416
2.65212
2.65181
2.65744
2.65745
2.65856
2.65281
2.63028
2.57838
1
1.00002
1.00005
1.00016
1.00028
1.0009
1.00166
1.00489
1.0103
1.02647
1.07175
1.15808
1.49686
2.26661
2.63817
2.73085
2.72491
2.72245
2.73779
2.75153
2.76627
2.7794
2.78568
2.78299
2.78911
1
1.00002
1.00005
1.00015
1.00028
1.00089
1.00164
1.00483
1.01015
1.02614
1.07064
1.15604
1.48838
2.25235
2.63423
2.73068
2.72458
2.72178
2.737
2.75053
2.76497
2.77782
2.7836
2.78043
2.78637
1
1.00002
1.00005
1.00015
1.00027
1.00086
1.00159
1.00472
1.00984
1.02547
1.0683
1.15184
1.47009
2.22048
2.62379
2.72902
2.7228
2.71926
2.73442
2.7477
2.76228
2.77539
2.78061
2.77731
2.78253
1
1.00002
1.00004
1.00014
1.00026
1.00083
1.00153
1.00453
1.00937
1.02443
1.06482
1.14549
1.44263
2.17049
2.60714
2.72575
2.71909
2.7145
2.72983
2.74364
2.75632
2.76864
2.77577
2.772
2.77788
1
1.00002
1.00004
1.00014
1.00025
1.0008
1.00145
1.00445
1.00873
1.02381
1.05889
1.13708
1.40335
2.098
2.58331
2.7203
2.71374
2.7058
2.7204
2.7335
2.7494
2.76083
2.76688
2.76551
2.76832
1
1.00002
1.00004
1.00013
1.00023
1.00074
1.00135
1.00419
1.00801
1.02262
1.05251
1.12705
1.35925
2.00744
2.55054
2.71218
2.70545
2.69676
2.71322
2.72406
2.73605
2.7507
2.75546
2.75159
2.75819
1
1.00002
1.00004
1.00012
1.00021
1.00068
1.00123
1.00383
1.00729
1.02085
1.04666
1.11689
1.31462
1.91129
2.50409
2.69541
2.68607
2.67795
2.69582
2.71093
2.72249
2.73537
2.74398
2.73983
2.73822
1
1.00002
1.00003
1.00011
1.00019
1.00062
1.00112
1.00348
1.0066
1.01899
1.0421
1.10603
1.28345
1.81949
2.48868
2.68679
2.67716
2.66559
2.68113
2.69127
2.70565
2.71329
2.71787
2.71228
2.71402
1
1.00002
1.00003
1.00009
1.00017
1.00055
1.00099
1.00309
1.00588
1.01669
1.03816
1.09214
1.26034
1.69575
2.45255
2.67309
2.65844
2.65989
2.66532
2.67413
2.68337
2.69466
2.69651
2.68555
2.66036
1
1.00001
1.00002
1.00008
1.00014
1.00045
1.00085
1.00238
1.00525
1.01296
1.03542
1.0777
1.24079
1.59195
2.35704
2.64045
2.65416
2.65212
2.65181
2.65744
2.65745
2.65856
2.65281
2.63028
2.57838
1
1.00002
1.00005
1.00016
1.00028
1.0009
1.00166
1.00489
1.0103
1.02647
1.07175
1.15808
1.49686
2.26661
2.63817
2.73085
2.72491
2.72245
2.7378
2.75153
2.76627
2.7794
2.78568
2.78299
2.78911
1
1.00002
1.00005
1.00015
1.00028
1.00089
1.00164
1.00483
1.01015
1.02614
1.07064
1.15604
1.48838
2.25235
2.63423
2.73068
2.72458
2.72178
2.737
2.75053
2.76497
2.77782
2.7836
2.78043
2.78637
1
1.00002
1.00005
1.00015
1.00027
1.00086
1.00159
1.00472
1.00984
1.02547
1.0683
1.15184
1.47009
2.22048
2.62379
2.72902
2.7228
2.71926
2.73442
2.7477
2.76229
2.77539
2.78061
2.77731
2.78253
1
1.00002
1.00004
1.00014
1.00026
1.00083
1.00153
1.00453
1.00937
1.02443
1.06482
1.14549
1.44262
2.17048
2.60714
2.72575
2.71909
2.7145
2.72983
2.74364
2.75632
2.76864
2.77577
2.772
2.77788
1
1.00002
1.00004
1.00014
1.00025
1.0008
1.00145
1.00445
1.00873
1.02381
1.05889
1.13708
1.40335
2.098
2.58331
2.7203
2.71374
2.7058
2.7204
2.7335
2.7494
2.76083
2.76688
2.76551
2.76832
1
1.00002
1.00004
1.00013
1.00023
1.00074
1.00135
1.00419
1.00801
1.02262
1.05251
1.12705
1.35925
2.00744
2.55054
2.71218
2.70545
2.69676
2.71322
2.72406
2.73605
2.7507
2.75546
2.75159
2.75819
1
1.00002
1.00004
1.00012
1.00021
1.00068
1.00123
1.00383
1.00729
1.02085
1.04666
1.11689
1.31462
1.91129
2.50409
2.69541
2.68607
2.67795
2.69582
2.71093
2.72249
2.73537
2.74398
2.73983
2.73822
1
1.00002
1.00003
1.00011
1.00019
1.00062
1.00112
1.00348
1.0066
1.01899
1.0421
1.10603
1.28345
1.81949
2.48868
2.68679
2.67716
2.66559
2.68113
2.69127
2.70565
2.71329
2.71787
2.71228
2.71402
1
1.00002
1.00003
1.00009
1.00017
1.00055
1.00099
1.00309
1.00588
1.01669
1.03816
1.09214
1.26034
1.69575
2.45255
2.67309
2.65844
2.65989
2.66532
2.67413
2.68337
2.69466
2.69651
2.68555
2.66036
1
1.00001
1.00002
1.00008
1.00014
1.00045
1.00085
1.00238
1.00525
1.01296
1.03542
1.0777
1.24079
1.59195
2.35704
2.64045
2.65416
2.65212
2.65181
2.65744
2.65745
2.65856
2.65281
2.63028
2.57838
0.999995
1.00002
1.00004
1.00015
1.00028
1.00089
1.00166
1.00488
1.01029
1.02646
1.07174
1.15804
1.49684
2.26652
2.6381
2.73078
2.72485
2.72239
2.73772
2.75146
2.76621
2.77934
2.78559
2.7829
2.78903
0.999995
1.00002
1.00004
1.00015
1.00027
1.00088
1.00163
1.00482
1.01014
1.02612
1.07062
1.156
1.48836
2.25226
2.63416
2.73061
2.72451
2.72171
2.73693
2.75046
2.76491
2.77776
2.78352
2.78035
2.78628
0.999995
1.00002
1.00004
1.00014
1.00026
1.00086
1.00159
1.00471
1.00983
1.02545
1.06829
1.1518
1.47008
2.22039
2.62372
2.72895
2.72273
2.71919
2.73435
2.74763
2.76223
2.77533
2.78053
2.77722
2.78244
0.999995
1.00002
1.00004
1.00014
1.00025
1.00082
1.00152
1.00452
1.00936
1.02441
1.0648
1.14546
1.44261
2.1704
2.60707
2.72569
2.71902
2.71444
2.72976
2.74358
2.75626
2.76858
2.77569
2.77191
2.77779
0.999995
1.00001
1.00003
1.00013
1.00024
1.00079
1.00144
1.00444
1.00872
1.02378
1.0589
1.13705
1.40337
2.09795
2.58325
2.72023
2.71367
2.70573
2.72034
2.73344
2.74934
2.76078
2.7668
2.76542
2.76824
0.999995
1.00001
1.00003
1.00012
1.00022
1.00073
1.00134
1.00418
1.008
1.02261
1.0525
1.12702
1.35925
2.00738
2.55048
2.71211
2.70538
2.6967
2.71315
2.724
2.736
2.75065
2.75539
2.75151
2.75811
0.999995
1.00001
1.00003
1.00011
1.00021
1.00067
1.00122
1.00382
1.00728
1.02084
1.04665
1.11687
1.31461
1.91124
2.50403
2.69534
2.68601
2.67789
2.69577
2.71086
2.72244
2.73532
2.74391
2.73975
2.73814
0.999995
1.00001
1.00002
1.0001
1.00019
1.00061
1.00111
1.00347
1.00659
1.01898
1.04209
1.10601
1.28345
1.81944
2.48863
2.68672
2.6771
2.66553
2.68108
2.69121
2.7056
2.71324
2.7178
2.71221
2.71394
0.999995
1.00001
1.00002
1.00009
1.00016
1.00054
1.00098
1.00309
1.00587
1.01667
1.03815
1.09212
1.26035
1.69569
2.45251
2.67303
2.65838
2.65984
2.66526
2.67406
2.68332
2.69461
2.69645
2.68548
2.66029
0.999994
1.00001
1.00002
1.00007
1.00014
1.00044
1.00084
1.00237
1.00524
1.01295
1.03541
1.07767
1.24078
1.5919
2.35698
2.64039
2.65411
2.65206
2.65176
2.65738
2.6574
2.65851
2.65275
2.63021
2.57832
0.999996
1
1.00002
1.00005
1.00016
1.00031
1.00096
1.00186
1.00523
1.01164
1.02897
1.08068
1.17617
1.54578
2.32898
2.57831
2.63949
2.63472
2.63432
2.639
2.6382
2.63146
2.6118
2.55974
2.36124
0.999996
0.999999
1.00002
1.00004
1.00014
1.00026
1.00085
1.00158
1.00467
1.00977
1.02523
1.06764
1.1504
1.46272
2.19742
2.53187
2.63195
2.6236
2.6123
2.61013
2.60519
2.59006
2.55697
2.49378
2.29523
0.999995
0.999998
1.00001
1.00003
1.00012
1.00023
1.00074
1.00135
1.00421
1.00807
1.0227
1.05326
1.12722
1.3634
1.99931
2.45421
2.61543
2.60872
2.5997
2.59052
2.58232
2.56249
2.51866
2.45479
2.29551
0.999995
0.999997
1.00001
1.00003
1.0001
1.00019
1.00061
1.00111
1.00347
1.00656
1.01903
1.04112
1.10686
1.27049
1.80866
2.34652
2.57629
2.57393
2.57046
2.5591
2.54377
2.52222
2.47849
2.42805
2.30969
0.999994
0.999997
1.00001
1.00002
1.00008
1.00015
1.00048
1.00089
1.00273
1.00532
1.01454
1.03453
1.08187
1.22963
1.61088
2.27376
2.53775
2.55414
2.55209
2.54443
2.52461
2.49815
2.44118
2.39126
2.3079
0.999994
0.999997
1
1.00002
1.00004
1.00015
1.00029
1.00089
1.00172
1.00475
1.0108
1.02621
1.07391
1.15822
1.50265
2.20974
2.45214
2.51869
2.51214
2.50961
2.50016
2.48068
2.43313
2.3724
2.30107
0.999994
0.999996
0.999999
1.00002
1.00003
1.00013
1.00023
1.00076
1.00138
1.00429
1.00826
1.02284
1.05474
1.12867
1.37009
1.99949
2.38745
2.5051
2.49937
2.48735
2.46247
2.44287
2.41352
2.35947
2.29597
0.999993
0.999995
0.999997
1.00001
1.00002
1.00009
1.00018
1.00057
1.00106
1.00325
1.00625
1.01781
1.03891
1.10052
1.25167
1.75783
2.23476
2.46265
2.47148
2.4667
2.45055
2.42017
2.38892
2.34145
2.28381
0.999993
0.999993
0.999997
1
1.00002
1.00005
1.00017
1.00032
1.001
1.00191
1.00545
1.01171
1.02958
1.07974
1.17505
1.52245
2.19534
2.40482
2.43695
2.42846
2.42068
2.39872
2.37385
2.33372
2.28064
0.999992
0.999993
0.999995
0.999999
1.00002
1.00004
1.00013
1.00024
1.00077
1.00143
1.00422
1.00871
1.02265
1.05885
1.13303
1.3901
2.02501
2.33569
2.41786
2.4121
2.39437
2.36932
2.34042
2.31199
2.2705
0.999992
0.999992
0.999993
0.999998
1
1.00003
1.00007
1.00022
1.00042
1.00126
1.0025
1.00667
1.01578
1.0374
1.10529
1.2351
1.66802
2.17893
2.38346
2.38861
2.37997
2.35872
2.32657
2.29369
2.26028
0.999991
0.999992
0.999993
0.999996
1
1.00002
1.00005
1.00016
1.0003
1.00095
1.00178
1.00515
1.01087
1.02761
1.07372
1.16131
1.48071
2.0978
2.32209
2.35659
2.34943
2.33424
2.30666
2.27363
2.23954
0.999991
0.999992
0.999992
0.999994
1
1.00001
1.00004
1.00008
1.00027
1.00051
1.00146
1.00312
1.00784
1.02036
1.046
1.13441
1.30025
1.83714
2.21808
2.33249
2.33075
2.31954
2.29782
2.26575
2.23206
0.999991
0.999991
0.999992
0.999993
0.999997
1
1.00003
1.00006
1.0002
1.00036
1.00115
1.00212
1.00637
1.01269
1.0337
1.0823
1.19847
1.51116
2.10186
2.27136
2.29161
2.28735
2.27359
2.24836
2.21645
0.999991
0.999991
0.999991
0.999993
0.999994
1
1.00001
1.00005
1.0001
1.00032
1.00059
1.0018
1.00351
1.00949
1.02209
1.05244
1.14639
1.34065
1.85613
2.19599
2.27271
2.27082
2.26053
2.23975
2.20818
0.999991
0.999991
0.999991
0.999992
0.999993
0.999998
1
1.00003
1.00006
1.00022
1.0004
1.00125
1.0023
1.00687
1.01361
1.03637
1.08632
1.2143
1.52122
2.03488
2.22355
2.23751
2.23469
2.22145
2.19652
0.999991
0.999991
0.999991
0.999991
0.999993
0.999994
1
1.00001
1.00005
1.00011
1.00034
1.00064
1.00193
1.00372
1.0104
1.02279
1.05588
1.14567
1.36205
1.84491
2.14984
2.2156
2.21419
2.20424
2.18697
0.999991
0.999991
0.999991
0.999991
0.999992
0.999993
0.999998
1
1.00003
1.00007
1.00022
1.00041
1.00127
1.00236
1.00679
1.01415
1.03574
1.09319
1.20735
1.55606
1.98633
2.17186
2.18667
2.18379
2.16929
0.999991
0.999991
0.999991
0.999991
0.999991
0.999993
0.999994
1
1.00001
1.00005
1.00011
1.00034
1.00065
1.00192
1.00375
1.01037
1.02269
1.05632
1.14012
1.37153
1.80325
2.08457
2.15743
2.16187
2.15533
0.999991
0.999991
0.999991
0.999991
0.999991
0.999992
0.999994
0.999996
1.00001
1.00002
1.00009
1.00017
1.00052
1.00098
1.00288
1.00563
1.01538
1.03388
1.08447
1.20636
1.57308
1.93833
2.10947
2.1294
2.12852
0.999991
0.999991
0.999991
0.999991
0.999991
0.999991
0.999993
0.999994
1
1.00001
1.00005
1.0001
1.00033
1.00061
1.00187
1.0035
1.01007
1.02084
1.05306
1.12898
1.33084
1.74706
2.02936
2.10332
2.10725
0.999991
0.999991
0.999991
0.999991
0.999991
0.999991
0.999992
0.999994
0.999996
1.00001
1.00002
1.00008
1.00015
1.00048
1.0009
1.00263
1.00515
1.01406
1.03023
1.07752
1.18026
1.51607
1.86806
2.05685
2.07832
0.999991
0.999991
0.999991
0.999991
0.999991
0.999991
0.999991
0.999993
0.999994
1
1.00001
1.00005
1.00009
1.0003
1.00055
1.00169
1.00312
1.00909
1.01835
1.04717
1.1144
1.27995
1.67012
1.9627
2.05137
0.999991
0.999991
0.999991
0.999991
0.999991
0.999991
0.999991
0.999992
0.999993
0.999997
1
1.00002
1.00005
1.00018
1.00033
1.00101
1.00185
1.00549
1.01061
1.02848
1.06467
1.15607
1.38679
1.81793
1.99069
0.999991
0.999991
0.999991
0.999991
0.999991
0.999991
0.999991
0.999991
0.999992
0.999994
0.999997
1.00001
1.00003
1.0001
1.00019
1.0006
1.0011
1.00329
1.00627
1.01726
1.03803
1.09116
1.23414
1.61627
1.86982
0.999991
0.999991
0.999991
0.999991
0.999991
0.999991
0.999991
0.999991
0.999992
0.999992
0.999996
1
1.00002
1.00004
1.00014
1.00026
1.00079
1.00151
1.00422
1.0088
1.02206
1.05566
1.12194
1.33625
1.74718
0.999991
0.999991
0.999991
0.999991
0.999991
0.999991
0.999991
0.999991
0.999991
0.999992
0.999993
0.999997
1
1.00003
1.00006
1.00019
1.00036
1.00107
1.00205
1.00571
1.01185
1.02966
1.07052
1.16997
1.40263
0.999991
0.999991
0.999991
0.999991
0.999991
0.999991
0.999991
0.999991
0.999991
0.999991
0.999992
0.999994
1
1.00001
1.00004
1.00008
1.00026
1.0005
1.00147
1.0028
1.00781
1.01638
1.04069
1.09819
1.23917
0.999991
0.999991
0.999991
0.999991
0.999991
0.999991
0.999991
0.999991
0.999991
0.999991
0.999992
0.999992
0.999996
1
1.00002
1.00004
1.00015
1.00028
1.00085
1.00156
1.00458
1.00881
1.02366
1.05327
1.12484
0.999991
0.999991
0.999991
0.999991
0.999991
0.999991
0.999991
0.999991
0.999991
0.999991
0.999991
0.999992
0.999993
0.999997
1
1.00003
1.00006
1.00019
1.00036
1.00105
1.00202
1.00555
1.01142
1.0288
1.06576
0.999991
0.999991
0.999991
0.999991
0.999991
0.999991
0.999991
0.999991
0.999991
0.999991
0.999991
0.999991
0.999992
0.999994
0.999999
1.00001
1.00004
1.00008
1.00025
1.00048
1.00138
1.00267
1.00722
1.01531
1.03734
0.999991
0.999991
0.999991
0.999991
0.999991
0.999991
0.999991
0.999991
0.999991
0.999991
0.999991
0.999991
0.999991
0.999993
0.999995
1
1.00001
1.00005
1.0001
1.00032
1.00061
1.00176
1.00343
1.00934
1.01928
0.999991
0.999991
0.999991
0.999991
0.999991
0.999991
0.999991
0.999991
0.999991
0.999991
0.999991
0.999991
0.999991
0.999992
0.999993
0.999997
1
1.00002
1.00005
1.00017
1.00032
1.00096
1.00179
1.00505
1.00996
0.999991
0.999991
0.999991
0.999991
0.999991
0.999991
0.999991
0.999991
0.999991
0.999991
0.999991
0.999991
0.999991
0.999991
0.999992
0.999993
0.999998
1
1.00003
1.00007
1.00021
1.0004
1.00116
1.00222
1.00611
0.999991
0.999991
0.999991
0.999991
0.999991
0.999991
0.999991
0.999991
0.999991
0.999991
0.999991
0.999991
0.999991
0.999991
0.999991
0.999992
0.999994
1
1.00001
1.00004
1.00009
1.00026
1.0005
1.00143
1.00278
0.999991
0.999991
0.999991
0.999991
0.999991
0.999991
0.999991
0.999991
0.999991
0.999991
0.999991
0.999991
0.999991
0.999991
0.999991
0.999991
0.999993
0.999995
1
1.00001
1.00005
1.00011
1.00032
1.00062
1.00176
0.999991
0.999991
0.999991
0.999991
0.999991
0.999991
0.999991
0.999991
0.999991
0.999991
0.999991
0.999991
0.999991
0.999991
0.999991
0.999991
0.999992
0.999993
0.999996
1.00001
1.00002
1.00007
1.00014
1.00041
1.00077
0.999991
0.999991
0.999991
0.999991
0.999991
0.999991
0.999991
0.999991
0.999991
0.999991
0.999991
0.999991
0.999991
0.999991
0.999991
0.999991
0.999991
0.999992
0.999994
0.999999
1.00001
1.00004
1.00007
1.00024
1.00044
0.999991
0.999991
0.999991
0.999991
0.999991
0.999991
0.999991
0.999991
0.999991
0.999991
0.999991
0.999991
0.999991
0.999991
0.999991
0.999991
0.999991
0.999991
0.999993
0.999995
1
1.00001
1.00006
1.00012
1.00039
0.999991
0.999991
0.999991
0.999991
0.999991
0.999991
0.999991
0.999991
0.999991
0.999991
0.999991
0.999991
0.999991
0.999991
0.999991
0.999991
0.999991
0.999991
0.999993
0.999994
1
1.00001
1.00005
1.0001
1.00034
1
1.00001
1.00003
1.00005
1.00017
1.00032
1.00097
1.00186
1.00525
1.01165
1.02899
1.08069
1.1762
1.5458
2.32906
2.57837
2.63954
2.63477
2.63437
2.63905
2.63825
2.6315
2.61185
2.5598
2.36129
1
1.00001
1.00003
1.00005
1.00015
1.00027
1.00086
1.00159
1.00468
1.00977
1.02525
1.06765
1.15043
1.46273
2.1975
2.53193
2.632
2.62365
2.61235
2.61018
2.60524
2.5901
2.557
2.49382
2.29527
1
1.00001
1.00002
1.00004
1.00013
1.00024
1.00075
1.00136
1.00422
1.00808
1.02272
1.05326
1.12725
1.3634
1.99937
2.45427
2.61549
2.60878
2.59975
2.59056
2.58237
2.56253
2.51869
2.45482
2.29554
1
1.00001
1.00002
1.00003
1.00011
1.0002
1.00062
1.00112
1.00348
1.00657
1.01904
1.04113
1.10688
1.27051
1.80871
2.34657
2.57635
2.57398
2.57051
2.55914
2.54381
2.52226
2.47853
2.42809
2.30972
1
1
1.00001
1.00003
1.00009
1.00016
1.00049
1.0009
1.00274
1.00533
1.01456
1.03453
1.08189
1.22962
1.61092
2.27381
2.5378
2.55419
2.55215
2.54448
2.52465
2.49819
2.44121
2.3913
2.30793
1
1
1.00001
1.00003
1.00005
1.00016
1.0003
1.0009
1.00173
1.00477
1.01081
1.02623
1.07393
1.15825
1.50266
2.20981
2.45219
2.51874
2.51219
2.50965
2.50021
2.48072
2.43316
2.37241
2.30109
1
1
1.00001
1.00002
1.00004
1.00013
1.00024
1.00077
1.00139
1.0043
1.00827
1.02286
1.05474
1.1287
1.37007
1.99953
2.3875
2.50515
2.49942
2.48739
2.46251
2.44291
2.41356
2.35951
2.296
1
1
1.00001
1.00002
1.00003
1.0001
1.00019
1.00058
1.00107
1.00326
1.00626
1.01782
1.03892
1.10054
1.25167
1.75787
2.2348
2.4627
2.47153
2.46675
2.4506
2.42021
2.38894
2.34147
2.28383
1
1
1.00001
1.00001
1.00003
1.00006
1.00018
1.00033
1.00101
1.00192
1.00546
1.01172
1.02959
1.07975
1.17508
1.52247
2.19541
2.40486
2.43699
2.42849
2.42072
2.39878
2.37389
2.33374
2.28066
1