/*--------------------------------*- C++ -*----------------------------------*\
| =========                 |                                                 |
| \\      /  F ield         | OpenFOAM: The Open Source CFD Toolbox           |
|  \\    /   O peration     | Version:  4.1                                   |
|   \\  /    A nd           | Web:      www.OpenFOAM.org                      |
|    \\/     M anipulation  |                                                 |
\*---------------------------------------------------------------------------*/
FoamFile
{
    version     2.0;
    format      ascii;
    class       volVectorField;
    location    "2.52";
    object      U;
}
// * * * * * * * * * * * * * * * * * * * * * * * * * * * * * * * * * * * * * //

dimensions      [0 1 -1 0 0 0 0];

internalField   nonuniform List<vector> 
52500
(
(3 1.32029e-08 -0.00571425)
(2.99998 7.31199e-08 -0.00571438)
(2.99996 2.72973e-07 -0.00571458)
(2.9999 6.98167e-07 -0.0057152)
(2.99977 1.93616e-06 -0.00571633)
(2.99939 4.4064e-06 -0.00571976)
(2.99868 1.17715e-05 -0.00572652)
(2.99638 2.53628e-05 -0.00574443)
(2.99246 7.27952e-05 -0.00578997)
(2.97733 0.000148525 -0.00587732)
(2.95122 0.000469545 -0.00622791)
(2.84963 0.000996162 -0.00669758)
(2.57994 0.00367469 -0.00913477)
(1.91915 0.00875242 -0.0136667)
(0.862841 0.0250744 -0.0175093)
(0.455244 0.0237812 -0.0185019)
(0.540843 0.0243688 -0.0185154)
(0.565435 0.0265143 -0.0185623)
(0.511802 0.02867 -0.0187552)
(0.420548 0.03085 -0.0189527)
(0.333073 0.0334002 -0.0191627)
(0.261737 0.0362239 -0.0193641)
(0.189883 0.0386295 -0.0195241)
(0.110947 0.0404721 -0.0196267)
(0.0485597 0.0428764 -0.0197945)
(3 3.94396e-08 -0.00571425)
(2.99998 2.17974e-07 -0.00571438)
(2.99996 8.14915e-07 -0.00571458)
(2.9999 2.08153e-06 -0.00571518)
(2.99977 5.78498e-06 -0.0057163)
(2.9994 1.31527e-05 -0.00571968)
(2.99869 3.53005e-05 -0.00572634)
(2.99643 7.57794e-05 -0.00574404)
(2.99256 0.000220155 -0.0057888)
(2.97766 0.000446773 -0.0058751)
(2.95194 0.00143438 -0.00621968)
(2.85206 0.0030412 -0.00668345)
(2.58716 0.0113821 -0.00907261)
(1.93541 0.0272199 -0.0135487)
(0.872252 0.0766233 -0.0173827)
(0.451727 0.068947 -0.0184211)
(0.540317 0.0674646 -0.0184345)
(0.565937 0.0711747 -0.0184722)
(0.511941 0.0747916 -0.0186573)
(0.420752 0.0784139 -0.0188467)
(0.3336 0.0823884 -0.019048)
(0.262271 0.086441 -0.0192405)
(0.190124 0.0892933 -0.0193914)
(0.110355 0.0905335 -0.0194875)
(0.0468694 0.0905738 -0.0196514)
(3 6.46447e-08 -0.00571425)
(2.99999 3.56695e-07 -0.00571438)
(2.99996 1.33697e-06 -0.00571457)
(2.9999 3.41588e-06 -0.00571516)
(2.99978 9.53126e-06 -0.00571624)
(2.99942 2.17084e-05 -0.00571953)
(2.99873 5.85295e-05 -0.00572599)
(2.99654 0.00012619 -0.00574327)
(2.99277 0.000367548 -0.00578644)
(2.97833 0.000749156 -0.0058708)
(2.95344 0.00241961 -0.00620289)
(2.8572 0.00512241 -0.00665548)
(2.60269 0.0192648 -0.00894468)
(1.97163 0.0463245 -0.0133125)
(0.894941 0.131866 -0.0171908)
(0.448341 0.117126 -0.0183244)
(0.542883 0.113342 -0.0183385)
(0.57101 0.119696 -0.0183643)
(0.516868 0.126341 -0.0185418)
(0.426174 0.13362 -0.0187215)
(0.339572 0.140982 -0.0189164)
(0.268143 0.148139 -0.0191035)
(0.195217 0.153652 -0.0192449)
(0.113805 0.156602 -0.0193374)
(0.0477541 0.15648 -0.019498)
(3 8.05087e-08 -0.00571425)
(2.99999 4.44335e-07 -0.00571437)
(2.99996 1.65946e-06 -0.00571455)
(2.99991 4.21738e-06 -0.00571512)
(2.99979 1.17274e-05 -0.00571616)
(2.99944 2.63886e-05 -0.00571931)
(2.99878 7.26367e-05 -0.00572547)
(2.99669 0.000145213 -0.00574209)
(2.99308 0.000487602 -0.00578298)
(2.97934 0.000827598 -0.00586421)
(2.95568 0.0034928 -0.00617792)
(2.86492 0.00670762 -0.00661401)
(2.62602 0.0268997 -0.00875532)
(2.02707 0.0642627 -0.0129594)
(0.930407 0.185711 -0.0169371)
(0.445373 0.165523 -0.0182121)
(0.548804 0.158909 -0.0182236)
(0.581255 0.167635 -0.0182348)
(0.527534 0.177337 -0.0184064)
(0.437829 0.188647 -0.0185802)
(0.351715 0.199716 -0.0187539)
(0.279897 0.210561 -0.0189284)
(0.205516 0.219702 -0.0190765)
(0.121041 0.225501 -0.0191635)
(0.0505547 0.226144 -0.0193321)
(3 9.94838e-08 -0.00571425)
(2.99999 5.49724e-07 -0.00571437)
(2.99997 2.0481e-06 -0.00571454)
(2.99991 5.21593e-06 -0.00571508)
(2.9998 1.44422e-05 -0.00571607)
(2.99947 3.25679e-05 -0.00571911)
(2.99883 8.89301e-05 -0.00572489)
(2.99688 0.00017811 -0.00574152)
(2.99334 0.00060212 -0.00577819)
(2.98079 0.000938138 -0.00586081)
(2.95846 0.00442299 -0.00613554)
(2.87512 0.00806451 -0.00656361)
(2.65754 0.0329179 -0.00848467)
(2.10239 0.0787525 -0.0124697)
(0.983937 0.233217 -0.0166112)
(0.451151 0.214426 -0.0180729)
(0.561994 0.205642 -0.0180843)
(0.599125 0.215472 -0.018068)
(0.54575 0.227457 -0.0182297)
(0.45697 0.242816 -0.0183903)
(0.370765 0.257922 -0.0185761)
(0.298121 0.273069 -0.0187355)
(0.221654 0.286952 -0.0188693)
(0.1326 0.297072 -0.018969)
(0.0556386 0.29974 -0.0191205)
(3 1.25389e-07 -0.00571425)
(2.99999 6.92887e-07 -0.00571436)
(2.99997 2.58647e-06 -0.00571452)
(2.99992 6.63047e-06 -0.00571502)
(2.99981 1.83671e-05 -0.00571595)
(2.99951 4.19835e-05 -0.00571878)
(2.9989 0.000111493 -0.00572414)
(2.99712 0.000242334 -0.00573987)
(2.99372 0.00069901 -0.00577285)
(2.98247 0.00131568 -0.00585375)
(2.96177 0.0048314 -0.00608984)
(2.88691 0.0092181 -0.00650224)
(2.69362 0.0355894 -0.00818284)
(2.19256 0.0864315 -0.0118778)
(1.0569 0.264918 -0.0162159)
(0.473898 0.26256 -0.0178971)
(0.584921 0.256455 -0.0179059)
(0.625535 0.26584 -0.0178846)
(0.572956 0.278689 -0.0180555)
(0.485411 0.297582 -0.0181925)
(0.398627 0.317319 -0.0183438)
(0.324453 0.337823 -0.0185143)
(0.245123 0.357992 -0.0186301)
(0.149899 0.374947 -0.0187076)
(0.0635574 0.38249 -0.0188868)
(3 1.394e-07 -0.00571425)
(2.99999 7.70184e-07 -0.00571435)
(2.99997 2.87027e-06 -0.0057145)
(2.99992 7.36134e-06 -0.00571496)
(2.99983 2.03128e-05 -0.0057158)
(2.99955 4.64706e-05 -0.00571839)
(2.99899 0.000121684 -0.00572329)
(2.99737 0.000270106 -0.00573766)
(2.99424 0.000721991 -0.00576749)
(2.98419 0.00153192 -0.00584264)
(2.96519 0.00462222 -0.00604848)
(2.89909 0.00952374 -0.00643901)
(2.73037 0.0328123 -0.00788091)
(2.28927 0.0801768 -0.0112619)
(1.15292 0.245429 -0.0157568)
(0.526776 0.297296 -0.0176381)
(0.621282 0.308697 -0.0176254)
(0.659818 0.317362 -0.017623)
(0.608533 0.330779 -0.0178037)
(0.523347 0.353457 -0.0179586)
(0.436121 0.378856 -0.0180962)
(0.360246 0.406204 -0.0182432)
(0.277854 0.4349 -0.0183714)
(0.175555 0.462361 -0.0184348)
(0.0766952 0.480192 -0.0185578)
(3 1.48684e-07 -0.00571425)
(2.99999 8.2069e-07 -0.00571434)
(2.99997 3.05176e-06 -0.00571447)
(2.99993 7.81933e-06 -0.00571489)
(2.99984 2.15087e-05 -0.00571566)
(2.99959 4.91328e-05 -0.005718)
(2.99909 0.000127891 -0.00572244)
(2.99762 0.000284679 -0.0057355)
(2.99477 0.00073881 -0.00576245)
(2.98569 0.00164633 -0.00583106)
(2.96854 0.00432251 -0.00601629)
(2.90906 0.0101314 -0.00637139)
(2.75857 0.0289424 -0.0076726)
(2.35719 0.0717877 -0.0107177)
(1.24593 0.208305 -0.0156368)
(0.570751 0.336599 -0.0174917)
(0.638817 0.370531 -0.0174474)
(0.677569 0.369651 -0.0174314)
(0.637698 0.382471 -0.01758)
(0.562283 0.40906 -0.0176868)
(0.479079 0.441787 -0.0178222)
(0.404299 0.477905 -0.0179164)
(0.321421 0.518052 -0.0179978)
(0.213533 0.562104 -0.0180295)
(0.0983041 0.601979 -0.0181549)
(3 1.77025e-07 -0.00571425)
(2.99999 9.69382e-07 -0.00571432)
(2.99998 3.61065e-06 -0.00571444)
(2.99994 9.29142e-06 -0.00571482)
(2.99986 2.56272e-05 -0.0057155)
(2.99964 5.92496e-05 -0.00571758)
(2.99919 0.000151725 -0.00572151)
(2.99788 0.000358415 -0.00573312)
(2.99538 0.000823817 -0.00575718)
(2.98715 0.00212348 -0.00581673)
(2.97237 0.00446224 -0.0059879)
(2.9186 0.011531 -0.0062835)
(2.78544 0.0280577 -0.00751238)
(2.42346 0.0724904 -0.00999977)
(1.36911 0.203342 -0.0153212)
(0.650928 0.38861 -0.0172853)
(0.648634 0.421677 -0.0172275)
(0.676871 0.417283 -0.0172862)
(0.658836 0.432804 -0.0173606)
(0.599449 0.461989 -0.0174425)
(0.52558 0.503663 -0.017518)
(0.456046 0.550818 -0.017604)
(0.378267 0.605726 -0.0176313)
(0.27264 0.676103 -0.0175799)
(0.137795 0.763076 -0.0174811)
(3 2.66309e-07 -0.00571424)
(2.99999 4.65161e-07 -0.00571431)
(2.99998 3.873e-06 -0.00571441)
(2.99995 5.69398e-06 -0.00571472)
(2.99988 2.61933e-05 -0.00571529)
(2.99969 3.66959e-05 -0.00571696)
(2.99934 0.000156545 -0.00572039)
(2.99818 0.000203519 -0.00572882)
(2.99625 0.000954158 -0.0057523)
(2.98871 0.000922064 -0.00579332)
(2.97649 0.0064008 -0.00596738)
(2.92788 0.00382229 -0.0061905)
(2.81238 0.0410786 -0.00737441)
(2.49011 0.0524851 -0.00937677)
(1.51605 0.220923 -0.0146467)
(0.752867 0.442159 -0.0169049)
(0.658046 0.455832 -0.01713)
(0.683268 0.455978 -0.0171564)
(0.679742 0.47737 -0.0171639)
(0.636467 0.510499 -0.0172058)
(0.576912 0.560436 -0.0171927)
(0.517268 0.619632 -0.0171757)
(0.454639 0.696405 -0.0171041)
(0.370376 0.812857 -0.0169007)
(0.211853 1.02058 -0.0164803)
(3 1.34811e-08 -2.51747e-09)
(2.99998 7.33693e-08 -8.6656e-09)
(2.99996 2.73066e-07 -1.00127e-08)
(2.9999 6.99523e-07 -1.61303e-08)
(2.99977 1.93617e-06 -1.58227e-08)
(2.99939 4.40877e-06 -2.16386e-08)
(2.99867 1.17748e-05 -2.14002e-08)
(2.99638 2.53741e-05 -2.92909e-08)
(2.99246 7.28104e-05 -2.88649e-08)
(2.97733 0.000148574 -5.30963e-08)
(2.95121 0.000469621 -5.52696e-08)
(2.84962 0.000996353 -1.28439e-07)
(2.57992 0.00367488 -8.76377e-08)
(1.91909 0.00875306 -3.91978e-07)
(0.862831 0.025075 -3.70428e-07)
(0.455268 0.023782 2.99135e-08)
(0.540854 0.0243696 -2.81501e-08)
(0.565441 0.0265151 -6.04662e-08)
(0.511807 0.0286705 -6.07249e-08)
(0.420553 0.03085 -5.98573e-08)
(0.333079 0.0333996 -6.9254e-08)
(0.261745 0.0362231 -7.81969e-08)
(0.189892 0.0386298 -8.32253e-08)
(0.110953 0.0404743 -8.98562e-08)
(0.048561 0.0428788 -9.52048e-08)
(3 4.01909e-08 -2.51191e-09)
(2.99998 2.18822e-07 -8.66545e-09)
(2.99996 8.14851e-07 -1.00162e-08)
(2.9999 2.08612e-06 -1.61061e-08)
(2.99977 5.78383e-06 -1.58448e-08)
(2.9994 1.31594e-05 -2.15977e-08)
(2.99869 3.53081e-05 -2.13764e-08)
(2.99643 7.58093e-05 -2.91411e-08)
(2.99256 0.00022019 -2.87812e-08)
(2.97765 0.000446901 -5.24636e-08)
(2.95193 0.00143458 -5.47221e-08)
(2.85205 0.00304172 -1.26426e-07)
(2.58714 0.0113827 -8.72819e-08)
(1.93535 0.027222 -3.86235e-07)
(0.872241 0.0766256 -3.71229e-07)
(0.45175 0.0689486 2.92375e-08)
(0.540326 0.0674658 -2.8456e-08)
(0.565941 0.0711754 -6.08368e-08)
(0.511945 0.0747917 -6.09136e-08)
(0.420756 0.0784135 -5.96103e-08)
(0.333604 0.0823873 -6.87115e-08)
(0.262277 0.0864397 -7.75101e-08)
(0.190131 0.0892937 -8.27776e-08)
(0.110359 0.0905369 -8.95838e-08)
(0.0468707 0.0905786 -9.48184e-08)
(3 6.58784e-08 -2.50245e-09)
(2.99998 3.58153e-07 -8.66178e-09)
(2.99996 1.33713e-06 -1.00311e-08)
(2.9999 3.42333e-06 -1.60417e-08)
(2.99978 9.53091e-06 -1.59184e-08)
(2.99942 2.17215e-05 -2.15069e-08)
(2.99873 5.85487e-05 -2.13645e-08)
(2.99653 0.000126258 -2.88718e-08)
(2.99277 0.000367639 -2.87311e-08)
(2.97832 0.000749477 -5.13908e-08)
(2.95343 0.00242015 -5.38594e-08)
(2.85719 0.00512362 -1.22789e-07)
(2.60267 0.0192663 -8.54592e-08)
(1.97157 0.0463287 -3.72425e-07)
(0.894929 0.131871 -3.71365e-07)
(0.448358 0.117127 2.77039e-08)
(0.542887 0.113343 -2.82285e-08)
(0.571009 0.119697 -6.10531e-08)
(0.516869 0.126342 -6.09574e-08)
(0.426175 0.133619 -5.91233e-08)
(0.339574 0.14098 -6.81707e-08)
(0.268147 0.148136 -7.75288e-08)
(0.195223 0.153652 -8.3005e-08)
(0.113808 0.156607 -8.97334e-08)
(0.0477552 0.156488 -9.45623e-08)
(3 8.14684e-08 -2.48723e-09)
(2.99998 4.46773e-07 -8.65791e-09)
(2.99996 1.65744e-06 -1.0042e-08)
(2.9999 4.22396e-06 -1.59675e-08)
(2.99979 1.17175e-05 -1.59717e-08)
(2.99944 2.63825e-05 -2.1364e-08)
(2.99878 7.26076e-05 -2.123e-08)
(2.99669 0.000145079 -2.82083e-08)
(2.99308 0.000487627 -2.82655e-08)
(2.97933 0.000826172 -4.8174e-08)
(2.95567 0.00349517 -5.04758e-08)
(2.86491 0.00670625 -1.14442e-07)
(2.626 0.0269069 -8.03644e-08)
(2.02702 0.0642741 -3.5133e-07)
(0.930387 0.185729 -3.80593e-07)
(0.44538 0.16553 1.36791e-08)
(0.548806 0.15891 -3.34082e-08)
(0.581257 0.167635 -5.9249e-08)
(0.527539 0.177336 -5.90522e-08)
(0.437836 0.188646 -5.75881e-08)
(0.351722 0.199713 -6.88543e-08)
(0.279905 0.210557 -7.94618e-08)
(0.205524 0.219702 -8.42408e-08)
(0.121045 0.225508 -9.02574e-08)
(0.0505559 0.226154 -9.44854e-08)
(3 1.00771e-07 -2.48331e-09)
(2.99999 5.52936e-07 -8.62979e-09)
(2.99997 2.04888e-06 -1.01129e-08)
(2.99991 5.22583e-06 -1.58855e-08)
(2.99979 1.44503e-05 -1.62044e-08)
(2.99947 3.25988e-05 -2.14747e-08)
(2.99883 8.89865e-05 -2.17725e-08)
(2.99688 0.000178265 -3.09157e-08)
(2.99334 0.000602359 -2.58356e-08)
(2.98078 0.000938479 -7.88439e-08)
(2.95845 0.00442483 1.18011e-08)
(2.87511 0.00806575 -1.81203e-07)
(2.65754 0.0329222 3.24528e-08)
(2.10236 0.0787623 -3.01799e-07)
(0.983951 0.233236 -3.14526e-07)
(0.451186 0.214433 -1.92572e-08)
(0.562016 0.205642 -6.07434e-08)
(0.599145 0.215471 -6.42898e-08)
(0.54577 0.227455 -6.0027e-08)
(0.456989 0.242814 -5.58094e-08)
(0.37078 0.257918 -7.08974e-08)
(0.298134 0.273067 -8.25056e-08)
(0.221664 0.286954 -8.63379e-08)
(0.132605 0.297081 -9.06845e-08)
(0.0556398 0.299753 -9.39624e-08)
(3 1.27804e-07 -2.46147e-09)
(2.99999 6.95458e-07 -8.61652e-09)
(2.99997 2.59138e-06 -1.00841e-08)
(2.99991 6.6406e-06 -1.57999e-08)
(2.99981 1.83914e-05 -1.59801e-08)
(2.9995 4.20392e-05 -2.0942e-08)
(2.9989 0.000111617 -2.06933e-08)
(2.99712 0.00024272 -2.62986e-08)
(2.99372 0.000699358 -2.64775e-08)
(2.98247 0.00131824 -4.63517e-08)
(2.96176 0.00483124 -2.20684e-08)
(2.88691 0.00922308 -1.21868e-07)
(2.69361 0.0355882 -2.11962e-08)
(2.19253 0.0864367 -2.58918e-07)
(1.0569 0.264934 -2.92208e-07)
(0.473919 0.262562 -4.42887e-08)
(0.58494 0.256453 -6.84091e-08)
(0.625557 0.26584 -6.08016e-08)
(0.572979 0.278688 -5.71133e-08)
(0.485433 0.297581 -5.34781e-08)
(0.398644 0.317317 -7.08393e-08)
(0.324467 0.337823 -8.1104e-08)
(0.245134 0.357997 -8.42202e-08)
(0.149904 0.37496 -8.7016e-08)
(0.0635582 0.382506 -9.03003e-08)
(3 1.41919e-07 -2.43494e-09)
(2.99999 7.71754e-07 -8.62054e-09)
(2.99997 2.87277e-06 -1.00705e-08)
(2.99992 7.36463e-06 -1.57833e-08)
(2.99982 2.03192e-05 -1.59248e-08)
(2.99955 4.64823e-05 -2.08497e-08)
(2.99899 0.000121712 -2.04316e-08)
(2.99737 0.000270165 -2.5791e-08)
(2.99424 0.000722079 -2.61884e-08)
(2.98419 0.00153255 -3.68191e-08)
(2.96518 0.00462224 -3.24336e-08)
(2.89909 0.00952552 -9.58346e-08)
(2.73036 0.0328124 -3.62937e-08)
(2.28925 0.0801806 -2.15083e-07)
(1.15292 0.245442 -2.04325e-07)
(0.526783 0.297292 -1.04234e-07)
(0.621298 0.308693 -7.66443e-08)
(0.659838 0.31736 -5.28962e-08)
(0.608555 0.33078 -5.13974e-08)
(0.523367 0.353457 -5.07797e-08)
(0.436137 0.378857 -6.79675e-08)
(0.360259 0.406206 -7.82116e-08)
(0.277864 0.434908 -8.05388e-08)
(0.17556 0.462376 -8.11442e-08)
(0.0766954 0.48021 -8.2522e-08)
(3 1.50882e-07 -2.41106e-09)
(2.99999 8.21981e-07 -8.62788e-09)
(2.99997 3.05268e-06 -1.00716e-08)
(2.99993 7.81997e-06 -1.57845e-08)
(2.99984 2.15075e-05 -1.5919e-08)
(2.99959 4.9128e-05 -2.0834e-08)
(2.99909 0.000127875 -2.03808e-08)
(2.99761 0.000284638 -2.5644e-08)
(2.99477 0.00073874 -2.59176e-08)
(2.98569 0.00164599 -3.58998e-08)
(2.96854 0.00432249 -3.17416e-08)
(2.90906 0.0101306 -9.21392e-08)
(2.75856 0.0289429 -3.48061e-08)
(2.35717 0.0717888 -2.00726e-07)
(1.24591 0.20831 -2.10945e-07)
(0.570745 0.336593 -1.59447e-07)
(0.638829 0.370528 -8.03395e-08)
(0.677587 0.36965 -4.47472e-08)
(0.637716 0.382471 -4.55403e-08)
(0.562299 0.409061 -4.8853e-08)
(0.47909 0.44179 -6.27374e-08)
(0.404309 0.47791 -7.18457e-08)
(0.321429 0.518063 -7.19165e-08)
(0.213536 0.562121 -7.24882e-08)
(0.0983036 0.601999 -7.22845e-08)
(3 1.77121e-07 -2.39088e-09)
(2.99999 9.67836e-07 -8.63064e-09)
(2.99998 3.60583e-06 -1.00816e-08)
(2.99994 9.26167e-06 -1.57898e-08)
(2.99986 2.56098e-05 -1.59539e-08)
(2.99963 5.91877e-05 -2.09084e-08)
(2.99919 0.000151647 -2.06138e-08)
(2.99788 0.000358237 -2.62142e-08)
(2.99537 0.000823639 -2.65572e-08)
(2.98715 0.00212297 -4.15836e-08)
(2.97236 0.00446134 -2.59514e-08)
(2.91859 0.0115307 -1.08684e-07)
(2.78544 0.0280575 -1.18367e-08)
(2.42345 0.0724884 -2.06038e-07)
(1.36911 0.203345 -1.83004e-07)
(0.650925 0.388604 -1.94367e-07)
(0.648649 0.421677 -5.52697e-08)
(0.676887 0.417284 -4.19204e-08)
(0.658851 0.432806 -4.39273e-08)
(0.599463 0.461992 -4.75938e-08)
(0.52559 0.503667 -5.7272e-08)
(0.456054 0.550826 -6.39835e-08)
(0.378273 0.605739 -6.35574e-08)
(0.272643 0.676121 -6.2334e-08)
(0.137794 0.763097 -5.9493e-08)
(3 2.52149e-07 -2.40911e-09)
(2.99999 5.21784e-07 -8.6573e-09)
(2.99998 3.76737e-06 -1.01366e-08)
(2.99995 5.7348e-06 -1.62746e-08)
(2.99988 2.60645e-05 -1.57476e-08)
(2.99969 3.67385e-05 -2.16325e-08)
(2.99934 0.000156422 -2.07804e-08)
(2.99817 0.000203597 -2.7567e-08)
(2.99625 0.000953997 -2.60843e-08)
(2.9887 0.000922648 -4.22795e-08)
(2.97648 0.00639983 -3.99989e-08)
(2.92788 0.00382475 -8.4162e-08)
(2.81237 0.041074 -2.29179e-08)
(2.49009 0.0524897 -2.32617e-07)
(1.51604 0.220916 -1.48932e-07)
(0.752856 0.442153 -2.27417e-07)
(0.65806 0.455831 -4.0011e-08)
(0.683283 0.45598 -3.40693e-08)
(0.679756 0.477373 -4.29567e-08)
(0.636478 0.510503 -4.58172e-08)
(0.576922 0.560442 -5.28673e-08)
(0.517275 0.619641 -5.56146e-08)
(0.454645 0.696418 -5.55736e-08)
(0.37038 0.812876 -5.16018e-08)
(0.211853 1.0206 -4.68881e-08)
(3 1.34811e-08 -3.30333e-13)
(2.99998 7.33693e-08 -1.80219e-12)
(2.99996 2.73066e-07 -3.66967e-12)
(2.9999 6.99523e-07 -7.74485e-12)
(2.99977 1.93617e-06 -1.23296e-11)
(2.99939 4.40877e-06 -2.2362e-11)
(2.99867 1.17748e-05 -3.93205e-11)
(2.99638 2.5374e-05 -6.74864e-11)
(2.99246 7.28103e-05 -1.64828e-10)
(2.97733 0.000148574 -2.64422e-10)
(2.95121 0.000469621 -8.62863e-10)
(2.84962 0.000996353 -1.47149e-09)
(2.57992 0.00367488 -5.24023e-09)
(1.91909 0.00875306 -1.08024e-08)
(0.862829 0.025075 -1.50399e-08)
(0.455269 0.0237819 2.74943e-09)
(0.540854 0.0243696 7.93085e-11)
(0.565441 0.0265151 -1.02037e-09)
(0.511808 0.0286705 -8.09315e-10)
(0.420554 0.03085 -4.98925e-10)
(0.333079 0.0333995 -8.79516e-10)
(0.261745 0.0362231 -1.37813e-09)
(0.189892 0.0386299 -1.68856e-09)
(0.110953 0.0404744 -2.02923e-09)
(0.0485612 0.0428789 -2.28556e-09)
(3 4.0191e-08 -3.30345e-13)
(2.99998 2.18822e-07 -1.80252e-12)
(2.99996 8.14851e-07 -3.67187e-12)
(2.9999 2.08612e-06 -7.74789e-12)
(2.99977 5.78384e-06 -1.23474e-11)
(2.9994 1.31594e-05 -2.23983e-11)
(2.99869 3.53081e-05 -3.94416e-11)
(2.99643 7.58092e-05 -6.77994e-11)
(2.99256 0.00022019 -1.65572e-10)
(2.97765 0.000446901 -2.66346e-10)
(2.95193 0.00143458 -8.68743e-10)
(2.85205 0.00304172 -1.48277e-09)
(2.58714 0.0113827 -5.26979e-09)
(1.93535 0.027222 -1.08918e-08)
(0.87224 0.0766255 -1.53442e-08)
(0.451751 0.0689485 2.77567e-09)
(0.540327 0.0674657 8.1146e-11)
(0.565941 0.0711754 -1.01861e-09)
(0.511945 0.0747916 -8.12386e-10)
(0.420757 0.0784134 -5.13881e-10)
(0.333604 0.0823872 -8.79349e-10)
(0.262277 0.0864397 -1.34194e-09)
(0.190131 0.0892938 -1.63109e-09)
(0.110359 0.0905371 -1.9463e-09)
(0.0468708 0.0905789 -2.17012e-09)
(3 6.58785e-08 -3.30031e-13)
(2.99998 3.58153e-07 -1.80159e-12)
(2.99996 1.33713e-06 -3.67094e-12)
(2.9999 3.42333e-06 -7.74099e-12)
(2.99978 9.53092e-06 -1.23486e-11)
(2.99942 2.17215e-05 -2.23987e-11)
(2.99873 5.85487e-05 -3.95003e-11)
(2.99653 0.000126258 -6.80413e-11)
(2.99277 0.000367639 -1.66264e-10)
(2.97832 0.000749477 -2.68422e-10)
(2.95343 0.00242015 -8.78179e-10)
(2.85719 0.00512362 -1.5002e-09)
(2.60267 0.0192663 -5.33415e-09)
(1.97157 0.0463287 -1.11039e-08)
(0.894927 0.13187 -1.61442e-08)
(0.448359 0.117127 2.79577e-09)
(0.542888 0.113343 8.72457e-11)
(0.571009 0.119697 -1.03786e-09)
(0.516869 0.126342 -8.46197e-10)
(0.426175 0.133619 -5.62917e-10)
(0.339575 0.14098 -8.7241e-10)
(0.268148 0.148136 -1.26369e-09)
(0.195223 0.153652 -1.49368e-09)
(0.113808 0.156607 -1.74782e-09)
(0.0477553 0.156488 -1.90672e-09)
(3 8.14689e-08 -3.29263e-13)
(2.99998 4.46775e-07 -1.79835e-12)
(2.99996 1.65745e-06 -3.665e-12)
(2.9999 4.22399e-06 -7.72317e-12)
(2.99979 1.17175e-05 -1.23396e-11)
(2.99944 2.63827e-05 -2.23946e-11)
(2.99878 7.2608e-05 -3.95909e-11)
(2.99669 0.00014508 -6.86947e-11)
(2.99308 0.000487628 -1.67091e-10)
(2.97933 0.00082618 -2.73615e-10)
(2.95567 0.00349516 -8.91755e-10)
(2.86491 0.00670626 -1.51984e-09)
(2.62599 0.0269069 -5.40861e-09)
(2.02702 0.0642741 -1.13696e-08)
(0.930386 0.185729 -1.74097e-08)
(0.445381 0.16553 2.68949e-09)
(0.548807 0.15891 1.27258e-10)
(0.581257 0.167635 -1.05537e-09)
(0.527539 0.177336 -9.09404e-10)
(0.437836 0.188645 -6.58275e-10)
(0.351722 0.199713 -8.64088e-10)
(0.279906 0.210557 -1.15809e-09)
(0.205524 0.219703 -1.27162e-09)
(0.121045 0.225508 -1.42861e-09)
(0.0505559 0.226154 -1.50483e-09)
(3 1.00771e-07 -3.21165e-13)
(2.99999 5.52937e-07 -1.7776e-12)
(2.99997 2.04889e-06 -3.58845e-12)
(2.99991 5.22584e-06 -7.374e-12)
(2.99979 1.44504e-05 -1.1885e-11)
(2.99947 3.25989e-05 -2.0748e-11)
(2.99883 8.89867e-05 -3.64456e-11)
(2.99688 0.000178266 -5.52043e-11)
(2.99334 0.00060236 -1.70403e-10)
(2.98078 0.000938482 -1.54523e-10)
(2.95845 0.00442484 -1.07464e-09)
(2.87511 0.00806577 -1.24658e-09)
(2.65753 0.0329222 -5.68283e-09)
(2.10236 0.0787624 -1.14254e-08)
(0.983949 0.233236 -1.89373e-08)
(0.451186 0.214433 2.17631e-09)
(0.562016 0.205642 2.4705e-10)
(0.599144 0.215471 -9.72218e-10)
(0.54577 0.227455 -8.89907e-10)
(0.456988 0.242814 -6.96903e-10)
(0.37078 0.257918 -8.07723e-10)
(0.298134 0.273067 -1.01326e-09)
(0.221664 0.286954 -1.02796e-09)
(0.132605 0.297082 -1.05419e-09)
(0.0556399 0.299754 -1.03296e-09)
(3 1.27804e-07 -3.23286e-13)
(2.99999 6.95459e-07 -1.78181e-12)
(2.99997 2.59139e-06 -3.62155e-12)
(2.99991 6.64061e-06 -7.46203e-12)
(2.99981 1.83915e-05 -1.21672e-11)
(2.9995 4.20392e-05 -2.16121e-11)
(2.9989 0.000111617 -3.74877e-11)
(2.99712 0.00024272 -6.70257e-11)
(2.99372 0.00069936 -1.53964e-10)
(2.98247 0.00131824 -2.39016e-10)
(2.96176 0.00483126 -9.01481e-10)
(2.88691 0.00922312 -1.30724e-09)
(2.69361 0.0355884 -5.22936e-09)
(2.19253 0.0864371 -1.10867e-08)
(1.0569 0.264936 -2.03785e-08)
(0.473919 0.262562 6.27069e-10)
(0.58494 0.256453 -5.31013e-11)
(0.625556 0.26584 -8.66659e-10)
(0.572979 0.278688 -9.00954e-10)
(0.485433 0.297581 -8.27859e-10)
(0.398644 0.317317 -8.10934e-10)
(0.324467 0.337823 -8.04304e-10)
(0.245134 0.357997 -6.99532e-10)
(0.149904 0.37496 -5.80091e-10)
(0.0635582 0.382507 -4.64912e-10)
(3 1.41919e-07 -3.17239e-13)
(2.99999 7.71756e-07 -1.75358e-12)
(2.99997 2.87278e-06 -3.53235e-12)
(2.99992 7.36465e-06 -7.26865e-12)
(2.99982 2.03193e-05 -1.1588e-11)
(2.99955 4.64825e-05 -2.04119e-11)
(2.99899 0.000121712 -3.37861e-11)
(2.99737 0.000270166 -5.95819e-11)
(2.99424 0.000722081 -1.25578e-10)
(2.98419 0.00153255 -2.16234e-10)
(2.96518 0.00462226 -6.90444e-10)
(2.89909 0.00952556 -9.04198e-10)
(2.73036 0.0328126 -3.95019e-09)
(2.28925 0.0801811 -8.07713e-09)
(1.15291 0.245443 -1.29723e-08)
(0.526782 0.297292 -4.10962e-09)
(0.621298 0.308693 -1.27202e-09)
(0.659838 0.31736 -8.75728e-10)
(0.608554 0.33078 -9.28506e-10)
(0.523367 0.353457 -9.2652e-10)
(0.436136 0.378856 -8.70529e-10)
(0.360258 0.406206 -7.44161e-10)
(0.277863 0.434908 -5.05438e-10)
(0.175559 0.462376 -1.93108e-10)
(0.0766953 0.48021 8.18386e-11)
(3 1.50882e-07 -3.15786e-13)
(2.99999 8.21981e-07 -1.74545e-12)
(2.99997 3.05268e-06 -3.51278e-12)
(2.99993 7.81997e-06 -7.2234e-12)
(2.99984 2.15075e-05 -1.14733e-11)
(2.99959 4.91279e-05 -2.0171e-11)
(2.99909 0.000127875 -3.31356e-11)
(2.99761 0.000284637 -5.85055e-11)
(2.99477 0.00073874 -1.19991e-10)
(2.98569 0.00164599 -2.18394e-10)
(2.96854 0.0043225 -5.74559e-10)
(2.90906 0.0101306 -1.077e-09)
(2.75856 0.028943 -3.12689e-09)
(2.35717 0.071789 -6.82988e-09)
(1.24591 0.208311 -1.2814e-08)
(0.570744 0.336593 -8.46078e-09)
(0.638829 0.370528 -2.76018e-09)
(0.677587 0.36965 -7.35168e-10)
(0.637715 0.382471 -8.53445e-10)
(0.562298 0.409061 -1.02063e-09)
(0.47909 0.44179 -9.71994e-10)
(0.404308 0.47791 -7.3293e-10)
(0.321428 0.518063 -3.29167e-10)
(0.213536 0.562122 7.92909e-11)
(0.0983035 0.601999 4.75891e-10)
(3 1.7712e-07 -3.19595e-13)
(2.99999 9.67836e-07 -1.75949e-12)
(2.99998 3.60583e-06 -3.57071e-12)
(2.99994 9.26166e-06 -7.34651e-12)
(2.99986 2.56098e-05 -1.18798e-11)
(2.99963 5.91877e-05 -2.10453e-11)
(2.99919 0.000151647 -3.57845e-11)
(2.99788 0.000358237 -6.54453e-11)
(2.99537 0.00082364 -1.28336e-10)
(2.98715 0.00212297 -2.92647e-10)
(2.97236 0.00446134 -4.64197e-10)
(2.91859 0.0115307 -1.53291e-09)
(2.78544 0.0280576 -2.4659e-09)
(2.42344 0.0724885 -6.67341e-09)
(1.36911 0.203345 -1.21436e-08)
(0.650923 0.388604 -1.05346e-08)
(0.648649 0.421677 -1.01769e-09)
(0.676887 0.417284 -3.91494e-10)
(0.658851 0.432806 -8.0868e-10)
(0.599462 0.461992 -9.27556e-10)
(0.52559 0.503667 -1.03355e-09)
(0.456054 0.550826 -6.83291e-10)
(0.378273 0.605739 -3.53906e-10)
(0.272643 0.676122 2.36577e-10)
(0.137794 0.763097 6.59918e-10)
(3 2.52147e-07 -3.18911e-13)
(2.99999 5.21795e-07 -1.73485e-12)
(2.99998 3.76736e-06 -3.48888e-12)
(2.99995 5.73484e-06 -7.34745e-12)
(2.99988 2.60645e-05 -1.11475e-11)
(2.99969 3.67387e-05 -2.00531e-11)
(2.99934 0.000156422 -3.18828e-11)
(2.99817 0.000203598 -5.60854e-11)
(2.99625 0.000954 -1.10432e-10)
(2.9887 0.000922655 -2.00726e-10)
(2.97648 0.00639984 -5.00549e-10)
(2.92788 0.00382479 -1.00965e-09)
(2.81237 0.041074 -2.25975e-09)
(2.49009 0.0524899 -6.87884e-09)
(1.51604 0.220916 -1.10784e-08)
(0.752854 0.442153 -1.2723e-08)
(0.65806 0.455831 -4.17577e-10)
(0.683283 0.45598 -1.72095e-10)
(0.679756 0.477373 -8.82564e-10)
(0.636478 0.510503 -9.64918e-10)
(0.576921 0.560442 -1.00239e-09)
(0.517275 0.619641 -8.15892e-10)
(0.454644 0.696418 -3.55035e-10)
(0.370379 0.812876 3.31104e-10)
(0.211853 1.0206 6.17416e-10)
(3 1.34811e-08 -4.98859e-15)
(2.99998 7.33692e-08 -2.29474e-14)
(2.99996 2.73066e-07 -6.69605e-14)
(2.9999 6.99523e-07 -1.4371e-13)
(2.99977 1.93617e-06 -3.28412e-13)
(2.99939 4.40877e-06 -6.63761e-13)
(2.99867 1.17748e-05 -1.29386e-12)
(2.99638 2.5374e-05 -2.80691e-12)
(2.99246 7.28103e-05 -3.14096e-12)
(2.97733 0.000148574 -9.26392e-12)
(2.95121 0.000469621 4.86564e-12)
(2.84962 0.000996352 2.93907e-12)
(2.57992 0.00367488 2.23262e-10)
(1.91909 0.00875305 5.8262e-10)
(0.86283 0.025075 1.25565e-09)
(0.455269 0.0237819 3.03562e-10)
(0.540854 0.0243696 1.95094e-11)
(0.565441 0.0265151 8.82284e-11)
(0.511808 0.0286705 1.74823e-10)
(0.420554 0.03085 2.56271e-10)
(0.333079 0.0333995 2.69813e-11)
(0.261746 0.0362231 -2.18301e-10)
(0.189892 0.0386299 -3.78033e-10)
(0.110953 0.0404744 -5.48468e-10)
(0.0485612 0.0428789 -7.03469e-10)
(3 4.01909e-08 -5.1538e-15)
(2.99998 2.18822e-07 -2.36535e-14)
(2.99996 8.14851e-07 -6.93166e-14)
(2.9999 2.08612e-06 -1.48791e-13)
(2.99977 5.78383e-06 -3.43447e-13)
(2.9994 1.31594e-05 -6.94091e-13)
(2.99869 3.53081e-05 -1.3859e-12)
(2.99643 7.58092e-05 -2.97823e-12)
(2.99256 0.00022019 -3.73926e-12)
(2.97765 0.000446901 -1.02524e-11)
(2.95193 0.00143458 1.09481e-12)
(2.85205 0.00304172 -3.79382e-12)
(2.58714 0.0113827 1.98868e-10)
(1.93535 0.027222 5.33619e-10)
(0.87224 0.0766254 1.19868e-09)
(0.451751 0.0689485 3.05814e-10)
(0.540327 0.0674657 1.84812e-11)
(0.565941 0.0711753 8.676e-11)
(0.511945 0.0747916 1.70755e-10)
(0.420757 0.0784134 2.4692e-10)
(0.333604 0.0823872 2.27347e-11)
(0.262277 0.0864397 -2.06735e-10)
(0.190131 0.0892939 -3.5726e-10)
(0.110359 0.0905372 -5.15005e-10)
(0.0468708 0.0905789 -6.53766e-10)
(3 6.58785e-08 -5.4526e-15)
(2.99998 3.58153e-07 -2.48803e-14)
(2.99996 1.33713e-06 -7.36571e-14)
(2.9999 3.42333e-06 -1.58101e-13)
(2.99978 9.53092e-06 -3.71779e-13)
(2.99942 2.17215e-05 -7.51289e-13)
(2.99873 5.85487e-05 -1.56546e-12)
(2.99653 0.000126258 -3.30838e-12)
(2.99277 0.000367639 -4.95435e-12)
(2.97832 0.000749477 -1.22101e-11)
(2.95343 0.00242015 -6.7615e-12)
(2.85719 0.00512362 -1.76907e-11)
(2.60267 0.0192663 1.45807e-10)
(1.97157 0.0463287 4.23924e-10)
(0.894927 0.13187 1.06017e-09)
(0.448359 0.117127 3.0707e-10)
(0.542888 0.113343 1.33573e-11)
(0.57101 0.119697 7.22867e-11)
(0.516869 0.126342 1.49871e-10)
(0.426175 0.133619 2.2017e-10)
(0.339575 0.14098 1.72814e-11)
(0.268148 0.148136 -1.80832e-10)
(0.195223 0.153652 -3.03444e-10)
(0.113808 0.156608 -4.30824e-10)
(0.0477554 0.156488 -5.40911e-10)
(3 8.14689e-08 -5.7656e-15)
(2.99998 4.46775e-07 -2.6351e-14)
(2.99996 1.65745e-06 -7.87347e-14)
(2.9999 4.22399e-06 -1.69033e-13)
(2.99979 1.17175e-05 -4.05881e-13)
(2.99944 2.63826e-05 -8.18673e-13)
(2.99878 7.26079e-05 -1.79359e-12)
(2.99669 0.00014508 -3.68107e-12)
(2.99308 0.000487628 -6.66124e-12)
(2.97933 0.000826179 -1.45497e-11)
(2.95567 0.00349516 -1.82501e-11)
(2.86491 0.00670626 -3.80124e-11)
(2.62599 0.0269069 6.30995e-11)
(2.02702 0.0642741 2.47218e-10)
(0.930386 0.185729 8.04633e-10)
(0.445381 0.16553 3.02175e-10)
(0.548807 0.15891 1.94906e-11)
(0.581257 0.167635 5.69949e-11)
(0.527539 0.177336 1.16319e-10)
(0.437836 0.188645 1.75216e-10)
(0.351722 0.199713 1.07809e-11)
(0.279906 0.210557 -1.44659e-10)
(0.205525 0.219703 -2.13195e-10)
(0.121045 0.225508 -2.92934e-10)
(0.050556 0.226154 -3.64429e-10)
(3 1.00771e-07 -6.20121e-15)
(2.99999 5.52937e-07 -2.8098e-14)
(2.99997 2.04889e-06 -8.57754e-14)
(2.99991 5.22584e-06 -1.85809e-13)
(2.99979 1.44504e-05 -4.60716e-13)
(2.99947 3.25988e-05 -9.44722e-13)
(2.99883 8.89867e-05 -2.1507e-12)
(2.99688 0.000178265 -4.83635e-12)
(2.99334 0.00060236 -7.83238e-12)
(2.98078 0.000938482 -2.52314e-11)
(2.95845 0.00442484 -1.67337e-11)
(2.87511 0.00806576 -7.96685e-11)
(2.65753 0.0329222 -1.19824e-11)
(2.10236 0.0787624 2.4261e-11)
(0.983949 0.233236 4.36549e-10)
(0.451186 0.214433 2.89701e-10)
(0.562016 0.205642 5.32256e-11)
(0.599144 0.21547 5.82262e-11)
(0.54577 0.227455 1.0276e-10)
(0.456988 0.242814 1.50925e-10)
(0.37078 0.257918 2.41973e-11)
(0.298134 0.273067 -9.28144e-11)
(0.221664 0.286954 -1.1425e-10)
(0.132605 0.297082 -1.27433e-10)
(0.0556399 0.299754 -1.58828e-10)
(3 1.27804e-07 -5.97276e-15)
(2.99999 6.95459e-07 -2.71339e-14)
(2.99997 2.59139e-06 -8.26116e-14)
(2.99991 6.64061e-06 -1.777e-13)
(2.99981 1.83915e-05 -4.42994e-13)
(2.9995 4.20392e-05 -8.90224e-13)
(2.9989 0.000111617 -2.1317e-12)
(2.99712 0.00024272 -4.20602e-12)
(2.99372 0.00069936 -9.70579e-12)