/*--------------------------------*- C++ -*----------------------------------*\
| =========                 |                                                 |
| \\      /  F ield         | OpenFOAM: The Open Source CFD Toolbox           |
|  \\    /   O peration     | Version:  4.1                                   |
|   \\  /    A nd           | Web:      www.OpenFOAM.org                      |
|    \\/     M anipulation  |                                                 |
\*---------------------------------------------------------------------------*/
FoamFile
{
    version     2.0;
    format      ascii;
    class       volScalarField;
    location    "0.22";
    object      Ma;
}
// * * * * * * * * * * * * * * * * * * * * * * * * * * * * * * * * * * * * * //

dimensions      [0 0 0 0 0 0 0];

internalField   nonuniform List<scalar> 
18000
(
5.75874e-12
5.69185e-12
5.61507e-12
5.54976e-12
5.48536e-12
5.42178e-12
5.35912e-12
5.29736e-12
5.23648e-12
5.17707e-12
7.25296e-12
6.9892e-12
6.72719e-12
6.48528e-12
6.25404e-12
6.0328e-12
5.82108e-12
5.61838e-12
5.42416e-12
5.24003e-12
9.25543e-12
8.67165e-12
8.12338e-12
7.62309e-12
7.16001e-12
6.73091e-12
6.3332e-12
5.96387e-12
5.62081e-12
5.30397e-12
1.19823e-11
1.08804e-11
9.89304e-12
9.01606e-12
8.23279e-12
7.53146e-12
6.90206e-12
6.33609e-12
5.82614e-12
5.36906e-12
1.57608e-11
1.38199e-11
1.2158e-11
1.07343e-11
9.50968e-12
8.45201e-12
7.53508e-12
6.73745e-12
6.04093e-12
5.4355e-12
2.10989e-11
1.77911e-11
1.50906e-11
1.28707e-11
1.10379e-11
9.5144e-12
8.24097e-12
7.17046e-12
6.26564e-12
5.50278e-12
2.88049e-11
2.3246e-11
1.89327e-11
1.55505e-11
1.28776e-11
1.07453e-11
9.02968e-12
7.63821e-12
6.50095e-12
5.5712e-12
4.02028e-11
3.08715e-11
2.40322e-11
1.89413e-11
1.51057e-11
1.21771e-11
9.91408e-12
8.14565e-12
6.74909e-12
5.64344e-12
1.64176e-09
1.57364e-09
1.47094e-09
1.38038e-09
1.3001e-09
1.22848e-09
1.16422e-09
1.10625e-09
1.05371e-09
1.01226e-09
1.7981e-07
2.74621e-08
2.33096e-08
2.00388e-08
1.73417e-08
1.50929e-08
1.31999e-08
1.15926e-08
1.01945e-08
2.48698e-08
5.87396e-12
5.80341e-12
5.72641e-12
5.65818e-12
5.59117e-12
5.52536e-12
5.46024e-12
5.39649e-12
5.33363e-12
5.27215e-12
7.42104e-12
7.14448e-12
6.87965e-12
6.62758e-12
6.38724e-12
6.15758e-12
5.9384e-12
5.72893e-12
5.5287e-12
5.33765e-12
9.49158e-12
8.8824e-12
8.32689e-12
7.80629e-12
7.32559e-12
6.88103e-12
6.46962e-12
6.08824e-12
5.73444e-12
5.405e-12
1.23247e-11
1.11781e-11
1.01714e-11
9.25743e-12
8.44303e-12
7.7153e-12
7.0635e-12
6.47861e-12
5.95193e-12
5.47428e-12
1.62711e-11
1.42528e-11
1.2546e-11
1.10572e-11
9.78038e-12
8.68019e-12
7.72843e-12
6.90223e-12
6.1819e-12
5.54588e-12
2.18809e-11
1.84353e-11
1.56394e-11
1.33081e-11
1.13899e-11
9.80013e-12
8.47473e-12
7.36322e-12
6.42533e-12
5.61964e-12
3.00356e-11
2.42275e-11
1.97207e-11
1.61494e-11
1.33394e-11
1.11056e-11
9.31391e-12
7.86507e-12
6.68277e-12
5.6958e-12
4.22039e-11
3.24013e-11
2.51819e-11
1.97717e-11
1.5717e-11
1.2634e-11
1.02609e-11
8.41211e-12
6.95553e-12
5.77453e-12
6.38252e-11
6.0201e-11
4.66954e-11
3.68561e-11
2.96189e-11
2.41797e-11
2.0014e-11
1.67697e-11
1.42038e-11
1.21003e-11
1.05823e-07
1.78356e-08
1.54091e-08
1.34338e-08
1.18148e-08
1.04717e-08
9.34572e-09
8.39271e-09
7.57962e-09
6.97577e-09
4.05111e-13
3.80257e-13
2.05608e-13
1.86451e-13
1.6866e-13
1.52544e-13
1.38252e-13
1.26212e-13
1.16112e-13
1.02598e-13
5.58628e-13
4.859e-13
4.13386e-13
3.62954e-13
3.17135e-13
2.76176e-13
2.40304e-13
2.099e-13
1.85189e-13
1.26512e-13
6.40847e-13
5.33028e-13
5.59089e-13
4.88e-13
4.26134e-13
3.73468e-13
3.29525e-13
2.93608e-13
2.64144e-13
1.57819e-13
8.04749e-13
7.00603e-13
8.04992e-13
6.95128e-13
6.02296e-13
5.25056e-13
4.61075e-13
4.08677e-13
3.64551e-13
2.01924e-13
1.08303e-12
1.03482e-12
1.16489e-12
9.86509e-13
8.39711e-13
7.20232e-13
6.22661e-13
5.43022e-13
4.75866e-13
2.51574e-13
1.55034e-12
1.60866e-12
1.68506e-12
1.38878e-12
1.15288e-12
9.65974e-13
8.16715e-13
6.96963e-13
5.97598e-13
3.05833e-13
2.3271e-12
2.53562e-12
2.43754e-12
1.94179e-12
1.56309e-12
1.27299e-12
1.04793e-12
8.72011e-13
7.29894e-13
3.63821e-13
3.6327e-12
4.01147e-12
3.53265e-12
2.70379e-12
2.10009e-12
1.65552e-12
1.32283e-12
1.07064e-12
8.73198e-13
4.25267e-13
4.77919e-11
6.22733e-12
5.03736e-12
3.69546e-12
2.76564e-12
2.10986e-12
1.63723e-12
1.29079e-12
1.02824e-12
4.94723e-13
9.24818e-08
4.80005e-10
3.42457e-10
2.59666e-10
2.00473e-10
1.57245e-10
1.25087e-10
1.00769e-10
8.21093e-11
6.7469e-11
3.87564e-13
3.62102e-13
1.72346e-13
1.51042e-13
1.3067e-13
1.11523e-13
9.36614e-14
7.73143e-14
6.28531e-14
3.66845e-14
5.3384e-13
4.60236e-13
3.86404e-13
3.35664e-13
2.89156e-13
2.47385e-13
2.10563e-13
1.79007e-13
1.53084e-13
7.94984e-14
5.96612e-13
4.886e-13
5.24127e-13
4.54937e-13
3.94859e-13
3.43822e-13
3.01316e-13
2.6714e-13
2.39371e-13
1.20068e-13
7.2886e-13
6.33742e-13
7.61125e-13
6.56615e-13
5.68182e-13
4.94939e-13
4.34468e-13
3.85135e-13
3.43805e-13
1.71432e-13
9.5498e-13
9.42556e-13
1.10827e-12
9.40072e-13
8.01378e-13
6.88324e-13
5.96019e-13
5.20805e-13
4.57337e-13
2.25381e-13
1.33596e-12
1.48326e-12
1.61018e-12
1.33132e-12
1.10837e-12
9.31167e-13
7.892e-13
6.75227e-13
5.8032e-13
2.82262e-13
1.96752e-12
2.36014e-12
2.33563e-12
1.86905e-12
1.51032e-12
1.23411e-12
1.01898e-12
8.50292e-13
7.13455e-13
3.42189e-13
3.01522e-12
3.75597e-12
3.39012e-12
2.60974e-12
2.03621e-12
1.61153e-12
1.29196e-12
1.04867e-12
8.57574e-13
4.05345e-13
5.01966e-11
6.04458e-12
4.93724e-12
3.6344e-12
2.72523e-12
2.08126e-12
1.6155e-12
1.27319e-12
1.01329e-12
4.71687e-13
9.6518e-08
1.71498e-10
8.49565e-12
5.70196e-12
4.05997e-12
2.96403e-12
2.20983e-12
1.67782e-12
1.29069e-12
6.55881e-13
3.87689e-13
3.61896e-13
1.72795e-13
1.5141e-13
1.30966e-13
1.11739e-13
9.39341e-14
7.75655e-14
6.29631e-14
3.68137e-14
5.34488e-13
4.60652e-13
3.87369e-13
3.36484e-13
2.89871e-13
2.4794e-13
2.10998e-13
1.79431e-13
1.53411e-13
7.9695e-14
5.97957e-13
4.89946e-13
5.25895e-13
4.56389e-13
3.95953e-13
3.44772e-13
3.02084e-13
2.67677e-13
2.39718e-13
1.20328e-13
7.31697e-13
6.36795e-13
7.63935e-13
6.58977e-13
5.70037e-13
4.96408e-13
4.35671e-13
3.86046e-13
3.44476e-13
1.71758e-13
9.60419e-13
9.48248e-13
1.1131e-12
9.43861e-13
8.04431e-13
6.90771e-13
5.9788e-13
5.22235e-13
4.58409e-13
2.26129e-13
1.34621e-12
1.49321e-12
1.6182e-12
1.33765e-12
1.11328e-12
9.35089e-13
7.92337e-13
6.77669e-13
5.82246e-13
2.83558e-13
1.98655e-12
2.37775e-12
2.34947e-12
1.8796e-12
1.51849e-12
1.24052e-12
1.02397e-12
8.54158e-13
7.16613e-13
3.44392e-13
3.0503e-12
3.78752e-12
3.41381e-12
2.62743e-12
2.04959e-12
1.62178e-12
1.29989e-12
1.05481e-12
8.62356e-13
4.0875e-13
5.03266e-11
6.10488e-12
4.97925e-12
3.66444e-12
2.74711e-12
2.09747e-12
1.62771e-12
1.28253e-12
1.02058e-12
4.7661e-13
9.90702e-08
1.73999e-10
7.47902e-12
5.05113e-12
3.6435e-12
2.68686e-12
2.02009e-12
1.54568e-12
1.19673e-12
5.54691e-13
3.87781e-13
3.61561e-13
1.73395e-13
1.51918e-13
1.31345e-13
1.12085e-13
9.41591e-14
7.78249e-14
6.31998e-14
3.68767e-14
5.35308e-13
4.61166e-13
3.88656e-13
3.37587e-13
2.90802e-13
2.48694e-13
2.11594e-13
1.79876e-13
1.53832e-13
8.00075e-14
5.99797e-13
4.9178e-13
5.28182e-13
4.58322e-13
3.97558e-13
3.46014e-13
3.03079e-13
2.68359e-13
2.40229e-13
1.20712e-13
7.35505e-13
6.40934e-13
7.67726e-13
6.62054e-13
5.72601e-13
4.98336e-13
4.37118e-13
3.8726e-13
3.45292e-13
1.72342e-13
9.67937e-13
9.55883e-13
1.11942e-12
9.48879e-13
8.08392e-13
6.94006e-13
6.00421e-13
5.24197e-13
4.59939e-13
2.27188e-13
1.36054e-12
1.50683e-12
1.62897e-12
1.34605e-12
1.11983e-12
9.40263e-13
7.96432e-13
6.80846e-13
5.84823e-13
2.85367e-13
2.01339e-12
2.40168e-12
2.36791e-12
1.89372e-12
1.5293e-12
1.24898e-12
1.03061e-12
8.59335e-13
7.20691e-13
3.47284e-13
3.10074e-12
3.83051e-12
3.44577e-12
2.65102e-12
2.06731e-12
1.63527e-12
1.3103e-12
1.06292e-12
8.68656e-13
4.13098e-13
5.06718e-11
6.18294e-12
5.03474e-12
3.70389e-12
2.77576e-12
2.11875e-12
1.64371e-12
1.29473e-12
1.02996e-12
4.83092e-13
9.94623e-08
1.75631e-10
7.56985e-12
5.11287e-12
3.68711e-12
2.71832e-12
2.0433e-12
1.56317e-12
1.21003e-12
5.63637e-13
3.87848e-13
3.61232e-13
1.74086e-13
1.52546e-13
1.31916e-13
1.1256e-13
9.45567e-14
7.8066e-14
6.33917e-14
3.70798e-14
5.36333e-13
4.61855e-13
3.90239e-13
3.38893e-13
2.91948e-13
2.49716e-13
2.12442e-13
1.80521e-13
1.54154e-13
8.03056e-14
6.02071e-13
4.94003e-13
5.30933e-13
4.60636e-13
3.99474e-13
3.47591e-13
3.04246e-13
2.69262e-13
2.4088e-13
1.21114e-13
7.40192e-13
6.45959e-13
7.72334e-13
6.65788e-13
5.75656e-13
5.0083e-13
4.38968e-13
3.88645e-13
3.46452e-13
1.73104e-13
9.772e-13
9.65247e-13
1.12709e-12
9.54999e-13
8.13241e-13
6.97942e-13
6.03535e-13
5.26582e-13
4.61798e-13
2.28566e-13
1.37817e-12
1.52328e-12
1.64201e-12
1.35629e-12
1.12789e-12
9.46635e-13
8.01504e-13
6.8482e-13
5.87909e-13
2.87624e-13
2.04656e-12
2.43085e-12
2.39032e-12
1.91091e-12
1.54258e-12
1.25933e-12
1.03879e-12
8.65698e-13
7.25721e-13
3.50914e-13
3.16328e-12
3.88284e-12
3.4849e-12
2.68e-12
2.08905e-12
1.65182e-12
1.32316e-12
1.07287e-12
8.76384e-13
4.18543e-13
5.25024e-11
6.2801e-12
5.10281e-12
3.75251e-12
2.81117e-12
2.14491e-12
1.66344e-12
1.3097e-12
1.04149e-12
4.90941e-13
1.09378e-07
1.84956e-10
7.69075e-12
5.19085e-12
3.74213e-12
2.758e-12
2.07259e-12
1.58518e-12
1.22657e-12
5.74797e-13
3.87938e-13
3.60561e-13
1.74788e-13
1.5313e-13
1.32521e-13
1.13186e-13
9.52572e-14
7.95299e-14
7.93666e-14
1.6837e-13
5.37399e-13
4.62293e-13
3.91789e-13
3.40294e-13
2.9319e-13
2.50865e-13
2.13519e-13
1.81915e-13
1.58326e-13
1.35491e-13
6.04497e-13
4.95955e-13
5.33692e-13
4.63004e-13
4.01533e-13
3.49411e-13
3.05927e-13
2.70764e-13
2.43512e-13
1.44471e-13
7.45326e-13
6.50535e-13
7.76856e-13
6.6956e-13
5.78764e-13
5.0352e-13
4.41484e-13
3.90841e-13
3.49087e-13
1.85765e-13
9.87237e-13
9.73945e-13
1.13453e-12
9.61099e-13
8.18203e-13
7.02032e-13
6.07247e-13
5.29911e-13
4.65201e-13
2.37776e-13
1.39692e-12
1.53881e-12
1.65453e-12
1.36635e-12
1.13592e-12
9.53323e-13
8.07365e-13
6.8999e-13
5.92646e-13
2.96155e-13
2.08097e-12
2.45846e-12
2.41176e-12
1.92766e-12
1.55582e-12
1.27007e-12
1.0479e-12
8.73723e-13
7.32496e-13
3.59831e-13
3.22569e-12
3.93183e-12
3.52186e-12
2.70825e-12
2.11081e-12
1.66889e-12
1.33714e-12
1.08495e-12
8.86485e-13
4.28789e-13
5.0431e-11
6.35956e-12
5.16682e-12
3.79959e-12
2.84641e-12
2.17187e-12
1.68466e-12
1.3272e-12
1.05608e-12
5.0345e-13
1.15128e-07
1.64183e-10
7.74481e-12
5.2656e-12
3.79669e-12
2.7987e-12
2.10368e-12
1.61004e-12
1.24712e-12
5.90732e-13
3.86777e-13
3.94028e-13
2.07531e-13
1.60284e-13
1.40215e-13
2.27101e-13
4.20567e-13
1.40812e-12
6.25796e-12
2.18017e-11
5.38047e-13
5.21708e-13
4.28307e-13
3.53745e-13
2.92886e-13
2.97968e-13
4.11275e-13
9.83547e-13
3.65203e-12
1.3774e-11
6.07366e-13
5.98563e-13
5.86223e-13
4.88242e-13
4.03581e-13
3.63601e-13
4.51852e-13
7.59022e-13
2.31097e-12
8.67115e-12
7.48328e-13
7.83932e-13
8.37399e-13
7.01232e-13
5.84428e-13
5.03814e-13
5.20107e-13
6.79861e-13
1.59707e-12
5.71696e-12
9.85285e-13
1.11508e-12
1.19465e-12
9.93008e-13
8.24739e-13
6.96553e-13
6.43012e-13
7.06917e-13
1.23134e-12
3.94737e-12
1.37953e-12
1.6638e-12
1.70334e-12
1.39012e-12
1.13754e-12
9.42549e-13
8.19007e-13
8.31217e-13
1.07303e-12
2.84706e-12
2.02934e-12
2.54295e-12
2.43403e-12
1.93234e-12
1.54475e-12
1.25066e-12
1.04352e-12
9.63082e-13
1.04948e-12
2.14322e-12
3.10228e-12
3.94366e-12
3.49557e-12
2.67874e-12
2.07722e-12
1.63528e-12
1.31931e-12
1.1366e-12
1.13796e-12
1.68809e-12
2.02132e-11
6.19367e-12
5.06026e-12
3.71606e-12
2.7776e-12
2.11639e-12
1.65257e-12
1.35186e-12
1.25321e-12
1.3978e-12
2.62468e-08
1.31015e-10
7.20847e-12
5.09851e-12
3.67528e-12
2.71134e-12
2.05182e-12
1.61159e-12
1.38631e-12
1.22609e-12
2.53918e-12
2.39998e-12
1.53975e-12
1.5773e-13
2.62013e-12
8.30798e-12
2.3304e-11
7.65076e-11
3.45682e-10
9.56464e-10
3.57495e-12
3.4707e-12
2.58102e-12
1.18845e-12
1.30922e-12
6.09258e-12
1.75762e-11
5.31242e-11
2.03369e-10
5.65627e-10
4.84138e-12
4.73635e-12
3.76397e-12
2.35691e-12
3.21909e-13
4.04205e-12
1.29748e-11
3.80245e-11
1.29651e-10
3.55628e-10
6.49731e-12
6.31662e-12
5.16923e-12
3.66136e-12
1.49801e-12
2.25565e-12
9.46898e-12
2.7855e-11
8.76783e-11
2.34204e-10
8.70208e-12
8.32353e-12
6.86799e-12
5.14957e-12
2.91574e-12
7.91239e-13
6.63808e-12
2.06063e-11
6.17638e-11
1.6022e-10
1.16943e-11
1.09159e-11
8.95841e-12
6.87702e-12
4.4475e-12
1.32529e-12
4.31207e-12
1.51787e-11
4.47785e-11
1.13119e-10
1.58405e-11
1.43321e-11
1.1575e-11
8.91925e-12
6.13917e-12
2.85849e-12
2.37662e-12
1.11614e-11
3.31023e-11
8.19711e-11
2.17294e-11
1.89194e-11
1.49051e-11
1.1377e-11
8.03942e-12
4.48964e-12
1.18882e-12
8.00107e-12
2.46901e-11
6.06789e-11
4.1769e-11
2.52118e-11
1.92214e-11
1.43806e-11
1.02149e-11
6.22228e-12
1.9834e-12
5.45702e-12
1.85462e-11
4.56906e-11
2.90491e-07
2.93388e-10
2.48909e-11
1.8087e-11
1.27304e-11
8.0777e-12
3.49342e-12
3.43204e-12
1.39481e-11
3.48312e-11
3.43895e-12
3.09221e-12
2.04532e-12
1.9233e-12
8.24608e-12
2.76646e-11
1.00634e-10
5.0896e-10
1.86101e-09
2.41868e-09
4.56264e-12
4.25029e-12
3.24795e-12
1.68765e-12
5.16397e-12
1.93037e-11
6.71728e-11
2.90604e-10
1.03564e-09
1.2901e-09
5.93232e-12
5.59463e-12
4.60258e-12
2.8478e-12
2.78529e-12
1.30055e-11
4.58003e-11
1.79351e-10
6.15609e-10
7.44481e-10
7.68978e-12
7.22506e-12
6.14211e-12
4.3967e-12
1.98895e-12
8.31176e-12
3.16052e-11
1.16837e-10
3.84949e-10
4.55577e-10
1.00015e-11
9.25523e-12
7.94046e-12
6.11485e-12
3.25871e-12
4.75469e-12
2.16995e-11
7.88761e-11
2.50797e-10
2.92127e-10
1.31165e-11
1.18447e-11
1.00992e-11
8.03133e-12
5.11816e-12
2.50239e-12
1.44626e-11
5.43367e-11
1.68928e-10
1.94474e-10
1.74151e-11
1.52242e-11
1.27571e-11
1.0226e-11
7.13976e-12
2.88477e-12
9.15099e-12
3.78108e-11
1.1665e-10
1.3341e-10
2.34991e-11
1.97343e-11
1.61054e-11
1.28052e-11
9.32219e-12
4.83584e-12
5.16619e-12
2.62042e-11
8.20617e-11
9.38021e-11
5.43347e-11
2.58628e-11
2.0413e-11
1.59109e-11
1.17386e-11
7.03934e-12
2.7045e-12
1.78618e-11
5.85037e-11
6.71224e-11
5.17675e-08
2.66285e-09
2.62797e-11
1.97063e-11
1.44642e-11
9.31579e-12
3.19471e-12
1.17006e-11
4.20055e-11
4.85274e-11
1.00632e-12
1.26073e-12
1.53748e-12
3.25037e-12
8.65712e-12
2.57095e-11
8.92322e-11
3.36739e-10
6.30923e-10
3.25298e-10
1.0846e-12
1.25521e-12
1.39557e-12
2.45289e-12
6.13126e-12
1.77993e-11
5.87457e-11
2.06438e-10
3.55999e-10
2.24675e-10
1.1658e-12
1.28817e-12
1.37781e-12
1.97389e-12
4.3796e-12
1.24304e-11
3.96571e-11
1.31688e-10
2.11099e-10
1.48639e-10
1.24727e-12
1.34722e-12
1.43632e-12
1.76995e-12
3.22263e-12
8.7411e-12
2.72668e-11
8.67561e-11
1.30285e-10
9.99979e-11
1.33169e-12
1.42104e-12
1.52856e-12
1.74199e-12
2.52895e-12
6.20956e-12
1.90354e-11
5.86574e-11
8.30624e-11
6.93556e-11
1.42246e-12
1.50584e-12
1.63264e-12
1.80317e-12
2.19244e-12
4.48973e-12
1.34005e-11
4.05619e-11
5.43588e-11
4.97717e-11
1.52361e-12
1.59996e-12
1.74058e-12
1.90193e-12
2.09449e-12
3.37895e-12
9.48811e-12
2.84104e-11
3.63377e-11
3.69326e-11
1.64227e-12
1.70497e-12
1.85154e-12
2.01206e-12
2.12401e-12
2.74114e-12
6.79383e-12
2.01394e-11
2.47455e-11
2.82659e-11
1.29836e-10
2.02047e-12
1.96645e-12
2.12615e-12
2.21107e-12
2.44654e-12
4.95655e-12
1.44182e-11
1.70217e-11
2.22444e-11
8.97049e-08
2.48568e-09
3.06223e-12
2.23516e-12
2.31341e-12
2.36052e-12
3.73691e-12
1.03968e-11
1.17107e-11
1.78537e-11
7.94362e-13
1.50751e-12
1.60994e-12
2.52074e-12
4.15392e-12
7.23311e-12
1.49619e-11
5.2188e-11
2.93684e-10
9.03599e-10
7.29071e-13
1.35434e-12
1.39643e-12
2.15257e-12
3.49008e-12
5.95168e-12
1.14179e-11
3.269e-11
1.76245e-10
4.9158e-10
6.66226e-13
1.21105e-12
1.20265e-12
1.82905e-12
2.92604e-12
4.89872e-12
8.94521e-12
2.19066e-11
1.09997e-10
2.86897e-10
6.12482e-13
1.08916e-12
1.04166e-12
1.56496e-12
2.46947e-12
4.072e-12
7.1775e-12
1.56124e-11
7.10906e-11
1.76828e-10
5.66367e-13
9.84938e-13
9.0688e-13
1.34498e-12
2.09759e-12
3.41624e-12
5.85881e-12
1.16912e-11
4.73185e-11
1.13759e-10
5.26722e-13
8.95793e-13
7.93663e-13
1.16376e-12
1.79505e-12
2.88496e-12
4.84848e-12
9.08585e-12
3.23074e-11
7.57711e-11
4.92451e-13
8.18775e-13
6.98313e-13
1.01209e-12
1.54265e-12
2.4513e-12
4.06023e-12
7.25683e-12
2.25587e-11
5.19396e-11
4.65653e-13
7.51917e-13
6.17612e-13
8.83994e-13
1.33351e-12
2.09741e-12
3.42925e-12
5.92274e-12
1.60659e-11
3.64769e-11
2.20033e-10
2.463e-12
5.48031e-13
7.76214e-13
1.15919e-12
1.80508e-12
2.91646e-12
4.91309e-12
1.16493e-11
2.61591e-11
8.88982e-08
8.52408e-09
1.51162e-11
6.1546e-13
1.00759e-12
1.55443e-12
2.48754e-12
4.11393e-12
8.57012e-12
1.90845e-11
1.07025e-12
1.86316e-12
1.6159e-12
2.17578e-12
3.03253e-12
4.40038e-12
7.02683e-12
1.39826e-11
5.42197e-11
1.30737e-10
9.96861e-13
1.70844e-12
1.44883e-12
1.93933e-12
2.6806e-12
3.8291e-12
5.84293e-12
1.05948e-11
3.85191e-11
8.36255e-11
9.25344e-13
1.55971e-12
1.28772e-12
1.71382e-12
2.3543e-12
3.32924e-12
4.92777e-12
8.26044e-12
2.73522e-11
5.60143e-11
8.63124e-13
1.43032e-12
1.14927e-12
1.51936e-12
2.07597e-12
2.91172e-12
4.22716e-12
6.67286e-12
1.96141e-11
3.88744e-11
8.09072e-13
1.31739e-12
1.0302e-12
1.35243e-12
1.83889e-12
2.56171e-12
3.67043e-12
5.55202e-12
1.42112e-11
2.77022e-11
7.6186e-13
1.21846e-12
9.2722e-13
1.20877e-12
1.6335e-12
2.26316e-12
3.21586e-12
4.72434e-12
1.03998e-11
2.01486e-11
7.20352e-13
1.13126e-12
8.38082e-13
1.08427e-12
1.45637e-12
2.00833e-12
2.83425e-12
4.08465e-12
7.67876e-12
1.48956e-11
6.87223e-13
1.05402e-12
7.60595e-13
9.76078e-13
1.30272e-12
1.78745e-12
2.50838e-12
3.57117e-12
5.72006e-12
1.11646e-11
3.31311e-10
4.31896e-12
6.9293e-13
8.81913e-13
1.16913e-12
1.59546e-12
2.22998e-12
3.14592e-12
4.29769e-12
8.45767e-12
1.09312e-07
1.50948e-08
3.70577e-11
7.32871e-13
1.04798e-12
1.42476e-12
1.98352e-12
2.77847e-12
3.23975e-12
6.44957e-12
1.49026e-12
2.36046e-12
1.62601e-12
1.90488e-12
2.28642e-12
2.83205e-12
3.80997e-12
6.00204e-12
1.65253e-11
2.40889e-11
1.40951e-12
2.20869e-12
1.50969e-12
1.77126e-12
2.12509e-12
2.60574e-12
3.37035e-12
4.91209e-12
1.26666e-11
1.861e-11
1.32918e-12
2.05809e-12
1.38726e-12
1.62913e-12
1.95589e-12
2.38715e-12
3.01678e-12
4.13407e-12
9.59667e-12
1.43602e-11
1.25815e-12
1.92339e-12
1.2766e-12
1.4993e-12
1.80108e-12
2.1945e-12
2.73766e-12
3.58815e-12
7.28176e-12
1.11618e-11
1.19533e-12
1.80279e-12
1.17736e-12
1.3815e-12
1.66049e-12
2.02201e-12
2.50654e-12
3.19046e-12
5.53083e-12
8.72033e-12
1.13948e-12
1.69431e-12
1.08844e-12
1.27527e-12
1.53185e-12
1.86585e-12
2.30529e-12
2.88459e-12
4.20182e-12
6.84051e-12
1.08973e-12
1.59677e-12
1.00859e-12
1.17905e-12
1.41466e-12
1.72333e-12
2.12843e-12
2.63513e-12
3.19158e-12
5.38026e-12
1.04894e-12
1.50856e-12
9.36909e-13
1.09202e-12
1.30811e-12
1.5932e-12
1.96809e-12
2.4245e-12
2.42065e-12
4.23875e-12
4.44846e-10
6.39663e-12
8.73174e-13
1.01322e-12
1.21105e-12
1.47413e-12
1.82166e-12
2.23934e-12
1.83134e-12
3.34178e-12
8.80665e-08
2.09927e-08
5.90502e-11
9.17055e-13
1.11792e-12
1.36189e-12
1.68232e-12
2.06689e-12
1.3701e-12
2.62552e-12
2.11222e-12
3.00221e-12
1.57862e-12
1.60595e-12
1.66768e-12
1.79918e-12
2.14853e-12
2.97496e-12
6.80748e-12
8.35918e-12
2.0261e-12
2.86305e-12
1.52023e-12
1.5634e-12
1.63418e-12
1.74602e-12
1.99232e-12
2.55899e-12
5.515e-12
6.98371e-12
1.93986e-12
2.72023e-12
1.44509e-12
1.50025e-12
1.58052e-12
1.68616e-12
1.87342e-12
2.26032e-12
4.3581e-12
5.73123e-12
1.8619e-12
2.58841e-12
1.37166e-12
1.43488e-12
1.52263e-12
1.62876e-12
1.7859e-12
2.05926e-12
3.42717e-12
4.70256e-12
1.79148e-12
2.46693e-12
1.30119e-12
1.36989e-12
1.4632e-12
1.57211e-12
1.71514e-12
1.92176e-12
2.67687e-12
3.85753e-12
1.72774e-12
2.35513e-12
1.23464e-12
1.30592e-12
1.40268e-12
1.51501e-12
1.65367e-12
1.82161e-12
2.07165e-12
3.1589e-12
1.66997e-12
2.2521e-12
1.17182e-12
1.24401e-12
1.34223e-12
1.45709e-12
1.59537e-12
1.74312e-12
1.58093e-12
2.58023e-12
1.62114e-12
2.15708e-12
1.11293e-12
1.18473e-12
1.28312e-12
1.39899e-12
1.53753e-12
1.67643e-12
1.18462e-12
2.09982e-12
5.61615e-10
8.40077e-12
1.05914e-12
1.12814e-12
1.22555e-12
1.34148e-12
1.48029e-12
1.61608e-12
8.65788e-13
1.70086e-12
2.59744e-08
2.43035e-08
1.33516e-10
9.9013e-13
1.16474e-12
1.28212e-12
1.41916e-12
1.55326e-12
5.98337e-13
1.36688e-12
2.97302e-12
3.74091e-12
1.4005e-12
1.21497e-12
1.06865e-12
1.00304e-12
1.13716e-12
1.54786e-12
3.42453e-12
3.80577e-12
2.88689e-12
3.62936e-12
1.40253e-12
1.24948e-12
1.12172e-12
1.03664e-12
1.08004e-12
1.34473e-12
2.9372e-12
3.38225e-12
2.80018e-12
3.51042e-12
1.38189e-12
1.25876e-12
1.15281e-12
1.06667e-12
1.05705e-12
1.20381e-12
2.42084e-12
2.91031e-12
2.7201e-12
3.39664e-12
1.35378e-12
1.25581e-12
1.17087e-12
1.09301e-12
1.05776e-12
1.12113e-12
1.97806e-12
2.49946e-12
2.64614e-12
3.28857e-12
1.32154e-12
1.24483e-12
1.17906e-12
1.11352e-12
1.06964e-12
1.08103e-12
1.59876e-12
2.14182e-12
2.57797e-12
3.18612e-12
1.28641e-12
1.22759e-12
1.17888e-12
1.12722e-12
1.08503e-12
1.06721e-12
1.27315e-12
1.83046e-12
2.51506e-12
3.08935e-12
1.24977e-12
1.20598e-12
1.17217e-12
1.1342e-12
1.09932e-12
1.06758e-12
9.94673e-13
1.55966e-12
2.46076e-12
2.99811e-12
1.2126e-12
1.1814e-12
1.16028e-12
1.13496e-12
1.10952e-12
1.07448e-12
7.56664e-13
1.32526e-12
6.85637e-10
9.93574e-12
1.17732e-12
1.15477e-12
1.14454e-12
1.13059e-12
1.11508e-12
1.08335e-12
5.54591e-13
1.12383e-12
4.55407e-08
2.32699e-08
1.31254e-10
1.05256e-12
1.12145e-12
1.11969e-12
1.11319e-12
1.08747e-12
3.77718e-13
9.54379e-13
4.02763e-12
4.46749e-12
1.07507e-12
7.60274e-13
4.95127e-13
3.48959e-13
4.86398e-13
7.95525e-13
2.06875e-12
2.09134e-12
3.94761e-12
4.39723e-12
1.12129e-12
8.42662e-13
6.00645e-13
4.19431e-13
4.30247e-13
6.53561e-13
1.90152e-12
1.98212e-12
3.86825e-12
4.31976e-12
1.14496e-12
9.0109e-13
6.84788e-13
4.99179e-13
4.26706e-13
5.48116e-13
1.65624e-12
1.78682e-12
3.7932e-12
4.24144e-12
1.15699e-12
9.43792e-13
7.51634e-13
5.7402e-13
4.59324e-13
4.85781e-13
1.43731e-12
1.61019e-12
3.7223e-12
4.16397e-12
1.16081e-12
9.74778e-13
8.05399e-13
6.40672e-13
5.0957e-13
4.65894e-13
1.24239e-12
1.45042e-12
3.65603e-12
4.08795e-12
1.15807e-12
9.96525e-13
8.48292e-13
6.98683e-13
5.64979e-13
4.78433e-13
1.07028e-12
1.30682e-12
3.59374e-12
4.01377e-12
1.15043e-12
1.01065e-12
8.81504e-13
7.47691e-13
6.19196e-13
5.10724e-13
9.20066e-13
1.17878e-12
3.53883e-12
3.94203e-12
1.13912e-12
1.01869e-12
9.07009e-13
7.88488e-13
6.69008e-13
5.52677e-13
7.90787e-13
1.06534e-12
8.00898e-10
1.08305e-11
1.12734e-12
1.02173e-12
9.26325e-13
8.2222e-13
7.13101e-13
5.97546e-13
6.82655e-13
9.66221e-13
1.23996e-07
1.70704e-08
1.21477e-10
1.03961e-12
9.37226e-13
8.4788e-13
7.50072e-13
6.38947e-13
5.94925e-13
8.85718e-13
5.07303e-12
5.03623e-12
7.45925e-13
4.98883e-13
2.71982e-13
1.53342e-13
2.67722e-13
4.5603e-13
1.48701e-12
1.34805e-12
5.00301e-12
5.01135e-12
7.72561e-13
5.36422e-13
3.10657e-13
1.24643e-13
1.64369e-13
3.52023e-13
1.47781e-12
1.37034e-12
4.9358e-12
4.98216e-12
7.91827e-13
5.72644e-13
3.60274e-13
1.61936e-13
7.70453e-14
2.53872e-13
1.3709e-12
1.29568e-12
4.87075e-12
4.94804e-12
8.07478e-13
6.05802e-13
4.09995e-13
2.19848e-13
4.494e-14
1.63886e-13
1.27356e-12
1.22667e-12
4.80863e-12
4.91105e-12
8.19979e-13
6.36014e-13
4.57144e-13
2.80221e-13
1.07755e-13
8.62156e-14
1.18469e-12
1.16264e-12
4.7492e-12
4.87188e-12
8.29227e-13
6.6224e-13
4.99994e-13
3.36944e-13
1.75844e-13
4.8621e-14
1.10422e-12
1.10395e-12
4.69259e-12
4.83156e-12
8.35487e-13
6.84634e-13
5.38202e-13
3.8889e-13
2.38792e-13
9.18358e-14
1.03227e-12
1.05031e-12
4.64234e-12
4.79097e-12
8.38755e-13
7.03131e-13
5.71569e-13
4.35318e-13
2.9595e-13
1.52027e-13
9.68266e-13
1.0018e-12
8.9082e-10
1.11041e-11
8.42619e-13
7.18332e-13
6.00672e-13
4.76696e-13
3.48106e-13
2.10622e-13
9.12327e-13
9.57986e-13
1.95259e-07
8.69007e-09
7.97199e-11
7.96765e-13
6.25061e-13
5.13267e-13
3.95209e-13
2.65966e-13
8.64177e-13
9.2762e-13
5.75712e-12
5.33171e-12
6.46442e-13
6.08221e-13
5.1084e-13
4.41732e-13
4.00461e-13
3.96275e-13
1.24595e-12
1.03479e-12
5.69418e-12
5.33712e-12
5.77494e-13
5.47621e-13
4.58308e-13
3.93879e-13
3.55071e-13
3.55462e-13
1.3107e-12
1.11404e-12
5.63621e-12
5.34203e-12
5.16847e-13
4.93317e-13
4.11071e-13
3.49479e-13
3.12084e-13
3.13408e-13
1.26844e-12
1.09107e-12
5.57962e-12
5.34061e-12
4.67891e-13
4.47655e-13
3.70926e-13
3.11578e-13
2.73748e-13
2.74704e-13
1.22821e-12
1.06861e-12
5.52483e-12
5.33434e-12
4.30047e-13
4.11001e-13
3.39226e-13
2.8073e-13
2.40768e-13
2.39305e-13
1.18995e-12
1.04751e-12
5.47237e-12
5.32463e-12
4.02053e-13
3.8217e-13
3.14364e-13
2.56314e-13
2.13639e-13
2.08287e-13
1.1536e-12
1.02702e-12
5.42166e-12
5.31188e-12
3.81466e-13
3.5998e-13
2.96216e-13
2.38924e-13
1.93281e-13
1.81333e-13
1.11907e-12
1.00789e-12
5.37661e-12
5.29716e-12
3.67177e-13
3.43381e-13
2.83786e-13
2.27418e-13
1.78723e-13
1.59746e-13
1.08647e-12
9.89185e-13
9.39967e-10
1.09508e-11
3.62606e-13
3.31678e-13
2.76101e-13
2.21676e-13
1.71486e-13
1.44373e-13
1.05511e-12
9.71335e-13
2.3923e-07
6.0096e-09
5.67337e-11
3.35359e-13
2.73906e-13
2.23728e-13
1.74873e-13
1.43171e-13
1.02666e-12
9.80375e-13
5.76338e-12
5.30232e-12
6.5364e-13
6.34015e-13
5.40482e-13
4.66461e-13
4.1203e-13
3.89143e-13
1.17629e-12
9.87568e-13
5.70023e-12
5.31001e-12
5.69055e-13
5.64427e-13
4.83892e-13
4.19305e-13
3.71762e-13
3.56245e-13
1.25109e-12
1.07066e-12
5.64251e-12
5.31776e-12
4.932e-13
5.00378e-13
4.30818e-13
3.73842e-13
3.31711e-13
3.19806e-13
1.21684e-12
1.05127e-12
5.58624e-12
5.31906e-12
4.2895e-13
4.43949e-13
3.83444e-13
3.32901e-13
2.9504e-13
2.86152e-13
1.18404e-12
1.03245e-12
5.53205e-12
5.31566e-12
3.7663e-13
3.96134e-13
3.42814e-13
2.96876e-13
2.62053e-13
2.5488e-13
1.15252e-12
1.01463e-12
5.47991e-12
5.30855e-12
3.35164e-13
3.56058e-13
3.08455e-13
2.66117e-13
2.32866e-13
2.26107e-13
1.12254e-12
9.97704e-13
5.4296e-12
5.29821e-12
3.034e-13
3.22833e-13
2.79924e-13
2.40256e-13
2.07904e-13
2.0038e-13
1.09367e-12
9.81575e-13
5.38505e-12
5.28594e-12
2.80519e-13
2.962e-13
2.56971e-13
2.19339e-13
1.86893e-13
1.77739e-13
1.06625e-12
9.66139e-13
9.39967e-10
1.09469e-11
2.71108e-13
2.75415e-13
2.3935e-13
2.03639e-13
1.71259e-13
1.5898e-13
1.03968e-12
9.51371e-13
2.3923e-07
6.0096e-09
5.67115e-11
2.51751e-13
2.28253e-13
1.96464e-13
1.6575e-13
1.51717e-13
1.01534e-12
9.7339e-13
5.08273e-12
4.9563e-12
7.02749e-13
5.15141e-13
3.33129e-13
2.28521e-13
2.62886e-13
3.93145e-13
1.24724e-12
1.19279e-12
5.01437e-12
4.93984e-12
7.05862e-13
5.21681e-13
3.35809e-13
1.9483e-13
1.82911e-13
3.08366e-13
1.27139e-12
1.22706e-12
4.94921e-12
4.91955e-12
7.11164e-13
5.36166e-13
3.5645e-13
1.97686e-13
1.18911e-13
2.23817e-13
1.1935e-12
1.16522e-12
4.88626e-12
4.8939e-12
7.1812e-13
5.53947e-13
3.84898e-13
2.24383e-13
9.0224e-14
1.45147e-13
1.12232e-12
1.10819e-12
4.82602e-12
4.86514e-12
7.25983e-13
5.73586e-13
4.17077e-13
2.6336e-13
1.14281e-13
7.45108e-14
1.05746e-12
1.05599e-12
4.76831e-12
4.83362e-12
7.3348e-13
5.93192e-13
4.49778e-13
3.05896e-13
1.61414e-13
3.09398e-14
9.99319e-13
1.0088e-12
4.71331e-12
4.80047e-12
7.39736e-13
6.11386e-13
4.80993e-13
3.47922e-13
2.12309e-13
7.1449e-14
9.47469e-13
9.66257e-13
4.66456e-12
4.76628e-12
7.44523e-13
6.27741e-13
5.09847e-13
3.87494e-13
2.61377e-13
1.2712e-13
9.01594e-13
9.28169e-13
8.90823e-10
1.10978e-11
7.50509e-13
6.42077e-13
5.36028e-13
4.24322e-13
3.07561e-13
1.8085e-13
8.61838e-13
8.94786e-13
1.95259e-07
8.69007e-09
7.96793e-11
7.14753e-13
5.58856e-13
4.57729e-13
3.50538e-13
2.32598e-13
8.28234e-13
8.84763e-13
4.03348e-12
4.3657e-12
9.48882e-13
6.54634e-13
3.94481e-13
2.17069e-13
3.33814e-13
6.09053e-13
1.53903e-12
1.75596e-12
3.95946e-12
4.31179e-12
9.97213e-13
7.33367e-13
4.98225e-13
3.0609e-13
2.92343e-13
4.94553e-13
1.44902e-12
1.67959e-12
3.88569e-12
4.24925e-12
1.02723e-12
7.93935e-13
5.83882e-13
3.96807e-13
3.05093e-13
4.07544e-13
1.27128e-12
1.5168e-12
3.8149e-12
4.18439e-12
1.04662e-12
8.40346e-13
6.53097e-13
4.77244e-13
3.5176e-13
3.6009e-13
1.11171e-12
1.36943e-12
3.74794e-12
4.11895e-12
1.05842e-12
8.76634e-13
7.1021e-13
5.47935e-13
4.11943e-13
3.53871e-13
9.6977e-13
1.23689e-12
3.68465e-12
4.05364e-12
1.06367e-12
9.03832e-13
7.56902e-13
6.09398e-13
4.74105e-13
3.78064e-13
8.45243e-13
1.11869e-12
3.62496e-12
3.98908e-12
1.06397e-12
9.23867e-13
7.94615e-13
6.61807e-13
5.32717e-13
4.19594e-13
7.37618e-13
1.01421e-12
3.57223e-12
3.9259e-12
1.05987e-12
9.37808e-13
8.24922e-13
7.06256e-13
5.86219e-13
4.67888e-13
6.47622e-13
9.22845e-13
8.00901e-10
1.08305e-11
1.05483e-12
9.47018e-13
8.48992e-13
7.43735e-13
6.33854e-13
5.17277e-13
5.75064e-13
8.44575e-13
1.23996e-07
1.70704e-08
1.21447e-10
9.72166e-13
8.65031e-13
7.73405e-13
6.74095e-13
5.62645e-13
5.20079e-13
7.87823e-13
2.98058e-12
3.65028e-12
1.2416e-12
1.03727e-12
8.77414e-13
7.89067e-13
8.65334e-13
1.16341e-12
2.26638e-12
3.0432e-12
2.90406e-12
3.56114e-12
1.26487e-12
1.0911e-12
9.48084e-13
8.45815e-13
8.50695e-13
1.03457e-12
1.97948e-12
2.72718e-12
2.82467e-12
3.461e-12
1.26389e-12
1.11903e-12
9.96813e-13
8.9561e-13
8.58624e-13
9.4834e-13
1.6334e-12
2.3479e-12
2.75017e-12
3.36306e-12
1.25329e-12
1.13324e-12
1.03085e-12
9.3823e-13
8.81814e-13
9.06023e-13
1.33068e-12
2.01628e-12
2.68042e-12
3.26802e-12
1.2362e-12
1.1379e-12
1.05379e-12
9.73077e-13
9.11815e-13
8.94749e-13
1.06834e-12
1.72664e-12
2.61546e-12
3.17678e-12
1.21461e-12
1.13484e-12
1.06754e-12
1.00004e-12
9.41996e-13
9.02281e-13
8.40741e-13
1.47413e-12
2.555e-12
3.08918e-12
1.18972e-12
1.12606e-12
1.07357e-12
1.01907e-12
9.68451e-13
9.193e-13
6.43611e-13
1.25514e-12
2.50239e-12
3.00582e-12
1.16273e-12
1.11288e-12
1.07359e-12
1.03136e-12
9.89758e-13
9.39693e-13
4.73485e-13
1.06637e-12
6.8564e-10
9.94374e-12
1.13611e-12
1.09653e-12
1.0686e-12
1.03783e-12
1.00609e-12
9.59921e-13
3.29541e-13
9.0536e-13
4.55407e-08
2.32699e-08
1.31234e-10
1.00851e-12
1.05556e-12
1.03713e-12
1.0142e-12
9.74365e-13
2.01603e-13
7.72948e-13
2.13227e-12
2.94408e-12
1.42303e-12
1.3875e-12
1.38937e-12
1.44677e-12
1.64856e-12
2.14237e-12
3.93537e-12
6.25204e-12
2.05555e-12
2.8295e-12
1.39753e-12
1.38252e-12
1.39698e-12
1.44574e-12
1.58644e-12
1.92369e-12
3.26222e-12
5.27606e-12
1.97533e-12
2.70506e-12
1.34994e-12
1.35191e-12
1.37905e-12
1.4286e-12
1.53558e-12
1.76418e-12
2.60067e-12
4.34429e-12
1.90141e-12
2.5877e-12
1.29895e-12
1.31411e-12
1.35229e-12
1.40702e-12
1.49918e-12
1.65948e-12
2.05688e-12
3.57247e-12
1.83389e-12
2.4777e-12
1.24692e-12
1.27243e-12
1.31996e-12
1.38096e-12
1.4691e-12
1.5903e-12
1.61193e-12
2.93271e-12