/*--------------------------------*- C++ -*----------------------------------*\
| =========                 |                                                 |
| \\      /  F ield         | OpenFOAM: The Open Source CFD Toolbox           |
|  \\    /   O peration     | Version:  4.1                                   |
|   \\  /    A nd           | Web:      www.OpenFOAM.org                      |
|    \\/     M anipulation  |                                                 |
\*---------------------------------------------------------------------------*/
FoamFile
{
    version     2.0;
    format      ascii;
    class       surfaceScalarField;
    location    "0.22";
    object      phi;
}
// * * * * * * * * * * * * * * * * * * * * * * * * * * * * * * * * * * * * * //

dimensions      [1 0 -1 0 0 0 0];

internalField   nonuniform List<scalar> 
51500
(
3.69913e-13
9.88282e-15
1.55091e-11
-2.04138e-15
1.7492e-14
1.53286e-11
-2.09108e-15
1.6758e-14
1.51504e-11
-2.1043e-15
1.58603e-14
1.49743e-11
-2.05566e-15
1.48808e-14
1.48007e-11
-2.03774e-15
1.38429e-14
1.46293e-11
-2.04492e-15
1.27714e-14
1.44603e-11
-2.01323e-15
1.16803e-14
1.42937e-11
-1.98934e-15
1.05612e-14
1.41294e-11
9.4255e-15
1.39691e-11
-7.39426e-17
3.75705e-13
7.11672e-15
1.95466e-11
-9.42178e-15
9.42281e-15
1.88346e-11
-7.94967e-15
8.23381e-15
1.81529e-11
-7.79167e-15
7.17413e-15
1.75001e-11
-7.57907e-15
5.96181e-15
1.6876e-11
-7.37604e-15
4.77703e-15
1.62789e-11
-7.18218e-15
3.65882e-15
1.57075e-11
-7.00013e-15
2.61522e-15
1.51604e-11
-6.69631e-15
1.63035e-15
1.46362e-11
7.12594e-16
1.41391e-11
-7.35089e-16
3.79481e-13
8.93557e-15
2.49571e-11
-1.92097e-14
9.49731e-15
2.33819e-11
-1.55374e-14
7.89613e-15
2.19234e-11
-1.48582e-14
6.45372e-15
2.05729e-11
-1.41713e-14
5.15743e-15
1.93228e-11
-1.35852e-14
3.98759e-15
1.81644e-11
-1.29853e-14
2.93875e-15
1.70908e-11
-1.24649e-14
1.9914e-15
1.60938e-11
-1.16895e-14
1.14754e-15
1.51676e-11
4.18932e-16
1.43121e-11
-1.41423e-15
3.79879e-13
1.14394e-14
3.23249e-11
-3.23925e-14
1.14137e-14
2.93517e-11
-2.52652e-14
9.25821e-15
2.67029e-11
-2.36348e-14
7.38182e-15
2.4335e-11
-2.2115e-14
5.76567e-15
2.22202e-11
-2.07355e-14
4.3678e-15
2.03267e-11
-1.94683e-14
3.15736e-15
1.86273e-11
-1.83063e-14
2.10175e-15
1.70993e-11
-1.6881e-14
1.18651e-15
1.57226e-11
4.17742e-16
1.44882e-11
-2.15323e-15
3.73958e-13
1.49371e-14
4.25358e-11
-5.00854e-14
1.39177e-14
3.72979e-11
-3.79353e-14
1.09526e-14
3.28217e-11
-3.45931e-14
8.50319e-15
2.89767e-11
-3.16236e-14
6.48007e-15
2.56697e-11
-2.90001e-14
4.80138e-15
2.28136e-11
-2.67095e-14
3.39299e-15
2.03376e-11
-2.46485e-14
2.21693e-15
1.81839e-11
-2.23341e-14
1.23222e-15
1.63033e-11
4.3572e-16
1.4668e-11
-2.91108e-15
3.56866e-13
1.99682e-14
5.69635e-11
-8.16546e-14
1.72504e-14
4.80351e-11
-5.44979e-14
1.31243e-14
4.07456e-11
-4.83334e-14
9.87285e-15
3.47493e-11
-4.30686e-14
7.32001e-15
2.97988e-11
-3.86336e-14
5.28389e-15
2.56843e-11
-3.47964e-14
3.65665e-15
2.22452e-11
-3.14854e-14
2.34002e-15
1.93543e-11
-2.8021e-14
1.27685e-15
1.6911e-11
4.36596e-16
1.48502e-11
-3.73356e-15
3.19036e-13
2.41159e-14
7.77956e-11
-1.39542e-13
3.43593e-14
6.27871e-11
-7.65374e-14
2.65273e-14
5.11297e-11
-6.57285e-14
1.89704e-14
4.19917e-11
-5.69822e-14
1.19742e-14
3.47708e-11
-4.97949e-14
7.44433e-15
2.90109e-11
-4.3869e-14
5.12081e-15
2.43771e-11
-3.88882e-14
3.31822e-15
2.0619e-11
-3.40052e-14
1.89978e-15
1.75477e-11
7.7112e-16
1.50357e-11
-4.56818e-15
2.46428e-13
-1.42906e-14
1.08621e-10
-2.08866e-13
-1.97975e-14
8.3419e-11
-1.0607e-13
-2.97407e-14
6.49187e-11
-8.79231e-14
-3.65329e-14
5.11593e-11
-7.38461e-14
-4.12819e-14
4.07938e-11
-6.28297e-14
-4.46549e-14
3.28802e-11
-5.39875e-14
-4.70725e-14
2.67655e-11
-4.68369e-14
-4.88377e-14
2.19874e-11
-4.01928e-14
-5.01408e-14
1.82142e-11
-5.14974e-14
1.52253e-11
-5.46503e-15
1.35853e-12
-3.02512e-10
1.5494e-10
8.21913e-13
-3.12057e-10
1.12291e-10
7.46125e-13
-3.12216e-10
8.33855e-11
6.7818e-13
-3.12243e-10
6.32206e-11
6.17258e-13
-3.12202e-10
4.89143e-11
5.63034e-13
-3.12118e-10
3.85937e-11
5.14883e-13
-3.12006e-10
3.10397e-11
4.72133e-13
-3.11875e-10
2.54399e-11
4.33092e-13
-3.11736e-10
2.12403e-11
-3.13565e-10
1.81013e-11
-6.39874e-15
-2.74219e-11
5.53288e-08
-8.97367e-07
1.24235e-10
4.62354e-08
-9.38552e-07
1.20784e-10
3.99756e-08
-9.40191e-07
1.16582e-10
3.48926e-08
-9.4154e-07
1.12288e-10
3.07101e-08
-9.42692e-07
1.08039e-10
2.72296e-08
-9.43688e-07
1.03921e-10
2.43037e-08
-9.4456e-07
1.00011e-10
2.18216e-08
-9.4533e-07
8.11884e-11
1.9699e-08
-9.46026e-07
1.79778e-08
-7.37149e-15
-9.59252e-07
3.44312e-13
9.37141e-14
2.32933e-13
-2.08123e-14
8.80853e-14
2.28618e-13
-2.61361e-14
7.7543e-14
2.24626e-13
-2.56404e-14
6.73411e-14
2.19677e-13
-2.53707e-14
5.74916e-14
2.15207e-13
-2.51148e-14
4.79759e-14
2.11339e-13
-2.49578e-14
3.87845e-14
2.06866e-13
-2.47325e-14
2.99108e-14
2.03218e-13
-2.69285e-14
2.13192e-14
1.99464e-13
1.30893e-14
1.95617e-13
-1.57491e-15
2.83226e-13
8.94114e-14
3.26592e-13
-7.55011e-14
8.09936e-14
3.09328e-13
-8.92419e-14
6.85591e-14
2.93766e-13
-8.63894e-14
5.67409e-14
2.77244e-13
-8.39449e-14
4.54753e-14
2.62171e-13
-8.15748e-14
3.43277e-14
2.47777e-13
-7.92997e-14
2.2197e-14
2.34707e-13
-7.74335e-14
1.44256e-14
2.22495e-13
-8.23222e-14
7.96177e-15
2.11376e-13
2.62766e-15
1.99974e-13
-4.35134e-15
1.91316e-13
1.13135e-13
4.64173e-13
-1.91153e-13
1.00258e-13
4.22725e-13
-1.70604e-13
8.36026e-14
3.87946e-13
-1.61966e-13
6.84403e-14
3.52217e-13
-1.54168e-13
5.47686e-14
3.2084e-13
-1.46854e-13
4.24392e-14
2.92848e-13
-1.40017e-13
3.1321e-14
2.67597e-13
-1.33901e-13
2.13192e-14
2.44952e-13
-1.40197e-13
1.23311e-14
2.24458e-13
4.30435e-15
2.05472e-13
-7.15508e-15
6.51088e-14
1.39801e-13
6.74404e-13
-3.29326e-13
1.20342e-13
5.89996e-13
-2.75793e-13
9.79337e-14
5.19759e-13
-2.55904e-13
7.83198e-14
4.53292e-13
-2.38342e-13
6.12555e-14
3.96911e-13
-2.22373e-13
4.64288e-14
3.48585e-13
-2.07701e-13
3.35675e-14
3.07149e-13
-1.9473e-13
2.2404e-14
2.71752e-13
-2.00047e-13
1.27008e-14
2.40127e-13
4.36146e-15
2.11532e-13
-1.0097e-14
-6.87179e-14
1.74859e-13
1.00395e-12
-5.06327e-13
1.45923e-13
8.40164e-13
-4.11582e-13
1.15616e-13
7.07771e-13
-3.72791e-13
9.01005e-14
5.90295e-13
-3.39242e-13
6.87757e-14
4.95904e-13
-3.09478e-13
5.09365e-14
4.18527e-13
-2.83014e-13
3.6007e-14
3.54784e-13
-2.60195e-13
2.35238e-14
3.02119e-13
-2.62105e-13
1.30862e-14
2.58186e-13
4.40154e-15
2.18595e-13
-1.32318e-14
-2.58243e-13
2.21683e-13
1.53581e-12
-7.39561e-13
1.78946e-13
1.21894e-12
-5.8744e-13
1.37607e-13
9.77292e-13
-5.18208e-13
1.04306e-13
7.77314e-13
-4.60084e-13
7.75395e-14
6.24418e-13
-4.10071e-13
5.60052e-14
5.05549e-13
-3.66836e-13
3.86904e-14
4.12299e-13
-3.30283e-13
2.47339e-14
3.38553e-13
-3.266e-13
1.34978e-14
2.79285e-13
4.43594e-15
2.27252e-13
-1.63127e-14
-7.06559e-13
2.83487e-13
2.41227e-12
-1.05222e-12
2.21346e-13
1.8096e-12
-8.15406e-13
1.6484e-13
1.3704e-12
-6.99465e-13
1.21224e-13
1.03458e-12
-6.04906e-13
8.76375e-14
7.92748e-13
-5.25982e-13
6.17324e-14
6.14355e-13
-4.59987e-13
4.16698e-14
4.80981e-13
-4.05263e-13
2.61335e-14
3.80814e-13
-3.93647e-13
1.40569e-14
3.02595e-13
4.74357e-15
2.37257e-13
-1.94254e-14
-1.27709e-12
4.08871e-13
3.91165e-12
-1.47601e-12
2.44883e-13
2.74811e-12
-1.11195e-12
1.73527e-13
1.95328e-12
-9.25372e-13
1.22333e-13
1.39488e-12
-7.78063e-13
8.52068e-14
1.01607e-12
-6.59603e-13
5.79863e-14
7.51454e-13
-5.63214e-13
3.78588e-14
5.64597e-13
-4.85682e-13
2.28634e-14
4.29269e-13
-4.62982e-13
1.16273e-14
3.2962e-13
3.22865e-15
2.48217e-13
-2.26655e-14
-2.14089e-12
9.84655e-12
6.71967e-12
-2.03206e-12
7.02484e-13
3.91407e-12
-1.46526e-12
1.33134e-13
2.57811e-12
-1.1877e-12
-3.74301e-13
1.72853e-12
-9.7551e-13
-8.48386e-13
1.19783e-12
-8.09633e-13
-1.29077e-12
8.54701e-13
-6.78506e-13
-1.70356e-12
6.27821e-13
-5.75558e-13
-2.08891e-12
4.74517e-13
-5.43961e-13
-2.44898e-12
3.67407e-13
-2.7697e-12
2.81761e-13
-2.59417e-14
-2.81001e-10
2.70154e-09
3.67601e-08
-1.41389e-10
9.05271e-10
-7.69398e-10
-1.35623e-10
6.6723e-10
-7.73931e-10
-1.28238e-10
5.0539e-10
-7.4919e-10
-1.21546e-10
3.89977e-10
-7.2476e-10
-1.15464e-10
3.05955e-10
-7.01676e-10
-1.0992e-10
2.43686e-10
-6.80327e-10
-1.04852e-10
1.96795e-10
-6.60872e-10
-1.00309e-10
1.6097e-10
-6.43847e-10
1.32587e-10
-2.9417e-14
-6.00824e-10
3.48184e-13
8.15843e-14
1.15342e-14
-1.80318e-14
7.74734e-14
9.99122e-15
-2.10313e-14
6.83643e-14
8.63472e-15
-1.98129e-14
5.95553e-14
7.09144e-15
-1.89418e-14
5.10427e-14
5.66306e-15
-1.95602e-14
4.27871e-14
3.99654e-15
-1.86853e-14
3.48423e-14
3.11247e-15
-1.89915e-14
2.71477e-14
2.58385e-15
-2.33552e-14
1.97084e-14
1.82376e-15
1.25751e-14
1.77375e-15
-1.41315e-15
2.97074e-13
5.85474e-14
1.87231e-14
-6.58101e-14
5.38029e-14
1.64106e-14
-6.95056e-14
4.5579e-14
1.63038e-14
-6.56415e-14
3.7798e-14
1.29739e-14
-6.40985e-14
3.05358e-14
1.03435e-14
-6.15491e-14
2.38135e-14
8.38936e-15
-5.9825e-14
1.75957e-14
6.45307e-15
-5.92074e-14
1.19179e-14
4.9586e-15
-7.12393e-14
6.80198e-15
4.33131e-15
2.37215e-15
3.13498e-15
-4.40576e-15
2.19237e-13
7.4707e-14
2.73203e-14
-1.65662e-13
6.74423e-14
2.52744e-14
-1.31427e-13
5.66526e-14
2.58954e-14
-1.21363e-13
4.67904e-14
2.14566e-14
-1.14804e-13
3.78281e-14
1.76529e-14
-1.08533e-13
2.96445e-14
1.3998e-14
-1.02464e-13
2.22059e-14
1.18576e-14
-1.01871e-13
1.56991e-14
1.00381e-14
-1.21134e-13
9.31045e-15
8.34166e-15
3.31387e-15
6.3384e-15
-7.27738e-15
9.74702e-14
9.27799e-14
4.45537e-14
-2.88939e-13
8.11937e-14
4.35467e-14
-2.07392e-13
6.65624e-14
4.41365e-14
-1.83157e-13
5.36783e-14
3.59456e-14
-1.70328e-13
4.24402e-14
2.98128e-14
-1.58646e-13
3.25818e-14
2.48172e-14
-1.46849e-13
2.39524e-14
2.09237e-14
-1.46684e-13
1.6288e-14
1.76987e-14
-1.72898e-13
9.62612e-15
1.57111e-14
3.38617e-15
1.09258e-14
-1.03457e-14
-1.939e-14
1.16846e-13
7.71623e-14
-4.45155e-13
9.87226e-14
7.65816e-14
-2.94829e-13
7.87582e-14
7.37625e-14
-2.61784e-13
6.18905e-14
6.05671e-14
-2.38245e-13
4.77336e-14
4.94211e-14
-2.16884e-13
3.58371e-14
4.0908e-14
-1.97831e-13
2.5832e-14
3.45584e-14
-1.86428e-13
1.76818e-14
2.97561e-14
-2.26609e-13
1.00772e-14
2.57438e-14
3.48784e-15
1.74423e-14
-1.33459e-14
-1.54579e-13
1.49281e-13
1.36142e-13
-6.49614e-13
1.21716e-13
1.3594e-13
-4.12462e-13
9.40567e-14
1.23249e-13
-3.59565e-13
7.18245e-14
9.89331e-14
-3.19021e-13
5.3958e-14
7.99217e-14
-2.83896e-13
3.94824e-14
6.513e-14
-2.53405e-13
2.77603e-14
5.40871e-14
-2.31422e-13
1.86812e-14
4.57166e-14
-2.82418e-13
1.03583e-14
3.83616e-14
3.51154e-15
2.58611e-14
-1.65336e-14
-5.64737e-13
1.93857e-13
2.41535e-13
-9.2271e-13
1.51785e-13
2.37834e-13
-5.65051e-13
1.13344e-13
2.03036e-13
-4.80687e-13
8.39305e-14
1.5843e-13
-4.15365e-13
6.12878e-14
1.24692e-13
-3.60613e-13
4.37352e-14
9.95359e-14
-3.14479e-13
3.01854e-14
8.10566e-14
-2.80229e-13
1.96324e-14
6.63709e-14
-3.40274e-13
1.07656e-14
5.52702e-14
3.65221e-15
3.6099e-14
-1.97403e-14
-1.08998e-12
3.02189e-13
4.34202e-13
-1.29037e-12
2.67068e-13
4.13082e-13
-7.64078e-13
1.94386e-13
3.31917e-13
-6.31633e-13
1.3741e-13
2.48274e-13
-5.30286e-13
9.62603e-14
1.89543e-13
-4.48403e-13
6.61672e-14
1.4739e-13
-3.82461e-13
4.38817e-14
1.16244e-13
-3.31754e-13
2.71962e-14
9.33783e-14
-4.0026e-13
1.4439e-14
7.61345e-14
4.19758e-15
4.78626e-14
-2.30564e-14
-1.90919e-12
9.10615e-12
1.52583e-12
-1.78368e-12
5.71938e-13
7.09563e-13
-1.02528e-12
3.72387e-13
5.31782e-13
-8.20028e-13
2.5218e-13
3.8274e-13
-6.6748e-13
1.67684e-13
2.81835e-13
-5.49441e-13
1.07467e-13
2.12003e-13
-4.56963e-13
6.42064e-14
1.42352e-13
-3.87111e-13
3.29559e-14
1.2673e-13
-4.62808e-13
1.02282e-14
1.00641e-13
-6.08731e-15
5.97859e-14
-2.64005e-14
-1.25382e-10
1.77832e-09
3.44335e-08
-6.82569e-12
2.09063e-11
2.7834e-11
-6.66138e-12
7.51884e-12
2.58997e-12
-5.41126e-12
4.87906e-12
3.83301e-12
-4.43848e-12
3.28987e-12
3.15884e-12
-3.68387e-12
2.29302e-12
2.5906e-12
-3.0904e-12
1.64015e-12
2.84443e-12
-2.61982e-12
1.19685e-12
3.0722e-12
-2.26268e-12
8.89824e-13
3.16531e-12
6.40591e-13
-2.99765e-14
3.80724e-12
3.48132e-13
8.12136e-14
1.09321e-14
-1.81696e-14
7.71529e-14
9.95208e-15
-2.08796e-14
6.81021e-14
8.62628e-15
-1.96035e-14
5.93247e-14
6.64165e-15
-1.92124e-14
5.08521e-14
4.30658e-15
-1.92813e-14
4.26581e-14
3.52974e-15
-1.80661e-14
3.47428e-14
2.08205e-15
-1.91021e-14
2.70739e-14
7.57161e-16
-2.3184e-14
1.96891e-14
4.10775e-16
1.25808e-14
4.80996e-17
-1.55063e-15
2.97395e-13
5.81185e-14
1.93403e-14
-6.564e-14
5.34431e-14
1.72664e-14
-6.89601e-14
4.52714e-14
1.71726e-14
-6.47267e-14
3.75757e-14
1.33246e-14
-6.2894e-14
3.0374e-14
9.64074e-15
-6.07094e-14
2.36774e-14
7.16598e-15
-5.90341e-14
1.75246e-14
5.45562e-15
-5.80957e-14
1.18936e-14
4.26127e-15
-7.09261e-14
6.79429e-15
2.86485e-15
2.39677e-15
1.71486e-15
-4.3637e-15
2.2017e-13
7.4004e-14
2.77769e-14
-1.65e-13
6.68407e-14
2.61648e-14
-1.29134e-13
5.61417e-14
2.79605e-14
-1.16156e-13
4.62853e-14
2.13486e-14
-1.11388e-13
3.7384e-14
1.73141e-14
-1.03731e-13
2.9319e-14
1.48381e-14
-9.90522e-14
2.18586e-14
1.14334e-14
-1.00777e-13
1.51014e-14
9.64076e-15
-1.20463e-13
9.2334e-15
8.13686e-15
3.24312e-15
5.78438e-15
-7.25331e-15
9.87605e-14
9.19109e-14
4.55171e-14
-2.87639e-13
8.04442e-14
4.57091e-14
-1.99567e-13
6.59084e-14
4.82781e-14
-1.792e-13
5.31711e-14
3.94054e-14
-1.66945e-13
4.19736e-14
3.21055e-14
-1.55452e-13
3.21502e-14
2.74849e-14
-1.44596e-13
2.35694e-14
2.21447e-14
-1.40837e-13
1.60171e-14
1.93143e-14
-1.72131e-13
9.50398e-15
1.63457e-14
3.4361e-15
1.09112e-14
-1.03619e-14
-1.72432e-14
1.15725e-13
8.0693e-14
-4.43022e-13
9.78506e-14
8.42038e-14
-2.88605e-13
7.80399e-14
8.30358e-14
-2.58121e-13
6.12921e-14
6.70401e-14
-2.34697e-13
4.72701e-14
5.58277e-14
-2.13711e-13
3.54402e-14
4.58459e-14
-1.94956e-13
2.54342e-14
3.89371e-14
-1.82651e-13
1.70683e-14
3.3403e-14
-2.25708e-13
9.92866e-15
2.90896e-14
3.57528e-15
2.03368e-14
-1.3353e-14
-1.51475e-13
1.47791e-13
1.4132e-13
-6.46273e-13
1.20606e-13
1.48515e-13
-4.06177e-13
9.31929e-14
1.40412e-13
-3.55053e-13
7.11814e-14
1.12503e-13
-3.1519e-13
5.34397e-14
9.19311e-14
-2.80463e-13
3.90617e-14
7.62562e-14
-2.50323e-13
2.74223e-14
6.37008e-14
-2.28749e-13
1.79588e-14
5.2829e-14
-2.81297e-13
1.03785e-14
4.61397e-14
3.62267e-15
2.99354e-14
-1.6626e-14
-5.57208e-13
1.91915e-13
2.52507e-13
-9.17445e-13
1.50412e-13
2.64393e-13
-5.57841e-13
1.12374e-13
2.32029e-13
-4.75453e-13
8.31756e-14
1.82957e-13
-4.11018e-13
6.0722e-14
1.45692e-13
-3.56776e-13
4.32984e-14
1.18323e-13
-3.11661e-13
2.96676e-14
9.56526e-14
-2.77198e-13
1.90624e-14
8.07365e-14
-3.39235e-13
1.08378e-14
6.78688e-14
3.66069e-15
4.33399e-14
-1.9829e-14
-1.07848e-12
3.00467e-13
4.51e-13
-1.28179e-12
1.84283e-13
4.59901e-13
-7.55886e-13
1.38136e-13
3.79346e-13
-6.25335e-13
9.93089e-14
2.90173e-13
-5.25325e-13
7.11329e-14
2.24566e-13
-4.44602e-13
5.28609e-14
1.76806e-13
-3.79345e-13
3.5973e-14
1.40408e-13
-3.28818e-13
2.25855e-14
1.14168e-13
-3.99535e-13
1.23133e-14
9.3005e-14
4.54421e-15
6.12181e-14
-2.30573e-14
-1.89339e-12
9.08977e-12
2.10282e-12
-1.77036e-12
3.12084e-13
8.03885e-13
-1.01595e-12
2.56318e-13
6.16645e-13
-8.13345e-13
1.72369e-13
4.51237e-13
-6.62477e-13
1.14855e-13
3.35771e-13
-5.4563e-13
7.50721e-14
2.5631e-13
-4.54043e-13
4.7168e-14
1.98407e-13
-3.84459e-13
2.7342e-14
1.57194e-13
-4.61866e-13
1.1953e-14
1.24758e-13
2.13652e-15
7.64077e-14
-2.65393e-14
-1.22033e-10
2.73122e-09
3.54629e-08
-2.35754e-12
1.13329e-11
2.85554e-11
-1.37069e-12
1.15707e-12
4.54542e-13
-1.09201e-12
7.81554e-13
3.38555e-13
-8.58659e-13
5.55266e-13
2.60163e-13
-6.85835e-13
4.04495e-13
1.74999e-13
-5.55218e-13
3.01704e-13
1.08769e-13
-4.58453e-13
2.29263e-13
8.93344e-14
-5.37641e-13
1.77048e-13
7.63405e-14
1.0842e-13
-3.00697e-14
7.12818e-14
3.47986e-13
8.13444e-14
1.87162e-14
-1.84533e-14
7.72612e-14
1.59449e-14
-2.09923e-14
6.81943e-14
1.24577e-14
-2.01206e-14
5.94003e-14
8.35697e-15
-1.88061e-14
5.09122e-14
8.24405e-15
-1.94244e-14
4.27007e-14
4.15397e-15
-1.88704e-14
3.47857e-14
4.09625e-15
-1.88494e-14
2.71346e-14
3.00429e-15
-2.32241e-14
1.97301e-14
8.90843e-16
1.26206e-14
3.45021e-16
-1.64278e-15
2.97096e-13
5.82574e-14
2.93477e-14
-6.59786e-14
5.35657e-14
2.37071e-14
-6.91272e-14
4.53771e-14
2.21381e-14
-6.53647e-14
3.7646e-14
1.80708e-14
-6.28376e-14
3.04529e-14
1.25344e-14
-6.08929e-14
2.37569e-14
9.97774e-15
-5.87492e-14
1.75855e-14
7.15579e-15
-5.84765e-14
1.19455e-14
6.72441e-15
-7.09812e-14
6.84766e-15
5.05676e-15
2.44648e-15
2.17696e-15
-4.37497e-15
2.1966e-13
7.42195e-14
4.06071e-14
-1.65685e-13
6.70322e-14
3.64637e-14
-1.30104e-13
5.63139e-14
3.82926e-14
-1.15916e-13
4.64693e-14
3.17216e-14
-1.10747e-13
3.75139e-14
2.42022e-14
-1.0468e-13
2.94319e-14
1.86068e-14
-9.87238e-14
2.19623e-14
1.69844e-14
-1.01148e-13
1.51839e-14
1.24592e-14
-1.20506e-13
9.19219e-15
1.35045e-14
3.13379e-15
6.95821e-15
-7.39729e-15
9.82078e-14
9.23002e-14
6.96912e-14
-2.88578e-13
8.07948e-14
6.73823e-14
-2.0041e-13
6.61746e-14
6.47197e-14
-1.79758e-13
5.33788e-14
5.31841e-14
-1.67016e-13
4.21745e-14
4.40712e-14
-1.56084e-13
3.22717e-14
3.44917e-14
-1.44625e-13
2.37076e-14
3.46915e-14
-1.41485e-13
1.61656e-14
2.80739e-14
-1.72334e-13
9.71681e-15
2.54814e-14
3.66172e-15
1.8834e-14
-1.02507e-14
-1.82495e-14
1.163e-13
1.09293e-13
-4.4463e-13
9.83298e-14
1.13285e-13
-2.89643e-13
7.84639e-14
1.12146e-13
-2.58653e-13
6.16438e-14
9.26721e-14
-2.35567e-13
4.7553e-14
7.91774e-14
-2.14091e-13
3.57332e-14
6.79001e-14
-1.95368e-13
2.56728e-14
5.71537e-14
-1.83063e-13
1.7163e-14
4.58564e-14
-2.26066e-13
1.00128e-14
4.24174e-14
3.64289e-15
2.55224e-14
-1.33971e-14
-1.53124e-13
1.48727e-13
2.01705e-13
-6.48791e-13
1.21402e-13
2.05479e-13
-4.07874e-13
9.38112e-14
1.88741e-13
-3.56278e-13
7.16898e-14
1.52642e-13
-3.16166e-13
5.3859e-14
1.23338e-13
-2.81361e-13
3.93932e-14
1.05729e-13
-2.51176e-13
2.7669e-14
8.38034e-14
-2.29142e-13
1.82743e-14
7.66752e-14
-2.82055e-13
1.06518e-14
6.25707e-14
3.83117e-15
4.15157e-14
-1.65649e-14
-5.61839e-13
1.93388e-13
3.51925e-13
-9.21821e-13
1.51571e-13
3.57802e-13
-5.60396e-13
1.13281e-13
3.20308e-13
-4.77566e-13
8.38963e-14
2.44598e-13
-4.12693e-13
6.13006e-14
1.99878e-13
-3.58371e-13
4.37602e-14
1.57661e-13
-3.12712e-13
3.00617e-14
1.29718e-13
-2.78169e-13
1.93013e-14
1.05726e-13
-3.40486e-13
1.10718e-14
8.86075e-14
3.9818e-15
5.86224e-14
-1.98183e-14
-1.08725e-12
3.03211e-13
6.23363e-13
-1.28905e-12
1.85702e-13
6.27964e-13
-7.60134e-13
1.39121e-13
5.1224e-13
-6.28809e-13
9.99858e-14
3.8979e-13
-5.28085e-13
7.15066e-14
3.02358e-13
-4.46971e-13
5.28478e-14
2.35404e-13
-3.81156e-13
3.63192e-14
1.90301e-13
-3.30475e-13
2.2934e-14
1.52821e-13
-4.0131e-13
1.26169e-14
1.2484e-13
4.78875e-15
8.07924e-14
-2.31555e-14
-1.90963e-12
9.08039e-12
2.80508e-12
-1.78241e-12
3.10465e-13
1.09066e-12
-1.02304e-12
2.42694e-13
8.29615e-13
-8.18918e-13
1.62845e-13
6.05171e-13
-6.66768e-13
1.05961e-13
4.5712e-13
-5.49212e-13
6.50005e-14
3.47483e-13
-4.56807e-13
3.05274e-14
2.6822e-13
-3.86861e-13
1.68915e-14
2.10782e-13
-4.64623e-13
8.6798e-15
1.69729e-13
3.24966e-15
1.09966e-13
-2.6558e-14
-1.22909e-10
3.53537e-09
3.60606e-08
-2.30659e-12
1.66991e-11
2.90466e-11
-1.32897e-12
1.29335e-12
1.7894e-13
-1.05854e-12
8.86591e-13
8.7491e-14
-8.33815e-13
6.36353e-13
6.52516e-14
-6.66839e-13
4.69031e-13
5.01826e-14
-5.40705e-13
3.52456e-13
3.93782e-14
-4.46702e-13
2.69904e-13
3.14115e-14
-5.30184e-13
2.08571e-13
2.54006e-14
1.28125e-13
-3.01736e-14
2.08557e-14
3.47685e-13
8.15065e-14
1.93546e-14
-1.88082e-14
7.73998e-14
1.57534e-14
-2.147e-14
6.82997e-14
1.6965e-14
-1.99218e-14
5.95021e-14
1.29381e-14
-1.96731e-14
5.09756e-14
7.41914e-15
-1.92566e-14
4.2768e-14
5.10627e-15
-1.8872e-14
3.4833e-14
2.63103e-15
-1.92008e-14
2.71812e-14
1.54698e-15
-2.32728e-14
1.97834e-14
9.93601e-16
1.26641e-14
3.07322e-16
-1.53176e-15
2.96644e-13
5.84391e-14
3.33759e-14
-6.64701e-14
5.37277e-14
3.23881e-14
-6.91735e-14
4.55272e-14
3.09303e-14
-6.61654e-14
3.77615e-14
2.23207e-14
-6.26047e-14
3.05644e-14
2.00681e-14
-6.13469e-14
2.38464e-14
1.30283e-14
-5.83155e-14
1.76686e-14
8.87314e-15
-5.86172e-14
1.2014e-14
5.89475e-15
-7.11113e-14
6.919e-15
5.69425e-15
2.50576e-15
4.26169e-15
-4.3921e-15
2.18947e-13
7.45385e-14
4.7393e-14
-1.66605e-13
6.73051e-14
4.65698e-14
-1.30642e-13
5.65254e-14
4.71092e-14
-1.16417e-13
4.66602e-14
4.06812e-14
-1.11163e-13
3.76751e-14
3.19451e-14
-1.04605e-13
2.95303e-14
2.59131e-14
-9.93542e-14
2.21452e-14
1.88042e-14
-1.00617e-13
1.53908e-14
1.90418e-14
-1.20738e-13
9.19091e-15
1.2964e-14
3.46525e-15
1.02989e-14
-7.38125e-15
9.74054e-14
9.27667e-14
8.07938e-14
-2.89909e-13
8.1217e-14
8.04735e-14
-2.00755e-13
6.6541e-14
8.54667e-14
-1.80268e-13
5.3687e-14
7.0679e-14
-1.68122e-13
4.24565e-14
5.67448e-14
-1.55657e-13
3.2576e-14
4.56645e-14
-1.4532e-13
2.38767e-14
3.59751e-14
-1.41786e-13
1.62718e-14
3.47483e-14
-1.72554e-13
9.8795e-15
2.77642e-14
3.6814e-15
1.74195e-14
-1.03346e-14
-1.96084e-14
1.17111e-13
1.44158e-13
-4.46675e-13
9.90096e-14
1.5129e-13
-2.90924e-13
7.90054e-14
1.48317e-13
-2.59585e-13
6.2097e-14
1.20543e-13
-2.36339e-13
4.78999e-14
9.55898e-14
-2.14901e-13
3.60196e-14
7.90636e-14
-1.95975e-13
2.5912e-14
6.31361e-14
-1.83258e-13
1.74444e-14
5.61767e-14
-2.26656e-13
1.01662e-14
4.70471e-14
3.90788e-15
3.18708e-14
-1.33752e-14
-1.55375e-13
1.49963e-13
2.42624e-13
-6.52213e-13
1.22415e-13
2.69766e-13
-4.09922e-13
9.46552e-14
2.48612e-13
-3.58023e-13
7.23423e-14
1.97526e-13
-3.17383e-13
5.44312e-14
1.59568e-13
-2.82756e-13
3.98347e-14
1.23522e-13
-2.51948e-13
2.80621e-14
1.0674e-13
-2.3003e-13
1.84752e-14
8.65517e-14
-2.83027e-13
1.09239e-14
7.55352e-14
4.05766e-15
4.93157e-14
-1.65467e-14
-5.68202e-13
1.95335e-13
4.37444e-13
-9.27432e-13
1.53137e-13
4.76919e-13
-5.64161e-13
1.14456e-13
3.95165e-13
-4.80134e-13
8.4852e-14
3.16433e-13
-4.15119e-13
6.20297e-14
2.42135e-13
-3.60223e-13
4.43548e-14
1.95318e-13
-3.14386e-13
3.05633e-14
1.58266e-13
-2.79391e-13
1.97308e-14
1.36433e-13
-3.42041e-13
1.14251e-14
1.12885e-13
4.31523e-15
6.93216e-14
-1.98251e-14
-1.09895e-12
3.06903e-13
7.86807e-13
-1.29876e-12
1.88046e-13
8.15083e-13
-7.65812e-13
1.40869e-13
6.5201e-13
-6.33361e-13
1.0129e-13
4.92184e-13
-5.31828e-13
7.25375e-14
3.72925e-13
-4.49894e-13
5.34768e-14
2.9341e-13
-3.83722e-13
3.69839e-14
2.29909e-13
-3.32558e-13
2.34986e-14
1.8634e-13
-4.03652e-13
1.30839e-14
1.56529e-13
5.17322e-15
9.53096e-14
-2.31807e-14
-1.93185e-12
9.1798e-12
3.5571e-12
-1.79842e-12
3.14607e-13
1.40006e-12
-1.03249e-12
2.46097e-13
1.05564e-12
-8.26141e-13
1.65512e-13
7.67139e-13
-6.72578e-13
1.07911e-13
5.57885e-13
-5.53887e-13
6.65617e-14
4.20348e-13
-4.60524e-13
3.14057e-14
3.21083e-13
-3.89978e-13
1.74382e-14
2.54593e-13
-4.68099e-13
9.04907e-15
2.0373e-13
3.637e-15
1.26355e-13
-2.66907e-14
-1.2403e-10
4.96944e-09
3.62813e-08
-2.33046e-12
2.29671e-11
2.94736e-11
-1.34359e-12
1.71843e-12
1.74632e-13
-1.06976e-12
1.15983e-12
8.31843e-14
-8.42358e-13
8.26368e-13
6.33662e-14
-6.73545e-13
6.01925e-13
4.93809e-14
-5.46058e-13
4.45527e-13
3.91677e-14
-4.51111e-13
3.36524e-13
3.15831e-14
-5.35066e-13
2.67749e-13
2.58532e-14
1.59909e-13
-3.02959e-14
2.15585e-14
3.47265e-13
8.1708e-14
2.71293e-14
-1.91535e-14
7.75863e-14
2.57833e-14
-2.18854e-14
6.84382e-14
2.12363e-14
-2.04189e-14
5.96131e-14
1.6394e-14
-1.97798e-14
5.1089e-14
1.11169e-14
-1.97334e-14
4.28544e-14
5.61491e-15
-1.87499e-14
3.49174e-14
3.60316e-15
-1.91693e-14
2.72441e-14
2.75446e-15
-2.33309e-14
1.98435e-14
1.87886e-15
1.27338e-14
2.07525e-15
-1.5786e-15
2.96124e-13
5.86608e-14
4.52889e-14
-6.70251e-14
5.39204e-14
4.22528e-14
-6.9788e-14
4.56899e-14
4.11261e-14
-6.59565e-14
3.79143e-14
3.1584e-14
-6.36855e-14
3.06729e-14
2.25716e-14
-6.12982e-14
2.39589e-14
1.34061e-14
-5.90399e-14
1.77649e-14
9.54169e-15
-5.85436e-14
1.21212e-14
7.27813e-15
-7.1118e-14
7.00115e-15
6.61216e-15
2.57473e-15
5.22942e-15
-4.42116e-15
2.18085e-13
7.49168e-14
6.64241e-14
-1.67756e-13
6.76268e-14
6.53191e-14
-1.30886e-13
5.68024e-14
6.59134e-14
-1.1746e-13
4.68836e-14
5.24404e-14
-1.11114e-13
3.78893e-14
4.11598e-14
-1.05683e-13
2.96979e-14
2.76049e-14
-9.86504e-14
2.23101e-14
2.02347e-14
-1.01469e-13
1.54797e-14
1.59189e-14
-1.20844e-13
9.38489e-15
1.48094e-14
3.43574e-15
1.24794e-14
-7.43806e-15
9.64224e-14
9.338e-14
1.07098e-13
-2.91504e-13
8.17478e-14
1.12309e-13
-2.01466e-13
6.69876e-14
1.12586e-13
-1.81135e-13
5.40607e-14
9.06691e-14
-1.68648e-13
4.2778e-14
7.35504e-14
-1.56424e-13
3.28822e-14
6.03284e-14
-1.45272e-13
2.40978e-14
4.11309e-14
-1.4244e-13
1.64857e-14
3.26624e-14
-1.72973e-13
9.89571e-15
2.74661e-14
3.96847e-15
2.15195e-14
-1.03066e-14
-2.13599e-14
1.18065e-13
1.88282e-13
-4.49167e-13
9.98302e-14
1.98872e-13
-2.92466e-13
7.96818e-14
1.90619e-13
-2.60849e-13
6.26494e-14
1.53893e-13
-2.37155e-13
4.83707e-14
1.25422e-13
-2.16113e-13
3.63793e-14
1.03526e-13
-1.96345e-13
2.62912e-14
7.71489e-14
-1.84176e-13
1.76651e-14
5.9213e-14
-2.27278e-13
1.04882e-14
4.81731e-14
4.14403e-15
3.28019e-14
-1.34541e-14
-1.58126e-13
1.51503e-13
3.373e-13
-6.56353e-13
1.23669e-13
3.52077e-13
-4.1253e-13
9.56419e-14
3.20274e-13
-3.60008e-13
7.31646e-14
2.55981e-13
-3.19203e-13
5.50893e-14
2.06678e-13
-2.84009e-13
4.04014e-14
1.69349e-13
-2.53382e-13
2.84936e-14
1.33267e-13
-2.30803e-13
1.88936e-14
9.55425e-14
-2.84181e-13
1.12606e-14
7.77585e-14
4.3315e-15
4.83817e-14
-1.65701e-14
-5.75991e-13
1.97742e-13
6.00469e-13
-9.34472e-13
1.55043e-13
6.15604e-13
-5.6824e-13
1.15944e-13
5.31495e-13
-4.83674e-13
8.60018e-14
4.14522e-13
-4.17875e-13
6.29455e-14
3.27712e-13
-3.62561e-13
4.51039e-14
2.60645e-13
-3.16447e-13
3.11776e-14
2.07901e-13
-2.80903e-13
2.01529e-14
1.44675e-13
-3.43962e-13
1.18276e-14
1.16292e-13
4.69184e-15
7.05503e-14
-1.98361e-14
-1.11346e-12
3.11468e-13
1.07666e-12
-1.31055e-12
1.90794e-13
1.07861e-12
-7.72874e-13
1.43036e-13
8.74544e-13
-6.39046e-13
1.02936e-13
6.57658e-13
-5.36265e-13
7.37722e-14
5.0309e-13
-4.53615e-13
5.36825e-14
3.89776e-13
-3.86884e-13
3.77853e-14
3.04751e-13
-3.35055e-13
2.42072e-14
2.15745e-13
-4.06557e-13
1.36543e-14
1.63938e-13
5.64367e-15
9.84182e-14
-2.32783e-14
-1.96003e-12
9.46031e-12
4.60301e-12
-1.818e-12
3.20188e-13
1.89228e-12
-1.04414e-12
2.51064e-13
1.42705e-12
-8.35236e-13
1.68998e-13
1.02939e-12
-6.79699e-13
1.10523e-13
7.59936e-13
-5.59601e-13
6.8714e-14
5.68731e-13
-4.65064e-13
3.25917e-14
4.34043e-13
-3.93845e-13
1.81191e-14
3.2442e-13
-4.72389e-13
9.50037e-15
2.24557e-13
4.1152e-15
1.33023e-13
-2.67861e-14
-1.30576e-10
6.64987e-09
3.86759e-08
-2.36522e-12
2.75623e-11
3.13354e-11
-1.36129e-12
2.33489e-12
1.72646e-13
-1.08392e-12
1.58284e-12
8.35745e-14
-8.53256e-13
1.12182e-12
6.38693e-14
-6.82038e-13
8.11804e-13
4.99293e-14
-5.52835e-13
5.99425e-13
3.97382e-14
-4.56568e-13
4.46792e-13
3.21798e-14
-5.41149e-13
2.98131e-13
2.64763e-14
1.74475e-13
-3.03824e-14
2.22607e-14
3.46827e-13
8.19323e-14
3.0227e-14
-1.97021e-14
7.77424e-14
1.89064e-14
-2.21681e-14
6.85934e-14
1.74565e-14
-2.07224e-14
5.97358e-14
1.34497e-14
-2.02669e-14
5.11955e-14
1.1699e-14
-1.97285e-14
4.29577e-14
1.11306e-14
-1.93885e-14
3.50217e-14
1.22539e-14
-1.92783e-14
2.73618e-14
2.48335e-14
-2.356e-14
1.99682e-14
9.60409e-14
1.28734e-14
3.3616e-13
-1.76812e-15
2.9543e-13
5.89278e-14
4.45342e-14
-6.75741e-14
5.41375e-14
3.20228e-14
-7.04734e-14
4.5857e-14
3.36265e-14
-6.64123e-14
3.80715e-14
2.68417e-14
-6.41143e-14
3.08125e-14
3.00487e-14
-6.11159e-14
2.40896e-14
2.008e-14
-5.9013e-14
1.78844e-14
1.93935e-14
-5.94883e-14
1.22313e-14
2.61099e-14
-7.17229e-14
7.1391e-15
6.44518e-14
2.68443e-15
2.19673e-13
-4.24877e-15
2.17041e-13
7.532e-14
6.41786e-14
-1.69e-13
6.79603e-14
5.01677e-14
-1.31411e-13
5.71056e-14
5.52428e-14
-1.18315e-13
4.71327e-14
4.56495e-14
-1.1142e-13
3.81283e-14
3.82982e-14
-1.05728e-13
2.99494e-14
3.45293e-14
-9.9472e-14
2.25115e-14
3.33487e-14
-1.01015e-13
1.56676e-14
3.52645e-14
-1.2181e-13
9.37385e-15
5.58745e-14
3.59145e-15
1.50746e-13
-7.19325e-15
9.53359e-14
9.40823e-14
1.08102e-13
-2.93174e-13
8.23018e-14
9.12005e-14
-2.02667e-13
6.74481e-14
9.73457e-14
-1.81976e-13
5.44629e-14
8.15257e-14
-1.6891e-13
4.31233e-14
6.95077e-14
-1.57294e-13
3.31573e-14
7.53056e-14
-1.45937e-13
2.43956e-14
5.63606e-14
-1.41902e-13
1.67855e-14
5.44743e-14
-1.74054e-13
1.00594e-14
6.41123e-14
4.23927e-15
1.19908e-13
-1.01449e-14
-2.33529e-14
1.19187e-13
2.11043e-13
-4.51782e-13
1.00714e-13
1.69221e-13
-2.94089e-13
8.04173e-14
1.70283e-13
-2.62162e-13
6.32836e-14
1.41914e-13
-2.38115e-13
4.89145e-14
1.19551e-13
-2.17104e-13
3.6883e-14
1.34251e-13
-1.97246e-13
2.66609e-14
7.28846e-14
-1.85128e-13
1.79745e-14
8.46132e-14
-2.28612e-13
1.0827e-14
8.53411e-14
4.32158e-15
1.11078e-13
-1.32934e-14
-1.61414e-13
1.53243e-13
4.01771e-13
-6.60622e-13
1.24997e-13
3.10036e-13
-4.15129e-13
9.67397e-14
2.91953e-13
-3.62269e-13
7.4076e-14
2.38381e-13
-3.20783e-13
5.58596e-14
1.98461e-13
-2.85891e-13
4.10187e-14
2.1279e-13
-2.54873e-13
2.90663e-14
1.15175e-13
-2.31928e-13
1.92633e-14
1.28365e-13
-2.86077e-13
1.16144e-14
1.17713e-13
4.77886e-15
1.17699e-13
-1.65467e-14
-5.85188e-13
2.00542e-13
7.47101e-13
-9.41505e-13
1.57105e-13
5.57189e-13
-5.72741e-13
1.17576e-13
4.9016e-13
-4.87303e-13
8.72937e-14
3.8827e-13
-4.20929e-13
6.39724e-14
3.52039e-13
-3.65063e-13
4.59523e-14
3.27874e-13
-3.19199e-13
3.18425e-14
2.74971e-13
-2.82668e-13
2.07281e-14
1.62776e-13
-3.46582e-13
1.22199e-14
1.62019e-13
5.06722e-15
1.35557e-13
-1.98357e-14
-1.1298e-12
3.16243e-13
1.368e-12
-1.32239e-12
1.94584e-13
1.00107e-12
-7.80436e-13
1.45412e-13
8.92341e-13
-6.45014e-13
1.04763e-13
7.07577e-13
-5.41175e-13
7.52183e-14
5.82575e-13
-4.57611e-13
5.43492e-14
4.94241e-13
-3.90765e-13
3.88025e-14
4.11044e-13
-3.38139e-13
2.5035e-14
2.08479e-13
-4.10332e-13
1.43452e-14
2.19763e-13
6.19683e-15
1.63142e-13
-2.32841e-14
-1.98552e-12
8.08515e-12
4.78014e-12
-1.83828e-12
3.19678e-13
2.02378e-12
-1.05645e-12
2.5871e-13
1.599e-12
-8.44716e-13
1.72933e-13
1.19209e-12
-6.87572e-13
1.13496e-13
9.18363e-13
-5.65689e-13
7.11657e-14
7.29864e-13
-4.70644e-13
3.40221e-14
5.82744e-13
-3.98461e-13
1.89563e-14
2.98783e-13
-4.77795e-13
1.0045e-14
2.32796e-13
4.69442e-15
1.99416e-13
-2.68336e-14
-1.18474e-10
3.07531e-09
3.86073e-08
-2.34361e-12
1.58587e-11
2.14625e-11
-1.38454e-12
2.71169e-12
1.17242e-13
-1.09901e-12
1.90606e-12
8.39337e-14