/*--------------------------------*- C++ -*----------------------------------*\
| =========                 |                                                 |
| \\      /  F ield         | OpenFOAM: The Open Source CFD Toolbox           |
|  \\    /   O peration     | Version:  4.1                                   |
|   \\  /    A nd           | Web:      www.OpenFOAM.org                      |
|    \\/     M anipulation  |                                                 |
\*---------------------------------------------------------------------------*/
FoamFile
{
    version     2.0;
    format      ascii;
    class       volVectorField;
    location    "0.22";
    object      U;
}
// * * * * * * * * * * * * * * * * * * * * * * * * * * * * * * * * * * * * * //

dimensions      [0 1 -1 0 0 0 0];

internalField   nonuniform List<vector> 
18000
(
(7.6792e-14 3.92671e-13 -6.50295e-12)
(8.3461e-14 3.90825e-13 -6.42717e-12)
(7.56245e-14 -9.98827e-15 -6.35225e-12)
(6.79705e-14 -1.10727e-14 -6.27844e-12)
(6.05189e-14 -1.09209e-14 -6.20566e-12)
(5.32509e-14 -1.07452e-14 -6.13379e-12)
(4.6182e-14 -1.06826e-14 -6.06296e-12)
(3.93246e-14 -1.05915e-14 -5.99312e-12)
(3.26366e-14 -1.04793e-14 -5.92428e-12)
(2.61417e-14 -8.59664e-15 -5.8571e-12)
(1.01023e-13 4.07371e-13 -8.19503e-12)
(1.18679e-13 3.98023e-13 -7.89644e-12)
(1.04715e-13 -3.96249e-14 -7.6101e-12)
(9.15352e-14 -3.95273e-14 -7.33656e-12)
(7.92108e-14 -3.82169e-14 -7.07507e-12)
(6.76609e-14 -3.69171e-14 -6.82488e-12)
(5.68028e-14 -3.56776e-14 -6.58544e-12)
(4.66582e-14 -3.45084e-14 -6.35619e-12)
(3.71087e-14 -3.33825e-14 -6.13651e-12)
(2.81901e-14 -2.67419e-14 -5.92827e-12)
(1.02751e-13 4.16246e-13 -1.04625e-11)
(1.19232e-13 3.97676e-13 -9.80204e-12)
(9.92648e-14 -8.11876e-14 -9.18964e-12)
(8.13108e-14 -7.77596e-14 -8.62378e-12)
(6.52313e-14 -7.31759e-14 -8.10001e-12)
(5.07975e-14 -6.90445e-14 -7.61465e-12)
(3.78327e-14 -6.52246e-14 -7.16478e-12)
(2.61863e-14 -6.16613e-14 -6.747e-12)
(1.57249e-14 -5.83207e-14 -6.35892e-12)
(6.34915e-15 -4.55904e-14 -6.00057e-12)
(1.35993e-13 4.14535e-13 -1.35493e-11)
(1.48994e-13 3.84916e-13 -1.23028e-11)
(1.20339e-13 -1.3934e-13 -1.11911e-11)
(9.57486e-14 -1.28737e-13 -1.01992e-11)
(7.46978e-14 -1.17995e-13 -9.31326e-12)
(5.66244e-14 -1.08399e-13 -8.51998e-12)
(4.11402e-14 -9.97808e-14 -7.80802e-12)
(2.77895e-14 -9.20177e-14 -7.1678e-12)
(1.63246e-14 -8.49496e-14 -6.59094e-12)
(6.46213e-15 -6.50774e-14 -6.07403e-12)
(1.83747e-13 3.93255e-13 -1.7826e-11)
(1.89041e-13 3.51468e-13 -1.56303e-11)
(1.47529e-13 -2.21072e-13 -1.37526e-11)
(1.13652e-13 -1.97267e-13 -1.21423e-11)
(8.60229e-14 -1.75355e-13 -1.07572e-11)
(6.34225e-14 -1.56499e-13 -9.56084e-12)
(4.48423e-14 -1.40248e-13 -8.52367e-12)
(2.95562e-14 -1.2615e-13 -7.62144e-12)
(1.69514e-14 -1.13703e-13 -6.83355e-12)
(6.56582e-15 -8.52577e-14 -6.14896e-12)
(2.54105e-13 3.37357e-13 -2.38669e-11)
(2.44093e-13 2.83286e-13 -2.01248e-11)
(1.83174e-13 -3.37127e-13 -1.70687e-11)
(1.36096e-13 -2.8954e-13 -1.4558e-11)
(9.96729e-14 -2.48971e-13 -1.2485e-11)
(7.12531e-14 -2.15553e-13 -1.07619e-11)
(4.8979e-14 -1.87763e-13 -9.32155e-12)
(3.14509e-14 -1.64391e-13 -8.1107e-12)
(1.76171e-14 -1.44563e-13 -7.08724e-12)
(6.67458e-15 -1.06164e-13 -6.22476e-12)
(3.60868e-13 2.199e-13 -3.25862e-11)
(3.21456e-13 1.57005e-13 -2.62974e-11)
(2.30648e-13 -5.03851e-13 -2.14126e-11)
(1.64565e-13 -4.15125e-13 -1.75877e-11)
(1.16182e-13 -3.44087e-13 -1.45647e-11)
(8.03486e-14 -2.88136e-13 -1.21532e-11)
(5.35818e-14 -2.43442e-13 -1.02129e-11)
(3.3473e-14 -2.07372e-13 -8.63908e-12)
(1.8287e-14 -1.77837e-13 -7.3528e-12)
(6.75995e-15 -1.27814e-13 -6.30178e-12)
(2.27395e-13 -7.74891e-15 -4.54836e-11)
(1.43022e-13 -6.85097e-14 -3.49267e-11)
(2.28682e-14 -7.46805e-13 -2.7179e-11)
(-5.48603e-14 -5.87375e-13 -2.14215e-11)
(-1.05379e-13 -4.67529e-13 -1.70834e-11)
(-1.37999e-13 -3.77687e-13 -1.37709e-11)
(-1.58718e-13 -3.08998e-13 -1.12111e-11)
(-1.71396e-13 -2.5559e-13 -9.21058e-12)
(-1.78631e-13 -2.13559e-13 -7.63062e-12)
(-1.83549e-13 -1.50246e-13 -6.3804e-12)
(-1.85617e-09 -4.63007e-13 -6.86182e-11)
(-1.77966e-09 -4.35874e-13 -5.03021e-11)
(-1.66374e-09 -1.0581e-12 -3.76198e-11)
(-1.56146e-09 -7.82385e-13 -2.86741e-11)
(-1.47073e-09 -5.9003e-13 -2.2238e-11)
(-1.38976e-09 -4.53557e-13 -1.75188e-11)
(-1.31708e-09 -3.54567e-13 -1.39993e-11)
(-1.25152e-09 -2.81386e-13 -1.13337e-11)
(-1.1921e-09 -2.29964e-13 -9.28564e-12)
(-1.14522e-09 -1.7537e-13 -7.71181e-12)
(2.0217e-07 -1.96636e-10 -2.26229e-08)
(2.4267e-08 1.86204e-10 -1.94013e-08)
(2.03414e-08 2.90833e-10 -1.67813e-08)
(1.72987e-08 2.57259e-10 -1.46518e-08)
(1.47816e-08 2.28585e-10 -1.28993e-08)
(1.26749e-08 2.04264e-10 -1.14405e-08)
(1.08933e-08 1.83498e-10 -1.02139e-08)
(9.37262e-09 1.65631e-10 -9.17301e-09)
(8.02551e-09 1.3109e-10 -8.28252e-09)
(-2.71012e-08 -1.8159e-11 -7.56334e-09)
(2.69748e-13 3.69232e-13 -6.62986e-12)
(2.52246e-13 3.44431e-13 -6.5519e-12)
(2.21161e-13 -5.59052e-14 -6.47466e-12)
(1.9127e-13 -5.64366e-14 -6.39837e-12)
(1.62551e-13 -5.58078e-14 -6.32334e-12)
(1.34935e-13 -5.51453e-14 -6.24951e-12)
(1.08378e-13 -5.45596e-14 -6.17635e-12)
(8.28565e-14 -5.39491e-14 -6.10461e-12)
(5.82726e-14 -5.3051e-14 -6.03378e-12)
(3.48721e-14 -3.07006e-14 -5.96455e-12)
(5.44487e-13 3.18838e-13 -8.37219e-12)
(5.00256e-13 2.25382e-13 -8.06439e-12)
(4.28448e-13 -2.06228e-13 -7.76888e-12)
(3.61511e-13 -1.99943e-13 -7.48684e-12)
(2.99167e-13 -1.92808e-13 -7.21755e-12)
(2.41066e-13 -1.85979e-13 -6.95983e-12)
(1.86908e-13 -1.79451e-13 -6.71352e-12)
(1.36421e-13 -1.73271e-13 -6.47778e-12)
(8.93142e-14 -1.66458e-13 -6.25214e-12)
(4.57025e-14 -9.45824e-14 -6.03793e-12)
(6.72166e-13 2.29046e-13 -1.0715e-11)
(5.95197e-13 3.86382e-14 -1.00315e-11)
(4.91963e-13 -4.18217e-13 -9.39862e-12)
(3.99849e-13 -3.93607e-13 -8.81395e-12)
(3.17856e-13 -3.6958e-13 -8.27359e-12)
(2.44808e-13 -3.47317e-13 -7.77337e-12)
(1.79686e-13 -3.26711e-13 -7.31002e-12)
(1.21639e-13 -3.07616e-13 -6.88009e-12)
(6.99208e-14 -2.88744e-13 -6.48095e-12)
(2.41042e-14 -1.61531e-13 -6.11287e-12)
(8.77259e-13 7.75033e-14 -1.3916e-11)
(7.48987e-13 -2.49125e-13 -1.26219e-11)
(6.00356e-13 -7.1654e-13 -1.14695e-11)
(4.73687e-13 -6.54163e-13 -1.04424e-11)
(3.65958e-13 -5.96851e-13 -9.52648e-12)
(2.74202e-13 -5.45733e-13 -8.70745e-12)
(1.96005e-13 -4.99916e-13 -7.97336e-12)
(1.2935e-13 -4.5871e-13 -7.31417e-12)
(7.25028e-14 -4.19995e-13 -6.72032e-12)
(2.45069e-14 -2.31123e-13 -6.18906e-12)
(1.16353e-12 -1.71673e-13 -1.83709e-11)
(9.54517e-13 -6.89573e-13 -1.60821e-11)
(7.39543e-13 -1.13713e-12 -1.41291e-11)
(5.65004e-13 -1.00485e-12 -1.24565e-11)
(4.23348e-13 -8.89211e-13 -1.10213e-11)
(3.0809e-13 -7.89619e-13 -9.78384e-12)
(2.14207e-13 -7.03419e-13 -8.71273e-12)
(1.3768e-13 -6.28631e-13 -7.78239e-12)
(7.52595e-14 -5.61152e-13 -6.97104e-12)
(2.48533e-14 -3.03699e-13 -6.26703e-12)
(1.57121e-12 -5.76308e-13 -2.46987e-11)
(1.23358e-12 -1.36276e-12 -2.07759e-11)
(9.20377e-13 -1.73316e-12 -1.75848e-11)
(6.78887e-13 -1.47818e-12 -1.49683e-11)
(4.92187e-13 -1.26564e-12 -1.28144e-11)
(3.47258e-13 -1.08966e-12 -1.10284e-11)
(2.3451e-13 -9.42805e-13 -9.53869e-12)
(1.46646e-13 -8.19646e-13 -8.28879e-12)
(7.81725e-14 -7.12969e-13 -7.23394e-12)
(2.51666e-14 -3.79322e-13 -6.34651e-12)
(2.16544e-12 -1.23287e-12 -3.38899e-11)
(1.61873e-12 -2.3968e-12 -2.72572e-11)
(1.15818e-12 -2.58374e-12 -2.2131e-11)
(8.22073e-13 -2.11975e-12 -1.81289e-11)
(5.75175e-13 -1.75173e-12 -1.49787e-11)
(3.927e-13 -1.4592e-12 -1.24733e-11)
(2.57218e-13 -1.22436e-12 -1.04629e-11)
(1.56369e-13 -1.03442e-12 -8.83658e-12)
(8.11847e-14 -8.76344e-13 -7.50927e-12)
(2.55644e-14 -4.58263e-13 -6.42768e-12)
(3.06879e-12 -2.30815e-12 -4.75935e-11)
(2.16557e-12 -4.00103e-12 -3.63744e-11)
(1.4788e-12 -3.80841e-12 -2.81956e-11)
(1.00603e-12 -2.99447e-12 -2.21449e-11)
(6.7704e-13 -2.38113e-12 -1.76085e-11)
(4.45862e-13 -1.91498e-12 -1.41579e-11)
(2.82193e-13 -1.55588e-12 -1.15007e-11)
(1.65764e-13 -1.2761e-12 -9.4298e-12)
(8.26689e-14 -1.05203e-12 -7.79818e-12)
(2.38618e-14 -5.40396e-13 -6.51069e-12)
(-1.16354e-12 -4.17735e-12 -7.20794e-11)
(-4.28922e-11 -6.60423e-12 -5.24932e-11)
(-3.51285e-11 -5.64435e-12 -3.90525e-11)
(-2.90272e-11 -4.24136e-12 -2.96333e-11)
(-2.4249e-11 -3.24013e-12 -2.28999e-11)
(-2.04571e-11 -2.51432e-12 -1.79874e-11)
(-1.74122e-11 -1.97857e-12 -1.43393e-11)
(-1.49409e-11 -1.57704e-12 -1.15863e-11)
(-1.29157e-11 -1.26735e-12 -9.47705e-12)
(-1.11892e-11 -6.48996e-13 -7.86086e-12)
(1.17434e-07 -5.70664e-10 -2.33007e-08)
(-3.24076e-09 -4.76858e-10 -1.9911e-08)
(-3.05794e-09 -2.98666e-10 -1.71604e-08)
(-2.78185e-09 -2.62414e-10 -1.49396e-08)
(-2.53858e-09 -2.32501e-10 -1.31215e-08)
(-2.32645e-09 -2.0733e-10 -1.16148e-08)
(-2.1419e-09 -1.85967e-10 -1.03526e-08)
(-1.98131e-09 -1.67692e-10 -9.28472e-09)
(-1.84325e-09 -1.51806e-10 -8.37352e-09)
(-1.98205e-09 -1.42481e-10 -7.63789e-09)
(2.28474e-13 3.74995e-13 -1.3132e-13)
(2.15631e-13 3.49337e-13 -1.2864e-13)
(1.89081e-13 -5.11996e-14 -1.25452e-13)
(1.63716e-13 -5.17882e-14 -1.22527e-13)
(1.39453e-13 -5.10343e-14 -1.1983e-13)
(1.16158e-13 -5.04814e-14 -1.17234e-13)
(9.39468e-14 -4.99492e-14 -1.14649e-13)
(7.26411e-14 -4.92846e-14 -1.12623e-13)
(5.22441e-14 -4.85196e-14 -1.10333e-13)
(3.29167e-14 -2.54332e-14 -1.08366e-13)
(4.99859e-13 3.40441e-13 -1.83525e-13)
(4.6148e-13 2.43145e-13 -1.73552e-13)
(3.95261e-13 -1.89153e-13 -1.63478e-13)
(3.336e-13 -1.83267e-13 -1.54093e-13)
(2.76279e-13 -1.76634e-13 -1.4562e-13)
(2.22907e-13 -1.70284e-13 -1.37642e-13)
(1.73267e-13 -1.64152e-13 -1.30181e-13)
(1.26996e-13 -1.58367e-13 -1.23229e-13)
(8.38795e-14 -1.52088e-13 -1.17179e-13)
(4.40819e-14 -7.88884e-14 -1.10996e-13)
(6.17583e-13 2.7423e-13 -2.62799e-13)
(5.48837e-13 7.4282e-14 -2.386e-13)
(4.53199e-13 -3.84539e-13 -2.16429e-13)
(3.67968e-13 -3.61676e-13 -1.96501e-13)
(2.92274e-13 -3.39126e-13 -1.78895e-13)
(2.24997e-13 -3.18408e-13 -1.6286e-13)
(1.65116e-13 -2.99283e-13 -1.4885e-13)
(1.1186e-13 -2.81578e-13 -1.36175e-13)
(6.43832e-14 -2.63919e-13 -1.24537e-13)
(2.25335e-14 -1.34918e-13 -1.1476e-13)
(8.10202e-13 1.58259e-13 -3.84027e-13)
(6.93432e-13 -1.88858e-13 -3.34311e-13)
(5.54981e-13 -6.60909e-13 -2.9094e-13)
(4.37212e-13 -6.02629e-13 -2.5334e-13)
(3.37389e-13 -5.48942e-13 -2.21725e-13)
(2.52566e-13 -5.01227e-13 -1.94564e-13)
(1.80457e-13 -4.58475e-13 -1.71316e-13)
(1.19128e-13 -4.20332e-13 -1.5136e-13)
(6.69283e-14 -3.84329e-13 -1.33866e-13)
(2.29675e-14 -1.93654e-13 -1.18998e-13)
(1.08125e-12 -3.75278e-14 -5.75221e-13)
(8.87673e-13 -5.9575e-13 -4.77289e-13)
(6.86315e-13 -1.05274e-12 -3.97005e-13)
(5.23198e-13 -9.28609e-13 -3.31117e-13)
(3.91363e-13 -8.19882e-13 -2.77794e-13)
(2.8446e-13 -7.26768e-13 -2.34235e-13)
(1.97645e-13 -6.46353e-13 -1.98559e-13)
(1.2705e-13 -5.76774e-13 -1.6919e-13)
(6.96562e-14 -5.13895e-13 -1.4461e-13)
(2.34273e-14 -2.55008e-13 -1.24227e-13)
(1.47036e-12 -3.62367e-13 -8.85036e-13)
(1.15333e-12 -1.22466e-12 -6.94547e-13)
(8.57827e-13 -1.61122e-12 -5.50031e-13)
(6.30869e-13 -1.3709e-12 -4.37443e-13)
(4.56319e-13 -1.17034e-12 -3.51231e-13)
(3.21397e-13 -1.00516e-12 -2.84131e-13)
(2.1683e-13 -8.67793e-13 -2.31745e-13)
(1.35664e-13 -7.53054e-13 -1.90448e-13)
(7.249e-14 -6.53635e-13 -1.56912e-13)
(2.38762e-14 -3.19478e-13 -1.30714e-13)
(2.04317e-12 -8.96813e-13 -1.39745e-12)
(1.52291e-12 -2.20063e-12 -1.0332e-12)
(1.08486e-12 -2.41443e-12 -7.73839e-13)
(7.67043e-13 -1.97394e-12 -5.84345e-13)
(5.35064e-13 -1.62503e-12 -4.47595e-13)
(3.64449e-13 -1.3495e-12 -3.46782e-13)
(2.38403e-13 -1.12914e-12 -2.7174e-13)
(1.44904e-13 -9.51872e-13 -2.15069e-13)
(7.54413e-14 -8.04331e-13 -1.71088e-13)
(2.43505e-14 -3.86944e-13 -1.38232e-13)
(2.918e-12 -1.78515e-12 -2.27815e-12)
(2.04768e-12 -3.73287e-12 -1.57167e-12)
(1.39e-12 -3.57996e-12 -1.10706e-12)
(9.40988e-13 -2.80134e-12 -7.90182e-13)
(6.31104e-13 -2.21711e-12 -5.75684e-13)
(4.14832e-13 -1.77612e-12 -4.26004e-13)
(2.62674e-13 -1.43817e-12 -3.20183e-13)
(1.55005e-13 -1.17635e-12 -2.43727e-13)
(7.85989e-14 -9.66744e-13 -1.8759e-13)
(2.48142e-14 -4.57664e-13 -1.46349e-13)
(5.38379e-11 -3.29838e-12 -3.76628e-12)
(2.35232e-12 -6.19262e-12 -2.39912e-12)
(1.40532e-12 -5.29311e-12 -1.57731e-12)
(8.84184e-13 -3.94595e-12 -1.062e-12)
(5.45679e-13 -2.9916e-12 -7.36845e-13)
(3.22966e-13 -2.30619e-12 -5.2448e-13)
(1.75666e-13 -1.80384e-12 -3.82547e-13)
(7.82321e-14 -1.43002e-12 -2.85599e-13)
(1.36504e-14 -1.14271e-12 -2.17598e-13)
(-2.75446e-14 -5.32461e-13 -1.70311e-13)
(1.04628e-07 -1.70831e-10 -7.13146e-10)
(5.29477e-11 -1.59658e-10 -5.16355e-10)
(-5.1684e-11 -2.19295e-11 -3.83356e-10)
(-4.10949e-11 -1.60523e-11 -2.90446e-10)
(-3.30495e-11 -1.21778e-11 -2.24058e-10)
(-2.69072e-11 -9.40354e-12 -1.75604e-10)
(-2.21604e-11 -7.374e-12 -1.39579e-10)
(-1.84513e-11 -5.86429e-12 -1.1235e-10)
(-1.55447e-11 -4.71586e-12 -9.14645e-11)
(-1.43773e-11 -3.41588e-12 -7.48882e-11)
(2.26996e-13 3.75038e-13 -9.01909e-15)
(2.14326e-13 3.49037e-13 -8.18084e-15)
(1.87964e-13 -5.14764e-14 -6.3037e-15)
(1.6273e-13 -5.19032e-14 -5.13184e-15)
(1.38622e-13 -5.12278e-14 -3.86696e-15)
(1.15544e-13 -5.06078e-14 -2.88733e-15)
(9.34696e-14 -4.98751e-14 -2.1465e-15)
(7.22897e-14 -4.92277e-14 -1.40939e-15)
(5.20999e-14 -4.83853e-14 -1.04337e-15)
(3.2899e-14 -2.52824e-14 -1.00411e-15)
(4.98211e-13 3.41153e-13 -1.33805e-14)
(4.60107e-13 2.43485e-13 -1.1866e-14)
(3.94122e-13 -1.8891e-13 -9.67743e-15)
(3.32678e-13 -1.82981e-13 -7.7517e-15)
(2.75556e-13 -1.76224e-13 -5.98844e-15)
(2.22374e-13 -1.69884e-13 -4.87882e-15)
(1.72936e-13 -1.63796e-13 -3.80258e-15)
(1.26826e-13 -1.57865e-13 -3.02006e-15)
(8.38657e-14 -1.51515e-13 -2.49001e-15)
(4.42356e-14 -7.82834e-14 -2.11736e-15)
(6.1554e-13 2.76128e-13 -2.17534e-14)
(5.4728e-13 7.54267e-14 -1.91722e-14)
(4.51971e-13 -3.83538e-13 -1.56917e-14)
(3.67024e-13 -3.60622e-13 -1.27201e-14)
(2.91613e-13 -3.3826e-13 -1.05344e-14)
(2.24563e-13 -3.17507e-13 -8.54758e-15)
(1.64917e-13 -2.98269e-13 -7.08091e-15)
(1.11855e-13 -2.80708e-13 -6.01982e-15)
(6.45509e-14 -2.62964e-13 -4.99074e-15)
(2.28506e-14 -1.33818e-13 -4.82361e-15)
(8.07656e-13 1.62235e-13 -3.67696e-14)
(6.91617e-13 -1.86297e-13 -3.22659e-14)
(5.53672e-13 -6.58977e-13 -2.66642e-14)
(4.36332e-13 -6.00837e-13 -2.16816e-14)
(3.36823e-13 -5.47221e-13 -1.79139e-14)
(2.52329e-13 -4.99657e-13 -1.50336e-14)
(1.80452e-13 -4.5705e-13 -1.25206e-14)
(1.19343e-13 -4.18933e-13 -1.06341e-14)
(6.73328e-14 -3.82984e-13 -9.33167e-15)
(2.34451e-14 -1.92351e-13 -8.32014e-15)
(1.07808e-12 -3.02387e-14 -6.4549e-14)
(8.85657e-13 -5.91387e-13 -5.50869e-14)
(6.84977e-13 -1.04929e-12 -4.44066e-14)
(5.22482e-13 -9.25673e-13 -3.6297e-14)
(3.91063e-13 -8.17438e-13 -2.97525e-14)
(2.84469e-13 -7.24518e-13 -2.44669e-14)
(1.97913e-13 -6.44287e-13 -2.07043e-14)
(1.27542e-13 -5.74976e-13 -1.78475e-14)
(7.02105e-14 -5.12396e-13 -1.55165e-14)
(2.41026e-14 -2.53477e-13 -1.36988e-14)
(1.46623e-12 -3.49121e-13 -1.13185e-13)
(1.15111e-12 -1.21748e-12 -9.35846e-14)
(8.56621e-13 -1.60603e-12 -7.40774e-14)
(6.30409e-13 -1.36665e-12 -5.93142e-14)
(4.56376e-13 -1.16699e-12 -4.79829e-14)
(3.21792e-13 -1.00238e-12 -3.92286e-14)
(2.17459e-13 -8.65378e-13 -3.2546e-14)
(1.36383e-13 -7.51158e-13 -2.73717e-14)
(7.32922e-14 -6.52041e-13 -2.31444e-14)
(2.47304e-14 -3.17747e-13 -2.01129e-14)
(2.03779e-12 -8.73189e-13 -2.00018e-13)
(1.52043e-12 -2.18927e-12 -1.58988e-13)
(1.08394e-12 -2.40683e-12 -1.21612e-13)
(7.66996e-13 -1.96829e-12 -9.49118e-14)
(5.35578e-13 -1.6209e-12 -7.48027e-14)
(3.65312e-13 -1.34627e-12 -5.98128e-14)
(2.39406e-13 -1.12667e-12 -4.85599e-14)
(1.45962e-13 -9.50015e-13 -3.9945e-14)
(7.65681e-14 -8.02845e-13 -3.34167e-14)
(2.53419e-14 -3.85284e-13 -2.81581e-14)
(2.9106e-12 -1.74293e-12 -3.57379e-13)
(2.04475e-12 -3.7154e-12 -2.68501e-13)
(1.38942e-12 -3.56947e-12 -1.98097e-13)
(9.41585e-13 -2.79447e-12 -1.48432e-13)
(6.32305e-13 -2.21232e-12 -1.13462e-13)
(4.16295e-13 -1.77288e-12 -8.83552e-14)
(2.64155e-13 -1.43593e-12 -6.96497e-14)
(1.56455e-13 -1.17473e-12 -5.6057e-14)
(7.99652e-14 -9.65845e-13 -4.58107e-14)
(2.60813e-14 -4.56305e-13 -3.76146e-14)
(5.66956e-11 -3.22378e-12 -6.43373e-13)
(2.91853e-12 -6.16801e-12 -4.52643e-13)
(1.79628e-12 -5.27955e-12 -3.18337e-13)
(1.15962e-12 -3.93829e-12 -2.29081e-13)
(7.45149e-13 -2.98709e-12 -1.68669e-13)
(4.71122e-13 -2.30355e-12 -1.27074e-13)
(2.87761e-13 -1.8023e-12 -9.73795e-14)
(1.64094e-13 -1.42904e-12 -7.60952e-14)
(8.01761e-14 -1.14199e-12 -6.04896e-14)
(2.37526e-14 -5.30873e-13 -4.89168e-14)
(1.09197e-07 -1.51585e-10 -3.7318e-11)
(1.26585e-10 -1.46869e-10 -7.21136e-12)
(1.21218e-12 -8.37471e-12 -4.55849e-12)
(7.16666e-13 -5.67677e-12 -2.9793e-12)
(4.63371e-13 -4.10222e-12 -2.01387e-12)
(2.97526e-13 -3.03117e-12 -1.40315e-12)
(1.87678e-13 -2.28334e-12 -1.00089e-12)
(1.13963e-13 -1.75009e-12 -7.26299e-13)
(6.39421e-14 -1.35697e-12 -5.3559e-13)
(2.69953e-14 -6.2768e-13 -3.94863e-13)
(2.2743e-13 3.74894e-13 -1.07899e-14)
(2.14683e-13 3.48505e-13 -9.72277e-15)
(1.88259e-13 -5.2162e-14 -7.46e-15)
(1.62957e-13 -5.25157e-14 -5.5535e-15)
(1.38803e-13 -5.1688e-14 -4.07601e-15)
(1.15669e-13 -5.09324e-14 -2.84168e-15)
(9.35908e-14 -5.0309e-14 -1.9828e-15)
(7.24548e-14 -4.94997e-14 -1.01653e-15)
(5.22095e-14 -4.8459e-14 -4.83722e-16)
(3.30035e-14 -2.54051e-14 -2.3698e-16)
(4.99252e-13 3.40814e-13 -1.60721e-14)
(4.60994e-13 2.42689e-13 -1.41855e-14)
(3.94869e-13 -1.89803e-13 -1.10555e-14)
(3.33258e-13 -1.83807e-13 -8.78672e-15)
(2.76075e-13 -1.769e-13 -6.34729e-15)
(2.22822e-13 -1.70333e-13 -4.88135e-15)
(1.73318e-13 -1.64113e-13 -3.65223e-15)
(1.27226e-13 -1.5816e-13 -2.95789e-15)
(8.42118e-14 -1.5175e-13 -2.15933e-15)
(4.45819e-14 -7.83538e-14 -1.65813e-15)
(6.17324e-13 2.75499e-13 -2.60119e-14)
(5.48843e-13 7.42094e-14 -2.28661e-14)
(4.53297e-13 -3.84941e-13 -1.85793e-14)
(3.68121e-13 -3.61777e-13 -1.46668e-14)
(2.9257e-13 -3.39027e-13 -1.18026e-14)
(2.2541e-13 -3.18194e-13 -9.65158e-15)
(1.65636e-13 -2.98848e-13 -7.78134e-15)
(1.12494e-13 -2.81098e-13 -6.4946e-15)
(6.51417e-14 -2.63207e-13 -5.77031e-15)
(2.33973e-14 -1.34013e-13 -5.07283e-15)
(8.1078e-13 1.61049e-13 -4.45309e-14)
(6.94318e-13 -1.88313e-13 -3.88443e-14)
(5.55867e-13 -6.6106e-13 -3.17915e-14)
(4.38181e-13 -6.02627e-13 -2.59876e-14)
(3.38384e-13 -5.48603e-13 -2.13225e-14)
(2.5361e-13 -5.00789e-13 -1.76001e-14)
(1.81594e-13 -4.57986e-13 -1.50639e-14)
(1.20342e-13 -4.19656e-13 -1.28809e-14)
(6.82256e-14 -3.83548e-13 -1.11835e-14)
(2.42385e-14 -1.92535e-13 -1.01811e-14)
(1.08331e-12 -3.25949e-14 -7.77136e-14)
(8.90038e-13 -5.95218e-13 -6.69725e-14)
(6.88505e-13 -1.05306e-12 -5.42812e-14)
(5.25336e-13 -9.28644e-13 -4.4198e-14)
(3.93428e-13 -8.19858e-13 -3.66417e-14)
(2.86433e-13 -7.26497e-13 -3.04303e-14)
(1.99579e-13 -6.45802e-13 -2.56108e-14)
(1.28931e-13 -5.76185e-13 -2.18977e-14)
(7.14303e-14 -5.13331e-13 -1.911e-14)
(2.51421e-14 -2.54037e-13 -1.68736e-14)
(1.47499e-12 -3.54013e-13 -1.37092e-13)
(1.15817e-12 -1.22456e-12 -1.14254e-13)
(8.62125e-13 -1.61251e-12 -9.11984e-14)
(6.34759e-13 -1.37187e-12 -7.31656e-14)
(4.59831e-13 -1.17108e-12 -5.94608e-14)
(3.24612e-13 -1.0057e-12 -4.91489e-14)
(2.19726e-13 -8.68124e-13 -4.07092e-14)
(1.38262e-13 -7.5334e-13 -3.43558e-14)
(7.48536e-14 -6.53805e-13 -2.9437e-14)
(2.59947e-14 -3.18743e-13 -2.53938e-14)
(2.05253e-12 -8.8305e-13 -2.42241e-13)
(1.53175e-12 -2.20287e-12 -1.94522e-13)
(1.09239e-12 -2.41858e-12 -1.50831e-13)
(7.73422e-13 -1.97737e-12 -1.17858e-13)
(5.40522e-13 -1.62802e-12 -9.38982e-14)
(3.69151e-13 -1.35196e-12 -7.55134e-14)
(2.42415e-13 -1.13117e-12 -6.14244e-14)
(1.4838e-13 -9.53555e-13 -5.08007e-14)
(7.84909e-14 -8.05817e-13 -4.26549e-14)
(2.6929e-14 -3.87027e-13 -3.60531e-14)
(2.93532e-12 -1.76296e-12 -4.30522e-13)
(2.06279e-12 -3.74143e-12 -3.29466e-13)
(1.4023e-12 -3.59035e-12 -2.45174e-13)
(9.50947e-13 -2.81023e-12 -1.86026e-13)
(6.39199e-13 -2.22438e-12 -1.43421e-13)
(4.21465e-13 -1.78223e-12 -1.12279e-13)
(2.6809e-13 -1.44325e-12 -8.92473e-14)
(1.59467e-13 -1.18049e-12 -7.19398e-14)
(8.2274e-14 -9.70388e-13 -5.87795e-14)
(2.78854e-14 -4.58993e-13 -4.90396e-14)
(5.6839e-11 -3.26376e-12 -7.72541e-13)
(2.95625e-12 -6.21726e-12 -5.57695e-13)
(1.81881e-12 -5.31692e-12 -3.96394e-13)
(1.17495e-12 -3.96538e-12 -2.88313e-13)
(7.55863e-13 -3.00704e-12 -2.14429e-13)
(4.7875e-13 -2.31851e-12 -1.62642e-13)
(2.93334e-13 -1.8137e-12 -1.25317e-13)
(1.68188e-13 -1.43787e-12 -9.84521e-14)
(8.32301e-14 -1.14898e-12 -7.83641e-14)
(2.60111e-14 -5.34842e-13 -6.34548e-14)
(1.12085e-07 -1.50313e-10 -6.65404e-12)
(1.31088e-10 -1.46859e-10 -1.04702e-12)
(1.84804e-12 -8.23018e-12 -6.6799e-13)
(1.15292e-12 -5.57831e-12 -4.59264e-13)
(7.66669e-13 -4.03714e-12 -3.25203e-13)
(5.13677e-13 -2.98676e-12 -2.36541e-13)
(3.44746e-13 -2.25243e-12 -1.76302e-13)
(2.30133e-13 -1.72835e-12 -1.33878e-13)
(1.5135e-13 -1.34147e-12 -1.03468e-13)
(9.70682e-14 -6.14626e-13 -8.15055e-14)
(2.27982e-13 3.74587e-13 -1.36517e-14)
(2.15138e-13 3.47712e-13 -1.18593e-14)
(1.88609e-13 -5.31286e-14 -9.38468e-15)
(1.63274e-13 -5.32441e-14 -6.91769e-15)
(1.38999e-13 -5.23029e-14 -5.06069e-15)
(1.15863e-13 -5.14379e-14 -3.26244e-15)
(9.37228e-14 -5.0598e-14 -2.04804e-15)
(7.25843e-14 -4.98232e-14 -1.3124e-15)
(5.23534e-14 -4.86955e-14 -6.64965e-16)
(3.31165e-14 -2.53734e-14 -3.81123e-16)
(5.00578e-13 3.40301e-13 -2.01141e-14)
(4.62146e-13 2.41517e-13 -1.76712e-14)
(3.95824e-13 -1.91005e-13 -1.37405e-14)
(3.34068e-13 -1.84818e-13 -1.07464e-14)
(2.7673e-13 -1.77754e-13 -8.23443e-15)
(2.23398e-13 -1.70946e-13 -6.04423e-15)
(1.73807e-13 -1.64557e-13 -4.43029e-15)
(1.27652e-13 -1.58457e-13 -3.2824e-15)
(8.46693e-14 -1.52034e-13 -2.664e-15)
(4.49766e-14 -7.85191e-14 -2.31329e-15)
(6.19693e-13 2.74612e-13 -3.24674e-14)
(5.50901e-13 7.25355e-14 -2.84669e-14)
(4.55018e-13 -3.8668e-13 -2.29048e-14)
(3.69565e-13 -3.63251e-13 -1.85523e-14)
(2.93825e-13 -3.4023e-13 -1.47058e-14)
(2.26451e-13 -3.19105e-13 -1.18208e-14)
(1.66619e-13 -2.99538e-13 -9.57389e-15)
(1.1335e-13 -2.8154e-13 -8.20736e-15)
(6.59225e-14 -2.63576e-13 -7.09943e-15)
(2.41556e-14 -1.3427e-13 -6.2772e-15)
(8.14817e-13 1.59337e-13 -5.58656e-14)
(6.97796e-13 -1.91191e-13 -4.84139e-14)
(5.58725e-13 -6.63858e-13 -3.93805e-14)
(4.40567e-13 -6.04894e-13 -3.23118e-14)
(3.40419e-13 -5.50533e-13 -2.65104e-14)
(2.55366e-13 -5.02182e-13 -2.17836e-14)
(1.83094e-13 -4.59022e-13 -1.86327e-14)
(1.21653e-13 -4.20597e-13 -1.61164e-14)
(6.93537e-14 -3.8419e-13 -1.40564e-14)
(2.52512e-14 -1.92933e-13 -1.25442e-14)
(1.09018e-12 -3.58496e-14 -9.72525e-14)
(8.95752e-13 -6.00198e-13 -8.32842e-14)
(6.931e-13 -1.05782e-12 -6.76534e-14)
(5.29058e-13 -9.32478e-13 -5.52343e-14)
(3.96478e-13 -8.22919e-13 -4.5625e-14)
(2.89027e-13 -7.29046e-13 -3.81746e-14)
(2.01672e-13 -6.47888e-13 -3.1855e-14)
(1.30737e-13 -5.77823e-13 -2.73401e-14)
(7.29639e-14 -5.14676e-13 -2.36782e-14)
(2.64289e-14 -2.54819e-13 -2.08604e-14)
(1.48654e-12 -3.60762e-13 -1.71551e-13)
(1.16739e-12 -1.23412e-12 -1.4289e-13)
(8.69322e-13 -1.62106e-12 -1.13814e-13)
(6.40368e-13 -1.37868e-12 -9.13905e-14)
(4.64311e-13 -1.17645e-12 -7.42966e-14)
(3.28187e-13 -1.01004e-12 -6.11702e-14)
(2.22648e-13 -8.71635e-13 -5.08433e-14)
(1.40651e-13 -7.56126e-13 -4.28072e-14)
(7.6832e-14 -6.56151e-13 -3.66483e-14)
(2.766e-14 -3.20099e-13 -3.17273e-14)
(2.07183e-12 -8.96744e-13 -3.03471e-13)
(1.54654e-12 -2.22085e-12 -2.43112e-13)
(1.1034e-12 -2.43392e-12 -1.88337e-13)
(7.81772e-13 -1.98931e-12 -1.47434e-13)
(5.46939e-13 -1.63729e-12 -1.1726e-13)
(3.74111e-13 -1.35937e-12 -9.43192e-14)
(2.46352e-13 -1.13708e-12 -7.68823e-14)
(1.51469e-13 -9.58267e-13 -6.32552e-14)
(8.0962e-14 -8.09602e-13 -5.30422e-14)
(2.89486e-14 -3.89253e-13 -4.4934e-14)
(2.96809e-12 -1.79046e-12 -5.3972e-13)
(2.0865e-12 -3.77587e-12 -4.12773e-13)
(1.41912e-12 -3.61794e-12 -3.07245e-13)
(9.63169e-13 -2.83085e-12 -2.3289e-13)
(6.48199e-13 -2.24011e-12 -1.794e-13)
(4.28211e-13 -1.79436e-12 -1.40524e-13)
(2.73187e-13 -1.45275e-12 -1.11738e-13)
(1.63382e-13 -1.18802e-12 -8.97558e-14)
(8.52896e-14 -9.76316e-13 -7.3284e-14)
(3.02574e-14 -4.62393e-13 -6.0896e-14)
(5.7224e-11 -3.31987e-12 -9.73158e-13)
(2.9945e-12 -6.28293e-12 -7.00154e-13)
(1.84456e-12 -5.36617e-12 -4.97829e-13)
(1.19271e-12 -4.00079e-12 -3.6208e-13)
(7.6833e-13 -3.03305e-12 -2.69099e-13)
(4.87701e-13 -2.33808e-12 -2.03745e-13)
(2.99845e-13 -1.82859e-12 -1.5695e-13)
(1.73001e-13 -1.44934e-12 -1.23123e-13)
(8.68018e-14 -1.1579e-12 -9.79144e-14)
(2.86925e-14 -5.39999e-13 -7.93715e-14)
(1.12528e-07 -1.5401e-10 -3.01086e-11)
(1.32761e-10 -1.47837e-10 -1.23639e-12)
(1.88564e-12 -8.31553e-12 -8.02009e-13)
(1.17216e-12 -5.63718e-12 -5.55922e-13)
(7.79748e-13 -4.07878e-12 -3.95936e-13)
(5.22854e-13 -3.01683e-12 -2.89103e-13)
(3.51369e-13 -2.27466e-12 -2.15729e-13)
(2.35036e-13 -1.74514e-12 -1.63994e-13)
(1.55048e-13 -1.35426e-12 -1.26797e-13)
(9.99038e-14 -6.21792e-13 -1.00151e-13)
(2.28663e-13 3.74151e-13 -1.63811e-14)
(2.1575e-13 3.46804e-13 -1.42401e-14)
(1.8905e-13 -5.41214e-14 -1.1057e-14)
(1.63626e-13 -5.42319e-14 -8.43442e-15)
(1.39334e-13 -5.31405e-14 -6.03547e-15)
(1.16116e-13 -5.21308e-14 -4.07064e-15)
(9.39601e-14 -5.10853e-14 -2.48373e-15)
(7.27571e-14 -5.00506e-14 -1.41308e-15)
(5.25172e-14 -4.88317e-14 -1.03357e-15)
(3.33018e-14 -2.54821e-14 -1.23621e-15)
(5.02208e-13 3.39704e-13 -2.41272e-14)
(4.63583e-13 2.40185e-13 -2.09068e-14)
(3.96975e-13 -1.92507e-13 -1.66556e-14)
(3.35047e-13 -1.85968e-13 -1.28473e-14)
(2.77564e-13 -1.78763e-13 -1.00338e-14)
(2.24128e-13 -1.71842e-13 -7.37758e-15)
(1.74467e-13 -1.6522e-13 -5.64311e-15)
(1.28274e-13 -1.58874e-13 -4.16392e-15)
(8.51927e-14 -1.52149e-13 -3.13041e-15)
(4.54886e-14 -7.85736e-14 -3.41177e-15)
(6.22597e-13 2.73539e-13 -3.91542e-14)
(5.53394e-13 7.04712e-14 -3.40227e-14)
(4.57092e-13 -3.88767e-13 -2.72733e-14)
(3.71334e-13 -3.64989e-13 -2.21483e-14)
(2.95294e-13 -3.41689e-13 -1.76325e-14)
(2.27766e-13 -3.20258e-13 -1.43339e-14)
(1.6777e-13 -3.00334e-13 -1.16752e-14)
(1.14436e-13 -2.82148e-13 -9.94404e-15)
(6.68765e-14 -2.64046e-13 -8.72447e-15)
(2.49667e-14 -1.34492e-13 -8.02175e-15)
(8.19813e-13 1.57252e-13 -6.6833e-14)
(7.02045e-13 -1.94669e-13 -5.77097e-14)
(5.62243e-13 -6.67225e-13 -4.70187e-14)
(4.43464e-13 -6.07657e-13 -3.84721e-14)
(3.42884e-13 -5.528e-13 -3.17172e-14)
(2.57492e-13 -5.04032e-13 -2.66637e-14)
(1.84904e-13 -4.6039e-13 -2.22989e-14)
(1.23215e-13 -4.21645e-13 -1.92358e-14)
(7.07417e-14 -3.85156e-13 -1.69393e-14)
(2.6472e-14 -1.93456e-13 -1.51301e-14)
(1.0986e-12 -3.99934e-14 -1.17355e-13)
(9.02748e-13 -6.06418e-13 -9.93697e-14)
(6.98719e-13 -1.06364e-12 -8.0528e-14)
(5.33598e-13 -9.37195e-13 -6.57504e-14)
(4.00226e-13 -8.26684e-13 -5.43158e-14)
(2.92136e-13 -7.32181e-13 -4.56189e-14)
(2.04313e-13 -6.50406e-13 -3.83454e-14)
(1.32913e-13 -5.79809e-13 -3.29221e-14)
(7.48431e-14 -5.1629e-13 -2.84825e-14)
(2.80768e-14 -2.55797e-13 -2.5485e-14)
(1.50071e-12 -3.69019e-13 -2.07005e-13)
(1.17869e-12 -1.24567e-12 -1.70572e-13)
(8.78064e-13 -1.63146e-12 -1.35858e-13)
(6.47272e-13 -1.38696e-12 -1.09345e-13)
(4.69796e-13 -1.18308e-12 -8.91237e-14)
(3.32603e-13 -1.01537e-12 -7.36565e-14)
(2.26266e-13 -8.75976e-13 -6.12353e-14)
(1.43575e-13 -7.59631e-13 -5.1349e-14)
(7.92725e-14 -6.58928e-13 -4.40798e-14)
(2.96736e-14 -3.21774e-13 -3.83554e-14)
(2.09574e-12 -9.13609e-13 -3.66543e-13)
(1.56467e-12 -2.24297e-12 -2.90563e-13)
(1.11692e-12 -2.4526e-12 -2.25139e-13)
(7.92026e-13 -2.00384e-12 -1.76916e-13)
(5.54786e-13 -1.64871e-12 -1.4072e-13)
(3.80241e-13 -1.36839e-12 -1.13551e-13)
(2.5115e-13 -1.14436e-12 -9.26707e-14)
(1.55266e-13 -9.64057e-13 -7.58651e-14)
(8.39803e-14 -8.14263e-13 -6.37027e-14)
(3.13809e-14 -3.92025e-13 -5.43184e-14)
(3.0088e-12 -1.82459e-12 -6.52701e-13)
(2.11564e-12 -3.818e-12 -4.94584e-13)
(1.43993e-12 -3.65173e-12 -3.69269e-13)
(9.7822e-13 -2.85626e-12 -2.79838e-13)
(6.59274e-13 -2.2594e-12 -2.15701e-13)
(4.36467e-13 -1.80924e-12 -1.69181e-13)
(2.79426e-13 -1.46451e-12 -1.34526e-13)
(1.68174e-13 -1.19727e-12 -1.0765e-13)
(8.89669e-14 -9.83601e-13 -8.78092e-14)
(3.31343e-14 -4.66672e-13 -7.31192e-14)
(5.92914e-11 -3.3878e-12 -1.16495e-12)
(3.04535e-12 -6.36388e-12 -8.42245e-13)
(1.87629e-12 -5.42669e-12 -5.99901e-13)
(1.21458e-12 -4.04455e-12 -4.36303e-13)
(7.83748e-13 -3.06528e-12 -3.24326e-13)
(4.98718e-13 -2.36216e-12 -2.45467e-13)
(3.07861e-13 -1.84691e-12 -1.89541e-13)
(1.78903e-13 -1.46344e-12 -1.48072e-13)
(9.11795e-14 -1.16888e-12 -1.17487e-13)
(3.19879e-14 -5.4627e-13 -9.5252e-14)
(1.23747e-07 -1.55327e-10 3.04328e-12)
(1.42568e-10 -1.53165e-10 -1.29726e-12)
(1.9119e-12 -8.43312e-12 -9.67369e-13)
(1.19167e-12 -5.71127e-12 -6.71289e-13)
(7.93355e-13 -4.1311e-12 -4.78504e-13)
(5.32594e-13 -3.05463e-12 -3.49128e-13)
(3.58518e-13 -2.3026e-12 -2.60539e-13)
(2.40373e-13 -1.76617e-12 -1.98012e-13)
(1.59103e-13 -1.37011e-12 -1.52303e-13)
(1.03049e-13 -6.30674e-13 -1.20544e-13)
(2.2942e-13 3.73704e-13 -1.85806e-14)
(2.16242e-13 3.45614e-13 -1.39684e-14)
(1.89515e-13 -5.54143e-14 -1.08792e-14)
(1.63992e-13 -5.52272e-14 -8.42822e-15)
(1.39668e-13 -5.4038e-14 -7.18962e-15)
(1.16448e-13 -5.2866e-14 -6.5693e-15)
(9.43038e-14 -5.169e-14 -7.03766e-15)
(7.31905e-14 -5.0498e-14 -1.37502e-14)
(5.31556e-14 -4.91848e-14 -5.30858e-14)
(3.40183e-14 -2.71239e-14 -1.85453e-13)
(5.0407e-13 3.38897e-13 -2.68608e-14)
(4.64971e-13 2.38697e-13 -1.94799e-14)
(3.98192e-13 -1.94074e-13 -1.59692e-14)
(3.36091e-13 -1.87361e-13 -1.27318e-14)
(2.78481e-13 -1.79895e-13 -1.07222e-14)
(2.24999e-13 -1.7272e-13 -9.87002e-15)
(1.75283e-13 -1.65928e-13 -9.95061e-15)
(1.29091e-13 -1.59689e-13 -1.39378e-14)
(8.61311e-14 -1.53098e-13 -3.50416e-14)
(4.63801e-14 -8.14858e-14 -1.21271e-13)
(6.25872e-13 2.72227e-13 -4.36785e-14)
(5.55986e-13 6.81869e-14 -3.27518e-14)
(4.5928e-13 -3.91059e-13 -2.66675e-14)
(3.73232e-13 -3.66881e-13 -2.21735e-14)
(2.96992e-13 -3.43247e-13 -1.86688e-14)
(2.29348e-13 -3.21525e-13 -1.71288e-14)
(1.69193e-13 -3.01472e-13 -1.68755e-14)
(1.1573e-13 -2.83052e-13 -1.8135e-14)
(6.82096e-14 -2.65221e-13 -3.01073e-14)
(2.61828e-14 -1.37808e-13 -8.39006e-14)
(8.25501e-13 1.54912e-13 -7.48401e-14)
(7.06479e-13 -1.98253e-13 -5.7198e-14)
(5.6596e-13 -6.70791e-13 -4.70145e-14)
(4.46633e-13 -6.10571e-13 -3.9444e-14)
(3.45657e-13 -5.55092e-13 -3.39284e-14)