/*--------------------------------*- C++ -*----------------------------------*\
| =========                 |                                                 |
| \\      /  F ield         | OpenFOAM: The Open Source CFD Toolbox           |
|  \\    /   O peration     | Version:  4.1                                   |
|   \\  /    A nd           | Web:      www.OpenFOAM.org                      |
|    \\/     M anipulation  |                                                 |
\*---------------------------------------------------------------------------*/
FoamFile
{
    version     2.0;
    format      ascii;
    class       volScalarField;
    location    "7.7";
    object      p;
}
// * * * * * * * * * * * * * * * * * * * * * * * * * * * * * * * * * * * * * //

dimensions      [1 -1 -2 0 0 0 0];

internalField   nonuniform List<scalar> 
52500
(
1.00001
1.00004
1.00013
1.00027
1.00079
1.00162
1.00462
1.00923
1.02762
1.05135
1.17719
1.32937
2.21007
3.93716
9.56264
11.4225
11.2332
11.1162
11.1939
11.4105
11.648
11.8016
11.9182
12.0112
12.0846
1.00001
1.00004
1.00012
1.00027
1.00078
1.0016
1.00457
1.00912
1.02733
1.05072
1.17549
1.32501
2.19799
3.90277
9.47921
11.4175
11.2251
11.1039
11.1826
11.4004
11.6377
11.7912
11.9095
12.0041
12.0791
1.00001
1.00003
1.00012
1.00026
1.00076
1.00157
1.00446
1.0089
1.02671
1.04946
1.1719
1.31614
2.17203
3.82918
9.29329
11.4061
11.2045
11.0697
11.1478
11.3641
11.598
11.7483
11.8657
11.959
12.0332
1.00001
1.00003
1.00012
1.00025
1.00073
1.0015
1.00429
1.00853
1.0258
1.04724
1.16681
1.30253
2.13271
3.71704
9.00317
11.3936
11.1742
11.0147
11.0899
11.3008
11.5285
11.6729
11.7861
11.8761
11.9499
1.00001
1.00003
1.00011
1.00024
1.00069
1.00142
1.00406
1.00803
1.02458
1.0443
1.15964
1.28466
2.08091
3.565
8.60535
11.3824
11.1353
10.9408
11.0114
11.2136
11.4323
11.568
11.6749
11.7606
11.8344
1.00001
1.00003
1.0001
1.00022
1.00065
1.00132
1.00379
1.00746
1.02306
1.04109
1.14977
1.26282
2.01829
3.37237
8.09723
11.3771
11.0897
10.8484
10.9128
11.1024
11.3081
11.4307
11.5258
11.6026
11.6763
1.00001
1.00003
1.00009
1.00021
1.0006
1.00123
1.00352
1.00694
1.02127
1.03815
1.13783
1.24188
1.92422
3.1486
7.46159
11.3792
11.0454
10.7406
10.7955
10.9658
11.1523
11.2549
11.3304
11.3884
11.4538
1.00001
1.00002
1.00009
1.00019
1.00056
1.00114
1.00324
1.00653
1.01918
1.0364
1.12141
1.22203
1.8114
2.89567
6.70785
11.3731
11.0023
10.6219
10.6635
10.8061
10.9649
11.0368
11.078
11.0976
11.135
1
1.00002
1.00008
1.00017
1.0005
1.00102
1.00291
1.00587
1.01701
1.03336
1.10504
1.19949
1.69458
2.62682
5.86269
11.2963
10.9314
10.4943
10.518
10.6211
10.741
10.769
10.7556
10.6976
10.6396
1
1.00002
1.00007
1.00015
1.00044
1.0009
1.00255
1.00515
1.01492
1.02936
1.09146
1.1758
1.5972
2.39788
5.17841
10.9613
10.7731
10.3721
10.3592
10.4103
10.474
10.451
10.3552
10.1346
9.80029
1.00001
1.00004
1.00013
1.00028
1.0008
1.00163
1.00463
1.00924
1.02763
1.05137
1.1772
1.32944
2.21014
3.93748
9.56328
11.4225
11.2332
11.1163
11.194
11.4106
11.6482
11.8017
11.9183
12.0113
12.0847
1.00001
1.00004
1.00013
1.00028
1.00079
1.00161
1.00458
1.00913
1.02734
1.05075
1.1755
1.32509
2.19806
3.9031
9.47985
11.4175
11.2252
11.104
11.1827
11.4006
11.6378
11.7913
11.9096
12.0042
12.0792
1.00001
1.00004
1.00012
1.00027
1.00077
1.00157
1.00447
1.00891
1.02672
1.04948
1.17192
1.31622
2.17211
3.8295
9.29395
11.4061
11.2045
11.0698
11.1479
11.3642
11.5981
11.7484
11.8658
11.9592
12.0333
1.00001
1.00004
1.00012
1.00026
1.00074
1.00151
1.0043
1.00854
1.02581
1.04727
1.16681
1.30262
2.13276
3.71736
9.00383
11.3936
11.1743
11.0149
11.09
11.3009
11.5286
11.673
11.7862
11.8763
11.95
1.00001
1.00003
1.00011
1.00025
1.0007
1.00143
1.00407
1.00804
1.02459
1.04432
1.15967
1.28473
2.081
3.56533
8.60605
11.3824
11.1353
10.9409
11.0115
11.2137
11.4324
11.5681
11.675
11.7607
11.8346
1.00001
1.00003
1.00011
1.00023
1.00065
1.00133
1.0038
1.00747
1.02307
1.04111
1.1498
1.26289
2.01838
3.37271
8.09797
11.377
11.0897
10.8485
10.9129
11.1025
11.3082
11.4308
11.526
11.6027
11.6764
1.00001
1.00003
1.0001
1.00021
1.00061
1.00124
1.00352
1.00695
1.02128
1.03817
1.13786
1.24193
1.92432
3.14893
7.46239
11.3791
11.0454
10.7407
10.7956
10.9659
11.1524
11.255
11.3305
11.3885
11.4539
1.00001
1.00003
1.00009
1.0002
1.00056
1.00115
1.00325
1.00654
1.01919
1.03643
1.12142
1.22211
1.81147
2.89599
6.70863
11.3731
11.0023
10.622
10.6636
10.8062
10.965
11.0369
11.078
11.0977
11.1351
1.00001
1.00002
1.00008
1.00018
1.0005
1.00103
1.00291
1.00588
1.01702
1.03338
1.10507
1.19955
1.69467
2.6271
5.86346
11.2963
10.9314
10.4944
10.518
10.6212
10.7411
10.769
10.7557
10.6977
10.6397
1
1.00002
1.00007
1.00015
1.00044
1.0009
1.00256
1.00516
1.01494
1.02938
1.09148
1.17585
1.59725
2.39808
5.17883
10.9616
10.7732
10.3722
10.3592
10.4104
10.4741
10.4511
10.3553
10.1347
9.80037
1.00001
1.00004
1.00013
1.00028
1.0008
1.00163
1.00463
1.00924
1.02763
1.05137
1.1772
1.32945
2.21015
3.93751
9.56333
11.4225
11.2332
11.1163
11.194
11.4106
11.6482
11.8017
11.9183
12.0113
12.0847
1.00001
1.00004
1.00013
1.00028
1.00079
1.00161
1.00458
1.00913
1.02734
1.05075
1.17551
1.32509
2.19807
3.90312
9.4799
11.4175
11.2252
11.104
11.1827
11.4006
11.6379
11.7914
11.9097
12.0042
12.0792
1.00001
1.00004
1.00012
1.00027
1.00077
1.00157
1.00447
1.00891
1.02672
1.04949
1.17192
1.31622
2.17211
3.82952
9.294
11.4061
11.2045
11.0698
11.1479
11.3642
11.5981
11.7484
11.8658
11.9592
12.0333
1.00001
1.00004
1.00012
1.00026
1.00074
1.00151
1.0043
1.00854
1.02581
1.04727
1.16681
1.30262
2.13277
3.71738
9.00389
11.3936
11.1743
11.0149
11.09
11.3009
11.5287
11.673
11.7862
11.8763
11.95
1.00001
1.00003
1.00011
1.00025
1.0007
1.00143
1.00407
1.00804
1.02459
1.04432
1.15967
1.28473
2.08101
3.56535
8.60611
11.3824
11.1353
10.9409
11.0116
11.2137
11.4324
11.5681
11.675
11.7608
11.8346
1.00001
1.00003
1.00011
1.00023
1.00065
1.00133
1.0038
1.00747
1.02307
1.04111
1.1498
1.26289
2.01839
3.37273
8.09803
11.377
11.0897
10.8485
10.9129
11.1025
11.3082
11.4308
11.526
11.6027
11.6764
1.00001
1.00003
1.0001
1.00021
1.00061
1.00124
1.00352
1.00695
1.02128
1.03817
1.13786
1.24194
1.92433
3.14895
7.46246
11.3791
11.0454
10.7407
10.7956
10.9659
11.1524
11.255
11.3305
11.3886
11.4539
1.00001
1.00003
1.00009
1.0002
1.00056
1.00115
1.00325
1.00654
1.01919
1.03643
1.12142
1.22211
1.81148
2.89601
6.7087
11.373
11.0023
10.622
10.6636
10.8062
10.965
11.0369
11.0781
11.0977
11.1351
1.00001
1.00002
1.00008
1.00018
1.0005
1.00103
1.00291
1.00588
1.01702
1.03338
1.10507
1.19955
1.69468
2.62712
5.86352
11.2963
10.9314
10.4944
10.5181
10.6212
10.7411
10.7691
10.7557
10.6977
10.6397
1
1.00002
1.00007
1.00015
1.00044
1.0009
1.00256
1.00516
1.01494
1.02938
1.09148
1.17585
1.59726
2.39809
5.17886
10.9617
10.7732
10.3722
10.3593
10.4104
10.4741
10.4511
10.3553
10.1347
9.80037
1.00001
1.00004
1.00013
1.00028
1.0008
1.00163
1.00463
1.00924
1.02763
1.05137
1.1772
1.32945
2.21015
3.93751
9.56333
11.4225
11.2332
11.1163
11.194
11.4106
11.6482
11.8017
11.9183
12.0113
12.0847
1.00001
1.00004
1.00013
1.00028
1.00079
1.00161
1.00458
1.00913
1.02734
1.05075
1.17551
1.32509
2.19807
3.90312
9.47991
11.4175
11.2252
11.104
11.1827
11.4006
11.6379
11.7914
11.9097
12.0042
12.0792
1.00001
1.00004
1.00012
1.00027
1.00077
1.00157
1.00447
1.00891
1.02672
1.04949
1.17192
1.31622
2.17211
3.82953
9.29401
11.4061
11.2045
11.0698
11.1479
11.3642
11.5981
11.7484
11.8658
11.9592
12.0333
1.00001
1.00004
1.00012
1.00026
1.00074
1.00151
1.0043
1.00854
1.02581
1.04727
1.16681
1.30262
2.13277
3.71738
9.00389
11.3936
11.1743
11.0149
11.09
11.3009
11.5287
11.673
11.7862
11.8763
11.95
1.00001
1.00003
1.00011
1.00025
1.0007
1.00143
1.00407
1.00804
1.02459
1.04432
1.15967
1.28473
2.08101
3.56536
8.60612
11.3824
11.1353
10.9409
11.0116
11.2137
11.4324
11.5681
11.675
11.7608
11.8346
1.00001
1.00003
1.00011
1.00023
1.00065
1.00133
1.0038
1.00747
1.02307
1.04111
1.1498
1.26289
2.01839
3.37273
8.09804
11.377
11.0897
10.8485
10.9129
11.1025
11.3082
11.4308
11.526
11.6027
11.6764
1.00001
1.00003
1.0001
1.00021
1.00061
1.00124
1.00352
1.00695
1.02128
1.03817
1.13786
1.24194
1.92434
3.14896
7.46246
11.3791
11.0454
10.7407
10.7956
10.9659
11.1524
11.255
11.3305
11.3886
11.4539
1.00001
1.00003
1.00009
1.0002
1.00056
1.00115
1.00325
1.00654
1.01919
1.03643
1.12142
1.22211
1.81148
2.89601
6.7087
11.373
11.0023
10.622
10.6636
10.8062
10.965
11.0369
11.0781
11.0977
11.1351
1.00001
1.00002
1.00008
1.00018
1.0005
1.00103
1.00291
1.00588
1.01702
1.03338
1.10507
1.19955
1.69468
2.62713
5.86353
11.2963
10.9314
10.4944
10.5181
10.6212
10.7411
10.7691
10.7557
10.6977
10.6397
1
1.00002
1.00007
1.00015
1.00044
1.0009
1.00256
1.00516
1.01494
1.02938
1.09148
1.17585
1.59726
2.3981
5.17887
10.9617
10.7732
10.3722
10.3593
10.4104
10.4741
10.4511
10.3553
10.1347
9.80037
1.00001
1.00004
1.00013
1.00028
1.0008
1.00163
1.00463
1.00924
1.02763
1.05137
1.1772
1.32945
2.21015
3.93751
9.56334
11.4225
11.2332
11.1163
11.194
11.4106
11.6482
11.8017
11.9183
12.0113
12.0847
1.00001
1.00004
1.00013
1.00028
1.00079
1.00161
1.00458
1.00913
1.02734
1.05075
1.17551
1.32509
2.19807
3.90312
9.47992
11.4175
11.2252
11.104
11.1827
11.4006
11.6379
11.7914
11.9097
12.0042
12.0792
1.00001
1.00004
1.00012
1.00027
1.00077
1.00157
1.00447
1.00891
1.02672
1.04949
1.17192
1.31622
2.17212
3.82953
9.29402
11.4061
11.2045
11.0698
11.1479
11.3642
11.5981
11.7484
11.8658
11.9592
12.0333
1.00001
1.00004
1.00012
1.00026
1.00074
1.00151
1.0043
1.00854
1.02581
1.04727
1.16681
1.30262
2.13277
3.71739
9.0039
11.3936
11.1743
11.0149
11.09
11.3009
11.5287
11.673
11.7862
11.8763
11.95
1.00001
1.00003
1.00011
1.00025
1.0007
1.00143
1.00407
1.00804
1.02459
1.04432
1.15967
1.28473
2.08101
3.56536
8.60613
11.3824
11.1353
10.9409
11.0116
11.2137
11.4324
11.5681
11.675
11.7608
11.8346
1.00001
1.00003
1.00011
1.00023
1.00065
1.00133
1.0038
1.00747
1.02307
1.04111
1.1498
1.26289
2.01839
3.37274
8.09805
11.377
11.0897
10.8485
10.9129
11.1025
11.3082
11.4308
11.526
11.6027
11.6764
1.00001
1.00003
1.0001
1.00021
1.00061
1.00124
1.00352
1.00695
1.02128
1.03817
1.13786
1.24194
1.92434
3.14896
7.46247
11.3791
11.0454
10.7407
10.7956
10.9659
11.1524
11.255
11.3305
11.3886
11.4539
1.00001
1.00003
1.00009
1.0002
1.00056
1.00115
1.00325
1.00654
1.01919
1.03643
1.12142
1.22211
1.81149
2.89602
6.70871
11.373
11.0023
10.622
10.6636
10.8062
10.965
11.0369
11.0781
11.0977
11.1351
1.00001
1.00002
1.00008
1.00018
1.0005
1.00103
1.00291
1.00588
1.01702
1.03338
1.10507
1.19955
1.69468
2.62713
5.86354
11.2963
10.9314
10.4944
10.5181
10.6212
10.7411
10.7691
10.7557
10.6977
10.6397
1
1.00002
1.00007
1.00015
1.00044
1.0009
1.00256
1.00516
1.01494
1.02938
1.09148
1.17585
1.59726
2.3981
5.17887
10.9617
10.7732
10.3722
10.3593
10.4104
10.4741
10.4511
10.3553
10.1347
9.80038
1.00001
1.00004
1.00013
1.00028
1.0008
1.00163
1.00463
1.00924
1.02763
1.05137
1.1772
1.32945
2.21015
3.93751
9.56335
11.4225
11.2332
11.1163
11.194
11.4106
11.6482
11.8017
11.9183
12.0113
12.0847
1.00001
1.00004
1.00013
1.00028
1.00079
1.00161
1.00458
1.00913
1.02734
1.05075
1.17551
1.32509
2.19807
3.90313
9.47992
11.4175
11.2252
11.104
11.1827
11.4006
11.6379
11.7914
11.9097
12.0042
12.0792
1.00001
1.00004
1.00012
1.00027
1.00077
1.00157
1.00447
1.00891
1.02672
1.04949
1.17192
1.31622
2.17212
3.82953
9.29402
11.4061
11.2045
11.0698
11.1479
11.3642
11.5981
11.7484
11.8658
11.9592
12.0333
1.00001
1.00004
1.00012
1.00026
1.00074
1.00151
1.0043
1.00854
1.02581
1.04727
1.16681
1.30262
2.13277
3.71739
9.0039
11.3936
11.1743
11.0149
11.09
11.3009
11.5287
11.673
11.7862
11.8763
11.95
1.00001
1.00003
1.00011
1.00025
1.0007
1.00143
1.00407
1.00804
1.02459
1.04432
1.15967
1.28473
2.08101
3.56536
8.60613
11.3824
11.1353
10.9409
11.0116
11.2137
11.4324
11.5681
11.675
11.7608
11.8346
1.00001
1.00003
1.00011
1.00023
1.00065
1.00133
1.0038
1.00747
1.02307
1.04111
1.1498
1.26289
2.01839
3.37274
8.09805
11.377
11.0897
10.8485
10.9129
11.1025
11.3082
11.4308
11.526
11.6027
11.6764
1.00001
1.00003
1.0001
1.00021
1.00061
1.00124
1.00352
1.00695
1.02128
1.03817
1.13786
1.24194
1.92434
3.14896
7.46248
11.3791
11.0454
10.7407
10.7956
10.9659
11.1524
11.255
11.3305
11.3886
11.4539
1.00001
1.00003
1.00009
1.0002
1.00056
1.00115
1.00325
1.00654
1.01919
1.03643
1.12142
1.22211
1.81149
2.89602
6.70872
11.373
11.0023
10.622
10.6636
10.8062
10.965
11.0369
11.0781
11.0977
11.1351
1.00001
1.00002
1.00008
1.00018
1.0005
1.00103
1.00291
1.00588
1.01702
1.03338
1.10507
1.19955
1.69468
2.62713
5.86355
11.2963
10.9314
10.4944
10.5181
10.6212
10.7411
10.7691
10.7557
10.6977
10.6397
1
1.00002
1.00007
1.00015
1.00044
1.0009
1.00256
1.00516
1.01494
1.02938
1.09148
1.17585
1.59726
2.3981
5.17888
10.9617
10.7732
10.3722
10.3593
10.4104
10.4741
10.4511
10.3553
10.1347
9.80038
1.00001
1.00004
1.00013
1.00028
1.0008
1.00163
1.00463
1.00924
1.02763
1.05137
1.1772
1.32945
2.21015
3.93751
9.56334
11.4225
11.2332
11.1163
11.194
11.4106
11.6482
11.8017
11.9183
12.0113
12.0847
1.00001
1.00004
1.00013
1.00028
1.00079
1.00161
1.00458
1.00913
1.02734
1.05075
1.17551
1.32509
2.19807
3.90312
9.47991
11.4175
11.2252
11.104
11.1827
11.4006
11.6379
11.7914
11.9097
12.0042
12.0792
1.00001
1.00004
1.00012
1.00027
1.00077
1.00157
1.00447
1.00891
1.02672
1.04949
1.17192
1.31622
2.17212
3.82953
9.29401
11.4061
11.2045
11.0698
11.1479
11.3642
11.5981
11.7484
11.8658
11.9592
12.0333
1.00001
1.00004
1.00012
1.00026
1.00074
1.00151
1.0043
1.00854
1.02581
1.04727
1.16681
1.30262
2.13277
3.71739
9.0039
11.3936
11.1743
11.0149
11.09
11.3009
11.5287
11.673
11.7862
11.8763
11.95
1.00001
1.00003
1.00011
1.00025
1.0007
1.00143
1.00407
1.00804
1.02459
1.04432
1.15967
1.28473
2.08101
3.56536
8.60612
11.3824
11.1353
10.9409
11.0116
11.2137
11.4324
11.5681
11.675
11.7608
11.8346
1.00001
1.00003
1.00011
1.00023
1.00065
1.00133
1.0038
1.00747
1.02307
1.04111
1.1498
1.26289
2.01839
3.37274
8.09804
11.377
11.0897
10.8485
10.9129
11.1025
11.3082
11.4308
11.526
11.6027
11.6764
1.00001
1.00003
1.0001
1.00021
1.00061
1.00124
1.00352
1.00695
1.02128
1.03817
1.13786
1.24194
1.92434
3.14896
7.46247
11.3791
11.0454
10.7407
10.7956
10.9659
11.1524
11.255
11.3305
11.3886
11.4539
1.00001
1.00003
1.00009
1.0002
1.00056
1.00115
1.00325
1.00654
1.01919
1.03643
1.12142
1.22211
1.81148
2.89601
6.70871
11.373
11.0023
10.622
10.6636
10.8062
10.965
11.0369
11.0781
11.0977
11.1351
1.00001
1.00002
1.00008
1.00018
1.0005
1.00103
1.00291
1.00588
1.01702
1.03338
1.10507
1.19955
1.69468
2.62713
5.86354
11.2963
10.9314
10.4944
10.5181
10.6212
10.7411
10.7691
10.7557
10.6977
10.6397
1
1.00002
1.00007
1.00015
1.00044
1.0009
1.00256
1.00516
1.01494
1.02938
1.09148
1.17585
1.59726
2.3981
5.17887
10.9617
10.7732
10.3722
10.3593
10.4104
10.4741
10.4511
10.3553
10.1347
9.80037
1.00001
1.00004
1.00013
1.00028
1.0008
1.00163
1.00463
1.00924
1.02763
1.05137
1.1772
1.32945
2.21015
3.93751
9.56333
11.4225
11.2332
11.1163
11.194
11.4106
11.6482
11.8017
11.9183
12.0113
12.0847
1.00001
1.00004
1.00013
1.00028
1.00079
1.00161
1.00458
1.00913
1.02734
1.05075
1.17551
1.32509
2.19807
3.90312
9.4799
11.4175
11.2252
11.104
11.1827
11.4006
11.6379
11.7914
11.9097
12.0042
12.0792
1.00001
1.00004
1.00012
1.00027
1.00077
1.00157
1.00447
1.00891
1.02672
1.04949
1.17192
1.31622
2.17211
3.82952
9.294
11.4061
11.2045
11.0698
11.1479
11.3642
11.5981
11.7484
11.8658
11.9592
12.0333
1.00001
1.00004
1.00012
1.00026
1.00074
1.00151
1.0043
1.00854
1.02581
1.04727
1.16681
1.30262
2.13277
3.71738
9.00389
11.3936
11.1743
11.0149
11.09
11.3009
11.5287
11.673
11.7862
11.8763
11.95
1.00001
1.00003
1.00011
1.00025
1.0007
1.00143
1.00407
1.00804
1.02459
1.04432
1.15967
1.28473
2.08101
3.56535
8.60611
11.3824
11.1353
10.9409
11.0116
11.2137
11.4324
11.5681
11.675
11.7608
11.8346
1.00001
1.00003
1.00011
1.00023
1.00065
1.00133
1.0038
1.00747
1.02307
1.04111
1.1498
1.26289
2.01839
3.37273
8.09803
11.377
11.0897
10.8485
10.9129
11.1025
11.3082
11.4308
11.526
11.6027
11.6764
1.00001
1.00003
1.0001
1.00021
1.00061
1.00124
1.00352
1.00695
1.02128
1.03817
1.13786
1.24194
1.92433
3.14895
7.46246
11.3791
11.0454
10.7407
10.7956
10.9659
11.1524
11.255
11.3305
11.3886
11.4539
1.00001
1.00003
1.00009
1.0002
1.00056
1.00115
1.00325
1.00654
1.01919
1.03643
1.12142
1.22211
1.81148
2.89601
6.7087
11.373
11.0023
10.622
10.6636
10.8062
10.965
11.0369
11.0781
11.0977
11.1351
1.00001
1.00002
1.00008
1.00018
1.0005
1.00103
1.00291
1.00588
1.01702
1.03338
1.10507
1.19955
1.69468
2.62713
5.86353
11.2963
10.9314
10.4944
10.5181
10.6212
10.7411
10.7691
10.7557
10.6977
10.6397
1
1.00002
1.00007
1.00015
1.00044
1.0009
1.00256
1.00516
1.01494
1.02938
1.09148
1.17585
1.59726
2.39809
5.17887
10.9617
10.7732
10.3722
10.3593
10.4104
10.4741
10.4511
10.3553
10.1347
9.80037
1.00001
1.00004
1.00013
1.00028
1.0008
1.00163
1.00463
1.00924
1.02763
1.05137
1.1772
1.32944
2.21014
3.93748
9.56328
11.4225
11.2332
11.1163
11.194
11.4106
11.6482
11.8017
11.9183
12.0113
12.0847
1.00001
1.00004
1.00013
1.00028
1.00079
1.00161
1.00458
1.00913
1.02734
1.05075
1.1755
1.32509
2.19806
3.9031
9.47985
11.4175
11.2252
11.104
11.1827
11.4006
11.6378
11.7913
11.9096
12.0042
12.0792
1.00001
1.00004
1.00012
1.00027
1.00077
1.00157
1.00447
1.00891
1.02672
1.04948
1.17192
1.31622
2.17211
3.8295
9.29395
11.4061
11.2045
11.0698
11.1479
11.3642
11.5981
11.7484
11.8658
11.9592
12.0333
1.00001
1.00004
1.00012
1.00026
1.00074
1.00151
1.0043
1.00854
1.02581
1.04727
1.16681
1.30262
2.13276
3.71736
9.00383
11.3936
11.1743
11.0149
11.09
11.3009
11.5286
11.673
11.7862
11.8763
11.95
1.00001
1.00003
1.00011
1.00025
1.0007
1.00143
1.00407
1.00804
1.02459
1.04432
1.15967
1.28473
2.081
3.56533
8.60605
11.3824
11.1353
10.9409
11.0115
11.2137
11.4324
11.5681
11.675
11.7607
11.8346
1.00001
1.00003
1.00011
1.00023
1.00065
1.00133
1.0038
1.00747
1.02307
1.04111
1.1498
1.26289
2.01838
3.37271
8.09797
11.377
11.0897
10.8485
10.9129
11.1025
11.3082
11.4308
11.526
11.6027
11.6764
1.00001
1.00003
1.0001
1.00021
1.00061
1.00124
1.00352
1.00695
1.02128
1.03817
1.13786
1.24193
1.92432
3.14893
7.46239
11.3791
11.0454
10.7407
10.7956
10.9659
11.1524
11.255
11.3305
11.3885
11.4539
1.00001
1.00003
1.00009
1.0002
1.00056
1.00115
1.00325
1.00654
1.01919
1.03643
1.12142
1.22211
1.81147
2.89599
6.70863
11.3731
11.0023
10.622
10.6636
10.8062
10.965
11.0369
11.078
11.0977
11.1351
1.00001
1.00002
1.00008
1.00018
1.0005
1.00103
1.00291
1.00588
1.01702
1.03338
1.10507
1.19955
1.69467
2.6271
5.86345
11.2963
10.9314
10.4944
10.518
10.6212
10.7411
10.769
10.7557
10.6977
10.6397
1
1.00002
1.00007
1.00015
1.00044
1.0009
1.00256
1.00516
1.01494
1.02938
1.09148
1.17585
1.59725
2.39808
5.17883
10.9616
10.7732
10.3722
10.3592
10.4104
10.4741
10.4511
10.3553
10.1347
9.80037
1.00001
1.00004
1.00013
1.00027
1.00079
1.00162
1.00462
1.00923
1.02762
1.05135
1.17719
1.32936
2.21007
3.93715
9.56263
11.4225
11.2332
11.1162
11.1939
11.4105
11.648
11.8016
11.9182
12.0112
12.0846
1.00001
1.00004
1.00012
1.00027
1.00078
1.0016
1.00457
1.00912
1.02733
1.05072
1.17549
1.32501
2.19799
3.90277
9.4792
11.4175
11.2251
11.1039
11.1826
11.4004
11.6377
11.7912
11.9095
12.0041
12.0791
1.00001
1.00003
1.00012
1.00026
1.00076
1.00157
1.00446
1.0089
1.02671
1.04946
1.1719
1.31614
2.17203
3.82917
9.29328
11.4061
11.2045
11.0697
11.1478
11.3641
11.598
11.7483
11.8657
11.959
12.0332
1.00001
1.00003
1.00012
1.00025
1.00073
1.0015
1.00429
1.00853
1.0258
1.04724
1.16681
1.30253
2.13271
3.71704
9.00316
11.3936
11.1742
11.0147
11.0899
11.3008
11.5285
11.6729
11.7861
11.8761
11.9499
1.00001
1.00003
1.00011
1.00024
1.00069
1.00142
1.00406
1.00803
1.02458
1.0443
1.15964
1.28466
2.08091
3.56499
8.60535
11.3824
11.1353
10.9408
11.0114
11.2136
11.4323
11.568
11.6749
11.7606
11.8344
1.00001
1.00003
1.0001
1.00022
1.00065
1.00132
1.00379
1.00746
1.02306
1.04109
1.14977
1.26282
2.01829
3.37237
8.09722
11.3771
11.0897
10.8484
10.9128
11.1024
11.3081
11.4307
11.5258
11.6026
11.6763
1.00001
1.00003
1.00009
1.00021
1.0006
1.00123
1.00352
1.00694
1.02127
1.03815
1.13783
1.24188
1.92422
3.14859
7.46159
11.3792
11.0454
10.7406
10.7955
10.9658
11.1523
11.2549
11.3304
11.3884
11.4538
1.00001
1.00002
1.00009
1.00019
1.00056
1.00114
1.00324
1.00653
1.01918
1.0364
1.12141
1.22203
1.8114
2.89567
6.70784
11.3731
11.0023
10.6219
10.6635
10.8061
10.9649
11.0368
11.078
11.0976
11.135
1
1.00002
1.00008
1.00017
1.0005
1.00102
1.00291
1.00587
1.01701
1.03336
1.10504
1.19949
1.69458
2.62682
5.86268
11.2963
10.9314
10.4943
10.518
10.6211
10.741
10.769
10.7556
10.6976
10.6396
1
1.00002
1.00007
1.00015
1.00044
1.0009
1.00255
1.00515
1.01492
1.02936
1.09146
1.1758
1.5972
2.39788
5.17841
10.9613
10.7731
10.3721
10.3592
10.4103
10.474
10.451
10.3552
10.1346
9.80029
1
1.00002
1.00005
1.00015
1.00032
1.00091
1.00185
1.00531
1.01044
1.03222
1.05797
1.2068
1.39076
2.38996
4.44632
10.2559
10.4969
10.3061
10.1792
10.185
10.1752
10.0896
9.84107
9.26918
7.83876
1
1.00002
1.00004
1.00013
1.00028
1.0008
1.00164
1.00467
1.00935
1.02775
1.05213
1.1764
1.33333
2.19731
3.89658
9.1893
10.3292
10.2062
10.0012
9.94756
9.87494
9.70114
9.31801
8.55426
7.1105
1
1.00001
1.00004
1.00011
1.00024
1.00068
1.00138
1.00394
1.00777
1.02372
1.04268
1.15315
1.27168
2.02746
3.40432
7.99216
10.2111
10.0975
9.83979
9.70671
9.5826
9.33266
8.86708
8.10694
6.97627
1
1.00001
1.00003
1.00009
1.0002
1.00057
1.00116
1.0033
1.00651
1.01984
1.03566
1.1276
1.22332
1.84171
2.93515
6.70082
10.1174
9.9956
9.69387
9.47583
9.29968
9.01081
8.53726
7.84804
6.96019
1
1.00001
1.00002
1.00008
1.00016
1.00047
1.00097
1.00275
1.00556
1.01609
1.03164
1.09856
1.19035
1.64353
2.50047
5.35933
9.91626
9.85421
9.58544
9.2726
9.04574
8.74359
8.29325
7.67766
6.93594
1
1.00001
1.00002
1.00005
1.00015
1.00032
1.0009
1.00183
1.00523
1.01029
1.03156
1.057
1.20042
1.38273
2.31601
4.23304
9.32224
9.63903
9.4604
9.10093
8.82969
8.51889
8.09971
7.55001
6.90288
1
1
1.00002
1.00004
1.00012
1.00026
1.00074
1.0015
1.00425
1.00852
1.02518
1.0472
1.15971
1.29517
2.06551
3.51555
7.99661
9.3679
9.25788
8.97281
8.64822
8.32678
7.93399
7.44157
6.86947
1
1
1.00001
1.00003
1.00009
1.00019
1.00056
1.00114
1.00326
1.00639
1.01973
1.03509
1.12659
1.22168
1.83407
2.90139
6.47662
9.172
9.11084
8.8812
8.50718
8.17121
7.79532
7.34723
6.83356
0.999998
1
1.00001
1.00002
1.00006
1.00017
1.00035
1.00101
1.00199
1.00603
1.01079
1.03788
1.06282
1.23562
1.46685
2.49591
4.78323
8.85596
8.99132
8.8157
8.42806
8.04666
7.67871
7.26562
6.79962
0.999997
0.999998
1
1.00002
1.00004
1.00013
1.00028
1.00079
1.00161
1.00457
1.00904
1.02741
1.04987
1.1748
1.32074
2.14194
3.68269
8.04133
8.81034
8.68172
8.35764
7.94219
7.57522
7.1912
6.76798
0.999995
0.999996
1
1.00001
1.00003
1.00008
1.00023
1.00048
1.00138
1.00267
1.00833
1.01447
1.05275
1.08657
1.33318
1.67107
3.15894
6.42101
8.541
8.49512
8.28623
7.86575
7.49005
7.12675
6.73928
0.999994
0.999995
0.999998
1
1.00002
1.00006
1.00018
1.00037
1.00105
1.00213
1.00609
1.01185
1.03709
1.06532
1.2347
1.45432
2.48789
4.66622
8.14282
8.35355
8.20839
7.85458
7.44036
7.07736
6.71502
0.999993
0.999994
0.999995
1
1.00001
1.00005
1.00011
1.00032
1.00066
1.00187
1.00378
1.01082
1.02142
1.0646
1.12657
1.40054
1.91347
3.56827
7.20093
8.16842
8.08144
7.82736
7.42067
7.04526
6.69625
0.999992
0.999993
0.999994
0.999999
1.00001
1.00003
1.00008
1.00023
1.00047
1.00133
1.0027
1.00768
1.01491
1.04666
1.08267
1.29371
1.59247
2.86
5.58643
7.90304
7.90353
7.76832
7.43482
7.03848
6.68787
0.999992
0.999992
0.999993
0.999995
1
1.00002
1.00006
1.00014
1.00039
1.0008
1.00226
1.00455
1.01298
1.02567
1.07652
1.15334
1.46931
2.07711
3.86496
7.34589
7.80799
7.70758
7.4388
7.04541
6.69074
0.999991
0.999992
0.999992
0.999994
1
1.00001
1.00004
1.00009
1.00027
1.00056
1.00157
1.00319
1.00901
1.01777
1.05358
1.10004
1.33017
1.71362
3.08421
6.09085
7.60047
7.5776
7.42252
7.07508
6.70378
0.999991
0.999991
0.999992
0.999993
0.999996
1.00001
1.00002
1.00007
1.00016
1.00045
1.00093
1.00259
1.00522
1.01488
1.02916
1.08894
1.17175
1.55176
2.25264
4.34417
7.16313
7.46617
7.37319
7.12459
6.7399
0.999991
0.999991
0.999991
0.999992
0.999994
1
1.00001
1.00005
1.00011
1.00031
1.00063
1.00177
1.00358
1.01008
1.02007
1.05857
1.11758
1.35414
1.79594
3.19032
6.15764
7.28122
7.25871
7.12103
6.81726
0.999991
0.999991
0.999991
0.999992
0.999993
0.999996
1.00001
1.00002
1.00008
1.00017
1.00049
1.001
1.00279
1.00562
1.01606
1.03102
1.09666
1.18283
1.59815
2.33767
4.55532
6.89286
7.16972
7.09962
6.91072
0.999991
0.999991
0.999991
0.999991
0.999992
0.999995
0.999999
1.00002
1.00004
1.00013
1.00027
1.00076
1.00155
1.00431
1.00854
1.02511
1.04618
1.15326
1.28462
1.92692
3.08901
6.05445
7.03117
7.04394
6.98434
0.999991
0.999991
0.999991
0.999991
0.999991
0.999993
0.999996
1.00001
1.00002
1.00008
1.00018
1.0005
1.00103
1.00286
1.00578
1.01629
1.03203
1.09678
1.1855
1.5967
2.32328
4.46444
6.68084
7.04481
7.09055
0.999991
0.99999
0.99999
0.999991
0.999991
0.999992
0.999995
0.999999
1.00002
1.00004
1.00013
1.00027
1.00076
1.00155
1.0043
1.00856
1.0248
1.04646
1.14936
1.28449
1.89985
3.02615
5.90008
6.99098
7.3082
0.999991
0.99999
0.99999
0.99999
0.999991
0.999991
0.999993
0.999996
1.00001
1.00002
1.00008
1.00018
1.0005
1.00102
1.00282
1.00569
1.01594
1.03138
1.09397
1.1799
1.57259
2.26431
4.2655
6.74663
7.70644
0.999991
0.99999
0.99999
0.99999
0.999991
0.999991
0.999992
0.999994
1
1.00001
1.00005
1.00011
1.00032
1.00066
1.00183
1.00371
1.01034
1.02059
1.05943
1.1195
1.35491
1.79456
3.14572
6.05374
8.39896
0.999991
0.99999
0.99999
0.99999
0.99999
0.999991
0.999991
0.999993
0.999997
1
1.00003
1.00007
1.00021
1.00044
1.00122
1.00248
1.00691
1.01384
1.04001
1.07781
1.24053
1.51629
2.49403
4.62205
9.28349
0.999991
0.99999
0.99999
0.99999
0.99999
0.999991
0.999991
0.999992
0.999995
1
1.00001
1.00006
1.00013
1.00037
1.00076
1.00217
1.00435
1.01278
1.02425
1.07937
1.14561
1.50599
2.15722
4.40491
9.55743
0.999991
0.99999
0.99999
0.99999
0.99999
0.99999
0.999991
0.999992
0.999994
0.999998
1.00001
1.00003
1.00011
1.00024
1.00071
1.00141
1.0043
1.00796
1.02723
1.04669
1.17787
1.32353
2.23969
4.01844
9.6709
0.999991
0.99999
0.99999
0.99999
0.99999
0.99999
0.999991
0.999992
0.999993
0.999998
1.00001
1.00004
1.00008
1.00025
1.00051
1.00156
1.00292
1.00996
1.01684
1.06587
1.10971
1.44107
1.96709
4.13707
9.57486
0.999991
0.99999
0.99999
0.99999
0.99999
0.99999
0.999991
0.999991
0.999993
0.999997
1
1.00003
1.00007
1.00022
1.00045
1.00142
1.00257
1.00925
1.01523
1.0617
1.1013
1.42242
1.91255
4.04084
9.4198
0.999991
0.99999
0.99999
0.99999
0.99999
0.99999
0.999991
0.999991
0.999993
0.999996
1.00001
1.00002
1.00008
1.00017
1.00054
1.001
1.00354
1.00588
1.02325
1.0379
1.15441
1.27709
2.11148
3.69622
9.21358
0.999991
0.99999
0.99999
0.99999
0.99999
0.99999
0.999991
0.999991
0.999992
0.999996
1
1.00002
1.00006
1.0002
1.00037
1.00131
1.00219
1.00854
1.01373
1.05648
1.09256
1.38839
1.82407
3.80549
8.84968
0.999991
0.99999
0.99999
0.99999
0.99999
0.99999
0.999991
0.999991
0.999993
0.999996
1.00001
1.00002
1.00008
1.00017
1.00052
1.00106
1.00322
1.00599
1.02087
1.0352
1.13982
1.24518
2.00777
3.41108
8.50518
0.999991
0.99999
0.99999
0.99999
0.99999
0.99999
0.999991
0.999991
0.999993
0.999996
1.00001
1.00002
1.00008
1.00017
1.0005
1.00103
1.00306
1.00591
1.01952
1.03383
1.1315
1.23033
1.93924
3.25251
8.10217
0.999991
0.99999
0.99999
0.99999
0.99999
0.99999
0.999991
0.999991
0.999992
0.999996
1
1.00002
1.00006
1.00018
1.00035
1.00113
1.00197
1.00734
1.01183
1.04785
1.07817
1.32269
1.67474
3.28952
7.50001
0.999991
0.99999
0.99999
0.99999
0.99999
0.99999
0.999991
0.999991
0.999993
0.999995
1
1.00002
1.00007
1.00016
1.00047
1.00095
1.00283
1.00543
1.01781
1.03104
1.11745
1.20749
1.80997
2.93673
7.08103
0.999991
0.99999
0.99999
0.99999
0.99999
0.99999
0.999991
0.999991
0.999992
0.999996
1
1.00002
1.00005
1.00017
1.00035
1.00105
1.00197
1.00665
1.01117
1.04295
1.07019
1.28059
1.57701
2.93018
6.42572
0.999991
0.99999
0.99999
0.99999
0.99999
0.99999
0.999991
0.999991
0.999993
0.999995
1
1.00002
1.00007
1.00016
1.00046
1.00095
1.00274
1.00552
1.01647
1.03149
1.10516
1.19611
1.7093
2.68729
6.20523
0.999991
0.99999
0.99999
0.99999
0.99999
0.99999
0.999991
0.999991
0.999993
0.999995
1
1.00002
1.00007
1.00015
1.00045
1.00093
1.00267
1.00539
1.01603
1.03074
1.10203
1.19065
1.68603
2.62803
6.02207
0.999991
0.99999
0.99999
0.99999
0.99999
0.99999
0.999991
0.999991
0.999992
0.999996
1
1.00002
1.00006
1.00017
1.00036
1.00105
1.00209
1.0063
1.0115
1.04016
1.06706
1.25918
1.51764
2.73602
5.76811
0.999991
0.99999
0.99999
0.99999
0.99999
0.99999
0.999991
0.999991
0.999992
0.999996
1
1.00002
1.00006
1.00018
1.00037
1.00106
1.00216
1.00627
1.01222
1.03894
1.06878
1.25345
1.5101
2.70806
5.70575
1
1.00002
1.00005
1.00016
1.00033
1.00092
1.00186
1.00532
1.01045
1.03223
1.05799
1.20683
1.39085
2.39006
4.4468
10.2565
10.497
10.3061
10.1793
10.1851
10.1752
10.0897
9.84115
9.26925
7.83883
1
1.00002
1.00005
1.00014
1.00029
1.00081
1.00165
1.00468
1.00936
1.02776
1.05216
1.17642
1.33341
2.19741
3.89696
9.18999
10.3293
10.2062
10.0013
9.94764
9.87502
9.70122
9.31809
8.55433
7.11058
1
1.00002
1.00004
1.00012
1.00024
1.00068
1.00139
1.00395
1.00778
1.02373
1.0427
1.15318
1.27174
2.02755
3.40467
7.99289
10.2111
10.0976
9.83984
9.70679
9.58268
9.33273
8.86716
8.10702
6.97635
1
1.00001
1.00003
1.0001
1.0002
1.00057
1.00117
1.00331
1.00652
1.01985
1.03568
1.12763
1.22338
1.84181
2.93546
6.70156
10.1174
9.99562
9.69391
9.4759
9.29975
9.01088
8.53734
7.84812
6.96026
1
1.00001
1.00003
1.00008
1.00017
1.00048
1.00098
1.00276
1.00557
1.0161
1.03166
1.09858
1.19041
1.64362
2.50075
5.36008
9.91633
9.85425
9.58548
9.27266
9.04581
8.74366
8.29331
7.67772
6.93601
1
1.00001
1.00003
1.00006
1.00016
1.00032
1.00091
1.00184
1.00524
1.0103
1.03158
1.05702
1.20045
1.38281
2.3161
4.23352
9.32257
9.63912
9.46047
9.10099
8.82974
8.51895
8.09977
7.55007
6.90295
1
1.00001
1.00002
1.00005
1.00013
1.00027
1.00074
1.00151
1.00426
1.00853
1.02519
1.04722
1.15973
1.29525
2.06561
3.51592
7.99733
9.36801
9.25796
8.97284
8.64827
8.32683
7.93404
7.44162
6.86952
1
1
1.00002
1.00003
1.0001
1.0002
1.00057
1.00115
1.00327
1.00641
1.01974
1.03511
1.12662
1.22174
1.83417
2.90171
6.47733
9.17202
9.11085
8.88121
8.50721
8.17124
7.79536
7.34727
6.83361
1
1
1.00001
1.00003
1.00006
1.00018
1.00036
1.00102