/*--------------------------------*- C++ -*----------------------------------*\
| =========                 |                                                 |
| \\      /  F ield         | OpenFOAM: The Open Source CFD Toolbox           |
|  \\    /   O peration     | Version:  4.1                                   |
|   \\  /    A nd           | Web:      www.OpenFOAM.org                      |
|    \\/     M anipulation  |                                                 |
\*---------------------------------------------------------------------------*/
FoamFile
{
    version     2.0;
    format      ascii;
    class       volScalarField;
    location    "6";
    object      Ma;
}
// * * * * * * * * * * * * * * * * * * * * * * * * * * * * * * * * * * * * * //

dimensions      [0 0 0 0 0 0 0];

internalField   nonuniform List<scalar> 
52500
(
3.00001
2.99997
2.9999
2.99965
2.9993
2.99787
2.99583
2.98792
2.97502
2.93228
2.83684
2.61523
2.04676
1.18302
0.496127
0.298413
0.336794
0.347377
0.316678
0.263552
0.211117
0.168678
0.126958
0.0802843
0.0460714
3.00002
2.99997
2.99991
2.99966
2.99931
2.9979
2.99588
2.98809
2.97533
2.93321
2.83877
2.61979
2.05461
1.19454
0.502278
0.298222
0.33767
0.348832
0.318267
0.265824
0.214717
0.173857
0.134465
0.093388
0.0695396
3.00002
2.99997
2.99991
2.99967
2.99933
2.99796
2.996
2.98844
2.97597
2.93512
2.84282
2.62935
2.07212
1.22061
0.516895
0.299606
0.341313
0.354029
0.324281
0.273935
0.226151
0.189188
0.15529
0.12349
0.108731
3.00002
2.99997
2.99991
2.99968
2.99936
2.99805
2.99616
2.98898
2.97692
2.93804
2.84902
2.6443
2.09966
1.26168
0.539225
0.301476
0.346905
0.36251
0.334452
0.287429
0.244305
0.212473
0.18485
0.161141
0.151547
3.00002
2.99997
2.99992
2.9997
2.99939
2.99815
2.99636
2.98952
2.97817
2.94114
2.85744
2.66221
2.14635
1.32363
0.573988
0.308799
0.357632
0.376465
0.350141
0.306767
0.268288
0.241688
0.220067
0.202515
0.196504
3.00002
2.99998
2.99993
2.99972
2.99943
2.99826
2.99659
2.99008
2.97967
2.94459
2.86865
2.68471
2.20935
1.4074
0.62029
0.322593
0.374218
0.396605
0.371808
0.332535
0.298411
0.276589
0.260549
0.248896
0.246263
3.00002
2.99998
2.99993
2.99974
2.99947
2.99837
2.99683
2.99063
2.98131
2.94794
2.88302
2.71131
2.28714
1.51471
0.679467
0.347766
0.399481
0.423894
0.400186
0.364437
0.334855
0.317844
0.307343
0.301826
0.304711
3.00002
2.99998
2.99994
2.99977
2.99952
2.99853
2.99713
2.99155
2.98316
2.95292
2.89654
2.73952
2.36953
1.64069
0.748729
0.387984
0.436762
0.459301
0.436419
0.403882
0.377871
0.365715
0.361411
0.364238
0.377379
3.00002
2.99999
2.99995
2.99979
2.99958
2.99869
2.99743
2.99241
2.98493
2.95762
2.9078
2.7655
2.43512
1.7476
0.812316
0.426935
0.468755
0.488413
0.471954
0.446933
0.426843
0.420179
0.423822
0.440142
0.476884
3.00002
2.99999
2.99996
2.99983
2.99964
2.99889
2.99779
2.9936
2.98687
2.96427
2.91682
2.79604
2.48405
1.86454
0.908555
0.491269
0.494315
0.506331
0.503961
0.488474
0.477922
0.478968
0.496498
0.540489
0.64207
3
2.99995
2.99989
2.99963
2.99928
2.99785
2.9958
2.9879
2.975
2.93224
2.83681
2.61516
2.04668
1.18289
0.495982
0.298224
0.336614
0.347196
0.316477
0.263307
0.210806
0.168282
0.126423
0.0794201
0.0445249
3
2.99995
2.99989
2.99964
2.99929
2.99788
2.99586
2.98807
2.97531
2.93318
2.83874
2.61972
2.05453
1.19441
0.502136
0.298035
0.337492
0.348653
0.318068
0.265583
0.214414
0.173477
0.133965
0.0926563
0.0685405
3
2.99995
2.99989
2.99965
2.99931
2.99794
2.99597
2.98842
2.97594
2.93508
2.84279
2.62928
2.07205
1.22048
0.516757
0.299421
0.341138
0.353853
0.324088
0.273704
0.225866
0.188843
0.154863
0.122946
0.108105
3
2.99995
2.9999
2.99966
2.99934
2.99803
2.99614
2.98896
2.9769
2.938
2.84898
2.64423
2.09959
1.26155
0.539094
0.301292
0.346732
0.362338
0.334265
0.28721
0.244044
0.21217
0.184497
0.160732
0.151107
3
2.99996
2.9999
2.99968
2.99937
2.99813
2.99634
2.9895
2.97815
2.94111
2.85741
2.66215
2.14628
1.3235
0.573862
0.308616
0.357461
0.376298
0.349961
0.306562
0.268053
0.241424
0.219776
0.202195
0.196172
3
2.99996
2.99991
2.9997
2.99941
2.99824
2.99657
2.99005
2.97964
2.94454
2.86864
2.68465
2.20932
1.40729
0.620194
0.322432
0.374065
0.396454
0.371644
0.33235
0.298202
0.276363
0.260307
0.248642
0.246005
3
2.99996
2.99991
2.99972
2.99945
2.99835
2.99681
2.99061
2.98129
2.94791
2.88299
2.71125
2.28709
1.51459
0.679375
0.347613
0.399339
0.423756
0.400038
0.364272
0.334674
0.317651
0.307142
0.301622
0.304508
3
2.99997
2.99992
2.99975
2.9995
2.99851
2.99711
2.99153
2.98314
2.95289
2.89651
2.73947
2.36947
1.64057
0.748637
0.387837
0.436627
0.459172
0.436284
0.403735
0.377714
0.365551
0.361245
0.364074
0.377222
3
2.99997
2.99993
2.99978
2.99956
2.99867
2.99741
2.99239
2.98491
2.95759
2.90777
2.76545
2.43508
1.74751
0.812242
0.426804
0.468636
0.488297
0.471832
0.446804
0.426707
0.420041
0.423686
0.440012
0.476766
3
2.99998
2.99994
2.99981
2.99962
2.99887
2.99777
2.99357
2.98685
2.96423
2.91681
2.796
2.48406
1.86446
0.908484
0.491149
0.494212
0.506226
0.503853
0.488359
0.477804
0.478851
0.496386
0.540389
0.64199
3
2.99995
2.99989
2.99963
2.99928
2.99785
2.9958
2.9879
2.975
2.93224
2.83681
2.61516
2.04668
1.18288
0.49598
0.298225
0.336614
0.347196
0.316477
0.263307
0.210806
0.168282
0.126423
0.0794202
0.044525
3
2.99995
2.99989
2.99964
2.99929
2.99788
2.99586
2.98807
2.97531
2.93318
2.83874
2.61971
2.05453
1.19441
0.502134
0.298036
0.337492
0.348653
0.318068
0.265584
0.214414
0.173477
0.133965
0.0926564
0.0685407
3
2.99995
2.99989
2.99965
2.99931
2.99794
2.99597
2.98842
2.97594
2.93508
2.84279
2.62928
2.07204
1.22048
0.516756
0.299422
0.341139
0.353853
0.324088
0.273704
0.225867
0.188843
0.154864
0.122946
0.108105
3
2.99995
2.9999
2.99966
2.99934
2.99803
2.99614
2.98896
2.9769
2.938
2.84898
2.64423
2.09959
1.26155
0.539093
0.301293
0.346732
0.362338
0.334265
0.28721
0.244044
0.212171
0.184497
0.160732
0.151108
3
2.99996
2.9999
2.99968
2.99937
2.99813
2.99634
2.9895
2.97815
2.94111
2.85741
2.66215
2.14628
1.32349
0.57386
0.308616
0.357461
0.376298
0.349961
0.306562
0.268053
0.241425
0.219776
0.202196
0.196173
3
2.99996
2.99991
2.9997
2.99941
2.99824
2.99657
2.99005
2.97964
2.94454
2.86864
2.68464
2.20932
1.40728
0.620192
0.322432
0.374065
0.396454
0.371643
0.33235
0.298202
0.276363
0.260307
0.248642
0.246005
3
2.99996
2.99991
2.99972
2.99945
2.99835
2.99681
2.99061
2.98129
2.94791
2.88299
2.71125
2.28709
1.51459
0.679372
0.347613
0.399338
0.423755
0.400037
0.364272
0.334674
0.317651
0.307142
0.301622
0.304509
3
2.99997
2.99992
2.99975
2.9995
2.99851
2.99711
2.99153
2.98314
2.95289
2.89651
2.73947
2.36947
1.64057
0.748634
0.387837
0.436626
0.459171
0.436283
0.403735
0.377713
0.365551
0.361245
0.364074
0.377222
3
2.99997
2.99993
2.99978
2.99956
2.99867
2.99741
2.99239
2.98491
2.95759
2.90777
2.76545
2.43508
1.74751
0.81224
0.426804
0.468635
0.488296
0.471831
0.446803
0.426706
0.420041
0.423685
0.440012
0.476766
3
2.99998
2.99994
2.99981
2.99962
2.99887
2.99777
2.99357
2.98685
2.96423
2.91681
2.796
2.48406
1.86445
0.908481
0.491148
0.494212
0.506226
0.503853
0.488359
0.477803
0.478851
0.496385
0.540389
0.64199
3
2.99995
2.99989
2.99963
2.99928
2.99785
2.9958
2.9879
2.975
2.93224
2.83681
2.61516
2.04668
1.18288
0.49598
0.298225
0.336614
0.347196
0.316477
0.263307
0.210806
0.168282
0.126423
0.0794202
0.044525
3
2.99995
2.99989
2.99964
2.99929
2.99788
2.99586
2.98807
2.97531
2.93318
2.83874
2.61971
2.05453
1.19441
0.502134
0.298036
0.337492
0.348653
0.318068
0.265584
0.214414
0.173477
0.133965
0.0926564
0.0685407
3
2.99995
2.99989
2.99965
2.99931
2.99794
2.99597
2.98842
2.97594
2.93508
2.84279
2.62928
2.07204
1.22048
0.516756
0.299422
0.341139
0.353853
0.324088
0.273704
0.225867
0.188843
0.154864
0.122946
0.108105
3
2.99995
2.9999
2.99966
2.99934
2.99803
2.99614
2.98896
2.9769
2.938
2.84898
2.64423
2.09959
1.26155
0.539093
0.301293
0.346732
0.362338
0.334265
0.28721
0.244044
0.212171
0.184497
0.160732
0.151108
3
2.99996
2.9999
2.99968
2.99937
2.99813
2.99634
2.9895
2.97815
2.94111
2.85741
2.66215
2.14628
1.32349
0.57386
0.308616
0.357461
0.376298
0.349961
0.306562
0.268053
0.241425
0.219776
0.202196
0.196173
3
2.99996
2.99991
2.9997
2.99941
2.99824
2.99657
2.99005
2.97964
2.94454
2.86864
2.68464
2.20932
1.40728
0.620192
0.322432
0.374065
0.396454
0.371643
0.33235
0.298202
0.276363
0.260307
0.248642
0.246005
3
2.99996
2.99991
2.99972
2.99945
2.99835
2.99681
2.99061
2.98129
2.94791
2.88299
2.71125
2.28709
1.51459
0.679372
0.347613
0.399338
0.423755
0.400037
0.364272
0.334674
0.317651
0.307142
0.301622
0.304509
3
2.99997
2.99992
2.99975
2.9995
2.99851
2.99711
2.99153
2.98314
2.95289
2.89651
2.73947
2.36947
1.64057
0.748634
0.387837
0.436626
0.459171
0.436283
0.403735
0.377713
0.365551
0.361245
0.364074
0.377222
3
2.99997
2.99993
2.99978
2.99956
2.99867
2.99741
2.99239
2.98491
2.95759
2.90777
2.76545
2.43508
1.74751
0.81224
0.426804
0.468635
0.488296
0.471831
0.446803
0.426706
0.420041
0.423685
0.440012
0.476766
3
2.99998
2.99994
2.99981
2.99962
2.99887
2.99777
2.99357
2.98685
2.96423
2.91681
2.796
2.48406
1.86445
0.908481
0.491148
0.494212
0.506226
0.503853
0.488359
0.477803
0.478851
0.496385
0.540389
0.64199
3
2.99995
2.99989
2.99963
2.99928
2.99785
2.9958
2.9879
2.975
2.93224
2.83681
2.61516
2.04668
1.18288
0.49598
0.298226
0.336614
0.347196
0.316477
0.263307
0.210806
0.168282
0.126423
0.0794202
0.044525
3
2.99995
2.99989
2.99964
2.99929
2.99788
2.99586
2.98807
2.97531
2.93318
2.83874
2.61971
2.05453
1.19441
0.502134
0.298036
0.337492
0.348653
0.318068
0.265584
0.214414
0.173477
0.133965
0.0926564
0.0685407
3
2.99995
2.99989
2.99965
2.99931
2.99794
2.99597
2.98842
2.97594
2.93508
2.84279
2.62928
2.07204
1.22048
0.516755
0.299422
0.341139
0.353853
0.324088
0.273705
0.225867
0.188843
0.154864
0.122946
0.108105
3
2.99995
2.9999
2.99966
2.99934
2.99803
2.99614
2.98896
2.9769
2.938
2.84898
2.64423
2.09959
1.26154
0.539092
0.301293
0.346733
0.362338
0.334265
0.28721
0.244044
0.212171
0.184497
0.160732
0.151108
3
2.99996
2.9999
2.99968
2.99937
2.99813
2.99634
2.9895
2.97815
2.94111
2.85741
2.66215
2.14628
1.32349
0.57386
0.308617
0.357461
0.376298
0.349961
0.306562
0.268053
0.241425
0.219776
0.202196
0.196173
3
2.99996
2.99991
2.9997
2.99941
2.99824
2.99657
2.99005
2.97964
2.94454
2.86864
2.68464
2.20932
1.40728
0.620191
0.322432
0.374065
0.396454
0.371643
0.33235
0.298202
0.276363
0.260307
0.248642
0.246005
3
2.99996
2.99991
2.99972
2.99945
2.99835
2.99681
2.99061
2.98129
2.94791
2.88299
2.71125
2.28709
1.51459
0.679372
0.347613
0.399338
0.423755
0.400037
0.364271
0.334673
0.317651
0.307142
0.301622
0.304509
3
2.99997
2.99992
2.99975
2.9995
2.99851
2.99711
2.99153
2.98314
2.95289
2.89651
2.73947
2.36947
1.64057
0.748634
0.387836
0.436626
0.459171
0.436283
0.403734
0.377713
0.36555
0.361245
0.364074
0.377222
3
2.99997
2.99993
2.99978
2.99956
2.99867
2.99741
2.99239
2.98491
2.95759
2.90777
2.76545
2.43508
1.7475
0.81224
0.426804
0.468635
0.488296
0.471831
0.446803
0.426706
0.420041
0.423685
0.440012
0.476766
3
2.99998
2.99994
2.99981
2.99962
2.99887
2.99777
2.99357
2.98685
2.96423
2.91681
2.796
2.48406
1.86445
0.90848
0.491148
0.494212
0.506226
0.503853
0.488359
0.477803
0.47885
0.496385
0.540389
0.64199
3
2.99995
2.99989
2.99963
2.99928
2.99785
2.9958
2.9879
2.975
2.93224
2.83681
2.61516
2.04668
1.18288
0.49598
0.298226
0.336614
0.347196
0.316477
0.263307
0.210806
0.168282
0.126423
0.0794202
0.044525
3
2.99995
2.99989
2.99964
2.99929
2.99788
2.99586
2.98807
2.97531
2.93318
2.83874
2.61971
2.05453
1.19441
0.502134
0.298036
0.337492
0.348653
0.318068
0.265584
0.214414
0.173477
0.133965
0.0926564
0.0685407
3
2.99995
2.99989
2.99965
2.99931
2.99794
2.99597
2.98842
2.97594
2.93508
2.84279
2.62928
2.07204
1.22048
0.516755
0.299422
0.341139
0.353853
0.324088
0.273705
0.225867
0.188843
0.154864
0.122946
0.108105
3
2.99995
2.9999
2.99966
2.99934
2.99803
2.99614
2.98896
2.9769
2.938
2.84898
2.64423
2.09959
1.26155
0.539092
0.301293
0.346732
0.362338
0.334265
0.28721
0.244044
0.212171
0.184497
0.160732
0.151108
3
2.99996
2.9999
2.99968
2.99937
2.99813
2.99634
2.9895
2.97815
2.94111
2.85741
2.66215
2.14628
1.32349
0.57386
0.308616
0.357461
0.376298
0.349961
0.306562
0.268053
0.241425
0.219776
0.202196
0.196173
3
2.99996
2.99991
2.9997
2.99941
2.99824
2.99657
2.99005
2.97964
2.94454
2.86864
2.68464
2.20932
1.40728
0.620191
0.322432
0.374065
0.396454
0.371643
0.33235
0.298202
0.276363
0.260307
0.248642
0.246005
3
2.99996
2.99991
2.99972
2.99945
2.99835
2.99681
2.99061
2.98129
2.94791
2.88299
2.71125
2.28709
1.51459
0.679372
0.347613
0.399338
0.423755
0.400037
0.364272
0.334673
0.317651
0.307142
0.301622
0.304509
3
2.99997
2.99992
2.99975
2.9995
2.99851
2.99711
2.99153
2.98314
2.95289
2.89651
2.73947
2.36947
1.64057
0.748634
0.387836
0.436626
0.459171
0.436283
0.403734
0.377713
0.36555
0.361245
0.364074
0.377222
3
2.99997
2.99993
2.99978
2.99956
2.99867
2.99741
2.99239
2.98491
2.95759
2.90777
2.76545
2.43508
1.7475
0.81224
0.426804
0.468635
0.488296
0.471831
0.446803
0.426706
0.420041
0.423685
0.440012
0.476766
3
2.99998
2.99994
2.99981
2.99962
2.99887
2.99777
2.99357
2.98685
2.96423
2.91681
2.796
2.48406
1.86445
0.908481
0.491148
0.494212
0.506226
0.503853
0.488359
0.477803
0.47885
0.496385
0.540389
0.64199
3
2.99995
2.99989
2.99963
2.99928
2.99785
2.9958
2.9879
2.975
2.93224
2.83681
2.61516
2.04668
1.18288
0.49598
0.298225
0.336614
0.347196
0.316477
0.263307
0.210806
0.168282
0.126423
0.0794202
0.044525
3
2.99995
2.99989
2.99964
2.99929
2.99788
2.99586
2.98807
2.97531
2.93318
2.83874
2.61971
2.05453
1.19441
0.502134
0.298036
0.337492
0.348653
0.318068
0.265584
0.214414
0.173477
0.133965
0.0926564
0.0685407
3
2.99995
2.99989
2.99965
2.99931
2.99794
2.99597
2.98842
2.97594
2.93508
2.84279
2.62928
2.07204
1.22048
0.516756
0.299422
0.341139
0.353853
0.324088
0.273704
0.225867
0.188843
0.154864
0.122946
0.108105
3
2.99995
2.9999
2.99966
2.99934
2.99803
2.99614
2.98896
2.9769
2.938
2.84898
2.64423
2.09959
1.26155
0.539093
0.301293
0.346732
0.362338
0.334265
0.28721
0.244044
0.212171
0.184497
0.160732
0.151108
3
2.99996
2.9999
2.99968
2.99937
2.99813
2.99634
2.9895
2.97815
2.94111
2.85741
2.66215
2.14628
1.32349
0.57386
0.308616
0.357461
0.376298
0.349961
0.306562
0.268053
0.241425
0.219776
0.202196
0.196173
3
2.99996
2.99991
2.9997
2.99941
2.99824
2.99657
2.99005
2.97964
2.94454
2.86864
2.68464
2.20932
1.40728
0.620192
0.322432
0.374065
0.396454
0.371643
0.33235
0.298202
0.276363
0.260307
0.248642
0.246005
3
2.99996
2.99991
2.99972
2.99945
2.99835
2.99681
2.99061
2.98129
2.94791
2.88299
2.71125
2.28709
1.51459
0.679372
0.347613
0.399338
0.423755
0.400037
0.364272
0.334674
0.317651
0.307142
0.301622
0.304509
3
2.99997
2.99992
2.99975
2.9995
2.99851
2.99711
2.99153
2.98314
2.95289
2.89651
2.73947
2.36947
1.64057
0.748634
0.387837
0.436626
0.459171
0.436283
0.403735
0.377713
0.365551
0.361245
0.364074
0.377222
3
2.99997
2.99993
2.99978
2.99956
2.99867
2.99741
2.99239
2.98491
2.95759
2.90777
2.76545
2.43508
1.74751
0.81224
0.426804
0.468635
0.488296
0.471831
0.446803
0.426706
0.420041
0.423685
0.440012
0.476766
3
2.99998
2.99994
2.99981
2.99962
2.99887
2.99777
2.99357
2.98685
2.96423
2.91681
2.796
2.48406
1.86445
0.908481
0.491148
0.494212
0.506226
0.503853
0.488359
0.477803
0.478851
0.496385
0.540389
0.64199
3
2.99995
2.99989
2.99963
2.99928
2.99785
2.9958
2.9879
2.975
2.93224
2.83681
2.61516
2.04668
1.18288
0.49598
0.298225
0.336614
0.347196
0.316477
0.263307
0.210806
0.168282
0.126423
0.0794202
0.044525
3
2.99995
2.99989
2.99964
2.99929
2.99788
2.99586
2.98807
2.97531
2.93318
2.83874
2.61971
2.05453
1.19441
0.502134
0.298036
0.337492
0.348653
0.318068
0.265584
0.214414
0.173477
0.133965
0.0926564
0.0685407
3
2.99995
2.99989
2.99965
2.99931
2.99794
2.99597
2.98842
2.97594
2.93508
2.84279
2.62928
2.07204
1.22048
0.516756
0.299422
0.341139
0.353853
0.324088
0.273704
0.225867
0.188843
0.154864
0.122946
0.108105
3
2.99995
2.9999
2.99966
2.99934
2.99803
2.99614
2.98896
2.9769
2.938
2.84898
2.64423
2.09959
1.26155
0.539093
0.301293
0.346732
0.362338
0.334265
0.28721
0.244044
0.212171
0.184497
0.160732
0.151108
3
2.99996
2.9999
2.99968
2.99937
2.99813
2.99634
2.9895
2.97815
2.94111
2.85741
2.66215
2.14628
1.32349
0.57386
0.308616
0.357461
0.376298
0.349961
0.306562
0.268053
0.241425
0.219776
0.202196
0.196173
3
2.99996
2.99991
2.9997
2.99941
2.99824
2.99657
2.99005
2.97964
2.94454
2.86864
2.68464
2.20932
1.40728
0.620192
0.322432
0.374065
0.396454
0.371643
0.33235
0.298202
0.276363
0.260307
0.248642
0.246005
3
2.99996
2.99991
2.99972
2.99945
2.99835
2.99681
2.99061
2.98129
2.94791
2.88299
2.71125
2.28709
1.51459
0.679372
0.347613
0.399338
0.423755
0.400037
0.364272
0.334674
0.317651
0.307142
0.301622
0.304509
3
2.99997
2.99992
2.99975
2.9995
2.99851
2.99711
2.99153
2.98314
2.95289
2.89651
2.73947
2.36947
1.64057
0.748634
0.387837
0.436626
0.459171
0.436283
0.403735
0.377713
0.365551
0.361245
0.364074
0.377222
3
2.99997
2.99993
2.99978
2.99956
2.99867
2.99741
2.99239
2.98491
2.95759
2.90777
2.76545
2.43508
1.74751
0.81224
0.426804
0.468635
0.488296
0.471831
0.446803
0.426706
0.420041
0.423685
0.440012
0.476766
3
2.99998
2.99994
2.99981
2.99962
2.99887
2.99777
2.99357
2.98685
2.96423
2.91681
2.796
2.48406
1.86445
0.908481
0.491148
0.494212
0.506226
0.503853
0.488359
0.477803
0.478851
0.496385
0.540389
0.64199
3
2.99995
2.99989
2.99963
2.99928
2.99785
2.9958
2.9879
2.975
2.93224
2.83681
2.61516
2.04668
1.18289
0.495982
0.298224
0.336614
0.347196
0.316477
0.263307
0.210806
0.168282
0.126423
0.0794201
0.0445249
3
2.99995
2.99989
2.99964
2.99929
2.99788
2.99586
2.98807
2.97531
2.93318
2.83874
2.61972
2.05453
1.19441
0.502136
0.298035
0.337492
0.348653
0.318068
0.265583
0.214414
0.173477
0.133965
0.0926563
0.0685405
3
2.99995
2.99989
2.99965
2.99931
2.99794
2.99597
2.98842
2.97594
2.93508
2.84279
2.62928
2.07205
1.22048
0.516757
0.299421
0.341138
0.353853
0.324088
0.273704
0.225866
0.188843
0.154863
0.122946
0.108105
3
2.99995
2.9999
2.99966
2.99934
2.99803
2.99614
2.98896
2.9769
2.938
2.84898
2.64423
2.09959
1.26155
0.539094
0.301292
0.346732
0.362338
0.334265
0.28721
0.244044
0.21217
0.184497
0.160732
0.151107
3
2.99996
2.9999
2.99968
2.99937
2.99813
2.99634
2.9895
2.97815
2.94111
2.85741
2.66215
2.14628
1.3235
0.573862
0.308616
0.357461
0.376298
0.349961
0.306562
0.268053
0.241424
0.219776
0.202195
0.196172
3
2.99996
2.99991
2.9997
2.99941
2.99824
2.99657
2.99005
2.97964
2.94454
2.86864
2.68465
2.20932
1.40729
0.620194
0.322432
0.374065
0.396454
0.371644
0.33235
0.298202
0.276363
0.260307
0.248642
0.246005
3
2.99996
2.99991
2.99972
2.99945
2.99835
2.99681
2.99061
2.98129
2.94791
2.88299
2.71125
2.28709
1.51459
0.679375
0.347613
0.399339
0.423756
0.400038
0.364272
0.334674
0.317651
0.307142
0.301622
0.304508
3
2.99997
2.99992
2.99975
2.9995
2.99851
2.99711
2.99153
2.98314
2.95289
2.89651
2.73947
2.36947
1.64057
0.748637
0.387837
0.436627
0.459172
0.436284
0.403735
0.377714
0.365551
0.361245
0.364074
0.377222
3
2.99997
2.99993
2.99978
2.99956
2.99867
2.99741
2.99239
2.98491
2.95759
2.90777
2.76545
2.43508
1.74751
0.812242
0.426804
0.468636
0.488297
0.471832
0.446804
0.426707
0.420041
0.423686
0.440012
0.476766
3
2.99998
2.99994
2.99981
2.99962
2.99887
2.99777
2.99357
2.98685
2.96423
2.91681
2.796
2.48406
1.86446
0.908484
0.491149
0.494212
0.506226
0.503853
0.488359
0.477804
0.478851
0.496386
0.540389
0.64199
3.00001
2.99997
2.9999
2.99965
2.9993
2.99787
2.99583
2.98792
2.97502
2.93228
2.83684
2.61523
2.04676
1.18302
0.496128
0.298413
0.336794
0.347377
0.316678
0.263552
0.211117
0.168678
0.126958
0.0802842
0.0460714
3.00002
2.99997
2.99991
2.99966
2.99931
2.9979
2.99588
2.98809
2.97533
2.93321
2.83877
2.61979
2.05461
1.19454
0.502279
0.298222
0.33767
0.348832
0.318267
0.265824
0.214717
0.173857
0.134465
0.093388
0.0695396
3.00002
2.99997
2.99991
2.99967
2.99933
2.99796
2.996
2.98844
2.97597
2.93512
2.84282
2.62935
2.07212
1.22061
0.516895
0.299606
0.341313
0.354029
0.324281
0.273935
0.226151
0.189188
0.15529
0.12349
0.108731
3.00002
2.99997
2.99991
2.99968
2.99936
2.99805
2.99616
2.98898
2.97692
2.93804
2.84902
2.6443
2.09966
1.26168
0.539225
0.301476
0.346905
0.36251
0.334452
0.287429
0.244305
0.212473
0.18485
0.161141
0.151547
3.00002
2.99997
2.99992
2.9997
2.99939
2.99815
2.99636
2.98952
2.97817
2.94114
2.85744
2.66221
2.14635
1.32363
0.573988
0.308799
0.357632
0.376465
0.350141
0.306767
0.268288
0.241688
0.220067
0.202515
0.196504
3.00002
2.99998
2.99993
2.99972
2.99943
2.99826
2.99659
2.99008
2.97967
2.94459
2.86865
2.68471
2.20935
1.4074
0.62029
0.322593
0.374218
0.396605
0.371808
0.332535
0.298411
0.276589
0.260549
0.248896
0.246263
3.00002
2.99998
2.99993
2.99974
2.99947
2.99837
2.99683
2.99063
2.98131
2.94794
2.88302
2.71131
2.28714
1.51471
0.679468
0.347766
0.399481
0.423894
0.400186
0.364437
0.334855
0.317844
0.307343
0.301826
0.304711
3.00002
2.99998
2.99994
2.99977
2.99952
2.99853
2.99713
2.99155
2.98316
2.95292
2.89654
2.73952
2.36953
1.64069
0.748729
0.387984
0.436762
0.459301
0.43642
0.403882
0.377871
0.365715
0.361411
0.364238
0.377379
3.00002
2.99999
2.99995
2.99979
2.99958
2.99869
2.99743
2.99241
2.98493
2.95762
2.9078
2.7655
2.43512
1.7476
0.812317
0.426935
0.468755
0.488413
0.471954
0.446933
0.426843
0.420179
0.423822
0.440142
0.476883
3.00002
2.99999
2.99996
2.99983
2.99964
2.99889
2.99779
2.9936
2.98687
2.96427
2.91682
2.79604
2.48405
1.86454
0.908556
0.491269
0.494315
0.506331
0.503961
0.488474
0.477922
0.478969
0.496498
0.540489
0.64207
3.00002
3
2.99995
2.99988
2.9996
2.9992
2.99762
2.99524
2.98654
2.97141
2.9239
2.81424
2.56573
1.95542
1.07479
0.575287
0.518116
0.529109
0.53567
0.529863
0.528681
0.540806
0.578084
0.6607
0.833353
3.00002
3.00001
2.99996
2.9999
2.99965
2.99931
2.9979
2.99589
2.98808
2.97552
2.93348
2.8411
2.62447
2.07291
1.23071
0.661874
0.538125
0.552466
0.566806
0.570407
0.577713
0.601598
0.655235
0.755495
0.931487
3.00002
3.00001
2.99997
2.99992
2.99971
2.99942
2.99823
2.99652
2.99001
2.97926
2.94415
2.86559
2.68114
2.19722
1.40733
0.758422
0.563288
0.579191
0.598625
0.610099
0.625018
0.657133
0.717624
0.814611
0.962522
3.00002
3.00001
2.99998
2.99994
2.99976
2.99951
2.99849
2.99705
2.99131
2.98269
2.95169
2.89324
2.73398
2.35086
1.6243
0.873338
0.607272
0.616913
0.633503
0.650847
0.670675
0.706807
0.766113
0.851337
0.974161
3.00002
3.00001
2.99999
2.99995
2.99981
2.9996
2.99878
2.99759
2.99298
2.98589
2.96069
2.9146
2.78009
2.48692
1.82091
1.00653
0.672059
0.661108
0.6733
0.691171
0.712838
0.748334
0.806444
0.880542
0.982736
3.00002
3.00001
3
2.99996
2.99989
2.99962
2.99922
2.9977
2.99542
2.98709
2.97271
2.92767
2.8242
2.5916
2.0117
1.17936
0.753325
0.701016
0.712869
0.729426
0.751431
0.784502
0.837227
0.905407
0.991886
3.00002
3.00002
3.00001
2.99997
2.99991
2.99969
2.99938
2.99814
2.99635
2.98954
2.9783
2.94183
2.86015
2.67053
2.17424
1.3927
0.857464
0.730894
0.742147
0.760076
0.785778
0.817907
0.864234
0.925695
1.00078
3.00002
3.00002
3.00001
2.99998
2.99994
2.99976
2.99951
2.99852
2.99709
2.99152
2.98294
2.95275
2.89507
2.73782
2.36738
1.64217
0.992684
0.776911
0.773061
0.788034
0.816059
0.849136
0.890674
0.945163
1.01098
3.00002
3.00002
3.00001
3
2.99995
2.99987
2.99956
2.99911
2.99738
2.99478
2.98527
2.96904
2.91843
2.80525
2.54137
1.95941
1.17069
0.847887
0.815486
0.824853
0.848054
0.880495
0.916277
0.963092
1.02073
3.00003
3.00002
3.00002
3.00001
2.99997
2.99991
2.99968
2.99935
2.99805
2.99613
2.98915
2.9769
2.93929
2.85157
2.65481
2.14029
1.36897
0.933796
0.850237
0.858324
0.878416
0.908736
0.943749
0.983571
1.03241
3.00003
3.00002
3.00002
3.00001
2.99999
2.99992
2.99982
2.99944
2.99886
2.9968
2.99312
2.98193
2.95632
2.89385
2.72319
2.38925
1.6303
1.07723
0.89704
0.890193
0.903816
0.931037
0.966182
1.00469
1.04696
3.00003
3.00003
3.00002
3.00001
3
2.99995
2.99987
2.99957
2.99914
2.99742
2.99495
2.98546
2.97026
2.92067
2.81514
2.56065
2.00182
1.2584
0.96925
0.930666
0.937038
0.95879
0.990648
1.02567
1.06459
3.00003
3.00003
3.00002
3.00002
3
2.99998
2.99989
2.99977
2.99927
2.99854
2.99583
2.99136
2.97686
2.94633
2.86764
2.66403
2.26016
1.47332
1.06536
0.965596
0.96629
0.98385
1.01239
1.04548
1.08055
3.00003
3.00003
3.00003
3.00002
3.00001
2.99999
2.99993
2.99984
2.99947
2.99895
2.99689
2.99387
2.98281
2.96362
2.90569
2.76951
2.47957
1.82454
1.2306
1.02256
1.00281
1.01263
1.03633
1.06764
1.09978
3.00003
3.00003
3.00003
3.00002
3.00002
3
2.99997
2.99986
2.99971
2.9991
2.9982
2.99484
2.98956
2.97141
2.93792
2.84219
2.6325
2.13523
1.42477
1.10216
1.0383
1.04125
1.05875
1.08719
1.11846
3.00003
3.00003
3.00003
3.00003
3.00002
3.00001
2.99999
2.99991
2.99981
2.99939
2.99878
2.99644
2.99295
2.9804
2.95832
2.89299
2.73974
2.41289
1.72557
1.24234
1.0888
1.0749
1.08394
1.10607
1.1363
3.00003
3.00003
3.00003
3.00003
3.00002
3.00002
3
2.99997
2.99985
2.99967
2.99901
2.99801
2.99434
2.98849
2.96883
2.93247
2.82753
2.61101
2.073
1.43096
1.16235
1.113
1.11448
1.13025
1.15485
3.00003
3.00003
3.00003
3.00003
3.00003
3.00002
3.00001
2.99999
2.99991
2.99979
2.99934
2.99869
2.99618
2.99247
2.97895
2.95589
2.88705
2.73195
2.38619
1.71509
1.28687
1.15675
1.14353
1.15151
1.17094
3.00003
3.00003
3.00003
3.00003
3.00003
3.00002
3.00002
3
2.99996
2.99984
2.99966
2.99898
2.99795
2.99425
2.98818
2.96838
2.93131
2.82447
2.61025
2.0603
1.47895
1.22872
1.1824
1.17934
1.19242
3.00003
3.00003
3.00003
3.00003
3.00003
3.00003
3.00002
3.00001
2.99998
2.99993
2.99974
2.99947
2.99844
2.9969
2.99144
2.98198
2.95333
2.88871
2.74341
2.36255
1.73538
1.33118
1.22122
1.20831
1.21509
3.00003
3.00003
3.00003
3.00003
3.00003
3.00003
3.00002
3.00002
3
2.99996
2.99984
2.99966
2.99898
2.99798
2.99423
2.98848
2.96848
2.93351
2.82844
2.62188
2.0949
1.52666
1.28506
1.24172
1.23954
3.00003
3.00003
3.00003
3.00003
3.00003
3.00003
3.00003
3.00002
3.00001
2.99998
2.99993
2.99975
2.99949
2.99851
2.99703
2.99178
2.9829
2.95539
2.89499
2.75605
2.40223
1.79421
1.39191
1.27801
1.26544
3.00003
3.00003
3.00003
3.00003
3.00003
3.00003
3.00003
3.00002
3.00002
3
2.99997
2.99985
2.99968
2.99904
2.99811
2.9946
2.9893
2.97065
2.9387
2.8421
2.6517
2.16851
1.59173
1.34512
1.29736
3.00003
3.00003
3.00003
3.00003
3.00003
3.00003
3.00003
3.00003
3.00002
3.00001
2.99999
2.99992
2.99982
2.99942
2.99885
2.99667
2.99351
2.98177
2.96283
2.90405
2.77895
2.49424
1.90688
1.48379
1.34087
3.00003
3.00003
3.00003
3.00003
3.00003
3.00003
3.00003
3.00003
3.00003
3.00002
3.00001
2.99996
2.9999
2.99966
2.99932
2.99801
2.99611
2.989
2.97804
2.94171
2.86951
2.69511
2.2815
1.69316
1.4219
3.00003
3.00003
3.00003
3.00003
3.00003
3.00003
3.00003
3.00003
3.00003
3.00002
3.00001
3
2.99994
2.99985
2.99953
2.99904
2.99729
2.99458
2.98532
2.96903
2.92146
2.81488
2.5809
2.06663
1.58418
3.00003
3.00003
3.00003
3.00003
3.00003
3.00003
3.00003
3.00003
3.00003
3.00003
3.00002
3.00001
2.99998
2.9999
2.99977
2.99932
2.99863
2.99615
2.9922
2.97912
2.95524
2.88742
2.74569
2.38903
1.84107
3.00003
3.00003
3.00003
3.00003
3.00003
3.00003
3.00003
3.00003
3.00003
3.00003
3.00002
3.00002
3
2.99997
2.99985
2.99968
2.99905
2.9981
2.99473
2.98928
2.97164
2.939
2.84796
2.66128
2.2016
3.00003
3.00003
3.00003
3.00003
3.00003
3.00003
3.00003
3.00003
3.00003
3.00003
3.00003
3.00002
3.00001
2.99999
2.99992
2.99982
2.99944
2.99889
2.99683
2.99376
2.98299
2.96457
2.91138
2.79675
2.53516
3.00003
3.00003
3.00003
3.00003
3.00003
3.00003
3.00003
3.00003
3.00003
3.00003
3.00003
3.00002
3.00002
3
2.99998
2.99988
2.99974
2.99922
2.99842
2.99562
2.99109
2.97624
2.94971
2.8713
2.72056
3.00003
3.00003
3.00003
3.00003
3.00003
3.00003
3.00003
3.00003
3.00003
3.00003
3.00003
3.00003
3.00002
3.00001
2.99999
2.99995
2.99981
2.9996
2.99883
2.99765
2.99348
2.98676
2.96493
2.92407
2.81234
3.00003
3.00003
3.00003
3.00003
3.00003
3.00003
3.00003
3.00003
3.00003
3.00003
3.00003
3.00003
3.00003
3.00002
3.00001
2.99996
2.9999
2.99965
2.99929
2.99792
2.9959
2.98837
2.97644
2.9369
2.85766
3.00003
3.00003
3.00003
3.00003
3.00003
3.00003
3.00003
3.00003
3.00003
3.00003
3.00003
3.00003
3.00003
3.00002
3.00001
2.99997
2.99992
2.99971
2.99941
2.99824
2.9965
2.98996
2.97906
2.9439
2.86448
3.00003
3.00003
3.00003
3.00003
3.00003
3.00003
3.00003
3.00003
3.00003
3.00003
3.00003
3.00003
3.00003
3.00002
3.00001
2.99999
2.99992
2.99981
2.99943
2.99876
2.99668
2.99201
2.97991
2.9481
2.87591
3.00003
3.00003
3.00003
3.00003
3.00003
3.00003
3.00003
3.00003
3.00003
3.00003
3.00003
3.00003
3.00003
3.00002
3.00001
2.99998
2.99994
2.99976
2.99949
2.99852
2.99681
2.99146
2.97953
2.94827
2.86442
3.00003
3.00003
3.00003
3.00003
3.00003
3.00003
3.00003
3.00003
3.00003
3.00003
3.00003
3.00003
3.00003
3.00002
3.00001
3
2.99993
2.99983
2.99948
2.99883
2.99689
2.99228
2.98066
2.94908
2.87815
3.00003
3.00003
3.00003
3.00003
3.00003
3.00003
3.00003
3.00003
3.00003
3.00003
3.00003
3.00003
3.00003
3.00002
3.00001
2.99998
2.99994
2.99976
2.9995
2.99849
2.9969
2.99128
2.98051
2.94849
2.86788
3.00003
3.00003
3.00003
3.00003
3.00003
3.00003
3.00003
3.00003
3.00003
3.00003
3.00003
3.00003
3.00003
3.00002
3.00001
2.99998
2.99994
2.99977
2.99951
2.99851
2.99696
2.99141
2.9809
2.94942
2.87046
3.00003
3.00003
3.00003
3.00003
3.00003
3.00003
3.00003
3.00003
3.00003
3.00003
3.00003
3.00003
3.00003
3.00002
3.00001
2.99999
2.99993
2.99983
2.99944
2.99885
2.99676
2.99267
2.98077
2.95098
2.87962
3.00003
3.00003
3.00003
3.00003
3.00003
3.00003
3.00003
3.00003
3.00003
3.00003
3.00003
3.00003
3.00003
3.00002
3.00001
2.99999
2.99992
2.99982
2.9994
2.99882
2.99647
2.99272
2.97994
2.95244
2.87945
3
2.99999
2.99994
2.99986
2.99959
2.99918
2.9976
2.99522
2.98652
2.97139
2.92386
2.81419
2.56567
1.95537
1.07469
0.575176
0.518019
0.529013
0.535573
0.529763
0.52858
0.540707
0.577992
0.660624
0.833303
3
2.99999
2.99994
2.99988
2.99963
2.99929
2.99788
2.99587
2.98805
2.9755
2.93344
2.84108
2.62442
2.07288
1.23063
0.661776
0.538031
0.552376
0.566718
0.570318
0.577624
0.601513
0.655159
0.755432
0.931443
3
2.99999
2.99995
2.9999
2.99969
2.9994
2.99821
2.9965
2.98998
2.97924
2.94412
2.86556
2.68108
2.19717
1.40723
0.758331
0.563193
0.579102
0.598542
0.610018
0.624939
0.657058
0.717557
0.814556
0.962479
3
2.99999
2.99996
2.99992
2.99974
2.99949
2.99847
2.99703
2.99129
2.98267
2.95166
2.89321
2.73393
2.35081
1.62421
0.873259
0.607179
0.616825
0.633422