/*--------------------------------*- C++ -*----------------------------------*\
| =========                 |                                                 |
| \\      /  F ield         | OpenFOAM: The Open Source CFD Toolbox           |
|  \\    /   O peration     | Version:  4.1                                   |
|   \\  /    A nd           | Web:      www.OpenFOAM.org                      |
|    \\/     M anipulation  |                                                 |
\*---------------------------------------------------------------------------*/
FoamFile
{
    version     2.0;
    format      ascii;
    class       volScalarField;
    location    "6";
    object      p;
}
// * * * * * * * * * * * * * * * * * * * * * * * * * * * * * * * * * * * * * //

dimensions      [1 -1 -2 0 0 0 0];

internalField   nonuniform List<scalar> 
52500
(
1.00001
1.00003
1.00011
1.00024
1.00071
1.00145
1.00414
1.00819
1.02503
1.04524
1.16255
1.29107
2.09921
3.62138
8.75923
11.4878
11.2217
11.034
11.1091
11.3273
11.5681
11.7208
11.8356
11.9276
12.0008
1.00001
1.00003
1.00011
1.00024
1.0007
1.00143
1.00409
1.00808
1.02472
1.04459
1.16062
1.28673
2.08763
3.58517
8.66901
11.4876
11.2142
11.0217
11.0985
11.3183
11.5585
11.7107
11.827
11.9203
11.9948
1.00001
1.00003
1.00011
1.00023
1.00068
1.00139
1.00397
1.00784
1.02409
1.04327
1.15659
1.2778
2.06239
3.50697
8.46665
11.4869
11.1949
10.9878
11.0647
11.2838
11.52
11.6685
11.7835
11.8753
11.9485
1.00001
1.00003
1.0001
1.00022
1.00065
1.00133
1.00381
1.00749
1.02314
1.04126
1.15042
1.26421
2.02326
3.38713
8.15051
11.492
11.1685
10.9337
11.0086
11.2228
11.4521
11.5944
11.705
11.7931
11.8653
1.00001
1.00003
1.0001
1.00021
1.00062
1.00126
1.00361
1.00712
1.02189
1.03917
1.14206
1.2492
1.95812
3.22951
7.70936
11.5075
11.1412
10.863
10.9333
11.1391
11.3593
11.4925
11.596
11.6791
11.751
1.00001
1.00003
1.00009
1.0002
1.00058
1.00119
1.00339
1.00674
1.02033
1.03716
1.13072
1.2323
1.87342
3.03442
7.14033
11.5299
11.114
10.7751
10.8376
11.0295
11.2382
11.3588
11.4503
11.524
11.5952
1.00001
1.00002
1.00008
1.00019
1.00054
1.00111
1.00315
1.00635
1.01849
1.03578
1.11583
1.21532
1.77358
2.81135
6.46095
11.5291
11.0824
10.6734
10.7242
10.8938
11.0853
11.1861
11.2572
11.312
11.3751
1
1.00002
1.00008
1.00017
1.00049
1.001
1.00284
1.00575
1.01661
1.03265
1.10212
1.19504
1.67241
2.5754
5.7033
11.4446
11.0131
10.5576
10.5939
10.7312
10.8969
10.9686
11.006
11.0223
11.0569
1
1.00002
1.00007
1.00015
1.00044
1.0009
1.00255
1.00516
1.01487
1.02931
1.09082
1.17463
1.59239
2.38537
5.17084
11.0658
10.8357
10.432
10.4455
10.5353
10.6633
10.6928
10.678
10.6168
10.5554
1
1.00002
1.00006
1.00013
1.00037
1.00077
1.00219
1.00439
1.01304
1.02425
1.08213
1.14633
1.52973
2.20706
4.68897
10.3258
10.5334
10.3549
10.2811
10.3184
10.3824
10.3606
10.2645
10.0397
9.69036
1.00001
1.00003
1.00012
1.00025
1.00071
1.00146
1.00415
1.0082
1.02504
1.04526
1.16257
1.29113
2.09928
3.62167
8.7598
11.4877
11.2217
11.0341
11.1092
11.3274
11.5682
11.7209
11.8356
11.9277
12.0009
1.00001
1.00003
1.00011
1.00025
1.0007
1.00144
1.00409
1.00809
1.02473
1.04461
1.16065
1.28679
2.0877
3.58546
8.66958
11.4875
11.2142
11.0218
11.0985
11.3184
11.5585
11.7108
11.8271
11.9204
11.9949
1.00001
1.00003
1.00011
1.00024
1.00068
1.00139
1.00398
1.00785
1.0241
1.04329
1.15662
1.27786
2.06246
3.50726
8.46722
11.4868
11.1949
10.9878
11.0648
11.2839
11.52
11.6686
11.7836
11.8754
11.9486
1.00001
1.00003
1.00011
1.00023
1.00065
1.00134
1.00382
1.0075
1.02315
1.04128
1.15045
1.26427
2.02333
3.38741
8.15107
11.4919
11.1685
10.9338
11.0087
11.2229
11.4522
11.5945
11.7051
11.7932
11.8654
1.00001
1.00003
1.0001
1.00022
1.00062
1.00127
1.00362
1.00713
1.0219
1.03919
1.14209
1.24926
1.95819
3.22977
7.70992
11.5074
11.1412
10.8631
10.9334
11.1392
11.3594
11.4925
11.5961
11.6792
11.7511
1.00001
1.00003
1.0001
1.00021
1.00058
1.0012
1.0034
1.00675
1.02034
1.03719
1.13072
1.23239
1.87344
3.03465
7.14084
11.5298
11.114
10.7752
10.8377
11.0296
11.2383
11.3589
11.4504
11.5241
11.5952
1.00001
1.00003
1.00009
1.00019
1.00054
1.00112
1.00315
1.00636
1.0185
1.0358
1.11584
1.21538
1.77362
2.81156
6.46142
11.5291
11.0825
10.6735
10.7243
10.8938
11.0854
11.1862
11.2573
11.3121
11.3752
1.00001
1.00002
1.00008
1.00017
1.00049
1.00101
1.00285
1.00576
1.01662
1.03266
1.10214
1.19509
1.67246
2.57558
5.70376
11.4446
11.0132
10.5577
10.594
10.7313
10.897
10.9687
11.0061
11.0223
11.057
1
1.00002
1.00007
1.00016
1.00044
1.00091
1.00256
1.00516
1.01488
1.02933
1.09083
1.17468
1.59243
2.3855
5.17107
11.066
10.8358
10.4321
10.4455
10.5354
10.6634
10.6929
10.6781
10.6169
10.5555
1
1.00002
1.00006
1.00013
1.00038
1.00078
1.0022
1.0044
1.01305
1.02427
1.08212
1.14637
1.5297
2.2072
4.68913
10.3262
10.5335
10.355
10.2812
10.3185
10.3825
10.3606
10.2646
10.0398
9.69043
1.00001
1.00003
1.00012
1.00025
1.00071
1.00146
1.00415
1.0082
1.02504
1.04526
1.16258
1.29114
2.09929
3.62169
8.75983
11.4877
11.2217
11.0341
11.1092
11.3274
11.5682
11.7209
11.8357
11.9277
12.0009
1.00001
1.00003
1.00011
1.00025
1.0007
1.00144
1.00409
1.00809
1.02473
1.04461
1.16065
1.28679
2.08771
3.58547
8.66961
11.4875
11.2142
11.0218
11.0985
11.3184
11.5585
11.7108
11.8271
11.9204
11.9949
1.00001
1.00003
1.00011
1.00024
1.00068
1.00139
1.00398
1.00785
1.0241
1.04329
1.15662
1.27786
2.06247
3.50727
8.46725
11.4868
11.1949
10.9878
11.0648
11.2839
11.52
11.6686
11.7836
11.8754
11.9486
1.00001
1.00003
1.00011
1.00023
1.00065
1.00134
1.00382
1.0075
1.02315
1.04128
1.15045
1.26427
2.02333
3.38742
8.15111
11.4919
11.1685
10.9338
11.0087
11.2229
11.4522
11.5945
11.7051
11.7932
11.8654
1.00001
1.00003
1.0001
1.00022
1.00062
1.00127
1.00362
1.00713
1.0219
1.03919
1.14209
1.24926
1.9582
3.22978
7.70996
11.5074
11.1412
10.8631
10.9334
11.1392
11.3594
11.4925
11.5961
11.6792
11.7511
1.00001
1.00003
1.0001
1.00021
1.00058
1.0012
1.0034
1.00675
1.02034
1.03719
1.13072
1.23239
1.87344
3.03467
7.14088
11.5298
11.114
10.7752
10.8377
11.0296
11.2383
11.3589
11.4504
11.5241
11.5953
1.00001
1.00003
1.00009
1.00019
1.00054
1.00112
1.00315
1.00636
1.0185
1.0358
1.11584
1.21538
1.77363
2.81157
6.46146
11.5291
11.0825
10.6735
10.7243
10.8938
11.0854
11.1862
11.2573
11.3121
11.3752
1.00001
1.00002
1.00008
1.00017
1.00049
1.00101
1.00285
1.00576
1.01662
1.03266
1.10214
1.19509
1.67247
2.5756
5.70379
11.4445
11.0132
10.5577
10.594
10.7313
10.897
10.9687
11.0061
11.0223
11.057
1
1.00002
1.00007
1.00016
1.00044
1.00091
1.00256
1.00516
1.01488
1.02933
1.09083
1.17468
1.59243
2.38551
5.17109
11.066
10.8358
10.4321
10.4455
10.5354
10.6634
10.6929
10.6781
10.6169
10.5555
1
1.00002
1.00006
1.00013
1.00038
1.00078
1.0022
1.0044
1.01305
1.02427
1.08212
1.14637
1.5297
2.20721
4.68915
10.3262
10.5335
10.355
10.2812
10.3185
10.3825
10.3607
10.2646
10.0398
9.69043
1.00001
1.00003
1.00012
1.00025
1.00071
1.00146
1.00415
1.0082
1.02504
1.04526
1.16258
1.29114
2.09929
3.62169
8.75983
11.4877
11.2217
11.0341
11.1092
11.3274
11.5682
11.7209
11.8357
11.9277
12.0009
1.00001
1.00003
1.00011
1.00025
1.0007
1.00144
1.00409
1.00809
1.02473
1.04461
1.16065
1.28679
2.08771
3.58547
8.66961
11.4875
11.2142
11.0218
11.0985
11.3184
11.5585
11.7108
11.8271
11.9204
11.9949
1.00001
1.00003
1.00011
1.00024
1.00068
1.00139
1.00398
1.00785
1.0241
1.04329
1.15662
1.27786
2.06247
3.50727
8.46725
11.4868
11.1949
10.9878
11.0648
11.2839
11.52
11.6686
11.7836
11.8754
11.9486
1.00001
1.00003
1.00011
1.00023
1.00065
1.00134
1.00382
1.0075
1.02315
1.04128
1.15045
1.26427
2.02333
3.38742
8.15111
11.4919
11.1685
10.9338
11.0087
11.2229
11.4522
11.5945
11.7051
11.7932
11.8654
1.00001
1.00003
1.0001
1.00022
1.00062
1.00127
1.00362
1.00713
1.0219
1.03919
1.14209
1.24926
1.9582
3.22978
7.70996
11.5074
11.1412
10.8631
10.9334
11.1392
11.3594
11.4925
11.5961
11.6792
11.7511
1.00001
1.00003
1.0001
1.00021
1.00058
1.0012
1.0034
1.00675
1.02034
1.03719
1.13072
1.23239
1.87344
3.03467
7.14088
11.5298
11.114
10.7752
10.8377
11.0296
11.2383
11.3589
11.4504
11.5241
11.5953
1.00001
1.00003
1.00009
1.00019
1.00054
1.00112
1.00315
1.00636
1.0185
1.0358
1.11584
1.21538
1.77363
2.81157
6.46146
11.5291
11.0825
10.6735
10.7243
10.8938
11.0854
11.1862
11.2573
11.3121
11.3752
1.00001
1.00002
1.00008
1.00017
1.00049
1.00101
1.00285
1.00576
1.01662
1.03266
1.10214
1.19509
1.67247
2.5756
5.70379
11.4445
11.0132
10.5577
10.594
10.7313
10.897
10.9687
11.0061
11.0223
11.057
1
1.00002
1.00007
1.00016
1.00044
1.00091
1.00256
1.00516
1.01488
1.02933
1.09083
1.17468
1.59243
2.38551
5.17109
11.066
10.8358
10.4321
10.4455
10.5354
10.6634
10.6929
10.6781
10.6169
10.5555
1
1.00002
1.00006
1.00013
1.00038
1.00078
1.0022
1.0044
1.01305
1.02427
1.08212
1.14637
1.5297
2.20721
4.68915
10.3262
10.5335
10.355
10.2812
10.3185
10.3825
10.3607
10.2646
10.0398
9.69043
1.00001
1.00003
1.00012
1.00025
1.00071
1.00146
1.00415
1.0082
1.02504
1.04526
1.16258
1.29114
2.09929
3.62169
8.75984
11.4877
11.2217
11.0341
11.1092
11.3274
11.5682
11.7209
11.8357
11.9277
12.0009
1.00001
1.00003
1.00011
1.00025
1.0007
1.00144
1.00409
1.00809
1.02473
1.04461
1.16065
1.28679
2.08771
3.58548
8.66962
11.4875
11.2142
11.0218
11.0985
11.3184
11.5585
11.7108
11.8271
11.9204
11.9949
1.00001
1.00003
1.00011
1.00024
1.00068
1.00139
1.00398
1.00785
1.0241
1.04329
1.15662
1.27786
2.06247
3.50728
8.46726
11.4868
11.1949
10.9878
11.0648
11.2839
11.52
11.6686
11.7836
11.8754
11.9486
1.00001
1.00003
1.00011
1.00023
1.00065
1.00134
1.00382
1.0075
1.02315
1.04128
1.15045
1.26427
2.02333
3.38743
8.15111
11.4919
11.1685
10.9338
11.0087
11.2229
11.4522
11.5945
11.7051
11.7932
11.8654
1.00001
1.00003
1.0001
1.00022
1.00062
1.00127
1.00362
1.00713
1.0219
1.03919
1.14209
1.24926
1.9582
3.22979
7.70996
11.5074
11.1412
10.8631
10.9334
11.1392
11.3594
11.4926
11.5961
11.6792
11.7511
1.00001
1.00003
1.0001
1.00021
1.00058
1.0012
1.0034
1.00675
1.02034
1.03719
1.13072
1.23239
1.87344
3.03467
7.14089
11.5298
11.114
10.7752
10.8377
11.0296
11.2383
11.3589
11.4504
11.5241
11.5953
1.00001
1.00003
1.00009
1.00019
1.00054
1.00112
1.00315
1.00636
1.0185
1.0358
1.11584
1.21538
1.77363
2.81157
6.46146
11.5291
11.0825
10.6735
10.7243
10.8938
11.0854
11.1862
11.2573
11.3121
11.3752
1.00001
1.00002
1.00008
1.00017
1.00049
1.00101
1.00285
1.00576
1.01662
1.03266
1.10214
1.19509
1.67247
2.5756
5.7038
11.4445
11.0132
10.5577
10.594
10.7313
10.897
10.9687
11.0061
11.0223
11.057
1
1.00002
1.00007
1.00016
1.00044
1.00091
1.00256
1.00516
1.01488
1.02933
1.09083
1.17468
1.59243
2.38551
5.1711
11.066
10.8358
10.4321
10.4456
10.5354
10.6634
10.6929
10.6781
10.6169
10.5555
1
1.00002
1.00006
1.00013
1.00038
1.00078
1.0022
1.0044
1.01305
1.02427
1.08212
1.14637
1.5297
2.20721
4.68915
10.3262
10.5335
10.355
10.2812
10.3185
10.3825
10.3607
10.2646
10.0398
9.69044
1.00001
1.00003
1.00012
1.00025
1.00071
1.00146
1.00415
1.0082
1.02504
1.04526
1.16258
1.29114
2.09929
3.62169
8.75984
11.4877
11.2217
11.0341
11.1092
11.3274
11.5682
11.7209
11.8357
11.9277
12.0009
1.00001
1.00003
1.00011
1.00025
1.0007
1.00144
1.00409
1.00809
1.02473
1.04461
1.16065
1.28679
2.08771
3.58548
8.66962
11.4875
11.2142
11.0218
11.0985
11.3184
11.5585
11.7108
11.8271
11.9204
11.9949
1.00001
1.00003
1.00011
1.00024
1.00068
1.00139
1.00398
1.00785
1.0241
1.04329
1.15662
1.27786
2.06247
3.50728
8.46726
11.4868
11.1949
10.9878
11.0648
11.2839
11.52
11.6686
11.7836
11.8754
11.9486
1.00001
1.00003
1.00011
1.00023
1.00065
1.00134
1.00382
1.0075
1.02315
1.04128
1.15045
1.26427
2.02333
3.38743
8.15111
11.4919
11.1685
10.9338
11.0087
11.2229
11.4522
11.5945
11.7051
11.7932
11.8654
1.00001
1.00003
1.0001
1.00022
1.00062
1.00127
1.00362
1.00713
1.0219
1.03919
1.14209
1.24926
1.9582
3.22979
7.70996
11.5074
11.1412
10.8631
10.9334
11.1392
11.3594
11.4926
11.5961
11.6792
11.7511
1.00001
1.00003
1.0001
1.00021
1.00058
1.0012
1.0034
1.00675
1.02034
1.03719
1.13072
1.23239
1.87344
3.03467
7.14089
11.5298
11.114
10.7752
10.8377
11.0296
11.2383
11.3589
11.4504
11.5241
11.5953
1.00001
1.00003
1.00009
1.00019
1.00054
1.00112
1.00315
1.00636
1.0185
1.0358
1.11584
1.21538
1.77363
2.81157
6.46146
11.5291
11.0825
10.6735
10.7243
10.8938
11.0854
11.1862
11.2573
11.3121
11.3752
1.00001
1.00002
1.00008
1.00017
1.00049
1.00101
1.00285
1.00576
1.01662
1.03266
1.10214
1.19509
1.67247
2.5756
5.7038
11.4445
11.0132
10.5577
10.594
10.7313
10.897
10.9687
11.0061
11.0223
11.057
1
1.00002
1.00007
1.00016
1.00044
1.00091
1.00256
1.00516
1.01488
1.02933
1.09083
1.17468
1.59243
2.38551
5.1711
11.066
10.8358
10.4321
10.4456
10.5354
10.6634
10.6929
10.6781
10.6169
10.5555
1
1.00002
1.00006
1.00013
1.00038
1.00078
1.0022
1.0044
1.01305
1.02427
1.08212
1.14637
1.5297
2.20721
4.68915
10.3262
10.5335
10.355
10.2812
10.3185
10.3825
10.3607
10.2646
10.0398
9.69044
1.00001
1.00003
1.00012
1.00025
1.00071
1.00146
1.00415
1.0082
1.02504
1.04526
1.16258
1.29114
2.09929
3.62169
8.75983
11.4877
11.2217
11.0341
11.1092
11.3274
11.5682
11.7209
11.8357
11.9277
12.0009
1.00001
1.00003
1.00011
1.00025
1.0007
1.00144
1.00409
1.00809
1.02473
1.04461
1.16065
1.28679
2.08771
3.58547
8.66961
11.4875
11.2142
11.0218
11.0985
11.3184
11.5585
11.7108
11.8271
11.9204
11.9949
1.00001
1.00003
1.00011
1.00024
1.00068
1.00139
1.00398
1.00785
1.0241
1.04329
1.15662
1.27786
2.06247
3.50727
8.46725
11.4868
11.1949
10.9878
11.0648
11.2839
11.52
11.6686
11.7836
11.8754
11.9486
1.00001
1.00003
1.00011
1.00023
1.00065
1.00134
1.00382
1.0075
1.02315
1.04128
1.15045
1.26427
2.02333
3.38742
8.15111
11.4919
11.1685
10.9338
11.0087
11.2229
11.4522
11.5945
11.7051
11.7932
11.8654
1.00001
1.00003
1.0001
1.00022
1.00062
1.00127
1.00362
1.00713
1.0219
1.03919
1.14209
1.24926
1.9582
3.22978
7.70996
11.5074
11.1412
10.8631
10.9334
11.1392
11.3594
11.4925
11.5961
11.6792
11.7511
1.00001
1.00003
1.0001
1.00021
1.00058
1.0012
1.0034
1.00675
1.02034
1.03719
1.13072
1.23239
1.87344
3.03467
7.14088
11.5298
11.114
10.7752
10.8377
11.0296
11.2383
11.3589
11.4504
11.5241
11.5953
1.00001
1.00003
1.00009
1.00019
1.00054
1.00112
1.00315
1.00636
1.0185
1.0358
1.11584
1.21538
1.77363
2.81157
6.46146
11.5291
11.0825
10.6735
10.7243
10.8938
11.0854
11.1862
11.2573
11.3121
11.3752
1.00001
1.00002
1.00008
1.00017
1.00049
1.00101
1.00285
1.00576
1.01662
1.03266
1.10214
1.19509
1.67247
2.5756
5.70379
11.4445
11.0132
10.5577
10.594
10.7313
10.897
10.9687
11.0061
11.0223
11.057
1
1.00002
1.00007
1.00016
1.00044
1.00091
1.00256
1.00516
1.01488
1.02933
1.09083
1.17468
1.59243
2.38551
5.17109
11.066
10.8358
10.4321
10.4455
10.5354
10.6634
10.6929
10.6781
10.6169
10.5555
1
1.00002
1.00006
1.00013
1.00038
1.00078
1.0022
1.0044
1.01305
1.02427
1.08212
1.14637
1.5297
2.20721
4.68915
10.3262
10.5335
10.355
10.2812
10.3185
10.3825
10.3607
10.2646
10.0398
9.69043
1.00001
1.00003
1.00012
1.00025
1.00071
1.00146
1.00415
1.0082
1.02504
1.04526
1.16258
1.29114
2.09929
3.62169
8.75983
11.4877
11.2217
11.0341
11.1092
11.3274
11.5682
11.7209
11.8357
11.9277
12.0009
1.00001
1.00003
1.00011
1.00025
1.0007
1.00144
1.00409
1.00809
1.02473
1.04461
1.16065
1.28679
2.08771
3.58547
8.66961
11.4875
11.2142
11.0218
11.0985
11.3184
11.5585
11.7108
11.8271
11.9204
11.9949
1.00001
1.00003
1.00011
1.00024
1.00068
1.00139
1.00398
1.00785
1.0241
1.04329
1.15662
1.27786
2.06247
3.50727
8.46725
11.4868
11.1949
10.9878
11.0648
11.2839
11.52
11.6686
11.7836
11.8754
11.9486
1.00001
1.00003
1.00011
1.00023
1.00065
1.00134
1.00382
1.0075
1.02315
1.04128
1.15045
1.26427
2.02333
3.38742
8.15111
11.4919
11.1685
10.9338
11.0087
11.2229
11.4522
11.5945
11.7051
11.7932
11.8654
1.00001
1.00003
1.0001
1.00022
1.00062
1.00127
1.00362
1.00713
1.0219
1.03919
1.14209
1.24926
1.9582
3.22978
7.70996
11.5074
11.1412
10.8631
10.9334
11.1392
11.3594
11.4925
11.5961
11.6792
11.7511
1.00001
1.00003
1.0001
1.00021
1.00058
1.0012
1.0034
1.00675
1.02034
1.03719
1.13072
1.23239
1.87344
3.03467
7.14088
11.5298
11.114
10.7752
10.8377
11.0296
11.2383
11.3589
11.4504
11.5241
11.5953
1.00001
1.00003
1.00009
1.00019
1.00054
1.00112
1.00315
1.00636
1.0185
1.0358
1.11584
1.21538
1.77363
2.81157
6.46146
11.5291
11.0825
10.6735
10.7243
10.8938
11.0854
11.1862
11.2573
11.3121
11.3752
1.00001
1.00002
1.00008
1.00017
1.00049
1.00101
1.00285
1.00576
1.01662
1.03266
1.10214
1.19509
1.67247
2.5756
5.70379
11.4445
11.0132
10.5577
10.594
10.7313
10.897
10.9687
11.0061
11.0223
11.057
1
1.00002
1.00007
1.00016
1.00044
1.00091
1.00256
1.00516
1.01488
1.02933
1.09083
1.17468
1.59243
2.38551
5.17109
11.066
10.8358
10.4321
10.4455
10.5354
10.6634
10.6929
10.6781
10.6169
10.5555
1
1.00002
1.00006
1.00013
1.00038
1.00078
1.0022
1.0044
1.01305
1.02427
1.08212
1.14637
1.5297
2.20721
4.68915
10.3262
10.5335
10.355
10.2812
10.3185
10.3825
10.3607
10.2646
10.0398
9.69043
1.00001
1.00003
1.00012
1.00025
1.00071
1.00146
1.00415
1.0082
1.02504
1.04526
1.16257
1.29113
2.09928
3.62167
8.7598
11.4877
11.2217
11.0341
11.1092
11.3274
11.5682
11.7209
11.8356
11.9277
12.0009
1.00001
1.00003
1.00011
1.00025
1.0007
1.00144
1.00409
1.00809
1.02473
1.04461
1.16065
1.28679
2.0877
3.58546
8.66958
11.4875
11.2142
11.0218
11.0985
11.3184
11.5585
11.7108
11.8271
11.9204
11.9949
1.00001
1.00003
1.00011
1.00024
1.00068
1.00139
1.00398
1.00785
1.0241
1.04329
1.15662
1.27786
2.06246
3.50726
8.46722
11.4868
11.1949
10.9878
11.0648
11.2839
11.52
11.6686
11.7836
11.8754
11.9486
1.00001
1.00003
1.00011
1.00023
1.00065
1.00134
1.00382
1.0075
1.02315
1.04128
1.15045
1.26427
2.02333
3.38741
8.15107
11.4919
11.1685
10.9338
11.0087
11.2229
11.4522
11.5945
11.7051
11.7932
11.8654
1.00001
1.00003
1.0001
1.00022
1.00062
1.00127
1.00362
1.00713
1.0219
1.03919
1.14209
1.24926
1.95819
3.22977
7.70992
11.5074
11.1412
10.8631
10.9334
11.1392
11.3594
11.4925
11.5961
11.6792
11.7511
1.00001
1.00003
1.0001
1.00021
1.00058
1.0012
1.0034
1.00675
1.02034
1.03719
1.13072
1.23239
1.87344
3.03465
7.14084
11.5298
11.114
10.7752
10.8377
11.0296
11.2383
11.3589
11.4504
11.5241
11.5952
1.00001
1.00003
1.00009
1.00019
1.00054
1.00112
1.00315
1.00636
1.0185
1.0358
1.11584
1.21538
1.77362
2.81156
6.46142
11.5291
11.0825
10.6735
10.7243
10.8938
11.0854
11.1862
11.2573
11.3121
11.3752
1.00001
1.00002
1.00008
1.00017
1.00049
1.00101
1.00285
1.00576
1.01662
1.03266
1.10214
1.19509
1.67246
2.57558
5.70376
11.4446
11.0132
10.5577
10.594
10.7313
10.897
10.9687
11.0061
11.0223
11.057
1
1.00002
1.00007
1.00016
1.00044
1.00091
1.00256
1.00516
1.01488
1.02933
1.09083
1.17468
1.59243
2.3855
5.17107
11.066
10.8358
10.4321
10.4455
10.5354
10.6634
10.6929
10.6781
10.6169
10.5555
1
1.00002
1.00006
1.00013
1.00038
1.00078
1.0022
1.0044
1.01305
1.02427
1.08212
1.14637
1.5297
2.2072
4.68913
10.3262
10.5335
10.355
10.2812
10.3185
10.3825
10.3606
10.2646
10.0398
9.69043
1.00001
1.00003
1.00011
1.00024
1.00071
1.00145
1.00414
1.00819
1.02503
1.04524
1.16255
1.29107
2.0992
3.62137
8.75923
11.4878
11.2217
11.034
11.1091
11.3273
11.5681
11.7208
11.8356
11.9276
12.0008
1.00001
1.00003
1.00011
1.00024
1.0007
1.00143
1.00409
1.00808
1.02472
1.04459
1.16062
1.28673
2.08763
3.58516
8.66901
11.4876
11.2142
11.0217
11.0985
11.3183
11.5585
11.7107
11.827
11.9203
11.9948
1.00001
1.00003
1.00011
1.00023
1.00068
1.00139
1.00397
1.00784
1.02409
1.04327
1.15659
1.2778
2.06239
3.50697
8.46665
11.4869
11.1949
10.9878
11.0647
11.2838
11.52
11.6685
11.7835
11.8753
11.9485
1.00001
1.00003
1.0001
1.00022
1.00065
1.00133
1.00381
1.00749
1.02314
1.04126
1.15042
1.26421
2.02325
3.38713
8.15051
11.492
11.1685
10.9337
11.0086
11.2228
11.4521
11.5944
11.705
11.7931
11.8653
1.00001
1.00003
1.0001
1.00021
1.00062
1.00126
1.00361
1.00712
1.02189
1.03917
1.14206
1.2492
1.95812
3.22951
7.70935
11.5075
11.1412
10.863
10.9333
11.1391
11.3593
11.4925
11.596
11.6791
11.751
1.00001
1.00003
1.00009
1.0002
1.00058
1.00119
1.00339
1.00674
1.02033
1.03716
1.13072
1.2323
1.87342
3.03442
7.14033
11.5299
11.114
10.7751
10.8376
11.0295
11.2382
11.3588
11.4503
11.524
11.5952
1.00001
1.00002
1.00008
1.00019
1.00054
1.00111
1.00315
1.00635
1.01849
1.03578
1.11583
1.21532
1.77358
2.81135
6.46095
11.5291
11.0824
10.6734
10.7242
10.8938
11.0853
11.1861
11.2572
11.312
11.3751
1
1.00002
1.00008
1.00017
1.00049
1.001
1.00284
1.00575
1.01661
1.03265
1.10212
1.19504
1.67241
2.5754
5.7033
11.4446
11.0131
10.5576
10.5939
10.7312
10.8969
10.9686
11.006
11.0222
11.0569
1
1.00002
1.00007
1.00015
1.00044
1.0009
1.00255
1.00516
1.01487
1.02931
1.09082
1.17463
1.59239
2.38537
5.17084
11.0658
10.8357
10.432
10.4455
10.5353
10.6633
10.6928
10.678
10.6168
10.5554
1
1.00002
1.00006
1.00013
1.00037
1.00077
1.00219
1.00439
1.01304
1.02425
1.08213
1.14633
1.52973
2.20706
4.68896
10.3258
10.5334
10.3549
10.2811
10.3184
10.3824
10.3606
10.2645
10.0397
9.69036
1
1.00002
1.00004
1.00013
1.00028
1.0008
1.00164
1.0047
1.00924
1.02853
1.05123
1.1845
1.33669
2.24487
4.00235
9.3991
10.3889
10.2656
10.0998
10.0898
10.0708
9.98102
9.7277
9.1394
7.66103
1
1.00001
1.00004
1.00012
1.00024
1.0007
1.00143
1.00408
1.0081
1.02451
1.04467
1.15813
1.28482
2.06114
3.51293
8.27234
10.284
10.1703
9.92945
9.84621
9.76591
9.58317
9.18709
8.39282
6.88284
1
1.00001
1.00003
1.0001
1.00021
1.00059
1.00121
1.00345
1.00681
1.02079
1.03732
1.13394
1.2348
1.88906
3.05007
7.03793
10.1997
10.0706
9.77108
9.60362
9.46822
9.20607
8.72241
7.91827
6.72486
1
1.00001
1.00003
1.00008
1.00018
1.0005
1.00103
1.00293
1.00591
1.01709
1.0335
1.10548
1.1994
1.69379
2.61034
5.71227
10.0323
9.93764
9.64449
9.37857
9.18166
8.88013
8.38363
7.64707
6.70274
1
1.00001
1.00002
1.00007
1.00014
1.00041
1.00084
1.00238
1.00482
1.01387
1.02745
1.08355
1.16518
1.53508
2.24675
4.6188
9.55307
9.71534
9.52339
9.17936
8.92757
8.60785
8.13747
7.48263
6.69026
1
1
1.00002
1.00004
1.00013
1.00027
1.00078
1.00159
1.00453
1.0089
1.02725
1.04902
1.17446
1.31631
2.16021
3.74583
8.50485
9.46105
9.3277
9.01886
8.71493
8.38124
7.94348
7.36087
6.6727
1
1
1.00001
1.00003
1.0001
1.00022
1.00063
1.00128
1.00363
1.00715
1.02176
1.0391
1.13941
1.24492
1.92142
3.10415
6.99152
9.20987
9.13468
8.89538
8.5439
8.19494
7.78031
7.25696
6.64876
0.999999
1
1.00001
1.00002
1.00008
1.00017
1.0005
1.00102
1.00288
1.00581
1.0168
1.03292
1.10333
1.19697
1.67463
2.55902
5.4741
8.97082
8.97664
8.80745
8.43575
8.0472
7.64447
7.16957
6.62805
0.999997
0.999999
1
1.00002
1.00005
1.00015
1.00031
1.00089
1.00181
1.00515
1.0102
1.03073
1.05654
1.19199
1.3745
2.23849
3.99199
8.39651
8.85669
8.70691
8.35179
7.92968
7.53212
7.09508
6.60804
0.999996
0.999997
1
1.00001
1.00003
1.00011
1.00023
1.00066
1.00135
1.00383
1.0075
1.0231
1.04104
1.14717
1.26007
1.96969
3.20543
7.07431
8.60762
8.52549
8.2698
7.8406
7.44389
7.03661
6.59063
0.999994
0.999995
0.999999
1
1.00003
1.00006
1.00019
1.0004
1.00115
1.00223
1.0069
1.01204
1.04352
1.07123
1.27109
1.53953
2.72934
5.37013
8.29755
8.33939
8.18617
7.82131
7.38562
6.98473
6.57172
0.999993
0.999994
0.999997
1
1.00002
1.00005
1.00015
1.00031
1.00087
1.00177
1.005
1.01
1.02949
1.05557
1.18234
1.35743
2.16741
3.73628
7.66695
8.22914
8.10898
7.80149
7.34876
6.94565
6.55544
0.999993
0.999993
0.999994
0.999999
1.00001
1.00004
1.00008
1.00025
1.00052
1.00146
1.0029
1.00862
1.01574
1.05358
1.0909
1.33571
1.67999
3.11821
6.20042
7.99454
7.9552
7.76002
7.34929
6.92567
6.54231
0.999992
0.999992
0.999993
0.999997
1
1.00002
1.00006
1.00018
1.00038
1.00106
1.00215
1.00608
1.01191
1.03643
1.06526
1.22767
1.44298
2.418
4.4359
7.54742
7.81582
7.68964
7.36061
6.92702
6.54108
0.999992
0.999992
0.999993
0.999994
1
1.00001
1.00005
1.0001
1.00031
1.00063
1.00178
1.0036
1.01024
1.02029
1.0604
1.11923
1.36894
1.83671
3.31163
6.53093
7.62515
7.56458
7.35045
6.94024
6.54544
0.999991
0.999991
0.999992
0.999993
0.999998
1
1.00003
1.00007
1.00021
1.00044
1.00122
1.00248
1.00698
1.01368
1.04162
1.07516
1.25794
1.5154
2.59853
4.86673
7.25952
7.40725
7.29809
6.99394
6.56315
0.999991
0.999991
0.999991
0.999993
0.999995
1
1.00001
1.00005
1.00012
1.00034
1.0007
1.00197
1.00398
1.01126
1.02245
1.06539
1.13338
1.39449
1.90217
3.3947
6.47012
7.25426
7.19623
6.99643
6.60445
0.999991
0.999991
0.999991
0.999992
0.999993
0.999998
1.00001
1.00003
1.00008
1.00023
1.00047
1.00131
1.00266
1.00745
1.01478
1.04362
1.08201
1.26507
1.55272
2.62871
4.90834
6.93367
7.05966
6.96406
6.69991
0.999991
0.999991
0.999991
0.999991
0.999993
0.999995
1
1.00001
1.00006
1.00012
1.00035
1.00073
1.00203
1.00409
1.01152
1.02306
1.06631
1.13701
1.39705
1.90323
3.35304
6.22153
6.92378
6.88376
6.71583
0.999991
0.999991
0.999991
0.999991
0.999992
0.999994
0.999997
1.00001
1.00003
1.00009
1.00019
1.00054
1.0011
1.00308
1.00605
1.018
1.03237
1.11021
1.19321
1.67608
2.4564
4.80332
6.62088
6.76517
6.68542
0.999991
0.99999
0.99999
0.999991
0.999991
0.999992
0.999995
1
1.00001
1.00006
1.00012
1.00035
1.00072
1.002
1.00405
1.01131
1.02275
1.06454
1.13411
1.38368
1.8651
3.22809
5.91347
6.62431
6.6013
0.999991
0.99999
0.99999
0.99999
0.999991
0.999991
0.999993
0.999997
1.00001
1.00003
1.00009
1.00018
1.00052
1.00106
1.00294
1.00581
1.01708
1.03103
1.10405
1.18356
1.62795
2.35174
4.50153
6.2953
6.49924
0.999991
0.99999
0.99999
0.99999
0.999991
0.999991
0.999992
0.999994
1
1.00001
1.00005
1.00012
1.00033
1.00068
1.00188
1.0038
1.01053
1.02121
1.0596
1.12373
1.35016
1.78764
3.02155
5.52492
6.33338
0.999991
0.99999
0.99999
0.99999
0.99999
0.999991
0.999991
0.999993
0.999997
1
1.00003
1.00007
1.0002
1.00042
1.00115
1.00234
1.00644
1.01288
1.03682
1.07019
1.21857
1.44099
2.28752
3.99125
5.91979
0.999991
0.99999
0.99999
0.99999
0.99999
0.99999
0.999991
0.999992
0.999994
0.999999
1.00001
1.00004
1.00012
1.00025
1.00069
1.00141
1.00386
1.00777
1.02178
1.042
1.12886
1.24384
1.76388
2.66431
5.01437
0.999991
0.99999
0.99999
0.99999
0.99999
0.99999
0.999991
0.999991
0.999992
0.999996
1
1.00002
1.00006
1.00017
1.00035
1.00096
1.00194
1.00535
1.01056
1.03078
1.05665
1.18201
1.35147
2.03181
3.32415
0.999991
0.99999
0.99999
0.99999
0.99999
0.99999
0.99999
0.999991
0.999992
0.999993
0.999998
1.00001
1.00004
1.00008
1.00024
1.0005
1.00137
1.00277
1.00766
1.01524
1.04339
1.08714
1.25024
1.55198
2.44468
0.999991
0.99999
0.99999
0.99999
0.99999
0.99999
0.99999
0.999991
0.999991
0.999992
0.999994
1
1.00001
1.00005
1.00012
1.00034
1.00069
1.00189
1.00381
1.0105
1.02098
1.05906
1.12077
1.33898
1.7494
0.999991
0.99999
0.99999
0.99999
0.99999
0.99999
0.99999
0.99999
0.999991
0.999991
0.999993
0.999997
1
1.00003
1.00007
1.0002
1.00041
1.00111
1.00226
1.00616
1.01231
1.03455
1.06795
1.19928
1.41121
0.999991
0.99999
0.99999
0.99999
0.99999
0.99999
0.99999
0.99999
0.999991
0.999991
0.999992
0.999994
1
1.00001
1.00004
1.0001
1.00028
1.00057
1.00157
1.00318
1.00873
1.01759
1.04873
1.10111
1.27961
0.999991
0.99999
0.99999
0.99999
0.99999
0.99999
0.99999
0.99999
0.99999
0.999991
0.999991
0.999993
0.999995
1
1.00002
1.00007
1.00015
1.00042
1.00085
1.00234
1.00471
1.01305
1.02585
1.07438
1.14916
0.999991
0.99999
0.99999
0.99999
0.99999
0.99999
0.99999
0.99999
0.99999
0.99999
0.999991
0.999992
0.999994
0.999999
1.00001
1.00004
1.00012
1.00026
1.00072
1.00147
1.00409
1.00823
1.02353
1.04533
1.1432
0.999991
0.99999
0.99999
0.99999
0.99999
0.99999
0.99999
0.99999
0.99999
0.99999
0.999991
0.999991
0.999994
0.999997
1.00001
1.00003
1.0001
1.00021
1.0006
1.00123
1.0035
1.00697
1.02105
1.03844
1.13673
0.999991
0.99999
0.99999
0.99999
0.99999
0.99999
0.99999
0.99999
0.99999
0.99999
0.999991
0.999991
0.999993
0.999997
1
1.00003
1.00007
1.0002
1.00041
1.00126
1.00225
1.00806
1.01315
1.05186
1.08512
0.999991
0.99999
0.99999
0.99999
0.99999
0.99999
0.99999
0.99999
0.99999
0.99999
0.999991
0.999991
0.999993
0.999996
1.00001
1.00002
1.00008
1.00017
1.00052
1.00103
1.00319
1.00576
1.02056
1.03421
1.13474
0.999991
0.99999
0.99999
0.99999
0.99999
0.99999
0.99999
0.99999
0.99999
0.99999
0.999991
0.999991
0.999992
0.999996
1
1.00002
1.00006
1.00019
1.00037
1.0012
1.00206
1.00777
1.01251
1.05068
1.08295
0.999991
0.99999
0.99999
0.99999
0.99999
0.99999
0.99999
0.99999
0.99999
0.99999
0.999991
0.999991
0.999993
0.999996
1.00001
1.00002
1.00008
1.00017
1.00051
1.00104
1.00309
1.00596
1.01967
1.03412
1.13213
0.999991
0.99999
0.99999
0.99999
0.99999
0.99999
0.99999
0.99999
0.99999
0.99999
0.999991
0.999991
0.999993
0.999996
1.00001
1.00002
1.00008
1.00017
1.0005
1.00102
1.00303
1.00587
1.01925
1.03345
1.12957
0.999991
0.99999
0.99999
0.99999
0.99999
0.99999
0.99999
0.99999
0.99999
0.99999
0.999991
0.999991
0.999992
0.999996
1
1.00002
1.00006
1.00019
1.00039
1.00117
1.00222
1.00746
1.01257
1.04953
1.08063
0.999991
0.99999
0.99999
0.99999
0.99999
0.99999
0.99999
0.99999
0.99999
0.99999
0.999991
0.999991
0.999992
0.999996
1
1.00003
1.00006
1.0002
1.00041
1.0012
1.0024
1.00737
1.01334
1.04863
1.0807
1
1.00002
1.00005
1.00014
1.00029
1.00081
1.00165
1.00471
1.00925
1.02854
1.05125
1.18456
1.33675
2.24492
4.00257
9.39946
10.389
10.2657
10.0999
10.0899
10.0709
9.9811
9.72778
9.13948
7.66109
1
1.00002
1.00004
1.00012
1.00025
1.00071
1.00144
1.00409
1.00811
1.02452
1.0447
1.15813
1.28489
2.06117
3.51313
8.27271
10.2841
10.1704
9.92951
9.84627
9.76598
9.58324
9.18716
8.39289
6.88291
1
1.00001
1.00004
1.0001
1.00021
1.0006
1.00122
1.00346
1.00682
1.0208
1.03734
1.13396
1.23485
1.8891
3.05025
7.03831
10.1998
10.0706
9.77114
9.60369
9.46829
9.20614
8.72248
7.91834
6.72493
1
1.00001
1.00003
1.00009
1.00018
1.00051
1.00104
1.00294
1.00592
1.0171
1.03351
1.1055
1.19944
1.69383
2.61051
5.71265
10.0324
9.9377
9.64454
9.37863
9.18173
8.88019
8.3837
7.64714
6.70281
1
1.00001
1.00002
1.00007
1.00015
1.00042
1.00085
1.00239
1.00483
1.01388
1.02746
1.08357
1.16522
1.53511
2.24686
4.619
9.55329
9.71541
9.52345
9.17942
8.92763
8.60792
8.13754
7.48269
6.69033
1
1.00001
1.00002
1.00005
1.00014
1.00028
1.00079
1.0016
1.00454
1.00892
1.02726
1.04904
1.17448
1.31636
2.16028
3.74604
8.5052
9.46114
9.32777
9.01891
8.71499
8.3813
7.94354
7.36093
6.67277
1
1.00001
1.00002
1.00004
1.00011
1.00023
1.00063
1.00129
1.00364
1.00717
1.02177
1.03912
1.13943
1.24497
1.92147
3.10435
6.99189
9.20993
9.13474
8.89542
8.54395
8.195
7.78037
7.25702
6.64882
1
1
1.00001
1.00003
1.00009
1.00018
1.0005
1.00103
1.00289
1.00582
1.01681
1.03294
1.10334
1.19701
1.67466
2.55918
5.47447
8.97093
8.97668
8.80749
8.43579
8.04725
7.64453
7.16963
6.6281
1
1
1.00001
1.00003
1.00006
1.00016
1.00032
1.0009
1.00182
1.00516
1.01021
1.03075
1.05656
1.19201
1.37456
2.23853