/*--------------------------------*- C++ -*----------------------------------*\
| =========                 |                                                 |
| \\      /  F ield         | OpenFOAM: The Open Source CFD Toolbox           |
|  \\    /   O peration     | Version:  4.1                                   |
|   \\  /    A nd           | Web:      www.OpenFOAM.org                      |
|    \\/     M anipulation  |                                                 |
\*---------------------------------------------------------------------------*/
FoamFile
{
    version     2.0;
    format      ascii;
    class       surfaceScalarField;
    location    "6";
    object      phi;
}
// * * * * * * * * * * * * * * * * * * * * * * * * * * * * * * * * * * * * * //

dimensions      [1 0 -1 0 0 0 0];

internalField   nonuniform List<scalar> 
150500
(
0.0168001
2.0198e-10
-3.44895e-12
0.0168001
1.12413e-09
-1.16303e-11
0.0168001
4.17653e-09
-1.35478e-11
0.0168
1.07596e-08
-2.15063e-11
0.0168
2.95699e-08
-2.16848e-11
0.0167999
6.80599e-08
-2.90588e-11
0.0167997
1.75515e-07
-2.95057e-11
0.0167994
4.01603e-07
-4.02872e-11
0.0167982
1.00903e-06
-4.26903e-11
0.016796
2.3025e-06
-7.91722e-11
0.0167889
6.46605e-06
-9.8532e-11
0.0167728
1.61475e-05
-2.49699e-10
0.0167187
5.22762e-05
-2.97145e-10
0.0165484
0.000167162
-1.25936e-09
0.0155372
0.000999459
-2.54705e-09
0.014348
0.0011903
4.5096e-10
0.0131483
0.00119935
1.81803e-12
0.01188
0.00126664
-3.15634e-10
0.0105347
0.00134339
-3.31185e-10
0.00910028
0.00143225
-3.44967e-10
0.00754841
0.00154951
-3.67157e-10
0.00586492
0.00168009
-4.10268e-10
0.00405655
0.00180408
-4.42514e-10
0.0021151
0.00193832
-4.60214e-10
0.00211263
-4.76215e-10
0.0168001
4.04106e-10
-3.43834e-12
0.0168001
2.23802e-09
-1.16362e-11
0.0168001
8.33264e-09
-1.35286e-11
0.0168
2.14119e-08
-2.15477e-11
0.0168
5.9075e-08
-2.16155e-11
0.0167999
1.35806e-07
-2.90987e-11
0.0167997
3.52509e-07
-2.94633e-11
0.0167993
8.03629e-07
-4.03223e-11
0.0167982
2.04859e-06
-4.25996e-11
0.0167959
4.63052e-06
-7.90892e-11
0.0167885
1.32492e-05
-9.82625e-11
0.0167719
3.27615e-05
-2.47778e-10
0.016714
0.000108462
-2.95007e-10
0.0165352
0.000342727
-1.24546e-09
0.015505
0.00201777
-2.53039e-09
0.014287
0.00240955
4.59727e-10
0.0130972
0.00238871
-7.03429e-14
0.0118452
0.00251697
-3.16149e-10
0.0105091
0.00267771
-3.29757e-10
0.00906107
0.00287807
-3.41798e-10
0.00748906
0.00311921
-3.63068e-10
0.00578729
0.00337845
-4.06133e-10
0.00395968
0.00362736
-4.38519e-10
0.0020156
0.00387922
-4.56842e-10
0.00412567
-4.74321e-10
0.0168001
5.88363e-10
-3.41921e-12
0.0168001
3.23691e-09
-1.16426e-11
0.0168001
1.20664e-08
-1.35004e-11
0.0168
3.09022e-08
-2.16116e-11
0.0168
8.56572e-08
-2.15044e-11
0.0168
1.96762e-07
-2.91581e-11
0.0167998
5.13845e-07
-2.9386e-11
0.0167994
1.17483e-06
-4.03512e-11
0.0167984
3.00022e-06
-4.23898e-11
0.0167962
6.84971e-06
-7.87325e-11
0.0167891
1.97536e-05
-9.75236e-11
0.016773
4.87981e-05
-2.43111e-10
0.0167134
0.000166305
-2.91088e-10
0.0165314
0.000521475
-1.21719e-09
0.0155155
0.00302146
-2.50901e-09
0.0142689
0.00365757
4.76352e-10
0.0130784
0.00357877
-5.07281e-12
0.0118418
0.00375183
-3.20656e-10
0.0105222
0.00399556
-3.3026e-10
0.00907822
0.00431981
-3.3685e-10
0.00750336
0.00469172
-3.566e-10
0.00579846
0.00507996
-3.9955e-10
0.0039553
0.00546629
-4.32256e-10
0.00200584
0.00582549
-4.5061e-10
0.00612889
-4.68566e-10
0.0168001
6.79476e-10
-3.39066e-12
0.0168001
3.75161e-09
-1.16497e-11
0.0168001
1.40186e-08
-1.3462e-11
0.0168
3.58075e-08
-2.17279e-11
0.0168
9.94342e-08
-2.1317e-11
0.0168
2.26254e-07
-2.92888e-11
0.0167999
6.05646e-07
-2.9286e-11
0.0167998
1.30834e-06
-4.05197e-11
0.0167989
3.77599e-06
-4.21478e-11
0.016798
7.79203e-06
-7.86489e-11
0.0167915
2.55914e-05
-9.66376e-11
0.0167822
5.8163e-05
-2.36645e-10
0.0167022
0.0002444
-2.83572e-10
0.0165292
0.000691181
-1.16828e-09
0.0155418
0.00399608
-2.45868e-09
0.0142578
0.00494317
4.92584e-10
0.0130846
0.00475165
-8.4659e-12
0.0118756
0.00495931
-3.28178e-10
0.0105841
0.0052854
-3.36853e-10
0.00916787
0.0057341
-3.3908e-10
0.00760614
0.00625188
-3.51049e-10
0.00590041
0.00678218
-3.88907e-10
0.00405402
0.00730842
-4.21702e-10
0.00205878
0.00781833
-4.39509e-10
0.00818519
-4.56341e-10
0.0168001
7.57182e-10
-3.36511e-12
0.0168001
4.18102e-09
-1.16435e-11
0.0168001
1.56317e-08
-1.3491e-11
0.0168001
3.97927e-08
-2.16025e-11
0.0168
1.1067e-07
-2.14584e-11
0.0168
2.49813e-07
-2.90963e-11
0.0167999
6.81991e-07
-2.92284e-11
0.0167998
1.40011e-06
-3.96757e-11
0.016799
4.48119e-06
-4.20097e-11
0.0167986
8.21655e-06
-7.41048e-11
0.0167915
3.21719e-05
-9.24529e-11
0.0167819
6.7706e-05
-2.20091e-10
0.0167196
0.000304798
-2.77839e-10
0.0165664
0.000841782
-1.09794e-09
0.015765
0.00478363
-2.45312e-09
0.0144342
0.00627643
4.74802e-10
0.013238
0.00594797
-2.92741e-11
0.0120322
0.00616393
-3.30778e-10
0.0107558
0.00656006
-3.38293e-10
0.00935538
0.00713246
-3.36236e-10
0.00782058
0.00778496
-3.4598e-10
0.0061251
0.00847519
-3.77377e-10
0.00423828
0.00919113
-4.06331e-10
0.00218813
0.00986454
-4.21936e-10
0.0103707
-4.38543e-10
0.0168001
8.44688e-10
-3.34427e-12
0.0168001
4.69743e-09
-1.1631e-11
0.0168001
1.75166e-08
-1.35883e-11
0.0168
4.48054e-08
-2.14411e-11
0.0168
1.23692e-07
-2.19696e-11
0.0168
2.7972e-07
-2.93412e-11
0.0167999
7.61327e-07
-3.03937e-11
0.0167998
1.52681e-06
-4.48675e-11
0.0167989
5.23108e-06
-3.886e-11
0.0167992
8.00227e-06
-1.24314e-10
0.0167909
3.98795e-05
4.09602e-12
0.0167858
7.2994e-05
-3.39831e-10
0.0167412
0.000347443
-6.16997e-11
0.0166439
0.00093662
-9.78309e-10
0.0162028
0.00520975
-2.19024e-09
0.0148291
0.00765307
3.20237e-10
0.0135718
0.00720576
-1.64526e-10
0.0123458
0.00738873
-3.80572e-10
0.0110897
0.00781485
-3.7044e-10
0.00970322
0.00851662
-3.43893e-10
0.00817156
0.00931462
-3.52462e-10
0.00647251
0.010172
-3.71754e-10
0.00456101
0.0110986
-3.96518e-10
0.00238531
0.0120382
-4.09602e-10
0.0127537
-4.22622e-10
0.0168001
1.04858e-09
-3.32231e-12
0.0168001
5.75662e-09
-1.15792e-11
0.0168001
2.1434e-08
-1.35774e-11
0.0168
5.47381e-08
-2.12708e-11
0.0168
1.51757e-07
-2.16016e-11
0.0167999
3.46412e-07
-2.83984e-11
0.0167998
9.16547e-07
-2.85453e-11
0.0167993
2.02236e-06
-3.71841e-11
0.0167988
5.61939e-06
-3.87161e-11
0.0167954
1.13879e-05
-8.10735e-11
0.0167953
3.94112e-05
-3.70773e-11
0.0167879
8.03888e-05
-2.37155e-10
0.0167854
0.000347994
-1.54336e-10
0.0167811
0.000938599
-8.5318e-10
0.0169785
0.00499679
-1.98965e-09
0.0155448
0.00908989
2.53981e-10
0.0141377
0.00861363
-1.94344e-10
0.0128528
0.00867262
-3.88081e-10
0.0115888
0.00907742
-3.80382e-10
0.0102456
0.00985832
-3.5646e-10
0.00872802
0.01083
-3.60283e-10
0.00701155
0.0118867
-3.69384e-10
0.00504423
0.0130617
-3.84062e-10
0.00273953
0.0143402
-3.91641e-10
0.0154911
-4.01519e-10
0.0168001
1.08487e-09
-3.27908e-12
0.0168001
6.02815e-09
-1.15916e-11
0.0168001
2.24726e-08
-1.35543e-11
0.0168001
5.78475e-08
-2.12586e-11
0.0168
1.59115e-07
-2.15299e-11
0.0168
3.64821e-07
-2.82836e-11
0.0168
9.51512e-07
-2.81582e-11
0.0167999
2.12264e-06
-3.6084e-11
0.0167998
5.61994e-06
-3.90169e-11
0.0167989
1.22849e-05
-5.7439e-11
0.0168016
3.62285e-05
-6.56824e-11
0.0168028
7.90328e-05
-1.8304e-10
0.0168554
0.00029342
-1.99273e-10
0.0170073
0.000784619
-7.63317e-10
0.0182546
0.00373408
-1.89518e-09
0.0167935
0.0105528
2.40728e-13
0.015011
0.0103972
-2.45651e-10
0.0136436
0.0100391
-3.6918e-10
0.0123508
0.0103684
-3.68156e-10
0.0109882
0.0112191
-3.52185e-10
0.00949093
0.0123251
-3.52908e-10
0.00777616
0.0135997
-3.65325e-10
0.00577961
0.0150556
-3.75341e-10
0.00330005
0.0168175
-3.78027e-10
0.0187892
-3.81064e-10
0.0168001
1.40983e-09
-3.24688e-12
0.0168001
6.31174e-09
-1.15941e-11
0.0168001
2.51909e-08
-1.35631e-11
0.0168001
6.1901e-08
-2.12534e-11
0.0168
1.7607e-07
-2.15081e-11
0.0168
3.91618e-07
-2.82135e-11
0.0167999
1.04481e-06
-2.78998e-11
0.0167997
2.30887e-06
-3.54542e-11
0.0167994
5.86165e-06
-3.72943e-11
0.0167981
1.36108e-05
-5.34923e-11
0.0167989
3.49684e-05
-5.53754e-11
0.016799
7.8869e-05
-1.61692e-10
0.0168178
0.000272977
-1.21836e-10
0.016887
0.00071519
-5.28889e-10
0.017498
0.00311356
-9.64727e-10
0.0169091
0.0111367
-7.52229e-10
0.0154117
0.0118932
-4.65637e-10
0.0143268
0.0111226
-4.0169e-10
0.0131134
0.0115803
-3.83015e-10
0.0118656
0.0124648
-3.51924e-10
0.0104364
0.0137519
-3.46758e-10
0.00884646
0.0151863
-3.52448e-10
0.00694607
0.0169523
-3.5338e-10
0.00433665
0.0194236
-3.5128e-10
0.023124
-3.48724e-10
0.0168001
-3.28601e-12
2.31267e-09
0.0168001
-1.15778e-11
1.92827e-09
0.0168001
-1.37744e-11
3.12338e-08
0.0168001
-2.15013e-11
2.80427e-08
0.0168001
-2.20181e-11
2.0746e-07
0.0168003
-2.91829e-11
1.84454e-07
0.0168
-2.9645e-11
1.24688e-06
0.0168014
-4.23366e-11
9.93826e-07
0.0167992
-3.54425e-11
7.98685e-06
0.0168087
-1.11194e-10
4.0005e-06
0.0167849
1.39617e-11
5.84759e-05
0.016846
-1.46777e-10
1.59457e-05
0.0167054
9.94887e-11
0.000411279
0.0169897
-5.60717e-10
0.000431765
0.0171356
-6.7733e-10
0.00296079
0.0166371
-1.57333e-09
0.0116222
0.0160464
-4.63007e-10
0.0124792
0.0148876
-4.01656e-10
0.0122799
0.013796
-3.6393e-10
0.0126707
0.012752
-3.54002e-10
0.0135079
0.0115843
-3.47503e-10
0.0149181
0.0102603
-3.48006e-10
0.0165081
0.00852546
-3.43728e-10
0.018684
0.00601785
-3.29794e-10
0.0219277
-3.074e-10
0.0291397
0.0168001
2.07284e-10
-5.1674e-16
0.0168001
1.12562e-09
-2.75334e-15
0.0168001
4.18936e-09
-6.01953e-15
0.0168
1.07492e-08
-1.27555e-14
0.0168
2.96013e-08
-2.334e-14
0.0167999
6.8062e-08
-4.41851e-14
0.0167997
1.75545e-07
-9.11355e-14
0.0167994
4.01609e-07
-1.78149e-13
0.0167982
1.00909e-06
-4.21891e-13
0.016796
2.30259e-06
-8.62851e-13
0.0167889
6.46636e-06
-2.42828e-12
0.0167728
1.61489e-05
-5.78585e-12
0.0167187
5.22796e-05
-1.4745e-11
0.0165484
0.000167177
-5.04061e-11
0.0155372
0.000999513
-1.33161e-10
0.014348
0.0011903
1.49437e-11
0.0131482
0.00119934
-4.62585e-12
0.01188
0.00126662
-1.66627e-11
0.0105347
0.00134337
-1.6974e-11
0.00910029
0.00143223
-1.73267e-11
0.00754844
0.00154949
-2.02516e-11
0.00586495
0.00168008
-2.3735e-11
0.00405658
0.00180408
-2.64018e-11
0.00211512
0.00193833
-2.76912e-11
0.00211266
-2.93975e-11
0.0168001
4.13676e-10
-5.17203e-16
0.0168001
2.24336e-09
-2.7539e-15
0.0168001
8.35369e-09
-6.0258e-15
0.0168
2.13993e-08
-1.27716e-14
0.0168
5.91235e-08
-2.33915e-14
0.0167999
1.35818e-07
-4.42971e-14
0.0167997
3.52561e-07
-9.14902e-14
0.0167993
8.03656e-07
-1.78878e-13
0.0167982
2.04872e-06
-4.24193e-13
0.0167959
4.63079e-06
-8.66349e-13
0.0167885
1.32499e-05
-2.44621e-12
0.0167719
3.27646e-05
-5.79583e-12
0.0167139
0.000108469
-1.48722e-11
0.0165352
0.000342758
-5.05043e-11
0.015505
0.00201788
-1.33826e-10
0.0142869
0.00240954
1.6049e-11
0.0130972
0.00238869
-4.41533e-12
0.0118452
0.00251694
-1.6307e-11
0.0105091
0.00267766
-1.65133e-11
0.00906109
0.00287803
-1.68352e-11
0.00748909
0.00311917
-1.9817e-11
0.00578733
0.00337843
-2.33105e-11
0.00395971
0.00362736
-2.6068e-11
0.00201562
0.00387924
-2.74688e-11
0.00412572
-2.93175e-11
0.0168001
6.02333e-10
-5.17331e-16
0.0168001
3.24486e-09
-2.75133e-15
0.0168001
1.20948e-08
-6.02654e-15
0.0168
3.08697e-08
-1.27765e-14
0.0168
8.57465e-08
-2.34257e-14
0.0168
1.96745e-07
-4.43741e-14
0.0167998
5.13923e-07
-9.18803e-14
0.0167994
1.17485e-06
-1.79608e-13
0.0167984
3.00047e-06
-4.27871e-13
0.0167962
6.85013e-06
-8.70624e-13
0.0167891
1.97551e-05
-2.48251e-12
0.016773
4.88037e-05
-5.81711e-12
0.0167133
0.000166318
-1.51953e-11
0.0165314
0.000521528
-5.09628e-11
0.0155154
0.00302165
-1.36246e-10
0.0142688
0.00365755
1.86098e-11
0.0130783
0.00357872
-2.38997e-12
0.0118418
0.00375177
-1.56903e-11
0.0105222
0.00399548
-1.57918e-11
0.00907823
0.00431974
-1.60787e-11
0.00750338
0.00469166
-1.9138e-11
0.00579849
0.00507992
-2.26017e-11
0.00395534
0.00546628
-2.54286e-11
0.00200587
0.00582552
-2.69071e-11
0.00612897
-2.86934e-11
0.0168001
6.9221e-10
-5.15889e-16
0.0168001
3.76566e-09
-2.73885e-15
0.0168001
1.40172e-08
-6.00537e-15
0.0168
3.58718e-08
-1.27374e-14
0.0168
9.93913e-08
-2.33874e-14
0.0168
2.26315e-07
-4.43613e-14
0.0167999
6.0563e-07
-9.21543e-14
0.0167998
1.30859e-06
-1.81564e-13
0.0167989
3.77551e-06
-4.30747e-13
0.016798
7.7932e-06
-8.85717e-13
0.0167915
2.55916e-05
-2.54285e-12
0.0167822
5.81754e-05
-5.9129e-12
0.0167022
0.000244415
-1.56334e-11
0.0165292
0.000691278
-5.17105e-11
0.0155416
0.00399639
-1.40084e-10
0.0142577
0.00494313
2.21294e-11
0.0130845
0.0047516
-1.17257e-12
0.0118755
0.00495923
-1.49723e-11
0.0105841
0.00528529
-1.51704e-11
0.00916783
0.00573399
-1.55086e-11
0.00760613
0.00625178
-1.81706e-11
0.00590042
0.00678213
-2.1294e-11
0.00405403
0.0073084
-2.41295e-11
0.00205879
0.00781836
-2.57548e-11
0.00818529
-2.73508e-11
0.0168001
7.67565e-10
-4.981e-16
0.0168001
4.19722e-09
-2.66379e-15
0.0168001
1.56017e-08
-5.74881e-15
0.0168001
3.98707e-08
-1.21682e-14
0.0168
1.10473e-07
-2.17671e-14
0.0168
2.49673e-07
-4.06303e-14
0.0167999
6.81471e-07
-8.47311e-14
0.0167998
1.39755e-06
-1.51237e-13
0.016799
4.48265e-06
-4.33004e-13
0.0167987
8.19547e-06
-7.15323e-13
0.0167915
3.22149e-05
-2.64048e-12
0.0167819
6.76661e-05
-4.90943e-12
0.0167195
0.000304927
-2.01837e-11
0.0165663
0.000841921
-5.14521e-11
0.0157646
0.00478422
-1.48443e-10
0.0144338
0.00627638
2.89137e-11
0.0132378
0.0059478
2.75441e-12
0.012032
0.00616378
-1.39287e-11
0.0107557
0.00655991
-1.45207e-11
0.00935526
0.00713232
-1.50729e-11
0.00782049
0.00778482
-1.69309e-11
0.00612507
0.00847508
-1.95498e-11
0.00423827
0.00919109
-2.2063e-11
0.00218813
0.00986456
-2.35588e-11
0.0103708
-2.52151e-11
0.0168001
8.56206e-10
-4.74035e-16
0.0168001
4.73268e-09
-2.58688e-15
0.0168001
1.75435e-08
-5.45604e-15
0.0168
4.49074e-08
-1.12467e-14
0.0168
1.23926e-07
-1.98454e-14
0.0168
2.80266e-07
-3.51674e-14
0.0167999
7.62513e-07
-7.42392e-14
0.0167998
1.53068e-06
-9.96701e-14
0.0167989
5.23315e-06
-4.58693e-13
0.0167992
8.02119e-06
-2.74768e-13
0.0167909
3.98711e-05
-3.94033e-12
0.0167857
7.30588e-05
-3.8724e-12
0.0167412
0.000347413
-1.84021e-11
0.016644
0.000936731
-5.24244e-11
0.016203
0.00521025
-1.57536e-10
0.0148293
0.00765304
3.32174e-11
0.0135719
0.00720569
6.16516e-12
0.0123458
0.00738863
-1.37262e-11
0.0110896
0.00781473
-1.4726e-11
0.00970316
0.00851648
-1.54422e-11
0.00817148
0.00931449
-1.59368e-11
0.00647245
0.0101719
-1.77662e-11
0.00456098
0.0110986
-2.03381e-11
0.00238529
0.0120382
-2.17654e-11
0.0127538
-2.30164e-11
0.0168001
1.0693e-09
-4.97316e-16
0.0168001
5.76745e-09
-2.6741e-15
0.0168001
2.14636e-08
-5.79994e-15
0.0168
5.47739e-08
-1.20511e-14
0.0168
1.51848e-07
-2.22027e-14
0.0167999
3.46602e-07
-4.1092e-14
0.0167998
9.17026e-07
-8.52216e-14
0.0167993
2.02366e-06
-1.59564e-13
0.0167988
5.62121e-06
-4.31923e-13
0.0167954
1.14006e-05
-6.43305e-13
0.0167953
3.94117e-05
-2.94334e-12
0.0167879
8.04196e-05
-4.49152e-12
0.0167853
0.000348007
-2.06251e-11
0.0167811
0.000938694
-5.07542e-11
0.0169785
0.00499738
-1.57937e-10
0.0155448
0.00908979
3.1448e-11
0.0141377
0.00861353
6.73308e-12
0.0128528
0.00867253
-1.41668e-11
0.0115888
0.00907732
-1.57591e-11
0.0102456
0.00985819
-1.68968e-11
0.00872798
0.0108299
-1.57634e-11
0.0070115
0.0118866
-1.64326e-11
0.00504419
0.0130616
-1.83642e-11
0.00273951
0.0143402
-1.9153e-11
0.0154911
-2.01618e-11
0.0168001
1.09908e-09
-4.95386e-16
0.0168001
6.03408e-09
-2.6634e-15
0.0168001
2.24701e-08
-5.76908e-15
0.0168001
5.78262e-08
-1.19736e-14
0.0168
1.59066e-07
-2.19501e-14
0.0168
3.64733e-07
-4.04638e-14
0.0168
9.51398e-07
-8.31981e-14
0.0167999
2.12241e-06
-1.55631e-13
0.0167998
5.61987e-06
-4.01655e-13
0.0167989
1.22847e-05
-7.30574e-13
0.0168016
3.62304e-05
-2.57139e-12
0.0168028
7.90441e-05
-4.23626e-12
0.0168554
0.000293473
-1.87793e-11
0.0170072
0.000784805
-4.67848e-11
0.0182541
0.00373512
-1.55047e-10
0.016793
0.0105526
1.5804e-11
0.0150108
0.0103968
9.22029e-13
0.0136434
0.0100389
-1.57199e-11
0.0123507
0.0103682
-1.73227e-11
0.0109882
0.0112189
-1.82394e-11
0.00949087
0.012325
-1.60132e-11
0.00777609
0.0135996
-1.61003e-11
0.00577956
0.0150555
-1.73626e-11
0.00330002
0.0168174
-1.76357e-11
0.0187893
-1.76195e-11
0.0168001
1.37629e-09
-4.8353e-16
0.0168001
6.41921e-09
-2.61186e-15
0.0168001
2.50723e-08
-5.58669e-15
0.0168001
6.17368e-08
-1.15764e-14
0.0168
1.75704e-07
-2.06155e-14
0.0168
3.91094e-07
-3.76759e-14
0.0167999
1.04377e-06
-7.36637e-14
0.0167997
2.30634e-06
-1.37136e-13
0.0167994
5.86083e-06
-3.26107e-13
0.0167981
1.35953e-05
-6.30159e-13
0.0167989
3.4979e-05
-1.71839e-12
0.016799
7.88574e-05
-3.86127e-12
0.0168179
0.000273025
-1.10088e-11
0.0168872
0.000715261
-2.79595e-11
0.0174987
0.00311403
-7.49351e-11
0.0169093
0.011137
-4.98888e-11
0.0154117
0.011893
-2.33618e-11
0.0143268
0.0111224
-2.21257e-11
0.0131133
0.0115801
-2.16373e-11
0.0118655
0.0124647
-2.02978e-11
0.0104363
0.0137518
-1.76168e-11
0.00884643
0.0151862
-1.69003e-11
0.00694604
0.0169522
-1.68277e-11
0.00433663
0.0194236
-1.65997e-11
0.023124
-1.56408e-11
0.0168001
-5.31678e-16
2.18066e-09
0.0168001
-2.80216e-15
2.29955e-09
0.0168001
-6.26472e-15
3.00934e-08
0.0168001
-1.30804e-14
2.85097e-08
0.0168001
-2.49112e-14
2.06336e-07
0.0168003
-4.76745e-14
1.85153e-07
0.0168
-9.41155e-14
1.2463e-06
0.0168013
-2.29524e-13
9.95953e-07
0.0167992
-2.97341e-13
7.98576e-06
0.0168086
-1.37045e-12
4.01309e-06
0.0167849
-5.67629e-13
5.84558e-05
0.016845
-5.72861e-12
1.95466e-05
0.0167057
-5.498e-12
0.000411214
0.0169896
-2.61904e-11
0.000431883
0.017136
-6.44646e-11
0.00296086
0.0166376
-1.2106e-10
0.0116224
0.0160467
-2.55305e-11
0.0124792
0.0148877
-2.23621e-11
0.0122798
0.0137961
-2.20297e-11
0.0126706
0.012752
-2.15364e-11
0.0135078
0.0115843
-1.9679e-11
0.014918
0.0102603
-1.90888e-11
0.016508
0.00852545
-1.81049e-11
0.0186839
0.00601784
-1.70142e-11
0.0219276
-1.59682e-11
0.0291396
0.0168001
2.07284e-10
1.94797e-16
0.0168001
1.12562e-09
1.88824e-16
0.0168001
4.18935e-09
5.26838e-17
0.0168
1.07492e-08
1.13786e-16
0.0168
2.96013e-08
3.17133e-16
0.0167999
6.80619e-08
6.5315e-16
0.0167997
1.75545e-07
1.74227e-15
0.0167994
4.01609e-07
3.69932e-15
0.0167982
1.00909e-06
9.203e-15
0.016796
2.30259e-06
1.9993e-14
0.0167889
6.46635e-06
5.37987e-14
0.0167728
1.61488e-05
1.31228e-13
0.0167187
5.22796e-05
2.97371e-13
0.0165484
0.000167177
1.02569e-12
0.0155372
0.000999513
2.50581e-12
0.014348
0.00119029
-9.0103e-13
0.0131482
0.00119934
-3.9546e-13
0.01188
0.00126662
-1.17329e-13
0.0105347
0.00134337
-1.40789e-13
0.0091003
0.00143223
-1.59808e-13
0.00754845
0.00154949
-5.26539e-14
0.00586496
0.00168008
1.07078e-13
0.00405659
0.00180408
2.41481e-13
0.00211513
0.00193833
3.02113e-13
0.00211266
3.66976e-13
0.0168001
4.13675e-10
1.94985e-16
0.0168001
2.24336e-09
1.88914e-16
0.0168001
8.35369e-09
5.33987e-17
0.0168
2.13993e-08
1.15319e-16
0.0168
5.91235e-08
3.21552e-16
0.0167999
1.35818e-07
6.62289e-16
0.0167997
3.52561e-07
1.76746e-15
0.0167993
8.03655e-07
3.75514e-15
0.0167982
2.04871e-06
9.3398e-15
0.0167959
4.63078e-06
2.02819e-14
0.0167885
1.32499e-05
5.46952e-14
0.0167719
3.27646e-05
1.32722e-13
0.0167139
0.000108469
3.02352e-13
0.0165352
0.000342758
1.03609e-12
0.015505
0.00201788
2.53733e-12
0.0142869
0.00240953
-9.28967e-13
0.0130972
0.00238868
-4.00384e-13
0.0118452
0.00251693
-1.27656e-13
0.0105091
0.00267766
-1.56053e-13
0.0090611
0.00287803
-1.78069e-13
0.00748911
0.00311917
-6.97016e-14
0.00578733
0.00337843
9.18167e-14
0.00395972
0.00362736
2.29321e-13
0.00201563
0.00387924
2.99431e-13
0.00412573
3.74772e-13
0.0168001
6.02334e-10
1.95172e-16
0.0168001
3.24487e-09
1.89418e-16
0.0168001
1.20948e-08
5.44227e-17
0.0168
3.08698e-08
1.1748e-16
0.0168
8.57467e-08
3.28233e-16
0.0168
1.96746e-07
6.7602e-16
0.0167998
5.13924e-07
1.80851e-15
0.0167994
1.17485e-06
3.84584e-15
0.0167984
3.00048e-06
9.58936e-15
0.0167962
6.85014e-06
2.07879e-14
0.0167891
1.97551e-05
5.65452e-14
0.016773
4.88037e-05
1.3585e-13
0.0167133
0.000166318
3.14682e-13
0.0165314
0.000521527
1.06593e-12
0.0155154
0.00302165
2.63253e-12
0.0142688
0.00365754
-9.9512e-13
0.0130783
0.00357872
-4.11804e-13
0.0118418
0.00375177
-1.4296e-13
0.0105222
0.00399548
-1.76753e-13
0.00907825
0.00431974
-2.02213e-13
0.0075034
0.00469167
-9.46311e-14
0.0057985
0.00507993
6.94332e-14
0.00395534
0.00546629
2.06919e-13
0.00200587
0.00582553
2.78889e-13
0.00612898
3.64872e-13
0.0168001
6.92218e-10
1.95019e-16
0.0168001
3.7657e-09
1.91003e-16
0.0168001
1.40173e-08
5.53019e-17
0.0168
3.58722e-08
1.19307e-16
0.0168
9.93925e-08
3.35861e-16
0.0168
2.26318e-07
6.93747e-16
0.0167999
6.05637e-07
1.86351e-15
0.0167998
1.30861e-06
4.02054e-15
0.0167989
3.77552e-06
9.89598e-15
0.016798
7.7933e-06
2.188e-14
0.0167915
2.55916e-05
5.96292e-14
0.0167822
5.81759e-05
1.42792e-13
0.0167022
0.000244412
3.32462e-13
0.0165292
0.000691278
1.11522e-12
0.0155416
0.00399638
2.79017e-12
0.0142577
0.00494312
-1.09001e-12
0.0130845
0.00475159
-3.78432e-13
0.0118755
0.00495923
-1.56564e-13
0.0105841
0.00528529
-1.89152e-13
0.00916784
0.00573399
-2.13932e-13
0.00760614
0.00625179
-1.30865e-13
0.00590043
0.00678213
1.82272e-14
0.00405404
0.00730841
1.57617e-13
0.0020588
0.00781837
2.34469e-13
0.00818531
3.21818e-13
0.0168001
7.67576e-10
1.91002e-16
0.0168001
4.19727e-09
1.98231e-16
0.0168001
1.56019e-08
4.87662e-17
0.0168001
3.98712e-08
1.05049e-16
0.0168
1.10475e-07
2.95761e-16
0.0168
2.49676e-07
5.99911e-16
0.0167999
6.81478e-07
1.699e-15
0.0167998
1.39758e-06
3.2333e-15
0.016799
4.48265e-06
1.03113e-14
0.0167987
8.19568e-06
1.76096e-14
0.0167915
3.22146e-05
6.44212e-14
0.0167819
6.76665e-05
1.20479e-13
0.0167195
0.000304926
4.68219e-13
0.0165663
0.000841921
1.15258e-12
0.0157646
0.00478423
3.11808e-12
0.0144338
0.00627636
-1.28154e-12
0.0132378
0.00594779
-5.63927e-13
0.012032
0.00616378
-1.81556e-13
0.0107557
0.0065599
-2.0246e-13
0.00935526
0.00713232
-2.23034e-13
0.00782049
0.00778482
-1.72814e-13
0.00612507
0.00847509
-5.28295e-14
0.00423827
0.0091911
6.75283e-14
0.00218813
0.00986458
1.25952e-13
0.0103708
2.26681e-13
0.0168001
8.56196e-10
1.85472e-16
0.0168001
4.73264e-09
2.04885e-16
0.0168001
1.75433e-08
4.08075e-17
0.0168
4.49069e-08
8.66947e-17
0.0168
1.23925e-07
2.4311e-16
0.0168
2.80263e-07
4.72657e-16
0.0167999
7.62507e-07
1.4634e-15
0.0167998
1.53066e-06
1.95925e-15
0.0167989
5.23315e-06
1.13308e-14
0.0167992
8.02105e-06
6.83675e-15
0.0167909
3.98713e-05
8.8005e-14
0.0167857
7.30585e-05
9.9291e-14
0.0167412
0.000347414
5.4579e-13
0.016644
0.000936734
1.23672e-12
0.016203
0.00521027
3.52018e-12
0.0148293
0.00765303
-1.41593e-12
0.0135718
0.00720568
-6.76312e-13
0.0123458
0.00738863
-1.80233e-13
0.0110896
0.00781472
-1.86551e-13
0.00970315
0.00851647
-2.05673e-13
0.00817148
0.00931449
-2.06617e-13
0.00647245
0.0101719
-1.30764e-13
0.00456098
0.0110986
5.96165e-15
0.0023853
0.0120382
5.40821e-14
0.0127538
1.35679e-13
0.0168001
1.0693e-09
1.91597e-16
0.0168001
5.76745e-09
1.97985e-16
0.0168001
2.14636e-08
5.31217e-17
0.0168
5.47739e-08
1.15e-16
0.0168
1.51848e-07
3.23013e-16
0.0167999
3.46602e-07
6.62692e-16
0.0167998
9.17026e-07
1.84022e-15
0.0167993
2.02366e-06
3.67845e-15
0.0167988
5.62123e-06
1.10781e-14
0.0167954
1.14006e-05
1.7308e-14
0.0167953
3.94119e-05
7.68809e-14
0.0167879
8.04199e-05
1.20839e-13
0.0167853
0.000348009
5.21177e-13
0.0167811
0.000938701
1.24839e-12
0.0169784
0.00499743
3.69856e-12
0.0155447
0.00908977
-1.37985e-12
0.0141377
0.00861351
-7.14716e-13
0.0128528
0.00867252
-1.64161e-13
0.0115888
0.00907731
-1.43255e-13
0.0102455
0.00985818
-1.47827e-13
0.00872797
0.0108299
-2.06979e-13
0.00701149
0.0118866
-1.92819e-13
0.00504419
0.0130616
-8.32716e-14
0.0027395
0.0143402
-7.27133e-14
0.0154911
-1.37454e-15
0.0168001
1.09909e-09
1.9147e-16
0.0168001
6.0341e-09
1.99442e-16
0.0168001
2.24702e-08
5.41889e-17
0.0168001
5.78263e-08
1.16932e-16
0.0168
1.59067e-07
3.27054e-16
0.0168
3.64733e-07
6.67226e-16
0.0168
9.514e-07
1.8461e-15
0.0167999
2.12241e-06
3.67957e-15
0.0167998
5.6199e-06
1.06658e-14
0.0167989
1.22848e-05
1.99108e-14
0.0168016
3.62308e-05
7.00849e-14
0.0168028
7.90445e-05
1.17657e-13
0.0168554
0.000293479
4.95291e-13
0.0170072
0.00078482
1.20645e-12
0.018254
0.00373521
3.85747e-12
0.016793
0.0105526
-8.65582e-13
0.0150108
0.0103967
-5.80564e-13
0.0136434
0.0100389
-1.15924e-13
0.0123507
0.0103682
-8.32442e-14
0.0109881
0.0112189
-9.18196e-14
0.00949086
0.012325
-1.94069e-13
0.00777608
0.0135996
-2.02421e-13
0.00577955
0.0150556
-1.19784e-13
0.00330002
0.0168174
-1.25151e-13
0.0187893
-1.23709e-13
0.0168001
1.37627e-09
1.88684e-16
0.0168001
6.41918e-09
2.04284e-16
0.0168001
2.5072e-08
4.96649e-17
0.0168001
6.17364e-08
1.07163e-16
0.0168
1.75702e-07
2.93427e-16
0.0168
3.91092e-07
5.96333e-16
0.0167999
1.04376e-06
1.60183e-15
0.0167997
2.30632e-06
3.20323e-15
0.0167994
5.86084e-06
8.71131e-15
0.0167981
1.35952e-05
1.74185e-14
0.0167989
3.49794e-05
4.73111e-14
0.016799
7.88574e-05
1.12034e-13
0.0168179
0.000273028
2.92165e-13
0.0168872
0.000715267
7.41418e-13
0.0174988
0.00311407
1.87935e-12
0.0169093
0.0111371
8.7119e-13
0.0154116
0.011893
1.01518e-13
0.0143267
0.0111224
9.93227e-14
0.0131133
0.0115801
7.13541e-14
0.0118655
0.0124646
-2.16494e-15
0.0104363
0.0137518
-1.397e-13
0.00884641
0.0151862
-1.71664e-13
0.00694603
0.0169522
-1.67325e-13
0.00433662
0.0194236
-1.70313e-13
0.0231241
-2.07781e-13
0.0168001
2.00685e-16
2.18066e-09
0.0168001
1.87264e-16
2.29967e-09
0.0168001
7.45067e-17
3.00937e-08
0.0168001
1.6319e-16
2.85106e-08
0.0168001
4.53964e-16
2.06339e-07
0.0168003
9.712e-16
1.85158e-07
0.0168
2.36392e-15
1.24632e-06
0.0168013
6.5904e-15
9.95987e-07
0.0167992
7.80956e-15
7.98582e-06
0.0168086
4.34146e-14
4.01328e-06
0.0167849
1.29574e-14
5.84559e-05
0.016845
1.73383e-13
1.95476e-05
0.0167057
1.70599e-13
0.000411216
0.0169896
7.09837e-13
0.000431888
0.017136
1.66728e-12
0.00296089
0.0166376
2.94266e-12
0.0116225
0.0160467
2.14087e-13
0.0124793
0.0148877
1.30972e-13
0.0122798
0.0137961
9.92476e-14
0.0126706
0.012752
6.96256e-14
0.0135078
0.0115842
-3.87772e-14
0.014918
0.0102603
-6.36953e-14
0.016508
0.00852544
-1.0199e-13
0.0186839
0.00601783
-1.33079e-13
0.0219277
-1.7363e-13
0.0291396
0.0168001
2.07284e-10
-8.78687e-17
0.0168001
1.12562e-09
-3.0205e-16
0.0168001
4.18935e-09
-7.95558e-16
0.0168
1.07492e-08
-1.52932e-15
0.0168
2.96013e-08
-3.88869e-15
0.0167999
6.80619e-08
-7.69109e-15
0.0167997
1.75545e-07
-2.05463e-14
0.0167994
4.01609e-07
-4.29017e-14
0.0167982
1.00909e-06
-1.12984e-13
0.016796
2.30259e-06
-2.38866e-13
0.0167889
6.46635e-06
-7.05353e-13
0.0167728
1.61488e-05
-1.686e-12
0.0167187
5.22796e-05
-4.45072e-12
0.0165484
0.000167177
-1.51193e-11
0.0155372
0.000999513
-4.12818e-11
0.014348
0.00119029
5.00153e-12
0.0131482
0.00119934
-2.94156e-13
0.01188
0.00126662
-4.5904e-12
0.0105347
0.00134337
-4.75122e-12
0.0091003
0.00143223
-5.07329e-12
0.00754845
0.00154949
-6.29529e-12
0.00586496
0.00168008
-7.83643e-12
0.00405658
0.00180408
-9.15127e-12
0.00211513
0.00193833
-9.70958e-12
0.00211266
-1.0431e-11
0.0168001
4.13676e-10
-8.85149e-17
0.0168001
2.24336e-09
-3.03981e-16
0.0168001
8.35369e-09
-8.00768e-16
0.0168
2.13993e-08
-1.53944e-15
0.0168
5.91235e-08
-3.91704e-15
0.0167999
1.35818e-07
-7.74855e-15
0.0167997
3.52561e-07
-2.07102e-14
0.0167993
8.03655e-07
-4.32492e-14
0.0167982
2.04871e-06
-1.13958e-13
0.0167959
4.63078e-06
-2.40602e-13
0.0167885
1.32499e-05
-7.12321e-13
0.0167719
3.27646e-05
-1.69305e-12
0.0167139
0.000108469
-4.49644e-12
0.0165352
0.000342758
-1.51675e-11
0.015505
0.00201788
-4.14945e-11
0.0142869
0.00240953
5.34234e-12
0.0130972
0.00238868
-2.47435e-13
0.0118452
0.00251693
-4.46247e-12
0.0105091
0.00267766
-4.5753e-12
0.0090611
0.00287803
-4.87241e-12
0.0074891
0.00311917
-6.10625e-12
0.00578733
0.00337843
-7.66707e-12
0.00395972
0.00362736
-9.02646e-12
0.00201563
0.00387924
-9.67244e-12
0.00412573
-1.04962e-11
0.0168001
6.02334e-10
-8.93222e-17
0.0168001
3.24487e-09
-3.06194e-16
0.0168001
1.20948e-08
-8.06952e-16
0.0168
3.08698e-08
-1.55107e-15
0.0168
8.57467e-08
-3.95302e-15
0.0168
1.96746e-07
-7.8201e-15
0.0167998
5.13924e-07
-2.09473e-14
0.0167994
1.17485e-06
-4.3735e-14
0.0167984
3.00048e-06
-1.15664e-13
0.0167962
6.85014e-06
-2.43319e-13
0.0167891
1.97551e-05
-7.26678e-13
0.016773
4.88037e-05
-1.70814e-12
0.0167133
0.000166318
-4.61176e-12
0.0165314
0.000521527
-1.53553e-11
0.0155154
0.00302165
-4.23209e-11
0.0142688
0.00365754
6.13565e-12
0.0130783
0.00357872
-1.36537e-13
0.0118418
0.00375177
-4.2684e-12
0.0105222
0.00399548
-4.33362e-12
0.00907825
0.00431974
-4.60656e-12
0.0075034
0.00469167
-5.85433e-12
0.0057985
0.00507993
-7.44788e-12
0.00395534
0.00546629
-8.84071e-12
0.00200587
0.00582553
-9.5331e-12
0.00612898
-1.04079e-11
0.0168001
6.92218e-10
-8.95094e-17
0.0168001
3.7657e-09
-3.0617e-16
0.0168001
1.40173e-08
-8.09154e-16
0.0168
3.58722e-08
-1.55439e-15
0.0168
9.93925e-08
-3.98391e-15
0.0168
2.26318e-07
-7.89724e-15
0.0167999
6.05636e-07
-2.12334e-14
0.0167998
1.30861e-06
-4.48057e-14
0.0167989
3.77552e-06
-1.17529e-13
0.016798
7.7933e-06
-2.50466e-13
0.0167915
2.55916e-05
-7.50807e-13
0.0167822
5.81759e-05
-1.7522e-12
0.0167022
0.000244412
-4.77339e-12
0.0165292
0.000691278
-1.56678e-11
0.0155416
0.00399638
-4.36793e-11
0.0142577
0.00494312
7.23911e-12
0.0130845
0.00475159
2.31056e-13
0.0118755
0.00495923
-4.07454e-12
0.0105841
0.00528529
-4.16851e-12
0.00916784
0.00573399
-4.46803e-12
0.00760614
0.00625179
-5.52456e-12
0.00590043
0.00678213
-7.00235e-12
0.00405404
0.00730841
-8.43555e-12
0.0020588
0.00781837
-9.204e-12
0.00818531
-1.00572e-11
0.0168001
7.67576e-10
-8.03555e-17
0.0168001
4.19727e-09
-2.7783e-16
0.0168001
1.56018e-08
-7.28474e-16
0.0168001
3.98712e-08
-1.39083e-15
0.0168
1.10475e-07
-3.52848e-15
0.0168
2.49676e-07
-6.84727e-15
0.0167999
6.81478e-07
-1.92319e-14
0.0167998
1.39758e-06
-3.59936e-14
0.016799
4.48265e-06
-1.19807e-13
0.0167987
8.19567e-06
-2.00886e-13
0.0167915
3.22146e-05
-7.89112e-13
0.0167819
6.76665e-05
-1.46547e-12
0.0167195
0.000304926
-6.2324e-12
0.0165663
0.000841921
-1.57171e-11
0.0157646
0.00478423
-4.65803e-11
0.0144338
0.00627636
9.38778e-12
0.0132378
0.00594779
1.41112e-12
0.012032
0.00616378
-3.78647e-12
0.0107557
0.0065599
-4.00835e-12
0.00935526
0.00713232
-4.379e-12
0.00782049
0.00778482
-5.14882e-12
0.00612507
0.00847509
-6.40848e-12
0.00423827
0.0091911