/*--------------------------------*- C++ -*----------------------------------*\
| =========                 |                                                 |
| \\      /  F ield         | OpenFOAM: The Open Source CFD Toolbox           |
|  \\    /   O peration     | Version:  4.1                                   |
|   \\  /    A nd           | Web:      www.OpenFOAM.org                      |
|    \\/     M anipulation  |                                                 |
\*---------------------------------------------------------------------------*/
FoamFile
{
    version     2.0;
    format      ascii;
    class       volScalarField;
    location    "6";
    object      T;
}
// * * * * * * * * * * * * * * * * * * * * * * * * * * * * * * * * * * * * * //

dimensions      [0 0 0 1 0 0 0];

internalField   nonuniform List<scalar> 
52500
(
0.999996
1.00002
1.00004
1.00016
1.0003
1.00099
1.00182
1.00545
1.01123
1.02947
1.0784
1.17585
1.53383
2.34512
2.66034
2.73034
2.72491
2.7222
2.73672
2.74871
2.76262
2.7715
2.77957
2.78586
2.78879
0.999996
1.00002
1.00004
1.00016
1.0003
1.00097
1.0018
1.00536
1.0111
1.02903
1.07749
1.1733
1.52932
2.33542
2.65722
2.7303
2.72469
2.72186
2.73624
2.74809
2.76182
2.77019
2.77826
2.78365
2.78574
0.999996
1.00002
1.00004
1.00016
1.00029
1.00094
1.00175
1.0052
1.01083
1.02813
1.07556
1.16804
1.51904
2.31337
2.64905
2.72916
2.72321
2.72008
2.73438
2.74597
2.7595
2.76805
2.77497
2.781
2.78187
0.999995
1.00002
1.00004
1.00015
1.00028
1.0009
1.00168
1.00494
1.01042
1.02676
1.07261
1.15986
1.50291
2.27863
2.63616
2.72722
2.72088
2.71667
2.73042
2.74239
2.75405
2.76229
2.77076
2.7747
2.77703
0.999995
1.00002
1.00004
1.00014
1.00026
1.00086
1.00159
1.00471
1.00984
1.02545
1.06833
1.15184
1.47043
2.22042
2.61709
2.72314
2.71614
2.71075
2.72367
2.73633
2.74919
2.75515
2.76066
2.76736
2.76662
0.999995
1.00002
1.00004
1.00013
1.00025
1.00081
1.00149
1.00449
1.00911
1.02416
1.06242
1.14208
1.42683
2.14099
2.59014
2.71747
2.71087
2.70169
2.71571
2.72339
2.73814
2.74697
2.75273
2.75528
2.75694
0.999995
1.00001
1.00003
1.00012
1.00023
1.00076
1.00137
1.0043
1.00824
1.02318
1.05457
1.13053
1.37447
2.03906
2.554
2.70848
2.70213
2.69217
2.70735
2.71571
2.72337
2.72996
2.73656
2.74
2.73664
0.999995
1.00001
1.00003
1.00011
1.00021
1.00068
1.00124
1.00387
1.00739
1.02111
1.0476
1.11839
1.3222
1.92462
2.50492
2.68997
2.68056
2.67218
2.68788
2.70151
2.71232
2.71409
2.71772
2.71718
2.71365
0.999995
1.00001
1.00002
1.0001
1.00019
1.00061
1.00111
1.00348
1.00661
1.01906
1.04215
1.10645
1.28331
1.8217
2.47708
2.68055
2.67182
2.65708
2.67165
2.67704
2.68923
2.69155
2.69094
2.68533
2.6623
0.999994
1.00001
1.00002
1.00008
1.00016
1.00052
1.00096
1.0029
1.00585
1.01559
1.03883
1.09031
1.25965
1.69967
2.42186
2.65497
2.65274
2.6525
2.65552
2.66259
2.66579
2.66507
2.65643
2.63536
2.58567
1
1.00003
1.00005
1.00017
1.00031
1.00099
1.00183
1.00546
1.01124
1.02949
1.07842
1.1759
1.53387
2.34524
2.66042
2.73041
2.72498
2.72227
2.73679
2.74878
2.7627
2.77158
2.77965
2.78594
2.78888
1
1.00003
1.00005
1.00017
1.00031
1.00098
1.0018
1.00537
1.01111
1.02904
1.0775
1.17334
1.52935
2.33554
2.65729
2.73037
2.72476
2.72193
2.73632
2.74816
2.7619
2.77027
2.77834
2.78373
2.78582
1
1.00003
1.00005
1.00017
1.0003
1.00095
1.00176
1.00521
1.01084
1.02815
1.07557
1.16808
1.51908
2.31349
2.64913
2.72922
2.72328
2.72015
2.73445
2.74604
2.75958
2.76813
2.77505
2.78108
2.78195
1
1.00003
1.00005
1.00016
1.00029
1.00091
1.00168
1.00495
1.01043
1.02677
1.07262
1.15991
1.50295
2.27875
2.63623
2.72729
2.72094
2.71674
2.73049
2.74247
2.75413
2.76237
2.77083
2.77478
2.77711
1
1.00002
1.00005
1.00015
1.00027
1.00086
1.0016
1.00472
1.00985
1.02547
1.06834
1.15188
1.47047
2.22055
2.61716
2.7232
2.7162
2.71082
2.72374
2.7364
2.74926
2.75523
2.76073
2.76744
2.7667
1
1.00002
1.00004
1.00014
1.00026
1.00082
1.00149
1.0045
1.00911
1.02418
1.06242
1.14211
1.42683
2.14108
2.5902
2.71754
2.71093
2.70176
2.71578
2.72346
2.73821
2.74704
2.75281
2.75536
2.75701
1
1.00002
1.00004
1.00013
1.00024
1.00076
1.00138
1.00431
1.00825
1.02319
1.05457
1.13056
1.37448
2.03916
2.55406
2.70854
2.70219
2.69224
2.70741
2.71578
2.72344
2.73002
2.73663
2.74007
2.73671
1
1.00002
1.00004
1.00012
1.00022
1.00069
1.00125
1.00388
1.0074
1.02113
1.04762
1.11842
1.32222
1.92472
2.50498
2.69004
2.68063
2.67224
2.68794
2.70158
2.71238
2.71416
2.71779
2.71726
2.71372
1
1.00002
1.00003
1.00011
1.00019
1.00062
1.00112
1.00349
1.00662
1.01907
1.04216
1.10647
1.28333
1.82179
2.47711
2.68061
2.67189
2.65715
2.67171
2.67711
2.68929
2.69161
2.691
2.68539
2.66236
1
1.00001
1.00003
1.00009
1.00017
1.00052
1.00097
1.00291
1.00586
1.01562
1.03883
1.09033
1.25962
1.69976
2.4219
2.65502
2.65278
2.65256
2.65559
2.66266
2.66585
2.66513
2.65648
2.63541
2.58572
1
1.00003
1.00005
1.00017
1.00031
1.00099
1.00183
1.00546
1.01124
1.02949
1.07842
1.1759
1.53387
2.34525
2.66042
2.73041
2.72498
2.72227
2.73679
2.74878
2.7627
2.77158
2.77965
2.78594
2.78888
1
1.00003
1.00005
1.00017
1.00031
1.00098
1.0018
1.00537
1.01111
1.02904
1.0775
1.17334
1.52935
2.33554
2.65729
2.73037
2.72476
2.72193
2.73632
2.74816
2.7619
2.77027
2.77834
2.78373
2.78582
1
1.00003
1.00005
1.00017
1.0003
1.00095
1.00176
1.00521
1.01084
1.02815
1.07557
1.16808
1.51908
2.3135
2.64913
2.72922
2.72328
2.72015
2.73445
2.74604
2.75958
2.76813
2.77505
2.78108
2.78195
1
1.00003
1.00005
1.00016
1.00029
1.00091
1.00168
1.00495
1.01043
1.02677
1.07262
1.15991
1.50295
2.27875
2.63623
2.72729
2.72094
2.71674
2.73049
2.74247
2.75413
2.76237
2.77083
2.77478
2.77711
1
1.00002
1.00005
1.00015
1.00027
1.00086
1.0016
1.00472
1.00985
1.02547
1.06834
1.15188
1.47047
2.22055
2.61716
2.7232
2.7162
2.71082
2.72374
2.7364
2.74926
2.75523
2.76073
2.76744
2.7667
1
1.00002
1.00004
1.00014
1.00026
1.00082
1.00149
1.0045
1.00911
1.02418
1.06242
1.14211
1.42683
2.14109
2.5902
2.71754
2.71093
2.70176
2.71578
2.72346
2.73821
2.74705
2.75281
2.75536
2.75701
1
1.00002
1.00004
1.00013
1.00024
1.00076
1.00138
1.00431
1.00825
1.0232
1.05457
1.13056
1.37449
2.03916
2.55406
2.70854
2.70219
2.69224
2.70741
2.71578
2.72344
2.73003
2.73663
2.74007
2.73672
1
1.00002
1.00004
1.00012
1.00022
1.00069
1.00125
1.00388
1.0074
1.02113
1.04762
1.11842
1.32222
1.92472
2.50498
2.69004
2.68063
2.67224
2.68794
2.70158
2.71238
2.71416
2.71779
2.71726
2.71372
1
1.00002
1.00003
1.00011
1.00019
1.00062
1.00112
1.00349
1.00662
1.01907
1.04216
1.10647
1.28333
1.82179
2.47711
2.68061
2.67189
2.65715
2.67171
2.67711
2.68929
2.69161
2.691
2.68539
2.66236
1
1.00001
1.00003
1.00009
1.00017
1.00052
1.00097
1.00291
1.00586
1.01562
1.03883
1.09033
1.25963
1.69977
2.42191
2.65503
2.65278
2.65256
2.65559
2.66266
2.66585
2.66513
2.65649
2.63541
2.58572
1
1.00003
1.00005
1.00017
1.00031
1.00099
1.00183
1.00546
1.01124
1.02949
1.07842
1.1759
1.53387
2.34525
2.66042
2.73041
2.72498
2.72227
2.73679
2.74878
2.7627
2.77158
2.77965
2.78594
2.78888
1
1.00003
1.00005
1.00017
1.00031
1.00098
1.0018
1.00537
1.01111
1.02904
1.0775
1.17334
1.52935
2.33554
2.65729
2.73037
2.72476
2.72193
2.73632
2.74816
2.7619
2.77027
2.77834
2.78373
2.78582
1
1.00003
1.00005
1.00017
1.0003
1.00095
1.00176
1.00521
1.01084
1.02815
1.07557
1.16808
1.51908
2.31349
2.64913
2.72922
2.72328
2.72015
2.73445
2.74604
2.75958
2.76813
2.77505
2.78108
2.78195
1
1.00003
1.00005
1.00016
1.00029
1.00091
1.00168
1.00495
1.01043
1.02677
1.07262
1.15991
1.50295
2.27875
2.63623
2.72729
2.72094
2.71674
2.73049
2.74247
2.75413
2.76237
2.77083
2.77478
2.77711
1
1.00002
1.00005
1.00015
1.00027
1.00086
1.0016
1.00472
1.00985
1.02547
1.06834
1.15188
1.47047
2.22055
2.61716
2.7232
2.7162
2.71082
2.72374
2.7364
2.74926
2.75523
2.76073
2.76744
2.7667
1
1.00002
1.00004
1.00014
1.00026
1.00082
1.00149
1.0045
1.00911
1.02418
1.06242
1.14211
1.42683
2.14109
2.5902
2.71754
2.71093
2.70176
2.71578
2.72346
2.73821
2.74705
2.75281
2.75536
2.75701
1
1.00002
1.00004
1.00013
1.00024
1.00076
1.00138
1.00431
1.00825
1.0232
1.05457
1.13056
1.37449
2.03916
2.55406
2.70854
2.70219
2.69224
2.70741
2.71578
2.72344
2.73003
2.73663
2.74007
2.73672
1
1.00002
1.00004
1.00012
1.00022
1.00069
1.00125
1.00388
1.0074
1.02113
1.04762
1.11842
1.32222
1.92472
2.50498
2.69004
2.68063
2.67224
2.68794
2.70158
2.71238
2.71416
2.71779
2.71726
2.71372
1
1.00002
1.00003
1.00011
1.00019
1.00062
1.00112
1.00349
1.00662
1.01907
1.04216
1.10647
1.28333
1.82179
2.47711
2.68061
2.67189
2.65715
2.67171
2.67711
2.68929
2.69161
2.691
2.68539
2.66236
1
1.00001
1.00003
1.00009
1.00017
1.00052
1.00097
1.00291
1.00586
1.01562
1.03883
1.09033
1.25963
1.69977
2.42191
2.65503
2.65278
2.65256
2.65559
2.66266
2.66585
2.66513
2.65649
2.63541
2.58572
1
1.00003
1.00005
1.00017
1.00031
1.00099
1.00183
1.00546
1.01124
1.02949
1.07842
1.1759
1.53387
2.34525
2.66042
2.73041
2.72498
2.72227
2.73679
2.74878
2.7627
2.77158
2.77965
2.78594
2.78888
1
1.00003
1.00005
1.00017
1.00031
1.00098
1.0018
1.00537
1.01111
1.02904
1.0775
1.17334
1.52935
2.33554
2.65729
2.73037
2.72476
2.72193
2.73632
2.74816
2.7619
2.77027
2.77834
2.78373
2.78582
1
1.00003
1.00005
1.00017
1.0003
1.00095
1.00176
1.00521
1.01084
1.02815
1.07557
1.16808
1.51908
2.3135
2.64913
2.72922
2.72328
2.72015
2.73445
2.74604
2.75958
2.76813
2.77505
2.78108
2.78195
1
1.00003
1.00005
1.00016
1.00029
1.00091
1.00168
1.00495
1.01043
1.02677
1.07262
1.15991
1.50295
2.27875
2.63623
2.72729
2.72094
2.71674
2.73049
2.74247
2.75413
2.76237
2.77083
2.77478
2.77711
1
1.00002
1.00005
1.00015
1.00027
1.00086
1.0016
1.00472
1.00985
1.02547
1.06834
1.15188
1.47047
2.22056
2.61716
2.7232
2.7162
2.71082
2.72374
2.7364
2.74926
2.75523
2.76073
2.76744
2.7667
1
1.00002
1.00004
1.00014
1.00026
1.00082
1.00149
1.0045
1.00911
1.02418
1.06242
1.14211
1.42683
2.14109
2.5902
2.71754
2.71093
2.70176
2.71578
2.72346
2.73821
2.74705
2.75281
2.75536
2.75701
1
1.00002
1.00004
1.00013
1.00024
1.00076
1.00138
1.00431
1.00825
1.0232
1.05457
1.13056
1.37449
2.03917
2.55406
2.70854
2.70219
2.69224
2.70741
2.71578
2.72344
2.73003
2.73663
2.74007
2.73672
1
1.00002
1.00004
1.00012
1.00022
1.00069
1.00125
1.00388
1.0074
1.02113
1.04762
1.11842
1.32222
1.92473
2.50498
2.69004
2.68063
2.67224
2.68794
2.70158
2.71238
2.71416
2.71779
2.71726
2.71372
1
1.00002
1.00003
1.00011
1.00019
1.00062
1.00112
1.00349
1.00662
1.01907
1.04216
1.10647
1.28333
1.8218
2.47711
2.68061
2.67189
2.65715
2.67171
2.67711
2.68929
2.69161
2.691
2.68539
2.66236
1
1.00001
1.00003
1.00009
1.00017
1.00052
1.00097
1.00291
1.00586
1.01562
1.03883
1.09033
1.25963
1.69977
2.42191
2.65503
2.65278
2.65256
2.65559
2.66266
2.66585
2.66513
2.65649
2.63541
2.58572
1
1.00003
1.00005
1.00017
1.00031
1.00099
1.00183
1.00546
1.01124
1.02949
1.07842
1.1759
1.53387
2.34525
2.66042
2.73041
2.72498
2.72227
2.73679
2.74878
2.7627
2.77158
2.77965
2.78594
2.78888
1
1.00003
1.00005
1.00017
1.00031
1.00098
1.0018
1.00537
1.01111
1.02904
1.0775
1.17334
1.52935
2.33554
2.65729
2.73037
2.72476
2.72193
2.73632
2.74816
2.7619
2.77027
2.77834
2.78373
2.78582
1
1.00003
1.00005
1.00017
1.0003
1.00095
1.00176
1.00521
1.01084
1.02815
1.07557
1.16808
1.51908
2.3135
2.64913
2.72922
2.72328
2.72015
2.73445
2.74604
2.75958
2.76813
2.77505
2.78108
2.78195
1
1.00003
1.00005
1.00016
1.00029
1.00091
1.00168
1.00495
1.01043
1.02677
1.07262
1.15991
1.50295
2.27875
2.63623
2.72729
2.72094
2.71674
2.73049
2.74247
2.75413
2.76237
2.77083
2.77478
2.77711
1
1.00002
1.00005
1.00015
1.00027
1.00086
1.0016
1.00472
1.00985
1.02547
1.06834
1.15188
1.47047
2.22056
2.61716
2.7232
2.7162
2.71082
2.72374
2.7364
2.74926
2.75523
2.76073
2.76744
2.7667
1
1.00002
1.00004
1.00014
1.00026
1.00082
1.00149
1.0045
1.00911
1.02418
1.06242
1.14211
1.42683
2.14109
2.5902
2.71754
2.71093
2.70176
2.71578
2.72346
2.73821
2.74705
2.75281
2.75536
2.75701
1
1.00002
1.00004
1.00013
1.00024
1.00076
1.00138
1.00431
1.00825
1.0232
1.05457
1.13056
1.37449
2.03917
2.55406
2.70854
2.70219
2.69224
2.70741
2.71578
2.72344
2.73003
2.73663
2.74007
2.73672
1
1.00002
1.00004
1.00012
1.00022
1.00069
1.00125
1.00388
1.0074
1.02113
1.04762
1.11842
1.32222
1.92473
2.50498
2.69004
2.68063
2.67224
2.68794
2.70158
2.71238
2.71416
2.71779
2.71726
2.71372
1
1.00002
1.00003
1.00011
1.00019
1.00062
1.00112
1.00349
1.00662
1.01907
1.04216
1.10647
1.28333
1.8218
2.47711
2.68061
2.67189
2.65715
2.67171
2.67711
2.68929
2.69161
2.691
2.68539
2.66236
1
1.00001
1.00003
1.00009
1.00017
1.00052
1.00097
1.00291
1.00586
1.01562
1.03883
1.09033
1.25963
1.69977
2.42191
2.65503
2.65278
2.65256
2.65559
2.66266
2.66585
2.66513
2.65649
2.63541
2.58572
1
1.00003
1.00005
1.00017
1.00031
1.00099
1.00183
1.00546
1.01124
1.02949
1.07842
1.1759
1.53387
2.34525
2.66042
2.73041
2.72498
2.72227
2.73679
2.74878
2.7627
2.77158
2.77965
2.78594
2.78888
1
1.00003
1.00005
1.00017
1.00031
1.00098
1.0018
1.00537
1.01111
1.02904
1.0775
1.17334
1.52935
2.33554
2.65729
2.73037
2.72476
2.72193
2.73632
2.74816
2.7619
2.77027
2.77834
2.78373
2.78582
1
1.00003
1.00005
1.00017
1.0003
1.00095
1.00176
1.00521
1.01084
1.02815
1.07557
1.16808
1.51908
2.3135
2.64913
2.72922
2.72328
2.72015
2.73445
2.74604
2.75958
2.76813
2.77505
2.78108
2.78195
1
1.00003
1.00005
1.00016
1.00029
1.00091
1.00168
1.00495
1.01043
1.02677
1.07262
1.15991
1.50295
2.27875
2.63623
2.72729
2.72094
2.71674
2.73049
2.74247
2.75413
2.76237
2.77083
2.77478
2.77711
1
1.00002
1.00005
1.00015
1.00027
1.00086
1.0016
1.00472
1.00985
1.02547
1.06834
1.15188
1.47047
2.22055
2.61716
2.7232
2.7162
2.71082
2.72374
2.7364
2.74926
2.75523
2.76073
2.76744
2.7667
1
1.00002
1.00004
1.00014
1.00026
1.00082
1.00149
1.0045
1.00911
1.02418
1.06242
1.14211
1.42683
2.14109
2.5902
2.71754
2.71093
2.70176
2.71578
2.72346
2.73821
2.74705
2.75281
2.75536
2.75701
1
1.00002
1.00004
1.00013
1.00024
1.00076
1.00138
1.00431
1.00825
1.0232
1.05457
1.13056
1.37449
2.03916
2.55406
2.70854
2.70219
2.69224
2.70741
2.71578
2.72344
2.73003
2.73663
2.74007
2.73672
1
1.00002
1.00004
1.00012
1.00022
1.00069
1.00125
1.00388
1.0074
1.02113
1.04762
1.11842
1.32222
1.92472
2.50498
2.69004
2.68063
2.67224
2.68794
2.70158
2.71238
2.71416
2.71779
2.71726
2.71372
1
1.00002
1.00003
1.00011
1.00019
1.00062
1.00112
1.00349
1.00662
1.01907
1.04216
1.10647
1.28333
1.82179
2.47711
2.68061
2.67189
2.65715
2.67171
2.67711
2.68929
2.69161
2.691
2.68539
2.66236
1
1.00001
1.00003
1.00009
1.00017
1.00052
1.00097
1.00291
1.00586
1.01562
1.03883
1.09033
1.25963
1.69977
2.42191
2.65503
2.65278
2.65256
2.65559
2.66266
2.66585
2.66513
2.65649
2.63541
2.58572
1
1.00003
1.00005
1.00017
1.00031
1.00099
1.00183
1.00546
1.01124
1.02949
1.07842
1.1759
1.53387
2.34525
2.66042
2.73041
2.72498
2.72227
2.73679
2.74878
2.7627
2.77158
2.77965
2.78594
2.78888
1
1.00003
1.00005
1.00017
1.00031
1.00098
1.0018
1.00537
1.01111
1.02904
1.0775
1.17334
1.52935
2.33554
2.65729
2.73037
2.72476
2.72193
2.73632
2.74816
2.7619
2.77027
2.77834
2.78373
2.78582
1
1.00003
1.00005
1.00017
1.0003
1.00095
1.00176
1.00521
1.01084
1.02815
1.07557
1.16808
1.51908
2.3135
2.64913
2.72922
2.72328
2.72015
2.73445
2.74604
2.75958
2.76813
2.77505
2.78108
2.78195
1
1.00003
1.00005
1.00016
1.00029
1.00091
1.00168
1.00495
1.01043
1.02677
1.07262
1.15991
1.50295
2.27875
2.63623
2.72729
2.72094
2.71674
2.73049
2.74247
2.75413
2.76237
2.77083
2.77478
2.77711
1
1.00002
1.00005
1.00015
1.00027
1.00086
1.0016
1.00472
1.00985
1.02547
1.06834
1.15188
1.47047
2.22055
2.61716
2.7232
2.7162
2.71082
2.72374
2.7364
2.74926
2.75523
2.76073
2.76744
2.7667
1
1.00002
1.00004
1.00014
1.00026
1.00082
1.00149
1.0045
1.00911
1.02418
1.06242
1.14211
1.42683
2.14109
2.5902
2.71754
2.71093
2.70176
2.71578
2.72346
2.73821
2.74705
2.75281
2.75536
2.75701
1
1.00002
1.00004
1.00013
1.00024
1.00076
1.00138
1.00431
1.00825
1.0232
1.05457
1.13056
1.37449
2.03916
2.55406
2.70854
2.70219
2.69224
2.70741
2.71578
2.72344
2.73003
2.73663
2.74007
2.73672
1
1.00002
1.00004
1.00012
1.00022
1.00069
1.00125
1.00388
1.0074
1.02113
1.04762
1.11842
1.32222
1.92472
2.50498
2.69004
2.68063
2.67224
2.68794
2.70158
2.71238
2.71416
2.71779
2.71726
2.71372
1
1.00002
1.00003
1.00011
1.00019
1.00062
1.00112
1.00349
1.00662
1.01907
1.04216
1.10647
1.28333
1.82179
2.47711
2.68061
2.67189
2.65715
2.67171
2.67711
2.68929
2.69161
2.691
2.68539
2.66236
1
1.00001
1.00003
1.00009
1.00017
1.00052
1.00097
1.00291
1.00586
1.01562
1.03883
1.09033
1.25963
1.69977
2.42191
2.65503
2.65278
2.65256
2.65559
2.66266
2.66585
2.66513
2.65649
2.63541
2.58572
1
1.00003
1.00005
1.00017
1.00031
1.00099
1.00183
1.00546
1.01124
1.02949
1.07842
1.1759
1.53387
2.34524
2.66042
2.73041
2.72498
2.72227
2.73679
2.74878
2.7627
2.77158
2.77965
2.78594
2.78888
1
1.00003
1.00005
1.00017
1.00031
1.00098
1.0018
1.00537
1.01111
1.02904
1.0775
1.17334
1.52935
2.33554
2.65729
2.73037
2.72476
2.72193
2.73632
2.74816
2.7619
2.77027
2.77834
2.78373
2.78582
1
1.00003
1.00005
1.00017
1.0003
1.00095
1.00176
1.00521
1.01084
1.02815
1.07557
1.16808
1.51908
2.31349
2.64913
2.72922
2.72328
2.72015
2.73445
2.74604
2.75958
2.76813
2.77505
2.78108
2.78195
1
1.00003
1.00005
1.00016
1.00029
1.00091
1.00168
1.00495
1.01043
1.02677
1.07262
1.15991
1.50295
2.27875
2.63623
2.72729
2.72094
2.71674
2.73049
2.74247
2.75413
2.76237
2.77083
2.77478
2.77711
1
1.00002
1.00005
1.00015
1.00027
1.00086
1.0016
1.00472
1.00985
1.02547
1.06834
1.15188
1.47047
2.22055
2.61716
2.7232
2.7162
2.71082
2.72374
2.7364
2.74926
2.75523
2.76073
2.76744
2.7667
1
1.00002
1.00004
1.00014
1.00026
1.00082
1.00149
1.0045
1.00911
1.02418
1.06242
1.14211
1.42683
2.14108
2.5902
2.71754
2.71093
2.70176
2.71578
2.72346
2.73821
2.74704
2.75281
2.75536
2.75701
1
1.00002
1.00004
1.00013
1.00024
1.00076
1.00138
1.00431
1.00825
1.02319
1.05457
1.13056
1.37448
2.03916
2.55406
2.70854
2.70219
2.69224
2.70741
2.71578
2.72344
2.73002
2.73663
2.74007
2.73671
1
1.00002
1.00004
1.00012
1.00022
1.00069
1.00125
1.00388
1.0074
1.02113
1.04762
1.11842
1.32222
1.92472
2.50498
2.69004
2.68063
2.67224
2.68794
2.70158
2.71238
2.71416
2.71779
2.71726
2.71372
1
1.00002
1.00003
1.00011
1.00019
1.00062
1.00112
1.00349
1.00662
1.01907
1.04216
1.10647
1.28333
1.82179
2.47711
2.68061
2.67189
2.65715
2.67171
2.67711
2.68929
2.69161
2.691
2.68539
2.66236
1
1.00001
1.00003
1.00009
1.00017
1.00052
1.00097
1.00291
1.00586
1.01562
1.03883
1.09033
1.25962
1.69976
2.4219
2.65502
2.65278
2.65256
2.65559
2.66266
2.66585
2.66513
2.65648
2.63541
2.58572
0.999996
1.00002
1.00004
1.00016
1.0003
1.00099
1.00182
1.00545
1.01123
1.02947
1.0784
1.17585
1.53383
2.34512
2.66034
2.73034
2.72491
2.7222
2.73672
2.74871
2.76262
2.7715
2.77957
2.78586
2.78879
0.999996
1.00002
1.00004
1.00016
1.0003
1.00097
1.0018
1.00536
1.0111
1.02903
1.07749
1.1733
1.52932
2.33542
2.65722
2.7303
2.72469
2.72186
2.73624
2.74809
2.76182
2.77019
2.77826
2.78365
2.78574
0.999996
1.00002
1.00004
1.00016
1.00029
1.00094
1.00175
1.0052
1.01083
1.02813
1.07556
1.16804
1.51904
2.31337
2.64905
2.72916
2.72321
2.72008
2.73438
2.74597
2.7595
2.76805
2.77497
2.781
2.78187
0.999995
1.00002
1.00004
1.00015
1.00028
1.0009
1.00168
1.00494
1.01042
1.02676
1.07261
1.15986
1.50291
2.27863
2.63616
2.72722
2.72088
2.71667
2.73042
2.74239
2.75405
2.76229
2.77076
2.7747
2.77703
0.999995
1.00002
1.00004
1.00014
1.00026
1.00086
1.00159
1.00471
1.00984
1.02545
1.06833
1.15184
1.47043
2.22042
2.61709
2.72314
2.71614
2.71075
2.72367
2.73633
2.74919
2.75515
2.76066
2.76736
2.76662
0.999995
1.00002
1.00004
1.00013
1.00025
1.00081
1.00149
1.00449
1.00911
1.02416
1.06242
1.14208
1.42683
2.14099
2.59014
2.71747
2.71087
2.70169
2.71571
2.72339
2.73814
2.74697
2.75273
2.75528
2.75694
0.999995
1.00001
1.00003
1.00012
1.00023
1.00076
1.00137
1.0043
1.00824
1.02318
1.05457
1.13053
1.37447
2.03906
2.554
2.70848
2.70213
2.69217
2.70735
2.71571
2.72337
2.72996
2.73656
2.74
2.73664
0.999995
1.00001
1.00003
1.00011
1.00021
1.00068
1.00124
1.00387
1.00739
1.02111
1.0476
1.11839
1.3222
1.92462
2.50492
2.68997
2.68056
2.67218
2.68788
2.70151
2.71232
2.71409
2.71772
2.71718
2.71365
0.999995
1.00001
1.00002
1.0001
1.00019
1.00061
1.00111
1.00348
1.00661
1.01906
1.04215
1.10645
1.28331
1.8217
2.47708
2.68055
2.67182
2.65708
2.67165
2.67704
2.68923
2.69155
2.69094
2.68533
2.6623
0.999994
1.00001
1.00002
1.00008
1.00016
1.00052
1.00096
1.0029
1.00585
1.01559
1.03883
1.09031
1.25965
1.69967
2.42186
2.65497
2.65274
2.6525
2.65552
2.66259
2.66579
2.66507
2.65643
2.63536
2.58567
0.999996
1
1.00003
1.00005
1.00019
1.00035
1.00109
1.00208
1.00601
1.01293
1.03306
1.08974
1.20233
1.59593
2.41213
2.60857
2.63062
2.63385
2.63442
2.64091
2.6405
2.63334
2.61335
2.56402
2.38694
0.999996
1
1.00002
1.00005
1.00016
1.0003
1.00097
1.00179
1.00539
1.01098
1.02904
1.0761
1.17171
1.51571
2.29719
2.57509
2.62964
2.62111
2.61472
2.61566
2.61351
2.59971
2.56533
2.50423
2.32348
0.999995
0.999999
1.00002
1.00004
1.00014
1.00025
1.00082
1.00152
1.00449
1.00933
1.02418
1.0642
1.14331
1.43628
2.13552
2.50898
2.62202
2.61282
2.59648
2.58909
2.58316
2.56805
2.52878
2.47007
2.32046
0.999995
0.999998
1.00001
1.00003
1.00012
1.00022
1.0007
1.00128
1.00399
1.00761
1.02162
1.04933
1.12047
1.33442
1.93465
2.42173
2.60192
2.59511
2.58666
2.56646
2.55088
2.52702
2.4917
2.44756
2.3311
0.999995
0.999997
1.00001
1.00002
1.00009
1.00017
1.00056
1.00104
1.00321
1.00619
1.01769
1.03868
1.10072
1.2521
1.77652
2.29868
2.55393
2.56276
2.56588
2.55573
2.53254
2.5058
2.45066
2.41506
2.33295
0.999994
0.999998
1
1.00002
1.00005
1.00018
1.00034
1.00106
1.002
1.00577
1.01233
1.03142
1.08474
1.18833
1.55974
2.2989
2.49328
2.52253
2.52214
2.52303
2.51338
2.49221
2.44029
2.38961
2.3268
0.999994
0.999997
1
1.00002
1.00004
1.00015
1.00027
1.00086
1.00159
1.0047
1.00976
1.0252
1.06688
1.14828
1.45256
2.14747
2.44466
2.51471
2.49991
2.49439
2.4819
2.46648
2.43133
2.37972
2.32271
0.999994
0.999995
0.999998
1.00001
1.00003
1.00011
1.00021
1.00068
1.00126
1.00388
1.00751
1.0211
1.04839
1.11914
1.32388
1.92878
2.32669
2.48928
2.48536
2.47614
2.45612
2.43765
2.41155
2.36635
2.3136
0.999993
0.999994
0.999998
1
1.00003
1.00006
1.00021
1.00039
1.0012
1.00228
1.00661
1.01394
1.03587
1.09249
1.22036
1.58181
2.26198
2.44084
2.4534
2.44877
2.43654
2.41083
2.394
2.35906
2.31084
0.999992
0.999993
0.999996
1
1.00002
1.00004
1.00015
1.00029
1.00089
1.0017
1.00483
1.01046
1.02617
1.07128
1.15548
1.47586
2.14401
2.39028
2.4343
2.42351
2.41128
2.38638
2.35917
2.33742
2.30364
0.999992
0.999993
0.999994
1
1.00001
1.00004
1.00008
1.00026
1.0005
1.00142
1.00311
1.00768
1.02048
1.0456
1.13564
1.30336
1.85944
2.28243
2.41416
2.41017
2.3984
2.37727
2.34738
2.31568
2.28923
0.999992
0.999992
0.999993
0.999998
1
1.00003
1.00006
1.0002
1.00038
1.00119
1.0022
1.0066
1.01329
1.03517
1.08716
1.21074
1.54667
2.18585
2.35617
2.37582
2.37064
2.35599
2.32982
2.29923
2.2679
0.999991
0.999992
0.999993
0.999995
1
1.00001
1.00005
1.0001
1.00034
1.00064
1.00188
1.00386
1.01001
1.02498
1.05758
1.16598
1.3864
1.96203
2.30127
2.36026
2.35695
2.34046
2.31828
2.28961
2.26016
0.999991
0.999991
0.999992
0.999993
0.999999
1.00001
1.00004
1.00007
1.00025
1.00046
1.00143
1.00268
1.00768
1.01649
1.04124
1.11102
1.25404
1.66589
2.15109
2.32665
2.32955
2.32044
2.30042
2.27246
2.24503
0.999991
0.999991
0.999992
0.999993
0.999995
1
1.00002
1.00007
1.00013
1.00042
1.00078
1.00235
1.00458
1.01281
1.02793
1.07132
1.17477
1.49323
1.9886
2.26309
2.30808
2.30503
2.29113
2.26403
2.23461
0.999991
0.999991
0.999991
0.999992
0.999994
1
1.00001
1.00004
1.00009
1.00029
1.00053
1.00164
1.00308
1.00875
1.01892
1.04699
1.12541
1.29403
1.74349
2.13576
2.26471
2.27396
2.26915
2.25497
2.2284
0.999991
0.999991
0.999991
0.999992
0.999993
0.999996
1.00001
1.00002
1.00007
1.00015
1.00046
1.00087
1.00257
1.00504
1.014
1.03015
1.07892
1.18417
1.54805
1.97436
2.20779
2.24183
2.24087
2.23138
2.21296
0.999991
0.999991
0.999991
0.999991
0.999993
0.999994
1
1.00001
1.00005
1.00009
1.00031
1.00057
1.00175
1.00328
1.00948
1.01987
1.05012
1.12745
1.31316
1.75094
2.10068
2.21002
2.22046
2.21487
2.20281
0.999991
0.999991
0.999991
0.999991
0.999992
0.999993
0.999996
1.00001
1.00002
1.00008
1.00015
1.00047
1.00089
1.00261
1.00518
1.01418
1.03058
1.08062
1.18408
1.56464
1.92103
2.14378
2.17889
2.18947
2.18286
0.999991
0.999991
0.999991
0.999991
0.999991
0.999992
0.999995
0.999999
1.00001
1.00003
1.00012
1.00023
1.00071
1.00136
1.00382
1.00811
1.02017
1.05266
1.11406
1.33472
1.79985
2.06299
2.14534
2.15723
2.15385
0.999991
0.999991
0.999991
0.999991
0.999991
0.999992
0.999994
0.999996
1.00001
1.00002
1.00008
1.00015
1.00047
1.00088
1.00264
1.00502
1.01428
1.02942
1.07903
1.17752
1.54289
1.89569
2.1034
2.13056
2.13436
0.999991
0.999991
0.999991
0.999991
0.999991
0.999991
0.999992
0.999995
0.999998
1.00001
1.00003
1.00012
1.00022
1.00069
1.0013
1.00368
1.00767
1.01936
1.04945
1.10902
1.30954
1.75419
2.01632
2.10459
2.10912
0.999991
0.999991
0.999991
0.999991
0.999991
0.999991
0.999992
0.999993
0.999996
1.00001
1.00002
1.00007
1.00014
1.00045
1.00082
1.00248
1.00465
1.01333
1.02705
1.07251
1.16228
1.4806
1.85636
2.06145
2.09096
0.999991
0.999991
0.999991
0.999991
0.999991
0.999991
0.999991
0.999992
0.999994
1
1.00001
1.00004
1.00008
1.00027
1.0005
1.00154
1.00282
1.00828
1.01659
1.04275
1.10401
1.24876
1.61349
1.94275
2.06073
0.999991
0.999991
0.999991
0.999991
0.999991
0.999991
0.999991
0.999992
0.999993
0.999996
1
1.00002
1.00005
1.00016
1.0003
1.00092
1.00169
1.00502
1.0097
1.02593
1.06069
1.14005
1.37147
1.81282
1.99643
0.999991
0.999991
0.999991
0.999991
0.999991
0.999991
0.999991
0.999991
0.999992
0.999993
0.999998
1
1.00003
1.00007
1.00022
1.00042
1.00124
1.00237
1.00655
1.01394
1.03452
1.08754
1.19934
1.50843
1.87105
0.999991
0.999991
0.999991
0.999991
0.999991
0.999991
0.999991
0.999991
0.999991
0.999993
0.999994
1
1.00001
1.00005
1.0001
1.00031
1.0006
1.00175
1.00342
1.00936
1.01991
1.0507
1.11724
1.32076
1.66131
0.999991
0.999991
0.999991
0.999991
0.999991
0.999991
0.999991
0.999991
0.999991
0.999992
0.999993
0.999996
1.00001
1.00002
1.00007
1.00014
1.00044
1.00083
1.0024
1.00469
1.01272
1.02711
1.06918
1.15837
1.45071
0.999991
0.999991
0.999991
0.999991
0.999991
0.999991
0.999991
0.999991
0.999991
0.999991
0.999992
0.999994
1
1.00001
1.00004
1.00008
1.00026
1.00048
1.00145
1.00271
1.0077
1.01571
1.03945
1.09414
1.22526
0.999991
0.999991
0.999991
0.999991
0.999991
0.999991
0.999991
0.999991
0.999991
0.999991
0.999991
0.999993
0.999995
1
1.00001
1.00006
1.00012
1.00036
1.00069
1.00199
1.00389
1.0107
1.02216
1.05884
1.12823
0.999991
0.999991
0.999991
0.999991
0.999991
0.999991
0.999991
0.999991
0.999991
0.999991
0.999991
0.999992
0.999994
0.999997
1.00001
1.00002
1.00009
1.00018
1.00054
1.00102
1.00296
1.00581
1.01572
1.03414
1.08584
0.999991
0.999991
0.999991
0.999991
0.999991
0.999991
0.999991
0.999991
0.999991
0.999991
0.999991
0.999992
0.999993
0.999996
1
1.00002
1.00005
1.00016
1.00031
1.00096
1.00178
1.0053
1.01045
1.02812
1.06664
0.999991
0.999991
0.999991
0.999991
0.999991
0.999991
0.999991
0.999991
0.999991
0.999991
0.999991
0.999991
0.999992
0.999995
0.999999
1.00002
1.00004
1.00014
1.00026
1.00081
1.00153
1.00454
1.00943
1.02443
1.06494
0.999991
0.999991
0.999991
0.999991
0.999991
0.999991
0.999991
0.999991
0.999991
0.999991
0.999991
0.999991
0.999992
0.999994
0.999999
1.00001
1.00004
1.00008
1.00026
1.00056
1.00142
1.00372
1.00841
1.02473
1.05246
0.999991
0.999991
0.999991
0.999991
0.999991
0.999991
0.999991
0.999991
0.999991
0.999991
0.999991
0.999991
0.999992
0.999994
0.999998
1.00001
1.00003
1.00011
1.00022
1.00067
1.00144
1.00366
1.00954
1.02187
1.06586
0.999991
0.999991
0.999991
0.999991
0.999991
0.999991
0.999991
0.999991
0.999991
0.999991
0.999991
0.999991
0.999992
0.999993
0.999999
1.00001
1.00004
1.00008
1.00023
1.00054
1.00131
1.00362
1.00806
1.02434
1.05125
0.999991
0.999991
0.999991
0.999991
0.999991
0.999991
0.999991
0.999991
0.999991
0.999991
0.999991
0.999991
0.999992
0.999994
0.999997
1.00001
1.00003
1.00011
1.00022
1.00069
1.00137
1.00384
1.00895
1.02194
1.06397
0.999991
0.999991
0.999991
0.999991
0.999991
0.999991
0.999991
0.999991
0.999991
0.999991
0.999991
0.999991
0.999992
0.999994
0.999997
1.00001
1.00003
1.00011
1.00021
1.00069
1.00134
1.00379
1.00876
1.02156
1.06265
0.999991
0.999991
0.999991
0.999991
0.999991
0.999991
0.999991
0.999991
0.999991
0.999991
0.999991
0.999991
0.999992
0.999993
0.999999
1.00001
1.00004
1.00008
1.00026
1.00052
1.00141
1.00338
1.00808
1.02334
1.05119
0.999991
0.999991
0.999991
0.999991
0.999991
0.999991
0.999991
0.999991
0.999991
0.999991
0.999991
0.999991
0.999992
0.999993
0.999999
1.00001
1.00004
1.00008
1.00028
1.00052
1.00161
1.00327
1.00867
1.02238
1.05181
1
1.00001
1.00003
1.00006
1.00019
1.00036
1.0011
1.00209
1.00602
1.01294
1.03308
1.08977
1.20236
1.59596
2.41221
2.60864
2.63065
2.6339
2.63447
2.64098
2.64057
2.6334
2.61341
2.56407
2.38698
1
1.00001
1.00003
1.00005
1.00017
1.00031
1.00098
1.0018
1.0054
1.01099
1.02906
1.07611
1.17174
1.51572
2.29726
2.57517
2.62968
2.62115
2.61477
2.61572
2.61357
2.59977
2.56539
2.50428
2.32352
1
1.00001
1.00002
1.00005
1.00015
1.00026
1.00083
1.00153
1.0045
1.00934
1.02419
1.06421
1.14334
1.4363
2.1356
2.50905
2.62208
2.61287
2.59652
2.58914
2.58321
2.56811
2.52883
2.47011
2.3205
1
1.00001
1.00002
1.00004
1.00012
1.00022
1.00071
1.00129
1.004
1.00762
1.02163
1.04934
1.1205
1.33445
1.93472
2.4218
2.60198
2.59517
2.58671
2.5665
2.55092
2.52707
2.49175
2.4476
2.33114
1
1
1.00002
1.00003
1.0001
1.00018
1.00057
1.00105
1.00322
1.0062
1.0177
1.03869
1.10075
1.25211
1.77657
2.29875
2.55398
2.56282
2.56594
2.55578
2.53258
2.50583
2.45071
2.4151
2.33299
1
1.00001
1.00001
1.00003
1.00006
1.00019
1.00035
1.00107
1.00201
1.00578
1.01234
1.03144
1.08475
1.18837
1.55977
2.29896
2.49335
2.52259
2.5222
2.52309
2.51343
2.49225
2.44033
2.38965
2.32684
1
1
1.00001
1.00003
1.00005
1.00015
1.00028
1.00087
1.0016
1.00471
1.00977
1.02521
1.0669
1.14832
1.45259
2.14756
2.44473
2.51477
2.49996
2.49444
2.48195
2.46653
2.43137
2.37975
2.32274
1
1
1.00001
1.00002
1.00004
1.00012
1.00022
1.00069
1.00127
1.00389
1.00752
1.02112
1.0484
1.11917
1.3239
1.92885
2.32677
2.48933
2.48541
2.47619
2.45616
2.43769
2.4116
2.36639
2.31363
1
1
1.00001
1.00001
1.00004
1.00007
1.00022
1.0004
1.00121
1.00229
1.00662
1.01395
1.03589
1.09251
1.22039
1.58185
2.26203
2.44091