/*--------------------------------*- C++ -*----------------------------------*\
| =========                 |                                                 |
| \\      /  F ield         | OpenFOAM: The Open Source CFD Toolbox           |
|  \\    /   O peration     | Version:  4.1                                   |
|   \\  /    A nd           | Web:      www.OpenFOAM.org                      |
|    \\/     M anipulation  |                                                 |
\*---------------------------------------------------------------------------*/
FoamFile
{
    version     2.0;
    format      ascii;
    class       volVectorField;
    location    "6";
    object      U;
}
// * * * * * * * * * * * * * * * * * * * * * * * * * * * * * * * * * * * * * //

dimensions      [0 1 -1 0 0 0 0];

internalField   nonuniform List<vector> 
52500
(
(3 1.5028e-08 -0.00571426)
(2.99998 8.36359e-08 -0.0057144)
(2.99996 3.10831e-07 -0.00571462)
(2.99989 8.00528e-07 -0.0057153)
(2.99974 2.19981e-06 -0.00571655)
(2.99933 5.05947e-06 -0.00572034)
(2.99854 1.30261e-05 -0.00572774)
(2.99603 2.97338e-05 -0.00574786)
(2.99167 7.40428e-05 -0.00579692)
(2.97516 0.000166975 -0.00589581)
(2.94594 0.000448986 -0.0062748)
(2.83586 0.00104865 -0.00680938)
(2.53484 0.00285968 -0.0093882)
(1.81157 0.00758948 -0.0142251)
(0.808732 0.0213868 -0.0177446)
(0.492275 0.0214415 -0.018487)
(0.555181 0.0227226 -0.0185042)
(0.572294 0.0249883 -0.018549)
(0.522839 0.0271739 -0.0187323)
(0.435557 0.0292593 -0.0189143)
(0.348929 0.031843 -0.019115)
(0.277945 0.0350677 -0.0192844)
(0.207209 0.0385762 -0.0194556)
(0.125448 0.0428259 -0.0196226)
(0.0557219 0.049228 -0.0197755)
(3 4.51046e-08 -0.00571426)
(2.99998 2.50469e-07 -0.0057144)
(2.99996 9.32476e-07 -0.00571461)
(2.99989 2.399e-06 -0.00571528)
(2.99975 6.60699e-06 -0.00571651)
(2.99934 1.51885e-05 -0.00572025)
(2.99856 3.92571e-05 -0.00572755)
(2.99608 8.94415e-05 -0.00574733)
(2.99179 0.000224797 -0.00579587)
(2.97546 0.00050483 -0.00589294)
(2.94669 0.00137673 -0.00626796)
(2.83771 0.00320616 -0.00679215)
(2.5408 0.00895169 -0.00935278)
(1.82529 0.0237471 -0.0141355)
(0.815925 0.0657552 -0.0176401)
(0.488409 0.0627689 -0.0184152)
(0.553399 0.0638717 -0.01843)
(0.571149 0.0682081 -0.0184672)
(0.521163 0.072144 -0.0186427)
(0.433694 0.0757655 -0.0188175)
(0.347168 0.0802598 -0.0190102)
(0.275732 0.0856513 -0.0191686)
(0.203964 0.0908725 -0.019332)
(0.120963 0.0962559 -0.0194841)
(0.0512199 0.102287 -0.0196184)
(3 7.40922e-08 -0.00571426)
(2.99998 4.10447e-07 -0.00571439)
(2.99996 1.53283e-06 -0.0057146)
(2.99989 3.94292e-06 -0.00571525)
(2.99975 1.09036e-05 -0.00571645)
(2.99936 2.51021e-05 -0.00572007)
(2.9986 6.52109e-05 -0.00572718)
(2.99619 0.000149083 -0.00574629)
(2.99202 0.000376723 -0.00579378)
(2.9761 0.000847754 -0.00588729)
(2.94825 0.00234018 -0.00625394)
(2.84167 0.00544256 -0.00675791)
(2.5538 0.0154832 -0.00927769)
(1.85601 0.0410499 -0.0139573)
(0.833294 0.114394 -0.0174857)
(0.482911 0.10695 -0.0183325)
(0.552593 0.107436 -0.0183452)
(0.572208 0.114735 -0.0183736)
(0.52188 0.121815 -0.0185414)
(0.434792 0.129089 -0.0187065)
(0.349071 0.137564 -0.0188896)
(0.277622 0.147096 -0.0190406)
(0.205105 0.156466 -0.0191877)
(0.121058 0.16547 -0.0193366)
(0.0500114 0.173229 -0.0194573)
(3 9.45738e-08 -0.00571425)
(2.99998 5.22937e-07 -0.00571439)
(2.99996 1.95519e-06 -0.00571458)
(2.9999 5.01199e-06 -0.00571521)
(2.99977 1.39003e-05 -0.00571635)
(2.99939 3.18192e-05 -0.00571981)
(2.99866 8.39925e-05 -0.00572663)
(2.99634 0.000186518 -0.0057447)
(2.99237 0.000504164 -0.00579067)
(2.97707 0.0010795 -0.00587871)
(2.95062 0.00321572 -0.0062327)
(2.84781 0.0071378 -0.00670559)
(2.57391 0.0234867 -0.00916194)
(1.90355 0.059119 -0.0136902)
(0.859456 0.16593 -0.0172829)
(0.473665 0.152245 -0.0182435)
(0.551755 0.150563 -0.0182543)
(0.57526 0.160461 -0.0182677)
(0.525299 0.170704 -0.0184239)
(0.439411 0.182034 -0.0185816)
(0.355042 0.194854 -0.0187423)
(0.283991 0.209034 -0.0188817)
(0.210859 0.223274 -0.0190295)
(0.125224 0.236645 -0.0191568)
(0.0511385 0.246559 -0.0192861)
(3 1.06894e-07 -0.00571425)
(2.99999 5.90252e-07 -0.00571438)
(2.99996 2.20601e-06 -0.00571457)
(2.9999 5.62571e-06 -0.00571516)
(2.99978 1.56284e-05 -0.00571624)
(2.99942 3.5422e-05 -0.00571953)
(2.99873 9.56614e-05 -0.00572598)
(2.99653 0.000201213 -0.00574323)
(2.99277 0.000608703 -0.00578638)
(2.97832 0.00117455 -0.00587054)
(2.95343 0.00409262 -0.00620235)
(2.85717 0.0084182 -0.00665376)
(2.60248 0.0319389 -0.00893832)
(1.9708 0.0770061 -0.0132775)
(0.902213 0.218974 -0.0170087)
(0.468849 0.1988 -0.0181292)
(0.556341 0.193774 -0.0181383)
(0.58441 0.205715 -0.018137)
(0.534505 0.218831 -0.0182813)
(0.449748 0.234287 -0.0184341)
(0.366474 0.251461 -0.0185921)
(0.295672 0.270488 -0.0187053)
(0.221611 0.290225 -0.0188234)
(0.133242 0.30884 -0.0189611)
(0.0545039 0.321706 -0.0190687)
(3 1.18901e-07 -0.00571425)
(2.99999 6.57045e-07 -0.00571437)
(2.99997 2.44833e-06 -0.00571455)
(2.99991 6.23243e-06 -0.0057151)
(2.99979 1.72547e-05 -0.00571612)
(2.99945 3.88906e-05 -0.00571923)
(2.9988 0.000105995 -0.00572523)
(2.99677 0.000213513 -0.00574186)
(2.99319 0.000707521 -0.00578098)
(2.97993 0.00116387 -0.0058627)
(2.95682 0.00507065 -0.00616032)
(2.86906 0.00956992 -0.00659248)
(2.63876 0.0384457 -0.00864037)
(2.05722 0.0919761 -0.0127354)
(0.961518 0.267923 -0.0166581)
(0.470895 0.246433 -0.0179922)
(0.567919 0.238262 -0.0180053)
(0.601255 0.251261 -0.0179743)
(0.55134 0.266676 -0.0181206)
(0.467722 0.28645 -0.0182322)
(0.385052 0.308584 -0.0183921)
(0.314095 0.33339 -0.0185123)
(0.23872 0.359911 -0.0186193)
(0.146458 0.385858 -0.0187199)
(0.0604962 0.403955 -0.0188422)
(3 1.41071e-07 -0.00571425)
(2.99999 7.79832e-07 -0.00571436)
(2.99997 2.90757e-06 -0.00571453)
(2.99991 7.43731e-06 -0.00571504)
(2.9998 2.05762e-05 -0.00571599)
(2.99949 4.67998e-05 -0.00571891)
(2.99887 0.000125244 -0.00572441)
(2.99703 0.000264781 -0.00574059)
(2.99356 0.000803402 -0.00577459)
(2.9819 0.00142422 -0.00585713)
(2.96061 0.00565332 -0.00610418)
(2.88281 0.0106272 -0.00652317)
(2.68105 0.0417474 -0.00828223)
(2.16054 0.100916 -0.0120661)
(1.04188 0.305509 -0.016228)
(0.489769 0.29559 -0.0178126)
(0.589761 0.288238 -0.017829)
(0.627258 0.299958 -0.0177923)
(0.577499 0.315832 -0.017945)
(0.495313 0.33915 -0.0180517)
(0.413089 0.366596 -0.0181546)
(0.341752 0.398327 -0.0182473)
(0.264788 0.43364 -0.0183453)
(0.167619 0.470292 -0.0184364)
(0.0712988 0.498664 -0.0185203)
(3 1.58648e-07 -0.00571425)
(2.99999 8.76421e-07 -0.00571435)
(2.99997 3.26616e-06 -0.0057145)
(2.99992 8.37608e-06 -0.00571497)
(2.99982 2.31304e-05 -0.00571583)
(2.99954 5.2928e-05 -0.00571845)
(2.99898 0.00013885 -0.00572342)
(2.99733 0.000308141 -0.00573799)
(2.99416 0.000830093 -0.00576829)
(2.98392 0.00173846 -0.00584428)
(2.96466 0.00538956 -0.00605489)
(2.89712 0.0109599 -0.00644768)
(2.72435 0.0386833 -0.00792835)
(2.27413 0.0945904 -0.0113351)
(1.14884 0.290089 -0.0157178)
(0.542176 0.332659 -0.0175371)
(0.62831 0.340974 -0.0175332)
(0.663694 0.350594 -0.0175239)
(0.614343 0.366342 -0.0176824)
(0.53456 0.39319 -0.0178145)
(0.452778 0.426558 -0.0179252)
(0.381067 0.466332 -0.0179718)
(0.303207 0.512563 -0.0180318)
(0.201602 0.565257 -0.0180746)
(0.0905421 0.614766 -0.0181386)
(3 1.77688e-07 -0.00571425)
(2.99999 9.7491e-07 -0.00571434)
(2.99997 3.6252e-06 -0.00571447)
(2.99993 9.29773e-06 -0.00571489)
(2.99984 2.55971e-05 -0.00571566)
(2.99959 5.87024e-05 -0.00571801)
(2.99909 0.000152216 -0.00572246)
(2.99761 0.000345987 -0.00573557)
(2.99476 0.000858872 -0.00576253)
(2.98566 0.00205601 -0.00583142)
(2.96843 0.00492828 -0.00601642)
(2.90893 0.0117955 -0.00637347)
(2.75837 0.0332552 -0.00766825)
(2.35727 0.0825751 -0.0107167)
(1.25489 0.243998 -0.0155056)
(0.591714 0.371702 -0.0173689)
(0.651927 0.402206 -0.0173454)
(0.687477 0.401137 -0.0173095)
(0.648675 0.417129 -0.0174437)
(0.578457 0.447007 -0.0175108)
(0.501692 0.487808 -0.0176102)
(0.432484 0.536506 -0.0176376)
(0.357634 0.595941 -0.0176401)
(0.257675 0.673429 -0.0176064)
(0.127282 0.767428 -0.0174978)
(3 2.97761e-07 -0.00571425)
(2.99999 5.24476e-07 -0.00571432)
(2.99998 4.32964e-06 -0.00571444)
(2.99994 6.34234e-06 -0.00571479)
(2.99986 2.93134e-05 -0.00571546)
(2.99965 4.09389e-05 -0.00571744)
(2.99922 0.000175185 -0.00572132)
(2.99792 0.00023002 -0.00573203)
(2.99559 0.00106118 -0.0057568)
(2.98728 0.00110128 -0.00580998)
(2.9729 0.00701191 -0.00599163)
(2.91955 0.00501338 -0.00627128)
(2.78758 0.0449126 -0.00750389)
(2.43003 0.0612047 -0.0100087)
(1.39312 0.24115 -0.0150815)
(0.675273 0.429506 -0.0170884)
(0.663268 0.456037 -0.0171174)
(0.691864 0.448386 -0.0171685)
(0.67587 0.466198 -0.0172166)
(0.622127 0.497963 -0.0172764)
(0.556698 0.546512 -0.0172905)
(0.495294 0.604796 -0.017267)
(0.43335 0.683188 -0.0171748)
(0.35252 0.803306 -0.0169714)
(0.197877 1.01317 -0.0165537)
(2.99999 1.54229e-08 -2.56655e-09)
(2.99998 8.37627e-08 -8.65542e-09)
(2.99996 3.11765e-07 -1.00841e-08)
(2.99989 7.99817e-07 -1.60095e-08)
(2.99974 2.20208e-06 -1.61462e-08)
(2.99933 5.05976e-06 -2.16409e-08)
(2.99853 1.30283e-05 -2.19779e-08)
(2.99603 2.97343e-05 -2.99947e-08)
(2.99167 7.40469e-05 -3.17378e-08)
(2.97515 0.000166981 -5.80777e-08)
(2.94593 0.000449002 -7.13876e-08)
(2.83584 0.00104873 -1.64038e-07)
(2.53479 0.0028598 -1.80486e-07)
(1.81148 0.00758996 -6.08873e-07)
(0.8087 0.0213872 -6.08031e-07)
(0.492316 0.0214421 8.23969e-08)
(0.555199 0.022723 -3.38457e-10)
(0.572302 0.0249885 -6.09988e-08)
(0.522848 0.027174 -6.38168e-08)
(0.435566 0.0292595 -6.5414e-08)
(0.348938 0.0318433 -6.88391e-08)
(0.277953 0.0350682 -7.63586e-08)
(0.207214 0.0385769 -8.19392e-08)
(0.125452 0.0428271 -8.47912e-08)
(0.0557246 0.0492299 -8.74246e-08)
(2.99999 4.6211e-08 -2.55865e-09)
(2.99998 2.50987e-07 -8.6598e-09)
(2.99996 9.34976e-07 -1.00698e-08)
(2.99989 2.39734e-06 -1.60404e-08)
(2.99975 6.61307e-06 -1.60947e-08)
(2.99934 1.51896e-05 -2.16708e-08)
(2.99856 3.92635e-05 -2.19473e-08)
(2.99608 8.94446e-05 -3.00224e-08)
(2.99179 0.000224811 -3.16777e-08)
(2.97546 0.000504858 -5.80339e-08)
(2.94668 0.0013768 -7.12573e-08)
(2.83769 0.00320644 -1.62982e-07)
(2.54076 0.00895208 -1.79907e-07)
(1.8252 0.0237486 -6.05741e-07)
(0.815894 0.0657563 -6.1003e-07)
(0.48845 0.0627706 8.41434e-08)
(0.553417 0.0638727 -6.26838e-10)
(0.571157 0.0682084 -6.10883e-08)
(0.521171 0.0721442 -6.35207e-08)
(0.433704 0.0757658 -6.479e-08)
(0.347176 0.0802606 -6.80725e-08)
(0.27574 0.0856525 -7.55857e-08)
(0.20397 0.0908742 -8.12033e-08)
(0.120967 0.0962584 -8.41507e-08)
(0.0512222 0.102291 -8.70311e-08)
(3 7.5866e-08 -2.54442e-09)
(2.99998 4.11507e-07 -8.66455e-09)
(2.99996 1.53667e-06 -1.00489e-08)
(2.99989 3.93973e-06 -1.60879e-08)
(2.99975 1.09132e-05 -1.60123e-08)
(2.99936 2.51026e-05 -2.17154e-08)
(2.9986 6.52195e-05 -2.18915e-08)
(2.99618 0.000149082 -3.00469e-08)
(2.99202 0.000376741 -3.15359e-08)
(2.9761 0.000847783 -5.78074e-08)
(2.94824 0.00234027 -7.08551e-08)
(2.84166 0.00544301 -1.60371e-07)
(2.55376 0.0154839 -1.79004e-07)
(1.85591 0.0410527 -5.99669e-07)
(0.833263 0.114396 -6.18382e-07)
(0.482951 0.106953 8.75047e-08)
(0.55261 0.107438 -1.40808e-09)
(0.572214 0.114736 -6.19534e-08)
(0.521887 0.121816 -6.36305e-08)
(0.434801 0.12909 -6.39049e-08)
(0.34908 0.137566 -6.69688e-08)
(0.277629 0.147098 -7.45134e-08)
(0.205111 0.156469 -8.01967e-08)
(0.121061 0.165474 -8.32056e-08)
(0.0500134 0.173235 -8.61421e-08)
(3 9.65842e-08 -2.52318e-09)
(2.99998 5.24667e-07 -8.66987e-09)
(2.99996 1.95744e-06 -1.00203e-08)
(2.99989 5.01467e-06 -1.61745e-08)
(2.99976 1.39047e-05 -1.58731e-08)
(2.99939 3.18259e-05 -2.18131e-08)
(2.99866 8.40051e-05 -2.18192e-08)
(2.99634 0.000186556 -3.01768e-08)
(2.99237 0.000504214 -3.13749e-08)
(2.97707 0.00107973 -5.78008e-08)
(2.95061 0.00321611 -7.04144e-08)
(2.84779 0.00713895 -1.56817e-07)
(2.57387 0.0234881 -1.76687e-07)
(1.90345 0.0591237 -5.87434e-07)
(0.859424 0.165933 -6.28219e-07)
(0.473702 0.152248 9.08918e-08)
(0.551769 0.150564 -1.74716e-09)
(0.575264 0.160462 -6.34399e-08)
(0.525304 0.170705 -6.49646e-08)
(0.439417 0.182035 -6.44702e-08)
(0.355049 0.194856 -6.60662e-08)
(0.283997 0.209037 -7.27153e-08)
(0.210864 0.223278 -7.85245e-08)
(0.125227 0.236651 -8.14503e-08)
(0.0511402 0.246567 -8.4232e-08)
(3 1.08613e-07 -2.50416e-09)
(2.99998 5.92452e-07 -8.66518e-09)
(2.99996 2.20336e-06 -1.00417e-08)
(2.9999 5.63455e-06 -1.60809e-08)
(2.99978 1.561e-05 -1.59774e-08)
(2.99942 3.54056e-05 -2.16678e-08)
(2.99873 9.56012e-05 -2.17728e-08)
(2.99653 0.000200993 -2.95345e-08)
(2.99277 0.000608623 -3.1289e-08)
(2.97832 0.00117273 -5.44482e-08)
(2.95342 0.00409493 -6.76558e-08)
(2.85715 0.0084161 -1.46613e-07)
(2.60244 0.0319464 -1.77476e-07)
(1.9707 0.0770181 -5.6574e-07)
(0.902173 0.218988 -6.60232e-07)
(0.468873 0.198807 8.86968e-08)
(0.556347 0.193775 -4.81057e-09)
(0.584408 0.205714 -6.40025e-08)
(0.534505 0.21883 -6.53967e-08)
(0.44975 0.234287 -6.42116e-08)
(0.366478 0.251462 -6.53521e-08)
(0.295676 0.270491 -7.08028e-08)
(0.221615 0.29023 -7.58848e-08)
(0.133245 0.308847 -7.8543e-08)
(0.0545052 0.321716 -8.12406e-08)
(3 1.20494e-07 -2.48864e-09)
(2.99999 6.60838e-07 -8.65583e-09)
(2.99996 2.44855e-06 -1.01139e-08)
(2.99991 6.24584e-06 -1.59602e-08)
(2.99979 1.72607e-05 -1.63564e-08)
(2.99945 3.89253e-05 -2.18465e-08)
(2.9988 0.000106055 -2.26326e-08)
(2.99676 0.000213677 -3.33556e-08)
(2.99318 0.000707793 -2.89985e-08)
(2.97992 0.00116407 -9.08392e-08)
(2.95681 0.00507282 4.52668e-10)
(2.86905 0.00957118 -2.26312e-07)
(2.63874 0.0384506 -5.04844e-08)
(2.05715 0.0919874 -5.21122e-07)
(0.961509 0.26794 -6.3685e-07)
(0.470942 0.246442 6.1988e-08)
(0.567938 0.238265 -2.87405e-08)
(0.601263 0.251262 -7.35607e-08)
(0.551346 0.266675 -7.18132e-08)
(0.467727 0.286449 -6.60178e-08)
(0.385056 0.308585 -6.67859e-08)
(0.314098 0.333392 -7.00907e-08)
(0.238723 0.359916 -7.45657e-08)
(0.14646 0.385866 -7.67394e-08)
(0.0604972 0.403967 -7.88389e-08)
(3 1.435e-07 -2.47231e-09)
(2.99999 7.83408e-07 -8.61739e-09)
(2.99997 2.91241e-06 -1.01061e-08)
(2.99991 7.44919e-06 -1.58342e-08)
(2.9998 2.06042e-05 -1.60847e-08)
(2.99949 4.68668e-05 -2.11506e-08)
(2.99887 0.000125393 -2.12698e-08)
(2.99703 0.000265258 -2.771e-08)
(2.99356 0.000803844 -2.88838e-08)
(2.9819 0.0014272 -5.97395e-08)
(2.9606 0.00565326 -2.85515e-08)
(2.88279 0.0106331 -1.61109e-07)
(2.68102 0.0417463 -1.06226e-07)
(2.16047 0.100923 -4.70681e-07)
(1.04186 0.30552 -6.34989e-07)
(0.489804 0.295593 4.98953e-08)
(0.589778 0.288239 -3.40357e-08)
(0.627268 0.299959 -7.54914e-08)
(0.577508 0.315834 -7.44106e-08)
(0.495321 0.339152 -6.92527e-08)
(0.413095 0.366598 -6.87397e-08)
(0.341756 0.39833 -7.00592e-08)
(0.26479 0.433645 -7.27891e-08)
(0.16762 0.4703 -7.40359e-08)
(0.0712995 0.498676 -7.54836e-08)
(3 1.61451e-07 -2.44014e-09)
(2.99999 8.78243e-07 -8.62659e-09)
(2.99997 3.26884e-06 -1.00889e-08)
(2.99992 8.37943e-06 -1.58251e-08)
(2.99982 2.31372e-05 -1.60316e-08)
(2.99954 5.29411e-05 -2.10656e-08)
(2.99898 0.000138886 -2.09838e-08)
(2.99733 0.000308231 -2.68976e-08)
(2.99415 0.00083024 -2.91054e-08)
(2.98391 0.00173946 -4.26113e-08)
(2.96465 0.00538988 -4.88281e-08)
(2.89711 0.0109629 -1.26534e-07)
(2.72432 0.0386871 -1.34079e-07)
(2.27406 0.0946044 -4.35618e-07)
(1.14881 0.290129 -6.73827e-07)
(0.54218 0.332668 2.18587e-09)
(0.628313 0.340974 -4.43209e-08)
(0.663697 0.350595 -7.24862e-08)
(0.614348 0.366343 -7.27712e-08)
(0.534566 0.393192 -6.93849e-08)
(0.452783 0.426561 -6.83245e-08)
(0.381071 0.466336 -7.02243e-08)
(0.30321 0.51257 -7.21515e-08)
(0.201604 0.565266 -7.25739e-08)
(0.0905428 0.614779 -7.28039e-08)
(3 1.77435e-07 -2.41618e-09)
(2.99999 9.75108e-07 -8.62841e-09)
(2.99997 3.61668e-06 -1.00953e-08)
(2.99993 9.28048e-06 -1.58211e-08)
(2.99984 2.55612e-05 -1.60148e-08)
(2.99959 5.86325e-05 -2.10123e-08)
(2.99908 0.000152088 -2.07877e-08)
(2.99761 0.000345623 -2.64234e-08)
(2.99476 0.000858632 -2.77989e-08)
(2.98566 0.00205385 -3.97163e-08)
(2.96843 0.00492916 -4.09889e-08)
(2.90892 0.0117931 -1.13023e-07)
(2.75835 0.0332625 -8.29301e-08)
(2.35723 0.0825891 -3.06324e-07)
(1.25486 0.244052 -3.73939e-07)
(0.591723 0.371707 -1.44396e-07)
(0.65194 0.402206 -8.97113e-08)
(0.687487 0.401137 -8.03192e-08)
(0.648684 0.41713 -7.70087e-08)
(0.578465 0.447008 -7.03745e-08)
(0.501698 0.487811 -6.83739e-08)
(0.432489 0.536511 -6.91752e-08)
(0.357638 0.595947 -6.94168e-08)
(0.257678 0.673438 -6.92332e-08)
(0.127283 0.767441 -6.83794e-08)
(3 2.83342e-07 -2.44533e-09)
(2.99999 5.78303e-07 -8.6164e-09)
(2.99998 4.22023e-06 -1.02531e-08)
(2.99994 6.37727e-06 -1.60068e-08)
(2.99986 2.91828e-05 -1.63979e-08)
(2.99964 4.09726e-05 -2.17418e-08)
(2.99922 0.000175056 -2.21039e-08)
(2.99792 0.000230079 -3.1608e-08)
(2.99558 0.00106104 -2.64398e-08)
(2.98728 0.00110166 -8.26648e-08)
(2.97289 0.00701139 9.60488e-09)
(2.91954 0.00501528 -1.04684e-07)
(2.78757 0.0449098 5.92965e-08)
(2.43001 0.061214 -3.24603e-07)
(1.3931 0.241161 -2.88649e-07)
(0.675272 0.429499 -3.23633e-07)
(0.663293 0.456036 -9.15387e-08)
(0.691884 0.448388 -8.08159e-08)
(0.675886 0.466201 -7.41753e-08)
(0.62214 0.497966 -7.21032e-08)
(0.556708 0.546515 -7.01479e-08)
(0.495302 0.604801 -7.02602e-08)
(0.433355 0.683194 -6.96744e-08)
(0.352524 0.803316 -6.77351e-08)
(0.19788 1.01319 -6.41999e-08)
(2.99999 1.54228e-08 -3.81788e-13)
(2.99998 8.37627e-08 -2.03667e-12)
(2.99996 3.11764e-07 -4.43935e-12)
(2.99989 7.99816e-07 -9.40508e-12)
(2.99974 2.20208e-06 -1.71241e-11)
(2.99933 5.05975e-06 -3.23702e-11)
(2.99853 1.30283e-05 -6.63813e-11)
(2.99603 2.97342e-05 -1.2931e-10)
(2.99167 7.40467e-05 -3.03806e-10)
(2.97515 0.000166981 -6.11623e-10)
(2.94593 0.000449001 -1.67896e-09)
(2.83584 0.00104873 -3.63065e-09)
(2.53479 0.00285979 -8.36051e-09)
(1.81147 0.00758995 -2.29557e-08)
(0.808698 0.0213871 -2.96401e-08)
(0.492318 0.0214421 2.4835e-09)
(0.5552 0.022723 -7.38381e-10)
(0.572302 0.0249884 -3.08026e-09)
(0.522848 0.027174 -3.13711e-09)
(0.435567 0.0292594 -3.15727e-09)
(0.348938 0.0318433 -3.60789e-09)
(0.277953 0.0350682 -4.15709e-09)
(0.207215 0.0385769 -4.5713e-09)
(0.125452 0.0428271 -4.75985e-09)
(0.0557248 0.0492301 -5.01962e-09)
(2.99999 4.62109e-08 -3.82096e-13)
(2.99998 2.50987e-07 -2.03692e-12)
(2.99996 9.34975e-07 -4.44349e-12)
(2.99989 2.39734e-06 -9.41595e-12)
(2.99975 6.61306e-06 -1.71592e-11)
(2.99934 1.51896e-05 -3.24469e-11)
(2.99856 3.92635e-05 -6.66279e-11)
(2.99608 8.94444e-05 -1.29814e-10)
(2.99179 0.000224811 -3.05449e-10)
(2.97546 0.000504857 -6.14099e-10)
(2.94668 0.00137679 -1.69213e-09)
(2.83769 0.00320644 -3.63992e-09)
(2.54076 0.00895205 -8.45876e-09)
(1.82519 0.0237486 -2.31218e-08)
(0.815892 0.0657561 -3.00611e-08)
(0.488451 0.0627705 2.67405e-09)
(0.553418 0.0638727 -6.86503e-10)
(0.571157 0.0682084 -3.01985e-09)
(0.521172 0.0721441 -3.05787e-09)
(0.433704 0.0757658 -3.07358e-09)
(0.347177 0.0802606 -3.53563e-09)
(0.27574 0.0856525 -4.08669e-09)
(0.20397 0.0908743 -4.51624e-09)
(0.120967 0.0962585 -4.72077e-09)
(0.0512223 0.102291 -5.00143e-09)
(3 7.5866e-08 -3.82135e-13)
(2.99998 4.11508e-07 -2.03479e-12)
(2.99996 1.53667e-06 -4.44329e-12)
(2.99989 3.93973e-06 -9.41796e-12)
(2.99975 1.09132e-05 -1.71798e-11)
(2.99936 2.51026e-05 -3.24946e-11)
(2.9986 6.52194e-05 -6.68908e-11)
(2.99618 0.000149082 -1.30298e-10)
(2.99202 0.00037674 -3.0807e-10)
(2.9761 0.000847781 -6.17147e-10)
(2.94824 0.00234026 -1.71881e-09)
(2.84166 0.00544301 -3.66015e-09)
(2.55376 0.0154838 -8.69678e-09)
(1.85591 0.0410526 -2.35947e-08)
(0.833261 0.114396 -3.12346e-08)
(0.482953 0.106953 3.11412e-09)
(0.55261 0.107438 -5.64454e-10)
(0.572215 0.114736 -2.91642e-09)
(0.521888 0.121816 -2.93623e-09)
(0.434802 0.12909 -2.94799e-09)
(0.34908 0.137566 -3.42788e-09)
(0.277629 0.147098 -3.97714e-09)
(0.205111 0.156469 -4.41941e-09)
(0.121062 0.165474 -4.63986e-09)
(0.0500135 0.173235 -4.90746e-09)
(3 9.65849e-08 -3.81035e-13)
(2.99998 5.24671e-07 -2.02538e-12)
(2.99996 1.95745e-06 -4.42689e-12)
(2.99989 5.01471e-06 -9.38755e-12)
(2.99976 1.39048e-05 -1.71459e-11)
(2.99939 3.18261e-05 -3.24725e-11)
(2.99866 8.40056e-05 -6.70592e-11)
(2.99634 0.000186558 -1.31635e-10)
(2.99237 0.000504215 -3.10112e-10)
(2.97707 0.00107974 -6.27783e-10)
(2.95061 0.00321611 -1.76299e-09)
(2.84779 0.00713898 -3.73048e-09)
(2.57387 0.0234879 -9.03543e-09)
(1.90345 0.0591235 -2.4362e-08)
(0.859422 0.165932 -3.31889e-08)
(0.473704 0.152247 3.71529e-09)
(0.55177 0.150564 -2.93787e-10)
(0.575264 0.160462 -2.79695e-09)
(0.525305 0.170705 -2.83454e-09)
(0.439418 0.182035 -2.85862e-09)
(0.355049 0.194856 -3.27477e-09)
(0.283998 0.209037 -3.77151e-09)
(0.210864 0.223278 -4.22217e-09)
(0.125227 0.236651 -4.46766e-09)
(0.0511403 0.246568 -4.70694e-09)
(3 1.08615e-07 -3.68116e-13)
(2.99998 5.92459e-07 -1.97096e-12)
(2.99996 2.20339e-06 -4.24088e-12)
(2.9999 5.63463e-06 -8.97471e-12)
(2.99978 1.56102e-05 -1.59707e-11)
(2.99942 3.54061e-05 -2.97687e-11)
(2.99873 9.56024e-05 -6.16736e-11)
(2.99653 0.000200997 -1.09755e-10)
(2.99277 0.000608626 -3.11611e-10)
(2.97832 0.00117276 -5.07741e-10)
(2.95342 0.00409492 -1.83278e-09)
(2.85715 0.00841617 -3.12054e-09)
(2.60244 0.0319462 -1.17407e-08)
(1.97069 0.0770178 -2.47578e-08)
(0.90217 0.218987 -3.68807e-08)
(0.468875 0.198806 4.86561e-09)
(0.556347 0.193775 3.97345e-10)
(0.584408 0.205714 -2.61988e-09)
(0.534505 0.21883 -2.72905e-09)
(0.44975 0.234287 -2.79575e-09)
(0.366478 0.251462 -3.07999e-09)
(0.295676 0.270491 -3.49666e-09)
(0.221615 0.29023 -3.89623e-09)
(0.133245 0.308847 -4.13133e-09)
(0.0545053 0.321716 -4.37744e-09)
(3 1.20495e-07 -3.50626e-13)
(2.99999 6.60838e-07 -1.91534e-12)
(2.99996 2.44855e-06 -4.029e-12)
(2.99991 6.24584e-06 -8.30289e-12)
(2.99979 1.72607e-05 -1.45808e-11)
(2.99945 3.89253e-05 -2.58017e-11)
(2.9988 0.000106055 -5.40604e-11)
(2.99676 0.000213677 -7.24796e-11)
(2.99318 0.000707793 -3.29941e-10)
(2.97992 0.00116407 -1.95353e-10)
(2.95681 0.00507281 -2.40425e-09)
(2.86905 0.00957119 -2.48444e-09)
(2.63874 0.0384506 -1.30688e-08)
(2.05714 0.0919873 -2.58798e-08)
(0.961506 0.267939 -4.17775e-08)
(0.470943 0.246442 5.57728e-09)
(0.567938 0.238264 9.96159e-10)
(0.601262 0.251261 -2.59441e-09)
(0.551346 0.266675 -2.78041e-09)
(0.467727 0.286449 -2.87486e-09)
(0.385056 0.308585 -2.92659e-09)
(0.314098 0.333392 -3.2204e-09)
(0.238723 0.359917 -3.63693e-09)
(0.14646 0.385867 -3.8624e-09)
(0.0604972 0.403967 -4.04787e-09)
(3 1.43499e-07 -3.67333e-13)
(2.99999 7.83404e-07 -1.97766e-12)
(2.99997 2.9124e-06 -4.27571e-12)
(2.99991 7.44915e-06 -8.88029e-12)
(2.9998 2.06041e-05 -1.62751e-11)
(2.99949 4.68665e-05 -3.00675e-11)
(2.99887 0.000125393 -6.19446e-11)
(2.99703 0.000265255 -1.15671e-10)
(2.99356 0.000803844 -3.10504e-10)
(2.9819 0.00142718 -4.57639e-10)
(2.9606 0.00565328 -2.04498e-09)
(2.88279 0.0106331 -2.91401e-09)
(2.68102 0.0417465 -1.22058e-08)
(2.16046 0.100923 -2.57779e-08)
(1.04186 0.30552 -4.56043e-08)
(0.489805 0.295593 5.25616e-09)
(0.589777 0.288238 1.09183e-09)
(0.627267 0.299959 -2.68956e-09)
(0.577507 0.315833 -2.98707e-09)
(0.49532 0.339151 -3.16156e-09)
(0.413094 0.366598 -2.91933e-09)
(0.341756 0.39833 -3.01896e-09)
(0.26479 0.433646 -3.3367e-09)
(0.16762 0.470301 -3.46497e-09)
(0.0712994 0.498677 -3.60935e-09)
(3 1.61452e-07 -3.6583e-13)
(2.99999 8.78245e-07 -1.96941e-12)
(2.99997 3.26885e-06 -4.25197e-12)
(2.99992 8.37945e-06 -8.82129e-12)
(2.99982 2.31373e-05 -1.60846e-11)
(2.99954 5.29413e-05 -2.95981e-11)
(2.99898 0.000138886 -6.04458e-11)
(2.99733 0.000308232 -1.12781e-10)
(2.99415 0.000830245 -2.88694e-10)
(2.98391 0.00173946 -5.20586e-10)
(2.96465 0.00538993 -1.7894e-09)
(2.89711 0.010963 -2.78276e-09)
(2.72432 0.0386876 -1.12427e-08)
(2.27406 0.0946055 -2.45089e-08)
(1.1488 0.290133 -4.96895e-08)
(0.542178 0.332669 1.99237e-09)
(0.628312 0.340974 6.18397e-11)
(0.663696 0.350594 -2.98228e-09)
(0.614346 0.366343 -3.28591e-09)
(0.534565 0.393192 -3.43365e-09)
(0.452782 0.426561 -3.0016e-09)
(0.38107 0.466336 -3.00149e-09)
(0.30321 0.51257 -3.21204e-09)
(0.201604 0.565267 -3.25777e-09)
(0.0905427 0.614779 -3.24011e-09)
(3 1.77434e-07 -3.57214e-13)
(2.99999 9.75101e-07 -1.93194e-12)
(2.99997 3.61665e-06 -4.11965e-12)
(2.99993 9.28041e-06 -8.53307e-12)
(2.99984 2.5561e-05 -1.51172e-11)
(2.99959 5.8632e-05 -2.75786e-11)
(2.99908 0.000152087 -5.35507e-11)
(2.99761 0.000345619 -9.94332e-11)
(2.99476 0.000858632 -2.34533e-10)
(2.98566 0.00205383 -4.49643e-10)
(2.96843 0.00492921 -1.1997e-09)
(2.90892 0.0117931 -2.55962e-09)
(2.75835 0.033263 -6.68995e-09)
(2.35722 0.0825902 -1.49728e-08)
(1.25486 0.244057 -2.62762e-08)
(0.591723 0.371707 -8.82406e-09)
(0.651939 0.402205 -4.2673e-09)
(0.687486 0.401136 -4.17432e-09)
(0.648682 0.417129 -4.10418e-09)
(0.578463 0.447008 -3.83802e-09)
(0.501697 0.48781 -3.33195e-09)
(0.432488 0.53651 -3.1974e-09)
(0.357638 0.595947 -3.18669e-09)
(0.257677 0.673439 -3.15604e-09)
(0.127283 0.767442 -2.97426e-09)
(3 2.8334e-07 -3.91753e-13)
(2.99999 5.78316e-07 -2.06842e-12)
(2.99998 4.22023e-06 -4.60566e-12)
(2.99994 6.37734e-06 -9.61046e-12)
(2.99986 2.9183e-05 -1.81939e-11)
(2.99964 4.0973e-05 -3.4738e-11)
(2.99922 0.000175057 -6.81953e-11)
(2.99792 0.000230081 -1.65542e-10)
(2.99558 0.00106104 -2.1419e-10)
(2.98728 0.00110167 -9.74548e-10)
(2.97289 0.00701143 -4.77427e-10)
(2.91954 0.00501535 -3.81338e-09)
(2.78757 0.0449101 -4.32574e-09)
(2.43 0.0612145 -1.40928e-08)
(1.3931 0.241163 -2.44358e-08)
(0.67527 0.429498 -2.25607e-08)
(0.663293 0.456035 -4.74361e-09)
(0.691884 0.448388 -4.23716e-09)
(0.675886 0.466201 -4.21468e-09)
(0.622139 0.497965 -4.12161e-09)
(0.556707 0.546515 -3.76696e-09)
(0.495301 0.6048 -3.6657e-09)
(0.433355 0.683194 -3.50592e-09)
(0.352524 0.803316 -3.34904e-09)
(0.197879 1.01319 -3.20471e-09)
(2.99999 1.54228e-08 -2.14748e-14)
(2.99998 8.37627e-08 -9.57109e-14)
(2.99996 3.11764e-07 -3.15891e-13)
(2.99989 7.99816e-07 -6.83417e-13)
(2.99974 2.20208e-06 -1.93392e-12)
(2.99933 5.05975e-06 -3.98316e-12)
(2.99853 1.30283e-05 -1.09603e-11)
(2.99603 2.97342e-05 -2.30428e-11)
(2.99167 7.40467e-05 -6.0866e-11)
(2.97515 0.000166981 -1.26968e-10)
(2.94593 0.000449001 -3.66077e-10)
(2.83584 0.00104873 -8.00699e-10)
(2.53479 0.00285979 -1.88086e-09)
(1.81147 0.00758995 -5.1901e-09)
(0.808698 0.0213871 -6.77636e-09)
(0.492318 0.0214421 5.60118e-10)
(0.5552 0.022723 -1.3677e-10)
(0.572302 0.0249884 -6.70486e-10)
(0.522848 0.027174 -6.95506e-10)
(0.435567 0.0292594 -7.32751e-10)
(0.348938 0.0318433 -8.72674e-10)
(0.277953 0.0350682 -1.04789e-09)
(0.207215 0.0385769 -1.19459e-09)
(0.125452 0.0428271 -1.25098e-09)
(0.0557248 0.0492301 -1.32773e-09)
(2.99999 4.62109e-08 -2.16323e-14)
(2.99998 2.50987e-07 -9.63627e-14)
(2.99996 9.34975e-07 -3.18114e-13)
(2.99989 2.39734e-06 -6.88086e-13)
(2.99975 6.61307e-06 -1.94772e-12)
(2.99934 1.51896e-05 -4.0114e-12)
(2.99856 3.92635e-05 -1.10421e-11)
(2.99608 8.94445e-05 -2.32151e-11)
(2.99179 0.000224811 -6.13649e-11)
(2.97546 0.000504857 -1.27832e-10)
(2.94668 0.00137679 -3.6974e-10)
(2.83769 0.00320644 -8.04438e-10)
(2.54076 0.00895206 -1.90566e-09)
(1.82519 0.0237486 -5.235e-09)
(0.815892 0.0657561 -6.87949e-09)
(0.488451 0.0627705 6.03053e-10)
(0.553418 0.0638727 -1.25165e-10)
(0.571157 0.0682084 -6.55244e-10)
(0.521171 0.0721441 -6.743e-10)
(0.433704 0.0757658 -7.08893e-10)
(0.347177 0.0802606 -8.5095e-10)
(0.27574 0.0856525 -1.02907e-09)
(0.20397 0.0908743 -1.18173e-09)
(0.120967 0.0962585 -1.24816e-09)
(0.0512223 0.102291 -1.3366e-09)
(3 7.5866e-08 -2.18098e-14)
(2.99998 4.11508e-07 -9.70616e-14)
(2.99996 1.53667e-06 -3.20598e-13)
(2.99989 3.93973e-06 -6.93111e-13)
(2.99975 1.09132e-05 -1.96443e-12)
(2.99936 2.51026e-05 -4.04488e-12)
(2.9986 6.52194e-05 -1.11574e-11)
(2.99618 0.000149082 -2.34478e-11)
(2.99202 0.00037674 -6.22346e-11)
(2.9761 0.000847782 -1.29165e-10)
(2.94824 0.00234026 -3.77282e-10)
(2.84166 0.00544301 -8.1252e-10)
(2.55376 0.0154839 -1.96564e-09)
(1.85591 0.0410526 -5.35929e-09)
(0.833261 0.114396 -7.16513e-09)
(0.482953 0.106953 7.0203e-10)
(0.55261 0.107438 -9.92481e-11)
(0.572215 0.114736 -6.32182e-10)
(0.521888 0.121816 -6.4548e-10)
(0.434801 0.12909 -6.7785e-10)
(0.34908 0.137566 -8.23172e-10)
(0.277629 0.147098 -1.00674e-09)
(0.205111 0.156469 -1.16454e-09)
(0.121062 0.165474 -1.23792e-09)
(0.0500135 0.173235 -1.33172e-09)
(3 9.65849e-08 -2.18123e-14)
(2.99998 5.24671e-07 -9.68461e-14)
(2.99996 1.95745e-06 -3.21014e-13)
(2.99989 5.01471e-06 -6.93554e-13)
(2.99976 1.39048e-05 -1.97743e-12)
(2.99939 3.18261e-05 -4.07909e-12)
(2.99866 8.40056e-05 -1.12932e-11)
(2.99634 0.000186558 -2.39775e-11)
(2.99237 0.000504215 -6.31718e-11)
(2.97707 0.00107974 -1.32763e-10)
(2.95061 0.00321611 -3.89933e-10)
(2.84779 0.00713898 -8.3464e-10)
(2.57387 0.0234879 -2.05272e-09)
(1.90345 0.0591235 -5.56301e-09)
(0.859422 0.165932 -7.64511e-09)
(0.473704 0.152247 8.38525e-10)
(0.55177 0.150564 -3.93522e-11)
(0.575264 0.160462 -6.09857e-10)
(0.525305 0.170705 -6.27103e-10)
(0.439418 0.182035 -6.63737e-10)
(0.355049 0.194856 -7.87233e-10)
(0.283998 0.209037 -9.5878e-10)
(0.210864 0.223278 -1.12416e-09)
(0.125227 0.236651 -1.20758e-09)
(0.0511403 0.246568 -1.30014e-09)
(3 1.08615e-07 -1.92187e-14)
(2.99998 5.92459e-07 -8.58274e-14)
(2.99996 2.20339e-06 -2.82567e-13)
(2.9999 5.63463e-06 -6.09735e-13)
(2.99978 1.56102e-05 -1.73328e-12)
(2.99942 3.54061e-05 -3.512e-12)
(2.99873 9.56024e-05 -1.02013e-11)
(2.99653 0.000200997 -1.92189e-11)
(2.99277 0.000608626 -6.42844e-11)
(2.97832 0.00117276 -1.06526e-10)
(2.95342 0.00409492 -4.09735e-10)
(2.85715 0.00841617 -7.02721e-10)
(2.60244 0.0319462 -2.68845e-09)
(1.97069 0.0770179 -5.69616e-09)
(0.90217 0.218987 -8.54816e-09)
(0.468875 0.198806 1.10179e-09)
(0.556347 0.193775 1.19879e-10)
(0.584408 0.205714 -5.76594e-10)
(0.534505 0.21883 -6.10445e-10)
(0.44975 0.234287 -6.57232e-10)
(0.366478 0.251462 -7.47328e-10)
(0.295676 0.270491 -8.94655e-10)
(0.221615 0.29023 -1.04608e-09)
(0.133245 0.308847 -1.1224e-09)
(0.0545053 0.321716 -1.22504e-09)
(3 1.20495e-07 -1.62094e-14)
(2.99999 6.60838e-07 -7.40465e-14)
(2.99996 2.44855e-06 -2.38331e-13)
(2.99991 6.24584e-06 -5.06757e-13)
(2.99979 1.72607e-05 -1.43205e-12)
(2.99945 3.89253e-05 -2.78274e-12)
(2.9988 0.000106055 -8.75737e-12)