/*--------------------------------*- C++ -*----------------------------------*\
| =========                 |                                                 |
| \\      /  F ield         | OpenFOAM: The Open Source CFD Toolbox           |
|  \\    /   O peration     | Version:  4.1                                   |
|   \\  /    A nd           | Web:      www.OpenFOAM.org                      |
|    \\/     M anipulation  |                                                 |
\*---------------------------------------------------------------------------*/
FoamFile
{
    version     2.0;
    format      ascii;
    class       volScalarField;
    location    "8.18";
    object      Ma;
}
// * * * * * * * * * * * * * * * * * * * * * * * * * * * * * * * * * * * * * //

dimensions      [0 0 0 0 0 0 0];

internalField   nonuniform List<scalar> 
52500
(
3.00001
2.99996
2.99989
2.9996
2.9992
2.99756
2.99523
2.9861
2.9717
2.9228
2.81868
2.56642
1.96092
1.06244
0.439385
0.319537
0.343131
0.345326
0.314621
0.262543
0.211055
0.168563
0.126593
0.0799505
0.045964
3.00001
2.99996
2.99989
2.9996
2.99921
2.99758
2.99529
2.98625
2.97201
2.9236
2.82036
2.57087
1.9682
1.07223
0.44565
0.320168
0.344351
0.347088
0.316665
0.265358
0.215155
0.174226
0.134578
0.0934255
0.0694264
3.00001
2.99996
2.99989
2.99961
2.99922
2.99764
2.99539
2.98656
2.97263
2.92526
2.8239
2.58015
1.98416
1.09414
0.460228
0.322822
0.348443
0.352698
0.323343
0.274211
0.22721
0.190112
0.155923
0.123887
0.108777
3.00001
2.99996
2.9999
2.99963
2.99925
2.99772
2.99556
2.98703
2.97359
2.92776
2.82932
2.59429
2.00908
1.12895
0.482716
0.326887
0.355061
0.361976
0.334437
0.288606
0.246072
0.213947
0.185996
0.161949
0.151967
3.00001
2.99997
2.9999
2.99965
2.9993
2.99785
2.9958
2.98783
2.97487
2.93184
2.83595
2.61285
2.04278
1.17775
0.512683
0.331929
0.36379
0.37429
0.349157
0.307351
0.269864
0.243359
0.221431
0.203682
0.197421
3.00002
2.99997
2.99991
2.99967
2.99934
2.998
2.99607
2.98868
2.9764
2.93648
2.84578
2.63664
2.08599
1.24171
0.549162
0.337152
0.373868
0.389031
0.366704
0.330049
0.298
0.277252
0.261705
0.250184
0.247559
3.00002
2.99997
2.99992
2.9997
2.99939
2.99815
2.99636
2.98953
2.97818
2.94122
2.85768
2.66282
2.14851
1.3271
0.597319
0.347417
0.388131
0.407717
0.387972
0.356333
0.330606
0.316009
0.307123
0.302638
0.305944
3.00002
2.99998
2.99993
2.99972
2.99944
2.99828
2.99665
2.99019
2.98013
2.94546
2.87284
2.69228
2.23185
1.43861
0.659329
0.367919
0.410246
0.43277
0.414766
0.387566
0.367468
0.359693
0.358678
0.363527
0.377542
3.00002
2.99998
2.99994
2.99975
2.9995
2.99845
2.99698
2.9911
2.98222
2.9504
2.8897
2.72528
2.3266
1.57546
0.732971
0.402032
0.44265
0.464814
0.448009
0.42558
0.410659
0.408843
0.41697
0.436598
0.474255
3.00002
2.99999
2.99995
2.99979
2.99956
2.99866
2.99734
2.99225
2.98436
2.95659
2.90415
2.7565
2.41791
1.70242
0.819274
0.451689
0.483866
0.499013
0.485831
0.468473
0.459326
0.463633
0.485077
0.531879
0.633661
2.99999
2.99994
2.99987
2.99958
2.99918
2.99754
2.99521
2.98607
2.97168
2.92277
2.81865
2.56635
1.96085
1.06231
0.439212
0.319359
0.342957
0.345145
0.314419
0.262298
0.210744
0.168166
0.126055
0.0790822
0.0444117
2.99999
2.99994
2.99987
2.99958
2.99919
2.99756
2.99527
2.98622
2.97198
2.92357
2.82033
2.57079
1.96813
1.0721
0.445481
0.319992
0.344179
0.346911
0.316467
0.265118
0.214853
0.173847
0.134078
0.0926939
0.068424
2.99999
2.99994
2.99987
2.99959
2.99921
2.99762
2.99537
2.98654
2.97261
2.92523
2.82387
2.58008
1.98409
1.09401
0.460065
0.32265
0.348274
0.352525
0.323151
0.273981
0.226928
0.189769
0.155498
0.123344
0.10815
2.99999
2.99994
2.99988
2.99961
2.99923
2.9977
2.99554
2.98701
2.97356
2.92773
2.82929
2.59422
2.00901
1.12882
0.482563
0.326724
0.354901
0.361812
0.334257
0.288393
0.245818
0.213648
0.185647
0.161543
0.151527
3
2.99995
2.99989
2.99963
2.99928
2.99783
2.99577
2.98781
2.97485
2.93179
2.83593
2.61278
2.04271
1.1776
0.512528
0.331762
0.363629
0.37413
0.348984
0.307153
0.269636
0.243103
0.221145
0.203366
0.19709
3
2.99995
2.99989
2.99966
2.99932
2.99798
2.99605
2.98866
2.97637
2.93644
2.84574
2.63657
2.0859
1.24156
0.549016
0.336988
0.373709
0.388874
0.366538
0.329867
0.297796
0.277032
0.261469
0.249933
0.247302
3
2.99996
2.9999
2.99968
2.99937
2.99813
2.99634
2.9895
2.97816
2.94118
2.85764
2.66274
2.14841
1.32694
0.597179
0.347253
0.387974
0.407563
0.387813
0.356162
0.330424
0.315819
0.306928
0.302438
0.305743
3
2.99996
2.99991
2.99971
2.99942
2.99826
2.99663
2.99016
2.98011
2.94541
2.87282
2.69221
2.23179
1.43846
0.659212
0.367769
0.410099
0.432626
0.414617
0.38741
0.367305
0.359529
0.358515
0.363366
0.377386
3
2.99996
2.99992
2.99974
2.99948
2.99843
2.99696
2.99107
2.9822
2.95037
2.88967
2.72522
2.32652
1.5753
0.732855
0.401881
0.442509
0.464679
0.447871
0.425438
0.410515
0.4087
0.416833
0.43647
0.474139
3
2.99997
2.99993
2.99977
2.99954
2.99864
2.99732
2.99223
2.98433
2.95656
2.90412
2.75644
2.41785
1.70228
0.819174
0.451555
0.483745
0.498895
0.48571
0.468348
0.4592
0.463511
0.484964
0.531779
0.633583
2.99999
2.99994
2.99987
2.99958
2.99918
2.99754
2.99521
2.98607
2.97168
2.92277
2.81865
2.56634
1.96085
1.0623
0.439209
0.31936
0.342957
0.345145
0.314419
0.262298
0.210744
0.168166
0.126055
0.0790822
0.0444117
2.99999
2.99994
2.99987
2.99958
2.99919
2.99756
2.99527
2.98622
2.97198
2.92357
2.82033
2.57079
1.96813
1.07209
0.445478
0.319994
0.34418
0.346911
0.316467
0.265118
0.214853
0.173847
0.134078
0.092694
0.068424
2.99999
2.99994
2.99987
2.99959
2.99921
2.99762
2.99537
2.98654
2.97261
2.92523
2.82387
2.58008
1.98408
1.094
0.460061
0.322651
0.348275
0.352525
0.323151
0.273981
0.226928
0.189769
0.155498
0.123344
0.10815
2.99999
2.99994
2.99988
2.99961
2.99923
2.9977
2.99554
2.98701
2.97356
2.92773
2.82929
2.59422
2.00901
1.12881
0.482559
0.326725
0.354901
0.361812
0.334257
0.288393
0.245818
0.213648
0.185647
0.161543
0.151527
3
2.99995
2.99989
2.99963
2.99928
2.99783
2.99577
2.98781
2.97485
2.93179
2.83593
2.61278
2.0427
1.17759
0.512525
0.331763
0.36363
0.374129
0.348984
0.307153
0.269636
0.243103
0.221145
0.203366
0.19709
3
2.99995
2.99989
2.99966
2.99932
2.99798
2.99605
2.98866
2.97637
2.93644
2.84574
2.63656
2.0859
1.24155
0.549012
0.33699
0.37371
0.388874
0.366538
0.329867
0.297796
0.277032
0.261469
0.249933
0.247302
3
2.99996
2.9999
2.99968
2.99937
2.99813
2.99634
2.9895
2.97816
2.94118
2.85764
2.66274
2.1484
1.32693
0.597174
0.347254
0.387974
0.407563
0.387813
0.356162
0.330424
0.315819
0.306928
0.302438
0.305743
3
2.99996
2.99991
2.99971
2.99942
2.99826
2.99663
2.99016
2.98011
2.94541
2.87282
2.6922
2.23178
1.43845
0.659207
0.367768
0.410098
0.432625
0.414616
0.387409
0.367305
0.35953
0.358515
0.363366
0.377386
3
2.99996
2.99992
2.99974
2.99948
2.99843
2.99696
2.99107
2.9822
2.95037
2.88967
2.72522
2.32651
1.57529
0.732849
0.401879
0.442507
0.464678
0.44787
0.425438
0.410515
0.4087
0.416833
0.43647
0.474139
3
2.99997
2.99993
2.99977
2.99954
2.99864
2.99732
2.99223
2.98433
2.95656
2.90412
2.75643
2.41785
1.70227
0.819169
0.451554
0.483744
0.498894
0.485709
0.468348
0.4592
0.463511
0.484964
0.531779
0.633582
2.99999
2.99994
2.99987
2.99958
2.99918
2.99754
2.99521
2.98607
2.97168
2.92277
2.81865
2.56634
1.96085
1.0623
0.439208
0.31936
0.342957
0.345145
0.314419
0.262298
0.210744
0.168166
0.126055
0.0790822
0.0444117
2.99999
2.99994
2.99987
2.99958
2.99919
2.99756
2.99527
2.98622
2.97198
2.92357
2.82033
2.57079
1.96813
1.07209
0.445478
0.319994
0.34418
0.346911
0.316467
0.265118
0.214853
0.173847
0.134078
0.092694
0.068424
2.99999
2.99994
2.99987
2.99959
2.99921
2.99762
2.99537
2.98654
2.97261
2.92523
2.82387
2.58008
1.98408
1.094
0.460061
0.322651
0.348275
0.352525
0.323151
0.273981
0.226928
0.189769
0.155498
0.123344
0.10815
2.99999
2.99994
2.99988
2.99961
2.99923
2.9977
2.99554
2.98701
2.97356
2.92773
2.82929
2.59422
2.00901
1.12881
0.482559
0.326726
0.354901
0.361812
0.334257
0.288393
0.245818
0.213648
0.185647
0.161543
0.151527
3
2.99995
2.99989
2.99963
2.99928
2.99783
2.99577
2.98781
2.97485
2.93179
2.83593
2.61278
2.0427
1.17759
0.512524
0.331763
0.36363
0.374129
0.348984
0.307153
0.269636
0.243103
0.221145
0.203366
0.19709
3
2.99995
2.99989
2.99966
2.99932
2.99798
2.99605
2.98866
2.97637
2.93644
2.84574
2.63656
2.0859
1.24155
0.549012
0.33699
0.37371
0.388873
0.366538
0.329867
0.297796
0.277032
0.261469
0.249933
0.247302
3
2.99996
2.9999
2.99968
2.99937
2.99813
2.99634
2.9895
2.97816
2.94118
2.85764
2.66274
2.1484
1.32692
0.597173
0.347254
0.387974
0.407563
0.387813
0.356162
0.330424
0.315819
0.306928
0.302438
0.305743
3
2.99996
2.99991
2.99971
2.99942
2.99826
2.99663
2.99016
2.98011
2.94541
2.87282
2.6922
2.23178
1.43845
0.659207
0.367768
0.410098
0.432625
0.414616
0.387409
0.367305
0.359529
0.358515
0.363366
0.377386
3
2.99996
2.99992
2.99974
2.99948
2.99843
2.99696
2.99107
2.9822
2.95037
2.88967
2.72522
2.32651
1.57529
0.732848
0.401879
0.442507
0.464678
0.44787
0.425438
0.410515
0.4087
0.416833
0.43647
0.474139
3
2.99997
2.99993
2.99977
2.99954
2.99864
2.99732
2.99223
2.98433
2.95656
2.90412
2.75643
2.41785
1.70227
0.819169
0.451554
0.483744
0.498894
0.485709
0.468348
0.4592
0.463511
0.484964
0.531779
0.633582
2.99999
2.99994
2.99987
2.99958
2.99918
2.99754
2.99521
2.98607
2.97168
2.92277
2.81865
2.56634
1.96085
1.0623
0.439208
0.31936
0.342957
0.345145
0.314419
0.262298
0.210744
0.168166
0.126055
0.0790822
0.0444117
2.99999
2.99994
2.99987
2.99958
2.99919
2.99756
2.99527
2.98622
2.97198
2.92357
2.82033
2.57079
1.96812
1.07209
0.445477
0.319994
0.34418
0.346911
0.316467
0.265118
0.214853
0.173847
0.134078
0.092694
0.0684241
2.99999
2.99994
2.99987
2.99959
2.99921
2.99762
2.99537
2.98654
2.97261
2.92523
2.82387
2.58008
1.98408
1.094
0.460061
0.322651
0.348275
0.352525
0.323151
0.273981
0.226928
0.189769
0.155498
0.123344
0.10815
2.99999
2.99994
2.99988
2.99961
2.99923
2.9977
2.99554
2.98701
2.97356
2.92773
2.82929
2.59422
2.00901
1.12881
0.482559
0.326726
0.354901
0.361812
0.334257
0.288393
0.245818
0.213648
0.185647
0.161543
0.151527
3
2.99995
2.99989
2.99963
2.99928
2.99783
2.99577
2.98781
2.97485
2.93179
2.83593
2.61278
2.0427
1.17759
0.512524
0.331764
0.36363
0.374129
0.348984
0.307153
0.269636
0.243103
0.221145
0.203366
0.19709
3
2.99995
2.99989
2.99966
2.99932
2.99798
2.99605
2.98866
2.97637
2.93644
2.84574
2.63656
2.0859
1.24154
0.549012
0.33699
0.37371
0.388873
0.366538
0.329867
0.297796
0.277032
0.261469
0.249933
0.247302
3
2.99996
2.9999
2.99968
2.99937
2.99813
2.99634
2.9895
2.97816
2.94118
2.85764
2.66274
2.1484
1.32692
0.597173
0.347254
0.387974
0.407563
0.387813
0.356162
0.330424
0.315819
0.306928
0.302438
0.305743
3
2.99996
2.99991
2.99971
2.99942
2.99826
2.99663
2.99016
2.98011
2.94541
2.87282
2.6922
2.23178
1.43845
0.659206
0.367768
0.410098
0.432625
0.414616
0.387409
0.367305
0.359529
0.358515
0.363366
0.377386
3
2.99996
2.99992
2.99974
2.99948
2.99843
2.99696
2.99107
2.9822
2.95037
2.88967
2.72522
2.32651
1.57529
0.732848
0.401878
0.442507
0.464678
0.44787
0.425438
0.410515
0.4087
0.416833
0.43647
0.474139
3
2.99997
2.99993
2.99977
2.99954
2.99864
2.99732
2.99223
2.98433
2.95656
2.90412
2.75643
2.41785
1.70227
0.819168
0.451554
0.483744
0.498894
0.485709
0.468347
0.4592
0.463511
0.484964
0.531779
0.633582
2.99999
2.99994
2.99987
2.99958
2.99918
2.99754
2.99521
2.98607
2.97168
2.92277
2.81865
2.56634
1.96085
1.0623
0.439208
0.31936
0.342957
0.345145
0.314419
0.262298
0.210744
0.168166
0.126055
0.0790822
0.0444117
2.99999
2.99994
2.99987
2.99958
2.99919
2.99756
2.99527
2.98622
2.97198
2.92357
2.82033
2.57079
1.96812
1.07209
0.445477
0.319994
0.34418
0.346911
0.316467
0.265118
0.214853
0.173847
0.134078
0.092694
0.0684241
2.99999
2.99994
2.99987
2.99959
2.99921
2.99762
2.99537
2.98654
2.97261
2.92523
2.82387
2.58008
1.98408
1.094
0.46006
0.322652
0.348275
0.352525
0.323151
0.273981
0.226928
0.189769
0.155498
0.123344
0.10815
2.99999
2.99994
2.99988
2.99961
2.99923
2.9977
2.99554
2.98701
2.97356
2.92773
2.82929
2.59422
2.00901
1.12881
0.482558
0.326726
0.354901
0.361812
0.334257
0.288393
0.245818
0.213648
0.185647
0.161543
0.151527
3
2.99995
2.99989
2.99963
2.99928
2.99783
2.99577
2.98781
2.97485
2.93179
2.83593
2.61278
2.0427
1.17759
0.512524
0.331764
0.36363
0.374129
0.348984
0.307153
0.269636
0.243103
0.221145
0.203366
0.19709
3
2.99995
2.99989
2.99966
2.99932
2.99798
2.99605
2.98866
2.97637
2.93644
2.84574
2.63656
2.0859
1.24154
0.549011
0.33699
0.37371
0.388873
0.366538
0.329867
0.297796
0.277032
0.261469
0.249933
0.247302
3
2.99996
2.9999
2.99968
2.99937
2.99813
2.99634
2.9895
2.97816
2.94118
2.85764
2.66274
2.1484
1.32692
0.597173
0.347254
0.387974
0.407563
0.387812
0.356162
0.330424
0.315819
0.306928
0.302438
0.305743
3
2.99996
2.99991
2.99971
2.99942
2.99826
2.99663
2.99016
2.98011
2.94541
2.87282
2.6922
2.23178
1.43845
0.659206
0.367768
0.410098
0.432625
0.414616
0.387409
0.367305
0.359529
0.358515
0.363366
0.377386
3
2.99996
2.99992
2.99974
2.99948
2.99843
2.99696
2.99107
2.9822
2.95037
2.88967
2.72522
2.32651
1.57529
0.732847
0.401878
0.442507
0.464677
0.44787
0.425437
0.410515
0.4087
0.416833
0.43647
0.474139
3
2.99997
2.99993
2.99977
2.99954
2.99864
2.99732
2.99223
2.98433
2.95656
2.90412
2.75643
2.41785
1.70227
0.819168
0.451554
0.483744
0.498894
0.485709
0.468347
0.4592
0.463511
0.484964
0.531779
0.633582
2.99999
2.99994
2.99987
2.99958
2.99918
2.99754
2.99521
2.98607
2.97168
2.92277
2.81865
2.56634
1.96085
1.0623
0.439208
0.31936
0.342957
0.345145
0.314419
0.262298
0.210744
0.168166
0.126055
0.0790822
0.0444117
2.99999
2.99994
2.99987
2.99958
2.99919
2.99756
2.99527
2.98622
2.97198
2.92357
2.82033
2.57079
1.96813
1.07209
0.445477
0.319994
0.34418
0.346911
0.316467
0.265118
0.214853
0.173847
0.134078
0.092694
0.0684241
2.99999
2.99994
2.99987
2.99959
2.99921
2.99762
2.99537
2.98654
2.97261
2.92523
2.82387
2.58008
1.98408
1.094
0.460061
0.322651
0.348275
0.352525
0.323151
0.273981
0.226928
0.189769
0.155498
0.123344
0.10815
2.99999
2.99994
2.99988
2.99961
2.99923
2.9977
2.99554
2.98701
2.97356
2.92773
2.82929
2.59422
2.00901
1.12881
0.482559
0.326726
0.354901
0.361812
0.334257
0.288393
0.245818
0.213648
0.185647
0.161543
0.151527
3
2.99995
2.99989
2.99963
2.99928
2.99783
2.99577
2.98781
2.97485
2.93179
2.83593
2.61278
2.0427
1.17759
0.512524
0.331764
0.36363
0.374129
0.348984
0.307153
0.269636
0.243103
0.221145
0.203366
0.19709
3
2.99995
2.99989
2.99966
2.99932
2.99798
2.99605
2.98866
2.97637
2.93644
2.84574
2.63656
2.0859
1.24154
0.549012
0.33699
0.37371
0.388873
0.366538
0.329867
0.297796
0.277032
0.261469
0.249933
0.247302
3
2.99996
2.9999
2.99968
2.99937
2.99813
2.99634
2.9895
2.97816
2.94118
2.85764
2.66274
2.1484
1.32692
0.597173
0.347254
0.387974
0.407563
0.387813
0.356162
0.330424
0.315819
0.306928
0.302438
0.305743
3
2.99996
2.99991
2.99971
2.99942
2.99826
2.99663
2.99016
2.98011
2.94541
2.87282
2.6922
2.23178
1.43845
0.659206
0.367768
0.410098
0.432625
0.414616
0.387409
0.367305
0.359529
0.358515
0.363366
0.377386
3
2.99996
2.99992
2.99974
2.99948
2.99843
2.99696
2.99107
2.9822
2.95037
2.88967
2.72522
2.32651
1.57529
0.732848
0.401879
0.442507
0.464678
0.44787
0.425438
0.410515
0.4087
0.416833
0.43647
0.474139
3
2.99997
2.99993
2.99977
2.99954
2.99864
2.99732
2.99223
2.98433
2.95656
2.90412
2.75643
2.41785
1.70227
0.819169
0.451554
0.483744
0.498894
0.485709
0.468347
0.4592
0.463511
0.484964
0.531779
0.633582
2.99999
2.99994
2.99987
2.99958
2.99918
2.99754
2.99521
2.98607
2.97168
2.92277
2.81865
2.56634
1.96085
1.0623
0.439209
0.31936
0.342957
0.345145
0.314419
0.262298
0.210744
0.168166
0.126055
0.0790822
0.0444117
2.99999
2.99994
2.99987
2.99958
2.99919
2.99756
2.99527
2.98622
2.97198
2.92357
2.82033
2.57079
1.96813
1.07209
0.445478
0.319994
0.34418
0.346911
0.316467
0.265118
0.214853
0.173847
0.134078
0.092694
0.068424
2.99999
2.99994
2.99987
2.99959
2.99921
2.99762
2.99537
2.98654
2.97261
2.92523
2.82387
2.58008
1.98408
1.094
0.460061
0.322651
0.348275
0.352525
0.323151
0.273981
0.226928
0.189769
0.155498
0.123344
0.10815
2.99999
2.99994
2.99988
2.99961
2.99923
2.9977
2.99554
2.98701
2.97356
2.92773
2.82929
2.59422
2.00901
1.12881
0.482559
0.326725
0.354901
0.361812
0.334257
0.288393
0.245818
0.213648
0.185647
0.161543
0.151527
3
2.99995
2.99989
2.99963
2.99928
2.99783
2.99577
2.98781
2.97485
2.93179
2.83593
2.61278
2.0427
1.17759
0.512525
0.331763
0.36363
0.374129
0.348984
0.307153
0.269636
0.243103
0.221145
0.203366
0.19709
3
2.99995
2.99989
2.99966
2.99932
2.99798
2.99605
2.98866
2.97637
2.93644
2.84574
2.63656
2.0859
1.24155
0.549012
0.33699
0.37371
0.388874
0.366538
0.329867
0.297796
0.277032
0.261469
0.249933
0.247302
3
2.99996
2.9999
2.99968
2.99937
2.99813
2.99634
2.9895
2.97816
2.94118
2.85764
2.66274
2.1484
1.32693
0.597174
0.347254
0.387974
0.407563
0.387813
0.356162
0.330424
0.315819
0.306928
0.302438
0.305743
3
2.99996
2.99991
2.99971
2.99942
2.99826
2.99663
2.99016
2.98011
2.94541
2.87282
2.6922
2.23178
1.43845
0.659207
0.367768
0.410098
0.432625
0.414616
0.387409
0.367305
0.35953
0.358515
0.363366
0.377386
3
2.99996
2.99992
2.99974
2.99948
2.99843
2.99696
2.99107
2.9822
2.95037
2.88967
2.72522
2.32651
1.57529
0.732849
0.401879
0.442507
0.464678
0.44787
0.425438
0.410515
0.4087
0.416833
0.43647
0.474139
3
2.99997
2.99993
2.99977
2.99954
2.99864
2.99732
2.99223
2.98433
2.95656
2.90412
2.75643
2.41785
1.70227
0.819169
0.451554
0.483744
0.498894
0.485709
0.468348
0.4592
0.463511
0.484964
0.531779
0.633582
2.99999
2.99994
2.99987
2.99958
2.99918
2.99754
2.99521
2.98607
2.97168
2.92277
2.81865
2.56635
1.96085
1.06231
0.439212
0.319359
0.342957
0.345145
0.314419
0.262298
0.210744
0.168166
0.126055
0.0790822
0.0444117
2.99999
2.99994
2.99987
2.99958
2.99919
2.99756
2.99527
2.98622
2.97198
2.92357
2.82033
2.57079
1.96813
1.0721
0.445481
0.319992
0.344179
0.346911
0.316467
0.265118
0.214853
0.173847
0.134078
0.0926939
0.068424
2.99999
2.99994
2.99987
2.99959
2.99921
2.99762
2.99537
2.98654
2.97261
2.92523
2.82387
2.58008
1.98409
1.09401
0.460065
0.32265
0.348274
0.352525
0.323151
0.273981
0.226928
0.189769
0.155498
0.123344
0.10815
2.99999
2.99994
2.99988
2.99961
2.99923
2.9977
2.99554
2.98701
2.97356
2.92773
2.82929
2.59422
2.00901
1.12882
0.482563
0.326724
0.354901
0.361812
0.334257
0.288393
0.245818
0.213648
0.185647
0.161543
0.151527
3
2.99995
2.99989
2.99963
2.99928
2.99783
2.99577
2.98781
2.97485
2.93179
2.83593
2.61278
2.04271
1.1776
0.512528
0.331762
0.363629
0.37413
0.348984
0.307153
0.269636
0.243103
0.221145
0.203366
0.19709
3
2.99995
2.99989
2.99966
2.99932
2.99798
2.99605
2.98866
2.97637
2.93644
2.84574
2.63657
2.0859
1.24156
0.549016
0.336988
0.373709
0.388874
0.366538
0.329867
0.297796
0.277032
0.261469
0.249933
0.247302
3
2.99996
2.9999
2.99968
2.99937
2.99813
2.99634
2.9895
2.97816
2.94118
2.85764
2.66274
2.14841
1.32694
0.597179
0.347253
0.387974
0.407563
0.387813
0.356162
0.330424
0.315819
0.306928
0.302438
0.305743
3
2.99996
2.99991
2.99971
2.99942
2.99826
2.99663
2.99016
2.98011
2.94541
2.87282
2.69221
2.23179
1.43846
0.659212
0.367769
0.410099
0.432626
0.414617
0.38741
0.367305
0.359529
0.358515
0.363366
0.377386
3
2.99996
2.99992
2.99974
2.99948
2.99843
2.99696
2.99107
2.9822
2.95037
2.88967
2.72522
2.32652
1.5753
0.732855
0.401881
0.442509
0.464679
0.447871
0.425438
0.410515
0.4087
0.416833
0.43647
0.474139
3
2.99997
2.99993
2.99977
2.99954
2.99864
2.99732
2.99223
2.98433
2.95656
2.90412
2.75644
2.41785
1.70228
0.819174
0.451555
0.483745
0.498895
0.48571
0.468348
0.4592
0.463511
0.484964
0.531779
0.633583
3.00001
2.99996
2.99989
2.9996
2.9992
2.99756
2.99523
2.9861
2.9717
2.9228
2.81868
2.56642
1.96092
1.06245
0.439385
0.319537
0.343131
0.345326
0.314621
0.262544
0.211055
0.168563
0.126593
0.0799505
0.045964
3.00001
2.99996
2.99989
2.9996
2.99921
2.99758
2.99529
2.98625
2.97201
2.9236
2.82036
2.57087
1.9682
1.07223
0.44565
0.320168
0.344351
0.347088
0.316665
0.265358
0.215155
0.174226
0.134578
0.0934255
0.0694264
3.00001
2.99996
2.99989
2.99961
2.99922
2.99764
2.99539
2.98656
2.97263
2.92526
2.8239
2.58015
1.98416
1.09414
0.460228
0.322821
0.348443
0.352698
0.323343
0.274211
0.227211
0.190112
0.155923
0.123887
0.108777
3.00001
2.99996
2.9999
2.99963
2.99925
2.99772
2.99556
2.98703
2.97359
2.92776
2.82932
2.59429
2.00908
1.12895
0.482716
0.326887
0.355061
0.361976
0.334437
0.288606
0.246072
0.213947
0.185996
0.161949
0.151967
3.00001
2.99997
2.9999
2.99965
2.9993
2.99785
2.9958
2.98783
2.97487
2.93184
2.83595
2.61285
2.04278
1.17775
0.512683
0.331928
0.36379
0.37429
0.349157
0.307351
0.269864
0.243359
0.221431
0.203682
0.197421
3.00002
2.99997
2.99991
2.99967
2.99934
2.998
2.99607
2.98868
2.9764
2.93648
2.84578
2.63664
2.08599
1.24171
0.549162
0.337152
0.373868
0.389031
0.366704
0.330049
0.298
0.277252
0.261705
0.250184
0.247559
3.00002
2.99997
2.99992
2.9997
2.99939
2.99815
2.99636
2.98953
2.97818
2.94122
2.85768
2.66282
2.14851
1.3271
0.597319
0.347417
0.388131
0.407717
0.387972
0.356333
0.330606
0.316009
0.307123
0.302638
0.305944
3.00002
2.99998
2.99993
2.99972
2.99944
2.99828
2.99665
2.99019
2.98013
2.94546
2.87284
2.69228
2.23185
1.43861
0.659329
0.367919
0.410246
0.43277
0.414766
0.387566
0.367468
0.359693
0.358678
0.363527
0.377542
3.00002
2.99998
2.99994
2.99975
2.9995
2.99845
2.99698
2.9911
2.98222
2.9504
2.8897
2.72528
2.3266
1.57546
0.732971
0.402032
0.442651
0.464814
0.448009
0.42558
0.410659
0.408843
0.41697
0.436598
0.474255
3.00002
2.99999
2.99995
2.99979
2.99956
2.99866
2.99734
2.99225
2.98436
2.95659
2.90415
2.7565
2.41791
1.70242
0.819274
0.451689
0.483866
0.499013
0.485831
0.468473
0.459326
0.463633
0.485077
0.531879
0.633661
3.00002
3
2.99994
2.99986
2.99954
2.99907
2.99725
2.99449
2.98456
2.96682
2.91292
2.78506
2.50259
1.84414
0.94381
0.516273
0.521182
0.529488
0.526071
0.514035
0.510571
0.523288
0.562519
0.645942
0.812913
3.00002
3
2.99995
2.99988
2.99959
2.99918
2.99751
2.99516
2.98582
2.97134
2.92173
2.81808
2.56253
1.96585
1.08702
0.596628
0.545069
0.556478
0.562532
0.558722
0.561963
0.583801
0.63659
0.734355
0.898727
3.00002
3.00001
2.99996
2.9999
2.99966
2.99931
2.99791
2.99591
2.9882
2.97564
2.93413
2.84183
2.62735
2.07809
1.24201
0.681223
0.562764
0.578219
0.594263
0.600493
0.611082
0.639817
0.69739
0.789712
0.923262
3.00002
3.00001
2.99997
2.99992
2.99972
2.99943
2.99826
2.99658
2.99017
2.97957
2.94509
2.86767
2.68646
2.20776
1.42752
0.776026
0.584055
0.601358
0.622107
0.638371
0.656423
0.688808
0.743825
0.8243
0.934694
3.00002
3.00001
2.99998
2.99994
2.99977
2.99952
2.99854
2.99712
2.99159
2.98304
2.95297
2.89556
2.73741
2.36786
1.62934
0.89753
0.629496
0.636491
0.653882
0.673928
0.696312
0.730628
0.783081
0.851765
0.943834
3.00002
3.00001
3
2.99994
2.99986
2.99954
2.99908
2.99728
2.99454
2.98478
2.96721
2.91451
2.78927
2.51406
1.88563
1.04827
0.696099
0.681655
0.694182
0.712714
0.733555
0.765659
0.815685
0.878251
0.954521
3.00002
3.00001
3
2.99996
2.99989
2.99962
2.99925
2.99772
2.99556
2.98704
2.97385
2.92857
2.83388
2.60438
2.04779
1.22154
0.776782
0.714941
0.728274
0.746434
0.769207
0.798269
0.841598
0.900306
0.968129
3.00002
3.00002
3.00001
2.99997
2.99992
2.99972
2.99943
2.99829
2.99659
2.99039
2.97949
2.94577
2.86717
2.68723
2.20944
1.43788
0.88401
0.744177
0.754008
0.772855
0.799795
0.83012
0.866964
0.917533
0.979356
3.00002
3.00002
3.00001
2.99999
2.99993
2.99984
2.99949
2.99896
2.99706
2.9937
2.98335
2.95986
2.90189
2.74447
2.43315
1.70162
1.0419
0.79578
0.786485
0.800896
0.826735
0.858301
0.894096
0.93595
0.98961
3.00002
3.00002
3.00001
3
2.99995
2.99988
2.99959
2.99918
2.99754
2.99516
2.98613
2.97125
2.9232
2.81698
2.57027
1.99402
1.20279
0.865301
0.826455
0.836527
0.857527
0.88571
0.918801
0.956364
1.00124
3.00003
3.00002
3.00002
3
2.99998
2.9999
2.99977
2.99929
2.99856
2.99598
2.99131
2.97725
2.94464
2.86625
2.65014
2.23988
1.39978
0.964809
0.859192
0.865038
0.884529
0.911429
0.941173
0.975785
1.01489
3.00003
3.00002
3.00002
3.00001
2.99999
2.99993
2.99983
2.99944
2.9989
2.99673
2.99352
2.98191
2.9609
2.89918
2.74805
2.43451
1.72922
1.11956
0.911654
0.898548
0.911138
0.934546
0.962835
0.993439
1.02808
3.00003
3.00003
3.00002
3.00002
3
2.99997
2.99985
2.99967
2.99901
2.99801
2.99427
2.98836
2.96807
2.93033
2.82152
2.58834
2.02657
1.29638
0.983532
0.932611
0.939198
0.957911
0.984559
1.01205
1.04223
3.00003
3.00003
3.00002
3.00002
3.00001
2.99998
2.9999
2.99978
2.99929
2.9986
2.9959
2.99183
2.97747
2.95088
2.87541
2.6906
2.30839
1.54507
1.10435
0.972311
0.967435
0.978985
1.00166
1.0289
1.05575
3.00003
3.00003
3.00003
3.00002
3.00002
2.99999
2.99995
2.99981
2.9996
2.9988
2.9976
2.99316
2.98608
2.96229
2.91688
2.79194
2.51577
1.90511
1.26021
1.03009
1.00094
1.00614
1.02236
1.0456
1.06774
3.00003
3.00003
3.00003
3.00002
3.00002
3
2.99998
2.99987
2.99973
2.99915
2.99833
2.99515
2.99036
2.97323
2.94258
2.85563
2.65038
2.20817
1.4588
1.10729
1.03307
1.03142
1.04331
1.06025
1.07633
3.00003
3.00003
3.00003
3.00003
3.00002
3.00001
2.99998
2.99994
2.99977
2.99953
2.9986
2.99722
2.99206
2.98389
2.95654
2.90215
2.76188
2.42862
1.77882
1.24052
1.07407
1.05687
1.06263
1.0738
1.08141
3.00003
3.00003
3.00003
3.00003
3.00002
3.00002
3
2.99997
2.99985
2.99969
2.99904
2.99809
2.9945
2.989
2.96957
2.93583
2.83183
2.62832
2.09839
1.44604
1.14707
1.084
1.07722
1.07783
1.07388
3.00003
3.00003
3.00003
3.00003
3.00003
3.00002
3.00001
2.99998
2.99993
2.99975
2.99949
2.99848
2.99697
2.99147
2.98247
2.95336
2.89245
2.74364
2.38235
1.71358
1.26601
1.11908
1.0913
1.07616
1.05495
3.00003
3.00003
3.00003
3.00003
3.00003
3.00002
3.00002
3
2.99995
2.99988
2.99959
2.99918
2.99761
2.99524
2.9868
2.9724
2.92831
2.83089
2.60966
2.10503
1.44148
1.17066
1.10057
1.0594
1.01727
3.00003
3.00003
3.00003
3.00003
3.00003
3.00003
3.00002
3.00001
2.99998
2.99993
2.99973
2.99945
2.99836
2.9968
2.99079
2.98162
2.95
2.88899
2.73237
2.35629
1.69088
1.25508
1.09311
1.01153
0.951845
3.00003
3.00003
3.00003
3.00003
3.00003
3.00003
3.00002
3.00001
3
2.99995
2.99987
2.99956
2.99912
2.99743
2.9949
2.98569
2.97051
2.92277
2.82276
2.57686
2.06825
1.39277
1.07716
0.934169
0.87885
3.00003
3.00003
3.00003
3.00003
3.00003
3.00003
3.00003
3.00002
3.00001
2.99997
2.99991
2.99969
2.99938
2.99814
2.99639
2.98958
2.97915
2.94364
2.87172
2.69528
2.25951
1.56525
1.03157
0.819015
0.798182
3.00003
3.00003
3.00003
3.00003
3.00003
3.00003
3.00003
3.00002
3.00001
2.99998
2.99994
2.99977
2.99954
2.99859
2.99724
2.99188
2.9839
2.95488
2.90275
2.75246
2.42095
1.74412
0.982086
0.688436
0.700972
3.00003
3.00003
3.00003
3.00003
3.00003
3.00003
3.00003
3.00002
3.00002
2.99999
2.99996
2.99983
2.99964
2.99887
2.99776
2.99337
2.98664
2.96224
2.91539
2.78464
2.47142
1.82048
0.933978
0.557517
0.585808
3.00003
3.00003
3.00003
3.00003
3.00003
3.00003
3.00003
3.00003
3.00002
3.00001
2.99996
2.99989
2.99963
2.99922
2.9977
2.9952
2.98668
2.96949
2.92056
2.79825
2.5289
1.87683
0.981132
0.481209
0.483626
3.00003
3.00003
3.00003
3.00003
3.00003
3.00003
3.00003
3.00003
3.00002
3.00001
2.99998
2.99989
2.99975
2.99922
2.99828
2.99528
2.98863
2.97096
2.92496
2.82173
2.51502
1.94729
0.95543
0.438775
0.40288
3.00003
3.00003
3.00003
3.00003
3.00003
3.00003
3.00003
3.00003
3.00002
3.00001
2.99997
2.99991
2.99967
2.99932
2.99792
2.99576
2.98789
2.97325
2.92867
2.81905
2.57552
1.94243
1.05264
0.453802
0.367946
3.00003
3.00003
3.00003
3.00003
3.00003
3.00003
3.00003
3.00003
3.00002
3.00001
2.99997
2.99992
2.9997
2.99938
2.99809
2.9961
2.98882
2.97489
2.93298
2.82869
2.59701
1.97605
1.09246
0.462742
0.342047
3.00003
3.00003
3.00003
3.00003
3.00003
3.00003
3.00003
3.00003
3.00002
3.00001
2.99999
2.99992
2.9998
2.9994
2.99855
2.99618
2.99034
2.97573
2.93588
2.84642
2.57336
2.06659
1.08583
0.482902
0.329328
3.00003
3.00003
3.00003
3.00003
3.00003
3.00003
3.00003
3.00003
3.00002
3.00001
2.99998
2.99994
2.99977
2.99948
2.99853
2.99649
2.99076
2.97668
2.94112
2.84415
2.63637
2.04807
1.19889
0.5132
0.321324
3.00003
3.00003
3.00003
3.00003
3.00003
3.00003
3.00003
3.00003
3.00002
3.00001
2.99999
2.99992
2.99981
2.9994
2.99873
2.99643
2.99163
2.97811
2.94385
2.86274
2.62249
2.16736
1.21947
0.539671
0.311703
3.00003
3.00003
3.00003
3.00003
3.00003
3.00003
3.00003
3.00003
3.00002
3.00001
2.99999
2.99993
2.99983
2.99943
2.99882
2.99665
2.99238
2.97979
2.9485
2.87269
2.65052
2.2197
1.2993
0.568391
0.306372
3.00003
3.00003
3.00003
3.00003
3.00003
3.00003
3.00003
3.00003
3.00002
3.00001
2.99999
2.99995
2.99978
2.99954
2.99863
2.99706
2.99204
2.98094
2.95156
2.87286
2.70194
2.20642
1.40535
0.576518
0.274678
3.00003
3.00003
3.00003
3.00003
3.00003
3.00003
3.00003
3.00003
3.00002
3.00001
3
2.99994
2.99985
2.99951
2.99894
2.99712
2.9931
2.98248
2.9547
2.89044
2.69693
2.32176
1.46057
0.620979
0.279901
3.00003
3.00003
3.00003
3.00003
3.00003
3.00003
3.00003
3.00003
3.00002
3.00002
2.99999
2.99995
2.9998
2.99957
2.9987
2.99731
2.99247
2.98322
2.95562
2.88827
2.73155
2.31035
1.5392
0.618315
0.244674
3.00003
3.00003
3.00003
3.00003
3.00003
3.00003
3.00003
3.00003
3.00002
3.00001
3
2.99994
2.99985
2.99949
2.99897
2.997
2.99366
2.98285
2.95904
2.89739
2.72939
2.39038
1.60929
0.675533
0.265974
3.00003
3.00003
3.00003
3.00003
3.00003
3.00003
3.00003
3.00003
3.00002
3.00001
3
2.99993
2.99985
2.99949
2.99897
2.99697
2.99374
2.98291
2.96025
2.89939
2.73743
2.40638
1.64884
0.695848
0.273032
3.00003
3.00003
3.00003
3.00003
3.00003
3.00003
3.00003
3.00003
3.00002
3.00002
2.99999
2.99995
2.99979
2.99957
2.99867
2.99737
2.99225
2.98416
2.95611
2.89855
2.74737
2.37176
1.62872
0.662855
0.247093
3.00003
3.00003
3.00003
3.00003
3.00003
3.00003
3.00003
3.00003
3.00002
3.00002
2.99999
2.99995
2.99979
2.99956
2.99864
2.99733
2.99206
2.9841
2.9551
2.90079
2.7469
2.38265
1.64102
0.671589
0.251499
3
2.99998
2.99992
2.99984
2.99952
2.99905
2.99723
2.99447
2.98454
2.96679
2.91288
2.78502
2.50252
1.84403
0.94365
0.516124
0.521075
0.529384
0.525964
0.513925
0.510461
0.523183
0.562426
0.645866
0.812865
3
2.99998
2.99993
2.99986
2.99957
2.99916
2.99749
2.99514
2.9858
2.97132
2.92169
2.81805
2.56245
1.96576
1.08688
0.596496
0.544974
0.556386
0.562439
0.558625
0.561866
0.583709
0.63651
0.734292
0.898685
3
2.99999
2.99994
2.99988
2.99964
2.99929
2.99789
2.99589
2.98817
2.97562
2.93409
2.84179
2.62727
2.078
1.24186
0.681099
0.562674
0.578132
0.594176