/*--------------------------------*- C++ -*----------------------------------*\
| =========                 |                                                 |
| \\      /  F ield         | OpenFOAM: The Open Source CFD Toolbox           |
|  \\    /   O peration     | Version:  4.1                                   |
|   \\  /    A nd           | Web:      www.OpenFOAM.org                      |
|    \\/     M anipulation  |                                                 |
\*---------------------------------------------------------------------------*/
FoamFile
{
    version     2.0;
    format      ascii;
    class       surfaceScalarField;
    location    "2.96";
    object      phi;
}
// * * * * * * * * * * * * * * * * * * * * * * * * * * * * * * * * * * * * * //

dimensions      [1 0 -1 0 0 0 0];

internalField   nonuniform List<scalar> 
150500
(
0.0168001
1.70623e-10
-3.37513e-12
0.0168001
9.43163e-10
-1.16415e-11
0.0168001
3.5227e-09
-1.34808e-11
0.0168
9.00624e-09
-2.1633e-11
0.0168
2.50455e-08
-2.13955e-11
0.0168
5.70791e-08
-2.91223e-11
0.0167998
1.53261e-07
-2.91875e-11
0.0167995
3.3168e-07
-3.99378e-11
0.0167984
9.62458e-07
-4.19012e-11
0.0167966
1.98994e-06
-7.62752e-11
0.0167894
6.56939e-06
-9.64428e-11
0.0167748
1.48474e-05
-2.30097e-10
0.0167088
6.41226e-05
-3.08502e-10
0.0165252
0.000180005
-1.1982e-09
0.0154519
0.00106073
-2.68885e-09
0.0141571
0.0012955
5.1341e-10
0.0129148
0.00124416
-4.00373e-11
0.0116255
0.00128978
-3.66038e-10
0.0102708
0.00135641
-3.66925e-10
0.00882533
0.00144423
-3.41105e-10
0.00727632
0.00154796
-2.8293e-10
0.00561547
0.00166219
-2.63253e-10
0.00384114
0.00176739
-2.61382e-10
0.00196607
0.0018699
-2.59561e-10
0.00196524
-2.5271e-10
0.0168001
3.36123e-10
-3.3681e-12
0.0168001
1.84382e-09
-1.16418e-11
0.0168001
6.89595e-09
-1.34875e-11
0.0168
1.75418e-08
-2.16062e-11
0.0168
4.90326e-08
-2.14356e-11
0.0168
1.11334e-07
-2.9094e-11
0.0167998
3.01726e-07
-2.92094e-11
0.0167995
6.48089e-07
-3.98621e-11
0.0167985
1.91277e-06
-4.19481e-11
0.0167966
3.92549e-06
-7.58395e-11
0.0167895
1.3261e-05
-9.55359e-11
0.0167744
2.99748e-05
-2.26312e-10
0.0167065
0.000130249
-2.99158e-10
0.0165181
0.00036478
-1.15989e-09
0.0154599
0.00210646
-2.62195e-09
0.0141334
0.00262278
4.91055e-10
0.0129059
0.00247352
-5.18736e-11
0.0116358
0.0025604
-3.74217e-10
0.0102906
0.00270324
-3.74616e-10
0.00883206
0.00290156
-3.46047e-10
0.00726311
0.00311593
-2.87046e-10
0.00558561
0.00334084
-2.66374e-10
0.00379564
0.00355058
-2.63238e-10
0.00191467
0.00374594
-2.60718e-10
0.00387891
-2.53085e-10
0.0168001
4.54328e-10
-3.35542e-12
0.0168001
2.50261e-09
-1.16391e-11
0.0168001
9.3638e-09
-1.3505e-11
0.0168
2.37786e-08
-2.1541e-11
0.0168
6.63745e-08
-2.15185e-11
0.0168
1.49427e-07
-2.90003e-11
0.0167999
4.13124e-07
-2.91801e-11
0.0167997
8.32799e-07
-3.93689e-11
0.0167988
2.78548e-06
-4.17624e-11
0.0167978
4.9179e-06
-7.28294e-11
0.01679
2.06131e-05
-9.10588e-11
0.0167775
4.25788e-05
-2.15165e-10
0.0167108
0.000195175
-2.76761e-10
0.0165344
0.000537704
-1.09031e-09
0.015572
0.00305659
-2.55204e-09
0.0142192
0.00397628
3.73542e-10
0.0129897
0.00370501
-9.80673e-11
0.0117299
0.00382073
-3.80868e-10
0.0103954
0.00403945
-3.77752e-10
0.00893717
0.00435836
-3.44424e-10
0.00735991
0.0046922
-2.91197e-10
0.00566606
0.00503548
-2.72914e-10
0.00384807
0.00536207
-2.69962e-10
0.00194285
0.00564607
-2.67529e-10
0.00582073
-2.57046e-10
0.0168001
5.6495e-10
-3.34502e-12
0.0168001
3.13991e-09
-1.16328e-11
0.0168001
1.17396e-08
-1.35897e-11
0.0168
2.9924e-08
-2.14463e-11
0.0168
8.30117e-08
-2.19789e-11
0.0168
1.86555e-07
-2.93598e-11
0.0167999
5.18401e-07
-3.04031e-11
0.0167997
9.98869e-07
-4.48757e-11
0.0167988
3.67256e-06
-3.86217e-11
0.0167984
5.37397e-06
-1.23315e-10
0.0167901
2.84154e-05
6.92835e-12
0.016781
5.20323e-05
-3.33429e-10
0.0167239
0.000250606
-4.0735e-11
0.0165815
0.000676861
-9.40598e-10
0.0158315
0.00379465
-2.1593e-09
0.0144576
0.00535079
1.46259e-10
0.0132051
0.0049593
-2.90583e-10
0.0119403
0.00508593
-4.24657e-10
0.0106097
0.00537168
-3.94881e-10
0.00915258
0.005814
-3.44988e-10
0.00757097
0.00627252
-3.15766e-10
0.00586522
0.00674267
-3.01102e-10
0.00401273
0.00720739
-2.93415e-10
0.00203027
0.00762297
-2.8661e-10
0.0078499
-2.73312e-10
0.0168001
7.74723e-10
-3.33483e-12
0.0168001
4.26041e-09
-1.15822e-11
0.0168001
1.58497e-08
-1.36066e-11
0.0168
4.05283e-08
-2.13279e-11
0.0168
1.12217e-07
-2.17734e-11
0.0167999
2.56301e-07
-2.88064e-11
0.0167998
6.80088e-07
-2.9278e-11
0.0167993
1.48387e-06
-4.08384e-11
0.0167986
4.32909e-06
-3.69067e-11
0.0167962
7.83319e-06
-1.0165e-10
0.0167926
3.16449e-05
-5.53561e-12
0.0167828
6.20722e-05
-2.73042e-10
0.0167543
0.000277521
-5.99173e-11
0.0166735
0.000754752
-8.0544e-10
0.0163297
0.00412732
-1.8501e-09
0.0149348
0.00674609
-7.89581e-11
0.0136082
0.00628741
-3.84904e-10
0.0123112
0.00638287
-4.23798e-10
0.0109787
0.00670559
-3.8369e-10
0.00952042
0.00727109
-3.32375e-10
0.00792435
0.00786674
-3.21371e-10
0.00618031
0.00848797
-3.23351e-10
0.00427116
0.00910956
-3.16141e-10
0.00220055
0.00968792
-3.10787e-10
0.0100492
-2.97458e-10
0.0168001
8.70487e-10
-3.30083e-12
0.0168001
4.80417e-09
-1.15812e-11
0.0168001
1.78994e-08
-1.35531e-11
0.0168001
4.58581e-08
-2.12398e-11
0.0168
1.26709e-07
-2.15056e-11
0.0168
2.89663e-07
-2.82159e-11
0.0167999
7.61596e-07
-2.80604e-11
0.0167997
1.68707e-06
-3.58639e-11
0.0167994
4.5869e-06
-3.74371e-11
0.0167976
9.67025e-06
-6.54025e-11
0.0167974
3.15803e-05
-4.43973e-11
0.0167961
6.35132e-05
-1.97336e-10
0.016799
0.000273283
-1.30454e-10
0.0168209
0.000730527
-7.09938e-10
0.0171513
0.0037872
-1.68991e-09
0.015723
0.00817409
-2.84377e-10
0.0142131
0.00779885
-4.20786e-10
0.0128544
0.00774125
-3.66668e-10
0.0115033
0.00805756
-3.36337e-10
0.0100544
0.00871815
-3.00692e-10
0.00844453
0.00947386
-3.23213e-10
0.00666666
0.0102673
-3.29625e-10
0.00467382
0.0110965
-3.26149e-10
0.00243622
0.0119199
-3.28767e-10
0.0124841
-3.22985e-10
0.0168001
9.35469e-10
-3.26816e-12
0.0168001
5.17685e-09
-1.15841e-11
0.0168001
1.9273e-08
-1.35377e-11
0.0168001
4.94671e-08
-2.12126e-11
0.0168
1.3604e-07
-2.14247e-11
0.0168
3.11264e-07
-2.80683e-11
0.0168
8.10868e-07
-2.76487e-11
0.0167999
1.80528e-06
-3.50494e-11
0.0167997
4.74774e-06
-3.65733e-11
0.0167989
1.04678e-05
-5.21571e-11
0.0168007
2.95517e-05
-5.41368e-11
0.0167959
6.8488e-05
-1.53315e-10
0.0168336
0.000234571
-1.23122e-10
0.0169349
0.000627737
-5.48632e-10
0.0177809
0.00293652
-1.02418e-09
0.0166441
0.00930626
-8.92113e-10
0.0149385
0.0095041
-4.94247e-10
0.0135368
0.00914307
-2.98467e-10
0.0121932
0.00940228
-2.83402e-10
0.0107461
0.0101651
-2.73004e-10
0.00913088
0.0110891
-3.02083e-10
0.00731058
0.0120872
-3.14265e-10
0.005239
0.0131623
-3.21126e-10
0.00284227
0.0143112
-3.34886e-10
0.0153247
-3.36092e-10
0.0168001
1.04371e-09
-3.23738e-12
0.0168001
5.77281e-09
-1.15933e-11
0.0168001
2.15707e-08
-1.3541e-11
0.0168
5.54095e-08
-2.12146e-11
0.0168
1.53233e-07
-2.14212e-11
0.0168
3.51242e-07
-2.80532e-11
0.0167999
9.18749e-07
-2.76009e-11
0.0167996
2.07108e-06
-3.48667e-11
0.0167991
5.24014e-06
-3.6234e-11
0.0167969
1.27329e-05
-5.12109e-11
0.0167971
2.91341e-05
-5.09449e-11
0.016786
7.97665e-05
-1.47392e-10
0.0168006
0.000218976
-1.00284e-10
0.0167969
0.000631117
-4.75512e-10
0.0170954
0.00263358
-9.21308e-10
0.0164854
0.00991029
-1.38047e-09
0.0151227
0.0108656
-5.66965e-10
0.0140263
0.0102386
-2.44689e-10
0.012809
0.0106203
-2.40046e-10
0.0114691
0.011504
-2.45983e-10
0.00992429
0.0126328
-2.76842e-10
0.00814714
0.0138655
-2.89459e-10
0.00603823
0.0152678
-2.99415e-10
0.00343699
0.0169056
-3.21768e-10
0.0187599
-3.35184e-10
0.0168001
1.33895e-09
-3.20955e-12
0.0168001
5.99236e-09
-1.15953e-11
0.0168001
2.4225e-08
-1.35623e-11
0.0168001
5.88597e-08
-2.12286e-11
0.0168
1.69925e-07
-2.15235e-11
0.0168
3.74943e-07
-2.82594e-11
0.0167999
9.88065e-07
-2.83629e-11
0.0167998
2.26276e-06
-3.68306e-11
0.0167997
5.27321e-06
-3.5938e-11
0.0167997
1.27613e-05
-9.04953e-11
0.0167972
3.14409e-05
1.31178e-12
0.0168085
6.87033e-05
-2.30487e-10
0.0167964
0.000230063
2.67708e-11
0.0168035
0.000624515
-4.84379e-10
0.0169505
0.00248276
-6.90298e-10
0.0162659
0.0105888
-1.56322e-09
0.0156502
0.0114807
-3.35825e-10
0.0144976
0.0113908
-2.36991e-10
0.0133032
0.0118151
-2.17325e-10
0.0121575
0.0126492
-2.26267e-10
0.010779
0.0140084
-2.51588e-10
0.00916417
0.0154839
-2.61124e-10
0.00721915
0.0172097
-2.68952e-10
0.00451492
0.0196036
-2.89263e-10
0.0232723
-3.02293e-10
0.0168001
-3.2362e-12
1.93404e-09
0.0168001
-1.1635e-11
1.35816e-09
0.0168001
-1.36264e-11
2.54979e-08
0.0168001
-2.18743e-11
2.12832e-08
0.0168001
-2.11858e-11
1.67669e-07
0.0168003
-2.91185e-11
1.38135e-07
0.0168003
-2.80888e-11
1.01995e-06
0.0168019
-3.73741e-11
6.81455e-07
0.0168002
-3.60859e-11
6.94836e-06
0.0168107
-5.91294e-11
2.43063e-06
0.0167895
-5.95058e-11
5.25325e-05
0.0168499
-1.33706e-10
8.42391e-06
0.0167051
-5.3294e-11
0.000374129
0.0169928
-5.25804e-10
0.000336435
0.0168838
-5.41229e-10
0.00258947
0.0165074
-1.65225e-09
0.0109583
0.0156541
-2.27532e-10
0.0123332
0.0147943
-1.7211e-10
0.0122503
0.0138934
-2.02641e-10
0.0127158
0.0129033
-2.08633e-10
0.0136398
0.0118334
-2.23909e-10
0.015076
0.0105736
-2.26725e-10
0.0167432
0.0088183
-2.31919e-10
0.018963
0.00621816
-2.39391e-10
0.0221987
-2.38353e-10
0.0294881
0.0168001
1.74129e-10
-4.733e-16
0.0168001
9.45949e-10
-2.55181e-15
0.0168001
3.52257e-09
-5.39013e-15
0.0168
9.0198e-09
-1.13966e-14
0.0168
2.50368e-08
-1.96743e-14
0.0168
5.70885e-08
-3.63432e-14
0.0167998
1.53261e-07
-7.34637e-14
0.0167995
3.3173e-07
-1.28292e-13
0.0167984
9.62522e-07
-3.72027e-13
0.0167966
1.99028e-06
-5.96501e-13
0.0167894
6.57057e-06
-2.28453e-12
0.0167748
1.48509e-05
-4.26026e-12
0.0167088
6.41349e-05
-1.81051e-11
0.0165251
0.000180046
-4.64466e-11
0.0154516
0.00106091
-1.3515e-10
0.0141568
0.00129555
3.03361e-11
0.0129145
0.00124417
3.93019e-12
0.0116252
0.00128977
-9.03632e-12
0.0102705
0.00135638
-8.34802e-12
0.0088251
0.0014442
-6.6148e-12
0.00727613
0.00154792
-5.74654e-12
0.00561533
0.00166213
-5.69886e-12
0.00384107
0.00176734
-6.1326e-12
0.00196604
0.00186986
-6.20899e-12
0.00196521
-6.53809e-12
0.0168001
3.42268e-10
-4.71745e-16
0.0168001
1.84979e-09
-2.54508e-15
0.0168001
6.89167e-09
-5.36967e-15
0.0168
1.75664e-08
-1.13494e-14
0.0168
4.89979e-08
-1.95604e-14
0.0168
1.11312e-07
-3.61097e-14
0.0167998
3.01632e-07
-7.29048e-14
0.0167995
6.47911e-07
-1.27322e-13
0.0167985
1.91213e-06
-3.69353e-13
0.0167966
3.92436e-06
-5.92638e-13
0.0167895
1.32612e-05
-2.27692e-12
0.0167744
2.99825e-05
-4.24261e-12
0.0167065
0.000130275
-1.80399e-11
0.016518
0.000364882
-4.62575e-11
0.0154596
0.00210685
-1.35291e-10
0.014133
0.00262289
3.05161e-11
0.0129056
0.00247353
3.99021e-12
0.0116355
0.00256036
-8.91334e-12
0.0102903
0.00270319
-8.21133e-12
0.00883179
0.0029015
-6.49233e-12
0.00726288
0.00311584
-5.61247e-12
0.00558545
0.00334073
-5.52511e-12
0.00379556
0.00355047
-5.99304e-12
0.00191463
0.00374585
-6.07086e-12
0.00387885
-6.41185e-12
0.0168001
4.59505e-10
-4.6836e-16
0.0168001
2.5107e-09
-2.52983e-15
0.0168001
9.33321e-09
-5.32668e-15
0.0168
2.38155e-08
-1.125e-14
0.0168
6.61733e-08
-1.93574e-14
0.0168
1.49193e-07
-3.57451e-14
0.0167999
4.12451e-07
-7.20647e-14
0.0167997
8.29944e-07
-1.27213e-13
0.0167988
2.7861e-06
-3.64725e-13
0.0167979
4.89516e-06
-5.9745e-13
0.01679
2.06533e-05
-2.27525e-12
0.0167775
4.2538e-05
-4.21899e-12
0.0167107
0.000195312
-1.79159e-11
0.0165343
0.000537876
-4.58246e-11
0.0155714
0.00305737
-1.35755e-10
0.0142186
0.00397649
3.10674e-11
0.0129892
0.0037049
4.4082e-12
0.0117294
0.00382064
-8.68928e-12
0.0103949
0.00403934
-8.03244e-12
0.00893678
0.00435826
-6.37669e-12
0.0073596
0.00469204
-5.38453e-12
0.00566584
0.00503528
-5.19638e-12
0.00384794
0.00536188
-5.68648e-12
0.00194279
0.00564591
-5.76434e-12
0.0058206
-5.97198e-12
0.0168001
5.70797e-10
-4.45151e-16
0.0168001
3.16979e-09
-2.45538e-15
0.0168001
1.17502e-08
-5.04105e-15
0.0168
2.99963e-08
-1.03545e-14
0.0168
8.31591e-08
-1.74736e-14
0.0168
1.869e-07
-3.0441e-14
0.0167999
5.19178e-07
-6.13331e-14
0.0167997
1.00104e-06
-7.83498e-14
0.0167988
3.67488e-06
-3.7723e-13
0.0167984
5.38416e-06
-1.893e-13
0.0167901
2.84173e-05
-2.91677e-12
0.0167809
5.20733e-05
-3.14272e-12
0.0167239
0.00025062
-1.6191e-11
0.0165816
0.000676995
-4.51132e-11
0.0158317
0.00379527
-1.37597e-10
0.0144579
0.00535097
2.76343e-11
0.0132053
0.00495933
5.73839e-12
0.0119403
0.00508593
-8.06839e-12
0.0106097
0.00537166
-7.69282e-12
0.00915246
0.00581396
-6.28773e-12
0.00757082
0.00627239
-5.04001e-12
0.00586508
0.00674246
-4.70089e-12
0.00401263
0.00720718
-5.14607e-12
0.00203021
0.00762277
-5.18953e-12
0.00784971
-5.28228e-12
0.0168001
7.91097e-10
-4.49472e-16
0.0168001
4.27412e-09
-2.46746e-15
0.0168001
1.58931e-08
-5.1089e-15
0.0168
4.06049e-08
-1.05185e-14
0.0168
1.12419e-07
-1.80088e-14
0.0167999
2.56762e-07
-3.19388e-14
0.0167998
6.81093e-07
-6.38679e-14
0.0167993
1.48714e-06
-9.6031e-14
0.0167986
4.33153e-06
-3.63405e-13
0.0167962
7.85425e-06
-2.95785e-13
0.0167926
3.16406e-05
-2.48513e-12
0.0167828
6.21159e-05
-3.2328e-12
0.0167543
0.000277516
-1.50214e-11
0.0166736
0.000754836
-4.2725e-11
0.0163299
0.00412782
-1.34434e-10
0.0149351
0.00674608
2.45345e-11
0.0136085
0.00628749
5.64913e-12
0.0123115
0.00638291
-7.4304e-12
0.0109789
0.00670562
-7.43811e-12
0.00952058
0.00727111
-6.46243e-12
0.00792441
0.00786668
-4.49289e-12
0.0061803
0.00848783
-4.08963e-12
0.00427114
0.00910937
-4.44791e-12
0.00220052
0.00968772
-4.51787e-12
0.010049
-4.51898e-12
0.0168001
8.86815e-10
-4.55448e-16
0.0168001
4.8166e-09
-2.4852e-15
0.0168001
1.79213e-08
-5.19443e-15
0.0168
4.5896e-08
-1.07416e-14
0.0168
1.26792e-07
-1.86149e-14
0.0168
2.89833e-07
-3.37677e-14
0.0167999
7.62011e-07
-6.52845e-14
0.0167997
1.68797e-06
-1.20338e-13
0.0167994
4.5886e-06
-3.14199e-13
0.0167977
9.67885e-06
-4.78066e-13
0.0167974
3.15839e-05
-2.1277e-12
0.0167961
6.35394e-05
-3.18526e-12
0.016799
0.000273314
-1.53039e-11
0.0168209
0.000730644
-3.80847e-11
0.017151
0.00378798
-1.24718e-10
0.0157229
0.00817386
7.97792e-12
0.0142132
0.0077987
1.52307e-12
0.0128546
0.00774124
-7.48743e-12
0.0115035
0.00805759
-7.69482e-12
0.0100546
0.00871817
-7.0067e-12
0.00844468
0.00947385
-4.93488e-12
0.00666674
0.0102673
-3.99342e-12
0.00467386
0.0110964
-4.00158e-12
0.00243622
0.0119197
-3.92718e-12
0.0124839
-3.78744e-12
0.0168001
9.50837e-10
-4.43336e-16
0.0168001
5.18503e-09
-2.43087e-15
0.0168001
1.92827e-08
-5.0111e-15
0.0168001
4.94768e-08
-1.03417e-14
0.0168
1.36053e-07
-1.73529e-14
0.0168
3.11281e-07
-3.11166e-14
0.0168
8.10892e-07
-5.67326e-14
0.0167999
1.80533e-06
-1.03e-13
0.0167997
4.74779e-06
-2.43068e-13
0.0167989
1.04676e-05
-4.30532e-13
0.0168007
2.95514e-05
-1.51452e-12
0.0167959
6.84935e-05
-2.14324e-12
0.0168336
0.000234591
-1.06242e-11
0.016935
0.000627811
-2.54635e-11
0.0177815
0.00293685
-6.81278e-11
0.0166443
0.00930643
-4.3169e-11
0.0149386
0.00950394
-1.25376e-11
0.013537
0.00914301
-7.74441e-12
0.0121934
0.00940229
-7.79325e-12
0.0107462
0.0101651
-7.49173e-12
0.00913105
0.0110891
-5.48109e-12
0.0073107
0.0120872
-4.18333e-12
0.00523908
0.0131622
-3.95595e-12
0.0028423
0.0143111
-3.65879e-12
0.0153245
-3.1302e-12
0.0168001
1.05635e-09
-4.3899e-16
0.0168001
5.77641e-09
-2.40968e-15
0.0168001
2.15593e-08
-4.94805e-15
0.0168
5.53763e-08
-1.02002e-14
0.0168
1.53104e-07
-1.69457e-14
0.0168
3.51045e-07
-3.02559e-14
0.0167999
9.18156e-07
-5.41664e-14
0.0167996
2.06981e-06
-9.797e-14
0.0167991
5.23938e-06
-2.22674e-13
0.0167969
1.27129e-05
-4.16701e-13
0.0167971
2.91517e-05
-1.1954e-12
0.016786
7.9732e-05
-2.35862e-12
0.0168006
0.000219033
-7.91072e-12
0.0167969
0.000631133
-1.99441e-11
0.0170955
0.00263385
-5.88047e-11
0.0164857
0.00991033
-8.29161e-11
0.0151228
0.0108657
-2.82726e-11
0.0140264
0.0102386
-7.10656e-12
0.0128092
0.0106203
-7.22672e-12
0.0114693
0.011504
-7.63829e-12
0.00992444
0.0126329
-6.53702e-12
0.00814727
0.0138654
-5.06902e-12
0.00603834
0.0152678
-4.34899e-12
0.00343704
0.0169056
-3.72095e-12
0.0187597
-2.74624e-12
0.0168001
1.31244e-09
-4.47251e-16
0.0168001
6.0967e-09
-2.43835e-15
0.0168001
2.42863e-08
-5.08147e-15
0.0168001
5.86167e-08
-1.04631e-14
0.0168
1.70035e-07
-1.80271e-14
0.0168
3.74545e-07
-3.24186e-14
0.0167999
9.87976e-07
-6.20235e-14
0.0167998
2.26237e-06
-1.1939e-13
0.0167997
5.27262e-06
-2.20863e-13
0.0167997
1.27702e-05
-8.43487e-13
0.0167972
3.14259e-05
-5.25982e-13
0.0168084
6.87306e-05
-3.77875e-12
0.0167964
0.000230041
-5.1691e-12
0.0168036
0.000624519
-1.87663e-11
0.0169507
0.00248286
-4.85645e-11
0.016266
0.0105889
-9.0604e-11
0.0156504
0.0114807
-1.05532e-11
0.0144977
0.0113908
-5.75655e-12
0.0133033
0.011815
-6.54521e-12
0.0121576
0.0126492
-6.98559e-12
0.0107791
0.0140084
-7.183e-12
0.0091643
0.0154839
-5.61207e-12
0.00721926
0.0172097
-4.89014e-12
0.004515
0.0196036
-3.72177e-12
0.0232722
-2.57888e-12
0.0168001
-4.40266e-16
1.79974e-09
0.0168001
-2.38199e-15
1.72508e-09
0.0168001
-4.86995e-15
2.43155e-08
0.0168001
-1.02692e-14
2.18067e-08
0.0168001
-1.62079e-14
1.66286e-07
0.0168003
-2.95233e-14
1.38801e-07
0.0168003
-5.04272e-14
1.01894e-06
0.0168019
-9.22748e-14
6.82706e-07
0.0168002
-1.92912e-13
6.94722e-06
0.0168107
-3.7453e-13
2.43961e-06
0.0167895
-9.60127e-13
5.25289e-05
0.0168499
-2.19566e-12
8.44821e-06
0.0167051
-4.69949e-12
0.000374086
0.0169927
-1.94802e-11
0.000336527
0.0168839
-3.89792e-11
0.0025894
0.0165074
-9.78949e-11
0.0109584
0.0156542
-6.40578e-12
0.0123331
0.0147944
-3.70656e-12
0.0122503
0.0138934
-6.92826e-12
0.0127158
0.0129034
-7.10632e-12
0.0136398
0.0118335
-7.0656e-12
0.015076
0.0105737
-6.31343e-12
0.0167432
0.00881842
-5.02138e-12
0.018963
0.00621826
-3.52558e-12
0.0221987
-2.3574e-12
0.0294881
0.0168001
1.7413e-10
1.75194e-16
0.0168001
9.45953e-10
1.93927e-16
0.0168001
3.52258e-09
-2.3528e-17
0.0168
9.01983e-09
-5.09575e-17
0.0168
2.50369e-08
-1.73481e-16
0.0168
5.70887e-08
-3.49255e-16
0.0167998
1.53261e-07
-1.27968e-15
0.0167995
3.31731e-07
-2.22079e-15
0.0167984
9.62524e-07
-1.04192e-14
0.0167966
1.99029e-06
-1.53848e-14
0.0167894
6.57057e-06
-8.18529e-14
0.0167748
1.48509e-05
-1.51878e-13
0.0167088
6.4135e-05
-7.78545e-13
0.0165251
0.000180046
-2.11429e-12
0.0154516
0.00106091
-6.85823e-12
0.0141568
0.00129555
1.65248e-13
0.0129145
0.00124417
-1.20376e-13
0.0116252
0.00128977
-5.09621e-13
0.0102705
0.00135638
-5.36454e-13
0.0088251
0.0014442
-5.41829e-13
0.00727613
0.00154792
-3.75477e-13
0.00561533
0.00166213
-1.97857e-13
0.00384107
0.00176735
-2.1453e-13
0.00196604
0.00186986
-1.9775e-13
0.00196522
-1.63156e-13
0.0168001
3.4227e-10
1.74988e-16
0.0168001
1.8498e-09
1.94773e-16
0.0168001
6.89171e-09
-2.28258e-17
0.0168
1.75665e-08
-4.94557e-17
0.0168
4.89982e-08
-1.68899e-16
0.0168
1.11313e-07
-3.39979e-16
0.0167998
3.01634e-07
-1.25155e-15
0.0167995
6.47915e-07
-2.17106e-15
0.0167985
1.91214e-06
-1.02353e-14
0.0167966
3.92438e-06
-1.51003e-14
0.0167895
1.32612e-05
-8.08054e-14
0.0167744
2.99825e-05
-1.49575e-13
0.0167065
0.000130275
-7.68752e-13
0.016518
0.000364883
-2.0863e-12
0.0154596
0.00210685
-6.80047e-12
0.014133
0.00262289
1.77458e-13
0.0129056
0.00247352
-1.1281e-13
0.0116355
0.00256036
-5.10537e-13
0.0102903
0.00270319
-5.37312e-13
0.00883179
0.0029015
-5.43062e-13
0.00726289
0.00311585
-3.7676e-13
0.00558545
0.00334073
-1.99191e-13
0.00379556
0.00355047
-2.21841e-13
0.00191463
0.00374585
-2.04791e-13
0.00387885
-1.7529e-13
0.0168001
4.59516e-10
1.74509e-16
0.0168001
2.51074e-09
1.96717e-16
0.0168001
9.33337e-09
-2.12343e-17
0.0168
2.3816e-08
-4.59414e-17
0.0168
6.61745e-08
-1.59654e-16
0.0168
1.49196e-07
-3.22836e-16
0.0167999
4.12458e-07
-1.19972e-15
0.0167997
8.29972e-07
-2.12421e-15
0.0167988
2.78611e-06
-9.86456e-15
0.0167979
4.89536e-06
-1.4936e-14
0.01679
2.06531e-05
-7.91212e-14
0.0167775
4.25385e-05
-1.45325e-13
0.0167107
0.000195312
-7.48423e-13
0.0165343
0.000537878
-2.02712e-12
0.0155714
0.00305738
-6.69148e-12
0.0142186
0.00397648
1.9585e-13
0.0129892
0.0037049
-9.68434e-14
0.0117294
0.00382064
-5.13467e-13
0.0103949
0.00403934
-5.40048e-13
0.00893678
0.00435826
-5.48978e-13
0.0073596
0.00469204
-3.87597e-13
0.00566584
0.00503528
-2.1568e-13
0.00384794
0.00536188
-2.47642e-13
0.00194279
0.00564592
-2.34941e-13
0.00582061
-1.83498e-13
0.0168001
5.70796e-10
1.70899e-16
0.0168001
3.16979e-09
2.05864e-16
0.0168001
1.17502e-08
-1.19779e-17
0.0168
2.99962e-08
-2.39329e-17
0.0168
8.31589e-08
-9.027e-17
0.0168
1.869e-07
-1.53056e-16
0.0167999
5.19177e-07
-8.06141e-16
0.0167997
1.00103e-06
-3.65211e-16
0.0167988
3.67488e-06
-1.0074e-14
0.0167984
5.38413e-06
1.21983e-15
0.0167901
2.84175e-05
-1.02977e-13
0.0167809
5.20733e-05
-9.60695e-14
0.0167239
0.000250622
-7.6625e-13
0.0165816
0.000676998
-1.92065e-12
0.0158317
0.00379529
-6.48749e-12
0.0144579
0.00535096
1.83527e-13
0.0132052
0.00495933
-9.0061e-14
0.0119403
0.00508593
-5.23295e-13
0.0106097
0.00537166
-5.47743e-13
0.00915246
0.00581395
-5.57934e-13
0.00757082
0.00627239
-4.17971e-13
0.00586508
0.00674246
-2.47808e-13
0.00401263
0.00720718
-2.80171e-13
0.00203021
0.00762277
-2.7061e-13
0.00784972
-2.10131e-13
0.0168001
7.91094e-10
1.71605e-16
0.0168001
4.27411e-09
2.04244e-16
0.0168001
1.58931e-08
-1.4076e-17
0.0168
4.06048e-08
-2.92828e-17
0.0168
1.12419e-07
-1.0667e-16
0.0167999
2.56761e-07
-2.01137e-16
0.0167998
6.81092e-07
-8.79301e-16
0.0167993
1.48713e-06
-9.21317e-16
0.0167986
4.33155e-06
-9.48161e-15
0.0167962
7.85418e-06
-1.80269e-15
0.0167926
3.16408e-05
-9.22467e-14
0.0167828
6.21161e-05
-9.32723e-14
0.0167543
0.000277518
-6.90583e-13
0.0166736
0.000754842
-1.74329e-12
0.0163298
0.00412786
-6.05102e-12
0.0149351
0.00674607
-3.35846e-14
0.0136085
0.00628748
-1.60539e-13
0.0123114
0.0063829
-5.42498e-13
0.0109789
0.00670562
-5.62833e-13
0.00952057
0.00727111
-5.78522e-13
0.00792441
0.00786668
-4.33259e-13
0.0061803
0.00848783
-2.8624e-13
0.00427113
0.00910938
-3.10006e-13
0.00220052
0.00968772
-3.1946e-13
0.010049
-2.55994e-13
0.0168001
8.8682e-10
1.72339e-16
0.0168001
4.81662e-09
2.01336e-16
0.0168001
1.79214e-08
-1.83705e-17
0.0168
4.58962e-08
-4.00359e-17
0.0168
1.26793e-07
-1.35515e-16
0.0168
2.89835e-07
-2.83923e-16
0.0167999
7.62016e-07
-9.60538e-16
0.0167997
1.68798e-06
-1.93039e-15
0.0167994
4.58864e-06
-7.59196e-15
0.0167977
9.67889e-06
-9.34407e-15
0.0167974
3.15843e-05
-6.89125e-14
0.0167961
6.35402e-05
-8.95151e-14
0.016799
0.000273317
-5.65633e-13
0.0168209
0.000730655
-1.46754e-12
0.017151
0.00378805
-5.25652e-12
0.0157228
0.00817385
-6.11924e-13
0.0142132
0.00779868
-3.94994e-13
0.0128546
0.00774123
-5.87584e-13
0.0115035
0.00805759
-5.89336e-13
0.0100546
0.00871816
-5.66436e-13
0.00844467
0.00947384
-4.61907e-13
0.00666674
0.0102673
-3.28401e-13
0.00467386
0.0110964
-3.39863e-13
0.00243622
0.0119197
-3.66699e-13
0.0124839
-3.16352e-13
0.0168001
9.50839e-10
1.7027e-16
0.0168001
5.18505e-09
2.06705e-16
0.0168001
1.92827e-08
-1.50628e-17
0.0168001
4.94769e-08
-3.26836e-17
0.0168
1.36053e-07
-1.08019e-16
0.0168
3.11282e-07
-2.24019e-16
0.0168
8.10893e-07
-7.41358e-16
0.0167999
1.80533e-06
-1.49505e-15
0.0167997
4.74781e-06
-5.26062e-15
0.0167989
1.04677e-05
-9.56365e-15
0.0168007
2.95516e-05
-4.33428e-14
0.0167959
6.84936e-05
-6.46506e-14
0.0168336
0.000234593
-3.57001e-13
0.016935
0.000627817
-9.36985e-13
0.0177815
0.00293688
-2.76448e-12
0.0166443
0.00930646
-2.40525e-12
0.0149386
0.00950393
-9.78444e-13
0.013537
0.009143
-6.60958e-13
0.0121934
0.00940228
-6.37917e-13
0.0107462
0.0101651
-5.9173e-13
0.00913104
0.0110891
-4.83871e-13
0.0073107
0.0120872
-3.47332e-13
0.00523908
0.0131622
-3.6374e-13
0.0028423
0.0143111
-4.17525e-13
0.0153245
-3.4564e-13
0.0168001
1.05634e-09
1.69615e-16
0.0168001
5.77639e-09
2.09002e-16
0.0168001
2.15592e-08
-1.31197e-17
0.0168
5.53762e-08
-2.84713e-17
0.0168
1.53104e-07
-9.38233e-17
0.0168
3.51044e-07
-1.94502e-16
0.0167999
9.18152e-07
-6.40353e-16
0.0167996
2.0698e-06
-1.30326e-15
0.0167991
5.23938e-06
-4.41889e-15
0.0167969
1.27127e-05
-8.73269e-15
0.0167971
2.9152e-05
-3.22238e-14
0.016786
7.97315e-05
-6.48232e-14
0.0168006
0.000219035
-2.58906e-13
0.0167969
0.000631135
-6.92665e-13
0.0170955
0.00263387
-2.2353e-12
0.0164857
0.00991035
-3.63697e-12
0.0151228
0.0108657
-1.60588e-12
0.0140264
0.0102386
-7.02631e-13
0.0128092
0.0106203
-6.50103e-13
0.0114693
0.011504
-5.7994e-13
0.00992444
0.0126329
-4.97684e-13
0.00814727
0.0138654
-3.72284e-13
0.00603834
0.0152678
-3.65364e-13
0.00343704
0.0169056
-4.38194e-13
0.0187597
-3.72474e-13
0.0168001
1.31244e-09
1.71228e-16
0.0168001
6.09674e-09
2.06777e-16
0.0168001
2.42864e-08
-1.34077e-17
0.0168001
5.86169e-08
-2.88957e-17
0.0168
1.70036e-07
-1.00224e-16
0.0168
3.74546e-07
-2.09532e-16
0.0167999
9.87983e-07
-7.05265e-16
0.0167998
2.26239e-06
-1.5997e-15
0.0167997
5.27263e-06
-3.99603e-15
0.0167997
1.27703e-05
-1.59258e-14
0.0167972
3.14259e-05
-1.78239e-14
0.0168084
6.87312e-05
-9.17521e-14
0.0167964
0.000230042
-1.87753e-13
0.0168036
0.000624521
-6.19681e-13
0.0169507
0.00248287
-1.79745e-12
0.0162661
0.0105889
-3.72425e-12
0.0156504
0.0114807
-9.88943e-13
0.0144977
0.0113908
-7.43615e-13
0.0133033
0.011815
-6.24094e-13
0.0121576
0.0126492
-5.8206e-13
0.0107791
0.0140084
-5.11988e-13
0.00916429
0.0154838
-3.85799e-13
0.00721926
0.0172097
-3.78513e-13
0.004515
0.0196036
-4.28841e-13
0.0232722
-3.12893e-13
0.0168001
1.70064e-16
1.79972e-09
0.0168001
2.12033e-16
1.72515e-09
0.0168001
-1.02898e-17
2.43154e-08
0.0168001
-2.2426e-17
2.18071e-08
0.0168001
-7.28245e-17
1.66286e-07
0.0168003
-1.52256e-16
1.38803e-07
0.0168003
-4.89587e-16
1.01894e-06
0.0168019
-1.05622e-15
6.82714e-07
0.0168002
-3.26166e-15
6.94725e-06
0.0168107
-6.92294e-15
2.43969e-06
0.0167895
-2.3273e-14
5.25291e-05
0.0168499
-5.61486e-14
8.44854e-06
0.0167051
-1.43602e-13
0.000374086
0.0169927
-6.12296e-13
0.00033653
0.0168839
-1.41028e-12
0.0025894
0.0165074
-3.79183e-12
0.0109585
0.0156542
-8.87371e-13
0.0123331
0.0147944
-7.03991e-13
0.0122503
0.0138934
-6.23143e-13
0.0127158
0.0129034
-5.75345e-13
0.0136398
0.0118335
-4.87815e-13
0.015076
0.0105737
-4.20882e-13
0.0167432
0.00881842
-3.71427e-13
0.018963
0.00621826
-3.65939e-13
0.0221987
-2.34736e-13
0.0294881
0.0168001
1.7413e-10
-5.62769e-18
0.0168001
9.45953e-10
-2.35763e-17
0.0168001
3.52258e-09
-7.88418e-17
0.0168
9.01983e-09
-1.5621e-16
0.0168
2.50369e-08
-4.24772e-16
0.0168
5.70887e-08
-7.75221e-16
0.0167998
1.53261e-07
-2.30746e-15
0.0167995
3.31731e-07
-3.95085e-15
0.0167984
9.62524e-07
-1.60514e-14
0.0167966
1.99029e-06
-2.43238e-14
0.0167894
6.57058e-06
-1.19138e-13
0.0167748
1.48509e-05
-2.21115e-13
0.0167088
6.4135e-05
-1.09973e-12
0.0165251
0.000180046
-2.936e-12
0.0154516
0.00106091
-9.60699e-12
0.0141568
0.00129555
5.72942e-13
0.0129145
0.00124417
-4.37088e-14
0.0116252
0.00128977
-6.52918e-13
0.0102705
0.00135638
-6.62914e-13
0.0088251
0.0014442
-7.00475e-13
0.00727613
0.00154792
-4.83617e-13
0.00561533
0.00166213
-2.49961e-13
0.00384107
0.00176735
-5.55631e-13
0.00196604
0.00186986
-2.47681e-13
0.00196522
-4.15567e-13
0.0168001
3.4227e-10
-5.58279e-18
0.0168001
1.8498e-09
-2.33137e-17
0.0168001
6.89171e-09
-7.79143e-17
0.0168
1.75665e-08
-1.54344e-16
0.0168
4.89982e-08
-4.20087e-16
0.0168
1.11313e-07
-7.66185e-16
0.0167998
3.01634e-07
-2.2821e-15
0.0167995
6.47915e-07
-3.90809e-15
0.0167985
1.91214e-06
-1.58915e-14
0.0167966
3.92438e-06
-2.40928e-14
0.0167895
1.32612e-05
-1.18354e-13
0.0167744
2.99825e-05
-2.19238e-13
0.0167065
0.000130275
-1.09113e-12
0.016518
0.000364883
-2.90905e-12
0.0154596
0.00210685
-9.54889e-12
0.014133
0.00262289
5.93828e-13
0.0129056
0.00247352
-2.94249e-14
0.0116355
0.00256036
-6.46781e-13
0.0102903
0.00270319
-6.55914e-13
0.00883179
0.0029015
-6.92093e-13
0.00726289
0.00311585
-4.79377e-13
0.00558545
0.00334073
-2.38003e-13
0.00379556
0.00355047
-5.53916e-13
0.00191463
0.00374585
-2.55029e-13
0.00387885
-4.21512e-13
0.0168001
4.59516e-10
-5.38967e-18
0.0168001
2.51074e-09
-2.24413e-17
0.0168001
9.33338e-09
-7.56866e-17
0.0168
2.38161e-08
-1.49838e-16
0.0168
6.61745e-08
-4.11017e-16
0.0168
1.49196e-07
-7.51311e-16
0.0167999
4.12458e-07
-2.24066e-15
0.0167997
8.29973e-07
-3.90438e-15
0.0167988
2.78611e-06
-1.55847e-14
0.0167979
4.89537e-06
-2.42348e-14
0.01679
2.0653e-05
-1.1745e-13
0.0167775
4.25385e-05
-2.16046e-13
0.0167107
0.000195312
-1.07378e-12
0.0165343
0.000537878
-2.85296e-12
0.0155714
0.00305738
-9.45871e-12
0.0142186
0.00397649
6.34072e-13
0.0129892
0.0037049
4.68846e-15
0.0117294
0.00382064
-6.41336e-13
0.0103949
0.00403934
-6.52575e-13
0.00893678
0.00435826
-6.92925e-13
0.0073596
0.00469204
-4.87534e-13
0.00566584
0.00503528
-2.38602e-13
0.00384794
0.00536188
-5.72862e-13
0.00194279
0.00564592
-2.774e-13
0.00582061
-3.9764e-13
0.0168001
5.70795e-10
-3.68629e-18
0.0168001
3.16979e-09
-1.63401e-17
0.0168001
1.17502e-08
-5.38713e-17
0.0168
2.99962e-08
-1.03684e-16
0.0168
8.31589e-08
-2.92598e-16
0.0168
1.869e-07
-4.84692e-16
0.0167999
5.19177e-07
-1.69742e-15
0.0167997
1.00103e-06
-1.39565e-15
0.0167988
3.67488e-06
-1.6197e-14
0.0167984
5.38413e-06
-1.79351e-15
0.0167901
2.84175e-05
-1.53279e-13
0.0167809
5.20733e-05
-1.51508e-13
0.0167239
0.000250622
-1.11928e-12
0.0165816
0.000676998
-2.75214e-12
0.0158317
0.00379529
-9.31553e-12
0.0144579
0.00535096
6.25473e-13
0.0132052
0.00495933
5.07988e-14
0.0119403
0.00508593
-6.3972e-13
0.0106097
0.00537166
-6.53937e-13
0.00915246
0.00581395
-6.98999e-13
0.00757082
0.00627239
-5.21991e-13
0.00586508
0.00674246
-2.4247e-13
0.00401263
0.00720718
-5.72611e-13
0.00203021
0.00762277
-2.70958e-13
0.00784972
-3.75851e-13
0.0168001
7.91094e-10
-4.37493e-18
0.0168001
4.27411e-09
-1.87338e-17
0.0168001
1.58931e-08
-6.21155e-17
0.0168
4.06048e-08
-1.21153e-16
0.0168
1.12419e-07
-3.34339e-16
0.0167999
2.56761e-07
-5.85262e-16
0.0167998
6.81092e-07
-1.85636e-15
0.0167993
1.48713e-06
-2.32053e-15
0.0167986
4.33155e-06
-1.56295e-14
0.0167962
7.85418e-06
-6.73575e-15
0.0167926
3.16408e-05
-1.40166e-13
0.0167828
6.21161e-05
-1.51812e-13
0.0167543
0.000277518
-1.02947e-12
0.0166736
0.000754843
-2.55158e-12
0.0163298
0.00412787
-8.84789e-12
0.0149351
0.00674607
3.0988e-13
0.0136085
0.00628748
-5.61391e-15
0.0123114
0.0063829
-6.50495e-13