/*--------------------------------*- C++ -*----------------------------------*\
| =========                 |                                                 |
| \\      /  F ield         | OpenFOAM: The Open Source CFD Toolbox           |
|  \\    /   O peration     | Version:  4.1                                   |
|   \\  /    A nd           | Web:      www.OpenFOAM.org                      |
|    \\/     M anipulation  |                                                 |
\*---------------------------------------------------------------------------*/
FoamFile
{
    version     2.0;
    format      ascii;
    class       volScalarField;
    location    "2.96";
    object      T;
}
// * * * * * * * * * * * * * * * * * * * * * * * * * * * * * * * * * * * * * //

dimensions      [0 0 0 1 0 0 0];

internalField   nonuniform List<scalar> 
52500
(
0.999995
1.00002
1.00004
1.00015
1.00027
1.00087
1.00162
1.00479
1.01006
1.02595
1.07002
1.15498
1.48377
2.24412
2.63732
2.73225
2.72594
2.7203
2.73576
2.74574
2.7617
2.76733
2.77611
2.78732
2.79227
0.999995
1.00002
1.00004
1.00014
1.00027
1.00086
1.0016
1.00474
1.00991
1.02563
1.06893
1.15296
1.47543
2.22964
2.63333
2.73204
2.72559
2.71962
2.73495
2.74483
2.76051
2.76592
2.77474
2.78472
2.78919
0.999995
1.00002
1.00004
1.00014
1.00026
1.00084
1.00155
1.00462
1.00961
1.02495
1.06664
1.14879
1.45748
2.19755
2.62281
2.73031
2.72375
2.71714
2.73243
2.74236
2.75782
2.76286
2.77143
2.78223
2.78576
0.999995
1.00002
1.00004
1.00013
1.00025
1.00081
1.00149
1.00449
1.00914
1.02419
1.06276
1.14252
1.42918
2.14618
2.60557
2.72674
2.71997
2.71221
2.72747
2.73768
2.75353
2.75893
2.76614
2.77536
2.78107
0.999995
1.00001
1.00003
1.00013
1.00024
1.00078
1.00141
1.0044
1.00852
1.02353
1.05706
1.13427
1.39129
2.07367
2.58148
2.72075
2.71405
2.70354
2.71942
2.72756
2.74389
2.75011
2.75962
2.76943
2.77114
0.999995
1.00001
1.00003
1.00012
1.00022
1.00072
1.00131
1.00409
1.00785
1.02221
1.05116
1.12461
1.34956
1.98511
2.54785
2.7128
2.70579
2.69434
2.7116
2.71965
2.73381
2.73869
2.74547
2.75471
2.76122
0.999995
1.00001
1.00003
1.00011
1.0002
1.00066
1.00121
1.00377
1.00717
1.02058
1.04579
1.11565
1.30811
1.90264
2.49777
2.69654
2.68792
2.67805
2.69649
2.70641
2.72168
2.72523
2.73297
2.7419
2.74102
0.999995
1.00001
1.00002
1.0001
1.00018
1.0006
1.00109
1.00343
1.0065
1.01874
1.04154
1.10453
1.27986
1.80722
2.4878
2.68661
2.67639
2.66403
2.67984
2.68791
2.70294
2.70686
2.70748
2.71318
2.71651
0.999994
1.00001
1.00002
1.00009
1.00016
1.00053
1.00097
1.00303
1.00581
1.01612
1.03815
1.09026
1.25969
1.68035
2.45169
2.67321
2.66189
2.66049
2.66468
2.67011
2.68228
2.6854
2.68614
2.68419
2.66349
0.999994
1
1.00002
1.00007
1.00013
1.00043
1.00083
1.00234
1.00519
1.01278
1.03505
1.07677
1.23917
1.58411
2.35114
2.64064
2.65738
2.65386
2.65188
2.65504
2.65595
2.65366
2.6439
2.62583
2.58201
1
1.00002
1.00005
1.00015
1.00028
1.00088
1.00163
1.0048
1.01007
1.02597
1.07004
1.15502
1.4838
2.24425
2.6374
2.73232
2.72602
2.72037
2.73584
2.74582
2.76178
2.76741
2.77618
2.78739
2.79236
1
1.00002
1.00005
1.00015
1.00027
1.00087
1.00161
1.00475
1.00992
1.02564
1.06894
1.153
1.47547
2.22977
2.63341
2.73211
2.72566
2.7197
2.73502
2.74491
2.76058
2.766
2.77482
2.78479
2.78927
1
1.00002
1.00004
1.00015
1.00027
1.00085
1.00156
1.00463
1.00962
1.02497
1.06666
1.14883
1.45751
2.19768
2.62289
2.73038
2.72382
2.71721
2.73251
2.74243
2.75789
2.76294
2.77151
2.7823
2.78584
1
1.00002
1.00004
1.00014
1.00026
1.00082
1.0015
1.00451
1.00915
1.02421
1.06276
1.14256
1.42917
2.14626
2.60564
2.72681
2.72004
2.71228
2.72754
2.73775
2.7536
2.75901
2.76621
2.77543
2.78115
1
1.00002
1.00004
1.00014
1.00025
1.00078
1.00142
1.00441
1.00853
1.02355
1.05706
1.1343
1.39129
2.07376
2.58154
2.72083
2.71413
2.70361
2.71949
2.72763
2.74395
2.75018
2.75969
2.7695
2.77122
1
1.00002
1.00004
1.00013
1.00023
1.00073
1.00132
1.0041
1.00785
1.02222
1.05117
1.12464
1.34958
1.9852
2.54791
2.71286
2.70586
2.69441
2.71167
2.71972
2.73388
2.73877
2.74554
2.75477
2.76129
1
1.00002
1.00004
1.00012
1.00021
1.00067
1.00122
1.00377
1.00718
1.02059
1.0458
1.11568
1.30813
1.90271
2.49784
2.69661
2.68798
2.67811
2.69655
2.70648
2.72176
2.7253
2.73304
2.74197
2.74109
1
1.00002
1.00003
1.00011
1.00019
1.00061
1.0011
1.00343
1.00651
1.01875
1.04155
1.10456
1.27987
1.8073
2.48785
2.68668
2.67647
2.66409
2.67991
2.68797
2.703
2.70693
2.70754
2.71324
2.71658
1
1.00001
1.00003
1.00009
1.00017
1.00054
1.00097
1.00304
1.00582
1.01614
1.03815
1.09028
1.25967
1.68043
2.45174
2.67328
2.66193
2.66056
2.66475
2.67018
2.68234
2.68546
2.68621
2.68425
2.66355
1
1.00001
1.00002
1.00008
1.00014
1.00044
1.00084
1.00235
1.00519
1.0128
1.03506
1.07679
1.23918
1.58417
2.3512
2.64071
2.65743
2.65391
2.65194
2.65511
2.65601
2.65372
2.64396
2.62588
2.58206
1
1.00002
1.00005
1.00015
1.00028
1.00088
1.00163
1.0048
1.01007
1.02597
1.07004
1.15502
1.48381
2.24425
2.6374
2.73232
2.72602
2.72037
2.73584
2.74582
2.76178
2.76741
2.77618
2.78739
2.79236
1
1.00002
1.00005
1.00015
1.00027
1.00087
1.00161
1.00475
1.00992
1.02564
1.06894
1.153
1.47547
2.22977
2.63341
2.73211
2.72566
2.7197
2.73502
2.74491
2.76058
2.766
2.77482
2.78479
2.78927
1
1.00002
1.00004
1.00015
1.00027
1.00085
1.00156
1.00463
1.00962
1.02497
1.06666
1.14883
1.45752
2.19768
2.62289
2.73039
2.72382
2.71721
2.73251
2.74243
2.75789
2.76294
2.77151
2.7823
2.78584
1
1.00002
1.00004
1.00014
1.00026
1.00082
1.0015
1.00451
1.00915
1.02421
1.06276
1.14256
1.42917
2.14627
2.60564
2.72681
2.72004
2.71228
2.72754
2.73775
2.7536
2.75901
2.76621
2.77543
2.78115
1
1.00002
1.00004
1.00014
1.00025
1.00078
1.00142
1.00441
1.00853
1.02355
1.05706
1.1343
1.39129
2.07376
2.58154
2.72083
2.71413
2.70361
2.71949
2.72763
2.74395
2.75018
2.75969
2.7695
2.77122
1
1.00002
1.00004
1.00013
1.00023
1.00073
1.00132
1.0041
1.00785
1.02222
1.05117
1.12464
1.34958
1.9852
2.54791
2.71287
2.70586
2.69441
2.71167
2.71972
2.73388
2.73877
2.74554
2.75477
2.76129
1
1.00002
1.00004
1.00012
1.00021
1.00067
1.00122
1.00377
1.00718
1.02059
1.0458
1.11568
1.30813
1.90271
2.49784
2.69661
2.68798
2.67811
2.69655
2.70648
2.72176
2.7253
2.73304
2.74197
2.74109
1
1.00002
1.00003
1.00011
1.00019
1.00061
1.0011
1.00343
1.00651
1.01875
1.04155
1.10456
1.27988
1.8073
2.48785
2.68668
2.67647
2.6641
2.67991
2.68797
2.703
2.70693
2.70754
2.71324
2.71658
1
1.00001
1.00003
1.00009
1.00017
1.00054
1.00097
1.00304
1.00582
1.01614
1.03815
1.09029
1.25967
1.68043
2.45174
2.67328
2.66193
2.66056
2.66475
2.67018
2.68234
2.68547
2.68621
2.68425
2.66355
1
1.00001
1.00002
1.00008
1.00014
1.00044
1.00084
1.00235
1.0052
1.0128
1.03506
1.07679
1.23918
1.58417
2.3512
2.64071
2.65743
2.65391
2.65194
2.65511
2.65601
2.65372
2.64396
2.62588
2.58206
1
1.00002
1.00005
1.00015
1.00028
1.00088
1.00163
1.0048
1.01007
1.02597
1.07004
1.15502
1.48381
2.24425
2.6374
2.73232
2.72602
2.72037
2.73584
2.74582
2.76178
2.76741
2.77618
2.78739
2.79236
1
1.00002
1.00005
1.00015
1.00027
1.00087
1.00161
1.00475
1.00992
1.02564
1.06894
1.153
1.47547
2.22977
2.63341
2.73211
2.72566
2.7197
2.73502
2.74491
2.76058
2.766
2.77482
2.78479
2.78927
1
1.00002
1.00004
1.00015
1.00027
1.00085
1.00156
1.00463
1.00962
1.02497
1.06666
1.14883
1.45752
2.19768
2.62289
2.73039
2.72382
2.71721
2.73251
2.74243
2.75789
2.76294
2.77151
2.7823
2.78584
1
1.00002
1.00004
1.00014
1.00026
1.00082
1.0015
1.00451
1.00915
1.02421
1.06276
1.14256
1.42917
2.14627
2.60564
2.72681
2.72004
2.71228
2.72754
2.73775
2.7536
2.75901
2.76621
2.77543
2.78115
1
1.00002
1.00004
1.00014
1.00025
1.00078
1.00142
1.00441
1.00853
1.02355
1.05706
1.1343
1.39129
2.07376
2.58154
2.72083
2.71413
2.70361
2.71949
2.72763
2.74395
2.75018
2.75969
2.7695
2.77122
1
1.00002
1.00004
1.00013
1.00023
1.00073
1.00132
1.0041
1.00785
1.02222
1.05117
1.12464
1.34958
1.9852
2.54791
2.71287
2.70586
2.69441
2.71167
2.71972
2.73388
2.73877
2.74554
2.75477
2.76129
1
1.00002
1.00004
1.00012
1.00021
1.00067
1.00122
1.00377
1.00718
1.02059
1.0458
1.11568
1.30813
1.90271
2.49784
2.69661
2.68798
2.67811
2.69655
2.70648
2.72176
2.7253
2.73304
2.74197
2.74109
1
1.00002
1.00003
1.00011
1.00019
1.00061
1.0011
1.00343
1.00651
1.01875
1.04155
1.10456
1.27988
1.8073
2.48785
2.68668
2.67647
2.6641
2.67991
2.68797
2.703
2.70693
2.70754
2.71324
2.71658
1
1.00001
1.00003
1.00009
1.00017
1.00054
1.00097
1.00304
1.00582
1.01614
1.03815
1.09029
1.25967
1.68043
2.45174
2.67328
2.66193
2.66056
2.66475
2.67018
2.68234
2.68547
2.68621
2.68425
2.66355
1
1.00001
1.00002
1.00008
1.00014
1.00044
1.00084
1.00235
1.0052
1.0128
1.03506
1.07679
1.23918
1.58417
2.3512
2.64071
2.65743
2.65391
2.65194
2.65511
2.65601
2.65372
2.64396
2.62588
2.58206
1
1.00002
1.00005
1.00015
1.00028
1.00088
1.00163
1.0048
1.01007
1.02597
1.07004
1.15502
1.48381
2.24425
2.6374
2.73232
2.72602
2.72037
2.73584
2.74582
2.76178
2.76741
2.77618
2.78739
2.79236
1
1.00002
1.00005
1.00015
1.00027
1.00087
1.00161
1.00475
1.00992
1.02564
1.06894
1.153
1.47547
2.22977
2.63341
2.73211
2.72566
2.7197
2.73502
2.74491
2.76058
2.766
2.77482
2.78479
2.78927
1
1.00002
1.00004
1.00015
1.00027
1.00085
1.00156
1.00463
1.00962
1.02497
1.06666
1.14883
1.45752
2.19768
2.62289
2.73039
2.72382
2.71721
2.73251
2.74243
2.75789
2.76294
2.77151
2.7823
2.78584
1
1.00002
1.00004
1.00014
1.00026
1.00082
1.0015
1.00451
1.00915
1.02421
1.06276
1.14256
1.42917
2.14627
2.60564
2.72681
2.72004
2.71228
2.72754
2.73775
2.7536
2.75901
2.76621
2.77543
2.78115
1
1.00002
1.00004
1.00014
1.00025
1.00078
1.00142
1.00441
1.00853
1.02355
1.05706
1.1343
1.39129
2.07376
2.58154
2.72083
2.71413
2.70361
2.71949
2.72763
2.74395
2.75018
2.75969
2.7695
2.77122
1
1.00002
1.00004
1.00013
1.00023
1.00073
1.00132
1.0041
1.00785
1.02222
1.05117
1.12464
1.34958
1.9852
2.54791
2.71287
2.70586
2.69441
2.71167
2.71972
2.73388
2.73877
2.74554
2.75477
2.76129
1
1.00002
1.00004
1.00012
1.00021
1.00067
1.00122
1.00377
1.00718
1.02059
1.0458
1.11568
1.30813
1.90271
2.49784
2.69661
2.68798
2.67811
2.69655
2.70648
2.72176
2.7253
2.73304
2.74197
2.74109
1
1.00002
1.00003
1.00011
1.00019
1.00061
1.0011
1.00343
1.00651
1.01875
1.04155
1.10456
1.27988
1.8073
2.48785
2.68668
2.67647
2.6641
2.67991
2.68797
2.703
2.70693
2.70754
2.71324
2.71658
1
1.00001
1.00003
1.00009
1.00017
1.00054
1.00097
1.00304
1.00582
1.01614
1.03815
1.09029
1.25967
1.68043
2.45174
2.67328
2.66193
2.66056
2.66475
2.67018
2.68234
2.68547
2.68621
2.68425
2.66355
1
1.00001
1.00002
1.00008
1.00014
1.00044
1.00084
1.00235
1.0052
1.0128
1.03506
1.07679
1.23918
1.58417
2.3512
2.64071
2.65743
2.65391
2.65194
2.65511
2.65601
2.65372
2.64396
2.62588
2.58206
1
1.00002
1.00005
1.00015
1.00028
1.00088
1.00163
1.0048
1.01007
1.02597
1.07004
1.15502
1.48381
2.24425
2.6374
2.73232
2.72602
2.72037
2.73584
2.74582
2.76178
2.76741
2.77618
2.78739
2.79236
1
1.00002
1.00005
1.00015
1.00027
1.00087
1.00161
1.00475
1.00992
1.02564
1.06894
1.153
1.47547
2.22977
2.63341
2.73211
2.72566
2.7197
2.73502
2.74491
2.76058
2.766
2.77482
2.78479
2.78927
1
1.00002
1.00004
1.00015
1.00027
1.00085
1.00156
1.00463
1.00962
1.02497
1.06666
1.14883
1.45752
2.19768
2.62289
2.73039
2.72382
2.71721
2.73251
2.74243
2.75789
2.76294
2.77151
2.7823
2.78584
1
1.00002
1.00004
1.00014
1.00026
1.00082
1.0015
1.00451
1.00915
1.02421
1.06276
1.14256
1.42917
2.14627
2.60564
2.72681
2.72004
2.71228
2.72754
2.73775
2.7536
2.75901
2.76621
2.77543
2.78115
1
1.00002
1.00004
1.00014
1.00025
1.00078
1.00142
1.00441
1.00853
1.02355
1.05706
1.1343
1.39129
2.07376
2.58154
2.72083
2.71413
2.70361
2.71949
2.72763
2.74395
2.75018
2.75969
2.7695
2.77122
1
1.00002
1.00004
1.00013
1.00023
1.00073
1.00132
1.0041
1.00785
1.02222
1.05117
1.12464
1.34958
1.9852
2.54791
2.71287
2.70586
2.69441
2.71167
2.71972
2.73388
2.73877
2.74554
2.75477
2.76129
1
1.00002
1.00004
1.00012
1.00021
1.00067
1.00122
1.00377
1.00718
1.02059
1.0458
1.11568
1.30813
1.90271
2.49784
2.69661
2.68798
2.67811
2.69655
2.70648
2.72176
2.7253
2.73304
2.74197
2.74109
1
1.00002
1.00003
1.00011
1.00019
1.00061
1.0011
1.00343
1.00651
1.01875
1.04155
1.10456
1.27988
1.8073
2.48785
2.68668
2.67647
2.6641
2.67991
2.68797
2.703
2.70693
2.70754
2.71324
2.71658
1
1.00001
1.00003
1.00009
1.00017
1.00054
1.00097
1.00304
1.00582
1.01614
1.03815
1.09029
1.25967
1.68043
2.45174
2.67328
2.66193
2.66056
2.66475
2.67018
2.68234
2.68547
2.68621
2.68425
2.66355
1
1.00001
1.00002
1.00008
1.00014
1.00044
1.00084
1.00235
1.0052
1.0128
1.03506
1.07679
1.23918
1.58417
2.3512
2.64071
2.65743
2.65391
2.65194
2.65511
2.65601
2.65372
2.64396
2.62588
2.58206
1
1.00002
1.00005
1.00015
1.00028
1.00088
1.00163
1.0048
1.01007
1.02597
1.07004
1.15502
1.48381
2.24425
2.6374
2.73232
2.72602
2.72037
2.73584
2.74582
2.76178
2.76741
2.77618
2.78739
2.79236
1
1.00002
1.00005
1.00015
1.00027
1.00087
1.00161
1.00475
1.00992
1.02564
1.06894
1.153
1.47547
2.22977
2.63341
2.73211
2.72566
2.7197
2.73502
2.74491
2.76058
2.766
2.77482
2.78479
2.78927
1
1.00002
1.00004
1.00015
1.00027
1.00085
1.00156
1.00463
1.00962
1.02497
1.06666
1.14883
1.45752
2.19768
2.62289
2.73039
2.72382
2.71721
2.73251
2.74243
2.75789
2.76294
2.77151
2.7823
2.78584
1
1.00002
1.00004
1.00014
1.00026
1.00082
1.0015
1.00451
1.00915
1.02421
1.06276
1.14256
1.42917
2.14627
2.60564
2.72681
2.72004
2.71228
2.72754
2.73775
2.7536
2.75901
2.76621
2.77543
2.78115
1
1.00002
1.00004
1.00014
1.00025
1.00078
1.00142
1.00441
1.00853
1.02355
1.05706
1.1343
1.39129
2.07376
2.58154
2.72083
2.71413
2.70361
2.71949
2.72763
2.74395
2.75018
2.75969
2.7695
2.77122
1
1.00002
1.00004
1.00013
1.00023
1.00073
1.00132
1.0041
1.00785
1.02222
1.05117
1.12464
1.34958
1.9852
2.54791
2.71287
2.70586
2.69441
2.71167
2.71972
2.73388
2.73877
2.74554
2.75477
2.76129
1
1.00002
1.00004
1.00012
1.00021
1.00067
1.00122
1.00377
1.00718
1.02059
1.0458
1.11568
1.30813
1.90271
2.49784
2.69661
2.68798
2.67811
2.69655
2.70648
2.72176
2.7253
2.73304
2.74197
2.74109
1
1.00002
1.00003
1.00011
1.00019
1.00061
1.0011
1.00343
1.00651
1.01875
1.04155
1.10456
1.27988
1.8073
2.48785
2.68668
2.67647
2.6641
2.67991
2.68797
2.703
2.70693
2.70754
2.71324
2.71658
1
1.00001
1.00003
1.00009
1.00017
1.00054
1.00097
1.00304
1.00582
1.01614
1.03815
1.09029
1.25967
1.68043
2.45174
2.67328
2.66193
2.66056
2.66475
2.67018
2.68234
2.68547
2.68621
2.68425
2.66355
1
1.00001
1.00002
1.00008
1.00014
1.00044
1.00084
1.00235
1.0052
1.0128
1.03506
1.07679
1.23918
1.58417
2.3512
2.64071
2.65743
2.65391
2.65194
2.65511
2.65601
2.65372
2.64396
2.62588
2.58206
1
1.00002
1.00005
1.00015
1.00028
1.00088
1.00163
1.0048
1.01007
1.02597
1.07004
1.15502
1.48381
2.24425
2.6374
2.73232
2.72602
2.72037
2.73584
2.74582
2.76178
2.76741
2.77618
2.78739
2.79236
1
1.00002
1.00005
1.00015
1.00027
1.00087
1.00161
1.00475
1.00992
1.02564
1.06894
1.153
1.47547
2.22977
2.63341
2.73211
2.72566
2.7197
2.73502
2.74491
2.76058
2.766
2.77482
2.78479
2.78927
1
1.00002
1.00004
1.00015
1.00027
1.00085
1.00156
1.00463
1.00962
1.02497
1.06666
1.14883
1.45752
2.19768
2.62289
2.73039
2.72382
2.71721
2.73251
2.74243
2.75789
2.76294
2.77151
2.7823
2.78584
1
1.00002
1.00004
1.00014
1.00026
1.00082
1.0015
1.00451
1.00915
1.02421
1.06276
1.14256
1.42917
2.14627
2.60564
2.72681
2.72004
2.71228
2.72754
2.73775
2.7536
2.75901
2.76621
2.77543
2.78115
1
1.00002
1.00004
1.00014
1.00025
1.00078
1.00142
1.00441
1.00853
1.02355
1.05706
1.1343
1.39129
2.07376
2.58154
2.72083
2.71413
2.70361
2.71949
2.72763
2.74395
2.75018
2.75969
2.7695
2.77122
1
1.00002
1.00004
1.00013
1.00023
1.00073
1.00132
1.0041
1.00785
1.02222
1.05117
1.12464
1.34958
1.9852
2.54791
2.71287
2.70586
2.69441
2.71167
2.71972
2.73388
2.73877
2.74554
2.75477
2.76129
1
1.00002
1.00004
1.00012
1.00021
1.00067
1.00122
1.00377
1.00718
1.02059
1.0458
1.11568
1.30813
1.90271
2.49784
2.69661
2.68798
2.67811
2.69655
2.70648
2.72176
2.7253
2.73304
2.74197
2.74109
1
1.00002
1.00003
1.00011
1.00019
1.00061
1.0011
1.00343
1.00651
1.01875
1.04155
1.10456
1.27988
1.8073
2.48785
2.68668
2.67647
2.6641
2.67991
2.68797
2.703
2.70693
2.70754
2.71324
2.71658
1
1.00001
1.00003
1.00009
1.00017
1.00054
1.00097
1.00304
1.00582
1.01614
1.03815
1.09029
1.25967
1.68043
2.45174
2.67328
2.66193
2.66056
2.66475
2.67018
2.68234
2.68547
2.68621
2.68425
2.66355
1
1.00001
1.00002
1.00008
1.00014
1.00044
1.00084
1.00235
1.0052
1.0128
1.03506
1.07679
1.23918
1.58417
2.3512
2.64071
2.65743
2.65391
2.65194
2.65511
2.65601
2.65372
2.64396
2.62588
2.58206
1
1.00002
1.00005
1.00015
1.00028
1.00088
1.00163
1.0048
1.01007
1.02597
1.07004
1.15502
1.4838
2.24425
2.6374
2.73232
2.72602
2.72037
2.73584
2.74582
2.76178
2.76741
2.77618
2.78739
2.79236
1
1.00002
1.00005
1.00015
1.00027
1.00087
1.00161
1.00475
1.00992
1.02564
1.06894
1.153
1.47547
2.22977
2.63341
2.73211
2.72566
2.7197
2.73502
2.74491
2.76058
2.766
2.77482
2.78479
2.78927
1
1.00002
1.00004
1.00015
1.00027
1.00085
1.00156
1.00463
1.00962
1.02497
1.06666
1.14883
1.45751
2.19768
2.62289
2.73038
2.72382
2.71721
2.73251
2.74243
2.75789
2.76294
2.77151
2.7823
2.78584
1
1.00002
1.00004
1.00014
1.00026
1.00082
1.0015
1.00451
1.00915
1.02421
1.06276
1.14256
1.42917
2.14626
2.60564
2.72681
2.72004
2.71228
2.72754
2.73775
2.7536
2.75901
2.76621
2.77543
2.78115
1
1.00002
1.00004
1.00014
1.00025
1.00078
1.00142
1.00441
1.00853
1.02355
1.05706
1.1343
1.39129
2.07376
2.58154
2.72083
2.71413
2.70361
2.71949
2.72763
2.74395
2.75018
2.75969
2.7695
2.77122
1
1.00002
1.00004
1.00013
1.00023
1.00073
1.00132
1.0041
1.00785
1.02222
1.05117
1.12464
1.34958
1.9852
2.54791
2.71286
2.70586
2.69441
2.71167
2.71972
2.73388
2.73877
2.74554
2.75477
2.76129
1
1.00002
1.00004
1.00012
1.00021
1.00067
1.00122
1.00377
1.00718
1.02059
1.0458
1.11568
1.30813
1.90271
2.49784
2.69661
2.68798
2.67811
2.69655
2.70648
2.72176
2.7253
2.73304
2.74197
2.74109
1
1.00002
1.00003
1.00011
1.00019
1.00061
1.0011
1.00343
1.00651
1.01875
1.04155
1.10456
1.27987
1.8073
2.48785
2.68668
2.67647
2.66409
2.67991
2.68797
2.703
2.70693
2.70754
2.71324
2.71658
1
1.00001
1.00003
1.00009
1.00017
1.00054
1.00097
1.00304
1.00582
1.01614
1.03815
1.09028
1.25967
1.68043
2.45174
2.67328
2.66193
2.66056
2.66475
2.67018
2.68234
2.68546
2.68621
2.68425
2.66355
1
1.00001
1.00002
1.00008
1.00014
1.00044
1.00084
1.00235
1.00519
1.0128
1.03506
1.07679
1.23918
1.58417
2.3512
2.64071
2.65743
2.65391
2.65194
2.65511
2.65601
2.65372
2.64396
2.62588
2.58206
0.999995
1.00002
1.00004
1.00015
1.00027
1.00087
1.00162
1.00479
1.01006
1.02595
1.07002
1.15498
1.48377
2.24412
2.63732
2.73225
2.72594
2.7203
2.73576
2.74574
2.7617
2.76733
2.77611
2.78732
2.79227
0.999995
1.00002
1.00004
1.00014
1.00027
1.00086
1.0016
1.00474
1.00991
1.02563
1.06893
1.15296
1.47543
2.22964
2.63333
2.73204
2.72559
2.71962
2.73495
2.74483
2.76051
2.76592
2.77474
2.78472
2.78919
0.999995
1.00002
1.00004
1.00014
1.00026
1.00084
1.00155
1.00462
1.00961
1.02495
1.06664
1.14879
1.45748
2.19755
2.62281
2.73031
2.72375
2.71714
2.73243
2.74236
2.75782
2.76286
2.77143
2.78223
2.78576
0.999995
1.00002
1.00004
1.00013
1.00025
1.00081
1.00149
1.00449
1.00914
1.02419
1.06276
1.14252
1.42918
2.14618
2.60557
2.72674
2.71997
2.71221
2.72747
2.73768
2.75353
2.75893
2.76614
2.77536
2.78107
0.999995
1.00001
1.00003
1.00013
1.00024
1.00078
1.00141
1.0044
1.00852
1.02353
1.05706
1.13427
1.39129
2.07367
2.58147
2.72075
2.71405
2.70354
2.71942
2.72756
2.74389
2.75011
2.75962
2.76943
2.77114
0.999995
1.00001
1.00003
1.00012
1.00022
1.00072
1.00131
1.00409
1.00785
1.02221
1.05116
1.12461
1.34956
1.98511
2.54785
2.7128
2.70579
2.69434
2.7116
2.71965
2.73381
2.73869
2.74547
2.75471
2.76122
0.999995
1.00001
1.00003
1.00011
1.0002
1.00066
1.00121
1.00377
1.00717
1.02058
1.04579
1.11565
1.30811
1.90264
2.49777
2.69654
2.68792
2.67805
2.69649
2.70641
2.72168
2.72523
2.73297
2.7419
2.74102
0.999995
1.00001
1.00002
1.0001
1.00018
1.0006
1.00109
1.00343
1.0065
1.01874
1.04154
1.10453
1.27986
1.80723
2.4878
2.68661
2.67639
2.66403
2.67984
2.68791
2.70294
2.70686
2.70748
2.71318
2.71651
0.999994
1.00001
1.00002
1.00009
1.00016
1.00053
1.00097
1.00303
1.00581
1.01612
1.03815
1.09026
1.25969
1.68035
2.45169
2.67321
2.66189
2.66049
2.66468
2.67011
2.68228
2.6854
2.68614
2.68419
2.66349
0.999994
1
1.00002
1.00007
1.00013
1.00043
1.00083
1.00234
1.00519
1.01278
1.03505
1.07677
1.23917
1.58411
2.35114
2.64064
2.65738
2.65386
2.65188
2.65504
2.65595
2.65366
2.6439
2.62583
2.58201
0.999996
1
1.00002
1.00005
1.00016
1.0003
1.00095
1.00184
1.00517
1.01155
1.02863
1.08003
1.1742
1.54272
2.32302
2.57694
2.64174
2.63736
2.63474
2.63728
2.63577
2.62733
2.60494
2.55258
2.36381
0.999996
0.999999
1.00002
1.00004
1.00014
1.00026
1.00085
1.00157
1.00464
1.00969
1.02507
1.06706
1.1494
1.45808
2.18993
2.52993
2.63341
2.62583
2.61317
2.60958
2.6036
2.58692
2.5514
2.48751
2.29505
0.999995
0.999998
1.00001
1.00003
1.00012
1.00023
1.00074
1.00134
1.00419
1.00801
1.02258
1.05272
1.12642
1.35941
1.99176
2.452
2.61591
2.61005
2.60108
2.59002
2.58026
2.55954
2.51243
2.44729
2.29069
0.999995
0.999997
1.00001
1.00003
1.0001
1.00019
1.00061
1.00111
1.00346
1.00653
1.01895
1.04085
1.10649
1.26837
1.80575
2.34404
2.57638
2.57376
2.5713
2.5601
2.54411
2.51828
2.47536
2.42206
2.30181
0.999994
0.999997
1.00001
1.00002
1.00008
1.00015
1.00048
1.00088
1.0027
1.0053
1.01438
1.03451
1.08124
1.22913
1.60535
2.27209
2.53732
2.55438
2.55252
2.54509
2.52524
2.49693
2.43511
2.38945
2.30122
0.999994
0.999997
1
1.00002
1.00004
1.00015
1.00029
1.00089
1.00172
1.00475
1.01077
1.02616
1.07365
1.15785
1.50022
2.20759
2.45163
2.51945
2.51249
2.50983
2.50057
2.48035
2.42906
2.36573
2.29411
0.999994
0.999996
0.999999
1.00002
1.00003
1.00013
1.00023
1.00076
1.00138
1.00429
1.00824
1.02283
1.05455
1.1284
1.36861
1.99681
2.38695
2.50568
2.49978
2.48751
2.46158
2.44306
2.41406
2.35789
2.29074
0.999993
0.999995
0.999997
1.00001
1.00002
1.00009
1.00018
1.00057
1.00106
1.00325
1.00625
1.01781
1.03887
1.1005
1.25122
1.75759
2.23411
2.46357
2.47208
2.46713
2.45066
2.4181
2.38548
2.33924
2.28108
0.999993
0.999993
0.999997
1
1.00002
1.00005
1.00017
1.00032
1.00101
1.00191
1.00547
1.01173
1.02963
1.07979
1.1752
1.52249
2.19597
2.40449
2.43722
2.42832
2.4211
2.40184
2.37262
2.33135
2.27787
0.999992
0.999993
0.999996
0.999999
1.00002
1.00004
1.00013
1.00024
1.00077
1.00143
1.00421
1.00874
1.02265
1.05905
1.13328
1.39096
2.02682
2.33584
2.41804
2.41194
2.39329
2.36927
2.34226
2.31173
2.26895
0.999992
0.999992
0.999993
0.999998
1
1.00003
1.00007
1.00022
1.00042
1.00126
1.00251
1.00669
1.01589
1.03758
1.10584
1.23614
1.6716
2.17991
2.38388
2.38906
2.37977
2.35787
2.32691
2.2943
2.26007
0.999992
0.999992
0.999993
0.999996
1
1.00002
1.00005
1.00016
1.0003
1.00096
1.00179
1.00519
1.01094
1.0278
1.07405
1.1622
1.4819
2.09941
2.32198
2.35688
2.35017
2.33397
2.30664
2.27362
2.23976
0.999991
0.999992
0.999993
0.999994
1
1.00001
1.00004
1.00008
1.00027
1.00052
1.00147
1.00315
1.00789
1.02051
1.04629
1.1352
1.30186
1.84115
2.2188
2.33283
2.33141
2.32036
2.2981
2.26572
2.232
0.999991
0.999991
0.999992
0.999993
0.999997
1
1.00003
1.00006
1.0002
1.00037
1.00116
1.00214
1.00643
1.0128
1.03395
1.08275
1.20006
1.51259
2.10294
2.27189
2.292
2.28849
2.27573
2.24936
2.21791
0.999991
0.999991
0.999991
0.999993
0.999994
1
1.00001
1.00005
1.0001
1.00032
1.0006
1.00182
1.00355
1.00959
1.02227
1.0531
1.14695
1.34477
1.8585
2.19813
2.27318
2.27097
2.26069
2.24063
2.20812
0.999991
0.999991
0.999991
0.999992
0.999993
0.999998
1
1.00003
1.00006
1.00022
1.0004
1.00126
1.00234
1.00686
1.01395
1.03606
1.09004
1.21207
1.53756
2.03366
2.22605
2.23892
2.23553
2.22172
2.19637
0.999991
0.999991
0.999991
0.999991
0.999993
0.999995
1
1.00001
1.00005
1.00011
1.00035
1.00065
1.00196
1.00378
1.01058
1.02314
1.05672
1.14699
1.36894
1.85155
2.15231
2.21708
2.21561
2.20512
2.18684
0.999991
0.999991
0.999991
0.999991
0.999992
0.999993
0.999998
1
1.00003
1.00007
1.00023
1.00042
1.00129
1.00241
1.00692
1.01444
1.03644
1.09506
1.21208
1.56594
1.99122
2.17282
2.18825
2.18494
2.17066
0.999991
0.999991
0.999991
0.999991
0.999991
0.999993
0.999995
1
1.00001
1.00006
1.00011
1.00035
1.00066
1.00196
1.00384
1.01059
1.0231
1.05775
1.14177
1.38175
1.81044
2.08619
2.15717
2.16186
2.15567
0.999991
0.999991
0.999991
0.999991
0.999991
0.999992
0.999994
0.999997
1.00001
1.00002
1.00009
1.00017
1.00053
1.001
1.00295
1.00577
1.01574
1.03476
1.08619
1.21211
1.5859
1.94414
2.10927
2.12939
2.12836
0.999991
0.999991
0.999991
0.999991
0.999991
0.999991
0.999993
0.999994
1
1.00001
1.00005
1.00011
1.00034
1.00063
1.00191
1.00359
1.01024
1.02138
1.05394
1.13167
1.33811
1.75518
2.03193
2.1022
2.10673
0.999991
0.999991
0.999991
0.999991
0.999991
0.999991
0.999992
0.999994
0.999996
1.00001
1.00002
1.00008
1.00016
1.00049
1.00092
1.00269
1.00526
1.01431
1.03096
1.0785
1.1845
1.52119
1.87412
2.05842
2.07661
0.999991
0.999991
0.999991
0.999991
0.999991
0.999991
0.999991
0.999993
0.999994
1
1.00001
1.00005
1.00009
1.00031
1.00056
1.00173
1.00319
1.00925
1.01884
1.04761
1.11709
1.28223
1.68505
1.97041
2.05273
0.999991
0.999991
0.999991
0.999991
0.999991
0.999991
0.999991
0.999992
0.999993
0.999997
1
1.00003
1.00005
1.00018
1.00034
1.00103
1.0019
1.00559
1.01087
1.02899
1.06567
1.15948
1.39108
1.8208
1.99502
0.999991
0.999991
0.999991
0.999991
0.999991
0.999991
0.999991
0.999991
0.999992
0.999994
0.999998
1.00001
1.00003
1.00011
1.0002
1.00062
1.00114
1.00339
1.00647
1.01775
1.03932
1.09355
1.24265
1.63237
1.87997
0.999991
0.999991
0.999991
0.999991
0.999991
0.999991
0.999991
0.999991
0.999992
0.999992
0.999996
1
1.00002
1.00004
1.00014
1.00027
1.00082
1.00156
1.00438
1.00909
1.02282
1.05735
1.12613
1.344
1.75723
0.999991
0.999991
0.999991
0.999991
0.999991
0.999991
0.999991
0.999991
0.999991
0.999992
0.999993
0.999998
1
1.00003
1.00006
1.0002
1.00038
1.0011
1.00212
1.00584
1.01224
1.03078
1.07536
1.17277
1.43234
0.999991
0.999991
0.999991
0.999991
0.999991
0.999991
0.999991
0.999991
0.999991
0.999991
0.999992
0.999994
1
1.00001
1.00004
1.00009
1.00028
1.00052
1.00154
1.00292
1.00823
1.01671
1.04285
1.09903
1.25087
0.999991
0.999991
0.999991
0.999991
0.999991
0.999991
0.999991
0.999991
0.999991
0.999991
0.999992
0.999993
0.999996
1
1.00002
1.00005
1.00016
1.00029
1.00089
1.00163
1.00477
1.00925
1.02452
1.05557
1.13052
0.999991
0.999991
0.999991
0.999991
0.999991
0.999991
0.999991
0.999991
0.999991
0.999991
0.999991
0.999992
0.999993
0.999998
1
1.00003
1.00006
1.0002
1.00038
1.00111
1.00212
1.00586
1.01213
1.03029
1.07388
0.999991
0.999991
0.999991
0.999991
0.999991
0.999991
0.999991
0.999991
0.999991
0.999991
0.999991
0.999991
0.999992
0.999994
1
1.00001
1.00004
1.00009
1.00027
1.00051
1.00146
1.00284
1.00771
1.01624
1.04061
0.999991
0.999991
0.999991
0.999991
0.999991
0.999991
0.999991
0.999991
0.999991
0.999991
0.999991
0.999991
0.999991
0.999993
0.999995
1
1.00001
1.00006
1.00011
1.00035
1.00066
1.00188
1.00366
1.00991
1.02057
0.999991
0.999991
0.999991
0.999991
0.999991
0.999991
0.999991
0.999991
0.999991
0.999991
0.999991
0.999991
0.999991
0.999992
0.999993
0.999997
1
1.00003
1.00006
1.00019
1.00035
1.00102
1.00192
1.00538
1.01065
0.999991
0.999991
0.999991
0.999991
0.999991
0.999991
0.999991
0.999991
0.999991
0.999991
0.999991
0.999991
0.999991
0.999991
0.999992
0.999994
0.999999
1.00001
1.00004
1.00007
1.00023
1.00044
1.00126
1.00244
1.00655
0.999991
0.999991
0.999991
0.999991
0.999991
0.999991
0.999991
0.999991
0.999991
0.999991
0.999991
0.999991
0.999991
0.999991
0.999991
0.999993
0.999994
1
1.00001
1.00005
1.0001
1.00029
1.00056
1.0016
1.00311
0.999991
0.999991
0.999991
0.999991
0.999991
0.999991
0.999991
0.999991
0.999991
0.999991
0.999991
0.999991
0.999991
0.999991
0.999991
0.999992
0.999993
0.999995
1
1.00002
1.00006
1.00013
1.00038
1.00073
1.00205
0.999991
0.999991
0.999991
0.999991
0.999991
0.999991
0.999991
0.999991
0.999991
0.999991
0.999991
0.999991
0.999991
0.999991
0.999991
0.999991
0.999992
0.999994
0.999997
1.00001
1.00003
1.0001
1.00018
1.00056
1.00105
0.999991
0.999991
0.999991
0.999991
0.999991
0.999991
0.999991
0.999991
0.999991
0.999991
0.999991
0.999991
0.999991
0.999991
0.999991
0.999991
0.999992
0.999993
0.999995
1
1.00002
1.00007
1.00013
1.00042
1.00079
0.999991
0.999991
0.999991
0.999991
0.999991
0.999991
0.999991
0.999991
0.999991
0.999991
0.999991
0.999991
0.999991
0.999991
0.999991
0.999991
0.999992
0.999992
0.999996
1
1.00002
1.00004
1.00015
1.00029
1.0009
0.999991
0.999991
0.999991
0.999991
0.999991
0.999991
0.999991
0.999991
0.999991
0.999991
0.999991
0.999991
0.999991
0.999991
0.999991
0.999991
0.999992
0.999992
0.999995
0.999999
1.00002
1.00004
1.00015
1.00028
1.0009
1
1.00001
1.00003
1.00005
1.00017
1.00031
1.00096
1.00185
1.00518
1.01156
1.02865
1.08004
1.17424
1.54274
2.32311
2.57701
2.6418
2.6374
2.63479
2.63734
2.63583
2.62739
2.60499
2.55263
2.36384
1
1.00001
1.00003
1.00005
1.00015
1.00027
1.00085
1.00158
1.00465
1.0097
1.02508
1.06707
1.14944
1.4581
2.19003
2.53
2.63347
2.62588
2.61322
2.60964
2.60365
2.58697
2.55145
2.48756
2.29508
1
1.00001
1.00002
1.00004
1.00013
1.00023
1.00075
1.00135
1.0042
1.00802
1.0226
1.05273
1.12645
1.35942
1.99184
2.45207
2.61597
2.61011
2.60113
2.59008
2.58031
2.55959
2.51248
2.44733
2.29072
1
1.00001
1.00002
1.00003
1.00011
1.00019
1.00062
1.00112
1.00347
1.00654
1.01897
1.04086
1.10651
1.26839
1.8058
2.34409
2.57644
2.57382
2.57135
2.56014
2.54416
2.51833
2.47541
2.4221
2.30184
1
1
1.00001
1.00003
1.00009
1.00016
1.00049
1.00089
1.00271
1.00531
1.0144
1.03451
1.08127
1.22912
1.60541
2.27215
2.53738
2.55443
2.55257
2.54513
2.52528
2.49697
2.43514
2.3895
2.30126
1
1
1.00001
1.00003
1.00005
1.00016
1.00029
1.0009
1.00173
1.00476
1.01078
1.02618
1.07366
1.15788
1.50024
2.20767
2.45168
2.5195
2.51254
2.50988
2.50062
2.48039
2.42909
2.36576
2.29414
1
1
1.00001
1.00002
1.00004
1.00013
1.00024
1.00077
1.00138
1.0043
1.00825
1.02285
1.05455
1.12843
1.3686
1.99687
2.387
2.50574
2.49983
2.48756
2.46162
2.4431
2.4141
2.35793
2.29077
1
1
1.00001
1.00002
1.00003
1.0001
1.00019
1.00058
1.00107
1.00326
1.00626
1.01782
1.03888
1.10052
1.25123
1.75763
2.23416
2.46362
2.47213
2.46718
2.4507
2.41814
2.38552
2.33927
2.28111
1
1
1.00001
1.00001
1.00003
1.00006
1.00018
1.00033
1.00102
1.00192
1.00548
1.01174
1.02965
1.0798
1.17523
1.52252
2.19604
2.40454
2.43726
2.42836
2.42114
2.40188
2.37266
2.33138