/*--------------------------------*- C++ -*----------------------------------*\
| =========                 |                                                 |
| \\      /  F ield         | OpenFOAM: The Open Source CFD Toolbox           |
|  \\    /   O peration     | Version:  4.1                                   |
|   \\  /    A nd           | Web:      www.OpenFOAM.org                      |
|    \\/     M anipulation  |                                                 |
\*---------------------------------------------------------------------------*/
FoamFile
{
    version     2.0;
    format      ascii;
    class       volScalarField;
    location    "0.94";
    object      Ma;
}
// * * * * * * * * * * * * * * * * * * * * * * * * * * * * * * * * * * * * * //

dimensions      [0 0 0 0 0 0 0];

internalField   nonuniform List<scalar> 
52500
(
16.0633
1.83762
0.685495
0.442927
0.466957
0.513777
0.528712
0.527079
0.521617
0.515645
0.505464
0.492108
0.478119
0.475704
0.488017
0.494112
0.494031
0.478548
0.439343
0.389945
0.326719
0.242468
0.155397
0.0850355
0.0386272
18.3129
1.86241
0.698107
0.444838
0.467685
0.514315
0.528849
0.526904
0.521335
0.515333
0.505266
0.492324
0.478722
0.47665
0.489344
0.495935
0.496547
0.481601
0.442562
0.393496
0.330658
0.247158
0.16158
0.0946169
0.0563998
17.635
1.89766
0.712866
0.44177
0.466583
0.515007
0.530098
0.52843
0.523211
0.517609
0.508112
0.49615
0.483162
0.480899
0.493946
0.501165
0.502473
0.488313
0.449609
0.401233
0.339694
0.258707
0.177565
0.118145
0.0894514
13.5103
1.93624
0.730103
0.434676
0.463879
0.515819
0.532068
0.53097
0.526196
0.521091
0.512363
0.501749
0.489653
0.486729
0.500375
0.508537
0.510722
0.497781
0.46013
0.412882
0.353451
0.276346
0.200896
0.148812
0.125877
13.8315
2.02224
0.767727
0.431792
0.463108
0.519098
0.53631
0.53558
0.530914
0.526084
0.518249
0.509189
0.498089
0.494277
0.508369
0.518103
0.521337
0.509903
0.474073
0.428199
0.371564
0.299553
0.230624
0.185161
0.166149
11.1248
2.11168
0.806029
0.424504
0.461442
0.523611
0.542596
0.542188
0.537321
0.532598
0.525822
0.518251
0.508161
0.503523
0.517749
0.529859
0.534412
0.524456
0.491194
0.447072
0.394302
0.328716
0.267135
0.228081
0.212747
9.28926
2.23466
0.855692
0.418554
0.461487
0.530837
0.552198
0.551368
0.545605
0.540678
0.534954
0.528655
0.519685
0.5147
0.528547
0.543713
0.549809
0.540919
0.511592
0.469724
0.421756
0.363997
0.310765
0.279052
0.268906
7.97049
2.40045
0.918897
0.420117
0.466878
0.543311
0.566361
0.56359
0.555943
0.550411
0.545529
0.540175
0.532578
0.527708
0.540582
0.559058
0.56662
0.559462
0.535067
0.496084
0.454185
0.405701
0.362699
0.341094
0.340769
6.56231
2.54842
0.96201
0.427884
0.480101
0.562686
0.586076
0.579369
0.568411
0.561748
0.557363
0.552835
0.54702
0.542486
0.553555
0.574595
0.584098
0.580377
0.561627
0.526108
0.491665
0.454195
0.424531
0.417295
0.437124
5.53024
2.67765
0.977162
0.445368
0.50362
0.587423
0.60981
0.597761
0.582472
0.574266
0.570028
0.566391
0.562766
0.558506
0.566929
0.590036
0.602617
0.603117
0.589863
0.560786
0.533958
0.509642
0.499878
0.518396
0.599658
16.089
1.83789
0.685662
0.442968
0.46696
0.513755
0.528669
0.527022
0.521551
0.515556
0.505343
0.491963
0.477964
0.475578
0.487893
0.494001
0.493958
0.478525
0.439353
0.389957
0.326718
0.242426
0.155241
0.084689
0.0379308
18.2726
1.86246
0.698124
0.444788
0.467646
0.514292
0.528841
0.526909
0.521363
0.515388
0.505347
0.49244
0.478864
0.476729
0.489443
0.496068
0.496665
0.481734
0.442697
0.393577
0.33069
0.247131
0.161438
0.0943109
0.0559319
17.5922
1.8977
0.712917
0.441741
0.466548
0.514981
0.530087
0.528432
0.523235
0.517663
0.508183
0.49624
0.483271
0.480926
0.493977
0.501223
0.502522
0.488397
0.449714
0.401292
0.339711
0.258675
0.177436
0.117906
0.0891648
13.5462
1.9367
0.730317
0.434717
0.463874
0.5158
0.532049
0.530956
0.526193
0.5211
0.512373
0.501756
0.48966
0.486655
0.500287
0.508476
0.510668
0.49775
0.460123
0.412877
0.35344
0.276306
0.200777
0.148626
0.12568
13.8227
2.02237
0.767815
0.431774
0.463082
0.519069
0.536278
0.535542
0.53088
0.526053
0.518204
0.509129
0.498019
0.494208
0.508287
0.517991
0.521229
0.509797
0.473954
0.428107
0.371503
0.299491
0.23051
0.185009
0.166001
11.1312
2.11201
0.806191
0.42451
0.461423
0.523585
0.542561
0.542145
0.537274
0.532543
0.525736
0.518141
0.508029
0.503395
0.517637
0.529709
0.534256
0.524307
0.491033
0.446936
0.394202
0.32863
0.267021
0.227953
0.212629
9.28691
2.23486
0.855809
0.418537
0.46146
0.530809
0.552162
0.551325
0.545555
0.540612
0.534851
0.528533
0.519529
0.514546
0.528443
0.543541
0.549608
0.540721
0.511365
0.469552
0.421635
0.3639
0.310655
0.278939
0.268808
7.97115
2.40077
0.919052
0.420123
0.466858
0.543289
0.56633
0.56355
0.555893
0.550344
0.545427
0.54006
0.532414
0.527559
0.54054
0.558916
0.566427
0.559227
0.534776
0.495872
0.454048
0.4056
0.3626
0.340993
0.340685
6.56238
2.54866
0.962122
0.427891
0.480088
0.562669
0.586054
0.579336
0.568367
0.561685
0.557273
0.552731
0.546851
0.542339
0.553573
0.574526
0.583925
0.580125
0.561327
0.525876
0.491515
0.454096
0.42444
0.417203
0.437051
5.52928
2.67781
0.977198
0.445361
0.503609
0.587406
0.609793
0.597733
0.582434
0.574214
0.569955
0.566303
0.562621
0.558386
0.56698
0.590011
0.602462
0.602889
0.589611
0.560552
0.53381
0.509549
0.499791
0.518318
0.599601
16.0704
1.8379
0.685636
0.442922
0.466936
0.513748
0.528674
0.527028
0.521553
0.515562
0.505355
0.49196
0.477942
0.475567
0.487861
0.493937
0.49388
0.478392
0.439194
0.389834
0.326627
0.242348
0.155188
0.0846779
0.0379324
18.3089
1.86266
0.698223
0.444814
0.467655
0.514287
0.52882
0.52687
0.521299
0.515292
0.505217
0.492261
0.478648
0.476592
0.489276
0.495857
0.49648
0.481523
0.44248
0.393429
0.33059
0.247052
0.161383
0.0942953
0.0559255
17.6131
1.89786
0.712973
0.441739
0.466549
0.514978
0.53007
0.528401
0.523182
0.517581
0.508083
0.496117
0.483127
0.480865
0.493903
0.501123
0.502437
0.488275
0.449566
0.401186
0.339633
0.258606
0.177388
0.117887
0.0891509
13.5227
1.93663
0.730284
0.434672
0.463856
0.515795
0.532043
0.530943
0.526169
0.521064
0.512337
0.501723
0.489625
0.486671
0.500316
0.508491
0.510684
0.497747
0.460098
0.412852
0.353406
0.276261
0.200743
0.148608
0.125661
13.8268
2.02254
0.767876
0.431768
0.463079
0.519075
0.536287
0.535551
0.530885
0.526056
0.518225
0.509167
0.498067
0.49426
0.508349
0.518076
0.521318
0.509884
0.474042
0.428167
0.371521
0.299476
0.230492
0.184996
0.165983
11.1266
2.1121
0.806226
0.424492
0.461418
0.523592
0.542576
0.542162
0.537292
0.53257
0.525794
0.518221
0.508131
0.503475
0.517692
0.529832
0.534405
0.524453
0.491185
0.447042
0.394255
0.328643
0.267021
0.227947
0.212615
9.28718
2.23508
0.855887
0.418537
0.461463
0.530823
0.552181
0.551347
0.54558
0.540647
0.534924
0.52862
0.519654
0.514644
0.528459
0.543667
0.549793
0.540908
0.51159
0.469701
0.421713
0.36393
0.310667
0.278942
0.2688
7.96965
2.40098
0.919119
0.420125
0.466864
0.543306
0.566352
0.563574
0.555919
0.550381
0.545497
0.540141
0.532542
0.527661
0.540519
0.559015
0.566595
0.559438
0.535041
0.49605
0.454142
0.405642
0.362617
0.341002
0.340683
6.5614
2.54883
0.962152
0.427895
0.4801
0.56269
0.586079
0.57936
0.568391
0.561719
0.557329
0.552798
0.546971
0.542435
0.553521
0.574568
0.584071
0.580343
0.561582
0.52606
0.491618
0.454142
0.424462
0.417219
0.437055
5.52854
2.678
0.977202
0.445362
0.503628
0.587423
0.609812
0.597754
0.582454
0.574239
0.569993
0.566349
0.562707
0.558451
0.566922
0.590027
0.60259
0.603079
0.589816
0.560725
0.533909
0.509596
0.49982
0.518337
0.599607
16.0719
1.83801
0.685694
0.442927
0.466939
0.513746
0.528665
0.527015
0.521536
0.51554
0.505328
0.49193
0.477911
0.475541
0.487837
0.493923
0.493882
0.478401
0.439203
0.389847
0.326643
0.242361
0.155191
0.0846743
0.0379297
18.3058
1.86276
0.698271
0.444813
0.467654
0.514284
0.528814
0.52686
0.521286
0.515277
0.5052
0.492245
0.478633
0.476577
0.489266
0.495859
0.496494
0.481542
0.442497
0.393446
0.330607
0.247064
0.161385
0.094291
0.0559219
17.6149
1.89798
0.713031
0.441741
0.466549
0.514975
0.530064
0.528392
0.52317
0.517569
0.508071
0.496107
0.48312
0.480859
0.493901
0.501127
0.502453
0.488295
0.449585
0.401206
0.339653
0.25862
0.17739
0.117882
0.0891462
13.5224
1.93675
0.73034
0.434672
0.463855
0.515793
0.532037
0.530934
0.526157
0.521051
0.512324
0.501709
0.489614
0.486648
0.500293
0.508482
0.510687
0.497755
0.460107
0.412861
0.353417
0.276268
0.20074
0.148601
0.125655
13.8265
2.02266
0.767936
0.431767
0.463078
0.519074
0.536281
0.535542
0.530872
0.526041
0.518206
0.509145
0.498044
0.494222
0.508308
0.518054
0.521309
0.509881
0.47403
0.428151
0.371513
0.299473
0.230485
0.184987
0.165975
11.1262
2.11224
0.806288
0.424491
0.461418
0.523593
0.542572
0.542153
0.537279
0.532552
0.525767
0.518189
0.508094
0.503438
0.517662
0.529797
0.534374
0.524431
0.491162
0.447019
0.394239
0.328631
0.267008
0.227935
0.212605
9.28655
2.23523
0.855951
0.418537
0.461464
0.530825
0.55218
0.551339
0.545567
0.540628
0.534891
0.528583
0.519603
0.514605
0.528456
0.543628
0.549739
0.54086
0.511525
0.469661
0.421691
0.363917
0.310652
0.278927
0.268787
7.96906
2.40114
0.919182
0.42013
0.466868
0.543312
0.566354
0.563569
0.555908
0.550362
0.545463
0.540103
0.532485
0.527619
0.540536
0.558987
0.566546
0.559375
0.534951
0.495995
0.454117
0.405629
0.362604
0.340987
0.34067
6.56091
2.54894
0.962183
0.427899
0.480108
0.562699
0.586085
0.579359
0.568383
0.561703
0.557302
0.552764
0.546917
0.542394
0.553544
0.574559
0.584029
0.580279
0.561502
0.526005
0.491591
0.454131
0.424451
0.417204
0.437042
5.52789
2.67808
0.977201
0.44536
0.503638
0.58743
0.609818
0.597755
0.582449
0.574228
0.569973
0.566323
0.562669
0.558421
0.566934
0.59002
0.602557
0.603035
0.589768
0.560688
0.533892
0.509588
0.49981
0.518325
0.599596
16.0644
1.83816
0.685738
0.442901
0.466923
0.513737
0.528662
0.527011
0.521531
0.515537
0.505329
0.491939
0.477928
0.475554
0.487853
0.493942
0.493904
0.478416
0.439207
0.389847
0.326638
0.242352
0.155193
0.0846904
0.0379317
18.2983
1.86291
0.698326
0.444792
0.467642
0.514279
0.528811
0.526856
0.52128
0.515271
0.505198
0.49225
0.478644
0.476586
0.489277
0.495871
0.496509
0.48155
0.442494
0.393442
0.3306
0.247056
0.161389
0.0943078
0.0559243
17.6206
1.89817
0.713101
0.441721
0.466537
0.514971
0.530062
0.528388
0.523165
0.517564
0.508068
0.496111
0.483129
0.480867
0.49391
0.501136
0.502463
0.4883
0.449582
0.401202
0.339647
0.258613
0.177393
0.117896
0.0891484
13.5095
1.93683
0.730367
0.434631
0.463836
0.515788
0.532036
0.530932
0.526153
0.521048
0.512324
0.501715
0.489625
0.486673
0.500319
0.508498
0.5107
0.49776
0.460102
0.412855
0.353409
0.27626
0.200743
0.148611
0.125657
13.8249
2.02286
0.768002
0.431742
0.463065
0.519075
0.536285
0.535544
0.530873
0.52604
0.518207
0.509151
0.498055
0.494213
0.508293
0.518056
0.521314
0.50988
0.47403
0.428149
0.371506
0.299464
0.230485
0.184994
0.165977
11.1196
2.11237
0.806325
0.424452
0.461402
0.523594
0.542578
0.542159
0.537282
0.532553
0.525773
0.518202
0.508111
0.503452
0.51767
0.529803
0.534377
0.524429
0.49116
0.447017
0.394232
0.328622
0.267007
0.227939
0.212607
9.28542
2.23547
0.856021
0.418513
0.461455
0.530832
0.552192
0.551347
0.545572
0.540634
0.5349
0.528598
0.519617
0.51463
0.528498
0.543652
0.549749
0.540862
0.511519
0.469656
0.421684
0.363908
0.310649
0.278929
0.268788
7.96671
2.40136
0.919234
0.420108
0.466863
0.543323
0.566371
0.56358
0.555916
0.550371
0.545476
0.540118
0.5325
0.527638
0.540567
0.55901
0.566557
0.559379
0.534948
0.495991
0.45411
0.40562
0.362599
0.340987
0.34067
6.55955
2.54911
0.962184
0.42788
0.480112
0.562718
0.586106
0.579374
0.568393
0.561715
0.557317
0.552782
0.546941
0.542418
0.553561
0.574574
0.58404
0.580286
0.561506
0.526006
0.491587
0.454125
0.424446
0.417203
0.437041
5.52662
2.67822
0.977161
0.445331
0.503646
0.587441
0.60983
0.597767
0.582459
0.57424
0.569989
0.566346
0.562703
0.558452
0.566934
0.590023
0.602568
0.603044
0.589775
0.560696
0.533892
0.509584
0.499806
0.518324
0.599594
16.0669
1.83816
0.685747
0.44291
0.466929
0.51374
0.528662
0.52701
0.521529
0.515532
0.505321
0.491926
0.47791
0.475542
0.48784
0.493926
0.493889
0.4784
0.439193
0.389838
0.326634
0.242351
0.155193
0.0846885
0.0379338
18.3001
1.86291
0.69833
0.444799
0.467646
0.51428
0.528811
0.526856
0.52128
0.51527
0.505195
0.492244
0.478635
0.476581
0.48927
0.495864
0.496501
0.481541
0.442486
0.393436
0.330598
0.247054
0.161387
0.0943026
0.0559235
17.6167
1.89815
0.713099
0.441726
0.466541
0.514973
0.530063
0.528389
0.523165
0.517564
0.508067
0.496107
0.483122
0.480863
0.493905
0.501131
0.502458
0.488294
0.449577
0.401198
0.339645
0.258611
0.177391
0.11789
0.0891456
13.514
1.93685
0.730383
0.434645
0.463842
0.51579
0.532037
0.530932
0.526153
0.521048
0.512323
0.501711
0.489619
0.486667
0.500313
0.508493
0.510695
0.497755
0.460096
0.412851
0.353407
0.276259
0.200741
0.148606
0.125652
13.8248
2.02284
0.768002
0.431749
0.463069
0.519076
0.536284
0.535543
0.530872
0.526039
0.518204
0.509146
0.498049
0.494207
0.508288
0.51805
0.521309
0.509877
0.474025
0.428146
0.371506
0.299465
0.230484
0.184988
0.165971
11.1216
2.11238
0.806337
0.424464
0.461408
0.523595
0.542577
0.542157
0.537281
0.532551
0.52577
0.518196
0.508104
0.503445
0.517664
0.529796
0.534372
0.524427
0.491156
0.447014
0.394231
0.328624
0.267006
0.227934
0.2126
9.28558
2.23545
0.856022
0.418521
0.461459
0.530832
0.55219
0.551345
0.54557
0.540632
0.534895
0.528592
0.51961
0.514623
0.528492
0.543644
0.549743
0.54086
0.511516
0.469653
0.421683
0.363909
0.310649
0.278924
0.268781
7.96733
2.40135
0.91924
0.420117
0.466867
0.543322
0.566368
0.563578
0.555914
0.550369
0.545472
0.540112
0.532492
0.52763
0.540561
0.559002
0.566551
0.559376
0.534945
0.495988
0.454109
0.405622
0.3626
0.340983
0.340664
6.55987
2.5491
0.962196
0.427887
0.480113
0.562715
0.586102
0.579371
0.568391
0.561713
0.557313
0.552776
0.546932
0.542409
0.553556
0.574568
0.584034
0.580282
0.561502
0.526003
0.491586
0.454126
0.424447
0.417199
0.437036
5.52693
2.67821
0.977178
0.445339
0.503645
0.587439
0.609828
0.597765
0.582457
0.574237
0.569985
0.56634
0.562695
0.558444
0.56693
0.590018
0.602562
0.60304
0.589772
0.560692
0.533891
0.509585
0.499806
0.51832
0.599591
16.0719
1.83801
0.685694
0.442928
0.466939
0.513746
0.528665
0.527015
0.521536
0.51554
0.505328
0.49193
0.477912
0.47554
0.487837
0.493923
0.493882
0.478401
0.439204
0.389847
0.326644
0.242361
0.155191
0.0846744
0.0379297
18.3058
1.86276
0.698271
0.444813
0.467654
0.514284
0.528814
0.52686
0.521286
0.515277
0.5052
0.492245
0.478633
0.476576
0.489266
0.495859
0.496494
0.481542
0.442497
0.393446
0.330607
0.247064
0.161386
0.094291
0.0559219
17.6149
1.89798
0.713031
0.441741
0.466549
0.514975
0.530064
0.528392
0.52317
0.517569
0.508071
0.496107
0.48312
0.480859
0.4939
0.501127
0.502453
0.488294
0.449585
0.401206
0.339654
0.258621
0.17739
0.117882
0.0891463
13.5224
1.93675
0.730341
0.434672
0.463855
0.515793
0.532037
0.530934
0.526157
0.521051
0.512324
0.501709
0.489614
0.486648
0.500293
0.508482
0.510686
0.497755
0.460107
0.412861
0.353417
0.276268
0.20074
0.148601
0.125655
13.8265
2.02266
0.767936
0.431767
0.463078
0.519074
0.536282
0.535542
0.530872
0.526041
0.518205
0.509144
0.498044
0.494222
0.508308
0.518054
0.521309
0.509881
0.47403
0.428151
0.371514
0.299473
0.230485
0.184987
0.165975
11.1262
2.11224
0.806289
0.424491
0.461418
0.523593
0.542572
0.542153
0.537279
0.532552
0.525767
0.518189
0.508093
0.503438
0.517662
0.529797
0.534374
0.524431
0.491162
0.447019
0.394239
0.328631
0.267008
0.227935
0.212605
9.28655
2.23523
0.855951
0.418537
0.461464
0.530825
0.55218
0.551339
0.545567
0.540628
0.53489
0.528583
0.519603
0.514605
0.528456
0.543628
0.549739
0.54086
0.511525
0.469661
0.421691
0.363917
0.310652
0.278927
0.268787
7.96907
2.40114
0.919182
0.420131
0.466868
0.543312
0.566354
0.563569
0.555908
0.550362
0.545463
0.540103
0.532485
0.527619
0.540536
0.558986
0.566545
0.559375
0.534951
0.495995
0.454117
0.405629
0.362604
0.340987
0.34067
6.56091
2.54894
0.962183
0.427899
0.480108
0.562699
0.586085
0.579359
0.568383
0.561703
0.557302
0.552764
0.546917
0.542394
0.553544
0.574559
0.584029
0.580279
0.561502
0.526005
0.491591
0.454131
0.424451
0.417204
0.437042
5.52789
2.67808
0.977202
0.44536
0.503638
0.58743
0.609818
0.597755
0.582449
0.574228
0.569973
0.566323
0.562669
0.558421
0.566934
0.59002
0.602557
0.603034
0.589768
0.560688
0.533892
0.509588
0.49981
0.518325
0.599596
16.0704
1.8379
0.685636
0.442922
0.466936
0.513748
0.528674
0.527028
0.521553
0.515562
0.505355
0.49196
0.477942
0.475567
0.487861
0.493936
0.49388
0.478392
0.439194
0.389834
0.326627
0.242348
0.155188
0.0846779
0.0379324
18.3089
1.86266
0.698223
0.444814
0.467655
0.514287
0.52882
0.52687
0.521299
0.515292
0.505217
0.492261
0.478648
0.476592
0.489276
0.495857
0.49648
0.481523
0.44248
0.393429
0.33059
0.247052
0.161384
0.0942953
0.0559255
17.6131
1.89786
0.712973
0.441739
0.466549
0.514978
0.53007
0.528401
0.523182
0.517581
0.508083
0.496117
0.483127
0.480865
0.493903
0.501123
0.502437
0.488275
0.449566
0.401186
0.339633
0.258606
0.177388
0.117887
0.0891509
13.5227
1.93663
0.730284
0.434672
0.463856
0.515795
0.532043
0.530943
0.526169
0.521064
0.512337
0.501723
0.489625
0.486671
0.500315
0.508491
0.510684
0.497747
0.460098
0.412852
0.353406
0.276261
0.200743
0.148608
0.125661
13.8268
2.02254
0.767877
0.431768
0.463079
0.519075
0.536287
0.535551
0.530885
0.526056
0.518225
0.509167
0.498067
0.49426
0.508349
0.518076
0.521318
0.509884
0.474042
0.428167
0.371521
0.299476
0.230492
0.184996
0.165983
11.1266
2.1121
0.806226
0.424492
0.461418
0.523592
0.542576
0.542162
0.537292
0.53257
0.525794
0.518221
0.508131
0.503475
0.517692
0.529832
0.534405
0.524453
0.491185
0.447042
0.394255
0.328643
0.267021
0.227947
0.212615
9.28718
2.23508
0.855888
0.418537
0.461463
0.530823
0.552181
0.551347
0.54558
0.540647
0.534924
0.52862
0.519654
0.514644
0.528459
0.543667
0.549793
0.540908
0.51159
0.469701
0.421713
0.36393
0.310667
0.278942
0.2688
7.96965
2.40098
0.91912
0.420125
0.466864
0.543306
0.566352
0.563574
0.555919
0.550381
0.545497
0.540141
0.532542
0.527661
0.540519
0.559015
0.566595
0.559438
0.535041
0.49605
0.454142
0.405642
0.362617
0.341002
0.340683
6.5614
2.54883
0.962152
0.427895
0.4801
0.56269
0.586079
0.57936
0.568391
0.561719
0.557329
0.552798
0.546971
0.542435
0.553521
0.574568
0.584071
0.580343
0.561582
0.52606
0.491618
0.454142
0.424462
0.417219
0.437055
5.52854
2.678
0.977202
0.445362
0.503628
0.587423
0.609812
0.597754
0.582454
0.574239
0.569993
0.566349
0.562707
0.558451
0.566922
0.590027
0.60259
0.603079
0.589816
0.560725
0.533909
0.509596
0.49982
0.518337
0.599607
16.089
1.83789
0.685663
0.442968
0.46696
0.513755
0.528669
0.527022
0.521551
0.515557
0.505343
0.491963
0.477964
0.475578
0.487893
0.494001
0.493958
0.478525
0.439353
0.389957
0.326718
0.242426
0.155241
0.0846891
0.0379308
18.2726
1.86246
0.698125
0.444788
0.467646
0.514292
0.528841
0.526909
0.521363
0.515389
0.505347
0.49244
0.478865
0.476729
0.489443
0.496068
0.496665
0.481734
0.442696
0.393577
0.33069
0.247131
0.161437
0.094311
0.055932
17.5923
1.8977
0.712918
0.441741
0.466548
0.514981
0.530087
0.528433
0.523235
0.517663
0.508183
0.49624
0.483272
0.480926
0.493977
0.501223
0.502521
0.488396
0.449714
0.401292
0.339711
0.258675
0.177436
0.117906
0.0891648
13.5462
1.9367
0.730318
0.434718
0.463874
0.5158
0.532049
0.530956
0.526193
0.5211
0.512374
0.501756
0.48966
0.486656
0.500287
0.508476
0.510668
0.49775
0.460123
0.412877
0.353439
0.276305
0.200777
0.148626
0.12568
13.8227
2.02238
0.767816
0.431775
0.463082
0.519069
0.536278
0.535542
0.53088
0.526053
0.518205
0.50913
0.498019
0.494208
0.508287
0.517991
0.521229
0.509797
0.473954
0.428107
0.371503
0.29949
0.23051
0.185009
0.166002
11.1312
2.11201
0.806192
0.42451
0.461423
0.523585
0.542561
0.542145
0.537274
0.532543
0.525736
0.518141
0.508029
0.503395
0.517637
0.529709
0.534255
0.524306
0.491033
0.446936
0.394202
0.32863
0.267021
0.227953
0.212629
9.28692
2.23487
0.85581
0.418538
0.46146
0.530809
0.552162
0.551325
0.545555
0.540612
0.534851
0.528533
0.519529
0.514546
0.528443
0.543541
0.549608
0.540721
0.511365
0.469552
0.421635
0.3639
0.310655
0.278939
0.268808
7.97114
2.40077
0.919053
0.420123
0.466858
0.543289
0.56633
0.56355
0.555894
0.550344
0.545428
0.540061
0.532414
0.527559
0.54054
0.558916
0.566427
0.559227
0.534776
0.495872
0.454048
0.4056
0.3626
0.340993
0.340685
6.56237
2.54866
0.962123
0.427891
0.480088
0.562669
0.586054
0.579336
0.568367
0.561686
0.557274
0.552732
0.546851
0.542339
0.553573
0.574526
0.583925
0.580125
0.561327
0.525876
0.491515
0.454096
0.42444
0.417203
0.437052
5.52927
2.67781
0.977198
0.445361
0.503609
0.587406
0.609793
0.597733
0.582434
0.574214
0.569955
0.566303
0.562621
0.558387
0.56698
0.590011
0.602462
0.602889
0.589611
0.560552
0.53381
0.509549
0.499791
0.518318
0.599601
16.0726
1.83757
0.6855
0.442959
0.466974
0.513779
0.528701
0.527061
0.521593
0.515601
0.505387
0.491982
0.477952
0.475588
0.487878
0.493944
0.493882
0.478408
0.439232
0.38988
0.326678
0.242438
0.155377
0.0850133
0.0386162
18.3285
1.86236
0.698108
0.444867
0.467699
0.514319
0.528847
0.526904
0.521343
0.515342
0.505275
0.492335
0.47873
0.476681
0.489376
0.495961
0.49657
0.481623
0.442592
0.393526
0.330673
0.247163
0.161587
0.0946146
0.0563896
17.6211
1.89752
0.712822
0.441781
0.466589
0.515006
0.5301
0.528442
0.523239
0.517659
0.50819
0.496268
0.483309
0.481031
0.494076
0.501297
0.502581
0.488433
0.449746
0.401329
0.339741
0.25873
0.177586
0.118151
0.0894426
13.5198
1.93621
0.730104
0.434709
0.463893
0.51582
0.532074
0.530987
0.526228
0.52115
0.512457
0.501879
0.489812
0.486759
0.500407
0.508649
0.510822
0.497897
0.460274
0.412976
0.353497
0.276372
0.20092
0.148822
0.125872
13.8369
2.02215
0.767714
0.431823
0.463121
0.519099
0.53631
0.535587
0.53094
0.52613
0.518322
0.509291
0.498215
0.494292
0.508349
0.518168
0.521409
0.510008
0.474195
0.42825
0.371575
0.299563
0.230641
0.185171
0.166149
11.1296
2.1116
0.806021
0.424539
0.461457
0.52361
0.54259
0.542187
0.537332
0.532619
0.525854
0.518297
0.50821
0.503533
0.517741
0.52986
0.534411
0.524486
0.491234
0.447079
0.394291
0.328712
0.267144
0.228091
0.212749
9.29079
2.23452
0.855661
0.418577
0.461496
0.530833
0.552187
0.55136
0.545604
0.540678
0.534944
0.528652
0.519662
0.514687
0.52859
0.543677
0.549736
0.540871
0.511523
0.46969
0.421737
0.363991
0.310772
0.27906
0.268909
7.97171
2.40028
0.918861
0.420132
0.466882
0.543304
0.566349
0.563577
0.555933
0.550398
0.545497
0.540143
0.532513
0.527673
0.540663
0.559029
0.566539
0.559354
0.534911
0.496003
0.454157
0.405696
0.36271
0.341103
0.340774
6.56348
2.5483
0.962014
0.427897
0.480099
0.562674
0.586062
0.579355
0.568398
0.561729
0.557326
0.552792
0.546938
0.54243
0.553627
0.574591
0.584016
0.580247
0.561465
0.526006
0.491622
0.454191
0.424544
0.417303
0.43713
5.53104
2.67751
0.977184
0.445385
0.503613
0.587417
0.609802
0.597751
0.58246
0.574249
0.569995
0.566352
0.562703
0.558462
0.566968
0.590025
0.602545
0.603016
0.589753
0.560699
0.533919
0.50964
0.49989
0.518406
0.599664
4.40629
2.72114
0.965129
0.433831
0.511703
0.596336
0.620849
0.609426
0.593979
0.586093
0.582633
0.580441
0.578969
0.57497
0.580358
0.605606
0.622014
0.626109
0.619006
0.597961
0.57871
0.570874
0.584858
0.638831
0.792868
3.91336
2.68871
1.0164
0.442934
0.513499
0.593011
0.621835
0.615209
0.602895
0.596665
0.594847
0.594637
0.595131
0.591782
0.595061
0.620631
0.641298
0.649662
0.648716
0.637527
0.625061
0.630365
0.660581
0.733973
0.893449
3.66485
2.65924
1.09599
0.49188
0.521499
0.580288
0.617256
0.619092
0.611127
0.607063
0.607128
0.608952
0.611118
0.609039
0.611026
0.634695
0.659705
0.672425
0.677233
0.675201
0.669841
0.682266
0.720952
0.796257
0.933001
3.37158
2.56167
1.14953
0.544851
0.520317
0.563469
0.610923
0.622559
0.619424
0.617641
0.619627
0.623388
0.627059
0.626937
0.627477
0.647249
0.676403
0.694251
0.704927
0.710242
0.71146
0.727315
0.767951
0.837336
0.947288
3.36641
2.6029
1.2661
0.618638
0.518244
0.556468
0.60839
0.62881
0.629864
0.629618
0.632961
0.63817
0.643088
0.644923
0.643984
0.658943
0.691399
0.714569
0.730288
0.741077
0.748963
0.765514
0.803839
0.864935
0.957795
3.31383
2.63018
1.39049
0.695626
0.518957
0.554167
0.611952
0.639949
0.643925
0.64424
0.64808
0.653744
0.659192
0.662272
0.660398
0.670458
0.703911
0.732857
0.753069
0.768413
0.782036
0.798514
0.833394
0.886219
0.963741
3.22683
2.64915
1.53822
0.775711
0.523996
0.560754
0.626142
0.658411
0.661219
0.660492
0.663839
0.669418
0.674722
0.678254
0.676904
0.682926
0.712942
0.748088
0.773533
0.793174
0.810676
0.827203
0.856832
0.902207
0.965983
3.12024
2.66406
1.72569
0.862456
0.551481
0.590366
0.653647
0.680907
0.68182
0.679898
0.681497
0.685772
0.690064
0.693153
0.693236
0.695899
0.719905
0.759713
0.791085
0.814811
0.83475
0.853468
0.877937
0.917204
0.968906
3.02502
2.69644
1.95628
0.952777
0.593065
0.626461
0.673806
0.698708
0.702173
0.699493
0.699201
0.701775
0.704823
0.707154
0.708506
0.709193
0.727354
0.7691
0.805726
0.833488
0.85543
0.87622
0.89644
0.928694
0.972589
2.98823
2.71239
2.06439
1.03738
0.63124
0.648028
0.678535
0.708707
0.718375
0.717512
0.715775
0.716372
0.718164
0.720069
0.722266
0.723402
0.736313
0.775173
0.816945
0.849112
0.873317
0.895038
0.915362
0.940125
0.976215
2.95009
2.72287
2.16549
1.17556
0.710383
0.660114
0.677604
0.709967
0.729603
0.733414
0.731358
0.730393
0.731316
0.732908
0.735731
0.73844
0.746654
0.778279
0.824125
0.861131
0.888631
0.910769
0.932149
0.951138
0.978824
2.90722
2.72909
2.27058
1.37462
0.819957
0.666562
0.680301
0.714301
0.741468
0.750257
0.747478
0.744563
0.744151
0.74562
0.748898
0.752931
0.758361
0.781686
0.828408
0.869608
0.900647
0.923736
0.944918
0.963373
0.981593
2.85128
2.7241
2.37839
1.64239
0.941645
0.688964
0.699513
0.731319
0.759465
0.767306
0.764865
0.760331
0.757749
0.758568
0.762091
0.767492
0.772648
0.78726
0.828363
0.873891
0.908627
0.934669
0.95577
0.975798
0.99186
2.79126
2.71654
2.47887
1.90928
1.04881
0.720406
0.728657
0.753843
0.775309
0.783536
0.781435
0.776414
0.772664
0.772631
0.776488
0.782772
0.788202
0.796578
0.826562
0.874628
0.913859
0.942721
0.964953
0.984536
1.00249
2.80407
2.7759
2.58869
2.09444
1.18531
0.79419
0.760032
0.770201
0.784429
0.796494
0.798729
0.793784
0.789114
0.788936
0.792923
0.79904
0.8044
0.808645
0.827919
0.872569
0.915189
0.948302
0.972618
0.991604
1.0097
2.87049
2.86881
2.71797
2.29387
1.4365
0.938361
0.796963
0.787587
0.795016
0.811053
0.817665
0.814148
0.808888
0.807745
0.810748
0.815869
0.82048
0.822959
0.83271
0.868763
0.913442
0.950803
0.978179
0.998741
1.01531
2.94311
2.95831
2.85135
2.52918
1.81318
1.0941
0.835015
0.80968
0.815579
0.833099
0.840661
0.837573
0.832113
0.829351
0.829807
0.832629
0.836524
0.838436
0.840974
0.865087
0.911282
0.950878
0.98239
1.00456
1.02104
2.98537
3.02901
2.95091
2.70176
2.11078
1.21677
0.863576
0.836376
0.844882
0.852849
0.860211
0.860478
0.856923
0.852174
0.850007
0.850508
0.852627
0.854093
0.853803
0.864573
0.906105
0.950334
0.984189
1.00921
1.02627
3.02292
3.08803
3.03038
2.83508
2.33937
1.42789
0.971044
0.87778
0.870617
0.871531
0.879953
0.884374
0.882183
0.87734
0.872178
0.869531
0.869402
0.870428
0.869617
0.870826
0.897715
0.946974
0.985102
1.01264
1.03177
3.05616
3.14219
3.10358
2.97076
2.61279
1.85024
1.12979
0.91828
0.896591
0.894551
0.903689
0.909459
0.907301
0.900582
0.894492
0.889811
0.887189
0.886843
0.886399
0.884284
0.893657
0.937713
0.983297
1.01467
1.03581
3.08031
3.18155
3.15523
3.0624
2.80462
2.1998
1.29912
0.961923
0.925451
0.921872
0.923659
0.932184
0.932625
0.928121
0.918444
0.910682
0.906664
0.904831
0.903965
0.901502
0.900774
0.923102
0.975483
1.01418
1.03928
3.10026
3.21333
3.19538
3.13057
2.94642
2.47783
1.60116
1.07729
0.961375
0.947847
0.947128
0.955387
0.960541
0.95317
0.944184
0.934642
0.927439
0.924083
0.922377
0.919959
0.916074
0.920869
0.957237
1.00698
1.03978
3.11485
3.23764
3.22615
3.18421
3.06547
2.75808
2.07123
1.25621
1.002
0.978938
0.975243
0.974756
0.981345
0.982446
0.972419
0.960816
0.951896
0.945641
0.941963
0.939097
0.934872
0.931091
0.945308
0.991244
1.03277
3.12575
3.25523
3.24757
3.21905
3.13842
2.92408
2.39785
1.50274
1.09004
1.01097
0.999962
0.998556
1.00529
1.00828
1.00339
0.989454
0.977701
0.969757
0.963957
0.959348
0.954622
0.948824
0.948297
0.974731
1.01755
3.13326
3.26798
3.26325
3.24519
3.19472
3.06108
2.72083
1.98188
1.24271
1.04859
1.02972
1.02772
1.02546
1.02925
1.03126
1.02388
1.00796
0.995422
0.987402
0.981094
0.975088
0.969392
0.962742
0.967594
1.003
3.13833
3.27666
3.2736
3.2615
3.22794
3.14004
2.91301
2.36161
1.48589
1.12434
1.05948
1.05179
1.05069
1.05423
1.05502
1.05411
1.04306
1.02692
1.01379
1.0043
0.996638
0.990293
0.982855
0.976544
0.989172
3.14187
3.28271
3.28028
3.27206
3.25067
3.19676
3.05805
2.70398
1.949
1.25716
1.09713
1.08027
1.07926
1.07561
1.07885
1.07932
1.07644
1.06259
1.04538
1.03107
1.02024
1.01197
1.00472
0.995379
0.991047
3.14302
3.28467
3.28217
3.27685
3.26358
3.2298
3.14241
2.91669
2.36322
1.51051
1.1734
1.11
1.10313
1.10321
1.103
1.1037
1.10349
1.09898
1.08256
1.06333
1.04741
1.03525
1.02674
1.01733
1.00661
3.13918
3.28306
3.28272
3.27953
3.27141
3.25111
3.19985
3.06715
2.72638
1.98988
1.30358
1.15205
1.13279
1.1309
1.12761
1.12966
1.12883
1.12723
1.12091
1.10148
1.07958
1.06214
1.05005
1.04025
1.02863
3.13688
3.28175
3.28318
3.28139
3.27653
3.26415
3.23299
3.1528
2.94384
2.41814
1.58283
1.23013
1.16472
1.15619
1.15657
1.15378
1.15489
1.15332
1.15077
1.14226
1.11933
1.094
1.07608
1.064
1.05215
3.13551
3.28068
3.28367
3.28266
3.27982
3.2726
3.25448
3.20891
3.0908
2.78757
2.09803
1.38412
1.2166
1.18708
1.18331
1.18203
1.18037
1.17972
1.17769
1.17423
1.16175
1.13498
1.10843
1.08993
1.07535
3.13471
3.28005
3.28405
3.28352
3.28194
3.2778
3.26733
3.24096
3.1731
2.99485
2.53247
1.72181
1.29117
1.22292
1.21012
1.21083
1.2077
1.20671
1.20337
1.20124
1.19599
1.17891
1.14776
1.12023
1.09644
3.13429
3.27975
3.28436
3.28411
3.28325
3.28091
3.27497
3.25999
3.22217
3.12338
2.86765
2.24395
1.5085
1.2866
1.24172
1.23721
1.23713
1.23178
1.23117
1.22738
1.22383
1.2148
1.18826
1.14683
1.10553
3.13419
3.2797
3.28462
3.28451
3.28406
3.28279
3.27956
3.27142
3.25087