/*--------------------------------*- C++ -*----------------------------------*\
| =========                 |                                                 |
| \\      /  F ield         | OpenFOAM: The Open Source CFD Toolbox           |
|  \\    /   O peration     | Version:  4.1                                   |
|   \\  /    A nd           | Web:      www.OpenFOAM.org                      |
|    \\/     M anipulation  |                                                 |
\*---------------------------------------------------------------------------*/
FoamFile
{
    version     2.0;
    format      ascii;
    class       volScalarField;
    location    "0.94";
    object      p;
}
// * * * * * * * * * * * * * * * * * * * * * * * * * * * * * * * * * * * * * //

dimensions      [1 -1 -2 0 0 0 0];

internalField   nonuniform List<scalar> 
52500
(
0.00692129
0.118808
0.515126
0.704774
0.67922
0.623127
0.586673
0.565613
0.548173
0.53143
0.516519
0.505257
0.497409
0.495227
0.493151
0.490939
0.488503
0.488635
0.491077
0.496323
0.507511
0.534237
0.56504
0.573167
0.565712
0.00536377
0.116656
0.509157
0.707284
0.681243
0.62429
0.587391
0.566025
0.548361
0.531543
0.516674
0.505408
0.49749
0.495338
0.493257
0.491038
0.488589
0.488494
0.490797
0.49606
0.507315
0.534087
0.564682
0.572855
0.565605
0.00576688
0.114308
0.495781
0.71142
0.684405
0.625846
0.588337
0.56634
0.548267
0.531271
0.516421
0.505055
0.497142
0.494986
0.492862
0.490515
0.487995
0.48744
0.489426
0.494624
0.505946
0.53258
0.562596
0.570827
0.564017
0.00959201
0.112756
0.475324
0.717891
0.689307
0.627902
0.589588
0.566813
0.548178
0.530973
0.516137
0.504647
0.496951
0.494763
0.49251
0.489879
0.487406
0.485916
0.487528
0.492359
0.503556
0.529699
0.558834
0.567224
0.561116
0.00916235
0.107207
0.447427
0.728237
0.696873
0.630298
0.590987
0.567289
0.548032
0.530591
0.515721
0.504143
0.496858
0.494327
0.492303
0.488941
0.486474
0.483606
0.484921
0.489165
0.499981
0.52532
0.553399
0.562121
0.557005
0.0137604
0.103303
0.411276
0.741495
0.706272
0.632745
0.592403
0.567673
0.547805
0.530146
0.515209
0.503611
0.496973
0.49351
0.492255
0.488116
0.485061
0.480245
0.481235
0.484915
0.495142
0.519088
0.545723
0.554939
0.551109
0.0190743
0.0984512
0.367901
0.759228
0.717434
0.636374
0.593797
0.56786
0.54749
0.52967
0.514659
0.50316
0.497315
0.492574
0.491648
0.487763
0.48202
0.476735
0.476639
0.479608
0.488866
0.510684
0.535353
0.544855
0.542398
0.0249125
0.0927807
0.319037
0.78047
0.730002
0.640404
0.594478
0.567718
0.547113
0.529211
0.514159
0.502949
0.497888
0.49182
0.490647
0.48689
0.478822
0.472856
0.470867
0.473296
0.481109
0.4997
0.521547
0.530355
0.529081
0.0344261
0.0918021
0.294179
0.780438
0.736232
0.642891
0.59419
0.567073
0.546698
0.528912
0.513862
0.50297
0.498087
0.490957
0.489225
0.48501
0.476466
0.468523
0.46427
0.465921
0.47188
0.48594
0.503212
0.509014
0.507247
0.0450123
0.0957056
0.285412
0.776151
0.733716
0.643132
0.593743
0.566777
0.546541
0.528862
0.513863
0.503249
0.497827
0.490049
0.487739
0.482696
0.47381
0.463371
0.457231
0.45777
0.461245
0.468611
0.479728
0.478863
0.469508
0.00689998
0.11878
0.515038
0.704764
0.679211
0.623117
0.586661
0.565604
0.548165
0.531426
0.516527
0.50526
0.497411
0.495225
0.493141
0.490928
0.488495
0.488618
0.491055
0.496287
0.507468
0.534199
0.56502
0.573162
0.565679
0.00538673
0.116653
0.509065
0.707256
0.68122
0.624278
0.587378
0.566015
0.548355
0.53154
0.516681
0.505405
0.497505
0.495337
0.493251
0.491015
0.488554
0.488492
0.490791
0.496028
0.507269
0.534046
0.564661
0.57285
0.565572
0.005794
0.114307
0.495687
0.711397
0.684388
0.625836
0.588323
0.566329
0.54826
0.531269
0.516423
0.505048
0.497161
0.494983
0.492856
0.490486
0.487955
0.48745
0.489434
0.494596
0.505893
0.532534
0.562573
0.57082
0.563985
0.00954399
0.112709
0.475231
0.717888
0.689304
0.627897
0.589576
0.566803
0.548172
0.530971
0.51614
0.504643
0.496963
0.494754
0.492509
0.489866
0.487381
0.485908
0.487523
0.492332
0.503505
0.529654
0.558804
0.567212
0.561083
0.00917337
0.107197
0.447331
0.72823
0.696867
0.630292
0.590976
0.56728
0.548027
0.530586
0.515727
0.504145
0.496852
0.494326
0.492285
0.488936
0.486468
0.483594
0.484901
0.489132
0.499937
0.525274
0.55336
0.562104
0.556973
0.0137455
0.103273
0.41117
0.741493
0.706271
0.63274
0.592393
0.567667
0.5478
0.530139
0.515213
0.50362
0.496958
0.493523
0.492247
0.488102
0.485063
0.48023
0.48121
0.484879
0.4951
0.519039
0.545677
0.554918
0.551077
0.0190826
0.0984382
0.367797
0.759225
0.717435
0.636367
0.593789
0.567855
0.547485
0.529665
0.514663
0.503168
0.497289
0.492596
0.49166
0.487734
0.48203
0.476712
0.47661
0.479577
0.48883
0.510635
0.5353
0.544831
0.542369
0.0249087
0.09276
0.318948
0.780457
0.730006
0.6404
0.594471
0.567713
0.54711
0.529209
0.514163
0.502949
0.497871
0.491835
0.490672
0.486896
0.478768
0.472829
0.470842
0.473268
0.481078
0.499656
0.521491
0.530329
0.529055
0.0344252
0.0917917
0.294137
0.780397
0.73622
0.642888
0.594184
0.567069
0.546694
0.528912
0.513866
0.502967
0.498088
0.490975
0.48925
0.485027
0.476394
0.468512
0.464235
0.465892
0.471854
0.485901
0.503157
0.508988
0.507224
0.0450237
0.0957057
0.285392
0.776114
0.733698
0.643127
0.593737
0.566772
0.546538
0.528862
0.513865
0.503245
0.497834
0.49005
0.487745
0.482712
0.47377
0.463371
0.45719
0.45774
0.461225
0.468582
0.479682
0.478832
0.469489
0.00691532
0.118782
0.515007
0.704774
0.67922
0.623126
0.586663
0.565604
0.54817
0.531429
0.51652
0.505269
0.497407
0.495234
0.493155
0.49095
0.488506
0.488581
0.491024
0.496295
0.507494
0.534219
0.565039
0.573164
0.565691
0.00536598
0.116635
0.509036
0.707281
0.68124
0.624288
0.587381
0.566015
0.548357
0.531543
0.516676
0.505417
0.497492
0.495345
0.49326
0.491041
0.488582
0.488448
0.490756
0.496032
0.507295
0.534068
0.564681
0.572853
0.565584
0.00578072
0.114293
0.495656
0.711418
0.684404
0.625843
0.588328
0.566331
0.548262
0.531272
0.516423
0.50506
0.497146
0.494991
0.492863
0.49051
0.487978
0.487411
0.489398
0.494597
0.505921
0.53256
0.562595
0.570827
0.564
0.00957536
0.112721
0.475194
0.717898
0.689312
0.6279
0.589581
0.566805
0.548173
0.530974
0.51614
0.504648
0.496959
0.494768
0.492513
0.489871
0.487383
0.485892
0.487507
0.492336
0.503528
0.529679
0.558832
0.567224
0.561102
0.00916819
0.107186
0.447289
0.728247
0.69688
0.630297
0.59098
0.567281
0.548027
0.530591
0.515725
0.504143
0.496864
0.494331
0.492301
0.48893
0.486452
0.483585
0.484899
0.48914
0.499955
0.5253
0.553394
0.562122
0.556996
0.0137562
0.103271
0.411124
0.741512
0.706284
0.632744
0.592397
0.567667
0.547801
0.530145
0.515211
0.503612
0.496983
0.493503
0.492257
0.488116
0.485043
0.480218
0.481208
0.484888
0.495116
0.519068
0.545716
0.55494
0.551103
0.0190816
0.0984264
0.367742
0.759251
0.71745
0.636374
0.593791
0.567854
0.547485
0.529669
0.51466
0.503163
0.497327
0.492568
0.491646
0.487773
0.482002
0.476714
0.476613
0.479582
0.488841
0.510663
0.535343
0.544856
0.542395
0.0249166
0.0927529
0.318896
0.780474
0.730021
0.640404
0.594472
0.567712
0.547109
0.52921
0.51416
0.502949
0.497894
0.491822
0.490647
0.48689
0.478808
0.47284
0.470844
0.473273
0.481087
0.49968
0.521535
0.530355
0.52908
0.0344334
0.091791
0.29412
0.780392
0.736218
0.642889
0.594183
0.567066
0.546693
0.528912
0.513863
0.502968
0.498093
0.490959
0.489226
0.485005
0.476448
0.468511
0.464247
0.465899
0.47186
0.485921
0.503198
0.509013
0.507247
0.0450325
0.0957054
0.285386
0.776122
0.733695
0.643121
0.593734
0.56677
0.546537
0.528861
0.513864
0.503247
0.497832
0.490046
0.487737
0.482696
0.473798
0.463364
0.457208
0.45775
0.461228
0.468595
0.479715
0.478858
0.469509
0.00691408
0.118773
0.514962
0.704784
0.679229
0.623134
0.586668
0.56561
0.548178
0.53144
0.516535
0.505285
0.497421
0.495247
0.493164
0.490956
0.488506
0.488566
0.491007
0.49628
0.50748
0.534205
0.565032
0.573161
0.565681
0.00536769
0.116627
0.508991
0.70729
0.681249
0.624295
0.587387
0.566022
0.548366
0.531554
0.516691
0.505433
0.497507
0.495358
0.49327
0.491048
0.488581
0.488434
0.490742
0.496018
0.50728
0.534054
0.564674
0.572849
0.565575
0.0057795
0.114284
0.49561
0.711429
0.684414
0.625851
0.588334
0.566337
0.548271
0.531283
0.516437
0.505074
0.497161
0.495004
0.492872
0.490514
0.487975
0.4874
0.489388
0.494583
0.505904
0.532546
0.562587
0.570822
0.563989
0.00957572
0.112713
0.475147
0.71791
0.689323
0.627908
0.589586
0.566811
0.548182
0.530986
0.516154
0.504663
0.496975
0.49478
0.492524
0.489876
0.48738
0.48588
0.487497
0.492323
0.503511
0.529664
0.558822
0.567218
0.561091
0.00916855
0.107177
0.44724
0.728262
0.696892
0.630303
0.590986
0.567287
0.548035
0.530601
0.515739
0.504159
0.496878
0.49434
0.492313
0.488935
0.486453
0.483576
0.484888
0.489124
0.499938
0.525285
0.553382
0.562114
0.556984
0.0137569
0.103262
0.411074
0.741528
0.706296
0.632751
0.592402
0.567673
0.547808
0.530154
0.515225
0.503628
0.496991
0.49352
0.492265
0.488116
0.485047
0.480212
0.481197
0.484872
0.4951
0.519052
0.545702
0.554932
0.551091
0.0190838
0.0984182
0.367691
0.759268
0.717463
0.63638
0.593796
0.56786
0.547492
0.529678
0.514675
0.503177
0.497328
0.492591
0.491662
0.48776
0.48201
0.476706
0.476602
0.47957
0.488828
0.510648
0.535326
0.544846
0.542384
0.0249196
0.0927454
0.318853
0.780485
0.730032
0.640409
0.594475
0.567717
0.547115
0.529218
0.514173
0.502961
0.497899
0.491838
0.490667
0.486896
0.478785
0.472829
0.470835
0.473263
0.481075
0.499666
0.521518
0.530345
0.529069
0.0344375
0.0917895
0.294106
0.780385
0.736218
0.642892
0.594185
0.56707
0.546699
0.52892
0.513875
0.502981
0.498103
0.490977
0.489244
0.485018
0.476423
0.468507
0.464234
0.465888
0.47185
0.485909
0.50318
0.509003
0.507238
0.0450405
0.0957075
0.285383
0.776121
0.733693
0.64312
0.593736
0.566773
0.546543
0.528869
0.513874
0.503259
0.497843
0.490061
0.48775
0.482706
0.473785
0.463359
0.457196
0.45774
0.461219
0.468583
0.4797
0.478847
0.469502
0.00692022
0.118765
0.514904
0.704816
0.679256
0.623154
0.586678
0.565613
0.548177
0.531437
0.516531
0.505283
0.497421
0.495248
0.493168
0.49096
0.488508
0.48857
0.491008
0.496283
0.507486
0.534215
0.565041
0.573168
0.565699
0.00537197
0.116619
0.508935
0.707324
0.681277
0.624314
0.587397
0.566025
0.548365
0.531552
0.516688
0.50543
0.497507
0.495359
0.493273
0.491051
0.488585
0.488436
0.490741
0.49602
0.507287
0.534065
0.564682
0.572856
0.565592
0.00577592
0.114271
0.495555
0.711464
0.684442
0.625867
0.588344
0.566341
0.548271
0.531281
0.516434
0.505072
0.497161
0.495005
0.492876
0.49052
0.487982
0.4874
0.489385
0.494585
0.505913
0.532557
0.562596
0.570828
0.564005
0.00959299
0.112713
0.475091
0.717942
0.689347
0.627921
0.589596
0.566816
0.548182
0.530983
0.516151
0.504662
0.496974
0.494783
0.492524
0.489878
0.487387
0.485881
0.487495
0.492325
0.503521
0.529675
0.558831
0.567224
0.561104
0.00917044
0.107166
0.44718
0.728297
0.696919
0.630315
0.590995
0.567291
0.548035
0.530599
0.515736
0.504159
0.496881
0.494338
0.492323
0.488941
0.486457
0.483572
0.484886
0.489129
0.499947
0.525296
0.553392
0.562119
0.556994
0.013772
0.10326
0.411013
0.741564
0.706322
0.632761
0.59241
0.567676
0.547808
0.530152
0.515224
0.503629
0.496992
0.493524
0.492268
0.488118
0.485051
0.480212
0.481199
0.484877
0.495107
0.519063
0.545713
0.554936
0.551098
0.0190879
0.0984082
0.367627
0.759311
0.717488
0.636393
0.593803
0.567862
0.547492
0.529677
0.514675
0.503178
0.497329
0.492598
0.491666
0.487751
0.48201
0.476707
0.476606
0.479575
0.488835
0.510658
0.535337
0.54485
0.542388
0.0249322
0.0927406
0.318799
0.780518
0.730055
0.64042
0.594478
0.567717
0.547115
0.529218
0.514174
0.502964
0.497901
0.49184
0.490667
0.486893
0.478782
0.472828
0.470838
0.473267
0.481081
0.499676
0.521528
0.530349
0.529072
0.0344491
0.091792
0.294096
0.780396
0.736224
0.642897
0.594186
0.567069
0.546699
0.528919
0.513876
0.502985
0.498103
0.490977
0.489244
0.485018
0.476423
0.468504
0.464237
0.465892
0.471854
0.485918
0.50319
0.509007
0.50724
0.0450559
0.0957135
0.285387
0.776148
0.733697
0.643115
0.593735
0.566772
0.546542
0.528869
0.513875
0.503264
0.497841
0.490064
0.487751
0.482702
0.473781
0.463353
0.457199
0.457742
0.461223
0.46859
0.479708
0.478852
0.469504
0.00691816
0.118764
0.514904
0.704811
0.679253
0.623152
0.586677
0.565614
0.548179
0.531441
0.516535
0.505288
0.497424
0.495252
0.49317
0.490963
0.488511
0.488567
0.491007
0.496283
0.507486
0.534212
0.565037
0.573164
0.565695
0.00537094
0.116618
0.508934
0.707318
0.681273
0.624312
0.587396
0.566026
0.548367
0.531555
0.516692
0.505435
0.49751
0.495363
0.493276
0.491054
0.488587
0.488434
0.490741
0.49602
0.507287
0.534062
0.564679
0.572853
0.565587
0.00577835
0.114272
0.495553
0.711458
0.684437
0.625865
0.588343
0.566342
0.548273
0.531284
0.516438
0.505077
0.497164
0.495009
0.492879
0.490522
0.487983
0.4874
0.489386
0.494586
0.505912
0.532554
0.562593
0.570825
0.564001
0.00958695
0.112709
0.47509
0.717937
0.689344
0.62792
0.589595
0.566816
0.548184
0.530986
0.516154
0.504666
0.496978
0.494786
0.492527
0.48988
0.487387
0.485882
0.487496
0.492325
0.503519
0.529673
0.558827
0.56722
0.5611
0.00917065
0.107166
0.44718
0.728292
0.696915
0.630314
0.590994
0.567292
0.548037
0.530602
0.51574
0.504163
0.496883
0.49434
0.492325
0.488943
0.486458
0.483574
0.484888
0.489129
0.499945
0.525294
0.553388
0.562116
0.55699
0.0137675
0.103258
0.411014
0.741558
0.706318
0.63276
0.592409
0.567676
0.547809
0.530155
0.515227
0.503632
0.496994
0.493527
0.49227
0.488119
0.485053
0.480214
0.481201
0.484877
0.495106
0.519061
0.545709
0.554933
0.551095
0.0190873
0.0984082
0.367628
0.759303
0.717484
0.636391
0.593802
0.567862
0.547493
0.529679
0.514678
0.50318
0.49733
0.4926
0.491669
0.487752
0.482014
0.476709
0.476606
0.479575
0.488834
0.510656
0.535333
0.544847
0.542385
0.0249288
0.0927391
0.3188
0.780511
0.730052
0.640418
0.594478
0.567718
0.547116
0.52922
0.514176
0.502966
0.497903
0.491843
0.49067
0.486896
0.478785
0.47283
0.470838
0.473267
0.48108
0.499674
0.521525
0.530346
0.52907
0.0344462
0.09179
0.294093
0.78039
0.736222
0.642897
0.594186
0.56707
0.5467
0.528921
0.513878
0.502987
0.498105
0.49098
0.489247
0.485021
0.476426
0.468507
0.464237
0.465892
0.471854
0.485915
0.503187
0.509005
0.507238
0.0450521
0.0957109
0.285383
0.776139
0.733695
0.643117
0.593736
0.566773
0.546544
0.52887
0.513877
0.503265
0.497843
0.490067
0.487754
0.482705
0.473784
0.463356
0.457199
0.457743
0.461222
0.468588
0.479706
0.47885
0.469502
0.00691407
0.118773
0.514962
0.704784
0.679229
0.623134
0.586668
0.56561
0.548178
0.53144
0.516535
0.505285
0.497421
0.495247
0.493164
0.490957
0.488506
0.488566
0.491007
0.49628
0.50748
0.534205
0.565032
0.573161
0.565681
0.00536767
0.116627
0.508991
0.70729
0.681249
0.624295
0.587387
0.566022
0.548366
0.531555
0.516691
0.505433
0.497507
0.495358
0.49327
0.491048
0.488581
0.488434
0.490742
0.496018
0.50728
0.534054
0.564674
0.572849
0.565575
0.00577951
0.114284
0.49561
0.711429
0.684414
0.625851
0.588333
0.566337
0.548271
0.531283
0.516437
0.505074
0.497162
0.495004
0.492872
0.490515
0.487975
0.4874
0.489388
0.494583
0.505904
0.532546
0.562587
0.570822
0.563989
0.00957568
0.112713
0.475147
0.71791
0.689322
0.627908
0.589586
0.566811
0.548182
0.530986
0.516154
0.504663
0.496975
0.49478
0.492524
0.489876
0.48738
0.48588
0.487497
0.492323
0.503511
0.529664
0.558822
0.567218
0.561091
0.00916855
0.107177
0.44724
0.728262
0.696892
0.630303
0.590986
0.567287
0.548035
0.530601
0.515739
0.504159
0.496878
0.49434
0.492313
0.488935
0.486453
0.483576
0.484888
0.489124
0.499938
0.525285
0.553382
0.562114
0.556984
0.0137569
0.103262
0.411074
0.741528
0.706296
0.632751
0.592402
0.567673
0.547808
0.530154
0.515225
0.503629
0.496991
0.493521
0.492265
0.488116
0.485047
0.480212
0.481197
0.484872
0.4951
0.519052
0.545702
0.554931
0.551091
0.0190838
0.0984182
0.367691
0.759268
0.717463
0.63638
0.593796
0.56786
0.547492
0.529678
0.514675
0.503177
0.497328
0.492591
0.491662
0.48776
0.48201
0.476706
0.476602
0.47957
0.488828
0.510648
0.535326
0.544846
0.542384
0.0249196
0.0927454
0.318853
0.780485
0.730032
0.640409
0.594475
0.567717
0.547115
0.529218
0.514173
0.502962
0.497899
0.491838
0.490667
0.486896
0.478785
0.472829
0.470835
0.473263
0.481075
0.499666
0.521518
0.530345
0.529069
0.0344375
0.0917895
0.294106
0.780385
0.736218
0.642892
0.594185
0.56707
0.546699
0.52892
0.513875
0.502981
0.498103
0.490977
0.489245
0.485019
0.476423
0.468507
0.464234
0.465888
0.47185
0.485908
0.50318
0.509003
0.507238
0.0450404
0.0957074
0.285383
0.776121
0.733693
0.64312
0.593736
0.566773
0.546543
0.528869
0.513875
0.503259
0.497843
0.490061
0.48775
0.482706
0.473785
0.463359
0.457196
0.45774
0.461219
0.468583
0.4797
0.478847
0.469502
0.00691532
0.118782
0.515007
0.704774
0.67922
0.623126
0.586663
0.565604
0.54817
0.531429
0.51652
0.505269
0.497407
0.495234
0.493155
0.49095
0.488506
0.488581
0.491024
0.496295
0.507494
0.534219
0.565039
0.573164
0.565691
0.00536598
0.116635
0.509036
0.707281
0.68124
0.624288
0.587381
0.566015
0.548357
0.531543
0.516676
0.505417
0.497492
0.495345
0.49326
0.491041
0.488582
0.488448
0.490756
0.496032
0.507295
0.534068
0.564681
0.572853
0.565584
0.00578071
0.114293
0.495656
0.711418
0.684404
0.625843
0.588328
0.566331
0.548262
0.531272
0.516423
0.50506
0.497146
0.494991
0.492863
0.49051
0.487977
0.487411
0.489398
0.494597
0.505921
0.53256
0.562595
0.570827
0.564
0.00957536
0.112721
0.475194
0.717898
0.689312
0.6279
0.589581
0.566805
0.548173
0.530974
0.51614
0.504648
0.496959
0.494768
0.492513
0.489871
0.487383
0.485892
0.487507
0.492336
0.503528
0.529679
0.558832
0.567224
0.561102
0.00916819
0.107186
0.447289
0.728247
0.69688
0.630297
0.59098
0.567281
0.548027
0.530591
0.515725
0.504143
0.496864
0.494331
0.492301
0.48893
0.486452
0.483585
0.484899
0.48914
0.499955
0.5253
0.553394
0.562122
0.556996
0.0137562
0.103271
0.411124
0.741512
0.706284
0.632744
0.592397
0.567667
0.547801
0.530145
0.515211
0.503612
0.496983
0.493503
0.492257
0.488116
0.485043
0.480218
0.481208
0.484888
0.495116
0.519068
0.545716
0.55494
0.551103
0.0190816
0.0984264
0.367742
0.759251
0.71745
0.636374
0.593791
0.567854
0.547485
0.529669
0.51466
0.503163
0.497327
0.492568
0.491646
0.487773
0.482002
0.476714
0.476613
0.479582
0.488841
0.510663
0.535343
0.544856
0.542395
0.0249166
0.0927529
0.318896
0.780474
0.730021
0.640404
0.594472
0.567712
0.547109
0.52921
0.51416
0.502949
0.497894
0.491822
0.490647
0.48689
0.478808
0.47284
0.470844
0.473273
0.481087
0.49968
0.521535
0.530355
0.52908
0.0344334
0.091791
0.29412
0.780392
0.736218
0.642889
0.594183
0.567066
0.546693
0.528912
0.513863
0.502968
0.498093
0.490959
0.489226
0.485005
0.476448
0.468511
0.464247
0.465899
0.47186
0.485921
0.503198
0.509013
0.507247
0.0450325
0.0957054
0.285386
0.776121
0.733695
0.643121
0.593734
0.56677
0.546537
0.528861
0.513864
0.503247
0.497832
0.490046
0.487737
0.482696
0.473798
0.463364
0.457208
0.45775
0.461228
0.468595
0.479715
0.478858
0.469509
0.00689997
0.11878
0.515037
0.704764
0.679211
0.623117
0.586661
0.565604
0.548165
0.531426
0.516526
0.50526
0.497411
0.495225
0.493141
0.490928
0.488495
0.488618
0.491056
0.496287
0.507468
0.534199
0.56502
0.573162
0.565679
0.00538674
0.116653
0.509065
0.707256
0.68122
0.624278
0.587377
0.566014
0.548355
0.53154
0.516681
0.505405
0.497505
0.495337
0.49325
0.491015
0.488554
0.488492
0.490792
0.496028
0.507269
0.534046
0.564661
0.57285
0.565572
0.00579393
0.114307
0.495686
0.711397
0.684388
0.625836
0.588323
0.566329
0.54826
0.531269
0.516423
0.505047
0.49716
0.494983
0.492856
0.490486
0.487955
0.48745
0.489434
0.494597
0.505893
0.532535
0.562573
0.57082
0.563985
0.009544
0.112709
0.47523
0.717888
0.689304
0.627897
0.589576
0.566803
0.548172
0.530971
0.51614
0.504642
0.496963
0.494754
0.492509
0.489865
0.487381
0.485908
0.487523
0.492332
0.503506
0.529654
0.558804
0.567212
0.561083
0.00917335
0.107197
0.44733
0.72823
0.696867
0.630292
0.590976
0.56728
0.548027
0.530586
0.515727
0.504144
0.496852
0.494326
0.492285
0.488935
0.486468
0.483594
0.484901
0.489132
0.499937
0.525274
0.553361
0.562104
0.556973
0.0137456
0.103273
0.41117
0.741493
0.706271
0.63274
0.592393
0.567666
0.5478
0.530139
0.515213
0.50362
0.496958
0.493523
0.492247
0.488101
0.485063
0.480231
0.48121
0.484879
0.4951
0.519039
0.545677
0.554918
0.551077
0.0190826
0.0984381
0.367797
0.759225
0.717435
0.636367
0.593789
0.567855
0.547485
0.529665
0.514663
0.503168
0.497289
0.492596
0.491659
0.487734
0.48203
0.476712
0.47661
0.479577
0.48883
0.510635
0.5353
0.544831
0.542369
0.0249087
0.09276
0.318948
0.780457
0.730006
0.640399
0.594471
0.567713
0.54711
0.529208
0.514163
0.502949
0.497871
0.491835
0.490672
0.486896
0.478768
0.472829
0.470842
0.473269
0.481078
0.499656
0.521491
0.530329
0.529055
0.0344253
0.0917917
0.294137
0.780397
0.73622
0.642888
0.594184
0.567069
0.546694
0.528911
0.513866
0.502967
0.498088
0.490974
0.48925
0.485027
0.476394
0.468512
0.464235
0.465892
0.471855
0.485901
0.503157
0.508988
0.507224
0.0450238
0.0957057
0.285392
0.776114
0.733698
0.643127
0.593737
0.566772
0.546538
0.528861
0.513865
0.503245
0.497833
0.49005
0.487744
0.482712
0.47377
0.463371
0.45719
0.45774
0.461225
0.468582
0.479682
0.478832
0.469489
0.00691358
0.118807
0.515146
0.704753
0.679203
0.623114
0.586667
0.565614
0.548176
0.531427
0.516516
0.50526
0.497389
0.495217
0.49314
0.490945
0.48852
0.488612
0.491059
0.496329
0.507526
0.534249
0.565044
0.573157
0.565697
0.00535489
0.116655
0.509177
0.707262
0.681225
0.624279
0.587384
0.566023
0.548362
0.531543
0.516673
0.505401
0.497476
0.495325
0.49324
0.491025
0.488587
0.488495
0.490801
0.496068
0.507323
0.534096
0.564687
0.572846
0.565591
0.00577569
0.114318
0.495801
0.711393
0.684385
0.625835
0.588329
0.566335
0.548265
0.531273
0.516418
0.505035
0.497137
0.494968
0.492844
0.490484
0.487971
0.487478
0.489464
0.494637
0.505942
0.532583
0.562602
0.57082
0.564006
0.00957932
0.112752
0.475347
0.717868
0.689289
0.627894
0.589581
0.566807
0.548174
0.530975
0.516132
0.504623
0.49696
0.494732
0.492508
0.489839
0.487362
0.485954
0.487573
0.492375
0.503549
0.529699
0.558837
0.567216
0.561106
0.0091556
0.107209
0.447455
0.728213
0.696855
0.63029
0.59098
0.567283
0.548026
0.530587
0.515719
0.504119
0.496854
0.494275
0.492312
0.488911
0.486446
0.483637
0.484946
0.489164
0.499976
0.525324
0.5534
0.562113
0.556998
0.0137495
0.103302
0.411307
0.74147
0.706254
0.632736
0.592396
0.567669
0.547799
0.530139
0.515207
0.503591
0.496955
0.493482
0.492235
0.488093
0.485054
0.480276
0.48125
0.484912
0.495139
0.519089
0.545721
0.554931
0.551103
0.0190686
0.098455
0.367937
0.759198
0.717416
0.636362
0.593791
0.567858
0.547484
0.529662
0.514657
0.503143
0.497278
0.492571
0.491642
0.48771
0.482042
0.476742
0.476644
0.479611
0.488868
0.510685
0.535345
0.544845
0.542394
0.0249059
0.0927851
0.319071
0.780443
0.729984
0.640394
0.594473
0.567716
0.547109
0.529203
0.514155
0.502932
0.497855
0.491808
0.490646
0.486877
0.478778
0.472852
0.470873
0.4733
0.481112
0.499702
0.521539
0.530344
0.529078
0.0344162
0.0917993
0.294185
0.780429
0.736227
0.642885
0.594186
0.567071
0.546694
0.528905
0.513857
0.502957
0.498067
0.490953
0.489229
0.485012
0.476417
0.468525
0.464265
0.465922
0.471884
0.485944
0.503201
0.509004
0.507245
0.0450026
0.0957031
0.28541
0.77613
0.733712
0.643134
0.59374
0.566774
0.546538
0.528856
0.513857
0.503239
0.49781
0.490042
0.487734
0.482696
0.473783
0.463369
0.457224
0.45777
0.46125
0.468614
0.479718
0.478855
0.469505
0.0620648
0.105781
0.281142
0.766164
0.729295
0.644368
0.594372
0.566947
0.546689
0.52907
0.514183
0.503628
0.497462
0.489505
0.486329
0.480434
0.470174
0.457997
0.450926
0.447158
0.448126
0.449295
0.447549
0.432833
0.374938
0.0726301
0.113948
0.275797
0.745698
0.717948
0.646895
0.596521
0.567903
0.54736
0.529518
0.514789
0.504054
0.49722
0.489473
0.484178
0.478109
0.466356
0.453111
0.444909
0.436572
0.434856
0.430878
0.420838
0.395443
0.335534
0.0790082
0.117909
0.265884
0.707072
0.696667
0.651206
0.601166
0.56995
0.547948
0.53001
0.515494
0.504587
0.497074
0.489558
0.480921
0.475671
0.462925
0.448891
0.439117
0.427548
0.421759
0.414582
0.400571
0.372716
0.323614
0.0871158
0.122363
0.255574
0.656897
0.679929
0.655304
0.605355
0.571221
0.548151
0.530447
0.516269
0.505264
0.497089
0.489289
0.478116
0.472534
0.46007
0.445469
0.432863
0.420491
0.410278
0.40017
0.383932
0.358352
0.318991
0.0872844
0.119766
0.240503
0.602194
0.680735
0.658357
0.609919
0.572586
0.548463
0.531076
0.517274
0.506171
0.497179
0.48853
0.47625
0.469717
0.456897
0.442399
0.427667
0.415193
0.40089
0.388421
0.371114
0.347643
0.31587
0.0885838
0.117393
0.223935
0.541389
0.686293
0.664181
0.614248
0.573999
0.549247
0.532263
0.518696
0.50728
0.497386
0.487638
0.475319
0.466653
0.453998
0.439273
0.42413
0.410916
0.394069
0.379327
0.361921
0.339441
0.312905
0.0907978
0.114911
0.204955
0.471954
0.699026
0.674175
0.61887
0.576139
0.551154
0.534411
0.520724
0.508689
0.497745
0.486963
0.474647
0.462333
0.452636
0.437003
0.421975
0.40667
0.390328
0.372727
0.355149
0.33364
0.310053
0.0936108
0.112443
0.185357
0.40054
0.714089
0.685803
0.624572
0.579659
0.554633
0.537495
0.523229
0.510372
0.498301
0.486377
0.473735
0.459398
0.450783
0.435857
0.420816
0.404246
0.388104
0.36842
0.350379
0.330153
0.307962
0.0959783
0.109491
0.166255
0.334793
0.708957
0.686778
0.633415
0.587075
0.559452
0.541108
0.525911
0.512237
0.498987
0.485795
0.472877
0.458511
0.449215
0.43518
0.420104
0.403607
0.386198
0.367211
0.347586
0.3281
0.307496
0.0968435
0.107855
0.157225
0.304994
0.681928
0.678128
0.644025
0.593905
0.563987
0.544527
0.528667
0.513941
0.499514
0.485361
0.472296
0.458472
0.446445
0.435557
0.420338
0.403786
0.385827
0.367189
0.346982
0.327805
0.307778
0.0977307
0.106357
0.147861
0.273799
0.616536
0.666518
0.646819
0.603228
0.569351
0.548172
0.531302
0.515448
0.499982
0.485308
0.471972
0.458593
0.445223
0.435768
0.420975
0.404311
0.386239
0.367391
0.34774
0.328004
0.308897
0.0987456
0.104849
0.137478
0.238462
0.523123
0.669238
0.652512
0.612247
0.575942
0.552283
0.534129
0.517123
0.500683
0.485454
0.47184
0.459186
0.445729
0.436394
0.422234
0.405809
0.387462
0.368444
0.349517
0.329457
0.311229
0.100173
0.103528
0.126631
0.20122
0.413883
0.676482
0.661453
0.624111
0.58342
0.556956
0.53731
0.519052
0.501658
0.48582
0.472014
0.460595
0.447316
0.435691
0.424569
0.408031
0.389849
0.370988
0.351934
0.333343
0.313998
0.101756
0.10261
0.117768
0.170437
0.320141
0.662151
0.658908
0.63461
0.59058
0.561622
0.540383
0.520814
0.502719
0.486749
0.473779
0.462872
0.449956
0.436346
0.426648
0.410023
0.392145
0.373928
0.354858
0.337176
0.318283
0.101005
0.0988805
0.110401
0.152918
0.278105
0.60766
0.650914
0.635393
0.599651
0.566723
0.542863
0.522535
0.504984
0.490314
0.477557
0.465496
0.452923
0.4379
0.426949
0.411616
0.394773
0.376791
0.358611
0.340601
0.323691
0.0986253
0.0921408
0.10109
0.13419
0.232516
0.501608
0.650006
0.639096
0.610356
0.573121
0.54658
0.526234
0.509843
0.495114
0.481419
0.468352
0.455527
0.440367
0.42656
0.414626
0.397336
0.380171
0.362849
0.34501
0.328056
0.0961715
0.0850447
0.0912208
0.113915
0.181765
0.368969
0.649341
0.645886
0.625815
0.584753
0.553431
0.532174
0.515413
0.500144
0.485584
0.471404
0.457708
0.442714
0.427369
0.416569
0.400508
0.384026
0.366888
0.350046
0.333126
0.0948745
0.079754
0.0841176
0.100017
0.148227
0.28509
0.617973
0.645869
0.632126
0.598706
0.563232
0.539558
0.521688
0.505531
0.489919
0.474626
0.459817
0.445332
0.429491
0.416226
0.404154
0.38778
0.371621
0.355329
0.33889
0.0937171
0.0757035
0.078909
0.090649
0.127176
0.235309
0.534064
0.643679
0.635468
0.611693
0.574553
0.548176
0.528448
0.510948
0.494193
0.477933
0.462317
0.447637
0.431893
0.417374
0.407514
0.392162
0.376448
0.360366
0.344758
0.0927446
0.0719886
0.0741278
0.0819058
0.105716
0.176584
0.376068
0.636707
0.636024
0.622642
0.59123
0.558571
0.535724
0.516488
0.498492
0.48139
0.465231
0.450221
0.435549
0.42027
0.407693
0.397069
0.381279
0.36593
0.350411
0.0920342
0.0693617
0.0708235
0.0761057
0.0918839
0.138431
0.271392
0.594427
0.63717
0.627817
0.603518
0.568823
0.543166
0.521864
0.50276
0.485089
0.46859
0.453366
0.439092
0.424099
0.409738
0.400481
0.386249
0.371572
0.356731
0.0914514
0.0673076
0.0683161
0.0719949
0.0828752
0.11519
0.212707
0.489487
0.633863
0.630322
0.614114
0.579848
0.550929
0.527663
0.507476
0.489284
0.472578
0.45714
0.442745
0.428703
0.41449
0.40177
0.3922
0.377395
0.362933
0.0910363
0.0657126
0.0663589
0.0687224
0.075516
0.094739
0.150376
0.302022
0.611641
0.630595
0.620676
0.594832
0.56097
0.534664
0.5129
0.494103
0.477141
0.461481
0.446916
0.433042
0.41936
0.404959
0.395696
0.382834
0.369109
0.090725
0.0645833
0.0650111
0.0666164
0.071205
0.0839747
0.121264
0.231456
0.527281
0.626868
0.622342
0.60566
0.570658
0.542191
0.519157
0.499709
0.4824
0.46638
0.451564
0.437438
0.424303
0.41055
0.398102
0.389197
0.375649
0.0905169
0.0637458
0.0640044
0.065015
0.0678744
0.0755952
0.0972705
0.161165
0.341575
0.606633
0.621344
0.611836
0.586676
0.55308
0.527366
0.50621
0.488295
0.471916
0.456734
0.442313
0.429173
0.415961
0.402648
0.391785
0.382275
0.0903769
0.0631926
0.0633503
0.0640151
0.0659074
0.0709264
0.0845871
0.124193
0.23944
0.531366
0.616096
0.611854
0.596711
0.564608
0.536241
0.51369
0.494817
0.477916
0.462378
0.447766
0.434235
0.421644
0.408738
0.396545
0.387746
0.090282
0.0628141
0.0628974
0.0633011
0.064469
0.0675297
0.0756469
0.0984587
0.16656
0.359087
0.594029
0.610237
0.601805
0.579366
0.547518
0.522391
0.50218
0.484507
0.468472
0.453677
0.439715
0.427225
0.414912
0.402655
0.391054
0.0902693
0.0626008
0.0626378
0.0628843
0.0636235
0.0655716
0.0706203
0.08434
0.124177
0.239074
0.519399
0.604117
0.601306
0.58903
0.561835
0.533375
0.510853
0.492157
0.475322
0.460145
0.445831
0.433106
0.42105
0.409089
0.397653
0.09039
0.0626504
0.0625103
0.0626375
0.063063
0.0642138
0.0671796
0.0750034
0.0969264
0.162168
0.344856
0.579704
0.598898
0.592109
0.574609
0.54475
0.519962
0.500041
0.482761
0.467132
0.452597
0.439399
0.427483
0.415877
0.404537
0.0904468
0.0628066
0.0623518
0.0624293
0.0626927
0.0634045
0.0652378
0.0699541
0.0827748
0.12016
0.229036
0.49793
0.590122
0.590201
0.582041
0.561533
0.532504
0.50968
0.491074
0.47479
0.459868
0.446231
0.434211
0.422681
0.411844
0.0904792
0.0629151