/*--------------------------------*- C++ -*----------------------------------*\
| =========                 |                                                 |
| \\      /  F ield         | OpenFOAM: The Open Source CFD Toolbox           |
|  \\    /   O peration     | Version:  4.1                                   |
|   \\  /    A nd           | Web:      www.OpenFOAM.org                      |
|    \\/     M anipulation  |                                                 |
\*---------------------------------------------------------------------------*/
FoamFile
{
    version     2.0;
    format      ascii;
    class       surfaceScalarField;
    location    "0.94";
    object      phi;
}
// * * * * * * * * * * * * * * * * * * * * * * * * * * * * * * * * * * * * * //

dimensions      [1 0 -1 0 0 0 0];

internalField   nonuniform List<scalar> 
150500
(
0.00170572
2.5877e-06
9.56364e-11
0.00181481
5.58865e-06
1.17323e-10
0.00233369
7.75122e-05
3.98385e-10
0.00214374
7.60517e-05
4.64841e-11
0.00196807
7.03471e-05
4.27657e-11
0.00177712
6.77525e-05
4.55218e-11
0.00164342
6.44188e-05
5.76583e-11
0.00154776
6.08466e-05
4.10699e-11
0.0014708
5.84124e-05
3.60879e-11
0.00139458
5.66305e-05
1.8085e-11
0.00131602
5.51047e-05
-3.40327e-11
0.00126187
5.5014e-05
-1.33131e-11
0.00123589
5.7375e-05
-9.91361e-12
0.00129541
6.18324e-05
8.57554e-12
0.00135046
6.79545e-05
4.70208e-11
0.00136498
7.1924e-05
5.3335e-11
0.00134379
7.39652e-05
3.75856e-11
0.0012146
7.69175e-05
8.1788e-11
0.00108323
7.76244e-05
1.01663e-10
0.000939924
8.16286e-05
1.6802e-10
0.000780761
8.82724e-05
2.03084e-10
0.000582791
9.78953e-05
1.82691e-10
0.000376911
0.000109296
9.22521e-11
0.000203874
0.000118067
2.4955e-11
0.000124838
1.57441e-10
0.00171027
-6.44354e-06
-1.03221e-10
0.00183227
3.13749e-06
1.20249e-11
0.00236007
0.000146979
4.15294e-10
0.00215692
0.000159478
1.31268e-10
0.00197247
0.000146405
1.0598e-10
0.00177876
0.000137633
5.593e-11
0.0016427
0.000128491
6.07672e-11
0.00154587
0.000121195
4.56988e-11
0.00146867
0.0001165
2.71156e-11
0.0013928
0.000113218
1.08075e-11
0.00131514
0.000110241
-3.04134e-11
0.00126215
0.000110278
1.22625e-11
0.00123695
0.000114685
-6.99e-11
0.00129717
0.000123563
3.91305e-12
0.00135327
0.000135174
2.70567e-11
0.00136936
0.000143096
1.04405e-10
0.0013498
0.000147235
1.61142e-10
0.00122035
0.000152397
1.12081e-11
0.00108907
0.000155068
2.44478e-11
0.000946501
0.000163513
1.47895e-10
0.000787459
0.000177335
2.15981e-10
0.000588685
0.000197716
1.93505e-10
0.000379974
0.000222101
9.63505e-11
0.000203965
0.000239879
2.60092e-11
0.000250596
1.54437e-10
0.00171481
-2.65504e-05
-1.22084e-10
0.00184187
1.11127e-06
2.86485e-12
0.00237308
0.000218687
4.24736e-10
0.0021598
0.000245307
1.03864e-10
0.00197359
0.000221805
7.97463e-11
0.00178341
0.000204979
4.41666e-11
0.0016463
0.000189886
6.23871e-11
0.00154837
0.000179259
5.06475e-11
0.00147119
0.00017289
3.06889e-11
0.00139605
0.000168618
6.34776e-12
0.00132005
0.000164811
-1.05947e-11
0.00126881
0.00016524
3.48607e-11
0.00124308
0.000171566
-8.2833e-11
0.00130269
0.000184615
1.53554e-11
0.00136028
0.000201805
2.76436e-11
0.00137864
0.000214019
1.32431e-10
0.0013603
0.000220413
1.8243e-10
0.00123101
0.000227085
-4.48307e-11
0.0010975
0.00023216
-3.57701e-11
0.000956817
0.000245578
1.2987e-10
0.00079855
0.000267304
2.47064e-10
0.000600391
0.000299568
2.12013e-10
0.000389103
0.00033935
1.10019e-10
0.000208762
0.00036759
3.46686e-11
0.000383007
1.53795e-10
0.00171241
-1.2351e-05
2.14816e-10
0.00183225
5.69236e-06
1.95661e-10
0.00237775
0.000295178
4.16788e-10
0.00215729
0.000332527
1.05895e-11
0.00197555
0.00029194
1.20771e-11
0.00179074
0.000267439
2.27679e-11
0.00165347
0.000247648
5.59089e-11
0.00155401
0.000234686
4.72819e-11
0.00147648
0.000227438
2.75185e-11
0.00140191
0.000222764
8.37355e-12
0.00132802
0.000218686
-1.54564e-11
0.0012789
0.000219787
1.90037e-11
0.00125138
0.000227409
-5.48383e-11
0.00131012
0.000243301
3.91039e-11
0.00137038
0.000266451
2.26325e-12
0.0013923
0.000284065
6.31695e-11
0.00137429
0.000294122
1.14039e-10
0.00124798
0.000301317
3.62405e-11
0.00111029
0.000309438
2.21971e-11
0.000971687
0.000327784
1.24396e-10
0.000816118
0.000358345
2.33831e-10
0.000619159
0.000404419
2.09434e-10
0.000404847
0.000461038
1.44289e-10
0.000217243
0.000503288
5.63229e-11
0.00052589
1.54994e-10
0.00172648
-3.02092e-05
-4.94678e-11
0.00186931
2.01598e-06
4.17027e-11
0.00243794
0.00036654
4.28952e-10
0.00218356
0.000431671
3.5099e-11
0.00198753
0.000364655
2.93453e-11
0.00180412
0.000325765
2.61595e-11
0.00166728
0.000302391
5.02081e-11
0.00156522
0.000288653
3.90545e-11
0.00148577
0.000281001
2.52871e-11
0.00141096
0.000276123
2.19858e-11
0.00133949
0.000272439
-2.47213e-11
0.00129257
0.000274229
-9.14472e-12
0.00126274
0.000281888
2.70316e-11
0.001319
0.000300434
4.29716e-12
0.00138311
0.000328723
7.97116e-11
0.00140921
0.000353014
2.52555e-11
0.00139019
0.000368798
2.43384e-11
0.00127041
0.000376604
5.75385e-11
0.00112791
0.000387547
9.17636e-11
0.000989907
0.000409873
1.51193e-10
0.000839708
0.00044964
2.0048e-10
0.000645268
0.000511376
2.16013e-10
0.000427531
0.000588168
1.78436e-10
0.000229979
0.000649558
7.99711e-11
0.000684074
1.54663e-10
0.00173469
-3.65122e-05
6.63807e-11
0.0018768
1.56829e-06
1.21008e-10
0.00248676
0.000425787
4.67347e-10
0.0022092
0.00053738
1.04814e-11
0.00199853
0.000435323
5.14756e-12
0.00182283
0.000378321
1.98576e-11
0.00168693
0.000355399
4.35378e-11
0.00158121
0.000342221
3.02846e-11
0.00149858
0.000334366
2.40728e-11
0.00142347
0.000329603
3.30041e-11
0.00135459
0.000326844
-2.24513e-11
0.00130919
0.000329221
-4.26403e-11
0.0012773
0.000335875
6.67542e-11
0.00132696
0.000357052
-5.98348e-11
0.00140056
0.000390691
3.83041e-11
0.00142732
0.00042019
6.35328e-11
0.00140172
0.000445121
-1.1672e-11
0.00129598
0.000449538
6.59916e-11
0.00115006
0.000464925
1.14001e-10
0.00101439
0.000490951
1.65002e-10
0.000870761
0.000540683
1.92002e-10
0.000680049
0.000619533
2.27028e-10
0.000459061
0.000720224
2.11134e-10
0.000248764
0.000808379
9.90023e-11
0.000864015
1.48703e-10
0.00175117
-3.97289e-05
-3.72733e-11
0.0018925
1.89186e-06
5.40574e-11
0.00256013
0.000452477
4.56431e-10
0.0022613
0.000653074
1.61429e-11
0.00202401
0.000506959
-3.99062e-12
0.00185384
0.000431892
3.07077e-11
0.00171474
0.000409976
4.01547e-11
0.00160283
0.000397483
2.32604e-11
0.00151522
0.000389021
1.95091e-11
0.0014393
0.000384381
2.5853e-11
0.00137279
0.000382588
-1.88988e-11
0.00132788
0.000385197
-3.58776e-11
0.00129515
0.000392116
1.17895e-10
0.00133503
0.000413891
-9.97101e-11
0.00142116
0.000451712
-5.3193e-11
0.00144726
0.000487058
1.32454e-10
0.00141948
0.000514918
-4.88176e-11
0.00132794
0.000521529
1.03905e-10
0.00117721
0.000540843
1.29473e-10
0.00104514
0.000570379
1.43408e-10
0.000909149
0.000630075
1.64278e-10
0.000724375
0.000727202
2.23626e-10
0.000502301
0.000854894
2.46304e-10
0.000277869
0.000981486
1.1274e-10
0.00107693
1.33641e-10
0.00177998
-5.15797e-05
1.6954e-11
0.0019246
-6.80636e-06
8.60782e-11
0.00264859
0.00039489
3.84476e-10
0.00235988
0.000794627
5.57804e-11
0.00208549
0.000601772
-1.89382e-11
0.00190018
0.000498789
2.15137e-11
0.00175189
0.000472248
3.15683e-11
0.00163078
0.000457291
1.98374e-11
0.0015362
0.00044716
1.52035e-11
0.0014585
0.000442058
1.14931e-11
0.00139367
0.000440511
-2.04005e-11
0.00134831
0.000442573
-8.0528e-13
0.00131723
0.000449953
7.58718e-11
0.00134457
0.000471604
-6.91458e-11
0.0014357
0.000512347
-1.16888e-10
0.00147376
0.000553201
-2.57056e-11
0.00144116
0.000577974
2.46972e-10
0.00136247
0.000590007
1.22284e-10
0.00121472
0.000613527
1.12917e-10
0.00108478
0.0006464
1.27071e-10
0.000956288
0.000716418
1.44933e-10
0.000781371
0.000830927
2.00057e-10
0.000563318
0.000988759
2.54506e-10
0.000324252
0.0011695
1.2041e-10
0.00133987
1.18986e-10
0.00181711
-5.73945e-05
3.69287e-12
0.00188236
-2.55918e-05
4.36682e-11
0.00238861
0.000253077
1.82409e-10
0.00239952
0.000933611
1.86501e-10
0.00217269
0.000742207
5.45709e-11
0.00196183
0.000596189
1.3715e-11
0.00179991
0.00054894
2.75784e-11
0.00166518
0.000526425
1.95833e-11
0.0015615
0.000511575
1.57585e-11
0.00148085
0.000504124
2.44362e-12
0.00141676
0.000501176
-1.61582e-11
0.00137085
0.000501909
1.35172e-11
0.00134198
0.000509504
-3.72066e-12
0.00135631
0.000528374
-8.04071e-11
0.00144807
0.0005685
-1.12551e-10
0.00150229
0.000613766
-7.97708e-11
0.00146832
0.000640993
3.25088e-10
0.00140257
0.000656403
4.71909e-11
0.00126113
0.000680731
1.59226e-10
0.00113408
0.000717754
1.32237e-10
0.00101489
0.000797691
1.17576e-10
0.000852736
0.000925511
1.75293e-10
0.000647785
0.00111585
2.51104e-10
0.000403679
0.00136203
1.17128e-10
0.00168505
1.03484e-10
0.00187341
-5.00868e-11
-7.35706e-05
0.00183355
-1.74135e-13
-5.57986e-05
0.00224834
8.84604e-11
0.00012213
0.00248074
1.67235e-10
0.00090526
0.002266
8.51023e-11
0.000886066
0.00203521
2.17739e-11
0.000724224
0.00185531
2.37946e-11
0.000646077
0.00170379
2.21052e-11
0.000608433
0.00158909
1.69409e-11
0.000584905
0.00150472
3.92455e-12
0.000572175
0.00144076
-1.03217e-11
0.000564928
0.00139536
1.93302e-11
0.000563658
0.00136855
-3.16811e-11
0.000569561
0.00136924
-3.85497e-12
0.000583549
0.00145648
-2.54251e-11
0.000619633
0.00152109
-7.47357e-11
0.000670344
0.00149823
1.8244e-10
0.000701829
0.0014445
-2.83537e-12
0.000718992
0.00132133
1.82879e-10
0.00073876
0.00119455
1.36315e-10
0.000785601
0.00108266
8.77079e-11
0.000866
0.000944177
1.26898e-10
0.00100314
0.000764971
2.10317e-10
0.00122543
0.000548097
1.4166e-10
0.00151963
8.30435e-11
0.00217806
0.00170578
2.41816e-06
-7.60992e-11
0.001815
5.50039e-06
-1.08328e-11
0.00233417
7.73954e-05
1.07506e-10
0.00214406
7.60845e-05
-6.04654e-11
0.0019682
7.04189e-05
-5.37672e-11
0.00177709
6.77911e-05
-4.8893e-11
0.00164333
6.44411e-05
-1.08154e-11
0.00154766
6.08811e-05
2.5649e-12
0.00147067
5.84595e-05
-2.55537e-11
0.0013944
5.66729e-05
-2.22111e-11
0.0013158
5.51357e-05
3.13618e-11
0.00126164
5.50428e-05
-3.54365e-11
0.00123573
5.73632e-05
2.16935e-11
0.00129525
6.18639e-05
-5.5058e-11
0.00135026
6.79228e-05
-8.36208e-11
0.00136483
7.18824e-05
-1.26408e-10
0.00134376
7.39089e-05
-5.81136e-11
0.00121473
7.6752e-05
2.28904e-10
0.00108335
7.75737e-05
1.44416e-10
0.000939988
8.16347e-05
-3.84847e-11
0.000780913
8.82942e-05
-1.2433e-10
0.0005829
9.79075e-05
-9.46281e-11
0.000376905
0.000109299
-9.95529e-11
0.000203844
0.000118077
-1.2295e-11
0.000124848
-5.4493e-11
0.00171023
-6.41998e-06
1.07087e-10
0.00183209
3.15232e-06
9.64885e-11
0.00235998
0.000146992
1.3234e-10
0.00215685
0.000159451
-1.37741e-10
0.00197248
0.000146372
-1.11857e-10
0.00177888
0.000137608
-5.47867e-11
0.00164289
0.000128469
-1.67226e-11
0.00154613
0.00012118
-3.88394e-12
0.00146901
0.000116483
-1.28611e-11
0.00139321
0.00011319
-8.39606e-12
0.00131559
0.000110194
2.09184e-11
0.00126262
0.000110203
-7.44891e-11
0.00123722
0.000114567
6.07604e-11
0.00129729
0.000123416
-4.345e-11
0.00135358
0.000135051
-5.82477e-11
0.00136984
0.000143063
-1.48767e-10
0.00135037
0.000147269
-1.42148e-10
0.00122103
0.00015249
2.71557e-10
0.00108945
0.000155155
2.03368e-10
0.000946615
0.000163597
-2.07423e-11
0.000787636
0.000177405
-1.22528e-10
0.000588819
0.00019777
-1.03594e-10
0.000379977
0.000222132
-1.03701e-10
0.000203934
0.000239912
-1.65452e-11
0.000250615
-5.82206e-11
0.00171474
-2.61361e-05
5.99817e-11
0.00184165
1.16473e-06
7.15099e-11
0.00237311
0.000218736
1.22898e-10
0.00215981
0.000245256
-1.15523e-10
0.00197362
0.000221714
-8.83289e-11
0.00178352
0.000204904
-3.97635e-11
0.00164648
0.000189819
-2.21741e-11
0.00154861
0.00017919
-9.36351e-12
0.00147154
0.000172809
-1.31347e-11
0.00139645
0.000168528
-7.60159e-12
0.00132044
0.000164695
-7.29216e-13
0.00126917
0.000165076
-7.61567e-11
0.00124319
0.000171357
6.42534e-11
0.00130257
0.000184328
-4.78268e-11
0.00136028
0.000201605
-4.24959e-11
0.00137882
0.000213951
-1.31193e-10
0.00136063
0.000220529
-1.03906e-10
0.00123161
0.000227403
2.3659e-10
0.00109776
0.000232393
2.07646e-10
0.000956764
0.000245707
-4.46416e-12
0.000798639
0.000267382
-1.31212e-10
0.000600489
0.000299649
-1.21507e-10
0.00038909
0.00033941
-1.17832e-10
0.000208725
0.000367642
-3.3768e-11
0.000383028
-7.06587e-11
0.00171256
-1.24668e-05
-1.53588e-10
0.00183267
5.64694e-06
-5.22348e-11
0.00237837
0.000295141
1.40784e-10
0.00215762
0.000332552
-5.69736e-11
0.00197569
0.000291921
-4.45323e-11
0.00179082
0.000267381
-2.31457e-11
0.00165357
0.000247563
-2.21786e-11
0.00155417
0.000234585
-8.21521e-12
0.0014767
0.000227319
-3.76673e-12
0.00140214
0.000222635
-1.5255e-11
0.00132823
0.000218553
-4.38567e-13
0.00127906
0.000219602
-3.47783e-11
0.00125128
0.000227221
1.90652e-11
0.00130975
0.000243029
-7.37204e-11
0.00137006
0.000266314
-2.62027e-11
0.00139201
0.00028406
-2.4676e-11
0.00137409
0.000294253
-9.87649e-12
0.00124799
0.000301634
1.00181e-10
0.00111034
0.000309697
7.79971e-11
0.000971582
0.000327955
-2.04753e-11
0.000816146
0.000358452
-1.06565e-10
0.000619185
0.000404494
-1.19801e-10
0.000404795
0.000461097
-1.45397e-10
0.000217188
0.000503339
-6.25051e-11
0.000525902
-8.94447e-11
0.00172647
-3.01688e-05
2.322e-11
0.00186924
2.01275e-06
5.38339e-11
0.00243813
0.000366484
1.55498e-10
0.00218368
0.000431651
-1.05213e-10
0.00198761
0.000364613
-7.827e-11
0.00180416
0.000325708
-2.78358e-11
0.0016673
0.000302301
-2.02567e-11
0.00156526
0.000288536
-4.68798e-12
0.00148585
0.000280869
-1.78502e-12
0.00141104
0.000275981
-3.16573e-11
0.00133953
0.000272295
8.90718e-12
0.00129259
0.000274057
7.1817e-12
0.00126274
0.000281775
-7.09522e-11
0.00131899
0.000300312
-3.04758e-11
0.00138295
0.000328765
-8.36897e-11
0.001409
0.000353155
3.62854e-11
0.00138998
0.000369002
9.61814e-11
0.00127009
0.000376859
3.19786e-11
0.00112761
0.000387759
5.49387e-12
0.000989694
0.00041003
-3.78941e-11
0.000839646
0.000449742
-8.01574e-11
0.000645205
0.000511414
-1.24312e-10
0.000427436
0.000588174
-1.70481e-10
0.000229906
0.000649581
-9.24016e-11
0.000684065
-1.10821e-10
0.00173474
-3.65836e-05
-5.38207e-11
0.00187694
1.53866e-06
7.97885e-12
0.00248717
0.000425692
1.6755e-10
0.00220941
0.000537396
-1.14025e-10
0.00199866
0.000435316
-7.65996e-11
0.00182287
0.000378276
-2.46724e-11
0.00168693
0.000355313
-1.59515e-11
0.00158121
0.000342118
-5.89542e-13
0.00149858
0.000334255
-1.58156e-12
0.00142343
0.000329478
-3.59579e-11
0.00135447
0.000326709
1.14537e-11
0.00130908
0.000329103
3.3891e-11
0.00127718
0.000335828
-1.41775e-10
0.00132701
0.000357014
1.00088e-10
0.00140022
0.000390773
-6.83519e-11
0.00142709
0.000420421
-6.53557e-11
0.00140154
0.000445316
1.21168e-10
0.00129561
0.000449791
5.15512e-11
0.00114966
0.000465073
7.38875e-12
0.00101409
0.000491031
-3.9581e-11
0.000870611
0.000540716
-7.3867e-11
0.000679902
0.00061951
-1.36986e-10
0.00045893
0.000720165
-1.96627e-10
0.000248679
0.000808357
-1.1752e-10
0.000863976
-1.28307e-10
0.00175117
-3.96924e-05
4.67438e-12
0.00189248
1.88758e-06
5.27946e-11
0.00256037
0.000452347
1.98605e-10
0.00226144
0.000653067
-1.53431e-10
0.00202409
0.000506952
-9.16545e-11
0.00185387
0.000431855
-3.74175e-11
0.00171474
0.000409905
-1.32572e-11
0.00160283
0.000397404
5.13186e-12
0.0015152
0.000388943
8.44167e-13
0.00143921
0.000384297
-2.31765e-11
0.0013726
0.000382501
1.32465e-11
0.00132773
0.000385159
2.31387e-11
0.00129491
0.000392141
-2.11292e-10
0.00133517
0.000413941
1.37448e-10
0.00142083
0.000451943
6.25755e-11
0.00144685
0.000487246
-2.04817e-10
0.001419
0.000515151
1.59292e-10
0.00132725
0.000521654
-1.01623e-11
0.00117673
0.00054081
-1.21644e-11
0.00104483
0.00057034
-2.54622e-11
0.000908979
0.000630006
-5.04145e-11
0.000724191
0.000727097
-1.29821e-10
0.000502156
0.000854776
-2.15478e-10
0.00027778
0.000981417
-1.33187e-10
0.00107686
-1.32012e-10
0.00178002
-5.15936e-05
-4.43697e-11
0.00192474
-6.82562e-06
2.53652e-11
0.00264831
0.000394669
1.86809e-10
0.00236005
0.000794684
-1.14189e-10
0.0020856
0.000601824
-8.6635e-11
0.00190022
0.000498788
-2.70674e-11
0.00175191
0.000472202
-1.61692e-12
0.00163078
0.00045724
9.38866e-12
0.00153618
0.000447115
3.99987e-12
0.00145841
0.000442025
-4.36408e-12
0.00139348
0.000440491
1.70479e-11
0.00134818
0.000442604
1.03104e-12
0.00131698
0.000450011
-1.33011e-10
0.00134488
0.000471799
6.0752e-11
0.00143582
0.000512679
1.15408e-10
0.00147288
0.000553542
2.24497e-11
0.00144041
0.000578137
-1.80876e-10
0.00136148
0.00058994
-4.73821e-11
0.001214
0.000613304
-9.42307e-12
0.00108437
0.000646221
-2.09809e-11
0.000956124
0.000716258
-4.08389e-11
0.000781218
0.000830746
-1.09181e-10
0.000563184
0.000988594
-2.11008e-10
0.000324169
0.00116938
-1.37694e-10
0.00133976
-1.28755e-10
0.00181715
-5.74523e-05
-4.64233e-11
0.00188235
-2.56347e-05
2.93137e-12
0.00238849
0.000252871
5.75302e-11
0.00239956
0.000933527
2.41429e-11
0.00217287
0.000742318
6.10127e-12
0.0019619
0.000596236
-5.1621e-12
0.00179994
0.000548933
7.11042e-12
0.00166519
0.000526403
1.32659e-11
0.00156148
0.000511561
4.59119e-12
0.00148076
0.000504135
4.04548e-13
0.00141659
0.000501221
1.29178e-11
0.00137071
0.000501977
-3.8686e-12
0.0013417
0.000509586
-3.35881e-11
0.00135668
0.00052871
7.08491e-11
0.00144833
0.000569055
1.1517e-10
0.0015018
0.000614059
1.08253e-10
0.00146747
0.000640948
-2.54354e-10
0.0014015
0.000656171
4.37042e-12
0.00126023
0.000680401
-5.74779e-11
0.00113361
0.000717445
-3.32691e-11
0.0010147
0.000797468
-2.37548e-11
0.00085259
0.0009253
-9.12667e-11
0.000647678
0.00111561
-1.95468e-10
0.000403612
0.00136187
-1.29663e-10
0.00168492
-1.18285e-10
0.00187346
-3.41475e-11
-7.35782e-05
0.00183348
1.23955e-12
-5.58354e-05
0.00224818
2.24423e-11
0.000122011
0.00248076
-3.31125e-11
0.000905158
0.00226616
1.17448e-11
0.000886114
0.00203529
3.35964e-11
0.000724271
0.00185535
1.82135e-11
0.000646098
0.0017038
1.38902e-11
0.000608434
0.00158908
4.33967e-12
0.000584919
0.00150466
1.87199e-13
0.000572226
0.00144063
7.44196e-12
0.00056502
0.00139522
-6.35449e-12
0.000563774
0.0013683
7.16153e-12
0.000569722
0.00136955
1.75394e-11
0.000583902
0.00145695
3.46433e-11
0.000620183
0.00152097
7.93287e-11
0.000670661
0.00149751
-1.32121e-10
0.000701752
0.00144362
4.44679e-11
0.000718759
0.00132035
-8.08067e-11
0.000738394
0.00119417
-4.24179e-11
0.000785213
0.00108252
-1.02291e-11
0.000865746
0.000944069
-5.59132e-11
0.00100292
0.000764842
-1.54116e-10
0.00122515
0.000548105
-1.26976e-10
0.00151944
-1.00903e-10
0.00217797
0.00170575
2.54308e-06
5.5553e-12
0.0018149
5.56732e-06
5.03762e-11
0.00233399
7.74916e-05
2.08679e-10
0.00214394
7.60688e-05
-4.08217e-11
0.00196818
7.03668e-05
-4.1444e-11
0.00177714
6.77638e-05
-3.16012e-11
0.00164338
6.4427e-05
-2.17088e-11
0.00154771
6.08642e-05
-3.66078e-11
0.0014707
5.84475e-05
-4.93873e-11
0.00139444
5.66786e-05
-6.67584e-11
0.00131584
5.51547e-05
-8.41622e-11
0.00126164
5.50745e-05
-9.79687e-11
0.0012358
5.74364e-05
-8.22363e-11
0.00129536
6.19203e-05
-7.86356e-11
0.00135022
6.79922e-05
-5.20357e-11
0.00136456
7.19125e-05
-2.62873e-11
0.0013433
7.38992e-05
1.74002e-12
0.00121391
7.6779e-05
5.65951e-11
0.00108304
7.75364e-05
9.67623e-11
0.000939942
8.15831e-05
8.15612e-11
0.000780752
8.82367e-05
6.73515e-11
0.000582724
9.78569e-05
6.65829e-11
0.000376826
0.000109265
3.16881e-11
0.000203824
0.000118046
1.69416e-11
0.000124822
4.53219e-11
0.00171029
-6.47096e-06
-7.68496e-12
0.00183229
3.13099e-06
2.6868e-11
0.00236026
0.000146996
2.17349e-10
0.00215703
0.000159497
-4.23631e-11
0.00197255
0.000146404
-3.81338e-11
0.00177881
0.000137632
-2.88649e-11
0.00164274
0.000128491
-2.06334e-11
0.00154591
0.000121207
-3.70531e-11
0.0014687
0.000116536
-5.09405e-11
0.00139284
0.000113271
-6.94892e-11
0.00131516
0.000110299
-8.58555e-11
0.00126216
0.000110352
-9.24285e-11
0.00123701
0.000114764
-8.14067e-11
0.00129723
0.00012366
-7.95934e-11
0.00135321
0.000135217
-5.06708e-11
0.00136918
0.000143079
-2.91164e-11
0.00134953
0.000147149
3.59018e-12
0.00122008
0.000152245
5.25914e-11
0.00108901
0.00015497
7.09512e-11
0.000946547
0.000163459
8.28445e-11
0.000787483
0.000177289
7.17457e-11
0.000588645
0.000197663
6.63885e-11
0.000379896
0.000222056
3.31051e-11
0.000203912
0.000239848
1.81943e-11
0.000250562
4.62878e-11
0.00171479
-2.63953e-05
5.48798e-12
0.0018418
1.12956e-06
3.32146e-11
0.00237324
0.000218725
2.06608e-10
0.0021599
0.000245317
-4.32628e-11
0.00197366
0.00022178
-3.62359e-11
0.00178347
0.000204958
-2.80168e-11
0.00164636
0.000189874
-2.0558e-11
0.00154843
0.00017926
-3.68397e-11
0.00147127
0.000172913
-5.14444e-11
0.00139614
0.000168664
-6.97311e-11
0.00132013
0.000164862
-8.2149e-11
0.00126888
0.000165305
-8.38102e-11
0.00124317
0.000171634
-8.20776e-11
0.00130273
0.000184683
-7.72387e-11
0.00136027
0.00020182
-5.22646e-11
0.00137861
0.000213994
-2.16353e-11
0.00136025
0.000220345
1.03069e-11
0.00123097
0.000226999
4.57715e-11
0.00109749
0.000232079
3.91107e-11
0.000956812
0.000245509
8.03025e-11
0.000798562
0.000267236
7.75324e-11
0.000600367
0.000299505
6.69979e-11
0.000389037
0.000339302
3.63027e-11
0.000208716
0.000367556
2.09042e-11
0.000382959
4.79781e-11
0.00171248
-1.23957e-05
-1.63388e-12
0.00183244
5.68037e-06
4.04593e-11
0.00237817
0.000295191
1.97434e-10
0.00215752
0.00033258
-4.87428e-11
0.00197567
0.000291937
-4.06108e-11
0.00179081
0.000267421
-2.741e-11
0.00165353
0.000247628
-2.07751e-11
0.00155408
0.000234677
-3.71389e-11
0.00147656
0.000227445
-5.03965e-11
0.00140199
0.000222794
-6.63863e-11
0.00132811
0.000218738
-7.77102e-11
0.00127897
0.000219851
-8.80607e-11
0.00125136
0.000227474
-9.53781e-11
0.00131
0.000243318
-7.23394e-11
0.00137025
0.000266455
-6.71665e-11
0.00139214
0.000284031
-3.01281e-11
0.00137416
0.000294044
1.5129e-11
0.00124791
0.000301248
5.20942e-11
0.00111032
0.00030938
6.12079e-11
0.000971688
0.000327735
7.68525e-11
0.00081613
0.000358289
8.32753e-11
0.000619156
0.000404354
7.17025e-11
0.000404796
0.000460992
4.57062e-11
0.000217204
0.000503254
2.7718e-11
0.000525836
5.21185e-11
0.0017265
-3.01938e-05
-1.59698e-12
0.00186934
2.01867e-06
3.19454e-11
0.00243824
0.000366537
1.9388e-10
0.00218374
0.000431721
-5.33745e-11
0.00198763
0.000364644
-4.5408e-11
0.00180419
0.00032574
-2.60501e-11
0.00166733
0.000302364
-2.07348e-11
0.00156528
0.00028863
-3.69107e-11
0.00148584
0.000280991
-4.63329e-11
0.00141104
0.000276136
-5.89115e-11
0.00133959
0.000272478
-7.92243e-11
0.00129266
0.000274269
-9.10499e-11
0.00126284
0.000281911
-7.99498e-11
0.00131909
0.000300501
-5.2562e-11
0.00138314
0.000328716
-6.67206e-11
0.00140921
0.000353015
-2.95349e-11
0.00139018
0.000368809
-4.56461e-12
0.00127038
0.000376571
5.7193e-11
0.00112789
0.000387527
7.12893e-11
0.0009899
0.00040985
8.8004e-11
0.000839722
0.000449598
8.37355e-11
0.000645268
0.000511312
6.98968e-11
0.00042749
0.000588113
5.31836e-11
0.000229947
0.000649522
3.50074e-11
0.000684018
5.58782e-11
0.00173474
-3.65486e-05
-3.4206e-12
0.00187692
1.55731e-06
4.7546e-11
0.00248719
0.000425736
1.96149e-10
0.00220944
0.000537465
-6.2792e-11
0.00199867
0.000435332
-4.72123e-11
0.00182292
0.000378295
-2.39097e-11
0.00168699
0.000355366
-2.21562e-11
0.00158126
0.000342193
-3.50239e-11
0.00149864
0.00033435
-4.27244e-11
0.00142354
0.000329603
-5.39029e-11
0.00135466
0.000326863
-8.33535e-11
0.00130924
0.000329249
-9.1194e-11
0.00127732
0.000335899
-2.91412e-11
0.00132686
0.000357064
-9.38369e-11
0.00140065
0.000390706
-3.07979e-11
0.00142732
0.000420195
-5.98977e-12
0.0014017
0.000445164
-2.14207e-11
0.00129606
0.000449558
3.56055e-11
0.00115008
0.000464947
6.5611e-11
0.00101439
0.000490941
8.76548e-11
0.000870771
0.000540644
8.42401e-11
0.000680042
0.00061947
7.35465e-11
0.000459027
0.000720158
6.42548e-11
0.000248738
0.000808336
4.13833e-11
0.000863959
5.69441e-11
0.00175121
-3.97193e-05
-9.5914e-12
0.00189255
1.88719e-06
2.81641e-11
0.00256053
0.000452337
1.88199e-10
0.00226156
0.000653163
-7.75013e-11
0.00202417
0.000506983
-4.66675e-11
0.00185394
0.000431874
-2.34068e-11
0.00171481
0.000409945
-2.18877e-11
0.0016029
0.000397458
-3.14615e-11
0.00151528
0.000389003
-3.97181e-11
0.00143936
0.000384373
-5.22434e-11
0.00137285
0.000382598
-8.3907e-11
0.00132791
0.000385226
-8.36734e-11
0.00129515
0.000392177
-5.33473e-12
0.00133479
0.00041385
-1.26894e-10
0.00142112
0.000451676
-8.89571e-11
0.00144723
0.000487121
6.14548e-11
0.0014195
0.000514965
-3.43439e-11
0.00132804
0.000521603
4.40275e-11
0.00117729
0.000540879
6.11223e-11
0.00104517
0.000570372
6.62491e-11
0.000909149
0.000630027
6.6985e-11
0.00072436
0.000727129
7.10898e-11
0.000502273
0.000854819
7.76501e-11
0.00027785
0.000981437
4.69378e-11
0.00107688
5.41573e-11
0.00178005
-5.15932e-05
-1.3595e-11
0.00192476
-6.83602e-06
3.37915e-11
0.00264794
0.00039454
1.47582e-10
0.00236017
0.000794815
-4.68967e-11
0.00208569
0.000601883
-4.31558e-11
0.0019003
0.000498812
-1.90141e-11
0.00175198
0.000472235
-1.83324e-11
0.00163085
0.000457274
-2.71927e-11
0.00153626
0.000447145
-3.75427e-11
0.00145856
0.000442053
-4.96671e-11
0.00139373
0.000440519
-7.87539e-11
0.00134834
0.000442601
-7.54608e-11
0.00131726
0.000450011
-2.34805e-11
0.0013445
0.000471602
-9.30082e-11
0.00143566
0.000512363
-9.90484e-11
0.00147373
0.000553278
-3.02254e-11
0.00144113
0.000578071
1.107e-10
0.00136246
0.000590071
5.56309e-11
0.00121471
0.000613534
5.312e-11
0.00108478
0.000646368
5.80975e-11
0.000956294
0.00071635
6.19023e-11
0.000781372
0.00083084
6.47258e-11
0.000563301
0.00098868
7.75842e-11
0.00032424
0.00116945
4.82615e-11
0.00133981
4.93346e-11
0.0018172
-5.74477e-05
-1.48126e-11
0.00188225
-2.56457e-05
8.3251e-12
0.00238829
0.000252711
5.19021e-11
0.00239958
0.000933481
3.45809e-11
0.00217297
0.000742412
6.34714e-13
0.00196198
0.000596282
-1.18743e-11
0.00180002
0.00054896
-1.35592e-11
0.00166526
0.000526423
-2.24862e-11
0.00156156
0.000511569
-3.52987e-11
0.00148089
0.000504127
-4.70257e-11
0.0014168
0.000501193
-6.97401e-11
0.00137087
0.000501928
-7.48854e-11
0.00134199
0.000509548
-5.05847e-11
0.00135635
0.000528423
-9.54457e-11
0.00144809
0.000568624
-9.47112e-11
0.00150224
0.000613902
-6.23815e-11
0.00146824
0.000641093
1.11483e-10
0.00140245
0.000656445
2.68522e-11
0.00126103
0.00068071
6.9431e-11
0.00113403
0.000717682
6.01486e-11
0.00101488
0.000797604
5.37595e-11
0.000852743
0.000925414
5.79826e-11
0.000647785
0.00111576
7.84193e-11
0.000403676
0.00136197
4.52531e-11
0.00168499
4.28126e-11
0.00187353
-2.86781e-11
-7.35716e-05
0.00183339
-7.41336e-12
-5.58544e-05
0.00224804
1.67728e-11
0.000121901
0.00248092
1.44973e-12
0.000905066
0.00226618
1.15592e-11
0.00088612
0.00203535
4.22309e-12
0.000724284
0.00185542
-7.37515e-12
0.000646116
0.00170387
-2.01154e-11
0.000608444
0.00158915
-3.40182e-11
0.000584911
0.00150476
-4.3571e-11
0.00057219
0.00144078
-6.26898e-11
0.000564955
0.00139535
-7.26895e-11
0.000563682
0.00136852
-6.05451e-11
0.000569601
0.00136934
-8.34434e-11
0.000583635
0.00145665
-7.2356e-11
0.000619818
0.00152116
-4.65771e-11
0.000670524
0.00149815
5.77909e-11
0.000701929
0.00144437
1.72436e-11
0.000719035
0.00132113
6.01063e-11
0.000738722
0.00119448
5.23792e-11
0.0007855
0.00108266
4.67426e-11
0.000865901
0.000944184
5.8845e-11
0.00100303
0.000764952
6.78315e-11
0.00122532
0.00054813
5.02615e-11
0.00151956
3.42963e-11
0.00217803
0.00170576
2.53487e-06
-3.41859e-11
0.00181493
5.56286e-06
3.7267e-11
0.00233409
7.74875e-05
3.40368e-10
0.002144
7.60728e-05
-1.92758e-10
0.00196821
7.03697e-05
-1.65122e-10
0.00177713
6.77635e-05
-1.21931e-10
0.00164335
6.44249e-05
-5.70989e-11
0.00154767
6.0864e-05
-1.05591e-11
0.00147066
5.84489e-05
6.65716e-12
0.0013944
5.66786e-05
1.43446e-11
0.00131579
5.51528e-05
1.48258e-11
0.0012616
5.5074e-05
1.08981e-11
0.00123577
5.74358e-05
-1.99368e-12
0.00129534
6.19235e-05
-6.53661e-12
0.0013502
6.79935e-05
-1.27149e-11
0.00136454
7.19138e-05
-1.23091e-11
0.00134329
7.38992e-05
-1.788e-11
0.00121385
7.67716e-05
-1.83314e-11
0.00108304
7.75346e-05
-4.69248e-12
0.000939961
8.15856e-05
-1.26727e-11
0.000780785
8.82373e-05
-3.02042e-11
0.000582738
9.7853e-05
-5.42957e-11
0.000376822
0.000109259
-4.79375e-11
0.000203819
0.000118039
-4.04504e-11
0.000124813
-1.05561e-10
0.00171029
-6.46187e-06
-2.49491e-11
0.00183229
3.13375e-06
4.25294e-11
0.00236033
0.000146998
3.30808e-10
0.00215708
0.000159497
-2.00378e-10
0.00197257
0.000146399
-1.69091e-10
0.00177881
0.000137627
-1.13651e-10
0.00164272
0.000128486
-6.02957e-11
0.0015459
0.000121203
-1.39459e-11
0.00146869
0.000116533
3.80386e-12
0.00139282
0.000113267
1.30247e-11
0.00131515
0.000110294
1.4453e-11
0.00126215
0.000110347
9.94287e-12
0.001237
0.000114755
9.28855e-13
0.00129722
0.000123653
-4.9064e-12
0.00135323
0.000135216
-1.38476e-11
0.00136921
0.000143087
-1.26479e-11
0.00134955
0.000147156
-2.21959e-11
0.00122009
0.000152248
-8.95683e-12
0.00108902
0.000154975
3.19251e-12
0.00094656
0.000163464
-1.27942e-11
0.000787515
0.000177288
-3.32214e-11
0.000588659
0.000197658
-5.47863e-11
0.000379892
0.000222046
-4.75528e-11
0.000203907
0.000239836
-3.78755e-11
0.000250544
-1.00264e-10
0.0017148
-2.64027e-05
1.89799e-11
0.00184183
1.12928e-06
6.61993e-11
0.00237334
0.000218724
3.26268e-10
0.00215995
0.000245322
-2.07604e-10
0.00197368
0.000221775
-1.68806e-10
0.00178348
0.000204951
-9.80862e-11
0.00164635
0.000189866
-6.11418e-11
0.00154842
0.000179251
-1.8929e-11
0.00147126
0.000172903
1.243e-12
0.00139614
0.000168653
1.20577e-11
0.00132013
0.00016485
1.43949e-11
0.00126889
0.000165287
8.33568e-12
0.00124317
0.000171609
1.74205e-12
0.00130273
0.000184666
-7.85749e-12
0.00136028
0.000201802
-1.33003e-11
0.00137861
0.000213987
-2.98106e-11
0.00136027
0.000220349
-3.95911e-11
0.00123098
0.000227012
-3.7436e-12
0.0010975
0.000232101
1.03912e-11
0.00095681
0.000245528
-9.61081e-12
0.000798595
0.000267244
-4.14316e-11
0.000600381
0.000299504
-5.67088e-11
0.000389032
0.000339293
-4.68217e-11
0.00020871
0.000367539
-3.27283e-11
0.000382935
-9.01739e-11
0.00171249
-1.23977e-05
-9.6402e-11
0.00183246
5.67917e-06
-1.42098e-12
0.00237828
0.000295186
3.29441e-10
0.00215757
0.00033259
-1.87655e-10
0.00197569
0.000291935
-1.48814e-10
0.00179081
0.000267415
-7.86771e-11
0.00165352
0.00024762
-5.85057e-11
0.00155406
0.000234666
-2.13236e-11
0.00147655
0.000227432
-1.72157e-15
0.00140199
0.000222781