/*--------------------------------*- C++ -*----------------------------------*\
| =========                 |                                                 |
| \\      /  F ield         | OpenFOAM: The Open Source CFD Toolbox           |
|  \\    /   O peration     | Version:  4.1                                   |
|   \\  /    A nd           | Web:      www.OpenFOAM.org                      |
|    \\/     M anipulation  |                                                 |
\*---------------------------------------------------------------------------*/
FoamFile
{
    version     2.0;
    format      ascii;
    class       volScalarField;
    location    "0.94";
    object      T;
}
// * * * * * * * * * * * * * * * * * * * * * * * * * * * * * * * * * * * * * //

dimensions      [0 0 0 1 0 0 0];

internalField   nonuniform List<scalar> 
52500
(
0.0188525
0.681197
0.814648
0.894704
0.9247
0.96661
1.03199
1.09256
1.12817
1.14793
1.16379
1.17283
1.16866
1.12057
1.03937
0.998648
0.993266
1.01448
1.05709
1.07829
1.08442
1.09689
1.11218
1.10381
1.04786
0.0145642
0.672515
0.811802
0.894603
0.924845
0.967087
1.03269
1.09319
1.12856
1.14801
1.16359
1.17238
1.1681
1.11953
1.03846
0.997782
0.992205
1.01285
1.0555
1.0771
1.08331
1.09567
1.11068
1.10227
1.04631
0.015679
0.659848
0.807561
0.896311
0.925287
0.966712
1.03193
1.09259
1.1282
1.14756
1.16307
1.17184
1.16811
1.12122
1.03931
0.996901
0.990234
1.00924
1.05207
1.07536
1.08222
1.09482
1.10932
1.1011
1.04509
0.0264238
0.646424
0.80246
0.899334
0.925719
0.96523
1.02966
1.09057
1.12681
1.14623
1.16199
1.17133
1.1691
1.12696
1.04288
0.997497
0.989066
1.00572
1.04793
1.07318
1.08065
1.09311
1.10714
1.09934
1.04394
0.0252073
0.617868
0.792842
0.90017
0.927068
0.964048
1.0266
1.08676
1.12378
1.14387
1.16002
1.17015
1.16983
1.13406
1.04889
0.998776
0.98739
1.00093
1.04172
1.0697
1.07839
1.09072
1.10423
1.09712
1.04259
0.0384155
0.589999
0.783218
0.899904
0.928661
0.962911
1.02273
1.08189
1.11993
1.14099
1.15704
1.16808
1.17015
1.14116
1.0571
1.00084
0.985306
0.995063
1.03371
1.06525
1.07519
1.08714
1.09967
1.09368
1.04068
0.0541561
0.553883
0.772562
0.897433
0.92942
0.961508
1.01749
1.07551
1.1151
1.13766
1.1536
1.16559
1.17034
1.14716
1.066
1.00385
0.98208
0.988308
1.02359
1.05867
1.07087
1.08243
1.09411
1.0895
1.03758
0.0721112
0.509487
0.761682
0.891349
0.928287
0.958881
1.01021
1.06744
1.10922
1.13368
1.14987
1.16289
1.17036
1.15256
1.07623
1.00744
0.978809
0.981182
1.01155
1.05013
1.06495
1.07627
1.08564
1.08176
1.03199
0.102887
0.471593
0.782646
0.87713
0.922111
0.953691
1.00041
1.05733
1.10236
1.12917
1.14608
1.16001
1.16959
1.15721
1.08829
1.01215
0.976483
0.97397
0.997059
1.03971
1.05703
1.06716
1.07444
1.07104
1.02042
0.139202
0.435436
0.844774
0.859412
0.905037
0.943537
0.988719
1.04655
1.09524
1.12447
1.14252
1.15726
1.16798
1.16088
1.10161
1.01853
0.975068
0.966402
0.982345
1.02426
1.04617
1.05468
1.05912
1.05226
0.996235
0.0187936
0.681132
0.814587
0.894671
0.924684
0.966622
1.03203
1.0926
1.12821
1.14797
1.16383
1.17284
1.16863
1.1204
1.03927
0.998629
0.993267
1.01447
1.05707
1.07826
1.08439
1.09687
1.11217
1.10379
1.04786
0.0146276
0.672517
0.811764
0.894591
0.924853
0.967066
1.03262
1.0931
1.12847
1.1479
1.1635
1.17233
1.16817
1.12003
1.03881
0.99788
0.992188
1.01275
1.05539
1.07702
1.08325
1.09565
1.11067
1.10225
1.04631
0.0157544
0.65986
0.807518
0.896296
0.925299
0.966702
1.03187
1.09251
1.1281
1.14741
1.16295
1.17181
1.16823
1.12182
1.03979
0.997157
0.990365
1.00927
1.05204
1.07533
1.08219
1.09481
1.10931
1.10108
1.04508
0.0262876
0.64629
0.802383
0.899307
0.925718
0.965236
1.02964
1.09052
1.12674
1.14612
1.16189
1.17129
1.16916
1.12742
1.04333
0.997802
0.989332
1.00597
1.04809
1.07322
1.08063
1.09309
1.10712
1.09932
1.04393
0.0252388
0.617849
0.792788
0.900158
0.927062
0.964047
1.02659
1.08676
1.12377
1.14383
1.15997
1.17011
1.16979
1.13392
1.04877
0.998759
0.987427
1.00102
1.04187
1.06976
1.07839
1.0907
1.10421
1.0971
1.04258
0.038373
0.58992
0.783141
0.89989
0.928655
0.962904
1.02273
1.08189
1.11992
1.14097
1.15704
1.16807
1.17009
1.14094
1.05681
1.00069
0.98525
0.995045
1.0337
1.06521
1.07514
1.08711
1.09965
1.09366
1.04067
0.0541822
0.553846
0.772492
0.897426
0.929415
0.961497
1.01749
1.0755
1.11508
1.13765
1.1536
1.16558
1.17026
1.14689
1.06562
1.0037
0.982131
0.988432
1.02375
1.05868
1.07084
1.08238
1.09409
1.08948
1.03756
0.0721002
0.509419
0.761609
0.89134
0.928281
0.958867
1.0102
1.06743
1.1092
1.13366
1.14987
1.16288
1.17026
1.1522
1.07562
1.00726
0.978921
0.981462
1.01199
1.05036
1.065
1.07625
1.0856
1.08173
1.03198
0.102885
0.471543
0.782625
0.877114
0.922093
0.953675
1.00039
1.05732
1.10233
1.12914
1.14607
1.16
1.16953
1.15687
1.08757
1.0119
0.976608
0.974322
0.997611
1.04008
1.05718
1.06718
1.0744
1.07101
1.02041
0.139245
0.435391
0.844815
0.859414
0.905008
0.943518
0.988698
1.04653
1.09522
1.12444
1.14251
1.15726
1.16794
1.16062
1.10089
1.01823
0.975158
0.966728
0.982802
1.02468
1.04636
1.05473
1.0591
1.05224
0.996223
0.0188362
0.681116
0.814593
0.894689
0.924689
0.966607
1.032
1.09256
1.12817
1.14795
1.1638
1.17282
1.16857
1.12021
1.03916
0.998642
0.993348
1.01461
1.05718
1.07831
1.08443
1.09687
1.11218
1.10379
1.04787
0.0145705
0.672445
0.81175
0.894592
0.924841
0.967075
1.03266
1.09316
1.12853
1.14799
1.16357
1.17236
1.16805
1.11938
1.03841
0.997825
0.992295
1.01296
1.05557
1.07712
1.0833
1.09565
1.11068
1.10225
1.04632
0.0157176
0.659798
0.807509
0.896303
0.925285
0.966702
1.03191
1.09256
1.12817
1.14752
1.16303
1.17181
1.16808
1.1212
1.03934
0.996948
0.990276
1.00927
1.05208
1.07534
1.08221
1.09481
1.10932
1.10108
1.04509
0.0263768
0.646314
0.80239
0.899316
0.925715
0.965226
1.02964
1.09054
1.12678
1.14619
1.16195
1.1713
1.1691
1.12713
1.04307
0.997646
0.989222
1.00588
1.04805
1.07322
1.08064
1.0931
1.10714
1.09933
1.04394
0.0252242
0.617793
0.792776
0.900156
0.927063
0.964043
1.02658
1.08674
1.12377
1.14385
1.15999
1.17013
1.16983
1.13403
1.04887
0.998787
0.987422
1.00099
1.04181
1.06973
1.07838
1.09071
1.10423
1.09711
1.0426
0.0384039
0.58989
0.783138
0.899886
0.928656
0.962902
1.02271
1.08187
1.11992
1.14097
1.15702
1.16808
1.17016
1.14126
1.05721
1.00087
0.985269
0.995
1.03364
1.06521
1.07516
1.08713
1.09968
1.09367
1.04069
0.0541791
0.553784
0.772479
0.897415
0.929414
0.961496
1.01747
1.07549
1.11508
1.13765
1.15358
1.16557
1.17035
1.1473
1.06624
1.00395
0.982073
0.98826
1.02348
1.05857
1.07082
1.0824
1.09412
1.0895
1.03758
0.0721253
0.50937
0.761605
0.891322
0.928278
0.958866
1.01019
1.06742
1.1092
1.13367
1.14985
1.16286
1.17034
1.15259
1.07633
1.0075
0.978825
0.981194
1.01154
1.0501
1.06492
1.07625
1.08563
1.08176
1.032
0.102913
0.471504
0.78267
0.877086
0.922082
0.95367
1.00038
1.05731
1.10234
1.12915
1.14606
1.15998
1.16958
1.15717
1.08823
1.01213
0.976495
0.974014
0.997136
1.03976
1.05704
1.06716
1.07443
1.07103
1.02042
0.139277
0.435338
0.844902
0.859417
0.904972
0.943505
0.988689
1.04652
1.09522
1.12445
1.14251
1.15725
1.16798
1.16082
1.10141
1.01842
0.975055
0.966446
0.982434
1.02436
1.04622
1.05469
1.05912
1.05226
0.996239
0.0188329
0.681083
0.814573
0.894684
0.924684
0.966609
1.032
1.09257
1.12818
1.14796
1.16381
1.17283
1.16857
1.12019
1.03915
0.998638
0.993348
1.01462
1.05718
1.0783
1.08442
1.09687
1.11217
1.10379
1.04786
0.0145753
0.672417
0.811731
0.894589
0.924838
0.967075
1.03267
1.09317
1.12853
1.148
1.16358
1.17237
1.16806
1.1194
1.03841
0.997819
0.992287
1.01296
1.05556
1.07711
1.08329
1.09565
1.11067
1.10224
1.04631
0.0157143
0.659765
0.807488
0.896299
0.925283
0.966703
1.03191
1.09256
1.12817
1.14752
1.16304
1.17182
1.1681
1.12123
1.03937
0.996987
0.990323
1.00933
1.05212
1.07535
1.0822
1.0948
1.10932
1.10108
1.04508
0.026378
0.646283
0.802368
0.899312
0.925714
0.965227
1.02965
1.09055
1.12679
1.14619
1.16195
1.17131
1.16913
1.12723
1.04316
0.997709
0.98927
1.00592
1.04807
1.07321
1.08063
1.09309
1.10713
1.09932
1.04393
0.0252253
0.61776
0.792753
0.900152
0.927062
0.964043
1.02658
1.08675
1.12377
1.14385
1.15999
1.17013
1.16983
1.1341
1.04894
0.998783
0.98738
1.00094
1.04177
1.06972
1.07838
1.09071
1.10422
1.0971
1.04259
0.0384064
0.589855
0.783114
0.899882
0.928654
0.962902
1.02272
1.08188
1.11992
1.14097
1.15702
1.16808
1.17015
1.1412
1.05712
1.0008
0.985215
0.994944
1.03356
1.06515
1.07513
1.08711
1.09967
1.09367
1.04068
0.0541861
0.553749
0.772455
0.89741
0.929412
0.961494
1.01748
1.07549
1.11509
1.13766
1.15359
1.16558
1.17033
1.14715
1.066
1.00384
0.98209
0.988324
1.02358
1.0586
1.07081
1.08239
1.09411
1.08949
1.03757
0.0721352
0.509333
0.761587
0.891314
0.928275
0.958863
1.01019
1.06742
1.10921
1.13368
1.14987
1.16289
1.17033
1.15244
1.07602
1.0074
0.978882
0.981335
1.01178
1.05025
1.06497
1.07626
1.08562
1.08175
1.03199
0.102926
0.471479
0.782686
0.877073
0.922072
0.953665
1.00038
1.05731
1.10234
1.12916
1.14608
1.16001
1.16958
1.15707
1.08797
1.01205
0.976556
0.974164
0.997365
1.03993
1.05713
1.06718
1.07442
1.07102
1.02042
0.139306
0.435313
0.844949
0.85942
0.904952
0.943495
0.988682
1.04652
1.09523
1.12445
1.14252
1.15727
1.16798
1.16077
1.10127
1.01838
0.975092
0.966539
0.982557
1.02448
1.04628
1.05472
1.05912
1.05225
0.996233
0.01885
0.68102
0.814568
0.894699
0.92469
0.966612
1.032
1.09256
1.12817
1.14794
1.1638
1.17282
1.16857
1.12022
1.03917
0.998646
0.993348
1.01461
1.05716
1.0783
1.08442
1.09687
1.11218
1.10379
1.04787
0.0145871
0.672353
0.811724
0.894603
0.924843
0.967078
1.03266
1.09316
1.12852
1.14798
1.16356
1.17236
1.16805
1.11941
1.03842
0.997824
0.992288
1.01295
1.05555
1.0771
1.08329
1.09565
1.11067
1.10225
1.04632
0.0157043
0.659689
0.807475
0.896316
0.925286
0.966701
1.03191
1.09255
1.12816
1.14751
1.16303
1.17181
1.1681
1.12124
1.03938
0.997
0.990336
1.00933
1.05211
1.07535
1.08221
1.09481
1.10932
1.10108
1.04509
0.026427
0.646249
0.802365
0.899328
0.925718
0.965226
1.02964
1.09054
1.12678
1.14618
1.16194
1.17131
1.16912
1.12715
1.04308
0.99766
0.989234
1.00589
1.04805
1.07321
1.08064
1.09309
1.10713
1.09932
1.04394
0.0252307
0.617692
0.792742
0.900157
0.927069
0.964042
1.02658
1.08673
1.12376
1.14383
1.15997
1.17012
1.16983
1.13421
1.04907
0.998857
0.987427
1.00096
1.04176
1.06971
1.07838
1.09071
1.10422
1.0971
1.0426
0.0384501
0.58981
0.783114
0.899883
0.928659
0.962903
1.02271
1.08186
1.1199
1.14096
1.15701
1.16805
1.17013
1.1412
1.05715
1.00083
0.98524
0.994959
1.03356
1.06515
1.07513
1.08712
1.09966
1.09366
1.04068
0.0541985
0.553677
0.772452
0.897403
0.929414
0.961498
1.01747
1.07548
1.11507
1.13764
1.15358
1.16558
1.17032
1.14707
1.06586
1.00376
0.982049
0.988296
1.02357
1.0586
1.07081
1.08239
1.0941
1.08948
1.03758
0.0721748
0.509275
0.761599
0.891299
0.928276
0.958865
1.01018
1.06741
1.1092
1.13366
1.14986
1.1629
1.17034
1.15242
1.07594
1.00734
0.97884
0.981302
1.01176
1.05024
1.06497
1.07626
1.08561
1.08174
1.032
0.102965
0.471435
0.782758
0.877045
0.922065
0.953664
1.00036
1.05729
1.10233
1.12915
1.14607
1.16001
1.16959
1.15709
1.08799
1.01205
0.976548
0.974151
0.997349
1.03992
1.05713
1.06718
1.07442
1.07102
1.02042
0.139361
0.435269
0.845071
0.859434
0.904918
0.943484
0.988673
1.0465
1.09521
1.12445
1.14252
1.15727
1.16797
1.16081
1.1014
1.01845
0.975123
0.966549
0.982552
1.02446
1.04627
1.05472
1.05911
1.05224
0.996234
0.0188443
0.681025
0.814562
0.894693
0.924687
0.966611
1.032
1.09257
1.12817
1.14795
1.16381
1.17283
1.16857
1.12018
1.03914
0.998638
0.993351
1.01462
1.05718
1.07831
1.08442
1.09687
1.11218
1.10379
1.04787
0.0145843
0.67236
0.811719
0.894598
0.92484
0.967076
1.03266
1.09316
1.12852
1.14799
1.16357
1.17236
1.16805
1.11939
1.03841
0.997819
0.992291
1.01296
1.05557
1.07711
1.0833
1.09565
1.11067
1.10225
1.04632
0.0157111
0.659701
0.807471
0.896311
0.925284
0.9667
1.03191
1.09256
1.12816
1.14751
1.16303
1.17182
1.16809
1.12122
1.03937
0.996996
0.990336
1.00933
1.05212
1.07536
1.08221
1.09481
1.10932
1.10108
1.04509
0.0264099
0.646245
0.802357
0.899322
0.925716
0.965225
1.02964
1.09054
1.12678
1.14618
1.16194
1.17131
1.16912
1.12715
1.04308
0.997658
0.989237
1.0059
1.04806
1.07322
1.08064
1.09309
1.10713
1.09932
1.04394
0.0252313
0.617702
0.792738
0.900154
0.927066
0.96404
1.02658
1.08674
1.12376
1.14384
1.15998
1.17012
1.16983
1.1342
1.04906
0.998853
0.987427
1.00097
1.04178
1.06972
1.07839
1.09072
1.10422
1.0971
1.04259
0.038437
0.58981
0.783105
0.899881
0.928656
0.962901
1.02271
1.08187
1.11991
1.14096
1.15701
1.16806
1.17013
1.14119
1.05714
1.00082
0.985238
0.994963
1.03357
1.06516
1.07514
1.08712
1.09967
1.09367
1.04068
0.0541967
0.553686
0.772444
0.897403
0.929412
0.961496
1.01747
1.07548
1.11508
1.13764
1.15359
1.16558
1.17032
1.14706
1.06585
1.00376
0.982047
0.988297
1.02358
1.05861
1.07082
1.0824
1.09411
1.08949
1.03758
0.0721643
0.50928
0.761588
0.8913
0.928274
0.958863
1.01018
1.06741
1.1092
1.13367
1.14987
1.1629
1.17034
1.15242
1.07593
1.00733
0.978838
0.981304
1.01177
1.05025
1.06497
1.07626
1.08562
1.08175
1.03199
0.102956
0.47144
0.78274
0.877048
0.922064
0.953663
1.00037
1.0573
1.10233
1.12915
1.14608
1.16002
1.16959
1.15708
1.08797
1.01204
0.976546
0.974153
0.997356
1.03993
1.05713
1.06719
1.07442
1.07102
1.02042
0.139348
0.435273
0.845044
0.859429
0.904923
0.943484
0.988675
1.04651
1.09522
1.12445
1.14252
1.15727
1.16798
1.1608
1.10138
1.01844
0.97512
0.96655
0.982556
1.02447
1.04628
1.05472
1.05912
1.05225
0.996233
0.0188329
0.681083
0.814573
0.894684
0.924684
0.966609
1.032
1.09257
1.12818
1.14796
1.16381
1.17283
1.16857
1.12019
1.03915
0.998638
0.993348
1.01462
1.05718
1.0783
1.08442
1.09687
1.11217
1.10379
1.04786
0.0145753
0.672416
0.811731
0.894589
0.924838
0.967075
1.03267
1.09317
1.12853
1.148
1.16358
1.17237
1.16806
1.1194
1.03841
0.997819
0.992287
1.01296
1.05556
1.07711
1.08329
1.09565
1.11067
1.10224
1.04631
0.0157143
0.659765
0.807488
0.896299
0.925283
0.966703
1.03191
1.09256
1.12817
1.14752
1.16304
1.17182
1.1681
1.12123
1.03937
0.996987
0.990323
1.00933
1.05212
1.07535
1.0822
1.0948
1.10932
1.10108
1.04508
0.0263778
0.646283
0.802368
0.899312
0.925714
0.965227
1.02965
1.09055
1.12679
1.14619
1.16195
1.17131
1.16913
1.12723
1.04316
0.997708
0.98927
1.00592
1.04807
1.07321
1.08063
1.09309
1.10713
1.09932
1.04393
0.0252254
0.61776
0.792753
0.900152
0.927062
0.964043
1.02658
1.08675
1.12377
1.14385
1.15999
1.17013
1.16983
1.1341
1.04894
0.998783
0.98738
1.00094
1.04177
1.06972
1.07838
1.09071
1.10422
1.0971
1.04259
0.0384062
0.589855
0.783113
0.899881
0.928654
0.962902
1.02272
1.08188
1.11992
1.14097
1.15702
1.16808
1.17015
1.1412
1.05712
1.0008
0.985215
0.994944
1.03357
1.06515
1.07513
1.08711
1.09967
1.09367
1.04068
0.0541861
0.553749
0.772455
0.89741
0.929412
0.961494
1.01748
1.07549
1.11509
1.13766
1.15359
1.16558
1.17033
1.14715
1.066
1.00384
0.98209
0.988324
1.02358
1.0586
1.07081
1.08239
1.09411
1.08949
1.03757
0.0721351
0.509333
0.761586
0.891314
0.928275
0.958863
1.01019
1.06742
1.10921
1.13368
1.14987
1.16289
1.17033
1.15244
1.07602
1.0074
0.978882
0.981335
1.01178
1.05025
1.06497
1.07626
1.08562
1.08175
1.03199
0.102926
0.471479
0.782686
0.877073
0.922072
0.953665
1.00038
1.05731
1.10234
1.12916
1.14608
1.16001
1.16958
1.15707
1.08797
1.01205
0.976556
0.974164
0.997365
1.03993
1.05713
1.06718
1.07442
1.07102
1.02042
0.139306
0.435313
0.844949
0.85942
0.904952
0.943495
0.988682
1.04652
1.09523
1.12445
1.14252
1.15727
1.16798
1.16077
1.10127
1.01838
0.975092
0.966539
0.982557
1.02448
1.04628
1.05472
1.05912
1.05225
0.996233
0.0188362
0.681116
0.814593
0.894689
0.924689
0.966607
1.032
1.09256
1.12817
1.14795
1.1638
1.17282
1.16857
1.12021
1.03916
0.998642
0.993348
1.01461
1.05718
1.07831
1.08443
1.09687
1.11218
1.10379
1.04787
0.0145705
0.672445
0.81175
0.894592
0.924841
0.967075
1.03266
1.09316
1.12853
1.14799
1.16357
1.17236
1.16805
1.11938
1.03841
0.997825
0.992295
1.01296
1.05557
1.07712
1.0833
1.09565
1.11068
1.10225
1.04632
0.0157176
0.659798
0.807509
0.896303
0.925285
0.966702
1.03191
1.09256
1.12817
1.14752
1.16303
1.17181
1.16808
1.1212
1.03934
0.996948
0.990276
1.00927
1.05208
1.07534
1.08221
1.09481
1.10932
1.10108
1.04509
0.0263768
0.646314
0.80239
0.899316
0.925715
0.965226
1.02964
1.09054
1.12678
1.14619
1.16195
1.1713
1.1691
1.12713
1.04307
0.997646
0.989222
1.00588
1.04805
1.07322
1.08064
1.0931
1.10714
1.09933
1.04394
0.0252242
0.617793
0.792776
0.900156
0.927063
0.964043
1.02658
1.08674
1.12377
1.14385
1.15999
1.17013
1.16983
1.13403
1.04887
0.998787
0.987422
1.00099
1.04181
1.06973
1.07838
1.09071
1.10423
1.09711
1.0426
0.0384039
0.58989
0.783138
0.899886
0.928656
0.962902
1.02271
1.08187
1.11992
1.14097
1.15702
1.16808
1.17016
1.14126
1.05721
1.00087
0.985269
0.995
1.03364
1.06521
1.07516
1.08713
1.09968
1.09367
1.04069
0.0541791
0.553784
0.772479
0.897415
0.929414
0.961496
1.01747
1.07549
1.11508
1.13765
1.15358
1.16557
1.17035
1.1473
1.06624
1.00395
0.982073
0.98826
1.02348
1.05857
1.07082
1.0824
1.09412
1.0895
1.03758
0.0721253
0.50937
0.761605
0.891322
0.928278
0.958866
1.01019
1.06742
1.1092
1.13367
1.14985
1.16286
1.17034
1.15259
1.07633
1.0075
0.978825
0.981194
1.01154
1.0501
1.06492
1.07625
1.08563
1.08176
1.032
0.102913
0.471504
0.78267
0.877086
0.922082
0.95367
1.00038
1.05731
1.10234
1.12915
1.14606
1.15998
1.16958
1.15717
1.08823
1.01213
0.976495
0.974014
0.997136
1.03976
1.05704
1.06716
1.07443
1.07103
1.02042
0.139277
0.435338
0.844902
0.859417
0.904972
0.943505
0.988689
1.04652
1.09522
1.12445
1.14251
1.15725
1.16798
1.16082
1.10141
1.01842
0.975055
0.966446
0.982434
1.02436
1.04622
1.05469
1.05912
1.05226
0.996239
0.0187936
0.681131
0.814586
0.894671
0.924684
0.966622
1.03203
1.0926
1.12821
1.14797
1.16383
1.17284
1.16863
1.1204
1.03927
0.998629
0.993267
1.01447
1.05707
1.07826
1.08439
1.09687
1.11217
1.10379
1.04786
0.0146277
0.672516
0.811764
0.894591
0.924853
0.967066
1.03262
1.0931
1.12847
1.1479
1.1635
1.17233
1.16817
1.12003
1.03881
0.99788
0.992188
1.01275
1.05539
1.07702
1.08325
1.09565
1.11067
1.10225
1.04631
0.0157542
0.659859
0.807518
0.896295
0.925299
0.966702
1.03187
1.09251
1.1281
1.14741
1.16295
1.17181
1.16823
1.12182
1.03979
0.997157
0.990365
1.00927
1.05204
1.07533
1.08219
1.09481
1.10931
1.10108
1.04508
0.0262876
0.64629
0.802382
0.899307
0.925718
0.965236
1.02964
1.09052
1.12674
1.14612
1.16189
1.17129
1.16916
1.12742
1.04333
0.997802
0.989332
1.00597
1.04809
1.07322
1.08063
1.09309
1.10712
1.09932
1.04393
0.0252388
0.617848
0.792788
0.900158
0.927062
0.964047
1.02659
1.08676
1.12377
1.14383
1.15997
1.17011
1.16979
1.13392
1.04877
0.998759
0.987427
1.00102
1.04187
1.06976
1.07839
1.09071
1.10421
1.0971
1.04258
0.0383731
0.58992
0.783141
0.89989
0.928655
0.962904
1.02273
1.08189
1.11992
1.14097
1.15704
1.16807
1.17009
1.14094
1.05681
1.00069
0.98525
0.995045
1.0337
1.06521
1.07514
1.08711
1.09965
1.09366
1.04067
0.0541821
0.553845
0.772492
0.897426
0.929415
0.961497
1.01749
1.0755
1.11508
1.13765
1.1536
1.16558
1.17026
1.14689
1.06562
1.0037
0.982131
0.988432
1.02375
1.05868
1.07084
1.08238
1.09409
1.08948
1.03756
0.0721003
0.509419
0.761609
0.89134
0.928281
0.958866
1.0102
1.06743
1.1092
1.13366
1.14987
1.16288
1.17026
1.1522
1.07562
1.00726
0.978921
0.981462
1.01199
1.05036
1.065
1.07625
1.0856
1.08173
1.03198
0.102885
0.471542
0.782625
0.877114
0.922092
0.953675
1.00039
1.05732
1.10233
1.12914
1.14607
1.16
1.16953
1.15687
1.08757
1.0119
0.976608
0.974322
0.99761
1.04008
1.05718
1.06718
1.0744
1.07101
1.02041
0.139245
0.435391
0.844815
0.859414
0.905008
0.943517
0.988698
1.04653
1.09522
1.12444
1.14251
1.15726
1.16794
1.16062
1.1009
1.01823
0.975158
0.966727
0.982802
1.02468
1.04636
1.05473
1.0591
1.05224
0.996223
0.0188312
0.681234
0.814634
0.894684
0.924691
0.966618
1.03203
1.0926
1.12821
1.148
1.16384
1.17284
1.16856
1.12007
1.03901
0.998522
0.993239
1.01452
1.05712
1.0783
1.08444
1.09689
1.11224
1.10388
1.04778
0.0145398
0.672547
0.81179
0.894583
0.924843
0.967091
1.0327
1.09321
1.12857
1.14804
1.16362
1.17238
1.16807
1.11939
1.03836
0.997735
0.992188
1.01285
1.0555
1.07709
1.0833
1.09567
1.11073
1.10233
1.04624
0.0157034
0.659911
0.807559
0.896294
0.925286
0.966718
1.03194
1.0926
1.12821
1.14754
1.16305
1.17183
1.16817
1.12147
1.03953
0.997026
0.990293
1.00923
1.05203
1.07532
1.08221
1.09482
1.10938
1.10116
1.04503
0.0263878
0.646445
0.802449
0.899316
0.925719
0.965239
1.02965
1.09056
1.12682
1.14618
1.16192
1.17131
1.16926
1.12788
1.04363
0.997753
0.989118
1.00569
1.04788
1.07316
1.08063
1.09311
1.10719
1.09941
1.04388
0.0251884
0.617905
0.792834
0.900158
0.927067
0.964051
1.0266
1.08676
1.12378
1.14383
1.15995
1.17009
1.16989
1.13464
1.04946
0.998868
0.987229
1.00065
1.04142
1.06954
1.07834
1.09072
1.10428
1.09718
1.04254
0.038384
0.59003
0.783206
0.899897
0.928658
0.962913
1.02274
1.08191
1.11994
1.14098
1.157
1.16804
1.17014
1.14122
1.05716
1.00078
0.985174
0.994899
1.03348
1.06511
1.07513
1.08713
1.09971
1.09372
1.04063
0.0541393
0.553929
0.772551
0.897434
0.929418
0.961506
1.0175
1.07553
1.11512
1.13768
1.15361
1.16559
1.17031
1.14692
1.06562
1.0037
0.982158
0.988454
1.02375
1.05869
1.07087
1.08242
1.09413
1.08954
1.03754
0.0720908
0.509533
0.761666
0.891362
0.928284
0.958874
1.01022
1.06746
1.10925
1.1337
1.14991
1.16293
1.17033
1.15225
1.07561
1.00729
0.978989
0.981534
1.01207
1.05043
1.06505
1.0763
1.08563
1.08178
1.03197
0.102854
0.471623
0.782587
0.877153
0.922113
0.95369
1.00041
1.05735
1.10238
1.12919
1.14611
1.16004
1.16958
1.15699
1.08778
1.01203
0.976685
0.974356
0.997611
1.04012
1.05723
1.06722
1.07443
1.07105
1.02039
0.139167
0.435476
0.844684
0.859403
0.905064
0.943542
0.988728
1.04656
1.09526
1.12448
1.14254
1.15728
1.16796
1.16075
1.10132
1.01847
0.975204
0.966657
0.982671
1.02457
1.04635
1.05474
1.05911
1.05226
0.996216
0.20391
0.410854
0.905419
0.874344
0.89126
0.93639
0.980987
1.03735
1.0877
1.11914
1.13884
1.15425
1.16601
1.16356
1.11667
1.02703
0.974434
0.959553
0.970032
1.00897
1.03501
1.0424
1.0393
1.02766
0.922984
0.245937
0.412825
0.907742
0.886444
0.89477
0.936512
0.97661
1.03048
1.08155
1.11529
1.13606
1.15153
1.16399
1.1649
1.12961
1.03853
0.975489
0.951842
0.956369
0.985365
1.01795
1.02548
1.01929
1.00214
0.91807
0.271373
0.416564
0.889199
0.885882
0.894981
0.940215
0.97364
1.02345
1.07486
1.11045
1.1326
1.14832
1.16123
1.16508
1.13961
1.05276
0.979139
0.945913
0.945106
0.965341
0.998598
1.00968
1.00282
0.985717
0.923619
0.305737
0.434462
0.860546
0.880024
0.900567
0.941659
0.970631
1.01647
1.0673
1.10483
1.12874
1.14499
1.15787
1.16364
1.14723
1.07031
0.986468
0.942541
0.934041
0.946188
0.977073
0.992555
0.988164
0.973235
0.935547
0.30604
0.425879
0.811001
0.870641
0.912811
0.941845
0.966726
1.0072
1.05677
1.09718
1.124
1.14151
1.15395
1.16065
1.15182
1.0896
0.996782
0.942476
0.924972
0.930475
0.954896
0.975353
0.975499
0.964932
0.935141
0.312561
0.420372
0.760082
0.86115
0.924501
0.941077
0.959148
0.99362
1.04213
1.08612
1.11654
1.13647
1.14941
1.15653
1.15347
1.10945
1.01183
0.945447
0.91777
0.917424
0.933082
0.955706
0.960235
0.954726
0.93267
0.323971
0.416648
0.703505
0.852736
0.931015
0.937246
0.947598
0.976354
1.02875
1.0775
1.11147
1.13272
1.14624
1.1532
1.15312
1.12465
1.03403
0.953331
0.913109
0.904694
0.912262
0.935214
0.946832
0.945626
0.932174
0.338867
0.414076
0.638072
0.851764
0.929697
0.92792
0.93681
0.967733
1.01819
1.06658
1.10312
1.12652
1.14161
1.14965
1.15103
1.13456
1.05994
0.967622
0.913929
0.894223
0.895597
0.911665
0.928708
0.931198
0.926677
0.353124
0.408457
0.569251
0.868197
0.911466
0.90898
0.933406
0.967952
1.00918
1.05492
1.09281
1.11872
1.13547
1.14533
1.14798
1.14003
1.08507
0.985928
0.919064
0.887516
0.882026
0.889834
0.910456
0.919203
0.918864
0.35866
0.405718
0.543321
0.859877
0.895604
0.901759
0.944046
0.973943
1.00262
1.04207
1.08164
1.11121
1.12998
1.14111
1.14534
1.14196
1.10613
1.01094
0.930247
0.885897
0.871199
0.872586
0.887538
0.904576
0.90945
0.364481
0.403775
0.518363
0.817431
0.879959
0.909953
0.953912
0.980009
0.996696
1.02862
1.06887
1.10134
1.12177
1.13476
1.14152
1.14102
1.12103
1.04208
0.948574
0.889775
0.863026
0.858173
0.86518
0.885804
0.896359
0.371121
0.402426
0.494125
0.748856
0.861682
0.926531
0.957024
0.977478
0.988171
1.01218
1.05305
1.08935
1.11329
1.12795
1.13693
1.13936
1.13002
1.07346
0.972359
0.899438
0.859438
0.845975
0.846887
0.860571
0.880832
0.380069
0.403128
0.470967
0.660013
0.844911
0.932781
0.949714
0.961547
0.973152
0.999118
1.03636
1.0741
1.10288
1.12047
1.13173
1.13742
1.13434
1.10122
1.00519
0.916589
0.863186
0.837571
0.831528
0.835948
0.854392
0.390343
0.404711
0.450458
0.582931
0.839497
0.923621
0.923937
0.937167
0.965033
0.990594
1.02445
1.05936
1.08956
1.11167
1.12643
1.13529
1.13585
1.11821
1.04378
0.942413
0.873191
0.836089
0.820984
0.820126
0.828893
0.388689
0.394495
0.429485
0.537263
0.81775
0.892845
0.903311
0.932171
0.966307
0.988153
1.0103
1.04241
1.07601
1.10279
1.12094
1.13192
1.13518
1.12741
1.07702
0.974362
0.891499
0.840751
0.815692
0.808665
0.810681
0.377307
0.378885
0.405718
0.491666
0.735681
0.85222
0.905015
0.939491
0.967357
0.981047
0.994758
1.0245
1.06201
1.0937
1.11479
1.12708
1.13314
1.13105
1.10247
1.01077
0.917598
0.852334
0.816212
0.799886
0.79704
0.36505
0.364814
0.382664
0.442254
0.61674
0.81834
0.906474
0.938246
0.954493
0.963798
0.978919
1.0083
1.0461
1.08063
1.1065
1.12253
1.13008
1.1307
1.11825
1.05062
0.946655
0.871096
0.821731
0.796249
0.786688
0.358621
0.353693
0.366161
0.408993
0.536264
0.792856
0.900829
0.914491
0.926014
0.9521
0.973808
0.997527
1.02954
1.06626
1.09581
1.11505
1.12536
1.12882
1.12511
1.08828
0.984118
0.893334
0.833745
0.797962
0.781125
0.352972
0.344817
0.353746
0.385593
0.48263
0.731548
0.867882
0.900773
0.922934
0.94916
0.966244
0.984014
1.01281
1.04678
1.08014
1.10452
1.11874
1.12501
1.12515
1.11055
1.03437
0.924925
0.851555
0.80538
0.779044
0.34811
0.336797
0.342608
0.363172
0.426174
0.603415
0.829887
0.89698
0.918127
0.936258
0.949293
0.970073
0.998082
1.033
1.0649
1.09159
1.11069
1.12071
1.12347
1.1197
1.08279
0.971908
0.877376
0.818665
0.783563
0.344612
0.331114
0.334997
0.348843
0.39071
0.515568
0.767825
0.884422
0.899885
0.919611
0.943247
0.958186
0.980939
1.00901
1.04614
1.07829
1.10013
1.11402
1.12063
1.121
1.10739
1.03901
0.91917
0.841045
0.793803
0.341753
0.326633
0.329253
0.338696
0.367074
0.453808
0.670865
0.859682
0.897429
0.914133
0.931327
0.942366
0.957975
0.991568
1.02541
1.05984
1.0886
1.10654
1.11639
1.11998
1.11691
1.087
0.987579
0.880012
0.81354
0.339692
0.323212
0.324875
0.330855
0.348347
0.398815
0.545791
0.790117
0.88543
0.895343
0.912043
0.935227
0.949777
0.966542
1.00117
1.03844
1.07044
1.09533
1.11054
1.11771
1.11889
1.10836
1.0542
0.940562
0.850482
0.338155
0.320778
0.321887
0.325911
0.337481
0.370552
0.470906
0.699568
0.85843
0.890978
0.906589
0.923356
0.933353
0.948531
0.973433
1.01444
1.05161
1.07996
1.10047
1.11305
1.11807
1.11577
1.09384
1.01093
0.908083
0.33711
0.319012
0.319699
0.322221
0.329305
0.348923
0.405653
0.566481
0.807894
0.879577
0.890812
0.903125
0.925195
0.940781
0.953608
0.981063
1.02489
1.06231
1.08804
1.10523
1.11538
1.11643
1.10939
1.07164
0.971484
0.336413
0.317821
0.318266
0.319946
0.324602
0.33714
0.372239
0.478997
0.704714
0.850869
0.884875
0.897266
0.911546
0.924268
0.941838
0.958282
0.99138
1.03413
1.07008
1.09478
1.1101
1.1151
1.11365
1.10031
1.04234
0.335931
0.316971
0.317321
0.318452
0.321388
0.328905
0.34927
0.408859
0.573522
0.812522
0.870968
0.883767
0.894261
0.91601
0.929583
0.944531
0.962715
0.99944
1.04222
1.07711
1.10036
1.11166
1.11292
1.10922
1.08632
0.335779
0.316666
0.317015
0.317727
0.319525
0.324193
0.336692
0.371671
0.479158
0.700297
0.84073
0.877738
0.888947
0.899355
0.915954
0.933217
0.947568
0.96661
1.00565
1.04907
1.08309
1.10406
1.11056
1.11002
1.10253
0.336353
0.316837
0.316909
0.317366
0.318488
0.321287
0.328458
0.347955
0.404933
0.563409
0.801098
0.857889
0.875845
0.885892
0.904815
0.918186
0.934652
0.949305
0.969717
1.01164
1.05636
1.08874
1.10452
1.10774
1.1056
0.336673
0.317011
0.316869
0.317119
0.317791
0.319496
0.323824
0.335275
0.367422
0.467648
0.679132
0.832561
0.868373
0.878593
0.887354
0.906363
0.921102
0.936148
0.950045
0.971993
1.01665
1.06375
1.09237
1.10249
1.10338
0.336857
0.317171
0.316807
0.31695
0.317343
0.318338
0.320837
0.327207
0.344458
0.393877
0.538289
0.773168
0.84005
0.866422
0.877167
0.890861
0.907322
0.922774
0.936529
0.949769
0.97519
1.02278
1.06736
1.09138
1.0992
0.336965
0.317267
0.316759
0.316835
0.317056
0.317626
0.319071
0.322734
0.332385
0.359403
0.443821
0.636989
0.826123
0.853075
0.867476
0.875603
0.893025
0.907967
0.924384
0.935963
0.949817
0.97945
1.0299
1.06869
1.09025
0.337021
0.317314
0.316719
0.316756
0.316877
0.317201
0.318021
0.320095
0.325384
0.339715
0.380195
0.507413
0.721461
0.822809
0.857206
0.86698
0.876583
0.896298
0.909455
0.923582
0.934726
0.950847
0.988059
1.0405
1.08004
0.337032
0.317325
0.316685
0.316702
0.316768
0.316943
0.317388
0.318511
0.321364
0.328808
0.349549
0.412508
0.578089
0.79684
0.833138
0.855869
0.864348
0.877091
0.897405
0.912132
0.923417
0.935267
0.959807
1.01143
1.07635
0.337015
0.317331
0.31666
0.316666
0.316696
0.316784
0.317023
0.317634
0.319186
0.323157
0.333838
0.364338
0.462989
0.659419
0.8134
0.841742
0.85493
0.864099
0.879894
0.898459
0.915798
0.93724
0.964695
1.02071
1.11305
0.337004
0.317335
0.316634
0.316638
0.316654
0.316702
0.316827
0.31715
0.317965
0.320046
0.325406
0.340175
0.382531
0.515819
0.721363
0.813048
0.844593
0.853366
0.865975
0.886579
0.918846
0.957233
1.00658
1.08963
1.21669
0.337002
0.317328
0.316628
0.316622
0.316628
0.316652
0.316716
0.31688
0.317297
0.318353
0.321055
0.328164
0.348216
0.410054
0.571042
0.780994
0.821387
0.846005
0.860412
0.890285
0.943813
1.02309
1.12887
1.24272
1.36307
0.337001
0.317324
0.316627
0.316611
0.316615
0.316626
0.316658
0.31674
0.316948
0.317477
0.318833
0.322343
0.331859
0.359318
0.449342
0.632861
0.803043
0.837899
0.870677
0.925072
1.02662
1.15649
1.31055
1.35576
1.33285
0.337001
0.317322
0.316627
0.316606
0.316608
0.316614
0.316629
0.31667
0.316773
0.317038
0.317715
0.319469
0.324052
0.336841
0.37417
0.49826
0.684864
0.835597
0.915463
1.06415
1.18785
1.29871
1.29431
1.28908
1.26715
0.337002
0.317321
0.316627
0.316605
0.316606
0.316609
0.316617
0.31664
0.316698
0.316849
0.317238
0.318237