/*--------------------------------*- C++ -*----------------------------------*\
| =========                 |                                                 |
| \\      /  F ield         | OpenFOAM: The Open Source CFD Toolbox           |
|  \\    /   O peration     | Version:  4.1                                   |
|   \\  /    A nd           | Web:      www.OpenFOAM.org                      |
|    \\/     M anipulation  |                                                 |
\*---------------------------------------------------------------------------*/
FoamFile
{
    version     2.0;
    format      ascii;
    class       volVectorField;
    location    "0.94";
    object      U;
}
// * * * * * * * * * * * * * * * * * * * * * * * * * * * * * * * * * * * * * //

dimensions      [0 1 -1 0 0 0 0];

internalField   nonuniform List<vector> 
52500
(
(2.20556 0.00122714 -0.000125745)
(1.51666 0.00337665 -0.00421114)
(0.618619 0.00917781 -0.00550697)
(0.418841 0.00776136 -0.00613354)
(0.448919 0.00778334 -0.00634298)
(0.505009 0.00858269 -0.00662223)
(0.536973 0.00936744 -0.00705581)
(0.550791 0.00991852 -0.00745901)
(0.553885 0.0103742 -0.00769777)
(0.552307 0.0107891 -0.00783399)
(0.545115 0.011182 -0.00794742)
(0.532749 0.0116962 -0.00801286)
(0.516656 0.012446 -0.00798643)
(0.503338 0.0130364 -0.00765424)
(0.497299 0.0134103 -0.00710779)
(0.49354 0.0136915 -0.00683577)
(0.492117 0.0140313 -0.00680285)
(0.481721 0.0147846 -0.00696802)
(0.451383 0.0155259 -0.0072798)
(0.404513 0.0165716 -0.00745552)
(0.339681 0.0177968 -0.0075375)
(0.253101 0.0191612 -0.00767501)
(0.162385 0.0206616 -0.00783244)
(0.0861927 0.022169 -0.00781224)
(0.0311154 0.0232306 -0.00745882)
(2.21004 -6.25261e-05 -9.75133e-05)
(1.52729 0.00471867 -0.00415015)
(0.628445 0.0256746 -0.00547358)
(0.42011 0.022211 -0.00612299)
(0.449184 0.0219867 -0.00633474)
(0.505189 0.0235242 -0.00661541)
(0.536799 0.0248809 -0.00704955)
(0.550259 0.0256418 -0.0074514)
(0.553163 0.0260984 -0.00768782)
(0.551464 0.0264397 -0.00782143)
(0.544314 0.0267225 -0.00793245)
(0.532307 0.0273872 -0.00799534)
(0.516538 0.0286907 -0.00796743)
(0.503401 0.0296603 -0.00763194)
(0.497698 0.0302345 -0.00708706)
(0.494373 0.030875 -0.00681515)
(0.493541 0.0317396 -0.00678017)
(0.483468 0.0335982 -0.00694061)
(0.453245 0.0353004 -0.00725053)
(0.406597 0.0374325 -0.00742694)
(0.341764 0.0397943 -0.00750759)
(0.255093 0.0424314 -0.00764244)
(0.163927 0.0454419 -0.00779587)
(0.086713 0.0478359 -0.00777448)
(0.0307971 0.048215 -0.00742223)
(2.20817 -0.00539636 -0.000104947)
(1.54148 9.56719e-05 -0.00406897)
(0.639219 0.0418586 -0.00542794)
(0.416484 0.0377784 -0.00612596)
(0.447195 0.0375554 -0.00632952)
(0.504745 0.039886 -0.0066032)
(0.536811 0.0419521 -0.00703374)
(0.550589 0.043449 -0.00743532)
(0.553891 0.0446026 -0.00767224)
(0.552551 0.0455951 -0.00780431)
(0.545946 0.0464444 -0.00791378)
(0.53489 0.0478827 -0.00797528)
(0.519721 0.0501555 -0.00795053)
(0.506496 0.0519692 -0.00762636)
(0.500708 0.0530319 -0.00707667)
(0.497392 0.0542378 -0.00679327)
(0.496845 0.0557846 -0.00675057)
(0.486987 0.0587241 -0.00689898)
(0.456924 0.061984 -0.00720825)
(0.410752 0.0659311 -0.00739325)
(0.346241 0.0702869 -0.00747627)
(0.259905 0.0752736 -0.0076103)
(0.168327 0.0811299 -0.00775771)
(0.0894707 0.0854658 -0.0077369)
(0.0315747 0.085503 -0.00738667)
(2.19615 -0.0056637 -0.000175739)
(1.55674 0.00302354 -0.00399076)
(0.651008 0.0625169 -0.0053718)
(0.408594 0.0541755 -0.00613893)
(0.443241 0.0519247 -0.0063256)
(0.503767 0.0546952 -0.00658443)
(0.536789 0.0574449 -0.00700834)
(0.551219 0.0597134 -0.0074102)
(0.555111 0.061542 -0.00764989)
(0.554256 0.063092 -0.00778119)
(0.54848 0.0643963 -0.00789104)
(0.538889 0.0664748 -0.00795482)
(0.524799 0.0694646 -0.00793975)
(0.511602 0.072012 -0.00764697)
(0.50562 0.0735421 -0.00708378)
(0.502226 0.0753926 -0.00678044)
(0.50189 0.0777499 -0.0067257)
(0.492453 0.0815177 -0.00685646)
(0.462947 0.0865761 -0.00716003)
(0.417488 0.0927129 -0.00735536)
(0.353617 0.0995098 -0.00743962)
(0.268068 0.107518 -0.0075697)
(0.175899 0.116975 -0.00771105)
(0.0943133 0.12406 -0.00769248)
(0.0330304 0.12408 -0.00734944)
(2.19599 -0.00742764 -0.000168186)
(1.58956 0.00409189 -0.00380284)
(0.678322 0.0845775 -0.005274)
(0.403449 0.070865 -0.00613473)
(0.441023 0.0654582 -0.00632724)
(0.505064 0.0681287 -0.00656761)
(0.538598 0.0717062 -0.00697748)
(0.553208 0.0750711 -0.00737281)
(0.557349 0.077868 -0.00761634)
(0.556852 0.0802347 -0.00775095)
(0.552014 0.0823281 -0.00786171)
(0.544109 0.085264 -0.00792908)
(0.531288 0.0888584 -0.00792689)
(0.518181 0.0921367 -0.00767601)
(0.512046 0.0939721 -0.00710622)
(0.508637 0.0966606 -0.00677133)
(0.508221 0.100149 -0.00669693)
(0.499261 0.104561 -0.0068042)
(0.470825 0.11133 -0.00709689)
(0.426349 0.119606 -0.00730763)
(0.363568 0.129015 -0.00739645)
(0.279417 0.140507 -0.00752172)
(0.186777 0.154229 -0.00765616)
(0.101492 0.16509 -0.00764123)
(0.0353637 0.165762 -0.0073076)
(2.18041 -0.0126474 -0.000255511)
(1.622 0.000418721 -0.00363372)
(0.705123 0.107773 -0.00516879)
(0.392894 0.088101 -0.00612418)
(0.437624 0.0786332 -0.00633175)
(0.50745 0.0803137 -0.0065514)
(0.54205 0.0850588 -0.00694094)
(0.556698 0.0898475 -0.00732795)
(0.560778 0.093848 -0.00757691)
(0.560485 0.0972034 -0.00771657)
(0.556586 0.100292 -0.0078249)
(0.550291 0.104135 -0.00789693)
(0.538899 0.108109 -0.00791089)
(0.52597 0.112333 -0.00770476)
(0.519831 0.114421 -0.00714179)
(0.516797 0.117732 -0.00676739)
(0.515963 0.123029 -0.00666577)
(0.507325 0.127558 -0.00674447)
(0.480427 0.136175 -0.00702097)
(0.437411 0.146743 -0.00725197)
(0.376521 0.159186 -0.00734466)
(0.294636 0.174936 -0.0074626)
(0.201885 0.194058 -0.00758618)
(0.111942 0.210489 -0.00757688)
(0.0391213 0.213352 -0.00725699)
(2.16169 -0.014205 -0.000359738)
(1.6631 0.00232405 -0.00341469)
(0.740021 0.134231 -0.00504472)
(0.381777 0.106897 -0.0060977)
(0.43537 0.0913812 -0.00632987)
(0.512343 0.0916597 -0.00653213)
(0.548269 0.0980178 -0.00689418)
(0.562132 0.104469 -0.00727213)
(0.565535 0.109822 -0.00753033)
(0.565202 0.114287 -0.00767852)
(0.562172 0.118455 -0.0077842)
(0.557246 0.12315 -0.0078614)
(0.547534 0.127359 -0.00789298)
(0.535012 0.132672 -0.00772587)
(0.52865 0.13519 -0.00718045)
(0.526767 0.138677 -0.00676911)
(0.525046 0.145444 -0.00662629)
(0.516326 0.15011 -0.00667813)
(0.491959 0.160711 -0.0069306)
(0.450902 0.173838 -0.00718057)
(0.392913 0.189868 -0.00728337)
(0.314527 0.210791 -0.00739272)
(0.222591 0.23677 -0.0075049)
(0.127541 0.261755 -0.00750082)
(0.0457581 0.269966 -0.0071906)
(2.14028 -0.0176695 -0.000477598)
(1.7134 -0.00111589 -0.00314453)
(0.788165 0.148029 -0.00491168)
(0.375791 0.126751 -0.00603988)
(0.437441 0.104634 -0.00630962)
(0.521885 0.10316 -0.00650155)
(0.558244 0.111153 -0.00683149)
(0.569856 0.119436 -0.00720364)
(0.571702 0.12621 -0.00747564)
(0.570973 0.131843 -0.00763511)
(0.568642 0.137069 -0.00774085)
(0.564766 0.142465 -0.00782424)
(0.557018 0.147058 -0.00787287)
(0.545332 0.153337 -0.00774233)
(0.538489 0.156467 -0.00722795)
(0.53784 0.159851 -0.00677327)
(0.535355 0.166147 -0.00658651)
(0.526785 0.17193 -0.00660972)
(0.50548 0.184517 -0.00682619)
(0.46712 0.20046 -0.00709514)
(0.413389 0.220768 -0.0072093)
(0.340132 0.247798 -0.0073095)
(0.251126 0.282306 -0.00739842)
(0.151587 0.320661 -0.0073915)
(0.0579211 0.341223 -0.00709525)
(2.10481 -0.0214794 -0.000678493)
(1.75003 -0.0106268 -0.00294348)
(0.84004 0.13643 -0.00506129)
(0.371387 0.150416 -0.00593187)
(0.443294 0.126468 -0.00624697)
(0.536298 0.11956 -0.00644897)
(0.572307 0.126658 -0.00674857)
(0.579997 0.135881 -0.00711938)
(0.579175 0.143743 -0.00741282)
(0.577634 0.150338 -0.00758702)
(0.575778 0.156374 -0.00769637)
(0.572854 0.162189 -0.00778532)
(0.567351 0.167416 -0.00784658)
(0.556861 0.174358 -0.00775335)
(0.549317 0.177972 -0.00728723)
(0.549 0.180894 -0.00678392)
(0.546393 0.185896 -0.00655266)
(0.539214 0.193063 -0.00654025)
(0.521171 0.206957 -0.00670543)
(0.486452 0.226038 -0.00699599)
(0.438516 0.251339 -0.0071198)
(0.372518 0.285176 -0.00720347)
(0.290598 0.330366 -0.00726689)
(0.190391 0.38756 -0.00724926)
(0.0815483 0.433912 -0.00693851)
(2.06312 -0.0285351 -0.000913258)
(1.76667 -0.0292045 -0.00276275)
(0.893585 0.0900027 -0.00546312)
(0.382008 0.156531 -0.00581302)
(0.454055 0.152784 -0.00611084)
(0.551583 0.145934 -0.00635725)
(0.587646 0.149328 -0.00665003)
(0.591081 0.156594 -0.00702871)
(0.587092 0.163871 -0.00734682)
(0.584549 0.170507 -0.00753661)
(0.583083 0.176623 -0.00765301)
(0.581282 0.182476 -0.00774675)
(0.578302 0.188174 -0.007814)
(0.569189 0.195123 -0.00775791)
(0.560778 0.198844 -0.00735543)
(0.560391 0.201265 -0.00680692)
(0.558364 0.205618 -0.00652484)
(0.553039 0.213617 -0.00646852)
(0.538676 0.227109 -0.00658284)
(0.509317 0.250314 -0.00686335)
(0.468699 0.280259 -0.00701126)
(0.412918 0.321534 -0.0070719)
(0.344404 0.382078 -0.00710041)
(0.253531 0.467387 -0.00703989)
(0.127418 0.584768 -0.00665786)
(2.20563 0.00118377 5.42833e-08)
(1.51681 0.00331205 4.53456e-07)
(0.618771 0.00914619 6.32174e-07)
(0.418917 0.00776047 -4.52215e-10)
(0.448962 0.0077988 9.76288e-10)
(0.505034 0.00860333 7.81164e-09)
(0.536986 0.00939291 6.13143e-08)
(0.550793 0.00995096 6.10944e-08)
(0.553877 0.0104154 2.43813e-08)
(0.552278 0.0108365 3.38241e-09)
(0.545051 0.0112291 -4.47798e-09)
(0.532655 0.011737 -9.48153e-08)
(0.516544 0.0124677 2.0593e-08)
(0.503224 0.013044 -5.48038e-08)
(0.4972 0.0133987 -2.63234e-08)
(0.493471 0.0136753 -7.07316e-08)
(0.492091 0.0140132 -1.80667e-08)
(0.481748 0.0147557 3.84858e-07)
(0.451449 0.0155159 3.95374e-07)
(0.404588 0.0165731 2.09392e-07)
(0.339759 0.0178007 1.25227e-07)
(0.253172 0.0191629 1.34537e-07)
(0.162407 0.0206613 5.75931e-09)
(0.086169 0.0221696 1.81402e-08)
(0.0311089 0.0232343 1.41893e-07)
(2.20997 -9.89713e-05 -2.00299e-08)
(1.52734 0.0046655 3.79466e-07)
(0.628471 0.0256525 6.49732e-07)
(0.420106 0.0222076 1.62068e-08)
(0.449193 0.0219899 1.39005e-08)
(0.505203 0.0235252 1.3401e-08)
(0.536819 0.02488 5.76134e-08)
(0.550294 0.0256409 6.00848e-08)
(0.553225 0.0260968 2.49324e-08)
(0.551554 0.0264336 -6.55035e-11)
(0.544439 0.0267069 -1.59088e-08)
(0.532482 0.027362 -7.52145e-08)
(0.516771 0.0286498 -1.59678e-08)
(0.503656 0.0296247 -5.02153e-08)
(0.497935 0.0301983 -2.32707e-08)
(0.49458 0.0308505 -2.33827e-08)
(0.493702 0.0317215 5.13014e-08)
(0.483631 0.0335707 3.28982e-07)
(0.453418 0.035295 3.0172e-07)
(0.406732 0.0374427 2.05413e-07)
(0.341869 0.0398085 1.48501e-07)
(0.255175 0.0424425 1.37248e-07)
(0.163953 0.0454469 6.0492e-09)
(0.0866903 0.0478405 1.35492e-08)
(0.0307888 0.0482213 1.32443e-07)
(2.2081 -0.0053393 -1.25578e-07)
(1.54153 0.000182647 2.62979e-07)
(0.639269 0.041897 6.82961e-07)
(0.416498 0.0377809 9.36776e-09)
(0.44721 0.0375434 8.4508e-09)
(0.504761 0.0398703 1.42255e-08)
(0.536832 0.0419352 5.304e-08)
(0.550622 0.0434323 5.92566e-08)
(0.553946 0.0445837 3.12252e-08)
(0.552629 0.0455719 -6.50927e-09)
(0.546055 0.0464133 -1.89738e-08)
(0.535044 0.0478407 -3.83247e-08)
(0.519932 0.050105 -3.24847e-08)
(0.506724 0.0519208 -3.55062e-08)
(0.500912 0.0529985 -4.22639e-09)
(0.497563 0.0542248 3.40367e-08)
(0.496971 0.0557984 1.20875e-07)
(0.487121 0.0587659 2.04789e-07)
(0.457078 0.0620222 2.04303e-07)
(0.410869 0.0659635 2.02857e-07)
(0.346329 0.0703148 1.84413e-07)
(0.259973 0.0752997 1.38441e-07)
(0.168345 0.0811456 7.59498e-09)
(0.089446 0.0854763 4.72634e-09)
(0.0315649 0.0855125 1.14626e-07)
(2.19629 -0.00565741 1.52908e-07)
(1.55695 0.00303252 6.10587e-07)
(0.651192 0.0625205 7.34077e-07)
(0.408675 0.0541715 -3.01503e-08)
(0.443282 0.0519144 -2.14989e-08)
(0.503795 0.0546789 5.82017e-09)
(0.536812 0.0574214 4.58393e-08)
(0.551244 0.0596831 5.59255e-08)
(0.555146 0.0615037 3.52263e-08)
(0.554299 0.0630465 -1.03645e-08)
(0.548531 0.0643456 -2.66233e-08)
(0.538953 0.0664165 -1.37013e-08)
(0.524886 0.0694166 -6.26211e-08)
(0.511692 0.071969 -4.09042e-08)
(0.505692 0.0735351 -1.95046e-08)
(0.502285 0.0754157 6.02947e-08)
(0.50194 0.0778123 1.57315e-07)
(0.492513 0.0816281 1.70314e-07)
(0.463015 0.0866642 1.49249e-07)
(0.417543 0.0927705 1.68548e-07)
(0.353668 0.0995494 2.03244e-07)
(0.268112 0.107551 1.37634e-07)
(0.175901 0.116997 2.0058e-08)
(0.0942819 0.124074 6.32999e-10)
(0.0330183 0.124092 9.07448e-08)
(2.19595 -0.00745101 -5.364e-08)
(1.58964 0.0040593 3.85387e-07)
(0.678399 0.0845724 8.13786e-07)
(0.403476 0.0708634 -4.19595e-08)
(0.441043 0.0654532 -3.04572e-08)
(0.505079 0.0681162 4.99228e-09)
(0.538611 0.0716828 4.09234e-08)
(0.553223 0.0750375 4.89859e-08)
(0.557368 0.0778249 3.58578e-08)
(0.556869 0.0801832 -2.81586e-09)
(0.552018 0.0822725 -2.64655e-08)
(0.544102 0.0851997 -3.39009e-09)
(0.531267 0.0888126 -4.89248e-08)
(0.518138 0.0920962 -2.71582e-08)
(0.511978 0.0939801 1.71071e-08)
(0.508555 0.0967082 7.86252e-08)
(0.50815 0.10023 1.48324e-07)
(0.499199 0.10468 1.47654e-07)
(0.470764 0.111436 1.55473e-07)
(0.426305 0.119681 1.84368e-07)
(0.363559 0.129065 1.93125e-07)
(0.279427 0.140537 1.41673e-07)
(0.186761 0.154247 3.56538e-08)
(0.101454 0.165102 -2.58514e-09)
(0.0353496 0.165771 6.40074e-08)
(2.18046 -0.0126462 3.91007e-08)
(1.62215 0.000421313 5.46771e-07)
(0.705252 0.107772 9.5071e-07)
(0.392944 0.0881011 -6.90631e-08)
(0.43765 0.0786285 -5.29758e-08)
(0.507466 0.0803021 1.27265e-09)
(0.542061 0.0850371 3.6997e-08)
(0.556706 0.0898173 4.22411e-08)
(0.560783 0.0938099 3.4212e-08)
(0.560482 0.0971577 8.8395e-09)
(0.556555 0.100242 -1.83767e-08)
(0.550235 0.104079 -1.50994e-08)
(0.538804 0.108072 -7.86409e-08)
(0.525845 0.112286 5.54701e-08)
(0.519691 0.114415 -1.04189e-08)
(0.516637 0.117773 -1.30098e-09)
(0.515819 0.12308 1.23371e-07)
(0.50719 0.127641 1.87905e-07)
(0.480286 0.136248 1.94003e-07)
(0.437296 0.146796 2.05018e-07)
(0.376458 0.159221 1.90888e-07)
(0.29461 0.174954 1.40316e-07)
(0.201853 0.194063 4.77655e-08)
(0.1119 0.210493 -6.65218e-09)
(0.0391055 0.213355 3.99554e-08)
(2.16167 -0.0142149 -6.88775e-08)
(1.6632 0.00230681 4.30737e-07)
(0.740109 0.13422 1.09381e-06)
(0.381808 0.106897 -8.88763e-08)
(0.435388 0.0913788 -7.15226e-08)
(0.512356 0.0916503 1.30498e-09)
(0.548278 0.0979994 3.4873e-08)
(0.562136 0.104443 3.82258e-08)
(0.565532 0.109792 3.0844e-08)
(0.565185 0.114253 1.31741e-08)
(0.562122 0.118418 -9.42682e-09)
(0.557171 0.12312 -2.19573e-08)
(0.547397 0.127352 -9.00084e-08)
(0.534835 0.132652 4.47456e-08)
(0.528486 0.135196 1.51318e-08)
(0.526577 0.138724 -7.05786e-08)
(0.524881 0.1455 1.19258e-07)
(0.516182 0.150171 1.44619e-07)
(0.491795 0.160749 1.8748e-07)
(0.450767 0.173854 1.9373e-07)
(0.392833 0.18987 1.85597e-07)
(0.314486 0.210785 1.47939e-07)
(0.222553 0.236762 7.10073e-08)
(0.127499 0.261749 -7.29995e-09)
(0.0457417 0.269961 1.86247e-08)
(2.14029 -0.0176636 -3.90487e-08)
(1.71351 -0.0011134 4.72121e-07)
(0.788284 0.148001 1.08878e-06)
(0.375841 0.126757 -1.7847e-08)
(0.437464 0.104637 -8.02688e-08)
(0.5219 0.103153 2.72293e-10)
(0.558255 0.111139 3.787e-08)
(0.56986 0.119417 3.79331e-08)
(0.571695 0.12619 2.89678e-08)
(0.570949 0.131823 9.80957e-09)
(0.568587 0.137051 -5.57887e-09)
(0.56469 0.142461 3.88397e-10)
(0.556863 0.147068 -4.95318e-08)
(0.545129 0.153337 -1.46312e-08)
(0.538323 0.156476 -7.28784e-09)
(0.537667 0.1599 -1.51408e-09)
(0.535202 0.166232 1.00552e-07)
(0.526648 0.171982 1.15683e-07)
(0.505327 0.184547 1.65504e-07)
(0.466995 0.200464 1.7519e-07)
(0.413314 0.22075 1.71469e-07)
(0.340098 0.247767 1.45638e-07)
(0.251095 0.282282 8.81239e-08)
(0.151551 0.320642 -2.81003e-09)
(0.0579063 0.341211 4.69266e-09)
(2.10481 -0.0214922 -7.25983e-08)
(1.7501 -0.0106579 1.77971e-07)
(0.840156 0.136363 5.07067e-07)
(0.371435 0.150421 1.76072e-07)
(0.443315 0.126484 5.65191e-08)
(0.536314 0.119564 1.05467e-08)
(0.572321 0.126652 4.22047e-08)
(0.580004 0.13587 4.13611e-08)
(0.57917 0.143732 3.05302e-08)
(0.57761 0.150331 4.52419e-09)
(0.575727 0.156375 -5.3775e-09)
(0.572783 0.162206 1.65578e-08)
(0.567192 0.167435 -4.27006e-08)
(0.556651 0.174386 -1.67571e-08)
(0.549173 0.177999 -5.29076e-09)
(0.548879 0.18094 2.94797e-08)
(0.546268 0.185962 1.28014e-07)
(0.53909 0.193092 7.97814e-08)
(0.521047 0.206987 1.62685e-07)
(0.486346 0.226045 1.64395e-07)
(0.438451 0.251319 1.5641e-07)
(0.372494 0.285137 1.37305e-07)
(0.290579 0.330326 1.02931e-07)
(0.190365 0.387528 2.26063e-09)
(0.0815392 0.433892 -2.86547e-09)
(2.06307 -0.0285471 -2.04943e-07)
(1.76668 -0.0292333 3.60492e-09)
(0.893663 0.0899345 2.48636e-07)
(0.382049 0.156522 1.10486e-07)
(0.454072 0.152798 8.88588e-08)
(0.551594 0.145944 5.45478e-08)
(0.587659 0.14933 4.69715e-08)
(0.591091 0.156591 4.49988e-08)
(0.587091 0.16387 3.173e-08)
(0.58453 0.170513 6.50477e-09)
(0.583042 0.176642 -4.76408e-09)
(0.581222 0.18251 2.22022e-08)
(0.578169 0.188208 -4.28013e-08)
(0.569014 0.195186 2.41146e-08)
(0.560659 0.198899 1.54819e-08)
(0.560296 0.201305 -5.44401e-10)
(0.558258 0.205643 8.47508e-08)
(0.552942 0.213623 4.88044e-08)
(0.538587 0.227123 1.63263e-07)
(0.50923 0.250311 1.56395e-07)
(0.468646 0.28024 1.30779e-07)
(0.412903 0.321497 1.18886e-07)
(0.344397 0.382027 9.91823e-08)
(0.253519 0.467348 3.93272e-08)
(0.127419 0.584745 -9.82313e-09)
(2.20558 0.00121872 -1.28326e-07)
(1.51681 0.00336471 1.22852e-07)
(0.61875 0.00917408 4.07241e-07)
(0.418878 0.00776266 -8.6567e-08)
(0.448941 0.00778723 -8.43652e-08)
(0.505023 0.00858767 -8.70374e-08)
(0.536982 0.00937395 -4.59576e-08)
(0.550789 0.00992788 -3.8665e-08)
(0.553871 0.0103883 -8.88884e-08)
(0.552278 0.0108081 -1.08493e-07)
(0.545059 0.0112031 -6.18927e-08)
(0.532647 0.0117182 -2.00703e-07)
(0.516505 0.0124644 -7.43211e-08)
(0.503169 0.0130482 -1.70236e-07)
(0.49714 0.0134081 -1.68978e-07)
(0.49341 0.0136777 -1.99418e-07)
(0.492034 0.0140071 -7.23015e-08)
(0.481648 0.0147519 3.66931e-07)
(0.451308 0.0155009 3.56054e-07)
(0.404471 0.0165549 4.96733e-08)
(0.33967 0.0177845 -9.09514e-08)
(0.253091 0.0191514 -4.28451e-08)
(0.162352 0.0206545 -8.2936e-08)
(0.0861584 0.0221648 6.65784e-09)
(0.0311143 0.02323 -1.26404e-08)
(2.21003 -7.70762e-05 1.72772e-07)
(1.52742 0.00469865 4.66423e-07)
(0.628553 0.025673 4.01712e-07)
(0.42013 0.0222123 -1.47192e-07)
(0.449198 0.0219881 -1.33163e-07)
(0.505201 0.0235255 -9.1134e-08)
(0.53681 0.0248828 -5.45411e-08)
(0.550268 0.0256464 -4.65014e-08)
(0.55317 0.0261086 -7.6812e-08)
(0.55147 0.0264554 -1.0401e-07)
(0.544315 0.0267395 -8.00721e-08)
(0.532292 0.0274066 -2.17875e-07)
(0.516506 0.0287095 -1.10368e-08)
(0.503363 0.0296796 -1.58704e-07)
(0.497664 0.030243 -1.36552e-07)
(0.494353 0.0308748 -2.25257e-07)
(0.493543 0.0317269 -1.86776e-07)
(0.483469 0.0335694 4.10063e-07)
(0.453236 0.0352832 3.63547e-07)
(0.406598 0.037424 7.72055e-08)
(0.341775 0.0397855 -8.27964e-08)
(0.255094 0.0424197 -5.67924e-08)
(0.163899 0.045431 -8.65067e-08)
(0.0866787 0.0478279 2.36095e-09)
(0.0307936 0.0482106 -1.64255e-08)
(2.20813 -0.00538222 1.31663e-07)
(1.54159 0.000119074 4.20975e-07)
(0.639316 0.0418798 4.18861e-07)
(0.416498 0.0377837 -1.36256e-07)
(0.447207 0.0375528 -1.1806e-07)
(0.504757 0.0398825 -7.60706e-08)
(0.536823 0.04195 -6.12518e-08)
(0.550601 0.0434508 -5.42015e-08)
(0.553903 0.0446114 -7.64693e-08)
(0.552565 0.0456114 -1.03537e-07)
(0.545962 0.0464634 -1.08802e-07)
(0.534906 0.0479035 -2.09398e-07)
(0.519736 0.0501725 -6.93643e-09)
(0.506512 0.0519831 -1.60858e-07)
(0.500722 0.0530326 -1.15908e-07)
(0.497409 0.0542264 -1.98957e-07)
(0.496868 0.0557586 -1.39031e-07)
(0.487008 0.0586869 3.53743e-07)
(0.456941 0.0619557 3.39178e-07)
(0.410769 0.0659116 9.73278e-08)
(0.346259 0.0702704 -8.54444e-08)
(0.259911 0.0752577 -8.33749e-08)
(0.168305 0.0811162 -1.00552e-07)
(0.08944 0.0854547 -1.50284e-08)
(0.0315716 0.0854953 -3.1271e-08)
(2.19619 -0.00566025 -2.91405e-07)
(1.55692 0.00303128 -6.91303e-08)
(0.651163 0.0625344 4.75138e-07)
(0.408632 0.0541805 -9.44144e-08)
(0.443263 0.0519213 -8.34636e-08)
(0.503787 0.05469 -5.81138e-08)
(0.536805 0.0574399 -5.98068e-08)
(0.551234 0.0597109 -5.2761e-08)
(0.555126 0.0615447 -6.65263e-08)
(0.554271 0.063102 -1.06124e-07)
(0.548497 0.0644113 -1.0245e-07)
(0.538909 0.0664956 -1.63097e-07)
(0.524826 0.0694879 -9.76938e-08)
(0.511635 0.0720335 -1.97057e-07)
(0.505652 0.0735559 -1.06307e-07)
(0.502264 0.0753947 -7.25572e-08)
(0.501939 0.0777386 7.93181e-09)
(0.492509 0.0815021 1.98292e-07)
(0.462998 0.0865602 1.90965e-07)
(0.417531 0.0926971 6.77261e-08)
(0.353651 0.0994935 -4.45137e-08)
(0.268083 0.107501 -7.38544e-08)
(0.175883 0.11696 -1.25258e-07)
(0.094287 0.124048 -4.06161e-08)
(0.0330279 0.124071 -5.16722e-08)
(2.19597 -0.00743633 4.4189e-08)
(1.5897 0.00408415 3.67283e-07)
(0.678446 0.0845961 5.35182e-07)
(0.403468 0.0708719 -1.36207e-07)
(0.44104 0.0654558 -1.14425e-07)
(0.505082 0.0681231 -6.06719e-08)
(0.538614 0.0716995 -5.619e-08)
(0.553225 0.0750655 -4.70587e-08)
(0.557366 0.077866 -5.76009e-08)
(0.556869 0.0802389 -1.10618e-07)
(0.552034 0.0823388 -8.92583e-08)
(0.544135 0.08528 -1.09581e-07)
(0.531318 0.0888769 -2.03399e-07)
(0.518209 0.0921587 -1.01495e-07)
(0.512067 0.0939855 -1.9753e-07)
(0.508656 0.0966733 4.4659e-09)
(0.508252 0.100162 1.04677e-07)
(0.499302 0.104571 1.27295e-07)
(0.470864 0.111339 9.56991e-08)
(0.426384 0.119607 5.58794e-08)
(0.363598 0.129008 -7.34921e-09)
(0.279434 0.140492 -8.4065e-08)
(0.186766 0.154214 -1.50299e-07)
(0.10147 0.165078 -6.78804e-08)
(0.0353618 0.165751 -7.35767e-08)
(2.18042 -0.0126488 -1.05838e-07)
(1.62218 0.000422025 1.92605e-07)
(0.705278 0.107795 6.04721e-07)
(0.392924 0.0881108 -1.45165e-07)
(0.437645 0.0786315 -1.14643e-07)
(0.507472 0.0803072 -5.41792e-08)
(0.54207 0.0850504 -4.87833e-08)
(0.556716 0.0898401 -3.88517e-08)
(0.560796 0.0938432 -5.29358e-08)
(0.560502 0.0972035 -1.10169e-07)
(0.556604 0.100299 -8.99619e-08)
(0.550312 0.104144 -6.65186e-08)
(0.538928 0.108111 -2.57703e-07)
(0.525997 0.112341 2.39201e-08)
(0.51985 0.114422 -1.30123e-07)
(0.51682 0.117733 -1.00387e-07)
(0.515986 0.12304 1.08644e-07)
(0.507348 0.127565 1.28468e-07)
(0.480449 0.136183 9.1825e-08)
(0.437429 0.146746 5.36269e-08)
(0.376539 0.159181 1.43673e-09)
(0.294648 0.174923 -9.88554e-08)
(0.201876 0.194042 -1.72454e-07)
(0.111924 0.210475 -9.11424e-08)
(0.0391199 0.21334 -8.89734e-08)
(2.16167 -0.0142117 -1.10497e-08)
(1.66327 0.00231743 3.46752e-07)
(0.740168 0.134247 7.30795e-07)
(0.381802 0.10691 -1.74021e-07)
(0.435391 0.0913818 -1.22865e-07)
(0.512369 0.0916536 -6.54114e-08)
(0.548292 0.098009 -4.18827e-08)
(0.562153 0.10446 -2.89025e-08)
(0.565554 0.109816 -4.5734e-08)
(0.56522 0.114284 -9.23428e-08)
(0.562188 0.118458 -8.74263e-08)
(0.557257 0.123158 -7.32862e-08)
(0.547556 0.127371 -3.05781e-07)
(0.535037 0.132683 3.52352e-08)
(0.528662 0.135207 -1.66598e-08)
(0.526787 0.138691 -1.79316e-07)
(0.525066 0.145457 1.41198e-07)
(0.516342 0.15012 3.76002e-08)
(0.491975 0.160713 5.91485e-08)
(0.450912 0.173833 4.80113e-08)
(0.392925 0.189856 1.36097e-08)
(0.314535 0.210775 -9.26205e-08)
(0.222585 0.236754 -1.85457e-07)
(0.127526 0.261741 -1.052e-07)
(0.0457572 0.269953 -9.45097e-08)
(2.14026 -0.0176693 -1.04868e-07)
(1.71358 -0.0011222 2.4807e-07)
(0.788341 0.148 7.34397e-07)
(0.375834 0.126771 -1.05859e-07)
(0.437468 0.104642 -1.11894e-07)
(0.521917 0.103155 -4.97864e-08)
(0.558273 0.111145 -1.99642e-08)
(0.56988 0.119428 -2.00992e-08)
(0.571722 0.126204 -3.85001e-08)
(0.570989 0.131839 -6.98414e-08)
(0.568654 0.13707 -7.46037e-08)
(0.564773 0.142472 -9.70586e-08)
(0.557025 0.147079 -2.23296e-07)
(0.545337 0.153351 -2.59198e-08)
(0.538488 0.15649 4.21025e-08)
(0.537844 0.159883 -3.49983e-09)
(0.535366 0.166174 -1.18899e-07)
(0.526798 0.171952 -1.76701e-09)
(0.505492 0.184524 5.32034e-08)
(0.467131 0.200453 4.44196e-08)
(0.413402 0.220752 2.08189e-08)
(0.340145 0.247777 -7.12396e-08)
(0.251125 0.282287 -1.85895e-07)
(0.151577 0.320645 -1.12304e-07)
(0.0579214 0.341209 -9.6395e-08)
(2.10478 -0.0214917 -1.21237e-07)
(1.75014 -0.0106637 3.52519e-08)
(0.840211 0.136333 2.67847e-07)
(0.371428 0.150432 4.3782e-08)
(0.44332 0.126501 6.27484e-09)
(0.536332 0.119573 -2.04093e-08)
(0.572342 0.126658 -5.89219e-09)
(0.580025 0.135876 -1.15747e-08)
(0.579196 0.143738 -3.47524e-08)
(0.577648 0.150335 -5.75388e-08)
(0.575787 0.156374 -6.9507e-08)
(0.572857 0.162194 -1.04054e-07)
(0.567342 0.167431 -1.17255e-07)
(0.556842 0.174371 -1.5485e-08)
(0.549302 0.177995 4.18496e-08)
(0.548994 0.180931 6.21723e-08)
(0.546394 0.185935 -1.97726e-07)
(0.539222 0.193091 3.70039e-08)
(0.521182 0.206975 3.08093e-09)
(0.486463 0.226039 2.82983e-08)
(0.438531 0.251325 3.5197e-08)
(0.372534 0.285155 -5.43845e-08)
(0.290603 0.330344 -1.71415e-07)
(0.190387 0.387541 -1.10264e-07)
(0.0815517 0.433897 -9.3678e-08)
(2.06304 -0.0285472 -1.7021e-07)
(1.7667 -0.029243 -2.63437e-08)
(0.893719 0.0898785 8.86539e-08)
(0.382058 0.156504 -2.60827e-08)
(0.45408 0.152801 2.10049e-08)
(0.551604 0.145951 3.53859e-08)
(0.587675 0.149336 8.35238e-09)
(0.591109 0.156594 -8.43175e-09)
(0.587114 0.16387 -3.32457e-08)
(0.584562 0.170507 -5.33659e-08)
(0.58309 0.176626 -6.89412e-08)
(0.581282 0.182483 -1.05502e-07)
(0.578284 0.188186 -7.11069e-08)
(0.569157 0.195139 -8.35708e-08)
(0.560753 0.198868 -4.0423e-08)
(0.560377 0.2013 4.36574e-08)
(0.558356 0.205654 -1.06114e-07)
(0.553041 0.213646 8.61962e-08)
(0.538685 0.22713 -3.92538e-08)
(0.509325 0.250319 3.82779e-09)
(0.468713 0.28025 4.67441e-08)
(0.412937 0.321516 -2.0886e-09)
(0.344414 0.382055 -1.34881e-07)
(0.253532 0.467368 -1.10113e-07)
(0.127426 0.584754 -8.67845e-08)
(2.20559 0.00121592 -4.45204e-08)
(1.51686 0.00336059 3.00722e-07)
(0.618794 0.00917268 5.51426e-07)
(0.418882 0.00776257 -1.82135e-07)
(0.448942 0.00778788 -1.70477e-07)
(0.505021 0.0085886 -1.50526e-07)
(0.536975 0.00937512 -9.02185e-08)
(0.550778 0.00992958 -5.8773e-08)
(0.553855 0.0103906 -4.78135e-08)
(0.552257 0.0108107 -5.97537e-08)
(0.545033 0.0112056 -8.96132e-08)
(0.532617 0.0117207 -1.1006e-07)
(0.516473 0.0124668 -1.15725e-07)
(0.503137 0.013051 -1.12007e-07)
(0.497113 0.0134115 -9.30685e-08)
(0.493395 0.0136827 -7.11991e-08)
(0.492036 0.0140132 -1.7076e-08)
(0.481658 0.0147576 8.00346e-08)
(0.451318 0.0155064 1.15952e-07)
(0.404483 0.0165592 9.14016e-08)
(0.339685 0.0177868 5.87163e-08)
(0.253104 0.0191516 2.53102e-08)
(0.162355 0.0206535 -1.26358e-08)
(0.0861547 0.0221634 -2.42882e-08)
(0.0311118 0.0232286 -5.73018e-08)
(2.21003 -7.7567e-05 -5.43152e-08)
(1.52747 0.00469815 2.83993e-07)
(0.62859 0.0256745 5.46295e-07)
(0.420129 0.0222124 -1.85403e-07)
(0.449197 0.0219874 -1.7167e-07)
(0.505198 0.0235245 -1.40615e-07)
(0.536804 0.0248815 -9.3942e-08)
(0.550258 0.0256453 -6.40651e-08)
(0.553157 0.0261074 -5.43996e-08)
(0.551456 0.0264535 -6.56469e-08)
(0.544299 0.0267367 -9.09039e-08)
(0.532277 0.0274035 -1.04332e-07)
(0.516492 0.0287057 -1.1556e-07)
(0.503351 0.0296759 -1.10186e-07)
(0.497655 0.0302389 -9.25986e-08)
(0.494354 0.0308706 -6.78095e-08)
(0.493556 0.0317221 -1.99544e-08)
(0.483487 0.0335636 8.44503e-08)
(0.453252 0.0352794 1.05983e-07)
(0.406613 0.0374223 9.00482e-08)
(0.341791 0.0397843 5.91162e-08)
(0.255106 0.0424182 2.4623e-08)
(0.163902 0.0454288 -1.04338e-08)
(0.0866749 0.0478251 -1.99442e-08)
(0.0307911 0.0482076 -5.06355e-08)
(2.20814 -0.00538117 4.35094e-08)
(1.54165 0.000120854 3.96733e-07)
(0.63936 0.0418835 5.54806e-07)
(0.416499 0.0377838 -1.98551e-07)
(0.447206 0.0375512 -1.77181e-07)
(0.504754 0.0398808 -1.25929e-07)
(0.536818 0.041948 -9.45375e-08)
(0.550592 0.0434489 -6.8635e-08)
(0.553892 0.0446091 -5.88071e-08)
(0.552553 0.0456085 -6.74466e-08)
(0.545951 0.0464595 -8.34574e-08)
(0.534899 0.0478978 -9.65007e-08)
(0.519734 0.0501641 -1.1622e-07)
(0.506512 0.0519762 -1.12735e-07)
(0.500727 0.0530275 -9.39211e-08)
(0.497424 0.0542248 -6.83807e-08)
(0.496896 0.0557597 -3.15181e-08)
(0.487041 0.0586902 7.68898e-08)
(0.45697 0.0619616 9.83351e-08)
(0.410792 0.0659174 8.90058e-08)
(0.346279 0.0702737 5.74645e-08)
(0.259925 0.0752585 2.32345e-08)
(0.168307 0.0811144 -5.68162e-09)
(0.0894357 0.0854511 -1.10492e-08)
(0.0315689 0.0854909 -3.80983e-08)
(2.19619 -0.0056617 -1.6193e-07)
(1.55698 0.00302958 1.47189e-07)
(0.651205 0.0625377 5.83511e-07)
(0.408631 0.0541807 -1.88665e-07)
(0.443262 0.0519197 -1.6384e-07)
(0.503785 0.054688 -1.06481e-07)
(0.5368 0.0574373 -9.15006e-08)
(0.551225 0.0597076 -7.03507e-08)
(0.555115 0.0615405 -5.96691e-08)
(0.554258 0.0630971 -6.28551e-08)
(0.548484 0.0644053 -7.84737e-08)
(0.538898 0.0664862 -1.08003e-07)
(0.524821 0.0694767 -1.22966e-07)
(0.511635 0.0720248 -1.13018e-07)
(0.505654 0.073553 -8.41334e-08)
(0.50227 0.0754017 -5.41175e-08)
(0.501952 0.0777529 -2.42276e-08)
(0.492524 0.0815218 7.56464e-08)
(0.463009 0.0865798 9.16364e-08)
(0.417538 0.0927102 8.6043e-08)
(0.353658 0.0994993 5.78344e-08)
(0.26809 0.107502 3.06104e-08)
(0.175881 0.116958 4.58958e-09)
(0.0942805 0.124043 2.34959e-09)
(0.0330248 0.124065 -1.54476e-08)
(2.19597 -0.00743712 -2.05901e-08)
(1.58976 0.00408369 3.47264e-07)
(0.678489 0.0846004 6.43358e-07)
(0.403466 0.0708727 -2.1167e-07)
(0.441039 0.0654547 -1.78476e-07)
(0.505082 0.0681212 -9.79958e-08)
(0.538611 0.0716968 -8.72055e-08)
(0.553217 0.0750618 -6.65421e-08)
(0.557355 0.077861 -5.51061e-08)
(0.556853 0.0802329 -5.48915e-08)
(0.552014 0.0823315 -8.64405e-08)
(0.544112 0.0852703 -1.27493e-07)
(0.531296 0.0888727 -1.29634e-07)
(0.518185 0.0921547 -5.26602e-08)
(0.51204 0.093994 -1.62989e-07)
(0.508629 0.0966903 -7.63379e-08)
(0.508228 0.100183 -3.62405e-08)
(0.49928 0.104596 9.26819e-08)
(0.470839 0.11136 9.63008e-08)
(0.426361 0.11962 8.55108e-08)
(0.363587 0.129012 5.90471e-08)
(0.27943 0.14049 2.87025e-08)
(0.186759 0.154209 9.51609e-09)
(0.101461 0.165071 1.70057e-08)
(0.0353581 0.165743 1.06541e-08)
(2.18042 -0.0126508 -1.46859e-07)
(1.62224 0.000419628 1.92581e-07)
(0.705322 0.107799 6.98021e-07)
(0.392922 0.0881125 -2.13756e-07)
(0.437645 0.0786314 -1.70203e-07)
(0.507473 0.0803061 -8.69874e-08)
(0.542067 0.0850488 -7.82778e-08)
(0.556709 0.0898376 -5.84199e-08)
(0.560784 0.0938395 -4.98078e-08)
(0.560484 0.0971985 -5.41843e-08)
(0.556577 0.100292 -9.87169e-08)
(0.550278 0.104137 -1.27875e-07)
(0.538882 0.108116 -7.27235e-08)
(0.525942 0.112338 -1.5982e-07)