/*--------------------------------*- C++ -*----------------------------------*\
| =========                 |                                                 |
| \\      /  F ield         | OpenFOAM: The Open Source CFD Toolbox           |
|  \\    /   O peration     | Version:  4.1                                   |
|   \\  /    A nd           | Web:      www.OpenFOAM.org                      |
|    \\/     M anipulation  |                                                 |
\*---------------------------------------------------------------------------*/
FoamFile
{
    version     2.0;
    format      ascii;
    class       volScalarField;
    location    "0.04";
    object      p;
}
// * * * * * * * * * * * * * * * * * * * * * * * * * * * * * * * * * * * * * //

dimensions      [1 -1 -2 0 0 0 0];

internalField   nonuniform List<scalar> 
52500
(
0.0909363
0.116663
0.195831
0.390669
0.682314
0.855086
0.936832
0.974309
0.990472
0.997149
0.999068
0.999703
0.999905
0.999964
0.999995
1.00006
1.00027
1.00098
1.0033
1.01051
1.0323
1.09707
1.31333
1.96282
7.6741
0.0909349
0.116662
0.195829
0.390663
0.682313
0.855088
0.936833
0.974309
0.990472
0.997149
0.999068
0.999703
0.999905
0.999964
0.999995
1.00006
1.00027
1.00098
1.0033
1.01051
1.0323
1.09707
1.31333
1.96281
7.67401
0.0909259
0.116657
0.195835
0.390678
0.682302
0.855079
0.936829
0.974309
0.990468
0.997148
0.999068
0.999702
0.999905
0.999964
0.999995
1.00006
1.00027
1.00098
1.0033
1.01051
1.0323
1.09708
1.31337
1.96289
7.67374
0.090927
0.116666
0.195851
0.39073
0.682318
0.855071
0.936816
0.974299
0.990463
0.997146
0.999067
0.999702
0.999905
0.999964
0.999995
1.00006
1.00027
1.00098
1.0033
1.01051
1.0323
1.09708
1.31336
1.96283
7.67301
0.0909037
0.116663
0.195873
0.390766
0.682314
0.855069
0.936817
0.974299
0.990459
0.997144
0.999066
0.999702
0.999905
0.999964
0.999995
1.00006
1.00027
1.00098
1.0033
1.01051
1.0323
1.09707
1.31331
1.96249
7.66891
0.0914715
0.11714
0.196169
0.390484
0.682321
0.855133
0.936866
0.974326
0.990468
0.997148
0.999069
0.999702
0.999905
0.999964
0.999995
1.00006
1.00027
1.00098
1.0033
1.01051
1.03229
1.09702
1.31303
1.96083
7.64947
0.0914646
0.117148
0.196195
0.390543
0.682333
0.855124
0.936852
0.974316
0.99046
0.997144
0.999067
0.999702
0.999905
0.999964
0.999995
1.00006
1.00027
1.00098
1.00329
1.01048
1.0322
1.09665
1.31133
1.952
7.55472
0.0909049
0.116681
0.195906
0.390841
0.682334
0.855065
0.936805
0.974289
0.990455
0.997141
0.999065
0.999701
0.999905
0.999964
0.999995
1.00006
1.00027
1.00097
1.00327
1.01039
1.03186
1.09533
1.30518
1.92254
7.23943
0.0914646
0.117147
0.196192
0.390534
0.682334
0.855131
0.936859
0.974321
0.990463
0.997146
0.999067
0.999702
0.999905
0.999964
0.999995
1.00006
1.00026
1.00093
1.00312
1.00983
1.02997
1.0889
1.28039
1.83371
6.38215
0.0914626
0.117145
0.196188
0.390518
0.682338
0.855137
0.936861
0.97432
0.990464
0.997146
0.999067
0.999702
0.999905
0.999964
0.999993
1.00005
1.00022
1.00081
1.00269
1.00842
1.02545
1.07435
1.22872
1.66067
5.03615
0.0909264
0.116665
0.195848
0.390713
0.682327
0.855091
0.936836
0.974314
0.990479
0.997158
0.999078
0.999713
0.999915
0.999975
1.00001
1.00007
1.00028
1.00099
1.00331
1.01052
1.03231
1.09708
1.31335
1.96289
7.67452
0.0909241
0.116664
0.195845
0.390694
0.68232
0.855099
0.936847
0.974322
0.990484
0.997161
0.999079
0.999713
0.999916
0.999975
1.00001
1.00007
1.00028
1.00099
1.00331
1.01052
1.03231
1.09708
1.31335
1.96289
7.67451
0.0914624
0.117138
0.196171
0.390486
0.682333
0.855149
0.93688
0.974339
0.990482
0.997161
0.99908
0.999713
0.999916
0.999975
1.00001
1.00007
1.00028
1.00099
1.00331
1.01052
1.03231
1.09708
1.31335
1.96288
7.67441
0.090935
0.116673
0.195849
0.390686
0.68232
0.855103
0.936851
0.974326
0.990486
0.997162
0.99908
0.999713
0.999916
0.999975
1.00001
1.00007
1.00028
1.00099
1.00331
1.01052
1.03231
1.09708
1.31335
1.96283
7.67378
0.0914624
0.117138
0.196171
0.390486
0.682333
0.855149
0.93688
0.974339
0.990482
0.997161
0.99908
0.999713
0.999916
0.999975
1.00001
1.00007
1.00028
1.00099
1.00331
1.01052
1.03231
1.09707
1.31329
1.96249
7.6697
0.0909242
0.116664
0.195844
0.390692
0.68232
0.855101
0.936849
0.974324
0.990485
0.997162
0.99908
0.999713
0.999916
0.999975
1.00001
1.00007
1.00028
1.00099
1.00331
1.01051
1.0323
1.09701
1.31302
1.96083
7.6503
0.0909268
0.116665
0.195846
0.390706
0.682327
0.855095
0.93684
0.974317
0.990481
0.997159
0.999078
0.999713
0.999916
0.999975
1.00001
1.00007
1.00028
1.00099
1.00331
1.01049
1.03221
1.09666
1.31136
1.95208
7.55533
0.0909354
0.116662
0.195827
0.390656
0.682318
0.855103
0.93685
0.974325
0.990487
0.997163
0.99908
0.999713
0.999916
0.999975
1.00001
1.00007
1.00028
1.00098
1.00328
1.0104
1.03187
1.09531
1.30519
1.92259
7.23988
0.0909359
0.116662
0.195826
0.390651
0.682319
0.855105
0.936852
0.974326
0.990487
0.997163
0.99908
0.999713
0.999916
0.999975
1.00001
1.00007
1.00027
1.00094
1.00312
1.00984
1.02997
1.08888
1.28038
1.8338
6.38269
0.090936
0.116662
0.195826
0.390649
0.682318
0.855106
0.936853
0.974328
0.990488
0.997163
0.99908
0.999713
0.999916
0.999975
1
1.00006
1.00023
1.00082
1.0027
1.00843
1.02546
1.07436
1.22872
1.66071
5.03643
0.090936
0.116662
0.195825
0.390649
0.682318
0.855106
0.936854
0.974328
0.990488
0.997163
0.99908
0.999713
0.999916
0.999975
1.00001
1.00007
1.00028
1.00099
1.00331
1.01052
1.03231
1.09708
1.31335
1.96289
7.67452
0.0909359
0.116662
0.195826
0.390651
0.682318
0.855105
0.936852
0.974327
0.990487
0.997163
0.99908
0.999713
0.999916
0.999975
1.00001
1.00007
1.00028
1.00099
1.00331
1.01052
1.03231
1.09708
1.31335
1.96289
7.67451
0.0909354
0.116662
0.195827
0.390655
0.682318
0.855103
0.93685
0.974326
0.990487
0.997163
0.99908
0.999713
0.999916
0.999975
1.00001
1.00007
1.00028
1.00099
1.00331
1.01052
1.03231
1.09708
1.31335
1.96288
7.67441
0.090927
0.116665
0.195845
0.390702
0.682326
0.855097
0.936842
0.974319
0.990483
0.99716
0.999079
0.999713
0.999916
0.999975
1.00001
1.00007
1.00028
1.00099
1.00331
1.01052
1.03231
1.09708
1.31335
1.96283
7.67379
0.0909249
0.116664
0.195842
0.390685
0.68232
0.855104
0.936852
0.974326
0.990487
0.997163
0.99908
0.999713
0.999916
0.999975
1.00001
1.00007
1.00028
1.00099
1.00331
1.01052
1.03231
1.09707
1.31329
1.96249
7.6697
0.0914712
0.117129
0.196141
0.390417
0.682325
0.855161
0.936893
0.974349
0.990489
0.997164
0.999081
0.999714
0.999916
0.999975
1.00001
1.00007
1.00028
1.00099
1.00331
1.01051
1.0323
1.09701
1.31302
1.96083
7.6503
0.0909249
0.116664
0.195842
0.390685
0.68232
0.855103
0.936851
0.974326
0.990486
0.997163
0.99908
0.999713
0.999916
0.999975
1.00001
1.00007
1.00028
1.00099
1.00331
1.01049
1.03221
1.09666
1.31136
1.95208
7.55533
0.090927
0.116665
0.195846
0.390705
0.682326
0.855095
0.93684
0.974317
0.990481
0.997159
0.999078
0.999713
0.999916
0.999975
1.00001
1.00007
1.00028
1.00098
1.00328
1.0104
1.03187
1.09531
1.30519
1.92259
7.23989
0.0909348
0.116662
0.195829
0.390661
0.682318
0.855101
0.936848
0.974324
0.990486
0.997162
0.99908
0.999713
0.999916
0.999975
1.00001
1.00007
1.00027
1.00094
1.00312
1.00984
1.02997
1.08888
1.28038
1.8338
6.3827
0.090927
0.116665
0.195846
0.390705
0.682326
0.855095
0.93684
0.974317
0.990481
0.997159
0.999078
0.999713
0.999915
0.999975
1
1.00006
1.00023
1.00082
1.0027
1.00843
1.02546
1.07436
1.22872
1.66071
5.03643
0.090936
0.116662
0.195825
0.390648
0.682318
0.855107
0.936854
0.974328
0.990489
0.997164
0.99908
0.999713
0.999916
0.999975
1.00001
1.00007
1.00028
1.00099
1.00331
1.01052
1.03231
1.09708
1.31335
1.96289
7.67452
0.090936
0.116662
0.195825
0.390648
0.682318
0.855107
0.936854
0.974328
0.990489
0.997164
0.99908
0.999713
0.999916
0.999975
1.00001
1.00007
1.00028
1.00099
1.00331
1.01052
1.03231
1.09708
1.31335
1.96289
7.67451
0.090936
0.116662
0.195825
0.390648
0.682318
0.855107
0.936854
0.974328
0.990489
0.997164
0.99908
0.999713
0.999916
0.999975
1.00001
1.00007
1.00028
1.00099
1.00331
1.01052
1.03231
1.09708
1.31335
1.96288
7.67441
0.090936
0.116662
0.195825
0.390648
0.682318
0.855107
0.936854
0.974328
0.990489
0.997164
0.99908
0.999713
0.999916
0.999975
1.00001
1.00007
1.00028
1.00099
1.00331
1.01052
1.03231
1.09708
1.31335
1.96283
7.67378
0.090936
0.116662
0.195825
0.390648
0.682318
0.855107
0.936854
0.974328
0.990489
0.997164
0.99908
0.999713
0.999916
0.999975
1.00001
1.00007
1.00028
1.00099
1.00331
1.01052
1.03231
1.09707
1.31329
1.96249
7.6697
0.090936
0.116662
0.195825
0.390648
0.682318
0.855107
0.936854
0.974328
0.990489
0.997164
0.99908
0.999713
0.999916
0.999975
1.00001
1.00007
1.00028
1.00099
1.00331
1.01051
1.0323
1.09701
1.31302
1.96083
7.6503
0.090936
0.116662
0.195825
0.390648
0.682318
0.855107
0.936854
0.974328
0.990489
0.997164
0.99908
0.999713
0.999916
0.999975
1.00001
1.00007
1.00028
1.00099
1.00331
1.01049
1.03221
1.09666
1.31136
1.95208
7.55533
0.090936
0.116662
0.195825
0.390648
0.682318
0.855107
0.936854
0.974328
0.990489
0.997164
0.99908
0.999713
0.999916
0.999975
1.00001
1.00007
1.00028
1.00098
1.00328
1.0104
1.03187
1.09531
1.30519
1.92259
7.23989
0.090936
0.116662
0.195825
0.390648
0.682318
0.855107
0.936854
0.974328
0.990489
0.997164
0.99908
0.999713
0.999916
0.999975
1.00001
1.00007
1.00027
1.00094
1.00312
1.00984
1.02997
1.08888
1.28038
1.8338
6.3827
0.090936
0.116662
0.195825
0.390648
0.682318
0.855107
0.936854
0.974328
0.990489
0.997164
0.99908
0.999713
0.999916
0.999975
1
1.00006
1.00023
1.00082
1.0027
1.00843
1.02546
1.07436
1.22872
1.66071
5.03643
0.0909266
0.116658
0.195836
0.390682
0.682297
0.855076
0.936834
0.974317
0.990478
0.997159
0.999079
0.999713
0.999916
0.999975
1.00001
1.00007
1.00028
1.00099
1.00331
1.01052
1.03231
1.09708
1.31336
1.96288
7.67426
0.0909266
0.116657
0.195835
0.390677
0.682301
0.85508
0.936835
0.974317
0.990479
0.997158
0.999078
0.999713
0.999916
0.999975
1.00001
1.00007
1.00028
1.00099
1.00331
1.01052
1.03231
1.09708
1.31335
1.96287
7.67422
0.0909348
0.116664
0.195836
0.390686
0.682312
0.855077
0.936825
0.974307
0.990476
0.997156
0.999077
0.999713
0.999915
0.999975
1.00001
1.00007
1.00028
1.00099
1.00331
1.01052
1.03231
1.09709
1.31339
1.96292
7.67416
0.0909348
0.116664
0.195837
0.390686
0.682314
0.855078
0.936825
0.974307
0.990475
0.997156
0.999077
0.999712
0.999915
0.999975
1.00001
1.00007
1.00028
1.00099
1.00331
1.01052
1.03231
1.09709
1.31338
1.96287
7.6735
0.0909267
0.116658
0.195835
0.390679
0.682304
0.855081
0.936835
0.974316
0.990477
0.997157
0.999078
0.999713
0.999916
0.999975
1.00001
1.00007
1.00028
1.00099
1.00331
1.01052
1.03231
1.09707
1.31329
1.96248
7.66945
0.0909282
0.116658
0.195836
0.390686
0.682298
0.855078
0.936837
0.974321
0.990478
0.997159
0.999079
0.999713
0.999916
0.999975
1.00001
1.00007
1.00028
1.00099
1.00331
1.01051
1.0323
1.09702
1.31301
1.96082
7.65014
0.090928
0.11666
0.195842
0.3907
0.682298
0.855068
0.936826
0.974313
0.990473
0.997156
0.999078
0.999713
0.999916
0.999975
1.00001
1.00007
1.00028
1.00099
1.00331
1.01049
1.03221
1.09666
1.31136
1.95207
7.55529
0.0909357
0.116665
0.19584
0.390698
0.68231
0.855071
0.936821
0.974307
0.990472
0.997156
0.999077
0.999713
0.999915
0.999975
1.00001
1.00007
1.00028
1.00098
1.00328
1.0104
1.03187
1.09531
1.30519
1.92259
7.23989
0.0909268
0.116658
0.195836
0.390679
0.682303
0.855081
0.936836
0.974317
0.990478
0.997158
0.999078
0.999713
0.999916
0.999975
1.00001
1.00007
1.00027
1.00094
1.00313
1.00984
1.02997
1.08888
1.28038
1.8338
6.38271
0.090927
0.116656
0.195831
0.390666
0.682304
0.85509
0.936844
0.974323
0.990482
0.99716
0.999079
0.999713
0.999916
0.999975
1
1.00006
1.00023
1.00082
1.0027
1.00843
1.02546
1.07436
1.22872
1.66071
5.03644
0.090936
0.116662
0.195825
0.390649
0.682318
0.855107
0.936854
0.974328
0.990488
0.997164
0.99908
0.999713
0.999916
0.999975
1.00001
1.00007
1.00028
1.00099
1.00331
1.01052
1.03231
1.09708
1.31335
1.96289
7.67452
0.090936
0.116662
0.195825
0.390649
0.682319
0.855107
0.936854
0.974328
0.990488
0.997163
0.99908
0.999713
0.999916
0.999975
1.00001
1.00007
1.00028
1.00099
1.00331
1.01052
1.03231
1.09708
1.31335
1.96289
7.67451
0.090936
0.116662
0.195826
0.390649
0.682319
0.855106
0.936854
0.974328
0.990488
0.997163
0.99908
0.999713
0.999916
0.999975
1.00001
1.00007
1.00028
1.00099
1.00331
1.01052
1.03231
1.09708
1.31335
1.96288
7.6744
0.090937
0.116662
0.195827
0.390656
0.682318
0.855104
0.936853
0.974328
0.990488
0.997163
0.99908
0.999713
0.999916
0.999975
1.00001
1.00007
1.00028
1.00099
1.00331
1.01052
1.03231
1.09708
1.31334
1.96283
7.67377
0.090936
0.116662
0.195826
0.39065
0.682319
0.855106
0.936854
0.974328
0.990488
0.997163
0.99908
0.999713
0.999916
0.999975
1.00001
1.00007
1.00028
1.00099
1.00331
1.01052
1.03231
1.09707
1.31329
1.96247
7.66962
0.090937
0.116662
0.195827
0.390656
0.682318
0.855104
0.936853
0.974328
0.990488
0.997163
0.99908
0.999713
0.999916
0.999975
1.00001
1.00007
1.00028
1.00099
1.00331
1.01051
1.0323
1.09701
1.31301
1.96082
7.65025
0.090936
0.116662
0.195826
0.390649
0.682319
0.855106
0.936854
0.974328
0.990488
0.997163
0.99908
0.999713
0.999916
0.999975
1.00001
1.00007
1.00028
1.00099
1.0033
1.01049
1.03221
1.09665
1.31135
1.95205
7.5553
0.090936
0.116662
0.195825
0.390649
0.682319
0.855107
0.936854
0.974328
0.990488
0.997163
0.99908
0.999713
0.999916
0.999975
1.00001
1.00007
1.00028
1.00098
1.00328
1.0104
1.03187
1.09531
1.30519
1.92258
7.23982
0.090936
0.116662
0.195825
0.390648
0.682318
0.855107
0.936854
0.974328
0.990488
0.997164
0.99908
0.999713
0.999916
0.999975
1.00001
1.00007
1.00027
1.00094
1.00312
1.00984
1.02997
1.08888
1.28038
1.83379
6.38264
0.090936
0.116662
0.195825
0.390649
0.682318
0.855106
0.936854
0.974328
0.990488
0.997163
0.99908
0.999713
0.999916
0.999975
1
1.00006
1.00023
1.00082
1.0027
1.00843
1.02546
1.07436
1.22872
1.66071
5.0364
0.090936
0.116661
0.195825
0.390648
0.682318
0.855107
0.936854
0.974328
0.990489
0.997164
0.99908
0.999713
0.999916
0.999975
1.00001
1.00007
1.00028
1.00099
1.00331
1.01052
1.03231
1.09708
1.31335
1.96289
7.67452
0.090936
0.116662
0.195825
0.390648
0.682318
0.855107
0.936854
0.974328
0.990489
0.997164
0.99908
0.999713
0.999916
0.999975
1.00001
1.00007
1.00028
1.00099
1.00331
1.01052
1.03231
1.09708
1.31335
1.96289
7.67451
0.090936
0.116662
0.195825
0.390648
0.682318
0.855107
0.936854
0.974328
0.990489
0.997164
0.99908
0.999713
0.999916
0.999975
1.00001
1.00007
1.00028
1.00099
1.00331
1.01052
1.03231
1.09708
1.31335
1.96288
7.67441
0.090936
0.116662
0.195825
0.390648
0.682318
0.855107
0.936854
0.974328
0.990489
0.997164
0.99908
0.999713
0.999916
0.999975
1.00001
1.00007
1.00028
1.00099
1.00331
1.01052
1.03231
1.09708
1.31335
1.96283
7.67379
0.090936
0.116662
0.195825
0.390648
0.682318
0.855107
0.936854
0.974328
0.990489
0.997164
0.99908
0.999713
0.999916
0.999975
1.00001
1.00007
1.00028
1.00099
1.00331
1.01052
1.03231
1.09707
1.31329
1.96249
7.6697
0.090936
0.116662
0.195825
0.390648
0.682318
0.855107
0.936854
0.974328
0.990489
0.997164
0.99908
0.999713
0.999916
0.999975
1.00001
1.00007
1.00028
1.00099
1.00331
1.01051
1.0323
1.09701
1.31302
1.96083
7.6503
0.090936
0.116662
0.195825
0.390648
0.682318
0.855107
0.936854
0.974328
0.990489
0.997164
0.99908
0.999713
0.999916
0.999975
1.00001
1.00007
1.00028
1.00099
1.00331
1.01049
1.03221
1.09666
1.31136
1.95208
7.55533
0.090936
0.116662
0.195825
0.390648
0.682318
0.855107
0.936854
0.974328
0.990489
0.997164
0.99908
0.999713
0.999916
0.999975
1.00001
1.00007
1.00028
1.00098
1.00328
1.0104
1.03187
1.09531
1.30519
1.92259
7.23989
0.090936
0.116662
0.195825
0.390648
0.682318
0.855107
0.936854
0.974328
0.990489
0.997164
0.99908
0.999713
0.999916
0.999975
1.00001
1.00007
1.00027
1.00094
1.00312
1.00984
1.02997
1.08888
1.28038
1.8338
6.3827
0.090936
0.116662
0.195825
0.390648
0.682318
0.855107
0.936854
0.974328
0.990489
0.997164
0.99908
0.999713
0.999916
0.999975
1
1.00006
1.00023
1.00082
1.0027
1.00843
1.02546
1.07436
1.22872
1.66071
5.03643
0.090936
0.116662
0.195825
0.390649
0.682318
0.855106
0.936854
0.974328
0.990488
0.997163
0.99908
0.999713
0.999916
0.999975
1.00001
1.00007
1.00028
1.00099
1.00331
1.01052
1.03231
1.09708
1.31335
1.96289
7.67452
0.0909359
0.116662
0.195826
0.390651
0.682318
0.855105
0.936852
0.974327
0.990487
0.997163
0.99908
0.999713
0.999916
0.999975
1.00001
1.00007
1.00028
1.00099
1.00331
1.01052
1.03231
1.09708
1.31335
1.96289
7.67451
0.0909354
0.116662
0.195827
0.390655
0.682318
0.855103
0.93685
0.974326
0.990487
0.997163
0.99908
0.999713
0.999916
0.999975
1.00001
1.00007
1.00028
1.00099
1.00331
1.01052
1.03231
1.09708
1.31335
1.96288
7.67441
0.090927
0.116665
0.195845
0.390702
0.682326
0.855097
0.936842
0.974319
0.990483
0.99716
0.999079
0.999713
0.999916
0.999975
1.00001
1.00007
1.00028
1.00099
1.00331
1.01052
1.03231
1.09708
1.31335
1.96283
7.67379
0.0909249
0.116664
0.195842
0.390685
0.68232
0.855104
0.936852
0.974326
0.990487
0.997163
0.99908
0.999713
0.999916
0.999975
1.00001
1.00007
1.00028
1.00099
1.00331
1.01052
1.03231
1.09707
1.31329
1.96249
7.6697
0.0914712
0.117129
0.196141
0.390417
0.682325
0.855161
0.936893
0.974349
0.990489
0.997164
0.999081
0.999714
0.999916
0.999975
1.00001
1.00007
1.00028
1.00099
1.00331
1.01051
1.0323
1.09701
1.31302
1.96083
7.6503
0.0909249
0.116664
0.195842
0.390685
0.68232
0.855103
0.936851
0.974326
0.990486
0.997163
0.99908
0.999713
0.999916
0.999975
1.00001
1.00007
1.00028
1.00099
1.00331
1.01049
1.03221
1.09666
1.31136
1.95208
7.55533
0.090927
0.116665
0.195846
0.390705
0.682326
0.855095
0.93684
0.974317
0.990481
0.997159
0.999078
0.999713
0.999916
0.999975
1.00001
1.00007
1.00028
1.00098
1.00328
1.0104
1.03187
1.09531
1.30519
1.92259
7.23989
0.0909348
0.116662
0.195829
0.390661
0.682318
0.855101
0.936848
0.974324
0.990486
0.997162
0.99908
0.999713
0.999916
0.999975
1.00001
1.00007
1.00027
1.00094
1.00312
1.00984
1.02997
1.08888
1.28038
1.8338
6.3827
0.090927
0.116665
0.195846
0.390705
0.682326
0.855095
0.93684
0.974317
0.990481
0.997159
0.999078
0.999713
0.999915
0.999975
1
1.00006
1.00023
1.00082
1.0027
1.00843
1.02546
1.07436
1.22872
1.66071
5.03643
0.0909264
0.116665
0.195848
0.390713
0.682327
0.855091
0.936836
0.974314
0.990479
0.997158
0.999078
0.999713
0.999915
0.999975
1.00001
1.00007
1.00028
1.00099
1.00331
1.01052
1.03231
1.09708
1.31335
1.96289
7.67452
0.0909241
0.116664
0.195845
0.390694
0.68232
0.855099
0.936846
0.974322
0.990484
0.997161
0.999079
0.999713
0.999916
0.999975
1.00001
1.00007
1.00028
1.00099
1.00331
1.01052
1.03231
1.09708
1.31335
1.96289
7.67451
0.0914624
0.117138
0.196171
0.390486
0.682333
0.855149
0.93688
0.974339
0.990482
0.997161
0.99908
0.999713
0.999916
0.999975
1.00001
1.00007
1.00028
1.00099
1.00331
1.01052
1.03231
1.09708
1.31335
1.96288
7.67441
0.090935
0.116673
0.195849
0.390686
0.68232
0.855103
0.936851
0.974326
0.990486
0.997162
0.99908
0.999713
0.999916
0.999975
1.00001
1.00007
1.00028
1.00099
1.00331
1.01052
1.03231
1.09708
1.31335
1.96283
7.67378
0.0914624
0.117138
0.196171
0.390486
0.682333
0.855149
0.93688
0.974339
0.990482
0.997161
0.99908
0.999713
0.999916
0.999975
1.00001
1.00007
1.00028
1.00099
1.00331
1.01052
1.03231
1.09707
1.31329
1.96249
7.6697
0.0909242
0.116664
0.195844
0.390692
0.68232
0.8551
0.936849
0.974324
0.990485
0.997162
0.99908
0.999713
0.999916
0.999975
1.00001
1.00007
1.00028
1.00099
1.00331
1.01051
1.0323
1.09701
1.31302
1.96083
7.6503
0.0909268
0.116665
0.195846
0.390706
0.682327
0.855095
0.93684
0.974317
0.990481
0.997159
0.999078
0.999713
0.999916
0.999975
1.00001
1.00007
1.00028
1.00099
1.00331
1.01049
1.03221
1.09666
1.31136
1.95208
7.55533
0.0909354
0.116662
0.195827
0.390656
0.682318
0.855103
0.93685
0.974325
0.990487
0.997163
0.99908
0.999713
0.999916
0.999975
1.00001
1.00007
1.00028
1.00098
1.00328
1.0104
1.03187
1.09531
1.30519
1.92259
7.23988
0.0909359
0.116662
0.195826
0.390651
0.682319
0.855105
0.936852
0.974326
0.990487
0.997163
0.99908
0.999713
0.999916
0.999975
1.00001
1.00007
1.00027
1.00094
1.00312
1.00984
1.02997
1.08888
1.28038
1.8338
6.38269
0.090936
0.116662
0.195826
0.390649
0.682318
0.855106
0.936853
0.974328
0.990488
0.997163
0.99908
0.999713
0.999916
0.999975
1
1.00006
1.00023
1.00082
1.0027
1.00843
1.02546
1.07436
1.22872
1.66071
5.03643
0.0909352
0.116664
0.195837
0.390691
0.682311
0.85507
0.936816
0.974298
0.990465
0.997145
0.999066
0.999702
0.999905
0.999964
0.999995
1.00006
1.00027
1.00098
1.0033
1.01051
1.0323
1.09708
1.31337
1.9629
7.67382
0.090917
0.116662
0.195858
0.390743
0.682308
0.85506
0.936807
0.974293
0.990457
0.997142
0.999065
0.999702
0.999905
0.999964
0.999995
1.00006
1.00027
1.00098
1.0033
1.01051
1.0323
1.09707
1.31332
1.9628
7.67383
0.0909242
0.116666
0.195851
0.390723
0.682308
0.855069
0.93682
0.974302
0.990466
0.997147
0.999067
0.999702
0.999905
0.999964
0.999995
1.00006
1.00027
1.00098
1.0033
1.01051
1.0323
1.09708
1.31337
1.96288
7.67361
0.0914572
0.117125
0.196165
0.390465
0.682291
0.855114
0.936858
0.974326
0.990461
0.997146
0.999068
0.999703
0.999905
0.999964
0.999995
1.00006
1.00027
1.00098
1.0033
1.01051
1.0323
1.09708
1.31336
1.96283
7.673
0.0909186
0.116671
0.195871
0.390769
0.682316
0.855063
0.936809
0.974294
0.99046
0.997145
0.999066
0.999702
0.999905
0.999964
0.999995
1.00006
1.00027
1.00098
1.0033
1.01051
1.0323
1.09707
1.31331
1.96249
7.66892
0.0908997
0.116672
0.195903
0.39085
0.682315
0.855038
0.936785
0.974278
0.990445
0.997137
0.999063
0.999701
0.999905
0.999964
0.999995
1.00006
1.00027
1.00098
1.0033
1.01051
1.03229
1.09702
1.31303
1.96083
7.64948
0.0914689
0.117139
0.196168
0.390477
0.682322
0.855132
0.936862
0.974322
0.990467
0.997148
0.999068
0.999702
0.999905
0.999964
0.999995
1.00006
1.00027
1.00098
1.00329
1.01048
1.0322
1.09665
1.31133
1.952
7.55473
0.091462
0.117151
0.196206
0.390572
0.682337
0.855103
0.936823
0.974292
0.990445
0.997136
0.999063
0.9997
0.999904
0.999964
0.999995
1.00006
1.00027
1.00097
1.00327
1.01039
1.03186
1.09533
1.30518
1.92254
7.23943
0.0909177
0.116679
0.195891
0.390809
0.682315
0.855046
0.936792
0.974281
0.99045
0.99714
0.999065
0.999701
0.999905
0.999964
0.999995
1.00006
1.00026
1.00093
1.00312
1.00983
1.02997
1.0889
1.28039
1.83371
6.38214
0.0914434
0.117146
0.196234
0.390643
0.682295
0.855065
0.936814
0.974297
0.99044
0.997135
0.999064
0.999701
0.999905
0.999964
0.999992
1.00005
1.00022
1.00081
1.00269
1.00842
1.02545
1.07435
1.22871
1.66068
5.03616
0.0909198
0.116677
0.19588
0.390772
0.682327
0.855078
0.93682
0.974299
0.990462
0.997145
0.999066
0.999702
0.999904
0.999966
0.999983
1
1.00005
1.00021
1.00079
1.00275
1.00904
1.02832
1.0866
1.2602
1.85202
0.0914633
0.11714
0.196179
0.390516
0.682329
0.855129
0.936859
0.974321
0.990466
0.997146
0.999067
0.999702
0.999904
0.999966
0.999983
0.99999
1
1.00004
1.00019
1.00068
1.00229
1.00724
1.02199
1.06387
1.17982
0.0909186
0.116671
0.19587
0.390761
0.682329
0.855077
0.936816
0.974295
0.990461
0.997143
0.999066
0.999702
0.999904
0.999965
0.999983
0.999988
0.999991
0.999997
1.00002
1.0001
1.00036
1.0012
1.00374
1.01098
1.03045
0.090907
0.116674
0.19589
0.390812
0.682337
0.855069
0.936806
0.974288
0.990455
0.997141
0.999065
0.999701
0.999904
0.999965
0.999983
0.999988
0.999989
0.999991
0.999994
1.00001
1.00005
1.00017
1.00054
1.00153
1.00406
0.0914621
0.117143
0.196188
0.390536
0.682333
0.855126
0.936854
0.974318
0.990461
0.997145
0.999067
0.999702
0.999904
0.999966
0.999983
0.999988
0.999989
0.999989
0.99999
0.999991
0.999996
1.00001
1.00005
1.00017
1.00046
0.0914616
0.117156
0.196213
0.390568
0.682334
0.855126
0.936855
0.974318
0.990461
0.997145
0.999067
0.999702
0.999905
0.999966
0.999983
0.999988
0.999989
0.999989
0.99999
0.99999
0.99999
0.999992
0.999997
1.00001
1.00004
0.091457
0.117162
0.196232
0.390616
0.682342
0.85512
0.936846
0.974311
0.990456
0.997142
0.999066
0.999702
0.999904
0.999965
0.999983
0.999988
0.999989
0.999989
0.999989
0.99999
0.99999
0.99999
0.99999
0.999991
0.999995
0.0914549
0.117161
0.19623
0.390604
0.682344
0.855123
0.936846
0.974309
0.990457
0.997142
0.999066
0.999702
0.999904
0.999965
0.999983
0.999988
0.999989
0.999989
0.999989
0.99999
0.99999
0.99999
0.99999
0.99999
0.99999
0.0914611
0.117156
0.196214
0.390573
0.682336
0.855124
0.936853
0.974315
0.99046
0.997143
0.999066
0.999702
0.999904
0.999965
0.999983
0.999988
0.999989
0.999989
0.999989
0.99999
0.99999
0.99999
0.99999
0.99999
0.99999
0.0914533
0.117149
0.196209
0.390579
0.682343
0.855121
0.936844
0.974308
0.990457
0.997142
0.999066
0.999702
0.999904
0.999965
0.999983
0.999988
0.999989
0.999989
0.999989
0.99999
0.99999
0.99999
0.99999
0.99999
0.99999
0.0909039
0.116681
0.195908
0.390847
0.682334
0.855062
0.936802
0.974286
0.990453
0.997141
0.999065
0.999701
0.999904
0.999965
0.999983
0.999988
0.999989
0.999989
0.999989
0.99999
0.99999
0.99999
0.99999
0.99999
0.99999
0.0914642
0.117147
0.196193
0.390539
0.682332
0.855125
0.936854
0.974317
0.990462
0.997145
0.999067
0.999702
0.999904
0.999966
0.999983
0.999988
0.999989
0.999989
0.999989
0.99999
0.99999
0.99999
0.99999
0.99999
0.99999
0.0914622
0.117146
0.196191
0.390528
0.682337
0.855131
0.936856
0.974316
0.990462
0.997145
0.999067
0.999702
0.999904
0.999965
0.999983
0.999988
0.999989
0.999989
0.999989
0.99999
0.99999
0.99999
0.99999
0.99999
0.99999
0.090904
0.116681
0.195908
0.390847
0.682333
0.855062
0.936803
0.974287
0.990454
0.997141
0.999065
0.999701
0.999904
0.999965
0.999983
0.999988
0.999989
0.999989
0.999989
0.99999
0.99999
0.99999
0.99999
0.99999
0.99999
0.0914555
0.11715
0.19621
0.390586
0.682337
0.855119
0.936847
0.974313
0.990458
0.997144
0.999067
0.999702
0.999904
0.999965
0.999983
0.999988
0.999989
0.999989
0.999989
0.99999
0.99999
0.99999
0.99999
0.99999
0.99999
0.0914597
0.117154
0.196209
0.390552
0.682336
0.855132
0.936858
0.974318
0.990463
0.997146
0.999067
0.999702
0.999904
0.999965
0.999983
0.999988
0.999989
0.999989
0.999989
0.99999
0.99999
0.99999
0.99999
0.99999
0.99999
0.0914597
0.117154
0.196208
0.390552
0.682337
0.855133
0.936858
0.974318
0.990463
0.997146
0.999067
0.999702
0.999904
0.999965
0.999983
0.999988
0.999989
0.999989
0.999989
0.99999
0.99999
0.99999
0.99999
0.99999
0.99999
0.0914532
0.117148
0.196208
0.390575
0.68234
0.855122
0.936847
0.97431
0.990459
0.997143
0.999066
0.999702
0.999904
0.999965
0.999983
0.999988
0.999989
0.999989
0.999989
0.99999
0.99999
0.99999
0.99999
0.99999
0.99999
0.0909033
0.116681
0.195909
0.390851
0.682333
0.855061
0.936801
0.974286
0.990453
0.99714
0.999065
0.999701
0.999904
0.999965
0.999983
0.999988
0.999989
0.999989
0.999989
0.99999
0.99999
0.99999
0.99999
0.99999
0.99999
0.091453
0.117149
0.196209
0.390579
0.682341
0.85512
0.936843
0.974309
0.990456
0.997142
0.999066
0.999702
0.999904
0.999965
0.999983
0.999988
0.999989
0.999989
0.999989
0.99999
0.99999
0.99999
0.99999
0.99999
0.99999
0.0914613
0.117156
0.196213
0.39057
0.682335
0.855126
0.936855
0.974318
0.99046
0.997145
0.999067
0.999702
0.999905
0.999966
0.999983
0.999988
0.999989
0.999989
0.999989
0.99999
0.99999
0.99999
0.99999
0.99999
0.99999
0.0914552
0.11716
0.196228
0.390598
0.682341
0.855123
0.936848
0.97431
0.990458
0.997142
0.999066
0.999702
0.999904
0.999965
0.999983
0.999988
0.999989
0.999989
0.999989
0.99999
0.99999
0.99999
0.99999
0.99999
0.99999
0.0914613
0.117156
0.196213
0.39057
0.682334
0.855126
0.936855
0.974318
0.990461
0.997145
0.999067
0.999702
0.999905
0.999966
0.999983
0.999988
0.999989
0.999989
0.999989
0.99999
0.99999
0.99999
0.99999
0.99999
0.99999
0.0914532
0.117149
0.196209
0.39058
0.682342
0.85512
0.936843
0.974307
0.990456
0.997141
0.999065
0.999702
0.999904
0.999965
0.999983
0.999988
0.999989
0.999989
0.999989
0.99999
0.99999
0.99999
0.99999
0.99999
0.99999
0.0909023
0.11668
0.195908
0.390847
0.682335
0.855062
0.9368
0.974284
0.990452
0.99714
0.999064
0.999701
0.999904
0.999965
0.999983
0.999988
0.999989
0.999989
0.999989
0.99999
0.99999
0.99999
0.99999
0.99999
0.99999
0.0914553
0.11715
0.196212
0.390591
0.682339
0.855116
0.936842
0.974308
0.990455
0.997141
0.999066
0.999702
0.999904
0.999965
0.999983
0.999988
0.999989
0.999989
0.999989
0.99999
0.99999
0.99999
0.99999
0.99999
0.99999
0.0914591
0.117154
0.19621
0.390559
0.682339
0.85513
0.936855
0.974316
0.990461
0.997144
0.999067
0.999702
0.999904
0.999966
0.999983
0.999988
0.999989
0.999989
0.999989
0.99999
0.99999
0.99999
0.99999
0.99999
0.99999
0.0914574
0.117162
0.196232
0.390613
0.68234
0.855118
0.936845
0.97431
0.990455
0.997142
0.999066
0.999702
0.999904
0.999965
0.999983
0.999988
0.999989
0.999989
0.999989
0.99999
0.99999
0.99999
0.99999
0.99999
0.99999
0.0914613
0.117156
0.196213
0.39057
0.682333
0.855125
0.936855
0.974318
0.990461
0.997145
0.999067
0.999702
0.999905
0.999966
0.999983
0.999988
0.999989
0.999989
0.999989
0.99999
0.99999
0.99999
0.99999
0.99999
0.99999
0.0914533
0.117148
0.196208
0.390577
0.682342
0.855122
0.936846
0.974309
0.990458
0.997142
0.999066
0.999702
0.999904
0.999965
0.999983
0.999988
0.999989
0.999989
0.999989
0.99999
0.99999
0.99999
0.99999
0.99999
0.99999
0.0909029
0.11668
0.195905
0.390838
0.682334
0.855066
0.936805
0.974288
0.990455
0.997141
0.999065
0.999701
0.999904
0.999965
0.999983
0.999988
0.999989
0.999989
0.999989
0.99999
0.99999
0.99999
0.99999
0.99999
0.99999
0.0914621
0.117145
0.196189
0.390522
0.682333
0.855132
0.936859
0.974319
0.990464
0.997146
0.999067
0.999702
0.999904
0.999965
0.999983
0.999988
0.999989
0.999989
0.999989
0.99999
0.99999
0.99999
0.99999
0.99999
0.99999
0.091462
0.117145
0.196188
0.390519
0.682334
0.855135
0.936861
0.974321
0.990465
0.997147
0.999068
0.999702
0.999905
0.999965
0.999983
0.999988
0.999989
0.999989
0.999989
0.99999
0.99999
0.99999
0.99999
0.99999
0.99999
0.0909036
0.116679
0.195904
0.390831
0.682333
0.855069
0.936808
0.97429
0.990456
0.997142
0.999065
0.999701
0.999904
0.999965
0.999983
0.999988
0.999989
0.999989
0.999989
0.99999
0.99999
0.99999
0.99999
0.99999
0.99999
0.0914623
0.117145
0.196188
0.39052
0.682334
0.855135
0.936861
0.974321
0.990465
0.997147
0.999068
0.999702
0.999905
0.999965
0.999983
0.999988
0.999989
0.999989
0.999989
0.99999
0.99999
0.99999
0.99999
0.99999
0.99999
0.0914646
0.117147
0.196192
0.390534
0.682331
0.855127
0.936857
0.97432
0.990464
0.997146
0.999068
0.999702
0.999905
0.999965
0.999983
0.999988
0.999989
0.999989
0.999989
0.99999
0.99999
0.99999
0.99999
0.99999
0.99999
0.0909182
0.116679
0.195887
0.390793
0.682324