/*--------------------------------*- C++ -*----------------------------------*\
| =========                 |                                                 |
| \\      /  F ield         | OpenFOAM: The Open Source CFD Toolbox           |
|  \\    /   O peration     | Version:  4.1                                   |
|   \\  /    A nd           | Web:      www.OpenFOAM.org                      |
|    \\/     M anipulation  |                                                 |
\*---------------------------------------------------------------------------*/
FoamFile
{
    version     2.0;
    format      ascii;
    class       surfaceScalarField;
    location    "0.04";
    object      phi;
}
// * * * * * * * * * * * * * * * * * * * * * * * * * * * * * * * * * * * * * //

dimensions      [1 0 -1 0 0 0 0];

internalField   nonuniform List<scalar> 
150500
(
0.00211407
-1.74468e-08
4.25581e-11
0.00261376
-4.10831e-08
-8.52153e-12
0.00387244
-4.95462e-08
-6.78246e-11
0.00709512
-1.89426e-08
-1.75851e-10
0.00876115
2.16927e-08
-5.26499e-11
0.00974665
4.28387e-08
-2.16634e-11
0.0104034
4.00147e-08
-1.68351e-11
0.0108029
2.83009e-08
-2.30355e-11
0.0110192
1.65824e-08
-3.10802e-11
0.0111246
8.67224e-09
-3.8414e-11
0.0111708
3.85386e-09
-4.1354e-11
0.0111894
1.55798e-09
-4.20389e-11
0.0111964
5.91915e-10
-4.26268e-11
0.0111989
2.0614e-10
-4.29342e-11
0.0111996
4.58741e-11
-4.29739e-11
0.0111993
-5.98807e-11
-4.29884e-11
0.0111972
-2.25382e-10
-4.29358e-11
0.0111909
-5.90722e-10
-4.2867e-11
0.0111731
-1.51019e-09
-4.27249e-11
0.0111262
-3.26215e-09
-4.34662e-11
0.0110028
-7.75563e-09
-4.49498e-11
0.0107291
-1.62019e-08
-5.62842e-11
0.00976866
-6.011e-08
-9.66396e-11
0.00890317
8.56922e-09
-2.88992e-10
7.21756e-07
-2.02102e-09
0.00211405
-1.91843e-08
4.63899e-11
0.00261369
-5.75057e-08
-1.07777e-11
0.00387246
-9.43574e-08
-6.58792e-11
0.00709521
-6.19571e-08
-1.22918e-10
0.00876121
2.45421e-08
-2.87116e-11
0.00974665
7.55464e-08
-4.63989e-11
0.0104034
7.32985e-08
-5.53121e-11
0.0108029
5.47052e-08
-5.33566e-11
0.0110192
3.84609e-08
-4.71043e-11
0.0111246
1.95322e-08
-4.99866e-11
0.0111708
8.66044e-09
-4.66787e-11
0.0111894
3.63645e-09
-4.24502e-11
0.0111964
1.44719e-09
-4.34222e-11
0.0111989
5.43252e-10
-4.39148e-11
0.0111996
1.41303e-10
-4.37158e-11
0.0111993
-1.41897e-10
-4.32733e-11
0.0111972
-6.03525e-10
-4.24872e-11
0.0111909
-1.40556e-09
-4.16057e-11
0.0111731
-3.90037e-09
-4.11654e-11
0.0111262
-7.45158e-09
-4.15811e-11
0.0110029
-2.0256e-08
-4.53444e-11
0.0107292
-4.47556e-08
-5.52037e-11
0.00976877
-1.87623e-07
-1.10405e-10
0.00890329
-3.50151e-08
-3.29679e-10
1.41196e-06
-2.41103e-09
0.00211399
-1.42912e-08
-2.30144e-09
0.00261322
-3.59024e-08
-2.00196e-09
0.00387213
-6.559e-08
-1.37599e-09
0.00709507
-1.14131e-07
7.7305e-10
0.00876155
-3.52944e-08
-1.2555e-10
0.00974705
3.03668e-08
-2.9064e-10
0.0104036
5.45399e-08
-2.07427e-10
0.0108029
4.45586e-08
-1.24416e-10
0.0110192
3.10382e-08
-5.67376e-11
0.0111246
1.63812e-08
-5.4853e-11
0.0111707
7.55914e-09
-4.94678e-11
0.0111894
3.19815e-09
-4.3046e-11
0.0111964
1.28643e-09
-4.36154e-11
0.0111989
4.95634e-10
-4.40576e-11
0.0111996
1.81904e-10
-4.36764e-11
0.0111993
-3.55217e-12
-4.28964e-11
0.0111972
-1.81533e-10
-4.14408e-11
0.0111909
-5.13162e-10
-3.97975e-11
0.0111731
-1.37456e-09
-3.68054e-11
0.0111262
-2.7805e-09
-3.32443e-11
0.0110029
-7.13436e-09
-3.30187e-11
0.0107291
-1.35825e-08
-6.58975e-13
0.00976914
-5.09794e-08
6.66279e-11
0.00889822
7.38175e-08
3.98239e-11
1.88141e-06
-3.20295e-09
0.00211423
-3.79e-07
-3.42068e-11
0.00261435
-4.77427e-07
-2.7772e-11
0.00387318
-4.58703e-07
9.17727e-12
0.00709538
-2.90422e-07
1.78169e-10
0.00876117
-8.95271e-08
-9.00372e-12
0.00974658
-4.8508e-11
-1.33674e-10
0.0104033
3.92855e-08
-1.43689e-10
0.0108028
4.34419e-08
-1.10452e-10
0.0110192
3.67738e-08
-9.19295e-11
0.0111246
2.06155e-08
-6.79602e-11
0.0111707
9.79397e-09
-5.31313e-11
0.0111894
4.46484e-09
-4.48058e-11
0.0111964
1.90644e-09
-4.43919e-11
0.0111989
6.72066e-10
-4.43594e-11
0.0111996
2.11903e-10
-4.38505e-11
0.0111993
8.25456e-11
-4.29011e-11
0.0111972
8.33647e-11
-4.12604e-11
0.0111909
1.18106e-10
-3.94611e-11
0.0111731
2.15409e-10
-3.62687e-11
0.0111262
5.87415e-10
-3.21205e-11
0.0110029
2.49263e-09
-3.20183e-11
0.0107291
1.29145e-08
2.68178e-12
0.00976929
7.12149e-08
6.3215e-11
0.00889843
4.39105e-07
1.2416e-11
7.82577e-06
-3.71782e-09
0.00211438
-1.38261e-06
-2.39645e-09
0.00261458
-1.41051e-06
-1.97677e-09
0.00387367
-1.03762e-06
-1.22015e-09
0.00709553
-2.00053e-07
1.12561e-09
0.00876172
-1.85569e-07
-7.95887e-11
0.00974707
-8.82434e-08
-3.32802e-10
0.0104035
-1.35673e-08
-2.60885e-10
0.0108029
1.395e-08
-1.63992e-10
0.0110192
2.36734e-08
-9.44492e-11
0.0111245
1.59304e-08
-6.96419e-11
0.0111707
8.644e-09
-5.48321e-11
0.0111894
4.82502e-09
-4.56035e-11
0.0111964
1.83663e-09
-4.45659e-11
0.0111989
5.74564e-10
-4.43642e-11
0.0111996
1.55552e-10
-4.38514e-11
0.0111993
1.34438e-10
-4.29254e-11
0.0111972
4.35722e-10
-4.13487e-11
0.0111909
1.0609e-09
-3.96039e-11
0.0111731
2.87959e-09
-3.65852e-11
0.0111262
8.02736e-09
-3.25844e-11
0.0110029
2.87243e-08
-3.30517e-11
0.0107292
1.09473e-07
7.70816e-13
0.00976962
5.41734e-07
5.91414e-11
0.00889937
2.56112e-06
2.71647e-12
4.45587e-05
-3.76753e-09
0.00211162
5.65891e-09
2.3478e-09
0.00261019
2.39362e-09
1.98223e-09
0.00387068
-1.28002e-08
1.33177e-09
0.00709659
-6.98721e-08
-8.33603e-10
0.00876422
-3.96419e-08
6.83047e-12
0.00974895
-1.15365e-08
1.3239e-10
0.0104045
3.41412e-09
7.01898e-11
0.0108033
9.10567e-09
1.00154e-11
0.0110193
9.87698e-09
-6.86233e-11
0.0111246
6.11742e-09
-5.5818e-11
0.0111707
2.95346e-09
-4.52732e-11
0.0111894
7.66715e-10
-4.37956e-11
0.0111964
4.49989e-10
-4.33564e-11
0.0111989
3.61338e-10
-4.32297e-11
0.0111996
3.23104e-10
-4.29709e-11
0.0111993
3.86512e-10
-4.24696e-11
0.0111972
8.66807e-10
-4.15309e-11
0.0111909
2.70566e-09
-4.04431e-11
0.0111731
9.98638e-09
-3.73241e-11
0.0111263
3.44948e-08
-3.24755e-11
0.011003
1.32983e-07
-2.98407e-11
0.0107295
5.49314e-07
5.99359e-12
0.00977137
2.62169e-06
7.30913e-11
0.0089041
1.24258e-05
9.00801e-12
0.000211912
-3.94609e-09
0.00211185
8.72137e-07
2.30716e-09
0.00261094
8.57437e-07
2.01241e-09
0.00387153
6.11741e-07
1.43264e-09
0.0070969
1.17549e-08
-6.53997e-10
0.00876429
6.31847e-08
2.85692e-11
0.0097489
4.60161e-08
1.18713e-10
0.0104045
1.7207e-08
4.92741e-11
0.0108033
9.66061e-10
-4.6525e-12
0.0110193
-9.03943e-09
-8.73212e-11
0.0111246
-4.4191e-09
-6.06932e-11
0.0111707
-2.18733e-09
-4.63977e-11
0.0111894
-1.29516e-09
-4.40428e-11
0.0111964
-6.039e-10
-4.34754e-11
0.0111989
-1.71487e-10
-4.3268e-11
0.0111996
9.41141e-11
-4.32218e-11
0.0111993
4.90018e-10
-4.31475e-11
0.0111972
2.32501e-09
-4.30483e-11
0.0111909
1.07621e-08
-4.28083e-11
0.0111731
4.4593e-08
-4.30941e-11
0.0111264
1.8293e-07
-4.08458e-11
0.0110035
6.95326e-07
-4.89409e-11
0.0107316
2.73978e-06
-4.5854e-11
0.0097804
1.22297e-05
-1.3125e-10
0.00893512
5.20966e-05
-3.36024e-10
0.000877833
-2.88257e-09
0.00211476
-8.77284e-07
-1.30664e-10
0.00261616
-8.67102e-07
7.84446e-11
0.00387523
-6.11247e-07
3.22615e-10
0.00709598
-5.56895e-09
7.42117e-10
0.00876146
-6.54369e-08
6.37811e-11
0.00974668
-6.1977e-08
-1.55203e-10
0.0104033
-3.39193e-08
-1.84091e-10
0.0108027
-1.1532e-08
-1.49559e-10
0.0110191
5.03817e-10
-1.31446e-10
0.0111245
1.83377e-09
-8.72107e-11
0.0111707
1.00498e-09
-6.03819e-11
0.0111894
5.76814e-10
-4.78021e-11
0.0111964
2.94274e-10
-4.55029e-11
0.0111989
5.09632e-11
-4.47531e-11
0.0111996
6.41217e-10
-4.41351e-11
0.0111993
3.25182e-09
-4.30859e-11
0.0111972
1.40307e-08
-4.13869e-11
0.0111909
5.81947e-08
-3.96044e-11
0.0111733
2.25538e-07
-3.62856e-11
0.011127
8.52354e-07
-3.21735e-11
0.0110055
3.06874e-06
-3.13484e-11
0.0107384
1.12278e-05
8.38256e-11
0.00981217
4.65857e-05
-3.27535e-11
0.00903058
0.000173373
-1.92801e-10
0.00287577
-2.1438e-09
0.00211184
4.81742e-09
2.26791e-09
0.00261088
1.10606e-08
2.02078e-09
0.00387145
3.39462e-08
1.50017e-09
0.00709687
4.86943e-08
-4.6915e-10
0.00876432
1.32845e-08
6.55038e-11
0.00974895
-1.84438e-08
1.07225e-10
0.0104045
-2.54282e-08
2.83736e-11
0.0108033
-2.10532e-08
-2.374e-11
0.0110193
-1.88495e-08
-1.00014e-10
0.0111246
-8.74021e-09
-7.03062e-11
0.0111707
-3.96159e-09
-5.05486e-11
0.0111894
-1.67486e-09
-4.3683e-11
0.0111964
-6.30033e-10
-4.39847e-11
0.0111989
-4.75662e-10
-4.41103e-11
0.0111996
3.0308e-09
-4.36822e-11
0.0111993
1.57427e-08
-4.28478e-11
0.0111973
6.49662e-08
-4.13892e-11
0.0111913
2.56043e-07
-3.9957e-11
0.0111744
9.48992e-07
-3.71345e-11
0.0111304
3.35832e-06
-3.26501e-11
0.0110152
1.14057e-05
-1.42943e-11
0.0107631
3.83111e-05
9.22619e-11
0.00989873
0.000144128
4.37077e-11
0.00906339
0.000470269
-4.10487e-10
0.00675737
-2.54263e-09
0.0021118
2.25909e-09
8.83568e-07
0.00261075
2.014e-09
9.00931e-07
0.0038715
1.48544e-09
6.74218e-07
0.00709711
-5.26322e-10
7.86397e-08
0.00876446
8.21434e-11
8.56806e-08
0.00974894
1.27876e-10
2.90601e-08
0.0104044
3.10874e-11
-5.79628e-09
0.0108032
-3.2389e-11
-1.54772e-08
0.0110193
-9.71384e-11
-2.18649e-08
0.0111246
-7.29275e-11
-1.30608e-08
0.0111707
-5.31007e-11
-6.28934e-09
0.0111894
-4.48723e-11
-2.85625e-09
0.0111964
-4.44417e-11
-1.05116e-09
0.0111989
-4.41182e-11
-1.33764e-09
0.0111996
-4.38418e-11
9.98255e-09
0.0111994
-4.3378e-11
5.2604e-08
0.0111976
-4.26234e-11
2.0756e-07
0.0111922
-4.20315e-11
7.77689e-07
0.0111772
-4.13001e-11
2.75015e-06
0.0111386
-4.08929e-11
9.17959e-06
0.0110364
-3.66087e-11
2.9648e-05
0.0108207
-3.00727e-11
9.32963e-05
0.0100575
-1.37818e-11
0.000323365
0.00923465
-1.8004e-10
0.0010458
-1.25407e-09
0.0116649
0.00211421
-3.81959e-07
-4.69074e-11
0.00261428
-4.60991e-07
1.9971e-11
0.00387313
-3.94265e-07
1.10421e-10
0.00709545
-2.05205e-07
3.04153e-10
0.00876127
-6.11787e-08
3.52022e-11
0.00974663
-1.15561e-08
-8.13395e-11
0.0104033
8.34195e-09
-9.4653e-11
0.0108028
1.40453e-08
-7.10323e-11
0.0110192
1.31011e-08
-4.34096e-11
0.0111246
6.80927e-09
-1.94969e-11
0.0111708
3.16548e-09
-9.08154e-12
0.0111894
2.15819e-09
-1.62566e-12
0.0111964
7.00276e-10
-1.26247e-12
0.0111989
7.16423e-11
-1.25249e-12
0.0111996
-1.21507e-10
-9.94933e-13
0.0111993
-2.40679e-11
-5.29349e-13
0.0111972
1.83837e-10
1.86282e-13
0.0111909
2.97499e-10
8.40084e-13
0.0111731
2.76433e-10
1.10486e-12
0.0111262
1.05363e-10
6.29893e-13
0.0110028
-4.6081e-11
-1.2843e-13
0.0107291
-1.24228e-10
-7.21644e-13
0.00976851
1.25479e-10
-6.95257e-13
0.00890291
1.39218e-09
-5.17763e-13
2.52373e-08
-4.71226e-12
0.00211424
-8.90793e-07
-5.77389e-11
0.00261434
-9.17979e-07
1.45744e-11
0.00387318
-7.04955e-07
9.21413e-11
0.00709538
-9.66896e-08
2.03726e-10
0.00876135
-9.06485e-08
3.72537e-12
0.00974674
-2.65397e-08
-3.21849e-11
0.0104034
5.3332e-09
-1.94965e-11
0.0108029
1.84142e-08
-1.52569e-11
0.0110192
2.65313e-08
-1.25931e-11
0.0111246
1.27156e-08
-6.74517e-12
0.0111708
5.86043e-09
-2.38415e-12
0.0111894
2.72719e-09
-5.68926e-13
0.0111964
1.20283e-09
-2.47481e-13
0.0111989
3.8045e-10
-1.69783e-13
0.0111996
8.18202e-11
-1.44968e-13
0.0111993
2.47482e-11
-1.07564e-13
0.0111972
5.75236e-11
-5.85603e-14
0.0111909
9.04923e-11
-1.52091e-14
0.0111731
8.02497e-11
8.01473e-15
0.0111262
4.21024e-11
-1.77263e-14
0.0110028
2.51998e-11
-7.59924e-14
0.0107291
1.80658e-10
-1.46769e-13
0.00976851
1.32888e-09
-2.73403e-13
0.00890291
9.74867e-09
-7.2611e-13
1.79327e-07
-6.04821e-12
0.0021117
2.1727e-07
2.6689e-09
0.00261042
1.83587e-07
2.3258e-09
0.00387102
1.2361e-07
1.64662e-09
0.0070969
-8.49645e-08
-7.95204e-10
0.00876438
4.14683e-09
6.76756e-11
0.00974894
1.8104e-08
1.99469e-10
0.0104045
1.08442e-08
1.20438e-10
0.0108033
4.57827e-09
5.39057e-11
0.0110193
-2.20631e-09
-2.52213e-11
0.0111246
-9.27279e-10
-7.66673e-12
0.0111707
-2.28947e-10
-7.2506e-13
0.0111894
-1.48626e-10
-6.41049e-13
0.0111964
-6.75387e-11
-3.14202e-13
0.0111989
-2.81544e-11
-9.28266e-14
0.0111996
-1.63981e-11
-6.01375e-14
0.0111993
-5.41092e-12
-2.31167e-14
0.0111972
7.04211e-12
-1.89754e-14
0.0111909
7.52653e-12
-1.28709e-13
0.0111731
1.983e-11
-1.51324e-13
0.0111262
7.61743e-11
-1.7196e-13
0.0110028
3.44605e-10
-1.07197e-13
0.0107291
1.88338e-09
-8.08442e-14
0.00976852
1.06756e-08
-2.74126e-13
0.00890294
7.02221e-08
-9.19999e-13
1.28357e-06
-7.68054e-12
0.0021142
-2.1739e-07
3.57353e-11
0.00261423
-1.83657e-07
4.24222e-11
0.0038731
-1.234e-07
1.44867e-11
0.00709536
8.62519e-08
-6.63194e-11
0.00876139
-3.90837e-09
-2.52235e-11
0.0097468
-1.89609e-08
2.56743e-11
0.0104034
-1.2525e-08
3.59478e-11
0.0108029
-6.25538e-09
2.65137e-11
0.0110193
9.09313e-10
1.20555e-11
0.0111246
1.98719e-10
9.85115e-12
0.0111708
-1.02744e-10
4.66637e-12
0.0111894
-3.43417e-11
-1.29038e-14
0.0111964
-1.19639e-11
5.84419e-13
0.0111989
-1.79715e-12
8.98246e-13
0.0111996
3.50066e-12
7.14503e-13
0.0111993
8.83686e-13
3.2571e-13
0.0111972
3.89428e-13
-3.25606e-13
0.0111909
2.59074e-11
-9.38531e-13
0.0111731
1.19165e-10
-1.17346e-12
0.0111262
5.96828e-10
-7.16442e-13
0.0110028
2.60652e-09
-1.85647e-14
0.0107291
1.32964e-08
4.81811e-13
0.00976856
7.17736e-08
1.17135e-13
0.00890307
4.36025e-07
-1.14247e-12
7.78356e-06
-9.19661e-12
0.0021117
8.9083e-07
2.70956e-09
0.00261042
9.18673e-07
2.31817e-09
0.00387101
7.07063e-07
1.59184e-09
0.0070969
9.88955e-08
-8.856e-10
0.00876438
9.10178e-08
6.44236e-11
0.00974894
2.30578e-08
1.89235e-10
0.0104045
-8.34288e-09
1.15833e-10
0.0108033
-2.26738e-08
5.21123e-11
0.0110193
-2.94325e-08
-1.161e-11
0.0111246
-1.43999e-08
-7.43189e-12
0.0111707
-6.72382e-09
-9.3557e-13
0.0111894
-3.10666e-09
-9.76993e-13
0.0111964
-1.34776e-09
-4.02608e-13
0.0111989
-4.42102e-10
-8.96221e-14
0.0111996
-1.11283e-10
-5.15353e-14
0.0111993
-2.8188e-11
-1.27133e-14
0.0111972
-6.78494e-12
-1.52401e-14
0.0111909
1.62516e-10
-1.40801e-13
0.0111731
9.90999e-10
-1.82206e-13
0.0111262
4.78503e-09
-2.0263e-13
0.0110028
2.00879e-08
-1.16688e-13
0.0107292
9.35244e-08
-7.06372e-14
0.00976891
4.72783e-07
-2.95201e-13
0.00890403
2.55539e-06
-1.09422e-12
4.50342e-05
-9.12669e-12
0.00211424
3.84042e-07
-2.35327e-09
0.00261434
4.69661e-07
-1.93578e-09
0.00387317
4.12341e-07
-1.21789e-09
0.00709537
2.31579e-07
1.17836e-09
0.00876135
6.80251e-08
-3.32124e-11
0.00974676
-2.25812e-09
-2.78546e-10
0.0104034
-2.61602e-08
-2.07996e-10
0.0108029
-2.93988e-08
-1.19326e-10
0.0110192
-2.33263e-08
-1.67685e-11
0.0111246
-1.28516e-08
-7.20802e-12
0.0111708
-6.2391e-09
-5.41966e-12
0.0111894
-3.38076e-09
-3.05895e-12
0.0111964
-1.13766e-09
-3.86144e-13
0.0111989
-2.87393e-10
5.18443e-13
0.0111996
-1.00575e-11
4.56997e-13
0.0111993
8.2758e-11
1.88331e-13
0.0111972
2.88524e-10
-3.68838e-13
0.0111909
1.5035e-09
-8.64419e-13
0.0111731
6.80629e-09
-1.0735e-12
0.0111263
2.99182e-08
-6.08435e-13
0.0110029
1.20142e-07
1.62089e-14
0.0107295
5.24174e-07
4.5847e-13
0.00977063
2.51392e-06
8.31778e-14
0.00890871
1.23804e-05
-1.16431e-12
0.000212614
-9.88217e-12
0.0021142
4.28357e-09
8.13148e-12
0.00261425
2.85008e-08
3.71932e-12
0.00387308
5.46979e-08
1.40245e-11
0.00709543
7.56041e-08
8.22199e-11
0.00876129
1.50939e-08
2.43875e-11
0.00974666
-2.50412e-08
-3.26666e-11
0.0104033
-3.33661e-08
-5.85973e-11
0.0108028
-2.71051e-08
-4.07164e-11
0.0110192
-1.75862e-08
-2.05875e-11
0.0111246
-1.02405e-08
-1.23012e-11
0.0111708
-4.74051e-09
-6.63475e-12
0.0111894
-1.39401e-09
-1.31832e-12
0.0111964
-6.88608e-10
-1.12018e-12
0.0111989
-4.23523e-10
-1.06768e-12
0.0111996
-6.4468e-11
-8.43491e-13
0.0111993
5.49549e-10
-4.35751e-13
0.0111972
2.7405e-09
1.90694e-13
0.0111909
1.17175e-08
7.44081e-13
0.0111731
4.68545e-08
9.39027e-13
0.0111264
1.86783e-07
4.89639e-13
0.0110034
7.06083e-07
-1.64089e-13
0.0107315
2.7717e-06
-6.57596e-13
0.00978003
1.23217e-05
-6.92028e-13
0.00893428
5.21093e-05
-9.48569e-13
0.000877829
-9.1053e-12
0.00211405
2.43338e-09
3.59486e-11
0.00261368
7.98991e-09
-1.31872e-11
0.0038724
1.73636e-08
-7.50544e-11
0.00709518
2.43319e-08
-1.98604e-10
0.00876123
7.28489e-09
-3.68901e-11
0.00974669
-1.17381e-08
3.07046e-11
0.0104034
-1.74631e-08
4.16863e-11
0.0108029
-1.49715e-08
3.35958e-11
0.0110193
-1.00161e-08
2.22818e-11
0.0111246
-5.90137e-09
1.44854e-11
0.0111708
-2.99742e-09
6.24405e-12
0.0111894
-1.18972e-09
6.44687e-13
0.0111964
-4.11832e-10
7.95668e-13
0.0111989
-2.52234e-10
9.33513e-13
0.0111996
5.57541e-10
7.22314e-13
0.0111993
3.27181e-09
3.10788e-13
0.0111972
1.41133e-08
-3.44635e-13
0.0111909
5.83189e-08
-9.34397e-13
0.0111733
2.25789e-07
-1.15065e-12
0.011127
8.52885e-07
-6.87107e-13
0.0110055
3.07237e-06
-1.66029e-14
0.0107383
1.12383e-05
4.96432e-13
0.00981135
4.65994e-05
1.99578e-14
0.00903592
0.000173468
-1.23558e-12
0.00287509
-9.51691e-12
0.00211405
3.94528e-11
4.49043e-12
0.00261365
6.99567e-10
-3.3057e-13
0.00387237
1.97707e-09
-1.00987e-11
0.00709516
3.43652e-09
-3.88645e-11
0.00876124
3.65343e-10
9.83143e-13
0.00974671
-2.79649e-09
1.92818e-11
0.0104034
-3.70977e-09
1.84353e-11
0.0108029
-3.05586e-09
1.04504e-11
0.0110193
-2.014e-09
5.5811e-12
0.0111246
-1.12885e-09
2.36248e-12
0.0111708
-5.51173e-10
6.66844e-13
0.0111894
-2.37104e-10
-1.28804e-13
0.0111964
9.04987e-12
-1.222e-13
0.0111989
-1.72349e-10
-4.5552e-14
0.0111996
3.13297e-09
-3.6099e-14
0.0111993
1.56106e-08
-3.86236e-14
0.0111973
6.44406e-08
-7.07243e-14
0.0111913
2.54862e-07
-1.2634e-13
0.0111744
9.45952e-07
-1.72348e-13
0.0111304
3.35241e-06
-1.61695e-13
0.0110153
1.13891e-05
-1.20386e-13
0.0107627
3.82636e-05
-1.03954e-13
0.00989831
0.000143978
-4.52865e-13
0.00906616
0.000470696
-1.51574e-12
0.00675632
-1.04268e-11
0.00211405
3.86959e-11
-1.43564e-11
0.00261365
-1.35537e-11
-5.55726e-10
0.00387235
-8.19979e-11
-1.75694e-09
0.00709515
-2.02955e-10
-3.15548e-09
0.00876125
-3.40536e-11
-2.79811e-10
0.00974672
5.9964e-11
2.67323e-09
0.0104034
6.58406e-11
3.4452e-09
0.0108029
4.36554e-11
2.78839e-09
0.0110193
2.8226e-11
1.8076e-09
0.0111246
1.75844e-11
1.00168e-09
0.0111708
7.48777e-12
4.97212e-10
0.0111894
8.8402e-13
1.48271e-10
0.0111964
9.10901e-13
3.69463e-10
0.0111989
8.19916e-13
-5.44636e-10
0.0111996
6.20824e-13
1.03468e-08
0.0111994
2.71197e-13
5.26146e-08
0.0111976
-2.79526e-13
2.07173e-07
0.0111922
-7.70415e-13
7.76912e-07
0.0111772
-1.02173e-12
2.74842e-06
0.0111386
-6.5219e-13
9.17663e-06
0.0110364
-1.00597e-13
2.9639e-05
0.0108206
3.24477e-13
9.32787e-05
0.0100575
-8.99525e-14
0.000323293
0.009234
-1.3535e-12
0.00104576
-7.64991e-12
0.0116651
0.00211405
-1.59379e-10
-4.08719e-14
0.00261364
-8.91435e-10
9.41382e-14
0.00387234
-2.25789e-09
4.35097e-13
0.00709515
-4.09192e-09
1.41146e-12
0.00876125
-6.6993e-10
3.89872e-13
0.00974672
3.1701e-09
-1.25616e-12
0.0104034
4.46877e-09
-2.00388e-12
0.0108029
3.78713e-09
-1.56192e-12
0.0110193
2.55268e-09
-1.25241e-12
0.0111246
1.45521e-09
-7.33799e-13
0.0111708
7.32106e-10
-3.65093e-13
0.0111894
3.13172e-10
-1.62511e-13
0.0111964
1.17995e-10
-5.6838e-14
0.0111989
4.89443e-11
-2.59945e-14
0.0111996
2.41065e-11
-1.74554e-14
0.0111993
9.55544e-12
-8.32378e-15
0.0111972
-1.16155e-12
-7.68042e-16
0.0111909
-7.8265e-12
3.90106e-15
0.0111731
-9.26707e-12
5.11026e-15
0.0111262
-7.9741e-12
2.27415e-15
0.0110028
1.99115e-12
-2.36736e-15
0.0107291
1.03485e-11
-1.79812e-15
0.00976851
1.79764e-10
4.16943e-14
0.00890291
1.32432e-09
2.92581e-13
2.39224e-08
4.07307e-12
0.00211405
-2.60057e-09
-5.49948e-13
0.00261365
-8.05224e-09
6.44336e-13
0.00387236
-1.70321e-08
2.88788e-12
0.00709516
-2.34088e-08
1.02923e-11
0.00876124
-6.9283e-09
2.07842e-12
0.00974671
1.10221e-08
-6.13034e-12
0.0104034
1.62737e-08
-8.73111e-12
0.0108029
1.38716e-08
-7.37085e-12
0.0110193
9.22722e-09
-5.03935e-12
0.0111246
5.42549e-09
-2.9271e-12
0.0111708
2.75291e-09
-1.4601e-12
0.0111894
1.07287e-09
-6.5293e-13
0.0111964
3.73389e-10
-2.13444e-13
0.0111989
1.98677e-10
-9.34114e-14
0.0111996
1.05139e-10
-6.46126e-14
0.0111993
2.6885e-11
-2.82989e-14
0.0111972
-4.21379e-11
5.09022e-15
0.0111909
-7.15488e-11
2.94751e-14
0.0111731
-6.21404e-11
3.71504e-14
0.0111262
-1.63771e-11
2.36621e-14
0.0110028
4.71915e-11
4.49633e-15
0.0107291
2.41172e-10
2.59012e-15
0.00976851
1.34982e-09
9.1651e-14
0.00890291
9.65281e-09
4.83188e-13
1.77228e-07
5.1008e-12
0.00211405
-4.06229e-09
-2.79195e-12
0.00261368
-2.70146e-08
8.68167e-13
0.0038724
-5.11972e-08
8.09359e-12
0.00709518
-7.00443e-08
2.85862e-11
0.00876124
-1.42851e-08
5.69197e-13
0.0097467
2.11743e-08
-1.47402e-11
0.0104034
2.8232e-08
-1.571e-11
0.0108029
2.28214e-08
-1.11424e-11
0.0110193
1.47002e-08
-6.75572e-12
0.0111246
8.63434e-09
-3.57082e-12
0.0111708
3.97212e-09
-1.48088e-12
0.0111894
1.05426e-09
-3.56858e-13
0.0111964
5.41948e-10
-1.29549e-13
0.0111989
3.65318e-10
-9.74846e-14
0.0111996
2.15537e-10
-7.79173e-14
0.0111993
6.01823e-11
-4.50838e-14
0.0111972
-1.05951e-10
2.91683e-15
0.0111909
-1.94397e-10
5.21448e-14
0.0111731
-1.73972e-10
7.93105e-14
0.0111262
8.84797e-12
5.88048e-14
0.0110028
3.60843e-10
2.18089e-14
0.0107291
1.95621e-09
1.18444e-15
0.00976852
1.07171e-08
1.81541e-13
0.00890294
7.01521e-08
7.19797e-13
1.28221e-06
4.72954e-12
0.0021142
-3.78699e-07
-4.2606e-11
0.00261423
-4.55361e-07
1.77508e-11
0.00387304
-3.88065e-07
9.71978e-11
0.00709541
-2.00808e-07
2.47466e-10
0.00876129
-6.03096e-08
3.34122e-11
0.00974668
-1.28507e-08
-3.90268e-11
0.0104034
8.47775e-09
-4.86971e-11
0.0108029
1.42626e-08
-3.75026e-11
0.0110192
1.32997e-08
-2.4222e-11
0.0111246
7.30424e-09
-1.51816e-11
0.0111708
3.58554e-09
-6.35769e-12
0.0111894
2.0937e-09
-6.12189e-13
0.0111964
6.54166e-10
-8.06965e-13
0.0111989
1.97396e-10
-1.00581e-12
0.0111996
3.81564e-11
-8.18995e-13
0.0111993
-1.73233e-12
-4.25085e-13
0.0111972
5.06575e-11
2.63927e-13
0.0111909
1.34977e-10
8.68799e-13
0.0111731
2.77265e-10
1.09886e-12
0.0111262
6.51565e-10
6.34559e-13
0.0110028
2.60212e-09
-6.40632e-14
0.0107291
1.32434e-08
-5.66299e-13
0.00976856
7.17314e-08
-2.43734e-13
0.00890307
4.36022e-07
7.98655e-13
7.78337e-06
5.04537e-12
0.00211423
-8.76214e-07
-4.76684e-11
0.0026143
-8.82632e-07
1.03335e-11
0.00387311
-6.50167e-07
7.00567e-11
0.00709535
-5.39514e-08
1.47675e-10
0.00876136
-7.86568e-08
7.29979e-12
0.00974678
-4.2378e-08
-1.23496e-11
0.0104034
-9.55249e-09
-9.92131e-12
0.0108029
4.40073e-09
-8.1437e-12
0.0110193
1.5068e-08
-8.1077e-12
0.0111246
6.75793e-09
-3.3078e-12
0.0111708
3.30535e-09
-1.01474e-12
0.0111894
1.37075e-09
8.75587e-14
0.0111964
8.46523e-10
-1.6935e-15
0.0111989
4.4188e-10
-8.44926e-14
0.0111996
1.96923e-10
-7.51581e-14
0.0111993
7.55617e-11
-4.92897e-14
0.0111972
3.91513e-11
1.21249e-15
0.0111909
2.05521e-10
6.37569e-14
0.0111731
9.96086e-10
1.0848e-13
0.0111262
4.77307e-09
8.85769e-14
0.0110028
2.00864e-08
1.85649e-14
0.0107292
9.35471e-08
-4.041e-14
0.00976891
4.72807e-07
1.5925e-14
0.00890403
2.55542e-06
3.8002e-13
4.50349e-05
4.41855e-12
0.00211142
8.7633e-07
2.71073e-09
0.0026095
8.82522e-07
2.2856e-09
0.00387
6.4949e-07
1.50858e-09
0.00709658
5.25415e-08
-1.08704e-09
0.00876431
7.81364e-08
5.802e-11
0.00974898
4.39619e-08
2.70823e-10
0.0104046
1.13722e-08
1.89521e-10
0.0108034
-3.22787e-09
9.6989e-11
0.0110194
-1.39574e-08
2.071e-12
0.0111246
-6.0777e-09
5.23345e-12
0.0111708
-2.9378e-09
3.78796e-12
0.0111894
-1.19916e-09
2.71167e-12
0.0111964
-7.67736e-10
1.57652e-13
0.0111989
-4.06852e-10
-6.78564e-13
0.0111996
-1.54889e-10
-5.92443e-13
0.0111993
3.3246e-11
-2.9188e-13
0.0111972
4.5267e-10
3.63945e-13
0.0111909
1.74896e-09
8.98117e-13
0.0111731
7.08177e-09
1.23114e-12
0.0111262
3.00493e-08
5.84995e-13
0.0110029
1.20094e-07
-9.3895e-14
0.0107295
5.24009e-07
-5.99622e-13
0.00977063
2.51382e-06
-4.39457e-13
0.00890871
1.23805e-05
2.36041e-13
0.000212615
2.94194e-12
0.00211423
3.78582e-07
-5.50348e-11
0.00261429
4.54533e-07
1.43221e-11
0.00387311
3.85793e-07
8.155e-11
0.00709535
1.96399e-07
1.74432e-10
0.00876136
5.97103e-08
7.45189e-12
0.00974677
1.60496e-08
-1.3554e-11
0.0104034
-3.6272e-09
-1.15911e-11
0.0108029
-1.04153e-08
-9.49335e-12
0.0110193
-1.08483e-08
-8.94478e-12
0.0111246
-5.85374e-09
-3.77027e-12
0.0111708
-2.82024e-09
-1.2672e-12
0.0111894
-1.76552e-09
-1.07747e-14
0.0111964
-5.35513e-10
-3.04881e-14
0.0111989
-1.60188e-10
-1.05519e-13
0.0111996
1.44106e-10
-9.29468e-14
0.0111993
6.16424e-10
-5.88421e-14
0.0111972
2.65242e-09
8.60458e-15
0.0111909
1.14946e-08
7.61865e-14
0.0111731
4.65909e-08
1.06237e-13
0.0111264
1.86642e-07
9.19715e-14
0.0110035
7.06113e-07
1.68071e-14
0.0107315
2.77186e-06
-5.3829e-14
0.00978003
1.23218e-05
-5.20308e-14
0.00893428
5.21092e-05
8.47067e-14
0.000877828
1.04984e-12
0.0021142
2.72219e-09
-4.47108e-11
0.00261424
1.80077e-08
1.39671e-11
0.00387306
3.12181e-08
8.82205e-11
0.00709542
4.10049e-08
2.37107e-10
0.00876128
7.90154e-09
3.24153e-11
0.00974666
-7.13702e-09
-4.72511e-11
0.0104033
-8.9268e-09
-5.97332e-11
0.0108028
-6.86917e-09
-4.66399e-11
0.0110192
-4.28115e-09
-3.03165e-11
0.0111246
-2.35015e-09
-1.87997e-11
0.0111708
-9.21825e-10
-8.10791e-12
0.0111894
-1.1179e-10
-1.20057e-12
0.0111964
-7.41818e-11
-1.05046e-12
0.0111989
-1.62834e-10
-1.12536e-12
0.0111996
5.77432e-10
-8.82867e-13
0.0111993
3.26175e-09
-4.30176e-13
0.0111972
1.4156e-08
3.25578e-13
0.0111909
5.84186e-08
1.03059e-12
0.0111733
2.25901e-07
1.2633e-12
0.011127
8.5292e-07
6.78094e-13
0.0110055
3.07232e-06
-1.10703e-13
0.0107383
1.12382e-05
-6.35619e-13
0.00981135
4.65992e-05
-4.13313e-13
0.00903592
0.000173467
1.68952e-13
0.00287508
1.28581e-12
0.00211406
-2.7184e-09
-5.05325e-12
0.00261371
-1.7923e-08
1.62684e-12
0.00387245
-3.10197e-08
1.39989e-11
0.0070952
-4.07141e-08
5.0495e-11
0.00876123
-7.74883e-09
1.41484e-12
0.00974668
7.16633e-09
-2.50232e-11
0.0104034
8.90549e-09
-2.65817e-11
0.0108029
6.84185e-09
-1.87218e-11
0.0110193
4.26151e-09
-1.13498e-11
0.0111246
2.33824e-09
-5.76187e-12
0.0111708
9.19073e-10
-2.40077e-12
0.0111894
9.8737e-11
-7.21991e-13
0.0111964
2.04522e-10
-2.08834e-13
0.0111989
-8.83986e-11
-1.39676e-13
0.0111996
3.19196e-09
-1.13424e-13
0.0111993
1.56399e-08
-6.8782e-14
0.0111973
6.44218e-08
3.76463e-15
0.0111913
2.54792e-07
8.75188e-14
0.0111744
9.45851e-07
1.4257e-13
0.0111304
3.35234e-06
1.26912e-13
0.0110153
1.1389e-05
3.60216e-14
0.0107627
3.82636e-05
-3.44064e-14
0.00989831
0.000143978
2.11727e-14
0.00906616
0.000470695
2.54034e-13
0.00675632
1.41571e-12
0.0021142
-3.9446e-11
-3.78578e-07
0.00261424
1.77032e-11
-4.54482e-07
0.00387306
9.10042e-11
-3.85666e-07
0.00709542
2.56276e-10
-1.96196e-07
0.00876128
3.23539e-11
-5.96546e-08
0.00974666
-4.72466e-11
-1.60696e-08
0.0104033
-6.39584e-11
3.58463e-09
0.0108028
-5.10766e-11
1.03832e-08
0.0110192
-3.03531e-11
1.08291e-08
0.0111246
-2.03206e-11
5.84287e-09
0.0111708
-8.7683e-12
2.82171e-09
0.0111894
-1.19528e-12
1.72439e-09
0.0111964
-1.20212e-12
7.82414e-10
0.0111989
-1.05784e-12
-3.99855e-10
0.0111996
-8.10568e-13
1.03019e-08
0.0111994
-3.85207e-13
5.26081e-08
0.0111976
2.64206e-13
2.07287e-07
0.0111922
8.25487e-13
7.77096e-07
0.0111772
1.07974e-12
2.7486e-06
0.0111386
6.25833e-13
9.17668e-06
0.0110364
-1.27324e-15
2.96389e-05
0.0108206
-4.96089e-13
9.32784e-05
0.0100575
-3.12946e-13
0.000323292
0.009234
2.38443e-13
0.00104576
8.99547e-13
0.0116651
0.00211405
-1.12775e-12
4.5638e-11
0.00261364
2.33858e-11
1.49733e-11
0.00387234
1.3429e-10
-5.61522e-11
0.00709515
4.01443e-11
-1.55058e-10
0.00876125
-1.17465e-10
1.05914e-10
0.00974672
-1.66297e-10
1.49672e-10
0.0104034
-1.32859e-10
9.74888e-11
0.0108029
-8.22595e-11
5.34087e-11
0.0110193
-4.33234e-11
4.95581e-11
0.0111246
-1.8316e-11
2.10916e-11
0.0111708
-6.89153e-12
6.97727e-12
0.0111894
-2.83278e-12
2.17329e-12
0.0111964
-1.06945e-12
1.29308e-12
0.0111989
-3.42883e-13
9.57553e-13
0.0111996
-1.22137e-13
6.68272e-13
0.0111993
-9.3808e-14
1.58953e-13
0.0111972
-2.42306e-13
-6.35824e-13
0.0111909
-9.24774e-13
-1.47195e-12
0.0111731
-1.89455e-12
-2.3856e-12
0.0111262
-5.49837e-12
-3.70898e-12
0.0110028
-1.43393e-12
-6.34747e-12
0.0107291
4.85449e-12
-1.08481e-11
0.00976851
1.90799e-10
-8.5487e-12
0.00890291
1.40482e-09
5.41847e-11
2.54557e-08
1.46812e-09
0.00211405
1.45409e-11
4.57116e-11
0.00261364
4.13615e-11
1.74453e-11
0.00387234
7.50255e-11
-4.88885e-11
0.00709515
3.43219e-11
-1.29447e-10
0.00876125
-9.97277e-11
8.36765e-11
0.00974672
-1.38935e-10
1.27317e-10
0.0104034
-1.04454e-10
8.97025e-11
0.0108029
-6.23788e-11
5.28135e-11
0.0110193
-3.31089e-11
4.82213e-11
0.0111246
-1.34002e-11
2.44137e-11
0.0111708
-4.55717e-12
8.58143e-12
0.0111894
-1.52611e-12
7.93429e-13
0.0111964
-5.29604e-13
1.07727e-12
0.0111989
-1.51712e-13
1.286e-12
0.0111996
-5.90411e-14
9.4363e-13
0.0111993
-1.87498e-13
2.55089e-13
0.0111972
-5.35409e-13
-8.86796e-13
0.0111909
-1.09915e-12
-2.25227e-12
0.0111731
-1.35717e-12
-3.57513e-12
0.0111262
3.74855e-12
-5.17901e-12
0.0110028
3.19812e-11
-6.65925e-12
0.0107291
2.10604e-10
-1.02401e-11
0.00976851
1.35156e-09
6.83903e-12
0.00890291
9.76185e-09
1.03736e-10
1.7925e-07
1.65336e-09
0.00211405
-1.06744e-12
5.59133e-12
0.00261364
-1.11329e-11
-1.41425e-11
0.00387234
-2.86863e-11
-5.3526e-11
0.00709515
-5.35419e-11
-1.71383e-10
0.00876125
-1.64635e-11
3.02037e-11
0.00974672
1.75996e-11
1.41205e-10
0.0104034
2.73468e-11
1.3853e-10
0.0108029
2.36898e-11
9.83268e-11
0.0110193
1.6329e-11
6.11132e-11
0.0111246
9.47228e-12
3.43209e-11
0.0111708
4.67456e-12
1.45225e-11
0.0111894
1.8461e-12
2.96439e-12
0.0111964
7.39963e-13
1.87196e-12
0.0111989
3.55773e-13
1.61221e-12
0.0111996
2.21246e-13
9.61657e-13
0.0111993
2.22553e-13
-2.06061e-13
0.0111972
6.90212e-13
-2.15754e-12
0.0111909
3.29123e-12
-4.19349e-12
0.0111731
1.50412e-11
-8.3848e-12
0.0111262
7.7025e-11
-1.13794e-11
0.0110028
3.48186e-10
-2.01165e-11
0.0107291
1.89022e-09
-5.01611e-11
0.00976852
1.06732e-08
-1.85828e-10
0.00890294
7.01596e-08
-1.87192e-10
1.28211e-06
1.39222e-09
0.00211405
-8.4976e-11
5.42337e-12
0.00261364
-1.4229e-10
-1.21065e-11
0.00387234
-1.90743e-10
-4.65254e-11
0.00709515
-1.58795e-10
-1.52634e-10
0.00876125
1.05445e-11
2.33392e-11
0.00974672
1.10862e-10
1.33208e-10
0.0104034
1.02954e-10
1.34111e-10
0.0108029
7.11638e-11
9.67092e-11
0.0110193
4.37547e-11
6.16252e-11
0.0111246
2.08832e-11
3.52938e-11
0.0111708
8.48199e-12
1.52615e-11
0.0111894
3.36747e-12
3.55403e-12
0.0111964
1.1702e-12
1.92151e-12
0.0111989
3.39154e-13
1.51765e-12
0.0111996
3.43497e-13
9.11523e-13
0.0111993
1.34657e-12
-1.51329e-13
0.0111972
6.02635e-12