/*--------------------------------*- C++ -*----------------------------------*\
| =========                 |                                                 |
| \\      /  F ield         | OpenFOAM: The Open Source CFD Toolbox           |
|  \\    /   O peration     | Version:  4.1                                   |
|   \\  /    A nd           | Web:      www.OpenFOAM.org                      |
|    \\/     M anipulation  |                                                 |
\*---------------------------------------------------------------------------*/
FoamFile
{
    version     2.0;
    format      ascii;
    class       volScalarField;
    location    "0.86";
    object      Ma;
}
// * * * * * * * * * * * * * * * * * * * * * * * * * * * * * * * * * * * * * //

dimensions      [0 0 0 0 0 0 0];

internalField   nonuniform List<scalar> 
52500
(
7.61767
1.24436
0.334621
0.312336
0.385419
0.416633
0.408788
0.4054
0.419128
0.437343
0.446589
0.448935
0.464224
0.47585
0.468597
0.451628
0.423328
0.392211
0.370143
0.349551
0.31637
0.264776
0.200713
0.0991435
0.0364826
7.59575
1.25246
0.342725
0.312049
0.382945
0.415756
0.409117
0.406022
0.419675
0.437675
0.44675
0.449199
0.464779
0.476939
0.470355
0.454214
0.426808
0.396032
0.374038
0.353458
0.320592
0.269427
0.205866
0.107972
0.0563873
7.38812
1.26592
0.357708
0.311224
0.379117
0.416247
0.412188
0.409971
0.42396
0.441969
0.451087
0.453258
0.468331
0.481145
0.475229
0.459941
0.43398
0.403856
0.382326
0.362169
0.330508
0.280928
0.219631
0.130352
0.0913622
7.05829
1.28893
0.381105
0.307033
0.374216
0.418268
0.417225
0.416052
0.430339
0.448169
0.457487
0.458953
0.472721
0.486785
0.481938
0.46803
0.444279
0.415213
0.39435
0.374901
0.344955
0.297763
0.239668
0.15956
0.128563
6.74141
1.33376
0.415255
0.29783
0.372936
0.422778
0.42418
0.424195
0.438712
0.456182
0.465761
0.466287
0.478191
0.493734
0.490536
0.47841
0.457473
0.429632
0.409553
0.391153
0.363485
0.319544
0.265609
0.194554
0.169464
6.36177
1.40312
0.45794
0.283881
0.374294
0.430302
0.433533
0.43452
0.448986
0.465889
0.475655
0.475087
0.484645
0.501718
0.500766
0.490857
0.473042
0.446769
0.427752
0.410958
0.386324
0.346506
0.297958
0.23597
0.216647
5.98004
1.50383
0.510228
0.270091
0.378643
0.441396
0.445777
0.447031
0.460876
0.477004
0.48675
0.485113
0.492239
0.510608
0.512528
0.505168
0.490573
0.466567
0.448769
0.434278
0.413292
0.37899
0.33733
0.285181
0.273687
5.61485
1.63955
0.574253
0.263838
0.386503
0.456151
0.460857
0.461409
0.474093
0.489215
0.498573
0.496056
0.500753
0.520219
0.525666
0.520985
0.509586
0.488831
0.472449
0.460904
0.444621
0.417591
0.384994
0.345006
0.346698
5.24806
1.8084
0.652637
0.271671
0.399972
0.47418
0.477776
0.476905
0.488153
0.502087
0.510708
0.507734
0.510256
0.530365
0.539877
0.537977
0.530023
0.513485
0.498724
0.490319
0.480267
0.462559
0.442006
0.419861
0.444882
4.89257
2.02041
0.744086
0.288591
0.416853
0.491313
0.493988
0.49239
0.50247
0.515177
0.522868
0.520132
0.521129
0.540679
0.554877
0.555959
0.55156
0.539844
0.527116
0.522091
0.519207
0.513331
0.510359
0.521261
0.612305
7.61971
1.24443
0.334584
0.312299
0.385382
0.41658
0.408715
0.405307
0.419009
0.437192
0.446419
0.448786
0.464103
0.475737
0.468509
0.45157
0.423286
0.392165
0.37009
0.349498
0.316319
0.264723
0.200636
0.0989407
0.0358087
7.59548
1.25247
0.342645
0.312026
0.382936
0.415761
0.409132
0.406055
0.419736
0.437769
0.446926
0.449372
0.464877
0.477114
0.470527
0.45434
0.426896
0.396055
0.374023
0.353421
0.32055
0.269378
0.205791
0.107785
0.0559547
7.38848
1.26595
0.357641
0.311189
0.379092
0.416239
0.412191
0.40999
0.423997
0.442026
0.451215
0.453347
0.468323
0.481212
0.475301
0.459986
0.434005
0.403835
0.382285
0.362124
0.330464
0.280877
0.219559
0.130199
0.0910972
7.05977
1.28899
0.381067
0.307006
0.374179
0.418234
0.417194
0.416026
0.430319
0.448153
0.457494
0.458915
0.472617
0.48672
0.481874
0.467945
0.444168
0.41511
0.394263
0.374836
0.3449
0.297705
0.239599
0.159434
0.128375
6.74195
1.33379
0.415215
0.297805
0.37289
0.422726
0.424122
0.424133
0.438652
0.456115
0.465669
0.466175
0.478107
0.493616
0.490384
0.478235
0.457261
0.429437
0.409403
0.39105
0.36341
0.319477
0.265539
0.194446
0.169313
6.36237
1.40315
0.457917
0.283857
0.374243
0.430244
0.433467
0.434444
0.448903
0.465789
0.475504
0.474918
0.484521
0.501559
0.50056
0.490621
0.472787
0.446536
0.427573
0.410827
0.386231
0.346429
0.297884
0.23587
0.216516
5.98025
1.50385
0.510212
0.270059
0.378591
0.44134
0.445712
0.446954
0.460787
0.476893
0.48659
0.484939
0.492137
0.510466
0.512291
0.504891
0.49027
0.466286
0.448572
0.434133
0.413196
0.378911
0.337253
0.285088
0.273573
5.61507
1.63959
0.574252
0.263804
0.386453
0.456101
0.460798
0.461338
0.474009
0.489112
0.498433
0.495897
0.500705
0.520138
0.525444
0.520714
0.509275
0.488514
0.47224
0.460751
0.444537
0.417514
0.384916
0.34492
0.346601
5.24821
1.80846
0.652653
0.271645
0.399928
0.474139
0.477726
0.476841
0.488079
0.502
0.510599
0.507597
0.51022
0.530346
0.5397
0.537741
0.529744
0.513184
0.498522
0.490173
0.480188
0.462481
0.441929
0.419786
0.444799
4.89257
2.02051
0.744119
0.288569
0.416816
0.49128
0.493946
0.492335
0.50241
0.51511
0.522791
0.520023
0.521101
0.540708
0.554751
0.555768
0.551335
0.539594
0.526941
0.521966
0.519126
0.513255
0.510284
0.521193
0.612236
7.61838
1.24444
0.334609
0.312283
0.385362
0.416582
0.408731
0.405324
0.419032
0.437226
0.446417
0.448767
0.464094
0.475647
0.468374
0.451413
0.423117
0.392059
0.370036
0.349478
0.316301
0.264703
0.20061
0.0989063
0.0357905
7.59593
1.25253
0.342705
0.311999
0.382894
0.415719
0.409084
0.405982
0.419633
0.437633
0.446691
0.449143
0.464732
0.476849
0.470243
0.454092
0.426675
0.395931
0.373963
0.353401
0.320531
0.269357
0.205764
0.107751
0.0559391
7.38823
1.26599
0.357694
0.31117
0.379062
0.41621
0.412158
0.409941
0.42393
0.441943
0.451065
0.453237
0.468296
0.48109
0.47516
0.459858
0.433888
0.403773
0.38226
0.362115
0.330453
0.280864
0.219536
0.130167
0.0910824
7.0588
1.28903
0.381109
0.30698
0.374161
0.418228
0.417192
0.416021
0.430309
0.448142
0.457475
0.458929
0.47266
0.486732
0.481878
0.467959
0.444197
0.415151
0.394302
0.374862
0.344911
0.297705
0.239583
0.159407
0.128359
6.74159
1.33387
0.415266
0.297773
0.372882
0.422737
0.424144
0.42416
0.438681
0.456155
0.465749
0.46627
0.478167
0.493704
0.49049
0.478353
0.457403
0.42957
0.409502
0.391113
0.363443
0.31949
0.265531
0.194423
0.169299
6.36199
1.40326
0.457966
0.283821
0.374242
0.430262
0.433497
0.434484
0.448952
0.465857
0.475634
0.475056
0.484575
0.501664
0.500726
0.490811
0.472996
0.446715
0.427702
0.410915
0.38628
0.346453
0.297885
0.235856
0.216509
5.98009
1.50399
0.510267
0.27003
0.378593
0.44136
0.445744
0.446996
0.460839
0.476968
0.486723
0.485083
0.492163
0.510544
0.512479
0.505115
0.490522
0.466517
0.448722
0.434234
0.413248
0.378939
0.337262
0.285081
0.273573
5.6149
1.63974
0.574309
0.263785
0.386457
0.45612
0.460826
0.461374
0.474054
0.489175
0.498539
0.496019
0.500709
0.520177
0.525613
0.520926
0.509521
0.48876
0.472394
0.460856
0.444581
0.417544
0.384932
0.344921
0.346606
5.24807
1.80862
0.652716
0.271636
0.399934
0.474155
0.477749
0.476869
0.488113
0.502044
0.510668
0.507683
0.510215
0.530344
0.539828
0.537918
0.529956
0.513405
0.498662
0.490268
0.48023
0.462514
0.44195
0.419791
0.44481
4.89247
2.02069
0.744187
0.288563
0.416819
0.49129
0.493962
0.492354
0.50243
0.515134
0.522826
0.520071
0.521089
0.540683
0.554838
0.555902
0.551498
0.539768
0.527054
0.522041
0.519169
0.513288
0.510307
0.521205
0.612252
7.61861
1.24449
0.334639
0.312287
0.385355
0.416577
0.408726
0.405316
0.41902
0.437209
0.446394
0.448742
0.464069
0.475617
0.468344
0.451384
0.423091
0.392045
0.370034
0.349484
0.31631
0.264715
0.200622
0.0989164
0.0357933
7.596
1.25257
0.342732
0.312003
0.382888
0.415717
0.409083
0.405981
0.41963
0.437628
0.446688
0.449137
0.464718
0.476836
0.470229
0.454074
0.426656
0.39592
0.373961
0.353407
0.32054
0.269368
0.205775
0.107759
0.0559392
7.38834
1.26604
0.357722
0.311173
0.379055
0.416208
0.412158
0.40994
0.423929
0.441942
0.451069
0.453238
0.468289
0.481083
0.475149
0.459845
0.433871
0.403768
0.382263
0.362124
0.330463
0.280874
0.219546
0.130172
0.0910802
7.05886
1.28908
0.381138
0.306981
0.374156
0.418226
0.417191
0.416018
0.430306
0.448137
0.457474
0.458919
0.47263
0.486707
0.481853
0.467928
0.444167
0.415127
0.39429
0.37486
0.344915
0.29771
0.239588
0.159408
0.128353
6.74162
1.33393
0.415297
0.297771
0.37288
0.422734
0.424141
0.424154
0.438674
0.456144
0.465731
0.466241
0.478123
0.49366
0.490445
0.4783
0.45735
0.429518
0.409469
0.391096
0.363438
0.319491
0.265533
0.194421
0.16929
6.36198
1.40332
0.457997
0.283818
0.374241
0.43026
0.433492
0.434476
0.44894
0.465837
0.475596
0.475009
0.484544
0.501616
0.500653
0.490729
0.472919
0.446656
0.427665
0.410891
0.386269
0.346449
0.297883
0.235849
0.216495
5.98003
1.50406
0.5103
0.270029
0.378593
0.441359
0.445739
0.446986
0.460824
0.476943
0.486677
0.485026
0.492149
0.510508
0.512392
0.505016
0.490418
0.466431
0.448678
0.434209
0.41324
0.378935
0.337257
0.285071
0.273557
5.6148
1.63982
0.574344
0.263788
0.38646
0.456122
0.460824
0.461366
0.47404
0.489152
0.498499
0.495967
0.500704
0.520156
0.525534
0.520836
0.509424
0.48867
0.47235
0.460832
0.444581
0.417542
0.384926
0.344909
0.34659
5.24795
1.80871
0.652755
0.271645
0.399941
0.474161
0.47775
0.476865
0.488104
0.502028
0.51064
0.507646
0.51021
0.530332
0.539769
0.537848
0.529882
0.51334
0.49863
0.490251
0.480231
0.462512
0.441944
0.41978
0.444794
4.89232
2.0208
0.744229
0.288569
0.416826
0.491296
0.493965
0.492353
0.502426
0.515126
0.52281
0.520054
0.521086
0.540664
0.554794
0.555856
0.551454
0.539738
0.527042
0.522038
0.519172
0.513287
0.510302
0.521195
0.612238
7.61731
1.24455
0.334713
0.312259
0.385311
0.416558
0.408725
0.405323
0.419032
0.437223
0.446408
0.448748
0.464068
0.475622
0.468353
0.451397
0.42311
0.392066
0.370054
0.349501
0.316321
0.264715
0.200616
0.0988974
0.0357765
7.59483
1.25264
0.342811
0.311975
0.382845
0.415698
0.409081
0.405986
0.419639
0.437638
0.446695
0.449137
0.464713
0.476834
0.47023
0.45408
0.426669
0.395937
0.373978
0.353422
0.320551
0.26937
0.205771
0.107745
0.0559309
7.38725
1.26611
0.357801
0.311139
0.379014
0.416191
0.412156
0.409945
0.423938
0.441951
0.451073
0.453235
0.468283
0.481078
0.475148
0.459849
0.433883
0.403784
0.382278
0.362137
0.330471
0.280874
0.219541
0.130161
0.091077
7.05759
1.28915
0.381214
0.306932
0.374122
0.418213
0.417192
0.416025
0.430317
0.448148
0.457479
0.45892
0.472638
0.486709
0.481853
0.467932
0.444175
0.41514
0.394301
0.374869
0.344919
0.297708
0.239581
0.159399
0.128354
6.74075
1.33405
0.415378
0.297709
0.372859
0.422731
0.424145
0.424165
0.438686
0.456153
0.465736
0.466237
0.478093
0.493643
0.490444
0.478304
0.457363
0.429534
0.40948
0.391102
0.363439
0.319486
0.265525
0.194414
0.169294
6.36115
1.40348
0.458071
0.283747
0.37423
0.430264
0.433501
0.434488
0.448954
0.46585
0.475605
0.475015
0.484552
0.501616
0.500651
0.490731
0.472927
0.446667
0.427674
0.410895
0.386267
0.346443
0.297876
0.235847
0.216502
5.97946
1.50426
0.510376
0.269967
0.378587
0.441368
0.44575
0.446999
0.46084
0.476957
0.486686
0.485028
0.492171
0.510522
0.512394
0.505019
0.490423
0.466436
0.448683
0.43421
0.413237
0.378929
0.337252
0.285071
0.273563
5.61428
1.64004
0.574421
0.263741
0.386458
0.456134
0.460836
0.46138
0.474056
0.489169
0.49851
0.49597
0.500705
0.52016
0.525539
0.520842
0.509432
0.488679
0.472356
0.460835
0.444579
0.417537
0.384923
0.34491
0.346593
5.24752
1.80895
0.652837
0.271612
0.399943
0.47417
0.47776
0.476878
0.488119
0.502046
0.510655
0.507662
0.510216
0.530326
0.539775
0.537859
0.529894
0.513355
0.498641
0.490257
0.48023
0.462511
0.441943
0.41978
0.444795
4.89195
2.02105
0.744308
0.288534
0.416822
0.491296
0.493971
0.492364
0.50244
0.515143
0.522827
0.520083
0.521096
0.540641
0.554799
0.55587
0.55147
0.539759
0.527056
0.522047
0.519175
0.513289
0.510304
0.521196
0.612238
7.61774
1.24455
0.334704
0.31227
0.385322
0.416564
0.408726
0.40532
0.419025
0.437213
0.446393
0.448736
0.464062
0.475608
0.468336
0.45138
0.423088
0.392047
0.37004
0.349492
0.316316
0.264711
0.200613
0.0988982
0.0357816
7.59519
1.25263
0.3428
0.311985
0.382856
0.415705
0.409084
0.405986
0.419636
0.437634
0.446689
0.449134
0.464714
0.476829
0.470223
0.45407
0.426654
0.395923
0.373967
0.353414
0.320544
0.269363
0.205766
0.107742
0.0559319
7.38757
1.26611
0.357789
0.31115
0.379024
0.416197
0.41216
0.409946
0.423936
0.441948
0.451071
0.453235
0.468285
0.481076
0.475144
0.459842
0.433871
0.403771
0.382268
0.362129
0.330465
0.280868
0.219536
0.130156
0.0910752
7.05799
1.28915
0.381203
0.306947
0.374131
0.418218
0.417194
0.416025
0.430315
0.448146
0.457477
0.458919
0.472638
0.486708
0.481848
0.467925
0.444164
0.415129
0.394292
0.374863
0.344915
0.297703
0.239577
0.159393
0.12835
6.74101
1.33403
0.415364
0.297727
0.372865
0.422733
0.424146
0.424164
0.438683
0.45615
0.465734
0.466235
0.478093
0.493641
0.490439
0.478297
0.457353
0.429524
0.409473
0.391097
0.363435
0.319483
0.265522
0.194408
0.169288
6.36142
1.40345
0.458058
0.283768
0.374234
0.430264
0.4335
0.434486
0.44895
0.465847
0.475602
0.475013
0.484552
0.501614
0.500646
0.490724
0.472917
0.446657
0.427666
0.41089
0.386265
0.346442
0.297873
0.23584
0.216495
5.97964
1.50422
0.510361
0.269985
0.378589
0.441367
0.445749
0.446997
0.460836
0.476954
0.486683
0.485025
0.492171
0.51052
0.512388
0.505012
0.490415
0.466427
0.448676
0.434206
0.413235
0.378928
0.33725
0.285065
0.273556
5.61445
1.64
0.574405
0.263755
0.38646
0.456132
0.460835
0.461377
0.474053
0.489166
0.498507
0.495968
0.500705
0.520159
0.525533
0.520834
0.509423
0.48867
0.472349
0.46083
0.444576
0.417537
0.384921
0.344905
0.346588
5.24766
1.8089
0.652819
0.271622
0.399943
0.474169
0.477759
0.476875
0.488116
0.502043
0.510652
0.50766
0.510216
0.530325
0.539769
0.537851
0.529886
0.513347
0.498634
0.490252
0.480228
0.462509
0.441941
0.419777
0.444792
4.89208
2.02099
0.74429
0.288544
0.416824
0.491298
0.493971
0.492362
0.502437
0.515141
0.522825
0.520081
0.521096
0.540641
0.554795
0.555863
0.551463
0.539752
0.52705
0.522041
0.519172
0.513287
0.510301
0.521193
0.612236
7.61861
1.24449
0.334639
0.312287
0.385355
0.416577
0.408726
0.405317
0.41902
0.437209
0.446394
0.448742
0.464069
0.475617
0.468344
0.451384
0.423091
0.392045
0.370034
0.349484
0.316311
0.264715
0.200622
0.0989165
0.0357934
7.59601
1.25257
0.342732
0.312003
0.382888
0.415717
0.409083
0.405981
0.41963
0.437628
0.446688
0.449137
0.464718
0.476836
0.470229
0.454074
0.426656
0.39592
0.373961
0.353407
0.32054
0.269368
0.205775
0.107759
0.0559392
7.38835
1.26604
0.357722
0.311173
0.379056
0.416208
0.412158
0.40994
0.423929
0.441941
0.451069
0.453238
0.468289
0.481082
0.475149
0.459845
0.433871
0.403767
0.382263
0.362124
0.330464
0.280874
0.219546
0.130172
0.0910802
7.05886
1.28908
0.381138
0.306981
0.374156
0.418226
0.417191
0.416018
0.430306
0.448137
0.457474
0.458919
0.472629
0.486707
0.481853
0.467928
0.444166
0.415127
0.394289
0.37486
0.344915
0.29771
0.239588
0.159408
0.128353
6.74162
1.33393
0.415297
0.297772
0.37288
0.422734
0.424141
0.424154
0.438674
0.456144
0.465731
0.466241
0.478123
0.49366
0.490444
0.4783
0.457349
0.429518
0.409469
0.391096
0.363438
0.319491
0.265533
0.194421
0.16929
6.36199
1.40332
0.457997
0.283819
0.374241
0.43026
0.433492
0.434476
0.44894
0.465837
0.475596
0.475008
0.484544
0.501616
0.500653
0.490729
0.472919
0.446656
0.427665
0.410891
0.386269
0.346449
0.297883
0.235849
0.216495
5.98003
1.50406
0.5103
0.270029
0.378593
0.441359
0.445739
0.446986
0.460824
0.476942
0.486677
0.485025
0.492149
0.510508
0.512392
0.505016
0.490417
0.466431
0.448678
0.434209
0.41324
0.378935
0.337257
0.285072
0.273557
5.6148
1.63982
0.574344
0.263789
0.38646
0.456122
0.460824
0.461366
0.47404
0.489152
0.498499
0.495967
0.500704
0.520156
0.525534
0.520836
0.509423
0.48867
0.47235
0.460832
0.444581
0.417542
0.384926
0.344909
0.34659
5.24795
1.80871
0.652755
0.271645
0.399941
0.474161
0.47775
0.476865
0.488104
0.502028
0.51064
0.507646
0.51021
0.530332
0.539769
0.537847
0.529882
0.51334
0.49863
0.490251
0.480231
0.462512
0.441944
0.41978
0.444794
4.89233
2.0208
0.744229
0.288569
0.416826
0.491296
0.493965
0.492353
0.502426
0.515126
0.52281
0.520053
0.521086
0.540664
0.554794
0.555856
0.551454
0.539738
0.527042
0.522038
0.519172
0.513287
0.510302
0.521195
0.612238
7.61838
1.24444
0.334609
0.312283
0.385362
0.416582
0.408731
0.405324
0.419032
0.437226
0.446417
0.448767
0.464094
0.475647
0.468374
0.451413
0.423117
0.392058
0.370036
0.349478
0.316301
0.264703
0.20061
0.0989063
0.0357905
7.59593
1.25253
0.342705
0.311999
0.382894
0.415719
0.409084
0.405982
0.419633
0.437633
0.446691
0.449143
0.464732
0.476849
0.470243
0.454092
0.426675
0.395931
0.373963
0.353401
0.320531
0.269357
0.205764
0.107751
0.0559391
7.38823
1.26599
0.357694
0.31117
0.379062
0.41621
0.412158
0.409941
0.42393
0.441943
0.451065
0.453237
0.468296
0.48109
0.47516
0.459858
0.433888
0.403773
0.38226
0.362115
0.330453
0.280864
0.219536
0.130167
0.0910824
7.0588
1.28903
0.381109
0.30698
0.374161
0.418228
0.417192
0.416021
0.430309
0.448142
0.457475
0.458929
0.47266
0.486732
0.481878
0.467959
0.444197
0.415151
0.394302
0.374862
0.344911
0.297705
0.239583
0.159407
0.128359
6.74159
1.33387
0.415266
0.297773
0.372882
0.422737
0.424144
0.42416
0.438681
0.456155
0.465749
0.46627
0.478167
0.493704
0.49049
0.478353
0.457403
0.42957
0.409502
0.391113
0.363443
0.31949
0.265531
0.194423
0.169299
6.36199
1.40326
0.457966
0.283821
0.374242
0.430262
0.433497
0.434484
0.448952
0.465857
0.475634
0.475056
0.484575
0.501664
0.500726
0.490811
0.472996
0.446715
0.427702
0.410915
0.38628
0.346453
0.297885
0.235856
0.216509
5.98009
1.50399
0.510267
0.27003
0.378593
0.44136
0.445744
0.446996
0.460839
0.476968
0.486723
0.485083
0.492163
0.510544
0.512479
0.505115
0.490522
0.466517
0.448722
0.434234
0.413248
0.378939
0.337262
0.285081
0.273573
5.6149
1.63974
0.574309
0.263785
0.386457
0.45612
0.460826
0.461374
0.474054
0.489175
0.498539
0.49602
0.500709
0.520177
0.525613
0.520926
0.509521
0.48876
0.472394
0.460856
0.444581
0.417544
0.384932
0.344921
0.346606
5.24807
1.80862
0.652716
0.271636
0.399934
0.474155
0.477749
0.476869
0.488113
0.502044
0.510668
0.507683
0.510215
0.530344
0.539828
0.537918
0.529956
0.513405
0.498662
0.490268
0.480229
0.462514
0.44195
0.419791
0.44481
4.89247
2.02069
0.744187
0.288563
0.416819
0.49129
0.493962
0.492354
0.50243
0.515134
0.522826
0.520071
0.521089
0.540683
0.554838
0.555902
0.551498
0.539768
0.527054
0.522041
0.519169
0.513288
0.510307
0.521205
0.612252
7.61972
1.24443
0.334585
0.312299
0.385382
0.41658
0.408715
0.405307
0.419009
0.437192
0.446419
0.448786
0.464103
0.475738
0.468509
0.451571
0.423286
0.392165
0.37009
0.349497
0.316319
0.264723
0.200636
0.0989405
0.0358087
7.59549
1.25247
0.342646
0.312027
0.382936
0.415761
0.409132
0.406055
0.419736
0.437769
0.446927
0.449372
0.464877
0.477114
0.470527
0.45434
0.426897
0.396055
0.374023
0.353421
0.320549
0.269378
0.205791
0.107785
0.0559547
7.38848
1.26595
0.357641
0.311189
0.379092
0.416239
0.412191
0.40999
0.423997
0.442025
0.451215
0.453347
0.468323
0.481212
0.475301
0.459986
0.434006
0.403835
0.382285
0.362123
0.330463
0.280877
0.219559
0.130199
0.0910972
7.05977
1.28899
0.381068
0.307007
0.374179
0.418235
0.417194
0.416026
0.430319
0.448153
0.457494
0.458915
0.472618
0.48672
0.481874
0.467945
0.444168
0.41511
0.394263
0.374836
0.3449
0.297705
0.239599
0.159434
0.128375
6.74196
1.33379
0.415215
0.297805
0.37289
0.422726
0.424122
0.424133
0.438652
0.456115
0.465669
0.466175
0.478107
0.493617
0.490384
0.478235
0.457261
0.429438
0.409403
0.39105
0.36341
0.319477
0.265539
0.194446
0.169313
6.36237
1.40315
0.457917
0.283858
0.374243
0.430244
0.433467
0.434444
0.448903
0.465789
0.475504
0.474918
0.484521
0.50156
0.50056
0.490621
0.472787
0.446537
0.427573
0.410827
0.386231
0.346429
0.297884
0.23587
0.216516
5.98025
1.50385
0.510212
0.270059
0.378591
0.44134
0.445712
0.446954
0.460787
0.476893
0.486591
0.484939
0.492137
0.510466
0.512292
0.504892
0.490271
0.466286
0.448572
0.434133
0.413196
0.378911
0.337253
0.285088
0.273573
5.61507
1.63959
0.574252
0.263805
0.386453
0.456101
0.460798
0.461338
0.474009
0.489112
0.498434
0.495897
0.500705
0.520139
0.525444
0.520715
0.509276
0.488514
0.47224
0.460751
0.444537
0.417514
0.384916
0.34492
0.346601
5.24821
1.80846
0.652654
0.271646
0.399928
0.474139
0.477726
0.476841
0.488079
0.502
0.5106
0.507597
0.51022
0.530346
0.539701
0.537742
0.529744
0.513184
0.498522
0.490173
0.480188
0.462481
0.441929
0.419786
0.444799
4.89256
2.02052
0.74412
0.288569
0.416816
0.49128
0.493946
0.492335
0.502411
0.51511
0.522791
0.520023
0.521102
0.540708
0.554751
0.555769
0.551335
0.539595
0.526941
0.521966
0.519126
0.513255
0.510284
0.521193
0.612236
7.61917
1.24434
0.334573
0.312369
0.385455
0.416636
0.408759
0.405348
0.41905
0.437232
0.446405
0.448765
0.464119
0.475683
0.468436
0.451505
0.423231
0.392156
0.37011
0.349531
0.316345
0.264751
0.200682
0.0990873
0.0364637
7.59705
1.25243
0.34267
0.312085
0.382984
0.415769
0.409113
0.406014
0.419666
0.437669
0.446751
0.44923
0.464832
0.476991
0.470416
0.454282
0.426874
0.396085
0.374072
0.353476
0.320594
0.269424
0.205857
0.107938
0.0563739
7.38896
1.26588
0.357645
0.311262
0.379156
0.416265
0.4122
0.409992
0.423998
0.442034
0.451237
0.453437
0.468463
0.481333
0.475428
0.460121
0.434149
0.403967
0.382393
0.362204
0.330525
0.280939
0.219632
0.13033
0.0913531
7.05936
1.28888
0.381047
0.307082
0.374247
0.418284
0.417237
0.416075
0.430381
0.448237
0.457656
0.459094
0.472716
0.486922
0.482124
0.468188
0.444425
0.415294
0.394397
0.374929
0.344972
0.297776
0.239674
0.159546
0.128559
6.74227
1.33368
0.415196
0.297891
0.372953
0.42278
0.424179
0.424203
0.438735
0.45622
0.465862
0.46636
0.478168
0.493801
0.490644
0.478495
0.457564
0.429657
0.409558
0.391151
0.363484
0.319552
0.265614
0.194544
0.169465
6.36247
1.403
0.457888
0.283948
0.374301
0.430291
0.433518
0.434507
0.44898
0.465884
0.475656
0.475074
0.484648
0.501735
0.500762
0.490835
0.473017
0.44674
0.427733
0.410941
0.386317
0.346509
0.297963
0.235965
0.216654
5.98049
1.50367
0.510175
0.270148
0.378646
0.441379
0.445753
0.447003
0.460847
0.476964
0.486689
0.485043
0.492266
0.510623
0.512456
0.505075
0.490465
0.466478
0.448737
0.434259
0.413292
0.378995
0.337334
0.285178
0.273697
5.61519
1.63938
0.574197
0.263883
0.386504
0.456134
0.460831
0.461376
0.474054
0.489165
0.498497
0.49597
0.50079
0.520244
0.525583
0.520879
0.509456
0.488703
0.472401
0.460881
0.444637
0.4176
0.385
0.345007
0.346709
5.24833
1.80822
0.652579
0.271704
0.399971
0.474166
0.477754
0.476873
0.488116
0.502042
0.510645
0.507666
0.510271
0.53038
0.539808
0.53789
0.529921
0.513387
0.498681
0.490298
0.480281
0.462569
0.442011
0.419863
0.444891
4.89277
2.02023
0.744031
0.288621
0.416857
0.491308
0.493971
0.492365
0.502441
0.515144
0.522826
0.520097
0.521137
0.540671
0.554825
0.555904
0.551507
0.539806
0.527096
0.522082
0.519213
0.513336
0.510362
0.521262
0.612309
4.49343
2.16728
0.802267
0.297998
0.42788
0.501221
0.506693
0.506764
0.516622
0.528184
0.535009
0.533296
0.532968
0.551003
0.570365
0.575054
0.574192
0.567213
0.556368
0.554974
0.560354
0.568816
0.591708
0.648972
0.811673
4.14923
2.24706
0.861129
0.327418
0.439162
0.506648
0.51634
0.520211
0.530495
0.540901
0.547094
0.546853
0.545659
0.561826
0.585757
0.595184
0.598013
0.59568
0.587739
0.589592
0.601685
0.62395
0.666284
0.745101
0.909381
3.83714
2.29435
0.934535
0.372949
0.451825
0.50745
0.524336
0.533743
0.544381
0.553313
0.55905
0.560435
0.559208
0.573141
0.600903
0.615437
0.621127
0.622152
0.618488
0.622709
0.640652
0.670885
0.724509
0.804257
0.941629
3.55661
2.38838
1.00782
0.428118
0.462908
0.502447
0.533697
0.549515
0.558656
0.565639
0.57112
0.57435
0.574295
0.585323
0.615186
0.635212
0.643873
0.648522
0.649894
0.654667
0.675606
0.709254
0.764867
0.839925
0.949918
3.40134
2.43234
1.10428
0.502416
0.467235
0.503433
0.54931
0.567772
0.573558
0.578247
0.583482
0.588556
0.590591
0.599358
0.627922
0.653652
0.665657
0.673746
0.679072
0.684269
0.705855
0.739859
0.792589
0.864899
0.958234
3.25427
2.47104
1.24557
0.593938
0.473074
0.515999
0.569675
0.58721
0.588824
0.591105
0.596125
0.602925
0.607822
0.61466
0.639271
0.669792
0.686579
0.697623
0.705834
0.712804
0.73256
0.765307
0.812864
0.880853
0.962659
3.13014
2.54245
1.43433
0.699365
0.492399
0.538061
0.593309
0.606309
0.604041
0.604288
0.609467
0.61808
0.625852
0.631203
0.650161
0.68369
0.705479
0.719262
0.730581
0.740285
0.755274
0.785688
0.828597
0.889219
0.961823
3.06266
2.64566
1.7035
0.8149
0.508157
0.557593
0.609812
0.622433
0.619404
0.618518
0.624235
0.634411
0.644009
0.648542
0.66195
0.694886
0.721683
0.73902
0.752938
0.765696
0.777954
0.804511
0.843043
0.892972
0.957009
3.01876
2.68012
1.88628
0.923177
0.53017
0.578767
0.616031
0.634106
0.635064
0.633961
0.640609
0.651696
0.661659
0.665952
0.674353
0.703523
0.735313
0.757049
0.773091
0.788068
0.80045
0.820298
0.854217
0.895317
0.948442
2.96407
2.68543
2.05473
1.0695
0.600237
0.5927
0.615011
0.647492
0.653272
0.652207
0.658911
0.669501
0.678611
0.682867
0.686986
0.7093
0.744725
0.771844
0.791368
0.807406
0.823382
0.837016
0.862327
0.89744
0.940219
2.89142
2.67831
2.17945
1.27442
0.700512
0.603024
0.628688
0.666105
0.67361
0.67379
0.679461
0.687449
0.69463
0.698701
0.699971
0.714389
0.751602
0.783706
0.807442
0.824503
0.841285
0.853207
0.87003
0.899806
0.9365
2.81257
2.68263
2.32503
1.53309
0.813861
0.633872
0.657668
0.685199
0.696142
0.697952
0.700352
0.704448
0.709336
0.713196
0.713529
0.721511
0.754534
0.7916
0.819852
0.839814
0.856081
0.871556
0.881794
0.902425
0.933891
2.78096
2.73744
2.4961
1.82494
0.953259
0.675892
0.686695
0.699723
0.716154
0.722205
0.72162
0.72136
0.723459
0.726722
0.72818
0.731842
0.755211
0.797218
0.829871
0.853241
0.870242
0.886193
0.898826
0.910083
0.932068
2.84719
2.83654
2.64402
2.0751
1.12093
0.736277
0.711531
0.715143
0.736557
0.745497
0.741902
0.738316
0.73806
0.740784
0.743681
0.744696
0.75976
0.800305
0.836077
0.863818
0.882719
0.897544
0.912437
0.921082
0.934244
2.92435
2.92969
2.78361
2.31101
1.40593
0.845653
0.738227
0.741831
0.75874
0.767938
0.762675
0.756101
0.753978
0.755983
0.759416
0.760584
0.768021
0.800108
0.841614
0.87177
0.894013
0.909681
0.923318
0.93545
0.940191
2.97985
3.00895
2.91234
2.57273
1.81316
0.968187
0.7717
0.777014
0.779002
0.786558
0.784777
0.77695
0.771872
0.772607
0.776256
0.77838
0.779848
0.800548
0.844038
0.879302
0.903601
0.921136
0.93348
0.94575
0.954733
3.01978
3.0754
3.007
2.757
2.11733
1.14336
0.827588
0.802868
0.797905
0.80595
0.807954
0.79964
0.793367
0.792034
0.794421
0.796894
0.796188
0.804339
0.842523
0.884536
0.912485
0.930412
0.943507
0.953218
0.964054
3.05373
3.13134
3.08401
2.90565
2.39654
1.46304
0.932461
0.830808
0.824852
0.82895
0.829805
0.82488
0.817919
0.814507
0.814705
0.816303
0.81575
0.815241
0.83767
0.884908
0.920031
0.940588
0.953993
0.962721
0.970326
3.07964
3.1758
3.14558
3.02883
2.68866
1.94017
1.07009
0.866465
0.860369
0.852653
0.854778
0.851616
0.845378
0.839062
0.836303
0.836588
0.836247
0.833104
0.838876
0.878354
0.922445
0.949779
0.963954
0.974062
0.97907
3.0998
3.20916
3.18875
3.10785
2.86961
2.26299
1.29821
0.940212
0.890058
0.880655
0.881365
0.88103
0.873118
0.86516
0.860316
0.858325
0.85765
0.854519
0.85153
0.869069
0.917979
0.954426
0.973982
0.983251
0.991316
3.11504
3.23534
3.22229
3.16985
3.01449
2.58355
1.72501
1.04713
0.921476
0.915892
0.909009
0.909981
0.904594
0.895136
0.886478
0.882451
0.880274
0.877158
0.871869
0.873728
0.904248
0.950342
0.980444
0.99368
1.00005
3.12586
3.25384
3.24542
3.21117
3.11019
2.83241
2.16244
1.24391
0.980699
0.947594
0.939126
0.936462
0.937844
0.92718
0.91636
0.908199
0.904312
0.900902
0.895555
0.889276
0.899914
0.93991
0.977406
1.00073
1.00995
3.13342
3.26736
3.26207
3.24001
3.17553
2.99762
2.51706
1.62075
1.06802
0.979348
0.974057
0.9667
0.965406
0.963418
0.948768
0.939043
0.930894
0.925643
0.920036
0.91259
0.908922
0.930973
0.967774
0.9997
1.01805
3.13865
3.27663
3.27293
3.2583
3.21759
3.10791
2.81423
2.12257
1.25199
1.03405
1.00566
0.998818
0.993099
0.995012
0.988523
0.970648
0.960817
0.952706
0.945481
0.938454
0.929323
0.929495
0.960305
0.994713
1.01926
3.14201
3.2822
3.27884
3.26906
3.24381
3.17726
2.99665
2.50895
1.61547
1.11231
1.03853
1.03269
1.02524
1.02144
1.02203
1.01302
0.99431
0.981859
0.972483
0.964589
0.955138
0.945025
0.953392
0.988432
1.01635
3.14161
3.28312
3.28066
3.27517
3.26013
3.22006
3.1127
2.82509
2.13777
1.30323
1.09472
1.06365
1.0594
1.05144
1.05326
1.05019
1.03673
1.01685
1.00206
0.99156
0.982399
0.970273
0.962087
0.979913
1.012
3.13791
3.28219
3.28178
3.27843
3.26945
3.24606
3.18409
3.01564
2.55701
1.69307
1.17105
1.10047
1.09187
1.08623
1.08019
1.08163
1.0773
1.05964
1.03769
1.02125
1.01021
0.998539
0.984751
0.979221
1.00595
3.136
3.2812
3.28257
3.28085
3.27571
3.26202
3.22631
3.13025
2.86938
2.21523
1.39394
1.16184
1.12356
1.12146
1.11324
1.11123
1.11045
1.10338
1.08102
1.05645
1.04013
1.02747
1.01301
0.997476
0.998203
3.13495
3.28034
3.28342
3.28251
3.27964
3.27195
3.25194
3.1993
3.0558
2.66069
1.84657
1.24965
1.16679
1.15269
1.14986
1.14112
1.14145
1.13892
1.12812
1.10024
1.07439
1.05791
1.04305
1.0256
1.01111
3.13441
3.27992
3.28404
3.28358
3.28202
3.27774
3.26657
3.23749
3.15921
2.9429
2.3656
1.53447
1.23231
1.18788
1.1844
1.17644
1.16963
1.17038
1.16622
1.15026
1.11766
1.09257
1.07452
1.05669
1.03707
3.13424
3.27978
3.28446
3.28424
3.28341
3.2811
3.27508
3.25943
3.2185
3.10666
2.79923
2.07098
1.37512
1.2408
1.21618
1.21432
1.20395
1.19908
1.19855
1.19184
1.16913
1.1352
1.11016
1.08952
1.06852
3.13428
3.27975
3.28473
3.28464
3.28423
3.28306
3.27994
3.27176
3.25036
3.1932
3.03443
2.59012
1.77523
1.31058
1.2576
1.24609
1.24215
1.23132
1.22871
1.22577
1.21487
1.18506
1.15203
1.12531
1.1019
3.13436
3.27971
3.28493
3.28491
3.28472
3.28412
3.28251
3.27832
3.26735
3.23843
3.15907
2.93692
2.33646
1.58006
1.31878
1.28215
1.27837
1.26807
1.25823
1.2579
1.25244
1.23544
1.19922
1.16584
1.13793
3.13437
3.27973
3.28503
3.28505
3.28497
3.28469
3.28391
3.28183
3.27639
3.26208