/*--------------------------------*- C++ -*----------------------------------*\
| =========                 |                                                 |
| \\      /  F ield         | OpenFOAM: The Open Source CFD Toolbox           |
|  \\    /   O peration     | Version:  4.1                                   |
|   \\  /    A nd           | Web:      www.OpenFOAM.org                      |
|    \\/     M anipulation  |                                                 |
\*---------------------------------------------------------------------------*/
FoamFile
{
    version     2.0;
    format      ascii;
    class       volScalarField;
    location    "0.86";
    object      p;
}
// * * * * * * * * * * * * * * * * * * * * * * * * * * * * * * * * * * * * * //

dimensions      [1 -1 -2 0 0 0 0];

internalField   nonuniform List<scalar> 
52500
(
0.0289977
0.194448
0.793211
0.779129
0.7226
0.668211
0.627447
0.60279
0.583198
0.569708
0.55916
0.546119
0.540313
0.529415
0.519817
0.514474
0.503324
0.492716
0.478074
0.465541
0.457611
0.460345
0.468735
0.48758
0.516868
0.0291337
0.193744
0.790149
0.778375
0.7232
0.668614
0.627926
0.603359
0.583991
0.570615
0.559874
0.54661
0.540548
0.529502
0.519979
0.514592
0.503397
0.492615
0.47792
0.465495
0.457819
0.460581
0.469201
0.488284
0.517496
0.0305363
0.192737
0.782894
0.776649
0.724258
0.66871
0.628239
0.603946
0.584982
0.571664
0.560424
0.54651
0.540194
0.528908
0.519475
0.513987
0.502722
0.49157
0.476762
0.464444
0.457094
0.459865
0.468643
0.487745
0.516855
0.0329668
0.191161
0.770435
0.777135
0.725886
0.668547
0.628772
0.605103
0.586766
0.573394
0.561398
0.546395
0.539797
0.528136
0.518876
0.513146
0.501726
0.490049
0.475216
0.462897
0.455994
0.458739
0.467622
0.486561
0.515488
0.0355279
0.187781
0.749319
0.783189
0.726081
0.668429
0.62987
0.60702
0.589287
0.575595
0.562428
0.546122
0.539028
0.526988
0.517811
0.511684
0.500204
0.487977
0.473313
0.460743
0.454248
0.45695
0.465775
0.484186
0.512834
0.0389176
0.182339
0.716887
0.795122
0.727506
0.668887
0.631638
0.60967
0.592397
0.578071
0.563403
0.545928
0.537723
0.5255
0.516261
0.509409
0.498191
0.485404
0.471038
0.45796
0.45152
0.454115
0.462513
0.479754
0.50801
0.0427157
0.174071
0.668807
0.81616
0.733125
0.670668
0.634191
0.612884
0.595899
0.580644
0.56432
0.545964
0.536176
0.523782
0.514248
0.506307
0.49596
0.48217
0.468257
0.454586
0.44759
0.449901
0.457271
0.47251
0.499991
0.0467464
0.163016
0.604016
0.844156
0.74476
0.674509
0.637425
0.616617
0.599714
0.583317
0.565359
0.546383
0.534635
0.52188
0.511904
0.502732
0.493505
0.478461
0.464711
0.450352
0.442431
0.443989
0.449278
0.461469
0.486621
0.0512575
0.150264
0.524587
0.876651
0.762893
0.680555
0.641285
0.620765
0.603657
0.58597
0.566585
0.54702
0.533102
0.52001
0.50931
0.499201
0.490479
0.474483
0.460348
0.445212
0.436204
0.435225
0.437902
0.445388
0.464044
0.056097
0.135553
0.425154
0.903864
0.779678
0.686689
0.645585
0.625192
0.607596
0.588536
0.567905
0.54756
0.530824
0.51864
0.506599
0.495931
0.486791
0.47024
0.455361
0.439732
0.428729
0.422721
0.422502
0.422851
0.425807
0.0289839
0.194433
0.793175
0.779093
0.722577
0.668199
0.62743
0.602763
0.583164
0.569682
0.559145
0.546098
0.540291
0.529404
0.519824
0.514488
0.503341
0.492722
0.478065
0.465516
0.457564
0.460296
0.46868
0.487533
0.516864
0.0291353
0.193736
0.79011
0.778334
0.723178
0.668602
0.62791
0.603337
0.583964
0.570589
0.559858
0.546562
0.540541
0.529503
0.519988
0.514605
0.503414
0.492622
0.477914
0.465471
0.457773
0.460533
0.469147
0.488237
0.517489
0.0305335
0.192727
0.782857
0.776609
0.724236
0.668697
0.628222
0.603923
0.584957
0.571635
0.560408
0.546455
0.540193
0.528912
0.519481
0.513996
0.502732
0.491574
0.476754
0.464423
0.45705
0.459819
0.468589
0.487698
0.516844
0.0329549
0.191147
0.770401
0.777096
0.725871
0.668535
0.628757
0.605082
0.586742
0.57337
0.561385
0.546362
0.539792
0.528139
0.518876
0.513158
0.501731
0.490051
0.475201
0.462881
0.455953
0.458696
0.467571
0.486514
0.515469
0.0355229
0.187771
0.749284
0.783153
0.726068
0.668418
0.629856
0.607005
0.589263
0.575572
0.56242
0.546101
0.539024
0.526984
0.517806
0.511692
0.500202
0.487975
0.473297
0.460728
0.454211
0.456911
0.465725
0.484136
0.512807
0.0389114
0.18233
0.716859
0.795088
0.727496
0.668877
0.631626
0.609654
0.592374
0.578051
0.563401
0.545918
0.537732
0.525498
0.516256
0.509422
0.498181
0.485398
0.471019
0.457946
0.451489
0.454081
0.462466
0.479703
0.507977
0.042713
0.174066
0.668784
0.816124
0.733111
0.670659
0.634181
0.612871
0.595878
0.580629
0.564318
0.545941
0.536196
0.523783
0.514241
0.506333
0.495926
0.482176
0.468242
0.454574
0.447564
0.449874
0.45723
0.472459
0.499951
0.0467434
0.16301
0.603994
0.844126
0.744749
0.674501
0.637416
0.616604
0.599697
0.583308
0.565355
0.54635
0.534654
0.521881
0.511894
0.502752
0.493464
0.478471
0.464709
0.450354
0.442407
0.443961
0.449241
0.461425
0.486576
0.051255
0.150257
0.524562
0.876629
0.762889
0.680549
0.641277
0.620753
0.603646
0.585968
0.566579
0.546988
0.53315
0.519994
0.509303
0.499208
0.490457
0.474484
0.460351
0.445213
0.436192
0.435197
0.437869
0.44535
0.463999
0.0560966
0.135545
0.425115
0.903846
0.779677
0.686683
0.645575
0.625181
0.607587
0.588537
0.567905
0.547541
0.530884
0.518611
0.506594
0.495935
0.486779
0.47024
0.455367
0.439725
0.428726
0.422699
0.422472
0.422817
0.425767
0.0289927
0.194434
0.793162
0.779095
0.722582
0.668198
0.627433
0.602776
0.583184
0.569693
0.559145
0.546134
0.540307
0.529419
0.519825
0.514482
0.503325
0.492706
0.478047
0.465504
0.45757
0.460306
0.468705
0.487564
0.516876
0.0291323
0.193731
0.790099
0.778339
0.723183
0.668601
0.627912
0.603346
0.583979
0.570601
0.55986
0.546615
0.540545
0.529507
0.519988
0.5146
0.503399
0.492606
0.477895
0.46546
0.45778
0.460543
0.469171
0.488267
0.517502
0.0305352
0.192724
0.782842
0.776614
0.724242
0.668697
0.628225
0.603932
0.584969
0.571651
0.560411
0.546504
0.540193
0.528914
0.519484
0.513995
0.502725
0.491562
0.476739
0.464413
0.457058
0.459831
0.468613
0.487728
0.516859
0.0329624
0.191145
0.770373
0.777114
0.725871
0.668534
0.628758
0.605088
0.586753
0.573382
0.561387
0.546384
0.539795
0.528142
0.518886
0.513161
0.501732
0.490044
0.475193
0.462873
0.455963
0.458708
0.467595
0.486543
0.515488
0.035526
0.187765
0.749252
0.783171
0.726069
0.668418
0.629856
0.607005
0.589273
0.575583
0.562418
0.546106
0.539028
0.526993
0.51782
0.511696
0.500209
0.487974
0.473296
0.460721
0.45422
0.456923
0.465749
0.484166
0.51283
0.0389149
0.182321
0.716811
0.795111
0.727498
0.668877
0.631625
0.609654
0.592382
0.578057
0.563394
0.545929
0.537719
0.525507
0.516273
0.509416
0.498201
0.4854
0.471026
0.457941
0.451496
0.454091
0.462489
0.479734
0.508003
0.0427145
0.174053
0.668719
0.816155
0.733121
0.67066
0.634179
0.612869
0.595883
0.580631
0.564311
0.545965
0.536173
0.523788
0.514259
0.506315
0.495969
0.482166
0.468247
0.454569
0.44757
0.449881
0.45725
0.47249
0.499979
0.0467451
0.162996
0.603918
0.844157
0.744762
0.674502
0.637413
0.616601
0.599699
0.583306
0.56535
0.546376
0.534634
0.521885
0.511911
0.502741
0.493504
0.478461
0.464706
0.45034
0.442413
0.443971
0.44926
0.461451
0.486606
0.0512564
0.150243
0.524479
0.876657
0.762903
0.68055
0.641273
0.620749
0.603644
0.585961
0.566577
0.547009
0.533113
0.520011
0.509315
0.499208
0.490479
0.474481
0.460344
0.445202
0.436191
0.435208
0.437885
0.445372
0.464028
0.0560975
0.13553
0.425025
0.903858
0.779685
0.686684
0.645572
0.625177
0.607583
0.588529
0.567901
0.547551
0.530845
0.518633
0.506603
0.495936
0.486791
0.470237
0.455357
0.439721
0.42872
0.422707
0.422487
0.422837
0.425793
0.0289911
0.194427
0.793141
0.779083
0.722582
0.6682
0.627434
0.602778
0.583186
0.569697
0.559152
0.546144
0.540321
0.529437
0.519844
0.514499
0.503335
0.492708
0.47804
0.465491
0.457551
0.460286
0.468683
0.487544
0.516865
0.0291317
0.193725
0.790077
0.778327
0.723183
0.668603
0.627914
0.603348
0.583981
0.570605
0.559867
0.546623
0.54056
0.529526
0.520007
0.514618
0.50341
0.492608
0.477888
0.465447
0.457761
0.460524
0.46915
0.488248
0.517491
0.0305343
0.192718
0.78282
0.776603
0.724242
0.668698
0.628226
0.603934
0.584972
0.571654
0.560418
0.54651
0.540207
0.528932
0.519503
0.514012
0.502735
0.491563
0.47673
0.464402
0.45704
0.459811
0.468593
0.487708
0.516848
0.0329618
0.191139
0.770347
0.77711
0.725868
0.668536
0.62876
0.605091
0.586757
0.573386
0.561394
0.546392
0.539808
0.528161
0.518904
0.513176
0.50174
0.490044
0.475185
0.462861
0.455944
0.45869
0.467575
0.486525
0.515477
0.0355255
0.187758
0.749223
0.783169
0.726069
0.66842
0.62986
0.607009
0.589276
0.575586
0.562426
0.546117
0.539043
0.527009
0.517835
0.511709
0.500215
0.487972
0.473288
0.46071
0.454203
0.456906
0.465731
0.484149
0.512819
0.0389147
0.182314
0.716778
0.795115
0.7275
0.66888
0.63163
0.609659
0.592385
0.578062
0.563405
0.545934
0.537739
0.525521
0.516285
0.509433
0.498201
0.485397
0.471014
0.457931
0.451482
0.454077
0.462472
0.479718
0.507993
0.0427149
0.174045
0.668682
0.816164
0.733127
0.670664
0.634184
0.612874
0.595887
0.580637
0.564322
0.545964
0.536196
0.523802
0.514268
0.506338
0.495957
0.482172
0.468238
0.454561
0.447558
0.449869
0.457236
0.472476
0.499969
0.0467461
0.162989
0.603879
0.84417
0.74477
0.674507
0.637418
0.616606
0.599703
0.583313
0.565359
0.546375
0.534655
0.521897
0.511918
0.502759
0.493495
0.478467
0.464701
0.450337
0.442402
0.44396
0.449248
0.461439
0.486596
0.0512579
0.150236
0.524437
0.876671
0.762913
0.680555
0.641277
0.620753
0.603647
0.585967
0.566585
0.547011
0.533139
0.520016
0.509323
0.499221
0.490479
0.474483
0.46034
0.445198
0.436184
0.435199
0.437876
0.445362
0.464019
0.0560996
0.135522
0.424973
0.903866
0.779693
0.686688
0.645576
0.62518
0.607586
0.588534
0.567908
0.547556
0.530862
0.518639
0.506612
0.495949
0.486795
0.47024
0.455355
0.439716
0.428714
0.422699
0.422479
0.422828
0.425784
0.0289996
0.194424
0.793111
0.779079
0.722589
0.668199
0.627439
0.602789
0.583205
0.569717
0.559167
0.54615
0.540323
0.529435
0.519841
0.514494
0.503332
0.492706
0.478043
0.465497
0.457562
0.460298
0.468695
0.487552
0.516862
0.0291394
0.193721
0.790047
0.778326
0.72319
0.668602
0.627918
0.603359
0.584
0.570625
0.559881
0.546629
0.540561
0.529524
0.520003
0.514613
0.503405
0.492604
0.477889
0.465452
0.457771
0.460535
0.469162
0.488255
0.517489
0.030542
0.192714
0.782791
0.776605
0.724248
0.668697
0.628232
0.603946
0.584991
0.571673
0.56043
0.546516
0.540209
0.52893
0.519499
0.514007
0.50273
0.491559
0.47673
0.464405
0.457048
0.459821
0.468604
0.487717
0.516848
0.0329718
0.191135
0.770306
0.777135
0.725862
0.668532
0.628766
0.605104
0.586775
0.573402
0.561405
0.546395
0.539809
0.528158
0.5189
0.513169
0.501734
0.490039
0.475183
0.462862
0.455951
0.458697
0.467585
0.486534
0.515479
0.0355329
0.187751
0.749175
0.783197
0.726069
0.668421
0.629868
0.607024
0.589293
0.575601
0.562434
0.546126
0.53904
0.527007
0.517831
0.511703
0.50021
0.487966
0.473284
0.460708
0.454208
0.456911
0.46574
0.48416
0.512824
0.0389226
0.182302
0.716708
0.795158
0.727504
0.668884
0.63164
0.609673
0.592401
0.578076
0.563412
0.545931
0.537737
0.525515
0.516278
0.509426
0.498194
0.485389
0.471009
0.457927
0.451485
0.45408
0.462481
0.47973
0.507999
0.0427208
0.174028
0.668589
0.816222
0.733145
0.670672
0.634195
0.612889
0.595901
0.580648
0.564329
0.545959
0.536196
0.523797
0.51426
0.506332
0.495948
0.482164
0.46823
0.454556
0.447559
0.449872
0.457244
0.472487
0.499977
0.0467521
0.162971
0.603773
0.84423
0.744795
0.674518
0.637429
0.61662
0.599716
0.58332
0.565365
0.546377
0.534654
0.521892
0.511913
0.502752
0.493488
0.478458
0.464692
0.450331
0.442402
0.443962
0.449255
0.461449
0.486605
0.0512634
0.150218
0.524322
0.876729
0.762941
0.680567
0.641289
0.620767
0.603659
0.585973
0.566589
0.547015
0.533128
0.520012
0.509317
0.499215
0.490472
0.474475
0.460332
0.445192
0.436182
0.435204
0.437882
0.445371
0.464028
0.0561049
0.135504
0.424844
0.903901
0.779711
0.6867
0.645587
0.625193
0.607596
0.588538
0.567909
0.547559
0.53084
0.51864
0.506604
0.495943
0.486788
0.470233
0.455347
0.439711
0.428712
0.422703
0.422486
0.422836
0.425793
0.0289967
0.194422
0.793111
0.779076
0.722588
0.6682
0.627438
0.602787
0.583201
0.569713
0.559164
0.546153
0.540326
0.52944
0.519846
0.5145
0.503336
0.49271
0.478044
0.465497
0.457559
0.460295
0.468691
0.487547
0.516859
0.029137
0.19372
0.790047
0.778322
0.723188
0.668603
0.627918
0.603357
0.583996
0.570621
0.559879
0.546631
0.540564
0.529529
0.520008
0.514619
0.50341
0.492608
0.477891
0.465453
0.457769
0.460532
0.469158
0.488251
0.517486
0.0305397
0.192713
0.782791
0.776601
0.724247
0.668698
0.628231
0.603943
0.584987
0.571669
0.560428
0.546517
0.540212
0.528935
0.519504
0.514013
0.502735
0.491563
0.476732
0.464406
0.457047
0.459819
0.4686
0.487713
0.516844
0.0329686
0.191134
0.770309
0.777127
0.725863
0.668534
0.628765
0.605101
0.586771
0.573398
0.561403
0.546396
0.539812
0.528162
0.518905
0.513175
0.501739
0.490043
0.475185
0.462863
0.45595
0.458695
0.467582
0.48653
0.515476
0.0355306
0.187751
0.74918
0.783188
0.726068
0.668421
0.629866
0.60702
0.589289
0.575598
0.562433
0.546127
0.539043
0.527011
0.517836
0.51171
0.500214
0.48797
0.473286
0.46071
0.454207
0.45691
0.465737
0.484156
0.512821
0.03892
0.182303
0.716719
0.795146
0.727503
0.668883
0.631637
0.609669
0.592397
0.578073
0.563411
0.545932
0.537741
0.525519
0.516283
0.509431
0.498198
0.485393
0.471011
0.457928
0.451484
0.454079
0.462479
0.479726
0.507997
0.0427188
0.174031
0.668606
0.816206
0.73314
0.67067
0.634192
0.612885
0.595897
0.580645
0.564328
0.54596
0.536199
0.523801
0.514265
0.506337
0.495952
0.482168
0.468233
0.454557
0.447559
0.449871
0.457242
0.472484
0.499975
0.04675
0.162974
0.603795
0.844214
0.744788
0.674515
0.637426
0.616616
0.599712
0.583318
0.565364
0.546377
0.534657
0.521896
0.511917
0.502757
0.493492
0.478462
0.464695
0.450333
0.442402
0.443962
0.449254
0.461447
0.486603
0.0512615
0.150221
0.524347
0.876713
0.762933
0.680563
0.641285
0.620762
0.603655
0.58597
0.566589
0.547016
0.533131
0.520015
0.50932
0.499219
0.490476
0.474479
0.460335
0.445193
0.436183
0.435203
0.437881
0.445369
0.464026
0.056103
0.135508
0.424875
0.90389
0.779706
0.686696
0.645583
0.625189
0.607593
0.588536
0.567908
0.54756
0.530844
0.518642
0.506607
0.495947
0.486792
0.470237
0.45535
0.439713
0.428713
0.422702
0.422485
0.422835
0.425792
0.028991
0.194427
0.793141
0.779083
0.722582
0.6682
0.627434
0.602778
0.583186
0.569697
0.559152
0.546144
0.540321
0.529437
0.519845
0.514499
0.503336
0.492708
0.478041
0.465491
0.457551
0.460286
0.468683
0.487544
0.516865
0.0291316
0.193724
0.790077
0.778327
0.723183
0.668603
0.627914
0.603348
0.583981
0.570605
0.559867
0.546623
0.54056
0.529526
0.520007
0.514618
0.50341
0.492608
0.477888
0.465447
0.457761
0.460524
0.46915
0.488247
0.517491
0.0305342
0.192718
0.78282
0.776603
0.724242
0.668698
0.628226
0.603934
0.584972
0.571654
0.560418
0.54651
0.540207
0.528932
0.519503
0.514012
0.502735
0.491563
0.476731
0.464402
0.45704
0.459811
0.468593
0.487708
0.516848
0.0329618
0.191139
0.770347
0.77711
0.725868
0.668536
0.62876
0.605091
0.586757
0.573386
0.561394
0.546392
0.539808
0.528161
0.518904
0.513176
0.50174
0.490045
0.475185
0.462861
0.455944
0.45869
0.467575
0.486525
0.515477
0.0355255
0.187758
0.749223
0.783169
0.726069
0.66842
0.62986
0.607009
0.589276
0.575586
0.562426
0.546117
0.539043
0.527009
0.517835
0.51171
0.500215
0.487972
0.473288
0.46071
0.454203
0.456906
0.465731
0.484149
0.512819
0.0389147
0.182314
0.716778
0.795115
0.7275
0.66888
0.63163
0.609659
0.592385
0.578062
0.563405
0.545934
0.537739
0.525521
0.516285
0.509433
0.498202
0.485397
0.471014
0.457931
0.451482
0.454077
0.462472
0.479718
0.507993
0.0427149
0.174045
0.668682
0.816164
0.733126
0.670664
0.634184
0.612874
0.595887
0.580637
0.564322
0.545964
0.536196
0.523802
0.514268
0.506338
0.495957
0.482172
0.468238
0.454561
0.447558
0.449869
0.457236
0.472476
0.499969
0.0467461
0.162989
0.603879
0.844169
0.74477
0.674507
0.637418
0.616606
0.599703
0.583312
0.565359
0.546375
0.534655
0.521898
0.511919
0.502759
0.493495
0.478467
0.464701
0.450337
0.442402
0.44396
0.449248
0.461439
0.486596
0.0512579
0.150236
0.524438
0.876671
0.762913
0.680555
0.641277
0.620753
0.603647
0.585967
0.566585
0.547011
0.533139
0.520016
0.509323
0.499221
0.490479
0.474483
0.46034
0.445198
0.436184
0.435199
0.437876
0.445362
0.464018
0.0560995
0.135522
0.424973
0.903866
0.779693
0.686688
0.645576
0.62518
0.607586
0.588534
0.567908
0.547556
0.530862
0.51864
0.506612
0.495949
0.486795
0.47024
0.455355
0.439716
0.428714
0.422699
0.422479
0.422828
0.425784
0.0289927
0.194434
0.793162
0.779094
0.722582
0.668198
0.627433
0.602776
0.583184
0.569693
0.559145
0.546134
0.540307
0.529419
0.519825
0.514482
0.503325
0.492706
0.478047
0.465504
0.45757
0.460306
0.468705
0.487564
0.516876
0.0291323
0.193731
0.790099
0.778339
0.723183
0.668601
0.627912
0.603346
0.583979
0.570601
0.55986
0.546615
0.540545
0.529507
0.519988
0.5146
0.503399
0.492606
0.477895
0.46546
0.45778
0.460543
0.469171
0.488267
0.517502
0.0305352
0.192724
0.782842
0.776614
0.724242
0.668697
0.628225
0.603932
0.584969
0.571651
0.560411
0.546504
0.540193
0.528914
0.519484
0.513995
0.502725
0.491562
0.476739
0.464413
0.457058
0.459831
0.468613
0.487728
0.516859
0.0329624
0.191145
0.770373
0.777114
0.725871
0.668534
0.628758
0.605088
0.586753
0.573382
0.561387
0.546384
0.539795
0.528142
0.518886
0.513161
0.501732
0.490045
0.475193
0.462873
0.455963
0.458708
0.467595
0.486543
0.515488
0.035526
0.187765
0.749252
0.783171
0.726069
0.668418
0.629856
0.607005
0.589273
0.575583
0.562418
0.546106
0.539028
0.526993
0.51782
0.511696
0.500209
0.487974
0.473296
0.460721
0.45422
0.456923
0.465749
0.484166
0.51283
0.0389149
0.182321
0.716811
0.795111
0.727498
0.668877
0.631625
0.609654
0.592382
0.578057
0.563394
0.545929
0.537719
0.525507
0.516273
0.509416
0.498201
0.4854
0.471026
0.457941
0.451496
0.454091
0.462489
0.479734
0.508003
0.0427145
0.174053
0.668719
0.816155
0.733121
0.67066
0.634179
0.612869
0.595883
0.580631
0.564311
0.545965
0.536173
0.523788
0.514259
0.506315
0.495969
0.482166
0.468247
0.454569
0.44757
0.449881
0.45725
0.47249
0.499979
0.0467451
0.162996
0.603918
0.844157
0.744762
0.674502
0.637413
0.616601
0.599699
0.583306
0.56535
0.546376
0.534634
0.521885
0.511911
0.502741
0.493504
0.478461
0.464706
0.45034
0.442413
0.443971
0.44926
0.461451
0.486606
0.0512564
0.150243
0.524479
0.876657
0.762903
0.68055
0.641273
0.620749
0.603644
0.585961
0.566577
0.547009
0.533113
0.520011
0.509315
0.499208
0.490479
0.474481
0.460344
0.445202
0.436191
0.435208
0.437885
0.445372
0.464028
0.0560975
0.13553
0.425025
0.903858
0.779685
0.686684
0.645572
0.625177
0.607583
0.588529
0.567901
0.547551
0.530845
0.518633
0.506603
0.495936
0.486791
0.470237
0.455357
0.439721
0.42872
0.422707
0.422487
0.422837
0.425793
0.0289839
0.194433
0.793175
0.779093
0.722577
0.668199
0.627431
0.602763
0.583163
0.569682
0.559144
0.546098
0.540291
0.529404
0.519824
0.514488
0.503341
0.492722
0.478065
0.465516
0.457564
0.460296
0.46868
0.487533
0.516864
0.0291352
0.193736
0.79011
0.778334
0.723178
0.668602
0.62791
0.603336
0.583964
0.570589
0.559858
0.546562
0.540541
0.529502
0.519988
0.514605
0.503414
0.492622
0.477914
0.465471
0.457773
0.460533
0.469147
0.488237
0.517489
0.0305335
0.192727
0.782857
0.776609
0.724236
0.668697
0.628222
0.603923
0.584957
0.571635
0.560408
0.546455
0.540193
0.528911
0.51948
0.513996
0.502732
0.491574
0.476754
0.464423
0.45705
0.459819
0.468589
0.487698
0.516844
0.0329549
0.191147
0.770401
0.777096
0.725871
0.668535
0.628757
0.605082
0.586742
0.57337
0.561385
0.546362
0.539792
0.528139
0.518876
0.513158
0.501731
0.490051
0.475202
0.462881
0.455953
0.458696
0.467571
0.486514
0.515469
0.0355229
0.187771
0.749284
0.783153
0.726068
0.668418
0.629856
0.607004
0.589263
0.575572
0.56242
0.546101
0.539024
0.526983
0.517805
0.511692
0.500201
0.487975
0.473297
0.460728
0.454211
0.456911
0.465725
0.484136
0.512807
0.0389114
0.18233
0.716859
0.795088
0.727496
0.668877
0.631626
0.609654
0.592374
0.57805
0.5634
0.545918
0.537732
0.525497
0.516256
0.509422
0.49818
0.485398
0.471019
0.457947
0.451489
0.454081
0.462466
0.479703
0.507977
0.042713
0.174066
0.668783
0.816124
0.733111
0.670659
0.634181
0.612871
0.595878
0.580629
0.564317
0.545941
0.536196
0.523783
0.51424
0.506332
0.495926
0.482176
0.468242
0.454574
0.447564
0.449874
0.45723
0.47246
0.499951
0.0467434
0.16301
0.603993
0.844126
0.744749
0.674501
0.637416
0.616604
0.599697
0.583308
0.565355
0.54635
0.534654
0.521881
0.511894
0.502752
0.493464
0.478471
0.464709
0.450354
0.442407
0.443961
0.449241
0.461425
0.486576
0.051255
0.150257
0.524562
0.876629
0.762889
0.680549
0.641276
0.620753
0.603646
0.585967
0.566578
0.546988
0.53315
0.519994
0.509303
0.499208
0.490457
0.474484
0.460351
0.445213
0.436192
0.435197
0.437869
0.44535
0.463999
0.0560967
0.135545
0.425115
0.903846
0.779677
0.686683
0.645575
0.625181
0.607587
0.588537
0.567905
0.547541
0.530883
0.51861
0.506593
0.495935
0.486779
0.47024
0.455367
0.439725
0.428726
0.4227
0.422472
0.422817
0.425767
0.0289878
0.194445
0.79322
0.77912
0.722593
0.668216
0.627448
0.602783
0.583175
0.569682
0.559139
0.546134
0.540294
0.5294
0.519805
0.514465
0.50332
0.492719
0.478079
0.465543
0.457611
0.460344
0.468735
0.487585
0.516872
0.0291251
0.193741
0.790158
0.778363
0.723193
0.66862
0.627927
0.603351
0.583972
0.570595
0.559855
0.546602
0.540534
0.529489
0.519968
0.514582
0.503392
0.492616
0.477925
0.465497
0.45782
0.460581
0.469203
0.488288
0.5175
0.0305303
0.192736
0.782904
0.776636
0.724252
0.668716
0.628237
0.603936
0.584966
0.571646
0.560406
0.546472
0.540186
0.5289
0.519471
0.513978
0.50272
0.491571
0.476768
0.464446
0.457096
0.459867
0.468645
0.487749
0.516859
0.0329583
0.19116
0.770454
0.777107
0.725892
0.668553
0.628768
0.60509
0.586751
0.573377
0.561383
0.546357
0.539783
0.528136
0.518873
0.513138
0.501723
0.490049
0.475224
0.462897
0.455996
0.458741
0.467624
0.486565
0.515491
0.0355205
0.187784
0.749347
0.783161
0.726084
0.668433
0.629864
0.607006
0.589269
0.575581
0.562419
0.546095
0.539021
0.526982
0.517799
0.51167
0.500197
0.48797
0.473321
0.46074
0.454249
0.456951
0.465776
0.484187
0.512835
0.0389109
0.182347
0.716936
0.795086
0.727507
0.668888
0.631632
0.609656
0.592377
0.578058
0.563404
0.545902
0.537726
0.52549
0.516247
0.509403
0.498177
0.485396
0.471034
0.457961
0.451523
0.454117
0.462514
0.479753
0.508008
0.0427109
0.174084
0.668877
0.816113
0.733113
0.670667
0.634186
0.612873
0.595879
0.580631
0.564323
0.545931
0.536193
0.523776
0.514227
0.506318
0.495917
0.482177
0.468251
0.454589
0.447594
0.449905
0.457273
0.472507
0.499986
0.0467426
0.163031
0.604098
0.84411
0.744743
0.674505
0.637421
0.616606
0.599696
0.583305
0.565357
0.546353
0.534649
0.521872
0.511881
0.502734
0.493462
0.478468
0.464712
0.450365
0.442431
0.44399
0.449279
0.461466
0.486614
0.0512542
0.150278
0.524677
0.876611
0.762876
0.680551
0.641282
0.620757
0.603644
0.58596
0.56658
0.546999
0.53313
0.519989
0.509289
0.499197
0.490456
0.474482
0.460348
0.445218
0.436209
0.435227
0.437901
0.445384
0.464036
0.0560943
0.135567
0.425247
0.903844
0.779669
0.686685
0.645581
0.625187
0.607587
0.588529
0.567901
0.54755
0.530839
0.518621
0.506585
0.495928
0.486775
0.470238
0.455361
0.439734
0.428733
0.422722
0.422501
0.422847
0.4258
0.0627429
0.128943
0.363458
0.895949
0.783109
0.69094
0.649981
0.629788
0.611339
0.590838
0.568986
0.547805
0.528469
0.517605
0.504259
0.492828
0.482475
0.465794
0.450056
0.434101
0.420348
0.409647
0.401113
0.381939
0.331691
0.0695819
0.128188
0.33432
0.866521
0.780359
0.69506
0.655759
0.634832
0.614779
0.592703
0.569621
0.547619
0.527128
0.516205
0.502531
0.490175
0.477398
0.46183
0.44442
0.428109
0.411395
0.396532
0.380217
0.352208
0.296367
0.0766892
0.129316
0.313369
0.826979
0.775776
0.702149
0.663198
0.639851
0.617495
0.593821
0.569667
0.547132
0.526858
0.51508
0.501248
0.487927
0.472923
0.458398
0.438826
0.421818
0.403073
0.384893
0.363837
0.333515
0.288415
0.0834841
0.129367
0.29635
0.787532
0.769519
0.716044
0.672248
0.644261
0.619293
0.59432
0.569396
0.546563
0.526941
0.513934
0.500444
0.485878
0.469684
0.454635
0.433896
0.415859
0.396112
0.375315
0.353436
0.324179
0.286666
0.0875732
0.128187
0.278434
0.739552
0.769909
0.733156
0.680663
0.647708
0.620552
0.594259
0.568249
0.546068
0.527299
0.512224
0.501023
0.484522
0.467386
0.450464
0.43021
0.410911
0.39094
0.368843
0.346616
0.318989
0.286723
0.0915192
0.126261
0.257979
0.673231
0.783924
0.744154
0.686386
0.650116
0.620826
0.592953
0.567105
0.546023
0.528389
0.512389
0.501483
0.484235
0.465965
0.446839
0.428382
0.406741
0.386984
0.364754
0.342441
0.316635
0.287329
0.0945658
0.122401
0.233429
0.595226
0.82204
0.764953
0.692313
0.650812
0.619844
0.591433
0.566704
0.547311
0.530662
0.513298
0.501983
0.484245
0.465048
0.445095
0.426791
0.404309
0.384256
0.362726
0.339682
0.31631
0.289001
0.0955359
0.114929
0.194612
0.450525
0.839118
0.777349
0.695801
0.65105
0.618105
0.590194
0.567701
0.5503
0.533546
0.515585
0.501835
0.484598
0.464995
0.444979
0.425202
0.404439
0.383085
0.362155
0.339586
0.316505
0.292329
0.0963363
0.110777
0.171773
0.359055
0.813927
0.772137
0.698278
0.651483
0.616077
0.590024
0.570775
0.553963
0.536791
0.518464
0.501326
0.485823
0.465392
0.445274
0.42521
0.404954
0.383102
0.362263
0.340233
0.317732
0.296077
0.0976805
0.108155
0.156223
0.307994
0.741812
0.749407
0.707208
0.652547
0.615384
0.59206
0.575062
0.558103
0.540298
0.520948
0.501694
0.486648
0.466357
0.446066
0.425828
0.406058
0.384211
0.362896
0.342154
0.320898
0.29965
0.0997322
0.106986
0.144199
0.266584
0.634777
0.75034
0.718085
0.65509
0.617151
0.597681
0.580519
0.562495
0.543486
0.523328
0.502674
0.486516
0.467503
0.447885
0.427527
0.407567
0.387048
0.364969
0.345215
0.325014
0.304519
0.101835
0.105779
0.132963
0.227496
0.52271
0.761292
0.73129
0.664954
0.627711
0.606411
0.586852
0.566922
0.546359
0.525673
0.504625
0.486205
0.470578
0.451142
0.430867
0.410631
0.390874
0.369898
0.348773
0.329438
0.30967
0.101907
0.102909
0.120771
0.186064
0.381183
0.763151
0.740807
0.685784
0.642381
0.615263
0.593001
0.57112
0.549262
0.528334
0.507809
0.487786
0.473768
0.454732
0.434896
0.414913
0.394429
0.375038
0.353411
0.334138
0.315322
0.0991943
0.0959248
0.108451
0.157614
0.312161
0.724548
0.73664
0.708199
0.655735
0.623411
0.598588
0.575133
0.552428
0.531256
0.511236
0.491184
0.476196
0.458269
0.438969
0.418816
0.398684
0.37915
0.359835
0.338859
0.320823
0.0965561
0.0882833
0.0973034
0.13327
0.254161
0.623837
0.737949
0.719037
0.675154
0.634141
0.604568
0.579097
0.555907
0.534715
0.515299
0.495646
0.477436
0.463429
0.443592
0.423772
0.40396
0.38393
0.365027
0.345418
0.326448
0.0948448
0.0817512
0.087632
0.110718
0.188773
0.433612
0.739281
0.726479
0.688658
0.643422
0.609929
0.583038
0.559902
0.538975
0.519607
0.500249
0.48059
0.466887
0.448038
0.42877
0.408968
0.389516
0.370255
0.351894
0.333049
0.0936795
0.0769258
0.0809919
0.0968308
0.149748
0.312732
0.707713
0.725028
0.702456
0.652901
0.614888
0.587195
0.564563
0.543811
0.524229
0.505273
0.485847
0.468094
0.454052
0.434357
0.414872
0.395609
0.376408
0.358194
0.340412
0.0927076
0.073022
0.0758305
0.0867517
0.123113
0.243573
0.605718
0.721897
0.706319
0.666817
0.623296
0.593839
0.570549
0.549399
0.529341
0.51018
0.490726
0.471627
0.458366
0.439897
0.420989
0.401859
0.383244
0.364711
0.347444
0.0919825
0.0699462
0.0717575
0.0786141
0.100249
0.16966
0.382396
0.709409
0.705997
0.682105
0.63636
0.602424
0.577258
0.555296
0.534638
0.515118
0.496171
0.477376
0.460039
0.446961
0.427828
0.408828
0.390049
0.37214
0.354589
0.0914133
0.0677249
0.0689631
0.0736298
0.0881352
0.134049
0.277438
0.646314
0.701918
0.686679
0.651465
0.613585
0.585169
0.561762
0.540331
0.520364
0.501496
0.482967
0.464359
0.451688
0.433962
0.415814
0.39771
0.379579
0.362438
0.0909965
0.0659621
0.0667627
0.069791
0.0790433
0.107555
0.201568
0.491859
0.69047
0.686239
0.665999
0.627273
0.594273
0.568483
0.546403
0.526094
0.507102
0.489021
0.471003
0.454219
0.441569
0.423443
0.405489
0.387893
0.370548
0.0907005
0.0647341
0.065251
0.0672282
0.0730872
0.0902883
0.143973
0.303211
0.652814
0.684481
0.672576
0.643145
0.60583
0.57643
0.553084
0.532329
0.513128
0.494942
0.477546
0.459671
0.446885
0.430481
0.413291
0.396205
0.379334
0.090499
0.0638353
0.0641556
0.0654262
0.0691566
0.0798787
0.112662
0.219976
0.537977
0.677501
0.672915
0.655079
0.620251
0.586497
0.560957
0.539372
0.519798
0.501214
0.484166
0.466623
0.450677
0.438308
0.421589
0.405011
0.388485
0.0903603
0.0632369
0.0634275
0.0642262
0.0665525
0.0729767
0.0913799
0.148553
0.313879
0.648049
0.671491
0.661116
0.635769
0.598202
0.569371
0.546776
0.526685
0.50791
0.490761
0.473813
0.457465
0.442451
0.43041
0.413957
0.397961
0.0902796
0.062841
0.0629443
0.0634297
0.0648734
0.0687972
0.0798385
0.113503
0.222849
0.539387
0.66337
0.660409
0.645824
0.615925
0.581566
0.555861
0.534642
0.515342
0.497551
0.481132
0.464856
0.448986
0.437592
0.422533
0.407379
0.0903214
0.062638
0.0626848
0.0629762
0.063853
0.0662234
0.0725928
0.0907529
0.147025
0.308065
0.628354
0.657468
0.649706
0.630341
0.593549
0.565237
0.542832
0.523271
0.50504
0.488628
0.472736
0.45699
0.442905
0.4319
0.41709
0.0904317
0.0626952
0.062547
0.0626898
0.0631832
0.0645645
0.068266
0.0786155
0.110011
0.211462
0.505441
0.64499
0.648037
0.637914
0.612385
0.578656
0.55294
0.531639
0.512987
0.496502
0.480788
0.465562
0.45115
0.437453
0.427453
0.0904744
0.0628416
0.0623705
0.062454
0.0627472
0.0635629
0.0657292
0.0715333
0.0881317
0.13973
0.28694
0.5945
0.643955
0.639219
0.624384
0.59332
0.565287
0.542153
0.522177
0.504747
0.48925
0.474317
0.459975
0.445963
0.43588
0.090496
0.0629402
0.0622551
0.0623019
0.0624688
0.0629317
0.0641562
0.0673579
0.0762078
0.102662
0.187826
0.438296
0.623928
0.637356
0.629691
0.609488
0.578179
0.552998
0.532391
0.513993
0.498259
0.483363
0.469304
0.455523
0.443123
0.0905055
0.0629953
0.0621842
0.0622092
0.0623016
0.0625624
0.0632504
0.0650525
0.0698466
0.083603
0.126538
0.255315
0.547511
0.629242
0.628237
0.619005
0.597028
0.567072
0.543458
0.524126
0.507645
0.492916
0.478825
0.465571
0.453052
0.0905063