/*--------------------------------*- C++ -*----------------------------------*\
| =========                 |                                                 |
| \\      /  F ield         | OpenFOAM: The Open Source CFD Toolbox           |
|  \\    /   O peration     | Version:  4.1                                   |
|   \\  /    A nd           | Web:      www.OpenFOAM.org                      |
|    \\/     M anipulation  |                                                 |
\*---------------------------------------------------------------------------*/
FoamFile
{
    version     2.0;
    format      ascii;
    class       surfaceScalarField;
    location    "0.86";
    object      phi;
}
// * * * * * * * * * * * * * * * * * * * * * * * * * * * * * * * * * * * * * //

dimensions      [1 0 -1 0 0 0 0];

internalField   nonuniform List<scalar> 
150500
(
0.00162854
-2.63897e-06
6.18773e-11
0.00173295
2.87547e-06
6.58936e-11
0.00173981
0.000118597
1.64986e-10
0.0016947
0.000119603
1.66594e-10
0.00154247
8.77499e-05
1.04872e-10
0.00137675
7.01309e-05
5.58779e-11
0.00129239
6.49632e-05
7.5973e-11
0.00126842
6.51381e-05
1.23163e-10
0.00126835
6.63576e-05
1.59338e-10
0.00127711
6.7788e-05
1.17977e-10
0.00127032
6.85558e-05
7.23717e-11
0.00131431
6.92883e-05
9.82488e-11
0.00138141
7.37718e-05
9.98124e-11
0.00137728
7.57047e-05
4.91742e-11
0.00131179
7.52857e-05
-3.39227e-11
0.00121299
7.48236e-05
-6.309e-11
0.00108438
7.44934e-05
-7.84805e-11
0.000997416
7.61867e-05
-2.84696e-11
0.00092481
7.9606e-05
3.98048e-11
0.000846716
8.33875e-05
1.13923e-10
0.000715494
8.76373e-05
2.21079e-10
0.000566759
9.34181e-05
2.30077e-10
0.000383863
0.000100152
2.62578e-10
0.000181933
0.000107902
2.23784e-10
0.00012046
1.86054e-11
0.00163061
-8.86575e-06
-6.93181e-12
0.00173523
3.89267e-06
3.27331e-11
0.00173705
0.000243114
1.78501e-10
0.00169419
0.000240126
1.8666e-10
0.00154
0.00017285
1.02176e-10
0.0013755
0.000139813
5.62804e-11
0.00129158
0.000130954
7.55058e-11
0.00126838
0.000131238
1.0503e-10
0.001269
0.000133762
1.23217e-10
0.00127727
0.000136501
1.17304e-10
0.00126996
0.000137452
7.18669e-11
0.0013138
0.000139369
2.21825e-10
0.00138197
0.00014587
3.33503e-11
0.00138063
0.000149152
-3.57519e-12
0.00131741
0.000148788
-4.43063e-11
0.00122115
0.000148501
-6.02128e-11
0.00109262
0.000148649
-7.76471e-11
0.00100472
0.000152496
-3.33467e-11
0.000930868
0.000159476
2.98593e-11
0.000852363
0.000167144
1.09935e-10
0.00072044
0.000175884
2.13755e-10
0.000571081
0.000187817
2.22754e-10
0.000386944
0.000201982
2.5628e-10
0.000182222
0.000218883
2.21546e-10
0.000241927
3.64507e-11
0.00163129
-1.4112e-05
1.2438e-11
0.00172941
6.97023e-06
4.0979e-11
0.00172414
0.000379589
1.71451e-10
0.00170061
0.000350424
1.84919e-10
0.00154213
0.000252026
9.91663e-11
0.00137948
0.000210275
6.07713e-11
0.00129745
0.00019729
7.75904e-11
0.00127655
0.000197509
1.07554e-10
0.00127852
0.000201908
1.1248e-10
0.00128561
0.0002058
1.29562e-10
0.00127669
0.000206545
7.21398e-11
0.00131644
0.000209867
2.52444e-10
0.00138574
0.000216948
4.4511e-12
0.00138779
0.00022176
-1.51986e-11
0.00132711
0.000221421
-2.46121e-11
0.0012341
0.000221734
-4.21421e-11
0.00110547
0.000222456
-4.33175e-11
0.00101589
0.000228202
-1.76833e-11
0.000940028
0.000238592
3.97285e-11
0.00086163
0.000250356
9.88436e-11
0.000729579
0.000264348
2.06326e-10
0.000579912
0.000282965
2.15032e-10
0.0003944
0.000305671
2.50451e-10
0.000186585
0.000333305
2.20403e-10
0.000368411
5.40798e-11
0.00163236
-1.57174e-05
5.33638e-11
0.00171874
1.53642e-05
5.93344e-11
0.001701
0.000546244
1.56741e-10
0.0017134
0.000414936
1.80798e-10
0.00154569
0.000333976
6.93711e-11
0.00138777
0.000280783
5.25436e-11
0.00130956
0.000263923
7.04861e-11
0.00129088
0.000264877
9.51479e-11
0.00129355
0.000271563
1.09861e-10
0.00129823
0.000276115
1.06831e-10
0.00128692
0.000276099
5.8893e-11
0.00131733
0.000278624
1.49252e-10
0.0013892
0.000287365
1.90334e-11
0.00139662
0.000293802
-1.57778e-11
0.00134008
0.000293352
-6.9327e-13
0.00125227
0.000294482
-5.40674e-11
0.00112425
0.00029582
-2.44136e-11
0.00103264
0.000302848
-1.03719e-11
0.000954259
0.000316328
6.68535e-11
0.000876017
0.000332917
7.7513e-11
0.000744269
0.000353055
1.91795e-10
0.000594183
0.000379621
2.00904e-10
0.000407116
0.000412156
2.40756e-10
0.00019425
0.000453687
2.24477e-10
0.000503974
8.84844e-11
0.0016389
-1.95283e-05
2.26242e-11
0.00171694
2.46763e-05
4.12989e-11
0.00170669
0.000714123
1.60559e-10
0.00170507
0.000499551
1.68766e-10
0.00154688
0.000394576
5.6606e-11
0.00140261
0.000346804
5.10582e-11
0.00132877
0.000330918
6.16436e-11
0.00131138
0.000334366
7.25634e-11
0.00131339
0.000342923
1.07737e-10
0.00131469
0.000347594
1.03532e-10
0.0013002
0.000346433
3.43691e-11
0.001318
0.000346894
9.37786e-11
0.00139213
0.00035635
1.6778e-11
0.00140641
0.000365119
2.2161e-11
0.00135593
0.000365032
2.71673e-11
0.00127539
0.000367244
-3.5706e-11
0.00114833
0.000369261
9.15696e-12
0.00105373
0.000376274
7.72117e-12
0.000972784
0.000392182
7.30339e-11
0.000894549
0.000414124
6.91197e-11
0.000764174
0.000441706
1.70523e-10
0.000614245
0.000477777
1.81399e-10
0.000425545
0.000522499
2.31453e-10
0.000206413
0.000581788
2.35153e-10
0.000653804
1.29827e-10
0.00164831
-2.17489e-05
2.79218e-11
0.0017135
3.44431e-05
3.58755e-11
0.00171808
0.000857337
1.28715e-10
0.00171215
0.000596636
1.58102e-10
0.00155617
0.000450892
4.74763e-11
0.0014259
0.000410938
4.61415e-11
0.00135515
0.000400249
5.48405e-11
0.00133745
0.000406942
6.87425e-11
0.00133752
0.000416651
1.04332e-10
0.00133447
0.000420632
9.11652e-11
0.0013158
0.000417771
1.28844e-11
0.00131882
0.000414026
4.47955e-11
0.00139348
0.000423732
-4.42661e-11
0.00141629
0.000435639
9.86918e-12
0.0013739
0.000436904
2.39898e-11
0.00130152
0.000440388
-6.29815e-11
0.00117695
0.00044217
4.65634e-11
0.0010788
0.000448423
2.83467e-11
0.000996066
0.000465863
8.80384e-11
0.000917958
0.00049304
6.35966e-11
0.000790484
0.000529649
1.40841e-10
0.00064143
0.000577151
1.53577e-10
0.00045096
0.000637503
2.16738e-10
0.000225146
0.000719283
2.3734e-10
0.00082426
1.54417e-10
0.00166319
-2.29394e-05
1.20539e-11
0.00171603
4.1974e-05
2.36291e-11
0.00175704
0.000946715
1.04055e-10
0.00174576
0.000720441
1.66431e-10
0.00158291
0.00052386
6.20018e-11
0.00146048
0.000483347
4.13241e-11
0.00138879
0.000476564
4.48006e-11
0.00136802
0.000484623
6.09902e-11
0.00136461
0.000493531
9.32473e-11
0.00135655
0.000495465
6.5745e-11
0.00133272
0.000489532
1.31285e-11
0.00132167
0.00047989
1.04104e-10
0.00139405
0.000488863
-9.13351e-11
0.00142629
0.000504708
-3.36347e-12
0.00139399
0.000508352
3.371e-11
0.0013299
0.000513153
-1.17094e-10
0.0012108
0.000514141
1.56032e-10
0.00110803
0.00051929
-2.90882e-11
0.00102479
0.000537659
6.90768e-11
0.000946518
0.000569279
5.36315e-11
0.000824989
0.000614288
1.18469e-10
0.000676853
0.000677949
1.23814e-10
0.000485893
0.000756895
1.8985e-10
0.000255157
0.000867364
2.34598e-10
0.00102603
1.84575e-10
0.00168483
-2.49293e-05
1.36384e-11
0.00173021
4.42041e-05
2.58364e-11
0.00184761
0.000953554
1.01671e-10
0.00180777
0.000864481
1.37163e-10
0.00163314
0.000616027
4.95076e-11
0.00150676
0.000574836
3.80549e-11
0.00142808
0.000564763
4.11557e-11
0.00140183
0.000569149
5.76424e-11
0.00139379
0.000574459
7.66053e-11
0.00138017
0.000572393
4.07633e-11
0.00135007
0.000561481
1.71453e-11
0.00132665
0.000545026
1.472e-10
0.00139345
0.000550678
-8.90932e-11
0.00143592
0.000571274
-4.19714e-12
0.00141621
0.000578587
4.61246e-11
0.00135901
0.000584431
-9.18109e-11
0.00124989
0.000585196
1.86184e-10
0.00114152
0.000588852
-4.51051e-11
0.0010589
0.000607274
6.41529e-12
0.000981373
0.000642439
-7.73025e-12
0.000870759
0.000694541
1.07602e-10
0.00072292
0.00077699
1.26531e-10
0.000533541
0.000879096
1.71581e-10
0.00030053
0.00102752
2.02866e-10
0.00127299
2.05088e-10
0.00171276
-2.71987e-05
1.09712e-11
0.00175491
3.79196e-05
2.72862e-11
0.00200929
0.000814717
1.10137e-10
0.00191548
0.00101492
1.01725e-10
0.00170791
0.000754244
2.11172e-11
0.00156054
0.00069438
2.87819e-11
0.00146947
0.000666699
4.06044e-11
0.00143651
0.000660071
5.17234e-11
0.00142334
0.000658821
5.33586e-11
0.00140381
0.000650774
1.07585e-11
0.0013673
0.000633202
2.95846e-11
0.00133365
0.000610144
1.42912e-10
0.00139207
0.000610941
-2.18392e-10
0.00144465
0.000634344
7.11417e-11
0.00143994
0.000647435
3.03259e-11
0.00138901
0.00065359
-3.1447e-11
0.0012941
0.000656037
1.0286e-10
0.00118068
0.000657104
-6.16343e-12
0.00109818
0.000673964
-1.1185e-11
0.00102176
0.000709917
-4.9248e-12
0.000926763
0.000769293
5.21616e-11
0.000785658
0.000864802
1.28585e-10
0.000605794
0.000998136
1.47505e-10
0.000373824
0.00119734
1.73823e-10
0.00159214
2.07427e-10
0.00175124
1.54735e-12
-3.38876e-05
0.0018158
3.26753e-11
6.71781e-06
0.00226147
1.7071e-10
0.000435348
0.0020524
8.39344e-11
0.00119329
0.00177557
1.93391e-12
0.000941823
0.00160762
2.90369e-11
0.000839653
0.00150782
4.47201e-11
0.00077951
0.00146961
5.15242e-11
0.00075622
0.00145168
4.19831e-11
0.000745585
0.0014261
-3.5738e-12
0.000729506
0.00138381
3.6682e-13
0.000704402
0.00134292
8.66561e-11
0.00067497
0.00138906
-2.68256e-10
0.000670149
0.00145307
1.31337e-10
0.000693621
0.00146369
2.21219e-11
0.000714143
0.00142005
-1.80776e-11
0.000721542
0.0013406
5.46603e-11
0.000725536
0.00122565
2.11774e-12
0.00072412
0.00114283
-2.73492e-11
0.000736042
0.00106722
3.29811e-11
0.000770788
0.000988436
1.2236e-11
0.000833215
0.000876817
9.7218e-11
0.000931478
0.000723404
1.33783e-10
0.00109527
0.000504155
1.52746e-10
0.00135662
1.82889e-10
0.0020445
0.00162857
-2.68135e-06
-4.15567e-11
0.00173306
2.83554e-06
-3.3175e-12
0.00173993
0.000118611
5.26326e-11
0.0016947
0.000119667
-5.31974e-12
0.00154244
8.77826e-05
-2.3246e-11
0.00137668
7.01466e-05
3.92573e-12
0.00129226
6.49995e-05
-1.14142e-11
0.00126823
6.51923e-05
-6.05539e-11
0.00126806
6.64143e-05
-1.04922e-10
0.00127677
6.78066e-05
-5.02071e-11
0.00127003
6.85112e-05
-1.85461e-12
0.00131411
6.94493e-05
-2.10833e-10
0.00138119
7.36021e-05
-8.65845e-11
0.00137714
7.55159e-05
-8.92075e-11
0.00131174
7.51642e-05
-5.61728e-12
0.00121306
7.47545e-05
2.93848e-11
0.00108444
7.44864e-05
7.80758e-11
0.000997463
7.62043e-05
9.40775e-11
0.00092484
7.96282e-05
1.07912e-10
0.000846732
8.34077e-05
4.52271e-11
0.000715546
8.76518e-05
-3.11318e-11
0.000566804
9.34262e-05
-4.72028e-11
0.000383931
0.000100148
-1.19938e-10
0.000182068
0.000107901
-1.50551e-10
0.000120465
-6.78848e-11
0.0016306
-8.85325e-06
1.69748e-11
0.0017352
3.89585e-06
1.95383e-11
0.00173709
0.00024308
4.97791e-11
0.00169428
0.000240133
-2.15707e-11
0.00154024
0.000172857
-2.43584e-11
0.00137579
0.000139798
2.69763e-12
0.0012919
0.000130918
-1.09843e-11
0.00126876
0.000131193
-4.39315e-11
0.00126946
0.000133702
-7.31133e-11
0.00127778
0.000136396
-6.00722e-11
0.00127057
0.000137305
-6.52851e-12
0.00131392
0.000139231
-3.02419e-10
0.00138237
0.000145633
-1.79275e-11
0.00138123
0.000149046
-1.86526e-11
0.00131799
0.000148817
7.88082e-13
0.00122169
0.000148646
2.28782e-11
0.00109297
0.000148819
6.80762e-11
0.00100492
0.000152619
9.35513e-11
0.00093096
0.000159557
1.11124e-10
0.000852405
0.000167208
4.10208e-11
0.0007205
0.000175935
-3.27026e-11
0.000571129
0.000187847
-4.74263e-11
0.00038701
0.000201984
-1.1538e-10
0.000182348
0.000218881
-1.44567e-10
0.000241922
-7.19957e-11
0.00163129
-1.40789e-05
-7.55626e-12
0.00172943
6.98861e-06
1.31914e-11
0.00172417
0.000379562
5.74999e-11
0.00170065
0.000350423
-2.28048e-11
0.0015423
0.000251972
-2.79417e-11
0.00137973
0.000210206
-1.31833e-12
0.00129773
0.000197194
-1.13181e-11
0.00127689
0.000197388
-3.95494e-11
0.00127889
0.000201757
-5.74812e-11
0.00128599
0.000205625
-7.55678e-11
0.00127712
0.000206361
-1.63139e-11
0.00131621
0.000209448
-2.72875e-10
0.00138576
0.000216712
3.08533e-12
0.00138798
0.000221736
-1.01335e-11
0.00132731
0.000221551
-1.31352e-11
0.00123435
0.00022199
3.5242e-12
0.00110561
0.000222703
2.98336e-11
0.00101596
0.000228383
6.74388e-11
0.000940057
0.000238723
8.84396e-11
0.000861638
0.000250457
3.63542e-11
0.000729614
0.000264429
-3.9488e-11
0.000579946
0.000283011
-5.21644e-11
0.000394455
0.00030568
-1.1361e-10
0.000186704
0.000333294
-1.40122e-10
0.000368387
-7.87749e-11
0.0016324
-1.57386e-05
-3.60503e-11
0.00171884
1.53468e-05
9.94181e-12
0.0017011
0.000546227
1.18734e-10
0.00171345
0.000414969
-8.20123e-11
0.00154579
0.000333938
5.19465e-13
0.00138789
0.000280678
5.76048e-12
0.00130969
0.000263786
-5.10989e-12
0.00129104
0.000264717
-2.45409e-11
0.00129371
0.000271383
-5.14946e-11
0.00129837
0.000275943
-5.82967e-11
0.00128704
0.000275941
-9.4019e-12
0.00131702
0.000278227
-1.15932e-10
0.00138891
0.000287209
-9.84067e-12
0.00139637
0.000293883
-1.55815e-11
0.0013398
0.000293559
-5.46784e-11
0.00125196
0.000294777
-1.34249e-11
0.00112401
0.00029608
-3.24121e-12
0.00103249
0.000303058
3.65572e-11
0.00095418
0.000316488
4.1052e-11
0.00087597
0.000333043
2.98124e-11
0.00074426
0.00035314
-4.57575e-11
0.000594194
0.000379663
-5.68064e-11
0.000407147
0.000412159
-1.11561e-10
0.000194356
0.000453652
-1.3934e-10
0.000503924
-9.46443e-11
0.0016389
-1.95281e-05
-1.42217e-11
0.00171697
2.46716e-05
2.85148e-11
0.00170676
0.00071414
1.79927e-10
0.00170512
0.00049961
-8.29187e-11
0.00154693
0.000394559
-3.17398e-12
0.00140263
0.000346695
1.6275e-12
0.00132877
0.000330766
5.8208e-13
0.00131139
0.000334204
-3.79348e-12
0.00131339
0.000342749
-4.38717e-11
0.00131465
0.000347422
-4.91572e-11
0.00130013
0.000346275
7.82766e-12
0.00131804
0.000346705
-2.15082e-11
0.00139206
0.000356372
-2.83545e-11
0.00140615
0.000365305
-5.31757e-11
0.00135553
0.000365319
-8.9379e-11
0.00127486
0.000367554
-1.19874e-11
0.00114782
0.000369503
-4.55449e-11
0.00105336
0.000376452
8.42362e-12
0.000972545
0.000392317
6.82578e-12
0.000894416
0.000414218
2.57245e-11
0.00076412
0.000441748
-4.2462e-11
0.000614223
0.000477795
-5.40252e-11
0.000425551
0.000522469
-1.09972e-10
0.000206507
0.000581709
-1.43068e-10
0.000653713
-1.14995e-10
0.00164832
-2.17619e-05
-1.59009e-11
0.00171355
3.44383e-05
5.16841e-11
0.00171818
0.000857408
2.87291e-10
0.00171221
0.000596678
-1.21685e-10
0.0015562
0.000450865
-7.8886e-12
0.0014259
0.000410841
5.57134e-13
0.00135512
0.000400119
3.62302e-12
0.00133739
0.000406818
2.63683e-12
0.00133741
0.000416529
-3.47594e-11
0.00133428
0.000420512
-2.8004e-11
0.00131552
0.000417669
3.18379e-11
0.00131878
0.000414008
-5.55375e-11
0.00139335
0.000423872
6.02327e-11
0.0014159
0.000435904
-5.31435e-11
0.00137334
0.000437187
-1.01974e-10
0.00130089
0.000440591
2.96487e-11
0.00117635
0.000442369
-1.13494e-10
0.00107837
0.000448497
-9.23839e-12
0.000995752
0.000465943
-3.23249e-11
0.000917774
0.000493053
1.9846e-11
0.000790401
0.00052963
-3.04295e-11
0.000641374
0.000577119
-4.3778e-11
0.000450929
0.000637431
-1.0621e-10
0.000225217
0.000719161
-1.45381e-10
0.000824135
-1.28889e-10
0.0016632
-2.29386e-05
-7.04322e-12
0.00171604
4.19789e-05
7.46e-11
0.00175712
0.000946815
3.86007e-10
0.00174582
0.000720488
-1.73306e-10
0.00158294
0.000523826
-5.56359e-11
0.00146048
0.000483265
-2.93899e-12
0.00138875
0.000476468
8.68468e-12
0.00136794
0.000484545
7.62522e-12
0.00136446
0.000493471
-2.12821e-11
0.00135631
0.000495424
-6.76186e-12
0.00133241
0.000489528
3.46571e-11
0.00132166
0.00048003
-1.27686e-10
0.00139403
0.000489192
1.0624e-10
0.00142582
0.000505051
-2.75833e-11
0.00139319
0.000508578
-1.12736e-10
0.00132901
0.000513206
7.91975e-11
0.00120991
0.00051413
-2.28532e-10
0.00110753
0.000519176
5.17801e-11
0.00102443
0.000537585
-2.28785e-11
0.000946339
0.000569209
2.18714e-11
0.000824918
0.000614232
-2.59145e-11
0.000676788
0.000677895
-3.15772e-11
0.000485832
0.000756787
-9.2912e-11
0.000255202
0.000867205
-1.43464e-10
0.00102586
-1.36993e-10
0.00168485
-2.49324e-05
-8.92257e-12
0.00173023
4.42085e-05
7.90545e-11
0.0018477
0.000953656
4.43172e-10
0.00180786
0.000864568
-1.75988e-10
0.00163319
0.000616007
-7.73653e-11
0.00150676
0.000574776
-7.46102e-12
0.00142805
0.000564703
1.37131e-11
0.00140175
0.000569116
9.98823e-12
0.00139365
0.000574467
-7.84029e-12
0.00137995
0.000572439
9.01179e-12
0.00134981
0.00056158
2.86682e-11
0.00132672
0.000545255
-1.31245e-10
0.00139369
0.00055118
9.34542e-11
0.00143558
0.000571703
-2.00015e-11
0.00141531
0.00057872
-9.97987e-11
0.00135804
0.000584387
4.78715e-11
0.00124873
0.000584916
-2.13294e-10
0.00114092
0.000588599
4.57699e-11
0.00105849
0.000607092
1.48333e-11
0.000981229
0.000642319
7.9542e-11
0.000870693
0.000694466
-2.76334e-11
0.000722847
0.00077689
-4.44711e-11
0.0005335
0.000878966
-8.5874e-11
0.000300544
0.00102734
-1.20391e-10
0.00127277
-1.42833e-10
0.00171277
-2.72082e-05
-7.79018e-12
0.00175493
3.79204e-05
8.0038e-11
0.00200943
0.000814784
4.81984e-10
0.00191562
0.00101502
-1.60986e-10
0.00170799
0.000754265
-8.31839e-11
0.00156057
0.000694358
-9.52288e-12
0.00146945
0.000666679
1.60307e-11
0.00143645
0.00066008
2.25074e-11
0.00142322
0.000658894
7.27074e-12
0.00140362
0.000650909
3.45556e-11
0.00136708
0.000633388
6.6379e-12
0.00133371
0.000610405
-1.05179e-10
0.00139246
0.000611476
1.6893e-10
0.00144447
0.000634833
-8.34592e-11
0.00143917
0.000647517
-7.01542e-11
0.00138814
0.000653465
2.94829e-12
0.001293
0.00065567
-1.21668e-10
0.00118003
0.000656785
1.78779e-11
0.00109776
0.000673758
4.09473e-11
0.00102162
0.000709795
6.56013e-11
0.000926685
0.000769196
5.79886e-12
0.000785609
0.000864649
-5.17971e-11
0.000605771
0.00099799
-7.36598e-11
0.000373829
0.00119717
-9.95127e-11
0.00159187
-1.38405e-10
0.00175126
-4.63252e-12
-3.38957e-05
0.00181581
8.17662e-11
6.70755e-06
0.00226164
5.14255e-10
0.000435303
0.00205257
-6.27014e-11
0.00119341
0.00177566
-4.81089e-11
0.000941895
0.00160765
-7.07908e-12
0.000839671
0.0015078
1.01373e-11
0.000779522
0.00146956
1.9951e-11
0.000756257
0.0014516
2.2453e-11
0.000745699
0.00142597
4.2887e-11
0.000729691
0.00138366
2.15535e-11
0.000704644
0.00134292
-4.86467e-11
0.000675253
0.00138953
1.72771e-10
0.000670705
0.00145302
-1.17142e-10
0.000694051
0.00146316
-5.33429e-11
0.000714211
0.0014194
-2.16369e-12
0.000721406
0.00133977
-6.64676e-11
0.000725223
0.0012251
1.52645e-11
0.000723834
0.00114249
5.83713e-11
0.000735864
0.00106708
2.4672e-11
0.000770659
0.000988371
3.38693e-11
0.000833121
0.000876751
-3.43008e-11
0.000931324
0.000723394
-6.80023e-11
0.00109509
0.000504157
-8.8637e-11
0.00135642
-1.19501e-10
0.00204421
0.00162856
-2.64998e-06
7.36161e-12
0.00173299
2.86558e-06
3.80308e-11
0.00173989
0.000118609
8.90593e-11
0.00169474
0.000119629
6.9316e-11
0.0015425
8.77646e-05
-7.68424e-13
0.00137676
7.01416e-05
-1.21793e-11
0.00129234
6.49874e-05
-6.53081e-12
0.00126832
6.51831e-05
-6.04641e-12
0.00126818
6.64276e-05
-5.86634e-12
0.00127689
6.78585e-05
-1.59949e-11
0.00127002
6.86073e-05
-4.05943e-11
0.00131431
6.94319e-05
-4.00103e-11
0.00138113
7.37823e-05
-8.15774e-11
0.00137678
7.56406e-05
-1.09196e-10
0.00131128
7.52025e-05
-1.13226e-10
0.00121245
7.47199e-05
-9.88009e-11
0.00108403
7.44209e-05
-5.48471e-11
0.000997215
7.61417e-05
-1.10123e-11
0.000924734
7.95724e-05
2.6449e-11
0.000846662
8.33551e-05
7.96167e-11
0.000715465
8.76115e-05
1.12368e-10
0.00056678
9.33982e-05
1.11389e-10
0.000383923
0.000100135
1.10524e-10
0.000181998
0.00010789
1.0042e-10
0.000120451
6.10972e-11
0.00163062
-8.86721e-06
2.78916e-12
0.00173524
3.89223e-06
3.23422e-11
0.0017371
0.000243129
9.50555e-11
0.00169426
0.000240149
6.78541e-11
0.00154009
0.00017286
1.65465e-13
0.00137559
0.000139822
-1.11796e-11
0.00129166
0.000130972
-6.57965e-12
0.00126845
0.00013128
-7.32185e-12
0.00126905
0.000133838
-9.52236e-12
0.00127731
0.000136583
-1.86276e-11
0.00126996
0.000137517
-4.21487e-11
0.00131391
0.000139522
-3.53941e-11
0.00138192
0.000145891
-8.79342e-11
0.00138043
0.000149083
-1.12205e-10
0.00131718
0.0001487
-1.11967e-10
0.00122087
0.000148389
-1.00941e-10
0.00109244
0.000148574
-5.21363e-11
0.00100463
0.000152455
-8.78849e-12
0.000930849
0.000159445
2.68694e-11
0.000852342
0.000167108
7.75804e-11
0.000720427
0.000175851
1.09669e-10
0.000571103
0.000187788
1.08959e-10
0.000386996
0.000201954
1.08288e-10
0.000182276
0.000218862
9.84622e-11
0.000241897
6.08759e-11
0.0016313
-1.41012e-05
4.16129e-12
0.00172942
6.98002e-06
3.42985e-11
0.00172417
0.000379636
8.95729e-11
0.00170068
0.000350414
6.39207e-11
0.00154221
0.000252024
9.77851e-13
0.00137959
0.000210274
-9.60971e-12
0.00129756
0.000197297
-7.33243e-12
0.00127665
0.000197536
-8.93381e-12
0.00127862
0.000201967
-1.26581e-11
0.00128571
0.00020587
-1.61693e-11
0.00127679
0.000206606
-3.43566e-11
0.0013165
0.00020997
-2.40419e-11
0.00138573
0.000216953
-8.57807e-11
0.00138771
0.000221713
-1.07431e-10
0.00132703
0.000221365
-1.09382e-10
0.00123399
0.000221668
-9.78302e-11
0.00110539
0.000222411
-5.17077e-11
0.00101585
0.000228168
-6.04746e-12
0.00094002
0.000238559
3.52617e-11
0.000861624
0.000250314
6.9713e-11
0.000729581
0.000264312
1.05634e-10
0.000579938
0.000282932
1.05529e-10
0.000394449
0.000305635
1.04546e-10
0.000186638
0.00033327
9.50252e-11
0.00036836
5.79753e-11
0.00163239
-1.57241e-05
2.73532e-12
0.00171879
1.53655e-05
3.50349e-11
0.00170109
0.000546307
9.60833e-11
0.00171343
0.000414947
1.63066e-11
0.00154575
0.000333977
1.01761e-11
0.00138786
0.00028077
-7.87779e-12
0.00130965
0.000263913
-9.68766e-12
0.00129098
0.000264885
-1.39528e-11
0.00129364
0.000271601
-1.52155e-11
0.00129833
0.000276181
-1.50996e-11
0.00128702
0.000276175
-3.49103e-11
0.00131723
0.000278648
-3.1437e-11
0.00138908
0.000287379
-7.94117e-11
0.0013965
0.000293787
-1.08148e-10
0.00133995
0.00029332
-1.04029e-10
0.00125211
0.000294449
-8.71748e-11
0.00112417
0.000295791
-4.59381e-11
0.00103263
0.00030285
2.10013e-13
0.000954286
0.000316325
4.34983e-11
0.000876046
0.000332909
7.14093e-11
0.000744291
0.000353031
1.01729e-10
0.000594215
0.000379583
1.01796e-10
0.000407159
0.000412113
9.8865e-11
0.000194299
0.000453634
8.79561e-11
0.000503904
5.12512e-11
0.00163892
-1.95267e-05
1.98586e-12
0.00171697
2.46823e-05
2.56083e-11
0.00170678
0.000714184
1.0481e-10
0.00170511
0.000499571
7.65143e-12
0.00154694
0.00039456
5.58375e-14
0.00140268
0.000346778
-1.50731e-11
0.00132884
0.000330892
-1.4667e-11
0.00131145
0.000334353
-1.59416e-11
0.00131347
0.000342936
-1.55571e-11
0.00131478
0.000347625
-1.7822e-11
0.00130034
0.000346476
-4.70555e-11
0.00131807
0.000346932
-6.47645e-11
0.00139223
0.000356396
-8.66125e-11
0.00140645
0.000365131
-9.49521e-11
0.00135592
0.000365053
-8.76696e-11
0.00127532
0.000367278
-7.96227e-11
0.00114827
0.000369289
-3.31444e-11
0.00105371
0.000376318
8.11638e-12
0.000972793
0.000392199
4.78446e-11
0.000894572
0.000414134
7.01448e-11
0.000764201
0.000441682
9.34773e-11
0.000614277
0.000477735
9.25725e-11
0.000425586
0.000522438
8.88841e-11
0.000206458
0.000581712
8.14515e-11
0.000653716
4.86999e-11
0.00164834
-2.17542e-05
5.7182e-13
0.00171354
3.44456e-05
2.60789e-11
0.0017182
0.00085738
1.36921e-10
0.00171223
0.00059669
-1.95889e-11
0.00155623
0.00045088
-7.69139e-12
0.00142598
0.000410908
-1.79138e-11
0.00135522
0.000400217
-1.93606e-11
0.00133751
0.00040692
-1.80837e-11
0.00133758
0.000416645
-1.53087e-11
0.00133453
0.000420648
-2.09243e-11
0.00131587
0.000417802
-6.53583e-11
0.00131871
0.000414024
-3.1049e-11
0.00139337
0.000423704
-1.08703e-10
0.00141629
0.000435664
-8.06762e-11
0.00137394
0.000436987
-7.05827e-11
0.00130158
0.000440489
-9.34799e-11
0.00117699
0.000442285
-2.58571e-12
0.0010788
0.0004485
1.65023e-11
0.000996071
0.000465902
6.69416e-11
0.000917965
0.000493032
5.86591e-11
0.000790504
0.000529612
7.72039e-11
0.000641456
0.000577096
7.85023e-11
0.00045099
0.000637428
7.6907e-11
0.000225181
0.000719189
7.51225e-11
0.000824167
4.52332e-11
0.00166322
-2.2939e-05
-1.96836e-12
0.00171606
4.19761e-05
3.1864e-11
0.00175719
0.000946713
1.29221e-10
0.00174586
0.000720517
-4.18186e-11
0.001583
0.000523853
-2.56473e-11
0.00146057
0.00048332
-1.89189e-11
0.00138886
0.000476532
-2.21372e-11
0.00136808
0.000484597
-1.95868e-11
0.00136465
0.000493516
-1.63234e-11
0.0013566
0.000495472
-2.65958e-11
0.00133278
0.00048956
-6.69608e-11
0.00132157
0.000479922
6.26816e-12
0.00139387
0.000488832
-1.23188e-10
0.00142621
0.000504783
-8.00025e-11
0.00139397
0.000508499
-4.50958e-11
0.0013299
0.000513271
-1.22579e-10
0.00121083
0.000514287
5.27786e-11
0.00110805
0.000519347
-2.46094e-11
0.0010248
0.000537684
5.60559e-11
0.000946527
0.00056925
4.2482e-11
0.000825013
0.000614238
6.77595e-11
0.000676875
0.00067789
6.31581e-11
0.000485912
0.000756812
6.33515e-11
0.000255181
0.00086726
6.82317e-11
0.00102592
4.59529e-11
0.00168487
-2.49312e-05
-4.36358e-12
0.00173025
4.42012e-05
2.50634e-11
0.00184781
0.000953481
1.40536e-10
0.00180792
0.00086458
-5.64665e-11
0.00163325
0.000616038
-3.57974e-11
0.00150685
0.000574824
-1.80623e-11
0.00142815
0.000564739
-2.05958e-11
0.00140187
0.000569123
-1.7937e-11
0.00139382
0.000574446
-1.3883e-11
0.00138021
0.0005724
-3.62844e-11
0.00135012
0.000561511
-5.51482e-11
0.00132666
0.000545078
5.2188e-12
0.00139344
0.000550748
-1.12043e-10
0.00143588
0.000571421
-7.26339e-11
0.00141611
0.000578757
-3.01219e-11
0.00135892
0.000584564
-9.39933e-11
0.00124976
0.000585272
4.31188e-11
0.00114148
0.000588864
-2.45109e-11
0.00105888
0.000607256
2.35217e-11
0.00098139
0.000642386
1.2501e-11
0.000870787
0.000694487
6.10532e-11
0.00072294
0.000776919
5.69663e-11
0.000533559
0.000879011
5.34085e-11
0.000300543
0.00102741
5.54315e-11
0.00127288
4.64361e-11
0.0017128
-2.72066e-05
-5.32612e-12
0.00175496
3.79075e-05
2.68966e-11
0.00200958
0.000814515
1.7583e-10
0.0019157
0.00101502
-6.70689e-11
0.00170806
0.0007543
-4.11082e-11
0.00156064
0.000694396
-1.76022e-11
0.00146953
0.000666689
-1.6904e-11
0.00143655
0.000660049
-1.69624e-11
0.00142336
0.000658816
-1.4845e-11
0.00140382
0.000650789
-3.15537e-11
0.00136732
0.000633242
-4.55773e-11
0.00133367
0.000610203
-7.35698e-12
0.00139219
0.000611071
-1.25958e-10
0.00144467
0.000634569
-3.67422e-11
0.00143983
0.000647608
-4.21469e-11
0.00138889
0.000653715
-7.38177e-11
0.0012939
0.000656074
6.74808e-13
0.00118057
0.00065708
-1.26559e-11
0.00109812
0.000673918
1.28779e-11
0.00102177
0.00070986
1.52382e-11
0.000926782
0.000769228
3.88415e-11
0.000785677
0.000864712
4.35338e-11
0.000605815
0.00099805
4.44288e-11
0.000373834
0.00119724
4.57431e-11
0.00159201
4.51735e-11
0.00175129
-7.53032e-12
-3.38958e-05
0.00181588
2.9271e-11
6.68361e-06
0.00226181
2.01223e-10
0.000435013
0.00205263
-3.41986e-11
0.00119342
0.0017757
-2.82665e-11
0.000941931
0.0016077
-1.39328e-11
0.000839698
0.00150787
-1.33336e-11
0.000779512
0.00146963
-1.3216e-11
0.000756201
0.00145169
-1.58498e-11
0.000745585
0.0014261
-2.54394e-11
0.000729528
0.0013838
-4.09287e-11
0.000704445
0.00134292
-2.57493e-11
0.000675026
0.00138928
-7.66897e-11
0.000670334
0.00145314
-2.40322e-11
0.000693873
0.00146361
-5.42562e-11
0.000714322
0.00141994
-7.64561e-11
0.000721652
0.00134042
-2.12161e-11
0.000725566
0.00122552
-1.36448e-11
0.000724087
0.00114276
8.47166e-12
0.000735991
0.00106721
1.5593e-11
0.000770718
0.000988451
3.09757e-11
0.000833148
0.00087683
4.00913e-11
0.000931384
0.000723425
3.79846e-11
0.00109517
0.000504173
3.93234e-11
0.00135653
3.91129e-11
0.00204438
0.00162857
-2.65293e-06
-4.78937e-11
0.001733
2.86246e-06
1.29921e-11
0.00173991
0.000118613
1.83345e-10
0.00169475
0.000119638
1.45928e-11
0.00154249
8.77708e-05
-3.96162e-11
0.00137674
7.0145e-05
3.6073e-12
0.00129232
6.49906e-05
-2.80137e-11
0.00126829
6.51863e-05
-6.80917e-11
0.00126814
6.64296e-05
-1.12714e-10
0.00127684
6.7855e-05
-1.20329e-10
0.00126997
6.85995e-05
-8.83765e-11
0.00131427
6.94402e-05
-2.4255e-11
0.00138108
7.37725e-05
-1.16377e-11
0.00137672
7.56316e-05
8.92736e-12
0.00131123
7.52006e-05
1.51638e-11
0.0012124
7.47214e-05
2.10232e-11
0.00108398
7.44245e-05
1.84507e-11
0.000997192
7.61455e-05
1.08764e-11
0.000924729
7.95727e-05
-9.87337e-12
0.000846655
8.3352e-05
-2.79128e-11
0.000715468
8.76049e-05
-5.23316e-11
0.00056678
9.33889e-05
-5.54914e-11
0.000383926
0.000100124
-5.53344e-11
0.000182014
0.000107879
-3.45277e-11
0.000120443
1.41979e-11
0.00163063
-8.86715e-06
-4.37758e-11
0.00173524
3.89125e-06
1.70288e-11
0.00173711
0.000243136
1.81106e-10
0.00169427
0.000240157
4.36537e-12
0.00154009
0.000172867
-4.05339e-11
0.0013756
0.000139826
6.03043e-12
0.00129166
0.000130972
-2.80572e-11
0.00126845
0.000131277
-7.08859e-11
0.00126905
0.000133832
-1.1279e-10
0.00127731
0.000136571
-1.17122e-10
0.00126997
0.0001375
-8.4598e-11
0.00131389
0.000139518
-2.73447e-11
0.00138192
0.00014587
-7.65938e-12
0.00138043
0.000149074
1.18641e-11
0.00131717
0.000148708
1.80985e-11
0.00122085
0.000148406
2.36034e-11
0.00109241
0.000148593
2.07347e-11
0.00100461
0.000152466
1.41245e-11
0.000930845
0.000159447
-5.17434e-12
0.000852335
0.000167101
-2.30109e-11
0.00072043
0.00017584
-4.74988e-11
0.000571104
0.000187771
-5.10272e-11
0.000387
0.000201933
-5.44751e-11
0.000182293
0.000218841
-3.73153e-11
0.00024188
7.46366e-12
0.0016313
-1.41025e-05
-4.35155e-11
0.00172943
6.97958e-06
1.6786e-11
0.00172417
0.000379658
1.81556e-10
0.00170069
0.000350411
-9.38032e-12
0.00154221
0.000252034
-3.41061e-11
0.00137959
0.000210277
8.56406e-12
0.00129756
0.000197291
-3.16098e-11
0.00127666
0.000197522
-7.42957e-11
0.00127863
0.000201947
-1.11183e-10
0.00128572
0.000205845
-1.0894e-10
0.00127681
0.000206576
-7.56059e-11
0.00131648
0.000209938
-3.63264e-11
0.00138572
0.000216923
-7.38869e-12
0.00138769
0.000221697
9.09843e-12
0.00132699
0.000221375
1.61038e-11
0.00123394
0.000221691
2.27367e-11
0.00110535
0.000222442
2.11829e-11
0.00101583
0.000228201
2.03924e-11
0.000940021
0.000238579
8.3784e-13
0.000861622
0.00025032
-1.37831e-11
0.000729583
0.000264302
-4.07351e-11
0.000579939
0.00028291
-4.43616e-11
0.000394453
0.000305606
-5.28213e-11
0.000186655
0.000333239
-4.02155e-11
0.000368333
1.08037e-12
0.0016324
-1.57254e-05
-5.62541e-11
0.0017188
1.53672e-05
1.48747e-11
0.00170112
0.000546348
2.45829e-10
0.00171341
0.000414946
-1.4136e-10
0.00154575
0.000333982
3.66103e-11
0.00138786
0.000280769
1.59158e-11
0.00130965
0.0002639
-3.79618e-11
0.00129098
0.000264864
-8.13295e-11
0.00129365
0.000271572
-1.08671e-10
0.00129833
0.000276149