/*--------------------------------*- C++ -*----------------------------------*\
| =========                 |                                                 |
| \\      /  F ield         | OpenFOAM: The Open Source CFD Toolbox           |
|  \\    /   O peration     | Version:  4.1                                   |
|   \\  /    A nd           | Web:      www.OpenFOAM.org                      |
|    \\/     M anipulation  |                                                 |
\*---------------------------------------------------------------------------*/
FoamFile
{
    version     2.0;
    format      ascii;
    class       volScalarField;
    location    "0.86";
    object      T;
}
// * * * * * * * * * * * * * * * * * * * * * * * * * * * * * * * * * * * * * //

dimensions      [0 0 0 1 0 0 0];

internalField   nonuniform List<scalar> 
52500
(
0.0780114
0.806394
0.968005
0.992235
1.03794
1.11434
1.16578
1.18672
1.19671
1.20798
1.21286
1.18879
1.09714
1.02439
1.00235
1.00654
1.04046
1.07187
1.07194
1.05716
1.04695
1.05046
1.05123
1.04996
1.01263
0.0784165
0.803775
0.968665
0.991111
1.03778
1.11503
1.1662
1.18714
1.19697
1.20803
1.21268
1.18819
1.09624
1.02343
1.00146
1.00531
1.03854
1.07047
1.07088
1.05636
1.046
1.0494
1.05028
1.04905
1.01148
0.0825112
0.79989
0.970597
0.988337
1.03584
1.11361
1.16527
1.18749
1.19756
1.20844
1.21296
1.18924
1.09825
1.02342
1.00001
1.00283
1.03422
1.06796
1.06944
1.056
1.04539
1.04882
1.04973
1.04872
1.0106
0.089696
0.793574
0.973128
0.984157
1.03277
1.11026
1.16283
1.18696
1.19785
1.2088
1.21361
1.1929
1.10482
1.02544
0.999449
1.00087
1.02954
1.06506
1.06796
1.05564
1.04462
1.04789
1.04921
1.04841
1.01018
0.0974755
0.782176
0.972407
0.980317
1.03097
1.10543
1.15897
1.18561
1.19775
1.20876
1.21355
1.19629
1.113
1.02839
0.998484
0.99797
1.0225
1.06049
1.0657
1.05504
1.04371
1.0466
1.04822
1.04776
1.00941
0.108156
0.764738
0.968419
0.974912
1.03081
1.09971
1.15438
1.18427
1.1974
1.20801
1.21264
1.19942
1.12291
1.03229
0.997162
0.994131
1.01429
1.0547
1.06282
1.05419
1.04188
1.04466
1.04608
1.04611
1.00781
0.120671
0.738749
0.958745
0.968528
1.03298
1.09309
1.14897
1.18268
1.19709
1.20719
1.21146
1.20186
1.13308
1.03695
0.995644
0.989348
1.00502
1.04632
1.05857
1.05244
1.04009
1.04183
1.04309
1.0432
1.0046
0.134665
0.703575
0.941204
0.961151
1.03698
1.08576
1.14274
1.18082
1.19663
1.2062
1.21019
1.20378
1.14438
1.04321
0.994468
0.984025
0.995566
1.0356
1.0529
1.04962
1.03683
1.03778
1.03719
1.03738
0.998208
0.151166
0.661827
0.911294
0.953938
1.04051
1.07759
1.1358
1.1787
1.19609
1.20512
1.20892
1.20505
1.15647
1.05192
0.994469
0.978807
0.985785
1.02196
1.04521
1.0452
1.03218
1.03184
1.03034
1.02938
0.985323
0.170018
0.610011
0.857936
0.949534
1.03932
1.06936
1.12891
1.17587
1.19518
1.20397
1.20776
1.20553
1.16704
1.06405
0.996045
0.974086
0.976731
1.00693
1.03528
1.03869
1.02881
1.02323
1.01895
1.01531
0.958633
0.0779728
0.806371
0.96797
0.992234
1.03796
1.1144
1.16582
1.18674
1.19672
1.20799
1.21286
1.18869
1.09699
1.02436
1.00238
1.00656
1.04047
1.07186
1.07192
1.05713
1.04692
1.05043
1.05118
1.0499
1.01265
0.0784218
0.803761
0.968651
0.991109
1.03776
1.11494
1.16609
1.18704
1.19686
1.20794
1.21266
1.18845
1.09681
1.02367
1.0015
1.00528
1.0384
1.0704
1.07082
1.05634
1.04597
1.04938
1.05023
1.049
1.01149
0.0825039
0.799867
0.970584
0.988339
1.03583
1.11354
1.16517
1.18737
1.19742
1.20834
1.21295
1.18958
1.09891
1.02378
1.0002
1.00296
1.03424
1.06797
1.06943
1.05599
1.04537
1.04879
1.04968
1.04867
1.01061
0.0896617
0.793543
0.973108
0.984157
1.03278
1.11024
1.16278
1.18688
1.19776
1.20871
1.21357
1.19305
1.10522
1.02573
0.999686
1.00112
1.0298
1.06517
1.068
1.05561
1.04458
1.04786
1.04916
1.04836
1.01019
0.0974615
0.782159
0.972391
0.980317
1.03096
1.10544
1.15897
1.18559
1.1977
1.20871
1.21352
1.19617
1.1127
1.02824
0.998443
0.997981
1.02263
1.06059
1.06574
1.05502
1.04368
1.04658
1.04818
1.04771
1.00941
0.108138
0.764719
0.968409
0.974912
1.0308
1.09971
1.15438
1.18424
1.19738
1.20799
1.21262
1.19928
1.12255
1.03209
0.997107
0.994145
1.01435
1.05469
1.06278
1.05415
1.04185
1.04464
1.04605
1.04607
1.0078
0.120663
0.738734
0.958744
0.968524
1.03296
1.09308
1.14896
1.18265
1.19706
1.20717
1.21143
1.20168
1.13256
1.03668
0.995689
0.989558
1.00536
1.04658
1.05864
1.05242
1.04005
1.04181
1.04306
1.04316
1.00458
0.134656
0.703553
0.94121
0.961144
1.03696
1.08575
1.14273
1.18078
1.19659
1.20618
1.21014
1.20359
1.14364
1.04278
0.994538
0.984367
0.996092
1.03614
1.05314
1.04972
1.03679
1.03775
1.03715
1.03734
0.998188
0.151159
0.661803
0.911302
0.953923
1.04049
1.07758
1.13578
1.17867
1.19606
1.2051
1.20888
1.20491
1.15582
1.0514
0.994497
0.979145
0.986273
1.02254
1.04551
1.04537
1.03217
1.03183
1.03031
1.02934
0.9853
0.170018
0.609979
0.857936
0.949516
1.0393
1.06934
1.12889
1.17585
1.19515
1.20395
1.20774
1.20545
1.16659
1.06354
0.996023
0.974329
0.977065
1.00736
1.03552
1.03882
1.02881
1.02322
1.01894
1.01527
0.958607
0.077998
0.806372
0.967989
0.992222
1.03794
1.11435
1.16578
1.18672
1.19671
1.20797
1.21282
1.18858
1.09679
1.02431
1.00243
1.00667
1.04065
1.07194
1.07195
1.05712
1.04692
1.05043
1.0512
1.04993
1.01266
0.0784132
0.803754
0.968654
0.991098
1.03777
1.115
1.16617
1.18711
1.19694
1.208
1.21264
1.1881
1.09613
1.02345
1.00155
1.00544
1.03869
1.07053
1.07089
1.05632
1.04597
1.04938
1.05025
1.04902
1.0115
0.082509
0.799867
0.970587
0.988325
1.03583
1.11359
1.16523
1.18745
1.19751
1.2084
1.21292
1.18923
1.09829
1.02349
1.00008
1.0029
1.03427
1.06797
1.06943
1.05598
1.04537
1.0488
1.0497
1.04869
1.01062
0.0896842
0.793543
0.973106
0.984152
1.03277
1.11024
1.1628
1.18692
1.19781
1.20875
1.21357
1.19297
1.10503
1.0256
0.999603
1.00104
1.02973
1.06514
1.06798
1.05561
1.04459
1.04787
1.04918
1.04838
1.0102
0.097471
0.782144
0.972389
0.980307
1.03096
1.10542
1.15895
1.1856
1.19772
1.20872
1.21354
1.19629
1.11296
1.02837
0.998491
0.997989
1.02256
1.06053
1.06571
1.05502
1.04369
1.04659
1.0482
1.04773
1.00942
0.108149
0.764698
0.968398
0.9749
1.0308
1.09969
1.15437
1.18425
1.19738
1.20799
1.21263
1.19949
1.12313
1.03241
0.997163
0.994082
1.01419
1.05462
1.06278
1.05417
1.04186
1.04465
1.04606
1.04609
1.00782
0.120669
0.738702
0.958722
0.968514
1.03297
1.09307
1.14896
1.18266
1.19707
1.20716
1.21143
1.20189
1.13332
1.03711
0.995688
0.989342
1.00497
1.04625
1.05851
1.0524
1.04007
1.04182
1.04308
1.04318
1.0046
0.134663
0.703518
0.941178
0.961134
1.03697
1.08574
1.14272
1.18079
1.19661
1.20618
1.21015
1.20375
1.14436
1.04321
0.994492
0.984061
0.995633
1.03568
1.05293
1.04963
1.03681
1.03776
1.03717
1.03736
0.998209
0.151165
0.661765
0.911257
0.953917
1.0405
1.07758
1.13578
1.17868
1.19607
1.20511
1.2089
1.20502
1.15635
1.05179
0.994451
0.978855
0.985877
1.0221
1.04529
1.04525
1.03218
1.03184
1.03032
1.02935
0.985322
0.170023
0.609934
0.85788
0.949511
1.0393
1.06934
1.12888
1.17586
1.19516
1.20396
1.20777
1.20553
1.16689
1.06383
0.995991
0.974121
0.9768
1.00705
1.03537
1.03875
1.02882
1.02323
1.01895
1.01529
0.958629
0.0779938
0.806361
0.967979
0.992213
1.03794
1.11436
1.16579
1.18672
1.19671
1.20798
1.21283
1.18858
1.09678
1.02432
1.00244
1.00669
1.04068
1.07194
1.07195
1.0571
1.0469
1.05042
1.05119
1.04991
1.01265
0.0784118
0.803743
0.968645
0.991089
1.03777
1.115
1.16617
1.1871
1.19693
1.208
1.21265
1.18811
1.09616
1.02346
1.00155
1.00544
1.0387
1.07053
1.07088
1.05631
1.04596
1.04937
1.05023
1.049
1.01149
0.0825068
0.799855
0.970578
0.988316
1.03582
1.11359
1.16523
1.18745
1.19751
1.2084
1.21293
1.18926
1.09834
1.02354
1.00013
1.00296
1.03435
1.06801
1.06944
1.05596
1.04535
1.04879
1.04969
1.04868
1.01061
0.0896829
0.79353
0.973097
0.984145
1.03276
1.11024
1.1628
1.18692
1.1978
1.20875
1.21357
1.19302
1.10516
1.02569
0.999649
1.00107
1.02975
1.06515
1.06798
1.0556
1.04458
1.04786
1.04917
1.04837
1.01019
0.0974703
0.782129
0.972378
0.980301
1.03095
1.10543
1.15895
1.18559
1.19771
1.20871
1.21353
1.1963
1.11301
1.02838
0.998445
0.997926
1.0225
1.06051
1.0657
1.05501
1.04368
1.04658
1.04819
1.04772
1.00942
0.10815
0.76468
0.968387
0.974894
1.0308
1.0997
1.15437
1.18425
1.19738
1.20799
1.21263
1.19943
1.12296
1.0323
0.997126
0.994076
1.01419
1.05459
1.06274
1.05414
1.04185
1.04464
1.04605
1.04608
1.00781
0.120671
0.738682
0.958709
0.968508
1.03297
1.09308
1.14896
1.18266
1.19707
1.20717
1.21144
1.20182
1.13301
1.03693
0.995705
0.989458
1.00518
1.04642
1.05857
1.05241
1.04006
1.04181
1.04307
1.04317
1.00459
0.134667
0.703496
0.941165
0.961128
1.03697
1.08574
1.14273
1.1808
1.19662
1.20619
1.21017
1.20371
1.14407
1.04304
0.994537
0.984225
0.995875
1.03593
1.05306
1.04969
1.0368
1.03776
1.03716
1.03735
0.998201
0.151171
0.661743
0.911239
0.953912
1.04049
1.07757
1.13578
1.17868
1.19608
1.20512
1.20891
1.205
1.15618
1.05167
0.994488
0.978979
0.986038
1.02229
1.0454
1.04531
1.03218
1.03184
1.03032
1.02935
0.985314
0.170032
0.609904
0.857853
0.949509
1.0393
1.06934
1.12888
1.17586
1.19517
1.20397
1.20777
1.20552
1.16684
1.06381
0.996017
0.974162
0.976841
1.00709
1.03539
1.03876
1.02881
1.02323
1.01894
1.01528
0.958621
0.0780183
0.806348
0.967998
0.992196
1.03792
1.11434
1.16577
1.18671
1.19671
1.20798
1.21283
1.18859
1.09681
1.02432
1.00243
1.00668
1.04065
1.07193
1.07194
1.05711
1.04691
1.05042
1.05119
1.04992
1.01264
0.0784341
0.803729
0.968663
0.991074
1.03775
1.11499
1.16616
1.1871
1.19693
1.208
1.21265
1.18812
1.09617
1.02346
1.00155
1.00544
1.03869
1.07051
1.07087
1.05631
1.04596
1.04937
1.05024
1.04901
1.01149
0.0825291
0.799839
0.970596
0.9883
1.03581
1.11358
1.16522
1.18744
1.19751
1.2084
1.21293
1.18926
1.09834
1.02354
1.00014
1.00296
1.03434
1.068
1.06943
1.05596
1.04536
1.04879
1.04969
1.04869
1.01061
0.0897124
0.793516
0.973108
0.984137
1.03275
1.11023
1.16279
1.18692
1.1978
1.20875
1.21358
1.193
1.10507
1.02563
0.999615
1.00104
1.02972
1.06513
1.06797
1.05559
1.04458
1.04786
1.04917
1.04837
1.01019
0.0974929
0.782105
0.972382
0.98029
1.03095
1.10541
1.15894
1.18558
1.19771
1.20871
1.21351
1.19633
1.11319
1.0285
0.9985
0.997964
1.02249
1.0605
1.06569
1.05501
1.04368
1.04658
1.04818
1.04772
1.00942
0.108175
0.764647
0.968377
0.974881
1.0308
1.09968
1.15436
1.18424
1.19737
1.20798
1.21261
1.1994
1.1229
1.03227
0.997119
0.994075
1.01419
1.05457
1.06272
1.05414
1.04185
1.04463
1.04604
1.04608
1.00782
0.120691
0.738635
0.958686
0.968498
1.03298
1.09306
1.14895
1.18266
1.19706
1.20717
1.21145
1.2018
1.13285
1.0368
0.995638
0.989417
1.00515
1.04641
1.05857
1.0524
1.04005
1.04181
1.04306
1.04317
1.0046
0.134689
0.703445
0.941128
0.961121
1.03698
1.08573
1.14272
1.1808
1.19661
1.20619
1.21018
1.20373
1.14408
1.043
0.994507
0.984202
0.995853
1.03591
1.05304
1.04968
1.0368
1.03775
1.03716
1.03735
0.99821
0.151192
0.661689
0.91118
0.953914
1.0405
1.07756
1.13577
1.17868
1.19608
1.20512
1.20891
1.20501
1.15626
1.05175
0.994516
0.978982
0.986029
1.02226
1.04538
1.0453
1.03217
1.03183
1.03031
1.02935
0.985322
0.170054
0.609838
0.857777
0.949519
1.03931
1.06933
1.12887
1.17585
1.19517
1.20396
1.20775
1.2055
1.16695
1.06399
0.996091
0.974187
0.976848
1.00707
1.03537
1.03874
1.0288
1.02322
1.01894
1.01529
0.958628
0.0780102
0.806347
0.967989
0.992197
1.03793
1.11435
1.16578
1.18672
1.19671
1.20798
1.21283
1.18857
1.09677
1.02431
1.00243
1.00669
1.04068
1.07195
1.07195
1.05711
1.04691
1.05043
1.05119
1.04992
1.01264
0.0784274
0.803729
0.968655
0.991074
1.03775
1.11499
1.16616
1.1871
1.19693
1.208
1.21264
1.18811
1.09615
1.02345
1.00155
1.00545
1.03871
1.07053
1.07088
1.05631
1.04596
1.04937
1.05024
1.04901
1.01149
0.0825226
0.799839
0.970588
0.988301
1.03581
1.11358
1.16522
1.18744
1.19751
1.2084
1.21293
1.18925
1.09833
1.02354
1.00014
1.00297
1.03436
1.06801
1.06944
1.05596
1.04536
1.04879
1.04969
1.04868
1.01061
0.0897031
0.793516
0.973101
0.984137
1.03275
1.11023
1.1628
1.18692
1.1978
1.20874
1.21358
1.193
1.10507
1.02563
0.999617
1.00105
1.02974
1.06514
1.06798
1.0556
1.04458
1.04786
1.04917
1.04837
1.01019
0.0974861
0.782107
0.972377
0.98029
1.03095
1.10541
1.15895
1.18558
1.19771
1.20871
1.21351
1.19633
1.11318
1.02849
0.9985
0.997967
1.02251
1.06051
1.0657
1.05501
1.04369
1.04658
1.04819
1.04773
1.00942
0.108167
0.764651
0.968376
0.974882
1.0308
1.09969
1.15436
1.18424
1.19737
1.20798
1.21261
1.19939
1.12289
1.03227
0.997117
0.994075
1.0142
1.05459
1.06274
1.05414
1.04185
1.04464
1.04606
1.04609
1.00782
0.120685
0.738643
0.958689
0.968499
1.03298
1.09307
1.14895
1.18266
1.19706
1.20717
1.21145
1.20179
1.13283
1.03679
0.995636
0.989418
1.00516
1.04642
1.05857
1.05241
1.04006
1.04181
1.04307
1.04317
1.0046
0.134682
0.703455
0.941135
0.96112
1.03698
1.08573
1.14272
1.1808
1.19661
1.20619
1.21018
1.20372
1.14406
1.04299
0.994505
0.984205
0.995859
1.03592
1.05305
1.04969
1.0368
1.03776
1.03717
1.03736
0.998206
0.151185
0.661701
0.911193
0.953911
1.0405
1.07756
1.13577
1.17868
1.19608
1.20512
1.20891
1.20501
1.15624
1.05173
0.994512
0.978984
0.986034
1.02227
1.04539
1.04531
1.03218
1.03184
1.03032
1.02935
0.98532
0.170046
0.609854
0.857795
0.949514
1.0393
1.06933
1.12887
1.17585
1.19517
1.20396
1.20775
1.2055
1.16694
1.06397
0.996086
0.974187
0.976849
1.00708
1.03538
1.03875
1.02881
1.02323
1.01895
1.01529
0.958627
0.0779937
0.806361
0.967979
0.992213
1.03794
1.11436
1.16579
1.18672
1.19671
1.20798
1.21283
1.18858
1.09678
1.02432
1.00244
1.00669
1.04068
1.07194
1.07195
1.0571
1.0469
1.05042
1.05119
1.04991
1.01265
0.0784117
0.803743
0.968645
0.991089
1.03777
1.115
1.16617
1.1871
1.19693
1.208
1.21265
1.18811
1.09616
1.02346
1.00155
1.00544
1.0387
1.07053
1.07088
1.05631
1.04596
1.04937
1.05023
1.049
1.01149
0.0825067
0.799855
0.970578
0.988316
1.03582
1.11359
1.16523
1.18745
1.19751
1.2084
1.21293
1.18926
1.09834
1.02354
1.00013
1.00296
1.03435
1.06801
1.06944
1.05596
1.04535
1.04879
1.04969
1.04868
1.01061
0.0896828
0.79353
0.973096
0.984145
1.03276
1.11024
1.1628
1.18692
1.1978
1.20875
1.21357
1.19302
1.10516
1.02569
0.999649
1.00107
1.02975
1.06515
1.06798
1.0556
1.04458
1.04786
1.04917
1.04837
1.01019
0.0974702
0.782129
0.972378
0.980301
1.03095
1.10543
1.15895
1.18559
1.19771
1.20871
1.21353
1.1963
1.11301
1.02838
0.998445
0.997926
1.0225
1.06051
1.0657
1.05501
1.04368
1.04658
1.04819
1.04772
1.00942
0.10815
0.76468
0.968387
0.974894
1.0308
1.0997
1.15437
1.18425
1.19738
1.20799
1.21263
1.19943
1.12296
1.0323
0.997126
0.994076
1.01419
1.05459
1.06274
1.05414
1.04185
1.04464
1.04605
1.04608
1.00781
0.120671
0.738682
0.958709
0.968508
1.03297
1.09308
1.14896
1.18266
1.19707
1.20717
1.21144
1.20182
1.13301
1.03693
0.995705
0.989458
1.00518
1.04642
1.05857
1.05241
1.04006
1.04181
1.04307
1.04317
1.00459
0.134667
0.703496
0.941165
0.961128
1.03697
1.08574
1.14273
1.1808
1.19662
1.20619
1.21017
1.20371
1.14407
1.04304
0.994537
0.984225
0.995875
1.03593
1.05306
1.04969
1.0368
1.03776
1.03716
1.03735
0.998201
0.151171
0.661743
0.911239
0.953912
1.04049
1.07757
1.13578
1.17868
1.19608
1.20512
1.20891
1.205
1.15618
1.05167
0.994488
0.978979
0.986038
1.02229
1.0454
1.04531
1.03218
1.03184
1.03032
1.02935
0.985314
0.170032
0.609904
0.857853
0.949509
1.0393
1.06934
1.12888
1.17586
1.19517
1.20397
1.20777
1.20552
1.16684
1.06381
0.996017
0.974162
0.976841
1.00709
1.03539
1.03876
1.02881
1.02323
1.01894
1.01528
0.958621
0.077998
0.806372
0.967989
0.992222
1.03794
1.11435
1.16578
1.18672
1.19671
1.20797
1.21282
1.18858
1.09679
1.02431
1.00243
1.00667
1.04065
1.07194
1.07195
1.05712
1.04692
1.05043
1.0512
1.04993
1.01266
0.0784132
0.803754
0.968654
0.991098
1.03777
1.115
1.16617
1.18711
1.19694
1.208
1.21264
1.1881
1.09613
1.02345
1.00155
1.00544
1.03869
1.07053
1.07089
1.05632
1.04597
1.04938
1.05025
1.04902
1.0115
0.082509
0.799867
0.970587
0.988325
1.03583
1.11359
1.16523
1.18745
1.19751
1.2084
1.21292
1.18923
1.09829
1.02349
1.00008
1.0029
1.03427
1.06797
1.06943
1.05598
1.04537
1.0488
1.0497
1.04869
1.01062
0.0896842
0.793543
0.973106
0.984152
1.03277
1.11024
1.1628
1.18692
1.19781
1.20875
1.21357
1.19296
1.10503
1.0256
0.999603
1.00104
1.02973
1.06514
1.06798
1.05561
1.04459
1.04787
1.04918
1.04838
1.0102
0.097471
0.782144
0.972389
0.980307
1.03096
1.10542
1.15895
1.1856
1.19772
1.20872
1.21354
1.19629
1.11296
1.02837
0.998491
0.997989
1.02256
1.06053
1.06571
1.05502
1.04369
1.04659
1.0482
1.04773
1.00942
0.108149
0.764698
0.968398
0.9749
1.0308
1.09969
1.15437
1.18425
1.19738
1.20799
1.21263
1.19949
1.12313
1.03241
0.997163
0.994082
1.01419
1.05462
1.06278
1.05417
1.04186
1.04465
1.04606
1.04609
1.00782
0.120669
0.738702
0.958722
0.968514
1.03297
1.09307
1.14896
1.18266
1.19707
1.20716
1.21143
1.20189
1.13332
1.03711
0.995688
0.989342
1.00497
1.04625
1.05851
1.0524
1.04007
1.04182
1.04308
1.04318
1.0046
0.134663
0.703518
0.941178
0.961134
1.03697
1.08574
1.14272
1.18079
1.19661
1.20618
1.21015
1.20375
1.14436
1.04321
0.994492
0.984061
0.995633
1.03568
1.05293
1.04963
1.03681
1.03776
1.03717
1.03736
0.998209
0.151165
0.661765
0.911257
0.953917
1.0405
1.07758
1.13578
1.17868
1.19607
1.20511
1.2089
1.20502
1.15635
1.05179
0.994451
0.978855
0.985877
1.0221
1.04529
1.04525
1.03218
1.03184
1.03032
1.02935
0.985322
0.170023
0.609934
0.85788
0.949511
1.0393
1.06934
1.12888
1.17586
1.19516
1.20396
1.20777
1.20553
1.16689
1.06383
0.995991
0.974121
0.9768
1.00705
1.03537
1.03875
1.02882
1.02323
1.01895
1.01529
0.958629
0.0779727
0.80637
0.96797
0.992234
1.03796
1.1144
1.16582
1.18674
1.19672
1.20799
1.21286
1.18869
1.09699
1.02436
1.00238
1.00656
1.04047
1.07186
1.07192
1.05714
1.04692
1.05043
1.05118
1.0499
1.01265
0.0784216
0.80376
0.968651
0.991109
1.03776
1.11494
1.1661
1.18704
1.19686
1.20794
1.21266
1.18845
1.09681
1.02367
1.0015
1.00528
1.0384
1.0704
1.07082
1.05634
1.04597
1.04938
1.05023
1.049
1.01149
0.0825038
0.799867
0.970583
0.988339
1.03583
1.11354
1.16517
1.18737
1.19742
1.20834
1.21295
1.18958
1.09891
1.02378
1.0002
1.00296
1.03423
1.06797
1.06943
1.05599
1.04537
1.04879
1.04968
1.04867
1.01061
0.0896616
0.793543
0.973108
0.984157
1.03278
1.11024
1.16278
1.18688
1.19776
1.20871
1.21357
1.19305
1.10522
1.02573
0.999686
1.00112
1.0298
1.06517
1.068
1.05561
1.04458
1.04786
1.04916
1.04836
1.01019
0.0974614
0.782159
0.97239
0.980317
1.03096
1.10544
1.15897
1.18559
1.1977
1.20871
1.21352
1.19617
1.1127
1.02824
0.998442
0.997981
1.02263
1.06059
1.06574
1.05502
1.04368
1.04658
1.04818
1.04771
1.00941
0.108138
0.764719
0.968409
0.974912
1.0308
1.09971
1.15438
1.18424
1.19738
1.20799
1.21262
1.19928
1.12256
1.03209
0.997107
0.994145
1.01435
1.05469
1.06278
1.05415
1.04185
1.04464
1.04605
1.04607
1.0078
0.120663
0.738734
0.958744
0.968524
1.03296
1.09308
1.14896
1.18265
1.19706
1.20717
1.21143
1.20168
1.13256
1.03668
0.995689
0.989558
1.00536
1.04658
1.05864
1.05242
1.04005
1.04181
1.04306
1.04316
1.00458
0.134656
0.703553
0.94121
0.961143
1.03696
1.08575
1.14273
1.18078
1.19659
1.20618
1.21014
1.20359
1.14364
1.04278
0.994538
0.984367
0.996092
1.03614
1.05314
1.04972
1.03679
1.03775
1.03715
1.03734
0.998188
0.151159
0.661803
0.911302
0.953923
1.04049
1.07758
1.13578
1.17867
1.19606
1.2051
1.20888
1.20491
1.15582
1.0514
0.994497
0.979145
0.986272
1.02254
1.04551
1.04537
1.03217
1.03183
1.03031
1.02934
0.9853
0.170018
0.609979
0.857936
0.949516
1.0393
1.06934
1.12889
1.17585
1.19515
1.20395
1.20774
1.20545
1.16659
1.06354
0.996023
0.974329
0.977064
1.00736
1.03552
1.03882
1.02881
1.02322
1.01894
1.01527
0.958607
0.0779832
0.806394
0.967974
0.992247
1.03796
1.11439
1.16583
1.18675
1.19675
1.20801
1.21284
1.18852
1.09663
1.02418
1.0023
1.00655
1.04054
1.07189
1.07194
1.05715
1.04696
1.05048
1.0513
1.05002
1.01254
0.0783918
0.803775
0.968638
0.991121
1.0378
1.11506
1.16623
1.18715
1.19698
1.20805
1.21267
1.18811
1.09614
1.02339
1.00145
1.00531
1.03854
1.07046
1.07086
1.05635
1.04601
1.04942
1.05035
1.04912
1.0114
0.0824941
0.799894
0.970574
0.98835
1.03585
1.11362
1.16528
1.18749
1.19753
1.20842
1.21297
1.18945
1.09867
1.02365
1.0001
1.00286
1.03412
1.0679
1.0694
1.056
1.0454
1.04884
1.0498
1.04879
1.01052
0.0896711
0.793576
0.973111
0.984166
1.03279
1.11026
1.16283
1.18694
1.1978
1.20873
1.21361
1.19337
1.10589
1.02591
0.999503
1.0008
1.02934
1.06497
1.06792
1.05563
1.04462
1.04791
1.04927
1.04847
1.01011
0.0974531
0.782187
0.972397
0.980327
1.03098
1.10545
1.15898
1.18559
1.1977
1.20869
1.21351
1.19648
1.11357
1.02858
0.998341
0.997712
1.02206
1.06025
1.06558
1.05503
1.04373
1.04662
1.04828
1.04781
1.00934
0.108135
0.76476
0.968422
0.974924
1.03081
1.09973
1.15441
1.18428
1.19739
1.20799
1.21263
1.19938
1.12276
1.03215
0.997088
0.994084
1.01423
1.05461
1.06275
1.05417
1.04189
1.04467
1.04611
1.04616
1.00776
0.120654
0.738784
0.958761
0.968537
1.03297
1.09311
1.149
1.1827
1.1971
1.20721
1.21149
1.20174
1.1325
1.03661
0.995711
0.989617
1.00543
1.04662
1.05867
1.05245
1.04009
1.04183
1.04311
1.04323
1.00455
0.134651
0.703612
0.941237
0.961155
1.03697
1.08578
1.14277
1.18084
1.19665
1.20623
1.21022
1.20368
1.14375
1.04285
0.994595
0.984416
0.996125
1.03617
1.05318
1.04975
1.03681
1.03777
1.03719
1.0374
0.998172
0.151153
0.661869
0.911341
0.953937
1.0405
1.07761
1.13582
1.17871
1.19611
1.20514
1.20893
1.20498
1.15611
1.05171
0.994589
0.979114
0.986171
1.0224
1.04547
1.04536
1.03219
1.03183
1.03033
1.02938
0.985296
0.170006
0.610058
0.857992
0.949528
1.03932
1.06937
1.12893
1.17588
1.19519
1.20398
1.20776
1.20548
1.1669
1.06401
0.996128
0.974202
0.97684
1.00703
1.03537
1.03875
1.02881
1.02321
1.01894
1.0153
0.958614
0.195609
0.561218
0.843355
0.952061
1.03556
1.06287
1.12108
1.17186
1.19336
1.20235
1.20625
1.20507
1.17619
1.07948
0.999517
0.969407
0.967908
0.991174
1.02557
1.03278
1.02345
1.01277
1.0041
0.990452
0.881322
0.222273
0.531072
0.844196
0.957261
1.02879
1.05591
1.11405
1.16846
1.19166
1.20051
1.20419
1.20349
1.18268
1.09654
1.00615
0.965495
0.957504
0.971271
1.00786
1.02079
1.01675
1.00166
0.985017
0.968277
0.881978
0.251058
0.512061
0.835541
0.962955
1.02238
1.04874
1.1053
1.16279
1.18789
1.19747
1.20111
1.2008
1.18785
1.11627
1.01573
0.964182
0.949675
0.957704
0.991675
1.01055
1.00877
0.996993
0.970113
0.953382
0.892153
0.281788
0.474593
0.828102
0.977474
1.01389
1.04223
1.09756
1.15331
1.18255
1.19393
1.19746
1.19728
1.18974
1.13685
1.03031
0.966095
0.9426
0.943969
0.969756
0.996603
0.999025
0.991305
0.963353
0.943639
0.90897
0.300608
0.461429
0.809707
0.989063
1.00728
1.03315
1.08572
1.1402
1.17496
1.18905
1.19276
1.19348
1.18995
1.15315
1.05107
0.971719
0.937614
0.932059
0.948683
0.980649
0.988387
0.984986
0.962536
0.934698
0.908889
0.319991
0.452853
0.778605
0.992204
0.99416
1.02109
1.0739
1.12676
1.16562
1.18228
1.18784
1.19041
1.18957
1.16711
1.07698
0.982355
0.934786
0.920195
0.928561
0.959902
0.975002
0.975437
0.962227
0.932203
0.906155
0.337662
0.438086
0.740124
0.982338
0.977134
1.02131
1.06832
1.11444
1.15462
1.17489
1.18342
1.18822
1.18951
1.17643
1.10486
0.998271
0.936233
0.910896
0.911441
0.935305
0.961564
0.966827
0.960425
0.935731
0.906865
0.347395
0.417197
0.670607
0.909316
0.96045
1.03208
1.06582
1.09542
1.13657
1.16329
1.17773
1.18613
1.18875
1.18156
1.12997
1.01987
0.942535
0.905538
0.897873
0.9107
0.941289
0.953134
0.952989
0.941123
0.911327
0.3536
0.410751
0.611802
0.843712
0.971451
1.03826
1.05945
1.0781
1.11735
1.15273
1.17333
1.18405
1.18757
1.18421
1.14978
1.04623
0.954024
0.903961
0.887487
0.89112
0.917591
0.941377
0.945333
0.940639
0.920493
0.361713
0.410142
0.550795
0.804571
0.987336
1.03536
1.04921
1.06145
1.098
1.14132
1.16849
1.18102
1.18565
1.18443
1.16418
1.07875
0.974047
0.908627
0.879491
0.876087
0.88903
0.919825
0.933974
0.934503
0.927153
0.373304
0.411687
0.517705
0.749669
0.988049
1.02459
1.02943
1.04528
1.08188
1.12781
1.15978
1.17615
1.18249
1.18276
1.17262
1.11216
0.998121
0.918611
0.875634
0.86371
0.867533
0.893465
0.91804
0.92462
0.923108
0.386873
0.411511
0.484569
0.689166
0.981945
0.992823
1.00983
1.0421
1.07016
1.11316
1.1499
1.17112
1.17944
1.18062
1.17619
1.13936
1.03232
0.93783
0.880145
0.854823
0.85201
0.862435
0.894134
0.912862
0.915507
0.392883
0.401914
0.448982
0.621879
0.901206
0.956764
1.00736
1.04639
1.06648
1.09728
1.13526
1.16222
1.1749
1.17834
1.17659
1.15739
1.07571
0.964193
0.891218
0.852411
0.839827
0.841714
0.860907
0.890147
0.904338
0.381235
0.384881
0.420845
0.550694
0.820177
0.959351
1.01706
1.04918
1.05827
1.08009
1.11993
1.15097
1.16845
1.17517
1.1756
1.16762
1.11293
0.997378
0.91162
0.857847
0.833622
0.829715
0.836244
0.862452
0.885139
0.367984
0.369848
0.3956
0.4935
0.722541
0.983846
1.0195
1.03015
1.04128
1.06415
1.10348
1.13844
1.16027
1.17086
1.17419
1.17164
1.14162
1.03998
0.935262
0.869984
0.832854
0.819128
0.81924
0.830045
0.860679
0.359154
0.357466
0.373412
0.435892
0.61041
0.954349
0.977417
0.990539
1.02946
1.05601
1.08374
1.1196
1.15018
1.16634
1.1722
1.17227
1.15975
1.08686
0.967813
0.88561
0.838205
0.813079
0.806685
0.808888
0.823759
0.353241
0.347143
0.357994
0.400374
0.539886
0.834012
0.939765
0.98499
1.02784
1.04448
1.06213
1.10013
1.13534
1.15859
1.16907
1.17123
1.16796
1.12982
1.01235
0.908906
0.84772
0.815147
0.799233
0.797229
0.800677
0.348306
0.338739
0.346033
0.374559
0.474284
0.707323
0.948652
0.991555
1.01242
1.02167
1.04791
1.08087
1.11855
1.14677
1.16255
1.16867
1.1687
1.15424
1.07343
0.946408
0.864215
0.820174
0.796393
0.787776
0.787821
0.344604
0.332169
0.336709
0.354518
0.413015
0.576575
0.903638
0.961101
0.972833
1.00837
1.03189
1.06377
1.09883
1.13266
1.15499
1.16482
1.16731
1.16395
1.12667
1.00446
0.895808
0.832079
0.799634
0.780902
0.777067
0.341744
0.327384
0.330413
0.342405
0.380391
0.504171
0.77017
0.927618
0.967064
0.998391
1.01421
1.04034
1.0798
1.1165
1.14295
1.15875
1.16477
1.16563
1.1518
1.08082
0.946492
0.856821
0.808371
0.783871
0.767316
0.339614
0.323649
0.325574
0.333181
0.356707
0.434171
0.630539
0.92629
0.960133
0.968823
0.997228
1.0187
1.0545
1.09364
1.12814
1.14896
1.1603
1.16447
1.16128
1.12989
1.02424
0.904414
0.829251
0.791315
0.770327
0.33811
0.32105
0.322289
0.327177
0.341936
0.386654
0.527965
0.8119
0.922866
0.954462
0.982961
1.00616
1.02553
1.06659
1.10529
1.13657
1.15343
1.16156
1.16303
1.15259
1.09392
0.97233
0.87269
0.810288
0.777913
0.337077
0.319151
0.319929
0.323051
0.332267
0.359248
0.448022
0.660363
0.924047
0.950135
0.959035
0.986685
1.00841
1.03347
1.08021
1.11437
1.14203
1.15648
1.16184
1.15917
1.13599
1.04583
0.935796
0.848944
0.794793
0.336364
0.317846
0.318388
0.320438
0.326151
0.342126
0.38969
0.535448
0.822708
0.916905
0.946157
0.968797
0.995852
1.01082
1.03951
1.09113
1.12321
1.14576
1.15808
1.15867
1.15163
1.11243
1.00257
0.901474
0.828532
0.335906
0.317041
0.317526
0.318878
0.322376
0.33182
0.359213
0.449666
0.664322
0.915144
0.938569
0.948266
0.974668
0.997644
1.01584
1.04768
1.09758
1.13061
1.15014
1.1565
1.1549
1.14104
1.07825
0.963033
0.875186
0.33599
0.316866
0.317202
0.317941
0.320025
0.32568
0.341401
0.387972
0.532699
0.806725
0.906467
0.938053
0.954046
0.982977
0.996267
1.01634
1.05446
1.10319
1.13617
1.15134
1.15303
1.14855
1.124
1.03657
0.93061
0.336544
0.316932
0.317038
0.317531
0.318795
0.32207
0.330904
0.3564
0.439986
0.643287
0.900666
0.922257
0.936862
0.959889
0.98464
0.997804
1.01791
1.06059
1.10852
1.1391
1.14846
1.1474
1.13887
1.10158
0.99446
0.336803
0.317071
0.31696
0.317206
0.317929
0.31984
0.324865
0.338851
0.380494
0.516508
0.768354
0.89324
0.927724
0.939135
0.965377
0.982422
0.997433
1.01983
1.06681
1.11463
1.13781
1.14314
1.14027
1.12609
1.07132
0.33694
0.317211
0.316846
0.316979
0.317384
0.318456
0.321254
0.328731
0.350218
0.419251
0.603241
0.87253
0.90251
0.925742
0.942062
0.968818
0.980631
0.995589
1.02111
1.07384
1.11754
1.13413
1.13614
1.13065
1.10837
0.337008
0.317282
0.316765
0.316832
0.317054
0.317652
0.319211
0.323305
0.334622
0.368427
0.482601
0.711084
0.881838
0.912682
0.923174
0.946741
0.969506
0.979389
0.993716
1.02363
1.07975
1.1156
1.12755
1.12685
1.11814
0.337027
0.317309
0.316709
0.316742
0.316861
0.317185
0.318025
0.320215
0.326008
0.342513
0.393173
0.549908
0.809754
0.881815
0.911734
0.923202
0.949886
0.967477
0.976996
0.991849
1.02898
1.08122
1.10929
1.11786
1.11528
0.337015
0.317321
0.316673
0.316688
0.316746
0.316908
0.317343
0.318487
0.321498
0.329687
0.35379
0.434134
0.628101
0.86417
0.888381
0.909005
0.925309
0.951741
0.963642
0.973761
0.991632
1.0356
1.07875
1.10174
1.10718
0.337001
0.317334
0.316643
0.316647
0.316674
0.316761
0.316989
0.317576
0.319114
0.323208
0.334764
0.369723
0.490801
0.706097
0.863966
0.893328
0.90477
0.929352
0.952313
0.958568
0.969037
0.991818
1.04016
1.07628
1.09227
0.337
0.317331
0.316627
0.316629
0.316641
0.316681
0.316791
0.317082
0.317845
0.319862
0.32526
0.340884
0.389525
0.541676
0.782711
0.863651
0.892664
0.903453
0.930484
0.949869
0.954453
0.965187
0.993629
1.04179
1.07401
0.337001
0.317326
0.316626
0.316614
0.31662
0.316639
0.316691
0.31683
0.317196
0.318156
0.320713
0.327706
0.348495
0.417916
0.59473
0.82897
0.86654
0.888954
0.904969
0.931791
0.944545
0.950099
0.964791
1.00535
1.05439
0.337002
0.317323
0.316626
0.316608
0.31661
0.316619
0.316642
0.316706
0.316874
0.317321
0.318505
0.321694
0.330678
0.358081
0.454339
0.649235
0.842003
0.869298
0.88454
0.908282
0.932116
0.941003
0.954231
0.982018
1.0385
0.337003
0.317321
0.316627
0.316605
0.316606
0.316609
0.31662
0.316647
0.316722
0.316922
0.317454
0.318883
0.32277
0.33405
0.368919
0.491034
0.686554
0.839853
0.868969
0.888708
0.912655
0.939088
0.965471
1.00287
1.07466
0.337003
0.317321
0.316628
0.316603
0.316604
0.316605
0.31661
0.316621
0.316653
0.316738
0.316968
0.317585
0.319261
0.323851
0.337404
0.38053
0.516182
0.73278
0.840625
0.871516
0.913078
0.960244
1.01764
1.08269
1.1684
0.337002
0.317321
0.316628
0.316603
0.316603
0.316603
0.316605
0.31661
0.316623
0.316658
0.316754
0.317014
0.317716
0.319634
0.324954
0.340903
0.394127
0.541601
0.770485
0.8611
0.938688
1.06032
1.20079
1.27376
1.33074
0.337002
0.317321
0.316628
0.316603
0.316602
0.316603
0.316604
0.316606
0.316611
0.316628
0.316672
0.316793
0.317122
0.318015
0.320481
0.327456
0.349136
0.423085
0.624675
0.832868
1.04542
1.15088
1.30021
1.37762
1.33657
0.195616
0.561188
0.843373
0.952046
1.03554
1.06285
1.12106
1.17184
1.19333
1.20235
1.20626
1.20504
1.17596
1.07916
0.999475
0.969512
0.968057
0.991373
1.0257
1.03285
1.02345
1.01274
1.00407
0.990414
0.881293
0.222284
0.531045