/*--------------------------------*- C++ -*----------------------------------*\
| =========                 |                                                 |
| \\      /  F ield         | OpenFOAM: The Open Source CFD Toolbox           |
|  \\    /   O peration     | Version:  4.1                                   |
|   \\  /    A nd           | Web:      www.OpenFOAM.org                      |
|    \\/     M anipulation  |                                                 |
\*---------------------------------------------------------------------------*/
FoamFile
{
    version     2.0;
    format      ascii;
    class       volVectorField;
    location    "0.86";
    object      U;
}
// * * * * * * * * * * * * * * * * * * * * * * * * * * * * * * * * * * * * * //

dimensions      [0 1 -1 0 0 0 0];

internalField   nonuniform List<vector> 
52500
(
(2.12765 -0.000361459 -0.000522993)
(1.11742 0.00107136 -0.00520258)
(0.328992 0.010362 -0.00668848)
(0.310823 0.0117594 -0.00685164)
(0.392463 0.0102197 -0.0071643)
(0.43963 0.00983453 -0.00768357)
(0.441175 0.0104514 -0.00802563)
(0.441406 0.0113789 -0.00815765)
(0.458262 0.0123113 -0.00821293)
(0.480422 0.0131682 -0.00827694)
(0.491564 0.013791 -0.00830428)
(0.489208 0.0141646 -0.00812693)
(0.48598 0.0142237 -0.00750644)
(0.481362 0.0140039 -0.00702314)
(0.468891 0.0138515 -0.00688562)
(0.452834 0.0139232 -0.00692981)
(0.4315 0.0145571 -0.00717619)
(0.405691 0.0156305 -0.00739907)
(0.38278 0.0168864 -0.00740832)
(0.358872 0.018074 -0.00732081)
(0.323051 0.0193304 -0.00727878)
(0.27048 0.0207367 -0.00733834)
(0.204464 0.0221205 -0.00738897)
(0.0985952 0.0233284 -0.0074304)
(0.0266604 0.0241877 -0.00720767)
(2.12703 -0.00215531 -0.000525738)
(1.12286 0.0021553 -0.00518464)
(0.335801 0.0311801 -0.0066777)
(0.308726 0.033918 -0.00682888)
(0.389044 0.0279416 -0.00715126)
(0.438187 0.0258565 -0.00767575)
(0.440938 0.0265319 -0.00801476)
(0.44142 0.0280241 -0.00814557)
(0.458117 0.029658 -0.00819876)
(0.479972 0.0311147 -0.00826067)
(0.490862 0.0319318 -0.00828599)
(0.488514 0.0322384 -0.00810562)
(0.485548 0.0315589 -0.0074851)
(0.481461 0.0307513 -0.0070021)
(0.469658 0.0304802 -0.00686484)
(0.454321 0.0308275 -0.0069059)
(0.433683 0.0324304 -0.00714597)
(0.408196 0.0348685 -0.00737047)
(0.385176 0.0374852 -0.0073807)
(0.361029 0.0397314 -0.0072941)
(0.32508 0.0421504 -0.00725008)
(0.272219 0.0449467 -0.0073073)
(0.205429 0.0474994 -0.00735719)
(0.0987214 0.0492862 -0.00739806)
(0.0263657 0.0496928 -0.00717426)
(2.12221 -0.00467456 -0.000552875)
(1.13218 0.00293933 -0.00516015)
(0.348009 0.0551093 -0.00667374)
(0.304139 0.0564226 -0.00679542)
(0.383015 0.0461316 -0.00712683)
(0.437006 0.0437408 -0.00765277)
(0.442548 0.0454421 -0.00799342)
(0.444065 0.0482539 -0.0081312)
(0.461028 0.0513572 -0.00818468)
(0.482767 0.0540363 -0.00824468)
(0.493617 0.0555331 -0.00826881)
(0.49098 0.0565041 -0.00809406)
(0.48764 0.0550875 -0.00748185)
(0.48371 0.0538247 -0.00698635)
(0.47216 0.0534941 -0.00683951)
(0.457326 0.0543108 -0.00687262)
(0.437561 0.0572126 -0.00709883)
(0.412725 0.0615454 -0.00733336)
(0.389737 0.0661315 -0.00734958)
(0.365431 0.0701314 -0.00726917)
(0.329566 0.0743413 -0.00722235)
(0.276499 0.0791728 -0.007278)
(0.208761 0.0836756 -0.00732663)
(0.100884 0.0871076 -0.00736804)
(0.0271034 0.0874634 -0.00714187)
(2.11389 -0.0060123 -0.000600535)
(1.14818 0.00666161 -0.00511984)
(0.366288 0.0844137 -0.00666922)
(0.295333 0.0742186 -0.00675844)
(0.374983 0.0629569 -0.00709452)
(0.43637 0.0613193 -0.00761627)
(0.445284 0.0638735 -0.00796108)
(0.448098 0.0678463 -0.00810982)
(0.465349 0.0722144 -0.00816753)
(0.486819 0.0757115 -0.0082277)
(0.497923 0.0774919 -0.00825351)
(0.494969 0.0787939 -0.00810043)
(0.490903 0.076454 -0.00750811)
(0.487226 0.0744902 -0.00698349)
(0.476053 0.0739071 -0.00681961)
(0.462101 0.0752189 -0.00684197)
(0.443686 0.0794083 -0.00704821)
(0.41977 0.0857733 -0.00729256)
(0.396833 0.0924622 -0.0073172)
(0.372287 0.0985893 -0.00724295)
(0.336529 0.104876 -0.00719214)
(0.283332 0.112153 -0.00724472)
(0.214515 0.119151 -0.00729434)
(0.104895 0.125041 -0.00733594)
(0.02848 0.125838 -0.00711092)
(2.10472 -0.00708595 -0.000652147)
(1.17951 0.0123683 -0.00504256)
(0.391851 0.118687 -0.00663562)
(0.281332 0.0881129 -0.00672594)
(0.370549 0.0776583 -0.00707377)
(0.43753 0.0780777 -0.00756993)
(0.449162 0.0819827 -0.00791836)
(0.453452 0.0874924 -0.00808191)
(0.470924 0.0932304 -0.00814701)
(0.49189 0.0975676 -0.00820743)
(0.503226 0.0997697 -0.00823286)
(0.499787 0.101235 -0.0081049)
(0.494759 0.0982963 -0.00754463)
(0.491446 0.0955323 -0.00698621)
(0.480904 0.0945805 -0.00679634)
(0.468059 0.0963563 -0.00680401)
(0.451264 0.101497 -0.00698126)
(0.428566 0.109671 -0.00724009)
(0.405851 0.118257 -0.00727908)
(0.381204 0.126695 -0.00721413)
(0.345753 0.135275 -0.00715955)
(0.292721 0.145359 -0.00720715)
(0.223011 0.155445 -0.00725644)
(0.111286 0.164987 -0.00729842)
(0.0309172 0.167278 -0.00707437)
(2.09218 -0.00841336 -0.000722638)
(1.22687 0.0182904 -0.00492506)
(0.423248 0.154608 -0.0065769)
(0.260989 0.102013 -0.00668204)
(0.369069 0.0902754 -0.00706391)
(0.441381 0.0935231 -0.00751712)
(0.454891 0.0998923 -0.00786976)
(0.460411 0.107488 -0.00805287)
(0.477702 0.114529 -0.00812404)
(0.497823 0.119607 -0.00818192)
(0.509257 0.122254 -0.00820605)
(0.505336 0.123641 -0.00810785)
(0.499173 0.120489 -0.0075921)
(0.496129 0.116858 -0.0069948)
(0.486506 0.115412 -0.00677016)
(0.475025 0.117607 -0.00675909)
(0.460122 0.123312 -0.00690607)
(0.439002 0.133206 -0.00717896)
(0.416878 0.143616 -0.00723621)
(0.392501 0.154692 -0.00718263)
(0.357573 0.166092 -0.007119)
(0.305151 0.179608 -0.00716275)
(0.235111 0.193753 -0.0072075)
(0.121184 0.208592 -0.00724973)
(0.0351217 0.214522 -0.00702741)
(2.0773 -0.00922021 -0.000804892)
(1.29231 0.0240992 -0.00474941)
(0.462317 0.189241 -0.00647486)
(0.237857 0.118461 -0.00662923)
(0.370677 0.103183 -0.00706619)
(0.448342 0.109087 -0.00745613)
(0.462832 0.11851 -0.00781389)
(0.468855 0.128265 -0.00802088)
(0.485404 0.136327 -0.00810048)
(0.504452 0.141895 -0.00815534)
(0.515733 0.144836 -0.00817722)
(0.511388 0.14579 -0.0081061)
(0.504098 0.142727 -0.00764113)
(0.501175 0.138304 -0.0070081)
(0.492854 0.13634 -0.00674214)
(0.482833 0.138933 -0.00670745)
(0.469989 0.14468 -0.0068235)
(0.450903 0.156216 -0.00710064)
(0.429835 0.168459 -0.00718347)
(0.406432 0.182342 -0.00714423)
(0.372545 0.19702 -0.00707674)
(0.321433 0.215108 -0.00710951)
(0.252069 0.234743 -0.00714868)
(0.136726 0.257089 -0.00718609)
(0.0429242 0.270846 -0.00696182)
(2.06044 -0.0100343 -0.000896247)
(1.37495 0.0278217 -0.00451131)
(0.51231 0.218802 -0.00631294)
(0.218995 0.137492 -0.00656792)
(0.375162 0.11879 -0.0070771)
(0.457923 0.127159 -0.00738697)
(0.472552 0.139066 -0.00775032)
(0.478273 0.150278 -0.00798575)
(0.493619 0.158851 -0.00807528)
(0.511417 0.164523 -0.00812732)
(0.522259 0.167332 -0.008148)
(0.517764 0.16754 -0.00810105)
(0.509674 0.164711 -0.0076976)
(0.506708 0.159738 -0.00703163)
(0.500014 0.157276 -0.00671596)
(0.491342 0.160082 -0.0066523)
(0.480686 0.165594 -0.00673959)
(0.46428 0.178488 -0.00700672)
(0.44476 0.19275 -0.00712067)
(0.42313 0.209485 -0.00709757)
(0.391353 0.22751 -0.00702236)
(0.342826 0.251773 -0.00704491)
(0.275626 0.278769 -0.00706535)
(0.161307 0.312102 -0.00709443)
(0.0574755 0.341516 -0.00686305)
(2.04041 -0.0111462 -0.00100322)
(1.47089 0.0287631 -0.00423013)
(0.57552 0.238517 -0.00606634)
(0.212332 0.158992 -0.00650513)
(0.382772 0.141041 -0.00707844)
(0.468674 0.150277 -0.00730868)
(0.482468 0.162582 -0.00768032)
(0.487635 0.173864 -0.0079483)
(0.501757 0.182196 -0.00804925)
(0.518249 0.187491 -0.00809873)
(0.528454 0.189688 -0.00811931)
(0.52428 0.188989 -0.00809159)
(0.515998 0.186507 -0.00775914)
(0.512905 0.181017 -0.007071)
(0.507978 0.178233 -0.0066971)
(0.500552 0.180799 -0.00659826)
(0.492125 0.186274 -0.00665309)
(0.479025 0.199861 -0.00689366)
(0.461688 0.21625 -0.00704403)
(0.442417 0.235577 -0.00703984)
(0.414594 0.257179 -0.00695711)
(0.370857 0.288425 -0.00696451)
(0.308399 0.325787 -0.00696795)
(0.2011 0.375461 -0.00697548)
(0.0850355 0.433288 -0.00670057)
(2.01731 -0.0135638 -0.00112423)
(1.57793 0.0148005 -0.00388311)
(0.660393 0.197117 -0.00566863)
(0.22232 0.172086 -0.00645484)
(0.389359 0.170139 -0.00704398)
(0.475417 0.179042 -0.00722826)
(0.489618 0.188933 -0.00761054)
(0.495526 0.198691 -0.00790644)
(0.509134 0.206088 -0.00802104)
(0.524533 0.210573 -0.00807019)
(0.534075 0.211866 -0.00809205)
(0.530861 0.210382 -0.00807677)
(0.522906 0.208433 -0.00781023)
(0.519754 0.202139 -0.00713264)
(0.516667 0.1992 -0.00668838)
(0.510475 0.201126 -0.00654789)
(0.504304 0.206817 -0.00657116)
(0.494832 0.220327 -0.00677159)
(0.480356 0.238458 -0.00695293)
(0.464263 0.259877 -0.00696892)
(0.442509 0.285444 -0.00689976)
(0.407153 0.32219 -0.00686161)
(0.354711 0.373544 -0.00683204)
(0.265365 0.453217 -0.0067998)
(0.135806 0.583885 -0.00640812)
(2.12769 -0.00037794 4.46661e-08)
(1.11747 0.00104989 1.93042e-07)
(0.329018 0.010363 2.04812e-07)
(0.31086 0.0117801 1.52816e-07)
(0.392495 0.0102433 8.72392e-08)
(0.439651 0.00986186 7.42084e-08)
(0.441177 0.0104893 8.92574e-08)
(0.441383 0.0114302 9.21339e-08)
(0.458206 0.0123735 9.71297e-08)
(0.480329 0.0132232 1.07136e-07)
(0.491445 0.0138228 1.1381e-07)
(0.489091 0.0142027 -1.07106e-07)
(0.48588 0.0141919 4.288e-08)
(0.481292 0.0139599 -2.76702e-08)
(0.468861 0.0138218 -5.67289e-08)
(0.452835 0.0139092 -4.90627e-08)
(0.431519 0.0145587 -4.34879e-09)
(0.405709 0.0156378 7.67003e-08)
(0.382795 0.0168933 2.05973e-07)
(0.358887 0.0180785 2.89499e-07)
(0.323076 0.0193334 3.23382e-07)
(0.270522 0.0207387 3.10513e-07)
(0.204513 0.0221207 2.38039e-07)
(0.0986585 0.0233288 1.17348e-07)
(0.0267088 0.0241891 -5.83012e-08)
(2.12702 -0.00216741 1.31621e-08)
(1.12287 0.00213888 1.71112e-07)
(0.335787 0.0311785 2.11314e-07)
(0.308777 0.0339267 1.56404e-07)
(0.389096 0.0279423 8.30859e-08)
(0.438241 0.0258505 7.31752e-08)
(0.441006 0.026526 8.91583e-08)
(0.441513 0.0280181 8.94448e-08)
(0.458236 0.0296463 8.45732e-08)
(0.480129 0.0310846 9.53991e-08)
(0.491124 0.0318799 1.02687e-07)
(0.488825 0.0322165 -3.44965e-08)
(0.485839 0.0314845 2.32845e-08)
(0.48175 0.0306878 -3.76783e-08)
(0.469894 0.0304451 -6.23616e-08)
(0.454493 0.0308166 -5.42635e-08)
(0.433804 0.032438 -1.51252e-08)
(0.40827 0.0348808 6.82005e-08)
(0.385219 0.0374973 1.93716e-07)
(0.361059 0.0397445 2.73988e-07)
(0.325111 0.0421647 3.07818e-07)
(0.27226 0.0449577 2.97248e-07)
(0.205476 0.0475032 2.34685e-07)
(0.0987805 0.0492874 1.23068e-07)
(0.0264101 0.0496931 -4.02059e-08)
(2.12222 -0.00466148 9.80231e-09)
(1.1322 0.00295473 1.70852e-07)
(0.348004 0.0551092 2.20879e-07)
(0.30418 0.0564218 1.53495e-07)
(0.383056 0.0461221 7.57943e-08)
(0.437051 0.0437234 7.36619e-08)
(0.442606 0.0454194 9.14595e-08)
(0.444141 0.0482254 9.94869e-08)
(0.461118 0.0513198 8.71644e-08)
(0.482883 0.0539933 9.33246e-08)
(0.493833 0.0554863 8.99019e-08)
(0.491222 0.0564433 4.25736e-08)
(0.487841 0.0550521 1.14073e-08)
(0.483916 0.0538189 -3.64819e-08)
(0.472326 0.0535161 -5.98148e-08)
(0.457447 0.0543571 -5.60655e-08)
(0.437641 0.0572616 -2.06389e-08)
(0.412764 0.0615859 5.92575e-08)
(0.389757 0.0661645 1.80235e-07)
(0.365448 0.0701615 2.43311e-07)
(0.329589 0.0743709 2.83934e-07)
(0.276531 0.0791933 2.76401e-07)
(0.208802 0.0836839 2.28078e-07)
(0.100939 0.087109 1.28449e-07)
(0.0271454 0.0874631 -2.5113e-08)
(2.11393 -0.00600877 3.96494e-08)
(1.14822 0.00666448 2.13905e-07)
(0.366308 0.0844105 2.68566e-07)
(0.295381 0.0742246 9.30856e-08)
(0.375015 0.0629494 7.39849e-08)
(0.436401 0.0612945 7.20424e-08)
(0.445317 0.0638354 8.99615e-08)
(0.448135 0.0677973 1.03054e-07)
(0.465389 0.0721559 8.95545e-08)
(0.486861 0.0756562 8.16005e-08)
(0.497997 0.077448 7.9602e-08)
(0.495038 0.0787129 7.90395e-08)
(0.490943 0.0764517 1.1011e-08)
(0.487271 0.0745374 -4.59876e-08)
(0.476082 0.0739881 -6.66902e-08)
(0.462106 0.075323 -9.79671e-08)
(0.443668 0.0795042 -4.22309e-08)
(0.419734 0.0858472 3.07709e-08)
(0.396802 0.0925196 1.74459e-07)
(0.372272 0.0986336 1.92863e-07)
(0.336529 0.104914 2.48946e-07)
(0.283348 0.112178 2.44927e-07)
(0.214547 0.119162 2.15694e-07)
(0.104945 0.12504 1.3651e-07)
(0.0285191 0.125836 1.62572e-09)
(2.10474 -0.00709044 1.80948e-08)
(1.17953 0.0123613 2.11626e-07)
(0.391862 0.118689 2.98371e-07)
(0.281381 0.0881265 7.9954e-08)
(0.370568 0.0776538 5.64486e-08)
(0.437546 0.078051 6.48306e-08)
(0.449177 0.0819408 8.51965e-08)
(0.453462 0.0874417 9.99465e-08)
(0.470929 0.0931715 9.65878e-08)
(0.491885 0.0975097 8.80384e-08)
(0.503193 0.0997193 6.77423e-08)
(0.499716 0.101156 1.17783e-07)
(0.494659 0.0982866 -3.2711e-09)
(0.491325 0.0955813 -3.09185e-08)
(0.480769 0.0946687 -5.86498e-08)
(0.46791 0.0964641 -7.76367e-08)
(0.451104 0.101603 -3.85985e-08)
(0.428419 0.109755 2.30501e-08)
(0.405744 0.118322 1.33798e-07)
(0.381144 0.126739 1.70587e-07)
(0.345727 0.135307 2.1895e-07)
(0.292719 0.14538 2.17082e-07)
(0.223031 0.155452 2.03427e-07)
(0.111331 0.16498 1.48284e-07)
(0.0309544 0.167267 3.30918e-08)
(2.0922 -0.00841564 2.5595e-08)
(1.22689 0.018288 2.39567e-07)
(0.423267 0.154621 3.49762e-07)
(0.261043 0.102027 4.76596e-08)
(0.369082 0.0902708 4.1735e-08)
(0.441389 0.0934992 5.71268e-08)
(0.454894 0.0998559 7.95053e-08)
(0.460402 0.107447 1.0317e-07)
(0.477682 0.114483 1.04638e-07)
(0.497785 0.119561 9.82086e-08)
(0.509159 0.122208 6.70013e-08)
(0.50519 0.123591 -7.65441e-09)
(0.499016 0.12047 2.48015e-08)
(0.495953 0.116892 -4.69253e-08)
(0.486312 0.115477 -7.74383e-08)
(0.474818 0.117669 -4.83984e-08)
(0.459902 0.123384 -6.94051e-08)
(0.438797 0.133252 3.08925e-08)
(0.416723 0.143657 9.35345e-08)
(0.392404 0.154713 1.54369e-07)
(0.357527 0.166105 1.89579e-07)
(0.305135 0.179618 1.87947e-07)
(0.235119 0.193751 1.86009e-07)
(0.12122 0.208575 1.49215e-07)
(0.0351544 0.214497 5.10566e-08)
(2.07731 -0.00922296 1.15171e-08)
(1.29232 0.0240991 2.56875e-07)
(0.462336 0.189266 4.24422e-07)
(0.237907 0.118474 2.0196e-08)
(0.370688 0.103177 1.7419e-08)
(0.448347 0.109066 4.65501e-08)
(0.462832 0.118481 7.43777e-08)
(0.468838 0.128236 1.00683e-07)
(0.485372 0.136301 1.0757e-07)
(0.504395 0.141872 9.12421e-08)
(0.515612 0.144819 6.93306e-08)
(0.511209 0.145798 -9.65748e-09)
(0.503914 0.142739 2.04471e-08)
(0.500989 0.138356 -3.7078e-08)
(0.492649 0.136407 -7.59197e-08)
(0.482637 0.138975 -5.5106e-08)
(0.469791 0.144734 -5.80211e-08)
(0.450712 0.156227 2.65094e-08)
(0.429691 0.168465 7.77153e-08)
(0.406331 0.182333 1.36075e-07)
(0.372498 0.197012 1.60036e-07)
(0.321413 0.215103 1.58928e-07)
(0.252069 0.234729 1.64536e-07)
(0.136753 0.257062 1.49724e-07)
(0.042952 0.270814 8.16014e-08)
(2.06045 -0.0100346 1.23961e-08)
(1.37497 0.0278259 2.80176e-07)
(0.512336 0.218835 5.10774e-07)
(0.219043 0.137508 -4.18412e-09)
(0.375173 0.118785 -1.15201e-08)
(0.45793 0.127143 3.66586e-08)
(0.472552 0.139046 7.29787e-08)
(0.478256 0.150261 9.98843e-08)
(0.493582 0.158844 1.02092e-07)
(0.511356 0.164524 7.72835e-08)
(0.522147 0.167346 6.58883e-08)
(0.517583 0.167586 4.94581e-08)
(0.509482 0.16475 6.94123e-09)
(0.506538 0.159798 -3.1475e-08)
(0.499826 0.157339 -4.48767e-08)
(0.491185 0.160127 -6.40104e-08)
(0.480534 0.165633 2.25711e-09)
(0.464119 0.1785 -3.94022e-09)
(0.444648 0.19274 3.97963e-08)
(0.423048 0.209464 9.25879e-08)
(0.391319 0.227489 1.39448e-07)
(0.342807 0.251756 1.42714e-07)
(0.275619 0.278744 1.47226e-07)
(0.161328 0.312066 1.37963e-07)
(0.0575011 0.341478 1.0346e-07)
(2.04042 -0.0111488 9.90221e-09)
(1.47092 0.0287659 2.93998e-07)
(0.575554 0.238558 6.20659e-07)
(0.212381 0.159013 -2.00732e-08)
(0.382786 0.141041 -4.44366e-08)
(0.468686 0.150268 2.43758e-08)
(0.482471 0.162571 7.34491e-08)
(0.48762 0.17386 9.8639e-08)
(0.501723 0.182207 9.20619e-08)
(0.518196 0.187517 5.86584e-08)
(0.528367 0.189729 5.56941e-08)
(0.524125 0.189054 7.82192e-08)
(0.51583 0.186559 -7.97793e-08)
(0.512769 0.18108 -5.75919e-09)
(0.507828 0.178278 -3.4243e-08)
(0.500431 0.180837 -4.15896e-08)
(0.492009 0.186284 1.39725e-09)
(0.478897 0.199876 1.49883e-08)
(0.461597 0.216241 3.44733e-08)
(0.442355 0.235563 7.82425e-08)
(0.414572 0.257152 1.02052e-07)
(0.370843 0.288394 1.35463e-07)
(0.308389 0.325754 1.29285e-07)
(0.201116 0.375422 1.27797e-07)
(0.0850605 0.433245 1.1541e-07)
(2.01731 -0.0135677 -5.20363e-09)
(1.57797 0.0147965 3.26082e-07)
(0.660443 0.197137 8.58499e-07)
(0.22237 0.172103 2.41078e-08)
(0.389375 0.170146 -3.50079e-08)
(0.475432 0.179042 2.574e-08)
(0.489625 0.188931 7.42884e-08)
(0.495517 0.198698 9.70568e-08)
(0.509108 0.206114 8.73157e-08)
(0.524494 0.21062 4.8096e-08)
(0.534016 0.21193 3.19158e-08)
(0.530743 0.210459 6.94689e-08)
(0.52279 0.208502 -1.56115e-07)
(0.519669 0.202199 4.86264e-08)
(0.516556 0.19923 -2.72643e-08)
(0.510381 0.201144 -2.95877e-08)
(0.504211 0.206804 1.39067e-09)
(0.494732 0.220328 2.3684e-08)
(0.480283 0.238448 3.27119e-08)
(0.464211 0.259867 8.95199e-08)
(0.442486 0.285414 7.57964e-08)
(0.407144 0.322149 1.13322e-07)
(0.354704 0.373503 1.18047e-07)
(0.265376 0.453172 1.14537e-07)
(0.135829 0.583837 1.10596e-07)
(2.12767 -0.000365342 -6.43274e-08)
(1.11748 0.00106644 8.06045e-08)
(0.329046 0.0103633 1.44845e-07)
(0.310843 0.0117654 4.55307e-08)
(0.39247 0.010226 -2.56651e-08)
(0.439644 0.00984192 -7.27655e-09)
(0.441187 0.0104629 -2.52331e-08)
(0.441398 0.0113968 -9.7151e-08)
(0.45823 0.0123372 -1.55124e-07)
(0.480363 0.0131957 -1.04236e-07)
(0.491435 0.0138133 -5.79846e-08)
(0.489048 0.0141913 -3.41575e-07)
(0.485827 0.0142194 -2.0383e-07)
(0.481191 0.0139822 -2.18121e-07)
(0.468737 0.0138237 -1.33498e-07)
(0.452702 0.0138921 -7.36873e-08)
(0.431385 0.0145326 3.83065e-08)
(0.405614 0.0156124 1.04968e-07)
(0.382745 0.0168735 1.91774e-07)
(0.358864 0.018064 1.98388e-07)
(0.323058 0.0193238 1.04373e-07)
(0.270502 0.0207325 7.97895e-08)
(0.204488 0.0221173 -2.87825e-08)
(0.0986241 0.0233258 -8.72808e-08)
(0.0266865 0.0241867 -1.11592e-08)
(2.12703 -0.00215941 3.26057e-08)
(1.12292 0.0021504 1.53181e-07)
(0.335846 0.0311832 1.39559e-07)
(0.308748 0.033924 3.02756e-08)
(0.389055 0.0279444 -2.58308e-08)
(0.43821 0.0258589 -7.88323e-09)
(0.440968 0.0265379 -2.46338e-08)
(0.441445 0.0280367 -7.5036e-08)
(0.458136 0.0296797 -1.17864e-07)
(0.479989 0.0311369 -1.18722e-07)
(0.490857 0.0319467 -6.73447e-08)
(0.488499 0.032272 -4.50461e-07)
(0.485532 0.031555 -1.29688e-07)
(0.481426 0.0307319 -1.56767e-07)
(0.46962 0.0304618 -1.23721e-07)
(0.45428 0.030809 -8.43075e-08)
(0.433639 0.0324222 2.94688e-08)
(0.408168 0.0348638 1.07921e-07)
(0.38517 0.0374808 1.97911e-07)
(0.361037 0.0397232 1.87244e-07)
(0.325094 0.0421442 9.76402e-08)
(0.272242 0.0449419 7.54369e-08)
(0.205451 0.0474938 -2.50261e-08)
(0.0987455 0.0492805 -8.01879e-08)
(0.026388 0.0496873 -1.71823e-08)
(2.12221 -0.00467168 -6.81698e-09)
(1.13224 0.00294451 1.28395e-07)
(0.348056 0.0551185 1.55881e-07)
(0.304158 0.0564254 2.68752e-08)
(0.383023 0.0461321 -2.86934e-08)
(0.437028 0.0437411 -1.09275e-08)
(0.44258 0.0454457 -2.57402e-08)
(0.444097 0.0482644 -7.09321e-08)
(0.461056 0.0513782 -1.03446e-07)
(0.482797 0.0540615 -1.35886e-07)
(0.493653 0.0555519 -7.20401e-08)
(0.491018 0.0565347 -4.05094e-07)
(0.487669 0.0550852 -9.7084e-08)
(0.483723 0.0538061 -1.34137e-07)
(0.472159 0.0534711 -1.45225e-07)
(0.457311 0.0542835 -1.06252e-07)
(0.437536 0.0571928 -2.06776e-08)
(0.412707 0.0615306 7.80693e-08)
(0.389737 0.0661207 1.77923e-07)
(0.365444 0.0701196 1.65e-07)
(0.329586 0.0743341 8.11177e-08)
(0.276525 0.079167 6.28503e-08)
(0.208785 0.0836679 -2.71794e-08)
(0.100907 0.0870989 -7.71264e-08)
(0.0271246 0.0874544 -2.81935e-08)
(2.11391 -0.00601091 -6.27173e-08)
(1.14826 0.00666653 1.1549e-07)
(0.366346 0.0844286 2.324e-07)
(0.295354 0.0742205 -6.19128e-08)
(0.374992 0.0629569 1.38397e-08)
(0.436391 0.0613172 -1.43169e-09)
(0.445314 0.063872 -2.26509e-08)
(0.448129 0.0678499 -5.61849e-08)
(0.465377 0.0722275 -1.00433e-07)
(0.486845 0.0757321 -1.09653e-07)
(0.497965 0.0775149 -6.29884e-08)
(0.495018 0.0788249 -2.21983e-07)
(0.490941 0.0764692 -1.09751e-07)
(0.487261 0.0744944 -1.44052e-07)
(0.476078 0.0739056 -1.78949e-07)
(0.46212 0.0752125 -1.18248e-07)
(0.443701 0.0794046 -6.03384e-08)
(0.419785 0.085771 4.78836e-08)
(0.396855 0.0924602 1.25435e-07)
(0.372312 0.0985842 1.53381e-07)
(0.336556 0.104871 6.51571e-08)
(0.283361 0.112147 4.91166e-08)
(0.214541 0.119142 -3.1728e-08)
(0.104918 0.125029 -8.25107e-08)
(0.0284995 0.125824 -5.28351e-08)
(2.10473 -0.00708706 -2.39826e-08)
(1.17959 0.0123711 1.75162e-07)
(0.391908 0.118707 2.68497e-07)
(0.281349 0.0881163 -7.00981e-08)
(0.37056 0.0776569 -3.29417e-09)
(0.437549 0.0780728 -1.31283e-08)
(0.449191 0.0819774 -2.36288e-08)
(0.453483 0.0874913 -3.25575e-08)
(0.470952 0.0932365 -8.98778e-08)
(0.491919 0.097581 -1.01578e-07)
(0.503273 0.0997875 -4.7489e-08)
(0.49983 0.101252 -1.16382e-07)
(0.494778 0.0983111 -1.31137e-07)
(0.491456 0.0955414 -1.68302e-07)
(0.480904 0.0945924 -1.93913e-07)
(0.468052 0.0963735 -1.14328e-07)
(0.451255 0.101517 -9.0689e-08)
(0.428564 0.109691 2.61865e-08)
(0.405861 0.118269 7.39484e-08)
(0.381224 0.1267 1.44056e-07)
(0.345778 0.135273 5.85543e-08)
(0.292749 0.145352 4.04317e-08)
(0.223036 0.155433 -4.17229e-08)
(0.111308 0.16497 -9.92164e-08)
(0.030935 0.167258 -8.57173e-08)
(2.09219 -0.00841407 -3.08922e-08)
(1.22697 0.018294 2.27049e-07)
(0.423311 0.154632 3.69995e-07)
(0.261006 0.10202 -1.14448e-07)
(0.369081 0.0902726 -1.8541e-08)
(0.441401 0.093516 -1.98196e-08)
(0.454919 0.0998848 -2.56536e-08)
(0.46044 0.107484 -2.84906e-08)
(0.477728 0.114529 -7.53018e-08)
(0.497847 0.119615 -8.24137e-08)
(0.509295 0.122266 -3.51373e-08)
(0.50538 0.123644 -1.17345e-07)
(0.499205 0.120496 -4.45285e-08)
(0.49615 0.116864 -1.5214e-07)
(0.48651 0.115421 -1.89826e-07)
(0.47501 0.11762 -6.76879e-08)
(0.460096 0.123328 -1.43832e-07)
(0.438981 0.133224 8.79957e-09)
(0.416872 0.143628 3.34624e-08)
(0.392511 0.154696 1.24787e-07)
(0.357592 0.166089 5.47703e-08)
(0.305176 0.1796 3.69945e-08)
(0.235134 0.193738 -5.10154e-08)
(0.121203 0.20857 -1.13997e-07)
(0.0351364 0.214495 -1.10105e-07)
(2.0773 -0.00922144 -1.79255e-08)
(1.29241 0.0241016 2.86596e-07)
(0.462387 0.189266 4.92232e-07)
(0.237875 0.118472 -1.63681e-07)
(0.37069 0.10318 -7.44679e-08)
(0.448363 0.109079 -2.97454e-08)
(0.46286 0.118501 -1.7992e-08)
(0.468881 0.128259 -2.10222e-08)
(0.485427 0.136324 -5.62109e-08)
(0.50447 0.141899 -5.65724e-08)
(0.515757 0.144847 -3.48089e-08)
(0.511419 0.145805 -1.69908e-07)
(0.504123 0.142749 3.52645e-10)
(0.501188 0.138335 -1.24001e-07)
(0.492853 0.136371 -1.78471e-07)
(0.482817 0.138955 -3.4662e-08)
(0.469967 0.144703 -2.13663e-07)
(0.450885 0.156226 3.37322e-08)
(0.429827 0.168464 3.26579e-08)
(0.406438 0.182337 1.07785e-07)
(0.372562 0.197012 5.01146e-08)
(0.321455 0.215097 3.54699e-08)
(0.252089 0.234725 -5.01724e-08)
(0.136742 0.257064 -1.23595e-07)
(0.042936 0.270818 -1.25633e-07)
(2.06044 -0.0100347 -2.61531e-08)
(1.37506 0.0278235 2.99777e-07)
(0.51239 0.218825 5.99326e-07)
(0.219021 0.137506 -1.68219e-07)
(0.375178 0.118789 -9.98909e-08)
(0.457946 0.127154 -3.56007e-08)
(0.47258 0.139058 -1.1509e-08)
(0.478297 0.150271 -1.33338e-08)
(0.493636 0.158847 -3.64555e-08)
(0.511428 0.164524 -2.8956e-08)
(0.522273 0.167341 -3.01547e-08)
(0.517772 0.167559 -1.8328e-07)
(0.509671 0.164735 -2.75223e-09)
(0.5067 0.15978 -1.09672e-07)
(0.499995 0.157324 -1.60228e-07)
(0.491324 0.16012 -4.49597e-08)
(0.480671 0.165627 -2.12494e-07)
(0.464267 0.178502 2.92285e-08)
(0.444761 0.192752 6.54863e-08)
(0.42314 0.209476 1.27667e-07)
(0.391373 0.227497 3.68862e-08)
(0.342847 0.251758 8.91557e-09)
(0.275643 0.278748 -5.57672e-08)
(0.16132 0.312074 -1.08659e-07)
(0.0574869 0.34149 -1.38691e-07)
(2.04041 -0.0111484 -2.88125e-08)
(1.47101 0.0287611 3.02744e-07)
(0.575613 0.238532 7.22735e-07)
(0.212373 0.159008 -1.56732e-07)
(0.382792 0.141046 -1.12904e-07)
(0.4687 0.150277 -3.50234e-08)
(0.482494 0.162578 -5.07294e-09)
(0.487656 0.173858 -1.25944e-09)
(0.50177 0.182193 -9.67104e-09)
(0.518257 0.187493 3.86217e-09)
(0.528463 0.189697 -4.72852e-08)
(0.52427 0.189008 -1.68079e-07)
(0.515971 0.186526 8.17169e-08)
(0.512882 0.181058 -1.50601e-07)
(0.507949 0.17828 -1.26006e-07)
(0.500531 0.180844 -8.23762e-08)
(0.492113 0.186308 -1.51423e-07)
(0.479016 0.199883 4.57621e-09)
(0.461692 0.216255 8.0985e-08)
(0.442431 0.235571 1.17616e-07)
(0.414616 0.257165 6.27802e-08)
(0.370879 0.288407 -1.80952e-08)
(0.308414 0.325765 -5.11751e-08)
(0.201113 0.375433 -9.24686e-08)
(0.0850488 0.433264 -1.40934e-07)
(2.01731 -0.0135676 -2.95064e-08)
(1.57805 0.0147826 3.28901e-07)
(0.660506 0.197067 9.51841e-07)
(0.222373 0.172088 -7.20737e-08)
(0.389378 0.17015 -7.09792e-08)
(0.47544 0.179048 -2.83263e-08)
(0.489641 0.188932 -5.09212e-09)
(0.495544 0.198688 2.32422e-09)
(0.509144 0.206088 5.61968e-09)
(0.52454 0.210579 2.05385e-08)
(0.534083 0.211879 -2.19639e-08)
(0.530841 0.210403 -1.11684e-07)
(0.522872 0.208454 1.57144e-07)
(0.519729 0.202179 -1.98303e-07)
(0.516634 0.199243 -1.2115e-07)
(0.510451 0.201167 -9.19519e-08)
(0.504289 0.206845 -1.04758e-07)
(0.494823 0.220346 -1.43886e-09)
(0.48036 0.238464 9.3309e-08)
(0.464276 0.259874 6.47087e-08)
(0.442529 0.28543 9.85727e-08)
(0.407175 0.322169 2.96049e-09)
(0.354724 0.37352 -5.38669e-08)
(0.265377 0.45319 -8.81006e-08)
(0.135822 0.583862 -1.3025e-07)
(2.12767 -0.000366463 -6.23152e-08)
(1.11752 0.00106489 1.31446e-07)
(0.329074 0.0103638 2.15766e-07)
(0.310845 0.0117671 6.62725e-08)
(0.392462 0.0102279 -3.63106e-08)
(0.43964 0.00984394 -7.6717e-09)
(0.441183 0.0104654 -3.8098e-08)
(0.44139 0.0114001 -8.4625e-08)
(0.458218 0.0123411 -1.41553e-07)
(0.480345 0.0131991 -1.72223e-07)
(0.491412 0.0138156 -1.64717e-07)
(0.489021 0.0141953 -1.22105e-07)
(0.485798 0.014221 -1.13517e-07)
(0.48116 0.0139854 -1.06809e-07)
(0.468708 0.0138299 -1.03679e-07)
(0.452676 0.0139 -8.58589e-08)
(0.431364 0.0145406 -4.96904e-08)
(0.405601 0.0156185 -2.20081e-10)
(0.382742 0.0168769 3.57262e-08)
(0.358868 0.018065 5.42198e-08)
(0.323066 0.0193235 6.82832e-08)
(0.270513 0.0207314 6.57181e-08)
(0.2045 0.0221158 7.90271e-08)
(0.0986345 0.0233242 9.8631e-08)
(0.0266914 0.0241854 9.49583e-08)
(2.12703 -0.00216032 -6.41102e-08)
(1.12295 0.00214898 1.2784e-07)
(0.335871 0.0311845 2.15981e-07)
(0.308751 0.0339258 5.4847e-08)
(0.389048 0.0279455 -3.53755e-08)
(0.438208 0.0258593 -3.74789e-09)
(0.440968 0.0265377 -3.80365e-08)
(0.441444 0.0280359 -8.94358e-08)
(0.458133 0.0296778 -1.46936e-07)
(0.479983 0.0311326 -1.72113e-07)
(0.490854 0.0319405 -1.5922e-07)
(0.488495 0.0322688 -1.03219e-07)
(0.485524 0.0315464 -1.14195e-07)
(0.481416 0.0307226 -1.07174e-07)
(0.469606 0.0304538 -9.8911e-08)
(0.454264 0.0308021 -8.32514e-08)
(0.433623 0.0324176 -4.27736e-08)
(0.408157 0.0348606 8.62804e-09)
(0.385168 0.0374782 4.53339e-08)
(0.361041 0.0397209 6.0032e-08)
(0.325102 0.0421425 7.24871e-08)
(0.272252 0.0449397 6.93344e-08)
(0.205462 0.0474907 7.64179e-08)
(0.0987559 0.0492771 9.12721e-08)
(0.026393 0.0496845 8.68858e-08)
(2.12222 -0.0046718 -6.13636e-08)
(1.13227 0.00294429 1.27864e-07)
(0.348082 0.055122 2.19965e-07)
(0.304159 0.0564263 3.9586e-08)
(0.383016 0.0461338 -2.88426e-08)
(0.437026 0.0437419 1.31718e-09)
(0.44258 0.0454451 -4.22731e-08)
(0.444096 0.0482623 -9.57997e-08)
(0.461054 0.0513745 -1.49808e-07)
(0.482796 0.054056 -1.58355e-07)
(0.493661 0.0555434 -1.39917e-07)
(0.491026 0.0565267 -8.51893e-08)
(0.487673 0.0550752 -1.1293e-07)
(0.483727 0.0537997 -1.06448e-07)
(0.472162 0.0534714 -9.76069e-08)
(0.457313 0.0542883 -7.8363e-08)
(0.437537 0.0572014 -3.39217e-08)
(0.412708 0.0615387 1.96141e-08)
(0.389741 0.0661258 6.53936e-08)
(0.365451 0.0701208 6.5595e-08)
(0.329595 0.0743332 7.89974e-08)
(0.276535 0.0791637 7.60946e-08)
(0.208795 0.083663 7.41385e-08)
(0.100918 0.0870935 8.27186e-08)
(0.0271299 0.0874501 7.71654e-08)
(2.11391 -0.0060115 -8.52335e-08)
(1.14829 0.00666676 1.26615e-07)
(0.366371 0.0844363 2.88551e-07)
(0.295354 0.0742203 -9.36075e-08)
(0.374986 0.0629584 4.17704e-08)
(0.436389 0.0613175 9.52416e-09)
(0.445313 0.0638695 -5.40025e-08)
(0.448127 0.067845 -1.10781e-07)
(0.465373 0.07222 -1.50508e-07)
(0.48684 0.0757236 -1.40537e-07)
(0.497968 0.0775049 -1.31532e-07)
(0.495022 0.0788095 -7.94095e-08)
(0.490941 0.0764615 -9.80736e-08)
(0.487256 0.0744989 -1.00709e-07)
(0.476062 0.0739231 -9.09808e-08)
(0.462093 0.0752361 -5.61226e-08)
(0.44367 0.0794292 -1.58409e-08)
(0.419758 0.0857891 3.98526e-08)
(0.396839 0.0924702 7.61113e-08)
(0.372307 0.098587 8.77583e-08)
(0.336558 0.10487 9.11152e-08)
(0.283367 0.112142 8.94486e-08)
(0.21455 0.119135 7.54066e-08)
(0.104928 0.12502 6.88847e-08)
(0.0285054 0.125817 6.09422e-08)
(2.10473 -0.00708776 -6.39578e-08)
(1.17963 0.0123719 1.88232e-07)
(0.391935 0.118717 3.37867e-07)
(0.281347 0.0881158 -1.13166e-07)
(0.370556 0.0776568 2.94754e-09)
(0.437547 0.0780716 -1.65081e-08)
(0.449188 0.0819729 -7.52317e-08)
(0.453477 0.0874839 -1.21576e-07)
(0.470944 0.0932264 -1.41479e-07)
(0.491906 0.0975704 -1.34402e-07)
(0.503253 0.0997791 -1.17968e-07)
(0.499802 0.101237 -1.49183e-07)
(0.494743 0.0983121 -8.2871e-08)
(0.491409 0.0955588 -9.07161e-08)
(0.480841 0.0946188 -6.79058e-08)
(0.467977 0.0963992 -4.91707e-08)
(0.45118 0.101539 -2.85758e-09)
(0.428502 0.109703 6.04925e-08)
(0.405822 0.118274 8.99452e-08)
(0.381206 0.126698 1.02292e-07)
(0.345773 0.135268 9.45392e-08)
(0.292751 0.145345 9.09877e-08)
(0.223043 0.155424 6.92576e-08)
(0.111317 0.164959 4.76364e-08)
(0.0309412 0.167246 3.92792e-08)
(2.09219 -0.00841518 -7.18023e-08)
(1.22701 0.0182939 2.57603e-07)
(0.423338 0.154642 4.69956e-07)
(0.261001 0.102022 -1.97066e-07)
(0.36908 0.0902724 -3.09268e-08)
(0.441399 0.0935144 -3.98752e-08)
(0.454915 0.0998807 -9.11913e-08)
(0.460432 0.107477 -1.29067e-07)
(0.477715 0.11452 -1.30889e-07)
(0.497827 0.119605 -1.33848e-07)
(0.509253 0.122258 -1.26148e-07)
(0.505316 0.123638 -1.30405e-08)
(0.49913 0.120501 -1.29013e-07)
(0.496067 0.116883 -5.39829e-08)
(0.48642 0.115443 -3.36221e-08)
(0.474921 0.11763 -6.43702e-08)
(0.460014 0.123336 4.75004e-08)
(0.438913 0.133215 7.77776e-08)