/*--------------------------------*- C++ -*----------------------------------*\
| =========                 |                                                 |
| \\      /  F ield         | OpenFOAM: The Open Source CFD Toolbox           |
|  \\    /   O peration     | Version:  4.1                                   |
|   \\  /    A nd           | Web:      www.OpenFOAM.org                      |
|    \\/     M anipulation  |                                                 |
\*---------------------------------------------------------------------------*/
FoamFile
{
    version     2.0;
    format      ascii;
    class       volScalarField;
    location    "8.66";
    object      p;
}
// * * * * * * * * * * * * * * * * * * * * * * * * * * * * * * * * * * * * * //

dimensions      [1 -1 -2 0 0 0 0];

internalField   nonuniform List<scalar> 
52500
(
1.00001
1.00004
1.00013
1.00029
1.00082
1.00169
1.0048
1.0096
1.02865
1.05348
1.18316
1.34463
2.25326
4.06151
9.86055
11.4061
11.2357
11.1438
11.2235
11.4412
11.6775
11.8311
11.9483
12.0421
12.1157
1.00001
1.00004
1.00013
1.00028
1.00081
1.00167
1.00475
1.00949
1.02836
1.05287
1.1815
1.3403
2.24137
4.02725
9.77972
11.3991
11.2272
11.1316
11.2122
11.4309
11.6669
11.8206
11.9396
12.0349
12.1102
1.00001
1.00004
1.00013
1.00028
1.0008
1.00163
1.00465
1.00928
1.02776
1.05163
1.17798
1.33144
2.2159
3.95409
9.60008
11.3833
11.2054
11.0978
11.1774
11.394
11.6269
11.7775
11.8955
11.9897
12.064
1.00001
1.00003
1.00012
1.00027
1.00077
1.00158
1.00449
1.00896
1.02685
1.04976
1.17261
1.31811
2.17679
3.8427
9.31952
11.3645
11.1737
11.0431
11.1194
11.33
11.5566
11.7016
11.8153
11.9063
11.9803
1.00001
1.00003
1.00012
1.00025
1.00073
1.00149
1.00426
1.00847
1.02564
1.04689
1.1658
1.30019
2.12443
3.69358
8.93382
11.3455
11.1335
10.9694
11.0408
11.2424
11.4597
11.5963
11.7038
11.7902
11.8643
1.00001
1.00003
1.00011
1.00024
1.00068
1.00139
1.00399
1.00787
1.02414
1.04337
1.15669
1.27808
2.06134
3.50415
8.43822
11.3304
11.0858
10.8767
10.9411
11.1293
11.3338
11.4575
11.5536
11.6313
11.7054
1.00001
1.00003
1.0001
1.00022
1.00063
1.00129
1.00369
1.00726
1.02235
1.03993
1.14493
1.25426
1.97941
3.27827
7.82523
11.3243
11.0354
10.7675
10.8227
10.9916
11.1769
11.2804
11.357
11.4159
11.4818
1.00001
1.00003
1.00009
1.0002
1.00058
1.00119
1.00339
1.00674
1.02028
1.03721
1.13018
1.23202
1.86947
3.02396
7.0867
11.3199
10.9863
10.6451
10.6882
10.8307
10.9876
11.0603
11.1028
11.1238
11.1619
1
1.00002
1.00008
1.00018
1.00052
1.00108
1.00306
1.00618
1.01798
1.03494
1.11223
1.20975
1.74713
2.74737
6.24278
11.2849
10.9295
10.5166
10.5419
10.6453
10.7627
10.7913
10.7788
10.7223
10.6651
1
1.00002
1.00007
1.00016
1.00046
1.00094
1.00268
1.00541
1.01569
1.03085
1.09628
1.18551
1.63056
2.47904
5.39303
11.1021
10.8117
10.3999
10.3858
10.4362
10.4973
10.4743
10.3789
10.1596
9.82682
1.00001
1.00004
1.00013
1.00029
1.00083
1.00169
1.00481
1.00961
1.02866
1.0535
1.18318
1.34471
2.25334
4.06186
9.86123
11.4061
11.2358
11.1439
11.2236
11.4414
11.6776
11.8313
11.9485
12.0422
12.1159
1.00001
1.00004
1.00013
1.00029
1.00082
1.00168
1.00476
1.0095
1.02838
1.05289
1.18151
1.34038
2.24145
4.02761
9.7804
11.3991
11.2272
11.1317
11.2124
11.4311
11.6671
11.8208
11.9397
12.035
12.1103
1.00001
1.00004
1.00013
1.00028
1.0008
1.00164
1.00465
1.00929
1.02777
1.05166
1.178
1.33152
2.21598
3.95444
9.60077
11.3834
11.2055
11.0979
11.1775
11.3942
11.627
11.7777
11.8956
11.9898
12.0642
1.00001
1.00004
1.00013
1.00027
1.00077
1.00158
1.0045
1.00897
1.02686
1.04978
1.17262
1.31819
2.17687
3.84305
9.32023
11.3645
11.1738
11.0432
11.1196
11.3301
11.5567
11.7017
11.8155
11.9064
11.9804
1.00001
1.00004
1.00012
1.00026
1.00073
1.0015
1.00427
1.00849
1.02565
1.04692
1.1658
1.30028
2.12449
3.69391
8.93454
11.3454
11.1336
10.9695
11.0409
11.2425
11.4599
11.5964
11.7039
11.7904
11.8645
1.00001
1.00003
1.00011
1.00024
1.00069
1.0014
1.004
1.00788
1.02415
1.04339
1.15671
1.27815
2.06144
3.5045
8.43896
11.3304
11.0859
10.8768
10.9412
11.1295
11.3339
11.4576
11.5538
11.6314
11.7056
1.00001
1.00003
1.0001
1.00022
1.00063
1.0013
1.0037
1.00727
1.02236
1.03995
1.14496
1.25432
1.97952
3.27861
7.82603
11.3243
11.0354
10.7676
10.8228
10.9917
11.177
11.2805
11.3571
11.416
11.4819
1.00001
1.00003
1.0001
1.00021
1.00058
1.0012
1.00339
1.00675
1.02029
1.03724
1.13019
1.23211
1.86953
3.02428
7.08748
11.3199
10.9864
10.6452
10.6883
10.8308
10.9877
11.0604
11.1029
11.1239
11.162
1.00001
1.00003
1.00009
1.00019
1.00053
1.00109
1.00307
1.00619
1.01799
1.03496
1.11225
1.20981
1.74721
2.74765
6.24353
11.2849
10.9296
10.5167
10.542
10.6454
10.7628
10.7914
10.7789
10.7224
10.6652
1.00001
1.00002
1.00008
1.00016
1.00046
1.00095
1.00269
1.00542
1.0157
1.03087
1.0963
1.18555
1.63063
2.47925
5.39346
11.1023
10.8119
10.4001
10.3859
10.4363
10.4974
10.4744
10.379
10.1597
9.82691
1.00001
1.00004
1.00013
1.00029
1.00083
1.00169
1.00481
1.00961
1.02866
1.0535
1.18318
1.34471
2.25335
4.06188
9.86129
11.4061
11.2358
11.1439
11.2237
11.4414
11.6776
11.8313
11.9485
12.0422
12.1159
1.00001
1.00004
1.00013
1.00029
1.00082
1.00168
1.00476
1.0095
1.02838
1.0529
1.18151
1.34038
2.24146
4.02763
9.78046
11.3991
11.2272
11.1318
11.2124
11.4311
11.6671
11.8208
11.9397
12.035
12.1103
1.00001
1.00004
1.00013
1.00028
1.0008
1.00164
1.00465
1.00929
1.02777
1.05166
1.178
1.33152
2.21598
3.95446
9.60083
11.3834
11.2055
11.0979
11.1775
11.3942
11.627
11.7777
11.8957
11.9898
12.0642
1.00001
1.00004
1.00013
1.00027
1.00077
1.00158
1.0045
1.00897
1.02686
1.04978
1.17262
1.3182
2.17688
3.84307
9.32029
11.3645
11.1738
11.0432
11.1196
11.3301
11.5567
11.7017
11.8155
11.9064
11.9805
1.00001
1.00004
1.00012
1.00026
1.00073
1.0015
1.00427
1.00849
1.02565
1.04692
1.16581
1.30028
2.1245
3.69394
8.9346
11.3454
11.1336
10.9695
11.0409
11.2425
11.4599
11.5964
11.7039
11.7904
11.8645
1.00001
1.00003
1.00011
1.00024
1.00069
1.0014
1.004
1.00788
1.02415
1.04339
1.15671
1.27815
2.06145
3.50452
8.43903
11.3304
11.0859
10.8768
10.9412
11.1295
11.3339
11.4576
11.5538
11.6314
11.7056
1.00001
1.00003
1.0001
1.00022
1.00063
1.0013
1.0037
1.00727
1.02236
1.03995
1.14496
1.25432
1.97953
3.27863
7.8261
11.3242
11.0354
10.7676
10.8228
10.9917
11.177
11.2805
11.3571
11.416
11.4819
1.00001
1.00003
1.0001
1.00021
1.00058
1.0012
1.00339
1.00675
1.02029
1.03724
1.13019
1.23211
1.86954
3.0243
7.08755
11.3199
10.9864
10.6452
10.6884
10.8308
10.9877
11.0604
11.1029
11.1239
11.162
1.00001
1.00003
1.00009
1.00019
1.00053
1.00109
1.00307
1.00619
1.01799
1.03496
1.11225
1.20981
1.74722
2.74768
6.2436
11.2849
10.9296
10.5167
10.542
10.6454
10.7628
10.7914
10.7789
10.7224
10.6652
1.00001
1.00002
1.00008
1.00016
1.00046
1.00095
1.00269
1.00542
1.0157
1.03087
1.0963
1.18555
1.63064
2.47927
5.3935
11.1024
10.8119
10.4001
10.3859
10.4363
10.4974
10.4744
10.379
10.1597
9.82691
1.00001
1.00004
1.00013
1.00029
1.00083
1.00169
1.00481
1.00961
1.02866
1.0535
1.18318
1.34471
2.25335
4.06189
9.86129
11.4061
11.2358
11.1439
11.2237
11.4414
11.6776
11.8313
11.9485
12.0422
12.1159
1.00001
1.00004
1.00013
1.00029
1.00082
1.00168
1.00476
1.0095
1.02838
1.0529
1.18152
1.34038
2.24146
4.02763
9.78047
11.3991
11.2272
11.1318
11.2124
11.4311
11.6671
11.8208
11.9397
12.035
12.1103
1.00001
1.00004
1.00013
1.00028
1.0008
1.00164
1.00465
1.00929
1.02777
1.05166
1.178
1.33152
2.21599
3.95447
9.60084
11.3834
11.2055
11.0979
11.1775
11.3942
11.627
11.7777
11.8957
11.9898
12.0642
1.00001
1.00004
1.00013
1.00027
1.00077
1.00158
1.0045
1.00897
1.02686
1.04978
1.17262
1.3182
2.17688
3.84307
9.3203
11.3645
11.1738
11.0432
11.1196
11.3301
11.5567
11.7017
11.8155
11.9064
11.9805
1.00001
1.00004
1.00012
1.00026
1.00073
1.0015
1.00427
1.00849
1.02565
1.04692
1.16581
1.30028
2.1245
3.69394
8.93461
11.3454
11.1336
10.9695
11.0409
11.2425
11.4599
11.5964
11.7039
11.7904
11.8645
1.00001
1.00003
1.00011
1.00024
1.00069
1.0014
1.004
1.00788
1.02415
1.04339
1.15671
1.27815
2.06145
3.50453
8.43904
11.3304
11.0859
10.8768
10.9412
11.1295
11.3339
11.4576
11.5538
11.6314
11.7056
1.00001
1.00003
1.0001
1.00022
1.00063
1.0013
1.0037
1.00727
1.02236
1.03995
1.14496
1.25432
1.97953
3.27864
7.8261
11.3242
11.0354
10.7676
10.8228
10.9917
11.177
11.2805
11.3571
11.416
11.4819
1.00001
1.00003
1.0001
1.00021
1.00058
1.0012
1.00339
1.00675
1.02029
1.03724
1.13019
1.23211
1.86954
3.02431
7.08756
11.3199
10.9864
10.6452
10.6884
10.8308
10.9877
11.0605
11.1029
11.1239
11.162
1.00001
1.00003
1.00009
1.00019
1.00053
1.00109
1.00307
1.00619
1.01799
1.03496
1.11225
1.20981
1.74722
2.74768
6.24361
11.2849
10.9296
10.5167
10.542
10.6454
10.7628
10.7914
10.7789
10.7224
10.6652
1.00001
1.00002
1.00008
1.00016
1.00046
1.00095
1.00269
1.00542
1.0157
1.03087
1.09631
1.18555
1.63064
2.47927
5.39351
11.1024
10.8119
10.4001
10.3859
10.4363
10.4974
10.4744
10.379
10.1598
9.82692
1.00001
1.00004
1.00013
1.00029
1.00083
1.00169
1.00481
1.00961
1.02866
1.0535
1.18318
1.34471
2.25335
4.06189
9.8613
11.4061
11.2358
11.1439
11.2237
11.4414
11.6776
11.8313
11.9485
12.0422
12.1159
1.00001
1.00004
1.00013
1.00029
1.00082
1.00168
1.00476
1.0095
1.02838
1.0529
1.18152
1.34038
2.24146
4.02764
9.78047
11.3991
11.2272
11.1318
11.2124
11.4311
11.6671
11.8208
11.9397
12.0351
12.1103
1.00001
1.00004
1.00013
1.00028
1.0008
1.00164
1.00465
1.00929
1.02777
1.05166
1.178
1.33152
2.21599
3.95447
9.60084
11.3834
11.2055
11.0979
11.1775
11.3942
11.627
11.7777
11.8957
11.9898
12.0642
1.00001
1.00004
1.00013
1.00027
1.00077
1.00158
1.0045
1.00897
1.02686
1.04978
1.17262
1.3182
2.17688
3.84307
9.3203
11.3645
11.1738
11.0432
11.1196
11.3301
11.5567
11.7017
11.8155
11.9064
11.9805
1.00001
1.00004
1.00012
1.00026
1.00073
1.0015
1.00427
1.00849
1.02565
1.04692
1.16581
1.30028
2.1245
3.69394
8.93462
11.3454
11.1336
10.9696
11.0409
11.2425
11.4599
11.5964
11.7039
11.7904
11.8645
1.00001
1.00003
1.00011
1.00024
1.00069
1.0014
1.004
1.00788
1.02415
1.04339
1.15672
1.27815
2.06145
3.50453
8.43904
11.3304
11.0859
10.8768
10.9412
11.1295
11.3339
11.4576
11.5538
11.6314
11.7056
1.00001
1.00003
1.0001
1.00022
1.00063
1.0013
1.0037
1.00727
1.02236
1.03995
1.14496
1.25432
1.97953
3.27864
7.82611
11.3242
11.0354
10.7676
10.8228
10.9917
11.177
11.2805
11.3571
11.416
11.4819
1.00001
1.00003
1.0001
1.00021
1.00058
1.0012
1.00339
1.00675
1.02029
1.03724
1.13019
1.23211
1.86954
3.02431
7.08757
11.3199
10.9864
10.6452
10.6884
10.8308
10.9877
11.0605
11.1029
11.1239
11.162
1.00001
1.00003
1.00009
1.00019
1.00053
1.00109
1.00307
1.00619
1.01799
1.03496
1.11225
1.20981
1.74722
2.74768
6.24362
11.2849
10.9296
10.5167
10.542
10.6454
10.7628
10.7914
10.7789
10.7224
10.6652
1.00001
1.00002
1.00008
1.00016
1.00046
1.00095
1.00269
1.00542
1.0157
1.03087
1.09631
1.18555
1.63064
2.47927
5.39351
11.1024
10.8119
10.4001
10.3859
10.4363
10.4974
10.4744
10.379
10.1598
9.82692
1.00001
1.00004
1.00013
1.00029
1.00083
1.00169
1.00481
1.00961
1.02866
1.0535
1.18318
1.34471
2.25335
4.06189
9.8613
11.4061
11.2358
11.1439
11.2237
11.4414
11.6776
11.8313
11.9485
12.0422
12.1159
1.00001
1.00004
1.00013
1.00029
1.00082
1.00168
1.00476
1.0095
1.02838
1.0529
1.18152
1.34038
2.24146
4.02764
9.78047
11.3991
11.2272
11.1318
11.2124
11.4311
11.6671
11.8208
11.9397
12.0351
12.1103
1.00001
1.00004
1.00013
1.00028
1.0008
1.00164
1.00465
1.00929
1.02777
1.05166
1.178
1.33152
2.21599
3.95447
9.60084
11.3834
11.2055
11.0979
11.1775
11.3942
11.627
11.7777
11.8957
11.9898
12.0642
1.00001
1.00004
1.00013
1.00027
1.00077
1.00158
1.0045
1.00897
1.02686
1.04978
1.17262
1.3182
2.17688
3.84308
9.3203
11.3645
11.1738
11.0432
11.1196
11.3301
11.5567
11.7017
11.8155
11.9064
11.9805
1.00001
1.00004
1.00012
1.00026
1.00073
1.0015
1.00427
1.00849
1.02565
1.04692
1.16581
1.30028
2.1245
3.69395
8.93462
11.3454
11.1336
10.9696
11.0409
11.2425
11.4599
11.5964
11.7039
11.7904
11.8645
1.00001
1.00003
1.00011
1.00024
1.00069
1.0014
1.004
1.00788
1.02415
1.04339
1.15672
1.27815
2.06145
3.50453
8.43905
11.3304
11.0859
10.8768
10.9412
11.1295
11.3339
11.4576
11.5538
11.6314
11.7056
1.00001
1.00003
1.0001
1.00022
1.00063
1.0013
1.0037
1.00727
1.02236
1.03995
1.14496
1.25432
1.97953
3.27864
7.82611
11.3242
11.0354
10.7676
10.8228
10.9917
11.177
11.2805
11.3571
11.416
11.4819
1.00001
1.00003
1.0001
1.00021
1.00058
1.0012
1.00339
1.00675
1.02029
1.03724
1.13019
1.23211
1.86954
3.02431
7.08757
11.3199
10.9864
10.6452
10.6884
10.8308
10.9877
11.0605
11.1029
11.1239
11.162
1.00001
1.00003
1.00009
1.00019
1.00053
1.00109
1.00307
1.00619
1.01799
1.03496
1.11225
1.20981
1.74722
2.74768
6.24362
11.2849
10.9296
10.5167
10.542
10.6454
10.7628
10.7914
10.7789
10.7224
10.6652
1.00001
1.00002
1.00008
1.00016
1.00046
1.00095
1.00269
1.00542
1.0157
1.03087
1.09631
1.18555
1.63064
2.47927
5.39351
11.1024
10.8119
10.4001
10.3859
10.4363
10.4974
10.4744
10.379
10.1598
9.82692
1.00001
1.00004
1.00013
1.00029
1.00083
1.00169
1.00481
1.00961
1.02866
1.0535
1.18318
1.34471
2.25335
4.06189
9.8613
11.4061
11.2358
11.1439
11.2237
11.4414
11.6776
11.8313
11.9485
12.0422
12.1159
1.00001
1.00004
1.00013
1.00029
1.00082
1.00168
1.00476
1.0095
1.02838
1.0529
1.18152
1.34038
2.24146
4.02763
9.78047
11.3991
11.2272
11.1318
11.2124
11.4311
11.6671
11.8208
11.9397
12.035
12.1103
1.00001
1.00004
1.00013
1.00028
1.0008
1.00164
1.00465
1.00929
1.02777
1.05166
1.178
1.33152
2.21599
3.95447
9.60084
11.3834
11.2055
11.0979
11.1775
11.3942
11.627
11.7777
11.8957
11.9898
12.0642
1.00001
1.00004
1.00013
1.00027
1.00077
1.00158
1.0045
1.00897
1.02686
1.04978
1.17262
1.3182
2.17688
3.84307
9.3203
11.3645
11.1738
11.0432
11.1196
11.3301
11.5567
11.7017
11.8155
11.9064
11.9805
1.00001
1.00004
1.00012
1.00026
1.00073
1.0015
1.00427
1.00849
1.02565
1.04692
1.16581
1.30028
2.1245
3.69394
8.93462
11.3454
11.1336
10.9696
11.0409
11.2425
11.4599
11.5964
11.7039
11.7904
11.8645
1.00001
1.00003
1.00011
1.00024
1.00069
1.0014
1.004
1.00788
1.02415
1.04339
1.15672
1.27815
2.06145
3.50453
8.43904
11.3304
11.0859
10.8768
10.9412
11.1295
11.3339
11.4576
11.5538
11.6314
11.7056
1.00001
1.00003
1.0001
1.00022
1.00063
1.0013
1.0037
1.00727
1.02236
1.03995
1.14496
1.25432
1.97953
3.27864
7.82611
11.3242
11.0354
10.7676
10.8228
10.9917
11.177
11.2805
11.3571
11.416
11.4819
1.00001
1.00003
1.0001
1.00021
1.00058
1.0012
1.00339
1.00675
1.02029
1.03724
1.13019
1.23211
1.86954
3.02431
7.08756
11.3199
10.9864
10.6452
10.6884
10.8308
10.9877
11.0605
11.1029
11.1239
11.162
1.00001
1.00003
1.00009
1.00019
1.00053
1.00109
1.00307
1.00619
1.01799
1.03496
1.11225
1.20981
1.74722
2.74768
6.24361
11.2849
10.9296
10.5167
10.542
10.6454
10.7628
10.7914
10.7789
10.7224
10.6652
1.00001
1.00002
1.00008
1.00016
1.00046
1.00095
1.00269
1.00542
1.0157
1.03087
1.09631
1.18555
1.63064
2.47927
5.39351
11.1024
10.8119
10.4001
10.3859
10.4363
10.4974
10.4744
10.379
10.1598
9.82692
1.00001
1.00004
1.00013
1.00029
1.00083
1.00169
1.00481
1.00961
1.02866
1.0535
1.18318
1.34471
2.25335
4.06188
9.86129
11.4061
11.2358
11.1439
11.2237
11.4414
11.6776
11.8313
11.9485
12.0422
12.1159
1.00001
1.00004
1.00013
1.00029
1.00082
1.00168
1.00476
1.0095
1.02838
1.0529
1.18151
1.34038
2.24146
4.02763
9.78046
11.3991
11.2272
11.1318
11.2124
11.4311
11.6671
11.8208
11.9397
12.035
12.1103
1.00001
1.00004
1.00013
1.00028
1.0008
1.00164
1.00465
1.00929
1.02777
1.05166
1.178
1.33152
2.21599
3.95447
9.60083
11.3834
11.2055
11.0979
11.1775
11.3942
11.627
11.7777
11.8957
11.9898
12.0642
1.00001
1.00004
1.00013
1.00027
1.00077
1.00158
1.0045
1.00897
1.02686
1.04978
1.17262
1.3182
2.17688
3.84307
9.32029
11.3645
11.1738
11.0432
11.1196
11.3301
11.5567
11.7017
11.8155
11.9064
11.9805
1.00001
1.00004
1.00012
1.00026
1.00073
1.0015
1.00427
1.00849
1.02565
1.04692
1.16581
1.30028
2.1245
3.69394
8.93461
11.3454
11.1336
10.9695
11.0409
11.2425
11.4599
11.5964
11.7039
11.7904
11.8645
1.00001
1.00003
1.00011
1.00024
1.00069
1.0014
1.004
1.00788
1.02415
1.04339
1.15671
1.27815
2.06145
3.50452
8.43903
11.3304
11.0859
10.8768
10.9412
11.1295
11.3339
11.4576
11.5538
11.6314
11.7056
1.00001
1.00003
1.0001
1.00022
1.00063
1.0013
1.0037
1.00727
1.02236
1.03995
1.14496
1.25432
1.97953
3.27863
7.8261
11.3242
11.0354
10.7676
10.8228
10.9917
11.177
11.2805
11.3571
11.416
11.4819
1.00001
1.00003
1.0001
1.00021
1.00058
1.0012
1.00339
1.00675
1.02029
1.03724
1.13019
1.23211
1.86954
3.02431
7.08755
11.3199
10.9864
10.6452
10.6884
10.8308
10.9877
11.0604
11.1029
11.1239
11.162
1.00001
1.00003
1.00009
1.00019
1.00053
1.00109
1.00307
1.00619
1.01799
1.03496
1.11225
1.20981
1.74722
2.74768
6.2436
11.2849
10.9296
10.5167
10.542
10.6454
10.7628
10.7914
10.7789
10.7224
10.6652
1.00001
1.00002
1.00008
1.00016
1.00046
1.00095
1.00269
1.00542
1.0157
1.03087
1.0963
1.18555
1.63064
2.47927
5.3935
11.1024
10.8119
10.4001
10.3859
10.4363
10.4974
10.4744
10.379
10.1597
9.82691
1.00001
1.00004
1.00013
1.00029
1.00083
1.00169
1.00481
1.00961
1.02866
1.0535
1.18318
1.34471
2.25334
4.06186
9.86123
11.4061
11.2358
11.1439
11.2236
11.4414
11.6776
11.8313
11.9485
12.0422
12.1159
1.00001
1.00004
1.00013
1.00029
1.00082
1.00168
1.00476
1.0095
1.02838
1.05289
1.18151
1.34038
2.24145
4.02761
9.7804
11.3991
11.2272
11.1317
11.2124
11.4311
11.6671
11.8208
11.9397
12.035
12.1103
1.00001
1.00004
1.00013
1.00028
1.0008
1.00164
1.00465
1.00929
1.02777
1.05166
1.178
1.33152
2.21598
3.95444
9.60077
11.3834
11.2055
11.0979
11.1775
11.3942
11.627
11.7777
11.8956
11.9898
12.0642
1.00001
1.00004
1.00013
1.00027
1.00077
1.00158
1.0045
1.00897
1.02686
1.04978
1.17262
1.31819
2.17687
3.84305
9.32023
11.3645
11.1738
11.0432
11.1196
11.3301
11.5567
11.7017
11.8155
11.9064
11.9804
1.00001
1.00004
1.00012
1.00026
1.00073
1.0015
1.00427
1.00849
1.02565
1.04692
1.1658
1.30028
2.12449
3.69391
8.93454
11.3455
11.1336
10.9695
11.0409
11.2425
11.4599
11.5964
11.7039
11.7904
11.8645
1.00001
1.00003
1.00011
1.00024
1.00069
1.0014
1.004
1.00788
1.02415
1.04339
1.15671
1.27815
2.06144
3.5045
8.43896
11.3304
11.0859
10.8768
10.9412
11.1295
11.3339
11.4576
11.5538
11.6314
11.7056
1.00001
1.00003
1.0001
1.00022
1.00063
1.0013
1.0037
1.00727
1.02236
1.03995
1.14496
1.25432
1.97952
3.27861
7.82603
11.3243
11.0354
10.7676
10.8228
10.9917
11.177
11.2805
11.3571
11.416
11.4819
1.00001
1.00003
1.0001
1.00021
1.00058
1.0012
1.00339
1.00675
1.02029
1.03724
1.13019
1.23211
1.86953
3.02428
7.08748
11.3199
10.9864
10.6452
10.6883
10.8308
10.9877
11.0604
11.1029
11.1239
11.162
1.00001
1.00003
1.00009
1.00019
1.00053
1.00109
1.00307
1.00619
1.01799
1.03496
1.11225
1.20981
1.74721
2.74765
6.24353
11.2849
10.9296
10.5167
10.542
10.6454
10.7628
10.7914
10.7789
10.7224
10.6652
1.00001
1.00002
1.00008
1.00016
1.00046
1.00095
1.00269
1.00542
1.0157
1.03087
1.0963
1.18555
1.63063
2.47925
5.39346
11.1023
10.8119
10.4001
10.3859
10.4363
10.4974
10.4744
10.379
10.1597
9.82691
1.00001
1.00004
1.00013
1.00029
1.00082
1.00169
1.0048
1.0096
1.02865
1.05348
1.18316
1.34463
2.25326
4.0615
9.86055
11.4061
11.2357
11.1438
11.2235
11.4412
11.6775
11.8311
11.9483
12.0421
12.1157
1.00001
1.00004
1.00013
1.00028
1.00081
1.00167
1.00475
1.00949
1.02836
1.05287
1.1815
1.3403
2.24137
4.02725
9.77972
11.3991
11.2272
11.1316
11.2122
11.4309
11.6669
11.8206
11.9396
12.0349
12.1102
1.00001
1.00004
1.00013
1.00028
1.0008
1.00163
1.00465
1.00928
1.02776
1.05163
1.17798
1.33144
2.2159
3.95409
9.60008
11.3833
11.2054
11.0978
11.1774
11.394
11.6269
11.7775
11.8955
11.9897
12.064
1.00001
1.00003
1.00012
1.00027
1.00077
1.00158
1.00449
1.00896
1.02685
1.04976
1.17261
1.31811
2.17679
3.8427
9.31952
11.3645
11.1737
11.0431
11.1194
11.33
11.5566
11.7016
11.8153
11.9063
11.9803
1.00001
1.00003
1.00012
1.00025
1.00073
1.00149
1.00426
1.00847
1.02564
1.04689
1.1658
1.30019
2.12443
3.69358
8.93382
11.3455
11.1335
10.9694
11.0408
11.2424
11.4597
11.5963
11.7038
11.7902
11.8643
1.00001
1.00003
1.00011
1.00024
1.00068
1.00139
1.00399
1.00787
1.02414
1.04337
1.15669
1.27808
2.06134
3.50415
8.43822
11.3304
11.0858
10.8767
10.9411
11.1293
11.3338
11.4575
11.5536
11.6313
11.7054
1.00001
1.00003
1.0001
1.00022
1.00063
1.00129
1.00369
1.00726
1.02235
1.03993
1.14493
1.25426
1.97941
3.27827
7.82523
11.3243
11.0354
10.7675
10.8227
10.9916
11.1769
11.2804
11.357
11.4159
11.4818
1.00001
1.00003
1.00009
1.0002
1.00058
1.00119
1.00339
1.00674
1.02028
1.03721
1.13018
1.23202
1.86947
3.02396
7.0867
11.3199
10.9863
10.6451
10.6882
10.8307
10.9876
11.0603
11.1028
11.1238
11.1619
1
1.00002
1.00008
1.00018
1.00052
1.00108
1.00306
1.00618
1.01798
1.03494
1.11223
1.20975
1.74713
2.74737
6.24278
11.2849
10.9295
10.5166
10.5419
10.6453
10.7627
10.7913
10.7788
10.7223
10.6651
1
1.00002
1.00007
1.00016
1.00046
1.00094
1.00268
1.00541
1.01569
1.03085
1.09628
1.18551
1.63056
2.47904
5.39303
11.1021
10.8117
10.3999
10.3858
10.4362
10.4973
10.4743
10.3789
10.1596
9.82682
1
1.00002
1.00005
1.00016
1.00033
1.00095
1.00193
1.00554
1.01078
1.03392
1.05975
1.21805
1.41444
2.44427
4.6612
10.5724
10.5459
10.3319
10.2041
10.2112
10.2013
10.1156
9.86727
9.29659
7.86999
1
1.00002
1.00005
1.00014
1.0003
1.00085
1.00173
1.00491
1.00984
1.02915
1.05495
1.18481
1.35364
2.25709
4.06464
9.54499
10.35
10.215
10.0194
9.97376
9.90248
9.73
9.34831
8.58641
7.14937
1
1.00001
1.00004
1.00012
1.00025
1.00072
1.00147
1.00418
1.0083
1.02498
1.04582
1.16049
1.29072
2.07782
3.55714
8.36953
10.2119
10.0994
9.85378
9.73359
9.61184
9.36473
8.90089
8.14432
7.02133
1
1.00001
1.00003
1.0001
1.00021
1.0006
1.00122
1.00349
1.00686
1.02102
1.03757
1.1353
1.2366
1.90112
3.07367
7.09462
10.1047
9.99036
9.70757
9.50429
9.33162
9.04466
8.57411
7.88998
7.01108
1
1.00001
1.00003
1.00008
1.00017
1.0005
1.00103
1.00293
1.00591
1.01717
1.03346
1.10636
1.20191
1.70073
2.63221
5.78218
9.95073
9.87023
9.5936
9.2991
9.07807
8.77912
8.33303
7.72351
6.99054
1
1.00001
1.00002
1.00005
1.00016
1.00033
1.00095
1.00192
1.00552
1.01071
1.03368
1.05932
1.21388
1.41389
2.37624
4.47476
9.52054
9.68792
9.4949
9.12744
8.86188
8.55746
8.1434
7.60061
6.96241
1
1
1.00002
1.00004
1.00013
1.00027
1.00078
1.0016
1.00453
1.00906
1.02681
1.0503
1.16987
1.31691
2.13662
3.70151
8.4215
9.42922
9.29975
8.99091
8.68068
8.36965
7.98357
7.49853
6.93705
1
1
1.00001
1.00003
1.0001
1.00021
1.0006
1.00121
1.00348
1.00679
1.02114
1.03733
1.13589
1.23786
1.90558
3.06543
6.91184
9.18825
9.12005
8.8899
8.53906
8.21622
7.85106
7.41357
6.91392
0.999999
1
1.00001
1.00003
1.00006
1.00018
1.00038
1.00108
1.00211
1.00656
1.01144
1.04154
1.06796
1.2593
1.51852
2.66462
5.26797
8.92914
8.98903
8.82345
8.45753
8.09494
7.74184
7.34521
6.89986
0.999997
0.999999
1
1.00002
1.00005
1.00014
1.0003
1.00086
1.00175
1.00498
1.00989
1.02968
1.05501
1.18666
1.35806
2.21818
3.89101
8.31091
8.86895
8.7286
8.39403
7.99912
7.65351
7.29272
6.90066
0.999995
0.999996
1
1.00001
1.00004
1.00009
1.00025
1.00052
1.0015
1.00291
1.00905
1.01576
1.05735
1.09431
1.36307
1.73429
3.35572
6.85879
8.61737
8.55613
8.33132
7.9314
7.58874
7.25843
6.90925
0.999994
0.999995
0.999999
1
1.00003
1.00007
1.0002
1.00041
1.00116
1.00235
1.00672
1.01301
1.04117
1.07195
1.26165
1.51496
2.66707
5.16407
8.28891
8.40207
8.26258
7.93037
7.56704
7.25616
6.93449
0.999993
0.999994
0.999996
1
1.00001
1.00006
1.00012
1.00035
1.00073
1.00206
1.00416
1.01193
1.02363
1.07079
1.14223
1.43836
2.01378
3.79654
7.54916
8.27389
8.18027
7.9268
7.57451
7.26972
6.99009
0.999993
0.999993
0.999994
0.999999
1.00001
1.00004
1.00009
1.00025
1.00053
1.00148
1.00299
1.00851
1.0166
1.05151
1.0929
1.32269
1.67289
3.05748
6.07056
8.06179
8.05078
7.91752
7.61477
7.31796
7.10014
0.999992
0.999992
0.999994
0.999996
1
1.00002
1.00007
1.00015
1.00044
1.0009
1.00252
1.00509
1.01456
1.02864
1.08703
1.16995
1.54225
2.24168
4.33871
7.6346
8.00236
7.91948
7.7056
7.43279
7.29288
0.999992
0.999992
0.999993
0.999994
1
1.00001
1.00005
1.00011
1.00031
1.00064
1.00178
1.00361
1.0102
1.02024
1.06023
1.11668
1.37005
1.82692
3.33769
6.62431
7.8864
7.91741
7.83918
7.66643
7.61167
0.999991
0.999991
0.999992
0.999994
0.999997
1.00001
1.00002
1.00008
1.00018
1.00051
1.00105
1.00294
1.00589
1.01711
1.03221
1.10497
1.19221
1.65739
2.4772
4.98391
7.60158
7.96955
7.98307
7.98912
8.02413
0.999991
0.999991
0.999991
0.999993
0.999995
1
1.00001
1.00006
1.00012
1.00036
1.00073
1.00206
1.00416
1.01175
1.02363
1.06804
1.1413
1.41532
1.95105
3.57063
6.89964
8.00536
8.27441
8.44484
8.6126
0.999991
0.999991
0.999991
0.999992
0.999994
0.999997
1.00001
1.00003
1.00009
1.0002
1.00057
1.00116
1.00328
1.00644
1.01946
1.03487
1.12122
1.21453
1.76208
2.68842
5.55145
7.97149
8.78957
9.13482
9.31481
0.999991
0.999991
0.999991
0.999991
0.999992
0.999996
1
1.00002
1.00005
1.00016
1.00034
1.00096
1.00195
1.00548
1.0108
1.03246
1.05926
1.19811
1.39324
2.20985
3.89733
7.75405
9.5249
9.98191
9.98846
0.999991
0.999991
0.999991
0.999991
0.999992
0.999994
0.999998
1.00001
1.00004
1.00011
1.00024
1.00069
1.0014
1.00396
1.00782
1.02353
1.04262
1.14875
1.26661
1.96092
3.19723
7.02242
10.3316
10.7169
10.6258
0.999991
0.999991
0.999991
0.999991
0.999992
0.999993
0.999997
1
1.00003
1.00007
1.00021
1.00044
1.00123
1.00247
1.00725
1.01339
1.04497
1.07613
1.28274
1.55914
2.81896
5.57471
11.1771
11.3211
11.0995
0.999991
0.99999
0.999991
0.999991
0.999991
0.999992
0.999996
1
1.00002
1.00006
1.00018
1.00037
1.00106
1.00217
1.00617
1.01234
1.03687
1.06959
1.23205
1.47955
2.55041
5.07734
11.2398
11.5562
11.2724
0.999991
0.99999
0.99999
0.999991
0.999991
0.999992
0.999995
1
1.00002
1.00005
1.00015
1.00032
1.00093
1.0019
1.00545
1.01087
1.03297
1.06126
1.21249
1.41596
2.46236
4.72068
11.0728
11.5328
11.2394
0.999991
0.99999
0.99999
0.999991
0.999991
0.999992
0.999994
0.999999
1.00001
1.00004
1.00013
1.00028
1.00082
1.00168
1.00491
1.00972
1.03033
1.05517
1.19919
1.37676
2.38522
4.46201
10.7085
11.4371
11.1363
0.999991
0.99999
0.99999
0.999991
0.999991
0.999992
0.999993
0.999999
1.00001
1.00004
1.00009
1.00028
1.00056
1.00179
1.00317
1.0116
1.01901
1.07471
1.12547
1.49858
2.10491
4.52223
10.3263
11.3083
11.008
0.999991
0.99999
0.99999
0.99999
0.999991
0.999991
0.999994
0.999997
1.00001
1.00003
1.00011
1.00022
1.00068
1.00134
1.00426
1.00754
1.02773
1.04588
1.18051
1.3282
2.26612
4.10248
9.9496
11.283
10.9648
0.999991
0.99999
0.99999
0.99999
0.999991
0.999992
0.999993
0.999998
1.00001
1.00004
1.00008
1.00025
1.00052
1.00159
1.00301
1.01021
1.01732
1.06734
1.11116
1.45175
1.9679
4.17126
9.51267
11.2754
10.9372
0.999991
0.99999
0.99999
0.99999
0.999991
0.999991
0.999993
0.999997
1
1.00003
1.00008
1.00024
1.00049
1.00148
1.00283
1.00945
1.01614
1.06288
1.10314
1.42395
1.90048
3.98893
9.09171
11.3144
10.9458
0.999991
0.99999
0.99999
0.99999
0.999991
0.999991
0.999993
0.999996
1.00001
1.00002
1.00008
1.00017
1.00055
1.00102
1.00356
1.00599
1.02326
1.03795
1.15222
1.2705
2.07795
3.56916
8.67741
11.4419
11.0013
0.999991
0.99999
0.99999
0.99999
0.999991
0.999991
0.999992
0.999996
1
1.00003
1.00006
1.0002
1.00038
1.0013
1.00221
1.00843
1.01359
1.05489
1.08988
1.36938
1.77278
3.6002
8.15868
11.6047
11.0847
0.999991
0.99999
0.99999
0.99999
0.999991
0.999991
0.999993
0.999996
1.00001
1.00002
1.00008
1.00017
1.00051
1.00104
1.00311
1.00587
1.0199
1.03393
1.13172
1.22947
1.92547
3.17891
7.70091
11.8018
11.177
0.999991
0.99999
0.99999
0.99999
0.999991
0.999991
0.999993
0.999995
1
1.00002
1.00008
1.00016
1.00049
1.001
1.00294
1.00577
1.01831
1.03245
1.12177
1.21374
1.84142
2.99473
7.21453
12.0463
11.2938
0.999991
0.99999
0.99999
0.99999
0.999991
0.999991
0.999992
0.999996
1
1.00002
1.00005
1.00017
1.00035
1.00106
1.00195
1.00675
1.01123
1.04373
1.07149
1.28771
1.59175
2.98034
6.5316
12.2926
11.4769
0.999991
0.99999
0.99999
0.99999
0.999991
0.999991
0.999993
0.999995
1
1.00002
1.00007
1.00015
1.00044
1.00089
1.00263
1.00513
1.01636
1.02896
1.10683
1.18901
1.71027
2.66811
6.10395
12.4261
11.5733
0.999991
0.99999
0.99999
0.99999
0.999991
0.999991
0.999992
0.999995
1
1.00002
1.00005
1.00016
1.00033
1.00098
1.00187
1.00614
1.01046
1.03964
1.06455
1.25514
1.51142
2.71173
5.70494
12.368
11.6535
0.999991
0.99999
0.99999
0.99999
0.999991
0.999991
0.999992
0.999995
1
1.00002
1.00007
1.00014
1.00043
1.00088
1.00253
1.00509
1.01521
1.02883
1.09702
1.17837
1.64542
2.51502
5.66129
12.1805
11.6245
0.999991
0.99999
0.99999
0.99999
0.999991
0.999991
0.999992
0.999995
1
1.00002
1.00006
1.00014
1.00042
1.00086
1.00247
1.00498
1.0148
1.02816
1.0941
1.17332
1.62575
2.4707
5.54084
12.0586
11.6198
0.999991
0.99999
0.99999
0.99999
0.999991
0.999991
0.999992
0.999995
1
1.00002
1.00005
1.00016
1.00034
1.00099
1.00201
1.00585
1.01127
1.03655
1.06347
1.23844
1.46444
2.60849
5.26611
11.9945
11.6627
0.999991
0.99999
0.99999
0.99999
0.999991
0.999991
0.999992
0.999996
1
1.00002
1.00005
1.00017
1.00035
1.001
1.00204
1.00586
1.01155
1.03583
1.06469
1.23228
1.45694
2.58714
5.18928
11.9647
11.6775
1
1.00002
1.00006
1.00016
1.00034
1.00096
1.00193
1.00555
1.01079
1.03393
1.05977
1.21809
1.41452
2.44435
4.6616
10.5722
10.5465
10.3323
10.2043
10.2113
10.2014
10.1157
9.86736
9.29667
7.87005
1
1.00002
1.00005
1.00015
1.0003
1.00085
1.00174
1.00492
1.00985
1.02916
1.05497
1.18484
1.35373
2.25717
4.06513
9.54552
10.3502
10.2151
10.0195
9.97386
9.90258
9.7301
9.3484
8.58649
7.14941
1
1.00002
1.00004
1.00012
1.00026
1.00073
1.00148
1.00418
1.00832
1.02499
1.04586
1.1605
1.29082
2.0779
3.55751
8.37027
10.212
10.0994
9.85385
9.73369
9.61194
9.36483
8.90098
8.14439
7.02138
1
1.00001
1.00004
1.0001
1.00022
1.00061
1.00123
1.0035
1.00687
1.02103
1.03759
1.13533
1.23666
1.90123
3.07401
7.0954
10.1047
9.99039
9.70764
9.50439
9.33172
9.04476
8.5742
7.89006
7.01114
1
1.00001
1.00003
1.00009
1.00018
1.00051
1.00104
1.00294
1.00592
1.01718
1.03348
1.10638
1.20198
1.70082
2.63251
5.783
9.95085
9.87031
9.59366
9.29919
9.07817
8.77921
8.33312
7.7236
6.99062
1
1.00001
1.00003
1.00006
1.00017
1.00034
1.00096
1.00193
1.00553
1.01072
1.03369
1.05934
1.21391
1.41399
2.37635
4.47535
9.52095
9.68803
9.49498
9.12752
8.86197
8.55755
8.14349
7.60071
6.9625
1
1.00001
1.00002
1.00005
1.00014
1.00028
1.00079
1.00161
1.00453
1.00907
1.02682
1.05032
1.16989
1.317
2.13675
3.70194
8.42235
9.42935
9.29984
8.99097
8.68077
8.36975
7.98368
7.49864
6.93716
1
1.00001
1.00002
1.00004
1.00011
1.00022
1.00061
1.00122
1.00349
1.0068
1.02116
1.03735
1.13592
1.23792
1.9057
3.06581
6.91268
9.1883
9.12008
8.88993
8.53914
8.21632
7.85118
7.4137
6.91406