/*--------------------------------*- C++ -*----------------------------------*\
| =========                 |                                                 |
| \\      /  F ield         | OpenFOAM: The Open Source CFD Toolbox           |
|  \\    /   O peration     | Version:  4.1                                   |
|   \\  /    A nd           | Web:      www.OpenFOAM.org                      |
|    \\/     M anipulation  |                                                 |
\*---------------------------------------------------------------------------*/
FoamFile
{
    version     2.0;
    format      ascii;
    class       surfaceScalarField;
    location    "8.66";
    object      phi;
}
// * * * * * * * * * * * * * * * * * * * * * * * * * * * * * * * * * * * * * //

dimensions      [1 0 -1 0 0 0 0];

internalField   nonuniform List<scalar> 
150500
(
0.0168001
2.51035e-10
-3.33558e-12
0.0168001
9.92359e-10
-1.17936e-11
0.0168001
3.89133e-09
-1.34285e-11
0.0168
9.80738e-09
-2.14753e-11
0.0168
2.70025e-08
-2.17505e-11
0.0168
6.1735e-08
-2.90169e-11
0.0167998
1.60393e-07
-2.96113e-11
0.0167994
3.6169e-07
-4.05103e-11
0.0167984
9.37397e-07
-4.29423e-11
0.0167963
2.14139e-06
-8.90752e-11
0.0167899
5.8076e-06
-6.09161e-11
0.0167744
1.5632e-05
-3.34997e-10
0.0167189
5.37517e-05
-3.13232e-10
0.0165459
0.000170152
-1.50774e-09
0.0155263
0.00100992
-3.05532e-09
0.0143808
0.00114569
-1.41694e-10
0.0132093
0.00117119
-3.12536e-10
0.0119604
0.00124761
-5.53146e-10
0.0106248
0.00133435
-5.83429e-10
0.00918474
0.00143868
-6.16502e-10
0.00761813
0.00156496
-6.27494e-10
0.00591675
0.00169958
-6.47077e-10
0.00408883
0.00182619
-6.6632e-10
0.00212786
0.00195925
-6.80898e-10
0.00212598
-6.91291e-10
0.0168001
4.1839e-10
-3.46937e-12
0.0168001
2.08137e-09
-1.16536e-11
0.0168001
7.83824e-09
-1.35798e-11
0.0168
2.00165e-08
-2.14094e-11
0.0168
5.51069e-08
-2.18306e-11
0.0167999
1.2595e-07
-2.8967e-11
0.0167998
3.2806e-07
-2.96568e-11
0.0167994
7.36429e-07
-4.04992e-11
0.0167983
1.92452e-06
-4.30202e-11
0.0167961
4.34887e-06
-8.92688e-11
0.0167894
1.19891e-05
-6.08078e-11
0.0167734
3.16905e-05
-3.34713e-10
0.0167149
0.000110506
-3.12404e-10
0.0165358
0.000346408
-1.4979e-09
0.0155018
0.00203423
-3.05765e-09
0.0143415
0.0023061
-1.26448e-10
0.013182
0.00233038
-3.0867e-10
0.0119454
0.00248294
-5.52435e-10
0.0106164
0.0026621
-5.7995e-10
0.00916322
0.00289048
-6.09854e-10
0.00757793
0.00314858
-6.20945e-10
0.00585726
0.00341847
-6.42137e-10
0.00400765
0.00367409
-6.61503e-10
0.00203845
0.00392669
-6.76111e-10
0.00416253
-6.86895e-10
0.0168001
5.78671e-10
-3.54028e-12
0.0168001
3.22495e-09
-1.15688e-11
0.0168001
1.19599e-08
-1.36658e-11
0.0168
3.07481e-08
-2.13862e-11
0.0168
8.45926e-08
-2.18928e-11
0.0167999
1.93616e-07
-2.89818e-11
0.0167997
5.04069e-07
-2.97667e-11
0.0167994
1.13057e-06
-4.06747e-11
0.0167982
2.96213e-06
-4.33856e-11
0.016796
6.63197e-06
-9.02127e-11
0.016789
1.84156e-05
-6.12026e-11
0.016773
4.77673e-05
-3.35031e-10
0.0167143
0.000167425
-3.11566e-10
0.0165388
0.0005191
-1.479e-09
0.0155193
0.00304373
-3.07196e-09
0.0143485
0.00347721
-8.7879e-11
0.0131961
0.00348249
-2.98053e-10
0.011972
0.00370579
-5.51376e-10
0.0106556
0.00397711
-5.75538e-10
0.00920573
0.00433901
-6.00135e-10
0.00761754
0.00473512
-6.12846e-10
0.00589118
0.00514299
-6.35116e-10
0.00402103
0.00554259
-6.55442e-10
0.00204002
0.00590597
-6.69274e-10
0.00620069
-6.79649e-10
0.0168001
8.08349e-10
-3.51498e-12
0.0168001
4.47918e-09
-1.15896e-11
0.0168
1.66612e-08
-1.36447e-11
0.0168
4.28038e-08
-2.14132e-11
0.0168
1.18058e-07
-2.19085e-11
0.0167999
2.71393e-07
-2.90425e-11
0.0167997
7.00859e-07
-2.98775e-11
0.0167992
1.62164e-06
-4.07904e-11
0.0167981
3.9755e-06
-4.38883e-11
0.0167952
9.61457e-06
-8.99306e-11
0.0167889
2.4166e-05
-6.21622e-11
0.0167725
6.41503e-05
-3.3042e-10
0.0167163
0.000221894
-3.15116e-10
0.0165508
0.000681819
-1.46234e-09
0.0155713
0.00401281
-3.13985e-09
0.0143964
0.00465268
-3.9159e-11
0.0132531
0.00462539
-2.84633e-10
0.012049
0.0049087
-5.44799e-10
0.0107512
0.00527341
-5.63472e-10
0.00932999
0.00575897
-5.79807e-10
0.00774712
0.0063163
-5.96532e-10
0.00601741
0.0068711
-6.22554e-10
0.0041375
0.00742051
-6.39693e-10
0.00210193
0.00793972
-6.55301e-10
0.00830075
-6.66415e-10
0.0168001
9.91918e-10
-3.47536e-12
0.0168001
5.47605e-09
-1.16284e-11
0.0168001
2.0391e-08
-1.36301e-11
0.0168
5.23513e-08
-2.15078e-11
0.0168
1.44723e-07
-2.21047e-11
0.0168
3.33244e-07
-2.95948e-11
0.0167998
8.61857e-07
-3.09396e-11
0.0167994
2.00201e-06
-4.59178e-11
0.0167984
4.90338e-06
-4.17445e-11
0.0167963
1.17359e-05
-1.27749e-10
0.0167889
3.09543e-05
-1.74118e-11
0.0167738
7.92195e-05
-3.73462e-10
0.0167252
0.000268733
-2.46959e-10
0.0165638
0.000840403
-1.42377e-09
0.0156625
0.00490314
-3.153e-09
0.0144779
0.00583816
2.1442e-11
0.0133417
0.00576133
-2.90412e-10
0.0121637
0.00608541
-5.5248e-10
0.0108969
0.00653893
-5.58897e-10
0.00950199
0.00715231
-5.60693e-10
0.00796186
0.00785491
-5.7357e-10
0.00623344
0.00859719
-6.06226e-10
0.00432355
0.00932922
-6.25763e-10
0.00223552
0.010026
-6.41871e-10
0.0105344
-6.51647e-10
0.0168001
1.06162e-09
-3.42231e-12
0.0168001
5.85536e-09
-1.1645e-11
0.0168001
2.18408e-08
-1.3515e-11
0.0168001
5.59021e-08
-2.16333e-11
0.0168
1.54821e-07
-2.15796e-11
0.0168
3.54227e-07
-2.92927e-11
0.0167999
9.31852e-07
-2.97411e-11
0.0167999
2.08274e-06
-4.09167e-11
0.0167991
5.56955e-06
-4.43766e-11
0.0167987
1.21908e-05
-8.11785e-11
0.0167921
3.69695e-05
-1.07163e-10
0.0167832
8.81459e-05
-2.64899e-10
0.0167221
0.000328059
-3.66821e-10
0.0165744
0.000985029
-1.44756e-09
0.0157793
0.00568663
-3.26023e-09
0.0145706
0.00704808
1.6538e-10
0.0134471
0.00688449
-2.20105e-10
0.0123062
0.0072251
-5.28147e-10
0.0110994
0.00774446
-5.33336e-10
0.00975154
0.00849867
-5.31341e-10
0.008245
0.00936008
-5.41679e-10
0.00655552
0.0102845
-5.74699e-10
0.00461806
0.0112648
-5.95643e-10
0.00241795
0.0122246
-6.16084e-10
0.0129505
-6.33083e-10
0.0168001
1.04824e-09
-3.37536e-12
0.0168001
5.81811e-09
-1.1648e-11
0.0168001
2.17281e-08
-1.34887e-11
0.0168001
5.55056e-08
-2.16716e-11
0.0168001
1.53517e-07
-2.14545e-11
0.0168001
3.47317e-07
-2.92816e-11
0.0168
9.3784e-07
-2.95591e-11
0.0168002
1.93904e-06
-4.05053e-11
0.0167996
6.07286e-06
-4.41826e-11
0.0168006
1.12064e-05
-7.86388e-11
0.0167943
4.27105e-05
-1.07622e-10
0.0167926
8.98292e-05
-2.50833e-10
0.01672
0.000398979
-3.96949e-10
0.016605
0.00109762
-1.42708e-09
0.0160263
0.00625291
-3.43675e-09
0.0147582
0.00831787
2.33334e-10
0.0136209
0.00802184
-1.75326e-10
0.0125092
0.00833559
-5.03406e-10
0.0113596
0.00889273
-5.06817e-10
0.0101072
0.00975001
-4.94186e-10
0.00865491
0.0108107
-5.04597e-10
0.00698557
0.0119522
-5.31061e-10
0.00504963
0.0131986
-5.60338e-10
0.00274445
0.0145277
-5.793e-10
0.015693
-6.0078e-10
0.0168001
1.14506e-09
-3.34621e-12
0.0168001
6.36649e-09
-1.16292e-11
0.0168001
2.36944e-08
-1.36022e-11
0.0168
6.06957e-08
-2.14529e-11
0.0168
1.67054e-07
-2.20038e-11
0.0168
3.7897e-07
-2.93844e-11
0.0167999
1.01594e-06
-3.05653e-11
0.0167998
2.09931e-06
-4.46975e-11
0.016799
6.69851e-06
-4.11808e-11
0.0167992
1.11005e-05
-1.22039e-10
0.0167919
4.93837e-05
-1.97259e-11
0.0167886
9.33638e-05
-3.54355e-10
0.0167582
0.000427613
-2.17635e-10
0.0167004
0.00115345
-1.32794e-09
0.0166122
0.00632784
-3.31795e-09
0.0152438
0.00968843
1.25041e-10
0.014011
0.00925537
-2.39826e-10
0.012885
0.00946075
-5.12818e-10
0.0117733
0.010003
-5.05454e-10
0.0105735
0.0109487
-4.71775e-10
0.00921613
0.0121665
-4.7384e-10
0.0076128
0.0135542
-4.90142e-10
0.00568335
0.0151265
-5.15859e-10
0.00325465
0.0169547
-5.3593e-10
0.0189458
-5.55619e-10
0.0168001
1.58385e-09
-3.31438e-12
0.0168001
7.1292e-09
-1.15906e-11
0.0168001
2.81945e-08
-1.36004e-11
0.0168
6.99048e-08
-2.1324e-11
0.0168
1.96898e-07
-2.16959e-11
0.0167999
4.40962e-07
-2.85662e-11
0.0167998
1.18124e-06
-2.88435e-11
0.0167993
2.53727e-06
-3.73689e-11
0.0167988
7.19422e-06
-4.13981e-11
0.0167961
1.3774e-05
-7.23055e-11
0.0167952
4.97848e-05
-6.87611e-11
0.016798
9.06004e-05
-2.44665e-10
0.0168067
0.000417082
-3.06514e-10
0.0168779
0.00108068
-1.17589e-09
0.0176008
0.00559148
-3.12754e-09
0.0161112
0.0111788
-1.91965e-10
0.0146468
0.01072
-3.71943e-10
0.0135065
0.0106007
-5.37608e-10
0.0124314
0.0110774
-5.15558e-10
0.0112742
0.0121053
-4.58594e-10
0.00997245
0.0134665
-4.49303e-10
0.00851914
0.0150054
-4.53819e-10
0.00674409
0.0168995
-4.61412e-10
0.00421777
0.0194792
-4.73865e-10
0.023162
-4.8255e-10
0.0168001
-3.35686e-12
2.88237e-09
0.0168001
-1.1517e-11
2.88266e-09
0.0168
-1.37567e-11
4.00109e-08
0.0168001
-2.13844e-11
3.90371e-08
0.0168
-2.17709e-11
2.68665e-07
0.0168002
-2.85278e-11
2.5875e-07
0.0167997
-2.84468e-11
1.62356e-06
0.0168008
-3.64346e-11
1.4453e-06
0.0167978
-3.96705e-11
1.01929e-05
0.0168051
-5.794e-11
6.48195e-06
0.0167825
-7.30128e-11
7.19969e-05
0.0168402
-1.80208e-10
3.29071e-05
0.0167486
-2.55543e-10
0.00050746
0.0171307
-8.55054e-10
0.000696306
0.0186845
-1.77227e-09
0.00403171
0.0173405
-9.44419e-10
0.0125178
0.0154524
-9.53276e-10
0.012606
0.0144054
-6.46236e-10
0.011646
0.0132628
-4.95342e-10
0.0122185
0.0122181
-4.80823e-10
0.013149
0.0110929
-4.53072e-10
0.0145912
0.00984631
-4.40828e-10
0.0162512
0.00821278
-4.25899e-10
0.0185315
0.00581905
-4.13219e-10
0.0218711
-3.84743e-10
0.0289796
0.0168001
1.88163e-10
-6.28071e-16
0.0168001
1.02478e-09
-3.25763e-15
0.0168001
3.81278e-09
-7.69136e-15
0.0168
9.79759e-09
-1.61288e-14
0.0168
2.69328e-08
-3.37099e-14
0.0167999
6.17073e-08
-6.45149e-14
0.0167998
1.60324e-07
-1.50428e-13
0.0167994
3.61628e-07
-2.95223e-13
0.0167984
9.37266e-07
-7.80521e-13
0.0167963
2.14114e-06
-1.59323e-12
0.0167899
5.80734e-06
-4.38592e-12
0.0167744
1.56318e-05
-1.19116e-11
0.0167189
5.37517e-05
-3.20554e-11
0.0165459
0.000170161
-1.0139e-10
0.0155263
0.00100992
-2.55019e-10
0.0143808
0.00114566
5.92021e-13
0.0132093
0.00117117
-1.25255e-11
0.0119604
0.00124759
-3.34933e-11
0.0106248
0.00133433
-3.62926e-11
0.00918476
0.00143867
-3.93554e-11
0.00761815
0.00156497
-4.01144e-11
0.00591676
0.00169958
-4.14079e-11
0.00408883
0.0018262
-4.28982e-11
0.00212785
0.00195925
-4.42017e-11
0.00212597
-4.50349e-11
0.0168001
3.85051e-10
-6.29595e-16
0.0168001
2.09639e-09
-3.27769e-15
0.0168
7.7991e-09
-7.72779e-15
0.0168
1.99978e-08
-1.62126e-14
0.0168
5.50544e-08
-3.38922e-14
0.0167999
1.25896e-07
-6.48866e-14
0.0167998
3.27953e-07
-1.51337e-13
0.0167994
7.36243e-07
-2.9717e-13
0.0167983
1.92418e-06
-7.84811e-13
0.0167961
4.34807e-06
-1.60368e-12
0.0167894
1.19883e-05
-4.4048e-12
0.0167734
3.16898e-05
-1.19278e-11
0.0167149
0.000110506
-3.21726e-11
0.0165358
0.000346424
-1.01353e-10
0.0155017
0.00203424
-2.56314e-10
0.0143415
0.00230604
2.07368e-12
0.013182
0.00233034
-1.20536e-11
0.0119455
0.0024829
-3.34689e-11
0.0106164
0.00266207
-3.60942e-11
0.00916325
0.00289047
-3.89384e-11
0.00757797
0.00314858
-3.97276e-11
0.00585728
0.00341848
-4.10964e-11
0.00400767
0.00367409
-4.25686e-11
0.00203846
0.0039267
-4.38682e-11
0.00416253
-4.46499e-11
0.0168001
5.90004e-10
-6.34846e-16
0.0168001
3.21875e-09
-3.30526e-15
0.0168
1.19729e-08
-7.80649e-15
0.0168
3.07353e-08
-1.63858e-14
0.0168
8.45681e-08
-3.43397e-14
0.0167999
1.93531e-07
-6.58109e-14
0.0167997
5.03869e-07
-1.5368e-13
0.0167994
1.13011e-06
-3.02168e-13
0.0167982
2.96092e-06
-7.96094e-13
0.016796
6.63034e-06
-1.62934e-12
0.016789
1.84099e-05
-4.45832e-12
0.016773
4.77679e-05
-1.19672e-11
0.0167143
0.000167422
-3.24915e-11
0.0165388
0.000519127
-1.01514e-10
0.0155193
0.00304373
-2.60527e-10
0.0143485
0.00347711
5.38933e-12
0.0131962
0.00348243
-1.11161e-11
0.011972
0.00370575
-3.36236e-11
0.0106557
0.00397707
-3.59405e-11
0.00920578
0.00433899
-3.83043e-11
0.00761759
0.00473512
-3.91661e-11
0.00589122
0.005143
-4.05754e-11
0.00402105
0.00554261
-4.21468e-11
0.00204004
0.00590599
-4.34034e-11
0.0062007
-4.40039e-11
0.0168001
8.28197e-10
-6.42713e-16
0.0168001
4.47742e-09
-3.34017e-15
0.0168
1.66771e-08
-7.91857e-15
0.0168
4.27813e-08
-1.66262e-14
0.0168
1.17957e-07
-3.4961e-14
0.0167999
2.71122e-07
-6.70287e-14
0.0167997
7.0024e-07
-1.56751e-13
0.0167992
1.61897e-06
-3.07143e-13
0.0167981
3.9757e-06
-8.12052e-13
0.0167952
9.5969e-06
-1.64615e-12
0.0167889
2.41812e-05
-4.54203e-12
0.0167725
6.41293e-05
-1.196e-11
0.0167163
0.000221929
-3.30391e-11
0.0165508
0.00068185
-1.01965e-10
0.0155712
0.00401286
-2.67922e-10
0.0143963
0.00465252
1.07287e-11
0.0132531
0.00462527
-9.56382e-12
0.012049
0.00490863
-3.36849e-11
0.0107513
0.00527336
-3.57038e-11
0.00933005
0.00575894
-3.74992e-11
0.00774716
0.00631631
-3.85331e-11
0.00601746
0.0068711
-4.01181e-11
0.00413753
0.00742054
-4.08954e-11
0.00210194
0.00793974
-4.24329e-11
0.00830077
-4.30133e-11
0.0168001
1.01803e-09
-6.74301e-16
0.0168001
5.48886e-09
-3.46257e-15
0.0168001
2.04617e-08
-8.38348e-15
0.0168
5.23366e-08
-1.76957e-14
0.0168
1.44982e-07
-3.8118e-14
0.0167999
3.33494e-07
-7.46262e-14
0.0167998
8.62555e-07
-1.72314e-13
0.0167994
2.00453e-06
-3.78594e-13
0.0167984
4.90301e-06
-7.90701e-13
0.0167962
1.17571e-05
-2.17864e-12
0.0167889
3.09174e-05
-3.62086e-12
0.0167737
7.92617e-05
-1.24643e-11
0.0167252
0.00026868
-3.30041e-11
0.0165639
0.000840386
-1.02888e-10
0.0156627
0.0049031
-2.78018e-10
0.0144781
0.00583795
2.12239e-11
0.0133419
0.00576124
-8.37495e-12
0.0121638
0.00608535
-3.37725e-11
0.010897
0.00653889
-3.52282e-11
0.00950211
0.0071523
-3.64733e-11
0.00796197
0.00785493
-3.69151e-11
0.00623349
0.00859725
-3.96467e-11
0.0043236
0.00932924
-4.02987e-11
0.00223555
0.010026
-4.1799e-11
0.0105344
-4.19723e-11
0.0168001
1.08489e-09
-6.5032e-16
0.0168001
5.87328e-09
-3.34175e-15
0.0168001
2.18741e-08
-7.98602e-15
0.0168001
5.59135e-08
-1.7008e-14
0.0168
1.54911e-07
-3.55458e-14
0.0168
3.54294e-07
-6.93838e-14
0.0167999
9.3203e-07
-1.61556e-13
0.0167999
2.08311e-06
-3.28341e-13
0.0167991
5.57003e-06
-8.22059e-13
0.0167987
1.21925e-05
-1.72075e-12
0.0167921
3.69711e-05
-5.03572e-12
0.0167832
8.81538e-05
-1.20513e-11
0.016722
0.000328056
-3.153e-11
0.0165743
0.000985074
-1.06501e-10
0.0157791
0.00568673
-2.86494e-10
0.0145704
0.00704773
2.44554e-11
0.0134471
0.00688428
-7.13872e-12
0.0123062
0.00722497
-3.37759e-11
0.0110995
0.00774438
-3.46432e-11
0.00975165
0.00849866
-3.55269e-11
0.00824512
0.00936009
-3.57309e-11
0.00655562
0.0102846
-3.85864e-11
0.00461811
0.0112649
-3.89979e-11
0.00241798
0.0122246
-4.03706e-11
0.0129505
-4.06839e-11
0.0168001
1.06316e-09
-6.08071e-16
0.0168001
5.84241e-09
-3.15411e-15
0.0168001
2.16986e-08
-7.36528e-15
0.0168001
5.5613e-08
-1.56612e-14
0.0168001
1.53321e-07
-3.17274e-14
0.0168001
3.47273e-07
-6.07706e-14
0.0168
9.37434e-07
-1.43976e-13
0.0168002
1.93738e-06
-2.61088e-13
0.0167996
6.07439e-06
-8.16171e-13
0.0168006
1.11864e-05
-1.33912e-12
0.0167943
4.27516e-05
-5.1869e-12
0.0167927
8.97911e-05
-9.65186e-12
0.0167199
0.000399101
-4.07275e-11
0.0166048
0.00109775
-1.04401e-10
0.0160257
0.00625345
-3.02151e-10
0.0147577
0.00831741
3.2092e-11
0.0136206
0.00802139
-2.9275e-12
0.0125091
0.00833531
-3.20253e-11
0.0113596
0.00889256
-3.29253e-11
0.0101072
0.00974992
-3.35665e-11
0.00865496
0.0108107
-3.45353e-11
0.00698565
0.0119523
-3.62462e-11
0.00504969
0.0131987
-3.76733e-11
0.00274448
0.0145278
-3.82894e-11
0.0156931
-3.86131e-11
0.0168001
1.15914e-09
-5.56028e-16
0.0168001
6.3917e-09
-2.96079e-15
0.0168001
2.37129e-08
-6.66914e-15
0.0168
6.07534e-08
-1.38216e-14
0.0168
1.67223e-07
-2.72369e-14
0.0168
3.79394e-07
-4.95056e-14
0.0167999
1.01698e-06
-1.20554e-13
0.0167997
2.10309e-06
-1.61258e-13
0.016799
6.70043e-06
-8.37463e-13
0.0167992
1.1122e-05
-4.94065e-13
0.0167919
4.93748e-05
-5.48773e-12
0.0167885
9.34285e-05
-7.45057e-12
0.0167582
0.000427599
-4.33118e-11
0.0167004
0.00115361
-1.02681e-10
0.0166119
0.00632875
-3.11861e-10
0.0152434
0.00968797
2.39101e-11
0.0140108
0.00925481
-1.09171e-13
0.0128849
0.00946036
-2.87022e-11
0.0117732
0.0100028
-3.0263e-11
0.0105734
0.0109486
-3.1758e-11
0.00921612
0.0121664
-3.31029e-11
0.00761282
0.0135542
-3.44853e-11
0.00568338
0.0151266
-3.63389e-11
0.00325468
0.0169548
-3.70481e-11
0.018946
-3.62714e-11
0.0168001
1.54868e-09
-5.8683e-16
0.0168001
7.24307e-09
-3.06938e-15
0.0168001
2.80445e-08
-7.12733e-15
0.0168
6.97986e-08
-1.49223e-14
0.0168
1.96708e-07
-3.05571e-14
0.0167999
4.40948e-07
-5.82665e-14
0.0167998
1.18147e-06
-1.35365e-13
0.0167993
2.53859e-06
-2.60474e-13
0.0167988
7.19625e-06
-7.56813e-13
0.0167961
1.37862e-05
-1.1766e-12
0.0167952
4.97906e-05
-5.36429e-12
0.016798
9.06451e-05
-8.2446e-12
0.0168067
0.000417137
-3.8735e-11
0.0168777
0.00108094
-9.61327e-11
0.0175999
0.00559312
-3.07081e-10
0.0161105
0.0111782
-9.92571e-12
0.0146464
0.0107191
-1.2221e-11
0.0135063
0.0106001
-2.56747e-11
0.0124312
0.0110771
-2.75977e-11
0.0112741
0.0121051
-2.97742e-11
0.0099724
0.0134664
-3.12533e-11
0.00851912
0.0150054
-3.25613e-11
0.00674409
0.0168995
-3.3564e-11
0.00421779
0.0194793
-3.46203e-11
0.0231621
-3.30884e-11
0.0168001
-5.49185e-16
2.75493e-09
0.0168001
-2.90408e-15
3.2595e-09
0.0168
-6.54818e-15
3.88259e-08
0.0168001
-1.36312e-14
3.9507e-08
0.0168
-2.65652e-14
2.67382e-07
0.0168002
-4.97882e-14
2.59367e-07
0.0167997
-1.09551e-13
1.62246e-06
0.0168008
-2.07257e-13
1.44628e-06
0.0167978
-5.64329e-13
1.01924e-05
0.0168051
-1.00422e-12
6.486e-06
0.0167825
-3.86927e-12
7.1997e-05
0.0168402
-5.42545e-12
3.29322e-05
0.0167487
-2.79133e-11
0.000507469
0.0171308
-6.77651e-11
0.000696568
0.0186857
-1.81013e-10
0.00403235
0.0173402
-1.3493e-10
0.0125193
0.0154524
-4.92317e-11
0.0126045
0.0144053
-1.9543e-11
0.0116453
0.0132627
-2.64171e-11
0.0122182
0.0122179
-2.9417e-11
0.0131488
0.0110928
-3.20569e-11
0.014591
0.00984623
-3.28842e-11
0.0162511
0.00821275
-3.37465e-11
0.0185315
0.00581905
-3.37428e-11
0.0218712
-2.93531e-11
0.0289797
0.0168001
1.88162e-10
1.6608e-16
0.0168001
1.02477e-09
-5.30751e-17
0.0168001
3.81275e-09
-4.06497e-16
0.0168
9.79752e-09
-8.78723e-16
0.0168
2.69327e-08
-2.4972e-15
0.0167999
6.17069e-08
-5.11146e-15
0.0167998
1.60324e-07
-1.43875e-14
0.0167994
3.61626e-07
-2.94901e-14
0.0167984
9.37262e-07
-8.35783e-14
0.0167963
2.14113e-06
-1.7413e-13
0.0167899
5.80732e-06
-4.89538e-13
0.0167744
1.56317e-05
-1.34312e-12
0.0167189
5.37517e-05
-3.63774e-12
0.0165459
0.000170161
-1.15409e-11
0.0155263
0.00100992
-2.91049e-11
0.0143808
0.00114566
2.1822e-13
0.0132093
0.00117117
-1.25501e-12
0.0119605
0.00124759
-3.65514e-12
0.0106248
0.00133433
-3.9687e-12
0.00918477
0.00143867
-4.29671e-12
0.00761815
0.00156497
-4.33571e-12
0.00591677
0.00169958
-4.41976e-12
0.00408883
0.0018262
-4.5361e-12
0.00212785
0.00195925
-4.63798e-12
0.00212597
-4.70273e-12
0.0168001
3.85049e-10
1.6599e-16
0.0168001
2.09638e-09
8.93874e-18
0.0168
7.79905e-09
-4.09881e-16
0.0168
1.99977e-08
-8.85963e-16
0.0168
5.50541e-08
-2.51702e-15
0.0167999
1.25895e-07
-5.15234e-15
0.0167998
3.27951e-07
-1.44932e-14
0.0167994
7.36239e-07
-2.9718e-14
0.0167983
1.92417e-06
-8.40943e-14
0.0167961
4.34805e-06
-1.75377e-13
0.0167894
1.19883e-05
-4.91906e-13
0.0167734
3.16898e-05
-1.34553e-12
0.0167149
0.000110506
-3.65293e-12
0.0165358
0.000346425
-1.15422e-11
0.0155017
0.00203424
-2.92671e-11
0.0143415
0.00230604
3.8348e-13
0.0131821
0.00233034
-1.20504e-12
0.0119455
0.0024829
-3.65887e-12
0.0106164
0.00266207
-3.95351e-12
0.00916326
0.00289047
-4.2568e-12
0.00757797
0.00314858
-4.29586e-12
0.00585729
0.00341848
-4.38889e-12
0.00400767
0.0036741
-4.50406e-12
0.00203846
0.0039267
-4.60474e-12
0.00416254
-4.66493e-12
0.0168001
5.9e-10
1.65985e-16
0.0168001
3.21872e-09
1.04541e-17
0.0168
1.19729e-08
-4.18232e-16
0.0168
3.0735e-08
-9.0434e-16
0.0168
8.45674e-08
-2.56723e-15
0.0167999
1.9353e-07
-5.25676e-15
0.0167997
5.03865e-07
-1.4764e-14
0.0167994
1.1301e-06
-3.02989e-14
0.0167982
2.96089e-06
-8.54294e-14
0.016796
6.6303e-06
-1.78423e-13
0.016789
1.84097e-05
-4.98421e-13
0.016773
4.77678e-05
-1.35118e-12
0.0167143
0.000167421
-3.69298e-12
0.0165388
0.000519128
-1.1572e-11
0.0155193
0.00304373
-2.97794e-11
0.0143485
0.00347711
7.54233e-13
0.0131962
0.00348242
-1.10561e-12
0.011972
0.00370575
-3.68983e-12
0.0106557
0.00397707
-3.95202e-12
0.00920579
0.004339
-4.20588e-12
0.00761759
0.00473512
-4.24266e-12
0.00589122
0.00514301
-4.35027e-12
0.00402106
0.00554261
-4.46713e-12
0.00204004
0.00590599
-4.56044e-12
0.00620071
-4.60896e-12
0.0168001
8.28182e-10
1.6594e-16
0.0168001
4.47736e-09
-7.83692e-17
0.0168
1.66768e-08
-4.31002e-16
0.0168
4.27807e-08
-9.31625e-16
0.0168
1.17955e-07
-2.63773e-15
0.0167999
2.71118e-07
-5.39433e-15
0.0167997
7.0023e-07
-1.51168e-14
0.0167992
1.61894e-06
-3.08635e-14
0.0167981
3.97569e-06
-8.73207e-14
0.0167952
9.59663e-06
-1.8034e-13
0.0167889
2.41813e-05
-5.0872e-13
0.0167725
6.4129e-05
-1.35132e-12
0.0167163
0.000221929
-3.76129e-12
0.0165508
0.000681851
-1.16391e-11
0.0155712
0.00401286
-3.06692e-11
0.0143963
0.00465251
1.35308e-12
0.0132531
0.00462527
-9.39837e-13
0.012049
0.00490862
-3.72378e-12
0.0107513
0.00527336
-3.94668e-12
0.00933006
0.00575894
-4.14542e-12
0.00774716
0.00631632
-4.18316e-12
0.00601747
0.0068711
-4.30947e-12
0.00413753
0.00742055
-4.39672e-12
0.00210194
0.00793975
-4.49375e-12
0.00830078
-4.53702e-12
0.0168001
1.01805e-09
1.65456e-16
0.0168001
5.48893e-09
-1.22593e-16
0.0168001
2.0462e-08
-4.84748e-16
0.0168
5.23371e-08
-1.05562e-15
0.0168
1.44983e-07
-3.00296e-15
0.0167999
3.33498e-07
-6.27917e-15
0.0167998
8.62563e-07
-1.69205e-14
0.0167994
2.00456e-06
-3.92554e-14
0.0167984
4.90301e-06
-8.46854e-14
0.0167962
1.17573e-05
-2.43201e-13
0.0167889
3.0917e-05
-4.48295e-13
0.0167737
7.92619e-05
-1.41361e-12
0.0167252
0.000268681
-3.75921e-12
0.0165639
0.000840386
-1.17635e-11
0.0156627
0.0049031
-3.18779e-11
0.0144781
0.00583794
2.04515e-12
0.0133419
0.00576123
-8.18757e-13
0.0121638
0.00608535
-3.76061e-12
0.010897
0.00653889
-3.92887e-12
0.00950212
0.0071523
-4.06397e-12
0.00796197
0.00785493
-4.08765e-12
0.00623349
0.00859726
-4.26976e-12
0.0043236
0.00932925
-4.35947e-12
0.00223555
0.010026
-4.44272e-12
0.0105344
-4.46331e-12
0.0168001
1.08491e-09
1.66063e-16
0.0168001
5.8734e-09
1.29342e-17
0.0168001
2.18745e-08
-4.42637e-16
0.0168001
5.59145e-08
-9.56808e-16
0.0168
1.54914e-07
-2.73226e-15
0.0168
3.54301e-07
-5.63439e-15
0.0167999
9.32046e-07
-1.56658e-14
0.0167999
2.08316e-06
-3.3215e-14
0.0167991
5.57008e-06
-8.85778e-14
0.0167987
1.21928e-05
-1.88699e-13
0.0167921
3.69713e-05
-5.66697e-13
0.0167832
8.81551e-05
-1.36345e-12
0.016722
0.000328052
-3.60332e-12
0.0165743
0.000985076
-1.21924e-11
0.0157791
0.00568674
-3.29097e-11
0.0145704
0.00704771
2.87868e-12
0.0134471
0.00688427
-6.97954e-13
0.0123062
0.00722496
-3.79441e-12
0.0110995
0.00774438
-3.90249e-12
0.00975165
0.00849866
-3.98049e-12
0.00824513
0.0093601
-4.01392e-12
0.00655563
0.0102846
-4.1988e-12
0.00461811
0.0112649
-4.29094e-12
0.00241798
0.0122246
-4.36889e-12
0.0129505
-4.38757e-12
0.0168001
1.06319e-09
1.66243e-16
0.0168001
5.84252e-09
-2.26708e-17
0.0168001
2.1699e-08
-3.73171e-16
0.0168001
5.56141e-08
-8.05543e-16
0.0168001
1.53324e-07
-2.3014e-15
0.0168001
3.4728e-07
-4.65949e-15
0.0168
9.3745e-07
-1.36761e-14
0.0168002
1.93744e-06
-2.55779e-14
0.0167996
6.07441e-06
-8.79852e-14
0.0168006
1.11869e-05
-1.4535e-13
0.0167943
4.27511e-05
-5.84589e-13
0.0167927
8.97923e-05
-1.09102e-12
0.0167199
0.000399101
-4.65864e-12
0.0166048
0.00109775
-1.19673e-11
0.0160256
0.00625349
-3.47511e-11
0.0147577
0.00831738
3.71207e-12
0.0136206
0.00802136
-2.53019e-13
0.0125091
0.0083353
-3.6493e-12
0.0113596
0.00889256
-3.76532e-12
0.0101072
0.00974993
-3.84477e-12
0.00865496
0.0108107
-3.92164e-12
0.00698565
0.0119523
-4.06922e-12
0.00504969
0.0131987
-4.20008e-12
0.00274448
0.0145278
-4.25911e-12
0.0156931
-4.27827e-12
0.0168001
1.15913e-09
1.6541e-16
0.0168001
6.39166e-09
3.54026e-17
0.0168001
2.37128e-08
-2.93693e-16
0.0168
6.0753e-08
-6.23783e-16
0.0168
1.67222e-07
-1.7832e-15
0.0168
3.79391e-07
-3.45819e-15
0.0167999
1.01698e-06
-1.11114e-14
0.0167997
2.10305e-06
-1.47484e-14
0.016799
6.70047e-06
-9.02383e-14
0.0167992
1.11218e-05
-5.29323e-14
0.0167919
4.93754e-05
-7.3929e-13
0.0167885
9.34285e-05
-8.4823e-13
0.0167582
0.000427604
-4.94584e-12
0.0167004
0.00115362
-1.17806e-11
0.0166118
0.00632884
-3.58874e-11
0.0152434
0.00968792
3.02299e-12
0.0140108
0.00925477
9.78586e-15
0.0128849
0.00946033
-3.33566e-12
0.0117732
0.0100028
-3.52437e-12
0.0105734
0.0109486
-3.71309e-12
0.00921612
0.0121664
-3.81627e-12
0.00761282
0.0135542
-3.98787e-12
0.00568338
0.0151266
-4.16088e-12
0.00325468
0.0169549
-4.25186e-12
0.018946
-4.20748e-12
0.0168001
1.54868e-09
1.65697e-16
0.0168001
7.24315e-09
2.9697e-18
0.0168001
2.80447e-08
-3.44895e-16
0.0168
6.97993e-08
-7.46929e-16
0.0168
1.9671e-07
-2.15368e-15
0.0167999
4.40953e-07
-4.42786e-15
0.0167998
1.18148e-06
-1.27752e-14
0.0167993
2.53861e-06
-2.55986e-14
0.0167988
7.19635e-06
-8.17091e-14
0.0167961
1.37863e-05
-1.27114e-13
0.0167952
4.97914e-05
-6.0638e-13
0.016798
9.06467e-05
-9.30829e-13
0.0168067
0.000417145
-4.43567e-12
0.0168777
0.00108096
-1.10307e-11
0.0175998
0.0055933
-3.53512e-11
0.0161104
0.0111781
-1.25351e-12
0.0146464
0.010719
-1.44823e-12
0.0135062
0.0106001
-3.04941e-12
0.0124312
0.0110771
-3.27458e-12
0.0112741
0.0121051
-3.55419e-12
0.00997239
0.0134664
-3.71531e-12
0.00851911
0.0150054
-3.89735e-12
0.00674409
0.0168995
-4.02575e-12
0.00421779
0.0194793
-4.20241e-12
0.0231621
-4.13068e-12
0.0168001
1.65852e-16
2.75492e-09
0.0168001
5.34291e-17
3.25959e-09
0.0168
-2.74675e-16
3.8826e-08
0.0168001
-5.93372e-16
3.95076e-08
0.0168
-1.69075e-15
2.67384e-07
0.0168002
-3.4527e-15
2.59369e-07
0.0167997
-9.83652e-15
1.62247e-06
0.0168008
-1.95409e-14
1.44629e-06
0.0167978
-5.98193e-14
1.01925e-05
0.0168051
-1.07911e-13
6.48601e-06
0.0167825
-4.35034e-13
7.19979e-05
0.0168402
-6.11697e-13
3.29324e-05
0.0167487
-3.19105e-12
0.000507475
0.0171308
-7.77962e-12
0.000696588
0.0186858
-2.08722e-11
0.00403242
0.0173402
-1.57442e-11
0.0125193
0.0154523
-5.7771e-12
0.0126044
0.0144053
-2.38122e-12
0.0116453
0.0132627
-3.19384e-12
0.0122181
0.0122179
-3.56446e-12
0.0131488
0.0110928
-3.91636e-12
0.014591
0.00984622
-4.06352e-12
0.0162511
0.00821275
-4.27494e-12
0.0185316
0.00581905
-4.44153e-12
0.0218712
-4.23861e-12
0.0289797
0.0168001
1.88162e-10
-3.57465e-17
0.0168001
1.02477e-09
-1.51647e-16
0.0168001
3.81275e-09
-4.67366e-16
0.0168
9.79752e-09
-9.72861e-16
0.0168
2.69326e-08
-2.6395e-15
0.0167999
6.17069e-08
-5.32708e-15
0.0167998
1.60323e-07
-1.46443e-14
0.0167994
3.61626e-07
-2.99986e-14
0.0167984
9.37262e-07
-8.28786e-14
0.0167963
2.14113e-06
-1.75408e-13
0.0167899
5.80732e-06
-4.65737e-13
0.0167744
1.56317e-05
-1.3529e-12
0.0167189
5.37517e-05
-3.26875e-12
0.0165459
0.000170161
-1.12588e-11
0.0155263
0.00100992
-2.79279e-11
0.0143808
0.00114566
1.45341e-12
0.0132093
0.00117117
-2.90648e-13
0.0119605
0.00124759
-2.78809e-12
0.0106248
0.00133433
-3.28733e-12
0.00918477
0.00143867
-3.87237e-12
0.00761815
0.00156497
-4.23834e-12
0.00591677
0.00169958
-4.5013e-12
0.00408883
0.0018262
-4.73449e-12
0.00212785
0.00195925
-4.93758e-12
0.00212597
-5.07731e-12
0.0168001
3.85049e-10
-3.60836e-17
0.0168001
2.09637e-09
-1.53076e-16
0.0168
7.79904e-09
-4.71448e-16
0.0168
1.99977e-08
-9.81626e-16
0.0168
5.5054e-08
-2.66256e-15
0.0167999
1.25895e-07
-5.37455e-15
0.0167998
3.2795e-07
-1.47658e-14
0.0167994
7.36238e-07
-3.02624e-14
0.0167983
1.92417e-06
-8.34598e-14
0.0167961
4.34805e-06
-1.76862e-13
0.0167894
1.19883e-05
-4.68206e-13
0.0167734
3.16897e-05
-1.35658e-12
0.0167149
0.000110506
-3.28292e-12
0.0165358
0.000346425
-1.12612e-11
0.0155017
0.00203424
-2.80645e-11
0.0143415
0.00230604
1.62534e-12
0.0131821
0.00233034
-2.77545e-13
0.0119455
0.0024829
-2.82455e-12
0.0106164
0.00266207
-3.28413e-12
0.00916326
0.00289047
-3.83254e-12
0.00757797
0.00314858
-4.19886e-12
0.00585729
0.00341848
-4.47191e-12
0.00400767
0.0036741
-4.70057e-12
0.00203846
0.0039267
-4.90525e-12
0.00416254
-5.03954e-12
0.0168001
5.89999e-10
-3.69281e-17
0.0168001
3.21872e-09
-1.56476e-16
0.0168
1.19728e-08
-4.81937e-16
0.0168
3.0735e-08
-1.00362e-15
0.0168
8.45673e-08
-2.72129e-15
0.0167999
1.9353e-07
-5.49585e-15
0.0167997
5.03864e-07
-1.50769e-14
0.0167994
1.1301e-06
-3.0937e-14
0.0167982
2.96089e-06
-8.4959e-14
0.016796
6.6303e-06
-1.80447e-13
0.016789
1.84097e-05
-4.74994e-13
0.016773
4.77678e-05
-1.36521e-12
0.0167143
0.000167421
-3.32158e-12
0.0165388
0.000519128
-1.12985e-11
0.0155193
0.00304373
-2.85653e-11
0.0143485
0.0034771
2.01041e-12
0.0131962
0.00348242
-2.34e-13
0.011972
0.00370575
-2.92172e-12
0.0106557
0.00397707
-3.3185e-12
0.00920579
0.004339
-3.79914e-12
0.00761759
0.00473512
-4.15745e-12
0.00589122
0.00514301
-4.45375e-12
0.00402106
0.00554261
-4.6834e-12
0.00204004
0.00590599
-4.87703e-12
0.00620071
-4.99535e-12
0.0168001
8.2818e-10
-3.82063e-17
0.0168001
4.47735e-09
-1.62008e-16
0.0168
1.66768e-08
-4.9756e-16
0.0168
4.27806e-08
-1.03596e-15
0.0168
1.17955e-07
-2.80289e-15
0.0167999
2.71117e-07
-5.6548e-15
0.0167997
7.00229e-07
-1.54804e-14
0.0167992
1.61893e-06
-3.15993e-14
0.0167981
3.97569e-06
-8.70776e-14
0.0167952
9.5966e-06
-1.82846e-13
0.0167889
2.41813e-05
-4.85841e-13
0.0167725
6.41289e-05
-1.36869e-12
0.0167163
0.000221929
-3.39017e-12
0.0165508
0.000681851
-1.1383e-11
0.0155712
0.00401286
-2.9471e-11
0.0143963
0.00465251
2.62376e-12
0.0132531
0.00462527
-1.29677e-13
0.012049
0.00490862
-3.02832e-12
0.0107513
0.00527336
-3.35677e-12
0.00933006
0.00575894
-3.77182e-12
0.00774716
0.00631632
-4.12005e-12
0.00601747
0.0068711
-4.44804e-12
0.00413753
0.00742055
-4.61965e-12
0.00210194
0.00793975
-4.82489e-12
0.00830078
-4.94031e-12
0.0168001
1.01805e-09
-4.33791e-17
0.0168001
5.48893e-09
-1.80676e-16
0.0168001
2.0462e-08
-5.61442e-16
0.0168
5.23371e-08
-1.17851e-15
0.0168
1.44984e-07
-3.21241e-15
0.0167999
3.33498e-07
-6.63768e-15
0.0167998
8.62564e-07
-1.74808e-14
0.0167994
2.00457e-06
-4.07842e-14
0.0167984
4.90301e-06
-8.44174e-14
0.0167962
1.17573e-05
-2.51338e-13
0.0167889
3.0917e-05
-4.2092e-13
0.0167737
7.92619e-05
-1.44352e-12
0.0167252
0.000268681
-3.38177e-12
0.0165639
0.000840386
-1.15355e-11
0.0156627
0.00490311
-3.07136e-11
0.0144781
0.00583793
3.30815e-12
0.0133419
0.00576123
-7.78441e-14
0.0121638
0.00608534