/*--------------------------------*- C++ -*----------------------------------*\
| =========                 |                                                 |
| \\      /  F ield         | OpenFOAM: The Open Source CFD Toolbox           |
|  \\    /   O peration     | Version:  4.1                                   |
|   \\  /    A nd           | Web:      www.OpenFOAM.org                      |
|    \\/     M anipulation  |                                                 |
\*---------------------------------------------------------------------------*/
FoamFile
{
    version     2.0;
    format      ascii;
    class       volVectorField;
    location    "5.42";
    object      U;
}
// * * * * * * * * * * * * * * * * * * * * * * * * * * * * * * * * * * * * * //

dimensions      [0 1 -1 0 0 0 0];

internalField   nonuniform List<vector> 
52500
(
(3 1.53313e-08 -0.00571426)
(2.99998 8.52317e-08 -0.00571439)
(2.99996 3.17155e-07 -0.0057146)
(2.99989 8.16727e-07 -0.00571525)
(2.99975 2.2505e-06 -0.00571645)
(2.99936 5.18118e-06 -0.00572009)
(2.9986 1.33863e-05 -0.00572724)
(2.99618 3.06319e-05 -0.00574643)
(2.992 7.6521e-05 -0.00579424)
(2.976 0.00017272 -0.00588837)
(2.948 0.000467901 -0.00625779)
(2.84079 0.00108909 -0.00676674)
(2.55078 0.00300644 -0.00930851)
(1.8485 0.00795553 -0.0140381)
(0.825695 0.0225886 -0.0177021)
(0.476268 0.0222956 -0.018515)
(0.547675 0.0234948 -0.0185316)
(0.567386 0.0256574 -0.0185741)
(0.515777 0.0276895 -0.0187607)
(0.426805 0.0295987 -0.0189432)
(0.340586 0.0320379 -0.0191376)
(0.270479 0.0350214 -0.0193007)
(0.200469 0.0381795 -0.0194584)
(0.120523 0.0418527 -0.0196102)
(0.0529511 0.0472072 -0.0197594)
(3 4.57413e-08 -0.00571425)
(2.99998 2.53514e-07 -0.00571439)
(2.99996 9.46635e-07 -0.0057146)
(2.99989 2.43717e-06 -0.00571524)
(2.99976 6.74268e-06 -0.00571642)
(2.99937 1.55455e-05 -0.00572)
(2.99862 4.03505e-05 -0.00572704)
(2.99623 9.2655e-05 -0.00574588)
(2.99212 0.00023249 -0.00579316)
(2.97633 0.000526046 -0.00588539)
(2.94878 0.00144081 -0.00625062)
(2.84274 0.00335317 -0.00674879)
(2.55705 0.00941414 -0.00927055)
(1.86298 0.0248826 -0.0139418)
(0.83275 0.0693654 -0.0175926)
(0.471079 0.0650076 -0.018442)
(0.544968 0.0656377 -0.0184576)
(0.565336 0.0696733 -0.0184932)
(0.513126 0.0732149 -0.0186722)
(0.423985 0.0763817 -0.0188485)
(0.337986 0.0804094 -0.0190345)
(0.267689 0.0850622 -0.019188)
(0.197084 0.0893672 -0.0193377)
(0.116347 0.0936068 -0.0194749)
(0.0489428 0.0981139 -0.0196077)
(3 6.97553e-08 -0.00571425)
(2.99998 3.85418e-07 -0.00571439)
(2.99996 1.44175e-06 -0.00571458)
(2.9999 3.69426e-06 -0.00571521)
(2.99977 1.0256e-05 -0.00571635)
(2.99939 2.34789e-05 -0.00571982)
(2.99866 6.20513e-05 -0.00572666)
(2.99633 0.000137855 -0.00574476)
(2.99236 0.000372714 -0.005791)
(2.977 0.000799341 -0.00587937)
(2.95042 0.00237697 -0.00623593)
(2.84692 0.00529792 -0.00671223)
(2.57073 0.0173015 -0.00919091)
(1.89506 0.0436715 -0.0137535)
(0.849656 0.122555 -0.0174306)
(0.463516 0.111998 -0.0183584)
(0.543592 0.110622 -0.0183724)
(0.566506 0.117103 -0.0183971)
(0.514362 0.123462 -0.0185673)
(0.425999 0.130012 -0.0187336)
(0.340972 0.137499 -0.0189124)
(0.270629 0.145717 -0.0190528)
(0.199204 0.153645 -0.0191941)
(0.117254 0.160951 -0.0193308)
(0.0482859 0.166646 -0.0194525)
(3 8.90932e-08 -0.00571425)
(2.99998 4.9156e-07 -0.00571438)
(2.99996 1.84138e-06 -0.00571457)
(2.9999 4.70458e-06 -0.00571517)
(2.99978 1.31078e-05 -0.00571627)
(2.99941 2.98569e-05 -0.0057196)
(2.99871 8.02e-05 -0.00572615)
(2.99649 0.000173342 -0.0057436)
(2.99267 0.000499649 -0.00578765)
(2.97797 0.00102417 -0.00587281)
(2.95263 0.0032651 -0.00621233)
(2.85413 0.00697041 -0.00666986)
(2.59297 0.0256601 -0.0090215)
(1.94732 0.062274 -0.0134302)
(0.882539 0.17653 -0.0171981)
(0.45933 0.159067 -0.0182505)
(0.547317 0.154703 -0.0182636)
(0.573882 0.163523 -0.0182752)
(0.521801 0.172924 -0.0184363)
(0.434258 0.183536 -0.0185963)
(0.349936 0.194927 -0.0187678)
(0.279399 0.207168 -0.0189044)
(0.206848 0.219346 -0.0190305)
(0.122579 0.230459 -0.019149)
(0.0499557 0.237887 -0.0192852)
(3 1.00632e-07 -0.00571425)
(2.99999 5.55143e-07 -0.00571437)
(2.99996 2.07397e-06 -0.00571455)
(2.99991 5.27247e-06 -0.00571512)
(2.99979 1.4662e-05 -0.00571616)
(2.99944 3.30324e-05 -0.00571931)
(2.99878 9.06366e-05 -0.00572549)
(2.99668 0.000182813 -0.0057421)
(2.99307 0.000602844 -0.00578323)
(2.97926 0.00104753 -0.00586448)
(2.9555 0.00426781 -0.00618059)
(2.86399 0.00830819 -0.00661748)
(2.62281 0.0330557 -0.00878123)
(2.01809 0.0791439 -0.0129887)
(0.928831 0.22844 -0.0169029)
(0.457297 0.206708 -0.0181291)
(0.55534 0.199154 -0.0181443)
(0.587043 0.209591 -0.0181324)
(0.535362 0.221517 -0.0182913)
(0.448931 0.236172 -0.0184211)
(0.365045 0.251738 -0.0185848)
(0.293993 0.268599 -0.018707)
(0.21972 0.285879 -0.0188415)
(0.131978 0.301793 -0.0189618)
(0.0539879 0.31177 -0.0190731)
(3 1.18274e-07 -0.00571425)
(2.99999 6.53481e-07 -0.00571436)
(2.99997 2.43551e-06 -0.00571454)
(2.99991 6.20903e-06 -0.00571507)
(2.9998 1.71926e-05 -0.00571605)
(2.99947 3.88544e-05 -0.00571907)
(2.99884 0.000105565 -0.00572479)
(2.99691 0.000214661 -0.00574133)
(2.99339 0.000704746 -0.0057776)
(2.98097 0.00114258 -0.00585984)
(2.95883 0.00511009 -0.00613152)
(2.87615 0.00945745 -0.0065568)
(2.66038 0.0382102 -0.00846225)
(2.10833 0.0918035 -0.0124072)
(0.994823 0.273056 -0.0165299)
(0.46716 0.25557 -0.0179714)
(0.571732 0.246507 -0.0179826)
(0.608245 0.25707 -0.0179577)
(0.556934 0.27053 -0.0181199)
(0.471654 0.289167 -0.0182523)
(0.387825 0.309496 -0.0183856)
(0.315912 0.331835 -0.0185086)
(0.23949 0.355578 -0.018605)
(0.146714 0.378519 -0.018706)
(0.0606114 0.393455 -0.0188469)
(3 1.42267e-07 -0.00571425)
(2.99999 7.8638e-07 -0.00571435)
(2.99997 2.93313e-06 -0.00571451)
(2.99992 7.52276e-06 -0.00571501)
(2.99981 2.08005e-05 -0.00571591)
(2.99952 4.75567e-05 -0.00571868)
(2.99893 0.00012564 -0.00572393)
(2.99718 0.000274624 -0.0057393)
(2.99385 0.000777349 -0.00577156)
(2.98288 0.00149434 -0.00585102)
(2.9626 0.00532348 -0.00608068)
(2.88957 0.0101224 -0.00648665)
(2.70141 0.0390032 -0.00812165)
(2.21218 0.0949121 -0.0117294)
(1.0829 0.290854 -0.016082)
(0.499615 0.300532 -0.0177775)
(0.600399 0.297796 -0.017787)
(0.638812 0.306649 -0.0177457)
(0.58827 0.320397 -0.0178989)
(0.504811 0.34307 -0.0180276)
(0.420565 0.368935 -0.0181511)
(0.347246 0.398032 -0.0182398)
(0.268297 0.430224 -0.0183519)
(0.169623 0.463524 -0.0184387)
(0.07225 0.488497 -0.0185288)
(3 1.53256e-07 -0.00571425)
(2.99999 8.46378e-07 -0.00571434)
(2.99997 3.14863e-06 -0.00571449)
(2.99993 8.06725e-06 -0.00571493)
(2.99983 2.22092e-05 -0.00571575)
(2.99956 5.0723e-05 -0.00571826)
(2.99903 0.00013246 -0.005723)
(2.99745 0.000293482 -0.00573695)
(2.99441 0.000779788 -0.00576583)
(2.98471 0.00167 -0.00583923)
(2.96617 0.00492891 -0.00603674)
(2.90244 0.010287 -0.00642355)
(2.74008 0.0346903 -0.00779814)
(2.31184 0.0849564 -0.0111305)
(1.18728 0.260107 -0.015574)
(0.55639 0.334318 -0.0174987)
(0.634918 0.353211 -0.017518)
(0.670692 0.357762 -0.0175156)
(0.624507 0.371085 -0.0176659)
(0.546054 0.397971 -0.0177719)
(0.462933 0.430337 -0.0178962)
(0.389253 0.467673 -0.0179557)
(0.309105 0.51075 -0.018002)
(0.205188 0.559817 -0.0180489)
(0.0923131 0.605831 -0.0181413)
(3 1.84987e-07 -0.00571425)
(2.99999 1.01372e-06 -0.00571433)
(2.99998 3.77774e-06 -0.00571446)
(2.99993 9.71461e-06 -0.00571486)
(2.99985 2.68175e-05 -0.00571559)
(2.99961 6.19126e-05 -0.00571784)
(2.99913 0.000159188 -0.00572207)
(2.99772 0.000373638 -0.00573463)
(2.995 0.000871686 -0.00576035)
(2.9863 0.00222736 -0.00582642)
(2.96989 0.00474401 -0.00600338)
(2.91301 0.0122477 -0.00634439)
(2.76966 0.0308766 -0.00758874)
(2.38478 0.0771182 -0.0104953)
(1.29782 0.223538 -0.015447)
(0.611149 0.377462 -0.0173475)
(0.65055 0.410019 -0.0172789)
(0.68249 0.407453 -0.0173086)
(0.652991 0.422686 -0.0174417)
(0.587587 0.451864 -0.0174983)
(0.511113 0.492258 -0.017583)
(0.441115 0.539389 -0.0176247)
(0.364538 0.595963 -0.0176368)
(0.262264 0.669821 -0.0176071)
(0.129986 0.760563 -0.0174976)
(3 2.84552e-07 -0.00571425)
(2.99999 5.00921e-07 -0.00571431)
(2.99998 4.14456e-06 -0.00571442)
(2.99994 6.08604e-06 -0.00571475)
(2.99988 2.80939e-05 -0.00571536)
(2.99967 3.93424e-05 -0.00571717)
(2.99929 0.000168174 -0.00572083)
(2.99805 0.000221099 -0.00573006)
(2.99596 0.00101985 -0.00575487)
(2.98792 0.00105451 -0.00579993)
(2.97464 0.0067312 -0.00598441)
(2.92326 0.00475024 -0.00622946)
(2.79726 0.0432238 -0.00746207)
(2.45462 0.0577669 -0.00971646)
(1.44222 0.230771 -0.0149587)
(0.70221 0.434474 -0.0170527)
(0.659253 0.455349 -0.0171344)
(0.686672 0.450739 -0.0171738)
(0.676459 0.470182 -0.0172061)
(0.627618 0.50185 -0.0172733)
(0.564278 0.550453 -0.0172647)
(0.503044 0.608242 -0.0172335)
(0.440142 0.684658 -0.0171386)
(0.35762 0.801793 -0.0169423)
(0.201486 1.00895 -0.0165423)
(3 1.57247e-08 -2.54614e-09)
(2.99998 8.53637e-08 -8.66707e-09)
(2.99996 3.18108e-07 -1.00521e-08)
(2.99989 8.15943e-07 -1.61158e-08)
(2.99975 2.25288e-06 -1.60273e-08)
(2.99936 5.18153e-06 -2.1801e-08)
(2.99859 1.33889e-05 -2.20715e-08)
(2.99617 3.06331e-05 -3.04742e-08)
(2.99199 7.65275e-05 -3.25798e-08)
(2.976 0.000172732 -6.01236e-08)
(2.94799 0.000467928 -7.73054e-08)
(2.84077 0.0010892 -1.74767e-07)
(2.55073 0.00300658 -2.12579e-07)
(1.84839 0.00795607 -6.949e-07)
(0.825654 0.022589 -7.48548e-07)
(0.476312 0.0222962 8.88856e-08)
(0.547692 0.0234953 -1.35891e-08)
(0.567391 0.0256575 -7.89242e-08)
(0.515783 0.0276894 -7.8903e-08)
(0.426813 0.0295986 -7.37038e-08)
(0.340594 0.0320377 -6.94562e-08)
(0.270487 0.0350216 -7.12979e-08)
(0.200476 0.03818 -7.26289e-08)
(0.120528 0.041854 -7.48232e-08)
(0.0529543 0.0472096 -7.82448e-08)
(3 4.68699e-08 -2.53826e-09)
(2.99998 2.541e-07 -8.67133e-09)
(2.99996 9.49318e-07 -1.00374e-08)
(2.99989 2.43458e-06 -1.61483e-08)
(2.99976 6.74978e-06 -1.59723e-08)
(2.99937 1.5546e-05 -2.18308e-08)
(2.99862 4.03581e-05 -2.20333e-08)
(2.99622 9.26573e-05 -3.04914e-08)
(2.99211 0.00023251 -3.24805e-08)
(2.97632 0.000526078 -6.00055e-08)
(2.94877 0.00144089 -7.70419e-08)
(2.84272 0.0033535 -1.73343e-07)
(2.557 0.00941459 -2.12038e-07)
(1.86287 0.0248843 -6.91551e-07)
(0.832709 0.0693664 -7.522e-07)
(0.471122 0.065009 9.12612e-08)
(0.544983 0.065639 -1.26616e-08)
(0.565341 0.0696741 -7.83855e-08)
(0.513132 0.0732153 -7.82311e-08)
(0.423993 0.076382 -7.29652e-08)
(0.337994 0.08041 -6.86442e-08)
(0.267695 0.0850633 -7.03227e-08)
(0.197089 0.0893691 -7.15313e-08)
(0.11635 0.0936096 -7.33294e-08)
(0.0489449 0.0981182 -7.63409e-08)
(3 7.12316e-08 -2.52358e-09)
(2.99998 3.86786e-07 -8.67528e-09)
(2.99996 1.44351e-06 -1.00143e-08)
(2.99989 3.69703e-06 -1.62144e-08)
(2.99976 1.02603e-05 -1.58591e-08)
(2.99939 2.34869e-05 -2.18963e-08)
(2.99866 6.20667e-05 -2.19478e-08)
(2.99633 0.000137894 -3.05366e-08)
(2.99236 0.000372776 -3.22251e-08)
(2.97699 0.000799538 -5.97725e-08)
(2.95041 0.00237728 -7.63922e-08)
(2.8469 0.00529894 -1.70327e-07)
(2.57068 0.017302 -2.10936e-07)
(1.89495 0.0436748 -6.85235e-07)
(0.849615 0.122557 -7.64818e-07)
(0.463555 0.111999 9.57218e-08)
(0.543603 0.110623 -9.57262e-09)
(0.566505 0.117103 -7.71181e-08)
(0.514363 0.123462 -7.7248e-08)
(0.426002 0.130013 -7.21517e-08)
(0.340976 0.1375 -6.76002e-08)
(0.270633 0.145719 -6.88815e-08)
(0.199206 0.153648 -6.97336e-08)
(0.117256 0.160955 -7.09407e-08)
(0.0482871 0.166652 -7.29784e-08)
(3 9.08003e-08 -2.50849e-09)
(2.99998 4.9357e-07 -8.66986e-09)
(2.99996 1.84169e-06 -1.00299e-08)
(2.9999 4.71434e-06 -1.61306e-08)
(2.99977 1.31075e-05 -1.59329e-08)
(2.99941 2.98741e-05 -2.17517e-08)
(2.99871 8.0225e-05 -2.18668e-08)
(2.99648 0.000173431 -2.99855e-08)
(2.99267 0.000499768 -3.2007e-08)
(2.97796 0.00102459 -5.72717e-08)
(2.95262 0.00326579 -7.50247e-08)
(2.85411 0.00697217 -1.60116e-07)
(2.59292 0.025662 -2.23805e-07)
(1.9472 0.0622809 -6.67621e-07)
(0.88249 0.176538 -7.96668e-07)
(0.459356 0.159073 9.82441e-08)
(0.547318 0.154705 -7.35808e-09)
(0.573874 0.163523 -7.47316e-08)
(0.521795 0.172923 -7.48619e-08)
(0.434255 0.183536 -6.9737e-08)
(0.349934 0.194927 -6.5792e-08)
(0.279398 0.20717 -6.76153e-08)
(0.206848 0.219349 -6.7977e-08)
(0.122579 0.230464 -6.8123e-08)
(0.0499561 0.237894 -6.89614e-08)
(3 1.01917e-07 -2.4891e-09)
(2.99998 5.58225e-07 -8.66463e-09)
(2.99996 2.072e-06 -1.00455e-08)
(2.9999 5.2828e-06 -1.60331e-08)
(2.99979 1.46535e-05 -1.60074e-08)
(2.99944 3.30365e-05 -2.15693e-08)
(2.99878 9.06264e-05 -2.1706e-08)
(2.99668 0.00018274 -2.91968e-08)
(2.99307 0.000602942 -3.14269e-08)
(2.97926 0.00104643 -5.36423e-08)
(2.95549 0.00427031 -7.10217e-08)
(2.86397 0.00830768 -1.50607e-07)
(2.62277 0.0330639 -2.13066e-07)
(2.01799 0.0791584 -6.37371e-07)
(0.928784 0.228463 -8.18421e-07)
(0.45733 0.206718 8.5191e-08)
(0.555351 0.199155 -1.89132e-08)
(0.587045 0.209591 -7.64399e-08)
(0.535365 0.221517 -7.44299e-08)
(0.448933 0.236172 -6.78506e-08)
(0.365046 0.251739 -6.53516e-08)
(0.293993 0.2686 -6.7431e-08)
(0.21972 0.285882 -6.66472e-08)
(0.131977 0.301798 -6.59826e-08)
(0.0539878 0.311777 -6.56906e-08)
(3 1.19947e-07 -2.48263e-09)
(2.99999 6.56887e-07 -8.63106e-09)
(2.99997 2.43652e-06 -1.01238e-08)
(2.99991 6.22105e-06 -1.59026e-08)
(2.9998 1.72015e-05 -1.62584e-08)
(2.99947 3.88905e-05 -2.15703e-08)
(2.99884 0.000105632 -2.21199e-08)
(2.99691 0.000214841 -3.13031e-08)
(2.99339 0.000705044 -2.89244e-08)
(2.98097 0.00114309 -8.02181e-08)
(2.95882 0.00511212 -1.31442e-08)
(2.87614 0.00945956 -2.07106e-07)
(2.66035 0.0382159 -1.06966e-07)
(2.10825 0.091817 -5.80096e-07)
(0.994798 0.273078 -7.87952e-07)
(0.4672 0.255574 3.53266e-08)
(0.571752 0.246504 -4.24337e-08)
(0.608258 0.257071 -7.48866e-08)
(0.556946 0.270533 -7.06027e-08)
(0.471665 0.28917 -6.3627e-08)
(0.387832 0.309499 -6.58844e-08)
(0.315915 0.331838 -6.8994e-08)
(0.239492 0.355581 -6.76242e-08)
(0.146715 0.378524 -6.54053e-08)
(0.0606114 0.393461 -6.42594e-08)
(3 1.45008e-07 -2.45574e-09)
(2.99999 7.88726e-07 -8.62582e-09)
(2.99997 2.93789e-06 -1.00901e-08)
(2.99992 7.53176e-06 -1.58301e-08)
(2.99981 2.08224e-05 -1.60478e-08)
(2.99951 4.76066e-05 -2.10875e-08)
(2.99892 0.000125754 -2.10991e-08)
(2.99718 0.000274976 -2.71051e-08)
(2.99385 0.0007777 -2.91299e-08)
(2.98287 0.00149675 -4.99246e-08)
(2.96259 0.00532374 -4.25251e-08)
(2.88956 0.0101277 -1.46375e-07)
(2.70138 0.0390062 -1.46336e-07)
(2.21209 0.0949268 -5.14922e-07)
(1.08286 0.290898 -7.85695e-07)
(0.49962 0.300537 -2.25488e-08)
(0.600405 0.297792 -6.18005e-08)
(0.638821 0.306651 -6.51746e-08)
(0.588282 0.320402 -6.09928e-08)
(0.504822 0.343076 -5.78885e-08)
(0.420573 0.36894 -6.27423e-08)
(0.347252 0.398036 -6.59419e-08)
(0.2683 0.430228 -6.59895e-08)
(0.169625 0.463529 -6.47461e-08)
(0.0722505 0.488505 -6.32875e-08)
(3 1.55705e-07 -2.42793e-09)
(2.99999 8.48291e-07 -8.63097e-09)
(2.99997 3.15089e-06 -1.0082e-08)
(2.99992 8.07092e-06 -1.58178e-08)
(2.99983 2.22159e-05 -1.60013e-08)
(2.99956 5.07359e-05 -2.10031e-08)
(2.99903 0.00013249 -2.0827e-08)
(2.99745 0.000293548 -2.65486e-08)
(2.99441 0.000779905 -2.84008e-08)
(2.98471 0.00167061 -4.06139e-08)
(2.96616 0.00492943 -4.66106e-08)
(2.90243 0.0102886 -1.18601e-07)
(2.74006 0.0346953 -1.1841e-07)
(2.31178 0.0849684 -3.9855e-07)
(1.18724 0.260158 -4.93866e-07)
(0.556386 0.33432 -1.98985e-07)
(0.634933 0.3532 -1.09056e-07)
(0.670711 0.357765 -4.36535e-08)
(0.624522 0.371092 -4.79854e-08)
(0.546067 0.397979 -5.58091e-08)
(0.462943 0.430343 -6.21182e-08)
(0.389261 0.467679 -6.37264e-08)
(0.30911 0.510756 -6.39328e-08)
(0.205191 0.559823 -6.32526e-08)
(0.0923143 0.605839 -6.22636e-08)
(3 1.8528e-07 -2.40661e-09)
(2.99999 1.01306e-06 -8.62862e-09)
(2.99997 3.77324e-06 -1.00876e-08)
(2.99993 9.68837e-06 -1.58047e-08)
(2.99985 2.68011e-05 -1.59877e-08)
(2.99961 6.18572e-05 -2.09622e-08)
(2.99913 0.000159119 -2.07566e-08)
(2.99772 0.000373478 -2.63678e-08)
(2.995 0.000871548 -2.80462e-08)
(2.9863 0.00222689 -4.02526e-08)
(2.96989 0.00474325 -4.21079e-08)
(2.91301 0.0122476 -1.2705e-07)
(2.76963 0.0308777 -8.21162e-08)
(2.38473 0.0771229 -3.98339e-07)
(1.29778 0.223557 -4.33211e-07)
(0.611122 0.377454 -3.57873e-07)
(0.650571 0.410016 -1.80301e-07)
(0.682524 0.407457 1.27071e-08)
(0.653011 0.422693 -3.74904e-08)
(0.587602 0.451872 -5.00717e-08)
(0.511125 0.492266 -5.98243e-08)
(0.441125 0.539397 -6.12134e-08)
(0.364546 0.595971 -6.12843e-08)
(0.262269 0.669829 -6.03948e-08)
(0.129989 0.760573 -5.92576e-08)
(3 2.70383e-07 -2.42204e-09)
(2.99999 5.56078e-07 -8.64678e-09)
(2.99998 4.03675e-06 -1.01573e-08)
(2.99994 6.12405e-06 -1.62454e-08)
(2.99987 2.79622e-05 -1.58728e-08)
(2.99967 3.93797e-05 -2.17031e-08)
(2.99929 0.000168042 -2.11702e-08)
(2.99804 0.000221147 -2.83105e-08)
(2.99596 0.00101968 -2.80981e-08)
(2.98792 0.00105482 -4.75328e-08)
(2.97463 0.00673049 -5.25636e-08)
(2.92325 0.00475263 -9.99128e-08)
(2.79724 0.0432212 -8.70032e-08)
(2.45458 0.0577777 -3.38825e-07)
(1.44216 0.230776 -4.39369e-07)
(0.702172 0.434468 -4.23908e-07)
(0.659272 0.45536 -5.25666e-08)
(0.686698 0.450746 -5.16068e-09)
(0.67648 0.47019 -3.40424e-08)
(0.627635 0.501859 -4.44829e-08)
(0.564292 0.550462 -5.86286e-08)
(0.503056 0.608251 -5.85333e-08)
(0.440151 0.684667 -5.78844e-08)
(0.357628 0.801802 -5.53073e-08)
(0.20149 1.00896 -5.31539e-08)
(3 1.57247e-08 -4.02566e-13)
(2.99998 8.53637e-08 -2.12512e-12)
(2.99996 3.18108e-07 -4.74187e-12)
(2.99989 8.15942e-07 -1.00643e-11)
(2.99975 2.25287e-06 -1.89897e-11)
(2.99936 5.18152e-06 -3.62344e-11)
(2.99859 1.33888e-05 -7.69064e-11)
(2.99617 3.0633e-05 -1.51699e-10)
(2.99199 7.65273e-05 -3.60865e-10)
(2.976 0.000172731 -7.3122e-10)
(2.94799 0.000467926 -2.02007e-09)
(2.84077 0.0010892 -4.32526e-09)
(2.55072 0.00300657 -1.00771e-08)
(1.84838 0.00795603 -2.74643e-08)
(0.825652 0.0225889 -3.60791e-08)
(0.476315 0.0222961 4.37205e-09)
(0.547693 0.0234952 -3.25711e-10)
(0.567392 0.0256575 -2.74185e-09)
(0.515784 0.0276894 -2.54433e-09)
(0.426814 0.0295985 -2.23333e-09)
(0.340595 0.0320376 -2.63447e-09)
(0.270488 0.0350215 -3.21701e-09)
(0.200477 0.03818 -3.65843e-09)
(0.120529 0.0418541 -4.21704e-09)
(0.0529551 0.0472102 -5.03835e-09)
(3 4.68699e-08 -4.02995e-13)
(2.99998 2.541e-07 -2.12617e-12)
(2.99996 9.49319e-07 -4.7485e-12)
(2.99989 2.43459e-06 -1.00807e-11)
(2.99976 6.74978e-06 -1.90468e-11)
(2.99937 1.5546e-05 -3.63529e-11)
(2.99862 4.0358e-05 -7.73192e-11)
(2.99622 9.26571e-05 -1.52623e-10)
(2.99211 0.000232509 -3.63585e-10)
(2.97632 0.000526077 -7.36831e-10)
(2.94877 0.00144088 -2.04371e-09)
(2.84272 0.00335349 -4.36206e-09)
(2.557 0.00941454 -1.02378e-08)
(1.86286 0.0248842 -2.78369e-08)
(0.832707 0.0693658 -3.67131e-08)
(0.471125 0.0650087 4.65102e-09)
(0.544985 0.0656388 -2.4966e-10)
(0.565341 0.069674 -2.73619e-09)
(0.513132 0.0732152 -2.55613e-09)
(0.423994 0.0763819 -2.25811e-09)
(0.337995 0.0804099 -2.62283e-09)
(0.267696 0.0850633 -3.13043e-09)
(0.19709 0.0893693 -3.54072e-09)
(0.116351 0.09361 -4.01694e-09)
(0.0489452 0.0981191 -4.71657e-09)
(3 7.12324e-08 -4.0366e-13)
(2.99998 3.8679e-07 -2.12716e-12)
(2.99996 1.44352e-06 -4.75901e-12)
(2.99989 3.69708e-06 -1.01129e-11)
(2.99976 1.02604e-05 -1.9156e-11)
(2.99939 2.34872e-05 -3.66377e-11)
(2.99866 6.20674e-05 -7.80913e-11)
(2.99633 0.000137896 -1.55509e-10)
(2.99236 0.000372778 -3.68617e-10)
(2.97699 0.000799548 -7.53989e-10)
(2.9504 0.00237728 -2.1038e-09)
(2.8469 0.00529898 -4.47097e-09)
(2.57068 0.0173018 -1.06569e-08)
(1.89494 0.0436745 -2.88061e-08)
(0.849612 0.122556 -3.87616e-08)
(0.463557 0.111999 5.22867e-09)
(0.543603 0.110622 4.63051e-11)
(0.566506 0.117103 -2.7021e-09)
(0.514364 0.123462 -2.57705e-09)
(0.426002 0.130013 -2.29327e-09)
(0.340976 0.1375 -2.54469e-09)
(0.270633 0.145719 -2.92584e-09)
(0.199207 0.153648 -3.25124e-09)
(0.117256 0.160956 -3.5934e-09)
(0.0482872 0.166653 -4.03054e-09)
(3 9.08013e-08 -3.8676e-13)
(2.99998 4.93576e-07 -2.0552e-12)
(2.99996 1.84171e-06 -4.51349e-12)
(2.9999 4.7144e-06 -9.56837e-12)
(2.99977 1.31076e-05 -1.7602e-11)
(2.99941 2.98744e-05 -3.30127e-11)
(2.99871 8.02258e-05 -7.10239e-11)
(2.99648 0.000173434 -1.25514e-10)
(2.99267 0.00049977 -3.707e-10)
(2.97796 0.0010246 -5.89284e-10)
(2.95262 0.00326579 -2.1768e-09)
(2.85411 0.00697221 -3.69632e-09)
(2.59292 0.0256618 -1.4028e-08)
(1.9472 0.0622806 -2.93148e-08)
(0.882487 0.176537 -4.28687e-08)
(0.459358 0.159073 6.32493e-09)
(0.547318 0.154705 7.30441e-10)
(0.573874 0.163523 -2.60115e-09)
(0.521795 0.172923 -2.54906e-09)
(0.434255 0.183536 -2.2888e-09)
(0.349934 0.194927 -2.37193e-09)
(0.279398 0.20717 -2.68162e-09)
(0.206848 0.219349 -2.89681e-09)
(0.122579 0.230465 -3.06937e-09)
(0.049956 0.237895 -3.24983e-09)
(3 1.01918e-07 -3.83366e-13)
(2.99998 5.5823e-07 -2.04089e-12)
(2.99996 2.07202e-06 -4.4781e-12)
(2.9999 5.28286e-06 -9.48873e-12)
(2.99979 1.46536e-05 -1.75186e-11)
(2.99944 3.30369e-05 -3.29438e-11)
(2.99878 9.06271e-05 -7.12466e-11)
(2.99668 0.000182742 -1.28411e-10)
(2.99307 0.000602944 -3.72748e-10)
(2.97926 0.00104645 -6.12681e-10)
(2.95549 0.00427029 -2.23751e-09)
(2.86397 0.00830771 -3.81291e-09)
(2.62276 0.0330639 -1.44471e-08)
(2.01798 0.0791583 -3.04894e-08)
(0.92878 0.228462 -4.73727e-08)
(0.457331 0.206717 6.77233e-09)
(0.555351 0.199155 1.21282e-09)
(0.587044 0.209591 -2.57817e-09)
(0.535364 0.221517 -2.57303e-09)
(0.448933 0.236172 -2.30146e-09)
(0.365046 0.251739 -2.11811e-09)
(0.293993 0.2686 -2.34817e-09)
(0.21972 0.285882 -2.42189e-09)
(0.131977 0.301798 -2.49608e-09)
(0.0539878 0.311778 -2.5084e-09)
(3 1.19948e-07 -3.66557e-13)
(2.99999 6.56889e-07 -1.98323e-12)
(2.99997 2.43653e-06 -4.26792e-12)
(2.99991 6.22107e-06 -8.82328e-12)
(2.9998 1.72016e-05 -1.61172e-11)
(2.99947 3.88906e-05 -2.90785e-11)
(2.99884 0.000105633 -6.30499e-11)
(2.99691 0.000214842 -9.38218e-11)
(2.99339 0.000705046 -3.8008e-10)
(2.98096 0.0011431 -2.94046e-10)
(2.95882 0.00511213 -2.72337e-09)
(2.87614 0.00945961 -3.03773e-09)
(2.66035 0.0382161 -1.50751e-08)
(2.10824 0.0918174 -3.04311e-08)
(0.994794 0.273079 -5.15847e-08)
(0.467201 0.255573 5.7552e-09)
(0.571751 0.246504 1.42105e-09)
(0.608257 0.25707 -2.19256e-09)
(0.556945 0.270532 -2.26995e-09)
(0.471664 0.28917 -2.13433e-09)
(0.387831 0.309499 -1.97098e-09)
(0.315915 0.331838 -2.16276e-09)
(0.239491 0.355581 -2.15559e-09)
(0.146714 0.378525 -2.03267e-09)
(0.0606112 0.393462 -1.86308e-09)
(3 1.45008e-07 -3.74352e-13)
(2.99999 7.88726e-07 -2.0078e-12)
(2.99997 2.93789e-06 -4.38035e-12)
(2.99992 7.53176e-06 -9.11084e-12)
(2.99981 2.08224e-05 -1.69266e-11)
(2.99951 4.76066e-05 -3.1446e-11)
(2.99892 0.000125754 -6.56617e-11)
(2.99718 0.000274975 -1.23831e-10)
(2.99385 0.000777705 -3.34356e-10)
(2.98287 0.00149675 -5.01102e-10)
(2.96259 0.0053238 -2.2361e-09)
(2.88955 0.0101278 -3.05879e-09)
(2.70138 0.0390068 -1.35471e-08)
(2.21209 0.094928 -2.8569e-08)
(1.08285 0.290901 -5.404e-08)
(0.499618 0.300537 1.87206e-09)
(0.600404 0.297791 -2.10779e-10)
(0.638819 0.306651 -2.06353e-09)
(0.58828 0.320402 -2.05993e-09)
(0.50482 0.343076 -2.08277e-09)
(0.420572 0.36894 -1.82484e-09)
(0.347251 0.398036 -1.82556e-09)
(0.2683 0.430228 -1.78946e-09)
(0.169624 0.463529 -1.62941e-09)
(0.0722503 0.488506 -1.31209e-09)
(3 1.55705e-07 -3.66114e-13)
(2.99999 8.48295e-07 -1.97124e-12)
(2.99997 3.1509e-06 -4.25425e-12)
(2.99992 8.07096e-06 -8.82962e-12)
(2.99983 2.2216e-05 -1.60198e-11)
(2.99956 5.07362e-05 -2.94625e-11)
(2.99903 0.00013249 -5.91663e-11)
(2.99745 0.00029355 -1.10097e-10)
(2.99441 0.000779911 -2.72325e-10)
(2.98471 0.00167061 -4.919e-10)
(2.96616 0.00492949 -1.56766e-09)
(2.90243 0.0102887 -2.59907e-09)
(2.74005 0.0346958 -9.03239e-09)
(2.31178 0.0849695 -2.03998e-08)
(1.18723 0.260162 -3.26961e-08)
(0.556384 0.33432 -1.10556e-08)
(0.634932 0.353199 -4.51757e-09)
(0.670711 0.357765 -1.17711e-09)
(0.624521 0.371092 -1.6344e-09)
(0.546066 0.397978 -2.27085e-09)
(0.462942 0.430343 -2.1284e-09)
(0.38926 0.467679 -1.87869e-09)
(0.30911 0.510756 -1.71651e-09)
(0.205191 0.559824 -1.40466e-09)
(0.0923141 0.605839 -9.02569e-10)
(3 1.8528e-07 -3.58999e-13)
(2.99999 1.01307e-06 -1.93667e-12)
(2.99997 3.77325e-06 -4.15288e-12)
(2.99993 9.68839e-06 -8.6024e-12)
(2.99985 2.68011e-05 -1.54412e-11)
(2.99961 6.18573e-05 -2.82651e-11)
(2.99913 0.00015912 -5.62415e-11)
(2.99772 0.000373478 -1.04982e-10)
(2.995 0.000871551 -2.53477e-10)
(2.9863 0.00222689 -4.94128e-10)
(2.96989 0.00474327 -1.23607e-09)
(2.91301 0.0122476 -3.21271e-09)
(2.76963 0.0308779 -6.39204e-09)
(2.38473 0.0771235 -1.91923e-08)
(1.29777 0.223559 -2.92259e-08)
(0.61112 0.377454 -2.28348e-08)
(0.650571 0.410015 -1.08612e-08)
(0.682525 0.407456 2.42854e-09)
(0.653011 0.422692 -1.22359e-09)
(0.587602 0.451872 -2.06103e-09)
(0.511125 0.492266 -2.31261e-09)
(0.441124 0.539396 -2.02588e-09)
(0.364545 0.59597 -1.79898e-09)
(0.262269 0.669829 -1.30825e-09)
(0.129988 0.760573 -6.7258e-10)
(3 2.70381e-07 -3.63651e-13)
(2.99999 5.5609e-07 -1.93411e-12)
(2.99998 4.03675e-06 -4.15369e-12)
(2.99994 6.1241e-06 -8.78035e-12)
(2.99987 2.79623e-05 -1.52949e-11)
(2.99967 3.93799e-05 -2.86901e-11)
(2.99929 0.000168043 -5.54459e-11)
(2.99804 0.000221148 -1.09068e-10)
(2.99596 0.00101969 -2.36638e-10)
(2.98792 0.00105483 -4.90456e-10)
(2.97463 0.00673052 -1.31566e-09)
(2.92325 0.0047527 -2.65047e-09)
(2.79724 0.0432214 -6.41061e-09)
(2.45457 0.0577783 -1.50264e-08)
(1.44215 0.230778 -2.9473e-08)
(0.702169 0.434468 -2.72904e-08)
(0.659273 0.455361 -2.31207e-09)
(0.686699 0.450746 9.48291e-10)
(0.676481 0.47019 -1.04928e-09)
(0.627635 0.501859 -1.7189e-09)
(0.564291 0.550462 -2.49164e-09)
(0.503056 0.608251 -2.30758e-09)
(0.440151 0.684666 -1.93875e-09)
(0.357627 0.801802 -1.32758e-09)
(0.20149 1.00896 -6.41328e-10)
(3 1.57247e-08 -5.82678e-14)
(2.99998 8.53637e-08 -2.5969e-13)
(2.99996 3.18108e-07 -8.55955e-13)
(2.99989 8.15942e-07 -1.85199e-12)
(2.99975 2.25287e-06 -5.22218e-12)
(2.99936 5.18152e-06 -1.07657e-11)
(2.99859 1.33888e-05 -2.9355e-11)
(2.99617 3.0633e-05 -6.20536e-11)
(2.99199 7.65273e-05 -1.60261e-10)
(2.976 0.000172731 -3.37365e-10)
(2.94799 0.000467926 -9.49538e-10)
(2.84077 0.0010892 -2.06049e-09)
(2.55072 0.00300657 -4.72386e-09)
(1.84838 0.00795604 -1.29455e-08)
(0.825652 0.0225889 -1.6803e-08)
(0.476314 0.0222961 2.70564e-09)
(0.547693 0.0234952 3.67342e-10)
(0.567392 0.0256575 -8.09814e-10)
(0.515784 0.0276894 -6.87387e-10)
(0.426814 0.0295985 -4.5461e-10)
(0.340595 0.0320376 -5.14404e-10)
(0.270488 0.0350215 -6.55804e-10)
(0.200477 0.03818 -7.32407e-10)
(0.120529 0.0418541 -8.15373e-10)
(0.0529551 0.0472102 -9.09534e-10)
(3 4.68699e-08 -5.84975e-14)
(2.99998 2.541e-07 -2.60896e-13)
(2.99996 9.49319e-07 -8.60042e-13)
(2.99989 2.43458e-06 -1.86064e-12)
(2.99976 6.74978e-06 -5.25317e-12)
(2.99937 1.5546e-05 -1.08279e-11)
(2.99862 4.0358e-05 -2.95717e-11)
(2.99622 9.26571e-05 -6.25546e-11)
(2.99211 0.000232509 -1.61701e-10)
(2.97632 0.000526077 -3.40479e-10)
(2.94877 0.00144088 -9.6211e-10)
(2.84272 0.00335349 -2.08134e-09)
(2.557 0.00941454 -4.80693e-09)
(1.86286 0.0248842 -1.31438e-08)
(0.832707 0.0693659 -1.71251e-08)
(0.471125 0.0650087 2.83749e-09)
(0.544985 0.0656388 3.98409e-10)
(0.565341 0.069674 -8.10937e-10)
(0.513132 0.0732152 -6.94426e-10)
(0.423993 0.0763819 -4.64111e-10)
(0.337995 0.0804099 -5.02612e-10)
(0.267695 0.0850633 -6.21147e-10)
(0.19709 0.0893693 -6.87518e-10)
(0.116351 0.09361 -7.56095e-10)
(0.0489452 0.0981191 -8.32182e-10)
(3 7.12324e-08 -5.8886e-14)
(2.99998 3.8679e-07 -2.62935e-13)
(2.99996 1.44352e-06 -8.67101e-13)
(2.99989 3.69708e-06 -1.87819e-12)
(2.99976 1.02604e-05 -5.3144e-12)
(2.99939 2.34872e-05 -1.09797e-11)
(2.99866 6.20673e-05 -2.99825e-11)
(2.99633 0.000137896 -6.40933e-11)
(2.99236 0.000372778 -1.64401e-10)
(2.97699 0.000799547 -3.49693e-10)
(2.9504 0.00237728 -9.93815e-10)
(2.8469 0.00529898 -2.14038e-09)
(2.57068 0.0173018 -5.02417e-09)
(1.89494 0.0436745 -1.36541e-08)
(0.849612 0.122556 -1.81614e-08)
(0.463557 0.111999 3.11329e-09)
(0.543603 0.110623 5.40347e-10)
(0.566506 0.117103 -7.91275e-10)
(0.514364 0.123462 -6.93763e-10)
(0.426002 0.130013 -4.60542e-10)
(0.340976 0.1375 -4.33814e-10)
(0.270633 0.145719 -5.13251e-10)
(0.199207 0.153648 -5.64304e-10)
(0.117256 0.160956 -6.15889e-10)
(0.0482872 0.166653 -6.67722e-10)
(3 9.08013e-08 -5.04454e-14)
(2.99998 4.93575e-07 -2.26419e-13)
(2.99996 1.84171e-06 -7.423e-13)
(2.9999 4.71439e-06 -1.60389e-12)
(2.99977 1.31076e-05 -4.53082e-12)
(2.99941 2.98744e-05 -9.15614e-12)
(2.99871 8.02257e-05 -2.64706e-11)
(2.99648 0.000173433 -4.90677e-11)
(2.99267 0.00049977 -1.65906e-10)
(2.97796 0.0010246 -2.67883e-10)
(2.95262 0.00326579 -1.03324e-09)
(2.85411 0.00697221 -1.76359e-09)
(2.59292 0.0256618 -6.70792e-09)
(1.9472 0.0622806 -1.39559e-08)
(0.882487 0.176537 -2.02314e-08)
(0.459358 0.159073 3.64689e-09)
(0.547318 0.154705 8.77319e-10)
(0.573874 0.163523 -7.37826e-10)
(0.521795 0.172923 -6.69054e-10)
(0.434255 0.183536 -4.41317e-10)
(0.349934 0.194927 -3.34707e-10)
(0.279398 0.20717 -3.7781e-10)
(0.206848 0.219349 -4.10921e-10)
(0.122579 0.230465 -4.35504e-10)
(0.049956 0.237895 -4.57408e-10)
(3 1.01918e-07 -4.9085e-14)
(2.99998 5.58229e-07 -2.20415e-13)
(2.99996 2.07202e-06 -7.27344e-13)
(2.9999 5.28286e-06 -1.57347e-12)
(2.99979 1.46536e-05 -4.50712e-12)
(2.99944 3.30369e-05 -9.16084e-12)
(2.99878 9.06271e-05 -2.66911e-11)
(2.99668 0.000182742 -5.06894e-11)
(2.99307 0.000602944 -1.67563e-10)
(2.97926 0.00104645 -2.80411e-10)
(2.95549 0.0042703 -1.06701e-09)
(2.86397 0.0083077 -1.82873e-09)
(2.62276 0.0330639 -6.94221e-09)
(2.01798 0.0791583 -1.45949e-08)
(0.92878 0.228462 -2.25024e-08)
(0.457331 0.206717 3.85665e-09)
(0.555351 0.199155 1.11018e-09)
(0.587044 0.209591 -7.3237e-10)
(0.535364 0.221517 -6.79977e-10)
(0.448933 0.236172 -4.37787e-10)
(0.365046 0.251739 -2.3347e-10)
(0.293993 0.2686 -2.43792e-10)
(0.21972 0.285882 -2.43695e-10)
(0.131977 0.301798 -2.46368e-10)
(0.0539878 0.311778 -2.39953e-10)
(3 1.19948e-07 -4.20649e-14)
(2.99999 6.56889e-07 -1.90826e-13)
(2.99997 2.43653e-06 -6.21023e-13)
(2.99991 6.22107e-06 -1.32805e-12)
(2.9998 1.72016e-05 -3.78148e-12)
(2.99947 3.88906e-05 -7.47919e-12)
(2.99884 0.000105633 -2.29488e-11)
(2.99691 0.000214842 -3.49851e-11)
(2.99339 0.000705046 -1.71093e-10)
(2.98096 0.0011431 -1.34866e-10)