/*--------------------------------*- C++ -*----------------------------------*\
| =========                 |                                                 |
| \\      /  F ield         | OpenFOAM: The Open Source CFD Toolbox           |
|  \\    /   O peration     | Version:  4.1                                   |
|   \\  /    A nd           | Web:      www.OpenFOAM.org                      |
|    \\/     M anipulation  |                                                 |
\*---------------------------------------------------------------------------*/
FoamFile
{
    version     2.0;
    format      ascii;
    class       surfaceScalarField;
    location    "1.06";
    object      phi;
}
// * * * * * * * * * * * * * * * * * * * * * * * * * * * * * * * * * * * * * //

dimensions      [1 0 -1 0 0 0 0];

internalField   nonuniform List<scalar> 
150500
(
0.0168001
5.6066e-11
-3.21361e-12
0.0168001
2.97467e-10
-1.17971e-11
0.0168001
1.12305e-09
-1.37566e-11
0.0168
2.84292e-09
-2.15619e-11
0.0168
8.15454e-09
-2.21323e-11
0.0167999
1.85025e-08
-2.93634e-11
0.0167997
5.29408e-08
-3.11852e-11
0.0167993
1.07445e-07
-4.34697e-11
0.0167975
3.74234e-07
-5.17545e-11
0.0167957
6.4271e-07
-1.09208e-10
0.0167827
2.85814e-06
-1.18819e-10
0.0167689
5.44602e-06
-3.66816e-10
0.016693
2.37394e-05
-6.62902e-10
0.0165593
6.36026e-05
-2.24178e-09
0.0159734
0.00029055
-5.99791e-09
0.0136547
0.00139594
-1.78575e-08
0.0125287
0.00150992
6.96356e-09
0.011422
0.00122507
2.34668e-09
0.0102428
0.00121613
8.18041e-10
0.00893613
0.00132782
8.4849e-10
0.00745554
0.00151225
1.11489e-09
0.00581406
0.00170418
1.56633e-09
0.00394332
0.00185709
1.87122e-09
0.00196979
0.00194318
2.04658e-09
0.00213338
2.32307e-09
0.0168001
1.12641e-10
-3.21539e-12
0.0168001
5.9342e-10
-1.17944e-11
0.0168001
2.24091e-09
-1.3753e-11
0.0168
5.65193e-09
-2.15403e-11
0.0168
1.6279e-08
-2.20795e-11
0.0167999
3.68783e-08
-2.92459e-11
0.0167997
1.05869e-07
-3.09217e-11
0.0167993
2.16013e-07
-4.27571e-11
0.0167975
7.48745e-07
-5.09016e-11
0.0167957
1.29165e-06
-1.05647e-10
0.0167829
5.72073e-06
-1.16699e-10
0.0167693
1.09119e-05
-3.70382e-10
0.0166941
4.71159e-05
-6.07065e-10
0.0165614
0.000126791
-2.29827e-09
0.0159961
0.000564348
-5.87963e-09
0.0137888
0.00267764
-1.79427e-08
0.0126634
0.00301647
6.9126e-09
0.011579
0.00243563
2.54264e-09
0.0103822
0.00245618
9.52518e-10
0.00904491
0.00268833
9.36705e-10
0.00751374
0.00307505
1.10764e-09
0.00583216
0.00344644
1.50116e-09
0.0039291
0.00374382
1.79522e-09
0.0019292
0.00391287
1.98871e-09
0.00422465
2.2743e-09
0.0168001
1.60353e-10
-3.21962e-12
0.0168001
8.42156e-10
-1.17885e-11
0.0168001
3.16205e-09
-1.37464e-11
0.0168
7.9815e-09
-2.14987e-11
0.0168
2.29859e-08
-2.19773e-11
0.0168
5.21126e-08
-2.90257e-11
0.0167997
1.49758e-07
-3.04169e-11
0.0167994
3.09254e-07
-4.15012e-11
0.0167977
1.05593e-06
-4.91106e-11
0.0167961
1.84899e-06
-9.97804e-11
0.0167843
7.97973e-06
-1.12016e-10
0.0167717
1.54164e-05
-3.50943e-10
0.0167026
6.55761e-05
-5.9028e-10
0.0165828
0.000177422
-2.23364e-09
0.016085
0.000776464
-5.76273e-09
0.0141944
0.0036437
-1.8155e-08
0.0130855
0.00449603
6.72747e-09
0.0119598
0.00370162
2.86012e-09
0.0106968
0.00377071
1.17842e-09
0.00929876
0.00411315
1.07562e-09
0.00771458
0.00468979
1.08201e-09
0.00597791
0.00523904
1.36247e-09
0.00402518
0.00567687
1.63724e-09
0.00197787
0.0059255
1.86587e-09
0.00635934
2.18274e-09
0.0168001
2.00459e-10
-3.22696e-12
0.0168001
1.02315e-09
-1.17818e-11
0.0168001
3.81699e-09
-1.37319e-11
0.0168
9.75768e-09
-2.14332e-11
0.0168
2.79179e-08
-2.18042e-11
0.0168
6.3731e-08
-2.86624e-11
0.0167998
1.77891e-07
-2.95668e-11
0.0167995
3.78519e-07
-3.93455e-11
0.0167981
1.23747e-06
-4.62156e-11
0.016797
2.02271e-06
-8.88243e-11
0.0167866
9.51945e-06
-1.06516e-10
0.0167778
1.70662e-05
-3.15816e-10
0.0167168
7.74527e-05
-5.69539e-10
0.0166246
0.000202772
-2.08548e-09
0.016236
0.000889578
-5.48106e-09
0.0149105
0.00408865
-1.78275e-08
0.0138063
0.00593695
6.15013e-09
0.0125256
0.005123
2.95806e-09
0.0111468
0.00520106
1.33768e-09
0.00967012
0.00561493
1.17219e-09
0.00803938
0.00634822
9.81762e-10
0.00624575
0.00708386
1.16961e-09
0.00422152
0.00767875
1.42142e-09
0.00209235
0.00801264
1.67472e-09
0.00860002
2.03057e-09
0.0168001
3.09926e-10
-3.23495e-12
0.0168001
1.09557e-09
-1.17784e-11
0.0168001
4.59028e-09
-1.37117e-11
0.0168
1.16618e-08
-2.1366e-11
0.0168
3.26357e-08
-2.16079e-11
0.0168
7.42575e-08
-2.82438e-11
0.0167998
2.00248e-07
-2.84648e-11
0.0167996
4.36551e-07
-3.62766e-11
0.0167985
1.28389e-06
-4.26617e-11
0.0167973
2.44616e-06
-6.55202e-11
0.0167891
9.68279e-06
-1.08193e-10
0.0167836
1.68071e-05
-2.26437e-10
0.0167374
7.94455e-05
-5.59998e-10
0.0166784
0.000203189
-1.66611e-09
0.0164886
0.000873427
-4.80105e-09
0.0160105
0.00381151
-1.57388e-08
0.0147442
0.00738874
3.83497e-09
0.013124
0.00680731
2.00838e-09
0.0116178
0.00673674
1.20758e-09
0.0100959
0.00716045
1.10219e-09
0.00843389
0.00803993
8.84011e-10
0.00660171
0.0089635
9.62945e-10
0.00451346
0.00974746
1.18546e-09
0.00226436
0.0102114
1.4609e-09
0.0110023
1.82962e-09
0.0168001
3.55267e-10
-3.38966e-12
0.0168001
1.2448e-09
-1.14391e-11
0.0168001
5.2672e-09
-1.38605e-11
0.0168001
1.34178e-08
-2.13087e-11
0.0168
3.80138e-08
-2.16824e-11
0.0168
8.70213e-08
-2.78484e-11
0.0167998
2.34227e-07
-2.85417e-11
0.0167996
5.24003e-07
-3.51134e-11
0.0167988
1.41802e-06
-4.02666e-11
0.0167971
3.1606e-06
-5.64388e-11
0.0167929
8.93902e-06
-8.85446e-11
0.0167838
2.09871e-05
-1.76283e-10
0.0167712
6.28146e-05
-3.66639e-10
0.0167131
0.000206418
-1.24989e-09
0.0168957
0.000659872
-2.96931e-09
0.0171016
0.00291887
-1.16729e-08
0.0154008
0.00903393
1.49829e-09
0.0135481
0.00864325
8.80822e-10
0.0120311
0.00828236
1.05108e-09
0.0105571
0.00867576
1.00765e-09
0.00890618
0.00972618
8.05037e-10
0.00704609
0.0108661
7.75652e-10
0.0048806
0.0118805
9.65508e-10
0.00250348
0.012514
1.24082e-09
0.0136291
1.59045e-09
0.0168001
3.61991e-10
-3.58882e-12
0.0168001
1.38862e-09
-1.09811e-11
0.0168001
5.63808e-09
-1.40373e-11
0.0168001
1.44593e-08
-2.1247e-11
0.0168
3.98601e-08
-2.16882e-11
0.0168
9.08358e-08
-2.77275e-11
0.0167999
2.37929e-07
-2.82551e-11
0.0167998
5.25916e-07
-3.45935e-11
0.0167992
1.41967e-06
-3.82655e-11
0.0167987
2.95546e-06
-5.50507e-11
0.0167947
9.36394e-06
-6.53956e-11
0.0167913
1.81177e-05
-1.9068e-10
0.0167729
6.47356e-05
-1.40849e-10
0.016745
0.00018477
-1.19036e-09
0.0167652
0.0005825
-9.38414e-10
0.0166889
0.00257234
-7.1603e-09
0.0155165
0.0098359
-5.19686e-09
0.0137871
0.0102979
-8.8625e-10
0.0124462
0.00969313
1.3208e-09
0.0110308
0.0101488
1.14793e-09
0.00941737
0.0113685
6.17442e-10
0.00759036
0.0127266
6.09192e-10
0.00537415
0.0140721
7.94396e-10
0.00285435
0.0149538
1.02991e-09
0.0165914
1.32457e-09
0.0168001
4.04388e-10
-3.76257e-12
0.0168001
1.67453e-09
-1.05942e-11
0.0168001
6.68892e-09
-1.42126e-11
0.0168001
1.72089e-08
-2.12239e-11
0.0168
4.72896e-08
-2.17456e-11
0.0168
1.08181e-07
-2.77027e-11
0.0167999
2.81147e-07
-2.80531e-11
0.0167997
6.26109e-07
-3.39517e-11
0.016799
1.63965e-06
-3.64172e-11
0.0167979
3.5464e-06
-4.72121e-11
0.0167943
1.01132e-05
-6.44166e-11
0.0167887
2.07985e-05
-1.05113e-10
0.0167714
6.78745e-05
-2.07413e-10
0.0167443
0.000177774
-6.27743e-10
0.0166524
0.000624858
-1.07473e-09
0.0166174
0.00231367
-5.11804e-09
0.0154166
0.0106957
-5.572e-09
0.0143282
0.0113181
-1.93705e-09
0.0130311
0.01107
1.73196e-09
0.0115246
0.0117231
1.36622e-09
0.0100558
0.0128643
4.57251e-10
0.00829889
0.0145137
4.54428e-10
0.00607497
0.0162862
6.67215e-10
0.00340037
0.017563
8.34929e-10
0.0200869
1.03993e-09
0.0168001
5.05374e-10
-3.92043e-12
0.0168001
2.01627e-09
-1.02387e-11
0.0168001
8.64507e-09
-1.44053e-11
0.0168
2.14084e-08
-2.12592e-11
0.0168
5.97779e-08
-2.19113e-11
0.0168
1.3526e-07
-2.78679e-11
0.0167998
3.55897e-07
-2.8222e-11
0.0167996
7.83978e-07
-3.40633e-11
0.0167988
2.05979e-06
-3.61386e-11
0.0167975
4.40441e-06
-4.65074e-11
0.016793
1.20984e-05
-5.96888e-11
0.0167878
2.34748e-05
-1.07503e-10
0.016764
7.85304e-05
-1.60674e-10
0.0167517
0.00016916
-5.51004e-10
0.0166515
0.000673258
-8.96835e-10
0.0166118
0.00216083
-3.96364e-09
0.0156866
0.0112408
-6.01537e-09
0.014675
0.012308
-1.27157e-10
0.0134811
0.0122941
7.30045e-10
0.0121877
0.0130464
6.82856e-10
0.0108183
0.0142489
5.07634e-10
0.00921336
0.0161222
3.37851e-10
0.00723844
0.0182366
5.53586e-10
0.00442878
0.0202787
6.5269e-10
0.0245858
8.14491e-10
0.0168001
-4.10559e-12
5.44959e-10
0.0168001
-9.90817e-12
1.38172e-09
0.0168001
-1.48171e-11
1.28803e-08
0.0168001
-2.16189e-11
1.31092e-08
0.0168
-2.25394e-11
8.05375e-08
0.0168001
-2.88189e-11
8.38444e-08
0.0167999
-2.92174e-11
4.77948e-07
0.0168001
-3.5813e-11
4.65773e-07
0.0167988
-3.7721e-11
2.97239e-06
0.0168008
-5.01137e-11
2.04311e-06
0.0167904
-5.8811e-11
2.02056e-05
0.0168055
-1.05404e-10
6.12319e-06
0.0167287
-1.79605e-10
0.00014189
0.0168335
-4.28917e-10
5.0183e-05
0.0164626
-8.6836e-10
0.000986143
0.0166719
-2.98673e-09
0.00180627
0.0159904
-6.23394e-09
0.0114971
0.0149664
3.45287e-10
0.013336
0.0139211
4.73315e-10
0.0133618
0.0128989
3.93803e-10
0.0140816
0.0117422
3.75487e-10
0.0154141
0.010536
3.71076e-10
0.0173377
0.00877433
4.25913e-10
0.0199743
0.00604167
5.20519e-10
0.0229274
6.27718e-10
0.0306792
0.0168001
5.51679e-11
-5.07447e-16
0.0168001
2.97521e-10
-2.70498e-15
0.0168001
1.12444e-09
-6.01107e-15
0.0168
2.85474e-09
-1.24132e-14
0.0168
8.19098e-09
-2.4218e-14
0.0167999
1.8594e-08
-4.45744e-14
0.0167997
5.31566e-08
-1.05104e-13
0.0167993
1.07995e-07
-1.78298e-13
0.0167975
3.75179e-07
-6.4313e-13
0.0167957
6.45395e-07
-8.50666e-13
0.0167826
2.86173e-06
-4.72453e-12
0.016769
5.45452e-06
-6.81451e-12
0.0166927
2.37617e-05
-3.33224e-11
0.0165594
6.36422e-05
-7.88639e-11
0.015973
0.000290745
-2.78236e-10
0.0136532
0.00139688
-7.7218e-10
0.0125271
0.00151017
2.66352e-10
0.01142
0.00122534
8.21069e-11
0.0102407
0.0012161
2.68013e-11
0.0089342
0.00132763
3.07387e-11
0.00745383
0.00151197
4.47789e-11
0.00581268
0.00170387
6.67439e-11
0.00394234
0.0018568
7.52559e-11
0.0019693
0.00194287
6.2513e-11
0.0021331
7.03258e-11
0.0168001
1.10481e-10
-5.02817e-16
0.0168001
5.93556e-10
-2.68259e-15
0.0168001
2.2433e-09
-5.94433e-15
0.0168
5.67566e-09
-1.22696e-14
0.0168
1.63524e-08
-2.3861e-14
0.0167999
3.706e-08
-4.39164e-14
0.0167997
1.06303e-07
-1.0326e-13
0.0167993
2.17077e-07
-1.76622e-13
0.0167975
7.50752e-07
-6.28962e-13
0.0167957
1.29673e-06
-8.47306e-13
0.0167829
5.72902e-06
-4.61115e-12
0.0167692
1.09314e-05
-6.72759e-12
0.016694
4.71562e-05
-3.26719e-11
0.0165612
0.000126891
-7.79192e-11
0.0159956
0.00056474
-2.74717e-10
0.013787
0.00267963
-7.74449e-10
0.0126615
0.00301698
2.63275e-10
0.0115769
0.002436
9.00643e-11
0.0103802
0.002456
3.21896e-11
0.00904306
0.0026879
3.40844e-11
0.00751215
0.00307449
4.47444e-11
0.00583089
0.00344585
6.67001e-11
0.0039282
0.00374324
7.41177e-11
0.00192871
0.00391233
6.23313e-11
0.00422409
6.51972e-11
0.0168001
1.56519e-10
-4.92688e-16
0.0168001
8.39552e-10
-2.63549e-15
0.0168001
3.16782e-09
-5.79316e-15
0.0168
8.01783e-09
-1.19414e-14
0.0168
2.31023e-08
-2.29536e-14
0.0168
5.23901e-08
-4.21173e-14
0.0167997
1.50426e-07
-9.80757e-14
0.0167994
3.10968e-07
-1.68351e-13
0.0167977
1.05895e-06
-5.95276e-13
0.016796
1.85813e-06
-8.08241e-13
0.0167843
7.99194e-06
-4.38718e-12
0.0167717
1.5451e-05
-6.4675e-12
0.0167025
6.56333e-05
-3.14196e-11
0.0165825
0.000177602
-7.57133e-11
0.0160844
0.000777096
-2.67635e-10
0.0141919
0.00364717
-7.80403e-10
0.0130829
0.00449681
2.52846e-10
0.0119574
0.00370163
1.02175e-10
0.0106949
0.00377013
4.13557e-11
0.00929711
0.0041124
3.89106e-11
0.0077132
0.00468897
4.41535e-11
0.00597681
0.0052382
6.52677e-11
0.00402438
0.00567607
7.05157e-11
0.00197743
0.00592477
5.80388e-11
0.00635857
5.23199e-11
0.0168001
1.8829e-10
-4.81288e-16
0.0168001
1.00975e-09
-2.58573e-15
0.0168001
3.84362e-09
-5.58832e-15
0.0168
9.79905e-09
-1.14985e-14
0.0168
2.80359e-08
-2.13686e-14
0.0168
6.39862e-08
-3.87291e-14
0.0167998
1.78589e-07
-8.81436e-14
0.0167995
3.80342e-07
-1.48008e-13
0.0167981
1.24042e-06
-5.42247e-13
0.016797
2.03596e-06
-6.92061e-13
0.0167866
9.52832e-06
-4.0865e-12
0.0167777
1.71217e-05
-5.91132e-12
0.0167166
7.7509e-05
-2.95489e-11
0.0166243
0.000203081
-7.08481e-11
0.0162352
0.000890581
-2.52146e-10
0.0149068
0.00409461
-7.62422e-10
0.0138031
0.00593788
2.24714e-10
0.0125235
0.005122
1.04321e-10
0.0111452
0.00519995
4.80867e-11
0.00966885
0.00561386
4.41053e-11
0.00803832
0.00634721
4.00125e-11
0.00624488
0.00708288
6.12343e-11
0.00422085
0.00767781
6.2631e-11
0.00209198
0.00801178
5.0279e-11
0.0085991
4.36412e-11
0.0168001
2.26893e-10
-4.60949e-16
0.0168001
1.23098e-09
-2.49406e-15
0.0168001
4.5821e-09
-5.29169e-15
0.0168
1.17125e-08
-1.08709e-14
0.0168
3.26327e-08
-1.9613e-14
0.0168
7.44659e-08
-3.54218e-14
0.0167998
2.00304e-07
-7.72685e-14
0.0167996
4.37189e-07
-1.38714e-13
0.0167985
1.28551e-06
-4.62469e-13
0.0167973
2.45059e-06
-5.49765e-13
0.0167891
9.698e-06
-3.58043e-12
0.0167836
1.68362e-05
-4.70113e-12
0.0167373
7.95886e-05
-2.60202e-11
0.0166782
0.000203506
-5.86272e-11
0.0164872
0.000875136
-2.16076e-10
0.016006
0.00382029
-6.73356e-10
0.0147421
0.00738833
1.23576e-10
0.0131231
0.00680521
6.26389e-11
0.0116171
0.00673547
4.33554e-11
0.0100951
0.00715939
4.21175e-11
0.00843319
0.0080389
3.76953e-11
0.00660108
0.00896249
5.33747e-11
0.00451295
0.00974648
5.05144e-11
0.00226407
0.0102105
4.0578e-11
0.0110013
4.09465e-11
0.0168001
2.60438e-10
-4.5024e-16
0.0168001
1.39854e-09
-2.4779e-15
0.0168001
5.27958e-09
-5.17652e-15
0.0168001
1.34752e-08
-1.06471e-14
0.0168
3.80548e-08
-1.86458e-14
0.0168
8.71141e-08
-3.29268e-14
0.0167998
2.34458e-07
-6.71701e-14
0.0167996
5.24478e-07
-1.20292e-13
0.0167988
1.41946e-06
-3.33735e-13
0.0167971
3.1635e-06
-5.48586e-13
0.0167928
8.95064e-06
-2.37538e-12
0.0167838
2.1004e-05
-3.23107e-12
0.0167712
6.29245e-05
-1.73668e-11
0.0167131
0.0002066
-4.08893e-11
0.0168956
0.000661235
-1.39362e-10
0.0171008
0.00292353
-5.15021e-10
0.0154019
0.00903559
2.46537e-11
0.0135487
0.00864216
1.77515e-11
0.0120311
0.00828142
3.96204e-11
0.0105567
0.00867494
4.03959e-11
0.00890576
0.00972528
3.60728e-11
0.00704568
0.0108652
4.5523e-11
0.00488024
0.0118795
4.26013e-11
0.00250325
0.0125131
3.24927e-11
0.0136281
4.40633e-11
0.0168001
2.77088e-10
-4.32129e-16
0.0168001
1.51801e-09
-2.40751e-15
0.0168001
5.63925e-09
-4.93721e-15
0.0168001
1.4481e-08
-1.01643e-14
0.0168
3.9833e-08
-1.72338e-14
0.0168
9.07939e-08
-3.02594e-14
0.0167999
2.37916e-07
-5.8818e-14
0.0167998
5.2605e-07
-1.07239e-13
0.0167992
1.42042e-06
-2.68305e-13
0.0167987
2.95874e-06
-5.25623e-13
0.0167947
9.36802e-06
-1.52423e-12
0.0167912
1.81502e-05
-3.67327e-12
0.016773
6.47392e-05
-8.76022e-12
0.0167448
0.000185063
-3.67153e-11
0.0167661
0.00058275
-5.95927e-11
0.0166907
0.002575
-3.04234e-10
0.0155187
0.00983819
-2.69041e-10
0.0137883
0.0102979
-6.06192e-11
0.0124462
0.00969315
5.09397e-11
0.0110306
0.0101483
4.84153e-11
0.00941715
0.0113677
3.32442e-11
0.00759009
0.0127258
3.79569e-11
0.00537391
0.0140712
3.35745e-11
0.00285418
0.0149529
2.34814e-11
0.0165904
4.47978e-11
0.0168001
3.25767e-10
-4.27293e-16
0.0168001
1.78935e-09
-2.39956e-15
0.0168001
6.65904e-09
-4.87799e-15
0.0168001
1.71406e-08
-1.00745e-14
0.0168
4.70793e-08
-1.66497e-14
0.0168
1.07805e-07
-2.91173e-14
0.0167999
2.80557e-07
-5.3212e-14
0.0167997
6.25291e-07
-9.45271e-14
0.016799
1.63872e-06
-2.22382e-13
0.0167979
3.54573e-06
-3.82473e-13
0.0167943
1.01138e-05
-1.34272e-12
0.0167888
2.08014e-05
-1.87283e-12
0.0167714
6.78948e-05
-8.8381e-12
0.0167445
0.000177845
-2.24195e-11
0.0166526
0.000625043
-5.24003e-11
0.0166182
0.00231512
-2.28045e-10
0.0154177
0.0106973
-2.94426e-10
0.0143273
0.01132
-1.14118e-10
0.0130308
0.0110694
6.9115e-11
0.0115243
0.0117223
5.628e-11
0.0100557
0.0128639
3.16611e-11
0.00829874
0.0145131
2.95373e-11
0.00607483
0.0162854
2.66021e-11
0.0034003
0.0175621
1.45882e-11
0.0200859
4.42345e-11
0.0168001
4.56205e-10
-4.23742e-16
0.0168001
2.17885e-09
-2.3995e-15
0.0168001
8.38333e-09
-4.83792e-15
0.0168
2.10248e-08
-1.00056e-14
0.0168
5.90176e-08
-1.61934e-14
0.0168
1.34008e-07
-2.80755e-14
0.0167999
3.5417e-07
-4.96388e-14
0.0167996
7.8138e-07
-8.73023e-14
0.0167988
2.05641e-06
-2.01367e-13
0.0167975
4.39972e-06
-3.65625e-13
0.016793
1.20947e-05
-1.14208e-12
0.0167878
2.34705e-05
-2.03329e-12
0.0167641
7.85288e-05
-7.20243e-12
0.0167516
0.000169216
-1.85369e-11
0.0166516
0.000673367
-5.07463e-11
0.016612
0.00216182
-1.77704e-10
0.0156865
0.0112425
-3.30031e-10
0.014676
0.0123088
-2.42243e-11
0.0134813
0.0122942
2.21352e-11
0.0121875
0.013046
3.18378e-11
0.0108184
0.0142485
2.65221e-11
0.00921336
0.0161218
1.98038e-11
0.00723842
0.018236
2.86696e-11
0.00442873
0.020278
1.05067e-11
0.0245849
4.58736e-11
0.0168001
-4.28046e-16
7.71291e-10
0.0168001
-2.44598e-15
1.05904e-09
0.0168001
-4.95033e-15
1.11517e-08
0.0168001
-1.02853e-14
1.24563e-08
0.0168
-1.66716e-14
7.74969e-08
0.0168001
-2.95576e-14
8.21396e-08
0.0167999
-5.0993e-14
4.73507e-07
0.0168001
-9.16876e-14
4.62879e-07
0.0167988
-2.00429e-13
2.96554e-06
0.0168008
-3.77937e-13
2.04034e-06
0.0167904
-1.06199e-12
2.01967e-05
0.0168055
-1.93823e-12
6.12279e-06
0.0167286
-6.96985e-12
0.000141899
0.0168335
-1.57e-11
5.02088e-05
0.0164625
-4.88425e-11
0.000986236
0.0166722
-1.50445e-10
0.00180682
0.0159907
-3.56003e-10
0.0114986
0.0149669
4.29325e-12
0.0133364
0.0139215
1.4887e-11
0.013362
0.0128991
1.94025e-11
0.0140815
0.0117423
2.01232e-11
0.0154139
0.0105361
2.09667e-11
0.0173373
0.00877433
2.30596e-11
0.0199737
0.00604169
9.62313e-12
0.0229268
4.46839e-11
0.0306784
0.0168001
5.51703e-11
1.92638e-16
0.0168001
2.97534e-10
4.52637e-17
0.0168001
1.12448e-09
-1.55694e-16
0.0168
2.85486e-09
-3.32664e-16
0.0168
8.19129e-09
-1.10712e-15
0.0167999
1.85946e-08
-2.2363e-15
0.0167997
5.31583e-08
-7.7832e-15
0.0167993
1.07999e-07
-1.36246e-14
0.0167975
3.7519e-07
-6.13501e-14
0.0167957
6.45412e-07
-8.15204e-14
0.0167826
2.86181e-06
-5.02697e-13
0.016769
5.45466e-06
-7.54625e-13
0.0166927
2.37624e-05
-3.78828e-12
0.0165594
6.36439e-05
-9.50949e-12
0.0159729
0.000290755
-3.43032e-11
0.0136532
0.00139692
-1.02178e-10
0.012527
0.00151018
1.52967e-11
0.0114199
0.00122535
9.07669e-13
0.0102407
0.0012161
-4.32976e-12
0.00893415
0.00132762
-3.66739e-12
0.00745379
0.00151196
-2.73821e-12
0.00581265
0.00170386
9.83929e-13
0.00394235
0.00185678
-1.82906e-13
0.00196929
0.00194288
5.52435e-12
0.00213308
-7.58296e-12
0.0168001
1.10486e-10
1.91999e-16
0.0168001
5.93581e-10
5.66199e-17
0.0168001
2.2434e-09
-1.47376e-16
0.0168
5.6759e-09
-3.13999e-16
0.0168
1.6353e-08
-1.05791e-15
0.0167999
3.70615e-08
-2.13834e-15
0.0167997
1.06307e-07
-7.52958e-15
0.0167993
2.17085e-07
-1.31842e-14
0.0167975
7.50778e-07
-5.99011e-14
0.0167957
1.29678e-06
-7.97315e-14
0.0167829
5.7292e-06
-4.92637e-13
0.0167692
1.09318e-05
-7.41808e-13
0.016694
4.71576e-05
-3.72978e-12
0.0165612
0.000126895
-9.37776e-12
0.0159956
0.00056476
-3.38792e-11
0.0137869
0.00267972
-1.02102e-10
0.0126614
0.00301699
1.50156e-11
0.0115768
0.00243601
1.64005e-12
0.0103801
0.00245599
-4.14896e-12
0.00904302
0.00268787
-3.63061e-12
0.00751212
0.00307446
-2.80068e-12
0.00583087
0.00344582
1.0499e-12
0.00392821
0.00374322
-6.5905e-13
0.00192873
0.0039123
5.18126e-12
0.00422406
-8.19163e-12
0.0168001
1.56524e-10
1.89766e-16
0.0168001
8.39581e-10
7.67912e-17
0.0168001
3.16794e-09
-1.34576e-16
0.0168
8.01812e-09
-2.8487e-16
0.0168
2.31033e-08
-9.58518e-16
0.0168
5.23924e-08
-1.91708e-15
0.0167997
1.50433e-07
-6.89013e-15
0.0167994
3.10983e-07
-1.15199e-14
0.0167977
1.059e-06
-5.68579e-14
0.016796
1.85823e-06
-6.81074e-14
0.0167843
7.99222e-06
-4.79073e-13
0.0167717
1.54516e-05
-6.89513e-13
0.0167025
6.56356e-05
-3.63969e-12
0.0165825
0.000177608
-9.03874e-12
0.0160843
0.000777127
-3.30639e-11
0.0141918
0.00364732
-1.02176e-10
0.0130828
0.00449683
1.39664e-11
0.0119574
0.00370162
2.69342e-12
0.0106948
0.0037701
-4.05443e-12
0.00929707
0.00411236
-3.45649e-12
0.00771318
0.00468892
-3.42552e-12
0.0059768
0.00523816
9.6693e-13
0.0040244
0.00567604
-9.82699e-13
0.00197745
0.00592472
5.23811e-12
0.00635853
-6.6506e-12
0.0168001
1.88299e-10
1.85153e-16
0.0168001
1.00979e-09
9.26747e-17
0.0168001
3.84379e-09
-1.34304e-16
0.0168
9.79945e-09
-2.85157e-16
0.0168
2.80371e-08
-9.06432e-16
0.0168
6.39887e-08
-1.79405e-15
0.0167998
1.78597e-07
-6.34981e-15
0.0167995
3.80354e-07
-1.04369e-14
0.0167981
1.24048e-06
-5.31713e-14
0.016797
2.03605e-06
-5.86082e-14
0.0167866
9.52874e-06
-4.55244e-13
0.0167777
1.71226e-05
-6.3326e-13
0.0167166
7.75123e-05
-3.4634e-12
0.0166242
0.000203091
-8.50564e-12
0.0162352
0.000890629
-3.12721e-11
0.0149066
0.00409486
-9.92417e-11
0.013803
0.00593791
1.09504e-11
0.0125235
0.00512194
2.76123e-12
0.0111452
0.00519989
-4.41526e-12
0.00966883
0.00561381
-4.4779e-12
0.00803831
0.00634716
-3.70486e-12
0.00624488
0.00708283
5.89482e-13
0.00422087
0.00767778
-1.40072e-12
0.00209199
0.00801173
4.61788e-12
0.00859903
-5.33959e-12
0.0168001
2.26897e-10
1.79152e-16
0.0168001
1.23099e-09
1.26293e-16
0.0168001
4.58216e-09
-1.19039e-16
0.0168
1.17126e-08
-2.54073e-16
0.0168
3.26332e-08
-8.21343e-16
0.0168
7.44673e-08
-1.65787e-15
0.0167998
2.00308e-07
-5.73507e-15
0.0167996
4.372e-07
-1.07874e-14
0.0167985
1.28556e-06
-4.67392e-14
0.0167973
2.45064e-06
-4.99284e-14
0.0167891
9.69858e-06
-4.05865e-13
0.0167836
1.68371e-05
-5.21133e-13
0.0167373
7.95942e-05
-3.09049e-12
0.0166782
0.000203521
-7.19891e-12
0.0164871
0.000875209
-2.71292e-11
0.0160058
0.00382066
-8.83002e-11
0.014742
0.0073883
-4.67563e-13
0.0131231
0.00680511
-2.03038e-12
0.0116171
0.0067354
-5.58051e-12
0.0100951
0.00715934
-5.46702e-12
0.00843319
0.00803885
-4.45751e-12
0.00660108
0.00896244
-1.79429e-13
0.00451297
0.00974645
-2.7979e-12
0.00226406
0.0102104
3.88788e-12
0.0110012
-5.29074e-12
0.0168001
2.60446e-10
1.76655e-16
0.0168001
1.39857e-09
1.30973e-16
0.0168001
5.27972e-09
-1.16121e-16
0.0168001
1.34755e-08
-2.49894e-16
0.0168
3.80557e-08
-7.72377e-16
0.0168
8.71161e-08
-1.55758e-15
0.0167998
2.34464e-07
-4.9586e-15
0.0167996
5.24489e-07
-9.67462e-15
0.0167988
1.4195e-06
-3.41119e-14
0.0167971
3.16355e-06
-5.70423e-14
0.0167928
8.95105e-06
-2.76211e-13
0.0167838
2.10044e-05
-3.80418e-13
0.0167712
6.29288e-05
-2.12814e-12
0.0167131
0.000206607
-5.23898e-12
0.0168956
0.00066129
-1.80879e-11
0.0171008
0.00292373
-6.87349e-11
0.015402
0.00903564
-1.15514e-11
0.0135487
0.0086421
-7.48151e-12
0.0120311
0.00828137
-6.45526e-12
0.0105567
0.00867489
-6.04249e-12
0.00890577
0.00972524
-4.67982e-12
0.00704569
0.0108652
-1.25116e-12
0.00488026
0.0118795
-4.92152e-12
0.00250324
0.0125131
1.97507e-12
0.013628
-6.55091e-12
0.0168001
2.7709e-10
1.72608e-16
0.0168001
1.51801e-09
1.56588e-16
0.0168001
5.63927e-09
-9.21665e-17
0.0168001
1.44811e-08
-1.97869e-16
0.0168
3.98332e-08
-6.30676e-16
0.0168
9.07945e-08
-1.28948e-15
0.0167999
2.37918e-07
-4.15591e-15
0.0167998
5.26057e-07
-8.53565e-15
0.0167992
1.42044e-06
-2.76329e-14
0.0167987
2.9588e-06
-5.7615e-14
0.0167947
9.36817e-06
-1.80224e-13
0.0167912
1.81509e-05
-4.61138e-13
0.016773
6.474e-05
-1.09981e-12
0.0167448
0.000185071
-4.89292e-12
0.0167662
0.000582765
-8.17654e-12
0.0166908
0.0025751
-4.29123e-11
0.0155188
0.00983827
-4.61301e-11
0.0137884
0.0102979
-1.63012e-11
0.0124462
0.00969314
-5.3661e-12
0.0110306
0.0101483
-5.57537e-12
0.00941716
0.0113677
-6.71132e-12
0.0075901
0.0127258
-3.27828e-12
0.00537393
0.0140712
-5.27168e-12
0.00285417
0.0149529
1.27454e-12
0.0165903
-5.54737e-12
0.0168001
3.25767e-10
1.71904e-16
0.0168001
1.78935e-09
1.59512e-16
0.0168001
6.65903e-09
-8.58095e-17
0.0168001
1.71406e-08
-1.85629e-16
0.0168
4.70793e-08
-5.64303e-16
0.0168
1.07805e-07
-1.15724e-15
0.0167999
2.80558e-07
-3.51677e-15
0.0167997
6.25294e-07
-7.05563e-15
0.016799
1.63873e-06
-2.23689e-14
0.0167979
3.54575e-06
-3.94469e-14
0.0167943
1.01139e-05
-1.64059e-13
0.0167888
2.08015e-05
-2.19746e-13
0.0167714
6.78956e-05
-1.18199e-12
0.0167445
0.000177848
-2.99533e-12
0.0166526
0.000625047
-7.53651e-12
0.0166183
0.00231518
-3.32477e-11
0.0154177
0.0106973
-4.94181e-11
0.0143273
0.0113201
-2.56072e-11
0.0130308
0.0110693
-2.64936e-12
0.0115243
0.0117223
-4.58575e-12
0.0100557
0.0128638
-7.56731e-12
0.00829875
0.0145131
-4.93053e-12
0.00607484
0.0162854
-5.8836e-12
0.00340028
0.0175621
-1.10102e-12
0.0200858
-6.20452e-12
0.0168001
4.56198e-10
1.71147e-16
0.0168001
2.17884e-09
1.60724e-16
0.0168001
8.38325e-09
-8.12804e-17
0.0168
2.10246e-08
-1.75796e-16
0.0168
5.90172e-08
-5.11904e-16
0.0168
1.34008e-07
-1.03897e-15
0.0167999
3.54169e-07
-3.11013e-15
0.0167996
7.81378e-07
-6.22865e-15
0.0167988
2.05641e-06
-1.99768e-14
0.0167975
4.39972e-06
-3.73831e-14
0.016793
1.20947e-05
-1.41671e-13
0.0167878
2.34705e-05
-2.3742e-13
0.0167641
7.85293e-05
-1.00363e-12
0.0167516
0.000169218
-2.4771e-12
0.0166516
0.000673372
-7.52289e-12
0.016612
0.00216186
-2.64953e-11
0.0156865
0.0112426
-5.43431e-11
0.014676
0.0123088
-1.76498e-11
0.0134813
0.0122941
-8.11475e-12
0.0121875
0.013046
-7.93121e-12
0.0108184
0.0142485
-8.04296e-12
0.00921337
0.0161217
-7.47963e-12
0.00723844
0.0182359
-5.64153e-12
0.00442871
0.020278
-4.46639e-12
0.0245848
-7.20052e-12
0.0168001
1.71804e-16
7.71255e-10
0.0168001
1.57153e-16
1.05905e-09
0.0168001
-8.17683e-17
1.11514e-08
0.0168001
-1.77355e-16
1.24561e-08
0.0168
-5.2384e-16
7.74961e-08
0.0168001
-1.07827e-15
8.21394e-08
0.0167999
-3.18507e-15
4.73507e-07
0.0168001
-6.47337e-15
4.6288e-07
0.0167988
-1.96365e-14
2.96556e-06
0.0168008
-3.89969e-14
2.04034e-06
0.0167904
-1.30504e-13
2.01969e-05
0.0168055
-2.36252e-13
6.12272e-06
0.0167286
-9.51349e-13
0.0001419
0.0168335
-2.16491e-12
5.02087e-05
0.0164625
-7.1875e-12
0.000986242
0.0166722
-2.26552e-11
0.00180683
0.0159907
-5.75007e-11
0.0114987
0.014967
-9.84985e-12
0.0133364
0.0139215
-8.38077e-12
0.013362
0.0128991
-9.28749e-12
0.0140815
0.0117423
-8.90434e-12
0.0154139
0.0105361
-7.86813e-12
0.0173373
0.00877434
-6.75323e-12
0.0199737
0.00604166
-5.77069e-12
0.0229268
-6.72589e-12
0.0306782
0.0168001
5.51705e-11
-3.39175e-16
0.0168001
2.97535e-10
-1.14737e-15
0.0168001
1.12449e-09
-3.38759e-15
0.0168
2.85487e-09
-6.94401e-15
0.0168
8.19132e-09
-2.02239e-14
0.0167999
1.85947e-08
-4.05359e-14
0.0167997
5.31585e-08
-1.25576e-13
0.0167993
1.07999e-07
-2.23819e-13
0.0167975
3.75191e-07
-8.80637e-13
0.0167957
6.45415e-07
-1.19619e-12
0.0167826
2.86182e-06
-6.59208e-12
0.016769
5.45468e-06
-9.43554e-12
0.0166927
2.37625e-05
-4.6097e-11
0.0165594
6.36441e-05
-1.05186e-10
0.0159729
0.000290756
-3.73479e-10
0.0136531
0.00139693
-1.00398e-09
0.012527
0.00151018
4.58955e-10
0.0114199
0.00122535
1.55066e-10
0.0102407
0.0012161
5.13419e-11
0.00893414
0.00132762
4.9229e-11
0.00745379
0.00151196
6.61554e-11
0.00581266
0.00170386
9.43132e-11
0.00394235
0.00185678
1.18314e-10
0.0019693
0.00194286
1.26403e-10
0.00213309
1.62187e-10
0.0168001
1.10486e-10
-3.28911e-16
0.0168001
5.93582e-10
-1.109e-15
0.0168001
2.2434e-09
-3.28117e-15
0.0168
5.67591e-09
-6.71793e-15
0.0168
1.63531e-08
-1.96647e-14
0.0167999
3.70616e-08
-3.94897e-14
0.0167997
1.06308e-07
-1.22649e-13
0.0167993
2.17086e-07
-2.20858e-13
0.0167975
7.5078e-07
-8.58262e-13
0.0167957
1.29679e-06
-1.18818e-12
0.0167829
5.72921e-06
-6.41396e-12
0.0167692
1.09318e-05
-9.2908e-12
0.016694
4.71578e-05
-4.50603e-11
0.0165612
0.000126895
-1.03764e-10
0.0159956
0.000564762
-3.67952e-10
0.0137869
0.00267973
-1.00621e-09
0.0126614
0.00301699
4.53456e-10
0.0115768
0.00243601
1.67278e-10
0.0103801
0.00245599
6.05591e-11
0.00904301
0.00268787
5.54635e-11
0.00751212
0.00307446
6.65718e-11
0.00583087
0.00344582
8.9755e-11
0.00392822
0.00374322
1.13515e-10
0.00192873
0.00391229
1.22735e-10
0.00422408
1.57928e-10
0.0168001
1.56523e-10
-3.05146e-16
0.0168001
8.3958e-10
-1.02281e-15
0.0168001
3.16793e-09
-3.03784e-15
0.0168
8.01812e-09
-6.20126e-15
0.0168
2.31033e-08
-1.83262e-14
0.0168
5.23924e-08
-3.69235e-14
0.0167997
1.50433e-07
-1.15229e-13
0.0167994
3.10983e-07
-2.11575e-13
0.0167977
1.059e-06
-8.04473e-13
0.016796
1.85824e-06
-1.16128e-12
0.0167843
7.99224e-06
-6.02179e-12
0.0167717
1.54517e-05
-9.0014e-12
0.0167025
6.56358e-05
-4.28906e-11
0.0165825
0.000177609
-1.00774e-10
0.0160843
0.00077713
-3.56701e-10
0.0141918
0.00364734
-1.01303e-09
0.0130828
0.00449683
4.37492e-10
0.0119573
0.00370162
1.86309e-10
0.0106948
0.00377009
7.68827e-11
0.00929707
0.00411235
6.52601e-11
0.00771317
0.00468892
6.66275e-11
0.0059768
0.00523816
8.0344e-11
0.0040244
0.00567604
1.03352e-10
0.00197745
0.00592471
1.14765e-10
0.00635854
1.48233e-10
0.0168001
1.883e-10
-2.69242e-16
0.0168001
1.0098e-09
-8.99837e-16
0.0168001
3.8438e-09
-2.61209e-15
0.0168
9.79947e-09
-5.28261e-15
0.0168
2.80372e-08
-1.53409e-14
0.0168
6.39889e-08
-3.05442e-14
0.0167998
1.78598e-07
-9.75265e-14
0.0167995
3.80355e-07
-1.74326e-13
0.0167981
1.24048e-06
-7.14735e-13
0.016797
2.03605e-06
-9.67456e-13
0.0167866
9.52877e-06
-5.52591e-12
0.0167777
1.71227e-05
-8.15286e-12
0.0167166
7.75126e-05
-3.99171e-11
0.0166242
0.000203092
-9.35829e-11
0.0162352
0.000890634
-3.33853e-10
0.0149066
0.00409489
-9.87216e-10
0.013803
0.00593791
3.96563e-10
0.0125234
0.00512194
1.9023e-10
0.0111452
0.00519989
9.03413e-11
0.00966882
0.0056138
7.64772e-11
0.0080383
0.00634715
5.94642e-11
0.00624488
0.00708283
6.84938e-11
0.00422088
0.00767778
8.94651e-11
0.00209198
0.00801171
1.02329e-10
0.00859905
1.35531e-10
0.0168001
2.26897e-10
-2.1638e-16
0.0168001
1.23099e-09
-7.15244e-16
0.0168001
4.58216e-09
-2.07024e-15
0.0168
1.17126e-08
-4.13398e-15
0.0168
3.26332e-08
-1.21365e-14
0.0168
7.44674e-08
-2.42091e-14
0.0167998
2.00309e-07
-7.80488e-14
0.0167996
4.372e-07
-1.48737e-13
0.0167985
1.28557e-06
-5.89801e-13
0.0167973
2.45064e-06
-6.84665e-13
0.0167891
9.69863e-06
-4.80904e-12
0.0167836
1.68372e-05
-6.15519e-12
0.0167373
7.95948e-05
-3.49867e-11
0.0166782
0.000203522
-7.55629e-11
0.0164871
0.000875217
-2.83124e-10
0.0160058
0.0038207
-8.61178e-10
0.014742
0.0073883
2.47462e-10
0.0131231
0.0068051
1.28156e-10
0.0116171
0.0067354
8.51961e-11
0.0100951
0.00715933
7.53141e-11
0.00843318
0.00803885
5.52288e-11
0.00660108
0.00896244
5.67899e-11
0.00451297
0.00974645
7.5537e-11