/*--------------------------------*- C++ -*----------------------------------*\
| =========                 |                                                 |
| \\      /  F ield         | OpenFOAM: The Open Source CFD Toolbox           |
|  \\    /   O peration     | Version:  4.1                                   |
|   \\  /    A nd           | Web:      www.OpenFOAM.org                      |
|    \\/     M anipulation  |                                                 |
\*---------------------------------------------------------------------------*/
FoamFile
{
    version     2.0;
    format      ascii;
    class       volScalarField;
    location    "0.98";
    object      Ma;
}
// * * * * * * * * * * * * * * * * * * * * * * * * * * * * * * * * * * * * * //

dimensions      [0 0 0 0 0 0 0];

internalField   nonuniform List<scalar> 
18000
(
5.05435e-12
4.9994e-12
4.93238e-12
4.87828e-12
4.82438e-12
4.77123e-12
4.7185e-12
4.66696e-12
4.61618e-12
4.56735e-12
6.27685e-12
6.06428e-12
5.84758e-12
5.64927e-12
5.45944e-12
5.27707e-12
5.10183e-12
4.93388e-12
4.77186e-12
4.62075e-12
7.88228e-12
7.42196e-12
6.98055e-12
6.57717e-12
6.20107e-12
5.85085e-12
5.52515e-12
5.22016e-12
4.93599e-12
4.67528e-12
1.0016e-11
9.16712e-12
8.39276e-12
7.69608e-12
7.06916e-12
6.50335e-12
5.9913e-12
5.52756e-12
5.10651e-12
4.73077e-12
1.28912e-11
1.14347e-11
1.01641e-11
9.05467e-12
8.0896e-12
7.2461e-12
6.50685e-12
5.85751e-12
5.28472e-12
4.78749e-12
1.68192e-11
1.44146e-11
1.2408e-11
1.07148e-11
9.2939e-12
8.09444e-12
7.07784e-12
6.21214e-12
5.47056e-12
4.84512e-12
2.22539e-11
1.83862e-11
1.52749e-11
1.27575e-11
1.07229e-11
9.06723e-12
7.711e-12
6.59287e-12
5.66508e-12
4.90368e-12
3.01358e-11
2.40771e-11
1.93962e-11
1.57862e-11
1.3001e-11
1.08353e-11
9.13857e-12
7.8002e-12
6.73632e-12
5.9373e-12
6.25974e-09
6.46833e-09
6.11488e-09
5.78876e-09
5.49185e-09
5.22118e-09
4.97389e-09
4.74744e-09
4.54034e-09
4.4837e-09
7.06156e-07
7.31786e-08
6.26438e-08
5.50339e-08
4.85825e-08
4.30948e-08
3.84133e-08
3.44106e-08
3.08653e-08
1.29383e-07
5.50027e-12
5.43649e-12
5.36491e-12
5.30255e-12
5.24137e-12
5.18136e-12
5.12103e-12
5.06301e-12
5.00555e-12
4.94965e-12
6.89723e-12
6.65082e-12
6.40979e-12
6.18188e-12
5.96441e-12
5.75566e-12
5.55679e-12
5.36586e-12
5.18311e-12
5.01036e-12
8.75012e-12
8.21106e-12
7.71376e-12
7.246e-12
6.81314e-12
6.41144e-12
6.03965e-12
5.69301e-12
5.37038e-12
5.07362e-12
1.12532e-11
1.02506e-11
9.36103e-12
8.54623e-12
7.81776e-12
7.16434e-12
6.57705e-12
6.04781e-12
5.56824e-12
5.13719e-12
1.4691e-11
1.2949e-11
1.14601e-11
1.01463e-11
9.01285e-12
8.031e-12
7.17672e-12
6.43112e-12
5.77707e-12
5.20381e-12
1.94974e-11
1.65677e-11
1.41648e-11
1.21289e-11
1.04406e-11
9.0308e-12
7.84771e-12
6.84811e-12
5.99847e-12
5.27272e-12
2.63328e-11
2.15059e-11
1.76892e-11
1.46068e-11
1.21571e-11
1.01903e-11
8.59846e-12
7.30069e-12
6.23178e-12
5.3436e-12
3.63071e-11
2.83481e-11
2.23412e-11
1.77381e-11
1.42414e-11
1.15493e-11
9.45389e-12
7.8041e-12
6.48995e-12
5.42942e-12
2.91319e-10
6.88177e-10
5.71505e-10
4.75274e-10
3.99308e-10
3.38483e-10
2.89283e-10
2.49111e-10
2.16089e-10
1.9289e-10
5.04491e-07
7.22853e-08
6.34593e-08
5.59108e-08
4.96012e-08
4.42838e-08
3.97664e-08
3.59004e-08
3.25861e-08
3.1773e-08
6.00065e-13
5.79676e-13
4.7866e-13
4.63927e-13
4.5009e-13
4.37428e-13
4.25754e-13
4.15595e-13
4.06192e-13
3.96088e-13
8.31185e-13
7.61868e-13
6.93774e-13
6.41766e-13
5.94262e-13
5.51805e-13
5.13183e-13
4.79145e-13
4.50286e-13
4.09664e-13
1.07966e-12
9.57148e-13
9.17199e-13
8.25697e-13
7.43736e-13
6.71532e-13
6.08968e-13
5.54948e-13
5.06091e-13
4.28293e-13
1.48346e-12
1.29853e-12
1.25209e-12
1.09375e-12
9.56401e-13
8.39978e-13
7.41407e-13
6.57751e-13
5.84235e-13
4.5381e-13
2.12159e-12
1.84365e-12
1.73172e-12
1.46417e-12
1.24039e-12
1.05784e-12
9.07782e-13
7.84094e-13
6.78026e-13
4.86319e-13
3.14027e-12
2.69923e-12
2.41858e-12
1.96982e-12
1.61394e-12
1.33381e-12
1.11207e-12
9.3505e-13
7.86703e-13
5.24752e-13
4.78856e-12
4.03049e-12
3.40825e-12
2.66336e-12
2.10258e-12
1.68043e-12
1.35843e-12
1.11058e-12
9.10301e-13
5.6944e-13
7.63201e-12
6.12322e-12
4.84809e-12
3.61874e-12
2.74356e-12
2.11461e-12
1.65475e-12
1.31324e-12
1.04839e-12
6.19309e-13
4.61459e-10
3.45185e-11
2.78474e-11
2.03039e-11
1.51166e-11
1.14606e-11
8.83462e-12
6.91744e-12
5.49678e-12
4.39721e-12
4.31578e-07
7.9297e-09
5.89917e-09
4.55623e-09
3.5724e-09
2.83854e-09
2.28282e-09
1.85622e-09
1.5256e-09
1.31189e-09
3.82132e-13
3.59703e-13
1.72289e-13
1.51958e-13
1.31669e-13
1.12609e-13
9.47938e-14
7.8389e-14
6.39589e-14
3.87668e-14
5.30856e-13
4.59602e-13
3.8606e-13
3.36595e-13
2.89948e-13
2.48314e-13
2.11604e-13
1.79815e-13
1.53177e-13
8.0234e-14
5.95933e-13
4.90626e-13
5.23774e-13
4.56892e-13
3.96481e-13
3.45118e-13
3.0247e-13
2.68459e-13
2.39222e-13
1.19885e-13
7.31944e-13
6.37994e-13
7.61145e-13
6.59866e-13
5.70438e-13
4.96602e-13
4.35843e-13
3.86533e-13
3.43228e-13
1.71135e-13
9.64889e-13
9.48998e-13
1.10902e-12
9.44987e-13
8.04749e-13
6.90647e-13
5.97893e-13
5.22664e-13
4.56345e-13
2.24306e-13
1.35729e-12
1.49345e-12
1.61326e-12
1.33932e-12
1.11301e-12
9.34318e-13
7.91462e-13
6.77985e-13
5.79361e-13
2.80732e-13
2.00955e-12
2.37429e-12
2.34473e-12
1.88168e-12
1.51721e-12
1.23867e-12
1.02217e-12
8.5363e-13
7.12337e-13
3.40396e-13
3.34067e-12
3.78106e-12
3.40917e-12
2.62949e-12
2.04637e-12
1.61811e-12
1.29664e-12
1.05275e-12
8.56361e-13
4.03207e-13
5.26175e-10
8.29488e-12
4.76975e-12
3.54584e-12
2.67757e-12
2.05916e-12
1.60781e-12
1.27454e-12
1.01346e-12
4.75398e-13
4.28053e-07
2.5448e-09
2.90524e-10
1.9489e-10
1.34188e-10
9.43763e-11
6.7655e-11
4.9356e-11
3.66205e-11
2.79529e-11
3.81611e-13
3.58731e-13
1.71734e-13
1.51227e-13
1.30826e-13
1.11673e-13
9.41343e-14
7.76507e-14
6.27357e-14
3.6923e-14
5.3032e-13
4.59053e-13
3.85726e-13
3.36416e-13
2.89792e-13
2.47832e-13
2.11099e-13
1.79662e-13
1.52712e-13
7.91361e-14
5.94965e-13
4.89744e-13
5.23712e-13
4.56873e-13
3.96173e-13
3.44946e-13
3.02241e-13
2.67968e-13
2.38606e-13
1.19041e-13
7.29918e-13
6.36766e-13
7.61013e-13
6.59912e-13
5.70486e-13
4.96591e-13
4.3592e-13
3.8653e-13
3.43081e-13
1.69988e-13
9.60187e-13
9.47165e-13
1.10963e-12
9.45489e-13
8.05267e-13
6.9144e-13
5.98105e-13
5.22336e-13
4.56405e-13
2.23969e-13
1.34613e-12
1.49095e-12
1.61372e-12
1.34075e-12
1.11432e-12
9.35636e-13
7.9272e-13
6.78679e-13
5.80031e-13
2.80597e-13
1.98438e-12
2.37109e-12
2.34695e-12
1.88446e-12
1.52027e-12
1.2415e-12
1.02444e-12
8.55331e-13
7.1418e-13
3.41057e-13
3.30965e-12
3.77724e-12
3.41396e-12
2.6353e-12
2.05216e-12
1.62342e-12
1.30106e-12
1.05644e-12
8.59334e-13
4.04912e-13
5.62026e-10
9.72797e-12
4.99261e-12
3.67137e-12
2.74939e-12
2.09928e-12
1.62921e-12
1.28484e-12
1.01735e-12
4.71954e-13
4.54862e-07
2.78867e-09
2.45838e-11
8.41697e-12
5.45904e-12
3.71918e-12
2.62466e-12
1.91134e-12
1.41791e-12
7.4913e-13
3.81651e-13
3.58385e-13
1.72221e-13
1.51759e-13
1.31153e-13
1.11881e-13
9.41284e-14
7.79729e-14
6.3164e-14
3.68156e-14
5.31205e-13
4.59502e-13
3.86914e-13
3.37432e-13
2.90736e-13
2.48537e-13
2.11487e-13
1.79872e-13
1.53326e-13
7.9715e-14
5.96829e-13
4.91523e-13
5.26081e-13
4.58725e-13
3.97929e-13
3.46164e-13
3.03134e-13
2.68614e-13
2.39113e-13
1.19615e-13
7.33745e-13
6.40779e-13
7.64891e-13
6.63014e-13
5.73049e-13
4.98482e-13
4.37201e-13
3.87707e-13
3.43782e-13
1.70426e-13
9.67503e-13
9.54586e-13
1.11576e-12
9.50504e-13
8.0919e-13
6.94777e-13
6.0078e-13
5.2446e-13
4.57847e-13
2.24892e-13
1.35962e-12
1.50418e-12
1.6244e-12
1.34887e-12
1.12061e-12
9.40909e-13
7.96942e-13
6.81632e-13
5.82531e-13
2.82261e-13
2.00927e-12
2.39385e-12
2.36512e-12
1.89828e-12
1.53087e-12
1.25008e-12
1.03115e-12
8.6048e-13
7.18034e-13
3.43722e-13
3.36507e-12
3.81814e-12
3.44533e-12
2.6585e-12
2.06952e-12
1.63689e-12
1.31179e-12
1.06455e-12
8.6533e-13
4.08826e-13
5.98255e-10
1.01938e-11
5.05771e-12
3.71445e-12
2.77979e-12
2.12155e-12
1.64569e-12
1.29698e-12
1.02656e-12
4.78109e-13
4.95087e-07
2.99718e-09
2.36127e-11
5.20993e-12
3.70517e-12
2.72849e-12
2.04963e-12
1.56857e-12
1.20795e-12
5.59447e-13
3.81566e-13
3.58119e-13
1.72749e-13
1.52398e-13
1.31744e-13
1.12497e-13
9.46304e-14
7.83243e-14
6.55559e-14
6.16529e-14
5.32171e-13
4.60089e-13
3.88568e-13
3.38693e-13
2.91842e-13
2.49617e-13
2.12461e-13
1.80579e-13
1.53937e-13
8.76846e-14
5.99044e-13
4.93529e-13
5.28732e-13
4.61102e-13
3.99807e-13
3.47746e-13
3.04186e-13
2.69525e-13
2.40241e-13
1.23657e-13
7.382e-13
6.45295e-13
7.69077e-13
6.66723e-13
5.76197e-13
5.01094e-13
4.39036e-13
3.88879e-13
3.4546e-13
1.73627e-13
9.75992e-13
9.63001e-13
1.12264e-12
9.56149e-13
8.13751e-13
6.98784e-13
6.04203e-13
5.27111e-13
4.60084e-13
2.28172e-13
1.37562e-12
1.51863e-12
1.63627e-12
1.3585e-12
1.12802e-12
9.47131e-13
8.02452e-13
6.85976e-13
5.85778e-13
2.86169e-13
2.03836e-12
2.41902e-12
2.38487e-12
1.914e-12
1.54306e-12
1.26014e-12
1.03957e-12
8.67232e-13
7.23339e-13
3.48748e-13
3.38621e-12
3.86196e-12
3.47965e-12
2.68451e-12
2.08937e-12
1.65233e-12
1.32485e-12
1.07541e-12
8.73547e-13
4.15306e-13
5.93865e-10
9.76464e-12
5.11454e-12
3.75851e-12
2.81244e-12
2.14651e-12
1.66588e-12
1.31225e-12
1.03865e-12
4.87348e-13
5.13411e-07
2.89275e-09
2.13669e-11
5.24084e-12
3.744e-12
2.7599e-12
2.07565e-12
1.58857e-12
1.22379e-12
5.70607e-13
3.815e-13
3.56917e-13
1.72829e-13
1.52596e-13
1.32906e-13
1.16886e-13
1.11226e-13
2.25254e-13
8.12017e-13
2.11576e-12
5.32263e-13
4.59295e-13
3.88876e-13
3.3931e-13
2.93041e-13
2.52333e-13
2.19364e-13
2.29419e-13
5.08083e-13
1.39548e-12
5.9955e-13
4.93019e-13
5.29169e-13
4.61698e-13
4.01075e-13
3.50525e-13
3.10595e-13
2.91207e-13
4.02185e-13
9.31863e-13
7.39511e-13
6.44781e-13
7.69438e-13
6.67388e-13
5.77365e-13
5.03628e-13
4.45464e-13
4.02928e-13
4.21774e-13
6.68446e-13
9.77971e-13
9.61983e-13
1.12248e-12
9.56604e-13
8.15046e-13
7.00988e-13
6.10079e-13
5.39475e-13
5.04922e-13
5.29285e-13
1.37737e-12
1.51639e-12
1.63526e-12
1.35884e-12
1.12962e-12
9.50323e-13
8.09361e-13
6.99532e-13
6.18664e-13
4.73722e-13
2.0382e-12
2.41474e-12
2.38285e-12
1.91446e-12
1.54539e-12
1.26474e-12
1.04779e-12
8.81564e-13
7.51756e-13
4.729e-13
3.20649e-12
3.853e-12
3.47672e-12
2.68599e-12
2.0935e-12
1.65842e-12
1.33393e-12
1.09194e-12
9.01841e-13
5.04534e-13
3.75166e-10
7.04747e-12
5.09432e-12
3.76188e-12
2.8191e-12
2.15563e-12
1.67885e-12
1.33253e-12
1.06713e-12
5.57024e-13
3.88145e-07
1.34954e-09
1.07849e-11
5.18716e-12
3.75081e-12
2.77179e-12
2.09238e-12
1.61273e-12
1.2544e-12
6.30056e-13
4.1778e-13
4.58557e-13
2.5724e-13
1.55054e-13
2.69603e-13
7.64312e-13
1.79602e-12
7.24362e-12
2.72552e-11
5.62446e-11
6.02134e-13
6.38159e-13
5.01964e-13
3.68248e-13
3.07809e-13
6.49244e-13
1.35609e-12
4.52712e-12
1.63672e-11
3.74044e-11
7.36007e-13
8.0659e-13
7.12918e-13
5.42951e-13
3.93407e-13
5.3509e-13
1.15773e-12
3.08721e-12
1.05478e-11
2.4953e-11
9.66172e-13
1.09618e-12
1.02169e-12
8.01411e-13
5.91344e-13
5.44694e-13
1.06078e-12
2.30294e-12
7.27907e-12
1.71694e-11
1.33076e-12
1.54156e-12
1.44379e-12
1.14335e-12
8.66511e-13
6.84361e-13
9.44991e-13
1.93056e-12
5.32647e-12
1.2175e-11
1.89989e-12
2.21757e-12
2.02707e-12
1.59366e-12
1.21625e-12
9.28388e-13
9.4629e-13
1.7576e-12
4.09451e-12
8.87536e-12
2.78058e-12
3.2495e-12
2.84437e-12
2.192e-12
1.66198e-12
1.25127e-12
1.06924e-12
1.56284e-12
3.28371e-12
6.63473e-12
4.03499e-12
4.82498e-12
4.00321e-12
2.99531e-12
2.22906e-12
1.65574e-12
1.30113e-12
1.47837e-12
2.73244e-12
5.07653e-12
2.92428e-10
7.0865e-12
5.65751e-12
4.08921e-12
2.95879e-12
2.15282e-12
1.61973e-12
1.51899e-12
2.34895e-12
3.97108e-12
1.25133e-07
3.35198e-09
1.6908e-11
5.4506e-12
3.87935e-12
2.75479e-12
2.00908e-12
1.66751e-12
2.10631e-12
3.18212e-12
2.49648e-12
2.33697e-12
1.49007e-12
1.7785e-13
2.76069e-12
9.32744e-12
3.13229e-11
1.35373e-10
3.49798e-10
4.49007e-10
3.51852e-12
3.3811e-12
2.49379e-12
1.11345e-12
1.38043e-12
6.55049e-12
2.15465e-11
8.22088e-11
2.16649e-10
2.8418e-10
4.78402e-12
4.62923e-12
3.64761e-12
2.25208e-12
2.22452e-13
4.24551e-12
1.49801e-11
5.31762e-11
1.40393e-10
1.95326e-10
6.44749e-12
6.19729e-12
5.03031e-12
3.51277e-12
1.35182e-12
2.36634e-12
1.03618e-11
3.59866e-11
9.45291e-11
1.39762e-10
8.68409e-12
8.20094e-12
6.71262e-12
4.97094e-12
2.74323e-12
7.80392e-13
7.0835e-12
2.49137e-11
6.56937e-11
1.0252e-10
1.1747e-11
1.08078e-11
8.79623e-12
6.67204e-12
4.22457e-12
1.07186e-12
4.53831e-12
1.7452e-11
4.68418e-11
7.66355e-11
1.60274e-11
1.42772e-11
1.14266e-11
8.69725e-12
5.88659e-12
2.60142e-12
2.47429e-12
1.23941e-11
3.41067e-11
5.81883e-11
2.21782e-11
1.89824e-11
1.47995e-11
1.11498e-11
7.75986e-12
4.19038e-12
9.7488e-13
8.68544e-12
2.52059e-11
4.47606e-11
8.0808e-10
2.59881e-11
1.92103e-11
1.41729e-11
9.91768e-12
5.89144e-12
1.60236e-12
5.84397e-12
1.88132e-11
3.48089e-11
1.06835e-06
4.66387e-09
2.90857e-11
1.79698e-11
1.24239e-11
7.72014e-12
3.12147e-12
3.62232e-12
1.40885e-11
2.73091e-11
3.26863e-12
2.94031e-12
1.93092e-12
1.98328e-12
8.64312e-12
3.24436e-11
1.50836e-10
4.93977e-10
8.49106e-10
9.56719e-10
4.32194e-12
4.02782e-12
3.0617e-12
1.62536e-12
5.36292e-12
2.1509e-11
9.06236e-11
2.97677e-10
5.2046e-10
5.71006e-10
5.59778e-12
5.2828e-12
4.33624e-12
2.66154e-12
2.88778e-12
1.40755e-11
5.73417e-11
1.87408e-10
3.42751e-10
3.71516e-10
7.22528e-12
6.79588e-12
5.76878e-12
4.11652e-12
1.93253e-12
8.77189e-12
3.74004e-11
1.22372e-10
2.34179e-10
2.52101e-10
9.35115e-12
8.67024e-12
7.43256e-12
5.71749e-12
3.013e-12
5.0238e-12
2.45893e-11
8.19291e-11
1.63874e-10
1.75701e-10
1.21991e-11
1.10466e-11
9.41777e-12
7.48565e-12
4.75137e-12
2.57919e-12
1.59392e-11
5.57446e-11
1.16672e-10
1.24983e-10
1.61051e-11
1.41298e-11
1.18472e-11
9.5006e-12
6.6268e-12
2.65757e-12
9.95707e-12
3.83819e-11
8.39843e-11
9.03139e-11
2.16103e-11
1.82188e-11
1.489e-11
1.18535e-11
8.63181e-12
4.42873e-12
5.6364e-12
2.64319e-11
6.09939e-11
6.6076e-11
3.68475e-10
2.53008e-11
1.8785e-11
1.46694e-11
1.08411e-11
6.48627e-12
2.8582e-12
1.79605e-11
4.45538e-11
4.87619e-11
2.38736e-07
1.05453e-08
7.81197e-11
1.80811e-11
1.33109e-11
8.5861e-12
2.88039e-12
1.1769e-11
3.25968e-11
3.61739e-11
1.03984e-12
1.28983e-12
1.54163e-12
3.18141e-12
8.30196e-12
2.41217e-11
8.39605e-11
2.26155e-10
3.32937e-10
3.28742e-10
1.14247e-12
1.30936e-12
1.43162e-12
2.4313e-12
5.973e-12
1.70607e-11
5.64597e-11
1.47414e-10
2.03047e-10
1.64393e-10
1.25106e-12
1.37216e-12
1.45093e-12
1.98178e-12
4.30567e-12
1.20913e-11
3.86492e-11
9.86624e-11
1.29883e-10
7.54569e-11
1.36724e-12
1.46641e-12
1.54733e-12
1.82329e-12
3.19233e-12
8.58273e-12
2.69871e-11
6.76772e-11
8.62731e-11
3.36462e-11
1.49283e-12
1.58201e-12
1.68296e-12
1.8496e-12
2.5341e-12
6.10056e-12
1.89883e-11
4.7455e-11
5.87474e-11
1.58913e-11
1.63931e-12
1.71659e-12
1.83634e-12
1.96498e-12
2.25486e-12
4.43819e-12
1.34244e-11
3.38175e-11
4.07313e-11
1.05055e-11
1.81488e-12
1.87422e-12
2.00026e-12
2.12182e-12
2.22756e-12
3.35712e-12
9.50395e-12
2.42316e-11
2.85577e-11
9.78868e-12
2.17191e-12
2.05965e-12
2.17966e-12
2.29594e-12
2.32721e-12
2.77661e-12
6.80002e-12
1.74739e-11
2.01792e-11
9.69068e-12
8.99368e-10
1.76723e-11
2.3727e-12
2.48015e-12
2.48603e-12
2.56207e-12
4.9585e-12
1.26631e-11
1.43089e-11
9.42645e-12
4.03738e-07
1.3224e-08
5.61374e-11
2.97743e-12
2.66635e-12
2.5643e-12
3.74422e-12
9.19241e-12
1.0116e-11
8.82365e-12
7.73947e-13
1.47574e-12
1.60298e-12
2.51364e-12
4.12436e-12
6.76588e-12
1.45789e-11
5.63857e-11
1.97173e-10
5.12919e-10
7.10438e-13
1.32556e-12
1.3856e-12
2.13815e-12
3.47051e-12
5.72267e-12
1.09856e-11
3.50588e-11
1.20426e-10
3.09236e-10
6.47711e-13
1.1844e-12
1.19342e-12
1.80982e-12
2.91138e-12
4.78614e-12
8.70177e-12
2.31542e-11
7.70706e-11
1.94589e-10
5.94985e-13
1.0631e-12
1.03257e-12
1.54947e-12
2.45303e-12
4.00795e-12
7.03969e-12
1.61837e-11
5.12591e-11
1.27175e-10
5.48978e-13
9.59158e-13
8.95316e-13
1.3249e-12
2.07424e-12
3.38144e-12
5.76368e-12
1.18922e-11
3.51389e-11
8.57289e-11
5.09833e-13
8.70021e-13
7.79984e-13
1.1445e-12
1.77777e-12
2.85814e-12
4.77602e-12
9.09007e-12
2.46975e-11
5.93376e-11
4.76229e-13
7.9376e-13
6.81849e-13
9.90747e-13
1.52077e-12
2.42328e-12
4.01258e-12
7.16376e-12
1.77443e-11
4.20109e-11
1.05435e-12
7.29767e-13
5.99458e-13
8.60938e-13
1.31082e-12
2.07348e-12
3.39634e-12
5.78415e-12
1.29875e-11
3.03441e-11
1.3127e-09
4.95879e-11
6.27343e-13
7.49074e-13
1.13614e-12
1.78492e-12
2.89212e-12
4.76058e-12
9.67039e-12
2.23164e-11
4.01329e-07
4.03245e-08
3.0993e-10
3.3466e-12
9.36863e-13
1.53391e-12
2.46487e-12
3.97198e-12
7.29675e-12
1.66702e-11
1.04432e-12
1.83111e-12
1.63558e-12
2.16618e-12
3.0116e-12
4.3547e-12
6.64748e-12
1.22998e-11
4.98666e-11
1.79473e-10
9.71876e-13
1.6789e-12
1.46589e-12
1.93513e-12
2.66444e-12
3.79403e-12
5.66389e-12
9.88899e-12
3.4907e-11
1.08157e-10
9.01956e-13
1.53303e-12
1.30253e-12
1.71155e-12
2.34106e-12
3.3056e-12
4.82097e-12
7.85745e-12
2.45792e-11
6.90086e-11
8.40659e-13
1.40545e-12
1.16353e-12
1.51752e-12
2.06563e-12
2.89167e-12
4.15673e-12
6.34415e-12
1.76989e-11
4.61061e-11
7.87299e-13
1.29406e-12
1.04367e-12
1.35102e-12
1.83408e-12
2.54689e-12
3.62296e-12
5.26329e-12
1.2916e-11
3.18856e-11
7.40787e-13
1.19665e-12
9.39456e-13
1.20871e-12
1.62927e-12
2.25036e-12
3.18684e-12
4.47561e-12
9.52503e-12
2.26586e-11
6.99922e-13
1.11069e-12
8.49202e-13
1.08481e-12
1.45361e-12
2.00136e-12
2.81822e-12
3.87255e-12
7.08213e-12
1.64514e-11
1.47924e-12
1.03819e-12
7.71132e-13
9.76784e-13
1.30077e-12
1.78226e-12
2.4993e-12
3.39038e-12
5.31088e-12
1.21522e-11
1.8763e-09
8.74839e-11
8.3079e-13
8.79981e-13
1.16787e-12
1.59148e-12
2.22629e-12
2.98815e-12
4.02381e-12
9.08792e-12
4.91833e-07
7.05319e-08
7.52214e-10
3.58995e-12
9.65256e-13
1.42485e-12
1.98727e-12
2.64357e-12
3.06236e-12
6.85536e-12
1.43788e-12
2.30372e-12
1.65263e-12
1.89235e-12
2.27049e-12
2.81832e-12
3.77374e-12
5.69613e-12
1.29833e-11
2.90824e-11
1.35997e-12
2.15623e-12
1.53511e-12
1.76305e-12
2.11198e-12
2.59581e-12
3.34307e-12
4.69875e-12
1.04731e-11
2.12485e-11
1.28158e-12
2.00914e-12
1.41127e-12
1.62324e-12
1.94479e-12
2.37694e-12
2.99479e-12
3.94841e-12
8.19029e-12
1.57688e-11
1.21223e-12
1.87765e-12
1.29948e-12
1.49518e-12
1.79222e-12
2.18553e-12
2.72003e-12
3.41492e-12
6.35876e-12
1.19037e-11
1.15074e-12
1.76007e-12
1.19921e-12
1.37836e-12
1.65426e-12
2.01498e-12
2.49461e-12
3.02666e-12
4.91881e-12
9.11434e-12
1.09593e-12
1.65401e-12
1.10909e-12
1.27371e-12
1.52621e-12
1.85936e-12
2.29631e-12
2.731e-12
3.79302e-12
7.03636e-12
1.04732e-12
1.5588e-12
1.0281e-12
1.17849e-12
1.41039e-12
1.71924e-12
2.12457e-12
2.48991e-12
2.91898e-12
5.45773e-12
1.91391e-12
1.47763e-12
9.55338e-13
1.09186e-12
1.30502e-12
1.59113e-12
1.96788e-12
2.29135e-12
2.23963e-12
4.25245e-12
2.27897e-09
1.26177e-10
1.15593e-12
1.01168e-12
1.20826e-12
1.4732e-12
1.82373e-12
2.119e-12
1.71098e-12
3.3215e-12
4.01198e-07
9.66017e-08
1.18518e-09
3.75363e-12
1.02214e-12
1.36074e-12
1.68804e-12
1.96023e-12
1.29421e-12
2.58866e-12
2.00532e-12
2.8986e-12
1.61917e-12
1.59712e-12
1.65774e-12
1.799e-12
2.13459e-12
2.90763e-12
6.12037e-12
8.57177e-12
1.92321e-12
2.7656e-12
1.55928e-12
1.55552e-12
1.62436e-12
1.74485e-12
1.97803e-12
2.46733e-12
4.99704e-12
7.06362e-12
1.84066e-12
2.62832e-12
1.48191e-12
1.49383e-12
1.57136e-12
1.68445e-12
1.85925e-12
2.15288e-12
3.9703e-12
5.73708e-12
1.76582e-12
2.50174e-12
1.4067e-12
1.4295e-12
1.51418e-12
1.62658e-12
1.77209e-12
1.94384e-12
3.13229e-12
4.66031e-12
1.69783e-12
2.38461e-12
1.33416e-12
1.3659e-12
1.45647e-12
1.56985e-12
1.70117e-12
1.80464e-12
2.45182e-12
3.78141e-12
1.6367e-12
2.27688e-12
1.26561e-12
1.30276e-12
1.39644e-12
1.51356e-12
1.64371e-12
1.70458e-12
1.90248e-12
3.06389e-12
1.58092e-12
2.17738e-12
1.20116e-12
1.24161e-12
1.33642e-12
1.45615e-12
1.5886e-12
1.63001e-12
1.45336e-12
2.47891e-12
2.43856e-12
2.09224e-12
1.14048e-12
1.18294e-12
1.2783e-12
1.39824e-12
1.53256e-12
1.57016e-12
1.09039e-12
1.99854e-12
2.55655e-09
1.56809e-10
2.10278e-12
1.12704e-12
1.22113e-12
1.34133e-12
1.4771e-12
1.51789e-12
7.99279e-13
1.60234e-12
1.30033e-07
1.07314e-07
2.61993e-09
2.0427e-11
1.07448e-12
1.27869e-12
1.42004e-12
1.46344e-12
5.5449e-13
1.27063e-12
2.76494e-12
3.57028e-12
1.47014e-12
1.21337e-12
1.06439e-12
1.00364e-12
1.13135e-12
1.51258e-12
3.16915e-12
3.71209e-12
2.68543e-12
3.46689e-12
1.46695e-12
1.24652e-12
1.11691e-12
1.03594e-12
1.0726e-12
1.29047e-12
2.71256e-12
3.26e-12
2.60388e-12
3.35469e-12
1.4428e-12
1.25584e-12
1.14809e-12
1.06539e-12
1.04799e-12
1.13432e-12
2.23194e-12
2.77994e-12
2.52853e-12
3.24722e-12
1.41083e-12
1.25278e-12
1.1659e-12
1.09179e-12
1.04804e-12
1.04164e-12
1.81902e-12
2.36693e-12
2.45912e-12
3.14565e-12
1.37575e-12
1.24229e-12
1.17402e-12
1.11138e-12
1.05799e-12
9.97473e-13
1.46388e-12
2.01059e-12
2.39445e-12
3.04815e-12
1.33759e-12
1.22529e-12
1.17392e-12
1.12524e-12
1.07441e-12
9.82165e-13
1.15803e-12
1.70138e-12
2.33487e-12
2.95663e-12
1.29816e-12
1.20356e-12
1.16754e-12
1.13291e-12
1.09013e-12
9.82754e-13
8.97237e-13
1.43394e-12
3.16876e-12
2.87802e-12
1.2586e-12
1.17946e-12
1.15549e-12
1.13374e-12
1.10209e-12
9.92972e-13
6.74576e-13
1.20449e-12
2.88559e-09
1.7403e-10
2.80402e-12
1.1559e-12
1.14e-12
1.12953e-12
1.10824e-12
1.00513e-12
4.845e-13
1.00728e-12
1.83371e-07
9.78084e-08
2.45967e-09
3.06368e-11
1.09641e-12
1.11632e-12
1.10944e-12
1.0144e-12
3.17087e-13
8.41305e-13
3.65986e-12
4.22341e-12
1.16147e-12
7.62942e-13
4.9561e-13
3.50854e-13
4.8384e-13
7.89966e-13
1.93219e-12
1.97128e-12
3.58865e-12
4.15965e-12
1.20414e-12
8.44129e-13
6.00087e-13
4.21379e-13
4.27618e-13
6.34231e-13
1.76929e-12
1.84667e-12
3.51657e-12
4.08897e-12
1.22479e-12
9.01233e-13
6.83659e-13
5.00113e-13
4.23548e-13
5.12692e-13
1.53613e-12
1.65206e-12
3.4482e-12
4.01661e-12
1.23447e-12
9.44017e-13
7.49927e-13
5.74321e-13
4.55882e-13
4.34441e-13
1.32877e-12
1.47711e-12
3.38351e-12
3.94511e-12
1.23522e-12
9.74087e-13
8.02875e-13
6.3987e-13
5.04671e-13
4.03929e-13
1.14305e-12
1.3195e-12
3.32325e-12
3.87479e-12
1.22955e-12
9.95552e-13
8.45856e-13
6.97748e-13
5.59223e-13
4.12571e-13
9.78977e-13
1.17857e-12
3.26592e-12
3.80587e-12
1.2192e-12
1.0094e-12
8.78755e-13
7.46436e-13
6.12935e-13
4.45827e-13
8.36242e-13
1.05414e-12
4.05561e-12
3.74918e-12
1.20538e-12
1.01696e-12
9.03584e-13
7.87041e-13
6.62875e-13
4.91127e-13
7.14358e-13
9.4461e-13
3.18206e-09
1.73017e-10
3.49561e-12
1.026e-12
9.23604e-13
8.20634e-13
7.06274e-13
5.3974e-13
6.13052e-13
8.50333e-13
5.25714e-07
6.31615e-08
2.10374e-09
3.73813e-11
1.05822e-12
8.45962e-13
7.4369e-13
5.84432e-13
5.32834e-13
7.72479e-13
4.51738e-12
4.72985e-12
7.41621e-13
4.95784e-13
2.72332e-13
1.50093e-13
2.6528e-13
4.86054e-13
1.39843e-12
1.23376e-12
4.45732e-12
4.70938e-12
7.89381e-13
5.34605e-13
3.11615e-13
1.24597e-13
1.62503e-13
3.83208e-13
1.38616e-12
1.24291e-12
4.39883e-12
4.68445e-12
8.24641e-13
5.71811e-13
3.61071e-13
1.63348e-13
7.56377e-14
2.8304e-13
1.28374e-12
1.16912e-12
4.34169e-12
4.65464e-12
8.52665e-13
6.04804e-13
4.10518e-13
2.21624e-13
4.64095e-14
1.89729e-13
1.19117e-12
1.10121e-12
4.2874e-12
4.62159e-12
8.73292e-13
6.35002e-13
4.57176e-13
2.81619e-13
1.09251e-13
1.05062e-13
1.10617e-12
1.03865e-12
4.23475e-12
4.58579e-12
8.89047e-13
6.60923e-13
4.99573e-13
3.37732e-13
1.76695e-13
3.64023e-14
1.02866e-12
9.81729e-13
4.18477e-12
4.5497e-12
9.00262e-13
6.83328e-13
5.37509e-13
3.89446e-13
2.38835e-13
5.83032e-14
9.60167e-13
9.30544e-13
4.92922e-12
4.52353e-12
9.07073e-13
7.01299e-13
5.70784e-13
4.35717e-13
2.95381e-13
1.21044e-13
8.99511e-13
8.84874e-13
3.38715e-09
1.57211e-10
3.62462e-12
7.22951e-13
5.99485e-13
4.7624e-13
3.46804e-13
1.81384e-13
8.46626e-13
8.43738e-13
8.35343e-07
2.3151e-08
1.15353e-09
2.63258e-11
7.75753e-13
5.13375e-13
3.93468e-13
2.38198e-13
8.01002e-13
8.18508e-13
5.06478e-12
4.98731e-12
3.76374e-13
5.86371e-13
5.09065e-13
4.39376e-13
4.01578e-13
4.44985e-13
1.17723e-12
9.2496e-13
5.01174e-12
4.99408e-12
3.49008e-13
5.2707e-13
4.55677e-13
3.91794e-13
3.55929e-13
4.09188e-13
1.23694e-12
9.93301e-13
4.9629e-12
5.00125e-12
3.3729e-13
4.75636e-13
4.0875e-13
3.4638e-13
3.13076e-13
3.67529e-13
1.196e-12
9.71648e-13
4.91485e-12
5.00192e-12
3.38211e-13
4.3153e-13
3.68154e-13
3.08548e-13
2.74373e-13
3.28764e-13
1.15714e-12
9.50143e-13
4.86774e-12
4.99736e-12
3.49417e-13
3.96788e-13
3.36861e-13
2.78199e-13
2.41663e-13
2.93099e-13
1.11986e-12
9.3002e-13
4.82315e-12
4.98994e-12
3.65631e-13
3.69785e-13
3.11482e-13
2.5356e-13
2.14312e-13
2.61647e-13
1.08508e-12
9.11108e-13
4.77982e-12
4.97976e-12
3.84011e-13
3.49607e-13
2.93897e-13
2.365e-13
1.94216e-13
2.33224e-13
1.05161e-12
8.93688e-13
5.497e-12
4.97928e-12
4.03199e-13
3.34529e-13
2.81749e-13
2.25365e-13
1.78863e-13
2.09876e-13
1.02087e-12
8.76119e-13
3.48629e-09
1.42605e-10
3.35236e-12
3.25387e-13
2.73697e-13
2.1978e-13
1.7201e-13
1.91252e-13
9.90044e-13
8.59522e-13
1.02573e-06
3.52797e-08
1.03543e-09
2.09375e-11
3.55148e-13
2.20238e-13
1.74884e-13
1.83238e-13
9.6153e-13
9.00317e-13
5.06779e-12
4.95839e-12
3.39889e-13
6.10007e-13
5.38687e-13
4.65439e-13
4.13395e-13
4.36501e-13
1.11324e-12
8.83622e-13
5.01468e-12
4.9674e-12
2.83247e-13
5.41961e-13
4.81509e-13
4.17041e-13
3.73209e-13
4.09141e-13
1.18189e-12
9.55439e-13
4.96618e-12
4.9775e-12
2.47471e-13
4.79885e-13
4.2829e-13
3.71399e-13
3.33144e-13
3.7239e-13
1.14855e-12
9.36983e-13
4.91848e-12
4.98059e-12
2.32733e-13
4.25023e-13
3.80121e-13
3.29876e-13
2.96376e-13
3.38799e-13
1.11662e-12
9.18597e-13
4.87278e-12
4.97944e-12
2.37239e-13
3.79092e-13
3.39417e-13
2.93857e-13
2.63358e-13
3.06809e-13
1.08596e-12
9.01761e-13
4.8285e-12
4.97426e-12
2.53918e-13
3.40879e-13
3.05421e-13
2.62781e-13
2.33478e-13
2.77354e-13
1.05706e-12
8.85712e-13
4.78576e-12
4.96614e-12
2.7668e-13
3.09086e-13
2.77077e-13
2.37318e-13
2.08641e-13
2.50474e-13
1.0292e-12
8.71156e-13
5.50259e-12
4.96779e-12
3.02046e-13
2.84155e-13
2.54772e-13
2.16897e-13
1.87096e-13
2.26409e-13
1.0026e-12
8.5634e-13
3.48629e-09
1.42606e-10
3.33584e-12
2.65024e-13
2.35915e-13
2.00852e-13
1.71573e-13
2.05906e-13
9.76734e-13
8.42328e-13
1.02573e-06
3.52797e-08
1.03541e-09
2.09157e-11
2.97953e-13
1.91536e-13
1.65891e-13
1.93849e-13
9.51321e-13
8.98885e-13
4.51937e-12
4.64966e-12
6.41403e-13
5.07715e-13
3.33269e-13
2.26187e-13
2.61342e-13
4.25057e-13
1.17727e-12
1.09646e-12
4.46096e-12
4.6375e-12
6.7639e-13
5.16596e-13
3.36034e-13
1.93817e-13
1.82352e-13
3.4485e-13
1.19603e-12
1.11664e-12
4.40492e-12
4.62178e-12
7.0732e-13
5.32804e-13
3.56695e-13
1.97569e-13
1.18975e-13
2.60995e-13
1.12069e-12
1.05436e-12
4.35041e-12
4.60074e-12
7.33373e-13
5.51386e-13
3.85055e-13
2.25514e-13
9.11736e-14
1.83429e-13
1.05242e-12
9.97226e-13
4.29794e-12
4.57565e-12
7.56604e-13
5.71258e-13
4.16846e-13
2.64239e-13
1.15799e-13
1.17322e-13
9.89972e-13
9.45006e-13
4.24766e-12
4.54769e-12
7.75206e-13
5.91015e-13
4.49269e-13
3.06384e-13
1.62485e-13
7.15729e-14
9.33957e-13
8.99e-13
4.19918e-12
4.51806e-12
7.90286e-13
6.09374e-13
4.8024e-13
3.48214e-13
2.12802e-13
7.62939e-14
8.83751e-13
8.57537e-13
4.94405e-12
4.49833e-12
8.01963e-13
6.25961e-13
5.09041e-13
3.87204e-13
2.61207e-13
1.17151e-13
8.40131e-13
8.20912e-13
3.38715e-09
1.57212e-10
3.58819e-12
6.45283e-13
5.34788e-13
4.23962e-13
3.07099e-13
1.66115e-13
8.02443e-13
7.89381e-13
8.35343e-07
2.3151e-08
1.15349e-09
2.62791e-11
7.00512e-13
4.57449e-13
3.49739e-13
2.15556e-13
7.70229e-13
7.83689e-13
3.65787e-12
4.12295e-12
1.01309e-12
6.57036e-13
3.9611e-13
2.19414e-13
3.31486e-13
6.06801e-13
1.44766e-12
1.66534e-12
3.59264e-12
4.07513e-12
1.06318e-12
7.34672e-13
4.98997e-13
3.0872e-13
2.90211e-13
4.81996e-13
1.35552e-12
1.57297e-12
3.5264e-12
4.01858e-12
1.09399e-12
7.9449e-13
5.83614e-13
3.97872e-13
3.02798e-13
3.80861e-13
1.18517e-12
1.40956e-12
3.46259e-12
3.9598e-12
1.113e-12
8.39946e-13
6.52274e-13
4.77762e-13
3.49218e-13
3.18488e-13
1.03135e-12
1.26191e-12
3.40196e-12
3.89947e-12
1.1242e-12
8.76394e-13
7.08905e-13
5.47634e-13
4.07915e-13
3.02633e-13
8.94028e-13
1.1294e-12
3.34488e-12
3.83961e-12
1.12769e-12
9.02705e-13
7.55095e-13
6.09133e-13
4.69595e-13
3.23193e-13
7.73702e-13
1.0113e-12
3.29023e-12
3.78006e-12
1.12657e-12
9.2261e-13
7.92154e-13
6.61201e-13
5.27617e-13
3.66049e-13
6.70527e-13
9.08759e-13
4.07861e-12
3.73162e-12
1.12053e-12
9.36168e-13
8.2279e-13
7.05333e-13
5.81228e-13
4.17037e-13
5.85389e-13
8.1857e-13
3.18207e-09
1.7302e-10
3.45705e-12
9.50784e-13
8.46775e-13
7.42347e-13
6.28411e-13
4.69359e-13
5.17206e-13
7.42967e-13
5.25714e-07
6.31615e-08
2.10371e-09
3.73446e-11
9.85009e-13
7.71534e-13
6.68825e-13
5.17386e-13
4.67706e-13
6.8593e-13
2.76671e-12
3.47915e-12
1.30747e-12
1.03645e-12
8.7471e-13
7.89675e-13
8.6027e-13
1.13439e-12
2.12456e-12
2.96943e-12
2.69663e-12
3.39711e-12
1.32651e-12
1.08895e-12
9.44265e-13
8.45101e-13
8.44676e-13
9.9139e-13
1.84773e-12
2.63149e-12
2.6228e-12
3.30351e-12
1.32193e-12
1.11722e-12
9.93034e-13
8.94725e-13
8.51536e-13
8.94081e-13
1.52165e-12
2.24881e-12
2.55284e-12
3.21181e-12
1.30844e-12
1.13084e-12
1.02668e-12
9.3728e-13
8.73398e-13
8.44613e-13
1.23264e-12
1.91543e-12
2.48795e-12
3.12281e-12
1.2881e-12
1.13593e-12
1.04946e-12
9.7192e-13
9.03352e-13
8.28297e-13
9.83741e-13
1.62494e-12
2.42668e-12
3.03707e-12
1.26365e-12
1.13257e-12
1.06311e-12
9.99092e-13
9.34811e-13
8.33683e-13
7.6837e-13
1.37275e-12
2.36977e-12
2.95423e-12
1.23647e-12
1.12421e-12
1.06918e-12
1.01776e-12
9.62458e-13
8.5062e-13
5.81479e-13
1.15509e-12
3.19749e-12
2.88404e-12
1.20689e-12
1.11056e-12
1.06966e-12
1.03085e-12
9.83985e-13
8.72992e-13
4.19382e-13
9.68065e-13
2.88559e-09
1.74034e-10
2.77509e-12
1.0975e-12
1.06447e-12
1.03659e-12
1.00074e-12
8.95796e-13
2.81964e-13
8.08983e-13
1.83371e-07
9.78084e-08
2.45965e-09
3.06075e-11
1.03202e-12
1.03399e-12
1.01141e-12
9.13959e-13
1.56792e-13
6.76339e-13
2.02265e-12
2.83773e-12
1.46349e-12
1.38085e-12
1.38107e-12
1.44533e-12
1.63922e-12
2.08858e-12
3.65291e-12
6.28159e-12
1.95011e-12
2.72926e-12
1.43593e-12
1.37655e-12
1.38843e-12
1.44398e-12
1.57618e-12
1.85243e-12
3.02889e-12
5.26612e-12
1.87332e-12
2.61051e-12
1.38588e-12
1.34674e-12
1.37156e-12
1.42638e-12
1.5252e-12
1.68364e-12
2.4235e-12
4.30302e-12
1.80283e-12
2.49813e-12
1.33278e-12
1.31e-12
1.34496e-12
1.40489e-12
1.4908e-12
1.57119e-12
1.92117e-12
3.50573e-12
1.73783e-12
2.39259e-12
1.27843e-12
1.26935e-12
1.31368e-12
1.37909e-12
1.46265e-12
1.49843e-12
1.5109e-12
2.85509e-12
1.67789e-12