/*--------------------------------*- C++ -*----------------------------------*\
| =========                 |                                                 |
| \\      /  F ield         | OpenFOAM: The Open Source CFD Toolbox           |
|  \\    /   O peration     | Version:  4.1                                   |
|   \\  /    A nd           | Web:      www.OpenFOAM.org                      |
|    \\/     M anipulation  |                                                 |
\*---------------------------------------------------------------------------*/
FoamFile
{
    version     2.0;
    format      ascii;
    class       surfaceScalarField;
    location    "0.98";
    object      phi;
}
// * * * * * * * * * * * * * * * * * * * * * * * * * * * * * * * * * * * * * //

dimensions      [1 0 -1 0 0 0 0];

internalField   nonuniform List<scalar> 
51500
(
3.60845e-13
1.95774e-14
1.36513e-11
-6.42838e-16
2.3352e-14
1.35019e-11
-3.82642e-15
2.16706e-14
1.33523e-11
-3.22111e-15
1.99364e-14
1.32057e-11
-3.0973e-15
1.81761e-14
1.30599e-11
-3.01592e-15
1.64106e-14
1.2916e-11
-3.15291e-15
1.46775e-14
1.27732e-11
-3.06506e-15
1.30021e-14
1.26336e-11
-3.26289e-15
1.13234e-14
1.2496e-11
9.69049e-15
1.23635e-11
-7.28584e-17
3.60781e-13
1.08138e-14
1.69715e-11
-1.18581e-14
1.21446e-14
1.63953e-11
-1.19222e-14
1.03149e-14
1.58343e-11
-1.16073e-14
8.5705e-15
1.52967e-11
-1.12319e-14
6.9893e-15
1.47822e-11
-1.0805e-14
5.54807e-15
1.42877e-11
-1.04754e-14
4.19701e-15
1.38127e-11
-1.01879e-14
3.45677e-15
1.33574e-11
-1.01274e-14
2.26497e-15
1.29182e-11
9.1445e-16
1.25083e-11
-9.14633e-16
3.55453e-13
1.37592e-14
2.13351e-11
-2.752e-14
1.47444e-14
2.00876e-11
-2.37623e-14
1.21479e-14
1.89099e-11
-2.23645e-14
9.82775e-15
1.78153e-11
-2.10561e-14
7.77342e-15
1.67951e-11
-2.01164e-14
5.94478e-15
1.5845e-11
-1.89225e-14
4.3538e-15
1.49615e-11
-1.8093e-14
2.92578e-15
1.41343e-11
-1.7722e-14
1.68382e-15
1.33634e-11
6.46507e-16
1.26566e-11
-1.60137e-15
3.41536e-13
1.82168e-14
2.71371e-11
-4.97059e-14
1.83213e-14
2.4835e-11
-3.9443e-14
1.46688e-14
2.27442e-11
-3.6275e-14
1.15029e-14
2.08527e-11
-3.34477e-14
8.8553e-15
1.91511e-11
-3.09209e-14
6.61931e-15
1.76156e-11
-2.86309e-14
4.73444e-15
1.62262e-11
-2.65937e-14
3.1159e-15
1.49682e-11
-2.52403e-14
1.74782e-15
1.38259e-11
6.08153e-16
1.2807e-11
-2.42276e-15
3.12446e-13
2.4584e-14
3.49606e-11
-9.13664e-14
2.31493e-14
3.10069e-11
-6.08739e-14
1.78928e-14
2.75557e-11
-5.42135e-14
1.36045e-14
2.4542e-11
-4.86176e-14
1.01656e-14
2.19214e-11
-4.37344e-14
7.39597e-15
1.96316e-11
-3.96497e-14
5.13133e-15
1.76251e-11
-3.59514e-14
3.30631e-15
1.58631e-11
-3.33602e-14
1.82422e-15
1.43091e-11
6.51073e-16
1.29609e-11
-3.21965e-15
2.569e-13
3.3916e-14
4.5658e-11
-1.63193e-13
2.98395e-14
3.91221e-11
-8.99259e-14
2.21571e-14
3.36529e-11
-7.75311e-14
1.62125e-14
2.90513e-11
-6.74254e-14
1.17366e-14
2.51915e-11
-5.91243e-14
8.27438e-15
2.19343e-11
-5.2091e-14
5.61574e-15
1.91746e-11
-4.61119e-14
3.53435e-15
1.68251e-11
-4.17679e-14
1.91729e-15
1.48131e-11
7.57483e-16
1.31174e-11
-4.12973e-15
1.61815e-13
5.96872e-14
6.04727e-11
-2.55054e-13
4.86298e-14
4.99434e-11
-1.30225e-13
3.44383e-14
4.14455e-11
-1.07912e-13
2.41445e-14
3.46008e-11
-9.09501e-14
1.67514e-14
2.90723e-11
-7.72481e-14
1.13744e-14
2.45751e-11
-6.63211e-14
7.37876e-15
2.08927e-11
-5.72903e-14
4.42701e-15
1.78579e-11
-5.07057e-14
2.20537e-15
1.53404e-11
5.11907e-16
1.32763e-11
-4.996e-15
6.3871e-14
-8.09625e-13
8.13766e-11
-3.73398e-13
-9.07631e-13
6.45463e-11
-1.83834e-13
-9.34775e-13
5.15269e-11
-1.46152e-13
-9.52319e-13
4.14987e-11
-1.18478e-13
-9.64342e-13
3.37226e-11
-9.74605e-14
-9.72572e-13
2.76355e-11
-8.10304e-14
-9.78175e-13
2.2827e-11
-6.81572e-14
-9.81989e-13
1.89962e-11
-5.81624e-14
-9.84669e-13
1.59148e-11
-1.00808e-12
1.34648e-11
-5.96615e-15
4.2829e-12
-1.15378e-09
2.07004e-10
4.08134e-12
-1.28315e-09
1.67801e-10
3.71222e-12
-1.29803e-09
1.41543e-10
3.37995e-12
-1.30926e-09
1.21588e-10
3.08415e-12
-1.31844e-09
1.06229e-10
2.82184e-12
-1.32605e-09
9.42486e-11
2.58919e-12
-1.33241e-09
8.47953e-11
2.382e-12
-1.33776e-09
7.72562e-11
2.08644e-12
-1.34253e-09
7.11854e-11
-1.38814e-09
6.74757e-11
-6.96947e-15
-8.67513e-10
2.03788e-07
-8.06027e-07
3.61535e-10
1.74822e-07
-9.35195e-07
4.62502e-10
1.54503e-07
-9.37682e-07
4.54231e-10
1.37354e-07
-9.39302e-07
4.43713e-10
1.22734e-07
-9.40738e-07
4.3215e-10
1.10214e-07
-9.4203e-07
4.20005e-10
9.94344e-08
-9.43204e-07
3.91745e-10
9.01037e-08
-9.44281e-07
5.06135e-11
8.20037e-08
-9.45464e-07
7.72193e-08
-8.05107e-15
-1.00427e-06
3.39636e-13
8.60661e-14
9.16204e-13
-1.6456e-14
8.14183e-14
9.00843e-13
-2.47499e-14
7.18358e-14
8.8681e-13
-2.37578e-14
6.25181e-14
8.70664e-13
-2.32274e-14
5.35351e-14
8.5642e-13
-2.31087e-14
4.4807e-14
8.42893e-13
-2.30326e-14
3.63736e-14
8.27711e-13
-2.28e-14
2.82399e-14
8.14744e-13
-2.45835e-14
2.02889e-14
8.01267e-13
1.28196e-14
7.87066e-13
-1.59291e-15
2.85817e-13
7.92821e-14
1.26257e-12
-6.63594e-14
7.23839e-14
1.20053e-12
-8.22368e-14
6.12763e-14
1.14083e-12
-7.86611e-14
5.06109e-14
1.08343e-12
-7.66589e-14
3.99415e-14
1.02957e-12
-7.45658e-14
2.79044e-14
9.77719e-13
-7.23177e-14
1.99287e-14
9.30997e-13
-7.16661e-14
1.31186e-14
8.8514e-13
-7.47676e-14
7.34069e-15
8.43544e-13
2.48792e-15
8.01422e-13
-4.22861e-15
2.06234e-13
1.00148e-13
1.77014e-12
-1.67971e-13
8.97164e-14
1.61691e-12
-1.55412e-13
7.52216e-14
1.48415e-12
-1.46943e-13
6.17398e-14
1.35635e-12
-1.39874e-13
4.959e-14
1.24348e-12
-1.33563e-13
3.85412e-14
1.14066e-12
-1.27918e-13
2.84916e-14
1.04818e-12
-1.22955e-13
1.9483e-14
9.64224e-13
-1.28006e-13
1.12887e-14
8.86463e-13
4.09873e-15
8.1816e-13
-6.62838e-15
8.83085e-14
1.22255e-13
2.52394e-12
-2.921e-13
1.06519e-13
2.21367e-12
-2.49499e-13
8.72758e-14
1.95058e-12
-2.30388e-13
7.01332e-14
1.71463e-12
-2.15306e-13
5.51486e-14
1.51172e-12
-2.01795e-13
4.1984e-14
1.33611e-12
-1.88911e-13
3.05189e-14
1.18495e-12
-1.78641e-13
2.04468e-14
1.05295e-12
-1.823e-13
1.16578e-14
9.34972e-13
4.06795e-15
8.3275e-13
-9.63747e-15
-2.54188e-14
1.50763e-13
3.67085e-12
-4.48169e-13
1.27386e-13
3.07886e-12
-3.69056e-13
1.02059e-13
2.59632e-12
-3.33083e-13
8.01163e-14
2.18753e-12
-3.05038e-13
6.1526e-14
1.85091e-12
-2.79482e-13
4.5855e-14
1.57395e-12
-2.56817e-13
3.2599e-14
1.34332e-12
-2.38152e-13
2.14514e-14
1.14998e-12
-2.38889e-13
1.19832e-14
9.87032e-13
4.18045e-15
8.50247e-13
-1.26823e-14
-1.51122e-13
1.87072e-13
5.45993e-12
-6.49945e-13
1.54727e-13
4.3518e-12
-5.21518e-13
1.20232e-13
3.499e-12
-4.59859e-13
9.198e-14
2.81373e-12
-4.11232e-13
6.89977e-14
2.28028e-12
-3.688e-13
5.02212e-14
1.86064e-12
-3.31694e-13
3.49671e-14
1.52836e-12
-3.01976e-13
2.24672e-14
1.26087e-12
-2.97393e-13
1.23754e-14
1.04578e-12
4.14539e-15
8.69751e-13
-1.55995e-14
-5.1719e-13
2.54452e-13
7.59522e-12
-9.18322e-13
2.14761e-13
6.2674e-12
-7.15701e-13
1.6218e-13
4.78016e-12
-6.15427e-13
1.2081e-13
3.65312e-12
-5.37434e-13
8.83574e-14
2.82783e-12
-4.70803e-13
6.26014e-14
2.20979e-12
-4.14995e-13
4.17244e-14
1.74209e-12
-3.69512e-13
2.42635e-14
1.38586e-12
-3.58442e-13
1.06119e-14
1.1073e-12
3.51257e-15
8.90378e-13
-1.85867e-14
-9.81628e-13
2.72032e-13
1.03579e-11
-1.2745e-12
1.49122e-13
8.08783e-12
-9.63455e-13
9.27883e-14
6.62601e-12
-8.06402e-13
5.22511e-14
4.7984e-12
-6.85948e-13
2.21693e-14
3.53531e-12
-5.8764e-13
-4.98192e-16
2.63994e-12
-5.05818e-13
-1.77557e-14
1.99775e-12
-4.42225e-13
-3.10727e-14
1.52669e-12
-4.21159e-13
-4.14945e-14
1.17618e-12
-5.01898e-14
9.13115e-13
-2.15906e-14
-1.94984e-12
-9.7923e-12
3.23383e-11
-9.63529e-13
-1.0202e-10
1.7382e-11
-8.16251e-13
-9.27139e-11
1.25148e-11
-7.01266e-13
-8.40818e-11
9.34261e-12
-6.13056e-13
-7.70709e-11
7.25426e-12
-5.44092e-13
-7.13031e-11
5.83076e-12
-4.90101e-13
-6.65356e-11
4.83469e-12
-4.50149e-13
-6.25778e-11
4.11957e-12
-5.95969e-13
-5.92989e-11
3.58993e-12
-5.78199e-11
3.21291e-12
-2.4686e-14
-1.59725e-09
2.53914e-08
1.24548e-07
-2.58183e-10
1.49331e-08
-2.00926e-09
-4.16874e-10
1.13789e-08
-2.65532e-09
-4.14095e-10
8.82993e-09
-2.67463e-09
-4.08355e-10
6.95108e-09
-2.67076e-09
-4.00876e-10
5.54174e-09
-2.6545e-09
-3.92291e-10
4.46998e-09
-2.63112e-09
-3.83338e-10
3.64454e-09
-2.60466e-09
-3.90453e-10
3.00241e-09
-2.59542e-09
2.55316e-09
-2.80405e-14
-3.78273e-09
3.40798e-13
8.24735e-14
3.90875e-14
-1.55178e-14
7.82796e-14
3.69215e-14
-2.3144e-14
6.90354e-14
3.52138e-14
-2.05726e-14
6.01406e-14
3.38663e-14
-1.86384e-14
5.15293e-14
3.14366e-14
-2.07836e-14
4.31228e-14
2.88034e-14
-1.90757e-14
3.51377e-14
2.78926e-14
-1.98068e-14
2.73326e-14
2.63687e-14
-2.36007e-14
1.97883e-14
2.52595e-14
1.26742e-14
2.50684e-14
-1.25941e-15
2.89392e-13
5.99967e-14
6.18108e-14
-6.40547e-14
5.50165e-14
5.64861e-14
-7.39178e-14
4.66989e-14
5.35874e-14
-6.79538e-14
3.86428e-14
4.75847e-14
-6.72475e-14
3.11798e-14
4.28414e-14
-6.30424e-14
2.43279e-14
4.05793e-14
-6.26319e-14
1.7944e-14
3.46756e-14
-6.21795e-14
1.21392e-14
3.13149e-14
-7.13067e-14
6.89829e-15
2.98948e-14
2.45248e-15
2.65903e-14
-4.49554e-15
2.10314e-13
7.68229e-14
9.40881e-14
-1.64738e-13
6.95381e-14
8.48176e-14
-1.40584e-13
5.86373e-14
7.84493e-14
-1.27423e-13
4.86437e-14
6.95593e-14
-1.21353e-13
3.96945e-14
6.02929e-14
-1.14614e-13
3.21359e-14
5.19473e-14
-1.09538e-13
2.42495e-14
4.52381e-14
-1.08052e-13
1.67909e-14
4.00268e-14
-1.21121e-13
9.71661e-15
3.53796e-14
3.3357e-15
2.99953e-14
-7.23597e-15
9.00723e-14
9.55679e-14
1.50221e-13
-2.88753e-13
8.37498e-14
1.33142e-13
-2.25787e-13
6.89165e-14
1.19033e-13
-2.00554e-13
5.59038e-14
9.94981e-14
-1.86711e-13
4.4765e-14
8.33136e-14
-1.73298e-13
3.60351e-14
7.05088e-14
-1.60281e-13
2.63043e-14
5.9731e-14
-1.56915e-13
1.74388e-14
5.05067e-14
-1.73098e-13
9.96055e-15
4.48787e-14
3.54438e-15
3.57237e-14
-1.04897e-14
-2.83429e-14
1.20619e-13
2.50647e-13
-4.46297e-13
1.01602e-13
2.12093e-13
-3.35021e-13
8.16295e-14
1.82406e-13
-2.88635e-13
6.4458e-14
1.47466e-13
-2.62301e-13
5.02027e-14
1.18602e-13
-2.38404e-13
3.94011e-14
9.64238e-14
-2.17584e-13
2.8389e-14
7.94614e-14
-2.07675e-13
1.87369e-14
6.69043e-14
-2.26912e-13
1.05773e-14
5.69121e-14
3.77537e-15
4.3414e-14
-1.3031e-14
-1.65288e-13
1.53448e-13
4.27999e-13
-6.52446e-13
1.25979e-13
3.49842e-13
-4.75072e-13
9.76856e-14
2.84326e-13
-3.77328e-13
7.47682e-14
2.17302e-13
-3.36648e-13
5.69869e-14
1.70098e-13
-2.97705e-13
4.36261e-14
1.3419e-13
-2.67073e-13
3.03607e-14
1.07535e-13
-2.6122e-13
1.96438e-14
8.85826e-14
-2.82869e-13
1.07033e-14
6.94901e-14
3.56715e-15
5.08711e-14
-1.65217e-14
-5.79764e-13
1.86879e-13
7.43706e-13
-9.31223e-13
1.56767e-13
5.79369e-13
-6.30447e-13
1.18341e-13
4.41407e-13
-4.98179e-13
8.89158e-14
3.25147e-13
-4.33063e-13
6.92962e-14
2.43242e-13
-3.75144e-13
5.04271e-14
1.84948e-13
-3.26368e-13
3.4685e-14
1.44502e-13
-3.1711e-13
2.20663e-14
1.13585e-13
-3.40959e-13
1.21628e-14
8.91799e-14
4.52658e-15
6.19599e-14
-1.95334e-14
-1.10721e-12
3.6437e-13
1.32341e-12
-1.30876e-12
2.27291e-13
9.66122e-13
-8.09439e-13
1.59229e-13
6.95354e-13
-6.52909e-13
1.11207e-13
4.8544e-13
-5.49413e-13
7.68099e-14
3.48671e-13
-4.63981e-13
5.17914e-14
2.55379e-13
-3.95425e-13
3.3425e-14
1.90175e-13
-3.57617e-13
1.98932e-14
1.44618e-13
-4.0101e-13
9.8012e-15
1.13345e-13
2.40933e-15
7.36443e-14
-2.28804e-14
-2.66568e-12
9.37908e-11
1.05902e-11
-1.58406e-12
-3.92861e-13
1.44657e-12
-1.07086e-12
-1.29797e-12
9.032e-13
-8.57126e-13
-1.26916e-12
6.32187e-13
-7.05544e-13
-1.2541e-12
4.63049e-13
-5.86621e-13
-1.24019e-12
3.53563e-13
-4.92544e-13
-1.2239e-12
2.79207e-13
-4.38982e-13
-1.20453e-12
2.26153e-13
-4.86705e-13
-1.1829e-12
1.87136e-13
-1.16168e-12
1.41019e-13
-2.62438e-14
-1.14712e-09
9.30373e-09
1.10166e-07
-7.50193e-11
9.69913e-10
3.36495e-10
-7.48517e-11
5.59913e-10
-1.45185e-10
-6.41488e-11
3.76147e-10
-1.23434e-10
-5.48402e-11
2.59634e-10
-1.02154e-10
-4.71699e-11
1.82962e-10
-8.42398e-11
-4.08167e-11
1.31427e-10
-6.86813e-11
-3.55349e-11
9.61026e-11
-5.49129e-11
-3.13221e-11
7.14847e-11
-4.37303e-11
5.42309e-11
-2.97282e-14
-4.76117e-11
3.41083e-13
8.10929e-14
1.19325e-14
-1.53788e-14
7.70773e-14
1.08028e-14
-2.24998e-14
6.80085e-14
1.07969e-14
-2.02059e-14
5.92317e-14
6.417e-15
-1.84119e-14
5.07923e-14
6.38802e-15
-1.96343e-14
4.26251e-14
4.69515e-15
-1.83756e-14
3.46933e-14
3.28938e-15
-1.92733e-14
2.70247e-14
1.15767e-15
-2.30553e-14
1.96517e-14
8.88334e-16
1.26252e-14
9.0839e-16
-1.54889e-15
2.9098e-13
5.82624e-14
1.94261e-14
-6.30329e-14
5.35505e-14
1.69816e-14
-7.20864e-14
4.54678e-14
1.76457e-14
-6.49005e-14
3.77478e-14
1.42838e-14
-6.14786e-14
3.04919e-14
1.21185e-14
-6.21987e-14
2.37387e-14
7.53134e-15
-5.94286e-14
1.76007e-14
8.15301e-15
-5.89671e-14
1.19527e-14
5.45417e-15
-7.02411e-14
6.79663e-15
3.87473e-15
2.44989e-15
3.44651e-15
-4.19261e-15
2.14135e-13
7.39902e-14
2.89508e-14
-1.61625e-13
6.69984e-14
2.67231e-14
-1.35101e-13
5.63015e-14
2.75e-14
-1.18145e-13
4.6305e-14
2.17513e-14
-1.14029e-13
3.73555e-14
1.77937e-14
-1.03672e-13
2.93085e-14
1.4792e-14
-9.88129e-14
2.17964e-14
1.01809e-14
-1.04256e-13
1.49862e-14
8.69478e-15
-1.19078e-13
9.39863e-15
1.04884e-14
3.11184e-15
8.01823e-15
-7.00676e-15
9.47603e-14
9.20568e-14
4.7242e-14
-2.83502e-13
8.05343e-14
4.5521e-14
-2.16775e-13
6.60893e-14
4.62612e-14
-1.79677e-13
5.33963e-14
3.82266e-14
-1.67174e-13
4.21366e-14
3.13407e-14
-1.55549e-13
3.22743e-14
2.62741e-14
-1.4487e-13
2.358e-14
2.16115e-14
-1.49573e-13
1.58687e-14
1.83368e-14
-1.70226e-13
9.58968e-15
1.56558e-14
3.62414e-15
1.08712e-14
-1.06493e-14
-2.10639e-14
1.16124e-13
8.21019e-14
-4.37663e-13
9.79261e-14
8.20762e-14
-3.17731e-13
7.83946e-14
7.85138e-14
-2.5895e-13
6.13981e-14
6.31039e-14
-2.35063e-13
4.73787e-14
5.23833e-14
-2.1412e-13
3.55399e-14
4.25109e-14
-1.95401e-13
2.56759e-14
3.50616e-14
-1.97796e-13
1.80245e-14
3.08209e-14
-2.23074e-13
9.48572e-15
2.76261e-14
3.52355e-15
1.78772e-14
-1.33114e-14
-1.55268e-13
1.47832e-13
1.46347e-13
-6.392e-13
1.21237e-13
1.43403e-13
-4.27641e-13
9.36091e-14
1.31789e-13
-3.54998e-13
7.14263e-14
1.05617e-13
-3.16166e-13
5.36233e-14
8.47972e-14
-2.80715e-13
3.91262e-14
6.98394e-14
-2.50165e-13
2.7443e-14
5.72662e-14
-2.49978e-13
1.78056e-14
4.76528e-14
-2.77906e-13
1.04993e-14
4.14588e-14
3.73345e-15
2.71205e-14
-1.67243e-14
-5.58401e-13
1.81814e-13
2.61723e-13
-9.11323e-13
1.50532e-13
2.54352e-13
-5.72726e-13
1.13026e-13
2.17118e-13
-4.75441e-13
8.35438e-14
1.69704e-13
-4.12551e-13
6.10068e-14
1.3352e-13
-3.57153e-13
4.36394e-14
1.07004e-13
-3.12061e-13
2.99126e-14
8.63155e-14
-2.8576e-13
1.90861e-14
7.21839e-14
-3.35362e-13
1.09952e-14
6.09167e-14
3.47539e-15
3.84956e-14
-1.99428e-14
-1.07524e-12
3.58688e-13
4.79443e-13
-1.27711e-12
2.20826e-13
4.44427e-13
-7.70713e-13
2.06696e-13
3.54141e-13
-6.26003e-13
1.44964e-13
2.66515e-13
-5.26916e-13
1.00721e-13
2.03887e-13
-4.45713e-13
6.85963e-14
1.58587e-13
-3.80322e-13
4.50094e-14
1.26011e-13
-3.34877e-13
2.75036e-14
1.02672e-13
-3.95289e-13
1.41149e-14
8.39067e-14
3.72362e-15
5.42182e-14
-2.28804e-14
-2.63149e-12
9.92077e-11
1.58477e-11
-1.4895e-12
1.40343e-12
8.91606e-13
-1.02633e-12
2.84978e-13
5.623e-13
-8.1521e-13
1.73104e-13
4.10115e-13
-6.64996e-13
1.04681e-13
3.03011e-13
-5.47684e-13
5.8861e-14
2.2964e-13
-4.55434e-13
2.84782e-14
1.76076e-13
-3.91903e-13
8.27492e-15
1.3814e-13
-4.57346e-13
-5.09649e-15
1.09141e-13
-1.34908e-14
6.7991e-14
-2.63877e-14
-1.07267e-09
1.28175e-08
1.0996e-07
-1.43912e-11
1.99048e-10
5.18572e-10
-4.33909e-12
2.22371e-11
-2.36621e-12
-5.0119e-12
1.24629e-11
-2.68067e-12
-3.8219e-12
7.53899e-12
-1.43822e-12
-2.94388e-12
4.74603e-12
-9.40941e-13
-2.30065e-12
3.07625e-12
-6.04095e-13
-1.8256e-12
2.0489e-12
-3.74434e-13
-1.49851e-12
1.3941e-12
-2.19721e-13
9.30188e-13
-3.00823e-14
5.86129e-15
3.40971e-13
8.11264e-14
1.6006e-14
-1.57583e-14
7.7082e-14
1.40024e-14
-2.26516e-14
6.80895e-14
1.18801e-14
-2.05523e-14
5.93001e-14
7.52792e-15
-1.71132e-14
5.08306e-14
6.1234e-15
-2.02495e-14
4.26097e-14
3.51931e-15
-1.93759e-14
3.47438e-14
5.85014e-15
-1.88431e-14
2.71024e-14
4.58708e-15
-2.29536e-14
1.96843e-14
6.59077e-16
1.2678e-14
1.66532e-17
-1.95243e-15
2.90721e-13
5.83298e-14
2.49334e-14
-6.3022e-14
5.36354e-14
2.40834e-14
-7.25117e-14
4.54837e-14
1.86189e-14
-6.54082e-14
3.77127e-14
1.63597e-14
-6.28553e-14
3.0499e-14
1.11481e-14
-6.04807e-14
2.37941e-14
8.53853e-15
-5.97396e-14
1.76022e-14
5.99014e-15
-5.98709e-14
1.19769e-14
6.83404e-15
-7.00005e-14
6.85874e-15
6.19092e-15
2.49962e-15
1.53338e-15
-4.39232e-15
2.13875e-13
7.40362e-14
3.7245e-14
-1.62008e-13
6.70178e-14
3.53844e-14
-1.36111e-13
5.63628e-14
3.37605e-14
-1.15323e-13
4.65165e-14
3.17139e-14
-1.10569e-13
3.75012e-14
2.26837e-14
-1.05341e-13
2.94739e-14
1.67074e-14
-9.80959e-14
2.20689e-14
1.4977e-14
-1.042e-13
1.50998e-14
1.15626e-14
-1.18915e-13
8.80383e-15
1.08239e-14
3.01909e-15
6.1046e-15
-7.39252e-15
9.45478e-14
9.21991e-14
6.28878e-14
-2.83934e-13
8.07804e-14
6.21747e-14
-2.16934e-13
6.62354e-14
6.21667e-14
-1.80063e-13
5.33838e-14
4.93065e-14
-1.66433e-13
4.22184e-14
4.10304e-14
-1.56245e-13
3.21593e-14
3.21234e-14
-1.44481e-13
2.34326e-14
2.9983e-14
-1.49749e-13
1.60368e-14
2.50898e-14
-1.7033e-13
1.01132e-14
2.10837e-14
3.84846e-15
2.03557e-14
-1.01089e-14
-2.12247e-14
1.1641e-13
1.08528e-13
-4.38648e-13
9.80959e-14
1.08169e-13
-3.18778e-13
7.86532e-14
1.07528e-13
-2.58022e-13
6.1713e-14
8.95542e-14
-2.35883e-13
4.756e-14
7.25431e-14
-2.14605e-13
3.5923e-14
6.33435e-14
-1.94697e-13
2.61739e-14
5.41472e-14
-1.96241e-13
1.77529e-14
4.24329e-14
-2.23639e-13
9.31055e-15
3.42241e-14
3.70523e-15
2.3802e-14
-1.32583e-14
-1.56061e-13
1.48275e-13
1.86358e-13
-6.40347e-13
1.21742e-13
1.97229e-13
-4.27488e-13
9.3971e-14
1.78204e-13
-3.55721e-13
7.17494e-14
1.44023e-13
-3.16021e-13
5.39344e-14
1.17705e-13
-2.81388e-13
3.93252e-14
9.777e-14
-2.50734e-13
2.75578e-14
7.77555e-14
-2.45298e-13
1.83837e-14
6.91996e-14
-2.78539e-13
1.0853e-14
5.74521e-14
3.68656e-15
3.61693e-14
-1.65894e-14
-5.60469e-13
1.82356e-13
3.32895e-13
-9.13992e-13
1.513e-13
3.44549e-13
-5.73034e-13
1.13613e-13
3.04976e-13
-4.76564e-13
8.39613e-14
2.33833e-13
-4.13229e-13
6.13525e-14
1.91841e-13
-3.58252e-13
4.38322e-14
1.50506e-13
-3.12275e-13
3.01238e-14
1.24245e-13
-2.85574e-13
1.90616e-14
1.00818e-13
-3.36571e-13
1.11357e-14
8.19102e-14
4.14592e-15
5.46814e-14
-1.97559e-14
-1.07954e-12
3.64864e-13
6.03672e-13
-1.28184e-12
2.22218e-13
6.04e-13
-7.72181e-13
1.41101e-13
4.96672e-13
-6.27777e-13
1.05986e-13
3.77798e-13
-5.28617e-13
8.01165e-14
2.92909e-13
-4.47078e-13
5.61582e-14
2.33315e-13
-3.81291e-13
3.75023e-14
1.81607e-13
-3.36035e-13
2.3535e-14
1.46581e-13
-3.96668e-13
1.28168e-14
1.17971e-13
4.95319e-15
7.54874e-14
-2.3095e-14
-2.69685e-12
1.05769e-10
2.49318e-11
-1.39219e-12
1.3393e-12
1.325e-12
-1.02964e-12
2.04306e-13
8.09474e-13
-8.18949e-13
1.7377e-13
5.84773e-13
-6.67325e-13
1.16228e-13
4.37569e-13
-5.49962e-13
7.65554e-14
3.2965e-13
-4.56748e-13
4.86161e-14
2.51596e-13
-3.92967e-13
2.87653e-14
2.00062e-13
-4.5905e-13
1.4518e-14
1.57316e-13
4.34512e-15
9.96655e-14
-2.6489e-14
-1.13523e-09
2.07416e-08
1.16438e-07
-1.00861e-11
2.21954e-10
5.85542e-10
-1.79069e-12
3.561e-12
2.27399e-12
-1.17001e-12
1.26105e-12
1.04118e-13
-9.19984e-13
8.41409e-13
7.93956e-14
-7.25662e-13
5.88917e-13
6.83975e-14
-5.8119e-13
4.2607e-13
5.81453e-14
-4.84471e-13
3.16481e-13
4.69416e-14
-5.44395e-13
2.38634e-13
4.60654e-14
1.46478e-13
-3.00333e-14
3.88481e-14
3.40653e-13
8.1268e-14
2.31891e-14
-1.60831e-14
7.72255e-14
1.45957e-14
-2.33068e-14
6.81361e-14
1.8936e-14
-2.00241e-14
5.94069e-14
1.30193e-14
-1.91585e-14
5.08784e-14
7.72228e-15
-1.92435e-14
4.2666e-14
4.38605e-15
-1.93944e-14
3.47449e-14
1.92418e-15
-1.98167e-14
2.71281e-14
1.56318e-15
-2.30432e-14
1.97582e-14
1.7236e-15
1.27049e-14
3.25483e-15
-1.38323e-15
2.90383e-13
5.85201e-14
3.92415e-14
-6.37717e-14
5.37973e-14
3.50564e-14
-7.18043e-14
4.56657e-14
3.30436e-14
-6.70385e-14
3.78443e-14
2.13398e-14
-6.22031e-14
3.0623e-14
2.0442e-14
-6.13429e-14
2.38779e-14
1.23239e-14
-5.85682e-14
1.76959e-14
7.97668e-15
-5.96572e-14
1.20336e-14
5.31108e-15
-7.04305e-14
6.91638e-15
4.60804e-15
2.56644e-15
5.72729e-15
-4.43569e-15
2.13243e-13
7.43499e-14
5.21454e-14
-1.63074e-13
6.72807e-14
5.27162e-14
-1.35945e-13
5.66028e-14
5.67972e-14
-1.17229e-13
4.66353e-14
4.27818e-14
-1.13949e-13
3.76315e-14
3.25483e-14
-1.03945e-13
2.95344e-14
2.63078e-14
-9.89003e-14
2.22137e-14
1.72544e-14
-1.03821e-13
1.53786e-14
1.62703e-14
-1.19194e-13
9.04e-15
1.18244e-14
3.32698e-15
1.12912e-14
-7.53521e-15
9.37634e-14
9.2706e-14
9.22473e-14
-2.85225e-13
8.11924e-14
9.09585e-14
-2.18112e-13
6.66062e-14
9.41152e-14
-1.80095e-13
5.37637e-14
7.64158e-14
-1.68031e-13
4.25486e-14
5.88724e-14
-1.55398e-13
3.25663e-14
4.13635e-14
-1.44992e-13
2.36759e-14
3.28239e-14
-1.50483e-13
1.61366e-14
2.97681e-14
-1.70354e-13
1.01149e-14
2.5386e-14
3.66889e-15
1.56482e-14
-1.02331e-14
-2.26732e-14
1.17146e-13
1.61492e-13
-4.40583e-13
9.8782e-14
1.64548e-13
-3.20308e-13
7.91338e-14
1.61507e-13
-2.59045e-13
6.20986e-14
1.29942e-13
-2.36348e-13
4.78406e-14
1.06765e-13
-2.1581e-13
3.61544e-14
8.59905e-14
-1.95057e-13
2.61243e-14
6.00178e-14
-1.97758e-13
1.78944e-14
5.09577e-14
-2.24003e-13
9.75943e-15
4.25619e-14
3.95597e-15
2.69328e-14
-1.33151e-14
-1.58182e-13
1.49513e-13
2.82385e-13
-6.43877e-13
1.22731e-13
2.94156e-13
-4.2913e-13
9.48587e-14
2.71388e-13
-3.57356e-13
7.24054e-14
2.12525e-13
-3.16817e-13
5.45809e-14
1.71238e-13
-2.83618e-13
3.97125e-14
1.35952e-13
-2.51093e-13
2.80797e-14
1.11265e-13
-2.45031e-13
1.85248e-14
7.96664e-14
-2.7959e-13
1.09886e-14
6.69166e-14
4.06719e-15
4.28711e-14
-1.62973e-14
-5.66561e-13
1.8405e-13
5.01121e-13
-9.19471e-13
1.5285e-13
5.14407e-13
-5.77471e-13
1.14765e-13
4.43554e-13
-4.78549e-13
8.49355e-14
3.47628e-13
-4.16046e-13
6.20432e-14
2.70661e-13
-3.59966e-13
4.4561e-14
2.15904e-13
-3.1408e-13
3.06876e-14
1.69299e-13
-2.86915e-13
1.95741e-14
1.20501e-13
-3.3794e-13
1.15611e-14
1.00026e-13
4.50281e-15
6.17407e-14
-1.97171e-14
-1.0907e-12
3.69902e-13
9.16973e-13
-1.29155e-12
2.24978e-13
9.00348e-13
-7.77863e-13
1.38948e-13
7.28615e-13
-6.3223e-13
1.01917e-13
5.48562e-13
-5.32102e-13
7.3071e-14
4.18451e-13
-4.50263e-13
5.42446e-14
3.20967e-13
-3.83946e-13
3.69518e-14
2.51933e-13
-3.38299e-13
2.35398e-14
1.74205e-13
-3.98794e-13
1.29905e-14
1.37074e-13
5.19987e-15
8.58032e-14
-2.2958e-14
-2.74856e-12
1.11916e-10
3.12351e-11
-1.37196e-12
1.40247e-12
1.88113e-12
-1.03902e-12
1.99874e-13
1.19194e-12
-8.25996e-13
1.66036e-13
8.60504e-13
-6.73138e-13
1.09046e-13
6.30912e-13
-5.54827e-13
6.78363e-14
4.70124e-13
-4.60242e-13
3.19677e-14
3.47461e-13
-3.96265e-13
1.75488e-14
2.51684e-13
-4.62373e-13
9.04941e-15
1.89309e-13
3.76011e-15
1.14084e-13
-2.65031e-14
-1.20541e-09
2.70274e-08
1.25527e-07
-1.03862e-11
3.17048e-10
6.28018e-10
-1.64971e-12
3.13512e-12
2.56109e-12
-1.06187e-12
1.04562e-12
1.14813e-13
-8.45197e-13
7.53698e-13
6.61306e-14
-6.7528e-13
5.55326e-13
5.04345e-14
-5.46824e-13
4.1406e-13
3.9451e-14
-4.57959e-13
3.11365e-13
3.14154e-14
-5.28834e-13
2.3644e-13
2.5408e-14
1.40997e-13
-3.02666e-14
2.08851e-14
3.40089e-13
8.14764e-14
2.97217e-14
-1.6273e-14
7.7433e-14
2.8167e-14
-2.39594e-14
6.82477e-14
2.21935e-14
-1.9709e-14
5.95105e-14
1.81964e-14
-1.96335e-14
5.09887e-14
8.29094e-15
-2.01886e-14
4.27649e-14
8.03286e-15
-1.91088e-14
3.48582e-14
6.84447e-15
-1.97971e-14
2.72098e-14
1.18165e-14
-2.26969e-14
1.98488e-14
3.58844e-14
1.27682e-14
9.8442e-14
-2.01358e-15
2.89816e-13
5.87061e-14
5.19513e-14
-6.44058e-14
5.39709e-14
4.4256e-14
-7.23606e-14
4.58743e-14
4.46011e-14
-6.66179e-14
3.80017e-14
3.49682e-14
-6.36907e-14
3.07261e-14
1.81823e-14
-6.13308e-14
2.39885e-14
1.36766e-14
-5.9868e-14
1.77878e-14
1.41197e-14
-5.92334e-14
1.21677e-14
1.45318e-14
-7.04138e-14
6.99895e-15
2.44079e-14
2.63107e-15
6.88585e-14
-4.66771e-15
2.12501e-13
7.47436e-14
7.48347e-14
-1.64035e-13
6.75769e-14
6.73125e-14
-1.37006e-13
5.68305e-14
6.86584e-14
-1.1811e-13
4.68569e-14
5.64412e-14
-1.11573e-13
3.78009e-14
4.40617e-14
-1.06231e-13
2.96018e-14
2.35363e-14
-9.71894e-14
2.22979e-14
1.9892e-14
-1.04998e-13
1.53077e-14
2.3606e-14
-1.19359e-13
9.75491e-15
3.10338e-14
3.26051e-15
5.37859e-14
-7.78023e-15
9.27773e-14
9.3312e-14
1.19392e-13
-2.86607e-13
8.17067e-14
1.16945e-13
-2.19262e-13
6.70462e-14
1.18998e-13
-1.81209e-13
5.41513e-14
9.76106e-14
-1.68663e-13
4.29827e-14
7.93051e-14
-1.56198e-13
3.30211e-14
4.90195e-14
-1.44774e-13
2.39895e-14
3.88993e-14
-1.49881e-13
1.64456e-14
4.23134e-14
-1.71334e-13
9.69799e-15
4.32042e-14
4.1734e-15
5.29063e-14
-9.95991e-15
-2.43999e-14
1.1807e-13
2.06867e-13
-4.42801e-13
9.95963e-14
2.08901e-13
-3.22433e-13
7.97934e-14
2.01881e-13
-2.59994e-13
6.25906e-14
1.66201e-13
-2.3719e-13
4.82196e-14
1.35467e-13
-2.17397e-13
3.64698e-14
1.07687e-13
-1.95359e-13
2.64971e-14
6.64262e-14
-1.98934e-13
1.7747e-14
5.83489e-14
-2.24736e-13
1.01105e-14
6.50416e-14
4.25977e-15
6.10964e-14
-1.34467e-14
-1.60842e-13
1.5098e-13
3.67451e-13
-6.47688e-13
1.23882e-13
3.71407e-13
-4.33169e-13
9.57955e-14
3.40285e-13
-3.59174e-13
7.32562e-14
2.76576e-13
-3.18185e-13
5.52684e-14
2.22402e-13
-2.85121e-13
4.02931e-14
1.81647e-13
-2.53047e-13
2.84025e-14
1.08655e-13
-2.43069e-13
1.89114e-14
8.75635e-14
-2.80685e-13
1.1427e-14
9.66175e-14
4.0732e-15
7.61976e-14
-1.65738e-14
-5.7395e-13
1.86914e-13
6.45782e-13
-9.25813e-13
1.54743e-13
6.47866e-13
-5.81444e-13
1.1616e-13
5.63963e-13
-4.82007e-13
8.60197e-14
4.43468e-13
-4.18402e-13
6.29283e-14
3.49748e-13
-3.62579e-13
4.52521e-14
2.78719e-13
-3.16604e-13
3.15835e-14
1.80049e-13
-2.87543e-13
2.00909e-14
1.30226e-13
-3.39931e-13
1.16973e-14
1.10821e-13
4.88675e-15
9.8667e-14
-1.97704e-14
-1.10401e-12
3.61459e-13
1.15297e-12
-1.30227e-12
2.27878e-13
1.11981e-12
-7.84606e-13
1.41441e-13
9.19347e-13
-6.37525e-13
1.03292e-13
6.97153e-13
-5.36487e-13
7.40382e-14
5.33398e-13
-4.53324e-13
5.45941e-14
4.15355e-13
-3.8816e-13
3.74811e-14
3.21202e-13
-3.40783e-13
2.42132e-14
1.91502e-13
-4.01584e-13
1.36242e-14
1.5003e-13
5.67406e-15
1.2661e-13
-2.30566e-14
-2.66296e-12
1.04486e-10
2.43956e-11
-1.52197e-12
1.20102e-12
2.09311e-12
-1.05109e-12
2.01656e-13
1.5024e-12
-8.34436e-13
1.68697e-13
1.08533e-12
-6.80043e-13
1.10718e-13
8.05025e-13
-5.60339e-13
6.89133e-14
6.06757e-13
-4.65464e-13
3.28122e-14
4.66913e-13
-3.99819e-13
1.82136e-14
2.69792e-13
-4.66776e-13
9.53053e-15
2.01822e-13
4.22548e-15
1.3426e-13
-2.65625e-14
-1.13644e-09
2.25402e-08
1.27616e-07
-8.89468e-12
1.92174e-10
5.77382e-10
-1.6523e-12
3.15666e-12
1.80947e-12
-1.07459e-12
1.61647e-12
8.82527e-14
-8.54049e-13
1.1721e-12
6.42824e-14
-6.82383e-13
8.58424e-13
5.01229e-14
-5.53792e-13
6.41759e-13
3.98502e-14
-4.62656e-13
3.84457e-13
3.23154e-14
-5.34798e-13
2.68166e-13
2.6485e-14
1.6356e-13
-3.00775e-14
2.23036e-14
3.39901e-13
8.16269e-14
1.41435e-14
-1.69773e-14
7.73872e-14
-5.68473e-15
-2.38232e-14
6.83267e-14
9.44877e-16
-2.06409e-14
5.95836e-14
6.72792e-15
-2.01757e-14
5.11157e-14
2.39857e-14
-2.11947e-14
4.29632e-14
5.61673e-14
-2.07132e-14
3.51438e-14
1.14476e-13
-1.89371e-14
2.76811e-14
4.24445e-13
-9.00635e-15
2.05288e-14
1.62977e-12
1.28425e-14
4.25786e-12
-1.65323e-14
2.89083e-13
5.88545e-14
2.03845e-14
-6.4659e-14
5.40139e-14
-8.6187e-15
-7.28359e-14
4.58613e-14
5.05174e-15
-6.69701e-14
3.80654e-14
1.0188e-14
-6.44493e-14
3.08421e-14
2.58063e-14
-6.16578e-14
2.41491e-14
5.51625e-14
-6.22166e-14
1.798e-14
9.85859e-14
-6.41088e-14
1.24359e-14
2.80022e-13
-6.86779e-14
7.4593e-15
9.73746e-13
2.70421e-15
2.80228e-12
-1.58645e-14
2.11617e-13
7.49488e-14
2.63504e-14
-1.64711e-13
6.76691e-14
-1.18299e-14
-1.36812e-13
5.70128e-14
8.00629e-15
-1.19104e-13
4.7009e-14
1.53653e-14
-1.12408e-13
3.79988e-14
2.957e-14
-1.06276e-13
2.9988e-14
5.84149e-14
-1.01162e-13
2.26835e-14
1.03915e-13
-1.07567e-13
1.55455e-14
2.11228e-13
-1.23825e-13
9.29679e-15
6.38821e-13
3.50947e-15
1.85306e-12
-1.28814e-14
9.21302e-14
9.37312e-14
4.57512e-14
-2.87095e-13
8.18994e-14
-4.86157e-15
-2.19588e-13
6.72168e-14
2.33668e-14
-1.81817e-13
5.43941e-14
3.18197e-14
-1.68163e-13
4.32293e-14
4.65398e-14
-1.56689e-13
3.31261e-14
6.98166e-14
-1.48099e-13
2.43946e-14
1.1405e-13
-1.53454e-13
1.70346e-14
1.84798e-13
-1.77449e-13
9.9468e-15
4.66791e-13
4.45187e-15
1.28283e-12
-9.343e-15
-2.53691e-14
1.18779e-13
8.19157e-14
-4.43428e-13
9.99604e-14
2.41251e-14
-3.22097e-13
8.01669e-14
5.71634e-14
-2.60852e-13
6.30455e-14
6.45157e-14
-2.3788e-13
4.86769e-14
7.45438e-14
-2.16897e-13
3.70966e-14
1.18654e-13
-1.9749e-13
2.67718e-14
1.31799e-13
-2.04275e-13
1.79156e-14
1.86997e-13
-2.31605e-13
1.06776e-14
3.82048e-13
4.2482e-15
9.31583e-13
-1.05458e-14
-1.62674e-13
1.51991e-13
1.51346e-13
-6.48475e-13
1.24415e-13
8.7429e-14
-4.32184e-13
9.6377e-14
1.2164e-13
-3.60772e-13
7.38198e-14
1.23158e-13
-3.18172e-13
5.58374e-14
1.26348e-13
-2.87191e-13
4.07609e-14
1.65467e-13
-2.5473e-13
2.8744e-14
1.66011e-13
-2.48669e-13
1.93311e-14
2.21216e-13
-2.88337e-13
1.16399e-14
3.46862e-13
4.54936e-15
7.15136e-13
-1.25336e-14
-5.79031e-13
1.94262e-13
2.83232e-13
-9.26748e-13
1.55891e-13
2.1125e-13
-5.82669e-13
1.1693e-13
2.36286e-13
-4.83756e-13
8.68127e-14
2.1869e-13
-4.19287e-13
6.36446e-14
2.04857e-13
-3.65457e-13
4.59327e-14
2.01609e-13
-3.18173e-13
3.25092e-14
1.75587e-13
-2.92239e-13
2.09863e-14
2.57033e-13
-3.4808e-13
1.24049e-14
3.43551e-13
5.10808e-15
5.8355e-13
-1.50813e-14
-1.11103e-12
3.1221e-13
4.95983e-13
-1.30381e-12
1.8614e-13
4.41833e-13
-7.87027e-13
1.45597e-13
4.30383e-13
-6.40119e-13
1.04668e-13
3.72731e-13
-5.38682e-13
7.53548e-14
3.27403e-13
-4.55677e-13
5.59358e-14
2.96211e-13
-3.91715e-13
3.86075e-14
3.62799e-13
-3.45046e-13
2.48817e-14
3.0941e-13
-4.10809e-13
1.43523e-14
3.6649e-13
6.34256e-15
5.04323e-13
-2.14984e-14
-2.12067e-12
4.25512e-11
-6.8596e-12
-1.76886e-12
3.26467e-13
5.80547e-13
-1.05893e-12
2.37353e-13
7.43378e-13
-8.3782e-13
1.72304e-13
6.081e-13
-6.84097e-13
1.12737e-13
5.03632e-13
-5.63014e-13
7.09172e-14
4.30029e-13
-4.72333e-13
3.40729e-14
5.06177e-13
-4.03611e-13
1.89911e-14
3.831e-13
-4.76642e-13
1.01052e-14
4.05377e-13
4.82018e-15
4.61467e-13
-2.58749e-14
-4.77849e-10
-1.21221e-08
9.12639e-08
-2.35217e-12
-2.66376e-10
1.38252e-10
-1.3208e-12
-5.53929e-13
-7.8492e-13
-1.09023e-12
9.91203e-13