/*--------------------------------*- C++ -*----------------------------------*\
| =========                 |                                                 |
| \\      /  F ield         | OpenFOAM: The Open Source CFD Toolbox           |
|  \\    /   O peration     | Version:  4.1                                   |
|   \\  /    A nd           | Web:      www.OpenFOAM.org                      |
|    \\/     M anipulation  |                                                 |
\*---------------------------------------------------------------------------*/
FoamFile
{
    version     2.0;
    format      ascii;
    class       volVectorField;
    location    "0.98";
    object      U;
}
// * * * * * * * * * * * * * * * * * * * * * * * * * * * * * * * * * * * * * //

dimensions      [0 1 -1 0 0 0 0];

internalField   nonuniform List<vector> 
18000
(
(8.99913e-14 3.83378e-13 -5.70475e-12)
(9.45449e-14 3.83312e-13 -5.64236e-12)
(8.51028e-14 -9.64539e-15 -5.57968e-12)
(7.58977e-14 -1.46734e-14 -5.51858e-12)
(6.69416e-14 -1.43686e-14 -5.45771e-12)
(5.8243e-14 -1.3963e-14 -5.39768e-12)
(4.98593e-14 -1.39966e-14 -5.33811e-12)
(4.18653e-14 -1.40282e-14 -5.27986e-12)
(3.40844e-14 -1.37844e-14 -5.22247e-12)
(2.66539e-14 -9.88049e-15 -5.16727e-12)
(1.39389e-13 3.93037e-13 -7.08917e-12)
(1.5067e-13 3.79293e-13 -6.84878e-12)
(1.31643e-13 -4.90244e-14 -6.61427e-12)
(1.13591e-13 -5.25882e-14 -6.39018e-12)
(9.68938e-14 -5.07876e-14 -6.17566e-12)
(8.14028e-14 -4.87414e-14 -5.96956e-12)
(6.68543e-14 -4.68122e-14 -5.77147e-12)
(5.35425e-14 -4.51707e-14 -5.58159e-12)
(4.10373e-14 -4.33663e-14 -5.3984e-12)
(2.94913e-14 -3.0766e-14 -5.2276e-12)
(1.56941e-13 3.93909e-13 -8.90767e-12)
(1.62979e-13 3.60505e-13 -8.38764e-12)
(1.34658e-13 -1.06642e-13 -7.8957e-12)
(1.09215e-13 -1.05376e-13 -7.43965e-12)
(8.67982e-14 -9.82196e-14 -7.01447e-12)
(6.69687e-14 -9.20888e-14 -6.61849e-12)
(4.93576e-14 -8.63651e-14 -6.25019e-12)
(3.37619e-14 -8.10135e-14 -5.90527e-12)
(1.99464e-14 -7.61439e-14 -5.58387e-12)
(7.79502e-15 -5.26724e-14 -5.2892e-12)
(2.13617e-13 3.79317e-13 -1.13235e-11)
(2.09148e-13 3.17385e-13 -1.03644e-11)
(1.6701e-13 -1.89883e-13 -9.49194e-12)
(1.31071e-13 -1.77703e-13 -8.7043e-12)
(1.00928e-13 -1.61046e-13 -7.99556e-12)
(7.54774e-14 -1.46324e-13 -7.35584e-12)
(5.41654e-14 -1.33255e-13 -6.77683e-12)
(3.59862e-14 -1.21664e-13 -6.25242e-12)
(2.07218e-14 -1.10869e-13 -5.77623e-12)
(7.95988e-15 -7.51287e-14 -5.35171e-12)
(2.97376e-13 3.36606e-13 -1.45778e-11)
(2.73064e-13 2.33863e-13 -1.29318e-11)
(2.0986e-13 -3.11039e-13 -1.14933e-11)
(1.58768e-13 -2.77961e-13 -1.02392e-11)
(1.18158e-13 -2.43193e-13 -9.14832e-12)
(8.5681e-14 -2.1386e-13 -8.19476e-12)
(5.95578e-14 -1.89089e-13 -7.35897e-12)
(3.85252e-14 -1.67934e-13 -6.62476e-12)
(2.16073e-14 -1.48946e-13 -5.97707e-12)
(8.03475e-15 -9.8719e-14 -5.41551e-12)
(4.24239e-13 2.44997e-13 -1.90224e-11)
(3.63825e-13 8.24531e-14 -1.63039e-11)
(2.67488e-13 -4.88792e-13 -1.40269e-11)
(1.94222e-13 -4.16941e-13 -1.21137e-11)
(1.39307e-13 -3.51433e-13 -1.0508e-11)
(9.75391e-14 -2.98761e-13 -9.15239e-12)
(6.56671e-14 -2.55793e-13 -8.00328e-12)
(4.1258e-14 -2.202e-13 -7.02465e-12)
(2.25085e-14 -1.8999e-13 -6.18626e-12)
(8.13001e-15 -1.23344e-13 -5.48022e-12)
(6.19483e-13 6.81923e-14 -2.51697e-11)
(4.92518e-13 -1.83738e-13 -2.07949e-11)
(3.43779e-13 -7.5404e-13 -1.72616e-11)
(2.37863e-13 -6.11919e-13 -1.44185e-11)
(1.63103e-13 -4.94707e-13 -1.21204e-11)
(1.09444e-13 -4.0517e-13 -1.02498e-11)
(7.05965e-14 -3.35152e-13 -8.71725e-12)
(4.23423e-14 -2.79847e-13 -7.45359e-12)
(2.16481e-14 -2.34803e-13 -6.40495e-12)
(6.43695e-15 -1.49021e-13 -5.54586e-12)
(-4.14871e-12 -2.622e-13 -3.38403e-11)
(-4.5093e-12 -6.48285e-13 -2.68564e-11)
(-4.48633e-12 -1.15294e-12 -2.14498e-11)
(-4.39829e-12 -8.87111e-13 -1.72872e-11)
(-4.27844e-12 -6.8516e-13 -1.40562e-11)
(-4.14292e-12 -5.38898e-13 -1.15248e-11)
(-4.00163e-12 -4.29838e-13 -9.5236e-12)
(-3.86022e-12 -3.47095e-13 -7.92824e-12)
(-3.72258e-12 -2.83063e-13 -6.64423e-12)
(-3.66879e-12 -1.75936e-13 -5.62413e-12)
(-7.08135e-09 -2.04528e-12 -1.01003e-10)
(-7.31757e-09 -1.79256e-12 -8.45189e-11)
(-6.91782e-09 -1.1099e-12 -7.11026e-11)
(-6.54894e-09 -6.55823e-13 -6.05666e-11)
(-6.21308e-09 -3.63325e-13 -5.21838e-11)
(-5.9069e-09 -1.72528e-13 -4.54172e-11)
(-5.62716e-09 -4.69433e-14 -3.98862e-11)
(-5.37098e-09 3.45061e-14 -3.53127e-11)
(-5.1367e-09 -1.1978e-13 -3.1491e-11)
(-5.07263e-09 -4.00244e-13 -2.87974e-11)
(7.94655e-07 -2.12529e-09 -8.24526e-08)
(3.90637e-08 -7.51097e-10 -7.29931e-08)
(2.9191e-08 9.41242e-10 -6.45757e-08)
(2.40123e-08 8.78804e-10 -5.74404e-08)
(1.9584e-08 8.06383e-10 -5.13512e-08)
(1.57622e-08 7.39701e-10 -4.6132e-08)
(1.24426e-08 6.79187e-10 -4.16348e-08)
(9.53886e-09 6.22074e-10 -3.77393e-08)
(6.26331e-09 1.69405e-10 -3.43533e-08)
(-1.42756e-07 -4.27086e-10 -3.23686e-08)
(2.50925e-13 3.63637e-13 -6.20712e-12)
(2.35904e-13 3.44641e-13 -6.13648e-12)
(2.07235e-13 -4.80417e-14 -6.06596e-12)
(1.79535e-13 -5.25861e-14 -5.99622e-12)
(1.52956e-13 -5.20881e-14 -5.92772e-12)
(1.27271e-13 -5.13948e-14 -5.86041e-12)
(1.02557e-13 -5.09432e-14 -5.79263e-12)
(7.88336e-14 -5.033e-14 -5.72736e-12)
(5.5783e-14 -4.90847e-14 -5.66263e-12)
(3.42388e-14 -2.85671e-14 -5.59969e-12)
(4.99703e-13 3.19948e-13 -7.78071e-12)
(4.62509e-13 2.38612e-13 -7.50651e-12)
(3.97074e-13 -1.8617e-13 -7.23856e-12)
(3.35687e-13 -1.84664e-13 -6.98348e-12)
(2.78414e-13 -1.78397e-13 -6.73983e-12)
(2.24942e-13 -1.72335e-13 -6.5056e-12)
(1.75014e-13 -1.6633e-13 -6.28213e-12)
(1.28304e-13 -1.61e-13 -6.06727e-12)
(8.4608e-14 -1.53713e-13 -5.86138e-12)
(4.44947e-14 -8.74925e-14 -5.66771e-12)
(6.09739e-13 2.42164e-13 -9.87784e-12)
(5.44824e-13 7.39085e-14 -9.27345e-12)
(4.51937e-13 -3.79229e-13 -8.70713e-12)
(3.68033e-13 -3.62066e-13 -8.18162e-12)
(2.93212e-13 -3.40588e-13 -7.69505e-12)
(2.26381e-13 -3.20498e-13 -7.24307e-12)
(1.66544e-13 -3.02271e-13 -6.82434e-12)
(1.13006e-13 -2.85302e-13 -6.43358e-12)
(6.52109e-14 -2.66806e-13 -6.06966e-12)
(2.3047e-14 -1.49811e-13 -5.73813e-12)
(7.88255e-13 1.10935e-13 -1.27066e-11)
(6.79915e-13 -1.77388e-13 -1.15759e-11)
(5.47784e-13 -6.48078e-13 -1.05567e-11)
(4.33464e-13 -5.98752e-13 -9.64064e-12)
(3.36072e-13 -5.47553e-13 -8.8214e-12)
(2.52589e-13 -5.02151e-13 -8.08599e-12)
(1.81116e-13 -4.61322e-13 -7.42453e-12)
(1.19942e-13 -4.2451e-13 -6.82806e-12)
(6.74658e-14 -3.87541e-13 -6.28743e-12)
(2.3456e-14 -2.14258e-13 -5.80806e-12)
(1.03452e-12 -1.04685e-13 -1.65884e-11)
(8.58632e-13 -5.59263e-13 -1.46142e-11)
(6.69822e-13 -1.02294e-12 -1.29078e-11)
(5.14057e-13 -9.14137e-13 -1.14312e-11)
(3.86928e-13 -8.11756e-13 -1.01571e-11)
(2.82799e-13 -7.23791e-13 -9.05272e-12)
(1.97499e-13 -6.47252e-13 -8.09126e-12)
(1.27513e-13 -5.80697e-13 -7.25163e-12)
(6.99954e-14 -5.17469e-13 -6.5151e-12)
(2.37747e-14 -2.81619e-13 -5.88063e-12)
(1.37878e-12 -4.52476e-13 -2.20109e-11)
(1.09979e-12 -1.13639e-12 -1.86773e-11)
(8.27128e-13 -1.54765e-12 -1.59293e-11)
(6.13831e-13 -1.33597e-12 -1.36432e-11)
(4.47672e-13 -1.14956e-12 -1.17475e-11)
(3.17626e-13 -9.94826e-13 -1.01636e-11)
(2.15671e-13 -8.64909e-13 -8.83379e-12)
(1.35553e-13 -7.55708e-13 -7.7096e-12)
(7.26419e-14 -6.56896e-13 -6.75422e-12)
(2.40585e-14 -3.51461e-13 -5.95497e-12)
(1.87179e-12 -1.00403e-12 -2.97163e-11)
(1.42783e-12 -2.0081e-12 -2.42059e-11)
(1.03152e-12 -2.29075e-12 -1.98547e-11)
(7.37867e-13 -1.90208e-12 -1.63992e-11)
(5.20154e-13 -1.58215e-12 -1.3653e-11)
(3.57632e-13 -1.32667e-12 -1.14469e-11)
(2.3572e-13 -1.12006e-12 -9.66045e-12)
(1.44169e-13 -9.51946e-13 -8.20345e-12)
(7.52416e-14 -8.0673e-13 -7.00373e-12)
(2.43175e-14 -4.24597e-13 -6.0306e-12)
(2.41502e-12 -1.89843e-12 -4.09617e-11)
(1.44265e-12 -3.34115e-12 -3.18649e-11)
(9.16851e-13 -3.34585e-12 -2.50369e-11)
(5.57873e-13 -2.66612e-12 -1.98826e-11)
(3.08969e-13 -2.13772e-12 -1.59669e-11)
(1.351e-13 -1.73342e-12 -1.29503e-11)
(1.32039e-14 -1.41893e-12 -1.06013e-11)
(-7.21e-14 -1.17207e-12 -8.75087e-12)
(-1.31929e-13 -9.67711e-13 -7.27728e-12)
(-1.74481e-13 -5.00418e-13 -6.11976e-12)
(-3.07719e-10 -5.17522e-12 -1.17948e-10)
(-7.72533e-10 -6.9115e-12 -9.66171e-11)
(-6.41611e-10 -5.45968e-12 -7.98401e-11)
(-5.33499e-10 -4.25084e-12 -6.70311e-11)
(-4.48128e-10 -3.36793e-12 -5.71085e-11)
(-3.79757e-10 -2.71314e-12 -4.9266e-11)
(-3.24446e-10 -2.2173e-12 -4.29659e-11)
(-2.7928e-10 -1.83698e-12 -3.78312e-11)
(-2.42152e-10 -1.53654e-12 -3.35904e-11)
(-2.16071e-10 -9.87687e-13 -3.05984e-11)
(5.632e-07 -3.21884e-09 -9.25626e-08)
(-9.26992e-09 -2.53605e-09 -8.12146e-08)
(-1.14076e-08 -8.24021e-10 -7.0879e-08)
(-1.07348e-08 -7.60245e-10 -6.23335e-08)
(-1.00596e-08 -7.1286e-10 -5.52036e-08)
(-9.42073e-09 -6.65206e-10 -4.92031e-08)
(-8.82972e-09 -6.19558e-10 -4.41111e-08)
(-8.29177e-09 -5.76816e-10 -3.9757e-08)
(-7.86622e-09 -5.49719e-10 -3.60137e-08)
(-1.22808e-08 -6.01021e-10 -3.37788e-08)
(2.32645e-13 3.66552e-13 -5.21933e-13)
(2.1942e-13 3.44919e-13 -5.1283e-13)
(1.92363e-13 -4.80114e-14 -5.03942e-13)
(1.66581e-13 -5.25654e-14 -4.94953e-13)
(1.41863e-13 -5.16171e-14 -4.86326e-13)
(1.1797e-13 -5.12425e-14 -4.77887e-13)
(9.54499e-14 -5.07814e-14 -4.69394e-13)
(7.36457e-14 -4.99054e-14 -4.61698e-13)
(5.27609e-14 -4.90304e-14 -4.53873e-13)
(3.32798e-14 -2.58553e-14 -4.46135e-13)
(5.04476e-13 3.30326e-13 -7.21593e-13)
(4.65565e-13 2.3767e-13 -6.85364e-13)
(3.99005e-13 -1.87118e-13 -6.49517e-13)
(3.36625e-13 -1.85009e-13 -6.16147e-13)
(2.78722e-13 -1.78627e-13 -5.85177e-13)
(2.24772e-13 -1.72059e-13 -5.56432e-13)
(1.74766e-13 -1.65728e-13 -5.28286e-13)
(1.27984e-13 -1.60193e-13 -5.01816e-13)
(8.43064e-14 -1.52902e-13 -4.78583e-13)
(4.46924e-14 -7.98785e-14 -4.54352e-13)
(6.24039e-13 2.60572e-13 -1.01721e-12)
(5.54571e-13 6.73924e-14 -9.2766e-13)
(4.58591e-13 -3.84292e-13 -8.47829e-13)
(3.72109e-13 -3.65976e-13 -7.74767e-13)
(2.9548e-13 -3.42834e-13 -7.09349e-13)
(2.27514e-13 -3.21677e-13 -6.49601e-13)
(1.66928e-13 -3.02405e-13 -5.96122e-13)
(1.13126e-13 -2.85004e-13 -5.47879e-13)
(6.49812e-14 -2.65406e-13 -5.0317e-13)
(2.31665e-14 -1.36301e-13 -4.64415e-13)
(8.18457e-13 1.39529e-13 -1.45858e-12)
(7.00713e-13 -1.97405e-13 -1.27606e-12)
(5.61589e-13 -6.63325e-13 -1.11861e-12)
(4.42241e-13 -6.10205e-13 -9.81489e-13)
(3.41174e-13 -5.55229e-13 -8.63791e-13)
(2.55386e-13 -5.06645e-13 -7.62368e-13)
(1.82404e-13 -4.63316e-13 -6.75025e-13)
(1.20329e-13 -4.25316e-13 -5.98664e-13)
(6.75145e-14 -3.86762e-13 -5.3175e-13)
(2.35349e-14 -1.95968e-13 -4.73971e-13)
(1.09237e-12 -6.58004e-14 -2.13631e-12)
(8.96822e-13 -6.07437e-13 -1.78255e-12)
(6.94709e-13 -1.05874e-12 -1.49498e-12)
(5.29323e-13 -9.40411e-13 -1.25678e-12)
(3.95856e-13 -8.29394e-13 -1.06055e-12)
(2.87687e-13 -7.34847e-13 -8.99761e-13)
(1.99882e-13 -6.53692e-13 -7.6651e-13)
(1.28383e-13 -5.83715e-13 -6.55545e-13)
(7.03752e-14 -5.16983e-13 -5.62328e-13)
(2.41572e-14 -2.57545e-13 -4.85606e-13)
(1.48374e-12 -4.07859e-13 -3.20228e-12)
(1.16628e-12 -1.24108e-12 -2.53483e-12)
(8.68829e-13 -1.62214e-12 -2.02513e-12)
(6.38288e-13 -1.38874e-12 -1.62192e-12)
(4.61702e-13 -1.18419e-12 -1.31098e-12)
(3.25096e-13 -1.01644e-12 -1.06692e-12)
(2.19285e-13 -8.77534e-13 -8.74541e-13)
(1.37221e-13 -7.61961e-13 -7.20907e-13)
(7.32472e-14 -6.57541e-13 -5.95369e-13)
(2.45873e-14 -3.22968e-13 -4.97546e-13)
(2.05983e-12 -9.65123e-13 -4.91694e-12)
(1.54126e-12 -2.21972e-12 -3.67297e-12)
(1.0991e-12 -2.4356e-12 -2.78001e-12)
(7.76312e-13 -2.0003e-12 -2.11559e-12)
(5.4152e-13 -1.6442e-12 -1.63156e-12)
(3.68856e-13 -1.36513e-12 -1.27078e-12)
(2.41257e-13 -1.14198e-12 -9.9984e-13)
(1.46643e-13 -9.63151e-13 -7.93446e-13)
(7.61051e-14 -8.09477e-13 -6.32154e-13)
(2.50018e-14 -3.91027e-13 -5.11397e-13)
(3.23755e-12 -1.89834e-12 -7.77632e-12)
(2.07376e-12 -3.75758e-12 -5.43801e-12)
(1.40482e-12 -3.61537e-12 -3.87822e-12)
(9.48732e-13 -2.83924e-12 -2.79292e-12)
(6.34604e-13 -2.24352e-12 -2.04904e-12)
(4.15415e-13 -1.79664e-12 -1.52417e-12)
(2.61226e-13 -1.45473e-12 -1.14908e-12)
(1.52238e-13 -1.1908e-12 -8.75387e-13)
(7.47532e-14 -9.73347e-13 -6.73701e-13)
(2.10465e-14 -4.62372e-13 -5.26025e-13)
(5.21736e-10 -4.50496e-12 -1.83932e-11)
(-3.61686e-11 -7.16912e-12 -1.28678e-11)
(-2.96195e-11 -5.49135e-12 -9.22688e-12)
(-2.15563e-11 -4.10657e-12 -6.79221e-12)
(-1.60066e-11 -3.11709e-12 -5.15406e-12)
(-1.20908e-11 -2.40915e-12 -4.0161e-12)
(-9.27644e-12 -1.88957e-12 -3.20644e-12)
(-7.22068e-12 -1.50361e-12 -2.61722e-12)
(-5.69987e-12 -1.20002e-12 -2.17851e-12)
(-4.57439e-12 -5.82737e-13 -1.86671e-12)
(4.88146e-07 -1.96918e-09 -1.10076e-08)
(1.31678e-09 -1.77431e-09 -8.69507e-09)
(-8.52124e-10 -2.21103e-10 -6.61581e-09)
(-7.06375e-10 -1.64292e-10 -5.10351e-09)
(-5.80178e-10 -1.31645e-10 -3.99767e-09)
(-4.81348e-10 -1.06423e-10 -3.17337e-09)
(-4.02584e-10 -8.68191e-11 -2.54966e-09)
(-3.395e-10 -7.14544e-11 -2.07121e-09)
(-2.91931e-10 -5.93501e-11 -1.70011e-09)
(-3.55092e-10 -5.2835e-11 -1.44016e-09)
(2.26794e-13 3.67223e-13 -2.4944e-14)
(2.14238e-13 3.45179e-13 -2.38121e-14)
(1.8782e-13 -4.75669e-14 -2.13406e-14)
(1.62577e-13 -5.21163e-14 -2.02248e-14)
(1.3854e-13 -5.15088e-14 -1.85604e-14)
(1.15516e-13 -5.08672e-14 -1.73154e-14)
(9.33853e-14 -5.0224e-14 -1.60803e-14)
(7.2189e-14 -4.94446e-14 -1.44684e-14)
(5.20173e-14 -4.83176e-14 -1.399e-14)
(3.30218e-14 -2.51639e-14 -1.41419e-14)
(4.98019e-13 3.3357e-13 -3.76876e-14)
(4.60062e-13 2.39895e-13 -3.42153e-14)
(3.9435e-13 -1.85108e-13 -3.15699e-14)
(3.32802e-13 -1.82974e-13 -2.79659e-14)
(2.75653e-13 -1.76101e-13 -2.47554e-14)
(2.22425e-13 -1.70071e-13 -2.29572e-14)
(1.73006e-13 -1.64239e-13 -2.01906e-14)
(1.26876e-13 -1.57995e-13 -1.80793e-14)
(8.37639e-14 -1.50796e-13 -1.66392e-14)
(4.46159e-14 -7.74917e-14 -1.56334e-14)
(6.15598e-13 2.68388e-13 -5.98153e-14)
(5.47738e-13 7.26332e-14 -5.31062e-14)
(4.52973e-13 -3.79277e-13 -4.60088e-14)
(3.6764e-13 -3.61177e-13 -3.98773e-14)
(2.91995e-13 -3.38753e-13 -3.45824e-14)
(2.24793e-13 -3.17842e-13 -2.99928e-14)
(1.65183e-13 -2.98596e-13 -2.56763e-14)
(1.12072e-13 -2.8137e-13 -2.28136e-14)
(6.45801e-14 -2.62039e-13 -2.0372e-14)
(2.33317e-14 -1.32318e-13 -1.85492e-14)
(8.07653e-13 1.55074e-13 -9.69271e-14)
(6.92046e-13 -1.87436e-13 -8.33283e-14)
(5.54865e-13 -6.54832e-13 -6.9807e-14)
(4.37e-13 -6.02457e-13 -5.84412e-14)
(3.37218e-13 -5.48099e-13 -4.879e-14)
(2.52605e-13 -5.00137e-13 -4.14443e-14)
(1.80613e-13 -4.5752e-13 -3.46518e-14)
(1.19406e-13 -4.19679e-13 -2.9195e-14)
(6.73482e-14 -3.81569e-13 -2.56847e-14)
(2.39402e-14 -1.90851e-13 -2.2137e-14)
(1.07864e-12 -3.81787e-14 -1.63622e-13)
(8.86231e-13 -5.91154e-13 -1.33755e-13)
(6.86785e-13 -1.04454e-12 -1.07506e-13)
(5.23329e-13 -9.28309e-13 -8.60452e-14)
(3.91676e-13 -8.18951e-13 -6.97079e-14)
(2.84875e-13 -7.25437e-13 -5.599e-14)
(1.98237e-13 -6.45123e-13 -4.56688e-14)
(1.27814e-13 -5.76021e-13 -3.91066e-14)
(7.01421e-14 -5.10372e-13 -3.40659e-14)
(2.45818e-14 -2.50989e-13 -2.82971e-14)
(1.46612e-12 -3.59e-13 -2.8226e-13)
(1.15335e-12 -1.21549e-12 -2.17429e-13)
(8.59368e-13 -1.6014e-12 -1.68205e-13)
(6.31563e-13 -1.37136e-12 -1.28516e-13)
(4.5722e-13 -1.169e-12 -1.00282e-13)
(3.22321e-13 -1.00358e-12 -7.94389e-14)
(2.17889e-13 -8.66215e-13 -6.32345e-14)
(1.36705e-13 -7.52997e-13 -5.17027e-14)
(7.3272e-14 -6.50047e-13 -4.13668e-14)
(2.51597e-14 -3.14718e-13 -3.45923e-14)
(2.0373e-12 -8.80306e-13 -4.93393e-13)
(1.52508e-12 -2.18185e-12 -3.59579e-13)
(1.08802e-12 -2.40523e-12 -2.6114e-13)
(7.68939e-13 -1.9758e-12 -1.9249e-13)
(5.36856e-13 -1.62405e-12 -1.43905e-13)
(3.6617e-13 -1.34827e-12 -1.09475e-13)
(2.39903e-13 -1.12808e-12 -8.51337e-14)
(1.46147e-13 -9.52262e-13 -6.74368e-14)
(7.66754e-14 -8.0047e-13 -5.35501e-14)
(2.57838e-14 -3.81827e-13 -4.30737e-14)
(3.23238e-12 -1.75071e-12 -8.78387e-13)
(2.0588e-12 -3.70199e-12 -5.96595e-13)
(1.3956e-12 -3.5721e-12 -4.11134e-13)
(9.44594e-13 -2.80636e-12 -2.86768e-13)
(6.34058e-13 -2.21712e-12 -2.06092e-13)
(4.17368e-13 -1.77607e-12 -1.50785e-13)
(2.64701e-13 -1.43851e-12 -1.12437e-13)
(1.56717e-13 -1.17755e-12 -8.60133e-14)
(7.99264e-14 -9.63175e-13 -6.77821e-14)
(2.65599e-14 -4.52287e-13 -5.31674e-14)
(5.95279e-10 -4.12735e-12 -2.12908e-12)
(6.177e-12 -6.98679e-12 -1.04845e-12)
(6.90044e-13 -5.30854e-12 -6.80934e-13)
(4.48589e-13 -3.95904e-12 -4.66995e-13)
(2.8983e-13 -2.99717e-12 -3.31244e-13)
(1.69694e-13 -2.3106e-12 -2.44238e-13)
(8.35897e-14 -1.80765e-12 -1.85088e-13)
(2.29008e-14 -1.43454e-12 -1.44385e-13)
(-1.94302e-14 -1.14062e-12 -1.15308e-13)
(-4.59564e-14 -5.27462e-13 -9.46238e-14)
(4.8428e-07 -1.7091e-09 -1.39245e-09)
(2.35512e-09 -1.57904e-09 -4.99296e-10)
(-3.46222e-11 -3.70426e-11 -3.24755e-10)
(-3.05951e-11 -1.63163e-11 -2.17749e-10)
(-2.20046e-11 -1.15146e-11 -1.49771e-10)
(-1.61521e-11 -8.33178e-12 -1.05216e-10)
(-1.20453e-11 -6.12873e-12 -7.53402e-11)
(-9.11915e-12 -4.58389e-12 -5.48991e-11)
(-7.08171e-12 -3.4665e-12 -4.06741e-11)
(-7.1693e-12 -2.28294e-12 -3.07169e-11)
(2.26874e-13 3.67142e-13 -1.16935e-14)
(2.14228e-13 3.44548e-13 -1.0609e-14)
(1.88002e-13 -4.83834e-14 -8.04064e-15)
(1.62693e-13 -5.2638e-14 -5.73084e-15)
(1.38593e-13 -5.17597e-14 -4.54361e-15)
(1.15435e-13 -5.1234e-14 -3.51292e-15)
(9.34865e-14 -5.09371e-14 -2.83574e-15)
(7.23723e-14 -4.97765e-14 -1.56408e-15)
(5.20862e-14 -4.82129e-14 -5.53525e-16)
(3.31553e-14 -2.5407e-14 -4.93505e-16)
(4.98601e-13 3.33331e-13 -1.65056e-14)
(4.60561e-13 2.39581e-13 -1.47197e-14)
(3.9485e-13 -1.85476e-13 -1.16256e-14)
(3.33141e-13 -1.83799e-13 -9.93459e-15)
(2.75947e-13 -1.76913e-13 -6.95682e-15)
(2.22646e-13 -1.70359e-13 -4.98109e-15)
(1.73248e-13 -1.64337e-13 -4.28495e-15)
(1.27243e-13 -1.58467e-13 -3.73373e-15)
(8.41289e-14 -1.50885e-13 -2.61094e-15)
(4.50035e-14 -7.7376e-14 -1.90427e-15)
(6.16754e-13 2.6825e-13 -2.74157e-14)
(5.48853e-13 7.1917e-14 -2.43608e-14)
(4.53842e-13 -3.80406e-13 -1.969e-14)
(3.68419e-13 -3.62214e-13 -1.56495e-14)
(2.92719e-13 -3.39209e-13 -1.23253e-14)
(2.2554e-13 -3.18337e-13 -9.83256e-15)
(1.65733e-13 -2.98994e-13 -7.9051e-15)
(1.12604e-13 -2.81403e-13 -6.71625e-15)
(6.51491e-14 -2.61897e-13 -6.26764e-15)
(2.37925e-14 -1.32441e-13 -5.64248e-15)
(8.09769e-13 1.55005e-13 -4.6941e-14)
(6.94123e-13 -1.88459e-13 -4.09397e-14)
(5.56574e-13 -6.56019e-13 -3.40763e-14)
(4.38479e-13 -6.03643e-13 -2.77167e-14)
(3.38573e-13 -5.49029e-13 -2.26954e-14)
(2.5367e-13 -5.00957e-13 -1.85192e-14)
(1.81581e-13 -4.58274e-13 -1.56773e-14)
(1.20374e-13 -4.20202e-13 -1.3367e-14)
(6.83104e-14 -3.81924e-13 -1.13376e-14)
(2.4651e-14 -1.90433e-13 -1.06845e-14)
(1.08252e-12 -3.78606e-14 -8.26325e-14)
(8.89636e-13 -5.93075e-13 -7.15479e-14)
(6.89691e-13 -1.04736e-12 -5.82102e-14)
(5.2574e-13 -9.30414e-13 -4.66487e-14)
(3.93707e-13 -8.20674e-13 -3.88402e-14)
(2.86639e-13 -7.27173e-13 -3.17579e-14)
(1.99762e-13 -6.46002e-13 -2.5836e-14)
(1.29114e-13 -5.76236e-13 -2.25466e-14)
(7.14066e-14 -5.11019e-13 -1.97678e-14)
(2.56785e-14 -2.51516e-13 -1.69452e-14)
(1.47272e-12 -3.59324e-13 -1.46269e-13)
(1.15898e-12 -1.21956e-12 -1.21464e-13)
(8.63873e-13 -1.60547e-12 -9.69807e-14)
(6.35386e-13 -1.37522e-12 -7.73683e-14)
(4.60272e-13 -1.17202e-12 -6.22897e-14)
(3.2496e-13 -1.00611e-12 -5.16885e-14)
(2.20094e-13 -8.68446e-13 -4.14044e-14)
(1.38535e-13 -7.54436e-13 -3.47383e-14)
(7.47709e-14 -6.51253e-13 -3.02489e-14)
(2.64546e-14 -3.15313e-13 -2.56424e-14)
(2.0485e-12 -8.80696e-13 -2.61442e-13)
(1.53444e-12 -2.19045e-12 -2.08895e-13)
(1.09498e-12 -2.41364e-12 -1.6068e-13)
(7.74384e-13 -1.98253e-12 -1.24236e-13)
(5.41243e-13 -1.62962e-12 -9.86921e-14)
(3.69598e-13 -1.35282e-12 -7.84e-14)
(2.42724e-13 -1.13156e-12 -6.30887e-14)
(1.48545e-13 -9.54812e-13 -5.19467e-14)
(7.85744e-14 -8.02995e-13 -4.3468e-14)
(2.74393e-14 -3.83152e-13 -3.64822e-14)
(3.27567e-12 -1.752e-12 -4.70362e-13)
(2.07302e-12 -3.71989e-12 -3.56846e-13)
(1.40601e-12 -3.58799e-12 -2.60546e-13)
(9.52766e-13 -2.8184e-12 -1.95289e-13)
(6.40341e-13 -2.22668e-12 -1.4948e-13)
(4.22307e-13 -1.78368e-12 -1.16349e-13)
(2.68563e-13 -1.44436e-12 -9.16992e-14)
(1.59708e-13 -1.18221e-12 -7.35351e-14)
(8.22238e-14 -9.66897e-13 -5.97167e-14)
(2.84432e-14 -4.5445e-13 -5.02667e-14)
(6.35843e-10 -4.19829e-12 -1.28563e-12)
(8.40166e-12 -7.08373e-12 -6.0247e-13)
(1.81156e-12 -5.33368e-12 -4.18849e-13)
(1.15867e-12 -3.97722e-12 -3.03732e-13)
(7.4679e-13 -3.01126e-12 -2.24248e-13)
(4.73536e-13 -2.32122e-12 -1.69189e-13)
(2.90229e-13 -1.81567e-12 -1.28853e-13)
(1.66352e-13 -1.44054e-12 -1.00916e-13)
(8.17695e-14 -1.14531e-12 -7.97975e-14)
(2.57192e-14 -5.29418e-13 -6.45093e-14)
(5.14613e-07 -1.81075e-09 -9.93374e-10)
(2.68564e-09 -1.65544e-09 -3.17771e-11)
(8.79937e-12 -2.32887e-11 -1.2401e-11)
(1.11262e-13 -6.11171e-12 -7.3018e-12)
(9.2913e-14 -4.32156e-12 -4.41144e-12)
(8.35796e-14 -3.16547e-12 -2.77093e-12)
(6.13403e-14 -2.36761e-12 -1.79119e-12)
(3.93028e-14 -1.80609e-12 -1.18852e-12)
(1.87872e-14 -1.38732e-12 -8.05212e-13)
(-1.52259e-14 -6.42831e-13 -5.52143e-13)
(2.27363e-13 3.66815e-13 -1.38967e-14)
(2.14671e-13 3.43779e-13 -1.161e-14)
(1.88211e-13 -4.94513e-14 -9.79125e-15)
(1.63025e-13 -5.3455e-14 -6.6771e-15)
(1.38749e-13 -5.23432e-14 -5.1213e-15)
(1.1559e-13 -5.14979e-14 -2.99591e-15)
(9.34896e-14 -5.09533e-14 -2.09481e-15)
(7.24441e-14 -5.03128e-14 -1.59355e-15)
(5.22858e-14 -4.87048e-14 -9.01315e-16)
(3.32249e-14 -2.50588e-14 -1.74559e-15)
(4.99907e-13 3.32973e-13 -2.02244e-14)
(4.61744e-13 2.38176e-13 -1.80465e-14)
(3.95701e-13 -1.86749e-13 -1.27735e-14)
(3.33992e-13 -1.84605e-13 -1.05412e-14)
(2.76583e-13 -1.77855e-13 -7.97102e-15)
(2.23179e-13 -1.70951e-13 -5.78666e-15)
(1.73627e-13 -1.64579e-13 -4.14838e-15)
(1.27565e-13 -1.5852e-13 -3.40673e-15)
(8.45879e-14 -1.51407e-13 -3.45616e-15)
(4.53902e-14 -7.78781e-14 -2.90233e-15)
(6.19147e-13 2.67494e-13 -3.2311e-14)
(5.50896e-13 7.01552e-14 -2.883e-14)
(4.55722e-13 -3.82141e-13 -2.31982e-14)
(3.69842e-13 -3.63609e-13 -1.87754e-14)
(2.93995e-13 -3.40646e-13 -1.45132e-14)
(2.26563e-13 -3.19251e-13 -1.13489e-14)
(1.66722e-13 -2.9956e-13 -9.30087e-15)
(1.13427e-13 -2.81811e-13 -8.55243e-15)
(6.5854e-14 -2.62284e-13 -7.36053e-15)
(2.46616e-14 -1.32891e-13 -6.75846e-15)
(8.13901e-13 1.53346e-13 -5.63573e-14)
(6.97578e-13 -1.91261e-13 -4.86475e-14)
(5.59531e-13 -6.58926e-13 -4.01431e-14)
(4.40859e-13 -6.06027e-13 -3.23132e-14)
(3.4063e-13 -5.51014e-13 -2.61648e-14)
(2.55504e-13 -5.02331e-13 -2.09453e-14)
(1.83079e-13 -4.59151e-13 -1.80609e-14)
(1.21669e-13 -4.21119e-13 -1.61138e-14)
(6.93385e-14 -3.82436e-13 -1.45764e-14)
(2.56545e-14 -1.90678e-13 -1.26968e-14)
(1.08933e-12 -4.12332e-14 -9.90122e-14)
(8.95351e-13 -5.98072e-13 -8.3856e-14)
(6.94234e-13 -1.05204e-12 -6.88173e-14)
(5.29462e-13 -9.34321e-13 -5.59845e-14)
(3.96773e-13 -8.23738e-13 -4.63838e-14)
(2.89328e-13 -7.29828e-13 -3.88886e-14)
(2.01801e-13 -6.48274e-13 -3.18338e-14)
(1.30867e-13 -5.78108e-13 -2.71514e-14)
(7.29227e-14 -5.12322e-13 -2.29332e-14)
(2.68515e-14 -2.52155e-13 -2.0832e-14)
(1.48414e-12 -3.6555e-13 -1.72775e-13)
(1.16825e-12 -1.22896e-12 -1.44559e-13)
(8.71081e-13 -1.61417e-12 -1.14841e-13)
(6.40915e-13 -1.38193e-12 -9.14128e-14)
(4.6479e-13 -1.1772e-12 -7.44662e-14)
(3.28504e-13 -1.01066e-12 -6.19959e-14)
(2.23016e-13 -8.72164e-13 -5.03843e-14)
(1.40889e-13 -7.57037e-13 -4.19425e-14)
(7.67665e-14 -6.53567e-13 -3.62335e-14)
(2.81267e-14 -3.16513e-13 -3.17335e-14)
(2.06776e-12 -8.93521e-13 -3.05825e-13)
(1.54925e-12 -2.2079e-12 -2.44982e-13)
(1.10607e-12 -2.42906e-12 -1.90497e-13)
(7.82793e-13 -1.9944e-12 -1.48367e-13)
(5.47724e-13 -1.63881e-12 -1.18566e-13)
(3.74639e-13 -1.36045e-12 -9.52066e-14)
(2.46781e-13 -1.13761e-12 -7.68906e-14)
(1.51648e-13 -9.59623e-13 -6.21809e-14)
(8.10094e-14 -8.06622e-13 -5.22406e-14)
(2.95206e-14 -3.85151e-13 -4.48521e-14)
(3.32238e-12 -1.77749e-12 -5.44572e-13)
(2.0969e-12 -3.75352e-12 -4.17153e-13)
(1.42283e-12 -3.61567e-12 -3.10346e-13)
(9.65049e-13 -2.83903e-12 -2.34746e-13)
(6.49342e-13 -2.24224e-12 -1.81084e-13)
(4.29091e-13 -1.7959e-12 -1.42217e-13)
(2.73641e-13 -1.45427e-12 -1.13232e-13)
(1.63637e-13 -1.1899e-12 -8.90289e-14)
(8.52522e-14 -9.72623e-13 -7.20404e-14)
(3.08118e-14 -4.5748e-13 -6.08214e-14)
(6.76833e-10 -4.22462e-12 -6.99747e-13)
(8.99447e-12 -7.18448e-12 -7.00201e-13)
(1.87121e-12 -5.38391e-12 -5.04876e-13)
(1.19387e-12 -4.01263e-12 -3.65691e-13)
(7.69112e-13 -3.03731e-12 -2.72063e-13)
(4.88277e-13 -2.34105e-12 -2.05677e-13)
(3.00363e-13 -1.83071e-12 -1.57752e-13)
(1.73497e-13 -1.45192e-12 -1.22466e-13)
(8.6862e-14 -1.15409e-12 -9.71195e-14)
(2.93693e-14 -5.34304e-13 -7.90486e-14)
(5.60122e-07 -1.87766e-09 -4.40918e-10)
(2.89877e-09 -1.75938e-09 -2.1653e-13)
(1.18728e-11 -2.3905e-11 -1.12412e-12)
(1.16916e-12 -5.72949e-12 -7.411e-13)
(7.64619e-13 -4.09171e-12 -4.9529e-13)
(5.14263e-13 -3.02417e-12 -3.44978e-13)
(3.46578e-13 -2.27933e-12 -2.48562e-13)
(2.32191e-13 -1.74995e-12 -1.81795e-13)
(1.53165e-13 -1.35111e-12 -1.36893e-13)
(9.91205e-14 -6.16054e-13 -1.06143e-13)
(2.28026e-13 3.66214e-13 -1.57825e-14)
(2.15346e-13 3.42919e-13 -1.38238e-14)
(1.88556e-13 -5.03338e-14 -1.05298e-14)
(1.63365e-13 -5.44886e-14 -8.41086e-15)
(1.39077e-13 -5.32238e-14 -6.38308e-15)
(1.15885e-13 -5.2437e-14 -4.46549e-15)
(9.38096e-14 -5.14977e-14 -3.15821e-15)
(7.27083e-14 -5.02825e-14 -6.12742e-15)
(5.26302e-14 -4.82852e-14 -1.99869e-14)
(3.34799e-14 -2.55132e-14 -5.56195e-14)
(5.01479e-13 3.3233e-13 -2.40103e-14)
(4.63174e-13 2.367e-13 -1.98644e-14)
(3.96891e-13 -1.88375e-13 -1.58774e-14)
(3.34963e-13 -1.85677e-13 -1.24792e-14)
(2.77395e-13 -1.78794e-13 -1.02234e-14)
(2.23936e-13 -1.71888e-13 -7.85233e-15)
(1.74366e-13 -1.65314e-13 -6.80205e-15)
(1.28332e-13 -1.58808e-13 -7.07705e-15)
(8.51938e-14 -1.51307e-13 -1.34101e-14)
(4.58698e-14 -7.8693e-14 -3.93027e-14)
(6.2197e-13 2.66545e-13 -3.79234e-14)
(5.53238e-13 6.84488e-14 -3.18195e-14)
(4.57786e-13 -3.84197e-13 -2.55999e-14)
(3.71599e-13 -3.65544e-13 -2.09293e-14)
(2.95413e-13 -3.42106e-13 -1.72015e-14)
(2.27817e-13 -3.20435e-13 -1.44063e-14)
(1.67839e-13 -3.0019e-13 -1.2368e-14)
(1.14557e-13 -2.82326e-13 -1.23394e-14)
(6.69001e-14 -2.62933e-13 -1.63188e-14)
(2.53563e-14 -1.33981e-13 -3.12816e-14)
(8.18832e-13 1.51317e-13 -6.43103e-14)
(7.01635e-13 -1.94458e-13 -5.37612e-14)
(5.62881e-13 -6.62053e-13 -4.40654e-14)
(4.4372e-13 -6.0891e-13 -3.63811e-14)
(3.4314e-13 -5.53436e-13 -3.04023e-14)
(2.57705e-13 -5.04263e-13 -2.65882e-14)
(1.84942e-13 -4.60406e-13 -2.33386e-14)
(1.23188e-13 -4.21847e-13 -2.09799e-14)
(7.07196e-14 -3.83735e-13 -2.24409e-14)
(2.68476e-14 -1.92148e-13 -3.07476e-14)
(1.09749e-12 -4.51536e-14 -1.12855e-13)
(9.02089e-13 -6.03856e-13 -9.28574e-14)
(6.99619e-13 -1.05739e-12 -7.52399e-14)
(5.33839e-13 -9.38782e-13 -6.24594e-14)
(4.00489e-13 -8.27307e-13 -5.26478e-14)
(2.92547e-13 -7.33062e-13 -4.53366e-14)
(2.04544e-13 -6.51028e-13 -3.99915e-14)
(1.32998e-13 -5.80267e-13 -3.52504e-14)
(7.47074e-14 -5.14131e-13 -3.2158e-14)
(2.86226e-14 -2.53855e-13 -3.7117e-14)
(1.49779e-12 -3.73138e-13 -1.98942e-13)
(1.17895e-12 -1.23955e-12 -1.59892e-13)
(8.79433e-13 -1.62401e-12 -1.2742e-13)
(6.47638e-13 -1.38998e-12 -1.0392e-13)
(4.70148e-13 -1.18335e-12 -8.57199e-14)
(3.32925e-13 -1.01587e-12 -7.34198e-14)
(2.26645e-13 -8.76937e-13 -6.19548e-14)
(1.43742e-13 -7.60829e-13 -5.28752e-14)
(7.92069e-14 -6.56272e-13 -4.73807e-14)
(3.01495e-14 -3.18868e-13 -4.72904e-14)
(2.09057e-12 -9.08757e-13 -3.49188e-13)
(1.5663e-12 -2.22793e-12 -2.7034e-13)
(1.11893e-12 -2.44611e-12 -2.11275e-13)
(7.92763e-13 -2.00807e-12 -1.68144e-13)
(5.5544e-13 -1.64952e-12 -1.35127e-13)
(3.80705e-13 -1.36935e-12 -1.11747e-13)
(2.51681e-13 -1.14525e-12 -9.14234e-14)
(1.55463e-13 -9.65687e-13 -7.71438e-14)
(8.39658e-14 -8.11312e-13 -6.66359e-14)
(3.18969e-14 -3.88497e-13 -6.10897e-14)
(3.32135e-12 -1.80734e-12 -6.15719e-13)
(2.12324e-12 -3.79122e-12 -4.57478e-13)
(1.44279e-12 -3.64653e-12 -3.45439e-13)
(9.79607e-13 -2.86262e-12 -2.64826e-13)
(6.6022e-13 -2.26036e-12 -2.06574e-13)
(4.37274e-13 -1.81002e-12 -1.65111e-13)
(2.79982e-13 -1.46632e-12 -1.34876e-13)
(1.68483e-13 -1.20003e-12 -1.08922e-13)
(8.89381e-14 -9.80119e-13 -9.05511e-14)
(3.36679e-14 -4.62062e-13 -7.83387e-14)
(6.71866e-10 -3.8633e-12 1.87728e-12)
(8.39213e-12 -7.14774e-12 -7.25967e-13)
(1.89812e-12 -5.43683e-12 -5.6629e-13)
(1.21636e-12 -4.05355e-12 -4.1341e-13)
(7.85083e-13 -3.06772e-12 -3.1183e-13)
(4.99755e-13 -2.36437e-12 -2.39942e-13)
(3.08706e-13 -1.84954e-12 -1.89956e-13)
(1.79538e-13 -1.46639e-12 -1.47017e-13)
(9.13552e-14 -1.16535e-12 -1.20282e-13)
(3.26187e-14 -5.41151e-13 -1.00499e-13)
(5.80847e-07 -1.41864e-09 3.06585e-09)
(2.77121e-09 -1.74039e-09 4.91343e-11)
(9.40009e-12 -2.22625e-11 -6.2456e-13)
(1.20516e-12 -5.77023e-12 -6.39377e-13)
(7.94544e-13 -4.13463e-12 -4.64554e-13)
(5.33529e-13 -3.05727e-12 -3.4382e-13)
(3.59525e-13 -2.30584e-12 -2.61656e-13)
(2.41168e-13 -1.77025e-12 -1.95469e-13)
(1.59296e-13 -1.36665e-12 -1.54577e-13)
(1.03704e-13 -6.2487e-13 -1.24654e-13)
(2.28413e-13 3.66066e-13 -1.07912e-14)
(2.1499e-13 3.41814e-13 -4.13841e-16)
(1.88625e-13 -5.1503e-14 -1.10905e-15)
(1.63555e-13 -5.50666e-14 -4.78831e-15)
(1.39628e-13 -5.39696e-14 -1.41825e-14)
(1.1689e-13 -5.29965e-14 -3.18705e-14)
(9.53758e-14 -5.07855e-14 -6.44922e-14)
(7.62232e-14 -4.54932e-14 -2.38886e-13)
(5.96919e-14 -3.62164e-14 -9.16033e-13)
(3.8043e-14 -4.67376e-14 -2.39295e-12)
(5.02522e-13 3.31549e-13 -1.3194e-14)
(4.63099e-13 2.35672e-13 3.95619e-15)
(3.97204e-13 -1.89195e-13 1.7452e-16)
(3.35483e-13 -1.86565e-13 -3.48467e-15)
(2.78299e-13 -1.79727e-13 -1.28524e-14)
(2.25281e-13 -1.72822e-13 -2.96669e-14)
(1.76072e-13 -1.66069e-13 -5.49e-14)
(1.3084e-13 -1.59565e-13 -1.57447e-13)
(8.90009e-14 -1.51547e-13 -5.47302e-13)
(4.6447e-14 -1.16827e-13 -1.57378e-12)
(6.2376e-13 2.65616e-13 -2.18766e-14)
(5.53727e-13 6.70797e-14 3.39627e-15)
(4.58417e-13 -3.85067e-13 1.21565e-15)
(3.72572e-13 -3.66086e-13 -4.53615e-15)
(2.96781e-13 -3.42988e-13 -1.34638e-14)
(2.29757e-13 -3.21791e-13 -3.05319e-14)
(1.70132e-13 -3.02188e-13 -5.67187e-14)
(1.17146e-13 -2.84563e-13 -1.17669e-13)
(7.04394e-14 -2.68759e-13 -3.60345e-13)
(2.64981e-14 -1.75717e-13 -1.0392e-12)
(8.22107e-13 1.50429e-13 -3.88621e-14)
(7.02834e-13 -1.95374e-13 -1.00468e-15)
(5.64318e-13 -6.62821e-13 -3.63724e-15)
(4.45509e-13 -6.09536e-13 -1.02764e-14)