/*--------------------------------*- C++ -*----------------------------------*\
| =========                 |                                                 |
| \\      /  F ield         | OpenFOAM: The Open Source CFD Toolbox           |
|  \\    /   O peration     | Version:  4.1                                   |
|   \\  /    A nd           | Web:      www.OpenFOAM.org                      |
|    \\/     M anipulation  |                                                 |
\*---------------------------------------------------------------------------*/
FoamFile
{
    version     2.0;
    format      ascii;
    class       volScalarField;
    location    "0.92";
    object      Ma;
}
// * * * * * * * * * * * * * * * * * * * * * * * * * * * * * * * * * * * * * //

dimensions      [0 0 0 0 0 0 0];

internalField   nonuniform List<scalar> 
18000
(
5.10613e-12
5.05029e-12
4.9826e-12
4.92762e-12
4.87303e-12
4.81909e-12
4.76567e-12
4.71341e-12
4.66187e-12
4.61232e-12
6.34795e-12
6.13178e-12
5.91188e-12
5.71044e-12
5.51764e-12
5.3325e-12
5.15463e-12
4.98421e-12
4.81986e-12
4.66637e-12
7.98146e-12
7.51251e-12
7.06351e-12
6.65332e-12
6.27099e-12
5.91517e-12
5.58433e-12
5.27472e-12
4.9863e-12
4.72162e-12
1.01566e-11
9.2901e-12
8.50086e-12
7.79152e-12
7.1536e-12
6.57816e-12
6.05781e-12
5.58676e-12
5.15935e-12
4.77779e-12
1.30937e-11
1.16041e-11
1.03066e-11
9.17529e-12
8.19209e-12
7.3335e-12
6.58169e-12
5.92185e-12
5.34016e-12
4.83521e-12
1.71168e-11
1.46516e-11
1.25978e-11
1.08684e-11
9.41898e-12
8.19693e-12
7.16224e-12
6.282e-12
5.52878e-12
4.89354e-12
2.27017e-11
1.87224e-11
1.55307e-11
1.29548e-11
1.08764e-11
9.18775e-12
7.80631e-12
6.66896e-12
5.72623e-12
4.95278e-12
3.07688e-11
2.44788e-11
1.96443e-11
1.59253e-11
1.30589e-11
1.08314e-11
9.08624e-12
7.70927e-12
6.61419e-12
5.78051e-12
5.94918e-09
6.10958e-09
5.77106e-09
5.4599e-09
5.17716e-09
4.91982e-09
4.68501e-09
4.47023e-09
4.2739e-09
4.21167e-09
6.65647e-07
6.9871e-08
5.97837e-08
5.24413e-08
4.62304e-08
4.09561e-08
3.64626e-08
3.26243e-08
2.92269e-08
1.2135e-07
5.52872e-12
5.4644e-12
5.39243e-12
5.32961e-12
5.26802e-12
5.20756e-12
5.14685e-12
5.08841e-12
5.03054e-12
4.97422e-12
6.93686e-12
6.68823e-12
6.44542e-12
6.2157e-12
5.99651e-12
5.78621e-12
5.58582e-12
5.39347e-12
5.20942e-12
5.03531e-12
8.80599e-12
8.2618e-12
7.76011e-12
7.28842e-12
6.85198e-12
6.44708e-12
6.0723e-12
5.72304e-12
5.39807e-12
5.09889e-12
1.13335e-11
1.03203e-11
9.42204e-12
8.59986e-12
7.86501e-12
7.20599e-12
6.6139e-12
6.08054e-12
5.5974e-12
5.16287e-12
1.48087e-11
1.30464e-11
1.15415e-11
1.02148e-11
9.07064e-12
8.08e-12
7.21844e-12
6.46684e-12
5.80783e-12
5.22986e-12
1.96734e-11
1.67063e-11
1.42748e-11
1.22171e-11
1.05118e-11
9.08876e-12
7.89509e-12
6.88712e-12
6.03085e-12
5.29909e-12
2.6603e-11
2.17063e-11
1.78397e-11
1.47215e-11
1.22455e-11
1.02591e-11
8.65235e-12
7.34342e-12
6.26591e-12
5.37043e-12
3.67282e-11
2.86421e-11
2.25497e-11
1.78878e-11
1.43503e-11
1.16293e-11
9.51328e-12
7.84862e-12
6.52367e-12
5.45405e-12
2.63366e-10
6.14328e-10
5.09132e-10
4.22884e-10
3.54916e-10
3.00586e-10
2.56701e-10
2.20911e-10
1.91514e-10
1.70512e-10
4.72608e-07
6.83504e-08
5.99372e-08
5.27669e-08
4.67822e-08
4.17445e-08
3.74688e-08
3.38127e-08
3.06791e-08
2.97745e-08
5.81285e-13
5.60728e-13
4.56129e-13
4.41448e-13
4.27607e-13
4.15098e-13
4.03577e-13
3.93574e-13
3.84418e-13
3.74458e-13
8.05459e-13
7.36267e-13
6.68372e-13
6.16885e-13
5.69973e-13
5.28059e-13
4.90075e-13
4.56716e-13
4.28569e-13
3.88095e-13
1.04074e-12
9.20184e-13
8.84894e-13
7.95426e-13
7.15458e-13
6.45181e-13
5.84364e-13
5.3205e-13
4.8488e-13
4.06787e-13
1.42608e-12
1.24782e-12
1.21159e-12
1.0576e-12
9.2422e-13
8.11291e-13
7.15735e-13
6.34916e-13
5.63928e-13
4.32789e-13
2.03743e-12
1.77552e-12
1.68039e-12
1.42058e-12
1.20348e-12
1.02643e-12
8.81039e-13
7.61289e-13
6.58637e-13
4.65932e-13
3.01597e-12
2.60751e-12
2.35255e-12
1.91684e-12
1.57126e-12
1.29925e-12
1.08395e-12
9.12151e-13
7.68197e-13
5.05081e-13
4.60241e-12
3.90545e-12
3.32202e-12
2.59796e-12
2.05265e-12
1.64208e-12
1.32871e-12
1.0874e-12
8.92441e-13
5.50514e-13
7.33317e-12
5.94789e-12
4.73323e-12
3.53686e-12
2.68449e-12
2.07153e-12
1.62295e-12
1.28969e-12
1.031e-12
6.01017e-13
4.15255e-10
2.89745e-11
2.33482e-11
1.70123e-11
1.26634e-11
9.60289e-12
7.40708e-12
5.80543e-12
4.61822e-12
3.67366e-12
4.04108e-07
7.07192e-09
5.25493e-09
4.05331e-09
3.17448e-09
2.51999e-09
2.02501e-09
1.64546e-09
1.35144e-09
1.15806e-09
3.82494e-13
3.59837e-13
1.72189e-13
1.51784e-13
1.31486e-13
1.12405e-13
9.45703e-14
7.81685e-14
6.37043e-14
3.83465e-14
5.30997e-13
4.59565e-13
3.8599e-13
3.36431e-13
2.89791e-13
2.48164e-13
2.1145e-13
1.79666e-13
1.53057e-13
8.00274e-14
5.9579e-13
4.90282e-13
5.2366e-13
4.56614e-13
3.96238e-13
3.44911e-13
3.02299e-13
2.68287e-13
2.39159e-13
1.19773e-13
7.31314e-13
6.37333e-13
7.60953e-13
6.59441e-13
5.70114e-13
4.96362e-13
4.3564e-13
3.86339e-13
3.43217e-13
1.71077e-13
9.63319e-13
9.47956e-13
1.10866e-12
9.44377e-13
8.04298e-13
6.90333e-13
5.97626e-13
5.22445e-13
4.5635e-13
2.24292e-13
1.35405e-12
1.4918e-12
1.61254e-12
1.33837e-12
1.1124e-12
9.33905e-13
7.9115e-13
6.77672e-13
5.79372e-13
2.80755e-13
2.00324e-12
2.37181e-12
2.34328e-12
1.88023e-12
1.51633e-12
1.23808e-12
1.02177e-12
8.53254e-13
7.1234e-13
3.40438e-13
3.29042e-12
3.77672e-12
3.40651e-12
2.62722e-12
2.04509e-12
1.61731e-12
1.29608e-12
1.05228e-12
8.56379e-13
4.03283e-13
4.70541e-10
7.95376e-12
4.79118e-12
3.55795e-12
2.68364e-12
2.06148e-12
1.60802e-12
1.27353e-12
1.01229e-12
4.73143e-13
4.00941e-07
2.24754e-09
2.43365e-10
1.62924e-10
1.12016e-10
7.86878e-11
5.63537e-11
4.10819e-11
3.04634e-11
2.31676e-11
3.82091e-13
3.58978e-13
1.71819e-13
1.51238e-13
1.30837e-13
1.11676e-13
9.41226e-14
7.76419e-14
6.27559e-14
3.69154e-14
5.30641e-13
4.59181e-13
3.85849e-13
3.36424e-13
2.898e-13
2.47836e-13
2.11097e-13
1.79647e-13
1.52762e-13
7.91807e-14
5.95185e-13
4.8976e-13
5.23887e-13
4.56823e-13
3.96142e-13
3.44942e-13
3.02237e-13
2.67961e-13
2.38689e-13
1.19125e-13
7.30037e-13
6.36751e-13
7.61244e-13
6.59845e-13
5.70437e-13
4.96567e-13
4.35896e-13
3.865e-13
3.43183e-13
1.70118e-13
9.6018e-13
9.47202e-13
1.10988e-12
9.45363e-13
8.05177e-13
6.9138e-13
5.98082e-13
5.2232e-13
4.56559e-13
2.24128e-13
1.34608e-12
1.49109e-12
1.61404e-12
1.34051e-12
1.1142e-12
9.35574e-13
7.92685e-13
6.78593e-13
5.802e-13
2.80826e-13
1.98435e-12
2.37153e-12
2.34712e-12
1.88406e-12
1.5201e-12
1.2414e-12
1.02439e-12
8.55242e-13
7.14366e-13
3.4131e-13
3.26575e-12
3.77754e-12
3.41386e-12
2.63462e-12
2.05193e-12
1.62327e-12
1.30094e-12
1.05631e-12
8.59568e-13
4.05196e-13
5.01103e-10
9.06641e-12
4.99096e-12
3.67171e-12
2.74953e-12
2.09928e-12
1.62912e-12
1.28467e-12
1.0176e-12
4.72296e-13
4.25875e-07
2.46018e-09
2.14569e-11
7.38913e-12
4.88712e-12
3.3895e-12
2.43029e-12
1.7941e-12
1.3458e-12
6.86525e-13
3.82125e-13
3.58635e-13
1.72308e-13
1.51771e-13
1.31168e-13
1.11893e-13
9.4125e-14
7.79584e-14
6.31688e-14
3.68082e-14
5.31526e-13
4.59629e-13
3.8705e-13
3.37444e-13
2.90751e-13
2.48539e-13
2.11485e-13
1.7987e-13
1.53377e-13
7.974e-14
5.97053e-13
4.91541e-13
5.26246e-13
4.58689e-13
3.97897e-13
3.46162e-13
3.03129e-13
2.68594e-13
2.39199e-13
1.19702e-13
7.33877e-13
6.4078e-13
7.65107e-13
6.6294e-13
5.72995e-13
4.9847e-13
4.37193e-13
3.87658e-13
3.43896e-13
1.70571e-13
9.67541e-13
9.54682e-13
1.11605e-12
9.50375e-13
8.09111e-13
6.94717e-13
6.00748e-13
5.24446e-13
4.5801e-13
2.25043e-13
1.35968e-12
1.50439e-12
1.62476e-12
1.34864e-12
1.12053e-12
9.40848e-13
7.96908e-13
6.8157e-13
5.82694e-13
2.82496e-13
2.00955e-12
2.39443e-12
2.36534e-12
1.89793e-12
1.53073e-12
1.24998e-12
1.03111e-12
8.6038e-13
7.1824e-13
3.43994e-13
3.32075e-12
3.81873e-12
3.44535e-12
2.6579e-12
2.06933e-12
1.63675e-12
1.31166e-12
1.06442e-12
8.65603e-13
4.09151e-13
5.33598e-10
9.45491e-12
5.0537e-12
3.71387e-12
2.7795e-12
2.12135e-12
1.64552e-12
1.29679e-12
1.02684e-12
4.78488e-13
4.63942e-07
2.64797e-09
2.09427e-11
5.19061e-12
3.70106e-12
2.72639e-12
2.0484e-12
1.56775e-12
1.20788e-12
5.59573e-13
3.8206e-13
3.58373e-13
1.7285e-13
1.52416e-13
1.31757e-13
1.12497e-13
9.46216e-14
7.82783e-14
6.48781e-14
5.58941e-14
5.32495e-13
4.60231e-13
3.88701e-13
3.38711e-13
2.9186e-13
2.49623e-13
2.12443e-13
1.80557e-13
1.53878e-13
8.58055e-14
5.99284e-13
4.93569e-13
5.28918e-13
4.61058e-13
3.99774e-13
3.47745e-13
3.04195e-13
2.69496e-13
2.40231e-13
1.22951e-13
7.38375e-13
6.45362e-13
7.69346e-13
6.66671e-13
5.76155e-13
5.01061e-13
4.39023e-13
3.88845e-13
3.45504e-13
1.73323e-13
9.76131e-13
9.63219e-13
1.12303e-12
9.56074e-13
8.13715e-13
6.98729e-13
6.04144e-13
5.27071e-13
4.60192e-13
2.28005e-13
1.37592e-12
1.51907e-12
1.6368e-12
1.35837e-12
1.128e-12
9.47095e-13
8.02379e-13
6.85918e-13
5.8592e-13
2.86119e-13
2.03919e-12
2.42008e-12
2.38539e-12
1.91382e-12
1.54306e-12
1.26008e-12
1.03952e-12
8.6712e-13
7.235e-13
3.48809e-13
3.35099e-12
3.86368e-12
3.48026e-12
2.68425e-12
2.08941e-12
1.65235e-12
1.32472e-12
1.0752e-12
8.73752e-13
4.1547e-13
5.33141e-10
9.16498e-12
5.11226e-12
3.75836e-12
2.81248e-12
2.14651e-12
1.66574e-12
1.31202e-12
1.03885e-12
4.87549e-13
4.83743e-07
2.57903e-09
1.92697e-11
5.2326e-12
3.74362e-12
2.75981e-12
2.07536e-12
1.58826e-12
1.22398e-12
5.70842e-13
3.82014e-13
3.57194e-13
1.72976e-13
1.52637e-13
1.32833e-13
1.16224e-13
1.08047e-13
2.01369e-13
7.15858e-13
1.91911e-12
5.32693e-13
4.59513e-13
3.89112e-13
3.3939e-13
2.93057e-13
2.52097e-13
2.18295e-13
2.19954e-13
4.52936e-13
1.26404e-12
5.99975e-13
4.93204e-13
5.2953e-13
4.61816e-13
4.01106e-13
3.5038e-13
3.09885e-13
2.87313e-13
3.72613e-13
8.44211e-13
7.40048e-13
6.45173e-13
7.70021e-13
6.67604e-13
5.77518e-13
5.03607e-13
4.44907e-13
4.00911e-13
4.07331e-13
6.09248e-13
9.78866e-13
9.62855e-13
1.12347e-12
9.57011e-13
8.15317e-13
7.01096e-13
6.09745e-13
5.38034e-13
4.97342e-13
4.89994e-13
1.37925e-12
1.51808e-12
1.63685e-12
1.35955e-12
1.13019e-12
9.50605e-13
8.09127e-13
6.98255e-13
6.14081e-13
4.48438e-13
2.04227e-12
2.41813e-12
2.38527e-12
1.91568e-12
1.54633e-12
1.26524e-12
1.0478e-12
8.80603e-13
7.48615e-13
4.56605e-13
3.20975e-12
3.85942e-12
3.48053e-12
2.68803e-12
2.09506e-12
1.65938e-12
1.33428e-12
1.09118e-12
8.9952e-13
4.93843e-13
3.46603e-10
7.00122e-12
5.10092e-12
3.76533e-12
2.82157e-12
2.15714e-12
1.6795e-12
1.332e-12
1.06546e-12
5.49719e-13
3.72144e-07
1.25312e-09
1.05687e-11
5.19766e-12
3.75489e-12
2.7743e-12
2.09356e-12
1.61248e-12
1.25328e-12
6.2483e-13
4.1351e-13
4.52857e-13
2.53113e-13
1.55522e-13
2.56961e-13
7.20807e-13
1.67165e-12
6.72478e-12
2.55142e-11
5.46479e-11
5.94396e-13
6.28192e-13
4.95564e-13
3.67098e-13
3.05495e-13
6.18003e-13
1.27282e-12
4.20722e-12
1.52464e-11
3.6262e-11
7.21414e-13
7.89265e-13
7.01855e-13
5.38173e-13
3.94424e-13
5.17522e-13
1.09941e-12
2.87205e-12
9.80765e-12
2.41167e-11
9.42012e-13
1.07024e-12
1.00528e-12
7.92381e-13
5.90903e-13
5.39686e-13
1.01348e-12
2.13593e-12
6.77298e-12
1.65467e-11
1.29255e-12
1.50522e-12
1.4209e-12
1.12934e-12
8.62566e-13
6.8558e-13
9.15334e-13
1.79882e-12
4.97075e-12
1.17062e-11
1.84124e-12
2.1684e-12
1.99606e-12
1.57395e-12
1.20834e-12
9.29882e-13
9.32998e-13
1.66821e-12
3.83971e-12
8.51874e-12
2.69278e-12
3.18335e-12
2.80316e-12
2.16563e-12
1.64953e-12
1.25091e-12
1.06662e-12
1.50429e-12
3.09953e-12
6.36085e-12
3.92307e-12
4.73723e-12
3.9493e-12
2.9612e-12
2.21181e-12
1.65253e-12
1.30308e-12
1.44415e-12
2.60008e-12
4.86443e-12
2.47465e-10
6.68772e-12
5.59056e-12
4.04596e-12
2.93641e-12
2.14668e-12
1.62258e-12
1.50239e-12
2.25547e-12
3.80566e-12
1.11073e-07
2.95282e-09
1.36379e-11
5.40958e-12
3.85166e-12
2.74581e-12
2.01175e-12
1.66211e-12
2.04295e-12
3.05224e-12
2.49993e-12
2.34184e-12
1.49383e-12
1.73592e-13
2.75045e-12
9.25004e-12
3.05477e-11
1.32419e-10
3.57517e-10
4.633e-10
3.52329e-12
3.38819e-12
2.50011e-12
1.11886e-12
1.37388e-12
6.51768e-12
2.1213e-11
8.05048e-11
2.19991e-10
2.94792e-10
4.78928e-12
4.63797e-12
3.65674e-12
2.2599e-12
2.25788e-13
4.22772e-12
1.48087e-11
5.22245e-11
1.41784e-10
2.02692e-10
6.4528e-12
6.20738e-12
5.04156e-12
3.52411e-12
1.36237e-12
2.35582e-12
1.02804e-11
3.54807e-11
9.51609e-11
1.44597e-10
8.68818e-12
8.21192e-12
6.72571e-12
4.985e-12
2.75603e-12
7.77129e-13
7.04306e-12
2.46454e-11
6.60032e-11
1.05684e-10
1.17477e-11
1.08184e-11
8.8104e-12
6.68868e-12
4.24152e-12
1.09054e-12
4.51691e-12
1.72891e-11
4.70054e-11
7.87438e-11
1.60215e-11
1.4285e-11
1.14407e-11
8.71586e-12
5.90641e-12
2.62051e-12
2.4634e-12
1.22972e-11
3.41994e-11
5.96114e-11
2.21601e-11
1.8984e-11
1.48115e-11
1.11697e-11
7.78244e-12
4.21218e-12
9.86779e-13
8.62678e-12
2.52619e-11
4.57474e-11
7.17719e-10
2.58086e-11
1.92175e-11
1.41926e-11
9.94237e-12
5.91678e-12
1.63119e-12
5.80786e-12
1.88496e-11
3.55028e-11
1.01523e-06
4.17145e-09
2.79363e-11
1.79844e-11
1.24502e-11
7.74809e-12
3.14938e-12
3.60174e-12
1.41119e-11
2.78001e-11
3.28142e-12
2.95171e-12
1.93941e-12
1.97905e-12
8.61195e-12
3.19504e-11
1.48428e-10
5.04364e-10
8.78035e-10
9.93456e-10
4.33992e-12
4.04435e-12
3.07585e-12
1.62956e-12
5.34899e-12
2.13136e-11
8.92689e-11
3.01916e-10
5.40313e-10
5.95392e-10
5.62259e-12
5.30595e-12
4.35599e-12
2.67536e-12
2.87853e-12
1.39814e-11
5.66179e-11
1.89121e-10
3.5559e-10
3.87196e-10
7.25962e-12
6.82765e-12
5.79628e-12
4.13725e-12
1.93591e-12
8.72778e-12
3.70412e-11
1.2314e-10
2.42076e-10
2.61786e-10
9.39893e-12
8.71342e-12
7.46985e-12
5.7466e-12
3.03113e-12
4.99876e-12
2.44105e-11
8.23149e-11
1.68757e-10
1.81744e-10
1.22662e-11
1.11054e-11
9.4678e-12
7.52553e-12
4.77833e-12
2.57078e-12
1.58332e-11
5.59472e-11
1.19784e-10
1.2884e-10
1.62002e-11
1.42103e-11
1.19138e-11
9.55349e-12
6.6642e-12
2.6738e-12
9.89348e-12
3.84976e-11
8.59996e-11
9.28312e-11
2.17446e-11
1.83298e-11
1.49789e-11
1.19229e-11
8.68167e-12
4.45919e-12
5.59561e-12
2.65022e-11
6.23369e-11
6.77594e-11
3.3237e-10
2.50875e-11
1.89038e-11
1.47597e-11
1.09062e-11
6.52659e-12
2.84224e-12
1.80037e-11
4.54667e-11
4.99096e-11
2.23772e-07
1.00003e-08
7.02801e-11
1.81979e-11
1.33943e-11
8.63886e-12
2.90271e-12
1.17943e-11
3.32255e-11
3.69642e-11
1.03738e-12
1.28767e-12
1.54137e-12
3.18599e-12
8.323e-12
2.42398e-11
8.45085e-11
2.31994e-10
3.4181e-10
3.34386e-10
1.13813e-12
1.30513e-12
1.4291e-12
2.43323e-12
5.9818e-12
1.71088e-11
5.66876e-11
1.50735e-10
2.0788e-10
1.59326e-10
1.24461e-12
1.36574e-12
1.44549e-12
1.98119e-12
4.31149e-12
1.21144e-11
3.87631e-11
1.00608e-10
1.3285e-10
6.98791e-11
1.35821e-12
1.45738e-12
1.53902e-12
1.81929e-12
3.19473e-12
8.59501e-12
2.70363e-11
6.88052e-11
8.80893e-11
3.03231e-11
1.48069e-12
1.56981e-12
1.67138e-12
1.84151e-12
2.53364e-12
6.10918e-12
1.90094e-11
4.81319e-11
5.98628e-11
1.51223e-11
1.62309e-12
1.7007e-12
1.82116e-12
1.95284e-12
2.25004e-12
4.44224e-12
1.34333e-11
3.42524e-11
4.14142e-11
1.1426e-11
1.79307e-12
1.85366e-12
1.98085e-12
2.10539e-12
2.21748e-12
3.35853e-12
9.50946e-12
2.4511e-11
2.89843e-11
1.09484e-11
2.11409e-12
2.03299e-12
2.15536e-12
2.27479e-12
2.31191e-12
2.77363e-12
6.80425e-12
1.76564e-11
2.0442e-11
1.06481e-11
8.2142e-10
1.54116e-11
2.34248e-12
2.45384e-12
2.46553e-12
2.55296e-12
4.96056e-12
1.27849e-11
1.44732e-11
1.01532e-11
3.7904e-07
1.22577e-08
4.86728e-11
2.8639e-12
2.64002e-12
2.54875e-12
3.74453e-12
9.27672e-12
1.0216e-11
9.36881e-12
7.75545e-13
1.47816e-12
1.60347e-12
2.51435e-12
4.12814e-12
6.80631e-12
1.4587e-11
5.62356e-11
2.022e-10
5.37969e-10
7.11896e-13
1.32771e-12
1.38662e-12
2.13931e-12
3.47242e-12
5.74322e-12
1.10093e-11
3.49723e-11
1.23242e-10
3.21154e-10
6.4915e-13
1.18642e-12
1.19417e-12
1.81138e-12
2.91268e-12
4.79565e-12
8.71906e-12
2.30981e-11
7.87767e-11
2.00738e-10
5.96344e-13
1.06511e-12
1.03327e-12
1.55073e-12
2.45442e-12
4.01332e-12
7.04604e-12
1.61509e-11
5.23157e-11
1.30567e-10
5.50325e-13
9.61112e-13
8.96178e-13
1.32647e-12
2.07609e-12
3.38441e-12
5.76787e-12
1.18762e-11
3.58089e-11
8.76878e-11
5.1117e-13
8.72008e-13
7.81042e-13
1.14597e-12
1.77918e-12
2.86034e-12
4.77951e-12
9.08408e-12
2.51268e-11
6.05028e-11
4.77507e-13
7.95728e-13
6.83075e-13
9.92393e-13
1.52247e-12
2.42551e-12
4.01505e-12
7.1635e-12
1.80212e-11
4.2728e-11
9.4516e-13
7.31204e-13
6.00944e-13
8.62736e-13
1.31252e-12
2.07558e-12
3.39831e-12
5.78779e-12
1.31675e-11
3.0791e-11
1.20834e-09
4.34714e-11
6.14843e-13
7.51336e-13
1.13793e-12
1.78655e-12
2.89364e-12
4.76829e-12
9.78967e-12
2.26076e-11
3.76762e-07
3.7688e-08
2.7214e-10
2.98357e-12
9.46079e-13
1.53554e-12
2.46642e-12
3.98017e-12
7.37504e-12
1.68565e-11
1.04633e-12
1.83368e-12
1.63423e-12
2.1669e-12
3.01286e-12
4.35822e-12
6.68625e-12
1.23932e-11
4.98277e-11
1.77504e-10
9.73791e-13
1.68128e-12
1.4647e-12
1.93541e-12
2.66555e-12
3.79682e-12
5.68024e-12
9.93396e-12
3.49695e-11
1.07072e-10
9.0378e-13
1.53518e-12
1.30147e-12
1.71173e-12
2.34204e-12
3.30756e-12
4.83009e-12
7.88468e-12
2.46723e-11
6.84173e-11
8.42386e-13
1.40742e-12
1.1625e-12
1.51771e-12
2.06646e-12
2.89322e-12
4.16293e-12
6.36419e-12
1.77843e-11
4.57615e-11
7.88988e-13
1.2959e-12
1.0427e-12
1.35115e-12
1.83449e-12
2.54806e-12
3.6271e-12
5.28285e-12
1.29758e-11
3.16814e-11
7.42435e-13
1.19838e-12
9.38576e-13
1.20873e-12
1.62966e-12
2.25134e-12
3.18951e-12
4.49343e-12
9.56552e-12
2.25354e-11
7.0148e-13
1.11229e-12
8.48396e-13
1.08481e-12
1.45388e-12
2.00189e-12
2.81969e-12
3.88824e-12
7.10951e-12
1.63754e-11
1.33223e-12
1.03896e-12
7.70381e-13
9.76762e-13
1.30095e-12
1.78266e-12
2.4999e-12
3.40406e-12
5.32981e-12
1.21027e-11
1.73304e-09
7.67851e-11
8.08237e-13
8.80337e-13
1.16805e-12
1.59176e-12
2.22659e-12
3.00019e-12
4.0394e-12
9.05125e-12
4.61915e-07
6.59839e-08
6.61576e-10
3.38072e-12
9.77025e-13
1.42518e-12
1.98693e-12
2.65392e-12
3.07288e-12
6.8301e-12
1.4419e-12
2.30811e-12
1.65058e-12
1.89323e-12
2.27167e-12
2.81888e-12
3.77684e-12
5.72913e-12
1.31988e-11
2.86978e-11
1.36379e-12
2.16025e-12
1.53309e-12
1.76363e-12
2.113e-12
2.59637e-12
3.34543e-12
4.71659e-12
1.06083e-11
2.10612e-11
1.28522e-12
2.01288e-12
1.40939e-12
1.62367e-12
1.94566e-12
2.37745e-12
2.99679e-12
3.96268e-12
8.28915e-12
1.5661e-11
1.21573e-12
1.88119e-12
1.29773e-12
1.49547e-12
1.79287e-12
2.18599e-12
2.72176e-12
3.42779e-12
6.42489e-12
1.18467e-11
1.15414e-12
1.76338e-12
1.19751e-12
1.37856e-12
1.65474e-12
2.01524e-12
2.49599e-12
3.03868e-12
4.9634e-12
9.08413e-12
1.09923e-12
1.65711e-12
1.10749e-12
1.27378e-12
1.52662e-12
1.85964e-12
2.29726e-12
2.74238e-12
3.82262e-12
7.02056e-12
1.05056e-12
1.56176e-12
1.02662e-12
1.17851e-12
1.4107e-12
1.71917e-12
2.12534e-12
2.50087e-12
2.93882e-12
5.45052e-12
1.74889e-12
1.4793e-12
9.53879e-13
1.09184e-12
1.30523e-12
1.59093e-12
1.96835e-12
2.30158e-12
2.25287e-12
4.25033e-12
2.11838e-09
1.10981e-10
1.08179e-12
1.01174e-12
1.20844e-12
1.47297e-12
1.82403e-12
2.12825e-12
1.71973e-12
3.32241e-12
3.76744e-07
9.04804e-08
1.04313e-09
3.53381e-12
1.03271e-12
1.36115e-12
1.68779e-12
1.96843e-12
1.2996e-12
2.59101e-12
2.01344e-12
2.90648e-12
1.6161e-12
1.5977e-12
1.65847e-12
1.799e-12
2.13586e-12
2.91229e-12
6.17502e-12
8.5527e-12
1.93099e-12
2.77302e-12
1.55635e-12
1.55609e-12
1.6251e-12
1.74492e-12
1.97945e-12
2.47371e-12
5.03712e-12
7.05543e-12
1.84816e-12
2.6353e-12
1.47915e-12
1.4943e-12
1.572e-12
1.68446e-12
1.86073e-12
2.16053e-12
3.9998e-12
5.73556e-12
1.77311e-12
2.50836e-12
1.40406e-12
1.42986e-12
1.51479e-12
1.62667e-12
1.77358e-12
1.95217e-12
3.15418e-12
4.66224e-12
1.70493e-12
2.39087e-12
1.33164e-12
1.3662e-12
1.45698e-12
1.56991e-12
1.70261e-12
1.81319e-12
2.46827e-12
3.78597e-12
1.64362e-12
2.28285e-12
1.26322e-12
1.30296e-12
1.39692e-12
1.51358e-12
1.64489e-12
1.71319e-12
1.91491e-12
3.07019e-12
1.58771e-12
2.1831e-12
1.19894e-12
1.24176e-12
1.3368e-12
1.4561e-12
1.58961e-12
1.63833e-12
1.46267e-12
2.48589e-12
2.27394e-12
2.09624e-12
1.13836e-12
1.18305e-12
1.27864e-12
1.39815e-12
1.5334e-12
1.57802e-12
1.09722e-12
2.00561e-12
2.39629e-09
1.38425e-10
1.80895e-12
1.12665e-12
1.22144e-12
1.34128e-12
1.47776e-12
1.52513e-12
8.0403e-13
1.60926e-12
1.2187e-07
1.00826e-07
2.31348e-09
1.62531e-11
1.08326e-12
1.27931e-12
1.42027e-12
1.4701e-12
5.57501e-13
1.27744e-12
2.7805e-12
3.5832e-12
1.46492e-12
1.21341e-12
1.06472e-12
1.0036e-12
1.13196e-12
1.51498e-12
3.18822e-12
3.71814e-12
2.70056e-12
3.47925e-12
1.46211e-12
1.24669e-12
1.11724e-12
1.03599e-12
1.07337e-12
1.29423e-12
2.72924e-12
3.2683e-12
2.61857e-12
3.36659e-12
1.43824e-12
1.25592e-12
1.1484e-12
1.06557e-12
1.04891e-12
1.1392e-12
2.24597e-12
2.78889e-12
2.5429e-12
3.2586e-12
1.40652e-12
1.25292e-12
1.16625e-12
1.09196e-12
1.04903e-12
1.04732e-12
1.83083e-12
2.37628e-12
2.47315e-12
3.15652e-12
1.37166e-12
1.2424e-12
1.17434e-12
1.11163e-12
1.05917e-12
1.00346e-12
1.47394e-12
2.01994e-12
2.40826e-12
3.05868e-12
1.33371e-12
1.2254e-12
1.17425e-12
1.12544e-12
1.07546e-12
9.88327e-13
1.16659e-12
1.71071e-12
2.3484e-12
2.96677e-12
1.29449e-12
1.20364e-12
1.16784e-12
1.1331e-12
1.09112e-12
9.88911e-13
9.0451e-13
1.44302e-12
3.01062e-12
2.88605e-12
1.2551e-12
1.17955e-12
1.15579e-12
1.13391e-12
1.10292e-12
9.9887e-13
6.80702e-13
1.21325e-12
2.72147e-09
1.5418e-10
2.39165e-12
1.15501e-12
1.14027e-12
1.12966e-12
1.109e-12
1.01086e-12
4.89725e-13
1.01579e-12
1.72723e-07
9.22578e-08
2.17759e-09
2.48997e-11
1.08845e-12
1.11681e-12
1.10999e-12
1.01973e-12
3.21693e-13
8.49629e-13
3.68721e-12
4.24196e-12
1.15444e-12
7.62653e-13
4.95519e-13
3.5074e-13
4.84094e-13
7.90208e-13
1.94239e-12
1.9798e-12
3.61531e-12
4.17766e-12
1.19751e-12
8.4389e-13
6.00059e-13
4.21282e-13
4.27935e-13
6.35365e-13
1.77918e-12
1.85638e-12
3.5428e-12
4.10653e-12
1.21832e-12
9.01083e-13
6.83781e-13
5.00079e-13
4.23922e-13
5.15007e-13
1.54516e-12
1.66179e-12
3.4739e-12
4.03371e-12
1.22826e-12
9.43864e-13
7.5004e-13
5.7434e-13
4.56324e-13
4.37987e-13
1.33697e-12
1.48679e-12
3.40872e-12
3.96173e-12
1.22925e-12
9.74016e-13
8.03064e-13
6.39973e-13
5.0517e-13
4.08352e-13
1.15055e-12
1.32904e-12
3.34802e-12
3.891e-12
1.22381e-12
9.95504e-13
8.46041e-13
6.97873e-13
5.59785e-13
4.17358e-13
9.85911e-13
1.18796e-12
3.29033e-12
3.82169e-12
1.21359e-12
1.0094e-12
8.78962e-13
7.46586e-13
6.13522e-13
4.50541e-13
8.4257e-13
1.06324e-12
3.91421e-12
3.76265e-12
1.19998e-12
1.01698e-12
9.03824e-13
7.87215e-13
6.63433e-13
4.95599e-13
7.20145e-13
9.53465e-13
3.01546e-09
1.54032e-10
2.96297e-12
1.0244e-12
9.23749e-13
8.20811e-13
7.06907e-13
5.43974e-13
6.18326e-13
8.58905e-13
4.94666e-07
6.02242e-08
1.87467e-09
3.09088e-11
1.01033e-12
8.46062e-13
7.44387e-13
5.88389e-13
5.37579e-13
7.80826e-13
4.55851e-12
4.75308e-12
7.38623e-13
4.96138e-13
2.72367e-13
1.50312e-13
2.65396e-13
4.83766e-13
1.4051e-12
1.24207e-12
4.49766e-12
4.73234e-12
7.85225e-13
5.34821e-13
3.11573e-13
1.24623e-13
1.62577e-13
3.80717e-13
1.3931e-12
1.25223e-12
4.43852e-12
4.70709e-12
8.19553e-13
5.71916e-13
3.60984e-13
1.63225e-13
7.56781e-14
2.80634e-13
1.29034e-12
1.17837e-12
4.38084e-12
4.67696e-12
8.46846e-13
6.04864e-13
4.10485e-13
2.21498e-13
4.62967e-14
1.87379e-13
1.19743e-12
1.11043e-12
4.32595e-12
4.64365e-12
8.67083e-13
6.35085e-13
4.57159e-13
2.81495e-13
1.09158e-13
1.02731e-13
1.11208e-12
1.04778e-12
4.27278e-12
4.60759e-12
8.82477e-13
6.61007e-13
4.99631e-13
3.37663e-13
1.76693e-13
3.43519e-14
1.03441e-12
9.9072e-13
4.22232e-12
4.57112e-12
8.9346e-13
6.83427e-13
5.37565e-13
3.89419e-13
2.38897e-13
5.95563e-14
9.65682e-13
9.39372e-13
4.80967e-12
4.54258e-12
9.00039e-13
7.01388e-13
5.7087e-13
4.35692e-13
2.95486e-13
1.2272e-13
9.04732e-13
8.93493e-13
3.22197e-09
1.40876e-10
3.07062e-12
7.21238e-13
5.99572e-13
4.7628e-13
3.46987e-13
1.83108e-13
8.51641e-13
8.52136e-13
7.8597e-07
2.26179e-08
1.04407e-09
2.21119e-11
7.25198e-13
5.13348e-13
3.93657e-13
2.39903e-13
8.05842e-13
8.26545e-13
5.11577e-12
5.01354e-12
3.92159e-13
5.8857e-13
5.09267e-13
4.39514e-13
4.01462e-13
4.41416e-13
1.18239e-12
9.33109e-13
5.06202e-12
5.02025e-12
3.59882e-13
5.29152e-13
4.55981e-13
3.91966e-13
3.55787e-13
4.05242e-13
1.24252e-12
1.00226e-12
5.01249e-12
5.0272e-12
3.42789e-13
4.77486e-13
4.08973e-13
3.46564e-13
3.12916e-13
3.63585e-13
1.20149e-12
9.80491e-13
4.96381e-12
5.02765e-12
3.38827e-13
4.33171e-13
3.684e-13
3.08731e-13
2.74238e-13
3.24878e-13
1.16252e-12
9.58871e-13
4.91619e-12
5.02299e-12
3.45955e-13
3.98261e-13
3.37165e-13
2.78365e-13
2.41475e-13
2.89189e-13
1.12518e-12
9.38696e-13
4.87098e-12
5.01537e-12
3.59089e-13
3.71033e-13
3.11771e-13
2.53744e-13
2.1414e-13
2.57847e-13
1.09031e-12
9.19643e-13
4.8271e-12
5.00496e-12
3.75165e-13
3.50656e-13
2.94168e-13
2.36658e-13
1.94046e-13
2.2947e-13
1.05677e-12
9.02145e-13
5.39337e-12
5.00208e-12
3.92482e-13
3.35414e-13
2.81954e-13
2.25523e-13
1.78757e-13
2.06232e-13
1.02587e-12
8.84457e-13
3.32355e-09
1.28447e-10
2.84288e-12
3.25081e-13
2.73941e-13
2.19921e-13
1.71917e-13
1.87807e-13
9.94974e-13
8.67775e-13
9.6515e-07
3.19991e-08
9.10852e-10
1.74504e-11
3.07515e-13
2.20821e-13
1.74844e-13
1.80146e-13
9.66513e-13
9.06096e-13
5.11901e-12
4.98461e-12
3.60665e-13
6.12428e-13
5.38878e-13
4.65511e-13
4.13276e-13
4.33001e-13
1.11799e-12
8.91358e-13
5.0652e-12
4.99352e-12
3.00257e-13
5.44225e-13
4.81792e-13
4.17214e-13
3.73019e-13
4.05242e-13
1.18711e-12
9.63993e-13
5.01601e-12
5.00347e-12
2.58733e-13
4.82054e-13
4.28542e-13
3.71518e-13
3.32975e-13
3.68528e-13
1.1537e-12
9.45459e-13
4.96768e-12
5.00632e-12
2.3729e-13
4.2693e-13
3.80454e-13
3.30062e-13
2.96208e-13
3.34977e-13
1.12172e-12
9.27019e-13
4.92135e-12
5.00503e-12
2.35461e-13
3.80856e-13
3.39758e-13
2.94039e-13
2.63151e-13
3.03061e-13
1.09102e-12
9.10096e-13
4.87648e-12
4.99965e-12
2.47193e-13
3.42454e-13
3.05754e-13
2.62945e-13
2.33366e-13
2.7369e-13
1.06202e-12
8.93987e-13
4.83321e-12
4.99137e-12
2.66495e-13
3.10462e-13
2.77375e-13
2.37544e-13
2.08506e-13
2.46875e-13
1.03408e-12
8.79281e-13
5.39923e-12
4.99056e-12
2.89404e-13
2.85368e-13
2.55068e-13
2.1708e-13
1.8696e-13
2.22883e-13
1.00748e-12
8.64426e-13
3.32356e-09
1.28447e-10
2.82466e-12
2.65189e-13
2.36248e-13
2.01034e-13
1.71486e-13
2.02494e-13
9.8156e-13
8.50365e-13
9.6515e-07
3.19991e-08
9.10833e-10
1.74281e-11
2.45443e-13
1.92326e-13
1.65864e-13
1.90685e-13
9.5621e-13
9.04291e-13
4.56105e-12
4.67294e-12
6.4207e-13
5.08492e-13
3.33329e-13
2.26338e-13
2.61399e-13
4.22657e-13
1.18251e-12
1.1035e-12
4.50187e-12
4.66044e-12
6.74965e-13
5.1713e-13
3.36078e-13
1.93885e-13
1.82302e-13
3.42098e-13
1.20173e-12
1.1247e-12
4.44522e-12
4.64435e-12
7.04298e-13
5.33159e-13
3.56679e-13
1.97589e-13
1.18878e-13
2.58124e-13
1.12623e-12
1.06248e-12
4.39004e-12
4.62303e-12
7.29164e-13
5.51652e-13
3.85044e-13
2.25421e-13
9.10213e-14
1.80452e-13
1.05776e-12
1.00541e-12
4.33696e-12
4.59763e-12
7.51507e-13
5.71486e-13
4.16863e-13
2.64161e-13
1.1568e-13
1.14009e-13
9.95148e-13
9.53208e-13
4.28618e-12
4.56945e-12
7.6949e-13
5.91224e-13
4.49302e-13
3.06336e-13
1.62429e-13
6.82036e-14
9.38884e-13
9.07081e-13
4.23723e-12
4.53955e-12
7.84062e-13
6.09546e-13
4.80316e-13
3.4819e-13
2.1279e-13
7.48585e-14
8.88568e-13
8.65532e-13
4.82525e-12
4.51742e-12
7.95278e-13
6.26127e-13
5.09108e-13
3.87224e-13
2.61252e-13
1.1721e-13
8.44799e-13
8.28822e-13
3.22197e-09
1.40877e-10
3.03026e-12
6.43804e-13
5.34883e-13
4.24019e-13
3.07175e-13
1.66746e-13
8.07003e-13
7.97219e-13
7.8597e-07
2.26179e-08
1.04402e-09
2.20652e-11
6.50145e-13
4.57493e-13
3.49826e-13
2.16472e-13
7.74627e-13
7.9115e-13
3.68583e-12
4.14137e-12
1.00745e-12
6.56757e-13
3.95906e-13
2.19256e-13
3.31706e-13
6.06856e-13
1.45447e-12
1.67184e-12
3.61994e-12
4.09305e-12
1.05749e-12
7.3449e-13
4.98915e-13
3.08577e-13
2.9048e-13
4.82693e-13
1.36252e-12
1.58065e-12
3.55318e-12
4.03611e-12
1.08828e-12
7.94388e-13
5.83643e-13
3.978e-13
3.03064e-13
3.8259e-13
1.19162e-12
1.4173e-12
3.48881e-12
3.97686e-12
1.10743e-12
8.39888e-13
6.52319e-13
4.77732e-13
3.49507e-13
3.2136e-13
1.03738e-12
1.26969e-12
3.42775e-12
3.91613e-12
1.11868e-12
8.76314e-13
7.08991e-13
5.4768e-13
4.08317e-13
3.06337e-13
8.99738e-13
1.13727e-12
3.37019e-12
3.85587e-12
1.12233e-12
9.02709e-13
7.55246e-13
6.09224e-13
4.70024e-13
3.27148e-13
7.79113e-13
1.01912e-12
3.31517e-12
3.79595e-12
1.12135e-12
9.22635e-13
7.92312e-13
6.61303e-13
5.28088e-13
3.69933e-13
6.756e-13
9.16495e-13
3.93839e-12
3.74522e-12
1.11542e-12
9.36184e-13
8.22961e-13
7.05422e-13
5.81693e-13
4.20722e-13
5.9014e-13
8.26259e-13
3.01546e-09
1.54035e-10
2.92022e-12
9.49314e-13
8.46879e-13
7.42501e-13
6.28937e-13
4.72845e-13
5.21607e-13
7.505e-13
4.94666e-07
6.02242e-08
1.87464e-09
3.08721e-11
9.36911e-13
7.71651e-13
6.69361e-13
5.20681e-13
4.71677e-13
6.93462e-13
2.78275e-12
3.49212e-12
1.30249e-12
1.03645e-12
8.74901e-13
7.89637e-13
8.60727e-13
1.13642e-12
2.13492e-12
2.97447e-12
2.71222e-12
3.40958e-12
1.32181e-12
1.08904e-12
9.44511e-13
8.45204e-13
8.45293e-13
9.94405e-13
1.85737e-12
2.63817e-12
2.63793e-12
3.31547e-12
1.31755e-12
1.11726e-12
9.93281e-13
8.94868e-13
8.5229e-13
8.97922e-13
1.5299e-12
2.25584e-12
2.56761e-12
3.2233e-12
1.30428e-12
1.13094e-12
1.02697e-12
9.37441e-13
8.74216e-13
8.49009e-13
1.23986e-12
1.92266e-12
2.50238e-12
3.13387e-12
1.28415e-12
1.136e-12
1.04972e-12
9.72048e-13
9.04164e-13
8.33083e-13
9.89941e-13
1.63229e-12
2.44085e-12
3.04771e-12
1.25989e-12
1.13265e-12
1.06338e-12
9.9925e-13
9.35585e-13
8.38635e-13
7.73667e-13
1.38006e-12
2.38367e-12
2.96451e-12
1.23285e-12
1.12434e-12
1.06945e-12
1.01788e-12
9.63171e-13
8.55616e-13
5.86066e-13
1.16235e-12
3.04103e-12
2.89221e-12
1.20348e-12
1.11064e-12
1.06995e-12
1.03095e-12
9.84622e-13
8.77843e-13
4.23377e-13
9.75216e-13
2.72147e-09
1.54184e-10
2.35992e-12
1.09668e-12
1.06473e-12
1.03672e-12
1.00135e-12
9.00456e-13
2.85476e-13
8.15988e-13
1.72723e-07
9.22578e-08
2.17757e-09
2.48703e-11
1.02425e-12
1.03449e-12
1.01184e-12
9.18276e-13
1.60173e-13
6.83391e-13
2.03097e-12
2.8458e-12
1.46043e-12
1.38134e-12
1.38172e-12
1.44535e-12
1.64012e-12
2.0922e-12
3.67107e-12
6.28265e-12
1.95809e-12
2.73692e-12
1.43302e-12
1.37697e-12
1.38907e-12
1.44404e-12
1.57725e-12
1.85744e-12
3.04533e-12
5.26693e-12
1.88107e-12
2.61771e-12
1.38314e-12
1.34714e-12
1.37212e-12
1.42647e-12
1.52626e-12
1.68944e-12
2.43599e-12
4.30539e-12
1.81031e-12
2.50493e-12
1.33019e-12
1.31031e-12
1.34549e-12
1.40501e-12
1.49179e-12
1.57757e-12
1.93073e-12
3.51006e-12
1.74515e-12
2.39909e-12
1.27603e-12
1.26958e-12
1.31414e-12
1.37914e-12
1.46357e-12
1.50509e-12
1.518e-12
2.86045e-12
1.68503e-12