/*--------------------------------*- C++ -*----------------------------------*\
| =========                 |                                                 |
| \\      /  F ield         | OpenFOAM: The Open Source CFD Toolbox           |
|  \\    /   O peration     | Version:  4.1                                   |
|   \\  /    A nd           | Web:      www.OpenFOAM.org                      |
|    \\/     M anipulation  |                                                 |
\*---------------------------------------------------------------------------*/
FoamFile
{
    version     2.0;
    format      ascii;
    class       surfaceScalarField;
    location    "0.92";
    object      phi;
}
// * * * * * * * * * * * * * * * * * * * * * * * * * * * * * * * * * * * * * //

dimensions      [1 0 -1 0 0 0 0];

internalField   nonuniform List<scalar> 
51500
(
3.61546e-13
1.90538e-14
1.37882e-11
-7.5995e-16
2.29419e-14
1.36365e-11
-3.55835e-15
2.1322e-14
1.34848e-11
-3.14053e-15
1.96437e-14
1.3336e-11
-3.01969e-15
1.7939e-14
1.31883e-11
-2.93955e-15
1.62258e-14
1.30424e-11
-3.07604e-15
1.45388e-14
1.28976e-11
-2.97922e-15
1.29074e-14
1.27562e-11
-3.15723e-15
1.12675e-14
1.26165e-11
9.67213e-15
1.24822e-11
-7.17742e-17
3.61889e-13
1.04828e-14
1.71596e-11
-1.16982e-14
1.18586e-14
1.65738e-11
-1.16124e-14
1.0076e-14
1.60042e-11
-1.13211e-14
8.3778e-15
1.54583e-11
-1.0957e-14
6.83636e-15
1.49359e-11
-1.05495e-14
5.42996e-15
1.44341e-11
-1.02278e-14
4.11903e-15
1.39522e-11
-9.94791e-15
3.48573e-15
1.34902e-11
-9.83049e-15
2.21941e-15
1.30449e-11
8.98212e-16
1.26287e-11
-9.00321e-16
3.57207e-13
1.33014e-14
2.15975e-11
-2.69391e-14
1.43597e-14
2.03269e-11
-2.31338e-14
1.1834e-14
1.91293e-11
-2.18037e-14
9.57776e-15
1.80166e-11
-2.05428e-14
7.57914e-15
1.69798e-11
-1.96219e-14
5.80016e-15
1.60149e-11
-1.84776e-14
4.24852e-15
1.51178e-11
-1.76665e-14
2.85561e-15
1.42784e-11
-1.72153e-14
1.64334e-15
1.34963e-11
6.30632e-16
1.27788e-11
-1.58467e-15
3.4429e-13
1.75945e-14
2.7509e-11
-4.85038e-14
1.78171e-14
2.51602e-11
-3.83753e-14
1.42705e-14
2.30303e-11
-3.53345e-14
1.11989e-14
2.11052e-11
-3.25985e-14
8.62672e-15
1.93744e-11
-3.0161e-14
6.45201e-15
1.78134e-11
-2.79487e-14
4.61753e-15
1.6402e-11
-2.59669e-14
3.03964e-15
1.51246e-11
-2.45338e-14
1.70634e-15
1.39655e-11
5.93181e-16
1.29311e-11
-2.40498e-15
3.16786e-13
2.37266e-14
3.54971e-11
-8.75419e-14
2.24827e-14
3.14553e-11
-5.91578e-14
1.73872e-14
2.79333e-11
-5.27601e-14
1.323e-14
2.48615e-11
-4.73523e-14
9.89381e-15
2.21928e-11
-4.26352e-14
7.20284e-15
1.98629e-11
-3.86931e-14
5.00109e-15
1.78231e-11
-3.50947e-14
3.2269e-15
1.60332e-11
-3.24419e-14
1.77978e-15
1.44557e-11
6.35325e-16
1.30869e-11
-3.19601e-15
2.63875e-13
3.27129e-14
4.64473e-11
-1.57999e-13
2.8939e-14
3.97502e-11
-8.73067e-14
2.15027e-14
3.41568e-11
-7.53814e-14
1.57488e-14
2.94588e-11
-6.56283e-14
1.14102e-14
2.55231e-11
-5.76017e-14
8.0508e-15
2.22059e-11
-5.07951e-14
5.46799e-15
1.93981e-11
-4.502e-14
3.44071e-15
1.701e-11
-4.06252e-14
1.86423e-15
1.49671e-11
7.01167e-16
1.32452e-11
-4.10067e-15
1.69581e-13
5.75984e-14
6.16623e-11
-2.47515e-13
4.7205e-14
5.08362e-11
-1.26303e-13
3.34737e-14
4.2126e-11
-1.04833e-13
2.35172e-14
3.51252e-11
-8.84596e-14
1.63581e-14
2.94799e-11
-7.5213e-14
1.1145e-14
2.48948e-11
-6.46554e-14
7.26486e-15
2.11453e-11
-5.59102e-14
4.3955e-15
1.80595e-11
-4.93357e-14
2.23056e-15
1.55023e-11
5.79174e-16
1.34061e-11
-4.96283e-15
7.57624e-14
-7.16257e-13
8.3212e-11
-3.62937e-13
-8.00769e-13
6.58369e-11
-1.78371e-13
-8.25764e-13
5.2453e-11
-1.42064e-13
-8.41849e-13
4.21744e-11
-1.15337e-13
-8.52769e-13
3.42218e-11
-9.5011e-14
-8.60158e-13
2.80087e-11
-7.91109e-14
-8.6512e-13
2.3109e-11
-6.66449e-14
-8.6844e-13
1.92113e-11
-5.68336e-14
-8.70707e-13
1.60807e-11
-8.9018e-13
1.35921e-11
-5.9269e-15
4.10888e-12
-1.09656e-09
1.9826e-10
3.83319e-12
-1.21198e-09
1.59393e-10
3.48327e-12
-1.22505e-09
1.33306e-10
3.16937e-12
-1.2349e-09
1.13644e-10
2.89017e-12
-1.24293e-09
9.86406e-11
2.64277e-12
-1.24955e-09
8.70338e-11
2.42353e-12
-1.25507e-09
7.79482e-11
2.22854e-12
-1.25969e-09
7.07582e-11
1.96403e-12
-1.2638e-09
6.5011e-11
-1.30398e-09
6.14017e-11
-6.92632e-15
-7.60188e-10
1.94035e-07
-8.13062e-07
3.59159e-10
1.66163e-07
-9.35465e-07
4.414e-10
1.46627e-07
-9.37862e-07
4.3262e-10
1.30181e-07
-9.39463e-07
4.21938e-10
1.16197e-07
-9.4088e-07
4.10395e-10
1.04248e-07
-9.42151e-07
3.98422e-10
9.39777e-08
-9.43303e-07
3.73209e-10
8.51015e-08
-9.44357e-07
6.54334e-11
7.74042e-08
-9.45495e-07
7.27148e-08
-8.00228e-15
-1.00082e-06
3.4001e-13
8.66049e-14
8.67998e-13
-1.678e-14
8.18909e-14
8.53369e-13
-2.48778e-14
7.2241e-14
8.40007e-13
-2.38539e-14
6.28622e-14
8.24718e-13
-2.34155e-14
5.38144e-14
8.11066e-13
-2.32314e-14
4.5034e-14
7.98265e-13
-2.31716e-14
3.65445e-14
7.83757e-13
-2.29482e-14
2.83593e-14
7.71399e-13
-2.47375e-14
2.03627e-14
7.5864e-13
1.28374e-14
7.45069e-13
-1.60093e-15
2.85697e-13
8.00138e-14
1.19742e-12
-6.70178e-14
7.30087e-14
1.13833e-12
-8.27377e-14
6.18046e-14
1.08152e-12
-7.92173e-14
5.10705e-14
1.02694e-12
-7.71668e-14
4.0396e-14
9.75703e-13
-7.5078e-14
2.81844e-14
9.26394e-13
-7.28044e-14
2.00838e-14
8.81969e-13
-7.20851e-14
1.3209e-14
8.38293e-13
-7.53068e-14
7.38388e-15
7.98832e-13
2.49782e-15
7.58827e-13
-4.23554e-15
2.05273e-13
1.01058e-13
1.68058e-12
-1.69626e-13
9.04568e-14
1.5347e-12
-1.56438e-13
7.58108e-14
1.40836e-12
-1.48033e-13
6.22076e-14
1.28658e-12
-1.40884e-13
4.99577e-14
1.17923e-12
-1.34495e-13
3.88168e-14
1.08141e-12
-1.28787e-13
2.86935e-14
9.93413e-13
-1.23743e-13
1.96114e-14
9.13574e-13
-1.28868e-13
1.13655e-14
8.39764e-13
4.11366e-15
7.7475e-13
-6.6711e-15
8.67766e-14
1.23463e-13
2.39942e-12
-2.94706e-13
1.07473e-13
2.10352e-12
-2.51313e-13
8.80188e-14
1.85289e-12
-2.32162e-13
7.07069e-14
1.62797e-12
-2.16952e-13
5.5577e-14
1.43466e-12
-2.03221e-13
4.22988e-14
1.26748e-12
-1.9028e-13
3.07343e-14
1.12359e-12
-1.79763e-13
2.05903e-14
9.98215e-13
-1.83565e-13
1.17311e-14
8.85994e-13
4.08735e-15
7.88745e-13
-9.66826e-15
-2.82739e-14
1.52398e-13
3.49528e-12
-4.52146e-13
1.28663e-13
2.92976e-12
-3.71973e-13
1.02992e-13
2.4692e-12
-3.35837e-13
8.0805e-14
2.07905e-12
-3.07443e-13
6.203e-14
1.75803e-12
-2.81585e-13
4.6212e-14
1.49421e-12
-2.58671e-13
3.28387e-14
1.2746e-12
-2.39727e-13
2.15956e-14
1.09061e-12
-2.40541e-13
1.20605e-14
9.35819e-13
4.19863e-15
8.05518e-13
-1.27205e-14
-1.5538e-13
1.89367e-13
5.2084e-12
-6.55987e-13
1.56332e-13
4.14746e-12
-5.25989e-13
1.21404e-13
3.33218e-12
-4.6388e-13
9.2824e-14
2.67718e-12
-4.14624e-13
6.95834e-14
2.16806e-12
-3.71703e-13
5.06202e-14
1.76781e-12
-3.34174e-13
3.52241e-14
1.45123e-12
-3.03989e-13
2.26295e-14
1.19665e-12
-2.99461e-13
1.24581e-14
9.91976e-13
4.15938e-15
8.24171e-13
-1.56596e-14
-5.30028e-13
2.54027e-13
7.92134e-12
-9.27173e-13
2.14214e-13
5.98398e-12
-7.22333e-13
1.61834e-13
4.55905e-12
-6.21212e-13
1.20723e-13
3.47992e-12
-5.42084e-13
8.85416e-14
2.69143e-12
-4.7468e-13
6.30965e-14
2.10138e-12
-4.1813e-13
4.26115e-14
1.6554e-12
-3.72041e-13
2.57325e-14
1.31611e-12
-3.60968e-13
1.06802e-14
1.05076e-12
3.53283e-15
8.44251e-13
-1.86366e-14
-1.00066e-12
2.80409e-13
1.04232e-11
-1.28785e-12
1.64452e-13
8.36301e-12
-9.73204e-13
1.06564e-13
6.32947e-12
-8.14546e-13
6.46534e-14
4.5772e-12
-6.92319e-13
3.35601e-14
3.36839e-12
-5.92681e-13
1.01344e-14
2.51252e-12
-5.0988e-13
-7.69143e-15
1.8997e-12
-4.45307e-13
-2.14338e-14
1.45071e-12
-4.24125e-13
-3.21596e-14
1.11678e-12
-4.09243e-14
8.65843e-13
-2.166e-14
-1.92993e-12
-6.7625e-12
2.95088e-11
-9.95232e-13
-8.9166e-11
1.57748e-11
-8.38421e-13
-8.09964e-11
1.12517e-11
-7.16797e-13
-7.35039e-11
8.32182e-12
-6.23609e-13
-6.74513e-11
6.40892e-12
-5.5074e-13
-6.25e-11
5.11598e-12
-4.93731e-13
-5.84305e-11
4.2188e-12
-4.51843e-13
-5.50714e-11
3.58019e-12
-5.91268e-13
-5.23037e-11
3.11046e-12
-5.10133e-11
2.77395e-12
-2.4774e-14
-1.47008e-09
2.3084e-08
1.17529e-07
-2.50739e-10
1.33621e-08
-1.97444e-09
-4.02809e-10
1.01595e-08
-2.53736e-09
-3.98605e-10
7.8705e-09
-2.54828e-09
-3.91891e-10
6.18703e-09
-2.53873e-09
-3.8375e-10
4.92681e-09
-2.51849e-09
-3.7474e-10
3.97009e-09
-2.49237e-09
-3.6548e-10
3.23431e-09
-2.46398e-09
-3.69607e-10
2.66255e-09
-2.45078e-09
2.25807e-09
-2.81396e-14
-3.4693e-09
3.41356e-13
8.24266e-14
3.57871e-14
-1.57159e-14
7.82379e-14
3.37285e-14
-2.30299e-14
6.90001e-14
3.2079e-14
-2.05099e-14
6.01094e-14
3.07005e-14
-1.86774e-14
5.15024e-14
2.82928e-14
-2.0707e-14
4.31063e-14
2.57876e-14
-1.90939e-14
3.51228e-14
2.49666e-14
-1.97322e-14
2.73225e-14
2.35153e-14
-2.35924e-14
1.97844e-14
2.24719e-14
1.2669e-14
2.23224e-14
-1.26461e-15
2.89964e-13
5.9907e-14
5.67744e-14
-6.42151e-14
5.49445e-14
5.17264e-14
-7.36634e-14
4.66292e-14
4.92384e-14
-6.78304e-14
3.8591e-14
4.34543e-14
-6.70551e-14
3.11409e-14
3.90413e-14
-6.29392e-14
2.42955e-14
3.68654e-14
-6.25425e-14
1.79219e-14
3.12457e-14
-6.19812e-14
1.21259e-14
2.81517e-14
-7.13096e-14
6.89288e-15
2.6874e-14
2.44649e-15
2.38573e-14
-4.4912e-15
2.10953e-13
7.66972e-14
8.64496e-14
-1.64889e-13
6.94005e-14
7.77996e-14
-1.40085e-13
5.85034e-14
7.22492e-14
-1.27119e-13
4.85037e-14
6.3939e-14
-1.2108e-13
3.95259e-14
5.52266e-14
-1.14357e-13
3.16854e-14
4.75168e-14
-1.09279e-13
2.41786e-14
4.12528e-14
-1.07701e-13
1.6754e-14
3.65002e-14
-1.21153e-13
9.69212e-15
3.21284e-14
3.34349e-15
2.71394e-14
-7.23423e-15
9.05472e-14
9.54068e-14
1.38015e-13
-2.88893e-13
8.35914e-14
1.22766e-13
-2.25008e-13
6.876e-14
1.1032e-13
-1.99936e-13
5.57459e-14
9.20485e-14
-1.86278e-13
4.45298e-14
7.70683e-14
-1.72772e-13
3.58906e-14
6.5225e-14
-1.59772e-13
2.62248e-14
5.51776e-14
-1.56433e-13
1.73848e-14
4.6623e-14
-1.73123e-13
9.95071e-15
4.15025e-14
3.5318e-15
3.27523e-14
-1.04773e-14
-2.7851e-14
1.20418e-13
2.30882e-13
-4.46419e-13
1.01444e-13
1.96491e-13
-3.33755e-13
8.14534e-14
1.6991e-13
-2.87123e-13
6.42749e-14
1.37323e-13
-2.61075e-13
4.9996e-14
1.10598e-13
-2.37337e-13
3.91917e-14
8.9879e-14
-2.16443e-13
2.83153e-14
7.4173e-14
-2.0689e-13
1.86989e-14
6.26333e-14
-2.26958e-13
1.05459e-14
5.31988e-14
3.74993e-15
4.04125e-14
-1.30612e-14
-1.64795e-13
1.53277e-13
3.95092e-13
-6.52574e-13
1.25763e-13
3.25566e-13
-4.72933e-13
9.74625e-14
2.65829e-13
-3.75752e-13
7.4558e-14
2.03633e-13
-3.35058e-13
5.6704e-14
1.59594e-13
-2.96469e-13
4.34005e-14
1.26121e-13
-2.65695e-13
3.02615e-14
1.0121e-13
-2.60204e-13
1.96018e-14
8.35856e-14
-2.82922e-13
1.06757e-14
6.57396e-14
3.58791e-15
4.7959e-14
-1.65104e-14
-5.79407e-13
1.87753e-13
6.89395e-13
-9.31184e-13
1.56244e-13
5.40898e-13
-6.17495e-13
1.17671e-13
4.14173e-13
-4.96938e-13
8.79979e-14
3.06237e-13
-4.31853e-13
6.6509e-14
2.29489e-13
-3.7414e-13
4.98217e-14
1.75043e-13
-3.25366e-13
3.43027e-14
1.37173e-13
-3.15553e-13
2.17849e-14
1.07942e-13
-3.40966e-13
1.198e-14
8.52596e-14
4.42195e-15
5.88507e-14
-1.95605e-14
-1.1069e-12
3.5548e-13
1.2345e-12
-1.30813e-12
2.26823e-13
9.07157e-13
-8.0625e-13
1.59035e-13
6.54317e-13
-6.51641e-13
1.11123e-13
4.5837e-13
-5.48266e-13
7.68168e-14
3.30321e-13
-4.62922e-13
5.18774e-14
2.42939e-13
-3.9452e-13
3.35705e-14
1.81401e-13
-3.54426e-13
2.00844e-14
1.38471e-13
-4.01055e-13
1.00351e-14
1.09065e-13
2.66649e-15
7.05262e-14
-2.2894e-14
-2.55948e-12
8.43342e-11
9.39633e-12
-1.66281e-12
5.60681e-14
1.34101e-12
-1.06811e-12
-8.14856e-13
8.46769e-13
-8.53362e-13
-8.66876e-13
5.91365e-13
-7.01225e-13
-9.10201e-13
4.31376e-13
-5.81999e-13
-9.39938e-13
3.27722e-13
-4.87724e-13
-9.57236e-13
2.57436e-13
-4.3002e-13
-9.64399e-13
2.07341e-13
-4.82918e-13
-9.6398e-13
1.70622e-13
-9.57303e-13
1.262e-13
-2.6265e-14
-1.03457e-09
8.58747e-09
1.04063e-07
-6.75591e-11
8.20631e-10
2.96315e-10
-6.75739e-11
4.69174e-10
-1.27125e-10
-5.77248e-11
3.14525e-10
-1.07287e-10
-4.92346e-11
2.16718e-10
-8.81142e-11
-4.22668e-11
1.525e-10
-7.19779e-11
-3.65149e-11
1.09421e-10
-5.79215e-11
-3.17454e-11
7.99464e-11
-4.53744e-11
-2.79028e-11
5.94333e-11
-3.6973e-11
4.49634e-11
-2.97444e-14
-3.90093e-11
3.41631e-13
8.10993e-14
1.16039e-14
-1.55917e-14
7.70798e-14
1.05217e-14
-2.24212e-14
6.80145e-14
9.33811e-15
-2.01887e-14
5.92368e-14
6.13651e-15
-1.8472e-14
5.07994e-14
6.31557e-15
-1.957e-14
4.26298e-14
4.23738e-15
-1.84232e-14
3.46951e-14
3.17318e-15
-1.92097e-14
2.70274e-14
1.15768e-15
-2.30681e-14
1.96537e-14
8.25971e-16
1.26247e-14
8.06063e-16
-1.54651e-15
2.91476e-13
5.82506e-14
1.90455e-14
-6.32233e-14
5.35404e-14
1.66226e-14
-7.19531e-14
4.54476e-14
1.73131e-14
-6.4734e-14
3.77336e-14
1.39288e-14
-6.16005e-14
3.04766e-14
1.06478e-14
-6.21783e-14
2.3732e-14
7.05811e-15
-5.9388e-14
1.75945e-14
8.04381e-15
-5.88944e-14
1.1949e-14
4.92155e-15
-7.02684e-14
6.7954e-15
3.84236e-15
2.44403e-15
3.21833e-15
-4.23229e-15
2.14599e-13
7.39818e-14
2.82404e-14
-1.61885e-13
6.69823e-14
2.61382e-14
-1.34739e-13
5.62893e-14
2.70588e-14
-1.17757e-13
4.62975e-14
2.12686e-14
-1.13844e-13
3.73663e-14
1.74603e-14
-1.03719e-13
2.93079e-14
1.44348e-14
-9.87915e-14
2.18002e-14
1.15203e-14
-1.04077e-13
1.49985e-14
9.67821e-15
-1.19174e-13
9.41143e-15
8.91512e-15
3.10931e-15
7.25357e-15
-7.02108e-15
9.50861e-14
9.20401e-14
4.61619e-14
-2.8381e-13
8.05193e-14
4.47229e-14
-2.1624e-13
6.60715e-14
4.56891e-14
-1.79504e-13
5.33736e-14
3.77345e-14
-1.67191e-13
4.21159e-14
3.08771e-14
-1.55526e-13
3.22566e-14
2.59014e-14
-1.44799e-13
2.35768e-14
2.13287e-14
-1.49247e-13
1.58743e-14
1.80639e-14
-1.70383e-13
9.56723e-15
1.54097e-14
3.62232e-15
1.07053e-14
-1.06263e-14
-2.07515e-14
1.1608e-13
8.02562e-14
-4.38046e-13
9.79135e-14
8.08714e-14
-3.16628e-13
7.83586e-14
7.76892e-14
-2.5876e-13
6.13859e-14
6.25277e-14
-2.35075e-13
4.73677e-14
5.18654e-14
-2.14038e-13
3.55336e-14
4.22383e-14
-1.95311e-13
2.56451e-14
3.48306e-14
-1.97341e-13
1.79877e-14
3.06282e-14
-2.23257e-13
9.49628e-15
2.74923e-14
3.51872e-15
1.77419e-14
-1.33246e-14
-1.54936e-13
1.47821e-13
1.43389e-13
-6.39717e-13
1.21177e-13
1.41507e-13
-4.2478e-13
9.35683e-14
1.30698e-13
-3.54928e-13
7.14029e-14
1.04832e-13
-3.16073e-13
5.36006e-14
8.42884e-14
-2.80696e-13
3.9117e-14
6.9549e-14
-2.50102e-13
2.74512e-14
5.71732e-14
-2.48469e-13
1.78067e-14
4.756e-14
-2.7815e-13
1.04989e-14
4.15076e-14
3.73021e-15
2.70882e-14
-1.67188e-14
-5.58281e-13
1.82712e-13
2.56333e-13
-9.11745e-13
1.50564e-13
2.51531e-13
-5.71336e-13
1.12955e-13
2.15613e-13
-4.75399e-13
8.35012e-14
1.68808e-13
-4.12375e-13
6.09789e-14
1.33074e-13
-3.571e-13
4.36028e-14
1.06812e-13
-3.12018e-13
2.98575e-14
8.62406e-14
-2.84861e-13
1.90629e-14
7.22661e-14
-3.35651e-13
1.09705e-14
6.09355e-14
3.45099e-15
3.8542e-14
-1.99385e-14
-1.07541e-12
3.4928e-13
4.68766e-13
-1.27741e-12
2.2048e-13
4.39538e-13
-7.69415e-13
2.05666e-13
3.51891e-13
-6.25861e-13
1.44177e-13
2.65564e-13
-5.26738e-13
1.00126e-13
2.03542e-13
-4.45628e-13
6.82627e-14
1.58502e-13
-3.8018e-13
4.49303e-14
1.26244e-13
-3.34329e-13
2.76618e-14
1.0294e-13
-3.95625e-13
1.45424e-14
8.40681e-14
4.39222e-15
5.44436e-14
-2.28847e-14
-2.52372e-12
8.86319e-11
1.41604e-11
-1.59354e-12
1.24561e-12
8.64882e-13
-1.02593e-12
2.8058e-13
5.61004e-13
-8.14835e-13
1.73233e-13
4.09603e-13
-6.64612e-13
1.06668e-13
3.03055e-13
-5.47353e-13
6.20229e-14
2.29769e-13
-4.55173e-13
3.22411e-14
1.76224e-13
-3.91114e-13
1.228e-14
1.38295e-13
-4.57578e-13
-1.07444e-15
1.09231e-13
-9.63473e-15
6.76574e-14
-2.63977e-14
-9.66075e-10
1.19407e-08
1.03898e-07
-1.25068e-11
1.69294e-10
4.57145e-10
-3.85629e-12
1.7724e-11
-1.63746e-12
-4.42975e-12
9.90493e-12
-1.92664e-12
-3.37747e-12
5.99807e-12
-1.01455e-12
-2.60268e-12
3.78252e-12
-6.31399e-13
-2.03552e-12
2.45782e-12
-3.76202e-13
-1.61722e-12
1.64219e-12
-2.05513e-13
-1.3362e-12
1.12073e-12
-9.43047e-14
7.44096e-13
-3.00903e-14
1.05985e-13
3.41525e-13
8.11449e-14
1.64768e-14
-1.59722e-14
7.70954e-14
1.40906e-14
-2.25483e-14
6.81004e-14
1.20106e-14
-2.05514e-14
5.93076e-14
7.56301e-15
-1.71209e-14
5.08373e-14
6.18618e-15
-2.02308e-14
4.26162e-14
3.49524e-15
-1.9304e-14
3.47487e-14
5.77729e-15
-1.8849e-14
2.71043e-14
4.59046e-15
-2.29776e-14
1.96884e-14
7.00815e-16
1.2674e-14
1.86689e-16
-1.92598e-15
2.91213e-13
5.83232e-14
2.50367e-14
-6.32391e-14
5.363e-14
2.47211e-14
-7.23505e-14
4.54721e-14
1.86462e-14
-6.53892e-14
3.77054e-14
1.64347e-14
-6.28717e-14
3.0498e-14
1.11849e-14
-6.04476e-14
2.3793e-14
8.56462e-15
-5.97661e-14
1.75998e-14
6.07161e-15
-5.97387e-14
1.19752e-14
7.15132e-15
-7.0081e-14
6.85584e-15
6.21091e-15
2.49597e-15
1.52214e-15
-4.39059e-15
2.14326e-13
7.40493e-14
3.74818e-14
-1.62294e-13
6.70213e-14
3.54272e-14
-1.35831e-13
5.63636e-14
3.40555e-14
-1.15081e-13
4.65177e-14
3.29563e-14
-1.10817e-13
3.74962e-14
2.26965e-14
-1.05348e-13
2.94596e-14
1.67507e-14
-9.80839e-14
2.20641e-14
1.51001e-14
-1.04095e-13
1.51044e-14
1.16247e-14
-1.19015e-13
8.8453e-15
1.11609e-14
3.02645e-15
6.13133e-15
-7.40055e-15
9.48453e-14
9.22014e-14
6.30398e-14
-2.84291e-13
8.0779e-14
6.21224e-14
-2.16443e-13
6.62286e-14
6.21658e-14
-1.79972e-13
5.33816e-14
4.93852e-14
-1.66505e-13
4.22131e-14
4.11933e-14
-1.56196e-13
3.21762e-14
3.23119e-14
-1.44493e-13
2.34456e-14
2.99114e-14
-1.49493e-13
1.60513e-14
2.52463e-14
-1.70472e-13
1.00914e-14
2.14346e-14
3.83219e-15
2.02499e-14
-1.01238e-14
-2.09766e-14
1.16407e-13
1.09091e-13
-4.39103e-13
9.81091e-14
1.08395e-13
-3.17653e-13
7.86373e-14
1.07582e-13
-2.58067e-13
6.17038e-14
8.94183e-14
-2.35781e-13
4.75586e-14
7.29193e-14
-2.1465e-13
3.58995e-14
6.29906e-14
-1.94685e-13
2.61354e-14
5.52771e-14
-1.95804e-13
1.76285e-14
4.26093e-14
-2.23821e-13
9.33732e-15
3.43583e-14
3.70392e-15
2.38946e-14
-1.32715e-14
-1.55842e-13
1.48308e-13
1.86535e-13
-6.40977e-13
1.21721e-13
1.98087e-13
-4.25072e-13
9.39581e-14
1.78574e-13
-3.55732e-13
7.17466e-14
1.44622e-13
-3.16008e-13
5.39294e-14
1.18157e-13
-2.81393e-13
3.93334e-14
9.80866e-14
-2.50761e-13
2.756e-14
7.80885e-14
-2.41678e-13
1.83771e-14
6.94106e-14
-2.78807e-13
1.08293e-14
5.78471e-14
3.73082e-15
3.63618e-14
-1.65978e-14
-5.60569e-13
1.83303e-13
3.33795e-13
-9.14597e-13
1.51365e-13
3.45311e-13
-5.71935e-13
1.13572e-13
3.05724e-13
-4.76621e-13
8.3955e-14
2.3421e-13
-4.13168e-13
6.13482e-14
1.92288e-13
-3.58281e-13
4.3822e-14
1.50839e-13
-3.12278e-13
3.01228e-14
1.24625e-13
-2.84933e-13
1.90793e-14
1.01224e-13
-3.36857e-13
1.11367e-14
8.27248e-14
4.1298e-15
5.51005e-14
-1.97776e-14
-1.08009e-12
3.54677e-13
6.02931e-13
-1.28237e-12
2.2196e-13
6.05313e-13
-7.71182e-13
1.40549e-13
4.97896e-13
-6.2783e-13
1.03932e-13
3.78466e-13
-5.28589e-13
7.72828e-14
2.93516e-13
-4.47058e-13
5.56437e-14
2.3406e-13
-3.81258e-13
3.72534e-14
1.82093e-13
-3.35599e-13
2.34071e-14
1.47205e-13
-3.9702e-13
1.27608e-14
1.18879e-13
4.92513e-15
7.57151e-14
-2.30961e-14
-2.57989e-12
9.42526e-11
2.22374e-11
-1.57021e-12
1.17451e-12
1.28174e-12
-1.02984e-12
2.01909e-13
8.11896e-13
-8.1885e-13
1.75645e-13
5.86611e-13
-6.67294e-13
1.17352e-13
4.38586e-13
-5.49887e-13
7.70606e-14
3.30745e-13
-4.5673e-13
4.87867e-14
2.52511e-13
-3.92466e-13
2.87054e-14
2.01298e-13
-4.59475e-13
1.42307e-14
1.5836e-13
4.37851e-15
1.00386e-13
-2.6489e-14
-1.02082e-09
1.92848e-08
1.09933e-07
-8.84852e-12
1.97172e-10
5.14839e-10
-1.55021e-12
3.16145e-12
1.93189e-12
-1.14529e-12
1.1853e-12
1.37652e-13
-9.00712e-13
8.02544e-13
8.14728e-14
-7.12366e-13
5.67561e-13
6.74645e-14
-5.71961e-13
4.14004e-13
5.60205e-14
-4.76503e-13
3.09296e-13
4.66902e-14
-5.40302e-13
2.34472e-13
3.97637e-14
1.43936e-13
-3.00402e-14
3.34659e-14
3.41198e-13
8.12868e-14
2.28652e-14
-1.62913e-14
7.72406e-14
1.46664e-14
-2.32062e-14
6.81474e-14
1.88813e-14
-2.00171e-14
5.94145e-14
1.28931e-14
-1.92418e-14
5.08852e-14
7.7123e-15
-1.92501e-14
4.26732e-14
4.46262e-15
-1.92612e-14
3.47534e-14
1.9381e-15
-1.98482e-14
2.71309e-14
1.49209e-15
-2.30416e-14
1.97617e-14
1.57818e-15
1.26982e-14
2.76919e-15
-1.42096e-15
2.90875e-13
5.85139e-14
3.91372e-14
-6.39911e-14
5.37908e-14
3.47551e-14
-7.1619e-14
4.56581e-14
3.30197e-14
-6.70163e-14
3.78378e-14
2.13455e-14
-6.21769e-14
3.06226e-14
2.05951e-14
-6.12729e-14
2.3877e-14
1.26051e-14
-5.85234e-14
1.76926e-14
8.00426e-15
-5.95818e-14
1.20313e-14
5.30936e-15
-7.05026e-14
6.91543e-15
5.15252e-15
2.56224e-15
5.49564e-15
-4.42094e-15
2.13688e-13
7.43618e-14
5.16512e-14
-1.6334e-13
6.72818e-14
5.26559e-14
-1.35694e-13
5.65944e-14
5.62069e-14
-1.16784e-13
4.66361e-14
4.25821e-14
-1.1418e-13
3.76252e-14
3.2547e-14
-1.03945e-13
2.95335e-14
2.6339e-14
-9.89256e-14
2.2203e-14
1.73587e-14
-1.0365e-13
1.53872e-14
1.64469e-14
-1.19311e-13
9.19178e-15
1.17699e-14
3.33748e-15
1.11291e-14
-7.53087e-15
9.40518e-14
9.27114e-14
9.18834e-14
-2.85581e-13
8.11944e-14
9.05683e-14
-2.17584e-13
6.65997e-14
9.36042e-14
-1.80069e-13
5.37547e-14
7.6214e-14
-1.68002e-13
4.25445e-14
5.86199e-14
-1.55484e-13
3.25634e-14
4.16227e-14
-1.44971e-13
2.36899e-14
3.3155e-14
-1.50145e-13
1.61486e-14
3.01189e-14
-1.70528e-13
1.00758e-14
2.55995e-14
3.6231e-15
1.53872e-14
-1.02394e-14
-2.24301e-14
1.17143e-13
1.60775e-13
-4.41056e-13
9.87987e-14
1.63983e-13
-3.19164e-13
7.91228e-14
1.60886e-13
-2.59019e-13
6.21003e-14
1.29641e-13
-2.3636e-13
4.78427e-14
1.06381e-13
-2.15765e-13
3.61474e-14
8.57944e-14
-1.95069e-13
2.61158e-14
6.0439e-14
-1.97309e-13
1.77932e-14
5.13665e-14
-2.24192e-13
9.78895e-15
4.30016e-14
3.95653e-15
2.70212e-14
-1.3311e-14
-1.57953e-13
1.49551e-13
2.81285e-13
-6.44527e-13
1.22709e-13
2.93012e-13
-4.26766e-13
9.48443e-14
2.7024e-13
-3.57384e-13
7.23979e-14
2.11459e-13
-3.16843e-13
5.457e-14
1.70719e-13
-2.83548e-13
3.97187e-14
1.35476e-13
-2.51185e-13
2.80717e-14
1.1177e-13
-2.41621e-13
1.85279e-14
8.01398e-14
-2.79856e-13
1.09887e-14
6.70474e-14
4.05558e-15
4.31849e-14
-1.63196e-14
-5.66686e-13
1.84986e-13
4.99226e-13
-9.20085e-13
1.52919e-13
5.12203e-13
-5.76334e-13
1.14725e-13
4.4156e-13
-4.78627e-13
8.49292e-14
3.46628e-13
-4.15978e-13
6.20429e-14
2.6957e-13
-3.59985e-13
4.4546e-14
2.15084e-13
-3.14104e-13
3.06832e-14
1.69922e-13
-2.86141e-13
1.95883e-14
1.21109e-13
-3.38265e-13
1.15481e-14
1.0055e-13
4.48305e-15
6.20875e-14
-1.97242e-14
-1.0913e-12
3.59703e-13
9.11266e-13
-1.29207e-12
2.24723e-13
8.96977e-13
-7.76891e-13
1.39372e-13
7.25447e-13
-6.3229e-13
1.01858e-13
5.46244e-13
-5.32088e-13
7.29846e-14
4.16991e-13
-4.50233e-13
5.41409e-14
3.19173e-13
-3.83905e-13
3.69257e-14
2.5117e-13
-3.37817e-13
2.35302e-14
1.75022e-13
-3.99178e-13
1.29943e-14
1.37831e-13
5.19874e-15
8.64345e-14
-2.29649e-14
-2.6298e-12
9.98727e-11
2.81252e-11
-1.56245e-12
1.22932e-12
1.83061e-12
-1.03928e-12
1.9886e-13
1.18515e-12
-8.25936e-13
1.65858e-13
8.56886e-13
-6.73099e-13
1.08795e-13
6.28278e-13
-5.54761e-13
6.75562e-14
4.68085e-13
-4.60213e-13
3.18525e-14
3.46542e-13
-3.95772e-13
1.75373e-14
2.52579e-13
-4.62818e-13
9.05636e-15
1.90256e-13
3.75331e-15
1.14764e-13
-2.65157e-14
-1.08582e-09
2.53751e-08
1.18569e-07
-9.12642e-12
2.84052e-10
5.53533e-10
-1.64149e-12
2.94318e-12
2.15474e-12
-1.06275e-12
1.06225e-12
1.0673e-13
-8.44728e-13
7.66045e-13
6.5783e-14
-6.74888e-13
5.63462e-13
5.03252e-14
-5.46658e-13
4.18576e-13
3.94265e-14
-4.57295e-13
3.15096e-13
3.14476e-14
-5.29278e-13
2.38681e-13
2.54776e-14
1.42127e-13
-3.02649e-14
2.09813e-14
3.40651e-13
8.1497e-14
2.96647e-14
-1.64913e-14
7.74462e-14
2.82606e-14
-2.38642e-14
6.82616e-14
2.22142e-14
-1.97301e-14
5.95201e-14
1.82302e-14
-1.96926e-14
5.0997e-14
8.26031e-15
-2.0135e-14
4.27709e-14
7.87362e-15
-1.90989e-14
3.48628e-14
6.48794e-15
-1.97792e-14
2.72135e-14
1.02938e-14
-2.27594e-14
1.98501e-14
3.01732e-14
1.27662e-14
8.36477e-14
-1.94831e-15
2.90301e-13
5.87013e-14
5.16188e-14
-6.46145e-14
5.39691e-14
4.4619e-14
-7.21924e-14
4.58607e-14
4.47004e-14
-6.65652e-14
3.79939e-14
3.4966e-14
-6.37814e-14
3.07239e-14
1.83898e-14
-6.1192e-14
2.39873e-14
1.3471e-14
-5.98543e-14
1.77851e-14
1.37672e-14
-5.91634e-14
1.21611e-14
1.35439e-14
-7.04831e-14
6.9973e-15
2.11162e-14
2.62717e-15
5.89669e-14
-4.62781e-15
2.12944e-13
7.47569e-14
7.46499e-14
-1.64336e-13
6.75764e-14
6.77141e-14
-1.3667e-13
5.683e-14
6.90185e-14
-1.17805e-13
4.68615e-14
5.63887e-14
-1.11776e-13
3.77981e-14
4.39155e-14
-1.06084e-13
2.96081e-14
2.35231e-14
-9.73227e-14
2.23019e-14
1.91777e-14
-1.04757e-13
1.53355e-14
2.30151e-14
-1.19465e-13
9.76747e-15
2.88153e-14
3.26755e-15
4.7316e-14
-7.74597e-15
9.30597e-14
9.33193e-14
1.1932e-13
-2.86984e-13
8.17144e-14
1.17718e-13
-2.18677e-13
6.70423e-14
1.19469e-13
-1.81242e-13
5.41435e-14
9.76803e-14
-1.68608e-13
4.29745e-14
7.92082e-14
-1.56243e-13
3.30092e-14
4.94422e-14
-1.44788e-13
2.39965e-14
3.84719e-14
-1.49607e-13
1.64453e-14
4.17588e-14
-1.71464e-13
9.67661e-15
4.16424e-14
4.15607e-15
4.83573e-14
-9.97141e-15
-2.41626e-14
1.18072e-13
2.06685e-13
-4.43308e-13
9.96163e-14
2.09846e-13
-3.21287e-13
7.97846e-14
2.02361e-13
-2.60008e-13
6.25903e-14
1.66125e-13
-2.37208e-13
4.82272e-14
1.35182e-13
-2.17298e-13
3.64658e-14
1.07928e-13
-1.95401e-13
2.64788e-14
6.64868e-14
-1.98525e-13
1.77334e-14
5.73697e-14
-2.2491e-13
1.01146e-14
6.39349e-14
4.25782e-15
5.78625e-14
-1.34359e-14
-1.60629e-13
1.51026e-13
3.6723e-13
-6.48386e-13
1.23866e-13
3.72613e-13
-4.30544e-13
9.57865e-14
3.40892e-13
-3.59186e-13
7.32575e-14
2.76477e-13
-3.18256e-13
5.52552e-14
2.2196e-13
-2.85036e-13
4.03006e-14
1.81235e-13
-2.53071e-13
2.84202e-14
1.09199e-13
-2.41145e-13
1.89042e-14
8.72847e-14
-2.80918e-13
1.14423e-14
8.18201e-14
4.07231e-15
7.38215e-14
-1.65731e-14
-5.7415e-13
1.87832e-13
6.46035e-13
-9.26502e-13
1.54805e-13
6.50142e-13
-5.80283e-13
1.16135e-13
5.64801e-13
-4.82138e-13
8.6014e-14
4.43139e-13
-4.1837e-13
6.29328e-14
3.49295e-13
-3.62526e-13
4.52346e-14
2.78353e-13
-3.16667e-13
3.15312e-14
1.88977e-13
-2.8684e-13
2.01088e-14
1.3054e-13
-3.40252e-13
1.16974e-14
1.09372e-13
4.87643e-15
9.69269e-14
-1.97576e-14
-1.10479e-12
3.5408e-13
1.15439e-12
-1.30294e-12
2.27728e-13
1.12393e-12
-7.83678e-13
1.41799e-13
9.20855e-13
-6.37612e-13
1.03304e-13
6.97196e-13
-5.36522e-13
7.40298e-14
5.32639e-13
-4.53317e-13
5.46315e-14
4.15192e-13
-3.88064e-13
3.75143e-14
3.20769e-13
-3.40303e-13
2.42093e-14
1.92307e-13
-4.01966e-13
1.36296e-14
1.49571e-13
5.67236e-15
1.25267e-13
-2.30621e-14
-2.57024e-12
9.4124e-11
2.29291e-11
-1.62695e-12
1.07387e-12
2.08894e-12
-1.0511e-12
2.0104e-13
1.50344e-12
-8.34472e-13
1.68707e-13
1.08562e-12
-6.80035e-13
1.10686e-13
8.04538e-13
-5.60301e-13
6.88752e-14
6.06402e-13
-4.65429e-13
3.27863e-14
4.65665e-13
-3.99307e-13
1.82067e-14
2.71396e-13
-4.67216e-13
9.52787e-15
2.02224e-13
4.21559e-15
1.32068e-13
-2.65701e-14
-1.03384e-09
2.19919e-08
1.21198e-07
-7.97313e-12
1.84229e-10
5.14521e-10
-1.52655e-12
3.11986e-12
1.55863e-12
-1.07587e-12
1.6255e-12
8.75335e-14
-8.5404e-13
1.17477e-12
6.42431e-14
-6.82355e-13
8.59694e-13
5.01254e-14
-5.53659e-13
6.4104e-13
3.98564e-14
-4.62189e-13
3.94487e-13
3.23216e-14
-5.35294e-13
2.69388e-13
2.64951e-14
1.62529e-13
-3.00732e-14
2.23178e-14
3.40443e-13
8.16548e-14
1.56617e-14
-1.71955e-14
7.74208e-14
-3.35263e-15
-2.37198e-14
6.83514e-14
2.46196e-15
-2.06309e-14
5.95972e-14
7.1576e-15
-2.02374e-14
5.11197e-14
2.23469e-14
-2.10386e-14
4.29582e-14
5.07916e-14
-2.06468e-14
3.51263e-14
1.01609e-13
-1.93681e-14
2.76419e-14
3.73081e-13
-9.76548e-15
2.04723e-14
1.43705e-12
1.2899e-14
3.86766e-12
-1.47551e-14
2.8959e-13
5.88651e-14
2.31051e-14
-6.48977e-14
5.40232e-14
-4.90125e-15
-7.26767e-14
4.58636e-14
7.71772e-15
-6.69897e-14
3.80627e-14
1.15368e-14
-6.44556e-14
3.084e-14
2.51966e-14
-6.14521e-14
2.4145e-14
5.09598e-14
-6.18749e-14
1.7969e-14
8.89672e-14
-6.38577e-14
1.24131e-14
2.47753e-13
-6.95989e-14
7.42581e-15
8.57366e-13
2.72431e-15
2.5409e-12
-1.42043e-14
2.12024e-13
7.49861e-14
3.06257e-14
-1.65049e-13
6.76985e-14
-5.94901e-15
-1.36609e-13
5.70275e-14
1.24347e-14
-1.18796e-13
4.70295e-14
1.81623e-14
-1.12114e-13
3.80081e-14
2.96625e-14
-1.06458e-13
2.99654e-14
5.54259e-14
-1.00588e-13
2.26696e-14
9.58161e-14
-1.07078e-13
1.55492e-14
1.89145e-13
-1.2387e-13
9.28856e-15
5.63333e-13
3.51157e-15
1.67708e-12
-1.02811e-14
9.2359e-14
9.37681e-14
5.26802e-14
-2.87576e-13
8.19407e-14
4.15593e-15
-2.19147e-13
6.72378e-14
3.02721e-14
-1.81796e-13
5.43973e-14
3.64512e-14
-1.68276e-13
4.32251e-14
4.84691e-14
-1.56679e-13
3.31483e-14
6.84965e-14
-1.47786e-13
2.4394e-14
1.07224e-13
-1.52817e-13
1.69999e-14
1.68493e-13
-1.77209e-13
9.93534e-15
4.14155e-13
4.45055e-15
1.16043e-12
-8.83234e-15
-2.524e-14
1.18828e-13
9.35973e-14
-4.44122e-13
1.00028e-13
3.75601e-14
-3.21141e-13
8.01947e-14
6.78615e-14
-2.60932e-13
6.30702e-14
7.18426e-14
-2.37831e-13
4.86936e-14
7.8684e-14
-2.17029e-13
3.70678e-14
1.20288e-13
-1.97383e-13
2.67492e-14
1.26969e-13
-2.03402e-13
1.79439e-14
1.73758e-13
-2.31284e-13
1.07821e-14
3.43265e-13
4.24086e-15
8.44127e-13
-1.02663e-14
-1.62618e-13
1.52115e-13
1.71004e-13
-6.49487e-13
1.24478e-13
1.07512e-13
-4.30013e-13
9.64183e-14
1.37486e-13
-3.60905e-13
7.38472e-14
1.34129e-13
-3.18334e-13
5.58495e-14
1.32956e-13
-2.87224e-13
4.07853e-14
1.69005e-13
-2.54584e-13
2.87818e-14
1.6311e-13
-2.45448e-13
1.93077e-14
2.09747e-13
-2.88043e-13
1.16289e-14
3.16993e-13
4.60124e-15
6.51088e-13
-1.2534e-14
-5.79646e-13
1.9473e-13
3.16216e-13
-9.28009e-13
1.55999e-13
2.41919e-13
-5.81871e-13
1.1699e-13
2.59388e-13
-4.84049e-13
8.68609e-14
2.34677e-13
-4.19418e-13
6.36678e-14
2.15007e-13
-3.65469e-13
4.59401e-14
2.08672e-13
-3.18263e-13
3.24332e-14
1.73822e-13
-2.9124e-13
2.09434e-14
2.48298e-13
-3.4781e-13
1.24005e-14
3.20511e-13
5.11646e-15
5.35042e-13
-1.70636e-14
-1.11285e-12
3.1421e-13
5.57048e-13
-1.30544e-12
1.85576e-13
4.90238e-13
-7.86581e-13
1.45469e-13
4.64335e-13
-6.40591e-13
1.04687e-13
3.95537e-13
-5.38843e-13
7.53607e-14
3.42027e-13
-4.55913e-13
5.5896e-14
3.03678e-13
-3.917e-13
3.86238e-14
3.66578e-13
-3.4434e-13
2.48869e-14
3.0341e-13
-4.10618e-13
1.43509e-14
3.4851e-13
6.33072e-15
4.67108e-13
-2.17983e-14
-2.12312e-12
4.04558e-11
-3.37079e-12
-1.77531e-12
3.53231e-13
7.09869e-13
-1.05894e-12
2.5304e-13
7.94252e-13
-8.3843e-13
1.72274e-13
6.4089e-13
-6.84396e-13
1.12825e-13
5.24375e-13
-5.6334e-13
7.09544e-14
4.41072e-13
-4.72277e-13
3.40747e-14
5.12282e-13
-4.03071e-13
1.89918e-14
3.28771e-13
-4.76595e-13
1.00982e-14
3.91544e-13
4.81113e-15
4.32769e-13
-2.60139e-14
-4.61316e-10
-9.6366e-09
8.8377e-08
-2.55748e-12
-2.19023e-10
1.33795e-10
-1.3195e-12
-1.27736e-13
-5.80704e-13
-1.09052e-12
1.03934e-12
7.79004e-14