/*--------------------------------*- C++ -*----------------------------------*\
| =========                 |                                                 |
| \\      /  F ield         | OpenFOAM: The Open Source CFD Toolbox           |
|  \\    /   O peration     | Version:  4.1                                   |
|   \\  /    A nd           | Web:      www.OpenFOAM.org                      |
|    \\/     M anipulation  |                                                 |
\*---------------------------------------------------------------------------*/
FoamFile
{
    version     2.0;
    format      ascii;
    class       volVectorField;
    location    "0.92";
    object      U;
}
// * * * * * * * * * * * * * * * * * * * * * * * * * * * * * * * * * * * * * //

dimensions      [0 1 -1 0 0 0 0];

internalField   nonuniform List<vector> 
18000
(
(8.90506e-14 3.841e-13 -5.76344e-12)
(9.37506e-14 3.83883e-13 -5.70005e-12)
(8.44236e-14 -9.68434e-15 -5.63651e-12)
(7.53254e-14 -1.44096e-14 -5.57443e-12)
(6.64802e-14 -1.41249e-14 -5.51277e-12)
(5.78851e-14 -1.37223e-14 -5.45184e-12)
(4.95928e-14 -1.3759e-14 -5.39148e-12)
(4.16851e-14 -1.37772e-14 -5.33242e-12)
(3.39784e-14 -1.35396e-14 -5.27416e-12)
(2.66194e-14 -9.79437e-15 -5.21815e-12)
(1.36633e-13 3.94107e-13 -7.16974e-12)
(1.48364e-13 3.80657e-13 -6.92526e-12)
(1.297e-13 -4.83705e-14 -6.68708e-12)
(1.11995e-13 -5.1646e-14 -6.45943e-12)
(9.56134e-14 -4.98774e-14 -6.24155e-12)
(8.04064e-14 -4.78855e-14 -6.03229e-12)
(6.61243e-14 -4.6007e-14 -5.83123e-12)
(5.30461e-14 -4.43956e-14 -5.63855e-12)
(4.07534e-14 -4.264e-14 -5.45271e-12)
(2.93932e-14 -3.04727e-14 -5.27922e-12)
(1.53082e-13 3.95546e-13 -9.02e-12)
(1.59855e-13 3.63185e-13 -8.49014e-12)
(1.32118e-13 -1.04838e-13 -7.98965e-12)
(1.07208e-13 -1.0339e-13 -7.52587e-12)
(8.52424e-14 -9.64185e-14 -7.09363e-12)
(6.58009e-14 -9.042e-14 -6.6913e-12)
(4.85235e-14 -8.48273e-14 -6.31717e-12)
(3.32096e-14 -7.96037e-14 -5.96703e-12)
(1.96393e-14 -7.48625e-14 -5.64081e-12)
(7.68684e-15 -5.21727e-14 -5.34162e-12)
(2.08167e-13 3.81854e-13 -1.14826e-11)
(2.04899e-13 3.2217e-13 -1.05036e-11)
(1.63686e-13 -1.8633e-13 -9.61441e-12)
(1.28549e-13 -1.74206e-13 -8.81242e-12)
(9.90481e-14 -1.57952e-13 -8.09121e-12)
(7.4125e-14 -1.43591e-13 -7.44057e-12)
(5.32277e-14 -1.30852e-13 -6.85215e-12)
(3.53868e-14 -1.19519e-13 -6.31945e-12)
(2.04011e-14 -1.08987e-13 -5.83607e-12)
(7.85042e-15 -7.44124e-14 -5.40492e-12)
(2.89512e-13 3.40593e-13 -1.48071e-11)
(2.67188e-13 2.42068e-13 -1.31235e-11)
(2.05463e-13 -3.04748e-13 -1.16548e-11)
(1.55569e-13 -2.72224e-13 -1.03759e-11)
(1.15867e-13 -2.38352e-13 -9.26448e-12)
(8.40809e-14 -2.09745e-13 -8.29381e-12)
(5.84952e-14 -1.85593e-13 -7.44376e-12)
(3.78813e-14 -1.6492e-13 -6.69766e-12)
(2.12691e-14 -1.4639e-13 -6.03988e-12)
(7.92587e-15 -9.77608e-14 -5.46952e-12)
(4.12674e-13 2.51345e-13 -1.93593e-11)
(3.55567e-13 9.62469e-14 -1.65722e-11)
(2.61612e-13 -4.78282e-13 -1.42423e-11)
(1.90137e-13 -4.0797e-13 -1.22879e-11)
(1.365e-13 -3.44182e-13 -1.06499e-11)
(9.56578e-14 -2.92838e-13 -9.26863e-12)
(6.44666e-14 -2.50902e-13 -8.09898e-12)
(4.05532e-14 -2.1617e-13 -7.10384e-12)
(2.21543e-14 -1.86718e-13 -6.25225e-12)
(8.02233e-15 -1.22113e-13 -5.53504e-12)
(6.02518e-13 7.83611e-14 -2.56767e-11)
(4.81167e-13 -1.60744e-13 -2.11758e-11)
(3.3622e-13 -7.36895e-13 -1.75522e-11)
(2.32987e-13 -5.98205e-13 -1.46426e-11)
(1.60021e-13 -4.84135e-13 -1.22946e-11)
(1.07584e-13 -3.96878e-13 -1.03866e-11)
(6.9574e-14 -3.28597e-13 -8.82542e-12)
(4.1888e-14 -2.7463e-13 -7.53993e-12)
(2.15846e-14 -2.30696e-13 -6.47433e-12)
(6.63432e-15 -1.47507e-13 -5.60147e-12)
(-3.62803e-12 -2.45552e-13 -3.46204e-11)
(-3.94473e-12 -6.09981e-13 -2.74053e-11)
(-3.94024e-12 -1.12555e-12 -2.18439e-11)
(-3.87245e-12 -8.66466e-13 -1.75749e-11)
(-3.77279e-12 -6.7003e-13 -1.42689e-11)
(-3.65694e-12 -5.27582e-13 -1.1684e-11)
(-3.53452e-12 -4.21261e-13 -9.64395e-12)
(-3.41102e-12 -3.40543e-13 -8.02014e-12)
(-3.29021e-12 -2.78068e-13 -6.71519e-12)
(-3.23912e-12 -1.74087e-13 -5.67872e-12)
(-6.73001e-09 -1.83531e-12 -9.66367e-11)
(-6.91172e-09 -1.62923e-12 -8.01649e-11)
(-6.52884e-09 -1.12552e-12 -6.69579e-11)
(-6.17689e-09 -6.84613e-13 -5.66723e-11)
(-5.85707e-09 -3.98597e-13 -4.85532e-11)
(-5.56596e-09 -2.11025e-13 -4.20463e-11)
(-5.30035e-09 -8.66483e-14 -3.67622e-11)
(-5.05737e-09 -4.85159e-15 -3.24188e-11)
(-4.83527e-09 -1.23422e-13 -2.88089e-11)
(-4.76488e-09 -3.63033e-13 -2.62248e-11)
(7.48981e-07 -1.90658e-09 -7.85648e-08)
(3.78427e-08 -5.95973e-10 -6.94008e-08)
(2.85695e-08 9.06404e-10 -6.13007e-08)
(2.35399e-08 8.42241e-10 -5.44542e-08)
(1.92469e-08 7.7094e-10 -4.86274e-08)
(1.55489e-08 7.058e-10 -4.36441e-08)
(1.23419e-08 6.46996e-10 -3.93579e-08)
(9.54094e-09 5.9205e-10 -3.56508e-08)
(6.44212e-09 1.88357e-10 -3.24323e-08)
(-1.33863e-07 -3.76529e-10 -3.04856e-08)
(2.52252e-13 3.6408e-13 -6.23932e-12)
(2.37064e-13 3.44652e-13 -6.16808e-12)
(2.08225e-13 -4.86388e-14 -6.09707e-12)
(1.80375e-13 -5.28565e-14 -6.02682e-12)
(1.53635e-13 -5.23486e-14 -5.95785e-12)
(1.27822e-13 -5.16662e-14 -5.89005e-12)
(1.02971e-13 -5.11868e-14 -5.82185e-12)
(7.91221e-14 -5.05908e-14 -5.7561e-12)
(5.59621e-14 -4.93594e-14 -5.6909e-12)
(3.42806e-14 -2.87131e-14 -5.6275e-12)
(5.02821e-13 3.19936e-13 -7.82548e-12)
(4.65152e-13 2.37731e-13 -7.5488e-12)
(3.99269e-13 -1.87613e-13 -7.27878e-12)
(3.37511e-13 -1.85752e-13 -7.02169e-12)
(2.79869e-13 -1.79413e-13 -6.77611e-12)
(2.26081e-13 -1.73297e-13 -6.54014e-12)
(1.75855e-13 -1.67256e-13 -6.31496e-12)
(1.28878e-13 -1.61868e-13 -6.09849e-12)
(8.49408e-14 -1.54622e-13 -5.89113e-12)
(4.45768e-14 -8.79983e-14 -5.69593e-12)
(6.1403e-13 2.41329e-13 -9.94094e-12)
(5.48303e-13 7.15018e-14 -9.33077e-12)
(4.54703e-13 -3.81964e-13 -8.75943e-12)
(3.70243e-13 -3.64263e-13 -8.22951e-12)
(2.94936e-13 -3.42633e-13 -7.73892e-12)
(2.27669e-13 -3.2237e-13 -7.28333e-12)
(1.67472e-13 -3.03987e-13 -6.86124e-12)
(1.1361e-13 -2.86885e-13 -6.46751e-12)
(6.55452e-14 -2.68359e-13 -6.10095e-12)
(2.31221e-14 -1.50644e-13 -5.76671e-12)
(7.94267e-13 1.08715e-13 -1.27972e-11)
(6.84609e-13 -1.82252e-13 -1.16546e-11)
(5.51385e-13 -6.52829e-13 -1.06255e-11)
(4.36229e-13 -6.02564e-13 -9.70113e-12)
(3.38147e-13 -5.50971e-13 -8.87471e-12)
(2.54097e-13 -5.05184e-13 -8.133e-12)
(1.82159e-13 -4.64026e-13 -7.46613e-12)
(1.20606e-13 -4.26921e-13 -6.86501e-12)
(6.78222e-14 -3.89824e-13 -6.32034e-12)
(2.35284e-14 -2.15458e-13 -5.83708e-12)
(1.04306e-12 -1.09146e-13 -1.67212e-11)
(8.65049e-13 -5.67959e-13 -1.4724e-11)
(6.74531e-13 -1.0307e-12 -1.29995e-11)
(5.17527e-13 -9.20315e-13 -1.15083e-11)
(3.89427e-13 -8.17074e-13 -1.02222e-11)
(2.84555e-13 -7.28346e-13 -9.10795e-12)
(1.9866e-13 -6.51159e-13 -8.13828e-12)
(1.2823e-13 -5.84067e-13 -7.2919e-12)
(7.03638e-14 -5.20563e-13 -6.54976e-12)
(2.38501e-14 -2.83192e-13 -5.91006e-12)
(1.39127e-12 -4.60614e-13 -2.22096e-11)
(1.10857e-12 -1.15124e-12 -1.88333e-11)
(8.33315e-13 -1.56008e-12 -1.6053e-11)
(6.18212e-13 -1.34554e-12 -1.37425e-11)
(4.50697e-13 -1.15745e-12 -1.18277e-11)
(3.19662e-13 -1.00134e-12 -1.02289e-11)
(2.16972e-13 -8.70316e-13 -8.8871e-12)
(1.36332e-13 -7.6018e-13 -7.7535e-12)
(7.30368e-14 -6.60843e-13 -6.79064e-12)
(2.41326e-14 -3.53442e-13 -5.98475e-12)
(1.89066e-12 -1.01899e-12 -3.0021e-11)
(1.44026e-12 -2.03323e-12 -2.4431e-11)
(1.0398e-12 -2.30995e-12 -2.00237e-11)
(7.43482e-13 -1.91649e-12 -1.6528e-11)
(5.23883e-13 -1.59357e-12 -1.37523e-11)
(3.60044e-13 -1.3357e-12 -1.15241e-11)
(2.37221e-13 -1.12724e-12 -9.72098e-12)
(1.45035e-13 -9.57666e-13 -8.25146e-12)
(7.56753e-14 -8.11651e-13 -7.04203e-12)
(2.44199e-14 -4.2701e-13 -6.06086e-12)
(2.48909e-12 -1.92483e-12 -4.14339e-11)
(1.54442e-12 -3.38342e-12 -3.21906e-11)
(1.00132e-12 -3.37592e-12 -2.52678e-11)
(6.28465e-13 -2.68749e-12 -2.00486e-11)
(3.69114e-13 -2.15387e-12 -1.60877e-11)
(1.87192e-13 -1.74567e-12 -1.30393e-11)
(5.90143e-14 -1.4283e-12 -1.06677e-11)
(-3.1289e-14 -1.17927e-12 -8.80097e-12)
(-9.50669e-14 -9.73604e-13 -7.31556e-12)
(-1.40279e-13 -5.03227e-13 -6.14838e-12)
(-2.76025e-10 -4.98783e-12 -1.12104e-10)
(-6.89003e-10 -6.79515e-12 -9.10876e-11)
(-5.71114e-10 -5.45883e-12 -7.47826e-11)
(-4.74329e-10 -4.23828e-12 -6.24181e-11)
(-3.98027e-10 -3.34654e-12 -5.29013e-11)
(-3.37015e-10 -2.68652e-12 -4.54244e-11)
(-2.87723e-10 -2.18776e-12 -3.94517e-11)
(-2.47517e-10 -1.80589e-12 -3.4609e-11)
(-2.14491e-10 -1.50374e-12 -3.06281e-11)
(-1.90898e-10 -9.44927e-13 -2.77796e-11)
(5.27452e-07 -2.96477e-09 -8.76527e-08)
(-9.06276e-09 -2.33767e-09 -7.6761e-08)
(-1.08579e-08 -8.02104e-10 -6.69313e-08)
(-1.01907e-08 -7.38179e-10 -5.88179e-08)
(-9.53032e-09 -6.89039e-10 -5.20582e-08)
(-8.91025e-09 -6.40705e-10 -4.63758e-08)
(-8.33986e-09 -5.94989e-10 -4.15583e-08)
(-7.8227e-09 -5.52546e-10 -3.74422e-08)
(-7.40888e-09 -5.23512e-10 -3.39053e-08)
(-1.12883e-08 -5.65575e-10 -3.17332e-08)
(2.32386e-13 3.6719e-13 -4.93628e-13)
(2.19187e-13 3.45242e-13 -4.84989e-13)
(1.92157e-13 -4.82667e-14 -4.76501e-13)
(1.664e-13 -5.25124e-14 -4.67967e-13)
(1.41707e-13 -5.15815e-14 -4.59677e-13)
(1.17857e-13 -5.11995e-14 -4.51707e-13)
(9.53567e-14 -5.07358e-14 -4.43633e-13)
(7.35803e-14 -4.98671e-14 -4.36315e-13)
(5.27279e-14 -4.89997e-14 -4.28921e-13)
(3.32582e-14 -2.58296e-14 -4.21551e-13)
(5.04257e-13 3.31081e-13 -6.83025e-13)
(4.65377e-13 2.38041e-13 -6.48561e-13)
(3.98816e-13 -1.87332e-13 -6.14535e-13)
(3.36472e-13 -1.84918e-13 -5.82829e-13)
(2.78597e-13 -1.78513e-13 -5.53487e-13)
(2.24677e-13 -1.71956e-13 -5.26187e-13)
(1.74687e-13 -1.6566e-13 -4.99461e-13)
(1.27932e-13 -1.60097e-13 -4.74337e-13)
(8.42872e-14 -1.52857e-13 -4.52358e-13)
(4.46518e-14 -7.98154e-14 -4.29447e-13)
(6.23764e-13 2.61564e-13 -9.63795e-13)
(5.54306e-13 6.78076e-14 -8.78616e-13)
(4.58316e-13 -3.84444e-13 -8.02765e-13)
(3.71894e-13 -3.65749e-13 -7.33334e-13)
(2.95313e-13 -3.42642e-13 -6.7126e-13)
(2.27372e-13 -3.21509e-13 -6.14607e-13)
(1.66824e-13 -3.02248e-13 -5.63835e-13)
(1.13061e-13 -2.84809e-13 -5.1811e-13)
(6.49488e-14 -2.65347e-13 -4.75721e-13)
(2.31196e-14 -1.36224e-13 -4.38994e-13)
(8.18176e-13 1.40786e-13 -1.38344e-12)
(7.00409e-13 -1.97012e-13 -1.20981e-12)
(5.61277e-13 -6.63387e-13 -1.06012e-12)
(4.41994e-13 -6.09824e-13 -9.29765e-13)
(3.40979e-13 -5.54923e-13 -8.18011e-13)
(2.55239e-13 -5.0638e-13 -7.21745e-13)
(1.82299e-13 -4.63046e-13 -6.388e-13)
(1.20262e-13 -4.25034e-13 -5.66455e-13)
(6.74854e-14 -3.8667e-13 -5.02979e-13)
(2.3493e-14 -1.95835e-13 -4.4816e-13)
(1.09208e-12 -6.40362e-14 -2.02896e-12)
(8.96516e-13 -6.07072e-13 -1.69199e-12)
(6.94351e-13 -1.05872e-12 -1.41822e-12)
(5.29041e-13 -9.39868e-13 -1.19157e-12)
(3.95643e-13 -8.28942e-13 -1.0051e-12)
(2.8753e-13 -7.34444e-13 -8.52337e-13)
(1.99769e-13 -6.53322e-13 -7.25831e-13)
(1.28313e-13 -5.83326e-13 -6.20566e-13)
(7.03342e-14 -5.16861e-13 -5.32139e-13)
(2.40974e-14 -2.5743e-13 -4.59376e-13)
(1.48357e-12 -4.052e-13 -3.04594e-12)
(1.16591e-12 -1.24083e-12 -2.40911e-12)
(8.684e-13 -1.62209e-12 -1.92323e-12)
(6.37968e-13 -1.38797e-12 -1.53934e-12)
(4.61464e-13 -1.18356e-12 -1.24352e-12)
(3.24918e-13 -1.01592e-12 -1.01146e-12)
(2.19157e-13 -8.77041e-13 -8.28672e-13)
(1.3715e-13 -7.61494e-13 -6.82859e-13)
(7.31946e-14 -6.57428e-13 -5.63727e-13)
(2.4541e-14 -3.22784e-13 -4.70895e-13)
(2.05963e-12 -9.61337e-13 -4.68474e-12)
(1.54067e-12 -2.21995e-12 -3.4959e-12)
(1.0986e-12 -2.43538e-12 -2.64343e-12)
(7.75972e-13 -1.99927e-12 -2.00997e-12)
(5.41251e-13 -1.64338e-12 -1.54901e-12)
(3.68648e-13 -1.36444e-12 -1.20574e-12)
(2.41116e-13 -1.14134e-12 -9.48158e-13)
(1.46554e-13 -9.62569e-13 -7.52003e-13)
(7.60684e-14 -8.09302e-13 -5.98913e-13)
(2.49592e-14 -3.90792e-13 -4.84335e-13)
(3.19311e-12 -1.89204e-12 -7.41999e-12)
(2.07493e-12 -3.7579e-12 -5.18225e-12)
(1.40639e-12 -3.61458e-12 -3.6923e-12)
(9.5011e-13 -2.83789e-12 -2.65623e-12)
(6.35849e-13 -2.24254e-12 -1.94704e-12)
(4.16593e-13 -1.79579e-12 -1.44718e-12)
(2.62355e-13 -1.45393e-12 -1.09028e-12)
(1.53309e-13 -1.19007e-12 -8.30203e-13)
(7.58162e-14 -9.73122e-13 -6.38652e-13)
(2.20072e-14 -4.6212e-13 -4.98319e-13)
(4.69487e-10 -4.32983e-12 -1.67495e-11)
(-2.98424e-11 -7.01859e-12 -1.16083e-11)
(-2.44882e-11 -5.4661e-12 -8.25973e-12)
(-1.78133e-11 -4.08654e-12 -6.03642e-12)
(-1.32265e-11 -3.1004e-12 -4.55073e-12)
(-9.99347e-12 -2.39503e-12 -3.52557e-12)
(-7.67181e-12 -1.87754e-12 -2.80085e-12)
(-5.97718e-12 -1.49318e-12 -2.27669e-12)
(-4.7238e-12 -1.19142e-12 -1.88838e-12)
(-3.78754e-12 -5.74848e-13 -1.61202e-12)
(4.57085e-07 -1.76206e-09 -9.85515e-09)
(1.13984e-09 -1.58843e-09 -7.7584e-09)
(-7.63495e-10 -1.99648e-10 -5.89265e-09)
(-6.30756e-10 -1.48486e-10 -4.53977e-09)
(-5.16984e-10 -1.18633e-10 -3.55213e-09)
(-4.28184e-10 -9.5675e-11 -2.81707e-09)
(-3.57613e-10 -7.78959e-11 -2.26161e-09)
(-3.01219e-10 -6.40011e-11 -1.83598e-09)
(-2.58123e-10 -5.30513e-11 -1.5061e-09)
(-3.08524e-10 -4.68565e-11 -1.27249e-09)
(2.26796e-13 3.6783e-13 -2.30132e-14)
(2.14232e-13 3.45483e-13 -2.19672e-14)
(1.87823e-13 -4.78719e-14 -1.95303e-14)
(1.6258e-13 -5.21191e-14 -1.84401e-14)
(1.38549e-13 -5.14925e-14 -1.67927e-14)
(1.15522e-13 -5.08289e-14 -1.56076e-14)
(9.33844e-14 -5.01942e-14 -1.44076e-14)
(7.2193e-14 -4.94262e-14 -1.28994e-14)
(5.202e-14 -4.83123e-14 -1.24237e-14)
(3.30203e-14 -2.5173e-14 -1.25758e-14)
(4.98026e-13 3.34157e-13 -3.48266e-14)
(4.60054e-13 2.40188e-13 -3.15401e-14)
(3.94319e-13 -1.85398e-13 -2.90491e-14)
(3.32785e-13 -1.82968e-13 -2.55804e-14)
(2.7564e-13 -1.76088e-13 -2.25349e-14)
(2.22422e-13 -1.70069e-13 -2.08297e-14)
(1.72994e-13 -1.64225e-13 -1.82436e-14)
(1.26873e-13 -1.57975e-13 -1.62902e-14)
(8.37659e-14 -1.50814e-13 -1.49598e-14)
(4.45844e-14 -7.75474e-14 -1.40071e-14)
(6.15573e-13 2.68992e-13 -5.5381e-14)
(5.4769e-13 7.28419e-14 -4.90848e-14)
(4.52882e-13 -3.79599e-13 -4.24439e-14)
(3.6758e-13 -3.6113e-13 -3.66518e-14)
(2.91957e-13 -3.38697e-13 -3.17815e-14)
(2.24767e-13 -3.178e-13 -2.74849e-14)
(1.6516e-13 -2.9857e-13 -2.34448e-14)
(1.12062e-13 -2.81317e-13 -2.08263e-14)
(6.45805e-14 -2.62105e-13 -1.84996e-14)
(2.32847e-14 -1.32415e-13 -1.69189e-14)
(8.0762e-13 1.55679e-13 -8.98901e-14)
(6.91991e-13 -1.87313e-13 -7.73791e-14)
(5.54763e-13 -6.55149e-13 -6.47893e-14)
(4.3693e-13 -6.02313e-13 -5.41503e-14)
(3.37185e-13 -5.47999e-13 -4.51641e-14)
(2.52572e-13 -5.00093e-13 -3.83851e-14)
(1.80599e-13 -4.57466e-13 -3.20695e-14)
(1.19402e-13 -4.19601e-13 -2.69661e-14)
(6.73471e-14 -3.81682e-13 -2.37451e-14)
(2.39052e-14 -1.90972e-13 -2.05025e-14)
(1.07855e-12 -3.7482e-14 -1.52091e-13)
(8.86157e-13 -5.91117e-13 -1.24641e-13)
(6.86622e-13 -1.04489e-12 -1.00197e-13)
(5.23246e-13 -9.28084e-13 -8.02063e-14)
(3.91614e-13 -8.18799e-13 -6.50242e-14)
(2.84835e-13 -7.25347e-13 -5.22854e-14)
(1.98203e-13 -6.45022e-13 -4.26666e-14)
(1.2779e-13 -5.75934e-13 -3.66426e-14)
(7.01386e-14 -5.10518e-13 -3.18979e-14)
(2.45462e-14 -2.51163e-13 -2.65906e-14)
(1.46608e-12 -3.58067e-13 -2.63046e-13)
(1.15313e-12 -1.21556e-12 -2.03142e-13)
(8.59118e-13 -1.60172e-12 -1.57339e-13)
(6.31454e-13 -1.37095e-12 -1.20457e-13)
(4.57135e-13 -1.16879e-12 -9.41245e-14)
(3.22275e-13 -1.00346e-12 -7.47356e-14)
(2.1785e-13 -8.66117e-13 -5.96086e-14)
(1.36671e-13 -7.52834e-13 -4.8831e-14)
(7.32749e-14 -6.50193e-13 -3.92061e-14)
(2.5124e-14 -3.14927e-13 -3.29149e-14)
(2.03726e-12 -8.79499e-13 -4.61133e-13)
(1.52466e-12 -2.18233e-12 -3.3679e-13)
(1.08765e-12 -2.40527e-12 -2.4508e-13)
(7.68754e-13 -1.97516e-12 -1.81324e-13)
(5.36735e-13 -1.62373e-12 -1.35846e-13)
(3.66092e-13 -1.34806e-12 -1.03674e-13)
(2.39855e-13 -1.12795e-12 -8.08552e-14)
(1.46126e-13 -9.52061e-13 -6.41595e-14)
(7.66709e-14 -8.00629e-13 -5.11889e-14)
(2.57439e-14 -3.82076e-13 -4.12717e-14)
(3.18055e-12 -1.7497e-12 -8.25242e-13)
(2.05699e-12 -3.70288e-12 -5.61005e-13)
(1.39509e-12 -3.57177e-12 -3.86803e-13)
(9.44318e-13 -2.80532e-12 -2.70865e-13)
(6.33902e-13 -2.21663e-12 -1.95337e-13)
(4.17278e-13 -1.77577e-12 -1.43483e-13)
(2.64665e-13 -1.43826e-12 -1.07358e-13)
(1.56711e-13 -1.17728e-12 -8.24243e-14)
(7.99443e-14 -9.63371e-13 -6.5216e-14)
(2.65334e-14 -4.52588e-13 -5.13347e-14)
(5.32336e-10 -3.97968e-12 -1.89827e-12)
(5.75417e-12 -6.85159e-12 -9.59421e-13)
(9.30426e-13 -5.30353e-12 -6.2428e-13)
(6.03959e-13 -3.95669e-12 -4.2806e-13)
(3.9e-13 -2.99569e-12 -3.03509e-13)
(2.36331e-13 -2.30949e-12 -2.23518e-13)
(1.28919e-13 -1.80679e-12 -1.69155e-13)
(5.4356e-14 -1.43376e-12 -1.31746e-13)
(2.82251e-15 -1.14045e-12 -1.04992e-13)
(-3.01413e-14 -5.27486e-13 -8.59942e-14)
(4.53607e-07 -1.52434e-09 -1.18918e-09)
(2.07419e-09 -1.41002e-09 -4.1884e-10)
(-2.89867e-11 -3.25002e-11 -2.7187e-10)
(-2.54904e-11 -1.4622e-11 -1.81969e-10)
(-1.82998e-11 -1.03198e-11 -1.24978e-10)
(-1.34148e-11 -7.46737e-12 -8.76909e-11)
(-9.99414e-12 -5.4959e-12 -6.27283e-11)
(-7.56099e-12 -4.1143e-12 -4.56746e-11)
(-5.86343e-12 -3.11425e-12 -3.38198e-11)
(-5.85054e-12 -1.999e-12 -2.54715e-11)
(2.26921e-13 3.67755e-13 -1.15785e-14)
(2.14261e-13 3.4486e-13 -1.04956e-14)
(1.88029e-13 -4.86766e-14 -7.9536e-15)
(1.62712e-13 -5.2628e-14 -5.68992e-15)
(1.3861e-13 -5.17511e-14 -4.50897e-15)
(1.15452e-13 -5.121e-14 -3.44752e-15)
(9.34985e-14 -5.08927e-14 -2.74097e-15)
(7.23775e-14 -4.97513e-14 -1.56408e-15)
(5.20972e-14 -4.82349e-14 -5.19236e-16)
(3.3144e-14 -2.54076e-14 -4.92284e-16)
(4.98654e-13 3.33909e-13 -1.64136e-14)
(4.60595e-13 2.39834e-13 -1.46624e-14)
(3.94852e-13 -1.85809e-13 -1.14898e-14)
(3.33145e-13 -1.83817e-13 -9.82173e-15)
(2.75963e-13 -1.76908e-13 -6.82575e-15)
(2.22662e-13 -1.70348e-13 -4.88766e-15)
(1.73256e-13 -1.64327e-13 -4.25613e-15)
(1.27242e-13 -1.58445e-13 -3.70016e-15)
(8.41294e-14 -1.5095e-13 -2.58379e-15)
(4.4974e-14 -7.74543e-14 -1.78794e-15)
(6.16791e-13 2.68816e-13 -2.71623e-14)
(5.48856e-13 7.20968e-14 -2.41588e-14)
(4.53799e-13 -3.80771e-13 -1.95728e-14)
(3.68395e-13 -3.62165e-13 -1.55114e-14)
(2.9271e-13 -3.3917e-13 -1.23109e-14)
(2.2553e-13 -3.18341e-13 -9.76405e-15)
(1.65726e-13 -2.98993e-13 -7.87448e-15)
(1.12599e-13 -2.81397e-13 -6.66714e-15)
(6.51463e-14 -2.61996e-13 -6.22537e-15)
(2.37661e-14 -1.32545e-13 -5.58601e-15)
(8.09833e-13 1.555e-13 -4.65444e-14)
(6.94135e-13 -1.88422e-13 -4.06086e-14)
(5.5652e-13 -6.56422e-13 -3.37744e-14)
(4.38456e-13 -6.03575e-13 -2.74964e-14)
(3.38546e-13 -5.48989e-13 -2.24835e-14)
(2.53663e-13 -5.00935e-13 -1.8388e-14)
(1.81579e-13 -4.5825e-13 -1.5563e-14)
(1.20373e-13 -4.20169e-13 -1.32738e-14)
(6.83102e-14 -3.82043e-13 -1.1295e-14)
(2.46187e-14 -1.90588e-13 -1.06463e-14)
(1.08258e-12 -3.74145e-14 -8.18706e-14)
(8.89652e-13 -5.93201e-13 -7.09385e-14)
(6.89591e-13 -1.0478e-12 -5.76613e-14)
(5.25697e-13 -9.30292e-13 -4.62943e-14)
(3.93678e-13 -8.20589e-13 -3.85394e-14)
(2.86621e-13 -7.27114e-13 -3.15855e-14)
(1.99743e-13 -6.45985e-13 -2.57314e-14)
(1.29099e-13 -5.76225e-13 -2.24329e-14)
(7.14085e-14 -5.11199e-13 -1.96516e-14)
(2.56338e-14 -2.51706e-13 -1.6886e-14)
(1.4729e-12 -3.58925e-13 -1.44901e-13)
(1.15891e-12 -1.21995e-12 -1.20421e-13)
(8.63728e-13 -1.60601e-12 -9.61738e-14)
(6.35331e-13 -1.37497e-12 -7.67993e-14)
(4.60235e-13 -1.17192e-12 -6.18786e-14)
(3.24927e-13 -1.00606e-12 -5.13794e-14)
(2.20064e-13 -8.68418e-13 -4.12951e-14)
(1.38509e-13 -7.54347e-13 -3.46126e-14)
(7.47705e-14 -6.51449e-13 -3.01674e-14)
(2.64162e-14 -3.15582e-13 -2.55855e-14)
(2.04876e-12 -8.80825e-13 -2.5865e-13)
(1.53421e-12 -2.1914e-12 -2.06976e-13)
(1.09476e-12 -2.41403e-12 -1.59391e-13)
(7.74304e-13 -1.98212e-12 -1.23342e-13)
(5.41186e-13 -1.62947e-12 -9.80919e-14)
(3.69554e-13 -1.35275e-12 -7.79913e-14)
(2.42696e-13 -1.13152e-12 -6.28423e-14)
(1.48531e-13 -9.54722e-13 -5.17913e-14)
(7.85625e-14 -8.03213e-13 -4.33757e-14)
(2.73957e-14 -3.83449e-13 -3.64127e-14)
(3.21922e-12 -1.75271e-12 -4.64705e-13)
(2.07152e-12 -3.72147e-12 -3.53143e-13)
(1.40578e-12 -3.58812e-12 -2.58497e-13)
(9.52608e-13 -2.81773e-12 -1.94079e-13)
(6.40246e-13 -2.22649e-12 -1.48694e-13)
(4.22232e-13 -1.78356e-12 -1.15808e-13)
(2.68524e-13 -1.44425e-12 -9.14113e-14)
(1.5969e-13 -1.18208e-12 -7.3348e-14)
(8.22322e-14 -9.67172e-13 -5.95732e-14)
(2.84e-14 -4.5479e-13 -5.01436e-14)
(5.66916e-10 -4.04262e-12 -1.20006e-12)
(7.53158e-12 -6.93795e-12 -5.96132e-13)
(1.81525e-12 -5.33065e-12 -4.16249e-13)
(1.1631e-12 -3.97646e-12 -3.01753e-13)
(7.49331e-13 -3.01089e-12 -2.22963e-13)
(4.75011e-13 -2.32098e-12 -1.68267e-13)
(2.91115e-13 -1.81548e-12 -1.28231e-13)
(1.66895e-13 -1.44032e-12 -1.00532e-13)
(8.21358e-14 -1.14559e-12 -7.95043e-14)
(2.58989e-14 -5.29824e-13 -6.43049e-14)
(4.81818e-07 -1.61331e-09 -8.69013e-10)
(2.35987e-09 -1.47562e-09 -2.56868e-11)
(7.62501e-12 -2.08272e-11 -9.8688e-12)
(3.32832e-13 -6.00036e-12 -5.81134e-12)
(2.37403e-13 -4.26078e-12 -3.51577e-12)
(1.76658e-13 -3.1271e-12 -2.21257e-12)
(1.2309e-13 -2.34271e-12 -1.43407e-12)
(8.11255e-14 -1.78948e-12 -9.54562e-13)
(4.80841e-14 -1.37663e-12 -6.4876e-13)
(1.08457e-14 -6.35594e-13 -4.463e-13)
(2.27411e-13 3.67417e-13 -1.38779e-14)
(2.14711e-13 3.44086e-13 -1.16162e-14)
(1.88239e-13 -4.97335e-14 -9.77882e-15)
(1.63044e-13 -5.3441e-14 -6.67089e-15)
(1.38767e-13 -5.23436e-14 -5.12378e-15)
(1.1561e-13 -5.14884e-14 -2.99962e-15)
(9.35124e-14 -5.09031e-14 -2.10219e-15)
(7.24511e-14 -5.02751e-14 -1.55549e-15)
(5.2295e-14 -4.87044e-14 -8.21715e-16)
(3.32069e-14 -2.50827e-14 -1.53426e-15)
(4.9996e-13 3.33549e-13 -2.02244e-14)
(4.61777e-13 2.38427e-13 -1.80257e-14)
(3.95713e-13 -1.87084e-13 -1.27942e-14)
(3.33998e-13 -1.84621e-13 -1.05605e-14)
(2.76603e-13 -1.77855e-13 -7.99647e-15)
(2.23198e-13 -1.70929e-13 -5.78034e-15)
(1.73642e-13 -1.6456e-13 -4.15841e-15)
(1.27565e-13 -1.58516e-13 -3.4229e-15)
(8.45943e-14 -1.51472e-13 -3.38459e-15)
(4.5352e-14 -7.79374e-14 -2.78232e-15)
(6.19184e-13 2.68048e-13 -3.23165e-14)
(5.50893e-13 7.03506e-14 -2.88287e-14)
(4.55671e-13 -3.82495e-13 -2.31646e-14)
(3.69817e-13 -3.63575e-13 -1.87807e-14)
(2.93983e-13 -3.40609e-13 -1.45132e-14)
(2.26559e-13 -3.19251e-13 -1.13489e-14)
(1.66707e-13 -2.99561e-13 -9.3149e-15)
(1.13418e-13 -2.81792e-13 -8.48316e-15)
(6.58586e-14 -2.62383e-13 -7.36302e-15)
(2.46277e-14 -1.33002e-13 -6.66638e-15)
(8.13966e-13 1.53818e-13 -5.63134e-14)
(6.97591e-13 -1.91236e-13 -4.85758e-14)
(5.59462e-13 -6.59312e-13 -4.0049e-14)
(4.40827e-13 -6.05946e-13 -3.23104e-14)
(3.40604e-13 -5.5096e-13 -2.61567e-14)
(2.55491e-13 -5.02322e-13 -2.10009e-14)
(1.83076e-13 -4.59142e-13 -1.80804e-14)
(1.21669e-13 -4.21061e-13 -1.61138e-14)
(6.93326e-14 -3.82569e-13 -1.45463e-14)
(2.56212e-14 -1.90854e-13 -1.26168e-14)
(1.0894e-12 -4.08088e-14 -9.89377e-14)
(8.9538e-13 -5.98227e-13 -8.38334e-14)
(6.94139e-13 -1.05251e-12 -6.87013e-14)
(5.29426e-13 -9.34177e-13 -5.59216e-14)
(3.96747e-13 -8.23652e-13 -4.63601e-14)
(2.89301e-13 -7.2977e-13 -3.88085e-14)
(2.01793e-13 -6.48238e-13 -3.1851e-14)
(1.30852e-13 -5.78095e-13 -2.71514e-14)
(7.29208e-14 -5.12508e-13 -2.29332e-14)
(2.68153e-14 -2.52336e-13 -2.07839e-14)
(1.48433e-12 -3.65169e-13 -1.72605e-13)
(1.16818e-12 -1.22936e-12 -1.44511e-13)
(8.70941e-13 -1.61471e-12 -1.14726e-13)
(6.40868e-13 -1.38168e-12 -9.13935e-14)
(4.6475e-13 -1.17712e-12 -7.44691e-14)
(3.28477e-13 -1.0106e-12 -6.19471e-14)
(2.22988e-13 -8.72128e-13 -5.04316e-14)
(1.40868e-13 -7.56966e-13 -4.19884e-14)
(7.67802e-14 -6.53755e-13 -3.61635e-14)
(2.80917e-14 -3.1679e-13 -3.16803e-14)
(2.06803e-12 -8.9377e-13 -3.0558e-13)
(1.54901e-12 -2.2089e-12 -2.44753e-13)
(1.10586e-12 -2.42945e-12 -1.90304e-13)
(7.82709e-13 -1.99401e-12 -1.48319e-13)
(5.47663e-13 -1.63866e-12 -1.1848e-13)
(3.74594e-13 -1.36035e-12 -9.51366e-14)
(2.46746e-13 -1.13756e-12 -7.69718e-14)
(1.51639e-13 -9.59505e-13 -6.22486e-14)
(8.10048e-14 -8.0685e-13 -5.2333e-14)
(2.94723e-14 -3.85471e-13 -4.48013e-14)
(3.26435e-12 -1.77845e-12 -5.44151e-13)
(2.0954e-12 -3.75517e-12 -4.16831e-13)
(1.42263e-12 -3.61581e-12 -3.10132e-13)
(9.64903e-13 -2.83837e-12 -2.34588e-13)
(6.49249e-13 -2.24206e-12 -1.80981e-13)
(4.29015e-13 -1.79578e-12 -1.42087e-13)
(2.73598e-13 -1.45414e-12 -1.13146e-13)
(1.63621e-13 -1.18975e-12 -8.90881e-14)
(8.52515e-14 -9.72926e-13 -7.21451e-14)
(3.07672e-14 -4.57858e-13 -6.08015e-14)
(6.03681e-10 -4.08014e-12 -7.89954e-13)
(8.02763e-12 -7.03484e-12 -7.02411e-13)
(1.86661e-12 -5.38073e-12 -5.04302e-13)
(1.19383e-12 -4.01197e-12 -3.65556e-13)
(7.69151e-13 -3.03698e-12 -2.71887e-13)
(4.88287e-13 -2.34082e-12 -2.05597e-13)
(3.00367e-13 -1.83051e-12 -1.57711e-13)
(1.73482e-13 -1.45169e-12 -1.22513e-13)
(8.68776e-14 -1.1544e-12 -9.71912e-14)
(2.93301e-14 -5.34741e-13 -7.90412e-14)
(5.24886e-07 -1.68053e-09 -4.43246e-10)
(2.55201e-09 -1.56916e-09 -9.52529e-13)
(1.01387e-11 -2.13896e-11 -1.04599e-12)
(1.1711e-12 -5.71243e-12 -6.94846e-13)
(7.68644e-13 -4.08908e-12 -4.70868e-13)
(5.16583e-13 -3.02286e-12 -3.31545e-13)
(3.47915e-13 -2.27853e-12 -2.40858e-13)
(2.32983e-13 -1.74935e-12 -1.77463e-13)
(1.53671e-13 -1.35122e-12 -1.34345e-13)
(9.94604e-14 -6.16413e-13 -1.04578e-13)
(2.28083e-13 3.66835e-13 -1.58425e-14)
(2.15381e-13 3.43233e-13 -1.38899e-14)
(1.88592e-13 -5.06328e-14 -1.05708e-14)
(1.6339e-13 -5.44739e-14 -8.43566e-15)
(1.39099e-13 -5.32122e-14 -6.36823e-15)
(1.159e-13 -5.24107e-14 -4.39516e-15)
(9.38198e-14 -5.14678e-14 -2.99944e-15)
(7.27108e-14 -5.02865e-14 -5.24962e-15)
(5.26173e-14 -4.83539e-14 -1.67637e-14)
(3.34609e-14 -2.54742e-14 -4.72263e-14)
(5.0154e-13 3.32899e-13 -2.40471e-14)
(4.63216e-13 2.36956e-13 -2.00155e-14)
(3.96899e-13 -1.88698e-13 -1.6008e-14)
(3.34973e-13 -1.85694e-13 -1.25574e-14)
(2.77413e-13 -1.78801e-13 -1.02246e-14)
(2.23951e-13 -1.71883e-13 -7.78288e-15)
(1.7437e-13 -1.65289e-13 -6.5878e-15)
(1.2832e-13 -1.58809e-13 -6.53745e-15)
(8.51912e-14 -1.51386e-13 -1.15321e-14)
(4.5844e-14 -7.86361e-14 -3.37454e-14)
(6.22017e-13 2.67099e-13 -3.80937e-14)
(5.53251e-13 6.86028e-14 -3.2057e-14)
(4.57739e-13 -3.84569e-13 -2.57911e-14)
(3.71578e-13 -3.65488e-13 -2.10328e-14)
(2.95399e-13 -3.42069e-13 -1.72015e-14)
(2.27816e-13 -3.20434e-13 -1.43804e-14)
(1.67831e-13 -3.00211e-13 -1.22251e-14)
(1.14544e-13 -2.82312e-13 -1.19464e-14)
(6.68936e-14 -2.62999e-13 -1.50456e-14)
(2.53265e-14 -1.33956e-13 -2.7644e-14)
(8.18919e-13 1.51773e-13 -6.47024e-14)
(7.01674e-13 -1.94472e-13 -5.42284e-14)
(5.62841e-13 -6.62459e-13 -4.44713e-14)
(4.43702e-13 -6.08834e-13 -3.66605e-14)
(3.43118e-13 -5.53386e-13 -3.05373e-14)
(2.57687e-13 -5.04234e-13 -2.65259e-14)
(1.84939e-13 -4.60399e-13 -2.31931e-14)
(1.23193e-13 -4.21819e-13 -2.0675e-14)
(7.07123e-14 -3.83841e-13 -2.15087e-14)
(2.68155e-14 -1.9219e-13 -2.82146e-14)
(1.0976e-12 -4.47602e-14 -1.13499e-13)
(9.02161e-13 -6.04069e-13 -9.36584e-14)
(6.99556e-13 -1.05791e-12 -7.5893e-14)
(5.33817e-13 -9.38669e-13 -6.28795e-14)
(4.00472e-13 -8.27256e-13 -5.28678e-14)
(2.92519e-13 -7.33001e-13 -4.54316e-14)
(2.04527e-13 -6.50975e-13 -3.98141e-14)
(1.32986e-13 -5.80244e-13 -3.49e-14)
(7.46988e-14 -5.14295e-13 -3.15356e-14)
(2.85778e-14 -2.53927e-13 -3.53081e-14)
(1.49805e-12 -3.72854e-13 -2.00093e-13)
(1.17894e-12 -1.24007e-12 -1.61197e-13)
(8.79341e-13 -1.62466e-12 -1.28465e-13)
(6.4762e-13 -1.38977e-12 -1.04572e-13)
(4.70122e-13 -1.18331e-12 -8.61238e-14)
(3.32903e-13 -1.01583e-12 -7.35215e-14)
(2.26622e-13 -8.76868e-13 -6.1813e-14)
(1.43725e-13 -7.60776e-13 -5.27167e-14)
(7.92163e-14 -6.56471e-13 -4.68564e-14)
(3.01066e-14 -3.19015e-13 -4.59235e-14)
(2.09101e-12 -9.09241e-13 -3.51463e-13)
(1.5662e-12 -2.2292e-12 -2.72732e-13)
(1.11879e-12 -2.44667e-12 -2.12956e-13)
(7.92723e-13 -2.00779e-12 -1.69227e-13)
(5.55401e-13 -1.64948e-12 -1.35815e-13)
(3.80666e-13 -1.36927e-12 -1.12096e-13)
(2.51639e-13 -1.14519e-12 -9.1568e-14)
(1.55449e-13 -9.65577e-13 -7.6934e-14)
(8.39754e-14 -8.11535e-13 -6.61511e-14)
(3.18557e-14 -3.88729e-13 -6.00691e-14)
(3.27343e-12 -1.80892e-12 -6.20987e-13)
(2.12228e-12 -3.79345e-12 -4.61941e-13)
(1.44268e-12 -3.64704e-12 -3.48277e-13)
(9.79527e-13 -2.86218e-12 -2.66606e-13)
(6.6016e-13 -2.26032e-12 -2.07623e-13)
(4.37221e-13 -1.80999e-12 -1.65763e-13)
(2.79931e-13 -1.46618e-12 -1.34961e-13)
(1.6846e-13 -1.19981e-12 -1.08681e-13)
(8.89402e-14 -9.80389e-13 -9.01503e-14)
(3.36293e-14 -4.62379e-13 -7.7594e-14)
(6.03165e-10 -3.80294e-12 1.29261e-12)
(7.5892e-12 -7.02591e-12 -7.45656e-13)
(1.89445e-12 -5.435e-12 -5.69883e-13)
(1.21611e-12 -4.05316e-12 -4.16181e-13)
(7.84966e-13 -3.06763e-12 -3.13504e-13)
(4.99673e-13 -2.36428e-12 -2.40954e-13)
(3.08632e-13 -1.84937e-12 -1.90151e-13)
(1.7949e-13 -1.46615e-12 -1.4694e-13)
(9.13413e-14 -1.16562e-12 -1.19904e-13)
(3.25656e-14 -5.41517e-13 -9.97918e-14)
(5.47284e-07 -1.29695e-09 2.56964e-09)
(2.46367e-09 -1.56285e-09 3.93843e-11)
(8.20297e-12 -2.01872e-11 -6.91749e-13)
(1.20318e-12 -5.76066e-12 -6.43011e-13)
(7.94525e-13 -4.13406e-12 -4.65857e-13)
(5.33543e-13 -3.05707e-12 -3.44598e-13)
(3.59494e-13 -2.30553e-12 -2.61514e-13)
(2.41156e-13 -1.76989e-12 -1.95497e-13)
(1.59298e-13 -1.36692e-12 -1.54094e-13)
(1.03667e-13 -6.25276e-13 -1.24023e-13)
(2.28511e-13 3.66662e-13 -1.17072e-14)
(2.1511e-13 3.42105e-13 -1.72766e-15)
(1.88706e-13 -5.18094e-14 -1.98809e-15)
(1.63592e-13 -5.50767e-14 -5.05619e-15)
(1.39616e-13 -5.39993e-14 -1.32721e-14)
(1.16825e-13 -5.30215e-14 -2.88252e-14)
(9.52339e-14 -5.09974e-14 -5.72071e-14)
(7.58359e-14 -4.64461e-14 -2.09749e-13)
(5.89051e-14 -3.83529e-14 -8.06843e-13)
(3.77816e-14 -4.48345e-14 -2.17042e-12)
(5.02678e-13 3.32131e-13 -1.47178e-14)
(4.63269e-13 2.35908e-13 1.75396e-15)
(3.97307e-13 -1.89595e-13 -1.37935e-15)
(3.35531e-13 -1.86649e-13 -4.27087e-15)
(2.78306e-13 -1.79773e-13 -1.24821e-14)
(2.25242e-13 -1.72828e-13 -2.72792e-14)
(1.75971e-13 -1.66104e-13 -4.93872e-14)
(1.30633e-13 -1.59782e-13 -1.39035e-13)
(8.87024e-14 -1.52038e-13 -4.81256e-13)
(4.66866e-14 -1.13173e-13 -1.42484e-12)
(6.23985e-13 2.66096e-13 -2.43658e-14)
(5.5394e-13 6.71491e-14 -1.77458e-17)
(4.58524e-13 -3.85573e-13 -1.45258e-15)
(3.72639e-13 -3.66186e-13 -6.15621e-15)
(2.96797e-13 -3.4301e-13 -1.37337e-14)
(2.29708e-13 -3.21779e-13 -2.88487e-14)
(1.70028e-13 -3.02147e-13 -5.20951e-14)
(1.16983e-13 -2.8449e-13 -1.05082e-13)
(7.01952e-14 -2.68442e-13 -3.17375e-13)
(2.66243e-14 -1.71691e-13 -9.39177e-13)
(8.22468e-13 1.50699e-13 -4.30179e-14)
(7.03193e-13 -1.95639e-13 -6.36489e-15)
(5.64497e-13 -6.635e-13 -7.7969e-15)
(4.45627e-13 -6.09699e-13 -1.30448e-14)