/*--------------------------------*- C++ -*----------------------------------*\
| =========                 |                                                 |
| \\      /  F ield         | OpenFOAM: The Open Source CFD Toolbox           |
|  \\    /   O peration     | Version:  4.1                                   |
|   \\  /    A nd           | Web:      www.OpenFOAM.org                      |
|    \\/     M anipulation  |                                                 |
\*---------------------------------------------------------------------------*/
FoamFile
{
    version     2.0;
    format      ascii;
    class       volScalarField;
    location    "4.38";
    object      p;
}
// * * * * * * * * * * * * * * * * * * * * * * * * * * * * * * * * * * * * * //

dimensions      [1 -1 -2 0 0 0 0];

internalField   nonuniform List<scalar> 
52500
(
1.00001
1.00003
1.0001
1.00022
1.00065
1.00132
1.00379
1.00746
1.02305
1.04112
1.14992
1.26326
2.01973
3.37653
8.12548
11.573
11.2132
10.9742
11.0521
11.276
11.5132
11.6589
11.7682
11.8549
11.9216
1.00001
1.00003
1.0001
1.00022
1.00064
1.0013
1.00374
1.00735
1.02273
1.04054
1.14779
1.25921
2.00414
3.33775
8.02282
11.581
11.2096
10.9632
11.0423
11.2675
11.5044
11.6501
11.761
11.8492
11.9174
1.00001
1.00003
1.0001
1.00021
1.00062
1.00127
1.00364
1.00717
1.02207
1.03947
1.14336
1.25144
1.96869
3.2547
7.79046
11.5972
11.1993
10.9313
11.0097
11.2334
11.4674
11.6105
11.7208
11.8081
11.8763
1.00001
1.00003
1.00009
1.00021
1.00059
1.00122
1.00349
1.00688
1.02109
1.03785
1.13666
1.23975
1.91529
3.12918
7.43032
11.6247
11.1856
10.8795
10.9545
11.1727
11.4021
11.5402
11.6467
11.7317
11.8007
1.00001
1.00003
1.00009
1.0002
1.00057
1.00117
1.00332
1.00664
1.01976
1.03681
1.12603
1.22713
1.842
2.96538
6.94412
11.6544
11.1698
10.8101
10.8789
11.0872
11.3109
11.4421
11.5429
11.6242
11.6942
1.00001
1.00002
1.00008
1.00018
1.00053
1.00109
1.0031
1.00626
1.01819
1.03532
1.11356
1.21196
1.75696
2.77333
6.35248
11.6587
11.1468
10.7255
10.7846
10.9758
11.1903
11.31
11.3998
11.4734
11.5449
1
1.00002
1.00008
1.00017
1.00049
1.001
1.00284
1.00574
1.01656
1.03256
1.10171
1.19434
1.66899
2.56763
5.68575
11.5767
11.0871
10.6239
10.671
10.8362
11.0344
11.1371
11.2084
11.2641
11.3292
1
1.00002
1.00007
1.00015
1.00044
1.00091
1.00258
1.00521
1.01502
1.0296
1.09183
1.17626
1.60003
2.40353
5.23564
11.2161
10.92
10.5101
10.5382
10.6619
10.8346
10.9114
10.9508
10.9699
11.0087
1
1.00002
1.00006
1.00013
1.00039
1.00081
1.0023
1.00465
1.01343
1.02634
1.0828
1.15431
1.54013
2.24201
4.80264
10.5457
10.6134
10.4326
10.3968
10.4593
10.5877
10.6244
10.6119
10.5536
10.4943
1
1.00001
1.00005
1.00011
1.00033
1.00067
1.00193
1.00376
1.01175
1.02052
1.07524
1.12658
1.48681
2.07408
4.36208
9.70013
10.4525
10.3336
10.2226
10.2445
10.2962
10.2762
10.181
9.95391
9.59344
1.00001
1.00003
1.00011
1.00023
1.00065
1.00133
1.0038
1.00747
1.02306
1.04114
1.14994
1.26332
2.0198
3.3768
8.126
11.5729
11.2132
10.9743
11.0521
11.2761
11.5133
11.6589
11.7683
11.855
11.9217
1.00001
1.00003
1.0001
1.00023
1.00064
1.00131
1.00375
1.00736
1.02274
1.04056
1.14782
1.25927
2.00421
3.33801
8.02334
11.5809
11.2096
10.9633
11.0424
11.2676
11.5045
11.6502
11.7611
11.8492
11.9175
1.00001
1.00003
1.0001
1.00022
1.00063
1.00128
1.00365
1.00718
1.02208
1.03949
1.14338
1.2515
1.96876
3.25496
7.79098
11.5971
11.1993
10.9314
11.0098
11.2335
11.4674
11.6106
11.7208
11.8082
11.8764
1.00001
1.00003
1.0001
1.00021
1.0006
1.00123
1.0035
1.00689
1.0211
1.03787
1.13668
1.2398
1.91535
3.12943
7.43084
11.6246
11.1856
10.8796
10.9546
11.1728
11.4022
11.5403
11.6468
11.7318
11.8007
1.00001
1.00003
1.00009
1.0002
1.00057
1.00117
1.00333
1.00665
1.01977
1.03684
1.12603
1.2272
1.84202
2.9656
6.94459
11.6543
11.1699
10.8102
10.879
11.0872
11.311
11.4421
11.543
11.6242
11.6943
1.00001
1.00003
1.00009
1.00019
1.00054
1.0011
1.00311
1.00627
1.0182
1.03533
1.11357
1.21201
1.757
2.77353
6.35292
11.6586
11.1468
10.7255
10.7847
10.9758
11.1904
11.3101
11.3999
11.4734
11.545
1.00001
1.00002
1.00008
1.00017
1.00049
1.00101
1.00285
1.00574
1.01657
1.03258
1.10173
1.19438
1.66904
2.5678
5.68617
11.5767
11.0871
10.624
10.671
10.8362
11.0345
11.1372
11.2085
11.2642
11.3293
1
1.00002
1.00007
1.00016
1.00045
1.00092
1.00258
1.00522
1.01503
1.02961
1.09184
1.1763
1.60006
2.40365
5.23586
11.2163
10.92
10.5102
10.5383
10.662
10.8347
10.9114
10.9508
10.9699
11.0088
1
1.00002
1.00006
1.00014
1.0004
1.00082
1.00231
1.00466
1.01344
1.02635
1.08281
1.15435
1.54015
2.24213
4.80281
10.546
10.6134
10.4327
10.3969
10.4594
10.5877
10.6245
10.6119
10.5537
10.4943
1
1.00002
1.00005
1.00012
1.00033
1.00068
1.00194
1.00377
1.01176
1.02054
1.07526
1.12661
1.48682
2.0742
4.36221
9.70046
10.4526
10.3336
10.2226
10.2445
10.2963
10.2763
10.1811
9.95396
9.59349
1.00001
1.00003
1.00011
1.00023
1.00065
1.00133
1.0038
1.00747
1.02306
1.04114
1.14995
1.26332
2.0198
3.37681
8.12603
11.5729
11.2132
10.9743
11.0522
11.2761
11.5133
11.6589
11.7683
11.855
11.9217
1.00001
1.00003
1.0001
1.00023
1.00064
1.00131
1.00375
1.00736
1.02274
1.04056
1.14782
1.25927
2.00422
3.33802
8.02336
11.5809
11.2096
10.9633
11.0424
11.2676
11.5045
11.6502
11.7611
11.8492
11.9175
1.00001
1.00003
1.0001
1.00022
1.00063
1.00128
1.00365
1.00718
1.02208
1.03949
1.14338
1.2515
1.96877
3.25497
7.79101
11.5971
11.1993
10.9314
11.0098
11.2335
11.4674
11.6106
11.7208
11.8082
11.8764
1.00001
1.00003
1.0001
1.00021
1.0006
1.00123
1.0035
1.00689
1.0211
1.03787
1.13668
1.2398
1.91536
3.12944
7.43087
11.6246
11.1856
10.8796
10.9546
11.1728
11.4022
11.5403
11.6468
11.7318
11.8007
1.00001
1.00003
1.00009
1.0002
1.00057
1.00117
1.00333
1.00665
1.01977
1.03684
1.12603
1.2272
1.84203
2.96561
6.94462
11.6543
11.1698
10.8102
10.879
11.0872
11.311
11.4421
11.543
11.6242
11.6943
1.00001
1.00003
1.00009
1.00019
1.00054
1.0011
1.00311
1.00627
1.0182
1.03533
1.11357
1.21201
1.757
2.77354
6.35295
11.6586
11.1468
10.7255
10.7847
10.9758
11.1904
11.3101
11.3999
11.4734
11.545
1.00001
1.00002
1.00008
1.00017
1.00049
1.00101
1.00285
1.00574
1.01657
1.03258
1.10173
1.19438
1.66904
2.56781
5.6862
11.5767
11.0871
10.624
10.671
10.8362
11.0345
11.1372
11.2085
11.2642
11.3293
1
1.00002
1.00007
1.00016
1.00045
1.00092
1.00258
1.00522
1.01503
1.02961
1.09185
1.1763
1.60007
2.40366
5.23588
11.2163
10.92
10.5102
10.5383
10.662
10.8347
10.9114
10.9508
10.9699
11.0088
1
1.00002
1.00006
1.00014
1.0004
1.00082
1.00231
1.00466
1.01344
1.02635
1.08281
1.15435
1.54015
2.24214
4.80282
10.5461
10.6134
10.4327
10.3969
10.4594
10.5877
10.6245
10.6119
10.5537
10.4943
1
1.00002
1.00005
1.00012
1.00033
1.00068
1.00194
1.00377
1.01176
1.02054
1.07526
1.12661
1.48682
2.07421
4.36222
9.70049
10.4526
10.3336
10.2227
10.2445
10.2963
10.2763
10.1811
9.95396
9.59349
1.00001
1.00003
1.00011
1.00023
1.00065
1.00133
1.0038
1.00747
1.02306
1.04114
1.14995
1.26332
2.0198
3.37681
8.12603
11.5729
11.2132
10.9743
11.0522
11.2761
11.5133
11.6589
11.7683
11.855
11.9217
1.00001
1.00003
1.0001
1.00023
1.00064
1.00131
1.00375
1.00736
1.02274
1.04056
1.14782
1.25927
2.00422
3.33802
8.02336
11.5809
11.2096
10.9633
11.0424
11.2676
11.5045
11.6502
11.7611
11.8492
11.9175
1.00001
1.00003
1.0001
1.00022
1.00063
1.00128
1.00365
1.00718
1.02208
1.03949
1.14338
1.2515
1.96877
3.25497
7.79101
11.5971
11.1993
10.9314
11.0098
11.2335
11.4674
11.6106
11.7208
11.8082
11.8764
1.00001
1.00003
1.0001
1.00021
1.0006
1.00123
1.0035
1.00689
1.0211
1.03787
1.13668
1.2398
1.91536
3.12944
7.43087
11.6246
11.1856
10.8796
10.9546
11.1728
11.4022
11.5403
11.6468
11.7318
11.8007
1.00001
1.00003
1.00009
1.0002
1.00057
1.00117
1.00333
1.00665
1.01977
1.03684
1.12603
1.2272
1.84203
2.96561
6.94462
11.6543
11.1698
10.8102
10.879
11.0872
11.311
11.4421
11.543
11.6242
11.6943
1.00001
1.00003
1.00009
1.00019
1.00054
1.0011
1.00311
1.00627
1.0182
1.03533
1.11357
1.21201
1.757
2.77354
6.35295
11.6586
11.1468
10.7255
10.7847
10.9758
11.1904
11.3101
11.3999
11.4734
11.545
1.00001
1.00002
1.00008
1.00017
1.00049
1.00101
1.00285
1.00574
1.01657
1.03258
1.10173
1.19438
1.66904
2.56781
5.6862
11.5767
11.0871
10.624
10.671
10.8362
11.0345
11.1372
11.2085
11.2642
11.3293
1
1.00002
1.00007
1.00016
1.00045
1.00092
1.00258
1.00522
1.01503
1.02961
1.09185
1.1763
1.60007
2.40366
5.23588
11.2163
10.92
10.5102
10.5383
10.662
10.8347
10.9114
10.9508
10.9699
11.0088
1
1.00002
1.00006
1.00014
1.0004
1.00082
1.00231
1.00466
1.01344
1.02635
1.08281
1.15435
1.54015
2.24214
4.80282
10.5461
10.6134
10.4327
10.3969
10.4594
10.5877
10.6245
10.6119
10.5537
10.4943
1
1.00002
1.00005
1.00012
1.00033
1.00068
1.00194
1.00377
1.01176
1.02054
1.07526
1.12661
1.48682
2.07421
4.36222
9.70049
10.4526
10.3336
10.2227
10.2445
10.2963
10.2763
10.1811
9.95396
9.59349
1.00001
1.00003
1.00011
1.00023
1.00065
1.00133
1.0038
1.00747
1.02306
1.04114
1.14995
1.26332
2.0198
3.37681
8.12603
11.5729
11.2132
10.9743
11.0522
11.2761
11.5133
11.6589
11.7683
11.855
11.9217
1.00001
1.00003
1.0001
1.00023
1.00064
1.00131
1.00375
1.00736
1.02274
1.04056
1.14782
1.25927
2.00422
3.33802
8.02336
11.5809
11.2096
10.9633
11.0424
11.2676
11.5045
11.6502
11.7611
11.8492
11.9175
1.00001
1.00003
1.0001
1.00022
1.00063
1.00128
1.00365
1.00718
1.02208
1.03949
1.14338
1.2515
1.96877
3.25497
7.79101
11.5971
11.1993
10.9314
11.0098
11.2335
11.4674
11.6106
11.7208
11.8082
11.8764
1.00001
1.00003
1.0001
1.00021
1.0006
1.00123
1.0035
1.00689
1.0211
1.03787
1.13668
1.2398
1.91536
3.12944
7.43087
11.6246
11.1856
10.8796
10.9546
11.1728
11.4022
11.5403
11.6468
11.7318
11.8007
1.00001
1.00003
1.00009
1.0002
1.00057
1.00117
1.00333
1.00665
1.01977
1.03684
1.12603
1.2272
1.84203
2.96561
6.94462
11.6543
11.1698
10.8102
10.879
11.0872
11.311
11.4421
11.543
11.6242
11.6943
1.00001
1.00003
1.00009
1.00019
1.00054
1.0011
1.00311
1.00627
1.0182
1.03533
1.11357
1.21201
1.757
2.77354
6.35295
11.6586
11.1468
10.7255
10.7847
10.9758
11.1904
11.3101
11.3999
11.4734
11.545
1.00001
1.00002
1.00008
1.00017
1.00049
1.00101
1.00285
1.00574
1.01657
1.03258
1.10173
1.19438
1.66904
2.56781
5.6862
11.5767
11.0871
10.624
10.671
10.8362
11.0345
11.1372
11.2085
11.2642
11.3293
1
1.00002
1.00007
1.00016
1.00045
1.00092
1.00258
1.00522
1.01503
1.02961
1.09185
1.1763
1.60007
2.40366
5.23588
11.2163
10.92
10.5102
10.5383
10.662
10.8347
10.9114
10.9508
10.9699
11.0088
1
1.00002
1.00006
1.00014
1.0004
1.00082
1.00231
1.00466
1.01344
1.02635
1.08281
1.15435
1.54015
2.24214
4.80282
10.5461
10.6134
10.4327
10.3969
10.4594
10.5877
10.6245
10.6119
10.5537
10.4943
1
1.00002
1.00005
1.00012
1.00033
1.00068
1.00194
1.00377
1.01176
1.02054
1.07526
1.12661
1.48682
2.07421
4.36222
9.70049
10.4526
10.3336
10.2227
10.2445
10.2963
10.2763
10.1811
9.95396
9.59349
1.00001
1.00003
1.00011
1.00023
1.00065
1.00133
1.0038
1.00747
1.02306
1.04114
1.14995
1.26332
2.0198
3.37681
8.12602
11.5729
11.2132
10.9743
11.0522
11.2761
11.5133
11.6589
11.7683
11.855
11.9217
1.00001
1.00003
1.0001
1.00023
1.00064
1.00131
1.00375
1.00736
1.02274
1.04056
1.14782
1.25927
2.00422
3.33802
8.02336
11.5809
11.2096
10.9633
11.0424
11.2676
11.5045
11.6502
11.7611
11.8492
11.9175
1.00001
1.00003
1.0001
1.00022
1.00063
1.00128
1.00365
1.00718
1.02208
1.03949
1.14338
1.2515
1.96877
3.25497
7.79101
11.5971
11.1993
10.9314
11.0098
11.2335
11.4674
11.6106
11.7208
11.8082
11.8764
1.00001
1.00003
1.0001
1.00021
1.0006
1.00123
1.0035
1.00689
1.0211
1.03787
1.13668
1.2398
1.91536
3.12944
7.43087
11.6246
11.1856
10.8796
10.9546
11.1728
11.4022
11.5403
11.6468
11.7318
11.8007
1.00001
1.00003
1.00009
1.0002
1.00057
1.00117
1.00333
1.00665
1.01977
1.03684
1.12603
1.2272
1.84203
2.96561
6.94461
11.6543
11.1698
10.8102
10.879
11.0872
11.311
11.4421
11.543
11.6242
11.6943
1.00001
1.00003
1.00009
1.00019
1.00054
1.0011
1.00311
1.00627
1.0182
1.03533
1.11357
1.21201
1.757
2.77354
6.35295
11.6586
11.1468
10.7255
10.7847
10.9758
11.1904
11.3101
11.3999
11.4734
11.545
1.00001
1.00002
1.00008
1.00017
1.00049
1.00101
1.00285
1.00574
1.01657
1.03258
1.10173
1.19438
1.66904
2.56781
5.6862
11.5767
11.0871
10.624
10.671
10.8362
11.0345
11.1372
11.2085
11.2642
11.3293
1
1.00002
1.00007
1.00016
1.00045
1.00092
1.00258
1.00522
1.01503
1.02961
1.09185
1.1763
1.60007
2.40366
5.23588
11.2163
10.92
10.5102
10.5383
10.662
10.8347
10.9114
10.9508
10.9699
11.0088
1
1.00002
1.00006
1.00014
1.0004
1.00082
1.00231
1.00466
1.01344
1.02635
1.08281
1.15435
1.54015
2.24214
4.80282
10.5461
10.6134
10.4327
10.3969
10.4594
10.5877
10.6245
10.6119
10.5537
10.4943
1
1.00002
1.00005
1.00012
1.00033
1.00068
1.00194
1.00377
1.01176
1.02054
1.07526
1.12661
1.48682
2.07421
4.36222
9.70049
10.4526
10.3336
10.2227
10.2445
10.2963
10.2763
10.1811
9.95396
9.59349
1.00001
1.00003
1.00011
1.00023
1.00065
1.00133
1.0038
1.00747
1.02306
1.04114
1.14995
1.26332
2.0198
3.37681
8.12603
11.5729
11.2132
10.9743
11.0522
11.2761
11.5133
11.6589
11.7683
11.855
11.9217
1.00001
1.00003
1.0001
1.00023
1.00064
1.00131
1.00375
1.00736
1.02274
1.04056
1.14782
1.25927
2.00422
3.33802
8.02336
11.5809
11.2096
10.9633
11.0424
11.2676
11.5045
11.6502
11.7611
11.8492
11.9175
1.00001
1.00003
1.0001
1.00022
1.00063
1.00128
1.00365
1.00718
1.02208
1.03949
1.14338
1.2515
1.96877
3.25497
7.79101
11.5971
11.1993
10.9314
11.0098
11.2335
11.4674
11.6106
11.7208
11.8082
11.8764
1.00001
1.00003
1.0001
1.00021
1.0006
1.00123
1.0035
1.00689
1.0211
1.03787
1.13668
1.2398
1.91536
3.12944
7.43087
11.6246
11.1856
10.8796
10.9546
11.1728
11.4022
11.5403
11.6468
11.7318
11.8007
1.00001
1.00003
1.00009
1.0002
1.00057
1.00117
1.00333
1.00665
1.01977
1.03684
1.12603
1.2272
1.84203
2.96561
6.94462
11.6543
11.1698
10.8102
10.879
11.0872
11.311
11.4421
11.543
11.6242
11.6943
1.00001
1.00003
1.00009
1.00019
1.00054
1.0011
1.00311
1.00627
1.0182
1.03533
1.11357
1.21201
1.757
2.77354
6.35295
11.6586
11.1468
10.7255
10.7847
10.9758
11.1904
11.3101
11.3999
11.4734
11.545
1.00001
1.00002
1.00008
1.00017
1.00049
1.00101
1.00285
1.00574
1.01657
1.03258
1.10173
1.19438
1.66904
2.56781
5.6862
11.5767
11.0871
10.624
10.671
10.8362
11.0345
11.1372
11.2085
11.2642
11.3293
1
1.00002
1.00007
1.00016
1.00045
1.00092
1.00258
1.00522
1.01503
1.02961
1.09185
1.1763
1.60007
2.40366
5.23588
11.2163
10.92
10.5102
10.5383
10.662
10.8347
10.9114
10.9508
10.9699
11.0088
1
1.00002
1.00006
1.00014
1.0004
1.00082
1.00231
1.00466
1.01344
1.02635
1.08281
1.15435
1.54015
2.24214
4.80282
10.5461
10.6134
10.4327
10.3969
10.4594
10.5877
10.6245
10.6119
10.5537
10.4943
1
1.00002
1.00005
1.00012
1.00033
1.00068
1.00194
1.00377
1.01176
1.02054
1.07526
1.12661
1.48682
2.07421
4.36222
9.70049
10.4526
10.3336
10.2227
10.2445
10.2963
10.2763
10.1811
9.95396
9.59349
1.00001
1.00003
1.00011
1.00023
1.00065
1.00133
1.0038
1.00747
1.02306
1.04114
1.14995
1.26332
2.0198
3.37681
8.12603
11.5729
11.2132
10.9743
11.0522
11.2761
11.5133
11.6589
11.7683
11.855
11.9217
1.00001
1.00003
1.0001
1.00023
1.00064
1.00131
1.00375
1.00736
1.02274
1.04056
1.14782
1.25927
2.00422
3.33802
8.02336
11.5809
11.2096
10.9633
11.0424
11.2676
11.5045
11.6502
11.7611
11.8492
11.9175
1.00001
1.00003
1.0001
1.00022
1.00063
1.00128
1.00365
1.00718
1.02208
1.03949
1.14338
1.2515
1.96877
3.25497
7.79101
11.5971
11.1993
10.9314
11.0098
11.2335
11.4674
11.6106
11.7208
11.8082
11.8764
1.00001
1.00003
1.0001
1.00021
1.0006
1.00123
1.0035
1.00689
1.0211
1.03787
1.13668
1.2398
1.91536
3.12944
7.43087
11.6246
11.1856
10.8796
10.9546
11.1728
11.4022
11.5403
11.6468
11.7318
11.8007
1.00001
1.00003
1.00009
1.0002
1.00057
1.00117
1.00333
1.00665
1.01977
1.03684
1.12603
1.2272
1.84203
2.96561
6.94462
11.6543
11.1698
10.8102
10.879
11.0872
11.311
11.4421
11.543
11.6242
11.6943
1.00001
1.00003
1.00009
1.00019
1.00054
1.0011
1.00311
1.00627
1.0182
1.03533
1.11357
1.21201
1.757
2.77354
6.35295
11.6586
11.1468
10.7255
10.7847
10.9758
11.1904
11.3101
11.3999
11.4734
11.545
1.00001
1.00002
1.00008
1.00017
1.00049
1.00101
1.00285
1.00574
1.01657
1.03258
1.10173
1.19438
1.66904
2.56781
5.6862
11.5767
11.0871
10.624
10.671
10.8362
11.0345
11.1372
11.2085
11.2642
11.3293
1
1.00002
1.00007
1.00016
1.00045
1.00092
1.00258
1.00522
1.01503
1.02961
1.09185
1.1763
1.60007
2.40366
5.23588
11.2163
10.92
10.5102
10.5383
10.662
10.8347
10.9114
10.9508
10.9699
11.0088
1
1.00002
1.00006
1.00014
1.0004
1.00082
1.00231
1.00466
1.01344
1.02635
1.08281
1.15435
1.54015
2.24214
4.80282
10.5461
10.6134
10.4327
10.3969
10.4594
10.5877
10.6245
10.6119
10.5537
10.4943
1
1.00002
1.00005
1.00012
1.00033
1.00068
1.00194
1.00377
1.01176
1.02054
1.07526
1.12661
1.48682
2.07421
4.36222
9.70049
10.4526
10.3336
10.2227
10.2445
10.2963
10.2763
10.1811
9.95396
9.59349
1.00001
1.00003
1.00011
1.00023
1.00065
1.00133
1.0038
1.00747
1.02306
1.04114
1.14994
1.26332
2.0198
3.3768
8.126
11.5729
11.2132
10.9743
11.0521
11.2761
11.5133
11.6589
11.7683
11.855
11.9217
1.00001
1.00003
1.0001
1.00023
1.00064
1.00131
1.00375
1.00736
1.02274
1.04056
1.14782
1.25927
2.00421
3.33801
8.02334
11.5809
11.2096
10.9633
11.0424
11.2676
11.5045
11.6502
11.7611
11.8492
11.9175
1.00001
1.00003
1.0001
1.00022
1.00063
1.00128
1.00365
1.00718
1.02208
1.03949
1.14338
1.2515
1.96876
3.25496
7.79098
11.5971
11.1993
10.9314
11.0098
11.2335
11.4674
11.6106
11.7208
11.8082
11.8764
1.00001
1.00003
1.0001
1.00021
1.0006
1.00123
1.0035
1.00689
1.0211
1.03787
1.13668
1.2398
1.91535
3.12943
7.43084
11.6246
11.1856
10.8796
10.9546
11.1728
11.4022
11.5403
11.6468
11.7318
11.8007
1.00001
1.00003
1.00009
1.0002
1.00057
1.00117
1.00333
1.00665
1.01977
1.03684
1.12603
1.2272
1.84202
2.9656
6.94459
11.6543
11.1699
10.8102
10.879
11.0872
11.311
11.4421
11.543
11.6242
11.6943
1.00001
1.00003
1.00009
1.00019
1.00054
1.0011
1.00311
1.00627
1.0182
1.03533
1.11357
1.21201
1.757
2.77353
6.35292
11.6586
11.1468
10.7255
10.7847
10.9758
11.1904
11.3101
11.3999
11.4734
11.545
1.00001
1.00002
1.00008
1.00017
1.00049
1.00101
1.00285
1.00574
1.01657
1.03258
1.10173
1.19438
1.66904
2.5678
5.68617
11.5767
11.0871
10.624
10.671
10.8362
11.0345
11.1372
11.2085
11.2642
11.3293
1
1.00002
1.00007
1.00016
1.00045
1.00092
1.00258
1.00522
1.01503
1.02961
1.09184
1.1763
1.60006
2.40365
5.23586
11.2163
10.92
10.5102
10.5383
10.662
10.8347
10.9114
10.9508
10.9699
11.0088
1
1.00002
1.00006
1.00014
1.0004
1.00082
1.00231
1.00466
1.01344
1.02635
1.08281
1.15435
1.54015
2.24213
4.80281
10.546
10.6134
10.4327
10.3969
10.4594
10.5877
10.6245
10.6119
10.5537
10.4943
1
1.00002
1.00005
1.00012
1.00033
1.00068
1.00194
1.00377
1.01176
1.02054
1.07526
1.12661
1.48682
2.0742
4.36221
9.70046
10.4526
10.3336
10.2226
10.2445
10.2963
10.2763
10.1811
9.95396
9.59349
1.00001
1.00003
1.0001
1.00022
1.00065
1.00132
1.00379
1.00746
1.02305
1.04112
1.14992
1.26326
2.01973
3.37653
8.12548
11.573
11.2132
10.9742
11.0521
11.276
11.5132
11.6589
11.7682
11.8549
11.9216
1.00001
1.00003
1.0001
1.00022
1.00064
1.0013
1.00374
1.00735
1.02273
1.04054
1.14779
1.25921
2.00414
3.33775
8.02282
11.581
11.2096
10.9632
11.0423
11.2675
11.5044
11.6501
11.761
11.8492
11.9174
1.00001
1.00003
1.0001
1.00021
1.00062
1.00127
1.00364
1.00717
1.02207
1.03947
1.14336
1.25144
1.96869
3.2547
7.79046
11.5972
11.1993
10.9313
11.0097
11.2334
11.4674
11.6105
11.7208
11.8081
11.8763
1.00001
1.00003
1.00009
1.00021
1.00059
1.00122
1.00349
1.00688
1.02109
1.03785
1.13666
1.23975
1.91529
3.12918
7.43032
11.6247
11.1856
10.8795
10.9545
11.1727
11.4021
11.5402
11.6467
11.7317
11.8007
1.00001
1.00003
1.00009
1.0002
1.00057
1.00117
1.00332
1.00664
1.01976
1.03681
1.12603
1.22713
1.842
2.96538
6.94412
11.6544
11.1698
10.8101
10.8789
11.0872
11.3109
11.4421
11.5429
11.6242
11.6942
1.00001
1.00002
1.00008
1.00018
1.00053
1.00109
1.0031
1.00626
1.01819
1.03532
1.11356
1.21196
1.75696
2.77333
6.35249
11.6587
11.1468
10.7255
10.7846
10.9758
11.1903
11.31
11.3998
11.4734
11.5449
1
1.00002
1.00008
1.00017
1.00049
1.001
1.00284
1.00574
1.01656
1.03256
1.10171
1.19434
1.66899
2.56763
5.68575
11.5767
11.0871
10.6239
10.671
10.8362
11.0344
11.1371
11.2084
11.2641
11.3292
1
1.00002
1.00007
1.00015
1.00044
1.00091
1.00258
1.00521
1.01502
1.0296
1.09183
1.17626
1.60003
2.40353
5.23564
11.2161
10.92
10.5101
10.5382
10.6619
10.8346
10.9114
10.9508
10.9699
11.0087
1
1.00002
1.00006
1.00013
1.00039
1.00081
1.0023
1.00465
1.01343
1.02634
1.0828
1.15431
1.54013
2.24201
4.80264
10.5458
10.6134
10.4326
10.3968
10.4593
10.5877
10.6244
10.6119
10.5536
10.4943
1
1.00001
1.00005
1.00011
1.00033
1.00067
1.00193
1.00376
1.01175
1.02052
1.07524
1.12658
1.48681
2.07408
4.36208
9.70013
10.4525
10.3336
10.2226
10.2445
10.2962
10.2762
10.181
9.95391
9.59344
1
1.00001
1.00004
1.00012
1.00025
1.00072
1.00147
1.00425
1.0083
1.02596
1.04609
1.16767
1.30171
2.13421
3.70076
8.70461
10.3536
10.2455
10.0443
10.0102
9.98307
9.88512
9.62147
9.01122
7.47444
1
1.00001
1.00003
1.0001
1.00022
1.00063
1.00128
1.00366
1.00719
1.02212
1.03954
1.1431
1.25161
1.96125
3.22464
7.52613
10.2679
10.1492
9.88053
9.7643
9.67291
9.4756
9.05829
8.22554
6.62889
1
1.00001
1.00003
1.00009
1.00019
1.00054
1.00111
1.00315
1.00635
1.0185
1.03549
1.11612
1.21404
1.76966
2.78505
6.26071
10.1839
10.055
9.73327
9.52079
9.36502
9.08656
8.57625
7.72196
6.42079
1
1.00001
1.00002
1.00007
1.00016
1.00045
1.00092
1.0026
1.00526
1.01509
1.02984
1.09116
1.17842
1.58671
2.36516
4.94065
9.93632
9.88472
9.60995
9.29516
9.07136
8.74941
8.22214
7.43241
6.37727
1
1.00001
1.00002
1.00006
1.00012
1.00036
1.00074
1.00209
1.00423
1.0122
1.02382
1.0748
1.13881
1.47992
2.08881
4.25857
9.15157
9.59156
9.42655
9.08673
8.81033
8.46542
7.9636
7.25699
6.36914
1
1
1.00002
1.00004
1.00011
1.00024
1.00068
1.00139
1.00398
1.0077
1.02425
1.04243
1.15522
1.27387
2.04417
3.4062
7.74348
9.30479
9.20427
8.93278
8.59448
8.23026
7.75879
7.12855
6.36525
1
1
1.00001
1.00003
1.00009
1.00019
1.00056
1.00114
1.00324
1.00649
1.01911
1.03585
1.12048
1.21836
1.78984
2.81352
6.19876
9.12162
9.06018
8.8233
8.4261
8.04306
7.59297
7.02515
6.35577
0.999998
1
1.00001
1.00002
1.00007
1.00015
1.00043
1.00089
1.0025
1.00505
1.01451
1.02865
1.08741
1.1712
1.55689
2.2841
4.6102
8.77717
8.91831
8.73527
8.32706
7.89635
7.45677
6.94154
6.34807
0.999996
0.999998
1
1.00002
1.00004
1.00013
1.00027
1.00077
1.00158
1.00448
1.00882
1.02678
1.0484
1.16997
1.31026
2.10647
3.59684
7.87225
8.69907
8.56872
8.23422
7.77768
7.3436
6.8707
6.33874
0.999995
0.999996
0.999999
1.00001
1.00003
1.0001
1.0002
1.00058
1.00118
1.00335
1.00659
1.02012
1.03601
1.12815
1.22515
1.83342
2.88241
6.27341
8.41945
8.36888
8.14864
7.69678
7.26048
6.81761
6.33346
0.999994
0.999994
0.999998
1
1.00002
1.00006
1.00017
1.00035
1.00099
1.00197
1.00587
1.01071
1.03639
1.06111
1.22569
1.4411
2.4126
4.48825
8.00042
8.22427
8.0692
7.68594
7.21347
6.77785
6.32953
0.999993
0.999993
0.999996
1
1.00001
1.00004
1.00012
1.00026
1.00073
1.0015
1.00423
1.00837
1.02516
1.04576
1.15877
1.2875
2.01662
3.32806
7.04181
8.02876
7.9335
7.6575
7.20161
6.75847
6.33044
0.999992
0.999993
0.999994
0.999998
1
1.00003
1.00007
1.00021
1.00043
1.00122
1.00238
1.00726
1.01281
1.04552
1.07486
1.28217
1.55611
2.77798
5.38243
7.72046
7.73001
7.58686
7.2216
6.76134
6.33491
0.999992
0.999992
0.999993
0.999996
1
1.00002
1.00005
1.00015
1.00031
1.00088
1.0018
1.00505
1.01014
1.02942
1.05646
1.17837
1.359
2.11779
3.59937
7.11278
7.61938
7.51403
7.22863
6.77904
6.34878
0.999991
0.999992
0.999992
0.999994
0.999999
1.00001
1.00004
1.00008
1.00025
1.00051
1.00144
1.00291
1.00827
1.01604
1.04992
1.08973
1.30948
1.639
2.92338
5.68112
7.37755
7.36281
7.20756
6.83722
6.38123
0.999991
0.999991
0.999992
0.999993
0.999996
1
1.00002
1.00005
1.00017
1.00035
1.00097
1.00198
1.00555
1.01095
1.03266
1.05948
1.20079
1.38579
2.21891
3.86518
6.87072
7.25468
7.15509
6.88537
6.43791
0.999991
0.999991
0.999991
0.999992
0.999994
0.999999
1.00001
1.00004
1.00009
1.00027
1.00056
1.00156
1.00316
1.0089
1.01759
1.05242
1.10009
1.31654
1.70199
2.94361
5.69468
7.03014
7.01777
6.87329
6.53619
0.999991
0.999991
0.999991
0.999992
0.999993
0.999996
1
1.00002
1.00006
1.00018
1.00037
1.00102
1.00208
1.0058
1.01145
1.03394
1.06207
1.20701
1.4014
2.24406
3.91008
6.53636
6.90224
6.81925
6.5847
0.999991
0.999991
0.999991
0.999991
0.999992
0.999994
1
1.00001
1.00004
1.00009
1.00028
1.00057
1.00159
1.00322
1.00905
1.01796
1.05234
1.10465
1.31122
1.69725
2.87821
5.42081
6.66933
6.67452
6.56617
0.999991
0.99999
0.999991
0.999991
0.999991
0.999993
0.999995
1
1.00002
1.00007
1.00015
1.00042
1.00087
1.0024
1.00485
1.0136
1.02679
1.07948
1.15461
1.47555
2.05498
3.69351
6.16143
6.56221
6.50684
0.999991
0.99999
0.99999
0.999991
0.999991
0.999992
0.999994
0.999999
1.00001
1.00004
1.00009
1.00027
1.00055
1.00152
1.00308
1.00855
1.01704
1.04893
1.09728
1.28788
1.63517
2.71232
5.01847
6.32048
6.38276
0.999991
0.99999
0.99999
0.99999
0.999991
0.999991
0.999993
0.999995
1
1.00002
1.00006
1.00014
1.00039
1.0008
1.00219
1.00442
1.01229
1.02431
1.07044
1.14019
1.41202
1.91375
3.27352
5.77954
6.2716
0.999991
0.99999
0.99999
0.99999
0.99999
0.999991
0.999992
0.999993
0.999998
1.00001
1.00004
1.00008
1.00024
1.00049
1.00136
1.00277
1.00759
1.01529
1.04263
1.08639
1.24842
1.54908
2.48315
4.53892
5.98458
0.999991
0.99999
0.99999
0.99999
0.99999
0.999991
0.999991
0.999992
0.999995
1
1.00002
1.00005
1.00014
1.00029
1.00081
1.00166
1.00451
1.00908
1.02517
1.05026
1.14416
1.29981
1.83986
2.90883
5.32778
0.999991
0.99999
0.99999
0.99999
0.99999
0.99999
0.999991
0.999991
0.999993
0.999996
1.00001
1.00002
1.00008
1.00017
1.00049
1.001
1.00272
1.0055
1.01524
1.02992
1.08911
1.16806
1.53132
2.14243
3.89472
0.999991
0.99999
0.99999
0.99999
0.99999
0.99999
0.99999
0.999991
0.999992
0.999994
0.999999
1.00001
1.00004
1.00011
1.00024
1.00067
1.00136
1.00372
1.0074
1.0211
1.03948
1.12483
1.23084
1.72079
2.55284
0.999991
0.99999
0.99999
0.99999
0.99999
0.99999
0.99999
0.999991
0.999991
0.999992
0.999996
1
1.00002
1.00005
1.00016
1.00033
1.00091
1.00184
1.00504
1.00993
1.02883
1.05263
1.16894
1.31744
1.93707
0.999991
0.99999
0.99999
0.99999
0.99999
0.99999
0.99999
0.99999
0.999991
0.999992
0.999993
0.999998
1.00001
1.00003
1.00008
1.00022
1.00046
1.00126
1.00254
1.00698
1.01382
1.03957
1.07646
1.22624
1.48375
0.999991
0.99999
0.99999
0.99999
0.99999
0.99999
0.99999
0.99999
0.999991
0.999991
0.999992
0.999995
0.999999
1.00001
1.00004
1.00012
1.00026
1.00071
1.00146
1.00394
1.00792
1.02184
1.0429
1.12459
1.24687
0.999991
0.99999
0.99999
0.99999
0.99999
0.99999
0.99999
0.99999
0.99999
0.999991
0.999991
0.999992
0.999996
1
1.00002
1.00006
1.00016
1.00034
1.00093
1.0019
1.00513
1.01022
1.02868
1.05441
1.16383
0.999991
0.99999
0.99999
0.99999
0.99999
0.99999
0.99999
0.99999
0.99999
0.99999
0.999991
0.999992
0.999993
0.999998
1.00001
1.00003
1.00008
1.00022
1.00046
1.00124
1.00251
1.00683
1.01366
1.03777
1.07689
0.999991
0.99999
0.99999
0.99999
0.99999
0.99999
0.99999
0.99999
0.99999
0.99999
0.999991
0.999991
0.999992
0.999994
1
1.00001
1.00005
1.0001
1.00029
1.0006
1.00163
1.0033
1.00895
1.01797
1.04926
0.999991
0.99999
0.99999
0.99999
0.99999
0.99999
0.99999
0.99999
0.99999
0.99999
0.99999
0.999991
0.999991
0.999992
0.999996
1
1.00002
1.00006
1.00017
1.00035
1.00094
1.00191
1.00513
1.01034
1.02799
0.999991
0.99999
0.99999
0.99999
0.99999
0.99999
0.99999
0.99999
0.99999
0.99999
0.99999
0.99999
0.999991
0.999992
0.999993
0.999999
1.00001
1.00004
1.00009
1.00025
1.00052
1.00142
1.00287
1.00787
1.01566
0.999991
0.99999
0.99999
0.99999
0.99999
0.99999
0.99999
0.99999
0.99999
0.99999
0.99999
0.99999
0.999991
0.999991
0.999993
0.999996
1.00001
1.00002
1.00007
1.00016
1.00046
1.00094
1.00263
1.00524
1.01527
0.999991
0.99999
0.99999
0.99999
0.99999
0.99999
0.99999
0.99999
0.99999
0.99999
0.99999
0.99999
0.999991
0.999991
0.999992
0.999996
1
1.00002
1.00005
1.00016
1.00034
1.00096
1.00195
1.00562
1.01089
0.999991
0.99999
0.99999
0.99999
0.99999
0.99999
0.99999
0.99999
0.99999
0.99999
0.99999
0.99999
0.999991
0.999991
0.999992
0.999994
1
1.00001
1.00006
1.00013
1.00037
1.00077
1.00221
1.00433
1.01343
0.999991
0.99999
0.99999
0.99999
0.99999
0.99999
0.99999
0.99999
0.99999
0.99999
0.99999
0.99999
0.999991
0.999991
0.999992
0.999994
1
1.00001
1.00005
1.00012
1.00036
1.00074
1.00214
1.00417
1.0131
0.999991
0.99999
0.99999
0.99999
0.99999
0.99999
0.99999
0.99999
0.99999
0.99999
0.99999
0.99999
0.99999
0.999991
0.999992
0.999995
1
1.00002
1.00005
1.00015
1.00031
1.00089
1.00182
1.00527
1.01034
0.999991
0.99999
0.99999
0.99999
0.99999
0.99999
0.99999
0.99999
0.99999
0.99999
0.99999
0.99999
0.999991
0.999991
0.999992
0.999995
1
1.00002
1.00005
1.00015
1.00032
1.00091
1.00185
1.00532
1.01057
1
1.00002
1.00004
1.00012
1.00026
1.00073
1.00148
1.00426
1.00831
1.02597
1.04611
1.16769
1.30176
2.13426
3.70095
8.70495
10.3536
10.2455
10.0444
10.0102
9.98313
9.88517
9.62152
9.01127
7.47447
1
1.00002
1.00004
1.00011
1.00022
1.00063
1.00129
1.00366
1.0072
1.02213
1.03956
1.14312
1.25165
1.96129
3.22483
7.52649
10.2679
10.1492
9.88059
9.76435
9.67295
9.47564
9.05834
8.22558
6.62892
1
1.00001
1.00003
1.00009
1.0002
1.00055
1.00112
1.00316
1.00636
1.01851
1.03551
1.11612
1.2141
1.76967
2.78521
6.26106
10.184
10.055
9.73332
9.52084
9.36506
9.0866
8.57629
7.722
6.42084
1
1.00001
1.00003
1.00008
1.00016
1.00046
1.00093
1.00261
1.00527
1.0151
1.02985
1.09117
1.17846
1.58674
2.36527
4.94083
9.93649
9.88483
9.60999
9.29519
9.0714
8.74945
8.22218
7.43244
6.37731
1
1.00001
1.00002
1.00006
1.00013
1.00037
1.00075
1.0021
1.00424
1.01221
1.02384
1.0748
1.13886
1.47992
2.08891
4.2587
9.15188
9.59164
9.4266
9.08675
8.81036
8.46546
7.96364
7.25702
6.36917
1
1.00001
1.00002
1.00004
1.00012
1.00025
1.00069
1.00139
1.00399
1.00772
1.02426
1.04245
1.15524
1.27392
2.04421
3.40637
7.74379
9.30484
9.20431
8.9328
8.59451
8.23029
7.75883
7.12858
6.36528
1
1
1.00002
1.00003
1.0001
1.0002
1.00057
1.00115
1.00325
1.0065
1.01912
1.03588
1.12048
1.21843
1.78984
2.81368
6.19905
9.12165
9.0602
8.82331
8.42612
8.04309
7.593
7.02518
6.3558
1
1
1.00001
1.00003
1.00008
1.00016
1.00044
1.00089
1.00251
1.00506
1.01452
1.02866
1.08743
1.17123
1.55693
2.28423
4.61052
8.77723
8.91832
8.73528
8.32707
7.89637
7.4568
6.94157
6.34811
1
1
1.00001
1.00002
1.00005
1.00014
1.00028
1.00078
1.00159
1.00449
1.00883
1.02679
1.04842
1.16999
1.3103
2.10653
3.59699
7.87242
8.6991
8.56874
8.23423
7.7777
7.34362
6.87073
6.33877
1
1