/*--------------------------------*- C++ -*----------------------------------*\
| =========                 |                                                 |
| \\      /  F ield         | OpenFOAM: The Open Source CFD Toolbox           |
|  \\    /   O peration     | Version:  4.1                                   |
|   \\  /    A nd           | Web:      www.OpenFOAM.org                      |
|    \\/     M anipulation  |                                                 |
\*---------------------------------------------------------------------------*/
FoamFile
{
    version     2.0;
    format      ascii;
    class       volVectorField;
    location    "9.5";
    object      U;
}
// * * * * * * * * * * * * * * * * * * * * * * * * * * * * * * * * * * * * * //

dimensions      [0 1 -1 0 0 0 0];

internalField   nonuniform List<vector> 
500
(
(3.00001 -6.15271e-08 4.38078e-17)
(3 -5.26356e-08 8.52792e-20)
(3 -1.9766e-08 9.95168e-18)
(3 -1.18916e-08 1.3299e-24)
(3 -4.48949e-09 1.23406e-23)
(3.00001 -2.0823e-07 4.35811e-17)
(3 -1.80096e-07 1.72344e-19)
(3 -6.92157e-08 1.00384e-17)
(3 -3.87747e-08 1.51734e-17)
(3 -1.3442e-08 1.23394e-23)
(3.00002 -4.40188e-07 8.67024e-17)
(3.00001 -3.84739e-07 2.633e-19)
(3 -1.50153e-07 1.03732e-17)
(3 -7.9402e-08 2.9786e-17)
(3 -2.61073e-08 1.31554e-23)
(3.00002 -7.59373e-07 8.63164e-17)
(3.00001 -6.70463e-07 1.5442e-17)
(3.00001 -2.64557e-07 3.02677e-17)
(3.00001 -1.32846e-07 2.88397e-17)
(3.00001 -4.21144e-08 2.28926e-23)
(3.00003 -1.16821e-06 4.31267e-17)
(3.00001 -1.04074e-06 3.02205e-17)
(3.00001 -4.14313e-07 1.07637e-17)
(3.00001 -1.98892e-07 2.7905e-17)
(3.00001 -6.13399e-08 2.45061e-23)
(3.00003 -1.6694e-06 4.30542e-17)
(3.00001 -1.49891e-06 3.02222e-17)
(3.00001 -6.01163e-07 3.0396e-17)
(3.00001 -2.77548e-07 2.65619e-17)
(3.00001 -8.37874e-08 -1.27224e-17)
(3.00004 -2.26576e-06 4.29805e-17)
(3.00002 -2.04826e-06 3.022e-17)
(3.00001 -8.26773e-07 3.00305e-17)
(3.00001 -3.68938e-07 1.05181e-17)
(3.00001 -1.09543e-07 -1.27224e-17)
(3.00004 -2.96026e-06 4.29051e-17)
(3.00002 -2.69197e-06 3.02142e-17)
(3.00001 -1.09272e-06 2.96494e-17)
(3.00001 -4.73289e-07 9.71883e-18)
(3.00001 -1.38731e-07 -1.27223e-17)
(3.00004 -3.75593e-06 9.35408e-19)
(3.00002 -3.43317e-06 3.03931e-17)
(3.00001 -1.40051e-06 4.79697e-17)
(3.00001 -5.90863e-07 -5.59671e-18)
(3.00001 -1.71511e-07 -1.27223e-17)
(3.00005 -4.65588e-06 4.27538e-17)
(3.00002 -4.27485e-06 3.05629e-17)
(3.00002 -1.75159e-06 4.69105e-17)
(3.00001 -7.21963e-07 -6.29604e-18)
(3.00001 -2.08057e-07 -2.51519e-17)
(3.00005 -5.66327e-06 1.2969e-18)
(3.00003 -5.21999e-06 3.05261e-17)
(3.00002 -2.14729e-06 2.70771e-17)
(3.00002 -8.66881e-07 -7.43419e-18)
(3.00002 -2.48557e-07 -3.75057e-17)
(3.00006 -6.78121e-06 1.48232e-18)
(3.00003 -6.27141e-06 3.02848e-17)
(3.00002 -2.5889e-06 8.01569e-18)
(3.00002 -1.02591e-06 5.68057e-18)
(3.00002 -2.93205e-07 -3.75055e-17)
(3.00007 -8.01289e-06 8.33705e-17)
(3.00003 -7.43189e-06 3.00371e-17)
(3.00002 -3.07758e-06 7.64073e-18)
(3.00002 -1.19933e-06 -1.00884e-17)
(3.00002 -3.42201e-07 -3.75054e-17)
(3.00007 -9.36136e-06 8.31988e-17)
(3.00003 -8.70403e-06 5.76078e-17)
(3.00002 -3.61444e-06 -1.14159e-17)
(3.00002 -1.38736e-06 -2.4709e-17)
(3.00002 -3.95746e-07 -2.53853e-17)
(3.00008 -1.08298e-05 1.63448e-16)
(3.00004 -1.00903e-05 2.89782e-17)
(3.00003 -4.20041e-06 -1.17027e-17)
(3.00002 -1.59022e-06 -2.47355e-17)
(3.00002 -4.54038e-07 -2.53852e-17)
(3.00008 -1.2421e-05 1.62517e-16)
(3.00004 -1.15931e-05 2.84996e-17)
(3.00003 -4.83638e-06 -1.2293e-17)
(3.00002 -1.80806e-06 -3.85825e-17)
(3.00002 -5.17277e-07 -2.53851e-17)
(3.00009 -1.41381e-05 1.61569e-16)
(3.00004 -1.32146e-05 2.77978e-17)
(3.00003 -5.52305e-06 -3.08502e-17)
(3.00003 -2.041e-06 -3.80422e-17)
(3.00003 -5.85654e-07 -2.5385e-17)
(3.00009 -1.59837e-05 1.60606e-16)
(3.00005 -1.49567e-05 2.70889e-17)
(3.00003 -6.26104e-06 -3.10022e-17)
(3.00003 -2.28909e-06 -3.7514e-17)
(3.00003 -6.59365e-07 -2.53849e-17)
(3.0001 -1.79606e-05 1.59625e-16)
(3.00005 -1.68212e-05 2.65907e-17)
(3.00003 -7.05076e-06 -1.34305e-17)
(3.00003 -2.55238e-06 -3.69983e-17)
(3.00003 -7.38587e-07 -2.53848e-17)
(3.0001 -2.00713e-05 1.58825e-16)
(3.00005 -1.88096e-05 5.27047e-17)
(3.00004 -7.89253e-06 -3.18569e-17)
(3.00003 -2.8308e-06 -4.93809e-17)
(3.00003 -8.23505e-07 -1.37614e-17)
(3.00011 -2.23181e-05 2.34996e-16)
(3.00006 -2.09232e-05 2.51969e-17)
(3.00004 -8.78648e-06 -1.51285e-17)
(3.00004 -3.12427e-06 -6.10872e-17)
(3.00003 -9.14285e-07 -1.37613e-17)
(3.00011 -2.47031e-05 3.10163e-16)
(3.00006 -2.31629e-05 5.13106e-17)
(3.00004 -9.73254e-06 7.61405e-19)
(3.00004 -3.43263e-06 -7.21253e-17)
(3.00004 -1.01109e-06 -1.37613e-17)
(3.00012 -2.72283e-05 3.08111e-16)
(3.00006 -2.55294e-05 5.06157e-17)
(3.00004 -1.07305e-05 -1.0019e-18)
(3.00004 -3.75568e-06 -6.94517e-17)
(3.00004 -1.11408e-06 -1.37612e-17)
(3.00012 -2.98953e-05 3.81406e-16)
(3.00007 -2.8023e-05 4.96632e-17)
(3.00005 -1.17799e-05 -1.9723e-17)
(3.00004 -4.09315e-06 -6.79048e-17)
(3.00004 -1.22338e-06 -3.63037e-17)
(3.00013 -3.27056e-05 3.03911e-16)
(3.00007 -3.06438e-05 4.86985e-17)
(3.00005 -1.28802e-05 -2.02436e-17)
(3.00004 -4.44471e-06 -3.96945e-17)
(3.00004 -1.33915e-06 -1.39421e-17)
(3.00013 -3.56602e-05 3.75691e-16)
(3.00007 -3.33912e-05 2.21568e-17)
(3.00005 -1.40305e-05 -2.0109e-17)
(3.00005 -4.80998e-06 -1.51823e-17)
(3.00005 -1.46148e-06 -5.82986e-17)
(3.00014 -3.87598e-05 3.72454e-16)
(3.00008 -3.62645e-05 -3.80203e-18)
(3.00006 -1.52299e-05 -2.00624e-17)
(3.00005 -5.1885e-06 -1.83909e-17)
(3.00005 -1.5905e-06 -8.02914e-17)
(3.00014 -4.2005e-05 3.69181e-16)
(3.00008 -3.92624e-05 -4.03983e-18)
(3.00006 -1.64769e-05 -2.01018e-17)
(3.00005 -5.57978e-06 -2.14967e-17)
(3.00005 -1.72629e-06 -8.02896e-17)
(3.00015 -4.53958e-05 3.65873e-16)
(3.00008 -4.23833e-05 -4.29127e-18)
(3.00006 -1.77702e-05 -2.09497e-17)
(3.00006 -5.98321e-06 -5.03021e-17)
(3.00005 -1.86893e-06 -1.01901e-16)
(3.00015 -4.89318e-05 3.62533e-16)
(3.00009 -4.56249e-05 -4.06854e-18)
(3.00006 -1.9108e-05 1.03996e-17)
(3.00006 -6.39822e-06 -5.18661e-17)
(3.00006 -2.01849e-06 -8.04595e-17)
(3.00016 -5.26123e-05 2.8824e-16)
(3.00009 -4.89848e-05 -3.87384e-18)
(3.00007 -2.04884e-05 8.54252e-18)
(3.00006 -6.82406e-06 -5.33701e-17)
(3.00006 -2.17501e-06 -8.04314e-17)
(3.00016 -5.6436e-05 2.85501e-16)
(3.00009 -5.24598e-05 -4.20445e-18)
(3.00007 -2.19092e-05 -2.49183e-17)
(3.00007 -7.26002e-06 -5.36813e-17)
(3.00006 -2.33851e-06 -5.93531e-17)
(3.00017 -6.04015e-05 3.52331e-16)
(3.0001 -5.60462e-05 -4.05991e-18)
(3.00008 -2.33679e-05 4.82579e-18)
(3.00007 -7.70529e-06 -7.65555e-17)
(3.00007 -2.50901e-06 -3.8469e-17)
(3.00017 -6.45064e-05 3.48409e-16)
(3.0001 -5.97398e-05 -5.09519e-17)
(3.00008 -2.48619e-05 3.33407e-17)
(3.00007 -8.159e-06 -7.55741e-17)
(3.00007 -2.6865e-06 -5.90818e-17)
(3.00018 -6.87484e-05 3.43993e-16)
(3.00011 -6.3536e-05 -9.66174e-17)
(3.00008 -2.63883e-05 3.06854e-17)
(3.00008 -8.62027e-06 -5.14202e-17)
(3.00007 -2.87094e-06 -5.9071e-17)
(3.00018 -7.31241e-05 2.71987e-16)
(3.00011 -6.74297e-05 -9.44777e-17)
(3.00009 -2.7944e-05 2.8089e-17)
(3.00008 -9.0881e-06 -5.07028e-17)
(3.00008 -3.0623e-06 -3.88405e-17)
(3.00019 -7.76301e-05 2.68178e-16)
(3.00012 -7.14149e-05 -9.23504e-17)
(3.00009 -2.95256e-05 2.48155e-17)
(3.00008 -9.56154e-06 -7.27317e-17)
(3.00008 -3.26048e-06 -3.88689e-17)
(3.00019 -8.22624e-05 2.64317e-16)
(3.00012 -7.54855e-05 -9.02583e-17)
(3.00009 -3.11295e-05 2.09171e-17)
(3.00009 -1.00395e-05 -9.31781e-17)
(3.00009 -3.46542e-06 -3.89046e-17)
(3.0002 -8.7016e-05 2.59931e-16)
(3.00012 -7.96346e-05 -1.33857e-16)
(3.0001 -3.27519e-05 -1.21837e-17)
(3.00009 -1.05209e-05 -8.98936e-17)
(3.00009 -3.67697e-06 -3.89406e-17)
(3.0002 -9.18862e-05 2.54569e-16)
(3.00013 -8.38549e-05 -2.20829e-16)
(3.0001 -3.4389e-05 -1.39852e-17)
(3.0001 -1.10047e-05 -6.48211e-17)
(3.00009 -3.89502e-06 -3.89745e-17)
(3.0002 -9.68669e-05 1.22468e-16)
(3.00013 -8.81387e-05 -1.7345e-16)
(3.00011 -3.60365e-05 -4.29065e-17)
(3.0001 -1.14897e-05 -1.98604e-17)
(3.0001 -4.1194e-06 -3.90078e-17)
(3.00021 -0.000101952 2.46544e-16)
(3.00014 -9.24774e-05 -1.70523e-16)
(3.00011 -3.769e-05 -1.45555e-17)
(3.0001 -1.19747e-05 -4.37291e-17)
(3.0001 -4.34993e-06 -5.80406e-17)
(3.00021 -0.000107136 2.41769e-16)
(3.00014 -9.68626e-05 -1.67097e-16)
(3.00012 -3.93452e-05 1.24051e-17)
(3.00011 -1.24586e-05 -4.46753e-17)
(3.00011 -4.58642e-06 -5.80744e-17)
(3.00022 -0.00011241 2.3708e-16)
(3.00015 -0.000101285 -1.21617e-16)
(3.00012 -4.09975e-05 -1.59005e-17)
(3.00011 -1.29403e-05 -3.80589e-18)
(3.00011 -4.82862e-06 -5.81033e-17)
(3.00022 -0.000117767 3.54717e-16)
(3.00015 -0.000105735 -1.20636e-16)
(3.00013 -4.26421e-05 -7.03315e-17)
(3.00012 -1.34185e-05 -7.46546e-18)
(3.00012 -5.07631e-06 -5.81225e-17)
(3.00023 -0.0001232 4.68982e-16)
(3.00016 -0.000110202 -1.61709e-16)
(3.00013 -4.42744e-05 -9.51166e-17)
(3.00012 -1.38921e-05 -1.09333e-17)
(3.00012 -5.32923e-06 -5.81297e-17)
(3.00023 -0.0001287 5.80344e-16)
(3.00016 -0.000114677 -1.60233e-16)
(3.00014 -4.58895e-05 -9.05551e-17)
(3.00013 -1.43599e-05 2.34637e-17)
(3.00013 -5.58708e-06 -9.39743e-17)
(3.00024 -0.000134258 6.88381e-16)
(3.00017 -0.00011915 -1.9919e-16)
(3.00014 -4.74826e-05 -8.55477e-17)
(3.00013 -1.48208e-05 3.74864e-17)
(3.00013 -5.84959e-06 -5.85544e-17)
(3.00024 -0.000139865 6.76759e-16)
(3.00017 -0.000123608 -2.36666e-16)
(3.00015 -4.90489e-05 -8.09297e-17)
(3.00014 -1.52738e-05 3.05971e-17)
(3.00014 -6.11641e-06 -5.85446e-17)
(3.00024 -0.000145511 6.65336e-16)
(3.00018 -0.000128042 -2.33152e-16)
(3.00015 -5.05838e-05 -7.65808e-17)
(3.00014 -1.57178e-05 2.66164e-17)
(3.00014 -6.38727e-06 -2.40059e-17)
(3.00025 -0.000151187 6.53989e-16)
(3.00018 -0.00013244 -2.29011e-16)
(3.00016 -5.20824e-05 -4.71786e-17)
(3.00015 -1.61517e-05 2.28721e-17)
(3.00015 -6.66178e-06 -2.40008e-17)
(3.00025 -0.000156884 5.29663e-16)
(3.00019 -0.000136792 -3.01787e-16)
(3.00016 -5.35402e-05 -4.4498e-17)
(3.00016 -1.65748e-05 1.68293e-17)
(3.00015 -6.93962e-06 -5.76406e-17)
(3.00026 -0.000162592 4.08277e-16)
(3.0002 -0.000141087 -2.95859e-16)
(3.00017 -5.49526e-05 -4.21265e-17)
(3.00016 -1.6986e-05 1.11579e-17)
(3.00016 -7.22042e-06 -5.76354e-17)
(3.00026 -0.0001683 3.98723e-16)
(3.0002 -0.000145314 -2.91058e-16)
(3.00018 -5.63156e-05 -8.85819e-17)
(3.00017 -1.73845e-05 5.84144e-18)
(3.00017 -7.50379e-06 -5.76272e-17)
(3.00027 -0.000174 6.03871e-16)
(3.00021 -0.000149463 -2.86181e-16)
(3.00018 -5.7625e-05 -8.3084e-17)
(3.00017 -1.77697e-05 3.67017e-17)
(3.00017 -7.78943e-06 -5.76153e-17)
(3.00027 -0.00017968 5.91193e-16)
(3.00021 -0.000153523 -2.81244e-16)
(3.00019 -5.8877e-05 -7.81917e-17)
(3.00018 -1.8141e-05 2.66475e-17)
(3.00018 -8.07689e-06 -8.94524e-17)
(3.00028 -0.000185331 5.77534e-16)
(3.00022 -0.000157484 -3.46783e-16)
(3.0002 -6.00683e-05 -2.58298e-17)
(3.00019 -1.84977e-05 5.70957e-17)
(3.00019 -8.36587e-06 -2.66296e-17)
(3.00028 -0.000190944 6.65775e-16)
(3.00023 -0.000161337 -4.09486e-16)
(3.0002 -6.11955e-05 -2.26395e-17)
(3.00019 -1.88395e-05 4.76864e-17)
(3.00019 -8.65599e-06 -5.75628e-17)
(3.00028 -0.000196508 6.49824e-16)
(3.00023 -0.000165073 -3.99835e-16)
(3.00021 -6.22558e-05 -2.13327e-17)
(3.0002 -1.9166e-05 5.26423e-18)
(3.0002 -8.94688e-06 -5.75472e-17)
(3.00029 -0.000202015 6.33014e-16)
(3.00024 -0.000168682 -4.57534e-16)
(3.00022 -6.32468e-05 2.41338e-17)
(3.00021 -1.9477e-05 -3.14016e-20)
(3.00021 -9.23821e-06 -5.75366e-17)
(3.00029 -0.000207457 6.16408e-16)
(3.00024 -0.000172157 -4.44954e-16)
(3.00022 -6.41663e-05 2.44238e-17)
(3.00021 -1.97723e-05 2.7632e-17)
(3.00021 -9.52964e-06 -5.7533e-17)
(3.0003 -0.000212823 6.00012e-16)
(3.00025 -0.000175491 -4.32523e-16)
(3.00023 -6.50126e-05 2.44177e-17)
(3.00022 -2.0052e-05 2.27835e-17)
(3.00022 -9.82082e-06 -2.83948e-17)
(3.0003 -0.000218107 5.83824e-16)
(3.00026 -0.000178676 -4.21426e-16)
(3.00024 -6.57843e-05 -1.66531e-17)
(3.00023 -2.0316e-05 4.72497e-17)
(3.00023 -1.01115e-05 -5.70921e-17)
(3.00031 -0.000223301 7.55181e-16)
(3.00026 -0.000181707 -4.10473e-16)
(3.00024 -6.64808e-05 -1.40299e-17)
(3.00024 -2.05647e-05 3.53905e-17)
(3.00023 -1.04013e-05 -8.5337e-17)
(3.00031 -0.000228396 7.35357e-16)
(3.00027 -0.000184579 -4.61618e-16)
(3.00025 -6.71011e-05 -1.05221e-17)
(3.00024 -2.07982e-05 5.48445e-17)
(3.00024 -1.069e-05 -8.53399e-17)
(3.00032 -0.000233389 7.15769e-16)
(3.00028 -0.000187286 -4.49826e-16)
(3.00026 -6.76458e-05 -9.35589e-18)
(3.00025 -2.1017e-05 1.20529e-17)
(3.00025 -1.09774e-05 -8.53323e-17)
(3.00032 -0.00023827 6.96421e-16)
(3.00029 -0.000189826 -4.37741e-16)
(3.00027 -6.81146e-05 -8.70577e-18)
(3.00026 -2.12213e-05 2.96899e-18)
(3.00026 -1.12631e-05 -8.53118e-17)
(3.00033 -0.000243036 8.53504e-16)
(3.00029 -0.000192195 -3.65484e-16)
(3.00027 -6.8509e-05 -8.51702e-18)
(3.00027 -2.14121e-05 -5.35747e-18)
(3.00026 -1.15471e-05 -8.52798e-17)
(3.00034 -0.000247681 8.32608e-16)
(3.0003 -0.00019439 -3.54069e-16)
(3.00028 -6.88293e-05 2.93282e-17)
(3.00027 -2.15895e-05 -1.29778e-17)
(3.00027 -1.18291e-05 -8.52418e-17)
(3.00034 -0.000252201 8.12993e-16)
(3.00031 -0.000196412 -2.83856e-16)
(3.00029 -6.90777e-05 6.40325e-17)
(3.00028 -2.17544e-05 -1.99534e-17)
(3.00028 -1.21088e-05 -8.52054e-17)
(3.00035 -0.000256592 6.28478e-16)
(3.00032 -0.000198259 -2.17873e-16)
(3.0003 -6.92563e-05 2.23275e-17)
(3.00029 -2.19078e-05 -2.63438e-17)
(3.00029 -1.23863e-05 -8.51781e-17)
(3.00035 -0.000260849 6.13308e-16)
(3.00032 -0.00019993 -2.10734e-16)
(3.00031 -6.93659e-05 2.19823e-17)
(3.0003 -2.20498e-05 1.63436e-17)
(3.0003 -1.26612e-05 -1.34306e-16)
(3.00036 -0.000264974 5.98337e-16)
(3.00033 -0.00020143 -2.03764e-16)
(3.00031 -6.94115e-05 2.07774e-17)
(3.00031 -2.21823e-05 1.14159e-18)
(3.00031 -1.29337e-05 -1.34158e-16)
(3.00037 -0.000268959 5.83563e-16)
(3.00034 -0.000202755 -1.97058e-16)
(3.00032 -6.93929e-05 1.58597e-17)
(3.00031 -2.23047e-05 -6.40959e-17)
(3.00031 -1.32034e-05 -1.34165e-16)
(3.00037 -0.000272806 5.68977e-16)
(3.00035 -0.000203912 -1.9061e-16)
(3.00033 -6.93158e-05 1.07367e-17)
(3.00032 -2.24193e-05 -7.14109e-17)
(3.00032 -1.34705e-05 -1.34272e-16)
(3.00038 -0.000276513 7.04917e-16)
(3.00035 -0.000204901 -2.36208e-16)
(3.00034 -6.91818e-05 5.46147e-18)
(3.00033 -2.2526e-05 -7.80486e-17)
(3.00033 -1.37348e-05 -1.34372e-16)
(3.00039 -0.000280076 6.86836e-16)
(3.00036 -0.000205724 -2.28453e-16)
(3.00035 -6.8994e-05 2.6914e-18)
(3.00034 -2.26257e-05 -4.0501e-17)
(3.00034 -1.39962e-05 -1.79314e-16)
(3.00039 -0.000283501 8.13069e-16)
(3.00037 -0.000206391 -2.18882e-16)
(3.00036 -6.87586e-05 6.20829e-17)
(3.00035 -2.27202e-05 -5.54219e-17)
(3.00035 -1.4255e-05 -1.79318e-16)
(3.0004 -0.000286777 7.93019e-16)
(3.00038 -0.000206896 -2.07721e-16)
(3.00036 -6.84739e-05 1.17161e-16)
(3.00036 -2.28084e-05 -6.88881e-17)
(3.00036 -1.45106e-05 -1.79297e-16)
(3.00041 -0.000289919 7.7351e-16)
(3.00039 -0.000207257 -1.97249e-16)
(3.00037 -6.81505e-05 1.05085e-16)
(3.00037 -2.28937e-05 -8.10254e-17)
(3.00037 -1.47638e-05 -1.79266e-16)
(3.00042 -0.000292912 7.54173e-16)
(3.0004 -0.000207465 -1.85396e-16)
(3.00038 -6.77853e-05 1.52995e-16)
(3.00038 -2.29743e-05 -9.19523e-17)
(3.00038 -1.50139e-05 -1.79239e-16)
(3.00042 -0.000295765 7.35208e-16)
(3.00041 -0.000207533 -1.74354e-16)
(3.00039 -6.73854e-05 1.36835e-16)
(3.00039 -2.30521e-05 -1.01778e-16)
(3.00038 -1.52612e-05 -1.79222e-16)
(3.00043 -0.000298484 4.52178e-16)
(3.00041 -0.000207471 -2.53919e-16)
(3.0004 -6.69569e-05 1.21192e-16)
(3.00039 -2.3129e-05 -1.06067e-16)
(3.00039 -1.55061e-05 -1.39428e-16)
(3.00044 -0.000301049 4.37941e-16)
(3.00042 -0.000207263 -2.39364e-16)
(3.00041 -6.64932e-05 1.59456e-16)
(3.0004 -2.32015e-05 -1.55908e-16)
(3.0004 -1.57476e-05 -1.78386e-16)
(3.00045 -0.000303491 4.26068e-16)
(3.00043 -0.000206947 -1.38597e-16)
(3.00042 -6.60131e-05 1.91122e-16)
(3.00041 -2.32762e-05 -1.94646e-16)
(3.00041 -1.59872e-05 -1.40238e-16)
(3.00045 -0.000305783 4.16349e-16)
(3.00044 -0.000206499 -4.33895e-17)
(3.00043 -6.55051e-05 1.65667e-16)
(3.00042 -2.33479e-05 -1.8822e-16)
(3.00042 -1.62236e-05 -1.40233e-16)
(3.00046 -0.000307936 4.06774e-16)
(3.00045 -0.000205934 -3.44204e-17)
(3.00044 -6.49777e-05 1.95382e-16)
(3.00043 -2.34189e-05 -1.73789e-16)
(3.00043 -1.64572e-05 -6.72205e-17)
(3.00047 -0.000309972 3.97238e-16)
(3.00046 -0.00020528 -2.85695e-17)
(3.00044 -6.44443e-05 1.22033e-16)
(3.00044 -2.3494e-05 -1.23225e-16)
(3.00044 -1.66893e-05 -6.7276e-17)
(3.00048 -0.000311842 3.87722e-16)
(3.00046 -0.000204489 -2.54979e-17)
(3.00045 -6.38816e-05 5.51599e-17)
(3.00045 -2.35632e-05 -1.16574e-16)
(3.00044 -1.69172e-05 -6.73507e-17)
(3.00048 -0.000313601 3.7657e-16)
(3.00047 -0.000203626 -9.80399e-17)
(3.00046 -6.33223e-05 9.01807e-17)
(3.00045 -2.36383e-05 -1.46666e-16)
(3.00045 -1.71439e-05 -6.74275e-17)
(3.00049 -0.000315231 3.65682e-16)
(3.00048 -0.000202672 -8.96518e-17)
(3.00046 -6.27538e-05 1.22073e-16)
(3.00046 -2.37135e-05 -1.36807e-16)
(3.00046 -1.73679e-05 -6.74968e-17)
(3.00049 -0.000316687 3.55062e-16)
(3.00048 -0.000201588 -8.19451e-17)
(3.00047 -6.21635e-05 1.08983e-16)
(3.00046 -2.37854e-05 -5.94033e-17)
(3.00046 -1.75885e-05 -6.75536e-17)
(3.00049 -0.000318072 3.43026e-16)
(3.00048 -0.000200481 -1.46666e-16)
(3.00047 -6.15932e-05 9.1175e-17)
(3.00047 -2.38639e-05 -1.35473e-16)
(3.00047 -1.78074e-05 -1.31289e-16)
(3.00049 -0.000319262 3.3135e-16)
(3.00048 -0.000199236 -1.37757e-16)
(3.00047 -6.10006e-05 7.45481e-17)
(3.00047 -2.39405e-05 -1.34957e-16)
(3.00047 -1.80237e-05 -1.3131e-16)
(3.00049 -0.000320328 3.20037e-16)
(3.00048 -0.00019792 -1.29869e-16)
(3.00047 -6.04015e-05 5.38293e-17)
(3.00047 -2.40116e-05 -2.05527e-16)
(3.00047 -1.82348e-05 -1.91665e-16)
(3.00049 -0.000321252 3.10614e-16)
(3.00048 -0.00019653 -5.98996e-17)
(3.00047 -5.98102e-05 -5.02856e-17)
(3.00047 -2.40904e-05 -2.03751e-16)
(3.00046 -1.84454e-05 -1.91754e-16)
(3.00049 -0.00032206 1.11156e-16)
(3.00048 -0.000195107 -6.31825e-17)
(3.00047 -5.92453e-05 -1.44232e-16)
(3.00046 -2.41772e-05 -2.09899e-16)
(3.00046 -1.86539e-05 -2.49735e-16)
(3.00049 -0.000322748 2.91062e-16)
(3.00048 -0.000193663 -6.68888e-17)
(3.00047 -5.87218e-05 -1.54423e-16)
(3.00047 -2.42775e-05 -2.74096e-16)
(3.00046 -1.88608e-05 -2.49765e-16)
(3.0005 -0.00032334 4.62512e-16)
(3.0005 -0.0001922 -7.09426e-17)
(3.00049 -5.82159e-05 -1.63456e-16)
(3.00048 -2.43744e-05 -2.70794e-16)
(3.00048 -1.90577e-05 -2.49706e-16)
(3.00046 -0.000323894 2.72785e-16)
(3.00045 -0.000190725 -7.18648e-17)
(3.00044 -5.76741e-05 -9.11683e-17)
(3.00044 -2.44654e-05 -2.19397e-16)
(3.00044 -1.92628e-05 -3.03221e-16)
)
;

boundaryField
{
    axis
    {
        type            empty;
    }
    inlet
    {
        type            fixedValue;
        value           uniform (3 0 0);
    }
    wall
    {
        type            zeroGradient;
    }
    outlet
    {
        type            zeroGradient;
    }
    front
    {
        type            wedge;
    }
    back
    {
        type            wedge;
    }
}


// ************************************************************************* //
