/*--------------------------------*- C++ -*----------------------------------*\
| =========                 |                                                 |
| \\      /  F ield         | OpenFOAM: The Open Source CFD Toolbox           |
|  \\    /   O peration     | Version:  4.1                                   |
|   \\  /    A nd           | Web:      www.OpenFOAM.org                      |
|    \\/     M anipulation  |                                                 |
\*---------------------------------------------------------------------------*/
FoamFile
{
    version     2.0;
    format      ascii;
    class       volScalarField;
    location    "3.46";
    object      Ma;
}
// * * * * * * * * * * * * * * * * * * * * * * * * * * * * * * * * * * * * * //

dimensions      [0 0 0 0 0 0 0];

internalField   nonuniform List<scalar> 
52500
(
3.00002
2.99997
2.99992
2.99969
2.99937
2.99807
2.99621
2.9891
2.97716
2.93866
2.85051
2.64755
2.10697
1.27246
0.529792
0.27579
0.328314
0.344021
0.311615
0.256687
0.204313
0.162545
0.121286
0.0762722
0.0434911
3.00002
2.99997
2.99992
2.99969
2.99938
2.9981
2.99626
2.98924
2.97749
2.93945
2.85267
2.65209
2.11878
1.28726
0.537717
0.276403
0.330165
0.346615
0.31442
0.260286
0.209211
0.168901
0.129833
0.0898892
0.066036
3.00002
2.99997
2.99992
2.9997
2.99939
2.99815
2.99636
2.98951
2.97815
2.94105
2.85718
2.66162
2.14447
1.32061
0.556388
0.280167
0.336169
0.354392
0.323037
0.271004
0.222872
0.185965
0.151751
0.120004
0.103981
3.00002
2.99998
2.99992
2.99971
2.99942
2.99822
2.99651
2.98994
2.97913
2.94352
2.86396
2.67603
2.18384
1.373
0.585028
0.286991
0.346117
0.367208
0.337318
0.288315
0.243958
0.211255
0.182501
0.157585
0.145907
3.00002
2.99998
2.99993
2.99973
2.99945
2.9983
2.99668
2.99025
2.98033
2.94586
2.87445
2.6953
2.24018
1.44799
0.625928
0.301311
0.362234
0.386308
0.357872
0.312291
0.271612
0.242967
0.21903
0.199387
0.190653
3.00002
2.99998
2.99993
2.99975
2.99948
2.99841
2.9969
2.99086
2.98175
2.94915
2.88638
2.71827
2.30686
1.54326
0.678319
0.326345
0.386386
0.412236
0.38512
0.342826
0.30587
0.281062
0.261751
0.246895
0.240975
3.00002
2.99998
2.99994
2.99977
2.99953
2.99855
2.99716
2.99164
2.98334
2.9534
2.89786
2.74231
2.37809
1.65278
0.740892
0.365522
0.421264
0.445484
0.419623
0.380687
0.347032
0.326036
0.311174
0.301683
0.300949
3.00002
2.99999
2.99995
2.99979
2.99957
2.99868
2.99743
2.9924
2.98489
2.95755
2.90747
2.76497
2.43212
1.74313
0.795945
0.400696
0.449316
0.470861
0.451722
0.420766
0.392778
0.377161
0.368814
0.367218
0.376413
3.00002
2.99999
2.99996
2.99982
2.99962
2.99883
2.99771
2.99322
2.98652
2.9622
2.91673
2.7911
2.47878
1.85435
0.878037
0.459477
0.4727
0.485624
0.480313
0.459876
0.440969
0.432823
0.433477
0.446166
0.480271
3.00002
3
2.99997
2.99985
2.99969
2.99904
2.99808
2.9946
2.98835
2.96929
2.92458
2.81906
2.52205
1.96725
0.990931
0.532457
0.489601
0.502472
0.507652
0.497629
0.490196
0.492132
0.50889
0.551386
0.652423
3
2.99995
2.9999
2.99967
2.99935
2.99805
2.99619
2.98907
2.97714
2.93863
2.85048
2.64748
2.1069
1.27233
0.529653
0.275582
0.328125
0.343834
0.311405
0.25643
0.203986
0.162129
0.120722
0.0753612
0.0418481
3
2.99995
2.9999
2.99967
2.99936
2.99808
2.99624
2.98921
2.97746
2.93942
2.85264
2.65203
2.1187
1.28713
0.537581
0.276196
0.329978
0.346429
0.314212
0.260034
0.208895
0.168504
0.129312
0.0891268
0.0649808
3
2.99996
2.9999
2.99968
2.99937
2.99813
2.99634
2.98949
2.97812
2.94102
2.85715
2.66155
2.14439
1.32047
0.556256
0.279961
0.335984
0.35421
0.322835
0.270762
0.222575
0.185606
0.151309
0.11944
0.103322
3
2.99996
2.99991
2.99969
2.9994
2.9982
2.99649
2.98991
2.97911
2.94349
2.86392
2.67597
2.18377
1.37287
0.584901
0.286786
0.345936
0.367032
0.337126
0.288091
0.243691
0.210944
0.182137
0.157161
0.145443
3
2.99996
2.99991
2.99971
2.99943
2.99828
2.99666
2.99023
2.9803
2.94582
2.87443
2.69524
2.24015
1.44788
0.62583
0.30113
0.362072
0.386152
0.357701
0.312094
0.271381
0.242704
0.218734
0.199057
0.190303
3
2.99996
2.99992
2.99973
2.99946
2.99839
2.99688
2.99083
2.98173
2.94912
2.88636
2.71821
2.30681
1.54315
0.678223
0.326171
0.386235
0.412094
0.384967
0.342653
0.305673
0.280842
0.26151
0.246634
0.240701
3
2.99997
2.99992
2.99975
2.99951
2.99853
2.99714
2.99162
2.98332
2.95338
2.89783
2.74226
2.37805
1.6527
0.740804
0.365362
0.42113
0.44536
0.41949
0.380538
0.346864
0.325854
0.310978
0.301476
0.300735
3
2.99997
2.99993
2.99977
2.99956
2.99866
2.99741
2.99238
2.98486
2.95753
2.90744
2.76493
2.43208
1.74305
0.795854
0.400541
0.449193
0.470748
0.451602
0.420635
0.392635
0.37701
0.368655
0.367054
0.376247
3
2.99997
2.99994
2.9998
2.99961
2.99881
2.99769
2.9932
2.9865
2.96217
2.9167
2.79105
2.47876
1.85425
0.877952
0.459338
0.472588
0.485516
0.480202
0.459759
0.440846
0.432696
0.433348
0.446039
0.48015
3
2.99998
2.99995
2.99984
2.99967
2.99902
2.99806
2.99457
2.98833
2.96927
2.92455
2.81902
2.52202
1.96717
0.99085
0.532335
0.489493
0.502368
0.507548
0.497523
0.490089
0.492025
0.508786
0.55129
0.652342
3
2.99995
2.9999
2.99967
2.99935
2.99805
2.99619
2.98907
2.97714
2.93863
2.85048
2.64748
2.10689
1.27232
0.529652
0.275583
0.328125
0.343834
0.311405
0.25643
0.203986
0.162129
0.120722
0.0753613
0.0418482
3
2.99995
2.9999
2.99967
2.99936
2.99808
2.99624
2.98921
2.97746
2.93942
2.85264
2.65202
2.1187
1.28713
0.53758
0.276197
0.329978
0.346429
0.314212
0.260034
0.208895
0.168505
0.129312
0.0891269
0.0649809
3
2.99996
2.9999
2.99968
2.99937
2.99813
2.99634
2.98949
2.97812
2.94102
2.85715
2.66155
2.14439
1.32047
0.556255
0.279962
0.335985
0.35421
0.322835
0.270762
0.222575
0.185606
0.151309
0.11944
0.103322
3
2.99996
2.99991
2.99969
2.9994
2.9982
2.99649
2.98991
2.97911
2.94349
2.86392
2.67596
2.18377
1.37286
0.584899
0.286787
0.345936
0.367032
0.337126
0.288091
0.243691
0.210944
0.182138
0.157161
0.145444
3
2.99996
2.99991
2.99971
2.99943
2.99828
2.99666
2.99023
2.9803
2.94582
2.87443
2.69524
2.24014
1.44788
0.625828
0.301131
0.362072
0.386151
0.357701
0.312094
0.271381
0.242704
0.218734
0.199057
0.190303
3
2.99996
2.99992
2.99973
2.99946
2.99839
2.99688
2.99083
2.98173
2.94912
2.88635
2.71821
2.30681
1.54315
0.678221
0.326171
0.386235
0.412094
0.384967
0.342653
0.305673
0.280842
0.26151
0.246634
0.240702
3
2.99997
2.99992
2.99975
2.99951
2.99853
2.99714
2.99162
2.98332
2.95338
2.89783
2.74226
2.37805
1.6527
0.740802
0.365362
0.42113
0.445359
0.419489
0.380537
0.346864
0.325854
0.310978
0.301476
0.300736
3
2.99997
2.99993
2.99977
2.99956
2.99866
2.99741
2.99238
2.98486
2.95753
2.90744
2.76493
2.43208
1.74305
0.795852
0.40054
0.449193
0.470748
0.451602
0.420635
0.392635
0.377009
0.368655
0.367054
0.376248
3
2.99997
2.99994
2.9998
2.99961
2.99881
2.99769
2.9932
2.9865
2.96217
2.9167
2.79105
2.47876
1.85425
0.87795
0.459337
0.472588
0.485516
0.480202
0.459759
0.440846
0.432696
0.433348
0.446039
0.48015
3
2.99998
2.99995
2.99984
2.99967
2.99902
2.99806
2.99457
2.98833
2.96927
2.92455
2.81901
2.52202
1.96717
0.990848
0.532333
0.489493
0.502368
0.507548
0.497523
0.490088
0.492025
0.508786
0.55129
0.652342
3
2.99995
2.9999
2.99967
2.99935
2.99805
2.99619
2.98907
2.97714
2.93863
2.85048
2.64748
2.10689
1.27232
0.529652
0.275583
0.328125
0.343834
0.311405
0.25643
0.203986
0.162129
0.120722
0.0753613
0.0418482
3
2.99995
2.9999
2.99967
2.99936
2.99808
2.99624
2.98921
2.97746
2.93942
2.85264
2.65202
2.1187
1.28713
0.53758
0.276197
0.329978
0.346429
0.314212
0.260034
0.208895
0.168505
0.129312
0.0891269
0.0649809
3
2.99996
2.9999
2.99968
2.99937
2.99813
2.99634
2.98949
2.97812
2.94102
2.85715
2.66155
2.14439
1.32047
0.556255
0.279962
0.335985
0.35421
0.322835
0.270762
0.222575
0.185606
0.151309
0.11944
0.103322
3
2.99996
2.99991
2.99969
2.9994
2.9982
2.99649
2.98991
2.97911
2.94349
2.86392
2.67596
2.18377
1.37286
0.584899
0.286787
0.345936
0.367032
0.337126
0.288091
0.243691
0.210944
0.182138
0.157161
0.145444
3
2.99996
2.99991
2.99971
2.99943
2.99828
2.99666
2.99023
2.9803
2.94582
2.87443
2.69524
2.24014
1.44788
0.625828
0.301131
0.362072
0.386151
0.357701
0.312094
0.271381
0.242704
0.218734
0.199057
0.190303
3
2.99996
2.99992
2.99973
2.99946
2.99839
2.99688
2.99083
2.98173
2.94912
2.88635
2.71821
2.30681
1.54315
0.678221
0.326171
0.386235
0.412094
0.384967
0.342653
0.305673
0.280842
0.26151
0.246634
0.240702
3
2.99997
2.99992
2.99975
2.99951
2.99853
2.99714
2.99162
2.98332
2.95338
2.89783
2.74226
2.37805
1.6527
0.740802
0.365362
0.42113
0.445359
0.419489
0.380537
0.346864
0.325854
0.310978
0.301476
0.300736
3
2.99997
2.99993
2.99977
2.99956
2.99866
2.99741
2.99238
2.98486
2.95753
2.90744
2.76493
2.43208
1.74305
0.795851
0.40054
0.449193
0.470748
0.451602
0.420635
0.392635
0.377009
0.368655
0.367054
0.376248
3
2.99997
2.99994
2.9998
2.99961
2.99881
2.99769
2.9932
2.9865
2.96217
2.9167
2.79105
2.47876
1.85425
0.87795
0.459337
0.472588
0.485516
0.480202
0.459759
0.440846
0.432696
0.433348
0.446038
0.48015
3
2.99998
2.99995
2.99984
2.99967
2.99902
2.99806
2.99457
2.98833
2.96927
2.92455
2.81901
2.52202
1.96717
0.990848
0.532333
0.489493
0.502368
0.507548
0.497523
0.490088
0.492025
0.508786
0.55129
0.652342
3
2.99995
2.9999
2.99967
2.99935
2.99805
2.99619
2.98907
2.97714
2.93863
2.85048
2.64748
2.10689
1.27232
0.529652
0.275583
0.328125
0.343834
0.311405
0.25643
0.203986
0.162129
0.120722
0.0753613
0.0418482
3
2.99995
2.9999
2.99967
2.99936
2.99808
2.99624
2.98921
2.97746
2.93942
2.85264
2.65202
2.1187
1.28713
0.53758
0.276197
0.329978
0.346429
0.314212
0.260034
0.208895
0.168505
0.129312
0.0891269
0.0649809
3
2.99996
2.9999
2.99968
2.99937
2.99813
2.99634
2.98949
2.97812
2.94102
2.85715
2.66155
2.14439
1.32047
0.556255
0.279962
0.335985
0.35421
0.322835
0.270762
0.222575
0.185606
0.151309
0.11944
0.103322
3
2.99996
2.99991
2.99969
2.9994
2.9982
2.99649
2.98991
2.97911
2.94349
2.86392
2.67596
2.18377
1.37286
0.584899
0.286787
0.345936
0.367032
0.337126
0.288091
0.243691
0.210944
0.182138
0.157161
0.145444
3
2.99996
2.99991
2.99971
2.99943
2.99828
2.99666
2.99023
2.9803
2.94582
2.87443
2.69524
2.24014
1.44788
0.625828
0.301131
0.362072
0.386151
0.357701
0.312094
0.271381
0.242704
0.218734
0.199057
0.190303
3
2.99996
2.99992
2.99973
2.99946
2.99839
2.99688
2.99083
2.98173
2.94912
2.88635
2.71821
2.30681
1.54315
0.678221
0.326171
0.386235
0.412094
0.384967
0.342653
0.305673
0.280842
0.26151
0.246634
0.240702
3
2.99997
2.99992
2.99975
2.99951
2.99853
2.99714
2.99162
2.98332
2.95338
2.89783
2.74226
2.37805
1.6527
0.740802
0.365362
0.42113
0.445359
0.419489
0.380537
0.346864
0.325854
0.310978
0.301476
0.300736
3
2.99997
2.99993
2.99977
2.99956
2.99866
2.99741
2.99238
2.98486
2.95753
2.90744
2.76493
2.43208
1.74305
0.795851
0.40054
0.449193
0.470748
0.451602
0.420635
0.392635
0.377009
0.368655
0.367054
0.376248
3
2.99997
2.99994
2.9998
2.99961
2.99881
2.99769
2.9932
2.9865
2.96217
2.9167
2.79105
2.47876
1.85425
0.87795
0.459337
0.472588
0.485516
0.480202
0.459759
0.440846
0.432696
0.433348
0.446038
0.48015
3
2.99998
2.99995
2.99984
2.99967
2.99902
2.99806
2.99457
2.98833
2.96927
2.92455
2.81901
2.52202
1.96717
0.990847
0.532333
0.489493
0.502368
0.507548
0.497523
0.490088
0.492025
0.508786
0.55129
0.652342
3
2.99995
2.9999
2.99967
2.99935
2.99805
2.99619
2.98907
2.97714
2.93863
2.85048
2.64748
2.10689
1.27232
0.529652
0.275583
0.328125
0.343834
0.311405
0.25643
0.203986
0.162129
0.120722
0.0753613
0.0418482
3
2.99995
2.9999
2.99967
2.99936
2.99808
2.99624
2.98921
2.97746
2.93942
2.85264
2.65202
2.1187
1.28713
0.53758
0.276197
0.329978
0.346429
0.314212
0.260034
0.208895
0.168505
0.129312
0.0891269
0.0649809
3
2.99996
2.9999
2.99968
2.99937
2.99813
2.99634
2.98949
2.97812
2.94102
2.85715
2.66155
2.14439
1.32047
0.556255
0.279962
0.335985
0.35421
0.322835
0.270762
0.222575
0.185606
0.151309
0.11944
0.103322
3
2.99996
2.99991
2.99969
2.9994
2.9982
2.99649
2.98991
2.97911
2.94349
2.86392
2.67596
2.18377
1.37286
0.584899
0.286787
0.345936
0.367032
0.337126
0.288091
0.243691
0.210944
0.182138
0.157161
0.145444
3
2.99996
2.99991
2.99971
2.99943
2.99828
2.99666
2.99023
2.9803
2.94582
2.87443
2.69524
2.24014
1.44788
0.625828
0.301131
0.362072
0.386151
0.357701
0.312094
0.271381
0.242704
0.218734
0.199057
0.190303
3
2.99996
2.99992
2.99973
2.99946
2.99839
2.99688
2.99083
2.98173
2.94912
2.88635
2.71821
2.30681
1.54315
0.678221
0.326171
0.386235
0.412094
0.384967
0.342653
0.305673
0.280842
0.26151
0.246634
0.240702
3
2.99997
2.99992
2.99975
2.99951
2.99853
2.99714
2.99162
2.98332
2.95338
2.89783
2.74226
2.37805
1.6527
0.740802
0.365362
0.42113
0.445359
0.419489
0.380537
0.346864
0.325854
0.310978
0.301476
0.300736
3
2.99997
2.99993
2.99977
2.99956
2.99866
2.99741
2.99238
2.98486
2.95753
2.90744
2.76493
2.43208
1.74305
0.795851
0.40054
0.449193
0.470748
0.451602
0.420635
0.392635
0.377009
0.368655
0.367054
0.376248
3
2.99997
2.99994
2.9998
2.99961
2.99881
2.99769
2.9932
2.9865
2.96217
2.9167
2.79105
2.47876
1.85425
0.87795
0.459337
0.472588
0.485516
0.480202
0.459759
0.440846
0.432696
0.433348
0.446038
0.48015
3
2.99998
2.99995
2.99984
2.99967
2.99902
2.99806
2.99457
2.98833
2.96927
2.92455
2.81901
2.52202
1.96717
0.990848
0.532333
0.489493
0.502368
0.507548
0.497523
0.490088
0.492025
0.508786
0.55129
0.652342
3
2.99995
2.9999
2.99967
2.99935
2.99805
2.99619
2.98907
2.97714
2.93863
2.85048
2.64748
2.10689
1.27232
0.529652
0.275583
0.328125
0.343834
0.311405
0.25643
0.203986
0.162129
0.120722
0.0753613
0.0418482
3
2.99995
2.9999
2.99967
2.99936
2.99808
2.99624
2.98921
2.97746
2.93942
2.85264
2.65202
2.1187
1.28713
0.53758
0.276197
0.329978
0.346429
0.314212
0.260034
0.208895
0.168505
0.129312
0.0891269
0.0649809
3
2.99996
2.9999
2.99968
2.99937
2.99813
2.99634
2.98949
2.97812
2.94102
2.85715
2.66155
2.14439
1.32047
0.556255
0.279962
0.335985
0.35421
0.322835
0.270762
0.222575
0.185606
0.151309
0.11944
0.103322
3
2.99996
2.99991
2.99969
2.9994
2.9982
2.99649
2.98991
2.97911
2.94349
2.86392
2.67596
2.18377
1.37286
0.584899
0.286787
0.345936
0.367032
0.337126
0.288091
0.243691
0.210944
0.182138
0.157161
0.145444
3
2.99996
2.99991
2.99971
2.99943
2.99828
2.99666
2.99023
2.9803
2.94582
2.87443
2.69524
2.24014
1.44788
0.625828
0.301131
0.362072
0.386151
0.357701
0.312094
0.271381
0.242704
0.218734
0.199057
0.190303
3
2.99996
2.99992
2.99973
2.99946
2.99839
2.99688
2.99083
2.98173
2.94912
2.88635
2.71821
2.30681
1.54315
0.678221
0.326171
0.386235
0.412094
0.384967
0.342653
0.305673
0.280842
0.26151
0.246634
0.240702
3
2.99997
2.99992
2.99975
2.99951
2.99853
2.99714
2.99162
2.98332
2.95338
2.89783
2.74226
2.37805
1.6527
0.740802
0.365362
0.42113
0.445359
0.419489
0.380537
0.346864
0.325854
0.310978
0.301476
0.300736
3
2.99997
2.99993
2.99977
2.99956
2.99866
2.99741
2.99238
2.98486
2.95753
2.90744
2.76493
2.43208
1.74305
0.795851
0.40054
0.449193
0.470748
0.451602
0.420635
0.392635
0.377009
0.368655
0.367054
0.376248
3
2.99997
2.99994
2.9998
2.99961
2.99881
2.99769
2.9932
2.9865
2.96217
2.9167
2.79105
2.47876
1.85425
0.87795
0.459337
0.472588
0.485516
0.480202
0.459759
0.440846
0.432696
0.433348
0.446038
0.48015
3
2.99998
2.99995
2.99984
2.99967
2.99902
2.99806
2.99457
2.98833
2.96927
2.92455
2.81901
2.52202
1.96717
0.990848
0.532333
0.489493
0.502368
0.507548
0.497523
0.490088
0.492025
0.508786
0.55129
0.652342
3
2.99995
2.9999
2.99967
2.99935
2.99805
2.99619
2.98907
2.97714
2.93863
2.85048
2.64748
2.10689
1.27232
0.529652
0.275583
0.328125
0.343834
0.311405
0.25643
0.203986
0.162129
0.120722
0.0753613
0.0418482
3
2.99995
2.9999
2.99967
2.99936
2.99808
2.99624
2.98921
2.97746
2.93942
2.85264
2.65202
2.1187
1.28713
0.53758
0.276197
0.329978
0.346429
0.314212
0.260034
0.208895
0.168505
0.129312
0.0891269
0.0649809
3
2.99996
2.9999
2.99968
2.99937
2.99813
2.99634
2.98949
2.97812
2.94102
2.85715
2.66155
2.14439
1.32047
0.556255
0.279962
0.335985
0.35421
0.322835
0.270762
0.222575
0.185606
0.151309
0.11944
0.103322
3
2.99996
2.99991
2.99969
2.9994
2.9982
2.99649
2.98991
2.97911
2.94349
2.86392
2.67596
2.18377
1.37286
0.584899
0.286787
0.345936
0.367032
0.337126
0.288091
0.243691
0.210944
0.182138
0.157161
0.145444
3
2.99996
2.99991
2.99971
2.99943
2.99828
2.99666
2.99023
2.9803
2.94582
2.87443
2.69524
2.24014
1.44788
0.625828
0.301131
0.362072
0.386151
0.357701
0.312094
0.271381
0.242704
0.218734
0.199057
0.190303
3
2.99996
2.99992
2.99973
2.99946
2.99839
2.99688
2.99083
2.98173
2.94912
2.88635
2.71821
2.30681
1.54315
0.678221
0.326171
0.386235
0.412094
0.384967
0.342653
0.305673
0.280842
0.26151
0.246634
0.240702
3
2.99997
2.99992
2.99975
2.99951
2.99853
2.99714
2.99162
2.98332
2.95338
2.89783
2.74226
2.37805
1.6527
0.740802
0.365362
0.42113
0.445359
0.419489
0.380537
0.346864
0.325854
0.310978
0.301476
0.300736
3
2.99997
2.99993
2.99977
2.99956
2.99866
2.99741
2.99238
2.98486
2.95753
2.90744
2.76493
2.43208
1.74305
0.795852
0.40054
0.449193
0.470748
0.451602
0.420635
0.392635
0.377009
0.368655
0.367054
0.376248
3
2.99997
2.99994
2.9998
2.99961
2.99881
2.99769
2.9932
2.9865
2.96217
2.9167
2.79105
2.47876
1.85425
0.87795
0.459337
0.472588
0.485516
0.480202
0.459759
0.440846
0.432696
0.433348
0.446039
0.48015
3
2.99998
2.99995
2.99984
2.99967
2.99902
2.99806
2.99457
2.98833
2.96927
2.92455
2.81901
2.52202
1.96717
0.990848
0.532333
0.489493
0.502368
0.507548
0.497523
0.490088
0.492025
0.508786
0.55129
0.652342
3
2.99995
2.9999
2.99967
2.99935
2.99805
2.99619
2.98907
2.97714
2.93863
2.85048
2.64748
2.1069
1.27233
0.529653
0.275582
0.328125
0.343834
0.311405
0.25643
0.203986
0.162129
0.120722
0.0753612
0.0418481
3
2.99995
2.9999
2.99967
2.99936
2.99808
2.99624
2.98921
2.97746
2.93942
2.85264
2.65203
2.1187
1.28713
0.537581
0.276196
0.329978
0.346429
0.314212
0.260034
0.208895
0.168504
0.129312
0.0891268
0.0649808
3
2.99996
2.9999
2.99968
2.99937
2.99813
2.99634
2.98949
2.97812
2.94102
2.85715
2.66155
2.14439
1.32047
0.556256
0.279961
0.335984
0.35421
0.322835
0.270762
0.222575
0.185606
0.151309
0.11944
0.103322
3
2.99996
2.99991
2.99969
2.9994
2.9982
2.99649
2.98991
2.97911
2.94349
2.86392
2.67597
2.18377
1.37287
0.584901
0.286786
0.345936
0.367032
0.337126
0.288091
0.243691
0.210944
0.182137
0.157161
0.145443
3
2.99996
2.99991
2.99971
2.99943
2.99828
2.99666
2.99023
2.9803
2.94582
2.87443
2.69524
2.24015
1.44788
0.62583
0.30113
0.362072
0.386152
0.357701
0.312094
0.271381
0.242704
0.218734
0.199057
0.190303
3
2.99996
2.99992
2.99973
2.99946
2.99839
2.99688
2.99083
2.98173
2.94912
2.88636
2.71821
2.30681
1.54315
0.678223
0.326171
0.386235
0.412094
0.384967
0.342653
0.305673
0.280842
0.26151
0.246634
0.240701
3
2.99997
2.99992
2.99975
2.99951
2.99853
2.99714
2.99162
2.98332
2.95338
2.89783
2.74226
2.37805
1.6527
0.740804
0.365362
0.42113
0.44536
0.41949
0.380538
0.346864
0.325854
0.310978
0.301476
0.300735
3
2.99997
2.99993
2.99977
2.99956
2.99866
2.99741
2.99238
2.98486
2.95753
2.90744
2.76493
2.43208
1.74305
0.795854
0.400541
0.449193
0.470748
0.451602
0.420635
0.392635
0.37701
0.368655
0.367054
0.376247
3
2.99997
2.99994
2.9998
2.99961
2.99881
2.99769
2.9932
2.9865
2.96217
2.9167
2.79105
2.47876
1.85425
0.877952
0.459338
0.472588
0.485516
0.480202
0.459759
0.440846
0.432696
0.433348
0.446039
0.48015
3
2.99998
2.99995
2.99984
2.99967
2.99902
2.99806
2.99457
2.98833
2.96927
2.92455
2.81902
2.52202
1.96717
0.99085
0.532335
0.489493
0.502368
0.507548
0.497523
0.490089
0.492025
0.508786
0.55129
0.652342
3.00002
2.99997
2.99992
2.99969
2.99937
2.99807
2.99621
2.9891
2.97716
2.93866
2.85051
2.64755
2.10697
1.27246
0.529792
0.27579
0.328314
0.344021
0.311615
0.256687
0.204313
0.162544
0.121286
0.0762722
0.0434911
3.00002
2.99997
2.99992
2.99969
2.99938
2.9981
2.99626
2.98924
2.97749
2.93945
2.85267
2.65209
2.11878
1.28726
0.537717
0.276403
0.330165
0.346615
0.31442
0.260286
0.209211
0.168901
0.129833
0.0898891
0.066036
3.00002
2.99997
2.99992
2.9997
2.99939
2.99815
2.99636
2.98951
2.97815
2.94105
2.85718
2.66161
2.14447
1.32061
0.556388
0.280167
0.336169
0.354392
0.323037
0.271004
0.222872
0.185965
0.151751
0.120004
0.103981
3.00002
2.99998
2.99992
2.99971
2.99942
2.99822
2.99651
2.98994
2.97913
2.94352
2.86396
2.67603
2.18384
1.373
0.585028
0.286991
0.346117
0.367208
0.337318
0.288315
0.243958
0.211255
0.182501
0.157585
0.145907
3.00002
2.99998
2.99993
2.99973
2.99945
2.9983
2.99668
2.99025
2.98033
2.94586
2.87445
2.6953
2.24018
1.44799
0.625928
0.301311
0.362234
0.386308
0.357872
0.312291
0.271612
0.242967
0.21903
0.199387
0.190653
3.00002
2.99998
2.99993
2.99975
2.99948
2.99841
2.9969
2.99086
2.98175
2.94915
2.88638
2.71827
2.30686
1.54326
0.678319
0.326345
0.386386
0.412236
0.38512
0.342826
0.30587
0.281062
0.261751
0.246895
0.240975
3.00002
2.99998
2.99994
2.99977
2.99953
2.99855
2.99716
2.99164
2.98334
2.9534
2.89785
2.74231
2.37809
1.65278
0.740892
0.365522
0.421264
0.445484
0.419623
0.380687
0.347032
0.326036
0.311174
0.301683
0.300949
3.00002
2.99999
2.99995
2.99979
2.99957
2.99868
2.99743
2.9924
2.98489
2.95755
2.90747
2.76497
2.43212
1.74313
0.795945
0.400696
0.449316
0.470861
0.451722
0.420766
0.392778
0.377161
0.368814
0.367217
0.376412
3.00002
2.99999
2.99996
2.99982
2.99962
2.99883
2.99771
2.99322
2.98652
2.9622
2.91673
2.7911
2.47878
1.85435
0.878037
0.459477
0.4727
0.485624
0.480313
0.459876
0.440969
0.432824
0.433477
0.446166
0.480271
3.00002
3
2.99997
2.99985
2.99969
2.99904
2.99808
2.9946
2.98835
2.96929
2.92458
2.81906
2.52205
1.96725
0.990931
0.532457
0.489601
0.502472
0.507652
0.497629
0.490196
0.492132
0.50889
0.551386
0.652423
3.00002
3.00001
2.99996
2.9999
2.99965
2.99929
2.99788
2.99573
2.98804
2.97415
2.93201
2.83159
2.60873
2.02935
1.17026
0.622481
0.513189
0.52585
0.53742
0.536318
0.53831
0.552914
0.591921
0.676638
0.856317
3.00002
3.00001
2.99997
2.99992
2.9997
2.99939
2.99814
2.99635
2.98951
2.97811
2.94116
2.85734
2.66284
2.14985
1.33842
0.714686
0.536897
0.551329
0.568903
0.576316
0.587005
0.614352
0.67129
0.776532
0.966548
3.00002
3.00001
2.99998
2.99993
2.99974
2.99947
2.99838
2.99685
2.99071
2.98149
2.94858
2.88405
2.71518
2.29632
1.54082
0.824015
0.574351
0.586586
0.604273
0.617469
0.634463
0.669907
0.73545
0.840088
1.00388
3.00002
3.00001
2.99999
2.99995
2.99979
2.99957
2.99867
2.9974
2.99236
2.98483
2.95742
2.90815
2.76488
2.44707
1.76737
0.94668
0.632087
0.634384
0.647971
0.664146
0.68383
0.721689
0.785709
0.87981
1.01707
3.00002
3.00002
2.99999
2.99996
2.99984
2.99966
2.99895
2.99792
2.99392
2.98776
2.96627
2.92455
2.81212
2.53271
1.9584
1.06993
0.698756
0.674305
0.687835
0.7053
0.727968
0.765438
0.828063
0.910712
1.02584
3.00002
3.00002
3.00001
2.99996
2.99991
2.99967
2.99933
2.99803
2.99603
2.98902
2.97596
2.93779
2.84467
2.64106
2.09506
1.28587
0.803868
0.709377
0.721238
0.739929
0.766358
0.802628
0.859223
0.936062
1.03388
3.00002
3.00002
3.00001
2.99998
2.99993
2.99973
2.99946
2.99834
2.99677
2.99052
2.98102
2.94781
2.88041
2.71016
2.28214
1.53331
0.925771
0.745687
0.750312
0.76998
0.801404
0.837851
0.887714
0.955789
1.04115
3.00002
3.00002
3.00001
2.99999
2.99995
2.9998
2.99959
2.99874
2.99752
2.99276
2.98549
2.95971
2.91236
2.77677
2.47676
1.82092
1.083
0.807633
0.792054
0.805688
0.833457
0.870727
0.916704
0.976499
1.05053
3.00002
3.00002
3.00002
3
2.99996
2.99989
2.99963
2.99924
2.99776
2.99554
2.98745
2.97352
2.93
2.83057
2.60811
2.05372
1.26158
0.881288
0.83235
0.844087
0.867351
0.901339
0.942356
0.994727
1.05953
3.00003
3.00002
3.00002
3.00001
2.99997
2.99992
2.99972
2.99944
2.99831
2.99666
2.99052
2.98014
2.94707
2.87249
2.69839
2.24911
1.49967
0.996492
0.871525
0.875172
0.896646
0.930164
0.968903
1.01438
1.07042
3.00003
3.00003
3.00002
3.00001
3
2.99994
2.99985
2.99952
2.99902
2.99718
2.99419
2.98436
2.96426
2.91061
2.77287
2.49224
1.82688
1.17713
0.93479
0.914461
0.926897
0.955227
0.992687
1.03456
1.08281
3.00003
3.00003
3.00002
3.00002
3.00001
2.99996
2.9999
2.99965
2.99929
2.99787
2.99579
2.98807
2.97515
2.93408
2.84171
2.634
2.11004
1.36629
1.01274
0.954359
0.961696
0.98373
1.01709
1.05574
1.09947
3.00003
3.00003
3.00003
3.00002
3.00001
2.99999
2.99992
2.99981
2.99941
2.9988
2.99663
2.99285
2.98112
2.95503
2.89018
2.71737
2.37766
1.62515
1.14807
1.00157
0.995334
1.00856
1.03703
1.07424
1.11463
3.00003
3.00003
3.00003
3.00002
3.00001
3
2.99995
2.99987
2.99957
2.99913
2.99742
2.99496
2.98553
2.97061
2.92186
2.82014
2.57151
2.0358
1.33668
1.07555
1.03798
1.04263
1.063
1.09529
1.13198
3.00003
3.00003
3.00003
3.00002
3.00002
3.00001
2.99998
2.9999
2.99977
2.99929
2.99858
2.9959
2.99174
2.9775
2.95039
2.87554
2.69253
2.31126
1.57638
1.17959
1.07664
1.07291
1.08637
1.11317
1.14887
3.00003
3.00003
3.00003
3.00003
3.00002
3.00001
3
2.99994
2.99985
2.99952
2.99905
2.99721
2.99452
2.98462
2.96801
2.9167
2.80051
2.54964
1.96154
1.36374
1.13921
1.11049
1.11558
1.13622
1.16645
3.00003
3.00003
3.00003
3.00003
3.00002
3.00002
3
2.99998
2.99989
2.99975
2.99923
2.99846
2.99559
2.99112
2.97568
2.94734
2.86837
2.68418
2.27449
1.5789
1.22988
1.14769
1.14446
1.15753
1.1825
3.00003
3.00003
3.00003
3.00003
3.00003
3.00002
3.00001
3
2.99993
2.99985
2.9995
2.99901
2.99709
2.99429
2.98404
2.96681
2.9139
2.79456
2.53657
1.94573
1.40382
1.20562
1.17875
1.18366
1.2031
3.00003
3.00003
3.00003
3.00003
3.00003
3.00002
3.00002
3
2.99998
2.99988
2.99974
2.99922
2.99843
2.99555
2.99096
2.97555
2.94706
2.86613
2.69164
2.26388
1.62958
1.30295
1.2209
1.21398
1.22341
3.00003
3.00003
3.00003
3.00003
3.00003
3.00003
3.00002
3.00002
2.99999
2.99995
2.99981
2.9996
2.99881
2.99763
2.99331
2.98645
2.96369
2.92045
2.80462
2.54546
1.98743
1.46202
1.27562
1.24728
1.25004
3.00003
3.00003
3.00003
3.00003
3.00003
3.00003
3.00002
3.00002
3
2.99998
2.99989
2.99976
2.99925
2.99851
2.99572
2.99152
2.97664
2.95094
2.8755
2.71327
2.33137
1.7039
1.37379
1.28647
1.2772
3.00003
3.00003
3.00003
3.00003
3.00003
3.00003
3.00003
3.00002
3.00002
2.99999
2.99996
2.99983
2.99963
2.99892
2.99784
2.99394
2.98774
2.96735
2.92905
2.82481
2.60116
2.08926
1.54962
1.34228
1.31145
3.00003
3.00003
3.00003
3.00003
3.00003
3.00003
3.00003
3.00003
3.00002
3.00001
2.99998
2.9999
2.99978
2.99932
2.99867
2.99615
2.9925
2.97896
2.95738
2.88913
2.74898
2.4171
1.80276
1.44405
1.34497
3.00003
3.00003
3.00003
3.00003
3.00003
3.00003
3.00003
3.00003
3.00002
3.00002
3
2.99995
2.99988
2.9996
2.99921
2.99771
2.99553
2.9875
2.97479
2.93391
2.85406
2.653
2.22159
1.64846
1.4144
3.00003
3.00003
3.00003
3.00003
3.00003
3.00003
3.00003
3.00003
3.00003
3.00002
3.00001
2.99998
2.99994
2.99977
2.99954
2.99863
2.99731
2.9924
2.98488
2.95933
2.91148
2.78727
2.49384
1.93468
1.54172
3.00003
3.00003
3.00003
3.00003
3.00003
3.00003
3.00003
3.00003
3.00003
3.00003
3.00002
3.00001
2.99997
2.99991
2.99969
2.99936
2.99816
2.99633
2.98994
2.97918
2.9462
2.87521
2.71444
2.32447
1.7585
3.00003
3.00003
3.00003
3.00003
3.00003
3.00003
3.00003
3.00003
3.00003
3.00003
3.00002
3.00001
3
2.99994
2.99986
2.99957
2.99912
2.99752
2.99503
2.98666
2.97177
2.9292
2.83242
2.62895
2.14707
3.00003
3.00003
3.00003
3.00003
3.00003
3.00003
3.00003
3.00003
3.00003
3.00003
3.00003
3.00002
3.00001
2.99999
2.99991
2.9998
2.99939
2.99877
2.99656
2.99306
2.98165
2.96027
2.90348
2.77427
2.48395
3.00003
3.00003
3.00003
3.00003
3.00003
3.00003
3.00003
3.00003
3.00003
3.00003
3.00003
3.00002
3.00002
3.00001
2.99996
2.9999
2.99966
2.99931
2.99802
2.99613
2.98926
2.97839
2.9437
2.8755
2.70827
3.00003
3.00003
3.00003
3.00003
3.00003
3.00003
3.00003
3.00003
3.00003
3.00003
3.00003
3.00003
3.00002
3.00001
3
2.99994
2.99986
2.99956
2.9991
2.99748
2.99498
2.98642
2.97189
2.92908
2.83698
3.00003
3.00003
3.00003
3.00003
3.00003
3.00003
3.00003
3.00003
3.00003
3.00003
3.00003
3.00003
3.00003
3.00002
3.00001
2.99999
2.99991
2.9998
2.99941
2.9988
2.99668
2.99329
2.98224
2.96222
2.90593
3.00003
3.00003
3.00003
3.00003
3.00003
3.00003
3.00003
3.00003
3.00003
3.00003
3.00003
3.00003
3.00003
3.00002
3.00002
3
2.99998
2.99988
2.99974
2.99923
2.99845
2.99574
2.99135
2.97731
2.95182
3.00003
3.00003
3.00003
3.00003
3.00003
3.00003
3.00003
3.00003
3.00003
3.00003
3.00003
3.00003
3.00003
3.00003
3.00002
3.00001
3
2.99995
2.99987
2.99959
2.99918
2.99769
2.99544
2.98773
2.97489
3.00003
3.00003
3.00003
3.00003
3.00003
3.00003
3.00003
3.00003
3.00003
3.00003
3.00003
3.00003
3.00003
3.00003
3.00003
3.00002
3.00001
2.99999
2.99993
2.99983
2.99948
2.99894
2.99708
2.99416
2.98443
3.00003
3.00003
3.00003
3.00003
3.00003
3.00003
3.00003
3.00003
3.00003
3.00003
3.00003
3.00003
3.00003
3.00003
3.00003
3.00002
3.00002
3
2.99998
2.99989
2.99976
2.9993
2.99858
2.9961
2.99211
3.00003
3.00003
3.00003
3.00003
3.00003
3.00003
3.00003
3.00003
3.00003
3.00003
3.00003
3.00003
3.00003
3.00003
3.00003
3.00003
3.00002
3.00002
2.99999
2.99996
2.99983
2.99963
2.99892
2.99784
2.99399
3.00003
3.00003
3.00003
3.00003
3.00003
3.00003
3.00003
3.00003
3.00003
3.00003
3.00003
3.00003
3.00003
3.00003
3.00003
3.00003
3.00003
3.00002
3.00001
2.99996
2.9999
2.99965
2.99929
2.99789
2.9958
3.00003
3.00003
3.00003
3.00003
3.00003
3.00003
3.00003
3.00003
3.00003
3.00003
3.00003
3.00003
3.00003
3.00003
3.00003
3.00003
3.00003
3.00002
3.00001
2.99997
2.99992
2.9997
2.99939
2.99819
2.99622
3.00003
3.00003
3.00003
3.00003
3.00003
3.00003
3.00003
3.00003
3.00003
3.00003
3.00003
3.00003
3.00003
3.00003
3.00003
3.00003
3.00003
3.00002
3.00001
2.99999
2.9999
2.99978
2.99931
2.99855
2.99598
3.00003
3.00003
3.00003
3.00003
3.00003
3.00003
3.00003
3.00003
3.00003
3.00003
3.00003
3.00003
3.00003
3.00003
3.00003
3.00003
3.00003
3.00002
3.00001
2.99999
2.9999
2.99978
2.99927
2.99854
2.99574
3
2.99999
2.99994
2.99988
2.99963
2.99927
2.99786
2.99571
2.98802
2.97413
2.93197
2.83156
2.60867
2.0293
1.17017
0.622372
0.513086
0.52575
0.537322
0.53622
0.538214
0.552822
0.591837
0.676568
0.856271
3
2.99999
2.99995
2.9999
2.99968
2.99937
2.99812
2.99633
2.98949
2.97809
2.94113
2.85731
2.66278
2.14979
1.33832
0.714589
0.536795
0.55123
0.568808
0.576225
0.586919
0.614273
0.671221
0.776476
0.96651
3
2.99999
2.99996
2.99991
2.99972
2.99945
2.99836
2.99683
2.99069
2.98147
2.94855
2.88404
2.71513
2.29629
1.54074
0.823939
0.574255
0.586491
0.604184
0.617385
0.634384
0.669835
0.735389
0.840038
1.00384
3
3
2.99997
2.99993
2.99977
2.99955
2.99865
2.99738
2.99233
2.9848
2.95739
2.90812
2.76484
2.44703
1.7673
0.946614
0.631997
0.634299
0.647891
0.66407
0.683759
0.721624
0.785652