/*--------------------------------*- C++ -*----------------------------------*\
| =========                 |                                                 |
| \\      /  F ield         | OpenFOAM: The Open Source CFD Toolbox           |
|  \\    /   O peration     | Version:  4.1                                   |
|   \\  /    A nd           | Web:      www.OpenFOAM.org                      |
|    \\/     M anipulation  |                                                 |
\*---------------------------------------------------------------------------*/
FoamFile
{
    version     2.0;
    format      ascii;
    class       volScalarField;
    location    "0.9";
    object      Ma;
}
// * * * * * * * * * * * * * * * * * * * * * * * * * * * * * * * * * * * * * //

dimensions      [0 0 0 0 0 0 0];

internalField   nonuniform List<scalar> 
52500
(
10.8765
1.47355
0.46669
0.379066
0.420993
0.468826
0.479831
0.472286
0.466951
0.466773
0.468316
0.465156
0.46448
0.480262
0.486671
0.48139
0.469387
0.445189
0.414276
0.376601
0.329506
0.265175
0.17908
0.077646
0.0292455
11.0805
1.48649
0.474777
0.379929
0.420009
0.467982
0.47938
0.472102
0.466852
0.466775
0.468525
0.465564
0.465182
0.481389
0.488203
0.483455
0.472158
0.448585
0.417843
0.380321
0.333402
0.269429
0.184335
0.0879393
0.0509275
10.6429
1.50632
0.485883
0.378639
0.418465
0.467862
0.480436
0.474057
0.469426
0.470019
0.472472
0.469977
0.469533
0.485716
0.493045
0.488736
0.478264
0.455731
0.425351
0.38847
0.34249
0.280197
0.19851
0.112654
0.0865824
9.80494
1.53686
0.502308
0.374359
0.416293
0.468405
0.482437
0.477111
0.47334
0.474892
0.47825
0.476488
0.47581
0.491527
0.499746
0.496205
0.486913
0.465953
0.436285
0.400483
0.355997
0.296337
0.219346
0.143991
0.124182
9.26784
1.58692
0.529993
0.368936
0.415131
0.471342
0.486437
0.481792
0.478877
0.481572
0.485919
0.485091
0.484087
0.498668
0.508304
0.505804
0.497865
0.479026
0.45036
0.415961
0.373583
0.317653
0.246652
0.181037
0.165506
8.35859
1.65028
0.564116
0.359736
0.414453
0.476324
0.492591
0.488324
0.486251
0.490101
0.495382
0.495672
0.493979
0.506758
0.518516
0.51735
0.510774
0.4946
0.46753
0.435004
0.395568
0.344557
0.280872
0.224586
0.213068
7.52146
1.74209
0.609085
0.348863
0.415467
0.484426
0.501713
0.497213
0.49554
0.500227
0.506305
0.507924
0.505456
0.515941
0.529997
0.530593
0.525578
0.51267
0.487778
0.457726
0.421968
0.377286
0.322552
0.276089
0.270141
6.80752
1.87418
0.666812
0.340503
0.420268
0.497347
0.514807
0.508827
0.506737
0.511763
0.518409
0.521343
0.518115
0.526069
0.542514
0.545271
0.542308
0.532893
0.510834
0.48396
0.453147
0.41634
0.372816
0.337935
0.342968
6.09832
2.03849
0.732983
0.344142
0.432937
0.517023
0.53261
0.523124
0.519578
0.524428
0.531492
0.535627
0.531726
0.537037
0.555735
0.56113
0.560841
0.55492
0.536557
0.513546
0.489502
0.461896
0.432474
0.413397
0.44083
5.47911
2.23319
0.814079
0.370563
0.456553
0.541617
0.552491
0.538395
0.533176
0.537713
0.545182
0.550284
0.546027
0.548961
0.569249
0.577986
0.580497
0.57787
0.564585
0.54676
0.530184
0.513307
0.504282
0.516094
0.606996
10.8828
1.47368
0.466753
0.379058
0.420964
0.468782
0.479779
0.472223
0.466863
0.466658
0.468178
0.464994
0.464333
0.480129
0.486546
0.481299
0.469334
0.445167
0.414275
0.376597
0.329486
0.265137
0.178974
0.0772901
0.0283396
11.0768
1.48652
0.474755
0.379891
0.419982
0.467972
0.479388
0.472129
0.466903
0.466858
0.468636
0.465719
0.465298
0.481472
0.488347
0.483597
0.472274
0.448687
0.417906
0.38035
0.333398
0.269399
0.184235
0.0876283
0.0504202
10.6423
1.50639
0.485888
0.378605
0.418431
0.467843
0.480436
0.474076
0.46947
0.470087
0.472549
0.470085
0.469588
0.485719
0.493102
0.488798
0.478318
0.455787
0.425379
0.388477
0.342476
0.280163
0.198417
0.112416
0.086293
9.81044
1.53703
0.50237
0.374348
0.416262
0.468372
0.482415
0.477102
0.473339
0.474896
0.478248
0.476487
0.475755
0.49142
0.499677
0.496143
0.48684
0.465888
0.436244
0.400449
0.355962
0.296293
0.219257
0.143807
0.123987
9.26782
1.58701
0.530015
0.368909
0.415092
0.471298
0.486397
0.481752
0.478835
0.481524
0.485862
0.485002
0.483985
0.49859
0.508182
0.505665
0.497716
0.47886
0.450227
0.415865
0.373511
0.317591
0.246566
0.180892
0.16536
8.36017
1.65042
0.564158
0.359714
0.414414
0.476281
0.492546
0.488275
0.486187
0.490016
0.495285
0.495518
0.493813
0.50665
0.518359
0.517157
0.510578
0.494392
0.46735
0.43487
0.395467
0.344477
0.280785
0.224466
0.212951
7.5214
1.7422
0.609115
0.348835
0.415426
0.484383
0.501668
0.497162
0.495469
0.500133
0.506194
0.507745
0.505277
0.515857
0.529836
0.530365
0.525329
0.512392
0.487554
0.457575
0.421856
0.377197
0.322466
0.275985
0.270043
6.8078
1.87432
0.666854
0.34048
0.42023
0.497309
0.514765
0.508777
0.50667
0.511676
0.518302
0.521164
0.517953
0.526054
0.542394
0.54504
0.542036
0.532581
0.510578
0.483794
0.453027
0.416249
0.372737
0.337844
0.342884
6.09843
2.03865
0.73303
0.344129
0.432907
0.516993
0.532575
0.523078
0.519517
0.524351
0.531396
0.535471
0.531587
0.53705
0.555664
0.56093
0.560591
0.554635
0.536289
0.513371
0.489379
0.46181
0.432406
0.413315
0.440755
5.47884
2.23336
0.814122
0.37056
0.456533
0.541596
0.552465
0.538354
0.533125
0.53765
0.545104
0.550166
0.545912
0.548981
0.569229
0.577834
0.580292
0.577628
0.564338
0.546596
0.530073
0.513228
0.504216
0.516022
0.606937
10.8783
1.47368
0.466747
0.37904
0.420948
0.468778
0.479782
0.472232
0.466879
0.46667
0.468184
0.464982
0.464323
0.480111
0.486467
0.481187
0.469199
0.445029
0.41417
0.376517
0.329433
0.26509
0.178924
0.0772709
0.0283403
11.0803
1.48661
0.474817
0.379894
0.419965
0.467943
0.479347
0.472071
0.466819
0.466732
0.468472
0.465497
0.46512
0.481323
0.488106
0.483353
0.472055
0.448496
0.417781
0.380264
0.333345
0.269351
0.184185
0.0876085
0.0504147
10.6422
1.50645
0.485925
0.378599
0.41842
0.467824
0.480405
0.47403
0.469403
0.469995
0.472443
0.469945
0.4695
0.48567
0.492987
0.488675
0.478201
0.455676
0.425305
0.388422
0.342437
0.280124
0.198372
0.112397
0.086282
9.80666
1.53704
0.502379
0.374325
0.416251
0.468369
0.482406
0.477084
0.473315
0.47487
0.478224
0.476463
0.475766
0.491455
0.499686
0.496151
0.486855
0.465905
0.436256
0.400452
0.355956
0.296272
0.219225
0.143791
0.123972
9.26749
1.58709
0.530056
0.368892
0.415088
0.471307
0.486406
0.481761
0.478849
0.481551
0.485896
0.485068
0.484064
0.498642
0.508266
0.505766
0.497824
0.478984
0.450327
0.415927
0.373543
0.317593
0.246546
0.180878
0.165345
8.35893
1.6505
0.564197
0.359692
0.414412
0.476293
0.492562
0.488295
0.486222
0.490073
0.495352
0.495649
0.493938
0.50668
0.518465
0.51732
0.510748
0.494584
0.4675
0.434967
0.395524
0.344499
0.280779
0.224457
0.212939
7.52108
1.74233
0.609174
0.348818
0.415427
0.484399
0.501689
0.497187
0.495509
0.500194
0.506271
0.5079
0.505411
0.515843
0.529932
0.530557
0.525545
0.512649
0.487751
0.457692
0.421925
0.37723
0.32247
0.275982
0.270036
6.80729
1.87449
0.66692
0.340464
0.420233
0.497327
0.514788
0.508803
0.506707
0.511729
0.518372
0.521307
0.518071
0.526009
0.542462
0.54523
0.542263
0.532845
0.510792
0.483922
0.453104
0.416288
0.372747
0.337847
0.342882
6.09806
2.03885
0.733106
0.344126
0.432915
0.517014
0.532599
0.523104
0.519548
0.524393
0.53145
0.535578
0.531674
0.537
0.555701
0.561088
0.560792
0.554866
0.5365
0.5135
0.489458
0.461849
0.432417
0.413324
0.44076
5.4786
2.23362
0.814219
0.370566
0.456545
0.541613
0.552485
0.538375
0.533147
0.537678
0.545137
0.550229
0.545967
0.54894
0.569239
0.577949
0.58045
0.577816
0.564521
0.546708
0.530141
0.513264
0.504231
0.516037
0.606945
10.8787
1.47374
0.466787
0.379047
0.420943
0.46877
0.479774
0.472222
0.466865
0.466652
0.46816
0.464952
0.464292
0.48008
0.486438
0.481168
0.469188
0.445027
0.414178
0.37653
0.329448
0.265106
0.178934
0.0772688
0.0283364
11.0801
1.48667
0.474852
0.379898
0.41996
0.467937
0.479342
0.472066
0.466812
0.466724
0.468462
0.465484
0.465103
0.481304
0.488094
0.483348
0.472054
0.4485
0.417792
0.380278
0.333359
0.269366
0.184194
0.0876052
0.0504103
10.6424
1.50652
0.485963
0.378601
0.418416
0.467818
0.4804
0.474025
0.469398
0.469991
0.472437
0.469939
0.469492
0.48566
0.492979
0.488673
0.478202
0.455683
0.425321
0.388439
0.342454
0.280138
0.19838
0.112392
0.0862764
9.80667
1.53711
0.502418
0.374324
0.416247
0.468363
0.4824
0.477078
0.473309
0.474863
0.478213
0.476454
0.475747
0.491422
0.499664
0.496136
0.486842
0.465901
0.436255
0.400456
0.355964
0.296281
0.219227
0.143783
0.123964
9.26742
1.58717
0.530095
0.368889
0.415085
0.471302
0.4864
0.481754
0.478841
0.481538
0.485879
0.485045
0.484026
0.498592
0.508227
0.505735
0.497796
0.478958
0.4503
0.41591
0.373536
0.317592
0.246544
0.180867
0.165335
8.35879
1.65058
0.564237
0.359688
0.41441
0.476289
0.492557
0.488287
0.48621
0.490055
0.495328
0.495604
0.493887
0.506651
0.518419
0.517264
0.510697
0.494537
0.467463
0.434943
0.395509
0.344491
0.280771
0.224444
0.212927
7.52086
1.74242
0.609214
0.348813
0.415426
0.484398
0.501685
0.49718
0.495496
0.500172
0.506241
0.507838
0.505353
0.515844
0.529892
0.530483
0.525468
0.512562
0.487692
0.457665
0.42191
0.37722
0.32246
0.275968
0.270023
6.80705
1.87459
0.666961
0.340461
0.420235
0.49733
0.514788
0.508798
0.506695
0.511708
0.518341
0.521245
0.518018
0.526025
0.542432
0.545153
0.542181
0.532754
0.510725
0.48389
0.453087
0.416279
0.372739
0.337833
0.342869
6.09781
2.03896
0.733148
0.344131
0.432922
0.517022
0.532604
0.523102
0.51954
0.524376
0.531425
0.53553
0.531633
0.537012
0.555679
0.561026
0.560727
0.554796
0.536441
0.513469
0.489442
0.461843
0.432412
0.413312
0.440747
5.47831
2.23375
0.814268
0.370574
0.456555
0.541622
0.552491
0.538376
0.533143
0.537667
0.545121
0.5502
0.54594
0.54894
0.569218
0.577907
0.580408
0.577773
0.564488
0.546694
0.530135
0.513263
0.504228
0.516026
0.606933
10.8758
1.47381
0.466834
0.379036
0.420914
0.468749
0.479763
0.472215
0.466862
0.466655
0.468172
0.46497
0.464307
0.480094
0.486454
0.481182
0.469202
0.445041
0.414187
0.376537
0.329452
0.265102
0.178933
0.077279
0.0283346
11.0775
1.48675
0.474905
0.379887
0.419935
0.467919
0.47933
0.472056
0.466806
0.466725
0.46847
0.465495
0.465113
0.481313
0.488103
0.483356
0.472061
0.448508
0.417797
0.380282
0.333362
0.269363
0.184194
0.0876158
0.0504088
10.6404
1.50662
0.486017
0.378582
0.418396
0.467804
0.480388
0.474016
0.469392
0.469991
0.472444
0.469948
0.469499
0.485667
0.492985
0.488678
0.478208
0.455691
0.425326
0.388443
0.342456
0.280135
0.198379
0.112399
0.0862744
9.80336
1.53719
0.50246
0.374292
0.416227
0.468352
0.48239
0.477069
0.473306
0.474867
0.478223
0.476464
0.475764
0.491447
0.499675
0.496142
0.486848
0.465906
0.436257
0.400457
0.355963
0.296276
0.219224
0.143786
0.123962
9.26576
1.58728
0.530151
0.368855
0.41507
0.4713
0.486395
0.48175
0.478841
0.481543
0.485889
0.48506
0.484026
0.498569
0.508223
0.505736
0.497799
0.478968
0.450305
0.415912
0.373535
0.317587
0.246538
0.180868
0.165333
8.35661
1.65069
0.564287
0.359645
0.414395
0.47629
0.492556
0.488286
0.486214
0.490065
0.495344
0.495621
0.493901
0.506661
0.518424
0.517267
0.5107
0.494543
0.467468
0.434944
0.395507
0.344485
0.280764
0.224444
0.212926
7.51978
1.74258
0.609281
0.34877
0.415416
0.484402
0.50169
0.497183
0.495505
0.500187
0.506258
0.507849
0.505368
0.515883
0.529912
0.530489
0.525473
0.512564
0.487692
0.457663
0.421906
0.377213
0.322452
0.275967
0.270023
6.80599
1.87479
0.667032
0.340418
0.420228
0.497341
0.514799
0.508806
0.506707
0.511724
0.51836
0.521261
0.51803
0.526044
0.542449
0.545161
0.542189
0.532761
0.510728
0.483889
0.453084
0.416273
0.37273
0.337831
0.342868
6.09707
2.0392
0.73323
0.344106
0.432924
0.517037
0.532618
0.523113
0.519553
0.524393
0.531447
0.535555
0.531653
0.53702
0.555688
0.561035
0.560738
0.554807
0.53645
0.513473
0.48944
0.461839
0.432405
0.413309
0.440746
5.47769
2.23404
0.814375
0.370554
0.456557
0.541632
0.552499
0.538386
0.533154
0.537682
0.545145
0.550231
0.545971
0.54894
0.56921
0.577915
0.580422
0.577787
0.564504
0.546702
0.530136
0.51326
0.504223
0.516025
0.606932
10.8767
1.47381
0.466837
0.379042
0.420921
0.468753
0.479765
0.472216
0.466859
0.466648
0.46816
0.464953
0.464293
0.480082
0.486437
0.481165
0.469185
0.445024
0.414175
0.376528
0.329447
0.265099
0.178932
0.0772774
0.0283373
11.0782
1.48675
0.474904
0.379892
0.419941
0.467923
0.479333
0.472059
0.466808
0.466722
0.468464
0.465487
0.465106
0.481307
0.488095
0.483347
0.472051
0.448497
0.417789
0.380276
0.333358
0.269359
0.184191
0.0876106
0.0504085
10.6408
1.50661
0.486015
0.378589
0.418401
0.467808
0.480392
0.474019
0.469394
0.46999
0.47244
0.469942
0.469494
0.485663
0.492979
0.488672
0.478201
0.455682
0.425318
0.388437
0.342451
0.280131
0.198376
0.112393
0.0862719
9.8044
1.53719
0.502462
0.374302
0.416233
0.468356
0.482393
0.477072
0.473307
0.474866
0.478219
0.476458
0.475758
0.491442
0.49967
0.496137
0.486842
0.465897
0.436251
0.400452
0.35596
0.296274
0.219221
0.14378
0.123957
9.26616
1.58727
0.530148
0.368865
0.415075
0.471301
0.486397
0.481752
0.478841
0.481541
0.485885
0.485054
0.484021
0.498564
0.508218
0.505731
0.497794
0.478961
0.450299
0.415908
0.373532
0.317586
0.246537
0.180862
0.165327
8.35725
1.65069
0.564286
0.359657
0.4144
0.47629
0.492557
0.488287
0.486213
0.490062
0.495339
0.495614
0.493895
0.506657
0.518418
0.517261
0.510694
0.494536
0.467462
0.43494
0.395505
0.344484
0.280763
0.224438
0.212919
7.52007
1.74256
0.609273
0.348782
0.415419
0.484402
0.50169
0.497183
0.495503
0.500183
0.506253
0.507841
0.505362
0.515879
0.529907
0.530483
0.525467
0.512558
0.487687
0.45766
0.421904
0.377213
0.322452
0.275962
0.270016
6.8063
1.87477
0.667023
0.34043
0.420231
0.497339
0.514798
0.508806
0.506704
0.51172
0.518355
0.521253
0.518023
0.526041
0.542443
0.545154
0.542182
0.532755
0.510722
0.483886
0.453082
0.416273
0.37273
0.337826
0.342862
6.09729
2.03916
0.733218
0.344114
0.432924
0.517035
0.532616
0.523112
0.51955
0.524389
0.531441
0.535548
0.531647
0.537017
0.555683
0.561028
0.560731
0.554801
0.536444
0.513469
0.489438
0.461838
0.432404
0.413305
0.440741
5.47788
2.23399
0.814355
0.37056
0.456557
0.541631
0.552498
0.538385
0.533152
0.537679
0.54514
0.550225
0.545965
0.548937
0.569207
0.577909
0.580416
0.577781
0.564499
0.546697
0.530133
0.513259
0.504222
0.516021
0.606929
10.8787
1.47374
0.466787
0.379047
0.420943
0.46877
0.479774
0.472222
0.466865
0.466652
0.46816
0.464952
0.464292
0.48008
0.486438
0.481168
0.469188
0.445027
0.414178
0.37653
0.329448
0.265106
0.178934
0.0772689
0.0283364
11.0801
1.48667
0.474852
0.379898
0.41996
0.467937
0.479342
0.472066
0.466812
0.466724
0.468462
0.465484
0.465103
0.481304
0.488094
0.483348
0.472054
0.4485
0.417792
0.380278
0.33336
0.269366
0.184194
0.0876052
0.0504103
10.6424
1.50652
0.485963
0.378601
0.418416
0.467818
0.4804
0.474025
0.469398
0.46999
0.472437
0.469939
0.469491
0.48566
0.492979
0.488673
0.478202
0.455683
0.425321
0.388439
0.342454
0.280138
0.19838
0.112392
0.0862764
9.80668
1.53711
0.502418
0.374325
0.416247
0.468363
0.4824
0.477078
0.473309
0.474863
0.478213
0.476453
0.475746
0.491422
0.499664
0.496135
0.486842
0.465901
0.436255
0.400456
0.355964
0.296281
0.219227
0.143783
0.123964
9.26743
1.58717
0.530095
0.368889
0.415085
0.471302
0.4864
0.481754
0.478841
0.481538
0.485879
0.485045
0.484026
0.498592
0.508227
0.505735
0.497796
0.478958
0.4503
0.41591
0.373536
0.317592
0.246544
0.180867
0.165335
8.3588
1.65058
0.564237
0.359688
0.41441
0.476289
0.492557
0.488287
0.48621
0.490055
0.495328
0.495604
0.493887
0.506651
0.518419
0.517264
0.510697
0.494537
0.467463
0.434943
0.395509
0.344491
0.280771
0.224444
0.212927
7.52086
1.74242
0.609214
0.348813
0.415426
0.484398
0.501685
0.49718
0.495496
0.500172
0.506241
0.507838
0.505353
0.515844
0.529892
0.530482
0.525468
0.512561
0.487692
0.457665
0.42191
0.37722
0.322461
0.275968
0.270023
6.80705
1.87459
0.666961
0.340462
0.420235
0.49733
0.514788
0.508798
0.506695
0.511708
0.518341
0.521245
0.518018
0.526025
0.542432
0.545153
0.542181
0.532754
0.510725
0.48389
0.453087
0.416279
0.372739
0.337833
0.342869
6.09782
2.03896
0.733148
0.344131
0.432923
0.517022
0.532604
0.523102
0.51954
0.524376
0.531425
0.53553
0.531632
0.537012
0.555679
0.561025
0.560727
0.554796
0.53644
0.513469
0.489442
0.461843
0.432412
0.413312
0.440747
5.47831
2.23375
0.814268
0.370574
0.456555
0.541622
0.552491
0.538376
0.533143
0.537667
0.545121
0.5502
0.54594
0.548939
0.569218
0.577907
0.580408
0.577773
0.564488
0.546694
0.530135
0.513263
0.504228
0.516026
0.606933
10.8783
1.47368
0.466747
0.37904
0.420948
0.468778
0.479782
0.472232
0.466879
0.46667
0.468184
0.464982
0.464323
0.480111
0.486467
0.481187
0.469199
0.445029
0.41417
0.376517
0.329433
0.26509
0.178924
0.0772709
0.0283403
11.0803
1.48661
0.474817
0.379894
0.419965
0.467943
0.479347
0.472071
0.466819
0.466732
0.468472
0.465497
0.46512
0.481323
0.488106
0.483353
0.472055
0.448496
0.417781
0.380264
0.333345
0.269351
0.184185
0.0876085
0.0504147
10.6422
1.50645
0.485925
0.378599
0.41842
0.467824
0.480405
0.47403
0.469403
0.469995
0.472443
0.469945
0.4695
0.48567
0.492987
0.488675
0.478201
0.455676
0.425305
0.388422
0.342437
0.280124
0.198372
0.112397
0.086282
9.80667
1.53704
0.502379
0.374325
0.416251
0.468369
0.482406
0.477084
0.473315
0.47487
0.478224
0.476463
0.475766
0.491455
0.499686
0.496151
0.486855
0.465905
0.436256
0.400452
0.355956
0.296272
0.219225
0.143791
0.123972
9.26749
1.58709
0.530056
0.368892
0.415088
0.471307
0.486406
0.481761
0.478849
0.481551
0.485896
0.485068
0.484064
0.498642
0.508266
0.505766
0.497824
0.478984
0.450327
0.415927
0.373543
0.317593
0.246546
0.180878
0.165345
8.35893
1.6505
0.564197
0.359692
0.414412
0.476293
0.492562
0.488295
0.486222
0.490073
0.495352
0.495649
0.493938
0.50668
0.518465
0.51732
0.510748
0.494584
0.4675
0.434967
0.395524
0.344499
0.280779
0.224457
0.212939
7.52108
1.74233
0.609174
0.348818
0.415427
0.484399
0.501689
0.497187
0.495509
0.500194
0.506271
0.5079
0.505411
0.515843
0.529932
0.530557
0.525545
0.512649
0.487751
0.457692
0.421925
0.37723
0.32247
0.275982
0.270036
6.80729
1.87449
0.66692
0.340465
0.420233
0.497327
0.514788
0.508803
0.506707
0.511729
0.518372
0.521307
0.518071
0.526009
0.542462
0.54523
0.542263
0.532845
0.510792
0.483922
0.453104
0.416288
0.372747
0.337847
0.342882
6.09806
2.03885
0.733106
0.344126
0.432915
0.517014
0.532599
0.523104
0.519548
0.524393
0.53145
0.535578
0.531674
0.537
0.555701
0.561088
0.560792
0.554866
0.5365
0.5135
0.489458
0.461849
0.432417
0.413324
0.44076
5.4786
2.23362
0.814219
0.370566
0.456545
0.541613
0.552485
0.538375
0.533147
0.537678
0.545137
0.550229
0.545967
0.54894
0.569239
0.577949
0.58045
0.577816
0.564521
0.546708
0.530141
0.513264
0.504232
0.516037
0.606945
10.8828
1.47368
0.466754
0.379059
0.420964
0.468782
0.479779
0.472223
0.466863
0.466658
0.468178
0.464994
0.464333
0.480129
0.486546
0.481299
0.469334
0.445167
0.414275
0.376597
0.329486
0.265137
0.178974
0.07729
0.0283396
11.0768
1.48652
0.474756
0.379891
0.419982
0.467972
0.479388
0.47213
0.466903
0.466858
0.468636
0.465719
0.465298
0.481472
0.488347
0.483597
0.472274
0.448687
0.417906
0.380349
0.333398
0.269399
0.184235
0.0876282
0.0504202
10.6423
1.50639
0.485888
0.378605
0.418431
0.467843
0.480436
0.474076
0.46947
0.470087
0.472549
0.470085
0.469588
0.485719
0.493102
0.488798
0.478318
0.455787
0.425379
0.388477
0.342476
0.280163
0.198417
0.112415
0.0862931
9.81044
1.53703
0.50237
0.374349
0.416262
0.468372
0.482415
0.477102
0.473339
0.474896
0.478248
0.476487
0.475756
0.49142
0.499677
0.496143
0.48684
0.465888
0.436244
0.400448
0.355961
0.296293
0.219257
0.143807
0.123987
9.26782
1.58701
0.530016
0.368909
0.415092
0.471298
0.486397
0.481752
0.478835
0.481524
0.485862
0.485002
0.483985
0.49859
0.508182
0.505665
0.497716
0.47886
0.450227
0.415864
0.373511
0.317591
0.246566
0.180892
0.16536
8.36017
1.65043
0.564158
0.359714
0.414414
0.476281
0.492546
0.488275
0.486188
0.490017
0.495285
0.495518
0.493813
0.50665
0.518359
0.517157
0.510578
0.494392
0.46735
0.434869
0.395467
0.344476
0.280785
0.224466
0.212951
7.5214
1.7422
0.609115
0.348835
0.415426
0.484383
0.501668
0.497162
0.49547
0.500133
0.506194
0.507746
0.505277
0.515857
0.529837
0.530365
0.52533
0.512393
0.487554
0.457575
0.421856
0.377197
0.322466
0.275985
0.270043
6.8078
1.87432
0.666855
0.340481
0.42023
0.497309
0.514765
0.508777
0.50667
0.511676
0.518302
0.521164
0.517954
0.526054
0.542395
0.545041
0.542037
0.532582
0.510578
0.483794
0.453027
0.416249
0.372737
0.337844
0.342884
6.09842
2.03865
0.73303
0.344129
0.432907
0.516993
0.532576
0.523079
0.519517
0.524351
0.531396
0.535471
0.531587
0.537051
0.555665
0.56093
0.560591
0.554635
0.536289
0.513371
0.489379
0.46181
0.432406
0.413315
0.440755
5.47884
2.23337
0.814123
0.37056
0.456534
0.541597
0.552466
0.538354
0.533125
0.53765
0.545104
0.550167
0.545913
0.548981
0.56923
0.577834
0.580292
0.577628
0.564338
0.546596
0.530073
0.513228
0.504216
0.516022
0.606937
10.8799
1.47353
0.466681
0.379083
0.421014
0.46883
0.479822
0.472267
0.466907
0.466689
0.468197
0.464985
0.464337
0.48014
0.486498
0.481231
0.46926
0.445085
0.414218
0.376567
0.329479
0.265149
0.179048
0.0775995
0.0292299
11.0838
1.48647
0.474761
0.379946
0.420028
0.467992
0.479386
0.472108
0.466859
0.466777
0.468526
0.465567
0.465208
0.48143
0.488241
0.483503
0.472208
0.448628
0.41788
0.380348
0.333414
0.26943
0.184326
0.0879153
0.0509171
10.6437
1.50626
0.485851
0.378656
0.418481
0.467872
0.48045
0.47408
0.469469
0.470087
0.472559
0.470114
0.469686
0.48585
0.493206
0.488904
0.478421
0.455873
0.425444
0.388531
0.342522
0.280212
0.198512
0.112642
0.0865757
9.80758
1.53682
0.502289
0.374387
0.416308
0.468414
0.482453
0.477137
0.473385
0.47497
0.47834
0.476643
0.475914
0.491525
0.499868
0.496368
0.487061
0.466085
0.43636
0.400532
0.356026
0.296354
0.219352
0.143987
0.124181
9.26987
1.58687
0.529968
0.368968
0.415141
0.471343
0.486444
0.481807
0.478906
0.481625
0.485983
0.485199
0.484144
0.498633
0.508376
0.505913
0.497968
0.479123
0.450392
0.41597
0.373585
0.317657
0.246658
0.18104
0.165511
8.36041
1.65022
0.564087
0.359773
0.414463
0.476321
0.49259
0.488325
0.486254
0.490113
0.495403
0.495691
0.493978
0.506761
0.518533
0.517364
0.51078
0.494597
0.467513
0.43499
0.395556
0.344552
0.280876
0.224591
0.213077
7.52243
1.74198
0.609041
0.3489
0.415474
0.484419
0.501706
0.497204
0.495523
0.500206
0.506282
0.507859
0.505404
0.516006
0.53
0.530532
0.525498
0.512562
0.487714
0.457705
0.421956
0.37728
0.322556
0.276095
0.270152
6.80817
1.87403
0.666757
0.340538
0.420273
0.497336
0.514795
0.508812
0.506712
0.511727
0.518364
0.521247
0.518048
0.526163
0.542522
0.545178
0.542189
0.532741
0.510731
0.483923
0.453132
0.416338
0.372826
0.337945
0.342979
6.09885
2.0383
0.732917
0.344163
0.432937
0.517008
0.532595
0.523108
0.519552
0.52439
0.531444
0.535541
0.531664
0.537099
0.555736
0.561043
0.560737
0.554794
0.536448
0.513496
0.489482
0.461901
0.432491
0.413407
0.440839
5.47947
2.23296
0.813992
0.370578
0.456552
0.541609
0.552481
0.538381
0.533155
0.537682
0.545144
0.550226
0.545986
0.548988
0.569235
0.577927
0.580429
0.577788
0.564516
0.546724
0.530171
0.513314
0.504298
0.516103
0.607001
4.77857
2.38514
0.870899
0.371312
0.466102
0.551894
0.56345
0.550277
0.545745
0.550946
0.559077
0.564856
0.561024
0.561824
0.582043
0.595576
0.600754
0.601579
0.593764
0.581007
0.57321
0.571224
0.588241
0.641391
0.802307
4.32188
2.46452
0.920414
0.379726
0.471874
0.553771
0.567578
0.558987
0.557319
0.564052
0.572928
0.579189
0.576563
0.575835
0.594292
0.613127
0.621695
0.626573
0.625253
0.617542
0.617264
0.628492
0.663747
0.739076
0.901262
3.98265
2.5304
0.980991
0.415485
0.481271
0.548263
0.568471
0.567143
0.569314
0.577495
0.586847
0.59335
0.592527
0.590251
0.606016
0.62988
0.642515
0.651526
0.655061
0.65231
0.659021
0.678672
0.722902
0.800604
0.937401
3.5626
2.51378
1.06404
0.464846
0.488368
0.5348
0.568794
0.577088
0.582645
0.59151
0.600917
0.607522
0.608517
0.605003
0.617292
0.645228
0.663294
0.675931
0.683625
0.686432
0.696688
0.720499
0.766598
0.839095
0.949372
3.45621
2.52657
1.1611
0.528162
0.488095
0.528899
0.575407
0.59135
0.598422
0.606672
0.615422
0.621864
0.624036
0.620138
0.628839
0.659115
0.68281
0.698681
0.710104
0.718266
0.729389
0.754552
0.797905
0.865194
0.95871
3.34385
2.54028
1.28029
0.602941
0.489827
0.532278
0.588511
0.609845
0.616606
0.62317
0.630495
0.63609
0.638557
0.635871
0.641511
0.670469
0.700404
0.72022
0.735213
0.746991
0.758402
0.783397
0.823242
0.881872
0.964041
3.2138
2.56194
1.43454
0.688876
0.501482
0.548441
0.610555
0.631446
0.636229
0.640126
0.645391
0.649877
0.65237
0.652082
0.654963
0.679776
0.715147
0.740061
0.758208
0.772415
0.785137
0.806485
0.842862
0.893468
0.964471
3.0908
2.60898
1.64118
0.785587
0.532667
0.580006
0.635889
0.654736
0.657059
0.657873
0.660366
0.663192
0.665724
0.667527
0.669367
0.688929
0.727401
0.757262
0.77838
0.794799
0.810097
0.828074
0.860133
0.904098
0.962106
3.02578
2.67906
1.8673
0.895069
0.565361
0.605755
0.648743
0.670666
0.674746
0.673985
0.674085
0.675577
0.678755
0.682733
0.685201
0.699388
0.737479
0.77171
0.79649
0.81487
0.832151
0.847729
0.873973
0.912761
0.959235
2.9896
2.70407
2.02644
1.00835
0.604912
0.621471
0.647705
0.679716
0.690756
0.68926
0.686865
0.68781
0.691821
0.697762
0.70184
0.711331
0.743572
0.782687
0.811524
0.832639
0.850863
0.868584
0.887822
0.918962
0.957595
2.9444
2.71276
2.15206
1.18427
0.690449
0.627703
0.649133
0.688456
0.706506
0.704886
0.700945
0.701193
0.705864
0.713023
0.71868
0.724317
0.748307
0.790105
0.823482
0.847682
0.866687
0.885642
0.90062
0.923429
0.956607
2.88442
2.70792
2.26512
1.41974
0.800628
0.638573
0.66407
0.704059
0.723374
0.722046
0.716331
0.71554
0.720785
0.728871
0.735276
0.738525
0.754116
0.793916
0.831179
0.859346
0.880152
0.898906
0.916011
0.929936
0.956031
2.81089
2.70287
2.39753
1.71957
0.91455
0.670336
0.696077
0.72177
0.738281
0.738747
0.733764
0.73283
0.737585
0.744829
0.751105
0.753739
0.761334
0.793079
0.835326
0.868187
0.892141
0.911365
0.929655
0.944078
0.959638
2.78151
2.7434
2.5286
1.95484
1.03773
0.719061
0.724238
0.733267
0.751595
0.756035
0.753516
0.75318
0.75591
0.76096
0.766538
0.769108
0.771455
0.793613
0.836046
0.873757
0.901693
0.922148
0.9399
0.956296
0.966947
2.84733
2.83884
2.66217
2.15424
1.22658
0.809679
0.750724
0.749597
0.763157
0.775511
0.778046
0.774941
0.774932
0.777735
0.781626
0.784299
0.784608
0.796647
0.836375
0.876299
0.909003
0.93196
0.949113
0.965461
0.978077
2.92567
2.93254
2.7996
2.38031
1.55191
0.945237
0.778602
0.771721
0.784236
0.799747
0.802068
0.798616
0.795382
0.794945
0.7969
0.799544
0.799764
0.804096
0.83356
0.878097
0.913103
0.939791
0.958703
0.973246
0.987873
2.9777
3.01097
2.92179
2.62371
1.95361
1.07742
0.809362
0.805349
0.812194
0.820573
0.825979
0.823437
0.817662
0.813654
0.812945
0.814831
0.816086
0.816065
0.832565
0.878148
0.917034
0.946009
0.96684
0.981285
0.99343
3.01728
3.0752
3.01006
2.78133
2.20315
1.24385
0.880897
0.840029
0.834894
0.839148
0.848082
0.848212
0.840762
0.833836
0.831177
0.831716
0.83311
0.832306
0.837438
0.871568
0.918595
0.951218
0.973509
0.989258
0.99965
3.05202
3.13149
3.08632
2.92338
2.46849
1.59025
1.00549
0.872692
0.858731
0.863568
0.872862
0.871612
0.864361
0.856547
0.851328
0.850182
0.851134
0.850993
0.849371
0.866109
0.915074
0.954164
0.979608
0.99665
1.00797
3.07777
3.1751
3.14587
3.03806
2.73269
2.04647
1.16321
0.907526
0.891586
0.889523
0.893133
0.895734
0.889592
0.880257
0.873943
0.870722
0.870286
0.870051
0.867023
0.869777
0.902535
0.952203
0.984708
1.00382
1.01626
3.09823
3.20833
3.18847
3.11316
2.89552
2.34457
1.40848
0.997297
0.925161
0.915021
0.915487
0.9221
0.917619
0.907593
0.898076
0.893281
0.89133
0.890077
0.887389
0.883591
0.894756
0.940742
0.984473
1.00942
1.02327
3.11376
3.23465
3.2221
3.17394
3.03458
2.65974
1.87425
1.12984
0.95809
0.946946
0.943347
0.943177
0.945948
0.936317
0.927369
0.9184
0.913557
0.911116
0.908078
0.903009
0.90194
0.925824
0.973638
1.01015
1.02923
3.12495
3.2531
3.24482
3.21259
3.11962
2.86909
2.26115
1.34749
1.0238
0.977591
0.969764
0.967288
0.972478
0.970531
0.956223
0.946686
0.93899
0.933591
0.929747
0.924765
0.918596
0.923752
0.959647
1.00067
1.02998
3.13278
3.2667
3.26154
3.24086
3.1815
3.02091
2.5961
1.76181
1.13308
1.00938
1.00094
0.997443
0.994781
0.99775
0.992963
0.977424
0.96626
0.958913
0.952814
0.947122
0.940422
0.935101
0.949011
0.989091
1.0226
3.13808
3.27598
3.27258
3.25887
3.22055
3.11866
2.85179
2.21403
1.3433
1.07107
1.03087
1.02536
1.02087
1.02471
1.02439
1.01429
0.997823
0.985992
0.977733
0.970512
0.963916
0.955732
0.952617
0.975423
1.01391
3.14178
3.28221
3.27931
3.26996
3.24561
3.18281
3.01711
2.57994
1.73856
1.16683
1.06348
1.055
1.05229
1.04787
1.05035
1.0489
1.03638
1.01867
1.00511
0.99537
0.98769
0.979464
0.969254
0.971084
1.00275
3.14255
3.28395
3.2813
3.27558
3.26091
3.22272
3.12177
2.85714
2.2187
1.38063
1.127
1.08474
1.08137
1.07693
1.07753
1.0772
1.07348
1.05797
1.03872
1.02351
1.01246
1.00385
0.992955
0.983264
0.992212
3.13879
3.28268
3.28219
3.27876
3.26984
3.24707
3.188
3.03108
2.61442
1.79484
1.21844
1.12168
1.11058
1.10901
1.10295
1.10478
1.10376
1.09776
1.07857
1.05706
1.0402
1.02912
1.01864
1.00583
0.997327
3.13655
3.28156
3.28278
3.28094
3.27572
3.26214
3.22732
3.13558
2.89201
2.28286
1.45964
1.19011
1.14157
1.13849
1.13493
1.13083
1.13157
1.12993
1.12134
1.09761
1.07357
1.05683
1.04487
1.03192
1.01701
3.13528
3.28055
3.28348
3.28247
3.2795
3.27174
3.25193
3.20083
3.06471
2.70118
1.92991
1.29465
1.18566
1.16803
1.16684
1.16104
1.15986
1.1585
1.15541
1.14338
1.11475
1.08921
1.07269
1.05872
1.04293
3.13457
3.27999
3.28399
3.28347
3.28183
3.27744
3.26614
3.23719
3.16087
2.95537
2.41663
1.59105
1.25603
1.20254
1.19602
1.19402
1.18706
1.18656
1.18446
1.1795
1.16251
1.13115
1.10535
1.0872
1.07072
3.13425
3.27977
3.28438
3.28414
3.28325
3.28082
3.27456
3.25858
3.21758
3.10822
2.81755
2.12693
1.41904
1.25849
1.22691
1.22578
1.22041
1.21312
1.21266
1.21025
1.20196
1.1778
1.14604
1.12085
1.09996
3.13422
3.27973
3.28466
3.28455
3.28409
3.28282
3.27949
3.27094
3.24899
3.19141
3.03551
2.61234
1.81995
1.33288
1.26785
1.25428
1.25357
1.2465
1.24029
1.23812
1.23476
1.22239
1.19161
1.15799
1.12931
3.13431
3.27971
3.28486
3.28483
3.28463
3.28398
3.28222
3.27768
3.26603
3.23593