/*--------------------------------*- C++ -*----------------------------------*\
| =========                 |                                                 |
| \\      /  F ield         | OpenFOAM: The Open Source CFD Toolbox           |
|  \\    /   O peration     | Version:  4.1                                   |
|   \\  /    A nd           | Web:      www.OpenFOAM.org                      |
|    \\/     M anipulation  |                                                 |
\*---------------------------------------------------------------------------*/
FoamFile
{
    version     2.0;
    format      ascii;
    class       volScalarField;
    location    "0.9";
    object      p;
}
// * * * * * * * * * * * * * * * * * * * * * * * * * * * * * * * * * * * * * //

dimensions      [1 -1 -2 0 0 0 0];

internalField   nonuniform List<scalar> 
52500
(
0.0148724
0.15834
0.687203
0.71993
0.692341
0.648136
0.61358
0.583197
0.558913
0.538994
0.525518
0.518984
0.51635
0.516584
0.515233
0.510013
0.50155
0.486949
0.477506
0.477116
0.480393
0.492164
0.512461
0.538034
0.536846
0.0143606
0.157186
0.682409
0.722298
0.693671
0.648208
0.613438
0.583237
0.559198
0.539438
0.526067
0.5195
0.516762
0.516871
0.515307
0.509707
0.501506
0.486905
0.477597
0.477168
0.480448
0.492181
0.512784
0.538215
0.537136
0.0154609
0.155733
0.671177
0.726447
0.696036
0.648038
0.612879
0.582913
0.559209
0.539659
0.526449
0.519916
0.516606
0.516681
0.514735
0.508316
0.500656
0.486015
0.476866
0.476351
0.479552
0.491061
0.511818
0.537032
0.536135
0.0179477
0.153798
0.653759
0.731196
0.699306
0.648242
0.612309
0.582664
0.559385
0.540181
0.527232
0.520853
0.516279
0.516451
0.513879
0.506463
0.499356
0.48478
0.475738
0.475026
0.478061
0.489061
0.509762
0.534601
0.534111
0.0198518
0.150465
0.630603
0.739108
0.704263
0.649106
0.61196
0.582598
0.559747
0.540955
0.52832
0.522088
0.515844
0.515873
0.512645
0.504262
0.49734
0.483146
0.473942
0.472997
0.475808
0.486144
0.506187
0.530591
0.530864
0.0238098
0.146846
0.599714
0.750148
0.709961
0.650238
0.61166
0.582708
0.560361
0.542063
0.529744
0.523419
0.515671
0.515039
0.511116
0.501786
0.49471
0.481018
0.471397
0.469997
0.472521
0.48194
0.500669
0.524302
0.525791
0.0285083
0.141691
0.559197
0.766305
0.717052
0.65147
0.611361
0.583047
0.561312
0.543607
0.531562
0.524713
0.515455
0.513928
0.509317
0.499133
0.491515
0.478244
0.468085
0.465834
0.467988
0.476059
0.49271
0.514798
0.517955
0.0335596
0.134297
0.506233
0.789304
0.726654
0.652928
0.611088
0.583578
0.56264
0.545555
0.533634
0.525913
0.515391
0.512733
0.507006
0.49633
0.487609
0.474865
0.464078
0.460394
0.46208
0.468295
0.481381
0.500802
0.505643
0.0398583
0.12611
0.444042
0.819949
0.741038
0.655497
0.611163
0.584476
0.564398
0.547828
0.535794
0.526938
0.515574
0.511598
0.504048
0.493307
0.483013
0.47119
0.459331
0.453534
0.454759
0.458254
0.466313
0.480257
0.484515
0.0467057
0.117363
0.371698
0.849795
0.75984
0.661234
0.612744
0.586285
0.56662
0.550342
0.537928
0.52787
0.515987
0.510335
0.500792
0.489926
0.478225
0.467456
0.453833
0.4462
0.444091
0.445142
0.448596
0.451245
0.446945
0.0148563
0.15832
0.68715
0.7199
0.692315
0.648116
0.613566
0.583189
0.558907
0.538983
0.525495
0.518972
0.516351
0.516577
0.515223
0.510024
0.501556
0.486948
0.477491
0.477078
0.480355
0.492119
0.512398
0.538002
0.536848
0.0143695
0.157179
0.682353
0.722262
0.693644
0.648188
0.613427
0.58323
0.559191
0.539425
0.526047
0.519509
0.516721
0.516873
0.515323
0.509707
0.501519
0.486902
0.477579
0.477131
0.480409
0.492137
0.512722
0.538182
0.537136
0.0154623
0.155723
0.671122
0.726414
0.696011
0.648018
0.612868
0.582904
0.559199
0.539644
0.52643
0.519932
0.51656
0.51668
0.514749
0.508311
0.500665
0.486007
0.476847
0.476312
0.479513
0.491018
0.511757
0.536998
0.536135
0.0179292
0.153775
0.653703
0.73117
0.699285
0.648227
0.612299
0.582655
0.559373
0.540166
0.527211
0.520864
0.516256
0.516448
0.513896
0.506475
0.499359
0.484774
0.475723
0.474984
0.47802
0.489019
0.509702
0.534565
0.534109
0.0198516
0.150453
0.630543
0.739081
0.704244
0.649093
0.611951
0.582589
0.559738
0.540946
0.528302
0.522079
0.515845
0.515878
0.512641
0.504261
0.497339
0.48313
0.473926
0.472956
0.475767
0.486102
0.506129
0.530553
0.530859
0.0238016
0.146828
0.599652
0.750124
0.709946
0.65023
0.611652
0.582696
0.560354
0.542057
0.529729
0.523405
0.515686
0.515055
0.511102
0.501777
0.494708
0.480993
0.471379
0.469958
0.472481
0.481899
0.500612
0.524263
0.52578
0.0285083
0.141678
0.559133
0.766284
0.717042
0.651464
0.611354
0.583037
0.561305
0.543601
0.531551
0.524706
0.515467
0.51395
0.509303
0.499113
0.49152
0.478221
0.468069
0.465794
0.467949
0.476026
0.492657
0.514757
0.517939
0.033557
0.134284
0.506173
0.789285
0.726649
0.652925
0.611082
0.583569
0.562634
0.545546
0.533625
0.525917
0.515386
0.512751
0.507006
0.496306
0.487633
0.474834
0.46406
0.460359
0.462044
0.468259
0.481346
0.500759
0.505624
0.0398568
0.126099
0.443987
0.819931
0.741037
0.655494
0.611157
0.584468
0.564391
0.547818
0.535787
0.526944
0.515554
0.511606
0.504064
0.493287
0.483038
0.471145
0.459327
0.45351
0.454729
0.458226
0.466282
0.480217
0.484493
0.0467088
0.117355
0.371644
0.849779
0.75984
0.661232
0.612739
0.58628
0.566614
0.550332
0.53792
0.527872
0.515963
0.510359
0.500795
0.489911
0.478236
0.467424
0.453832
0.446189
0.444066
0.445119
0.448573
0.451211
0.446921
0.0148677
0.158323
0.68713
0.719912
0.692322
0.648119
0.613568
0.583188
0.558905
0.538992
0.525519
0.518968
0.516376
0.516584
0.515227
0.51003
0.501527
0.486933
0.477478
0.477082
0.480361
0.492132
0.512429
0.538026
0.536854
0.014361
0.157171
0.682331
0.722281
0.693654
0.64819
0.613426
0.583229
0.559191
0.539435
0.526067
0.519492
0.516774
0.516873
0.515308
0.509718
0.501487
0.486888
0.477569
0.477135
0.480417
0.492149
0.512753
0.538208
0.537143
0.0154627
0.155718
0.671096
0.726431
0.696022
0.648021
0.612867
0.582904
0.559202
0.539654
0.526448
0.519915
0.516609
0.516684
0.514739
0.508317
0.500641
0.485996
0.476838
0.476319
0.479522
0.49103
0.51179
0.537026
0.536142
0.0179417
0.153777
0.653674
0.731184
0.699295
0.648228
0.612297
0.582656
0.559378
0.540174
0.527227
0.52086
0.516274
0.516455
0.513894
0.506469
0.499347
0.484763
0.475716
0.474995
0.478032
0.489033
0.509737
0.534595
0.534118
0.0198529
0.150447
0.63051
0.739099
0.704254
0.649092
0.611949
0.58259
0.559741
0.540948
0.528315
0.522094
0.515839
0.515874
0.512651
0.504262
0.497333
0.483128
0.47392
0.472969
0.47578
0.486118
0.506164
0.530585
0.53087
0.0238078
0.146824
0.599612
0.750146
0.709957
0.650227
0.611649
0.582699
0.560355
0.542058
0.529738
0.523419
0.515666
0.515034
0.511132
0.501791
0.494704
0.481
0.471375
0.469973
0.472497
0.481916
0.500648
0.524296
0.525793
0.0285103
0.141669
0.559083
0.766309
0.717052
0.651461
0.61135
0.583038
0.561306
0.543602
0.531557
0.52471
0.515454
0.513923
0.50933
0.499139
0.491508
0.478232
0.468065
0.465812
0.467966
0.476038
0.49269
0.51479
0.517954
0.0335609
0.134273
0.506106
0.789315
0.726659
0.652922
0.611078
0.583569
0.562634
0.545548
0.533629
0.525912
0.515388
0.512733
0.507016
0.496331
0.487607
0.474854
0.464061
0.460374
0.46206
0.468276
0.481366
0.500792
0.505641
0.0398602
0.126086
0.443911
0.819966
0.741052
0.655493
0.611154
0.584467
0.564391
0.54782
0.535789
0.526939
0.515567
0.511598
0.504061
0.493306
0.483015
0.471175
0.459319
0.453518
0.454742
0.458239
0.4663
0.480248
0.484511
0.0467112
0.117339
0.371551
0.849804
0.759855
0.661234
0.612737
0.586278
0.566613
0.550333
0.537921
0.527871
0.515977
0.510345
0.5008
0.489924
0.478225
0.467442
0.453824
0.446188
0.444077
0.445129
0.448585
0.451237
0.44694
0.0148665
0.158317
0.687101
0.719913
0.692321
0.648118
0.613569
0.583192
0.558912
0.539001
0.525529
0.51898
0.516393
0.516599
0.51524
0.510045
0.501529
0.486929
0.477468
0.477067
0.480346
0.492117
0.51241
0.538014
0.536846
0.0143614
0.157165
0.6823
0.722283
0.693654
0.64819
0.613428
0.583233
0.559198
0.539444
0.526077
0.519507
0.516789
0.516888
0.515322
0.509731
0.501488
0.486884
0.477559
0.477119
0.480402
0.492134
0.512734
0.538196
0.537135
0.015462
0.155711
0.671063
0.726434
0.696024
0.648022
0.61287
0.582909
0.559209
0.539662
0.526458
0.519931
0.516622
0.516698
0.514753
0.508328
0.500641
0.485991
0.476829
0.476303
0.479507
0.491015
0.511771
0.537014
0.536135
0.0179416
0.15377
0.65364
0.731189
0.699299
0.64823
0.612301
0.582661
0.559384
0.540183
0.527238
0.520876
0.516285
0.516469
0.513913
0.506482
0.49935
0.484756
0.475705
0.474978
0.478016
0.489018
0.509718
0.534583
0.534111
0.019853
0.15044
0.630476
0.739105
0.704258
0.649095
0.611952
0.582595
0.559748
0.540957
0.528325
0.522106
0.515855
0.51589
0.512667
0.504272
0.497335
0.483118
0.473909
0.472953
0.475764
0.486103
0.506146
0.530573
0.530863
0.0238083
0.146817
0.599576
0.750155
0.709962
0.650231
0.611652
0.582704
0.560362
0.542067
0.529747
0.523431
0.515685
0.515054
0.511139
0.501794
0.494707
0.480988
0.471364
0.469957
0.47248
0.481899
0.50063
0.524284
0.525786
0.0285116
0.141662
0.559044
0.76632
0.717058
0.651465
0.611354
0.583042
0.561313
0.54361
0.531566
0.524725
0.515472
0.513948
0.509335
0.499136
0.491516
0.478221
0.468057
0.465795
0.46795
0.476026
0.492674
0.514778
0.517947
0.0335627
0.134266
0.506063
0.789328
0.726667
0.652926
0.611082
0.583573
0.56264
0.545556
0.533638
0.525928
0.5154
0.512753
0.507027
0.496329
0.487621
0.474839
0.464053
0.46036
0.462045
0.468262
0.481356
0.50078
0.505633
0.0398626
0.126079
0.443867
0.819983
0.741062
0.655498
0.611157
0.58447
0.564396
0.547826
0.535797
0.526952
0.515576
0.511614
0.504074
0.493307
0.483025
0.471158
0.459315
0.453507
0.454729
0.458228
0.466289
0.480236
0.484504
0.0467147
0.117333
0.371501
0.849817
0.759864
0.661239
0.61274
0.586281
0.566618
0.550339
0.537928
0.527881
0.515987
0.51036
0.500809
0.489927
0.47823
0.467435
0.453819
0.446179
0.444066
0.445119
0.448576
0.451227
0.446933
0.0148739
0.158315
0.687061
0.719938
0.692335
0.648124
0.61357
0.583191
0.558914
0.539006
0.525539
0.518992
0.516399
0.516605
0.515242
0.510033
0.501524
0.486925
0.477469
0.477075
0.480355
0.49213
0.512432
0.538027
0.536842
0.0143676
0.157161
0.682257
0.72231
0.693672
0.648195
0.613428
0.583232
0.559199
0.53945
0.526087
0.519518
0.516797
0.516894
0.515324
0.50972
0.501483
0.486881
0.47756
0.477127
0.48041
0.492146
0.512754
0.538208
0.537132
0.0154674
0.155706
0.671015
0.726462
0.696045
0.648028
0.612869
0.582908
0.559211
0.539668
0.526468
0.519942
0.51663
0.516704
0.514752
0.508319
0.500636
0.485988
0.476829
0.476311
0.479515
0.491026
0.51179
0.537026
0.536132
0.0179526
0.153768
0.653593
0.731218
0.69932
0.648237
0.6123
0.582661
0.559387
0.54019
0.527249
0.520886
0.516291
0.516472
0.513905
0.506471
0.499343
0.484753
0.475705
0.474986
0.478024
0.489028
0.509735
0.534593
0.534109
0.0198594
0.150435
0.630426
0.739137
0.704278
0.649101
0.611951
0.582595
0.559751
0.540965
0.528335
0.522114
0.515861
0.515891
0.512669
0.504268
0.49733
0.483115
0.473909
0.47296
0.475771
0.48611
0.506161
0.530583
0.530862
0.0238192
0.146814
0.599522
0.750192
0.709981
0.650234
0.611651
0.582705
0.560367
0.542075
0.529757
0.52344
0.51569
0.515057
0.511134
0.501787
0.494701
0.480984
0.471364
0.469962
0.472486
0.481904
0.500642
0.524292
0.525787
0.0285185
0.141654
0.558981
0.766365
0.717077
0.651468
0.611353
0.583045
0.561318
0.543618
0.531575
0.524734
0.515472
0.513951
0.509327
0.499127
0.49151
0.478216
0.468056
0.465799
0.467954
0.47603
0.492684
0.514786
0.51795
0.033571
0.134255
0.505982
0.789383
0.726689
0.65293
0.611083
0.583576
0.562645
0.545564
0.533646
0.525933
0.515402
0.512753
0.50702
0.49632
0.487615
0.474833
0.464051
0.460362
0.462047
0.468265
0.481363
0.500789
0.505639
0.0398699
0.126066
0.443776
0.820049
0.741092
0.655507
0.611162
0.584476
0.564403
0.547835
0.535804
0.526954
0.515581
0.511614
0.504064
0.4933
0.483017
0.471154
0.459312
0.453508
0.45473
0.458231
0.466293
0.480246
0.48451
0.046722
0.117317
0.371387
0.849868
0.759892
0.661251
0.612747
0.586287
0.566624
0.550348
0.537935
0.527881
0.515995
0.510352
0.500801
0.489921
0.478222
0.467431
0.453815
0.446177
0.444068
0.44512
0.448579
0.451235
0.44694
0.0148716
0.158313
0.687061
0.719932
0.692331
0.648123
0.613571
0.583193
0.558915
0.539008
0.525539
0.51899
0.516403
0.516606
0.515245
0.510042
0.501527
0.486929
0.477469
0.477074
0.480354
0.492128
0.512427
0.538022
0.536839
0.0143659
0.15716
0.682258
0.722304
0.693668
0.648194
0.613429
0.583235
0.559201
0.539451
0.526088
0.519517
0.516799
0.516896
0.515327
0.509728
0.501486
0.486884
0.477561
0.477126
0.480409
0.492145
0.51275
0.538203
0.537129
0.0154662
0.155705
0.671016
0.726455
0.69604
0.648027
0.61287
0.58291
0.559212
0.539669
0.526469
0.519941
0.516632
0.516706
0.514756
0.508326
0.500639
0.485991
0.476831
0.47631
0.479514
0.491025
0.511786
0.537021
0.536129
0.0179491
0.153766
0.653595
0.731211
0.699315
0.648236
0.612301
0.582662
0.559388
0.54019
0.527249
0.520886
0.516293
0.516474
0.51391
0.506476
0.499347
0.484755
0.475707
0.474984
0.478023
0.489026
0.509731
0.534589
0.534106
0.0198578
0.150434
0.630428
0.739129
0.704274
0.6491
0.611952
0.582597
0.559752
0.540965
0.528335
0.522114
0.515863
0.515895
0.512673
0.504273
0.497334
0.483117
0.473911
0.472959
0.47577
0.486109
0.506157
0.530578
0.530859
0.023816
0.146812
0.599526
0.750183
0.709977
0.650234
0.611652
0.582706
0.560367
0.542074
0.529756
0.52344
0.515692
0.515061
0.511139
0.501792
0.494705
0.480987
0.471365
0.469961
0.472485
0.481904
0.500639
0.524288
0.525785
0.0285166
0.141654
0.558987
0.766354
0.717073
0.651467
0.611354
0.583045
0.561317
0.543617
0.531574
0.524734
0.515475
0.513954
0.509332
0.499132
0.491515
0.478219
0.468058
0.465799
0.467953
0.476029
0.492681
0.514783
0.517949
0.0335686
0.134256
0.505994
0.789369
0.726684
0.652929
0.611083
0.583575
0.562644
0.545563
0.533645
0.525933
0.515404
0.512756
0.507025
0.496325
0.48762
0.474836
0.464053
0.460362
0.462047
0.468264
0.481361
0.500786
0.505637
0.0398677
0.126068
0.44379
0.820032
0.741085
0.655504
0.611161
0.584474
0.564401
0.547834
0.535803
0.526954
0.515583
0.511616
0.504069
0.493305
0.483022
0.471157
0.459314
0.453508
0.45473
0.458229
0.466291
0.480243
0.48451
0.0467197
0.117319
0.371408
0.849854
0.759885
0.661248
0.612745
0.586285
0.566622
0.550346
0.537933
0.527881
0.515996
0.510355
0.500805
0.489925
0.478227
0.467434
0.453817
0.446178
0.444067
0.44512
0.448577
0.451233
0.446939
0.0148665
0.158317
0.687101
0.719913
0.692321
0.648118
0.613569
0.583192
0.558912
0.539001
0.525529
0.51898
0.516393
0.516599
0.51524
0.510045
0.501529
0.486929
0.477468
0.477067
0.480346
0.492117
0.51241
0.538014
0.536846
0.0143614
0.157165
0.6823
0.722283
0.693654
0.64819
0.613428
0.583234
0.559198
0.539444
0.526077
0.519507
0.516789
0.516888
0.515322
0.509731
0.501488
0.486884
0.477559
0.477119
0.480402
0.492134
0.512734
0.538196
0.537135
0.015462
0.155711
0.671063
0.726434
0.696024
0.648022
0.61287
0.582909
0.559209
0.539662
0.526458
0.519931
0.516622
0.516698
0.514753
0.508328
0.500641
0.485991
0.476829
0.476303
0.479507
0.491015
0.511771
0.537014
0.536135
0.0179416
0.15377
0.65364
0.731189
0.699299
0.64823
0.612301
0.582661
0.559385
0.540183
0.527238
0.520876
0.516285
0.516469
0.513914
0.506482
0.49935
0.484756
0.475705
0.474978
0.478016
0.489018
0.509718
0.534583
0.534111
0.019853
0.15044
0.630476
0.739105
0.704258
0.649095
0.611952
0.582595
0.559748
0.540957
0.528325
0.522106
0.515855
0.51589
0.512667
0.504272
0.497336
0.483119
0.473909
0.472953
0.475764
0.486103
0.506146
0.530573
0.530863
0.0238083
0.146817
0.599575
0.750154
0.709962
0.650231
0.611652
0.582704
0.560362
0.542067
0.529747
0.523431
0.515685
0.515055
0.511139
0.501794
0.494707
0.480988
0.471364
0.469957
0.47248
0.481899
0.50063
0.524283
0.525786
0.0285116
0.141662
0.559044
0.76632
0.717058
0.651465
0.611354
0.583042
0.561313
0.54361
0.531566
0.524725
0.515472
0.513948
0.509335
0.499136
0.491516
0.478221
0.468057
0.465795
0.46795
0.476026
0.492674
0.514778
0.517947
0.0335627
0.134266
0.506063
0.789328
0.726667
0.652926
0.611082
0.583573
0.56264
0.545556
0.533638
0.525928
0.5154
0.512753
0.507027
0.496329
0.487621
0.474839
0.464053
0.46036
0.462045
0.468262
0.481356
0.50078
0.505633
0.0398625
0.126079
0.443867
0.819983
0.741062
0.655498
0.611157
0.58447
0.564396
0.547826
0.535797
0.526952
0.515576
0.511614
0.504074
0.493307
0.483025
0.471158
0.459315
0.453507
0.454729
0.458228
0.466289
0.480236
0.484504
0.0467146
0.117333
0.371502
0.849816
0.759864
0.661239
0.61274
0.586281
0.566618
0.550339
0.537928
0.527881
0.515987
0.51036
0.500809
0.489927
0.47823
0.467435
0.453819
0.446179
0.444066
0.445119
0.448576
0.451227
0.446933
0.0148677
0.158323
0.68713
0.719912
0.692322
0.648119
0.613568
0.583188
0.558905
0.538992
0.525519
0.518968
0.516376
0.516584
0.515227
0.51003
0.501527
0.486933
0.477478
0.477082
0.480361
0.492132
0.512429
0.538026
0.536854
0.014361
0.157171
0.682331
0.722281
0.693654
0.64819
0.613426
0.583229
0.559191
0.539435
0.526067
0.519492
0.516774
0.516873
0.515308
0.509718
0.501487
0.486888
0.477569
0.477135
0.480417
0.492149
0.512753
0.538208
0.537143
0.0154627
0.155718
0.671096
0.726431
0.696022
0.648021
0.612867
0.582904
0.559202
0.539654
0.526448
0.519915
0.516609
0.516684
0.514739
0.508317
0.500641
0.485996
0.476838
0.476319
0.479522
0.49103
0.51179
0.537026
0.536142
0.0179417
0.153777
0.653674
0.731184
0.699295
0.648228
0.612297
0.582656
0.559378
0.540174
0.527227
0.52086
0.516274
0.516455
0.513894
0.506469
0.499347
0.484763
0.475716
0.474995
0.478032
0.489033
0.509737
0.534595
0.534118
0.0198529
0.150447
0.63051
0.739099
0.704254
0.649092
0.611949
0.58259
0.559741
0.540948
0.528315
0.522094
0.515839
0.515874
0.512651
0.504262
0.497333
0.483128
0.47392
0.472969
0.47578
0.486118
0.506164
0.530585
0.53087
0.0238078
0.146824
0.599612
0.750146
0.709957
0.650227
0.611649
0.582699
0.560355
0.542058
0.529738
0.523419
0.515666
0.515034
0.511132
0.501791
0.494704
0.481
0.471375
0.469973
0.472497
0.481916
0.500648
0.524296
0.525793
0.0285103
0.141669
0.559083
0.766309
0.717052
0.651461
0.61135
0.583038
0.561306
0.543602
0.531557
0.52471
0.515454
0.513923
0.50933
0.499139
0.491508
0.478232
0.468065
0.465812
0.467966
0.476038
0.49269
0.51479
0.517954
0.0335609
0.134273
0.506106
0.789315
0.726659
0.652922
0.611078
0.583569
0.562634
0.545548
0.533629
0.525912
0.515388
0.512733
0.507016
0.496331
0.487607
0.474854
0.464061
0.460374
0.46206
0.468276
0.481366
0.500792
0.505641
0.0398602
0.126086
0.443911
0.819966
0.741052
0.655493
0.611154
0.584467
0.564391
0.54782
0.535789
0.526939
0.515567
0.511598
0.504061
0.493306
0.483015
0.471175
0.459319
0.453518
0.454742
0.458239
0.4663
0.480248
0.484511
0.0467112
0.117339
0.371551
0.849804
0.759855
0.661234
0.612737
0.586278
0.566613
0.550333
0.537921
0.527871
0.515977
0.510345
0.5008
0.489924
0.478225
0.467442
0.453824
0.446188
0.444077
0.445129
0.448585
0.451237
0.44694
0.0148563
0.15832
0.687149
0.7199
0.692315
0.648116
0.613566
0.583189
0.558907
0.538983
0.525494
0.518972
0.516351
0.516577
0.515223
0.510024
0.501556
0.486948
0.477491
0.477078
0.480355
0.49212
0.512399
0.538002
0.536848
0.0143695
0.157179
0.682352
0.722262
0.693644
0.648188
0.613427
0.58323
0.559191
0.539425
0.526047
0.519509
0.516721
0.516873
0.515322
0.509707
0.501519
0.486902
0.477579
0.477131
0.48041
0.492138
0.512722
0.538182
0.537137
0.0154623
0.155723
0.671122
0.726414
0.696011
0.648018
0.612868
0.582904
0.559199
0.539643
0.52643
0.519931
0.51656
0.516679
0.514749
0.508311
0.500665
0.486007
0.476847
0.476312
0.479513
0.491018
0.511757
0.536999
0.536135
0.0179291
0.153775
0.653702
0.73117
0.699285
0.648227
0.612299
0.582655
0.559373
0.540166
0.527211
0.520864
0.516256
0.516448
0.513896
0.506475
0.499359
0.484774
0.475723
0.474984
0.47802
0.48902
0.509702
0.534565
0.534109
0.0198516
0.150453
0.630542
0.739081
0.704243
0.649093
0.611951
0.582588
0.559738
0.540946
0.528302
0.522079
0.515845
0.515877
0.512641
0.504261
0.497339
0.48313
0.473926
0.472956
0.475767
0.486102
0.506129
0.530553
0.530859
0.0238016
0.146828
0.599651
0.750124
0.709946
0.65023
0.611652
0.582696
0.560354
0.542057
0.529729
0.523405
0.515686
0.515055
0.511102
0.501777
0.494708
0.480993
0.471379
0.469958
0.472481
0.481899
0.500612
0.524263
0.52578
0.0285083
0.141678
0.559133
0.766283
0.717042
0.651464
0.611354
0.583037
0.561305
0.543601
0.531551
0.524706
0.515467
0.51395
0.509302
0.499113
0.49152
0.478221
0.468069
0.465795
0.46795
0.476026
0.492657
0.514757
0.517939
0.0335571
0.134284
0.506172
0.789285
0.726649
0.652925
0.611082
0.583569
0.562633
0.545546
0.533625
0.525916
0.515385
0.51275
0.507006
0.496305
0.487633
0.474834
0.46406
0.460359
0.462044
0.468259
0.481346
0.500759
0.505624
0.0398569
0.126099
0.443986
0.819931
0.741037
0.655494
0.611157
0.584468
0.564391
0.547818
0.535787
0.526943
0.515554
0.511606
0.504064
0.493287
0.483038
0.471145
0.459328
0.45351
0.454729
0.458226
0.466282
0.480217
0.484493
0.0467088
0.117355
0.371644
0.849779
0.75984
0.661232
0.612739
0.58628
0.566614
0.550331
0.53792
0.527872
0.515962
0.510359
0.500795
0.489911
0.478236
0.467424
0.453832
0.446189
0.444066
0.445119
0.448573
0.451211
0.446922
0.0148636
0.158336
0.687217
0.719907
0.692327
0.648135
0.613583
0.583199
0.558913
0.538992
0.525505
0.518943
0.516358
0.51656
0.515207
0.51003
0.501543
0.486956
0.477513
0.477122
0.4804
0.492173
0.512468
0.538033
0.536831
0.0143525
0.157183
0.682425
0.722273
0.693656
0.648207
0.613443
0.583241
0.559197
0.539431
0.526052
0.519479
0.516751
0.516852
0.515288
0.509707
0.501505
0.486908
0.477601
0.477173
0.480454
0.492188
0.51279
0.538215
0.537122
0.0154587
0.155735
0.671199
0.726421
0.696017
0.648035
0.612884
0.582917
0.559208
0.539645
0.526432
0.519917
0.51656
0.516665
0.514728
0.508303
0.500664
0.486014
0.476866
0.476357
0.479557
0.491067
0.511824
0.537033
0.536123
0.0179389
0.153796
0.653782
0.731169
0.699287
0.648238
0.612313
0.582668
0.559381
0.540164
0.527212
0.520874
0.516197
0.516425
0.513908
0.506471
0.499367
0.484782
0.475733
0.475029
0.478063
0.489066
0.509767
0.534602
0.534101
0.0198439
0.150465
0.630629
0.739081
0.704247
0.649102
0.611963
0.582601
0.559745
0.54094
0.528295
0.522092
0.515797
0.515844
0.512658
0.504269
0.497335
0.483145
0.473933
0.473
0.475808
0.486143
0.506191
0.530591
0.530855
0.0238007
0.146846
0.599745
0.750117
0.709946
0.650237
0.611661
0.582707
0.560359
0.542051
0.529717
0.52341
0.515641
0.515019
0.511109
0.501773
0.494703
0.481016
0.471396
0.469998
0.47252
0.481937
0.500672
0.524301
0.525781
0.0285021
0.141695
0.559237
0.76627
0.717039
0.65147
0.611361
0.583042
0.561308
0.543598
0.53154
0.524706
0.515436
0.513928
0.509294
0.499105
0.491517
0.478237
0.468088
0.465828
0.467983
0.476063
0.492712
0.514796
0.517947
0.0335545
0.134306
0.506291
0.789262
0.726639
0.652928
0.611086
0.58357
0.562634
0.545545
0.533617
0.525908
0.515369
0.512732
0.506992
0.4963
0.487628
0.474843
0.464078
0.46039
0.462073
0.468292
0.481394
0.500798
0.505636
0.0398532
0.126121
0.444112
0.8199
0.741018
0.655493
0.611159
0.584467
0.564389
0.547817
0.53578
0.526929
0.515555
0.511594
0.50404
0.493284
0.483024
0.471161
0.459338
0.453534
0.454755
0.458258
0.466318
0.480254
0.484509
0.0467017
0.117377
0.371789
0.84976
0.759822
0.661228
0.612739
0.586277
0.56661
0.550331
0.537914
0.527859
0.515974
0.510332
0.500779
0.489908
0.478225
0.467443
0.453835
0.446199
0.444091
0.445143
0.448601
0.45124
0.446939
0.0566664
0.115118
0.328938
0.843122
0.761713
0.664406
0.615351
0.58866
0.569101
0.55301
0.539989
0.528871
0.516466
0.507685
0.498451
0.486439
0.473872
0.463506
0.448189
0.438506
0.431922
0.429139
0.423219
0.406428
0.353361
0.0648832
0.116059
0.306856
0.816846
0.755824
0.665853
0.618757
0.591666
0.57196
0.55578
0.542088
0.529885
0.516715
0.504404
0.496349
0.482971
0.470162
0.458949
0.442789
0.430452
0.420637
0.411924
0.399592
0.37304
0.315538
0.0719865
0.116831
0.288276
0.772705
0.740659
0.670025
0.623479
0.595064
0.574939
0.558602
0.544233
0.530796
0.516556
0.501371
0.493874
0.479993
0.467099
0.453847
0.438113
0.423029
0.410115
0.396426
0.381095
0.352714
0.306061
0.0822515
0.122798
0.274953
0.727812
0.719448
0.678628
0.628696
0.598147
0.57785
0.561432
0.546236
0.531401
0.516025
0.499635
0.490925
0.477575
0.464332
0.449364
0.43457
0.41622
0.401013
0.384238
0.366699
0.340103
0.302178
0.0852978
0.122633
0.261012
0.681137
0.716557
0.687856
0.633275
0.600904
0.580697
0.56408
0.547822
0.531606
0.51521
0.498747
0.488229
0.475318
0.461701
0.446327
0.431383
0.410981
0.3937
0.375618
0.355749
0.331877
0.300099
0.0883584
0.121409
0.24444
0.621921
0.722143
0.695412
0.639583
0.604381
0.583513
0.566294
0.548921
0.531541
0.514365
0.498182
0.484484
0.474659
0.459894
0.444502
0.427798
0.407696
0.388584
0.369558
0.348512
0.326197
0.298708
0.0918828
0.119559
0.224907
0.552458
0.738978
0.708469
0.64412
0.607958
0.58656
0.568113
0.549585
0.530868
0.513286
0.49747
0.482122
0.473766
0.459394
0.443555
0.425099
0.40641
0.384689
0.365386
0.344319
0.322159
0.298369
0.0950547
0.116613
0.202575
0.472037
0.769269
0.729793
0.652729
0.61322
0.589633
0.569441
0.549773
0.529756
0.512134
0.4971
0.482195
0.47328
0.459321
0.442871
0.424075
0.405225
0.383163
0.362917
0.342349
0.320728
0.298383
0.0962589
0.111795
0.175721
0.368843
0.769307
0.733602
0.661763
0.618978
0.592343
0.570505
0.549054
0.52884
0.511464
0.497004
0.482778
0.472233
0.459903
0.443119
0.424238
0.404241
0.383494
0.361963
0.342026
0.320933
0.298822
0.0968995
0.108593
0.160567
0.320897
0.735114
0.723742
0.678316
0.625734
0.594765
0.570605
0.548609
0.528689
0.511532
0.497956
0.484255
0.471679
0.461283
0.443844
0.424805
0.404523
0.384328
0.362572
0.34235
0.321897
0.301203
0.0979365
0.106501
0.14792
0.27848
0.650058
0.707644
0.682731
0.631103
0.596698
0.570863
0.548838
0.529024
0.51319
0.500745
0.48735
0.472522
0.462452
0.445069
0.425886
0.405645
0.385614
0.364831
0.343556
0.324158
0.3049
0.0995292
0.105136
0.136104
0.237083
0.537415
0.710031
0.687827
0.638462
0.599388
0.572123
0.549716
0.531532
0.517396
0.50409
0.49056
0.474517
0.462069
0.446156
0.427677
0.407953
0.387848
0.368455
0.347002
0.327803
0.309088
0.101501
0.104001
0.124966
0.197002
0.410657
0.715483
0.694996
0.646463
0.604563
0.574911
0.552841
0.53716
0.522368
0.507916
0.493398
0.477029
0.461568
0.448396
0.429657
0.410248
0.391006
0.371267
0.352451
0.331528
0.313295
0.101721
0.101968
0.116328
0.169537
0.325859
0.695912
0.691287
0.660784
0.611418
0.579506
0.560265
0.543777
0.527883
0.512007
0.49605
0.479173
0.462123
0.449616
0.431766
0.413491
0.394808
0.375217
0.356561
0.33709
0.317967
0.0993148
0.0951217
0.1062
0.148483
0.278125
0.632087
0.686517
0.668051
0.625372
0.590899
0.568527
0.550658
0.533424
0.515995
0.498671
0.481499
0.46359
0.449204
0.434359
0.41656
0.398141
0.379598
0.360744
0.342811
0.323693
0.0966135
0.0876498
0.0956907
0.126503
0.225371
0.5159
0.690647
0.67764
0.644079
0.604898
0.577998
0.557724
0.538647
0.519757
0.501374
0.483971
0.465701
0.449857
0.438012
0.42045
0.40258
0.38427
0.365807
0.347928
0.330667
0.095008
0.0813327
0.086583
0.106239
0.16776
0.343573
0.687861
0.684591
0.660405
0.617817
0.587778
0.564532
0.543496
0.523375
0.50428
0.486599
0.469382
0.451676
0.4395
0.423799
0.406723
0.388962
0.371255
0.3533
0.336485
0.0938194
0.0767626
0.0805234
0.0947226
0.140454
0.278163
0.638346
0.683069
0.667873
0.631855
0.597282
0.570658
0.547847
0.52695
0.507519
0.489656
0.47308
0.455557
0.440449
0.429133
0.411687
0.394192
0.376593
0.359307
0.342401
0.0928081
0.072879
0.0754817
0.0853369
0.117119
0.218482
0.520462
0.679734
0.671467
0.646513
0.607158
0.576557
0.552207
0.530878
0.511407
0.493422
0.47685
0.46027
0.442977
0.431461
0.416018
0.39936
0.382459
0.365796
0.348946
0.0920733
0.0698869
0.071579
0.0778374
0.0970153
0.155571
0.322342
0.661939
0.672138
0.656738
0.621386
0.584328
0.557384
0.535624
0.516047
0.497881
0.481043
0.464837
0.44817
0.433166
0.422122
0.405367
0.388639
0.371967
0.355947
0.0914838
0.0677068
0.0688706
0.073183
0.086266
0.126386
0.248955
0.581938
0.669117
0.659565
0.634197
0.594049
0.563517
0.541136
0.521399
0.502945
0.485676
0.469292
0.453275
0.436732
0.424236
0.411168
0.394877
0.378635
0.362737
0.0910502
0.0659558
0.0666958
0.0694428
0.0775976
0.101815
0.177553
0.402508
0.654976
0.658196
0.644211
0.610551
0.573276
0.547907
0.527336
0.5085
0.490797
0.474164
0.458403
0.442448
0.42752
0.416946
0.401425
0.385804
0.370156
0.0907361
0.0647523
0.0652387
0.0670736
0.0724037
0.0876491
0.133606
0.269342
0.597787
0.655271
0.646785
0.62322
0.58421
0.555995
0.533947
0.514439
0.49627
0.479425
0.463385
0.448276
0.432607
0.419643
0.408205
0.392823
0.377798
0.0905233
0.0638516
0.0641521
0.0653318
0.0687375
0.078272
0.106372
0.194882
0.454961
0.643223
0.645244
0.632554
0.601766
0.566907
0.541858
0.521219
0.502487
0.485235
0.468881
0.454062
0.438742
0.424652
0.413783
0.39967
0.385358
0.0903796
0.0632575
0.063439
0.0641954
0.0663709
0.0722546
0.0887248
0.138036
0.278677
0.595217
0.641784
0.634525
0.614738
0.578395
0.550343
0.528247
0.508995
0.491462
0.474977
0.459867
0.445332
0.430984
0.417191
0.407387
0.393304
0.0902834
0.0628516
0.0629503
0.0634142
0.0647738
0.0684098
0.0783774
0.107658
0.199287
0.463779
0.628109
0.632792
0.622338
0.596524
0.562621
0.537466
0.516572
0.498358
0.481599
0.46602
0.45177
0.437663
0.423754
0.412272
0.401278
0.0902857
0.0626297
0.062675
0.0629543
0.0637927
0.06603
0.0719446
0.0884265
0.137694
0.275988
0.578759
0.628992
0.62369
0.607869
0.575543
0.547311
0.524969
0.505985
0.48889
0.472755
0.458431
0.44472
0.430898
0.418318
0.408438
0.090405
0.0626591
0.0625457
0.0626861
0.0631637
0.0644822
0.0679597
0.077455
0.105296
0.192151
0.441508
0.612489
0.622218
0.613904
0.592127
0.559786
0.53458
0.514126
0.496484
0.480148
0.465509
0.451897
0.438537
0.42583
0.413656
0.0904584
0.0628138
0.0623733
0.0624572
0.062747
0.0635418
0.0656228
0.0710924
0.0863936
0.132426
0.262131
0.551769
0.617299
0.614012
0.602067
0.57589
0.547216
0.524274
0.505257
0.488145
0.47295
0.459406
0.446217
0.433775
0.421614
0.0904867
0.0629218
0.0622612
0.0623091
0.0624768
0.062935
0.0641272
0.0671919
0.0754619
0.0993937
0.173575
0.387011
0.594493
0.611867
0.605605
0.589188
0.559486
0.534711
0.514768
0.497343
0.481172
0.467364
0.454198
0.442037
0.430076
0.0905017
0.0629849
0.0621909