/*--------------------------------*- C++ -*----------------------------------*\
| =========                 |                                                 |
| \\      /  F ield         | OpenFOAM: The Open Source CFD Toolbox           |
|  \\    /   O peration     | Version:  4.1                                   |
|   \\  /    A nd           | Web:      www.OpenFOAM.org                      |
|    \\/     M anipulation  |                                                 |
\*---------------------------------------------------------------------------*/
FoamFile
{
    version     2.0;
    format      ascii;
    class       surfaceScalarField;
    location    "0.9";
    object      phi;
}
// * * * * * * * * * * * * * * * * * * * * * * * * * * * * * * * * * * * * * //

dimensions      [1 0 -1 0 0 0 0];

internalField   nonuniform List<scalar> 
150500
(
0.00166591
-1.31436e-06
7.24052e-11
0.00177607
2.03481e-06
8.62785e-11
0.0019752
8.67953e-05
2.46056e-10
0.00186632
9.87698e-05
1.35e-10
0.00174169
8.7234e-05
1.20438e-10
0.00161211
7.50589e-05
9.064e-11
0.00149178
6.63703e-05
6.09617e-11
0.00140216
6.16992e-05
3.38741e-11
0.00133362
5.94796e-05
2.45404e-11
0.00128187
5.82949e-05
4.92983e-11
0.00126104
5.8539e-05
1.07879e-10
0.00124553
6.04785e-05
5.50055e-11
0.00131024
6.38757e-05
-4.82191e-12
0.0013836
7.06044e-05
3.25922e-11
0.0013889
7.46383e-05
4.45952e-11
0.00132998
7.56266e-05
-5.4387e-11
0.00123285
7.49786e-05
-3.12811e-11
0.00112499
7.4593e-05
6.34364e-12
0.00102467
7.64076e-05
6.78033e-11
0.000891639
8.14068e-05
1.75922e-10
0.000758334
8.7266e-05
1.78679e-10
0.000593602
9.4205e-05
2.09025e-10
0.000371108
0.000101832
2.96299e-10
0.000157298
0.000112007
1.51662e-10
0.000120533
-7.31815e-12
0.00166945
-8.99519e-06
-4.01895e-11
0.00178511
4.82658e-07
2.76996e-11
0.0019835
0.000180054
2.56853e-10
0.00186994
0.000195778
1.64569e-10
0.00173905
0.000173122
1.25378e-10
0.00160871
0.000150085
9.30955e-11
0.00148861
0.000133146
5.31318e-11
0.00139971
0.000123694
3.31904e-11
0.0013323
0.000119059
2.88138e-11
0.00128175
0.000116846
5.95544e-11
0.00126145
0.00011751
8.90952e-11
0.00124619
0.000120883
-4.20032e-11
0.00131177
0.000127743
1.85559e-10
0.00138592
0.000140224
-9.24332e-12
0.00139075
0.000147785
-7.24493e-11
0.00133537
0.000149979
-1.30324e-12
0.00124054
0.000149172
-6.29545e-11
0.00113193
0.000149332
1.58809e-11
0.00103119
0.000153044
8.03248e-11
0.000897681
0.000163282
1.70969e-10
0.000763585
0.000175094
1.78751e-10
0.000598541
0.000189636
2.02378e-10
0.000373958
0.000206619
2.91709e-10
0.000157616
0.000227668
1.55973e-10
0.000242312
-2.84184e-12
0.00167131
-1.63412e-05
-6.16693e-12
0.00178651
4.46834e-07
4.56523e-11
0.00198006
0.000285302
2.53963e-10
0.00187431
0.000288411
1.54528e-10
0.00173853
0.00025574
1.16362e-10
0.00160792
0.000222447
9.01146e-11
0.00148912
0.000197952
5.02641e-11
0.00140198
0.00018387
4.028e-11
0.00133685
0.000177617
4.62898e-11
0.00128873
0.000175136
7.25976e-11
0.00126921
0.00017676
9.01058e-11
0.00125321
0.000181329
-7.21242e-11
0.00131662
0.000192053
2.10189e-10
0.00139271
0.000210185
6.11505e-12
0.00139456
0.000220277
-6.78528e-11
0.00134425
0.000223938
2.25017e-11
0.00125317
0.000223708
-4.19846e-11
0.0011427
0.000223758
3.78284e-11
0.00104139
0.000229433
8.86439e-11
0.000907698
0.000244838
1.80905e-10
0.000772965
0.000263172
1.81662e-10
0.000608426
0.000286075
1.98784e-10
0.000382258
0.000314567
2.88579e-10
0.000162768
0.000348208
1.60786e-10
0.000370402
3.45918e-12
0.00167287
-1.70564e-05
8.32611e-11
0.00178245
3.73026e-06
9.77454e-11
0.00196996
0.000399421
2.55885e-10
0.0018709
0.000380119
1.18595e-10
0.00173971
0.000330253
9.62132e-11
0.00160984
0.000287334
6.87614e-11
0.00149253
0.00025894
4.65286e-11
0.0014074
0.000242112
4.14435e-11
0.00134511
0.000235545
5.47491e-11
0.00130017
0.000233593
6.79863e-11
0.00128115
0.000236382
9.43121e-11
0.00126356
0.00024217
-5.06235e-11
0.00132143
0.000255928
1.06071e-10
0.00140295
0.000278393
1.35534e-11
0.00140126
0.000292049
-7.63569e-11
0.00135567
0.000297914
-5.52759e-11
0.00127174
0.00029775
-1.13975e-11
0.00115839
0.000297693
2.95359e-11
0.00105699
0.000305284
6.75637e-11
0.000923511
0.000325929
1.93114e-10
0.000788222
0.000351897
1.87664e-10
0.000624031
0.000384608
1.95482e-10
0.000396579
0.000426604
2.83872e-10
0.00017201
0.000477178
1.69024e-10
0.000509622
1.3128e-11
0.00168116
-2.55472e-05
8.81177e-13
0.00179044
5.56025e-06
5.29776e-11
0.00197893
0.000522351
2.73074e-10
0.00187797
0.000476539
1.24173e-10
0.00174808
0.000398745
8.81773e-11
0.00161804
0.000347681
5.90207e-11
0.00150185
0.000317107
4.18386e-11
0.00141741
0.000299589
4.43102e-11
0.00135779
0.000293717
4.28505e-11
0.00131619
0.000293053
3.95125e-11
0.00129713
0.000296994
8.12949e-11
0.00127833
0.00030386
3.95641e-11
0.00132685
0.000319813
-3.76797e-12
0.00141508
0.000343586
-1.87046e-11
0.00141261
0.000362463
1.93252e-11
0.00136995
0.000371103
5.17767e-12
0.0012952
0.000371952
4.67815e-12
0.00117863
0.000371133
7.06997e-11
0.00107672
0.000380353
7.29025e-11
0.000943922
0.000406488
1.88346e-10
0.000808847
0.000441028
1.89941e-10
0.000645783
0.000485198
1.92577e-10
0.000417664
0.000543693
2.68554e-10
0.000186345
0.000616463
1.76559e-10
0.00066434
2.61602e-11
0.00168827
-2.93929e-05
3.66856e-11
0.00178773
1.10952e-05
7.53537e-11
0.00199285
0.000645317
2.84764e-10
0.00189238
0.000578111
1.06556e-10
0.00176137
0.00045989
6.64093e-11
0.00163268
0.000401501
4.01455e-11
0.00151681
0.000373632
3.58985e-11
0.00143238
0.000358299
5.12871e-11
0.00137519
0.0003538
3.34491e-11
0.0013367
0.000354477
2.61567e-11
0.00131713
0.000358985
6.61916e-11
0.00129766
0.000366131
6.22457e-11
0.00133362
0.000381906
-6.81126e-11
0.00142548
0.000408224
-7.22933e-11
0.00142731
0.000431677
6.28849e-11
0.00138648
0.000442641
4.1943e-11
0.00131985
0.000445359
9.72417e-12
0.00120326
0.00044419
1.14755e-10
0.00110052
0.000454413
8.17681e-11
0.000969715
0.000485647
1.80731e-10
0.000836143
0.000530155
1.85149e-10
0.00067537
0.000587506
1.91783e-10
0.000447554
0.000665479
2.60885e-10
0.000207758
0.000767698
1.83299e-10
0.000840958
4.77026e-11
0.00170088
-3.09521e-05
-1.24225e-13
0.00178772
1.92532e-05
5.24172e-11
0.002031
0.00074463
2.85802e-10
0.00192724
0.000690502
9.82121e-11
0.00178638
0.000516012
4.3709e-11
0.00165677
0.000451895
2.45902e-11
0.00153927
0.000431393
3.12464e-11
0.00145304
0.00042012
4.79227e-11
0.00139702
0.000417234
3.2428e-11
0.00136071
0.000418692
2.86143e-11
0.00134037
0.000422911
5.17338e-11
0.00132063
0.000429286
3.01856e-11
0.00134122
0.000442758
-5.46355e-11
0.001434
0.000470365
-1.02878e-10
0.00144371
0.000499438
6.35026e-11
0.00140564
0.000512126
9.16939e-11
0.0013473
0.000517365
-1.9841e-11
0.00123294
0.000516931
1.04046e-10
0.0011292
0.000526949
7.4944e-11
0.00100151
0.00056256
1.7842e-10
0.000871553
0.000617283
1.75358e-10
0.000713544
0.00069045
1.50857e-10
0.000489445
0.000791027
2.43177e-10
0.000240541
0.00093092
1.91305e-10
0.00104932
7.31695e-11
0.00172198
-3.51083e-05
1.15537e-11
0.00179732
2.22114e-05
5.56075e-11
0.00211011
0.000778487
2.68134e-10
0.00199979
0.000824179
8.858e-11
0.00183424
0.000582186
2.17597e-11
0.0016944
0.000511959
1.60777e-11
0.00157063
0.000497138
2.88368e-11
0.00147963
0.000488419
4.09466e-11
0.00142287
0.000485551
3.1453e-11
0.00138731
0.00048631
4.06423e-11
0.00136592
0.000489248
4.01283e-11
0.00134524
0.000493803
-1.73305e-11
0.00135004
0.000503039
2.65709e-11
0.00143848
0.000529959
-8.01374e-11
0.0014589
0.000564938
-8.6315e-13
0.00142745
0.000579516
1.09164e-10
0.00137715
0.000587734
-1.0981e-10
0.00126718
0.00058856
1.40601e-10
0.001163
0.000597142
7.98706e-11
0.00104181
0.000634388
1.59966e-10
0.000916648
0.000702421
1.64409e-10
0.000761858
0.000791827
1.6337e-10
0.000547823
0.000916173
1.62544e-10
0.000291378
0.00110336
1.9702e-10
0.00130722
9.20529e-11
0.00174997
-3.78453e-05
6.6155e-12
0.00180527
1.80917e-05
4.86807e-11
0.00223358
0.000693375
2.41876e-10
0.00213289
0.000978175
7.99106e-11
0.00191732
0.000690219
7.79377e-12
0.00174971
0.00060612
1.23978e-11
0.00161107
0.000581755
2.62724e-11
0.00151134
0.000567409
3.33465e-11
0.00145144
0.000560478
3.03873e-11
0.00141543
0.000558038
4.58343e-11
0.00139297
0.000558248
3.19641e-11
0.00137057
0.000559621
-2.80123e-11
0.00135993
0.000562727
9.0189e-11
0.00143998
0.000587056
-3.98513e-11
0.00147401
0.000626448
-7.31494e-11
0.00145178
0.000644439
8.92279e-11
0.0014086
0.00065631
-1.10875e-10
0.00130676
0.000657113
2.01973e-10
0.00120157
0.000664963
1.3628e-11
0.00109297
0.000699531
1.07934e-10
0.000972216
0.000782291
1.35369e-10
0.000820244
0.000885831
1.31034e-10
0.000627778
0.00103561
1.41971e-10
0.000374335
0.00127646
1.82931e-10
0.00164603
1.00637e-10
0.0017888
-1.3759e-11
-4.73667e-05
0.00183045
3.52485e-11
-5.25261e-06
0.00247081
2.35362e-10
0.000396446
0.00234931
7.28909e-11
0.00114934
0.0020308
7.66565e-13
0.000886835
0.00181603
1.1594e-11
0.00075386
0.00165469
2.1863e-11
0.000693389
0.00154433
2.54045e-11
0.000658153
0.00148029
2.60536e-11
0.000641223
0.0014436
4.852e-11
0.000633259
0.00142028
3.32419e-11
0.000629336
0.0013955
-9.2675e-12
0.000625972
0.00137146
1.09722e-10
0.000622101
0.00144121
-1.05696e-10
0.000643136
0.0014871
-1.35029e-11
0.000682214
0.00147812
6.50167e-11
0.000706107
0.00144076
-4.99948e-11
0.00072023
0.001352
1.44846e-10
0.000722245
0.00124589
3.78801e-12
0.000729094
0.00114898
5.28798e-11
0.000760333
0.00103914
1.15334e-10
0.000840201
0.000912617
1.02191e-10
0.000961092
0.000741506
1.06652e-10
0.00114628
0.000514168
1.52241e-10
0.00143353
1.0362e-10
0.00211969
0.00166595
-1.36908e-06
-5.61089e-11
0.00177618
1.97789e-06
-1.35723e-11
0.00197544
8.67498e-05
7.08175e-11
0.00186641
9.88214e-05
-5.34794e-11
0.00174166
8.72783e-05
-3.14539e-11
0.00161204
7.50891e-05
-1.16198e-11
0.00149171
6.6392e-05
-6.28963e-12
0.00140205
6.17309e-05
5.9458e-12
0.00133344
5.95309e-05
1.44812e-11
0.00128163
5.83524e-05
-4.84522e-11
0.00126076
5.85721e-05
-1.40132e-10
0.00124529
6.04149e-05
2.18074e-11
0.00131009
6.39129e-05
-1.4885e-10
0.00138329
7.04874e-05
-3.85671e-11
0.00138879
7.45122e-05
-1.77213e-11
0.00132994
7.55751e-05
-2.29714e-11
0.0012329
7.49022e-05
1.71391e-10
0.00112509
7.4602e-05
8.92913e-11
0.0010248
7.64292e-05
7.9717e-11
0.000891754
8.14244e-05
-1.88161e-11
0.000758468
8.72796e-05
-3.0533e-11
0.000593662
9.42086e-05
-5.81294e-11
0.000371152
0.00010183
-1.46396e-10
0.000157255
0.000112008
-1.22026e-10
0.00012055
-3.44522e-11
0.00166943
-8.96928e-06
4.47246e-11
0.00178502
4.90941e-07
4.24322e-11
0.00198347
0.000180035
9.63677e-11
0.00186994
0.000195762
-8.67637e-11
0.00173913
0.000173114
-4.58423e-11
0.00160893
0.000150071
-1.18226e-11
0.00148891
0.000133123
1.26007e-12
0.00140005
0.000123659
4.59513e-12
0.00133271
0.000119019
3.94085e-12
0.00128222
0.000116797
-5.56376e-11
0.00126193
0.000117429
-1.1771e-10
0.00124658
0.000120746
8.83558e-11
0.00131175
0.000127564
-3.00841e-10
0.00138647
0.000140058
1.5236e-12
0.00139132
0.000147709
6.67993e-11
0.00133587
0.000150018
-6.17303e-11
0.00124105
0.00014931
1.8759e-10
0.00113229
0.000149467
8.30989e-11
0.00103145
0.000153159
5.69878e-11
0.000897854
0.000163348
-1.73139e-11
0.000763744
0.00017514
-3.4346e-11
0.000598614
0.00018966
-5.41902e-11
0.000374003
0.000206623
-1.48893e-10
0.000157569
0.000227678
-1.29924e-10
0.000242342
-3.70038e-11
0.00167131
-1.6277e-05
-2.32617e-12
0.00178649
4.75209e-07
1.5813e-11
0.0019801
0.000285308
9.89477e-11
0.00187431
0.00028838
-8.49729e-11
0.00173858
0.000255687
-5.08605e-11
0.00160809
0.000222382
-1.09907e-11
0.00148939
0.000197879
4.92412e-12
0.00140231
0.000183784
-2.63974e-12
0.00133725
0.000177511
-1.58217e-11
0.00128915
0.000174998
-5.58904e-11
0.00126956
0.000176576
-1.02116e-10
0.00125344
0.00018116
7.82961e-11
0.00131632
0.00019172
-2.72115e-10
0.00139298
0.000209954
-1.78409e-11
0.00139478
0.00022025
4.92519e-11
0.00134443
0.000224038
-3.94078e-11
0.00125345
0.00022399
1.40486e-10
0.00114291
0.00022396
6.44833e-11
0.00104154
0.000229608
3.01822e-11
0.000907803
0.000244947
-3.40976e-11
0.00077309
0.000263241
-3.92047e-11
0.000608482
0.00028611
-5.63589e-11
0.000382292
0.000314572
-1.54815e-10
0.00016272
0.000348219
-1.39827e-10
0.000370437
-4.27654e-11
0.00167293
-1.71025e-05
-6.22085e-11
0.0017826
3.70905e-06
-9.40056e-12
0.00197018
0.00039941
1.08618e-10
0.001871
0.000380128
-7.40851e-11
0.00173975
0.000330217
-4.82146e-11
0.00160993
0.000287254
-1.81215e-12
0.00149269
0.000258837
6.21824e-12
0.00140759
0.000241995
-5.9866e-12
0.00134532
0.000235398
-2.75655e-11
0.00130037
0.000233411
-4.10721e-11
0.00128128
0.000236167
-9.08257e-11
0.00126358
0.00024202
1.67898e-11
0.00132104
0.000255549
-9.92019e-11
0.00140277
0.00027825
-2.37221e-11
0.00140116
0.000292127
7.66049e-12
0.00135544
0.000298067
2.90819e-11
0.00127149
0.000298028
6.82102e-11
0.0011583
0.000297961
6.52063e-11
0.00105696
0.000305488
2.46422e-11
0.000923507
0.000326065
-5.04451e-11
0.000788276
0.000351984
-5.38984e-11
0.000624043
0.000384638
-6.3277e-11
0.000396592
0.000426583
-1.64376e-10
0.000171962
0.000477172
-1.56373e-10
0.000509646
-5.21395e-11
0.00168116
-2.55386e-05
-7.54347e-12
0.00179043
5.55521e-06
1.95929e-11
0.00197902
0.000522311
1.20304e-10
0.00187801
0.000476537
-9.67131e-11
0.00174809
0.000398706
-5.14553e-11
0.00161807
0.000347599
4.2379e-12
0.0015019
0.000316994
1.54517e-11
0.00141747
0.000299453
-7.88578e-12
0.00135784
0.000293572
-1.69867e-11
0.00131622
0.000292881
-9.58833e-12
0.00129713
0.000296798
-7.13095e-11
0.00127826
0.000303711
-8.78241e-11
0.00132691
0.00031964
2.85892e-11
0.00141488
0.000343611
1.4876e-11
0.00141225
0.000362668
-4.51129e-11
0.0013696
0.000371358
-7.29505e-12
0.00129472
0.000372237
3.25143e-11
0.00117825
0.000371386
1.03679e-11
0.00107647
0.000380516
2.67581e-11
0.000943762
0.000406584
-5.80453e-11
0.000808807
0.000441082
-6.43666e-11
0.000645747
0.000485206
-7.48011e-11
0.000417664
0.000543635
-1.61946e-10
0.000186309
0.000616427
-1.663e-10
0.000664352
-5.93468e-11
0.0016883
-2.94216e-05
-3.16619e-11
0.0017878
1.10747e-05
1.68315e-11
0.001993
0.000645273
1.47138e-10
0.00189244
0.000578139
-1.19766e-10
0.0017614
0.000459879
-5.60499e-11
0.00163269
0.000401439
1.57444e-11
0.00151682
0.000373531
2.08342e-11
0.00143238
0.000358176
-1.1534e-11
0.00137513
0.000353675
-8.10214e-12
0.00133659
0.000354349
-1.74631e-12
0.001317
0.000358862
-4.90059e-11
0.00129738
0.000366041
-8.20427e-11
0.00133366
0.000381848
1.06446e-10
0.00142529
0.000408366
1.00003e-10
0.00142676
0.000431924
-1.75145e-10
0.00138603
0.000442912
-7.53619e-11
0.00131927
0.000445621
2.24328e-11
0.00120279
0.000444354
-3.35647e-11
0.00110017
0.000454491
1.87619e-11
0.000969474
0.000485671
-6.99372e-11
0.000836017
0.000530142
-7.43884e-11
0.00067528
0.000587447
-7.94378e-11
0.000447538
0.000665383
-1.65266e-10
0.00020773
0.000767614
-1.68938e-10
0.000840937
-6.74136e-11
0.00170089
-3.09459e-05
-1.13505e-11
0.00178772
1.92483e-05
3.85193e-11
0.0020311
0.000744579
2.49036e-10
0.00192728
0.000690545
-1.46048e-10
0.00178642
0.000516021
-5.56261e-11
0.00165679
0.000451855
2.09482e-11
0.00153928
0.000431313
2.34551e-11
0.00145302
0.000420029
-7.00492e-12
0.00139693
0.000417147
-5.91924e-12
0.00136056
0.000418625
-4.01846e-12
0.00134019
0.000422872
-3.31933e-11
0.00132027
0.000429278
-2.61431e-11
0.00134133
0.000442843
5.82466e-11
0.00143398
0.000470674
1.29594e-10
0.00144301
0.000499709
-1.63792e-10
0.00140495
0.000512322
-1.34093e-10
0.0013465
0.000517429
5.77758e-11
0.00123224
0.000516907
-4.9927e-11
0.0011288
0.000526895
1.52402e-11
0.00100123
0.000562506
-7.9066e-11
0.000871423
0.000617206
-7.73698e-11
0.000713465
0.000690347
-5.39511e-11
0.000489422
0.000790867
-1.53647e-10
0.000240521
0.000930791
-1.68229e-10
0.00104926
-7.77022e-11
0.00172201
-3.51146e-05
-2.15627e-11
0.00179737
2.22046e-05
5.44391e-11
0.00211025
0.000778437
3.68735e-10
0.00199985
0.000824243
-1.73203e-10
0.0018343
0.000582214
-6.3426e-11
0.00169443
0.000511941
1.69206e-11
0.00157064
0.000497086
2.1715e-11
0.00147961
0.000488364
-2.45828e-13
0.00142278
0.000485513
-1.35788e-12
0.00138716
0.000486301
-1.13229e-11
0.00136572
0.000489269
-2.137e-11
0.0013449
0.000493868
1.8823e-11
0.00135031
0.000503302
-1.31995e-11
0.00143891
0.000530446
7.94594e-11
0.00145838
0.000565236
-7.07346e-11
0.00142661
0.000579613
-1.34545e-10
0.00137613
0.000587633
1.30392e-10
0.00126623
0.000588332
-9.27356e-11
0.00116247
0.000596928
-4.41018e-12
0.00104147
0.000634224
-6.93428e-11
0.00091651
0.000702263
-7.47728e-11
0.00076186
0.000791685
-7.94882e-11
0.000547822
0.000916022
-9.15053e-11
0.000291369
0.00110319
-1.6539e-10
0.00130711
-8.55593e-11
0.00175
-3.78666e-05
-1.94255e-11
0.00180532
1.8075e-05
6.70161e-11
0.00223373
0.000693287
4.26769e-10
0.00213301
0.000978252
-2.08251e-10
0.00191741
0.000690279
-9.26669e-11
0.00174976
0.000606127
2.07815e-12
0.00161109
0.000581737
1.79265e-11
0.00151132
0.00056739
4.18646e-12
0.00145137
0.000560485
1.69675e-12
0.0014153
0.000558078
-8.35044e-12
0.00139278
0.000558329
-8.4612e-12
0.00137027
0.000559749
1.94702e-11
0.00136021
0.000563021
-6.75962e-11
0.0014405
0.000587585
3.70419e-11
0.00147369
0.00062682
1.66065e-11
0.00145096
0.000644474
-1.00915e-10
0.00140764
0.000656177
1.1193e-10
0.00130574
0.000656755
-1.33257e-10
0.001201
0.00066465
4.48017e-11
0.00109263
0.000699284
-3.54285e-11
0.000972051
0.000782104
-5.86096e-11
0.000820221
0.000885672
-6.06052e-11
0.000627789
0.00103546
-8.08123e-11
0.000374342
0.00127624
-1.48134e-10
0.00164587
-8.74823e-11
0.00178884
-8.85973e-12
-4.73781e-05
0.00183048
8.53949e-11
-5.27448e-06
0.00247096
5.21451e-10
0.000396305
0.00234948
-1.42033e-10
0.00114943
0.00203091
-8.82567e-11
0.000886942
0.0018161
-1.23569e-11
0.000753901
0.00165471
1.29051e-11
0.000693401
0.00154432
1.27015e-11
0.000658164
0.00148024
8.56083e-12
0.000641272
0.00144349
-7.67784e-12
0.000633345
0.00142011
-4.73673e-12
0.000629464
0.00139528
4.27709e-12
0.000626151
0.00137166
-7.48262e-11
0.000622395
0.0014416
6.07772e-11
0.000643676
0.00148695
-2.73154e-11
0.000682586
0.00147748
-6.8316e-11
0.00070613
0.00144002
5.62545e-11
0.000720089
0.0013511
-8.26738e-11
0.000721888
0.00124537
5.32895e-11
0.000728804
0.00114866
1.32356e-12
0.000760098
0.00103899
-4.95108e-11
0.000840012
0.000912637
-4.22965e-11
0.000960918
0.000741527
-5.56846e-11
0.0011461
0.000514172
-1.20958e-10
0.00143331
-8.65914e-11
0.00211949
0.00166593
-1.32857e-06
5.13609e-12
0.00177611
2.02213e-06
3.46825e-11
0.00197536
8.68037e-05
1.39645e-10
0.00186638
9.87728e-05
-5.50379e-12
0.00174168
8.72442e-05
4.7803e-12
0.00161208
7.50754e-05
1.28387e-12
0.00149175
6.6391e-05
-9.92704e-12
0.00140211
6.17291e-05
-2.4824e-11
0.00133351
5.95234e-05
-4.22423e-11
0.00128167
5.83541e-05
-4.51576e-11
0.00126082
5.86115e-05
-3.77333e-11
0.00124534
6.05274e-05
-7.28785e-11
0.00131027
6.39719e-05
-8.09483e-11
0.00138315
7.06207e-05
-8.7832e-11
0.00138849
7.45999e-05
-8.2009e-11
0.00132954
7.5575e-05
-8.61943e-11
0.00123239
7.48759e-05
-6.68498e-12
0.00112476
7.45279e-05
1.79116e-11
0.00102453
7.63528e-05
5.70476e-11
0.000891579
8.13638e-05
8.77015e-11
0.000758319
8.72294e-05
8.22439e-11
0.000593579
9.41713e-05
7.34004e-11
0.000371065
0.0001018
9.03428e-11
0.000157245
0.000111996
5.79183e-11
0.000120533
5.0929e-11
0.00166946
-8.99868e-06
-1.91595e-12
0.00178511
4.84291e-07
2.89691e-11
0.00198359
0.000180086
1.36455e-10
0.00186999
0.000195771
-8.89293e-12
0.00173907
0.000173117
-1.43599e-12
0.00160876
0.000150094
5.42367e-13
0.00148868
0.000133164
-1.18273e-11
0.00139978
0.000123722
-2.69915e-11
0.00133236
0.000119103
-4.19336e-11
0.00128177
0.000116911
-3.59427e-11
0.00126147
0.000117599
-3.87567e-11
0.00124621
0.000120956
-8.35149e-11
0.00131186
0.000127845
-6.32974e-11
0.00138579
0.000140247
-9.04329e-11
0.00139062
0.000147737
-8.32456e-11
0.00133517
0.000149911
-8.03106e-11
0.00124031
0.000149057
-6.25391e-12
0.00113185
0.000149263
1.67925e-11
0.00103114
0.000152979
6.00298e-11
0.000897674
0.000163231
8.82386e-11
0.000763596
0.000175045
8.29424e-11
0.00059853
0.000189584
7.55223e-11
0.000373918
0.000206568
9.03672e-11
0.00015756
0.000227649
5.83466e-11
0.000242304
4.87733e-11
0.00167132
-1.63195e-05
2.84712e-12
0.00178651
4.583e-07
3.81265e-11
0.00198014
0.000285355
1.26615e-10
0.00187436
0.000288411
-1.26669e-11
0.00173856
0.000255722
-1.13606e-11
0.00160797
0.000222435
-4.38899e-12
0.0014892
0.000197956
-1.53987e-11
0.00140208
0.000183888
-2.86466e-11
0.00133696
0.000177653
-3.89519e-11
0.00128882
0.00017519
-3.29736e-11
0.00126929
0.000176836
-3.9156e-11
0.00125328
0.000181395
-9.15917e-11
0.00131665
0.000192138
-5.79327e-11
0.00139269
0.000210185
-8.74998e-11
0.00139454
0.000220229
-8.1966e-11
0.00134417
0.000223875
-6.21345e-11
0.0012531
0.000223655
-2.5423e-12
0.00114269
0.000223687
1.75632e-11
0.00104137
0.000229365
5.82503e-11
0.000907702
0.000244774
9.06443e-11
0.000772986
0.000263107
8.23663e-11
0.000608431
0.000286012
7.61499e-11
0.000382231
0.000314508
8.96752e-11
0.000162721
0.000348182
5.78749e-11
0.000370386
4.50276e-11
0.0016729
-1.70733e-05
5.10193e-13
0.00178252
3.72769e-06
3.77683e-11
0.00197012
0.000399473
1.27236e-10
0.00187098
0.000380138
-1.94784e-11
0.00173975
0.000330232
-1.77495e-11
0.00160989
0.000287309
-1.20786e-11
0.00149261
0.000258927
-1.98711e-11
0.00140749
0.000242117
-3.05148e-11
0.00134521
0.000235567
-3.53585e-11
0.00130027
0.000233634
-3.88387e-11
0.00128122
0.000236443
-4.04308e-11
0.0012636
0.00024224
-9.77231e-11
0.00132127
0.000255942
-4.72484e-11
0.00140291
0.000278403
-8.9706e-11
0.00140125
0.000292023
-1.08408e-10
0.00135555
0.000297862
-6.44689e-11
0.00127156
0.00029768
-1.21608e-11
0.00115838
0.000297658
2.81039e-11
0.00105701
0.000305249
7.00614e-11
0.000923546
0.000325889
8.96646e-11
0.000788267
0.000351849
8.59379e-11
0.000624049
0.000384542
7.67912e-11
0.000396568
0.000426537
8.77581e-11
0.000171976
0.000477141
5.74278e-11
0.000509595
3.9172e-11
0.00168118
-2.55429e-05
-6.96159e-13
0.00179045
5.56468e-06
3.70501e-11
0.00197905
0.000522386
1.31608e-10
0.00187804
0.000476571
-2.76986e-11
0.00174813
0.000398727
-2.0761e-11
0.0016181
0.000347647
-1.91142e-11
0.00150191
0.000317081
-2.08917e-11
0.00141748
0.000299575
-3.0099e-11
0.00135788
0.000293725
-4.14891e-11
0.00131629
0.000293073
-5.67954e-11
0.00129721
0.000297019
-4.51692e-11
0.00127843
0.000303892
-5.06348e-11
0.00132691
0.000319901
-9.12192e-11
0.00141516
0.000343622
-9.50042e-11
0.00141267
0.000362466
-9.77948e-11
0.00136992
0.000371118
-5.41189e-11
0.00129512
0.00037193
-1.12411e-11
0.0011786
0.000371144
5.68631e-11
0.00107673
0.00038035
6.9454e-11
0.000943942
0.000406465
8.24862e-11
0.000808889
0.000440988
8.54059e-11
0.000645806
0.000485136
8.01904e-11
0.000417668
0.000543616
8.32226e-11
0.000186327
0.000616414
5.75637e-11
0.00066431
3.6149e-11
0.0016883
-2.94057e-05
-2.54017e-12
0.00178778
1.10937e-05
3.82087e-11
0.00199303
0.000645335
1.35471e-10
0.00189248
0.00057817
-4.07327e-11
0.00176144
0.000459879
-2.25585e-11
0.00163275
0.000401466
-2.15139e-11
0.00151687
0.000373599
-1.88144e-11
0.00143245
0.000358276
-2.85498e-11
0.00137526
0.000353794
-4.19176e-11
0.00133677
0.000354485
-5.52563e-11
0.00131717
0.000359002
-4.63302e-11
0.00129771
0.000366157
-4.8926e-11
0.00133347
0.00038191
-1.06845e-10
0.00142544
0.000408199
-1.12981e-10
0.00142744
0.000431709
-3.36264e-11
0.00138653
0.000442719
-1.90842e-11
0.0013199
0.00044545
-1.17344e-11
0.0012033
0.000444252
6.8548e-11
0.00110053
0.00045443
6.19568e-11
0.000969727
0.000485629
8.48902e-11
0.000836158
0.000530108
8.70714e-11
0.000675387
0.000587436
8.86015e-11
0.000447566
0.000665394
8.14301e-11
0.000207753
0.000767635
5.67379e-11
0.000840917
3.31497e-11
0.00170091
-3.09499e-05
-5.91156e-12
0.00178774
1.92573e-05
2.53548e-11
0.00203119
0.0007446
1.43677e-10
0.00192736
0.000690587
-5.20445e-11
0.00178647
0.000516008
-2.53216e-11
0.00165685
0.000451862
-2.21928e-11
0.00153935
0.000431357
-1.83843e-11
0.0014531
0.000420095
-2.41113e-11
0.00139708
0.000417219
-3.85472e-11
0.00136077
0.000418694
-4.94694e-11
0.00134041
0.000422933
-4.83401e-11
0.00132067
0.000429324
-7.5027e-11
0.00134102
0.000442719
-9.82701e-11
0.00143376
0.00047034
-1.33057e-10
0.00144375
0.000499512
-2.46223e-11
0.00140564
0.000512241
1.10449e-11
0.00134736
0.000517484
-3.32844e-11
0.001233
0.000517014
6.21346e-11
0.00112924
0.00052697
4.48542e-11
0.00100153
0.000562546
8.57759e-11
0.000871571
0.000617228
8.50993e-11
0.000713553
0.000690367
6.39723e-11
0.000489462
0.00079093
7.41757e-11
0.000240544
0.000930845
5.61364e-11
0.00104927
3.44734e-11
0.00172203
-3.51113e-05
-8.11073e-12
0.00179737
2.2209e-05
2.58515e-11
0.00211036
0.000778379
1.5813e-10
0.00199996
0.0008243
-6.28533e-11
0.00183437
0.000582209
-3.43544e-11
0.0016945
0.000511947
-2.37524e-11
0.00157071
0.000497112
-1.94153e-11
0.00147969
0.000488397
-2.09736e-11
0.00142292
0.000485537
-3.36384e-11
0.00138736
0.00048631
-4.32919e-11
0.00136595
0.000489266
-5.00005e-11
0.00134528
0.000493844
-8.84944e-11
0.00135
0.000503059
-6.81937e-11
0.00143841
0.000530023
-1.09722e-10
0.00145886
0.000565069
-4.85931e-11
0.00142739
0.000579655
1.02426e-11
0.00137709
0.000587824
-6.61645e-11
0.00126713
0.000588619
8.28438e-11
0.00116299
0.000597134
4.75383e-11
0.00104181
0.000634349
7.6149e-11
0.000916671
0.000702348
8.07903e-11
0.000761894
0.00079174
7.44627e-11
0.000547851
0.000916079
4.45316e-11
0.000291389
0.00110328
5.51082e-11
0.00130715
3.48746e-11
0.00175003
-3.78605e-05
-8.21894e-12
0.00180533
1.80726e-05
2.47594e-11
0.00223389
0.000693112
1.76892e-10
0.00213316
0.000978289
-7.72003e-11
0.0019175
0.000690306
-4.54425e-11
0.00174984
0.000606163
-1.80241e-11
0.00161117
0.000581761
-1.97547e-11
0.00151141
0.000567398
-1.94064e-11
0.00145149
0.000560471
-2.91387e-11
0.00141546
0.000558039
-3.82551e-11
0.00139297
0.000558263
-5.01133e-11
0.00137057
0.000559659
-7.03021e-11
0.00135997
0.000562787
-5.40488e-11
0.00144009
0.000587183
-8.94099e-11
0.00147401
0.000626652
-6.99249e-11
0.00145168
0.000644591
-5.71277e-12
0.00140848
0.0006564
-4.63548e-11
0.00130661
0.000657133
8.20121e-11
0.0012015
0.000664921
1.53985e-11
0.00109294
0.000699462
5.88466e-11
0.000972224
0.00078221
6.63587e-11
0.000820279
0.000885738
5.57191e-11
0.000627817
0.00103552
5.10908e-11
0.000374356
0.00127637
5.08378e-11
0.00164595
3.33992e-11
0.00178888
-1.26885e-11
-4.73792e-05
0.00183052
2.57195e-11
-5.30238e-06
0.00247122
1.89227e-10
0.000395968
0.00234966
-5.64379e-11
0.00114946
0.002031
-3.85712e-11
0.000887014
0.00181616
-1.78224e-11
0.000753945
0.00165478
-1.79632e-11
0.000693418
0.00154439
-1.87079e-11
0.000658153
0.00148033
-2.74558e-11
0.000641225
0.00144361
-3.35643e-11
0.000633266
0.00142025
-4.18463e-11
0.000629351
0.00139548
-5.37361e-11
0.000626011
0.00137153
-6.02389e-11
0.000622171
0.00144139
-7.26654e-11
0.000643331
0.00148716
-5.23582e-11
0.000682444
0.00147803
-1.87907e-11
0.000706254
0.00144065
-2.42858e-11
0.000720319
0.00135182
3.31843e-11
0.000722243
0.00124579
1.66415e-11
0.00072905
0.00114892
5.18747e-11
0.000760255
0.00103913
5.40649e-11
0.000840117
0.000912652
5.20922e-11
0.000960992
0.000741548
4.46106e-11
0.00114618
0.000514193
4.4122e-11
0.00143344
3.10787e-11
0.00211961
0.00166594
-1.33181e-06
-4.17513e-11
0.00177613
2.01933e-06
7.06497e-12
0.00197542
8.68097e-05
2.37535e-10
0.00186639
9.87685e-05
-1.42115e-10
0.00174166
8.72476e-05
-8.28157e-11
0.00161205
7.50809e-05
-3.50113e-11
0.00149173
6.63931e-05
-8.54803e-13
0.00140208
6.17293e-05
3.97551e-12
0.00133347
5.95245e-05
-6.79537e-12
0.00128163
5.83569e-05
-3.54921e-11
0.00126077
5.86136e-05
-6.16151e-11
0.00124529
6.05225e-05
-7.27289e-11
0.00131023
6.39733e-05
-2.43316e-11
0.00138309
7.06141e-05
-2.28122e-11
0.00138849
7.45979e-05
-1.01725e-11
0.00132952
7.55791e-05
5.39727e-11
0.00123237
7.48798e-05
2.63133e-11
0.00112476
7.4531e-05
2.07969e-11
0.00102453
7.63555e-05
-2.69703e-12
0.000891591
8.13629e-05
-4.00915e-11
0.000758347
8.72257e-05
-4.33565e-11
0.000593586
9.41641e-05
-6.99391e-11
0.000371069
0.000101792
-1.19318e-10
0.000157232
0.000111986
-7.2551e-11
0.000120524
2.1155e-11
0.00166947
-8.99658e-06
-3.55551e-11
0.00178511
4.85439e-07
1.2236e-11
0.00198363
0.000180101
2.60916e-10
0.00187001
0.000195762
-1.62451e-10
0.00173906
0.000173117
-1.0138e-10
0.00160875
0.000150097
-2.98106e-11
0.00148867
0.000133163
3.10973e-12
0.00139977
0.000123717
4.65446e-12
0.00133236
0.000119099
-6.55616e-12
0.00128177
0.000116907
-3.67297e-11
0.00126146
0.000117591
-6.14278e-11
0.0012462
0.000120941
-6.75945e-11
0.00131183
0.000127833
-2.67128e-11
0.00138578
0.000140239
-2.16468e-11
0.00139065
0.000147743
-6.10548e-12
0.00133519
0.000149928
5.02209e-11
0.00124031
0.000149081
2.84135e-11
0.00113186
0.000149276
2.01695e-11
0.00103115
0.000152987
-2.67816e-12
0.000897687
0.00016323
-3.89627e-11
0.000763623
0.000175038
-4.11889e-11
0.000598538
0.000189571
-6.56108e-11
0.000373922
0.000206551
-1.12155e-10
0.000157546
0.000227629
-6.85012e-11
0.000242286
1.73225e-11
0.00167133
-1.6321e-05
-3.07718e-11
0.00178652
4.58756e-07
2.55944e-11
0.00198018
0.000285373
2.90169e-10
0.00187437
0.000288411
-1.67157e-10
0.00173855
0.00025572
-1.2378e-10
0.00160796
0.000222432
-3.5467e-11
0.0014892
0.000197949
4.88554e-12
0.00140208
0.000183877
4.72201e-12
0.00133697
0.000177639
-8.68497e-12
0.00128883
0.000175169
-4.06944e-11
0.00126929
0.000176809
-6.26976e-11
0.00125329
0.000181363
-6.23582e-11
0.00131663
0.000192125
-3.36759e-11
0.00139268
0.000210169
-2.0302e-11
0.00139453
0.00022022
2.95134e-12
0.00134415
0.000223892
4.11742e-11
0.00125307
0.000223665
2.85972e-11
0.00114269
0.000223724
1.67832e-11
0.00104138
0.000229394
-4.21507e-12
0.000907719
0.000244788
-3.86667e-11
0.000773017
0.000263106
-4.01964e-11
0.000608438
0.000285995
-5.88714e-11
0.000382234
0.000314481
-1.05463e-10
0.000162707
0.000348152
-6.35551e-11
0.000370359
1.16395e-11
0.00167291
-1.70751e-05
-6.25043e-11
0.00178253
3.72706e-06
7.31027e-12
0.00197016
0.000399488
2.83995e-10
0.001871
0.00038014
-1.71006e-10
0.00173974
0.000330225
-1.27088e-10
0.00160988
0.000287301
-3.95365e-11
0.0014926
0.000258915
3.20224e-12
0.00140749
0.000242102
1.73586e-12
0.00134522
0.000235547
-1.53972e-11
0.00130027
0.000233607