/*--------------------------------*- C++ -*----------------------------------*\
| =========                 |                                                 |
| \\      /  F ield         | OpenFOAM: The Open Source CFD Toolbox           |
|  \\    /   O peration     | Version:  4.1                                   |
|   \\  /    A nd           | Web:      www.OpenFOAM.org                      |
|    \\/     M anipulation  |                                                 |
\*---------------------------------------------------------------------------*/
FoamFile
{
    version     2.0;
    format      ascii;
    class       volScalarField;
    location    "0.9";
    object      T;
}
// * * * * * * * * * * * * * * * * * * * * * * * * * * * * * * * * * * * * * //

dimensions      [0 0 0 1 0 0 0];

internalField   nonuniform List<scalar> 
52500
(
0.0400281
0.763499
0.901082
0.936889
0.974322
1.04111
1.10905
1.14745
1.16304
1.17397
1.18437
1.18646
1.15388
1.06493
1.01455
1.00037
1.0098
1.04494
1.06455
1.06864
1.06474
1.07084
1.08068
1.08212
1.0275
0.0386134
0.757872
0.900595
0.937117
0.974407
1.04148
1.10937
1.14774
1.16324
1.17398
1.1842
1.18616
1.15319
1.06396
1.01367
0.99915
1.00826
1.04322
1.06343
1.06779
1.06378
1.06966
1.0796
1.08084
1.02617
0.0417056
0.748951
0.900557
0.938333
0.973561
1.03997
1.10789
1.14709
1.16313
1.17388
1.18417
1.18644
1.15465
1.06547
1.01317
0.996928
1.00499
1.03952
1.06154
1.06706
1.06319
1.06887
1.0788
1.08011
1.02516
0.0487615
0.736231
0.900685
0.939105
0.971591
1.03695
1.10468
1.14516
1.16219
1.17331
1.18421
1.18761
1.15927
1.07072
1.01424
0.995368
1.00192
1.0353
1.05938
1.06625
1.06236
1.06745
1.07761
1.07906
1.02443
0.0542256
0.718063
0.899087
0.938688
0.971495
1.03393
1.1
1.14156
1.16028
1.17221
1.18369
1.18848
1.16434
1.078
1.01592
0.993469
0.997645
1.02902
1.05578
1.06473
1.06129
1.06566
1.07559
1.07746
1.02344
0.0658238
0.697104
0.897171
0.93614
0.971873
1.03064
1.09415
1.13731
1.158
1.1706
1.18248
1.18877
1.16959
1.08729
1.01829
0.991272
0.992762
1.0213
1.05096
1.06254
1.05938
1.06305
1.07205
1.07472
1.02186
0.0800287
0.668761
0.893974
0.930946
0.972316
1.02638
1.08682
1.13219
1.15545
1.16902
1.18115
1.18859
1.17408
1.09711
1.02122
0.988862
0.987246
1.0115
1.04418
1.05859
1.057
1.05972
1.06747
1.07078
1.01902
0.0959671
0.630798
0.887603
0.923172
0.972796
1.02088
1.07794
1.12616
1.15253
1.16732
1.17975
1.18799
1.17799
1.10828
1.02511
0.986609
0.981028
1.00046
1.03571
1.05298
1.05327
1.0552
1.0596
1.06328
1.01371
0.116814
0.587215
0.879717
0.913419
0.973082
1.01405
1.06751
1.11941
1.14937
1.1656
1.17828
1.18696
1.18123
1.12109
1.03055
0.985044
0.974361
0.98829
1.02449
1.04534
1.04753
1.04845
1.05024
1.05272
1.00221
0.140759
0.543834
0.85978
0.897243
0.971098
1.00676
1.05745
1.11281
1.14597
1.16388
1.17687
1.18571
1.18356
1.13467
1.03788
0.984548
0.968109
0.976981
1.01024
1.03441
1.03961
1.03971
1.03833
1.03458
0.977551
0.0399839
0.763475
0.901036
0.936869
0.974321
1.04115
1.1091
1.14749
1.16307
1.17401
1.18437
1.18645
1.15376
1.0648
1.01453
1.00039
1.00982
1.04493
1.06453
1.06861
1.06471
1.07082
1.08063
1.08208
1.02752
0.0386386
0.757876
0.900569
0.937113
0.974406
1.04142
1.10928
1.14764
1.16314
1.17386
1.18413
1.18618
1.15357
1.06443
1.01385
0.999167
1.0082
1.0431
1.06335
1.06774
1.06375
1.06964
1.07955
1.0808
1.02619
0.0417099
0.748937
0.900529
0.938327
0.973569
1.03993
1.1078
1.147
1.163
1.17373
1.1841
1.1865
1.1551
1.06606
1.0135
0.9971
1.00507
1.03949
1.06152
1.06704
1.06317
1.06886
1.07876
1.08007
1.02517
0.0487094
0.736183
0.900644
0.939094
0.971596
1.03694
1.10464
1.14509
1.1621
1.17321
1.18413
1.18762
1.15955
1.07117
1.01455
0.995634
1.00218
1.0355
1.05946
1.06625
1.06233
1.06743
1.07756
1.07903
1.02444
0.054226
0.718047
0.899052
0.938681
0.971489
1.03393
1.1
1.14156
1.16025
1.17216
1.18364
1.18844
1.1642
1.07779
1.01585
0.993464
0.997703
1.02915
1.05586
1.06474
1.06127
1.06564
1.07556
1.07743
1.02345
0.0658006
0.697063
0.897134
0.936135
0.971865
1.03063
1.09415
1.1373
1.15799
1.17059
1.18246
1.18873
1.16941
1.08697
1.01812
0.991211
0.992754
1.02132
1.05093
1.06249
1.05934
1.06302
1.07202
1.07469
1.02186
0.0800299
0.668729
0.893944
0.930944
0.972306
1.02637
1.08681
1.13216
1.15543
1.16901
1.18113
1.18854
1.17385
1.09665
1.02103
0.988905
0.987415
1.01177
1.0443
1.05857
1.05696
1.05969
1.06744
1.07075
1.01901
0.09596
0.630753
0.887578
0.923171
0.972784
1.02087
1.07793
1.12613
1.15249
1.1673
1.17973
1.18794
1.1777
1.10756
1.02483
0.986721
0.981368
1.00098
1.03606
1.05311
1.05327
1.05517
1.05957
1.06325
1.0137
0.11681
0.587166
0.879701
0.913415
0.973064
1.01403
1.0675
1.11939
1.14934
1.16558
1.17826
1.18692
1.18098
1.12032
1.0302
0.985149
0.974733
0.988829
1.02497
1.04558
1.04759
1.04845
1.05022
1.05269
1.0022
0.140771
0.543785
0.859779
0.897235
0.971079
1.00674
1.05743
1.1128
1.14594
1.16385
1.17685
1.18569
1.1834
1.13401
1.03751
0.984591
0.968405
0.977394
1.01068
1.03465
1.03968
1.03973
1.03832
1.03455
0.977535
0.0400154
0.763463
0.901056
0.936875
0.97431
1.04111
1.10906
1.14745
1.16304
1.17399
1.18436
1.1864
1.1536
1.06464
1.0145
1.00046
1.00995
1.04508
1.06459
1.06863
1.06471
1.07082
1.08065
1.08209
1.02752
0.0386149
0.757839
0.900571
0.937108
0.974397
1.04146
1.10935
1.14771
1.16321
1.17396
1.18418
1.18612
1.15308
1.06387
1.0137
0.999247
1.00839
1.04333
1.06347
1.06778
1.06375
1.06964
1.07957
1.08081
1.02619
0.0417109
0.748915
0.900532
0.938326
0.973553
1.03995
1.10786
1.14706
1.16309
1.17383
1.18413
1.18641
1.15463
1.06551
1.01323
0.996986
1.00504
1.03953
1.06153
1.06704
1.06317
1.06886
1.07878
1.08009
1.02518
0.0487451
0.736182
0.900649
0.939094
0.971588
1.03693
1.10465
1.14513
1.16216
1.17327
1.18417
1.18759
1.15938
1.07093
1.0144
0.995528
1.00209
1.03544
1.05943
1.06625
1.06234
1.06744
1.07759
1.07904
1.02445
0.0542296
0.718018
0.899054
0.938677
0.971489
1.03391
1.09998
1.14155
1.16026
1.17218
1.18366
1.18847
1.16433
1.07796
1.01593
0.993489
0.997686
1.02908
1.05582
1.06473
1.06128
1.06565
1.07558
1.07745
1.02346
0.065819
0.697042
0.897135
0.936127
0.971866
1.03062
1.09413
1.1373
1.15799
1.17058
1.18246
1.18878
1.16968
1.08746
1.01836
0.991252
0.992706
1.02121
1.0509
1.0625
1.05936
1.06304
1.07205
1.07471
1.02187
0.0800361
0.668694
0.893938
0.930932
0.972308
1.02636
1.0868
1.13217
1.15544
1.169
1.18112
1.18857
1.17416
1.09736
1.02135
0.988882
0.987222
1.01141
1.04409
1.05852
1.05697
1.0597
1.06746
1.07077
1.01902
0.0959729
0.630713
0.887563
0.923156
0.972788
1.02086
1.07792
1.12614
1.15251
1.1673
1.17972
1.18797
1.17798
1.10832
1.02516
0.986634
0.981056
1.0005
1.03572
1.05297
1.05325
1.05519
1.05959
1.06327
1.01372
0.116823
0.58712
0.879678
0.913397
0.973069
1.01403
1.06749
1.11939
1.14935
1.16558
1.17825
1.18694
1.18119
1.12097
1.0305
0.985051
0.974411
0.988383
1.02458
1.04539
1.04754
1.04845
1.05023
1.05271
1.00221
0.140782
0.543732
0.859733
0.897218
0.971077
1.00674
1.05742
1.1128
1.14595
1.16386
1.17686
1.18572
1.18353
1.13446
1.03774
0.984517
0.96815
0.977065
1.01036
1.03449
1.03963
1.03973
1.03833
1.03457
0.977551
0.0400124
0.763448
0.901045
0.936868
0.974304
1.04112
1.10906
1.14746
1.16305
1.174
1.18437
1.18641
1.1536
1.06463
1.0145
1.00046
1.00996
1.04509
1.06459
1.06862
1.0647
1.07081
1.08064
1.08209
1.02752
0.0386163
0.757824
0.900561
0.937103
0.974392
1.04145
1.10935
1.14771
1.16321
1.17396
1.18418
1.18612
1.1531
1.06389
1.0137
0.999246
1.00839
1.04333
1.06346
1.06777
1.06374
1.06963
1.07956
1.0808
1.02618
0.0417094
0.748896
0.90052
0.938322
0.97355
1.03995
1.10786
1.14706
1.16309
1.17383
1.18414
1.18643
1.15467
1.06554
1.01328
0.997039
1.0051
1.03959
1.06156
1.06704
1.06316
1.06885
1.07877
1.08008
1.02517
0.048745
0.736163
0.900637
0.939089
0.971586
1.03693
1.10465
1.14513
1.16216
1.17326
1.18417
1.18761
1.15946
1.07105
1.01448
0.995577
1.00213
1.03546
1.05944
1.06624
1.06232
1.06743
1.07758
1.07904
1.02445
0.0542303
0.717998
0.899041
0.938672
0.971486
1.03392
1.09999
1.14155
1.16026
1.17217
1.18365
1.18847
1.16436
1.07803
1.01593
0.993442
0.997627
1.02903
1.0558
1.06472
1.06127
1.06564
1.07557
1.07744
1.02345
0.065821
0.69702
0.897123
0.936122
0.971864
1.03062
1.09413
1.1373
1.15799
1.17058
1.18246
1.18877
1.16961
1.08733
1.01828
0.991205
0.992673
1.02116
1.05085
1.06247
1.05934
1.06303
1.07203
1.07471
1.02186
0.0800406
0.668669
0.893925
0.930925
0.972306
1.02636
1.0868
1.13217
1.15544
1.16901
1.18113
1.18858
1.17405
1.09707
1.02123
0.988899
0.987313
1.01157
1.04418
1.05854
1.05696
1.05969
1.06745
1.07077
1.01902
0.0959792
0.630684
0.88755
0.923149
0.972785
1.02086
1.07792
1.12614
1.15251
1.16732
1.17975
1.18798
1.17788
1.108
1.02503
0.986695
0.981221
1.00075
1.03591
1.05306
1.05327
1.05518
1.05958
1.06326
1.01371
0.116831
0.587091
0.879665
0.913389
0.973066
1.01402
1.06749
1.11939
1.14936
1.16559
1.17827
1.18695
1.18113
1.12074
1.0304
0.985108
0.974556
0.988582
1.02477
1.0455
1.04758
1.04845
1.05023
1.0527
1.00221
0.140795
0.543702
0.859714
0.897211
0.971073
1.00674
1.05742
1.1128
1.14595
1.16387
1.17687
1.18572
1.18351
1.13436
1.0377
0.984546
0.968219
0.977148
1.01044
1.03454
1.03965
1.03973
1.03832
1.03456
0.977545
0.040033
0.763407
0.901062
0.936871
0.9743
1.04111
1.10905
1.14744
1.16303
1.17399
1.18436
1.18641
1.15362
1.06466
1.01451
1.00046
1.00995
1.04507
1.06458
1.06862
1.06471
1.07081
1.08065
1.08209
1.02751
0.0386334
0.75778
0.900574
0.937108
0.974388
1.04145
1.10933
1.1477
1.1632
1.17395
1.18418
1.18613
1.15311
1.0639
1.01371
0.999239
1.00838
1.04331
1.06345
1.06777
1.06374
1.06963
1.07957
1.08081
1.02618
0.0417244
0.748848
0.900531
0.93833
0.973544
1.03994
1.10785
1.14705
1.16308
1.17383
1.18414
1.18643
1.15467
1.06555
1.01329
0.997042
1.0051
1.03958
1.06155
1.06704
1.06317
1.06885
1.07878
1.08009
1.02517
0.0487764
0.736129
0.900648
0.939095
0.971584
1.03693
1.10464
1.14512
1.16215
1.17325
1.18417
1.18762
1.15941
1.07095
1.01442
0.995535
1.0021
1.03543
1.05942
1.06624
1.06233
1.06743
1.07758
1.07904
1.02445
0.0542487
0.717956
0.899049
0.938671
0.971489
1.03391
1.09998
1.14153
1.16025
1.17217
1.18365
1.18847
1.16444
1.0782
1.01602
0.993492
0.997656
1.02902
1.05579
1.06473
1.06127
1.06564
1.07557
1.07744
1.02345
0.0658531
0.696986
0.897131
0.936115
0.971868
1.03062
1.09412
1.13729
1.15798
1.17058
1.18245
1.18875
1.16959
1.08732
1.01829
0.991213
0.99268
1.02116
1.05084
1.06246
1.05934
1.06302
1.07203
1.0747
1.02187
0.0800617
0.668623
0.893928
0.930914
0.972312
1.02636
1.08678
1.13216
1.15543
1.169
1.18113
1.18858
1.174
1.09691
1.02112
0.988842
0.987275
1.01156
1.04418
1.05854
1.05696
1.05969
1.06745
1.07076
1.01902
0.096006
0.630633
0.887543
0.923136
0.972794
1.02085
1.0779
1.12613
1.15251
1.16731
1.17975
1.18799
1.17789
1.10795
1.02497
0.986656
0.981191
1.00073
1.0359
1.05305
1.05327
1.05518
1.05958
1.06326
1.01372
0.116856
0.587037
0.879646
0.913372
0.973079
1.01402
1.06748
1.11938
1.14935
1.16559
1.17827
1.18696
1.18115
1.1208
1.03042
0.985111
0.974549
0.988567
1.02475
1.04549
1.04757
1.04845
1.05022
1.0527
1.00221
0.140822
0.543645
0.859657
0.897202
0.971081
1.00674
1.05741
1.11278
1.14595
1.16387
1.17687
1.18571
1.18352
1.13451
1.03781
0.984597
0.968236
0.977147
1.01042
1.03452
1.03964
1.03972
1.03832
1.03456
0.977552
0.0400265
0.763412
0.901054
0.936868
0.974299
1.04111
1.10905
1.14745
1.16304
1.17399
1.18437
1.18641
1.15359
1.06462
1.0145
1.00046
1.00996
1.04509
1.06459
1.06862
1.06471
1.07082
1.08065
1.08209
1.02751
0.0386289
0.757787
0.900567
0.937104
0.974387
1.04145
1.10934
1.1477
1.1632
1.17395
1.18418
1.18612
1.15309
1.06388
1.0137
0.999244
1.0084
1.04333
1.06346
1.06777
1.06374
1.06963
1.07957
1.08081
1.02618
0.041721
0.748855
0.900524
0.938326
0.973543
1.03994
1.10785
1.14705
1.16308
1.17383
1.18414
1.18643
1.15466
1.06554
1.01328
0.997044
1.00511
1.03959
1.06156
1.06704
1.06317
1.06885
1.07878
1.08009
1.02517
0.0487665
0.736132
0.90064
0.939092
0.971583
1.03693
1.10464
1.14512
1.16215
1.17325
1.18417
1.18762
1.15941
1.07095
1.01442
0.995538
1.00211
1.03545
1.05944
1.06624
1.06233
1.06743
1.07758
1.07904
1.02444
0.0542442
0.717962
0.899042
0.93867
0.971487
1.03391
1.09998
1.14154
1.16025
1.17217
1.18365
1.18847
1.16443
1.07819
1.01602
0.993493
0.997662
1.02904
1.0558
1.06473
1.06127
1.06564
1.07557
1.07744
1.02345
0.0658436
0.696989
0.897124
0.936115
0.971865
1.03062
1.09412
1.13729
1.15798
1.17058
1.18245
1.18875
1.16958
1.08731
1.01828
0.991211
0.992682
1.02117
1.05085
1.06247
1.05935
1.06303
1.07204
1.07471
1.02186
0.080056
0.668629
0.893923
0.930915
0.972308
1.02636
1.08679
1.13216
1.15543
1.169
1.18113
1.18858
1.17399
1.0969
1.02112
0.988841
0.987275
1.01157
1.04418
1.05854
1.05696
1.0597
1.06745
1.07077
1.01902
0.0959983
0.63064
0.88754
0.923137
0.97279
1.02085
1.07791
1.12614
1.15251
1.16731
1.17975
1.18799
1.17788
1.10794
1.02496
0.986655
0.981194
1.00074
1.03591
1.05306
1.05327
1.05518
1.05959
1.06327
1.01371
0.116849
0.587045
0.879647
0.913375
0.973074
1.01402
1.06748
1.11939
1.14935
1.16559
1.17828
1.18696
1.18115
1.12079
1.03042
0.98511
0.974551
0.988573
1.02476
1.0455
1.04758
1.04845
1.05023
1.0527
1.00221
0.140814
0.543655
0.859667
0.897202
0.971077
1.00674
1.05741
1.11278
1.14595
1.16387
1.17687
1.18571
1.18352
1.13449
1.0378
0.984594
0.968236
0.97715
1.01043
1.03453
1.03965
1.03973
1.03832
1.03456
0.97755
0.0400123
0.763448
0.901045
0.936868
0.974304
1.04112
1.10906
1.14746
1.16305
1.174
1.18437
1.18641
1.1536
1.06463
1.0145
1.00046
1.00996
1.04509
1.06459
1.06862
1.0647
1.07081
1.08064
1.08209
1.02752
0.0386162
0.757824
0.90056
0.937103
0.974392
1.04145
1.10935
1.14771
1.16321
1.17396
1.18418
1.18612
1.1531
1.06389
1.0137
0.999246
1.00839
1.04333
1.06346
1.06777
1.06374
1.06963
1.07956
1.0808
1.02618
0.0417093
0.748896
0.90052
0.938321
0.97355
1.03995
1.10786
1.14706
1.16309
1.17383
1.18414
1.18643
1.15467
1.06554
1.01328
0.997039
1.0051
1.03959
1.06156
1.06704
1.06316
1.06885
1.07877
1.08008
1.02517
0.048745
0.736163
0.900637
0.939089
0.971586
1.03693
1.10465
1.14513
1.16216
1.17326
1.18417
1.18761
1.15946
1.07105
1.01448
0.995577
1.00213
1.03546
1.05944
1.06624
1.06232
1.06743
1.07758
1.07904
1.02445
0.0542303
0.717998
0.899041
0.938672
0.971486
1.03392
1.09999
1.14155
1.16026
1.17217
1.18365
1.18847
1.16436
1.07803
1.01593
0.993442
0.997627
1.02903
1.0558
1.06472
1.06127
1.06564
1.07557
1.07744
1.02345
0.0658209
0.69702
0.897122
0.936121
0.971864
1.03062
1.09413
1.1373
1.15799
1.17058
1.18246
1.18877
1.16961
1.08733
1.01828
0.991205
0.992673
1.02116
1.05085
1.06247
1.05934
1.06303
1.07203
1.07471
1.02186
0.0800405
0.668669
0.893925
0.930925
0.972306
1.02636
1.0868
1.13217
1.15544
1.16901
1.18113
1.18858
1.17405
1.09707
1.02123
0.988899
0.987313
1.01157
1.04418
1.05854
1.05696
1.05969
1.06745
1.07077
1.01902
0.0959791
0.630684
0.88755
0.923149
0.972785
1.02086
1.07792
1.12614
1.15251
1.16732
1.17975
1.18798
1.17788
1.108
1.02503
0.986695
0.981221
1.00075
1.03591
1.05306
1.05327
1.05518
1.05958
1.06326
1.01371
0.116831
0.587091
0.879665
0.913389
0.973066
1.01402
1.06749
1.11939
1.14936
1.16559
1.17827
1.18695
1.18113
1.12074
1.0304
0.985108
0.974556
0.988582
1.02477
1.0455
1.04758
1.04845
1.05023
1.0527
1.00221
0.140795
0.543702
0.859714
0.897211
0.971073
1.00674
1.05742
1.1128
1.14595
1.16387
1.17687
1.18572
1.18351
1.13436
1.0377
0.984546
0.968219
0.977148
1.01044
1.03454
1.03965
1.03973
1.03832
1.03456
0.977545
0.0400154
0.763463
0.901056
0.936875
0.97431
1.04111
1.10906
1.14745
1.16304
1.17399
1.18436
1.1864
1.1536
1.06464
1.0145
1.00046
1.00995
1.04508
1.06459
1.06863
1.06471
1.07082
1.08065
1.08209
1.02752
0.0386149
0.757839
0.900571
0.937108
0.974397
1.04146
1.10935
1.14771
1.16321
1.17396
1.18418
1.18612
1.15308
1.06387
1.0137
0.999247
1.00839
1.04333
1.06347
1.06778
1.06375
1.06964
1.07957
1.08081
1.02619
0.0417109
0.748915
0.900532
0.938326
0.973553
1.03995
1.10786
1.14706
1.16309
1.17383
1.18413
1.18641
1.15463
1.06551
1.01323
0.996986
1.00504
1.03953
1.06153
1.06704
1.06317
1.06886
1.07878
1.08009
1.02518
0.0487451
0.736182
0.900649
0.939094
0.971588
1.03693
1.10465
1.14513
1.16216
1.17327
1.18417
1.18759
1.15938
1.07093
1.0144
0.995528
1.00209
1.03544
1.05943
1.06625
1.06234
1.06744
1.07759
1.07904
1.02445
0.0542296
0.718018
0.899054
0.938677
0.971489
1.03391
1.09998
1.14155
1.16026
1.17218
1.18366
1.18847
1.16433
1.07796
1.01593
0.993489
0.997686
1.02908
1.05582
1.06473
1.06128
1.06565
1.07558
1.07745
1.02346
0.065819
0.697042
0.897135
0.936127
0.971866
1.03062
1.09413
1.1373
1.15799
1.17058
1.18246
1.18878
1.16968
1.08746
1.01836
0.991252
0.992706
1.02121
1.0509
1.0625
1.05936
1.06304
1.07205
1.07471
1.02187
0.0800361
0.668694
0.893938
0.930932
0.972308
1.02636
1.0868
1.13217
1.15544
1.169
1.18112
1.18857
1.17416
1.09736
1.02135
0.988882
0.987222
1.01141
1.04409
1.05852
1.05697
1.0597
1.06746
1.07077
1.01902
0.0959729
0.630713
0.887563
0.923156
0.972788
1.02086
1.07792
1.12614
1.15251
1.1673
1.17972
1.18797
1.17798
1.10832
1.02516
0.986634
0.981056
1.0005
1.03572
1.05297
1.05325
1.05519
1.05959
1.06327
1.01372
0.116823
0.58712
0.879678
0.913397
0.973069
1.01403
1.06749
1.11939
1.14935
1.16558
1.17825
1.18694
1.18119
1.12097
1.0305
0.985051
0.974411
0.988383
1.02458
1.04539
1.04754
1.04845
1.05023
1.05271
1.00221
0.140782
0.543731
0.859733
0.897218
0.971077
1.00674
1.05742
1.1128
1.14595
1.16386
1.17686
1.18572
1.18353
1.13446
1.03774
0.984517
0.96815
0.977065
1.01036
1.03449
1.03963
1.03973
1.03833
1.03457
0.977551
0.0399838
0.763475
0.901036
0.936868
0.974321
1.04115
1.1091
1.14749
1.16307
1.17401
1.18437
1.18645
1.15376
1.0648
1.01453
1.00039
1.00982
1.04493
1.06453
1.06861
1.06471
1.07082
1.08063
1.08208
1.02752
0.0386386
0.757876
0.900568
0.937113
0.974406
1.04142
1.10928
1.14764
1.16314
1.17386
1.18413
1.18618
1.15357
1.06443
1.01385
0.999167
1.0082
1.04309
1.06335
1.06774
1.06375
1.06964
1.07955
1.0808
1.02619
0.0417097
0.748937
0.900529
0.938327
0.973569
1.03993
1.1078
1.147
1.163
1.17373
1.1841
1.1865
1.1551
1.06606
1.0135
0.9971
1.00507
1.03949
1.06152
1.06704
1.06317
1.06886
1.07876
1.08007
1.02517
0.0487093
0.736182
0.900644
0.939094
0.971596
1.03694
1.10464
1.14509
1.1621
1.17321
1.18413
1.18762
1.15955
1.07117
1.01455
0.995634
1.00218
1.03549
1.05946
1.06625
1.06233
1.06743
1.07756
1.07903
1.02444
0.054226
0.718046
0.899052
0.938681
0.971489
1.03393
1.1
1.14156
1.16025
1.17216
1.18364
1.18844
1.1642
1.07778
1.01585
0.993464
0.997703
1.02915
1.05586
1.06474
1.06127
1.06564
1.07556
1.07743
1.02345
0.0658006
0.697063
0.897134
0.936135
0.971865
1.03063
1.09415
1.1373
1.15799
1.17059
1.18246
1.18873
1.16941
1.08697
1.01812
0.991211
0.992754
1.02132
1.05093
1.06249
1.05934
1.06302
1.07202
1.07469
1.02186
0.0800299
0.668729
0.893943
0.930944
0.972306
1.02637
1.08681
1.13216
1.15543
1.16901
1.18113
1.18854
1.17385
1.09665
1.02103
0.988906
0.987415
1.01177
1.0443
1.05857
1.05696
1.05969
1.06744
1.07075
1.01901
0.0959601
0.630753
0.887578
0.923171
0.972784
1.02087
1.07793
1.12613
1.15249
1.1673
1.17973
1.18794
1.1777
1.10756
1.02483
0.986722
0.981368
1.00098
1.03606
1.05311
1.05327
1.05517
1.05957
1.06325
1.0137
0.11681
0.587166
0.879701
0.913415
0.973063
1.01403
1.0675
1.11939
1.14934
1.16558
1.17826
1.18692
1.18098
1.12032
1.0302
0.985149
0.974733
0.988829
1.02497
1.04558
1.04759
1.04845
1.05022
1.05269
1.0022
0.140771
0.543784
0.859779
0.897234
0.971079
1.00674
1.05743
1.1128
1.14594
1.16385
1.17685
1.18569
1.1834
1.13401
1.03751
0.984591
0.968405
0.977393
1.01068
1.03465
1.03968
1.03973
1.03832
1.03455
0.977535
0.0400039
0.763526
0.901051
0.93688
0.974327
1.04115
1.1091
1.14749
1.16308
1.17404
1.18438
1.1864
1.1535
1.06448
1.01437
1.00034
1.00984
1.04501
1.06457
1.06864
1.06474
1.07085
1.08074
1.08218
1.02741
0.0385911
0.757899
0.900567
0.937108
0.974415
1.0415
1.1094
1.14776
1.16326
1.174
1.18421
1.18614
1.15309
1.06384
1.01362
0.999144
1.00827
1.04322
1.06342
1.06778
1.06378
1.06967
1.07966
1.0809
1.02609
0.0416994
0.748989
0.900536
0.938325
0.97357
1.03998
1.1079
1.14711
1.16312
1.17384
1.18416
1.18648
1.15488
1.06578
1.01336
0.997008
1.00499
1.03943
1.06148
1.06704
1.0632
1.06888
1.07887
1.08018
1.02508
0.0487365
0.736253
0.900665
0.939098
0.971601
1.03695
1.10467
1.14516
1.16217
1.17323
1.18416
1.1877
1.15994
1.07166
1.01461
0.995436
1.00186
1.03517
1.05931
1.06623
1.06236
1.06746
1.07767
1.07913
1.02436
0.0542032
0.718086
0.899068
0.938686
0.971499
1.03393
1.10002
1.14157
1.16026
1.17214
1.18361
1.18849
1.16469
1.0786
1.01608
0.99333
0.99736
1.02863
1.05557
1.06466
1.06129
1.06567
1.07565
1.07752
1.02338
0.0657972
0.697125
0.897154
0.936143
0.971873
1.03065
1.09417
1.13734
1.15801
1.17058
1.18243
1.18876
1.16957
1.08724
1.01822
0.991173
0.992646
1.02114
1.05083
1.06247
1.05937
1.06305
1.07209
1.07477
1.0218
0.0800098
0.668791
0.893965
0.930955
0.972313
1.02639
1.08684
1.13221
1.15547
1.16903
1.18116
1.18859
1.17388
1.09658
1.02101
0.988936
0.987453
1.01181
1.04432
1.05861
1.057
1.05972
1.06749
1.07083
1.01897
0.0959504
0.630834
0.887609
0.923185
0.972785
1.02088
1.07796
1.12618
1.15255
1.16735
1.17979
1.18801
1.17778
1.1076
1.02486
0.986783
0.981428
1.00104
1.03612
1.05317
1.05331
1.0552
1.05962
1.06331
1.01367
0.116796
0.587256
0.879734
0.913434
0.973069
1.01405
1.06753
1.11943
1.14939
1.16562
1.1783
1.18697
1.18109
1.12061
1.03038
0.985217
0.974726
0.988773
1.02493
1.0456
1.04762
1.04847
1.05024
1.05274
1.00218
0.140743
0.54388
0.859828
0.897252
0.971093
1.00676
1.05746
1.11283
1.14597
1.16389
1.17688
1.1857
1.18349
1.13444
1.03783
0.984648
0.968297
0.977199
1.01047
1.03456
1.03967
1.03973
1.03832
1.03457
0.977532
0.177486
0.500833
0.869869
0.894083
0.967076
1.00247
1.04956
1.10556
1.14192
1.16175
1.17519
1.18428
1.18485
1.14726
1.049
0.985221
0.962575
0.966822
0.996294
1.02494
1.03097
1.02941
1.02104
1.00938
0.901781
0.209058
0.472619
0.879483
0.900811
0.966008
0.998128
1.04275
1.09957
1.13894
1.16011
1.17369
1.18263
1.18466
1.15648
1.06324
0.988014
0.956904
0.955137
0.975929
1.00714
1.01803
1.01555
1.00155
0.984676
0.900767
0.237705
0.447425
0.876555
0.905297
0.963317
0.995095
1.03454
1.09238
1.13449
1.15746
1.1715
1.18024
1.18306
1.16405
1.07986
0.993582
0.95368
0.945351
0.959562
0.99177
1.00482
1.00386
0.987247
0.969114
0.907653
0.281694
0.445021
0.845684
0.915001
0.956813
0.992216
1.02802
1.08369
1.12833
1.1542
1.16888
1.17724
1.18009
1.16898
1.09917
1.00345
0.952801
0.936484
0.94363
0.972176
0.989907
0.991842
0.977267
0.958566
0.92057
0.294185
0.441634
0.809804
0.922067
0.962926
0.986274
1.01809
1.07099
1.11901
1.14917
1.16522
1.17353
1.17615
1.17065
1.119
1.01714
0.955121
0.929842
0.930742
0.951631
0.974242
0.97993
0.972304
0.949406
0.919263
0.308127
0.438502
0.768125
0.927466
0.964678
0.976847
1.0049
1.05595
1.10747
1.14189
1.15996
1.16925
1.17229
1.1702
1.13586
1.03793
0.961472
0.924814
0.918369
0.930905
0.956128
0.965402
0.962984
0.946386
0.916417
0.325539
0.434009
0.720013
0.932691
0.959298
0.964945
0.992949
1.04544
1.09838
1.13547
1.15531
1.16489
1.16908
1.16874
1.14818
1.06363
0.973329
0.923667
0.906875
0.911757
0.935083
0.952596
0.953984
0.944587
0.9183
0.343383
0.424861
0.664464
0.935072
0.944352
0.956517
0.994431
1.0371
1.08498
1.12336
1.1467
1.1583
1.16483
1.16654
1.15562
1.09128
0.990649
0.92724
0.898684
0.89658
0.911617
0.933795
0.94033
0.938037
0.92299
0.353101
0.41116
0.608454
0.893431
0.919126
0.958603
1.00231
1.02995
1.0701
1.11
1.13657
1.15151
1.16021
1.16394
1.15929
1.11555
1.01188
0.935231
0.8944
0.884131
0.89039
0.914661
0.929594
0.930859
0.924555
0.358291
0.406935
0.557942
0.848863
0.921948
0.970447
1.01275
1.02725
1.05348
1.09414
1.12659
1.14533
1.15564
1.16148
1.16074
1.1339
1.04187
0.949925
0.895761
0.874334
0.873994
0.889042
0.912655
0.920358
0.919178
0.365064
0.405279
0.523386
0.789962
0.922387
0.979742
1.00881
1.01777
1.03652
1.07729
1.11358
1.13619
1.14976
1.15897
1.16093
1.14691
1.07508
0.971086
0.901998
0.867854
0.86032
0.866552
0.890843
0.906835
0.910351
0.374512
0.406052
0.496822
0.71345
0.916825
0.981857
0.990635
1.00075
1.02168
1.05916
1.09832
1.12759
1.14612
1.15619
1.16018
1.15424
1.10532
0.998142
0.915051
0.867469
0.849512
0.84936
0.86221
0.889197
0.900345
0.386968
0.407344
0.467919
0.630447
0.906642
0.959754
0.961722
0.987912
1.01418
1.0448
1.08211
1.11753
1.14076
1.15303
1.15839
1.15672
1.12945
1.03559
0.936096
0.87357
0.84327
0.83498
0.838979
0.85903
0.881974
0.3926
0.40054
0.44194
0.576116
0.867165
0.922401
0.944195
0.989775
1.01271
1.0336
1.06939
1.1053
1.13265
1.1487
1.15536
1.15595
1.14285
1.07212
0.966564
0.888192
0.844687
0.826714
0.824747
0.833325
0.85799
0.381278
0.384133
0.416622
0.527216
0.795339
0.906108
0.953491
0.993951
1.0114
1.02349
1.05152
1.09223
1.12354
1.14219
1.15132
1.15371
1.14873
1.1059
0.998758
0.910818
0.852164
0.822784
0.813853
0.815161
0.829322
0.36782
0.369124
0.392158
0.476179
0.680432
0.904107
0.96654
0.987134
0.995443
1.00884
1.0383
1.07631
1.11132
1.13462
1.14651
1.15088
1.14981
1.12869
1.04113
0.937277
0.867549
0.825277
0.805796
0.801993
0.805388
0.359624
0.356821
0.371349
0.42473
0.572177
0.866753
0.947593
0.952227
0.971701
1.002
1.02589
1.05866
1.09462
1.12326
1.14057
1.14802
1.14889
1.14118
1.08591
0.96944
0.885892
0.833233
0.803675
0.79249
0.791738
0.353708
0.346955
0.357204
0.395471
0.516059
0.795053
0.906594
0.935835
0.971066
0.997649
1.01563
1.04015
1.07572
1.10888
1.13063
1.14245
1.14683
1.14527
1.11958
1.01994
0.912269
0.846111
0.807699
0.787279
0.781942
0.348629
0.338557
0.345468
0.371275
0.457247
0.673389
0.899847
0.942172
0.966954
0.979632
0.995543
1.02332
1.0566
1.09041
1.11869
1.13565
1.14348
1.1447
1.13623
1.07699
0.952326
0.866838
0.81678
0.787939
0.774129
0.344926
0.332151
0.33651
0.352831
0.40414
0.551123
0.839729
0.927114
0.936496
0.96128
0.984329
1.00707
1.03762
1.0739
1.10446
1.12682
1.13895
1.14307
1.14176
1.11715
1.01779
0.902072
0.832822
0.794052
0.771573
0.342004
0.327419
0.330345
0.341441
0.375706
0.483863
0.731347
0.895753
0.929287
0.954775
0.973537
0.984957
1.01303
1.05096
1.0892
1.11538
1.13139
1.13971
1.14174
1.13375
1.08391
0.961171
0.862385
0.807596
0.776793
0.339819
0.323683
0.325517
0.332452
0.353309
0.418132
0.592441
0.8672
0.922515
0.931667
0.95239
0.974493
0.992218
1.0296
1.06506
1.09999
1.12273
1.13462
1.14016
1.13906
1.11914
1.03672
0.917637
0.834755
0.78943
0.33825
0.321112
0.322321
0.326897
0.340373
0.379961
0.502998
0.757008
0.891341
0.920621
0.942618
0.963745
0.974788
0.996706
1.04298
1.07837
1.1074
1.12706
1.13671
1.13953
1.13356
1.0939
0.987086
0.885257
0.815485
0.337169
0.319217
0.319972
0.322882
0.331308
0.355348
0.430842
0.620125
0.875099
0.916445
0.923267
0.941552
0.964709
0.981496
1.00753
1.05363
1.08947
1.11395
1.1302
1.13776
1.13697
1.12271
1.05963
0.946747
0.860564
0.336446
0.317928
0.318424
0.320339
0.325689
0.340401
0.382791
0.514101
0.768469
0.883766
0.912748
0.929184
0.952753
0.96554
0.983198
1.01724
1.06317
1.09774
1.12001
1.1334
1.13598
1.13212
1.10653
1.01999
0.915018
0.33594
0.317042
0.317461
0.318755
0.322118
0.330974
0.355787
0.43403
0.6272
0.869045
0.905496
0.91411
0.931181
0.955677
0.970912
0.988432
1.02467
1.07021
1.10461
1.12538
1.13342
1.13313
1.12501
1.08388
0.980742
0.335847
0.316763
0.317133
0.317899
0.319901
0.325228
0.339861
0.381966
0.513492
0.760104
0.873204
0.906173
0.918184
0.939493
0.955428
0.972379
0.992028
1.03156
1.07677
1.10992
1.12745
1.13125
1.12892
1.11387
1.05335
0.336414
0.316881
0.316978
0.317476
0.318721
0.321889
0.330251
0.353751
0.427452
0.613598
0.858145
0.891492
0.905241
0.919479
0.944266
0.957507
0.972788
0.994295
1.03777
1.08326
1.11454
1.1263
1.12683
1.12217
1.0982
0.336724
0.317027
0.316926
0.317186
0.317914
0.319798
0.324671
0.337927
0.376297
0.499705
0.73218
0.862058
0.897608
0.907103
0.92401
0.944956
0.959392
0.973381
0.996436
1.04409
1.08976
1.11512
1.12218
1.12111
1.11271
0.336892
0.317184
0.316836
0.31698
0.317396
0.318469
0.321222
0.328433
0.348638
0.410686
0.58025
0.832505
0.873341
0.895972
0.906813
0.928608
0.944078
0.958523
0.972741
0.998463
1.05087
1.09408
1.11279
1.11703
1.11397
0.336986
0.317273
0.316769
0.316844
0.317075
0.317684
0.319253
0.323304
0.334269
0.366056
0.469836
0.684897
0.853302
0.884186
0.894766
0.908099
0.93131
0.944689
0.957528
0.971931
1.00261
1.05521
1.09301
1.10823
1.10969
0.337026
0.317311
0.316718
0.316754
0.31688
0.31722
0.318088
0.320312
0.326081
0.342112
0.389314
0.535007
0.774945
0.852933
0.884267
0.892479
0.910786
0.93304
0.944666
0.955187
0.971643
1.01036
1.0582
1.08812
1.10044
0.337025
0.317321
0.316681
0.316699
0.316764
0.316942
0.317403
0.318589
0.321659
0.329862
0.353374
0.428753
0.611972
0.835795
0.862144
0.88201
0.892378
0.913179
0.931872
0.943338
0.952757
0.971841
1.01636
1.05983
1.08457
0.337008
0.317332
0.316654
0.316659
0.316687
0.316778
0.317024
0.317657
0.319284
0.323522
0.335232
0.369599
0.485476
0.690555
0.83796
0.868499
0.878739
0.893208
0.917441
0.929684
0.939994
0.95093
0.974911
1.02521
1.06813
0.337002
0.317333
0.31663
0.316634
0.316649
0.316696
0.316819
0.317142
0.317971
0.320121
0.325767
0.341742
0.389762
0.537351
0.763673
0.839177
0.868434
0.875995
0.893914
0.919834
0.929944
0.938504
0.956918
0.99507
1.05471
0.337001
0.317327
0.316627
0.316619
0.316625
0.316647
0.316708
0.316868
0.31728
0.31834
0.321109
0.328559
0.350185
0.420327
0.593091
0.811698
0.84557
0.865358
0.877049
0.897949
0.92105
0.94088
0.965667
1.01078
1.08981
0.337001
0.317324
0.316627
0.31661
0.316613
0.316623
0.316652
0.316729
0.316927
0.31744
0.318778
0.32231
0.332113
0.361216
0.461033
0.650618
0.822802
0.851425
0.862036
0.884532
0.92284
0.961873
1.01321
1.08823
1.19268
0.337002
0.317322
0.316627
0.316606
0.316607
0.316612
0.316625
0.31666
0.316752
0.316993
0.317622
0.319281
0.323696
0.336292
0.374011
0.500922
0.691482
0.823971
0.859734
0.888677
0.950969
1.03038
1.12857
1.24484
1.35505
0.337002
0.317321
0.316627
0.316604
0.316605
0.316607
0.316612
0.316628
0.31667
0.316781
0.317073
0.317838
0.319869
0.325331
0.341188
0.390512
0.537214
0.747291
0.847419
0.935876
1.06691
1.20207
1.30746
1.36273
1.33941
0.337002
0.317321
0.316628
0.316603
0.316604
0.316605
0.316608
0.316616
0.316637
0.316694
0.316845
0.317243
0.318292
0.321092
0.328809
0.351703
0.429098
0.606222
0.888294
1.0236
1.2189
1.32478
1.29275
1.25878
1.23957
0.177508
0.500795
0.869901
0.894083
0.967053
1.00245
1.04954
1.10555