/*--------------------------------*- C++ -*----------------------------------*\
| =========                 |                                                 |
| \\      /  F ield         | OpenFOAM: The Open Source CFD Toolbox           |
|  \\    /   O peration     | Version:  4.1                                   |
|   \\  /    A nd           | Web:      www.OpenFOAM.org                      |
|    \\/     M anipulation  |                                                 |
\*---------------------------------------------------------------------------*/
FoamFile
{
    version     2.0;
    format      ascii;
    class       volScalarField;
    location    "0.7";
    object      Ma;
}
// * * * * * * * * * * * * * * * * * * * * * * * * * * * * * * * * * * * * * //

dimensions      [0 0 0 0 0 0 0];

internalField   nonuniform List<scalar> 
52500
(
3.27526
2.04941
0.591669
0.035014
0.0744471
0.322852
0.185949
0.141652
0.202404
0.236258
0.242542
0.255642
0.270922
0.279241
0.28103
0.279705
0.272016
0.256678
0.231851
0.187659
0.135547
0.0864963
0.0626469
0.0361543
0.0369564
3.26825
2.06043
0.605391
0.0606972
0.0744733
0.325205
0.189764
0.144488
0.202921
0.236966
0.244293
0.257971
0.273874
0.282675
0.284822
0.283428
0.27565
0.260404
0.236376
0.193636
0.14372
0.0988822
0.0797318
0.0619529
0.0637931
3.25256
2.08457
0.637496
0.0973645
0.0810469
0.330798
0.20053
0.155125
0.209533
0.243244
0.251795
0.265107
0.281247
0.29014
0.292459
0.291138
0.283837
0.269306
0.247067
0.207514
0.1625
0.125452
0.113295
0.103879
0.107097
3.22864
2.12076
0.688985
0.136156
0.0949171
0.338704
0.216987
0.170044
0.218832
0.252163
0.262224
0.274855
0.290879
0.300114
0.303123
0.301973
0.295152
0.281689
0.261967
0.226689
0.187681
0.158511
0.152472
0.148779
0.153865
3.19722
2.16483
0.762061
0.175776
0.117173
0.347448
0.237181
0.187898
0.230693
0.263809
0.275
0.286909
0.302899
0.312571
0.316471
0.315382
0.30936
0.297473
0.280806
0.250577
0.218085
0.196173
0.195204
0.196253
0.20399
3.15912
2.21714
0.859302
0.216003
0.146795
0.355925
0.260077
0.20827
0.24451
0.2778
0.289713
0.30117
0.317012
0.327168
0.33212
0.331224
0.326291
0.316419
0.303235
0.278628
0.252998
0.237923
0.241883
0.247991
0.259327
3.11537
2.27483
0.982516
0.255387
0.182101
0.363644
0.284084
0.230822
0.260043
0.293838
0.305823
0.317246
0.333022
0.343729
0.349767
0.349178
0.345611
0.338163
0.328807
0.310349
0.291896
0.283653
0.293129
0.305561
0.322563
3.06701
2.33428
1.13097
0.294184
0.221075
0.371418
0.307816
0.255194
0.277084
0.311028
0.322735
0.335001
0.350774
0.361881
0.368933
0.369013
0.367104
0.362385
0.356913
0.345269
0.334282
0.333232
0.349784
0.371044
0.399068
3.01463
2.39176
1.29923
0.335605
0.261752
0.372747
0.332024
0.280272
0.295404
0.328863
0.340249
0.354229
0.369891
0.381282
0.389453
0.390828
0.390337
0.388413
0.387093
0.38263
0.379717
0.386933
0.412718
0.446271
0.49855
2.95942
2.44428
1.47596
0.386763
0.303006
0.367103
0.35612
0.305029
0.315673
0.346669
0.358439
0.374673
0.390276
0.401904
0.410962
0.414024
0.414871
0.415638
0.418774
0.422012
0.427772
0.444573
0.483192
0.541622
0.657132
3.27534
2.04931
0.591502
0.0340273
0.0739824
0.322707
0.185719
0.141345
0.202095
0.236025
0.242371
0.255548
0.270892
0.279242
0.281028
0.279668
0.271939
0.256559
0.231684
0.18743
0.135253
0.086096
0.0621675
0.0354326
0.0363078
3.26829
2.06035
0.60528
0.0602025
0.0742617
0.32513
0.189774
0.144549
0.203072
0.237129
0.244549
0.258229
0.274076
0.28279
0.284866
0.283404
0.275583
0.260293
0.236218
0.193416
0.143443
0.0985328
0.0793588
0.0615375
0.0634312
3.25261
2.08448
0.637348
0.0969665
0.0807031
0.330723
0.200491
0.155022
0.209474
0.243221
0.251799
0.265115
0.281246
0.290135
0.292428
0.291076
0.283743
0.269184
0.246908
0.207305
0.162255
0.125178
0.113039
0.103636
0.106896
3.22872
2.12067
0.688804
0.135839
0.0945657
0.338613
0.216866
0.16986
0.218664
0.252029
0.262074
0.274718
0.290749
0.299974
0.302961
0.301821
0.295007
0.281547
0.261803
0.226493
0.187467
0.158297
0.152288
0.148617
0.153738
3.19732
2.16473
0.761861
0.175548
0.116897
0.347341
0.237023
0.187706
0.230506
0.263618
0.274795
0.286674
0.302652
0.312308
0.316191
0.315133
0.309155
0.297299
0.280638
0.250394
0.217899
0.196002
0.195064
0.196136
0.2039
3.15923
2.21704
0.859092
0.215839
0.146573
0.355812
0.259923
0.208108
0.244344
0.277586
0.289476
0.300922
0.316726
0.326849
0.331787
0.330949
0.326068
0.316233
0.303066
0.278456
0.252835
0.23778
0.241772
0.2479
0.259259
3.11547
2.27474
0.982296
0.255263
0.181906
0.363527
0.283949
0.230698
0.259921
0.293666
0.305663
0.317047
0.332741
0.343405
0.349422
0.348901
0.345396
0.337981
0.32865
0.310192
0.29175
0.283527
0.293033
0.305487
0.32251
3.06711
2.33421
1.13075
0.294086
0.220901
0.371314
0.307704
0.255112
0.277014
0.310911
0.322649
0.334866
0.350541
0.361603
0.368639
0.36877
0.366902
0.362212
0.356772
0.345123
0.334146
0.333117
0.3497
0.37098
0.399024
3.01473
2.39169
1.29902
0.33553
0.261604
0.372665
0.331934
0.280226
0.295383
0.328805
0.340217
0.354149
0.369725
0.381068
0.38922
0.390622
0.390157
0.388257
0.386962
0.382495
0.379592
0.386828
0.412641
0.446212
0.498509
2.95951
2.44423
1.47577
0.386708
0.302883
0.367047
0.356051
0.305006
0.315684
0.346664
0.358461
0.374638
0.390169
0.401759
0.410794
0.413868
0.41472
0.415502
0.418651
0.42189
0.427662
0.444478
0.483121
0.541572
0.657098
3.2753
2.04935
0.591568
0.0340557
0.0740423
0.322729
0.185742
0.141385
0.202159
0.236025
0.242283
0.2554
0.270702
0.279046
0.280856
0.279552
0.271866
0.25653
0.231675
0.187439
0.135276
0.0861273
0.0622069
0.0354521
0.0363149
3.26828
2.06037
0.605303
0.0601725
0.0741306
0.325105
0.189637
0.144343
0.202826
0.236873
0.244198
0.25787
0.273767
0.282565
0.28471
0.283312
0.275522
0.260266
0.236206
0.193423
0.143464
0.0985595
0.0793893
0.061548
0.0634348
3.25259
2.08451
0.637404
0.0970211
0.0807012
0.330707
0.200426
0.15499
0.209441
0.243175
0.251738
0.265044
0.281172
0.290051
0.292358
0.291028
0.283715
0.269171
0.246906
0.207318
0.162276
0.1252
0.113061
0.103642
0.106898
3.22868
2.12071
0.688885
0.135899
0.0945963
0.338617
0.216888
0.169916
0.21874
0.252105
0.262177
0.274811
0.290824
0.300049
0.303045
0.301888
0.295045
0.281565
0.261817
0.226512
0.18749
0.158317
0.152305
0.148621
0.153738
3.19727
2.16477
0.761954
0.175581
0.116906
0.347361
0.237086
0.187779
0.230609
0.263758
0.274974
0.286861
0.302845
0.312506
0.316387
0.315274
0.30924
0.297345
0.280666
0.250421
0.217924
0.196021
0.19508
0.19614
0.2039
3.15917
2.21709
0.85919
0.215851
0.146574
0.355839
0.259987
0.208162
0.244427
0.277738
0.289647
0.301126
0.31697
0.327097
0.332027
0.331109
0.32617
0.316293
0.303104
0.278489
0.252862
0.237801
0.241789
0.247906
0.25926
3.11542
2.27478
0.982398
0.255266
0.181913
0.363554
0.283996
0.23072
0.25996
0.293773
0.305777
0.317207
0.332968
0.34365
0.349662
0.349067
0.345498
0.338043
0.328687
0.310227
0.29178
0.283552
0.293053
0.305495
0.322512
3.06706
2.33424
1.13085
0.294086
0.220912
0.371329
0.307729
0.255099
0.277002
0.310953
0.322694
0.334966
0.350715
0.361801
0.368833
0.3689
0.366991
0.362271
0.356807
0.345161
0.33418
0.333146
0.349723
0.37099
0.399028
3.01469
2.39172
1.29912
0.335529
0.261613
0.372664
0.331941
0.280188
0.295328
0.328784
0.340203
0.354199
0.369838
0.381209
0.389362
0.390727
0.390229
0.388306
0.386996
0.382532
0.379629
0.38686
0.412666
0.446225
0.498515
2.95947
2.44425
1.47586
0.386708
0.302888
0.367029
0.356043
0.304956
0.315608
0.346601
0.35841
0.374658
0.390233
0.40184
0.410879
0.413931
0.414774
0.415543
0.418684
0.421925
0.427699
0.44451
0.483146
0.541586
0.657105
3.27532
2.04933
0.591546
0.0340496
0.0740491
0.322726
0.185736
0.141379
0.202145
0.236013
0.242273
0.255397
0.2707
0.27904
0.280843
0.279529
0.271834
0.256491
0.231627
0.187386
0.135229
0.086088
0.0621873
0.0354461
0.0363122
3.26829
2.06036
0.605285
0.0601763
0.0741496
0.325106
0.189642
0.144355
0.202837
0.236884
0.244213
0.257886
0.273777
0.282563
0.284695
0.283288
0.275489
0.260228
0.236161
0.193373
0.14342
0.0985263
0.0793762
0.0615473
0.0634384
3.2526
2.0845
0.637386
0.097025
0.080711
0.330708
0.200432
0.155
0.209454
0.243191
0.251758
0.265067
0.281187
0.290059
0.292353
0.291011
0.283685
0.269133
0.246861
0.207269
0.162236
0.125175
0.113054
0.103645
0.106907
3.22869
2.1207
0.688872
0.135906
0.0946032
0.338618
0.21689
0.169918
0.218743
0.252111
0.262178
0.274812
0.290813
0.300017
0.302999
0.301834
0.294996
0.281519
0.261771
0.226467
0.187456
0.158298
0.152305
0.14863
0.153752
3.19727
2.16477
0.761945
0.175591
0.116911
0.347359
0.237079
0.187769
0.230598
0.263741
0.27494
0.286813
0.30278
0.312424
0.3163
0.315197
0.309178
0.297292
0.280619
0.250378
0.217894
0.196008
0.195084
0.196152
0.203914
3.15918
2.21709
0.859189
0.215866
0.146582
0.355835
0.259975
0.208149
0.244409
0.2777
0.289601
0.301056
0.316873
0.326998
0.33193
0.33104
0.326112
0.316242
0.303059
0.278449
0.252836
0.237792
0.241795
0.247919
0.259276
3.11542
2.27479
0.98241
0.255287
0.181927
0.363547
0.283986
0.230713
0.259949
0.293741
0.305745
0.317154
0.332886
0.343564
0.349575
0.349002
0.345451
0.338001
0.32865
0.310192
0.291758
0.283544
0.293058
0.305506
0.322528
3.06706
2.33425
1.13088
0.294112
0.220929
0.371323
0.307725
0.255104
0.277008
0.310946
0.322688
0.334938
0.350665
0.361748
0.368782
0.368869
0.366958
0.362237
0.356776
0.345129
0.334159
0.333138
0.349727
0.371
0.399041
3.01468
2.39174
1.29916
0.335559
0.261633
0.372659
0.331943
0.280203
0.29535
0.328803
0.340215
0.354189
0.369818
0.381185
0.389341
0.390716
0.390209
0.388281
0.386967
0.382504
0.379609
0.386852
0.412668
0.446232
0.498525
2.95945
2.44427
1.47591
0.386742
0.302913
0.367028
0.35605
0.304976
0.315638
0.346635
0.358433
0.374656
0.39023
0.401842
0.410886
0.413943
0.414763
0.415524
0.418658
0.421901
0.427681
0.444502
0.483147
0.541591
0.657112
3.27525
2.04946
0.591702
0.0340906
0.0739704
0.322748
0.18576
0.14138
0.20214
0.236011
0.242267
0.255392
0.270695
0.27903
0.280832
0.279523
0.271837
0.256504
0.231654
0.187423
0.135265
0.0861193
0.0622058
0.0354527
0.0363081
3.26822
2.06048
0.605445
0.0602003
0.074073
0.325124
0.189662
0.14435
0.202824
0.236874
0.244196
0.257871
0.273763
0.282549
0.284681
0.283279
0.275491
0.26024
0.236187
0.193409
0.143456
0.0985568
0.0793941
0.061557
0.0634353
3.25254
2.08463
0.637553
0.0970485
0.0806595
0.330726
0.20045
0.154996
0.209441
0.243178
0.25174
0.26505
0.281174
0.290047
0.292342
0.291003
0.283685
0.269143
0.246883
0.207301
0.162267
0.125199
0.113068
0.103656
0.106902
3.22862
2.12082
0.689051
0.135932
0.094585
0.338628
0.216909
0.169918
0.218735
0.2521
0.262164
0.27479
0.290795
0.300005
0.302991
0.301828
0.294996
0.281526
0.261788
0.226493
0.18748
0.158316
0.152315
0.148639
0.153747
3.19721
2.16489
0.762139
0.175611
0.116913
0.347367
0.237098
0.187775
0.230591
0.263727
0.274907
0.286803
0.302776
0.31242
0.316298
0.315195
0.309179
0.297297
0.280631
0.250397
0.217912
0.19602
0.19509
0.19616
0.203912
3.15912
2.2172
0.859393
0.215879
0.146595
0.355834
0.259995
0.208157
0.244408
0.277697
0.289604
0.301037
0.31685
0.326986
0.331926
0.33104
0.326112
0.316244
0.303067
0.278462
0.252849
0.237799
0.241798
0.247925
0.259276
3.11536
2.27488
0.98262
0.255295
0.181944
0.363549
0.284005
0.230726
0.259952
0.29374
0.305733
0.317133
0.332866
0.343555
0.349575
0.349003
0.345451
0.338003
0.328656
0.310201
0.291768
0.28355
0.293062
0.30551
0.322527
3.067
2.33433
1.13109
0.29412
0.220945
0.371321
0.307743
0.255119
0.277016
0.31096
0.322676
0.334924
0.350661
0.36175
0.368788
0.368877
0.366962
0.362239
0.356781
0.345137
0.334169
0.333146
0.349729
0.371002
0.399039
3.01463
2.3918
1.29935
0.335572
0.261641
0.372647
0.331959
0.280214
0.295362
0.328831
0.340222
0.354183
0.369822
0.381193
0.389352
0.390726
0.390214
0.388284
0.386972
0.382512
0.379617
0.386859
0.41267
0.446232
0.498525
2.95941
2.44432
1.47607
0.386765
0.302913
0.367006
0.356062
0.304981
0.315649
0.346662
0.358435
0.374645
0.390236
0.401854
0.4109
0.413956
0.414771
0.415529
0.418664
0.421909
0.427689
0.44451
0.483147
0.541587
0.657111
3.27527
2.04942
0.59165
0.0340773
0.0739973
0.322743
0.185754
0.141379
0.202136
0.236006
0.242261
0.255387
0.270689
0.279024
0.280824
0.279514
0.271826
0.256493
0.231639
0.187404
0.135247
0.0861022
0.0621965
0.0354485
0.036313
3.26825
2.06044
0.605392
0.0601941
0.0741032
0.325121
0.189663
0.144358
0.202832
0.23688
0.244203
0.257877
0.273767
0.28255
0.284679
0.283273
0.275481
0.260228
0.236171
0.193389
0.143436
0.0985384
0.079383
0.0615482
0.063438
3.25256
2.08458
0.637498
0.0970409
0.0806795
0.330723
0.200452
0.155003
0.209448
0.243186
0.251749
0.265058
0.281178
0.290049
0.292341
0.290999
0.283677
0.269133
0.246869
0.207283
0.16225
0.125184
0.113058
0.103645
0.106906
3.22864
2.12078
0.688992
0.135923
0.0945923
0.338628
0.21691
0.169923
0.218739
0.252107
0.262171
0.274796
0.290799
0.300007
0.30299
0.301825
0.29499
0.281518
0.261776
0.226478
0.187467
0.158304
0.152306
0.148628
0.153749
3.19723
2.16485
0.762075
0.175604
0.116913
0.347367
0.237098
0.187778
0.230594
0.263733
0.274913
0.286807
0.302779
0.312421
0.316297
0.315192
0.309173
0.29729
0.280621
0.250386
0.217902
0.196011
0.195084
0.19615
0.203911
3.15914
2.21716
0.859325
0.215874
0.146591
0.355837
0.259994
0.20816
0.244411
0.2777
0.289609
0.30104
0.316851
0.326986
0.331924
0.331037
0.326107
0.316238
0.303059
0.278454
0.252842
0.237794
0.241795
0.247916
0.259273
3.11538
2.27485
0.982548
0.255292
0.181937
0.363551
0.284005
0.230728
0.259955
0.293742
0.305736
0.317135
0.332867
0.343555
0.349573
0.349001
0.345447
0.337998
0.328649
0.310195
0.291762
0.283547
0.293059
0.305504
0.322525
3.06702
2.3343
1.13102
0.294116
0.220938
0.371324
0.307744
0.255121
0.277019
0.310962
0.32268
0.334926
0.350662
0.361749
0.368786
0.368873
0.366958
0.362234
0.356774
0.345131
0.334164
0.333142
0.349728
0.370999
0.399039
3.01465
2.39178
1.29928
0.335566
0.261635
0.372654
0.33196
0.280216
0.295365
0.328834
0.340225
0.354185
0.369822
0.381193
0.38935
0.390723
0.390211
0.388279
0.386965
0.382506
0.379614
0.386856
0.41267
0.446232
0.498525
2.95943
2.4443
1.47601
0.386754
0.302909
0.367016
0.356063
0.304983
0.315652
0.346664
0.358439
0.374647
0.390237
0.401855
0.4109
0.413954
0.414767
0.415523
0.418658
0.421903
0.427686
0.444508
0.48315
0.541591
0.657112
3.27532
2.04933
0.591545
0.0340495
0.0740496
0.322726
0.185736
0.141379
0.202145
0.236014
0.242274
0.255397
0.2707
0.27904
0.280843
0.279529
0.271834
0.256491
0.231627
0.187386
0.135229
0.0860878
0.0621872
0.0354461
0.0363122
3.26829
2.06036
0.605284
0.0601762
0.0741499
0.325106
0.189642
0.144355
0.202837
0.236884
0.244213
0.257886
0.273777
0.282563
0.284695
0.283288
0.275489
0.260228
0.236161
0.193372
0.14342
0.0985261
0.0793762
0.0615473
0.0634384
3.2526
2.0845
0.637385
0.0970249
0.0807113
0.330708
0.200432
0.155
0.209454
0.243191
0.251758
0.265067
0.281187
0.290059
0.292353
0.291011
0.283685
0.269133
0.246861
0.207269
0.162236
0.125175
0.113054
0.103645
0.106907
3.22869
2.1207
0.688871
0.135906
0.0946033
0.338618
0.21689
0.169918
0.218743
0.252111
0.262178
0.274812
0.290813
0.300017
0.302999
0.301834
0.294996
0.281519
0.261771
0.226467
0.187455
0.158298
0.152305
0.14863
0.153752
3.19727
2.16477
0.761945
0.175591
0.116911
0.347359
0.237079
0.187769
0.230598
0.263741
0.27494
0.286813
0.30278
0.312424
0.3163
0.315197
0.309178
0.297292
0.280619
0.250378
0.217894
0.196008
0.195084
0.196152
0.203914
3.15918
2.21709
0.859188
0.215866
0.146582
0.355835
0.259975
0.208149
0.244409
0.2777
0.289601
0.301056
0.316873
0.326998
0.33193
0.33104
0.326112
0.316241
0.303058
0.278449
0.252836
0.237792
0.241795
0.247919
0.259276
3.11542
2.27479
0.982409
0.255287
0.181927
0.363547
0.283986
0.230713
0.259949
0.293741
0.305745
0.317154
0.332886
0.343564
0.349575
0.349002
0.34545
0.338001
0.32865
0.310192
0.291758
0.283544
0.293058
0.305506
0.322528
3.06706
2.33425
1.13088
0.294112
0.220929
0.371323
0.307725
0.255105
0.277008
0.310947
0.322688
0.334938
0.350665
0.361748
0.368782
0.368869
0.366958
0.362236
0.356776
0.345129
0.334159
0.333138
0.349727
0.371
0.399041
3.01468
2.39174
1.29916
0.335559
0.261633
0.372659
0.331943
0.280203
0.29535
0.328803
0.340215
0.354189
0.369818
0.381185
0.389341
0.390716
0.390209
0.388281
0.386967
0.382504
0.379609
0.386852
0.412668
0.446232
0.498526
2.95945
2.44427
1.47591
0.386742
0.302913
0.367028
0.35605
0.304976
0.315638
0.346635
0.358433
0.374656
0.39023
0.401842
0.410886
0.413943
0.414763
0.415523
0.418658
0.421901
0.427681
0.444502
0.483147
0.541591
0.657112
3.2753
2.04935
0.591568
0.0340557
0.0740423
0.322729
0.185742
0.141385
0.202159
0.236025
0.242283
0.2554
0.270702
0.279046
0.280856
0.279552
0.271866
0.25653
0.231675
0.187439
0.135276
0.0861273
0.0622069
0.0354521
0.0363149
3.26828
2.06037
0.605303
0.0601725
0.0741307
0.325105
0.189637
0.144343
0.202826
0.236874
0.244198
0.25787
0.273767
0.282565
0.28471
0.283312
0.275522
0.260266
0.236206
0.193423
0.143464
0.0985595
0.0793893
0.061548
0.0634348
3.25259
2.08451
0.637404
0.097021
0.0807012
0.330707
0.200426
0.15499
0.209441
0.243175
0.251738
0.265044
0.281172
0.290051
0.292358
0.291028
0.283715
0.269171
0.246906
0.207318
0.162276
0.1252
0.113061
0.103642
0.106898
3.22868
2.12071
0.688885
0.135899
0.0945963
0.338617
0.216888
0.169916
0.21874
0.252104
0.262177
0.274811
0.290824
0.300049
0.303045
0.301888
0.295045
0.281565
0.261817
0.226512
0.18749
0.158317
0.152305
0.148621
0.153738
3.19727
2.16477
0.761954
0.175581
0.116906
0.347361
0.237086
0.187779
0.230609
0.263758
0.274974
0.286861
0.302845
0.312506
0.316387
0.315274
0.30924
0.297345
0.280666
0.250421
0.217924
0.196021
0.19508
0.19614
0.2039
3.15917
2.21709
0.85919
0.215851
0.146574
0.355839
0.259987
0.208162
0.244427
0.277738
0.289647
0.301126
0.31697
0.327097
0.332027
0.331109
0.32617
0.316293
0.303104
0.278489
0.252862
0.237801
0.241789
0.247906
0.25926
3.11542
2.27478
0.982398
0.255266
0.181913
0.363554
0.283996
0.23072
0.25996
0.293773
0.305777
0.317207
0.332968
0.34365
0.349662
0.349067
0.345498
0.338043
0.328687
0.310227
0.29178
0.283552
0.293053
0.305495
0.322512
3.06706
2.33424
1.13085
0.294086
0.220912
0.371329
0.307729
0.255099
0.277002
0.310953
0.322694
0.334966
0.350715
0.361801
0.368833
0.3689
0.366991
0.362271
0.356807
0.345161
0.33418
0.333146
0.349723
0.37099
0.399028
3.01469
2.39172
1.29912
0.335529
0.261613
0.372664
0.331941
0.280188
0.295328
0.328784
0.340203
0.354199
0.369838
0.381209
0.389362
0.390727
0.390229
0.388306
0.386996
0.382532
0.379629
0.38686
0.412666
0.446225
0.498515
2.95947
2.44425
1.47586
0.386708
0.302888
0.367029
0.356043
0.304956
0.315608
0.346601
0.35841
0.374658
0.390233
0.40184
0.410879
0.413931
0.414774
0.415543
0.418684
0.421925
0.427699
0.44451
0.483146
0.541586
0.657105
3.27534
2.04931
0.591501
0.034027
0.0739827
0.322707
0.185719
0.141345
0.202095
0.236025
0.242371
0.255548
0.270892
0.279243
0.281028
0.279669
0.271939
0.25656
0.231684
0.18743
0.135253
0.0860963
0.0621676
0.0354326
0.0363078
3.26829
2.06035
0.60528
0.0602024
0.0742619
0.325131
0.189774
0.144549
0.203072
0.237129
0.24455
0.258229
0.274076
0.28279
0.284866
0.283405
0.275583
0.260294
0.236219
0.193417
0.143444
0.0985331
0.0793589
0.0615375
0.0634312
3.25261
2.08448
0.637348
0.0969665
0.0807032
0.330723
0.200491
0.155022
0.209474
0.243221
0.251799
0.265115
0.281246
0.290135
0.292428
0.291076
0.283744
0.269185
0.246909
0.207306
0.162255
0.125178
0.113039
0.103636
0.106896
3.22872
2.12067
0.688804
0.135839
0.0945658
0.338613
0.216866
0.16986
0.218664
0.252029
0.262074
0.274718
0.290749
0.299974
0.302961
0.301821
0.295007
0.281548
0.261804
0.226493
0.187467
0.158297
0.152288
0.148617
0.153738
3.19732
2.16473
0.761861
0.175548
0.116898
0.347341
0.237023
0.187706
0.230506
0.263618
0.274795
0.286675
0.302652
0.312308
0.316192
0.315133
0.309156
0.2973
0.280638
0.250394
0.217899
0.196002
0.195064
0.196136
0.2039
3.15922
2.21704
0.859092
0.215839
0.146574
0.355812
0.259923
0.208108
0.244344
0.277587
0.289476
0.300922
0.316727
0.326849
0.331787
0.330949
0.326068
0.316233
0.303067
0.278457
0.252835
0.23778
0.241772
0.2479
0.259259
3.11547
2.27474
0.982296
0.255264
0.181906
0.363527
0.283949
0.230698
0.259921
0.293667
0.305664
0.317047
0.332741
0.343406
0.349422
0.348902
0.345396
0.337982
0.32865
0.310192
0.29175
0.283527
0.293033
0.305487
0.32251
3.06711
2.33421
1.13075
0.294087
0.220901
0.371314
0.307704
0.255112
0.277014
0.310911
0.322649
0.334866
0.350542
0.361603
0.368639
0.36877
0.366902
0.362212
0.356773
0.345124
0.334146
0.333117
0.3497
0.37098
0.399024
3.01473
2.3917
1.29902
0.335531
0.261604
0.372664
0.331934
0.280226
0.295383
0.328805
0.340217
0.354149
0.369725
0.381068
0.38922
0.390622
0.390158
0.388257
0.386962
0.382495
0.379592
0.386828
0.412641
0.446212
0.498509
2.95951
2.44423
1.47577
0.386709
0.302884
0.367047
0.356051
0.305006
0.315684
0.346664
0.358461
0.374638
0.390169
0.401759
0.410794
0.413869
0.41472
0.415502
0.418652
0.42189
0.427663
0.444479
0.483121
0.541572
0.657098
3.2753
2.0493
0.591534
0.0349659
0.0744644
0.322825
0.185853
0.141554
0.202234
0.236058
0.242316
0.255446
0.270782
0.279163
0.280997
0.279699
0.272019
0.25669
0.231863
0.187665
0.135541
0.0864712
0.0626184
0.0361164
0.036969
3.26828
2.06032
0.605263
0.0606936
0.0745389
0.325205
0.189769
0.144547
0.202978
0.237015
0.244375
0.258056
0.27398
0.282791
0.284927
0.283504
0.275701
0.260441
0.236405
0.193657
0.143731
0.0988786
0.0797234
0.0619308
0.0638017
3.25258
2.08447
0.637373
0.0973567
0.0811055
0.330821
0.200604
0.155246
0.209691
0.24344
0.25209
0.265404
0.281495
0.290329
0.292601
0.291228
0.283898
0.269348
0.247102
0.207542
0.162518
0.125457
0.113292
0.10386
0.107098
3.22866
2.12066
0.688854
0.136125
0.0949259
0.338734
0.217048
0.1701
0.218931
0.25232
0.26241
0.275035
0.291018
0.300195
0.303172
0.301997
0.29518
0.281718
0.261998
0.226719
0.187702
0.15852
0.152471
0.148764
0.15386
3.19725
2.16474
0.761914
0.175741
0.117155
0.347469
0.237188
0.187872
0.230693
0.26384
0.275023
0.286904
0.302873
0.312525
0.316422
0.315336
0.309341
0.297472
0.280825
0.250601
0.218103
0.196181
0.195203
0.196244
0.203983
3.15916
2.21705
0.859145
0.215983
0.14678
0.355935
0.260046
0.208203
0.244444
0.277722
0.289647
0.301069
0.316881
0.327048
0.332004
0.331176
0.326274
0.316417
0.303249
0.278645
0.25301
0.237929
0.241882
0.247985
0.259322
3.1154
2.27475
0.982362
0.255387
0.182095
0.363638
0.284041
0.230753
0.259966
0.293737
0.305757
0.317154
0.332897
0.343616
0.34966
0.349135
0.345597
0.338165
0.328825
0.310362
0.291904
0.283656
0.293126
0.305555
0.322558
3.06704
2.33423
1.13084
0.294195
0.221074
0.371408
0.307776
0.255147
0.277035
0.310969
0.322704
0.334942
0.350694
0.361806
0.36887
0.368985
0.367091
0.362388
0.356934
0.345278
0.334286
0.333232
0.34978
0.371038
0.399062
3.01466
2.39172
1.29913
0.335617
0.261757
0.372743
0.331992
0.28025
0.295393
0.328856
0.340245
0.354192
0.369851
0.381246
0.38943
0.390837
0.390332
0.388416
0.387101
0.382633
0.379718
0.386931
0.412713
0.446262
0.498538
2.95944
2.44426
1.47589
0.386771
0.303017
0.367105
0.356096
0.305021
0.315682
0.346692
0.35846
0.374648
0.390254
0.4019
0.41097
0.414053
0.414875
0.415643
0.418773
0.422009
0.42777
0.444568
0.483184
0.541611
0.657119
2.90397
2.49274
1.64612
0.460132
0.345967
0.356748
0.378819
0.330265
0.33765
0.363409
0.377859
0.395923
0.411642
0.423576
0.433445
0.438508
0.440156
0.443551
0.451127
0.462235
0.476862
0.504057
0.559284
0.653203
0.842847
2.85233
2.54395
1.81074
0.569026
0.393503
0.348973
0.39961
0.355509
0.359783
0.380221
0.399117
0.417159
0.433588
0.445904
0.456336
0.463574
0.465873
0.47184
0.483239
0.501173
0.524479
0.562203
0.62939
0.738024
0.931216
2.81131
2.60337
1.97935
0.730712
0.446002
0.35082
0.41573
0.380636
0.382025
0.399257
0.421983
0.438316
0.455753
0.46845
0.479611
0.487913
0.491786
0.499985
0.514465
0.537232
0.568279
0.61136
0.68358
0.786064
0.953474
2.78984
2.67285
2.15822
0.960798
0.49942
0.36667
0.427749
0.407844
0.405726
0.421728
0.445201
0.4593
0.476622
0.491846
0.504065
0.513835
0.519583
0.527412
0.54363
0.569173
0.606064
0.651919
0.72056
0.81502
0.949468
2.79861
2.75062
2.34337
1.26039
0.543789
0.403262
0.443118
0.438649
0.43146
0.446241
0.466897
0.47862
0.497875
0.515695
0.528074
0.53874
0.546734
0.553653
0.570533
0.59696
0.636257
0.683108
0.75049
0.835188
0.939265
2.84616
2.82615
2.51016
1.58321
0.587877
0.449727
0.45958
0.469769
0.456981
0.469682
0.486985
0.499004
0.517018
0.539616
0.553044
0.564405
0.574295
0.579667
0.595035
0.621131
0.660281
0.708214
0.772089
0.84668
0.929407
2.90863
2.90108
2.65088
1.86028
0.678927
0.503016
0.476451
0.498011
0.47986
0.49043
0.507074
0.52069
0.538323
0.562382
0.57815
0.588834
0.599611
0.606929
0.618661
0.64274
0.679299
0.727769
0.78415
0.848586
0.920219
2.96287
2.96793
2.77574
2.09819
0.855193
0.57067
0.501715
0.51859
0.501947
0.511126
0.528208
0.54398
0.559789
0.584529
0.602943
0.613555
0.624139
0.634116
0.64099
0.661708
0.694264
0.737772
0.787909
0.845797
0.910532
3.00488
3.02719
2.89497
2.35174
1.14262
0.654773
0.530646
0.533254
0.529107
0.533213
0.550769
0.568379
0.581639
0.603434
0.626113
0.638641
0.648142
0.658547
0.664386
0.677892
0.705518
0.741161
0.787781
0.842733
0.902114
3.03537
3.08283
2.99424
2.60543
1.58656
0.731004
0.551316
0.554845
0.560425
0.559142
0.575478
0.593244
0.60405
0.620386
0.647322
0.662852
0.671847
0.681325
0.690608
0.695688
0.715964
0.747193
0.786373
0.836604
0.892926
3.06089
3.12814
3.06469
2.7815
1.98714
0.857464
0.588127
0.589403
0.590966
0.587781
0.601511
0.617145
0.626648
0.638795
0.665026
0.684175
0.694436
0.702156
0.711867
0.715516
0.726885
0.753407
0.787736
0.829019
0.878534
3.08224
3.16693
3.12112
2.91247
2.27163
1.07994
0.671715
0.629183
0.61882
0.620026
0.628413
0.64061
0.649213
0.656997
0.679468
0.70257
0.716316
0.72327
0.731228
0.739861
0.741814
0.758704
0.788244
0.823606
0.865986
3.09912
3.19951
3.16878
3.0264
2.55458
1.45335
0.78138
0.660747
0.652851
0.655727
0.656045
0.66502
0.672487
0.675818
0.693668
0.720785
0.736601
0.744309
0.74867
0.757296
0.76289
0.768561
0.78984
0.819883
0.855401
3.11248
3.22475
3.20427
3.11005
2.7996
1.95727
0.951506
0.693362
0.693469
0.689005
0.684685
0.690119
0.696189
0.696939
0.703328
0.733326
0.755648
0.76526
0.769569
0.773462
0.781226
0.783458
0.79416
0.817871
0.847866
3.12305
3.24474
3.23064
3.16681
2.95898
2.34278
1.21842
0.771819
0.738204
0.722525
0.717061
0.716556
0.721492
0.721373
0.719128
0.740786
0.772304
0.78582
0.789147
0.791635
0.79667
0.80368
0.803846
0.816999
0.841845
3.13102
3.26002
3.25035
3.2084
3.07553
2.66671
1.67303
0.894286
0.780227
0.759723
0.750404
0.746975
0.748542
0.748265
0.742025
0.74592
0.779615
0.804527
0.810554
0.811349
0.812129
0.818036
0.824773
0.824804
0.839011
3.13676
3.27075
3.26355
3.23569
3.15211
2.89918
2.17944
1.13945
0.825078
0.803533
0.79057
0.781236
0.77763
0.776596
0.770535
0.764647
0.784254
0.816033
0.830908
0.832147
0.832376
0.832351
0.838714
0.846164
0.847321
3.14007
3.27731
3.27168
3.25378
3.20263
3.04939
2.57696
1.54555
0.914907
0.854436
0.838298
0.819177
0.810842
0.807407
0.802454
0.792906
0.792501
0.821441
0.846846
0.853959
0.852516
0.853184
0.854093
0.861115
0.869963
3.14045
3.28012
3.2762
3.26578
3.23522
3.14424
2.86678
2.09593
1.13319
0.904807
0.881994
0.866543
0.848387
0.841362
0.836243
0.827509
0.817449
0.827289
0.855362
0.87169
0.874865
0.872514
0.874646
0.87804
0.886653
3.13801
3.28088
3.2793
3.27304
3.25424
3.20156
3.04515
2.5614
1.54413
0.983916
0.930742
0.915575
0.895649
0.880338
0.87247
0.864317
0.851483
0.843322
0.864905
0.88747
0.895791
0.895088
0.893016
0.897574
0.904708
3.13571
3.28112
3.2808
3.27737
3.26689
3.23713
3.15022
2.88369
2.1319
1.20797
0.983782
0.960981
0.949069
0.927143
0.912423
0.902739
0.890655
0.874911
0.871702
0.900024
0.914323
0.918247
0.915538
0.914856
0.923212
3.13486
3.28067
3.28229
3.28066
3.27487
3.25828
3.21138
3.07082
2.63168
1.65821
1.06887
1.01134
0.997094
0.982048
0.958853
0.943866
0.931085
0.914923
0.898782
0.908852
0.931115
0.937309
0.938698
0.936294
0.939282
3.13454
3.28024
3.28355
3.28268
3.27953
3.27056
3.24543
3.1724
2.94594
2.26948
1.34001
1.07047
1.043
1.03526
1.01611
0.989784
0.973602
0.958044
0.937069
0.923859
0.943893
0.960684
0.958852
0.957838
0.958524
3.13443
3.27998
3.28428
3.28383
3.28219
3.27753
3.26445
3.22746
3.11652
2.76685
1.8852
1.18693
1.09428
1.08022
1.0723
1.04929
1.02024
1.00221
0.981922
0.958525
0.952952
0.974591
0.984412
0.977763
0.977747
3.1344
3.27982
3.2847
3.28448
3.28371
3.2814
3.27485
3.25632
3.20275
3.037
2.51069
1.5618
1.16304
1.12757
1.12124
1.10789
1.07809
1.05021
1.02865
1.0034
0.980002
0.987205
1.00273
1.00408
0.994481
3.13438
3.27976
3.28496
3.28489
3.28452
3.28338
3.28019
3.27124
3.24567
3.1693
2.92743
2.21196
1.39697
1.18707
1.16416
1.16153
1.14399
1.10399
1.07799
1.05222
1.02127
1.00051
1.01499
1.0269
1.02342
3.13439
3.2798
3.28509
3.28506
3.28489
3.28439
3.28297
3.27887
3.26703
3.23287
3.12814
2.79097
1.94481
1.31153
1.21603
1.20578
1.19957
1.17686
1.13121
1.10242
1.07103
1.0371
1.02646
1.04142
1.04763
3.1344
3.27984
3.28509
3.28517
3.2851
3.2849
3.28431
3.28253
3.27733
3.26222
3.21785
3.0782
2.62067
1.74131
1.2982
1.25073
1.24793
1.23756
1.20063
1.15578
1.12312
1.08455
1.05128
1.05365
1.06688
3.1344
3.27985
3.28508
3.28523
3.2852
3.28512
3.28491
3.2842
3.28203
3.27566
3.25698
3.20091
3.02016
2.43614
1.62798
1.31592
1.2896
1.28828
1.27136
1.21948
1.17604
1.1376
1.09283
1.06815
1.08317
3.1344
3.27985
3.28508
3.28525
3.28523
3.28522
3.28516
3.28492
3.28409
3.28154
3.27396
3.25168
3.18324
2.96136
2.28926
1.57821
1.34323
1.33024
1.32572
1.29846
1.23495
1.19134
1.14496
1.10226
1.09986
3.1344
3.27985
3.28508
3.28526
3.28524
3.28525
3.28526
3.2852
3.28492
3.28395
3.28101
3.2723
3.2467
3.16721
2.90664
2.19397
1.54368
1.37586
1.37019
1.36146
1.31255
1.2481
1.19911
1.14839
1.12541
3.1344
3.27985
3.28508
3.28526
3.28525
3.28526
3.28531
3.2853
3.28521
3.28486
3.28373
3.28038
3.27066
3.24239
3.15468
2.86152
2.14649
1.52546
1.41847
1.4137
1.38768
1.31729
1.25549
1.20229
1.16275
3.1344
3.27985
3.28508
3.28526
3.28525
3.28526
3.28532
3.28533
3.28529
3.28516
3.28468
3.28326
3.27943
3.26896
3.23912
3.14709
2.83604
2.1293
1.54554
1.4771
1.45104
1.38605
1.31743
1.25919
1.21267
3.1344
3.27985
3.28508
3.28526
3.28525
3.28526
3.28532
3.28534
3.28529