/*--------------------------------*- C++ -*----------------------------------*\
| =========                 |                                                 |
| \\      /  F ield         | OpenFOAM: The Open Source CFD Toolbox           |
|  \\    /   O peration     | Version:  4.1                                   |
|   \\  /    A nd           | Web:      www.OpenFOAM.org                      |
|    \\/     M anipulation  |                                                 |
\*---------------------------------------------------------------------------*/
FoamFile
{
    version     2.0;
    format      ascii;
    class       volScalarField;
    location    "0.7";
    object      p;
}
// * * * * * * * * * * * * * * * * * * * * * * * * * * * * * * * * * * * * * //

dimensions      [1 -1 -2 0 0 0 0];

internalField   nonuniform List<scalar> 
52500
(
0.0945255
0.16326
0.445064
1.34724
0.920785
0.806989
0.895874
0.85436
0.770364
0.73435
0.697945
0.657067
0.61223
0.57215
0.539151
0.51719
0.500576
0.49232
0.485384
0.47723
0.468006
0.453856
0.435747
0.416734
0.407392
0.0946471
0.162171
0.439481
1.34104
0.925131
0.807468
0.896314
0.855217
0.772014
0.735424
0.698943
0.65839
0.613554
0.573362
0.540144
0.51787
0.501193
0.492814
0.485927
0.477821
0.468513
0.454173
0.435964
0.416838
0.407544
0.0949253
0.159793
0.427464
1.325
0.937176
0.806821
0.895604
0.855834
0.773906
0.735534
0.699023
0.659253
0.6146
0.574287
0.540786
0.517967
0.501106
0.492352
0.485456
0.477383
0.467993
0.453329
0.434929
0.415583
0.406264
0.0953593
0.156174
0.410086
1.2973
0.957214
0.80666
0.893697
0.8564
0.776784
0.735621
0.699432
0.660524
0.616233
0.575959
0.541999
0.518373
0.501216
0.491751
0.48475
0.47664
0.466931
0.451587
0.432832
0.413073
0.403665
0.0959439
0.151871
0.387901
1.25568
0.982595
0.808776
0.890951
0.857269
0.781037
0.735901
0.699872
0.661865
0.618002
0.57787
0.543386
0.519028
0.501477
0.490925
0.483656
0.475449
0.465175
0.44898
0.4297
0.409449
0.399804
0.0966535
0.146806
0.362073
1.19696
1.01207
0.816068
0.887328
0.858493
0.786667
0.736384
0.700083
0.663094
0.619859
0.579929
0.545088
0.519842
0.501778
0.489875
0.482103
0.473684
0.46257
0.445592
0.425455
0.404512
0.394483
0.0974828
0.14125
0.333172
1.11272
1.0495
0.831997
0.882436
0.859749
0.793188
0.736932
0.700063
0.664216
0.621828
0.581926
0.547163
0.520899
0.501946
0.488632
0.480083
0.471084
0.459218
0.441355
0.420045
0.398042
0.387315
0.0984313
0.135624
0.302619
0.999697
1.10956
0.844913
0.875463
0.860841
0.80031
0.737752
0.699919
0.665426
0.623941
0.584265
0.549592
0.52214
0.501938
0.486963
0.477741
0.467667
0.454919
0.436033
0.413289
0.389739
0.377606
0.0995108
0.130342
0.272152
0.864379
1.18104
0.858742
0.868572
0.860876
0.807027
0.739329
0.699882
0.666773
0.626452
0.587147
0.552781
0.523169
0.501777
0.485091
0.474863
0.463453
0.449517
0.429409
0.404856
0.378666
0.362393
0.100705
0.125761
0.244076
0.720963
1.24889
0.874632
0.860676
0.858913
0.814293
0.741701
0.700158
0.668674
0.62952
0.590585
0.555978
0.524673
0.501741
0.483445
0.471387
0.458505
0.443047
0.421231
0.394112
0.363847
0.33631
0.094524
0.16327
0.445117
1.34732
0.92066
0.807049
0.895853
0.854324
0.770346
0.734347
0.697922
0.657051
0.612228
0.572157
0.539162
0.517202
0.500581
0.492314
0.485364
0.477205
0.467985
0.453843
0.435737
0.416721
0.40738
0.0946464
0.162178
0.439515
1.34105
0.925198
0.807442
0.896241
0.855188
0.771973
0.735376
0.698938
0.658381
0.613549
0.573363
0.54015
0.51788
0.501196
0.49281
0.485909
0.477798
0.468492
0.45416
0.435952
0.416825
0.407532
0.0949244
0.159802
0.427509
1.32504
0.937211
0.806807
0.895535
0.855797
0.773863
0.735491
0.69902
0.659233
0.614578
0.574275
0.540778
0.517969
0.501104
0.49235
0.485441
0.477362
0.467973
0.453315
0.434916
0.415568
0.40625
0.0953575
0.156184
0.410133
1.29737
0.957108
0.806676
0.893659
0.856367
0.776746
0.735597
0.699402
0.660489
0.616198
0.575929
0.541977
0.518367
0.501207
0.491751
0.484739
0.476623
0.466913
0.451572
0.432818
0.413057
0.403649
0.0959416
0.15188
0.387947
1.25574
0.982503
0.808787
0.890939
0.857239
0.781
0.735879
0.699835
0.661825
0.617964
0.577828
0.543353
0.519013
0.501465
0.490925
0.483648
0.475434
0.465157
0.448964
0.429684
0.409433
0.399787
0.0966512
0.146815
0.362118
1.19704
1.012
0.81605
0.887327
0.858453
0.786601
0.736365
0.700071
0.663063
0.619818
0.579891
0.545045
0.519819
0.501756
0.489872
0.482095
0.473671
0.462554
0.445576
0.425439
0.404496
0.394466
0.0974803
0.141258
0.333214
1.11282
1.0494
0.83198
0.88245
0.859714
0.793111
0.736908
0.700053
0.664187
0.621781
0.581892
0.547116
0.520875
0.501929
0.488631
0.480075
0.471074
0.459204
0.441341
0.42003
0.398026
0.387299
0.0984286
0.135631
0.302655
0.999812
1.1094
0.844911
0.875486
0.860818
0.800247
0.737724
0.699917
0.665391
0.623892
0.584222
0.549539
0.52212
0.50192
0.486965
0.477728
0.467657
0.454907
0.43602
0.413276
0.389725
0.377592
0.0995081
0.130347
0.272182
0.864495
1.18085
0.858743
0.868596
0.860863
0.806984
0.739304
0.699889
0.66674
0.626406
0.587106
0.552735
0.523147
0.501758
0.485085
0.474852
0.463442
0.449507
0.429399
0.404845
0.378655
0.36238
0.100702
0.125765
0.244098
0.721057
1.2487
0.874643
0.860695
0.858899
0.814263
0.741691
0.700171
0.668646
0.629497
0.590553
0.555941
0.524651
0.501723
0.483435
0.471374
0.458493
0.443036
0.421221
0.394104
0.363838
0.336299
0.0945247
0.163266
0.44509
1.34725
0.920737
0.807009
0.89586
0.854334
0.770344
0.734344
0.697923
0.657045
0.612216
0.572146
0.539161
0.517206
0.500586
0.492328
0.485385
0.477231
0.468006
0.453846
0.435723
0.416698
0.407351
0.0946465
0.162175
0.439502
1.34103
0.925128
0.807466
0.896285
0.855196
0.77199
0.735405
0.698922
0.658369
0.613538
0.573354
0.54015
0.517882
0.501202
0.492822
0.485929
0.477823
0.468512
0.454163
0.435939
0.416802
0.407503
0.0949247
0.159798
0.427487
1.325
0.93717
0.806817
0.895569
0.855814
0.773884
0.735508
0.699004
0.659229
0.614576
0.574272
0.540784
0.517975
0.501113
0.492362
0.485461
0.477386
0.467992
0.453318
0.434903
0.415546
0.406223
0.0953585
0.156179
0.410108
1.29731
0.957165
0.806659
0.893661
0.856382
0.776771
0.735597
0.699406
0.660496
0.61621
0.575943
0.541994
0.518376
0.50122
0.491762
0.484757
0.476645
0.466931
0.451575
0.432806
0.413036
0.403624
0.0959429
0.151876
0.387923
1.25569
0.982538
0.80877
0.890916
0.857248
0.781029
0.735872
0.699838
0.661836
0.61798
0.57785
0.54337
0.519021
0.50148
0.490934
0.483665
0.475455
0.465175
0.448968
0.429673
0.409413
0.399765
0.0966524
0.146811
0.362095
1.19699
1.01202
0.81605
0.887292
0.858461
0.78665
0.736359
0.700059
0.663074
0.619841
0.579908
0.545069
0.51983
0.501777
0.48988
0.482111
0.473691
0.462571
0.44558
0.425428
0.404477
0.394446
0.0974816
0.141254
0.333193
1.11276
1.04943
0.83198
0.882407
0.859712
0.793161
0.736911
0.700038
0.664201
0.621811
0.581908
0.547142
0.520885
0.501943
0.488636
0.480091
0.471092
0.459219
0.441343
0.420019
0.398009
0.387281
0.0984299
0.135627
0.302637
0.999746
1.10946
0.844906
0.875445
0.860801
0.800277
0.737733
0.699903
0.66541
0.623923
0.584245
0.549568
0.522127
0.501932
0.486967
0.477746
0.467673
0.45492
0.436021
0.413265
0.389709
0.377576
0.0995094
0.130344
0.272167
0.86443
1.18093
0.858737
0.868562
0.860833
0.80699
0.739306
0.699877
0.666759
0.626434
0.587127
0.552757
0.523154
0.50177
0.485092
0.474867
0.463457
0.449517
0.429399
0.404834
0.378639
0.362366
0.100703
0.125763
0.244087
0.721004
1.24878
0.874634
0.860667
0.858873
0.81426
0.741685
0.700161
0.66866
0.629503
0.590567
0.555957
0.524658
0.501733
0.483443
0.471388
0.458507
0.443046
0.421221
0.394094
0.363824
0.336286
0.0945245
0.163268
0.4451
1.34726
0.920717
0.807005
0.895851
0.854326
0.770343
0.734344
0.69792
0.65704
0.612211
0.572144
0.539164
0.517215
0.5006
0.492345
0.485401
0.477243
0.468011
0.453843
0.435713
0.416689
0.407343
0.0946463
0.162177
0.43951
1.34104
0.925118
0.807459
0.896275
0.855188
0.771984
0.735401
0.69892
0.658364
0.613534
0.573351
0.540151
0.51789
0.501215
0.492839
0.485945
0.477835
0.468518
0.45416
0.435929
0.416792
0.407495
0.0949246
0.159799
0.427493
1.325
0.93716
0.80681
0.89556
0.855806
0.773875
0.735499
0.699002
0.659225
0.614573
0.57427
0.540785
0.517982
0.501125
0.492378
0.485476
0.477399
0.467998
0.453315
0.434893
0.415536
0.406213
0.0953583
0.15618
0.410112
1.29731
0.957154
0.806654
0.893655
0.856375
0.77676
0.73559
0.699406
0.660494
0.616206
0.57594
0.541993
0.518382
0.501231
0.491777
0.484773
0.476658
0.466938
0.451573
0.432796
0.413025
0.403613
0.0959427
0.151876
0.387925
1.25569
0.982528
0.808768
0.890914
0.857243
0.781022
0.735868
0.699836
0.661832
0.617974
0.577844
0.543369
0.519027
0.50149
0.490949
0.483681
0.475468
0.465182
0.448966
0.429663
0.409402
0.399754
0.0966523
0.146811
0.362094
1.19698
1.01201
0.816048
0.887295
0.858459
0.786642
0.736357
0.700062
0.663067
0.619834
0.579908
0.545068
0.519836
0.501783
0.489896
0.482126
0.473705
0.462579
0.445579
0.425419
0.404465
0.394435
0.0974815
0.141253
0.33319
1.11275
1.04942
0.831982
0.882415
0.859711
0.793151
0.73691
0.700044
0.664196
0.621804
0.58191
0.547142
0.520894
0.501953
0.488654
0.480107
0.471107
0.459229
0.441344
0.420012
0.397998
0.38727
0.0984299
0.135626
0.302631
0.999719
1.10946
0.844911
0.875454
0.860804
0.800269
0.737734
0.699909
0.665406
0.623919
0.584247
0.549569
0.522133
0.501939
0.486984
0.477761
0.467689
0.454931
0.436024
0.41326
0.389699
0.377566
0.0995095
0.130343
0.272159
0.864389
1.18093
0.858745
0.868571
0.860839
0.806989
0.739311
0.699882
0.666758
0.626435
0.587132
0.552765
0.523159
0.501775
0.485106
0.474883
0.463474
0.44953
0.429403
0.404831
0.378631
0.362358
0.100703
0.125762
0.244078
0.720955
1.24877
0.874646
0.860677
0.85888
0.814261
0.741689
0.700162
0.668662
0.629515
0.590575
0.555966
0.524666
0.50174
0.483458
0.471403
0.458523
0.443058
0.421228
0.394093
0.363818
0.336279
0.0945254
0.163255
0.445034
1.34719
0.920786
0.806993
0.895842
0.854322
0.770348
0.734346
0.697921
0.657038
0.612206
0.572133
0.539151
0.517203
0.500594
0.492343
0.485403
0.477244
0.468007
0.453834
0.435703
0.41668
0.407334
0.0946472
0.162164
0.439446
1.34096
0.925186
0.807449
0.896267
0.855185
0.771991
0.735405
0.698921
0.658365
0.613532
0.573344
0.540141
0.517879
0.501208
0.492835
0.485945
0.477835
0.468514
0.454151
0.435919
0.416783
0.407486
0.0949254
0.159787
0.427431
1.32492
0.937224
0.806807
0.895556
0.855806
0.773883
0.735504
0.699006
0.659228
0.614577
0.57427
0.540781
0.517974
0.501118
0.492373
0.485475
0.477397
0.467994
0.453307
0.434884
0.415528
0.406205
0.0953592
0.156168
0.410053
1.29721
0.95723
0.806655
0.893653
0.856377
0.776769
0.735594
0.699411
0.660498
0.616213
0.575946
0.541995
0.518377
0.501225
0.49177
0.484768
0.476655
0.466933
0.451565
0.432788
0.413017
0.403605
0.0959436
0.151865
0.387869
1.25557
0.982606
0.808779
0.890913
0.857248
0.781034
0.73588
0.699845
0.66184
0.617984
0.577857
0.543377
0.519028
0.501486
0.490942
0.483674
0.475463
0.465178
0.44896
0.429656
0.409394
0.399746
0.0966531
0.1468
0.362041
1.19685
1.01208
0.81608
0.887296
0.858468
0.786658
0.736368
0.700065
0.663073
0.619844
0.579922
0.54508
0.519841
0.50178
0.489889
0.482119
0.473699
0.462575
0.445574
0.425413
0.404458
0.394428
0.0974824
0.141244
0.333141
1.11258
1.0495
0.832016
0.882413
0.85972
0.793171
0.736919
0.700055
0.664201
0.621814
0.581925
0.547157
0.520902
0.501953
0.488648
0.480099
0.4711
0.459225
0.44134
0.420006
0.397992
0.387264
0.0984308
0.135619
0.30259
0.999547
1.10957
0.84493
0.875449
0.860813
0.80029
0.737743
0.699915
0.665414
0.623929
0.584261
0.549584
0.522142
0.50194
0.48698
0.477753
0.467683
0.454927
0.436021
0.413255
0.389694
0.377562
0.0995104
0.130337
0.272125
0.864227
1.18103
0.858764
0.868569
0.860849
0.80701
0.739324
0.699879
0.666764
0.626443
0.587144
0.55278
0.523169
0.501776
0.485103
0.474877
0.463468
0.449526
0.429401
0.404827
0.378627
0.362354
0.100704
0.125758
0.244054
0.720824
1.24886
0.87466
0.860673
0.858891
0.814282
0.741699
0.700152
0.668668
0.629524
0.590586
0.555979
0.524675
0.501742
0.483456
0.471398
0.458518
0.443055
0.421225
0.39409
0.363814
0.336277
0.094525
0.163259
0.445056
1.34721
0.920759
0.806993
0.895837
0.854316
0.770342
0.734342
0.697914
0.657032
0.612201
0.572131
0.53915
0.517205
0.500596
0.492347
0.485408
0.477249
0.468013
0.453839
0.435706
0.416683
0.407337
0.0946469
0.162168
0.439467
1.34098
0.925162
0.807447
0.896261
0.85518
0.771985
0.7354
0.698915
0.658359
0.613528
0.573341
0.54014
0.517881
0.501211
0.49284
0.48595
0.47784
0.468519
0.454156
0.435923
0.416786
0.407488
0.0949251
0.159791
0.427451
1.32494
0.937202
0.806804
0.89555
0.855801
0.773877
0.735498
0.699
0.659223
0.614573
0.574267
0.54078
0.517975
0.50112
0.492377
0.485479
0.477402
0.467999
0.453312
0.434888
0.415531
0.406208
0.0953589
0.156172
0.410073
1.29724
0.957201
0.806652
0.893647
0.856372
0.776765
0.735589
0.699405
0.660492
0.616209
0.575944
0.541994
0.518378
0.501227
0.491774
0.484773
0.47666
0.466939
0.45157
0.432791
0.41302
0.403608
0.0959433
0.151869
0.387887
1.25561
0.982577
0.808772
0.890907
0.857243
0.78103
0.735875
0.699839
0.661834
0.617981
0.577855
0.543376
0.519028
0.501487
0.490945
0.483678
0.475468
0.465183
0.448964
0.42966
0.409397
0.399749
0.0966528
0.146804
0.362059
1.19689
1.01205
0.816066
0.88729
0.858462
0.786653
0.736363
0.70006
0.663068
0.619841
0.57992
0.545079
0.519841
0.501782
0.489891
0.482122
0.473703
0.46258
0.445579
0.425417
0.404462
0.394431
0.097482
0.141247
0.333158
1.11264
1.04947
0.832002
0.882409
0.859714
0.793165
0.736914
0.70005
0.664197
0.62181
0.581923
0.547155
0.520901
0.501954
0.48865
0.480102
0.471105
0.459229
0.441345
0.420011
0.397996
0.387268
0.0984305
0.135622
0.302604
0.999606
1.10953
0.844921
0.875446
0.860808
0.800284
0.737739
0.699911
0.66541
0.623926
0.584259
0.549583
0.522142
0.501941
0.486981
0.477756
0.467686
0.454931
0.436025
0.41326
0.389698
0.377565
0.0995101
0.130339
0.272138
0.864285
1.18099
0.858755
0.868566
0.860844
0.807005
0.73932
0.699875
0.66676
0.62644
0.587142
0.552778
0.523167
0.501776
0.485104
0.474879
0.463472
0.44953
0.429405
0.404833
0.378632
0.362358
0.100704
0.125759
0.244063
0.720873
1.24883
0.874653
0.860671
0.858886
0.814277
0.741695
0.700148
0.668664
0.629521
0.590584
0.555977
0.524673
0.501742
0.483457
0.4714
0.458521
0.443059
0.42123
0.394095
0.363819
0.336279
0.0945245
0.163268
0.4451
1.34726
0.920716
0.807005
0.895851
0.854325
0.770343
0.734344
0.69792
0.65704
0.612211
0.572144
0.539164
0.517215
0.5006
0.492345
0.485401
0.477243
0.468011
0.453843
0.435713
0.416689
0.407343
0.0946463
0.162177
0.43951
1.34104
0.925117
0.807458
0.896274
0.855188
0.771984
0.7354
0.69892
0.658364
0.613534
0.573351
0.540151
0.51789
0.501215
0.492839
0.485945
0.477836
0.468518
0.45416
0.435929
0.416792
0.407495
0.0949246
0.159799
0.427494
1.325
0.937159
0.80681
0.89556
0.855806
0.773875
0.735499
0.699002
0.659225
0.614573
0.57427
0.540785
0.517982
0.501125
0.492378
0.485476
0.477399
0.467998
0.453315
0.434893
0.415536
0.406213
0.0953583
0.15618
0.410113
1.29731
0.957154
0.806654
0.893655
0.856375
0.77676
0.73559
0.699406
0.660494
0.616206
0.57594
0.541993
0.518382
0.501231
0.491777
0.484773
0.476658
0.466938
0.451573
0.432796
0.413025
0.403613
0.0959427
0.151876
0.387925
1.25569
0.982527
0.808768
0.890914
0.857243
0.781022
0.735868
0.699836
0.661832
0.617974
0.577844
0.543369
0.519027
0.50149
0.490949
0.483681
0.475468
0.465183
0.448966
0.429663
0.409402
0.399754
0.0966523
0.146811
0.362095
1.19698
1.01201
0.816048
0.887295
0.858459
0.786642
0.736357
0.700062
0.663067
0.619834
0.579908
0.545068
0.519836
0.501783
0.489896
0.482126
0.473705
0.462579
0.445579
0.425419
0.404465
0.394435
0.0974815
0.141253
0.33319
1.11275
1.04942
0.831982
0.882415
0.859711
0.793151
0.73691
0.700044
0.664196
0.621804
0.58191
0.547142
0.520894
0.501953
0.488654
0.480107
0.471107
0.459229
0.441344
0.420012
0.397998
0.387271
0.0984299
0.135626
0.302632
0.99972
1.10946
0.844911
0.875454
0.860803
0.800269
0.737734
0.699909
0.665406
0.623919
0.584247
0.549569
0.522133
0.501939
0.486984
0.477761
0.467689
0.454931
0.436024
0.41326
0.389699
0.377566
0.0995095
0.130343
0.272159
0.86439
1.18093
0.858745
0.868571
0.860839
0.806989
0.73931
0.699882
0.666757
0.626435
0.587132
0.552765
0.523159
0.501775
0.485107
0.474883
0.463474
0.44953
0.429404
0.404831
0.378631
0.362358
0.100703
0.125762
0.244078
0.720955
1.24877
0.874646
0.860677
0.85888
0.814261
0.741689
0.700162
0.668662
0.629515
0.590575
0.555966
0.524666
0.50174
0.483458
0.471403
0.458523
0.443059
0.421228
0.394093
0.363818
0.336279
0.0945247
0.163266
0.44509
1.34725
0.920737
0.807009
0.89586
0.854334
0.770344
0.734344
0.697923
0.657045
0.612216
0.572146
0.539161
0.517206
0.500586
0.492328
0.485385
0.477231
0.468006
0.453846
0.435723
0.416698
0.407351
0.0946465
0.162175
0.439502
1.34103
0.925128
0.807466
0.896285
0.855196
0.77199
0.735405
0.698922
0.658369
0.613538
0.573354
0.54015
0.517882
0.501202
0.492822
0.485929
0.477823
0.468512
0.454163
0.435939
0.416802
0.407503
0.0949247
0.159798
0.427487
1.325
0.93717
0.806817
0.895569
0.855814
0.773884
0.735508
0.699004
0.659229
0.614576
0.574272
0.540784
0.517975
0.501113
0.492362
0.485461
0.477386
0.467992
0.453318
0.434903
0.415546
0.406223
0.0953585
0.156179
0.410108
1.29731
0.957165
0.806659
0.893661
0.856382
0.776771
0.735597
0.699406
0.660496
0.61621
0.575943
0.541994
0.518376
0.50122
0.491762
0.484757
0.476645
0.466931
0.451575
0.432806
0.413036
0.403624
0.0959429
0.151876
0.387923
1.25569
0.982538
0.80877
0.890916
0.857248
0.781029
0.735872
0.699838
0.661836
0.61798
0.57785
0.54337
0.519021
0.50148
0.490934
0.483665
0.475455
0.465175
0.448968
0.429673
0.409413
0.399765
0.0966524
0.146811
0.362095
1.19699
1.01202
0.81605
0.887292
0.858461
0.78665
0.736359
0.700059
0.663074
0.619841
0.579908
0.545069
0.51983
0.501777
0.48988
0.482111
0.473691
0.462571
0.44558
0.425428
0.404477
0.394446
0.0974816
0.141254
0.333193
1.11276
1.04943
0.83198
0.882407
0.859712
0.793161
0.736911
0.700038
0.664201
0.621811
0.581908
0.547142
0.520885
0.501943
0.488636
0.480091
0.471092
0.459219
0.441343
0.420019
0.398009
0.387281
0.0984299
0.135627
0.302637
0.999746
1.10946
0.844906
0.875445
0.860801
0.800277
0.737733
0.699903
0.66541
0.623923
0.584245
0.549568
0.522127
0.501932
0.486967
0.477746
0.467673
0.45492
0.436021
0.413265
0.389709
0.377576
0.0995094
0.130344
0.272167
0.86443
1.18093
0.858737
0.868562
0.860833
0.80699
0.739306
0.699877
0.666759
0.626434
0.587127
0.552757
0.523154
0.50177
0.485092
0.474867
0.463457
0.449517
0.429399
0.404834
0.378639
0.362366
0.100703
0.125763
0.244087
0.721004
1.24878
0.874634
0.860667
0.858873
0.81426
0.741685
0.700161
0.66866
0.629503
0.590567
0.555957
0.524658
0.501733
0.483443
0.471388
0.458507
0.443046
0.421221
0.394094
0.363824
0.336286
0.094524
0.16327
0.445117
1.34732
0.92066
0.807049
0.895852
0.854324
0.770346
0.734347
0.697922
0.657051
0.612227
0.572157
0.539162
0.517202
0.500581
0.492314
0.485364
0.477205
0.467985
0.453843
0.435737
0.416721
0.40738
0.0946464
0.162178
0.439516
1.34105
0.925198
0.807442
0.896241
0.855188
0.771973
0.735376
0.698938
0.658381
0.613549
0.573363
0.54015
0.51788
0.501196
0.492809
0.485909
0.477798
0.468492
0.45416
0.435952
0.416825
0.407532
0.0949244
0.159802
0.42751
1.32504
0.937211
0.806807
0.895535
0.855796
0.773863
0.735491
0.69902
0.659233
0.614578
0.574274
0.540778
0.517969
0.501104
0.49235
0.485441
0.477362
0.467973
0.453315
0.434917
0.415569
0.40625
0.0953575
0.156184
0.410133
1.29737
0.957107
0.806676
0.893659
0.856367
0.776746
0.735597
0.699402
0.660489
0.616198
0.575929
0.541977
0.518367
0.501207
0.491751
0.484739
0.476622
0.466912
0.451572
0.432818
0.413057
0.403649
0.0959416
0.15188
0.387947
1.25574
0.982503
0.808787
0.890939
0.857239
0.781
0.735879
0.699835
0.661825
0.617964
0.577828
0.543353
0.519013
0.501465
0.490925
0.483648
0.475433
0.465157
0.448964
0.429684
0.409433
0.399788
0.0966512
0.146815
0.362118
1.19704
1.012
0.81605
0.887327
0.858453
0.786602
0.736365
0.700071
0.663063
0.619818
0.579891
0.545045
0.519819
0.501756
0.489872
0.482095
0.473671
0.462554
0.445576
0.425439
0.404496
0.394466
0.0974803
0.141258
0.333214
1.11282
1.0494
0.83198
0.88245
0.859714
0.793111
0.736908
0.700053
0.664187
0.621781
0.581892
0.547116
0.520875
0.501929
0.488631
0.480075
0.471074
0.459204
0.441341
0.42003
0.398027
0.387299
0.0984286
0.135631
0.302655
0.999812
1.1094
0.844911
0.875486
0.860818
0.800247
0.737725
0.699917
0.665391
0.623892
0.584222
0.549539
0.52212
0.50192
0.486965
0.477728
0.467656
0.454907
0.43602
0.413276
0.389725
0.377592
0.0995081
0.130347
0.272182
0.864494
1.18085
0.858743
0.868596
0.860863
0.806984
0.739304
0.699889
0.66674
0.626406
0.587106
0.552735
0.523147
0.501758
0.485085
0.474852
0.463442
0.449507
0.429399
0.404845
0.378655
0.36238
0.100702
0.125765
0.244098
0.721056
1.2487
0.874643
0.860696
0.858899
0.814264
0.741691
0.700171
0.668646
0.629497
0.590553
0.555941
0.524651
0.501723
0.483435
0.471374
0.458492
0.443036
0.421221
0.394104
0.363839
0.336299
0.0945253
0.163271
0.445121
1.34734
0.920709
0.807
0.895883
0.854341
0.770371
0.734368
0.697945
0.657071
0.612232
0.572154
0.539157
0.517192
0.500572
0.492312
0.485373
0.477219
0.467996
0.453851
0.435751
0.416741
0.407398
0.0946471
0.162181
0.439534
1.34113
0.92509
0.80746
0.896306
0.855205
0.771995
0.735411
0.698938
0.658395
0.613553
0.573358
0.540143
0.517865
0.501187
0.492805
0.485916
0.47781
0.468502
0.454168
0.435967
0.416845
0.407551
0.0949256
0.159803
0.427514
1.32509
0.937159
0.806799
0.895583
0.855829
0.773881
0.735485
0.699043
0.659265
0.614598
0.574282
0.540781
0.517962
0.501101
0.492342
0.485445
0.477371
0.467982
0.453324
0.434933
0.41559
0.406272
0.0953594
0.156184
0.410132
1.2974
0.957168
0.806635
0.893669
0.856402
0.776779
0.73559
0.69945
0.660535
0.616231
0.575954
0.541992
0.518366
0.501212
0.491739
0.484739
0.476628
0.466919
0.451582
0.432836
0.413081
0.403674
0.0959437
0.15188
0.387944
1.25578
0.982533
0.808753
0.890928
0.857273
0.781061
0.735887
0.699862
0.66186
0.61799
0.577857
0.543373
0.519016
0.501471
0.490914
0.483645
0.475436
0.465164
0.448976
0.429703
0.409457
0.399813
0.0966532
0.146815
0.362113
1.19708
1.01202
0.816031
0.88731
0.858485
0.786677
0.73638
0.700082
0.66308
0.619845
0.579927
0.54508
0.519836
0.50176
0.489867
0.482093
0.473672
0.46256
0.445588
0.425458
0.404519
0.39449
0.0974824
0.141257
0.333208
1.11284
1.04945
0.831959
0.882433
0.859734
0.793169
0.736932
0.700078
0.664212
0.621815
0.581927
0.547152
0.520892
0.501934
0.488631
0.480074
0.471075
0.459209
0.441352
0.420048
0.398048
0.38732
0.0984308
0.135629
0.302647
0.999815
1.10949
0.844892
0.875469
0.860832
0.800282
0.737757
0.699939
0.665425
0.623933
0.584262
0.549583
0.522132
0.501925
0.486964
0.47773
0.467657
0.45491
0.436029
0.413291
0.389743
0.37761
0.0995103
0.130345
0.272171
0.86447
1.18098
0.858729
0.868582
0.860884
0.807012
0.739336
0.6999
0.666778
0.626449
0.587145
0.552782
0.523158
0.501762
0.485087
0.474854
0.463444
0.449509
0.429405
0.404857
0.378669
0.362395
0.100704
0.125763
0.244087
0.72102
1.24884
0.874628
0.8607
0.858934
0.814289
0.741703
0.700169
0.668678
0.629534
0.590588
0.55598
0.524667
0.501731
0.483443
0.471376
0.458495
0.443038
0.421226
0.394113
0.363849
0.336312
0.101895
0.121933
0.220624
0.595448
1.29272
0.88849
0.851019
0.856792
0.820568
0.745652
0.701912
0.671901
0.633335
0.594389
0.559323
0.526483
0.501811
0.482251
0.467473
0.452951
0.43566
0.41172
0.380412
0.340098
0.272631
0.102858
0.118288
0.199671
0.506096
1.29607
0.912074
0.837011
0.852343
0.824037
0.752164
0.707165
0.676096
0.637802
0.598755
0.562642
0.528943
0.50221
0.481006
0.463508
0.447317
0.427912
0.401798
0.366597
0.319121
0.252098
0.103306
0.114352
0.178776
0.43187
1.26859
0.945387
0.820583
0.845086
0.824727
0.760148
0.713583
0.680327
0.641998
0.603383
0.566415
0.532265
0.503165
0.480151
0.459794
0.442289
0.42097
0.393501
0.357497
0.310285
0.25354
0.102911
0.109904
0.157908
0.361497
1.15739
0.977269
0.813232
0.838443
0.823947
0.770082
0.720768
0.683624
0.645965
0.608236
0.570699
0.536224
0.504355
0.479921
0.457515
0.43797
0.415452
0.387869
0.353187
0.310599
0.258612
0.101386
0.104881
0.138185
0.288778
0.921526
1.03089
0.835846
0.839124
0.823709
0.779462
0.727047
0.685895
0.649935
0.613784
0.575839
0.540526
0.506651
0.480061
0.456463
0.434505
0.411951
0.384643
0.352478
0.312484
0.269184
0.0987116
0.0996021
0.121792
0.226664
0.647326
1.10733
0.868412
0.841449
0.823778
0.78663
0.732899
0.688471
0.655004
0.619948
0.581696
0.544698
0.510896
0.480574
0.456442
0.432982
0.410316
0.383971
0.35307
0.317082
0.281097
0.096564
0.092941
0.108997
0.186042
0.473567
1.11998
0.903735
0.842675
0.824135
0.790798
0.738649
0.692959
0.660569
0.626462
0.587905
0.549932
0.515681
0.48234
0.456915
0.433191
0.410233
0.38436
0.355159
0.3247
0.292878
0.0949193
0.0868161
0.0989149
0.157253
0.385578
1.09627
0.954106
0.842345
0.820075
0.792164
0.745102
0.698464
0.665101
0.631383
0.59355
0.55585
0.520603
0.487013
0.458488
0.434048
0.410553
0.385831
0.359738
0.332604
0.303867
0.0937256
0.0815498
0.0900767
0.13117
0.307944
1.0049
0.984273
0.848824
0.818485
0.794148
0.750525
0.704277
0.667992
0.635752
0.599243
0.562569
0.526692
0.493689
0.461799
0.436211
0.412155
0.388778
0.365351
0.339992
0.313548
0.0929368
0.0772179
0.0828806
0.108861
0.22096
0.7304
1.02123
0.869602
0.821441
0.798347
0.757067
0.711197
0.672115
0.640034
0.605506
0.569679
0.533894
0.500306
0.468153
0.440153
0.415611
0.392914
0.370313
0.346702
0.322279
0.0922732
0.0738927
0.0779196
0.0955209
0.165108
0.42507
1.01227
0.900503
0.834529
0.803071
0.762563
0.71765
0.677479
0.644629
0.612447
0.577742
0.542434
0.508074
0.47658
0.446078
0.421283
0.398072
0.375527
0.353395
0.33058
0.0917344
0.0710641
0.0740055
0.0866739
0.135375
0.323645
0.944862
0.915489
0.853805
0.809011
0.767099
0.723266
0.683679
0.650018
0.621162
0.587301
0.551672
0.517082
0.485046
0.454835
0.427431
0.404402
0.381938
0.360296
0.33926
0.0913172
0.0687044
0.0707201
0.0792634
0.111304
0.24307
0.789378
0.943077
0.876442
0.815377
0.771537
0.72919
0.691255
0.657416
0.630208
0.597026
0.562048
0.527535
0.494652
0.464716
0.435542
0.41191
0.389648
0.368234
0.348066
0.0909809
0.0669305
0.0682849
0.0738358
0.093345
0.168083
0.452683
0.939615
0.892036
0.822284
0.777204
0.736404
0.70042
0.667444
0.638441
0.608143
0.573582
0.538683
0.505423
0.475
0.446397
0.420218
0.39805
0.37702
0.357136
0.0907186
0.0655331
0.0664597
0.0702147
0.0828474
0.128041
0.303633
0.856848
0.885818
0.837731
0.786429
0.746897
0.711356
0.678165
0.646443
0.619451
0.585468
0.551134
0.517749
0.486344
0.457821
0.431181
0.407292
0.386583
0.36694
0.090524
0.0644658
0.065067
0.0675081
0.0754515
0.102376
0.209021
0.642414
0.881477
0.856621
0.80219
0.759796
0.723452
0.689405
0.656775
0.628415
0.598297
0.564201
0.530697
0.499169
0.46999
0.443348
0.418739
0.396869
0.377441
0.090389
0.0637002
0.0640837
0.0656686
0.0706444
0.0865604
0.143965
0.359907
0.846536
0.856008
0.8287
0.775903
0.735384
0.70047
0.667511
0.636261
0.610569
0.577604
0.544338
0.512595
0.48318
0.456347
0.431504
0.408856
0.388632
0.0903253
0.0631733
0.0634044
0.0644028
0.0675058
0.0770192
0.109136
0.235912
0.697445
0.852857
0.833761
0.792221
0.74813
0.711773
0.678786
0.646802
0.619587
0.590871
0.558582
0.527116
0.497339
0.469945
0.445071
0.422091
0.401199
0.0903496
0.0628501
0.0629788
0.0635905
0.0654954
0.0710952
0.0888469
0.153916
0.389867
0.825599
0.832906
0.810931
0.764202
0.723401
0.689961
0.658065
0.628182
0.603076
0.572723
0.541835
0.512137
0.484598
0.45927
0.436206
0.415086
0.0904448
0.0626938
0.0627656
0.0631376
0.0642526
0.0674725
0.0772493
0.110588
0.241629
0.682808
0.825839
0.813381
0.782117
0.738474
0.702174
0.669726
0.638964
0.611705
0.586335
0.556719
0.527603
0.499948
0.474604
0.45107
0.430071
0.090496
0.062789
0.062567
0.0627367
0.063361
0.0652218
0.0706434
0.0878435
0.150889
0.372263
0.786267
0.810829
0.79366
0.75494
0.715425
0.681822
0.650767
0.62238
0.598332
0.571166
0.543318
0.516126
0.490669
0.467248
0.445944
0.0905045
0.0629015
0.0623661
0.0624597
0.06281
0.0638534
0.0668219
0.0757307
0.105704
0.222145
0.6156
0.795566
0.791858
0.77276
0.732845
0.694837
0.663239
0.634269
0.607412
0.586039
0.559331
0.533137
0.507499
0.484164
0.462908
0.0905034
0.0629717
0.0622378
0.0622879
0.0624795
0.0630493
0.0646716
0.0693158
0.0839803
0.13735
0.326607
0.724496
0.785896
0.775613
0.748574
0.710594
0.676593
0.647166
0.620011
0.59738
0.575281
0.549791
0.525433
0.501834
0.480767
0.0905006
0.0630092
0.0621646
0.0621899
0.0622902
0.0625926
0.0634485
0.0658486
0.0729347
0.0962089
0.185465
0.493232
0.757424
0.771819
0.758402
0.727245
0.691567
0.660978
0.633757
0.609295
0.590476
0.567014
0.543483
0.521032
0.499833
0.0904989
0.0630286
0.0621243
0.0621359
0.0621855
0.0623384
0.062772
0.0639919
0.0674538
0.0781655
0.116006
0.258441
0.63649
0.756334
0.755345
0.74128
0.709463
0.676861
0.64911
0.623714
0.601805
0.584579
0.56209
0.540543
0.520762
0.0904986
0.0630352
0.0621027
0.0621076
0.0621315
0.0622056
0.0624187
0.0630141
0.0647057
0.0696388
0.0855497
0.144271
0.33894
0.688975
0.746281
0.740724
0.725015
0.695172
0.665236
0.640128
0.617426
0.599486
0.581505
0.56072
0.541534
0.090499
0.063032
0.0621
0.0620933
0.0621016
0.0621336
0.0622313
0.0625114
0.0633046
0.0655628
0.0723513
0.0949919
0.179872
0.457176
0.704959
0.733809
0.726706
0.711223
0.684312
0.657374
0.634601
0.613846
0.600778
0.582138
0.564254
0.090499
0.0630289
0.0621042
0.0620812
0.0620846
0.0620982
0.0621411
0.062266
0.0626213
0.0636363
0.0665596
0.0756915
0.107698
0.224475
0.548628
0.704642
0.721613
0.715031
0.70031
0.677927
0.654068
0.632553
0.616644
0.604835
0.588931
0.0904989
0.0630281
0.0621061
0.0620756
0.0620769
0.0620824
0.0621003
0.0621528
0.0623048
0.0627376
0.0639913
0.0676763
0.0796613
0.123107
0.268856
0.592234
0.69987
0.711071
0.705342
0.6931
0.675516
0.654454
0.636084
0.628271
0.615389
0.0904989
0.0630282
0.0621063
0.0620738
0.0620743
0.0620764
0.0620829
0.0621028
0.0621626
0.0623385
0.0628476
0.0643433
0.0688414
0.0836977
0.137529
0.306039
0.611436
0.693275
0.702353
0.697734
0.689701
0.676877
0.658915
0.647984
0.644166
0.0904988
0.0630283
0.0621061
0.0620739
0.062073
0.0620735
0.0620756
0.0620828
0.0621046
0.062171
0.0623674
0.062945
0.064653
0.069891