/*--------------------------------*- C++ -*----------------------------------*\
| =========                 |                                                 |
| \\      /  F ield         | OpenFOAM: The Open Source CFD Toolbox           |
|  \\    /   O peration     | Version:  4.1                                   |
|   \\  /    A nd           | Web:      www.OpenFOAM.org                      |
|    \\/     M anipulation  |                                                 |
\*---------------------------------------------------------------------------*/
FoamFile
{
    version     2.0;
    format      ascii;
    class       surfaceScalarField;
    location    "0.7";
    object      phi;
}
// * * * * * * * * * * * * * * * * * * * * * * * * * * * * * * * * * * * * * //

dimensions      [1 0 -1 0 0 0 0];

internalField   nonuniform List<scalar> 
150500
(
0.00178499
-5.52688e-07
6.87638e-12
0.00174832
4.11309e-06
-4.06681e-11
0.00119972
3.93922e-05
-2.42175e-10
0.000608735
0.000272539
-3.79216e-10
0.00101813
0.000135626
5.84573e-10
0.000806329
0.000105955
-2.84335e-10
0.00077817
0.000126865
9.90657e-11
0.000767262
0.000127822
1.69231e-10
0.000801415
0.00011451
8.41223e-11
0.000861227
0.000106341
1.13635e-11
0.000923364
0.000109872
1.0701e-10
0.000940775
0.000104251
7.60052e-11
0.000911147
9.56876e-05
9.60478e-12
0.000857183
8.8548e-05
-3.19563e-11
0.0007955
8.32132e-05
-5.06155e-11
0.000753391
8.09411e-05
-5.63685e-11
0.000704828
8.11216e-05
-2.07467e-11
0.000644353
8.36562e-05
2.97711e-11
0.000537084
8.64996e-05
9.57647e-11
0.00039984
8.99024e-05
1.17094e-10
0.000266668
9.58759e-05
1.00282e-10
0.000166794
0.000102477
5.95893e-11
0.000102732
0.000109079
5.11494e-11
5.13447e-05
0.00011369
5.91263e-11
0.00011959
5.49674e-11
0.00178782
-1.20338e-06
3.06201e-12
0.00174836
8.56234e-06
-3.18961e-11
0.00121208
7.83769e-05
-1.58693e-10
0.000581153
0.000554769
-2.81121e-11
0.0010067
0.000266015
-3.12679e-10
0.0008103
0.000202734
1.20612e-10
0.000773973
0.000257092
3.42782e-10
0.000759696
0.000259751
1.38796e-10
0.000797969
0.000226997
1.95452e-10
0.000858666
0.000210228
2.20621e-10
0.000924557
0.000217746
1.98075e-11
0.000946016
0.000206305
4.16399e-11
0.000918078
0.000190337
2.69872e-11
0.000865655
0.000176811
-3.38625e-12
0.000802507
0.000167352
-2.58409e-11
0.00075936
0.000162936
-4.89817e-11
0.000709684
0.000163181
-1.39145e-11
0.000650328
0.000168245
2.11404e-11
0.000544355
0.000174033
8.31943e-11
0.000407711
0.00018118
1.08246e-10
0.000274035
0.000193462
9.73579e-11
0.000172858
0.000207046
6.1902e-11
0.000106184
0.000220797
5.56304e-11
5.26539e-05
0.000229964
6.39461e-11
0.000241237
6.11684e-11
0.00179405
-1.80013e-06
3.73508e-12
0.00174897
1.2527e-05
-3.86588e-11
0.00124616
0.000112414
-2.05922e-10
0.00055761
0.000824026
-2.06481e-10
0.00100214
0.00041601
-1.63238e-10
0.000821456
0.000295538
6.37897e-11
0.000778243
0.000382136
3.23632e-10
0.00076618
0.000391347
1.74531e-10
0.000808735
0.000338825
1.99927e-10
0.000863534
0.000314785
2.02976e-10
0.000932238
0.00032598
1.73327e-11
0.000957578
0.000309486
9.63346e-11
0.000930073
0.000286635
9.94942e-11
0.000877963
0.000267271
5.69862e-11
0.000812893
0.00025209
3.66108e-11
0.000768317
0.000245047
-9.43054e-12
0.000717274
0.000245391
5.87539e-12
0.000659815
0.000253154
1.00292e-11
0.000556192
0.000262384
7.00569e-11
0.000420978
0.000273685
9.86113e-11
0.000287074
0.000292812
9.4129e-11
0.000184049
0.00031435
6.57459e-11
0.000114041
0.000335565
6.07874e-11
5.66828e-05
0.000350146
6.88416e-11
0.000367205
6.76631e-11
0.00180389
-2.26543e-06
8.19769e-12
0.0017514
1.57115e-05
-4.12022e-11
0.00129755
0.00013902
-2.1452e-10
0.000524043
0.00107134
-3.21587e-10
0.000996595
0.0005808
4.93288e-10
0.000842326
0.000387598
-7.66309e-11
0.000783901
0.000502189
1.77243e-10
0.000778311
0.000521753
1.55538e-10
0.000824385
0.00045322
1.80575e-10
0.000868621
0.00042012
1.12574e-10
0.000942377
0.00043381
1.40002e-10
0.00097216
0.000414713
1.62124e-10
0.000946196
0.000384664
1.62435e-10
0.000896096
0.000358773
1.3953e-10
0.00082853
0.000338279
1.01128e-10
0.000781475
0.000328226
2.50092e-11
0.000728692
0.000327882
3.99036e-11
0.000673556
0.00033885
-3.07718e-13
0.000573471
0.000352806
5.30704e-11
0.000441053
0.000368476
8.31271e-11
0.000307965
0.000394906
8.82753e-11
0.00020313
0.000424693
7.28874e-11
0.000128592
0.000453818
6.85729e-11
6.48694e-05
0.000476364
7.54987e-11
0.000501746
7.84748e-11
0.00181541
-2.60718e-06
9.84947e-12
0.0017585
1.82418e-05
-3.95619e-11
0.00135916
0.000157197
-2.08362e-10
0.000482609
0.00127718
-2.91068e-10
0.000986252
0.000764107
4.29696e-10
0.00087231
0.000487788
-5.22289e-11
0.000791615
0.000616517
5.48656e-11
0.000796298
0.000651769
1.38906e-10
0.000844166
0.000571748
1.68521e-10
0.000874959
0.000526971
1.00281e-10
0.000953569
0.000540389
1.71708e-10
0.000989022
0.000521377
1.87666e-10
0.000965985
0.000485061
1.78475e-10
0.00091891
0.000452404
1.92528e-10
0.000848434
0.000426294
1.53296e-10
0.000798002
0.000412032
6.86013e-11
0.000743883
0.000410616
5.38122e-11
0.000690851
0.000424837
3.28013e-13
0.000595752
0.000444471
3.75478e-11
0.000467726
0.000464841
6.91346e-11
0.000337023
0.000499111
8.20644e-11
0.000229923
0.000537458
7.72499e-11
0.000149863
0.000575852
7.2461e-11
7.86294e-05
0.000607982
7.67826e-11
0.000645852
7.9469e-11
0.00182947
-2.87524e-06
1.01282e-11
0.00176964
1.93632e-05
-3.8808e-11
0.00143004
0.000164676
-2.05118e-10
0.000445926
0.00141051
-3.78859e-10
0.000972118
0.000978223
3.29516e-10
0.000913928
0.000607292
7.96478e-11
0.000803319
0.000724925
3.73161e-12
0.00081912
0.000782808
1.80656e-10
0.000865183
0.00069457
3.03691e-10
0.000882387
0.000634579
8.75509e-11
0.000965477
0.000645889
5.55969e-11
0.00100752
0.000629704
1.4007e-10
0.000988787
0.000588302
1.9056e-10
0.000945569
0.000548794
1.78325e-10
0.000872589
0.000515994
1.98648e-10
0.000818114
0.000496436
1.02873e-10
0.000763134
0.000493178
9.97175e-11
0.000711936
0.000510202
1.15654e-11
0.00062294
0.00053626
3.47695e-11
0.000501279
0.000562254
6.01428e-11
0.00037443
0.000603539
7.42997e-11
0.000265433
0.000651738
7.42485e-11
0.000179055
0.000701306
7.47138e-11
9.76631e-05
0.000746836
7.80619e-11
0.000803009
7.74922e-11
0.00184582
-2.95431e-06
1.09155e-11
0.00178641
1.94145e-05
-3.44939e-11
0.00150793
0.000162719
-1.89368e-10
0.000419868
0.00143853
-4.74728e-10
0.00103552
0.00124818
4.87446e-10
0.000969023
0.000747135
7.54862e-11
0.000820112
0.000825305
-6.15007e-11
0.000846065
0.00091244
1.59855e-10
0.000885813
0.000820487
3.54032e-10
0.000891579
0.000743244
1.11903e-10
0.000977156
0.000746832
4.8127e-11
0.00102691
0.000738005
1.36338e-10
0.00101469
0.000694135
2.17446e-10
0.000975643
0.000647786
1.56496e-10
0.000901765
0.000608263
2.17533e-10
0.000842222
0.000581535
1.11381e-10
0.00078679
0.000575843
7.87085e-11
0.000737033
0.000594455
3.65736e-12
0.000655556
0.000626597
3.79423e-11
0.000542156
0.000659586
4.85374e-11
0.000420818
0.000707037
6.27073e-11
0.000311388
0.000766515
6.73892e-11
0.000218721
0.000829349
6.92377e-11
0.000124923
0.000893418
7.20636e-11
0.000978313
7.32587e-11
0.00186402
-2.81105e-06
1.15447e-11
0.0018095
1.88472e-05
-2.82378e-11
0.00159314
0.000154031
-1.6436e-10
0.000461075
0.00134866
-5.36599e-10
0.00113274
0.00160555
7.5658e-10
0.00101787
0.000890899
7.44375e-12
0.000841546
0.000923082
-1.07597e-10
0.000877721
0.00103575
1.07755e-10
0.000905267
0.000947912
2.86217e-10
0.000901649
0.000852902
1.2444e-10
0.000988574
0.000841786
7.71525e-12
0.00104735
0.000845686
1.635e-10
0.00104358
0.000801899
2.24797e-10
0.00100864
0.000748646
2.0028e-10
0.000935803
0.00070239
2.43943e-10
0.000870858
0.000668608
9.35951e-11
0.000815107
0.000658685
8.18496e-11
0.000766236
0.000677129
-1.05412e-11
0.000694697
0.000713953
6.2718e-11
0.000590953
0.000754751
4.75926e-11
0.000476478
0.000808627
5.4151e-11
0.000370215
0.000879504
5.70418e-11
0.000271833
0.000958808
6.12385e-11
0.000164213
0.00104701
6.23523e-11
0.00118341
6.66726e-11
0.00188334
-2.26246e-06
1.16049e-11
0.00183792
1.84094e-05
-2.16187e-11
0.00168327
0.000141519
-1.3446e-10
0.000593317
0.00115684
-5.38084e-10
0.00117564
0.00203164
8.82412e-10
0.00105594
0.00104403
-3.25559e-12
0.000867123
0.00103499
-1.07742e-10
0.00090469
0.00113566
5.86195e-11
0.0009237
0.0010741
1.99646e-10
0.000914381
0.00096186
1.10384e-10
0.0010001
0.00093212
-3.28005e-11
0.00106839
0.000951925
1.51343e-10
0.00107454
0.000911046
2.09227e-10
0.00104455
0.000852372
1.9048e-10
0.000976551
0.000799652
2.11347e-10
0.000904052
0.000756451
9.89521e-11
0.000848419
0.000740118
8.57704e-11
0.000798877
0.000756187
2.81456e-11
0.000739254
0.000798326
5.01927e-11
0.000648058
0.00084466
4.96668e-11
0.000543919
0.000906263
4.82936e-11
0.000443905
0.000987946
4.78443e-11
0.00034414
0.00108513
5.03139e-11
0.000228739
0.00120171
5.04311e-11
0.00144782
5.69233e-11
0.00190277
1.04449e-11
-1.11228e-06
0.00186921
-1.52654e-11
1.90814e-05
0.00177488
-9.50867e-11
0.000130393
0.000825032
-4.37068e-10
0.000918653
0.00122182
8.90712e-10
0.00249435
0.00107375
-5.18281e-11
0.00121292
0.000892403
-8.90033e-11
0.00113453
0.00092847
6.31692e-11
0.00123287
0.000943804
1.35359e-10
0.00120785
0.000932482
4.87816e-11
0.00106676
0.00101292
-5.99794e-11
0.00102057
0.00109096
1.29782e-10
0.00105553
0.00110779
1.03875e-10
0.00102228
0.00108275
1.48951e-10
0.000959881
0.00102236
1.67431e-10
0.000899374
0.000942916
9.8829e-11
0.000846541
0.000886508
8.48068e-11
0.000820463
0.000836588
4.49928e-11
0.000830277
0.000790093
6.09632e-11
0.000874847
0.00071372
5.70281e-11
0.000928641
0.000624436
4.91401e-11
0.000995615
0.000536485
4.24042e-11
0.0010836
0.000445709
3.98525e-11
0.00119843
0.000330159
3.62207e-11
0.00135225
5.04235e-11
0.00180593
0.00178497
-5.55633e-07
-3.25234e-12
0.00174832
4.11898e-06
1.74157e-11
0.00119948
3.94537e-05
1.22459e-10
0.00060815
0.000273119
3.69243e-10
0.00101766
0.000135339
-3.61528e-10
0.000806274
0.000105686
2.11925e-10
0.000777961
0.000127242
-3.47801e-11
0.000766595
0.000128197
-4.51162e-11
0.000800821
0.000114411
1.00094e-11
0.000860952
0.00010608
2.17795e-11
0.00092324
0.000109552
-7.30231e-12
0.000940891
0.000104033
3.02443e-11
0.000911389
9.56655e-05
7.23771e-11
0.000857451
8.862e-05
6.69678e-11
0.000795692
8.32931e-05
3.67035e-12
0.000753498
8.09719e-05
-1.5844e-11
0.000704837
8.11201e-05
-3.05758e-11
0.000644238
8.36369e-05
-8.82855e-11
0.000536868
8.648e-05
-1.29357e-10
0.000399581
8.989e-05
-1.53917e-10
0.000266409
9.58728e-05
-1.20908e-10
0.000166574
0.000102481
-1.29608e-11
0.000102585
0.000109095
8.95115e-11
5.12628e-05
0.0001137
1.49867e-10
0.000119614
1.89079e-10
0.0017878
-1.20243e-06
-4.59802e-13
0.00174837
8.55907e-06
1.1089e-11
0.00121216
7.83372e-05
5.98279e-11
0.000582423
0.000554282
6.1573e-11
0.00100743
0.00026659
4.0919e-10
0.000810676
0.000202767
-1.25691e-10
0.000775001
0.00025694
-2.10715e-10
0.000761084
0.00025959
-3.8619e-11
0.000799286
0.000226783
-8.12e-11
0.000859726
0.000209911
-1.36226e-10
0.000925792
0.000217436
8.99487e-11
0.00094711
0.000206485
7.54809e-11
0.000918817
0.000190814
6.56393e-11
0.000866161
0.000177295
5.39695e-11
0.000802787
0.000167592
-2.76829e-12
0.000759504
0.000163009
-1.00904e-11
0.000709707
0.000163183
-3.47698e-11
0.000650234
0.000168224
-8.05003e-11
0.000544151
0.000174015
-1.22062e-10
0.000407456
0.000181165
-1.47193e-10
0.000273775
0.00019346
-1.17204e-10
0.000172636
0.000207055
-1.2886e-11
0.000106028
0.000220828
8.54119e-11
5.25656e-05
0.000229979
1.46026e-10
0.000241277
1.82465e-10
0.00179403
-1.79747e-06
-1.22878e-12
0.00174897
1.25221e-05
1.70795e-11
0.0012461
0.000112374
1.02512e-10
0.000557988
0.000823535
2.30973e-10
0.00100243
0.000415921
2.29325e-10
0.000821769
0.000295762
-4.38986e-11
0.000778763
0.000381915
-1.59334e-10
0.000766766
0.000390962
-8.03105e-11
0.000809158
0.000338571
-1.00204e-10
0.000863748
0.000314576
-8.09934e-11
0.000932488
0.000325926
8.81018e-11
0.00095775
0.000309776
1.84392e-11
0.00093019
0.000287147
8.59105e-12
0.000878031
0.000267766
1.08441e-11
0.000812925
0.00025237
-3.35806e-11
0.000768329
0.000245157
-3.04833e-11
0.000717241
0.000245421
-5.36998e-11
0.000659693
0.000253142
-7.43398e-11
0.000555977
0.000262359
-1.18821e-10
0.000420723
0.000273659
-1.42437e-10
0.000286818
0.000292805
-1.1469e-10
0.000183834
0.000314359
-1.42192e-11
0.000113891
0.000335603
8.01555e-11
5.65994e-05
0.000350161
1.40656e-10
0.000367257
1.73502e-10
0.00180387
-2.26475e-06
-4.44915e-12
0.00175139
1.57082e-05
1.90262e-11
0.00129741
0.000138999
1.11656e-10
0.000523996
0.00107105
3.07594e-10
0.000996501
0.000580521
-2.67032e-10
0.000842463
0.000387708
1.01138e-10
0.000784137
0.000502085
-1.06386e-11
0.000778325
0.000521513
-6.84035e-11
0.000824275
0.000453152
-1.19936e-10
0.000868442
0.000420144
1.43888e-12
0.000942043
0.000433871
-1.82829e-11
0.000971739
0.000415097
-3.45605e-11
0.000945732
0.000385159
-5.21293e-11
0.000895619
0.000359224
-6.80417e-11
0.000828186
0.000338526
-8.96993e-11
0.00078126
0.00032833
-5.40655e-11
0.000728556
0.000327892
-7.82506e-11
0.000673389
0.000338834
-6.65412e-11
0.000573241
0.000352749
-1.13053e-10
0.000440799
0.000368425
-1.35477e-10
0.000307723
0.000394883
-1.10459e-10
0.000202932
0.000424692
-1.74967e-11
0.000128454
0.000453852
7.04856e-11
6.47863e-05
0.000476388
1.33093e-10
0.000501797
1.5682e-10
0.00181539
-2.60734e-06
-5.51553e-12
0.00175849
1.82429e-05
1.90964e-11
0.00135904
0.000157209
1.07331e-10
0.000482647
0.00127712
2.47875e-10
0.000986176
0.000763918
-1.65032e-10
0.000872277
0.000487748
9.77704e-11
0.000791705
0.000616527
1.4891e-10
0.000796055
0.000651699
-4.51312e-11
0.000843763
0.000571741
-1.51102e-10
0.00087476
0.000527087
2.53191e-11
0.000953032
0.000540813
-1.44366e-11
0.000988265
0.000521795
-5.46722e-11
0.000965178
0.000485497
-7.4905e-11
0.00091811
0.000452695
-1.00014e-10
0.000847817
0.000426384
-8.00603e-11
0.00079758
0.000412009
-4.72046e-11
0.0007436
0.000410556
-9.05743e-11
0.000690637
0.000424739
-4.97415e-11
0.000595519
0.000444371
-1.03484e-10
0.000467488
0.000464759
-1.26814e-10
0.000336803
0.000499065
-1.05109e-10
0.000229743
0.000537435
-2.0127e-11
0.000149743
0.000575869
6.20473e-11
7.85644e-05
0.000607999
1.23659e-10
0.000645897
1.42111e-10
0.00182945
-2.87529e-06
-5.47328e-12
0.00176963
1.93662e-05
1.90531e-11
0.00142995
0.000164705
1.07736e-10
0.000446138
0.00141061
2.82316e-10
0.000972104
0.000978074
-8.0323e-11
0.0009138
0.000607195
4.05586e-12
0.000803351
0.000725027
2.16523e-10
0.000818816
0.000782894
-3.70035e-11
0.000864653
0.000694676
-2.48317e-10
0.000881913
0.000634927
2.34034e-11
0.000964844
0.000646269
7.39101e-11
0.00100659
0.000630203
-5.04265e-11
0.000987755
0.00058853
-1.075e-10
0.000944545
0.000548718
-8.13944e-11
0.000871848
0.000515767
-1.08587e-10
0.000817659
0.000496229
-5.36867e-11
0.000762805
0.000493033
-1.19487e-10
0.000711709
0.000510034
-3.32827e-11
0.000622719
0.000536112
-9.37182e-11
0.000501064
0.000562136
-1.19237e-10
0.000374237
0.000603458
-9.83879e-11
0.000265281
0.000651689
-1.8134e-11
0.00017895
0.000701304
5.68464e-11
9.76044e-05
0.000746839
1.1421e-10
0.000803032
1.25407e-10
0.0018458
-2.95509e-06
-5.64961e-12
0.00178639
1.94169e-05
1.68755e-11
0.00150785
0.000162751
1.00081e-10
0.000420111
0.00143875
3.24653e-10
0.0010352
0.0012479
-1.58295e-10
0.000968884
0.000747119
5.65011e-12
0.000820123
0.000825486
2.46962e-10
0.00084582
0.000912718
1.19359e-11
0.000885375
0.00082079
-2.38322e-10
0.000891258
0.000743706
-1.31105e-11
0.000976659
0.000747504
9.32144e-11
0.00102599
0.000738481
-6.64535e-11
0.00101352
0.000694028
-1.48934e-10
0.000974467
0.000647383
-7.63092e-11
0.000900847
0.000607682
-1.2435e-10
0.000841736
0.000581141
-5.1624e-11
0.000786481
0.00057558
-7.74176e-11
0.000736843
0.000594268
-1.40864e-11
0.000655368
0.000626444
-9.21488e-11
0.000541977
0.000659439
-1.07748e-10
0.000420662
0.000706917
-8.6172e-11
0.000311264
0.000766441
-1.15805e-11
0.000218639
0.000829325
5.69246e-11
0.000124874
0.000893408
1.05657e-10
0.000978304
1.09265e-10
0.001864
-2.81269e-06
-5.73193e-12
0.00180948
1.88487e-05
1.39573e-11
0.00159305
0.000154063
8.74694e-11
0.000461205
0.00134896
3.4967e-10
0.00113262
0.00160513
-2.99977e-10
0.00101776
0.000890945
2.88018e-11
0.000841553
0.000923318
2.29924e-10
0.000877554
0.00103618
1.0393e-10
0.000904991
0.000948375
-1.35422e-10
0.000901478
0.000853355
-3.77129e-11
0.000988372
0.000842735
8.2692e-11
0.00104665
0.000846043
-8.99243e-11
0.00104258
0.000801604
-1.52015e-10
0.0010076
0.000748095
-1.12112e-10
0.000934962
0.000701764
-1.37916e-10
0.000870396
0.000668186
-3.34295e-11
0.000814786
0.000658372
-6.52077e-11
0.000766095
0.00067695
-1.10058e-11
0.00069453
0.00071378
-1.08005e-10
0.000590802
0.000754573
-1.01292e-10
0.000476353
0.000808473
-7.55641e-11
0.00037013
0.000879404
-4.15427e-12
0.000271774
0.00095877
5.78982e-11
0.000164177
0.00104698
9.75551e-11
0.00118337
9.46351e-11
0.00188332
-2.26505e-06
-5.54404e-12
0.00183789
1.84096e-05
1.10055e-11
0.00168319
0.000141549
7.36687e-11
0.000593389
0.00115721
3.49866e-10
0.00117553
0.00203115
-3.64884e-10
0.00105588
0.00104412
2.81413e-11
0.000867148
0.00103523
1.82035e-10
0.000904645
0.00113617
1.81875e-10
0.000923572
0.00107463
-3.14729e-11
0.000914283
0.000962336
-7.7546e-12
0.0010001
0.000933107
6.7048e-11
0.001068
0.000952157
-8.9354e-11
0.00107389
0.000910733
-1.3681e-10
0.00104385
0.000851896
-1.03696e-10
0.00097595
0.000799144
-1.06217e-10
0.000903698
0.00075613
-3.03195e-11
0.00084815
0.000739847
-6.38982e-11
0.00079876
0.000756006
-4.17876e-11
0.000739121
0.000798143
-8.79371e-11
0.000647939
0.000844465
-9.1014e-11
0.000543826
0.000906103
-6.44348e-11
0.000443851
0.000987826
1.35589e-12
0.000344108
0.00108507
5.93622e-11
0.000228714
0.00120167
9.09881e-11
0.00144774
8.24632e-11
0.00190275
-4.90391e-12
-1.11539e-06
0.00186919
8.02772e-12
1.90799e-05
0.00177483
5.5132e-11
0.000130412
0.000825061
2.97513e-10
0.000918945
0.00122178
-3.59189e-10
0.00249387
0.00107375
4.29004e-11
0.00121309
0.000892443
1.5026e-10
0.00113481
0.000928496
1.53133e-10
0.00123332
0.000943818
1.64285e-11
0.00120838
0.000932496
3.4033e-11
0.00106724
0.00101306
4.58994e-11
0.00102137
0.0010908
-6.74067e-11
0.00105572
0.00110751
-3.08237e-11
0.0010221
0.00108241
-6.73048e-11
0.000959593
0.00102208
-7.59582e-11
0.000899069
0.000942709
-3.1793e-11
0.000846314
0.000886334
-5.44215e-11
0.000820224
0.000836494
-4.87919e-11
0.000830068
0.000789998
-8.47918e-11
0.000874638
0.000713641
-8.4276e-11
0.000928434
0.000624379
-5.68364e-11
0.000995445
0.00053646
2.09083e-12
0.00108347
0.000445704
5.76182e-11
0.00119836
0.000330147
8.56304e-11
0.00135221
7.53174e-11
0.00180581
0.00178498
-5.53578e-07
9.70979e-13
0.00174833
4.11466e-06
-8.0384e-12
0.00119965
3.941e-05
-4.21826e-11
0.000608712
0.000272693
-3.39939e-11
0.00101801
0.000135575
9.39007e-11
0.000806288
0.000105905
2.15839e-11
0.000778073
0.000127042
4.90688e-11
0.000766925
0.00012808
4.63725e-11
0.000800938
0.000114619
7.09937e-12
0.000860859
0.000106338
1.56173e-12
0.000922854
0.000109835
1.84461e-11
0.000940236
0.000104113
2.36254e-11
0.000910719
9.55428e-05
1.91968e-11
0.000856838
8.84283e-05
1.10378e-11
0.00079532
8.31386e-05
-1.31311e-11
0.000753246
8.0881e-05
-5.28116e-11
0.000704735
8.10746e-05
-8.2992e-11
0.000644199
8.36079e-05
-1.02306e-10
0.000536888
8.64567e-05
-7.58149e-11
0.000399636
8.98766e-05
-4.74908e-11
0.000266487
9.58655e-05
-2.05054e-11
0.000166667
0.000102475
1.39399e-11
0.00010267
0.000109087
3.76556e-11
5.13136e-05
0.00011369
3.86896e-11
0.000119604
3.50384e-11
0.0017878
-1.20344e-06
7.5321e-13
0.00174836
8.56217e-06
-6.77608e-12
0.00121209
7.83755e-05
-3.42434e-11
0.000581575
0.000554687
-1.48222e-11
0.00100688
0.000266151
6.47146e-11
0.000810392
0.000202758
3.66946e-11
0.000774228
0.000257192
4.80259e-11
0.000759975
0.000259974
4.46886e-11
0.000798133
0.00022717
2.75424e-11
0.000858785
0.000210281
2.1761e-11
0.000924551
0.000217726
7.71033e-12
0.000945911
0.00020618
1.60218e-11
0.000917951
0.000190203
1.75831e-11
0.000865519
0.000176696
1.28739e-11
0.000802445
0.000167277
-4.34855e-12
0.000759292
0.000162858
-4.32413e-11
0.000709626
0.000163117
-7.62849e-11
0.000650197
0.000168171
-1.02159e-10
0.000544171
0.000173964
-8.67606e-11
0.00040751
0.000181137
-5.15387e-11
0.000273854
0.000193445
-2.15539e-11
0.000172728
0.000207043
1.32517e-11
0.000106114
0.000220811
3.815e-11
5.26171e-05
0.000229959
3.69621e-11
0.000241258
3.57254e-11
0.00179404
-1.79945e-06
6.58043e-13
0.00174898
1.25262e-05
-5.85727e-12
0.00124615
0.000112409
-2.95331e-11
0.000557902
0.000823888
-1.98264e-11
0.00100228
0.000416001
4.71875e-11
0.000821585
0.000295627
3.94076e-11
0.000778471
0.000382186
4.29349e-11
0.000766454
0.000391493
3.64393e-11
0.000808969
0.000338999
4.56738e-11
0.000863681
0.000314838
4.22584e-11
0.000932335
0.000326002
5.43261e-12
0.000957602
0.000309418
2.46264e-11
0.000930041
0.000286561
1.98008e-11
0.0008779
0.000267206
1.52737e-11
0.000812858
0.000252012
-7.771e-12
0.000768264
0.000244964
-3.93346e-11
0.000717215
0.000245311
-6.9869e-11
0.000659703
0.000253064
-1.00836e-10
0.000556026
0.000262304
-9.24024e-11
0.000420795
0.000273631
-6.42828e-11
0.000286906
0.000292789
-2.59711e-11
0.00018393
0.000314346
1.2815e-11
0.000113978
0.000335583
3.87903e-11
5.66515e-05
0.000350134
3.84481e-11
0.000367231
3.67957e-11
0.00180388
-2.26517e-06
6.72137e-13
0.0017514
1.5711e-05
-4.10523e-12
0.00129752
0.000139018
-1.90887e-11
0.000524199
0.00107123
-1.02996e-11
0.000996639
0.000580706
4.9833e-11
0.000842449
0.000387649
2.0297e-11
0.000784108
0.000502219
3.31568e-11
0.000778525
0.000521869
2.98332e-11
0.000824619
0.000453432
4.72308e-11
0.000868737
0.00042026
4.20145e-11
0.000942474
0.000433794
-9.92613e-13
0.000972216
0.000414696
9.89617e-12
0.000946191
0.000384614
1.83742e-11
0.000896029
0.000358729
1.67352e-11
0.000828496
0.000338263
7.61232e-12
0.000781452
0.000328191
-3.1319e-11
0.000728664
0.000327819
-6.54286e-11
0.000673467
0.000338788
-9.28355e-11
0.000573327
0.00035272
-9.50311e-11
0.000440889
0.000368412
-7.56185e-11
0.00030782
0.000394875
-3.42936e-11
0.00020303
0.000424684
1.23279e-11
0.000128541
0.000453833
3.95411e-11
6.48386e-05
0.000476359
4.18551e-11
0.000501763
4.29412e-11
0.0018154
-2.60717e-06
6.95653e-13
0.0017585
1.82425e-05
-1.84977e-12
0.00135912
0.000157203
-9.10183e-12
0.000482766
0.00127713
6.45256e-12
0.00098629
0.000763989
4.92989e-11
0.000872404
0.00048779
1.14258e-11
0.000791809
0.000616519
8.27456e-12
0.000796468
0.00065181
2.28677e-11
0.000844372
0.000571907
3.39754e-11
0.000875204
0.000527009
2.24375e-11
0.000953727
0.000540588
9.45337e-12
0.000989115
0.000521387
2.01157e-11
0.000966017
0.000485134
2.74736e-11
0.00091889
0.00045248
2.57205e-11
0.000848366
0.000426344
5.00658e-12
0.000797919
0.00041201
-2.90336e-11
0.000743811
0.000410551
-6.04539e-11
0.000690762
0.000424758
-9.11096e-11
0.00059563
0.00044438
-9.69293e-11
0.000467592
0.000464773
-8.08525e-11
0.000336905
0.000499076
-4.19208e-11
0.000229844
0.000537438
1.12557e-11
0.000149828
0.000575853
3.89782e-11
7.86148e-05
0.000607969
4.33844e-11
0.000645861
4.24465e-11
0.00182946
-2.87513e-06
5.70264e-13
0.00176964
1.93644e-05
1.8461e-13
0.00143001
0.000164687
1.4272e-12
0.000446115
0.00141051
2.90054e-11
0.000972167
0.000978098
4.34748e-11
0.000914
0.000607247
6.10094e-12
0.000803523
0.0007249
-1.52894e-11
0.000819241
0.000782795
1.15956e-11
0.000865295
0.000694707
3.76077e-11
0.000882373
0.000634746
9.00297e-12
0.00096552
0.000645772
-1.13807e-11
0.00100759
0.00062988
3.16584e-11
0.000988812
0.000588509
3.49177e-11
0.00094555
0.00054891
2.44011e-12
0.00087252
0.000516024
3.34257e-12
0.000818023
0.000496389
-2.32095e-11
0.000763042
0.000493115
-2.25902e-11
0.000711845
0.000510093
-9.39764e-11
0.000622839
0.000536168
-9.62054e-11
0.000501172
0.000562186
-8.38144e-11
0.00037434
0.000603498
-5.01295e-11
0.000265382
0.000651707
3.09827e-12
0.000179033
0.000701295
3.56097e-11
9.76523e-05
0.000746809
4.54294e-11
0.000802996
4.14875e-11
0.00184581
-2.95457e-06
3.16525e-13
0.0017864
1.94154e-05
2.43808e-12
0.0015079
0.000162732
1.26066e-11
0.000420043
0.00143859
6.35325e-11
0.0010354
0.00124797
3.43977e-11
0.000969084
0.000747104
-9.44483e-12
0.000820312
0.000825276
-3.58306e-11
0.000846148
0.000912419
2.94678e-12
0.000885879
0.000820618
4.43748e-11
0.000891637
0.000743446
4.10916e-12
0.000977147
0.000746897
-3.49386e-11
0.00102689
0.000738323
2.18435e-11
0.00101459
0.000694338
3.23749e-11
0.000975504
0.000647842
-1.15483e-11
0.000901619
0.000608185
-2.00195e-12
0.000842128
0.000581425
-4.64928e-11
0.000786707
0.000575739
-5.99209e-11
0.000736954
0.00059434
-1.07421e-10
0.000655474
0.000626515
-9.76793e-11
0.000542074
0.00065952
-9.10807e-11
0.000420758
0.000706985
-6.11089e-11
0.00031136
0.000766475
-6.56118e-12
0.000218716
0.000829325
2.84478e-11
0.000124919
0.000893378
4.36215e-11
0.00097827
3.98912e-11
0.00186401
-2.81183e-06
-2.82032e-14
0.00180949
1.88477e-05
4.63803e-12
0.0015931
0.000154045
2.47008e-11
0.000461181
0.00134878
1.21199e-10
0.00113272
0.00160527
1.43395e-11
0.00101792
0.000890876
-2.39608e-11
0.000841713
0.000923073
-4.13438e-11
0.000877751
0.00103572
-9.99496e-12
0.000905291
0.000948003
3.34116e-11
0.000901729
0.00085302
-4.46927e-12
0.000988646
0.000842184
-3.31316e-11
0.00104731
0.000846032
1.84044e-11
0.00104343
0.000802037
1.69954e-11
0.00100844
0.000748638
-7.44389e-12
0.000935584
0.000702275
-4.59585e-12
0.000870711
0.000668459
-2.23526e-11
0.000814998
0.000658548
-3.20811e-11
0.000766175
0.000677033
-9.9116e-11
0.000694625
0.000713885
-9.2052e-11
0.000590887
0.000754686
-9.42003e-11
0.000476439
0.000808564
-6.82183e-11
0.000370213
0.000879454
-1.7049e-11
0.00027184
0.000958778
2.09744e-11
0.000164216
0.00104695
3.86063e-11
0.00118333
3.7114e-11
0.00188333
-2.26388e-06
-4.23904e-13
0.00183791
1.8409e-05
5.85596e-12
0.00168323
0.000141532
3.49053e-11
0.000593393
0.001157
1.73395e-10
0.00117561
0.00203132
3.72535e-12
0.00105598
0.00104402
-5.31894e-11
0.000867255
0.00103499
-4.15296e-11
0.000904695
0.00113565
-2.86262e-11
0.000923687
0.00107415
7.67624e-12
0.000914364
0.000961919
-1.61155e-11
0.00100021
0.000932651
-2.19722e-11
0.00106838
0.000952241
4.60484e-12
0.00107441
0.000911147
-4.72237e-12
0.00104438
0.000852348
-2.05829e-11
0.000976368
0.000799544
-3.17654e-11
0.000903914
0.000756337
-2.02071e-11
0.0008483
0.000739996
-1.86233e-11
0.000798813
0.000756104
-8.56836e-11
0.000739189
0.000798265
-9.5746e-11
0.000648007
0.0008446
-9.80427e-11
0.000543895
0.000906215
-7.51007e-11
0.000443917
0.000987888
-2.79766e-11
0.000344161
0.00108509
1.24633e-11
0.000228745
0.00120164
3.02344e-11
0.0014477
3.22964e-11
0.00190276
-8.27623e-13
-1.11412e-06
0.0018692
5.37119e-12
1.908e-05
0.00177486
3.09366e-11
0.000130401
0.00082509
1.87087e-10
0.000918784
0.00122182
1.09254e-11
0.00249402
0.00107378
-7.30633e-11
0.00121294
0.000892504
-4.29004e-11
0.00113455
0.000928498
-3.06944e-11
0.00123289
0.000943797
-7.38762e-12
0.00120789
0.000932431
-2.19892e-11
0.00106683
0.00101308
-4.69722e-12
0.00102107
0.00109097
-1.09166e-11
0.00105583
0.00110771
-6.33898e-11
0.00102236
0.00108263
-3.15168e-11
0.000959864
0.00102223
-3.28216e-11
0.000899283
0.000942814
-2.90052e-11
0.000846435
0.000886414
-4.19684e-11
0.00082036
0.000836523
-8.78614e-11
0.000830204
0.000790036
-8.99666e-11
0.00087478
0.000713687
-9.58324e-11
0.000928583
0.000624426
-7.80315e-11
0.000995575
0.000536505
-3.79289e-11
0.00108355
0.00044574
4.15677e-12
0.00119838
0.000330168
2.23922e-11
0.00135219
2.79825e-11
0.00180577
0.00178497
-5.53771e-07
-4.80655e-12
0.00174833
4.11566e-06
7.13557e-11
0.00119962
3.9419e-05
3.75184e-10
0.000608699
0.000272754
4.70793e-10
0.00101798
0.000135567
-4.08576e-10
0.000806272
0.000105892
6.81224e-11
0.000778047
0.000127063
6.30312e-11
0.000766859
0.000128101
1.55879e-11
0.000800869
0.000114604
-2.45006e-11
0.000860823
0.000106311
-9.23181e-12
0.00092283
0.000109816
-2.66475e-12
0.000940219
0.000104111
7.68536e-12
0.000910696
9.55609e-05
3.2084e-11
0.000856793
8.84507e-05
6.52534e-11
0.000795266
8.31569e-05
7.98721e-11
0.000753179
8.08883e-05
6.60938e-11
0.00070466
8.10752e-05
2.81366e-11
0.000644098
8.36053e-05
9.69643e-12
0.000536768
8.64525e-05
-9.3414e-12
0.000399511
8.9873e-05
-2.6303e-12
0.000266378
9.58649e-05
1.75047e-11
0.000166591
0.000102477
5.48829e-11
0.000102626
0.000109094
6.49965e-11
5.12849e-05
0.000113697
6.03965e-11
0.000119617
5.77645e-11
0.0017878
-1.2035e-06
-4.80798e-12
0.00174837
8.56316e-06
6.92784e-11
0.00121208
7.83841e-05
3.69137e-10
0.000581657
0.000554725
4.92818e-10
0.00100692
0.0002662
-4.11487e-10
0.000810399
0.000202758
4.80277e-11
0.000774267
0.000257188
4.81369e-11
0.000760022
0.00025997
1.05795e-11
0.000798179
0.000227144
-3.26703e-11
0.00085883
0.000210246
-1.92943e-11
0.00092461
0.000217698
-7.74751e-12
0.000945953
0.000206205
-1.20069e-12
0.000917955
0.000190261
6.92052e-12
0.00086548
0.000176759
4.22109e-11
0.000802387
0.000167313
6.42374e-11
0.000759222
0.000162872
6.16209e-11
0.000709549
0.000163118
3.06615e-11
0.000650099
0.000168166
1.75644e-11
0.000544054
0.000173959
-1.33527e-12
0.000407389
0.000181133
1.56208e-12
0.000273748
0.000193446
1.82415e-11
0.000172655
0.00020705
5.29047e-11
0.00010607
0.000220827
6.19044e-11
5.25895e-05
0.000229972
5.78489e-11
0.000241282
5.67183e-11
0.00179403
-1.79947e-06
-4.54898e-12
0.00174898
1.25277e-05
6.86809e-11
0.00124614
0.000112421
3.56839e-10
0.000557932
0.000823956
5.41663e-10
0.00100229
0.000416014
-3.86286e-10
0.000821592
0.000295639
1.02932e-11
0.0007785
0.000382176
2.05893e-11
0.00076651
0.000391451
7.78196e-13
0.000809034
0.000338941
-3.93016e-11
0.000863729
0.000314789
-2.19353e-11
0.0009324
0.000325962
-1.52171e-11
0.000957634
0.000309445
-1.67058e-11
0.000930031
0.000286639
-1.87977e-11
0.000877841
0.000267285
-1.76235e-12
0.00081279
0.000252087
2.88721e-11
0.000768196
0.000244995
4.43886e-11
0.000717144
0.000245328
2.99288e-11
0.000659605
0.000253069
2.50045e-11
0.00055591
0.000262297
8.46281e-12
0.000420676
0.000273626
7.62144e-12
0.000286805
0.000292793
1.97304e-11
0.000183859
0.000314357
5.01803e-11
0.000113936
0.000335603
5.79336e-11
5.66266e-05
0.000350151
5.44932e-11
0.000367265
5.46529e-11
0.00180387