/*--------------------------------*- C++ -*----------------------------------*\
| =========                 |                                                 |
| \\      /  F ield         | OpenFOAM: The Open Source CFD Toolbox           |
|  \\    /   O peration     | Version:  4.1                                   |
|   \\  /    A nd           | Web:      www.OpenFOAM.org                      |
|    \\/     M anipulation  |                                                 |
\*---------------------------------------------------------------------------*/
FoamFile
{
    version     2.0;
    format      ascii;
    class       volScalarField;
    location    "0.7";
    object      T;
}
// * * * * * * * * * * * * * * * * * * * * * * * * * * * * * * * * * * * * * //

dimensions      [0 0 0 1 0 0 0];

internalField   nonuniform List<scalar> 
52500
(
0.316624
0.558601
0.9925
1.31824
1.27726
1.3255
1.36618
1.34972
1.32866
1.26698
1.12931
1.05688
1.03592
1.04319
1.08017
1.10207
1.10074
1.07525
1.05812
1.05868
1.05439
1.03873
1.01678
0.987414
0.932241
0.317559
0.555478
0.988923
1.31747
1.27909
1.32553
1.36619
1.34946
1.32868
1.26718
1.12936
1.05671
1.03528
1.0419
1.07847
1.10106
1.10038
1.0753
1.05739
1.05778
1.05345
1.03779
1.01576
0.986281
0.930771
0.319665
0.548597
0.980803
1.31343
1.28061
1.32462
1.36731
1.34996
1.33005
1.27093
1.13224
1.0572
1.03378
1.03888
1.07467
1.09935
1.10013
1.07613
1.05691
1.05703
1.05284
1.03729
1.01499
0.985493
0.92927
0.32291
0.53838
0.96792
1.30595
1.28163
1.32152
1.36717
1.3495
1.33159
1.27865
1.13972
1.05923
1.03288
1.03649
1.07101
1.0976
1.10021
1.07771
1.05653
1.05618
1.05202
1.03654
1.01419
0.984475
0.928086
0.327236
0.526851
0.948067
1.29579
1.28154
1.31833
1.36703
1.34812
1.33239
1.28533
1.14846
1.06185
1.03098
1.03239
1.06433
1.09443
1.09964
1.07944
1.05606
1.05493
1.05063
1.03526
1.01267
0.983434
0.92603
0.332582
0.513604
0.920859
1.28061
1.28013
1.31754
1.36678
1.34659
1.33299
1.29271
1.16008
1.06505
1.02851
1.02757
1.05646
1.09022
1.09844
1.08119
1.05544
1.05313
1.04858
1.03356
1.01058
0.981737
0.923069
0.338868
0.499438
0.88448
1.25776
1.27958
1.31987
1.36542
1.34616
1.33404
1.29779
1.17367
1.06969
1.02601
1.02176
1.04635
1.08394
1.09596
1.08262
1.05482
1.05072
1.04601
1.0313
1.00822
0.978787
0.917696
0.346018
0.485352
0.838532
1.22458
1.28799
1.31689
1.36214
1.34596
1.33496
1.30259
1.19032
1.07662
1.02422
1.01558
1.03496
1.07618
1.09245
1.0833
1.05453
1.04669
1.04236
1.02902
1.00437
0.97454
0.912851
0.354028
0.472255
0.785213
1.18056
1.29992
1.31189
1.35711
1.34629
1.33548
1.30651
1.20923
1.08597
1.02406
1.00962
1.02314
1.06541
1.08765
1.08274
1.05429
1.04331
1.03813
1.02469
1.00024
0.970125
0.898386
0.362804
0.460809
0.729462
1.12812
1.31118
1.30561
1.34898
1.3463
1.33619
1.30889
1.22912
1.09825
1.02534
1.0034
1.0121
1.05256
1.08078
1.08086
1.05528
1.03868
1.03135
1.01724
0.992644
0.957932
0.877776
0.316614
0.558629
0.992537
1.31829
1.27729
1.32557
1.36617
1.34974
1.32865
1.26686
1.12929
1.05692
1.03596
1.04321
1.08017
1.10207
1.10074
1.07524
1.05811
1.05867
1.05437
1.03871
1.01675
0.987387
0.932271
0.317553
0.5555
0.988958
1.31744
1.27898
1.32541
1.36608
1.3494
1.32874
1.2677
1.12984
1.05684
1.03525
1.04177
1.07832
1.10102
1.10037
1.07531
1.05739
1.05777
1.05344
1.03777
1.01573
0.986254
0.930793
0.319658
0.548622
0.980848
1.31343
1.28056
1.32449
1.36718
1.34989
1.33014
1.2714
1.13265
1.05739
1.03392
1.03903
1.07479
1.0994
1.10015
1.07611
1.05691
1.05702
1.05283
1.03727
1.01496
0.98547
0.929287
0.322899
0.538406
0.967965
1.30598
1.28161
1.32151
1.36711
1.34944
1.33152
1.27857
1.13977
1.05933
1.03302
1.03668
1.07123
1.0977
1.10022
1.07765
1.05651
1.05617
1.05201
1.03652
1.01417
0.984455
0.928099
0.327222
0.526876
0.948118
1.29581
1.28154
1.31834
1.367
1.34808
1.33234
1.28511
1.14789
1.06165
1.03094
1.03239
1.06439
1.09446
1.09964
1.07942
1.05606
1.05493
1.05062
1.03525
1.01266
0.983415
0.926034
0.332568
0.513628
0.920916
1.28063
1.28011
1.31751
1.36674
1.34654
1.3329
1.29237
1.1598
1.06498
1.02865
1.0278
1.05673
1.09028
1.09841
1.08112
1.05542
1.05312
1.04857
1.03355
1.01056
0.981716
0.923079
0.338853
0.499458
0.884546
1.25778
1.27954
1.31983
1.36539
1.34609
1.33392
1.29746
1.17306
1.0695
1.02634
1.0223
1.04708
1.08435
1.0961
1.0826
1.05479
1.05071
1.046
1.03128
1.00819
0.978761
0.917714
0.346002
0.485368
0.838599
1.2246
1.28793
1.31687
1.36213
1.3459
1.33487
1.30241
1.18954
1.07636
1.02452
1.01611
1.03561
1.0766
1.09263
1.08331
1.05447
1.04668
1.04236
1.029
1.00433
0.974509
0.912875
0.354011
0.472267
0.785277
1.18059
1.29984
1.31189
1.35712
1.34626
1.33544
1.30648
1.20864
1.08582
1.02423
1.00991
1.02345
1.06563
1.08773
1.08273
1.05423
1.0433
1.03813
1.02468
1.00019
0.97009
0.898416
0.362789
0.460819
0.729518
1.12813
1.31111
1.30562
1.34899
1.34629
1.3362
1.30894
1.22871
1.09824
1.02543
1.00345
1.01212
1.05254
1.08075
1.08082
1.05523
1.03865
1.03132
1.01722
0.992603
0.957891
0.877804
0.316618
0.558618
0.992521
1.31825
1.27727
1.32552
1.36617
1.3497
1.32859
1.26669
1.12912
1.05691
1.03606
1.04337
1.08033
1.10214
1.10074
1.07522
1.05811
1.05869
1.05438
1.03871
1.01674
0.987372
0.932251
0.317554
0.555493
0.988945
1.31746
1.27906
1.32551
1.36615
1.34942
1.32864
1.26709
1.12933
1.05678
1.0354
1.04204
1.07859
1.10111
1.10039
1.07528
1.05739
1.05778
1.05345
1.03777
1.01572
0.986239
0.930774
0.31966
0.548612
0.980826
1.31344
1.28058
1.32458
1.36726
1.34992
1.33004
1.27102
1.13233
1.05727
1.03383
1.03893
1.07471
1.09938
1.10014
1.07612
1.05692
1.05704
1.05284
1.03728
1.01495
0.985456
0.929268
0.322905
0.538395
0.967944
1.30596
1.28162
1.32151
1.36714
1.34946
1.33155
1.27867
1.13989
1.05932
1.03296
1.03663
1.07118
1.09767
1.10023
1.07768
1.05652
1.05618
1.05202
1.03652
1.01416
0.984442
0.928081
0.32723
0.526865
0.948094
1.2958
1.28153
1.31833
1.36702
1.34811
1.33239
1.28543
1.14832
1.06178
1.03092
1.03231
1.06425
1.0944
1.09964
1.07945
1.05607
1.05494
1.05063
1.03525
1.01265
0.983403
0.926019
0.332575
0.513617
0.920889
1.28063
1.28011
1.31752
1.36676
1.34656
1.33297
1.29269
1.16047
1.06518
1.02845
1.02746
1.05632
1.09014
1.09841
1.08119
1.05545
1.05313
1.04858
1.03355
1.01055
0.981704
0.923065
0.338861
0.499449
0.884514
1.25777
1.27956
1.31985
1.3654
1.34612
1.33399
1.29772
1.17372
1.06969
1.02603
1.02179
1.04644
1.08398
1.09597
1.08262
1.05482
1.05072
1.04601
1.03129
1.00818
0.978749
0.917701
0.34601
0.485361
0.838567
1.22459
1.28796
1.31688
1.36214
1.34593
1.33494
1.3026
1.19001
1.07645
1.02425
1.01569
1.03512
1.07635
1.09255
1.08333
1.05452
1.04669
1.04237
1.029
1.00432
0.974499
0.912863
0.354019
0.472262
0.785247
1.18058
1.29988
1.3119
1.35712
1.34629
1.33549
1.3066
1.20891
1.08581
1.02408
1.0097
1.02323
1.06549
1.08772
1.08277
1.05428
1.04332
1.03813
1.02468
1.00018
0.970079
0.898405
0.362796
0.460815
0.729492
1.12813
1.31115
1.30562
1.34899
1.34631
1.33624
1.30901
1.22883
1.09814
1.02535
1.00344
1.01214
1.05258
1.08079
1.08086
1.05528
1.03868
1.03133
1.01722
0.992598
0.95788
0.877792
0.316617
0.558624
0.992525
1.31826
1.27727
1.32553
1.36616
1.3497
1.3286
1.26668
1.12911
1.05691
1.03606
1.04337
1.08035
1.10215
1.10075
1.07522
1.05812
1.05869
1.05439
1.03871
1.01673
0.987364
0.932245
0.317553
0.555497
0.988949
1.31746
1.27906
1.3255
1.36614
1.34942
1.32864
1.26712
1.12935
1.05678
1.03539
1.04203
1.0786
1.10112
1.1004
1.07528
1.0574
1.05779
1.05345
1.03777
1.01571
0.986231
0.930767
0.319659
0.548616
0.98083
1.31344
1.28058
1.32457
1.36725
1.34991
1.33005
1.27108
1.13237
1.0573
1.03388
1.039
1.07478
1.09941
1.10016
1.07612
1.05692
1.05704
1.05285
1.03727
1.01494
0.985448
0.929261
0.322903
0.538398
0.967946
1.30596
1.28161
1.3215
1.36712
1.34944
1.33154
1.27873
1.13998
1.05935
1.03295
1.03657
1.07112
1.09768
1.10024
1.07769
1.05653
1.05619
1.05203
1.03652
1.01415
0.984433
0.928073
0.327229
0.526866
0.948096
1.2958
1.28153
1.31833
1.36701
1.34809
1.33237
1.28536
1.14821
1.06172
1.03085
1.03226
1.06421
1.0944
1.09964
1.07946
1.05608
1.05495
1.05064
1.03525
1.01264
0.983394
0.92601
0.332575
0.513617
0.920889
1.28062
1.28011
1.31752
1.36676
1.34657
1.33296
1.29258
1.16017
1.06506
1.02854
1.02763
1.05651
1.09019
1.09842
1.08117
1.05545
1.05314
1.04859
1.03355
1.01054
0.981695
0.923056
0.338861
0.499447
0.884511
1.25777
1.27956
1.31986
1.36541
1.34613
1.33398
1.29763
1.17346
1.06961
1.02619
1.02205
1.04679
1.08423
1.09608
1.08264
1.05482
1.05073
1.04601
1.03129
1.00818
0.978741
0.917692
0.346011
0.485358
0.838558
1.22458
1.28795
1.31688
1.36214
1.34593
1.33493
1.30254
1.18988
1.07646
1.02436
1.01583
1.03528
1.07645
1.09261
1.08335
1.05451
1.0467
1.04237
1.02901
1.00432
0.974491
0.912855
0.35402
0.472258
0.785233
1.18056
1.29987
1.31189
1.35712
1.34628
1.33548
1.30657
1.20891
1.08589
1.0241
1.00968
1.02318
1.06544
1.08769
1.08275
1.05428
1.04332
1.03814
1.02468
1.00018
0.970073
0.898398
0.362798
0.460811
0.729475
1.1281
1.31114
1.30562
1.34898
1.3463
1.33623
1.30901
1.22892
1.09826
1.02533
1.0033
1.01195
1.05241
1.08072
1.08083
1.05528
1.03868
1.03134
1.01723
0.992596
0.957876
0.877785
0.316626
0.558585
0.992487
1.31823
1.27727
1.3255
1.36614
1.34969
1.3286
1.26671
1.12913
1.05691
1.03605
1.04336
1.08032
1.10213
1.10074
1.07522
1.05812
1.05869
1.05438
1.0387
1.01672
0.987358
0.932235
0.317562
0.555461
0.988907
1.31744
1.27906
1.32548
1.36612
1.34941
1.32865
1.26713
1.12935
1.05678
1.03539
1.04202
1.07857
1.1011
1.10039
1.07529
1.0574
1.05779
1.05345
1.03776
1.01571
0.986224
0.930762
0.319668
0.54858
0.980787
1.31341
1.28059
1.32456
1.36724
1.34991
1.33005
1.27107
1.13238
1.05731
1.03389
1.039
1.07477
1.09939
1.10014
1.07612
1.05692
1.05704
1.05284
1.03726
1.01493
0.98544
0.929256
0.322912
0.538362
0.9679
1.30593
1.28161
1.32148
1.36711
1.34944
1.33156
1.27876
1.13989
1.05932
1.03295
1.03657
1.0711
1.09766
1.10022
1.07769
1.05653
1.05619
1.05202
1.03651
1.01414
0.984422
0.928072
0.327238
0.526835
0.948042
1.29577
1.28153
1.31831
1.36699
1.34807
1.33236
1.2853
1.14849
1.06183
1.03088
1.03227
1.06422
1.09439
1.09963
1.07945
1.05607
1.05494
1.05063
1.03523
1.01262
0.983383
0.926016
0.332583
0.513589
0.920829
1.28058
1.28011
1.31753
1.36675
1.34656
1.33296
1.29262
1.15985
1.06495
1.02853
1.02763
1.05652
1.09018
1.0984
1.08116
1.05544
1.05313
1.04858
1.03353
1.01053
0.981689
0.923055
0.338869
0.499424
0.884445
1.25772
1.27956
1.31986
1.36541
1.34614
1.33402
1.2977
1.17336
1.06955
1.02618
1.02205
1.04678
1.08424
1.09608
1.08263
1.05481
1.05072
1.046
1.03128
1.00817
0.978742
0.917678
0.346019
0.485339
0.838492
1.22452
1.28797
1.31688
1.36213
1.34594
1.33493
1.30253
1.19014
1.07658
1.02438
1.01583
1.03528
1.07643
1.09259
1.08333
1.0545
1.0467
1.04237
1.029
1.00433
0.974497
0.912835
0.354028
0.472244
0.785172
1.1805
1.29989
1.31189
1.35711
1.34628
1.33545
1.30649
1.20919
1.08605
1.02413
1.00968
1.02318
1.06544
1.08767
1.08273
1.05427
1.04332
1.03814
1.02468
1.0002
0.970087
0.898367
0.362805
0.460801
0.729424
1.12805
1.31115
1.30561
1.34897
1.3463
1.33618
1.30888
1.22919
1.09841
1.02537
1.00331
1.01194
1.0524
1.08071
1.08082
1.05527
1.03868
1.03135
1.01725
0.992631
0.957901
0.877751
0.316622
0.558598
0.992499
1.31824
1.27727
1.32551
1.36614
1.34969
1.32859
1.26667
1.1291
1.0569
1.03605
1.04337
1.08034
1.10215
1.10075
1.07522
1.05812
1.0587
1.05439
1.0387
1.01673
0.98736
0.93224
0.317559
0.555473
0.988921
1.31745
1.27905
1.32548
1.36612
1.34941
1.32864
1.2671
1.12933
1.05677
1.03539
1.04203
1.07859
1.10112
1.1004
1.07528
1.0574
1.0578
1.05345
1.03776
1.01571
0.986227
0.930763
0.319665
0.548592
0.980801
1.31342
1.28058
1.32456
1.36724
1.3499
1.33004
1.27107
1.13237
1.0573
1.03388
1.039
1.07478
1.09941
1.10015
1.07611
1.05692
1.05705
1.05285
1.03727
1.01494
0.985444
0.929257
0.322909
0.538374
0.967915
1.30594
1.28161
1.32149
1.36711
1.34944
1.33155
1.27875
1.13988
1.05931
1.03294
1.03657
1.07112
1.09767
1.10023
1.07769
1.05653
1.05619
1.05203
1.03652
1.01415
0.98443
0.928069
0.327234
0.526846
0.94806
1.29578
1.28153
1.31832
1.36699
1.34807
1.33235
1.28529
1.14848
1.06182
1.03088
1.03227
1.06422
1.0944
1.09964
1.07946
1.05608
1.05495
1.05064
1.03525
1.01264
0.983391
0.926006
0.33258
0.513598
0.920849
1.28059
1.28011
1.31753
1.36675
1.34656
1.33296
1.29261
1.15984
1.06494
1.02853
1.02763
1.05652
1.09019
1.09842
1.08117
1.05545
1.05314
1.04859
1.03355
1.01054
0.981694
0.923054
0.338866
0.499432
0.884467
1.25773
1.27956
1.31986
1.36541
1.34614
1.33401
1.29769
1.17334
1.06954
1.02618
1.02205
1.04679
1.08424
1.09609
1.08264
1.05482
1.05073
1.04601
1.03129
1.00818
0.97874
0.917691
0.346016
0.485346
0.838515
1.22454
1.28796
1.31688
1.36214
1.34594
1.33493
1.30252
1.19012
1.07656
1.02438
1.01584
1.03528
1.07644
1.0926
1.08334
1.05451
1.0467
1.04237
1.02901
1.00432
0.974491
0.912854
0.354025
0.472249
0.785194
1.18052
1.29988
1.31189
1.35711
1.34627
1.33545
1.30648
1.20917
1.08604
1.02413
1.00968
1.02318
1.06544
1.08768
1.08275
1.05428
1.04332
1.03814
1.02468
1.00018
0.970074
0.898398
0.362802
0.460805
0.729444
1.12807
1.31115
1.30561
1.34898
1.34629
1.33618
1.30888
1.22917
1.0984
1.02536
1.0033
1.01194
1.0524
1.08072
1.08083
1.05528
1.03868
1.03134
1.01723
0.992597
0.957878
0.877785
0.316617
0.558624
0.992525
1.31826
1.27727
1.32553
1.36616
1.3497
1.3286
1.26668
1.12911
1.05691
1.03606
1.04337
1.08035
1.10215
1.10075
1.07522
1.05812
1.05869
1.05439
1.03871
1.01673
0.987364
0.932245
0.317553
0.555498
0.988949
1.31746
1.27906
1.3255
1.36614
1.34942
1.32864
1.26712
1.12935
1.05678
1.03539
1.04203
1.0786
1.10112
1.1004
1.07528
1.0574
1.05779
1.05345
1.03777
1.01571
0.986231
0.930767
0.319659
0.548616
0.98083
1.31344
1.28058
1.32457
1.36725
1.34991
1.33005
1.27108
1.13237
1.0573
1.03388
1.039
1.07478
1.09941
1.10016
1.07612
1.05692
1.05704
1.05285
1.03727
1.01494
0.985448
0.929261
0.322903
0.538398
0.967946
1.30596
1.28161
1.3215
1.36712
1.34944
1.33154
1.27873
1.13998
1.05934
1.03295
1.03657
1.07112
1.09768
1.10024
1.07769
1.05653
1.05619
1.05203
1.03652
1.01415
0.984433
0.928073
0.327229
0.526866
0.948096
1.2958
1.28153
1.31833
1.36701
1.34809
1.33237
1.28536
1.14821
1.06172
1.03085
1.03226
1.06421
1.0944
1.09964
1.07946
1.05608
1.05495
1.05064
1.03525
1.01264
0.983394
0.92601
0.332575
0.513617
0.920889
1.28062
1.28011
1.31752
1.36676
1.34657
1.33296
1.29258
1.16017
1.06506
1.02854
1.02763
1.05651
1.09019
1.09842
1.08117
1.05545
1.05314
1.04859
1.03355
1.01054
0.981695
0.923056
0.33886
0.499447
0.884511
1.25777
1.27956
1.31986
1.36541
1.34613
1.33398
1.29763
1.17346
1.06961
1.02619
1.02205
1.04679
1.08423
1.09608
1.08264
1.05482
1.05073
1.04601
1.03129
1.00818
0.978741
0.917692
0.346011
0.485359
0.838559
1.22458
1.28795
1.31688
1.36214
1.34593
1.33493
1.30254
1.18988
1.07646
1.02436
1.01583
1.03528
1.07645
1.09261
1.08335
1.05451
1.0467
1.04237
1.02901
1.00432
0.974491
0.912855
0.35402
0.472258
0.785233
1.18056
1.29987
1.31189
1.35712
1.34628
1.33548
1.30657
1.20891
1.08589
1.0241
1.00968
1.02318
1.06544
1.08769
1.08275
1.05428
1.04332
1.03814
1.02468
1.00018
0.970073
0.898398
0.362798
0.460811
0.729475
1.1281
1.31114
1.30562
1.34898
1.3463
1.33623
1.30901
1.22892
1.09826
1.02533
1.0033
1.01195
1.05241
1.08072
1.08083
1.05528
1.03868
1.03134
1.01723
0.992596
0.957876
0.877785
0.316618
0.558618
0.992521
1.31825
1.27727
1.32552
1.36617
1.3497
1.32859
1.26669
1.12912
1.05691
1.03606
1.04337
1.08033
1.10214
1.10074
1.07522
1.05811
1.05869
1.05438
1.03871
1.01674
0.987372
0.932251
0.317554
0.555493
0.988945
1.31746
1.27906
1.32551
1.36615
1.34942
1.32864
1.26709
1.12933
1.05678
1.0354
1.04204
1.07859
1.10111
1.10039
1.07528
1.05739
1.05778
1.05345
1.03777
1.01572
0.986239
0.930774
0.31966
0.548612
0.980826
1.31344
1.28058
1.32458
1.36726
1.34992
1.33004
1.27102
1.13233
1.05727
1.03383
1.03893
1.07471
1.09938
1.10014
1.07612
1.05692
1.05704
1.05284
1.03728
1.01495
0.985456
0.929268
0.322905
0.538395
0.967944
1.30596
1.28162
1.32151
1.36714
1.34946
1.33155
1.27867
1.13989
1.05932
1.03296
1.03663
1.07118
1.09767
1.10023
1.07768
1.05652
1.05618
1.05202
1.03652
1.01416
0.984442
0.928081
0.32723
0.526865
0.948094
1.2958
1.28153
1.31833
1.36702
1.34811
1.33239
1.28543
1.14832
1.06178
1.03092
1.03231
1.06425
1.0944
1.09964
1.07945
1.05607
1.05494
1.05063
1.03525
1.01265
0.983403
0.926019
0.332575
0.513617
0.920889
1.28063
1.28011
1.31752
1.36676
1.34656
1.33297
1.29269
1.16047
1.06518
1.02845
1.02746
1.05632
1.09014
1.09841
1.08119
1.05545
1.05313
1.04858
1.03355
1.01055
0.981704
0.923065
0.338861
0.499449
0.884514
1.25777
1.27956
1.31985
1.3654
1.34612
1.33399
1.29772
1.17372
1.06969
1.02603
1.02179
1.04644
1.08398
1.09597
1.08262
1.05482
1.05072
1.04601
1.03129
1.00818
0.978749
0.917701
0.34601
0.485361
0.838567
1.22459
1.28796
1.31688
1.36214
1.34593
1.33494
1.3026
1.19001
1.07645
1.02425
1.01569
1.03512
1.07635
1.09255
1.08333
1.05452
1.04669
1.04237
1.029
1.00432
0.974499
0.912863
0.354019
0.472262
0.785247
1.18058
1.29988
1.3119
1.35712
1.34629
1.33549
1.3066
1.20892
1.08581
1.02408
1.0097
1.02323
1.06549
1.08772
1.08277
1.05428
1.04332
1.03813
1.02468
1.00018
0.970079
0.898405
0.362796
0.460815
0.729492
1.12813
1.31115
1.30562
1.34899
1.34631
1.33624
1.30901
1.22883
1.09814
1.02535
1.00344
1.01214
1.05258
1.08079
1.08086
1.05528
1.03868
1.03133
1.01722
0.992598
0.95788
0.877792
0.316614
0.55863
0.992537
1.31829
1.27729
1.32557
1.36617
1.34974
1.32865
1.26686
1.12929
1.05692
1.03596
1.04321
1.08017
1.10207
1.10073
1.07524
1.05811
1.05867
1.05437
1.03871
1.01675
0.987387
0.932271
0.317553
0.5555
0.988958
1.31744
1.27898
1.32541
1.36608
1.3494
1.32874
1.2677
1.12984
1.05684
1.03525
1.04177
1.07832
1.10102
1.10037
1.07531
1.05739
1.05777
1.05344
1.03777
1.01573
0.986254
0.930794
0.319658
0.548622
0.980848
1.31344
1.28056
1.32449
1.36718
1.34989
1.33014
1.2714
1.13265
1.05739
1.03392
1.03903
1.07479
1.0994
1.10015
1.07611
1.05691
1.05702
1.05283
1.03727
1.01496
0.98547
0.929287
0.322899
0.538406
0.967965
1.30598
1.28161
1.32151
1.36711
1.34944
1.33152
1.27857
1.13977
1.05933
1.03302
1.03668
1.07123
1.0977
1.10022
1.07765
1.05651
1.05617
1.05201
1.03652
1.01417
0.984456
0.928099
0.327222
0.526876
0.948118
1.29581
1.28154
1.31834
1.367
1.34808
1.33234
1.28511
1.14789
1.06165
1.03094
1.03239
1.06439
1.09446
1.09964
1.07942
1.05606
1.05493
1.05062
1.03525
1.01266
0.983415
0.926034
0.332568
0.513628
0.920916
1.28063
1.28011
1.31751
1.36674
1.34654
1.3329
1.29237
1.1598
1.06498
1.02865
1.0278
1.05673
1.09028
1.09841
1.08112
1.05542
1.05312
1.04857
1.03355
1.01056
0.981716
0.923079
0.338853
0.499458
0.884546
1.25778
1.27954
1.31983
1.36539
1.34609
1.33392
1.29746
1.17307
1.0695
1.02634
1.0223
1.04708
1.08435
1.0961
1.0826
1.05479
1.0507
1.046
1.03128
1.00819
0.978761
0.917714
0.346002
0.485368
0.838598
1.2246
1.28793
1.31687
1.36213
1.3459
1.33487
1.30241
1.18954
1.07636
1.02452
1.01611
1.03561
1.0766
1.09263
1.08331
1.05447
1.04668
1.04236
1.029
1.00433
0.974509
0.912875
0.354011
0.472267
0.785277
1.18059
1.29984
1.31189
1.35712
1.34626
1.33544
1.30648
1.20864
1.08582
1.02423
1.00991
1.02345
1.06563
1.08773
1.08273
1.05423
1.0433
1.03813
1.02468
1.00019
0.97009
0.898416
0.362789
0.460819
0.729517
1.12813
1.31111
1.30562
1.34899
1.34629
1.3362
1.30894
1.22871
1.09824
1.02543
1.00345
1.01212
1.05254
1.08075
1.08082
1.05523
1.03865
1.03132
1.01722
0.992603
0.957891
0.877804
0.316619
0.558634
0.992534
1.31828
1.27729
1.32556
1.36621
1.34973
1.32861
1.26661
1.12902
1.05683
1.03596
1.04326
1.08024
1.10208
1.10072
1.07522
1.05812
1.0587
1.05442
1.03879
1.01686
0.987444
0.932121
0.317555
0.555508
0.98896
1.3175
1.2791
1.32555
1.3662
1.34947
1.32867
1.26714
1.12937
1.05677
1.03531
1.04191
1.07846
1.10104
1.10036
1.07529
1.0574
1.0578
1.05348
1.03784
1.01584
0.986311
0.930659
0.319662
0.548625
0.98084
1.31346
1.2806
1.3246
1.36729
1.34993
1.33012
1.27161
1.13285
1.05738
1.03374
1.03877
1.07452
1.09928
1.1001
1.07613
1.05692
1.05704
1.05287
1.03735
1.01507
0.985521
0.929165
0.322907
0.538407
0.967958
1.30598
1.28162
1.32149
1.36713
1.34943
1.3316
1.27909
1.14037
1.05933
1.03265
1.03617
1.07075
1.09752
1.10018
1.07772
1.05653
1.05618
1.05204
1.03658
1.01426
0.984503
0.927991
0.327232
0.526875
0.948109
1.29583
1.28156
1.31834
1.36702
1.34809
1.33238
1.28531
1.14843
1.06173
1.0308
1.03219
1.06405
1.09427
1.09958
1.07947
1.05608
1.05494
1.05063
1.03528
1.01272
0.983458
0.925957
0.332577
0.513626
0.920905
1.28065
1.28015
1.31755
1.3668
1.34661
1.33299
1.29251
1.1595
1.06483
1.02877
1.02797
1.05696
1.09038
1.09845
1.08113
1.05542
1.05312
1.04858
1.03357
1.01061
0.981753
0.923022
0.338863
0.499456
0.884529
1.2578
1.2796
1.31988
1.36544
1.34618
1.33403
1.2976
1.17309
1.06957
1.02643
1.02238
1.04714
1.08437
1.09612
1.0826
1.05478
1.0507
1.046
1.0313
1.00822
0.978795
0.917677
0.346014
0.485365
0.838575
1.22462
1.28799
1.3169
1.36215
1.34595
1.33494
1.30247
1.19002
1.07669
1.02452
1.01596
1.03536
1.0765
1.09261
1.08331
1.05447
1.04666
1.04234
1.02901
1.00437
0.974543
0.912841
0.354024
0.472263
0.785247
1.18059
1.29991
1.3119
1.35712
1.34627
1.33544
1.30644
1.20921
1.0862
1.02415
1.00961
1.02305
1.06529
1.08761
1.08269
1.05425
1.04329
1.03811
1.02467
1.00022
0.970124
0.898391
0.362801
0.460814
0.729485
1.12814
1.31117
1.30562
1.34899
1.34629
1.33616
1.30886
1.22917
1.09846
1.02533
1.00317
1.01175
1.05218
1.08057
1.08074
1.05526
1.03866
1.03133
1.01723
0.992632
0.957926
0.877785
0.371984
0.450775
0.677319
1.07837
1.31843
1.29398
1.33741
1.34639
1.33619
1.30974
1.24909
1.11535
1.02901
0.997218
1.00013
1.03536
1.07089
1.07748
1.0573
1.0334
1.02392
1.01116
0.984482
0.947808
0.824435
0.380868
0.440465
0.627924
1.04122
1.3196
1.28109
1.3218
1.34568
1.33536
1.31008
1.26685
1.13994
1.03633
0.993166
0.990006
1.01609
1.05829
1.07218
1.06
1.03098
1.01732
1.00131
0.974437
0.940801
0.830699
0.388157
0.428654
0.580088
0.9954
1.31917
1.26691
1.30321
1.34308
1.33402
1.31111
1.28053
1.16938
1.04718
0.993018
0.981395
1.00013
1.04486
1.06532
1.0593
1.03078
1.00978
0.995343
0.965292
0.937607
0.850963
0.392024
0.415238
0.533255
0.926475
1.29509
1.24835
1.28939
1.33851
1.33293
1.31367
1.29011
1.19744
1.06736
0.994423
0.969751
0.978067
1.02056
1.05392
1.05526
1.03327
1.00288
0.986416
0.960361
0.936135
0.879782
0.390248
0.4009
0.488865
0.827041
1.20946
1.2422
1.28448
1.33081
1.33235
1.31719
1.29496
1.22906
1.08881
0.999025
0.963544
0.963368
0.995336
1.03925
1.04887
1.0362
1.00249
0.981925
0.951984
0.932097
0.898111
0.381272
0.38829
0.452427
0.716306
1.0845
1.25714
1.27496
1.31699
1.33323
1.31989
1.29636
1.25041
1.12494
1.01044
0.959987
0.947638
0.965105
1.01784
1.04072
1.03643
1.0067
0.982277
0.952939
0.927676
0.90605
0.370463
0.37588
0.423693
0.623526
0.99907
1.26262
1.25941
1.30023
1.33349
1.3216
1.29743
1.26557
1.1594
1.03261
0.961133
0.937805
0.943693
0.985736
1.02363
1.03075
1.01349
0.98422
0.957094
0.929273
0.908375
0.361508
0.365166
0.399998
0.554131
0.945718
1.26858
1.24641
1.28136
1.32659
1.32059
1.30253
1.27606
1.19805
1.05989
0.967112
0.930724
0.926386
0.948955
1.00083
1.01966
1.01462
0.989949
0.962193
0.933869
0.91086
0.354938
0.35592
0.378486
0.489388
0.860582
1.25154
1.22299
1.26499
1.30864
1.32004
1.30721
1.28333
1.23117
1.09831
0.982039
0.927712
0.912371
0.920981
0.968058
1.00367
1.00797
0.997623
0.970567
0.939346
0.914132
0.35057
0.347014
0.361432
0.432424
0.71178
1.13671
1.21584
1.25279
1.28842
1.3179
1.30997
1.28886
1.25345
1.14531
1.00732
0.932748
0.903012
0.900641
0.922724
0.974871
0.994594
0.993341
0.981123
0.951943
0.921183
0.34697
0.339997
0.350022
0.398134
0.584767
0.932897
1.21998
1.24026
1.26769
1.31307
1.30968
1.29513
1.26816
1.18743
1.04516
0.948618
0.90119
0.888184
0.894918
0.939628
0.976752
0.984128
0.979207
0.964032
0.938133
0.344006
0.334096
0.3412
0.374983
0.507646
0.849465
1.22687
1.21303
1.25252
1.29956
1.30684
1.29975
1.27991
1.22728
1.09293
0.975531
0.906531
0.879869
0.876843
0.89395
0.946199
0.971134
0.972587
0.96558
0.94789
0.341693
0.329184
0.333886
0.356016
0.442877
0.743244
1.17781
1.1852
1.24531
1.27638
1.30046
1.29873
1.28776
1.25859
1.14274
1.00481
0.919699
0.877848
0.868481
0.871319
0.900292
0.943489
0.958771
0.958806
0.950844
0.33987
0.325459
0.328562
0.342708
0.394328
0.59516
0.94311
1.17363
1.23399
1.25046
1.28836
1.29597
1.29318
1.27882
1.21146
1.05189
0.94118
0.88325
0.858664
0.857396
0.866835
0.905938
0.937208
0.945658
0.944814
0.33844
0.322539
0.324659
0.334048
0.366633
0.49038
0.798078
1.18313
1.19355
1.22699
1.26747
1.29102
1.29312
1.28862
1.25826
1.12001
0.974597
0.896639
0.860576
0.847
0.847786
0.861974
0.905415
0.929987
0.934998
0.337367
0.320308
0.321753
0.327828
0.347814
0.419298
0.670069
1.10377
1.13505
1.21373
1.2483
1.28012
1.29115
1.29028
1.27966
1.20775
1.03977
0.923134
0.868721
0.843664
0.838285
0.840206
0.855771
0.898122
0.91954
0.336595
0.31874
0.319804
0.323796
0.335991
0.376375
0.531849
0.849436
1.13011
1.1852
1.22498
1.26457
1.28504
1.28849
1.28665
1.25711
1.12456
0.97621
0.889516
0.849388
0.829532
0.828665
0.831459
0.845912
0.884884
0.336159
0.317763
0.318583
0.321112
0.328423
0.351633
0.437835
0.699
1.12057
1.1314
1.18562
1.23812
1.27093
1.28365
1.2857
1.2766
1.2128
1.0547
0.929525
0.864288
0.833429
0.815895
0.815113
0.818124
0.83073
0.336144
0.317312
0.317862
0.319305
0.323643
0.337041
0.382182
0.554473
0.89675
1.10486
1.15331
1.19865
1.24991
1.27318
1.282
1.2798
1.25417
1.14581
0.997646
0.899176
0.845265
0.818546
0.800699
0.797482
0.800015
0.336538
0.317118
0.317347
0.318286
0.321035
0.328691
0.352558
0.441843
0.703004
1.08932
1.11134
1.15682
1.20881
1.25441
1.27395
1.27721
1.26846
1.21863
1.0745
0.948841
0.871313
0.827239
0.802311
0.783479
0.777178
0.336868
0.317043
0.3172
0.317726
0.31924
0.323512
0.336309
0.379493
0.545127
0.871864
1.08412
1.12406
1.16136
1.21728
1.25632
1.2703
1.2676
1.2476
1.17157
1.01505
0.911939
0.845686
0.808138
0.784419
0.76446
0.336967
0.317129
0.317017
0.317262
0.318096
0.320466
0.327235
0.348562
0.42749
0.671259
1.04426
1.0827
1.12388
1.16616
1.22437
1.2551
1.26208
1.25385
1.21962
1.0993
0.965266
0.882319
0.823777
0.789273
0.765509
0.336995
0.31722
0.316842
0.316974
0.317429
0.318707
0.322307
0.33301
0.369047
0.511056
0.809519
1.0548
1.09258
1.12156
1.16889
1.22775
1.25017
1.24946
1.23587
1.17887
1.03506
0.919203
0.854224
0.803931
0.770687
0.336998
0.317276
0.316741
0.316809
0.317045
0.317708
0.319574
0.324906
0.341548
0.401169
0.608326
0.96485
1.05382
1.09232
1.12019
1.17045
1.22611
1.23921
1.23377
1.2099
1.1237
0.981554
0.882975
0.829954
0.784512
0.336997
0.317312
0.316681
0.316712
0.316823
0.31715
0.318085
0.320749
0.328558
0.354195
0.454364
0.71615
1.01814
1.05923
1.08402
1.11876
1.17621
1.21745
1.22467
1.21453
1.17527
1.05348
0.930716
0.852436
0.810844
0.336998
0.317327
0.316639
0.316649
0.316703
0.316869
0.31733
0.318614
0.322308
0.33361
0.372589
0.52594
0.815568
1.01847
1.05935
1.07649
1.11296
1.18227
1.20679
1.20714
1.19214
1.13348
0.99636
0.886808
0.824365
0.337
0.31732
0.316618
0.316627
0.316653
0.316725
0.316929
0.317518
0.319225
0.324188
0.339965
0.397296
0.594506
0.912699
1.02028
1.04976
1.07013
1.10951
1.17875
1.1941
1.18927
1.16412
1.07187
0.940951
0.850987
0.336999
0.317312
0.316619
0.316611
0.316622
0.31665
0.316735
0.316992
0.317744
0.319937
0.326429
0.347893
0.431546
0.660697
0.956116
1.0198
1.0371
1.06058
1.11749
1.17245
1.17977
1.17061
1.12703
1.00562
0.891323
0.336998
0.31731
0.316622
0.316602
0.316607
0.316616
0.316648
0.316752
0.31707
0.317997
0.320719
0.328991
0.357428
0.473264
0.715013
0.970185
1.01248
1.02565
1.05481
1.12843
1.16627
1.16565
1.14887
1.07581
0.943066
0.336998
0.317311
0.316622
0.316598
0.316602
0.316603
0.316611
0.316647
0.316772
0.317149
0.318254
0.32151
0.331711
0.367356
0.508424
0.753028
0.97293
1.00089
1.0172
1.05592
1.13702
1.15733
1.15048
1.11335
1.00058
0.336998
0.317311
0.316622
0.316598
0.3166
0.316597
0.316595
0.316606
0.316651
0.316798
0.317232
0.318503
0.322249
0.334194
0.376969
0.530877
0.796274
0.969436
0.990414
1.00884
1.07076
1.13673
1.14619
1.12888
1.04937
0.336998
0.317311
0.316622
0.316598
0.316599
0.316596
0.316588
0.316592
0.316609
0.316665
0.316834
0.317323
0.318735
0.322871
0.336122
0.385238
0.540949
0.837296
0.955716
0.974756
1.00777
1.08816
1.13209
1.12646
1.07757
0.336998
0.317311
0.316622
0.316598
0.316599
0.316596
0.316587
0.316587
0.316599
0.316622
0.316693
0.316898
0.317444
0.318947
0.323296
0.337237
0.389967
0.54819
0.849063
0.921808
0.959441
1.03517
1.09835
1.10967
1.0771
0.336998
0.317311
0.316622
0.316598
0.316599
0.316596
0.316587
0.316587
0.316598
0.316612
0.316655
0.316788
0.317035
0.317636
0.31921
0.323549
0.337234
0.388607
0.552394
0.793013
0.892718
0.985646
1.06115
1.0739
1.05698
0.336998
0.317311
0.316622
0.316598
0.316599
0.316596
0.316587
0.316587
0.316598
0.316612
0.316652
0.316786
0.316937
0.317316
0.318019
0.319599
0.32378
0.336462
0.381189
0.524503
0.708737
0.928569
1.02434
1.03502
1.01059
0.336998
0.317311
0.316622
0.316598
0.316599
0.316596
0.316587
0.316587
0.316598
0.316612
0.316651
0.316785
0.316932
0.317283
0.317867
0.318596
0.320574
0.324921
0.336003
0.371628
0.479744
0.684259
0.961694
0.978509
0.954708
0.336998
0.317311
0.316622
0.316598
0.316599
0.316596
0.316587
0.316587
0.316598
0.316612
0.316651
0.316785
0.316932
0.31728
0.317868
0.318525
0.32018
0.322733
0.327165
0.338683
0.369058
0.448623
0.641414
0.83454
0.860212
0.336998
0.317311
0.316622
0.316598
0.316599
0.316596
0.316587
0.316587
0.316598
0.316612
0.316651
0.316785
0.316932
0.31728
0.317868
0.318522
0.320166
0.322703
0.326131
0.334742
0.350637
0.379161
0.457113
0.550129
0.609472
0.336998
0.317311
0.316622
0.316598
0.316599
0.316596
0.316587
0.316587
0.316598
0.316612
0.316651
0.316785
0.316932
0.31728
0.317868
0.318521
0.320164
0.322705
0.326079
0.334615
0.349275
0.371868
0.433023
0.491397
0.522703
0.336998
0.317311
0.316622
0.316598
0.316599
0.316596
0.316587
0.316587
0.316598
0.316612
0.316651
0.316785
0.316932
0.31728
0.317868
0.318521
0.320164
0.322705
0.326077
0.334615
0.349191
0.371475
0.431964
0.486533
0.512911
0.371971
0.450784
0.67736
1.07836
1.31837
1.294
1.33743
1.34639
1.3362
1.3098
1.24903
1.11534
1.02901
0.997112
0.999971
1.03517
1.07078
1.0774
1.05726
1.03339
1.02391
1.01113
0.984428
0.947763
0.824455
0.380857
0.440475
0.627964
1.04121
1.31953
1.2811
1.32182
1.34569
1.33538
1.31013
1.26688
1.14
1.03628
0.993015