/*--------------------------------*- C++ -*----------------------------------*\
| =========                 |                                                 |
| \\      /  F ield         | OpenFOAM: The Open Source CFD Toolbox           |
|  \\    /   O peration     | Version:  4.1                                   |
|   \\  /    A nd           | Web:      www.OpenFOAM.org                      |
|    \\/     M anipulation  |                                                 |
\*---------------------------------------------------------------------------*/
FoamFile
{
    version     2.0;
    format      ascii;
    class       volVectorField;
    location    "0.7";
    object      U;
}
// * * * * * * * * * * * * * * * * * * * * * * * * * * * * * * * * * * * * * //

dimensions      [0 1 -1 0 0 0 0];

internalField   nonuniform List<vector> 
52500
(
(1.84296 -0.000137463 -0.00207686)
(1.53171 0.00102061 -0.00366309)
(0.589373 0.00612245 -0.00680967)
(0.0344752 0.0184691 -0.0092992)
(0.0821839 0.0156667 -0.00890995)
(0.371276 0.0151309 -0.00926162)
(0.216478 0.0168478 -0.00956194)
(0.16331 0.0179724 -0.00944189)
(0.232369 0.0187094 -0.0092723)
(0.265171 0.0180509 -0.00883042)
(0.257018 0.0177 -0.00787055)
(0.262175 0.0167214 -0.00736481)
(0.275185 0.015998 -0.00721641)
(0.284675 0.0158013 -0.00726493)
(0.291527 0.0162735 -0.00751859)
(0.293041 0.0169846 -0.0076691)
(0.284732 0.0177458 -0.00766527)
(0.26542 0.0183668 -0.00750279)
(0.237613 0.0190801 -0.00740794)
(0.191884 0.0201856 -0.0074415)
(0.137275 0.0217298 -0.0074407)
(0.0846557 0.023467 -0.00735195)
(0.0574122 0.025344 -0.00720956)
(0.0225091 0.027108 -0.00701203)
(0.0214297 0.0277491 -0.00663174)
(1.84173 -0.000438007 -0.00208239)
(1.53563 0.00319714 -0.0036415)
(0.601685 0.0191258 -0.00677153)
(0.0386955 0.0571896 -0.00925893)
(0.0724566 0.0420106 -0.00890304)
(0.372375 0.0379087 -0.00923922)
(0.217519 0.0423259 -0.00953508)
(0.161639 0.0442345 -0.00941342)
(0.229795 0.0426537 -0.00924753)
(0.263725 0.0390723 -0.00880948)
(0.256721 0.0378372 -0.00785113)
(0.262673 0.0356587 -0.00734569)
(0.276419 0.0345529 -0.00719457)
(0.286355 0.0346578 -0.00723805)
(0.293531 0.0356728 -0.00748763)
(0.295032 0.0366971 -0.00764177)
(0.286576 0.0377519 -0.00764192)
(0.267153 0.038601 -0.00748183)
(0.23966 0.0398571 -0.00738095)
(0.194478 0.0422426 -0.0074116)
(0.140032 0.0457754 -0.00740857)
(0.0873532 0.0496285 -0.00731812)
(0.0593864 0.0536574 -0.00717399)
(0.0233399 0.0564985 -0.00697531)
(0.0216039 0.0572503 -0.00659417)
(1.83895 -0.000755039 -0.0020949)
(1.54397 0.00537118 -0.00359497)
(0.630483 0.032308 -0.00669598)
(0.0504941 0.09908 -0.00919636)
(0.0576258 0.0707953 -0.00889058)
(0.375526 0.0619964 -0.00921004)
(0.223013 0.0718131 -0.00951527)
(0.163214 0.0758815 -0.0093872)
(0.230403 0.0722756 -0.00922917)
(0.265882 0.0665337 -0.00881082)
(0.259795 0.0650332 -0.00784929)
(0.265325 0.062055 -0.00732967)
(0.279369 0.0606032 -0.00716574)
(0.289261 0.0610743 -0.00719851)
(0.296463 0.0630241 -0.00744172)
(0.298141 0.065082 -0.00760893)
(0.289975 0.0669827 -0.00761844)
(0.27069 0.0686843 -0.00746492)
(0.24376 0.0710118 -0.00735421)
(0.199556 0.0751017 -0.00738108)
(0.14549 0.0811152 -0.00737692)
(0.0926712 0.0876587 -0.00728545)
(0.0635123 0.0945694 -0.00713832)
(0.0258884 0.0995789 -0.00693946)
(0.0223677 0.100574 -0.00655556)
(1.83467 -0.0010277 -0.00211417)
(1.55607 0.00722811 -0.00352597)
(0.676386 0.0439095 -0.00658242)
(0.0687216 0.139299 -0.00911241)
(0.0361265 0.10081 -0.00887479)
(0.379848 0.0850656 -0.00916463)
(0.232826 0.100362 -0.00948755)
(0.165772 0.107017 -0.00935381)
(0.231026 0.101531 -0.00921067)
(0.269125 0.0937955 -0.00883842)
(0.264539 0.0912432 -0.00787775)
(0.269068 0.0869981 -0.00732334)
(0.283162 0.084619 -0.00714041)
(0.293404 0.0849531 -0.00716257)
(0.301076 0.0877868 -0.00739611)
(0.302904 0.0909904 -0.00757508)
(0.294937 0.0937983 -0.00759636)
(0.275899 0.0966385 -0.00745188)
(0.249824 0.100198 -0.00732642)
(0.207244 0.106162 -0.00734783)
(0.154154 0.115061 -0.00734125)
(0.101588 0.125184 -0.00724825)
(0.0710803 0.135921 -0.0070999)
(0.0308315 0.144199 -0.00689937)
(0.023686 0.146179 -0.00651715)
(1.82895 -0.00124101 -0.00214001)
(1.5713 0.00875494 -0.00344708)
(0.740039 0.0536267 -0.00641887)
(0.0918891 0.177514 -0.00901369)
(0.0106034 0.131925 -0.00885252)
(0.38389 0.108136 -0.00911585)
(0.246148 0.127372 -0.00946032)
(0.16941 0.137148 -0.00931354)
(0.231924 0.130517 -0.00918611)
(0.273024 0.121785 -0.00885798)
(0.270003 0.117846 -0.00791433)
(0.273385 0.112313 -0.0073204)
(0.287504 0.109 -0.00710784)
(0.29816 0.109156 -0.00711455)
(0.306354 0.112649 -0.00732979)
(0.308456 0.116858 -0.00753124)
(0.301062 0.120596 -0.00756931)
(0.282634 0.124828 -0.00743874)
(0.257651 0.129749 -0.00729661)
(0.217365 0.137611 -0.00731001)
(0.166076 0.149446 -0.00729921)
(0.114157 0.163575 -0.00720485)
(0.0820468 0.178342 -0.0070537)
(0.0386392 0.190623 -0.00685611)
(0.0260154 0.194461 -0.0064703)
(1.82186 -0.00141495 -0.00217187)
(1.5889 0.00976479 -0.00335603)
(0.822341 0.0606255 -0.00620416)
(0.121747 0.211774 -0.00888585)
(-0.0162641 0.165054 -0.00881953)
(0.386016 0.133484 -0.00907897)
(0.26229 0.153506 -0.00943234)
(0.174565 0.166886 -0.00927147)
(0.232565 0.159756 -0.00915979)
(0.277549 0.150497 -0.00888152)
(0.276277 0.144832 -0.00796948)
(0.278373 0.138051 -0.00732084)
(0.292307 0.133673 -0.0070709)
(0.303533 0.133443 -0.00706125)
(0.312447 0.13731 -0.00725522)
(0.314984 0.142602 -0.00748019)
(0.308467 0.147434 -0.00753733)
(0.291028 0.153286 -0.00742469)
(0.267315 0.159808 -0.00726442)
(0.229954 0.169781 -0.00726653)
(0.181405 0.184815 -0.00725051)
(0.130738 0.203379 -0.00715588)
(0.0969799 0.222873 -0.00700044)
(0.050075 0.240463 -0.0068047)
(0.0297196 0.24729 -0.00641385)
(1.81352 -0.00152244 -0.00220925)
(1.6076 0.0101594 -0.00325784)
(0.921768 0.0642331 -0.00592754)
(0.15859 0.238343 -0.00871239)
(-0.0403508 0.201808 -0.00877555)
(0.384816 0.162386 -0.00905045)
(0.279647 0.178615 -0.00939668)
(0.181838 0.196394 -0.00923665)
(0.232839 0.189508 -0.00913691)
(0.282195 0.179831 -0.00888888)
(0.283072 0.171977 -0.00803756)
(0.284026 0.164116 -0.00733039)
(0.297607 0.158647 -0.00703327)
(0.309447 0.157839 -0.00700106)
(0.319084 0.161682 -0.00716568)
(0.322331 0.167948 -0.00741529)
(0.317092 0.174081 -0.00749622)
(0.301183 0.181757 -0.00740778)
(0.279033 0.190075 -0.00723117)
(0.245254 0.202482 -0.00721714)
(0.200465 0.221099 -0.00719623)
(0.151915 0.244639 -0.00710018)
(0.117023 0.269977 -0.00694154)
(0.0666077 0.294795 -0.00674002)
(0.0357379 0.306864 -0.00633625)
(1.80411 -0.00153059 -0.00225168)
(1.62619 0.0101311 -0.00315914)
(1.03361 0.0646942 -0.00558792)
(0.203703 0.253796 -0.00846777)
(-0.0542952 0.244793 -0.00878396)
(0.380019 0.192797 -0.0090075)
(0.296489 0.202658 -0.00934775)
(0.192121 0.225075 -0.00920401)
(0.232934 0.219433 -0.00911425)
(0.28655 0.209331 -0.00889394)
(0.290348 0.199029 -0.00812584)
(0.290688 0.190448 -0.00735471)
(0.303574 0.183892 -0.00699997)
(0.315867 0.182147 -0.00693847)
(0.326174 0.185552 -0.00706772)
(0.330589 0.192875 -0.00734026)
(0.327108 0.200422 -0.00744756)
(0.313191 0.210043 -0.00738495)
(0.292972 0.220109 -0.0071991)
(0.263479 0.235167 -0.00715552)
(0.223642 0.257703 -0.00713277)
(0.178425 0.28702 -0.00704098)
(0.143693 0.31967 -0.00686829)
(0.090606 0.354844 -0.00666066)
(0.0458195 0.378467 -0.00625398)
(1.79371 -0.0013839 -0.00229921)
(1.6436 0.00996382 -0.00306627)
(1.14956 0.0626396 -0.00520202)
(0.260453 0.255077 -0.00814243)
(-0.0528921 0.293576 -0.00882102)
(0.363816 0.223231 -0.00894378)
(0.312227 0.228114 -0.00928313)
(0.205892 0.251552 -0.0091804)
(0.233532 0.248834 -0.00909027)
(0.290292 0.238645 -0.00889323)
(0.297889 0.226243 -0.00822857)
(0.298422 0.217149 -0.0073946)
(0.310171 0.209418 -0.0069774)
(0.322693 0.206388 -0.00687748)
(0.33385 0.208991 -0.00696695)
(0.339845 0.217233 -0.00724532)
(0.338351 0.226232 -0.0073901)
(0.326859 0.237602 -0.00735392)
(0.309081 0.249785 -0.00716648)
(0.284833 0.267518 -0.00709722)
(0.251381 0.294006 -0.00706311)
(0.211318 0.329711 -0.00696497)
(0.179344 0.371706 -0.00678774)
(0.12789 0.420485 -0.00657099)
(0.0650757 0.467998 -0.00609156)
(1.78255 -0.000951473 -0.00235135)
(1.65921 0.0101453 -0.00298416)
(1.25917 0.059552 -0.0048043)
(0.332424 0.241213 -0.00774245)
(-0.0333835 0.345239 -0.00885106)
(0.333333 0.254479 -0.00887497)
(0.325846 0.254594 -0.00920068)
(0.221487 0.275902 -0.00915473)
(0.235761 0.278361 -0.00906719)
(0.293341 0.266783 -0.00888275)
(0.305762 0.253682 -0.00833661)
(0.307386 0.244192 -0.00745342)
(0.317448 0.235271 -0.00696415)
(0.32984 0.230725 -0.00681496)
(0.341992 0.232223 -0.00687132)
(0.349913 0.240697 -0.00713686)
(0.350586 0.25111 -0.00731918)
(0.342263 0.263676 -0.00731465)
(0.32774 0.27857 -0.00714149)
(0.309203 0.298873 -0.0070298)
(0.283599 0.32901 -0.00697523)
(0.25167 0.371036 -0.00686617)
(0.226069 0.424975 -0.00667866)
(0.186128 0.496314 -0.00641916)
(0.102333 0.607071 -0.00585876)
(1.84298 -0.000138315 9.02384e-09)
(1.53168 0.00102209 -5.92332e-08)
(0.589257 0.00613571 -1.98595e-07)
(0.0343836 0.0185511 -3.89879e-08)
(0.0821205 0.0157253 2.34806e-07)
(0.371233 0.0151435 -1.19751e-07)
(0.216412 0.0169306 7.29277e-08)
(0.16321 0.0181147 1.45918e-07)
(0.232192 0.018763 1.20816e-07)
(0.265047 0.017979 3.18902e-08)
(0.256958 0.0176239 1.2005e-07)
(0.26219 0.016671 1.22985e-07)
(0.275255 0.0159935 7.85658e-08)
(0.284771 0.0158314 2.69668e-08)
(0.291619 0.0163096 -6.99795e-08)
(0.293101 0.0170009 -1.14491e-07)
(0.284754 0.0177458 -7.47408e-08)
(0.265401 0.0183598 -5.79864e-08)
(0.237555 0.0190746 -7.81294e-09)
(0.19179 0.0201831 -8.28062e-09)
(0.13717 0.0217294 4.15967e-09)
(0.0845499 0.0234674 7.94037e-08)
(0.0573331 0.0253462 2.06015e-07)
(0.0224647 0.0271102 3.00128e-07)
(0.021414 0.0277561 3.32528e-07)
(1.84174 -0.000438631 6.49041e-09)
(1.53561 0.00319783 -5.30592e-08)
(0.601624 0.019133 -1.65505e-07)
(0.0387338 0.0572234 2.00308e-08)
(0.0727252 0.0420042 1.52241e-08)
(0.372391 0.0378541 1.07015e-08)
(0.217729 0.0423361 1.56425e-07)
(0.161976 0.0442573 1.17624e-07)
(0.23018 0.0425671 1.46337e-07)
(0.264131 0.0389496 1.097e-07)
(0.257186 0.037738 1.16e-07)
(0.263066 0.0356144 1.16474e-07)
(0.276715 0.0345528 9.44283e-08)
(0.286545 0.0346746 4.95716e-08)
(0.29365 0.0356865 -4.24959e-08)
(0.2951 0.0367022 -9.34451e-08)
(0.286607 0.0377516 -6.82673e-08)
(0.267142 0.038598 -6.26574e-08)
(0.239609 0.0398549 -1.78477e-08)
(0.194388 0.0422415 -1.30946e-08)
(0.139928 0.0457767 4.59955e-09)
(0.0872474 0.0496307 8.33357e-08)
(0.0593057 0.0536628 2.0923e-07)
(0.0232908 0.0565007 3.0366e-07)
(0.021589 0.0572622 3.34057e-07)
(1.83896 -0.000754093 6.27454e-09)
(1.54394 0.0053691 -5.51488e-08)
(0.630387 0.0322926 -1.76545e-07)
(0.0504726 0.0990052 -5.80621e-09)
(0.057736 0.0707586 3.20894e-08)
(0.375534 0.0619992 2.42987e-08)
(0.223164 0.0717882 1.86582e-07)
(0.163371 0.0758294 1.10596e-07)
(0.230542 0.0722224 1.27548e-07)
(0.266049 0.0665495 1.56882e-07)
(0.259964 0.0650474 1.08267e-07)
(0.265443 0.0621199 1.36974e-07)
(0.279458 0.0607049 1.35293e-07)
(0.289346 0.0611735 9.13143e-08)
(0.296529 0.0630819 1.27477e-08)
(0.298174 0.0651069 -5.95231e-08)
(0.289975 0.0669892 -5.69658e-08)
(0.270661 0.0686838 -7.39221e-08)
(0.243701 0.0710095 -3.39826e-08)
(0.199465 0.0750989 -2.18198e-08)
(0.145388 0.0811154 2.8926e-09)
(0.0925693 0.0876603 8.7726e-08)
(0.0634342 0.0945777 2.13337e-07)
(0.0258417 0.0995819 3.06609e-07)
(0.0223553 0.100593 3.34445e-07)
(1.83469 -0.0010268 9.50058e-09)
(1.55604 0.00722589 -5.68733e-08)
(0.676257 0.0438941 -1.80709e-07)
(0.068661 0.139226 -3.88782e-08)
(0.0361548 0.100766 2.25581e-07)
(0.379842 0.0850985 5.14167e-09)
(0.232872 0.100333 1.89585e-07)
(0.16582 0.106951 1.02183e-07)
(0.231005 0.101497 8.23569e-08)
(0.269088 0.0938301 1.4744e-07)
(0.264474 0.0912999 1.476e-07)
(0.268993 0.0871176 1.52228e-07)
(0.283084 0.084788 1.3759e-07)
(0.293322 0.0851269 9.57465e-08)
(0.300991 0.0879067 3.21421e-08)
(0.302829 0.0910494 -2.79088e-08)
(0.294872 0.0938151 -3.42646e-08)
(0.275836 0.0966337 -8.29908e-08)
(0.249752 0.100188 -5.31766e-08)
(0.207151 0.106154 -3.65939e-08)
(0.154055 0.115059 -3.96811e-10)
(0.101494 0.125187 9.46001e-08)
(0.0710086 0.135933 2.19097e-07)
(0.0307898 0.144207 3.11412e-07)
(0.0236764 0.146203 3.34115e-07)
(1.82897 -0.00124087 1.12037e-08)
(1.57127 0.00875427 -5.28162e-08)
(0.739892 0.0536218 -1.8383e-07)
(0.091837 0.177479 -5.49362e-08)
(0.0106453 0.131905 2.57021e-07)
(0.383868 0.108151 3.5536e-08)
(0.246123 0.127364 1.85514e-07)
(0.169403 0.137114 1.09755e-07)
(0.231857 0.130511 4.43836e-08)
(0.272897 0.121798 1.69241e-07)
(0.269782 0.117884 1.91953e-07)
(0.273155 0.112405 1.58737e-07)
(0.287271 0.10912 1.28561e-07)
(0.29792 0.109266 1.22989e-07)
(0.306119 0.112718 1.06746e-07)
(0.308264 0.116885 4.39703e-08)
(0.300925 0.120598 -2.83832e-08)
(0.28254 0.124808 -6.45794e-08)
(0.257571 0.129726 -6.59294e-08)
(0.217275 0.137595 -4.71969e-08)
(0.165985 0.149439 -2.60572e-09)
(0.114074 0.163577 9.80048e-08)
(0.081983 0.178354 2.20133e-07)
(0.0386029 0.190633 3.04938e-07)
(0.0260063 0.194483 3.2077e-07)
(1.82188 -0.00141494 1.20261e-08)
(1.58887 0.00976586 -5.14224e-08)
(0.822187 0.0606303 -1.87272e-07)
(0.121714 0.211767 -1.00791e-07)
(-0.0161915 0.165043 2.34711e-07)
(0.385984 0.133472 1.00558e-07)
(0.262241 0.153513 1.93408e-07)
(0.174541 0.16689 1.67711e-07)
(0.232486 0.159781 1.01186e-07)
(0.277356 0.15052 1.51565e-07)
(0.27604 0.144875 1.34975e-07)
(0.278131 0.138133 1.0713e-07)
(0.292064 0.133746 1.02567e-07)
(0.30329 0.133473 1.2783e-07)
(0.312212 0.137299 1.32074e-07)
(0.314786 0.142562 8.31138e-08)
(0.308313 0.147397 3.29755e-09)
(0.290916 0.153241 -4.01025e-08)
(0.267232 0.159768 -5.87063e-08)
(0.229871 0.169752 -5.16432e-08)
(0.181325 0.184801 -5.27729e-09)
(0.130667 0.203377 9.68472e-08)
(0.0969245 0.222881 2.22239e-07)
(0.0500431 0.240471 2.99625e-07)
(0.0297104 0.24731 3.00274e-07)
(1.81354 -0.00152266 1.36518e-08)
(1.60758 0.0101607 -4.68786e-08)
(0.921613 0.0642418 -1.83076e-07)
(0.158571 0.238351 -1.5472e-07)
(-0.0402822 0.201784 2.99259e-07)
(0.384777 0.16237 9.09839e-08)
(0.279598 0.178638 1.55515e-07)
(0.181809 0.196435 2.00212e-07)
(0.232775 0.189562 1.59562e-07)
(0.28202 0.17988 1.29419e-07)
(0.28283 0.172065 1.46924e-07)
(0.283788 0.164221 8.37303e-08)
(0.297393 0.158711 9.43003e-08)
(0.309257 0.157848 1.06809e-07)
(0.318922 0.161654 1.39559e-07)
(0.322198 0.167895 9.86614e-08)
(0.316983 0.174023 2.71397e-08)
(0.301087 0.181693 -2.53502e-08)
(0.278961 0.190022 -5.52029e-08)
(0.245184 0.202441 -5.53894e-08)
(0.200398 0.221073 -6.89326e-09)
(0.151856 0.244625 9.70309e-08)
(0.116977 0.269976 2.12174e-07)
(0.0665828 0.294799 2.8156e-07)
(0.0357304 0.306882 2.76514e-07)
(1.80413 -0.00153126 1.51904e-08)
(1.62617 0.0101319 -3.95835e-08)
(1.03346 0.0647043 -1.69147e-07)
(0.203685 0.253818 -2.07236e-07)
(-0.0542437 0.244754 3.94636e-07)
(0.379987 0.192796 3.77169e-08)
(0.296447 0.202699 9.53659e-08)
(0.192095 0.225151 2.14095e-07)
(0.232899 0.219526 1.87114e-07)
(0.286439 0.209405 1.13923e-07)
(0.29015 0.199114 9.12498e-08)
(0.290512 0.190525 8.9445e-08)
(0.303419 0.183925 1.01154e-07)
(0.315731 0.182142 1.20318e-07)
(0.326055 0.185529 1.54523e-07)
(0.330485 0.192839 9.30206e-08)
(0.327014 0.200368 4.49624e-08)
(0.313106 0.209979 -3.56652e-08)
(0.292912 0.220049 -3.35142e-08)
(0.263419 0.235116 -4.90847e-08)
(0.223588 0.257664 -6.39555e-09)
(0.178379 0.286994 9.28681e-08)
(0.143659 0.319657 1.97452e-07)
(0.09059 0.354839 2.56561e-07)
(0.0458155 0.378481 2.5146e-07)
(1.79373 -0.00138501 1.60293e-08)
(1.64358 0.00996416 -3.09211e-08)
(1.14943 0.0626508 -1.4495e-07)
(0.260435 0.255117 -2.4031e-07)
(-0.0528561 0.293535 4.24027e-07)
(0.363806 0.223245 2.81494e-08)
(0.312196 0.228168 5.46258e-08)
(0.205879 0.251655 2.2614e-07)
(0.233529 0.248962 2.07037e-07)
(0.290247 0.238752 1.34945e-07)
(0.297773 0.226335 2.97289e-08)
(0.298344 0.217199 8.05554e-08)
(0.310087 0.209415 1.01043e-07)
(0.322598 0.206354 1.17893e-07)
(0.333746 0.208944 1.51992e-07)
(0.339747 0.217187 1.0402e-07)
(0.338265 0.226172 4.98561e-08)
(0.326784 0.23754 -7.77298e-09)
(0.30903 0.249718 -2.79734e-08)
(0.284785 0.267458 -3.27101e-08)
(0.251339 0.293958 -1.07687e-09)
(0.211285 0.329676 8.73564e-08)
(0.179321 0.371683 1.78236e-07)
(0.127884 0.42047 2.29702e-07)
(0.0650766 0.468007 2.2322e-07)
(1.78257 -0.000952997 1.49426e-08)
(1.6592 0.0101448 -2.215e-08)
(1.25907 0.0595617 -1.04485e-07)
(0.332409 0.241263 -2.19851e-07)
(-0.033357 0.345204 4.15282e-07)
(0.333351 0.254508 -9.91364e-09)
(0.325828 0.254657 4.64143e-08)
(0.22149 0.276016 2.12148e-07)
(0.235787 0.278504 1.85316e-07)
(0.293356 0.266917 9.73095e-08)
(0.305728 0.253795 -2.25801e-08)
(0.307386 0.244243 7.98789e-08)
(0.317423 0.235257 9.07758e-08)
(0.329783 0.230673 1.07528e-07)
(0.341907 0.232153 1.28281e-07)
(0.349831 0.240632 1.00064e-07)
(0.350515 0.251038 6.15296e-08)
(0.342206 0.263606 1.25736e-08)
(0.3277 0.278498 -6.97266e-09)
(0.309168 0.298807 -1.23274e-08)
(0.28357 0.328955 1.04488e-08)
(0.251649 0.370992 7.99499e-08)
(0.226057 0.424943 1.57705e-07)
(0.186129 0.49629 1.99426e-07)
(0.10234 0.607076 2.12182e-07)
(1.84297 -0.000137719 -5.6806e-09)
(1.53169 0.00102099 2.38877e-08)
(0.589319 0.00612588 1.33173e-07)
(0.0344534 0.0184894 2.12282e-07)
(0.082197 0.015682 -2.72085e-07)
(0.371253 0.0151356 2.54145e-07)
(0.216444 0.0168781 6.64207e-09)
(0.163264 0.0180313 -8.26271e-09)
(0.232262 0.0187482 2.01249e-08)
(0.265026 0.018044 1.93071e-08)
(0.256842 0.0176832 1.04289e-08)
(0.262036 0.0166876 6.23952e-08)
(0.275077 0.0159583 9.57957e-08)
(0.284596 0.015765 8.53108e-08)
(0.291466 0.0162472 -1.4105e-08)
(0.29299 0.0169638 -9.46174e-08)
(0.28468 0.0177294 -1.45435e-07)
(0.265369 0.0183524 -2.35091e-07)
(0.237546 0.0190695 -2.82794e-07)
(0.191801 0.0201797 -2.95684e-07)
(0.137196 0.0217274 -2.06925e-07)
(0.0845834 0.0234664 5.64511e-09)
(0.0573765 0.0253454 1.97367e-07)
(0.0224955 0.0271095 2.70818e-07)
(0.0214247 0.0277561 3.03592e-07)
(1.84173 -0.000438282 7.31816e-10)
(1.53562 0.00319749 1.09983e-08)
(0.601643 0.0191291 4.28305e-08)
(0.0387039 0.0572028 2.97435e-08)
(0.0725506 0.0420151 3.87832e-07)
(0.372371 0.0379027 -9.1804e-08)
(0.217567 0.042355 -1.77786e-07)
(0.161718 0.044295 -1.35113e-09)
(0.229861 0.0426814 -6.87214e-08)
(0.263761 0.0390524 -1.45274e-07)
(0.256738 0.0378185 1.05253e-07)
(0.262684 0.0356305 9.03131e-08)
(0.276422 0.0345277 8.8183e-08)
(0.286355 0.0346394 7.36367e-08)
(0.293527 0.0356601 -1.0574e-08)
(0.295018 0.0366803 -7.42523e-08)
(0.286547 0.0377349 -1.41623e-07)
(0.267112 0.0385806 -2.23911e-07)
(0.2396 0.0398398 -2.72363e-07)
(0.194399 0.0422318 -2.87567e-07)
(0.139954 0.0457708 -2.03485e-07)
(0.0872809 0.0496272 4.39417e-09)
(0.0593489 0.0536604 1.93716e-07)
(0.0233221 0.0564986 2.70953e-07)
(0.0216002 0.057261 2.99238e-07)
(1.83896 -0.000754869 -1.42884e-09)
(1.54395 0.00537093 2.86802e-08)
(0.630435 0.0323059 1.24595e-07)
(0.0504942 0.0990644 1.31822e-07)
(0.0576967 0.070789 2.46196e-07)
(0.375526 0.0620047 -1.45162e-08)
(0.223076 0.0718354 -1.32191e-07)
(0.163285 0.0759305 -5.14962e-08)
(0.230463 0.0723155 -6.97383e-08)
(0.265954 0.0665469 -4.98016e-08)
(0.259862 0.0650307 9.7201e-08)
(0.265372 0.0620398 4.43084e-08)
(0.279395 0.0605847 3.03675e-08)
(0.289269 0.0610517 3.12928e-08)
(0.296462 0.0629986 -5.08733e-08)
(0.298131 0.0650521 -9.39796e-08)
(0.289951 0.0669557 -1.53617e-07)
(0.270655 0.0686562 -2.15669e-07)
(0.243707 0.0709879 -2.66116e-07)
(0.199485 0.0750857 -2.80732e-07)
(0.145418 0.0811075 -2.01393e-07)
(0.0926054 0.0876563 9.0227e-10)
(0.0634782 0.0945742 1.89483e-07)
(0.0258735 0.0995787 2.69396e-07)
(0.0223668 0.100591 2.94591e-07)
(1.83468 -0.00102744 -9.44378e-09)
(1.55606 0.00722776 3.82671e-08)
(0.676328 0.0439063 1.62623e-07)
(0.0687087 0.139278 1.94208e-07)
(0.0361738 0.100796 -2.16539e-07)
(0.379851 0.0850795 1.25373e-07)
(0.232885 0.100375 2.23657e-08)
(0.165834 0.107051 -4.52308e-08)
(0.23107 0.101574 -8.7729e-08)
(0.269191 0.0938296 4.43974e-08)
(0.264616 0.0912691 -2.33763e-08)
(0.269128 0.0870086 -2.94327e-08)
(0.283206 0.0846213 -4.21018e-08)
(0.293445 0.0849559 -6.87117e-08)
(0.301107 0.0877901 -1.05378e-07)
(0.302919 0.0909795 -1.0492e-07)
(0.294928 0.0937753 -1.80966e-07)
(0.275868 0.0966088 -1.98153e-07)
(0.249777 0.10017 -2.57341e-07)
(0.207181 0.106143 -2.73227e-07)
(0.154091 0.115052 -1.99211e-07)
(0.101533 0.125183 -7.29248e-09)
(0.0710522 0.135929 1.81233e-07)
(0.0308225 0.144203 2.6902e-07)
(0.0236886 0.1462 2.87137e-07)
(1.82896 -0.00124094 -1.20059e-08)
(1.57128 0.00875496 4.45096e-08)
(0.739973 0.053626 1.78736e-07)
(0.0918771 0.177501 1.73432e-07)
(0.0106501 0.131914 -1.12386e-07)
(0.383892 0.108144 1.09917e-07)
(0.246198 0.12738 1.32345e-07)
(0.169468 0.137171 -2.60571e-08)
(0.231971 0.130563 -1.26395e-07)
(0.273102 0.121822 6.44181e-08)
(0.270059 0.117865 -6.08416e-09)
(0.273418 0.11232 -4.12494e-08)
(0.287517 0.109013 -5.88732e-08)
(0.298153 0.109178 -9.87542e-08)
(0.306328 0.11267 -1.09376e-07)
(0.308422 0.116859 -1.01643e-07)
(0.301029 0.120576 -1.91604e-07)
(0.282601 0.124799 -1.79929e-07)
(0.25761 0.129718 -2.46618e-07)
(0.217313 0.137589 -2.6432e-07)
(0.166025 0.149436 -1.97804e-07)
(0.114114 0.163574 -1.73063e-08)
(0.0820267 0.178351 1.72359e-07)
(0.0386358 0.19063 2.6304e-07)
(0.0260183 0.194479 2.74034e-07)
(1.82187 -0.00141488 -1.24233e-08)
(1.58889 0.00976528 5.00765e-08)
(0.82227 0.0606273 2.03901e-07)
(0.121741 0.211767 2.23764e-07)
(-0.0162117 0.165042 -3.47061e-08)
(0.386016 0.133481 1.22021e-08)
(0.262334 0.153507 1.71625e-07)
(0.174624 0.166898 -2.96631e-08)
(0.232597 0.159799 -2.3426e-07)
(0.277586 0.150538 4.87666e-08)
(0.276357 0.14486 5.24361e-08)
(0.278426 0.138077 -2.24325e-08)
(0.292324 0.133695 -8.96047e-08)
(0.303514 0.133451 -1.04084e-07)
(0.312406 0.137302 -1.49605e-07)
(0.314937 0.142582 -1.1759e-07)
(0.308425 0.147409 -2.04472e-07)
(0.290992 0.153254 -1.77923e-07)
(0.267277 0.159777 -2.34411e-07)
(0.229911 0.169757 -2.56878e-07)
(0.181365 0.184803 -1.96543e-07)
(0.130707 0.203376 -2.59498e-08)
(0.096968 0.22288 1.62617e-07)
(0.0500756 0.240469 2.57166e-07)
(0.029722 0.247307 2.54612e-07)
(1.81354 -0.00152248 -1.3738e-08)
(1.60759 0.0101599 5.02977e-08)
(0.921694 0.0642362 2.16355e-07)
(0.158589 0.238342 2.97797e-07)
(-0.0403053 0.201789 -1.12642e-07)
(0.384811 0.162377 -9.08e-09)
(0.279683 0.178611 1.85067e-07)
(0.181892 0.196395 1.73453e-08)
(0.232862 0.189539 -2.27874e-07)
(0.282212 0.179869 -1.1794e-08)
(0.283098 0.172039 5.24487e-08)
(0.28403 0.164192 -5.34556e-08)
(0.297604 0.158699 -1.32951e-07)
(0.309432 0.15786 -1.128e-07)
(0.319065 0.161674 -1.72942e-07)
(0.322308 0.167922 -1.32898e-07)
(0.317065 0.17405 -1.77364e-07)
(0.301151 0.181721 -1.70107e-07)
(0.278999 0.190044 -2.37221e-07)
(0.245219 0.202457 -2.50455e-07)
(0.200435 0.221083 -1.91505e-07)
(0.151895 0.244631 -2.87263e-08)
(0.117019 0.269979 1.49382e-07)
(0.0666141 0.294798 2.44226e-07)
(0.0357416 0.306881 2.33138e-07)
(1.80412 -0.00153088 -1.5053e-08)
(1.62618 0.0101314 4.79778e-08)
(1.03353 0.0646983 2.21276e-07)
(0.203702 0.253802 3.92165e-07)
(-0.0542608 0.244766 -2.46863e-07)
(0.380013 0.19279 1.46273e-09)
(0.296515 0.202655 1.72058e-07)
(0.192168 0.225074 7.70662e-08)
(0.232955 0.219457 -1.26582e-07)
(0.286563 0.209358 -5.54168e-08)
(0.290324 0.199071 4.45916e-08)
(0.29066 0.190516 -8.51999e-08)
(0.303556 0.183946 -1.52699e-07)
(0.315854 0.182177 -1.48431e-07)
(0.326162 0.18556 -1.93876e-07)
(0.330575 0.192863 -9.29553e-08)
(0.327089 0.200396 -1.43984e-07)
(0.313165 0.210011 -1.46245e-07)
(0.292945 0.22008 -2.5132e-07)
(0.26345 0.235142 -2.47146e-07)
(0.22362 0.257684 -1.86289e-07)
(0.178414 0.287007 -3.07875e-08)
(0.143696 0.319665 1.33463e-07)
(0.0906187 0.35484 2.25962e-07)
(0.0458263 0.378481 2.10945e-07)
(1.79372 -0.00138448 -1.57838e-08)
(1.64359 0.00996379 4.37283e-08)
(1.14949 0.0626445 2.1937e-07)
(0.260453 0.255094 4.96985e-07)
(-0.0528663 0.293547 -2.95896e-07)
(0.363817 0.223227 -1.36352e-08)
(0.312244 0.228116 1.31605e-07)
(0.205934 0.251558 1.24606e-07)
(0.233556 0.24886 -2.92973e-08)
(0.290302 0.238675 -3.67955e-08)
(0.297853 0.226274 4.36538e-08)
(0.298406 0.217199 -9.72504e-08)
(0.310161 0.209459 -1.59218e-07)
(0.322682 0.206411 -1.52207e-07)
(0.333833 0.208996 -1.88343e-07)
(0.339822 0.217224 -8.32408e-08)
(0.338325 0.226212 -1.24907e-07)
(0.326829 0.237578 -1.64213e-07)
(0.309055 0.24976 -2.3076e-07)
(0.284808 0.267495 -2.40293e-07)
(0.251365 0.293987 -1.81411e-07)
(0.211314 0.329696 -3.65081e-08)
(0.179351 0.371694 1.14427e-07)
(0.127908 0.420473 2.04137e-07)
(0.0650868 0.468008 1.88047e-07)
(1.78256 -0.000952341 -1.52462e-08)
(1.6592 0.0101447 3.65222e-08)
(1.25912 0.0595562 1.93164e-07)
(0.332427 0.241236 5.51753e-07)
(-0.0333621 0.345214 -2.72089e-07)
(0.333346 0.254482 -1.43908e-08)
(0.325857 0.254603 1.00174e-07)
(0.221525 0.275917 1.02666e-07)
(0.235792 0.278392 1.10384e-08)
(0.293358 0.266825 1.06369e-08)
(0.305739 0.253726 4.96154e-08)
(0.30739 0.244243 -9.20612e-08)
(0.317449 0.235304 -1.0147e-07)
(0.329832 0.230739 -1.30342e-07)
(0.341973 0.232217 -1.53327e-07)
(0.349888 0.240678 -9.76124e-08)
(0.350559 0.251085 -1.28473e-07)
(0.342235 0.263653 -1.74937e-07)
(0.327715 0.278546 -2.21644e-07)
(0.309182 0.298851 -2.31085e-07)
(0.283586 0.328991 -1.76956e-07)
(0.25167 0.371018 -4.94753e-08)
(0.226079 0.424958 9.08115e-08)
(0.186149 0.496295 1.82777e-07)
(0.10235 0.607076 1.77201e-07)
(1.84297 -0.000137773 -7.40023e-09)
(1.53169 0.00102123 1.25547e-07)
(0.589297 0.00612738 4.29959e-07)
(0.034442 0.0184959 2.36775e-07)
(0.0822041 0.0156864 -2.38049e-07)
(0.37125 0.0151372 9.36799e-08)
(0.216435 0.0168837 9.77013e-08)
(0.163255 0.0180406 6.68182e-08)
(0.232246 0.0187524 -2.10849e-08)
(0.265012 0.0180428 -9.84325e-09)
(0.25683 0.0176857 1.60118e-08)
(0.262032 0.0166954 3.95768e-08)
(0.275073 0.0159711 6.01119e-08)
(0.284589 0.0157795 8.14301e-08)
(0.291453 0.0162585 7.33289e-08)
(0.292968 0.0169695 1.93224e-08)
(0.284647 0.0177302 -5.86028e-08)
(0.265328 0.0183509 -1.12971e-07)
(0.237499 0.0190678 -1.34803e-07)
(0.191748 0.0201786 -9.84707e-08)
(0.137147 0.0217272 -1.36419e-08)
(0.0845415 0.023467 9.9249e-08)
(0.0573538 0.0253473 1.63581e-07)
(0.0224843 0.027111 1.54076e-07)
(0.0214173 0.0277584 1.37552e-07)
(1.84174 -0.000438352 -7.8753e-09)
(1.53561 0.00319799 1.24754e-07)
(0.601625 0.0191319 4.379e-07)
(0.0387002 0.0572106 2.62887e-07)
(0.0725736 0.0420177 -2.80139e-07)
(0.372371 0.0378999 1.01691e-07)
(0.217573 0.0423556 9.4627e-08)
(0.161732 0.0442965 5.90974e-08)
(0.229876 0.0426718 -4.2868e-09)
(0.263778 0.0390367 3.16217e-09)
(0.256757 0.0378054 3.79987e-09)
(0.262701 0.0356218 2.21379e-08)
(0.276431 0.0345229 3.76753e-08)
(0.286353 0.0346356 6.18664e-08)
(0.293513 0.0356581 6.69615e-08)
(0.294994 0.0366782 2.30464e-08)
(0.286514 0.037733 -4.5997e-08)
(0.267073 0.0385788 -9.84193e-08)
(0.239553 0.0398379 -1.21981e-07)
(0.194346 0.0422303 -9.36032e-08)
(0.139906 0.045771 -1.46895e-08)
(0.0872406 0.0496292 9.53305e-08)
(0.0593269 0.0536646 1.60274e-07)
(0.0233112 0.0565021 1.55548e-07)
(0.0215937 0.057267 1.40479e-07)
(1.83896 -0.000754887 -7.51538e-09)
(1.54395 0.00537158 1.25795e-07)
(0.630418 0.0323093 4.38025e-07)
(0.0504887 0.0990723 2.90588e-07)
(0.057709 0.0707932 -2.58853e-07)
(0.375526 0.062006 5.16882e-08)
(0.223083 0.0718367 6.76885e-08)
(0.163298 0.0759298 4.36865e-08)
(0.230482 0.0723066 9.87804e-09)
(0.265982 0.0665371 2.61308e-08)
(0.259892 0.0650226 -8.48926e-09)
(0.265399 0.0620466 2.36913e-09)
(0.279414 0.0606037 -3.91377e-09)
(0.289283 0.0610778 1.43241e-08)
(0.296462 0.0630222 2.27384e-08)
(0.298115 0.0650632 9.31049e-09)
(0.28992 0.0669579 -3.81653e-08)
(0.270615 0.0686537 -8.4772e-08)
(0.24366 0.070984 -1.04939e-07)
(0.199433 0.0750828 -8.38969e-08)
(0.145372 0.0811076 -1.36991e-08)
(0.092567 0.0876586 9.08952e-08)
(0.0634567 0.0945806 1.56093e-07)
(0.0258636 0.0995844 1.55696e-07)
(0.022362 0.100601 1.44146e-07)
(1.83468 -0.00102744 -8.25205e-09)
(1.55605 0.00722853 1.32518e-07)
(0.676316 0.0439103 4.43618e-07)
(0.0687065 0.139288 3.51352e-07)
(0.036186 0.1008 -2.9981e-07)
(0.37985 0.0850826 2.03134e-08)
(0.232887 0.100373 4.29565e-08)
(0.16584 0.107042 2.71835e-08)
(0.231078 0.101563 6.86236e-09)
(0.269204 0.0938314 1.73297e-08)
(0.264627 0.091278 -2.69834e-08)
(0.269123 0.0870378 -1.11229e-08)
(0.283178 0.0846643 -2.13363e-08)
(0.293389 0.0849977 -1.86786e-08)
(0.301041 0.0878175 -3.47578e-09)
(0.302857 0.090991 -8.00508e-09)
(0.294875 0.0937764 -4.04649e-08)
(0.275821 0.0966042 -6.40315e-08)
(0.249729 0.100164 -8.36152e-08)
(0.207131 0.10614 -7.36787e-08)
(0.154048 0.115052 -1.51415e-08)
(0.101498 0.125186 8.18949e-08)
(0.0710328 0.135939 1.48169e-07)
(0.0308146 0.144212 1.57553e-07)
(0.0236862 0.146213 1.52079e-07)
(1.82896 -0.00124096 -8.30335e-09)
(1.57128 0.00875577 1.24431e-07)
(0.739965 0.0536303 4.5274e-07)
(0.0918767 0.177513 4.21718e-07)
(0.0106558 0.131919 -3.04383e-07)
(0.383888 0.108148 -5.16727e-08)
(0.24619 0.127376 1.93945e-08)
(0.16946 0.13716 4.20461e-09)
(0.231957 0.130557 -2.9347e-08)
(0.273066 0.121834 -4.56544e-08)
(0.269993 0.117891 -3.95492e-08)
(0.273339 0.112358 -2.05474e-08)
(0.287425 0.109043 -2.58759e-08)
(0.298052 0.109186 -4.47662e-08)
(0.306232 0.112658 -5.0027e-08)
(0.308341 0.116845 -4.53662e-08)
(0.300964 0.120567 -4.05838e-08)
(0.282547 0.124789 -5.92422e-08)
(0.257561 0.129712 -6.8545e-08)
(0.217265 0.137586 -6.45235e-08)
(0.165984 0.149435 -2.46099e-08)
(0.114083 0.163579 6.41588e-08)
(0.0820103 0.178362 1.39573e-07)
(0.0386293 0.190642 1.56656e-07)
(0.026017 0.194493 1.50832e-07)
(1.82187 -0.00141496 -7.96353e-09)
(1.58889 0.00976619 1.21654e-07)
(0.822269 0.0606326 4.58523e-07)
(0.121744 0.211784 5.38229e-07)
(-0.0162097 0.165052 -2.58681e-07)
(0.386009 0.133486 -1.66897e-07)
(0.262316 0.153509 -2.35696e-08)
(0.174603 0.166897 -3.43183e-08)
(0.232567 0.159804 -5.03356e-08)
(0.277515 0.150551 -5.03545e-08)
(0.276242 0.144885 -3.25691e-08)
(0.278312 0.138107 5.35337e-09)
(0.292228 0.133705 -1.52783e-08)
(0.30344 0.133435 -8.52203e-08)
(0.312346 0.137269 -7.66432e-08)