/*--------------------------------*- C++ -*----------------------------------*\
| =========                 |                                                 |
| \\      /  F ield         | OpenFOAM: The Open Source CFD Toolbox           |
|  \\    /   O peration     | Version:  4.1                                   |
|   \\  /    A nd           | Web:      www.OpenFOAM.org                      |
|    \\/     M anipulation  |                                                 |
\*---------------------------------------------------------------------------*/
FoamFile
{
    version     2.0;
    format      ascii;
    class       volScalarField;
    location    "6.52";
    object      p;
}
// * * * * * * * * * * * * * * * * * * * * * * * * * * * * * * * * * * * * * //

dimensions      [1 -1 -2 0 0 0 0];

internalField   nonuniform List<scalar> 
52500
(
1.00001
1.00003
1.00012
1.00025
1.00073
1.00149
1.00425
1.00843
1.0256
1.04665
1.16594
1.29948
2.12502
3.69432
8.95188
11.4738
11.228
11.058
11.1341
11.3526
11.5933
11.746
11.8616
11.9542
12.0274
1.00001
1.00003
1.00011
1.00025
1.00071
1.00146
1.00419
1.00829
1.02531
1.04579
1.16442
1.2949
2.11274
3.65919
8.86218
11.4728
11.2209
11.0458
11.1233
11.3434
11.5836
11.736
11.8532
11.9473
12.0219
1.00001
1.00003
1.00011
1.00024
1.0007
1.00142
1.00408
1.00806
1.02468
1.04449
1.16039
1.28621
2.08667
3.58232
8.66291
11.4701
11.2017
11.0118
11.0893
11.3086
11.545
11.694
11.8101
11.9027
11.9762
1.00001
1.00003
1.00011
1.00023
1.00067
1.00136
1.00391
1.0077
1.02373
1.0425
1.1543
1.27269
2.04833
3.4636
8.35328
11.4711
11.1737
10.9573
11.0328
11.2475
11.477
11.6198
11.7319
11.821
11.8938
1.00001
1.00003
1.0001
1.00022
1.00063
1.00129
1.0037
1.00729
1.02248
1.04014
1.14609
1.25623
1.99041
3.30604
7.9256
11.4784
11.1416
10.8856
10.957
11.1639
11.3841
11.5177
11.6228
11.7069
11.7797
1.00001
1.00003
1.00009
1.0002
1.00059
1.00121
1.00347
1.00684
1.02095
1.03762
1.13576
1.23824
1.90852
3.11293
7.37129
11.4944
11.1095
10.7972
10.8615
11.055
11.2631
11.3839
11.4775
11.5525
11.6244
1.00001
1.00002
1.00009
1.00019
1.00055
1.00114
1.00323
1.00651
1.0191
1.03635
1.12079
1.22135
1.80755
2.88827
6.69686
11.4971
11.0764
10.6955
10.7489
10.9209
11.1112
11.2119
11.2852
11.3415
11.4053
1
1.00002
1.00008
1.00017
1.0005
1.00103
1.00293
1.00593
1.01716
1.03366
1.10611
1.20113
1.70271
2.64647
5.93526
11.4386
11.016
10.5812
10.6205
10.7608
10.9251
10.9968
11.0362
11.0543
11.0899
1
1.00002
1.00007
1.00015
1.00045
1.00093
1.00263
1.00531
1.01533
1.03024
1.09348
1.18087
1.61028
2.42999
5.28742
11.1476
10.8703
10.4636
10.4777
10.5682
10.6958
10.7257
10.7124
10.6545
10.595
1
1.00002
1.00006
1.00013
1.00039
1.00081
1.00229
1.00463
1.01345
1.02612
1.08332
1.15464
1.54226
2.24821
4.79472
10.5078
10.5718
10.3858
10.3155
10.3538
10.4202
10.3995
10.3064
10.0872
9.74634
1.00001
1.00004
1.00012
1.00026
1.00073
1.00149
1.00426
1.00844
1.02562
1.04668
1.16594
1.29957
2.12506
3.69459
8.95242
11.4737
11.228
11.0581
11.1342
11.3527
11.5934
11.7461
11.8617
11.9543
12.0275
1.00001
1.00004
1.00012
1.00025
1.00072
1.00147
1.0042
1.0083
1.02532
1.04581
1.16443
1.29498
2.1128
3.65948
8.86277
11.4727
11.2209
11.0459
11.1234
11.3435
11.5837
11.7361
11.8533
11.9474
12.022
1.00001
1.00003
1.00011
1.00025
1.0007
1.00143
1.00409
1.00807
1.02469
1.04451
1.16041
1.28627
2.08675
3.58262
8.66352
11.4701
11.2017
11.0119
11.0894
11.3087
11.5451
11.6941
11.8102
11.9027
11.9763
1.00001
1.00003
1.00011
1.00024
1.00067
1.00137
1.00392
1.00771
1.02374
1.04252
1.15432
1.27275
2.04841
3.46391
8.35389
11.471
11.1737
10.9574
11.0329
11.2476
11.4771
11.6199
11.732
11.8211
11.8939
1.00001
1.00003
1.0001
1.00022
1.00064
1.0013
1.00371
1.0073
1.02249
1.04016
1.14611
1.25629
1.99049
3.30633
7.92622
11.4783
11.1416
10.8856
10.9571
11.164
11.3842
11.5178
11.6229
11.707
11.7798
1.00001
1.00003
1.0001
1.00021
1.0006
1.00122
1.00347
1.00685
1.02096
1.03764
1.13579
1.23829
1.9086
3.1132
7.37192
11.4943
11.1095
10.7973
10.8616
11.0551
11.2632
11.384
11.4776
11.5526
11.6245
1.00001
1.00003
1.00009
1.0002
1.00056
1.00115
1.00324
1.00652
1.01911
1.03638
1.1208
1.22142
1.80758
2.88851
6.69742
11.4971
11.0764
10.6956
10.749
10.921
11.1113
11.212
11.2853
11.3415
11.4054
1.00001
1.00002
1.00008
1.00018
1.00051
1.00104
1.00294
1.00594
1.01717
1.03367
1.10613
1.20118
1.70276
2.64668
5.93577
11.4386
11.0161
10.5813
10.6206
10.7609
10.9252
10.9969
11.0363
11.0544
11.09
1.00001
1.00002
1.00007
1.00016
1.00046
1.00093
1.00263
1.00532
1.01534
1.03025
1.0935
1.18091
1.61031
2.43013
5.28769
11.1478
10.8704
10.4637
10.4778
10.5683
10.6959
10.7257
10.7125
10.6546
10.5951
1
1.00002
1.00006
1.00014
1.0004
1.00081
1.0023
1.00464
1.01346
1.02614
1.08332
1.1547
1.54226
2.24835
4.79493
10.5082
10.5719
10.3859
10.3156
10.3539
10.4203
10.3996
10.3065
10.0872
9.74643
1.00001
1.00004
1.00012
1.00026
1.00073
1.00149
1.00426
1.00844
1.02562
1.04668
1.16594
1.29957
2.12506
3.69461
8.95247
11.4737
11.228
11.0581
11.1342
11.3527
11.5934
11.7461
11.8617
11.9543
12.0275
1.00001
1.00004
1.00012
1.00025
1.00072
1.00147
1.0042
1.0083
1.02532
1.04581
1.16443
1.29498
2.1128
3.6595
8.86281
11.4727
11.2209
11.0459
11.1234
11.3435
11.5837
11.7361
11.8533
11.9474
12.022
1.00001
1.00003
1.00011
1.00025
1.0007
1.00143
1.00409
1.00807
1.02469
1.04451
1.16041
1.28627
2.08675
3.58264
8.66356
11.47
11.2017
11.0119
11.0894
11.3087
11.5451
11.6941
11.8102
11.9027
11.9763
1.00001
1.00003
1.00011
1.00024
1.00067
1.00137
1.00392
1.00771
1.02374
1.04252
1.15432
1.27275
2.04842
3.46392
8.35394
11.471
11.1737
10.9574
11.0329
11.2476
11.4771
11.6199
11.732
11.8211
11.8939
1.00001
1.00003
1.0001
1.00022
1.00064
1.0013
1.00371
1.0073
1.02249
1.04016
1.14611
1.25629
1.99049
3.30635
7.92627
11.4783
11.1416
10.8856
10.9571
11.164
11.3842
11.5178
11.6229
11.707
11.7798
1.00001
1.00003
1.0001
1.00021
1.0006
1.00122
1.00347
1.00685
1.02096
1.03764
1.13579
1.2383
1.90861
3.11322
7.37196
11.4943
11.1095
10.7973
10.8616
11.0551
11.2632
11.384
11.4776
11.5526
11.6245
1.00001
1.00003
1.00009
1.0002
1.00056
1.00115
1.00324
1.00652
1.01911
1.03638
1.1208
1.22142
1.80759
2.88853
6.69747
11.497
11.0764
10.6956
10.749
10.921
11.1113
11.212
11.2853
11.3415
11.4054
1.00001
1.00002
1.00008
1.00018
1.00051
1.00104
1.00294
1.00594
1.01717
1.03367
1.10613
1.20118
1.70277
2.64669
5.93581
11.4386
11.0161
10.5813
10.6206
10.7609
10.9252
10.9969
11.0363
11.0544
11.09
1.00001
1.00002
1.00007
1.00016
1.00046
1.00093
1.00263
1.00532
1.01534
1.03025
1.0935
1.18091
1.61032
2.43014
5.28772
11.1478
10.8704
10.4637
10.4778
10.5683
10.6959
10.7258
10.7125
10.6546
10.5951
1
1.00002
1.00006
1.00014
1.0004
1.00081
1.0023
1.00464
1.01346
1.02614
1.08332
1.1547
1.54227
2.24836
4.79495
10.5082
10.5719
10.3859
10.3156
10.3539
10.4203
10.3996
10.3065
10.0872
9.74643
1.00001
1.00004
1.00012
1.00026
1.00073
1.00149
1.00426
1.00844
1.02562
1.04668
1.16594
1.29957
2.12506
3.69461
8.95247
11.4737
11.228
11.0581
11.1342
11.3527
11.5934
11.7461
11.8617
11.9543
12.0275
1.00001
1.00004
1.00012
1.00025
1.00072
1.00147
1.0042
1.0083
1.02532
1.04581
1.16443
1.29498
2.1128
3.6595
8.86281
11.4727
11.2209
11.0459
11.1234
11.3435
11.5837
11.7361
11.8533
11.9474
12.022
1.00001
1.00003
1.00011
1.00025
1.0007
1.00143
1.00409
1.00807
1.02469
1.04451
1.16041
1.28627
2.08675
3.58264
8.66356
11.47
11.2017
11.0119
11.0894
11.3087
11.5451
11.6941
11.8102
11.9028
11.9763
1.00001
1.00003
1.00011
1.00024
1.00067
1.00137
1.00392
1.00771
1.02374
1.04252
1.15432
1.27275
2.04842
3.46392
8.35394
11.471
11.1737
10.9574
11.0329
11.2476
11.4771
11.6199
11.732
11.8211
11.8939
1.00001
1.00003
1.0001
1.00022
1.00064
1.0013
1.00371
1.0073
1.02249
1.04016
1.14611
1.25629
1.99049
3.30635
7.92627
11.4783
11.1416
10.8856
10.9571
11.164
11.3842
11.5178
11.6229
11.707
11.7798
1.00001
1.00003
1.0001
1.00021
1.0006
1.00122
1.00347
1.00685
1.02096
1.03764
1.13579
1.2383
1.90861
3.11322
7.37197
11.4943
11.1095
10.7973
10.8616
11.0551
11.2632
11.384
11.4776
11.5526
11.6245
1.00001
1.00003
1.00009
1.0002
1.00056
1.00115
1.00324
1.00652
1.01911
1.03638
1.1208
1.22142
1.80759
2.88853
6.69747
11.497
11.0764
10.6956
10.749
10.921
11.1113
11.212
11.2853
11.3415
11.4054
1.00001
1.00002
1.00008
1.00018
1.00051
1.00104
1.00294
1.00594
1.01717
1.03367
1.10613
1.20118
1.70277
2.64669
5.93582
11.4386
11.0161
10.5813
10.6206
10.7609
10.9252
10.9969
11.0363
11.0544
11.09
1.00001
1.00002
1.00007
1.00016
1.00046
1.00093
1.00263
1.00532
1.01534
1.03025
1.0935
1.18091
1.61032
2.43014
5.28772
11.1478
10.8704
10.4637
10.4778
10.5683
10.6959
10.7258
10.7125
10.6546
10.5951
1
1.00002
1.00006
1.00014
1.0004
1.00081
1.0023
1.00464
1.01346
1.02614
1.08332
1.1547
1.54227
2.24836
4.79495
10.5082
10.5719
10.3859
10.3156
10.3539
10.4203
10.3996
10.3065
10.0872
9.74643
1.00001
1.00004
1.00012
1.00026
1.00073
1.00149
1.00426
1.00844
1.02562
1.04668
1.16594
1.29957
2.12506
3.69461
8.95248
11.4737
11.228
11.0581
11.1342
11.3527
11.5934
11.7461
11.8617
11.9543
12.0275
1.00001
1.00004
1.00012
1.00025
1.00072
1.00147
1.0042
1.0083
1.02532
1.04581
1.16443
1.29498
2.11281
3.6595
8.86282
11.4727
11.2209
11.0459
11.1234
11.3435
11.5837
11.7361
11.8533
11.9474
12.022
1.00001
1.00003
1.00011
1.00025
1.0007
1.00143
1.00409
1.00807
1.02469
1.04451
1.16041
1.28627
2.08676
3.58265
8.66357
11.47
11.2017
11.0119
11.0894
11.3087
11.5451
11.6941
11.8102
11.9028
11.9763
1.00001
1.00003
1.00011
1.00024
1.00067
1.00137
1.00392
1.00771
1.02374
1.04252
1.15432
1.27275
2.04842
3.46393
8.35395
11.471
11.1737
10.9574
11.0329
11.2476
11.4771
11.6199
11.732
11.8211
11.8939
1.00001
1.00003
1.0001
1.00022
1.00064
1.0013
1.00371
1.0073
1.02249
1.04016
1.14611
1.25629
1.9905
3.30636
7.92628
11.4783
11.1416
10.8856
10.9571
11.164
11.3842
11.5178
11.6229
11.707
11.7798
1.00001
1.00003
1.0001
1.00021
1.0006
1.00122
1.00347
1.00685
1.02096
1.03764
1.13579
1.2383
1.90861
3.11322
7.37198
11.4943
11.1095
10.7973
10.8616
11.0551
11.2632
11.384
11.4776
11.5526
11.6245
1.00001
1.00003
1.00009
1.0002
1.00056
1.00115
1.00324
1.00652
1.01911
1.03638
1.1208
1.22142
1.80759
2.88853
6.69748
11.497
11.0764
10.6956
10.749
10.921
11.1113
11.212
11.2853
11.3415
11.4054
1.00001
1.00002
1.00008
1.00018
1.00051
1.00104
1.00294
1.00594
1.01717
1.03367
1.10613
1.20118
1.70277
2.64669
5.93583
11.4386
11.0161
10.5813
10.6206
10.7609
10.9252
10.9969
11.0363
11.0544
11.09
1.00001
1.00002
1.00007
1.00016
1.00046
1.00093
1.00263
1.00532
1.01534
1.03025
1.0935
1.18091
1.61032
2.43015
5.28772
11.1478
10.8704
10.4637
10.4778
10.5683
10.6959
10.7258
10.7125
10.6546
10.5951
1
1.00002
1.00006
1.00014
1.0004
1.00081
1.0023
1.00464
1.01346
1.02614
1.08332
1.1547
1.54227
2.24836
4.79496
10.5082
10.5719
10.3859
10.3156
10.3539
10.4203
10.3996
10.3065
10.0872
9.74643
1.00001
1.00004
1.00012
1.00026
1.00073
1.00149
1.00426
1.00844
1.02562
1.04668
1.16594
1.29957
2.12506
3.69461
8.95248
11.4737
11.228
11.0581
11.1342
11.3527
11.5934
11.7461
11.8617
11.9543
12.0275
1.00001
1.00004
1.00012
1.00025
1.00072
1.00147
1.0042
1.0083
1.02532
1.04581
1.16443
1.29498
2.11281
3.6595
8.86282
11.4727
11.2209
11.0459
11.1234
11.3435
11.5837
11.7361
11.8533
11.9474
12.022
1.00001
1.00003
1.00011
1.00025
1.0007
1.00143
1.00409
1.00807
1.02469
1.04451
1.16041
1.28627
2.08676
3.58265
8.66357
11.47
11.2017
11.0119
11.0894
11.3087
11.5451
11.6941
11.8102
11.9028
11.9763
1.00001
1.00003
1.00011
1.00024
1.00067
1.00137
1.00392
1.00771
1.02374
1.04252
1.15432
1.27275
2.04842
3.46393
8.35395
11.471
11.1737
10.9574
11.0329
11.2476
11.4771
11.6199
11.732
11.8211
11.8939
1.00001
1.00003
1.0001
1.00022
1.00064
1.0013
1.00371
1.0073
1.02249
1.04016
1.14611
1.25629
1.9905
3.30636
7.92628
11.4783
11.1416
10.8856
10.9571
11.164
11.3842
11.5178
11.6229
11.707
11.7798
1.00001
1.00003
1.0001
1.00021
1.0006
1.00122
1.00347
1.00685
1.02096
1.03764
1.13579
1.2383
1.90861
3.11322
7.37198
11.4943
11.1095
10.7973
10.8616
11.0551
11.2632
11.384
11.4776
11.5526
11.6245
1.00001
1.00003
1.00009
1.0002
1.00056
1.00115
1.00324
1.00652
1.01911
1.03638
1.1208
1.22142
1.80759
2.88853
6.69749
11.497
11.0764
10.6956
10.749
10.921
11.1113
11.212
11.2853
11.3415
11.4054
1.00001
1.00002
1.00008
1.00018
1.00051
1.00104
1.00294
1.00594
1.01717
1.03367
1.10613
1.20118
1.70277
2.6467
5.93583
11.4386
11.0161
10.5813
10.6206
10.7609
10.9252
10.9969
11.0363
11.0544
11.09
1.00001
1.00002
1.00007
1.00016
1.00046
1.00093
1.00263
1.00532
1.01534
1.03025
1.0935
1.18091
1.61032
2.43015
5.28772
11.1478
10.8704
10.4637
10.4778
10.5683
10.6959
10.7258
10.7125
10.6546
10.5951
1
1.00002
1.00006
1.00014
1.0004
1.00081
1.0023
1.00464
1.01346
1.02614
1.08332
1.1547
1.54227
2.24836
4.79496
10.5082
10.5719
10.3859
10.3156
10.3539
10.4203
10.3996
10.3065
10.0873
9.74643
1.00001
1.00004
1.00012
1.00026
1.00073
1.00149
1.00426
1.00844
1.02562
1.04668
1.16594
1.29957
2.12506
3.69461
8.95247
11.4737
11.228
11.0581
11.1342
11.3527
11.5934
11.7461
11.8617
11.9543
12.0275
1.00001
1.00004
1.00012
1.00025
1.00072
1.00147
1.0042
1.0083
1.02532
1.04581
1.16443
1.29498
2.1128
3.6595
8.86281
11.4727
11.2209
11.0459
11.1234
11.3435
11.5837
11.7361
11.8533
11.9474
12.022
1.00001
1.00003
1.00011
1.00025
1.0007
1.00143
1.00409
1.00807
1.02469
1.04451
1.16041
1.28627
2.08676
3.58264
8.66356
11.47
11.2017
11.0119
11.0894
11.3087
11.5451
11.6941
11.8102
11.9028
11.9763
1.00001
1.00003
1.00011
1.00024
1.00067
1.00137
1.00392
1.00771
1.02374
1.04252
1.15432
1.27275
2.04842
3.46392
8.35394
11.471
11.1737
10.9574
11.0329
11.2476
11.4771
11.6199
11.732
11.8211
11.8939
1.00001
1.00003
1.0001
1.00022
1.00064
1.0013
1.00371
1.0073
1.02249
1.04016
1.14611
1.25629
1.99049
3.30635
7.92627
11.4783
11.1416
10.8856
10.9571
11.164
11.3842
11.5178
11.6229
11.707
11.7798
1.00001
1.00003
1.0001
1.00021
1.0006
1.00122
1.00347
1.00685
1.02096
1.03764
1.13579
1.2383
1.90861
3.11322
7.37197
11.4943
11.1095
10.7973
10.8616
11.0551
11.2632
11.384
11.4776
11.5526
11.6245
1.00001
1.00003
1.00009
1.0002
1.00056
1.00115
1.00324
1.00652
1.01911
1.03638
1.1208
1.22142
1.80759
2.88853
6.69748
11.497
11.0764
10.6956
10.749
10.921
11.1113
11.212
11.2853
11.3415
11.4054
1.00001
1.00002
1.00008
1.00018
1.00051
1.00104
1.00294
1.00594
1.01717
1.03367
1.10613
1.20118
1.70277
2.64669
5.93582
11.4386
11.0161
10.5813
10.6206
10.7609
10.9252
10.9969
11.0363
11.0544
11.09
1.00001
1.00002
1.00007
1.00016
1.00046
1.00093
1.00263
1.00532
1.01534
1.03025
1.0935
1.18091
1.61032
2.43014
5.28772
11.1478
10.8704
10.4637
10.4778
10.5683
10.6959
10.7258
10.7125
10.6546
10.5951
1
1.00002
1.00006
1.00014
1.0004
1.00081
1.0023
1.00464
1.01346
1.02614
1.08332
1.1547
1.54227
2.24836
4.79496
10.5082
10.5719
10.3859
10.3156
10.3539
10.4203
10.3996
10.3065
10.0872
9.74643
1.00001
1.00004
1.00012
1.00026
1.00073
1.00149
1.00426
1.00844
1.02562
1.04668
1.16594
1.29957
2.12506
3.69461
8.95247
11.4737
11.228
11.0581
11.1342
11.3527
11.5934
11.7461
11.8617
11.9543
12.0275
1.00001
1.00004
1.00012
1.00025
1.00072
1.00147
1.0042
1.0083
1.02532
1.04581
1.16443
1.29498
2.1128
3.6595
8.86281
11.4727
11.2209
11.0459
11.1234
11.3435
11.5837
11.7361
11.8533
11.9474
12.022
1.00001
1.00003
1.00011
1.00025
1.0007
1.00143
1.00409
1.00807
1.02469
1.04451
1.16041
1.28627
2.08675
3.58264
8.66356
11.47
11.2017
11.0119
11.0894
11.3087
11.5451
11.6941
11.8102
11.9028
11.9763
1.00001
1.00003
1.00011
1.00024
1.00067
1.00137
1.00392
1.00771
1.02374
1.04252
1.15432
1.27275
2.04842
3.46392
8.35394
11.471
11.1737
10.9574
11.0329
11.2476
11.4771
11.6199
11.732
11.8211
11.8939
1.00001
1.00003
1.0001
1.00022
1.00064
1.0013
1.00371
1.0073
1.02249
1.04016
1.14611
1.25629
1.99049
3.30635
7.92627
11.4783
11.1416
10.8856
10.9571
11.164
11.3842
11.5178
11.6229
11.707
11.7798
1.00001
1.00003
1.0001
1.00021
1.0006
1.00122
1.00347
1.00685
1.02096
1.03764
1.13579
1.2383
1.90861
3.11322
7.37196
11.4943
11.1095
10.7973
10.8616
11.0551
11.2632
11.384
11.4776
11.5526
11.6245
1.00001
1.00003
1.00009
1.0002
1.00056
1.00115
1.00324
1.00652
1.01911
1.03638
1.1208
1.22142
1.80759
2.88853
6.69747
11.497
11.0764
10.6956
10.749
10.921
11.1113
11.212
11.2853
11.3415
11.4054
1.00001
1.00002
1.00008
1.00018
1.00051
1.00104
1.00294
1.00594
1.01717
1.03367
1.10613
1.20118
1.70277
2.64669
5.93582
11.4386
11.0161
10.5813
10.6206
10.7609
10.9252
10.9969
11.0363
11.0544
11.09
1.00001
1.00002
1.00007
1.00016
1.00046
1.00093
1.00263
1.00532
1.01534
1.03025
1.0935
1.18091
1.61032
2.43014
5.28772
11.1478
10.8704
10.4637
10.4778
10.5683
10.6959
10.7258
10.7125
10.6546
10.5951
1
1.00002
1.00006
1.00014
1.0004
1.00081
1.0023
1.00464
1.01346
1.02614
1.08332
1.1547
1.54227
2.24836
4.79495
10.5082
10.5719
10.3859
10.3156
10.3539
10.4203
10.3996
10.3065
10.0872
9.74643
1.00001
1.00004
1.00012
1.00026
1.00073
1.00149
1.00426
1.00844
1.02562
1.04668
1.16594
1.29957
2.12506
3.69459
8.95242
11.4737
11.228
11.0581
11.1342
11.3527
11.5934
11.7461
11.8617
11.9543
12.0275
1.00001
1.00004
1.00012
1.00025
1.00072
1.00147
1.0042
1.0083
1.02532
1.04581
1.16443
1.29498
2.1128
3.65948
8.86276
11.4727
11.2209
11.0459
11.1234
11.3435
11.5837
11.7361
11.8533
11.9474
12.022
1.00001
1.00003
1.00011
1.00025
1.0007
1.00143
1.00409
1.00807
1.02469
1.04451
1.16041
1.28627
2.08675
3.58262
8.66352
11.4701
11.2017
11.0119
11.0894
11.3087
11.5451
11.6941
11.8102
11.9027
11.9763
1.00001
1.00003
1.00011
1.00024
1.00067
1.00137
1.00392
1.00771
1.02374
1.04252
1.15432
1.27275
2.04841
3.4639
8.35389
11.471
11.1737
10.9574
11.0329
11.2476
11.4771
11.6199
11.732
11.8211
11.8939
1.00001
1.00003
1.0001
1.00022
1.00064
1.0013
1.00371
1.0073
1.02249
1.04016
1.14611
1.25629
1.99049
3.30633
7.92622
11.4783
11.1416
10.8856
10.9571
11.164
11.3842
11.5178
11.6229
11.707
11.7798
1.00001
1.00003
1.0001
1.00021
1.0006
1.00122
1.00347
1.00685
1.02096
1.03764
1.13579
1.23829
1.9086
3.1132
7.37192
11.4943
11.1095
10.7973
10.8616
11.0551
11.2632
11.384
11.4776
11.5526
11.6245
1.00001
1.00003
1.00009
1.0002
1.00056
1.00115
1.00324
1.00652
1.01911
1.03638
1.1208
1.22142
1.80758
2.88851
6.69742
11.4971
11.0764
10.6956
10.749
10.921
11.1113
11.212
11.2853
11.3415
11.4054
1.00001
1.00002
1.00008
1.00018
1.00051
1.00104
1.00294
1.00594
1.01717
1.03367
1.10613
1.20118
1.70276
2.64668
5.93577
11.4386
11.0161
10.5813
10.6206
10.7609
10.9252
10.9969
11.0363
11.0544
11.09
1.00001
1.00002
1.00007
1.00016
1.00046
1.00093
1.00263
1.00532
1.01534
1.03025
1.0935
1.18091
1.61031
2.43013
5.28769
11.1478
10.8704
10.4637
10.4778
10.5683
10.6959
10.7257
10.7125
10.6546
10.5951
1
1.00002
1.00006
1.00014
1.0004
1.00081
1.0023
1.00464
1.01346
1.02614
1.08332
1.1547
1.54226
2.24835
4.79493
10.5082
10.5719
10.3859
10.3156
10.3539
10.4203
10.3996
10.3065
10.0872
9.74643
1.00001
1.00003
1.00012
1.00025
1.00073
1.00149
1.00425
1.00843
1.0256
1.04665
1.16594
1.29948
2.12501
3.69431
8.95187
11.4738
11.228
11.058
11.1341
11.3526
11.5933
11.746
11.8616
11.9542
12.0274
1.00001
1.00003
1.00011
1.00025
1.00071
1.00146
1.00419
1.00829
1.02531
1.04579
1.16442
1.2949
2.11273
3.65919
8.86217
11.4728
11.2209
11.0458
11.1233
11.3434
11.5836
11.736
11.8532
11.9473
12.0219
1.00001
1.00003
1.00011
1.00024
1.0007
1.00142
1.00408
1.00806
1.02468
1.04449
1.16039
1.28621
2.08667
3.58232
8.6629
11.4701
11.2017
11.0118
11.0893
11.3086
11.545
11.694
11.8101
11.9027
11.9762
1.00001
1.00003
1.00011
1.00023
1.00067
1.00136
1.00391
1.0077
1.02373
1.0425
1.1543
1.27269
2.04833
3.4636
8.35327
11.4711
11.1737
10.9573
11.0328
11.2475
11.477
11.6198
11.7319
11.821
11.8938
1.00001
1.00003
1.0001
1.00022
1.00063
1.00129
1.0037
1.00729
1.02248
1.04014
1.14609
1.25623
1.9904
3.30604
7.92559
11.4784
11.1416
10.8856
10.957
11.1639
11.3841
11.5177
11.6228
11.7069
11.7797
1.00001
1.00003
1.00009
1.0002
1.00059
1.00121
1.00347
1.00684
1.02095
1.03762
1.13576
1.23824
1.90852
3.11293
7.37128
11.4944
11.1095
10.7972
10.8615
11.055
11.2631
11.3839
11.4775
11.5525
11.6244
1.00001
1.00002
1.00009
1.00019
1.00055
1.00114
1.00323
1.00651
1.0191
1.03635
1.12079
1.22135
1.80755
2.88827
6.69685
11.4971
11.0764
10.6955
10.7489
10.9209
11.1112
11.2119
11.2852
11.3415
11.4053
1
1.00002
1.00008
1.00017
1.0005
1.00103
1.00293
1.00593
1.01716
1.03366
1.10611
1.20113
1.70271
2.64647
5.93526
11.4386
11.016
10.5812
10.6205
10.7608
10.9251
10.9968
11.0362
11.0543
11.0899
1
1.00002
1.00007
1.00015
1.00045
1.00093
1.00263
1.00531
1.01533
1.03024
1.09348
1.18087
1.61028
2.42999
5.28742
11.1476
10.8703
10.4636
10.4777
10.5682
10.6958
10.7257
10.7124
10.6545
10.595
1
1.00002
1.00006
1.00013
1.00039
1.00081
1.00229
1.00463
1.01345
1.02612
1.08332
1.15464
1.54226
2.24821
4.79472
10.5078
10.5718
10.3858
10.3155
10.3538
10.4202
10.3995
10.3064
10.0872
9.74634
1
1.00002
1.00004
1.00014
1.00029
1.00083
1.00169
1.00483
1.00951
1.02929
1.05269
1.18927
1.34731
2.2776
4.09351
9.59572
10.4148
10.2879
10.1316
10.1262
10.1122
10.0275
9.78112
9.20654
7.75563
1
1.00002
1.00004
1.00012
1.00025
1.00073
1.00148
1.00422
1.00841
1.02519
1.04662
1.16165
1.29529
2.08991
3.59452
8.47971
10.302
10.1909
9.96046
9.88583
9.8104
9.6351
9.25055
8.47841
7.00225
1
1.00001
1.00003
1.0001
1.00021
1.00061
1.00125
1.00355
1.007
1.02141
1.03833
1.13802
1.24192
1.92096
3.12531
7.25309
10.2114
10.0885
9.80247
9.64604
9.51709
9.26416
8.79362
8.01768
6.85617
1
1.00001
1.00003
1.00009
1.00018
1.00052
1.00107
1.00302
1.00609
1.01764
1.03431
1.10971
1.20461
1.72475
2.67965
5.93309
10.0725
9.96848
9.67221
9.42097
9.23392
8.94178
8.45895
7.75141
6.8375
1
1.00001
1.00002
1.00007
1.00015
1.00042
1.00087
1.00246
1.00497
1.01431
1.0283
1.08623
1.17083
1.55351
2.29096
4.73955
9.68031
9.76282
9.56388
9.22436
8.9816
8.67222
8.21391
7.58266
6.81916
1
1
1.00002
1.00004
1.00014
1.00028
1.00081
1.00164
1.00468
1.0092
1.02814
1.05071
1.18024
1.3292
2.19607
3.85372
8.73973
9.5171
9.37576
9.05981
8.76817
8.44583
8.01925
7.45753
6.79366
1
1
1.00001
1.00003
1.00011
1.00023
1.00065
1.00132
1.00375
1.00739
1.02249
1.04043
1.14427
1.25421
1.95653
3.19407
7.22745
9.25215
9.17327
8.93241
8.59279
8.25662
7.85464
7.35012
6.76255
0.999999
1
1.00001
1.00003
1.00008
1.00018
1.00051
1.00105
1.00298
1.006
1.01743
1.03383
1.10807
1.20335
1.70837
2.63564
5.71079
9.03743
9.02488
8.84699
8.47259
8.10619
7.71927
7.25911
6.73281
0.999997
0.999999
1
1.00002
1.00005
1.00016
1.00032
1.00092
1.00186
1.00531
1.01042
1.03197
1.05766
1.20016
1.39235
2.27281
4.13822
8.54408
8.9154
8.75928
8.39538
7.98917
7.60447
7.17832
6.70369
0.999996
0.999997
1
1.00001
1.00004
1.00011
1.00024
1.00069
1.0014
1.00399
1.00782
1.02402
1.04287
1.1531
1.27279
2.00812
3.31705
7.33654
8.68175
8.58636
8.3127
7.89521
7.50965
7.11225
6.67765
0.999994
0.999995
0.999999
1.00001
1.00003
1.00007
1.0002
1.00042
1.00119
1.00232
1.00721
1.01255
1.04553
1.07455
1.28498
1.56999
2.8294
5.63891
8.39888
8.39438
8.23094
7.86
7.43997
7.05049
6.6488
0.999993
0.999994
0.999997
1
1.00002
1.00005
1.00015
1.00032
1.00091
1.00186
1.00524
1.01051
1.03084
1.05877
1.18959
1.38153
2.21487
3.87724
7.84604
8.29115
8.16056
7.83742
7.39139
7.00101
6.62335
0.999993
0.999993
0.999995
1
1.00001
1.00004
1.00009
1.00026
1.00055
1.00155
1.00309
1.00907
1.01684
1.05615
1.09726
1.35118
1.72931
3.2305
6.49411
8.06666
8.01296
7.79798
7.36738
6.96686
6.602
0.999992
0.999992
0.999993
0.999997
1
1.00003
1.00006
1.00019
1.0004
1.00112
1.00227
1.00645
1.01258
1.03892
1.06907
1.24453
1.47872
2.53326
4.75195
7.65581
7.84097
7.71283
7.37889
6.96229
6.59293
0.999992
0.999992
0.999993
0.999995
1
1.00001
1.00005
1.00011
1.00033
1.00067
1.00189
1.00383
1.0109
1.02162
1.06403
1.12904
1.3907
1.89758
3.44211
6.74705
7.66393
7.5936
7.36859
6.97173
6.59548
0.999991
0.999991
0.999992
0.999993
0.999998
1.00001
1.00003
1.00008
1.00022
1.00046
1.0013
1.00264
1.00743
1.01462
1.04428
1.08093
1.27378
1.5595
2.70614
5.14323
7.34465
7.43349
7.32177
7.01808
6.60991
0.999991
0.999991
0.999991
0.999993
0.999995
1
1.00001
1.00006
1.00013
1.00036
1.00075
1.00209
1.00423
1.01195
1.02387
1.06937
1.14226
1.4194
1.96037
3.52867
6.65457
7.30653
7.24089
7.03189
6.64843
0.999991
0.999991
0.999991
0.999992
0.999993
0.999998
1.00001
1.00004
1.00008
1.00024
1.0005
1.0014
1.00284
1.00794
1.01576
1.04655
1.08794
1.28317
1.60044
2.7501
5.22546
7.03536
7.10346
7.00585
6.74013
0.999991
0.999991
0.999991
0.999991
0.999993
0.999995
1
1.00002
1.00006
1.00013
1.00038
1.00077
1.00215
1.00434
1.01226
1.02432
1.07121
1.14397
1.42746
1.96762
3.49727
6.4362
6.9925
6.94242
6.76604
0.999991
0.999991
0.999991
0.999991
0.999992
0.999994
0.999997
1.00001
1.00003
1.0001
1.0002
1.00058
1.00117
1.00328
1.00641
1.0193
1.0344
1.11847
1.20723
1.7355
2.58616
5.14237
6.73891
6.8202
6.73895
0.999991
0.99999
0.99999
0.999991
0.999991
0.999993
0.999995
1
1.00002
1.00006
1.00013
1.00038
1.00077
1.00214
1.00433
1.01212
1.02414
1.06988
1.14178
1.41705
1.93464
3.3818
6.14758
6.70567
6.67116
0.999991
0.99999
0.99999
0.99999
0.999991
0.999991
0.999994
0.999997
1.00001
1.00003
1.00009
1.0002
1.00056
1.00113
1.00316
1.0062
1.01846
1.03315
1.11299
1.19792
1.69353
2.48683
4.86458
6.43219
6.56901
0.999991
0.99999
0.99999
0.99999
0.999991
0.999991
0.999992
0.999995
1
1.00001
1.00006
1.00013
1.00036
1.00074
1.00203
1.00411
1.0114
1.02285
1.06494
1.13341
1.38315
1.86073
3.18419
5.78373
6.43913
0.999991
0.99999
0.99999
0.99999
0.99999
0.999991
0.999992
0.999993
0.999998
1.00001
1.00003
1.00007
1.00022
1.00046
1.00126
1.00256
1.00707
1.0141
1.04067
1.07737
1.24269
1.49789
2.44202
4.40334
6.10027
0.999991
0.99999
0.99999
0.99999
0.99999
0.999991
0.999991
0.999992
0.999995
1
1.00002
1.00004
1.00013
1.00028
1.00076
1.00156
1.00427
1.00859
1.02411
1.04693
1.14136
1.27886
1.83793
2.85236
5.3602
0.999991
0.99999
0.99999
0.99999
0.99999
0.99999
0.999991
0.999991
0.999993
0.999997
1
1.00003
1.00006
1.00019
1.00039
1.00108
1.0022
1.00606
1.01209
1.03468
1.06645
1.20335
1.42025
2.18512
3.73375
0.999991
0.99999
0.99999
0.99999
0.99999
0.99999
0.999991
0.999991
0.999992
0.999994
1
1.00001
1.00004
1.00009
1.00027
1.00056
1.00155
1.00314
1.0087
1.01752
1.04898
1.10172
1.28395
1.63704
2.6357
0.999991
0.99999
0.99999
0.99999
0.99999
0.99999
0.99999
0.999991
0.999991
0.999993
0.999995
1
1.00002
1.00006
1.00014
1.00039
1.00079
1.00217
1.00439
1.01213
1.02397
1.06909
1.1368
1.39859
1.87179
0.999991
0.99999
0.99999
0.99999
0.99999
0.99999
0.99999
0.99999
0.999991
0.999992
0.999993
0.999998
1.00001
1.00004
1.00008
1.00024
1.0005
1.00136
1.00277
1.00756
1.01514
1.04269
1.08464
1.24986
1.53141
0.999991
0.99999
0.99999
0.99999
0.99999
0.99999
0.99999
0.99999
0.999991
0.999991
0.999993
0.999995
1
1.00002
1.00006
1.00014
1.00039
1.0008
1.00224
1.00451
1.01284
1.0253
1.07686
1.14726
1.48083
0.999991
0.99999
0.99999
0.99999
0.99999
0.99999
0.99999
0.99999
0.99999
0.999991
0.999992
0.999994
0.999998
1.00001
1.00004
1.00012
1.00025
1.00072
1.00145
1.0043
1.00806
1.02693
1.04649
1.17493
1.31837
0.999991
0.99999
0.99999
0.99999
0.99999
0.99999
0.99999
0.99999
0.99999
0.999991
0.999992
0.999993
0.999998
1.00001
1.00004
1.00008
1.00026
1.00052
1.00158
1.00298
1.01008
1.01716
1.06665
1.11194
1.4436
0.999991
0.99999
0.99999
0.99999
0.99999
0.99999
0.99999
0.99999
0.99999
0.999991
0.999991
0.999993
0.999997
1
1.00003
1.00007
1.00023
1.00047
1.00146
1.00265
1.00954
1.01576
1.06367
1.10551
1.43354
0.999991
0.99999
0.99999
0.99999
0.99999
0.99999
0.99999
0.99999
0.99999
0.999991
0.999991
0.999993
0.999996
1.00001
1.00002
1.00008
1.00018
1.00057
1.00104
1.00375
1.00624
1.02485
1.04056
1.16538
1.30052
0.999991
0.99999
0.99999
0.99999
0.99999
0.99999
0.99999
0.99999
0.99999
0.999991
0.999991
0.999992
0.999996
1
1.00003
1.00006
1.00021
1.00039
1.00142
1.00234
1.00933
1.01503
1.06227
1.10276
1.43277
0.999991
0.99999
0.99999
0.99999
0.99999
0.99999
0.99999
0.99999
0.99999
0.999991
0.999991
0.999993
0.999996
1.00001
1.00002
1.00008
1.00017
1.00055
1.00098
1.00364
1.00599
1.02418
1.03946
1.16177
1.29369
0.999991
0.99999
0.99999
0.99999
0.99999
0.99999
0.99999
0.99999
0.99999
0.999991
0.999991
0.999992
0.999997
1
1.00003
1.00007
1.00021
1.00043
1.00138
1.00245
1.00919
1.01499
1.06186
1.10251
1.42488
0.999991
0.99999
0.99999
0.99999
0.99999
0.99999
0.99999
0.99999
0.99999
0.999991
0.999991
0.999992
0.999997
1
1.00003
1.00007
1.00021
1.00043
1.00137
1.00243
1.00912
1.01487
1.06136
1.10223
1.4191
0.999991
0.99999
0.99999
0.99999
0.99999
0.99999
0.99999
0.99999
0.99999
0.999991
0.999991
0.999993
0.999996
1.00001
1.00002
1.00009
1.00018
1.00056
1.0011
1.00355
1.00629
1.02362
1.03912
1.15945
1.28664
0.999991
0.99999
0.99999
0.99999
0.99999
0.99999
0.99999
0.99999
0.99999
0.999991
0.999991
0.999993
0.999996
1.00001
1.00003
1.00009
1.0002
1.00059
1.0012
1.00359
1.00696
1.02311
1.0403
1.15855
1.28258
1
1.00002
1.00005
1.00014
1.0003
1.00083
1.00169
1.00484
1.00952
1.0293
1.05271
1.18928
1.34738
2.27763
4.09375
9.59611
10.4149
10.288
10.1317
10.1263
10.1123
10.0276
9.78121
9.20662
7.7557
1
1.00002
1.00004
1.00013
1.00026
1.00073
1.00149
1.00423
1.00843
1.0252
1.04665
1.16166
1.29537
2.08994
3.59473
8.48011
10.3021
10.191
9.96054
9.88592
9.81049
9.63519
9.25063
8.47849
7.00233
1
1.00001
1.00004
1.00011
1.00022
1.00062
1.00125
1.00356
1.00701
1.02142
1.03835
1.13804
1.24196
1.921
3.12551
7.25349
10.2115
10.0885
9.80255
9.64612
9.51717
9.26424
8.7937
8.01776
6.85625
1
1.00001
1.00003
1.00009
1.00019
1.00053
1.00107
1.00302
1.0061
1.01765
1.03433
1.10973
1.20466
1.72479
2.67982
5.93349
10.0726
9.96856
9.67228
9.42105
9.234
8.94186
8.45903
7.75149
6.83758
1
1.00001
1.00002
1.00007
1.00015
1.00043
1.00088
1.00247
1.00498
1.01432
1.02832
1.08625
1.17087
1.55355
2.29109
4.73978
9.68056
9.76292
9.56396
9.22443
8.98168
8.6723
8.21399
7.58273
6.81924
1
1.00001
1.00002
1.00005
1.00014
1.00029
1.00081
1.00165
1.00468
1.00922
1.02816
1.05073
1.18027
1.32925
2.19615
3.85395
8.74014
9.51719
9.37583
9.05987
8.76824
8.4459
8.01932
7.45761
6.79373
1
1.00001
1.00002
1.00004
1.00011
1.00023
1.00065
1.00133
1.00376
1.0074
1.02251
1.04045
1.14429
1.25427
1.95659
3.19428
7.22787
9.25222
9.17333
8.93246
8.59285
8.25668
7.85471
7.35019
6.76263
1
1
1.00001
1.00003
1.00009
1.00019
1.00052
1.00106
1.00299
1.00602
1.01745
1.03385
1.10808
1.2034
1.70841
2.63582
5.71119
9.03754
9.02497
8.84705
8.47262
8.10625
7.71934
7.25919
6.73289
1
1
1.00001
1.00003
1.00006
1.00016
1.00033
1.00093
1.00187
1.00532
1.01043
1.03198