/*--------------------------------*- C++ -*----------------------------------*\
| =========                 |                                                 |
| \\      /  F ield         | OpenFOAM: The Open Source CFD Toolbox           |
|  \\    /   O peration     | Version:  4.1                                   |
|   \\  /    A nd           | Web:      www.OpenFOAM.org                      |
|    \\/     M anipulation  |                                                 |
\*---------------------------------------------------------------------------*/
FoamFile
{
    version     2.0;
    format      ascii;
    class       volVectorField;
    location    "6.52";
    object      U;
}
// * * * * * * * * * * * * * * * * * * * * * * * * * * * * * * * * * * * * * //

dimensions      [0 1 -1 0 0 0 0];

internalField   nonuniform List<vector> 
52500
(
(3 1.61418e-08 -0.00571426)
(2.99998 8.95725e-08 -0.0057144)
(2.99996 3.34636e-07 -0.00571463)
(2.99988 8.64534e-07 -0.00571532)
(2.99974 2.38778e-06 -0.00571661)
(2.99932 5.54399e-06 -0.00572051)
(2.9985 1.4108e-05 -0.00572808)
(2.99594 3.39567e-05 -0.00574892)
(2.99144 7.5882e-05 -0.00579871)
(2.9746 0.000197842 -0.00590153)
(2.94454 0.000415611 -0.00628557)
(2.83195 0.00105963 -0.00683987)
(2.52271 0.00297647 -0.00945973)
(1.78266 0.00754636 -0.0143733)
(0.791493 0.0213205 -0.0178118)
(0.498238 0.021502 -0.0184906)
(0.555942 0.022703 -0.0185112)
(0.570429 0.0249183 -0.0185614)
(0.521027 0.0270746 -0.0187424)
(0.43406 0.0291528 -0.0189254)
(0.347844 0.0317024 -0.0191212)
(0.277014 0.0348979 -0.0192921)
(0.206354 0.0383988 -0.0194525)
(0.125048 0.0426334 -0.0196118)
(0.0559865 0.0491409 -0.0197793)
(3 4.63362e-08 -0.00571426)
(2.99998 2.57349e-07 -0.0057144)
(2.99996 9.58357e-07 -0.00571462)
(2.99989 2.46814e-06 -0.00571531)
(2.99974 6.79892e-06 -0.00571657)
(2.99933 1.56671e-05 -0.0057204)
(2.99852 4.02773e-05 -0.00572788)
(2.99599 9.32053e-05 -0.00574824)
(2.99158 0.000226089 -0.00579774)
(2.97488 0.000531367 -0.00589788)
(2.94528 0.00134049 -0.00628063)
(2.83391 0.00318087 -0.00682286)
(2.52849 0.0091549 -0.00942284)
(1.79616 0.0235793 -0.0142831)
(0.799445 0.0650685 -0.0177068)
(0.495556 0.0625208 -0.018417)
(0.555121 0.0635429 -0.0184348)
(0.570243 0.067873 -0.0184769)
(0.520342 0.0718696 -0.0186504)
(0.433159 0.0755867 -0.0188262)
(0.346926 0.0801039 -0.0190145)
(0.275495 0.0854697 -0.019175)
(0.203646 0.0906676 -0.0193275)
(0.120904 0.0960088 -0.0194738)
(0.0515864 0.102061 -0.0196233)
(3 7.47172e-08 -0.00571426)
(2.99998 4.14551e-07 -0.0057144)
(2.99996 1.54478e-06 -0.00571461)
(2.99989 3.97313e-06 -0.00571528)
(2.99975 1.09606e-05 -0.0057165)
(2.99934 2.51997e-05 -0.00572023)
(2.99856 6.53064e-05 -0.00572751)
(2.99609 0.000148704 -0.00574722)
(2.99181 0.000375963 -0.00579565)
(2.97551 0.000841786 -0.00589236)
(2.94681 0.00232444 -0.00626667)
(2.83794 0.00538276 -0.00678893)
(2.54143 0.0154221 -0.00934531)
(1.82646 0.0406146 -0.0141078)
(0.817478 0.112519 -0.0175554)
(0.491052 0.106116 -0.0183344)
(0.554843 0.106865 -0.0183496)
(0.571798 0.114228 -0.0183828)
(0.521593 0.121396 -0.0185486)
(0.434796 0.128735 -0.0187153)
(0.349342 0.13727 -0.0188934)
(0.277879 0.146842 -0.0190458)
(0.205255 0.156173 -0.0191854)
(0.121382 0.165157 -0.0193219)
(0.0505164 0.173061 -0.0194594)
(3 9.85821e-08 -0.00571425)
(2.99998 5.4566e-07 -0.00571439)
(2.99996 2.03839e-06 -0.00571459)
(2.99989 5.23376e-06 -0.00571523)
(2.99976 1.44907e-05 -0.00571641)
(2.99937 3.32617e-05 -0.00571997)
(2.99862 8.70648e-05 -0.00572696)
(2.99625 0.000196199 -0.00574564)
(2.99216 0.00051224 -0.00579255)
(2.97648 0.00112513 -0.00588386)
(2.94916 0.00322226 -0.00624574)
(2.84396 0.00733808 -0.00673726)
(2.56123 0.022412 -0.00923351)
(1.87317 0.0579785 -0.0138485)
(0.843811 0.16192 -0.0173595)
(0.482916 0.150474 -0.0182452)
(0.554436 0.1499 -0.0182575)
(0.575041 0.159972 -0.0182761)
(0.525139 0.170281 -0.0184319)
(0.439515 0.181563 -0.0185885)
(0.355426 0.194438 -0.0187494)
(0.284348 0.208739 -0.0188856)
(0.211091 0.223021 -0.0190243)
(0.125604 0.236454 -0.0191548)
(0.0517239 0.246669 -0.0192892)
(3 1.14458e-07 -0.00571425)
(2.99998 6.32365e-07 -0.00571438)
(2.99996 2.36579e-06 -0.00571458)
(2.9999 6.05531e-06 -0.00571518)
(2.99977 1.6823e-05 -0.00571629)
(2.9994 3.84115e-05 -0.00571966)
(2.9987 0.000102222 -0.00572628)
(2.99644 0.000223844 -0.00574389)
(2.99259 0.000625062 -0.00578839)
(2.97773 0.00130724 -0.00587419)
(2.95212 0.00403625 -0.0062168)
(2.85264 0.00875061 -0.00667689)
(2.58871 0.0306767 -0.00904833)
(1.93803 0.0756044 -0.0134705)
(0.882959 0.213744 -0.0171029)
(0.475689 0.196165 -0.01814)
(0.556942 0.192808 -0.0181479)
(0.58236 0.205035 -0.0181519)
(0.532866 0.21822 -0.0182948)
(0.448698 0.233561 -0.0184446)
(0.366084 0.250827 -0.0186004)
(0.295506 0.270062 -0.0187161)
(0.221522 0.289895 -0.0188189)
(0.133472 0.308687 -0.0189477)
(0.0549715 0.322046 -0.0190714)
(3 1.19623e-07 -0.00571425)
(2.99999 6.60571e-07 -0.00571437)
(2.99996 2.46377e-06 -0.00571455)
(2.99991 6.26506e-06 -0.00571512)
(2.99979 1.73707e-05 -0.00571616)
(2.99944 3.91137e-05 -0.00571932)
(2.99878 0.000106859 -0.00572549)
(2.99668 0.00021524 -0.00574212)
(2.99307 0.000707093 -0.00578315)
(2.97927 0.0012191 -0.00586439)
(2.95553 0.00498289 -0.00617929)
(2.86431 0.00964349 -0.00661562)
(2.62401 0.0383171 -0.00876484)
(2.02205 0.0917164 -0.0129526)
(0.938923 0.264536 -0.0167689)
(0.474302 0.243633 -0.0180099)
(0.565626 0.236716 -0.0180222)
(0.596481 0.250101 -0.0179975)
(0.547268 0.265609 -0.0181399)
(0.46462 0.285229 -0.0182511)
(0.383153 0.307503 -0.0184021)
(0.312799 0.332625 -0.0185275)
(0.237748 0.359324 -0.0186189)
(0.146124 0.38549 -0.0187156)
(0.0607564 0.404297 -0.018846)
(3 1.36889e-07 -0.00571425)
(2.99999 7.5663e-07 -0.00571436)
(2.99997 2.81905e-06 -0.00571453)
(2.99991 7.19432e-06 -0.00571507)
(2.9998 1.98984e-05 -0.00571604)
(2.99948 4.50493e-05 -0.00571904)
(2.99884 0.000121657 -0.00572469)
(2.99694 0.000250373 -0.00574127)
(2.99343 0.000800069 -0.00577668)
(2.98124 0.00133636 -0.00585944)
(2.95932 0.00573774 -0.00612256)
(2.87815 0.0106542 -0.00654699)
(2.66675 0.042636 -0.00840158)
(2.12498 0.102556 -0.0122923)
(1.01673 0.306033 -0.0163494)
(0.488696 0.292312 -0.0178364)
(0.584653 0.284829 -0.0178551)
(0.619927 0.297324 -0.0178238)
(0.570809 0.31362 -0.0179721)
(0.489791 0.337038 -0.0180761)
(0.40923 0.364732 -0.0181705)
(0.338918 0.396852 -0.0182644)
(0.262595 0.432488 -0.0183466)
(0.166423 0.469455 -0.0184314)
(0.0711255 0.498585 -0.0185253)
(3 1.59515e-07 -0.00571425)
(2.99999 8.8158e-07 -0.00571435)
(2.99997 3.28626e-06 -0.00571451)
(2.99992 8.43158e-06 -0.00571499)
(2.99982 2.32996e-05 -0.00571587)
(2.99953 5.33361e-05 -0.00571858)
(2.99895 0.000140296 -0.00572371)
(2.99724 0.000310073 -0.00573874)
(2.99397 0.000853757 -0.00577013)
(2.98333 0.00171056 -0.00584819)
(2.96348 0.00570901 -0.00606893)
(2.89288 0.0112019 -0.00646955)
(2.71153 0.0414729 -0.00803318)
(2.23962 0.101134 -0.0115485)
(1.11842 0.309248 -0.0158571)
(0.531119 0.334797 -0.0175936)
(0.618557 0.337701 -0.0175944)
(0.653514 0.346856 -0.0175726)
(0.604896 0.362695 -0.0177162)
(0.526386 0.389934 -0.0178542)
(0.446561 0.4236 -0.0179477)
(0.376296 0.46378 -0.0180063)
(0.299451 0.510493 -0.0180452)
(0.19918 0.563453 -0.0180788)
(0.0896976 0.613613 -0.0181484)
(3 1.74294e-07 -0.00571425)
(2.99999 9.56653e-07 -0.00571434)
(2.99997 3.55407e-06 -0.00571448)
(2.99993 9.10521e-06 -0.00571491)
(2.99984 2.50437e-05 -0.0057157)
(2.99958 5.72703e-05 -0.00571813)
(2.99906 0.000149373 -0.00572271)
(2.99754 0.000332916 -0.0057362)
(2.9946 0.00086732 -0.00576403)
(2.98524 0.00193556 -0.00583501)
(2.96738 0.00523659 -0.00602489)
(2.90614 0.0117202 -0.00639698)
(2.75071 0.0359762 -0.00771719)
(2.3385 0.0889944 -0.0108983)
(1.23112 0.26841 -0.0154481)
(0.587769 0.370657 -0.0173657)
(0.649511 0.397718 -0.0173768)
(0.682529 0.396573 -0.0173566)
(0.641811 0.412515 -0.0174838)
(0.570864 0.442801 -0.0175445)
(0.494626 0.483708 -0.017628)
(0.426413 0.532718 -0.0176679)
(0.352385 0.592599 -0.017665)
(0.253726 0.670199 -0.0176207)
(0.125402 0.764177 -0.0175158)
(3 3.07113e-07 -0.00571425)
(2.99999 5.47787e-07 -0.00571433)
(2.99998 4.47506e-06 -0.00571445)
(2.99994 6.58636e-06 -0.00571482)
(2.99986 3.0315e-05 -0.00571552)
(2.99963 4.25324e-05 -0.0057176)
(2.99918 0.000181281 -0.00572164)
(2.99784 0.000239662 -0.00573322)
(2.99531 0.00109882 -0.00575801)
(2.98694 0.00115957 -0.00581756)
(2.97176 0.00724351 -0.00599321)
(2.91715 0.00543786 -0.00629936)
(2.78145 0.0463239 -0.00752546)
(2.41388 0.0643237 -0.01021)
(1.36209 0.250652 -0.0151468)
(0.661477 0.424531 -0.0171222)
(0.66483 0.452103 -0.0171089)
(0.691032 0.445241 -0.0171833)
(0.672177 0.462689 -0.0172672)
(0.616357 0.494105 -0.0173303)
(0.549952 0.542143 -0.0173255)
(0.488584 0.600071 -0.0172997)
(0.42686 0.678316 -0.0172038)
(0.346684 0.797903 -0.0170018)
(0.194342 1.00634 -0.0165898)
(2.99999 1.67168e-08 -2.58381e-09)
(2.99998 9.0245e-08 -8.65831e-09)
(2.99996 3.37949e-07 -1.01479e-08)
(2.99988 8.67773e-07 -1.60214e-08)
(2.99974 2.40636e-06 -1.64745e-08)
(2.99931 5.58033e-06 -2.20718e-08)
(2.99849 1.41922e-05 -2.30484e-08)
(2.99593 3.42345e-05 -3.41974e-08)
(2.99144 7.60857e-05 -3.04631e-08)
(2.9746 0.000199418 -9.20317e-08)
(2.94453 0.000414826 -6.86825e-09)
(2.83194 0.00106107 -2.29776e-07)
(2.52268 0.00297255 -1.04181e-07)
(1.78259 0.00754011 -5.68158e-07)
(0.791485 0.0213069 -5.82059e-07)
(0.4983 0.0214935 1.44408e-08)
(0.555983 0.0227005 -5.16221e-08)
(0.570459 0.0249189 -8.97326e-08)
(0.521053 0.0270774 -8.91789e-08)
(0.43408 0.0291565 -8.71422e-08)
(0.347857 0.0317065 -8.75549e-08)
(0.27702 0.034901 -8.71245e-08)
(0.206356 0.0384004 -8.50849e-08)
(0.125049 0.042634 -8.29642e-08)
(0.0559871 0.0491411 -8.1612e-08)
(2.99999 4.76371e-08 -2.57222e-09)
(2.99998 2.58375e-07 -8.65512e-09)
(2.99996 9.63534e-07 -1.00975e-08)
(2.99988 2.47125e-06 -1.60191e-08)
(2.99974 6.8223e-06 -1.61873e-08)
(2.99932 1.57067e-05 -2.17063e-08)
(2.99852 4.03697e-05 -2.21599e-08)
(2.99598 9.34989e-05 -3.08752e-08)
(2.99158 0.000226287 -3.13385e-08)
(2.97487 0.000533307 -7.39508e-08)
(2.94527 0.0013386 -3.08598e-08)
(2.83389 0.00318309 -2.11324e-07)
(2.52845 0.00915028 -1.51104e-07)
(1.79606 0.0235717 -6.02502e-07)
(0.799397 0.0650529 -6.30332e-07)
(0.495574 0.0625153 3.65954e-08)
(0.555125 0.0635453 -2.77677e-08)
(0.570242 0.0678778 -8.06696e-08)
(0.520343 0.0718755 -8.3621e-08)
(0.433161 0.0755924 -8.42263e-08)
(0.34693 0.0801096 -8.27432e-08)
(0.275499 0.0854742 -8.32616e-08)
(0.203649 0.0906704 -8.25047e-08)
(0.120906 0.0960102 -8.13053e-08)
(0.0515873 0.102061 -8.06164e-08)
(2.99999 7.65284e-08 -2.55772e-09)
(2.99998 4.15528e-07 -8.66094e-09)
(2.99996 1.54924e-06 -1.00705e-08)
(2.99989 3.9716e-06 -1.60554e-08)
(2.99975 1.09726e-05 -1.6099e-08)
(2.99934 2.52061e-05 -2.17142e-08)
(2.99856 6.53263e-05 -2.2025e-08)
(2.99609 0.000148734 -3.02131e-08)
(2.99181 0.000375993 -3.20554e-08)
(2.97551 0.000842227 -5.8871e-08)
(2.9468 0.00232345 -7.26109e-08)
(2.83792 0.00538392 -1.66667e-07)
(2.54139 0.0154215 -1.89242e-07)
(1.82636 0.0406137 -6.29691e-07)
(0.817438 0.112513 -6.58465e-07)
(0.491081 0.106116 6.21427e-08)
(0.554851 0.106869 -1.30492e-08)
(0.571796 0.114232 -7.75386e-08)
(0.52159 0.121401 -8.14955e-08)
(0.434795 0.12874 -8.24347e-08)
(0.349344 0.137275 -7.84694e-08)
(0.277881 0.146846 -7.94673e-08)
(0.205257 0.156177 -7.95589e-08)
(0.121384 0.165159 -7.94478e-08)
(0.0505174 0.173063 -7.93034e-08)
(3 1.00827e-07 -2.53599e-09)
(2.99998 5.47336e-07 -8.66765e-09)
(2.99996 2.04251e-06 -1.00349e-08)
(2.99989 5.23413e-06 -1.61308e-08)
(2.99976 1.45018e-05 -1.59477e-08)
(2.99937 3.32707e-05 -2.17656e-08)
(2.99862 8.70877e-05 -2.1873e-08)
(2.99624 0.000196238 -3.01351e-08)
(2.99216 0.000512316 -3.1639e-08)
(2.97647 0.00112532 -5.81042e-08)
(2.94915 0.00322254 -7.23774e-08)
(2.84395 0.00733902 -1.62562e-07)
(2.56119 0.0224125 -1.92333e-07)
(1.87307 0.0579809 -6.33734e-07)
(0.843772 0.161919 -6.87161e-07)
(0.482947 0.150476 7.00531e-08)
(0.554444 0.149902 -1.13909e-08)
(0.575038 0.159975 -7.78529e-08)
(0.525136 0.170284 -8.1073e-08)
(0.439514 0.181567 -8.09871e-08)
(0.355427 0.194443 -7.611e-08)
(0.28435 0.208742 -7.70995e-08)
(0.211093 0.223024 -7.77631e-08)
(0.125606 0.236457 -7.7799e-08)
(0.0517248 0.246671 -7.78568e-08)
(3 1.16785e-07 -2.51268e-09)
(2.99998 6.34752e-07 -8.66698e-09)
(2.99996 2.36768e-06 -1.00266e-08)
(2.9999 6.06371e-06 -1.61277e-08)
(2.99977 1.68272e-05 -1.59058e-08)
(2.9994 3.84296e-05 -2.17241e-08)
(2.99869 0.000102252 -2.17619e-08)
(2.99644 0.000223933 -2.98433e-08)
(2.99258 0.000625189 -3.13698e-08)
(2.97773 0.00130765 -5.65349e-08)
(2.95211 0.00403692 -7.15684e-08)
(2.85262 0.00875229 -1.55237e-07)
(2.58866 0.0306785 -2.01342e-07)
(1.93793 0.0756102 -6.24657e-07)
(0.882916 0.213749 -7.25104e-07)
(0.475713 0.196171 7.77444e-08)
(0.556944 0.192812 -9.10584e-09)
(0.582351 0.205038 -7.74323e-08)
(0.532859 0.218223 -8.04752e-08)
(0.448693 0.233564 -7.97792e-08)
(0.366082 0.25083 -7.50257e-08)
(0.295506 0.270065 -7.56873e-08)
(0.221523 0.289898 -7.65002e-08)
(0.133473 0.30869 -7.60707e-08)
(0.0549722 0.322049 -7.62186e-08)
(3 1.21145e-07 -2.48932e-09)
(2.99998 6.64255e-07 -8.6606e-09)
(2.99996 2.46199e-06 -1.00462e-08)
(2.9999 6.27674e-06 -1.60068e-08)
(2.99978 1.7364e-05 -1.60055e-08)
(2.99944 3.91232e-05 -2.15086e-08)
(2.99878 0.000106859 -2.1606e-08)
(2.99668 0.000215202 -2.89771e-08)
(2.99306 0.000707224 -3.08247e-08)
(2.97927 0.00121816 -5.26109e-08)
(2.95552 0.00498536 -6.77496e-08)
(2.86429 0.0096433 -1.44287e-07)
(2.62397 0.0383246 -1.9652e-07)
(2.02195 0.0917298 -6.00376e-07)
(0.938878 0.264555 -7.67318e-07)
(0.474326 0.243643 7.76406e-08)
(0.565631 0.23672 -1.31059e-08)
(0.596478 0.250103 -7.85918e-08)
(0.547266 0.26561 -8.08762e-08)
(0.464619 0.285231 -8.00233e-08)
(0.383152 0.307505 -7.62596e-08)
(0.312799 0.332627 -7.63599e-08)
(0.237749 0.359326 -7.66949e-08)
(0.146124 0.385493 -7.53536e-08)
(0.0607569 0.404301 -7.54876e-08)
(3 1.389e-07 -2.48215e-09)
(2.99999 7.60133e-07 -8.62029e-09)
(2.99997 2.8202e-06 -1.01278e-08)
(2.99991 7.20513e-06 -1.58797e-08)
(2.9998 1.99064e-05 -1.62213e-08)
(2.99948 4.5081e-05 -2.14746e-08)
(2.99884 0.000121718 -2.19103e-08)
(2.99694 0.00025054 -3.06727e-08)
(2.99342 0.000800315 -2.83201e-08)
(2.98123 0.00133711 -7.69843e-08)
(2.95931 0.00573941 -1.29913e-08)
(2.87814 0.0106565 -1.96109e-07)
(2.66673 0.0426408 -9.9535e-08)
(2.12491 0.102569 -5.45827e-07)
(1.01671 0.306055 -7.43716e-07)
(0.488731 0.292319 3.7191e-08)
(0.584669 0.28483 -3.5672e-08)
(0.619935 0.297326 -8.36348e-08)
(0.570815 0.313622 -8.40463e-08)
(0.489796 0.337041 -8.12039e-08)
(0.409234 0.364734 -7.85971e-08)
(0.33892 0.396854 -7.84092e-08)
(0.262597 0.43249 -7.80044e-08)
(0.166424 0.469458 -7.641e-08)
(0.0711262 0.49859 -7.57059e-08)
(3 1.62487e-07 -2.44913e-09)
(2.99999 8.83647e-07 -8.62568e-09)
(2.99997 3.29041e-06 -1.009e-08)
(2.99992 8.43832e-06 -1.58276e-08)
(2.99982 2.33166e-05 -1.6037e-08)
(2.99952 5.33754e-05 -2.10722e-08)
(2.99895 0.00014039 -2.10015e-08)
(2.99724 0.000310379 -2.69276e-08)
(2.99397 0.00085405 -2.91917e-08)
(2.98332 0.00171278 -4.29176e-08)
(2.96347 0.00570926 -4.91294e-08)
(2.89286 0.0112068 -1.30532e-07)
(2.7115 0.0414765 -1.44092e-07)
(2.23954 0.10115 -4.75396e-07)
(1.11838 0.309295 -7.38596e-07)
(0.531125 0.334808 -1.2523e-08)
(0.618562 0.337703 -5.1638e-08)
(0.653519 0.346859 -8.19009e-08)
(0.604903 0.362698 -8.26188e-08)
(0.526394 0.389938 -8.03928e-08)
(0.446567 0.423604 -7.96348e-08)
(0.376302 0.463783 -7.99372e-08)
(0.299455 0.510496 -7.90323e-08)
(0.199183 0.563457 -7.73431e-08)
(0.0896988 0.613618 -7.65406e-08)
(3 1.73834e-07 -2.42275e-09)
(2.99999 9.58224e-07 -8.62948e-09)
(2.99997 3.54751e-06 -1.00937e-08)
(2.99993 9.09476e-06 -1.58263e-08)
(2.99984 2.50233e-05 -1.60167e-08)
(2.99957 5.72392e-05 -2.10175e-08)
(2.99906 0.000149318 -2.08049e-08)
(2.99753 0.000332809 -2.64535e-08)
(2.99459 0.000867293 -2.806e-08)
(2.98523 0.00193411 -4.01747e-08)
(2.96738 0.00523776 -4.30492e-08)
(2.90613 0.0117188 -1.17439e-07)
(2.75069 0.0359828 -9.61966e-08)
(2.33845 0.0890086 -3.4153e-07)
(1.23109 0.268464 -4.26592e-07)
(0.587776 0.37066 -1.70016e-07)
(0.649524 0.397715 -9.21805e-08)
(0.682541 0.396573 -8.84894e-08)
(0.641822 0.412518 -8.5873e-08)
(0.570875 0.442805 -8.06407e-08)
(0.494635 0.483712 -8.03111e-08)
(0.426421 0.532722 -8.0682e-08)
(0.352391 0.592603 -8.00696e-08)
(0.253731 0.670204 -7.82381e-08)
(0.125404 0.764183 -7.71344e-08)
(3 2.92654e-07 -2.45835e-09)
(2.99999 6.00931e-07 -8.58591e-09)
(2.99998 4.36442e-06 -1.02387e-08)
(2.99994 6.61885e-06 -1.59174e-08)
(2.99986 3.01838e-05 -1.62287e-08)
(2.99963 4.25587e-05 -2.12888e-08)
(2.99918 0.000181144 -2.14644e-08)
(2.99784 0.000239697 -2.79658e-08)
(2.99531 0.00109862 -2.75002e-08)
(2.98693 0.00115989 -7.07603e-08)
(2.97175 0.00724244 -2.5599e-09)
(2.91715 0.00544192 -1.74965e-07)
(2.78144 0.0463199 -1.09467e-08)
(2.41385 0.0643364 -3.32818e-07)
(1.36206 0.250669 -3.65903e-07)
(0.661467 0.424526 -3.56449e-07)
(0.66485 0.452101 -1.13948e-07)
(0.691051 0.445243 -8.84704e-08)
(0.672193 0.462692 -8.27311e-08)
(0.616371 0.494109 -8.22961e-08)
(0.549964 0.542148 -8.21242e-08)
(0.488595 0.600076 -8.18654e-08)
(0.42687 0.678321 -8.03188e-08)
(0.346691 0.797908 -7.69349e-08)
(0.194346 1.00635 -7.55419e-08)
(2.99999 1.67176e-08 -4.37367e-13)
(2.99998 9.02494e-08 -2.2909e-12)
(2.99996 3.37966e-07 -5.28576e-12)
(2.99988 8.67811e-07 -1.1094e-11)
(2.99974 2.40648e-06 -2.24129e-11)
(2.99931 5.58062e-06 -4.31028e-11)
(2.99849 1.41928e-05 -9.40447e-11)
(2.99593 3.42366e-05 -2.02779e-10)
(2.99144 7.60875e-05 -4.07814e-10)
(2.9746 0.000199429 -1.09989e-09)
(2.94453 0.000414823 -1.91272e-09)
(2.83194 0.00106108 -5.43746e-09)
(2.52268 0.00297253 -1.2682e-08)
(1.78258 0.00754006 -3.17025e-08)
(0.791481 0.0213068 -4.18739e-08)
(0.498302 0.0214935 2.91047e-09)
(0.555984 0.0227005 -1.06479e-09)
(0.570459 0.024919 -4.50423e-09)
(0.521053 0.0270775 -4.6839e-09)
(0.43408 0.0291566 -4.69475e-09)
(0.347856 0.0317065 -4.5973e-09)
(0.27702 0.034901 -4.57115e-09)
(0.206356 0.0384004 -4.53035e-09)
(0.125048 0.0426339 -4.45714e-09)
(0.055987 0.0491411 -4.39019e-09)
(2.99999 4.76379e-08 -4.21646e-13)
(2.99998 2.5838e-07 -2.21593e-12)
(2.99996 9.63551e-07 -5.02535e-12)
(2.99988 2.47129e-06 -1.06665e-11)
(2.99974 6.82242e-06 -2.07358e-11)
(2.99932 1.5707e-05 -3.98823e-11)
(2.99852 4.03703e-05 -8.77551e-11)
(2.99598 9.35009e-05 -1.8022e-10)
(2.99158 0.000226288 -4.10861e-10)
(2.97487 0.000533321 -9.93401e-10)
(2.94527 0.00133859 -2.04366e-09)
(2.83389 0.00318309 -5.31786e-09)
(2.52845 0.00915032 -1.30002e-08)
(1.79605 0.0235717 -3.2083e-08)
(0.799393 0.0650527 -4.26568e-08)
(0.495576 0.0625153 3.20332e-09)
(0.555126 0.0635453 -8.9783e-10)
(0.570242 0.0678778 -4.38849e-09)
(0.520343 0.0718755 -4.56009e-09)
(0.433161 0.0755924 -4.57147e-09)
(0.34693 0.0801096 -4.52011e-09)
(0.275499 0.0854742 -4.53896e-09)
(0.203649 0.0906704 -4.52755e-09)
(0.120906 0.0960101 -4.48065e-09)
(0.0515873 0.102061 -4.4376e-09)
(2.99999 7.65286e-08 -4.21452e-13)
(2.99998 4.15529e-07 -2.21087e-12)
(2.99996 1.54924e-06 -5.02442e-12)
(2.99989 3.9716e-06 -1.0672e-11)
(2.99975 1.09726e-05 -2.07651e-11)
(2.99934 2.52061e-05 -3.99014e-11)
(2.99856 6.53264e-05 -8.73412e-11)
(2.99609 0.000148734 -1.74194e-10)
(2.99181 0.000375992 -4.20778e-10)
(2.97551 0.00084223 -8.61808e-10)
(2.9468 0.00232343 -2.39845e-09)
(2.83792 0.00538392 -5.22079e-09)
(2.54138 0.0154215 -1.21396e-08)
(1.82635 0.0406136 -3.33493e-08)
(0.817435 0.112513 -4.35241e-08)
(0.491083 0.106116 3.6557e-09)
(0.554852 0.106869 -9.30558e-10)
(0.571796 0.114232 -4.35706e-09)
(0.52159 0.121401 -4.45963e-09)
(0.434795 0.12874 -4.42609e-09)
(0.349344 0.137276 -4.42691e-09)
(0.277881 0.146846 -4.49618e-09)
(0.205257 0.156177 -4.50051e-09)
(0.121384 0.165159 -4.51104e-09)
(0.0505174 0.173063 -4.5002e-09)
(3 1.00828e-07 -4.17865e-13)
(2.99998 5.47342e-07 -2.19073e-12)
(2.99996 2.04253e-06 -4.97286e-12)
(2.99989 5.23418e-06 -1.05657e-11)
(2.99976 1.45019e-05 -2.0527e-11)
(2.99937 3.32711e-05 -3.94482e-11)
(2.99862 8.70885e-05 -8.64759e-11)
(2.99624 0.000196241 -1.72866e-10)
(2.99216 0.000512319 -4.19151e-10)
(2.97647 0.00112534 -8.58713e-10)
(2.94915 0.00322255 -2.43121e-09)
(2.84394 0.00733908 -5.21169e-09)
(2.56118 0.0224123 -1.25008e-08)
(1.87306 0.0579808 -3.39986e-08)
(0.843768 0.161918 -4.5555e-08)
(0.482949 0.150475 4.31273e-09)
(0.554445 0.149902 -7.22561e-10)
(0.575038 0.159975 -4.26425e-09)
(0.525136 0.170284 -4.34968e-09)
(0.439514 0.181567 -4.32038e-09)
(0.355427 0.194443 -4.3187e-09)
(0.28435 0.208743 -4.39487e-09)
(0.211093 0.223024 -4.43147e-09)
(0.125606 0.236457 -4.47888e-09)
(0.0517249 0.246671 -4.50873e-09)
(3 1.16786e-07 -4.00117e-13)
(2.99998 6.34757e-07 -2.11425e-12)
(2.99996 2.3677e-06 -4.70901e-12)
(2.9999 6.06377e-06 -9.9916e-12)
(2.99977 1.68274e-05 -1.8821e-11)
(2.9994 3.843e-05 -3.54866e-11)
(2.99869 0.000102253 -7.84241e-11)
(2.99644 0.000223935 -1.39281e-10)
(2.99258 0.000625191 -4.19414e-10)
(2.97773 0.00130766 -6.68344e-10)
(2.95211 0.00403692 -2.49986e-09)
(2.85262 0.00875234 -4.26586e-09)
(2.58866 0.0306783 -1.62734e-08)
(1.93792 0.07561 -3.4271e-08)
(0.882912 0.213748 -5.00592e-08)
(0.475715 0.196171 5.57125e-09)
(0.556944 0.192812 8.60183e-11)
(0.582351 0.205038 -4.05847e-09)
(0.532859 0.218223 -4.22744e-09)
(0.448693 0.233564 -4.26263e-09)
(0.366082 0.25083 -4.1841e-09)
(0.295506 0.270065 -4.22955e-09)
(0.221523 0.289898 -4.3045e-09)
(0.133473 0.30869 -4.36546e-09)
(0.0549722 0.322049 -4.43575e-09)
(3 1.21146e-07 -3.97036e-13)
(2.99998 6.64259e-07 -2.09995e-12)
(2.99996 2.46201e-06 -4.67745e-12)
(2.9999 6.27679e-06 -9.9153e-12)
(2.99978 1.73641e-05 -1.87435e-11)
(2.99944 3.91236e-05 -3.54163e-11)
(2.99878 0.00010686 -7.85429e-11)
(2.99668 0.000215204 -1.42121e-10)
(2.99306 0.000707226 -4.20647e-10)
(2.97927 0.00121817 -6.9097e-10)
(2.95552 0.00498535 -2.55804e-09)
(2.86429 0.00964334 -4.36753e-09)
(2.62397 0.0383246 -1.66492e-08)
(2.02195 0.0917298 -3.53648e-08)
(0.938873 0.264554 -5.53676e-08)
(0.474327 0.243642 6.7844e-09)
(0.565631 0.23672 7.62965e-10)
(0.596477 0.250103 -4.07863e-09)
(0.547265 0.26561 -4.30429e-09)
(0.464618 0.285231 -4.33718e-09)
(0.383152 0.307505 -4.06748e-09)
(0.312799 0.332627 -4.04282e-09)
(0.237749 0.359326 -4.13288e-09)
(0.146125 0.385494 -4.17835e-09)
(0.0607569 0.404301 -4.28456e-09)
(3 1.38901e-07 -3.78555e-13)
(2.99999 7.60135e-07 -2.03506e-12)
(2.99997 2.82021e-06 -4.44453e-12)
(2.99991 7.20515e-06 -9.19942e-12)
(2.9998 1.99064e-05 -1.72077e-11)
(2.99948 4.50811e-05 -3.12639e-11)
(2.99884 0.000121718 -6.97036e-11)
(2.99694 0.000250541 -1.04725e-10)
(2.99342 0.000800318 -4.30082e-10)
(2.98123 0.00133712 -3.28012e-10)
(2.95931 0.00573942 -3.10611e-09)
(2.87814 0.0106565 -3.45016e-09)
(2.66672 0.042641 -1.72862e-08)
(2.1249 0.102569 -3.50971e-08)
(1.01671 0.306055 -6.05639e-08)
(0.488731 0.292319 5.82405e-09)
(0.584669 0.28483 1.19515e-09)
(0.619933 0.297325 -4.04145e-09)
(0.570814 0.313622 -4.41367e-09)
(0.489795 0.337041 -4.53683e-09)
(0.409234 0.364734 -4.0287e-09)
(0.33892 0.396854 -3.93494e-09)
(0.262597 0.43249 -4.02497e-09)
(0.166424 0.469458 -4.06949e-09)
(0.0711261 0.49859 -4.12152e-09)
(3 1.62487e-07 -3.87872e-13)
(2.99999 8.83648e-07 -2.067e-12)
(2.99997 3.29041e-06 -4.5837e-12)
(2.99992 8.43832e-06 -9.53983e-12)
(2.99982 2.33166e-05 -1.82363e-11)
(2.99952 5.33754e-05 -3.40332e-11)
(2.99895 0.00014039 -7.37564e-11)
(2.99724 0.000310378 -1.39474e-10)
(2.99397 0.000854056 -3.74142e-10)
(2.98332 0.00171277 -6.74219e-10)
(2.96347 0.00570933 -2.41995e-09)
(2.89286 0.0112069 -3.69041e-09)
(2.7115 0.0414771 -1.53499e-08)
(2.23954 0.101151 -3.30636e-08)
(1.11837 0.309299 -6.42964e-08)
(0.531123 0.334809 1.53109e-09)
(0.61856 0.337703 -4.42356e-10)
(0.653517 0.346858 -4.32284e-09)
(0.604901 0.362697 -4.67254e-09)
(0.526392 0.389938 -4.75631e-09)
(0.446566 0.423603 -4.13161e-09)
(0.376301 0.463783 -3.96887e-09)
(0.299455 0.510496 -4.00163e-09)
(0.199182 0.563457 -3.99143e-09)
(0.0896987 0.613619 -3.98338e-09)
(3 1.73834e-07 -3.78261e-13)
(2.99999 9.58223e-07 -2.02502e-12)
(2.99997 3.54751e-06 -4.43655e-12)
(2.99993 9.09475e-06 -9.21759e-12)
(2.99984 2.50233e-05 -1.71822e-11)
(2.99957 5.72392e-05 -3.1817e-11)
(2.99906 0.000149318 -6.63467e-11)
(2.99753 0.000332808 -1.25041e-10)
(2.99459 0.000867296 -3.13743e-10)
(2.98523 0.00193409 -6.07501e-10)
(2.96738 0.00523783 -1.67008e-09)
(2.90613 0.0117188 -3.6128e-09)
(2.75069 0.0359833 -9.49268e-09)
(2.33845 0.0890099 -2.16355e-08)
(1.23108 0.268468 -3.67946e-08)
(0.587776 0.37066 -1.27341e-08)
(0.649524 0.397714 -4.89627e-09)
(0.68254 0.396572 -5.50278e-09)
(0.641821 0.412517 -5.44513e-09)
(0.570874 0.442805 -5.14034e-09)
(0.494634 0.483712 -4.61326e-09)
(0.42642 0.532721 -4.37996e-09)
(0.352391 0.592603 -4.33304e-09)
(0.25373 0.670204 -4.24415e-09)
(0.125404 0.764183 -4.11594e-09)
(3 2.92652e-07 -3.92268e-13)
(2.99999 6.00943e-07 -2.07829e-12)
(2.99998 4.36443e-06 -4.64346e-12)
(2.99994 6.61892e-06 -9.60912e-12)
(2.99986 3.01839e-05 -1.86496e-11)
(2.99963 4.2559e-05 -3.46656e-11)
(2.99918 0.000181145 -7.62553e-11)
(2.99784 0.000239699 -1.52178e-10)
(2.99531 0.00109863 -2.98346e-10)
(2.98693 0.0011599 -1.19361e-09)
(2.97175 0.00724248 -7.57331e-10)
(2.91715 0.00544202 -5.09188e-09)
(2.78144 0.0463202 -6.71097e-09)
(2.41384 0.0643371 -2.04656e-08)
(1.36206 0.250671 -3.582e-08)
(0.661464 0.424525 -3.06861e-08)
(0.664851 0.4521 -7.49304e-09)
(0.691051 0.445242 -5.31277e-09)
(0.672193 0.462692 -5.34544e-09)
(0.61637 0.494109 -5.44445e-09)
(0.549963 0.542147 -5.25897e-09)
(0.488594 0.600075 -5.11119e-09)
(0.426869 0.67832 -4.87341e-09)
(0.34669 0.797908 -4.66444e-09)
(0.194345 1.00635 -4.8148e-09)
(2.99999 1.67176e-08 -4.06263e-14)
(2.99998 9.02495e-08 -1.79144e-13)
(2.99996 3.37967e-07 -5.99558e-13)
(2.99988 8.67812e-07 -1.30666e-12)
(2.99974 2.40648e-06 -3.72688e-12)
(2.99931 5.58063e-06 -7.79846e-12)
(2.99849 1.41928e-05 -2.10149e-11)
(2.99593 3.42367e-05 -4.86699e-11)
(2.99144 7.60875e-05 -1.04418e-10)
(2.9746 0.00019943 -2.94175e-10)
(2.94453 0.000414823 -5.3064e-10)
(2.83194 0.00106108 -1.51927e-09)
(2.52268 0.00297253 -3.67637e-09)
(1.78258 0.00754005 -9.2429e-09)
(0.791481 0.0213068 -1.2453e-08)
(0.498302 0.0214935 5.92278e-10)
(0.555984 0.0227005 -4.24054e-10)
(0.570459 0.024919 -1.38284e-09)
(0.521053 0.0270775 -1.44582e-09)
(0.43408 0.0291566 -1.44734e-09)
(0.347856 0.0317065 -1.35431e-09)
(0.27702 0.034901 -1.30451e-09)
(0.206356 0.0384004 -1.24646e-09)
(0.125048 0.0426339 -1.22535e-09)
(0.055987 0.0491411 -1.17577e-09)
(2.99999 4.76379e-08 -3.62521e-14)
(2.99998 2.5838e-07 -1.61324e-13)
(2.99996 9.63552e-07 -5.35302e-13)
(2.99988 2.47129e-06 -1.15697e-12)
(2.99974 6.82242e-06 -3.31674e-12)
(2.99932 1.5707e-05 -6.85433e-12)
(2.99852 4.03703e-05 -1.9277e-11)
(2.99598 9.3501e-05 -4.19972e-11)
(2.99158 0.000226288 -1.05808e-10)
(2.97487 0.000533321 -2.60745e-10)
(2.94527 0.00133859 -5.73463e-10)
(2.83389 0.00318309 -1.47881e-09)
(2.52845 0.00915032 -3.77708e-09)
(1.79605 0.0235717 -9.35415e-09)
(0.799393 0.0650527 -1.26894e-08)
(0.495576 0.0625153 6.69351e-10)
(0.555126 0.0635453 -3.7831e-10)
(0.570242 0.0678778 -1.35406e-09)
(0.520343 0.0718755 -1.41632e-09)
(0.433161 0.0755924 -1.41959e-09)
(0.34693 0.0801096 -1.33701e-09)
(0.275499 0.0854742 -1.29795e-09)
(0.203649 0.0906704 -1.24604e-09)
(0.120906 0.0960101 -1.23013e-09)
(0.0515873 0.102061 -1.18506e-09)
(2.99999 7.65286e-08 -3.63083e-14)
(2.99998 4.15529e-07 -1.61146e-13)
(2.99996 1.54924e-06 -5.37094e-13)
(2.99989 3.9716e-06 -1.16179e-12)
(2.99975 1.09726e-05 -3.33377e-12)
(2.99934 2.52061e-05 -6.87812e-12)
(2.99856 6.53264e-05 -1.92101e-11)
(2.99609 0.000148734 -4.05593e-11)
(2.99181 0.000375992 -1.0858e-10)
(2.97551 0.00084223 -2.269e-10)
(2.9468 0.00232343 -6.67943e-10)
(2.83792 0.00538392 -1.46145e-09)
(2.54138 0.0154215 -3.53626e-09)
(1.82635 0.0406136 -9.73163e-09)
(0.817435 0.112513 -1.29845e-08)
(0.491083 0.106116 7.87527e-10)
(0.554852 0.106869 -3.85101e-10)
(0.571796 0.114232 -1.35209e-09)
(0.52159 0.121401 -1.39925e-09)
(0.434795 0.12874 -1.395e-09)
(0.349344 0.137276 -1.32324e-09)
(0.277881 0.146846 -1.2964e-09)
(0.205257 0.156177 -1.24591e-09)
(0.121384 0.165159 -1.24385e-09)
(0.0505174 0.173063 -1.20663e-09)
(3 1.00828e-07 -3.54829e-14)
(2.99998 5.47342e-07 -1.57296e-13)
(2.99996 2.04253e-06 -5.25719e-13)
(2.99989 5.23418e-06 -1.13689e-12)
(2.99976 1.45019e-05 -3.27925e-12)
(2.99937 3.32711e-05 -6.77057e-12)
(2.99862 8.70885e-05 -1.90171e-11)
(2.99624 0.000196241 -4.026e-11)
(2.99216 0.000512319 -1.08458e-10)
(2.97647 0.00112534 -2.26411e-10)
(2.94915 0.00322255 -6.78959e-10)
(2.84394 0.00733908 -1.46188e-09)
(2.56118 0.0224123 -3.65264e-09)
(1.87306 0.0579808 -9.94514e-09)
(0.843768 0.161918 -1.3628e-08)
(0.482949 0.150475 9.66095e-10)
(0.554445 0.149902 -3.24066e-10)
(0.575038 0.159975 -1.3382e-09)
(0.525136 0.170284 -1.38512e-09)
(0.439514 0.181567 -1.38902e-09)
(0.355427 0.194443 -1.3145e-09)
(0.28435 0.208743 -1.28966e-09)
(0.211093 0.223024 -1.24629e-09)
(0.125606 0.236457 -1.25359e-09)
(0.0517248 0.246671 -1.22773e-09)
(3 1.16786e-07 -3.09222e-14)
(2.99998 6.34757e-07 -1.38165e-13)
(2.99996 2.3677e-06 -4.57095e-13)
(2.9999 6.06377e-06 -9.87173e-13)
(2.99977 1.68274e-05 -2.82779e-12)
(2.9994 3.843e-05 -5.71377e-12)
(2.99869 0.000102253 -1.68753e-11)
(2.99644 0.000223935 -3.11289e-11)
(2.99258 0.000625191 -1.08934e-10)
(2.97773 0.00130766 -1.74278e-10)
(2.95211 0.00403692 -7.0015e-10)
(2.85262 0.00875234 -1.20047e-09)
(2.58866 0.0306783 -4.72306e-09)
(1.93792 0.07561 -1.00499e-08)
(0.882912 0.213748 -1.49698e-08)
(0.475715 0.196171 1.30865e-09)
(0.556944 0.192812 -1.00779e-10)
(0.582351 0.205038 -1.29909e-09)
(0.532859 0.218223 -1.37351e-09)
(0.448693 0.233564 -1.40356e-09)
(0.366082 0.25083 -1.30712e-09)
(0.295506 0.270065 -1.2753e-09)
(0.221523 0.289898 -1.24231e-09)
(0.133473 0.30869 -1.25319e-09)
(0.0549722 0.322049 -1.23912e-09)
(3 1.21146e-07 -3.04859e-14)
(2.99998 6.64259e-07 -1.35798e-13)
(2.99996 2.46201e-06 -4.52387e-13)
(2.9999 6.27679e-06 -9.77104e-13)
(2.99978 1.73641e-05 -2.82826e-12)
(2.99944 3.91236e-05 -5.74029e-12)