/*--------------------------------*- C++ -*----------------------------------*\
| =========                 |                                                 |
| \\      /  F ield         | OpenFOAM: The Open Source CFD Toolbox           |
|  \\    /   O peration     | Version:  4.1                                   |
|   \\  /    A nd           | Web:      www.OpenFOAM.org                      |
|    \\/     M anipulation  |                                                 |
\*---------------------------------------------------------------------------*/
FoamFile
{
    version     2.0;
    format      ascii;
    class       volVectorField;
    location    "2.6";
    object      U;
}
// * * * * * * * * * * * * * * * * * * * * * * * * * * * * * * * * * * * * * //

dimensions      [0 1 -1 0 0 0 0];

internalField   nonuniform List<vector> 
52500
(
(3 1.30956e-08 -0.00571425)
(2.99998 7.25269e-08 -0.00571438)
(2.99996 2.7077e-07 -0.00571458)
(2.9999 6.92564e-07 -0.0057152)
(2.99977 1.92072e-06 -0.00571633)
(2.9994 4.37166e-06 -0.00571975)
(2.99868 1.16778e-05 -0.00572648)
(2.99639 2.51697e-05 -0.00574437)
(2.99248 7.22012e-05 -0.00578967)
(2.97742 0.000147368 -0.00587685)
(2.95141 0.000465724 -0.00622547)
(2.85041 0.00098802 -0.00669387)
(2.58244 0.00364119 -0.00911385)
(1.9253 0.00867653 -0.0136331)
(0.866744 0.0248899 -0.0174866)
(0.454931 0.0235654 -0.0184945)
(0.541788 0.0241215 -0.0185058)
(0.567318 0.0262366 -0.018545)
(0.514508 0.0283595 -0.0187363)
(0.423813 0.0305066 -0.0189322)
(0.336413 0.0330578 -0.0191341)
(0.265433 0.0360602 -0.0193367)
(0.193582 0.0388883 -0.0195256)
(0.113217 0.0412224 -0.0196422)
(0.0488045 0.0435594 -0.0197936)
(3 3.91043e-08 -0.00571425)
(2.99998 2.1613e-07 -0.00571438)
(2.99996 8.08025e-07 -0.00571458)
(2.9999 2.06401e-06 -0.00571518)
(2.99977 5.73632e-06 -0.0057163)
(2.9994 1.30432e-05 -0.00571967)
(2.9987 3.50028e-05 -0.0057263)
(2.99644 7.5168e-05 -0.00574397)
(2.99258 0.000218255 -0.00578851)
(2.97774 0.000443112 -0.00587465)
(2.95213 0.00142234 -0.0062173)
(2.85282 0.00301557 -0.00667984)
(2.5896 0.0112765 -0.00905225)
(1.94146 0.0269811 -0.0135156)
(0.876108 0.0760804 -0.0173607)
(0.451471 0.0683877 -0.0184143)
(0.541299 0.0668875 -0.0184256)
(0.567837 0.0705778 -0.0184557)
(0.514622 0.0741763 -0.0186392)
(0.423888 0.0777787 -0.0188277)
(0.33666 0.0818257 -0.0190212)
(0.265508 0.0862493 -0.0192145)
(0.193244 0.0898353 -0.0193931)
(0.11223 0.0919438 -0.0195017)
(0.0471203 0.0922205 -0.0196487)
(3 6.41032e-08 -0.00571425)
(2.99999 3.53752e-07 -0.00571438)
(2.99996 1.32582e-06 -0.00571457)
(2.9999 3.38782e-06 -0.00571516)
(2.99978 9.45097e-06 -0.00571624)
(2.99942 2.15257e-05 -0.00571952)
(2.99873 5.80218e-05 -0.00572596)
(2.99655 0.000125013 -0.00574321)
(2.99279 0.000364512 -0.00578617)
(2.9784 0.000740358 -0.00587037)
(2.95361 0.00240466 -0.00620066)
(2.85792 0.00507163 -0.00665207)
(2.60498 0.0190885 -0.00892546)
(1.97744 0.0458989 -0.0132804)
(0.898681 0.130847 -0.0171698)
(0.448196 0.116139 -0.0183182)
(0.543903 0.112367 -0.0183303)
(0.572892 0.118704 -0.0183489)
(0.519443 0.125323 -0.0185261)
(0.429065 0.132566 -0.018703)
(0.342229 0.14014 -0.0188889)
(0.270821 0.147947 -0.0190781)
(0.197725 0.154591 -0.0192479)
(0.115222 0.158747 -0.0193531)
(0.0478678 0.15899 -0.0194944)
(3 7.9378e-08 -0.00571425)
(2.99999 4.38226e-07 -0.00571437)
(2.99996 1.63585e-06 -0.00571455)
(2.99991 4.15626e-06 -0.00571512)
(2.99979 1.15497e-05 -0.00571616)
(2.99944 2.59646e-05 -0.00571931)
(2.99878 7.15471e-05 -0.00572545)
(2.9967 0.000142118 -0.00574205)
(2.9931 0.000482602 -0.00578273)
(2.97941 0.000804666 -0.00586399)
(2.95583 0.00347743 -0.00617556)
(2.86556 0.00661952 -0.00661121)
(2.6281 0.0266672 -0.00873725)
(2.03244 0.0636601 -0.0129298)
(0.933907 0.18417 -0.0169169)
(0.445304 0.164177 -0.0182069)
(0.54973 0.157643 -0.0182163)
(0.582871 0.166369 -0.0182196)
(0.529612 0.17608 -0.0183895)
(0.440021 0.187395 -0.0185646)
(0.353599 0.19881 -0.0187352)
(0.281821 0.210467 -0.018909)
(0.20736 0.220941 -0.0190769)
(0.121979 0.228178 -0.0191735)
(0.0504391 0.229291 -0.0193266)
(3 9.88736e-08 -0.00571425)
(2.99999 5.46524e-07 -0.00571437)
(2.99997 2.03566e-06 -0.00571454)
(2.99991 5.1857e-06 -0.00571508)
(2.9998 1.43517e-05 -0.00571607)
(2.99947 3.23744e-05 -0.00571911)
(2.99883 8.83035e-05 -0.00572487)
(2.99689 0.000177113 -0.00574154)
(2.99334 0.000597187 -0.00577797)
(2.98085 0.000929425 -0.00586086)
(2.95858 0.00438647 -0.00613304)
(2.87567 0.00798168 -0.00656125)
(2.65939 0.0325611 -0.00846773)
(2.10722 0.0778975 -0.0124415)
(0.987402 0.230942 -0.0165928)
(0.451422 0.212745 -0.0180675)
(0.562789 0.204213 -0.0180786)
(0.600326 0.214049 -0.0180573)
(0.547132 0.226057 -0.0182194)
(0.458255 0.241451 -0.018374)
(0.371636 0.256984 -0.0185545)
(0.298998 0.273092 -0.0187141)
(0.222594 0.288415 -0.0188778)
(0.132972 0.300062 -0.0189808)
(0.055273 0.303224 -0.0191143)
(3 1.25293e-07 -0.00571425)
(2.99999 6.92567e-07 -0.00571436)
(2.99997 2.58485e-06 -0.00571452)
(2.99992 6.62899e-06 -0.00571502)
(2.99981 1.83549e-05 -0.00571595)
(2.99951 4.19796e-05 -0.00571878)
(2.9989 0.000111259 -0.00572413)
(2.99712 0.000242766 -0.00573983)
(2.99373 0.000693903 -0.00577271)
(2.98252 0.00131989 -0.00585351)
(2.96185 0.00477103 -0.00608831)
(2.88732 0.00914134 -0.00650035)
(2.69497 0.035077 -0.00817081)
(2.19636 0.0852164 -0.0118553)
(1.05997 0.261127 -0.0162014)
(0.474354 0.260646 -0.0178916)
(0.585338 0.255175 -0.0178995)
(0.626005 0.264572 -0.0178752)
(0.573313 0.277405 -0.0180453)
(0.485451 0.296276 -0.0181845)
(0.39827 0.31639 -0.018334)
(0.324186 0.337832 -0.0184891)
(0.245103 0.359453 -0.0186247)
(0.149612 0.377985 -0.0187164)
(0.0628607 0.385967 -0.0188813)
(3 1.38778e-07 -0.00571425)
(2.99999 7.66957e-07 -0.00571435)
(2.99997 2.85744e-06 -0.0057145)
(2.99992 7.32865e-06 -0.00571496)
(2.99983 2.02123e-05 -0.0057158)
(2.99955 4.62326e-05 -0.00571839)
(2.99899 0.000120974 -0.00572329)
(2.99737 0.000268493 -0.00573764)
(2.99424 0.0007164 -0.00576742)
(2.98421 0.00152396 -0.00584249)
(2.96524 0.004572 -0.00604777)
(2.8993 0.0094468 -0.00643792)
(2.73107 0.0323837 -0.007875)
(2.29104 0.0790931 -0.0112513)
(1.15499 0.241779 -0.0157525)
(0.527244 0.295603 -0.0176358)
(0.621197 0.307716 -0.0176227)
(0.659632 0.316317 -0.0176158)
(0.60815 0.329693 -0.0177902)
(0.522511 0.352352 -0.0179552)
(0.43482 0.378061 -0.0180793)
(0.358965 0.40616 -0.0182261)
(0.276966 0.436146 -0.0183659)
(0.174735 0.465097 -0.0184428)
(0.0757128 0.483278 -0.0185508)
(3 1.4797e-07 -0.00571425)
(2.99999 8.16812e-07 -0.00571434)
(2.99997 3.03715e-06 -0.00571447)
(2.99993 7.78182e-06 -0.00571489)
(2.99984 2.1403e-05 -0.00571566)
(2.99959 4.88892e-05 -0.005718)
(2.99909 0.000127234 -0.00572244)
(2.99762 0.000283243 -0.00573549)
(2.99478 0.00073468 -0.00576242)
(2.9857 0.00163838 -0.00583096)
(2.96857 0.00429171 -0.00601594)
(2.90917 0.0100814 -0.00637044)
(2.75894 0.0287135 -0.00766967)
(2.35826 0.0712055 -0.0107075)
(1.24794 0.206415 -0.0156353)
(0.571578 0.33517 -0.0174877)
(0.6385 0.369367 -0.0174442)
(0.676952 0.36862 -0.0174252)
(0.636938 0.381475 -0.0175707)
(0.56109 0.408177 -0.0176806)
(0.477367 0.441177 -0.0178104)
(0.402529 0.477897 -0.0178967)
(0.320024 0.519062 -0.017995)
(0.212372 0.564354 -0.0180394)
(0.0971213 0.604389 -0.0181498)
(3 1.7664e-07 -0.00571425)
(2.99999 9.67436e-07 -0.00571432)
(2.99998 3.60292e-06 -0.00571444)
(2.99994 9.27205e-06 -0.00571482)
(2.99986 2.55676e-05 -0.0057155)
(2.99964 5.91101e-05 -0.00571758)
(2.99919 0.00015131 -0.00572151)
(2.99788 0.000357496 -0.00573312)
(2.99537 0.000820983 -0.00575718)
(2.98715 0.00211738 -0.00581664)
(2.97238 0.00444325 -0.00598782)
(2.91865 0.0114898 -0.00628268)
(2.78564 0.0278971 -0.00751118)
(2.4241 0.0721454 -0.0099896)
(1.37068 0.202099 -0.0153215)
(0.651792 0.38703 -0.0172811)
(0.648406 0.420169 -0.0172243)
(0.676384 0.416189 -0.0172813)
(0.658132 0.431919 -0.0173518)
(0.598351 0.461353 -0.017439)
(0.523965 0.503278 -0.01751)
(0.454252 0.550816 -0.0175753)
(0.376796 0.606465 -0.0176288)
(0.271458 0.67783 -0.0175889)
(0.136529 0.764731 -0.0174821)
(3 2.66316e-07 -0.00571424)
(2.99999 4.63558e-07 -0.00571431)
(2.99998 3.86915e-06 -0.00571441)
(2.99995 5.6789e-06 -0.00571472)
(2.99988 2.61533e-05 -0.00571529)
(2.99969 3.65761e-05 -0.00571696)
(2.99934 0.000156192 -0.00572039)
(2.99817 0.000202639 -0.00572883)
(2.99625 0.000951373 -0.00575231)
(2.9887 0.000916089 -0.00579332)
(2.97648 0.00638374 -0.00596734)
(2.92788 0.00378075 -0.00619025)
(2.81248 0.0409504 -0.00737411)
(2.49039 0.0522142 -0.00937235)
(1.51691 0.220111 -0.0146452)
(0.753536 0.440735 -0.0169029)
(0.657959 0.454497 -0.0171273)
(0.68297 0.454981 -0.0171518)
(0.679225 0.476666 -0.017157)
(0.635654 0.510062 -0.0172031)
(0.575641 0.560255 -0.0171859)
(0.515779 0.619677 -0.0171587)
(0.453433 0.696919 -0.0170976)
(0.369404 0.814049 -0.0169117)
(0.210636 1.02165 -0.016486)
(3 1.33726e-08 -2.51707e-09)
(2.99998 7.27733e-08 -8.66242e-09)
(2.99996 2.70866e-07 -1.00195e-08)
(2.9999 6.93892e-07 -1.6109e-08)
(2.99977 1.9207e-06 -1.58484e-08)
(2.99939 4.3739e-06 -2.16153e-08)
(2.99868 1.16808e-05 -2.14265e-08)
(2.99639 2.51799e-05 -2.92602e-08)
(2.99248 7.22142e-05 -2.91461e-08)
(2.97741 0.000147411 -5.32064e-08)
(2.9514 0.000465795 -5.75443e-08)
(2.8504 0.000988204 -1.3172e-07)
(2.58241 0.00364143 -1.08156e-07)
(1.92523 0.00867734 -4.34007e-07)
(0.866729 0.0248908 -4.41091e-07)
(0.454956 0.0235661 3.21376e-08)
(0.541798 0.024122 -3.0567e-08)
(0.567322 0.0262371 -7.0843e-08)
(0.514511 0.02836 -7.44262e-08)
(0.423815 0.0305071 -7.60104e-08)
(0.336415 0.0330579 -7.67461e-08)
(0.265437 0.0360598 -7.8653e-08)
(0.193588 0.0388881 -7.76446e-08)
(0.113222 0.0412237 -8.15788e-08)
(0.0488059 0.0435614 -8.64027e-08)
(3 3.98507e-08 -2.51154e-09)
(2.99998 2.16965e-07 -8.66232e-09)
(2.99996 8.07952e-07 -1.00229e-08)
(2.9999 2.06847e-06 -1.60855e-08)
(2.99977 5.73501e-06 -1.58711e-08)
(2.9994 1.30493e-05 -2.1578e-08)
(2.99869 3.50091e-05 -2.1412e-08)
(2.99644 7.51973e-05 -2.91372e-08)
(2.99258 0.000218283 -2.91074e-08)
(2.97773 0.000443256 -5.2705e-08)
(2.95212 0.00142259 -5.70678e-08)
(2.85281 0.00301618 -1.29785e-07)
(2.58957 0.0112773 -1.06599e-07)
(1.9414 0.0269838 -4.25383e-07)
(0.876092 0.0760835 -4.39068e-07)
(0.451494 0.0683898 3.20501e-08)
(0.541307 0.0668891 -3.05453e-08)
(0.567839 0.070579 -7.10921e-08)
(0.514624 0.0741771 -7.44327e-08)
(0.423889 0.0777792 -7.55935e-08)
(0.33666 0.0818258 -7.6104e-08)
(0.26551 0.0862489 -7.80291e-08)
(0.193248 0.0898351 -7.71232e-08)
(0.112233 0.0919453 -8.13217e-08)
(0.0471212 0.0922237 -8.61502e-08)
(3 6.53109e-08 -2.50218e-09)
(2.99998 3.55129e-07 -8.65889e-09)
(2.99996 1.32554e-06 -1.00382e-08)
(2.9999 3.3939e-06 -1.6024e-08)
(2.99978 9.44493e-06 -1.59484e-08)
(2.99942 2.15217e-05 -2.14974e-08)
(2.99873 5.7997e-05 -2.1423e-08)
(2.99654 0.00012487 -2.8836e-08)
(2.99279 0.000364545 -2.92018e-08)
(2.9784 0.000738951 -5.10485e-08)
(2.9536 0.00240708 -5.53449e-08)
(2.85791 0.00506995 -1.2502e-07)
(2.60496 0.0190944 -1.01616e-07)
(1.97738 0.0459062 -4.06224e-07)
(0.898662 0.130854 -4.37264e-07)
(0.448214 0.116141 2.99553e-08)
(0.543908 0.112368 -3.01006e-08)
(0.572891 0.118705 -7.11422e-08)
(0.519442 0.125325 -7.45728e-08)
(0.429063 0.132568 -7.52858e-08)
(0.342227 0.140141 -7.53765e-08)
(0.270821 0.147947 -7.78823e-08)
(0.197728 0.15459 -7.74916e-08)
(0.115224 0.158749 -8.17478e-08)
(0.0478683 0.158994 -8.63636e-08)
(3 8.02945e-08 -2.48781e-09)
(2.99998 4.40745e-07 -8.65737e-09)
(2.99996 1.63407e-06 -1.00633e-08)
(2.9999 4.16257e-06 -1.59836e-08)
(2.99979 1.15415e-05 -1.61454e-08)
(2.99944 2.59606e-05 -2.17345e-08)
(2.99878 7.15244e-05 -2.21466e-08)
(2.9967 0.000142003 -3.26239e-08)
(2.99309 0.000482647 -2.70434e-08)
(2.97941 0.000803371 -8.53019e-08)
(2.95582 0.00347971 8.12428e-09)
(2.86556 0.00661837 -2.02051e-07)
(2.62809 0.0266739 7.06653e-09)
(2.03239 0.0636715 -3.85401e-07)
(0.933887 0.184189 -4.39618e-07)
(0.44531 0.164185 1.03803e-08)
(0.549728 0.157644 -3.70156e-08)
(0.582867 0.166369 -6.96446e-08)
(0.52961 0.176081 -7.24913e-08)
(0.440019 0.187396 -7.31717e-08)
(0.353597 0.19881 -7.43693e-08)
(0.281823 0.210465 -7.82719e-08)
(0.207364 0.22094 -7.82855e-08)
(0.121981 0.22818 -8.27211e-08)
(0.0504397 0.229296 -8.76972e-08)
(3 1.00189e-07 -2.48394e-09)
(2.99999 5.49761e-07 -8.62456e-09)
(2.99997 2.03716e-06 -1.01167e-08)
(2.99991 5.19631e-06 -1.58772e-08)
(2.99979 1.43664e-05 -1.61978e-08)
(2.99947 3.24221e-05 -2.14488e-08)
(2.99883 8.8405e-05 -2.17406e-08)
(2.99689 0.000177477 -3.06139e-08)
(2.99334 0.00059749 -2.62234e-08)
(2.98085 0.000931498 -7.6133e-08)
(2.95857 0.00438646 6.82269e-09)
(2.87567 0.00798592 -1.77857e-07)
(2.65938 0.0325615 1.48403e-08)
(2.10719 0.0779057 -3.27664e-07)
(0.987409 0.230962 -3.74592e-07)
(0.451454 0.212753 -1.69043e-08)
(0.562806 0.204214 -5.99827e-08)
(0.600338 0.21405 -7.38207e-08)
(0.547144 0.226058 -7.29241e-08)
(0.458264 0.241452 -7.04993e-08)
(0.371643 0.256984 -7.41473e-08)
(0.299005 0.27309 -8.04991e-08)
(0.222601 0.288413 -8.14927e-08)
(0.132976 0.300065 -8.61338e-08)
(0.0552743 0.303231 -9.06678e-08)
(3 1.27745e-07 -2.46107e-09)
(2.99999 6.95008e-07 -8.61455e-09)
(2.99997 2.5898e-06 -1.00847e-08)
(2.99991 6.63884e-06 -1.57963e-08)
(2.99981 1.83786e-05 -1.59788e-08)
(2.9995 4.20335e-05 -2.09394e-08)
(2.9989 0.000111379 -2.07049e-08)
(2.99712 0.000243133 -2.63284e-08)
(2.99372 0.000694248 -2.66606e-08)
(2.98252 0.00132231 -4.66031e-08)
(2.96185 0.00477097 -2.40057e-08)
(2.88731 0.00914616 -1.23819e-07)
(2.69496 0.0350765 -3.39553e-08)
(2.19633 0.0852229 -2.84752e-07)
(1.05997 0.261148 -3.46371e-07)
(0.474373 0.260652 -4.36422e-08)
(0.585355 0.255176 -6.86675e-08)
(0.626023 0.264574 -6.94932e-08)
(0.573331 0.277408 -6.78782e-08)
(0.485469 0.296279 -6.63277e-08)
(0.398284 0.316391 -7.32621e-08)
(0.324198 0.337831 -8.12972e-08)
(0.245114 0.359454 -8.30095e-08)
(0.149618 0.37799 -8.82877e-08)
(0.0628624 0.385977 -9.40478e-08)
(3 1.41286e-07 -2.4348e-09)
(2.99999 7.68519e-07 -8.61846e-09)
(2.99997 2.85997e-06 -1.00711e-08)
(2.99992 7.33199e-06 -1.57794e-08)
(2.99982 2.02188e-05 -1.5922e-08)
(2.99955 4.62446e-05 -2.08432e-08)
(2.99899 0.000121002 -2.0428e-08)
(2.99737 0.000268555 -2.57853e-08)
(2.99424 0.000716495 -2.62411e-08)
(2.98421 0.0015246 -3.69038e-08)
(2.96523 0.00457211 -3.32088e-08)
(2.8993 0.00944869 -9.70026e-08)
(2.73106 0.0323845 -4.277e-08)
(2.29102 0.0790987 -2.30041e-07)
(1.15499 0.241797 -2.29917e-07)
(0.527251 0.295603 -1.12364e-07)
(0.621213 0.307714 -8.02439e-08)
(0.659652 0.316319 -5.99223e-08)
(0.60817 0.329696 -6.01026e-08)
(0.52253 0.352355 -6.12881e-08)
(0.434837 0.378063 -7.00777e-08)
(0.358979 0.406161 -7.98018e-08)
(0.276978 0.436149 -8.3636e-08)
(0.174743 0.465104 -8.82739e-08)
(0.0757147 0.483291 -9.52165e-08)
(3 1.50175e-07 -2.41095e-09)
(2.99999 8.18145e-07 -8.62589e-09)
(2.99997 3.03823e-06 -1.00717e-08)
(2.99993 7.78282e-06 -1.57804e-08)
(2.99984 2.14027e-05 -1.59156e-08)
(2.99959 4.88862e-05 -2.0827e-08)
(2.99909 0.000127222 -2.03766e-08)
(2.99762 0.000283209 -2.56384e-08)
(2.99477 0.000734627 -2.59566e-08)
(2.9857 0.00163807 -3.59833e-08)
(2.96856 0.0042918 -3.21856e-08)
(2.90917 0.0100807 -9.31436e-08)
(2.75893 0.0287144 -3.82895e-08)
(2.35824 0.0712071 -2.08712e-07)
(1.24792 0.206422 -2.25861e-07)
(0.571573 0.335166 -1.7085e-07)
(0.638514 0.369366 -8.63619e-08)
(0.676971 0.368622 -4.87183e-08)
(0.636957 0.381478 -5.11967e-08)
(0.561109 0.40818 -5.61466e-08)
(0.477382 0.441181 -6.52589e-08)
(0.402542 0.477901 -7.60158e-08)
(0.320036 0.519068 -8.01204e-08)
(0.21238 0.564365 -8.54147e-08)
(0.0971231 0.604405 -9.18982e-08)
(3 1.76739e-07 -2.39072e-09)
(2.99999 9.65885e-07 -8.62807e-09)
(2.99998 3.59813e-06 -1.00812e-08)
(2.99994 9.24226e-06 -1.57843e-08)
(2.99986 2.555e-05 -1.59497e-08)
(2.99963 5.90477e-05 -2.09011e-08)
(2.99919 0.000151232 -2.06184e-08)
(2.99788 0.000357315 -2.62547e-08)
(2.99537 0.000820803 -2.66302e-08)
(2.98715 0.00211686 -4.20826e-08)
(2.97237 0.00444236 -2.60869e-08)
(2.91865 0.0114895 -1.12153e-07)
(2.78563 0.0278972 -1.36658e-08)
(2.42408 0.072144 -2.15999e-07)
(1.37067 0.202103 -1.96128e-07)
(0.651783 0.387027 -2.03448e-07)
(0.64842 0.420172 -5.33088e-08)
(0.6764 0.416192 -4.0677e-08)
(0.658148 0.431923 -4.80161e-08)
(0.598368 0.461357 -5.1167e-08)
(0.523979 0.503283 -5.97524e-08)
(0.454264 0.550822 -7.10216e-08)
(0.376806 0.606473 -7.37747e-08)
(0.271465 0.677844 -7.91329e-08)
(0.136531 0.76475 -8.28107e-08)
(3 2.52099e-07 -2.40897e-09)
(2.99999 5.2001e-07 -8.65564e-09)
(2.99998 3.76341e-06 -1.01364e-08)
(2.99995 5.71922e-06 -1.62717e-08)
(2.99988 2.60238e-05 -1.5746e-08)
(2.99969 3.66171e-05 -2.16278e-08)
(2.99934 0.000156065 -2.078e-08)
(2.99817 0.000202712 -2.75608e-08)
(2.99624 0.000951202 -2.6112e-08)
(2.9887 0.000916659 -4.22866e-08)
(2.97648 0.00638272 -4.0112e-08)
(2.92788 0.00378326 -8.44685e-08)
(2.81247 0.040946 -2.35705e-08)
(2.49037 0.0522197 -2.35844e-07)
(1.5169 0.220105 -1.55069e-07)
(0.753523 0.440732 -2.35046e-07)
(0.657972 0.454499 -3.93155e-08)
(0.682984 0.454984 -3.35611e-08)
(0.67924 0.47667 -4.53748e-08)
(0.635668 0.510066 -4.97927e-08)
(0.575653 0.560261 -5.82328e-08)
(0.515789 0.619684 -6.2978e-08)
(0.453442 0.696928 -6.81744e-08)
(0.369411 0.814064 -6.96328e-08)
(0.210638 1.02167 -6.92212e-08)
(3 1.33726e-08 -3.23703e-13)
(2.99998 7.27734e-08 -1.77228e-12)
(2.99996 2.70866e-07 -3.58033e-12)
(2.9999 6.93892e-07 -7.55208e-12)
(2.99977 1.9207e-06 -1.18736e-11)
(2.99939 4.3739e-06 -2.14361e-11)
(2.99868 1.16808e-05 -3.73878e-11)
(2.99639 2.51799e-05 -6.33148e-11)
(2.99248 7.22142e-05 -1.58874e-10)
(2.97741 0.000147411 -2.48814e-10)
(2.9514 0.000465795 -8.55129e-10)
(2.8504 0.000988204 -1.44658e-09)
(2.58241 0.00364143 -5.43153e-09)
(1.92523 0.00867734 -1.13261e-08)
(0.866727 0.0248907 -1.63445e-08)
(0.454957 0.023566 2.41756e-09)
(0.541799 0.024122 3.09088e-11)
(0.567322 0.0262371 -1.17679e-09)
(0.514511 0.02836 -1.13409e-09)
(0.423816 0.030507 -1.06098e-09)
(0.336415 0.0330578 -1.43007e-09)
(0.265437 0.0360598 -1.83291e-09)
(0.193588 0.0388881 -2.0607e-09)
(0.113222 0.0412237 -2.4346e-09)
(0.048806 0.0435615 -2.78151e-09)
(3 3.98508e-08 -3.23645e-13)
(2.99998 2.16965e-07 -1.77225e-12)
(2.99996 8.07952e-07 -3.58099e-12)
(2.9999 2.06847e-06 -7.55171e-12)
(2.99977 5.73501e-06 -1.18782e-11)
(2.9994 1.30493e-05 -2.14441e-11)
(2.99869 3.50091e-05 -3.74124e-11)
(2.99644 7.51973e-05 -6.34269e-11)
(2.99258 0.000218283 -1.58991e-10)
(2.97773 0.000443256 -2.49576e-10)
(2.95212 0.00142259 -8.57651e-10)
(2.85281 0.00301618 -1.45215e-09)
(2.58957 0.0112773 -5.44317e-09)
(1.94139 0.0269838 -1.13809e-08)
(0.87609 0.0760834 -1.66067e-08)
(0.451495 0.0683897 2.44455e-09)
(0.541308 0.0668891 3.94188e-11)
(0.567839 0.070579 -1.15776e-09)
(0.514624 0.0741771 -1.11111e-09)
(0.42389 0.0777791 -1.03814e-09)
(0.336661 0.0818258 -1.40258e-09)
(0.26551 0.0862489 -1.79503e-09)
(0.193249 0.0898351 -2.01521e-09)
(0.112234 0.0919455 -2.38182e-09)
(0.0471213 0.092224 -2.7092e-09)
(3 6.53111e-08 -3.23011e-13)
(2.99998 3.5513e-07 -1.77003e-12)
(2.99996 1.32554e-06 -3.5747e-12)
(2.9999 3.39391e-06 -7.533e-12)
(2.99978 9.44496e-06 -1.18428e-11)
(2.99942 2.15217e-05 -2.13773e-11)
(2.99873 5.79972e-05 -3.72585e-11)
(2.99654 0.000124871 -6.35661e-11)
(2.99279 0.000364546 -1.58197e-10)
(2.9784 0.000738959 -2.52169e-10)
(2.9536 0.00240707 -8.63608e-10)
(2.85791 0.00506996 -1.46132e-09)
(2.60496 0.0190944 -5.47234e-09)
(1.97738 0.0459062 -1.15115e-08)
(0.898661 0.130854 -1.72926e-08)
(0.448215 0.11614 2.47439e-09)
(0.543908 0.112367 6.26871e-11)
(0.572891 0.118705 -1.13881e-09)
(0.519442 0.125325 -1.0953e-09)
(0.429063 0.132568 -1.02567e-09)
(0.342227 0.140141 -1.36231e-09)
(0.270821 0.147947 -1.7252e-09)
(0.197728 0.15459 -1.92007e-09)
(0.115224 0.158749 -2.23952e-09)
(0.0478684 0.158995 -2.51558e-09)
(3 8.0295e-08 -3.18892e-13)
(2.99998 4.40747e-07 -1.75632e-12)
(2.99996 1.63408e-06 -3.50727e-12)
(2.9999 4.16259e-06 -7.37891e-12)
(2.99979 1.15415e-05 -1.12648e-11)
(2.99944 2.59608e-05 -1.99051e-11)
(2.99878 7.15248e-05 -3.40793e-11)
(2.9967 0.000142004 -4.74464e-11)
(2.99309 0.000482647 -1.64979e-10)
(2.97941 0.000803379 -1.1585e-10)
(2.95582 0.0034797 -1.09138e-09)
(2.86556 0.00661839 -1.14765e-09)
(2.62809 0.0266739 -5.85862e-09)
(2.03239 0.0636715 -1.16121e-08)
(0.933885 0.184189 -1.83624e-08)
(0.445311 0.164184 2.40978e-09)
(0.549728 0.157644 1.1965e-10)
(0.582867 0.166369 -1.11062e-09)
(0.52961 0.176081 -1.08487e-09)
(0.440019 0.187396 -1.05418e-09)
(0.353597 0.19881 -1.32942e-09)
(0.281823 0.210465 -1.62265e-09)
(0.207364 0.22094 -1.73838e-09)
(0.121981 0.22818 -1.97405e-09)
(0.0504398 0.229297 -2.1863e-09)
(3 1.00189e-07 -3.14103e-13)
(2.99999 5.49762e-07 -1.74563e-12)
(2.99997 2.03716e-06 -3.48965e-12)
(2.99991 5.19632e-06 -7.15963e-12)
(2.99979 1.43664e-05 -1.13475e-11)
(2.99947 3.24221e-05 -1.96537e-11)
(2.99883 8.8405e-05 -3.39567e-11)
(2.99689 0.000177477 -4.98885e-11)
(2.99334 0.000597491 -1.61409e-10)
(2.98085 0.000931494 -1.28494e-10)
(2.95857 0.00438647 -1.0586e-09)
(2.87567 0.00798593 -1.15982e-09)
(2.65938 0.0325616 -5.70266e-09)
(2.10719 0.0779058 -1.15015e-08)
(0.987407 0.230962 -1.95475e-08)
(0.451454 0.212753 1.89895e-09)
(0.562806 0.204214 2.06109e-10)
(0.600338 0.21405 -1.04026e-09)
(0.547144 0.226058 -1.06477e-09)
(0.458264 0.241452 -1.04675e-09)
(0.371643 0.256984 -1.21321e-09)
(0.299005 0.27309 -1.47385e-09)
(0.222601 0.288414 -1.5506e-09)
(0.132976 0.300065 -1.70624e-09)
(0.0552744 0.303232 -1.8163e-09)
(3 1.27745e-07 -3.1736e-13)
(2.99999 6.95009e-07 -1.75489e-12)
(2.99997 2.5898e-06 -3.53913e-12)
(2.99991 6.63885e-06 -7.28519e-12)
(2.99981 1.83786e-05 -1.17208e-11)
(2.9995 4.20335e-05 -2.07167e-11)
(2.9989 0.000111379 -3.53194e-11)
(2.99712 0.000243133 -6.27639e-11)
(2.99372 0.00069425 -1.44259e-10)
(2.98252 0.00132231 -2.17618e-10)
(2.96185 0.00477099 -8.66875e-10)
(2.88731 0.0091462 -1.21268e-09)
(2.69496 0.0350767 -5.13417e-09)
(2.19633 0.0852234 -1.09159e-08)
(1.05996 0.26115 -2.04754e-08)
(0.474372 0.260652 3.91168e-10)
(0.585354 0.255176 -1.38543e-10)
(0.626022 0.264574 -9.4377e-10)
(0.573331 0.277408 -1.03248e-09)
(0.485468 0.296279 -1.13867e-09)
(0.398284 0.316391 -1.19752e-09)
(0.324198 0.337831 -1.35151e-09)
(0.245114 0.359454 -1.32957e-09)
(0.149618 0.37799 -1.38678e-09)
(0.0628624 0.385977 -1.40982e-09)
(3 1.41286e-07 -3.12265e-13)
(2.99999 7.68521e-07 -1.7309e-12)
(2.99997 2.85997e-06 -3.46309e-12)
(2.99992 7.33201e-06 -7.11957e-12)
(2.99982 2.02189e-05 -1.12147e-11)
(2.99955 4.62447e-05 -1.96603e-11)
(2.99899 0.000121003 -3.19883e-11)
(2.99737 0.000268556 -5.60471e-11)
(2.99424 0.000716498 -1.172e-10)
(2.98421 0.00152461 -2.00683e-10)
(2.96523 0.00457213 -6.50511e-10)
(2.8993 0.00944873 -8.41233e-10)
(2.73106 0.0323847 -3.78923e-09)
(2.29101 0.0790992 -7.80785e-09)
(1.15498 0.241799 -1.27492e-08)
(0.52725 0.295603 -4.2342e-09)
(0.621212 0.307714 -1.37451e-09)
(0.659652 0.316318 -9.73607e-10)
(0.60817 0.329696 -1.08274e-09)
(0.52253 0.352355 -1.22667e-09)
(0.434836 0.378063 -1.21771e-09)
(0.358978 0.406161 -1.27079e-09)
(0.276978 0.436149 -1.20054e-09)
(0.174742 0.465105 -1.1026e-09)
(0.0757146 0.483291 -1.00064e-09)
(3 1.50175e-07 -3.11224e-13)
(2.99999 8.18145e-07 -1.72448e-12)
(2.99997 3.03823e-06 -3.44918e-12)
(2.99993 7.78282e-06 -7.08663e-12)
(2.99984 2.14027e-05 -1.11312e-11)
(2.99959 4.88862e-05 -1.94833e-11)
(2.99909 0.000127222 -3.14737e-11)
(2.99762 0.000283208 -5.52239e-11)
(2.99477 0.000734627 -1.12073e-10)
(2.9857 0.00163806 -2.03058e-10)
(2.96856 0.00429181 -5.38195e-10)
(2.90917 0.0100807 -9.99928e-10)
(2.75893 0.0287145 -2.96989e-09)
(2.35824 0.0712073 -6.5002e-09)
(1.24792 0.206423 -1.23458e-08)
(0.571572 0.335165 -8.33914e-09)
(0.638514 0.369366 -2.85134e-09)
(0.676971 0.368622 -8.64299e-10)
(0.636957 0.381478 -1.02547e-09)
(0.561109 0.40818 -1.28034e-09)
(0.477382 0.441181 -1.31853e-09)
(0.402542 0.477901 -1.28237e-09)
(0.320035 0.519068 -1.12246e-09)
(0.21238 0.564365 -9.17822e-10)
(0.097123 0.604406 -6.23491e-10)
(3 1.76739e-07 -3.14723e-13)
(2.99999 9.65885e-07 -1.73626e-12)
(2.99998 3.59813e-06 -3.50335e-12)
(2.99994 9.24225e-06 -7.20159e-12)
(2.99986 2.555e-05 -1.15258e-11)
(2.99963 5.90477e-05 -2.03356e-11)
(2.99919 0.000151232 -3.40837e-11)
(2.99788 0.000357315 -6.2111e-11)
(2.99537 0.000820803 -1.20493e-10)
(2.98715 0.00211686 -2.74912e-10)
(2.97237 0.00444237 -4.35067e-10)
(2.91865 0.0114895 -1.4451e-09)
(2.78563 0.0278973 -2.3338e-09)
(2.42408 0.072144 -6.33776e-09)
(1.37067 0.202104 -1.16079e-08)
(0.651782 0.387027 -1.02094e-08)
(0.64842 0.420172 -1.173e-09)
(0.6764 0.416192 -5.55218e-10)
(0.658148 0.431923 -1.02092e-09)
(0.598368 0.461357 -1.192e-09)
(0.523978 0.503283 -1.36868e-09)
(0.454263 0.550822 -1.28154e-09)
(0.376806 0.606473 -1.0975e-09)
(0.271465 0.677844 -7.68786e-10)
(0.136531 0.764751 -3.84489e-10)
(3 2.52096e-07 -3.15754e-13)
(2.99999 5.2002e-07 -1.72052e-12)
(2.99998 3.76339e-06 -3.44485e-12)
(2.99995 5.71926e-06 -7.25308e-12)
(2.99988 2.60238e-05 -1.09079e-11)
(2.99969 3.66173e-05 -1.95687e-11)
(2.99934 0.000156066 -3.06814e-11)
(2.99817 0.000202713 -5.37399e-11)
(2.99624 0.000951204 -1.04263e-10)
(2.9887 0.000916665 -1.89515e-10)
(2.97648 0.00638273 -4.68408e-10)
(2.92787 0.00378329 -9.49273e-10)
(2.81247 0.0409461 -2.10991e-09)
(2.49037 0.0522199 -6.50406e-09)
(1.5169 0.220105 -1.04794e-08)
(0.753521 0.440732 -1.22026e-08)
(0.657972 0.454499 -6.43727e-10)
(0.682984 0.454984 -3.88954e-10)
(0.67924 0.47667 -1.1024e-09)
(0.635668 0.510066 -1.25289e-09)
(0.575653 0.560261 -1.41063e-09)
(0.515789 0.619684 -1.36272e-09)
(0.453442 0.696928 -1.12254e-09)
(0.369411 0.814064 -6.31546e-10)
(0.210638 1.02167 -2.81457e-10)
(3 1.33726e-08 1.19391e-15)
(2.99998 7.27733e-08 4.99761e-15)
(2.99996 2.70866e-07 2.08447e-14)
(2.9999 6.93892e-07 4.54795e-14)
(2.99977 1.9207e-06 1.69586e-13)
(2.99939 4.3739e-06 3.44968e-13)
(2.99868 1.16808e-05 1.30791e-12)
(2.99639 2.51799e-05 2.2864e-12)
(2.99248 7.22142e-05 1.05657e-11)
(2.97741 0.000147411 1.5557e-11)
(2.9514 0.000465795 7.80994e-11)
(2.8504 0.000988204 1.32748e-10)
(2.58241 0.00364143 5.94922e-10)
(1.92523 0.00867733 1.29184e-09)
(0.866728 0.0248907 2.03227e-09)
(0.454957 0.023566 -1.94931e-10)
(0.541799 0.024122 -1.0107e-10)
(0.567322 0.0262371 5.11159e-11)
(0.514511 0.02836 5.69664e-11)
(0.423816 0.030507 3.77554e-12)
(0.336415 0.0330578 -2.71907e-10)
(0.265437 0.0360598 -5.07832e-10)
(0.193588 0.0388881 -6.37711e-10)
(0.113222 0.0412238 -8.1323e-10)
(0.0488061 0.0435616 -9.96826e-10)
(3 3.98508e-08 1.03128e-15)
(2.99998 2.16965e-07 4.36194e-15)
(2.99996 8.07952e-07 1.86777e-14)
(2.9999 2.06847e-06 4.08777e-14)
(2.99977 5.73501e-06 1.5644e-13)
(2.9994 1.30493e-05 3.18537e-13)
(2.99869 3.50091e-05 1.23068e-12)
(2.99644 7.51973e-05 2.1463e-12)
(2.99258 0.000218283 1.00807e-11)
(2.97773 0.000443256 1.47953e-11)
(2.95212 0.00142259 7.53061e-11)
(2.85281 0.00301617 1.2799e-10)
(2.58957 0.0112773 5.77302e-10)
(1.9414 0.0269838 1.26002e-09)
(0.87609 0.0760834 2.01144e-09)
(0.451495 0.0683897 -1.90489e-10)
(0.541308 0.0668891 -9.75844e-11)
(0.567839 0.070579 5.59938e-11)
(0.514624 0.074177 6.25997e-11)
(0.42389 0.0777791 9.54986e-12)
(0.336661 0.0818258 -2.6463e-10)
(0.26551 0.0862489 -4.9594e-10)
(0.193249 0.0898351 -6.23533e-10)
(0.112234 0.0919455 -7.96388e-10)
(0.0471213 0.092224 -9.70201e-10)
(3 6.5311e-08 7.34414e-16)
(2.99998 3.5513e-07 2.91312e-15)
(2.99996 1.32554e-06 1.39985e-14)
(2.9999 3.39391e-06 3.06353e-14)
(2.99978 9.44495e-06 1.27929e-13)
(2.99942 2.15217e-05 2.62391e-13)
(2.99873 5.79971e-05 1.06602e-12)
(2.99654 0.000124871 1.89543e-12)
(2.99279 0.000364546 9.00938e-12)
(2.9784 0.000738958 1.35621e-11)
(2.9536 0.00240707 6.96474e-11)
(2.85791 0.00506996 1.184e-10)
(2.60496 0.0190944 5.38416e-10)
(1.97738 0.0459062 1.18831e-09)
(0.898661 0.130854 1.96028e-09)
(0.448215 0.11614 -1.83705e-10)
(0.543908 0.112367 -9.50244e-11)
(0.572891 0.118705 5.5196e-11)
(0.519442 0.125325 5.9719e-11)
(0.429063 0.132568 5.86429e-12)
(0.342227 0.140141 -2.58662e-10)
(0.270821 0.147947 -4.77889e-10)
(0.197728 0.15459 -5.93923e-10)
(0.115224 0.158749 -7.44841e-10)
(0.0478684 0.158995 -8.96885e-10)
(3 8.02949e-08 -9.22857e-17)
(2.99998 4.40747e-07 -2.3749e-16)
(2.99996 1.63408e-06 7.68587e-16)
(2.9999 4.16259e-06 1.86369e-15)
(2.99979 1.15415e-05 2.84561e-14)
(2.99944 2.59608e-05 3.1605e-14)
(2.99878 7.15247e-05 5.02858e-13)
(2.9967 0.000142004 -1.99398e-13)
(2.99309 0.000482647 8.15008e-12)
(2.97941 0.000803378 -2.72653e-12)
(2.95582 0.0034797 8.33551e-11)
(2.86556 0.00661838 6.9498e-11)
(2.62809 0.0266739 5.16274e-10)
(2.03239 0.0636715 1.06519e-09)
(0.933885 0.184189 1.85552e-09)
(0.445311 0.164184 -1.70182e-10)
(0.549728 0.157644 -8.9723e-11)
(0.582867 0.166369 5.26302e-11)
(0.52961 0.176081 5.24747e-11)
(0.44002 0.187396 -1.30337e-11)
(0.353597 0.19881 -2.56696e-10)
(0.281823 0.210465 -4.47863e-10)
(0.207364 0.22094 -5.28952e-10)
(0.121981 0.22818 -6.4262e-10)
(0.0504398 0.229297 -7.65869e-10)
(3 1.00189e-07 -5.59523e-16)
(2.99999 5.49762e-07 -2.55753e-15)
(2.99997 2.03716e-06 -4.92645e-15)
(2.99991 5.19632e-06 -1.12357e-14)
(2.99979 1.43664e-05 6.31196e-15)
(2.99947 3.24221e-05 3.2103e-15)
(2.99883 8.8405e-05 3.72592e-13)
(2.99689 0.000177477 2.00091e-14)
(2.99334 0.00059749 6.34382e-12)
(2.98085 0.000931494 -1.40833e-12)
(2.95857 0.00438647 6.63204e-11)
(2.87567 0.00798592 5.781e-11)
(2.65938 0.0325616 4.22244e-10)
(2.10719 0.0779058 8.95585e-10)
(0.987407 0.230962 1.68816e-09)
(0.451454 0.212753 -1.24652e-10)
(0.562806 0.204214 -7.06246e-11)
(0.600338 0.21405 4.25402e-11)
(0.547144 0.226058 3.74164e-11)
(0.458264 0.241452 -1.90162e-11)
(0.371643 0.256984 -2.24684e-10)
(0.299005 0.27309 -4.04717e-10)
(0.222602 0.288414 -4.65912e-10)
(0.132977 0.300065 -5.38716e-10)
(0.0552744 0.303232 -6.1754e-10)
(3 1.27745e-07 -5.51778e-16)
(2.99999 6.95009e-07 -2.73565e-15)
(2.99997 2.5898e-06 -4.95357e-15)
(2.99991 6.63884e-06 -9.90638e-15)
(2.99981 1.83786e-05 7.51731e-15)
(2.9995 4.20335e-05 2.6139e-14)
(2.9989 0.000111379 2.9085e-13)
(2.99712 0.000243133 6.15887e-13)
(2.99372 0.00069425 3.59401e-12)
(2.98252 0.00132231 3.71861e-12)
(2.96185 0.00477099 3.79679e-11)
(2.88731 0.00914619 4.67534e-11)