/*--------------------------------*- C++ -*----------------------------------*\
| =========                 |                                                 |
| \\      /  F ield         | OpenFOAM: The Open Source CFD Toolbox           |
|  \\    /   O peration     | Version:  4.1                                   |
|   \\  /    A nd           | Web:      www.OpenFOAM.org                      |
|    \\/     M anipulation  |                                                 |
\*---------------------------------------------------------------------------*/
FoamFile
{
    version     2.0;
    format      ascii;
    class       volScalarField;
    location    "5.46";
    object      T;
}
// * * * * * * * * * * * * * * * * * * * * * * * * * * * * * * * * * * * * * //

dimensions      [0 0 0 1 0 0 0];

internalField   nonuniform List<scalar> 
52500
(
0.999996
1.00002
1.00004
1.00016
1.00029
1.00095
1.00176
1.00524
1.01091
1.0284
1.07627
1.16989
1.52367
2.32214
2.65792
2.73312
2.72768
2.72463
2.73933
2.75128
2.76433
2.77233
2.77858
2.78293
2.78581
0.999996
1.00002
1.00004
1.00016
1.00029
1.00094
1.00174
1.00515
1.01078
1.02795
1.07532
1.16723
1.51885
2.31158
2.65475
2.73316
2.72757
2.72447
2.73901
2.75089
2.76363
2.77126
2.77738
2.78072
2.78277
0.999995
1.00002
1.00004
1.00015
1.00028
1.00091
1.00169
1.00498
1.0105
1.027
1.07331
1.16163
1.50808
2.28828
2.64649
2.73223
2.7263
2.72267
2.737
2.74858
2.76138
2.76819
2.77405
2.7782
2.77912
0.999995
1.00002
1.00004
1.00015
1.00027
1.00087
1.00162
1.00478
1.01005
1.02591
1.07004
1.15484
1.48488
2.24506
2.63193
2.72912
2.72268
2.71808
2.732
2.74397
2.75696
2.76443
2.76936
2.77146
2.7744
0.999995
1.00002
1.00004
1.00014
1.00025
1.00082
1.00153
1.00454
1.00945
1.02459
1.06559
1.14681
1.44986
2.18226
2.61098
2.72501
2.71872
2.71176
2.72652
2.73512
2.74822
2.75467
2.76192
2.76547
2.76454
0.999995
1.00001
1.00003
1.00013
1.00024
1.00078
1.00143
1.00442
1.0087
1.0237
1.05882
1.13674
1.40359
2.09591
2.5822
2.71775
2.71061
2.70171
2.71708
2.72804
2.73837
2.74678
2.74994
2.75144
2.75486
0.999995
1.00001
1.00003
1.00012
1.00022
1.00072
1.00132
1.00411
1.00788
1.02229
1.05159
1.12524
1.35324
1.99133
2.54291
2.70884
2.70208
2.69009
2.70438
2.71536
2.72519
2.73011
2.7377
2.73923
2.73542
0.999995
1.00001
1.00003
1.00011
1.0002
1.00065
1.00119
1.00372
1.00709
1.02038
1.04524
1.11484
1.30427
1.89534
2.48429
2.68828
2.68285
2.67424
2.68903
2.69898
2.71148
2.71413
2.71428
2.71278
2.71204
0.999995
1.00001
1.00002
1.00009
1.00018
1.00058
1.00106
1.00335
1.00633
1.01835
1.04047
1.10231
1.27235
1.78786
2.47078
2.6783
2.66379
2.65887
2.67386
2.67782
2.68808
2.69237
2.69219
2.68585
2.66102
0.999994
1.00001
1.00002
1.00008
1.00015
1.00047
1.0009
1.00259
1.00562
1.01413
1.03801
1.08449
1.25456
1.6531
2.40767
2.65422
2.65402
2.65273
2.65485
2.66408
2.66401
2.66236
2.65282
2.63178
2.58354
1
1.00003
1.00005
1.00017
1.0003
1.00096
1.00177
1.00525
1.01092
1.02842
1.07628
1.16993
1.52371
2.32227
2.658
2.73319
2.72775
2.7247
2.73941
2.75136
2.76441
2.77241
2.77866
2.78302
2.78589
1
1.00003
1.00005
1.00016
1.0003
1.00094
1.00174
1.00517
1.01079
1.02797
1.07533
1.16728
1.51889
2.31172
2.65483
2.73323
2.72764
2.72454
2.73909
2.75097
2.76371
2.77133
2.77746
2.7808
2.78285
1
1.00003
1.00005
1.00016
1.00029
1.00092
1.00169
1.00499
1.01051
1.02702
1.07333
1.16167
1.50812
2.28842
2.64657
2.7323
2.72637
2.72274
2.73707
2.74865
2.76145
2.76826
2.77413
2.77828
2.77919
1
1.00002
1.00005
1.00015
1.00028
1.00088
1.00163
1.00479
1.01006
1.02592
1.07006
1.15488
1.48493
2.2452
2.63201
2.72918
2.72275
2.71815
2.73207
2.74404
2.75704
2.76451
2.76944
2.77154
2.77448
1
1.00002
1.00004
1.00015
1.00026
1.00083
1.00154
1.00455
1.00946
1.0246
1.0656
1.14685
1.4499
2.18241
2.61106
2.72507
2.71878
2.71183
2.72659
2.73519
2.74829
2.75474
2.762
2.76555
2.76462
1
1.00002
1.00004
1.00014
1.00025
1.00079
1.00144
1.00443
1.00871
1.02372
1.05883
1.13677
1.4036
2.09602
2.58228
2.71782
2.71067
2.70178
2.71714
2.7281
2.73844
2.74685
2.75001
2.75152
2.75494
1
1.00002
1.00004
1.00013
1.00023
1.00073
1.00132
1.00412
1.00789
1.0223
1.0516
1.12527
1.35327
1.99144
2.54299
2.70891
2.70215
2.69016
2.70446
2.71542
2.72526
2.73017
2.73777
2.7393
2.73549
1
1.00002
1.00003
1.00011
1.00021
1.00066
1.0012
1.00373
1.0071
1.0204
1.04526
1.11487
1.3043
1.89541
2.48436
2.68835
2.68291
2.6743
2.68909
2.69905
2.71155
2.7142
2.71435
2.71285
2.71211
1
1.00002
1.00003
1.0001
1.00019
1.00059
1.00107
1.00336
1.00634
1.01836
1.04048
1.10234
1.27237
1.78793
2.47086
2.67837
2.66387
2.65892
2.67392
2.67788
2.68814
2.69243
2.69225
2.68592
2.66108
1
1.00001
1.00003
1.00008
1.00016
1.00048
1.00091
1.0026
1.00563
1.01414
1.03802
1.08452
1.25458
1.65321
2.40774
2.65429
2.65408
2.65278
2.6549
2.66414
2.66407
2.66242
2.65288
2.63184
2.5836
1
1.00003
1.00005
1.00017
1.0003
1.00096
1.00177
1.00525
1.01092
1.02842
1.07628
1.16993
1.52371
2.32227
2.658
2.73319
2.72775
2.7247
2.73941
2.75136
2.76441
2.77241
2.77866
2.78302
2.78589
1
1.00003
1.00005
1.00016
1.0003
1.00094
1.00174
1.00517
1.01079
1.02797
1.07533
1.16728
1.5189
2.31172
2.65483
2.73323
2.72764
2.72454
2.73909
2.75097
2.76371
2.77133
2.77746
2.7808
2.78285
1
1.00003
1.00005
1.00016
1.00029
1.00092
1.00169
1.00499
1.01051
1.02702
1.07333
1.16167
1.50812
2.28842
2.64657
2.7323
2.72637
2.72274
2.73707
2.74865
2.76145
2.76826
2.77413
2.77828
2.77919
1
1.00002
1.00005
1.00015
1.00028
1.00088
1.00163
1.00479
1.01006
1.02592
1.07006
1.15488
1.48493
2.24521
2.63201
2.72918
2.72275
2.71815
2.73207
2.74404
2.75704
2.76451
2.76944
2.77154
2.77448
1
1.00002
1.00004
1.00015
1.00026
1.00083
1.00154
1.00455
1.00946
1.0246
1.0656
1.14685
1.4499
2.18241
2.61107
2.72507
2.71878
2.71183
2.72659
2.73519
2.74829
2.75474
2.762
2.76555
2.76462
1
1.00002
1.00004
1.00014
1.00025
1.00079
1.00144
1.00443
1.00871
1.02372
1.05883
1.13678
1.40361
2.09602
2.58228
2.71782
2.71067
2.70178
2.71714
2.7281
2.73844
2.74685
2.75001
2.75152
2.75494
1
1.00002
1.00004
1.00013
1.00023
1.00073
1.00132
1.00412
1.00789
1.0223
1.0516
1.12527
1.35327
1.99145
2.54299
2.70891
2.70215
2.69016
2.70446
2.71542
2.72526
2.73017
2.73777
2.7393
2.73549
1
1.00002
1.00003
1.00011
1.00021
1.00066
1.0012
1.00373
1.0071
1.0204
1.04526
1.11487
1.3043
1.89542
2.48437
2.68835
2.68291
2.6743
2.68909
2.69905
2.71155
2.7142
2.71435
2.71285
2.71211
1
1.00002
1.00003
1.0001
1.00019
1.00059
1.00107
1.00336
1.00634
1.01836
1.04048
1.10234
1.27237
1.78794
2.47086
2.67837
2.66387
2.65892
2.67392
2.67788
2.68814
2.69243
2.69225
2.68592
2.66108
1
1.00001
1.00003
1.00008
1.00016
1.00048
1.00091
1.0026
1.00563
1.01414
1.03802
1.08452
1.25458
1.65322
2.40774
2.65429
2.65408
2.65278
2.6549
2.66414
2.66407
2.66242
2.65288
2.63184
2.5836
1
1.00003
1.00005
1.00017
1.0003
1.00096
1.00177
1.00525
1.01092
1.02842
1.07628
1.16993
1.52371
2.32227
2.658
2.73319
2.72775
2.7247
2.73941
2.75136
2.76441
2.77241
2.77866
2.78302
2.78589
1
1.00003
1.00005
1.00016
1.0003
1.00094
1.00174
1.00517
1.01079
1.02797
1.07533
1.16728
1.5189
2.31172
2.65483
2.73323
2.72764
2.72454
2.73909
2.75097
2.76371
2.77133
2.77746
2.7808
2.78285
1
1.00003
1.00005
1.00016
1.00029
1.00092
1.00169
1.00499
1.01051
1.02702
1.07333
1.16167
1.50812
2.28842
2.64657
2.7323
2.72637
2.72274
2.73707
2.74865
2.76145
2.76826
2.77413
2.77828
2.77919
1
1.00002
1.00005
1.00015
1.00028
1.00088
1.00163
1.00479
1.01006
1.02592
1.07006
1.15488
1.48493
2.24521
2.63201
2.72918
2.72275
2.71815
2.73207
2.74404
2.75704
2.76451
2.76944
2.77154
2.77448
1
1.00002
1.00004
1.00015
1.00026
1.00083
1.00154
1.00455
1.00946
1.0246
1.0656
1.14685
1.4499
2.18241
2.61107
2.72507
2.71878
2.71183
2.72659
2.73519
2.74829
2.75474
2.762
2.76555
2.76462
1
1.00002
1.00004
1.00014
1.00025
1.00079
1.00144
1.00443
1.00871
1.02372
1.05883
1.13678
1.40361
2.09602
2.58228
2.71782
2.71067
2.70178
2.71714
2.7281
2.73844
2.74685
2.75001
2.75152
2.75494
1
1.00002
1.00004
1.00013
1.00023
1.00073
1.00132
1.00412
1.00789
1.0223
1.0516
1.12527
1.35327
1.99145
2.54299
2.70891
2.70215
2.69016
2.70446
2.71542
2.72526
2.73017
2.73777
2.7393
2.73549
1
1.00002
1.00003
1.00011
1.00021
1.00066
1.0012
1.00373
1.0071
1.0204
1.04526
1.11487
1.3043
1.89542
2.48437
2.68835
2.68291
2.6743
2.68909
2.69905
2.71155
2.7142
2.71435
2.71285
2.71211
1
1.00002
1.00003
1.0001
1.00019
1.00059
1.00107
1.00336
1.00634
1.01836
1.04048
1.10234
1.27237
1.78794
2.47086
2.67837
2.66387
2.65892
2.67392
2.67788
2.68814
2.69243
2.69225
2.68592
2.66108
1
1.00001
1.00003
1.00008
1.00016
1.00048
1.00091
1.0026
1.00563
1.01414
1.03802
1.08452
1.25458
1.65322
2.40774
2.65429
2.65408
2.65278
2.6549
2.66414
2.66407
2.66242
2.65288
2.63184
2.5836
1
1.00003
1.00005
1.00017
1.0003
1.00096
1.00177
1.00525
1.01092
1.02842
1.07628
1.16993
1.52372
2.32228
2.658
2.73319
2.72774
2.7247
2.73941
2.75136
2.76441
2.77241
2.77866
2.78302
2.78589
1
1.00003
1.00005
1.00016
1.0003
1.00094
1.00174
1.00517
1.01079
1.02797
1.07533
1.16728
1.5189
2.31173
2.65483
2.73323
2.72764
2.72454
2.73909
2.75097
2.76371
2.77133
2.77746
2.7808
2.78285
1
1.00003
1.00005
1.00016
1.00029
1.00092
1.00169
1.00499
1.01051
1.02702
1.07333
1.16168
1.50812
2.28842
2.64657
2.7323
2.72637
2.72274
2.73707
2.74865
2.76145
2.76826
2.77413
2.77828
2.77919
1
1.00002
1.00005
1.00015
1.00028
1.00088
1.00163
1.00479
1.01006
1.02592
1.07006
1.15488
1.48494
2.24521
2.63201
2.72918
2.72275
2.71815
2.73207
2.74404
2.75704
2.76451
2.76944
2.77154
2.77448
1
1.00002
1.00004
1.00015
1.00026
1.00083
1.00154
1.00455
1.00946
1.0246
1.0656
1.14685
1.44991
2.18241
2.61107
2.72507
2.71878
2.71183
2.72659
2.73519
2.74829
2.75474
2.762
2.76555
2.76462
1
1.00002
1.00004
1.00014
1.00025
1.00079
1.00144
1.00443
1.00871
1.02372
1.05883
1.13678
1.40361
2.09603
2.58228
2.71782
2.71067
2.70178
2.71714
2.7281
2.73844
2.74685
2.75001
2.75152
2.75494
1
1.00002
1.00004
1.00013
1.00023
1.00073
1.00132
1.00412
1.00789
1.0223
1.0516
1.12527
1.35327
1.99145
2.54299
2.70891
2.70215
2.69016
2.70446
2.71543
2.72526
2.73017
2.73777
2.7393
2.73549
1
1.00002
1.00003
1.00011
1.00021
1.00066
1.0012
1.00373
1.0071
1.0204
1.04526
1.11487
1.3043
1.89542
2.48437
2.68835
2.68291
2.6743
2.68909
2.69905
2.71155
2.7142
2.71435
2.71285
2.71211
1
1.00002
1.00003
1.0001
1.00019
1.00059
1.00107
1.00336
1.00634
1.01836
1.04048
1.10234
1.27237
1.78794
2.47086
2.67837
2.66387
2.65891
2.67392
2.67788
2.68814
2.69243
2.69225
2.68592
2.66108
1
1.00001
1.00003
1.00008
1.00016
1.00048
1.00091
1.0026
1.00563
1.01414
1.03802
1.08452
1.25458
1.65322
2.40774
2.65429
2.65408
2.65278
2.6549
2.66414
2.66407
2.66242
2.65288
2.63184
2.5836
1
1.00003
1.00005
1.00017
1.0003
1.00096
1.00177
1.00525
1.01092
1.02842
1.07628
1.16993
1.52372
2.32228
2.658
2.73319
2.72774
2.7247
2.73941
2.75136
2.76441
2.77241
2.77866
2.78302
2.78589
1
1.00003
1.00005
1.00016
1.0003
1.00094
1.00174
1.00517
1.01079
1.02797
1.07533
1.16728
1.5189
2.31173
2.65483
2.73323
2.72764
2.72454
2.73909
2.75097
2.76371
2.77133
2.77746
2.7808
2.78285
1
1.00003
1.00005
1.00016
1.00029
1.00092
1.00169
1.00499
1.01051
1.02702
1.07333
1.16168
1.50812
2.28842
2.64657
2.7323
2.72637
2.72274
2.73707
2.74865
2.76145
2.76826
2.77413
2.77828
2.77919
1
1.00002
1.00005
1.00015
1.00028
1.00088
1.00163
1.00479
1.01006
1.02592
1.07006
1.15488
1.48494
2.24521
2.63201
2.72918
2.72275
2.71815
2.73207
2.74404
2.75704
2.76451
2.76944
2.77154
2.77448
1
1.00002
1.00004
1.00015
1.00026
1.00083
1.00154
1.00455
1.00946
1.0246
1.0656
1.14685
1.44991
2.18241
2.61107
2.72507
2.71878
2.71183
2.72659
2.73519
2.74829
2.75474
2.762
2.76555
2.76462
1
1.00002
1.00004
1.00014
1.00025
1.00079
1.00144
1.00443
1.00871
1.02372
1.05883
1.13678
1.40361
2.09603
2.58228
2.71782
2.71067
2.70178
2.71714
2.7281
2.73844
2.74685
2.75001
2.75152
2.75494
1
1.00002
1.00004
1.00013
1.00023
1.00073
1.00132
1.00412
1.00789
1.0223
1.0516
1.12527
1.35327
1.99145
2.54299
2.70891
2.70215
2.69016
2.70446
2.71543
2.72526
2.73017
2.73777
2.7393
2.73549
1
1.00002
1.00003
1.00011
1.00021
1.00066
1.0012
1.00373
1.0071
1.0204
1.04526
1.11487
1.3043
1.89542
2.48437
2.68835
2.68291
2.6743
2.68909
2.69905
2.71155
2.7142
2.71435
2.71285
2.71211
1
1.00002
1.00003
1.0001
1.00019
1.00059
1.00107
1.00336
1.00634
1.01836
1.04048
1.10234
1.27237
1.78794
2.47086
2.67837
2.66387
2.65891
2.67392
2.67788
2.68814
2.69243
2.69225
2.68592
2.66108
1
1.00001
1.00003
1.00008
1.00016
1.00048
1.00091
1.0026
1.00563
1.01414
1.03802
1.08452
1.25458
1.65322
2.40774
2.65429
2.65408
2.65278
2.6549
2.66414
2.66407
2.66242
2.65288
2.63184
2.5836
1
1.00003
1.00005
1.00017
1.0003
1.00096
1.00177
1.00525
1.01092
1.02842
1.07628
1.16993
1.52371
2.32227
2.658
2.73319
2.72775
2.7247
2.73941
2.75136
2.76441
2.77241
2.77866
2.78302
2.78589
1
1.00003
1.00005
1.00016
1.0003
1.00094
1.00174
1.00517
1.01079
1.02797
1.07533
1.16728
1.5189
2.31172
2.65483
2.73323
2.72764
2.72454
2.73909
2.75097
2.76371
2.77133
2.77746
2.7808
2.78285
1
1.00003
1.00005
1.00016
1.00029
1.00092
1.00169
1.00499
1.01051
1.02702
1.07333
1.16167
1.50812
2.28842
2.64657
2.7323
2.72637
2.72274
2.73707
2.74865
2.76145
2.76826
2.77413
2.77828
2.77919
1
1.00002
1.00005
1.00015
1.00028
1.00088
1.00163
1.00479
1.01006
1.02592
1.07006
1.15488
1.48493
2.24521
2.63201
2.72918
2.72275
2.71815
2.73207
2.74404
2.75704
2.76451
2.76944
2.77154
2.77448
1
1.00002
1.00004
1.00015
1.00026
1.00083
1.00154
1.00455
1.00946
1.0246
1.0656
1.14685
1.4499
2.18241
2.61107
2.72507
2.71878
2.71183
2.72659
2.73519
2.74829
2.75474
2.762
2.76555
2.76462
1
1.00002
1.00004
1.00014
1.00025
1.00079
1.00144
1.00443
1.00871
1.02372
1.05883
1.13678
1.40361
2.09602
2.58228
2.71782
2.71067
2.70178
2.71714
2.7281
2.73844
2.74685
2.75001
2.75152
2.75494
1
1.00002
1.00004
1.00013
1.00023
1.00073
1.00132
1.00412
1.00789
1.0223
1.0516
1.12527
1.35327
1.99145
2.54299
2.70891
2.70215
2.69016
2.70446
2.71542
2.72526
2.73017
2.73777
2.7393
2.73549
1
1.00002
1.00003
1.00011
1.00021
1.00066
1.0012
1.00373
1.0071
1.0204
1.04526
1.11487
1.3043
1.89542
2.48437
2.68835
2.68291
2.6743
2.68909
2.69905
2.71155
2.7142
2.71435
2.71285
2.71211
1
1.00002
1.00003
1.0001
1.00019
1.00059
1.00107
1.00336
1.00634
1.01836
1.04048
1.10234
1.27237
1.78794
2.47086
2.67837
2.66387
2.65892
2.67392
2.67788
2.68814
2.69243
2.69225
2.68592
2.66108
1
1.00001
1.00003
1.00008
1.00016
1.00048
1.00091
1.0026
1.00563
1.01414
1.03802
1.08452
1.25458
1.65322
2.40774
2.65429
2.65408
2.65278
2.6549
2.66414
2.66407
2.66242
2.65288
2.63184
2.5836
1
1.00003
1.00005
1.00017
1.0003
1.00096
1.00177
1.00525
1.01092
1.02842
1.07628
1.16993
1.52371
2.32227
2.658
2.73319
2.72775
2.7247
2.73941
2.75136
2.76441
2.77241
2.77866
2.78302
2.78589
1
1.00003
1.00005
1.00016
1.0003
1.00094
1.00174
1.00517
1.01079
1.02797
1.07533
1.16728
1.5189
2.31172
2.65483
2.73323
2.72764
2.72454
2.73909
2.75097
2.76371
2.77133
2.77746
2.7808
2.78285
1
1.00003
1.00005
1.00016
1.00029
1.00092
1.00169
1.00499
1.01051
1.02702
1.07333
1.16167
1.50812
2.28842
2.64657
2.7323
2.72637
2.72274
2.73707
2.74865
2.76145
2.76826
2.77413
2.77828
2.77919
1
1.00002
1.00005
1.00015
1.00028
1.00088
1.00163
1.00479
1.01006
1.02592
1.07006
1.15488
1.48493
2.24521
2.63201
2.72918
2.72275
2.71815
2.73207
2.74404
2.75704
2.76451
2.76944
2.77154
2.77448
1
1.00002
1.00004
1.00015
1.00026
1.00083
1.00154
1.00455
1.00946
1.0246
1.0656
1.14685
1.4499
2.18241
2.61107
2.72507
2.71878
2.71183
2.72659
2.73519
2.74829
2.75474
2.762
2.76555
2.76462
1
1.00002
1.00004
1.00014
1.00025
1.00079
1.00144
1.00443
1.00871
1.02372
1.05883
1.13678
1.40361
2.09602
2.58228
2.71782
2.71067
2.70178
2.71714
2.7281
2.73844
2.74685
2.75001
2.75152
2.75494
1
1.00002
1.00004
1.00013
1.00023
1.00073
1.00132
1.00412
1.00789
1.0223
1.0516
1.12527
1.35327
1.99145
2.54299
2.70891
2.70215
2.69016
2.70446
2.71542
2.72526
2.73017
2.73777
2.7393
2.73549
1
1.00002
1.00003
1.00011
1.00021
1.00066
1.0012
1.00373
1.0071
1.0204
1.04526
1.11487
1.3043
1.89542
2.48437
2.68835
2.68291
2.6743
2.68909
2.69905
2.71155
2.7142
2.71435
2.71285
2.71211
1
1.00002
1.00003
1.0001
1.00019
1.00059
1.00107
1.00336
1.00634
1.01836
1.04048
1.10234
1.27237
1.78794
2.47086
2.67837
2.66387
2.65892
2.67392
2.67788
2.68814
2.69243
2.69225
2.68592
2.66108
1
1.00001
1.00003
1.00008
1.00016
1.00048
1.00091
1.0026
1.00563
1.01414
1.03802
1.08452
1.25458
1.65322
2.40774
2.65429
2.65408
2.65278
2.6549
2.66414
2.66407
2.66242
2.65288
2.63184
2.5836
1
1.00003
1.00005
1.00017
1.0003
1.00096
1.00177
1.00525
1.01092
1.02842
1.07628
1.16993
1.52371
2.32227
2.658
2.73319
2.72775
2.7247
2.73941
2.75136
2.76441
2.77241
2.77866
2.78302
2.78589
1
1.00003
1.00005
1.00016
1.0003
1.00094
1.00174
1.00517
1.01079
1.02797
1.07533
1.16728
1.51889
2.31172
2.65483
2.73323
2.72764
2.72454
2.73909
2.75097
2.76371
2.77133
2.77746
2.7808
2.78285
1
1.00003
1.00005
1.00016
1.00029
1.00092
1.00169
1.00499
1.01051
1.02702
1.07333
1.16167
1.50812
2.28842
2.64657
2.7323
2.72637
2.72274
2.73707
2.74865
2.76145
2.76826
2.77413
2.77828
2.77919
1
1.00002
1.00005
1.00015
1.00028
1.00088
1.00163
1.00479
1.01006
1.02592
1.07006
1.15488
1.48493
2.2452
2.63201
2.72918
2.72275
2.71815
2.73207
2.74404
2.75704
2.76451
2.76944
2.77154
2.77448
1
1.00002
1.00004
1.00015
1.00026
1.00083
1.00154
1.00455
1.00946
1.0246
1.0656
1.14685
1.4499
2.18241
2.61106
2.72507
2.71878
2.71183
2.72659
2.73519
2.74829
2.75474
2.762
2.76555
2.76462
1
1.00002
1.00004
1.00014
1.00025
1.00079
1.00144
1.00443
1.00871
1.02372
1.05883
1.13677
1.4036
2.09602
2.58228
2.71782
2.71067
2.70178
2.71714
2.7281
2.73844
2.74685
2.75001
2.75152
2.75494
1
1.00002
1.00004
1.00013
1.00023
1.00073
1.00132
1.00412
1.00789
1.0223
1.0516
1.12527
1.35327
1.99144
2.54299
2.70891
2.70215
2.69016
2.70446
2.71542
2.72526
2.73017
2.73777
2.7393
2.73549
1
1.00002
1.00003
1.00011
1.00021
1.00066
1.0012
1.00373
1.0071
1.0204
1.04526
1.11487
1.3043
1.89541
2.48436
2.68835
2.68291
2.6743
2.68909
2.69905
2.71155
2.7142
2.71435
2.71285
2.71211
1
1.00002
1.00003
1.0001
1.00019
1.00059
1.00107
1.00336
1.00634
1.01836
1.04048
1.10234
1.27237
1.78793
2.47086
2.67837
2.66387
2.65892
2.67392
2.67788
2.68814
2.69243
2.69225
2.68592
2.66108
1
1.00001
1.00003
1.00008
1.00016
1.00048
1.00091
1.0026
1.00563
1.01414
1.03802
1.08452
1.25458
1.65321
2.40774
2.65429
2.65408
2.65278
2.6549
2.66414
2.66407
2.66242
2.65288
2.63184
2.5836
0.999996
1.00002
1.00004
1.00016
1.00029
1.00095
1.00176
1.00524
1.01091
1.0284
1.07627
1.16989
1.52367
2.32214
2.65792
2.73312
2.72768
2.72463
2.73933
2.75128
2.76433
2.77233
2.77858
2.78293
2.78581
0.999996
1.00002
1.00004
1.00016
1.00029
1.00094
1.00174
1.00515
1.01078
1.02795
1.07532
1.16723
1.51885
2.31158
2.65475
2.73316
2.72757
2.72447
2.73901
2.75089
2.76363
2.77126
2.77738
2.78072
2.78277
0.999995
1.00002
1.00004
1.00015
1.00028
1.00091
1.00169
1.00498
1.0105
1.027
1.07331
1.16163
1.50808
2.28828
2.64649
2.73223
2.7263
2.72267
2.737
2.74858
2.76138
2.76819
2.77405
2.7782
2.77912
0.999995
1.00002
1.00004
1.00015
1.00027
1.00087
1.00162
1.00478
1.01005
1.02591
1.07004
1.15484
1.48488
2.24506
2.63193
2.72912
2.72268
2.71808
2.732
2.74397
2.75696
2.76443
2.76936
2.77146
2.7744
0.999995
1.00002
1.00004
1.00014
1.00025
1.00082
1.00153
1.00454
1.00945
1.02459
1.06559
1.14681
1.44985
2.18226
2.61098
2.72501
2.71872
2.71176
2.72652
2.73512
2.74822
2.75467
2.76192
2.76547
2.76454
0.999995
1.00001
1.00003
1.00013
1.00024
1.00078
1.00143
1.00442
1.0087
1.0237
1.05882
1.13674
1.40359
2.09591
2.5822
2.71775
2.71061
2.70171
2.71708
2.72804
2.73837
2.74678
2.74994
2.75144
2.75486
0.999995
1.00001
1.00003
1.00012
1.00022
1.00072
1.00132
1.00411
1.00788
1.02229
1.05159
1.12524
1.35324
1.99133
2.54291
2.70884
2.70208
2.69009
2.70438
2.71536
2.72519
2.73011
2.7377
2.73923
2.73542
0.999995
1.00001
1.00003
1.00011
1.0002
1.00065
1.00119
1.00372
1.00709
1.02038
1.04524
1.11484
1.30427
1.89533
2.48429
2.68828
2.68285
2.67424
2.68903
2.69898
2.71148
2.71413
2.71428
2.71278
2.71204
0.999995
1.00001
1.00002
1.00009
1.00018
1.00058
1.00106
1.00335
1.00633
1.01835
1.04047
1.10231
1.27235
1.78786
2.47078
2.6783
2.66379
2.65887
2.67386
2.67782
2.68808
2.69237
2.69219
2.68585
2.66102
0.999994
1.00001
1.00002
1.00008
1.00015
1.00047
1.0009
1.00259
1.00562
1.01413
1.03801
1.08449
1.25456
1.6531
2.40767
2.65422
2.65402
2.65273
2.65485
2.66408
2.66401
2.66236
2.65282
2.63178
2.58354
0.999996
1
1.00002
1.00005
1.00018
1.00033
1.00104
1.002
1.00574
1.01244
1.03164
1.08641
1.19285
1.57841
2.38536
2.60412
2.63795
2.63504
2.63517
2.64198
2.64276
2.6357
2.61431
2.56245
2.38162
0.999996
1
1.00002
1.00004
1.00015
1.00029
1.00092
1.0017
1.00505
1.01054
1.02734
1.07329
1.16298
1.50128
2.26612
2.56606
2.63536
2.62714
2.61509
2.61421
2.61101
2.59728
2.5649
2.50358
2.31815
0.999995
0.999999
1.00002
1.00004
1.00013
1.00024
1.00079
1.00145
1.0044
1.00887
1.02357
1.0605
1.13769
1.41144
2.09109
2.49507
2.62475
2.61623
2.6025
2.59243
2.58557
2.56814
2.52683
2.46836
2.31672
0.999995
0.999998
1.00001
1.00003
1.00011
1.0002
1.00067
1.00121
1.00379
1.00721
1.02065
1.04629
1.11526
1.31126
1.88689
2.40081
2.5986
2.59051
2.58407
2.56725
2.55034
2.52972
2.4904
2.44565
2.32749
0.999995
0.999997
1.00001
1.00002
1.00009
1.00017
1.00054
1.00099
1.00306
1.0059
1.01686
1.03699
1.09549
1.24231
1.73146
2.29436
2.5542
2.56441
2.56413
2.55504
2.53201
2.50618
2.45089
2.41251
2.32842
0.999994
0.999997
1
1.00002
1.00005
1.00017
1.00032
1.001
1.00191
1.00543
1.01179
1.02965
1.0811
1.17796
1.5408
2.27781
2.482
2.52407
2.52187
2.52162
2.51222
2.49178
2.44236
2.39296
2.32517
0.999994
0.999996
1
1.00002
1.00004
1.00014
1.00026
1.00082
1.00152
1.00452
1.00928
1.0242
1.06347
1.14228
1.42719
2.10698
2.43065
2.51489
2.50189
2.49508
2.47847
2.46189
2.42543
2.38011
2.32199
0.999993
0.999995
0.999998
1.00001
1.00003
1.00011
1.0002
1.00065
1.00119
1.00368
1.0071
1.02008
1.04534
1.11332
1.30132
1.87777
2.30301
2.48553
2.48381
2.47651
2.45966
2.43951
2.40641
2.36178
2.31163
0.999993
0.999994
0.999998
1
1.00003
1.00006
1.00019
1.00037
1.00114
1.00216
1.00628
1.01319
1.03408
1.08835
1.20676
1.56485
2.24903
2.43212
2.44863
2.44397
2.43153
2.41565
2.39348
2.35495
2.30728
0.999992
0.999993
0.999996
1
1.00002
1.00004
1.00014
1.00027
1.00084
1.0016
1.00454
1.00991
1.02464
1.06754
1.14664
1.45476
2.11497
2.37686
2.42996
2.42241
2.40674
2.38254
2.36194
2.3385
2.29856
0.999992
0.999993
0.999994
0.999999
1.00001
1.00004
1.00007
1.00024
1.00047
1.00133
1.00292
1.00723
1.01916
1.04297
1.12654
1.28258
1.8032
2.25563
2.40709
2.4061
2.39571
2.37391
2.34528
2.31825
2.28827
0.999992
0.999992
0.999993
0.999997
1
1.00003
1.00005
1.00019
1.00035
1.00111
1.00205
1.00613
1.01244
1.03277
1.08292
1.19379
1.52719
2.16283
2.3481
2.37119
2.36753
2.35462
2.32792
2.30045
2.26771
0.999991
0.999992
0.999993
0.999994
1
1.00001
1.00005
1.0001
1.00031
1.00059
1.00171
1.00358
1.00916
1.02333
1.05331
1.15538
1.35371
1.91462
2.27993
2.35552
2.35224
2.33922
2.31678
2.29104
2.26019
0.999991
0.999991
0.999992
0.999993
0.999998
1
1.00003
1.00007
1.00023
1.00042
1.0013
1.00244
1.00707
1.01482
1.03794
1.09915
1.22824
1.60101
2.10933
2.31603
2.3241
2.318
2.29861
2.27229
2.24542
0.999991
0.999991
0.999992
0.999993
0.999995
1
1.00001
1.00006
1.00012
1.00038
1.00071
1.00214
1.00415
1.01158
1.02587
1.06289
1.1658
1.42622
1.95466
2.25119
2.30311
2.30174
2.2882
2.2632
2.2343
0.999991
0.999991
0.999991
0.999992
0.999994
0.999999
1.00001
1.00004
1.00008
1.00026
1.00048
1.00149
1.00281
1.00797
1.0172
1.04282
1.11501
1.2643
1.68464
2.10943
2.25851
2.2697
2.26453
2.25116
2.22598
0.999991
0.999991
0.999991
0.999992
0.999993
0.999995
1
1.00002
1.00007
1.00013
1.00042
1.00079
1.00236
1.00462
1.01286
1.02771
1.07227
1.16965
1.49874
1.94825
2.19739
2.24137
2.24029
2.22912
2.20813
0.999991
0.999991
0.999991
0.999991
0.999992
0.999994
1
1.00001
1.00004
1.00008
1.00028
1.00052
1.0016
1.00299
1.00862
1.01811
1.04574
1.11749
1.28096
1.69686
2.07458
2.20371
2.21826
2.213
2.19925
0.999991
0.999991
0.999991
0.999991
0.999992
0.999993
0.999995
1
1.00002
1.00007
1.00014
1.00043
1.00082
1.00239
1.00475
1.01305
1.02805
1.07402
1.16897
1.51472
1.89655
2.12956
2.1737
2.18274
2.17673
0.999991
0.999991
0.999991
0.999991
0.999991
0.999992
0.999995
0.999998
1.00001
1.00003
1.00011
1.00021
1.00066
1.00124
1.0036
1.00731
1.01891
1.04686
1.10524
1.29328
1.735
2.03334
2.14097
2.15404
2.15053
0.999991
0.999991
0.999991
0.999991
0.999991
0.999992
0.999993
0.999995
1
1.00002
1.00007
1.00013
1.00043
1.00079
1.0024
1.00455
1.01306
1.02659
1.07225
1.15992
1.48974
1.85317
2.08299
2.12283
2.12752
0.999991
0.999991
0.999991
0.999991
0.999991
0.999991
0.999992
0.999994
0.999998
1.00001
1.00003
1.00011
1.0002
1.00062
1.00117
1.00345
1.00675
1.01817
1.04193
1.09822
1.26134
1.67464
1.97203
2.09216
2.10108
0.999991
0.999991
0.999991
0.999991
0.999991
0.999991
0.999991
0.999993
0.999995
1
1.00001
1.00006
1.00012
1.00039
1.00072
1.00219
1.00412
1.0118
1.0239
1.06395
1.14343
1.41251
1.80129
2.03304
2.08241
0.999991
0.999991
0.999991
0.999991
0.999991
0.999991
0.999991
0.999992
0.999993
0.999999
1.00001
1.00003
1.00007
1.00023
1.00043
1.00133
1.00243
1.00711
1.01428
1.0367
1.09092
1.20643
1.54197
1.88717
2.04308
0.999991
0.999991
0.999991
0.999991
0.999991
0.999991
0.999991
0.999992
0.999992
0.999995
0.999999
1.00002
1.00004
1.00014
1.00025
1.00079
1.00145
1.00421
1.00846
1.02176
1.05437
1.11906
1.33737
1.76572
1.96135
0.999991
0.999991
0.999991
0.999991
0.999991
0.999991
0.999991
0.999991
0.999992
0.999993
0.999997
1
1.00003
1.00006
1.00019
1.00036
1.00106
1.00203
1.00572
1.01184
1.03004
1.07131
1.17483
1.41456
1.84966
0.999991
0.999991
0.999991
0.999991
0.999991
0.999991
0.999991
0.999991
0.999991
0.999992
0.999994
1
1.00001
1.00004
1.00008
1.00027
1.00051
1.00149
1.00287
1.00802
1.0169
1.04223
1.10247
1.25402
1.58681
0.999991
0.999991
0.999991
0.999991
0.999991
0.999991
0.999991
0.999991
0.999991
0.999991
0.999993
0.999995
1
1.00001
1.00006
1.00012
1.00037
1.0007
1.00203
1.00397
1.01085
1.02276
1.05946
1.13278
1.38331
0.999991
0.999991
0.999991
0.999991
0.999991
0.999991
0.999991
0.999991
0.999991
0.999991
0.999992
0.999993
0.999998
1
1.00003
1.00006
1.00021
1.00039
1.00118
1.00219
1.00631
1.01256
1.03244
1.07607
1.17993
0.999991
0.999991
0.999991
0.999991
0.999991
0.999991
0.999991
0.999991
0.999991
0.999991
0.999991
0.999992
0.999994
1
1.00001
1.00004
1.00009
1.00028
1.00053
1.00155
1.00301
1.00827
1.01744
1.04415
1.10224
0.999991
0.999991
0.999991
0.999991
0.999991
0.999991
0.999991
0.999991
0.999991
0.999991
0.999991
0.999991
0.999993
0.999995
1
1.00002
1.00006
1.00013
1.00038
1.00073
1.00211
1.00413
1.01127
1.0235
1.0619
0.999991
0.999991
0.999991
0.999991
0.999991
0.999991
0.999991
0.999991
0.999991
0.999991
0.999991
0.999991
0.999992
0.999994
0.999997
1.00001
1.00003
1.00009
1.00018
1.00055
1.00103
1.00298
1.00578
1.01561
1.03384
0.999991
0.999991
0.999991
0.999991
0.999991
0.999991
0.999991
0.999991
0.999991
0.999991
0.999991
0.999991
0.999991
0.999993
0.999995
1
1.00001
1.00006
1.00012
1.00037
1.00069
1.00208
1.00393
1.01113
1.0234
0.999991
0.999991
0.999991
0.999991
0.999991
0.999991
0.999991
0.999991
0.999991
0.999991
0.999991
0.999991
0.999991
0.999992
0.999995
0.999998
1.00001
1.00003
1.00012
1.00023
1.00071
1.00135
1.00398
1.00807
1.0215
0.999991
0.999991
0.999991
0.999991
0.999991
0.999991
0.999991
0.999991
0.999991
0.999991
0.999991
0.999991
0.999991
0.999992
0.999993
0.999999
1.00001
1.00004
1.00007
1.00024
1.00048
1.00132
1.003
1.0073
1.01992
0.999991
0.999991
0.999991
0.999991
0.999991
0.999991
0.999991
0.999991
0.999991
0.999991
0.999991
0.999991
0.999991
0.999992
0.999994
0.999997
1.00001
1.00003
1.0001
1.00019
1.0006
1.00117
1.0033
1.0074
1.01865
0.999991
0.999991
0.999991
0.999991
0.999991
0.999991
0.999991
0.999991
0.999991
0.999991
0.999991
0.999991
0.999991
0.999992
0.999993
0.999998
1
1.00003
1.00007
1.00024
1.00045
1.00136
1.00282
1.00737
1.01871
0.999991
0.999991
0.999991
0.999991
0.999991
0.999991
0.999991
0.999991
0.999991
0.999991
0.999991
0.999991
0.999991
0.999992
0.999993
0.999998
1
1.00003
1.00007
1.00024
1.00045
1.00136
1.00281
1.00732
1.01864
0.999991
0.999991
0.999991
0.999991
0.999991
0.999991
0.999991
0.999991
0.999991
0.999991
0.999991
0.999991
0.999991
0.999992
0.999994
0.999997
1.00001
1.00003
1.0001
1.00019
1.00062
1.00116
1.00357
1.0071
1.01956
0.999991
0.999991
0.999991
0.999991
0.999991
0.999991
0.999991
0.999991
0.999991
0.999991
0.999991
0.999991
0.999991
0.999992
0.999994
0.999997
1.00001
1.00003
1.0001
1.00019
1.00064
1.00117
1.0037
1.00709
1.02044
1
1.00001
1.00003
1.00006
1.00019
1.00034
1.00105
1.00201
1.00575
1.01245
1.03166
1.08643
1.1929
1.57845
2.38547
2.6042
2.638
2.6351
2.63522
2.64203
2.64281
2.63575
2.61436
2.5625
2.38165
1
1.00001
1.00003
1.00005
1.00016
1.00029
1.00093
1.00171
1.00506
1.01055
1.02735
1.0733
1.16302
1.50131
2.26624
2.56612
2.63541
2.62718
2.61515
2.61427
2.61108
2.59735
2.56495
2.50363
2.31819
1
1.00001
1.00002
1.00004
1.00014
1.00025
1.0008
1.00146
1.00441
1.00888
1.0236
1.0605
1.13773
1.41144
2.09116
2.49516
2.6248
2.61628
2.60253
2.59246
2.5856
2.56819
2.52688
2.4684
2.31675
1
1.00001
1.00002
1.00004
1.00012
1.00021
1.00068
1.00122
1.0038
1.00722
1.02066
1.04631
1.11529
1.31128
1.887
2.40087
2.59865
2.59057
2.58414
2.56731
2.55038
2.52976
2.49045
2.4457
2.32753
1
1
1.00002
1.00003
1.0001
1.00017
1.00055
1.001
1.00307
1.00591
1.01688
1.037
1.09552
1.24232
1.73158
2.29441
2.55424
2.56446
2.56419
2.5551
2.53207
2.50623
2.45092
2.41255
2.32845
1
1
1.00001
1.00003
1.00006
1.00018
1.00033
1.00101
1.00191
1.00544
1.0118
1.02967
1.08112
1.178
1.54083
2.27789
2.48206
2.52411
2.52192
2.52167
2.51227
2.49183
2.4424
2.39299
2.3252
1
1
1.00001
1.00003
1.00005
1.00015
1.00026
1.00083
1.00153
1.00453
1.00929
1.02423
1.06346
1.14232
1.42717
2.10703
2.43071
2.51493
2.50193
2.49511
2.4785
2.46193
2.42547
2.38015
2.32202
1
1
1.00001
1.00002
1.00004
1.00012
1.00021
1.00066
1.0012
1.00369
1.00711
1.02009
1.04536
1.11334
1.30134
1.87784
2.30308
2.48558
2.48385
2.47654
2.45968
2.43954
2.40645
2.36182
2.31167
1
1
1.00001
1.00001
1.00004
1.00007
1.0002
1.00037
1.00115
1.00217
1.00629
1.0132
1.0341
1.08836
1.2068
1.56486
2.24909
2.43216
2.44867
2.444
2.43157
2.41567
2.39352
2.35499
2.30732
1
1
1
1.00001
1.00003
1.00005
1.00015
1.00028