/*--------------------------------*- C++ -*----------------------------------*\
| =========                 |                                                 |
| \\      /  F ield         | OpenFOAM: The Open Source CFD Toolbox           |
|  \\    /   O peration     | Version:  4.1                                   |
|   \\  /    A nd           | Web:      www.OpenFOAM.org                      |
|    \\/     M anipulation  |                                                 |
\*---------------------------------------------------------------------------*/
FoamFile
{
    version     2.0;
    format      ascii;
    class       volScalarField;
    location    "0.4";
    object      Ma;
}
// * * * * * * * * * * * * * * * * * * * * * * * * * * * * * * * * * * * * * //

dimensions      [0 0 0 0 0 0 0];

internalField   nonuniform List<scalar> 
18000
(
5.58196e-12
5.51807e-12
5.44385e-12
5.38138e-12
5.31965e-12
5.25876e-12
5.19859e-12
5.13944e-12
5.08116e-12
5.02444e-12
7.00638e-12
6.75584e-12
6.50543e-12
6.27483e-12
6.05414e-12
5.84293e-12
5.64048e-12
5.44668e-12
5.26069e-12
5.08494e-12
8.90612e-12
8.35455e-12
7.83388e-12
7.35862e-12
6.91793e-12
6.50912e-12
6.12984e-12
5.77712e-12
5.449e-12
5.14648e-12
1.14781e-11
1.04426e-11
9.51087e-12
8.68068e-12
7.93791e-12
7.27159e-12
6.67237e-12
6.13257e-12
5.64544e-12
5.20915e-12
1.50178e-11
1.32055e-11
1.16468e-11
1.03052e-11
9.14832e-12
8.1462e-12
7.27514e-12
6.51565e-12
5.85083e-12
5.27315e-12
1.99781e-11
1.69134e-11
1.43974e-11
1.23166e-11
1.05919e-11
9.15307e-12
7.94619e-12
6.92854e-12
6.06554e-12
5.33792e-12
2.70655e-11
2.19689e-11
1.79793e-11
1.48278e-11
1.23238e-11
1.03165e-11
8.69451e-12
7.37383e-12
6.29036e-12
5.40386e-12
3.74249e-11
2.89736e-11
2.27056e-11
1.79968e-11
1.44241e-11
1.16803e-11
9.54889e-12
7.87601e-12
6.54954e-12
5.49906e-12
2.87798e-09
2.80678e-09
2.63127e-09
2.47491e-09
2.33534e-09
2.21013e-09
2.09726e-09
1.99506e-09
1.90219e-09
1.83961e-09
3.07257e-07
3.8627e-08
3.2834e-08
2.83674e-08
2.46599e-08
2.15551e-08
1.89355e-08
1.67111e-08
1.47609e-08
5.01688e-08
5.78275e-12
5.71387e-12
5.63823e-12
5.57139e-12
5.50577e-12
5.44146e-12
5.37753e-12
5.31514e-12
5.25365e-12
5.19353e-12
7.29274e-12
7.02362e-12
6.76468e-12
6.51858e-12
6.28391e-12
6.05947e-12
5.84519e-12
5.64029e-12
5.4444e-12
5.25786e-12
9.30921e-12
8.71756e-12
8.17643e-12
7.66894e-12
7.2001e-12
6.7662e-12
6.3645e-12
5.99172e-12
5.6456e-12
5.32418e-12
1.20601e-11
1.09494e-11
9.97203e-12
9.08265e-12
8.28958e-12
7.58027e-12
6.94439e-12
6.37326e-12
5.85821e-12
5.39206e-12
1.58786e-11
1.39299e-11
1.2278e-11
1.08326e-11
9.59156e-12
8.52079e-12
7.59314e-12
6.78697e-12
6.08293e-12
5.46247e-12
2.12852e-11
1.79703e-11
1.52738e-11
1.30163e-11
1.11557e-11
9.61089e-12
8.32076e-12
7.23711e-12
6.32098e-12
5.53495e-12
2.91029e-11
2.35456e-11
1.92143e-11
1.57661e-11
1.30468e-11
1.08798e-11
9.13801e-12
7.72671e-12
6.57222e-12
5.60988e-12
4.07016e-11
3.13784e-11
2.44695e-11
1.92636e-11
1.53494e-11
1.23641e-11
1.00601e-11
8.26073e-12
6.83915e-12
5.68781e-12
7.83894e-11
1.36348e-10
1.10342e-10
9.02456e-11
7.4765e-11
6.26445e-11
5.30211e-11
4.52843e-11
3.89958e-11
3.38939e-11
1.98675e-07
3.16917e-08
2.74956e-08
2.40365e-08
2.11868e-08
1.88132e-08
1.68165e-08
1.51218e-08
1.36734e-08
1.27534e-08
4.3744e-13
4.1399e-13
2.61724e-13
2.44982e-13
2.29642e-13
2.15935e-13
2.03988e-13
1.93919e-13
1.85425e-13
1.75148e-13
6.05088e-13
5.34058e-13
4.63907e-13
4.14117e-13
3.69191e-13
3.29192e-13
2.94142e-13
2.64427e-13
2.40174e-13
1.92487e-13
7.21654e-13
6.13221e-13
6.23872e-13
5.49724e-13
4.84594e-13
4.28762e-13
3.81813e-13
3.42736e-13
3.09642e-13
2.1682e-13
9.3772e-13
8.17588e-13
8.85478e-13
7.66958e-13
6.65895e-13
5.81384e-13
5.1098e-13
4.52899e-13
4.03152e-13
2.52961e-13
1.29725e-12
1.19398e-12
1.26716e-12
1.07212e-12
9.10686e-13
7.79405e-13
6.72155e-13
5.84545e-13
5.10036e-13
2.96456e-13
1.89243e-12
1.82316e-12
1.8186e-12
1.49338e-12
1.2344e-12
1.03003e-12
8.67432e-13
7.37369e-13
6.29055e-13
3.46141e-13
2.8774e-12
2.8314e-12
2.61725e-12
2.07301e-12
1.65908e-12
1.34418e-12
1.10127e-12
9.12549e-13
7.59786e-13
4.00631e-13
4.55067e-12
4.43525e-12
3.78171e-12
2.87287e-12
2.216e-12
1.73653e-12
1.38024e-12
1.11213e-12
9.02384e-13
4.59395e-13
1.10816e-10
6.64894e-12
5.31786e-12
3.90657e-12
2.93302e-12
2.24924e-12
1.75678e-12
1.39542e-12
1.11976e-12
6.18497e-13
1.72196e-07
1.49768e-09
1.09259e-09
8.32612e-10
6.45442e-10
5.07992e-10
4.05266e-10
3.27277e-10
2.67265e-10
2.22026e-10
3.86157e-13
3.61438e-13
1.72144e-13
1.5107e-13
1.30716e-13
1.11579e-13
9.37151e-14
7.73738e-14
6.28724e-14
3.67445e-14
5.32948e-13
4.59922e-13
3.86137e-13
3.35718e-13
2.8916e-13
2.47461e-13
2.10669e-13
1.79048e-13
1.52929e-13
7.94235e-14
5.96073e-13
4.88728e-13
5.2376e-13
4.5518e-13
3.95054e-13
3.43935e-13
3.01414e-13
2.6732e-13
2.39174e-13
1.19779e-13
7.28843e-13
6.34115e-13
7.60724e-13
6.57046e-13
5.68453e-13
4.95129e-13
4.34603e-13
3.85281e-13
3.43543e-13
1.71201e-13
9.55802e-13
9.43001e-13
1.10782e-12
9.40803e-13
8.01831e-13
6.88598e-13
5.96187e-13
5.2107e-13
4.56987e-13
2.24925e-13
1.33785e-12
1.48392e-12
1.60989e-12
1.33253e-12
1.10895e-12
9.31535e-13
7.89453e-13
6.75709e-13
5.79947e-13
2.81687e-13
1.97103e-12
2.3606e-12
2.33619e-12
1.87099e-12
1.51122e-12
1.23471e-12
1.01934e-12
8.50831e-13
7.13058e-13
3.41557e-13
3.04099e-12
3.75644e-12
3.39207e-12
2.6128e-12
2.03751e-12
1.61242e-12
1.29262e-12
1.04932e-12
8.57097e-13
4.04612e-13
1.18883e-10
6.229e-12
4.93349e-12
3.63446e-12
2.72477e-12
2.08117e-12
1.61566e-12
1.27378e-12
1.01261e-12
4.70771e-13
1.71353e-07
4.71413e-10
2.38462e-11
1.55483e-11
1.06305e-11
7.45499e-12
5.34496e-12
3.90798e-12
2.90568e-12
2.0215e-12
3.86248e-13
3.61143e-13
1.72534e-13
1.51367e-13
1.30933e-13
1.11707e-13
9.39829e-14
7.75969e-14
6.29207e-14
3.68402e-14
5.33482e-13
4.60264e-13
3.8697e-13
3.36455e-13
2.8986e-13
2.47911e-13
2.10999e-13
1.79475e-13
1.53271e-13
7.95667e-14
5.97224e-13
4.899e-13
5.25386e-13
4.56476e-13
3.95968e-13
3.44846e-13
3.02152e-13
2.6777e-13
2.39429e-13
1.19988e-13
7.31263e-13
6.36764e-13
7.63254e-13
6.59209e-13
5.70105e-13
4.96444e-13
4.35715e-13
3.86173e-13
3.44154e-13
1.71316e-13
9.60295e-13
9.4793e-13
1.11229e-12
9.4424e-13
8.04577e-13
6.90932e-13
5.97905e-13
5.22254e-13
4.57948e-13
2.25605e-13
1.34602e-12
1.49255e-12
1.61709e-12
1.33838e-12
1.11347e-12
9.35172e-13
7.92384e-13
6.77955e-13
5.81719e-13
2.82809e-13
1.98558e-12
2.37595e-12
2.3488e-12
1.88071e-12
1.5188e-12
1.24071e-12
1.02405e-12
8.54428e-13
7.16001e-13
3.43555e-13
3.06677e-12
3.78418e-12
3.41366e-12
2.62918e-12
2.05011e-12
1.62209e-12
1.30013e-12
1.05519e-12
8.61599e-13
4.07799e-13
1.20871e-10
6.31352e-12
4.98075e-12
3.66713e-12
2.74797e-12
2.09797e-12
1.62804e-12
1.28311e-12
1.0198e-12
4.75433e-13
1.78028e-07
4.92079e-10
8.53132e-12
5.07591e-12
3.65575e-12
2.6946e-12
2.02503e-12
1.5493e-12
1.19785e-12
5.55168e-13
3.8635e-13
3.60822e-13
1.73111e-13
1.51879e-13
1.31297e-13
1.12031e-13
9.41301e-14
7.78661e-14
6.32061e-14
3.68648e-14
5.3433e-13
4.60759e-13
3.88252e-13
3.3755e-13
2.90801e-13
2.48662e-13
2.11544e-13
1.79823e-13
1.53753e-13
7.99619e-14
5.99079e-13
4.91716e-13
5.27699e-13
4.58402e-13
3.97605e-13
3.46058e-13
3.03105e-13
2.6844e-13
2.39967e-13
1.20438e-13
7.35081e-13
6.40879e-13
7.67049e-13
6.62328e-13
5.72663e-13
4.9834e-13
4.37142e-13
3.87356e-13
3.44915e-13
1.71891e-13
9.67793e-13
9.55528e-13
1.11856e-12
9.4929e-13
8.08545e-13
6.94188e-13
6.0047e-13
5.24262e-13
4.59481e-13
2.26608e-13
1.36027e-12
1.50614e-12
1.62788e-12
1.34672e-12
1.11997e-12
9.40393e-13
7.96527e-13
6.81066e-13
5.84287e-13
2.84593e-13
2.01231e-12
2.39971e-12
2.36724e-12
1.8948e-12
1.52963e-12
1.24922e-12
1.03072e-12
8.59598e-13
7.2009e-13
3.46401e-13
3.11766e-12
3.82694e-12
3.44572e-12
2.65278e-12
2.06779e-12
1.63562e-12
1.31063e-12
1.06332e-12
8.67871e-13
4.12057e-13
1.25787e-10
6.40307e-12
5.03669e-12
3.70676e-12
2.77677e-12
2.1194e-12
1.6441e-12
1.29528e-12
1.02919e-12
4.81883e-13
1.94013e-07
5.20921e-10
8.65556e-12
5.11901e-12
3.68842e-12
2.71923e-12
2.04392e-12
1.56395e-12
1.20922e-12
5.62367e-13
3.86358e-13
3.60501e-13
1.73757e-13
1.52505e-13
1.31887e-13
1.12549e-13
9.45533e-14
7.8081e-14
6.33762e-14
3.73289e-14
5.35336e-13
4.61435e-13
3.89846e-13
3.38825e-13
2.91926e-13
2.49702e-13
2.12444e-13
1.80503e-13
1.5399e-13
8.03966e-14
6.01365e-13
4.93904e-13
5.30446e-13
4.60741e-13
3.99516e-13
3.47643e-13
3.04213e-13
2.69315e-13
2.40629e-13
1.20966e-13
7.3974e-13
6.45836e-13
7.71594e-13
6.66072e-13
5.75798e-13
5.00851e-13
4.38978e-13
3.88677e-13
3.46151e-13
1.72807e-13
9.76985e-13
9.64775e-13
1.12611e-12
9.55305e-13
8.13354e-13
6.98171e-13
6.03674e-13
5.26724e-13
4.61354e-13
2.28112e-13
1.37783e-12
1.52233e-12
1.64078e-12
1.35692e-12
1.12793e-12
9.46747e-13
8.01672e-13
6.85118e-13
5.87403e-13
2.86968e-13
2.04527e-12
2.42841e-12
2.3893e-12
1.91179e-12
1.54275e-12
1.2596e-12
1.03906e-12
8.66066e-13
7.25145e-13
3.50171e-13
3.17959e-12
3.87823e-12
3.48416e-12
2.68141e-12
2.08936e-12
1.65212e-12
1.32361e-12
1.0734e-12
8.75659e-13
4.17592e-13
1.3153e-10
6.50059e-12
5.10379e-12
3.75494e-12
2.81197e-12
2.14563e-12
1.66407e-12
1.31022e-12
1.0408e-12
4.89887e-13
2.10471e-07
5.49161e-10
8.77414e-12
5.19551e-12
3.7429e-12
2.75871e-12
2.07332e-12
1.5861e-12
1.22579e-12
5.73632e-13
3.86455e-13
3.59676e-13
1.74322e-13
1.52991e-13
1.32528e-13
1.13427e-13
9.59902e-14
8.63167e-14
1.57621e-13
4.83649e-13
5.36239e-13
4.61554e-13
3.91138e-13
3.40078e-13
2.93135e-13
2.50991e-13
2.13898e-13
1.83919e-13
1.78673e-13
3.23447e-13
6.03459e-13
4.95222e-13
5.32676e-13
4.62769e-13
4.01416e-13
3.49555e-13
3.06388e-13
2.71974e-13
2.50658e-13
2.4191e-13
7.44242e-13
6.49138e-13
7.75196e-13
6.69162e-13
5.78508e-13
5.03508e-13
4.41943e-13
3.91918e-13
3.52545e-13
2.32922e-13
9.85723e-13
9.71171e-13
1.1319e-12
9.60256e-13
8.1753e-13
7.01823e-13
6.07624e-13
5.30985e-13
4.67478e-13
2.6252e-13
1.39371e-12
1.5338e-12
1.65041e-12
1.36499e-12
1.13467e-12
9.52737e-13
8.07687e-13
6.91176e-13
5.94334e-13
3.11152e-13
2.07368e-12
2.449e-12
2.40577e-12
1.92521e-12
1.55372e-12
1.26894e-12
1.04782e-12
8.74897e-13
7.33884e-13
3.70084e-13
3.22207e-12
3.91526e-12
3.51271e-12
2.70403e-12
2.10733e-12
1.66684e-12
1.33664e-12
1.08613e-12
8.87686e-13
4.3627e-13
1.12027e-10
6.46855e-12
5.15237e-12
3.79257e-12
2.84113e-12
2.16889e-12
1.68378e-12
1.32818e-12
1.05685e-12
5.09077e-13
1.96236e-07
3.95476e-10
8.32428e-12
5.25316e-12
3.7879e-12
2.79379e-12
2.10149e-12
1.6105e-12
1.24779e-12
5.94992e-13
3.88787e-13
4.07282e-13
2.1848e-13
1.59194e-13
1.60904e-13
3.47694e-13
7.03389e-13
2.64494e-12
1.07397e-11
3.39359e-11
5.45136e-13
5.46369e-13
4.43703e-13
3.57087e-13
2.93427e-13
3.65155e-13
6.08432e-13
1.71913e-12
6.25183e-12
2.18027e-11
6.2334e-13
6.43937e-13
6.12334e-13
4.99619e-13
4.01766e-13
3.90467e-13
6.18104e-13
1.23476e-12
3.94086e-12
1.39567e-11
7.75725e-13
8.51768e-13
8.74238e-13
7.21042e-13
5.86294e-13
5.08659e-13
6.26153e-13
9.92508e-13
2.67976e-12
9.29175e-12
1.02718e-12
1.20489e-12
1.24246e-12
1.02134e-12
8.32554e-13
6.94461e-13
6.94949e-13
9.11358e-13
1.97968e-12
6.43341e-12
1.43675e-12
1.77426e-12
1.762e-12
1.42641e-12
1.15079e-12
9.40109e-13
8.39882e-13
9.97884e-13
1.61544e-12
4.61915e-12
2.09874e-12
2.67312e-12
2.50301e-12
1.97513e-12
1.56248e-12
1.24977e-12
1.04817e-12
1.06967e-12
1.49399e-12
3.43249e-12
3.16786e-12
4.08956e-12
3.57202e-12
2.72556e-12
2.09708e-12
1.63515e-12
1.31636e-12
1.19702e-12
1.46437e-12
2.6391e-12
3.35821e-12
6.24413e-12
5.13763e-12
3.7622e-12
2.79599e-12
2.11507e-12
1.64543e-12
1.38266e-12
1.47368e-12
2.10298e-12
3.06612e-09
4.90778e-10
6.67735e-12
5.13283e-12
3.68687e-12
2.70506e-12
2.03973e-12
1.6225e-12
1.52821e-12
1.74681e-12
2.52941e-12
2.38485e-12
1.52748e-12
1.54715e-13
2.65436e-12
8.54515e-12
2.52323e-11
9.30263e-11
3.83088e-10
7.427e-10
3.56238e-12
3.44957e-12
2.55918e-12
1.16945e-12
1.32375e-12
6.20597e-12
1.85591e-11
6.05833e-11
2.23379e-10
4.59473e-10
4.82974e-12
4.71177e-12
3.73638e-12
2.33094e-12
2.88875e-13
4.08603e-12
1.34339e-11
4.16591e-11
1.40589e-10
2.99946e-10
6.48916e-12
6.29022e-12
5.13704e-12
3.62529e-12
1.46103e-12
2.27741e-12
9.66299e-12
2.97232e-11
9.37445e-11
2.03318e-10
8.70483e-12
8.29854e-12
6.83336e-12
5.10726e-12
2.87246e-12
7.77748e-13
6.73025e-12
2.15895e-11
6.51655e-11
1.42199e-10
1.17196e-11
1.08973e-11
8.92445e-12
6.82988e-12
4.39332e-12
1.26169e-12
4.35704e-12
1.56464e-11
4.66489e-11
1.02134e-10
1.59084e-11
1.43319e-11
1.15479e-11
8.86978e-12
6.07918e-12
2.79439e-12
2.39223e-12
1.13825e-11
3.40111e-11
7.50227e-11
2.18815e-11
1.89566e-11
1.48932e-11
1.13297e-11
7.97447e-12
4.41538e-12
1.12674e-12
8.10887e-12
2.51604e-11
5.61422e-11
1.35087e-10
2.53029e-11
1.92403e-11
1.43418e-11
1.01476e-11
6.14215e-12
1.88991e-12
5.51084e-12
1.88076e-11
4.26514e-11
4.99791e-07
9.1496e-10
2.49764e-11
1.80714e-11
1.26643e-11
7.99293e-12
3.40125e-12
3.45098e-12
1.40962e-11
3.27649e-11
3.39689e-12
3.05472e-12
2.0169e-12
1.93811e-12
8.33438e-12
2.87974e-11
1.14717e-10
5.48346e-10
1.43437e-09
1.7706e-09
4.50291e-12
4.19496e-12
3.20221e-12
1.67117e-12
5.2135e-12
1.98404e-11
7.31074e-11
3.11118e-10
8.42988e-10
1.00694e-09
5.84901e-12
5.51689e-12
4.53619e-12
2.80144e-12
2.80698e-12
1.32465e-11
4.84845e-11
1.90188e-10
5.22223e-10
6.09378e-10
7.57372e-12
7.11789e-12
6.04865e-12
4.32662e-12
1.97296e-12
8.40754e-12
3.29068e-11
1.22661e-10
3.3663e-10
3.86125e-10
9.83827e-12
9.10857e-12
7.81288e-12
6.01486e-12
3.1975e-12
4.8081e-12
2.23421e-11
8.20277e-11
2.24305e-10
2.5413e-10
1.28853e-11
1.1644e-11
9.92776e-12
7.89374e-12
5.02585e-12
2.51472e-12
1.47526e-11
5.59596e-11
1.5368e-10
1.72647e-10
1.7083e-11
1.49482e-11
1.25272e-11
1.00427e-11
7.01015e-12
2.82668e-12
9.28941e-12
3.85568e-11
1.0738e-10
1.20446e-10
2.30145e-11
1.93509e-11
1.57977e-11
1.25641e-11
9.14691e-12
4.73411e-12
5.23968e-12
2.65685e-11
7.62079e-11
8.57256e-11
9.96234e-11
2.53079e-11
1.99992e-11
1.55956e-11
1.15108e-11
6.89954e-12
2.71956e-12
1.80574e-11
5.46989e-11
6.18925e-11
9.55163e-08
4.72129e-09
2.85629e-11
1.92921e-11
1.41705e-11
9.13006e-12
3.11632e-12
1.18165e-11
3.9478e-11
4.50663e-11
1.0147e-12
1.2679e-12
1.5386e-12
3.23271e-12
8.56368e-12
2.52482e-11
8.81496e-11
3.02354e-10
4.95495e-10
1.19224e-10
1.09888e-12
1.26813e-12
1.4048e-12
2.44827e-12
6.08678e-12
1.75603e-11
5.83408e-11
1.89094e-10
2.92605e-10
8.45685e-11
1.1867e-12
1.30854e-12
1.39585e-12
1.97582e-12
4.36193e-12
1.23183e-11
3.95303e-11
1.22328e-10
1.79559e-10
7.13791e-11
1.27678e-12
1.37633e-12
1.46376e-12
1.78298e-12
3.21536e-12
8.69901e-12
2.72804e-11
8.14713e-11
1.13908e-10
5.75825e-11
1.37141e-12
1.46039e-12
1.56677e-12
1.76835e-12
2.52992e-12
6.18455e-12
1.90807e-11
5.55852e-11
7.4282e-11
4.51382e-11
1.47605e-12
1.55778e-12
1.68313e-12
1.84297e-12
2.20719e-12
4.47742e-12
1.3441e-11
3.87746e-11
4.95859e-11
3.53289e-11
1.5956e-12
1.66762e-12
1.80501e-12
1.95649e-12
2.12691e-12
3.37285e-12
9.51326e-12
2.73314e-11
3.37969e-11
2.79609e-11
1.74558e-12
1.79221e-12
1.93338e-12
2.08236e-12
2.17379e-12
2.74857e-12
6.80866e-12
1.94585e-11
2.33323e-11
2.24924e-11
2.68488e-10
3.28577e-12
2.06798e-12
2.21445e-12
2.27921e-12
2.47371e-12
4.96381e-12
1.39718e-11
1.62089e-11
1.84254e-11
1.64307e-07
4.73264e-09
8.1703e-12
2.33897e-12
2.40056e-12
2.4097e-12
3.74127e-12
1.00915e-11
1.12439e-11
1.52565e-11
7.89453e-13
1.49966e-12
1.60827e-12
2.51952e-12
4.15007e-12
7.13432e-12
1.47557e-11
5.42008e-11
2.58939e-10
7.93862e-10
7.24562e-13
1.34722e-12
1.39421e-12
2.1492e-12
3.48634e-12
5.90498e-12
1.12898e-11
3.37278e-11
1.56941e-10
4.41797e-10
6.61787e-13
1.20448e-12
1.20039e-12
1.82464e-12
2.92298e-12
4.87429e-12
8.86776e-12
2.23668e-11
9.89539e-11
2.6218e-10
6.08289e-13
1.08284e-12
1.03944e-12
1.56137e-12
2.46581e-12
4.05803e-12
7.13108e-12
1.57832e-11
6.46447e-11
1.63722e-10
5.62221e-13
9.78618e-13
9.04112e-13
1.34018e-12
2.09232e-12
3.40892e-12
5.82645e-12
1.1728e-11
4.34832e-11
1.06498e-10
5.22706e-13
8.89626e-13
7.9039e-13
1.15905e-12
1.79105e-12
2.87904e-12
4.82482e-12
9.06461e-12
2.99791e-11
7.15962e-11
4.88591e-13
8.12787e-13
6.94328e-13
1.00706e-12
1.53739e-12
2.44481e-12
4.04534e-12
7.21341e-12
2.11182e-11
4.94623e-11
4.82972e-13
7.46204e-13
6.13498e-13
8.78452e-13
1.32792e-12
2.09197e-12
3.41961e-12
5.87371e-12
1.51606e-11
3.49745e-11
4.33099e-10
7.88474e-12
5.47895e-13
7.70247e-13
1.15378e-12
1.8004e-12
2.90957e-12
4.86551e-12
1.10769e-11
2.52307e-11
1.63142e-07
1.57413e-08
4.99551e-11
7.29824e-13
9.9835e-13
1.54934e-12
2.48158e-12
4.07223e-12
8.20835e-12
1.85062e-11
1.06403e-12
1.85577e-12
1.62115e-12
2.17321e-12
3.02659e-12
4.38839e-12
6.95145e-12
1.35077e-11
5.18917e-11
1.48923e-10
9.90797e-13
1.70156e-12
1.45326e-12
1.93831e-12
2.6764e-12
3.82075e-12
5.80497e-12
1.04269e-11
3.68743e-11
9.24849e-11
9.19729e-13
1.55346e-12
1.29155e-12
1.71334e-12
2.35094e-12
3.3238e-12
4.9041e-12
8.14548e-12
2.62578e-11
6.06215e-11
8.57711e-13
1.42445e-12
1.15293e-12
1.51901e-12
2.07349e-12
2.90679e-12
4.21177e-12
6.58284e-12
1.88907e-11
4.13855e-11
8.03852e-13
1.31193e-12
1.03365e-12
1.35213e-12
1.83792e-12
2.55803e-12
3.65988e-12
5.47757e-12
1.37475e-11
2.91041e-11
7.5679e-13
1.21334e-12
9.30343e-13
1.20879e-12
1.63257e-12
2.25993e-12
3.2098e-12
4.6623e-12
1.01027e-11
2.09547e-11
7.15424e-13
1.12644e-12
8.40924e-13
1.08446e-12
1.45583e-12
2.00663e-12
2.83098e-12
4.03261e-12
7.48816e-12
1.53793e-11
7.10019e-13
1.0497e-12
7.63305e-13
9.7628e-13
1.30236e-12
1.78618e-12
2.50596e-12
3.52728e-12
5.59698e-12
1.14614e-11
6.42969e-10
1.40342e-11
7.0395e-13
8.81967e-13
1.16903e-12
1.59447e-12
2.22913e-12
3.10769e-12
4.21845e-12
8.64064e-12
2.00613e-07
2.77931e-08
1.22907e-10
1.10121e-12
1.04132e-12
1.42505e-12
1.98446e-12
2.74583e-12
3.18922e-12
6.56367e-12
1.47754e-12
2.34669e-12
1.63234e-12
1.90166e-12
2.28258e-12
2.82827e-12
3.80085e-12
5.94258e-12
1.56049e-11
2.51363e-11
1.39749e-12
2.19597e-12
1.51571e-12
1.76921e-12
2.12196e-12
2.60305e-12
3.36396e-12
4.86304e-12
1.21123e-11
1.91711e-11
1.3176e-12
2.04625e-12
1.393e-12
1.62761e-12
1.9532e-12
2.3843e-12
3.01193e-12
4.08842e-12
9.24739e-12
1.46618e-11
1.24695e-12
1.91237e-12
1.28213e-12
1.49819e-12
1.79884e-12
2.19189e-12
2.7341e-12
3.54455e-12
7.05337e-12
1.1327e-11
1.18443e-12
1.79248e-12
1.18258e-12
1.38064e-12
1.65893e-12
2.01979e-12
2.50442e-12
3.1493e-12
5.37933e-12
8.81147e-12
1.12889e-12
1.68457e-12
1.09337e-12
1.27479e-12
1.53045e-12
1.86401e-12
2.30339e-12
2.84623e-12
4.09963e-12
6.88699e-12
1.0794e-12
1.5876e-12
1.01335e-12
1.17884e-12
1.41351e-12
1.72186e-12
2.12812e-12
2.59911e-12
3.12342e-12
5.39652e-12
1.06932e-12
1.50006e-12
9.41302e-13
1.09199e-12
1.30728e-12
1.59219e-12
1.96867e-12
2.39196e-12
2.37547e-12
4.23899e-12
8.39073e-10
2.06747e-11
8.88358e-13
1.01299e-12
1.2104e-12
1.47337e-12
1.8228e-12
2.21003e-12
1.8012e-12
3.335e-12
1.629e-07
3.85101e-08
1.94945e-10
1.44602e-12
1.1086e-12
1.36232e-12
1.68389e-12
2.04098e-12
1.35077e-12
2.61475e-12
2.08599e-12
2.97695e-12
1.58871e-12
1.60359e-12
1.66523e-12
1.79882e-12
2.14587e-12
2.95663e-12
6.64664e-12
8.40456e-12
2.00094e-12
2.83924e-12
1.52989e-12
1.5615e-12
1.63171e-12
1.74521e-12
1.98994e-12
2.53501e-12
5.39128e-12
6.9993e-12
1.91556e-12
2.6978e-12
1.45419e-12
1.49862e-12
1.57823e-12
1.68509e-12
1.87124e-12
2.23283e-12
4.26287e-12
5.72908e-12
1.83834e-12
2.56727e-12
1.38027e-12
1.43342e-12
1.52053e-12
1.62759e-12
1.78391e-12
2.03022e-12
3.35377e-12
4.68799e-12
1.76861e-12
2.44693e-12
1.3092e-12
1.36885e-12
1.46155e-12
1.57084e-12
1.71305e-12
1.8926e-12
2.6207e-12
3.83547e-12
1.70544e-12
2.33598e-12
1.2422e-12
1.30507e-12
1.40121e-12
1.51402e-12
1.65245e-12
1.79275e-12
2.02951e-12
3.13327e-12
1.64816e-12
2.23394e-12
1.17902e-12
1.24321e-12
1.34082e-12
1.45628e-12
1.59497e-12
1.7153e-12
1.54904e-12
2.55358e-12
1.62992e-12
2.13997e-12
1.11972e-12
1.18414e-12
1.2819e-12
1.3982e-12
1.53754e-12
1.65035e-12
1.16092e-12
2.07344e-12
1.0273e-09
2.66637e-11
1.07799e-12
1.12737e-12
1.22452e-12
1.34097e-12
1.48067e-12
1.59209e-12
8.48876e-13
1.67518e-12
5.07521e-08
4.41346e-08
4.43038e-10
9.59342e-13
1.15363e-12
1.28231e-12
1.42002e-12
1.53129e-12
5.86899e-13
1.34201e-12
2.92161e-12
3.69935e-12
1.41765e-12
1.21424e-12
1.06759e-12
1.00318e-12
1.13613e-12
1.5385e-12
3.36141e-12
3.78007e-12
2.83709e-12
3.58964e-12
1.41847e-12
1.24852e-12
1.12035e-12
1.03658e-12
1.07883e-12
1.3305e-12
2.88144e-12
3.34938e-12
2.75173e-12
3.47249e-12
1.39691e-12
1.25777e-12
1.15141e-12
1.06651e-12
1.05569e-12
1.18581e-12
2.37387e-12
2.87615e-12
2.67283e-12
3.36023e-12
1.36771e-12
1.25481e-12
1.16956e-12
1.09284e-12
1.05633e-12
1.10074e-12
1.93854e-12
2.46513e-12
2.59995e-12
3.25364e-12
1.33484e-12
1.24404e-12
1.17768e-12
1.11315e-12
1.06776e-12
1.05968e-12
1.56531e-12
2.10811e-12
2.53264e-12
3.1525e-12
1.29895e-12
1.22681e-12
1.17752e-12
1.12678e-12
1.0833e-12
1.04564e-12
1.24463e-12
1.79761e-12
2.47056e-12
3.05706e-12
1.26152e-12
1.20516e-12
1.17101e-12
1.13389e-12
1.0979e-12
1.04616e-12
9.70571e-13
1.52773e-12
2.44611e-12
2.9672e-12
1.22369e-12
1.18074e-12
1.15911e-12
1.13469e-12
1.10855e-12
1.05389e-12
7.36437e-13
1.29474e-12
1.23102e-09
3.07065e-11
1.20482e-12
1.15399e-12
1.1435e-12
1.13036e-12
1.11411e-12
1.06368e-12
5.37284e-13
1.09443e-12
7.8776e-08
4.17708e-08
4.2809e-10
1.59022e-12
1.11329e-12
1.11957e-12
1.11292e-12
1.06901e-12
3.62898e-13
9.26023e-13
3.93633e-12
4.40787e-12
1.09468e-12
7.60609e-13
4.95087e-13
3.49512e-13
4.85959e-13
7.93639e-13
2.03495e-12
2.06042e-12
3.8584e-12
4.33914e-12
1.1403e-12
8.42637e-13
6.00427e-13
4.20054e-13
4.29917e-13
6.47932e-13
1.86883e-12
1.94744e-12
3.78087e-12
4.26337e-12
1.16335e-12
9.00772e-13
6.84512e-13
4.99583e-13
4.26283e-13
5.38484e-13
1.62662e-12
1.75256e-12
3.70755e-12
4.18648e-12
1.17484e-12
9.43527e-13
7.51188e-13
5.74241e-13
4.58865e-13
4.72369e-13
1.4106e-12
1.57655e-12
3.63812e-12
4.11055e-12
1.17805e-12
9.74286e-13
8.04733e-13
6.40586e-13
5.08777e-13
4.50029e-13
1.21797e-12
1.41734e-12
3.57342e-12
4.03592e-12
1.17449e-12
9.95969e-13
8.47717e-13
6.98552e-13
5.63969e-13
4.61791e-13
1.04794e-12
1.27452e-12
3.51235e-12
3.96301e-12
1.16611e-12
1.01013e-12
8.80794e-13
7.47469e-13
6.18067e-13
4.94289e-13
8.99586e-13
1.14745e-12
3.48616e-12
3.89308e-12
1.15422e-12
1.01807e-12
9.06125e-13
7.88214e-13
6.67894e-13
5.37028e-13
7.72201e-13
1.03507e-12
1.41929e-09
3.21085e-11
1.16883e-12
1.02109e-12
9.2562e-13
8.21867e-13
7.11791e-13
5.82939e-13
6.65619e-13
9.37213e-13
2.2083e-07
2.97817e-08
3.89209e-10
2.46996e-12
9.33546e-13
8.47321e-13
7.49051e-13
6.25163e-13
5.79909e-13
8.57515e-13
4.93431e-12
4.96125e-12
7.35655e-13
4.98421e-13
2.72102e-13
1.52442e-13
2.66992e-13
4.63329e-13
1.46518e-12
1.31912e-12
4.86673e-12
4.93748e-12
7.6849e-13
5.36127e-13
3.10935e-13
1.24626e-13
1.63707e-13
3.59292e-13
1.45532e-12
1.33819e-12
4.80176e-12
4.90949e-12
7.92382e-13
5.72492e-13
3.60478e-13
1.62283e-13
7.65521e-14
2.60309e-13
1.34954e-12
1.26388e-12
4.73867e-12
4.87641e-12
8.11672e-13
6.05513e-13
4.1016e-13
2.20308e-13
4.52957e-14
1.68878e-13
1.25338e-12
1.19514e-12
4.67853e-12
4.8405e-12
8.26683e-13
6.35744e-13
4.57145e-13
2.80565e-13
1.08227e-13
8.78252e-14
1.16551e-12
1.13159e-12
4.62076e-12
4.80209e-12
8.37934e-13
6.6192e-13
4.99901e-13
3.3711e-13
1.76218e-13
3.84503e-14
1.08577e-12
1.07338e-12
4.56583e-12
4.76269e-12
8.45746e-13
6.84281e-13
5.38002e-13
3.89085e-13
2.38972e-13
8.08894e-14
1.01472e-12
1.02031e-12
4.5431e-12
4.72356e-12
8.5007e-13
7.02593e-13
5.71375e-13
4.35436e-13
2.95915e-13
1.42798e-13
9.51486e-13
9.72537e-13
1.56342e-09
3.11517e-11
9.00372e-13
7.17923e-13
6.00372e-13
4.76614e-13
3.47975e-13
2.02252e-13
8.96346e-13
9.29444e-13
3.49804e-07
1.40752e-08
2.45723e-10
2.09987e-12
6.24725e-13
5.13323e-13
3.94943e-13
2.58106e-13
8.48805e-13
9.00268e-13
5.58373e-12
5.24787e-12
5.70867e-13
6.04584e-13
5.10471e-13
4.40982e-13
4.00649e-13
4.08433e-13
1.22905e-12
1.00747e-12
5.52328e-12
5.25367e-12
5.08545e-13
5.44202e-13
4.57734e-13
3.93242e-13
3.55092e-13
3.6904e-13
1.29268e-12
1.08384e-12
5.46759e-12
5.25894e-12
4.55643e-13
4.90297e-13
4.10548e-13
3.48644e-13
3.12087e-13
3.27074e-13
1.2508e-12
1.06126e-12
5.41323e-12
5.25803e-12
4.15336e-13
4.44921e-13
3.70225e-13
3.10762e-13
2.7366e-13
2.88477e-13
1.21087e-12
1.03892e-12
5.36036e-12
5.25214e-12
3.86676e-13
4.08606e-13
3.38819e-13
2.80063e-13
2.40655e-13
2.5295e-13
1.1729e-12
1.01811e-12
5.30978e-12
5.24296e-12
3.68259e-13
3.80146e-13
3.13864e-13
2.55544e-13
2.13438e-13
2.21938e-13
1.13691e-12
9.97938e-13
5.26092e-12
5.23072e-12
3.57182e-13
3.58236e-13
2.95812e-13
2.38264e-13
1.93322e-13
1.94457e-13
1.10261e-12
9.79351e-13
5.24271e-12
5.2173e-12
3.51736e-13
3.41842e-13
2.83408e-13
2.26906e-13
1.7852e-13
1.72342e-13
1.07053e-12
9.60891e-13
1.64084e-09
2.94562e-11
4.54481e-13
3.30313e-13
2.75674e-13
2.21215e-13
1.71449e-13
1.55995e-13
1.03927e-12
9.43415e-13
4.29346e-07
1.10456e-08
1.80522e-10
1.49692e-12
2.69956e-13
2.23292e-13
1.74773e-13
1.52721e-13
1.01089e-12
9.59937e-13
5.58915e-12
5.2186e-12
5.70809e-13
6.29868e-13
5.40138e-13
4.661e-13
4.12224e-13
4.00996e-13
1.16084e-12
9.61732e-13
5.52856e-12
5.22664e-12
4.90448e-13
5.60567e-13
4.83524e-13
4.18723e-13
3.71723e-13
3.69566e-13
1.23421e-12
1.04189e-12
5.47313e-12
5.23487e-12
4.19695e-13
4.96929e-13
4.30342e-13
3.73072e-13
3.31734e-13
3.33053e-13
1.20018e-12
1.02275e-12
5.41909e-12
5.23657e-12
3.61631e-13
4.40633e-13
3.82871e-13
3.32119e-13
2.95039e-13
2.99502e-13
1.1676e-12
1.00393e-12
5.36688e-12
5.23369e-12
3.16848e-13
3.93315e-13
3.42278e-13
2.95952e-13
2.6194e-13
2.68097e-13
1.13631e-12
9.86373e-13
5.3168e-12
5.22696e-12
2.8464e-13
3.5347e-13
3.07965e-13
2.65274e-13
2.32785e-13
2.39138e-13
1.10653e-12
9.69681e-13
5.26846e-12
5.21721e-12
2.6351e-13
3.2053e-13
2.79437e-13
2.39449e-13
2.07845e-13
2.13159e-13
1.07789e-12
9.53948e-13
5.25057e-12
5.20592e-12
2.52054e-13
2.94149e-13
2.56616e-13
2.18624e-13
1.86585e-13
1.9006e-13
1.05084e-12
9.38756e-13
1.64084e-09
2.94552e-11
3.77592e-13
2.73495e-13
2.38879e-13
2.02994e-13
1.7109e-13
1.707e-13
1.0243e-12
9.24101e-13
4.29346e-07
1.10456e-08
1.80501e-10
1.46067e-12
2.22546e-13
1.95848e-13
1.65632e-13
1.62012e-13
9.99793e-13
9.5439e-13
4.94205e-12
4.88131e-12
6.7734e-13
5.13939e-13
3.33364e-13
2.27923e-13
2.6227e-13
4.00985e-13
1.22995e-12
1.16844e-12
4.87621e-12
4.86588e-12
6.88721e-13
5.20817e-13
3.35984e-13
1.94517e-13
1.82501e-13
3.17208e-13
1.25301e-12
1.19927e-12
4.81333e-12
4.84679e-12
7.0094e-13
5.35592e-13
3.56555e-13
1.97654e-13
1.18616e-13
2.32707e-13
1.17569e-12
1.13729e-12
4.75245e-12
4.82209e-12
7.13237e-13
5.53544e-13
3.8497e-13
2.24631e-13
9.02355e-14
1.54186e-13
1.10529e-12
1.08027e-12
4.69428e-12
4.79444e-12
7.25494e-13
5.73173e-13
4.17017e-13
2.63505e-13
1.14654e-13
8.44465e-14
1.04097e-12
1.02824e-12
4.63834e-12
4.76388e-12
7.36274e-13
5.92788e-13
4.49685e-13
3.05992e-13
1.617e-13
3.9233e-14
9.83404e-13
9.8133e-13
4.58497e-12
4.73164e-12
7.4509e-13
6.10961e-13
4.80821e-13
3.47987e-13
2.12555e-13
6.9392e-14
9.31993e-13
9.39089e-13
4.56386e-12
4.69875e-12
7.51814e-13
6.27301e-13
5.09638e-13
3.87436e-13
2.61459e-13
1.22801e-13
8.86574e-13
9.01288e-13
1.56342e-09
3.11508e-11
8.07111e-13
6.41585e-13
5.35765e-13
4.24228e-13
3.07589e-13
1.75947e-13
8.47462e-13
8.68524e-13
3.49804e-07
1.40752e-08
2.45682e-10
2.03782e-12
5.58203e-13
4.57773e-13
3.50389e-13
2.27388e-13
8.14031e-13
8.59423e-13
3.94023e-12
4.30625e-12
9.62277e-13
6.55012e-13
3.94712e-13
2.17705e-13
3.33385e-13
6.08191e-13
1.51632e-12
1.7327e-12
3.86824e-12
4.25389e-12
1.01133e-12
7.33476e-13
4.98319e-13
3.06823e-13
2.92056e-13
4.9079e-13
1.42586e-12
1.65239e-12
3.79654e-12
4.19283e-12
1.04177e-12
7.93926e-13
5.83725e-13
3.97156e-13
3.0486e-13
4.00196e-13
1.25007e-12
1.48949e-12
3.72734e-12
4.12943e-12
1.06114e-12
8.40061e-13
6.52846e-13
4.77441e-13
3.51429e-13
3.49181e-13
1.09196e-12
1.34221e-12
3.66206e-12
4.06532e-12
1.07295e-12
8.76366e-13
7.0988e-13
5.47939e-13
4.11183e-13
3.40805e-13
9.5112e-13
1.20975e-12
3.60021e-12
4.00129e-12
1.0779e-12
9.03375e-13
7.56473e-13
6.0945e-13
4.73332e-13
3.64179e-13
8.27745e-13
1.09171e-12
3.54187e-12
3.9381e-12
1.07791e-12
9.23283e-13
7.93975e-13
6.6171e-13
5.31775e-13
4.06071e-13
7.2118e-13
9.87756e-13
3.51788e-12
3.87664e-12
1.0733e-12
9.37121e-13
8.24323e-13
7.06071e-13
5.85342e-13
4.55026e-13
6.325e-13
8.96811e-13
1.41929e-09
3.21108e-11
1.0944e-12
9.4641e-13
8.48323e-13
7.43456e-13
6.32776e-13
5.05129e-13
5.60927e-13
8.19161e-13
2.2083e-07
2.97817e-08
3.8918e-10
2.41986e-12
8.61613e-13
7.72897e-13
6.73233e-13
5.5108e-13
5.07307e-13
7.62385e-13
2.9278e-12
3.6084e-12
1.25764e-12
1.03687e-12
8.76715e-13
7.89215e-13
8.64398e-13
1.15593e-12
2.23078e-12
3.0234e-12
2.85288e-12
3.52105e-12
1.27997e-12
1.09042e-12
9.47072e-13
8.45749e-13
8.49736e-13
1.02337e-12
1.94641e-12
2.70225e-12
2.77482e-12
3.42253e-12
1.27808e-12
1.1184e-12
9.95743e-13
8.95508e-13
8.57593e-13
9.344e-13
1.60546e-12
2.32241e-12
2.70148e-12
3.32614e-12
1.26673e-12
1.13242e-12
1.02969e-12
9.38099e-13
8.80447e-13
8.90339e-13
1.30613e-12
1.99047e-12
2.6329e-12
3.2326e-12
1.24879e-12
1.13725e-12
1.0526e-12
9.72848e-13
9.1045e-13
8.77826e-13
1.04715e-12
1.70072e-12
2.56885e-12
3.1427e-12
1.22643e-12
1.13411e-12
1.06641e-12
9.99895e-13
9.40969e-13
8.84893e-13
8.22598e-13
1.44831e-12
2.50932e-12
3.05632e-12
1.20098e-12
1.12546e-12
1.07242e-12
1.01867e-12
9.6766e-13
9.01946e-13
6.28057e-13
1.2297e-12
2.48647e-12
2.97453e-12
1.17337e-12
1.11221e-12
1.07262e-12
1.03113e-12
9.89004e-13
9.22889e-13
4.59999e-13
1.04155e-12
1.23102e-09
3.07118e-11
1.16233e-12
1.09591e-12
1.06756e-12
1.03755e-12
1.00544e-12
9.43672e-13
3.17776e-13
8.81047e-13
7.8776e-08
4.17708e-08
4.28071e-10
1.54926e-12
1.04791e-12
1.03699e-12
1.01407e-12
9.59035e-13
1.90624e-13
7.48631e-13
2.10546e-12
2.91815e-12
1.43292e-12
1.38581e-12
1.38734e-12
1.44599e-12
1.64708e-12
2.12816e-12
3.86222e-12
6.26406e-12
2.02981e-12
2.80508e-12
1.40685e-12
1.38106e-12
1.395e-12
1.44488e-12
1.58488e-12
1.90533e-12
3.2024e-12
5.27252e-12
1.9504e-12
2.68196e-12
1.3587e-12
1.35066e-12
1.37716e-12
1.42745e-12
1.53421e-12
1.74386e-12
2.55527e-12
4.33156e-12
1.87725e-12
2.56581e-12
1.30722e-12
1.3131e-12
1.35048e-12
1.40585e-12
1.49822e-12
1.63745e-12
2.02211e-12
3.5544e-12
1.81043e-12
2.457e-12
1.25461e-12
1.27164e-12
1.31847e-12
1.37999e-12
1.46869e-12
1.56738e-12
1.58591e-12