/*--------------------------------*- C++ -*----------------------------------*\
| =========                 |                                                 |
| \\      /  F ield         | OpenFOAM: The Open Source CFD Toolbox           |
|  \\    /   O peration     | Version:  4.1                                   |
|   \\  /    A nd           | Web:      www.OpenFOAM.org                      |
|    \\/     M anipulation  |                                                 |
\*---------------------------------------------------------------------------*/
FoamFile
{
    version     2.0;
    format      ascii;
    class       surfaceScalarField;
    location    "0.4";
    object      phi;
}
// * * * * * * * * * * * * * * * * * * * * * * * * * * * * * * * * * * * * * //

dimensions      [1 0 -1 0 0 0 0];

internalField   nonuniform List<scalar> 
51500
(
3.67719e-13
1.18616e-14
1.50437e-11
-1.72315e-15
1.90354e-14
1.4871e-11
-2.38177e-15
1.80293e-14
1.47002e-11
-2.37399e-15
1.69052e-14
1.45316e-11
-2.31691e-15
1.57207e-14
1.4365e-11
-2.27929e-15
1.44942e-14
1.42007e-11
-2.31079e-15
1.32553e-14
1.40382e-11
-2.27765e-15
1.20148e-14
1.38785e-11
-2.26101e-15
1.07541e-14
1.37211e-11
9.49077e-15
1.35678e-11
-7.45931e-17
3.72012e-13
8.72373e-15
1.88974e-11
-1.00891e-14
9.2755e-15
1.82204e-11
-8.90307e-15
7.97322e-15
1.75695e-11
-8.72889e-15
6.90254e-15
1.69465e-11
-8.48558e-15
6.02461e-15
1.63502e-11
-8.21604e-15
5.17905e-15
1.57795e-11
-7.99147e-15
4.06966e-15
1.52326e-11
-7.78785e-15
2.8942e-15
1.47089e-11
-7.46697e-15
1.79094e-15
1.42064e-11
7.64012e-16
1.37314e-11
-7.77373e-16
3.73405e-13
9.57005e-15
2.40378e-11
-2.13726e-14
1.08113e-14
2.25478e-11
-1.7537e-14
8.95331e-15
2.11616e-11
-1.67106e-14
7.29223e-15
1.9877e-11
-1.5875e-14
5.80586e-15
1.86859e-11
-1.51894e-14
4.47312e-15
1.7581e-11
-1.44542e-14
3.28928e-15
1.65559e-11
-1.38447e-14
2.22471e-15
1.56026e-11
-1.3034e-14
1.28214e-15
1.47158e-11
4.74408e-16
1.38981e-11
-1.46389e-15
3.70085e-13
1.21486e-14
3.09979e-11
-3.69411e-14
1.3152e-14
2.82003e-11
-2.87345e-14
1.06128e-14
2.56968e-11
-2.67655e-14
8.41141e-15
2.34522e-11
-2.49156e-14
6.53493e-15
2.14441e-11
-2.3247e-14
4.92659e-15
1.96428e-11
-2.17214e-14
3.54782e-15
1.8023e-11
-2.0344e-14
2.35129e-15
1.65639e-11
-1.87768e-14
1.32522e-15
1.52472e-11
4.64185e-16
1.40677e-11
-2.22153e-15
3.58e-13
1.58308e-14
4.05797e-11
-5.818e-14
1.62591e-14
3.56817e-11
-4.35894e-14
1.27005e-14
3.1475e-11
-3.94785e-14
9.77971e-15
2.78466e-11
-3.58405e-14
7.40008e-15
2.47181e-11
-3.26461e-14
5.44716e-15
2.20084e-11
-2.99042e-14
3.82593e-15
1.96533e-11
-2.74249e-14
2.48783e-15
1.76001e-11
-2.48469e-14
1.37875e-15
1.58029e-11
4.87252e-16
1.4241e-11
-2.98958e-15
3.30724e-13
2.13045e-14
5.40119e-11
-1.0493e-13
2.0465e-14
4.57252e-11
-6.33193e-14
1.54094e-14
3.89185e-11
-5.56225e-14
1.14688e-14
3.32889e-11
-4.91333e-14
8.42254e-15
2.86238e-11
-4.37115e-14
6.0271e-15
2.47324e-11
-3.9079e-14
4.13814e-15
2.14688e-11
-3.50927e-14
2.63179e-15
1.87172e-11
-3.11772e-14
1.43038e-15
1.63841e-11
4.86308e-16
1.44166e-11
-3.83049e-15
2.74999e-13
4.16281e-14
7.32125e-11
-1.7157e-13
3.27235e-14
5.94239e-11
-8.99929e-14
2.36781e-14
4.86146e-11
-7.63408e-14
1.70509e-14
4.00855e-11
-6.54669e-14
1.21881e-14
3.33106e-11
-5.6636e-14
8.55371e-15
2.78805e-11
-4.9428e-14
5.798e-15
2.34937e-11
-4.34228e-14
3.69418e-15
1.99223e-11
-3.78695e-14
2.06799e-15
1.69928e-11
8.00348e-16
1.45954e-11
-4.67118e-15
1.963e-13
-1.16675e-13
1.01296e-10
-2.54974e-13
-1.3212e-13
7.84097e-11
-1.26086e-13
-1.44906e-13
6.1401e-11
-1.02902e-13
-1.53291e-13
4.86438e-11
-8.53317e-14
-1.58941e-13
3.8966e-11
-7.16947e-14
-1.62757e-13
3.15333e-11
-6.09207e-14
-1.65343e-13
2.57591e-11
-5.22887e-14
-1.67099e-13
2.12262e-11
-4.46187e-14
-1.68292e-13
1.76308e-11
-1.70768e-13
1.47798e-11
-5.58776e-15
2.17229e-12
-5.30487e-10
1.53659e-10
1.61325e-12
-5.56719e-10
1.13841e-10
1.45869e-12
-5.58565e-10
8.68393e-11
1.32195e-12
-5.59838e-10
6.77447e-11
1.20071e-12
-5.60783e-10
5.40555e-11
1.09364e-12
-5.61487e-10
4.40908e-11
9.99094e-13
-5.62009e-10
3.67431e-11
9.15519e-13
-5.62393e-10
3.12635e-11
8.35597e-13
-5.62689e-10
2.71335e-11
-5.69778e-10
2.41126e-11
-6.53405e-15
-1.20487e-10
9.59545e-08
-8.75268e-07
2.17215e-10
8.0758e-08
-9.37764e-07
2.18069e-10
7.02338e-08
-9.39548e-07
2.10436e-10
6.15979e-08
-9.4097e-07
2.02711e-10
5.44283e-08
-9.42197e-07
1.95109e-10
4.84184e-08
-9.4327e-07
1.87754e-10
4.33356e-08
-9.44218e-07
1.79933e-10
3.90019e-08
-9.45064e-07
1.16011e-10
3.5281e-08
-9.4586e-07
3.24467e-08
-7.54019e-15
-9.70192e-07
3.43219e-13
9.1736e-14
4.09686e-13
-1.97214e-14
8.6369e-14
4.02536e-13
-2.5802e-14
7.60663e-14
3.95794e-13
-2.51495e-14
6.61013e-14
3.87846e-13
-2.48144e-14
5.6472e-14
3.80694e-13
-2.46278e-14
4.71615e-14
3.74366e-13
-2.44382e-14
3.81656e-14
3.67149e-13
-2.42457e-14
2.94826e-14
3.6091e-13
-2.63221e-14
2.10556e-14
3.54613e-13
1.30172e-14
3.48028e-13
-1.59942e-15
2.84059e-13
8.68224e-14
5.71275e-13
-7.32088e-14
7.87987e-14
5.4175e-13
-8.73428e-14
6.67257e-14
5.14482e-13
-8.44486e-14
5.51977e-14
4.86749e-13
-8.20428e-14
4.41568e-14
4.61463e-13
-7.98063e-14
3.28958e-14
4.37076e-13
-7.74853e-14
2.15815e-14
4.14931e-13
-7.59558e-14
1.40882e-14
3.93709e-13
-8.04076e-14
7.79908e-15
3.7454e-13
2.59157e-15
3.55078e-13
-4.33616e-15
1.95427e-13
1.09752e-13
8.09249e-13
-1.85187e-13
9.75193e-14
7.37076e-13
-1.66623e-13
8.14222e-14
6.75627e-13
-1.58085e-13
6.67037e-14
6.15023e-13
-1.50479e-13
5.34282e-14
5.61724e-13
-1.43465e-13
4.14364e-14
5.13743e-13
-1.36822e-13
3.05989e-14
4.70419e-13
-1.31152e-13
2.08367e-14
4.31171e-13
-1.37072e-13
1.20704e-14
3.95681e-13
4.25203e-15
3.63459e-13
-7.0124e-15
7.14143e-14
1.3518e-13
1.16953e-12
-3.19631e-13
1.16709e-13
1.02201e-12
-2.68862e-13
9.51501e-14
8.98817e-13
-2.49277e-13
7.61868e-14
7.85958e-13
-2.32363e-13
5.96716e-14
6.89683e-13
-2.17053e-13
4.52749e-14
6.06908e-13
-2.02899e-13
3.27757e-14
5.35865e-13
-1.90533e-13
2.19012e-14
4.7476e-13
-1.95511e-13
1.24277e-14
4.20003e-13
4.29076e-15
3.71765e-13
-9.95102e-15
-5.69317e-14
1.68438e-13
1.72888e-12
-4.90949e-13
1.41029e-13
1.44366e-12
-4.00337e-13
1.12031e-13
1.21339e-12
-3.6239e-13
8.74679e-14
1.01492e-12
-3.30355e-13
6.68769e-14
8.54041e-13
-3.01707e-13
4.96215e-14
7.22304e-13
-2.76261e-13
3.51317e-14
6.13303e-13
-2.54505e-13
2.29958e-14
5.23002e-13
-2.56123e-13
1.28013e-14
4.47197e-13
4.33583e-15
3.81562e-13
-1.31256e-14
-2.0819e-13
2.12338e-13
2.62222e-12
-7.15624e-13
1.7243e-13
2.07569e-12
-5.69857e-13
1.32971e-13
1.66061e-12
-5.02816e-13
1.01044e-13
1.3238e-12
-4.47282e-13
7.52853e-14
1.06543e-12
-3.99355e-13
5.44739e-14
8.63796e-13
-3.57734e-13
3.77048e-14
7.05297e-13
-3.23018e-13
2.41414e-14
5.79439e-13
-3.19096e-13
1.32086e-14
4.78497e-13
4.36143e-15
3.92985e-13
-1.61338e-14
-6.55245e-13
2.68178e-13
4.08285e-12
-1.01589e-12
2.13551e-13
3.05002e-12
-7.88547e-13
1.5986e-13
2.30635e-12
-6.77221e-13
1.1818e-13
1.74462e-12
-5.87208e-13
8.59438e-14
1.3389e-12
-5.11588e-13
6.09903e-14
1.03865e-12
-4.48263e-13
4.15653e-14
8.13731e-13
-3.96045e-13
2.64397e-14
6.44009e-13
-3.84594e-13
1.45572e-14
5.11658e-13
5.17481e-15
4.05894e-13
-1.91917e-14
-1.19416e-12
3.2495e-13
6.55312e-12
-1.42063e-12
2.3567e-13
4.58466e-12
-1.07168e-12
1.67406e-13
3.25656e-12
-8.93767e-13
1.17971e-13
2.32937e-12
-7.53826e-13
8.18375e-14
1.69856e-12
-6.40795e-13
5.51087e-14
1.2565e-12
-5.48383e-13
3.51627e-14
9.43839e-13
-4.7446e-13
2.01535e-14
7.17169e-13
-4.52203e-13
8.78338e-15
5.49793e-13
1.8944e-16
4.19518e-13
-2.24072e-14
-2.02706e-12
1.07522e-11
1.15163e-11
-1.87503e-12
-1.0349e-11
6.34328e-12
-1.22815e-12
-9.83814e-12
4.20061e-12
-1.05459e-12
-9.45854e-12
2.85344e-12
-8.98569e-13
-9.25393e-12
2.0139e-12
-7.64982e-13
-9.17405e-12
1.47337e-12
-6.54488e-13
-9.18409e-12
1.11686e-12
-5.66637e-13
-9.25889e-12
8.76674e-13
-5.49372e-13
-9.38082e-12
7.088e-13
-9.54736e-12
5.82127e-13
-2.56308e-14
-5.39555e-10
6.51839e-09
5.72724e-08
-2.26148e-10
2.87868e-09
-1.22898e-09
-2.25289e-10
2.14273e-09
-1.3023e-09
-2.15648e-10
1.63429e-09
-1.27398e-09
-2.06444e-10
1.26799e-09
-1.24302e-09
-1.97739e-10
9.98985e-10
-1.21207e-09
-1.89548e-10
7.98058e-10
-1.18234e-09
-1.81871e-10
6.45685e-10
-1.15453e-09
-1.75671e-10
5.28562e-10
-1.13104e-09
4.38126e-10
-2.90651e-14
-1.19285e-09
3.464e-13
8.18643e-14
1.51172e-14
-1.74357e-14
7.77236e-14
1.34755e-14
-2.17341e-14
6.85713e-14
1.21175e-14
-2.00879e-14
5.97352e-14
1.06619e-14
-1.86864e-14
5.1196e-14
9.18821e-15
-1.99322e-14
4.28948e-14
7.19829e-15
-1.88682e-14
3.49296e-14
6.44359e-15
-1.92071e-14
2.72042e-14
5.59289e-15
-2.34259e-14
1.97343e-14
4.81222e-15
1.26007e-14
4.68954e-15
-1.3739e-15
2.95148e-13
5.89536e-14
2.43447e-14
-6.54512e-14
5.41447e-14
2.15915e-14
-7.09148e-14
4.58882e-14
2.12577e-14
-6.63153e-14
3.80344e-14
1.74206e-14
-6.50112e-14
3.07155e-14
1.46498e-14
-6.22262e-14
2.39571e-14
1.27724e-14
-6.06678e-14
1.7695e-14
1.00569e-14
-6.01065e-14
1.19813e-14
8.3826e-15
-7.13015e-14
6.83083e-15
7.74516e-15
2.39225e-15
6.36206e-15
-4.41249e-15
2.169e-13
7.5319e-14
3.63811e-14
-1.65636e-13
6.80189e-14
3.32372e-14
-1.34438e-13
5.71843e-14
3.29411e-14
-1.23726e-13
4.72672e-14
2.80005e-14
-1.17381e-13
3.82494e-14
2.32548e-14
-1.11576e-13
3.00107e-14
1.88297e-14
-1.05903e-13
2.26097e-14
1.61778e-14
-1.03814e-13
1.62369e-14
1.39446e-14
-1.2123e-13
9.45513e-15
1.17592e-14
3.33013e-15
9.53322e-15
-7.24334e-15
9.5398e-14
9.35976e-14
5.87327e-14
-2.89221e-13
8.19237e-14
5.56397e-14
-2.15356e-13
6.72152e-14
5.40715e-14
-1.89111e-13
5.42441e-14
4.43922e-14
-1.75954e-13
4.29584e-14
3.69379e-14
-1.64e-13
3.31045e-14
3.08211e-14
-1.49419e-13
2.45927e-14
2.59551e-14
-1.50442e-13
1.68994e-14
2.19327e-14
-1.73079e-13
9.72358e-15
1.96933e-14
3.45114e-15
1.41579e-14
-1.03526e-14
-2.20911e-14
1.17981e-13
1.00954e-13
-4.45989e-13
9.95843e-14
9.47509e-14
-3.15147e-13
7.95661e-14
8.82844e-14
-2.65614e-13
6.25551e-14
7.22354e-14
-2.41883e-13
4.83177e-14
5.8519e-14
-2.20305e-13
3.63955e-14
4.79996e-14
-2.00482e-13
2.6812e-14
4.04463e-14
-1.97879e-13
1.81356e-14
3.48083e-14
-2.26832e-13
1.02654e-14
2.99007e-14
3.53557e-15
2.08738e-14
-1.32637e-14
-1.58068e-13
1.50684e-13
1.76833e-13
-6.51245e-13
1.22985e-13
1.6541e-13
-4.23704e-13
9.50669e-14
1.44995e-13
-3.63653e-13
7.26138e-14
1.15032e-13
-3.22981e-13
5.46168e-14
9.19319e-14
-2.87253e-13
4.00627e-14
7.41937e-14
-2.56232e-13
2.84177e-14
6.12222e-14
-2.37469e-13
1.9058e-14
5.14307e-14
-2.82795e-13
1.04127e-14
4.20663e-14
3.56363e-15
2.92135e-14
-1.64935e-14
-5.71122e-13
1.94205e-13
3.12956e-13
-9.26488e-13
1.5331e-13
2.85342e-13
-5.75468e-13
1.14547e-13
2.35679e-13
-4.85552e-13
8.48716e-14
1.81229e-13
-4.19994e-13
6.20701e-14
1.40761e-13
-3.64333e-13
4.44234e-14
1.11038e-13
-3.17434e-13
3.15999e-14
8.95573e-14
-2.85543e-13
2.01026e-14
7.28218e-14
-3.40642e-13
1.09316e-14
5.99138e-14
3.73437e-15
3.94419e-14
-1.96958e-14
-1.09843e-12
3.0877e-13
5.65583e-13
-1.29782e-12
2.84548e-13
4.90188e-13
-7.75603e-13
1.89189e-13
3.81382e-13
-6.37809e-13
1.28901e-13
2.79881e-13
-5.35832e-13
8.50076e-14
2.10286e-13
-4.52588e-13
5.22081e-14
1.61903e-13
-3.85906e-13
3.34815e-14
1.25847e-13
-3.36668e-13
2.03784e-14
1.00036e-13
-4.00738e-13
1.06377e-14
8.11684e-14
3.45484e-15
5.11451e-14
-2.30215e-14
-1.99396e-12
2.19442e-11
2.80601e-12
-1.78746e-12
9.47387e-13
8.08887e-13
-1.0381e-12
5.68339e-13
5.82747e-13
-8.27741e-13
3.71382e-13
4.13233e-13
-6.74138e-13
2.30005e-13
3.01019e-13
-5.55172e-13
1.27949e-13
2.24504e-13
-4.61707e-13
5.38853e-14
1.71467e-13
-3.93191e-13
-4.39262e-17
1.33424e-13
-4.64757e-13
-3.93841e-14
1.05895e-13
-6.66347e-14
6.78221e-14
-2.63838e-14
-2.86956e-10
3.27779e-09
5.23804e-08
-1.67806e-11
9.05148e-11
6.69812e-11
-1.68243e-11
4.2475e-11
-1.27938e-11
-1.3925e-11
2.78566e-11
-8.60414e-12
-1.15973e-11
1.88828e-11
-4.79527e-12
-9.75684e-12
1.31327e-11
-3.15939e-12
-8.28403e-12
9.34569e-12
-1.90112e-12
-7.09531e-12
6.7879e-12
-9.28275e-13
-6.12321e-12
5.02291e-12
-1.84137e-13
3.70371e-12
-2.99238e-14
1.71458e-12
3.46448e-13
8.11765e-14
1.05587e-14
-1.74888e-14
7.7127e-14
9.59015e-15
-2.14571e-14
6.80746e-14
7.96548e-15
-1.96584e-14
5.92965e-14
6.15979e-15
-1.92111e-14
5.08366e-14
4.14452e-15
-1.92639e-14
4.26496e-14
3.34362e-15
-1.80364e-14
3.4723e-14
1.98318e-15
-1.90757e-14
2.70629e-14
1.16839e-15
-2.31712e-14
1.96812e-14
3.41167e-16
1.26007e-14
1.59024e-16
-1.46671e-15
2.95865e-13
5.81462e-14
1.8127e-14
-6.49909e-14
5.34617e-14
1.59465e-14
-7.00543e-14
4.53105e-14
1.62713e-14
-6.43833e-14
3.76146e-14
1.27597e-14
-6.27638e-14
3.03903e-14
9.11927e-15
-6.13293e-14
2.36822e-14
6.66959e-15
-5.89921e-14
1.75423e-14
5.41608e-15
-5.8405e-14
1.1906e-14
4.13999e-15
-7.07176e-14
6.79157e-15
2.81212e-15
2.40875e-15
1.64824e-15
-4.33507e-15
2.18735e-13
7.39798e-14
2.59977e-14
-1.64162e-13
6.68637e-14
2.45187e-14
-1.31159e-13
5.6165e-14
2.63001e-14
-1.16311e-13
4.6279e-14
1.99787e-14
-1.13048e-13
3.73882e-14
1.65966e-14
-1.03598e-13
2.93305e-14
1.39073e-14
-9.88397e-14
2.18271e-14
1.06414e-14
-1.02029e-13
1.50512e-14
8.9212e-15
-1.20066e-13
9.37938e-15
7.60701e-15
3.12864e-15
5.40708e-15
-7.20236e-15
9.78331e-14
9.19247e-14
4.3e-14
-2.86604e-13
8.04466e-14
4.32412e-14
-2.09096e-13
6.59461e-14
4.57401e-14
-1.79148e-13
5.32072e-14
3.71671e-14
-1.67015e-13
4.19869e-14
3.04852e-14
-1.55513e-13
3.21453e-14
2.58461e-14
-1.44522e-13
2.35704e-14
2.12152e-14
-1.45381e-13
1.60373e-14
1.82619e-14
-1.71696e-13
9.52029e-15
1.51682e-14
3.49753e-15
1.03234e-14
-1.04183e-14
-1.81052e-14
1.15785e-13
7.5834e-14
-4.41638e-13
9.78454e-14
7.96679e-14
-2.9253e-13
7.81006e-14
7.84134e-14
-2.58149e-13
6.13076e-14
6.31905e-14
-2.34829e-13
4.72973e-14
5.30445e-14
-2.13702e-13
3.54828e-14
4.36667e-14
-1.94812e-13
2.5492e-14
3.65517e-14
-1.85581e-13
1.71745e-14
3.15506e-14
-2.25052e-13
9.86264e-15
2.81815e-14
3.57175e-15
1.86727e-14
-1.33396e-14
-1.52276e-13
1.47761e-13
1.34287e-13
-6.44458e-13
1.20719e-13
1.40515e-13
-4.09693e-13
9.32644e-14
1.33129e-13
-3.54875e-13
7.1221e-14
1.06902e-13
-3.1537e-13
5.34692e-14
8.70962e-14
-2.80454e-13
3.90568e-14
7.22079e-14
-2.50155e-13
2.74175e-14
6.03717e-14
-2.31277e-13
1.80015e-14
5.02131e-14
-2.80433e-13
1.04442e-14
4.40875e-14
3.65701e-15
2.86394e-14
-1.6649e-14
-5.57328e-13
1.90575e-13
2.39756e-13
-9.15797e-13
1.50494e-13
2.50989e-13
-5.60884e-13
1.12478e-13
2.20595e-13
-4.75267e-13
8.32235e-14
1.73847e-13
-4.11304e-13
6.0751e-14
1.38374e-13
-3.56809e-13
4.33551e-14
1.12603e-13
-3.11549e-13
2.96781e-14
9.11165e-14
-2.79036e-13
1.89849e-14
7.63006e-14
-3.38282e-13
1.0862e-14
6.45792e-14
3.56685e-15
4.16184e-14
-1.98517e-14
-1.07728e-12
3.04812e-13
4.29983e-13
-1.28043e-12
1.76537e-13
4.37634e-13
-7.58984e-13
1.42963e-13
3.61178e-13
-6.25274e-13
1.04529e-13
2.76796e-13
-5.25511e-13
7.90928e-14
2.14217e-13
-4.44835e-13
5.57694e-14
1.68023e-13
-3.79406e-13
3.72895e-14
1.34424e-13
-3.30148e-13
2.33049e-14
1.0936e-13
-3.98497e-13
1.26732e-14
8.93408e-14
4.72699e-15
5.8599e-14
-2.30031e-14
-1.96545e-12
2.20107e-11
3.93594e-12
-1.76019e-12
4.08319e-13
7.79796e-13
-1.01903e-12
2.28414e-13
5.90343e-13
-8.13418e-13
1.37401e-13
4.33347e-13
-6.62808e-13
9.10343e-14
3.22525e-13
-5.45849e-13
5.91686e-14
2.46701e-13
-4.54125e-13
3.70178e-14
1.90881e-13
-3.8596e-13
2.14538e-14
1.513e-13
-4.60547e-13
1.04195e-14
1.19802e-13
2.64848e-15
7.34133e-14
-2.651e-14
-2.69895e-10
4.81797e-09
5.23828e-08
-3.28196e-12
3.05555e-11
8.92047e-11
-1.5422e-12
1.74561e-12
7.05644e-13
-1.33979e-12
1.06555e-12
5.01432e-13
-1.05304e-12
7.21831e-13
3.55907e-13
-8.3729e-13
5.07505e-13
2.21945e-13
-6.75359e-13
3.66816e-13
1.98069e-13
-5.72941e-13
2.71732e-13
1.80998e-13
-5.94883e-13
2.05184e-13
1.77021e-13
1.26902e-13
-3.00866e-14
1.76416e-13
3.46332e-13
8.12922e-14
1.82013e-14
-1.78182e-14
7.7216e-14
1.59682e-14
-2.15101e-14
6.81694e-14
1.28072e-14
-2.03316e-14
5.93757e-14
8.04873e-15
-1.76281e-14
5.08949e-14
8.33323e-15
-1.9689e-14
4.26768e-14
3.80442e-15
-1.90311e-14
3.47756e-14
4.63566e-15
-1.88211e-14
2.71313e-14
3.58221e-15
-2.31731e-14
1.97218e-14
8.85498e-16
1.26344e-14
3.03335e-16
-1.70437e-15
2.95579e-13
5.82699e-14
2.87523e-14
-6.5266e-14
5.35788e-14
2.51073e-14
-7.01949e-14
4.54022e-14
2.09532e-14
-6.53817e-14
3.76556e-14
1.72752e-14
-6.28823e-14
3.04685e-14
1.18977e-14
-6.0906e-14
2.37706e-14
9.5157e-15
-5.88865e-14
1.75874e-14
6.47009e-15
-5.89085e-14
1.19483e-14
7.04004e-15
-7.07791e-14
6.84468e-15
5.87707e-15
2.46123e-15
1.87992e-15
-4.3509e-15
2.18293e-13
7.41763e-14
4.17564e-14
-1.6478e-13
6.70358e-14
3.67734e-14
-1.3234e-13
5.63334e-14
3.68623e-14
-1.15115e-13
4.64906e-14
3.14384e-14
-1.11128e-13
3.74986e-14
2.38181e-14
-1.04988e-13
2.94304e-14
1.78611e-14
-9.84637e-14
2.19904e-14
1.74299e-14
-1.02254e-13
1.52004e-14
1.23575e-14
-1.20065e-13
9.28019e-15
1.38232e-14
3.08235e-15
6.51099e-15
-7.43177e-15
9.73558e-14
9.22795e-14
6.89581e-14
-2.87442e-13
8.07905e-14
6.35024e-14
-2.10061e-13
6.61845e-14
6.392e-14
-1.79619e-13
5.33702e-14
5.17969e-14
-1.66883e-13
4.21891e-14
4.25321e-14
-1.5622e-13
3.22439e-14
3.37259e-14
-1.44433e-13
2.36295e-14
3.38603e-14
-1.46233e-13
1.61325e-14
2.55126e-14
-1.71834e-13
9.87453e-15
2.54737e-14
3.71088e-15
1.93743e-14
-1.02177e-14
-1.89517e-14
1.16318e-13
1.08645e-13
-4.43181e-13
9.82657e-14
1.11673e-13
-2.93832e-13
7.85071e-14
1.11128e-13
-2.58265e-13
6.16628e-14
9.23833e-14
-2.3573e-13
4.75503e-14
7.50917e-14
-2.14226e-13
3.57706e-14
6.77915e-14
-1.95078e-13
2.57956e-14
5.71312e-14
-1.85144e-13
1.72409e-14
4.60804e-14
-2.25481e-13
9.71755e-15
3.81046e-14
3.64466e-15
2.4919e-14
-1.33678e-14
-1.53798e-13
1.48617e-13
1.95408e-13
-6.46733e-13
1.21485e-13
2.04572e-13
-4.11373e-13
9.38453e-14
1.85019e-13
-3.56015e-13
7.16943e-14
1.50658e-13
-3.16187e-13
5.38715e-14
1.22128e-13
-2.81274e-13
3.93873e-14
1.03076e-13
-2.51046e-13
2.76154e-14
8.17104e-14
-2.31326e-13
1.8304e-14
7.65531e-14
-2.81162e-13
1.07244e-14
6.19279e-14
3.83595e-15
3.94791e-14
-1.65775e-14
-5.61482e-13
1.91925e-13
3.43569e-13
-9.19924e-13
1.51575e-13
3.53582e-13
-5.63233e-13
1.13332e-13
3.13888e-13
-4.77235e-13
8.39178e-14
2.41547e-13
-4.12754e-13
6.13162e-14
1.97015e-13
-3.58411e-13
4.37714e-14
1.54647e-13
-3.12519e-13
3.00826e-14
1.28115e-13
-2.7982e-13
1.92146e-14
1.05699e-13
-3.39483e-13
1.11002e-14
8.75468e-14
4.01076e-15
5.65339e-14
-1.98379e-14
-1.08529e-12
3.07463e-13
6.11459e-13
-1.28726e-12
1.77449e-13
6.23054e-13
-7.62839e-13
1.39314e-13
5.07483e-13
-6.28546e-13
1.00188e-13
3.84165e-13
-5.28174e-13
7.16435e-14
2.9895e-13
-4.46999e-13
5.32143e-14
2.35207e-13
-3.81159e-13
3.6367e-14
1.88757e-13
-3.31748e-13
2.29758e-14
1.52561e-13
-4.0016e-13
1.25955e-14
1.25059e-13
4.80554e-15
7.93081e-14
-2.31508e-14
-1.98211e-12
2.23586e-11
5.49801e-12
-1.77147e-12
3.88773e-13
1.097e-12
-1.02566e-12
2.15653e-13
8.21531e-13
-8.18824e-13
1.64225e-13
5.97735e-13
-6.66854e-13
1.07233e-13
4.51385e-13
-5.49354e-13
6.65632e-14
3.41606e-13
-4.56711e-13
3.1118e-14
2.63581e-13
-3.88366e-13
1.69455e-14
2.07531e-13
-4.6322e-13
8.6409e-15
1.68415e-13
3.27016e-15
1.10601e-13
-2.65608e-14
-2.75401e-10
6.89182e-09
5.40851e-08
-2.91161e-12
4.29537e-11
9.44003e-11
-1.28275e-12
1.26172e-12
3.30532e-13
-1.06093e-12
7.98341e-13
1.21698e-13
-8.36148e-13
5.73652e-13
7.45018e-14
-6.68344e-13
4.23081e-13
5.44104e-14
-5.41652e-13
3.19008e-13
4.16323e-14
-4.48745e-13
2.45182e-13
3.26135e-14
-5.29134e-13
1.90522e-13
2.59548e-14
1.1659e-13
-3.01679e-14
2.10916e-14
3.4604e-13
8.14564e-14
2.03794e-14
-1.81628e-14
7.73597e-14
1.5127e-14
-2.20608e-14
6.82606e-14
1.7557e-14
-1.99142e-14
5.94788e-14
1.31691e-14
-1.96418e-14
5.09492e-14
7.55492e-15
-1.91984e-14
4.27436e-14
4.82269e-15
-1.89165e-14
3.48081e-14
2.34957e-15
-1.946e-14
2.71704e-14
1.30777e-15
-2.32014e-14
1.97835e-14
8.44218e-16
1.26684e-14
8.82876e-16
-1.56168e-15
2.9515e-13
5.84518e-14
3.58388e-14
-6.58367e-14
5.37407e-14
3.26933e-14
-6.99723e-14
4.55626e-14
3.15696e-14
-6.64711e-14
3.77764e-14
2.26051e-14
-6.23383e-14
3.05898e-14
2.0883e-14
-6.16386e-14
2.38573e-14
1.38309e-14
-5.78601e-14
1.76809e-14
9.20389e-15
-5.8862e-14
1.20148e-14
5.43249e-15
-7.10191e-14
6.91289e-15
4.734e-15
2.52119e-15
3.22584e-15
-4.36435e-15
2.176e-13
7.44962e-14
4.72873e-14
-1.65742e-13
6.72978e-14
4.95234e-14
-1.32687e-13
5.65465e-14
5.06755e-14
-1.15664e-13
4.66619e-14
4.15146e-14
-1.12499e-13
3.76295e-14
3.14287e-14
-1.0437e-13
2.95189e-14
2.52022e-14
-9.92782e-14
2.21388e-14
1.79507e-14
-1.01677e-13
1.53693e-14
1.93456e-14
-1.20365e-13
9.2867e-15
1.24141e-14
3.49212e-15
8.75275e-15
-7.41204e-15
9.65395e-14
9.27493e-14
8.72861e-14
-2.88751e-13
8.12151e-14
8.61758e-14
-2.10842e-13
6.65545e-14
8.745e-14
-1.80166e-13
5.36985e-14
7.30505e-14
-1.67981e-13
4.24966e-14
5.60673e-14
-1.55634e-13
3.25787e-14
4.49857e-14
-1.45285e-13
2.38273e-14
3.51866e-14
-1.46334e-13
1.62946e-14
3.52525e-14
-1.72029e-13
9.96407e-15
2.77553e-14
3.65532e-15
1.61846e-14
-1.0327e-14
-2.03154e-14
1.17118e-13
1.52407e-13
-4.45201e-13
9.8952e-14
1.55104e-13
-2.9515e-13
7.90326e-14
1.51833e-13
-2.59275e-13
6.21037e-14
1.23693e-13
-2.36355e-13
4.7883e-14
1.01734e-13
-2.15202e-13
3.60557e-14
8.18384e-14
-1.9552e-13
2.59791e-14
6.27643e-14
-1.85793e-13
1.7491e-14
5.39253e-14
-2.26024e-13
1.01073e-14
4.56273e-14
3.95285e-15
3.02805e-14
-1.33246e-14
-1.56005e-13
1.49851e-13
2.52874e-13
-6.50214e-13
1.22486e-13
2.76593e-13
-4.13317e-13
9.46996e-14
2.56603e-13
-3.57781e-13
7.23477e-14
2.02361e-13
-3.17238e-13
5.44606e-14
1.64335e-13
-2.82968e-13
3.97935e-14
1.24218e-13
-2.5165e-13
2.80395e-14
1.12106e-13
-2.32159e-13
1.84693e-14
8.48299e-14
-2.82163e-13
1.09603e-14
7.1849e-14
4.01615e-15
4.69821e-14
-1.65157e-14
-5.67755e-13
1.93815e-13
4.70928e-13
-9.25515e-13
1.53153e-13
4.90292e-13
-5.67119e-13
1.14509e-13
4.19407e-13
-4.79655e-13
8.48718e-14
3.30423e-13
-4.15338e-13
6.20352e-14
2.5731e-13
-3.60182e-13
4.44131e-14
2.05336e-13
-3.14242e-13
3.06114e-14
1.59932e-13
-2.80966e-13
1.969e-14
1.29564e-13
-3.4107e-13
1.14708e-14
1.06773e-13
4.38583e-15
6.71839e-14
-1.9788e-14
-1.09683e-12
3.11359e-13
8.46288e-13
-1.29702e-12
1.79537e-13
8.53753e-13
-7.68605e-13
1.40955e-13
6.91387e-13
-6.33016e-13
1.01409e-13
5.21147e-13
-5.31885e-13
7.26055e-14
3.95662e-13
-4.49972e-13
5.37893e-14
3.049e-13
-3.83765e-13
3.69516e-14
2.31381e-13
-3.33841e-13
2.35137e-14
1.85607e-13
-4.02479e-13
1.30549e-14
1.47668e-13
5.17823e-15
9.27294e-14
-2.31304e-14
-2.00842e-12
2.33836e-11
7.57443e-12
-1.78702e-12
3.96402e-13
1.51518e-12
-1.03519e-12
1.91597e-13
1.12343e-12
-8.25971e-13
1.65519e-13
8.12654e-13
-6.72729e-13
1.0798e-13
5.91095e-13
-5.5407e-13
6.66255e-14
4.35505e-13
-4.60382e-13
3.14524e-14
3.22816e-13
-3.91489e-13
1.74574e-14
2.64738e-13
-4.66709e-13
9.05738e-15
2.01354e-13
3.66753e-15
1.22207e-13
-2.66647e-14
-2.9152e-10
1.03263e-08
5.78818e-08
-2.96217e-12
6.37861e-11
1.01206e-10
-1.2921e-12
1.93709e-12
3.28322e-13
-1.06913e-12
1.19862e-12
8.38607e-14
-8.42688e-13
8.51358e-13
6.34632e-14
-6.73674e-13
6.08163e-13
4.94385e-14
-5.46073e-13
4.45256e-13
3.91771e-14
-4.52535e-13
3.32843e-13
3.15724e-14
-5.3352e-13
2.5942e-13
2.58282e-14
1.54624e-13
-3.02716e-14
2.15361e-14
3.45556e-13
8.16578e-14
2.78429e-14
-1.84609e-14
7.75527e-14
2.72469e-14
-2.25431e-14
6.83935e-14
2.1865e-14
-2.02945e-14
5.95876e-14
1.70512e-14
-1.98887e-14
5.10685e-14
8.80318e-15
-1.97561e-14
4.28363e-14
5.60722e-15
-1.8688e-14
3.4903e-14
4.86405e-15
-1.94001e-14
2.72312e-14
3.27381e-15
-2.3213e-14
1.98446e-14
4.06327e-15
1.27412e-14
9.15629e-15
-1.59595e-15
2.9461e-13
5.86663e-14
4.75858e-14
-6.64063e-14
5.39327e-14
4.40056e-14
-7.06004e-14
4.57317e-14
4.29324e-14
-6.5969e-14
3.79311e-14
3.29059e-14
-6.38818e-14
3.06845e-14
2.25477e-14
-6.12606e-14
2.3963e-14
1.24772e-14
-5.95312e-14
1.77673e-14
9.58609e-15
-5.85553e-14
1.21322e-14
9.55824e-15
-7.09727e-14
6.99534e-15
7.22722e-15
2.59006e-15
9.79582e-15
-4.41791e-15
2.16766e-13
7.48838e-14
6.95912e-14
-1.66886e-13
6.7614e-14
6.76522e-14
-1.32987e-13
5.68176e-14
6.84013e-14
-1.17356e-13
4.68868e-14
5.43958e-14
-1.11586e-13
3.78411e-14
4.23165e-14
-1.05912e-13
2.96764e-14
2.56133e-14
-9.80829e-14
2.23182e-14
1.93075e-14
-1.0275e-13
1.54222e-14
1.6567e-14
-1.20421e-13
9.67642e-15
1.88922e-14
3.34119e-15
1.52282e-14
-7.52415e-15
9.55421e-14
9.33577e-14
1.1148e-13
-2.90326e-13
8.17417e-14
1.16564e-13
-2.1136e-13
6.69995e-14
1.16801e-13
-1.81306e-13
5.40763e-14
9.37175e-14
-1.68421e-13
4.28594e-14
7.65576e-14
-1.56432e-13
3.29234e-14
6.03541e-14
-1.45142e-13
2.40671e-14
3.89073e-14
-1.46536e-13
1.64912e-14
3.13722e-14
-1.72572e-13
9.79751e-15
2.95601e-14
4.04197e-15
2.61262e-14
-1.02216e-14
-2.20778e-14
1.18073e-13
1.95495e-13
-4.4765e-13
9.97735e-14
2.06585e-13
-2.96721e-13
7.97151e-14
1.97493e-13
-2.60454e-13
6.26388e-14
1.59657e-13
-2.3723e-13
4.83174e-14
1.29255e-13
-2.16448e-13
3.63927e-14
1.06287e-13
-1.9595e-13
2.63501e-14
7.13374e-14
-1.87214e-13
1.77083e-14
5.62851e-14
-2.26607e-13
1.05493e-14
4.70008e-14
4.15105e-15
4.17582e-14
-1.34482e-14
-1.58781e-13
1.51395e-13
3.50052e-13
-6.54276e-13
1.23729e-13
3.65204e-13
-4.16141e-13
9.56754e-14
3.31325e-13
-3.59718e-13
7.31835e-14
2.65564e-13
-3.18979e-13
5.51414e-14
2.12764e-13
-2.84231e-13
4.0382e-14
1.74358e-13
-2.53219e-13
2.84748e-14
1.20784e-13
-2.32812e-13
1.88457e-14
9.067e-14
-2.83315e-13
1.13298e-14
7.39318e-14
4.27785e-15
5.28017e-14
-1.65404e-14
-5.75608e-13
1.96228e-13
6.22202e-13
-9.32446e-13
1.55048e-13
6.36236e-13
-5.71195e-13
1.1599e-13
5.48568e-13
-4.83159e-13
8.60146e-14
4.27485e-13
-4.18064e-13
6.29405e-14
3.36599e-13
-3.62525e-13
4.51323e-14
2.68546e-13
-3.16539e-13
3.12422e-14
2.10915e-13
-2.82239e-13
2.0157e-14
1.39185e-13
-3.43022e-13
1.18129e-14
1.10331e-13
4.77096e-15
7.04135e-14
-1.97526e-14
-1.11135e-12
3.15674e-13
1.11985e-12
-1.30864e-12
1.82233e-13
1.10841e-12
-7.75656e-13
1.43152e-13
8.98161e-13
-6.38645e-13
1.0307e-13
6.76412e-13
-5.36379e-13
7.3869e-14
5.17774e-13
-4.53578e-13
5.44283e-14
4.01778e-13
-3.87128e-13
3.77356e-14
3.12924e-13
-3.36337e-13
2.4229e-14
2.04485e-13
-4.05367e-13
1.3649e-14
1.56515e-13
5.64798e-15
9.45017e-14
-2.32236e-14
-2.03662e-12
2.38464e-11
8.62715e-12
-1.80625e-12
3.9939e-13
1.96289e-12
-1.04687e-12
2.1253e-13
1.46858e-12
-8.34995e-13
1.68955e-13
1.06072e-12
-6.79856e-13
1.10547e-13
7.83543e-13
-5.59858e-13
6.8725e-14
5.86669e-13
-4.65018e-13
3.26329e-14
4.46914e-13
-3.95292e-13
1.81359e-14
3.02117e-13
-4.71054e-13
9.50583e-15
2.15195e-13
4.14045e-15
1.26579e-13
-2.66931e-14
-3.0147e-10
1.1997e-08
6.13158e-08
-2.98043e-12
6.50656e-11
1.04806e-10
-1.30887e-12
2.52786e-12
3.07625e-13
-1.0832e-12
1.63234e-12
8.40367e-14
-8.53545e-13
1.15818e-12
6.3941e-14
-6.82111e-13
8.37646e-13
4.99962e-14
-5.53001e-13
6.17566e-13
3.97742e-14
-4.57996e-13
4.53346e-13
3.22189e-14
-5.39618e-13
2.87297e-13
2.64858e-14
1.65996e-13
-3.03032e-14
2.22876e-14
3.45183e-13
8.18734e-14
2.54897e-14
-1.90725e-14
7.76663e-14
1.40388e-14
-2.26907e-14
6.85388e-14
1.40968e-14
-2.07523e-14
5.9701e-14
1.15734e-14
-2.01501e-14
5.11754e-14
1.30456e-14
-2.00617e-14
4.29467e-14
1.71242e-14
-1.95933e-14
3.50317e-14
2.51083e-14
-1.97677e-14
2.74029e-14
7.18326e-14
-2.30146e-14
2.00569e-14
2.93202e-13
1.29609e-14
9.8405e-13
-3.40526e-15
2.93902e-13
5.89194e-14
4.09106e-14
-6.68891e-14
5.41165e-14
2.38415e-14
-7.13003e-14
4.58678e-14
2.80195e-14
-6.63662e-14
3.80723e-14
2.33593e-14
-6.43881e-14
3.0815e-14
1.74788e-14
-6.10447e-14
2.4103e-14
2.47977e-14
-5.93088e-14
1.7897e-14
2.99344e-14
-6.06818e-14
1.22601e-14
5.70647e-14
-7.21064e-14
7.19402e-15
1.79376e-13
2.72555e-15
6.36367e-13
-3.69149e-15
2.15724e-13
7.52495e-14
5.87584e-14
-1.67992e-13
6.79004e-14
3.80081e-14
-1.33524e-13
5.70935e-14
4.59491e-14
-1.18606e-13
4.71048e-14
3.97302e-14
-1.11403e-13
3.81087e-14
3.56767e-14
-1.06079e-13
2.9932e-14
3.74202e-14
-9.92207e-14
2.25589e-14
4.33612e-14
-1.02515e-13
1.56164e-14
5.75885e-14
-1.22532e-13
9.31645e-15
1.27879e-13
3.56086e-15
4.17797e-13
-6.48722e-15
9.45331e-14
9.40222e-14
9.80911e-14
-2.91756e-13
8.22335e-14
7.23838e-14
-2.12942e-13
6.74067e-14
8.28541e-14
-1.81612e-13
5.44581e-14
7.19181e-14
-1.68933e-13
4.31526e-14
6.45784e-14
-1.57036e-13
3.31848e-14
4.9097e-14
-1.46243e-13
2.43889e-14
6.40464e-14
-1.46767e-13
1.68488e-14
7.11963e-14
-1.74717e-13
1.00111e-14
1.12159e-13
4.31021e-15
2.99057e-13
-9.65656e-15
-2.38941e-14
1.19141e-13
1.70425e-13
-4.49901e-13
1.00564e-13
1.4095e-13
-2.97974e-13
8.0386e-14
1.484e-13
-2.61784e-13
6.32469e-14
1.2698e-13
-2.37925e-13
4.88524e-14
1.10597e-13
-2.17344e-13
3.69049e-14
1.30738e-13
-1.9701e-13
2.66233e-14
9.6885e-14
-1.88589e-13
1.79644e-14
9.76148e-14
-2.28971e-13
1.08703e-14
1.19683e-13
4.22388e-15
2.35878e-13
-1.29432e-14
-1.61846e-13
1.53021e-13
3.01311e-13
-6.57907e-13
1.24901e-13
2.66697e-13
-4.18155e-13
9.66812e-14
2.59365e-13
-3.62001e-13
7.40219e-14
2.16089e-13
-3.20036e-13
5.58689e-14
1.82791e-13
-2.86487e-13
4.09816e-14
2.01371e-13
-2.54525e-13
2.91104e-14
1.20795e-13
-2.34158e-13
1.92786e-14
1.40604e-13
-2.86172e-13
1.1736e-14
1.43463e-13
4.80176e-15
2.07658e-13
-1.6293e-14
-5.84252e-13
1.99362e-13
5.37222e-13
-9.38305e-13
1.56882e-13
4.90311e-13
-5.75127e-13
1.17449e-13
4.41616e-13
-4.86497e-13
8.7208e-14
3.55878e-13
-4.20587e-13
6.39204e-14
2.91035e-13
-3.65013e-13
4.59486e-14
3.0183e-13
-3.19299e-13
3.19013e-14
2.43151e-13
-2.84197e-13
2.0726e-14
1.94882e-13
-3.46475e-13
1.2224e-14
1.82901e-13
5.08373e-15
2.02226e-13
-1.95508e-14
-1.1265e-12
3.17512e-13
1.05141e-12
-1.3185e-12
1.86931e-13
8.75555e-13
-7.82207e-13
1.45426e-13
7.35142e-13
-6.43937e-13
1.04801e-13
5.71269e-13
-5.40756e-13
7.52865e-14
4.77223e-13
-4.57207e-13
5.47617e-14
4.51503e-13
-3.91281e-13
3.8757e-14
3.98985e-13
-3.39308e-13
2.49639e-14
2.28463e-13
-4.09971e-13
1.43421e-14
2.38002e-13
6.22605e-15
2.13716e-13
-2.30846e-14
-2.02832e-12
1.6549e-11
5.41507e-12
-1.82681e-12
3.54693e-13
1.53555e-12
-1.0577e-12
2.58389e-13
1.23541e-12
-8.43334e-13
1.72722e-13
9.66818e-13
-6.87018e-13
1.13408e-13
7.88527e-13
-5.65304e-13
7.11327e-14
6.6945e-13
-4.71199e-13
3.40472e-14
5.65019e-13
-3.99419e-13
1.89985e-14
2.84483e-13
-4.7709e-13
1.00516e-14
3.05246e-13
4.7256e-15
2.38145e-13
-2.66813e-14
-2.21977e-10
2.458e-09
5.49751e-08
-2.60515e-12
3.84472e-12
5.24097e-11
-1.3368e-12
2.17895e-12
9.1478e-14
-1.09691e-12
1.62663e-12