/*--------------------------------*- C++ -*----------------------------------*\
| =========                 |                                                 |
| \\      /  F ield         | OpenFOAM: The Open Source CFD Toolbox           |
|  \\    /   O peration     | Version:  4.1                                   |
|   \\  /    A nd           | Web:      www.OpenFOAM.org                      |
|    \\/     M anipulation  |                                                 |
\*---------------------------------------------------------------------------*/
FoamFile
{
    version     2.0;
    format      ascii;
    class       volVectorField;
    location    "0.4";
    object      U;
}
// * * * * * * * * * * * * * * * * * * * * * * * * * * * * * * * * * * * * * //

dimensions      [0 1 -1 0 0 0 0];

internalField   nonuniform List<vector> 
18000
(
(8.01724e-14 3.90429e-13 -6.30266e-12)
(8.63002e-14 3.88983e-13 -6.23024e-12)
(7.80475e-14 -9.94865e-15 -6.1585e-12)
(6.9992e-14 -1.197e-14 -6.0879e-12)
(6.21546e-14 -1.17911e-14 -6.01815e-12)
(5.45194e-14 -1.15668e-14 -5.94933e-12)
(4.71193e-14 -1.15094e-14 -5.88132e-12)
(3.997e-14 -1.14597e-14 -5.81445e-12)
(3.30046e-14 -1.13164e-14 -5.74855e-12)
(2.62669e-14 -8.91608e-15 -5.68442e-12)
(1.10828e-13 4.03841e-13 -7.91573e-12)
(1.26833e-13 3.93306e-13 -7.63217e-12)
(1.11572e-13 -4.20952e-14 -7.35907e-12)
(9.71442e-14 -4.28511e-14 -7.09835e-12)
(8.36999e-14 -4.14192e-14 -6.84883e-12)
(7.11466e-14 -3.99221e-14 -6.60999e-12)
(5.93522e-14 -3.84855e-14 -6.38106e-12)
(4.83964e-14 -3.72147e-14 -6.1619e-12)
(3.81041e-14 -3.59241e-14 -5.95154e-12)
(2.85161e-14 -2.77681e-14 -5.7528e-12)
(1.16686e-13 4.10611e-13 -1.0067e-11)
(1.30452e-13 3.88189e-13 -9.4432e-12)
(1.08299e-13 -8.77556e-14 -8.8619e-12)
(8.84311e-14 -8.48075e-14 -8.3244e-12)
(7.07183e-14 -7.95616e-14 -7.826e-12)
(5.49099e-14 -7.49063e-14 -7.36362e-12)
(4.07567e-14 -7.05928e-14 -6.93462e-12)
(2.81085e-14 -6.65691e-14 -6.53565e-12)
(1.67999e-14 -6.28309e-14 -6.16448e-12)
(6.71386e-15 -4.73982e-14 -5.82237e-12)
(1.56173e-13 4.05558e-13 -1.29787e-11)
(1.64559e-13 3.67469e-13 -1.18076e-11)
(1.32339e-13 -1.52456e-13 -1.07584e-11)
(1.04817e-13 -1.41271e-13 -9.81946e-12)
(8.1405e-14 -1.29009e-13 -8.97941e-12)
(6.1432e-14 -1.18065e-13 -8.22577e-12)
(4.44512e-14 -1.08283e-13 -7.548e-12)
(2.98689e-14 -9.95297e-14 -6.93741e-12)
(1.74415e-14 -9.15392e-14 -6.38639e-12)
(6.83327e-15 -6.7659e-14 -5.89307e-12)
(2.13621e-13 3.78521e-13 -1.69851e-11)
(2.10963e-13 3.20722e-13 -1.49353e-11)
(1.63694e-13 -2.44514e-13 -1.31735e-11)
(1.25293e-13 -2.18057e-13 -1.16563e-11)
(9.42837e-14 -1.92813e-13 -1.03479e-11)
(6.9119e-14 -1.71187e-13 -9.2145e-12)
(4.85976e-14 -1.52709e-13 -8.22929e-12)
(3.18301e-14 -1.36761e-13 -7.37026e-12)
(1.81271e-14 -1.22655e-13 -6.61828e-12)
(6.92603e-15 -8.87139e-14 -5.96521e-12)
(2.99429e-13 3.12957e-13 -2.25984e-11)
(2.75638e-13 2.30205e-13 -1.91319e-11)
(2.05207e-13 -3.76964e-13 -1.62831e-11)
(1.51195e-13 -3.22601e-13 -1.393e-11)
(1.09902e-13 -2.75437e-13 -1.19797e-11)
(7.80061e-14 -2.36931e-13 -1.03525e-11)
(5.32387e-14 -2.05163e-13 -8.98756e-12)
(3.39488e-14 -1.78614e-13 -7.83662e-12)
(1.88631e-14 -1.56133e-13 -6.86056e-12)
(7.03342e-15 -1.10574e-13 -6.03813e-12)
(4.31322e-13 1.79022e-13 -3.06175e-11)
(3.67595e-13 6.56886e-14 -2.48522e-11)
(2.60954e-13 -5.70052e-13 -2.03316e-11)
(1.84197e-13 -4.66585e-13 -1.67682e-11)
(1.2881e-13 -3.83249e-13 -1.39369e-11)
(8.82501e-14 -3.18347e-13 -1.16671e-11)
(5.83283e-14 -2.66972e-13 -9.83289e-12)
(3.60956e-14 -2.25825e-13 -8.33938e-12)
(1.94884e-14 -1.9235e-13 -7.11409e-12)
(7.02063e-15 -1.33269e-13 -6.11229e-12)
(-3.16522e-13 -7.73398e-14 -4.23401e-11)
(-4.33108e-13 -2.26133e-13 -3.27761e-11)
(-5.43015e-13 -8.55583e-13 -2.56684e-11)
(-6.0361e-13 -6.66402e-13 -2.03411e-11)
(-6.34087e-13 -5.24513e-13 -1.62982e-11)
(-6.45727e-13 -4.19584e-13 -1.31923e-11)
(-6.45603e-13 -3.40148e-13 -1.07786e-11)
(-6.38158e-13 -2.79048e-13 -8.88341e-12)
(-6.26287e-13 -2.31287e-13 -7.3798e-12)
(-6.17902e-13 -1.56808e-13 -6.18871e-12)
(-3.25528e-09 -6.71536e-13 -7.08819e-11)
(-3.17505e-09 -6.80011e-13 -5.3598e-11)
(-2.97665e-09 -1.13799e-12 -4.12652e-11)
(-2.79985e-09 -8.13253e-13 -3.23648e-11)
(-2.642e-09 -5.91096e-13 -2.58254e-11)
(-2.50038e-09 -4.37098e-13 -2.09302e-11)
(-2.37271e-09 -3.28016e-13 -1.72044e-11)
(-2.2571e-09 -2.49358e-13 -1.43252e-11)
(-2.15204e-09 -2.07613e-13 -1.20683e-11)
(-2.08125e-09 -1.92215e-13 -1.03309e-11)
(3.45413e-07 -4.82904e-10 -3.91209e-08)
(2.76538e-08 1.76615e-10 -3.38386e-08)
(2.2644e-08 4.91008e-10 -2.94437e-08)
(1.90412e-08 4.39397e-10 -2.58315e-08)
(1.60296e-08 3.93475e-10 -2.28314e-08)
(1.34856e-08 3.53863e-10 -2.03157e-08)
(1.13166e-08 3.19585e-10 -1.81873e-08)
(9.45135e-09 2.89636e-10 -1.63719e-08)
(7.71015e-09 1.9703e-10 -1.48123e-08)
(-5.50986e-08 -6.77359e-11 -1.36298e-08)
(2.64881e-13 3.67911e-13 -6.5267e-12)
(2.48044e-13 3.44564e-13 -6.45053e-12)
(2.17561e-13 -5.393e-14 -6.37497e-12)
(1.88258e-13 -5.54474e-14 -6.30024e-12)
(1.60082e-13 -5.48388e-14 -6.22675e-12)
(1.32969e-13 -5.41902e-14 -6.15462e-12)
(1.06887e-13 -5.36268e-14 -6.08278e-12)
(8.18286e-14 -5.30019e-14 -6.01259e-12)
(5.7638e-14 -5.20265e-14 -5.9433e-12)
(3.4702e-14 -3.01637e-14 -5.87561e-12)
(5.32789e-13 3.19303e-13 -8.22735e-12)
(4.90436e-13 2.28895e-13 -7.92784e-12)
(4.20286e-13 -2.01091e-13 -7.63915e-12)
(3.54808e-13 -1.9596e-13 -7.36376e-12)
(2.93786e-13 -1.89084e-13 -7.10082e-12)
(2.36889e-13 -1.82451e-13 -6.84897e-12)
(1.83831e-13 -1.76059e-13 -6.60816e-12)
(1.34338e-13 -1.70092e-13 -6.37756e-12)
(8.80988e-14 -1.63202e-13 -6.15683e-12)
(4.5384e-14 -9.28036e-14 -5.94768e-12)
(6.55689e-13 2.32682e-13 -1.05091e-11)
(5.81952e-13 4.80158e-14 -9.84546e-12)
(4.81469e-13 -4.08105e-13 -9.22899e-12)
(3.91519e-13 -3.85368e-13 -8.65898e-12)
(3.11428e-13 -3.62032e-13 -8.13195e-12)
(2.40012e-13 -3.40362e-13 -7.64372e-12)
(1.76278e-13 -3.20332e-13 -7.1913e-12)
(1.19393e-13 -3.01827e-13 -6.77106e-12)
(6.87066e-14 -2.83132e-13 -6.38061e-12)
(2.3833e-14 -1.58525e-13 -6.02147e-12)
(8.53485e-13 8.65575e-14 -1.36174e-11)
(7.30633e-13 -2.29987e-13 -1.23641e-11)
(5.86451e-13 -6.98585e-13 -1.12451e-11)
(4.63094e-13 -6.39573e-13 -1.02454e-11)
(3.58127e-13 -5.83922e-13 -9.35351e-12)
(2.68559e-13 -5.34345e-13 -8.5552e-12)
(1.92134e-13 -4.89892e-13 -7.83902e-12)
(1.2689e-13 -4.49825e-13 -7.19534e-12)
(7.11981e-14 -4.116e-13 -6.61461e-12)
(2.42392e-14 -2.26795e-13 -6.09614e-12)
(1.12855e-12 -1.53549e-13 -1.79284e-11)
(9.28742e-13 -6.54451e-13 -1.57189e-11)
(7.20907e-13 -1.1068e-12 -1.38279e-11)
(5.51464e-13 -9.80767e-13 -1.22038e-11)
(4.13736e-13 -8.68774e-13 -1.08088e-11)
(3.01459e-13 -7.72363e-13 -9.60443e-12)
(2.09848e-13 -6.88762e-13 -8.56041e-12)
(1.35049e-13 -6.16168e-13 -7.6526e-12)
(7.38828e-14 -5.49834e-13 -6.85964e-12)
(2.45626e-14 -2.98044e-13 -6.17282e-12)
(1.51811e-12 -5.42475e-13 -2.40274e-11)
(1.19708e-12 -1.30099e-12 -2.0254e-11)
(8.95151e-13 -1.68334e-12 -1.71748e-11)
(6.61453e-13 -1.44006e-12 -1.46407e-11)
(4.80346e-13 -1.23473e-12 -1.25515e-11)
(3.39424e-13 -1.06462e-12 -1.08159e-11)
(2.29558e-13 -9.22386e-13 -9.36574e-12)
(1.43762e-13 -8.03013e-13 -8.14709e-12)
(7.67382e-14 -6.98493e-13 -7.11674e-12)
(2.48691e-14 -3.72169e-13 -6.25094e-12)
(2.08299e-12 -1.1697e-12 -3.28393e-11)
(1.56584e-12 -2.28905e-12 -2.6494e-11)
(1.12351e-12 -2.5038e-12 -2.15645e-11)
(7.99332e-13 -2.0608e-12 -1.76998e-11)
(5.6048e-13 -1.70633e-12 -1.46511e-11)
(3.8342e-13 -1.42404e-12 -1.22204e-11)
(2.5159e-13 -1.19686e-12 -1.02659e-11)
(1.532e-13 -1.01283e-12 -8.68153e-12)
(7.96703e-14 -8.58303e-13 -7.38547e-12)
(2.52756e-14 -4.49595e-13 -6.33085e-12)
(2.94784e-12 -2.19353e-12 -4.59016e-11)
(2.07469e-12 -3.81511e-12 -3.52339e-11)
(1.41877e-12 -3.68023e-12 -2.74016e-11)
(9.64732e-13 -2.90439e-12 -2.15783e-11)
(6.47546e-13 -2.31529e-12 -1.71986e-11)
(4.23768e-13 -1.86642e-12 -1.38568e-11)
(2.64725e-13 -1.51963e-12 -1.12767e-11)
(1.5119e-13 -1.24882e-12 -9.26087e-12)
(6.98717e-14 -1.03008e-12 -7.6684e-12)
(1.22749e-14 -5.30067e-13 -6.41312e-12)
(-4.40258e-11 -4.1626e-12 -7.68753e-11)
(-1.43013e-10 -6.45504e-12 -5.746e-11)
(-1.16758e-10 -5.53802e-12 -4.38317e-11)
(-9.61418e-11 -4.19378e-12 -3.41141e-11)
(-8.00778e-11 -3.22593e-12 -2.70565e-11)
(-6.73839e-11 -2.52075e-12 -2.18216e-11)
(-5.72286e-11 -1.99728e-12 -1.78678e-11)
(-4.9013e-11 -1.60297e-12 -1.48323e-11)
(-4.23014e-11 -1.2959e-12 -1.24647e-11)
(-3.68315e-11 -6.87529e-13 -1.06502e-11)
(2.20966e-07 -1.09297e-09 -4.11901e-08)
(-5.37231e-09 -8.88755e-10 -3.54391e-08)
(-5.33152e-09 -4.81472e-10 -3.06435e-08)
(-4.88962e-09 -4.29487e-10 -2.67474e-08)
(-4.49077e-09 -3.8583e-10 -2.35424e-08)
(-4.13715e-09 -3.47967e-10 -2.08758e-08)
(-3.82549e-09 -3.15046e-10 -1.86344e-08)
(-3.55151e-09 -2.86329e-10 -1.67331e-08)
(-3.31807e-09 -2.61355e-10 -1.51073e-08)
(-3.95591e-09 -2.54438e-10 -1.38736e-08)
(2.29664e-13 3.72953e-13 -2.30417e-13)
(2.16703e-13 3.48257e-13 -2.26122e-13)
(1.90001e-13 -5.04765e-14 -2.21428e-13)
(1.64518e-13 -5.204e-14 -2.169e-13)
(1.40137e-13 -5.11929e-14 -2.12701e-13)
(1.16672e-13 -5.06677e-14 -2.08575e-13)
(9.4357e-14 -5.01911e-14 -2.04548e-13)
(7.29183e-14 -4.94693e-14 -2.00921e-13)
(5.23883e-14 -4.8661e-14 -1.97223e-13)
(3.30093e-14 -2.55456e-14 -1.93711e-13)
(5.01362e-13 3.37915e-13 -3.21086e-13)
(4.62789e-13 2.41673e-13 -3.04134e-13)
(3.96426e-13 -1.88823e-13 -2.87506e-13)
(3.34546e-13 -1.8381e-13 -2.71666e-13)
(2.77049e-13 -1.77212e-13 -2.57499e-13)
(2.23494e-13 -1.70847e-13 -2.44072e-13)
(1.73721e-13 -1.6467e-13 -2.31191e-13)
(1.27301e-13 -1.58902e-13 -2.19188e-13)
(8.40203e-14 -1.52367e-13 -2.08708e-13)
(4.42363e-14 -7.9167e-14 -1.97993e-13)
(6.19745e-13 2.70703e-13 -4.57422e-13)
(5.50691e-13 7.22669e-14 -4.15746e-13)
(4.54877e-13 -3.84812e-13 -3.7842e-13)
(3.69256e-13 -3.62991e-13 -3.44525e-13)
(2.93256e-13 -3.40248e-13 -3.14349e-13)
(2.25751e-13 -3.19428e-13 -2.86901e-13)
(1.65661e-13 -3.00262e-13 -2.62675e-13)
(1.12241e-13 -2.82578e-13 -2.40644e-13)
(6.45698e-14 -2.6445e-13 -2.205e-13)
(2.26971e-14 -1.3534e-13 -2.03326e-13)
(8.13171e-13 1.53189e-13 -6.63934e-13)
(6.95919e-13 -1.91667e-13 -5.78422e-13)
(5.57139e-13 -6.62133e-13 -5.04759e-13)
(4.38811e-13 -6.05024e-13 -4.4081e-13)
(3.3858e-13 -5.50928e-13 -3.86538e-13)
(2.53431e-13 -5.02931e-13 -3.39823e-13)
(1.81046e-13 -4.59967e-13 -2.99767e-13)
(1.19498e-13 -4.21801e-13 -2.65242e-13)
(6.71058e-14 -3.85169e-13 -2.34906e-13)
(2.31207e-14 -1.94336e-13 -2.08817e-13)
(1.08552e-12 -4.54771e-14 -9.86719e-13)
(8.90995e-13 -6.00012e-13 -8.19053e-13)
(6.89144e-13 -1.05543e-12 -6.82949e-13)
(5.25188e-13 -9.32482e-13 -5.70911e-13)
(3.92816e-13 -8.22929e-13 -4.79628e-13)
(2.85487e-13 -7.29359e-13 -4.05085e-13)
(1.9834e-13 -6.48619e-13 -3.43869e-13)
(1.27472e-13 -5.78846e-13 -2.93348e-13)
(6.98771e-14 -5.14977e-13 -2.50777e-13)
(2.35997e-14 -2.55783e-13 -2.15666e-13)
(1.47624e-12 -3.75694e-13 -1.50453e-12)
(1.15819e-12 -1.23143e-12 -1.18184e-12)
(8.61611e-13 -1.61608e-12 -9.37683e-13)
(6.3339e-13 -1.37691e-12 -7.46687e-13)
(4.58084e-13 -1.17484e-12 -6.00242e-13)
(3.22575e-13 -1.00884e-12 -4.8602e-13)
(2.17608e-13 -8.70856e-13 -3.96702e-13)
(1.36146e-13 -7.55747e-13 -3.25975e-13)
(7.27002e-14 -6.55098e-13 -2.68453e-13)
(2.40547e-14 -3.20577e-13 -2.23635e-13)
(2.05151e-12 -9.18067e-13 -2.35501e-12)
(1.53015e-12 -2.21069e-12 -1.74155e-12)
(1.09002e-12 -2.42342e-12 -1.30646e-12)
(7.70372e-13 -1.98306e-12 -9.87222e-13)
(5.37289e-13 -1.63157e-12 -7.56667e-13)
(3.65875e-13 -1.35465e-12 -5.86345e-13)
(2.39308e-13 -1.1332e-12 -4.5932e-13)
(1.4543e-13 -9.55399e-13 -3.63277e-13)
(7.56355e-14 -8.06169e-13 -2.88578e-13)
(2.45284e-14 -3.88163e-13 -2.32751e-13)
(2.95521e-12 -1.82139e-12 -3.80212e-12)
(2.05937e-12 -3.74836e-12 -2.62453e-12)
(1.39776e-12 -3.59518e-12 -1.85109e-12)
(9.45745e-13 -2.81492e-12 -1.3214e-12)
(6.34095e-13 -2.22651e-12 -9.62365e-13)
(4.16703e-13 -1.78318e-12 -7.11667e-13)
(2.63759e-13 -1.44353e-12 -5.3397e-13)
(1.55571e-13 -1.18084e-12 -4.05653e-13)
(7.87848e-14 -9.69072e-13 -3.11429e-13)
(2.49016e-14 -4.59129e-13 -2.42311e-13)
(1.25161e-10 -3.43307e-12 -6.42995e-12)
(-5.76209e-14 -6.28434e-12 -4.13403e-12)
(-5.47969e-13 -5.32409e-12 -2.748e-12)
(-5.04449e-13 -3.97074e-12 -1.87432e-12)
(-4.65137e-13 -3.00874e-12 -1.31999e-12)
(-4.26926e-13 -2.31922e-12 -9.5632e-13)
(-3.90302e-13 -1.81409e-12 -7.12134e-13)
(-3.55649e-13 -1.43859e-12 -5.44399e-13)
(-3.23719e-13 -1.14838e-12 -4.25859e-13)
(-2.89224e-13 -5.36848e-13 -3.43205e-13)
(1.94805e-07 -4.30712e-10 -2.18325e-09)
(1.8246e-10 -3.93196e-10 -1.63805e-09)
(-1.65999e-10 -5.14514e-11 -1.22385e-09)
(-1.32929e-10 -3.81459e-11 -9.31784e-10)
(-1.07224e-10 -2.95522e-11 -7.21713e-10)
(-8.75352e-11 -2.32315e-11 -5.67545e-10)
(-7.22471e-11 -1.85068e-11 -4.52399e-10)
(-6.0255e-11 -1.49227e-11 -3.65031e-10)
(-5.09085e-11 -1.21466e-11 -2.97811e-10)
(-5.0564e-11 -9.74806e-12 -2.45858e-10)
(2.26914e-13 3.73171e-13 -1.10724e-14)
(2.14274e-13 3.48133e-13 -1.02663e-14)
(1.87905e-13 -5.05442e-14 -8.21719e-15)
(1.6267e-13 -5.19586e-14 -7.1496e-15)
(1.38591e-13 -5.12821e-14 -5.80291e-15)
(1.15529e-13 -5.06536e-14 -4.79371e-15)
(9.34231e-14 -4.998e-14 -3.96068e-15)
(7.22642e-14 -4.931e-14 -3.05696e-15)
(5.20807e-14 -4.83749e-14 -2.68435e-15)
(3.29534e-14 -2.52011e-14 -2.67763e-15)
(4.98127e-13 3.39352e-13 -1.64859e-14)
(4.60058e-13 2.42663e-13 -1.47067e-14)
(3.94144e-13 -1.87992e-13 -1.26081e-14)
(3.32687e-13 -1.82959e-13 -1.04335e-14)
(2.75547e-13 -1.76145e-13 -8.43039e-15)
(2.22359e-13 -1.69961e-13 -7.25131e-15)
(1.72928e-13 -1.63915e-13 -5.99392e-15)
(1.26837e-13 -1.57865e-13 -5.06285e-15)
(8.38328e-14 -1.5129e-13 -4.38282e-15)
(4.43466e-14 -7.80562e-14 -3.86121e-15)
(6.15487e-13 2.7431e-13 -2.67332e-14)
(5.47339e-13 7.47901e-14 -2.36414e-14)
(4.52166e-13 -3.82476e-13 -1.97788e-14)
(3.67142e-13 -3.60753e-13 -1.62603e-14)
(2.91674e-13 -3.38381e-13 -1.38031e-14)
(2.24589e-13 -3.17556e-13 -1.13994e-14)
(1.64966e-13 -2.98303e-13 -9.45269e-15)
(1.11902e-13 -2.80856e-13 -8.1658e-15)
(6.45636e-14 -2.62687e-13 -6.89926e-15)
(2.29479e-14 -1.3339e-13 -6.66761e-15)
(8.07556e-13 1.60637e-13 -4.4689e-14)
(6.91649e-13 -1.86485e-13 -3.91525e-14)
(5.53917e-13 -6.57915e-13 -3.25021e-14)
(4.3644e-13 -6.01165e-13 -2.65466e-14)
(3.3689e-13 -5.47389e-13 -2.20582e-14)
(2.52369e-13 -4.99758e-13 -1.85801e-14)
(1.80477e-13 -4.57114e-13 -1.54707e-14)
(1.19368e-13 -4.19027e-13 -1.30735e-14)
(6.73391e-14 -3.82624e-13 -1.14378e-14)
(2.35503e-14 -1.91988e-13 -1.01257e-14)
(1.07808e-12 -3.19114e-14 -7.79463e-14)
(8.85698e-13 -5.91149e-13 -6.57024e-14)
(6.85342e-13 -1.04805e-12 -5.28385e-14)
(5.22627e-13 -9.26261e-13 -4.28433e-14)
(3.91175e-13 -8.17742e-13 -3.50865e-14)
(2.84548e-13 -7.2467e-13 -2.85733e-14)
(1.9799e-13 -6.44349e-13 -2.39329e-14)
(1.27606e-13 -5.75173e-13 -2.07045e-14)
(7.0167e-14 -5.11917e-13 -1.80872e-14)
(2.42172e-14 -2.52836e-13 -1.5615e-14)
(1.46601e-12 -3.51006e-13 -1.36449e-13)
(1.1515e-12 -1.21672e-12 -1.10436e-13)
(8.57157e-13 -1.60473e-12 -8.68025e-14)
(6.30615e-13 -1.36763e-12 -6.86346e-14)
(4.56539e-13 -1.16733e-12 -5.48812e-14)
(3.21904e-13 -1.00256e-12 -4.44763e-14)
(2.17552e-13 -8.65485e-13 -3.6654e-14)
(1.36455e-13 -7.51577e-13 -3.05762e-14)
(7.32865e-14 -6.51535e-13 -2.53433e-14)
(2.48325e-14 -3.16952e-13 -2.21057e-14)
(2.03733e-12 -8.73994e-13 -2.41053e-13)
(1.52134e-12 -2.18709e-12 -1.86733e-13)
(1.08474e-12 -2.40613e-12 -1.40635e-13)
(7.6734e-13 -1.96984e-12 -1.08083e-13)
(5.35804e-13 -1.62144e-12 -8.40355e-14)
(3.6548e-13 -1.34661e-12 -6.65035e-14)
(2.39491e-13 -1.12684e-12 -5.33781e-14)
(1.45994e-13 -9.5047e-13 -4.35689e-14)
(7.66016e-14 -8.02273e-13 -3.61229e-14)
(2.54444e-14 -3.84407e-13 -3.01548e-14)
(2.93451e-12 -1.74295e-12 -4.33192e-13)
(2.04665e-12 -3.71143e-12 -3.13631e-13)
(1.39072e-12 -3.56963e-12 -2.26865e-13)
(9.4217e-13 -2.7969e-12 -1.66849e-13)
(6.32651e-13 -2.2131e-12 -1.25497e-13)
(4.16524e-13 -1.77342e-12 -9.6608e-14)
(2.64284e-13 -1.43638e-12 -7.51968e-14)
(1.56508e-13 -1.17528e-12 -5.98817e-14)
(7.99618e-14 -9.6516e-13 -4.87362e-14)
(2.62175e-14 -4.55284e-13 -3.97158e-14)
(1.34458e-10 -3.28846e-12 -7.85499e-13)
(3.26362e-12 -6.2243e-12 -5.20752e-13)
(1.76827e-12 -5.282e-12 -3.57512e-13)
(1.14191e-12 -3.94208e-12 -2.52712e-13)
(7.34029e-13 -2.98844e-12 -1.83283e-13)
(4.63768e-13 -2.3044e-12 -1.36504e-13)
(2.82847e-13 -1.8029e-12 -1.03775e-13)
(1.60737e-13 -1.42984e-12 -8.06941e-14)
(7.77838e-14 -1.14121e-12 -6.38242e-14)
(2.22824e-14 -5.29633e-13 -5.1679e-14)
(1.93863e-07 -3.70757e-10 -1.41868e-10)
(3.99672e-10 -3.5099e-10 -3.90073e-11)
(-1.27153e-12 -1.04715e-11 -2.48312e-11)
(-1.32631e-12 -6.39674e-12 -1.63328e-11)
(-9.72387e-13 -4.59277e-12 -1.1073e-11)
(-7.34876e-13 -3.37446e-12 -7.69486e-12)
(-5.68479e-13 -2.528e-12 -5.46385e-12)
(-4.49348e-13 -1.92817e-12 -3.95331e-12)
(-3.6398e-13 -1.48677e-12 -2.9093e-12)
(-3.40435e-13 -7.24048e-13 -2.14254e-12)
(2.27294e-13 3.73066e-13 -1.08524e-14)
(2.14567e-13 3.47571e-13 -9.8898e-15)
(1.88197e-13 -5.12688e-14 -7.48984e-15)
(1.62892e-13 -5.25631e-14 -5.53862e-15)
(1.38759e-13 -5.16991e-14 -4.09952e-15)
(1.15607e-13 -5.09798e-14 -2.90707e-15)
(9.35647e-14 -5.04696e-14 -2.08988e-15)
(7.24465e-14 -4.95707e-14 -1.20068e-15)
(5.21872e-14 -4.84125e-14 -4.83722e-16)
(3.30398e-14 -2.54058e-14 -3.53027e-16)
(4.99088e-13 3.39032e-13 -1.60997e-14)
(4.60878e-13 2.4196e-13 -1.42832e-14)
(3.94866e-13 -1.88765e-13 -1.10464e-14)
(3.33213e-13 -1.83809e-13 -8.99321e-15)
(2.76061e-13 -1.76902e-13 -6.28748e-15)
(2.22785e-13 -1.70331e-13 -4.75887e-15)
(1.73295e-13 -1.64136e-13 -3.73492e-15)
(1.27227e-13 -1.5822e-13 -3.18293e-15)
(8.41767e-14 -1.51586e-13 -2.32097e-15)
(4.46936e-14 -7.8126e-14 -1.50627e-15)
(6.17177e-13 2.73784e-13 -2.60396e-14)
(5.4885e-13 7.37085e-14 -2.30545e-14)
(4.53441e-13 -3.83872e-13 -1.87288e-14)
(3.68182e-13 -3.61856e-13 -1.46628e-14)
(2.92611e-13 -3.39008e-13 -1.19781e-14)
(2.25446e-13 -3.18269e-13 -9.70975e-15)
(1.65661e-13 -2.98921e-13 -7.81962e-15)
(1.1252e-13 -2.81201e-13 -6.4946e-15)
(6.51328e-14 -2.6287e-13 -5.86107e-15)
(2.34998e-14 -1.33605e-13 -5.06424e-15)
(8.10546e-13 1.59648e-13 -4.47036e-14)
(6.94279e-13 -1.88277e-13 -3.9045e-14)
(5.56043e-13 -6.59885e-13 -3.21875e-14)
(4.38244e-13 -6.029e-13 -2.61405e-14)
(3.38415e-13 -5.48672e-13 -2.13941e-14)
(2.53613e-13 -5.00828e-13 -1.77285e-14)
(1.81593e-13 -4.58036e-13 -1.5177e-14)
(1.20364e-13 -4.19799e-13 -1.28821e-14)
(6.82608e-14 -3.83174e-13 -1.1107e-14)
(2.43318e-14 -1.92013e-13 -1.02845e-14)
(1.08311e-12 -3.38208e-14 -7.81046e-14)
(8.89923e-13 -5.9467e-13 -6.76061e-14)
(6.88772e-13 -1.05175e-12 -5.47978e-14)
(5.25414e-13 -9.29083e-13 -4.44166e-14)
(3.93482e-13 -8.20001e-13 -3.698e-14)
(2.86471e-13 -7.26666e-13 -3.0714e-14)
(1.99626e-13 -6.45818e-13 -2.55764e-14)
(1.28971e-13 -5.76195e-13 -2.1983e-14)
(7.14126e-14 -5.12803e-13 -1.91996e-14)
(2.52694e-14 -2.53431e-13 -1.68107e-14)
(1.47441e-12 -3.55226e-13 -1.37818e-13)
(1.15833e-12 -1.2233e-12 -1.15035e-13)
(8.62514e-13 -1.61084e-12 -9.1867e-14)
(6.34889e-13 -1.37269e-12 -7.36336e-14)
(4.59912e-13 -1.17126e-12 -5.97656e-14)
(3.24691e-13 -1.00575e-12 -4.95346e-14)
(2.19804e-13 -8.68159e-13 -4.07308e-14)
(1.38315e-13 -7.53659e-13 -3.43663e-14)
(7.48186e-14 -6.53203e-13 -2.95783e-14)
(2.61116e-14 -3.17877e-13 -2.54457e-14)
(2.05146e-12 -8.82339e-13 -2.43754e-13)
(1.53233e-12 -2.19983e-12 -1.96176e-13)
(1.09295e-12 -2.41742e-12 -1.52017e-13)
(7.73635e-13 -1.9786e-12 -1.18496e-13)
(5.40673e-13 -1.62831e-12 -9.44552e-14)
(3.69249e-13 -1.35214e-12 -7.58306e-14)
(2.42469e-13 -1.13125e-12 -6.15496e-14)
(1.48403e-13 -9.53861e-13 -5.08033e-14)
(7.85112e-14 -8.05114e-13 -4.2719e-14)
(2.7049e-14 -3.86067e-13 -3.60382e-14)
(2.95845e-12 -1.75999e-12 -4.34115e-13)
(2.06412e-12 -3.73608e-12 -3.32601e-13)
(1.40326e-12 -3.58967e-12 -2.47029e-13)
(9.51361e-13 -2.81211e-12 -1.87097e-13)
(6.39441e-13 -2.22487e-12 -1.44188e-13)
(4.21632e-13 -1.78253e-12 -1.12767e-13)
(2.68194e-13 -1.44349e-12 -8.96082e-14)
(1.59523e-13 -1.1809e-12 -7.2096e-14)
(8.2255e-14 -9.69523e-13 -5.88661e-14)
(2.8012e-14 -4.57873e-13 -4.92982e-14)
(1.36707e-10 -3.3244e-12 -7.96704e-13)
(3.3708e-12 -6.2723e-12 -5.63141e-13)
(1.81972e-12 -5.31818e-12 -3.99363e-13)
(1.17486e-12 -3.96847e-12 -2.90027e-13)
(7.55902e-13 -3.00797e-12 -2.15437e-13)
(4.78792e-13 -2.31904e-12 -1.63247e-13)
(2.93374e-13 -1.81406e-12 -1.25539e-13)
(1.6824e-13 -1.4385e-12 -9.87183e-14)
(8.32106e-14 -1.14808e-12 -7.8454e-14)
(2.61429e-14 -5.33489e-13 -6.34922e-14)
(2.01415e-07 -3.76576e-10 -9.53205e-11)
(4.29136e-10 -3.54651e-10 -2.09545e-12)
(2.27344e-12 -9.32877e-12 -9.83793e-13)
(1.12329e-12 -5.59571e-12 -6.36395e-13)
(7.47895e-13 -4.0451e-12 -4.29256e-13)
(5.02004e-13 -2.99189e-12 -3.00762e-13)
(3.37239e-13 -2.2557e-12 -2.16835e-13)
(2.25171e-13 -1.73091e-12 -1.60129e-13)
(1.47981e-13 -1.34169e-12 -1.20665e-13)
(9.46919e-14 -6.13963e-13 -9.26916e-14)
(2.27851e-13 3.72768e-13 -1.36905e-14)
(2.15028e-13 3.46801e-13 -1.17321e-14)
(1.88514e-13 -5.22597e-14 -9.46177e-15)
(1.63213e-13 -5.32957e-14 -6.85816e-15)
(1.38932e-13 -5.232e-14 -5.12378e-15)
(1.15797e-13 -5.14438e-14 -3.11807e-15)
(9.36576e-14 -5.06501e-14 -2.04311e-15)
(7.25558e-14 -4.99446e-14 -1.39957e-15)
(5.23534e-14 -4.87059e-14 -6.64965e-16)
(3.31278e-14 -2.53331e-14 -5.64355e-16)
(5.00423e-13 3.38552e-13 -2.01903e-14)
(4.62046e-13 2.40704e-13 -1.77807e-14)
(3.95802e-13 -1.90012e-13 -1.34833e-14)
(3.34037e-13 -1.84791e-13 -1.06849e-14)
(2.76712e-13 -1.77781e-13 -8.23188e-15)
(2.23356e-13 -1.70944e-13 -5.99246e-15)
(1.73769e-13 -1.64518e-13 -4.35261e-15)
(1.27622e-13 -1.58406e-13 -3.2078e-15)
(8.46443e-14 -1.51942e-13 -2.81206e-15)
(4.50668e-14 -7.84065e-14 -2.35738e-15)
(6.19549e-13 2.72928e-13 -3.24633e-14)
(5.50889e-13 7.20084e-14 -2.86212e-14)
(4.55196e-13 -3.85626e-13 -2.29007e-14)
(3.69623e-13 -3.63319e-13 -1.86174e-14)
(2.9386e-13 -3.40275e-13 -1.4597e-14)
(2.2648e-13 -3.19154e-13 -1.15984e-14)
(1.66651e-13 -2.99556e-13 -9.48203e-15)
(1.13351e-13 -2.81636e-13 -8.28796e-15)
(6.58928e-14 -2.63275e-13 -7.16906e-15)
(2.42899e-14 -1.33928e-13 -6.33613e-15)
(8.14592e-13 1.57909e-13 -5.60339e-14)
(6.97742e-13 -1.9115e-13 -4.84038e-14)
(5.58915e-13 -6.62691e-13 -3.94648e-14)
(4.40632e-13 -6.05231e-13 -3.23187e-14)
(3.40447e-13 -5.50609e-13 -2.62593e-14)
(2.55393e-13 -5.02183e-13 -2.15426e-14)
(1.83081e-13 -4.59063e-13 -1.84689e-14)
(1.21675e-13 -4.20707e-13 -1.60284e-14)
(6.9353e-14 -3.83751e-13 -1.41992e-14)
(2.53461e-14 -1.92408e-13 -1.24864e-14)
(1.08995e-12 -3.70879e-14 -9.74931e-14)
(8.95649e-13 -5.99621e-13 -8.33431e-14)
(6.93351e-13 -1.05649e-12 -6.78486e-14)
(5.29149e-13 -9.3295e-13 -5.54415e-14)
(3.96557e-13 -8.23061e-13 -4.58338e-14)
(2.891e-13 -7.29228e-13 -3.83782e-14)
(2.01709e-13 -6.47933e-13 -3.18722e-14)
(1.30785e-13 -5.77892e-13 -2.72742e-14)
(7.29422e-14 -5.14168e-13 -2.33663e-14)
(2.65331e-14 -2.54152e-13 -2.07851e-14)
(1.48592e-12 -3.61862e-13 -1.71781e-13)
(1.16757e-12 -1.23283e-12 -1.43236e-13)
(8.69713e-13 -1.61943e-12 -1.14039e-13)
(6.40482e-13 -1.37946e-12 -9.14217e-14)
(4.64411e-13 -1.17658e-12 -7.4357e-14)
(3.28252e-13 -1.01016e-12 -6.14278e-14)
(2.22729e-13 -8.71731e-13 -5.07542e-14)
(1.40692e-13 -7.56381e-13 -4.26565e-14)
(7.6814e-14 -6.55548e-13 -3.65415e-14)
(2.77669e-14 -3.1922e-13 -3.15937e-14)
(2.07077e-12 -8.95918e-13 -3.04087e-13)
(1.54714e-12 -2.21767e-12 -2.43509e-13)
(1.104e-12 -2.43278e-12 -1.88825e-13)
(7.81988e-13 -1.99052e-12 -1.47706e-13)
(5.47111e-13 -1.63759e-12 -1.17727e-13)
(3.74222e-13 -1.3596e-12 -9.4565e-14)
(2.46445e-13 -1.13718e-12 -7.70392e-14)
(1.51497e-13 -9.5858e-13 -6.30108e-14)
(8.09771e-14 -8.08923e-13 -5.29204e-14)
(2.90797e-14 -3.88259e-13 -4.47231e-14)
(2.99239e-12 -1.78721e-12 -5.4109e-13)
(2.0879e-12 -3.77032e-12 -4.14046e-13)
(1.42011e-12 -3.6174e-12 -3.08233e-13)
(9.636e-13 -2.83278e-12 -2.33395e-13)
(6.48453e-13 -2.24055e-12 -1.79977e-13)
(4.28396e-13 -1.79468e-12 -1.40997e-13)
(2.73289e-13 -1.45308e-12 -1.12131e-13)
(1.63448e-13 -1.18847e-12 -8.96778e-14)
(8.52785e-14 -9.75435e-13 -7.31069e-14)
(3.03996e-14 -4.61201e-13 -6.08375e-14)
(1.42268e-10 -3.38295e-12 -9.88752e-13)
(3.43205e-12 -6.3408e-12 -7.02942e-13)
(1.84644e-12 -5.36768e-12 -4.99927e-13)
(1.1931e-12 -4.00397e-12 -3.63223e-13)
(7.68639e-13 -3.03405e-12 -2.70178e-13)
(4.87895e-13 -2.33875e-12 -2.04439e-13)
(2.99999e-13 -1.82899e-12 -1.57207e-13)
(1.73138e-13 -1.44995e-12 -1.23139e-13)
(8.68356e-14 -1.15702e-12 -9.79118e-14)
(2.88585e-14 -5.38625e-13 -7.92456e-14)
(2.195e-07 -3.98642e-10 -1.47103e-10)
(4.59505e-10 -3.69039e-10 -1.56701e-12)
(2.43645e-12 -9.44976e-12 -8.13139e-13)
(1.1729e-12 -5.64356e-12 -5.6191e-13)
(7.79562e-13 -4.07999e-12 -3.99382e-13)
(5.22835e-13 -3.01767e-12 -2.9126e-13)
(3.51397e-13 -2.27523e-12 -2.1723e-13)
(2.35058e-13 -1.74597e-12 -1.64639e-13)
(1.55048e-13 -1.35331e-12 -1.2696e-13)
(1.00045e-13 -6.20294e-13 -1.00167e-13)
(2.28527e-13 3.72259e-13 -1.63336e-14)
(2.15663e-13 3.45887e-13 -1.41815e-14)
(1.88932e-13 -5.3199e-14 -1.09214e-14)
(1.6356e-13 -5.42866e-14 -8.42078e-15)
(1.3928e-13 -5.31845e-14 -6.07011e-15)
(1.16069e-13 -5.22042e-14 -4.11013e-15)
(9.39207e-14 -5.11523e-14 -2.43081e-15)
(7.27252e-14 -5.01214e-14 -1.59969e-15)
(5.2527e-14 -4.87551e-14 -2.23614e-15)
(3.33272e-14 -2.54003e-14 -5.26609e-15)
(5.02038e-13 3.37936e-13 -2.41653e-14)
(4.63496e-13 2.39335e-13 -2.07205e-14)
(3.96957e-13 -1.91532e-13 -1.65561e-14)
(3.35014e-13 -1.8587e-13 -1.27831e-14)
(2.7753e-13 -1.78764e-13 -1.01419e-14)
(2.24084e-13 -1.71874e-13 -7.40662e-15)
(1.74433e-13 -1.65254e-13 -5.78719e-15)
(1.28273e-13 -1.58844e-13 -4.27209e-15)
(8.51705e-14 -1.51942e-13 -3.47467e-15)
(4.55887e-14 -7.84732e-14 -6.08265e-15)
(6.22454e-13 2.71884e-13 -3.90601e-14)
(5.53362e-13 6.99872e-14 -3.36937e-14)
(4.57273e-13 -3.87718e-13 -2.70444e-14)
(3.71398e-13 -3.65103e-13 -2.19783e-14)
(2.95291e-13 -3.41766e-13 -1.74111e-14)
(2.27774e-13 -3.20327e-13 -1.42744e-14)
(1.67782e-13 -3.00288e-13 -1.16038e-14)
(1.14462e-13 -2.82196e-13 -1.01229e-14)
(6.68708e-14 -2.63734e-13 -9.31505e-15)
(2.50582e-14 -1.34194e-13 -9.68405e-15)
(8.19589e-13 1.55811e-13 -6.6552e-14)
(7.01961e-13 -1.94625e-13 -5.71163e-14)
(5.62417e-13 -6.6601e-13 -4.65904e-14)
(4.43529e-13 -6.08029e-13 -3.81183e-14)
(3.42953e-13 -5.52954e-13 -3.15889e-14)
(2.57551e-13 -5.04034e-13 -2.65657e-14)
(1.84921e-13 -4.60389e-13 -2.24172e-14)
(1.23217e-13 -4.21677e-13 -1.93494e-14)
(7.07234e-14 -3.84794e-13 -1.73578e-14)
(2.65471e-14 -1.93024e-13 -1.61381e-14)
(1.09836e-12 -4.12309e-14 -1.16866e-13)
(9.02616e-13 -6.058e-13 -9.84676e-14)
(6.98959e-13 -1.06221e-12 -7.97618e-14)
(5.33659e-13 -9.37589e-13 -6.53245e-14)
(4.00311e-13 -8.26798e-13 -5.41195e-14)
(2.92242e-13 -7.32412e-13 -4.57153e-14)
(2.04377e-13 -6.50537e-13 -3.85997e-14)
(1.32946e-13 -5.79956e-13 -3.31018e-14)
(7.47896e-14 -5.15779e-13 -2.86618e-14)
(2.81959e-14 -2.55175e-13 -2.63685e-14)
(1.50012e-12 -3.70114e-13 -2.06453e-13)
(1.1788e-12 -1.24426e-12 -1.69174e-13)
(8.78425e-13 -1.62977e-12 -1.34801e-13)
(6.47374e-13 -1.38776e-12 -1.08659e-13)
(4.69887e-13 -1.18313e-12 -8.85818e-14)
(3.32684e-13 -1.01547e-12 -7.37707e-14)
(2.26362e-13 -8.76152e-13 -6.11597e-14)
(1.43603e-13 -7.59965e-13 -5.14118e-14)
(7.92678e-14 -6.58334e-13 -4.43292e-14)
(2.97716e-14 -3.20936e-13 -3.90147e-14)
(2.09467e-12 -9.12772e-13 -3.65489e-13)
(1.56516e-12 -2.23961e-12 -2.87748e-13)
(1.11746e-12 -2.45124e-12 -2.23345e-13)
(7.92243e-13 -2.00493e-12 -1.75818e-13)
(5.5497e-13 -1.6489e-12 -1.40081e-13)
(3.80362e-13 -1.36865e-12 -1.13692e-13)
(2.51271e-13 -1.14462e-12 -9.28648e-14)
(1.55301e-13 -9.6447e-13 -7.59208e-14)
(8.39931e-14 -8.13581e-13 -6.40054e-14)
(3.15137e-14 -3.91074e-13 -5.49583e-14)
(3.03307e-12 -1.82123e-12 -6.5121e-13)
(2.11687e-12 -3.81198e-12 -4.89488e-13)
(1.44088e-12 -3.65078e-12 -3.66079e-13)
(9.78641e-13 -2.85798e-12 -2.78052e-13)
(6.59545e-13 -2.25976e-12 -2.14914e-13)
(4.36679e-13 -1.80954e-12 -1.69095e-13)
(2.79547e-13 -1.46496e-12 -1.34994e-13)
(1.68265e-13 -1.19787e-12 -1.07591e-13)
(8.89671e-14 -9.82754e-13 -8.80458e-14)
(3.32744e-14 -4.65502e-13 -7.35531e-14)
(1.48765e-10 -3.43655e-12 -1.05515e-12)
(3.48884e-12 -6.42052e-12 -8.3331e-13)
(1.87796e-12 -5.42768e-12 -5.9637e-13)
(1.21495e-12 -4.04753e-12 -4.34484e-13)
(7.84073e-13 -3.06618e-12 -3.2391e-13)
(4.98955e-13 -2.36292e-12 -2.45753e-13)
(3.08047e-13 -1.84754e-12 -1.90147e-13)
(1.79043e-13 -1.46407e-12 -1.47485e-13)
(9.12113e-14 -1.16807e-12 -1.17751e-13)
(3.21324e-14 -5.44956e-13 -9.57855e-14)
(2.3812e-07 -3.74286e-10 1.88634e-10)
(4.87143e-10 -3.85627e-10 5.29948e-13)
(2.41505e-12 -9.58111e-12 -9.54292e-13)
(1.19313e-12 -5.71664e-12 -6.69092e-13)
(7.93708e-13 -4.132e-12 -4.77984e-13)
(5.32909e-13 -3.05538e-12 -3.49344e-13)
(3.5879e-13 -2.30331e-12 -2.61256e-13)
(2.40566e-13 -1.76718e-12 -1.98165e-13)
(1.5915e-13 -1.36922e-12 -1.52217e-13)
(1.0322e-13 -6.29215e-13 -1.20915e-13)
(2.29243e-13 3.71889e-13 -1.7607e-14)
(2.15982e-13 3.4469e-13 -1.13744e-14)
(1.89332e-13 -5.45108e-14 -8.86994e-15)
(1.63883e-13 -5.52048e-14 -7.38151e-15)
(1.39636e-13 -5.40403e-14 -7.92813e-15)
(1.16476e-13 -5.29346e-14 -9.96623e-15)
(9.44222e-14 -5.17413e-14 -1.41873e-14)
(7.35521e-14 -5.03269e-14 -3.99246e-14)
(5.40361e-14 -4.85358e-14 -1.62865e-13)
(3.49253e-14 -3.02828e-14 -5.45229e-13)
(5.03788e-13 3.37113e-13 -2.48431e-14)
(4.64587e-13 2.37947e-13 -1.4807e-14)
(3.98024e-13 -1.92965e-13 -1.28757e-14)
(3.35962e-13 -1.87211e-13 -1.08067e-14)
(2.78421e-13 -1.79881e-13 -1.05631e-14)
(2.25015e-13 -1.72766e-13 -1.24609e-14)
(1.75371e-13 -1.66e-13 -1.58631e-14)
(1.29327e-13 -1.59975e-13 -3.13071e-14)
(8.65995e-14 -1.53514e-13 -9.89762e-14)
(4.68157e-14 -8.69335e-14 -3.52365e-13)
(6.25509e-13 2.7058e-13 -4.06286e-14)
(5.55554e-13 6.7893e-14 -2.57259e-14)
(4.59171e-13 -3.89739e-13 -2.13512e-14)
(3.73113e-13 -3.66812e-13 -1.87701e-14)
(2.96944e-13 -3.43194e-13 -1.7132e-14)
(2.29408e-13 -3.2159e-13 -1.87667e-14)
(1.69342e-13 -3.01624e-13 -2.24611e-14)
(1.15921e-13 -2.83386e-13 -3.05903e-14)
(6.85635e-14 -2.65946e-13 -7.06586e-14)
(2.65144e-14 -1.43499e-13 -2.31539e-13)
(8.24928e-13 1.53666e-13 -6.97435e-14)
(7.05795e-13 -1.97663e-13 -4.63371e-14)
(5.65699e-13 -6.69082e-13 -3.87036e-14)
(4.46442e-13 -6.10491e-13 -3.37972e-14)