/*--------------------------------*- C++ -*----------------------------------*\
| =========                 |                                                 |
| \\      /  F ield         | OpenFOAM: The Open Source CFD Toolbox           |
|  \\    /   O peration     | Version:  4.1                                   |
|   \\  /    A nd           | Web:      www.OpenFOAM.org                      |
|    \\/     M anipulation  |                                                 |
\*---------------------------------------------------------------------------*/
FoamFile
{
    version     2.0;
    format      ascii;
    class       surfaceScalarField;
    location    "5.6";
    object      phi;
}
// * * * * * * * * * * * * * * * * * * * * * * * * * * * * * * * * * * * * * //

dimensions      [1 0 -1 0 0 0 0];

internalField   nonuniform List<scalar> 
150500
(
0.0168001
2.05144e-10
-3.43483e-12
0.0168001
1.14067e-09
-1.16394e-11
0.0168001
4.23939e-09
-1.35284e-11
0.0168
1.09201e-08
-2.15834e-11
0.0168
3.00532e-08
-2.16211e-11
0.0167999
6.9216e-08
-2.92001e-11
0.0167997
1.78827e-07
-2.96631e-11
0.0167993
4.09673e-07
-4.081e-11
0.0167981
1.03126e-06
-4.38037e-11
0.0167957
2.3526e-06
-8.17205e-11
0.0167881
6.62949e-06
-1.06147e-10
0.0167712
1.65132e-05
-2.66245e-10
0.0167145
5.36453e-05
-3.45864e-10
0.0165381
0.000170571
-1.42004e-09
0.015497
0.00101835
-3.02465e-09
0.014284
0.00121621
5.0189e-10
0.0130625
0.00122028
-2.45506e-11
0.0117778
0.00128202
-3.44525e-10
0.0104212
0.00135419
-3.37616e-10
0.00898168
0.00143777
-3.0083e-10
0.00742964
0.00155044
-2.70541e-10
0.00575482
0.00167337
-2.73978e-10
0.00396588
0.00178762
-2.81004e-10
0.00205696
0.00190711
-2.95064e-10
0.00205429
-3.16442e-10
0.0168001
4.075e-10
-3.42415e-12
0.0168001
2.24806e-09
-1.16452e-11
0.0168001
8.37251e-09
-1.35087e-11
0.0168
2.14762e-08
-2.16259e-11
0.0168
5.9402e-08
-2.15492e-11
0.0167999
1.36557e-07
-2.924e-11
0.0167997
3.55365e-07
-2.96174e-11
0.0167993
8.13076e-07
-4.08429e-11
0.0167981
2.06664e-06
-4.37072e-11
0.0167957
4.71011e-06
-8.16293e-11
0.0167879
1.34721e-05
-1.05969e-10
0.0167706
3.33492e-05
-2.64443e-10
0.0167098
0.000111384
-3.45091e-10
0.0165231
0.000351255
-1.4098e-09
0.0154599
0.00205825
-3.01944e-09
0.0142125
0.00246711
5.1271e-10
0.013001
0.00243061
-2.47888e-11
0.0117324
0.00254791
-3.4348e-10
0.0103835
0.00270065
-3.3524e-10
0.00892762
0.00289187
-2.97364e-10
0.00735323
0.00312316
-2.67195e-10
0.00566334
0.00336181
-2.69389e-10
0.00386183
0.00358787
-2.75e-10
0.00195831
0.00380895
-2.86689e-10
0.00401008
-3.06274e-10
0.0168001
5.64689e-10
-3.4045e-12
0.0168001
3.11039e-09
-1.16513e-11
0.0168001
1.16186e-08
-1.34783e-11
0.0168
2.97287e-08
-2.17013e-11
0.0168
8.25752e-08
-2.1417e-11
0.0168
1.89106e-07
-2.93112e-11
0.0167998
4.99426e-07
-2.95218e-11
0.0167995
1.11831e-06
-4.08897e-11
0.0167984
3.00243e-06
-4.34541e-11
0.0167964
6.58687e-06
-8.13515e-11
0.0167889
2.00228e-05
-1.05433e-10
0.016774
4.78322e-05
-2.60371e-10
0.0167047
0.000177445
-3.43543e-10
0.0165153
0.000534312
-1.3885e-09
0.015453
0.00309614
-3.02139e-09
0.0141673
0.00375675
5.3596e-10
0.0129623
0.00363452
-2.37847e-11
0.0117137
0.00379377
-3.44487e-10
0.0103849
0.00402727
-3.33668e-10
0.00893605
0.00433913
-2.93133e-10
0.00736576
0.00469196
-2.63383e-10
0.00567541
0.00505146
-2.61709e-10
0.00386193
0.00540013
-2.62447e-10
0.00195402
0.00571544
-2.69766e-10
0.00596195
-2.83632e-10
0.0168001
6.71552e-10
-3.37954e-12
0.0168001
3.6948e-09
-1.16517e-11
0.0168001
1.38019e-08
-1.34656e-11
0.0168
3.51608e-08
-2.17161e-11
0.0168
9.78594e-08
-2.13508e-11
0.0168
2.22153e-07
-2.92903e-11
0.0167999
5.98223e-07
-2.94021e-11
0.0167997
1.28323e-06
-4.05808e-11
0.0167988
3.762e-06
-4.32355e-11
0.0167976
7.68866e-06
-7.93426e-11
0.0167909
2.57996e-05
-1.04603e-10
0.01678
5.82271e-05
-2.47178e-10
0.0167027
0.000251567
-3.62815e-10
0.0165281
0.000703892
-1.34203e-09
0.0155446
0.00405289
-3.03172e-09
0.0142284
0.00507872
5.65249e-10
0.0130298
0.00483363
-9.22109e-12
0.0118016
0.00502017
-3.41711e-10
0.0104942
0.00533357
-3.30443e-10
0.00906085
0.00577073
-2.85947e-10
0.00749713
0.00625286
-2.54196e-10
0.00580775
0.00673962
-2.51763e-10
0.00398218
0.0072258
-2.45606e-10
0.00201751
0.00767952
-2.47055e-10
0.007978
-2.52775e-10
0.0168001
7.24986e-10
-3.35421e-12
0.0168001
4.02434e-09
-1.1644e-11
0.0168001
1.50558e-08
-1.34941e-11
0.0168001
3.83787e-08
-2.15703e-11
0.0168
1.06522e-07
-2.14922e-11
0.0168
2.39799e-07
-2.90496e-11
0.0167999
6.6104e-07
-2.92721e-11
0.0167999
1.30833e-06
-3.96159e-11
0.016799
4.52523e-06
-4.27998e-11
0.0167992
7.41499e-06
-7.4711e-11
0.0167902
3.38004e-05
-1.00204e-10
0.0167815
6.63059e-05
-2.3248e-10
0.01672
0.000309673
-3.54006e-10
0.0165721
0.000846589
-1.27897e-09
0.0158075
0.00478838
-3.05568e-09
0.0144557
0.00643734
5.33337e-10
0.0132337
0.00605594
-2.20579e-11
0.0120065
0.00624572
-3.33227e-10
0.0107222
0.00661596
-3.22455e-10
0.00931084
0.00718307
-2.80278e-10
0.0077664
0.00779929
-2.49893e-10
0.00606361
0.00844296
-2.45114e-10
0.00419472
0.00909451
-2.38552e-10
0.00216391
0.00971025
-2.28518e-10
0.0101412
-2.24816e-10
0.0168001
8.8595e-10
-3.34019e-12
0.0168001
4.89642e-09
-1.1612e-11
0.0168001
1.82299e-08
-1.35953e-11
0.0168
4.65975e-08
-2.1396e-11
0.0168
1.28833e-07
-2.18938e-11
0.0168
2.92601e-07
-2.91242e-11
0.0167998
7.87286e-07
-3.00309e-11
0.0167995
1.64039e-06
-4.31823e-11
0.0167986
5.21488e-06
-3.95853e-11
0.0167975
8.58135e-06
-1.15137e-10
0.0167912
3.90161e-05
-1.50207e-11
0.0167834
7.39084e-05
-3.27285e-10
0.0167485
0.000341047
-1.6549e-10
0.016666
0.000924627
-1.14734e-09
0.0163224
0.00510079
-2.7814e-09
0.0149344
0.00783222
2.92377e-10
0.0136409
0.00735207
-1.46473e-10
0.012391
0.00749525
-3.38928e-10
0.0111145
0.00789203
-3.11624e-10
0.00972218
0.00857303
-2.63031e-10
0.00817525
0.00934602
-2.46851e-10
0.00647179
0.0101472
-2.46114e-10
0.00455308
0.0110147
-2.35425e-10
0.00237628
0.0118878
-2.18083e-10
0.0125175
-2.07274e-10
0.0168001
1.03531e-09
-3.30995e-12
0.0168001
5.69369e-09
-1.1586e-11
0.0168001
2.12076e-08
-1.35663e-11
0.0168
5.42185e-08
-2.12705e-11
0.0168
1.50097e-07
-2.15825e-11
0.0168
3.42747e-07
-2.83675e-11
0.0167998
9.03999e-07
-2.8468e-11
0.0167995
1.99854e-06
-3.66921e-11
0.016799
5.49019e-06
-3.97323e-11
0.0167962
1.1344e-05
-6.95991e-11
0.0167961
3.81851e-05
-5.85101e-11
0.0167925
7.70524e-05
-2.26764e-10
0.0167959
0.000334112
-2.3503e-10
0.0168212
0.000895229
-9.94119e-10
0.0171885
0.00470164
-2.54702e-09
0.0157542
0.00926937
-3.5799e-11
0.0142813
0.00882649
-2.61503e-10
0.0129795
0.0087982
-2.94567e-10
0.0116987
0.00917451
-2.68391e-10
0.0103298
0.00994214
-2.45012e-10
0.00879461
0.01088
-2.50958e-10
0.0070515
0.01189
-2.43787e-10
0.00507059
0.0129959
-2.28372e-10
0.00275624
0.0142032
-2.11757e-10
0.0152743
-1.97053e-10
0.0168001
1.08401e-09
-3.26906e-12
0.0168001
6.03658e-09
-1.15943e-11
0.0168001
2.2518e-08
-1.35461e-11
0.0168001
5.80927e-08
-2.12477e-11
0.0168
1.59549e-07
-2.14941e-11
0.0168
3.66514e-07
-2.8212e-11
0.0167999
9.51822e-07
-2.79838e-11
0.0167998
2.13625e-06
-3.57099e-11
0.0167996
5.57409e-06
-3.82821e-11
0.0167985
1.23647e-05
-5.5271e-11
0.016801
3.49431e-05
-6.51738e-11
0.0167992
7.84659e-05
-1.68767e-10
0.0168558
0.000274825
-2.00125e-10
0.0170135
0.000731683
-7.26865e-10
0.0182735
0.00342636
-1.45275e-09
0.0169345
0.0105983
-1.02416e-09
0.0151297
0.0106269
-5.3332e-10
0.0137774
0.0101501
-1.71703e-10
0.0124921
0.0104597
-1.83706e-10
0.0111152
0.0113192
-2.47724e-10
0.00960073
0.0123945
-2.63559e-10
0.00787344
0.0136179
-2.4925e-10
0.00584734
0.0150241
-2.36804e-10
0.00333324
0.0167203
-2.10834e-10
0.018609
-1.9378e-10
0.0168001
1.46924e-09
-3.23904e-12
0.0168001
6.57903e-09
-1.15907e-11
0.0168001
2.6697e-08
-1.35498e-11
0.0168
6.44524e-08
-2.12247e-11
0.0168
1.87627e-07
-2.1463e-11
0.0168
4.10553e-07
-2.81335e-11
0.0167998
1.10257e-06
-2.78167e-11
0.0167994
2.47574e-06
-3.53178e-11
0.016799
5.87025e-06
-3.73924e-11
0.0167966
1.46773e-05
-5.34893e-11
0.0167973
3.36062e-05
-5.91021e-11
0.0167943
8.1034e-05
-1.63474e-10
0.0168049
0.000261416
-1.57563e-10
0.0168404
0.000694441
-6.13406e-10
0.017297
0.00295265
-1.3013e-09
0.0167851
0.0110884
-1.87682e-09
0.0154903
0.011916
-9.25645e-10
0.0144165
0.0112271
1.18887e-10
0.0131912
0.0116853
-4.32857e-11
0.0119765
0.0125316
-2.79919e-10
0.01055
0.0138207
-2.59853e-10
0.00894326
0.0152248
-2.2542e-10
0.00702716
0.0169399
-2.12321e-10
0.00439484
0.0193522
-1.88333e-10
0.0230053
-1.79093e-10
0.0168001
-3.26243e-12
2.17029e-09
0.0168001
-1.16091e-11
1.67557e-09
0.0168001
-1.36682e-11
2.8904e-08
0.0168001
-2.17421e-11
2.50174e-08
0.0168001
-2.14336e-11
1.91138e-07
0.0168003
-2.90532e-11
1.63291e-07
0.0168003
-2.84819e-11
1.15705e-06
0.0168019
-3.7973e-11
8.4208e-07
0.0167999
-3.78218e-11
7.68957e-06
0.0168114
-6.564e-11
3.19682e-06
0.0167865
-7.14095e-11
5.7696e-05
0.0168525
-1.16483e-10
1.41287e-05
0.0167062
-1.19837e-10
0.000404223
0.0169903
-6.41637e-10
0.000412321
0.0170604
-1.10679e-09
0.00286854
0.0165898
-2.08044e-09
0.0115315
0.0160031
-2.01958e-10
0.0125032
0.0149089
3.69699e-11
0.0123241
0.013871
-1.27872e-10
0.0127236
0.0128377
-2.27315e-10
0.0135618
0.0116892
-2.34512e-10
0.0149696
0.0103698
-2.22664e-10
0.0165461
0.00862237
-2.04765e-10
0.0186907
0.0060869
-1.86257e-10
0.0218906
-1.60998e-10
0.0290937
0.0168001
2.10474e-10
-5.37431e-16
0.0168001
1.14228e-09
-2.84398e-15
0.0168
4.25253e-09
-6.3107e-15
0.0168
1.09097e-08
-1.33862e-14
0.0168
3.00853e-08
-2.49912e-14
0.0167999
6.92204e-08
-4.75804e-14
0.0167997
1.7886e-07
-9.94721e-14
0.0167993
4.09686e-07
-1.96269e-13
0.0167981
1.03133e-06
-4.60216e-13
0.0167957
2.35271e-06
-9.51833e-13
0.0167881
6.62978e-06
-2.6276e-12
0.0167712
1.65145e-05
-6.25403e-12
0.0167145
5.36478e-05
-1.55446e-11
0.016538
0.000170584
-5.30253e-11
0.0154969
0.00101838
-1.38914e-10
0.0142839
0.00121619
2.06785e-11
0.0130625
0.00122026
-2.43244e-12
0.0117778
0.00128201
-1.37632e-11
0.0104213
0.00135418
-1.22711e-11
0.00898172
0.00143776
-9.76709e-12
0.00742969
0.00155042
-1.22242e-11
0.00575489
0.00167336
-1.63202e-11
0.00396596
0.00178762
-1.98454e-11
0.00205701
0.00190713
-2.35505e-11
0.00205434
-2.85884e-11
0.0168001
4.17265e-10
-5.37551e-16
0.0168001
2.25332e-09
-2.84285e-15
0.0168001
8.39468e-09
-6.31281e-15
0.0168
2.14574e-08
-1.3393e-14
0.0168
5.94659e-08
-2.50336e-14
0.0167999
1.36563e-07
-4.7675e-14
0.0167997
3.5544e-07
-9.99002e-14
0.0167993
8.13126e-07
-1.97226e-13
0.0167981
2.06687e-06
-4.63746e-13
0.0167957
4.71049e-06
-9.58333e-13
0.0167879
1.3473e-05
-2.66103e-12
0.0167706
3.33526e-05
-6.30627e-12
0.0167098
0.000111389
-1.58105e-11
0.0165231
0.000351279
-5.36504e-11
0.0154599
0.00205833
-1.40781e-10
0.0142124
0.00246704
2.18406e-11
0.013001
0.00243058
-2.15634e-12
0.0117324
0.00254788
-1.341e-11
0.0103836
0.00270063
-1.18266e-11
0.00892765
0.00289185
-9.32994e-12
0.00735328
0.00312313
-1.19419e-11
0.00566339
0.0033618
-1.587e-11
0.00386188
0.00358786
-1.93456e-11
0.00195834
0.00380898
-2.27771e-11
0.00401017
-2.73984e-11
0.0168001
5.77025e-10
-5.37149e-16
0.0168001
3.12071e-09
-2.8361e-15
0.0168001
1.16357e-08
-6.30887e-15
0.0168
2.97394e-08
-1.33888e-14
0.0168
8.26259e-08
-2.51116e-14
0.0168
1.89155e-07
-4.79091e-14
0.0167998
4.99549e-07
-1.00854e-13
0.0167995
1.1186e-06
-2.00965e-13
0.0167984
3.00286e-06
-4.69823e-13
0.0167964
6.58842e-06
-9.84233e-13
0.0167889
2.00251e-05
-2.73821e-12
0.016774
4.78416e-05
-6.47791e-12
0.0167047
0.000177447
-1.62992e-11
0.0165153
0.000534359
-5.48816e-11
0.0154529
0.00309629
-1.44939e-10
0.0141673
0.00375664
2.51382e-11
0.0129623
0.00363448
-1.08681e-12
0.0117137
0.00379374
-1.29512e-11
0.0103848
0.00402725
-1.13678e-11
0.00893604
0.0043391
-8.93855e-12
0.00736575
0.00469193
-1.16826e-11
0.00567542
0.00505143
-1.4982e-11
0.00386193
0.00540013
-1.78506e-11
0.00195403
0.00571546
-2.06677e-11
0.00596204
-2.39728e-11
0.0168001
6.84016e-10
-5.17533e-16
0.0168001
3.70865e-09
-2.75146e-15
0.0168001
1.38023e-08
-6.01862e-15
0.0168
3.52326e-08
-1.27585e-14
0.0168
9.78332e-08
-2.32586e-14
0.0168
2.2225e-07
-4.35763e-14
0.0167999
5.98307e-07
-9.24746e-14
0.0167997
1.28359e-06
-1.63877e-13
0.0167988
3.76211e-06
-4.77154e-13
0.0167976
7.68971e-06
-7.73835e-13
0.0167909
2.58022e-05
-2.86633e-12
0.0167799
5.82396e-05
-5.36479e-12
0.0167027
0.000251588
-2.18625e-11
0.0165281
0.000703987
-5.56776e-11
0.0155443
0.00405323
-1.56614e-10
0.0142282
0.00507857
3.04715e-11
0.0130296
0.00483354
2.56076e-12
0.0118014
0.00502011
-1.17237e-11
0.010494
0.00533353
-1.04805e-11
0.00906073
0.00577071
-8.03548e-12
0.00749701
0.00625283
-1.02618e-11
0.00580765
0.00673958
-1.32755e-11
0.00398212
0.00722575
-1.52904e-11
0.00201748
0.00767951
-1.73619e-11
0.00797806
-1.92302e-11
0.0168001
7.3269e-10
-5.14334e-16
0.0168001
4.04883e-09
-2.73586e-15
0.0168001
1.50294e-08
-5.98626e-15
0.0168001
3.84639e-08
-1.2675e-14
0.0168
1.06405e-07
-2.32059e-14
0.0168
2.39793e-07
-4.35433e-14
0.0167999
6.60809e-07
-9.30612e-14
0.0167999
1.30721e-06
-1.67494e-13
0.016799
4.52701e-06
-4.83969e-13
0.0167992
7.39998e-06
-8.04577e-13
0.0167902
3.38411e-05
-2.97574e-12
0.0167815
6.6274e-05
-5.52666e-12
0.0167199
0.000309798
-2.27184e-11
0.0165719
0.000846744
-5.73917e-11
0.015807
0.00478909
-1.66665e-10
0.0144552
0.00643717
3.52729e-11
0.0132333
0.0060557
5.44563e-12
0.0120062
0.00624559
-1.08302e-11
0.0107219
0.0066159
-1.00704e-11
0.00931061
0.00718303
-8.29626e-12
0.00776621
0.00779923
-9.38653e-12
0.00606347
0.00844288
-1.14694e-11
0.00419461
0.00909442
-1.31748e-11
0.00216386
0.00971018
-1.37821e-11
0.0101412
-1.43591e-11
0.0168001
9.01139e-10
-4.90428e-16
0.0168001
4.92156e-09
-2.65766e-15
0.0168001
1.82656e-08
-5.69603e-15
0.0168
4.66813e-08
-1.17691e-14
0.0168
1.29057e-07
-2.13287e-14
0.0168
2.9309e-07
-3.83236e-14
0.0167998
7.88364e-07
-8.25135e-14
0.0167995
1.64425e-06
-1.19938e-13
0.0167986
5.2168e-06
-5.00142e-13
0.0167974
8.60277e-06
-3.76103e-13
0.0167912
3.90078e-05
-3.22081e-12
0.0167833
7.39666e-05
-4.41701e-12
0.0167485
0.000341046
-2.40397e-11
0.016666
0.000924791
-5.70185e-11
0.0163223
0.00510166
-1.72544e-10
0.0149343
0.00783201
2.96854e-11
0.0136408
0.00735184
6.76038e-12
0.0123909
0.00749512
-8.89545e-12
0.0111144
0.007892
-8.19991e-12
0.00972203
0.00857303
-7.16477e-12
0.00817511
0.00934596
-7.65725e-12
0.00647166
0.0101471
-9.42671e-12
0.00455298
0.0110146
-1.03699e-11
0.00237622
0.0118876
-1.00935e-11
0.0125174
-9.57601e-12
0.0168001
1.05527e-09
-5.03132e-16
0.0168001
5.70552e-09
-2.69872e-15
0.0168001
2.12355e-08
-5.88553e-15
0.0168
5.42586e-08
-1.22358e-14
0.0168
1.50195e-07
-2.27413e-14
0.0168
3.42949e-07
-4.22066e-14
0.0167998
9.04511e-07
-8.84196e-14
0.0167995
1.99975e-06
-1.66559e-13
0.016799
5.49254e-06
-4.51595e-13
0.0167962
1.13542e-05
-7.05543e-13
0.0167961
3.81924e-05
-3.06857e-12
0.0167925
7.70888e-05
-4.70657e-12
0.0167958
0.000334172
-2.17737e-11
0.0168211
0.000895441
-5.38166e-11
0.0171879
0.00470297
-1.71581e-10
0.0157538
0.00926896
8.67362e-12
0.0142811
0.00882601
4.16401e-13
0.0129794
0.00879806
-6.22898e-12
0.0116986
0.0091745
-5.98832e-12
0.0103297
0.00994213
-7.05507e-12
0.00879453
0.0108799
-7.534e-12
0.00705143
0.0118899
-7.79879e-12
0.00507051
0.0129958
-7.71103e-12
0.0027562
0.0142031
-6.66741e-12
0.0152742
-5.20024e-12
0.0168001
1.09716e-09
-4.85691e-16
0.0168001
6.045e-09
-2.62124e-15
0.0168001
2.25187e-08
-5.62381e-15
0.0168001
5.80798e-08
-1.1666e-14
0.0168
1.5951e-07
-2.09696e-14
0.0168
3.66478e-07
-3.84868e-14
0.0167999
9.51774e-07
-7.66333e-14
0.0167998
2.13623e-06
-1.42574e-13
0.0167996
5.57431e-06
-3.56146e-13
0.0167985
1.23656e-05
-6.35633e-13
0.016801
3.49472e-05
-2.28678e-12
0.0167992
7.84703e-05
-3.20157e-12
0.0168559
0.000274861
-1.59719e-11
0.0170137
0.00073179
-3.76665e-11
0.0182744
0.00342692
-9.83892e-11
0.0169347
0.0105986
-6.13572e-11
0.0151299
0.0106265
-2.08849e-11
0.0137775
0.0101501
-4.29331e-14
0.012492
0.0104598
-2.54266e-12
0.0111152
0.0113191
-9.70278e-12
0.00960069
0.0123944
-9.13581e-12
0.00787338
0.0136178
-7.47218e-12
0.00584729
0.015024
-6.55128e-12
0.00333321
0.0167201
-4.45822e-12
0.0186089
-1.74919e-12
0.0168001
1.4441e-09
-4.79765e-16
0.0168001
6.68613e-09
-2.59175e-15
0.0168001
2.67341e-08
-5.53919e-15
0.0168
6.42358e-08
-1.14782e-14
0.0168
1.87564e-07
-2.04547e-14
0.0168
4.10118e-07
-3.74324e-14
0.0167998
1.10206e-06
-7.35947e-14
0.0167994
2.47468e-06
-1.3732e-13
0.016799
5.86934e-06
-3.31247e-13
0.0167966
1.46743e-05
-6.29715e-13
0.0167973
3.36005e-05
-1.85244e-12
0.0167943
8.10385e-05
-3.67955e-12
0.016805
0.000261422
-1.22683e-11
0.0168405
0.00069447
-3.06908e-11
0.0172974
0.002953
-8.93859e-11
0.0167856
0.0110885
-1.2501e-10
0.01549
0.0119163
-5.6176e-11
0.0144164
0.0112269
1.84558e-11
0.0131914
0.0116851
4.97519e-12
0.0119765
0.0125317
-1.43207e-11
0.0105501
0.0138206
-1.13354e-11
0.00894331
0.0152247
-7.52355e-12
0.00702721
0.0169398
-6.09124e-12
0.00439484
0.0193521
-3.22474e-12
0.0230052
1.54016e-13
0.0168001
-4.99636e-16
2.03445e-09
0.0168001
-2.64761e-15
2.03607e-09
0.0168001
-5.74974e-15
2.77081e-08
0.0168001
-1.21518e-14
2.55013e-08
0.0168001
-2.16639e-14
1.89788e-07
0.0168003
-4.09349e-14
1.63903e-07
0.0168003
-8.09806e-14
1.15601e-06
0.0168019
-1.64395e-13
8.43133e-07
0.0167999
-3.49344e-13
7.68858e-06
0.0168113
-7.68753e-13
3.20299e-06
0.0167864
-2.02371e-12
5.76959e-05
0.0168521
-4.48623e-12
1.55765e-05
0.0167064
-1.06095e-11
0.000404204
0.0169902
-3.01355e-11
0.000412432
0.0170605
-7.94496e-11
0.0028687
0.0165898
-1.44604e-10
0.0115318
0.0160034
-8.03319e-12
0.0125032
0.0149091
7.7676e-12
0.0123241
0.013871
-4.30531e-12
0.0127236
0.0128378
-1.17558e-11
0.0135618
0.0116892
-1.091e-11
0.0149696
0.0103698
-9.114e-12
0.016546
0.00862239
-6.53488e-12
0.0186905
0.00608695
-3.81686e-12
0.0218905
-6.06643e-13
0.0290936
0.0168001
2.10474e-10
2.08432e-16
0.0168001
1.14228e-09
1.84819e-16
0.0168
4.25253e-09
1.14091e-16
0.0168
1.09097e-08
2.4647e-16
0.0168
3.00852e-08
6.94096e-16
0.0167999
6.92203e-08
1.42944e-15
0.0167997
1.7886e-07
3.89286e-15
0.0167993
4.09685e-07
8.23275e-15
0.0167981
1.03133e-06
2.13654e-14
0.0167957
2.3527e-06
4.56333e-14
0.0167881
6.62976e-06
1.31494e-13
0.0167712
1.65144e-05
3.16072e-13
0.0167145
5.36476e-05
8.00461e-13
0.016538
0.000170583
2.7409e-12
0.0154969
0.00101838
7.29302e-12
0.014284
0.00121618
-1.16395e-12
0.0130626
0.00122026
-1.06233e-13
0.0117778
0.00128201
4.03563e-13
0.0104213
0.00135418
3.24691e-13
0.00898174
0.00143775
1.64227e-13
0.00742972
0.00155042
2.64312e-13
0.00575492
0.00167336
4.20868e-13
0.00396598
0.00178762
5.15245e-13
0.00205703
0.00190713
6.28677e-13
0.00205436
6.52891e-13
0.0168001
4.17265e-10
2.08543e-16
0.0168001
2.25333e-09
1.85061e-16
0.0168001
8.3947e-09
1.14827e-16
0.0168
2.14574e-08
2.48067e-16
0.0168
5.9466e-08
6.9972e-16
0.0167999
1.36563e-07
1.44111e-15
0.0167997
3.55441e-07
3.93321e-15
0.0167993
8.13127e-07
8.32152e-15
0.0167981
2.06688e-06
2.165e-14
0.0167957
4.71048e-06
4.61932e-14
0.0167879
1.3473e-05
1.33857e-13
0.0167706
3.33526e-05
3.20344e-13
0.0167098
0.000111388
8.17898e-13
0.0165231
0.000351277
2.78566e-12
0.0154599
0.00205833
7.41943e-12
0.0142125
0.00246703
-1.2243e-12
0.013001
0.00243057
-1.23274e-13
0.0117324
0.00254788
3.82725e-13
0.0103836
0.00270063
2.98736e-13
0.00892768
0.00289184
1.39206e-13
0.0073533
0.00312313
2.44924e-13
0.00566341
0.0033618
3.97551e-13
0.00386189
0.00358787
4.87934e-13
0.00195835
0.00380899
5.99798e-13
0.0040102
6.25458e-13
0.0168001
5.77034e-10
2.08634e-16
0.0168001
3.12075e-09
1.8599e-16
0.0168001
1.16358e-08
1.15968e-16
0.0168
2.97398e-08
2.50382e-16
0.0168
8.2627e-08
7.11139e-16
0.0168
1.89158e-07
1.46782e-15
0.0167998
4.99555e-07
4.02191e-15
0.0167995
1.11862e-06
8.60452e-15
0.0167984
3.00287e-06
2.2179e-14
0.0167964
6.58853e-06
4.80421e-14
0.0167889
2.00251e-05
1.39223e-13
0.016774
4.78422e-05
3.32651e-13
0.0167047
0.000177444
8.51106e-13
0.0165153
0.000534357
2.87645e-12
0.0154529
0.00309628
7.70257e-12
0.0141673
0.00375662
-1.39718e-12
0.0129623
0.00363447
-1.90936e-13
0.0117137
0.00379373
3.58161e-13
0.0103849
0.00402725
2.74749e-13
0.00893606
0.0043391
1.19755e-13
0.00736577
0.00469193
2.14913e-13
0.00567544
0.00505143
3.37453e-13
0.00386195
0.00540014
4.03833e-13
0.00195403
0.00571548
4.99025e-13
0.00596208
5.36112e-13
0.0168001
6.84019e-10
2.03441e-16
0.0168001
3.70866e-09
1.95087e-16
0.0168001
1.38024e-08
1.01923e-16
0.0168
3.52328e-08
2.1969e-16
0.0168
9.78336e-08
6.20723e-16
0.0168
2.22251e-07
1.25297e-15
0.0167999
5.98309e-07
3.62604e-15
0.0167997
1.2836e-06
6.7177e-15
0.0167988
3.76213e-06
2.29112e-14
0.0167976
7.68973e-06
3.7408e-14
0.0167909
2.58022e-05
1.48033e-13
0.0167799
5.82396e-05
2.7855e-13
0.0167027
0.000251588
1.15735e-12
0.0165281
0.000703985
2.96111e-12
0.0155443
0.00405322
8.43821e-12
0.0142282
0.00507855
-1.67581e-12
0.0130297
0.00483353
-3.97137e-13
0.0118015
0.00502011
2.93532e-13
0.0104941
0.00533353
2.31536e-13
0.00906075
0.0057707
7.81879e-14
0.00749702
0.00625283
1.30557e-13
0.00580766
0.00673958
2.19939e-13
0.00398212
0.00722576
2.67485e-13
0.00201748
0.00767953
3.35531e-13
0.0079781
3.66163e-13
0.0168001
7.327e-10
2.02929e-16
0.0168001
4.04887e-09
1.96994e-16
0.0168001
1.50295e-08
1.02164e-16
0.0168001
3.84644e-08
2.20144e-16
0.0168
1.06406e-07
6.30166e-16
0.0168
2.39796e-07
1.27682e-15
0.0167999
6.60815e-07
3.72917e-15
0.0167999
1.30723e-06
7.04472e-15
0.016799
4.52701e-06
2.37051e-14
0.0167992
7.40017e-06
3.97607e-14
0.0167902
3.38409e-05
1.5653e-13
0.0167815
6.62745e-05
2.91967e-13
0.0167199
0.000309798
1.22318e-12
0.0165719
0.000846746
3.10219e-12
0.015807
0.0047891
9.1185e-12
0.0144552
0.00643714
-1.92911e-12
0.0132333
0.00605568
-5.76848e-13
0.0120062
0.00624558
2.52785e-13
0.0107219
0.0066159
2.19255e-13
0.00931061
0.00718303
1.08506e-13
0.00776622
0.00779923
1.0003e-13
0.00606347
0.00844289
1.13761e-13
0.00419461
0.00909443
1.24278e-13
0.00216386
0.0097102
1.50408e-13
0.0101412
1.59739e-13
0.0168001
9.01133e-10
1.96678e-16
0.0168001
4.92154e-09
2.0401e-16
0.0168001
1.82655e-08
8.69928e-17
0.0168
4.66811e-08
1.85139e-16
0.0168
1.29056e-07
5.27791e-16
0.0168
2.93089e-07
1.03356e-15
0.0167998
7.88361e-07
3.23e-15
0.0167995
1.64423e-06
4.62116e-15
0.0167986
5.21682e-06
2.50462e-14
0.0167974
8.60266e-06
1.71666e-14
0.0167912
3.90082e-05
1.99441e-13
0.0167833
7.39667e-05
2.3621e-13
0.0167485
0.000341049
1.31812e-12
0.016666
0.000924797
3.1363e-12
0.0163222
0.0051017
9.59317e-12
0.0149343
0.00783198
-1.62557e-12
0.0136408
0.00735181
-6.72161e-13
0.0123909
0.0074951
1.56096e-13
0.0111144
0.00789199
1.40077e-13
0.00972202
0.00857303
6.69939e-14
0.0081751
0.00934596
2.89968e-14
0.00647165
0.0101471
2.09969e-14
0.00455298
0.0110146
-2.21986e-15
0.00237622
0.0118877
-2.33794e-14
0.0125175
-5.42421e-14
0.0168001
1.05528e-09
2.00756e-16
0.0168001
5.70556e-09
2.01407e-16
0.0168001
2.12356e-08
1.00246e-16
0.0168
5.42589e-08
2.17045e-16
0.0168
1.50196e-07
6.21547e-16
0.0168
3.42951e-07
1.2776e-15
0.0167998
9.04517e-07
3.64352e-15
0.0167995
1.99976e-06
7.29842e-15
0.016799
5.49259e-06
2.2985e-14
0.0167962
1.13543e-05
3.55144e-14
0.0167961
3.81929e-05
1.6882e-13
0.0167925
7.709e-05
2.55408e-13
0.0167958
0.000334177
1.218e-12
0.0168211
0.000895455
3.01464e-12
0.0171879
0.00470306
9.71261e-12
0.0157538
0.00926892
-4.46333e-13
0.0142811
0.00882596
-3.23775e-13
0.0129794
0.00879804
1.70546e-14
0.0116986
0.00917449
4.68954e-14
0.0103296
0.00994212
1.16856e-13
0.00879451
0.0108799
6.42998e-14
0.00705141
0.0118899
-1.44166e-14
0.0050705
0.0129958
-1.03535e-13
0.00275619
0.0142031
-1.71269e-13
0.0152742
-2.44244e-13
0.0168001
1.09717e-09
1.95709e-16
0.0168001
6.04501e-09
2.08616e-16
0.0168001
2.25188e-08
8.73477e-17
0.0168001
5.80799e-08
1.89011e-16
0.0168
1.5951e-07
5.32635e-16
0.0168
3.66479e-07
1.08968e-15
0.0167999
9.51776e-07
3.04108e-15
0.0167998
2.13623e-06
6.06409e-15
0.0167996
5.57433e-06
1.79338e-14
0.0167985
1.23656e-05
3.252e-14
0.016801
3.49475e-05
1.27091e-13
0.0167992
7.84703e-05
1.72783e-13
0.0168559
0.000274864
9.118e-13
0.0170137
0.000731798
2.14749e-12
0.0182745
0.00342696
5.68548e-12
0.0169347
0.0105987
3.53918e-12
0.0151299
0.0106265
9.16564e-13
0.0137774
0.0101501
-3.02705e-13
0.012492
0.0104598
-1.0374e-13
0.0111152
0.0113191
3.49318e-13
0.00960067
0.0123944
1.69142e-13
0.00787337
0.0136178
4.13251e-14
0.00584728
0.015024
-8.22819e-14
0.0033332
0.0167201
-2.18254e-13
0.0186089
-3.50002e-13
0.0168001
1.44409e-09
1.94133e-16
0.0168001
6.68614e-09
2.11398e-16
0.0168001
2.6734e-08
8.42434e-17
0.0168
6.42357e-08
1.82221e-16
0.0168
1.87564e-07
5.1381e-16
0.0168
4.10118e-07
1.05151e-15
0.0167998
1.10205e-06
2.92704e-15
0.0167994
2.47468e-06
5.88747e-15
0.016799
5.86934e-06
1.68278e-14
0.0167966
1.46743e-05
3.29245e-14
0.0167973
3.36006e-05
1.03336e-13
0.0167943
8.10383e-05
2.0635e-13
0.016805
0.000261423
7.04515e-13
0.0168406
0.000694473
1.76885e-12
0.0172974
0.00295303
5.1976e-12
0.0167856
0.0110885
7.22153e-12
0.01549
0.0119164
3.06403e-12
0.0144164
0.0112269
-1.34293e-12
0.0131914
0.0116851
-4.8772e-13
0.0119765
0.0125317
7.05353e-13
0.0105501
0.0138206
4.47073e-13
0.0089433
0.0152247
1.36565e-13
0.00702719
0.0169398
2.19656e-14
0.00439483
0.0193521
-1.71469e-13
0.0230052
-2.89313e-13
0.0168001
1.99155e-16
2.03443e-09
0.0168001
2.06939e-16
2.03615e-09
0.0168001
9.53513e-17
2.77081e-08
0.0168001
2.05716e-16
2.55018e-08
0.0168001
5.93144e-16
1.89789e-07
0.0168003
1.23532e-15
1.63905e-07
0.0168003
3.35528e-15
1.15602e-06
0.0168019
7.53428e-15
8.43145e-07
0.0167999
1.78696e-14
7.68863e-06
0.0168113
4.13856e-14
3.20304e-06
0.0167864
1.14009e-13
5.76963e-05
0.0168521
2.55875e-13
1.55769e-05
0.0167064
6.1375e-13
0.000404206
0.0169902
1.75448e-12
0.000412436
0.0170605
4.6732e-12
0.00286873
0.0165898
8.53649e-12
0.0115318
0.0160034
3.31972e-13
0.0125032
0.0149091
-6.87855e-13
0.0123241
0.013871
1.54527e-13
0.0127236
0.0128377
6.09544e-13
0.0135618
0.0116892
4.97691e-13
0.0149696
0.0103698
3.72113e-13
0.016546
0.00862237
2.14253e-13
0.0186905
0.00608694
8.10165e-14
0.0218905
7.86789e-14
0.0290936
0.0168001
2.10474e-10
-1.55404e-16
0.0168001
1.14228e-09
-5.23318e-16
0.0168
4.25253e-09
-1.40607e-15
0.0168
1.09097e-08
-2.78411e-15
0.0168
3.00852e-08
-7.23754e-15
0.0167999
6.92203e-08
-1.45461e-14
0.0167997
1.7886e-07
-3.84795e-14
0.0167993
4.09685e-07
-8.1131e-14
0.0167981
1.03133e-06
-2.05786e-13
0.0167957
2.35271e-06
-4.42377e-13
0.0167881
6.62976e-06
-1.24776e-12
0.0167712
1.65144e-05
-2.98665e-12
0.0167145
5.36476e-05
-7.45262e-12
0.016538
0.000170583
-2.52886e-11
0.0154969
0.00101838
-6.71947e-11
0.014284
0.00121618
1.32121e-11
0.0130626
0.00122026
1.22018e-12
0.0117778
0.00128201
-4.16137e-12
0.0104213
0.00135418
-3.21794e-12
0.00898174
0.00143775
-1.76804e-12
0.00742972
0.00155042
-3.45507e-12
0.00575492
0.00167336
-5.95225e-12
0.00396598
0.00178762
-7.79993e-12
0.00205703
0.00190713
-9.56078e-12
0.00205436
-1.12119e-11
0.0168001
4.17265e-10
-1.55957e-16
0.0168001
2.25333e-09
-5.25292e-16
0.0168001
8.3947e-09
-1.41265e-15
0.0168
2.14574e-08
-2.79756e-15
0.0168
5.9466e-08
-7.28707e-15
0.0167999
1.36563e-07
-1.46493e-14
0.0167997
3.55441e-07
-3.88406e-14
0.0167993
8.13127e-07
-8.19486e-14
0.0167981
2.06688e-06
-2.08324e-13
0.0167957
4.71048e-06
-4.47529e-13
0.0167879
1.3473e-05
-1.26925e-12
0.0167706
3.33526e-05
-3.0252e-12
0.0167098
0.000111388
-7.61152e-12
0.0165231
0.000351277
-2.5685e-11
0.0154599
0.00205833
-6.82852e-11
0.0142125
0.00246703
1.38214e-11
0.013001
0.00243057
1.35561e-12
0.0117324
0.00254788
-3.95763e-12
0.0103836
0.00270063
-2.95323e-12
0.00892768
0.00289184
-1.50242e-12
0.0073533
0.00312313
-3.2714e-12
0.00566341
0.0033618
-5.6954e-12
0.00386189
0.00358787
-7.49638e-12
0.00195835
0.00380899
-9.17632e-12
0.0040102
-1.07204e-11
0.0168001
5.77034e-10
-1.56609e-16
0.0168001
3.12075e-09
-5.26357e-16
0.0168001
1.16358e-08
-1.4219e-15
0.0168
2.97397e-08
-2.81615e-15
0.0168
8.2627e-08
-7.3878e-15
0.0168
1.89158e-07
-1.48899e-14
0.0167998
4.99554e-07
-3.9644e-14
0.0167995
1.11862e-06
-8.46241e-14
0.0167984
3.00287e-06
-2.13001e-13
0.0167964
6.58853e-06
-4.64998e-13
0.0167889
2.00251e-05
-1.31833e-12
0.016774
4.78421e-05
-3.13886e-12
0.0167047
0.000177444
-7.90972e-12
0.0165153
0.000534357
-2.64863e-11
0.0154529
0.00309628
-7.07656e-11
0.0141673
0.00375662
1.56031e-11
0.0129623
0.00363447
1.92122e-12
0.0117137
0.00379373
-3.71582e-12
0.0103849
0.00402725
-2.69834e-12
0.00893606
0.0043391
-1.27584e-12
0.00736577
0.00469193
-3.01574e-12
0.00567543
0.00505143
-5.0878e-12
0.00386195
0.00540014
-6.5518e-12
0.00195403
0.00571548
-7.96221e-12
0.00596208
-9.2143e-12
0.0168001
6.84019e-10
-1.40868e-16
0.0168001
3.70866e-09
-4.77643e-16
0.0168001
1.38024e-08
-1.27282e-15
0.0168
3.52328e-08
-2.50411e-15
0.0168
9.78336e-08
-6.48985e-15
0.0168
2.22251e-07
-1.27782e-14
0.0167999
5.98309e-07
-3.57235e-14
0.0167997
1.2836e-06
-6.63204e-14
0.0167988
3.76212e-06
-2.19399e-13
0.0167976
7.68973e-06
-3.62159e-13
0.0167909
2.58022e-05
-1.40068e-12
0.0167799
5.82396e-05
-2.61602e-12
0.0167027
0.000251588
-1.08812e-11
0.0165281
0.000703985
-2.72181e-11
0.0155443
0.00405322
-7.76536e-11
0.0142282
0.00507855
1.84943e-11
0.0130297
0.00483353
3.97002e-12
0.0118015
0.00502011
-3.04963e-12
0.0104941
0.00533353
-2.21992e-12
0.00906074
0.0057707
-7.6681e-13
0.00749702
0.00625283
-2.10855e-12
0.00580766
0.00673958
-3.88603e-12
0.00398212
0.00722576
-4.96976e-12
0.00201748
0.00767953
-6.01535e-12
0.0079781
-6.83367e-12
0.0168001
7.327e-10
-1.40092e-16
0.0168001
4.04887e-09
-4.73592e-16
0.0168001
1.50295e-08
-1.27049e-15
0.0168001
3.84644e-08
-2.49835e-15
0.0168
1.06406e-07
-6.55482e-15
0.0168
2.39795e-07
-1.29512e-14
0.0167999
6.60815e-07
-3.6571e-14
0.0167999
1.30723e-06
-6.91037e-14
0.016799
4.52701e-06
-2.2628e-13
0.0167992
7.40016e-06
-3.82809e-13
0.0167902
3.38409e-05
-1.47663e-12
0.0167815
6.62745e-05
-2.73625e-12
0.0167199
0.000309798
-1.14783e-11
0.0165719
0.000846746
-2.84771e-11
0.015807
0.0047891
-8.38888e-11
0.0144552
0.00643715
2.11902e-11
0.0132333
0.00605568
5.67428e-12
0.0120062
0.00624558
-2.57872e-12
0.0107219
0.0066159
-2.02884e-12
0.00931061
0.00718303
-9.68514e-13
0.00776622
0.00779923
-1.64961e-12
0.00606347
0.00844289
-2.68399e-12
0.00419461
0.00909443
-3.51474e-12
0.00216386
0.0097102
-3.8451e-12
0.0101412