/*--------------------------------*- C++ -*----------------------------------*\
| =========                 |                                                 |
| \\      /  F ield         | OpenFOAM: The Open Source CFD Toolbox           |
|  \\    /   O peration     | Version:  4.1                                   |
|   \\  /    A nd           | Web:      www.OpenFOAM.org                      |
|    \\/     M anipulation  |                                                 |
\*---------------------------------------------------------------------------*/
FoamFile
{
    version     2.0;
    format      ascii;
    class       volScalarField;
    location    "5.6";
    object      T;
}
// * * * * * * * * * * * * * * * * * * * * * * * * * * * * * * * * * * * * * //

dimensions      [0 0 0 1 0 0 0];

internalField   nonuniform List<scalar> 
52500
(
0.999996
1.00002
1.00004
1.00016
1.0003
1.00096
1.00178
1.00533
1.01105
1.02884
1.07715
1.17235
1.52782
2.33174
2.65852
2.73192
2.72651
2.7239
2.73863
2.75078
2.76441
2.77292
2.7794
2.78369
2.78638
0.999996
1.00002
1.00004
1.00016
1.00029
1.00095
1.00176
1.00524
1.01091
1.02839
1.07621
1.16973
1.52312
2.32151
2.65538
2.73193
2.72636
2.72364
2.73822
2.75029
2.76365
2.77182
2.77821
2.78151
2.78335
0.999995
1.00002
1.00004
1.00015
1.00028
1.00092
1.00171
1.00507
1.01063
1.02747
1.07423
1.16427
1.51253
2.29874
2.64714
2.73096
2.72512
2.72201
2.73643
2.7482
2.76154
2.76903
2.77473
2.7789
2.7796
0.999995
1.00002
1.00004
1.00015
1.00027
1.00088
1.00164
1.00484
1.0102
1.02623
1.0711
1.15673
1.49271
2.25919
2.63345
2.72831
2.72196
2.71776
2.73161
2.74318
2.75653
2.76492
2.77064
2.77224
2.7748
0.999995
1.00002
1.00004
1.00014
1.00026
1.00084
1.00155
1.00461
1.00961
1.02494
1.06669
1.14885
1.45807
2.19796
2.61316
2.72424
2.71768
2.71193
2.72673
2.73666
2.74982
2.75561
2.7623
2.76604
2.7648
0.999995
1.00001
1.00003
1.00013
1.00024
1.00079
1.00145
1.00445
1.00886
1.02389
1.06022
1.13885
1.41264
2.11394
2.58515
2.71775
2.71092
2.70158
2.71627
2.72619
2.73858
2.74758
2.75107
2.75199
2.75498
0.999995
1.00001
1.00003
1.00012
1.00022
1.00073
1.00134
1.00418
1.00802
1.02263
1.05272
1.12726
1.36131
2.00996
2.54716
2.70884
2.70235
2.69124
2.70573
2.716
2.72477
2.73018
2.73794
2.7396
2.73532
0.999995
1.00001
1.00003
1.00011
1.0002
1.00066
1.00121
1.00378
1.0072
1.02064
1.04607
1.116
1.31053
1.90385
2.49237
2.68851
2.68121
2.67351
2.68901
2.70017
2.71285
2.71512
2.71524
2.71359
2.71198
0.999995
1.00001
1.00002
1.0001
1.00018
1.00059
1.00108
1.0034
1.00643
1.01861
1.0411
1.10376
1.27658
1.79976
2.47514
2.67977
2.66685
2.65692
2.67279
2.67773
2.68897
2.6932
2.69247
2.68546
2.66071
0.999994
1.00001
1.00002
1.00008
1.00015
1.00049
1.00092
1.00266
1.00571
1.01449
1.03863
1.08666
1.2574
1.67102
2.41397
2.65538
2.6546
2.65192
2.65398
2.66327
2.66496
2.66399
2.65491
2.63343
2.58356
1
1.00003
1.00005
1.00017
1.00031
1.00097
1.00179
1.00534
1.01106
1.02886
1.07716
1.17239
1.52786
2.33187
2.6586
2.73199
2.72658
2.72397
2.7387
2.75085
2.76449
2.77299
2.77948
2.78377
2.78646
1
1.00003
1.00005
1.00017
1.0003
1.00096
1.00177
1.00525
1.01092
1.02841
1.07622
1.16977
1.52316
2.32165
2.65545
2.732
2.72642
2.72371
2.73829
2.75036
2.76373
2.77189
2.77829
2.78159
2.78343
1
1.00003
1.00005
1.00016
1.00029
1.00093
1.00172
1.00508
1.01064
1.02748
1.07424
1.16431
1.51257
2.29888
2.64722
2.73103
2.72519
2.72208
2.7365
2.74827
2.76161
2.76911
2.7748
2.77898
2.77967
1
1.00002
1.00005
1.00016
1.00028
1.00089
1.00165
1.00485
1.01021
1.02624
1.07112
1.15677
1.49275
2.25933
2.63353
2.72838
2.72203
2.71783
2.73168
2.74325
2.7566
2.765
2.77072
2.77231
2.77488
1
1.00002
1.00004
1.00015
1.00027
1.00085
1.00156
1.00462
1.00962
1.02495
1.0667
1.1489
1.45811
2.19811
2.61324
2.72431
2.71775
2.71199
2.7268
2.73673
2.74989
2.75568
2.76237
2.76611
2.76488
1
1.00002
1.00004
1.00014
1.00025
1.0008
1.00146
1.00446
1.00887
1.02391
1.06022
1.13889
1.41265
2.11406
2.58522
2.71782
2.71099
2.70165
2.71634
2.72625
2.73865
2.74765
2.75114
2.75206
2.75506
1
1.00002
1.00004
1.00013
1.00023
1.00074
1.00135
1.00419
1.00803
1.02264
1.05273
1.1273
1.36134
2.01008
2.54723
2.7089
2.70242
2.6913
2.7058
2.71607
2.72483
2.73025
2.738
2.73967
2.73539
1
1.00002
1.00004
1.00012
1.00021
1.00067
1.00122
1.00379
1.00721
1.02065
1.04609
1.11602
1.31056
1.90392
2.49245
2.68857
2.68127
2.67357
2.68907
2.70023
2.71291
2.71519
2.71531
2.71366
2.71204
1
1.00002
1.00003
1.0001
1.00019
1.0006
1.00109
1.00341
1.00644
1.01862
1.04111
1.10379
1.2766
1.79985
2.47519
2.67984
2.66692
2.65697
2.67285
2.67779
2.68903
2.69326
2.69252
2.68551
2.66077
1
1.00001
1.00003
1.00009
1.00016
1.00049
1.00093
1.00267
1.00572
1.0145
1.03864
1.08668
1.25741
1.67114
2.41403
2.65545
2.65467
2.65198
2.65404
2.66332
2.66502
2.66406
2.65498
2.63349
2.5836
1
1.00003
1.00005
1.00017
1.00031
1.00097
1.00179
1.00534
1.01106
1.02886
1.07716
1.17239
1.52786
2.33187
2.6586
2.73199
2.72658
2.72397
2.7387
2.75085
2.76449
2.77299
2.77948
2.78377
2.78646
1
1.00003
1.00005
1.00017
1.0003
1.00096
1.00177
1.00525
1.01092
1.02841
1.07622
1.16978
1.52316
2.32165
2.65545
2.732
2.72642
2.72371
2.73829
2.75036
2.76373
2.77189
2.77829
2.78159
2.78343
1
1.00003
1.00005
1.00016
1.00029
1.00093
1.00172
1.00508
1.01064
1.02748
1.07424
1.16432
1.51257
2.29888
2.64722
2.73103
2.72519
2.72208
2.7365
2.74827
2.76161
2.76911
2.7748
2.77898
2.77967
1
1.00002
1.00005
1.00016
1.00028
1.00089
1.00165
1.00485
1.01021
1.02624
1.07112
1.15678
1.49276
2.25933
2.63353
2.72838
2.72203
2.71783
2.73168
2.74325
2.7566
2.765
2.77072
2.77231
2.77488
1
1.00002
1.00004
1.00015
1.00027
1.00085
1.00156
1.00462
1.00962
1.02495
1.0667
1.1489
1.45812
2.19811
2.61324
2.72431
2.71775
2.71199
2.7268
2.73674
2.74989
2.75568
2.76237
2.76611
2.76488
1
1.00002
1.00004
1.00014
1.00025
1.0008
1.00146
1.00446
1.00887
1.02391
1.06022
1.13889
1.41265
2.11407
2.58522
2.71782
2.71099
2.70165
2.71634
2.72625
2.73865
2.74765
2.75114
2.75206
2.75506
1
1.00002
1.00004
1.00013
1.00023
1.00074
1.00135
1.00419
1.00803
1.02264
1.05273
1.1273
1.36134
2.01009
2.54723
2.7089
2.70242
2.6913
2.7058
2.71607
2.72483
2.73025
2.738
2.73967
2.73539
1
1.00002
1.00004
1.00012
1.00021
1.00067
1.00122
1.00379
1.00721
1.02065
1.04609
1.11602
1.31056
1.90393
2.49245
2.68857
2.68127
2.67357
2.68907
2.70023
2.71291
2.71519
2.71531
2.71366
2.71204
1
1.00002
1.00003
1.0001
1.00019
1.0006
1.00109
1.00341
1.00644
1.01862
1.04111
1.10379
1.2766
1.79985
2.47519
2.67984
2.66693
2.65697
2.67285
2.67779
2.68903
2.69326
2.69252
2.68551
2.66077
1
1.00001
1.00003
1.00009
1.00016
1.00049
1.00093
1.00267
1.00572
1.0145
1.03864
1.08669
1.25741
1.67115
2.41403
2.65545
2.65467
2.65198
2.65404
2.66332
2.66502
2.66406
2.65498
2.63349
2.5836
1
1.00003
1.00005
1.00017
1.00031
1.00097
1.00179
1.00534
1.01106
1.02886
1.07716
1.17239
1.52786
2.33187
2.6586
2.73199
2.72658
2.72397
2.7387
2.75085
2.76449
2.77299
2.77948
2.78377
2.78646
1
1.00003
1.00005
1.00017
1.0003
1.00096
1.00177
1.00525
1.01092
1.02841
1.07622
1.16978
1.52316
2.32165
2.65545
2.732
2.72642
2.72371
2.73829
2.75036
2.76373
2.77189
2.77829
2.78159
2.78343
1
1.00003
1.00005
1.00016
1.00029
1.00093
1.00172
1.00508
1.01064
1.02748
1.07424
1.16432
1.51257
2.29888
2.64722
2.73103
2.72519
2.72208
2.7365
2.74827
2.76161
2.76911
2.7748
2.77898
2.77967
1
1.00002
1.00005
1.00016
1.00028
1.00089
1.00165
1.00485
1.01021
1.02624
1.07112
1.15678
1.49276
2.25933
2.63353
2.72838
2.72203
2.71783
2.73168
2.74325
2.7566
2.765
2.77072
2.77231
2.77488
1
1.00002
1.00004
1.00015
1.00027
1.00085
1.00156
1.00462
1.00962
1.02495
1.0667
1.1489
1.45812
2.19811
2.61324
2.72431
2.71775
2.71199
2.7268
2.73674
2.74989
2.75568
2.76237
2.76611
2.76488
1
1.00002
1.00004
1.00014
1.00025
1.0008
1.00146
1.00446
1.00887
1.02391
1.06022
1.13889
1.41265
2.11407
2.58522
2.71782
2.71099
2.70165
2.71634
2.72625
2.73865
2.74765
2.75114
2.75206
2.75506
1
1.00002
1.00004
1.00013
1.00023
1.00074
1.00135
1.00419
1.00803
1.02264
1.05273
1.1273
1.36134
2.01009
2.54723
2.7089
2.70242
2.6913
2.7058
2.71607
2.72483
2.73025
2.738
2.73967
2.73539
1
1.00002
1.00004
1.00012
1.00021
1.00067
1.00122
1.00379
1.00721
1.02065
1.04609
1.11602
1.31056
1.90393
2.49245
2.68857
2.68127
2.67357
2.68907
2.70023
2.71291
2.71519
2.71531
2.71366
2.71204
1
1.00002
1.00003
1.0001
1.00019
1.0006
1.00109
1.00341
1.00644
1.01862
1.04111
1.10379
1.2766
1.79985
2.47519
2.67984
2.66693
2.65697
2.67285
2.67779
2.68903
2.69326
2.69252
2.68551
2.66077
1
1.00001
1.00003
1.00009
1.00016
1.00049
1.00093
1.00267
1.00572
1.0145
1.03864
1.08669
1.25741
1.67115
2.41403
2.65545
2.65467
2.65198
2.65404
2.66332
2.66502
2.66406
2.65498
2.63349
2.5836
1
1.00003
1.00005
1.00017
1.00031
1.00097
1.00179
1.00534
1.01106
1.02886
1.07716
1.17239
1.52786
2.33187
2.6586
2.73199
2.72658
2.72397
2.7387
2.75085
2.76449
2.77299
2.77948
2.78377
2.78646
1
1.00003
1.00005
1.00017
1.0003
1.00096
1.00177
1.00525
1.01092
1.02841
1.07622
1.16978
1.52316
2.32165
2.65545
2.732
2.72642
2.72371
2.73829
2.75036
2.76373
2.77189
2.77829
2.78159
2.78343
1
1.00003
1.00005
1.00016
1.00029
1.00093
1.00172
1.00508
1.01064
1.02748
1.07424
1.16432
1.51257
2.29888
2.64722
2.73103
2.72519
2.72208
2.7365
2.74827
2.76161
2.76911
2.7748
2.77898
2.77967
1
1.00002
1.00005
1.00016
1.00028
1.00089
1.00165
1.00485
1.01021
1.02624
1.07112
1.15678
1.49276
2.25934
2.63353
2.72838
2.72203
2.71783
2.73168
2.74325
2.7566
2.765
2.77072
2.77231
2.77488
1
1.00002
1.00004
1.00015
1.00027
1.00085
1.00156
1.00462
1.00962
1.02495
1.0667
1.1489
1.45812
2.19812
2.61324
2.72431
2.71775
2.71199
2.7268
2.73674
2.74989
2.75568
2.76237
2.76612
2.76488
1
1.00002
1.00004
1.00014
1.00025
1.0008
1.00146
1.00446
1.00887
1.02391
1.06022
1.13889
1.41265
2.11407
2.58522
2.71782
2.71099
2.70165
2.71634
2.72624
2.73865
2.74765
2.75114
2.75206
2.75506
1
1.00002
1.00004
1.00013
1.00023
1.00074
1.00135
1.00419
1.00803
1.02264
1.05273
1.1273
1.36134
2.01009
2.54723
2.7089
2.70242
2.6913
2.7058
2.71607
2.72483
2.73025
2.738
2.73967
2.73539
1
1.00002
1.00004
1.00012
1.00021
1.00067
1.00122
1.00379
1.00721
1.02065
1.04609
1.11602
1.31056
1.90393
2.49245
2.68857
2.68127
2.67357
2.68907
2.70023
2.71291
2.71519
2.71531
2.71366
2.71204
1
1.00002
1.00003
1.0001
1.00019
1.0006
1.00109
1.00341
1.00644
1.01862
1.04111
1.10379
1.2766
1.79986
2.4752
2.67984
2.66693
2.65697
2.67285
2.67779
2.68903
2.69326
2.69252
2.68551
2.66077
1
1.00001
1.00003
1.00009
1.00016
1.00049
1.00093
1.00267
1.00572
1.0145
1.03864
1.08669
1.25741
1.67115
2.41403
2.65545
2.65467
2.65198
2.65404
2.66332
2.66502
2.66406
2.65498
2.63349
2.5836
1
1.00003
1.00005
1.00017
1.00031
1.00097
1.00179
1.00534
1.01106
1.02886
1.07716
1.17239
1.52786
2.33187
2.6586
2.73199
2.72658
2.72397
2.7387
2.75085
2.76449
2.77299
2.77948
2.78377
2.78646
1
1.00003
1.00005
1.00017
1.0003
1.00096
1.00177
1.00525
1.01092
1.02841
1.07622
1.16978
1.52316
2.32165
2.65545
2.732
2.72642
2.72371
2.73829
2.75036
2.76373
2.77189
2.77829
2.78159
2.78343
1
1.00003
1.00005
1.00016
1.00029
1.00093
1.00172
1.00508
1.01064
1.02748
1.07424
1.16432
1.51257
2.29888
2.64722
2.73103
2.72519
2.72208
2.7365
2.74827
2.76161
2.76911
2.7748
2.77898
2.77967
1
1.00002
1.00005
1.00016
1.00028
1.00089
1.00165
1.00485
1.01021
1.02624
1.07112
1.15678
1.49276
2.25934
2.63353
2.72838
2.72203
2.71783
2.73168
2.74325
2.7566
2.765
2.77072
2.77231
2.77488
1
1.00002
1.00004
1.00015
1.00027
1.00085
1.00156
1.00462
1.00962
1.02495
1.0667
1.1489
1.45812
2.19811
2.61324
2.72431
2.71775
2.71199
2.7268
2.73674
2.74989
2.75568
2.76237
2.76612
2.76488
1
1.00002
1.00004
1.00014
1.00025
1.0008
1.00146
1.00446
1.00887
1.02391
1.06022
1.13889
1.41265
2.11407
2.58522
2.71782
2.71099
2.70165
2.71634
2.72624
2.73865
2.74765
2.75114
2.75206
2.75506
1
1.00002
1.00004
1.00013
1.00023
1.00074
1.00135
1.00419
1.00803
1.02264
1.05273
1.1273
1.36134
2.01009
2.54723
2.7089
2.70242
2.6913
2.7058
2.71607
2.72483
2.73025
2.738
2.73967
2.73539
1
1.00002
1.00004
1.00012
1.00021
1.00067
1.00122
1.00379
1.00721
1.02065
1.04609
1.11602
1.31056
1.90393
2.49245
2.68857
2.68127
2.67357
2.68907
2.70023
2.71291
2.71519
2.71531
2.71366
2.71204
1
1.00002
1.00003
1.0001
1.00019
1.0006
1.00109
1.00341
1.00644
1.01862
1.04111
1.10379
1.2766
1.79986
2.4752
2.67984
2.66693
2.65697
2.67285
2.67779
2.68903
2.69326
2.69252
2.68551
2.66077
1
1.00001
1.00003
1.00009
1.00016
1.00049
1.00093
1.00267
1.00572
1.0145
1.03864
1.08669
1.25741
1.67115
2.41403
2.65545
2.65467
2.65198
2.65404
2.66332
2.66502
2.66406
2.65498
2.63349
2.5836
1
1.00003
1.00005
1.00017
1.00031
1.00097
1.00179
1.00534
1.01106
1.02886
1.07716
1.17239
1.52786
2.33187
2.6586
2.73199
2.72658
2.72397
2.7387
2.75085
2.76449
2.77299
2.77948
2.78377
2.78646
1
1.00003
1.00005
1.00017
1.0003
1.00096
1.00177
1.00525
1.01092
1.02841
1.07622
1.16978
1.52316
2.32165
2.65545
2.732
2.72642
2.72371
2.73829
2.75036
2.76373
2.77189
2.77829
2.78159
2.78343
1
1.00003
1.00005
1.00016
1.00029
1.00093
1.00172
1.00508
1.01064
1.02748
1.07424
1.16432
1.51257
2.29888
2.64722
2.73103
2.72519
2.72208
2.7365
2.74827
2.76161
2.76911
2.7748
2.77898
2.77967
1
1.00002
1.00005
1.00016
1.00028
1.00089
1.00165
1.00485
1.01021
1.02624
1.07112
1.15678
1.49276
2.25933
2.63353
2.72838
2.72203
2.71783
2.73168
2.74325
2.7566
2.765
2.77072
2.77231
2.77488
1
1.00002
1.00004
1.00015
1.00027
1.00085
1.00156
1.00462
1.00962
1.02495
1.0667
1.1489
1.45812
2.19811
2.61324
2.72431
2.71775
2.71199
2.7268
2.73674
2.74989
2.75568
2.76237
2.76612
2.76488
1
1.00002
1.00004
1.00014
1.00025
1.0008
1.00146
1.00446
1.00887
1.02391
1.06022
1.13889
1.41265
2.11407
2.58522
2.71782
2.71099
2.70165
2.71634
2.72625
2.73865
2.74765
2.75114
2.75206
2.75506
1
1.00002
1.00004
1.00013
1.00023
1.00074
1.00135
1.00419
1.00803
1.02264
1.05273
1.1273
1.36134
2.01009
2.54723
2.7089
2.70242
2.6913
2.7058
2.71607
2.72483
2.73025
2.738
2.73967
2.73539
1
1.00002
1.00004
1.00012
1.00021
1.00067
1.00122
1.00379
1.00721
1.02065
1.04609
1.11602
1.31056
1.90393
2.49245
2.68857
2.68127
2.67357
2.68907
2.70023
2.71291
2.71519
2.71531
2.71366
2.71204
1
1.00002
1.00003
1.0001
1.00019
1.0006
1.00109
1.00341
1.00644
1.01862
1.04111
1.10379
1.2766
1.79985
2.47519
2.67984
2.66693
2.65697
2.67285
2.67779
2.68903
2.69326
2.69252
2.68551
2.66077
1
1.00001
1.00003
1.00009
1.00016
1.00049
1.00093
1.00267
1.00572
1.0145
1.03864
1.08669
1.25741
1.67115
2.41403
2.65545
2.65467
2.65198
2.65404
2.66332
2.66502
2.66406
2.65498
2.63349
2.5836
1
1.00003
1.00005
1.00017
1.00031
1.00097
1.00179
1.00534
1.01106
1.02886
1.07716
1.17239
1.52786
2.33187
2.6586
2.73199
2.72658
2.72397
2.7387
2.75085
2.76449
2.77299
2.77948
2.78377
2.78646
1
1.00003
1.00005
1.00017
1.0003
1.00096
1.00177
1.00525
1.01092
1.02841
1.07622
1.16978
1.52316
2.32165
2.65545
2.732
2.72642
2.72371
2.73829
2.75036
2.76373
2.77189
2.77829
2.78159
2.78343
1
1.00003
1.00005
1.00016
1.00029
1.00093
1.00172
1.00508
1.01064
1.02748
1.07424
1.16432
1.51257
2.29888
2.64722
2.73103
2.72519
2.72208
2.7365
2.74827
2.76161
2.76911
2.7748
2.77898
2.77967
1
1.00002
1.00005
1.00016
1.00028
1.00089
1.00165
1.00485
1.01021
1.02624
1.07112
1.15678
1.49276
2.25933
2.63353
2.72838
2.72203
2.71783
2.73168
2.74325
2.7566
2.765
2.77072
2.77231
2.77488
1
1.00002
1.00004
1.00015
1.00027
1.00085
1.00156
1.00462
1.00962
1.02495
1.0667
1.1489
1.45812
2.19811
2.61324
2.72431
2.71775
2.71199
2.7268
2.73674
2.74989
2.75568
2.76237
2.76611
2.76488
1
1.00002
1.00004
1.00014
1.00025
1.0008
1.00146
1.00446
1.00887
1.02391
1.06022
1.13889
1.41265
2.11407
2.58522
2.71782
2.71099
2.70165
2.71634
2.72625
2.73865
2.74765
2.75114
2.75206
2.75506
1
1.00002
1.00004
1.00013
1.00023
1.00074
1.00135
1.00419
1.00803
1.02264
1.05273
1.1273
1.36134
2.01009
2.54723
2.7089
2.70242
2.6913
2.7058
2.71607
2.72483
2.73025
2.738
2.73967
2.73539
1
1.00002
1.00004
1.00012
1.00021
1.00067
1.00122
1.00379
1.00721
1.02065
1.04609
1.11602
1.31056
1.90393
2.49245
2.68857
2.68127
2.67357
2.68907
2.70023
2.71291
2.71519
2.71531
2.71366
2.71204
1
1.00002
1.00003
1.0001
1.00019
1.0006
1.00109
1.00341
1.00644
1.01862
1.04111
1.10379
1.2766
1.79985
2.47519
2.67984
2.66693
2.65697
2.67285
2.67779
2.68903
2.69326
2.69252
2.68551
2.66077
1
1.00001
1.00003
1.00009
1.00016
1.00049
1.00093
1.00267
1.00572
1.0145
1.03864
1.08669
1.25741
1.67115
2.41403
2.65545
2.65467
2.65198
2.65404
2.66332
2.66502
2.66406
2.65498
2.63349
2.5836
1
1.00003
1.00005
1.00017
1.00031
1.00097
1.00179
1.00534
1.01106
1.02886
1.07716
1.17239
1.52786
2.33187
2.6586
2.73199
2.72658
2.72397
2.7387
2.75085
2.76449
2.77299
2.77948
2.78377
2.78646
1
1.00003
1.00005
1.00017
1.0003
1.00096
1.00177
1.00525
1.01092
1.02841
1.07622
1.16977
1.52316
2.32165
2.65545
2.732
2.72642
2.72371
2.73829
2.75036
2.76373
2.77189
2.77829
2.78159
2.78343
1
1.00003
1.00005
1.00016
1.00029
1.00093
1.00172
1.00508
1.01064
1.02748
1.07424
1.16431
1.51257
2.29888
2.64722
2.73103
2.72519
2.72208
2.7365
2.74827
2.76161
2.76911
2.7748
2.77898
2.77967
1
1.00002
1.00005
1.00016
1.00028
1.00089
1.00165
1.00485
1.01021
1.02624
1.07112
1.15677
1.49275
2.25933
2.63353
2.72838
2.72203
2.71783
2.73168
2.74325
2.7566
2.765
2.77072
2.77231
2.77488
1
1.00002
1.00004
1.00015
1.00027
1.00085
1.00156
1.00462
1.00962
1.02495
1.0667
1.1489
1.45811
2.19811
2.61324
2.72431
2.71775
2.71199
2.7268
2.73673
2.74989
2.75568
2.76237
2.76611
2.76488
1
1.00002
1.00004
1.00014
1.00025
1.0008
1.00146
1.00446
1.00887
1.02391
1.06022
1.13889
1.41265
2.11406
2.58522
2.71782
2.71099
2.70165
2.71634
2.72625
2.73865
2.74765
2.75114
2.75206
2.75506
1
1.00002
1.00004
1.00013
1.00023
1.00074
1.00135
1.00419
1.00803
1.02264
1.05273
1.1273
1.36134
2.01008
2.54723
2.7089
2.70242
2.6913
2.7058
2.71607
2.72483
2.73025
2.738
2.73967
2.73539
1
1.00002
1.00004
1.00012
1.00021
1.00067
1.00122
1.00379
1.00721
1.02065
1.04609
1.11602
1.31056
1.90392
2.49245
2.68857
2.68127
2.67357
2.68907
2.70023
2.71291
2.71519
2.71531
2.71366
2.71204
1
1.00002
1.00003
1.0001
1.00019
1.0006
1.00109
1.00341
1.00644
1.01862
1.04111
1.10379
1.2766
1.79985
2.47519
2.67984
2.66692
2.65697
2.67285
2.67779
2.68903
2.69326
2.69252
2.68551
2.66077
1
1.00001
1.00003
1.00009
1.00016
1.00049
1.00093
1.00267
1.00572
1.0145
1.03864
1.08668
1.25741
1.67114
2.41403
2.65545
2.65467
2.65198
2.65404
2.66332
2.66502
2.66406
2.65498
2.63349
2.5836
0.999996
1.00002
1.00004
1.00016
1.0003
1.00096
1.00178
1.00533
1.01105
1.02884
1.07715
1.17234
1.52782
2.33174
2.65852
2.73192
2.72651
2.7239
2.73863
2.75078
2.76441
2.77292
2.7794
2.78369
2.78638
0.999996
1.00002
1.00004
1.00016
1.00029
1.00095
1.00176
1.00524
1.01091
1.02839
1.07621
1.16973
1.52312
2.32151
2.65538
2.73193
2.72636
2.72364
2.73822
2.75029
2.76365
2.77182
2.77821
2.78151
2.78335
0.999995
1.00002
1.00004
1.00015
1.00028
1.00092
1.00171
1.00507
1.01063
1.02747
1.07423
1.16427
1.51253
2.29874
2.64714
2.73096
2.72512
2.72201
2.73643
2.7482
2.76154
2.76903
2.77473
2.7789
2.77959
0.999995
1.00002
1.00004
1.00015
1.00027
1.00088
1.00164
1.00484
1.0102
1.02623
1.0711
1.15673
1.49271
2.25919
2.63345
2.72831
2.72196
2.71776
2.73161
2.74318
2.75653
2.76492
2.77064
2.77224
2.7748
0.999995
1.00002
1.00004
1.00014
1.00026
1.00084
1.00155
1.00461
1.00961
1.02494
1.06668
1.14885
1.45807
2.19796
2.61316
2.72424
2.71768
2.71193
2.72673
2.73666
2.74982
2.75561
2.7623
2.76604
2.7648
0.999995
1.00001
1.00003
1.00013
1.00024
1.00079
1.00145
1.00445
1.00886
1.02389
1.06022
1.13885
1.41263
2.11394
2.58515
2.71775
2.71092
2.70158
2.71627
2.72619
2.73858
2.74758
2.75107
2.75199
2.75498
0.999995
1.00001
1.00003
1.00012
1.00022
1.00073
1.00134
1.00418
1.00802
1.02263
1.05272
1.12726
1.36131
2.00996
2.54716
2.70884
2.70235
2.69124
2.70573
2.716
2.72477
2.73018
2.73794
2.7396
2.73532
0.999995
1.00001
1.00003
1.00011
1.0002
1.00066
1.00121
1.00378
1.0072
1.02064
1.04607
1.116
1.31053
1.90385
2.49237
2.68851
2.68121
2.67351
2.68901
2.70017
2.71285
2.71512
2.71524
2.71359
2.71198
0.999995
1.00001
1.00002
1.0001
1.00018
1.00059
1.00108
1.0034
1.00643
1.01861
1.0411
1.10376
1.27658
1.79976
2.47514
2.67977
2.66685
2.65692
2.67279
2.67773
2.68897
2.6932
2.69247
2.68546
2.66071
0.999994
1.00001
1.00002
1.00008
1.00015
1.00049
1.00092
1.00266
1.00571
1.01449
1.03863
1.08666
1.2574
1.67101
2.41397
2.65538
2.6546
2.65192
2.65398
2.66327
2.66496
2.66399
2.65491
2.63343
2.58356
0.999996
1
1.00002
1.00005
1.00018
1.00034
1.00106
1.00203
1.00584
1.01263
1.03218
1.08769
1.19647
1.58529
2.39604
2.60596
2.63629
2.63461
2.63439
2.64078
2.64143
2.6347
2.61408
2.56292
2.38198
0.999996
1
1.00002
1.00004
1.00016
1.00029
1.00094
1.00173
1.00517
1.0107
1.02793
1.07444
1.16636
1.50699
2.27893
2.56888
2.63363
2.62558
2.61435
2.61415
2.61168
2.59821
2.56545
2.5042
2.31921
0.999995
0.999999
1.00002
1.00004
1.00013
1.00025
1.0008
1.00147
1.0044
1.00905
1.02365
1.06216
1.13974
1.42171
2.1076
2.50121
2.624
2.61545
2.60056
2.58995
2.58347
2.56752
2.52768
2.46894
2.3174
0.999995
0.999998
1.00001
1.00003
1.00011
1.00021
1.00068
1.00124
1.00387
1.00736
1.02103
1.04741
1.11737
1.31977
1.90689
2.40654
2.60006
2.59282
2.58577
2.56747
2.55006
2.52713
2.49096
2.44668
2.32873
0.999995
0.999997
1.00001
1.00002
1.00009
1.00017
1.00055
1.00101
1.00312
1.006
1.01716
1.0376
1.09746
1.24554
1.74906
2.29802
2.55296
2.56335
2.56498
2.55571
2.53251
2.50563
2.44953
2.41296
2.33013
0.999994
0.999997
1
1.00002
1.00005
1.00017
1.00033
1.00102
1.00194
1.00555
1.01198
1.03029
1.08238
1.18171
1.5476
2.28629
2.48595
2.5232
2.52172
2.52227
2.51312
2.49224
2.44179
2.39014
2.32467
0.999994
0.999996
1
1.00002
1.00004
1.00014
1.00026
1.00084
1.00154
1.00458
1.00945
1.02453
1.0647
1.14444
1.43613
2.12146
2.43576
2.51459
2.50063
2.49448
2.4794
2.46365
2.4282
2.38126
2.32214
0.999993
0.999995
0.999998
1.00001
1.00003
1.00011
1.0002
1.00066
1.00122
1.00375
1.00724
1.02044
1.0464
1.11535
1.30922
1.89572
2.31122
2.48677
2.48416
2.47602
2.45822
2.43854
2.40784
2.36315
2.31369
0.999993
0.999994
0.999998
1
1.00003
1.00006
1.0002
1.00037
1.00116
1.0022
1.00641
1.01343
1.03478
1.08954
1.21178
1.57016
2.25384
2.43447
2.45004
2.44526
2.43253
2.41404
2.39377
2.35603
2.30856
0.999992
0.999993
0.999996
1
1.00002
1.00004
1.00015
1.00027
1.00086
1.00163
1.00463
1.01009
1.02511
1.06881
1.14944
1.46249
2.12594
2.38154
2.431
2.42284
2.40768
2.38279
2.36134
2.33861
2.30062
0.999992
0.999993
0.999994
0.999999
1.00001
1.00004
1.00008
1.00025
1.00048
1.00136
1.00298
1.00738
1.01961
1.04386
1.12963
1.28967
1.82261
2.26536
2.40959
2.40763
2.39662
2.37436
2.34493
2.31735
2.28835
0.999992
0.999992
0.999993
0.999997
1
1.00003
1.00006
1.00019
1.00036
1.00114
1.0021
1.00629
1.01272
1.03359
1.08432
1.19953
1.53402
2.17269
2.34963
2.37221
2.36846
2.3553
2.32835
2.29986
2.26899
0.999991
0.999992
0.999993
0.999994
1
1.00001
1.00005
1.0001
1.00032
1.00061
1.00176
1.00368
1.00943
1.02387
1.05476
1.159
1.36488
1.93011
2.28762
2.35713
2.35372
2.3398
2.31693
2.28931
2.26068
0.999991
0.999991
0.999992
0.999993
0.999998
1
1.00003
1.00007
1.00023
1.00043
1.00135
1.00252
1.00725
1.01544
1.03886
1.10339
1.23664
1.62169
2.12516
2.32077
2.32653
2.31919
2.29973
2.27095
2.24471
0.999991
0.999991
0.999992
0.999993
0.999995
1
1.00001
1.00006
1.00012
1.00039
1.00073
1.00221
1.00428
1.01197
1.02655
1.06531
1.16905
1.44599
1.96711
2.25594
2.30533
2.3034
2.28997
2.26305
2.23337
0.999991
0.999991
0.999991
0.999992
0.999994
1
1.00001
1.00004
1.00008
1.00027
1.0005
1.00153
1.00289
1.00822
1.01773
1.0442
1.11842
1.27407
1.70438
2.11871
2.26109
2.27165
2.26676
2.25312
2.2264
0.999991
0.999991
0.999991
0.999992
0.999993
0.999995
1
1.00002
1.00007
1.00014
1.00043
1.00082
1.00243
1.00475
1.01322
1.02849
1.07441
1.1743
1.51471
1.95684
2.20142
2.24217
2.241
2.23055
2.20975
0.999991
0.999991
0.999991
0.999991
0.999992
0.999994
1
1.00001
1.00004
1.00009
1.00029
1.00053
1.00165
1.00308
1.0089
1.01867
1.04714
1.12075
1.29119
1.71495
2.0839
2.20688
2.21974
2.21474
2.20123
0.999991
0.999991
0.999991
0.999991
0.999992
0.999993
0.999996
1.00001
1.00002
1.00007
1.00014
1.00044
1.00084
1.00246
1.00489
1.01342
1.02886
1.07631
1.17377
1.53258
1.90458
2.13455
2.17534
2.18427
2.17824
0.999991
0.999991
0.999991
0.999991
0.999991
0.999992
0.999995
0.999998
1.00001
1.00003
1.00011
1.00022
1.00067
1.00128
1.00364
1.00758
1.01917
1.04907
1.10821
1.30768
1.75747
2.04578
2.14525
2.1571
2.15324
0.999991
0.999991
0.999991
0.999991
0.999991
0.999992
0.999993
0.999995
1.00001
1.00002
1.00007
1.00014
1.00044
1.00082
1.00249
1.00471
1.01351
1.02753
1.07478
1.16571
1.50998
1.86443
2.09035
2.1257
2.13074
0.999991
0.999991
0.999991
0.999991
0.999991
0.999991
0.999992
0.999995
0.999998
1.00001
1.00003
1.00011
1.00021
1.00065
1.00121
1.00358
1.00704
1.01868
1.04433
1.10177
1.2769
1.70174
1.98662
2.09658
2.10434
0.999991
0.999991
0.999991
0.999991
0.999991
0.999991
0.999991
0.999993
0.999995
1
1.00002
1.00007
1.00013
1.00041
1.00076
1.00229
1.0043
1.01236
1.02493
1.06732
1.14926
1.4407
1.82108
2.04211
2.0856
0.999991
0.999991
0.999991
0.999991
0.999991
0.999991
0.999991
0.999992
0.999993
0.999999
1.00001
1.00004
1.00007
1.00025
1.00045
1.00139
1.00256
1.00746
1.01506
1.03861
1.09617
1.21873
1.56828
1.90543
2.04822
0.999991
0.999991
0.999991
0.999991
0.999991
0.999991
0.999991
0.999992
0.999992
0.999996
1
1.00002
1.00004
1.00014
1.00027
1.00083
1.00153
1.00451
1.00884
1.02327
1.05629
1.12582
1.34858
1.78312
1.96865
0.999991
0.999991
0.999991
0.999991
0.999991
0.999991
0.999991
0.999991
0.999992
0.999993
0.999998
1
1.00003
1.00006
1.0002
1.00038
1.00111
1.00213
1.00597
1.01241
1.03126
1.07475
1.18202
1.43316
1.8593
0.999991
0.999991
0.999991
0.999991
0.999991
0.999991
0.999991
0.999991
0.999991
0.999992
0.999994
1
1.00001
1.00004
1.00009
1.00028
1.00053
1.00157
1.00303
1.0084
1.01786
1.04423
1.10801
1.2687
1.61431
0.999991
0.999991
0.999991
0.999991
0.999991
0.999991
0.999991
0.999991
0.999991
0.999991
0.999993
0.999995
1
1.00002
1.00006
1.00013
1.00039
1.00074
1.00214
1.00419
1.01142
1.02408
1.06249
1.14077
1.40374
0.999991
0.999991
0.999991
0.999991
0.999991
0.999991
0.999991
0.999991
0.999991
0.999991
0.999992
0.999993
0.999999
1
1.00003
1.00007
1.00022
1.00042
1.00126
1.00234
1.00674
1.01342
1.03495
1.08003
1.19694
0.999991
0.999991
0.999991
0.999991
0.999991
0.999991
0.999991
0.999991
0.999991
0.999991
0.999991
0.999993
0.999994
1
1.00001
1.00005
1.0001
1.0003
1.00057
1.00166
1.00324
1.00889
1.01857
1.04812
1.10782
0.999991
0.999991
0.999991
0.999991
0.999991
0.999991
0.999991
0.999991
0.999991
0.999991
0.999991
0.999992
0.999993
0.999996
1
1.00002
1.00007
1.00014
1.00041
1.00079
1.00226
1.00444
1.01206
1.02528
1.06615
0.999991
0.999991
0.999991
0.999991
0.999991
0.999991
0.999991
0.999991
0.999991
0.999991
0.999991
0.999991
0.999992
0.999994
0.999998
1.00001
1.00003
1.0001
1.0002
1.0006
1.00112
1.00327
1.00634
1.01718
1.03749
0.999991
0.999991
0.999991
0.999991
0.999991
0.999991
0.999991
0.999991
0.999991
0.999991
0.999991
0.999991
0.999992
0.999993
0.999995
1
1.00002
1.00007
1.00013
1.00042
1.00078
1.00234
1.00448
1.0124
1.02774
0.999991
0.999991
0.999991
0.999991
0.999991
0.999991
0.999991
0.999991
0.999991
0.999991
0.999991
0.999991
0.999991
0.999992
0.999995
0.999999
1.00002
1.00004
1.00014
1.00026
1.0008
1.00161
1.00433
1.01022
1.02439
0.999991
0.999991
0.999991
0.999991
0.999991
0.999991
0.999991
0.999991
0.999991
0.999991
0.999991
0.999991
0.999991
0.999992
0.999994
1
1.00001
1.00004
1.00009
1.00026
1.0006
1.00146
1.00398
1.00891
1.02661
0.999991
0.999991
0.999991
0.999991
0.999991
0.999991
0.999991
0.999991
0.999991
0.999991
0.999991
0.999991
0.999991
0.999992
0.999994
0.999998
1.00001
1.00003
1.00011
1.00023
1.00064
1.00152
1.00363
1.01023
1.02287
0.999991
0.999991
0.999991
0.999991
0.999991
0.999991
0.999991
0.999991
0.999991
0.999991
0.999991
0.999991
0.999991
0.999992
0.999993
0.999999
1.00001
1.00004
1.00008
1.00027
1.00057
1.0015
1.0038
1.00892
1.02634
0.999991
0.999991
0.999991
0.999991
0.999991
0.999991
0.999991
0.999991
0.999991
0.999991
0.999991
0.999991
0.999991
0.999992
0.999993
0.999999
1.00001
1.00004
1.00008
1.00027
1.00057
1.00149
1.00386
1.00894
1.02667
0.999991
0.999991
0.999991
0.999991
0.999991
0.999991
0.999991
0.999991
0.999991
0.999991
0.999991
0.999991
0.999991
0.999992
0.999994
0.999998
1.00001
1.00003
1.00012
1.00023
1.00071
1.00149
1.0039
1.01002
1.02335
0.999991
0.999991
0.999991
0.999991
0.999991
0.999991
0.999991
0.999991
0.999991
0.999991
0.999991
0.999991
0.999991
0.999992
0.999995
0.999998
1.00001
1.00003
1.00013
1.00024
1.00078
1.00149
1.00436
1.00973
1.02453
1
1.00001
1.00003
1.00006
1.00019
1.00035
1.00107
1.00204
1.00585
1.01264
1.0322
1.08771
1.19651
1.58532
2.39615
2.60602
2.63634
2.63467
2.63445
2.64085
2.64149
2.63476
2.61413
2.56298
2.38202
1
1.00001
1.00003
1.00005
1.00017
1.0003
1.00095
1.00174
1.00518
1.01071
1.02795
1.07446
1.1664
1.50702
2.27906
2.56895
2.63368
2.62563
2.6144
2.6142
2.61174
2.59827
2.5655
2.50424
2.31924
1
1.00001
1.00002
1.00004
1.00014
1.00026
1.00081
1.00148
1.00441
1.00906
1.02367
1.06216
1.13978
1.4217
2.10769
2.50128
2.62405
2.6155
2.60061
2.59
2.58352
2.56757
2.52773
2.46899
2.31743
1
1.00001
1.00002
1.00004
1.00012
1.00022
1.00069
1.00125
1.00388
1.00737
1.02105
1.04743
1.1174
1.3198
1.90699
2.40661
2.60012
2.59288
2.58583
2.56752
2.55011
2.52717
2.49101
2.44673
2.32877
1
1
1.00002
1.00003
1.0001
1.00018
1.00056
1.00102
1.00313
1.00601
1.01717
1.03761
1.09748
1.24556
1.74914
2.29806
2.55301
2.56341
2.56503
2.55576
2.53256
2.50567
2.44956
2.413
2.33017
1
1.00001
1.00001
1.00003
1.00006
1.00018
1.00034
1.00103
1.00195
1.00556
1.01199
1.03031
1.0824
1.18175
1.54763
2.28636
2.48602
2.52325
2.52177
2.52232
2.51317
2.49228
2.44183
2.39016
2.3247
1
1
1.00001
1.00003
1.00005
1.00015
1.00027
1.00084
1.00155
1.00459
1.00946
1.02455
1.06471
1.14447
1.43616
2.12155
2.43582
2.51464
2.50068
2.49453
2.47945
2.4637
2.42824
2.38128
2.32216
1
1
1.00001
1.00002
1.00004
1.00012
1.00021
1.00067
1.00123
1.00376
1.00725
1.02045
1.04641
1.11538
1.30925
1.89581
2.31129
2.48683
2.4842
2.47607
2.45825
2.43859
2.40789
2.36319
2.31372
1
1
1.00001
1.00001
1.00004
1.00007
1.00021
1.00038
1.00117
1.00221
1.00642
1.01345
1.03479
1.08954
1.21182
1.57019
2.2539
2.43452
2.45008
2.4453
2.43258
2.41407
2.39381
2.35607
2.3086
1
1
1
1.00001