/*--------------------------------*- C++ -*----------------------------------*\
| =========                 |                                                 |
| \\      /  F ield         | OpenFOAM: The Open Source CFD Toolbox           |
|  \\    /   O peration     | Version:  4.1                                   |
|   \\  /    A nd           | Web:      www.OpenFOAM.org                      |
|    \\/     M anipulation  |                                                 |
\*---------------------------------------------------------------------------*/
FoamFile
{
    version     2.0;
    format      ascii;
    class       surfaceScalarField;
    location    "7.92";
    object      phi;
}
// * * * * * * * * * * * * * * * * * * * * * * * * * * * * * * * * * * * * * //

dimensions      [1 0 -1 0 0 0 0];

internalField   nonuniform List<scalar> 
150500
(
0.0168001
1.87947e-10
-3.54642e-12
0.0168001
1.05018e-09
-1.1568e-11
0.0168001
3.90104e-09
-1.36761e-11
0.0168
1.00405e-08
-2.13915e-11
0.0168
2.75801e-08
-2.18933e-11
0.0167999
6.31939e-08
-2.89661e-11
0.0167998
1.63912e-07
-2.96908e-11
0.0167994
3.69774e-07
-4.0485e-11
0.0167983
9.54755e-07
-4.2941e-11
0.0167962
2.18273e-06
-8.91005e-11
0.0167895
5.88338e-06
-5.93082e-11
0.0167737
1.57281e-05
-3.30619e-10
0.0167172
5.40039e-05
-3.01279e-10
0.0165435
0.000169097
-1.45559e-09
0.0155182
0.0010096
-3.00741e-09
0.0143652
0.00115312
-8.57149e-11
0.0131903
0.00117413
-2.98681e-10
0.0119382
0.00124999
-5.39183e-10
0.0106
0.00133581
-5.59279e-10
0.00916014
0.00143761
-5.75701e-10
0.00759607
0.00156186
-5.79241e-10
0.00589864
0.00169542
-5.99087e-10
0.00407571
0.00182108
-6.14208e-10
0.00212064
0.00195281
-6.26506e-10
0.00211859
-6.31237e-10
0.0168001
3.86615e-10
-3.53668e-12
0.0168001
2.15527e-09
-1.15758e-11
0.0168001
8.0111e-09
-1.36671e-11
0.0168
2.05867e-08
-2.13999e-11
0.0168
5.66166e-08
-2.1901e-11
0.0167999
1.29525e-07
-2.89967e-11
0.0167997
3.36777e-07
-2.97599e-11
0.0167994
7.55472e-07
-4.06472e-11
0.0167982
1.97139e-06
-4.32132e-11
0.016796
4.43296e-06
-8.98739e-11
0.0167889
1.2212e-05
-5.96253e-11
0.0167726
3.18512e-05
-3.31492e-10
0.0167131
0.0001111
-3.0045e-10
0.0165332
0.000344383
-1.44488e-09
0.0154936
0.00203333
-3.00371e-09
0.0143242
0.0023227
-6.39544e-11
0.0131609
0.00233676
-2.905e-10
0.0119216
0.00248715
-5.3405e-10
0.0105905
0.00266456
-5.52888e-10
0.00913782
0.00288802
-5.68437e-10
0.0075548
0.00314272
-5.73053e-10
0.00583823
0.00340998
-5.93964e-10
0.00399433
0.00366312
-6.08966e-10
0.00203157
0.00391332
-6.20545e-10
0.00414809
-6.24974e-10
0.0168001
6.03008e-10
-3.51885e-12
0.0168001
3.35755e-09
-1.15884e-11
0.0168
1.24808e-08
-1.36504e-11
0.0168
3.21017e-08
-2.14143e-11
0.0168
8.83098e-08
-2.191e-11
0.0167999
2.02574e-07
-2.90374e-11
0.0167997
5.24562e-07
-2.98453e-11
0.0167993
1.19204e-06
-4.07247e-11
0.0167981
3.03099e-06
-4.36348e-11
0.0167955
6.98727e-06
-8.95115e-11
0.0167885
1.85588e-05
-6.04442e-11
0.0167719
4.81862e-05
-3.2788e-10
0.0167128
0.000167817
-3.04009e-10
0.0165369
0.00051576
-1.43646e-09
0.0155159
0.00303808
-3.05414e-09
0.014335
0.0035041
-3.19968e-11
0.0131767
0.00349427
-2.79469e-10
0.0119496
0.00371215
-5.24174e-10
0.01063
0.00398184
-5.38374e-10
0.00918237
0.00433337
-5.49891e-10
0.00759655
0.00472638
-5.58023e-10
0.00587445
0.0051302
-5.8057e-10
0.00400868
0.00552711
-5.96909e-10
0.00203356
0.00588624
-6.09032e-10
0.00617962
-6.16978e-10
0.0168001
8.35111e-10
-3.49172e-12
0.0168001
4.60972e-09
-1.16151e-11
0.0168
1.71625e-08
-1.36464e-11
0.0168
4.40891e-08
-2.14931e-11
0.0168
1.21808e-07
-2.20935e-11
0.0167999
2.80937e-07
-2.95367e-11
0.0167997
7.21848e-07
-3.0831e-11
0.0167992
1.70184e-06
-4.55088e-11
0.0167981
4.00625e-06
-4.15166e-11
0.016795
1.00742e-05
-1.26527e-10
0.0167885
2.43451e-05
-1.6698e-11
0.0167717
6.46629e-05
-3.71175e-10
0.0167163
0.000220703
-2.39099e-10
0.0165493
0.000678317
-1.40811e-09
0.015575
0.00399574
-3.04944e-09
0.0143867
0.00469321
2.94427e-11
0.0132348
0.00464549
-2.7898e-10
0.0120264
0.00491843
-5.24625e-10
0.0107281
0.0052778
-5.28365e-10
0.00930061
0.00575893
-5.26658e-10
0.00772334
0.00630104
-5.38611e-10
0.00600044
0.00685106
-5.6237e-10
0.00412663
0.00739912
-5.79077e-10
0.00209632
0.00791434
-5.9279e-10
0.00827394
-6.06926e-10
0.0168001
9.58626e-10
-3.444e-12
0.0168001
5.29156e-09
-1.16362e-11
0.0168001
1.97128e-08
-1.35459e-11
0.0168
5.05748e-08
-2.15517e-11
0.0168
1.39868e-07
-2.16962e-11
0.0168
3.21491e-07
-2.91872e-11
0.0167998
8.36726e-07
-2.97558e-11
0.0167996
1.91347e-06
-4.07196e-11
0.0167986
4.87307e-06
-4.42551e-11
0.0167976
1.10919e-05
-8.08596e-11
0.0167893
3.18834e-05
-1.06356e-10
0.0167754
7.84514e-05
-2.671e-10
0.0167273
0.000266352
-3.62033e-10
0.0165607
0.000840204
-1.45611e-09
0.0156725
0.00486648
-3.19523e-09
0.014467
0.00589993
1.8567e-10
0.013319
0.00579271
-1.93008e-10
0.0121366
0.00609875
-4.89568e-10
0.0108724
0.00653948
-4.9621e-10
0.00948425
0.00714562
-4.94684e-10
0.00793999
0.00784396
-5.05194e-10
0.0062168
0.00857228
-5.29498e-10
0.00431057
0.00930381
-5.49282e-10
0.00222934
0.00999339
-5.66917e-10
0.0105013
-5.88473e-10
0.0168001
9.88038e-10
-3.39784e-12
0.0168001
5.45093e-09
-1.165e-11
0.0168001
2.03493e-08
-1.34786e-11
0.0168001
5.19645e-08
-2.17214e-11
0.0168
1.44112e-07
-2.14098e-11
0.0168
3.27927e-07
-2.9374e-11
0.0168
8.73836e-07
-2.96244e-11
0.0168
1.89746e-06
-4.11456e-11
0.0167994
5.38645e-06
-4.41208e-11
0.0167992
1.12203e-05
-8.2535e-11
0.016794
3.63634e-05
-1.0961e-10
0.0167889
8.33801e-05
-2.66746e-10
0.0167097
0.000343058
-3.74806e-10
0.0165678
0.000977299
-1.46579e-09
0.0157799
0.00563626
-3.33183e-09
0.0145412
0.0071404
3.335e-10
0.0134106
0.00692301
-1.16429e-10
0.0122681
0.00723897
-4.58915e-10
0.0110577
0.00774743
-4.63093e-10
0.00971713
0.00848255
-4.5276e-10
0.00821877
0.00934046
-4.56641e-10
0.00653188
0.0102572
-4.84039e-10
0.00460691
0.0112273
-5.09017e-10
0.00241151
0.0121874
-5.29924e-10
0.0129109
-5.59469e-10
0.0168001
9.78602e-10
-3.3587e-12
0.0168001
5.44853e-09
-1.16428e-11
0.0168001
2.03532e-08
-1.34997e-11
0.0168001
5.20002e-08
-2.15804e-11
0.0168001
1.43673e-07
-2.15164e-11
0.0168001
3.23972e-07
-2.91089e-11
0.0168
8.84433e-07
-2.94258e-11
0.0168002
1.76443e-06
-3.99425e-11
0.0167994
5.98647e-06
-4.37497e-11
0.0168008
9.82543e-06
-7.65747e-11
0.0167923
4.42216e-05
-1.07235e-10
0.0167898
8.56184e-05
-2.46456e-10
0.0167325
0.000397876
-4.10421e-10
0.0166236
0.00108257
-1.43083e-09
0.0161395
0.00610074
-3.51032e-09
0.0148173
0.00846533
3.64812e-10
0.0136437
0.00809666
-8.24932e-11
0.0125105
0.00837086
-4.47456e-10
0.0113499
0.00890761
-4.49329e-10
0.0100817
0.00974978
-4.2692e-10
0.00863189
0.0107886
-4.10968e-10
0.00696889
0.0119186
-4.30356e-10
0.00503472
0.0131595
-4.52474e-10
0.00273851
0.0144813
-4.74181e-10
0.0156476
-5.08977e-10
0.0168001
1.16969e-09
-3.33964e-12
0.0168001
6.46389e-09
-1.15997e-11
0.0168001
2.40286e-08
-1.36139e-11
0.0168
6.15118e-08
-2.13858e-11
0.0168
1.69692e-07
-2.18941e-11
0.0168
3.86811e-07
-2.90796e-11
0.0167998
1.02513e-06
-2.99884e-11
0.0167993
2.21132e-06
-4.24871e-11
0.0167987
6.50778e-06
-4.08438e-11
0.0167969
1.17204e-05
-1.10297e-10
0.0167932
4.71248e-05
-3.25247e-11
0.0167873
9.15678e-05
-3.24785e-10
0.0167725
0.000410179
-2.67095e-10
0.0167473
0.00110447
-1.33025e-09
0.0168536
0.00597418
-3.38519e-09
0.0154344
0.00988716
2.84854e-10
0.0141282
0.00940305
-1.35627e-10
0.0129519
0.00954475
-4.31091e-10
0.0118091
0.0100471
-4.28218e-10
0.0105866
0.0109708
-3.9949e-10
0.00921308
0.0121607
-3.75003e-10
0.00760377
0.0135266
-3.86935e-10
0.00567904
0.0150831
-4.00709e-10
0.00325122
0.0169074
-4.17109e-10
0.018897
-4.47058e-10
0.0168001
1.52646e-09
-3.29784e-12
0.0168001
6.84531e-09
-1.15967e-11
0.0168001
2.71026e-08
-1.35872e-11
0.0168
6.71842e-08
-2.13186e-11
0.0168
1.89134e-07
-2.16615e-11
0.0168
4.23623e-07
-2.85193e-11
0.0167999
1.13176e-06
-2.86889e-11
0.0167996
2.44531e-06
-3.70816e-11
0.0167992
6.80448e-06
-4.1778e-11
0.0167974
1.35324e-05
-6.27244e-11
0.0167978
4.605e-05
-8.44008e-11
0.0168027
8.64333e-05
-2.18533e-10
0.0168291
0.000381348
-3.54032e-10
0.0169493
0.000981197
-1.18531e-09
0.0180183
0.00488477
-3.26955e-09
0.0164736
0.0114342
-1.20333e-10
0.0148777
0.0110011
-2.76497e-10
0.0136721
0.0107508
-4.07886e-10
0.0125417
0.0111769
-3.96916e-10
0.0113485
0.0121626
-3.63627e-10
0.0100154
0.0134926
-3.43556e-10
0.0085395
0.0150011
-3.45536e-10
0.00674952
0.0168718
-3.46337e-10
0.00422185
0.0194338
-3.45368e-10
0.0231172
-3.65615e-10
0.0168001
-3.3436e-12
2.76802e-09
0.0168001
-1.15215e-11
2.67055e-09
0.0168
-1.3754e-11
3.82259e-08
0.0168001
-2.13818e-11
3.66128e-08
0.0168
-2.17674e-11
2.56125e-07
0.0168002
-2.85249e-11
2.42441e-07
0.0167998
-2.84835e-11
1.54298e-06
0.0168008
-3.65206e-11
1.35977e-06
0.016798
-4.0025e-11
9.61639e-06
0.0168052
-5.9476e-11
6.24845e-06
0.0167831
-7.02659e-11
6.77322e-05
0.0168383
-2.08718e-10
3.09373e-05
0.0167358
-2.26746e-10
0.000481684
0.0170939
-8.38188e-10
0.000623083
0.018205
-1.80336e-09
0.00375921
0.0172214
-1.40412e-09
0.0124091
0.015558
-6.3934e-10
0.012661
0.0145128
-4.03313e-10
0.011795
0.0133649
-3.57459e-10
0.0123239
0.0123053
-3.48471e-10
0.0132213
0.011158
-3.2541e-10
0.0146391
0.0098909
-3.16641e-10
0.0162673
0.00824121
-3.01037e-10
0.0185206
0.0058328
-2.74615e-10
0.0218412
-2.72228e-10
0.0289486
0.0168001
1.92796e-10
-6.1102e-16
0.0168001
1.05037e-09
-3.19937e-15
0.0168
3.90717e-09
-7.45602e-15
0.0168
1.00414e-08
-1.56262e-14
0.0168
2.75781e-08
-3.22006e-14
0.0167999
6.31768e-08
-6.14191e-14
0.0167998
1.63863e-07
-1.41599e-13
0.0167994
3.6965e-07
-2.77193e-13
0.0167983
9.54521e-07
-7.28824e-13
0.0167962
2.18212e-06
-1.48618e-12
0.0167895
5.88281e-06
-4.08463e-12
0.0167737
1.57272e-05
-1.09786e-11
0.0167172
5.40035e-05
-2.98771e-11
0.0165435
0.000169105
-9.37466e-11
0.0155182
0.0010096
-2.41796e-10
0.0143652
0.00115309
3.93278e-12
0.0131903
0.00117411
-1.17027e-11
0.0119382
0.00124998
-3.23871e-11
0.0106001
0.00133581
-3.43194e-11
0.00916018
0.00143762
-3.5417e-11
0.0075961
0.00156188
-3.37683e-11
0.00589865
0.00169544
-3.34053e-11
0.0040757
0.0018211
-3.37621e-11
0.00212062
0.00195283
-3.42639e-11
0.00211857
-3.46007e-11
0.0168001
3.95535e-10
-6.1381e-16
0.0168001
2.15684e-09
-3.21148e-15
0.0168
8.02193e-09
-7.49692e-15
0.0168
2.0586e-08
-1.57161e-14
0.0168
5.66042e-08
-3.24405e-14
0.0167999
1.29467e-07
-6.19189e-14
0.0167997
3.36618e-07
-1.42807e-13
0.0167994
7.55112e-07
-2.79829e-13
0.0167982
1.9703e-06
-7.33912e-13
0.016796
4.43189e-06
-1.49889e-12
0.0167889
1.22068e-05
-4.10242e-12
0.0167726
3.18513e-05
-1.09837e-11
0.0167131
0.000111096
-2.99445e-11
0.0165332
0.000344399
-9.35605e-11
0.0154936
0.00203331
-2.42558e-10
0.0143243
0.00232263
5.50314e-12
0.0131609
0.00233672
-1.12264e-11
0.0119216
0.00248713
-3.23113e-11
0.0105906
0.00266455
-3.40734e-11
0.00913788
0.00288803
-3.49551e-11
0.00755484
0.00314274
-3.33182e-11
0.00583824
0.00341002
-3.30228e-11
0.00399432
0.00366315
-3.34005e-11
0.00203155
0.00391335
-3.39103e-11
0.00414806
-3.42453e-11
0.0168001
6.16701e-10
-6.19508e-16
0.0168001
3.35742e-09
-3.23702e-15
0.0168
1.24894e-08
-7.57677e-15
0.0168
3.20814e-08
-1.58872e-14
0.0168
8.82184e-08
-3.28585e-14
0.0167999
2.02327e-07
-6.27247e-14
0.0167997
5.23997e-07
-1.44673e-13
0.0167993
1.18963e-06
-2.82424e-13
0.0167981
3.03126e-06
-7.42678e-13
0.0167956
6.96955e-06
-1.50249e-12
0.0167885
1.85775e-05
-4.13984e-12
0.016772
4.81642e-05
-1.09246e-11
0.0167127
0.000167848
-3.01517e-11
0.0165369
0.000515777
-9.33957e-11
0.0155159
0.0030381
-2.4577e-10
0.014335
0.00350397
8.86819e-12
0.0131768
0.00349419
-1.02024e-11
0.0119497
0.00371211
-3.22339e-11
0.01063
0.00398182
-3.36872e-11
0.00918241
0.00433339
-3.41429e-11
0.00759658
0.00472641
-3.26741e-11
0.00587447
0.00513026
-3.24661e-11
0.00400868
0.00552717
-3.28013e-11
0.00203355
0.00588627
-3.32805e-11
0.00617957
-3.35899e-11
0.0168001
8.58458e-10
-6.47835e-16
0.0168001
4.6178e-09
-3.34762e-15
0.0168
1.72231e-08
-7.99287e-15
0.0168
4.40998e-08
-1.68442e-14
0.0168
1.22006e-07
-3.5654e-14
0.0167999
2.81193e-07
-6.94354e-14
0.0167997
7.22464e-07
-1.58218e-13
0.0167992
1.70415e-06
-3.45119e-13
0.0167981
4.00571e-06
-7.19167e-13
0.0167949
1.00936e-05
-1.98035e-12
0.0167885
2.43109e-05
-3.32479e-12
0.0167716
6.47021e-05
-1.13158e-11
0.0167164
0.000220637
-2.97206e-11
0.0165494
0.000678274
-9.32703e-11
0.0155752
0.00399557
-2.50609e-10
0.014387
0.00469303
1.14433e-11
0.013235
0.00464546
-9.20847e-12
0.0120266
0.00491843
-3.21177e-11
0.0107283
0.00527781
-3.31926e-11
0.00930079
0.00575898
-3.28507e-11
0.00772347
0.00630112
-3.14919e-11
0.00600053
0.00685116
-3.14859e-11
0.00412668
0.00739921
-3.17999e-11
0.00209634
0.0079144
-3.23093e-11
0.00827392
-3.26273e-11
0.0168001
9.81624e-10
-6.31635e-16
0.0168001
5.30458e-09
-3.2642e-15
0.0168001
1.97637e-08
-7.70665e-15
0.0168
5.05376e-08
-1.64017e-14
0.0168
1.4003e-07
-3.36732e-14
0.0168
3.21526e-07
-6.54403e-14
0.0167998
8.3696e-07
-1.49929e-13
0.0167996
1.91371e-06
-3.0165e-13
0.0167986
4.87408e-06
-7.52941e-13
0.0167977
1.10927e-05
-1.56015e-12
0.0167893
3.1888e-05
-4.52285e-12
0.0167754
7.84524e-05
-1.08736e-11
0.0167273
0.000266345
-2.81273e-11
0.0165606
0.000840195
-9.59855e-11
0.0156723
0.0048664
-2.55672e-10
0.014467
0.00589961
1.93512e-11
0.0133191
0.00579257
-8.45795e-12
0.0121368
0.00609869
-3.19635e-11
0.0108726
0.00653947
-3.26176e-11
0.00948442
0.00714566
-3.2122e-11
0.00794016
0.00784405
-3.04709e-11
0.00621694
0.00857241
-3.04868e-11
0.00431067
0.00930393
-3.06652e-11
0.00222939
0.0099935
-3.10745e-11
0.0105013
-3.1431e-11
0.0168001
1.00743e-09
-6.24102e-16
0.0168001
5.47038e-09
-3.22026e-15
0.0168001
2.03598e-08
-7.599e-15
0.0168001
5.20471e-08
-1.61797e-14
0.0168
1.44102e-07
-3.32059e-14
0.0168
3.28069e-07
-6.45898e-14
0.0168
8.73984e-07
-1.48449e-13
0.0168
1.89803e-06
-3.00244e-13
0.0167994
5.38667e-06
-7.51303e-13
0.0167992
1.12223e-05
-1.55802e-12
0.016794
3.63653e-05
-4.60166e-12
0.0167889
8.3394e-05
-1.07315e-11
0.0167097
0.00034305
-2.89888e-11
0.0165677
0.000977359
-9.59789e-11
0.0157796
0.0056364
-2.62135e-10
0.014541
0.00713999
2.76333e-11
0.0134104
0.00692276
-6.44732e-12
0.012268
0.00723881
-3.10711e-11
0.0110578
0.00774734
-3.09284e-11
0.00971723
0.00848254
-2.96634e-11
0.00821889
0.00934052
-2.81835e-11
0.006532
0.0102574
-2.88243e-11
0.00460701
0.0112275
-2.9276e-11
0.00241158
0.0121875
-2.95839e-11
0.012911
-3.00077e-11
0.0168001
9.89515e-10
-5.89936e-16
0.0168001
5.48065e-09
-3.07365e-15
0.0168001
2.03261e-08
-7.10149e-15
0.0168001
5.20935e-08
-1.50866e-14
0.0168001
1.4357e-07
-3.00815e-14
0.0168001
3.24011e-07
-5.74781e-14
0.0168
8.84307e-07
-1.33771e-13
0.0168002
1.76383e-06
-2.43771e-13
0.0167994
5.98825e-06
-7.44042e-13
0.0168008
9.81505e-06
-1.23583e-12
0.0167922
4.42572e-05
-4.69873e-12
0.0167898
8.559e-05
-8.75442e-12
0.0167324
0.000397981
-3.64026e-11
0.0166235
0.00108269
-9.35155e-11
0.0161389
0.00610131
-2.75196e-10
0.0148168
0.00846483
3.31884e-11
0.0136434
0.00809624
-1.28759e-12
0.0125103
0.00837059
-2.9825e-11
0.0113498
0.00890742
-2.98931e-11
0.0100817
0.00974967
-2.84811e-11
0.00863193
0.0107886
-2.62019e-11
0.00696897
0.0119187
-2.63866e-11
0.00503481
0.0131596
-2.68139e-11
0.00273855
0.0144814
-2.7139e-11
0.0156477
-2.77541e-11
0.0168001
1.18954e-09
-5.51373e-16
0.0168001
6.47233e-09
-2.93249e-15
0.0168001
2.40581e-08
-6.59889e-15
0.0168
6.15398e-08
-1.36985e-14
0.0168
1.6982e-07
-2.68696e-14
0.0167999
3.87104e-07
-4.92906e-14
0.0167998
1.02592e-06
-1.16655e-13
0.0167993
2.21426e-06
-1.71471e-13
0.0167987
6.50888e-06
-7.64471e-13
0.0167968
1.17448e-05
-5.58425e-13
0.0167932
4.71117e-05
-5.82614e-12
0.0167872
9.16266e-05
-6.87123e-12
0.0167725
0.000410159
-3.8337e-11
0.0167473
0.00110464
-9.12719e-11
0.0168533
0.00597512
-2.81524e-10
0.0154341
0.00988663
3.286e-11
0.0141279
0.00940253
4.41681e-12
0.0129518
0.00954439
-2.52967e-11
0.011809
0.0100469
-2.66068e-11
0.0105865
0.0109707
-2.64357e-11
0.00921303
0.0121607
-2.39417e-11
0.00760378
0.0135266
-2.39779e-11
0.00567908
0.0150832
-2.44462e-11
0.00325126
0.0169076
-2.48467e-11
0.0188972
-2.52596e-11
0.0168001
1.49064e-09
-5.66502e-16
0.0168001
6.95833e-09
-2.97962e-15
0.0168001
2.69454e-08
-6.82653e-15
0.0168
6.70736e-08
-1.42542e-14
0.0168
1.88922e-07
-2.86462e-14
0.0168
4.2356e-07
-5.41678e-14
0.0167999
1.13186e-06
-1.23895e-13
0.0167996
2.44623e-06
-2.36562e-13
0.0167992
6.80619e-06
-6.63022e-13
0.0167974
1.35399e-05
-1.19896e-12
0.0167978
4.60594e-05
-4.56598e-12
0.0168028
8.64612e-05
-7.29892e-12
0.0168291
0.000381426
-3.42701e-11
0.0169491
0.000981455
-8.50015e-11
0.0180173
0.00488655
-2.77463e-10
0.0164728
0.0114334
3.80371e-12
0.0148772
0.0110002
-7.14763e-12
0.0136718
0.0107504
-2.49926e-11
0.0125414
0.0111766
-2.57332e-11
0.0113483
0.0121624
-2.48693e-11
0.0100152
0.0134925
-2.20345e-11
0.00853944
0.0150011
-2.16205e-11
0.0067495
0.0168719
-2.15596e-11
0.00422187
0.0194339
-2.14811e-11
0.0231174
-2.2089e-11
0.0168001
-5.45174e-16
2.63992e-09
0.0168001
-2.88275e-15
3.04585e-09
0.0168001
-6.49275e-15
3.70537e-08
0.0168001
-1.34977e-14
3.70797e-08
0.0168
-2.63374e-14
2.54868e-07
0.0168002
-4.92978e-14
2.43073e-07
0.0167998
-1.08958e-13
1.54197e-06
0.0168008
-2.08373e-13
1.36085e-06
0.016798
-5.48618e-13
9.61636e-06
0.0168052
-1.08489e-12
6.25253e-06
0.0167831
-3.08355e-12
6.77324e-05
0.0168383
-7.43849e-12
3.09686e-05
0.0167359
-2.07385e-11
0.000481693
0.017094
-5.49368e-11
0.000623316
0.0182064
-1.49033e-10
0.00375968
0.0172219
-1.058e-10
0.0124093
0.0155581
-4.26223e-11
0.0126607
0.0145127
-2.93052e-11
0.0117946
0.0133647
-2.65242e-11
0.0123236
0.0123051
-2.56189e-11
0.0132211
0.0111579
-2.22879e-11
0.0146389
0.00989081
-2.13092e-11
0.0162673
0.00824116
-1.99212e-11
0.0185206
0.00583278
-1.86677e-11
0.0218413
-1.9548e-11
0.0289488
0.0168001
1.92794e-10
1.75937e-16
0.0168001
1.05036e-09
-7.87656e-18
0.0168
3.90714e-09
-2.94939e-16
0.0168
1.00414e-08
-6.37473e-16
0.0168
2.75779e-08
-1.81415e-15
0.0167999
6.31764e-08
-3.71347e-15
0.0167998
1.63862e-07
-1.0476e-14
0.0167994
3.69648e-07
-2.14668e-14
0.0167983
9.54516e-07
-6.10859e-14
0.0167962
2.18211e-06
-1.2701e-13
0.0167895
5.8828e-06
-3.60185e-13
0.0167737
1.57272e-05
-9.7538e-13
0.0167172
5.40035e-05
-2.69721e-12
0.0165435
0.000169105
-8.49759e-12
0.0155182
0.0010096
-2.2106e-11
0.0143652
0.00115309
1.24158e-13
0.0131903
0.00117411
-1.23008e-12
0.0119382
0.00124998
-3.09109e-12
0.0106001
0.00133581
-3.27651e-12
0.00916018
0.00143762
-3.39023e-12
0.0075961
0.00156188
-3.22119e-12
0.00589865
0.00169544
-3.16081e-12
0.0040757
0.0018211
-3.17633e-12
0.00212062
0.00195283
-3.20533e-12
0.00211857
-3.21795e-12
0.0168001
3.95532e-10
1.7604e-16
0.0168001
2.15682e-09
2.44708e-18
0.0168
8.02186e-09
-2.98663e-16
0.0168
2.05858e-08
-6.45637e-16
0.0168
5.66037e-08
-1.8358e-15
0.0167999
1.29466e-07
-3.75843e-15
0.0167997
3.36615e-07
-1.05857e-14
0.0167994
7.55106e-07
-2.17067e-14
0.0167982
1.97029e-06
-6.15621e-14
0.016796
4.43187e-06
-1.28189e-13
0.0167889
1.22067e-05
-3.61983e-13
0.0167726
3.18513e-05
-9.76303e-13
0.0167131
0.000111096
-2.70501e-12
0.0165332
0.000344399
-8.48588e-12
0.0154936
0.00203332
-2.21887e-11
0.0143243
0.00232263
2.63401e-13
0.0131609
0.00233672
-1.18702e-12
0.0119216
0.00248713
-3.08466e-12
0.0105906
0.00266455
-3.25535e-12
0.00913788
0.00288804
-3.34988e-12
0.00755484
0.00314275
-3.181e-12
0.00583824
0.00341002
-3.12648e-12
0.00399433
0.00366316
-3.1435e-12
0.00203155
0.00391335
-3.17285e-12
0.00414806
-3.18449e-12
0.0168001
6.16688e-10
1.76226e-16
0.0168001
3.35737e-09
4.28006e-18
0.0168
1.24891e-08
-3.05952e-16
0.0168
3.20808e-08
-6.61174e-16
0.0168
8.82167e-08
-1.87354e-15
0.0167999
2.02323e-07
-3.83074e-15
0.0167997
5.23988e-07
-1.0756e-14
0.0167993
1.1896e-06
-2.19395e-14
0.0167981
3.03125e-06
-6.23995e-14
0.0167956
6.96931e-06
-1.28517e-13
0.0167885
1.85777e-05
-3.6586e-13
0.016772
4.81639e-05
-9.71713e-13
0.0167127
0.000167849
-2.72751e-12
0.0165369
0.000515778
-8.48158e-12
0.0155159
0.0030381
-2.251e-11
0.014335
0.00350396
5.6045e-13
0.0131768
0.00349419
-1.09567e-12
0.0119497
0.00371211
-3.08106e-12
0.01063
0.00398182
-3.2247e-12
0.00918241
0.00433339
-3.2831e-12
0.00759659
0.00472642
-3.12441e-12
0.00587447
0.00513026
-3.07887e-12
0.00400868
0.00552718
-3.09366e-12
0.00203355
0.00588628
-3.12169e-12
0.00617958
-3.13127e-12
0.0168001
8.58464e-10
1.76988e-16
0.0168001
4.61784e-09
-5.50038e-17
0.0168
1.72233e-08
-3.43713e-16
0.0168
4.41e-08
-7.48277e-16
0.0168
1.22007e-07
-2.12724e-15
0.0167999
2.81195e-07
-4.44332e-15
0.0167997
7.22468e-07
-1.19887e-14
0.0167992
1.70417e-06
-2.76941e-14
0.0167981
4.0057e-06
-6.02032e-14
0.0167949
1.00937e-05
-1.72592e-13
0.0167885
2.43106e-05
-3.19561e-13
0.0167716
6.47023e-05
-1.01016e-12
0.0167164
0.000220639
-2.69135e-12
0.0165494
0.000678274
-8.4859e-12
0.0155752
0.00399558
-2.29935e-11
0.014387
0.00469302
9.69819e-13
0.013235
0.00464546
-1.00639e-12
0.0120266
0.00491843
-3.07744e-12
0.0107284
0.00527781
-3.18786e-12
0.00930079
0.00575898
-3.18137e-12
0.00772348
0.00630112
-3.02988e-12
0.00600054
0.00685116
-3.00227e-12
0.00412669
0.00739922
-3.01845e-12
0.00209634
0.00791441
-3.04949e-12
0.00827393
-3.05951e-12
0.0168001
9.81629e-10
1.76706e-16
0.0168001
5.30462e-09
-3.0915e-17
0.0168001
1.97638e-08
-3.20739e-16
0.0168
5.05379e-08
-6.93658e-16
0.0168
1.4003e-07
-1.96964e-15
0.0168
3.21528e-07
-4.0556e-15
0.0167998
8.36964e-07
-1.12377e-14
0.0167996
1.91372e-06
-2.3631e-14
0.0167986
4.8741e-06
-6.34447e-14
0.0167977
1.10927e-05
-1.33754e-13
0.0167893
3.1888e-05
-4.01247e-13
0.0167754
7.84526e-05
-9.6972e-13
0.0167273
0.000266345
-2.55752e-12
0.0165606
0.000840197
-8.74582e-12
0.0156723
0.00486641
-2.35129e-11
0.014467
0.0058996
1.48478e-12
0.0133191
0.00579257
-9.35539e-13
0.0121368
0.00609869
-3.07159e-12
0.0108726
0.00653947
-3.1478e-12
0.00948443
0.00714566
-3.12482e-12
0.00794017
0.00784405
-2.9539e-12
0.00621694
0.00857242
-2.92606e-12
0.00431067
0.00930394
-2.93584e-12
0.00222939
0.00999351
-2.96138e-12
0.0105013
-2.97277e-12
0.0168001
1.00744e-09
1.76446e-16
0.0168001
5.47046e-09
4.05305e-18
0.0168001
2.03601e-08
-3.12404e-16
0.0168001
5.20479e-08
-6.75249e-16
0.0168
1.44105e-07
-1.93197e-15
0.0168
3.28075e-07
-3.98484e-15
0.0168
8.73996e-07
-1.11183e-14
0.0168
1.89807e-06
-2.35292e-14
0.0167994
5.38671e-06
-6.34076e-14
0.0167992
1.12225e-05
-1.3374e-13
0.016794
3.63654e-05
-4.09145e-13
0.0167889
8.33951e-05
-9.58549e-13
0.0167097
0.000343047
-2.64215e-12
0.0165677
0.000977361
-8.76285e-12
0.0157796
0.00563641
-2.41625e-11
0.014541
0.00713998
2.21528e-12
0.0134105
0.00692275
-7.51054e-13
0.012268
0.00723881
-3.0025e-12
0.0110578
0.00774734
-3.01755e-12
0.00971724
0.00848255
-2.93378e-12
0.0082189
0.00934053
-2.7817e-12
0.00653201
0.0102574
-2.80269e-12
0.00460701
0.0112275
-2.83696e-12
0.00241158
0.0121876
-2.86125e-12
0.012911
-2.8774e-12
0.0168001
9.89532e-10
1.75077e-16
0.0168001
5.48073e-09
2.23447e-17
0.0168001
2.03264e-08
-2.69618e-16
0.0168001
5.20944e-08
-5.82133e-16
0.0168001
1.43572e-07
-1.66161e-15
0.0168001
3.24016e-07
-3.36803e-15
0.0168
8.84319e-07
-9.84773e-15
0.0168002
1.76386e-06
-1.85646e-14
0.0167994
5.98827e-06
-6.292e-14
0.0168008
9.81535e-06
-1.05254e-13
0.0167922
4.42569e-05
-4.18635e-13
0.0167898
8.5591e-05
-7.82668e-13
0.0167324
0.000397981
-3.31237e-12
0.0166235
0.00108269
-8.55286e-12
0.0161389
0.00610135
-2.53829e-11
0.0148168
0.0084648
2.69958e-12
0.0136434
0.00809623
-2.43871e-13
0.0125103
0.00837058
-2.91206e-12
0.0113498
0.00890742
-2.94886e-12
0.0100817
0.00974967
-2.85683e-12
0.00863193
0.0107886
-2.63647e-12
0.00696898
0.0119187
-2.6326e-12
0.00503481
0.0131596
-2.66855e-12
0.00273856
0.0144815
-2.70602e-12
0.0156477
-2.73663e-12
0.0168001
1.18953e-09
1.72791e-16
0.0168001
6.47231e-09
6.03867e-17
0.0168001
2.40581e-08
-2.25827e-16
0.0168
6.15396e-08
-4.82142e-16
0.0168
1.69819e-07
-1.3758e-15
0.0167999
3.87102e-07
-2.71073e-15
0.0167998
1.02592e-06
-8.42943e-15
0.0167993
2.21424e-06
-1.25249e-14
0.0167987
6.50893e-06
-6.48274e-14
0.0167968
1.17446e-05
-4.74406e-14
0.0167932
4.71123e-05
-5.1739e-13
0.0167872
9.16268e-05
-6.19893e-13
0.0167725
0.000410164
-3.48021e-12
0.0167473
0.00110465
-8.35415e-12
0.0168532
0.0059752
-2.59561e-11
0.015434
0.00988659
2.64508e-12
0.0141279
0.0094025
1.78592e-13
0.0129517
0.00954438
-2.54913e-12
0.011809
0.0100469
-2.69309e-12
0.0105865
0.0109707
-2.71461e-12
0.00921303
0.0121607
-2.47734e-12
0.00760378
0.0135266
-2.47383e-12
0.00567908
0.0150832
-2.52047e-12
0.00325126
0.0169076
-2.58195e-12
0.0188972
-2.61474e-12
0.0168001
1.49065e-09
1.73635e-16
0.0168001
6.9584e-09
4.75651e-17
0.0168001
2.69456e-08
-2.45262e-16
0.0168
6.70741e-08
-5.29457e-16
0.0168
1.88923e-07
-1.52791e-15
0.0168
4.23564e-07
-3.12434e-15
0.0167999
1.13187e-06
-9.05577e-15
0.0167996
2.44625e-06
-1.80469e-14
0.0167992
6.80627e-06
-5.61544e-14
0.0167974
1.354e-05
-1.02661e-13
0.0167978
4.60603e-05
-4.08293e-13
0.0168028
8.6462e-05
-6.51923e-13
0.0168291
0.000381435
-3.12096e-12
0.0169491
0.000981478
-7.77593e-12
0.0180172
0.00488672
-2.55567e-11
0.0164727
0.0114333
-4.36718e-14
0.0148772
0.0110001
-9.18237e-13
0.0136717
0.0107503
-2.5564e-12
0.0125414
0.0111766
-2.64873e-12
0.0113483
0.0121623
-2.6124e-12
0.0100152
0.0134925
-2.36278e-12
0.00853944
0.0150011
-2.34373e-12
0.0067495
0.0168719
-2.36529e-12
0.00422187
0.0194339
-2.41905e-12
0.0231175
-2.52621e-12
0.0168001
1.72896e-16
2.63992e-09
0.0168001
7.5059e-17
3.04597e-09
0.0168001
-2.12051e-16
3.70539e-08
0.0168001
-4.5682e-16
3.70806e-08
0.0168
-1.31486e-15
2.5487e-07
0.0168002
-2.68263e-15
2.43078e-07
0.0167998
-7.71717e-15
1.54199e-06
0.0168008
-1.55375e-14
1.36088e-06
0.016798
-4.58957e-14
9.6165e-06
0.0168052
-9.25869e-14
6.25263e-06
0.0167831
-2.74268e-13
6.77334e-05
0.0168383
-6.64659e-13
3.09694e-05
0.0167359
-1.89114e-12
0.000481698
0.017094
-5.0267e-12
0.000623332
0.0182066
-1.37683e-11
0.00375973
0.0172219
-1.00966e-11
0.0124093
0.0155581
-4.2119e-12
0.0126606
0.0145127
-2.97919e-12
0.0117946
0.0133647
-2.76771e-12
0.0123236
0.0123051
-2.70864e-12
0.013221
0.0111579
-2.447e-12
0.0146389
0.0098908
-2.39122e-12
0.0162673
0.00824115
-2.34268e-12
0.0185206
0.00583278
-2.36969e-12
0.0218413
-2.65307e-12
0.0289488
0.0168001
1.92794e-10
-7.14244e-17
0.0168001
1.05036e-09
-2.73509e-16
0.0168
3.90714e-09
-7.88673e-16
0.0168
1.00414e-08
-1.5935e-15
0.0168
2.75779e-08
-4.26727e-15
0.0167999
6.31763e-08
-8.55767e-15
0.0167998
1.63862e-07
-2.36666e-14
0.0167994
3.69647e-07
-4.83115e-14
0.0167983
9.54516e-07
-1.35885e-13
0.0167962
2.18211e-06
-2.83363e-13
0.0167895
5.8828e-06
-7.91461e-13
0.0167737
1.57272e-05
-2.16541e-12
0.0167172
5.40035e-05
-5.91287e-12
0.0165435
0.000169105
-1.87756e-11
0.0155182
0.0010096
-4.97081e-11
0.0143652
0.00115309
1.59114e-12
0.0131903
0.00117411
-1.61135e-12
0.0119382
0.00124998
-5.92846e-12
0.0106001
0.00133581
-6.32541e-12
0.00916018
0.00143762
-6.48695e-12
0.0075961
0.00156188
-6.06105e-12
0.00589865
0.00169544
-5.90353e-12
0.0040757
0.0018211
-5.92216e-12
0.00212062
0.00195283
-6.03606e-12
0.00211857
-6.05467e-12
0.0168001
3.95531e-10
-7.23722e-17
0.0168001
2.15682e-09
-2.76944e-16
0.0168
8.02185e-09
-7.98528e-16
0.0168
2.05858e-08
-1.6142e-15
0.0168
5.66036e-08
-4.32082e-15
0.0167999
1.29466e-07
-8.66851e-15
0.0167997
3.36615e-07
-2.39347e-14
0.0167994
7.55106e-07
-4.88994e-14
0.0167982
1.97029e-06
-1.37033e-13
0.016796
4.43187e-06
-2.86258e-13
0.0167889
1.22067e-05
-7.95579e-13
0.0167726
3.18513e-05
-2.16841e-12
0.0167131
0.000111096
-5.92899e-12
0.0165332
0.000344399
-1.87412e-11
0.0154936
0.00203332
-4.98301e-11
0.0143243
0.00232263
1.90989e-12
0.0131609
0.00233672
-1.51442e-12
0.0119216
0.00248713
-5.90511e-12
0.0105906
0.00266455
-6.26245e-12
0.00913788
0.00288804
-6.37502e-12
0.00755484
0.00314275
-5.95137e-12
0.00583824
0.00341002
-5.80898e-12
0.00399433
0.00366316
-5.83276e-12
0.00203155
0.00391335
-5.94708e-12
0.00414806
-5.96546e-12
0.0168001
6.16686e-10
-7.42348e-17
0.0168001
3.35736e-09
-2.84221e-16
0.0168
1.24891e-08
-8.17572e-16
0.0168
3.20808e-08
-1.65338e-15
0.0168
8.82166e-08
-4.41352e-15
0.0167999
2.02323e-07
-8.84584e-15
0.0167997
5.23987e-07
-2.4349e-14
0.0167993
1.18959e-06
-4.94773e-14
0.0167981
3.03125e-06
-1.3904e-13
0.0167956
6.96929e-06
-2.87202e-13
0.0167885
1.85777e-05
-8.0449e-13
0.016772
4.81639e-05
-2.1593e-12
0.0167127
0.000167849
-5.97869e-12
0.0165369
0.000515778
-1.87248e-11
0.0155159
0.0030381
-5.05e-11
0.014335
0.00350396
2.587e-12
0.0131768
0.00349419
-1.31051e-12
0.0119497
0.00371211
-5.8834e-12
0.01063
0.00398182
-6.17317e-12
0.00918241
0.0043334
-6.1893e-12
0.00759659
0.00472642
-5.81406e-12
0.00587447
0.00513026
-5.69039e-12
0.00400868
0.00552718
-5.70421e-12
0.00203355
0.00588628
-5.8147e-12
0.00617958
-5.83121e-12
0.0168001
8.58465e-10
-8.32244e-17
0.0168001
4.61785e-09
-3.13526e-16
0.0168
1.72233e-08
-9.13508e-16
0.0168
4.41e-08
-1.86653e-15
0.0168
1.22007e-07
-5.01968e-15
0.0167999
2.81195e-07
-1.02989e-14
0.0167997
7.22468e-07
-2.72655e-14
0.0167992
1.70417e-06
-6.29652e-14
0.0167981
4.0057e-06
-1.34084e-13
0.0167949
1.00937e-05
-3.89873e-13
0.0167885
2.43106e-05
-6.96681e-13
0.0167716
6.47023e-05
-2.25327e-12
0.0167164
0.000220639
-5.88772e-12
0.0165494
0.000678274
-1.87261e-11
0.0155752
0.00399558
-5.15165e-11
0.014387
0.00469302
3.51756e-12
0.013235
0.00464545
-1.12553e-12
0.0120266
0.00491843
-5.85852e-12
0.0107284
0.00527781
-6.06803e-12
0.00930079
0.00575899
-5.89866e-12
0.00772348
0.00630112
-5.55344e-12
0.00600054
0.00685116
-5.4818e-12
0.00412669
0.00739922
-5.489e-12
0.00209634
0.00791441
-5.61832e-12
0.00827393
-5.6458e-12
0.0168001
9.81629e-10
-7.78762e-17
0.0168001
5.30462e-09
-2.97109e-16
0.0168001
1.97638e-08
-8.5731e-16
0.0168
5.05379e-08
-1.73674e-15
0.0168
1.4003e-07
-4.6541e-15
0.0168
3.21528e-07
-9.3997e-15
0.0167998
8.36964e-07
-2.55412e-14
0.0167996
1.91372e-06
-5.35428e-14
0.0167986
4.8741e-06
-1.41818e-13
0.0167977
1.10927e-05
-3.00067e-13
0.0167893
3.18881e-05
-8.87159e-13
0.0167754
7.84526e-05
-2.15838e-12
0.0167273
0.000266345
-5.60512e-12
0.0165606
0.000840197
-1.93201e-11
0.0156723
0.00486641
-5.26353e-11
0.014467
0.0058996
4.69745e-12
0.0133191
0.00579257
-9.75242e-13
0.0121368
0.00609869
-5.81818e-12
0.0108726
0.00653947