/*--------------------------------*- C++ -*----------------------------------*\
| =========                 |                                                 |
| \\      /  F ield         | OpenFOAM: The Open Source CFD Toolbox           |
|  \\    /   O peration     | Version:  4.1                                   |
|   \\  /    A nd           | Web:      www.OpenFOAM.org                      |
|    \\/     M anipulation  |                                                 |
\*---------------------------------------------------------------------------*/
FoamFile
{
    version     2.0;
    format      ascii;
    class       volScalarField;
    location    "0.78";
    object      Ma;
}
// * * * * * * * * * * * * * * * * * * * * * * * * * * * * * * * * * * * * * //

dimensions      [0 0 0 0 0 0 0];

internalField   nonuniform List<scalar> 
52500
(
4.48571
1.26642
0.312065
0.0469597
0.307025
0.327643
0.314874
0.318752
0.341916
0.353957
0.36165
0.383505
0.400541
0.405167
0.399309
0.375163
0.33842
0.30203
0.274041
0.251669
0.233774
0.21715
0.192602
0.122897
0.0575192
4.46991
1.28562
0.32121
0.0523629
0.308284
0.32905
0.316374
0.319346
0.341564
0.353575
0.361835
0.384231
0.401889
0.407078
0.401836
0.378503
0.342315
0.306227
0.278411
0.256781
0.239725
0.223471
0.199225
0.132512
0.0757939
4.42511
1.32731
0.340944
0.0649549
0.312423
0.334596
0.321898
0.323892
0.345147
0.357547
0.366381
0.388772
0.406765
0.412151
0.407287
0.385119
0.349996
0.315025
0.288205
0.268501
0.253545
0.238504
0.215595
0.155849
0.110999
4.35626
1.39137
0.369139
0.0822241
0.319036
0.343401
0.32969
0.330502
0.350428
0.363275
0.372673
0.394793
0.413256
0.418838
0.414711
0.394441
0.361007
0.32761
0.302359
0.285358
0.273352
0.260073
0.239095
0.186758
0.15035
4.27072
1.47672
0.404822
0.103428
0.327338
0.354557
0.339609
0.338618
0.357012
0.370801
0.380831
0.402062
0.421332
0.427413
0.424196
0.406349
0.37481
0.343363
0.320284
0.306662
0.298036
0.286651
0.268104
0.22279
0.192664
4.16616
1.58226
0.447313
0.128257
0.336585
0.367089
0.35139
0.347854
0.364751
0.38002
0.390554
0.410338
0.430793
0.437688
0.435558
0.420443
0.39107
0.362088
0.341947
0.332243
0.326942
0.317842
0.302821
0.264533
0.240219
4.04657
1.70291
0.496043
0.156809
0.345637
0.380072
0.364712
0.357975
0.373494
0.390759
0.401691
0.419665
0.441377
0.449562
0.448628
0.436498
0.409596
0.383626
0.367036
0.36124
0.359359
0.353784
0.343691
0.313351
0.296419
3.91504
1.82699
0.550224
0.190379
0.353578
0.393374
0.378728
0.368779
0.38317
0.40284
0.413935
0.429872
0.452907
0.462903
0.463255
0.453902
0.430364
0.407742
0.394886
0.392991
0.395344
0.394503
0.391671
0.371814
0.367374
3.77129
1.93261
0.606595
0.229435
0.359555
0.406898
0.391993
0.380015
0.394
0.416183
0.427362
0.44124
0.465206
0.477371
0.479129
0.472655
0.453503
0.434014
0.424904
0.426677
0.434415
0.44011
0.447616
0.443118
0.463784
3.63086
2.02543
0.670515
0.274693
0.36414
0.419165
0.403929
0.391961
0.406356
0.430764
0.442167
0.454116
0.478169
0.492676
0.496086
0.49246
0.478156
0.461886
0.456362
0.461975
0.476036
0.491115
0.513079
0.536113
0.624078
4.48596
1.26621
0.31193
0.0464118
0.306921
0.327537
0.314757
0.3186
0.341723
0.353755
0.361491
0.383388
0.400472
0.405137
0.399292
0.375131
0.338344
0.301929
0.273922
0.251535
0.233662
0.21704
0.192455
0.122682
0.0571063
4.4699
1.28544
0.321091
0.0519411
0.308235
0.329051
0.3164
0.319418
0.34168
0.353755
0.36204
0.384451
0.402132
0.407282
0.401962
0.378557
0.342278
0.306147
0.278304
0.256656
0.239616
0.22336
0.199081
0.13231
0.075483
4.42516
1.32713
0.340821
0.0645549
0.312362
0.33458
0.321896
0.32391
0.345182
0.357617
0.366428
0.388823
0.406842
0.412216
0.407318
0.385104
0.349924
0.314926
0.288095
0.268381
0.253436
0.238391
0.21546
0.155676
0.110787
4.35646
1.3912
0.369036
0.0818976
0.318958
0.343342
0.329635
0.33045
0.350374
0.363221
0.37259
0.394708
0.413188
0.418761
0.414607
0.394296
0.360859
0.327473
0.302233
0.285236
0.273238
0.259956
0.238968
0.186611
0.15019
4.27093
1.47657
0.404743
0.103172
0.327249
0.354473
0.339523
0.338526
0.356912
0.370666
0.380683
0.401947
0.421169
0.427224
0.423983
0.406102
0.374582
0.343173
0.320129
0.306528
0.297913
0.286532
0.267986
0.222665
0.192538
4.16636
1.58214
0.447258
0.128053
0.336497
0.367007
0.351302
0.347755
0.364632
0.379846
0.390363
0.410183
0.430592
0.437443
0.435285
0.420148
0.390817
0.361878
0.341773
0.332097
0.326814
0.317724
0.302711
0.264424
0.240116
4.04673
1.70283
0.496008
0.156645
0.345557
0.379996
0.36463
0.357882
0.373383
0.39059
0.401522
0.419558
0.441193
0.449293
0.448328
0.436155
0.409321
0.383415
0.366863
0.361098
0.359233
0.35367
0.343587
0.313255
0.296332
3.91519
1.82696
0.550209
0.190248
0.353505
0.393303
0.378654
0.3687
0.38308
0.402698
0.413803
0.42983
0.452778
0.462653
0.462972
0.453588
0.430081
0.407539
0.394718
0.392862
0.395223
0.394393
0.391574
0.37173
0.3673
3.77141
1.93261
0.606598
0.229333
0.35949
0.406831
0.391929
0.379952
0.393937
0.416087
0.427267
0.441226
0.465124
0.477175
0.478891
0.472396
0.453261
0.433831
0.424748
0.426561
0.4343
0.440004
0.447526
0.443045
0.463719
3.63094
2.02544
0.670525
0.274615
0.364083
0.419106
0.403876
0.391915
0.406319
0.430712
0.442111
0.454127
0.478119
0.492537
0.49591
0.49227
0.477971
0.461731
0.456227
0.461866
0.475931
0.491015
0.512994
0.536051
0.62402
4.48585
1.26636
0.311984
0.04641
0.30693
0.327555
0.314778
0.318635
0.341775
0.353777
0.361469
0.383328
0.40034
0.404964
0.399105
0.37495
0.338227
0.301863
0.273907
0.251547
0.233682
0.217064
0.192489
0.122711
0.0571134
4.46998
1.28558
0.321136
0.0518878
0.308205
0.328992
0.31632
0.319295
0.341518
0.353521
0.361785
0.38418
0.401815
0.406984
0.40172
0.378361
0.342167
0.306086
0.278288
0.256666
0.239635
0.223384
0.199114
0.132336
0.0754865
4.42518
1.32727
0.340876
0.0645621
0.312346
0.334542
0.321848
0.32385
0.345115
0.357521
0.366359
0.388747
0.406727
0.412097
0.407205
0.385007
0.349863
0.314893
0.288087
0.268392
0.25346
0.238421
0.215493
0.155697
0.110787
4.35638
1.39134
0.369086
0.0819115
0.318958
0.343342
0.329637
0.330458
0.350392
0.363252
0.372649
0.39476
0.413232
0.418799
0.414649
0.394346
0.360902
0.327501
0.302255
0.285261
0.273272
0.259994
0.239002
0.186628
0.150188
4.27083
1.4767
0.404785
0.103181
0.32726
0.354495
0.339552
0.33857
0.356976
0.370778
0.380817
0.402054
0.421311
0.427378
0.42414
0.406265
0.374702
0.34325
0.320182
0.306569
0.297958
0.286576
0.26802
0.222679
0.192535
4.16627
1.58226
0.447294
0.12806
0.336509
0.367029
0.351335
0.347806
0.364706
0.379991
0.39052
0.41028
0.430766
0.437663
0.435506
0.420374
0.390966
0.361975
0.341845
0.332152
0.326868
0.317773
0.302747
0.264438
0.240113
4.04666
1.70293
0.496041
0.15665
0.345564
0.380014
0.364658
0.357924
0.373445
0.390723
0.401655
0.419614
0.441345
0.449525
0.448567
0.436414
0.409495
0.383521
0.366938
0.361156
0.359291
0.353721
0.343623
0.31327
0.296331
3.91512
1.82703
0.550237
0.190252
0.353508
0.393319
0.378673
0.368725
0.383117
0.402792
0.413889
0.429847
0.452884
0.462852
0.463186
0.453808
0.43025
0.407638
0.394792
0.392917
0.395282
0.394444
0.391611
0.371746
0.3673
3.77135
1.93265
0.606619
0.229336
0.35949
0.406843
0.391938
0.37996
0.393946
0.41613
0.427302
0.441213
0.465189
0.477319
0.479058
0.472568
0.453398
0.433914
0.424815
0.426612
0.434357
0.440055
0.447564
0.443062
0.463723
3.6309
2.02547
0.670547
0.274617
0.364081
0.419112
0.403877
0.391908
0.406305
0.430712
0.442104
0.454096
0.478157
0.492631
0.49602
0.492383
0.478064
0.461796
0.456282
0.461913
0.475986
0.491065
0.513033
0.536071
0.62403
4.4859
1.26636
0.311991
0.0464174
0.306928
0.32755
0.314771
0.318626
0.341765
0.353764
0.361457
0.383318
0.400329
0.404949
0.399081
0.374911
0.338179
0.301817
0.273873
0.251526
0.233679
0.217069
0.19249
0.122711
0.0571131
4.47001
1.28558
0.321145
0.0518984
0.308205
0.328992
0.31632
0.319298
0.341524
0.353529
0.361793
0.384188
0.401821
0.406983
0.401704
0.378326
0.34212
0.306041
0.278255
0.256646
0.239632
0.223388
0.199114
0.132336
0.0754871
4.42521
1.32727
0.340886
0.0645687
0.312346
0.334542
0.321849
0.323855
0.345123
0.357534
0.366372
0.38876
0.406739
0.412099
0.407194
0.384977
0.349824
0.314855
0.288059
0.268375
0.253458
0.238423
0.215493
0.155697
0.110787
4.3564
1.39135
0.369099
0.0819184
0.318958
0.343343
0.329636
0.330459
0.350394
0.363258
0.372647
0.394752
0.413224
0.418779
0.41461
0.394293
0.360839
0.327448
0.302219
0.285242
0.273268
0.259994
0.239
0.186627
0.150188
4.27085
1.47672
0.404802
0.103189
0.32726
0.354493
0.339549
0.338566
0.356969
0.370764
0.380791
0.402022
0.421268
0.42732
0.424067
0.40618
0.374617
0.343184
0.320137
0.306546
0.297952
0.286574
0.268017
0.222678
0.192534
4.16628
1.58228
0.447315
0.12807
0.336509
0.367027
0.351328
0.347795
0.364691
0.379955
0.390474
0.410252
0.430703
0.43757
0.435405
0.420266
0.390885
0.361913
0.341799
0.332128
0.326858
0.317767
0.302742
0.264436
0.240111
4.04665
1.70296
0.496066
0.156664
0.345566
0.380012
0.364651
0.357912
0.373426
0.39068
0.401609
0.419599
0.441289
0.449426
0.448462
0.436291
0.409406
0.383464
0.3669
0.361137
0.359281
0.353714
0.343619
0.313267
0.296329
3.9151
1.82707
0.550266
0.19027
0.353511
0.393317
0.378668
0.368716
0.383104
0.402758
0.413858
0.429844
0.452844
0.462774
0.463101
0.453718
0.430178
0.407593
0.394762
0.392904
0.395272
0.394436
0.391606
0.371742
0.367296
3.77131
1.93269
0.606649
0.229358
0.359493
0.406842
0.391936
0.379958
0.393942
0.416114
0.427293
0.441218
0.46516
0.477271
0.479002
0.472512
0.453358
0.433885
0.424792
0.4266
0.434348
0.440047
0.447558
0.443058
0.463716
3.63085
2.02551
0.670583
0.274641
0.364084
0.419112
0.40388
0.391913
0.406311
0.430713
0.442114
0.454104
0.478134
0.492604
0.495994
0.492361
0.478055
0.46178
0.456267
0.461902
0.475976
0.491057
0.513027
0.536065
0.62402
4.48567
1.26662
0.312072
0.0463724
0.306939
0.327573
0.314789
0.318628
0.341756
0.35376
0.361453
0.383316
0.400329
0.40495
0.399087
0.374927
0.3382
0.301836
0.273889
0.251541
0.233681
0.217073
0.19251
0.12273
0.0571127
4.46981
1.28584
0.321225
0.051863
0.308215
0.329011
0.316332
0.319294
0.34151
0.353517
0.361781
0.384178
0.401813
0.406976
0.401701
0.378333
0.342137
0.306058
0.278271
0.256662
0.239638
0.223396
0.199136
0.132358
0.0754874
4.42501
1.32753
0.340963
0.0645491
0.312357
0.33456
0.321855
0.323849
0.34511
0.357521
0.366359
0.388749
0.406728
0.41209
0.407189
0.384981
0.349838
0.314869
0.288073
0.268391
0.253467
0.238433
0.215512
0.155716
0.110788
4.35618
1.3916
0.369172
0.0819111
0.318969
0.343359
0.329641
0.330454
0.350384
0.363247
0.372639
0.394748
0.413211
0.418766
0.414601
0.394293
0.360848
0.327459
0.302231
0.285257
0.27328
0.260004
0.239015
0.186643
0.150188
4.27063
1.47697
0.404871
0.103189
0.327268
0.354509
0.339555
0.338561
0.356957
0.370755
0.380775
0.40199
0.421257
0.427316
0.424061
0.406182
0.374626
0.343196
0.32015
0.306563
0.297965
0.286581
0.268028
0.222689
0.192532
4.16605
1.58252
0.447377
0.128074
0.336514
0.367037
0.351332
0.347789
0.364684
0.379949
0.390473
0.41026
0.430693
0.437554
0.435394
0.420261
0.390891
0.361925
0.341812
0.332145
0.32687
0.317772
0.302749
0.264443
0.240109
4.04645
1.70317
0.496123
0.156672
0.345563
0.380017
0.364654
0.357907
0.373423
0.390677
0.401605
0.419607
0.441282
0.449411
0.448451
0.436286
0.40941
0.383475
0.366915
0.361153
0.359292
0.353718
0.343624
0.313271
0.296325
3.9149
1.82723
0.550316
0.190283
0.353502
0.39332
0.378669
0.368712
0.383104
0.402765
0.413861
0.429834
0.452837
0.462771
0.4631
0.453721
0.430189
0.407608
0.394779
0.392919
0.395282
0.394442
0.39161
0.371743
0.367291
3.77113
1.93279
0.606688
0.229374
0.359479
0.406842
0.391933
0.379953
0.393944
0.416128
0.427315
0.441219
0.465154
0.477275
0.479011
0.472522
0.453374
0.433903
0.424811
0.426615
0.434357
0.440054
0.447562
0.443057
0.46371
3.63071
2.0256
0.670633
0.274658
0.364063
0.419106
0.403872
0.391907
0.406313
0.430729
0.442147
0.454106
0.478125
0.492612
0.496008
0.492376
0.478075
0.4618
0.456287
0.461919
0.475986
0.491065
0.51303
0.536061
0.624013
4.48576
1.26655
0.312053
0.0463893
0.306937
0.327569
0.314785
0.318626
0.341755
0.353754
0.361448
0.38331
0.40032
0.40494
0.399075
0.374908
0.338179
0.301817
0.273875
0.251528
0.23367
0.217064
0.192503
0.122726
0.0571178
4.46988
1.28577
0.321206
0.0518773
0.308214
0.32901
0.316333
0.319298
0.341516
0.353522
0.361786
0.384182
0.401814
0.406974
0.401696
0.378321
0.34212
0.306041
0.278257
0.256648
0.239626
0.223385
0.199126
0.132349
0.0754893
4.42508
1.32746
0.340945
0.0645566
0.312356
0.334559
0.321857
0.323854
0.345117
0.357527
0.366365
0.388754
0.406731
0.41209
0.407186
0.384971
0.349823
0.314854
0.288059
0.268378
0.253456
0.238423
0.215503
0.155706
0.110787
4.35626
1.39153
0.369155
0.0819137
0.318968
0.343357
0.329643
0.330459
0.35039
0.363252
0.372643
0.394752
0.413214
0.418766
0.414598
0.394283
0.360835
0.327446
0.30222
0.285247
0.273271
0.259996
0.239007
0.186632
0.150185
4.27071
1.4769
0.404855
0.103188
0.327267
0.354507
0.339556
0.338565
0.356962
0.370759
0.380778
0.401994
0.421258
0.427316
0.424058
0.406174
0.374614
0.343184
0.32014
0.306554
0.297958
0.286575
0.268021
0.222679
0.192529
4.16613
1.58245
0.447363
0.128072
0.336513
0.367036
0.351334
0.347794
0.364689
0.379951
0.390476
0.410262
0.430693
0.437552
0.43539
0.420254
0.39088
0.361914
0.341804
0.332137
0.326865
0.317768
0.302744
0.264435
0.240106
4.04652
1.70311
0.496109
0.156668
0.345565
0.380017
0.364656
0.357911
0.373427
0.390678
0.401606
0.419609
0.441282
0.449408
0.448447
0.43628
0.409402
0.383467
0.366907
0.361146
0.359287
0.353715
0.343619
0.313264
0.296322
3.91496
1.82719
0.550304
0.190277
0.353505
0.39332
0.378671
0.368717
0.383107
0.402766
0.413861
0.429836
0.452837
0.462768
0.463095
0.453714
0.430181
0.4076
0.394771
0.392913
0.395277
0.394438
0.391606
0.371739
0.36729
3.77119
1.93276
0.606678
0.229366
0.359483
0.406843
0.391937
0.379958
0.393947
0.416129
0.427315
0.441221
0.465154
0.477273
0.479007
0.472517
0.453367
0.433895
0.424803
0.426608
0.434353
0.440049
0.447557
0.443054
0.46371
3.63076
2.02557
0.670617
0.274649
0.364069
0.419109
0.403877
0.391912
0.406316
0.430729
0.442147
0.454107
0.478125
0.492611
0.496006
0.492372
0.47807
0.461793
0.456279
0.461911
0.475982
0.491059
0.513026
0.536062
0.624015
4.48591
1.26636
0.311991
0.0464177
0.306928
0.32755
0.314772
0.318627
0.341765
0.353765
0.361458
0.383318
0.400329
0.404949
0.399082
0.374912
0.338179
0.301817
0.273873
0.251526
0.233678
0.217069
0.19249
0.122711
0.0571131
4.47002
1.28558
0.321145
0.0518986
0.308205
0.328992
0.31632
0.319298
0.341524
0.353529
0.361793
0.384188
0.401821
0.406983
0.401704
0.378325
0.34212
0.306041
0.278255
0.256645
0.239632
0.223388
0.199114
0.132336
0.0754871
4.42521
1.32727
0.340886
0.0645688
0.312346
0.334542
0.321849
0.323855
0.345123
0.357534
0.366372
0.38876
0.406739
0.412099
0.407194
0.384976
0.349824
0.314855
0.288058
0.268375
0.253458
0.238423
0.215493
0.155697
0.110787
4.3564
1.39134
0.369099
0.0819184
0.318958
0.343343
0.329636
0.330459
0.350394
0.363258
0.372647
0.394752
0.413223
0.418779
0.41461
0.394293
0.360839
0.327448
0.302219
0.285241
0.273268
0.259994
0.239
0.186627
0.150188
4.27085
1.47672
0.404802
0.103189
0.32726
0.354493
0.339549
0.338566
0.356969
0.370764
0.380791
0.402022
0.421268
0.42732
0.424066
0.40618
0.374617
0.343184
0.320137
0.306546
0.297952
0.286574
0.268017
0.222678
0.192534
4.16628
1.58228
0.447314
0.12807
0.336509
0.367027
0.351328
0.347795
0.364691
0.379955
0.390474
0.410252
0.430703
0.43757
0.435405
0.420266
0.390884
0.361913
0.341799
0.332128
0.326858
0.317767
0.302742
0.264436
0.240111
4.04665
1.70296
0.496066
0.156664
0.345566
0.380012
0.364651
0.357912
0.373426
0.39068
0.401609
0.419599
0.441289
0.449426
0.448462
0.436291
0.409406
0.383464
0.3669
0.361137
0.359281
0.353714
0.343619
0.313267
0.296329
3.9151
1.82707
0.550266
0.19027
0.353511
0.393317
0.378668
0.368716
0.383104
0.402758
0.413858
0.429844
0.452844
0.462774
0.463101
0.453718
0.430178
0.407593
0.394762
0.392904
0.395272
0.394436
0.391606
0.371742
0.367296
3.77131
1.93269
0.606649
0.229358
0.359493
0.406842
0.391936
0.379958
0.393942
0.416114
0.427293
0.441218
0.46516
0.477271
0.479002
0.472512
0.453357
0.433885
0.424792
0.4266
0.434348
0.440047
0.447558
0.443058
0.463716
3.63085
2.02551
0.670583
0.274641
0.364084
0.419112
0.40388
0.391913
0.406311
0.430713
0.442114
0.454104
0.478134
0.492604
0.495994
0.492361
0.478055
0.46178
0.456267
0.461902
0.475976
0.491057
0.513027
0.536065
0.62402
4.48585
1.26636
0.311984
0.0464101
0.30693
0.327555
0.314778
0.318635
0.341775
0.353777
0.361469
0.383328
0.40034
0.404964
0.399105
0.37495
0.338227
0.301863
0.273907
0.251547
0.233682
0.217064
0.192489
0.122711
0.0571134
4.46998
1.28558
0.321136
0.0518879
0.308205
0.328992
0.31632
0.319295
0.341518
0.353521
0.361785
0.38418
0.401815
0.406984
0.401721
0.378361
0.342167
0.306086
0.278288
0.256666
0.239635
0.223384
0.199113
0.132336
0.0754865
4.42518
1.32727
0.340876
0.0645622
0.312346
0.334542
0.321848
0.32385
0.345115
0.357521
0.366359
0.388747
0.406727
0.412097
0.407205
0.385007
0.349863
0.314893
0.288087
0.268392
0.25346
0.238421
0.215493
0.155697
0.110787
4.35638
1.39134
0.369086
0.0819115
0.318958
0.343342
0.329637
0.330458
0.350392
0.363252
0.372649
0.39476
0.413232
0.418799
0.414649
0.394346
0.360902
0.327501
0.302255
0.285261
0.273272
0.259994
0.239002
0.186628
0.150188
4.27083
1.4767
0.404785
0.103181
0.32726
0.354495
0.339552
0.33857
0.356976
0.370778
0.380817
0.402054
0.421311
0.427378
0.42414
0.406265
0.374702
0.34325
0.320182
0.306569
0.297958
0.286576
0.26802
0.222679
0.192535
4.16627
1.58226
0.447294
0.12806
0.336509
0.367029
0.351335
0.347806
0.364706
0.379991
0.39052
0.41028
0.430766
0.437663
0.435506
0.420374
0.390966
0.361975
0.341845
0.332152
0.326868
0.317773
0.302747
0.264438
0.240113
4.04666
1.70293
0.496041
0.15665
0.345564
0.380014
0.364658
0.357924
0.373445
0.390723
0.401655
0.419614
0.441345
0.449525
0.448567
0.436414
0.409495
0.383521
0.366938
0.361156
0.359291
0.353721
0.343623
0.31327
0.296331
3.91512
1.82703
0.550237
0.190252
0.353508
0.393319
0.378673
0.368725
0.383117
0.402792
0.413889
0.429847
0.452884
0.462852
0.463186
0.453808
0.43025
0.407638
0.394792
0.392917
0.395282
0.394444
0.391611
0.371746
0.3673
3.77135
1.93265
0.606619
0.229336
0.359491
0.406843
0.391938
0.37996
0.393946
0.41613
0.427302
0.441213
0.465189
0.477319
0.479058
0.472568
0.453398
0.433914
0.424815
0.426612
0.434357
0.440055
0.447564
0.443062
0.463723
3.6309
2.02547
0.670547
0.274617
0.364081
0.419112
0.403877
0.391908
0.406305
0.430712
0.442104
0.454096
0.478157
0.492631
0.49602
0.492383
0.478064
0.461796
0.456282
0.461913
0.475986
0.491065
0.513033
0.536071
0.62403
4.48596
1.26621
0.31193
0.0464123
0.306921
0.327537
0.314757
0.3186
0.341724
0.353755
0.361491
0.383388
0.400472
0.405137
0.399293
0.375132
0.338345
0.30193
0.273923
0.251535
0.233662
0.21704
0.192455
0.122682
0.0571063
4.4699
1.28544
0.321091
0.0519415
0.308235
0.329051
0.3164
0.319418
0.34168
0.353755
0.36204
0.384451
0.402133
0.407282
0.401962
0.378558
0.342279
0.306148
0.278304
0.256656
0.239616
0.22336
0.199081
0.13231
0.075483
4.42516
1.32713
0.340821
0.0645552
0.312362
0.33458
0.321896
0.32391
0.345182
0.357617
0.366428
0.388823
0.406842
0.412216
0.407318
0.385105
0.349924
0.314926
0.288095
0.268381
0.253436
0.238391
0.21546
0.155676
0.110787
4.35646
1.3912
0.369036
0.0818978
0.318958
0.343342
0.329635
0.33045
0.350374
0.363221
0.37259
0.394708
0.413188
0.418761
0.414607
0.394297
0.36086
0.327473
0.302233
0.285236
0.273237
0.259956
0.238968
0.186611
0.15019
4.27093
1.47657
0.404744
0.103172
0.327249
0.354473
0.339523
0.338526
0.356912
0.370666
0.380683
0.401947
0.421169
0.427224
0.423984
0.406103
0.374583
0.343174
0.32013
0.306528
0.297913
0.286532
0.267986
0.222665
0.192538
4.16636
1.58214
0.447258
0.128054
0.336497
0.367007
0.351302
0.347755
0.364632
0.379846
0.390363
0.410183
0.430592
0.437443
0.435286
0.420148
0.390818
0.361879
0.341773
0.332097
0.326814
0.317724
0.302711
0.264424
0.240116
4.04673
1.70283
0.496008
0.156646
0.345557
0.379996
0.36463
0.357882
0.373383
0.39059
0.401522
0.419558
0.441194
0.449293
0.448329
0.436156
0.409322
0.383415
0.366863
0.361098
0.359233
0.35367
0.343587
0.313255
0.296332
3.91519
1.82696
0.550209
0.190248
0.353505
0.393303
0.378654
0.3687
0.38308
0.402698
0.413803
0.42983
0.452778
0.462654
0.462973
0.453589
0.430082
0.40754
0.394718
0.392862
0.395223
0.394393
0.391574
0.37173
0.3673
3.77141
1.93261
0.606599
0.229334
0.35949
0.406831
0.391929
0.379952
0.393937
0.416087
0.427267
0.441226
0.465124
0.477176
0.478891
0.472396
0.453261
0.433832
0.424748
0.426561
0.4343
0.440004
0.447525
0.443045
0.463719
3.63094
2.02544
0.670526
0.274616
0.364083
0.419106
0.403876
0.391915
0.406319
0.430712
0.442111
0.454127
0.47812
0.492537
0.495911
0.49227
0.477971
0.461732
0.456227
0.461866
0.475932
0.491015
0.512994
0.536051
0.62402
4.48591
1.26615
0.311982
0.0470032
0.307009
0.327605
0.314819
0.318678
0.341805
0.35378
0.361464
0.383321
0.400357
0.405025
0.399221
0.375112
0.3384
0.302025
0.274044
0.251662
0.233755
0.217126
0.19258
0.122853
0.057523
4.47006
1.28536
0.32113
0.0524094
0.30828
0.32904
0.316369
0.319357
0.341588
0.353601
0.361884
0.384282
0.401955
0.407166
0.401936
0.378599
0.342385
0.306275
0.278442
0.256793
0.239723
0.223466
0.199222
0.132486
0.075791
4.42521
1.32705
0.340868
0.0649858
0.312425
0.334604
0.321925
0.323956
0.345249
0.357711
0.36658
0.388974
0.407
0.41238
0.407483
0.385285
0.350099
0.315092
0.288247
0.26852
0.253551
0.238509
0.2156
0.155829
0.110992
4.3564
1.39112
0.369072
0.0822365
0.319039
0.34341
0.329714
0.330559
0.350515
0.363432
0.372812
0.39489
0.413432
0.41901
0.414844
0.39455
0.361064
0.327653
0.302391
0.285374
0.273359
0.26008
0.239101
0.186742
0.150342
4.27089
1.47649
0.404766
0.10343
0.327335
0.35455
0.33961
0.338637
0.357049
0.37087
0.380874
0.402074
0.42138
0.427462
0.424226
0.406378
0.374807
0.343363
0.320286
0.306663
0.298038
0.286656
0.268108
0.222777
0.192657
4.16633
1.58206
0.447269
0.128258
0.336579
0.367072
0.35137
0.347837
0.364734
0.379985
0.390502
0.410325
0.430748
0.437611
0.435483
0.420363
0.391039
0.362083
0.341941
0.332242
0.326941
0.317843
0.302821
0.264521
0.240215
4.04672
1.70275
0.496009
0.156811
0.345633
0.38005
0.364682
0.357938
0.373448
0.390669
0.401602
0.419661
0.441313
0.449439
0.448513
0.436362
0.409547
0.383623
0.367039
0.361247
0.359358
0.353781
0.343688
0.313342
0.296416
3.91518
1.82688
0.5502
0.190381
0.353579
0.393354
0.378697
0.368741
0.383121
0.402748
0.41386
0.429882
0.452855
0.462791
0.463149
0.453794
0.430304
0.407738
0.394892
0.393007
0.395343
0.394498
0.391666
0.371808
0.367371
3.7714
1.93255
0.606579
0.229436
0.359562
0.406882
0.39197
0.379986
0.393966
0.416122
0.427324
0.441246
0.465153
0.477296
0.479059
0.472601
0.453488
0.434016
0.424909
0.426688
0.434412
0.440103
0.447609
0.443112
0.463781
3.63094
2.02538
0.670493
0.274697
0.364152
0.419157
0.403915
0.391945
0.40634
0.430735
0.442163
0.454123
0.478116
0.49263
0.496056
0.492452
0.478187
0.4619
0.456371
0.461976
0.476027
0.491103
0.513071
0.536108
0.624074
3.49897
2.12056
0.751965
0.327838
0.368414
0.427748
0.414589
0.405237
0.421065
0.446546
0.458297
0.468366
0.491467
0.508355
0.513908
0.513425
0.504208
0.490779
0.488461
0.498409
0.519898
0.545527
0.586462
0.65721
0.823199
3.38031
2.22257
0.851103
0.394465
0.374378
0.428919
0.42577
0.421429
0.43858
0.463633
0.475548
0.483701
0.504173
0.523831
0.532521
0.535254
0.531476
0.520769
0.521037
0.534812
0.562167
0.599251
0.656524
0.748663
0.920115
3.27264
2.31875
0.994332
0.480089
0.374069
0.4243
0.441715
0.441679
0.45891
0.481514
0.493249
0.498766
0.516075
0.539371
0.551624
0.556986
0.557174
0.550307
0.553018
0.569442
0.601005
0.644441
0.710686
0.80022
0.947429
3.17873
2.4294
1.20488
0.571766
0.367123
0.431591
0.461979
0.465816
0.481478
0.499446
0.510286
0.51442
0.528684
0.554192
0.571319
0.579827
0.584019
0.58156
0.584074
0.60149
0.634261
0.682041
0.747945
0.831661
0.951348
3.10178
2.53171
1.47544
0.652723
0.373219
0.451072
0.486084
0.491913
0.503642
0.516558
0.526506
0.53056
0.542373
0.569281
0.590965
0.602386
0.609293
0.610787
0.613284
0.630557
0.662925
0.710234
0.775893
0.853837
0.952352
3.02872
2.5773
1.70429
0.729631
0.404173
0.475273
0.510736
0.516698
0.524055
0.532868
0.542127
0.54748
0.556748
0.583568
0.609486
0.624672
0.633771
0.63991
0.641617
0.656986
0.687513
0.731702
0.794662
0.867113
0.946482
2.94831
2.59044
1.87053
0.822018
0.464768
0.505956
0.531173
0.538514
0.54245
0.548405
0.557638
0.565258
0.573449
0.596578
0.626203
0.645829
0.657613
0.666625
0.670019
0.680697
0.70853
0.748808
0.806331
0.871311
0.941336
2.86555
2.60865
2.02563
0.973936
0.559574
0.531132
0.543171
0.560081
0.560416
0.564411
0.573735
0.583826
0.591521
0.609867
0.642047
0.665561
0.680004
0.690349
0.697884
0.704538
0.727956
0.763939
0.8117
0.870521
0.934853
2.80036
2.65391
2.20536
1.20092
0.674682
0.547699
0.559661
0.58289
0.57957
0.581541
0.591296
0.602522
0.609861
0.623822
0.655665
0.682611
0.700497
0.712273
0.723066
0.727963
0.744554
0.77553
0.814002
0.866168
0.926399
2.78539
2.73546
2.41966
1.53419
0.78142
0.557892
0.580253
0.603831
0.600249
0.600535
0.610253
0.621695
0.62942
0.638347
0.664543
0.696508
0.718404
0.733159
0.745062
0.753992
0.762195
0.784851
0.817935
0.860109
0.915263
2.84325
2.82829
2.59448
1.87542
0.903956
0.579684
0.608621
0.619824
0.62208
0.622019
0.630899
0.641159
0.648627
0.653927
0.672395
0.709228
0.734716
0.751924
0.764113
0.775414
0.77989
0.793843
0.822449
0.858233
0.901508
2.91444
2.91564
2.73403
2.1385
1.08718
0.658432
0.638678
0.63637
0.647876
0.647382
0.652965
0.660635
0.66703
0.67003
0.682271
0.715671
0.747176
0.767379
0.78176
0.793254
0.80198
0.806259
0.826218
0.856795
0.892708
2.9752
2.99117
2.8611
2.39014
1.38853
0.781241
0.66681
0.662278
0.674575
0.675045
0.676254
0.680221
0.685302
0.687858
0.694604
0.721447
0.757748
0.781919
0.796872
0.808378
0.819193
0.82484
0.834258
0.85612
0.886329
3.01664
3.06062
2.97462
2.64142
1.78755
0.925969
0.694791
0.693011
0.697955
0.702033
0.699456
0.699794
0.703673
0.706734
0.708951
0.728724
0.764142
0.79361
0.811937
0.82345
0.833174
0.842816
0.84538
0.858471
0.882246
3.04966
3.1174
3.05869
2.81932
2.15082
1.12303
0.745578
0.725346
0.722854
0.730849
0.7238
0.720537
0.723252
0.72666
0.727087
0.735464
0.770232
0.805455
0.826783
0.83877
0.847713
0.856733
0.863289
0.864321
0.879782
3.07647
3.16409
3.12467
2.95851
2.45639
1.45409
0.847549
0.762605
0.76001
0.754329
0.749651
0.744861
0.745097
0.748161
0.748683
0.748739
0.771804
0.812017
0.839665
0.853916
0.861204
0.868428
0.876542
0.881589
0.883187
3.09689
3.20037
3.17489
3.06579
2.73124
1.91208
1.00752
0.807362
0.78947
0.779713
0.778979
0.773888
0.770518
0.771519
0.77207
0.768975
0.775315
0.813704
0.850273
0.868777
0.877553
0.881367
0.88693
0.894564
0.899165
3.1125
3.22797
3.21123
3.13897
2.91457
2.2943
1.27931
0.870979
0.822631
0.817653
0.810896
0.803562
0.798151
0.796747
0.796505
0.793314
0.789937
0.81039
0.854032
0.881344
0.893127
0.89838
0.900221
0.904782
0.911625
3.12389
3.24877
3.23817
3.192
3.04939
2.63501
1.73157
0.975532
0.869036
0.85737
0.842916
0.836811
0.829344
0.82426
0.822514
0.819622
0.813583
0.816089
0.849405
0.886975
0.906862
0.913609
0.916703
0.918838
0.922797
3.13211
3.2638
3.25678
3.22658
3.13548
2.8732
2.18461
1.21357
0.925609
0.890001
0.881987
0.874407
0.862773
0.855128
0.850335
0.847121
0.841414
0.834693
0.847344
0.886846
0.916035
0.928327
0.931624
0.934031
0.937978
3.13788
3.27426
3.26919
3.24947
3.19296
3.03276
2.57354
1.63754
1.00789
0.932877
0.923187
0.909982
0.902053
0.888911
0.881874
0.876511
0.870906
0.862074
0.858139
0.883484
0.915347
0.939449
0.947496
0.949076
0.951851
3.14124
3.2802
3.27589
3.26309
3.22868
3.13267
2.85769
2.14404
1.2244
0.98829
0.95817
0.949978
0.941025
0.930113
0.916195
0.908012
0.901543
0.893235
0.882509
0.883656
0.918077
0.942392
0.960108
0.965487
0.966643
3.14099
3.28184
3.2789
3.27184
3.25171
3.19521
3.03468
2.57332
1.64555
1.06427
1.00215
0.990437
0.978306
0.972014
0.957692
0.944156
0.933827
0.925009
0.913618
0.902675
0.91481
0.948954
0.967217
0.980329
0.983391
3.13766
3.28172
3.28067
3.27637
3.2643
3.23162
3.14021
2.87742
2.1827
1.29324
1.0578
1.02776
1.02024
1.01075
1.00481
0.985236
0.970383
0.958166
0.947209
0.932413
0.924036
0.946337
0.975144
0.987582
0.997991
3.13569
3.28117
3.28177
3.27969
3.27302
3.25456
3.2041
3.06049
2.64228
1.75373
1.1404
1.07431
1.05917
1.05039
1.0442
1.03523
1.01122
0.994441
0.981588
0.967365
0.950858
0.947324
0.978361
1.00059
1.00824
3.13478
3.28037
3.28305
3.28197
3.27826
3.26794
3.24002
3.16218
2.9358
2.30581
1.41643
1.13395
1.09939
1.09209
1.0822
1.0786
1.06386
1.03586
1.01768
1.00326
0.985593
0.968924
0.976113
1.00753
1.0215
3.13437
3.27998
3.28389
3.28334
3.28134
3.27576
3.2607
3.21998
3.10404
2.76477
1.95454
1.25225
1.14942
1.1302
1.12407
1.11638
1.11101
1.09015
1.05996
1.04046
1.0227
1.00156
0.987284
1.00337
1.03071
3.13428
3.27984
3.28441
3.28414
3.28312
3.28023
3.2724
3.2512
3.1924
3.02079
2.51567
1.62527
1.21373
1.17477
1.1638
1.1555
1.15107
1.14133
1.11141
1.08355
1.06211
1.04038
1.01665
1.00632
1.0317
3.13433
3.27975
3.28472
3.28461
3.28414
3.28272
3.27874
3.2679
3.23836
3.15432
2.90656
2.22829
1.44556
1.23229
1.20427
1.1977
1.1887
1.18469
1.16913
1.13152
1.10382
1.08126
1.05566
1.031
1.03018
3.13437
3.27969
3.28494
3.28491
3.28469
3.28398
3.28202
3.27673
3.26232
3.22272
3.10755
2.76292
1.96091
1.34404
1.2555
1.23674
1.23041
1.22327
1.21641
1.19279
1.15306
1.1231
1.09636
1.06636
1.04346
3.13437
3.27972
3.28503
3.28505
3.28496
3.28465
3.28375
3.28125
3.27446
3.25585
3.20361
3.04804
2.57634
1.73798
1.32596
1.28276
1.27038
1.2627
1.25777
1.24542
1.21049
1.17213
1.1401
1.1081
1.07371
3.13437
3.27975
3.28504
3.28514
3.28511
3.28498
3.28458
3.28345
3.28037
3.2719
3.24841
3.18068
2.97583
2.37431
1.61217
1.34722
1.31226
1.3036
1.29606
1.29035
1.27059
1.22518
1.18598
1.15177
1.11398
3.13437
3.27976
3.28503
3.28518
3.28518
3.28512
3.28496
3.28448
3.28314
3.27945
3.26919
3.24051
3.156
2.89884
2.2103
1.54382
1.37266
1.34423
1.33569
1.32972
1.31944
1.28866
1.23712
1.19605
1.15649
3.13437
3.27977
3.28503
3.28521
3.2852
3.28519
3.28513
3.28493
3.28438
3.28285
3.27858
3.26663