/*--------------------------------*- C++ -*----------------------------------*\
| =========                 |                                                 |
| \\      /  F ield         | OpenFOAM: The Open Source CFD Toolbox           |
|  \\    /   O peration     | Version:  4.1                                   |
|   \\  /    A nd           | Web:      www.OpenFOAM.org                      |
|    \\/     M anipulation  |                                                 |
\*---------------------------------------------------------------------------*/
FoamFile
{
    version     2.0;
    format      ascii;
    class       volScalarField;
    location    "0.78";
    object      p;
}
// * * * * * * * * * * * * * * * * * * * * * * * * * * * * * * * * * * * * * //

dimensions      [1 -1 -2 0 0 0 0];

internalField   nonuniform List<scalar> 
52500
(
0.0679738
0.220768
0.837318
0.91343
0.780805
0.771314
0.756959
0.722999
0.677524
0.645511
0.620085
0.592206
0.562913
0.537653
0.520711
0.505685
0.497262
0.490873
0.485796
0.476191
0.463177
0.449146
0.43539
0.42142
0.42115
0.068186
0.21857
0.826817
0.918337
0.783098
0.773278
0.757991
0.722864
0.678032
0.646242
0.6208
0.592847
0.56345
0.538046
0.521004
0.505836
0.49734
0.490921
0.485804
0.476179
0.463029
0.448828
0.435263
0.421721
0.42183
0.0688736
0.214007
0.803189
0.928938
0.787627
0.77642
0.758948
0.721736
0.67799
0.646463
0.620787
0.592931
0.563425
0.537875
0.520593
0.505248
0.496596
0.490146
0.484837
0.475107
0.461617
0.447008
0.433751
0.420822
0.421456
0.0699642
0.207192
0.766364
0.945083
0.794779
0.778952
0.76032
0.721582
0.678216
0.646996
0.620723
0.593547
0.563784
0.538043
0.52035
0.504583
0.495528
0.489072
0.483357
0.473282
0.459303
0.444373
0.43139
0.419482
0.421086
0.0713426
0.198401
0.71668
0.965714
0.804896
0.781626
0.762102
0.721647
0.678412
0.647531
0.62052
0.594659
0.564557
0.538376
0.519989
0.503728
0.494125
0.487629
0.481304
0.470621
0.45617
0.441091
0.428446
0.417711
0.420547
0.0731012
0.188097
0.654638
0.989479
0.81781
0.784778
0.763802
0.721636
0.678492
0.647911
0.620219
0.596313
0.56594
0.539033
0.519666
0.502829
0.49254
0.485739
0.478532
0.467012
0.4522
0.436985
0.424718
0.415086
0.419163
0.0752302
0.177057
0.583183
1.01382
0.832124
0.7891
0.764581
0.721993
0.678347
0.647985
0.620221
0.598171
0.567892
0.540096
0.519436
0.501957
0.490874
0.483333
0.475029
0.462818
0.447434
0.431933
0.419849
0.410935
0.41598
0.0777749
0.166696
0.509673
1.03454
0.845831
0.795111
0.764536
0.721849
0.677948
0.647856
0.620705
0.599928
0.570183
0.541617
0.519115
0.501679
0.48889
0.480421
0.470922
0.458074
0.441879
0.425755
0.413299
0.404078
0.409275
0.0808974
0.160162
0.452644
1.04165
0.85801
0.799201
0.762605
0.721095
0.677734
0.648151
0.621891
0.601254
0.572214
0.543336
0.519137
0.501615
0.486577
0.47701
0.46607
0.453008
0.435706
0.418372
0.40446
0.392814
0.395428
0.0841217
0.155787
0.41711
1.03318
0.870548
0.800154
0.757885
0.719532
0.677945
0.649356
0.623673
0.602156
0.573743
0.544781
0.519424
0.501285
0.484376
0.4733
0.461023
0.4474
0.428902
0.409656
0.392677
0.375897
0.36678
0.0679698
0.22079
0.83742
0.913347
0.780748
0.771259
0.756913
0.722975
0.677498
0.645477
0.620052
0.592172
0.562889
0.537638
0.520698
0.505673
0.497261
0.490885
0.485815
0.476218
0.463196
0.449146
0.435346
0.42135
0.42106
0.0681875
0.218594
0.826912
0.918264
0.783054
0.773229
0.757946
0.722834
0.678005
0.646218
0.620753
0.592818
0.563435
0.538037
0.520992
0.50583
0.497342
0.490936
0.485821
0.476202
0.463043
0.448826
0.435221
0.421654
0.421744
0.0688735
0.214028
0.803286
0.928865
0.787587
0.776366
0.758903
0.72171
0.677964
0.646443
0.620733
0.592921
0.563413
0.53786
0.520584
0.505242
0.496602
0.490157
0.484853
0.475124
0.461623
0.447
0.433711
0.420758
0.421374
0.0699609
0.207209
0.766452
0.945016
0.794738
0.7789
0.760278
0.721562
0.678197
0.646976
0.620695
0.59354
0.563772
0.538027
0.520345
0.504585
0.49554
0.489079
0.48337
0.473291
0.459301
0.444358
0.431352
0.419424
0.421012
0.0713389
0.198414
0.716756
0.96565
0.804854
0.78158
0.762067
0.721633
0.678401
0.647518
0.620533
0.594636
0.564536
0.538357
0.519986
0.503734
0.494138
0.487633
0.481311
0.470624
0.456161
0.441071
0.428411
0.417659
0.42048
0.0730973
0.188107
0.654699
0.989418
0.817773
0.784745
0.763776
0.72162
0.678482
0.647907
0.620251
0.596296
0.565926
0.539019
0.519666
0.502834
0.492547
0.485739
0.478531
0.467007
0.452187
0.436964
0.424686
0.41504
0.419102
0.0752265
0.177062
0.583223
1.01377
0.832095
0.789072
0.764557
0.721971
0.678336
0.647987
0.620239
0.598164
0.567864
0.540074
0.51944
0.501956
0.490878
0.483332
0.475022
0.462809
0.44742
0.431912
0.41982
0.410895
0.415927
0.077771
0.166696
0.509687
1.03449
0.84581
0.795086
0.764513
0.721826
0.677939
0.647861
0.620703
0.599933
0.570148
0.541577
0.519126
0.501647
0.488908
0.48042
0.470922
0.458056
0.441862
0.425735
0.413274
0.404044
0.40923
0.0808939
0.160158
0.452633
1.0416
0.857992
0.799185
0.762591
0.721076
0.677727
0.648152
0.621869
0.601262
0.572187
0.543301
0.519135
0.5016
0.486585
0.477007
0.466068
0.45299
0.435689
0.418354
0.404439
0.392787
0.395392
0.0841192
0.155783
0.417095
1.03314
0.870531
0.800147
0.757878
0.719519
0.677938
0.649352
0.623649
0.602158
0.573719
0.544758
0.519422
0.501275
0.484376
0.473292
0.461015
0.447384
0.428886
0.40964
0.392659
0.375878
0.366755
0.0679711
0.220771
0.837328
0.913396
0.780781
0.771286
0.75693
0.722975
0.677504
0.645485
0.620078
0.592193
0.562902
0.537648
0.520707
0.505694
0.497283
0.490897
0.485818
0.4762
0.46317
0.449125
0.435348
0.42137
0.421094
0.0681847
0.218574
0.826825
0.918304
0.783077
0.773251
0.757962
0.72284
0.678013
0.646219
0.620787
0.592835
0.563441
0.538042
0.521001
0.505844
0.497359
0.490943
0.485824
0.476186
0.46302
0.448807
0.435223
0.421674
0.421777
0.0688722
0.214009
0.803195
0.928906
0.787607
0.776387
0.758919
0.721717
0.677972
0.646443
0.620767
0.59292
0.563418
0.537871
0.520592
0.505256
0.496614
0.490165
0.484854
0.475112
0.461606
0.446986
0.433713
0.420778
0.421407
0.0699618
0.207193
0.766365
0.945052
0.794758
0.778918
0.760292
0.721567
0.6782
0.646978
0.620696
0.593542
0.563778
0.538043
0.520356
0.504594
0.495546
0.489087
0.483371
0.473283
0.45929
0.444349
0.431355
0.419443
0.421044
0.0713401
0.1984
0.716673
0.965682
0.804875
0.781594
0.762076
0.721635
0.678397
0.647514
0.620495
0.594649
0.564551
0.538375
0.519994
0.503739
0.494139
0.487641
0.481313
0.470617
0.456153
0.441067
0.428416
0.417677
0.420511
0.0730986
0.188094
0.654623
0.989446
0.817789
0.78475
0.763779
0.721623
0.678477
0.647894
0.620196
0.596311
0.565946
0.539036
0.519672
0.502837
0.49255
0.485747
0.478534
0.467003
0.452181
0.436961
0.42469
0.415057
0.419131
0.0752278
0.177052
0.583159
1.01379
0.832104
0.789076
0.76456
0.721978
0.678331
0.647967
0.6202
0.598164
0.567891
0.540097
0.519441
0.501962
0.490881
0.483339
0.475026
0.462806
0.447415
0.43191
0.419824
0.410911
0.415954
0.0777725
0.16669
0.509641
1.0345
0.845813
0.795088
0.764516
0.721834
0.677934
0.647841
0.620679
0.599924
0.570176
0.541609
0.519121
0.501675
0.488899
0.480426
0.47092
0.458059
0.441859
0.425732
0.413277
0.404057
0.409253
0.0808954
0.160156
0.452614
1.0416
0.857992
0.79918
0.762587
0.72108
0.677721
0.648138
0.621865
0.601255
0.57221
0.543327
0.519138
0.501614
0.486582
0.477013
0.466068
0.452994
0.435687
0.41835
0.404439
0.392797
0.395412
0.0841203
0.155782
0.417083
1.03313
0.870528
0.800135
0.757868
0.719516
0.677933
0.649345
0.623647
0.602157
0.573737
0.544774
0.519424
0.501285
0.484379
0.473301
0.461019
0.447386
0.428883
0.409636
0.392658
0.375883
0.366769
0.0679699
0.22077
0.837323
0.913381
0.780773
0.771278
0.756924
0.722974
0.677502
0.645482
0.620076
0.592193
0.562906
0.537655
0.520717
0.505707
0.497297
0.490909
0.485827
0.476199
0.463162
0.449114
0.435328
0.421343
0.421063
0.0681839
0.218573
0.826819
0.918291
0.783069
0.773243
0.757957
0.722838
0.678012
0.646218
0.620785
0.592835
0.563446
0.53805
0.521012
0.505858
0.497375
0.490956
0.485833
0.476186
0.463011
0.448796
0.435204
0.421648
0.421747
0.0688715
0.214008
0.803188
0.928894
0.7876
0.77638
0.758914
0.721716
0.677971
0.646443
0.620763
0.592922
0.563423
0.537879
0.520604
0.50527
0.496631
0.490177
0.484864
0.475112
0.461596
0.446974
0.433695
0.420753
0.421379
0.0699611
0.207191
0.766355
0.945042
0.794752
0.778912
0.760288
0.721566
0.6782
0.646981
0.620694
0.59355
0.563784
0.538051
0.520368
0.504609
0.495563
0.489101
0.48338
0.473282
0.459279
0.444338
0.431338
0.419421
0.421019
0.0713395
0.198397
0.71666
0.965675
0.80487
0.781588
0.762072
0.721634
0.678398
0.647517
0.620503
0.594654
0.564554
0.538382
0.520007
0.503754
0.494157
0.487655
0.481321
0.470617
0.456143
0.441055
0.4284
0.417658
0.420489
0.0730982
0.188091
0.654604
0.989441
0.817787
0.784746
0.763776
0.721621
0.67848
0.6479
0.620213
0.596312
0.565947
0.539042
0.519685
0.502853
0.492567
0.485761
0.478542
0.467003
0.452173
0.43695
0.424677
0.415041
0.419113
0.0752277
0.177048
0.583135
1.01378
0.832103
0.789073
0.764557
0.721975
0.678333
0.647974
0.620214
0.598169
0.567889
0.5401
0.519456
0.501977
0.490899
0.483354
0.475035
0.462807
0.447409
0.4319
0.419813
0.410898
0.415939
0.0777728
0.166686
0.509615
1.03449
0.845815
0.795089
0.764514
0.72183
0.677935
0.647848
0.62069
0.599931
0.570173
0.541608
0.519136
0.501683
0.488922
0.48044
0.470932
0.458058
0.441853
0.425724
0.413268
0.404047
0.409242
0.0808961
0.160153
0.452597
1.04159
0.857997
0.799185
0.762588
0.721077
0.677721
0.648142
0.62187
0.601259
0.572207
0.543328
0.519151
0.501627
0.486599
0.477025
0.466077
0.452995
0.435682
0.418344
0.404432
0.39279
0.395405
0.0841213
0.155779
0.417067
1.03312
0.870537
0.800141
0.75787
0.719515
0.677934
0.649348
0.623653
0.602156
0.573735
0.544779
0.519437
0.5013
0.484394
0.473311
0.461027
0.447387
0.42888
0.409631
0.392653
0.375879
0.366767
0.0679732
0.220739
0.837173
0.913452
0.780803
0.771308
0.756938
0.722964
0.677504
0.645489
0.620082
0.592199
0.562911
0.53766
0.520722
0.505708
0.497291
0.490896
0.485809
0.476179
0.463145
0.449106
0.435336
0.421357
0.421078
0.0681867
0.218542
0.826669
0.918362
0.7831
0.773271
0.757971
0.722831
0.678014
0.646225
0.620791
0.592841
0.563451
0.538054
0.521015
0.505859
0.497369
0.490943
0.485817
0.476167
0.462996
0.448788
0.43521
0.42166
0.421762
0.0688742
0.213978
0.803037
0.928967
0.787632
0.776399
0.758925
0.721717
0.677975
0.646449
0.62077
0.592928
0.563428
0.537883
0.520605
0.505269
0.496625
0.490167
0.484851
0.475097
0.461583
0.446967
0.4337
0.420765
0.421393
0.0699645
0.207162
0.766203
0.945114
0.794787
0.778927
0.760299
0.72157
0.678204
0.646985
0.620699
0.593552
0.563788
0.538052
0.520366
0.504606
0.495557
0.489093
0.48337
0.473271
0.459268
0.444332
0.431342
0.41943
0.421031
0.071343
0.198371
0.716511
0.965746
0.804908
0.781602
0.762083
0.721638
0.678403
0.647521
0.620506
0.594662
0.564561
0.538383
0.520005
0.503749
0.494152
0.48765
0.481315
0.47061
0.456136
0.44105
0.428402
0.417666
0.4205
0.073102
0.188068
0.654464
0.989507
0.817825
0.78476
0.763783
0.721625
0.678483
0.647904
0.620218
0.596312
0.565943
0.53904
0.519681
0.502848
0.492562
0.485757
0.478539
0.466998
0.452169
0.436947
0.424678
0.415048
0.419123
0.0752315
0.177029
0.583011
1.01384
0.832137
0.78909
0.764563
0.721978
0.678335
0.647978
0.620218
0.598174
0.567892
0.5401
0.519453
0.501973
0.490896
0.483352
0.475033
0.462805
0.447405
0.431896
0.419813
0.410903
0.415948
0.077777
0.166674
0.509522
1.03454
0.845844
0.795106
0.764518
0.721833
0.677935
0.647849
0.6207
0.599934
0.570178
0.541612
0.519134
0.501682
0.488918
0.480439
0.470932
0.458058
0.441851
0.425721
0.413267
0.404051
0.409251
0.0809003
0.160149
0.45256
1.04161
0.858022
0.799195
0.762587
0.721079
0.677723
0.648144
0.621885
0.601254
0.572207
0.543331
0.51915
0.501626
0.486596
0.477024
0.466077
0.452994
0.43568
0.418341
0.404431
0.392793
0.395412
0.0841247
0.155776
0.41704
1.03313
0.870561
0.800144
0.757865
0.719517
0.677936
0.64935
0.623668
0.602149
0.573734
0.54478
0.519436
0.5013
0.484393
0.47331
0.461027
0.447387
0.428877
0.409628
0.392651
0.37588
0.366774
0.0679719
0.220747
0.837212
0.913426
0.780791
0.771296
0.756931
0.722965
0.677502
0.645486
0.620082
0.592198
0.562912
0.537661
0.520723
0.505712
0.497298
0.490903
0.485816
0.476183
0.463148
0.449108
0.435335
0.421353
0.421074
0.0681856
0.21855
0.826708
0.918337
0.783088
0.77326
0.757963
0.722831
0.678013
0.646222
0.62079
0.59284
0.563451
0.538054
0.521017
0.505862
0.497375
0.49095
0.485824
0.476171
0.462998
0.448789
0.435209
0.421657
0.421758
0.0688731
0.213986
0.803077
0.928941
0.78762
0.776389
0.758919
0.721716
0.677973
0.646446
0.620768
0.592926
0.563428
0.537883
0.520607
0.505272
0.496631
0.490173
0.484857
0.475102
0.461585
0.446968
0.433699
0.420761
0.421389
0.0699632
0.20717
0.766244
0.945089
0.794774
0.778919
0.760293
0.721568
0.678202
0.646983
0.620697
0.593551
0.563788
0.538052
0.520368
0.504609
0.495562
0.489098
0.483376
0.473276
0.459271
0.444333
0.431341
0.419428
0.421029
0.0713417
0.198378
0.716551
0.965722
0.804894
0.781594
0.762077
0.721636
0.678401
0.647519
0.620505
0.59466
0.56456
0.538384
0.520007
0.503752
0.494157
0.487655
0.481321
0.470614
0.456138
0.441051
0.428402
0.417664
0.420498
0.0731006
0.188074
0.654502
0.989484
0.817811
0.784753
0.763779
0.721624
0.678481
0.647902
0.620217
0.59631
0.565942
0.53904
0.519683
0.502851
0.492566
0.485762
0.478544
0.467002
0.452171
0.436948
0.424677
0.415046
0.419121
0.0752301
0.177034
0.583045
1.01382
0.832125
0.789083
0.76456
0.721976
0.678333
0.647976
0.620216
0.598173
0.567891
0.540101
0.519455
0.501976
0.4909
0.483356
0.475038
0.462809
0.447408
0.431898
0.419813
0.410902
0.415946
0.0777755
0.166677
0.509548
1.03452
0.845834
0.795099
0.764516
0.721832
0.677934
0.647847
0.620698
0.599932
0.570177
0.541612
0.519135
0.501683
0.488922
0.480444
0.470936
0.458062
0.441854
0.425723
0.413267
0.404051
0.409249
0.0808988
0.16015
0.45257
1.0416
0.858013
0.79919
0.762587
0.721078
0.677721
0.648141
0.621883
0.601253
0.572206
0.54333
0.51915
0.501628
0.486599
0.477028
0.466081
0.452998
0.435683
0.418343
0.404432
0.392793
0.395411
0.0841234
0.155777
0.417048
1.03313
0.870552
0.800142
0.757866
0.719516
0.677934
0.649347
0.623666
0.602148
0.573733
0.54478
0.519437
0.501301
0.484395
0.473314
0.461031
0.44739
0.428881
0.40963
0.392652
0.375881
0.366773
0.0679699
0.22077
0.837323
0.913381
0.780772
0.771278
0.756924
0.722974
0.677502
0.645482
0.620076
0.592193
0.562906
0.537655
0.520717
0.505707
0.497297
0.49091
0.485827
0.4762
0.463162
0.449114
0.435328
0.421343
0.421063
0.0681839
0.218573
0.826819
0.918291
0.783069
0.773243
0.757957
0.722838
0.678012
0.646218
0.620785
0.592835
0.563446
0.53805
0.521012
0.505858
0.497375
0.490956
0.485833
0.476186
0.463011
0.448796
0.435204
0.421648
0.421747
0.0688715
0.214008
0.803188
0.928893
0.7876
0.77638
0.758914
0.721716
0.677971
0.646443
0.620763
0.592922
0.563423
0.537879
0.520604
0.50527
0.496631
0.490178
0.484864
0.475112
0.461596
0.446974
0.433695
0.420753
0.421379
0.0699611
0.207191
0.766355
0.945042
0.794752
0.778912
0.760288
0.721566
0.6782
0.64698
0.620694
0.59355
0.563784
0.538051
0.520368
0.504609
0.495563
0.489101
0.48338
0.473283
0.459279
0.444338
0.431338
0.419421
0.421019
0.0713395
0.198397
0.71666
0.965675
0.80487
0.781588
0.762072
0.721634
0.678398
0.647517
0.620503
0.594654
0.564554
0.538382
0.520007
0.503754
0.494158
0.487655
0.481321
0.470617
0.456143
0.441055
0.4284
0.417658
0.420489
0.0730982
0.188091
0.654605
0.989441
0.817786
0.784746
0.763776
0.721621
0.67848
0.6479
0.620213
0.596312
0.565947
0.539042
0.519685
0.502853
0.492567
0.485761
0.478542
0.467003
0.452173
0.43695
0.424677
0.415041
0.419113
0.0752277
0.177048
0.583135
1.01378
0.832103
0.789072
0.764557
0.721975
0.678333
0.647974
0.620214
0.598169
0.567889
0.5401
0.519457
0.501977
0.490899
0.483354
0.475035
0.462807
0.447409
0.4319
0.419813
0.410898
0.415939
0.0777728
0.166686
0.509615
1.03449
0.845814
0.795088
0.764514
0.72183
0.677934
0.647848
0.620689
0.599931
0.570173
0.541608
0.519136
0.501683
0.488922
0.48044
0.470932
0.458059
0.441854
0.425724
0.413268
0.404047
0.409242
0.0808961
0.160153
0.452597
1.04159
0.857997
0.799185
0.762588
0.721077
0.677721
0.648142
0.62187
0.601259
0.572207
0.543328
0.519151
0.501628
0.486599
0.477025
0.466077
0.452995
0.435682
0.418344
0.404432
0.39279
0.395405
0.0841212
0.155779
0.417067
1.03312
0.870537
0.800141
0.75787
0.719515
0.677933
0.649348
0.623653
0.602156
0.573735
0.544779
0.519437
0.5013
0.484394
0.473311
0.461027
0.447387
0.42888
0.409631
0.392653
0.375879
0.366767
0.0679711
0.220771
0.837328
0.913396
0.780781
0.771286
0.75693
0.722975
0.677504
0.645485
0.620078
0.592193
0.562902
0.537648
0.520707
0.505694
0.497283
0.490897
0.485819
0.4762
0.46317
0.449125
0.435348
0.42137
0.421094
0.0681847
0.218574
0.826825
0.918304
0.783077
0.773251
0.757962
0.72284
0.678013
0.646219
0.620787
0.592834
0.563441
0.538042
0.521001
0.505844
0.497359
0.490943
0.485824
0.476186
0.46302
0.448807
0.435223
0.421674
0.421777
0.0688722
0.214009
0.803195
0.928906
0.787607
0.776387
0.758919
0.721717
0.677972
0.646443
0.620767
0.59292
0.563418
0.537871
0.520592
0.505256
0.496614
0.490165
0.484854
0.475112
0.461606
0.446986
0.433713
0.420778
0.421407
0.0699618
0.207193
0.766365
0.945052
0.794758
0.778918
0.760292
0.721567
0.6782
0.646978
0.620696
0.593542
0.563778
0.538043
0.520356
0.504594
0.495546
0.489087
0.483371
0.473283
0.45929
0.444349
0.431355
0.419443
0.421044
0.0713401
0.1984
0.716673
0.965682
0.804875
0.781594
0.762076
0.721635
0.678397
0.647514
0.620495
0.594649
0.564551
0.538375
0.519994
0.503739
0.494139
0.487641
0.481313
0.470617
0.456153
0.441067
0.428416
0.417677
0.420511
0.0730986
0.188094
0.654623
0.989446
0.817789
0.78475
0.763779
0.721623
0.678477
0.647894
0.620196
0.596311
0.565946
0.539036
0.519672
0.502837
0.49255
0.485747
0.478534
0.467003
0.452181
0.436961
0.42469
0.415057
0.419131
0.0752278
0.177052
0.583159
1.01379
0.832104
0.789076
0.76456
0.721978
0.678331
0.647967
0.6202
0.598164
0.567891
0.540097
0.519441
0.501962
0.490881
0.483339
0.475026
0.462806
0.447415
0.43191
0.419824
0.410911
0.415954
0.0777725
0.16669
0.509641
1.0345
0.845813
0.795088
0.764516
0.721834
0.677934
0.647841
0.620679
0.599924
0.570176
0.541609
0.519121
0.501675
0.488899
0.480426
0.47092
0.458059
0.441859
0.425732
0.413277
0.404057
0.409253
0.0808954
0.160156
0.452614
1.0416
0.857992
0.79918
0.762587
0.72108
0.677721
0.648138
0.621865
0.601255
0.57221
0.543327
0.519138
0.501614
0.486582
0.477013
0.466068
0.452994
0.435687
0.418351
0.404439
0.392797
0.395412
0.0841203
0.155782
0.417083
1.03313
0.870528
0.800135
0.757868
0.719516
0.677933
0.649345
0.623647
0.602157
0.573737
0.544774
0.519424
0.501285
0.484379
0.473301
0.461019
0.447386
0.428883
0.409636
0.392658
0.375883
0.366769
0.0679698
0.22079
0.837421
0.913346
0.780748
0.771259
0.756913
0.722975
0.677498
0.645477
0.620051
0.592172
0.562889
0.537638
0.520697
0.505672
0.49726
0.490885
0.485814
0.476218
0.463196
0.449146
0.435347
0.42135
0.42106
0.0681874
0.218594
0.826912
0.918263
0.783054
0.773229
0.757945
0.722834
0.678005
0.646218
0.620753
0.592818
0.563435
0.538036
0.520992
0.505829
0.497342
0.490935
0.485821
0.476202
0.463043
0.448826
0.435221
0.421654
0.421744
0.0688735
0.214028
0.803287
0.928865
0.787587
0.776366
0.758903
0.72171
0.677964
0.646443
0.620733
0.59292
0.563413
0.53786
0.520583
0.505242
0.496601
0.490157
0.484853
0.475124
0.461623
0.447
0.433712
0.420758
0.421374
0.0699609
0.207209
0.766453
0.945016
0.794737
0.778899
0.760278
0.721562
0.678197
0.646976
0.620695
0.59354
0.563772
0.538027
0.520345
0.504585
0.49554
0.489078
0.48337
0.473291
0.459301
0.444358
0.431352
0.419424
0.421012
0.0713389
0.198414
0.716756
0.96565
0.804854
0.78158
0.762066
0.721633
0.678401
0.647518
0.620533
0.594636
0.564536
0.538357
0.519985
0.503734
0.494138
0.487633
0.481311
0.470624
0.456161
0.441071
0.428412
0.417659
0.42048
0.0730973
0.188107
0.654699
0.989418
0.817773
0.784745
0.763776
0.72162
0.678482
0.647907
0.620251
0.596296
0.565926
0.539019
0.519666
0.502833
0.492546
0.485738
0.478531
0.467007
0.452188
0.436964
0.424686
0.41504
0.419103
0.0752265
0.177062
0.583223
1.01377
0.832095
0.789072
0.764557
0.721971
0.678336
0.647987
0.620238
0.598164
0.567864
0.540074
0.51944
0.501956
0.490878
0.483332
0.475022
0.462809
0.44742
0.431912
0.419821
0.410895
0.415927
0.077771
0.166696
0.509687
1.03449
0.84581
0.795086
0.764513
0.721826
0.677939
0.647861
0.620703
0.599933
0.570148
0.541577
0.519126
0.501647
0.488908
0.48042
0.470922
0.458056
0.441863
0.425735
0.413274
0.404044
0.40923
0.0808939
0.160158
0.452633
1.0416
0.857992
0.799185
0.762591
0.721076
0.677727
0.648152
0.621869
0.601262
0.572187
0.543301
0.519135
0.501599
0.486585
0.477006
0.466068
0.45299
0.435689
0.418354
0.404439
0.392787
0.395392
0.0841192
0.155783
0.417095
1.03314
0.870531
0.800147
0.757878
0.719519
0.677938
0.649352
0.623649
0.602158
0.573719
0.544758
0.519422
0.501275
0.484376
0.473292
0.461015
0.447384
0.428885
0.409641
0.392659
0.375878
0.366755
0.0679714
0.220801
0.837472
0.913341
0.78076
0.771273
0.756938
0.723007
0.67752
0.645494
0.620086
0.592192
0.562896
0.53764
0.520697
0.505669
0.497246
0.49086
0.485789
0.476191
0.463185
0.449154
0.435393
0.42142
0.421159
0.0681847
0.218603
0.826971
0.918249
0.783054
0.77324
0.757972
0.722871
0.67803
0.646231
0.620788
0.592832
0.563436
0.538035
0.52099
0.505818
0.497322
0.490909
0.485796
0.476179
0.463037
0.448836
0.435267
0.421721
0.421839
0.068873
0.214038
0.80334
0.928853
0.787586
0.77639
0.758931
0.721739
0.677987
0.646462
0.620746
0.592928
0.56342
0.537874
0.520586
0.505235
0.49658
0.490137
0.484828
0.475106
0.461625
0.447016
0.433755
0.420823
0.421466
0.0699627
0.207221
0.766509
0.945004
0.794738
0.778926
0.760305
0.721588
0.678217
0.647001
0.620658
0.593574
0.563784
0.538042
0.520349
0.504575
0.495515
0.489066
0.483347
0.473279
0.459309
0.444379
0.431394
0.419483
0.421096
0.0713403
0.198426
0.716815
0.965641
0.804855
0.781603
0.76209
0.721658
0.67842
0.647534
0.620493
0.594669
0.564553
0.538372
0.51999
0.503721
0.494114
0.487619
0.481294
0.470619
0.456173
0.441095
0.42845
0.417713
0.420556
0.0730984
0.188117
0.654758
0.989416
0.817774
0.784762
0.763797
0.721644
0.678503
0.647921
0.620231
0.596305
0.565933
0.539031
0.519669
0.502826
0.49253
0.485729
0.478523
0.467009
0.452202
0.436989
0.424721
0.415088
0.41917
0.0752274
0.177071
0.58328
1.01377
0.832096
0.789088
0.764581
0.721995
0.678354
0.647999
0.620233
0.598171
0.567874
0.540085
0.51944
0.501949
0.490867
0.483324
0.475021
0.462815
0.447434
0.431934
0.419851
0.410937
0.415986
0.0777719
0.166704
0.509737
1.0345
0.845812
0.795102
0.764539
0.72185
0.677952
0.647869
0.620718
0.599933
0.570159
0.541591
0.519117
0.501659
0.488894
0.480412
0.470921
0.458064
0.441875
0.425754
0.4133
0.404079
0.409278
0.0808947
0.160164
0.452665
1.04163
0.857995
0.7992
0.762614
0.721099
0.677738
0.648159
0.621901
0.601254
0.572194
0.543313
0.519132
0.501606
0.48657
0.476998
0.466064
0.452999
0.4357
0.418369
0.404459
0.392815
0.395431
0.0841198
0.155789
0.417124
1.03318
0.870535
0.800159
0.757898
0.719541
0.67795
0.64936
0.623679
0.602147
0.573724
0.544771
0.51942
0.501281
0.484369
0.473284
0.461012
0.447387
0.428894
0.409652
0.392675
0.375897
0.366783
0.0871875
0.151098
0.383258
1.00699
0.882314
0.797272
0.751076
0.717816
0.679827
0.652
0.625877
0.602295
0.574717
0.54594
0.520091
0.500717
0.482355
0.469615
0.45644
0.441176
0.421501
0.399726
0.377395
0.349349
0.290706
0.0898607
0.145279
0.351523
0.969613
0.900086
0.790557
0.743164
0.716687
0.684587
0.656647
0.628583
0.601784
0.575942
0.547105
0.52081
0.500086
0.480642
0.46614
0.451879
0.434859
0.41407
0.389617
0.361617
0.324298
0.263988
0.0922376
0.138396
0.321929
0.917712
0.90042
0.792942
0.739715
0.716602
0.692015
0.662316
0.631062
0.601118
0.576792
0.548276
0.521877
0.499326
0.480082
0.462745
0.447382
0.42875
0.407714
0.381259
0.35056
0.311394
0.263155
0.0940402
0.129799
0.279734
0.815564
0.909073
0.799401
0.74208
0.721501
0.69952
0.666967
0.632519
0.601083
0.576497
0.548959
0.522849
0.49922
0.47955
0.45954
0.443168
0.423745
0.402455
0.375431
0.344516
0.308105
0.26453
0.0953723
0.121035
0.230238
0.622184
0.943032
0.818731
0.759016
0.735597
0.705549
0.669541
0.633393
0.601408
0.575962
0.549477
0.523552
0.49934
0.479048
0.45761
0.439654
0.420193
0.398176
0.371857
0.342028
0.30835
0.268545
0.0970754
0.116048
0.196116
0.456199
0.956169
0.837637
0.775291
0.746992
0.7106
0.670986
0.633962
0.602209
0.575192
0.551256
0.52526
0.500186
0.478327
0.457246
0.43689
0.417355
0.394983
0.370206
0.342068
0.309899
0.276748
0.0992829
0.113814
0.179494
0.389575
0.935211
0.856285
0.792362
0.755959
0.713335
0.671752
0.634623
0.603353
0.575866
0.553952
0.527981
0.502312
0.478512
0.45728
0.434985
0.415392
0.393341
0.369534
0.34288
0.313643
0.284394
0.10151
0.112048
0.165226
0.345725
0.885732
0.869623
0.813074
0.761892
0.714128
0.672652
0.636526
0.606286
0.578272
0.556432
0.530698
0.504278
0.479487
0.457685
0.435145
0.414489
0.393205
0.369862
0.344912
0.318734
0.291753
0.10277
0.109167
0.149503
0.298625
0.790722
0.894744
0.833185
0.763185
0.713422
0.673327
0.639415
0.610205
0.583148
0.559077
0.534225
0.507775
0.481979
0.458802
0.436486
0.414565
0.393473
0.3708
0.347621
0.324299
0.298983
0.101922
0.104323
0.130159
0.235672
0.62173
0.920688
0.846525
0.763537
0.71257
0.674699
0.643478
0.614523
0.587691
0.56157
0.539359
0.512841
0.486484
0.461552
0.43942
0.41577
0.394399
0.372922
0.351263
0.328857
0.306056
0.0990704
0.0977654
0.113861
0.182821
0.409824
0.907275
0.845019
0.765111
0.712581
0.678009
0.648756
0.619772
0.592585
0.565934
0.543948
0.518069
0.492088
0.466638
0.442511
0.419219
0.396389
0.376048
0.355066
0.333661
0.312464
0.0966541
0.0903789
0.101892
0.151081
0.323856
0.840086
0.834223
0.77531
0.715581
0.684377
0.654789
0.625553
0.597892
0.571723
0.548734
0.524425
0.498655
0.472422
0.447252
0.424371
0.40058
0.379671
0.359376
0.338805
0.318506
0.0947621
0.0838528
0.0920183
0.127126
0.256204
0.692717
0.837919
0.79379
0.729926
0.693099
0.661221
0.631408
0.603651
0.577793
0.552979
0.532244
0.506278
0.479905
0.454124
0.429644
0.406992
0.383932
0.364046
0.3444
0.324961
0.0936114
0.0784122
0.0837472
0.106291
0.188745
0.471621
0.842157
0.810402
0.744646
0.702195
0.667592
0.637302
0.610065
0.58452
0.559283
0.539217
0.513985
0.487928
0.461749
0.436489
0.413322
0.39098
0.36898
0.350123
0.331574
0.0927062
0.0743002
0.0779387
0.0929043
0.146466
0.327751
0.803478
0.806085
0.770929
0.713789
0.674251
0.644028
0.617183
0.592006
0.567089
0.543685
0.52286
0.496388
0.470232
0.444802
0.420544
0.398206
0.375992
0.356551
0.338397
0.0919858
0.0709866
0.0734627
0.0835052
0.118768
0.246354
0.678273
0.809783
0.783434
0.725571
0.683219
0.651643
0.624801
0.599804
0.574827
0.549874
0.530491
0.505016
0.479198
0.453696
0.429216
0.406112
0.384533
0.363781
0.345602
0.0914407
0.06846
0.0700848
0.0765029
0.0979635
0.173052
0.425834
0.802782
0.788839
0.743031
0.694548
0.660675
0.633096
0.60763
0.582723
0.557678
0.534538
0.514669
0.488835
0.463193
0.438817
0.415189
0.393291
0.372727
0.353392
0.0910266
0.0665685
0.0676502
0.0718822
0.0856244
0.131941
0.292595
0.732961
0.7834
0.759832
0.712094
0.672374
0.641949
0.615228
0.590163
0.565326
0.540715
0.522505
0.498078
0.473062
0.448517
0.425113
0.402868
0.382186
0.362694
0.0907296
0.0651478
0.0658387
0.0685394
0.0770313
0.104251
0.201569
0.53849
0.773264
0.760725
0.729275
0.684213
0.650887
0.62292
0.597504
0.573132
0.548677
0.526937
0.508051
0.483505
0.45896
0.435523
0.413336
0.39235
0.372826
0.0905167
0.0641369
0.0645772
0.0663292
0.0716653
0.088014
0.142902
0.325005
0.72923
0.75948
0.741646
0.701167
0.662008
0.631064
0.604921
0.580739
0.556996
0.533681
0.515956
0.493163
0.46979
0.446638
0.424463
0.403447
0.383663
0.0903714
0.0634288
0.0636932
0.064788
0.0680821
0.0778303
0.108897
0.219761
0.581107
0.752431
0.742982
0.716951
0.675796
0.641428
0.613624
0.58876
0.565468
0.542095
0.521135
0.503747
0.480964
0.458324
0.436271
0.415248
0.395445
0.090299
0.0629715
0.0631233
0.0637985
0.0658411
0.071639
0.0891015
0.147858
0.334698
0.715423
0.740721
0.726053
0.693177
0.652645
0.622537
0.597124
0.573815
0.551018
0.529516
0.510467
0.492006
0.470076
0.448472
0.427538
0.407834
0.0903396
0.0627176
0.0627925
0.063192
0.064413
0.0678281
0.0777213
0.109208
0.220777
0.572607
0.730622
0.725336
0.707459
0.670833
0.634962
0.606731
0.582393
0.560214
0.538606
0.517892
0.502081
0.481445
0.460918
0.440506
0.42091
0.0904473
0.0626805
0.0626625
0.0628543
0.0635389
0.065519
0.0710985
0.0878942
0.144415
0.321867
0.68435
0.722274
0.712541
0.686591
0.64763
0.617387
0.591884
0.569557
0.548305
0.527586
0.509256
0.493746
0.473676
0.45401
0.43451
0.0904879
0.0628299
0.0624371
0.0625473
0.0629397
0.0640703
0.067178
0.0761254
0.104381
0.203903
0.518319
0.705873
0.710762
0.698249
0.666473
0.630358
0.602327
0.579204
0.558309
0.538058
0.519058
0.502895
0.486266
0.467141
0.448672
0.0905026
0.0629352
0.0622869
0.0623474
0.0625693
0.0632066
0.0649586
0.0697923
0.0843016
0.132947
0.290331
0.634737
0.705002
0.698987
0.680954
0.647897
0.615926
0.589781
0.568435
0.54877
0.529796
0.511937
0.498481
0.4806
0.462831
0.090507
0.0629927
0.0621974
0.0622295
0.0623502
0.0626997
0.0636535
0.0662225
0.07349
0.0959381
0.173887
0.421005
0.675598
0.695396
0.686456
0.664625
0.631271
0.602195
0.57978
0.559722
0.541147
0.523478
0.50789
0.494797
0.477584
0.0905046
0.0630209
0.0621457
0.0621615
0.0622241
0.0624084
0.062911
0.0642703
0.0679791
0.0789323
0.114969
0.238743
0.563868
0.680244
0.683757
0.674033
0.650502
0.618085
0.591777
0.571948
0.553421
0.536035
0.519673
0.506454
0.492394
0.0905008
0.0630338
0.0621165
0.0621235
0.0621544
0.0622475
0.0625062
0.0632042
0.0651054
0.0704204
0.0866241
0.141376
0.305138
0.619731
0.676176
0.673122
0.66219
0.638366
0.60747
0.584597
0.566051
0.548937
0.532549
0.51762
0.507246
0.0904994
0.0630371
0.0621008
0.0621037
0.0621186
0.0621639
0.0622902
0.0626346
0.0635699
0.0661189
0.0734628
0.0965822
0.175858
0.419078
0.640645
0.667833
0.66328
0.651391
0.627541
0.599476
0.579401
0.562425
0.5466
0.531658
0.518587
0.0905
0.0630334
0.0621024
0.0620903
0.0620957
0.0621159
0.062175
0.0623396
0.062785