/*--------------------------------*- C++ -*----------------------------------*\
| =========                 |                                                 |
| \\      /  F ield         | OpenFOAM: The Open Source CFD Toolbox           |
|  \\    /   O peration     | Version:  4.1                                   |
|   \\  /    A nd           | Web:      www.OpenFOAM.org                      |
|    \\/     M anipulation  |                                                 |
\*---------------------------------------------------------------------------*/
FoamFile
{
    version     2.0;
    format      ascii;
    class       surfaceScalarField;
    location    "0.78";
    object      phi;
}
// * * * * * * * * * * * * * * * * * * * * * * * * * * * * * * * * * * * * * //

dimensions      [1 0 -1 0 0 0 0];

internalField   nonuniform List<scalar> 
150500
(
0.00160189
-1.35251e-06
1.79482e-11
0.0015994
9.69091e-06
-9.68675e-11
0.00103631
0.000163666
-4.81137e-10
0.001174
0.000117354
3.89878e-10
0.00115338
9.53884e-05
2.65442e-10
0.00119205
9.66705e-05
2.55505e-10
0.00122878
9.9755e-05
2.13677e-10
0.00118524
9.83149e-05
1.11077e-10
0.00114764
9.14324e-05
1.21815e-10
0.00113596
8.47302e-05
1.56977e-10
0.00120881
8.38317e-05
1.54141e-10
0.00125861
8.61617e-05
1.56426e-10
0.0012444
8.38452e-05
1.0972e-10
0.00118486
7.93158e-05
6.95127e-11
0.00108008
7.499e-05
6.38263e-11
0.00095016
7.22465e-05
5.49998e-11
0.000842437
7.33668e-05
6.26424e-12
0.000753023
7.85321e-05
-6.00217e-11
0.000684918
8.41708e-05
-8.80418e-11
0.000622402
8.8997e-05
-1.27064e-10
0.000568068
9.4741e-05
-8.87692e-11
0.000501077
0.000100796
5.13971e-13
0.000380059
0.000104594
2.05074e-10
0.000213392
0.000109292
3.31929e-10
0.00011676
4.29645e-10
0.00160605
-3.57589e-06
-6.4686e-12
0.00160554
1.89049e-05
-1.03107e-10
0.00104131
0.000320643
-4.41158e-10
0.00117265
0.000240655
3.40551e-10
0.00115689
0.000189398
2.02272e-10
0.00119095
0.00019575
2.25692e-10
0.0012207
0.000201946
2.12309e-10
0.00117951
0.000196765
1.38852e-10
0.00114376
0.000182434
1.25265e-10
0.00113369
0.000168914
1.06963e-10
0.00120732
0.000167255
2.18281e-10
0.00125962
0.000170241
1.33209e-10
0.00124812
0.000165532
6.67806e-11
0.00119006
0.000157335
4.57266e-11
0.00108768
0.000149691
5.45696e-11
0.000957946
0.000145028
3.09179e-11
0.000850095
0.000147277
-1.07437e-11
0.000759996
0.000157242
-7.02894e-11
0.000691823
0.000168594
-8.12697e-11
0.000629002
0.000178521
-1.08389e-10
0.00057377
0.000190125
-6.72738e-11
0.000504938
0.000202297
1.21558e-11
0.000382938
0.000210208
1.98475e-10
0.000214819
0.000219383
3.19345e-10
0.000233478
4.12053e-10
0.00161441
-5.67483e-06
2.88688e-13
0.00161909
2.67024e-05
-9.40985e-11
0.00106372
0.000453676
-4.5249e-10
0.00118541
0.000374323
3.41116e-10
0.00117195
0.000288364
1.84826e-10
0.00119362
0.00030027
2.48813e-10
0.00121209
0.000302905
2.0668e-10
0.00118009
0.000291877
1.1965e-10
0.00114779
0.000271884
1.1998e-10
0.00113869
0.000252318
9.22733e-11
0.00121099
0.000250524
2.49632e-10
0.00126544
0.000253342
4.73752e-11
0.00125611
0.000247094
5.66986e-11
0.00119844
0.000235463
6.80905e-11
0.00109912
0.000225009
4.4054e-11
0.000969221
0.000217963
2.96853e-11
0.000861301
0.000220995
-2.50941e-11
0.000770672
0.000235255
-5.27952e-11
0.000703056
0.000252413
-7.75879e-11
0.000640209
0.000268263
-7.80198e-11
0.000583751
0.000285915
-3.01433e-11
0.000511834
0.000304028
3.82146e-11
0.000389289
0.000316772
1.85427e-10
0.000219216
0.000330757
3.01694e-10
0.000353013
3.89832e-10
0.00162728
-7.3579e-06
1.50612e-11
0.00164082
3.22909e-05
-7.44936e-11
0.00110389
0.000550458
-4.11993e-10
0.00121047
0.000522261
3.11766e-10
0.00119846
0.000397122
1.92502e-10
0.00120905
0.000404739
2.44154e-10
0.00121631
0.000406745
1.94783e-10
0.00118446
0.000388981
8.89291e-11
0.00115438
0.000360729
8.69267e-11
0.00114491
0.000335388
8.79125e-11
0.00121444
0.000331864
1.26213e-10
0.00127299
0.000335926
3.04398e-11
0.00126655
0.000328724
5.62874e-11
0.00121023
0.000313512
7.2874e-11
0.0011153
0.000300459
2.25784e-11
0.000985912
0.000291524
-1.01973e-11
0.000878015
0.000294713
-5.87512e-11
0.000787081
0.000312293
-3.00478e-11
0.000719507
0.000336123
-6.08897e-11
0.000656923
0.000358517
-4.25814e-11
0.000599303
0.000382381
1.03671e-11
0.000523772
0.000405464
6.96911e-11
0.000400544
0.000423873
1.74655e-10
0.000226297
0.000445185
2.72863e-10
0.000477062
3.52052e-10
0.0016448
-9.24982e-06
1.66382e-11
0.00167095
3.49074e-05
-5.82426e-11
0.00116631
0.000599526
-3.48674e-10
0.00124731
0.000688361
2.95739e-10
0.00123378
0.000518439
1.95244e-10
0.00122827
0.000512296
2.0987e-10
0.00122249
0.000512677
1.62752e-10
0.00119004
0.000485733
6.45855e-11
0.00116293
0.0004491
5.21077e-11
0.00115425
0.00041858
5.65791e-11
0.00121822
0.00041309
-6.21762e-11
0.00128228
0.000417247
1.03604e-10
0.0012801
0.000410516
9.53983e-11
0.00122536
0.000392412
8.53176e-11
0.00113612
0.000377038
1.78261e-11
0.00100733
0.000366056
-2.77064e-11
0.000898634
0.000368025
-6.19647e-11
0.000807945
0.00038819
-1.8073e-11
0.000741218
0.000418798
-3.17949e-11
0.000679377
0.000449239
-1.13502e-11
0.00061991
0.000479165
4.46456e-11
0.000540986
0.000505947
9.2107e-11
0.00041635
0.000532458
1.62879e-10
0.000236548
0.000563789
2.42349e-10
0.000610609
3.17319e-10
0.00166674
-1.0867e-05
1.76223e-11
0.00170962
3.38684e-05
-4.13611e-11
0.00125976
0.000589159
-2.81093e-10
0.00130115
0.000875715
2.82426e-10
0.00127636
0.000654646
1.69112e-10
0.0012507
0.000624439
1.52748e-10
0.00122515
0.000618954
1.16906e-10
0.00119633
0.000583712
7.16106e-11
0.00117246
0.000537712
4.56564e-11
0.0011659
0.00050264
1.92879e-11
0.00122114
0.000493326
-1.46043e-10
0.00129296
0.000497964
7.86095e-11
0.00129633
0.000492648
6.38142e-11
0.00124406
0.000473108
6.35606e-11
0.0011608
0.000454841
-1.59417e-12
0.00103306
0.000441318
-1.92355e-11
0.000923194
0.000440638
-2.91197e-11
0.000833566
0.000462809
4.13093e-12
0.000768241
0.000500226
4.40727e-12
0.000707282
0.000538943
2.32584e-11
0.000646513
0.000573594
5.67605e-11
0.000565059
0.000605998
9.92038e-11
0.000438244
0.000643778
1.49365e-10
0.000251006
0.000689259
2.14356e-10
0.000760032
2.82246e-10
0.00169265
-1.21161e-05
1.62689e-11
0.00175768
2.85674e-05
-2.19446e-11
0.00139105
0.000517175
-1.86163e-10
0.00137357
0.00108759
2.55979e-10
0.00132637
0.000801703
1.29956e-10
0.00127582
0.000748303
1.29171e-10
0.00123039
0.000725069
1.10465e-10
0.00120242
0.000682178
1.01035e-10
0.00118244
0.00062601
4.91368e-11
0.00117979
0.000587883
-9.0969e-12
0.0012244
0.000572684
-8.08556e-11
0.00130438
0.000578244
3.5428e-11
0.00131513
0.000574953
1.25278e-10
0.00126639
0.00055466
1.0119e-10
0.00118953
0.000533716
-1.87646e-11
0.00106364
0.000517021
3.80211e-12
0.000952463
0.000512993
-2.04937e-11
0.000864375
0.000536088
1.57482e-12
0.000800872
0.00057925
2.9655e-11
0.000742263
0.000624462
4.13917e-11
0.000681106
0.000665273
6.72766e-11
0.000597135
0.000706212
9.84317e-11
0.00046889
0.000757827
1.3158e-10
0.000274026
0.000823837
1.85612e-10
0.000936383
2.45422e-10
0.00172109
-1.28624e-05
1.71857e-11
0.0018173
2.07906e-05
1.48649e-12
0.0015609
0.000405347
-6.27521e-11
0.00145872
0.00132867
2.18764e-10
0.00138693
0.000955978
9.86836e-11
0.00130055
0.000883465
1.13129e-10
0.0012329
0.000827357
1.05346e-10
0.00120731
0.000777078
1.0195e-10
0.00119344
0.000712462
3.9478e-11
0.00119487
0.000673545
-2.14011e-11
0.00122748
0.000652445
8.33961e-12
0.00131454
0.00065825
-2.25705e-11
0.0013358
0.000658025
1.56478e-10
0.00129233
0.000636894
1.82697e-10
0.00122107
0.000613338
-5.09668e-11
0.00109949
0.000592125
1.46674e-10
0.000986761
0.000586028
-8.34362e-11
0.000900529
0.000607607
3.03732e-12
0.000840442
0.000654233
1.32853e-12
0.000784747
0.000705308
8.36802e-11
0.000722763
0.000753621
7.48025e-11
0.000640017
0.000803234
9.15316e-11
0.000511817
0.000873518
1.13185e-10
0.000311319
0.000968638
1.55237e-10
0.00115443
2.06844e-10
0.00174839
-1.23074e-05
1.55012e-11
0.00186181
1.99683e-05
1.68587e-11
0.00173206
0.000339067
4.754e-11
0.00152295
0.00157782
1.88481e-10
0.00143622
0.00111664
8.02324e-11
0.00131645
0.00101335
7.29764e-11
0.00123188
0.000915701
6.57628e-11
0.00121206
0.000864974
8.38983e-11
0.00120688
0.000798365
3.11592e-11
0.00121142
0.000760529
-4.98751e-12
0.00123255
0.000733251
1.00942e-10
0.00132187
0.000737986
-3.85874e-11
0.00135551
0.000742001
1.21332e-10
0.0013215
0.000720641
1.61807e-10
0.00125428
0.000691724
7.62558e-12
0.00114179
0.000670083
6.82384e-11
0.00102625
0.000659047
-3.64776e-11
0.000942079
0.000676772
1.63375e-11
0.000883258
0.000724545
8.82865e-12
0.00083376
0.000779962
8.25123e-11
0.000773527
0.000835252
7.8239e-11
0.000694773
0.000895094
7.9153e-11
0.000572575
0.000986119
9.73933e-11
0.000378755
0.0011152
1.19251e-10
0.00144614
1.63267e-10
0.00177433
1.09678e-11
-1.12966e-05
0.00187
1.75551e-11
2.31072e-05
0.00173459
6.59769e-11
0.000310634
0.00155569
1.89536e-10
0.00175853
0.00146755
7.64285e-11
0.0012911
0.00132134
2.96215e-11
0.0011202
0.00123125
3.34524e-11
0.00098791
0.00121851
5.94475e-11
0.000944633
0.00122349
3.16196e-11
0.000888011
0.00123006
1.94584e-11
0.000851829
0.00124165
1.08083e-10
0.000816374
0.00132667
-8.00453e-12
0.000817523
0.00137267
1.09037e-10
0.000825198
0.00135171
1.04193e-10
0.000805368
0.00128862
7.54914e-12
0.000772584
0.00118816
4.72774e-11
0.000747251
0.00107101
8.43416e-13
0.000731711
0.000988715
3.37602e-11
0.000742848
0.00092996
3.58252e-11
0.000788092
0.000888821
7.37751e-11
0.000846731
0.000836295
7.34404e-11
0.000908317
0.000767287
7.15894e-11
0.00097714
0.000660525
7.91103e-11
0.0010858
0.000487363
8.38985e-11
0.00125173
1.13086e-10
0.0018532
0.00160186
-1.36611e-06
-5.97571e-12
0.00159935
9.6886e-06
9.73945e-11
0.00103618
0.000163853
5.119e-10
0.00117384
0.00011742
-2.28845e-10
0.00115324
9.53463e-05
-1.53574e-10
0.0011919
9.67032e-05
-1.25668e-10
0.00122854
9.98849e-05
-7.79685e-11
0.00118488
9.844e-05
1.48657e-12
0.00114718
9.15162e-05
-2.7416e-11
0.00113564
8.467e-05
-3.39693e-11
0.00120856
8.37875e-05
-1.38736e-10
0.00125846
8.59447e-05
-1.07023e-10
0.00124441
8.36383e-05
-6.66572e-11
0.00118492
7.92234e-05
-5.43935e-11
0.00108017
7.49831e-05
-5.3971e-11
0.000950182
7.2301e-05
-1.28786e-10
0.000842424
7.34271e-05
-1.34102e-10
0.00075301
7.85918e-05
-4.44568e-11
0.000684906
8.42223e-05
-1.82795e-11
0.000622411
8.90479e-05
9.48433e-11
0.000568102
9.47743e-05
1.53703e-10
0.000501048
0.000100796
1.25143e-10
0.000379959
0.000104577
-7.3595e-12
0.00021332
0.000109273
-9.58703e-11
0.000116737
-1.62563e-10
0.00160601
-3.56971e-06
1.53838e-11
0.00160547
1.89201e-05
1.03442e-10
0.00104148
0.000320715
4.80802e-10
0.00117298
0.000240597
-1.89661e-10
0.00115716
0.000189405
-1.04501e-10
0.00119128
0.000195755
-1.0158e-10
0.00122118
0.000201884
-7.82311e-11
0.00118021
0.000196682
-2.72283e-11
0.00114456
0.000182325
-3.59362e-11
0.00113438
0.000168737
-4.78928e-12
0.00120792
0.000166968
-1.74306e-10
0.00126038
0.000170017
-8.09286e-11
0.00124892
0.000165554
-2.9385e-11
0.00119064
0.000157519
-3.31836e-11
0.00108812
0.000149963
-5.13464e-11
0.000958146
0.000145227
-9.21538e-11
0.000850162
0.000147419
-1.0288e-10
0.000760014
0.00015736
-2.6532e-11
0.000691825
0.00016869
-1.4091e-11
0.000629009
0.000178622
8.04833e-11
0.000573787
0.000190208
1.36047e-10
0.000504898
0.000202302
1.13988e-10
0.000382834
0.00021018
-7.64049e-12
0.000214748
0.000219342
-9.38751e-11
0.000233426
-1.60181e-10
0.00161437
-5.66132e-06
7.55356e-12
0.00161902
2.6725e-05
9.75631e-11
0.00106371
0.000453787
5.04547e-10
0.00118553
0.000374205
-1.88334e-10
0.00117217
0.000288325
-9.08952e-11
0.00119393
0.00030018
-9.73651e-11
0.00121247
0.000302768
-7.33892e-11
0.00118057
0.000291732
-3.2331e-11
0.00114824
0.000271687
-3.60098e-11
0.00113891
0.000252118
-1.24097e-12
0.00121103
0.000250117
-1.58621e-10
0.00126563
0.000253215
3.85864e-12
0.00125635
0.000247255
-2.63613e-11
0.0011986
0.000235763
-6.1383e-11
0.00109922
0.00022537
-4.81346e-11
0.000969233
0.000218216
-8.63348e-11
0.000861266
0.000221191
-6.82003e-11
0.00077063
0.000235427
-2.95493e-11
0.000703009
0.000252547
-3.13869e-12
0.000640165
0.000268395
5.63478e-11
0.000583726
0.000286019
1.03974e-10
0.000511781
0.000304035
8.17868e-11
0.000389191
0.000316731
-9.27633e-12
0.000219151
0.000330695
-9.09322e-11
0.000352935
-1.57636e-10
0.00162726
-7.35513e-06
-4.27416e-12
0.00164077
3.23107e-05
8.56191e-11
0.00110384
0.000550637
4.90232e-10
0.00121048
0.000522146
-1.64728e-10
0.00119852
0.000397001
-9.59298e-11
0.00120916
0.000404567
-8.69603e-11
0.00121645
0.000406566
-6.62151e-11
0.00118464
0.000388854
-2.05754e-11
0.00115448
0.000360585
-1.33438e-11
0.00114487
0.000335296
-7.63587e-12
0.00121425
0.000331566
-5.3753e-12
0.00127277
0.000335974
-1.01556e-11
0.0012663
0.00032901
-3.4542e-11
0.00120991
0.000313869
-8.75231e-11
0.00111491
0.00030081
-6.94203e-11
0.000985602
0.000291781
-4.13778e-11
0.000877814
0.000294909
-2.46343e-11
0.000786921
0.000312471
-2.96205e-11
0.000719377
0.000336272
-2.67055e-12
0.000656813
0.000358629
4.07728e-11
0.000599224
0.000382452
6.46851e-11
0.000523696
0.000405459
3.18366e-11
0.000400449
0.000423823
-1.38873e-11
0.000226244
0.000445103
-8.79634e-11
0.000476962
-1.52013e-10
0.00164478
-9.2488e-06
-5.36668e-12
0.00167091
3.49266e-05
7.71444e-11
0.00116628
0.00059975
4.64364e-10
0.00124728
0.000688257
-1.48553e-10
0.00123374
0.000518289
-9.69364e-11
0.00122825
0.000512128
-6.15451e-11
0.00122249
0.000512538
-4.44787e-11
0.00119002
0.000485666
-6.45098e-12
0.00116283
0.00044902
1.47963e-11
0.00115412
0.000418505
1.59891e-11
0.00121825
0.00041313
2.21426e-10
0.00128204
0.000417488
-6.47106e-11
0.00127965
0.000410886
-7.79958e-11
0.00122483
0.000392792
-1.01238e-10
0.00113549
0.000377355
-5.3088e-11
0.00100679
0.000366246
-2.09625e-11
0.000898232
0.000368143
-4.7367e-12
0.000807638
0.000388301
-3.91082e-11
0.000740993
0.000418879
-5.87798e-12
0.000679209
0.000449281
3.69917e-11
0.000619784
0.000479175
2.90906e-11
0.000540883
0.000505919
1.89549e-11
0.000416261
0.000532389
-1.9715e-11
0.000236509
0.000563691
-8.44179e-11
0.000610522
-1.45117e-10
0.00166672
-1.08682e-05
-5.85392e-12
0.00170958
3.38872e-05
6.76379e-11
0.00125977
0.000589392
4.34949e-10
0.00130113
0.000875628
-1.2843e-10
0.00127632
0.000654526
-7.39502e-11
0.00125069
0.000624315
-2.22125e-11
0.00122513
0.000618871
-1.51066e-11
0.00119621
0.000583682
-1.34803e-11
0.00117223
0.000537723
2.06231e-11
0.00116554
0.000502702
7.42047e-11
0.00122105
0.00049348
3.01009e-10
0.00129256
0.000498312
-8.32464e-11
0.00129568
0.000493053
-1.07973e-10
0.00124332
0.000473374
-9.68915e-11
0.00116002
0.000454971
-3.02704e-11
0.00103245
0.000441323
-1.54061e-11
0.000922766
0.00044062
-1.57164e-11
0.000833203
0.000462798
-5.63273e-11
0.000767978
0.000500204
-1.12645e-11
0.000707083
0.000538915
1.98867e-11
0.000646358
0.000573553
2.62413e-11
0.000564942
0.000605936
1.28032e-11
0.000438156
0.000643694
-2.0985e-11
0.000250976
0.000689145
-8.01659e-11
0.000759951
-1.35556e-10
0.00169263
-1.21167e-05
-5.39148e-12
0.00175765
2.85831e-05
5.39202e-11
0.00139108
0.000517362
3.74455e-10
0.00137356
0.00108753
-9.16798e-11
0.00132635
0.000801628
-3.88312e-11
0.00127581
0.000748203
-1.60027e-11
0.00123037
0.000725012
-1.67746e-11
0.00120228
0.000682202
-3.47396e-11
0.00118219
0.000626121
1.83408e-11
0.00117943
0.000588065
1.12905e-10
0.00122446
0.000573067
2.15518e-10
0.00130409
0.000578775
-3.45534e-12
0.00131434
0.000575358
-1.4143e-10
0.00126541
0.000554752
-1.25542e-10
0.00118844
0.000533566
-1.04421e-11
0.00106281
0.000516763
-2.74059e-11
0.000951986
0.000512755
-1.22936e-11
0.000864031
0.000535959
-3.97041e-11
0.000800631
0.00057915
-2.45938e-11
0.000742073
0.000624395
1.23088e-11
0.000680952
0.000665198
1.86954e-11
0.000597012
0.00070613
1.01848e-11
0.000468808
0.00075773
-1.77829e-11
0.000274006
0.000823714
-7.27793e-11
0.0009363
-1.23852e-10
0.00172108
-1.28649e-05
-6.65235e-12
0.00181728
2.07961e-05
3.24867e-11
0.00156095
0.000405446
2.67604e-10
0.00145873
0.00132864
-3.9861e-11
0.00138692
0.000955944
-1.44802e-11
0.00130055
0.000883403
-9.90069e-12
0.00123288
0.000827356
-1.58396e-11
0.0012072
0.000777181
-3.42341e-11
0.00119321
0.000712682
2.82585e-11
0.00119456
0.000673837
1.12631e-10
0.00122771
0.000652925
1.38705e-10
0.00131453
0.000658926
4.72003e-11
0.00133509
0.000658349
-1.44539e-10
0.00129131
0.000636796
-1.69638e-10
0.00122
0.00061305
2.15338e-11
0.00109853
0.000591642
-1.50839e-10
0.000986257
0.000585677
3.96927e-11
0.000900183
0.000607392
-3.31757e-11
0.000840236
0.000654086
9.11127e-12
0.000784564
0.000705216
-1.5857e-11
0.000722614
0.00075352
1.54954e-11
0.000639903
0.000803128
1.25719e-11
0.000511742
0.000873418
-1.13147e-11
0.000311306
0.000968512
-6.16943e-11
0.00115434
-1.0922e-10
0.00174839
-1.23115e-05
-7.01115e-12
0.00186182
1.99662e-05
7.65841e-12
0.00173219
0.000339093
1.03656e-10
0.00152299
0.00157784
2.30246e-11
0.00143622
0.00111664
9.11699e-13
0.00131647
0.00101333
3.149e-11
0.00123188
0.000915769
1.79015e-11
0.00121198
0.000865149
-1.67842e-11
0.00120671
0.000798668
3.22468e-11
0.00121119
0.000760871
8.22136e-11
0.00123272
0.000733758
2.79628e-11
0.001322
0.000738674
3.10458e-11
0.00135504
0.000742252
-1.16348e-10
0.00132068
0.000720452
-1.3642e-10
0.00125345
0.000691372
-1.15103e-11
0.001141
0.00066963
-8.07772e-11
0.0010258
0.000658733
1.2333e-11
0.000941748
0.000676557
-4.18715e-11
0.00088309
0.000724406
8.77139e-13
0.000833588
0.000779843
-1.64734e-11
0.000773385
0.000835128
1.12127e-11
0.000694665
0.000894968
1.73983e-11
0.00057251
0.000986017
-3.07164e-12
0.000378741
0.00111509
-4.37263e-11
0.00144605
-9.03166e-11
0.00177433
-5.71706e-12
-1.13001e-05
0.00187001
5.42361e-12
2.31036e-05
0.00173468
4.6609e-11
0.00031064
0.00155574
4.26577e-11
0.00175857
0.00146757
1.69203e-11
0.00129115
0.00132138
7.43093e-11
0.00112027
0.00123128
6.26231e-11
0.000988004
0.00121849
1.09879e-11
0.000944825
0.0012234
1.74e-11
0.000888318
0.00122992
3.58614e-11
0.000852168
0.00124177
6.8803e-12
0.000816844
0.00132683
3.69823e-12
0.000818116
0.00137241
-9.3154e-11
0.000825373
0.00135121
-7.94259e-11
0.000805196
0.00128812
-7.42402e-12
0.000772324
0.00118766
-6.20801e-11
0.000746911
0.00107069
-1.10487e-11
0.000731464
0.000988458
-5.26716e-11
0.000742657
0.000929819
-1.85415e-11
0.000787949
0.000888688
-1.16951e-11
0.000846594
0.000836174
1.07726e-11
0.000908186
0.00076719
1.76858e-11
0.000977006
0.000660474
3.9858e-12
0.00108569
0.000487335
-2.34492e-11
0.00125163
-6.76663e-11
0.00185307
0.00160189
-1.35626e-06
5.3642e-12
0.0015994
9.69067e-06
4.00556e-12
0.00103634
0.00016372
2.49833e-11
0.00117399
0.000117378
6.72154e-11
0.00115335
9.53888e-05
3.92871e-11
0.001192
9.67033e-05
3.9344e-11
0.00122866
9.98321e-05
2.75286e-11
0.00118505
9.84123e-05
6.19426e-12
0.00114736
9.15504e-05
8.1954e-12
0.00113571
8.47971e-05
1.0969e-11
0.0012086
8.39284e-05
7.56207e-12
0.00125822
8.61421e-05
2.62095e-12
0.00124388
8.37382e-05
-1.50594e-11
0.00118439
7.92072e-05
-2.82832e-11
0.0010796
7.48911e-05
-5.97492e-11
0.000949827
7.22063e-05
-6.45622e-11
0.000842206
7.33581e-05
-8.96039e-11
0.000752904
7.85397e-05
-7.59557e-11
0.000684851
8.41755e-05
-4.16573e-11
0.000622394
8.89914e-05
2.48908e-12
0.000568123
9.4734e-05
3.58973e-11
0.000501105
0.000100777
5.01522e-11
0.000380054
0.000104572
1.1632e-10
0.000213385
0.000109271
1.48231e-10
0.000116739
1.67761e-10
0.00160605
-3.57535e-06
4.54146e-12
0.00160553
1.89098e-05
3.95567e-12
0.0010414
0.000320685
2.93963e-11
0.00117275
0.000240655
6.18829e-11
0.00115696
0.000189412
3.49871e-11
0.00119102
0.000195799
3.568e-11
0.00122077
0.000202003
2.59962e-11
0.00117963
0.000196847
7.93234e-12
0.00114387
0.000182566
5.75366e-12
0.00113378
0.000169006
4.8458e-12
0.00120741
0.00016738
7.96721e-12
0.00125959
0.000170239
-3.75154e-12
0.00124796
0.000165426
-1.82515e-11
0.00118985
0.000157228
-4.197e-11
0.00108742
0.000149591
-6.61943e-11
0.00095775
0.000144999
-8.30604e-11
0.000849948
0.000147288
-9.45104e-11
0.000759919
0.000157273
-7.66797e-11
0.000691778
0.000168615
-4.58242e-11
0.000629001
0.000178522
1.65452e-12
0.000573819
0.000190122
3.51014e-11
0.00050496
0.000202264
5.61914e-11
0.000382928
0.000210169
1.13522e-10
0.000214809
0.000219339
1.4182e-10
0.00023343
1.58433e-10
0.0016144
-5.67072e-06
3.58244e-12
0.00161908
2.67109e-05
5.46674e-12
0.00106379
0.000453727
3.40095e-11
0.00118549
0.000374307
5.5704e-11
0.00117204
0.000288373
3.21712e-11
0.00119374
0.00030029
3.16094e-11
0.00121223
0.000302949
2.23554e-11
0.00118027
0.000291956
5.83778e-12
0.00114796
0.000271999
3.38991e-12
0.00113881
0.000252407
-1.01816e-12
0.00121107
0.000250597
1.53607e-11
0.00126548
0.000253326
-1.11156e-11
0.00125608
0.000247038
-2.30543e-11
0.00119837
0.000235402
-3.96311e-11
0.00109899
0.000224967
-7.5023e-11
0.000969084
0.000217942
-8.68979e-11
0.000861178
0.000221011
-1.01337e-10
0.000770595
0.000235292
-7.60162e-11
0.000703017
0.000252434
-5.34316e-11
0.000640208
0.000268276
-4.94804e-14
0.000583793
0.000285914
3.74746e-11
0.000511858
0.000303986
6.59142e-11
0.000389288
0.000316717
1.07828e-10
0.000219212
0.000330692
1.33024e-10
0.000352941
1.46122e-10
0.00162728
-7.35714e-06
3.04762e-12
0.00164082
3.22988e-05
7.95365e-12
0.00110396
0.000550523
4.63138e-11
0.00121053
0.00052224
4.51962e-11
0.00119852
0.000397106
2.71228e-11
0.00120914
0.000404724
2.848e-11
0.00121643
0.000406758
2.04922e-11
0.00118462
0.000389051
4.10242e-12
0.00115453
0.000360837
-1.65878e-12
0.001145
0.000335516
-8.69625e-12
0.00121442
0.00033187
1.26007e-11
0.001273
0.000335929
-4.49485e-11
0.00126654
0.000328722
-3.4627e-11
0.00121015
0.000313491
-3.44383e-11
0.00111516
0.000300428
-7.03122e-11
0.000985794
0.000291529
-9.51736e-11
0.000877946
0.000294765
-1.04006e-10
0.00078703
0.000312349
-8.47566e-11
0.000719474
0.000336173
-5.04897e-11
0.000656916
0.000358543
2.29189e-12
0.000599334
0.000382374
4.38636e-11
0.000523795
0.000405412
7.03979e-11
0.00040055
0.000423808
1.00379e-10
0.0002263
0.000445103
1.17577e-10
0.000476974
1.25454e-10
0.00164481
-9.24951e-06
2.4176e-12
0.00167095
3.49144e-05
1.10601e-11
0.00116639
0.000599593
6.37132e-11
0.00124736
0.000688336
3.37531e-11
0.00123383
0.000518408
2.04806e-11
0.00122833
0.000512263
2.42889e-11
0.00122259
0.000512674
1.84215e-11
0.00119018
0.000485783
3.18017e-12
0.00116307
0.00044917
-9.32023e-12
0.00115442
0.000418618
-1.79555e-11
0.00121838
0.000413203
-3.97089e-11
0.00128243
0.000417282
-1.65652e-11
0.00128019
0.000410533
-1.54758e-11
0.00122538
0.000392457
-2.48032e-11
0.00113606
0.000377084
-7.89694e-11
0.00100723
0.000366123
-9.07427e-11
0.000898524
0.000368084
-1.06409e-10
0.000807862
0.000388242
-8.39156e-11
0.000741164
0.000418837
-5.0803e-11
0.000679357
0.000449249
-4.70481e-13
0.000619927
0.000479148
5.8151e-11
0.000541003
0.000505891
7.05372e-11
0.000416366
0.00053238
8.92831e-11
0.000236563
0.000563697
9.95079e-11
0.000610539
1.05117e-10
0.00166674
-1.08678e-05
1.43627e-12
0.00170963
3.3874e-05
1.42119e-11
0.00125988
0.000589213
8.51125e-11
0.00130121
0.000875683
2.40628e-11
0.00127641
0.000654612
1.25249e-11
0.00125077
0.000624403
1.94125e-11
0.00122524
0.00061894
1.64671e-11
0.00119644
0.000583738
7.74668e-12
0.00117256
0.000537767
-1.3765e-11
0.00116596
0.00050272
-2.9217e-11
0.00122103
0.000493306
-7.75754e-11
0.00129294
0.000497935
-2.43021e-12
0.00129641
0.00049273
-6.83217e-12
0.00124412
0.000473239
-2.27246e-11
0.00116084
0.000454955
-8.13265e-11
0.00103301
0.000441411
-9.34751e-11
0.000923088
0.000440682
-9.85236e-11
0.000833464
0.000462831
-7.89976e-11
0.000768169
0.000500221
-5.18554e-11
0.000707249
0.00053892
9.69794e-13
0.000646517
0.000573565
4.18048e-11
0.000565075
0.000605939
6.62296e-11
0.000438263
0.0006437
7.81188e-11
0.000251027
0.00068916
8.11627e-11
0.000759973
8.67386e-11
0.00169265
-1.21169e-05
1.18202e-13
0.00175769
2.85702e-05
1.68763e-11
0.00139119
0.000517197
1.08012e-10
0.00137364
0.00108755
1.77188e-11
0.00132643
0.00080167
4.12624e-12
0.0012759
0.000748266
1.4134e-11
0.00123048
0.000725041
1.60895e-11
0.0012025
0.000682191
1.61123e-11
0.00118252
0.000626059
-8.43789e-12
0.00117987
0.000587977
-3.60788e-11
0.00122432
0.000572703
-6.14115e-11
0.00130434
0.000578288
-2.19102e-11
0.00131512
0.000575128
1.05209e-11
0.00126634
0.000554833
-1.28379e-11
0.00118947
0.000533814
-8.62848e-11
0.00106356
0.000517058
-9.40823e-11
0.000952372
0.000512979
-1.09987e-10
0.000864288
0.000536075
-8.8567e-11
0.000800806
0.000579209
-5.16217e-11
0.000742226
0.000624423
-5.14791e-12
0.000681104
0.000665232
3.57973e-11
0.000597143
0.000706153
5.99374e-11
0.000468911
0.000757749
6.52704e-11
0.00027405
0.00082374
6.35194e-11
0.000936328
6.92573e-11
0.0017211
-1.28641e-05
-1.46774e-12
0.00181732
2.07887e-05
1.51055e-11
0.00156105
0.00040533
1.02704e-10
0.0014588
0.00132864
1.75277e-11
0.00138699
0.000955955
-7.54153e-12
0.00130062
0.000883424
-1.60292e-12
0.00123296
0.000827327
1.17681e-11
0.00120738
0.00077709
1.61705e-11
0.00119348
0.000712515
-3.26015e-12
0.00119492
0.000673627
-3.11037e-11
0.00122756
0.000652533
-5.4264e-11
0.00131464
0.000658434
-3.98695e-11
0.00133577
0.000658242
1.69605e-11
0.0012922
0.000637037
7.65787e-12
0.0012209
0.000613404
-8.77251e-11
0.00109928
0.000592075
-3.8456e-11
0.000986626
0.00058595
-1.27814e-10
0.000900433
0.000607546
-8.79511e-11
0.000840388
0.000654171
-6.81969e-11
0.000784716
0.000705265
3.82976e-12
0.000722754
0.000753568
3.24151e-11
0.000640025
0.000803165
5.11352e-11
0.000511837
0.000873448
5.33776e-11
0.000311345
0.000968548
4.73166e-11
0.00115438
5.08954e-11
0.0017484
-1.23099e-05
-3.17282e-12
0.00186183
1.99647e-05
9.84308e-12
0.00173217
0.000339044
6.50791e-11
0.00152303
0.00157778
4.70098e-11
0.00143627
0.00111663
-2.26477e-11
0.00131651
0.00101331
-2.85895e-11
0.00123193
0.000915678
-2.52346e-12
0.0012121
0.000864983
1.36403e-11
0.00120689
0.000798433
-1.90025e-12
0.00121142
0.000760606
-2.05585e-11
0.00123261
0.000733369
-3.40683e-11
0.00132203
0.000738248
-1.74801e-11
0.00135551
0.000742238
1.09373e-11
0.00132135
0.000720744
-3.08455e-12
0.00125412
0.00069175
-7.43034e-11
0.00114158
0.000670028
-8.4164e-11
0.0010261
0.000658964
-9.63187e-11
0.000941966
0.000676698
-6.89127e-11
0.000883213
0.000724485
-5.32397e-11
0.000833727
0.00077991
-2.20305e-12
0.000773511
0.000835189
2.49979e-11
0.000694775
0.000895016
4.05475e-11
0.000572594
0.000986056
4.19484e-11
0.000378778
0.00111513
3.27771e-11
0.0014461
3.12558e-11
0.00177434
-3.45884e-12
-1.12987e-05
0.00187002
9.68516e-12
2.31031e-05
0.00173468
5.88984e-11
0.000310608
0.00155577
6.37502e-11
0.00175845
0.0014676
-4.7581e-11
0.00129111
0.00132141
-2.939e-11
0.00112017
0.0012313
-9.51875e-12
0.000987885
0.00121854
6.62828e-12
0.000944628
0.00122349
-1.28292e-12
0.000888074
0.00123002
-1.1555e-11
0.000851889
0.00124169
-2.28124e-11
0.000816495
0.00132685
2.72194e-12
0.000817813
0.00137269
8.0762e-12
0.000825418
0.00135159
-2.12821e-11
0.000805454
0.0012885
-7.66589e-11
0.000772598
0.001188
-9.02831e-11
0.000747209
0.00107089
-8.77607e-11
0.000731646
0.000988613
-5.88539e-11
0.000742783
0.000929912
-4.93677e-11
0.000788036
0.0008888
-3.83667e-12
0.000846667
0.000836281
1.70346e-11
0.000908257
0.000767282
3.00762e-11
0.000977063
0.000660545
3.20777e-11
0.00108574
0.00048738
2.17172e-11
0.00125167
9.20372e-12
0.00185315
0.00160189
-1.3574e-06
-1.76722e-11
0.0015994
9.69098e-06
1.70995e-10
0.00103636
0.000163744
9.0452e-10
0.00117398
0.000117388
-4.12789e-10
0.00115333
9.53896e-05
-1.77786e-10
0.00119197
9.67046e-05
-1.71289e-10
0.00122863
9.98392e-05
-7.67062e-11
0.00118501
9.84191e-05
5.92104e-11
0.00114731
9.15522e-05
-1.03915e-11
0.00113567
8.47862e-05
-3.70395e-11
0.00120857
8.39182e-05
-3.58247e-11
0.00125819
8.61231e-05
-3.77878e-11
0.00124385
8.37244e-05
-3.50687e-11
0.00118434
7.92053e-05
-2.91737e-11
0.00107951
7.48945e-05
-1.82973e-11
0.000949722
7.22093e-05
-6.3482e-12
0.000842099
7.33615e-05
2.75911e-11
0.000752815
7.85446e-05
7.08357e-11
0.000684782
8.41791e-05
9.9106e-11
0.000622356
8.89957e-05
1.25429e-10
0.000568111
9.47397e-05
1.01627e-10
0.000501092
0.000100777
4.53339e-11
0.000380032
0.000104569
-3.49644e-11
0.000213371
0.000109265
-6.21155e-11
0.000116732
-7.25356e-11
0.00160605
-3.57555e-06
-1.48657e-11
0.00160553
1.89118e-05
1.69912e-10
0.00104144
0.000320715
9.03251e-10
0.00117277
0.000240666
-4.18521e-10
0.00115696
0.000189419
-1.80896e-10
0.00119102
0.000195799
-1.59253e-10
0.00122079
0.000202001
-7.26983e-11
0.00117965
0.000196844
4.55876e-11
0.0011439
0.000182556
-1.63081e-11
0.0011338
0.000168981
-3.57899e-11
0.00120743
0.000167353
-3.55501e-11
0.00125962
0.000170209
-3.46962e-11
0.00124798
0.00016542
-2.90776e-11
0.00118984
0.000157243
-1.65567e-11
0.00108735
0.000149614
-1.10102e-11
0.000957656
0.000145013
-1.74369e-12
0.000849846
0.000147296
2.78617e-11
0.000759831
0.000157283
6.27887e-11
0.000691712
0.00016862
8.84108e-11
0.000628963
0.00017853
1.13778e-10
0.000573805
0.000190131
9.47194e-11
0.000504945
0.000202263
4.12528e-11
0.000382907
0.000210163
-3.12379e-11
0.000214796
0.000219327
-5.88744e-11
0.000233416
-6.89706e-11
0.0016144
-5.67112e-06
-1.49605e-11
0.00161908
2.67138e-05
1.65659e-10
0.00106382
0.00045377
9.04706e-10
0.00118549
0.000374325
-4.28412e-10
0.00117204
0.000288378
-1.8493e-10
0.00119374
0.000300286
-9.82576e-11
0.00121223
0.000302937
-5.88884e-11
0.00118029
0.000291939
-7.47714e-12
0.001148
0.000271968
-2.41573e-11
0.00113884
0.00025236
-3.31703e-11
0.00121109
0.000250541
-3.56456e-11
0.00126551
0.00025328
-3.25334e-11
0.00125608
0.000247033
-2.6206e-11
0.00119833
0.000235431
-1.19654e-11
0.0010989
0.000224991
-4.9309e-12
0.00096899
0.00021798
5.0682e-12
0.000861091
0.000221044
2.74088e-11
0.000770519
0.000235321
4.96085e-11
0.000702952
0.000252459
7.20002e-11
0.000640165
0.000268289
9.19854e-11
0.000583773
0.000285921
8.21242e-11
0.000511841
0.000303982
3.33545e-11
0.000389267
0.000316705
-2.35547e-11
0.0002192
0.000330673
-5.37297e-11
0.00035292
-6.51563e-11
0.00162729
-7.35775e-06
-1.84878e-11
0.00164082
3.23019e-05
1.57051e-10
0.00110399
0.00055057
9.02337e-10
0.00121054
0.000522267
-4.2456e-10
0.00119852
0.000397114
-2.01876e-10
0.00120914
0.000404717
-8.08637e-11
0.00121643
0.000406742
-5.98278e-11