/*--------------------------------*- C++ -*----------------------------------*\
| =========                 |                                                 |
| \\      /  F ield         | OpenFOAM: The Open Source CFD Toolbox           |
|  \\    /   O peration     | Version:  4.1                                   |
|   \\  /    A nd           | Web:      www.OpenFOAM.org                      |
|    \\/     M anipulation  |                                                 |
\*---------------------------------------------------------------------------*/
FoamFile
{
    version     2.0;
    format      ascii;
    class       volScalarField;
    location    "0.78";
    object      T;
}
// * * * * * * * * * * * * * * * * * * * * * * * * * * * * * * * * * * * * * //

dimensions      [0 0 0 1 0 0 0];

internalField   nonuniform List<scalar> 
52500
(
0.196278
0.809852
1.05363
1.08877
1.18017
1.25561
1.28237
1.28142
1.2731
1.26448
1.20399
1.08552
1.01947
1.0045
1.01481
1.05449
1.08643
1.08715
1.06826
1.05616
1.04997
1.04072
1.02185
0.998524
0.945912
0.197392
0.804202
1.0504
1.08972
1.18139
1.25681
1.28285
1.28099
1.27278
1.26418
1.2036
1.08514
1.01891
1.00356
1.01333
1.05249
1.08512
1.08641
1.06765
1.05509
1.04866
1.0393
1.02056
0.997517
0.944885
0.200617
0.792133
1.04248
1.09064
1.18161
1.25676
1.28358
1.28054
1.27273
1.26471
1.20622
1.08733
1.0189
1.00172
1.01021
1.04815
1.0829
1.0857
1.06761
1.05425
1.04742
1.03802
1.01942
0.997083
0.944053
0.20572
0.773111
1.02993
1.09189
1.18078
1.25369
1.28343
1.27975
1.27219
1.26587
1.21352
1.09394
1.02057
1.00061
1.00758
1.04366
1.08032
1.08517
1.06776
1.05311
1.04563
1.0362
1.01822
0.996778
0.944252
0.212309
0.74752
1.01184
1.09435
1.17989
1.2481
1.28279
1.2784
1.27083
1.266
1.22019
1.10259
1.02309
0.99884
1.00358
1.03657
1.07609
1.08401
1.06783
1.05162
1.04334
1.03393
1.0167
0.996859
0.944586
0.220778
0.715232
0.987905
1.0974
1.17834
1.24156
1.28211
1.27674
1.26835
1.26525
1.22755
1.11404
1.02663
0.996722
0.999033
1.02828
1.07072
1.08211
1.06757
1.04956
1.04031
1.03112
1.01451
0.996689
0.944764
0.231068
0.677742
0.95836
1.10114
1.17566
1.23448
1.28051
1.27547
1.26583
1.26405
1.23406
1.12664
1.03156
0.994621
0.994071
1.01797
1.0633
1.07881
1.06677
1.04736
1.03717
1.02737
1.01211
0.995957
0.943309
0.243213
0.638288
0.927065
1.10577
1.17112
1.22735
1.27803
1.27376
1.26294
1.26244
1.24029
1.14154
1.03857
0.993128
0.988587
1.00734
1.05373
1.0741
1.06567
1.04425
1.03216
1.02341
1.00776
0.993123
0.939669
0.25761
0.603643
0.909032
1.10953
1.16462
1.21827
1.27399
1.27143
1.26032
1.26099
1.24584
1.1582
1.04775
0.992997
0.983148
0.996585
1.04093
1.06775
1.06306
1.04184
1.02722
1.01913
1.00331
0.987938
0.930232
0.272835
0.573665
0.904818
1.11292
1.15666
1.20756
1.26699
1.26739
1.25869
1.2602
1.25007
1.1754
1.05909
0.993871
0.977666
0.986642
1.02676
1.05981
1.05894
1.04009
1.02271
1.01107
0.994624
0.976011
0.907157
0.19626
0.809911
1.05367
1.08878
1.1802
1.25565
1.28238
1.28144
1.27312
1.26446
1.20384
1.08545
1.01948
1.00452
1.01482
1.05447
1.08643
1.08715
1.06826
1.05618
1.04999
1.04071
1.0218
0.998449
0.945884
0.197393
0.804249
1.05045
1.08969
1.18131
1.25666
1.28274
1.28088
1.27269
1.26423
1.2041
1.08556
1.01906
1.00353
1.01324
1.05233
1.08506
1.08639
1.06767
1.0551
1.04867
1.03929
1.02051
0.997444
0.944854
0.200613
0.79218
1.04253
1.09062
1.18156
1.25662
1.28345
1.28041
1.27265
1.2648
1.20683
1.08781
1.01914
1.00185
1.01032
1.0482
1.08294
1.08572
1.06762
1.05427
1.04743
1.03801
1.01937
0.997016
0.94402
0.205704
0.77316
1.02998
1.09189
1.18077
1.25364
1.28335
1.27968
1.27212
1.26583
1.21365
1.09415
1.02073
1.00079
1.00779
1.04391
1.08044
1.0852
1.06774
1.05311
1.04563
1.0362
1.01818
0.996722
0.944224
0.212293
0.747564
1.01187
1.09434
1.17989
1.2481
1.28277
1.27837
1.2708
1.26598
1.21993
1.10218
1.02292
0.998798
1.0036
1.03667
1.07616
1.08403
1.06781
1.05162
1.04334
1.03391
1.01667
0.996811
0.944554
0.220761
0.715272
0.987932
1.09739
1.17834
1.24154
1.28208
1.27671
1.26834
1.2652
1.2273
1.1137
1.02651
0.996769
0.999146
1.02843
1.07074
1.08208
1.06753
1.04955
1.0403
1.03111
1.01448
0.996644
0.944737
0.231053
0.677771
0.958378
1.10112
1.17565
1.23445
1.28047
1.27542
1.26581
1.26398
1.23373
1.12607
1.03138
0.994846
0.994443
1.01856
1.06363
1.07891
1.06675
1.04733
1.03715
1.02735
1.01208
0.995915
0.943289
0.243198
0.638305
0.927065
1.10574
1.17111
1.22732
1.27799
1.27371
1.26291
1.26239
1.23996
1.14077
1.03828
0.993381
0.989073
1.00801
1.05427
1.07431
1.06571
1.04421
1.03214
1.0234
1.00772
0.993081
0.939655
0.257597
0.60365
0.909014
1.10951
1.16461
1.21825
1.27397
1.2714
1.26029
1.26097
1.24562
1.15753
1.04748
0.993169
0.983539
0.99707
1.04138
1.06793
1.06312
1.0418
1.02721
1.01913
1.00328
0.987895
0.930224
0.272825
0.573667
0.9048
1.1129
1.15665
1.20754
1.26698
1.26737
1.25867
1.26021
1.24995
1.17491
1.05891
0.993965
0.977877
0.986875
1.02698
1.0599
1.05897
1.04004
1.02267
1.01106
0.994594
0.975965
0.907153
0.196268
0.809868
1.05364
1.08877
1.18018
1.25562
1.28236
1.28141
1.27309
1.26441
1.20366
1.08531
1.01947
1.00462
1.01497
1.05466
1.08651
1.08717
1.06825
1.05616
1.04997
1.0407
1.0218
0.998467
0.945908
0.197387
0.804214
1.05041
1.08971
1.18137
1.25677
1.28281
1.28095
1.27274
1.26413
1.20348
1.08509
1.01897
1.00367
1.01347
1.05262
1.08518
1.08643
1.06764
1.05508
1.04865
1.03928
1.02051
0.997462
0.944878
0.200612
0.792144
1.04249
1.09063
1.18159
1.25671
1.28353
1.28049
1.27268
1.26469
1.20627
1.08741
1.01898
1.00178
1.01027
1.04819
1.08293
1.08571
1.06761
1.05426
1.04741
1.038
1.01937
0.997034
0.944043
0.205711
0.773121
1.02994
1.09189
1.18077
1.25365
1.28339
1.27972
1.27214
1.26583
1.21363
1.09413
1.02068
1.00074
1.00774
1.04385
1.08041
1.0852
1.06775
1.0531
1.04562
1.03619
1.01818
0.996739
0.944246
0.2123
0.747526
1.01184
1.09434
1.17988
1.24808
1.28277
1.27839
1.2708
1.26602
1.2202
1.10252
1.02305
0.998818
1.00357
1.03657
1.07611
1.08402
1.06782
1.05162
1.04333
1.03391
1.01667
0.996828
0.944576
0.220769
0.715235
0.987899
1.09739
1.17833
1.24154
1.28209
1.27672
1.26833
1.26523
1.22767
1.11432
1.02674
0.996679
0.99895
1.02814
1.07064
1.08208
1.06756
1.04956
1.0403
1.0311
1.01448
0.996661
0.944757
0.23106
0.677741
0.958347
1.10113
1.17565
1.23445
1.28049
1.27545
1.26581
1.264
1.23408
1.12681
1.03164
0.994633
0.994074
1.01798
1.06328
1.07879
1.06676
1.04735
1.03716
1.02735
1.01208
0.99593
0.943309
0.243205
0.638282
0.927045
1.10575
1.17111
1.22733
1.27801
1.27374
1.26291
1.26241
1.24023
1.1414
1.03849
0.99315
0.988655
1.00748
1.05387
1.07416
1.06569
1.04423
1.03215
1.02339
1.00773
0.993094
0.939673
0.257604
0.603636
0.909012
1.10951
1.16461
1.21825
1.27398
1.27142
1.2603
1.261
1.2458
1.15797
1.0476
0.993
0.983226
0.996701
1.04108
1.06783
1.0631
1.04183
1.02722
1.01912
1.00328
0.987906
0.930239
0.272831
0.573657
0.904799
1.1129
1.15665
1.20754
1.26698
1.26739
1.25869
1.26024
1.25006
1.17515
1.05893
0.993859
0.977722
0.986713
1.02685
1.05987
1.05898
1.04008
1.02268
1.01106
0.994595
0.975973
0.907165
0.196264
0.809868
1.05363
1.08876
1.18018
1.25562
1.28236
1.28141
1.27309
1.26441
1.20365
1.0853
1.01947
1.00462
1.01499
1.05468
1.08653
1.08718
1.06824
1.05616
1.04996
1.04069
1.02179
0.998446
0.945886
0.197385
0.804213
1.0504
1.08971
1.18137
1.25676
1.28281
1.28094
1.27274
1.26413
1.2035
1.08511
1.01897
1.00367
1.01347
1.05263
1.0852
1.08644
1.06764
1.05508
1.04865
1.03928
1.02049
0.997442
0.944857
0.200609
0.792143
1.04248
1.09063
1.18158
1.2567
1.28352
1.28049
1.27269
1.2647
1.20632
1.08745
1.01902
1.00184
1.01034
1.04828
1.08298
1.08572
1.06761
1.05425
1.04741
1.03799
1.01936
0.997015
0.944023
0.205709
0.773118
1.02993
1.09188
1.18077
1.25365
1.28338
1.27971
1.27213
1.26583
1.21372
1.09423
1.02074
1.00075
1.00773
1.04384
1.08043
1.08521
1.06775
1.0531
1.04561
1.03618
1.01817
0.996722
0.944228
0.212298
0.747521
1.01183
1.09434
1.17988
1.24808
1.28276
1.27837
1.27078
1.266
1.22018
1.1025
1.02301
0.998749
1.00349
1.03652
1.0761
1.08403
1.06783
1.05162
1.04333
1.0339
1.01666
0.996814
0.94456
0.220768
0.715228
0.987889
1.09739
1.17833
1.24154
1.28209
1.27672
1.26833
1.26522
1.22755
1.11408
1.02663
0.996707
0.999022
1.02823
1.07066
1.08207
1.06755
1.04955
1.0403
1.0311
1.01447
0.996648
0.944743
0.231061
0.67773
0.958334
1.10112
1.17565
1.23445
1.28049
1.27545
1.26582
1.264
1.23396
1.12649
1.03153
0.994756
0.994276
1.01831
1.0635
1.07889
1.06677
1.04734
1.03715
1.02735
1.01207
0.99592
0.943297
0.243208
0.638269
0.92703
1.10574
1.17111
1.22733
1.27801
1.27374
1.26292
1.26241
1.24014
1.14117
1.03843
0.993269
0.988851
1.00773
1.0541
1.07427
1.06572
1.04423
1.03214
1.02339
1.00772
0.993087
0.939664
0.257607
0.603624
0.909006
1.1095
1.1646
1.21825
1.27398
1.27142
1.26031
1.261
1.24576
1.15787
1.04761
0.993058
0.98331
0.996792
1.04116
1.06787
1.06312
1.04183
1.02721
1.01912
1.00328
0.987901
0.930233
0.272836
0.573645
0.904793
1.1129
1.15664
1.20754
1.26698
1.26739
1.25869
1.26023
1.25004
1.17517
1.059
0.993871
0.977684
0.98665
1.02678
1.05983
1.05895
1.04007
1.02268
1.01106
0.99459
0.97597
0.907162
0.196281
0.809793
1.05359
1.08877
1.18018
1.25561
1.28235
1.28139
1.27308
1.26441
1.20368
1.08532
1.01948
1.00462
1.01498
1.05467
1.08651
1.08716
1.06823
1.05615
1.04995
1.04068
1.02179
0.998457
0.945893
0.197399
0.804138
1.05035
1.08971
1.18137
1.25676
1.2828
1.28092
1.27273
1.26414
1.20351
1.08512
1.01898
1.00367
1.01347
1.05262
1.08518
1.08642
1.06764
1.05507
1.04863
1.03927
1.0205
0.997451
0.944867
0.200624
0.792067
1.04243
1.09063
1.18158
1.2567
1.28352
1.28047
1.27268
1.2647
1.20632
1.08745
1.01902
1.00184
1.01035
1.04827
1.08296
1.08571
1.0676
1.05424
1.0474
1.03798
1.01936
0.997024
0.944033
0.205726
0.773041
1.02988
1.09189
1.18077
1.25364
1.28338
1.2797
1.27213
1.26585
1.2137
1.09415
1.02071
1.00073
1.00771
1.04382
1.0804
1.08519
1.06774
1.05309
1.0456
1.03617
1.01817
0.996725
0.944237
0.212316
0.747446
1.01178
1.09435
1.17988
1.24806
1.28275
1.27835
1.27078
1.26596
1.22024
1.10271
1.02312
0.998789
1.00352
1.03652
1.07609
1.08402
1.06782
1.05161
1.04332
1.03389
1.01665
0.996811
0.944576
0.220786
0.715154
0.987836
1.0974
1.17832
1.24152
1.28208
1.27671
1.26831
1.26522
1.22748
1.11393
1.02657
0.996691
0.999015
1.02823
1.07064
1.08206
1.06754
1.04954
1.04029
1.03108
1.01446
0.996645
0.944758
0.231079
0.677663
0.958287
1.10113
1.17564
1.23444
1.28049
1.27545
1.26581
1.26403
1.23394
1.12633
1.03142
0.994718
0.99425
1.0183
1.0635
1.07888
1.06677
1.04734
1.03714
1.02734
1.01206
0.99592
0.943306
0.243227
0.638215
0.927001
1.10576
1.1711
1.22732
1.27801
1.27374
1.26293
1.26242
1.24019
1.14126
1.03846
0.993272
0.988845
1.00772
1.05408
1.07426
1.06571
1.04422
1.03213
1.02337
1.00772
0.993093
0.939668
0.257626
0.603587
0.909016
1.10951
1.1646
1.21824
1.27397
1.27141
1.2603
1.26098
1.24578
1.15804
1.04773
0.993096
0.983315
0.996785
1.04114
1.06785
1.06311
1.04182
1.02721
1.01911
1.00328
0.98791
0.930232
0.272852
0.573614
0.904801
1.11291
1.15664
1.20753
1.26697
1.26738
1.25868
1.26019
1.25003
1.1754
1.05917
0.993929
0.977695
0.986647
1.02676
1.05982
1.05894
1.04006
1.02268
1.01106
0.994599
0.975986
0.907158
0.196275
0.809814
1.0536
1.08876
1.18017
1.25562
1.28235
1.2814
1.27308
1.2644
1.20363
1.08529
1.01947
1.00463
1.01499
1.05469
1.08653
1.08718
1.06824
1.05615
1.04995
1.04069
1.02179
0.998454
0.945893
0.197394
0.804159
1.05037
1.08971
1.18137
1.25676
1.2828
1.28092
1.27273
1.26413
1.20349
1.0851
1.01897
1.00367
1.01348
1.05264
1.0852
1.08643
1.06764
1.05507
1.04864
1.03927
1.0205
0.997449
0.944864
0.200619
0.792088
1.04244
1.09063
1.18158
1.2567
1.28352
1.28047
1.27268
1.26469
1.20631
1.08744
1.01902
1.00184
1.01035
1.04829
1.08298
1.08572
1.0676
1.05424
1.0474
1.03799
1.01936
0.997022
0.94403
0.20572
0.773063
1.02989
1.09188
1.18077
1.25364
1.28337
1.2797
1.27213
1.26585
1.21369
1.09414
1.0207
1.00073
1.00772
1.04384
1.08042
1.0852
1.06774
1.0531
1.04561
1.03618
1.01817
0.996728
0.944235
0.21231
0.747467
1.01179
1.09434
1.17988
1.24807
1.28275
1.27835
1.27078
1.26596
1.22023
1.1027
1.02312
0.998787
1.00352
1.03653
1.07611
1.08403
1.06783
1.05162
1.04333
1.0339
1.01666
0.996818
0.944566
0.22078
0.715175
0.987849
1.09739
1.17833
1.24152
1.28208
1.27671
1.26831
1.26522
1.22747
1.11392
1.02656
0.996689
0.999014
1.02824
1.07066
1.08207
1.06755
1.04955
1.04029
1.03109
1.01447
0.996652
0.944749
0.231073
0.677683
0.958299
1.10113
1.17564
1.23445
1.28049
1.27545
1.26581
1.26403
1.23393
1.12631
1.03141
0.994716
0.994251
1.0183
1.06351
1.07889
1.06678
1.04734
1.03715
1.02734
1.01207
0.995924
0.943303
0.24322
0.638231
0.927008
1.10575
1.1711
1.22732
1.27801
1.27375
1.26293
1.26242
1.24018
1.14124
1.03845
0.993271
0.988848
1.00772
1.05409
1.07427
1.06573
1.04423
1.03214
1.02339
1.00772
0.993091
0.93967
0.25762
0.603599
0.909012
1.10951
1.1646
1.21824
1.27398
1.27142
1.2603
1.26097
1.24577
1.15803
1.04771
0.993093
0.983316
0.996787
1.04115
1.06787
1.06312
1.04183
1.02721
1.01912
1.00328
0.987903
0.930238
0.272846
0.573624
0.904798
1.1129
1.15664
1.20753
1.26697
1.26738
1.25868
1.26019
1.25003
1.17538
1.05916
0.993923
0.977692
0.986645
1.02676
1.05983
1.05895
1.04007
1.02268
1.01106
0.99459
0.975972
0.907166
0.196264
0.809868
1.05363
1.08876
1.18018
1.25562
1.28236
1.28141
1.27309
1.26441
1.20365
1.0853
1.01947
1.00462
1.01499
1.05468
1.08653
1.08718
1.06824
1.05616
1.04996
1.04069
1.02179
0.998446
0.945886
0.197385
0.804214
1.0504
1.08971
1.18137
1.25676
1.28281
1.28094
1.27274
1.26413
1.2035
1.08511
1.01897
1.00367
1.01347
1.05263
1.0852
1.08644
1.06764
1.05508
1.04865
1.03928
1.02049
0.997442
0.944857
0.200609
0.792143
1.04248
1.09063
1.18158
1.2567
1.28352
1.28049
1.27269
1.2647
1.20632
1.08745
1.01902
1.00184
1.01034
1.04828
1.08298
1.08572
1.06761
1.05425
1.04741
1.03799
1.01936
0.997015
0.944023
0.205709
0.773119
1.02993
1.09188
1.18077
1.25365
1.28338
1.27971
1.27213
1.26583
1.21372
1.09423
1.02074
1.00075
1.00773
1.04384
1.08043
1.08521
1.06775
1.0531
1.04561
1.03618
1.01817
0.996722
0.944228
0.212298
0.747521
1.01183
1.09434
1.17988
1.24808
1.28276
1.27837
1.27078
1.266
1.22018
1.1025
1.02301
0.998749
1.00349
1.03652
1.0761
1.08403
1.06783
1.05162
1.04333
1.0339
1.01666
0.996814
0.94456
0.220768
0.715228
0.987889
1.09739
1.17833
1.24154
1.28209
1.27672
1.26833
1.26522
1.22755
1.11408
1.02663
0.996707
0.999022
1.02823
1.07066
1.08207
1.06755
1.04955
1.0403
1.0311
1.01447
0.996648
0.944743
0.231061
0.67773
0.958334
1.10112
1.17565
1.23445
1.28049
1.27545
1.26582
1.264
1.23396
1.12649
1.03153
0.994756
0.994276
1.01831
1.0635
1.07889
1.06677
1.04734
1.03715
1.02735
1.01207
0.99592
0.943297
0.243208
0.638269
0.92703
1.10574
1.17111
1.22733
1.27801
1.27374
1.26292
1.26241
1.24014
1.14117
1.03843
0.993269
0.988851
1.00773
1.0541
1.07427
1.06572
1.04423
1.03214
1.02339
1.00772
0.993087
0.939664
0.257607
0.603624
0.909006
1.1095
1.1646
1.21825
1.27398
1.27142
1.26031
1.261
1.24576
1.15787
1.04761
0.993058
0.98331
0.996792
1.04116
1.06787
1.06312
1.04183
1.02721
1.01912
1.00328
0.987901
0.930233
0.272836
0.573645
0.904793
1.1129
1.15664
1.20754
1.26698
1.26739
1.25869
1.26023
1.25004
1.17517
1.059
0.993871
0.977684
0.98665
1.02678
1.05983
1.05895
1.04007
1.02268
1.01106
0.99459
0.97597
0.907162
0.196268
0.809868
1.05364
1.08877
1.18018
1.25562
1.28236
1.28141
1.27309
1.26441
1.20366
1.08531
1.01947
1.00462
1.01497
1.05466
1.08651
1.08717
1.06825
1.05616
1.04997
1.0407
1.0218
0.998467
0.945908
0.197387
0.804214
1.05041
1.08971
1.18137
1.25677
1.28281
1.28095
1.27274
1.26413
1.20348
1.08509
1.01897
1.00367
1.01347
1.05262
1.08518
1.08643
1.06764
1.05508
1.04865
1.03928
1.02051
0.997462
0.944878
0.200612
0.792144
1.04249
1.09063
1.18159
1.25671
1.28353
1.28049
1.27268
1.26469
1.20627
1.08741
1.01898
1.00178
1.01027
1.04819
1.08293
1.08571
1.06761
1.05426
1.04741
1.038
1.01937
0.997034
0.944043
0.205711
0.773121
1.02994
1.09189
1.18077
1.25365
1.28339
1.27972
1.27214
1.26583
1.21363
1.09413
1.02068
1.00074
1.00774
1.04385
1.08041
1.0852
1.06775
1.0531
1.04562
1.03619
1.01818
0.996739
0.944246
0.2123
0.747526
1.01184
1.09434
1.17988
1.24808
1.28277
1.27839
1.2708
1.26602
1.2202
1.10252
1.02305
0.998818
1.00357
1.03657
1.07611
1.08402
1.06782
1.05162
1.04333
1.03391
1.01667
0.996828
0.944576
0.220769
0.715235
0.987899
1.09739
1.17833
1.24154
1.28209
1.27672
1.26833
1.26523
1.22767
1.11432
1.02674
0.996679
0.99895
1.02814
1.07064
1.08208
1.06756
1.04956
1.0403
1.0311
1.01448
0.996661
0.944757
0.23106
0.677741
0.958347
1.10113
1.17565
1.23445
1.28049
1.27545
1.26581
1.264
1.23408
1.12681
1.03164
0.994633
0.994074
1.01798
1.06328
1.07879
1.06676
1.04735
1.03716
1.02735
1.01208
0.99593
0.943309
0.243205
0.638282
0.927045
1.10575
1.17111
1.22733
1.27801
1.27374
1.26291
1.26241
1.24023
1.1414
1.03849
0.99315
0.988655
1.00748
1.05387
1.07416
1.06569
1.04423
1.03215
1.02339
1.00773
0.993094
0.939673
0.257604
0.603636
0.909012
1.10951
1.16461
1.21825
1.27398
1.27142
1.2603
1.261
1.2458
1.15797
1.0476
0.993
0.983226
0.996701
1.04108
1.06783
1.0631
1.04183
1.02722
1.01912
1.00328
0.987906
0.930239
0.272831
0.573657
0.904799
1.1129
1.15665
1.20754
1.26698
1.26739
1.25869
1.26024
1.25006
1.17515
1.05893
0.993859
0.977722
0.986713
1.02685
1.05987
1.05898
1.04008
1.02268
1.01106
0.994595
0.975973
0.907165
0.19626
0.809911
1.05367
1.08878
1.1802
1.25565
1.28238
1.28144
1.27312
1.26446
1.20384
1.08545
1.01948
1.00452
1.01482
1.05447
1.08643
1.08715
1.06826
1.05618
1.04999
1.04071
1.0218
0.998449
0.945884
0.197393
0.804249
1.05045
1.08969
1.18131
1.25666
1.28274
1.28088
1.27269
1.26423
1.20411
1.08556
1.01906
1.00353
1.01324
1.05233
1.08506
1.08639
1.06767
1.0551
1.04867
1.03929
1.02051
0.997444
0.944854
0.200613
0.792181
1.04253
1.09062
1.18156
1.25662
1.28345
1.28041
1.27265
1.2648
1.20683
1.08781
1.01914
1.00185
1.01032
1.0482
1.08294
1.08572
1.06762
1.05427
1.04743
1.03801
1.01937
0.997017
0.94402
0.205704
0.77316
1.02998
1.09189
1.18077
1.25364
1.28335
1.27968
1.27212
1.26583
1.21365
1.09415
1.02073
1.00079
1.00779
1.04391
1.08044
1.0852
1.06774
1.05311
1.04563
1.0362
1.01818
0.996722
0.944224
0.212293
0.747564
1.01187
1.09434
1.17989
1.2481
1.28277
1.27837
1.2708
1.26598
1.21993
1.10218
1.02292
0.998799
1.0036
1.03667
1.07616
1.08403
1.06781
1.05162
1.04334
1.03391
1.01667
0.996811
0.944555
0.220761
0.715272
0.987932
1.09739
1.17834
1.24154
1.28208
1.27671
1.26834
1.2652
1.2273
1.1137
1.02651
0.996769
0.999146
1.02843
1.07074
1.08208
1.06753
1.04955
1.0403
1.03111
1.01448
0.996644
0.944737
0.231053
0.677771
0.958378
1.10112
1.17565
1.23445
1.28047
1.27542
1.26581
1.26398
1.23373
1.12607
1.03138
0.994846
0.994443
1.01856
1.06362
1.07891
1.06675
1.04733
1.03715
1.02735
1.01208
0.995915
0.943289
0.243198
0.638304
0.927065
1.10574
1.17111
1.22732
1.27799
1.27371
1.26291
1.26239
1.23996
1.14077
1.03828
0.993381
0.989073
1.00801
1.05427
1.07431
1.06571
1.04421
1.03214
1.0234
1.00772
0.993081
0.939655
0.257597
0.60365
0.909014
1.10951
1.16461
1.21825
1.27397
1.2714
1.26029
1.26097
1.24562
1.15753
1.04748
0.993169
0.983539
0.99707
1.04138
1.06793
1.06312
1.0418
1.02721
1.01913
1.00328
0.987895
0.930224
0.272825
0.573667
0.9048
1.1129
1.15665
1.20754
1.26698
1.26737
1.25867
1.26021
1.24995
1.17491
1.05891
0.993965
0.977876
0.986875
1.02698
1.0599
1.05897
1.04004
1.02267
1.01106
0.994594
0.975966
0.907154
0.196264
0.809929
1.05368
1.08877
1.18019
1.25565
1.2824
1.28147
1.27314
1.26441
1.20354
1.08518
1.01936
1.00451
1.01485
1.05455
1.08644
1.08713
1.06824
1.05617
1.05
1.04077
1.02194
0.998569
0.945806
0.197382
0.804276
1.05045
1.08972
1.1814
1.25682
1.28286
1.28101
1.2728
1.26417
1.20349
1.08511
1.01892
1.00358
1.01334
1.05247
1.0851
1.08638
1.06764
1.0551
1.04869
1.03935
1.02064
0.997563
0.944785
0.200609
0.792206
1.04253
1.09063
1.1816
1.25675
1.28357
1.28052
1.2727
1.2648
1.20675
1.08779
1.01909
1.00174
1.01016
1.04802
1.08283
1.08566
1.06761
1.05427
1.04745
1.03807
1.0195
0.997129
0.943959
0.205709
0.773182
1.02999
1.09189
1.18078
1.25367
1.2834
1.27972
1.27213
1.26591
1.21426
1.09475
1.02078
1.00048
1.00736
1.04343
1.08023
1.08514
1.06776
1.05312
1.04565
1.03625
1.01829
0.996823
0.944163
0.212296
0.747586
1.01189
1.09435
1.1799
1.24811
1.28278
1.27837
1.27079
1.26599
1.22037
1.10284
1.02306
0.998619
1.00329
1.03619
1.07588
1.08393
1.06783
1.05164
1.04336
1.03395
1.01676
0.996899
0.944511
0.220763
0.715294
0.987949
1.0974
1.17836
1.24158
1.28213
1.27676
1.26836
1.26525
1.22738
1.11363
1.02645
0.996792
0.999183
1.02848
1.07074
1.08209
1.06755
1.04956
1.04031
1.03113
1.01455
0.996722
0.944705
0.231054
0.677795
0.958395
1.10113
1.17567
1.23451
1.28054
1.2755
1.26587
1.26408
1.2338
1.12597
1.03135
0.994926
0.994547
1.01866
1.06367
1.07893
1.06677
1.04734
1.03716
1.02737
1.01213
0.995978
0.943272
0.2432
0.638326
0.927083
1.10575
1.17114
1.22737
1.27805
1.27378
1.26297
1.26246
1.24009
1.14102
1.03845
0.993432
0.989057
1.00794
1.05423
1.07431
1.06572
1.04421
1.03214
1.0234
1.00776
0.99313
0.939647
0.257598
0.603666
0.909022
1.10953
1.16463
1.21829
1.27401
1.27144
1.26033
1.26099
1.24573
1.158
1.04781
0.993165
0.983365
0.996795
1.04112
1.06784
1.0631
1.04181
1.0272
1.01912
1.00331
0.98794
0.93022
0.272826
0.573683
0.90481
1.11291
1.15667
1.20757
1.26701
1.26739
1.25869
1.26018
1.25
1.17538
1.05923
0.993922
0.977614
0.986518
1.02658
1.05972
1.05888
1.04005
1.02268
1.01106
0.99461
0.976004
0.907154
0.288237
0.543863
0.897159
1.11453
1.14652
1.1957
1.2555
1.2638
1.25753
1.26004
1.25282
1.19225
1.07255
0.996156
0.971792
0.976047
1.01006
1.0497
1.05413
1.0379
1.01484
1.0027
0.984007
0.959236
0.846906
0.302999
0.512494
0.887543
1.11519
1.13499
1.1829
1.24175
1.26029
1.25774
1.26028
1.25364
1.20643
1.08992
1.00157
0.966461
0.965505
0.989163
1.03403
1.04649
1.03541
1.01086
0.992687
0.969841
0.94657
0.850615
0.317106
0.487851
0.866809
1.10904
1.11243
1.17676
1.22625
1.25428
1.26009
1.25995
1.2524
1.21907
1.11173
1.00998
0.963918
0.957892
0.974927
1.02051
1.03909
1.03294
1.00751
0.988951
0.958878
0.938004
0.868164
0.329939
0.462516
0.818246
1.07195
1.09484
1.17159
1.20999
1.24955
1.26204
1.25822
1.24995
1.22621
1.13594
1.02538
0.963956
0.948402
0.9571
0.996813
1.02697
1.02728
1.00729
0.982756
0.952776
0.932747
0.892586
0.340756
0.440172
0.738509
0.979374
1.09482
1.16596
1.19815
1.24894
1.26108
1.2557
1.24815
1.23154
1.16046
1.04325
0.967014
0.940534
0.942918
0.973788
1.01165
1.01902
1.00644
0.982322
0.946042
0.927294
0.896741
0.351509
0.430918
0.661569
0.900404
1.10643
1.15806
1.18682
1.24429
1.25712
1.2532
1.24659
1.23354
1.18538
1.06599
0.975231
0.933964
0.928981
0.946576
0.991957
1.00914
1.00376
0.983744
0.948038
0.921689
0.89991
0.36412
0.428996
0.604391
0.884458
1.12335
1.14714
1.17414
1.23094
1.25074
1.25001
1.24408
1.23335
1.20074
1.09599
0.990953
0.933199
0.917288
0.925145
0.964714
0.996601
0.997807
0.985777
0.954012
0.923156
0.90009
0.377993
0.426133
0.559631
0.863944
1.13319
1.12742
1.16298
1.21072
1.24124
1.24528
1.24181
1.23327
1.21089
1.12884
1.01082
0.937731
0.908614
0.908717
0.933018
0.974978
0.987215
0.98318
0.962823
0.929573
0.902634
0.389587
0.417967
0.516057
0.818216
1.11887
1.10561
1.15752
1.18928
1.22813
1.24002
1.23934
1.23458
1.22007
1.16173
1.03636
0.948065
0.903956
0.895496
0.90602
0.949255
0.976212
0.977497
0.968634
0.940118
0.90908
0.392361
0.40291
0.467879
0.727868
1.04057
1.08836
1.15513
1.17029
1.20614
1.23033
1.23643
1.23503
1.22535
1.1882
1.07475
0.967239
0.907315
0.884117
0.885722
0.911498
0.951702
0.965763
0.964188
0.951809
0.920263
0.381779
0.387047
0.432282
0.618306
0.896026
1.09265
1.14475
1.1517
1.18025
1.21993
1.23343
1.23447
1.22838
1.20481
1.11825
0.990291
0.915328
0.878565
0.87171
0.881442
0.921364
0.949668
0.954583
0.950303
0.935589
0.369548
0.372694
0.405841
0.538815
0.824822
1.11336
1.1225
1.13329
1.15911
1.20769
1.22874
1.23295
1.23034
1.21665
1.15718
1.03192
0.93418
0.882591
0.86046
0.860922
0.881162
0.924865
0.94336
0.944229
0.937995
0.359609
0.360931
0.383342
0.477294
0.747493
1.09444
1.08175
1.11838
1.14895
1.19063
1.21882
1.22949
1.22988
1.22334
1.1875
1.07651
0.959497
0.890722
0.858573
0.849446
0.855582
0.886933
0.919708
0.932813
0.932469
0.353479
0.34994
0.363947
0.423336
0.643854
0.954857
1.04298
1.11656
1.14032
1.17012
1.20647
1.22446
1.22882
1.22673
1.20881
1.12174
0.99802
0.908571
0.860903
0.841687
0.840556
0.852438
0.889935
0.913187
0.920365
0.348729
0.341191
0.350417
0.390267
0.536534
0.81726
1.05583
1.10947
1.12733
1.14734
1.18964
1.21735
1.22682
1.22744
1.22088
1.17366
1.04007
0.929608
0.867527
0.838069
0.828111
0.830612
0.848661
0.887822
0.905258
0.344937
0.334173
0.340221
0.366526
0.462488
0.718357
1.07475
1.07101
1.09466
1.13334
1.16931
1.20401
1.22225
1.22639
1.22507
1.20497
1.10222
0.967514
0.883275
0.840592
0.823499
0.818623
0.823244
0.844151
0.880212
0.342079
0.328826
0.332673
0.34925
0.405923
0.599832
0.941821
1.01633
1.08387
1.12121
1.14896
1.18447
1.21295
1.22356
1.22448
1.2182
1.1679
1.02304
0.910179
0.850285
0.820687
0.811541
0.810361
0.815983
0.836128
0.339917
0.324836
0.327344
0.338021
0.373498
0.500265
0.771133
1.02711
1.07165
1.09224
1.12589
1.16775
1.20079
1.21734
1.22244
1.22197
1.20267
1.10372
0.958842
0.871398
0.827091
0.804982
0.79988
0.800568
0.806649
0.338357
0.32185
0.323432
0.330114
0.351599
0.424681
0.638081
1.01378
1.02045
1.05946
1.10656
1.14374
1.18144
1.20777
1.21833
1.22108
1.21512
1.17005
1.03508
0.91433
0.844762
0.810191
0.7923
0.786584
0.787799
0.33724
0.319707
0.320748
0.325069
0.338365
0.380304
0.527198
0.820759
0.998619
1.04822
1.07971
1.11026
1.15735
1.19009
1.21057
1.2183
1.21794
1.20182
1.11965
0.977517
0.878127
0.824416
0.796394
0.779819
0.770903
0.336458
0.318204
0.318951
0.321745
0.329812
0.353997
0.437332
0.661713
1.00549
1.01607
1.04639
1.08675
1.1212
1.1688
1.19608
1.21206
1.21653
1.21204
1.17713
1.05727
0.939725
0.853398
0.807829
0.782824
0.76578
0.336007
0.317334
0.317958
0.319743
0.324574
0.33855
0.382849
0.537275
0.837602
0.98918
1.03132
1.06071
1.09048
1.12991
1.17517
1.20128
1.21243
1.21186
1.19939
1.14195
1.00324
0.90564
0.833002
0.792343
0.768232
0.336077
0.317051
0.317456
0.318417
0.321239
0.329356
0.353755
0.4379
0.661853
0.988979
1.00025
1.03097
1.06742
1.09368
1.14011
1.17959
1.20323
1.20918
1.2052
1.18185
1.09014
0.958549
0.875022
0.811965
0.775923
0.336588
0.316985
0.317185
0.317835
0.319561
0.324208
0.337579
0.379807
0.52818
0.815827
0.977409
1.01296
1.03909
1.0688
1.09319
1.14684
1.18362
1.20219
1.20279
1.19487
1.15544
1.0374
0.922949
0.852039
0.794586
0.336858
0.317053
0.317077
0.317384
0.318332
0.320943
0.328162
0.349806
0.424007
0.633581
0.957932
0.979689
1.0144
1.04415
1.0671
1.09637
1.15348
1.18638
1.19681
1.19391
1.17857
1.12015
0.98636
0.887953
0.826464
0.336969
0.317195
0.316903
0.317064
0.317594
0.319051
0.323015
0.334348
0.370127
0.498936
0.764145
0.96085
0.992637
1.0164
1.04593
1.06269
1.09986
1.1584
1.18486
1.18872
1.18275
1.15752
1.06867
0.939497
0.858831
0.337016
0.317267
0.31679
0.316873
0.31716
0.317948
0.320077
0.32589
0.343161
0.400436
0.582842
0.895048
0.959202
0.995859
1.01886
1.04295
1.0606
1.10357
1.15811
1.17824
1.17836
1.16844
1.12892
1.01836
0.902751
0.337019
0.3173
0.316719
0.31676
0.316907
0.317316
0.31842
0.321428
0.329927
0.356326
0.451334
0.68301
0.941826
0.967089
0.994174
1.02106
1.03705
1.05852
1.11245
1.15284
1.16661
1.16443
1.14934
1.09336
0.966532
0.337006
0.317323
0.316676
0.316693
0.316759
0.31696
0.317522
0.31906
0.323283
0.335647
0.375415
0.518149
0.77582
0.936716
0.971817
0.993449
1.01861
1.03081
1.05742
1.11791
1.14857
1.15403
1.14827
1.12396
1.04183
0.336999
0.317337
0.316641
0.316646
0.31668
0.316785
0.317064
0.317813
0.319862
0.325551
0.342816
0.40143
0.583442
0.868616
0.936833
0.97178
0.992901
1.01199
1.02497
1.05944
1.11451
1.13962
1.14159
1.13217
1.09431
0.337001
0.317333
0.316625
0.316629
0.316642
0.316687
0.316816
0.317171
0.318135
0.320795
0.328371
0.352252
0.439189
0.65502
0.902207
0.940707
0.968942
0.990772
1.00288
1.02002
1.06685
1.11006
1.12737
1.12703
1.1128
0.337002
0.317326
0.316626
0.316616
0.31662
0.31664
0.316697
0.316857
0.317297
0.318505
0.32188
0.331823
0.364154
0.485088
0.713299
0.902201
0.943824
0.965704
0.984376
0.99419
1.0177
1.07408
1.10807
1.11674
1.11205
0.337003
0.317323
0.316628
0.316609
0.316611
0.316618
0.316642
0.316711
0.316902
0.31743
0.3189
0.323039
0.335602
0.377353
0.523592
0.763573
0.901554
0.941924
0.961837
0.975043
0.988002
1.0224
1.07933
1.10442
1.10698
0.337003
0.317322
0.316629
0.316606
0.316607
0.316609
0.316618
0.316646
0.316725
0.316946
0.317556
0.319276
0.324174
0.339401
0.392161
0.557022
0.802341
0.902034
0.937567
0.955788
0.966085
0.9855
1.03639
1.08357
1.09654
0.337002
0.317322
0.316629
0.316604
0.316605
0.316606
0.316609
0.316619
0.316649
0.316736
0.316979
0.317663
0.319611
0.325241
0.343166
0.40737
0.588462
0.814961
0.901334
0.934718
0.948432
0.959691
0.989268
1.04919
1.08358
0.337002
0.317323
0.316629
0.316604
0.316604
0.316604
0.316605
0.316608
0.316619
0.316651
0.316743
0.317005
0.31775
0.319891
0.326158
0.346408
0.42102
0.603167
0.822599
0.90344
0.932745
0.940649
0.957416
1.00806
1.05837
0.337002
0.317323
0.316629
0.316604
0.316604
0.316604
0.316603
0.316604
0.316608
0.316619
0.316651
0.316747
0.317025
0.317817
0.320101
0.326845
0.348671
0.431711
0.598255
0.841263
0.908421
0.92365
0.932259
0.967593
1.03507
0.337002
0.317323
0.316629
0.316604
0.316604
0.316604
0.316603
0.316603
0.316604
0.316608
0.316619
0.316653
0.316754
0.317049
0.31788
0.320256
0.327281
0.35018
0.438114
0.602315
0.863136
0.897911
0.908894
0.945365
1.03244
0.337002
0.317323
0.316629
0.316604
0.316604
0.316604
0.316603
0.316603
0.316604
0.316605
0.31661
0.316624
0.316664
0.316784
0.317106
0.31796
0.320362
0.327433
0.350675
0.436954
0.622683
0.848371
0.875151
0.942277
1.09696
0.337002
0.317323
0.316629
0.316604
0.316604
0.316604
0.316603
0.316603
0.316603
0.316605
0.316608
0.316618
0.316643
0.31672
0.316878
0.317253
0.318212
0.320783
0.328088
0.352142
0.43972
0.641516
0.846064
0.946186
1.19521
0.288231
0.543861
0.897142
1.11451
1.1465
1.19568
1.25549
1.26379
1.25752
1.26005
1.25279
1.19201
1.07249
0.996183
0.971819
0.976057
1.01006
1.04968
1.05409
1.03786
1.0148
1.00268
0.983971
0.959197
0.846901
0.302997
0.512486
0.887531
1.11517
1.13496
1.18288
1.24175
1.26029
1.25773
1.26029
1.25365