/*--------------------------------*- C++ -*----------------------------------*\
| =========                 |                                                 |
| \\      /  F ield         | OpenFOAM: The Open Source CFD Toolbox           |
|  \\    /   O peration     | Version:  4.1                                   |
|   \\  /    A nd           | Web:      www.OpenFOAM.org                      |
|    \\/     M anipulation  |                                                 |
\*---------------------------------------------------------------------------*/
FoamFile
{
    version     2.0;
    format      ascii;
    class       volVectorField;
    location    "0.78";
    object      U;
}
// * * * * * * * * * * * * * * * * * * * * * * * * * * * * * * * * * * * * * //

dimensions      [0 1 -1 0 0 0 0];

internalField   nonuniform List<vector> 
52500
(
(1.98731 -0.000262034 -0.00131168)
(1.13965 0.0025868 -0.0053177)
(0.319927 0.0141301 -0.00736111)
(0.0471091 0.0111301 -0.00760238)
(0.333219 0.0120485 -0.00819917)
(0.366788 0.0134346 -0.00869678)
(0.356157 0.0146454 -0.00886266)
(0.360389 0.0154003 -0.00885297)
(0.385368 0.015724 -0.00878885)
(0.397615 0.015703 -0.00872141)
(0.396427 0.0157155 -0.00829006)
(0.399198 0.0154175 -0.0074791)
(0.404086 0.0148388 -0.00703006)
(0.405763 0.0143656 -0.00693124)
(0.401944 0.0141277 -0.00701357)
(0.384903 0.014539 -0.00730032)
(0.35232 0.015502 -0.00753583)
(0.314374 0.0168504 -0.00755829)
(0.282567 0.018024 -0.00744321)
(0.257816 0.0192531 -0.00737115)
(0.238519 0.0208709 -0.0073359)
(0.220244 0.0226664 -0.00728254)
(0.19306 0.0241345 -0.00717708)
(0.119829 0.025933 -0.00705147)
(0.048659 0.0267676 -0.00672951)
(1.98592 -0.00102998 -0.00131867)
(1.15287 0.00777078 -0.00527526)
(0.32623 0.0435404 -0.00731502)
(0.0437066 0.0319364 -0.00759389)
(0.333422 0.0322602 -0.00819073)
(0.36712 0.0350102 -0.00868557)
(0.356291 0.0371759 -0.00884596)
(0.359336 0.0379033 -0.00882911)
(0.383446 0.0371731 -0.0087663)
(0.395851 0.0356115 -0.00869978)
(0.395358 0.0346815 -0.00826883)
(0.398792 0.0333315 -0.00746021)
(0.404348 0.0319815 -0.00701112)
(0.406542 0.0312569 -0.00690977)
(0.403256 0.0309685 -0.00698771)
(0.386928 0.0318955 -0.00726942)
(0.354904 0.0337723 -0.00750775)
(0.31701 0.0364087 -0.00753264)
(0.284966 0.0386742 -0.00741748)
(0.260412 0.0412356 -0.00734102)
(0.241243 0.0448606 -0.0073025)
(0.222419 0.0487729 -0.00724693)
(0.194466 0.0513633 -0.00714152)
(0.120546 0.0541765 -0.00701728)
(0.0486902 0.0548861 -0.00669635)
(1.98201 -0.0019977 -0.00133908)
(1.18125 0.0125768 -0.00518792)
(0.340215 0.073354 -0.00723473)
(0.0395382 0.0545964 -0.00758331)
(0.335165 0.0541399 -0.00817332)
(0.370194 0.0598334 -0.00866469)
(0.359055 0.0632645 -0.00883138)
(0.360697 0.0644663 -0.0088043)
(0.384045 0.0636253 -0.00874393)
(0.39731 0.061226 -0.00868188)
(0.397784 0.0601294 -0.00826611)
(0.401146 0.0580358 -0.00745747)
(0.406674 0.0561414 -0.00699481)
(0.40874 0.0551736 -0.00688154)
(0.405589 0.0550051 -0.00694998)
(0.390103 0.0567835 -0.00722203)
(0.359145 0.0600903 -0.00747258)
(0.321753 0.0645235 -0.00750616)
(0.289678 0.0686299 -0.00739439)
(0.265682 0.0732326 -0.00731116)
(0.246914 0.0794593 -0.00726815)
(0.227134 0.0860485 -0.00721101)
(0.197895 0.0903919 -0.00710572)
(0.123172 0.0948566 -0.00698599)
(0.0495047 0.0955834 -0.0066641)
(1.97583 -0.00283756 -0.00137142)
(1.22326 0.0164221 -0.00505286)
(0.361185 0.0991793 -0.00712144)
(0.0351305 0.0780418 -0.00757332)
(0.337956 0.0768327 -0.00814653)
(0.374922 0.0848408 -0.00862135)
(0.362641 0.0889713 -0.00880793)
(0.362741 0.0901716 -0.00877645)
(0.385059 0.0887514 -0.00871816)
(0.399618 0.0853518 -0.00866815)
(0.401788 0.0838857 -0.00829462)
(0.404893 0.0806702 -0.00748352)
(0.410085 0.0779376 -0.00698935)
(0.411867 0.0764799 -0.00685789)
(0.409165 0.076309 -0.00691482)
(0.395089 0.0789253 -0.0071727)
(0.365668 0.0838114 -0.00743383)
(0.32907 0.090145 -0.00747975)
(0.297072 0.096483 -0.00737116)
(0.273849 0.103477 -0.00727759)
(0.255738 0.112587 -0.00722833)
(0.234803 0.122076 -0.00717012)
(0.203844 0.128861 -0.007068)
(0.127789 0.135601 -0.00695421)
(0.0509397 0.136769 -0.00663836)
(1.96781 -0.00366036 -0.00141308)
(1.27661 0.0188734 -0.00487332)
(0.389112 0.119847 -0.00696908)
(0.0324629 0.102934 -0.00756945)
(0.340756 0.101214 -0.00811727)
(0.380541 0.109607 -0.00856064)
(0.366997 0.114826 -0.00878087)
(0.364858 0.115696 -0.00874494)
(0.386068 0.113371 -0.00868689)
(0.402505 0.109461 -0.00864707)
(0.406498 0.107963 -0.00831859)
(0.409229 0.103504 -0.00752272)
(0.414227 0.0999317 -0.00698898)
(0.4157 0.0980616 -0.00682939)
(0.413441 0.0980111 -0.00686985)
(0.401052 0.101311 -0.00710527)
(0.373566 0.107543 -0.00738334)
(0.338236 0.115514 -0.00744821)
(0.306721 0.124126 -0.00734602)
(0.284548 0.1337 -0.00723988)
(0.267251 0.145602 -0.00718362)
(0.245076 0.157616 -0.0071248)
(0.212244 0.16728 -0.00702638)
(0.134533 0.177009 -0.00692318)
(0.0532495 0.179396 -0.00661154)
(1.95754 -0.00450647 -0.0014665)
(1.33799 0.0194434 -0.00465)
(0.424121 0.133202 -0.00677515)
(0.0350054 0.129497 -0.0075665)
(0.342322 0.12745 -0.00808188)
(0.386187 0.134507 -0.0084931)
(0.371985 0.14092 -0.00875448)
(0.36674 0.141118 -0.00871124)
(0.386895 0.137774 -0.00864808)
(0.405915 0.133714 -0.00861949)
(0.411901 0.132319 -0.00834692)
(0.414092 0.126682 -0.0075799)
(0.418986 0.122174 -0.00699517)
(0.420182 0.119762 -0.00679811)
(0.418475 0.119828 -0.00682067)
(0.407969 0.123619 -0.00702944)
(0.382783 0.131047 -0.00732483)
(0.349299 0.140741 -0.00741085)
(0.318896 0.151922 -0.00731732)
(0.29794 0.164425 -0.00719685)
(0.281255 0.179008 -0.00713272)
(0.258077 0.193682 -0.00707403)
(0.223785 0.207128 -0.0069778)
(0.144161 0.221169 -0.00688739)
(0.0569242 0.226349 -0.00658008)
(1.94515 -0.00523942 -0.00153124)
(1.4018 0.0176704 -0.00439384)
(0.466233 0.135631 -0.00653998)
(0.0458111 0.157861 -0.00756419)
(0.341089 0.155058 -0.00803777)
(0.390601 0.160266 -0.0084207)
(0.377284 0.167054 -0.00872129)
(0.368277 0.166558 -0.00868024)
(0.387599 0.16209 -0.0086092)
(0.409746 0.158256 -0.00858821)
(0.41769 0.156803 -0.00836948)
(0.419289 0.150197 -0.00764397)
(0.42428 0.144557 -0.00700991)
(0.425369 0.14154 -0.00676658)
(0.424205 0.141696 -0.00676835)
(0.415589 0.145571 -0.00694013)
(0.393166 0.154128 -0.00725239)
(0.362308 0.165667 -0.00736325)
(0.333728 0.179674 -0.00728378)
(0.313987 0.195025 -0.00715185)
(0.297928 0.212432 -0.00707941)
(0.274527 0.230595 -0.00701457)
(0.239672 0.249123 -0.00692435)
(0.158405 0.269541 -0.00684267)
(0.0633899 0.280752 -0.0065311)
(1.93075 -0.00580031 -0.00160756)
(1.45956 0.013791 -0.00412681)
(0.514893 0.12454 -0.00628674)
(0.0665435 0.188658 -0.00756287)
(0.335785 0.183288 -0.00797982)
(0.393217 0.187707 -0.00834783)
(0.382193 0.192785 -0.00868358)
(0.369444 0.191479 -0.00864751)
(0.38819 0.186168 -0.0085682)
(0.413894 0.182991 -0.00855397)
(0.423784 0.181243 -0.00839016)
(0.424896 0.174207 -0.00772251)
(0.430129 0.167255 -0.00703776)
(0.431386 0.163299 -0.00673875)
(0.43057 0.16346 -0.00671244)
(0.423821 0.166937 -0.00684888)
(0.404799 0.176777 -0.00716532)
(0.377323 0.19012 -0.00730552)
(0.351127 0.206958 -0.00724713)
(0.332715 0.224778 -0.00709984)
(0.317817 0.24549 -0.00701254)
(0.295436 0.268224 -0.006951)
(0.261497 0.293543 -0.00685352)
(0.180075 0.323762 -0.00677621)
(0.0752462 0.348018 -0.00645686)
(1.91411 -0.00595248 -0.00169831)
(1.50148 0.0112452 -0.00389997)
(0.567742 0.110068 -0.00611432)
(0.0953152 0.221955 -0.00755531)
(0.325111 0.211664 -0.00791075)
(0.393999 0.215407 -0.00826502)
(0.385439 0.217075 -0.00863871)
(0.370386 0.215285 -0.00861214)
(0.389219 0.209957 -0.00852892)
(0.41848 0.207884 -0.00852062)
(0.430304 0.205682 -0.00840605)
(0.431089 0.19898 -0.00781162)
(0.436268 0.190707 -0.00707911)
(0.438068 0.185301 -0.00671939)
(0.437529 0.184984 -0.00665735)
(0.432704 0.188044 -0.0067564)
(0.417706 0.198884 -0.00705668)
(0.394119 0.213883 -0.00723648)
(0.370746 0.233287 -0.00720031)
(0.354103 0.25344 -0.0070521)
(0.34159 0.277706 -0.00694513)
(0.322006 0.30605 -0.00688267)
(0.291804 0.340334 -0.00677642)
(0.215062 0.384302 -0.00668279)
(0.0985255 0.436281 -0.00632402)
(1.89651 -0.00568651 -0.00179411)
(1.53402 0.0117707 -0.00371234)
(0.629218 0.104131 -0.00606242)
(0.132056 0.257838 -0.00754962)
(0.308829 0.240695 -0.0078345)
(0.392658 0.240665 -0.0081771)
(0.387052 0.238405 -0.00857647)
(0.371944 0.237271 -0.00856696)
(0.391335 0.233721 -0.00849499)
(0.423578 0.233129 -0.00849087)
(0.437275 0.230481 -0.00841245)
(0.438072 0.224548 -0.00790344)
(0.44259 0.214982 -0.00713401)
(0.444982 0.207815 -0.00670619)
(0.445001 0.206237 -0.00660214)
(0.442266 0.208884 -0.00666927)
(0.431559 0.220132 -0.00693934)
(0.412396 0.236593 -0.00715706)
(0.392392 0.257913 -0.00714426)
(0.378251 0.280805 -0.00700824)
(0.3696 0.308387 -0.00687904)
(0.355484 0.342708 -0.00678696)
(0.333126 0.38835 -0.00666553)
(0.273196 0.453699 -0.00653237)
(0.144374 0.576569 -0.0060657)
(1.98733 -0.000266705 2.56877e-08)
(1.13952 0.00258453 -3.53401e-08)
(0.319877 0.0141552 -4.50453e-08)
(0.0471213 0.011174 1.42862e-07)
(0.33321 0.01208 1.25816e-07)
(0.366776 0.0134745 1.57277e-07)
(0.356133 0.0147096 1.71068e-07)
(0.360323 0.0154849 1.48434e-07)
(0.38525 0.0158047 1.31998e-07)
(0.397478 0.0157303 1.79296e-07)
(0.396314 0.0157057 4.6618e-08)
(0.399135 0.0153665 7.83979e-08)
(0.404082 0.0147902 6.45929e-08)
(0.405798 0.0143473 3.55398e-08)
(0.40199 0.0141349 2.88431e-08)
(0.384936 0.0145615 -6.7369e-08)
(0.35232 0.0155217 -1.55433e-07)
(0.314358 0.016863 -1.87124e-07)
(0.282542 0.0180305 -1.73952e-07)
(0.257786 0.0192579 -6.7291e-08)
(0.238519 0.0208737 5.61225e-08)
(0.220251 0.0226656 1.65237e-07)
(0.193038 0.024133 3.45274e-07)
(0.119812 0.0259327 4.16215e-07)
(0.0486618 0.0267706 4.46445e-07)
(1.98592 -0.00103313 1.23014e-08)
(1.15275 0.00777282 -3.80579e-08)
(0.326194 0.043567 -3.40865e-08)
(0.0438104 0.0319451 1.33259e-07)
(0.333459 0.0322475 1.09739e-07)
(0.367204 0.035002 1.50078e-07)
(0.356415 0.0371781 1.68828e-07)
(0.359512 0.0379005 1.47159e-07)
(0.383667 0.0371457 1.24771e-07)
(0.396162 0.0355466 1.4873e-07)
(0.395762 0.0346071 8.99471e-08)
(0.399178 0.0332494 7.75642e-08)
(0.404688 0.0319273 5.2254e-08)
(0.406802 0.0312359 2.76464e-08)
(0.403425 0.0309736 1.95475e-08)
(0.387021 0.0319144 -5.92409e-08)
(0.354933 0.0337954 -1.45687e-07)
(0.31701 0.0364323 -1.68911e-07)
(0.28495 0.0386949 -1.5593e-07)
(0.260384 0.0412583 -5.71609e-08)
(0.241239 0.0448777 6.64654e-08)
(0.222421 0.0487738 1.71079e-07)
(0.194442 0.0513591 3.32934e-07)
(0.120525 0.0541729 3.9686e-07)
(0.0486917 0.0548869 4.1988e-07)
(1.98202 -0.00199301 1.32565e-08)
(1.18113 0.0125877 -2.87179e-08)
(0.340171 0.0733652 -2.75317e-08)
(0.0395859 0.0545703 1.33491e-07)
(0.335194 0.0541208 1.04855e-07)
(0.37026 0.0598157 1.82384e-07)
(0.359148 0.0632399 1.67717e-07)
(0.360813 0.0644325 1.15261e-07)
(0.38418 0.0635797 1.17288e-07)
(0.397503 0.0611943 1.32525e-07)
(0.398032 0.0600879 1.34973e-07)
(0.401361 0.0580251 6.99404e-08)
(0.406856 0.0561756 4.37702e-08)
(0.408883 0.0552334 2.59251e-08)
(0.40569 0.0550812 9.80093e-09)
(0.390156 0.0568446 -5.5072e-08)
(0.359145 0.0601383 -1.3384e-07)
(0.321729 0.0645683 -1.45782e-07)
(0.289647 0.0686658 -1.32259e-07)
(0.265647 0.0732697 -4.19274e-08)
(0.246895 0.0794893 8.39953e-08)
(0.227124 0.0860512 1.82366e-07)
(0.19787 0.0903842 3.08045e-07)
(0.123153 0.0948476 3.71605e-07)
(0.0495063 0.0955806 3.87074e-07)
(1.97585 -0.00283372 2.35686e-08)
(1.22316 0.0164338 -6.06792e-09)
(0.36115 0.0991981 -3.93711e-09)
(0.0351557 0.0780228 1.26422e-07)
(0.33797 0.0768152 1.06762e-07)
(0.374953 0.0848119 1.88238e-07)
(0.362683 0.0889306 1.6147e-07)
(0.362786 0.0901283 9.01955e-08)
(0.385097 0.0887018 1.027e-07)
(0.399647 0.0853318 1.16866e-07)
(0.401809 0.0838556 1.75793e-07)
(0.404904 0.0807107 3.00513e-08)
(0.41009 0.0780348 3.58628e-08)
(0.411861 0.0766074 3.56359e-09)
(0.409138 0.0764477 -4.27721e-08)
(0.39503 0.0790349 -7.51208e-08)
(0.36559 0.0838911 -1.35274e-07)
(0.328993 0.0902089 -1.10208e-07)
(0.297008 0.0965289 -1.04465e-07)
(0.273796 0.103516 -1.02953e-08)
(0.255699 0.112617 1.04538e-07)
(0.234775 0.12208 1.89489e-07)
(0.203816 0.128851 2.82352e-07)
(0.127771 0.135586 3.26945e-07)
(0.0509412 0.136762 3.33826e-07)
(1.96783 -0.00365943 2.49255e-08)
(1.27653 0.0188839 1.6098e-08)
(0.38909 0.119879 3.36804e-08)
(0.0324844 0.102924 1.24124e-07)
(0.340759 0.10119 1.07233e-07)
(0.38055 0.109571 1.76225e-07)
(0.367009 0.114785 1.48124e-07)
(0.36486 0.115664 7.66266e-08)
(0.386052 0.113335 9.80459e-08)
(0.402441 0.109439 1.10022e-07)
(0.406376 0.107928 1.70012e-07)
(0.409083 0.10354 6.13822e-08)
(0.414059 0.10002 3.63932e-08)
(0.415526 0.0981731 3.57763e-09)
(0.413254 0.098124 -3.1805e-08)
(0.400854 0.101403 -7.60297e-08)
(0.373386 0.107611 -1.08086e-07)
(0.338093 0.115568 -9.38652e-08)
(0.30662 0.124162 -6.21872e-08)
(0.284476 0.133725 3.13686e-08)
(0.267196 0.145618 1.361e-07)
(0.245034 0.157616 1.93706e-07)
(0.212212 0.167269 2.52786e-07)
(0.134518 0.176992 2.80463e-07)
(0.0532514 0.179387 2.87832e-07)
(1.95756 -0.00450647 2.64128e-08)
(1.33793 0.0194542 3.86702e-08)
(0.424111 0.133245 7.84087e-08)
(0.0350252 0.12949 1.27099e-07)
(0.342323 0.127427 1.02024e-07)
(0.386191 0.134476 1.53653e-07)
(0.371987 0.14089 1.27137e-07)
(0.366723 0.141102 7.65245e-08)
(0.386851 0.137765 9.48602e-08)
(0.405792 0.13371 1.15719e-07)
(0.411719 0.132308 1.50341e-07)
(0.413911 0.126717 1.31722e-08)
(0.418782 0.122247 -3.30112e-08)
(0.419971 0.119836 -1.94998e-08)
(0.418257 0.119882 -4.02518e-08)
(0.40774 0.123651 -5.27159e-08)
(0.382577 0.131061 -7.25219e-08)
(0.349131 0.140754 -6.10956e-08)
(0.318769 0.151928 -1.39327e-08)
(0.297852 0.164428 6.50737e-08)
(0.28119 0.179008 1.51577e-07)
(0.258027 0.193675 1.96655e-07)
(0.22375 0.207113 2.28179e-07)
(0.144147 0.221149 2.39767e-07)
(0.0569265 0.226337 2.46043e-07)
(1.94517 -0.00523975 2.48297e-08)
(1.40177 0.0176805 5.99871e-08)
(0.466234 0.135678 1.34976e-07)
(0.0458274 0.157857 1.32795e-07)
(0.341093 0.155043 9.57919e-08)
(0.390605 0.160243 1.31722e-07)
(0.377283 0.167036 1.16744e-07)
(0.368257 0.166558 8.71426e-08)
(0.387547 0.162109 9.86068e-08)
(0.409609 0.158279 1.19854e-07)
(0.417494 0.156841 1.39089e-07)
(0.419095 0.150265 4.74114e-08)
(0.42407 0.144648 5.90316e-09)
(0.425169 0.14161 -5.29179e-09)
(0.424023 0.141721 -3.85007e-08)
(0.415414 0.145579 -3.56372e-08)
(0.393007 0.154104 -5.28596e-08)
(0.362171 0.165644 -4.77361e-08)
(0.333613 0.179649 1.92069e-08)
(0.313903 0.195007 9.3906e-08)
(0.297862 0.212416 1.54094e-07)
(0.274475 0.230578 1.92232e-07)
(0.239635 0.249102 2.04119e-07)
(0.158393 0.269517 2.03491e-07)
(0.0633942 0.280738 2.05149e-07)
(1.93077 -0.00580092 2.44812e-08)
(1.45956 0.0137974 7.82458e-08)
(0.514907 0.124577 1.97262e-07)
(0.0665582 0.188657 1.42291e-07)
(0.335792 0.18328 8.6744e-08)
(0.393221 0.187691 1.18551e-07)
(0.382193 0.192779 1.11318e-07)
(0.369427 0.191496 8.89073e-08)
(0.388144 0.186213 8.95458e-08)
(0.413776 0.183042 1.01156e-07)
(0.423609 0.181319 1.72766e-07)
(0.424721 0.174276 2.93772e-08)
(0.429948 0.167329 3.89341e-08)
(0.431215 0.163352 4.56285e-08)
(0.430438 0.163472 -4.17249e-08)
(0.4237 0.166937 3.0815e-08)
(0.404679 0.176754 -7.01828e-08)
(0.377219 0.19009 -3.54943e-08)
(0.351031 0.206921 1.75785e-08)
(0.332642 0.22475 1.15042e-07)
(0.317755 0.245464 1.56941e-07)
(0.295386 0.268199 1.86198e-07)
(0.26146 0.293517 1.84824e-07)
(0.180066 0.323732 1.71072e-07)
(0.0752537 0.348 1.6679e-07)
(1.91413 -0.00595398 2.0655e-08)
(1.50149 0.0112462 7.33622e-08)
(0.567769 0.110087 1.97195e-07)
(0.0953326 0.221956 1.67672e-07)
(0.32512 0.211664 8.19509e-08)
(0.394001 0.2154 1.08623e-07)
(0.385443 0.217083 9.98202e-08)
(0.370379 0.215319 8.80497e-08)
(0.389189 0.210024 8.13079e-08)
(0.418402 0.207965 8.81136e-08)
(0.430172 0.205786 1.79355e-07)
(0.430959 0.199051 -1.0803e-08)
(0.436148 0.19075 2.66537e-08)
(0.437946 0.185317 5.59887e-08)
(0.437429 0.184976 -8.75107e-09)
(0.43261 0.18802 6.61848e-09)
(0.417611 0.198864 -3.84475e-08)
(0.394031 0.213852 -2.32826e-08)
(0.370665 0.233251 1.64727e-08)
(0.354042 0.253404 1.13007e-07)
(0.341534 0.277673 1.5692e-07)
(0.321959 0.30602 1.75624e-07)
(0.291767 0.340305 1.74096e-07)
(0.215056 0.384269 1.41337e-07)
(0.0985363 0.436258 1.27701e-07)
(1.89653 -0.00568832 1.41528e-08)
(1.53403 0.0117693 6.52459e-08)
(0.62925 0.104138 1.96961e-07)
(0.132075 0.257843 1.86128e-07)
(0.308841 0.240703 8.96469e-08)
(0.392661 0.240667 9.62634e-08)
(0.387061 0.238425 9.99502e-08)
(0.371947 0.237318 9.23154e-08)
(0.391326 0.233802 7.1614e-08)
(0.423542 0.233228 6.86252e-08)
(0.437199 0.230595 1.71437e-07)
(0.438 0.224628 -5.70936e-09)
(0.442531 0.215014 3.59748e-08)
(0.444909 0.207805 4.84455e-08)
(0.44493 0.206209 1.7526e-10)
(0.442191 0.208842 2.10206e-10)
(0.431479 0.2201 -2.09883e-08)
(0.412319 0.236554 -9.72061e-09)
(0.392322 0.257874 3.77029e-08)
(0.378198 0.280761 1.07382e-07)
(0.369551 0.308346 1.4941e-07)
(0.355442 0.342671 1.67288e-07)
(0.333091 0.388317 1.56609e-07)
(0.273189 0.453664 1.16784e-07)
(0.144386 0.576539 8.66767e-08)
(1.98732 -0.000263271 -1.31204e-09)
(1.13963 0.00258634 2.40052e-07)
(0.319929 0.0141368 4.28751e-07)
(0.047127 0.011141 -1.43383e-07)
(0.333218 0.012057 -1.28529e-07)
(0.366793 0.0134471 -1.04562e-07)
(0.356157 0.0146675 -6.358e-08)
(0.360361 0.0154326 1.01282e-08)
(0.385306 0.0157624 -2.6875e-08)
(0.397495 0.0157272 -3.35233e-08)
(0.39626 0.0157289 -1.65103e-07)
(0.399046 0.015405 -1.31348e-07)
(0.403947 0.0148085 -1.03556e-07)
(0.405644 0.0143316 -1.07774e-07)
(0.401834 0.0140954 -1.32514e-07)
(0.384786 0.0145183 -2.4781e-07)
(0.352212 0.0154892 -2.7712e-07)
(0.314293 0.016843 -1.84529e-07)
(0.282524 0.0180182 -9.29549e-08)
(0.257796 0.0192483 1.46499e-07)
(0.238537 0.0208679 2.73108e-07)
(0.220274 0.0226629 2.53049e-07)
(0.193073 0.0241318 1.48475e-07)
(0.119843 0.0259314 5.56629e-08)
(0.048671 0.0267696 -1.92276e-08)
(1.98593 -0.00103108 3.38716e-08)
(1.15285 0.00777171 2.55119e-07)
(0.326236 0.0435506 4.10644e-07)
(0.0437447 0.0319418 -1.12845e-07)
(0.333433 0.0322614 -7.80259e-08)
(0.367151 0.0350189 -7.96927e-08)
(0.356331 0.0371934 -6.57757e-08)
(0.359378 0.0379288 -2.76905e-08)
(0.383485 0.0372055 -4.21595e-08)
(0.395876 0.0356268 8.22145e-11)
(0.395369 0.0346963 -2.13479e-07)
(0.398802 0.0333203 -1.08994e-07)
(0.404346 0.0319557 -6.70089e-08)
(0.406531 0.0312367 -8.53196e-08)
(0.403229 0.0309545 -1.33718e-07)
(0.386874 0.0318965 -2.07406e-07)
(0.354838 0.0337778 -2.44793e-07)
(0.316953 0.0364147 -1.5197e-07)
(0.284933 0.0386756 -8.98274e-08)
(0.260395 0.041234 1.24254e-07)
(0.241259 0.0448589 2.50617e-07)
(0.222446 0.0487655 2.40307e-07)
(0.194478 0.051356 1.43667e-07)
(0.120556 0.0541701 4.97887e-08)
(0.048701 0.0548844 -2.75255e-08)
(1.98202 -0.00199658 2.01735e-08)
(1.18123 0.0125808 2.45583e-07)
(0.340222 0.0733629 4.42226e-07)
(0.0395672 0.0545936 -1.1588e-07)
(0.335177 0.0541397 -6.55541e-08)
(0.370226 0.0598416 -7.91905e-08)
(0.359098 0.0632786 -6.42177e-08)
(0.360745 0.0644894 -3.49728e-08)
(0.384095 0.0636601 -4.55638e-08)
(0.397368 0.0612532 -3.28857e-09)
(0.397849 0.0601544 -2.03809e-07)
(0.401204 0.0580331 -9.90296e-09)
(0.406714 0.056123 -6.32558e-08)
(0.408758 0.0551535 -1.22334e-07)
(0.405579 0.0549862 -1.3679e-07)
(0.390063 0.0567743 -2.03913e-07)
(0.359088 0.0600878 -2.1837e-07)
(0.321702 0.0645282 -1.55834e-07)
(0.289646 0.0686318 -8.04185e-08)
(0.265667 0.0732335 8.68018e-08)
(0.246929 0.0794592 2.11072e-07)
(0.22716 0.0860381 2.09895e-07)
(0.197909 0.0903798 1.3262e-07)
(0.123184 0.0948439 4.2075e-08)
(0.0495159 0.0955772 -3.92009e-08)
(1.97584 -0.00283639 -2.67988e-09)
(1.22325 0.016427 2.22935e-07)
(0.361197 0.0991906 4.54283e-07)
(0.0351539 0.0780395 -1.02769e-07)
(0.337966 0.076832 -7.60655e-08)
(0.374949 0.084843 -7.00287e-08)
(0.362679 0.0889791 -5.74246e-08)
(0.362786 0.09019 -2.17372e-08)
(0.385103 0.0887807 -2.09392e-08)
(0.399672 0.085384 -2.69937e-08)
(0.401858 0.0839189 1.05113e-08)
(0.404959 0.0806906 -6.07419e-08)
(0.410142 0.0779446 -7.73658e-08)
(0.411912 0.0764813 -1.46949e-07)
(0.409194 0.0763101 -1.52971e-07)
(0.395091 0.0789328 -1.71689e-07)
(0.365645 0.0838238 -1.70646e-07)
(0.329038 0.0901577 -1.67844e-07)
(0.297046 0.0964908 -7.313e-08)
(0.273836 0.103482 6.39956e-08)
(0.255749 0.112588 1.71068e-07)
(0.234826 0.122065 1.62694e-07)
(0.20386 0.128846 1.14572e-07)
(0.127803 0.135582 2.49894e-08)
(0.0509511 0.136758 -5.68564e-08)
(1.96782 -0.00366009 -6.5216e-09)
(1.27661 0.0188778 2.10491e-07)
(0.389132 0.119861 4.66831e-07)
(0.0324862 0.102933 -9.68095e-08)
(0.340764 0.101211 -8.33943e-08)
(0.380564 0.109604 -4.42627e-08)
(0.367031 0.114829 -3.26333e-08)
(0.364899 0.115711 -4.31121e-09)
(0.38611 0.113394 1.54291e-08)
(0.402566 0.109487 6.9272e-09)
(0.406563 0.107988 2.0293e-07)
(0.409271 0.103515 -1.09752e-07)
(0.414253 0.0999389 -1.13098e-07)
(0.415712 0.0980754 -1.56523e-07)
(0.413432 0.0980295 -1.44076e-07)
(0.401021 0.101337 -1.41062e-07)
(0.373518 0.10757 -1.42327e-07)
(0.338188 0.115532 -1.69313e-07)
(0.30669 0.124136 -7.60605e-08)
(0.284531 0.133706 4.94575e-08)
(0.267257 0.145601 1.38708e-07)
(0.245095 0.157604 1.26363e-07)
(0.212261 0.167264 8.9827e-08)
(0.13455 0.176988 5.43001e-09)
(0.0532615 0.179383 -7.14633e-08)
(1.95755 -0.00450658 -9.91499e-09)
(1.338 0.0194474 1.96009e-07)
(0.424149 0.133219 4.89556e-07)
(0.0350309 0.129496 -8.61367e-08)
(0.34233 0.127445 -6.58531e-08)
(0.386208 0.134501 -3.29578e-09)
(0.372018 0.140919 1.69924e-09)
(0.366778 0.141129 -7.54787e-09)
(0.386929 0.137793 1.58616e-08)
(0.40596 0.133739 4.99341e-08)
(0.411961 0.132338 2.51236e-07)
(0.414152 0.12669 -9.95008e-08)
(0.419036 0.122184 -1.28378e-07)
(0.420197 0.119775 -1.45098e-07)
(0.418455 0.119837 -1.27562e-07)
(0.407923 0.12363 -1.33859e-07)
(0.382722 0.131057 -1.48427e-07)
(0.349242 0.140748 -1.68382e-07)
(0.318859 0.151925 -8.70314e-08)
(0.29792 0.164425 2.78035e-08)
(0.281255 0.179007 1.12718e-07)
(0.258092 0.193671 1.10518e-07)
(0.223802 0.207111 7.25948e-08)
(0.14418 0.221147 -1.29497e-08)
(0.0569365 0.226334 -8.18764e-08)
(1.94516 -0.00523977 -1.20373e-08)
(1.40182 0.0176732 1.70638e-07)
(0.466269 0.135645 4.94653e-07)
(0.045839 0.157859 -5.97781e-08)
(0.341097 0.155054 -3.64821e-08)
(0.390621 0.160259 -2.17501e-09)
(0.377316 0.167051 -8.53641e-10)
(0.368311 0.166564 -2.44849e-08)
(0.387624 0.162105 1.98822e-08)
(0.409773 0.158279 8.11369e-08)
(0.417726 0.156829 1.67924e-07)
(0.419323 0.150238 -3.55677e-08)
(0.424308 0.144605 -1.49204e-07)
(0.425373 0.141578 -1.61535e-07)
(0.424188 0.141714 -1.09419e-07)
(0.415558 0.145577 -1.49118e-07)
(0.39312 0.15412 -1.56496e-07)
(0.362262 0.16566 -1.62337e-07)
(0.333694 0.179665 -9.52566e-08)
(0.313969 0.195017 1.55437e-08)
(0.297927 0.212427 8.74471e-08)
(0.274538 0.230584 9.87531e-08)
(0.239686 0.249105 6.0482e-08)
(0.158425 0.269517 -2.57996e-08)
(0.0634039 0.280737 -9.21245e-08)
(1.93076 -0.00580085 -1.88726e-08)
(1.45959 0.0137916 1.22827e-07)
(0.514937 0.124546 4.45823e-07)
(0.0665739 0.188656 -1.77628e-08)
(0.335795 0.183284 -2.26861e-08)
(0.393236 0.1877 -1.32112e-08)
(0.382221 0.19278 -5.33418e-09)
(0.369472 0.191482 -2.37167e-08)
(0.388208 0.186181 3.03038e-08)
(0.413909 0.18301 8.70922e-08)
(0.423792 0.181265 9.01091e-08)
(0.424891 0.174245 1.4519e-08)
(0.430123 0.16731 -1.50128e-07)
(0.431371 0.163348 -1.93201e-07)
(0.430555 0.163489 -6.9049e-08)
(0.423802 0.166949 -2.44609e-07)
(0.40477 0.176771 -9.99372e-08)
(0.377293 0.19011 -1.52708e-07)
(0.351103 0.206943 -7.38383e-08)
(0.332703 0.224767 -2.04008e-08)
(0.317819 0.245481 7.17513e-08)
(0.295445 0.268211 9.24484e-08)
(0.261508 0.293525 5.51847e-08)
(0.180096 0.323737 -3.14069e-08)
(0.0752629 0.348002 -9.96436e-08)
(1.91412 -0.00595346 -2.35421e-08)
(1.50151 0.0112438 5.84537e-08)
(0.567792 0.110067 2.45584e-07)
(0.0953481 0.221953 5.14292e-08)
(0.325122 0.211664 -2.42533e-08)
(0.394015 0.215401 4.90309e-10)
(0.385464 0.217071 1.49456e-08)
(0.370411 0.215289 -4.69246e-09)
(0.389233 0.209972 3.55634e-08)
(0.41849 0.207905 6.5576e-08)
(0.430292 0.205706 -8.3531e-09)
(0.431063 0.19901 1.94397e-08)
(0.436252 0.190748 -1.23721e-07)
(0.438049 0.185341 -1.68249e-07)
(0.437512 0.185011 -1.01274e-07)
(0.432687 0.188055 -1.87593e-07)
(0.417683 0.198884 -1.00975e-07)
(0.394093 0.213876 -1.38401e-07)
(0.370726 0.233275 -6.80514e-08)
(0.354096 0.253429 -3.35494e-08)
(0.341592 0.277696 5.55471e-08)
(0.322013 0.306037 8.91637e-08)
(0.291812 0.340317 5.43199e-08)
(0.215082 0.384277 -2.46431e-08)
(0.098545 0.436263 -1.03383e-07)
(1.89652 -0.00568764 -2.22688e-08)
(1.53404 0.0117687 4.60455e-08)
(0.629272 0.104128 2.06526e-07)
(0.132093 0.257837 7.23891e-08)
(0.308842 0.240698 -2.81308e-08)
(0.392673 0.240659 3.00105e-08)
(0.387077 0.238402 4.65013e-08)
(0.371969 0.237276 2.11301e-08)
(0.39135 0.233738 2.61581e-08)
(0.42359 0.233155 2.53606e-08)
(0.437259 0.230512 -2.53288e-08)
(0.438043 0.224581 1.24363e-08)
(0.442577 0.215017 -1.02671e-07)
(0.444966 0.207843 -1.28578e-07)
(0.444985 0.206256 -9.3837e-08)
(0.442248 0.20889 -1.68609e-07)
(0.431535 0.22013 -1.29269e-07)
(0.412371 0.236584 -1.41655e-07)
(0.392373 0.257903 -8.79985e-08)
(0.378246 0.280793 -2.51615e-08)
(0.369603 0.308374 4.77259e-08)
(0.35549 0.342693 8.1939e-08)
(0.333131 0.388333 5.42761e-08)
(0.273212 0.453675 -8.4039e-09)
(0.144396 0.57655 -1.04504e-07)
(1.98733 -0.000263631 -1.98349e-08)
(1.13963 0.00258632 3.8099e-07)
(0.319936 0.0141394 6.81541e-07)
(0.047134 0.0111443 -2.32338e-07)
(0.333215 0.0120594 -1.17184e-07)
(0.366788 0.0134497 -1.22335e-07)
(0.356148 0.0146716 -4.96292e-08)
(0.360352 0.0154382 6.85427e-08)
(0.385294 0.0157679 -8.93407e-10)
(0.397481 0.01573 -2.85094e-08)
(0.396245 0.015731 -3.01198e-08)
(0.399034 0.015407 -3.66586e-08)
(0.403935 0.0148133 -5.61871e-08)
(0.405629 0.0143405 -7.91123e-08)
(0.401812 0.014106 -9.74149e-08)
(0.384751 0.0145275 -1.04936e-07)
(0.352165 0.0154953 -6.66429e-08)
(0.314246 0.016846 6.39077e-09)
(0.282489 0.018019 6.98094e-08)
(0.257774 0.0192486 1.64217e-07)
(0.238533 0.0208687 1.96699e-07)
(0.220278 0.0226631 1.57104e-07)
(0.193073 0.0241321 1.00271e-07)
(0.119842 0.0259318 1.15182e-07)
(0.0486696 0.0267702 1.31257e-07)
(1.98593 -0.00103146 -1.85426e-08)
(1.15285 0.00777228 3.79885e-07)
(0.326243 0.0435557 6.91797e-07)
(0.0437563 0.0319443 -2.3947e-07)
(0.333432 0.0322619 -1.24215e-07)
(0.367151 0.0350184 -1.14563e-07)
(0.356331 0.0371934 -4.76289e-08)
(0.359381 0.0379283 5.47092e-08)
(0.383491 0.0372022 -9.99485e-09)
(0.395886 0.0356184 -3.49113e-08)
(0.395382 0.0346869 -2.94562e-08)
(0.398814 0.0333083 -4.15669e-08)
(0.404354 0.0319444 -5.92949e-08)
(0.40653 0.031227 -7.37807e-08)
(0.403213 0.0309461 -9.21997e-08)
(0.386841 0.03189 -1.02979e-07)
(0.354792 0.0337741 -7.13024e-08)
(0.316908 0.0364141 -5.31132e-09)
(0.284899 0.0386758 5.35622e-08)
(0.260373 0.0412359 1.48404e-07)
(0.241256 0.0448623 1.91185e-07)
(0.22245 0.0487665 1.5445e-07)
(0.194477 0.0513564 1.02501e-07)
(0.120555 0.0541704 1.11398e-07)
(0.0486999 0.0548851 1.24523e-07)
(1.98202 -0.00199669 -1.8937e-08)
(1.18123 0.0125822 3.77069e-07)
(0.340229 0.0733701 7.13118e-07)
(0.0395747 0.0545965 -2.49552e-07)
(0.335177 0.054141 -1.28941e-07)
(0.370225 0.0598417 -6.30138e-08)
(0.359098 0.0632781 -3.63748e-08)
(0.360749 0.0644883 -1.13907e-09)
(0.384105 0.0636556 -2.18991e-08)
(0.397386 0.0612434 -3.97166e-08)
(0.397875 0.0601429 -1.95613e-08)
(0.401227 0.0580225 -4.93123e-08)
(0.406733 0.0561198 -5.7991e-08)
(0.408772 0.0551589 -7.4316e-08)
(0.405582 0.0549946 -9.01044e-08)
(0.390048 0.0567843 -9.52029e-08)
(0.359054 0.0600955 -8.07791e-08)
(0.321662 0.0645338 -1.9153e-08)
(0.289614 0.0686353 2.66183e-08)
(0.265648 0.0732367 1.18886e-07)
(0.246924 0.0794632 1.80702e-07)
(0.227162 0.0860388 1.49988e-07)
(0.197908 0.0903793 1.07654e-07)
(0.123183 0.094843 1.0767e-07)
(0.0495153 0.095577 1.1496e-07)
(1.97585 -0.00283661 -2.61407e-08)
(1.22326 0.0164288 3.67951e-07)
(0.361207 0.0992002 7.49266e-07)
(0.035161 0.078044 -2.51328e-07)
(0.337966 0.0768339 -1.47531e-07)
(0.374949 0.0848426 -4.92512e-08)
(0.362677 0.0889763 -3.87628e-08)
(0.362787 0.090186 -1.99777e-08)
(0.385106 0.0887724 -2.75048e-08)
(0.399681 0.0853765 -4.90271e-08)
(0.401875 0.0839065 -1.44147e-08)
(0.404971 0.08069 -6.51076e-08)
(0.410143 0.0779597 -5.89331e-08)
(0.411889 0.0765077 -5.74539e-08)
(0.409148 0.0763379 -6.35078e-08)
(0.395029 0.0789552 -8.56635e-08)
(0.365578 0.0838368 -8.4118e-08)
(0.32898 0.0901655 -4.90707e-08)
(0.297006 0.0964952 6.27305e-09)
(0.273813 0.103484 8.98661e-08)
(0.255743 0.112591 1.70538e-07)
(0.234825 0.122064 1.42191e-07)
(0.203858 0.128844 1.10837e-07)
(0.127802 0.13558 1.00477e-07)
(0.0509509 0.136756 9.99021e-08)
(1.96782 -0.00366044 -2.89031e-08)
(1.27662 0.0188795 3.51203e-07)
(0.389144 0.119872 7.87388e-07)
(0.0324926 0.10294 -2.49863e-07)
(0.340763 0.101214 -1.66486e-07)
(0.380562 0.109603 -4.81817e-08)
(0.367027 0.114824 -3.96873e-08)
(0.364893 0.115704 -1.81697e-08)
(0.386103 0.113383 -3.79867e-08)
(0.402548 0.109484 -4.61615e-08)
(0.406531 0.107979 -7.89535e-08)
(0.409229 0.103531 -7.81866e-08)
(0.414194 0.0999679 -6.02187e-08)
(0.415631 0.0981015 -4.78205e-08)
(0.413336 0.0980476 -6.97792e-08)
(0.40092 0.101341 -7.44514e-08)
(0.373426 0.107567 -9.51854e-08)
(0.338117 0.115532 -6.51773e-08)
(0.306643 0.124135 -1.70666e-08)
(0.284506 0.133705 5.75407e-08)
(0.267248 0.145602 1.36763e-07)
(0.245092 0.157601 1.33127e-07)
(0.212259 0.16726 1.0756e-07)
(0.134549 0.176985 8.9388e-08)
(0.0532616 0.17938 8.32658e-08)
(1.95755 -0.00450711 -3.42517e-08)
(1.33801 0.0194486 3.2402e-07)
(0.424165 0.133229 8.22819e-07)
(0.0350378 0.129505 -2.33861e-07)
(0.342327 0.127451 -1.73502e-07)
(0.386204 0.134502 -5.60203e-08)
(0.372011 0.140917 -2.36143e-08)
(0.366765 0.141124 -1.38251e-08)
(0.386912 0.137787 -3.50609e-08)
(0.405916 0.133738 -6.57477e-08)
(0.411887 0.132335 -1.43135e-07)
(0.414065 0.12671 -4.9012e-09)
(0.418937 0.122211 1.95081e-08)
(0.420103 0.119789 -2.70664e-08)
(0.418367 0.119835 -6.34016e-08)
(0.407836 0.12361 -7.79535e-08)
(0.382644 0.131031 -8.81027e-08)
(0.349178 0.140731 -7.33818e-08)
(0.318811 0.151912 -3.642e-08)