/*--------------------------------*- C++ -*----------------------------------*\
| =========                 |                                                 |
| \\      /  F ield         | OpenFOAM: The Open Source CFD Toolbox           |
|  \\    /   O peration     | Version:  4.1                                   |
|   \\  /    A nd           | Web:      www.OpenFOAM.org                      |
|    \\/     M anipulation  |                                                 |
\*---------------------------------------------------------------------------*/
FoamFile
{
    version     2.0;
    format      ascii;
    class       volScalarField;
    location    "9.76";
    object      p;
}
// * * * * * * * * * * * * * * * * * * * * * * * * * * * * * * * * * * * * * //

dimensions      [1 -1 -2 0 0 0 0];

internalField   nonuniform List<scalar> 
52500
(
1.00001
1.00004
1.00014
1.0003
1.00086
1.00177
1.00502
1.01005
1.03004
1.05603
1.19228
1.36619
2.3182
4.26443
10.3057
11.408
11.2548
11.1989
11.2838
11.5056
11.737
11.8877
12.0042
12.097
12.1697
1.00001
1.00004
1.00014
1.0003
1.00085
1.00175
1.00497
1.00996
1.02975
1.05553
1.19036
1.36201
2.30547
4.22611
10.2265
11.402
11.2478
11.1877
11.2729
11.4952
11.7266
11.8778
11.9961
12.0906
12.1651
1.00001
1.00004
1.00013
1.00029
1.00084
1.00172
1.00488
1.00977
1.02913
1.05452
1.18634
1.35353
2.2785
4.14538
10.0506
11.3875
11.2289
11.1558
11.239
11.4583
11.6872
11.8362
11.9535
12.047
12.121
1.00001
1.00004
1.00013
1.00028
1.00081
1.00166
1.00473
1.00948
1.02822
1.05288
1.18055
1.34053
2.23851
4.02706
9.77831
11.3665
11.1989
11.103
11.1821
11.3944
11.6178
11.7617
11.8754
11.9661
12.0399
1.00001
1.00004
1.00012
1.00027
1.00077
1.00159
1.00452
1.00905
1.02701
1.05039
1.17342
1.32265
2.18632
3.87726
9.40811
11.3406
11.1583
11.0308
11.1042
11.3068
11.522
11.6579
11.7653
11.8516
11.9261
1.00001
1.00003
1.00012
1.00025
1.00073
1.0015
1.00426
1.00852
1.02551
1.04728
1.16449
1.30094
2.12069
3.69192
8.93111
11.3154
11.1095
10.9394
11.0053
11.1937
11.3968
11.5206
11.6177
11.6956
11.7697
1.00001
1.00003
1.00011
1.00023
1.00067
1.00138
1.00393
1.00779
1.02376
1.04297
1.15415
1.2743
2.04792
3.46796
8.34595
11.2963
11.0539
10.83
10.8868
11.0564
11.2406
11.3445
11.4217
11.4811
11.5478
1.00001
1.00003
1.0001
1.00021
1.00061
1.00126
1.0036
1.00714
1.02172
1.03929
1.14072
1.24873
1.9487
3.21334
7.64206
11.2886
10.9988
10.7061
10.7514
10.8958
11.0523
11.1265
11.1704
11.1918
11.2299
1.00001
1.00002
1.00009
1.00019
1.00056
1.00115
1.00328
1.00662
1.01937
1.037
1.12275
1.2258
1.82447
2.93199
6.81496
11.2731
10.9459
10.5754
10.6047
10.7126
10.8299
10.8601
10.8485
10.7929
10.735
1
1.00002
1.00008
1.00017
1.00049
1.00101
1.00288
1.00581
1.01694
1.03288
1.10556
1.19949
1.69992
2.64385
5.91283
11.1981
10.8755
10.4492
10.4509
10.5081
10.5716
10.5498
10.4556
10.2361
9.89822
1.00001
1.00004
1.00014
1.0003
1.00087
1.00177
1.00503
1.01006
1.03006
1.05606
1.19234
1.36633
2.31851
4.2655
10.3076
11.4078
11.2547
11.1991
11.284
11.5058
11.7371
11.8878
12.0042
12.097
12.1696
1.00001
1.00004
1.00014
1.0003
1.00086
1.00176
1.00498
1.00997
1.02976
1.05555
1.19041
1.36214
2.30577
4.22716
10.2284
11.4018
11.2477
11.1879
11.2731
11.4953
11.7267
11.8779
11.9961
12.0906
12.1651
1.00001
1.00004
1.00014
1.0003
1.00084
1.00172
1.00489
1.00978
1.02915
1.05454
1.18639
1.35366
2.27879
4.14639
10.0525
11.3874
11.2288
11.1559
11.2392
11.4585
11.6873
11.8362
11.9536
12.0471
12.121
1.00001
1.00004
1.00013
1.00029
1.00082
1.00167
1.00474
1.00949
1.02823
1.05291
1.18058
1.34067
2.23877
4.02791
9.78013
11.3664
11.1989
11.1032
11.1823
11.3946
11.6179
11.7618
11.8755
11.9662
12.04
1.00001
1.00004
1.00013
1.00027
1.00078
1.0016
1.00453
1.00906
1.02703
1.05042
1.17346
1.32278
2.18655
3.87804
9.40988
11.3405
11.1584
11.0309
11.1044
11.307
11.5221
11.658
11.7654
11.8517
11.9262
1.00001
1.00004
1.00012
1.00026
1.00073
1.0015
1.00427
1.00853
1.02552
1.04732
1.16452
1.30107
2.1209
3.69266
8.93286
11.3153
11.1096
10.9396
11.0054
11.1938
11.3969
11.5208
11.6178
11.6957
11.7698
1.00001
1.00003
1.00011
1.00024
1.00068
1.00138
1.00394
1.0078
1.02377
1.04299
1.15419
1.27441
2.04814
3.46869
8.3477
11.2961
11.0539
10.8302
10.887
11.0565
11.2408
11.3446
11.4218
11.4813
11.548
1.00001
1.00003
1.0001
1.00022
1.00062
1.00127
1.00361
1.00715
1.02173
1.03931
1.14077
1.24883
1.94895
3.21403
7.64387
11.2884
10.9988
10.7062
10.7516
10.896
11.0524
11.1267
11.1705
11.192
11.2301
1.00001
1.00003
1.00009
1.0002
1.00057
1.00116
1.00328
1.00663
1.01939
1.03703
1.12278
1.2259
1.82469
2.93265
6.81677
11.2729
10.9459
10.5755
10.6048
10.7127
10.83
10.8602
10.8486
10.7931
10.7351
1.00001
1.00002
1.00008
1.00017
1.0005
1.00102
1.00288
1.00582
1.01695
1.03291
1.1056
1.19957
1.70014
2.64444
5.91461
11.1981
10.8756
10.4493
10.451
10.5082
10.5718
10.55
10.4557
10.2363
9.89838
1.00001
1.00004
1.00014
1.0003
1.00087
1.00177
1.00503
1.01006
1.03006
1.05606
1.19234
1.36634
2.31853
4.26558
10.3078
11.4078
11.2547
11.1991
11.284
11.5058
11.7371
11.8878
12.0042
12.097
12.1696
1.00001
1.00004
1.00014
1.0003
1.00086
1.00176
1.00498
1.00997
1.02976
1.05555
1.19041
1.36215
2.3058
4.22724
10.2285
11.4018
11.2477
11.1879
11.2731
11.4954
11.7268
11.8779
11.9961
12.0906
12.1651
1.00001
1.00004
1.00014
1.0003
1.00084
1.00172
1.00489
1.00978
1.02915
1.05454
1.1864
1.35366
2.27882
4.14647
10.0526
11.3874
11.2288
11.156
11.2392
11.4585
11.6874
11.8363
11.9536
12.0471
12.121
1.00001
1.00004
1.00013
1.00029
1.00082
1.00167
1.00474
1.00949
1.02823
1.05291
1.18059
1.34068
2.23879
4.02798
9.78031
11.3664
11.1989
11.1032
11.1823
11.3946
11.6179
11.7618
11.8755
11.9662
12.04
1.00001
1.00004
1.00013
1.00027
1.00078
1.0016
1.00453
1.00906
1.02703
1.05042
1.17346
1.32279
2.18658
3.87811
9.41007
11.3405
11.1584
11.0309
11.1044
11.307
11.5222
11.6581
11.7654
11.8517
11.9262
1.00001
1.00004
1.00012
1.00026
1.00073
1.0015
1.00427
1.00853
1.02552
1.04732
1.16452
1.30108
2.12093
3.69273
8.93305
11.3153
11.1096
10.9396
11.0055
11.1939
11.397
11.5208
11.6178
11.6957
11.7699
1.00001
1.00003
1.00011
1.00024
1.00068
1.00138
1.00394
1.0078
1.02377
1.04299
1.1542
1.27441
2.04817
3.46877
8.3479
11.2961
11.0539
10.8302
10.887
11.0566
11.2408
11.3446
11.4219
11.4813
11.548
1.00001
1.00003
1.0001
1.00022
1.00062
1.00127
1.00361
1.00715
1.02173
1.03931
1.14077
1.24883
1.94898
3.2141
7.64408
11.2884
10.9988
10.7063
10.7516
10.896
11.0524
11.1267
11.1705
11.192
11.2301
1.00001
1.00003
1.00009
1.0002
1.00057
1.00116
1.00328
1.00663
1.01939
1.03703
1.12279
1.22591
1.82472
2.93272
6.81699
11.2729
10.9459
10.5755
10.6048
10.7127
10.8301
10.8602
10.8486
10.7931
10.7352
1.00001
1.00002
1.00008
1.00017
1.0005
1.00102
1.00288
1.00582
1.01695
1.03291
1.1056
1.19958
1.70016
2.64451
5.91483
11.1981
10.8756
10.4493
10.451
10.5082
10.5718
10.55
10.4558
10.2363
9.8984
1.00001
1.00004
1.00014
1.0003
1.00087
1.00177
1.00503
1.01006
1.03006
1.05606
1.19234
1.36634
2.31854
4.2656
10.3078
11.4078
11.2547
11.1991
11.284
11.5058
11.7371
11.8878
12.0042
12.097
12.1696
1.00001
1.00004
1.00014
1.0003
1.00086
1.00176
1.00498
1.00997
1.02976
1.05555
1.19041
1.36215
2.3058
4.22725
10.2286
11.4018
11.2477
11.1879
11.2731
11.4954
11.7268
11.8779
11.9961
12.0906
12.1651
1.00001
1.00004
1.00014
1.0003
1.00084
1.00172
1.00489
1.00978
1.02915
1.05454
1.1864
1.35367
2.27882
4.14648
10.0527
11.3874
11.2288
11.156
11.2392
11.4585
11.6874
11.8363
11.9536
12.0471
12.121
1.00001
1.00004
1.00013
1.00029
1.00082
1.00167
1.00474
1.00949
1.02823
1.05291
1.18059
1.34068
2.2388
4.02799
9.78034
11.3664
11.1989
11.1032
11.1823
11.3946
11.6179
11.7618
11.8755
11.9662
12.04
1.00001
1.00004
1.00013
1.00027
1.00078
1.0016
1.00453
1.00906
1.02703
1.05042
1.17346
1.32279
2.18658
3.87812
9.41009
11.3405
11.1584
11.031
11.1044
11.307
11.5222
11.6581
11.7654
11.8517
11.9262
1.00001
1.00004
1.00012
1.00026
1.00073
1.0015
1.00427
1.00853
1.02552
1.04732
1.16452
1.30108
2.12093
3.69274
8.93308
11.3153
11.1096
10.9396
11.0055
11.1939
11.397
11.5208
11.6178
11.6957
11.7699
1.00001
1.00003
1.00011
1.00024
1.00068
1.00138
1.00394
1.0078
1.02377
1.04299
1.1542
1.27441
2.04817
3.46878
8.34793
11.2961
11.0539
10.8302
10.887
11.0566
11.2408
11.3446
11.4219
11.4813
11.548
1.00001
1.00003
1.0001
1.00022
1.00062
1.00127
1.00361
1.00715
1.02173
1.03931
1.14077
1.24883
1.94899
3.21411
7.64412
11.2884
10.9988
10.7063
10.7516
10.896
11.0524
11.1267
11.1705
11.192
11.2301
1.00001
1.00003
1.00009
1.0002
1.00057
1.00116
1.00328
1.00663
1.01939
1.03703
1.12279
1.22591
1.82473
2.93273
6.81702
11.2729
10.9459
10.5755
10.6048
10.7127
10.8301
10.8602
10.8486
10.7931
10.7352
1.00001
1.00002
1.00008
1.00017
1.0005
1.00102
1.00288
1.00582
1.01695
1.03291
1.1056
1.19958
1.70017
2.64452
5.91486
11.1981
10.8756
10.4493
10.451
10.5082
10.5718
10.55
10.4558
10.2363
9.8984
1.00001
1.00004
1.00014
1.0003
1.00087
1.00177
1.00503
1.01006
1.03006
1.05606
1.19234
1.36634
2.31854
4.26561
10.3078
11.4078
11.2547
11.1991
11.284
11.5058
11.7371
11.8878
12.0042
12.097
12.1696
1.00001
1.00004
1.00014
1.0003
1.00086
1.00176
1.00498
1.00997
1.02976
1.05555
1.19041
1.36215
2.3058
4.22726
10.2286
11.4018
11.2477
11.1879
11.2731
11.4954
11.7268
11.8779
11.9961
12.0906
12.1651
1.00001
1.00004
1.00014
1.0003
1.00084
1.00172
1.00489
1.00978
1.02915
1.05454
1.1864
1.35367
2.27883
4.14649
10.0527
11.3874
11.2288
11.156
11.2392
11.4585
11.6874
11.8363
11.9536
12.0471
12.121
1.00001
1.00004
1.00013
1.00029
1.00082
1.00167
1.00474
1.00949
1.02823
1.05291
1.18059
1.34068
2.2388
4.028
9.78035
11.3664
11.1989
11.1032
11.1823
11.3946
11.6179
11.7618
11.8755
11.9662
12.04
1.00001
1.00004
1.00013
1.00027
1.00078
1.0016
1.00453
1.00906
1.02703
1.05042
1.17346
1.32279
2.18658
3.87813
9.41011
11.3405
11.1584
11.031
11.1044
11.307
11.5222
11.6581
11.7654
11.8517
11.9262
1.00001
1.00004
1.00012
1.00026
1.00073
1.0015
1.00427
1.00853
1.02552
1.04732
1.16452
1.30108
2.12093
3.69275
8.9331
11.3153
11.1096
10.9396
11.0055
11.1939
11.397
11.5208
11.6178
11.6957
11.7699
1.00001
1.00003
1.00011
1.00024
1.00068
1.00138
1.00394
1.0078
1.02377
1.04299
1.1542
1.27442
2.04817
3.46878
8.34795
11.2961
11.0539
10.8302
10.887
11.0566
11.2408
11.3446
11.4219
11.4813
11.548
1.00001
1.00003
1.0001
1.00022
1.00062
1.00127
1.00361
1.00715
1.02173
1.03931
1.14077
1.24883
1.94899
3.21412
7.64414
11.2884
10.9988
10.7063
10.7516
10.896
11.0524
11.1267
11.1705
11.192
11.2301
1.00001
1.00003
1.00009
1.0002
1.00057
1.00116
1.00328
1.00663
1.01939
1.03703
1.12279
1.22591
1.82473
2.93274
6.81704
11.2729
10.9459
10.5755
10.6048
10.7127
10.8301
10.8603
10.8486
10.7931
10.7352
1.00001
1.00002
1.00008
1.00017
1.0005
1.00102
1.00288
1.00582
1.01695
1.03291
1.1056
1.19958
1.70017
2.64453
5.91489
11.1981
10.8756
10.4493
10.451
10.5082
10.5718
10.55
10.4558
10.2363
9.8984
1.00001
1.00004
1.00014
1.0003
1.00087
1.00177
1.00503
1.01006
1.03006
1.05606
1.19234
1.36634
2.31854
4.26561
10.3078
11.4078
11.2547
11.1991
11.284
11.5058
11.7371
11.8878
12.0042
12.097
12.1696
1.00001
1.00004
1.00014
1.0003
1.00086
1.00176
1.00498
1.00997
1.02976
1.05555
1.19041
1.36216
2.3058
4.22726
10.2286
11.4018
11.2477
11.1879
11.2731
11.4954
11.7268
11.8779
11.9961
12.0906
12.1651
1.00001
1.00004
1.00014
1.0003
1.00084
1.00172
1.00489
1.00978
1.02915
1.05454
1.1864
1.35367
2.27883
4.14649
10.0527
11.3874
11.2288
11.156
11.2392
11.4585
11.6874
11.8363
11.9536
12.0471
12.121
1.00001
1.00004
1.00013
1.00029
1.00082
1.00167
1.00474
1.00949
1.02823
1.05291
1.18059
1.34068
2.2388
4.028
9.78036
11.3664
11.1989
11.1032
11.1823
11.3946
11.6179
11.7618
11.8755
11.9662
12.04
1.00001
1.00004
1.00013
1.00027
1.00078
1.0016
1.00453
1.00906
1.02703
1.05042
1.17346
1.32279
2.18658
3.87813
9.41012
11.3405
11.1584
11.031
11.1044
11.307
11.5222
11.6581
11.7654
11.8517
11.9262
1.00001
1.00004
1.00012
1.00026
1.00073
1.0015
1.00427
1.00853
1.02552
1.04732
1.16452
1.30108
2.12093
3.69275
8.9331
11.3153
11.1096
10.9396
11.0055
11.1939
11.397
11.5208
11.6178
11.6957
11.7699
1.00001
1.00003
1.00011
1.00024
1.00068
1.00138
1.00394
1.0078
1.02377
1.04299
1.1542
1.27442
2.04817
3.46879
8.34796
11.2961
11.0539
10.8302
10.887
11.0566
11.2408
11.3446
11.4219
11.4813
11.548
1.00001
1.00003
1.0001
1.00022
1.00062
1.00127
1.00361
1.00715
1.02173
1.03931
1.14077
1.24883
1.94899
3.21412
7.64414
11.2884
10.9988
10.7063
10.7516
10.896
11.0524
11.1267
11.1705
11.192
11.2301
1.00001
1.00003
1.00009
1.0002
1.00057
1.00116
1.00328
1.00663
1.01939
1.03703
1.12279
1.22591
1.82473
2.93274
6.81705
11.2729
10.9459
10.5755
10.6048
10.7127
10.8301
10.8603
10.8486
10.7931
10.7352
1.00001
1.00002
1.00008
1.00017
1.0005
1.00102
1.00288
1.00582
1.01695
1.03291
1.1056
1.19958
1.70017
2.64453
5.91489
11.1981
10.8756
10.4493
10.451
10.5082
10.5718
10.55
10.4558
10.2363
9.8984
1.00001
1.00004
1.00014
1.0003
1.00087
1.00177
1.00503
1.01006
1.03006
1.05606
1.19234
1.36634
2.31854
4.2656
10.3078
11.4078
11.2547
11.1991
11.284
11.5058
11.7371
11.8878
12.0042
12.097
12.1696
1.00001
1.00004
1.00014
1.0003
1.00086
1.00176
1.00498
1.00997
1.02976
1.05555
1.19041
1.36215
2.3058
4.22726
10.2286
11.4018
11.2477
11.1879
11.2731
11.4954
11.7268
11.8779
11.9961
12.0906
12.1651
1.00001
1.00004
1.00014
1.0003
1.00084
1.00172
1.00489
1.00978
1.02915
1.05454
1.1864
1.35367
2.27883
4.14648
10.0527
11.3874
11.2288
11.156
11.2392
11.4585
11.6874
11.8363
11.9536
12.0471
12.121
1.00001
1.00004
1.00013
1.00029
1.00082
1.00167
1.00474
1.00949
1.02823
1.05291
1.18059
1.34068
2.2388
4.028
9.78034
11.3664
11.1989
11.1032
11.1823
11.3946
11.6179
11.7618
11.8755
11.9662
12.04
1.00001
1.00004
1.00013
1.00027
1.00078
1.0016
1.00453
1.00906
1.02703
1.05042
1.17346
1.32279
2.18658
3.87813
9.4101
11.3405
11.1584
11.031
11.1044
11.307
11.5222
11.6581
11.7654
11.8517
11.9262
1.00001
1.00004
1.00012
1.00026
1.00073
1.0015
1.00427
1.00853
1.02552
1.04732
1.16452
1.30108
2.12093
3.69275
8.93309
11.3153
11.1096
10.9396
11.0055
11.1939
11.397
11.5208
11.6178
11.6957
11.7699
1.00001
1.00003
1.00011
1.00024
1.00068
1.00138
1.00394
1.0078
1.02377
1.04299
1.1542
1.27441
2.04817
3.46878
8.34794
11.2961
11.0539
10.8302
10.887
11.0566
11.2408
11.3446
11.4219
11.4813
11.548
1.00001
1.00003
1.0001
1.00022
1.00062
1.00127
1.00361
1.00715
1.02173
1.03931
1.14077
1.24883
1.94899
3.21412
7.64413
11.2884
10.9988
10.7063
10.7516
10.896
11.0524
11.1267
11.1705
11.192
11.2301
1.00001
1.00003
1.00009
1.0002
1.00057
1.00116
1.00328
1.00663
1.01939
1.03703
1.12279
1.22591
1.82473
2.93273
6.81703
11.2729
10.9459
10.5755
10.6048
10.7127
10.8301
10.8602
10.8486
10.7931
10.7352
1.00001
1.00002
1.00008
1.00017
1.0005
1.00102
1.00288
1.00582
1.01695
1.03291
1.1056
1.19958
1.70017
2.64452
5.91487
11.1981
10.8756
10.4493
10.451
10.5082
10.5718
10.55
10.4558
10.2363
9.8984
1.00001
1.00004
1.00014
1.0003
1.00087
1.00177
1.00503
1.01006
1.03006
1.05606
1.19234
1.36634
2.31853
4.26559
10.3078
11.4078
11.2547
11.1991
11.284
11.5058
11.7371
11.8878
12.0042
12.097
12.1696
1.00001
1.00004
1.00014
1.0003
1.00086
1.00176
1.00498
1.00997
1.02976
1.05555
1.19041
1.36215
2.3058
4.22724
10.2285
11.4018
11.2477
11.1879
11.2731
11.4954
11.7268
11.8779
11.9961
12.0906
12.1651
1.00001
1.00004
1.00014
1.0003
1.00084
1.00172
1.00489
1.00978
1.02915
1.05454
1.1864
1.35366
2.27882
4.14647
10.0526
11.3874
11.2288
11.156
11.2392
11.4585
11.6874
11.8363
11.9536
12.0471
12.121
1.00001
1.00004
1.00013
1.00029
1.00082
1.00167
1.00474
1.00949
1.02823
1.05291
1.18059
1.34068
2.23879
4.02798
9.78031
11.3664
11.1989
11.1032
11.1823
11.3946
11.6179
11.7618
11.8755
11.9662
12.04
1.00001
1.00004
1.00013
1.00027
1.00078
1.0016
1.00453
1.00906
1.02703
1.05042
1.17346
1.32279
2.18658
3.87811
9.41007
11.3405
11.1584
11.0309
11.1044
11.307
11.5222
11.6581
11.7654
11.8517
11.9262
1.00001
1.00004
1.00012
1.00026
1.00073
1.0015
1.00427
1.00853
1.02552
1.04732
1.16452
1.30108
2.12093
3.69273
8.93305
11.3153
11.1096
10.9396
11.0055
11.1939
11.397
11.5208
11.6178
11.6957
11.7699
1.00001
1.00003
1.00011
1.00024
1.00068
1.00138
1.00394
1.0078
1.02377
1.04299
1.1542
1.27441
2.04817
3.46877
8.34791
11.2961
11.0539
10.8302
10.887
11.0566
11.2408
11.3446
11.4219
11.4813
11.548
1.00001
1.00003
1.0001
1.00022
1.00062
1.00127
1.00361
1.00715
1.02173
1.03931
1.14077
1.24883
1.94898
3.21411
7.64409
11.2884
10.9988
10.7063
10.7516
10.896
11.0524
11.1267
11.1705
11.192
11.2301
1.00001
1.00003
1.00009
1.0002
1.00057
1.00116
1.00328
1.00663
1.01939
1.03703
1.12279
1.22591
1.82473
2.93272
6.81699
11.2729
10.9459
10.5755
10.6048
10.7127
10.8301
10.8602
10.8486
10.7931
10.7352
1.00001
1.00002
1.00008
1.00017
1.0005
1.00102
1.00288
1.00582
1.01695
1.03291
1.1056
1.19958
1.70016
2.64451
5.91483
11.1981
10.8756
10.4493
10.451
10.5082
10.5718
10.55
10.4558
10.2363
9.8984
1.00001
1.00004
1.00014
1.0003
1.00087
1.00177
1.00503
1.01006
1.03006
1.05606
1.19234
1.36633
2.31851
4.2655
10.3076
11.4078
11.2547
11.1991
11.284
11.5058
11.7371
11.8878
12.0042
12.097
12.1696
1.00001
1.00004
1.00014
1.0003
1.00086
1.00176
1.00498
1.00997
1.02976
1.05555
1.19041
1.36214
2.30577
4.22716
10.2284
11.4018
11.2477
11.1879
11.2731
11.4953
11.7267
11.8779
11.9961
12.0906
12.1651
1.00001
1.00004
1.00014
1.0003
1.00084
1.00172
1.00489
1.00978
1.02915
1.05454
1.18639
1.35366
2.27879
4.14639
10.0525
11.3874
11.2288
11.1559
11.2392
11.4585
11.6873
11.8362
11.9536
12.0471
12.121
1.00001
1.00004
1.00013
1.00029
1.00082
1.00167
1.00474
1.00949
1.02823
1.05291
1.18058
1.34067
2.23877
4.02791
9.78013
11.3664
11.1989
11.1032
11.1823
11.3946
11.6179
11.7618
11.8755
11.9662
12.04
1.00001
1.00004
1.00013
1.00027
1.00078
1.0016
1.00453
1.00906
1.02703
1.05042
1.17346
1.32278
2.18655
3.87804
9.40988
11.3405
11.1584
11.0309
11.1044
11.307
11.5221
11.658
11.7654
11.8517
11.9262
1.00001
1.00004
1.00012
1.00026
1.00073
1.0015
1.00427
1.00853
1.02552
1.04732
1.16452
1.30107
2.1209
3.69266
8.93286
11.3153
11.1096
10.9396
11.0054
11.1938
11.3969
11.5208
11.6178
11.6957
11.7698
1.00001
1.00003
1.00011
1.00024
1.00068
1.00138
1.00394
1.0078
1.02377
1.04299
1.15419
1.2744
2.04814
3.46869
8.3477
11.2961
11.0539
10.8302
10.887
11.0565
11.2408
11.3446
11.4218
11.4813
11.548
1.00001
1.00003
1.0001
1.00022
1.00062
1.00127
1.00361
1.00715
1.02173
1.03931
1.14077
1.24883
1.94895
3.21403
7.64387
11.2884
10.9988
10.7062
10.7516
10.896
11.0524
11.1267
11.1705
11.192
11.2301
1.00001
1.00003
1.00009
1.0002
1.00057
1.00116
1.00328
1.00663
1.01939
1.03703
1.12278
1.2259
1.82469
2.93265
6.81677
11.2729
10.9459
10.5755
10.6048
10.7127
10.83
10.8602
10.8486
10.7931
10.7351
1.00001
1.00002
1.00008
1.00017
1.0005
1.00102
1.00288
1.00582
1.01695
1.03291
1.1056
1.19957
1.70013
2.64444
5.91461
11.1981
10.8756
10.4493
10.451
10.5082
10.5718
10.55
10.4557
10.2363
9.89838
1.00001
1.00004
1.00014
1.0003
1.00086
1.00177
1.00502
1.01005
1.03004
1.05603
1.19228
1.36619
2.3182
4.26442
10.3057
11.408
11.2548
11.1989
11.2838
11.5056
11.737
11.8877
12.0042
12.097
12.1697
1.00001
1.00004
1.00014
1.0003
1.00085
1.00175
1.00497
1.00996
1.02975
1.05553
1.19036
1.36201
2.30547
4.2261
10.2265
11.402
11.2478
11.1877
11.2729
11.4952
11.7266
11.8778
11.9961
12.0906
12.1651
1.00001
1.00004
1.00013
1.00029
1.00084
1.00172
1.00488
1.00977
1.02913
1.05452
1.18634
1.35353
2.2785
4.14538
10.0506
11.3875
11.2289
11.1558
11.239
11.4583
11.6872
11.8362
11.9535
12.047
12.121
1.00001
1.00004
1.00013
1.00028
1.00081
1.00166
1.00473
1.00948
1.02822
1.05288
1.18055
1.34053
2.23851
4.02706
9.77831
11.3665
11.1989
11.103
11.1821
11.3944
11.6178
11.7617
11.8754
11.9661
12.0399
1.00001
1.00004
1.00012
1.00027
1.00077
1.00159
1.00452
1.00905
1.02701
1.05039
1.17342
1.32265
2.18631
3.87726
9.4081
11.3406
11.1583
11.0308
11.1042
11.3068
11.522
11.6579
11.7653
11.8516
11.9261
1.00001
1.00003
1.00012
1.00025
1.00073
1.0015
1.00426
1.00852
1.02551
1.04728
1.16449
1.30094
2.12069
3.69192
8.9311
11.3154
11.1095
10.9394
11.0053
11.1937
11.3968
11.5206
11.6177
11.6956
11.7697
1.00001
1.00003
1.00011
1.00023
1.00067
1.00138
1.00393
1.00779
1.02376
1.04297
1.15415
1.2743
2.04792
3.46796
8.34594
11.2963
11.0539
10.83
10.8868
11.0564
11.2406
11.3445
11.4217
11.4811
11.5478
1.00001
1.00003
1.0001
1.00021
1.00061
1.00126
1.0036
1.00714
1.02172
1.03929
1.14072
1.24873
1.9487
3.21333
7.64205
11.2886
10.9988
10.7061
10.7514
10.8958
11.0523
11.1265
11.1704
11.1918
11.2299
1.00001
1.00002
1.00009
1.00019
1.00056
1.00115
1.00328
1.00662
1.01937
1.037
1.12275
1.2258
1.82447
2.93199
6.81494
11.2731
10.9459
10.5754
10.6047
10.7126
10.8299
10.8601
10.8485
10.7929
10.735
1
1.00002
1.00008
1.00017
1.00049
1.00101
1.00288
1.00581
1.01694
1.03288
1.10556
1.19949
1.69992
2.64384
5.91282
11.1981
10.8755
10.4492
10.4509
10.5081
10.5716
10.5498
10.4556
10.2361
9.89822
1
1.00002
1.00005
1.00017
1.00035
1.001
1.00203
1.0059
1.01119
1.03662
1.06301
1.23327
1.45778
2.52317
5.01242
10.8859
10.7225
10.3581
10.275
10.2936
10.2868
10.2039
9.95627
9.38233
7.94302
1
1.00002
1.00005
1.00015
1.00032
1.0009
1.00184
1.00524
1.01048
1.03125
1.05849
1.19877
1.38405
2.35206
4.35238
10.0982
10.457
10.2741
10.0988
10.0705
10.0071
9.83958
9.45792
8.69199
7.23955
1
1.00002
1.00004
1.00013
1.00027
1.00078
1.00159
1.00451
1.00906
1.02681
1.05049
1.17083
1.32158
2.16101
3.80182
8.96345
10.2856
10.1689
9.93702
9.84784
9.73557
9.49984
9.03359
8.27844
7.16748
1
1.00001
1.00003
1.00011
1.00023
1.00065
1.00132
1.00376
1.00742
1.0227
1.04075
1.14651
1.25835
1.99084
3.29437
7.71094
10.1713
10.0661
9.80909
9.63957
9.48241
9.20541
8.74058
8.06455
7.18454
1
1.00001
1.00003
1.00009
1.00019
1.00054
1.00112
1.00317
1.00639
1.01873
1.03576
1.11821
1.21878
1.78762
2.83548
6.41784
10.1073
9.99867
9.70646
9.45565
9.25877
8.97441
8.54503
7.95342
7.22429
1
1.00001
1.00003
1.00006
1.00017
1.00036
1.00102
1.00205
1.006
1.01123
1.03727
1.06367
1.23538
1.46501
2.51495
4.88382
9.92065
9.88971
9.65507
9.31415
9.07843
8.8001
8.411
7.89607
7.28061
1
1
1.00002
1.00005
1.00014
1.0003
1.00086
1.00176
1.00498
1.01001
1.02947
1.05593
1.18605
1.35833
2.25624
4.03763
9.16385
9.68105
9.52953
9.20234
8.93933
8.67137
8.3217
7.87747
7.34568
1
1
1.00002
1.00004
1.00011
1.00023
1.00067
1.00136
1.00388
1.00763
1.02348
1.0421
1.15137
1.27049
2.01736
3.36569
7.69538
9.43915
9.36096
9.13463
8.84714
8.58352
8.27093
7.88355
7.42509
0.999999
1
1.00001
1.00003
1.00007
1.00021
1.00043
1.00123
1.0024
1.00744
1.01308
1.04726
1.07805
1.29906
1.60828
2.95804
6.10425
9.30897
9.2948
9.13583
8.81808
8.54439
8.26357
7.91076
7.52596
0.999998
1
1
1.00002
1.00005
1.00016
1.00034
1.00098
1.00199
1.00566
1.01116
1.03422
1.0621
1.21508
1.43031
2.37463
4.44965
9.01959
9.2841
9.14191
8.8314
8.54905
8.2785
7.97594
7.66057
0.999996
0.999997
1
1.00001
1.00005
1.00011
1.00031
1.00064
1.00181
1.00362
1.01069
1.01996
1.0668
1.11837
1.42283
1.93303
3.80627
8.05936
9.20543
9.11516
8.86672
8.57708
8.32774
8.09185
7.82868
0.999995
0.999996
1
1.00001
1.00003
1.00008
1.00024
1.00049
1.00138
1.00278
1.00818
1.01519
1.05128
1.08716
1.32846
1.66632
3.14873
6.46965
9.04657
9.05967
8.9323
8.65793
8.43656
8.24727
8.02259
0.999994
0.999995
0.999997
1.00001
1.00002
1.00007
1.00015
1.00044
1.00091
1.00258
1.00521
1.01511
1.02956
1.09213
1.17869
1.58883
2.36937
4.81242
8.76606
9.10753
9.02481
8.82705
8.6236
8.44431
8.23537
0.999993
0.999994
0.999995
1
1.00001
1.00005
1.00011
1.00034
1.00069
1.00196
1.00398
1.0114
1.02264
1.06864
1.13309
1.43453
1.98846
3.86737
8.00815
9.1852
9.15969
9.05654
8.86181
8.67072
8.45518
0.999992
0.999993
0.999995
0.999998
1.00001
1.00003
1.0001
1.00021
1.0006
1.00123
1.0035
1.00689
1.02106
1.03779
1.13395
1.23806
1.87882
3.00553
6.59133
9.18517
9.37765
9.31036
9.14455
8.91071
8.66963
0.999992
0.999992
0.999994
0.999996
1.00001
1.00002
1.00007
1.00016
1.00047
1.00096
1.00272
1.0055
1.01581
1.03128
1.09589
1.18819
1.61755
2.43223
5.01763
9.13992
9.72002
9.63983
9.44184
9.15367
8.87589
0.999992
0.999992
0.999993
0.999996
1
1.00002
1.00004
1.00014
1.0003
1.00085
1.00174
1.00495
1.00989
1.02956
1.05512
1.18638
1.35934
2.23065
3.95933
8.72065
10.0007
9.93557
9.74264
9.39511
9.06756
0.999991
0.999992
0.999992
0.999994
0.999998
1.00001
1.00003
1.00011
1.00023
1.00066
1.00135
1.00387
1.00762
1.0234
1.04211
1.15073
1.26967
2.00982
3.34728
7.65365
10.2275
10.1963
10.0164
9.62698
9.23842
0.999991
0.999991
0.999992
0.999993
0.999997
1
1.00003
1.00007
1.0002
1.00042
1.00123
1.00238
1.00751
1.01304
1.04773
1.07892
1.30474
1.61963
3.01518
6.26153
10.5846
10.5352
10.2895
9.80007
9.38425
0.999991
0.999991
0.999992
0.999993
0.999995
1
1.00002
1.00007
1.00015
1.00045
1.00092
1.00264
1.00534
1.01552
1.03056
1.09536
1.1846
1.62
2.4494
5.19943
10.6661
10.7472
10.5111
9.99422
9.52532
0.999991
0.999991
0.999991
0.999993
0.999995
1
1.00001
1.00006
1.00013
1.00038
1.00079
1.00224
1.00456
1.01323
1.02613
1.08194
1.15547
1.53698
2.24494
4.75568
10.3823
10.8365
10.6218
10.136
9.64801
0.999991
0.999991
0.999991
0.999992
0.999995
0.999999
1.00002
1.00004
1.00013
1.00028
1.00081
1.00166
1.00478
1.00947
1.02909
1.05292
1.18885
1.35049
2.28808
4.13817
9.7728
10.9378
10.7369
10.2585
9.7523
0.999991
0.999991
0.999991
0.999992
0.999994
0.999998
1.00001
1.00004
1.00012
1.00025
1.00073
1.0015
1.0043
1.00862
1.02583
1.04838
1.16691
1.31075
2.14718
3.77255
9.05459
11.1039
10.8802
10.343
9.82623
0.999991
0.999991
0.999991
0.999992
0.999994
0.999997
1.00001
1.00003
1.0001
1.00022
1.00064
1.00132
1.0038
1.00751
1.02322
1.04176
1.15233
1.27054
2.04962
3.4748
8.38177
11.314
11.0193
10.3624
9.86338
0.999991
0.999991
0.999991
0.999992
0.999993
0.999997
1.00001
1.00003
1.00009
1.00019
1.00057
1.00116
1.00337
1.00662
1.02084
1.03704
1.1369
1.24194
1.9441
3.22
7.72358
11.5603
11.1566
10.3514
9.8794
0.999991
0.999991
0.999991
0.999992
0.999993
0.999997
1
1.00003
1.00006
1.00019
1.0004
1.0012
1.00225
1.00752
1.01275
1.04836
1.07988
1.31633
1.65533
3.16922
6.96288
11.8137
11.284
10.3594
9.89277
0.999991
0.999991
0.999991
0.999991
0.999993
0.999995
1
1.00002
1.00007
1.00016
1.00047
1.00096
1.00279
1.0055
1.01717
1.03076
1.1117
1.1987
1.74739
2.76014
6.3588
12.0223
11.387
10.3828
9.90656
0.999991
0.999991
0.999991
0.999991
0.999992
0.999996
1
1.00002
1.00006
1.00017
1.00036
1.00105
1.00211
1.0063
1.01173
1.04003
1.06806
1.25865
1.51888
2.72314
5.67527
12.0774
11.4485
10.4247
9.93559
0.999991
0.999991
0.999991
0.999991
0.999992
0.999996
1
1.00002
1.00005
1.00016
1.00034
1.00099
1.00202
1.0059
1.01136
1.03698
1.06428
1.24127
1.47482
2.62059
5.34135
11.8915
11.4075
10.4673
9.97748
0.999991
0.999991
0.999991
0.999991
0.999992
0.999995
1
1.00001
1.00006
1.00013
1.00039
1.0008
1.00233
1.00459
1.01431
1.02571
1.09251
1.16377
1.60281
2.3997
5.27277
11.5838
11.2765
10.5408
10.0245
0.999991
0.999991
0.999991
0.999991
0.999992
0.999995
1
1.00002
1.00005
1.00015
1.00031
1.0009
1.0018
1.00544
1.00995
1.0346
1.05829
1.22267
1.42745
2.50847
4.90471
11.3058
11.1585
10.6539
10.0816
0.999991
0.999991
0.999991
0.999991
0.999992
0.999994
1
1.00001
1.00005
1.00012
1.00036
1.00075
1.00217
1.00429
1.01328
1.02392
1.08587
1.15
1.55861
2.27641
4.93695
11.0159
11.006
10.6721
10.1113
0.999991
0.999991
0.999991
0.999991
0.999992
0.999994
1
1.00001
1.00005
1.00012
1.00035
1.00071
1.00207
1.00409
1.01273
1.02272
1.0825
1.14247
1.53816
2.22498
4.80605
10.7825
10.9542
10.6737
10.1289
0.999991
0.999991
0.999991
0.999991
0.999992
0.999995
0.999999
1.00002
1.00004
1.00014
1.00029
1.00084
1.00171
1.00501
1.00969
1.03123
1.05498
1.20364
1.38114
2.39152
4.44677
10.5471
10.9773
10.7031
10.1556
0.999991
0.999991
0.999991
0.999991
0.999992
0.999994
1
1.00001
1.00005
1.00011
1.00032
1.00065
1.00195
1.00367
1.01222
1.02088
1.07808
1.13275
1.51443
2.14195
4.59757
10.3458
10.9508
10.6849
10.1502
0.999991
0.999991
0.999991
0.999991
0.999992
0.999995
0.999999
1.00001
1.00004
1.00013
1.00028
1.0008
1.00163
1.00478
1.00925
1.02977
1.05245
1.19379
1.35965
2.32449
4.24651
10.1408
10.9762
10.7138
10.1785
0.999991
0.999991
0.999991
0.999991
0.999992
0.999994
1
1.00001
1.00005
1.00011
1.00032
1.00065
1.0019
1.00371
1.01167
1.02051
1.07538
1.12697
1.49459
2.07912
4.44573
9.96434
10.9379
10.6914
10.1813
0.999991
0.999991
0.999991
0.999991
0.999992
0.999994
1
1.00001
1.00005
1.00011
1.00031
1.00065
1.00187
1.00365
1.01149
1.0201
1.07406
1.12404
1.4862
2.05355
4.38359
9.82985
10.9429
10.6994
10.192
0.999991
0.999991
0.999991
0.999991
0.999992
0.999995
0.999999
1.00001
1.00004
1.00013
1.00028
1.0008
1.00163
1.00469
1.00929
1.02856
1.05191
1.18513
1.34491
2.26084
4.07359
9.74341
11.0263
10.7639
10.2162
0.999991
0.999991
0.999991
0.999991
0.999992
0.999995
0.999999
1.00002
1.00004
1.00013
1.00028
1.00081
1.00167
1.00475
1.00954
1.02834
1.05341
1.18083
1.34441
2.23823
4.02928
9.69435
11.0605
10.7844
10.2144
1
1.00002
1.00006
1.00017
1.00036
1.00101
1.00204
1.00591
1.01121
1.03664
1.06305
1.23333
1.45798
2.52338
5.01362
10.8866
10.7228
10.3581
10.2751
10.2938
10.2869
10.2041
9.95641
9.38246
7.94311
1
1.00002
1.00005
1.00016
1.00032
1.00091
1.00185
1.00525
1.01049
1.03126
1.05852
1.19882
1.38417
2.35234
4.35335
10.0997
10.4572
10.2742
10.099
10.0707
10.0073
9.83975
9.45807
8.69212
7.23963
1
1.00002
1.00005
1.00013
1.00028
1.00078
1.0016
1.00452
1.00907
1.02683
1.05052
1.17087
1.32171
2.16125
3.8026
8.96506
10.2858
10.169
9.93717
9.84805
9.73576
9.50002
9.03375
8.27858
7.1676
1
1.00002
1.00004
1.00011
1.00023
1.00065
1.00133
1.00377
1.00743
1.02271
1.04078
1.14655
1.25846
1.99105
3.29507
7.71262
10.1714
10.0662
9.80927
9.6398
9.48263
9.20561
8.74076
8.06472
7.18467
1
1.00001
1.00003
1.00009
1.0002
1.00055
1.00112
1.00318
1.0064
1.01874
1.03578
1.11824
1.21887
1.78784
2.8361
6.41959
10.1075
9.99888
9.70666
9.45589
9.25902
8.97463
8.54524
7.95363
7.22446
1
1.00001
1.00003
1.00006
1.00018
1.00037
1.00103
1.00206
1.00601
1.01125
1.03729
1.06371
1.23546
1.46526
2.51548
4.88576
9.9211
9.89016
9.65528
9.31438
9.07869
8.80037
8.41125
7.8963
7.28082
1
1.00001
1.00002
1.00005
1.00015
1.00031
1.00087
1.00177
1.00499
1.01002
1.02949
1.05596
1.1861
1.35849
2.25654
4.0386
9.1654
9.68155
9.52991
9.20258
8.93964
8.67168
8.32196
7.87771
7.34591
1
1.00001
1.00002
1.00004
1.00012
1.00024
1.00067
1.00137
1.00389
1.00764
1.0235
1.04213
1.15142
1.27061
2.0176
3.36649
7.69713
9.43967
9.36142
9.13501
8.84748
8.58384
8.27123
7.88381
7.42533
1
1.00001
1.00001
1.00004