/*--------------------------------*- C++ -*----------------------------------*\
| =========                 |                                                 |
| \\      /  F ield         | OpenFOAM: The Open Source CFD Toolbox           |
|  \\    /   O peration     | Version:  4.1                                   |
|   \\  /    A nd           | Web:      www.OpenFOAM.org                      |
|    \\/     M anipulation  |                                                 |
\*---------------------------------------------------------------------------*/
FoamFile
{
    version     2.0;
    format      ascii;
    class       volVectorField;
    location    "9.76";
    object      U;
}
// * * * * * * * * * * * * * * * * * * * * * * * * * * * * * * * * * * * * * //

dimensions      [0 1 -1 0 0 0 0];

internalField   nonuniform List<vector> 
52500
(
(2.99999 1.31432e-08 -0.00571427)
(2.99998 7.22233e-08 -0.00571443)
(2.99995 2.60879e-07 -0.0057147)
(2.99986 6.65774e-07 -0.00571552)
(2.99969 1.82946e-06 -0.00571704)
(2.99919 4.1675e-06 -0.00572166)
(2.99821 1.09993e-05 -0.00573057)
(2.99522 2.39301e-05 -0.00575561)
(2.9898 6.69919e-05 -0.00581334)
(2.97037 0.00013753 -0.00593746)
(2.93333 0.000422489 -0.00637244)
(2.80196 0.000995002 -0.00707664)
(2.42853 0.00298474 -0.00998431)
(1.56587 0.00794851 -0.0153767)
(0.659973 0.0200128 -0.018229)
(0.537469 0.0209336 -0.0184803)
(0.566802 0.0221016 -0.0185271)
(0.563031 0.0241496 -0.0186084)
(0.512178 0.0263531 -0.0187842)
(0.427066 0.0287307 -0.0189676)
(0.343938 0.0314635 -0.0191599)
(0.27401 0.0346438 -0.0193228)
(0.203584 0.0380519 -0.0194848)
(0.122839 0.0421188 -0.0196378)
(0.0547929 0.0482343 -0.0197919)
(2.99999 4.01153e-08 -0.00571426)
(2.99998 2.1929e-07 -0.00571443)
(2.99995 7.94047e-07 -0.00571469)
(2.99986 2.02315e-06 -0.00571551)
(2.99969 5.5615e-06 -0.00571701)
(2.9992 1.26515e-05 -0.00572159)
(2.99823 3.34257e-05 -0.00573041)
(2.99526 7.24131e-05 -0.00575523)
(2.9899 0.00020406 -0.00581227)
(2.97066 0.000415289 -0.00593538)
(2.93407 0.00129463 -0.00636529)
(2.80392 0.00302473 -0.00706082)
(2.43489 0.00921082 -0.00994328)
(1.57988 0.0244378 -0.0152942)
(0.668818 0.0605965 -0.0181313)
(0.53698 0.0608158 -0.0184051)
(0.567056 0.0619256 -0.0184491)
(0.563835 0.0658877 -0.0185219)
(0.512893 0.0700608 -0.0186905)
(0.42782 0.074574 -0.0188652)
(0.344612 0.0794903 -0.0190497)
(0.274002 0.0848159 -0.0192029)
(0.202285 0.0899194 -0.0193554)
(0.119782 0.0950201 -0.0194994)
(0.0509843 0.100492 -0.0196387)
(2.99999 7.64367e-08 -0.00571426)
(2.99998 3.70388e-07 -0.00571443)
(2.99995 1.37193e-06 -0.00571468)
(2.99987 3.48064e-06 -0.00571549)
(2.9997 9.57195e-06 -0.00571696)
(2.99921 2.17794e-05 -0.00572145)
(2.99826 5.73221e-05 -0.00573008)
(2.99536 0.000125055 -0.00575449)
(2.99009 0.000346052 -0.00581016)
(2.97126 0.000717594 -0.00593133)
(2.93558 0.0021652 -0.00635069)
(2.80802 0.00510942 -0.00702976)
(2.44838 0.0155222 -0.00985999)
(1.61048 0.0408407 -0.0151385)
(0.689362 0.103346 -0.0179942)
(0.537757 0.102612 -0.0183171)
(0.569733 0.104002 -0.0183586)
(0.568086 0.111005 -0.0184197)
(0.517358 0.11854 -0.0185824)
(0.432691 0.127079 -0.018747)
(0.349556 0.136236 -0.0189232)
(0.278305 0.145891 -0.0190695)
(0.205364 0.155216 -0.0192134)
(0.121235 0.163952 -0.0193443)
(0.0503864 0.17119 -0.0194734)
(2.99999 1.05128e-07 -0.00571426)
(2.99998 5.31817e-07 -0.00571442)
(2.99995 1.9879e-06 -0.00571467)
(2.99987 5.07286e-06 -0.00571545)
(2.99971 1.39699e-05 -0.00571687)
(2.99924 3.19096e-05 -0.00572123)
(2.99832 8.3416e-05 -0.00572958)
(2.9955 0.000185633 -0.0057533)
(2.99039 0.000491809 -0.00580703)
(2.97214 0.00107455 -0.00592485)
(2.93785 0.00297176 -0.00633036)
(2.81415 0.00723244 -0.00698203)
(2.46805 0.0215368 -0.00974256)
(1.65529 0.0556156 -0.0149153)
(0.718885 0.145278 -0.017824)
(0.536895 0.143432 -0.0182245)
(0.572555 0.145273 -0.0182578)
(0.573903 0.15555 -0.0183078)
(0.524021 0.166647 -0.0184574)
(0.440543 0.179454 -0.0186124)
(0.358053 0.193254 -0.0187731)
(0.286578 0.207876 -0.0189029)
(0.212514 0.222275 -0.0190487)
(0.12623 0.235482 -0.0191763)
(0.0519521 0.244968 -0.0193027)
(2.99999 1.2604e-07 -0.00571426)
(2.99998 6.9892e-07 -0.00571441)
(2.99995 2.60272e-06 -0.00571465)
(2.99988 6.68152e-06 -0.00571539)
(2.99972 1.84034e-05 -0.00571675)
(2.99927 4.21298e-05 -0.00572091)
(2.99839 0.000109664 -0.00572889)
(2.9957 0.000246491 -0.00575149)
(2.99083 0.000637506 -0.00580298)
(2.97329 0.00142985 -0.00591496)
(2.94087 0.00378149 -0.00630691)
(2.82225 0.00926481 -0.0069146)
(2.49299 0.0275504 -0.00960008)
(1.71157 0.0702815 -0.014632)
(0.75545 0.188585 -0.0176214)
(0.532875 0.184414 -0.0181338)
(0.574693 0.186248 -0.0181535)
(0.580658 0.19958 -0.0181905)
(0.532262 0.214043 -0.0183223)
(0.450782 0.231084 -0.018465)
(0.369637 0.249673 -0.0186215)
(0.298528 0.269594 -0.018733)
(0.223628 0.289636 -0.0188441)
(0.134546 0.308208 -0.0189607)
(0.0553845 0.320825 -0.0190825)
(3 1.57244e-07 -0.00571426)
(2.99998 8.71753e-07 -0.0057144)
(2.99996 3.25292e-06 -0.00571463)
(2.99988 8.37303e-06 -0.00571533)
(2.99974 2.31185e-05 -0.00571661)
(2.99931 5.32301e-05 -0.00572052)
(2.99849 0.000137816 -0.00572804)
(2.99594 0.000317199 -0.00574924)
(2.99138 0.000785236 -0.00579794)
(2.97472 0.00183881 -0.00590274)
(2.94457 0.00464784 -0.00627737)
(2.83238 0.0113613 -0.00683354)
(2.52411 0.0328303 -0.00941665)
(1.78379 0.0852911 -0.0142525)
(0.802248 0.233444 -0.0173715)
(0.52767 0.225397 -0.018036)
(0.577733 0.226784 -0.01805)
(0.589537 0.243064 -0.0180585)
(0.543051 0.260766 -0.0181863)
(0.464345 0.282139 -0.0182856)
(0.385208 0.306148 -0.0184266)
(0.314897 0.332437 -0.0185399)
(0.239338 0.359603 -0.0186418)
(0.146916 0.385623 -0.0187427)
(0.0611241 0.403694 -0.0188572)
(3 1.74019e-07 -0.00571425)
(2.99998 9.63742e-07 -0.00571439)
(2.99996 3.59898e-06 -0.0057146)
(2.99989 9.25439e-06 -0.00571524)
(2.99976 2.56e-05 -0.00571642)
(2.99937 5.88599e-05 -0.00572)
(2.99861 0.00015355 -0.00572698)
(2.99624 0.000349005 -0.0057459)
(2.9921 0.000893525 -0.00579234)
(2.97646 0.00202121 -0.00588461)
(2.94902 0.00549643 -0.00624337)
(2.84391 0.0126986 -0.00673606)
(2.56106 0.0395509 -0.00921473)
(1.87123 0.101037 -0.0137951)
(0.855291 0.281309 -0.0170744)
(0.51833 0.267405 -0.017936)
(0.580302 0.267009 -0.0179411)
(0.599788 0.285757 -0.0179303)
(0.556009 0.306413 -0.0180461)
(0.481377 0.332151 -0.0181392)
(0.405669 0.362278 -0.0182227)
(0.337358 0.396224 -0.0183005)
(0.261992 0.432755 -0.0183737)
(0.166033 0.469793 -0.0184478)
(0.0710001 0.498256 -0.0185362)
(3 1.71863e-07 -0.00571425)
(2.99999 9.51365e-07 -0.00571438)
(2.99996 3.53716e-06 -0.00571457)
(2.9999 9.03183e-06 -0.00571515)
(2.99978 2.48881e-05 -0.00571623)
(2.99942 5.63789e-05 -0.00571951)
(2.99873 0.000150564 -0.0057259)
(2.99656 0.000315435 -0.00574324)
(2.99278 0.000950006 -0.00578555)
(2.97849 0.0017692 -0.00587012)
(2.9537 0.00642236 -0.00619588)
(2.85846 0.0129573 -0.00664658)
(2.60616 0.047964 -0.00889026)
(1.97794 0.116566 -0.0131799)
(0.924739 0.3309 -0.0166955)
(0.514034 0.312343 -0.0178013)
(0.587815 0.308204 -0.0178032)
(0.614983 0.327558 -0.0177618)
(0.57365 0.350274 -0.0178566)
(0.503991 0.380645 -0.017947)
(0.432747 0.417717 -0.0180231)
(0.367731 0.460783 -0.0180547)
(0.294376 0.509407 -0.0180906)
(0.196244 0.562948 -0.0181181)
(0.0885385 0.612608 -0.0181671)
(3 1.95052e-07 -0.00571425)
(2.99999 1.07428e-06 -0.00571436)
(2.99997 3.9793e-06 -0.00571454)
(2.99991 1.01768e-05 -0.00571508)
(2.9998 2.78983e-05 -0.00571606)
(2.99947 6.33678e-05 -0.00571909)
(2.99883 0.000167572 -0.00572481)
(2.9969 0.000354718 -0.00574165)
(2.99332 0.00104632 -0.00577749)
(2.98094 0.00193014 -0.00586153)
(2.95857 0.00712403 -0.00612899)
(2.8757 0.013743 -0.00655893)
(2.65897 0.0523245 -0.0084518)
(2.10418 0.125626 -0.0123789)
(1.01841 0.370452 -0.0162274)
(0.526517 0.35842 -0.017637)
(0.60599 0.352452 -0.0176463)
(0.638929 0.36896 -0.0175953)
(0.599615 0.39223 -0.0176769)
(0.535515 0.427138 -0.0177227)
(0.469521 0.471941 -0.0177654)
(0.40928 0.524774 -0.0177604)
(0.34141 0.58787 -0.0177267)
(0.247092 0.667115 -0.0176615)
(0.122409 0.760595 -0.0175418)
(3 3.88419e-07 -0.00571425)
(2.99999 7.96175e-07 -0.00571435)
(2.99997 5.8212e-06 -0.0057145)
(2.99992 9.17454e-06 -0.00571496)
(2.99982 3.99681e-05 -0.00571584)
(2.99954 5.95229e-05 -0.00571845)
(2.99897 0.000243132 -0.00572352)
(2.99729 0.000332349 -0.00573802)
(2.9941 0.00153683 -0.00576946)
(2.98349 0.00148412 -0.00584431)
(2.96377 0.0104119 -0.00606827)
(2.89337 0.00842136 -0.00646372)
(2.71212 0.0656838 -0.00801745)
(2.23764 0.116282 -0.011614)
(1.13575 0.382138 -0.0155979)
(0.570029 0.404641 -0.0173169)
(0.639896 0.405295 -0.0173651)
(0.673524 0.411298 -0.0173516)
(0.637167 0.434919 -0.0174618)
(0.579213 0.471709 -0.0174862)
(0.51842 0.523458 -0.0174918)
(0.464525 0.585305 -0.0174382)
(0.410165 0.667558 -0.0173134)
(0.335698 0.789828 -0.0170864)
(0.188534 0.997468 -0.0166505)
(2.99999 1.27712e-08 -2.43505e-09)
(2.99998 6.96437e-08 -8.64866e-09)
(2.99995 2.58566e-07 -9.99255e-09)
(2.99986 6.62692e-07 -1.60145e-08)
(2.99969 1.82653e-06 -1.64362e-08)
(2.99919 4.1648e-06 -2.20934e-08)
(2.99821 1.09984e-05 -2.38022e-08)
(2.99521 2.39325e-05 -3.26883e-08)
(2.9898 6.70089e-05 -4.59865e-08)
(2.97036 0.000137569 -7.59187e-08)
(2.93331 0.000422634 -1.54136e-07)
(2.80191 0.000995431 -3.70623e-07)
(2.42837 0.00298602 -7.18014e-07)
(1.56549 0.00795281 -2.08606e-06)
(0.659769 0.0200188 -1.8303e-06)
(0.537514 0.0209394 1.42988e-07)
(0.566807 0.0221066 6.00801e-08)
(0.563001 0.0241536 -1.14036e-07)
(0.512132 0.0263569 -1.41691e-07)
(0.427011 0.0287357 -1.59698e-07)
(0.343885 0.0314703 -1.11454e-07)
(0.273952 0.0346502 -7.12322e-08)
(0.203523 0.0380538 -4.14188e-08)
(0.122787 0.0421108 -5.72587e-09)
(0.0547625 0.0482115 3.45808e-08)
(2.99999 3.88319e-08 -2.4425e-09)
(2.99998 2.11998e-07 -8.68983e-09)
(2.99995 7.86969e-07 -9.99274e-09)
(2.99986 2.01462e-06 -1.6028e-08)
(2.99969 5.55356e-06 -1.64352e-08)
(2.9992 1.26455e-05 -2.20907e-08)
(2.99823 3.34263e-05 -2.37706e-08)
(2.99526 7.24305e-05 -3.2623e-08)
(2.98989 0.000204119 -4.57269e-08)
(2.97065 0.00041546 -7.53426e-08)
(2.93405 0.00129512 -1.52524e-07)
(2.80387 0.00302616 -3.64647e-07)
(2.43473 0.00921476 -7.07289e-07)
(1.5795 0.0244512 -2.05377e-06)
(0.668614 0.0606106 -1.82456e-06)
(0.537023 0.0608263 1.41511e-07)
(0.567058 0.0619324 5.50583e-08)
(0.563802 0.0658929 -1.18858e-07)
(0.512846 0.0700662 -1.44317e-07)
(0.427768 0.0745819 -1.59865e-07)
(0.344566 0.079499 -1.11099e-07)
(0.27396 0.0848205 -7.30461e-08)
(0.202247 0.0899147 -4.55115e-08)
(0.119756 0.0950005 -1.35505e-08)
(0.0509697 0.100452 2.0454e-08)
(2.99999 6.67965e-08 -2.46067e-09)
(2.99998 3.64621e-07 -8.76049e-09)
(2.99995 1.35368e-06 -1.00019e-08)
(2.99986 3.46592e-06 -1.60395e-08)
(2.9997 9.54821e-06 -1.64275e-08)
(2.99921 2.17537e-05 -2.20591e-08)
(2.99826 5.72839e-05 -2.36813e-08)
(2.99535 0.000124953 -3.238e-08)
(2.99008 0.000346063 -4.51788e-08)
(2.97125 0.000716934 -7.36669e-08)
(2.93556 0.00216676 -1.4859e-07)
(2.80797 0.00510993 -3.52445e-07)
(2.44822 0.0155306 -6.83275e-07)
(1.6101 0.040877 -1.98497e-06)
(0.689149 0.103386 -1.8391e-06)
(0.537784 0.102638 1.26561e-07)
(0.569726 0.104015 4.0204e-08)
(0.568048 0.111013 -1.25697e-07)
(0.517312 0.118547 -1.46204e-07)
(0.432647 0.127088 -1.5546e-07)
(0.349523 0.136244 -1.09444e-07)
(0.278279 0.145892 -7.80517e-08)
(0.205344 0.155205 -5.63461e-08)
(0.121225 0.163924 -3.3883e-08)
(0.0503815 0.17114 -1.2739e-08)
(2.99999 9.7528e-08 -2.63614e-09)
(2.99998 5.31245e-07 -8.63208e-09)
(2.99995 1.9748e-06 -1.02109e-08)
(2.99987 5.06305e-06 -1.59896e-08)
(2.99971 1.39499e-05 -1.65975e-08)
(2.99924 3.18847e-05 -2.21604e-08)
(2.99831 8.33747e-05 -2.40244e-08)
(2.9955 0.000185523 -3.39853e-08)
(2.99039 0.000491804 -4.36025e-08)
(2.97213 0.0010739 -8.87373e-08)
(2.93783 0.00297338 -1.13155e-07)
(2.81411 0.00723341 -3.80205e-07)
(2.46793 0.0215463 -6.02862e-07)
(1.65501 0.0556533 -1.70198e-06)
(0.718743 0.145323 -1.81707e-06)
(0.536977 0.143464 8.57739e-08)
(0.57259 0.14529 -4.24852e-09)
(0.573904 0.15556 -1.4477e-07)
(0.524011 0.166654 -1.55051e-07)
(0.440532 0.179462 -1.53824e-07)
(0.358047 0.193258 -1.14908e-07)
(0.286575 0.207873 -9.10467e-08)
(0.212513 0.22226 -7.56881e-08)
(0.126232 0.23545 -6.30959e-08)
(0.0519534 0.244916 -5.42396e-08)
(2.99999 1.28631e-07 -2.61357e-09)
(2.99998 7.0006e-07 -8.64219e-09)
(2.99995 2.60313e-06 -1.02159e-08)
(2.99987 6.67822e-06 -1.60084e-08)
(2.99972 1.83919e-05 -1.66139e-08)
(2.99927 4.20983e-05 -2.21834e-08)
(2.99839 0.000109598 -2.40092e-08)
(2.99569 0.000246251 -3.38054e-08)
(2.99083 0.000637419 -4.32022e-08)
(2.97328 0.0014284 -8.64605e-08)
(2.94085 0.00378259 -1.081e-07)
(2.82221 0.00926582 -3.6072e-07)
(2.49288 0.027558 -5.70409e-07)
(1.7113 0.0703026 -1.60849e-06)
(0.755314 0.188614 -1.8325e-06)
(0.532963 0.184443 7.67909e-08)
(0.57474 0.186268 -2.72059e-08)
(0.580679 0.199594 -1.53304e-07)
(0.532277 0.214054 -1.56003e-07)
(0.450796 0.231094 -1.47651e-07)
(0.369653 0.249678 -1.20994e-07)
(0.298543 0.26959 -1.06271e-07)
(0.223641 0.28962 -9.70108e-08)
(0.134556 0.308177 -9.23424e-08)
(0.0553897 0.320776 -9.27991e-08)
(2.99999 1.611e-07 -2.58453e-09)
(2.99998 8.734e-07 -8.65467e-09)
(2.99996 3.25777e-06 -1.02332e-08)
(2.99988 8.37674e-06 -1.60661e-08)
(2.99973 2.31245e-05 -1.67713e-08)
(2.99931 5.32361e-05 -2.25741e-08)
(2.99848 0.00013783 -2.47539e-08)
(2.99594 0.000317229 -3.75052e-08)
(2.99138 0.000785311 -4.09392e-08)
(2.97471 0.00183931 -1.15397e-07)
(2.94455 0.0046468 -6.99471e-08)
(2.83234 0.0113639 -3.76847e-07)
(2.524 0.0328336 -5.16076e-07)
(1.78353 0.0853007 -1.55966e-06)
(0.802126 0.233455 -1.88623e-06)
(0.527766 0.225419 9.49708e-08)
(0.577786 0.226804 -3.46863e-08)
(0.589567 0.243081 -1.54741e-07)
(0.543079 0.26078 -1.53195e-07)
(0.464374 0.282151 -1.40179e-07)
(0.385237 0.306154 -1.24134e-07)
(0.314923 0.332434 -1.17421e-07)
(0.23936 0.359589 -1.15073e-07)
(0.146932 0.385596 -1.17497e-07)
(0.061132 0.403652 -1.25614e-07)
(3 1.78178e-07 -2.53651e-09)
(2.99998 9.66563e-07 -8.67677e-09)
(2.99996 3.60631e-06 -1.01659e-08)
(2.99989 9.26521e-06 -1.60252e-08)
(2.99976 2.56246e-05 -1.65775e-08)
(2.99936 5.89124e-05 -2.21835e-08)
(2.99861 0.000153666 -2.38677e-08)
(2.99623 0.000349383 -3.3528e-08)
(2.9921 0.000893847 -4.23711e-08)
(2.97645 0.0020238 -7.81835e-08)
(2.949 0.00549524 -1.36915e-07)
(2.84387 0.0127041 -3.01675e-07)
(2.56094 0.0395477 -5.49695e-07)
(1.87096 0.10104 -1.59151e-06)
(0.85516 0.281301 -1.9967e-06)
(0.518416 0.267413 1.36383e-07)
(0.580347 0.267024 -2.16219e-08)
(0.599814 0.285772 -1.48672e-07)
(0.556039 0.306428 -1.45793e-07)
(0.481411 0.332163 -1.32792e-07)
(0.405703 0.362285 -1.24907e-07)
(0.33739 0.396224 -1.25006e-07)
(0.262019 0.432745 -1.26886e-07)
(0.166052 0.469772 -1.34855e-07)
(0.0710096 0.498223 -1.49725e-07)
(3 1.74421e-07 -2.50098e-09)
(2.99998 9.55977e-07 -8.67101e-09)
(2.99996 3.53938e-06 -1.01535e-08)
(2.9999 9.03856e-06 -1.59879e-08)
(2.99978 2.48983e-05 -1.64922e-08)
(2.99942 5.64039e-05 -2.19871e-08)
(2.99873 0.000150612 -2.34527e-08)
(2.99655 0.000315569 -3.21277e-08)
(2.99278 0.000950234 -4.16868e-08)
(2.97849 0.00176916 -7.06266e-08)
(2.95368 0.00642449 -1.36271e-07)
(2.85842 0.0129597 -2.63331e-07)
(2.60604 0.047966 -6.49456e-07)
(1.97766 0.116577 -1.57379e-06)
(0.92458 0.330896 -2.21418e-06)
(0.51409 0.312344 1.59893e-07)
(0.587839 0.308212 -1.65978e-09)
(0.614994 0.32757 -1.37565e-07)
(0.573671 0.350287 -1.34821e-07)
(0.504019 0.380656 -1.23411e-07)
(0.432779 0.417724 -1.20797e-07)
(0.367762 0.460784 -1.25879e-07)
(0.294403 0.509401 -1.32397e-07)
(0.196264 0.562934 -1.44205e-07)
(0.0885492 0.612585 -1.64484e-07)
(3 1.94362e-07 -2.4851e-09)
(2.99999 1.07884e-06 -8.62913e-09)
(2.99997 3.97476e-06 -1.02067e-08)
(2.99991 1.01741e-05 -1.59454e-08)
(2.9998 2.78945e-05 -1.64911e-08)
(2.99947 6.33765e-05 -2.18756e-08)
(2.99882 0.000167612 -2.33436e-08)
(2.9969 0.000354851 -3.17347e-08)
(2.99331 0.0010466 -4.03859e-08)
(2.98093 0.00193068 -8.18999e-08)
(2.95856 0.007126 -1.01279e-07)
(2.87566 0.0137455 -2.85503e-07)
(2.65887 0.0523325 -5.90157e-07)
(2.10391 0.125645 -1.53261e-06)
(1.01825 0.370465 -2.4185e-06)
(0.526545 0.35841 1.46845e-07)
(0.605994 0.352439 -2.68525e-09)
(0.638926 0.368961 -1.25463e-07)
(0.599623 0.392238 -1.25467e-07)
(0.535532 0.427145 -1.22495e-07)
(0.469545 0.471945 -1.21559e-07)
(0.409307 0.524775 -1.27431e-07)
(0.341436 0.587867 -1.32643e-07)
(0.247112 0.667107 -1.44562e-07)
(0.122422 0.760583 -1.65567e-07)
(3 3.73814e-07 -2.5148e-09)
(2.99999 8.46251e-07 -8.56972e-09)
(2.99997 5.7071e-06 -1.03112e-08)
(2.99992 9.20378e-06 -1.59716e-08)
(2.99982 3.98389e-05 -1.6501e-08)
(2.99953 5.957e-05 -2.17419e-08)
(2.99897 0.000243065 -2.28124e-08)
(2.99728 0.000332575 -3.02874e-08)
(2.99409 0.00153688 -3.88628e-08)
(2.98348 0.00148611 -6.53802e-08)
(2.96375 0.0104136 -1.10156e-07)
(2.89334 0.00842903 -2.50662e-07)
(2.71202 0.065695 -5.72657e-07)
(2.23737 0.116349 -1.45696e-06)
(1.13554 0.382254 -2.63611e-06)
(0.569976 0.404647 -1.91242e-08)
(0.639866 0.405263 -8.6754e-08)
(0.673506 0.411291 -8.85743e-08)
(0.637156 0.434918 -1.06834e-07)
(0.579214 0.471709 -1.28699e-07)
(0.518432 0.523457 -1.26579e-07)
(0.464545 0.585303 -1.28246e-07)
(0.410188 0.667556 -1.32804e-07)
(0.335718 0.789824 -1.40119e-07)
(0.18855 0.997466 -1.49472e-07)
(2.99999 1.27712e-08 -8.08048e-13)
(2.99998 6.96434e-08 -3.9439e-12)
(2.99995 2.58565e-07 -1.08339e-11)
(2.99986 6.62689e-07 -2.30123e-11)
(2.99969 1.82653e-06 -5.74283e-11)
(2.99919 4.16479e-06 -1.13374e-10)
(2.99821 1.09984e-05 -3.10213e-10)
(2.99521 2.39325e-05 -5.81033e-10)
(2.98979 6.70092e-05 -1.92208e-09)
(2.97036 0.000137569 -3.11943e-09)
(2.93331 0.000422637 -1.21516e-08)
(2.80191 0.000995444 -2.51057e-08)
(2.42835 0.00298605 -6.76135e-08)
(1.56546 0.00795295 -1.72518e-07)
(0.659751 0.0200188 -1.79242e-07)
(0.537516 0.0209395 -2.6832e-09)
(0.566808 0.0221066 -7.95228e-09)
(0.562999 0.0241537 -2.09454e-08)
(0.512129 0.0263569 -2.28955e-08)
(0.427008 0.0287357 -2.40038e-08)
(0.343882 0.0314703 -2.07643e-08)
(0.27395 0.0346503 -1.85554e-08)
(0.203521 0.0380538 -1.74277e-08)
(0.122786 0.0421105 -1.62122e-08)
(0.0547617 0.0482108 -1.49944e-08)
(2.99999 3.88316e-08 -8.0979e-13)
(2.99998 2.11996e-07 -3.95121e-12)
(2.99995 7.86965e-07 -1.08535e-11)
(2.99986 2.01461e-06 -2.30576e-11)
(2.99969 5.55355e-06 -5.75064e-11)
(2.9992 1.26455e-05 -1.13572e-10)
(2.99823 3.34263e-05 -3.10083e-10)
(2.99526 7.24306e-05 -5.81397e-10)
(2.98989 0.00020412 -1.91611e-09)
(2.97065 0.000415463 -3.10888e-09)
(2.93404 0.00129513 -1.21131e-08)
(2.80386 0.00302621 -2.48857e-08)
(2.43472 0.00921487 -6.73824e-08)
(1.57947 0.0244516 -1.71519e-07)
(0.668595 0.0606106 -1.80364e-07)
(0.537025 0.0608263 -2.40609e-09)
(0.567058 0.0619324 -7.99268e-09)
(0.5638 0.0658928 -2.11342e-08)
(0.512843 0.070066 -2.29626e-08)
(0.427765 0.0745818 -2.39244e-08)
(0.344564 0.079499 -2.06817e-08)
(0.273958 0.0848204 -1.85109e-08)
(0.202245 0.0899143 -1.74419e-08)
(0.119755 0.0949997 -1.62988e-08)
(0.0509692 0.100451 -1.52272e-08)
(2.99999 6.67946e-08 -8.13924e-13)
(2.99998 3.6461e-07 -3.9727e-12)
(2.99995 1.35364e-06 -1.08992e-11)
(2.99986 3.46582e-06 -2.31518e-11)
(2.9997 9.54795e-06 -5.76264e-11)
(2.99921 2.1753e-05 -1.13797e-10)
(2.99826 5.72826e-05 -3.09586e-10)
(2.99535 0.000124948 -5.79708e-10)
(2.99008 0.000346061 -1.90421e-09)
(2.97125 0.000716902 -3.07211e-09)
(2.93555 0.00216681 -1.20102e-08)
(2.80797 0.00510992 -2.44546e-08)
(2.44821 0.0155309 -6.68804e-08)
(1.61007 0.0408782 -1.69636e-07)
(0.68913 0.103386 -1.84588e-07)
(0.537787 0.102638 -2.26595e-09)
(0.569725 0.104015 -8.28401e-09)
(0.568046 0.111013 -2.15115e-08)
(0.517309 0.118546 -2.31147e-08)
(0.432644 0.127087 -2.37681e-08)
(0.349521 0.136244 -2.05905e-08)
(0.278278 0.145891 -1.86762e-08)
(0.205344 0.155204 -1.77201e-08)
(0.121224 0.163923 -1.68182e-08)
(0.0503813 0.171138 -1.60826e-08)
(2.99999 9.75258e-08 -8.54119e-13)
(2.99998 5.31232e-07 -4.1509e-12)
(2.99995 1.97475e-06 -1.149e-11)
(2.99987 5.06293e-06 -2.44964e-11)
(2.99971 1.39496e-05 -6.13625e-11)
(2.99924 3.18839e-05 -1.22589e-10)
(2.99831 8.33732e-05 -3.26757e-10)
(2.9955 0.000185518 -6.61839e-10)
(2.99039 0.000491802 -1.85234e-09)
(2.97213 0.00107387 -3.78302e-09)
(2.93783 0.00297342 -1.05815e-08)
(2.8141 0.00723342 -2.58172e-08)
(2.46791 0.0215465 -6.44512e-08)
(1.65498 0.0556545 -1.59187e-07)
(0.718726 0.145323 -1.89925e-07)
(0.536981 0.143464 -2.67005e-09)
(0.572592 0.14529 -9.65917e-09)
(0.573903 0.15556 -2.25055e-08)
(0.524009 0.166654 -2.36093e-08)
(0.44053 0.179462 -2.3786e-08)
(0.358046 0.193258 -2.07325e-08)
(0.286574 0.207872 -1.91084e-08)
(0.212512 0.222259 -1.83073e-08)
(0.126232 0.235449 -1.77006e-08)
(0.0519533 0.244914 -1.73011e-08)
(2.99999 1.28628e-07 -8.66821e-13)
(2.99998 7.00045e-07 -4.21292e-12)
(2.99995 2.60307e-06 -1.16643e-11)
(2.99987 6.67806e-06 -2.48687e-11)
(2.99972 1.83914e-05 -6.21168e-11)
(2.99927 4.20972e-05 -1.23941e-10)
(2.99839 0.000109595 -3.28905e-10)
(2.99569 0.000246243 -6.61513e-10)
(2.99083 0.000637413 -1.85714e-09)
(2.97328 0.00142835 -3.73505e-09)
(2.94085 0.0037826 -1.05671e-08)
(2.82221 0.00926583 -2.5185e-08)
(2.49286 0.0275581 -6.45358e-08)
(1.71127 0.070303 -1.58394e-07)
(0.755297 0.188613 -1.99474e-07)
(0.532968 0.184443 -8.62692e-10)
(0.574742 0.186268 -9.84993e-09)
(0.580678 0.199594 -2.31306e-08)
(0.532276 0.214054 -2.38382e-08)
(0.450795 0.231094 -2.35983e-08)
(0.369653 0.249677 -2.10089e-08)
(0.298543 0.269589 -1.97253e-08)
(0.223641 0.289619 -1.89896e-08)
(0.134556 0.308175 -1.85702e-08)
(0.0553898 0.320774 -1.84038e-08)
(2.99999 1.61099e-07 -9.23936e-13)
(2.99998 8.73399e-07 -4.43635e-12)
(2.99996 3.25777e-06 -1.25135e-11)
(2.99988 8.37673e-06 -2.68405e-11)
(2.99973 2.31245e-05 -6.79515e-11)
(2.99931 5.32359e-05 -1.38205e-10)
(2.99848 0.000137829 -3.57611e-10)
(2.99594 0.000317227 -7.98863e-10)
(2.99137 0.000785309 -1.79417e-09)
(2.97471 0.00183931 -4.80631e-09)
(2.94455 0.00464675 -9.44689e-09)
(2.83233 0.0113639 -2.57041e-08)
(2.52399 0.0328338 -6.47082e-08)
(1.7835 0.0853006 -1.61139e-07)
(0.802109 0.233453 -2.14664e-07)
(0.527771 0.225418 2.46305e-09)
(0.577787 0.226803 -9.33418e-09)
(0.589566 0.243081 -2.33779e-08)
(0.543079 0.26078 -2.38815e-08)
(0.464374 0.28215 -2.33216e-08)
(0.385237 0.306153 -2.10944e-08)
(0.314923 0.332433 -2.00522e-08)
(0.239361 0.359588 -1.95336e-08)
(0.146932 0.385595 -1.93213e-08)
(0.0611321 0.40365 -1.9338e-08)
(3 1.78184e-07 -8.7237e-13)
(2.99998 9.66593e-07 -4.22171e-12)
(2.99996 3.60642e-06 -1.17569e-11)
(2.99989 9.26551e-06 -2.51296e-11)
(2.99976 2.56255e-05 -6.30293e-11)
(2.99936 5.89144e-05 -1.26792e-10)
(2.99861 0.000153671 -3.34231e-10)
(2.99623 0.000349398 -6.92421e-10)
(2.9921 0.00089386 -1.85389e-09)
(2.97645 0.00202389 -3.81117e-09)
(2.949 0.00549522 -1.14963e-08)
(2.84387 0.0127044 -2.47641e-08)
(2.56093 0.0395472 -6.27926e-08)
(1.87093 0.101039 -1.70007e-07)
(0.855143 0.281298 -2.33675e-07)
(0.518422 0.267412 6.55495e-09)
(0.580349 0.267023 -8.33425e-09)
(0.599814 0.285771 -2.34431e-08)
(0.556038 0.306427 -2.38107e-08)
(0.481411 0.332163 -2.32405e-08)
(0.405703 0.362284 -2.13649e-08)
(0.33739 0.396223 -2.05585e-08)
(0.26202 0.432744 -1.99721e-08)
(0.166052 0.469771 -1.97834e-08)
(0.0710098 0.498222 -1.99293e-08)
(3 1.74426e-07 -7.92444e-13)
(2.99998 9.56007e-07 -3.88258e-12)
(2.99996 3.5395e-06 -1.05906e-11)
(2.9999 9.03885e-06 -2.24759e-11)
(2.99978 2.48992e-05 -5.56329e-11)
(2.99942 5.64059e-05 -1.09597e-10)
(2.99873 0.000150617 -2.97889e-10)
(2.99655 0.000315582 -5.55604e-10)
(2.99278 0.000950251 -1.82924e-09)
(2.97849 0.00176927 -3.01204e-09)
(2.95368 0.00642448 -1.17589e-08)
(2.85842 0.0129601 -2.02253e-08)
(2.60603 0.0479653 -7.9398e-08)
(1.97762 0.116577 -1.71329e-07)
(0.92456 0.330893 -2.64217e-07)
(0.514093 0.312342 9.73032e-09)
(0.587839 0.30821 -5.95714e-09)
(0.614992 0.327569 -2.29433e-08)
(0.57367 0.350286 -2.33434e-08)
(0.504019 0.380656 -2.29367e-08)
(0.432779 0.417723 -2.13585e-08)
(0.367762 0.460783 -2.0728e-08)
(0.294404 0.5094 -2.03245e-08)
(0.196265 0.562933 -2.00007e-08)
(0.0885494 0.612584 -2.01844e-08)
(3 1.94364e-07 -7.4144e-13)
(2.99999 1.07886e-06 -3.65103e-12)
(2.99997 3.97481e-06 -9.82159e-12)
(2.99991 1.01742e-05 -2.09333e-11)
(2.9998 2.78948e-05 -5.065e-11)
(2.99947 6.33772e-05 -1.00553e-10)
(2.99882 0.000167613 -2.65141e-10)
(2.9969 0.000354854 -5.01977e-10)
(2.99331 0.0010466 -1.77113e-09)
(2.98093 0.0019307 -1.60679e-09)
(2.95856 0.00712602 -1.41513e-08)
(2.87566 0.0137457 -1.66248e-08)
(2.65886 0.052333 -8.30252e-08)
(2.10388 0.125646 -1.723e-07)
(1.01822 0.370464 -2.97595e-07)
(0.526543 0.358406 9.25835e-09)
(0.605991 0.352435 -4.78717e-09)
(0.638922 0.368959 -2.18493e-08)
(0.59962 0.392236 -2.28084e-08)
(0.53553 0.427143 -2.36659e-08)
(0.469545 0.471944 -2.20057e-08)
(0.409307 0.524773 -2.13017e-08)
(0.341437 0.587865 -2.06278e-08)
(0.247112 0.667106 -1.97461e-08)
(0.122422 0.760581 -1.95813e-08)
(3 3.73822e-07 -7.38723e-13)
(2.99999 8.46296e-07 -3.61178e-12)
(2.99997 5.70726e-06 -9.80324e-12)
(2.99992 9.20418e-06 -2.08106e-11)
(2.99982 3.98401e-05 -5.13446e-11)
(2.99953 5.95722e-05 -1.02006e-10)
(2.99897 0.000243073 -2.74044e-10)
(2.99728 0.000332582 -5.39752e-10)
(2.99409 0.00153695 -1.68888e-09)
(2.98348 0.00148608 -2.63127e-09)
(2.96375 0.010414 -1.19938e-08)
(2.89334 0.00842927 -1.81359e-08)
(2.71201 0.0656972 -7.60287e-08)
(2.23734 0.116356 -1.68948e-07)
(1.13551 0.382267 -3.31105e-07)
(0.569964 0.404646 -1.08857e-08)
(0.639858 0.405258 -1.63541e-08)
(0.6735 0.411288 -1.85991e-08)
(0.637151 0.434915 -2.16831e-08)
(0.57921 0.471706 -2.53232e-08)
(0.51843 0.523455 -2.34316e-08)
(0.464544 0.585301 -2.26212e-08)
(0.410188 0.667554 -2.11495e-08)
(0.335719 0.789823 -1.91485e-08)
(0.18855 0.997466 -1.75783e-08)
(2.99999 1.27711e-08 -1.09255e-13)
(2.99998 6.96433e-08 -4.8698e-13)
(2.99995 2.58565e-07 -1.62494e-12)
(2.99986 6.62689e-07 -3.50039e-12)
(2.99969 1.82653e-06 -1.01899e-11)
(2.99919 4.16479e-06 -2.06712e-11)
(2.99821 1.09984e-05 -6.14643e-11)
(2.99521 2.39325e-05 -1.1624e-10)
(2.98979 6.70092e-05 -3.99822e-10)
(2.97036 0.000137569 -6.46407e-10)
(2.93331 0.000422638 -2.58045e-09)
(2.8019 0.000995446 -5.32199e-09)
(2.42835 0.00298606 -1.45109e-08)
(1.56545 0.00795297 -3.71001e-08)
(0.659748 0.0200188 -3.89396e-08)
(0.537517 0.0209395 -1.06135e-09)
(0.566808 0.0221066 -2.0674e-09)
(0.562999 0.0241537 -4.74002e-09)
(0.512129 0.0263569 -5.13619e-09)
(0.427008 0.0287357 -5.32219e-09)
(0.343882 0.0314703 -4.57852e-09)
(0.273949 0.0346503 -4.0815e-09)
(0.20352 0.0380538 -3.83495e-09)
(0.122786 0.0421105 -3.57791e-09)
(0.0547615 0.0482107 -3.32832e-09)
(2.99999 3.88316e-08 -1.09547e-13)
(2.99998 2.11996e-07 -4.88166e-13)
(2.99995 7.86964e-07 -1.62934e-12)
(2.99986 2.01461e-06 -3.51114e-12)
(2.99969 5.55355e-06 -1.02132e-11)
(2.9992 1.26455e-05 -2.0729e-11)
(2.99823 3.34263e-05 -6.14928e-11)
(2.99526 7.24306e-05 -1.16441e-10)
(2.98989 0.00020412 -3.98889e-10)
(2.97065 0.000415463 -6.45089e-10)
(2.93404 0.00129513 -2.57387e-09)
(2.80386 0.00302621 -5.28106e-09)
(2.43471 0.00921488 -1.44708e-08)
(1.57946 0.0244517 -3.69145e-08)
(0.668592 0.0606106 -3.92069e-08)
(0.537026 0.0608263 -1.00246e-09)
(0.567058 0.0619324 -2.07315e-09)
(0.563799 0.0658928 -4.77801e-09)
(0.512843 0.070066 -5.14883e-09)
(0.427765 0.0745818 -5.3043e-09)
(0.344564 0.079499 -4.55908e-09)
(0.273958 0.0848204 -4.06891e-09)
(0.202245 0.0899143 -3.83162e-09)
(0.119755 0.0949996 -3.58822e-09)
(0.0509692 0.10045 -3.36426e-09)
(2.99999 6.67943e-08 -1.10337e-13)
(2.99998 3.64609e-07 -4.92264e-13)
(2.99995 1.35364e-06 -1.64024e-12)
(2.99986 3.46581e-06 -3.53512e-12)
(2.9997 9.54791e-06 -1.02551e-11)
(2.99921 2.17529e-05 -2.08118e-11)
(2.99826 5.72824e-05 -6.14999e-11)
(2.99535 0.000124947 -1.16272e-10)
(2.99008 0.000346061 -3.9715e-10)
(2.97125 0.000716897 -6.38322e-10)
(2.93555 0.00216682 -2.55698e-09)
(2.80797 0.00510992 -5.19791e-09)
(2.44821 0.0155309 -1.43897e-08)
(1.61007 0.0408784 -3.65671e-08)
(0.689127 0.103386 -4.01735e-08)
(0.537787 0.102638 -9.73677e-10)
(0.569725 0.104015 -2.13139e-09)
(0.568046 0.111013 -4.85905e-09)
(0.517309 0.118546 -5.18407e-09)
(0.432644 0.127087 -5.27649e-09)
(0.349521 0.136244 -4.5422e-09)
(0.278278 0.145891 -4.10147e-09)
(0.205343 0.155204 -3.88367e-09)
(0.121224 0.163923 -3.68566e-09)
(0.0503813 0.171138 -3.52286e-09)
(2.99999 9.75254e-08 -1.18978e-13)
(2.99998 5.3123e-07 -5.2775e-13)
(2.99995 1.97475e-06 -1.76657e-12)
(2.99987 5.06291e-06 -3.82354e-12)
(2.99971 1.39496e-05 -1.10738e-11)
(2.99924 3.18838e-05 -2.27405e-11)
(2.99831 8.33729e-05 -6.53299e-11)
(2.9955 0.000185517 -1.34167e-10)
(2.99039 0.000491801 -3.87075e-10)
(2.97213 0.00107387 -7.92149e-10)
(2.93783 0.00297343 -2.25904e-09)
(2.8141 0.00723342 -5.50018e-09)
(2.46791 0.0215465 -1.39168e-08)
(1.65498 0.0556546 -3.44288e-08)
(0.718724 0.145323 -4.14309e-08)
(0.536982 0.143464 -1.05967e-09)
(0.572592 0.14529 -2.41558e-09)
(0.573902 0.15556 -5.072e-09)
(0.524009 0.166654 -5.29594e-09)
(0.44053 0.179462 -5.29059e-09)
(0.358046 0.193258 -4.57957e-09)
(0.286574 0.207872 -4.19368e-09)
(0.212512 0.222258 -4.00109e-09)
(0.126232 0.235449 -3.8537e-09)
(0.0519533 0.244914 -3.75557e-09)
(2.99999 1.28627e-07 -1.21987e-13)
(2.99998 7.00042e-07 -5.42529e-13)
(2.99995 2.60306e-06 -1.80822e-12)
(2.99987 6.67803e-06 -3.91269e-12)
(2.99972 1.83914e-05 -1.12652e-11)
(2.99927 4.2097e-05 -2.30917e-11)
(2.99839 0.000109595 -6.5983e-11)
(2.99569 0.000246242 -1.34486e-10)
(2.99083 0.000637413 -3.89359e-10)
(2.97328 0.00142834 -7.84175e-10)
(2.94085 0.0037826 -2.26414e-09)
(2.82221 0.00926583 -5.38172e-09)
(2.49286 0.0275581 -1.39825e-08)
(1.71127 0.070303 -3.43692e-08)
(0.755294 0.188613 -4.36285e-08)
(0.532968 0.184443 -6.7651e-10)
(0.574742 0.186268 -2.44656e-09)
(0.580678 0.199594 -5.21011e-09)
(0.532276 0.214054 -5.35552e-09)
(0.450795 0.231093 -5.26789e-09)
(0.369652 0.249677 -4.64444e-09)
(0.298543 0.269589 -4.32356e-09)
(0.223641 0.289619 -4.13942e-09)
(0.134556 0.308175 -4.02396e-09)
(0.0553898 0.320774 -3.97066e-09)
(2.99999 1.61099e-07 -1.34438e-13)
(2.99998 8.73399e-07 -5.9173e-13)
(2.99996 3.25776e-06 -1.99278e-12)
(2.99988 8.37672e-06 -4.3411e-12)