/*--------------------------------*- C++ -*----------------------------------*\
| =========                 |                                                 |
| \\      /  F ield         | OpenFOAM: The Open Source CFD Toolbox           |
|  \\    /   O peration     | Version:  4.1                                   |
|   \\  /    A nd           | Web:      www.OpenFOAM.org                      |
|    \\/     M anipulation  |                                                 |
\*---------------------------------------------------------------------------*/
FoamFile
{
    version     2.0;
    format      ascii;
    class       volScalarField;
    location    "0.94";
    object      Ma;
}
// * * * * * * * * * * * * * * * * * * * * * * * * * * * * * * * * * * * * * //

dimensions      [0 0 0 0 0 0 0];

internalField   nonuniform List<scalar> 
52500
(
3.00002
3.00001
2.99999
2.99992
2.99983
2.99944
2.99888
2.99664
2.9933
2.98109
2.95837
2.8926
2.72359
2.37264
1.55461
0.625453
0.184923
0.305532
0.332076
0.289296
0.227321
0.180629
0.136497
0.0712481
0.0375206
3.00002
3.00001
2.99999
2.99993
2.99983
2.99944
2.99889
2.99667
2.99336
2.98125
2.95883
2.89376
2.72725
2.3797
1.5703
0.636006
0.194465
0.309624
0.335256
0.293061
0.232444
0.187116
0.145361
0.0884456
0.0650121
3.00002
3.00001
2.99999
2.99993
2.99983
2.99945
2.99891
2.99672
2.9935
2.9815
2.95985
2.89593
2.73552
2.39351
1.60343
0.659833
0.216059
0.318673
0.342996
0.303055
0.246339
0.204537
0.167848
0.122757
0.106554
3.00002
3.00001
2.99999
2.99993
2.99984
2.99947
2.99895
2.99682
2.99373
2.98197
2.96156
2.89892
2.74762
2.41316
1.65689
0.694542
0.246315
0.332215
0.354553
0.318552
0.267918
0.230581
0.199553
0.164075
0.151525
3.00002
3.00001
3
2.99993
2.99985
2.99949
2.999
2.99697
2.99402
2.98286
2.96346
2.90324
2.75892
2.44054
1.7071
0.745352
0.285466
0.350216
0.368596
0.338182
0.294988
0.262357
0.237002
0.20902
0.199035
3.00002
3.00001
3
2.99994
2.99986
2.99952
2.99905
2.99712
2.99433
2.98361
2.96557
2.90798
2.77381
2.47114
1.76137
0.811593
0.333476
0.371346
0.383284
0.361258
0.327156
0.2996
0.279938
0.258736
0.252006
3.00002
3.00001
3
2.99995
2.99987
2.99955
2.99911
2.9973
2.9947
2.98457
2.968
2.91339
2.79087
2.50341
1.82657
0.89194
0.390988
0.391187
0.399584
0.389517
0.363371
0.341563
0.329167
0.314864
0.31377
3.00002
3.00001
3
2.99995
2.99988
2.99959
2.99919
2.99751
2.99513
2.98572
2.97068
2.92
2.80893
2.54253
1.90309
0.987017
0.454753
0.409884
0.421382
0.421514
0.402645
0.388399
0.384401
0.379194
0.389729
3.00002
3.00001
3
2.99996
2.9999
2.99964
2.99928
2.99779
2.99567
2.98731
2.97386
2.9281
2.82713
2.58737
1.98402
1.09495
0.521688
0.426484
0.443955
0.454107
0.444214
0.440091
0.446981
0.455656
0.49156
3.00002
3.00002
3.00001
2.99997
2.99992
2.9997
2.99939
2.99816
2.99628
2.98952
2.97697
2.93942
2.84638
2.63961
2.06975
1.21337
0.598709
0.446191
0.469541
0.488931
0.488616
0.495308
0.518854
0.556493
0.661497
3
2.99999
2.99997
2.99991
2.99981
2.99942
2.99886
2.99662
2.99327
2.98107
2.95834
2.89255
2.72353
2.37249
1.55433
0.625204
0.184523
0.305316
0.331882
0.289057
0.227012
0.180244
0.135966
0.0702009
0.0356552
3
2.99999
2.99997
2.99991
2.99981
2.99942
2.99887
2.99665
2.99334
2.98123
2.9588
2.89371
2.72719
2.37956
1.57004
0.635762
0.194076
0.309416
0.335067
0.29283
0.232146
0.18675
0.144869
0.0876151
0.063968
3
2.99999
2.99998
2.99991
2.99982
2.99943
2.99889
2.9967
2.99348
2.98148
2.95982
2.89588
2.73545
2.39338
1.60315
0.659595
0.215708
0.318476
0.342816
0.302836
0.246063
0.204208
0.167429
0.122168
0.105928
3
2.99999
2.99998
2.99991
2.99982
2.99945
2.99893
2.9968
2.99371
2.98194
2.96153
2.89887
2.74756
2.41303
1.65662
0.694334
0.246004
0.332026
0.354385
0.31835
0.26767
0.230295
0.199207
0.163641
0.15109
3
2.99999
2.99998
2.99992
2.99983
2.99947
2.99898
2.99695
2.994
2.98283
2.96344
2.9032
2.75888
2.4404
1.70695
0.745098
0.285187
0.350039
0.368446
0.337999
0.294767
0.26211
0.236716
0.208685
0.198708
3
2.99999
2.99998
2.99992
2.99984
2.9995
2.99903
2.9971
2.99431
2.98359
2.96554
2.90794
2.77375
2.47105
1.76121
0.811364
0.333225
0.371193
0.383154
0.361088
0.326959
0.299388
0.279701
0.258471
0.251751
3.00001
2.99999
2.99998
2.99993
2.99985
2.99953
2.99909
2.99728
2.99468
2.98455
2.96798
2.91335
2.79082
2.50332
1.82642
0.891713
0.390771
0.391055
0.399451
0.389362
0.363199
0.341381
0.328972
0.314652
0.313569
3.00001
3
2.99998
2.99993
2.99986
2.99957
2.99917
2.99749
2.99511
2.9857
2.97066
2.91996
2.80888
2.54245
1.90295
0.986811
0.454568
0.409765
0.421258
0.421378
0.402497
0.388245
0.384241
0.379024
0.389573
3.00001
3
2.99999
2.99994
2.99988
2.99962
2.99926
2.99777
2.99565
2.98729
2.97383
2.92805
2.8271
2.58728
1.98392
1.09476
0.521534
0.426379
0.443843
0.453988
0.444087
0.439961
0.446848
0.455522
0.491443
3.00001
3
2.99999
2.99995
2.9999
2.99968
2.99937
2.99813
2.99625
2.98949
2.97694
2.93939
2.84633
2.63952
2.06963
1.21318
0.598566
0.446091
0.469439
0.488827
0.488508
0.495201
0.518748
0.55639
0.661417
3
2.99999
2.99997
2.99991
2.99981
2.99942
2.99886
2.99662
2.99327
2.98107
2.95834
2.89255
2.72352
2.37248
1.55432
0.625198
0.184521
0.305316
0.331882
0.289057
0.227012
0.180244
0.135967
0.0702032
0.0356527
3
2.99999
2.99997
2.99991
2.99981
2.99942
2.99887
2.99665
2.99334
2.98123
2.9588
2.89371
2.72719
2.37955
1.57003
0.635757
0.194074
0.309416
0.335068
0.29283
0.232146
0.186749
0.144871
0.0876176
0.0639677
3
2.99999
2.99998
2.99991
2.99982
2.99943
2.99889
2.9967
2.99348
2.98148
2.95982
2.89588
2.73544
2.39338
1.60314
0.659589
0.215705
0.318476
0.342817
0.302836
0.246063
0.204207
0.16743
0.122169
0.105929
3
2.99999
2.99998
2.99991
2.99982
2.99945
2.99893
2.9968
2.9937
2.98194
2.96153
2.89887
2.74756
2.41303
1.65661
0.694328
0.246001
0.332026
0.354385
0.31835
0.267669
0.230294
0.199208
0.163642
0.151092
3
2.99999
2.99998
2.99992
2.99983
2.99947
2.99898
2.99695
2.994
2.98283
2.96344
2.9032
2.75888
2.44039
1.70695
0.745091
0.285184
0.350039
0.368446
0.337999
0.294766
0.262109
0.236717
0.208686
0.198709
3
2.99999
2.99998
2.99992
2.99984
2.9995
2.99903
2.9971
2.99431
2.98359
2.96554
2.90794
2.77375
2.47105
1.76121
0.811357
0.333221
0.371193
0.383154
0.361088
0.326958
0.299387
0.279701
0.258471
0.251752
3.00001
2.99999
2.99998
2.99993
2.99985
2.99953
2.99909
2.99728
2.99468
2.98455
2.96798
2.91335
2.79082
2.50331
1.82642
0.891706
0.390767
0.391056
0.399451
0.389361
0.363199
0.34138
0.328972
0.314652
0.313571
3.00001
3
2.99998
2.99993
2.99986
2.99957
2.99917
2.99749
2.99511
2.9857
2.97066
2.91996
2.80887
2.54244
1.90294
0.986804
0.454564
0.409765
0.421258
0.421377
0.402497
0.388244
0.384241
0.379024
0.389574
3.00001
3
2.99999
2.99994
2.99988
2.99962
2.99926
2.99777
2.99565
2.98729
2.97383
2.92805
2.82709
2.58728
1.98392
1.09475
0.521529
0.426379
0.443843
0.453988
0.444086
0.43996
0.446849
0.455521
0.491444
3.00001
3
2.99999
2.99995
2.9999
2.99968
2.99937
2.99813
2.99625
2.98949
2.97694
2.93939
2.84633
2.63951
2.06963
1.21317
0.598561
0.446092
0.469439
0.488826
0.488507
0.4952
0.518748
0.55639
0.661418
3
2.99999
2.99997
2.99991
2.99981
2.99942
2.99886
2.99662
2.99327
2.98107
2.95834
2.89255
2.72352
2.37248
1.55431
0.625198
0.18452
0.305316
0.331882
0.289057
0.227012
0.180244
0.135968
0.0702031
0.0356541
3
2.99999
2.99997
2.99991
2.99981
2.99942
2.99887
2.99665
2.99334
2.98123
2.9588
2.89371
2.72719
2.37955
1.57003
0.635756
0.194073
0.309415
0.335068
0.29283
0.232146
0.18675
0.144872
0.087617
0.0639684
3
2.99999
2.99998
2.99991
2.99982
2.99943
2.99889
2.9967
2.99348
2.98148
2.95982
2.89588
2.73544
2.39338
1.60314
0.659589
0.215705
0.318476
0.342817
0.302836
0.246063
0.204208
0.167431
0.122169
0.105929
3
2.99999
2.99998
2.99991
2.99982
2.99945
2.99893
2.9968
2.9937
2.98194
2.96153
2.89887
2.74756
2.41303
1.65661
0.694328
0.246001
0.332026
0.354385
0.31835
0.267669
0.230294
0.199208
0.163642
0.151092
3
2.99999
2.99998
2.99992
2.99983
2.99947
2.99898
2.99695
2.994
2.98283
2.96344
2.9032
2.75888
2.44039
1.70695
0.74509
0.285183
0.350038
0.368446
0.337999
0.294766
0.262109
0.236717
0.208685
0.19871
3
2.99999
2.99998
2.99992
2.99984
2.9995
2.99903
2.9971
2.99431
2.98359
2.96554
2.90794
2.77375
2.47105
1.7612
0.811357
0.33322
0.371193
0.383154
0.361087
0.326958
0.299387
0.279702
0.258471
0.251753
3.00001
2.99999
2.99998
2.99993
2.99985
2.99953
2.99909
2.99728
2.99468
2.98455
2.96798
2.91335
2.79082
2.50331
1.82642
0.891705
0.390766
0.391055
0.399451
0.389361
0.363199
0.34138
0.328972
0.314652
0.313571
3.00001
3
2.99998
2.99993
2.99986
2.99957
2.99917
2.99749
2.99511
2.9857
2.97066
2.91996
2.80887
2.54244
1.90294
0.986803
0.454563
0.409765
0.421258
0.421377
0.402497
0.388244
0.384241
0.379024
0.389575
3.00001
3
2.99999
2.99994
2.99988
2.99962
2.99926
2.99777
2.99565
2.98729
2.97383
2.92805
2.82709
2.58728
1.98391
1.09475
0.521529
0.426379
0.443843
0.453987
0.444086
0.43996
0.446849
0.455521
0.491444
3.00001
3
2.99999
2.99995
2.9999
2.99968
2.99937
2.99813
2.99625
2.98949
2.97694
2.93939
2.84633
2.63951
2.06963
1.21317
0.598561
0.446091
0.469439
0.488826
0.488507
0.4952
0.518748
0.55639
0.661418
3
2.99999
2.99997
2.99991
2.99981
2.99942
2.99886
2.99662
2.99327
2.98107
2.95834
2.89255
2.72352
2.37247
1.5543
0.625188
0.184516
0.305316
0.331883
0.289057
0.227011
0.180243
0.135967
0.0702024
0.0356526
3
2.99999
2.99997
2.99991
2.99981
2.99942
2.99887
2.99665
2.99334
2.98123
2.9588
2.89371
2.72718
2.37955
1.57002
0.635746
0.194069
0.309416
0.335068
0.29283
0.232145
0.186749
0.144871
0.0876171
0.0639675
3
2.99999
2.99998
2.99991
2.99982
2.99943
2.99889
2.9967
2.99348
2.98148
2.95982
2.89588
2.73544
2.39337
1.60312
0.659579
0.2157
0.318476
0.342817
0.302836
0.246062
0.204207
0.16743
0.122169
0.105929
3
2.99999
2.99998
2.99991
2.99982
2.99945
2.99893
2.9968
2.9937
2.98194
2.96153
2.89887
2.74756
2.41302
1.65659
0.69432
0.245997
0.332026
0.354387
0.318351
0.267669
0.230294
0.199208
0.163642
0.151091
3
2.99999
2.99998
2.99992
2.99983
2.99947
2.99898
2.99695
2.994
2.98283
2.96344
2.9032
2.75887
2.44039
1.70694
0.745079
0.285179
0.350039
0.368448
0.338
0.294766
0.262109
0.236717
0.208686
0.198709
3
2.99999
2.99998
2.99992
2.99984
2.9995
2.99903
2.9971
2.99431
2.98359
2.96554
2.90794
2.77375
2.47104
1.7612
0.811346
0.333215
0.371194
0.383157
0.361088
0.326957
0.299387
0.279702
0.258471
0.251752
3.00001
2.99999
2.99998
2.99993
2.99985
2.99953
2.99909
2.99728
2.99468
2.98455
2.96798
2.91335
2.79082
2.50331
1.82641
0.891694
0.390761
0.391057
0.399453
0.389361
0.363198
0.34138
0.328972
0.314652
0.313571
3.00001
3
2.99998
2.99993
2.99986
2.99957
2.99917
2.99749
2.99511
2.9857
2.97066
2.91996
2.80887
2.54244
1.90293
0.986792
0.454558
0.409767
0.42126
0.421378
0.402497
0.388244
0.384241
0.379024
0.389574
3.00001
3
2.99999
2.99994
2.99988
2.99962
2.99926
2.99777
2.99565
2.98729
2.97383
2.92805
2.82709
2.58727
1.98391
1.09474
0.521524
0.426381
0.443845
0.453988
0.444086
0.43996
0.446849
0.455521
0.491444
3.00001
3
2.99999
2.99995
2.9999
2.99968
2.99937
2.99813
2.99625
2.98949
2.97694
2.93938
2.84633
2.63951
2.06962
1.21316
0.598555
0.446093
0.46944
0.488827
0.488508
0.4952
0.518748
0.55639
0.661418
3
2.99999
2.99997
2.99991
2.99981
2.99942
2.99886
2.99662
2.99327
2.98107
2.95834
2.89255
2.72352
2.37248
1.55431
0.625193
0.184518
0.305316
0.331883
0.289057
0.227011
0.180244
0.135968
0.070203
0.035654
3
2.99999
2.99997
2.99991
2.99981
2.99942
2.99887
2.99665
2.99334
2.98123
2.9588
2.89371
2.72718
2.37955
1.57003
0.635751
0.194071
0.309416
0.335068
0.29283
0.232146
0.186749
0.144871
0.087617
0.0639683
3
2.99999
2.99998
2.99991
2.99982
2.99943
2.99889
2.9967
2.99348
2.98148
2.95982
2.89588
2.73544
2.39337
1.60313
0.659584
0.215702
0.318476
0.342817
0.302836
0.246063
0.204207
0.16743
0.122169
0.105929
3
2.99999
2.99998
2.99991
2.99982
2.99945
2.99893
2.9968
2.9937
2.98194
2.96153
2.89887
2.74756
2.41302
1.6566
0.694324
0.245999
0.332026
0.354386
0.31835
0.267669
0.230294
0.199208
0.163642
0.151092
3
2.99999
2.99998
2.99992
2.99983
2.99947
2.99898
2.99695
2.994
2.98283
2.96344
2.9032
2.75887
2.44039
1.70694
0.745084
0.285181
0.350039
0.368447
0.337999
0.294766
0.262109
0.236717
0.208685
0.19871
3
2.99999
2.99998
2.99992
2.99984
2.9995
2.99903
2.9971
2.99431
2.98359
2.96554
2.90794
2.77375
2.47104
1.7612
0.811351
0.333218
0.371193
0.383156
0.361088
0.326958
0.299387
0.279702
0.258471
0.251753
3.00001
2.99999
2.99998
2.99993
2.99985
2.99953
2.99909
2.99728
2.99468
2.98455
2.96798
2.91335
2.79082
2.50331
1.82641
0.891699
0.390764
0.391056
0.399452
0.389361
0.363198
0.34138
0.328972
0.314652
0.313571
3.00001
3
2.99998
2.99993
2.99986
2.99957
2.99917
2.99749
2.99511
2.9857
2.97066
2.91996
2.80887
2.54244
1.90294
0.986798
0.454561
0.409766
0.421259
0.421377
0.402497
0.388244
0.384241
0.379024
0.389574
3.00001
3
2.99999
2.99994
2.99988
2.99962
2.99926
2.99777
2.99565
2.98729
2.97383
2.92805
2.82709
2.58728
1.98391
1.09475
0.521527
0.42638
0.443844
0.453988
0.444086
0.43996
0.446849
0.455521
0.491444
3.00001
3
2.99999
2.99995
2.9999
2.99968
2.99937
2.99813
2.99625
2.98949
2.97694
2.93938
2.84633
2.63951
2.06962
1.21316
0.598558
0.446093
0.469439
0.488827
0.488508
0.4952
0.518748
0.55639
0.661418
3
2.99999
2.99997
2.99991
2.99981
2.99942
2.99886
2.99662
2.99327
2.98107
2.95834
2.89255
2.72352
2.37248
1.55432
0.625198
0.18452
0.305316
0.331882
0.289057
0.227012
0.180244
0.135968
0.0702031
0.0356541
3
2.99999
2.99997
2.99991
2.99981
2.99942
2.99887
2.99665
2.99334
2.98123
2.9588
2.89371
2.72719
2.37955
1.57003
0.635757
0.194073
0.309415
0.335068
0.29283
0.232146
0.18675
0.144872
0.087617
0.0639684
3
2.99999
2.99998
2.99991
2.99982
2.99943
2.99889
2.9967
2.99348
2.98148
2.95982
2.89588
2.73544
2.39338
1.60314
0.659589
0.215705
0.318476
0.342816
0.302836
0.246063
0.204208
0.167431
0.122169
0.105929
3
2.99999
2.99998
2.99991
2.99982
2.99945
2.99893
2.9968
2.9937
2.98194
2.96153
2.89887
2.74756
2.41303
1.65661
0.694328
0.246001
0.332026
0.354385
0.31835
0.267669
0.230294
0.199208
0.163642
0.151092
3
2.99999
2.99998
2.99992
2.99983
2.99947
2.99898
2.99695
2.994
2.98283
2.96344
2.9032
2.75888
2.44039
1.70695
0.74509
0.285183
0.350038
0.368446
0.337999
0.294766
0.262109
0.236717
0.208685
0.19871
3
2.99999
2.99998
2.99992
2.99984
2.9995
2.99903
2.9971
2.99431
2.98359
2.96554
2.90794
2.77375
2.47105
1.7612
0.811357
0.33322
0.371193
0.383154
0.361087
0.326958
0.299387
0.279702
0.258471
0.251753
3.00001
2.99999
2.99998
2.99993
2.99985
2.99953
2.99909
2.99728
2.99468
2.98455
2.96798
2.91335
2.79082
2.50331
1.82642
0.891705
0.390766
0.391055
0.399451
0.389361
0.363199
0.34138
0.328972
0.314652
0.313571
3.00001
3
2.99998
2.99993
2.99986
2.99957
2.99917
2.99749
2.99511
2.9857
2.97066
2.91996
2.80887
2.54244
1.90294
0.986804
0.454563
0.409765
0.421258
0.421377
0.402497
0.388244
0.384241
0.379024
0.389575
3.00001
3
2.99999
2.99994
2.99988
2.99962
2.99926
2.99777
2.99565
2.98729
2.97383
2.92805
2.82709
2.58728
1.98391
1.09475
0.521529
0.426379
0.443843
0.453987
0.444086
0.43996
0.446849
0.455521
0.491444
3.00001
3
2.99999
2.99995
2.9999
2.99968
2.99937
2.99813
2.99625
2.98949
2.97694
2.93939
2.84633
2.63951
2.06963
1.21317
0.598561
0.446091
0.469439
0.488826
0.488507
0.4952
0.518748
0.55639
0.661418
3
2.99999
2.99997
2.99991
2.99981
2.99942
2.99886
2.99662
2.99327
2.98107
2.95834
2.89255
2.72352
2.37248
1.55432
0.625198
0.184521
0.305316
0.331882
0.289057
0.227012
0.180244
0.135967
0.0702032
0.0356527
3
2.99999
2.99997
2.99991
2.99981
2.99942
2.99887
2.99665
2.99334
2.98123
2.9588
2.89371
2.72719
2.37955
1.57003
0.635757
0.194074
0.309416
0.335068
0.29283
0.232146
0.186749
0.144871
0.0876176
0.0639677
3
2.99999
2.99998
2.99991
2.99982
2.99943
2.99889
2.9967
2.99348
2.98148
2.95982
2.89588
2.73544
2.39338
1.60314
0.659589
0.215705
0.318476
0.342817
0.302836
0.246063
0.204207
0.16743
0.122169
0.105929
3
2.99999
2.99998
2.99991
2.99982
2.99945
2.99893
2.9968
2.9937
2.98194
2.96153
2.89887
2.74756
2.41303
1.65661
0.694328
0.246001
0.332026
0.354385
0.31835
0.267669
0.230294
0.199208
0.163642
0.151092
3
2.99999
2.99998
2.99992
2.99983
2.99947
2.99898
2.99695
2.994
2.98283
2.96344
2.9032
2.75888
2.44039
1.70695
0.745091
0.285184
0.350039
0.368446
0.337999
0.294766
0.262109
0.236717
0.208686
0.198709
3
2.99999
2.99998
2.99992
2.99984
2.9995
2.99903
2.9971
2.99431
2.98359
2.96554
2.90794
2.77375
2.47105
1.76121
0.811357
0.333221
0.371193
0.383154
0.361088
0.326958
0.299387
0.279701
0.258471
0.251752
3.00001
2.99999
2.99998
2.99993
2.99985
2.99953
2.99909
2.99728
2.99468
2.98455
2.96798
2.91335
2.79082
2.50331
1.82642
0.891706
0.390767
0.391055
0.399451
0.389361
0.363199
0.34138
0.328972
0.314652
0.313571
3.00001
3
2.99998
2.99993
2.99986
2.99957
2.99917
2.99749
2.99511
2.9857
2.97066
2.91996
2.80887
2.54244
1.90294
0.986804
0.454564
0.409765
0.421258
0.421377
0.402497
0.388244
0.384241
0.379024
0.389574
3.00001
3
2.99999
2.99994
2.99988
2.99962
2.99926
2.99777
2.99565
2.98729
2.97383
2.92805
2.82709
2.58728
1.98392
1.09475
0.52153
0.426379
0.443843
0.453988
0.444086
0.43996
0.446849
0.455521
0.491444
3.00001
3
2.99999
2.99995
2.9999
2.99968
2.99937
2.99813
2.99625
2.98949
2.97694
2.93939
2.84633
2.63951
2.06963
1.21317
0.598562
0.446092
0.469439
0.488826
0.488507
0.4952
0.518748
0.55639
0.661418
3
2.99999
2.99997
2.99991
2.99981
2.99942
2.99886
2.99662
2.99327
2.98107
2.95834
2.89255
2.72353
2.37249
1.55433
0.625204
0.184523
0.305316
0.331882
0.289057
0.227012
0.180244
0.135966
0.0702009
0.0356552
3
2.99999
2.99997
2.99991
2.99981
2.99942
2.99887
2.99665
2.99334
2.98123
2.9588
2.89371
2.72719
2.37956
1.57004
0.635762
0.194076
0.309416
0.335067
0.29283
0.232146
0.18675
0.144869
0.0876151
0.063968
3
2.99999
2.99998
2.99991
2.99982
2.99943
2.99889
2.9967
2.99348
2.98148
2.95982
2.89588
2.73545
2.39338
1.60315
0.659595
0.215708
0.318476
0.342816
0.302836
0.246063
0.204208
0.167429
0.122168
0.105928
3
2.99999
2.99998
2.99991
2.99982
2.99945
2.99893
2.9968
2.99371
2.98194
2.96153
2.89887
2.74756
2.41303
1.65662
0.694334
0.246004
0.332026
0.354385
0.31835
0.26767
0.230295
0.199207
0.163641
0.15109
3
2.99999
2.99998
2.99992
2.99983
2.99947
2.99898
2.99695
2.994
2.98283
2.96344
2.9032
2.75888
2.4404
1.70695
0.745098
0.285187
0.350039
0.368446
0.337999
0.294767
0.26211
0.236716
0.208685
0.198708
3
2.99999
2.99998
2.99992
2.99984
2.9995
2.99903
2.9971
2.99431
2.98359
2.96554
2.90794
2.77375
2.47105
1.76121
0.811364
0.333225
0.371193
0.383154
0.361088
0.326959
0.299388
0.279701
0.258471
0.251751
3.00001
2.99999
2.99998
2.99993
2.99985
2.99953
2.99909
2.99728
2.99468
2.98455
2.96798
2.91335
2.79082
2.50332
1.82642
0.891713
0.390771
0.391055
0.399451
0.389362
0.363199
0.341381
0.328972
0.314652
0.313569
3.00001
3
2.99998
2.99993
2.99986
2.99957
2.99917
2.99749
2.99511
2.9857
2.97066
2.91996
2.80888
2.54245
1.90295
0.986811
0.454568
0.409765
0.421258
0.421378
0.402497
0.388245
0.384241
0.379024
0.389573
3.00001
3
2.99999
2.99994
2.99988
2.99962
2.99926
2.99777
2.99565
2.98729
2.97383
2.92805
2.8271
2.58728
1.98392
1.09476
0.521534
0.426379
0.443843
0.453988
0.444087
0.439961
0.446848
0.455522
0.491443
3.00001
3
2.99999
2.99995
2.9999
2.99968
2.99937
2.99813
2.99625
2.98949
2.97694
2.93939
2.84633
2.63952
2.06963
1.21318
0.598566
0.446091
0.469439
0.488827
0.488508
0.495201
0.518748
0.55639
0.661417
3.00002
3.00001
2.99999
2.99992
2.99983
2.99944
2.99888
2.99664
2.9933
2.98109
2.95837
2.8926
2.72359
2.37265
1.55461
0.625454
0.184924
0.305532
0.332076
0.289296
0.227321
0.180629
0.136498
0.071251
0.0375187
3.00002
3.00001
2.99999
2.99993
2.99983
2.99944
2.99889
2.99667
2.99336
2.98125
2.95883
2.89376
2.72725
2.3797
1.57031
0.636007
0.194466
0.309624
0.335256
0.293061
0.232444
0.187116
0.145362
0.0884473
0.0650115
3.00002
3.00001
2.99999
2.99993
2.99983
2.99945
2.99891
2.99672
2.9935
2.9815
2.95985
2.89593
2.73552
2.39351
1.60343
0.659834
0.21606
0.318673
0.342996
0.303054
0.246339
0.204537
0.167849
0.122758
0.106554
3.00002
3.00001
2.99999
2.99993
2.99984
2.99947
2.99895
2.99682
2.99373
2.98197
2.96156
2.89892
2.74762
2.41316
1.6569
0.694543
0.246315
0.332215
0.354553
0.318552
0.267918
0.230581
0.199554
0.164075
0.151525
3.00002
3.00001
3
2.99993
2.99985
2.99949
2.999
2.99697
2.99402
2.98286
2.96346
2.90324
2.75892
2.44054
1.7071
0.745353
0.285466
0.350216
0.368596
0.338181
0.294988
0.262357
0.237002
0.20902
0.199035
3.00002
3.00001
3
2.99994
2.99986
2.99952
2.99905
2.99712
2.99433
2.98361
2.96557
2.90798
2.77381
2.47114
1.76137
0.811595
0.333476
0.371346
0.383284
0.361258
0.327156
0.2996
0.279938
0.258736
0.252005
3.00002
3.00001
3
2.99995
2.99987
2.99955
2.99911
2.9973
2.9947
2.98457
2.968
2.91339
2.79087
2.50341
1.82658
0.891941
0.390988
0.391187
0.399584
0.389517
0.363371
0.341563
0.329167
0.314864
0.31377
3.00002
3.00001
3
2.99995
2.99988
2.99959
2.99919
2.99751
2.99513
2.98572
2.97068
2.92
2.80893
2.54253
1.90309
0.987018
0.454753
0.409883
0.421382
0.421514
0.402645
0.388398
0.384401
0.379194
0.389729
3.00002
3.00001
3
2.99996
2.9999
2.99964
2.99928
2.99779
2.99567
2.98731
2.97386
2.9281
2.82713
2.58737
1.98402
1.09495
0.521688
0.426484
0.443955
0.454106
0.444213
0.44009
0.446981
0.455656
0.49156
3.00002
3.00002
3.00001
2.99997
2.99992
2.9997
2.99939
2.99816
2.99628
2.98952
2.97697
2.93942
2.84638
2.63961
2.06975
1.21337
0.598709
0.446191
0.46954
0.48893
0.488615
0.495308
0.518854
0.556493
0.661497
3.00002
3.00002
3.00001
2.99999
2.99992
2.99981
2.99939
2.99874
2.99644
2.99214
2.97932
2.94835
2.8745
2.65989
2.24876
1.35
0.699668
0.478747
0.50458
0.528738
0.536086
0.554223
0.598422
0.677396
0.859757
3.00002
3.00002
3.00001
2.99999
2.99993
2.99983
2.99944
2.9989
2.99667
2.99338
2.98123
2.95874
2.89346
2.72588
2.37721
1.56822
0.828211
0.540248
0.560351
0.578871
0.590223
0.615491
0.675961
0.777089
0.962345
3.00002
3.00002
3.00001
3
2.99994
2.99986
2.99954
2.99908
2.99722
2.99453
2.98408
2.96687
2.91086
2.78429
2.49113
1.82564
0.963312
0.611082
0.617666
0.631042
0.649292
0.679165
0.74215
0.845162
1.00205
3.00002
3.00002
3.00002
3
2.99996
2.99989
2.99963
2.99926
2.99772
2.99554
2.98687
2.97321
2.92633
2.82565
2.58094
1.98783
1.13013
0.693972
0.658128
0.674625
0.699923
0.735452
0.799501
0.891628
1.02165
3.00003
3.00002
3.00002
3.00001
2.99997
2.99992
2.99972
2.99942
2.99825
2.99649
2.99006
2.97854
2.94312
2.85806
2.66555
2.14157
1.33276
0.800215
0.690517
0.708912
0.738657
0.780549
0.84187
0.931968
1.03857
3.00003
3.00003
3.00002
3.00001
3
2.99993
2.99984
2.99948
2.99892
2.99695
2.99336
2.98243
2.95677
2.89415
2.71741
2.36893
1.57123
0.947014
0.740898
0.748461
0.776025
0.818919
0.875649
0.956928
1.05941
3.00003
3.00003
3.00002
3.00001
3
2.99995
2.99987
2.99957
2.99914
2.99735
2.99485
2.98477
2.9691
2.91591
2.80359
2.52678
1.91565
1.12167
0.817077
0.801277
0.820977
0.85937
0.909931
0.978424
1.0692
3.00003
3.00003
3.00003
3.00002
3.00001
2.99997
2.99992
2.9997
2.99938
2.99813
2.99624
2.98938
2.97708
2.93922
2.84915
2.6463
2.11026
1.32048
0.905943
0.844072
0.862267
0.895379
0.944304
1.00173
1.0785
3.00003
3.00003
3.00003
3.00002
3.00001
3
2.99993
2.99983
2.99947
2.99891
2.9969
2.99328
2.98221
2.95643
2.89329
2.71726
2.36928
1.58674
1.05413
0.896475
0.899999
0.92594
0.97102
1.02387
1.08953
3.00003
3.00003
3.00003
3.00002
3.00002
3
2.99995
2.99988
2.9996
2.99919
2.99755
2.99517
2.98594
2.97103
2.92164
2.81562
2.55576
1.98563
1.24167
0.974701
0.947709
0.963298
0.99963
1.05029
1.10502
3.00003
3.00003
3.00003
3.00003
3.00002
3.00001
2.99999
2.99991
2.99979
2.99935
2.99867
2.9962
2.99192
2.9781
2.94837
2.87017
2.66965
2.25722
1.46966
1.07769
0.991525
0.998992
1.02648
1.07359
1.12453
3.00003
3.00003
3.00003
3.00003
3.00002
3.00001
3
2.99994
2.99986
2.99953
2.99906
2.99719
2.9944
2.98425
2.96593
2.9118
2.77999
2.49902
1.85271
1.2522
1.05627
1.04272
1.05972
1.09735
1.14676
3.00003
3.00003
3.00003
3.00003
3.00002
3.00002
3
2.99998
2.99989
2.99975
2.99923
2.99844
2.99546
2.99076
2.97438
2.94351
2.85644
2.65171
2.18351
1.46961
1.14625
1.0874
1.09581
1.12305
1.16601
3.00003
3.00003
3.00003
3.00003
3.00003
3.00002
3.00001
3
2.99994
2.99985
2.99949
2.99898
2.99696
2.99399
2.98273
2.96387
2.90562
2.7697
2.47018
1.81399
1.30722
1.14892
1.13712
1.15181
1.18388
3.00003
3.00003
3.00003
3.00003
3.00003
3.00002
3.00002
3
2.99998
2.99988
2.99974
2.9992
2.99839
2.99532
2.99047
2.97356
2.94274
2.85082
2.6582
2.16384
1.52744
1.24036
1.18314
1.18668
1.20892
3.00003
3.00003
3.00003
3.00003
3.00003
3.00003
3.00002
3.00001
3
2.99994
2.99985
2.9995
2.999
2.99703
2.99415
2.98312
2.96535
2.90764
2.78333
2.48833
1.87873
1.39643
1.24427
1.22571
1.23695
3.00003
3.00003
3.00003
3.00003
3.00003
3.00003
3.00003
3.00002
3.00001
2.99998
2.99989
2.99976
2.99925
2.99849
2.99564
2.99114
2.97547
2.94711
2.86246
2.68498
2.22821
1.62616
1.3359
1.27519
1.2719
3.00003
3.00003
3.00003
3.00003
3.00003
3.00003
3.00003
3.00002
3.00001
3
2.99995
2.99987
2.99956
2.99911
2.99738
2.99479
2.98538
2.96907
2.92013
2.80977
2.55855
2.0159
1.50662
1.33495
1.31201
3.00003
3.00003
3.00003
3.00003
3.00003
3.00003
3.00003
3.00003
3.00002
3.00001
2.99999
2.99991
2.9998
2.99937
2.99871
2.9963
2.99244
2.97922
2.95496
2.88434
2.73091
2.34714
1.76732
1.43924
1.35761
3.00003
3.00003
3.00003
3.00003
3.00003
3.00003
3.00003
3.00003
3.00002
3.00002
3
2.99997
2.99986
2.9997
2.9991
2.99818
2.99486
2.98942
2.9715
2.93783
2.84227
2.64303
2.15226
1.63603
1.42709
3.00003
3.00003
3.00003
3.00003
3.00003
3.00003
3.00003
3.00003
3.00003
3.00002
3.00001
3
2.99993
2.99984
2.99949
2.99898
2.997
2.99402
2.98339
2.96457
2.91027
2.78859
2.5058
1.9496
1.55561
3.00003
3.00003
3.00003
3.00003
3.00003
3.00003
3.00003
3.00003
3.00003
3.00003
3.00002
3.00001
2.99998
2.9999
2.99978
2.99931
2.99861
2.99601
2.99188
2.97776
2.95251
2.87635
2.72585
2.31445
1.79844
3.00003
3.00003
3.00003
3.00003
3.00003
3.00003
3.00003
3.00003
3.00003
3.00003
3.00002
3.00002
3
2.99996
2.99989
2.99963
2.99926
2.99781
2.99567
2.98785
2.9751
2.93452
2.85521
2.64891
2.22658
3.00003
3.00003
3.00003
3.00003
3.00003
3.00003
3.00003
3.00003
3.00003
3.00003
3.00003
3.00002
3.00002
2.99999
2.99996
2.99981
2.99961
2.99883
2.9977
2.99336
2.98671
2.964
2.91988
2.81004
2.52973
3.00003
3.00003
3.00003
3.00003
3.00003
3.00003
3.00003
3.00003
3.00003
3.00003
3.00003
3.00003
3.00002
3.00001
2.99999
2.99992
2.99981
2.99939
2.99878
2.99644
2.9929
2.98017
2.9587
2.89059
2.76155
3.00003
3.00003
3.00003
3.00003
3.00003
3.00003
3.00003
3.00003
3.00003
3.00003
3.00003
3.00003
3.00002
3.00002
3
2.99998
2.99989
2.99976
2.99926
2.99849
2.99575
2.99123
2.97657
2.94928
2.87127
3.00003
3.00003
3.00003
3.00003
3.00003
3.00003
3.00003
3.00003
3.00003
3.00003
3.00003
3.00003
3.00003
3.00002
3.00002
3
2.99997
2.99986
2.9997
2.99911
2.99819
2.99498
2.98958
2.97279
2.93849
3.00003
3.00003
3.00003
3.00003
3.00003
3.00003
3.00003
3.00003
3.00003
3.00003
3.00003
3.00003
3.00003
3.00003
3.00002
3.00002
2.99999
2.99996
2.99984
2.99965
2.99895
2.99789
2.99408
2.98782
2.96813
3.00003
3.00003
3.00003
3.00003
3.00003
3.00003
3.00003
3.00003
3.00003
3.00003
3.00003
3.00003
3.00003
3.00003
3.00003
3.00002
3.00001
3
2.99993
2.99984
2.99949
2.99898
2.99702
2.99407
2.98342
3.00003
3.00003
3.00003
3.00003
3.00003
3.00003
3.00003
3.00003
3.00003
3.00003
3.00003
3.00003
3.00003
3.00003
3.00003
3.00003
3.00002
3.00001
2.99999
2.99992
2.99982
2.99943
2.99884
2.99671
2.99324
3.00003
3.00003
3.00003
3.00003
3.00003
3.00003
3.00003
3.00003
3.00003
3.00003
3.00003
3.00003
3.00003
3.00003
3.00003
3.00003
3.00003
3.00002
3.00001
2.99999
2.99991
2.99979
2.99937
2.9987
2.99637
3.00003
3.00003
3.00003
3.00003
3.00003
3.00003
3.00003
3.00003
3.00003
3.00003
3.00003
3.00003
3.00003
3.00003
3.00003
3.00003
3.00003
3.00003
3.00002
3.00001
2.99998
2.9999
2.99977
2.99932
2.9986
3.00003
3.00003
3.00003
3.00003
3.00003
3.00003
3.00003
3.00003
3.00003
3.00003
3.00003
3.00003
3.00003
3.00003
3.00003
3.00003
3.00003
3.00003
3.00003
3.00002
3.00001
2.99997
2.99992
2.9997
2.99939
3.00003
3.00003
3.00003
3.00003
3.00003
3.00003
3.00003
3.00003
3.00003
3.00003
3.00003
3.00003
3.00003
3.00003
3.00003
3.00003
3.00003
3.00003
3.00003
3.00003
3.00002
3.00001
2.99997
2.99991
2.9997
3.00003
3.00003
3.00003
3.00003
3.00003
3.00003
3.00003
3.00003
3.00003
3.00003
3.00003
3.00003
3.00003
3.00003
3.00003
3.00003
3.00003
3.00003
3.00003
3.00003
3.00003
3.00002
3.00001
2.99997
2.99991
3.00003
3.00003
3.00003
3.00003
3.00003
3.00003
3.00003
3.00003
3.00003
3.00003
3.00003
3.00003
3.00003
3.00003
3.00003
3.00003
3.00003
3.00003
3.00003
3.00003
3.00003
3.00003
3.00002
3.00001
2.99997
3.00003
3.00003
3.00003
3.00003
3.00003
3.00003
3.00003
3.00003
3.00003
3.00003
3.00003
3.00003
3.00003
3.00003
3.00003
3.00003
3.00003
3.00003
3.00003
3.00003
3.00003
3.00003
3.00003
3.00002
3.00001
3.00003
3.00003
3.00003
3.00003
3.00003
3.00003
3.00003
3.00003
3.00003
3.00003
3.00003
3.00003
3.00003
3.00003
3.00003
3.00003
3.00003
3.00003
3.00003
3.00003
3.00003
3.00003
3.00003
3.00002
3.00002
3.00003
3.00003
3.00003
3.00003
3.00003
3.00003
3.00003
3.00003
3.00003
3.00003
3.00003
3.00003
3.00003
3.00003
3.00003
3.00003
3.00003
3.00003
3.00003
3.00003
3.00003
3.00003
3.00003
3.00003
3.00002
3.00003
3.00003
3.00003
3.00003
3.00003
3.00003
3.00003
3.00003
3.00003
3.00003
3.00003
3.00003
3.00003
3.00003
3.00003
3.00003
3.00003
3.00003
3.00003
3.00003
3.00003
3.00003
3.00003
3.00003
3.00003
3.00001
3
2.99999
2.99997
2.9999
2.99979
2.99936
2.99872
2.99642
2.99212
2.97929
2.94832
2.87445
2.65981
2.24862
1.3498
0.699521
0.47864
0.504479
0.528643
0.535992
0.554133
0.598338
0.677322
0.85971
3.00001
3
2.99999
2.99997
2.99991
2.99981
2.99942
2.99888
2.99665
2.99336
2.9812
2.95871
2.89341
2.72582
2.37706
1.56798
0.828047
0.540127
0.560243
0.578775
0.590134
0.615409
0.67589
0.77703
0.962305
3.00001
3
2.99999
2.99998
2.99992
2.99984
2.99952
2.99906
2.99719
2.99451
2.98406
2.96685
2.91082
2.78424
2.49103
1.82551
0.963171
0.610982
0.617576
0.630957
0.649211
0.67909
0.742086
0.845111
1.00201
3.00001
3
3
2.99998
2.99994
2.99987
2.99961
2.99923
2.9977
2.99552
2.98684
2.97318
2.92629
2.82561
2.58085
1.98773
1.12998
0.693866
0.658059
0.674553
0.699852
0.735384
0.799441
0.891578
1.02161
3.00001
3
3
2.99999
2.99995
2.9999
2.9997
2.9994
2.99823
2.99647
2.99004
2.97851
2.94308
2.85802
2.66547
2.14146
1.3326
0.800112
0.690453
0.708848