/*--------------------------------*- C++ -*----------------------------------*\
| =========                 |                                                 |
| \\      /  F ield         | OpenFOAM: The Open Source CFD Toolbox           |
|  \\    /   O peration     | Version:  4.1                                   |
|   \\  /    A nd           | Web:      www.OpenFOAM.org                      |
|    \\/     M anipulation  |                                                 |
\*---------------------------------------------------------------------------*/
FoamFile
{
    version     2.0;
    format      ascii;
    class       surfaceScalarField;
    location    "9.78";
    object      phi;
}
// * * * * * * * * * * * * * * * * * * * * * * * * * * * * * * * * * * * * * //

dimensions      [1 0 -1 0 0 0 0];

internalField   nonuniform List<scalar> 
150500
(
0.0168001
1.76693e-10
-3.26991e-12
0.0168001
9.72935e-10
-1.16116e-11
0.0168001
3.51536e-09
-1.34195e-11
0.0168
8.98362e-09
-2.15e-11
0.0168
2.46804e-08
-2.20444e-11
0.0168
5.62645e-08
-2.96092e-11
0.0167998
1.48721e-07
-3.17882e-11
0.0167994
3.24239e-07
-4.36411e-11
0.0167982
9.16677e-07
-6.08237e-11
0.0167963
1.90698e-06
-1.02537e-10
0.0167887
6.15471e-06
-2.0842e-10
0.0167717
1.56325e-05
-5.63092e-10
0.0167101
5.68564e-05
-1.21675e-09
0.0165021
0.000192094
-4.67195e-09
0.0153986
0.00106499
-8.70449e-09
0.0142483
0.00114981
8.08399e-10
0.0130835
0.00116334
3.67713e-10
0.0118438
0.00123591
-5.29809e-10
0.0105169
0.0013218
-6.729e-10
0.00908233
0.00142978
-7.72548e-10
0.00752527
0.00155421
-5.2439e-10
0.00584011
0.00168293
-3.02915e-10
0.00403388
0.00180404
-1.32306e-10
0.00209816
0.00193361
7.13775e-11
0.00209582
3.05579e-10
0.0168001
3.68198e-10
-3.27998e-12
0.0168001
2.00005e-09
-1.16671e-11
0.0168001
7.18133e-09
-1.34199e-11
0.0168
1.83442e-08
-2.15184e-11
0.0168
5.04127e-08
-2.20413e-11
0.0167999
1.14717e-07
-2.95992e-11
0.0167998
3.03695e-07
-3.17313e-11
0.0167994
6.57598e-07
-4.34907e-11
0.0167982
1.87925e-06
-6.04742e-11
0.0167962
3.83608e-06
-1.01548e-10
0.0167883
1.26576e-05
-2.06232e-10
0.0167711
3.13986e-05
-5.52992e-10
0.0167074
0.000115752
-1.19631e-09
0.0165003
0.000383721
-4.56675e-09
0.0154006
0.00212584
-8.61582e-09
0.0142451
0.0023049
8.0057e-10
0.0130936
0.00231337
3.41963e-10
0.0118642
0.0024615
-5.5876e-10
0.0105429
0.00263795
-6.90322e-10
0.00909656
0.00287144
-7.73739e-10
0.0075212
0.00312665
-5.22372e-10
0.00581505
0.00338701
-3.13022e-10
0.00397682
0.00363987
-1.54418e-10
0.0020228
0.00388534
2.93742e-11
0.00411634
2.29622e-10
0.0168001
6.51365e-10
-3.30434e-12
0.0168001
2.95822e-09
-1.17638e-11
0.0168
1.12529e-08
-1.3431e-11
0.0168
2.84738e-08
-2.1537e-11
0.0168
7.84368e-08
-2.20316e-11
0.0167999
1.78703e-07
-2.95591e-11
0.0167997
4.70296e-07
-3.16044e-11
0.0167993
1.03131e-06
-4.3105e-11
0.0167981
2.86004e-06
-5.97805e-11
0.0167958
6.02303e-06
-9.84438e-11
0.0167883
1.87974e-05
-2.01873e-10
0.016771
4.7388e-05
-5.28999e-10
0.0167102
0.000171711
-1.15479e-09
0.0165224
0.000556604
-4.34902e-09
0.0154725
0.00313626
-8.55216e-09
0.0143184
0.00345872
7.17924e-10
0.013173
0.00345728
2.62507e-10
0.0119517
0.00367887
-5.97338e-10
0.0106361
0.00394818
-7.02137e-10
0.00918942
0.00431344
-7.50398e-10
0.00760362
0.00470952
-5.10404e-10
0.00588052
0.00510784
-3.3659e-10
0.00401921
0.00549882
-2.10104e-10
0.00203745
0.00586473
-7.98959e-11
0.00615129
4.5876e-11
0.0168001
7.52292e-10
-3.53409e-12
0.0168001
4.16427e-09
-1.16042e-11
0.0168
1.54258e-08
-1.37094e-11
0.0168
3.95755e-08
-2.14722e-11
0.0168
1.09049e-07
-2.22556e-11
0.0167999
2.49555e-07
-2.96853e-11
0.0167997
6.51653e-07
-3.20549e-11
0.0167992
1.46618e-06
-4.52479e-11
0.016798
3.83626e-06
-5.76097e-11
0.0167952
8.70684e-06
-1.19062e-10
0.0167885
2.40888e-05
-1.5131e-10
0.0167709
6.38515e-05
-5.71654e-10
0.0167129
0.000224075
-9.98672e-10
0.0165522
0.000703799
-3.64888e-09
0.0155601
0.00408766
-8.2237e-09
0.0144109
0.00460698
4.89744e-10
0.0132743
0.00459209
2.23105e-11
0.0120699
0.00487873
-6.934e-10
0.0107705
0.00524235
-7.45659e-10
0.00934306
0.00573579
-7.3991e-10
0.0077656
0.00628398
-5.38609e-10
0.00602828
0.0068422
-4.04887e-10
0.00414087
0.0073835
-3.13309e-10
0.00211052
0.00789242
-2.41032e-10
0.00825894
-1.88817e-10
0.0168001
9.43352e-10
-3.51301e-12
0.0168001
5.23998e-09
-1.16109e-11
0.0168
1.95189e-08
-1.37186e-11
0.0168
5.01688e-08
-2.14922e-11
0.0168
1.38194e-07
-2.22757e-11
0.0167999
3.16773e-07
-2.97122e-11
0.0167997
8.2594e-07
-3.20235e-11
0.0167993
1.85797e-06
-4.49861e-11
0.016798
4.86832e-06
-5.69954e-11
0.0167957
1.09096e-05
-1.15686e-10
0.0167879
3.04538e-05
-1.43538e-10
0.0167723
7.83496e-05
-5.39229e-10
0.0167145
0.000276249
-9.29023e-10
0.0165568
0.000848763
-3.35799e-09
0.0156212
0.00498116
-7.99216e-09
0.0144831
0.00574463
4.31904e-10
0.013369
0.00570415
-1.03304e-10
0.0121964
0.00604654
-7.30723e-10
0.0109298
0.00650387
-7.42966e-10
0.0095315
0.00712878
-7.01888e-10
0.00798456
0.00782746
-5.65885e-10
0.00626528
0.00855885
-4.8323e-10
0.00434774
0.00929809
-4.30932e-10
0.0022413
0.00999584
-4.04929e-10
0.010497
-4.09527e-10
0.0168001
1.16201e-09
-3.47451e-12
0.0168001
6.39672e-09
-1.16264e-11
0.0168
2.38239e-08
-1.37425e-11
0.0168
6.11338e-08
-2.1567e-11
0.0168
1.69214e-07
-2.24816e-11
0.0167999
3.89883e-07
-3.02205e-11
0.0167997
1.00886e-06
-3.29912e-11
0.0167992
2.35758e-06
-4.96991e-11
0.0167981
5.68886e-06
-5.4143e-11
0.0167948
1.4005e-05
-1.4749e-10
0.0167885
3.54715e-05
-9.65926e-11
0.0167716
9.38313e-05
-5.58823e-10
0.0167283
0.000313836
-8.2445e-10
0.0165732
0.000991807
-3.15477e-09
0.0157414
0.00576883
-7.82959e-09
0.0145912
0.00689531
5.24104e-10
0.0134901
0.00680358
-1.42991e-10
0.0123536
0.00717821
-7.30681e-10
0.0111432
0.00770907
-7.19113e-10
0.00979754
0.00846948
-6.53567e-10
0.00828177
0.00933901
-5.74255e-10
0.00657499
0.0102618
-5.3677e-10
0.00463713
0.0112327
-5.25987e-10
0.00243526
0.0121944
-5.4447e-10
0.0129287
-5.96415e-10
0.0168001
1.17476e-09
-3.40966e-12
0.0168001
6.49399e-09
-1.1657e-11
0.0168001
2.42097e-08
-1.36521e-11
0.0168001
6.19936e-08
-2.15145e-11
0.0168
1.71434e-07
-2.22265e-11
0.0168
3.91445e-07
-2.97095e-11
0.0168
1.0336e-06
-3.18244e-11
0.0168
2.27819e-06
-4.45769e-11
0.0167992
6.25944e-06
-5.57972e-11
0.0167997
1.33579e-05
-1.04016e-10
0.0167921
4.17254e-05
-1.82034e-10
0.0167873
9.73635e-05
-4.4186e-10
0.016713
0.000382618
-8.63434e-10
0.0165765
0.00111542
-3.10236e-09
0.0158689
0.00643028
-7.78685e-09
0.0146944
0.00807179
7.53272e-10
0.0136103
0.00788626
-6.85286e-11
0.0125245
0.00825928
-6.90475e-10
0.0113807
0.00884759
-6.71515e-10
0.0101301
0.00971499
-6.03575e-10
0.0086878
0.0107781
-5.67417e-10
0.0070213
0.0119251
-5.69459e-10
0.00507177
0.013179
-5.84815e-10
0.00275482
0.0145079
-6.38404e-10
0.0156799
-7.31893e-10
0.0168001
1.16032e-09
-3.3615e-12
0.0168001
6.47981e-09
-1.16506e-11
0.0168001
2.41394e-08
-1.36356e-11
0.0168001
6.18969e-08
-2.14682e-11
0.0168001
1.70068e-07
-2.21197e-11
0.0168001
3.8482e-07
-2.94657e-11
0.0168
1.03618e-06
-3.13042e-11
0.0168002
2.10516e-06
-4.28381e-11
0.0167993
6.88077e-06
-5.48425e-11
0.016801
1.15603e-05
-9.42806e-11
0.0167911
5.02278e-05
-1.80102e-10
0.0167907
9.64973e-05
-3.82694e-10
0.0167237
0.000444265
-9.97317e-10
0.0166244
0.00120426
-2.95019e-09
0.0162269
0.00677838
-7.97654e-09
0.0149769
0.00932542
9.48074e-10
0.0138584
0.00900485
5.17275e-11
0.0128082
0.0093052
-6.23684e-10
0.011736
0.00991485
-6.05322e-10
0.010558
0.0108872
-5.45518e-10
0.0092114
0.0121198
-5.32967e-10
0.00761821
0.0135143
-5.61854e-10
0.00569857
0.0150953
-6.02624e-10
0.00327133
0.0169319
-6.79182e-10
0.0189474
-8.0548e-10
0.0168001
1.67782e-09
-3.34023e-12
0.0168001
7.60554e-09
-1.1594e-11
0.0168
2.99377e-08
-1.37098e-11
0.0168
7.44957e-08
-2.14148e-11
0.0168
2.09236e-07
-2.2139e-11
0.0167999
4.69394e-07
-2.93942e-11
0.0167997
1.25779e-06
-3.12712e-11
0.016799
2.68254e-06
-4.35485e-11
0.016798
7.76094e-06
-5.20822e-11
0.0167952
1.42804e-05
-1.1235e-10
0.0167898
5.41268e-05
-1.26481e-10
0.0167868
9.89579e-05
-4.15585e-10
0.0167672
0.000458333
-8.77697e-10
0.0167495
0.00121264
-2.75745e-09
0.0169663
0.0065102
-7.8599e-09
0.0155756
0.0107202
7.56388e-10
0.0143173
0.0102643
3.35195e-12
0.0132631
0.0103562
-5.55985e-10
0.0122671
0.0109073
-5.47934e-10
0.0111746
0.0119756
-5.27025e-10
0.00992677
0.0133637
-5.25319e-10
0.00850284
0.0149343
-5.56133e-10
0.00674722
0.0168471
-5.88603e-10
0.00423193
0.0194441
-6.62197e-10
0.023176
-7.96654e-10
0.0168001
-3.38037e-12
3.12162e-09
0.0168001
-1.15138e-11
3.39874e-09
0.0168
-1.38495e-11
4.37577e-08
0.0168001
-2.14474e-11
4.49277e-08
0.0168
-2.21352e-11
2.95709e-07
0.0168002
-2.91398e-11
2.97321e-07
0.0167996
-3.04513e-11
1.80516e-06
0.0168006
-4.03235e-11
1.62824e-06
0.0167965
-5.10399e-11
1.16284e-05
0.0168039
-8.69584e-11
6.75982e-06
0.0167742
-1.41581e-10
8.25304e-05
0.0168336
-3.52644e-10
3.86524e-05
0.0167065
-8.37419e-10
0.000579862
0.0169789
-2.47526e-09
0.000932576
0.0182517
-7.56947e-09
0.00518476
0.0166938
-1.21277e-10
0.0122781
0.0150986
-4.34292e-10
0.0118577
0.0140623
-3.81387e-10
0.0113897
0.0129877
-4.59303e-10
0.0119775
0.0120128
-5.53523e-10
0.0129458
0.0109582
-5.37269e-10
0.0144143
0.00978949
-5.42976e-10
0.016099
0.00821358
-5.64235e-10
0.0184193
0.00584198
-6.04254e-10
0.0218124
-6.76901e-10
0.0290152
0.0168001
1.71619e-10
-1.01944e-15
0.0168001
9.37795e-10
-5.00265e-15
0.0168
3.48496e-09
-1.35813e-14
0.0168
8.94164e-09
-2.88209e-14
0.0168
2.46426e-08
-7.11794e-14
0.0167999
5.6231e-08
-1.40275e-13
0.0167998
1.48717e-07
-3.8205e-13
0.0167994
3.24304e-07
-7.16865e-13
0.0167982
9.16927e-07
-2.38347e-12
0.0167963
1.90775e-06
-3.93742e-12
0.0167887
6.15686e-06
-1.5829e-11
0.0167717
1.56408e-05
-3.62937e-11
0.01671
5.68826e-05
-1.11563e-10
0.0165019
0.000192232
-3.7206e-10
0.0153978
0.00106542
-8.30484e-10
0.0142473
0.00115001
-1.33786e-11
0.0130824
0.00116346
-3.85975e-11
0.0118426
0.00123598
-1.015e-10
0.0105156
0.00132187
-1.10884e-10
0.00908099
0.0014299
-1.17068e-10
0.00752377
0.00155437
-8.7792e-11
0.00583851
0.00168303
-7.54124e-11
0.0040324
0.00180395
-1.04196e-10
0.00209715
0.00193315
-1.00255e-10
0.00209482
-7.52861e-11
0.0168001
3.50368e-10
-1.02165e-15
0.0168001
1.91779e-09
-5.01419e-15
0.0168
7.12482e-09
-1.36008e-14
0.0168
1.8254e-08
-2.8863e-14
0.0168
5.03327e-08
-7.11818e-14
0.0167999
1.1463e-07
-1.40264e-13
0.0167998
3.03643e-07
-3.81391e-13
0.0167994
6.57622e-07
-7.15628e-13
0.0167982
1.87935e-06
-2.3752e-12
0.0167962
3.83743e-06
-3.92329e-12
0.0167883
1.26593e-05
-1.57641e-11
0.0167711
3.14161e-05
-3.5956e-11
0.0167074
0.000115803
-1.10894e-10
0.0165
0.000384025
-3.67714e-10
0.0153998
0.00212675
-8.30179e-10
0.0142441
0.0023053
-1.18334e-11
0.0130925
0.00231358
-3.86522e-11
0.011863
0.00246163
-1.02557e-10
0.0105417
0.00263805
-1.11307e-10
0.00909528
0.00287162
-1.16526e-10
0.00751992
0.00312682
-1.01672e-10
0.00581389
0.003387
-7.52638e-11
0.00397589
0.00363956
-8.16741e-11
0.00202225
0.00388452
-1.0496e-10
0.00411481
-7.62758e-11
0.0168001
5.45656e-10
-1.0285e-15
0.0168001
2.98303e-09
-5.04841e-15
0.0168
1.10796e-08
-1.36755e-14
0.0168
2.84098e-08
-2.90208e-14
0.0168
7.82356e-08
-7.13496e-14
0.0167999
1.785e-07
-1.40507e-13
0.0167997
4.69902e-07
-3.80374e-13
0.0167993
1.03002e-06
-7.1087e-13
0.0167981
2.86046e-06
-2.36159e-12
0.0167958
6.0131e-06
-3.84751e-12
0.0167883
1.88211e-05
-1.56594e-11
0.016771
4.73793e-05
-3.51162e-11
0.0167101
0.000171829
-1.09743e-10
0.016522
0.000557217
-3.59115e-10
0.0154714
0.00313783
-8.37323e-10
0.0143171
0.00345924
-1.09877e-11
0.0131717
0.00345744
-3.99314e-11
0.0119505
0.00367897
-1.04307e-10
0.010635
0.00394824
-1.11846e-10
0.00918831
0.00431356
-1.1542e-10
0.00760263
0.00470955
-8.56935e-11
0.00587975
0.00510763
-7.22541e-11
0.00401871
0.00549827
-7.08826e-11
0.00203721
0.00586366
-1.0894e-10
0.00614953
-1.01897e-10
0.0168001
7.62499e-10
-1.07598e-15
0.0168001
4.14458e-09
-5.26095e-15
0.0168
1.54169e-08
-1.43855e-14
0.0168
3.95253e-08
-3.06378e-14
0.0168
1.08988e-07
-7.59353e-14
0.0167999
2.49434e-07
-1.51384e-13
0.0167997
6.5147e-07
-4.01827e-13
0.0167992
1.46587e-06
-8.14294e-13
0.016798
3.83548e-06
-2.29455e-12
0.0167952
8.70679e-06
-4.7563e-12
0.0167885
2.40892e-05
-1.37408e-11
0.0167709
6.38736e-05
-3.70086e-11
0.0167129
0.000224151
-1.04683e-10
0.0165524
0.000704163
-3.3137e-10
0.0155603
0.00408911
-8.41334e-10
0.014411
0.00460767
-1.30423e-11
0.0132741
0.00459246
-5.89787e-11
0.0120696
0.00487898
-1.08581e-10
0.0107701
0.00524251
-1.13707e-10
0.00934261
0.00573595
-1.14827e-10
0.00776521
0.00628395
-1.00832e-10
0.006028
0.0068419
-9.34132e-11
0.00414073
0.00738283
-7.77148e-11
0.0021105
0.00789127
-7.03781e-11
0.00825717
-7.02782e-11
0.0168001
9.62842e-10
-1.09107e-15
0.0168001
5.25077e-09
-5.3327e-15
0.0168
1.95207e-08
-1.45878e-14
0.0168
5.01487e-08
-3.10687e-14
0.0168
1.38099e-07
-7.68001e-14
0.0167999
3.16512e-07
-1.5293e-13
0.0167997
8.25392e-07
-4.04121e-13
0.0167993
1.85564e-06
-8.13026e-13
0.016798
4.86917e-06
-2.29762e-12
0.0167957
1.08933e-05
-4.68096e-12
0.0167879
3.04783e-05
-1.36762e-11
0.0167723
7.83442e-05
-3.59381e-11
0.0167144
0.000276343
-1.0358e-10
0.0165569
0.000849023
-3.22257e-10
0.0156214
0.00498234
-8.54407e-10
0.0144835
0.00574516
-3.81075e-12
0.0133694
0.00570456
-3.94939e-11
0.0121967
0.00604689
-1.10655e-10
0.01093
0.00650412
-1.13829e-10
0.00953161
0.00712899
-1.12962e-10
0.00798466
0.00782745
-9.56407e-11
0.00626542
0.00855853
-9.56423e-11
0.0043479
0.00929743
-9.28521e-11
0.00224142
0.00999474
-9.10586e-11
0.0104954
-9.06455e-11
0.0168001
1.19319e-09
-1.16031e-15
0.0168001
6.40657e-09
-5.60356e-15
0.0168
2.38836e-08
-1.5618e-14
0.0168
6.1196e-08
-3.34616e-14
0.0168
1.69378e-07
-8.38666e-14
0.0167999
3.90207e-07
-1.70233e-13
0.0167997
1.00959e-06
-4.38356e-13
0.0167992
2.36019e-06
-9.63528e-13
0.0167981
5.68932e-06
-2.23997e-12
0.0167948
1.40262e-05
-5.46587e-12
0.0167885
3.54404e-05
-1.27598e-11
0.0167715
9.3884e-05
-3.6113e-11
0.0167284
0.000313849
-1.02853e-10
0.0165733
0.000991941
-3.1884e-10
0.0157417
0.00576977
-8.78576e-10
0.0145918
0.00689558
1.36297e-11
0.0134906
0.00680394
-3.63569e-11
0.0123542
0.00717858
-1.10855e-10
0.0111437
0.00770938
-1.129e-10
0.00979803
0.0084697
-1.10512e-10
0.00828223
0.00933905
-9.76946e-11
0.0065754
0.0102615
-9.59135e-11
0.00463749
0.0112321
-9.4208e-11
0.00243549
0.0121935
-9.3329e-11
0.0129274
-9.43313e-11
0.0168001
1.19866e-09
-1.09781e-15
0.0168001
6.51734e-09
-5.34273e-15
0.0168001
2.42437e-08
-1.47008e-14
0.0168001
6.20504e-08
-3.1388e-14
0.0168
1.71546e-07
-7.79168e-14
0.0168
3.91685e-07
-1.5642e-13
0.0168
1.03412e-06
-4.10526e-13
0.0168
2.27964e-06
-8.5078e-13
0.0167992
6.26155e-06
-2.28882e-12
0.0167997
1.33653e-05
-4.76707e-12
0.016792
4.17342e-05
-1.47411e-11
0.0167873
9.73993e-05
-3.49323e-11
0.016713
0.000382592
-9.73075e-11
0.0165765
0.0011156
-3.25115e-10
0.0158688
0.00643123
-9.01065e-10
0.0146946
0.00807165
3.63016e-11
0.0136108
0.00788644
-3.4773e-11
0.012525
0.00825956
-1.10088e-10
0.0113813
0.00884786
-1.11417e-10
0.0101307
0.00971521
-1.01934e-10
0.00868838
0.0107781
-1.00295e-10
0.00702185
0.0119249
-9.6976e-11
0.00507223
0.0131785
-9.48291e-11
0.00275511
0.0145071
-9.46113e-11
0.0156788
-9.60663e-11
0.0168001
1.16939e-09
-1.00013e-15
0.0168001
6.51278e-09
-4.9284e-15
0.0168001
2.41293e-08
-1.32752e-14
0.0168001
6.19187e-08
-2.81446e-14
0.0168001
1.70076e-07
-6.88422e-14
0.0168001
3.84904e-07
-1.35273e-13
0.0168
1.03636e-06
-3.65576e-13
0.0168002
2.10553e-06
-6.81152e-13
0.0167993
6.88279e-06
-2.25542e-12
0.016801
1.1557e-05
-3.75836e-12
0.0167911
5.02555e-05
-1.50109e-11
0.0167907
9.64953e-05
-2.8161e-11
0.0167236
0.000444388
-1.2114e-10
0.0166241
0.00120451
-3.15579e-10
0.016226
0.00677993
-9.431e-10
0.0149765
0.00932485
6.10818e-11
0.0138584
0.0090046
-2.55785e-11
0.0128085
0.00930522
-1.06121e-10
0.0117364
0.009915
-1.07605e-10
0.0105585
0.0108874
-1.0576e-10
0.00921197
0.0121198
-8.99108e-11
0.00761878
0.0135141
-9.57722e-11
0.00569904
0.0150949
-9.43338e-11
0.00327164
0.0169313
-9.33036e-11
0.0189467
-9.52149e-11
0.0168001
1.64154e-09
-9.38285e-16
0.0168001
7.71765e-09
-4.65163e-15
0.0168
2.97867e-08
-1.23297e-14
0.0168
7.438e-08
-2.6199e-14
0.0168
2.09042e-07
-6.18936e-14
0.0167999
4.69363e-07
-1.19105e-13
0.0167997
1.25801e-06
-3.1977e-13
0.016799
2.68396e-06
-5.09478e-13
0.016798
7.7623e-06
-2.27662e-12
0.0167952
1.42918e-05
-1.88846e-12
0.0167898
5.41347e-05
-1.81482e-11
0.0167867
9.90028e-05
-2.27285e-11
0.0167671
0.00045843
-1.25066e-10
0.0167492
0.00121306
-3.0548e-10
0.016965
0.00651273
-9.60611e-10
0.0155747
0.0107193
4.55064e-11
0.014317
0.0102635
-2.79467e-11
0.013263
0.0103559
-9.40708e-11
0.0122672
0.0109073
-9.21823e-11
0.0111749
0.0119755
-1.06523e-10
0.00992718
0.0133636
-9.95078e-11
0.0085033
0.0149341
-9.53512e-11
0.00674767
0.0168468
-9.3396e-11
0.00423226
0.0194437
-8.91012e-11
0.0231756
-8.94761e-11
0.0168001
-9.37483e-16
2.98865e-09
0.0168001
-4.61464e-15
3.78868e-09
0.0168
-1.23443e-14
4.25868e-08
0.0168001
-2.61745e-14
4.54124e-08
0.0168
-6.36089e-14
2.94495e-07
0.0168002
-1.2595e-13
2.98017e-07
0.0167996
-3.35593e-13
1.80442e-06
0.0168006
-6.59673e-13
1.62998e-06
0.0167965
-2.0723e-12
1.1629e-05
0.0168039
-3.24968e-12
6.77017e-06
0.0167742
-1.51785e-11
8.25491e-05
0.0168336
-2.43888e-11
3.87023e-05
0.0167064
-1.12201e-10
0.000580011
0.0169782
-2.85676e-10
0.000933517
0.0182492
-9.47457e-10
0.00518904
0.0166918
-6.13596e-11
0.0122767
0.0150978
-7.96323e-11
0.0118556
0.0140617
-8.2498e-11
0.0113893
0.0129874
-9.59575e-11
0.0119771
0.0120128
-9.41344e-11
0.0129455
0.0109584
-9.06363e-11
0.014414
0.00978984
-9.91312e-11
0.0160986
0.00821399
-9.19068e-11
0.0184189
0.00584234
-8.18888e-11
0.0218121
-7.51975e-11
0.0290152
0.0168001
1.71618e-10
1.222e-16
0.0168001
9.37788e-10
-4.07613e-16
0.0168
3.48494e-09
-1.36057e-15
0.0168
8.94159e-09
-2.93138e-15
0.0168
2.46425e-08
-8.54014e-15
0.0167999
5.62309e-08
-1.73355e-14
0.0167998
1.48717e-07
-5.16237e-14
0.0167994
3.24305e-07
-9.79481e-14
0.0167982
9.16932e-07
-3.39048e-13
0.0167963
1.90776e-06
-5.58782e-13
0.0167887
6.15692e-06
-2.29854e-12
0.0167717
1.56411e-05
-5.26593e-12
0.01671
5.68835e-05
-1.63617e-11
0.0165019
0.000192238
-5.46658e-11
0.0153978
0.00106543
-1.2307e-10
0.0142473
0.00115001
-2.90747e-12
0.0130824
0.00116346
-6.712e-12
0.0118426
0.00123598
-1.56429e-11
0.0105156
0.00132187
-1.69828e-11
0.00908095
0.0014299
-1.78174e-11
0.00752372
0.00155437
-1.56274e-11
0.00583846
0.00168303
-1.40995e-11
0.00403236
0.00180394
-1.33708e-11
0.00209712
0.00193314
-1.25891e-11
0.00209479
-1.17818e-11
0.0168001
3.50364e-10
1.22025e-16
0.0168001
1.91777e-09
-2.24246e-16
0.0168
7.12474e-09
-1.36354e-15
0.0168
1.82538e-08
-2.9383e-15
0.0168
5.03322e-08
-8.54668e-15
0.0167999
1.14629e-07
-1.7349e-14
0.0167998
3.03641e-07
-5.15728e-14
0.0167994
6.57618e-07
-9.78672e-14
0.0167982
1.87934e-06
-3.38096e-13
0.0167962
3.83745e-06
-5.57143e-13
0.0167883
1.26593e-05
-2.29064e-12
0.0167711
3.14167e-05
-5.21983e-12
0.0167074
0.000115804
-1.62733e-11
0.0165
0.000384038
-5.40604e-11
0.0153998
0.00212678
-1.23077e-10
0.0142441
0.0023053
-2.81437e-12
0.0130925
0.00231358
-6.714e-12
0.011863
0.00246162
-1.5794e-11
0.0105417
0.00263805
-1.70441e-11
0.00909524
0.00287162
-1.77453e-11
0.00751989
0.00312682
-1.55351e-11
0.00581386
0.003387
-1.40447e-11
0.00397587
0.00363955
-1.33489e-11
0.00202224
0.0038845
-1.26167e-11
0.00411477
-1.18916e-11
0.0168001
5.45633e-10
1.2143e-16
0.0168001
2.98291e-09
-2.29702e-16
0.0168
1.10791e-08
-1.37429e-15
0.0168
2.84087e-08
-2.96241e-15
0.0168
7.82327e-08
-8.58153e-15
0.0167999
1.78492e-07
-1.74099e-14
0.0167997
4.69887e-07
-5.15105e-14
0.0167993
1.02996e-06
-9.73659e-14
0.0167981
2.86046e-06
-3.36605e-13
0.0167958
6.01265e-06
-5.4733e-13
0.0167883
1.88219e-05
-2.27796e-12
0.016771
4.73787e-05
-5.10615e-12
0.0167101
0.000171833
-1.6122e-11
0.016522
0.000557243
-5.2866e-11
0.0154713
0.00313788
-1.24234e-10
0.014317
0.00345924
-2.67252e-12
0.0131717
0.00345744
-6.89128e-12
0.0119504
0.00367896
-1.60592e-11
0.0106349
0.00394823
-1.71419e-11
0.00918828
0.00431356
-1.76155e-11
0.0076026
0.00470955
-1.54101e-11
0.00587972
0.00510762
-1.40936e-11
0.00401869
0.00549825
-1.34642e-11
0.00203721
0.00586363
-1.2896e-11
0.00614948
-1.23862e-11
0.0168001
7.62491e-10
1.15476e-16
0.0168001
4.14453e-09
-4.4131e-16
0.0168
1.54167e-08
-1.47695e-15
0.0168
3.95247e-08
-3.19716e-15
0.0168
1.08987e-07
-9.26128e-15
0.0167999
2.4943e-07
-1.90246e-14
0.0167997
6.51463e-07
-5.47374e-14
0.0167992
1.46585e-06
-1.12656e-13
0.016798
3.83544e-06
-3.27482e-13
0.0167952
8.70675e-06
-6.81253e-13
0.0167885
2.40891e-05
-2.00302e-12
0.0167709
6.38742e-05
-5.39036e-12
0.0167129
0.000224154
-1.54244e-11
0.0165524
0.000704178
-4.89033e-11
0.0155603
0.00408916
-1.25044e-10
0.014411
0.00460767
-2.98215e-12
0.0132741
0.00459246
-7.84278e-12
0.0120696
0.00487898
-1.66964e-11
0.0107701
0.00524251
-1.7448e-11
0.0093426
0.00573595
-1.75808e-11
0.0077652
0.00628395
-1.54796e-11
0.00602799
0.00684189
-1.43447e-11
0.00414073
0.00738281
-1.37712e-11
0.00211049
0.00789123
-1.33968e-11
0.00825713
-1.31163e-11
0.0168001
9.62809e-10
1.13345e-16
0.0168001
5.25063e-09
-4.52726e-16
0.0168
1.95202e-08
-1.50903e-15
0.0168
5.01473e-08
-3.26575e-15
0.0168
1.38095e-07
-9.40579e-15
0.0167999
3.16503e-07
-1.92879e-14
0.0167997
8.25371e-07
-5.51922e-14
0.0167993
1.85556e-06
-1.12714e-13
0.016798
4.86917e-06
-3.28727e-13
0.0167957
1.08928e-05
-6.71766e-13
0.0167879
3.04789e-05
-1.99893e-12
0.0167723
7.83441e-05
-5.24633e-12
0.0167144
0.000276346
-1.53003e-11
0.0165569
0.000849035
-4.76732e-11
0.0156214
0.00498239
-1.27222e-10
0.0144835
0.00574515
-1.57871e-12
0.0133694
0.00570456
-7.91889e-12
0.0121967
0.00604689
-1.70313e-11
0.01093
0.00650412
-1.75204e-11
0.00953162
0.00712899
-1.7387e-11
0.00798466
0.00782744
-1.55917e-11
0.00626543
0.00855852
-1.46858e-11
0.00434791
0.00929741
-1.42233e-11
0.00224143
0.00999472
-1.39183e-11
0.0104954
-1.37935e-11
0.0168001
1.19321e-09
1.03732e-16
0.0168001
6.40671e-09
-3.24042e-16
0.0168
2.38842e-08
-1.6611e-15
0.0168
6.11973e-08
-3.61908e-15
0.0168
1.69382e-07
-1.04485e-14
0.0167999
3.90216e-07
-2.18392e-14
0.0167997
1.00961e-06
-6.02765e-14
0.0167992
2.36026e-06
-1.34843e-13
0.0167981
5.68934e-06
-3.21013e-13
0.0167948
1.40266e-05
-7.87674e-13
0.0167885
3.54397e-05
-1.87029e-12
0.0167715
9.3885e-05
-5.28394e-12
0.0167283
0.000313852
-1.52324e-11
0.0165733
0.000991946
-4.72771e-11
0.0157417
0.00576983
-1.31063e-10
0.0145918
0.00689555
5.95135e-13
0.0134907
0.00680393
-7.42897e-12
0.0123542
0.00717858
-1.71158e-11
0.0111437
0.00770938
-1.74555e-11
0.00979805
0.0084697
-1.71278e-11
0.00828224
0.00933905
-1.55482e-11
0.00657542
0.0102615
-1.47896e-11
0.0046375
0.0112321
-1.44651e-11
0.0024355
0.0121935
-1.43212e-11
0.0129273
-1.43251e-11
0.0168001
1.19871e-09
1.11767e-16
0.0168001
6.51758e-09
-4.57471e-16
0.0168001
2.42446e-08
-1.53284e-15
0.0168001
6.20528e-08
-3.32744e-15
0.0168
1.71553e-07
-9.60877e-15
0.0168
3.91701e-07
-1.98732e-14
0.0168
1.03415e-06
-5.63601e-14
0.0168
2.27976e-06
-1.18686e-13
0.0167992
6.26166e-06
-3.28966e-13
0.0167997
1.33659e-05
-6.878e-13
0.016792
4.17347e-05
-2.16175e-12
0.0167873
9.74029e-05
-5.12599e-12
0.016713
0.000382582
-1.44517e-11
0.0165765
0.00111561
-4.82917e-11
0.0158687
0.0064313
-1.34682e-10
0.0146946
0.0080716
3.87847e-12
0.0136108
0.00788642
-6.53594e-12
0.012525
0.00825955
-1.70779e-11
0.0113813
0.00884787
-1.73252e-11
0.0101307
0.00971521
-1.69749e-11
0.0086884
0.0107781
-1.56152e-11
0.00702187
0.0119249
-1.50284e-11
0.00507225
0.0131785
-1.46461e-11
0.00275512
0.0145071
-1.45317e-11
0.0156787
-1.46357e-11
0.0168001
1.16942e-09
1.23367e-16
0.0168001
6.51294e-09
-3.99739e-16
0.0168001
2.41299e-08
-1.33113e-15
0.0168001
6.19201e-08
-2.8681e-15
0.0168001
1.7008e-07
-8.31767e-15
0.0168001
3.84914e-07
-1.68537e-14
0.0168
1.03638e-06
-4.99582e-14
0.0168002
2.10561e-06
-9.42503e-14
0.0167993
6.88286e-06
-3.24854e-13
0.016801
1.15578e-05
-5.41959e-13
0.0167911
5.02547e-05
-2.20562e-12
0.0167907
9.64983e-05
-4.14238e-12
0.0167236
0.000444391
-1.7974e-11
0.0166241
0.00120453
-4.69645e-11
0.0162259
0.00678007
-1.41103e-10
0.0149764
0.00932476
7.44232e-12
0.0138584
0.00900455
-4.4886e-12
0.0128085
0.0093052
-1.66037e-11
0.0117364
0.00991499
-1.68858e-11
0.0105586
0.0108873
-1.66887e-11
0.00921199
0.0121198
-1.54716e-11
0.00761879
0.0135141
-1.50039e-11
0.00569906
0.0150949
-1.4722e-11
0.00327166
0.0169313
-1.44859e-11
0.0189467
-1.46514e-11
0.0168001
1.64156e-09
1.29782e-16
0.0168001
7.71779e-09
-1.67068e-16
0.0168
2.97871e-08
-1.19915e-15
0.0168
7.43813e-08
-2.59861e-15
0.0168
2.09045e-07
-7.33956e-15
0.0167999
4.69369e-07
-1.45729e-14
0.0167997
1.25802e-06
-4.34666e-14
0.016799
2.68396e-06
-6.94891e-14
0.016798
7.7625e-06
-3.28958e-13
0.0167952
1.42916e-05
-2.68687e-13
0.0167898
5.41364e-05
-2.67274e-12
0.0167867
9.90041e-05
-3.34726e-12
0.0167671
0.000458444
-1.85725e-11
0.0167492
0.0012131
-4.55161e-11
0.0169648
0.00651303
-1.43812e-10
0.0155746
0.0107191
5.02705e-12
0.0143169
0.0102634
-4.12195e-12
0.0132629
0.0103559
-1.56645e-11
0.0122671
0.0109073
-1.6285e-11
0.0111749
0.0119754
-1.69568e-11
0.00992719
0.0133635
-1.58331e-11
0.00850331
0.0149341
-1.51762e-11
0.00674769
0.0168468
-1.48193e-11
0.00423228
0.0194437
-1.41129e-11
0.0231756
-1.40892e-11
0.0168001
1.30226e-16
2.98872e-09
0.0168001
-3.55536e-16
3.78898e-09
0.0168
-1.19867e-15
4.25882e-08
0.0168001
-2.59302e-15
4.5415e-08
0.0168
-7.59383e-15
2.94506e-07
0.0168002
-1.55905e-14
2.98033e-07
0.0167996
-4.5845e-14
1.8045e-06
0.0168006
-9.15734e-14
1.63004e-06
0.0167965
-2.99625e-13
1.16296e-05
0.0168039
-4.67937e-13
6.7701e-06
0.0167742
-2.24143e-12
8.25534e-05
0.0168336
-3.58768e-12
3.87042e-05
0.0167064
-1.66936e-11
0.000580037
0.0169782
-4.25919e-11
0.000933625
0.0182489
-1.41833e-10
0.00518958
0.0166915
-1.06727e-11
0.0122765
0.0150977
-1.30984e-11
0.0118553
0.0140616
-1.33815e-11
0.0113893
0.0129873
-1.5454e-11
0.011977
0.0120127
-1.80321e-11
0.0129455
0.0109583
-1.66282e-11
0.0144139
0.00978985
-1.59946e-11
0.0160986
0.00821401
-1.49007e-11
0.0184189
0.00584236
-1.34024e-11
0.0218121
-1.24712e-11
0.0290152
0.0168001
1.71618e-10
-7.54334e-17
0.0168001
9.37787e-10
-3.27006e-16
0.0168
3.48494e-09
-1.06618e-15
0.0168
8.94159e-09
-2.26621e-15
0.0168
2.46425e-08
-6.56232e-15
0.0167999
5.62308e-08
-1.3276e-14
0.0167998
1.48717e-07
-3.96428e-14
0.0167994
3.24305e-07
-7.51242e-14
0.0167982
9.16933e-07
-2.61431e-13
0.0167963
1.90776e-06
-4.33575e-13
0.0167887
6.15692e-06
-1.75096e-12
0.0167717
1.56411e-05
-4.25379e-12
0.01671
5.68837e-05
-1.19736e-11
0.0165019
0.000192239
-4.4756e-11
0.0153978
0.00106544
-1.0187e-10
0.0142473
0.00115001
-3.60786e-12
0.0130823
0.00116346
-6.07407e-12
0.0118426
0.00123598
-1.30497e-11
0.0105156
0.00132187
-1.40301e-11
0.00908095
0.0014299
-1.44142e-11
0.00752372
0.00155437
-1.2251e-11
0.00583846
0.00168303
-1.07947e-11
0.00403235
0.00180394
-1.01012e-11
0.00209712
0.00193313
-9.38941e-12
0.00209479
-8.75381e-12
0.0168001
3.50364e-10
-7.57561e-17
0.0168001
1.91777e-09
-3.28444e-16
0.0168
7.12473e-09
-1.06972e-15
0.0168
1.82537e-08
-2.2742e-15
0.0168
5.03321e-08
-6.57447e-15
0.0167999
1.14629e-07
-1.33009e-14
0.0167998
3.0364e-07
-3.96431e-14
0.0167994
6.57617e-07
-7.5137e-14
0.0167982
1.87934e-06
-2.60946e-13
0.0167962
3.83745e-06
-4.32571e-13
0.0167883
1.26593e-05
-1.74706e-12
0.0167711
3.14168e-05
-4.21871e-12
0.0167074
0.000115805
-1.19114e-11
0.0165
0.00038404
-4.42729e-11
0.0153997
0.00212679
-1.01781e-10
0.0142441
0.0023053
-3.41465e-12
0.0130925
0.00231358
-6.05514e-12
0.011863
0.00246162
-1.31282e-11
0.0105417
0.00263805
-1.40318e-11
0.00909524
0.00287162
-1.43013e-11
0.00751988
0.00312682
-1.21313e-11
0.00581386
0.003387
-1.07054e-11
0.00397586
0.00363955
-1.00461e-11
0.00202224
0.00388449
-9.36099e-12
0.00411476
-8.78672e-12
0.0168001
5.4563e-10
-7.67149e-17
0.0168001
2.9829e-09
-3.32455e-16
0.0168
1.10791e-08
-1.08055e-15
0.0168
2.84086e-08
-2.2976e-15
0.0168
7.82322e-08
-6.61508e-15
0.0167999
1.78491e-07
-1.33757e-14
0.0167997
4.69885e-07
-3.96758e-14
0.0167993
1.02996e-06
-7.49103e-14
0.0167981
2.86046e-06
-2.603e-13
0.0167958
6.01259e-06
-4.25677e-13
0.0167883
1.88221e-05
-1.74161e-12
0.016771
4.73786e-05
-4.13247e-12
0.0167101
0.000171834
-1.18112e-11
0.016522
0.000557246
-4.33451e-11
0.0154713
0.00313789
-1.02694e-10
0.014317
0.00345924
-3.3101e-12
0.0131717
0.00345743
-6.17191e-12
0.0119504
0.00367896
-1.32875e-11
0.0106349
0.00394823
-1.40521e-11
0.00918827
0.00431356
-1.41333e-11
0.0076026
0.00470955
-1.1975e-11
0.00587972
0.00510762
-1.06906e-11
0.00401869
0.00549825
-1.00898e-11
0.00203721
0.00586362
-9.52033e-12
0.00614948
-9.11443e-12
0.0168001
7.6249e-10
-8.28805e-17
0.0168001
4.14452e-09
-3.56431e-16
0.0168
1.54167e-08
-1.16439e-15
0.0168
3.95246e-08
-2.48705e-15
0.0168
1.08987e-07
-7.1609e-15
0.0167999
2.4943e-07
-1.46661e-14
0.0167997
6.51461e-07
-4.22876e-14
0.0167992
1.46585e-06
-8.70047e-14
0.016798
3.83543e-06
-2.53939e-13
0.0167952
8.70674e-06
-5.31776e-13
0.0167885
2.40891e-05
-1.53836e-12
0.0167709
6.38743e-05
-4.37038e-12
0.0167129
0.000224154
-1.13341e-11
0.0165524
0.00070418
-4.01959e-11
0.0155603
0.00408917
-1.03412e-10
0.014411
0.00460767
-3.55265e-12
0.0132741
0.00459246
-6.90733e-12
0.0120696
0.00487898
-1.3744e-11
0.0107701
0.00524251
-1.42355e-11
0.0093426
0.00573595
-1.40347e-11
0.0077652
0.00628395
-1.19489e-11
0.00602799
0.00684189
-1.08093e-11
0.00414073
0.0073828
-1.02434e-11
0.00211049
0.00789123
-9.82303e-12
0.00825712
-9.60605e-12
0.0168001
9.62804e-10
-8.51937e-17
0.0168001
5.25061e-09
-3.67158e-16
0.0168
1.95201e-08
-1.19376e-15
0.0168
5.01471e-08
-2.54908e-15
0.0168
1.38095e-07
-7.29715e-15
0.0167999
3.16501e-07
-1.49188e-14
0.0167997
8.25368e-07
-4.27837e-14
0.0167993
1.85555e-06
-8.73298e-14
0.016798
4.86917e-06
-2.55822e-13
0.0167957
1.08927e-05
-5.25916e-13
0.0167879
3.04789e-05
-1.54152e-12
0.0167723
7.83441e-05
-4.26702e-12
0.0167144
0.000276346
-1.12817e-11
0.0165569
0.000849036
-3.92742e-11
0.0156214
0.0049824
-1.05297e-10
0.0144835
0.00574515
-2.416e-12
0.0133694
0.00570456
-6.91991e-12
0.0121967
0.00604689
-1.39409e-11
0.01093
0.00650412
-1.42194e-11
0.00953162