/*--------------------------------*- C++ -*----------------------------------*\
| =========                 |                                                 |
| \\      /  F ield         | OpenFOAM: The Open Source CFD Toolbox           |
|  \\    /   O peration     | Version:  4.1                                   |
|   \\  /    A nd           | Web:      www.OpenFOAM.org                      |
|    \\/     M anipulation  |                                                 |
\*---------------------------------------------------------------------------*/
FoamFile
{
    version     2.0;
    format      ascii;
    class       volScalarField;
    location    "4.96";
    object      T;
}
// * * * * * * * * * * * * * * * * * * * * * * * * * * * * * * * * * * * * * //

dimensions      [0 0 0 1 0 0 0];

internalField   nonuniform List<scalar> 
52500
(
0.999995
1.00002
1.00004
1.00015
1.00028
1.0009
1.00168
1.00495
1.01043
1.02683
1.07275
1.16044
1.50383
2.27971
2.64491
2.73201
2.72605
2.72177
2.73662
2.74845
2.76191
2.77003
2.77677
2.78167
2.78481
0.999995
1.00002
1.00004
1.00015
1.00027
1.00089
1.00165
1.00487
1.01029
1.02642
1.07172
1.15791
1.49745
2.26723
2.64139
2.73202
2.72589
2.72136
2.73604
2.74775
2.76095
2.76876
2.77548
2.77936
2.78173
0.999995
1.00002
1.00004
1.00014
1.00027
1.00087
1.00161
1.00476
1.00998
1.02576
1.06944
1.15384
1.47955
2.23658
2.63136
2.73034
2.72404
2.71893
2.73373
2.74516
2.7586
2.76557
2.7723
2.77696
2.77822
0.999995
1.00002
1.00004
1.00014
1.00026
1.00083
1.00154
1.00458
1.00952
1.02475
1.066
1.14762
1.45247
2.18814
2.61532
2.72722
2.72053
2.71417
2.72872
2.74051
2.75418
2.7619
2.76716
2.77024
2.77358
0.999995
1.00001
1.00003
1.00013
1.00024
1.0008
1.00146
1.00446
1.0089
1.02395
1.06052
1.13934
1.41443
2.11835
2.59236
2.7222
2.71585
2.70655
2.72191
2.73082
2.74495
2.75262
2.76066
2.76441
2.76384
0.999995
1.00001
1.00003
1.00012
1.00023
1.00075
1.00136
1.00425
1.00816
1.02298
1.0539
1.12932
1.36973
2.02907
2.56107
2.7144
2.70784
2.69794
2.71423
2.72434
2.73478
2.74316
2.74761
2.75031
2.75418
0.999995
1.00001
1.00003
1.00011
1.00021
1.00068
1.00125
1.00389
1.00742
1.02118
1.04781
1.11871
1.32387
1.92843
2.51692
2.69901
2.6901
2.67981
2.69653
2.71023
2.72251
2.72805
2.73569
2.73804
2.73467
0.999995
1.00001
1.00003
1.0001
1.00019
1.00062
1.00113
1.00353
1.00672
1.01933
1.04292
1.10819
1.28902
1.83845
2.49106
2.68901
2.68073
2.66853
2.68283
2.69206
2.70561
2.70981
2.71106
2.71085
2.71104
0.999995
1.00001
1.00002
1.00009
1.00017
1.00055
1.00101
1.00317
1.006
1.01728
1.03874
1.09504
1.26349
1.72152
2.4584
2.67634
2.65928
2.66073
2.66913
2.67418
2.6846
2.68881
2.68994
2.68378
2.65912
0.999994
1.00001
1.00002
1.00007
1.00014
1.00045
1.00086
1.00243
1.00535
1.01327
1.03615
1.07949
1.24465
1.60839
2.37253
2.64615
2.65479
2.65287
2.65356
2.65992
2.65982
2.65786
2.6488
2.6286
2.58078
1
1.00003
1.00005
1.00016
1.00029
1.00091
1.00168
1.00496
1.01044
1.02685
1.07276
1.16048
1.50387
2.27984
2.64498
2.73208
2.72612
2.72184
2.73669
2.74852
2.76199
2.77011
2.77685
2.78175
2.78489
1
1.00002
1.00005
1.00016
1.00028
1.0009
1.00166
1.00489
1.0103
1.02643
1.07174
1.15796
1.49749
2.26736
2.64146
2.73209
2.72596
2.72143
2.73611
2.74783
2.76102
2.76883
2.77556
2.77944
2.78181
1
1.00002
1.00005
1.00015
1.00028
1.00087
1.00162
1.00477
1.00999
1.02578
1.06945
1.15388
1.47959
2.2367
2.63144
2.73041
2.72411
2.719
2.7338
2.74523
2.75867
2.76564
2.77238
2.77704
2.7783
1
1.00002
1.00004
1.00015
1.00026
1.00084
1.00155
1.00459
1.00953
1.02477
1.06602
1.14766
1.45251
2.18828
2.61539
2.72729
2.7206
2.71424
2.72879
2.74058
2.75426
2.76198
2.76724
2.77031
2.77366
1
1.00002
1.00004
1.00014
1.00025
1.00081
1.00147
1.00447
1.0089
1.02398
1.06052
1.13937
1.41443
2.11845
2.59243
2.72226
2.71592
2.70661
2.72198
2.73089
2.74502
2.75269
2.76073
2.76449
2.76392
1
1.00002
1.00004
1.00013
1.00024
1.00076
1.00137
1.00426
1.00817
1.02299
1.05391
1.12935
1.36975
2.02918
2.56114
2.71447
2.7079
2.69801
2.7143
2.72441
2.73486
2.74323
2.74768
2.75039
2.75425
1
1.00002
1.00004
1.00012
1.00022
1.00069
1.00126
1.0039
1.00743
1.02119
1.04782
1.11874
1.3239
1.92853
2.51699
2.69908
2.69017
2.67988
2.6966
2.71029
2.72257
2.72812
2.73576
2.73811
2.73474
1
1.00002
1.00003
1.00011
1.0002
1.00063
1.00114
1.00354
1.00673
1.01935
1.04293
1.10821
1.28904
1.83854
2.49108
2.68907
2.68079
2.6686
2.6829
2.69214
2.70567
2.70988
2.71113
2.71092
2.71111
1
1.00002
1.00003
1.0001
1.00018
1.00056
1.00102
1.00318
1.00601
1.01729
1.03875
1.09507
1.26349
1.72163
2.45845
2.6764
2.65933
2.66078
2.66919
2.67424
2.68467
2.68887
2.69001
2.68384
2.65919
1
1.00001
1.00002
1.00008
1.00015
1.00046
1.00087
1.00244
1.00536
1.01329
1.03616
1.07951
1.24466
1.60846
2.3726
2.64622
2.65484
2.65292
2.65362
2.65998
2.65988
2.65793
2.64887
2.62865
2.58083
1
1.00003
1.00005
1.00016
1.00029
1.00091
1.00168
1.00496
1.01044
1.02685
1.07276
1.16048
1.50387
2.27985
2.64498
2.73208
2.72612
2.72184
2.73669
2.74852
2.76199
2.77011
2.77685
2.78175
2.78489
1
1.00002
1.00005
1.00016
1.00028
1.0009
1.00166
1.00489
1.0103
1.02643
1.07174
1.15796
1.49749
2.26736
2.64146
2.73209
2.72596
2.72143
2.73611
2.74783
2.76102
2.76884
2.77556
2.77944
2.78181
1
1.00002
1.00005
1.00015
1.00028
1.00087
1.00162
1.00477
1.00999
1.02578
1.06945
1.15389
1.47959
2.23671
2.63144
2.73041
2.72411
2.719
2.7338
2.74523
2.75867
2.76564
2.77238
2.77704
2.7783
1
1.00002
1.00004
1.00015
1.00026
1.00084
1.00155
1.00459
1.00953
1.02477
1.06602
1.14766
1.45251
2.18828
2.6154
2.72729
2.7206
2.71424
2.72879
2.74058
2.75426
2.76198
2.76724
2.77031
2.77366
1
1.00002
1.00004
1.00014
1.00025
1.00081
1.00147
1.00447
1.0089
1.02398
1.06052
1.13937
1.41444
2.11846
2.59243
2.72226
2.71592
2.70661
2.72198
2.73089
2.74502
2.75269
2.76073
2.76449
2.76392
1
1.00002
1.00004
1.00013
1.00024
1.00076
1.00137
1.00426
1.00817
1.02299
1.05391
1.12935
1.36975
2.02919
2.56114
2.71447
2.7079
2.69801
2.7143
2.72441
2.73486
2.74323
2.74768
2.75039
2.75425
1
1.00002
1.00004
1.00012
1.00022
1.00069
1.00126
1.0039
1.00743
1.02119
1.04783
1.11874
1.3239
1.92854
2.51699
2.69908
2.69017
2.67988
2.6966
2.71029
2.72257
2.72812
2.73576
2.73811
2.73474
1
1.00002
1.00003
1.00011
1.0002
1.00063
1.00114
1.00354
1.00673
1.01935
1.04293
1.10821
1.28904
1.83855
2.49108
2.68907
2.6808
2.6686
2.6829
2.69214
2.70567
2.70988
2.71113
2.71092
2.71111
1
1.00002
1.00003
1.0001
1.00018
1.00056
1.00102
1.00318
1.00601
1.01729
1.03875
1.09507
1.26349
1.72163
2.45845
2.6764
2.65933
2.66078
2.66919
2.67424
2.68467
2.68887
2.69001
2.68384
2.65919
1
1.00001
1.00002
1.00008
1.00015
1.00046
1.00087
1.00244
1.00536
1.01329
1.03616
1.07952
1.24466
1.60846
2.3726
2.64622
2.65484
2.65292
2.65362
2.65999
2.65988
2.65793
2.64887
2.62865
2.58083
1
1.00003
1.00005
1.00016
1.00029
1.00091
1.00168
1.00496
1.01044
1.02685
1.07276
1.16048
1.50387
2.27985
2.64498
2.73208
2.72612
2.72184
2.73669
2.74852
2.76199
2.77011
2.77685
2.78175
2.78489
1
1.00002
1.00005
1.00016
1.00028
1.0009
1.00166
1.00489
1.0103
1.02643
1.07174
1.15796
1.49749
2.26736
2.64146
2.73209
2.72596
2.72143
2.73611
2.74783
2.76102
2.76884
2.77556
2.77944
2.78181
1
1.00002
1.00005
1.00015
1.00028
1.00087
1.00162
1.00477
1.00999
1.02578
1.06945
1.15389
1.47959
2.23671
2.63144
2.73041
2.72411
2.719
2.7338
2.74523
2.75867
2.76564
2.77238
2.77704
2.7783
1
1.00002
1.00004
1.00015
1.00026
1.00084
1.00155
1.00459
1.00953
1.02477
1.06602
1.14766
1.45251
2.18828
2.6154
2.72729
2.7206
2.71424
2.72879
2.74058
2.75426
2.76198
2.76724
2.77031
2.77366
1
1.00002
1.00004
1.00014
1.00025
1.00081
1.00147
1.00447
1.0089
1.02398
1.06052
1.13937
1.41444
2.11846
2.59243
2.72226
2.71592
2.70661
2.72198
2.73089
2.74502
2.75269
2.76073
2.76449
2.76392
1
1.00002
1.00004
1.00013
1.00024
1.00076
1.00137
1.00426
1.00817
1.02299
1.05391
1.12935
1.36975
2.02919
2.56114
2.71447
2.7079
2.69801
2.7143
2.72441
2.73486
2.74323
2.74768
2.75039
2.75425
1
1.00002
1.00004
1.00012
1.00022
1.00069
1.00126
1.0039
1.00743
1.02119
1.04783
1.11874
1.3239
1.92854
2.51699
2.69908
2.69017
2.67988
2.6966
2.71029
2.72257
2.72812
2.73576
2.73811
2.73474
1
1.00002
1.00003
1.00011
1.0002
1.00063
1.00114
1.00354
1.00673
1.01935
1.04293
1.10821
1.28904
1.83855
2.49108
2.68907
2.6808
2.6686
2.6829
2.69214
2.70567
2.70988
2.71113
2.71092
2.71111
1
1.00002
1.00003
1.0001
1.00018
1.00056
1.00102
1.00318
1.00601
1.01729
1.03875
1.09507
1.26349
1.72163
2.45845
2.6764
2.65933
2.66078
2.66919
2.67424
2.68467
2.68887
2.69001
2.68384
2.65919
1
1.00001
1.00002
1.00008
1.00015
1.00046
1.00087
1.00244
1.00536
1.01329
1.03616
1.07952
1.24466
1.60846
2.3726
2.64622
2.65484
2.65292
2.65362
2.65998
2.65988
2.65793
2.64887
2.62865
2.58083
1
1.00003
1.00005
1.00016
1.00029
1.00091
1.00168
1.00496
1.01044
1.02685
1.07276
1.16048
1.50387
2.27985
2.64498
2.73208
2.72612
2.72184
2.73669
2.74852
2.76199
2.77011
2.77685
2.78175
2.78489
1
1.00002
1.00005
1.00016
1.00028
1.0009
1.00166
1.00489
1.0103
1.02643
1.07174
1.15796
1.49749
2.26736
2.64146
2.73209
2.72596
2.72143
2.73612
2.74783
2.76102
2.76884
2.77556
2.77944
2.78181
1
1.00002
1.00005
1.00015
1.00028
1.00087
1.00162
1.00477
1.00999
1.02578
1.06945
1.15389
1.47959
2.23671
2.63144
2.73041
2.72411
2.719
2.7338
2.74523
2.75867
2.76564
2.77238
2.77704
2.7783
1
1.00002
1.00004
1.00015
1.00026
1.00084
1.00155
1.00459
1.00953
1.02477
1.06602
1.14766
1.45251
2.18828
2.6154
2.72729
2.7206
2.71424
2.72879
2.74058
2.75426
2.76198
2.76724
2.77031
2.77366
1
1.00002
1.00004
1.00014
1.00025
1.00081
1.00147
1.00447
1.0089
1.02398
1.06052
1.13937
1.41444
2.11846
2.59243
2.72226
2.71592
2.70661
2.72198
2.73089
2.74502
2.75269
2.76073
2.76449
2.76392
1
1.00002
1.00004
1.00013
1.00024
1.00076
1.00137
1.00426
1.00817
1.02299
1.05391
1.12935
1.36975
2.02919
2.56114
2.71447
2.7079
2.69801
2.7143
2.72441
2.73486
2.74323
2.74768
2.75039
2.75425
1
1.00002
1.00004
1.00012
1.00022
1.00069
1.00126
1.0039
1.00743
1.02119
1.04783
1.11874
1.3239
1.92854
2.51699
2.69908
2.69017
2.67988
2.69661
2.71029
2.72257
2.72812
2.73576
2.73811
2.73474
1
1.00002
1.00003
1.00011
1.0002
1.00063
1.00114
1.00354
1.00673
1.01935
1.04293
1.10821
1.28904
1.83855
2.49108
2.68907
2.6808
2.6686
2.6829
2.69214
2.70567
2.70988
2.71113
2.71092
2.71111
1
1.00002
1.00003
1.0001
1.00018
1.00056
1.00102
1.00318
1.00601
1.01729
1.03875
1.09507
1.26349
1.72164
2.45845
2.6764
2.65933
2.66078
2.66919
2.67424
2.68467
2.68887
2.69001
2.68384
2.65919
1
1.00001
1.00002
1.00008
1.00015
1.00046
1.00087
1.00244
1.00536
1.01329
1.03616
1.07952
1.24466
1.60846
2.3726
2.64622
2.65484
2.65292
2.65362
2.65999
2.65988
2.65793
2.64887
2.62865
2.58084
1
1.00003
1.00005
1.00016
1.00029
1.00091
1.00168
1.00496
1.01044
1.02685
1.07276
1.16048
1.50387
2.27985
2.64498
2.73208
2.72612
2.72184
2.73669
2.74852
2.76199
2.77011
2.77685
2.78175
2.78489
1
1.00002
1.00005
1.00016
1.00028
1.0009
1.00166
1.00489
1.0103
1.02643
1.07174
1.15796
1.49749
2.26736
2.64146
2.73209
2.72596
2.72143
2.73612
2.74783
2.76102
2.76884
2.77556
2.77944
2.78181
1
1.00002
1.00005
1.00015
1.00028
1.00087
1.00162
1.00477
1.00999
1.02578
1.06945
1.15389
1.47959
2.23671
2.63144
2.73041
2.72411
2.719
2.7338
2.74523
2.75867
2.76564
2.77238
2.77704
2.7783
1
1.00002
1.00004
1.00015
1.00026
1.00084
1.00155
1.00459
1.00953
1.02477
1.06602
1.14766
1.45251
2.18828
2.6154
2.72729
2.7206
2.71424
2.72879
2.74058
2.75426
2.76198
2.76724
2.77031
2.77366
1
1.00002
1.00004
1.00014
1.00025
1.00081
1.00147
1.00447
1.0089
1.02398
1.06052
1.13937
1.41444
2.11846
2.59243
2.72226
2.71592
2.70661
2.72198
2.73089
2.74502
2.75269
2.76073
2.76449
2.76392
1
1.00002
1.00004
1.00013
1.00024
1.00076
1.00137
1.00426
1.00817
1.02299
1.05391
1.12935
1.36975
2.02919
2.56114
2.71447
2.7079
2.69801
2.7143
2.72441
2.73486
2.74323
2.74768
2.75039
2.75425
1
1.00002
1.00004
1.00012
1.00022
1.00069
1.00126
1.0039
1.00743
1.02119
1.04783
1.11874
1.3239
1.92854
2.51699
2.69908
2.69017
2.67988
2.69661
2.71029
2.72257
2.72812
2.73576
2.73811
2.73474
1
1.00002
1.00003
1.00011
1.0002
1.00063
1.00114
1.00354
1.00673
1.01935
1.04293
1.10821
1.28904
1.83855
2.49108
2.68907
2.6808
2.6686
2.6829
2.69214
2.70567
2.70988
2.71113
2.71092
2.71111
1
1.00002
1.00003
1.0001
1.00018
1.00056
1.00102
1.00318
1.00601
1.01729
1.03875
1.09507
1.26349
1.72164
2.45845
2.6764
2.65933
2.66078
2.66919
2.67424
2.68467
2.68887
2.69001
2.68384
2.65919
1
1.00001
1.00002
1.00008
1.00015
1.00046
1.00087
1.00244
1.00536
1.01329
1.03616
1.07952
1.24466
1.60846
2.3726
2.64622
2.65484
2.65292
2.65362
2.65999
2.65988
2.65793
2.64887
2.62865
2.58084
1
1.00003
1.00005
1.00016
1.00029
1.00091
1.00168
1.00496
1.01044
1.02685
1.07276
1.16048
1.50387
2.27985
2.64498
2.73208
2.72612
2.72184
2.73669
2.74852
2.76199
2.77011
2.77685
2.78175
2.78489
1
1.00002
1.00005
1.00016
1.00028
1.0009
1.00166
1.00489
1.0103
1.02643
1.07174
1.15796
1.49749
2.26736
2.64146
2.73209
2.72596
2.72143
2.73611
2.74783
2.76102
2.76884
2.77556
2.77944
2.78181
1
1.00002
1.00005
1.00015
1.00028
1.00087
1.00162
1.00477
1.00999
1.02578
1.06945
1.15389
1.47959
2.23671
2.63144
2.73041
2.72411
2.719
2.7338
2.74523
2.75867
2.76564
2.77238
2.77704
2.7783
1
1.00002
1.00004
1.00015
1.00026
1.00084
1.00155
1.00459
1.00953
1.02477
1.06602
1.14766
1.45251
2.18828
2.6154
2.72729
2.7206
2.71424
2.72879
2.74058
2.75426
2.76198
2.76724
2.77031
2.77366
1
1.00002
1.00004
1.00014
1.00025
1.00081
1.00147
1.00447
1.0089
1.02398
1.06052
1.13937
1.41444
2.11846
2.59243
2.72226
2.71592
2.70661
2.72198
2.73089
2.74502
2.75269
2.76073
2.76449
2.76392
1
1.00002
1.00004
1.00013
1.00024
1.00076
1.00137
1.00426
1.00817
1.02299
1.05391
1.12935
1.36975
2.02919
2.56114
2.71447
2.7079
2.69801
2.7143
2.72441
2.73486
2.74323
2.74768
2.75039
2.75425
1
1.00002
1.00004
1.00012
1.00022
1.00069
1.00126
1.0039
1.00743
1.02119
1.04783
1.11874
1.3239
1.92854
2.51699
2.69908
2.69017
2.67988
2.69661
2.71029
2.72257
2.72812
2.73576
2.73811
2.73474
1
1.00002
1.00003
1.00011
1.0002
1.00063
1.00114
1.00354
1.00673
1.01935
1.04293
1.10821
1.28904
1.83855
2.49108
2.68907
2.6808
2.6686
2.6829
2.69214
2.70567
2.70988
2.71113
2.71092
2.71111
1
1.00002
1.00003
1.0001
1.00018
1.00056
1.00102
1.00318
1.00601
1.01729
1.03875
1.09507
1.26349
1.72163
2.45845
2.6764
2.65933
2.66078
2.66919
2.67424
2.68467
2.68887
2.69001
2.68384
2.65919
1
1.00001
1.00002
1.00008
1.00015
1.00046
1.00087
1.00244
1.00536
1.01329
1.03616
1.07952
1.24466
1.60846
2.3726
2.64622
2.65484
2.65292
2.65362
2.65999
2.65988
2.65793
2.64887
2.62865
2.58083
1
1.00003
1.00005
1.00016
1.00029
1.00091
1.00168
1.00496
1.01044
1.02685
1.07276
1.16048
1.50387
2.27985
2.64498
2.73208
2.72612
2.72184
2.73669
2.74852
2.76199
2.77011
2.77685
2.78175
2.78489
1
1.00002
1.00005
1.00016
1.00028
1.0009
1.00166
1.00489
1.0103
1.02643
1.07174
1.15796
1.49749
2.26736
2.64146
2.73209
2.72596
2.72143
2.73611
2.74783
2.76102
2.76884
2.77556
2.77944
2.78181
1
1.00002
1.00005
1.00015
1.00028
1.00087
1.00162
1.00477
1.00999
1.02578
1.06945
1.15389
1.47959
2.23671
2.63144
2.73041
2.72411
2.719
2.7338
2.74523
2.75867
2.76564
2.77238
2.77704
2.7783
1
1.00002
1.00004
1.00015
1.00026
1.00084
1.00155
1.00459
1.00953
1.02477
1.06602
1.14766
1.45251
2.18828
2.6154
2.72729
2.7206
2.71424
2.72879
2.74058
2.75426
2.76198
2.76724
2.77031
2.77366
1
1.00002
1.00004
1.00014
1.00025
1.00081
1.00147
1.00447
1.0089
1.02398
1.06052
1.13937
1.41444
2.11846
2.59243
2.72226
2.71592
2.70661
2.72198
2.73089
2.74502
2.75269
2.76073
2.76449
2.76392
1
1.00002
1.00004
1.00013
1.00024
1.00076
1.00137
1.00426
1.00817
1.02299
1.05391
1.12935
1.36975
2.02919
2.56114
2.71447
2.7079
2.69801
2.7143
2.72441
2.73486
2.74323
2.74768
2.75039
2.75425
1
1.00002
1.00004
1.00012
1.00022
1.00069
1.00126
1.0039
1.00743
1.02119
1.04783
1.11874
1.3239
1.92854
2.51699
2.69908
2.69017
2.67988
2.6966
2.71029
2.72257
2.72812
2.73576
2.73811
2.73474
1
1.00002
1.00003
1.00011
1.0002
1.00063
1.00114
1.00354
1.00673
1.01935
1.04293
1.10821
1.28904
1.83855
2.49108
2.68907
2.6808
2.6686
2.6829
2.69214
2.70567
2.70988
2.71113
2.71092
2.71111
1
1.00002
1.00003
1.0001
1.00018
1.00056
1.00102
1.00318
1.00601
1.01729
1.03875
1.09507
1.26349
1.72163
2.45845
2.6764
2.65933
2.66078
2.66919
2.67424
2.68467
2.68887
2.69001
2.68384
2.65919
1
1.00001
1.00002
1.00008
1.00015
1.00046
1.00087
1.00244
1.00536
1.01329
1.03616
1.07952
1.24466
1.60846
2.3726
2.64622
2.65484
2.65292
2.65362
2.65999
2.65988
2.65793
2.64887
2.62865
2.58083
1
1.00003
1.00005
1.00016
1.00029
1.00091
1.00168
1.00496
1.01044
1.02685
1.07276
1.16048
1.50387
2.27984
2.64498
2.73208
2.72612
2.72184
2.73669
2.74852
2.76199
2.77011
2.77685
2.78175
2.78489
1
1.00002
1.00005
1.00016
1.00028
1.0009
1.00166
1.00489
1.0103
1.02643
1.07174
1.15796
1.49749
2.26736
2.64146
2.73209
2.72596
2.72143
2.73611
2.74783
2.76102
2.76883
2.77556
2.77944
2.78181
1
1.00002
1.00005
1.00015
1.00028
1.00087
1.00162
1.00477
1.00999
1.02578
1.06945
1.15388
1.47959
2.2367
2.63144
2.73041
2.72411
2.719
2.7338
2.74523
2.75867
2.76564
2.77238
2.77704
2.7783
1
1.00002
1.00004
1.00015
1.00026
1.00084
1.00155
1.00459
1.00953
1.02477
1.06602
1.14766
1.45251
2.18828
2.6154
2.72729
2.7206
2.71424
2.72879
2.74058
2.75426
2.76198
2.76724
2.77031
2.77366
1
1.00002
1.00004
1.00014
1.00025
1.00081
1.00147
1.00447
1.0089
1.02398
1.06052
1.13937
1.41443
2.11845
2.59243
2.72226
2.71592
2.70661
2.72198
2.73089
2.74502
2.75269
2.76073
2.76449
2.76392
1
1.00002
1.00004
1.00013
1.00024
1.00076
1.00137
1.00426
1.00817
1.02299
1.05391
1.12935
1.36975
2.02918
2.56114
2.71447
2.7079
2.69801
2.7143
2.72441
2.73486
2.74323
2.74768
2.75039
2.75425
1
1.00002
1.00004
1.00012
1.00022
1.00069
1.00126
1.0039
1.00743
1.02119
1.04782
1.11874
1.3239
1.92853
2.51699
2.69908
2.69017
2.67988
2.6966
2.71029
2.72257
2.72812
2.73576
2.73811
2.73474
1
1.00002
1.00003
1.00011
1.0002
1.00063
1.00114
1.00354
1.00673
1.01935
1.04293
1.10821
1.28904
1.83854
2.49108
2.68907
2.68079
2.6686
2.6829
2.69214
2.70567
2.70988
2.71113
2.71092
2.71111
1
1.00002
1.00003
1.0001
1.00018
1.00056
1.00102
1.00318
1.00601
1.01729
1.03875
1.09507
1.26349
1.72163
2.45845
2.6764
2.65933
2.66078
2.66919
2.67424
2.68467
2.68887
2.69001
2.68384
2.65919
1
1.00001
1.00002
1.00008
1.00015
1.00046
1.00087
1.00244
1.00536
1.01329
1.03616
1.07951
1.24466
1.60846
2.3726
2.64622
2.65484
2.65292
2.65362
2.65998
2.65988
2.65793
2.64887
2.62865
2.58083
0.999995
1.00002
1.00004
1.00015
1.00028
1.0009
1.00168
1.00495
1.01043
1.02683
1.07275
1.16044
1.50383
2.27971
2.64491
2.73201
2.72605
2.72177
2.73662
2.74845
2.76191
2.77003
2.77677
2.78167
2.78481
0.999995
1.00002
1.00004
1.00015
1.00027
1.00089
1.00165
1.00487
1.01029
1.02642
1.07172
1.15791
1.49745
2.26723
2.64139
2.73202
2.72589
2.72136
2.73604
2.74775
2.76095
2.76876
2.77548
2.77936
2.78173
0.999995
1.00002
1.00004
1.00014
1.00027
1.00087
1.00161
1.00476
1.00998
1.02576
1.06944
1.15384
1.47955
2.23658
2.63136
2.73034
2.72404
2.71893
2.73373
2.74516
2.7586
2.76557
2.7723
2.77696
2.77822
0.999995
1.00002
1.00004
1.00014
1.00026
1.00083
1.00154
1.00458
1.00952
1.02475
1.066
1.14762
1.45247
2.18814
2.61532
2.72722
2.72053
2.71417
2.72872
2.74051
2.75418
2.7619
2.76716
2.77024
2.77358
0.999995
1.00001
1.00003
1.00013
1.00024
1.0008
1.00146
1.00446
1.0089
1.02395
1.06052
1.13934
1.41443
2.11835
2.59236
2.7222
2.71585
2.70655
2.72191
2.73082
2.74495
2.75262
2.76066
2.76441
2.76384
0.999995
1.00001
1.00003
1.00012
1.00023
1.00075
1.00136
1.00425
1.00816
1.02298
1.0539
1.12932
1.36973
2.02907
2.56107
2.7144
2.70784
2.69794
2.71423
2.72434
2.73478
2.74316
2.74761
2.75031
2.75418
0.999995
1.00001
1.00003
1.00011
1.00021
1.00068
1.00125
1.00389
1.00742
1.02118
1.04781
1.11871
1.32387
1.92843
2.51692
2.69901
2.6901
2.67981
2.69653
2.71023
2.72251
2.72805
2.73569
2.73804
2.73467
0.999995
1.00001
1.00003
1.0001
1.00019
1.00062
1.00113
1.00353
1.00672
1.01933
1.04292
1.10819
1.28902
1.83845
2.49106
2.68901
2.68073
2.66853
2.68283
2.69206
2.70561
2.70981
2.71106
2.71085
2.71104
0.999995
1.00001
1.00002
1.00009
1.00017
1.00055
1.00101
1.00317
1.006
1.01728
1.03874
1.09504
1.26349
1.72152
2.4584
2.67634
2.65928
2.66073
2.66912
2.67418
2.6846
2.68881
2.68994
2.68378
2.65912
0.999994
1.00001
1.00002
1.00007
1.00014
1.00045
1.00086
1.00243
1.00535
1.01327
1.03615
1.07949
1.24465
1.60839
2.37253
2.64615
2.65479
2.65286
2.65356
2.65992
2.65982
2.65786
2.6488
2.6286
2.58078
0.999996
1
1.00002
1.00005
1.00017
1.00032
1.00099
1.0019
1.00539
1.01188
1.0298
1.08239
1.18119
1.55516
2.34665
2.58701
2.64054
2.6356
2.63495
2.6399
2.63937
2.63192
2.6108
2.55912
2.37455
0.999996
1
1.00002
1.00004
1.00015
1.00027
1.00087
1.00162
1.00476
1.01001
1.02575
1.06944
1.15354
1.47681
2.22088
2.54304
2.63464
2.62636
2.61405
2.61184
2.60713
2.59212
2.55876
2.49769
2.30775
0.999995
0.999999
1.00001
1.00003
1.00013
1.00023
1.00076
1.00138
1.00431
1.00831
1.02303
1.05539
1.13053
1.37777
2.02969
2.46718
2.6202
2.61303
2.60192
2.59195
2.58349
2.56485
2.52119
2.4618
2.30327
0.999995
0.999998
1.00001
1.00003
1.0001
1.00019
1.00063
1.00114
1.00356
1.00675
1.01948
1.04251
1.10892
1.28114
1.82558
2.36553
2.58333
2.57877
2.5749
2.562
2.54716
2.52394
2.48357
2.43707
2.31707
0.999995
0.999997
1.00001
1.00002
1.00008
1.00015
1.0005
1.00092
1.00284
1.00549
1.01542
1.03516
1.08549
1.23466
1.64185
2.29448
2.54926
2.55715
2.55577
2.54781
2.52859
2.50252
2.44435
2.40456
2.31913
0.999994
0.999997
1
1.00002
1.00005
1.00016
1.0003
1.00092
1.00178
1.00496
1.01115
1.02729
1.07648
1.16444
1.51816
2.23462
2.46859
2.52345
2.5163
2.51359
2.50375
2.48504
2.43691
2.38184
2.31453
0.999994
0.999996
0.999999
1.00002
1.00004
1.00013
1.00024
1.00078
1.00143
1.00436
1.00863
1.02323
1.05807
1.13337
1.39162
2.03846
2.40647
2.51209
2.5033
2.49306
2.47005
2.45117
2.41874
2.37146
2.3096
0.999993
0.999995
0.999998
1.00001
1.00003
1.0001
1.00019
1.0006
1.00111
1.00341
1.00655
1.01863
1.04121
1.105
1.26935
1.79987
2.26217
2.47328
2.47614
2.47091
2.45608
2.42906
2.39552
2.35175
2.2976
0.999993
0.999994
0.999997
1
1.00002
1.00005
1.00018
1.00034
1.00106
1.002
1.00577
1.01225
1.03133
1.08351
1.18689
1.54041
2.21927
2.41949
2.4427
2.43468
2.42594
2.4078
2.38244
2.34392
2.294
0.999992
0.999993
0.999996
0.999999
1.00002
1.00004
1.00013
1.00025
1.00079
1.0015
1.00432
1.00919
1.02332
1.06244
1.13832
1.41576
2.06324
2.35403
2.42376
2.41666
2.40005
2.37434
2.35151
2.3249
2.28516
0.999992
0.999993
0.999994
0.999999
1
1.00003
1.00007
1.00023
1.00044
1.00128
1.00267
1.00686
1.01723
1.03964
1.11421
1.25466
1.7263
2.21001
2.39398
2.39587
2.3866
2.36488
2.33517
2.30563
2.27494
0.999992
0.999992
0.999993
0.999997
1
1.00002
1.00005
1.00017
1.00032
1.00101
1.00189
1.00555
1.01147
1.02972
1.07788
1.17377
1.50024
2.12387
2.33319
2.36306
2.3571
2.34232
2.31731
2.28509
2.25382
0.999991
0.999992
0.999993
0.999994
1
1.00001
1.00004
1.00009
1.00028
1.00054
1.00153
1.00332
1.00824
1.02169
1.04869
1.14308
1.31964
1.8747
2.23952
2.34107
2.3392
2.32886
2.30816
2.27834
2.24316
0.999991
0.999991
0.999992
0.999993
0.999998
1
1.00003
1.00006
1.00021
1.00039
1.00122
1.00225
1.00676
1.01345
1.03587
1.08566
1.21419
1.52667
2.11613
2.28654
2.30202
2.29904
2.28575
2.26278
2.23345
0.999991
0.999991
0.999991
0.999993
0.999994
1
1.00001
1.00005
1.00011
1.00034
1.00064
1.00193
1.00376
1.01027
1.02347
1.05635
1.15406
1.37031
1.89517
2.21964
2.28333
2.28139
2.26937
2.24859
2.22226
0.999991
0.999991
0.999991
0.999992
0.999993
0.999998
1
1.00003
1.00007
1.00023
1.00043
1.00134
1.0025
1.00723
1.01507
1.03837
1.09939
1.22894
1.5963
2.05899
2.24107
2.25182
2.24665
2.23153
2.2067
0.999991
0.999991
0.999991
0.999991
0.999993
0.999995
1
1.00001
1.00006
1.00012
1.00037
1.0007
1.0021
1.00406
1.01133
1.02482
1.06144
1.15542
1.40954
1.8914
2.17077
2.22701
2.22557
2.21362
2.19312
0.999991
0.999991
0.999991
0.999991
0.999992
0.999993
0.999999
1.00001
1.00004
1.00007
1.00025
1.00045
1.0014
1.00262
1.00756
1.01571
1.03999
1.10235
1.2385
1.60867
2.02112
2.18334
2.20018
2.19555
2.18189
0.999991
0.999991
0.999991
0.999991
0.999991
0.999993
0.999995
1
1.00001
1.00006
1.00012
1.00038
1.00072
1.00212
1.00415
1.01148
1.0247
1.06413
1.14929
1.43421
1.83981
2.09791
2.16152
2.16787
2.16273
0.999991
0.999991
0.999991
0.999991
0.999991
0.999992
0.999994
0.999997
1.00001
1.00003
1.0001
1.00019
1.00058
1.00108
1.00319
1.00625
1.01698
1.03825
1.09239
1.23696
1.63539
1.97405
2.11812
2.13677
2.13507
0.999991
0.999991
0.999991
0.999991
0.999991
0.999991
0.999993
0.999995
1
1.00001
1.00006
1.00011
1.00037
1.00068
1.00206
1.00389
1.0111
1.02293
1.05979
1.13905
1.38401
1.78774
2.04586
2.10631
2.11355
0.999991
0.999991
0.999991
0.999991
0.999991
0.999991
0.999992
0.999994
0.999997
1.00001
1.00002
1.00009
1.00017
1.00053
1.00099
1.00289
1.00566
1.01538
1.03388
1.08378
1.20469
1.56126
1.9016
2.06723
2.08127
0.999991
0.999991
0.999991
0.999991
0.999991
0.999991
0.999991
0.999993
0.999994
1
1.00001
1.00005
1.0001
1.00033
1.00061
1.00184
1.00344
1.00976
1.02062
1.05017
1.12694
1.30527
1.72601
1.99586
2.06156
0.999991
0.999991
0.999991
0.999991
0.999991
0.999991
0.999991
0.999992
0.999993
0.999997
1
1.00003
1.00006
1.00019
1.00036
1.0011
1.00203
1.0059
1.01167
1.0305
1.0704
1.16904
1.41704
1.83835
2.00957
0.999991
0.999991
0.999991
0.999991
0.999991
0.999991
0.999991
0.999991
0.999992
0.999995
0.999998
1.00001
1.00003
1.00011
1.00021
1.00066
1.00122
1.00363
1.00697
1.01888
1.04315
1.09984
1.27019
1.67708
1.91028
0.999991
0.999991
0.999991
0.999991
0.999991
0.999991
0.999991
0.999991
0.999992
0.999993
0.999996
1
1.00002
1.00005
1.00015
1.0003
1.00089
1.00168
1.00477
1.00979
1.02489
1.06143
1.13801
1.36733
1.78937
0.999991
0.999991
0.999991
0.999991
0.999991
0.999991
0.999991
0.999991
0.999991
0.999992
0.999993
0.999998
1
1.00003
1.00007
1.00021
1.00041
1.0012
1.00231
1.00634
1.01355
1.03322
1.08505
1.18846
1.48948
0.999991
0.999991
0.999991
0.999991
0.999991
0.999991
0.999991
0.999991
0.999991
0.999991
0.999993
0.999994
1
1.00001
1.00005
1.0001
1.0003
1.00057
1.00166
1.0032
1.00877
1.01868
1.04648
1.11015
1.28442
0.999991
0.999991
0.999991
0.999991
0.999991
0.999991
0.999991
0.999991
0.999991
0.999991
0.999992
0.999993
0.999997
1
1.00002
1.00005
1.00017
1.00032
1.00096
1.00178
1.00517
1.01008
1.02679
1.05969
1.14624
0.999991
0.999991
0.999991
0.999991
0.999991
0.999991
0.999991
0.999991
0.999991
0.999991
0.999991
0.999992
0.999993
0.999998
1.00001
1.00003
1.00007
1.00022
1.00042
1.00123
1.00235
1.00656
1.01348
1.03394
1.08024
0.999991
0.999991
0.999991
0.999991
0.999991
0.999991
0.999991
0.999991
0.999991
0.999991
0.999991
0.999991
0.999993
0.999994
1
1.00001
1.00005
1.0001
1.0003
1.00056
1.00162
1.00317
1.0086
1.01796
1.04616
0.999991
0.999991
0.999991
0.999991
0.999991
0.999991
0.999991
0.999991
0.999991
0.999991
0.999991
0.999991
0.999992
0.999993
0.999995
1
1.00002
1.00007
1.00013
1.0004
1.00075
1.00216
1.00421
1.01138
1.02386
0.999991
0.999991
0.999991
0.999991
0.999991
0.999991
0.999991
0.999991
0.999991
0.999991
0.999991
0.999991
0.999991
0.999992
0.999994
0.999999
1.00001
1.00004
1.00007
1.00024
1.00044
1.00131
1.00246
1.00692
1.01375
0.999991
0.999991
0.999991
0.999991
0.999991
0.999991
0.999991
0.999991
0.999991
0.999991
0.999991
0.999991
0.999991
0.999991
0.999993
0.999995
1
1.00001
1.00006
1.00012
1.00038
1.00072
1.00213
1.00412
1.01135
0.999991
0.999991
0.999991
0.999991
0.999991
0.999991
0.999991
0.999991
0.999991
0.999991
0.999991
0.999991
0.999991
0.999991
0.999992
0.999995
0.999999
1.00002
1.00004
1.00013
1.00025
1.00076
1.00147
1.00418
1.00892
0.999991
0.999991
0.999991
0.999991
0.999991
0.999991
0.999991
0.999991
0.999991
0.999991
0.999991
0.999991
0.999991
0.999991
0.999992
0.999994
0.999999
1.00001
1.00004
1.00008
1.00026
1.00054
1.00143
1.00343
1.00803
0.999991
0.999991
0.999991
0.999991
0.999991
0.999991
0.999991
0.999991
0.999991
0.999991
0.999991
0.999991
0.999991
0.999991
0.999992
0.999994
0.999998
1.00001
1.00003
1.00011
1.00022
1.00069
1.00133
1.0038
1.00838
0.999991
0.999991
0.999991
0.999991
0.999991
0.999991
0.999991
0.999991
0.999991
0.999991
0.999991
0.999991
0.999991
0.999991
0.999992
0.999994
0.999997
1.00001
1.00003
1.00011
1.00021
1.00067
1.0013
1.0037
1.00828
0.999991
0.999991
0.999991
0.999991
0.999991
0.999991
0.999991
0.999991
0.999991
0.999991
0.999991
0.999991
0.999991
0.999991
0.999992
0.999993
0.999999
1.00001
1.00004
1.00008
1.00026
1.0005
1.00142
1.00322
1.00792
0.999991
0.999991
0.999991
0.999991
0.999991
0.999991
0.999991
0.999991
0.999991
0.999991
0.999991
0.999991
0.999991
0.999991
0.999992
0.999993
0.999999
1.00001
1.00004
1.00008
1.00028
1.00051
1.00161
1.00314
1.00862
1
1.00001
1.00003
1.00006
1.00018
1.00032
1.001
1.00191
1.00541
1.01189
1.02982
1.08241
1.18123
1.55519
2.34675
2.58709
2.64059
2.63565
2.63501
2.63995
2.63943
2.63198
2.61086
2.55917
2.37459
1
1.00001
1.00003
1.00005
1.00015
1.00028
1.00088
1.00163
1.00477
1.01002
1.02577
1.06945
1.15358
1.47684
2.22098
2.54312
2.63469
2.62642
2.6141
2.61189
2.60719
2.59218
2.55882
2.49774
2.3078
1
1.00001
1.00002
1.00004
1.00013
1.00024
1.00077
1.00139
1.00432
1.00832
1.02305
1.05539
1.13056
1.37778
2.02977
2.46725
2.62026
2.61309
2.60197
2.592
2.58354
2.5649
2.52124
2.46184
2.30331
1
1.00001
1.00002
1.00003
1.00011
1.0002
1.00064
1.00115
1.00357
1.00676
1.01949
1.04253
1.10895
1.28116
1.82563
2.3656
2.58339
2.57883
2.57496
2.56204
2.5472
2.52399
2.48362
2.43712
2.31711
1
1
1.00002
1.00003
1.00009
1.00016
1.00051
1.00093
1.00285
1.0055
1.01543
1.03517
1.08552
1.23467
1.64194
2.29454
2.54933
2.5572
2.55583
2.54786
2.52863
2.50256
2.44439
2.40461
2.31917
1
1
1.00001
1.00003
1.00005
1.00017
1.00031
1.00093
1.00179
1.00498
1.01116
1.0273
1.07649
1.16448
1.51818
2.23471
2.46865
2.5235
2.51635
2.51364
2.5038
2.48508
2.43695
2.38189
2.31457
1
1
1.00001
1.00002
1.00004
1.00014
1.00025
1.00079
1.00144
1.00437
1.00864
1.02325
1.05807
1.13341
1.39162
2.03853
2.40654
2.51214
2.50335
2.49311
2.4701
2.45122
2.41878
2.37149
2.30963
1
1
1.00001
1.00002
1.00003
1.00011
1.00019
1.00061
1.00112
1.00342
1.00656
1.01864
1.04122
1.10503
1.26937
1.79996
2.26223
2.47333
2.47619
2.47096
2.45613
2.42911
2.39557
2.3518
2.29763
1
1
1.00001
1.00001
1.00003
1.00006
1.00019
1.00035
1.00107
1.00201
1.00578
1.01226
1.03134
1.08352
1.18693
1.54045
2.21934
2.41954
2.44275