/*--------------------------------*- C++ -*----------------------------------*\
| =========                 |                                                 |
| \\      /  F ield         | OpenFOAM: The Open Source CFD Toolbox           |
|  \\    /   O peration     | Version:  4.1                                   |
|   \\  /    A nd           | Web:      www.OpenFOAM.org                      |
|    \\/     M anipulation  |                                                 |
\*---------------------------------------------------------------------------*/
FoamFile
{
    version     2.0;
    format      ascii;
    class       volVectorField;
    location    "8";
    object      U;
}
// * * * * * * * * * * * * * * * * * * * * * * * * * * * * * * * * * * * * * //

dimensions      [0 1 -1 0 0 0 0];

internalField   nonuniform List<vector> 
500
(
(3.00001 -6.15275e-08 4.38078e-17)
(3 -5.26364e-08 8.52792e-20)
(3 -1.9766e-08 9.95168e-18)
(3 -1.18914e-08 1.33547e-24)
(3 -4.48968e-09 1.23492e-23)
(3.00001 -2.08231e-07 4.35811e-17)
(3 -1.80095e-07 1.72344e-19)
(3 -6.9215e-08 1.00384e-17)
(3 -3.87752e-08 1.51734e-17)
(3 -1.34422e-08 1.23587e-23)
(3.00002 -4.40189e-07 8.67024e-17)
(3.00001 -3.8474e-07 2.633e-19)
(3 -1.50152e-07 1.03732e-17)
(3 -7.94019e-08 2.9786e-17)
(3 -2.61075e-08 1.31836e-23)
(3.00002 -7.59375e-07 8.63164e-17)
(3.00001 -6.70462e-07 1.5442e-17)
(3.00001 -2.64556e-07 3.02677e-17)
(3.00001 -1.32847e-07 2.88397e-17)
(3.00001 -4.21148e-08 2.29056e-23)
(3.00003 -1.16822e-06 4.31267e-17)
(3.00001 -1.04074e-06 3.02205e-17)
(3.00001 -4.14313e-07 1.07637e-17)
(3.00001 -1.98893e-07 2.7905e-17)
(3.00001 -6.134e-08 2.45167e-23)
(3.00003 -1.66941e-06 4.30542e-17)
(3.00001 -1.49891e-06 3.02222e-17)
(3.00001 -6.01162e-07 3.0396e-17)
(3.00001 -2.77549e-07 2.65619e-17)
(3.00001 -8.37877e-08 -1.27224e-17)
(3.00004 -2.26576e-06 4.29805e-17)
(3.00002 -2.04826e-06 3.022e-17)
(3.00001 -8.26773e-07 3.00305e-17)
(3.00001 -3.68938e-07 1.05181e-17)
(3.00001 -1.09543e-07 -1.27224e-17)
(3.00004 -2.96025e-06 4.29051e-17)
(3.00002 -2.69197e-06 3.02142e-17)
(3.00001 -1.09272e-06 2.96494e-17)
(3.00001 -4.7329e-07 9.71883e-18)
(3.00001 -1.38731e-07 -1.27223e-17)
(3.00004 -3.75593e-06 9.35408e-19)
(3.00002 -3.43316e-06 3.03931e-17)
(3.00001 -1.40051e-06 4.79697e-17)
(3.00001 -5.90863e-07 -5.5967e-18)
(3.00001 -1.71511e-07 -1.27223e-17)
(3.00005 -4.65587e-06 4.27538e-17)
(3.00002 -4.27485e-06 3.05629e-17)
(3.00002 -1.75159e-06 4.69105e-17)
(3.00001 -7.21962e-07 -6.296e-18)
(3.00001 -2.08057e-07 -2.51519e-17)
(3.00005 -5.66326e-06 1.2969e-18)
(3.00003 -5.21998e-06 3.05261e-17)
(3.00002 -2.14729e-06 2.70772e-17)
(3.00002 -8.66882e-07 -7.43397e-18)
(3.00002 -2.48557e-07 -3.75057e-17)
(3.00006 -6.7812e-06 1.48232e-18)
(3.00003 -6.27141e-06 3.02849e-17)
(3.00002 -2.5889e-06 8.01595e-18)
(3.00002 -1.02591e-06 5.68131e-18)
(3.00002 -2.93206e-07 -3.75055e-17)
(3.00007 -8.01288e-06 8.33705e-17)
(3.00003 -7.43189e-06 3.00372e-17)
(3.00002 -3.07759e-06 7.6415e-18)
(3.00002 -1.19933e-06 -1.00862e-17)
(3.00002 -3.42201e-07 -3.75054e-17)
(3.00007 -9.36136e-06 8.31988e-17)
(3.00003 -8.70403e-06 5.7608e-17)
(3.00002 -3.61444e-06 -1.14141e-17)
(3.00002 -1.38736e-06 -2.47038e-17)
(3.00002 -3.95746e-07 -2.53853e-17)
(3.00008 -1.08298e-05 1.63448e-16)
(3.00004 -1.00903e-05 2.89785e-17)
(3.00003 -4.20041e-06 -1.16988e-17)
(3.00002 -1.59022e-06 -2.47246e-17)
(3.00002 -4.54037e-07 -2.53852e-17)
(3.00008 -1.2421e-05 1.62517e-16)
(3.00004 -1.15931e-05 2.85002e-17)
(3.00003 -4.83638e-06 -1.22858e-17)
(3.00002 -1.80805e-06 -3.85628e-17)
(3.00002 -5.17277e-07 -2.53851e-17)
(3.00009 -1.41381e-05 1.61569e-16)
(3.00004 -1.32146e-05 2.77989e-17)
(3.00003 -5.52305e-06 -3.08387e-17)
(3.00003 -2.041e-06 -3.80105e-17)
(3.00003 -5.85654e-07 -2.5385e-17)
(3.00009 -1.59837e-05 1.60606e-16)
(3.00005 -1.49567e-05 2.70904e-17)
(3.00003 -6.26103e-06 -3.09857e-17)
(3.00003 -2.28909e-06 -3.74686e-17)
(3.00003 -6.59364e-07 -2.53849e-17)
(3.0001 -1.79606e-05 1.59625e-16)
(3.00005 -1.68212e-05 2.65927e-17)
(3.00003 -7.05076e-06 -1.34091e-17)
(3.00003 -2.55238e-06 -3.69396e-17)
(3.00003 -7.38587e-07 -2.53848e-17)
(3.0001 -2.00713e-05 1.58825e-16)
(3.00005 -1.88096e-05 5.27071e-17)
(3.00004 -7.89253e-06 -3.18315e-17)
(3.00003 -2.8308e-06 -4.93117e-17)
(3.00003 -8.23504e-07 -1.37614e-17)
(3.00011 -2.23181e-05 2.34996e-16)
(3.00006 -2.09232e-05 2.51995e-17)
(3.00004 -8.78648e-06 -1.51008e-17)
(3.00004 -3.12427e-06 -6.10115e-17)
(3.00003 -9.14285e-07 -1.37613e-17)
(3.00011 -2.47031e-05 3.10161e-16)
(3.00006 -2.31629e-05 5.13133e-17)
(3.00004 -9.73253e-06 7.90204e-19)
(3.00004 -3.43263e-06 -7.20471e-17)
(3.00004 -1.01109e-06 -1.37613e-17)
(3.00012 -2.72283e-05 3.081e-16)
(3.00006 -2.55294e-05 5.06184e-17)
(3.00004 -1.07305e-05 -9.72843e-19)
(3.00004 -3.75568e-06 -6.93731e-17)
(3.00004 -1.11408e-06 -1.37612e-17)
(3.00012 -2.98953e-05 3.8137e-16)
(3.00007 -2.8023e-05 4.9666e-17)
(3.00005 -1.17799e-05 -1.96936e-17)
(3.00004 -4.09315e-06 -6.78261e-17)
(3.00004 -1.22338e-06 -3.63037e-17)
(3.00013 -3.27056e-05 3.03815e-16)
(3.00007 -3.06438e-05 4.87016e-17)
(3.00005 -1.28802e-05 -2.02132e-17)
(3.00004 -4.44471e-06 -3.9615e-17)
(3.00004 -1.33915e-06 -1.39421e-17)
(3.00013 -3.56602e-05 3.75495e-16)
(3.00007 -3.33912e-05 2.21604e-17)
(3.00005 -1.40305e-05 -2.00761e-17)
(3.00005 -4.80998e-06 -1.50767e-17)
(3.00005 -1.46148e-06 -5.77009e-17)
(3.00014 -3.87598e-05 3.72129e-16)
(3.00008 -3.62645e-05 -2.80187e-18)
(3.00006 -1.52299e-05 -2.00263e-17)
(3.00005 -5.1885e-06 -1.8289e-17)
(3.00005 -1.5905e-06 -7.97832e-17)
(3.00014 -4.2005e-05 3.68718e-16)
(3.00008 -3.92624e-05 -3.56284e-18)
(3.00006 -1.64769e-05 -2.00615e-17)
(3.00005 -5.57977e-06 -2.14122e-17)
(3.00005 -1.72629e-06 -8.00654e-17)
(3.00015 -4.53958e-05 3.65308e-16)
(3.00008 -4.23833e-05 -4.15909e-18)
(3.00006 -1.77702e-05 -2.0904e-17)
(3.00006 -5.98322e-06 -5.02353e-17)
(3.00005 -1.86893e-06 -1.01839e-16)
(3.00015 -4.89317e-05 3.61934e-16)
(3.00009 -4.5625e-05 -4.03505e-18)
(3.00006 -1.9108e-05 1.04512e-17)
(3.00006 -6.39821e-06 -5.18181e-17)
(3.00006 -2.01849e-06 -8.04638e-17)
(3.00016 -5.26123e-05 2.87678e-16)
(3.00009 -4.89848e-05 -3.85712e-18)
(3.00007 -2.04884e-05 8.59741e-18)
(3.00006 -6.82407e-06 -5.33442e-17)
(3.00006 -2.17501e-06 -8.04734e-17)
(3.00016 -5.6436e-05 2.85031e-16)
(3.00009 -5.24598e-05 -4.18917e-18)
(3.00007 -2.19092e-05 -2.48688e-17)
(3.00007 -7.26001e-06 -5.3679e-17)
(3.00006 -2.33851e-06 -5.9431e-17)
(3.00017 -6.04014e-05 3.50056e-16)
(3.0001 -5.60461e-05 -4.04585e-18)
(3.00008 -2.33679e-05 4.85712e-18)
(3.00007 -7.7053e-06 -7.65731e-17)
(3.00007 -2.50901e-06 -3.85787e-17)
(3.00017 -6.45064e-05 3.46873e-16)
(3.0001 -5.97398e-05 -5.09407e-17)
(3.00008 -2.48619e-05 3.33465e-17)
(3.00007 -8.159e-06 -7.5602e-17)
(3.00007 -2.6865e-06 -5.9207e-17)
(3.00018 -6.87483e-05 3.43391e-16)
(3.00011 -6.3536e-05 -9.6615e-17)
(3.00008 -2.63883e-05 3.06737e-17)
(3.00008 -8.62027e-06 -5.14451e-17)
(3.00007 -2.87095e-06 -5.9186e-17)
(3.00018 -7.31242e-05 2.72587e-16)
(3.00011 -6.74297e-05 -9.45065e-17)
(3.00009 -2.7944e-05 2.80818e-17)
(3.00008 -9.08811e-06 -5.07126e-17)
(3.00008 -3.0623e-06 -3.892e-17)
(3.00019 -7.76301e-05 2.69316e-16)
(3.00012 -7.14149e-05 -9.24499e-17)
(3.00009 -2.95256e-05 2.48354e-17)
(3.00008 -9.56153e-06 -7.27194e-17)
(3.00008 -3.26049e-06 -3.88974e-17)
(3.00019 -8.22624e-05 2.65275e-16)
(3.00012 -7.54855e-05 -9.04598e-17)
(3.00009 -3.11294e-05 2.09729e-17)
(3.00009 -1.00395e-05 -9.31431e-17)
(3.00009 -3.46541e-06 -3.88806e-17)
(3.0002 -8.7016e-05 2.60556e-16)
(3.00012 -7.96346e-05 -1.34153e-16)
(3.0001 -3.2752e-05 -1.21007e-17)
(3.00009 -1.05209e-05 -8.98406e-17)
(3.00009 -3.67698e-06 -3.8873e-17)
(3.0002 -9.18861e-05 2.55005e-16)
(3.00013 -8.38549e-05 -2.19828e-16)
(3.0001 -3.4389e-05 -1.38931e-17)
(3.0001 -1.10047e-05 -6.47562e-17)
(3.00009 -3.89502e-06 -3.8876e-17)
(3.0002 -9.6867e-05 1.21982e-16)
(3.00013 -8.81387e-05 -1.73177e-16)
(3.00011 -3.60364e-05 -4.2822e-17)
(3.0001 -1.14897e-05 -1.97883e-17)
(3.0001 -4.1194e-06 -3.88884e-17)
(3.00021 -0.000101952 2.45265e-16)
(3.00014 -9.24775e-05 -1.70636e-16)
(3.00011 -3.769e-05 -1.44874e-17)
(3.0001 -1.19747e-05 -4.3652e-17)
(3.0001 -4.34993e-06 -5.79055e-17)
(3.00021 -0.000107136 2.40529e-16)
(3.00014 -9.68626e-05 -1.6725e-16)
(3.00012 -3.93452e-05 1.24562e-17)
(3.00011 -1.24587e-05 -4.45935e-17)
(3.00011 -4.58641e-06 -5.79263e-17)
(3.00022 -0.00011241 2.3635e-16)
(3.00015 -0.000101285 -1.21724e-16)
(3.00012 -4.09975e-05 -1.58621e-17)
(3.00011 -1.29403e-05 -3.7195e-18)
(3.00011 -4.82862e-06 -5.79459e-17)
(3.00022 -0.000117767 3.54516e-16)
(3.00015 -0.000105735 -1.20705e-16)
(3.00013 -4.26421e-05 -7.03002e-17)
(3.00012 -1.34185e-05 -7.37559e-18)
(3.00012 -5.07631e-06 -5.79623e-17)
(3.00023 -0.0001232 4.6925e-16)
(3.00016 -0.000110202 -1.61765e-16)
(3.00013 -4.42744e-05 -9.50874e-17)
(3.00012 -1.3892e-05 -1.08427e-17)
(3.00012 -5.32923e-06 -5.79746e-17)
(3.00023 -0.0001287 5.81016e-16)
(3.00016 -0.000114677 -1.60299e-16)
(3.00014 -4.58895e-05 -9.05246e-17)
(3.00013 -1.43599e-05 2.35517e-17)
(3.00013 -5.58708e-06 -9.38307e-17)
(3.00024 -0.000134258 6.89276e-16)
(3.00017 -0.000119149 -1.99284e-16)
(3.00014 -4.74826e-05 -8.55165e-17)
(3.00013 -1.48209e-05 3.75548e-17)
(3.00013 -5.84959e-06 -5.84254e-17)
(3.00024 -0.000139864 6.77601e-16)
(3.00017 -0.000123608 -2.36799e-16)
(3.00015 -4.9049e-05 -8.09014e-17)
(3.00014 -1.52738e-05 3.06208e-17)
(3.00014 -6.11645e-06 -5.84294e-17)
(3.00024 -0.000145511 6.65893e-16)
(3.00018 -0.000128042 -2.33332e-16)
(3.00015 -5.05838e-05 -7.65578e-17)
(3.00014 -1.57178e-05 2.65915e-17)
(3.00014 -6.38727e-06 -2.39023e-17)
(3.00025 -0.000151187 6.54163e-16)
(3.00018 -0.00013244 -2.29237e-16)
(3.00016 -5.20824e-05 -4.71599e-17)
(3.00015 -1.61518e-05 2.28246e-17)
(3.00015 -6.6618e-06 -2.39071e-17)
(3.00025 -0.000156884 5.29482e-16)
(3.00019 -0.000136792 -3.02029e-16)
(3.00016 -5.35401e-05 -4.44826e-17)
(3.00016 -1.65748e-05 1.67911e-17)
(3.00015 -6.93962e-06 -5.75571e-17)
(3.00026 -0.000162592 4.07973e-16)
(3.0002 -0.000141087 -2.96058e-16)
(3.00017 -5.49527e-05 -4.21156e-17)
(3.00016 -1.6986e-05 1.11427e-17)
(3.00016 -7.22041e-06 -5.75648e-17)
(3.00026 -0.0001683 3.98678e-16)
(3.0002 -0.000145314 -2.9117e-16)
(3.00018 -5.63155e-05 -8.85787e-17)
(3.00017 -1.73845e-05 5.84318e-18)
(3.00017 -7.50381e-06 -5.75739e-17)
(3.00027 -0.000174 6.04318e-16)
(3.00021 -0.000149463 -2.86221e-16)
(3.00018 -5.7625e-05 -8.30915e-17)
(3.00017 -1.77698e-05 3.6706e-17)
(3.00017 -7.78942e-06 -5.75832e-17)
(3.00027 -0.00017968 5.92008e-16)
(3.00021 -0.000153523 -2.81259e-16)
(3.00019 -5.8877e-05 -7.82112e-17)
(3.00018 -1.8141e-05 2.66423e-17)
(3.00018 -8.0769e-06 -8.94436e-17)
(3.00028 -0.000185331 5.78379e-16)
(3.00022 -0.000157484 -3.46808e-16)
(3.0002 -6.00683e-05 -2.5664e-17)
(3.00019 -1.84977e-05 5.70757e-17)
(3.00019 -8.36589e-06 -2.66428e-17)
(3.00028 -0.000190944 6.66362e-16)
(3.00023 -0.000161337 -4.09531e-16)
(3.0002 -6.11955e-05 -2.2298e-17)
(3.00019 -1.88395e-05 4.76524e-17)
(3.00019 -8.65598e-06 -5.75929e-17)
(3.00028 -0.000196508 6.50036e-16)
(3.00023 -0.000165072 -3.99901e-16)
(3.00021 -6.22558e-05 -2.10097e-17)
(3.0002 -1.9166e-05 5.22098e-18)
(3.0002 -8.94689e-06 -5.75854e-17)
(3.00029 -0.000202016 6.32855e-16)
(3.00024 -0.000168682 -4.57706e-16)
(3.00022 -6.32469e-05 2.4323e-17)
(3.00021 -1.9477e-05 -8.09331e-20)
(3.00021 -9.23823e-06 -5.75717e-17)
(3.00029 -0.000207456 6.15918e-16)
(3.00024 -0.000172157 -4.45329e-16)
(3.00022 -6.41661e-05 2.4492e-17)
(3.00021 -1.97722e-05 2.75753e-17)
(3.00021 -9.52961e-06 -5.75528e-17)
(3.0003 -0.000212824 5.9924e-16)
(3.00025 -0.000175491 -4.33069e-16)
(3.00023 -6.50128e-05 2.44207e-17)
(3.00022 -2.00521e-05 2.2719e-17)
(3.00022 -9.82087e-06 -2.83888e-17)
(3.0003 -0.000218106 5.82833e-16)
(3.00026 -0.000178676 -4.22021e-16)
(3.00024 -6.57841e-05 -1.66717e-17)
(3.00023 -2.0316e-05 4.71835e-17)
(3.00023 -1.01115e-05 -5.70542e-17)
(3.00031 -0.000223301 7.54049e-16)
(3.00026 -0.000181708 -4.11024e-16)
(3.00024 -6.64809e-05 -1.40473e-17)
(3.00024 -2.05648e-05 3.53363e-17)
(3.00023 -1.04013e-05 -8.52674e-17)
(3.00031 -0.000228396 7.34163e-16)
(3.00027 -0.000184579 -4.63281e-16)
(3.00025 -6.71012e-05 -1.05305e-17)
(3.00024 -2.07982e-05 5.48126e-17)
(3.00024 -1.06901e-05 -8.52457e-17)
(3.00032 -0.000233388 7.14606e-16)
(3.00028 -0.000187286 -4.50682e-16)
(3.00026 -6.76455e-05 -9.35967e-18)
(3.00025 -2.10168e-05 1.2036e-17)
(3.00025 -1.09774e-05 -8.52261e-17)
(3.00032 -0.000238271 6.95354e-16)
(3.00029 -0.000189827 -4.38248e-16)
(3.00027 -6.81152e-05 -8.71771e-18)
(3.00026 -2.12215e-05 2.94244e-18)
(3.00026 -1.12632e-05 -8.52076e-17)
(3.00033 -0.000243034 8.52578e-16)
(3.00029 -0.000192193 -3.66008e-16)
(3.00027 -6.85081e-05 -8.55044e-18)
(3.00027 -2.14117e-05 -5.41802e-18)
(3.00026 -1.15471e-05 -8.51882e-17)
(3.00034 -0.000247682 8.3185e-16)
(3.0003 -0.000194392 -3.54755e-16)
(3.00028 -6.88301e-05 2.9267e-17)
(3.00027 -2.15897e-05 -1.3077e-17)
(3.00027 -1.18291e-05 -8.51663e-17)
(3.00034 -0.0002522 8.12409e-16)
(3.00031 -0.000196411 -2.84678e-16)
(3.00029 -6.90773e-05 6.39465e-17)
(3.00028 -2.17543e-05 -2.0074e-17)
(3.00028 -1.21088e-05 -8.51423e-17)
(3.00035 -0.000256592 6.29824e-16)
(3.00032 -0.000198259 -2.18724e-16)
(3.0003 -6.92561e-05 2.22257e-17)
(3.00029 -2.19077e-05 -2.64598e-17)
(3.00029 -1.23863e-05 -8.51192e-17)
(3.00035 -0.000260851 6.14361e-16)
(3.00032 -0.000199932 -2.11525e-16)
(3.00031 -6.93669e-05 2.18731e-17)
(3.0003 -2.20502e-05 1.62227e-17)
(3.0003 -1.26613e-05 -1.34388e-16)
(3.00036 -0.00026497 5.98722e-16)
(3.00033 -0.000201426 -2.0445e-16)
(3.00031 -6.94096e-05 2.06696e-17)
(3.00031 -2.21815e-05 1.02103e-18)
(3.00031 -1.29335e-05 -1.34379e-16)
(3.00037 -0.000268963 5.83758e-16)
(3.00034 -0.000202759 -1.97619e-16)
(3.00032 -6.93951e-05 1.57642e-17)
(3.00031 -2.23056e-05 -6.41844e-17)
(3.00031 -1.32036e-05 -1.34382e-16)
(3.00037 -0.000272802 5.69271e-16)
(3.00035 -0.000203908 -1.9103e-16)
(3.00033 -6.93138e-05 1.06654e-17)
(3.00032 -2.24185e-05 -7.1438e-17)
(3.00032 -1.34703e-05 -1.34393e-16)
(3.00038 -0.000276513 7.05363e-16)
(3.00035 -0.000204901 -2.36515e-16)
(3.00034 -6.9182e-05 5.42183e-18)
(3.00033 -2.2526e-05 -7.80069e-17)
(3.00033 -1.37348e-05 -1.34411e-16)
(3.00039 -0.000280079 6.8738e-16)
(3.00036 -0.000205727 -2.28699e-16)
(3.00035 -6.89956e-05 2.67959e-18)
(3.00034 -2.26263e-05 -4.04119e-17)
(3.00034 -1.39964e-05 -1.79323e-16)
(3.00039 -0.000283491 8.15135e-16)
(3.00037 -0.000206381 -2.19053e-16)
(3.00035 -6.87538e-05 6.32023e-17)
(3.00035 -2.27185e-05 -5.53269e-17)
(3.00035 -1.42545e-05 -1.79342e-16)
(3.0004 -0.000286785 7.94778e-16)
(3.00038 -0.000206904 -2.07809e-16)
(3.00036 -6.8478e-05 1.17811e-16)
(3.00036 -2.281e-05 -6.8828e-17)
(3.00036 -1.4511e-05 -1.79359e-16)
(3.00041 -0.000289908 7.74746e-16)
(3.00039 -0.000207246 -1.97247e-16)
(3.00037 -6.81458e-05 1.05388e-16)
(3.00037 -2.28921e-05 -8.10223e-17)
(3.00036 -1.47634e-05 -1.79373e-16)
(3.00041 -0.000292905 7.55068e-16)
(3.00039 -0.000207458 -1.85334e-16)
(3.00038 -6.77823e-05 1.53038e-16)
(3.00037 -2.29733e-05 -9.20052e-17)
(3.00037 -1.50135e-05 -1.79383e-16)
(3.00042 -0.000295765 7.35719e-16)
(3.0004 -0.000207535 -1.74271e-16)
(3.00039 -6.73874e-05 1.36678e-16)
(3.00038 -2.30533e-05 -1.01871e-16)
(3.00038 -1.52613e-05 -1.79389e-16)
(3.00042 -0.000298451 4.52171e-16)
(3.00041 -0.000207439 -2.53812e-16)
(3.00039 -6.6943e-05 1.20911e-16)
(3.00039 -2.31242e-05 -1.06208e-16)
(3.00039 -1.55046e-05 -1.39771e-16)
(3.00043 -0.00030104 4.37295e-16)
(3.00041 -0.000207259 -2.39178e-16)
(3.0004 -6.64937e-05 1.59159e-16)
(3.00039 -2.32023e-05 -1.56065e-16)
(3.00039 -1.57473e-05 -1.78793e-16)
(3.00043 -0.000303453 4.24751e-16)
(3.00042 -0.000206915 -1.37697e-16)
(3.0004 -6.60003e-05 1.90906e-16)
(3.0004 -2.32723e-05 -1.94793e-16)
(3.0004 -1.59855e-05 -1.40575e-16)
(3.00044 -0.000305717 4.14442e-16)
(3.00042 -0.000206444 -4.31114e-17)
(3.00041 -6.54848e-05 1.65553e-16)
(3.0004 -2.33413e-05 -1.88356e-16)
(3.0004 -1.62206e-05 -1.40477e-16)
(3.00044 -0.000307897 4.0452e-16)
(3.00043 -0.00020591 -3.43961e-17)
(3.00041 -6.49709e-05 1.95322e-16)
(3.00041 -2.3417e-05 -1.73954e-16)
(3.00041 -1.64548e-05 -6.75713e-17)
(3.00044 -0.000309829 3.94909e-16)
(3.00043 -0.000205167 -2.84671e-17)
(3.00041 -6.44054e-05 1.22478e-16)
(3.00041 -2.34826e-05 -1.23309e-16)
(3.00041 -1.66834e-05 -6.7738e-17)
(3.00044 -0.000311646 3.85529e-16)
(3.00042 -0.000204339 -2.53221e-17)
(3.00041 -6.3827e-05 5.53954e-17)
(3.00041 -2.35448e-05 -1.16485e-16)
(3.00041 -1.69076e-05 -6.77464e-17)
(3.00043 -0.000313311 3.74664e-16)
(3.00042 -0.000203408 -9.7353e-17)
(3.00041 -6.32454e-05 9.03231e-17)
(3.0004 -2.36134e-05 -1.46335e-16)
(3.0004 -1.71299e-05 -6.76396e-17)
(3.00043 -0.000314807 3.64138e-16)
(3.00042 -0.000202362 -8.87236e-17)
(3.0004 -6.2648e-05 1.22272e-16)
(3.0004 -2.36785e-05 -1.36425e-16)
(3.0004 -1.73472e-05 -6.75278e-17)
(3.00042 -0.000316135 3.53919e-16)
(3.00041 -0.000201211 -8.1212e-17)
(3.0004 -6.20402e-05 1.09254e-16)
(3.00039 -2.37421e-05 -5.91813e-17)
(3.00039 -1.75594e-05 -6.74593e-17)
(3.00041 -0.000317248 3.42292e-16)
(3.0004 -0.000199922 -1.46237e-16)
(3.00039 -6.14091e-05 9.15194e-17)
(3.00038 -2.37986e-05 -1.35358e-16)
(3.00038 -1.77642e-05 -1.3096e-16)
(3.0004 -0.000318178 3.30984e-16)
(3.00039 -0.000198543 -1.37567e-16)
(3.00038 -6.07772e-05 7.49781e-17)
(3.00037 -2.38538e-05 -1.34774e-16)
(3.00037 -1.79615e-05 -1.30655e-16)
(3.00038 -0.000318868 3.19927e-16)
(3.00038 -0.000197041 -1.29852e-16)
(3.00037 -6.01333e-05 5.43468e-17)
(3.00036 -2.39031e-05 -2.05194e-16)
(3.00036 -1.81487e-05 -1.90325e-16)
(3.00037 -0.000319308 3.10589e-16)
(3.00036 -0.000195431 -6.00436e-17)
(3.00035 -5.9481e-05 -4.97247e-17)
(3.00035 -2.39425e-05 -2.03085e-16)
(3.00035 -1.83219e-05 -1.90843e-16)
(3.00036 -0.000319467 1.12815e-16)
(3.00035 -0.00019375 -6.3414e-17)
(3.00034 -5.88699e-05 -1.44078e-16)
(3.00033 -2.3991e-05 -2.09091e-16)
(3.00033 -1.84827e-05 -2.48657e-16)
(3.00035 -0.000319308 2.91972e-16)
(3.00034 -0.000191983 -6.70028e-17)
(3.00033 -5.82754e-05 -1.53641e-16)
(3.00033 -2.40304e-05 -2.72829e-16)
(3.00033 -1.86213e-05 -2.48562e-16)
(3.00035 -0.000318801 4.62342e-16)
(3.00034 -0.000190111 -7.0648e-17)
(3.00033 -5.76568e-05 -1.62327e-16)
(3.00033 -2.40335e-05 -2.69196e-16)
(3.00033 -1.8723e-05 -2.48255e-16)
(3.0003 -0.000317951 2.71585e-16)
(3.00029 -0.000188114 -7.08305e-17)
(3.00028 -5.69376e-05 -8.94924e-17)
(3.00028 -2.39823e-05 -2.1723e-16)
(3.00028 -1.87946e-05 -3.01233e-16)
)
;

boundaryField
{
    axis
    {
        type            empty;
    }
    inlet
    {
        type            fixedValue;
        value           uniform (3 0 0);
    }
    wall
    {
        type            zeroGradient;
    }
    outlet
    {
        type            zeroGradient;
    }
    front
    {
        type            wedge;
    }
    back
    {
        type            wedge;
    }
}


// ************************************************************************* //
