/*--------------------------------*- C++ -*----------------------------------*\
| =========                 |                                                 |
| \\      /  F ield         | OpenFOAM: The Open Source CFD Toolbox           |
|  \\    /   O peration     | Version:  4.1                                   |
|   \\  /    A nd           | Web:      www.OpenFOAM.org                      |
|    \\/     M anipulation  |                                                 |
\*---------------------------------------------------------------------------*/
FoamFile
{
    version     2.0;
    format      ascii;
    class       volScalarField;
    location    "0.2";
    object      Ma;
}
// * * * * * * * * * * * * * * * * * * * * * * * * * * * * * * * * * * * * * //

dimensions      [0 0 0 0 0 0 0];

internalField   nonuniform List<scalar> 
52500
(
3.03448
3.15881
3.12996
3.09088
3.01315
2.88982
2.69925
2.3939
2.06587
1.86444
1.76578
1.72012
1.68627
1.64437
1.59887
1.51289
1.42972
1.21918
0.557932
0.205832
0.324466
0.166422
0.161282
0.0874024
0.035433
3.03447
3.15879
3.12994
3.09085
3.0131
2.88975
2.69915
2.39383
2.06583
1.86446
1.76582
1.72015
1.68638
1.64452
1.599
1.51297
1.43349
1.23341
0.590316
0.199487
0.328075
0.177742
0.170864
0.0986892
0.0658685
3.03446
3.15879
3.12994
3.09085
3.0131
2.88972
2.69914
2.39387
2.06586
1.8645
1.76584
1.72011
1.68647
1.64472
1.59902
1.51327
1.44123
1.26223
0.660684
0.186082
0.337622
0.20215
0.189865
0.119462
0.104961
3.03442
3.15875
3.12985
3.09074
3.01296
2.88955
2.69916
2.39421
2.06634
1.86502
1.76631
1.72043
1.68688
1.64511
1.59893
1.51346
1.4523
1.30057
0.758994
0.168558
0.351013
0.239016
0.217058
0.145454
0.146408
3.03446
3.15882
3.12993
3.09083
3.01308
2.88963
2.69939
2.39459
2.06669
1.86535
1.76663
1.72071
1.68729
1.64549
1.59874
1.51348
1.4665
1.34406
0.873556
0.179058
0.364261
0.286327
0.251187
0.173646
0.190668
3.03439
3.15863
3.12976
3.09061
3.01274
2.8891
2.69841
2.39295
2.06435
1.86257
1.76381
1.71825
1.68511
1.6438
1.59734
1.51268
1.48333
1.38827
0.996053
0.264793
0.373512
0.340966
0.291823
0.205691
0.240556
3.03438
3.15864
3.12972
3.09057
3.01269
2.88902
2.69857
2.39345
2.06497
1.86314
1.76437
1.71896
1.68535
1.6436
1.59687
1.5131
1.50296
1.42824
1.11762
0.423705
0.375068
0.397492
0.339207
0.244967
0.297925
3.03441
3.15878
3.12984
3.0907
3.01289
2.88937
2.69939
2.39501
2.06734
1.86598
1.76733
1.72202
1.68754
1.64461
1.59714
1.51612
1.51972
1.46041
1.2347
0.637071
0.375735
0.449355
0.392068
0.29991
0.370345
3.03436
3.15861
3.12969
3.09053
3.01264
2.88896
2.69852
2.39341
2.06498
1.86302
1.76419
1.71943
1.68522
1.64227
1.59564
1.51957
1.52775
1.48622
1.3414
0.872465
0.388291
0.491662
0.45596
0.3777
0.466059
3.03436
3.15861
3.12969
3.09052
3.01261
2.88889
2.69839
2.39325
2.06483
1.86286
1.76404
1.71953
1.68536
1.64185
1.59436
1.52517
1.52407
1.51409
1.43204
1.08455
0.482055
0.527077
0.53044
0.487032
0.645966
3.0344
3.15872
3.12983
3.09071
3.01291
2.88948
2.69904
2.39409
2.06626
1.86501
1.76637
1.72065
1.68676
1.64472
1.59908
1.513
1.42975
1.21911
0.557688
0.20565
0.324295
0.166069
0.160961
0.0867841
0.0339029
3.03446
3.15881
3.12995
3.09087
3.01313
2.88975
2.69931
2.39414
2.06616
1.86483
1.76617
1.72049
1.68667
1.64473
1.59911
1.51303
1.4335
1.23333
0.590055
0.19932
0.327919
0.177419
0.170548
0.0981364
0.065062
3.03439
3.15864
3.12972
3.09057
3.01269
2.88905
2.69856
2.39341
2.0649
1.86304
1.76422
1.71853
1.68508
1.64374
1.59856
1.51306
1.44107
1.26208
0.660421
0.18591
0.337475
0.201856
0.189616
0.118948
0.104439
3.03449
3.15884
3.13
3.09092
3.01321
2.88985
2.69943
2.39418
2.06611
1.86472
1.766
1.72021
1.6867
1.64499
1.59885
1.51339
1.45223
1.30046
0.758749
0.168366
0.350888
0.238762
0.216829
0.145029
0.146035
3.03439
3.15864
3.12973
3.09057
3.0127
2.88906
2.69859
2.39347
2.06495
1.86309
1.76423
1.71842
1.68529
1.64404
1.59796
1.51307
1.46624
1.34385
0.873301
0.178811
0.36416
0.286113
0.250983
0.17331
0.190379
3.03448
3.15884
3.12998
3.09091
3.01319
2.88984
2.69948
2.39433
2.06631
1.86491
1.76618
1.7204
1.68694
1.64508
1.59796
1.51293
1.48342
1.38825
0.99588
0.264517
0.373435
0.340793
0.291648
0.205422
0.240323
3.03442
3.15875
3.12985
3.09074
3.01295
2.88954
2.69916
2.3942
2.06634
1.86499
1.76635
1.72079
1.68696
1.64473
1.59742
1.51332
1.50303
1.42823
1.11747
0.423434
0.375003
0.397356
0.339049
0.244758
0.297737
3.03446
3.15879
3.12994
3.09086
3.01312
2.88977
2.69922
2.39392
2.06594
1.86449
1.76588
1.72075
1.68646
1.64379
1.59661
1.51579
1.5195
1.46024
1.23451
0.636792
0.37567
0.449252
0.391939
0.299752
0.370199
3.03446
3.15879
3.12993
3.09084
3.0131
2.88973
2.69915
2.3938
2.06584
1.86431
1.76564
1.72084
1.68648
1.64317
1.59602
1.51973
1.5278
1.4862
1.34129
0.872242
0.388185
0.491583
0.45586
0.377576
0.465952
3.03447
3.15881
3.12995
3.09088
3.01315
2.88981
2.69928
2.39392
2.06595
1.86431
1.76556
1.72092
1.68655
1.64267
1.59464
1.52527
1.52408
1.51405
1.43194
1.08437
0.481856
0.527022
0.530357
0.486938
0.645903
3.03448
3.15881
3.12996
3.09088
3.01315
2.88982
2.69928
2.39397
2.06594
1.86451
1.76584
1.72016
1.68633
1.6444
1.59888
1.51288
1.42967
1.21906
0.557638
0.205676
0.324301
0.166072
0.160952
0.0867871
0.0339025
3.03446
3.15879
3.12994
3.09085
3.01311
2.88976
2.6992
2.3939
2.0659
1.86453
1.76587
1.72018
1.68641
1.64454
1.599
1.51296
1.43344
1.23328
0.590006
0.199342
0.327923
0.177421
0.17054
0.0981389
0.0650617
3.03446
3.1588
3.12995
3.09087
3.01313
2.8898
2.69927
2.39399
2.06599
1.86461
1.76591
1.72014
1.68648
1.64469
1.59896
1.51319
1.44114
1.26208
0.66038
0.185936
0.337484
0.201857
0.189608
0.11895
0.104439
3.03444
3.15877
3.12988
3.09078
3.01301
2.88963
2.69931
2.39436
2.06646
1.86508
1.76633
1.72041
1.68689
1.64509
1.59892
1.51343
1.45224
1.30045
0.758727
0.168372
0.350889
0.23876
0.216824
0.145029
0.146035
3.0345
3.15886
3.13001
3.09094
3.01323
2.8899
2.69952
2.39434
2.06631
1.86489
1.76613
1.72026
1.68687
1.64515
1.59848
1.51328
1.46635
1.34389
0.873295
0.178804
0.364165
0.28611
0.250979
0.17331
0.190379
3.03442
3.15866
3.12979
3.09065
3.01281
2.88922
2.69854
2.39297
2.06428
1.8624
1.76359
1.718
1.68492
1.64364
1.59724
1.51261
1.48324
1.38816
0.995844
0.264508
0.373436
0.340789
0.291645
0.205422
0.240322
3.0345
3.15886
3.13001
3.09094
3.01323
2.8899
2.69951
2.39431
2.06629
1.86483
1.76616
1.72066
1.68681
1.64464
1.59735
1.51327
1.503
1.42821
1.11746
0.423422
0.375004
0.397353
0.339046
0.244757
0.297736
3.03441
3.15874
3.12984
3.09073
3.01294
2.88951
2.69914
2.39419
2.06636
1.86497
1.76636
1.72116
1.6868
1.64405
1.59679
1.5159
1.51957
1.46028
1.23453
0.636797
0.375669
0.449249
0.391938
0.299752
0.370199
3.03446
3.1588
3.12996
3.09088
3.01315
2.88981
2.69929
2.39395
2.066
1.86449
1.76578
1.72094
1.68653
1.64318
1.59599
1.51969
1.52778
1.48619
1.34128
0.872235
0.388183
0.491582
0.455859
0.377576
0.465951
3.03441
3.15874
3.12984
3.09073
3.01294
2.88951
2.69915
2.39418
2.06639
1.86486
1.76612
1.72141
1.68696
1.64296
1.59483
1.52539
1.52414
1.51409
1.43196
1.08438
0.481855
0.527022
0.530356
0.486938
0.645903
3.03448
3.15882
3.12996
3.09089
3.01316
2.88984
2.69935
2.39406
2.06604
1.8646
1.7659
1.7202
1.68636
1.64441
1.59888
1.51287
1.42966
1.21904
0.557612
0.205693
0.324304
0.166075
0.160948
0.0867878
0.0339023
3.03448
3.15881
3.12996
3.09089
3.01316
2.88984
2.69935
2.39406
2.06604
1.86461
1.7659
1.72017
1.6864
1.64452
1.59897
1.51293
1.43343
1.23326
0.58998
0.199357
0.327927
0.177424
0.170536
0.0981397
0.0650617
3.03448
3.15881
3.12996
3.09089
3.01316
2.88984
2.69935
2.39406
2.06604
1.86461
1.76589
1.72011
1.68647
1.64468
1.59896
1.51319
1.44113
1.26207
0.660361
0.185947
0.337487
0.201859
0.189605
0.118951
0.104439
3.03448
3.15881
3.12996
3.09089
3.01316
2.88984
2.69935
2.39406
2.06603
1.86461
1.76588
1.72005
1.68657
1.64487
1.59877
1.51334
1.45219
1.30042
0.758697
0.168384
0.350894
0.238762
0.216821
0.145031
0.146035
3.03448
3.15881
3.12996
3.09089
3.01316
2.88984
2.69935
2.39406
2.06603
1.86462
1.76587
1.72
1.68667
1.64499
1.59838
1.51322
1.46631
1.34386
0.873265
0.178802
0.36417
0.286112
0.250976
0.173312
0.190379
3.03448
3.15881
3.12997
3.09089
3.01316
2.88984
2.69935
2.39407
2.06603
1.8646
1.76588
1.72011
1.68671
1.6449
1.59785
1.51287
1.48337
1.38821
0.995843
0.264494
0.373443
0.340792
0.291643
0.205423
0.240323
3.03448
3.15881
3.12996
3.09089
3.01316
2.88984
2.69935
2.39406
2.06604
1.86457
1.7659
1.72039
1.68661
1.64447
1.59724
1.51321
1.50295
1.42818
1.11743
0.423399
0.375012
0.397356
0.339045
0.244758
0.297737
3.03448
3.15881
3.12996
3.09089
3.01316
2.88984
2.69935
2.39405
2.06605
1.86453
1.76589
1.72074
1.68644
1.64378
1.5966
1.51578
1.51949
1.46023
1.23449
0.636764
0.375675
0.449252
0.391938
0.299752
0.370199
3.03448
3.15881
3.12996
3.09089
3.01316
2.88984
2.69936
2.39404
2.06607
1.86447
1.76575
1.72088
1.68649
1.64315
1.59599
1.5197
1.52777
1.48618
1.34127
0.872214
0.388183
0.491585
0.45586
0.377576
0.465952
3.03448
3.15881
3.12996
3.09089
3.01316
2.88984
2.69936
2.39403
2.06607
1.86442
1.76565
1.72099
1.68659
1.64268
1.59464
1.52526
1.52407
1.51404
1.43193
1.08435
0.481842
0.527024
0.530357
0.486938
0.645903
3.03449
3.15883
3.12999
3.09092
3.01321
2.88988
2.6994
2.39414
2.06608
1.8646
1.76589
1.72017
1.68635
1.64442
1.59891
1.51291
1.42969
1.21907
0.557647
0.205675
0.324296
0.166078
0.160965
0.0867844
0.0338892
3.03449
3.15883
3.12999
3.09092
3.01321
2.88987
2.69941
2.39414
2.06608
1.86461
1.76589
1.72015
1.68639
1.64452
1.599
1.51297
1.43345
1.23329
0.59002
0.199333
0.32791
0.177423
0.17057
0.0981529
0.0650564
3.03448
3.15882
3.12998
3.0909
3.01318
2.88987
2.69938
2.39408
2.06606
1.86464
1.76592
1.72014
1.6865
1.6447
1.59897
1.51319
1.44114
1.26208
0.660381
0.185933
0.337476
0.20187
0.189593
0.119032
0.104462
3.03448
3.15882
3.12998
3.0909
3.01318
2.88987
2.69938
2.39408
2.06606
1.86464
1.76591
1.72008
1.6866
1.64489
1.59878
1.51334
1.45219
1.30043
0.758714
0.168376
0.350888
0.238782
0.216812
0.145089
0.146056
3.03449
3.15883
3.12998
3.09091
3.0132
2.88987
2.6994
2.39415
2.06608
1.86462
1.76587
1.71998
1.68666
1.645
1.5984
1.51325
1.46633
1.34388
0.873298
0.17881
0.364162
0.28613
0.250998
0.173309
0.190387
3.03448
3.15882
3.12998
3.0909
3.01319
2.88986
2.69939
2.39412
2.06606
1.86459
1.76585
1.72007
1.68668
1.64488
1.59786
1.51289
1.4834
1.38824
0.995877
0.26452
0.373435
0.340802
0.291673
0.205409
0.240325
3.03449
3.15883
3.12999
3.09092
3.0132
2.88988
2.6994
2.39413
2.06607
1.86456
1.76588
1.72035
1.68658
1.64445
1.59725
1.51324
1.50298
1.42821
1.11747
0.423433
0.375005
0.397358
0.339068
0.244752
0.297739
3.03448
3.15882
3.12997
3.0909
3.01317
2.88986
2.69936
2.39404
2.06605
1.86452
1.76589
1.72074
1.68645
1.64378
1.5966
1.51578
1.51949
1.46024
1.23451
0.63679
0.37567
0.449249
0.391948
0.299751
0.370198
3.03449
3.15883
3.12998
3.09091
3.0132
2.88986
2.69938
2.39408
2.06607
1.86443
1.7657
1.72084
1.68646
1.64315
1.59602
1.51974
1.5278
1.48621
1.3413
0.872249
0.388182
0.491577
0.455861
0.377579
0.46595
3.03448
3.15882
3.12997
3.0909
3.01319
2.88984
2.69936
2.39406
2.06606
1.86438
1.76561
1.72095
1.68657
1.64268
1.59467
1.5253
1.5241
1.51407
1.43195
1.08439
0.481858
0.527016
0.530355
0.486941
0.645902
3.03448
3.15881
3.12996
3.09089
3.01316
2.88984
2.69934
2.39406
2.06604
1.8646
1.7659
1.7202
1.68636
1.64441
1.59888
1.51287
1.42966
1.21905
0.557619
0.20569
0.324305
0.166077
0.160948
0.0867875
0.0339024
3.03448
3.15881
3.12996
3.09089
3.01316
2.88984
2.69935
2.39406
2.06604
1.86461
1.7659
1.72017
1.6864
1.64452
1.59897
1.51293
1.43343
1.23327
0.589987
0.199354
0.327927
0.177426
0.170535
0.0981397
0.0650629
3.03448
3.15881
3.12996
3.09089
3.01316
2.88984
2.69935
2.39406
2.06603
1.86461
1.76589
1.72011
1.68647
1.64468
1.59896
1.51319
1.44114
1.26207
0.660367
0.185944
0.337487
0.201861
0.189605
0.118951
0.10444
3.03448
3.15881
3.12996
3.09088
3.01316
2.88984
2.69934
2.39405
2.06603
1.86461
1.76588
1.72004
1.68656
1.64486
1.59876
1.51333
1.45219
1.30042
0.758703
0.16838
0.350893
0.238763
0.216821
0.145032
0.146037
3.03448
3.15881
3.12996
3.09089
3.01316
2.88984
2.69935
2.39406
2.06603
1.86462
1.76587
1.72
1.68667
1.64499
1.59838
1.51322
1.46631
1.34386
0.873269
0.1788
0.364168
0.286112
0.250976
0.173312
0.19038
3.03448
3.15881
3.12996
3.09088
3.01316
2.88984
2.69934
2.39405
2.06602
1.8646
1.76587
1.7201
1.6867
1.64488
1.59784
1.51286
1.48337
1.38821
0.995847
0.264495
0.37344
0.340791
0.291642
0.205424
0.240322
3.03448
3.15881
3.12996
3.09089
3.01316
2.88984
2.69935
2.39405
2.06603
1.86456
1.76589
1.72038
1.6866
1.64446
1.59724
1.5132
1.50295
1.42818
1.11744
0.423402
0.375008
0.397355
0.339045
0.24476
0.297736
3.03448
3.15881
3.12996
3.09089
3.01316
2.88984
2.69934
2.39403
2.06603
1.86451
1.76587
1.72072
1.68643
1.64377
1.5966
1.51578
1.51949
1.46023
1.23449
0.636769
0.375671
0.44925
0.391938
0.299753
0.370199
3.03448
3.15881
3.12996
3.09088
3.01316
2.88983
2.69933
2.394
2.06602
1.86442
1.76571
1.72085
1.68647
1.64314
1.59599
1.5197
1.52778
1.48618
1.34127
0.872221
0.388181
0.491583
0.455859
0.377576
0.465952
3.03448
3.15881
3.12996
3.09088
3.01315
2.88982
2.69932
2.39398
2.06602
1.86437
1.76562
1.72097
1.68658
1.64268
1.59465
1.52527
1.52407
1.51405
1.43193
1.08436
0.481845
0.527022
0.530357
0.486937
0.645904
3.03448
3.15882
3.12996
3.09089
3.01316
2.88984
2.69935
2.39406
2.06604
1.8646
1.7659
1.7202
1.68636
1.64441
1.59888
1.51287
1.42966
1.21904
0.557612
0.205693
0.324304
0.166074
0.160948
0.0867878
0.0339023
3.03448
3.15881
3.12996
3.09089
3.01316
2.88984
2.69935
2.39406
2.06604
1.8646
1.7659
1.72017
1.6864
1.64451
1.59897
1.51293
1.43343
1.23326
0.58998
0.199357
0.327927
0.177424
0.170536
0.0981396
0.0650618
3.03448
3.15881
3.12996
3.09089
3.01316
2.88984
2.69935
2.39406
2.06603
1.86461
1.76589
1.72011
1.68647
1.64468
1.59896
1.51319
1.44113
1.26207
0.660361
0.185947
0.337487
0.201859
0.189605
0.118951
0.104439
3.03448
3.15881
3.12996
3.09089
3.01316
2.88984
2.69935
2.39406
2.06603
1.86461
1.76588
1.72005
1.68657
1.64487
1.59877
1.51334
1.45219
1.30042
0.758697
0.168384
0.350894
0.238762
0.216821
0.145031
0.146035
3.03448
3.15881
3.12996
3.09089
3.01316
2.88984
2.69935
2.39406
2.06603
1.86462
1.76587
1.72
1.68667
1.64499
1.59838
1.51322
1.46631
1.34386
0.873265
0.178802
0.36417
0.286112
0.250976
0.173312
0.190379
3.03448
3.15881
3.12997
3.09089
3.01316
2.88984
2.69935
2.39407
2.06603
1.8646
1.76588
1.72011
1.68671
1.6449
1.59785
1.51287
1.48337
1.38821
0.995842
0.264493
0.373443
0.340792
0.291643
0.205423
0.240323
3.03448
3.15881
3.12996
3.09089
3.01316
2.88984
2.69935
2.39406
2.06604
1.86457
1.7659
1.72039
1.68661
1.64447
1.59724
1.51321
1.50295
1.42818
1.11743
0.423398
0.375012
0.397356
0.339046
0.244758
0.297737
3.03448
3.15881
3.12996
3.09089
3.01316
2.88984
2.69935
2.39405
2.06605
1.86453
1.76589
1.72074
1.68644
1.64378
1.5966
1.51578
1.51949
1.46023
1.23449
0.636764
0.375675
0.449252
0.391938
0.299752
0.370199
3.03448
3.15881
3.12996
3.09089
3.01316
2.88984
2.69936
2.39404
2.06607
1.86447
1.76575
1.72088
1.68649
1.64315
1.59599
1.5197
1.52777
1.48618
1.34127
0.872213
0.388183
0.491585
0.45586
0.377576
0.465952
3.03448
3.15881
3.12996
3.09089
3.01316
2.88984
2.69936
2.39403
2.06607
1.86442
1.76565
1.72099
1.68659
1.64268
1.59464
1.52526
1.52407
1.51404
1.43193
1.08435
0.481842
0.527024
0.530357
0.486938
0.645903
3.03448
3.15881
3.12996
3.09088
3.01315
2.88982
2.69928
2.39397
2.06594
1.86451
1.76584
1.72016
1.68633
1.6444
1.59888
1.51288
1.42967
1.21906
0.557638
0.205677
0.324301
0.166072
0.160952
0.0867871
0.0339025
3.03446
3.15879
3.12994
3.09085
3.01311
2.88976
2.6992
2.3939
2.0659
1.86453
1.76587
1.72018
1.68641
1.64454
1.599
1.51296
1.43344
1.23328
0.590006
0.199342
0.327923
0.177421
0.17054
0.0981389
0.0650617
3.03446
3.1588
3.12995
3.09087
3.01313
2.8898
2.69927
2.39399
2.06599
1.86461
1.76591
1.72014
1.68648
1.64469
1.59896
1.51319
1.44114
1.26208
0.66038
0.185936
0.337484
0.201857
0.189608
0.11895
0.104439
3.03444
3.15877
3.12988
3.09078
3.01301
2.88963
2.69931
2.39436
2.06646
1.86508
1.76633
1.72041
1.68689
1.64509
1.59892
1.51343
1.45224
1.30045
0.758727
0.168372
0.350889
0.23876
0.216824
0.145029
0.146035
3.0345
3.15886
3.13001
3.09094
3.01323
2.8899
2.69952
2.39434
2.06631
1.86489
1.76613
1.72026
1.68687
1.64515
1.59848
1.51328
1.46635
1.34389
0.873295
0.178804
0.364165
0.28611
0.250979
0.17331
0.190379
3.03442
3.15866
3.12979
3.09065
3.01281
2.88922
2.69854
2.39297
2.06428
1.8624
1.76359
1.718
1.68492
1.64364
1.59724
1.51261
1.48324
1.38816
0.995844
0.264508
0.373436
0.340789
0.291645
0.205422
0.240322
3.0345
3.15886
3.13001
3.09094
3.01323
2.8899
2.69951
2.39431
2.06629
1.86483
1.76616
1.72066
1.68681
1.64464
1.59735
1.51327
1.503
1.42821
1.11746
0.423422
0.375004
0.397353
0.339046
0.244757
0.297736
3.03441
3.15874
3.12984
3.09073
3.01294
2.88951
2.69914
2.39419
2.06636
1.86497
1.76636
1.72116
1.6868
1.64405
1.59679
1.5159
1.51957
1.46028
1.23453
0.636797
0.375669
0.449249
0.391938
0.299752
0.370199
3.03446
3.1588
3.12996
3.09088
3.01315
2.88981
2.69929
2.39395
2.066
1.86449
1.76578
1.72094
1.68653
1.64318
1.59599
1.51969
1.52778
1.48619
1.34128
0.872235
0.388183
0.491582
0.455859
0.377576
0.465951
3.03441
3.15874
3.12984
3.09073
3.01294
2.88951
2.69915
2.39418
2.06639
1.86486
1.76612
1.72141
1.68696
1.64296
1.59483
1.52539
1.52414
1.51409
1.43196
1.08438
0.481855
0.527022
0.530356
0.486938
0.645903
3.0344
3.15872
3.12983
3.09071
3.01291
2.88948
2.69904
2.39409
2.06626
1.86501
1.76637
1.72065
1.68676
1.64472
1.59908
1.513
1.42975
1.21911
0.557688
0.20565
0.324295
0.166069
0.160961
0.0867841
0.033903
3.03446
3.15881
3.12995
3.09087
3.01313
2.88975
2.69931
2.39414
2.06616
1.86483
1.76617
1.72049
1.68667
1.64473
1.59911
1.51303
1.4335
1.23333
0.590055
0.199319
0.327919
0.177419
0.170548
0.0981365
0.065062
3.03439
3.15864
3.12972
3.09057
3.01269
2.88905
2.69856
2.39341
2.0649
1.86304
1.76422
1.71853
1.68508
1.64374
1.59856
1.51306
1.44107
1.26208
0.660421
0.18591
0.337475
0.201856
0.189616
0.118948
0.104439
3.03449
3.15884
3.13
3.09092
3.01321
2.88985
2.69944
2.39418
2.06611
1.86472
1.766
1.72021
1.6867
1.64499
1.59885
1.51339
1.45223
1.30046
0.75875
0.168366
0.350888
0.238762
0.216829
0.145029
0.146035
3.03439
3.15864
3.12973
3.09057
3.0127
2.88906
2.69859
2.39347
2.06495
1.86309
1.76423
1.71842
1.68529
1.64404
1.59796
1.51307
1.46624
1.34385
0.873301
0.178811
0.36416
0.286113
0.250983
0.17331
0.190379
3.03448
3.15884
3.12998
3.09091
3.01319
2.88984
2.69948
2.39433
2.06631
1.86491
1.76618
1.7204
1.68694
1.64508
1.59796
1.51293
1.48342
1.38825
0.99588
0.264517
0.373435
0.340793
0.291648
0.205422
0.240323
3.03442
3.15875
3.12985
3.09074
3.01295
2.88954
2.69916
2.3942
2.06634
1.86499
1.76635
1.72079
1.68696
1.64473
1.59742
1.51332
1.50303
1.42823
1.11747
0.423434
0.375003
0.397356
0.339049
0.244758
0.297737
3.03446
3.15879
3.12994
3.09086
3.01312
2.88977
2.69922
2.39392
2.06594
1.86449
1.76588
1.72076
1.68646
1.64379
1.59661
1.51579
1.5195
1.46024
1.23451
0.636792
0.37567
0.449252
0.391939
0.299752
0.370199
3.03446
3.15879
3.12993
3.09084
3.0131
2.88973
2.69915
2.3938
2.06584
1.86431
1.76564
1.72084
1.68648
1.64317
1.59602
1.51973
1.5278
1.4862
1.34129
0.872242
0.388185
0.491583
0.45586
0.377576
0.465952
3.03447
3.15881
3.12995
3.09088
3.01315
2.88981
2.69928
2.39392
2.06595
1.86431
1.76556
1.72092
1.68655
1.64267
1.59464
1.52527
1.52408
1.51405
1.43194
1.08437
0.481856
0.527022
0.530357
0.486938
0.645903
3.03446
3.15878
3.12993
3.09084
3.01309
2.88973
2.69911
2.39379
2.06581
1.86448
1.76585
1.72021
1.68636
1.64443
1.5989
1.51291
1.42974
1.2192
0.557963
0.205816
0.324465
0.166457
0.161257
0.0875125
0.0354759
3.03445
3.15879
3.1299
3.0908
3.01304
2.88963
2.69927
2.39431
2.06638
1.86497
1.76628
1.7205
1.68668
1.64474
1.59916
1.51309
1.43357
1.23348
0.590385
0.199449
0.328056
0.17775
0.170914
0.0986771
0.065863
3.03449
3.15883
3.12998
3.0909
3.01317
2.88981
2.69932
2.39408
2.06607
1.86473
1.76608
1.72037
1.68669
1.64489
1.5991
1.51331
1.44125
1.26224
0.660704
0.186072
0.337615
0.202151
0.189893
0.119446
0.104965
3.03441
3.15865
3.12978
3.09065
3.01281
2.88913
2.6984
2.39292
2.0642
1.86231
1.76352
1.71789
1.68475
1.64364
1.59826
1.51321
1.45218
1.30055
0.759025
0.168543
0.351003
0.239018
0.217063
0.14545
0.146413
3.03444
3.15879
3.1299
3.0908
3.01304
2.88963
2.69938
2.39456
2.06668
1.86535
1.76661
1.72068
1.6872
1.64541
1.59865
1.51339
1.46645
1.34402
0.873535
0.179047
0.36426
0.286329
0.251187
0.173653
0.19067
3.03441
3.15877
3.12984
3.09071
3.01291
2.88939
2.69931
2.39487
2.06711
1.8658
1.76708
1.72117
1.68763
1.64561
1.59834
1.5132
1.48362
1.38843
0.996126
0.264815
0.373503
0.340967
0.291824
0.205697
0.240558
3.03441
3.15866
3.12979
3.09065
3.0128
2.88919
2.69857
2.39311
2.06449
1.86265
1.7639
1.71859
1.68504
1.64337
1.59672
1.513
1.5029
1.4282
1.1176
0.423698
0.37507
0.397494
0.339208
0.244969
0.297927
3.03436
3.15861
3.12969
3.09052
3.0126
2.88889
2.69833
2.3932
2.0648
1.86304
1.76439
1.7194
1.68533
1.64304
1.59634
1.51575
1.51954
1.4603
1.23467
0.637071
0.375738
0.449356
0.392069
0.299911
0.370347
3.03445
3.15881
3.12992
3.09082
3.01308
2.88964
2.69951
2.39471
2.06688
1.86537
1.76662
1.7217
1.68718
1.64367
1.5963
1.51989
1.52791
1.4863
1.34143
0.872466
0.388295
0.491664
0.455961
0.377701
0.46606
3.03433
3.1586
3.12964
3.09046
3.01254
2.88876
2.69845
2.39377
2.06547
1.86342
1.76455
1.71986
1.68562
1.64204
1.59455
1.52533
1.52417
1.51418
1.43211
1.0846
0.48208
0.527079
0.530442
0.487033
0.645967
3.03442
3.15876
3.12985
3.09073
3.01294
2.88943
2.69908
2.3942
2.06643
1.865
1.76634
1.72176
1.68741
1.64309
1.59289
1.52988
1.52039
1.54508
1.49926
1.26132
0.719733
0.560294
0.609674
0.629705
0.858362
3.03434
3.15857
3.12965
3.09047
3.01255
2.88883
2.69819
2.39298
2.06457
1.86266
1.76395
1.71936
1.68552
1.64214
1.5926
1.5259
1.52543
1.5662
1.54033
1.40778
1.00901
0.607579
0.693218
0.759278
0.943185
3.03438
3.15871
3.12981
3.09068
3.01286
2.88934
2.6989
2.39403
2.06627
1.86493
1.76637
1.72158
1.68748
1.64396
1.59455
1.52151
1.53403
1.56219
1.58433
1.52732
1.26636
0.761637
0.796393
0.861246
0.98379
3.03437
3.15871
3.12976
3.09061
3.01276
2.8892
2.69898
2.39446
2.06684
1.86551
1.76691
1.72202
1.68782
1.64419
1.59486
1.5234
1.53014
1.56724
1.61326
1.59589
1.48762
1.09539
0.90739
0.931199
1.03174
3.03432
3.15856
3.12963
3.09045
3.01252
2.88877
2.6982
2.39305
2.06466
1.86278
1.76409
1.71941
1.68555
1.64252
1.59384
1.52347
1.52922
1.57002
1.61212
1.65146
1.61947
1.4391
1.12036
1.00783
1.09503
3.03435
3.15861
3.12969
3.09052
3.01261
2.88885
2.69837
2.39333
2.06493
1.86303
1.76433
1.71966
1.68578
1.64272
1.59403
1.52334
1.52981
1.5688
1.61688
1.65896
1.68567
1.64303
1.43749
1.18135
1.16128
3.03434
3.15861
3.12964
3.09046
3.01254
2.88877
2.69858
2.39388
2.06556
1.8636
1.76481
1.71999
1.68602
1.64287
1.5941
1.52348
1.52963
1.56936
1.61589
1.66372
1.70472
1.72535
1.6809
1.47676
1.29522
3.03432
3.15859
3.12962
3.09043
3.0125
2.8887
2.6985
2.39382
2.06552
1.8636
1.76483
1.72004
1.68609
1.64293
1.59415
1.52347
1.52974
1.56922
1.6163
1.66344
1.709
1.74838
1.7706
1.73424
1.58122
3.03434
3.15859
3.12967
3.09049
3.01257
2.88879
2.69833
2.39334
2.06496
1.86312
1.76441
1.71973
1.68583
1.64274
1.59403
1.52341
1.52968
1.56927
1.61622
1.66368
1.70926
1.75222
1.78914
1.8132
1.79737
3.03429
3.15853
3.12956
3.09036
3.0124
2.88858
2.69823
2.39345
2.06517
1.86333
1.76461
1.71985
1.68592
1.64281
1.59408
1.52345
1.5297
1.56927
1.61623
1.66368
1.70941
1.75264
1.79222
1.82733
1.85166
3.03436
3.15871
3.12977
3.09061
3.01277
2.88918
2.69903
2.39459
2.06698
1.86565
1.76706
1.72217
1.68795
1.64428
1.5948
1.52382
1.52989
1.56938
1.61629
1.6637
1.70947
1.75268
1.79279
1.82923
1.86111
3.03431
3.15855
3.12962
3.09044
3.01249
2.88873
2.69806
2.39289
2.06451
1.86271
1.76406
1.71945
1.6856
1.64259
1.59395
1.52337
1.52966
1.56926
1.61623
1.66367
1.70946
1.75269
1.79285
1.82957
1.86244
3.03432
3.15855
3.12963
3.09044
3.01251
2.88874
2.6981
2.39295
2.06455
1.86274
1.76409
1.71947
1.68563
1.64261
1.59396
1.52337
1.52966
1.56926
1.61622
1.66367
1.70945
1.75269
1.79286
1.82962
1.86266
3.03436
3.15872
3.12977
3.09062
3.01278
2.88919
2.69906
2.39462
2.067
1.86565
1.76705
1.72215
1.68792
1.64425
1.59478
1.5238
1.52988
1.56937
1.61628
1.6637
1.70947
1.7527
1.79287
1.82963
1.86269
3.0343
3.15855
3.12959
3.09039
3.01245
2.88867
2.69834
2.39353
2.06522
1.8633
1.76454
1.71975
1.68582
1.64272
1.59402
1.5234
1.52967
1.56926
1.61623
1.66367
1.70946
1.75269
1.79287
1.82963
1.8627
3.03435
3.15861
3.12968
3.09051
3.0126
2.88883
2.69835
2.3933
2.06487
1.86297
1.76428
1.71963
1.68577
1.64272
1.59404
1.52342
1.52968
1.56927
1.61623
1.66368
1.70946
1.7527
1.79287
1.82963
1.8627
3.03435
3.1586
3.12968
3.0905
3.01259
2.88882
2.69834
2.3933
2.06488
1.863
1.76431
1.71966
1.6858
1.64274
1.59404
1.52342
1.52969
1.56927
1.61623
1.66368
1.70946
1.7527
1.79287
1.82963
1.8627
3.03429
3.15853
3.12957
3.09036
3.0124
2.88859
2.69819
2.39339
2.06511
1.86327
1.76457
1.71983
1.68592
1.64281
1.59408
1.52345
1.5297
1.56928
1.61624
1.66368
1.70946
1.7527
1.79287
1.82963
1.8627
3.03435
3.15871
3.12975
3.0906
3.01275
2.88916
2.69904
2.39464
2.06705
1.86574
1.76713
1.72223
1.68797
1.64429
1.59479
1.5238
1.52989
1.56937
1.61628
1.6637
1.70947
1.7527
1.79287
1.82963
1.8627
3.03427
3.15851
3.12954
3.09033
3.01235
2.88851
2.69809
2.39331
2.06506
1.86328
1.7646
1.71987
1.68596
1.64284
1.59411
1.52347
1.52971
1.56928
1.61624
1.66368
1.70946
1.7527
1.79287
1.82963
1.8627
3.03435
3.15862
3.12969
3.09052
3.01262
2.88888
2.69841
2.39335
2.06493
1.86302
1.76431
1.71963
1.68575
1.64269
1.594
1.52339
1.52968
1.56927
1.61623
1.66368
1.70946
1.7527
1.79287
1.82963
1.8627
3.0343
3.15856
3.12959
3.09039
3.01243
2.88859
2.69829
2.39359
2.06529
1.86342
1.76472
1.71999
1.68608
1.64295
1.59419
1.52352
1.52974
1.5693
1.61625
1.66369
1.70947
1.7527
1.79287
1.82963
1.8627
3.03435
3.15862
3.12969
3.09052
3.01262
2.88887
2.6984
2.39334
2.06492
1.86302
1.7643
1.71963
1.68575
1.64269
1.594
1.52339
1.52968
1.56927
1.61623
1.66368
1.70946
1.7527
1.79287
1.82963
1.8627
3.03427
3.15851
3.12954
3.09032
3.01234
2.88849
2.69806
2.39327
2.06502
1.86325
1.76458
1.71986
1.68595
1.64284
1.59411
1.52347
1.52971
1.56929
1.61624
1.66368
1.70946
1.7527
1.79287
1.82963
1.8627
3.03435
3.15871
3.12975
3.0906
3.01275
2.88916
2.69904
2.39464
2.06706
1.86575
1.76714
1.72225
1.68799
1.64431
1.59481
1.52381
1.52989
1.56937
1.61628
1.6637
1.70947
1.7527
1.79287
1.82963
1.8627
3.03427
3.1585
3.12953
3.09032
3.01233
2.88849
2.69805
2.39326
2.06502
1.86325
1.76458
1.71985
1.68593
1.64282
1.59409
1.52346
1.52971
1.56929
1.61624
1.66368
1.70947
1.7527
1.79287
1.82963
1.8627
3.03436
3.15862
3.1297
3.09053
3.01263
2.88888
2.69843
2.39338
2.06495
1.86305
1.76434
1.71967
1.68579
1.64273
1.59402
1.5234
1.52968
1.56927
1.61623
1.66368
1.70946
1.7527
1.79287
1.82963
1.8627
3.03431
3.15856
3.12959
3.09038
3.01243
2.8886
2.69831
2.39362
2.06534
1.86346
1.76475
1.72
1.68607
1.64293
1.59416
1.5235
1.52973
1.5693
1.61625
1.66369
1.70947
1.7527
1.79287
1.82963
1.8627
3.03436
3.15862
3.1297
3.09053
3.01263
2.88889
2.69844
2.3934
2.06498
1.86306
1.76433
1.71964
1.68575
1.64269
1.59399
1.52338
1.52967
1.56927
1.61623
1.66368
1.70946
1.7527
1.79287
1.82963
1.8627
3.03429
3.15853
3.12957
3.09036
3.0124
2.88859
2.69823
2.39345
2.06516
1.86331
1.76459
1.71983
1.68591
1.6428
1.59408
1.52344
1.52969
1.56927
1.61623
1.66367
1.70946
1.7527
1.79287
1.82963
1.8627
3.03437
3.15872
3.12978
3.09063
3.01279
2.88921
2.6991
2.39469
2.06708
1.86573
1.76711
1.72221
1.68796
1.64429
1.5948
1.52381
1.52988
1.56937
1.61628
1.6637
1.70947
1.7527
1.79287
1.82963
1.8627
3.03432
3.15856
3.12963
3.09045
3.01252
2.88875
2.69812
2.39297
2.06457
1.86275
1.7641
1.71948
1.68564
1.64261
1.59396
1.52337
1.52966
1.56925
1.61622
1.66367
1.70945
1.75269
1.79287
1.82963
1.8627
3.03433
3.15858
3.12966
3.09048
3.01257
2.88883
2.69829
2.39314
2.06471
1.86281
1.7641
1.71944
1.68558
1.64256
1.59393
1.52335
1.52964
1.56924
1.61621
1.66366
1.70945
1.75269
1.79286
1.82963
1.86269
3.03438
3.15874
3.1298
3.09065
3.01282
2.88924
2.69911
2.39466
2.06701
1.86563
1.76703
1.72213
1.68791
1.64425
1.59479
1.52381
1.52988
1.56937
1.61628
1.66369
1.70947
1.7527
1.79287
1.82963
1.86269
3.03435
3.1586
3.12968
3.09052
3.01262
2.88892
2.69843
2.39327
2.06481
1.86283
1.76409
1.71939
1.68553
1.64252
1.59389
1.52332
1.52962
1.56923
1.6162
1.66365
1.70944
1.75268
1.79286
1.82962
1.86269
3.03434
3.15858
3.12965
3.09048
3.01255
2.8888
2.69819
2.39302
2.06462
1.86276
1.76408
1.71944
1.68559
1.64257
1.59393
1.52335
1.52965
1.56925
1.61622
1.66366
1.70945
1.75269
1.79286
1.82963
1.86269
3.03441
3.15875
3.12985
3.09073
3.01293
2.88943
2.6991
2.39425
2.06646
1.86507
1.76648
1.72167
1.68751
1.64394
1.59458
1.52366
1.52981
1.56932
1.61625
1.66368
1.70945
1.75269
1.79286
1.82962
1.86269
3.03432
3.15858
3.12961
3.09042
3.01249
2.88873
2.69843
2.3937
2.06541
1.86347
1.76468
1.71984
1.68589
1.64276
1.59404
1.52341
1.52967
1.56925
1.61622
1.66366
1.70945
1.75269
1.79286
1.82963
1.86269
3.03441
3.15876
3.12986
3.09074
3.01296
2.88943
2.69914
2.39432
2.06649
1.86503
1.76643
1.7216
1.68746
1.64392
1.5946
1.5237
1.52983
1.56934
1.61626
1.66369
1.70946
1.75269
1.79286
1.82963
1.86269
3.03435
3.1586
3.12968
3.09051
3.0126
2.88889
2.69833
2.39316
2.06473
1.8628
1.76409
1.71941
1.68556
1.64254
1.59391
1.52334
1.52964
1.56924
1.61621
1.66366
1.70945
1.75269
1.79286
1.82962
1.86269
3.03446
3.15879
3.12993
3.09085
3.0131
2.88974
2.69917
2.39382
2.06587
1.86425
1.76556
1.72098
1.68673
1.64255
1.59254
1.52964
1.52024
1.54495
1.49914
1.26117
0.719504
0.560257
0.609591
0.629636
0.858325
3.03446
3.1588
3.12995
3.09087
3.01313
2.88978
2.69925
2.39391
2.06594
1.86434
1.76567
1.72094
1.68685
1.64303
1.59291
1.52601
1.52545
1.56616
1.54027
1.40767
1.00881
0.607527
0.693121
0.759209
0.94316
3.03443
3.15877
3.12987
3.09077
3.013
2.88961
2.69928
2.39427
2.06642
1.86484
1.76616
1.72124
1.68719
1.64369
1.59435
1.52135
1.5339
1.56209
1.58424
1.52722
1.2662
0.761513
0.796284
0.861185
0.983766
3.03448
3.15883
3.12998
3.0909
3.01318
2.88981
2.69936
2.39413
2.06617
1.86461
1.76597
1.72117
1.68708
1.64362
1.59448
1.52313
1.52997
1.56712
1.61317
1.5958
1.48749
1.0952
0.90727
0.931162
1.03171
3.0344
3.15864
3.12977
3.09063