/*--------------------------------*- C++ -*----------------------------------*\
| =========                 |                                                 |
| \\      /  F ield         | OpenFOAM: The Open Source CFD Toolbox           |
|  \\    /   O peration     | Version:  4.1                                   |
|   \\  /    A nd           | Web:      www.OpenFOAM.org                      |
|    \\/     M anipulation  |                                                 |
\*---------------------------------------------------------------------------*/
FoamFile
{
    version     2.0;
    format      ascii;
    class       volScalarField;
    location    "0.2";
    object      p;
}
// * * * * * * * * * * * * * * * * * * * * * * * * * * * * * * * * * * * * * //

dimensions      [1 -1 -2 0 0 0 0];

internalField   nonuniform List<scalar> 
52500
(
0.0940902
0.0693125
0.0698005
0.0710588
0.0736465
0.0783743
0.0873168
0.103344
0.136936
0.177388
0.20966
0.229218
0.242583
0.269591
0.303507
0.367754
0.46028
0.687526
1.48745
5.00448
7.08987
5.52677
5.18112
6.0579
7.33417
0.0940907
0.0693139
0.069802
0.0710606
0.0736491
0.078379
0.0873244
0.103353
0.13695
0.177385
0.209642
0.229213
0.242567
0.269548
0.303208
0.368458
0.458426
0.677473
1.43855
4.82194
7.13874
5.55053
5.16266
6.03838
7.3475
0.094091
0.0693144
0.0698026
0.0710612
0.0736497
0.0783809
0.0873263
0.103352
0.136947
0.177368
0.209611
0.22922
0.242567
0.26948
0.302845
0.369675
0.454642
0.657505
1.34311
4.40785
7.21857
5.60144
5.11626
5.98873
7.36319
0.0940924
0.069317
0.0698052
0.0710638
0.0736521
0.0783846
0.087326
0.103337
0.136906
0.177295
0.209511
0.229162
0.242554
0.269321
0.302537
0.371276
0.44949
0.631296
1.22385
3.81222
7.25514
5.68339
5.04456
5.90682
7.37241
0.0940904
0.0693166
0.0698049
0.0710637
0.0736524
0.078386
0.0873264
0.103341
0.136916
0.177315
0.209516
0.229179
0.242652
0.269101
0.302564
0.372999
0.44337
0.601814
1.09799
3.16827
7.10227
5.80908
4.96156
5.79657
7.34783
0.0940939
0.0693184
0.069807
0.0710666
0.073657
0.078395
0.0873429
0.103384
0.137009
0.177472
0.209659
0.229174
0.242775
0.268898
0.302802
0.374839
0.436604
0.571223
0.973613
2.53783
6.66936
5.97307
4.8888
5.64058
7.24928
0.0940943
0.0693196
0.0698082
0.0710675
0.0736572
0.0783954
0.0873368
0.103361
0.136958
0.17737
0.209589
0.22894
0.242748
0.268669
0.303245
0.37636
0.4287
0.541264
0.860524
2.00703
5.91417
6.14115
4.84109
5.43624
7.03428
0.0940924
0.0693211
0.0698097
0.0710688
0.0736579
0.0783959
0.0873328
0.103331
0.136882
0.177207
0.209479
0.228769
0.242651
0.268487
0.304101
0.376553
0.420336
0.514281
0.766961
1.60889
4.78983
6.26305
4.8276
5.21492
6.69653
0.0940951
0.0693211
0.0698097
0.0710692
0.0736592
0.078399
0.0873406
0.103366
0.136963
0.177371
0.209614
0.229021
0.242511
0.268354
0.305481
0.374034
0.416303
0.498179
0.692117
1.28439
3.48135
6.25077
4.88103
4.99637
6.19251
0.094095
0.069322
0.0698109
0.0710708
0.0736619
0.0784038
0.0873509
0.103387
0.137008
0.177417
0.209674
0.229128
0.242578
0.267878
0.307287
0.369874
0.421886
0.485528
0.629818
1.0401
2.42224
5.86923
4.99898
4.79633
5.47996
0.0940931
0.0693187
0.0698071
0.0710662
0.0736552
0.0783905
0.0873357
0.103349
0.136927
0.177289
0.209517
0.229087
0.242406
0.269429
0.303389
0.367668
0.460216
0.687518
1.48767
5.00541
7.08935
5.5265
5.18108
6.05802
7.33375
0.0940906
0.0693145
0.0698027
0.0710612
0.0736495
0.0783805
0.0873224
0.103346
0.136941
0.177348
0.209589
0.229155
0.24251
0.269485
0.303158
0.368417
0.4584
0.677495
1.4388
4.82298
7.13815
5.55026
5.16258
6.03851
7.34708
0.0940942
0.0693188
0.0698073
0.0710664
0.0736557
0.0783926
0.0873332
0.103357
0.136944
0.177387
0.209579
0.229146
0.2425
0.269432
0.302776
0.369606
0.454609
0.657526
1.34333
4.40892
7.21803
5.60109
5.11617
5.98891
7.36282
0.0940899
0.0693125
0.0698005
0.0710587
0.0736463
0.0783754
0.087314
0.103337
0.136923
0.177354
0.209585
0.229217
0.242618
0.269348
0.302547
0.371274
0.449499
0.631336
1.22405
3.81326
7.25486
5.68299
5.04439
5.90707
7.37202
0.0940941
0.0693186
0.069807
0.071066
0.073655
0.0783918
0.0873313
0.103351
0.136931
0.177374
0.20955
0.229179
0.242634
0.269101
0.302549
0.372968
0.443368
0.601849
1.09815
3.16906
7.10241
5.80864
4.96132
5.79681
7.34738
0.09409
0.0693127
0.0698007
0.0710587
0.0736458
0.0783742
0.0873103
0.103326
0.136898
0.177312
0.209555
0.22914
0.242762
0.268891
0.302818
0.374881
0.436631
0.571263
0.973742
2.53847
6.66981
5.9726
4.88857
5.64077
7.24889
0.0940925
0.0693173
0.0698056
0.0710643
0.0736528
0.0783864
0.0873281
0.103339
0.13691
0.177284
0.209556
0.228975
0.242753
0.268673
0.303267
0.376395
0.42872
0.541288
0.860613
2.00746
5.91493
6.14073
4.84086
5.43644
7.03396
0.094091
0.0693135
0.0698015
0.0710598
0.0736475
0.0783768
0.0873184
0.10334
0.136926
0.177321
0.209645
0.228911
0.242766
0.268587
0.30417
0.376586
0.420369
0.51431
0.767019
1.60915
4.79077
6.26272
4.82738
5.21501
6.69628
0.094091
0.0693141
0.0698023
0.0710609
0.0736494
0.0783798
0.0873247
0.103354
0.136955
0.17738
0.209696
0.229149
0.242618
0.268428
0.305564
0.374076
0.416307
0.498189
0.692157
1.28457
3.48219
6.25061
4.88075
4.99634
6.19237
0.0940905
0.0693127
0.0698007
0.0710588
0.0736464
0.0783744
0.087315
0.10334
0.136929
0.177349
0.20968
0.229202
0.242653
0.267928
0.30737
0.36991
0.421889
0.485536
0.629845
1.0402
2.42271
5.8696
4.99875
4.79618
5.47982
0.0940905
0.0693126
0.0698005
0.0710586
0.0736461
0.0783739
0.0873145
0.103337
0.13692
0.177351
0.209618
0.229185
0.242525
0.26953
0.303459
0.367709
0.460251
0.687547
1.48772
5.00555
7.08917
5.52642
5.18106
6.058
7.33373
0.0940909
0.0693137
0.0698017
0.0710601
0.0736482
0.0783779
0.0873211
0.103344
0.136932
0.177351
0.209608
0.229189
0.242517
0.269495
0.303167
0.368418
0.458402
0.677501
1.43883
4.82312
7.13797
5.55018
5.16257
6.03849
7.34707
0.0940909
0.0693128
0.0698008
0.0710589
0.0736461
0.0783747
0.0873145
0.103332
0.136908
0.177315
0.209562
0.229179
0.242521
0.269438
0.302815
0.369652
0.45463
0.657536
1.34335
4.40906
7.21786
5.60101
5.11615
5.9889
7.36281
0.0940919
0.0693157
0.0698038
0.071062
0.0736495
0.0783806
0.0873173
0.103323
0.136876
0.177267
0.209495
0.229169
0.242522
0.2693
0.30252
0.371259
0.449485
0.631329
1.22406
3.81334
7.25477
5.68291
5.04438
5.90706
7.37201
0.0940893
0.0693115
0.0697994
0.0710572
0.073644
0.0783714
0.0873075
0.103323
0.136894
0.177324
0.209554
0.229213
0.242696
0.269135
0.302591
0.373014
0.443389
0.601855
1.09816
3.1691
7.10237
5.80858
4.96132
5.7968
7.34738
0.0940931
0.0693155
0.0698038
0.0710627
0.0736519
0.0783855
0.0873276
0.103366
0.136979
0.177458
0.209671
0.229217
0.242786
0.26892
0.302819
0.374842
0.436615
0.571256
0.973739
2.53848
6.6698
5.97255
4.88856
5.64076
7.24889
0.0940894
0.0693115
0.0697993
0.0710572
0.073644
0.0783708
0.0873068
0.103325
0.136901
0.177317
0.209606
0.228996
0.242826
0.268715
0.303293
0.376403
0.428729
0.541292
0.86061
2.00745
5.91492
6.14069
4.84085
5.43644
7.03396
0.0940926
0.0693179
0.0698063
0.0710652
0.0736539
0.0783889
0.0873314
0.103342
0.136913
0.17727
0.209584
0.228844
0.242703
0.26853
0.304123
0.376548
0.420333
0.514282
0.766999
1.60914
4.79076
6.2627
4.82738
5.21501
6.69628
0.0940909
0.0693125
0.0698004
0.0710584
0.0736455
0.0783734
0.0873124
0.103331
0.13691
0.177295
0.209599
0.229045
0.24252
0.268351
0.305512
0.374042
0.416282
0.498164
0.692131
1.28454
3.48217
6.2506
4.88076
4.99634
6.19238
0.0940926
0.0693179
0.0698063
0.0710652
0.0736539
0.078389
0.087331
0.103343
0.136916
0.17727
0.209584
0.22909
0.242535
0.26783
0.307296
0.369849
0.42185
0.4855
0.629812
1.04017
2.42269
5.86959
4.99875
4.79619
5.47983
0.0940904
0.069312
0.0697999
0.0710578
0.0736448
0.0783722
0.0873102
0.103327
0.136899
0.177316
0.209583
0.229163
0.242482
0.26949
0.303432
0.36769
0.460233
0.687528
1.48771
5.00557
7.08906
5.52638
5.18106
6.058
7.33373
0.0940904
0.069312
0.0697999
0.0710578
0.0736448
0.0783722
0.0873102
0.103327
0.136899
0.177316
0.20958
0.229173
0.242497
0.269479
0.303157
0.36841
0.458393
0.67749
1.43883
4.82315
7.13786
5.55014
5.16257
6.03849
7.34707
0.0940904
0.069312
0.0697999
0.0710578
0.0736448
0.0783722
0.0873102
0.103327
0.136898
0.177318
0.209573
0.229197
0.242529
0.269441
0.302813
0.369643
0.45462
0.657525
1.34334
4.40908
7.21777
5.60097
5.11614
5.98889
7.36281
0.0940904
0.069312
0.0697999
0.0710578
0.0736448
0.0783722
0.0873103
0.103327
0.136897
0.177322
0.209565
0.229224
0.242583
0.269336
0.30254
0.371262
0.449486
0.631324
1.22405
3.81337
7.25468
5.68286
5.04437
5.90705
7.37201
0.0940904
0.069312
0.0697999
0.0710578
0.0736448
0.0783722
0.0873103
0.103326
0.136897
0.177325
0.20956
0.229236
0.242675
0.269126
0.302584
0.373006
0.443379
0.601844
1.09815
3.16911
7.10232
5.80851
4.9613
5.79679
7.34737
0.0940904
0.069312
0.0697999
0.0710578
0.0736448
0.0783722
0.0873103
0.103326
0.136898
0.177321
0.209576
0.229172
0.24276
0.268894
0.302818
0.374869
0.436618
0.57125
0.973732
2.5385
6.66977
5.97248
4.88855
5.64075
7.24888
0.0940904
0.069312
0.0697999
0.0710578
0.0736448
0.0783722
0.0873102
0.103327
0.1369
0.177312
0.209611
0.229025
0.242806
0.268711
0.303291
0.376399
0.428724
0.541286
0.860605
2.00746
5.91492
6.14061
4.84083
5.43643
7.03395
0.0940904
0.069312
0.0697999
0.0710578
0.0736448
0.0783723
0.0873101
0.103327
0.136901
0.177305
0.209643
0.228911
0.242764
0.268581
0.304159
0.376569
0.420352
0.514293
0.767001
1.60914
4.79079
6.26261
4.82735
5.21499
6.69627
0.0940904
0.069312
0.0697999
0.0710578
0.0736448
0.0783723
0.0873099
0.103327
0.136902
0.177309
0.209632
0.229088
0.242561
0.268383
0.30553
0.374048
0.416283
0.498164
0.692131
1.28455
3.48221
6.25052
4.88071
4.99632
6.19236
0.0940904
0.069312
0.0697999
0.0710578
0.0736448
0.0783724
0.0873097
0.103328
0.136904
0.177305
0.209645
0.229155
0.242601
0.267883
0.307333
0.369877
0.421861
0.485507
0.629815
1.04017
2.4227
5.86955
4.99869
4.79617
5.47981
0.09409
0.0693113
0.0697991
0.0710568
0.0736435
0.0783701
0.0873071
0.103324
0.136894
0.177316
0.209583
0.229165
0.242481
0.269489
0.303426
0.367686
0.460232
0.687528
1.48769
5.00549
7.08915
5.52639
5.18104
6.05799
7.33384
0.09409
0.0693113
0.0697991
0.0710568
0.0736436
0.0783702
0.0873071
0.103323
0.136894
0.177315
0.209578
0.229176
0.242493
0.269476
0.30315
0.368406
0.458391
0.677487
1.4388
4.82303
7.13797
5.55012
5.16259
6.03847
7.34719
0.0940902
0.0693114
0.0697992
0.071057
0.0736437
0.0783703
0.0873075
0.103323
0.136893
0.177314
0.209571
0.229196
0.242524
0.269435
0.302807
0.36964
0.454618
0.657522
1.34332
4.40897
7.21781
5.60096
5.11621
5.98886
7.36287
0.0940902
0.0693115
0.0697993
0.0710571
0.0736439
0.0783706
0.0873079
0.103323
0.136893
0.177317
0.209562
0.229222
0.242577
0.26933
0.302536
0.37126
0.449484
0.631322
1.22404
3.81328
7.25466
5.68288
5.04448
5.90699
7.37203
0.0940901
0.0693114
0.0697992
0.0710569
0.0736436
0.0783703
0.0873072
0.103322
0.136891
0.177321
0.209555
0.229235
0.242668
0.269123
0.302581
0.373003
0.443379
0.601846
1.09814
3.16904
7.10226
5.80852
4.96146
5.79671
7.34753
0.0940902
0.0693116
0.0697994
0.0710572
0.073644
0.0783708
0.0873079
0.103324
0.136892
0.177319
0.209573
0.22917
0.242757
0.268895
0.302818
0.374869
0.436619
0.571252
0.973729
2.53843
6.66972
5.9725
4.88865
5.64068
7.24898
0.09409
0.0693113
0.0697991
0.0710569
0.0736436
0.0783702
0.0873074
0.103324
0.136897
0.177318
0.209617
0.229036
0.242813
0.268719
0.303296
0.3764
0.428726
0.541289
0.860605
2.00742
5.91486
6.14065
4.84089
5.4364
7.03399
0.0940903
0.0693116
0.0697995
0.0710573
0.0736442
0.078371
0.0873086
0.103326
0.136901
0.177312
0.209652
0.228924
0.242778
0.268592
0.304166
0.376574
0.420358
0.514299
0.767005
1.60913
4.79071
6.26266
4.82737
5.21501
6.69627
0.0940901
0.0693117
0.0697995
0.0710573
0.0736443
0.0783714
0.0873091
0.103329
0.136906
0.177326
0.209647
0.229107
0.242581
0.268402
0.305542
0.374057
0.416294
0.498176
0.692141
1.28455
3.48214
6.25057
4.88069
4.99638
6.19236
0.0940902
0.069312
0.0697998
0.0710577
0.0736447
0.0783721
0.0873102
0.103331
0.136911
0.177318
0.20965
0.22916
0.242607
0.267891
0.307337
0.369883
0.421872
0.485518
0.629825
1.04018
2.42267
5.86956
4.99872
4.79622
5.47982
0.0940904
0.0693121
0.0697999
0.0710578
0.0736448
0.0783723
0.0873105
0.103327
0.136899
0.177316
0.209584
0.229163
0.242483
0.269491
0.303432
0.36769
0.460232
0.687526
1.4877
5.00555
7.08909
5.5264
5.18107
6.058
7.33374
0.0940904
0.0693121
0.0698
0.0710579
0.0736449
0.0783724
0.0873105
0.103327
0.136899
0.177316
0.20958
0.229173
0.242498
0.26948
0.303157
0.36841
0.458393
0.677487
1.43882
4.82312
7.13789
5.55016
5.16258
6.03849
7.34707
0.0940904
0.0693121
0.0697999
0.0710579
0.0736449
0.0783723
0.0873104
0.103327
0.136899
0.177319
0.209574
0.229197
0.24253
0.269442
0.302813
0.369643
0.45462
0.657523
1.34333
4.40905
7.21779
5.60099
5.11615
5.98889
7.36281
0.0940904
0.0693121
0.0698
0.0710579
0.073645
0.0783724
0.0873107
0.103327
0.136898
0.177322
0.209565
0.229222
0.242584
0.269337
0.302541
0.371263
0.449486
0.631323
1.22404
3.81334
7.2547
5.68288
5.04437
5.90704
7.37201
0.0940904
0.0693121
0.0697999
0.0710579
0.0736449
0.0783723
0.0873105
0.103327
0.136897
0.177325
0.20956
0.229236
0.242677
0.269128
0.302586
0.373008
0.443381
0.601845
1.09815
3.1691
7.10232
5.80852
4.96131
5.79678
7.34737
0.0940904
0.0693121
0.0698
0.0710579
0.073645
0.0783724
0.0873108
0.103327
0.136898
0.177322
0.209577
0.229171
0.242764
0.268898
0.302822
0.374874
0.436622
0.571253
0.973734
2.53849
6.66976
5.97249
4.88854
5.64074
7.24887
0.0940904
0.0693121
0.0697999
0.0710579
0.0736449
0.0783723
0.0873105
0.103327
0.136901
0.177316
0.209615
0.22903
0.242816
0.26872
0.3033
0.376407
0.428731
0.541293
0.860611
2.00746
5.91492
6.14062
4.84083
5.43642
7.03394
0.0940904
0.0693121
0.0698
0.071058
0.073645
0.0783725
0.0873107
0.103329
0.136905
0.177313
0.209652
0.228923
0.242778
0.268595
0.304171
0.376578
0.420362
0.514302
0.767009
1.60915
4.79079
6.26263
4.82734
5.21498
6.69627
0.0940904
0.0693123
0.0698002
0.0710582
0.0736454
0.0783731
0.0873118
0.103332
0.136911
0.177328
0.20965
0.22911
0.242585
0.268403
0.305546
0.374061
0.416293
0.498174
0.692141
1.28456
3.48221
6.25054
4.88071
4.99631
6.19237
0.0940905
0.0693124
0.0698003
0.0710583
0.0736456
0.0783734
0.0873124
0.103334
0.136916
0.177323
0.209659
0.22917
0.242615
0.267895
0.307342
0.369885
0.421867
0.485513
0.629821
1.04018
2.4227
5.86956
4.99871
4.79616
5.47982
0.0940904
0.069312
0.0697999
0.0710578
0.0736448
0.0783722
0.0873102
0.103327
0.136899
0.177316
0.209583
0.229163
0.242482
0.26949
0.303432
0.36769
0.460233
0.687528
1.48771
5.00557
7.08906
5.52638
5.18106
6.058
7.33373
0.0940904
0.069312
0.0697999
0.0710578
0.0736448
0.0783722
0.0873102
0.103327
0.136899
0.177316
0.20958
0.229173
0.242498
0.269479
0.303157
0.36841
0.458393
0.67749
1.43883
4.82315
7.13786
5.55014
5.16257
6.03849
7.34707
0.0940904
0.069312
0.0697999
0.0710578
0.0736448
0.0783722
0.0873102
0.103327
0.136898
0.177318
0.209573
0.229197
0.242529
0.269441
0.302813
0.369643
0.45462
0.657525
1.34334
4.40908
7.21777
5.60097
5.11614
5.98889
7.36281
0.0940904
0.069312
0.0697999
0.0710578
0.0736448
0.0783722
0.0873103
0.103327
0.136897
0.177322
0.209565
0.229224
0.242583
0.269336
0.30254
0.371262
0.449486
0.631324
1.22405
3.81337
7.25468
5.68286
5.04437
5.90705
7.37201
0.0940904
0.069312
0.0697999
0.0710578
0.0736448
0.0783722
0.0873103
0.103326
0.136897
0.177325
0.20956
0.229236
0.242675
0.269126
0.302584
0.373006
0.443379
0.601844
1.09815
3.16911
7.10232
5.80851
4.9613
5.79679
7.34737
0.0940904
0.069312
0.0697999
0.0710578
0.0736448
0.0783722
0.0873103
0.103326
0.136898
0.177321
0.209576
0.229172
0.24276
0.268894
0.302818
0.374869
0.436618
0.57125
0.973732
2.5385
6.66977
5.97248
4.88855
5.64075
7.24888
0.0940904
0.069312
0.0697999
0.0710578
0.0736448
0.0783722
0.0873102
0.103327
0.1369
0.177312
0.209611
0.229025
0.242806
0.268711
0.303291
0.376399
0.428724
0.541286
0.860605
2.00746
5.91492
6.14061
4.84083
5.43643
7.03395
0.0940904
0.069312
0.0697999
0.0710578
0.0736448
0.0783723
0.0873101
0.103327
0.136901
0.177305
0.209643
0.228911
0.242764
0.268581
0.304159
0.376569
0.420352
0.514293
0.767001
1.60914
4.79079
6.26261
4.82735
5.21499
6.69627
0.0940904
0.069312
0.0697999
0.0710578
0.0736448
0.0783723
0.0873099
0.103327
0.136902
0.177309
0.209632
0.229088
0.242561
0.268383
0.30553
0.374049
0.416283
0.498164
0.692131
1.28455
3.48221
6.25052
4.88071
4.99632
6.19236
0.0940904
0.069312
0.0697999
0.0710578
0.0736448
0.0783724
0.0873097
0.103328
0.136904
0.177305
0.209645
0.229155
0.242601
0.267883
0.307333
0.369877
0.421861
0.485507
0.629815
1.04017
2.4227
5.86955
4.99869
4.79617
5.47981
0.0940905
0.0693126
0.0698005
0.0710586
0.0736461
0.0783739
0.0873145
0.103337
0.13692
0.177351
0.209618
0.229185
0.242525
0.26953
0.303459
0.367709
0.460251
0.687547
1.48772
5.00555
7.08917
5.52642
5.18106
6.058
7.33373
0.0940909
0.0693137
0.0698017
0.0710601
0.0736482
0.0783779
0.0873211
0.103344
0.136932
0.177351
0.209608
0.229189
0.242517
0.269495
0.303167
0.368418
0.458402
0.677501
1.43883
4.82312
7.13797
5.55018
5.16257
6.03849
7.34707
0.0940909
0.0693128
0.0698008
0.0710589
0.0736461
0.0783747
0.0873145
0.103332
0.136908
0.177315
0.209562
0.229179
0.242521
0.269438
0.302815
0.369652
0.45463
0.657536
1.34335
4.40906
7.21786
5.60101
5.11615
5.9889
7.36281
0.0940919
0.0693157
0.0698038
0.071062
0.0736495
0.0783806
0.0873173
0.103323
0.136876
0.177267
0.209495
0.229169
0.242522
0.2693
0.30252
0.371259
0.449485
0.631329
1.22406
3.81334
7.25477
5.68291
5.04438
5.90706
7.37201
0.0940893
0.0693115
0.0697994
0.0710572
0.073644
0.0783714
0.0873075
0.103323
0.136894
0.177324
0.209554
0.229213
0.242696
0.269135
0.302591
0.373014
0.443389
0.601855
1.09816
3.1691
7.10237
5.80858
4.96132
5.7968
7.34738
0.0940931
0.0693155
0.0698038
0.0710627
0.0736519
0.0783855
0.0873276
0.103366
0.136979
0.177458
0.209671
0.229217
0.242786
0.26892
0.302819
0.374842
0.436615
0.571256
0.973739
2.53848
6.6698
5.97255
4.88856
5.64076
7.24889
0.0940894
0.0693115
0.0697993
0.0710572
0.073644
0.0783708
0.0873068
0.103325
0.136901
0.177317
0.209606
0.228996
0.242826
0.268715
0.303293
0.376403
0.428729
0.541292
0.86061
2.00745
5.91492
6.14069
4.84085
5.43644
7.03396
0.0940926
0.0693179
0.0698063
0.0710652
0.0736539
0.0783889
0.0873314
0.103342
0.136913
0.17727
0.209584
0.228844
0.242703
0.26853
0.304123
0.376548
0.420333
0.514282
0.766999
1.60914
4.79076
6.2627
4.82738
5.21501
6.69628
0.0940909
0.0693125
0.0698004
0.0710584
0.0736455
0.0783734
0.0873124
0.103331
0.13691
0.177295
0.209599
0.229045
0.24252
0.268351
0.305512
0.374042
0.416282
0.498164
0.692131
1.28454
3.48217
6.2506
4.88076
4.99634
6.19238
0.0940926
0.0693179
0.0698063
0.0710652
0.0736539
0.078389
0.087331
0.103343
0.136916
0.17727
0.209584
0.22909
0.242535
0.26783
0.307296
0.369849
0.42185
0.4855
0.629812
1.04017
2.42269
5.86959
4.99875
4.79619
5.47983
0.0940931
0.0693187
0.0698071
0.0710662
0.0736552
0.0783905
0.0873357
0.103349
0.136927
0.177289
0.209517
0.229087
0.242406
0.269429
0.303389
0.367668
0.460216
0.687518
1.48767
5.00541
7.08935
5.5265
5.18108
6.05802
7.33375
0.0940906
0.0693145
0.0698027
0.0710612
0.0736495
0.0783805
0.0873224
0.103346
0.136941
0.177348
0.209589
0.229154
0.24251
0.269485
0.303158
0.368417
0.4584
0.677495
1.4388
4.82298
7.13815
5.55026
5.16258
6.03851
7.34708
0.0940942
0.0693188
0.0698073
0.0710664
0.0736557
0.0783926
0.0873332
0.103357
0.136944
0.177387
0.209579
0.229146
0.2425
0.269432
0.302776
0.369606
0.454609
0.657526
1.34333
4.40892
7.21803
5.60109
5.11617
5.98891
7.36282
0.0940899
0.0693125
0.0698005
0.0710587
0.0736463
0.0783754
0.087314
0.103337
0.136923
0.177354
0.209585
0.229217
0.242619
0.269348
0.302547
0.371274
0.449498
0.631336
1.22405
3.81326
7.25486
5.68299
5.04439
5.90707
7.37202
0.0940941
0.0693186
0.069807
0.071066
0.073655
0.0783918
0.0873313
0.103351
0.136931
0.177374
0.20955
0.229179
0.242634
0.269101
0.302549
0.372968
0.443368
0.601849
1.09815
3.16906
7.10241
5.80864
4.96132
5.79681
7.34738
0.09409
0.0693128
0.0698007
0.0710587
0.0736458
0.0783742
0.0873103
0.103326
0.136898
0.177312
0.209555
0.22914
0.242762
0.268891
0.302818
0.374881
0.436631
0.571263
0.973742
2.53847
6.66981
5.9726
4.88857
5.64077
7.24889
0.0940925
0.0693173
0.0698056
0.0710643
0.0736528
0.0783864
0.0873281
0.103339
0.13691
0.177284
0.209556
0.228975
0.242753
0.268673
0.303267
0.376395
0.42872
0.541288
0.860613
2.00746
5.91492
6.14073
4.84086
5.43644
7.03396
0.094091
0.0693135
0.0698015
0.0710598
0.0736475
0.0783768
0.0873184
0.10334
0.136926
0.177321
0.209645
0.228911
0.242767
0.268587
0.30417
0.376585
0.420369
0.51431
0.767019
1.60915
4.79077
6.26272
4.82738
5.21501
6.69628
0.094091
0.0693141
0.0698023
0.0710609
0.0736494
0.0783798
0.0873247
0.103354
0.136955
0.177379
0.209696
0.229149
0.242618
0.268428
0.305564
0.374076
0.416307
0.498189
0.692157
1.28457
3.48219
6.25061
4.88075
4.99634
6.19237
0.0940905
0.0693127
0.0698007
0.0710588
0.0736464
0.0783744
0.0873149
0.10334
0.136929
0.177349
0.20968
0.229202
0.242653
0.267927
0.30737
0.369909
0.421889
0.485535
0.629845
1.0402
2.42271
5.8696
4.99875
4.79618
5.47982
0.094091
0.0693142
0.0698023
0.0710609
0.0736494
0.0783798
0.0873256
0.103353
0.136949
0.177374
0.209629
0.229181
0.242534
0.269542
0.303472
0.367731
0.460258
0.687502
1.48739
5.00427
7.08987
5.52682
5.1813
6.05794
7.33415
0.0940915
0.0693156
0.0698037
0.0710621
0.07365
0.078381
0.087321
0.103335
0.136907
0.177313
0.209559
0.22915
0.242502
0.269506
0.303178
0.368441
0.458412
0.677457
1.4385
4.8217
7.13884
5.55054
5.16282
6.03832
7.34758
0.0940897
0.0693136
0.0698017
0.0710604
0.0736489
0.078379
0.0873227
0.103352
0.136952
0.177388
0.209627
0.229217
0.242589
0.26949
0.302843
0.369672
0.454638
0.657499
1.34309
4.40771
7.21863
5.60146
5.1163
5.98862
7.36331
0.0940933
0.069317
0.0698054
0.0710646
0.0736545
0.0783911
0.0873385
0.103382
0.137011
0.177493
0.209678
0.22928
0.242621
0.269376
0.302544
0.371243
0.449484
0.631299
1.22384
3.81211
7.2552
5.68342
5.04453
5.90685
7.37245
0.0940915
0.0693164
0.0698046
0.0710631
0.0736511
0.0783834
0.0873211
0.103328
0.136887
0.177273
0.209474
0.229125
0.24264
0.269096
0.302565
0.373014
0.443382
0.601825
1.09801
3.16827
7.10229
5.8091
4.96153
5.79662
7.34779
0.0940925
0.0693199
0.0698084
0.0710672
0.073656
0.0783925
0.0873305
0.103331
0.136885
0.177243
0.209448
0.229046
0.242668
0.26882
0.302766
0.374857
0.436603
0.571226
0.973623
2.53784
6.66941
5.97309
4.88879
5.64061
7.24924
0.0940934
0.0693169
0.0698053
0.0710644
0.0736538
0.0783891
0.0873316
0.103367
0.13698
0.177416
0.209647
0.228978
0.242782
0.26869
0.30326
0.376368
0.428709
0.541273
0.860533
2.00705
5.9142
6.14116
4.84108
5.43626
7.03428
0.094095
0.0693222
0.0698111
0.0710713
0.0736628
0.0784053
0.0873555
0.103391
0.137015
0.177414
0.209667
0.228863
0.24271
0.26853
0.304093
0.376516
0.420318
0.514275
0.76696
1.6089
4.78986
6.26306
4.8276
5.21492
6.69653
0.094091
0.0693163
0.0698045
0.0710628
0.0736505
0.0783826
0.0873164
0.103323
0.136887
0.177251
0.209518
0.228987
0.242479
0.268307
0.305486
0.374031
0.416292
0.498168
0.692108
1.28439
3.48135
6.25079
4.88105
4.99637
6.19251
0.094096
0.069324
0.0698128
0.0710725
0.073663
0.0784059
0.0873488
0.103366
0.13695
0.177324
0.209559
0.229023
0.242473
0.267805
0.307224
0.369815
0.421856
0.485503
0.629798
1.04008
2.42222
5.86926
4.999
4.79633
5.47996
0.0940921
0.0693207
0.0698095
0.0710693
0.0736602
0.0783989
0.0873482
0.103378
0.136995
0.177349
0.209678
0.229022
0.242997
0.267074
0.308839
0.367424
0.425952
0.473745
0.580441
0.862448
1.75508
4.59965
4.94328
4.50518
3.92345
0.0940958
0.069323
0.069812
0.0710723
0.073664
0.0784061
0.0873583
0.103402
0.137043
0.177419
0.209792
0.228846
0.243404
0.266665
0.308198
0.37011
0.42348
0.464328
0.549567
0.749601
1.31995
3.09322
4.77675
4.33064
3.53805
0.0940933
0.0693221
0.069811
0.071071
0.0736622
0.0784023
0.0873545
0.103385
0.137011
0.177321
0.209739
0.228769
0.243449
0.266794
0.306997
0.373263
0.418191
0.471158
0.528259
0.658588
1.01384
2.0898
4.33732
4.15808
3.5421
0.0940938
0.0693242
0.0698131
0.0710732
0.0736643
0.0784062
0.087355
0.103373
0.136974
0.177252
0.209654
0.228712
0.243326
0.26685
0.306948
0.372156
0.420714
0.468615
0.517153
0.603227
0.805125
1.38178
3.13824
3.76269
3.502
0.0940963
0.0693243
0.0698133
0.0710738
0.0736657
0.0784103
0.0873615
0.103401
0.137039
0.177394
0.209772
0.228766
0.243383
0.266888
0.307049
0.3719
0.421184
0.466929
0.52134
0.572839
0.687046
0.967667
1.70708
3.16269
3.2789
0.0940949
0.0693239
0.069813
0.0710736
0.0736659
0.0784101
0.0873604
0.103404
0.137048
0.177419
0.209789
0.228791
0.243393
0.26691
0.307004
0.371982
0.420937
0.467809
0.518034
0.576645
0.636747
0.772368
1.10624
1.92313
2.89101
0.0940957
0.0693247
0.0698137
0.0710737
0.0736648
0.0784084
0.0873494
0.103372
0.136975
0.177312
0.209676
0.228703
0.243328
0.266869
0.307002
0.371919
0.421031
0.467542
0.518806
0.573324
0.633556
0.698232
0.842728
1.1907
1.99583
0.0940961
0.069326
0.069815
0.0710754
0.073667
0.0784125
0.0873559
0.103381
0.13699
0.177322
0.209682
0.228701
0.24332
0.266863
0.306986
0.371934
0.420985
0.467597
0.518619
0.573665
0.630702
0.689967
0.753434
0.887485
1.18761
0.0940955
0.0693248
0.0698139
0.0710745
0.0736669
0.0784125
0.087363
0.103403
0.137044
0.177387
0.209749
0.228747
0.243351
0.266878
0.306992
0.371932
0.420998
0.46757
0.518646
0.573574
0.630584
0.687519
0.744526
0.806849
0.906985
0.0940975
0.0693276
0.0698168
0.0710775
0.0736698
0.0784173
0.087366
0.103394
0.137014
0.177333
0.209695
0.228702
0.243317
0.266866
0.30699
0.371928
0.421
0.467572
0.518645
0.573577
0.630495
0.687309
0.742633
0.795315
0.849971
0.0940939
0.0693253
0.0698143
0.0710747
0.0736663
0.0784092
0.0873577
0.103376
0.13698
0.177265
0.209654
0.228717
0.243338
0.266854
0.307026
0.371949
0.421007
0.467575
0.518646
0.573583
0.630465
0.6873
0.742269
0.793703
0.841082
0.0940965
0.0693257
0.0698149
0.071076
0.0736692
0.078415
0.0873725
0.103424
0.137088
0.177448
0.209819
0.228805
0.243401
0.266921
0.307021
0.371947
0.42101
0.467578
0.51865
0.573586
0.630464
0.687295
0.742207
0.793457
0.839745
0.0940963
0.0693255
0.0698147
0.0710756
0.0736685
0.0784142
0.0873703
0.10342
0.137079
0.177437
0.20981
0.2288
0.243399
0.266922
0.307023
0.371951
0.421015
0.467582
0.518652
0.573588
0.630464
0.687295
0.742193
0.79342
0.839528
0.0940938
0.0693249
0.0698139
0.0710741
0.0736655
0.0784079
0.0873548
0.103372
0.136974
0.177262
0.209658
0.228725
0.243351
0.266874
0.307047
0.371969
0.421024
0.467589
0.518657
0.573591
0.630466
0.687296
0.742192
0.793414
0.839493
0.094097
0.069326
0.069815
0.0710753
0.0736667
0.0784119
0.0873575
0.103384
0.136994
0.177334
0.209708
0.228731
0.243355
0.266906
0.307027
0.371961
0.421027
0.467592
0.51866
0.573593
0.630468
0.687297
0.742193
0.793413
0.839487
0.094095
0.0693242
0.0698133
0.071074
0.0736666
0.0784111
0.0873627
0.103411
0.137064
0.177445
0.20982
0.228828
0.243429
0.266944
0.307038
0.371964
0.421025
0.467589
0.518657
0.573591
0.630466
0.687296
0.742192
0.793412
0.839485
0.0940951
0.0693245
0.0698136
0.0710744
0.0736671
0.078412
0.0873642
0.103411
0.137064
0.177435
0.209804
0.228808
0.243408
0.266925
0.307023
0.371952
0.421016
0.467582
0.518652
0.573587
0.630463
0.687293
0.74219
0.79341
0.839484
0.0940974
0.0693276
0.0698168
0.0710776
0.0736701
0.0784174
0.0873675
0.103399
0.137027
0.177351
0.209716
0.22872
0.243332
0.266878
0.307
0.371937
0.421009
0.467579
0.51865
0.573585
0.630461
0.687292
0.742189
0.79341
0.839484
0.0940944
0.0693254
0.0698144
0.0710746
0.0736657
0.0784091
0.0873561
0.103369
0.136963
0.177226
0.209612
0.228672
0.243302
0.266829
0.307015
0.371947
0.421008
0.467577
0.518648
0.573584
0.63046
0.687292
0.742188
0.79341
0.839484
0.0940979
0.0693292
0.0698186
0.0710798
0.0736732
0.0784232
0.0873767
0.103411
0.137045
0.17736
0.209718
0.228714
0.243322
0.266866
0.306988
0.371927
0.421003
0.467575
0.518647
0.573584
0.630461
0.687293
0.742189
0.793411
0.839484
0.0940949
0.0693232
0.0698122
0.0710725
0.0736643
0.0784068
0.0873553
0.103399
0.137043
0.177414
0.209782
0.228793
0.243403
0.266926
0.307032
0.371963
0.421024
0.467589
0.518657
0.573591
0.630467
0.687297
0.742193
0.793413
0.839486
0.0940966
0.0693283
0.0698177
0.0710788
0.0736722
0.0784211
0.0873723
0.10341
0.137046
0.177399
0.209758
0.228772
0.243378
0.266904
0.307008
0.371939
0.421013
0.467582
0.518654
0.573589
0.630466
0.687297
0.742193
0.793413
0.839487
0.0940949
0.0693233
0.0698122
0.0710725
0.0736644
0.0784068
0.0873555
0.1034
0.137045
0.177417
0.209785
0.228795
0.243404
0.266926
0.307031
0.371963
0.421024
0.467589
0.518658
0.573592
0.630468
0.687298
0.742194
0.793414
0.839487
0.094098
0.0693295
0.069819
0.0710804
0.0736741
0.0784246
0.0873795
0.103416
0.137055
0.177372
0.209729
0.228725
0.243333
0.266875
0.306994
0.37193
0.421006
0.467577
0.51865
0.573587
0.630464
0.687295
0.742192
0.793413
0.839486
0.0940944
0.0693255
0.0698145
0.0710746
0.0736657
0.0784089
0.0873562
0.103368
0.136961
0.177224
0.209606
0.228669
0.243298
0.266823
0.307009
0.371943
0.421005
0.467576
0.518648
0.573584
0.630461
0.687293
0.74219
0.793411
0.839485
0.094098
0.0693296
0.0698191
0.0710804
0.0736741
0.0784248
0.0873797
0.103415
0.137053
0.177368
0.209724
0.228717
0.243325
0.266867
0.306989
0.371926
0.421001
0.467573
0.518647
0.573584
0.630461
0.687293
0.74219
0.793411
0.839485
0.0940949
0.0693232
0.0698121
0.0710724
0.0736642
0.0784065
0.0873546
0.103398
0.137043
0.177408
0.209775
0.228783
0.243391
0.266914
0.307021
0.371953
0.421017
0.467582
0.518652
0.573587
0.630463
0.687294
0.742191
0.793411
0.839485
0.0940966
0.0693282
0.0698175
0.0710786
0.0736717
0.0784203
0.0873704
0.103404
0.137034
0.17738
0.209736
0.228749
0.243359
0.266889
0.307
0.371933
0.421007
0.467576
0.518648
0.573584
0.630461
0.687292
0.742189
0.79341
0.839484
0.0940948
0.0693229
0.0698118
0.0710721
0.0736637
0.0784062
0.0873539
0.103394
0.137032
0.177398
0.209769
0.228782
0.243392
0.266918
0.307026
0.371958
0.421018
0.467583
0.518651
0.573586
0.630462
0.687292
0.742189
0.79341
0.839484
0.0940974
0.0693275
0.0698167
0.0710775
0.0736698
0.0784174
0.0873659
0.103395
0.137017
0.177343
0.209709
0.228716
0.24333
0.266878
0.306999
0.371935
0.421006
0.467576
0.518646
0.573582
0.630458
0.68729
0.742187
0.793408
0.839482
0.0940937
0.0693246
0.0698135
0.0710736