/*--------------------------------*- C++ -*----------------------------------*\
| =========                 |                                                 |
| \\      /  F ield         | OpenFOAM: The Open Source CFD Toolbox           |
|  \\    /   O peration     | Version:  4.1                                   |
|   \\  /    A nd           | Web:      www.OpenFOAM.org                      |
|    \\/     M anipulation  |                                                 |
\*---------------------------------------------------------------------------*/
FoamFile
{
    version     2.0;
    format      ascii;
    class       surfaceScalarField;
    location    "0.2";
    object      phi;
}
// * * * * * * * * * * * * * * * * * * * * * * * * * * * * * * * * * * * * * //

dimensions      [1 0 -1 0 0 0 0];

internalField   nonuniform List<scalar> 
150500
(
0.0020281
-7.86196e-10
-1.25849e-11
0.00205197
-3.9732e-09
-2.58937e-11
0.00207576
-7.50415e-09
-2.76024e-11
0.00209756
-1.21104e-08
-3.08709e-11
0.00211083
-1.8979e-08
-3.62932e-11
0.00214417
-3.29487e-08
-6.75515e-11
0.0021824
-5.85129e-08
-7.87624e-11
0.00221648
-1.03333e-07
-2.16358e-11
0.00243807
-1.72545e-07
3.41029e-11
0.00268723
-2.02483e-07
4.2111e-10
0.00295997
-2.06014e-07
6.12882e-10
0.00318841
-2.00193e-07
5.66298e-10
0.00343711
-1.91633e-07
7.68851e-10
0.00370511
7.06581e-08
7.03796e-10
0.00391106
4.70092e-07
5.12697e-10
0.00413594
-1.41866e-06
3.71721e-10
0.00418759
4.06403e-06
2.78639e-10
0.00384016
2.8249e-05
3.67292e-11
0.00127724
0.000161162
-1.03734e-09
-0.00860273
0.00123896
-4.41522e-09
-0.00410047
0.00181767
2.40521e-09
-6.30213e-05
0.00109138
1.27874e-09
0.000472187
0.000896914
2.3087e-10
-0.00109816
0.000986493
-5.559e-10
0.00135912
1.99271e-09
0.0020281
-1.90598e-09
5.19012e-13
0.00205197
-6.46439e-09
-2.60541e-12
0.00207577
-1.41216e-08
-2.72162e-12
0.00209758
-2.49459e-08
-2.47152e-12
0.00211087
-4.02514e-08
-1.97897e-12
0.00214423
-6.59579e-08
-5.88721e-12
0.00218249
-1.05661e-07
8.62028e-12
0.00221655
-1.62848e-07
2.66746e-11
0.00243811
-2.17906e-07
3.96661e-11
0.00268715
-2.15316e-07
1.58456e-10
0.0029599
-1.73782e-07
2.25195e-10
0.00318815
-1.61301e-07
2.5419e-10
0.003437
-2.07813e-07
2.49145e-10
0.00370372
2.78756e-07
2.71317e-10
0.00391444
7.75115e-07
2.16985e-10
0.00413092
-2.60037e-06
1.74966e-10
0.00419816
8.12926e-06
1.1261e-10
0.00388051
5.3955e-05
-9.47377e-11
0.00155669
0.000294358
-1.13955e-09
-0.00809473
0.00224619
-4.92087e-09
-0.00410027
0.00369949
2.7057e-09
-4.97767e-05
0.00224743
1.25237e-09
0.000502254
0.00180526
3.84118e-10
-0.00103184
0.0019714
-6.0686e-10
0.00273806
1.95521e-09
0.0020281
-1.64849e-09
-1.4035e-11
0.00205198
-9.58404e-09
-1.84183e-11
0.00207579
-2.11832e-08
-1.96132e-11
0.00209761
-3.74435e-08
-2.15955e-11
0.00211089
-5.9815e-08
-2.53137e-11
0.00214425
-9.49584e-08
-4.88627e-11
0.00218251
-1.33754e-07
-2.91146e-11
0.0022165
-1.65026e-07
-2.0529e-11
0.00243798
-1.68849e-07
1.40674e-11
0.00268686
-1.22352e-07
-8.07191e-11
0.00295968
-4.42516e-08
1.39522e-10
0.0031877
-2.88019e-08
3.1942e-10
0.00343712
-1.57637e-07
2.90361e-10
0.00370187
5.91496e-07
2.09344e-10
0.00391072
6.78486e-07
2.97962e-10
0.00412049
-3.40248e-06
2.99404e-10
0.00422229
1.12573e-05
1.44106e-10
0.00396547
7.13218e-05
-8.96892e-11
0.00206842
0.000372826
-9.77963e-10
-0.00684824
0.00280701
-4.98619e-09
-0.00412978
0.00572064
2.4286e-09
-3.77361e-05
0.0035442
1.62641e-09
0.000556533
0.00273781
4.32871e-10
-0.0008762
0.00293692
-8.60036e-10
0.00415984
1.7548e-09
0.00202811
-2.25334e-09
1.09583e-11
0.00205199
-7.19973e-09
1.87541e-11
0.00207578
-1.54364e-08
1.97588e-11
0.00209758
-2.96065e-08
2.15586e-11
0.00211079
-5.33292e-08
2.42825e-11
0.00214417
-8.69957e-08
3.84683e-11
0.00218253
-1.26697e-07
5.00422e-11
0.0022165
-1.59873e-07
1.81152e-12
0.00243794
-1.86433e-07
-7.09146e-11
0.00268668
-1.45661e-07
-2.49881e-10
0.00295958
-7.18105e-09
-3.18932e-10
0.00318762
6.07301e-08
-2.36578e-10
0.00343811
-1.1916e-07
-2.77414e-10
0.00370039
8.39494e-07
-1.15417e-10
0.00390205
9.9369e-09
-4.34558e-11
0.00410632
-3.44498e-06
1.19993e-11
0.00425479
1.37549e-05
-3.73036e-11
0.00406788
8.02187e-05
-1.76594e-10
0.00263428
0.000398211
-8.95342e-10
-0.00470114
0.00284314
-4.86495e-09
-0.00423862
0.00774492
1.25853e-09
-3.60674e-05
0.00503687
1.83613e-09
0.000631618
0.00372584
7.94496e-10
-0.000620794
0.00384607
-1.15359e-09
0.00564987
1.82152e-09
0.00202815
-1.90207e-08
-1.60617e-11
0.00205206
-2.47858e-08
-8.09874e-12
0.00207586
-3.98869e-08
-8.45694e-12
0.0020977
-6.58695e-08
-9.5328e-12
0.00211093
-1.09129e-07
-1.1206e-11
0.00214435
-1.71536e-07
-2.42752e-11
0.00218297
-2.41662e-07
-2.05987e-11
0.00221711
-2.91413e-07
-4.52492e-11
0.00243865
-3.35724e-07
-6.4357e-11
0.00268734
-2.13719e-07
-2.54027e-10
0.00296032
6.14247e-08
-1.43279e-10
0.00318859
3.13039e-07
7.57615e-13
0.00343824
2.98247e-07
7.78528e-11
0.0037006
1.00916e-06
1.33944e-12
0.00389301
-8.48604e-07
6.19864e-11
0.00409026
-2.49438e-06
1.34908e-10
0.00429304
1.58357e-05
9.1208e-12
0.00416656
8.15786e-05
-1.50599e-10
0.00311401
0.000383954
-7.10793e-10
-0.00255474
0.00251818
-3.6982e-09
-0.00427154
0.00917734
-6.43094e-10
-4.3075e-05
0.00678711
2.00046e-09
0.000726887
0.00479941
1.08963e-09
-0.000402803
0.00470047
-1.12402e-09
0.00717654
2.07131e-09
0.00202806
-2.43237e-09
1.66359e-11
0.00205189
-9.79705e-09
2.38408e-11
0.00207569
-2.19049e-08
2.64246e-11
0.00209748
-3.89107e-08
3.30634e-11
0.00211064
-6.2088e-08
4.64285e-11
0.00214383
-9.65838e-08
8.70031e-11
0.00218213
-1.36409e-07
1.36835e-10
0.0022157
-1.68306e-07
2.45491e-10
0.00243629
-1.57004e-07
4.65605e-10
0.00268374
-7.00757e-08
6.85223e-10
0.00295538
-4.80747e-08
4.47611e-10
0.00318373
8.88926e-08
1.44152e-10
0.00343233
4.81713e-07
5.23365e-11
0.00369741
4.313e-07
3.15072e-11
0.00388976
-2.45927e-06
-7.05942e-11
0.00407411
-3.48651e-07
-1.81008e-10
0.00432387
1.64939e-05
-1.14046e-10
0.00424415
7.43863e-05
-1.75166e-10
0.00357055
0.000340064
-5.77527e-10
-0.000689147
0.00201403
-2.97629e-09
-0.00402912
0.00982621
-2.02345e-09
-5.6516e-05
0.00884851
2.09368e-09
0.000847484
0.00601986
1.06221e-09
-0.000107495
0.00558345
-8.68407e-10
0.00874948
1.81488e-09
0.00202807
8.63549e-09
7.6541e-12
0.00205192
2.29812e-09
9.63798e-12
0.0020757
-1.98343e-09
1.0734e-11
0.00209747
-5.73615e-09
1.31555e-11
0.00211057
-7.57861e-09
1.84408e-11
0.00214376
-1.48386e-08
3.77905e-11
0.00218218
-2.95104e-08
3.65767e-11
0.0022157
-5.05282e-08
9.31004e-11
0.00243613
-5.57228e-08
1.99627e-10
0.00268363
-5.11811e-08
3.7074e-10
0.00295477
-1.81918e-07
1.3944e-10
0.00318474
-3.71784e-07
-1.53056e-10
0.00343149
4.33242e-07
-2.13751e-11
0.00369926
-2.23601e-07
-1.50383e-11
0.00390158
-3.76523e-06
-9.41331e-11
0.00406303
3.19609e-06
-1.49117e-10
0.00433017
1.23764e-05
-8.66027e-11
0.00431098
5.64221e-05
-1.02748e-10
0.0039757
0.000280537
-3.94396e-10
0.00148191
0.0015587
-1.94098e-09
-0.00344506
0.00935218
-3.47031e-09
-3.50249e-05
0.0112047
1.89489e-09
0.00105812
0.00741678
1.06056e-09
0.000290114
0.00657124
-9.08627e-10
0.0104609
1.47744e-09
0.00202817
-1.22811e-08
5.76613e-12
0.0020521
-1.22134e-08
3.18322e-11
0.0020759
-1.79575e-08
3.41474e-11
0.00209774
-2.76647e-08
3.75539e-11
0.0021109
-4.51945e-08
4.3448e-11
0.00214436
-6.91755e-08
7.98722e-11
0.00218315
-1.01918e-07
6.00869e-11
0.00221722
-1.46031e-07
-3.70248e-11
0.00243861
-2.3492e-07
-1.84245e-10
0.00268756
-2.94375e-07
-4.85392e-10
0.00295947
-2.76751e-07
-7.13843e-10
0.00319177
-7.72803e-07
-6.15461e-10
0.00343541
6.18014e-07
-5.00413e-10
0.00370627
1.78126e-07
-4.3312e-10
0.00392867
-3.62037e-06
-2.96406e-10
0.00405306
6.66908e-06
-1.38566e-10
0.00432842
1.26027e-06
-1.39392e-10
0.00443831
3.62155e-05
-1.26596e-10
0.00438711
0.000227233
-2.56794e-10
0.00298192
0.00118602
-1.17551e-09
-0.00207624
0.00747929
-4.31464e-09
7.95378e-05
0.013688
1.46264e-09
0.00149864
0.00905744
9.80609e-10
0.000726012
0.00781793
-4.16281e-10
0.0124877
1.13672e-09
0.00202807
9.29802e-10
1.78956e-11
0.00205192
1.35597e-09
2.8999e-11
0.00207571
4.34491e-09
3.10261e-11
0.00209749
9.20175e-09
3.46462e-11
0.00211058
1.5245e-08
4.10849e-11
0.00214379
2.20293e-08
8.02499e-11
0.00218222
2.03055e-08
6.64943e-11
0.00221576
-1.07925e-08
4.9496e-11
0.00243611
-1.3764e-07
3.55905e-11
0.00268361
-2.80431e-07
-3.76996e-11
0.00295491
-5.04995e-07
-3.556e-10
0.00318656
-9.25558e-07
-5.52338e-10
0.00342779
-3.96739e-07
-4.63983e-10
0.00370747
7.03051e-07
-3.19475e-10
0.00393558
-4.35491e-06
-3.5918e-10
0.00404238
6.83254e-06
-1.81194e-10
0.0044066
-7.68947e-06
-1.88174e-11
0.0046602
2.78571e-05
-4.28753e-11
0.00472511
0.000177763
-1.72975e-10
0.00399126
0.000850923
-7.89086e-10
-0.000144071
0.00491665
-3.8882e-09
0.000431246
0.016035
6.90695e-10
0.0021595
0.0116998
1.2266e-09
0.00134886
0.00949567
1.61992e-10
0.0149364
6.37515e-10
0.00202808
1.92131e-11
1.09908e-08
0.00205193
3.90278e-11
1.25339e-08
0.00207573
4.25494e-11
1.96727e-08
0.00209752
5.00807e-11
3.25998e-08
0.00211064
6.47274e-11
5.33057e-08
0.00214389
1.226e-10
8.18934e-08
0.00218243
1.50477e-10
9.56598e-08
0.00221611
1.97533e-10
6.43718e-08
0.00243654
3.3345e-10
-4.32791e-08
0.00268403
2.91685e-10
-1.78445e-07
0.00295558
-2.54861e-11
-5.66593e-07
0.00318768
-3.2029e-10
-5.57282e-07
0.00342553
-3.25787e-10
-1.50038e-06
0.00371356
-2.15214e-10
1.61782e-06
0.00392168
-3.59881e-10
-3.93852e-06
0.00405665
-1.54144e-10
2.42855e-06
0.00437194
-1.04243e-11
-2.93353e-06
0.00473336
-3.16862e-11
2.20874e-05
0.00490164
-1.13223e-10
0.00012706
0.00463605
-4.72392e-10
0.000584734
0.0028045
-2.14396e-09
0.0030414
0.00189335
-1.63616e-09
0.0145599
0.0029658
1.03355e-09
0.0144506
0.00226251
6.39472e-10
0.0118176
6.26971e-10
0.0184034
0.00202811
-1.0569e-09
1.32477e-11
0.002052
1.20819e-09
3.05969e-11
0.0020758
2.66652e-09
3.28947e-11
0.00209762
8.73926e-10
3.76702e-11
0.00211086
-3.65213e-09
4.60518e-11
0.00214427
-5.10764e-09
8.26674e-11
0.00218263
7.40847e-09
1.06812e-10
0.00221658
5.50684e-08
6.6704e-11
0.00243796
1.13092e-07
2.51727e-11
0.00268671
1.95845e-07
-2.64527e-10
0.00295935
3.45806e-07
-4.56258e-10
0.00318746
4.0887e-07
-4.5996e-10
0.00343515
2.38838e-07
-5.26451e-10
0.00370445
4.03005e-07
-4.4107e-10
0.00391076
7.00769e-07
-3.04801e-10
0.00413577
-1.25913e-06
-1.76553e-10
0.00418741
4.14602e-06
-1.51609e-10
0.00383986
2.8319e-05
-1.43631e-10
0.00127568
0.000161248
-2.05531e-10
-0.00860378
0.00123901
-6.53421e-10
-0.00409966
0.00181785
6.56678e-10
-6.25482e-05
0.00109148
3.2507e-10
0.00047179
0.000897245
5.27871e-11
-0.00109884
0.000986007
8.21473e-11
0.00135908
8.00295e-11
0.00202812
-8.72247e-09
-1.43493e-12
0.00205201
-9.97883e-09
4.30982e-12
0.00207582
-1.41196e-08
4.76596e-12
0.00209765
-2.33726e-08
5.06901e-12
0.00211091
-3.99481e-08
5.2221e-12
0.00214429
-6.27865e-08
9.26936e-12
0.00218269
-6.82611e-08
5.42191e-12
0.00221673
-2.6901e-08
9.15046e-12
0.00243825
5.27746e-08
3.34387e-11
0.00268718
1.91354e-07
-1.14856e-11
0.00295995
4.53266e-07
-7.8557e-11
0.00318827
5.51815e-07
-1.49456e-10
0.00343714
3.71436e-07
-2.95683e-11
0.00370369
7.90149e-07
-4.28907e-11
0.00391441
1.19922e-06
-3.96623e-11
0.00413089
-2.28036e-06
-1.83404e-12
0.00419798
8.36449e-06
-8.73328e-12
0.00388015
5.41595e-05
-2.71154e-11
0.00155509
0.000294675
-1.46563e-10
-0.00809683
0.00224758
-6.31898e-10
-0.00409963
0.00369901
6.66643e-10
-4.95518e-05
0.00224749
3.39195e-10
0.000501571
0.00180601
4.8956e-11
-0.00103226
0.00197012
8.38229e-11
0.00273787
6.89208e-11
0.00202807
3.21051e-09
1.77454e-11
0.0020519
7.05824e-09
3.08208e-11
0.00207567
1.12834e-08
3.34464e-11
0.00209743
1.68988e-08
3.88413e-11
0.00211052
2.49908e-08
4.96766e-11
0.00214369
4.09492e-08
9.14967e-11
0.00218205
6.2844e-08
9.81329e-11
0.00221562
9.6882e-08
1.33609e-10
0.00243608
1.65645e-07
1.99462e-10
0.0026835
2.11278e-07
3.75057e-10
0.00295524
2.07605e-07
6.92044e-11
0.00318298
1.61488e-07
-1.54646e-10
0.00343289
-2.00192e-08
-9.1818e-11
0.00369902
6.44701e-07
-2.44265e-11
0.0039089
7.39863e-07
-1.8425e-10
0.00411972
-3.32154e-06
-1.98769e-10
0.00422199
1.13447e-05
-9.12575e-11
0.00396509
7.14483e-05
-5.39678e-11
0.0020671
0.000373101
-1.10388e-10
-0.00685082
0.00280821
-6.5368e-10
-0.00412879
0.00572048
6.67554e-10
-3.70419e-05
0.00354429
3.18516e-10
0.000556848
0.00273814
6.15667e-11
-0.000876381
0.00293633
7.25358e-11
0.00415937
6.30575e-11
0.00202811
-2.33042e-09
-8.88742e-12
0.002052
-3.85324e-09
-1.33619e-11
0.0020758
-5.63553e-09
-1.37459e-11
0.00209763
-8.14498e-09
-1.39238e-11
0.00211089
-1.13767e-08
-1.32398e-11
0.00214425
-1.83499e-08
-2.16842e-11
0.00218257
-2.05194e-08
-1.37672e-11
0.00221654
-1.41354e-08
7.46551e-11
0.00243804
1.04762e-08
2.39858e-10
0.00268695
2.89715e-08
4.19941e-10
0.00295992
1.07125e-07
4.12075e-10
0.00318805
1.28581e-07
2.05226e-10
0.0034384
-2.71059e-08
4.7489e-10
0.00370039
9.52407e-07
2.32102e-10
0.0039017
5.84655e-08
1.36607e-10
0.00410614
-3.32255e-06
8.4275e-11
0.0042545
1.38974e-05
7.22791e-11
0.00406747
8.04018e-05
3.11434e-11
0.00263319
0.000398551
-3.16824e-11
-0.00470437
0.00284477
-3.64446e-10
-0.00423756
0.00774488
4.2959e-10
-3.54295e-05
0.00503663
3.42285e-10
0.000632042
0.00372567
4.476e-11
-0.00062061
0.00384632
5.56732e-11
0.00564884
4.64402e-11
0.00202807
9.91965e-09
2.47081e-11
0.0020519
1.42234e-08
3.687e-11
0.00207567
2.15694e-08
3.97517e-11
0.00209743
3.4902e-08
4.59643e-11
0.00211051
5.75422e-08
5.77253e-11
0.00214367
9.26304e-08
1.06122e-10
0.00218202
1.21711e-07
1.23533e-10
0.00221553
1.2343e-07
1.44929e-10
0.00243597
1.08998e-07
1.96166e-10
0.0026833
2.58528e-08
2.39901e-10
0.00295523
-2.20248e-07
-3.52157e-11
0.00318299
-2.79851e-07
-2.00484e-10
0.00343315
-2.61847e-07
-3.24193e-10
0.00369713
4.08241e-07
-1.8495e-10
0.00389066
-1.37629e-06
-2.27826e-10
0.00408912
-2.80861e-06
-2.31047e-10
0.00429253
1.57081e-05
-1.07526e-10
0.00416599
8.15804e-05
-3.34018e-11
0.00311312
0.000384157
-2.80867e-11
-0.00255723
0.00251947
-1.98063e-10
-0.00427083
0.00917851
1.79049e-10
-4.24871e-05
0.00678666
2.92902e-10
0.000727236
0.00479889
3.6903e-11
-0.000402585
0.004701
3.39993e-11
0.0071753
2.82945e-11
0.00202812
2.68725e-09
-1.3186e-11
0.002052
4.55267e-09
-1.14906e-11
0.0020758
9.86245e-09
-1.28983e-11
0.00209761
2.00768e-08
-1.68461e-11
0.00211084
3.75248e-08
-2.5203e-11
0.00214419
5.83216e-08
-4.70868e-11
0.00218251
7.58422e-08
-7.26924e-11
0.00221645
7.10159e-08
-1.68403e-10
0.00243788
2.84676e-08
-3.38764e-10
0.00268683
-5.98361e-08
-6.21799e-10
0.00295972
-2.97174e-07
-5.28772e-10
0.00318865
-3.01245e-07
-3.86705e-10
0.00343695
1.47753e-08
-1.09329e-10
0.00370068
3.41826e-08
-1.4307e-10
0.00389204
-2.68137e-06
-4.89425e-12
0.004075
-4.45535e-07
1.79807e-10
0.00432388
1.6493e-05
7.16891e-11
0.00424404
7.44752e-05
3.4289e-11
0.00356989
0.000340282
1.3006e-11
-0.000691292
0.00201507
-4.55327e-11
-0.00402876
0.00982757
9.48483e-12
-5.59014e-05
0.00884811
2.15949e-10
0.000847969
0.00601905
2.02042e-11
-0.000107392
0.00558464
1.3018e-11
0.00874823
2.51988e-12
0.00202811
5.91345e-10
1.74419e-11
0.002052
6.32976e-09
3.13176e-11
0.00207579
1.34271e-08
3.36142e-11
0.00209759
2.33799e-08
3.86555e-11
0.00211082
3.70435e-08
4.74611e-11
0.00214421
6.00504e-08
8.37515e-11
0.00218257
8.43222e-08
1.13124e-10
0.00221653
9.68311e-08
7.74276e-11
0.00243789
7.19476e-08
3.81491e-11
0.00268687
3.07968e-09
-1.43805e-10
0.00295917
-1.64064e-07
-2.61654e-10
0.00318931
-2.77269e-07
-8.22804e-11
0.00343555
4.14817e-07
-3.94479e-10
0.0037021
-1.16911e-07
-2.30393e-10
0.00390364
-3.62392e-06
-1.32906e-10
0.00406371
3.36295e-06
-4.7376e-11
0.00433012
1.25398e-05
-4.82658e-11
0.00431074
5.65686e-05
-1.36304e-11
0.00397509
0.000280753
1.32614e-11
0.00147977
0.00155945
4.6749e-11
-0.00344527
0.00935452
3.64461e-11
-3.46453e-05
0.0112041
1.56924e-10
0.00105816
0.007416
1.42017e-11
0.000289969
0.00657224
-5.75393e-12
0.0104595
-1.8679e-11
0.0020281
1.67831e-09
-6.90705e-12
0.00205197
5.07705e-09
-1.86151e-11
0.00207577
1.1493e-08
-1.99883e-11
0.00209757
2.05386e-08
-2.24824e-11
0.00211083
3.29005e-08
-2.68195e-11
0.00214417
5.25361e-08
-5.04243e-11
0.00218234
7.89536e-08
-5.42763e-11
0.00221627
1.06552e-07
-9.75167e-12
0.00243758
1.13379e-07
5.35502e-11
0.00268683
7.50632e-08
2.18657e-10
0.00295871
-6.14866e-09
2.61175e-10
0.00319062
-6.66776e-07
2.90776e-10
0.00343409
6.93121e-07
2.75577e-10
0.00370508
2.01301e-07
2.4717e-10
0.00392727
-3.63915e-06
2.01952e-10
0.00405222
6.70028e-06
1.80329e-10
0.00432766
1.35844e-06
1.69834e-10
0.00443744
3.63159e-05
1.38979e-10
0.00438616
0.000227381
8.83284e-11
0.00298048
0.00118652
7.01373e-11
-0.00207757
0.00748195
6.34196e-11
7.96116e-05
0.0136875
9.17741e-11
0.00149822
0.0090568
1.08517e-11
0.000725567
0.0078183
-1.82906e-11
0.0124868
-3.36186e-11
0.0020281
5.83912e-10
4.19352e-13
0.00205197
1.99594e-09
5.97986e-12
0.00207577
3.29027e-09
7.2876e-12
0.00209759
5.07021e-09
8.40658e-12
0.00211087
7.72898e-09
1.34415e-11
0.00214424
1.33195e-08
2.18594e-11
0.0021825
2.2936e-08
6.38277e-11
0.00221659
3.68594e-08
1.28082e-10
0.00243804
5.46339e-08
2.46113e-10
0.00268725
6.9441e-08
4.48259e-10
0.0029597
-2.6842e-08
4.73598e-10
0.00319153
-3.28094e-07
4.77333e-10
0.00343207
1.68986e-07
4.65313e-10
0.00371035
1.19899e-06
3.71893e-10
0.00393683
-3.97956e-06
2.24911e-10
0.00404277
7.14563e-06
1.69018e-10
0.00440662
-7.43555e-06
1.37503e-10
0.00465988
2.80443e-05
1.35162e-10
0.0047246
0.000177974
1.25318e-10
0.00399025
0.000851352
1.20792e-10
-0.00014572
0.00491871
1.04394e-10
0.000431013
0.0160356
6.49001e-11
0.00215908
0.0116985
-1.07647e-11
0.00134843
0.00949541
-2.71353e-11
0.014936
-3.98639e-11
0.0020281
-8.96702e-12
-4.04561e-10
0.00205197
-2.18901e-11
-1.13644e-09
0.00207576
-2.34751e-11
-1.75626e-09
0.00209756
-2.64281e-11
-2.65258e-09
0.00211082
-3.13777e-11
-3.95614e-09
0.00214415
-6.07528e-11
-6.87045e-09
0.00218236
-6.73367e-11
-1.0998e-08
0.0022164
-1.12969e-11
-1.66669e-08
0.00243774
5.71116e-11
-1.92766e-08
0.00268693
4.30167e-10
2.51453e-08
0.00295966
4.96537e-10
-1.08794e-07
0.0031921
5.51314e-10
1.48722e-07
0.00342939
5.90247e-10
-7.2186e-07
0.00371621
4.93518e-10
2.33553e-06
0.0039227
3.39451e-10
-3.27177e-06
0.00405686
3.12338e-10
2.90393e-06
0.00437185
2.06184e-10
-2.55285e-06
0.00473299
1.89566e-10
2.23287e-05
0.00490119
1.702e-10
0.000127275
0.0046352
1.3624e-10
0.000585062
0.00280298
1.20935e-10
0.00304261
0.00189309
3.7518e-11
0.0145653
0.0029654
-8.74646e-12
0.0144492
0.00226201
-2.49e-11
0.0118172
-3.59165e-11
0.0184033
0.0020281
-7.18001e-10
5.50534e-13
0.00205197
-2.42005e-09
2.23354e-12
0.00207576
-4.24507e-09
2.55657e-12
0.00209756
-6.71364e-09
3.44971e-12
0.00211082
-1.03805e-08
5.4068e-12
0.00214414
-1.80301e-08
7.22478e-12
0.00218235
-3.02878e-08
1.7979e-11
0.00221634
-4.82795e-08
4.57499e-11
0.00243779
-6.74999e-08
1.15153e-10
0.00268685
-5.41073e-08
1.59162e-10
0.0029596
-3.09226e-08
1.49389e-10
0.00318788
-2.30061e-08
9.73508e-11
0.00343606
-3.96599e-08
1.83649e-10
0.00370463
1.89716e-07
1.72274e-10
0.00391071
5.54447e-07
1.19103e-10
0.00413567
-1.35728e-06
8.37153e-11
0.00418723
4.1139e-06
8.43987e-11
0.00383961
2.82983e-05
9.27072e-11
0.0012752
0.000161221
5.59935e-11
-0.00860426
0.00123898
-1.1228e-10
-0.00409968
0.00181779
6.48354e-10
-6.2667e-05
0.00109145
1.70241e-10
0.000471703
0.000897243
3.39398e-11
-0.00109892
0.000986004
2.80939e-11
0.00135907
-7.97112e-12
0.0020281
-1.24592e-09
2.67036e-12
0.00205197
-3.52767e-09
8.63998e-12
0.00207577
-8.32264e-09
9.69326e-12
0.00209758
-1.52609e-08
1.24443e-11
0.00211085
-2.46052e-08
1.80322e-11
0.0021442
-3.84916e-08
3.09409e-11
0.00218242
-5.45919e-08
5.82979e-11
0.0022164
-6.51264e-08
9.43388e-11
0.00243784
-4.41542e-08
1.82717e-10
0.00268683
9.1779e-09
1.89586e-10
0.00295961
9.14114e-08
1.44697e-10
0.00318768
1.09684e-07
6.99864e-11
0.00343598
1.72117e-08
1.10548e-10
0.00370328
4.53255e-07
8.28453e-11
0.0039141
9.06599e-07
5.74728e-11
0.00413065
-2.50551e-06
4.44479e-11
0.0041978
8.20771e-06
5.00721e-11
0.00387996
5.40502e-05
6.33502e-11
0.00155469
0.000294597
4.32891e-11
-0.00809734
0.00224761
-2.11483e-10
-0.00409962
0.00369884
6.49416e-10
-4.96739e-05
0.00224744
1.5401e-10
0.000501484
0.00180602
4.06688e-11
-0.00103233
0.00197011
2.84528e-11
0.00273787
-7.9258e-12
0.0020281
5.01661e-10
2.05699e-12
0.00205197
-2.58649e-09
3.35864e-12
0.00207576
-7.05562e-09
3.63534e-12
0.00209756
-1.33218e-08
4.33452e-12
0.00211081
-2.16987e-08
5.55209e-12
0.00214413
-3.5137e-08
1.02248e-11
0.00218228
-4.41945e-08
1.68591e-11
0.00221615
-3.39828e-08
1.9435e-11
0.00243751
7.01334e-09
3.34685e-11
0.00268643
8.61278e-08
-1.42466e-11
0.00295931
1.79144e-07
-5.97439e-11
0.0031873
1.57862e-07
-6.83665e-11
0.00343661
-3.45726e-08
-4.15374e-11
0.0037015
7.0645e-07
-1.28486e-11
0.00391047
7.61789e-07
9.40693e-12
0.00412012
-3.3245e-06
4.13553e-11
0.0042218
1.13248e-05
4.53378e-11
0.00396486
7.14079e-05
5.8457e-11
0.00206673
0.000373054
5.84457e-11
-0.00685161
0.00280831
-1.36774e-10
-0.00412887
0.00572022
5.04984e-10
-3.71648e-05
0.00354411
1.75164e-10
0.000556755
0.00273813
4.38443e-11
-0.000876456
0.00293631
3.4511e-11
0.00415936
-3.68957e-12
0.00202811
-1.87071e-09
7.2911e-12
0.00205199
-1.58211e-09
1.84671e-11
0.00207577
-2.24583e-09
1.96118e-11
0.00209757
-5.08203e-09
2.14176e-11
0.00211077
-1.22202e-08
2.41278e-11
0.00214413
-1.91451e-08
4.3254e-11
0.00218244
-2.28974e-08
3.68242e-11
0.00221635
-1.51495e-08
-1.64714e-11
0.00243768
-6.08977e-09
-8.97771e-11
0.00268649
1.804e-08
-2.53687e-10
0.0029595
1.22087e-07
-3.41197e-10
0.00318738
1.71816e-07
-2.80623e-10
0.00343781
-5.42462e-08
-2.8326e-10
0.00370022
8.23944e-07
-1.70904e-10
0.003902
3.40003e-08
-9.37849e-11
0.00410619
-3.42584e-06
-1.35233e-11
0.00425455
1.37814e-05
-2.49193e-12
0.00406746
8.02805e-05
2.72084e-11
0.00263306
0.00039843
5.22475e-11
-0.00470472
0.00284475
-1.72879e-10
-0.00423752
0.00774475
3.81784e-10
-3.55113e-05
0.00503648
2.87198e-10
0.000631968
0.00372565
5.16529e-11
-0.000620656
0.00384629
4.49891e-11
0.00564882
3.1143e-12
0.00202812
-9.55788e-09
-4.49819e-12
0.002052
-1.0819e-08
-2.17868e-12
0.00207579
-1.4289e-08
-2.23638e-12
0.0020976
-2.19933e-08
-2.65477e-12
0.00211084
-3.69908e-08
-3.20874e-12
0.00214417
-5.78182e-08
-3.53922e-12
0.00218248
-7.60602e-08
-1.17537e-11
0.00221645
-8.88884e-08
-1.34193e-11
0.00243793
-1.26556e-07
-1.20654e-11
0.00268686
-1.13165e-07
-3.40959e-12
0.00295995
-1.89628e-08
-2.95964e-11
0.00318827
9.43853e-08
-9.60293e-11
0.00343787
9.37475e-08
8.82566e-11
0.00370019
7.98867e-07
3.83178e-11
0.00389243
-9.71895e-07
2.87728e-11
0.00408975
-2.58248e-06
3.66853e-11
0.00429244
1.58175e-05
4.86441e-11
0.0041659
8.16181e-05
5.68563e-11
0.00311301
0.000384146
5.7537e-11
-0.00255751
0.0025195
-6.62408e-11
-0.0042709
0.00917847
2.24109e-10
-4.25565e-05
0.00678645
3.75896e-10
0.000727178
0.00479885
5.94458e-11
-0.000402618
0.00470097
5.36001e-11
0.00717529
1.38379e-11
0.00202804
8.81739e-09
1.39279e-11
0.00205186
8.11098e-09
1.76972e-11
0.00207563
8.98627e-09
1.97474e-11
0.00209739
1.35934e-08
2.48792e-11
0.00211053
2.42079e-08
3.57727e-11
0.00214365
3.68141e-08
6.61594e-11
0.00218184
3.66371e-08
8.6565e-11
0.00221536
5.60935e-09
1.94287e-10
0.00243585
-2.47306e-08
4.06708e-10
0.00268341
-5.93901e-08
6.74212e-10
0.00295519
-2.45287e-07
4.6129e-10
0.0031834
-2.1676e-07
2.03075e-10
0.00343205
1.85286e-08
1.40365e-10
0.00369731
5.80107e-08
1.2766e-10
0.00388975
-2.77735e-06
-2.40136e-12
0.00407399
-4.18469e-07
-1.23907e-10
0.00432365
1.64254e-05
-9.66906e-12
0.0042438
7.43955e-05
2.95698e-11
0.00356975
0.000340211
4.48477e-11
-0.000691422
0.00201503
-9.12842e-11
-0.00402874
0.00982754
1.63968e-10
-5.59325e-05
0.00884796
4.35932e-10
0.000847936
0.00601901
8.15731e-11
-0.000107413
0.00558461
5.12405e-11
0.00874822
3.16561e-11
0.00202812
1.41799e-09
-4.3209e-12
0.002052
-1.07876e-09
-2.17542e-12
0.00207579
-1.98132e-09
-2.27429e-12
0.00209759
-7.42813e-10
-2.7729e-12
0.00211083
3.93135e-09
-3.50885e-12
0.00214416
4.36217e-09
-5.82329e-12
0.00218247
-5.93044e-09
-1.41002e-11
0.00221646
-5.26699e-08
-9.18182e-12
0.00243789
-1.12271e-07
4.80097e-12
0.00268708
-1.40459e-07
2.16779e-11
0.00295941
-3.38941e-07
-2.27637e-11
0.00318991
-4.48958e-07
-1.59803e-10
0.00343607
4.11035e-07
8.3699e-11
0.00370229
-2.04235e-07
1.94907e-11
0.00390333
-3.65706e-06
7.1098e-12
0.00406361
3.31858e-06
1.89287e-11
0.00433004
1.25038e-05
2.39292e-11
0.00431063
5.65676e-05
3.16205e-11
0.00397496
0.000280743
3.08445e-11
0.00147964
0.00155942
-5.6198e-11
-0.00344531
0.0093545
-1.35509e-11
-3.46668e-05
0.011204
4.89751e-10
0.00105815
0.00741595
1.01597e-10
0.000289959
0.00657222
9.59488e-11
0.0104595
4.51008e-11
0.00202811
-1.20011e-09
1.17223e-11
0.002052
-7.37036e-10
2.99798e-11
0.0020758
-1.78071e-09
3.23953e-11
0.00209761
-2.86792e-09
3.74002e-11
0.00211085
-3.93709e-09
4.64783e-11
0.00214426
-4.54977e-09
8.443e-11
0.00218262
-8.29471e-09
1.09029e-10
0.00221656
-1.64965e-08
7.76215e-11
0.00243781
-3.12346e-08
6.41352e-11
0.00268694
-6.60379e-08
-1.6958e-10
0.00295874
-1.27755e-07
-3.014e-10
0.0031906
-7.03808e-07
-3.45829e-10
0.00343413
7.46714e-07
-3.13858e-10
0.00370515
2.71721e-07
-2.58457e-10
0.00392754
-3.58839e-06
-1.76452e-10
0.0040523
6.73802e-06
-9.81197e-11
0.00432772
1.39861e-06
-8.50837e-11
0.00443754
3.63276e-05
-4.76227e-11
0.00438625
0.000227389
-7.05933e-12
0.00298051
0.00118652
-1.08203e-11
-0.00207754
0.00748193
-1.48574e-10
7.961e-05
0.0136875
4.77554e-10
0.00149822
0.00905678
1.73661e-10
0.000725567
0.00781829
9.4148e-11
0.0124868
6.90966e-11
0.00202809
1.20061e-09
2.69019e-12
0.00205196
7.3335e-10
1.84097e-12
0.00207575
1.7748e-09
1.62769e-12
0.00209755
2.85741e-09
2.00956e-12
0.00211079
3.92796e-09
2.63821e-12
0.0021441
4.52977e-09
4.43702e-12
0.00218223
8.4025e-09
9.49047e-12
0.00221611
1.45552e-08
1.32997e-11
0.00243732
2.44456e-08
3.27562e-11
0.00268638
7.70165e-08
-6.09997e-11
0.00295876
-7.51774e-09
-1.40632e-10
0.00319056
-2.82942e-07
-1.86393e-10
0.00343123
2.18254e-07
-1.76469e-10
0.00370975
1.25726e-06
-1.44798e-10
0.00393639
-3.90253e-06
-7.63616e-11
0.00404243
7.18532e-06
-2.91714e-11
0.00440638
-7.42727e-06
-4.03968e-12
0.0046597
2.80555e-05
-1.14195e-12
0.00472446
0.00017798
2.31279e-12
0.00399015
0.000851345
-1.50931e-11
-0.000145782
0.0049187
-1.82502e-10
0.000430999
0.0160357
4.21067e-10
0.00215908
0.0116985
2.91494e-10
0.00134843
0.00949541
9.92291e-11
0.014936
8.07079e-11
0.00202811
1.15296e-11
-1.41636e-09
0.002052
2.94365e-11
1.07717e-09
0.0020758
3.18115e-11
1.97742e-09
0.00209761
3.67436e-11
7.32363e-10
0.00211085
4.56629e-11
-3.96376e-09
0.00214426
8.27702e-11
-4.34946e-09
0.00218262
1.06768e-10
5.89554e-09
0.00221659
7.62552e-11
4.981e-08
0.00243779
6.41828e-11
1.01562e-07
0.00268677
-1.51524e-10
1.71533e-07
0.00295938
-2.89128e-10
1.51931e-07
0.00319164
-3.01591e-10
4.00766e-07
0.00342901
-3.01006e-10
-4.89271e-07
0.003716
-2.42485e-10
2.52273e-06
0.00392264
-1.59473e-10
-3.09865e-06
0.00405683
-1.21451e-10
3.01964e-06
0.00437178
-4.75855e-11
-2.4739e-06
0.00473294
-3.16502e-11
2.23616e-05
0.00490115
-1.19464e-11
0.000127288
0.00463518
-1.21399e-12
0.00058507
0.00280296
-5.90371e-11
0.00304261
0.0018931
1.89875e-10
0.0145654
0.00296541
2.78761e-10
0.0144492
0.00226202
1.05674e-10
0.0118172
8.68901e-11
0.0184033
0.0020281
-2.08962e-11
1.7562e-12
0.00205196
-2.6086e-11
3.74043e-12
0.00207575
-3.94017e-11
4.11182e-12
0.00209754
-6.47196e-11
5.16961e-12
0.00211079
-1.37106e-10
6.73294e-12
0.00214411
-1.38914e-10
1.08831e-11
0.00218227
-2.45741e-10
1.67194e-11
0.00221618
-4.7123e-10
1.48771e-11
0.00243752
-3.83062e-10
1.64999e-11
0.00268655
-1.73548e-09
-7.05298e-13
0.00295933
3.42862e-09
3.37273e-12
0.00318748
-1.22508e-08
-1.00552e-11
0.00343525
-8.61765e-08
6.87788e-12
0.00370433
1.28162e-07
5.71648e-12
0.00391052
5.01652e-07
1.96953e-11
0.0041355
-1.39912e-06
1.52188e-11
0.00418708
4.07755e-06
3.02013e-12
0.00383946
2.82662e-05
-1.68143e-12
0.00127491
0.000161193
6.00004e-11
-0.00860455
0.00123896
4.62576e-10
-0.00409971
0.00181778
-4.42546e-10
-6.2742e-05
0.00109146
-2.1208e-11
0.000471663
0.000897247
1.32889e-10
-0.00109894
0.000986006
2.4963e-11
0.00135907
-6.16133e-10
0.0020281
-6.19523e-12
2.02691e-12
0.00205196
-9.28904e-12
3.73975e-12
0.00207575
-1.54553e-11
4.0773e-12
0.00209754
-2.51439e-11
5.07113e-12
0.00211079
-4.87978e-11
6.39645e-12
0.00214411
-8.39959e-11
9.92425e-12
0.00218227
-1.24771e-10
1.11066e-11
0.00221617
-1.53687e-10
1.32344e-11
0.00243752
5.41947e-10
2.058e-11
0.00268654
-4.55425e-09
4.63796e-12
0.00295936
9.80982e-09
8.1293e-12
0.00318744
-2.86392e-08
-1.40703e-11
0.00343568
-1.64276e-07
1.35616e-11
0.00370313
2.89494e-07
1.49349e-11
0.003914
7.70968e-07
3.71994e-11
0.00413053
-2.58401e-06
1.77868e-11
0.00419768
8.15696e-06
9.04279e-12
0.00387981
5.40119e-05
1.14054e-11
0.00155442
0.000294575
1.20609e-10
-0.0080977
0.00224769
6.59382e-10
-0.00409965
0.00369875
-5.15494e-10
-4.97492e-05
0.00224744
1.1524e-10
0.000501444
0.00180603
-1.45104e-10
-0.00103235
0.00197012
1.21415e-10
0.00273787
-7.20951e-10
0.0020281
-3.90345e-12
8.33999e-13
0.00205196
-4.05845e-12
3.33513e-12
0.00207575
-5.49271e-12
3.64871e-12
0.00209754
-7.59258e-12
4.33916e-12
0.00211079
-8.52207e-12
5.73527e-12
0.00214411
-2.34853e-11
1.02425e-11
0.00218227
-4.11613e-11
1.47081e-11
0.00221617
4.24928e-11
1.81639e-11
0.00243753
1.2722e-09
2.70704e-11
0.00268651
-6.33783e-09
1.98967e-11
0.00295942
1.29819e-08
1.07629e-11
0.00318738
-3.26438e-08
6.40356e-12
0.00343649
-2.28586e-07
2.14271e-11
0.00370149
5.27938e-07
2.9033e-11
0.00391039
6.51013e-07
2.93122e-11
0.00412005
-3.38897e-06
9.72474e-12
0.00422172
1.12881e-05
8.65455e-12
0.00396475
7.13898e-05
1.27277e-11
0.00206655
0.000373051
7.8669e-11
-0.00685192
0.00280836
6.26286e-10
-0.00412888
0.00572019
-2.14704e-10
-3.72288e-05
0.00354413
4.79685e-11
0.000556714
0.00273815
-3.68197e-10
-0.00087648
0.00293632
2.04755e-10
0.00415937
-3.58546e-10
0.0020281
1.05339e-11
5.98772e-13
0.00205196
1.92495e-11
2.21312e-12
0.00207575
3.03736e-11
2.4183e-12
0.00209754
4.454e-11
2.86375e-12
0.00211079
6.23013e-11
3.07998e-12
0.00214411
8.46125e-11
5.57437e-12
0.00218227
1.00641e-10
1.12323e-11
0.00221617
1.19356e-10
1.27359e-11
0.00243755
1.17442e-09
1.96603e-11
0.00268648