/*--------------------------------*- C++ -*----------------------------------*\
| =========                 |                                                 |
| \\      /  F ield         | OpenFOAM: The Open Source CFD Toolbox           |
|  \\    /   O peration     | Version:  4.1                                   |
|   \\  /    A nd           | Web:      www.OpenFOAM.org                      |
|    \\/     M anipulation  |                                                 |
\*---------------------------------------------------------------------------*/
FoamFile
{
    version     2.0;
    format      ascii;
    class       volVectorField;
    location    "0.2";
    object      U;
}
// * * * * * * * * * * * * * * * * * * * * * * * * * * * * * * * * * * * * * //

dimensions      [0 1 -1 0 0 0 0];

internalField   nonuniform List<vector> 
52500
(
(1.80231 -4.7726e-07 -0.00226369)
(1.82283 -2.30363e-06 -0.00207438)
(1.81637 -4.47423e-06 -0.0020936)
(1.80523 -7.2527e-06 -0.00211915)
(1.78639 -1.12827e-05 -0.00218342)
(1.75366 -1.86175e-05 -0.00228769)
(1.69612 -3.08685e-05 -0.00245945)
(1.59898 -5.09153e-05 -0.00278954)
(1.48054 -7.39307e-05 -0.00323025)
(1.38258 -7.68698e-05 -0.0034938)
(1.30867 -6.94525e-05 -0.00351632)
(1.2463 -5.93093e-05 -0.00338127)
(1.19603 -4.88406e-05 -0.0032476)
(1.17795 -2.93137e-06 -0.00331624)
(1.19664 5.79444e-05 -0.0036123)
(1.24627 -0.000198502 -0.00435233)
(1.28386 0.000521695 -0.00519234)
(1.2037 0.00291269 -0.00643612)
(0.663948 0.0108862 -0.0099145)
(-0.302137 0.0379556 -0.0155458)
(-0.486489 0.0421538 -0.0154234)
(-0.238683 0.032129 -0.0145848)
(0.228382 0.0265137 -0.0144518)
(-0.126904 0.0274718 -0.0159144)
(0.0393504 0.0299145 -0.0150255)
(1.80231 -1.78713e-07 -0.00226367)
(1.82283 -2.22852e-06 -0.00207432)
(1.81637 -4.73398e-06 -0.00209353)
(1.80523 -7.90137e-06 -0.00211907)
(1.78637 -1.25142e-05 -0.00218333)
(1.75364 -2.20535e-05 -0.00228754)
(1.69609 -3.88013e-05 -0.00245925)
(1.59895 -6.77999e-05 -0.00278942)
(1.48052 -9.82985e-05 -0.00323029)
(1.38259 -9.80505e-05 -0.00349432)
(1.30869 -8.66818e-05 -0.00351695)
(1.24632 -7.97218e-05 -0.00338177)
(1.19608 -7.77815e-05 -0.00324826)
(1.17804 3.75406e-05 -0.00331677)
(1.19647 0.000170424 -0.00361059)
(1.2467 -0.000555054 -0.00435611)
(1.28659 0.00158646 -0.00518395)
(1.21306 0.0087063 -0.00637561)
(0.696819 0.0325051 -0.00971393)
(-0.27089 0.112855 -0.0152664)
(-0.478692 0.123654 -0.0153719)
(-0.240513 0.091501 -0.0145004)
(0.231202 0.0763538 -0.0143563)
(-0.123886 0.0788408 -0.0158258)
(0.0416234 0.0853074 -0.0149581)
(1.80231 -2.47172e-06 -0.00226372)
(1.82283 -8.69031e-06 -0.00207438)
(1.81637 -1.78741e-05 -0.00209359)
(1.80523 -3.06988e-05 -0.00211913)
(1.78637 -4.83639e-05 -0.00218341)
(1.75364 -7.51508e-05 -0.00228772)
(1.69609 -0.00010707 -0.00245939)
(1.59895 -0.0001359 -0.00278949)
(1.48054 -0.000127535 -0.00323037)
(1.38261 -7.83091e-05 -0.00349487)
(1.30871 -2.62677e-05 -0.00351711)
(1.24632 -9.77606e-06 -0.00338188)
(1.19614 -3.86831e-05 -0.00324815)
(1.17816 0.000137231 -0.00331684)
(1.19614 0.00022574 -0.00360857)
(1.24759 -0.000814952 -0.00436136)
(1.29204 0.00255084 -0.0051654)
(1.23174 0.0135798 -0.00625757)
(0.767174 0.0503157 -0.00933063)
(-0.2008 0.179815 -0.0147346)
(-0.46263 0.213649 -0.0153712)
(-0.246123 0.158491 -0.0143983)
(0.236125 0.131351 -0.0142262)
(-0.117723 0.133536 -0.0157284)
(0.0471584 0.145009 -0.0148959)
(1.8023 1.59052e-06 -0.00226369)
(1.82282 -2.20264e-06 -0.00207427)
(1.81635 -8.66147e-06 -0.00209352)
(1.80519 -1.81347e-05 -0.00211906)
(1.78633 -3.15773e-05 -0.00218334)
(1.75359 -5.14314e-05 -0.00228757)
(1.69606 -7.5236e-05 -0.00245902)
(1.599 -9.85929e-05 -0.00278883)
(1.48072 -0.000100085 -0.00322985)
(1.38286 -7.27941e-05 -0.00349449)
(1.30894 -3.23248e-05 -0.00351727)
(1.24647 -2.47646e-05 -0.00338235)
(1.19633 -8.2904e-05 -0.00324842)
(1.17832 0.000175561 -0.00331668)
(1.19572 0.000100053 -0.00360765)
(1.24885 -0.000958204 -0.00437014)
(1.29937 0.00328835 -0.00513689)
(1.256 0.0167203 -0.00610557)
(0.862528 0.0609823 -0.00884768)
(-0.0879617 0.220931 -0.0139547)
(-0.433543 0.305198 -0.0154059)
(-0.257529 0.231287 -0.014278)
(0.24298 0.189303 -0.014046)
(-0.109166 0.187376 -0.0156215)
(0.0560254 0.205808 -0.0148331)
(1.80231 -5.70262e-06 -0.00226372)
(1.82283 -1.06608e-05 -0.0020743)
(1.81636 -1.71531e-05 -0.00209354)
(1.80521 -2.91664e-05 -0.00211908)
(1.78635 -5.06836e-05 -0.00218335)
(1.75363 -7.9841e-05 -0.00228775)
(1.69613 -0.000105738 -0.00245901)
(1.59912 -0.000115642 -0.00278849)
(1.4809 -0.000122315 -0.00322946)
(1.38309 -7.38228e-05 -0.0034944)
(1.30917 2.59989e-05 -0.00351684)
(1.24664 8.30676e-05 -0.00338169)
(1.19659 2.42423e-05 -0.00324785)
(1.17847 0.000272591 -0.00331559)
(1.19533 -8.75543e-05 -0.00360707)
(1.25048 -0.000846691 -0.004383)
(1.30787 0.0039419 -0.00509512)
(1.28279 0.0183451 -0.00593933)
(0.968002 0.0655337 -0.00832464)
(0.0668337 0.234891 -0.0130412)
(-0.38269 0.393321 -0.0153698)
(-0.274084 0.311544 -0.0141756)
(0.24984 0.2521 -0.013821)
(-0.0968729 0.239896 -0.0154963)
(0.0690851 0.269398 -0.0147564)
(1.80229 -1.08288e-05 -0.0022637)
(1.8228 -2.13292e-05 -0.00207438)
(1.81634 -3.59101e-05 -0.0020936)
(1.80518 -5.93502e-05 -0.00211917)
(1.78631 -9.62366e-05 -0.00218351)
(1.75352 -0.000146344 -0.00228792)
(1.69587 -0.000191869 -0.00245953)
(1.59856 -0.000205572 -0.00278953)
(1.47993 -0.000170763 -0.00323133)
(1.38184 -5.40521e-05 -0.00349675)
(1.30781 6.83947e-05 -0.00352008)
(1.24532 0.00017694 -0.0033842)
(1.19562 0.000204268 -0.00325135)
(1.1776 0.000284575 -0.00331738)
(1.19449 -0.000397774 -0.00360889)
(1.25212 -0.000405254 -0.00440184)
(1.31656 0.00443108 -0.00503981)
(1.30942 0.0183428 -0.00577811)
(1.0729 0.0646116 -0.00777625)
(0.263312 0.225553 -0.01202)
(-0.299968 0.47027 -0.0151545)
(-0.290422 0.400429 -0.0140943)
(0.252327 0.323218 -0.0135532)
(-0.0784685 0.295652 -0.015335)
(0.0879709 0.339238 -0.0146216)
(1.80229 7.65887e-06 -0.00226374)
(1.8228 6.57928e-06 -0.00207441)
(1.81632 3.39628e-06 -0.00209368)
(1.80516 1.52709e-06 -0.00211926)
(1.78628 3.43135e-06 -0.00218365)
(1.7535 1.90516e-06 -0.00228819)
(1.69589 -1.09907e-05 -0.00245965)
(1.59867 -4.4449e-05 -0.00278929)
(1.48017 -4.93883e-05 -0.00323121)
(1.38213 -4.64798e-05 -0.00349666)
(1.30809 -0.00012968 -0.00351998)
(1.24559 -0.000137764 -0.00338312)
(1.1958 5.85475e-05 -0.00325158)
(1.17733 -5.45807e-05 -0.00331644)
(1.19448 -0.00094168 -0.00361008)
(1.25434 0.000330862 -0.0044162)
(1.3247 0.00400571 -0.00496732)
(1.33391 0.0158899 -0.00564184)
(1.16818 0.0587971 -0.00723908)
(0.490216 0.205459 -0.0108603)
(-0.17331 0.522368 -0.0146497)
(-0.295461 0.495512 -0.0140085)
(0.247481 0.404663 -0.0132975)
(-0.0480013 0.359431 -0.0150584)
(0.111077 0.4187 -0.0144424)
(1.8023 -1.01195e-06 -0.00226372)
(1.82281 -3.19857e-06 -0.00207419)
(1.81633 -6.01395e-06 -0.00209346)
(1.80517 -9.64233e-06 -0.002119)
(1.7863 -1.44608e-05 -0.0021833)
(1.75357 -2.19789e-05 -0.00228765)
(1.69609 -3.13301e-05 -0.00245865)
(1.59918 -4.23153e-05 -0.00278777)
(1.48116 -5.11319e-05 -0.00322892)
(1.38343 -4.88002e-05 -0.00349408)
(1.30951 -7.03687e-05 -0.00351714)
(1.24708 -0.000193341 -0.00337932)
(1.19693 0.000179546 -0.00324973)
(1.17759 -4.35032e-05 -0.00331382)
(1.19542 -0.00101718 -0.00361274)
(1.25653 0.00137584 -0.00441737)
(1.33066 0.00172685 -0.00490048)
(1.35555 0.0114572 -0.00553797)
(1.25276 0.0506392 -0.00674135)
(0.742204 0.180675 -0.00973022)
(-0.00720675 0.53427 -0.0138055)
(-0.270816 0.593918 -0.0139694)
(0.227451 0.494852 -0.0129733)
(0.00857511 0.44086 -0.0146828)
(0.139161 0.516654 -0.0141042)
(1.80229 -9.03417e-06 -0.00226373)
(1.82279 -1.4226e-05 -0.00207437)
(1.81632 -2.01348e-05 -0.00209363)
(1.80515 -3.10782e-05 -0.00211922)
(1.78627 -5.11887e-05 -0.00218361)
(1.75348 -7.78037e-05 -0.00228811)
(1.69587 -0.000102901 -0.00245958)
(1.59865 -0.000116557 -0.00278946)
(1.48017 -0.000146281 -0.00323161)
(1.3821 -0.000130187 -0.00349788)
(1.30795 -8.33597e-05 -0.00352089)
(1.24579 -0.000210593 -0.00338298)
(1.1959 0.00013782 -0.00325327)
(1.17633 0.000168985 -0.00331547)
(1.19577 -0.00101869 -0.00362179)
(1.25658 0.00192677 -0.00440003)
(1.33389 -0.00117082 -0.00486156)
(1.3758 0.00798053 -0.00546563)
(1.32483 0.0425861 -0.00632315)
(0.981969 0.151904 -0.00863674)
(0.204225 0.484458 -0.0126161)
(-0.187719 0.688427 -0.0138945)
(0.189317 0.601549 -0.0126445)
(0.0950775 0.541903 -0.0141905)
(0.174299 0.644641 -0.013666)
(1.80229 9.89646e-06 -0.00226373)
(1.82279 1.71612e-05 -0.00207434)
(1.81632 2.81167e-05 -0.0020936)
(1.80515 4.68145e-05 -0.00211918)
(1.78626 7.65561e-05 -0.00218355)
(1.75347 0.000114865 -0.00228802)
(1.69584 0.000137409 -0.00245944)
(1.59859 0.000106449 -0.00278917)
(1.4801 6.99038e-06 -0.00323102)
(1.38206 -0.000126204 -0.00349748)
(1.30787 -0.000308036 -0.00352042)
(1.24585 -0.000388603 -0.0033825)
(1.19614 -0.000414652 -0.003254)
(1.17586 0.000249304 -0.00331333)
(1.19655 -0.00128425 -0.00363455)
(1.25614 0.00128195 -0.00436226)
(1.33621 -0.00165947 -0.00490793)
(1.3944 0.00639574 -0.00539204)
(1.38155 0.0338773 -0.0059893)
(1.16838 0.120165 -0.00770224)
(0.477096 0.389987 -0.0110278)
(-0.0340376 0.759747 -0.0137003)
(0.15823 0.715573 -0.0124076)
(0.198663 0.668832 -0.013457)
(0.230652 0.878051 -0.0128433)
(1.8023 4.18974e-06 -3.31914e-09)
(1.82281 1.19881e-05 -3.56944e-10)
(1.81634 2.22842e-05 3.01145e-10)
(1.80519 3.61189e-05 2.40303e-09)
(1.78632 5.52676e-05 7.01678e-09)
(1.75358 8.58913e-05 5.85696e-09)
(1.69604 0.000126844 3.23352e-08)
(1.59896 0.000173047 9.74326e-08)
(1.48069 0.000201182 1.85193e-07)
(1.38284 0.000187295 3.61314e-07)
(1.30895 0.000162162 3.49051e-07)
(1.24658 0.00011719 2.4081e-07)
(1.19624 4.24832e-05 3.91811e-07)
(1.17806 4.43895e-05 3.74091e-07)
(1.19669 7.71871e-05 2.85934e-07)
(1.24628 -0.000190043 2.67814e-07)
(1.28385 0.00052493 1.65797e-07)
(1.20364 0.00291569 -9.53004e-08)
(0.663754 0.0108896 -8.9492e-07)
(-0.302275 0.0379498 -1.65542e-06)
(-0.486473 0.0421581 7.66224e-07)
(-0.238613 0.0321292 4.66118e-07)
(0.228381 0.0265121 8.31804e-08)
(-0.126956 0.0274566 -1.30414e-07)
(0.0393462 0.0299247 4.46733e-07)
(1.80231 -6.53187e-06 -2.14098e-09)
(1.82283 -1.21563e-05 3.90004e-09)
(1.81637 -2.09836e-05 4.85654e-09)
(1.80523 -3.71126e-05 7.44678e-09)
(1.78638 -6.43398e-05 1.3199e-08)
(1.75365 -9.89968e-05 1.61067e-08)
(1.69613 -0.000123866 4.72386e-08)
(1.59903 -0.000111485 1.15004e-07)
(1.4807 -5.95741e-05 2.1421e-07)
(1.3828 2.99234e-05 3.39069e-07)
(1.30888 0.000160922 2.85785e-07)
(1.24647 0.000208293 1.78534e-07)
(1.19618 0.000147705 3.38929e-07)
(1.1781 0.000223073 3.23737e-07)
(1.19649 0.000319975 2.43977e-07)
(1.24671 -0.000448994 2.37253e-07)
(1.28658 0.00165322 1.35975e-07)
(1.21301 0.0087479 -1.29499e-07)
(0.696607 0.0325351 -9.37054e-07)
(-0.271056 0.112878 -1.86314e-06)
(-0.478694 0.123661 8.26808e-07)
(-0.240444 0.0915159 4.62865e-07)
(0.231164 0.0763924 1.27302e-07)
(-0.123941 0.0787999 -1.44426e-07)
(0.0416334 0.0852976 4.3593e-07)
(1.80229 8.70213e-07 1.41846e-09)
(1.8228 4.0326e-06 2.39163e-08)
(1.81633 8.18253e-06 2.73269e-08)
(1.80517 1.36981e-05 3.52672e-08)
(1.78629 2.14334e-05 5.22873e-08)
(1.7535 3.37534e-05 9.05665e-08)
(1.69589 5.44039e-05 1.65403e-07)
(1.59866 8.79625e-05 2.73914e-07)
(1.48012 0.000127002 4.67414e-07)
(1.38207 0.000136509 5.21095e-07)
(1.30802 0.00013876 4.15067e-07)
(1.24556 0.000108456 3.04316e-07)
(1.19547 2.87295e-05 3.06692e-07)
(1.17768 0.000182546 2.62261e-07)
(1.19582 0.000261802 1.80058e-07)
(1.24737 -0.000781358 1.37559e-07)
(1.29188 0.00258175 6.95861e-08)
(1.23161 0.0136106 -1.44171e-07)
(0.766947 0.0503541 -8.23024e-07)
(-0.200974 0.179869 -2.01261e-06)
(-0.462637 0.213653 7.46176e-07)
(-0.246024 0.158509 5.531e-07)
(0.236128 0.131397 1.46179e-07)
(-0.117664 0.133479 -2.19043e-07)
(0.0470901 0.145 3.91172e-07)
(1.80232 6.81484e-08 6.15268e-09)
(1.82284 3.68077e-07 1.92754e-08)
(1.81638 6.84238e-07 2.15854e-08)
(1.80524 1.09179e-06 2.72698e-08)
(1.7864 1.74982e-06 3.92122e-08)
(1.75368 2.58876e-06 5.86801e-08)
(1.69616 5.46431e-06 1.22037e-07)
(1.59907 1.31476e-05 1.96434e-07)
(1.48069 2.89446e-05 3.58337e-07)
(1.38276 3.98387e-05 2.82786e-07)
(1.3088 5.12607e-05 1.27828e-07)
(1.24633 3.85789e-05 -5.34366e-08)
(1.19621 -2.55619e-05 2.15971e-07)
(1.17824 0.000227027 1.27187e-07)
(1.19567 0.000140661 1.02565e-07)
(1.24881 -0.000918999 1.03169e-07)
(1.29934 0.00332575 2.78805e-08)
(1.25594 0.016758 -1.60145e-07)
(0.862332 0.0610276 -7.36529e-07)
(-0.0881777 0.221008 -2.05085e-06)
(-0.433582 0.305204 3.91324e-07)
(-0.257421 0.231295 6.00428e-07)
(0.242966 0.189321 2.50058e-07)
(-0.109067 0.187329 -3.09039e-07)
(0.0559338 0.205817 4.01909e-07)
(1.80229 -3.61728e-07 1.31177e-08)
(1.8228 -1.42621e-06 7.63543e-08)
(1.81633 -3.22338e-06 8.35892e-08)
(1.80517 -5.7082e-06 9.67992e-08)
(1.78629 -8.83062e-06 1.23225e-07)
(1.75351 -1.27389e-05 2.13752e-07)
(1.6959 -1.643e-05 2.66134e-07)
(1.59868 -1.74982e-05 2.34499e-07)
(1.48015 -7.88081e-06 2.598e-07)
(1.38209 6.18717e-06 -8.93118e-08)
(1.30802 9.19301e-06 -3.1772e-07)
(1.24549 2.38458e-05 -2.51778e-07)
(1.19564 -5.61569e-06 -2.92812e-07)
(1.17778 0.000244168 -2.04095e-07)
(1.19488 -0.000110614 -1.59951e-07)
(1.25019 -0.000851895 -8.95238e-08)
(1.30768 0.00395796 -1.12665e-07)
(1.28264 0.0183762 -2.02146e-07)
(0.96779 0.0655819 -6.21261e-07)
(0.0665781 0.234988 -1.71646e-06)
(-0.382769 0.393341 -1.10115e-07)
(-0.273973 0.311549 6.183e-07)
(0.24982 0.252102 3.38197e-07)
(-0.0967704 0.239877 -3.11747e-07)
(0.0689927 0.269407 4.53406e-07)
(1.80232 7.01457e-06 9.62301e-09)
(1.82284 1.40163e-05 4.41478e-08)
(1.81638 2.44864e-05 4.85569e-08)
(1.80523 4.26593e-05 5.79238e-08)
(1.78639 7.26203e-05 7.53714e-08)
(1.75367 0.000112425 1.39556e-07)
(1.69617 0.000145247 2.15792e-07)
(1.59911 0.000143804 2.47494e-07)
(1.48076 0.000100817 3.54244e-07)
(1.38283 6.21781e-06 1.46344e-07)
(1.30888 -0.00015048 -9.68745e-08)
(1.24637 -0.000172747 -3.18792e-07)
(1.19645 -0.000114943 -7.90042e-08)
(1.17814 3.89923e-06 -1.32711e-07)
(1.19482 -0.000618782 -1.03981e-07)
(1.25231 -0.000546573 -1.48941e-08)
(1.31665 0.00436044 -6.15449e-08)
(1.30944 0.0183219 -1.63583e-07)
(1.07279 0.0646316 -5.04342e-07)
(0.263065 0.225635 -1.53327e-06)
(-0.300099 0.470312 -5.00466e-07)
(-0.290321 0.400435 6.06484e-07)
(0.252326 0.323202 3.26001e-07)
(-0.0783686 0.295636 -2.50193e-07)
(0.0878647 0.339249 3.96414e-07)
(1.8023 -2.05887e-06 5.88522e-08)
(1.82282 -3.27399e-06 1.21396e-07)
(1.81635 -4.04009e-06 1.32216e-07)
(1.80519 -4.71955e-06 1.53959e-07)
(1.78633 -5.80724e-06 1.95756e-07)
(1.75359 -8.63314e-06 3.58655e-07)
(1.69607 -1.60711e-05 4.22275e-07)
(1.599 -3.13271e-05 4.97769e-07)
(1.48072 -5.90449e-05 6.70496e-07)
(1.38284 -7.69878e-05 5.23646e-07)
(1.30895 -0.000118017 -1.41063e-07)
(1.24652 -8.96806e-05 -4.16143e-07)
(1.19658 0.000102257 -5.16918e-07)
(1.17786 6.83677e-06 -2.82167e-07)
(1.19481 -0.000866812 -2.83446e-07)
(1.25453 0.000403123 -2.53085e-07)
(1.3248 0.00406526 -1.67132e-07)
(1.33394 0.0159406 -1.44286e-07)
(1.1681 0.0588476 -3.61787e-07)
(0.489965 0.205542 -1.1121e-06)
(-0.173476 0.522437 -9.29836e-07)
(-0.295391 0.495517 5.24197e-07)
(0.247476 0.404637 3.2369e-07)
(-0.0479542 0.35942 -2.74671e-07)
(0.110986 0.418713 3.26516e-07)
(1.80231 2.07616e-06 -3.13302e-09)
(1.82283 8.35458e-06 4.72467e-08)
(1.81637 1.75504e-05 5.08288e-08)
(1.80523 3.02956e-05 5.38319e-08)
(1.78638 4.78253e-05 5.90481e-08)
(1.75365 7.50587e-05 1.02955e-07)
(1.69611 0.000107566 1.95498e-08)
(1.59898 0.000136977 -1.50187e-07)
(1.48058 0.000130974 -3.64991e-07)
(1.3826 8.42738e-05 -6.15536e-07)
(1.30868 1.83325e-05 -8.82046e-07)
(1.24639 -0.000139566 -5.53853e-07)
(1.19641 0.000198707 -3.46886e-07)
(1.17724 -3.04224e-05 -2.64364e-07)
(1.19521 -0.00100498 -1.29771e-07)
(1.2564 0.00139713 3.18444e-08)
(1.33057 0.00175527 1.73236e-08)
(1.35547 0.0114871 -5.30768e-09)
(1.25264 0.0506766 -1.68855e-07)
(0.741944 0.180746 -7.38861e-07)
(-0.00740545 0.534377 -1.33767e-06)
(-0.270798 0.593924 3.89731e-07)
(0.227453 0.494832 2.95441e-07)
(0.00856785 0.440862 -1.34166e-07)
(0.139088 0.516666 2.55963e-07)
(1.80231 3.57924e-07 5.10856e-08)
(1.82283 1.34032e-06 1.27819e-07)
(1.81637 2.58253e-06 1.39411e-07)
(1.80523 4.16279e-06 1.61297e-07)
(1.78637 6.29246e-06 2.0409e-07)
(1.75364 1.05157e-05 3.73607e-07)
(1.69609 1.64917e-05 3.97632e-07)
(1.59895 2.3778e-05 4.77685e-07)
(1.48053 2.4273e-05 6.29369e-07)
(1.38255 1.13753e-05 7.45449e-07)
(1.30855 -2.05111e-05 1.22542e-07)
(1.2465 -0.000206214 -1.74325e-07)
(1.19653 0.000138419 -6.4478e-08)
(1.17677 0.000161348 2.16873e-08)
(1.19606 -0.00103833 -1.83889e-07)
(1.25676 0.00192152 -4.63203e-08)
(1.33398 -0.00115994 1.22712e-07)
(1.37582 0.00799747 8.39025e-08)
(1.32478 0.0426128 -6.52191e-08)
(0.981791 0.151961 -5.04939e-07)
(0.204001 0.484596 -1.49037e-06)
(-0.187754 0.68844 1.88939e-07)
(0.189331 0.601539 3.55134e-07)
(0.0950512 0.541907 4.26314e-08)
(0.174235 0.64466 1.47487e-07)
(1.80231 1.99396e-08 2.85793e-08)
(1.82283 1.87639e-07 6.12623e-08)
(1.81637 3.62709e-07 6.84739e-08)
(1.80523 5.9309e-07 8.44823e-08)
(1.78639 9.62394e-07 1.18426e-07)
(1.75366 1.6797e-06 2.16231e-07)
(1.69612 3.29813e-06 2.79718e-07)
(1.59899 5.99666e-06 5.97944e-07)
(1.48057 1.02742e-05 1.09062e-06)
(1.38256 2.66831e-05 1.44549e-06)
(1.30848 -1.64955e-05 7.57646e-07)
(1.2465 -2.61215e-05 2.81672e-07)
(1.19669 -7.67988e-05 2.86079e-07)
(1.17622 0.00053861 2.96682e-07)
(1.19677 -0.00104565 -5.29944e-08)
(1.25627 0.00145203 1.47168e-07)
(1.33626 -0.00154259 2.11309e-07)
(1.3944 0.00647815 1.58008e-07)
(1.38151 0.0339408 3.09541e-08)
(1.16826 0.120233 -2.83014e-07)
(0.476835 0.390126 -1.0197e-06)
(-0.0340987 0.759785 -4.19925e-07)
(0.158241 0.715572 2.91264e-07)
(0.198643 0.668831 1.95808e-07)
(0.230601 0.878077 1.58495e-07)
(1.80231 -3.40745e-07 3.33192e-08)
(1.82283 -1.73341e-06 1.0019e-07)
(1.81637 -3.38279e-06 1.08568e-07)
(1.80523 -5.52449e-06 1.2499e-07)
(1.78639 -8.70146e-06 1.55096e-07)
(1.75366 -1.46755e-05 2.67291e-07)
(1.69613 -2.4584e-05 3.57819e-07)
(1.599 -4.04724e-05 3.01307e-07)
(1.48058 -5.77658e-05 3.38586e-07)
(1.38261 -5.94043e-05 -2.60069e-07)
(1.30869 -5.35518e-05 -5.54315e-07)
(1.24632 -4.4418e-05 -5.58666e-07)
(1.19604 -3.56759e-05 -5.11735e-07)
(1.17794 6.65371e-06 -3.79249e-07)
(1.19661 6.4657e-05 -2.55381e-07)
(1.24624 -0.000193041 -1.30423e-07)
(1.28381 0.000526131 -9.39227e-08)
(1.20361 0.00291612 -4.75037e-08)
(0.663704 0.0108874 -1.16589e-07)
(-0.302317 0.0379466 -2.55396e-07)
(-0.48648 0.0421567 3.16592e-07)
(-0.238617 0.0321285 1.56767e-07)
(0.228368 0.0265122 2.5432e-08)
(-0.12696 0.0274567 2.95311e-08)
(0.0393453 0.0299246 1.55306e-08)
(1.80231 -2.25118e-07 2.35725e-09)
(1.82283 -6.06638e-07 3.74184e-08)
(1.81637 -1.19139e-06 4.18751e-08)
(1.80523 -1.95071e-06 5.09667e-08)
(1.78638 -2.90279e-06 7.00279e-08)
(1.75364 -5.02976e-06 1.2047e-07)
(1.6961 -7.12964e-06 1.70941e-07)
(1.59897 -8.25817e-06 2.64722e-07)
(1.48056 9.63886e-07 4.96907e-07)
(1.38261 2.16049e-05 3.17905e-07)
(1.3087 3.69886e-05 7.7444e-08)
(1.24634 3.27736e-05 -1.35473e-07)
(1.19608 6.3025e-06 8.31874e-08)
(1.17802 9.62421e-05 3.68487e-08)
(1.19644 0.00020892 6.50195e-09)
(1.24667 -0.000527862 4.40682e-08)
(1.28655 0.00160779 3.90337e-08)
(1.21298 0.0087247 2.36025e-08)
(0.696555 0.0325249 -8.37312e-08)
(-0.271095 0.112876 -2.6578e-07)
(-0.478698 0.123658 3.08106e-07)
(-0.240447 0.0915153 1.63095e-07)
(0.231151 0.0763927 2.44618e-08)
(-0.123946 0.0787997 3.10025e-08)
(0.0416324 0.0852976 1.31363e-08)
(1.80231 -1.61328e-06 4.63036e-08)
(1.82283 -6.36126e-06 1.01763e-07)
(1.81637 -1.36824e-05 1.10786e-07)
(1.80523 -2.39575e-05 1.27883e-07)
(1.78638 -3.78478e-05 1.6189e-07)
(1.75365 -5.81899e-05 2.97137e-07)
(1.69612 -7.88309e-05 3.23555e-07)
(1.599 -8.92817e-05 4.05316e-07)
(1.4806 -6.25383e-05 5.39627e-07)
(1.38264 -1.56677e-05 6.74203e-07)
(1.3087 2.81772e-05 4.58135e-08)
(1.2463 3.67482e-05 -3.75606e-07)
(1.1961 6.43963e-06 -1.98709e-07)
(1.1781 0.000175747 -5.28117e-08)
(1.19608 0.000257838 -2.17406e-07)
(1.24754 -0.000789554 -2.15164e-07)
(1.29198 0.00257204 -6.65665e-08)
(1.23164 0.0136013 3.91853e-09)
(0.766916 0.0503482 -4.91316e-08)
(-0.201025 0.179873 -2.77562e-07)
(-0.462653 0.213648 2.82282e-07)
(-0.246028 0.158505 1.55881e-07)
(0.236115 0.131397 3.11645e-08)
(-0.117668 0.133478 2.9775e-08)
(0.0470892 0.145 1.2775e-08)
(1.80231 2.73315e-06 -6.18965e-09)
(1.82282 5.0918e-06 6.9501e-09)
(1.81635 7.50903e-06 8.81756e-09)
(1.8052 1.03753e-05 1.29124e-08)
(1.78634 1.41929e-05 2.21256e-08)
(1.75362 2.06312e-05 4.67217e-08)
(1.69611 3.05731e-05 5.29824e-08)
(1.59907 4.53685e-05 1.37735e-07)
(1.48078 6.37174e-05 3.05697e-07)
(1.38288 6.77731e-05 3.18333e-07)
(1.30894 7.66048e-05 1.6418e-07)
(1.24648 5.27793e-05 -5.17628e-08)
(1.19632 -4.42036e-05 2.3423e-07)
(1.17829 0.000194398 7.10244e-08)
(1.19568 0.000108399 4.23153e-08)
(1.24881 -0.000950326 6.83919e-08)
(1.29933 0.00329699 7.40497e-08)
(1.25592 0.0167341 6.08496e-08)
(0.862307 0.0610118 6.41436e-09)
(-0.0882015 0.221008 -2.00198e-07)
(-0.433588 0.305197 1.89107e-07)
(-0.257421 0.231289 1.61151e-07)
(0.242956 0.189321 2.87264e-08)
(-0.109071 0.187328 2.83343e-08)
(0.055933 0.205817 1.06621e-08)
(1.80232 -6.41842e-06 4.53717e-08)
(1.82284 -9.62664e-06 9.7517e-08)
(1.81638 -1.35461e-05 1.05919e-07)
(1.80524 -2.20425e-05 1.21362e-07)
(1.7864 -3.87653e-05 1.51613e-07)
(1.75369 -5.90353e-05 2.86223e-07)
(1.69619 -7.39096e-05 2.95868e-07)
(1.59912 -7.20627e-05 3.36699e-07)
(1.48076 -7.4299e-05 4.05771e-07)
(1.38283 -4.00176e-05 4.88982e-07)
(1.30887 4.28925e-05 -8.75358e-08)
(1.24635 9.06925e-05 -4.20064e-07)
(1.19635 2.78073e-05 -2.76477e-07)
(1.17828 0.000277859 -1.51493e-07)
(1.1952 -7.86613e-05 -2.0569e-07)
(1.25039 -0.000833282 -2.23059e-07)
(1.3078 0.00395806 -6.61909e-08)
(1.2827 0.0183664 2.1073e-08)
(0.967799 0.0655707 1.48113e-08)
(0.0665497 0.234989 -1.16439e-07)
(-0.382783 0.393337 1.03001e-07)
(-0.273974 0.311542 1.59521e-07)
(0.249813 0.252101 2.89248e-08)
(-0.0967738 0.239875 2.50535e-08)
(0.0689922 0.269406 9.09843e-09)
(1.8023 -5.51863e-08 -4.23929e-09)
(1.82281 -9.24604e-08 1.06629e-08)
(1.81634 -1.46328e-07 1.1755e-08)
(1.8052 -2.02965e-07 1.27405e-08)
(1.78633 -2.71535e-07 1.50836e-08)
(1.75355 -8.60667e-08 2.88098e-08)
(1.69591 -7.21232e-07 -1.30788e-10)
(1.59859 -4.38763e-06 -1.22381e-08)
(1.47989 -1.30327e-05 9.81767e-09)
(1.38173 -1.4647e-05 -9.10387e-08)
(1.30768 -3.75564e-05 -1.73758e-07)
(1.24522 6.69143e-07 -2.30541e-07)
(1.19554 3.38594e-05 1.71683e-08)
(1.17753 0.00013823 -1.66148e-08)
(1.19443 -0.000509773 1.57476e-10)
(1.25207 -0.000477503 6.76685e-08)
(1.31651 0.00439389 7.27031e-08)
(1.30935 0.0183332 6.7753e-08)
(1.07275 0.0646318 4.1915e-08)
(0.263047 0.225634 -6.94205e-08)
(-0.300103 0.470309 4.4978e-08)
(-0.29032 0.400428 1.44563e-07)
(0.252322 0.3232 3.06533e-08)
(-0.0783709 0.295634 2.22876e-08)
(0.0878644 0.339249 7.4545e-09)
(1.80232 5.75715e-06 2.54502e-08)
(1.82284 6.2399e-06 7.91707e-08)
(1.81638 7.02699e-06 8.55216e-08)
(1.80524 1.1502e-05 9.70699e-08)
(1.7864 2.22829e-05 1.17814e-07)
(1.75369 3.15357e-05 2.0619e-07)
(1.69618 2.72332e-05 2.51828e-07)
(1.59911 -7.5431e-06 1.69467e-07)
(1.48075 -4.59734e-05 1.26489e-07)
(1.3828 -8.98255e-05 -2.81804e-07)
(1.30888 -0.000208811 -4.57135e-07)
(1.24641 -0.000206461 -3.70628e-07)
(1.19648 -7.77225e-06 -3.54752e-07)
(1.1778 -9.94771e-05 -2.33071e-07)
(1.19477 -0.000962098 -1.44071e-07)
(1.25451 0.000329727 -2.52177e-08)
(1.32479 0.00401791 -1.90673e-08)
(1.33393 0.015911 1.08021e-08)
(1.1681 0.0588309 3.34486e-08)
(0.489952 0.205536 -5.54741e-09)
(-0.173482 0.522436 6.1997e-09)
(-0.295391 0.495511 1.3738e-07)
(0.247475 0.404634 3.41869e-08)
(-0.0479555 0.359418 2.09889e-08)
(0.110986 0.418713 5.91402e-09)
(1.8023 -2.62854e-06 7.83132e-09)
(1.82282 -4.45217e-06 2.17561e-08)
(1.81635 -6.24642e-06 2.39983e-08)
(1.80519 -8.32936e-06 2.9347e-08)
(1.78633 -1.10131e-05 3.97199e-08)
(1.75359 -1.57762e-05 6.58513e-08)
(1.69606 -2.26883e-05 1.17576e-07)
(1.599 -3.21837e-05 1.66538e-07)
(1.48073 -4.16293e-05 2.85425e-07)
(1.38284 -3.66407e-05 1.62096e-07)
(1.30895 -5.94713e-05 1.46035e-08)
(1.24663 -0.000173184 1.51209e-09)
(1.19659 0.000224071 1.88738e-08)
(1.17736 5.3064e-06 3.84307e-08)
(1.19527 -0.00097308 6.47054e-08)
(1.25643 0.00142087 9.81018e-08)
(1.33059 0.00177184 9.72506e-08)
(1.35548 0.0114976 9.33402e-08)
(1.25264 0.0506805 8.14561e-08)
(0.741948 0.180744 3.96487e-08)
(-0.00740413 0.534375 -2.67944e-08)
(-0.270797 0.593919 1.18012e-07)
(0.227452 0.494829 4.35492e-08)
(0.0085676 0.440861 2.21004e-08)
(0.139088 0.516665 5.10071e-09)
(1.80231 -2.62193e-10 7.0855e-09)
(1.82283 -1.97489e-09 3.11956e-08)
(1.81637 -3.56363e-09 3.53868e-08)
(1.80523 -6.11998e-09 4.58506e-08)
(1.78638 -2.11266e-08 6.75695e-08)
(1.75366 -1.51007e-08 1.08565e-07)
(1.69612 2.66122e-08 2.08629e-07)
(1.599 -7.54879e-07 3.61548e-07)
(1.4806 -1.99086e-06 6.28461e-07)
(1.38261 1.31733e-06 6.91939e-07)
(1.30857 -1.9493e-05 5.41488e-07)
(1.24649 -0.000190557 4.49401e-07)
(1.19648 0.00016412 3.81511e-07)
(1.17671 0.000185225 2.75002e-07)
(1.196 -0.00101929 2.03473e-07)
(1.25672 0.00193607 1.60345e-07)
(1.33395 -0.00115297 1.42864e-07)
(1.3758 0.00800226 1.37382e-07)
(1.32477 0.0426166 1.19025e-07)
(0.981779 0.151963 7.98629e-08)
(0.203993 0.484597 -3.07658e-08)
(-0.187755 0.688438 1.01359e-07)
(0.189331 0.601537 6.14719e-08)
(0.0950513 0.541907 2.27904e-08)
(0.174235 0.644659 6.62057e-09)
(1.8023 2.62906e-06 2.03084e-09)
(1.82282 4.451e-06 1.00305e-08)
(1.81635 6.24519e-06 1.14606e-08)
(1.80519 8.32601e-06 1.52228e-08)
(1.78633 1.0983e-05 2.34735e-08)
(1.75359 1.57889e-05 2.98222e-08)
(1.69606 2.27066e-05 7.33365e-08)
(1.599 3.05829e-05 1.61255e-07)
(1.48074 3.67201e-05 2.94568e-07)
(1.38282 4.51473e-05 4.34497e-07)
(1.30876 1.72422e-06 2.95711e-07)
(1.24678 -2.20648e-05 3.46912e-07)
(1.19688 -8.41125e-05 3.50178e-07)
(1.17633 0.000529499 2.76489e-07)
(1.19683 -0.00105489 2.22444e-07)
(1.25629 0.00144229 1.92959e-07)
(1.33627 -0.00155084 1.60905e-07)
(1.39441 0.00647159 1.58059e-07)
(1.38151 0.0339363 1.42534e-07)
(1.16826 0.120231 1.13682e-07)
(0.476833 0.390126 3.11995e-08)
(-0.0340984 0.759785 5.40475e-08)
(0.158241 0.715571 6.37289e-08)
(0.198644 0.668831 2.57353e-08)
(0.230601 0.878077 9.96818e-09)
(1.80231 -8.33574e-09 5.49168e-09)
(1.82284 -1.44088e-08 1.86625e-08)
(1.81638 -2.23986e-08 2.09562e-08)
(1.80523 -3.6193e-08 2.703e-08)
(1.78639 -7.63446e-08 3.80752e-08)
(1.75367 -9.35311e-08 5.53024e-08)
(1.69614 -1.55273e-07 1.04473e-07)
(1.59903 -2.86685e-07 1.78249e-07)
(1.48062 -2.64292e-07 3.01871e-07)
(1.38264 -5.65614e-07 3.4867e-07)
(1.30871 3.44407e-07 2.9774e-07)
(1.24634 -2.14664e-06 1.48823e-07)
(1.19604 -1.35915e-05 2.94172e-07)
(1.17792 1.75765e-05 2.52268e-07)
(1.19659 6.90418e-05 1.98251e-07)
(1.24621 -0.00019144 1.3273e-07)
(1.2838 0.000525967 1.07897e-07)
(1.20359 0.00291541 8.48601e-08)
(0.663673 0.010887 8.27682e-08)
(-0.302342 0.0379465 8.40318e-08)
(-0.486484 0.042157 1.81921e-08)
(-0.238621 0.0321288 4.71265e-08)
(0.228361 0.0265123 4.05491e-08)
(-0.126961 0.0274567 1.67853e-08)
(0.039345 0.0299247 -1.11597e-07)
(1.80231 -8.28052e-09 1.0246e-08)
(1.82284 -1.40997e-08 3.46851e-08)
(1.81638 -2.18694e-08 3.87997e-08)
(1.80523 -3.54525e-08 4.91556e-08)
(1.78639 -7.47063e-08 6.85584e-08)
(1.75367 -9.37581e-08 1.12475e-07)
(1.69614 -1.4848e-07 1.97039e-07)
(1.59903 -2.47202e-07 2.8218e-07)
(1.48062 -2.21977e-08 4.50996e-07)
(1.38264 -1.47831e-06 3.55161e-07)
(1.30871 2.45286e-06 2.46413e-07)
(1.24633 -6.96696e-06 9.53239e-08)
(1.19606 -3.90272e-05 1.56727e-07)
(1.17799 5.81505e-05 1.18811e-07)
(1.19641 0.000181094 9.93843e-08)
(1.24664 -0.00054569 7.1054e-08)
(1.28653 0.00159547 6.2304e-08)
(1.21296 0.00871655 6.43784e-08)
(0.696526 0.0325208 9.75882e-08)
(-0.27112 0.112877 1.31046e-07)
(-0.478703 0.123658 3.73803e-09)
(-0.240451 0.0915158 8.04067e-08)
(0.231145 0.0763932 -2.85356e-08)
(-0.123947 0.0787999 3.59502e-08)
(0.0416321 0.0852977 -1.27901e-07)
(1.80231 -1.61678e-09 7.63598e-09)
(1.82284 -3.47329e-09 2.13001e-08)
(1.81638 -6.45013e-09 2.32655e-08)
(1.80523 -1.04705e-08 2.75562e-08)
(1.78639 -1.41827e-08 3.5586e-08)
(1.75367 -2.79448e-08 6.36911e-08)
(1.69614 -3.63377e-08 9.89741e-08)
(1.59903 1.67618e-08 1.10978e-07)
(1.48062 5.48868e-07 1.70348e-07)
(1.38264 -2.45952e-06 1.10838e-08)
(1.3087 4.7328e-06 -7.59709e-08)
(1.2463 -1.01727e-05 -1.24232e-07)
(1.1961 -6.16068e-05 -2.3906e-08)
(1.17809 0.000114326 2.06896e-08)
(1.19608 0.000210141 4.5737e-08)
(1.24753 -0.000819801 7.22754e-08)
(1.29197 0.00255334 6.67004e-08)
(1.23163 0.0135909 6.49994e-08)
(0.766894 0.0503442 8.72943e-08)
(-0.201045 0.179875 1.45653e-07)
(-0.462657 0.213647 5.45184e-08)
(-0.24603 0.158506 6.55927e-08)
(0.236109 0.131398 -7.74739e-08)
(-0.11767 0.133479 5.0612e-08)
(0.0470889 0.145 -5.90662e-08)
(1.80231 -1.41891e-09 1.98936e-08)
(1.82284 -5.50807e-10 6.2627e-08)
(1.81638 5.94139e-10 6.68454e-08)
(1.80523 1.83728e-09 7.28749e-08)
(1.78639 3.76166e-09 8.25772e-08)
(1.75367 -3.4372e-10 1.46094e-07)
(1.69614 -1.07098e-08 1.32269e-07)
(1.59903 2.4334e-08 -1.19943e-08)
(1.48062 7.00921e-07 -1.95846e-07)
(1.38265 -2.85795e-06 -4.94203e-07)
(1.3087 4.08604e-06 -5.56959e-07)
(1.24627 -8.96816e-06 -3.90353e-07)
(1.19617 -7.5137e-05 -3.67444e-07)
(1.17819 0.000180894 -1.84632e-07)
(1.19563 0.000105443 -9.19936e-08)
(1.24877 -0.000946525 -8.26476e-09)
(1.29931 0.0033042 4.7556e-09)
(1.2559 0.0167416 3.34511e-08)
(0.862277 0.0610181 6.79933e-08)
(-0.0882319 0.221015 1.10055e-07)
(-0.433596 0.305197 1.13042e-07)
(-0.257423 0.231291 4.18736e-08)
(0.24295 0.189323 -1.40286e-07)
(-0.109073 0.187329 9.30439e-08)
(0.0559327 0.205817 -2.46478e-08)
(1.80231 1.60089e-08 -8.81083e-09)
(1.82284 2.78272e-08 1.76673e-09)
(1.81638 4.23612e-08 2.58575e-09)
(1.80523 6.07923e-08 4.06692e-09)
(1.78639 8.28227e-08 6.64929e-09)
(1.75367 1.19335e-07 1.51189e-08)
(1.69614 1.59903e-07 4.64401e-09)
(1.59903 8.23613e-08 9.35671e-09)
(1.48062 2.67994e-07 3.75628e-08)
(1.38265 -5.43229e-07 2.86274e-08)
(1.3087 -5.23052e-06 -6.03621e-09)
(1.24623 2.53616e-06 -1.60951e-07)
(1.19627 -3.89538e-05 1.86031e-07)