/*--------------------------------*- C++ -*----------------------------------*\
| =========                 |                                                 |
| \\      /  F ield         | OpenFOAM: The Open Source CFD Toolbox           |
|  \\    /   O peration     | Version:  4.1                                   |
|   \\  /    A nd           | Web:      www.OpenFOAM.org                      |
|    \\/     M anipulation  |                                                 |
\*---------------------------------------------------------------------------*/
FoamFile
{
    version     2.0;
    format      ascii;
    class       volVectorField;
    location    "5";
    object      U;
}
// * * * * * * * * * * * * * * * * * * * * * * * * * * * * * * * * * * * * * //

dimensions      [0 1 -1 0 0 0 0];

internalField   nonuniform List<vector> 
500
(
(3.00001 -6.15342e-08 4.38078e-17)
(3 -5.26385e-08 8.52792e-20)
(3 -1.97639e-08 9.95168e-18)
(3 -1.18912e-08 1.33547e-24)
(3 -4.48973e-09 1.2339e-23)
(3.00001 -2.08222e-07 4.35811e-17)
(3 -1.80099e-07 1.72344e-19)
(3 -6.92197e-08 1.00384e-17)
(3 -3.8774e-08 1.51734e-17)
(3 -1.34435e-08 1.23571e-23)
(3.00002 -4.4019e-07 8.67024e-17)
(3.00001 -3.84741e-07 2.633e-19)
(3 -1.50152e-07 1.03732e-17)
(3 -7.94026e-08 2.9786e-17)
(3 -2.61083e-08 1.31936e-23)
(3.00002 -7.59359e-07 8.63164e-17)
(3.00001 -6.70467e-07 1.5442e-17)
(3.00001 -2.64563e-07 3.02677e-17)
(3.00001 -1.32844e-07 2.88397e-17)
(3.00001 -4.21166e-08 2.29225e-23)
(3.00003 -1.16821e-06 4.31267e-17)
(3.00001 -1.04073e-06 3.02205e-17)
(3.00001 -4.14312e-07 1.07637e-17)
(3.00001 -1.98894e-07 2.7905e-17)
(3.00001 -6.13411e-08 2.4534e-23)
(3.00003 -1.66939e-06 4.30542e-17)
(3.00001 -1.49891e-06 3.02222e-17)
(3.00001 -6.01166e-07 3.0396e-17)
(3.00001 -2.77546e-07 2.65619e-17)
(3.00001 -8.37893e-08 -1.27224e-17)
(3.00004 -2.26576e-06 4.29805e-17)
(3.00002 -2.04826e-06 3.022e-17)
(3.00001 -8.2677e-07 3.00305e-17)
(3.00001 -3.68941e-07 1.05181e-17)
(3.00001 -1.09544e-07 -1.27224e-17)
(3.00004 -2.96026e-06 4.29051e-17)
(3.00002 -2.69198e-06 3.02142e-17)
(3.00001 -1.09272e-06 2.96494e-17)
(3.00001 -4.73287e-07 9.71883e-18)
(3.00001 -1.38732e-07 -1.27223e-17)
(3.00004 -3.75593e-06 9.35408e-19)
(3.00002 -3.43316e-06 3.03931e-17)
(3.00001 -1.40051e-06 4.79697e-17)
(3.00001 -5.90865e-07 -5.59671e-18)
(3.00001 -1.71511e-07 -1.27223e-17)
(3.00005 -4.65589e-06 4.27538e-17)
(3.00002 -4.27485e-06 3.05629e-17)
(3.00002 -1.75158e-06 4.69105e-17)
(3.00001 -7.21961e-07 -6.29605e-18)
(3.00001 -2.08056e-07 -2.51519e-17)
(3.00005 -5.66326e-06 1.2968e-18)
(3.00003 -5.21998e-06 3.05261e-17)
(3.00002 -2.14729e-06 2.70771e-17)
(3.00002 -8.66881e-07 -7.43419e-18)
(3.00002 -2.48556e-07 -3.75057e-17)
(3.00006 -6.78123e-06 1.48163e-18)
(3.00003 -6.27141e-06 3.02848e-17)
(3.00002 -2.58889e-06 8.01569e-18)
(3.00002 -1.02591e-06 5.68057e-18)
(3.00002 -2.93204e-07 -3.75055e-17)
(3.00007 -8.01288e-06 8.33673e-17)
(3.00003 -7.43189e-06 3.00371e-17)
(3.00002 -3.07759e-06 7.64073e-18)
(3.00002 -1.19933e-06 -1.00884e-17)
(3.00002 -3.422e-07 -3.75054e-17)
(3.00007 -9.36138e-06 8.31879e-17)
(3.00003 -8.70403e-06 5.76078e-17)
(3.00002 -3.61443e-06 -1.14159e-17)
(3.00002 -1.38736e-06 -2.4709e-17)
(3.00002 -3.95745e-07 -2.53853e-17)
(3.00008 -1.08297e-05 1.63419e-16)
(3.00004 -1.00903e-05 2.89782e-17)
(3.00003 -4.20042e-06 -1.17027e-17)
(3.00002 -1.59022e-06 -2.47355e-17)
(3.00002 -4.54037e-07 -2.53852e-17)
(3.00008 -1.2421e-05 1.62453e-16)
(3.00004 -1.15931e-05 2.84996e-17)
(3.00003 -4.83638e-06 -1.2293e-17)
(3.00002 -1.80806e-06 -3.85825e-17)
(3.00002 -5.17276e-07 -2.53851e-17)
(3.00009 -1.41381e-05 1.61451e-16)
(3.00004 -1.32146e-05 2.77978e-17)
(3.00003 -5.52305e-06 -3.08502e-17)
(3.00003 -2.041e-06 -3.80422e-17)
(3.00003 -5.85654e-07 -2.5385e-17)
(3.00009 -1.59837e-05 1.60418e-16)
(3.00005 -1.49567e-05 2.70889e-17)
(3.00003 -6.26104e-06 -3.10022e-17)
(3.00003 -2.2891e-06 -3.7514e-17)
(3.00003 -6.59364e-07 -2.53849e-17)
(3.0001 -1.79606e-05 1.59365e-16)
(3.00005 -1.68212e-05 2.65907e-17)
(3.00003 -7.05075e-06 -1.34305e-17)
(3.00003 -2.55238e-06 -3.69983e-17)
(3.00003 -7.38587e-07 -2.53848e-17)
(3.0001 -2.00713e-05 1.58508e-16)
(3.00005 -1.88096e-05 5.27047e-17)
(3.00004 -7.89253e-06 -3.18569e-17)
(3.00003 -2.83079e-06 -4.93809e-17)
(3.00003 -8.23504e-07 -1.37614e-17)
(3.00011 -2.23181e-05 2.34653e-16)
(3.00006 -2.09232e-05 2.51969e-17)
(3.00004 -8.78647e-06 -1.51285e-17)
(3.00004 -3.12427e-06 -6.10871e-17)
(3.00003 -9.14284e-07 -1.37613e-17)
(3.00011 -2.47031e-05 3.09834e-16)
(3.00006 -2.31629e-05 5.13106e-17)
(3.00004 -9.73253e-06 7.61478e-19)
(3.00004 -3.43262e-06 -7.2125e-17)
(3.00004 -1.01109e-06 -1.37613e-17)
(3.00012 -2.72283e-05 3.07833e-16)
(3.00006 -2.55294e-05 5.06157e-17)
(3.00004 -1.07305e-05 -1.00151e-18)
(3.00004 -3.75568e-06 -6.94503e-17)
(3.00004 -1.11408e-06 -1.37612e-17)
(3.00012 -2.98954e-05 3.81211e-16)
(3.00007 -2.8023e-05 4.96633e-17)
(3.00005 -1.17799e-05 -1.97216e-17)
(3.00004 -4.09315e-06 -6.78999e-17)
(3.00004 -1.22338e-06 -3.63037e-17)
(3.00013 -3.27056e-05 3.03812e-16)
(3.00007 -3.06438e-05 4.86987e-17)
(3.00005 -1.28802e-05 -2.02401e-17)
(3.00004 -4.44471e-06 -3.96819e-17)
(3.00004 -1.33915e-06 -1.39421e-17)
(3.00013 -3.56602e-05 3.7569e-16)
(3.00007 -3.33912e-05 2.21578e-17)
(3.00005 -1.40305e-05 -2.0102e-17)
(3.00005 -4.80999e-06 -1.5157e-17)
(3.00005 -1.46148e-06 -5.82986e-17)
(3.00014 -3.87598e-05 3.7254e-16)
(3.00008 -3.62645e-05 -3.79673e-18)
(3.00006 -1.52299e-05 -2.00507e-17)
(3.00005 -5.1885e-06 -1.83493e-17)
(3.00005 -1.5905e-06 -8.02915e-17)
(3.00014 -4.2005e-05 3.69336e-16)
(3.00008 -3.92624e-05 -4.02054e-18)
(3.00006 -1.64769e-05 -2.00856e-17)
(3.00005 -5.57978e-06 -2.14394e-17)
(3.00005 -1.72629e-06 -8.02911e-17)
(3.00015 -4.53958e-05 3.66074e-16)
(3.00008 -4.23832e-05 -4.24172e-18)
(3.00006 -1.77702e-05 -2.09304e-17)
(3.00006 -5.98322e-06 -5.02356e-17)
(3.00005 -1.86893e-06 -1.01908e-16)
(3.00015 -4.89317e-05 3.62757e-16)
(3.00009 -4.5625e-05 -3.97259e-18)
(3.00006 -1.9108e-05 1.04191e-17)
(3.00006 -6.39821e-06 -5.18019e-17)
(3.00006 -2.01849e-06 -8.0481e-17)
(3.00016 -5.26123e-05 2.88463e-16)
(3.00009 -4.89848e-05 -3.72649e-18)
(3.00007 -2.04884e-05 8.55905e-18)
(3.00006 -6.82407e-06 -5.33218e-17)
(3.00006 -2.17501e-06 -8.04806e-17)
(3.00016 -5.6436e-05 2.85706e-16)
(3.00009 -5.24598e-05 -4.01843e-18)
(3.00007 -2.19092e-05 -2.49082e-17)
(3.00007 -7.26001e-06 -5.36594e-17)
(3.00006 -2.33851e-06 -5.94414e-17)
(3.00017 -6.04014e-05 3.52506e-16)
(3.0001 -5.60461e-05 -3.86207e-18)
(3.00008 -2.33679e-05 4.82571e-18)
(3.00007 -7.7053e-06 -7.65634e-17)
(3.00007 -2.50901e-06 -3.85988e-17)
(3.00017 -6.45065e-05 3.48548e-16)
(3.0001 -5.97398e-05 -5.07719e-17)
(3.00008 -2.48619e-05 3.33247e-17)
(3.00007 -8.15901e-06 -7.56071e-17)
(3.00007 -2.6865e-06 -5.92426e-17)
(3.00018 -6.87483e-05 3.44103e-16)
(3.00011 -6.35361e-05 -9.6483e-17)
(3.00008 -2.63883e-05 3.06453e-17)
(3.00008 -8.62026e-06 -5.14679e-17)
(3.00007 -2.87095e-06 -5.92423e-17)
(3.00018 -7.31242e-05 2.72087e-16)
(3.00011 -6.74297e-05 -9.44219e-17)
(3.00009 -2.7944e-05 2.80161e-17)
(3.00008 -9.08812e-06 -5.07534e-17)
(3.00008 -3.0623e-06 -3.9e-17)
(3.00019 -7.76302e-05 2.68306e-16)
(3.00012 -7.14149e-05 -9.24128e-17)
(3.00009 -2.95256e-05 2.47041e-17)
(3.00008 -9.56152e-06 -7.27758e-17)
(3.00008 -3.26049e-06 -3.90007e-17)
(3.00019 -8.22623e-05 2.64517e-16)
(3.00012 -7.54855e-05 -9.04621e-17)
(3.00009 -3.11295e-05 2.07684e-17)
(3.00009 -1.00395e-05 -9.32103e-17)
(3.00009 -3.46541e-06 -3.90031e-17)
(3.0002 -8.70161e-05 2.60238e-16)
(3.00012 -7.96346e-05 -1.34183e-16)
(3.0001 -3.27519e-05 -1.23606e-17)
(3.00009 -1.05209e-05 -8.99117e-17)
(3.00009 -3.67698e-06 -3.90088e-17)
(3.0002 -9.1886e-05 2.54992e-16)
(3.00013 -8.38549e-05 -2.21215e-16)
(3.0001 -3.4389e-05 -1.41763e-17)
(3.0001 -1.10047e-05 -6.4824e-17)
(3.00009 -3.89502e-06 -3.90192e-17)
(3.0002 -9.6867e-05 1.22143e-16)
(3.00013 -8.81387e-05 -1.73821e-16)
(3.00011 -3.60364e-05 -4.30979e-17)
(3.0001 -1.14897e-05 -1.98486e-17)
(3.0001 -4.1194e-06 -3.90349e-17)
(3.00021 -0.000101952 2.45508e-16)
(3.00014 -9.24774e-05 -1.70826e-16)
(3.00011 -3.769e-05 -1.47382e-17)
(3.0001 -1.19747e-05 -4.37082e-17)
(3.0001 -4.34993e-06 -5.80533e-17)
(3.00021 -0.000107136 2.40799e-16)
(3.00014 -9.68627e-05 -1.67315e-16)
(3.00012 -3.93453e-05 1.22343e-17)
(3.00011 -1.24586e-05 -4.46573e-17)
(3.00011 -4.58641e-06 -5.80736e-17)
(3.00022 -0.00011241 2.36607e-16)
(3.00015 -0.000101285 -1.21759e-16)
(3.00012 -4.09974e-05 -1.60588e-17)
(3.00011 -1.29403e-05 -3.80166e-18)
(3.00011 -4.82862e-06 -5.80898e-17)
(3.00022 -0.000117767 3.54739e-16)
(3.00015 -0.000105735 -1.20723e-16)
(3.00013 -4.26422e-05 -7.04744e-17)
(3.00012 -1.34184e-05 -7.4735e-18)
(3.00012 -5.07631e-06 -5.80978e-17)
(3.00023 -0.0001232 4.69435e-16)
(3.00016 -0.000110202 -1.61761e-16)
(3.00013 -4.42745e-05 -9.52365e-17)
(3.00012 -1.38921e-05 -1.09366e-17)
(3.00012 -5.32923e-06 -5.80959e-17)
(3.00023 -0.0001287 5.81175e-16)
(3.00016 -0.000114677 -1.60264e-16)
(3.00014 -4.58894e-05 -9.0643e-17)
(3.00013 -1.43599e-05 2.34886e-17)
(3.00013 -5.58707e-06 -9.39326e-17)
(3.00024 -0.000134258 6.89432e-16)
(3.00017 -0.00011915 -1.99212e-16)
(3.00014 -4.74827e-05 -8.55982e-17)
(3.00013 -1.48208e-05 3.75555e-17)
(3.00013 -5.8496e-06 -5.85047e-17)
(3.00024 -0.000139864 6.7778e-16)
(3.00017 -0.000123608 -2.35959e-16)
(3.00015 -4.90489e-05 -8.09443e-17)
(3.00014 -1.52738e-05 3.07105e-17)
(3.00014 -6.11643e-06 -5.84857e-17)
(3.00024 -0.000145511 6.66102e-16)
(3.00018 -0.000128042 -2.32652e-16)
(3.00015 -5.05838e-05 -7.65679e-17)
(3.00014 -1.57178e-05 2.67596e-17)
(3.00014 -6.38726e-06 -2.39378e-17)
(3.00025 -0.000151187 6.5441e-16)
(3.00018 -0.00013244 -2.28858e-16)
(3.00016 -5.20824e-05 -4.71499e-17)
(3.00015 -1.61518e-05 2.30241e-17)
(3.00015 -6.66182e-06 -2.3926e-17)
(3.00025 -0.000156884 5.29771e-16)
(3.00019 -0.000136792 -3.01801e-16)
(3.00016 -5.35401e-05 -4.44646e-17)
(3.00016 -1.65748e-05 1.69707e-17)
(3.00015 -6.93961e-06 -5.75644e-17)
(3.00026 -0.000162592 4.08175e-16)
(3.0002 -0.000141087 -2.95937e-16)
(3.00017 -5.49527e-05 -4.20957e-17)
(3.00016 -1.6986e-05 1.12775e-17)
(3.00016 -7.22043e-06 -5.7561e-17)
(3.00026 -0.0001683 3.98537e-16)
(3.0002 -0.000145314 -2.91172e-16)
(3.00018 -5.63154e-05 -8.85567e-17)
(3.00017 -1.73845e-05 5.93742e-18)
(3.00017 -7.5038e-06 -5.75508e-17)
(3.00027 -0.000174 6.03728e-16)
(3.00021 -0.000149463 -2.86329e-16)
(3.00018 -5.76251e-05 -8.30645e-17)
(3.00017 -1.77698e-05 3.67775e-17)
(3.00017 -7.78941e-06 -5.75299e-17)
(3.00027 -0.000179679 5.91198e-16)
(3.00021 -0.000153522 -2.81426e-16)
(3.00019 -5.88766e-05 -7.81761e-17)
(3.00018 -1.81408e-05 2.67106e-17)
(3.00018 -8.07689e-06 -8.93423e-17)
(3.00028 -0.00018533 5.77746e-16)
(3.00022 -0.000157484 -3.46982e-16)
(3.00019 -6.00681e-05 -2.56193e-17)
(3.00019 -1.84976e-05 5.71596e-17)
(3.00019 -8.36585e-06 -2.64619e-17)
(3.00028 -0.000190942 6.66194e-16)
(3.00023 -0.000161336 -4.09672e-16)
(3.0002 -6.1195e-05 -2.22443e-17)
(3.00019 -1.88394e-05 4.77642e-17)
(3.00019 -8.65596e-06 -5.73083e-17)
(3.00028 -0.000196505 6.50399e-16)
(3.00023 -0.000165069 -3.99961e-16)
(3.00021 -6.2254e-05 -2.09521e-17)
(3.0002 -1.91654e-05 5.35744e-18)
(3.0002 -8.94673e-06 -5.72147e-17)
(3.00029 -0.000202012 6.33667e-16)
(3.00024 -0.000168679 -4.57635e-16)
(3.00021 -6.32462e-05 2.43735e-17)
(3.00021 -1.94768e-05 6.15643e-20)
(3.0002 -9.23813e-06 -5.71756e-17)
(3.00029 -0.000207447 6.17057e-16)
(3.00024 -0.000172148 -4.451e-16)
(3.00022 -6.4162e-05 2.45041e-17)
(3.00021 -1.97709e-05 2.7601e-17)
(3.00021 -9.52926e-06 -5.72015e-17)
(3.0003 -0.000212811 6.00587e-16)
(3.00025 -0.00017548 -4.32707e-16)
(3.00023 -6.50083e-05 2.43652e-17)
(3.00022 -2.00507e-05 2.2599e-17)
(3.00022 -9.82038e-06 -2.81328e-17)
(3.0003 -0.000218091 5.84261e-16)
(3.00026 -0.000178661 -4.21597e-16)
(3.00023 -6.57777e-05 -1.68085e-17)
(3.00023 -2.0314e-05 4.70075e-17)
(3.00023 -1.01108e-05 -5.692e-17)
(3.00031 -0.000223266 7.55425e-16)
(3.00026 -0.000181674 -4.1063e-16)
(3.00024 -6.64667e-05 -1.42628e-17)
(3.00023 -2.05603e-05 3.51764e-17)
(3.00023 -1.03999e-05 -8.5261e-17)
(3.00031 -0.000228355 7.35368e-16)
(3.00027 -0.000184542 -4.61983e-16)
(3.00025 -6.70865e-05 -1.08015e-17)
(3.00024 -2.07938e-05 5.4681e-17)
(3.00024 -1.06884e-05 -8.5351e-17)
(3.00031 -0.000233321 7.15524e-16)
(3.00027 -0.000187222 -4.49814e-16)
(3.00025 -6.76174e-05 -9.6448e-18)
(3.00025 -2.10079e-05 1.19268e-17)
(3.00024 -1.09743e-05 -8.5407e-17)
(3.00032 -0.000238156 6.95904e-16)
(3.00028 -0.000189724 -4.37776e-16)
(3.00026 -6.80763e-05 -8.97338e-18)
(3.00025 -2.12102e-05 2.85706e-18)
(3.00025 -1.1259e-05 -8.54235e-17)
(3.00032 -0.000242904 8.52704e-16)
(3.00028 -0.000192072 -3.65682e-16)
(3.00026 -6.84546e-05 -8.74935e-18)
(3.00026 -2.13946e-05 -5.48085e-18)
(3.00025 -1.15404e-05 -8.54114e-17)
(3.00032 -0.000247444 8.31534e-16)
(3.00029 -0.000194184 -3.54481e-16)
(3.00027 -6.87515e-05 2.91295e-17)
(3.00026 -2.15666e-05 -1.3132e-17)
(3.00026 -1.18199e-05 -8.53881e-17)
(3.00032 -0.000251898 8.11681e-16)
(3.00029 -0.000196138 -2.84537e-16)
(3.00027 -6.89623e-05 6.38598e-17)
(3.00026 -2.17186e-05 -2.01423e-17)
(3.00026 -1.20943e-05 -8.53662e-17)
(3.00032 -0.000256165 6.26998e-16)
(3.00029 -0.000197894 -2.18832e-16)
(3.00027 -6.91152e-05 2.21756e-17)
(3.00027 -2.18646e-05 -2.65549e-17)
(3.00027 -1.23668e-05 -8.53493e-17)
(3.00032 -0.000260174 6.11745e-16)
(3.00029 -0.000199357 -2.11873e-16)
(3.00027 -6.91494e-05 2.18481e-17)
(3.00027 -2.1985e-05 1.6106e-17)
(3.00027 -1.26323e-05 -1.34609e-16)
(3.00032 -0.000264043 5.96768e-16)
(3.00029 -0.000200645 -2.04915e-16)
(3.00027 -6.91103e-05 2.06628e-17)
(3.00027 -2.20883e-05 9.07005e-19)
(3.00027 -1.28908e-05 -1.34549e-16)
(3.00031 -0.000267705 5.82031e-16)
(3.00029 -0.000201725 -1.98072e-16)
(3.00027 -6.9009e-05 1.57687e-17)
(3.00027 -2.21862e-05 -6.42762e-17)
(3.00026 -1.31453e-05 -1.34452e-16)
(3.00031 -0.000271119 5.67495e-16)
(3.00028 -0.000202559 -1.91404e-16)
(3.00027 -6.88227e-05 1.06714e-17)
(3.00026 -2.22658e-05 -7.15158e-17)
(3.00026 -1.33911e-05 -1.34346e-16)
(3.0003 -0.000274275 7.00657e-16)
(3.00028 -0.000203151 -2.36795e-16)
(3.00026 -6.85568e-05 5.42555e-18)
(3.00026 -2.23286e-05 -7.80877e-17)
(3.00026 -1.3627e-05 -1.3426e-16)
(3.00029 -0.000277155 6.84275e-16)
(3.00027 -0.000203506 -2.28901e-16)
(3.00026 -6.82213e-05 2.69657e-18)
(3.00025 -2.23775e-05 -4.04876e-17)
(3.00025 -1.3852e-05 -1.79089e-16)
(3.00028 -0.000279714 8.12261e-16)
(3.00026 -0.000203599 -2.1919e-16)
(3.00025 -6.78059e-05 6.3272e-17)
(3.00024 -2.24063e-05 -5.53418e-17)
(3.00024 -1.40623e-05 -1.7903e-16)
(3.00027 -0.000281894 7.91952e-16)
(3.00026 -0.000203408 -2.07868e-16)
(3.00024 -6.73105e-05 1.18003e-16)
(3.00024 -2.24137e-05 -6.86953e-17)
(3.00023 -1.4255e-05 -1.78935e-16)
(3.00026 -0.000283679 7.71851e-16)
(3.00024 -0.00020295 -1.97186e-16)
(3.00023 -6.67461e-05 1.05808e-16)
(3.00023 -2.23999e-05 -8.06314e-17)
(3.00022 -1.44265e-05 -1.78759e-16)
(3.00024 -0.000284994 7.51838e-16)
(3.00023 -0.000202191 -1.85089e-16)
(3.00022 -6.61042e-05 1.5365e-16)
(3.00022 -2.23586e-05 -9.12125e-17)
(3.00021 -1.45717e-05 -1.78442e-16)
(3.00023 -0.00028575 7.31814e-16)
(3.00022 -0.000201094 -1.73729e-16)
(3.00021 -6.53773e-05 1.37728e-16)
(3.0002 -2.2284e-05 -1.00477e-16)
(3.0002 -1.46849e-05 -1.77908e-16)
(3.00021 -0.000285949 4.47174e-16)
(3.00021 -0.000199701 -2.52811e-16)
(3.0002 -6.45804e-05 1.22836e-16)
(3.00019 -2.21741e-05 -1.03908e-16)
(3.00019 -1.47608e-05 -1.37291e-16)
(3.0002 -0.000285496 4.30539e-16)
(3.00019 -0.000197989 -2.37536e-16)
(3.00018 -6.37223e-05 1.62364e-16)
(3.00018 -2.20306e-05 -1.52501e-16)
(3.00018 -1.47954e-05 -1.75023e-16)
(3.00018 -0.000284315 4.15367e-16)
(3.00018 -0.00019592 -1.35192e-16)
(3.00017 -6.27822e-05 1.95797e-16)
(3.00016 -2.18387e-05 -1.89386e-16)
(3.00016 -1.47801e-05 -1.35195e-16)
(3.00016 -0.000282415 4.01414e-16)
(3.00016 -0.00019354 -3.87233e-17)
(3.00015 -6.17691e-05 1.72574e-16)
(3.00015 -2.15933e-05 -1.80681e-16)
(3.00015 -1.47104e-05 -1.32963e-16)
(3.00014 -0.000279717 3.86757e-16)
(3.00015 -0.000190816 -2.80335e-17)
(3.00014 -6.06913e-05 2.04468e-16)
(3.00014 -2.13024e-05 -1.63555e-16)
(3.00013 -1.45854e-05 -5.73057e-17)
(3.00013 -0.000276181 3.7138e-16)
(3.00013 -0.000187729 -1.94996e-17)
(3.00013 -5.95382e-05 1.3457e-16)
(3.00012 -2.09564e-05 -1.10193e-16)
(3.00012 -1.44013e-05 -5.39899e-17)
(3.00011 -0.000271867 3.55347e-16)
(3.00012 -0.000184324 -1.28458e-17)
(3.00011 -5.83161e-05 7.21868e-17)
(3.00011 -2.05563e-05 -9.91048e-17)
(3.00011 -1.41598e-05 -5.00627e-17)
(3.00009 -0.000266876 3.37123e-16)
(3.0001 -0.000180677 -8.10426e-17)
(3.0001 -5.70582e-05 1.10961e-16)
(3.00009 -2.01156e-05 -1.24822e-16)
(3.00009 -1.38672e-05 -4.57612e-17)
(3.00008 -0.000261238 3.18785e-16)
(3.00009 -0.000176759 -6.76186e-17)
(3.00008 -5.57308e-05 1.47027e-16)
(3.00008 -1.96233e-05 -1.10543e-16)
(3.00008 -1.35263e-05 -4.12789e-17)
(3.00006 -0.000255095 3.00516e-16)
(3.00008 -0.000172663 -5.42075e-17)
(3.00007 -5.43715e-05 1.3831e-16)
(3.00006 -1.90944e-05 -2.87283e-17)
(3.00006 -1.31477e-05 -3.67814e-17)
(3.00005 -0.00024871 2.80759e-16)
(3.00006 -0.000168583 -1.12641e-16)
(3.00005 -5.30571e-05 1.24786e-16)
(3.00005 -1.85596e-05 -1.00382e-16)
(3.00005 -1.27455e-05 -9.60175e-17)
(3.00003 -0.000242249 2.61335e-16)
(3.00005 -0.000164596 -9.70529e-17)
(3.00004 -5.17909e-05 1.12121e-16)
(3.00004 -1.80209e-05 -9.56544e-17)
(3.00003 -1.23263e-05 -9.18163e-17)
(3.00002 -0.000235709 2.42211e-16)
(3.00003 -0.000160685 -8.21859e-17)
(3.00003 -5.05874e-05 9.48545e-17)
(3.00002 -1.74898e-05 -1.62818e-16)
(3.00002 -1.18973e-05 -1.48038e-16)
(3.00001 -0.000229151 2.24816e-16)
(3.00002 -0.00015685 -5.36918e-18)
(3.00002 -4.94273e-05 -6.26932e-18)
(3.00001 -1.69607e-05 -1.57551e-16)
(3.00001 -1.14597e-05 -1.45262e-16)
(3 -0.000222339 1.71959e-17)
(3.00002 -0.000152825 -1.33655e-18)
(3.00001 -4.81888e-05 -9.81661e-17)
(3.00001 -1.63967e-05 -1.60423e-16)
(3 -1.10094e-05 -2.00013e-16)
(3 -0.000215397 1.86115e-16)
(3.00001 -0.000148805 2.75928e-18)
(3 -4.70234e-05 -1.05266e-16)
(3 -1.58476e-05 -2.21509e-16)
(3 -1.05567e-05 -1.96919e-16)
(3 -0.000208545 3.50944e-16)
(3.00001 -0.000144934 6.51191e-18)
(3.00001 -4.59457e-05 -1.11619e-16)
(3 -1.53238e-05 -2.15021e-16)
(3 -1.01128e-05 -1.93638e-16)
(2.99996 -0.00020224 1.52349e-16)
(2.99997 -0.000141474 1.30129e-17)
(2.99997 -4.50338e-05 -3.75709e-17)
(2.99996 -1.49528e-05 -1.60002e-16)
(2.99996 -9.75375e-06 -2.43346e-16)
)
;

boundaryField
{
    axis
    {
        type            empty;
    }
    inlet
    {
        type            fixedValue;
        value           uniform (3 0 0);
    }
    wall
    {
        type            zeroGradient;
    }
    outlet
    {
        type            zeroGradient;
    }
    front
    {
        type            wedge;
    }
    back
    {
        type            wedge;
    }
}


// ************************************************************************* //
