/*--------------------------------*- C++ -*----------------------------------*\
| =========                 |                                                 |
| \\      /  F ield         | OpenFOAM: The Open Source CFD Toolbox           |
|  \\    /   O peration     | Version:  4.1                                   |
|   \\  /    A nd           | Web:      www.OpenFOAM.org                      |
|    \\/     M anipulation  |                                                 |
\*---------------------------------------------------------------------------*/
FoamFile
{
    version     2.0;
    format      ascii;
    class       volScalarField;
    location    "1.4";
    object      T;
}
// * * * * * * * * * * * * * * * * * * * * * * * * * * * * * * * * * * * * * //

dimensions      [0 0 0 1 0 0 0];

internalField   nonuniform List<scalar> 
52500
(
0.999995
1.00001
1.00002
1.0001
1.00019
1.00062
1.00113
1.00356
1.0068
1.01956
1.04385
1.11059
1.29885
1.87534
2.5403
2.75638
2.75208
2.74696
2.76457
2.78483
2.80474
2.81023
2.80382
2.82342
2.8127
0.999995
1.00001
1.00002
1.0001
1.00019
1.00061
1.00112
1.00352
1.00672
1.01936
1.04339
1.10938
1.2957
1.86489
2.53819
2.75528
2.75091
2.74632
2.76365
2.78382
2.80339
2.80834
2.80158
2.8209
2.80871
0.999995
1.00001
1.00002
1.0001
1.00018
1.0006
1.00109
1.00344
1.00657
1.01895
1.04239
1.10701
1.28881
1.84357
2.53214
2.75124
2.74728
2.74399
2.76063
2.78122
2.80063
2.80555
2.79873
2.81766
2.80433
0.999995
1.00001
1.00002
1.00009
1.00017
1.00058
1.00105
1.00332
1.00632
1.01834
1.04081
1.10346
1.27865
1.81568
2.51397
2.74468
2.74157
2.7401
2.75694
2.77606
2.79544
2.79918
2.79164
2.81079
2.7989
0.999994
1.00001
1.00002
1.00009
1.00016
1.00054
1.00099
1.00313
1.00595
1.01725
1.03894
1.09643
1.26957
1.75565
2.49044
2.73917
2.73407
2.73756
2.75409
2.76885
2.78761
2.79264
2.78527
2.79958
2.78773
0.999994
1.00001
1.00002
1.00008
1.00015
1.00049
1.00091
1.00283
1.00556
1.01527
1.03748
1.08761
1.25873
1.67529
2.46277
2.72907
2.73087
2.73382
2.74458
2.76327
2.7777
2.78028
2.77203
2.7886
2.77806
0.999994
1
1.00002
1.00007
1.00013
1.00044
1.00082
1.0025
1.0051
1.01357
1.03496
1.07995
1.24366
1.60521
2.4097
2.70804
2.72665
2.72855
2.73301
2.74966
2.76401
2.76637
2.75886
2.7671
2.75765
0.999994
1
1.00001
1.00006
1.00012
1.00039
1.00073
1.00217
1.00461
1.01181
1.03183
1.07112
1.22486
1.5292
2.32742
2.67863
2.72093
2.7205
2.72171
2.73529
2.74761
2.74809
2.73731
2.7469
2.73438
0.999994
1
1.00001
1.00005
1.0001
1.00035
1.00065
1.00196
1.00407
1.01063
1.02795
1.06332
1.19755
1.46009
2.22109
2.64221
2.71387
2.70702
2.70608
2.71967
2.73023
2.72859
2.71224
2.70438
2.68217
0.999994
1
1.00001
1.00004
1.00009
1.00029
1.00055
1.00159
1.0035
1.00879
1.02405
1.05367
1.16857
1.389
2.05731
2.57185
2.70197
2.69802
2.69145
2.70116
2.70412
2.7012
2.6828
2.66064
2.60142
1
1.00002
1.00003
1.00011
1.0002
1.00063
1.00114
1.00357
1.00681
1.01957
1.04387
1.11062
1.29887
1.87544
2.54035
2.75644
2.75213
2.747
2.76461
2.78487
2.80481
2.81033
2.80393
2.82353
2.81282
1
1.00002
1.00003
1.00011
1.00019
1.00062
1.00113
1.00353
1.00673
1.01937
1.0434
1.10941
1.29572
1.86499
2.53824
2.75534
2.75096
2.74636
2.76369
2.78385
2.80346
2.80844
2.80169
2.82101
2.80882
1
1.00002
1.00003
1.0001
1.00019
1.00061
1.0011
1.00345
1.00658
1.01897
1.0424
1.10703
1.28883
1.84365
2.5322
2.75131
2.74733
2.74402
2.76066
2.78125
2.8007
2.80565
2.79884
2.81777
2.80443
1
1.00002
1.00003
1.0001
1.00018
1.00058
1.00106
1.00333
1.00633
1.01836
1.04082
1.10349
1.27866
1.81576
2.51406
2.74473
2.74161
2.74013
2.75696
2.77609
2.79552
2.79928
2.79174
2.81089
2.799
1
1.00001
1.00003
1.00009
1.00017
1.00055
1.001
1.00314
1.00596
1.01726
1.03896
1.09646
1.26957
1.75577
2.49052
2.73921
2.7341
2.73758
2.75411
2.76888
2.78768
2.79274
2.78538
2.79968
2.78782
1
1.00001
1.00003
1.00009
1.00016
1.0005
1.00091
1.00285
1.00557
1.01529
1.03749
1.08764
1.25873
1.67539
2.46285
2.72912
2.7309
2.73384
2.74461
2.7633
2.77778
2.78038
2.77213
2.7887
2.77815
1
1.00001
1.00002
1.00008
1.00014
1.00045
1.00083
1.00251
1.00511
1.01359
1.03496
1.07998
1.24366
1.60529
2.40982
2.70809
2.72669
2.72859
2.73306
2.74971
2.76409
2.76646
2.75896
2.76719
2.75772
1
1.00001
1.00002
1.00007
1.00012
1.0004
1.00074
1.00218
1.00462
1.01182
1.03184
1.07116
1.2249
1.52934
2.32754
2.67868
2.72096
2.72053
2.72174
2.73532
2.74768
2.74818
2.73741
2.74699
2.73445
1
1.00001
1.00002
1.00006
1.00011
1.00036
1.00066
1.00197
1.00408
1.01065
1.02796
1.06335
1.19758
1.4602
2.22127
2.64229
2.71391
2.70707
2.70612
2.71969
2.7303
2.72867
2.71233
2.70446
2.68223
1
1.00001
1.00002
1.00005
1.00009
1.00029
1.00056
1.0016
1.00351
1.00881
1.02407
1.0537
1.16862
1.38912
2.05759
2.57191
2.702
2.69806
2.69151
2.70122
2.70422
2.70131
2.6829
2.66072
2.60146
1
1.00002
1.00003
1.00011
1.0002
1.00063
1.00114
1.00357
1.00681
1.01957
1.04387
1.11062
1.29887
1.87545
2.54034
2.75644
2.75212
2.747
2.76461
2.78486
2.80481
2.81033
2.80393
2.82353
2.81283
1
1.00002
1.00003
1.00011
1.00019
1.00062
1.00113
1.00353
1.00673
1.01937
1.0434
1.10941
1.29572
1.86499
2.53824
2.75534
2.75096
2.74635
2.76368
2.78385
2.80346
2.80844
2.80169
2.82101
2.80883
1
1.00002
1.00003
1.0001
1.00019
1.00061
1.0011
1.00345
1.00658
1.01897
1.0424
1.10703
1.28883
1.84365
2.5322
2.75131
2.74733
2.74402
2.76066
2.78125
2.8007
2.80565
2.79884
2.81777
2.80445
1
1.00002
1.00003
1.0001
1.00018
1.00058
1.00106
1.00333
1.00633
1.01836
1.04082
1.10349
1.27866
1.81576
2.51406
2.74472
2.74161
2.74012
2.75696
2.77608
2.79552
2.79928
2.79174
2.81089
2.79901
1
1.00001
1.00003
1.00009
1.00017
1.00055
1.001
1.00314
1.00596
1.01726
1.03896
1.09646
1.26957
1.75577
2.49052
2.73921
2.7341
2.73758
2.75411
2.76888
2.78768
2.79274
2.78538
2.79968
2.78784
1
1.00001
1.00003
1.00009
1.00016
1.0005
1.00091
1.00285
1.00557
1.01529
1.03749
1.08764
1.25873
1.6754
2.46285
2.72912
2.7309
2.73384
2.74461
2.7633
2.77778
2.78038
2.77213
2.7887
2.77816
1
1.00001
1.00002
1.00008
1.00014
1.00045
1.00083
1.00251
1.00511
1.01359
1.03496
1.07998
1.24366
1.60529
2.40982
2.70809
2.72668
2.72859
2.73306
2.74971
2.76409
2.76646
2.75896
2.76719
2.75773
1
1.00001
1.00002
1.00007
1.00012
1.0004
1.00074
1.00218
1.00462
1.01182
1.03184
1.07116
1.2249
1.52935
2.32754
2.67868
2.72096
2.72053
2.72174
2.73532
2.74768
2.74818
2.73741
2.74699
2.73446
1
1.00001
1.00002
1.00006
1.00011
1.00036
1.00066
1.00197
1.00408
1.01065
1.02796
1.06335
1.19759
1.4602
2.22127
2.64229
2.71391
2.70707
2.70612
2.71969
2.7303
2.72867
2.71233
2.70446
2.68224
1
1.00001
1.00002
1.00005
1.00009
1.00029
1.00056
1.0016
1.00351
1.00881
1.02407
1.0537
1.16862
1.38912
2.05759
2.57191
2.702
2.69806
2.69151
2.70122
2.70422
2.70131
2.6829
2.66072
2.60147
1
1.00002
1.00003
1.00011
1.0002
1.00063
1.00114
1.00357
1.00681
1.01957
1.04387
1.11062
1.29887
1.87545
2.54034
2.75644
2.75212
2.747
2.76461
2.78486
2.80481
2.81033
2.80393
2.82353
2.81283
1
1.00002
1.00003
1.00011
1.00019
1.00062
1.00113
1.00353
1.00673
1.01937
1.0434
1.10941
1.29572
1.86499
2.53824
2.75534
2.75096
2.74635
2.76368
2.78385
2.80346
2.80844
2.80169
2.82101
2.80884
1
1.00002
1.00003
1.0001
1.00019
1.00061
1.0011
1.00345
1.00658
1.01897
1.0424
1.10703
1.28883
1.84366
2.5322
2.75131
2.74733
2.74402
2.76066
2.78125
2.8007
2.80565
2.79884
2.81777
2.80445
1
1.00002
1.00003
1.0001
1.00018
1.00058
1.00106
1.00333
1.00633
1.01836
1.04082
1.10349
1.27866
1.81576
2.51406
2.74472
2.74161
2.74012
2.75696
2.77608
2.79552
2.79928
2.79175
2.81089
2.79901
1
1.00001
1.00003
1.00009
1.00017
1.00055
1.001
1.00314
1.00596
1.01726
1.03896
1.09646
1.26957
1.75577
2.49052
2.73921
2.7341
2.73758
2.75411
2.76888
2.78768
2.79274
2.78538
2.79968
2.78784
1
1.00001
1.00003
1.00009
1.00016
1.0005
1.00091
1.00285
1.00557
1.01529
1.03749
1.08764
1.25874
1.6754
2.46285
2.72912
2.7309
2.73384
2.74461
2.7633
2.77778
2.78038
2.77213
2.7887
2.77816
1
1.00001
1.00002
1.00008
1.00014
1.00045
1.00083
1.00251
1.00511
1.01359
1.03496
1.07998
1.24366
1.60529
2.40982
2.70809
2.72668
2.72859
2.73306
2.74971
2.76409
2.76646
2.75896
2.76719
2.75774
1
1.00001
1.00002
1.00007
1.00012
1.0004
1.00074
1.00218
1.00462
1.01182
1.03184
1.07116
1.2249
1.52935
2.32754
2.67868
2.72096
2.72053
2.72174
2.73532
2.74768
2.74818
2.73741
2.74699
2.73446
1
1.00001
1.00002
1.00006
1.00011
1.00036
1.00066
1.00197
1.00408
1.01065
1.02796
1.06335
1.19759
1.46021
2.22127
2.64229
2.71391
2.70707
2.70612
2.71969
2.7303
2.72867
2.71233
2.70446
2.68224
1
1.00001
1.00002
1.00005
1.00009
1.00029
1.00056
1.0016
1.00351
1.00881
1.02407
1.0537
1.16863
1.38912
2.0576
2.57191
2.702
2.69806
2.69151
2.70122
2.70422
2.70131
2.6829
2.66072
2.60147
1
1.00002
1.00003
1.00011
1.0002
1.00063
1.00114
1.00357
1.00681
1.01957
1.04387
1.11062
1.29887
1.87545
2.54034
2.75644
2.75212
2.747
2.76461
2.78486
2.80481
2.81033
2.80393
2.82353
2.81282
1
1.00002
1.00003
1.00011
1.00019
1.00062
1.00113
1.00353
1.00673
1.01937
1.0434
1.10941
1.29572
1.86499
2.53824
2.75534
2.75096
2.74635
2.76368
2.78385
2.80346
2.80844
2.80169
2.82101
2.80883
1
1.00002
1.00003
1.0001
1.00019
1.00061
1.0011
1.00345
1.00658
1.01897
1.0424
1.10704
1.28883
1.84366
2.5322
2.75131
2.74733
2.74402
2.76065
2.78125
2.8007
2.80565
2.79884
2.81777
2.80444
1
1.00002
1.00003
1.0001
1.00018
1.00058
1.00106
1.00333
1.00633
1.01836
1.04082
1.1035
1.27866
1.81576
2.51407
2.74472
2.74161
2.74012
2.75696
2.77608
2.79552
2.79928
2.79175
2.8109
2.79901
1
1.00001
1.00003
1.00009
1.00017
1.00055
1.001
1.00314
1.00596
1.01726
1.03896
1.09646
1.26957
1.75578
2.49052
2.73921
2.7341
2.73758
2.75411
2.76888
2.78768
2.79274
2.78538
2.79968
2.78783
1
1.00001
1.00003
1.00009
1.00016
1.0005
1.00091
1.00285
1.00557
1.01529
1.03749
1.08764
1.25874
1.6754
2.46285
2.72912
2.7309
2.73384
2.74461
2.7633
2.77778
2.78038
2.77213
2.7887
2.77816
1
1.00001
1.00002
1.00008
1.00014
1.00045
1.00083
1.00251
1.00511
1.01359
1.03496
1.07998
1.24366
1.60529
2.40983
2.70809
2.72668
2.72858
2.73306
2.74971
2.76409
2.76646
2.75896
2.76719
2.75773
1
1.00001
1.00002
1.00007
1.00012
1.0004
1.00074
1.00218
1.00462
1.01182
1.03184
1.07116
1.2249
1.52935
2.32754
2.67868
2.72096
2.72053
2.72174
2.73531
2.74768
2.74818
2.73741
2.74699
2.73446
1
1.00001
1.00002
1.00006
1.00011
1.00036
1.00066
1.00197
1.00408
1.01065
1.02796
1.06335
1.19759
1.46021
2.22128
2.64229
2.71391
2.70706
2.70612
2.71969
2.73029
2.72867
2.71233
2.70446
2.68224
1
1.00001
1.00002
1.00005
1.00009
1.00029
1.00056
1.0016
1.00351
1.00881
1.02407
1.0537
1.16863
1.38912
2.0576
2.57191
2.702
2.69805
2.69151
2.70122
2.70422
2.70131
2.6829
2.66072
2.60147
1
1.00002
1.00003
1.00011
1.0002
1.00063
1.00114
1.00357
1.00681
1.01957
1.04387
1.11062
1.29887
1.87545
2.54034
2.75644
2.75212
2.747
2.76461
2.78486
2.80481
2.81033
2.80393
2.82353
2.81283
1
1.00002
1.00003
1.00011
1.00019
1.00062
1.00113
1.00353
1.00673
1.01937
1.0434
1.10941
1.29572
1.86499
2.53824
2.75534
2.75096
2.74635
2.76368
2.78385
2.80346
2.80844
2.80169
2.82101
2.80884
1
1.00002
1.00003
1.0001
1.00019
1.00061
1.0011
1.00345
1.00658
1.01897
1.0424
1.10703
1.28883
1.84366
2.5322
2.75131
2.74733
2.74402
2.76065
2.78125
2.8007
2.80565
2.79884
2.81777
2.80445
1
1.00002
1.00003
1.0001
1.00018
1.00058
1.00106
1.00333
1.00633
1.01836
1.04082
1.10349
1.27866
1.81576
2.51406
2.74472
2.74161
2.74012
2.75696
2.77608
2.79552
2.79928
2.79175
2.8109
2.79901
1
1.00001
1.00003
1.00009
1.00017
1.00055
1.001
1.00314
1.00596
1.01726
1.03896
1.09646
1.26957
1.75578
2.49052
2.73921
2.7341
2.73758
2.75411
2.76888
2.78768
2.79274
2.78538
2.79968
2.78784
1
1.00001
1.00003
1.00009
1.00016
1.0005
1.00091
1.00285
1.00557
1.01529
1.03749
1.08764
1.25874
1.6754
2.46285
2.72912
2.7309
2.73384
2.74461
2.7633
2.77778
2.78038
2.77213
2.7887
2.77816
1
1.00001
1.00002
1.00008
1.00014
1.00045
1.00083
1.00251
1.00511
1.01359
1.03496
1.07998
1.24366
1.60529
2.40982
2.70809
2.72668
2.72859
2.73306
2.74971
2.76409
2.76646
2.75896
2.76719
2.75773
1
1.00001
1.00002
1.00007
1.00012
1.0004
1.00074
1.00218
1.00462
1.01182
1.03184
1.07116
1.2249
1.52935
2.32754
2.67868
2.72096
2.72053
2.72174
2.73531
2.74768
2.74818
2.73741
2.74699
2.73446
1
1.00001
1.00002
1.00006
1.00011
1.00036
1.00066
1.00197
1.00408
1.01065
1.02796
1.06335
1.19759
1.46021
2.22127
2.64229
2.71391
2.70707
2.70612
2.71969
2.7303
2.72867
2.71233
2.70446
2.68224
1
1.00001
1.00002
1.00005
1.00009
1.00029
1.00056
1.0016
1.00351
1.00881
1.02407
1.0537
1.16863
1.38912
2.0576
2.57191
2.702
2.69806
2.69151
2.70122
2.70422
2.70131
2.6829
2.66072
2.60147
1
1.00002
1.00003
1.00011
1.0002
1.00063
1.00114
1.00357
1.00681
1.01957
1.04387
1.11062
1.29887
1.87545
2.54034
2.75644
2.75212
2.747
2.76461
2.78486
2.80481
2.81033
2.80393
2.82353
2.81283
1
1.00002
1.00003
1.00011
1.00019
1.00062
1.00113
1.00353
1.00673
1.01937
1.0434
1.10941
1.29572
1.86499
2.53824
2.75534
2.75096
2.74635
2.76368
2.78385
2.80346
2.80844
2.80169
2.82101
2.80884
1
1.00002
1.00003
1.0001
1.00019
1.00061
1.0011
1.00345
1.00658
1.01897
1.0424
1.10703
1.28883
1.84366
2.5322
2.75131
2.74733
2.74402
2.76066
2.78125
2.8007
2.80565
2.79884
2.81777
2.80445
1
1.00002
1.00003
1.0001
1.00018
1.00058
1.00106
1.00333
1.00633
1.01836
1.04082
1.10349
1.27866
1.81576
2.51406
2.74472
2.74161
2.74012
2.75696
2.77608
2.79552
2.79928
2.79175
2.81089
2.79901
1
1.00001
1.00003
1.00009
1.00017
1.00055
1.001
1.00314
1.00596
1.01726
1.03896
1.09646
1.26957
1.75577
2.49052
2.73921
2.7341
2.73758
2.75411
2.76888
2.78768
2.79274
2.78538
2.79968
2.78784
1
1.00001
1.00003
1.00009
1.00016
1.0005
1.00091
1.00285
1.00557
1.01529
1.03749
1.08764
1.25874
1.6754
2.46285
2.72912
2.7309
2.73384
2.74461
2.7633
2.77778
2.78038
2.77213
2.7887
2.77816
1
1.00001
1.00002
1.00008
1.00014
1.00045
1.00083
1.00251
1.00511
1.01359
1.03496
1.07998
1.24366
1.60529
2.40982
2.70809
2.72668
2.72859
2.73306
2.74971
2.76409
2.76646
2.75896
2.76719
2.75774
1
1.00001
1.00002
1.00007
1.00012
1.0004
1.00074
1.00218
1.00462
1.01182
1.03184
1.07116
1.2249
1.52935
2.32754
2.67868
2.72096
2.72053
2.72174
2.73532
2.74768
2.74818
2.73741
2.74699
2.73446
1
1.00001
1.00002
1.00006
1.00011
1.00036
1.00066
1.00197
1.00408
1.01065
1.02796
1.06335
1.19759
1.46021
2.22127
2.64229
2.71391
2.70707
2.70612
2.71969
2.7303
2.72867
2.71233
2.70446
2.68224
1
1.00001
1.00002
1.00005
1.00009
1.00029
1.00056
1.0016
1.00351
1.00881
1.02407
1.0537
1.16863
1.38912
2.0576
2.57191
2.702
2.69806
2.69151
2.70122
2.70422
2.70131
2.6829
2.66072
2.60147
1
1.00002
1.00003
1.00011
1.0002
1.00063
1.00114
1.00357
1.00681
1.01957
1.04387
1.11062
1.29887
1.87545
2.54034
2.75644
2.75212
2.747
2.76461
2.78486
2.80481
2.81033
2.80393
2.82353
2.81283
1
1.00002
1.00003
1.00011
1.00019
1.00062
1.00113
1.00353
1.00673
1.01937
1.0434
1.10941
1.29572
1.86499
2.53824
2.75534
2.75096
2.74635
2.76368
2.78385
2.80346
2.80844
2.80169
2.82101
2.80883
1
1.00002
1.00003
1.0001
1.00019
1.00061
1.0011
1.00345
1.00658
1.01897
1.0424
1.10703
1.28883
1.84365
2.5322
2.75131
2.74733
2.74402
2.76066
2.78125
2.8007
2.80565
2.79884
2.81777
2.80445
1
1.00002
1.00003
1.0001
1.00018
1.00058
1.00106
1.00333
1.00633
1.01836
1.04082
1.10349
1.27866
1.81576
2.51406
2.74472
2.74161
2.74012
2.75696
2.77608
2.79552
2.79928
2.79174
2.81089
2.79901
1
1.00001
1.00003
1.00009
1.00017
1.00055
1.001
1.00314
1.00596
1.01726
1.03896
1.09646
1.26957
1.75577
2.49052
2.73921
2.7341
2.73758
2.75411
2.76888
2.78768
2.79274
2.78538
2.79968
2.78784
1
1.00001
1.00003
1.00009
1.00016
1.0005
1.00091
1.00285
1.00557
1.01529
1.03749
1.08764
1.25873
1.6754
2.46285
2.72912
2.7309
2.73384
2.74461
2.7633
2.77778
2.78038
2.77213
2.7887
2.77816
1
1.00001
1.00002
1.00008
1.00014
1.00045
1.00083
1.00251
1.00511
1.01359
1.03496
1.07998
1.24366
1.60529
2.40982
2.70809
2.72668
2.72859
2.73306
2.74971
2.76409
2.76646
2.75896
2.76719
2.75773
1
1.00001
1.00002
1.00007
1.00012
1.0004
1.00074
1.00218
1.00462
1.01182
1.03184
1.07116
1.2249
1.52935
2.32754
2.67868
2.72096
2.72053
2.72174
2.73532
2.74768
2.74818
2.73741
2.74699
2.73446
1
1.00001
1.00002
1.00006
1.00011
1.00036
1.00066
1.00197
1.00408
1.01065
1.02796
1.06335
1.19759
1.4602
2.22127
2.64229
2.71391
2.70707
2.70612
2.71969
2.7303
2.72867
2.71233
2.70446
2.68224
1
1.00001
1.00002
1.00005
1.00009
1.00029
1.00056
1.0016
1.00351
1.00881
1.02407
1.0537
1.16862
1.38912
2.05759
2.57191
2.702
2.69806
2.69151
2.70122
2.70422
2.70131
2.6829
2.66072
2.60147
1
1.00002
1.00003
1.00011
1.0002
1.00063
1.00114
1.00357
1.00681
1.01957
1.04387
1.11062
1.29887
1.87544
2.54035
2.75644
2.75213
2.747
2.76461
2.78487
2.80481
2.81033
2.80393
2.82353
2.81282
1
1.00002
1.00003
1.00011
1.00019
1.00062
1.00113
1.00353
1.00673
1.01937
1.0434
1.10941
1.29572
1.86499
2.53824
2.75534
2.75096
2.74636
2.76369
2.78385
2.80346
2.80844
2.80169
2.82101
2.80882
1
1.00002
1.00003
1.0001
1.00019
1.00061
1.0011
1.00345
1.00658
1.01897
1.0424
1.10703
1.28883
1.84365
2.5322
2.75131
2.74733
2.74402
2.76066
2.78125
2.8007
2.80565
2.79884
2.81777
2.80443
1
1.00002
1.00003
1.0001
1.00018
1.00058
1.00106
1.00333
1.00633
1.01836
1.04082
1.10349
1.27866
1.81576
2.51406
2.74473
2.74161
2.74013
2.75696
2.77609
2.79552
2.79928
2.79174
2.81089
2.799
1
1.00001
1.00003
1.00009
1.00017
1.00055
1.001
1.00314
1.00596
1.01726
1.03896
1.09646
1.26957
1.75577
2.49052
2.73921
2.7341
2.73758
2.75411
2.76888
2.78768
2.79274
2.78538
2.79968
2.78782
1
1.00001
1.00003
1.00009
1.00016
1.0005
1.00091
1.00285
1.00557
1.01529
1.03749
1.08764
1.25873
1.67539
2.46285
2.72912
2.7309
2.73384
2.74461
2.7633
2.77778
2.78038
2.77213
2.7887
2.77815
1
1.00001
1.00002
1.00008
1.00014
1.00045
1.00083
1.00251
1.00511
1.01359
1.03496
1.07998
1.24366
1.60529
2.40982
2.70809
2.72669
2.72859
2.73306
2.74971
2.76409
2.76646
2.75896
2.76719
2.75772
1
1.00001
1.00002
1.00007
1.00012
1.0004
1.00074
1.00218
1.00462
1.01182
1.03184
1.07116
1.2249
1.52934
2.32754
2.67868
2.72096
2.72053
2.72174
2.73532
2.74768
2.74818
2.73741
2.74699
2.73445
1
1.00001
1.00002
1.00006
1.00011
1.00036
1.00066
1.00197
1.00408
1.01065
1.02796
1.06335
1.19758
1.4602
2.22127
2.64229
2.71391
2.70707
2.70612
2.71969
2.7303
2.72867
2.71233
2.70446
2.68223
1
1.00001
1.00002
1.00005
1.00009
1.00029
1.00056
1.0016
1.00351
1.00881
1.02407
1.0537
1.16862
1.38912
2.05759
2.57191
2.702
2.69806
2.69151
2.70122
2.70422
2.70131
2.6829
2.66072
2.60146
0.999995
1.00001
1.00002
1.0001
1.00019
1.00062
1.00113
1.00356
1.0068
1.01956
1.04385
1.11059
1.29885
1.87534
2.5403
2.75638
2.75208
2.74696
2.76457
2.78483
2.80474
2.81023
2.80382
2.82342
2.81271
0.999995
1.00001
1.00002
1.0001
1.00019
1.00061
1.00112
1.00352
1.00672
1.01936
1.04339
1.10938
1.2957
1.86489
2.53819
2.75528
2.75091
2.74632
2.76365
2.78382
2.80339
2.80834
2.80158
2.8209
2.80872
0.999995
1.00001
1.00002
1.0001
1.00018
1.0006
1.00109
1.00344
1.00657
1.01895
1.04239
1.10701
1.28881
1.84357
2.53213
2.75124
2.74728
2.74399
2.76063
2.78122
2.80063
2.80555
2.79873
2.81766
2.80434
0.999995
1.00001
1.00002
1.00009
1.00017
1.00058
1.00105
1.00332
1.00632
1.01834
1.04081
1.10346
1.27865
1.81567
2.51397
2.74468
2.74157
2.7401
2.75694
2.77606
2.79544
2.79918
2.79164
2.81079
2.7989
0.999994
1.00001
1.00002
1.00009
1.00016
1.00054
1.00099
1.00313
1.00595
1.01725
1.03894
1.09643
1.26957
1.75565
2.49044
2.73917
2.73407
2.73756
2.75409
2.76885
2.78761
2.79264
2.78527
2.79958
2.78774
0.999994
1.00001
1.00002
1.00008
1.00015
1.00049
1.00091
1.00283
1.00556
1.01527
1.03748
1.08761
1.25873
1.67529
2.46277
2.72907
2.73087
2.73382
2.74458
2.76327
2.7777
2.78028
2.77203
2.7886
2.77807
0.999994
1
1.00002
1.00007
1.00013
1.00044
1.00082
1.0025
1.0051
1.01357
1.03496
1.07995
1.24366
1.60521
2.4097
2.70804
2.72665
2.72855
2.73301
2.74967
2.76401
2.76637
2.75886
2.7671
2.75765
0.999994
1
1.00001
1.00006
1.00012
1.00039
1.00073
1.00217
1.00461
1.01181
1.03183
1.07112
1.22486
1.5292
2.32742
2.67863
2.72093
2.7205
2.72171
2.73529
2.74761
2.74809
2.73731
2.7469
2.73438
0.999994
1
1.00001
1.00005
1.0001
1.00035
1.00065
1.00196
1.00407
1.01063
1.02795
1.06332
1.19755
1.46009
2.22108
2.64221
2.71387
2.70702
2.70608
2.71967
2.73023
2.72859
2.71224
2.70438
2.68217
0.999994
1
1.00001
1.00004
1.00009
1.00029
1.00055
1.00159
1.0035
1.00879
1.02405
1.05367
1.16857
1.389
2.0573
2.57185
2.70197
2.69802
2.69145
2.70116
2.70412
2.7012
2.6828
2.66064
2.60142
0.999995
0.999998
1.00001
1.00003
1.0001
1.0002
1.00064
1.00121
1.00366
1.0075
1.02004
1.05115
1.11853
1.34778
1.95747
2.50126
2.6725
2.67048
2.66183
2.66625
2.66565
2.65821
2.62814
2.57296
2.38594
0.999995
0.999997
1.00001
1.00002
1.00009
1.00017
1.00056
1.00102
1.00324
1.00616
1.01809
1.03963
1.10295
1.26929
1.80031
2.41696
2.64264
2.63029
2.63441
2.63531
2.63346
2.62006
2.58386
2.51023
2.30739
0.999994
0.999996
1.00001
1.00002
1.00007
1.00013
1.00045
1.00083
1.00263
1.00505
1.01423
1.03361
1.08036
1.23327
1.59945
2.34757
2.61545
2.61645
2.61722
2.61655
2.6107
2.58948
2.54172
2.47446
2.30885
0.999994
0.999995
1
1.00001
1.00006
1.00011
1.00036
1.00067
1.00202
1.00417
1.01089
1.02832
1.0642
1.19845
1.45969
2.19384
2.55791
2.60756
2.59672
2.59092
2.58147
2.56093
2.50874
2.45088
2.32374
0.999994
0.999995
1
1.00001
1.00004
1.00008
1.00028
1.00053
1.00161
1.00332
1.0087
1.02229
1.05125
1.15562
1.35825
1.96383
2.45706
2.59029
2.58285
2.57515
2.55827
2.53642
2.48487
2.42902
2.3315
0.999993
0.999994
0.999997
1.00001
1.00002
1.00009
1.00017
1.00056
1.00106
1.00322
1.00645
1.01791
1.04142
1.10443
1.27462
1.80905
2.32634
2.53312
2.54211
2.53962
2.5297
2.51171
2.4699
2.40966
2.33079
0.999993
0.999994
0.999996
1
1.00002
1.00007
1.00013
1.00044
1.00081
1.00258
1.00487
1.01417
1.03151
1.07745
1.21447
1.56256
2.23539
2.49871
2.51333
2.50651
2.48993
2.47189
2.44237
2.3966
2.32807
0.999992
0.999993
0.999994
1
1.00001
1.00005
1.0001
1.00032
1.0006
1.00179
1.00375
1.00966
1.02502
1.05709
1.17281
1.40426
2.02123
2.41431
2.48768
2.48155
2.46876
2.44138
2.40774
2.36613
2.31584
0.999992
0.999992
0.999994
0.999997
1.00001
1.00002
1.0001
1.00019
1.0006
1.00113
1.00341
1.00691
1.01863
1.04576
1.10867
1.30388
1.83223
2.29709
2.45669
2.45493
2.4466
2.42759
2.39412
2.35036
2.30089
0.999992
0.999992
0.999993
0.999995
1
1.00002
1.00007
1.00013
1.00044
1.00082
1.00257
1.00492
1.01433
1.03102
1.08109
1.20452
1.6074
2.10469
2.3874
2.41152
2.40543
2.39298
2.36963
2.33243
2.28531
0.999991
0.999992
0.999992
0.999995
0.999998
1.00001
1.00003
1.00012
1.00023
1.00074
1.00142
1.00404
1.00883
1.02208
1.06038
1.1318
1.40598
1.98935
2.29774
2.38612
2.38603
2.37019
2.35039
2.31911
2.27844
0.999991
0.999991
0.999992
0.999994
0.999996
1.00001
1.00002
1.00009
1.00017
1.00054
1.001
1.0031
1.006
1.01714
1.03765
1.09782
1.24502
1.73111
2.15705
2.33159
2.34738
2.34123
2.3272
2.30216
2.26977
0.999991
0.999991
0.999992
0.999992
0.999995
0.999999
1.00002
1.00004
1.00014
1.00027
1.00085
1.00164
1.00461
1.01023
1.02528
1.06965
1.15027
1.46042
2.05763
2.27168
2.31206
2.30847
2.29841
2.27933
2.25253
0.999991
0.999991
0.999991
0.999992
0.999994
0.999997
1.00001
1.00003
1.0001
1.00019
1.00062
1.00115
1.00355
1.00685
1.0194
1.04386
1.10944
1.29026
1.81841
2.15851
2.27785
2.27728
2.2689
2.25565
2.22827
0.999991
0.999991
0.999991
0.999992
0.999992
0.999996
1
1.00002
1.00005
1.00016
1.0003
1.00094
1.0018
1.00522
1.011
1.02843
1.07389
1.16893
1.4689
2.02996
2.22875
2.2503
2.24615
2.23304
2.20985
0.999991
0.999991
0.999991
0.999991
0.999992
0.999994
0.999997
1.00001
1.00003
1.00011
1.0002
1.00065
1.0012
1.00369
1.00715
1.02
1.04588
1.11103
1.30237
1.80576
2.11461
2.22194
2.22043
2.20765
2.19219
0.999991
0.999991
0.999991
0.999991
0.999992
0.999992
0.999996
1
1.00002
1.00005
1.00016
1.00031
1.00096
1.00182
1.00534
1.01104
1.02871
1.07252
1.16947
1.45236
1.97518
2.16837
2.19388
2.19173
2.17423
0.999991
0.999991
0.999991
0.999991
0.999991
0.999992
0.999994
0.999997
1.00001
1.00003
1.0001
1.0002
1.00063
1.00117
1.00357
1.00691
1.01926
1.04406
1.10591
1.28765
1.75575
2.05381
2.16162
2.16676
2.15981
0.999991
0.999991
0.999991
0.999991
0.999991
0.999992
0.999992
0.999996
1
1.00002
1.00004
1.00015
1.00029
1.00088
1.0017
1.00485
1.01034
1.02632
1.06829
1.15462
1.42301
1.92051
2.10488
2.13218
2.13192
0.999991
0.999991
0.999991
0.999991
0.999991
0.999991
0.999992
0.999993
0.999998
1
1.00003
1.00007
1.00023
1.00043
1.00131
1.00253
1.00715
1.0155
1.03876
1.10166
1.23745
1.60962
1.97787
2.10494
2.10989
0.999991
0.999991
0.999991
0.999991
0.999991
0.999991
0.999991
0.999992
0.999995
0.999999
1.00002
1.00004
1.00014
1.00025
1.00081
1.00149
1.00447
1.00891
1.02368
1.05864
1.1321
1.36996
1.82107
2.03552
2.08428
0.999991
0.999991
0.999991
0.999991
0.999991
0.999991
0.999991
0.999992
0.999993
0.999997
1
1.00003
1.00006
1.00019
1.00036
1.0011
1.00212
1.00596
1.01291
1.03153
1.08226
1.18542
1.49266
1.86701
2.04364
0.999991
0.999991
0.999991
0.999991
0.999991
0.999991
0.999991
0.999991
0.999992
0.999995
0.999998
1.00001
1.00003
1.00011
1.00021
1.00068
1.00124
1.0037
1.00739
1.0191
1.04808
1.10447
1.30781
1.69887
1.9561
0.999991
0.999991
0.999991
0.999991
0.999991
0.999991
0.999991
0.999991
0.999991
0.999993
0.999995
1
1.00001
1.00006
1.00012
1.00039
1.00072
1.00221
1.00415
1.01201
1.02431
1.06578
1.14695
1.43636
1.75886
0.999991
0.999991
0.999991
0.999991
0.999991
0.999991
0.999991
0.999991
0.999991
0.999992
0.999993
0.999998
1
1.00003
1.00006
1.00021
1.0004
1.00123
1.00228
1.00676
1.01323
1.03627
1.08059
1.21266
1.48366
0.999991
0.999991
0.999991
0.999991
0.999991
0.999991
0.999991
0.999991
0.999991
0.999991
0.999992
0.999994
1
1.00001
1.00004
1.00009
1.00028
1.00054
1.00158
1.0031
1.00868
1.01813
1.04836
1.10756
1.3153
0.999991
0.999991
0.999991
0.999991
0.999991
0.999991
0.999991
0.999991
0.999991
0.999991
0.999991
0.999993
0.999995
1
1.00001
1.00006
1.00012
1.00037
1.0007
1.00204
1.00404
1.0111
1.0234
1.06173
1.13743
0.999991
0.999991
0.999991
0.999991
0.999991
0.999991
0.999991
0.999991
0.999991
0.999991
0.999991
0.999992
0.999993
0.999996
1.00001
1.00002
1.00008
1.00015
1.00047
1.00088
1.00257
1.00508
1.01351
1.03066
1.07175
0.999991
0.999991
0.999991
0.999991
0.999991
0.999991
0.999991
0.999991
0.999991
0.999991
0.999991
0.999991
0.999992
0.999993
0.999999
1.00001
1.00004
1.00008
1.00025
1.00047
1.00141
1.00267
1.00763
1.01546
1.0408
0.999991
0.999991
0.999991
0.999991
0.999991
0.999991
0.999991
0.999991
0.999991
0.999991
0.999991
0.999991
0.999991
0.999993
0.999994
1
1.00001
1.00005
1.0001
1.00031
1.00059
1.00172
1.00338
1.00937
1.01929
0.999991
0.999991
0.999991
0.999991
0.999991
0.999991
0.999991
0.999991
0.999991
0.999991
0.999991
0.999991
0.999991
0.999991
0.999993
0.999995
1
1.00001
1.00006
1.00012
1.00037
1.00072
1.00206
1.0041
1.01095
0.999991
0.999991
0.999991
0.999991
0.999991
0.999991
0.999991
0.999991
0.999991
0.999991
0.999991
0.999991
0.999991
0.999991
0.999992
0.999993
0.999996
1.00001
1.00002
1.00007
1.00015
1.00045
1.00085
1.00245
1.00483
0.999991
0.999991
0.999991
0.999991
0.999991
0.999991
0.999991
0.999991
0.999991
0.999991
0.999991
0.999991
0.999991
0.999991
0.999991
0.999992
0.999993
0.999999
1.00001
1.00003
1.00007
1.00023
1.00042
1.00126
1.00238
0.999991
0.999991
0.999991
0.999991
0.999991
0.999991
0.999991
0.999991
0.999991
0.999991
0.999991
0.999991
0.999991
0.999991
0.999991
0.999991
0.999992
0.999994
1
1.00001
1.00004
1.00008
1.00026
1.0005
1.00144
0.999991
0.999991
0.999991
0.999991
0.999991
0.999991
0.999991
0.999991
0.999991
0.999991
0.999991
0.999991
0.999991
0.999991
0.999991
0.999991
0.999991
0.999993
0.999994
1
1.00001
1.00005
1.0001
1.0003
1.00058
0.999991
0.999991
0.999991
0.999991
0.999991
0.999991
0.999991
0.999991
0.999991
0.999991
0.999991
0.999991
0.999991
0.999991
0.999991
0.999991
0.999991
0.999991
0.999993
0.999995
1
1.00001
1.00005
1.00011
1.00034
0.999991
0.999991
0.999991
0.999991
0.999991
0.999991
0.999991
0.999991
0.999991
0.999991
0.999991
0.999991
0.999991
0.999991
0.999991
0.999991
0.999991
0.999991
0.999992
0.999993
0.999995
1
1.00002
1.00006
1.00013
0.999991
0.999991
0.999991
0.999991
0.999991
0.999991
0.999991
0.999991
0.999991
0.999991
0.999991
0.999991
0.999991
0.999991
0.999991
0.999991
0.999991
0.999991
0.999991
0.999992
0.999993
0.999997
1
1.00003
1.00005
0.999991
0.999991
0.999991
0.999991
0.999991
0.999991
0.999991
0.999991
0.999991
0.999991
0.999991
0.999991
0.999991
0.999991
0.999991
0.999991
0.999991
0.999991
0.999991
0.999991
0.999992
0.999993
0.999998
1
1.00003
0.999991
0.999991
0.999991
0.999991
0.999991
0.999991
0.999991
0.999991
0.999991
0.999991
0.999991
0.999991
0.999991
0.999991
0.999991
0.999991
0.999991
0.999991
0.999991
0.999991
0.999992
0.999992
0.999995
0.999999
1.00002
1
1.00001
1.00002
1.00003
1.00011
1.00021
1.00065
1.00122
1.00367
1.00751
1.02006
1.05117
1.11858
1.3479
1.95772
2.50133
2.67257
2.67056
2.66192
2.66634
2.66575
2.65831
2.62825
2.57305
2.38598
1
1
1.00002
1.00003
1.0001
1.00018
1.00057
1.00103
1.00325
1.00617
1.0181
1.03965
1.10299
1.26935
1.80048
2.41699
2.64269
2.63033
2.63443
2.63533
2.6335
2.62009
2.58391
2.5103
2.30744
1
1
1.00001
1.00002
1.00008
1.00014
1.00046
1.00084
1.00264
1.00506
1.01425
1.03362
1.0804
1.23329
1.59959
2.3477
2.61551
2.61645
2.61722
2.61656
2.61072
2.58952
2.54176
2.47448
2.30888
1
1
1.00001
1.00002
1.00006
1.00012
1.00037
1.00068
1.00203
1.00418
1.0109
1.02833
1.06423
1.19849
1.4598
2.19399
2.55799
2.60758
2.59673
2.59093
2.58147
2.56094
2.50877
2.4509
2.32374
1
1
1.00001
1.00002
1.00005
1.00009
1.00029
1.00054
1.00162
1.00333
1.00872
1.0223
1.05128
1.15566
1.35836
1.96405
2.45713
2.59031
2.58286
2.57516
2.55827
2.53642
2.48488
2.42905
2.33153
1
1
1.00001
1.00002
1.00003
1.0001
1.00018
1.00057
1.00107
1.00323
1.00646
1.01792
1.04144
1.10447
1.27472
1.80925
2.32658
2.53318
2.54214
2.53965
2.52972
2.51174
2.46994
2.4097
2.33083
1
1
1
1.00001
1.00002
1.00008
1.00014
1.00045
1.00082
1.00259
1.00488
1.01418
1.03152
1.07748
1.21452
1.56273
2.23556
2.49875
2.51335
2.50653
2.48997
2.47193
2.4424
2.39665
2.32812
1
1
1
1.00001
1.00002
1.00006
1.00011
1.00033
1.00061
1.0018
1.00376
1.00967
1.02503
1.05712
1.17285
1.40441
2.02139
2.41437
2.48768
2.48155
2.46877
2.4414
2.40777
2.36617
2.3159
1
1
1
1.00001
1.00002
1.00003
1.00011
1.00019
1.00061
1.00114
1.00342
1.00692
1.01865
1.04579
1.10871
1.30399
1.83246
2.29717
2.45673
2.45497
2.44662
2.42761
2.39415
2.35039
2.30093
1
1
1
1
1.00001
1.00002
1.00008