/*--------------------------------*- C++ -*----------------------------------*\
| =========                 |                                                 |
| \\      /  F ield         | OpenFOAM: The Open Source CFD Toolbox           |
|  \\    /   O peration     | Version:  4.1                                   |
|   \\  /    A nd           | Web:      www.OpenFOAM.org                      |
|    \\/     M anipulation  |                                                 |
\*---------------------------------------------------------------------------*/
FoamFile
{
    version     2.0;
    format      ascii;
    class       volScalarField;
    location    "9.16";
    object      T;
}
// * * * * * * * * * * * * * * * * * * * * * * * * * * * * * * * * * * * * * //

dimensions      [0 0 0 1 0 0 0];

internalField   nonuniform List<scalar> 
52500
(
0.999997
1.00003
1.00005
1.0002
1.00036
1.00117
1.00213
1.00653
1.01303
1.03519
1.08873
1.21054
1.60077
2.47112
2.69611
2.72685
2.72438
2.72483
2.7387
2.75063
2.7641
2.77275
2.78008
2.78512
2.78929
0.999996
1.00002
1.00005
1.00019
1.00036
1.00115
1.00211
1.00646
1.01289
1.03484
1.08794
1.20813
1.59615
2.4636
2.69326
2.72668
2.72399
2.72439
2.7381
2.7498
2.76315
2.77133
2.7787
2.78276
2.78621
0.999996
1.00002
1.00005
1.00019
1.00035
1.00113
1.00207
1.00632
1.01262
1.03408
1.08635
1.2029
1.58655
2.44696
2.68637
2.72552
2.7223
2.72256
2.73628
2.74724
2.7606
2.76899
2.77536
2.78009
2.78223
0.999996
1.00002
1.00005
1.00018
1.00034
1.00109
1.002
1.00611
1.01221
1.03292
1.08392
1.19503
1.57159
2.41993
2.67562
2.72361
2.71943
2.71919
2.73178
2.74402
2.75474
2.76364
2.77104
2.77429
2.77746
0.999996
1.00002
1.00005
1.00017
1.00032
1.00104
1.0019
1.00581
1.01165
1.03135
1.08065
1.18472
1.5509
2.38062
2.66053
2.72116
2.71576
2.71448
2.72587
2.73781
2.75043
2.75516
2.76209
2.76592
2.76671
0.999996
1.00002
1.00004
1.00016
1.0003
1.00097
1.00178
1.00533
1.01102
1.02886
1.07679
1.17213
1.52531
2.32761
2.64067
2.718
2.71207
2.7077
2.72003
2.72662
2.74079
2.7479
2.7523
2.75527
2.75713
0.999995
1.00002
1.00004
1.00015
1.00028
1.00089
1.00165
1.00487
1.01023
1.02638
1.07116
1.15722
1.4927
2.26028
2.6144
2.71385
2.70728
2.7013
2.71361
2.72037
2.7268
2.7333
2.73765
2.73879
2.73646
0.999995
1.00002
1.00004
1.00014
1.00025
1.00082
1.00151
1.00452
1.00928
1.0244
1.06398
1.14469
1.43761
2.16121
2.57996
2.70545
2.69764
2.68897
2.69956
2.71021
2.71754
2.7182
2.71969
2.71843
2.71444
0.999995
1.00001
1.00003
1.00012
1.00023
1.00075
1.00136
1.00427
1.00819
1.02308
1.05422
1.12999
1.37244
2.03329
2.53604
2.69591
2.68896
2.6766
2.6857
2.6899
2.6984
2.69916
2.69521
2.68621
2.66349
0.999995
1.00001
1.00003
1.00011
1.0002
1.00065
1.0012
1.00368
1.00716
1.02009
1.04617
1.11439
1.31032
1.91081
2.46566
2.66639
2.66477
2.65969
2.67302
2.67421
2.67723
2.675
2.66473
2.64226
2.59134
1.00001
1.00003
1.00006
1.0002
1.00037
1.00117
1.00214
1.00654
1.01304
1.03521
1.08875
1.21058
1.60085
2.47128
2.69622
2.72693
2.72446
2.72491
2.73878
2.75072
2.76419
2.77284
2.78017
2.78521
2.78938
1.00001
1.00003
1.00006
1.0002
1.00036
1.00116
1.00212
1.00647
1.0129
1.03485
1.08795
1.20818
1.59619
2.46373
2.69336
2.72675
2.72407
2.72446
2.73817
2.74988
2.76323
2.77142
2.77879
2.78285
2.78629
1.00001
1.00003
1.00006
1.0002
1.00036
1.00114
1.00208
1.00633
1.01263
1.0341
1.08636
1.20295
1.58659
2.4471
2.68647
2.72559
2.72238
2.72264
2.73636
2.74733
2.76069
2.76907
2.77545
2.78017
2.78232
1
1.00003
1.00006
1.00019
1.00034
1.0011
1.00201
1.00612
1.01222
1.03294
1.08393
1.19508
1.57163
2.42007
2.67571
2.72368
2.7195
2.71926
2.73185
2.7441
2.75483
2.76373
2.77113
2.77438
2.77754
1
1.00003
1.00005
1.00018
1.00033
1.00105
1.00191
1.00582
1.01166
1.03138
1.08066
1.18476
1.55093
2.38076
2.66062
2.72123
2.71583
2.71455
2.72594
2.73789
2.75051
2.75524
2.76217
2.766
2.76679
1
1.00003
1.00005
1.00017
1.00031
1.00098
1.00179
1.00534
1.01103
1.02888
1.0768
1.17218
1.52536
2.32776
2.64076
2.71807
2.71214
2.70778
2.72011
2.7267
2.74087
2.74798
2.75239
2.75536
2.75721
1
1.00002
1.00005
1.00016
1.00028
1.0009
1.00166
1.00489
1.01024
1.0264
1.07117
1.15726
1.49277
2.26046
2.61449
2.71392
2.70735
2.70137
2.71369
2.72044
2.72688
2.73337
2.73772
2.73886
2.73654
1
1.00002
1.00004
1.00014
1.00026
1.00083
1.00152
1.00453
1.00929
1.02442
1.06399
1.14473
1.43763
2.16136
2.58004
2.70552
2.69771
2.68904
2.69963
2.71028
2.71762
2.71828
2.71978
2.71851
2.71451
1
1.00002
1.00004
1.00013
1.00024
1.00076
1.00137
1.00428
1.0082
1.02309
1.05423
1.13002
1.37249
2.03346
2.53613
2.69598
2.68903
2.67667
2.68578
2.68997
2.69847
2.69923
2.69528
2.68628
2.66355
1
1.00002
1.00003
1.00011
1.00021
1.00065
1.00121
1.00369
1.00717
1.0201
1.04619
1.11442
1.31036
1.91091
2.46578
2.66645
2.66483
2.65975
2.67308
2.67428
2.67731
2.67508
2.66479
2.64232
2.5914
1.00001
1.00003
1.00006
1.0002
1.00037
1.00117
1.00214
1.00654
1.01304
1.03521
1.08875
1.21059
1.60085
2.47129
2.69623
2.72693
2.72446
2.72491
2.73878
2.75072
2.76419
2.77284
2.78017
2.78521
2.78938
1.00001
1.00003
1.00006
1.0002
1.00036
1.00116
1.00212
1.00647
1.0129
1.03486
1.08795
1.20818
1.59619
2.46374
2.69336
2.72675
2.72407
2.72446
2.73817
2.74989
2.76323
2.77142
2.77879
2.78285
2.78629
1.00001
1.00003
1.00006
1.0002
1.00036
1.00114
1.00208
1.00633
1.01263
1.0341
1.08636
1.20295
1.58659
2.44711
2.68647
2.72559
2.72238
2.72264
2.73636
2.74733
2.76069
2.76907
2.77545
2.78017
2.78232
1
1.00003
1.00006
1.00019
1.00034
1.0011
1.00201
1.00612
1.01222
1.03294
1.08393
1.19508
1.57164
2.42008
2.67571
2.72368
2.7195
2.71926
2.73185
2.7441
2.75483
2.76373
2.77113
2.77439
2.77754
1
1.00003
1.00005
1.00018
1.00033
1.00105
1.00191
1.00582
1.01166
1.03138
1.08066
1.18476
1.55094
2.38077
2.66062
2.72123
2.71583
2.71455
2.72594
2.73789
2.75051
2.75524
2.76217
2.766
2.7668
1
1.00003
1.00005
1.00017
1.00031
1.00098
1.00179
1.00534
1.01103
1.02888
1.07681
1.17218
1.52536
2.32777
2.64076
2.71807
2.71214
2.70778
2.72011
2.7267
2.74087
2.74798
2.7524
2.75536
2.75721
1
1.00002
1.00005
1.00016
1.00028
1.0009
1.00166
1.00489
1.01024
1.0264
1.07118
1.15726
1.49277
2.26047
2.61449
2.71392
2.70735
2.70137
2.71369
2.72045
2.72688
2.73337
2.73772
2.73886
2.73654
1
1.00002
1.00004
1.00014
1.00026
1.00083
1.00152
1.00453
1.00929
1.02442
1.06399
1.14473
1.43764
2.16137
2.58005
2.70552
2.69771
2.68904
2.69963
2.71028
2.71762
2.71828
2.71978
2.71851
2.71451
1
1.00002
1.00004
1.00013
1.00024
1.00076
1.00137
1.00428
1.0082
1.0231
1.05423
1.13003
1.37249
2.03348
2.53613
2.69598
2.68903
2.67667
2.68578
2.68997
2.69847
2.69923
2.69528
2.68628
2.66355
1
1.00002
1.00003
1.00011
1.00021
1.00065
1.00121
1.00369
1.00717
1.0201
1.04619
1.11442
1.31037
1.91092
2.46579
2.66645
2.66483
2.65975
2.67309
2.67428
2.67731
2.67508
2.6648
2.64232
2.5914
1.00001
1.00003
1.00006
1.0002
1.00037
1.00117
1.00214
1.00654
1.01304
1.03521
1.08875
1.21059
1.60085
2.47129
2.69623
2.72693
2.72446
2.72491
2.73878
2.75072
2.76419
2.77284
2.78017
2.78521
2.78938
1.00001
1.00003
1.00006
1.0002
1.00036
1.00116
1.00212
1.00647
1.0129
1.03486
1.08795
1.20818
1.5962
2.46374
2.69336
2.72675
2.72407
2.72446
2.73817
2.74989
2.76323
2.77142
2.77879
2.78285
2.78629
1.00001
1.00003
1.00006
1.0002
1.00036
1.00114
1.00208
1.00633
1.01263
1.0341
1.08636
1.20295
1.58659
2.44711
2.68647
2.72559
2.72238
2.72264
2.73636
2.74733
2.76069
2.76907
2.77545
2.78017
2.78232
1
1.00003
1.00006
1.00019
1.00034
1.0011
1.00201
1.00612
1.01222
1.03294
1.08393
1.19508
1.57164
2.42008
2.67571
2.72368
2.7195
2.71926
2.73185
2.7441
2.75483
2.76373
2.77113
2.77439
2.77754
1
1.00003
1.00005
1.00018
1.00033
1.00105
1.00191
1.00582
1.01166
1.03138
1.08066
1.18476
1.55094
2.38077
2.66062
2.72123
2.71583
2.71455
2.72594
2.73789
2.75051
2.75525
2.76217
2.766
2.7668
1
1.00003
1.00005
1.00017
1.00031
1.00098
1.00179
1.00534
1.01103
1.02888
1.07681
1.17218
1.52536
2.32777
2.64076
2.71807
2.71214
2.70778
2.72011
2.7267
2.74087
2.74798
2.7524
2.75536
2.75721
1
1.00002
1.00005
1.00016
1.00028
1.0009
1.00166
1.00489
1.01024
1.0264
1.07118
1.15726
1.49277
2.26047
2.61449
2.71392
2.70735
2.70137
2.71369
2.72045
2.72688
2.73337
2.73772
2.73886
2.73654
1
1.00002
1.00004
1.00014
1.00026
1.00083
1.00152
1.00453
1.00929
1.02442
1.06399
1.14473
1.43764
2.16137
2.58005
2.70552
2.69771
2.68904
2.69963
2.71028
2.71762
2.71828
2.71978
2.71851
2.71451
1
1.00002
1.00004
1.00013
1.00024
1.00076
1.00137
1.00428
1.0082
1.0231
1.05423
1.13003
1.3725
2.03348
2.53614
2.69598
2.68903
2.67667
2.68578
2.68997
2.69847
2.69923
2.69528
2.68628
2.66355
1
1.00002
1.00003
1.00011
1.00021
1.00065
1.00121
1.00369
1.00717
1.0201
1.04619
1.11442
1.31037
1.91092
2.46579
2.66645
2.66483
2.65975
2.67309
2.67428
2.67731
2.67508
2.6648
2.64232
2.5914
1.00001
1.00003
1.00006
1.0002
1.00037
1.00117
1.00214
1.00654
1.01304
1.03521
1.08875
1.21059
1.60085
2.47129
2.69623
2.72693
2.72446
2.72491
2.73878
2.75072
2.76419
2.77284
2.78017
2.78521
2.78938
1.00001
1.00003
1.00006
1.0002
1.00036
1.00116
1.00212
1.00647
1.0129
1.03486
1.08795
1.20818
1.5962
2.46374
2.69336
2.72675
2.72407
2.72446
2.73817
2.74989
2.76323
2.77142
2.77879
2.78285
2.78629
1.00001
1.00003
1.00006
1.0002
1.00036
1.00114
1.00208
1.00633
1.01263
1.0341
1.08636
1.20295
1.58659
2.44711
2.68647
2.72559
2.72238
2.72264
2.73636
2.74733
2.76069
2.76907
2.77545
2.78017
2.78232
1
1.00003
1.00006
1.00019
1.00034
1.0011
1.00201
1.00612
1.01222
1.03294
1.08393
1.19508
1.57164
2.42008
2.67571
2.72368
2.7195
2.71926
2.73185
2.7441
2.75483
2.76373
2.77113
2.77439
2.77754
1
1.00003
1.00005
1.00018
1.00033
1.00105
1.00191
1.00582
1.01166
1.03138
1.08066
1.18476
1.55094
2.38077
2.66062
2.72123
2.71583
2.71455
2.72594
2.73789
2.75051
2.75525
2.76217
2.766
2.7668
1
1.00003
1.00005
1.00017
1.00031
1.00098
1.00179
1.00534
1.01103
1.02888
1.07681
1.17218
1.52536
2.32778
2.64076
2.71807
2.71214
2.70778
2.72011
2.7267
2.74087
2.74798
2.7524
2.75536
2.75721
1
1.00002
1.00005
1.00016
1.00028
1.0009
1.00166
1.00489
1.01024
1.0264
1.07118
1.15726
1.49277
2.26047
2.61449
2.71392
2.70735
2.70137
2.71369
2.72045
2.72688
2.73337
2.73772
2.73886
2.73654
1
1.00002
1.00004
1.00014
1.00026
1.00083
1.00152
1.00453
1.00929
1.02442
1.06399
1.14473
1.43764
2.16137
2.58005
2.70552
2.69771
2.68904
2.69963
2.71028
2.71762
2.71828
2.71978
2.71851
2.71451
1
1.00002
1.00004
1.00013
1.00024
1.00076
1.00137
1.00428
1.0082
1.0231
1.05423
1.13003
1.3725
2.03348
2.53614
2.69598
2.68903
2.67667
2.68578
2.68997
2.69847
2.69923
2.69528
2.68628
2.66355
1
1.00002
1.00003
1.00011
1.00021
1.00065
1.00121
1.00369
1.00717
1.0201
1.04619
1.11442
1.31037
1.91092
2.46579
2.66645
2.66483
2.65975
2.67309
2.67428
2.67731
2.67508
2.6648
2.64232
2.5914
1.00001
1.00003
1.00006
1.0002
1.00037
1.00117
1.00214
1.00654
1.01304
1.03521
1.08875
1.21059
1.60085
2.47129
2.69623
2.72693
2.72446
2.72491
2.73878
2.75072
2.76419
2.77284
2.78017
2.78521
2.78938
1.00001
1.00003
1.00006
1.0002
1.00036
1.00116
1.00212
1.00647
1.0129
1.03486
1.08795
1.20818
1.5962
2.46374
2.69336
2.72675
2.72407
2.72446
2.73817
2.74989
2.76323
2.77142
2.77879
2.78285
2.78629
1.00001
1.00003
1.00006
1.0002
1.00036
1.00114
1.00208
1.00633
1.01263
1.0341
1.08636
1.20295
1.58659
2.44711
2.68647
2.72559
2.72238
2.72264
2.73636
2.74733
2.76069
2.76907
2.77545
2.78017
2.78232
1
1.00003
1.00006
1.00019
1.00034
1.0011
1.00201
1.00612
1.01222
1.03294
1.08393
1.19508
1.57164
2.42008
2.67571
2.72368
2.7195
2.71926
2.73185
2.7441
2.75483
2.76373
2.77113
2.77439
2.77754
1
1.00003
1.00005
1.00018
1.00033
1.00105
1.00191
1.00582
1.01166
1.03138
1.08066
1.18476
1.55094
2.38077
2.66062
2.72123
2.71583
2.71455
2.72594
2.73789
2.75051
2.75525
2.76216
2.766
2.7668
1
1.00003
1.00005
1.00017
1.00031
1.00098
1.00179
1.00534
1.01103
1.02888
1.07681
1.17218
1.52536
2.32778
2.64076
2.71807
2.71214
2.70778
2.72011
2.7267
2.74087
2.74798
2.7524
2.75536
2.75721
1
1.00002
1.00005
1.00016
1.00028
1.0009
1.00166
1.00489
1.01024
1.0264
1.07118
1.15726
1.49277
2.26047
2.61449
2.71392
2.70735
2.70137
2.71369
2.72045
2.72688
2.73337
2.73772
2.73886
2.73654
1
1.00002
1.00004
1.00014
1.00026
1.00083
1.00152
1.00453
1.00929
1.02442
1.06399
1.14473
1.43764
2.16138
2.58005
2.70552
2.69771
2.68904
2.69963
2.71028
2.71762
2.71828
2.71978
2.71851
2.71451
1
1.00002
1.00004
1.00013
1.00024
1.00076
1.00137
1.00428
1.0082
1.0231
1.05423
1.13003
1.3725
2.03348
2.53614
2.69598
2.68903
2.67667
2.68578
2.68998
2.69847
2.69923
2.69528
2.68628
2.66355
1
1.00002
1.00003
1.00011
1.00021
1.00065
1.00121
1.00369
1.00717
1.0201
1.04619
1.11442
1.31037
1.91092
2.46579
2.66645
2.66483
2.65975
2.67309
2.67428
2.67731
2.67508
2.6648
2.64232
2.5914
1.00001
1.00003
1.00006
1.0002
1.00037
1.00117
1.00214
1.00654
1.01304
1.03521
1.08875
1.21059
1.60085
2.47129
2.69623
2.72693
2.72446
2.72491
2.73878
2.75072
2.76419
2.77284
2.78017
2.78521
2.78938
1.00001
1.00003
1.00006
1.0002
1.00036
1.00116
1.00212
1.00647
1.0129
1.03486
1.08795
1.20818
1.5962
2.46374
2.69336
2.72675
2.72407
2.72446
2.73817
2.74989
2.76323
2.77142
2.77879
2.78285
2.78629
1.00001
1.00003
1.00006
1.0002
1.00036
1.00114
1.00208
1.00633
1.01263
1.0341
1.08636
1.20295
1.58659
2.44711
2.68647
2.72559
2.72238
2.72264
2.73636
2.74733
2.76069
2.76907
2.77545
2.78017
2.78232
1
1.00003
1.00006
1.00019
1.00034
1.0011
1.00201
1.00612
1.01222
1.03294
1.08393
1.19508
1.57164
2.42008
2.67571
2.72368
2.7195
2.71926
2.73185
2.7441
2.75483
2.76373
2.77113
2.77439
2.77754
1
1.00003
1.00005
1.00018
1.00033
1.00105
1.00191
1.00582
1.01166
1.03138
1.08066
1.18476
1.55094
2.38077
2.66062
2.72123
2.71583
2.71455
2.72594
2.73789
2.75051
2.75525
2.76217
2.766
2.7668
1
1.00003
1.00005
1.00017
1.00031
1.00098
1.00179
1.00534
1.01103
1.02888
1.07681
1.17218
1.52536
2.32778
2.64076
2.71807
2.71214
2.70778
2.72011
2.7267
2.74087
2.74798
2.7524
2.75536
2.75721
1
1.00002
1.00005
1.00016
1.00028
1.0009
1.00166
1.00489
1.01024
1.0264
1.07118
1.15726
1.49277
2.26047
2.61449
2.71392
2.70735
2.70137
2.71369
2.72045
2.72688
2.73337
2.73772
2.73886
2.73654
1
1.00002
1.00004
1.00014
1.00026
1.00083
1.00152
1.00453
1.00929
1.02442
1.06399
1.14473
1.43764
2.16137
2.58005
2.70552
2.69771
2.68904
2.69963
2.71028
2.71762
2.71828
2.71978
2.71851
2.71451
1
1.00002
1.00004
1.00013
1.00024
1.00076
1.00137
1.00428
1.0082
1.0231
1.05423
1.13003
1.3725
2.03348
2.53614
2.69598
2.68903
2.67667
2.68578
2.68997
2.69847
2.69923
2.69528
2.68628
2.66355
1
1.00002
1.00003
1.00011
1.00021
1.00065
1.00121
1.00369
1.00717
1.0201
1.04619
1.11442
1.31037
1.91092
2.46579
2.66645
2.66483
2.65975
2.67309
2.67428
2.67731
2.67508
2.6648
2.64232
2.5914
1.00001
1.00003
1.00006
1.0002
1.00037
1.00117
1.00214
1.00654
1.01304
1.03521
1.08875
1.21059
1.60085
2.47129
2.69623
2.72693
2.72446
2.72491
2.73878
2.75072
2.76419
2.77284
2.78017
2.78521
2.78938
1.00001
1.00003
1.00006
1.0002
1.00036
1.00116
1.00212
1.00647
1.0129
1.03486
1.08795
1.20818
1.59619
2.46374
2.69336
2.72675
2.72407
2.72446
2.73817
2.74989
2.76323
2.77142
2.77879
2.78285
2.78629
1.00001
1.00003
1.00006
1.0002
1.00036
1.00114
1.00208
1.00633
1.01263
1.0341
1.08636
1.20295
1.58659
2.44711
2.68647
2.72559
2.72238
2.72264
2.73636
2.74733
2.76069
2.76907
2.77545
2.78017
2.78232
1
1.00003
1.00006
1.00019
1.00034
1.0011
1.00201
1.00612
1.01222
1.03294
1.08393
1.19508
1.57164
2.42008
2.67571
2.72368
2.7195
2.71926
2.73185
2.7441
2.75483
2.76373
2.77113
2.77439
2.77754
1
1.00003
1.00005
1.00018
1.00033
1.00105
1.00191
1.00582
1.01166
1.03138
1.08066
1.18476
1.55094
2.38077
2.66062
2.72123
2.71583
2.71455
2.72594
2.73789
2.75051
2.75524
2.76217
2.766
2.7668
1
1.00003
1.00005
1.00017
1.00031
1.00098
1.00179
1.00534
1.01103
1.02888
1.07681
1.17218
1.52536
2.32777
2.64076
2.71807
2.71214
2.70778
2.72011
2.7267
2.74087
2.74798
2.7524
2.75536
2.75721
1
1.00002
1.00005
1.00016
1.00028
1.0009
1.00166
1.00489
1.01024
1.0264
1.07118
1.15726
1.49277
2.26047
2.61449
2.71392
2.70735
2.70137
2.71369
2.72045
2.72688
2.73337
2.73772
2.73886
2.73654
1
1.00002
1.00004
1.00014
1.00026
1.00083
1.00152
1.00453
1.00929
1.02442
1.06399
1.14473
1.43764
2.16137
2.58005
2.70552
2.69771
2.68904
2.69963
2.71028
2.71762
2.71828
2.71978
2.71851
2.71451
1
1.00002
1.00004
1.00013
1.00024
1.00076
1.00137
1.00428
1.0082
1.0231
1.05423
1.13003
1.37249
2.03348
2.53613
2.69598
2.68903
2.67667
2.68578
2.68997
2.69847
2.69923
2.69528
2.68628
2.66355
1
1.00002
1.00003
1.00011
1.00021
1.00065
1.00121
1.00369
1.00717
1.0201
1.04619
1.11442
1.31037
1.91092
2.46579
2.66645
2.66483
2.65975
2.67309
2.67428
2.67731
2.67508
2.6648
2.64232
2.5914
1.00001
1.00003
1.00006
1.0002
1.00037
1.00117
1.00214
1.00654
1.01304
1.03521
1.08875
1.21058
1.60085
2.47128
2.69622
2.72693
2.72446
2.72491
2.73878
2.75072
2.76419
2.77284
2.78017
2.78521
2.78938
1.00001
1.00003
1.00006
1.0002
1.00036
1.00116
1.00212
1.00647
1.0129
1.03485
1.08795
1.20818
1.59619
2.46373
2.69336
2.72675
2.72407
2.72446
2.73817
2.74988
2.76323
2.77142
2.77879
2.78285
2.78629
1.00001
1.00003
1.00006
1.0002
1.00036
1.00114
1.00208
1.00633
1.01263
1.0341
1.08636
1.20295
1.58659
2.4471
2.68647
2.72559
2.72238
2.72264
2.73636
2.74733
2.76069
2.76907
2.77545
2.78017
2.78232
1
1.00003
1.00006
1.00019
1.00034
1.0011
1.00201
1.00612
1.01222
1.03294
1.08393
1.19508
1.57163
2.42007
2.67571
2.72368
2.7195
2.71926
2.73185
2.7441
2.75483
2.76373
2.77113
2.77438
2.77754
1
1.00003
1.00005
1.00018
1.00033
1.00105
1.00191
1.00582
1.01166
1.03138
1.08066
1.18476
1.55093
2.38076
2.66062
2.72123
2.71583
2.71455
2.72594
2.73789
2.75051
2.75524
2.76217
2.766
2.76679
1
1.00003
1.00005
1.00017
1.00031
1.00098
1.00179
1.00534
1.01103
1.02888
1.0768
1.17218
1.52536
2.32776
2.64076
2.71807
2.71214
2.70778
2.72011
2.7267
2.74087
2.74798
2.75239
2.75536
2.75721
1
1.00002
1.00005
1.00016
1.00028
1.0009
1.00166
1.00489
1.01024
1.0264
1.07117
1.15726
1.49277
2.26046
2.61449
2.71392
2.70735
2.70137
2.71369
2.72044
2.72688
2.73337
2.73772
2.73886
2.73654
1
1.00002
1.00004
1.00014
1.00026
1.00083
1.00152
1.00453
1.00929
1.02442
1.06399
1.14473
1.43763
2.16136
2.58004
2.70552
2.69771
2.68904
2.69963
2.71028
2.71762
2.71828
2.71978
2.71851
2.71451
1
1.00002
1.00004
1.00013
1.00024
1.00076
1.00137
1.00428
1.0082
1.02309
1.05423
1.13002
1.37249
2.03346
2.53613
2.69598
2.68903
2.67667
2.68578
2.68997
2.69847
2.69923
2.69528
2.68628
2.66355
1
1.00002
1.00003
1.00011
1.00021
1.00065
1.00121
1.00369
1.00717
1.0201
1.04619
1.11442
1.31036
1.91091
2.46578
2.66645
2.66483
2.65975
2.67308
2.67428
2.67731
2.67508
2.66479
2.64232
2.5914
0.999997
1.00003
1.00005
1.0002
1.00036
1.00117
1.00213
1.00653
1.01303
1.03519
1.08873
1.21054
1.60077
2.47112
2.69611
2.72685
2.72438
2.72483
2.7387
2.75063
2.7641
2.77275
2.78008
2.78512
2.78929
0.999996
1.00002
1.00005
1.00019
1.00036
1.00115
1.00211
1.00646
1.01289
1.03484
1.08794
1.20813
1.59615
2.4636
2.69326
2.72668
2.72399
2.72439
2.7381
2.7498
2.76315
2.77133
2.7787
2.78276
2.78621
0.999996
1.00002
1.00005
1.00019
1.00035
1.00113
1.00207
1.00632
1.01262
1.03408
1.08635
1.2029
1.58655
2.44696
2.68637
2.72552
2.7223
2.72256
2.73628
2.74724
2.7606
2.76899
2.77536
2.78009
2.78223
0.999996
1.00002
1.00005
1.00018
1.00034
1.00109
1.002
1.00611
1.01221
1.03292
1.08392
1.19503
1.57159
2.41993
2.67562
2.72361
2.71943
2.71919
2.73178
2.74402
2.75474
2.76364
2.77104
2.77429
2.77746
0.999996
1.00002
1.00005
1.00017
1.00032
1.00104
1.0019
1.00581
1.01165
1.03135
1.08065
1.18472
1.5509
2.38062
2.66053
2.72116
2.71576
2.71448
2.72587
2.73781
2.75043
2.75516
2.76209
2.76592
2.76671
0.999996
1.00002
1.00004
1.00016
1.0003
1.00097
1.00178
1.00533
1.01102
1.02886
1.07679
1.17213
1.52531
2.32761
2.64067
2.718
2.71207
2.7077
2.72003
2.72662
2.74079
2.7479
2.7523
2.75527
2.75713
0.999995
1.00002
1.00004
1.00015
1.00028
1.00089
1.00165
1.00487
1.01023
1.02638
1.07116
1.15721
1.4927
2.26028
2.6144
2.71385
2.70728
2.7013
2.71361
2.72037
2.7268
2.7333
2.73765
2.73879
2.73646
0.999995
1.00002
1.00004
1.00014
1.00025
1.00082
1.00151
1.00452
1.00928
1.0244
1.06398
1.14469
1.43761
2.16121
2.57996
2.70545
2.69764
2.68897
2.69956
2.71021
2.71754
2.7182
2.71969
2.71843
2.71444
0.999995
1.00001
1.00003
1.00012
1.00023
1.00075
1.00136
1.00427
1.00819
1.02308
1.05422
1.12999
1.37244
2.03329
2.53604
2.69591
2.68896
2.6766
2.6857
2.6899
2.6984
2.69916
2.69521
2.68621
2.66349
0.999995
1.00001
1.00003
1.00011
1.0002
1.00065
1.0012
1.00368
1.00716
1.02009
1.04617
1.11439
1.31032
1.91081
2.46566
2.66639
2.66477
2.65969
2.67302
2.67421
2.67723
2.675
2.66473
2.64226
2.59134
0.999997
1
1.00003
1.00007
1.00022
1.00042
1.0013
1.00251
1.007
1.0158
1.03893
1.10906
1.24856
1.68608
2.495
2.64696
2.63294
2.63471
2.64435
2.65255
2.6519
2.64459
2.62416
2.57432
2.41439
0.999996
1
1.00003
1.00006
1.0002
1.00037
1.0012
1.00219
1.00673
1.01333
1.03614
1.09008
1.21642
1.60378
2.43847
2.62388
2.62405
2.61904
2.61994
2.62805
2.62674
2.6132
2.58047
2.52249
2.36417
0.999996
1
1.00002
1.00005
1.00017
1.00032
1.00103
1.00187
1.00574
1.0114
1.03081
1.07821
1.17983
1.53119
2.32117
2.57709
2.61959
2.61256
2.59798
2.59848
2.59691
2.58273
2.54321
2.48934
2.3677
0.999996
0.999999
1.00002
1.00004
1.00014
1.00026
1.00084
1.00157
1.0046
1.00967
1.02482
1.06662
1.14711
1.45698
2.16099
2.52274
2.61669
2.60521
2.59225
2.57429
2.56415
2.5491
2.51502
2.47058
2.37582
0.999995
0.999998
1.00001
1.00003
1.00012
1.00022
1.00071
1.00131
1.00406
1.00789
1.022
1.05176
1.12566
1.3497
2.00396
2.41504
2.59134
2.58659
2.5803
2.565
2.54092
2.51873
2.48035
2.44967
2.38195
0.999994
0.999999
1
1.00003
1.00007
1.00022
1.00042
1.00129
1.00252
1.00689
1.01592
1.03854
1.10833
1.24739
1.65849
2.36637
2.55091
2.55025
2.55045
2.54478
2.52749
2.50501
2.457
2.41808
2.37605
0.999994
0.999998
1
1.00003
1.00005
1.00019
1.00035
1.00112
1.00203
1.00626
1.01232
1.03344
1.08336
1.19573
1.55776
2.30567
2.5141
2.52739
2.52096
2.51643
2.50465
2.49055
2.45589
2.40269
2.36106
0.999994
0.999996
1
1.00002
1.00004
1.00014
1.00026
1.00083
1.00159
1.0045
1.00989
1.02464
1.06799
1.1481
1.46422
2.16322
2.45632
2.52018
2.50348
2.49651
2.48014
2.46173
2.4452
2.40466
2.35707
0.999994
0.999995
1
1.00001
1.00004
1.00008
1.00025
1.00049
1.00139
1.00307
1.0076
1.02032
1.04533
1.13565
1.305
1.88219
2.33854
2.50048
2.49531
2.48413
2.47107
2.44519
2.42575
2.40218
2.35956
0.999993
0.999994
0.999998
1
1.00003
1.00006
1.00021
1.00039
1.00123
1.00228
1.00681
1.01392
1.03668
1.09253
1.22432
1.58567
2.27589
2.4452
2.46366
2.45822
2.45044
2.43426
2.4107
2.39437
2.36489
0.999992
0.999993
0.999995
1
1.00001
1.00006
1.00011
1.00036
1.00069
1.00195
1.00427
1.01059
1.02831
1.06307
1.18989
1.4392
2.09681
2.41178
2.45595
2.44495
2.4331
2.42208
2.40139
2.38645
2.36883
0.999992
0.999993
0.999994
1
1.00001
1.00004
1.00009
1.00029
1.00053
1.00165
1.00314
1.00881
1.01984
1.04841
1.13616
1.31629
1.81314
2.30114
2.43896
2.43622
2.423
2.41298
2.3966
2.38275
2.37593
0.999992
0.999992
0.999994
0.999996
1.00001
1.00002
1.00008
1.00016
1.00051
1.00096
1.00289
1.00567
1.01589
1.03476
1.0912
1.21868
1.66547
2.12735
2.39192
2.41948
2.4175
2.40832
2.39877
2.38848
2.38632
0.999991
0.999992
0.999993
0.999995
1
1.00001
1.00006
1.00011
1.00037
1.00069
1.00212
1.00406
1.01138
1.02552
1.06202
1.16938
1.42
1.98527
2.30765
2.3996
2.40883
2.40945
2.40556
2.40411
2.40261
0.999991
0.999992
0.999992
0.999995
0.999998
1.00001
1.00003
1.00011
1.00021
1.00065
1.00121
1.00364
1.0072
1.0196
1.04592
1.11082
1.29661
1.81418
2.20477
2.36939
2.39689
2.40601
2.41914
2.4283
2.43038
0.999991
0.999991
0.999992
0.999994
0.999996
1.00001
1.00002
1.00008
1.00015
1.00047
1.00087
1.00268
1.0051
1.01469
1.03105
1.08242
1.19579
1.5886
2.06539
2.32891
2.39081
2.41274
2.42879
2.44384
2.45186
0.999991
0.999991
0.999992
0.999992
0.999995
0.999999
1.00002
1.00004
1.00013
1.00025
1.00077
1.00147
1.00418
1.00896
1.02254
1.0599
1.13202
1.39193
1.96792
2.26573
2.40353
2.43643
2.45214
2.45847
2.46598
0.999991
0.999991
0.999991
0.999992
0.999994
0.999997
1.00001
1.00002
1.0001
1.00018
1.00058
1.00108
1.0033
1.00631
1.01804
1.03884
1.10171
1.24699
1.74695
2.16711
2.4057
2.46732
2.47535
2.48698
2.48341
0.999991
0.999991
0.999991
0.999992
0.999993
0.999996
1
1.00002
1.00005
1.00016
1.00032
1.00096
1.00189
1.00522
1.0117
1.02893
1.07962
1.17467
1.52088
2.19989
2.42742
2.50764
2.50305
2.49729
2.48575
0.999991
0.999991
0.999991
0.999991
0.999992
0.999994
1
1.00001
1.00005
1.00009
1.0003
1.00059
1.00166
1.00364
1.00905
1.02419
1.05391
1.1628
1.36762
2.01351
2.45668
2.59493
2.56538
2.53709
2.50314
0.999991
0.999991
0.999991
0.999991
0.999992
0.999993
0.999999
1.00001
1.00004
1.00008
1.00026
1.00048
1.00149
1.00288
1.00801
1.01831
1.04472
1.12604
1.29305
1.76219
2.44851
2.64701
2.60693
2.574
2.52332
0.999991
0.999991
0.999991
0.999991
0.999992
0.999994
0.999996
1.00001
1.00002
1.00009
1.00017
1.00055
1.00103
1.0032
1.00626
1.01766
1.04109
1.10094
1.27785
1.78868
2.44396
2.69572
2.65088
2.61835
2.56416
0.999991
0.999991
0.999991
0.999991
0.999992
0.999993
0.999995
1.00001
1.00002
1.00008
1.00015
1.0005
1.00091
1.00286
1.00557
1.01554
1.03741
1.08942
1.25876
1.69203
2.435
2.71471
2.69745
2.65324
2.60179
0.999991
0.999991
0.999991
0.999991
0.999991
0.999993
0.999995
1
1.00001
1.00007
1.00013
1.00044
1.00081
1.0025
1.00509
1.0137
1.03502
1.08115
1.24417
1.61997
2.39966
2.72234
2.72458
2.68265
2.63214
0.999991
0.999991
0.999991
0.999991
0.999991
0.999993
0.999994
1
1.00001
1.00006
1.00011
1.00036
1.00072
1.00201
1.00476
1.0117
1.03297
1.0728
1.23214
1.56838
2.34507
2.71365
2.73472
2.70152
2.6565
0.999991
0.999991
0.999991
0.999991
0.999991
0.999992
0.999995
0.999998
1.00001
1.00004
1.00013
1.00026
1.00075
1.00176
1.00441
1.01189
1.02756
1.08211
1.17632
1.5723
2.36339
2.70992
2.73795
2.70948
2.66314
0.999991
0.999991
0.999991
0.999991
0.999991
0.999992
0.999994
0.999999
1.00001
1.00004
1.00009
1.00026
1.00063
1.00154
1.00426
1.00949
1.02872
1.06006
1.20253
1.46586
2.21934
2.70949
2.75051
2.72448
2.67939
0.999991
0.999991
0.999991
0.999991
0.999991
0.999992
0.999995
0.999998
1.00001
1.00003
1.00012
1.00023
1.00071
1.00149
1.00393
1.00993
1.02331
1.06944
1.14657
1.49674
2.20636
2.68542
2.75094
2.72649
2.67957
0.999991
0.999991
0.999991
0.999991
0.999991
0.999992
0.999994
0.999997
1.00001
1.00003
1.00011
1.00022
1.00069
1.00136
1.00384
1.00881
1.02179
1.06263
1.13606
1.44529
2.13709
2.6808
2.74931
2.72018
2.67097
0.999991
0.999991
0.999991
0.999991
0.999991
0.999992
0.999993
0.999998
1
1.00003
1.00007
1.00023
1.00049
1.00127
1.0033
1.00759
1.02201
1.04751
1.15252
1.34925
1.9657
2.65499
2.75389
2.72484
2.67561
0.999991
0.999991
0.999991
0.999991
0.999991
0.999992
0.999994
0.999997
1.00001
1.00002
1.0001
1.00019
1.00059
1.00118
1.00331
1.00753
1.0188
1.05218
1.11724
1.35277
1.97853
2.58755
2.74145
2.72198
2.68586
0.999991
0.999991
0.999991
0.999991
0.999991
0.999992
0.999993
0.999998
1
1.00003
1.00007
1.00023
1.00044
1.00133
1.00275
1.00725
1.01822
1.04271
1.12593
1.28873
1.77769
2.6011
2.752
2.73072
2.68619
0.999991
0.999991
0.999991
0.999991
0.999991
0.999992
0.999993
0.999998
1
1.00003
1.00007
1.00023
1.00042
1.00133
1.00259
1.00721
1.01676
1.04094
1.11781
1.27211
1.74358
2.60238
2.76459
2.73762
2.68766
0.999991
0.999991
0.999991
0.999991
0.999991
0.999992
0.999993
0.999996
1.00001
1.00002
1.00008
1.00016
1.00052
1.00102
1.00288
1.00648
1.01622
1.04441
1.1
1.29539
1.8174
2.52838
2.75791
2.73088
2.69526
0.999991
0.999991
0.999991
0.999991
0.999991
0.999992
0.999993
0.999997
1
1.00003
1.00006
1.00021
1.0004
1.00118
1.00248
1.00646
1.01617
1.038
1.11071
1.25058
1.70779
2.57509
2.74716
2.71525
2.69621
0.999991
0.999991
0.999991
0.999991
0.999991
0.999992
0.999993
0.999996
1.00001
1.00002
1.00008
1.00015
1.00047
1.00096
1.0026
1.00619
1.01495
1.04188
1.09195
1.2811
1.74631
2.49949
2.7468
2.7243
2.70739
0.999991
0.999991
0.999991
0.999991
0.999991
0.999992
0.999993
0.999997
1
1.00003
1.00006
1.00021
1.00039
1.00123
1.00235
1.0068
1.01486
1.0379
1.10345
1.24225
1.67931
2.55229
2.73071
2.71974
2.69566
0.999991
0.999991
0.999991
0.999991
0.999991
0.999992
0.999993
0.999997
1
1.00003
1.00006
1.0002
1.00038
1.00121
1.00231
1.00667
1.01461
1.03722
1.10191
1.23819
1.66967
2.54606
2.72861
2.7205
2.69497
0.999991
0.999991
0.999991
0.999991
0.999991
0.999992
0.999993
0.999995
1.00001
1.00002
1.00008
1.00015
1.00048
1.00092
1.00263
1.00581
1.01456
1.03972
1.08808
1.26909
1.69551
2.47205
2.73192
2.72605
2.70333
0.999991
0.999991
0.999991
0.999991
0.999991
0.999992
0.999993
0.999996
1.00001
1.00002
1.00008
1.00015
1.0005
1.00093
1.00285
1.0057
1.01542
1.03851
1.08947
1.26399
1.68802
2.4685
2.73168
2.72661
2.70537
1.00001
1.00001
1.00004
1.00007
1.00023
1.00043
1.00131
1.00252
1.00701
1.01581
1.03895
1.10908
1.24861
1.68615
2.49509
2.64705
2.63302
2.63478
2.64441
2.65262
2.65197
2.64466
2.62423
2.57437
2.41442
1
1.00001
1.00004
1.00007
1.00021
1.00038
1.00121
1.0022
1.00674
1.01334
1.03615
1.09011
1.21647
1.60388
2.43862
2.62398
2.6241
2.6191
2.61999
2.6281
2.6268
2.61325
2.58054
2.52255
2.36421
1
1.00001
1.00003
1.00006
1.00018
1.00033
1.00104
1.00188
1.00575
1.01141
1.03083
1.07822
1.17988
1.53125
2.32133
2.57721
2.61965
2.61262
2.59804
2.59855
2.59697
2.58279
2.54326
2.48939
2.36774
1
1.00001
1.00003
1.00005
1.00015
1.00027
1.00085
1.00158
1.00461
1.00968
1.02484
1.06664
1.14716
1.45705
2.16119
2.52284
2.61675
2.60527
2.59231
2.57436
2.56422
2.54916
2.51508
2.47063
2.37586
1
1.00001
1.00002
1.00004
1.00013
1.00023
1.00072
1.00132
1.00407
1.0079
1.02202
1.05178
1.1257
1.34976
2.00414
2.41519
2.59144
2.58667
2.58038
2.56507
2.54098
2.5188
2.4804
2.44972
2.38199
1
1.00001
1.00001
1.00004
1.00007
1.00023
1.00043
1.0013
1.00253
1.0069
1.01593
1.03855
1.10835
1.24744
1.65861
2.36635
2.55099
2.55032
2.55053
2.54486
2.52756
2.50508
2.45707
2.41814
2.3761
1
1.00001
1.00001
1.00003
1.00006
1.0002
1.00035
1.00113
1.00204
1.00627
1.01233
1.03346
1.08338
1.19579
1.55784
2.30578
2.51418
2.52744
2.52102
2.5165
2.50473
2.49062
2.45596
2.40276
2.36112
1
1
1.00001
1.00003
1.00005
1.00015
1.00027
1.00084
1.0016
1.00451
1.0099
1.02466
1.06801
1.14815
1.46431
2.16342
2.45642
2.52023
2.50354
2.49657
2.48022
2.46181
2.44528
2.40473
2.35715
1
1
1.00001
1.00002
1.00005
1.00009
1.00026
1.0005
1.0014
1.00308
1.00761
1.02033
1.04535
1.13569
1.30509
1.8824
2.33869
2.50055
2.49537
2.48419
2.47114