/*--------------------------------*- C++ -*----------------------------------*\
| =========                 |                                                 |
| \\      /  F ield         | OpenFOAM: The Open Source CFD Toolbox           |
|  \\    /   O peration     | Version:  4.1                                   |
|   \\  /    A nd           | Web:      www.OpenFOAM.org                      |
|    \\/     M anipulation  |                                                 |
\*---------------------------------------------------------------------------*/
FoamFile
{
    version     2.0;
    format      ascii;
    class       volScalarField;
    location    "4.56";
    object      Ma;
}
// * * * * * * * * * * * * * * * * * * * * * * * * * * * * * * * * * * * * * //

dimensions      [0 0 0 0 0 0 0];

internalField   nonuniform List<scalar> 
52500
(
3.00002
2.99997
2.99991
2.99968
2.99936
2.99806
2.99618
2.98901
2.977
2.9382
2.84945
2.64513
2.10194
1.26545
0.527532
0.278075
0.32928
0.344659
0.312508
0.257922
0.205468
0.163551
0.122329
0.0768154
0.0436302
3.00002
2.99997
2.99992
2.99969
2.99937
2.99808
2.99623
2.98916
2.97732
2.93905
2.85158
2.64984
2.11284
1.27967
0.534852
0.278042
0.330601
0.346744
0.314809
0.26102
0.209919
0.169559
0.13063
0.0903646
0.0663963
3.00002
2.99997
2.99992
2.9997
2.99939
2.99813
2.99633
2.98944
2.97798
2.94064
2.85606
2.65925
2.13825
1.31251
0.553347
0.281707
0.336463
0.354322
0.323182
0.271469
0.223329
0.186446
0.152442
0.120541
0.104607
3.00002
2.99997
2.99992
2.99971
2.99941
2.99821
2.99649
2.98986
2.97896
2.94309
2.86281
2.67359
2.17734
1.36431
0.581754
0.288277
0.346227
0.366948
0.337249
0.28853
0.24419
0.211589
0.183114
0.158223
0.146744
3.00002
2.99998
2.99993
2.99972
2.99944
2.99829
2.99666
2.9902
2.98016
2.94553
2.87308
2.69276
2.23298
1.43822
0.62202
0.301641
0.361736
0.385533
0.357246
0.312008
0.271441
0.243068
0.219507
0.200048
0.19166
3.00002
2.99998
2.99993
2.99974
2.99948
2.9984
2.99687
2.99077
2.98159
2.9487
2.88517
2.71577
2.29989
1.53287
0.673895
0.325498
0.385163
0.410865
0.383842
0.34183
0.305119
0.280701
0.261969
0.2475
0.242029
3.00002
2.99998
2.99994
2.99977
2.99952
2.99853
2.99714
2.99157
2.98319
2.95303
2.89687
2.74032
2.37194
1.64417
0.736528
0.36416
0.419878
0.444022
0.418067
0.379289
0.345831
0.325275
0.311054
0.302095
0.30194
3.00002
2.99999
2.99995
2.99979
2.99957
2.99867
2.9974
2.99234
2.98476
2.95721
2.90672
2.76307
2.42824
1.73576
0.792039
0.399472
0.448884
0.470269
0.450619
0.419514
0.391483
0.376135
0.368361
0.367342
0.377191
3.00002
2.99999
2.99996
2.99982
2.99962
2.99882
2.99769
2.99314
2.98639
2.96172
2.91609
2.78893
2.47615
1.84562
0.872794
0.457098
0.472865
0.485637
0.479706
0.459003
0.439858
0.431844
0.432865
0.445994
0.480636
3.00002
3
2.99997
2.99985
2.99969
2.99903
2.99806
2.99454
2.98824
2.96901
2.92395
2.81764
2.519
1.96042
0.984759
0.529253
0.489855
0.502653
0.507401
0.497006
0.489318
0.491189
0.508171
0.550912
0.65222
3
2.99995
2.9999
2.99967
2.99934
2.99804
2.99616
2.98899
2.97697
2.93816
2.84942
2.64506
2.10187
1.26533
0.527399
0.277869
0.329094
0.344475
0.312303
0.257671
0.205148
0.163142
0.121773
0.0759131
0.0419956
3
2.99995
2.9999
2.99967
2.99935
2.99806
2.99621
2.98914
2.9773
2.93902
2.85155
2.64977
2.11277
1.27955
0.534721
0.277837
0.330415
0.346562
0.314606
0.260773
0.209608
0.169168
0.130115
0.0896085
0.0653498
3
2.99996
2.9999
2.99968
2.99937
2.99811
2.99631
2.98941
2.97795
2.94061
2.85603
2.65919
2.13818
1.31239
0.553221
0.281504
0.336281
0.354144
0.322984
0.271232
0.223038
0.186094
0.152006
0.119983
0.103957
3
2.99996
2.99991
2.99969
2.9994
2.99819
2.99647
2.98984
2.97893
2.94305
2.86277
2.67352
2.17727
1.36418
0.581632
0.288074
0.346047
0.366773
0.337059
0.288308
0.243926
0.211281
0.182756
0.157805
0.146288
3
2.99996
2.99991
2.99971
2.99942
2.99827
2.99663
2.99018
2.98014
2.94549
2.87307
2.6927
2.23296
1.43812
0.621926
0.301466
0.361577
0.385378
0.357075
0.311809
0.271208
0.242805
0.219213
0.199723
0.191318
3
2.99996
2.99992
2.99973
2.99946
2.99838
2.99685
2.99075
2.98156
2.94867
2.88515
2.71572
2.29985
1.53276
0.673802
0.32533
0.385015
0.410723
0.383688
0.341654
0.304918
0.280479
0.261728
0.247243
0.241764
3
2.99997
2.99992
2.99975
2.9995
2.99851
2.99712
2.99155
2.98317
2.953
2.89684
2.74027
2.37189
1.64406
0.736436
0.363999
0.419738
0.44389
0.417928
0.379134
0.345658
0.325089
0.310857
0.30189
0.301733
3
2.99997
2.99993
2.99977
2.99955
2.99865
2.99738
2.99232
2.98473
2.95718
2.90669
2.76303
2.42821
1.73568
0.791962
0.399332
0.448761
0.47015
0.450494
0.419377
0.391335
0.375979
0.3682
0.367179
0.377031
3
2.99997
2.99994
2.9998
2.9996
2.9988
2.99767
2.99312
2.98637
2.96169
2.91606
2.78888
2.47613
1.84553
0.872717
0.456968
0.472753
0.485527
0.479593
0.458882
0.43973
0.431713
0.432733
0.445865
0.480518
3
2.99998
2.99995
2.99983
2.99967
2.99901
2.99804
2.99452
2.98822
2.96898
2.92392
2.8176
2.51896
1.96035
0.984685
0.529135
0.489748
0.502549
0.507297
0.496898
0.489208
0.491079
0.508065
0.550815
0.65214
3
2.99995
2.9999
2.99967
2.99934
2.99804
2.99616
2.98899
2.97697
2.93816
2.84942
2.64506
2.10187
1.26533
0.527398
0.27787
0.329094
0.344476
0.312304
0.257671
0.205148
0.163143
0.121774
0.0759135
0.0419959
3
2.99995
2.9999
2.99967
2.99935
2.99806
2.99621
2.98914
2.9773
2.93902
2.85155
2.64977
2.11277
1.27954
0.53472
0.277837
0.330415
0.346562
0.314606
0.260773
0.209608
0.169169
0.130116
0.0896088
0.0653501
3
2.99996
2.9999
2.99968
2.99937
2.99811
2.99631
2.98941
2.97795
2.94061
2.85602
2.65918
2.13817
1.31239
0.553219
0.281505
0.336281
0.354143
0.322984
0.271232
0.223038
0.186094
0.152006
0.119983
0.103957
3
2.99996
2.99991
2.99969
2.9994
2.99819
2.99647
2.98984
2.97893
2.94305
2.86277
2.67352
2.17727
1.36418
0.58163
0.288075
0.346047
0.366773
0.337059
0.288307
0.243926
0.211281
0.182756
0.157805
0.146289
3
2.99996
2.99991
2.99971
2.99942
2.99827
2.99663
2.99018
2.98014
2.94549
2.87307
2.6927
2.23295
1.43812
0.621924
0.301466
0.361577
0.385377
0.357075
0.311809
0.271208
0.242805
0.219213
0.199723
0.191319
3
2.99996
2.99992
2.99973
2.99946
2.99838
2.99685
2.99075
2.98156
2.94867
2.88515
2.71572
2.29985
1.53276
0.6738
0.32533
0.385014
0.410723
0.383688
0.341654
0.304918
0.280479
0.261728
0.247243
0.241764
3
2.99997
2.99992
2.99975
2.9995
2.99851
2.99712
2.99155
2.98317
2.953
2.89684
2.74027
2.37189
1.64406
0.736433
0.363999
0.419737
0.44389
0.417927
0.379134
0.345658
0.325089
0.310857
0.30189
0.301733
3
2.99997
2.99993
2.99977
2.99955
2.99865
2.99738
2.99232
2.98473
2.95718
2.90669
2.76303
2.4282
1.73567
0.79196
0.399332
0.448761
0.47015
0.450493
0.419377
0.391334
0.375979
0.3682
0.367179
0.377032
3
2.99997
2.99994
2.9998
2.9996
2.9988
2.99767
2.99312
2.98637
2.96169
2.91606
2.78888
2.47613
1.84552
0.872715
0.456967
0.472754
0.485527
0.479593
0.458882
0.43973
0.431713
0.432733
0.445865
0.480518
3
2.99998
2.99995
2.99983
2.99967
2.99901
2.99804
2.99452
2.98822
2.96898
2.92392
2.81759
2.51896
1.96035
0.984682
0.529134
0.489749
0.50255
0.507297
0.496898
0.489208
0.491079
0.508065
0.550815
0.65214
3
2.99995
2.9999
2.99967
2.99934
2.99804
2.99616
2.98899
2.97697
2.93816
2.84942
2.64506
2.10187
1.26533
0.527398
0.27787
0.329094
0.344476
0.312304
0.257671
0.205149
0.163143
0.121774
0.0759136
0.0419959
3
2.99995
2.9999
2.99967
2.99935
2.99806
2.99621
2.98914
2.9773
2.93902
2.85155
2.64977
2.11277
1.27954
0.53472
0.277837
0.330415
0.346562
0.314606
0.260773
0.209608
0.169169
0.130116
0.0896089
0.0653502
3
2.99996
2.9999
2.99968
2.99937
2.99811
2.99631
2.98941
2.97795
2.94061
2.85602
2.65918
2.13817
1.31239
0.553219
0.281505
0.336281
0.354143
0.322984
0.271232
0.223038
0.186094
0.152006
0.119983
0.103957
3
2.99996
2.99991
2.99969
2.9994
2.99819
2.99647
2.98984
2.97893
2.94305
2.86277
2.67352
2.17727
1.36418
0.58163
0.288075
0.346047
0.366773
0.337059
0.288307
0.243926
0.211281
0.182756
0.157805
0.146289
3
2.99996
2.99991
2.99971
2.99942
2.99827
2.99663
2.99018
2.98014
2.94549
2.87307
2.6927
2.23295
1.43812
0.621924
0.301466
0.361577
0.385377
0.357075
0.311809
0.271208
0.242805
0.219213
0.199723
0.191319
3
2.99996
2.99992
2.99973
2.99946
2.99838
2.99685
2.99075
2.98156
2.94867
2.88515
2.71572
2.29985
1.53276
0.6738
0.32533
0.385014
0.410723
0.383688
0.341654
0.304918
0.280479
0.261728
0.247243
0.241764
3
2.99997
2.99992
2.99975
2.9995
2.99851
2.99712
2.99155
2.98317
2.953
2.89684
2.74027
2.37189
1.64406
0.736433
0.363999
0.419737
0.44389
0.417927
0.379134
0.345658
0.325089
0.310857
0.30189
0.301733
3
2.99997
2.99993
2.99977
2.99955
2.99865
2.99738
2.99232
2.98473
2.95718
2.90669
2.76303
2.4282
1.73567
0.79196
0.399332
0.448761
0.47015
0.450493
0.419377
0.391334
0.375979
0.3682
0.367179
0.377032
3
2.99997
2.99994
2.9998
2.9996
2.9988
2.99767
2.99312
2.98637
2.96169
2.91606
2.78888
2.47613
1.84552
0.872715
0.456967
0.472754
0.485527
0.479593
0.458882
0.43973
0.431713
0.432733
0.445865
0.480518
3
2.99998
2.99995
2.99983
2.99967
2.99901
2.99804
2.99452
2.98822
2.96898
2.92392
2.81759
2.51896
1.96035
0.984682
0.529134
0.489749
0.50255
0.507297
0.496898
0.489208
0.491079
0.508065
0.550815
0.65214
3
2.99995
2.9999
2.99967
2.99934
2.99804
2.99616
2.98899
2.97697
2.93816
2.84942
2.64506
2.10187
1.26533
0.527398
0.27787
0.329094
0.344476
0.312304
0.257671
0.205149
0.163143
0.121774
0.0759136
0.0419959
3
2.99995
2.9999
2.99967
2.99935
2.99806
2.99621
2.98914
2.9773
2.93902
2.85155
2.64977
2.11277
1.27954
0.53472
0.277837
0.330415
0.346562
0.314606
0.260773
0.209608
0.169169
0.130116
0.0896088
0.0653502
3
2.99996
2.9999
2.99968
2.99937
2.99811
2.99631
2.98941
2.97795
2.94061
2.85602
2.65918
2.13817
1.31239
0.553219
0.281505
0.336281
0.354143
0.322984
0.271232
0.223038
0.186094
0.152006
0.119983
0.103957
3
2.99996
2.99991
2.99969
2.9994
2.99819
2.99647
2.98984
2.97893
2.94305
2.86277
2.67352
2.17727
1.36418
0.58163
0.288075
0.346047
0.366773
0.337059
0.288307
0.243926
0.211281
0.182756
0.157805
0.146289
3
2.99996
2.99991
2.99971
2.99942
2.99827
2.99663
2.99018
2.98014
2.94549
2.87307
2.6927
2.23295
1.43812
0.621924
0.301466
0.361577
0.385377
0.357075
0.311809
0.271208
0.242805
0.219213
0.199723
0.191319
3
2.99996
2.99992
2.99973
2.99946
2.99838
2.99685
2.99075
2.98156
2.94867
2.88515
2.71572
2.29985
1.53276
0.6738
0.32533
0.385014
0.410723
0.383688
0.341654
0.304918
0.280479
0.261728
0.247243
0.241764
3
2.99997
2.99992
2.99975
2.9995
2.99851
2.99712
2.99155
2.98317
2.953
2.89684
2.74027
2.37189
1.64406
0.736433
0.363999
0.419737
0.44389
0.417927
0.379134
0.345658
0.325089
0.310857
0.30189
0.301733
3
2.99997
2.99993
2.99977
2.99955
2.99865
2.99738
2.99232
2.98473
2.95718
2.90669
2.76303
2.4282
1.73567
0.79196
0.399332
0.448761
0.47015
0.450493
0.419377
0.391334
0.375979
0.3682
0.367179
0.377032
3
2.99997
2.99994
2.9998
2.9996
2.9988
2.99767
2.99312
2.98637
2.96169
2.91606
2.78888
2.47613
1.84552
0.872715
0.456967
0.472754
0.485527
0.479593
0.458882
0.43973
0.431713
0.432733
0.445865
0.480518
3
2.99998
2.99995
2.99983
2.99967
2.99901
2.99804
2.99452
2.98822
2.96898
2.92392
2.81759
2.51896
1.96035
0.984682
0.529134
0.489749
0.50255
0.507297
0.496898
0.489208
0.491079
0.508065
0.550815
0.65214
3
2.99995
2.9999
2.99967
2.99934
2.99804
2.99616
2.98899
2.97697
2.93816
2.84942
2.64506
2.10187
1.26533
0.527398
0.27787
0.329094
0.344476
0.312304
0.257671
0.205149
0.163143
0.121774
0.0759135
0.0419959
3
2.99995
2.9999
2.99967
2.99935
2.99806
2.99621
2.98914
2.9773
2.93902
2.85155
2.64977
2.11277
1.27954
0.53472
0.277837
0.330415
0.346562
0.314606
0.260773
0.209608
0.169169
0.130116
0.0896088
0.0653502
3
2.99996
2.9999
2.99968
2.99937
2.99811
2.99631
2.98941
2.97795
2.94061
2.85602
2.65918
2.13817
1.31239
0.553219
0.281505
0.336281
0.354143
0.322984
0.271232
0.223038
0.186094
0.152006
0.119983
0.103957
3
2.99996
2.99991
2.99969
2.9994
2.99819
2.99647
2.98984
2.97893
2.94305
2.86277
2.67352
2.17727
1.36418
0.58163
0.288075
0.346047
0.366773
0.337059
0.288307
0.243926
0.211281
0.182756
0.157805
0.146289
3
2.99996
2.99991
2.99971
2.99942
2.99827
2.99663
2.99018
2.98014
2.94549
2.87307
2.6927
2.23295
1.43812
0.621924
0.301466
0.361577
0.385377
0.357075
0.311809
0.271208
0.242805
0.219213
0.199723
0.191319
3
2.99996
2.99992
2.99973
2.99946
2.99838
2.99685
2.99075
2.98156
2.94867
2.88515
2.71572
2.29985
1.53276
0.6738
0.32533
0.385014
0.410723
0.383688
0.341654
0.304918
0.280479
0.261728
0.247243
0.241764
3
2.99997
2.99992
2.99975
2.9995
2.99851
2.99712
2.99155
2.98317
2.953
2.89684
2.74027
2.37189
1.64406
0.736433
0.363999
0.419737
0.44389
0.417927
0.379134
0.345658
0.325089
0.310857
0.30189
0.301733
3
2.99997
2.99993
2.99977
2.99955
2.99865
2.99738
2.99232
2.98473
2.95718
2.90669
2.76303
2.4282
1.73567
0.79196
0.399332
0.448761
0.47015
0.450493
0.419377
0.391334
0.375979
0.3682
0.367179
0.377032
3
2.99997
2.99994
2.9998
2.9996
2.9988
2.99767
2.99312
2.98637
2.96169
2.91606
2.78888
2.47613
1.84552
0.872715
0.456967
0.472754
0.485527
0.479593
0.458882
0.43973
0.431713
0.432733
0.445865
0.480518
3
2.99998
2.99995
2.99983
2.99967
2.99901
2.99804
2.99452
2.98822
2.96898
2.92392
2.81759
2.51896
1.96035
0.984682
0.529134
0.489749
0.50255
0.507297
0.496898
0.489208
0.491079
0.508065
0.550815
0.65214
3
2.99995
2.9999
2.99967
2.99934
2.99804
2.99616
2.98899
2.97697
2.93816
2.84942
2.64506
2.10187
1.26533
0.527398
0.27787
0.329094
0.344476
0.312304
0.257671
0.205149
0.163143
0.121774
0.0759136
0.0419959
3
2.99995
2.9999
2.99967
2.99935
2.99806
2.99621
2.98914
2.9773
2.93902
2.85155
2.64977
2.11277
1.27954
0.53472
0.277837
0.330415
0.346562
0.314606
0.260773
0.209608
0.169169
0.130116
0.0896088
0.0653502
3
2.99996
2.9999
2.99968
2.99937
2.99811
2.99631
2.98941
2.97795
2.94061
2.85602
2.65918
2.13817
1.31239
0.553219
0.281505
0.336281
0.354143
0.322984
0.271232
0.223038
0.186094
0.152006
0.119983
0.103957
3
2.99996
2.99991
2.99969
2.9994
2.99819
2.99647
2.98984
2.97893
2.94305
2.86277
2.67352
2.17727
1.36418
0.58163
0.288075
0.346047
0.366773
0.337059
0.288307
0.243926
0.211281
0.182756
0.157805
0.146289
3
2.99996
2.99991
2.99971
2.99942
2.99827
2.99663
2.99018
2.98014
2.94549
2.87307
2.6927
2.23295
1.43812
0.621924
0.301466
0.361577
0.385377
0.357075
0.311809
0.271208
0.242805
0.219213
0.199723
0.191319
3
2.99996
2.99992
2.99973
2.99946
2.99838
2.99685
2.99075
2.98156
2.94867
2.88515
2.71572
2.29985
1.53276
0.6738
0.32533
0.385014
0.410723
0.383688
0.341654
0.304918
0.280479
0.261728
0.247243
0.241764
3
2.99997
2.99992
2.99975
2.9995
2.99851
2.99712
2.99155
2.98317
2.953
2.89684
2.74027
2.37189
1.64406
0.736433
0.363999
0.419737
0.44389
0.417927
0.379134
0.345658
0.325089
0.310857
0.30189
0.301733
3
2.99997
2.99993
2.99977
2.99955
2.99865
2.99738
2.99232
2.98473
2.95718
2.90669
2.76303
2.4282
1.73567
0.79196
0.399332
0.448761
0.47015
0.450493
0.419377
0.391334
0.375979
0.3682
0.367179
0.377032
3
2.99997
2.99994
2.9998
2.9996
2.9988
2.99767
2.99312
2.98637
2.96169
2.91606
2.78888
2.47613
1.84552
0.872715
0.456967
0.472754
0.485527
0.479593
0.458882
0.43973
0.431713
0.432733
0.445865
0.480518
3
2.99998
2.99995
2.99983
2.99967
2.99901
2.99804
2.99452
2.98822
2.96898
2.92392
2.81759
2.51896
1.96035
0.984682
0.529134
0.489749
0.50255
0.507297
0.496898
0.489208
0.491079
0.508065
0.550815
0.65214
3
2.99995
2.9999
2.99967
2.99934
2.99804
2.99616
2.98899
2.97697
2.93816
2.84942
2.64506
2.10187
1.26533
0.527398
0.27787
0.329094
0.344476
0.312304
0.257671
0.205148
0.163143
0.121774
0.0759135
0.0419959
3
2.99995
2.9999
2.99967
2.99935
2.99806
2.99621
2.98914
2.9773
2.93902
2.85155
2.64977
2.11277
1.27954
0.53472
0.277837
0.330415
0.346562
0.314606
0.260773
0.209608
0.169169
0.130116
0.0896088
0.0653501
3
2.99996
2.9999
2.99968
2.99937
2.99811
2.99631
2.98941
2.97795
2.94061
2.85602
2.65918
2.13817
1.31239
0.553219
0.281505
0.336281
0.354143
0.322984
0.271232
0.223038
0.186094
0.152006
0.119983
0.103957
3
2.99996
2.99991
2.99969
2.9994
2.99819
2.99647
2.98984
2.97893
2.94305
2.86277
2.67352
2.17727
1.36418
0.58163
0.288075
0.346047
0.366773
0.337059
0.288307
0.243926
0.211281
0.182756
0.157805
0.146289
3
2.99996
2.99991
2.99971
2.99942
2.99827
2.99663
2.99018
2.98014
2.94549
2.87307
2.6927
2.23295
1.43812
0.621924
0.301466
0.361577
0.385377
0.357075
0.311809
0.271208
0.242805
0.219213
0.199723
0.191319
3
2.99996
2.99992
2.99973
2.99946
2.99838
2.99685
2.99075
2.98156
2.94867
2.88515
2.71572
2.29985
1.53276
0.6738
0.32533
0.385014
0.410723
0.383688
0.341654
0.304918
0.280479
0.261728
0.247243
0.241764
3
2.99997
2.99992
2.99975
2.9995
2.99851
2.99712
2.99155
2.98317
2.953
2.89684
2.74027
2.37189
1.64406
0.736433
0.363999
0.419737
0.44389
0.417927
0.379134
0.345658
0.325089
0.310857
0.30189
0.301733
3
2.99997
2.99993
2.99977
2.99955
2.99865
2.99738
2.99232
2.98473
2.95718
2.90669
2.76303
2.4282
1.73567
0.79196
0.399332
0.448761
0.47015
0.450493
0.419377
0.391334
0.375979
0.3682
0.367179
0.377032
3
2.99997
2.99994
2.9998
2.9996
2.9988
2.99767
2.99312
2.98637
2.96169
2.91606
2.78888
2.47613
1.84552
0.872715
0.456967
0.472754
0.485527
0.479593
0.458882
0.43973
0.431713
0.432733
0.445865
0.480518
3
2.99998
2.99995
2.99983
2.99967
2.99901
2.99804
2.99452
2.98822
2.96898
2.92392
2.81759
2.51896
1.96035
0.984682
0.529134
0.489749
0.50255
0.507297
0.496898
0.489208
0.491079
0.508065
0.550815
0.65214
3
2.99995
2.9999
2.99967
2.99934
2.99804
2.99616
2.98899
2.97697
2.93816
2.84942
2.64506
2.10187
1.26533
0.527399
0.277869
0.329094
0.344475
0.312303
0.257671
0.205148
0.163142
0.121773
0.0759131
0.0419956
3
2.99995
2.9999
2.99967
2.99935
2.99806
2.99621
2.98914
2.9773
2.93902
2.85155
2.64977
2.11277
1.27955
0.534721
0.277837
0.330415
0.346562
0.314606
0.260773
0.209608
0.169168
0.130115
0.0896085
0.0653498
3
2.99996
2.9999
2.99968
2.99937
2.99811
2.99631
2.98941
2.97795
2.94061
2.85603
2.65919
2.13818
1.31239
0.553221
0.281504
0.336281
0.354144
0.322984
0.271232
0.223038
0.186094
0.152006
0.119983
0.103957
3
2.99996
2.99991
2.99969
2.9994
2.99819
2.99647
2.98984
2.97893
2.94305
2.86277
2.67352
2.17727
1.36418
0.581632
0.288074
0.346047
0.366773
0.337059
0.288308
0.243926
0.211281
0.182756
0.157805
0.146288
3
2.99996
2.99991
2.99971
2.99942
2.99827
2.99663
2.99018
2.98014
2.94549
2.87307
2.6927
2.23296
1.43812
0.621926
0.301466
0.361577
0.385378
0.357075
0.311809
0.271208
0.242805
0.219213
0.199723
0.191318
3
2.99996
2.99992
2.99973
2.99946
2.99838
2.99685
2.99075
2.98156
2.94867
2.88515
2.71572
2.29985
1.53276
0.673802
0.32533
0.385015
0.410723
0.383688
0.341654
0.304918
0.280479
0.261728
0.247243
0.241764
3
2.99997
2.99992
2.99975
2.9995
2.99851
2.99712
2.99155
2.98317
2.953
2.89684
2.74027
2.37189
1.64406
0.736436
0.363999
0.419738
0.44389
0.417928
0.379134
0.345658
0.325089
0.310857
0.30189
0.301733
3
2.99997
2.99993
2.99977
2.99955
2.99865
2.99738
2.99232
2.98473
2.95718
2.90669
2.76303
2.42821
1.73568
0.791962
0.399332
0.448761
0.47015
0.450494
0.419377
0.391335
0.375979
0.3682
0.367179
0.377031
3
2.99997
2.99994
2.9998
2.9996
2.9988
2.99767
2.99312
2.98637
2.96169
2.91606
2.78888
2.47613
1.84553
0.872717
0.456968
0.472753
0.485527
0.479593
0.458882
0.43973
0.431713
0.432733
0.445865
0.480518
3
2.99998
2.99995
2.99983
2.99967
2.99901
2.99804
2.99452
2.98822
2.96898
2.92392
2.8176
2.51896
1.96035
0.984685
0.529135
0.489748
0.502549
0.507297
0.496898
0.489208
0.491079
0.508065
0.550815
0.65214
3.00002
2.99997
2.99991
2.99968
2.99936
2.99806
2.99618
2.98901
2.977
2.9382
2.84945
2.64513
2.10194
1.26545
0.527532
0.278075
0.32928
0.34466
0.312508
0.257922
0.205468
0.163551
0.122329
0.0768154
0.0436302
3.00002
2.99997
2.99992
2.99969
2.99937
2.99808
2.99623
2.98916
2.97732
2.93905
2.85158
2.64984
2.11284
1.27967
0.534852
0.278042
0.330601
0.346744
0.314809
0.26102
0.209919
0.169559
0.13063
0.0903646
0.0663963
3.00002
2.99997
2.99992
2.9997
2.99939
2.99813
2.99633
2.98944
2.97798
2.94064
2.85606
2.65925
2.13824
1.31251
0.553347
0.281707
0.336463
0.354322
0.323182
0.271468
0.223329
0.186446
0.152442
0.120541
0.104607
3.00002
2.99997
2.99992
2.99971
2.99941
2.99821
2.99649
2.98986
2.97896
2.94309
2.86281
2.67359
2.17734
1.3643
0.581754
0.288277
0.346227
0.366948
0.337249
0.28853
0.24419
0.211589
0.183114
0.158223
0.146744
3.00002
2.99998
2.99993
2.99972
2.99944
2.99829
2.99666
2.9902
2.98016
2.94553
2.87308
2.69276
2.23298
1.43822
0.622019
0.301641
0.361736
0.385533
0.357246
0.312008
0.271441
0.243068
0.219507
0.200048
0.19166
3.00002
2.99998
2.99993
2.99974
2.99948
2.9984
2.99687
2.99077
2.98159
2.9487
2.88517
2.71577
2.29989
1.53287
0.673895
0.325498
0.385163
0.410865
0.383842
0.34183
0.305119
0.280701
0.261969
0.2475
0.242029
3.00002
2.99998
2.99994
2.99977
2.99952
2.99853
2.99714
2.99157
2.98319
2.95303
2.89687
2.74032
2.37194
1.64417
0.736528
0.36416
0.419878
0.444022
0.418067
0.379289
0.345831
0.325275
0.311054
0.302095
0.30194
3.00002
2.99999
2.99995
2.99979
2.99957
2.99867
2.9974
2.99234
2.98476
2.95721
2.90672
2.76307
2.42824
1.73576
0.792038
0.399473
0.448884
0.470269
0.450619
0.419514
0.391483
0.376135
0.368361
0.367342
0.377191
3.00002
2.99999
2.99996
2.99982
2.99962
2.99882
2.99769
2.99314
2.98639
2.96172
2.91609
2.78893
2.47615
1.84562
0.872794
0.457098
0.472865
0.485637
0.479706
0.459003
0.439858
0.431844
0.432865
0.445994
0.480636
3.00002
3
2.99997
2.99985
2.99969
2.99903
2.99806
2.99454
2.98824
2.96901
2.92395
2.81764
2.519
1.96042
0.984758
0.529253
0.489855
0.502653
0.507401
0.497006
0.489318
0.491189
0.508171
0.550912
0.65222
3.00002
3.00001
2.99996
2.9999
2.99965
2.99928
2.99786
2.99569
2.98791
2.97393
2.93134
2.83026
2.60539
2.02378
1.16284
0.618708
0.513341
0.525969
0.537262
0.535982
0.53778
0.552217
0.591178
0.675816
0.85484
3.00002
3.00001
2.99997
2.99991
2.99969
2.99938
2.99812
2.99632
2.98943
2.97791
2.94069
2.85606
2.66022
2.14279
1.32957
0.710129
0.536266
0.550762
0.568545
0.57606
0.586674
0.61382
0.670597
0.775492
0.964712
3.00002
3.00001
2.99998
2.99993
2.99974
2.99947
2.99837
2.99683
2.99063
2.98132
2.94821
2.88264
2.7125
2.28866
1.52976
0.818778
0.57229
0.584967
0.603526
0.617196
0.63426
0.669509
0.734676
0.838857
1.00136
3.00002
3.00001
2.99999
2.99995
2.99979
2.99956
2.99866
2.99738
2.99228
2.98468
2.95704
2.9072
2.7631
2.44112
1.76006
0.940904
0.628821
0.632806
0.647263
0.663766
0.683614
0.721399
0.785078
0.878734
1.01421
3.00002
3.00002
2.99999
2.99996
2.99983
2.99965
2.99893
2.99789
2.99383
2.9876
2.96569
2.92394
2.80973
2.52918
1.94803
1.06133
0.693974
0.673337
0.687453
0.705233
0.72768
0.765014
0.827429
0.909784
1.02346
3.00002
3.00002
3.00001
2.99996
2.9999
2.99967
2.99932
2.998
2.99597
2.98885
2.97568
2.93691
2.84288
2.63688
2.08758
1.27567
0.79844
0.708904
0.721381
0.740146
0.76632
0.802339
0.85863
0.935199
1.03202
3.00002
3.00002
3.00001
2.99997
2.99993
2.99973
2.99945
2.99833
2.99674
2.99046
2.98078
2.94738
2.87832
2.70659
2.27145
1.51992
0.918971
0.744453
0.750153
0.769903
0.800954
0.837457
0.887277
0.95509
1.03966
3.00002
3.00002
3.00001
2.99999
2.99995
2.9998
2.99958
2.99872
2.99747
2.99263
2.98523
2.95898
2.91064
2.77276
2.46596
1.80183
1.07434
0.805136
0.790917
0.804791
0.83264
0.869703
0.915793
0.97558
1.04917
3.00002
3.00002
3.00001
3
2.99996
2.99989
2.99962
2.99923
2.99772
2.99546
2.98723
2.97312
2.92885
2.82808
2.60191
2.04503
1.25349
0.879493
0.832116
0.843299
0.866605
0.900563
0.941303
0.993451
1.05788
3.00003
3.00002
3.00002
3.00001
2.99997
2.99992
2.99972
2.99943
2.99829
2.99661
2.99041
2.97985
2.94647
2.87069
2.69505
2.23951
1.48867
0.992555
0.871248
0.874913
0.896088
0.929322
0.967951
1.01272
1.06851
3.00003
3.00003
3.00002
3.00001
3
2.99994
2.99985
2.99951
2.99901
2.99716
2.99411
2.98421
2.96346
2.90925
2.7682
2.48313
1.80907
1.16939
0.933094
0.913753
0.926068
0.954049
0.991234
1.03285
1.08081
3.00003
3.00003
3.00002
3.00002
3
2.99996
2.99989
2.99964
2.99927
2.99783
2.99572
2.98784
2.97477
2.93292
2.83945
2.62844
2.10161
1.35823
1.01076
0.953792
0.960838
0.982358
1.0154
1.05389
1.09727
3.00003
3.00003
3.00003
3.00002
3.00001
2.99999
2.99992
2.99981
2.9994
2.99878
2.99658
2.99274
2.98086
2.95436
2.88863
2.71347
2.36977
1.6137
1.14344
1.00007
0.994149
1.00706
1.03526
1.07245
1.1126
3.00003
3.00003
3.00003
3.00002
3.00001
3
2.99995
2.99987
2.99956
2.99912
2.99738
2.99488
2.98533
2.97015
2.92076
2.8182
2.56545
2.02812
1.33079
1.07254
1.03642
1.0409
1.06125
1.09359
1.13028
3.00003
3.00003
3.00003
3.00002
3.00002
3.00001
2.99998
2.99989
2.99977
2.99928
2.99855
2.99583
2.99159
2.9771
2.94956
2.8736
2.68799
2.30112
1.56379
1.17264
1.07392
1.07072
1.08474
1.11183
1.14732
3.00003
3.00003
3.00003
3.00003
3.00002
3.00001
3
2.99994
2.99985
2.99951
2.99903
2.99714
2.99439
2.98426
2.96725
2.91474
2.79601
2.53826
1.94239
1.35317
1.13525
1.10796
1.11379
1.1349
1.16528
3.00003
3.00003
3.00003
3.00003
3.00002
3.00002
3
2.99998
2.99988
2.99974
2.99921
2.99843
2.99549
2.99092
2.9752
2.94619
2.86579
2.67837
2.26065
1.56646
1.22466
1.14574
1.14295
1.15681
1.18227
3.00003
3.00003
3.00003
3.00003
3.00003
3.00002
3.00001
3
2.99993
2.99984
2.99949
2.99898
2.99701
2.99413
2.9836
2.96592
2.91163
2.78975
2.52388
1.92767
1.39499
1.20302
1.17701
1.18276
1.20267
3.00003
3.00003
3.00003
3.00003
3.00003
3.00002
3.00002
3
2.99998
2.99988
2.99974
2.9992
2.99839
2.99544
2.99073
2.97496
2.94583
2.86252
2.68668
2.24622
1.6187
1.29942
1.22011
1.2137
1.22321
3.00003
3.00003
3.00003
3.00003
3.00003
3.00003
3.00002
3.00001
2.99999
2.99995
2.9998
2.99959
2.99878
2.99757
2.99314
2.98611
2.96278
2.91833
2.80026
2.53307
1.96877
1.45381
1.27385
1.24656
1.24962
3.00003
3.00003
3.00003
3.00003
3.00003
3.00003
3.00002
3.00002
3
2.99998
2.99988
2.99975
2.99923
2.99847
2.99561
2.9913
2.97607
2.94971
2.87202
2.70825
2.31416
1.69276
1.37015
1.28629
1.27719
3.00003
3.00003
3.00003
3.00003
3.00003
3.00003
3.00003
3.00002
3.00002
2.99999
2.99996
2.99982
2.99962
2.99889
2.99778
2.99379
2.98744
2.9665
2.9273
2.82037
2.59031
2.06978
1.54222
1.34095
1.3107
3.00003
3.00003
3.00003
3.00003
3.00003
3.00003
3.00003
3.00002
3.00002
3.00001
2.99998
2.9999
2.99978
2.99931
2.99864
2.99608
2.9923
2.97891
2.95534
2.88923
2.73826
2.41007
1.78929
1.43857
1.34364
3.00003
3.00003
3.00003
3.00003
3.00003
3.00003
3.00003
3.00003
3.00002
3.00001
3
2.99995
2.99988
2.9996
2.99919
2.99767
2.99543
2.9873
2.97422
2.93298
2.85084
2.64777
2.21091
1.63978
1.41153
3.00003
3.00003
3.00003
3.00003
3.00003
3.00003
3.00003
3.00003
3.00003
3.00002
3.00001
2.99998
2.99994
2.99977
2.99952
2.9986
2.99725
2.99222
2.98453
2.95842
2.90931
2.78279
2.48092
1.91759
1.53353
3.00003
3.00003
3.00003
3.00003
3.00003
3.00003
3.00003
3.00003
3.00003
3.00003
3.00002
3.00001
2.99996
2.9999
2.99968
2.99934
2.99811
2.99623
2.98965
2.97866
2.94479
2.87255
2.70771
2.31241
1.74559
3.00003
3.00003
3.00003
3.00003
3.00003
3.00003
3.00003
3.00003
3.00003
3.00003
3.00002
3.00001
3
2.99994
2.99986
2.99955
2.99909
2.99744
2.99487
2.98624
2.97086
2.92696
2.82705
2.61676
2.1255
3.00003
3.00003
3.00003
3.00003
3.00003
3.00003
3.00003
3.00003
3.00003
3.00003
3.00003
3.00002
3.00001
2.99999
2.99991
2.99979
2.99937
2.99874
2.99645
2.99289
2.98085
2.95962
2.89825
2.76932
2.4554
3.00003
3.00003
3.00003
3.00003
3.00003
3.00003
3.00003
3.00003
3.00003
3.00003
3.00003
3.00002
3.00002
3
2.99996
2.99989
2.99965
2.99929
2.99796
2.99601
2.98892
2.97775
2.94181
2.87247
2.6979
3.00003
3.00003
3.00003
3.00003
3.00003
3.00003
3.00003
3.00003
3.00003
3.00003
3.00003
3.00003
3.00002
3.00001
3
2.99994
2.99985
2.99954
2.99906
2.99738
2.99477
2.98589
2.97073
2.92638
2.83188
3.00003
3.00003
3.00003
3.00003
3.00003
3.00003
3.00003
3.00003
3.00003
3.00003
3.00003
3.00003
3.00003
3.00002
3.00001
2.99999
2.99991
2.99979
2.99938
2.99875
2.99654
2.99299
2.98149
2.96068
2.90167
3.00003
3.00003
3.00003
3.00003
3.00003
3.00003
3.00003
3.00003
3.00003
3.00003
3.00003
3.00003
3.00003
3.00002
3.00002
3
2.99997
2.99987
2.99972
2.99917
2.99834
2.99543
2.99075
2.97573
2.9484
3.00003
3.00003
3.00003
3.00003
3.00003
3.00003
3.00003
3.00003
3.00003
3.00003
3.00003
3.00003
3.00003
3.00003
3.00002
3.00001
3
2.99994
2.99985
2.99952
2.99904
2.9973
2.99467
2.98555
2.97063
3.00003
3.00003
3.00003
3.00003
3.00003
3.00003
3.00003
3.00003
3.00003
3.00003
3.00003
3.00003
3.00003
3.00003
3.00002
3.00002
3
2.99998
2.99989
2.99975
2.99925
2.9985
2.99581
2.99159
2.97738
3.00003
3.00003
3.00003
3.00003
3.00003
3.00003
3.00003
3.00003
3.00003
3.00003
3.00003
3.00003
3.00003
3.00003
3.00003
3.00002
3.00001
2.99998
2.99994
2.99977
2.99951
2.99856
2.99713
2.99192
2.98336
3.00003
3.00003
3.00003
3.00003
3.00003
3.00003
3.00003
3.00003
3.00003
3.00003
3.00003
3.00003
3.00003
3.00003
3.00003
3.00002
3.00001
3
2.99993
2.99984
2.99949
2.99897
2.99705
2.99383
2.98354
3.00003
3.00003
3.00003
3.00003
3.00003
3.00003
3.00003
3.00003
3.00003
3.00003
3.00003
3.00003
3.00003
3.00003
3.00003
3.00002
3.00002
2.99999
2.99995
2.9998
2.99958
2.99872
2.99746
2.9926
2.98499
3.00003
3.00003
3.00003
3.00003
3.00003
3.00003
3.00003
3.00003
3.00003
3.00003
3.00003
3.00003
3.00003
3.00003
3.00003
3.00002
3.00002
2.99999
2.99995
2.99981
2.9996
2.99875
2.99754
2.99277
2.98534
3.00003
3.00003
3.00003
3.00003
3.00003
3.00003
3.00003
3.00003
3.00003
3.00003
3.00003
3.00003
3.00003
3.00003
3.00003
3.00002
3.00001
3
2.99994
2.99985
2.99951
2.99902
2.99709
2.99415
2.98369
3.00003
3.00003
3.00003
3.00003
3.00003
3.00003
3.00003
3.00003
3.00003
3.00003
3.00003
3.00003
3.00003
3.00003
3.00003
3.00002
3.00001
3
2.99994
2.99985
2.9995
2.99901
2.99702
2.99415
2.98316
3
2.99999
2.99994
2.99988
2.99963
2.99926
2.99784
2.99567
2.98789
2.97391
2.9313
2.83023
2.60533
2.02373
1.16275
0.618602
0.513238
0.52587
0.537165
0.535885
0.537683
0.552124
0.591092
0.675744
0.854792
3
2.99999
2.99995
2.9999
2.99967
2.99936
2.9981
2.9963
2.9894
2.97789
2.94066
2.85603
2.66017
2.14274
1.32948
0.710034
0.536164
0.550663
0.568452
0.575971
0.586588
0.613739
0.670525
0.775433
0.96467
3
2.99999
2.99996
2.99991
2.99972
2.99945
2.99835
2.99681
2.99061
2.98129
2.94817
2.88263
2.71245
2.28864
1.52968
0.818703
0.572194
0.584873
0.603438
0.617113
0.634182
0.669437
0.734613
0.838805
1.00131
3
3
2.99997
2.99993
2.99977
2.99954
2.99864
2.99736
2.99226
2.98466
2.95702
2.90717
2.76306
2.44108
1.75999
0.940839
0.628731
0.632722
0.647183
0.663691
0.683543
0.721334
0.785021
0.878685
1.01417
3
3
2.99997
2.99994
2.99982