/*--------------------------------*- C++ -*----------------------------------*\
| =========                 |                                                 |
| \\      /  F ield         | OpenFOAM: The Open Source CFD Toolbox           |
|  \\    /   O peration     | Version:  4.1                                   |
|   \\  /    A nd           | Web:      www.OpenFOAM.org                      |
|    \\/     M anipulation  |                                                 |
\*---------------------------------------------------------------------------*/
FoamFile
{
    version     2.0;
    format      ascii;
    class       surfaceScalarField;
    location    "4.56";
    object      phi;
}
// * * * * * * * * * * * * * * * * * * * * * * * * * * * * * * * * * * * * * //

dimensions      [1 0 -1 0 0 0 0];

internalField   nonuniform List<scalar> 
150500
(
0.0168001
1.81146e-10
-3.38933e-12
0.0168001
9.99706e-10
-1.16448e-11
0.0168001
3.72906e-09
-1.3465e-11
0.0168
9.53828e-09
-2.16926e-11
0.0168
2.64817e-08
-2.13178e-11
0.0168
6.05034e-08
-2.91945e-11
0.0167998
1.60738e-07
-2.91383e-11
0.0167995
3.54915e-07
-4.0128e-11
0.0167984
9.82076e-07
-4.13785e-11
0.0167964
2.10935e-06
-7.68239e-11
0.0167895
6.62981e-06
-9.2677e-11
0.0167746
1.54716e-05
-2.27451e-10
0.0167115
6.2362e-05
-2.64922e-10
0.0165302
0.000181316
-1.1124e-09
0.0154623
0.00106713
-2.333e-09
0.0141835
0.00127874
4.42113e-10
0.0129435
0.00123977
-6.31485e-11
0.0116546
0.00128871
-3.36041e-10
0.0102977
0.0013565
-3.3647e-10
0.00885487
0.00144235
-3.23786e-10
0.00730455
0.00154994
-3.14509e-10
0.00564039
0.00166335
-3.30329e-10
0.00387212
0.00176794
-3.43619e-10
0.00199752
0.00187427
-3.56987e-10
0.00199686
-3.7319e-10
0.0168001
3.4725e-10
-3.38092e-12
0.0168001
1.91586e-09
-1.16461e-11
0.0168001
7.16457e-09
-1.34625e-11
0.0168
1.82844e-08
-2.16864e-11
0.0168
5.08895e-08
-2.13114e-11
0.0168
1.15689e-07
-2.91733e-11
0.0167998
3.11794e-07
-2.90971e-11
0.0167995
6.68467e-07
-4.00001e-11
0.0167985
1.97254e-06
-4.12453e-11
0.0167967
4.01078e-06
-7.61502e-11
0.0167896
1.34724e-05
-9.1972e-11
0.0167753
3.01742e-05
-2.24084e-10
0.0167055
0.000131539
-2.64164e-10
0.0165184
0.000368401
-1.0957e-09
0.0154459
0.00213884
-2.32062e-09
0.0141327
0.00259189
4.4189e-10
0.0129114
0.00246095
-6.50809e-11
0.0116432
0.00255668
-3.39184e-10
0.010297
0.00270237
-3.38425e-10
0.00884241
0.00289645
-3.23418e-10
0.00727471
0.00311731
-3.11622e-10
0.00559698
0.00334032
-3.25892e-10
0.00381225
0.0035524
-3.37976e-10
0.00192983
0.00375636
-3.50311e-10
0.00392607
-3.65649e-10
0.0168001
5.04193e-10
-3.36843e-12
0.0168001
2.76253e-09
-1.16412e-11
0.0168001
1.03244e-08
-1.34832e-11
0.0168
2.62324e-08
-2.15996e-11
0.0168
7.33022e-08
-2.14142e-11
0.0168
1.66192e-07
-2.90541e-11
0.0167998
4.50626e-07
-2.90917e-11
0.0167995
9.63749e-07
-3.96549e-11
0.0167986
2.85284e-06
-4.12077e-11
0.0167969
5.81879e-06
-7.47134e-11
0.0167903
1.98525e-05
-9.07908e-11
0.016776
4.48983e-05
-2.17746e-10
0.0167115
0.000195368
-2.5992e-10
0.0165333
0.000546611
-1.05608e-09
0.0155473
0.00312397
-2.28559e-09
0.0142093
0.00392986
4.44514e-10
0.0129825
0.00368766
-6.32507e-11
0.011724
0.00381496
-3.43352e-10
0.0103886
0.00403743
-3.43523e-10
0.0089337
0.00435081
-3.27368e-10
0.00736034
0.00469034
-3.11426e-10
0.00566626
0.00503365
-3.22617e-10
0.00385557
0.00536284
-3.32026e-10
0.00195031
0.0056613
-3.40942e-10
0.00587579
-3.52462e-10
0.0168001
5.74626e-10
-3.34853e-12
0.0168001
3.19358e-09
-1.1636e-11
0.0168001
1.19464e-08
-1.35008e-11
0.0168001
3.04327e-08
-2.14979e-11
0.0168
8.44674e-08
-2.15006e-11
0.0168
1.89622e-07
-2.8873e-11
0.0167999
5.2733e-07
-2.89505e-11
0.0167999
1.01837e-06
-3.88437e-11
0.016799
3.71094e-06
-4.06968e-11
0.0167992
5.67001e-06
-7.06516e-11
0.0167903
2.84903e-05
-8.63706e-11
0.0167819
5.37408e-05
-2.05415e-10
0.0167192
0.000257454
-2.48651e-10
0.016567
0.000698819
-1.00127e-09
0.0157469
0.00394315
-2.27551e-09
0.0143901
0.00528664
3.85955e-10
0.0131547
0.00492297
-8.59823e-11
0.0119024
0.00506696
-3.41463e-10
0.0105772
0.00536236
-3.41606e-10
0.00912928
0.00579817
-3.2534e-10
0.00755463
0.00626465
-3.10867e-10
0.00585425
0.00673326
-3.19885e-10
0.0040111
0.00720579
-3.25705e-10
0.0020325
0.0076396
-3.29831e-10
0.00790771
-3.36555e-10
0.0168001
7.49839e-10
-3.34069e-12
0.0168001
4.1428e-09
-1.16043e-11
0.0168001
1.54359e-08
-1.35945e-11
0.0168
3.94371e-08
-2.13749e-11
0.0168
1.09185e-07
-2.18509e-11
0.0168
2.4788e-07
-2.90304e-11
0.0167998
6.69532e-07
-2.97521e-11
0.0167995
1.38747e-06
-4.27007e-11
0.0167987
4.47692e-06
-3.75631e-11
0.0167972
7.22629e-06
-1.13151e-10
0.0167917
3.37324e-05
5.35588e-13
0.0167821
6.37652e-05
-3.05914e-10
0.0167439
0.000295042
-6.0059e-11
0.0166438
0.000798935
-8.89458e-10
0.0161636
0.00442233
-2.00113e-09
0.0147837
0.00666653
2.3917e-10
0.0134925
0.0062141
-2.17983e-10
0.0122202
0.00633902
-3.7468e-10
0.0109064
0.00667579
-3.57701e-10
0.00946454
0.00723948
-3.27569e-10
0.00788552
0.00784332
-3.19872e-10
0.00615286
0.00846487
-3.2523e-10
0.00425946
0.00909887
-3.26028e-10
0.00219759
0.00970112
-3.24455e-10
0.0101047
-3.25639e-10
0.0168001
9.13643e-10
-3.31497e-12
0.0168001
5.02162e-09
-1.15775e-11
0.0168001
1.871e-08
-1.35661e-11
0.0168
4.78307e-08
-2.12506e-11
0.0168
1.32637e-07
-2.15468e-11
0.0168
3.03069e-07
-2.82874e-11
0.0167998
8.01599e-07
-2.82521e-11
0.0167995
1.77338e-06
-3.62674e-11
0.016799
4.90663e-06
-3.8287e-11
0.0167963
1.00329e-05
-6.78756e-11
0.0167955
3.43079e-05
-4.62862e-11
0.0167897
6.98947e-05
-2.12844e-10
0.0167822
0.000301995
-1.46041e-10
0.0167683
0.000812802
-7.82863e-10
0.0168684
0.00432125
-1.82837e-09
0.0154616
0.0080733
1.30902e-10
0.0140327
0.00764292
-2.34535e-10
0.0127072
0.00766427
-3.57055e-10
0.0113815
0.00800107
-3.43506e-10
0.00996163
0.00865875
-3.22504e-10
0.00837124
0.00943359
-3.26426e-10
0.0066173
0.0102181
-3.30616e-10
0.0046498
0.011066
-3.28122e-10
0.00242709
0.0119234
-3.23301e-10
0.0125312
-3.22504e-10
0.0168001
9.56985e-10
-3.27801e-12
0.0168001
5.29395e-09
-1.15838e-11
0.0168001
1.97054e-08
-1.35433e-11
0.0168001
5.05578e-08
-2.12257e-11
0.0168
1.39091e-07
-2.14618e-11
0.0168
3.18141e-07
-2.81456e-11
0.0168
8.29573e-07
-2.78608e-11
0.0167999
1.84432e-06
-3.54955e-11
0.0167999
4.88336e-06
-3.77666e-11
0.0167994
1.06499e-05
-5.48591e-11
0.0168023
3.12591e-05
-6.05766e-11
0.0168031
6.93287e-05
-1.72756e-10
0.0168498
0.000254756
-1.76433e-10
0.0169798
0.000682849
-7.10176e-10
0.0180629
0.00323713
-1.76221e-09
0.0166411
0.00949506
-6.97804e-11
0.014861
0.00942294
-2.45e-10
0.0134524
0.00907254
-3.03604e-10
0.0121003
0.00935303
-3.03611e-10
0.0106578
0.0101005
-2.99737e-10
0.00905768
0.0110331
-3.1235e-10
0.00725021
0.0120247
-3.2202e-10
0.00520636
0.0131093
-3.24215e-10
0.00282785
0.0143014
-3.20992e-10
0.0153583
-3.19779e-10
0.0168001
1.03126e-09
-3.24504e-12
0.0168001
5.73303e-09
-1.15926e-11
0.0168001
2.13877e-08
-1.35402e-11
0.0168001
5.51343e-08
-2.12197e-11
0.0168
1.51552e-07
-2.1432e-11
0.0168
3.47977e-07
-2.80814e-11
0.0167999
9.03611e-07
-2.76658e-11
0.0167998
2.03196e-06
-3.50484e-11
0.0167994
5.25432e-06
-3.65818e-11
0.0167982
1.18491e-05
-5.21484e-11
0.0167981
3.11826e-05
-5.2459e-11
0.016791
7.67596e-05
-1.59317e-10
0.0168123
0.000232954
-1.07806e-10
0.0168442
0.00065116
-5.10763e-10
0.0172689
0.00281171
-9.11072e-10
0.0167053
0.0100581
-8.06176e-10
0.0151749
0.0109531
-4.0227e-10
0.0140213
0.0102259
-3.0253e-10
0.0127814
0.0105925
-2.98504e-10
0.0114187
0.0114629
-2.93683e-10
0.00987329
0.0125778
-3.03088e-10
0.00809587
0.0138012
-3.1052e-10
0.00600678
0.0151979
-3.12246e-10
0.00342419
0.0168833
-3.12207e-10
0.0187815
-3.13933e-10
0.0168001
1.39694e-09
-3.21895e-12
0.0168001
6.23658e-09
-1.15925e-11
0.0168001
2.54476e-08
-1.35541e-11
0.0168
6.11943e-08
-2.12189e-11
0.0168
1.78731e-07
-2.1463e-11
0.0168
3.90511e-07
-2.81411e-11
0.0167998
1.04552e-06
-2.78792e-11
0.0167995
2.36619e-06
-3.56237e-11
0.0167993
5.48188e-06
-3.69224e-11
0.0167973
1.38151e-05
-5.89019e-11
0.0167966
3.17867e-05
-4.16828e-11
0.0168001
7.35357e-05
-1.77389e-10
0.0167945
0.000237999
-5.39137e-11
0.0168059
0.000640106
-4.80122e-10
0.0170171
0.00259986
-6.92891e-10
0.0163261
0.0107483
-1.23843e-09
0.0157376
0.0115412
-3.4521e-10
0.0145312
0.011432
-2.79908e-10
0.0133089
0.0118145
-2.7847e-10
0.0121495
0.0126215
-2.81349e-10
0.0107552
0.0139718
-2.88608e-10
0.00913573
0.0154194
-2.95271e-10
0.00718971
0.017143
-2.96068e-10
0.004503
0.0195691
-2.93683e-10
0.0232834
-2.96818e-10
0.0168001
-3.24094e-12
2.00171e-09
0.0168001
-1.16267e-11
1.47476e-09
0.0168001
-1.36221e-11
2.64897e-08
0.0168001
-2.18626e-11
2.26122e-08
0.0168001
-2.11705e-11
1.74486e-07
0.0168003
-2.90881e-11
1.47158e-07
0.0168003
-2.80346e-11
1.05982e-06
0.016802
-3.72954e-11
7.40139e-07
0.0168003
-3.58575e-11
7.15941e-06
0.0168113
-5.88842e-11
2.96679e-06
0.0167893
-5.89237e-11
5.38121e-05
0.0168521
-1.31713e-10
1.09218e-05
0.0167087
-5.62957e-11
0.000380911
0.0169905
-5.0608e-10
0.000358407
0.0169415
-5.20798e-10
0.00264849
0.0165505
-1.41193e-09
0.0111384
0.0157045
-2.54208e-10
0.0123869
0.0148389
-2.17236e-10
0.0122973
0.0139189
-2.53695e-10
0.012734
0.0129131
-2.61523e-10
0.0136266
0.0118354
-2.6998e-10
0.0150489
0.0105552
-2.72049e-10
0.0166986
0.00879299
-2.7371e-10
0.0189041
0.00621059
-2.68607e-10
0.0221503
-2.60597e-10
0.0294923
0.0168001
1.85276e-10
-4.88777e-16
0.0168001
1.00237e-09
-2.6191e-15
0.0168001
3.73365e-09
-5.60527e-15
0.0168
9.54466e-09
-1.18702e-14
0.0168
2.64955e-08
-2.089e-14
0.0168
6.0519e-08
-3.92015e-14
0.0167998
1.6078e-07
-7.76462e-14
0.0167995
3.55015e-07
-1.50901e-13
0.0167984
9.82248e-07
-3.47299e-13
0.0167964
2.10985e-06
-7.1067e-13
0.0167895
6.63072e-06
-2.00349e-12
0.0167745
1.54742e-05
-4.65558e-12
0.0167115
6.23661e-05
-1.21881e-11
0.0165302
0.000181333
-4.04703e-11
0.0154622
0.00106719
-1.09709e-10
0.0141834
0.00127873
2.01181e-11
0.0129435
0.00123976
-2.58709e-12
0.0116545
0.0012887
-1.15211e-11
0.0102977
0.00135647
-1.04466e-11
0.00885487
0.00144232
-9.15797e-12
0.00730457
0.00154991
-1.14263e-11
0.00564044
0.00166333
-1.42936e-11
0.00387218
0.00176793
-1.65345e-11
0.00199756
0.00187428
-1.90336e-11
0.0019969
-2.16995e-11
0.0168001
3.53504e-10
-4.76275e-16
0.0168001
1.92412e-09
-2.56655e-15
0.0168001
7.16182e-09
-5.4184e-15
0.0168
1.83299e-08
-1.14635e-14
0.0168
5.08681e-08
-1.96574e-14
0.0168
1.15751e-07
-3.62988e-14
0.0167998
3.11848e-07
-7.18395e-14
0.0167995
6.68724e-07
-1.25206e-13
0.0167985
1.97284e-06
-3.50278e-13
0.0167967
4.01191e-06
-5.62003e-13
0.0167896
1.34745e-05
-2.06134e-12
0.0167753
3.01799e-05
-3.83391e-12
0.0167055
0.000131551
-1.58061e-11
0.0165184
0.000368442
-4.03427e-11
0.0154458
0.00213898
-1.1495e-10
0.0141326
0.00259187
2.29659e-11
0.0129113
0.00246093
2.35205e-13
0.0116431
0.00255665
-1.07063e-11
0.0102969
0.00270232
-1.01674e-11
0.00884236
0.0028964
-9.2973e-12
0.00727468
0.00311725
-1.10164e-11
0.00559698
0.00334028
-1.3481e-11
0.00381226
0.00355238
-1.55507e-11
0.00192984
0.00375637
-1.78039e-11
0.00392612
-2.00424e-11
0.0168001
5.13569e-10
-4.74914e-16
0.0168001
2.77243e-09
-2.56043e-15
0.0168001
1.03249e-08
-5.40588e-15
0.0168
2.62799e-08
-1.14283e-14
0.0168
7.32869e-08
-1.96394e-14
0.0168
1.66244e-07
-3.62774e-14
0.0167998
4.50672e-07
-7.21803e-14
0.0167995
9.63899e-07
-1.26635e-13
0.0167986
2.85285e-06
-3.55048e-13
0.0167969
5.81857e-06
-5.7609e-13
0.0167903
1.98548e-05
-2.12854e-12
0.016776
4.49075e-05
-3.97755e-12
0.0167115
0.000195389
-1.63915e-11
0.0165333
0.000546694
-4.17523e-11
0.0155471
0.00312424
-1.20251e-10
0.0142091
0.00392984
2.68007e-11
0.0129823
0.00368761
2.58889e-12
0.0117238
0.0038149
-1.05385e-11
0.0103884
0.00403735
-1.04633e-11
0.0089336
0.00435073
-9.98708e-12
0.00736026
0.00469026
-1.08413e-11
0.0056662
0.00503358
-1.2607e-11
0.00385554
0.00536279
-1.40826e-11
0.0019503
0.00566129
-1.56432e-11
0.00587583
-1.71006e-11
0.0168001
5.7951e-10
-4.74746e-16
0.0168001
3.21521e-09
-2.55948e-15
0.0168001
1.19216e-08
-5.41133e-15
0.0168001
3.04929e-08
-1.1432e-14
0.0168
8.43628e-08
-1.97318e-14
0.0168
1.89579e-07
-3.65047e-14
0.0167999
5.2706e-07
-7.3034e-14
0.0167999
1.01717e-06
-1.29591e-13
0.016799
3.7125e-06
-3.60519e-13
0.0167993
5.65538e-06
-5.96083e-13
0.0167903
2.85293e-05
-2.18546e-12
0.0167819
5.37018e-05
-4.04562e-12
0.0167191
0.000257573
-1.67148e-11
0.0165669
0.000698946
-4.2376e-11
0.0157465
0.00394371
-1.24499e-10
0.0143897
0.00528665
2.9538e-11
0.0131543
0.00492281
3.65456e-12
0.0119022
0.00506685
-1.07479e-11
0.0105769
0.00536225
-1.08775e-11
0.00912908
0.00579807
-1.05138e-11
0.00755446
0.00626453
-1.06981e-11
0.00585413
0.00673314
-1.18309e-11
0.00401103
0.0072057
-1.2641e-11
0.00203246
0.00763955
-1.34253e-11
0.00790772
-1.41348e-11
0.0168001
7.6267e-10
-4.58732e-16
0.0168001
4.16662e-09
-2.51363e-15
0.0168001
1.54695e-08
-5.23247e-15
0.0168
3.95198e-08
-1.07787e-14
0.0168
1.09401e-07
-1.85531e-14
0.0168
2.48361e-07
-3.28458e-14
0.0167998
6.70566e-07
-6.6028e-14
0.0167994
1.39129e-06
-9.45743e-14
0.0167987
4.47842e-06
-3.80304e-13
0.0167971
7.24738e-06
-2.69584e-13
0.0167917
3.37208e-05
-3.44269e-12
0.016782
6.3817e-05
-3.23543e-12
0.016744
0.000295019
-1.52083e-11
0.0166439
0.000799031
-4.26182e-11
0.0161638
0.00442275
-1.29883e-10
0.0147839
0.00666653
3.05499e-11
0.0134926
0.00621407
5.33802e-12
0.0122202
0.00633898
-1.04101e-11
0.0109063
0.00667575
-1.09251e-11
0.00946446
0.00723941
-1.08485e-11
0.00788542
0.00784322
-1.01778e-11
0.00615276
0.00846475
-1.06708e-11
0.00425938
0.00909875
-1.1102e-11
0.00219755
0.00970102
-1.13571e-11
0.0101047
-1.15049e-11
0.0168001
9.31789e-10
-4.73075e-16
0.0168001
5.03343e-09
-2.56557e-15
0.0168001
1.87377e-08
-5.44575e-15
0.0168
4.78713e-08
-1.12848e-14
0.0168
1.32732e-07
-2.00533e-14
0.0168
3.03262e-07
-3.66935e-14
0.0167998
8.02063e-07
-7.28907e-14
0.0167995
1.77448e-06
-1.35473e-13
0.016799
4.90845e-06
-3.5485e-13
0.0167963
1.00422e-05
-5.55667e-13
0.0167955
3.43108e-05
-2.363e-12
0.0167897
6.99199e-05
-3.65127e-12
0.0167822
0.000302006
-1.66617e-11
0.0167683
0.00081288
-4.10443e-11
0.0168684
0.00432171
-1.2899e-10
0.0154617
0.00807316
2.67633e-11
0.0140328
0.00764287
5.93067e-12
0.0127073
0.00766425
-9.87709e-12
0.0113816
0.00800106
-1.09647e-11
0.00996164
0.00865872
-1.17009e-11
0.00837122
0.00943352
-1.02612e-11
0.00661726
0.010218
-1.00214e-11
0.00464975
0.0110658
-9.90634e-12
0.00242705
0.0119233
-9.61565e-12
0.0125311
-9.25896e-12
0.0168001
9.73448e-10
-4.68242e-16
0.0168001
5.30309e-09
-2.54172e-15
0.0168001
1.97193e-08
-5.37511e-15
0.0168001
5.05755e-08
-1.11226e-14
0.0168
1.39126e-07
-1.96083e-14
0.0168
3.18207e-07
-3.56926e-14
0.0168
8.29728e-07
-7.01767e-14
0.0167999
1.84467e-06
-1.29717e-13
0.0167999
4.8842e-06
-3.26821e-13
0.0167994
1.06519e-05
-5.92019e-13
0.0168023
3.12651e-05
-2.07279e-12
0.0168031
6.93394e-05
-3.42086e-12
0.0168498
0.000254806
-1.5154e-11
0.0169797
0.000683
-3.77622e-11
0.0180624
0.00323801
-1.2541e-10
0.0166406
0.00949481
1.06278e-11
0.0148609
0.00942262
2.35175e-12
0.0134524
0.00907245
-9.49774e-12
0.0121003
0.00935296
-1.08502e-11
0.0106578
0.0101004
-1.1727e-11
0.00905769
0.011033
-9.88381e-12
0.0072502
0.0120247
-9.15224e-12
0.00520634
0.0131092
-8.90273e-12
0.00282784
0.0143013
-8.23054e-12
0.0153582
-7.34034e-12
0.0168001
1.04264e-09
-4.57424e-16
0.0168001
5.73768e-09
-2.49231e-15
0.0168001
2.1381e-08
-5.21375e-15
0.0168001
5.51051e-08
-1.07738e-14
0.0168
1.5147e-07
-1.85335e-14
0.0168
3.47863e-07
-3.35005e-14
0.0167999
9.03343e-07
-6.30557e-14
0.0167998
2.03143e-06
-1.16308e-13
0.0167994
5.25365e-06
-2.71281e-13
0.0167982
1.18461e-05
-5.24261e-13
0.0167982
3.11866e-05
-1.40322e-12
0.016791
7.67508e-05
-3.26443e-12
0.0168123
0.00023299
-8.94666e-12
0.0168443
0.000651207
-2.32545e-11
0.0172695
0.00281208
-6.14526e-11
0.0167056
0.0100581
-4.62934e-11
0.0151749
0.010953
-1.63511e-11
0.0140213
0.0102258
-1.32502e-11
0.0127814
0.0105924
-1.35088e-11
0.0114187
0.0114628
-1.32619e-11
0.00987333
0.0125777
-1.12098e-11
0.00809588
0.0138011
-9.69054e-12
0.00600678
0.0151978
-8.70318e-12
0.00342418
0.0168832
-7.50983e-12
0.0187814
-5.95751e-12
0.0168001
1.37335e-09
-4.55341e-16
0.0168001
6.34342e-09
-2.47721e-15
0.0168001
2.54863e-08
-5.1869e-15
0.0168
6.09553e-08
-1.07143e-14
0.0168
1.78752e-07
-1.84626e-14
0.0168
3.90096e-07
-3.34599e-14
0.0167998
1.04529e-06
-6.30417e-14
0.0167995
2.36547e-06
-1.19699e-13
0.0167993
5.48161e-06
-2.55508e-13
0.0167973
1.38154e-05
-6.06839e-13
0.0167966
3.17808e-05
-1.01174e-12
0.0168001
7.35521e-05
-3.61829e-12
0.0167946
0.000238
-6.28366e-12
0.0168059
0.00064013
-1.96801e-11
0.0170174
0.00260005
-4.88046e-11
0.0163263
0.0107484
-7.83011e-11
0.0157378
0.0115412
-1.66582e-11
0.0145313
0.011432
-1.3275e-11
0.013309
0.0118144
-1.38542e-11
0.0121495
0.0126214
-1.3488e-11
0.0107552
0.0139718
-1.21235e-11
0.00913578
0.0154193
-1.03673e-11
0.00718974
0.0171429
-9.27084e-12
0.00450301
0.019569
-7.19814e-12
0.0232833
-5.44317e-12
0.0168001
-4.47158e-16
1.86603e-09
0.0168001
-2.41346e-15
1.84007e-09
0.0168001
-4.966e-15
2.52923e-08
0.0168001
-1.04758e-14
2.31281e-08
0.0168001
-1.67299e-14
1.73079e-07
0.0168003
-3.05883e-14
1.47803e-07
0.0168003
-5.29561e-14
1.05874e-06
0.016802
-9.72955e-14
7.41237e-07
0.0168003
-2.04948e-13
7.15817e-06
0.0168113
-3.94663e-13
2.97244e-06
0.0167893
-1.02228e-12
5.3809e-05
0.0168521
-2.26536e-12
1.09419e-05
0.0167088
-5.15615e-12
0.000380875
0.0169905
-1.97597e-11
0.000358508
0.0169417
-4.0457e-11
0.00264846
0.0165506
-9.2338e-11
0.0111385
0.0157047
-1.29151e-11
0.0123868
0.014839
-1.07005e-11
0.0122973
0.013919
-1.31249e-11
0.012734
0.0129133
-1.31229e-11
0.0136265
0.0118354
-1.21605e-11
0.0150489
0.0105553
-1.13494e-11
0.0166986
0.00879305
-9.80099e-12
0.018904
0.00621063
-7.6979e-12
0.0221503
-5.82402e-12
0.0294922
0.0168001
1.85282e-10
1.75022e-16
0.0168001
1.0024e-09
1.8352e-16
0.0168001
3.73376e-09
-4.05653e-17
0.0168
9.54492e-09
-8.76815e-17
0.0168
2.64963e-08
-2.62724e-16
0.0168
6.05209e-08
-5.41645e-16
0.0167998
1.60784e-07
-1.62263e-15
0.0167995
3.5503e-07
-3.35394e-15
0.0167984
9.82255e-07
-1.0259e-14
0.0167964
2.10993e-06
-2.04495e-14
0.0167895
6.63074e-06
-7.18952e-14
0.0167745
1.54746e-05
-1.6418e-13
0.0167115
6.23642e-05
-5.26533e-13
0.0165302
0.000181332
-1.72583e-12
0.0154622
0.00106718
-5.12589e-12
0.0141834
0.00127872
3.02686e-13
0.0129435
0.00123976
-1.8561e-13
0.0116546
0.00128869
-4.1558e-13
0.0102977
0.00135647
-3.87808e-13
0.0088549
0.00144232
-3.61167e-13
0.0073046
0.00154991
-4.7665e-13
0.00564047
0.00166333
-6.34556e-13
0.0038722
0.00176793
-7.6712e-13
0.00199758
0.00187429
-9.46195e-13
0.00199691
-1.14167e-12
0.0168001
3.53505e-10
1.73279e-16
0.0168001
1.92413e-09
1.89229e-16
0.0168001
7.16184e-09
-3.62801e-17
0.0168
1.833e-08
-7.84573e-17
0.0168
5.08682e-08
-2.31937e-16
0.0168
1.15752e-07
-4.6712e-16
0.0167998
3.11848e-07
-1.46543e-15
0.0167995
6.68725e-07
-2.63251e-15
0.0167985
1.97284e-06
-1.03259e-14
0.0167967
4.0119e-06
-1.59964e-14
0.0167896
1.34745e-05
-7.33752e-14
0.0167753
3.01798e-05
-1.36454e-13
0.0167055
0.00013155
-6.43278e-13
0.0165184
0.000368441
-1.70639e-12
0.0154458
0.00213898
-5.24588e-12
0.0141326
0.00259186
3.90881e-13
0.0129113
0.00246092
-9.3141e-14
0.0116431
0.00255664
-3.97392e-13
0.0102969
0.00270232
-3.85374e-13
0.00884237
0.00289639
-3.72406e-13
0.00727469
0.00311725
-4.77365e-13
0.00559699
0.00334028
-5.9172e-13
0.00381227
0.00355238
-7.24395e-13
0.00192985
0.00375639
-8.67138e-13
0.00392614
-1.02847e-12
0.0168001
5.13569e-10
1.73002e-16
0.0168001
2.77243e-09
1.89633e-16
0.0168001
1.03249e-08
-3.66503e-17
0.0168
2.628e-08
-7.9112e-17
0.0168
7.3287e-08
-2.34768e-16
0.0168
1.66244e-07
-4.73388e-16
0.0167998
4.50672e-07
-1.48811e-15
0.0167995
9.639e-07
-2.69647e-15
0.0167986
2.85285e-06
-1.04986e-14
0.0167969
5.81858e-06
-1.64507e-14
0.0167903
1.98548e-05
-7.53302e-14
0.016776
4.49074e-05
-1.40229e-13
0.0167115
0.000195389
-6.58622e-13
0.0165333
0.000546694
-1.73907e-12
0.0155471
0.00312424
-5.38815e-12
0.0142091
0.00392983
5.07919e-13
0.0129823
0.00368761
-4.73938e-14
0.0117238
0.0038149
-3.9525e-13
0.0103884
0.00403735
-4.10018e-13
0.0089336
0.00435073
-4.02953e-13
0.00736026
0.00469026
-5.20908e-13
0.00566621
0.00503358
-5.42778e-13
0.00385554
0.0053628
-6.5636e-13
0.00195031
0.0056613
-7.32338e-13
0.00587585
-8.26182e-13
0.0168001
5.79516e-10
1.72871e-16
0.0168001
3.21523e-09
1.89269e-16
0.0168001
1.19216e-08
-3.78581e-17
0.0168001
3.04932e-08
-8.17412e-17
0.0168
8.43634e-08
-2.43531e-16
0.0168
1.89581e-07
-4.9306e-16
0.0167999
5.27063e-07
-1.54306e-15
0.0167999
1.01718e-06
-2.86035e-15
0.016799
3.7125e-06
-1.07626e-14
0.0167993
5.6555e-06
-1.74205e-14
0.0167903
2.8529e-05
-7.7558e-14
0.0167819
5.37021e-05
-1.43406e-13
0.0167191
0.000257573
-6.66271e-13
0.0165669
0.000698946
-1.75177e-12
0.0157465
0.00394371
-5.51284e-12
0.0143896
0.00528664
6.11028e-13
0.0131543
0.00492281
1.31822e-14
0.0119022
0.00506685
-4.02306e-13
0.0105769
0.00536224
-4.08523e-13
0.00912908
0.00579807
-4.22112e-13
0.00755446
0.00626453
-5.18085e-13
0.00585413
0.00673314
-4.79802e-13
0.00401103
0.0072057
-5.36263e-13
0.00203246
0.00763956
-5.72254e-13
0.00790774
-6.07474e-13
0.0168001
7.62663e-10
1.70515e-16
0.0168001
4.16659e-09
1.9441e-16
0.0168001
1.54694e-08
-3.26387e-17
0.0168
3.95195e-08
-6.90281e-17
0.0168
1.094e-07
-2.03133e-16
0.0168
2.48359e-07
-3.90716e-16
0.0167998
6.70562e-07
-1.32764e-15
0.0167994
1.39127e-06
-1.66978e-15
0.0167987
4.47843e-06
-1.16223e-14
0.0167971
7.24726e-06
-5.10157e-15
0.0167917
3.3721e-05
-1.01498e-13
0.016782
6.38169e-05
-1.10053e-13
0.016744
0.00029502
-7.11842e-13
0.0166439
0.000799033
-1.74237e-12
0.0161638
0.00442277
-5.65107e-12
0.0147839
0.00666652
6.6184e-13
0.0134925
0.00621406
7.01378e-14
0.0122202
0.00633898
-4.0802e-13
0.0109063
0.00667574
-4.07552e-13
0.00946445
0.0072394
-4.25884e-13
0.00788541
0.00784321
-4.96678e-13
0.00615275
0.00846475
-4.7385e-13
0.00425938
0.00909876
-4.27997e-13
0.00219755
0.00970104
-4.20865e-13
0.0101047
-4.0813e-13
0.0168001
9.31791e-10
1.72209e-16
0.0168001
5.03344e-09
1.87458e-16
0.0168001
1.87377e-08
-4.12344e-17
0.0168
4.78714e-08
-8.93061e-17
0.0168
1.32733e-07
-2.62894e-16
0.0168
3.03262e-07
-5.42083e-16
0.0167998
8.02064e-07
-1.60846e-15
0.0167995
1.77448e-06
-3.21911e-15
0.016799
4.90846e-06
-1.08815e-14
0.0167963
1.00422e-05
-1.55513e-14
0.0167955
3.43109e-05
-8.6985e-14
0.0167897
6.99202e-05
-1.23025e-13
0.0167822
0.000302007
-6.62607e-13
0.0167683
0.000812885
-1.66565e-12
0.0168683
0.00432175
-5.55231e-12
0.0154617
0.00807315
5.3041e-13
0.0140328
0.00764286
8.87356e-14
0.0127073
0.00766425
-3.98276e-13
0.0113816
0.00800105
-3.82007e-13
0.00996163
0.00865871
-4.20817e-13
0.00837121
0.00943351
-4.23692e-13
0.00661725
0.010218
-4.16265e-13
0.00464975
0.0110658
-2.96261e-13
0.00242705
0.0119233
-2.55523e-13
0.0125311
-2.17186e-13
0.0168001
9.73454e-10
1.71423e-16
0.0168001
5.30311e-09
1.89585e-16
0.0168001
1.97194e-08
-4.0456e-17
0.0168001
5.05758e-08
-8.72961e-17
0.0168
1.39126e-07
-2.55996e-16
0.0168
3.18208e-07
-5.23801e-16
0.0168
8.29733e-07
-1.55174e-15
0.0167999
1.84468e-06
-3.097e-15
0.0167999
4.88424e-06
-9.90375e-15
0.0167994
1.06519e-05
-1.80754e-14
0.0168023
3.12655e-05
-7.49052e-14
0.0168031
6.93397e-05
-1.15687e-13
0.0168498
0.00025481
-5.96503e-13
0.0169797
0.000683012
-1.5114e-12
0.0180624
0.00323808
-5.27833e-12
0.0166406
0.0094948
-7.8906e-14
0.0148608
0.0094226
-6.60718e-14
0.0134524
0.00907243
-3.85929e-13
0.0121003
0.00935295
-3.82005e-13
0.0106578
0.0101004
-4.05936e-13
0.00905768
0.011033
-3.54087e-13
0.00725019
0.0120247
-3.80286e-13
0.00520633
0.0131092
-1.78194e-13
0.00282783
0.0143013
-6.54449e-14
0.0153582
-6.46247e-15
0.0168001
1.04264e-09
1.69842e-16
0.0168001
5.73769e-09
1.94811e-16
0.0168001
2.1381e-08
-3.65207e-17
0.0168001
5.51052e-08
-7.89519e-17
0.0168
1.5147e-07
-2.27141e-16
0.0168
3.47863e-07
-4.65126e-16
0.0167999
9.03345e-07
-1.33982e-15
0.0167998
2.03143e-06
-2.70849e-15
0.0167994
5.25366e-06
-8.03709e-15
0.0167982
1.18461e-05
-1.6104e-14
0.0167982
3.11868e-05
-4.98273e-14
0.016791
7.67508e-05
-1.11879e-13
0.0168123
0.000232993
-3.53161e-13
0.0168443
0.000651212
-9.21693e-13
0.0172696
0.00281211
-2.59601e-12
0.0167056
0.0100581
-2.26791e-12
0.0151749
0.010953
-7.94549e-13
0.0140213
0.0102258
-5.26137e-13
0.0127814
0.0105924
-4.69866e-13
0.0114187
0.0114628
-4.31557e-13
0.00987331
0.0125777
-3.04618e-13
0.00809587
0.0138011
-2.7706e-13
0.00600677
0.0151978
-8.16925e-14
0.00342418
0.0168832
1.08977e-13
0.0187814
2.60999e-13
0.0168001
1.37335e-09
1.69465e-16
0.0168001
6.34347e-09
1.9595e-16
0.0168001
2.54864e-08
-3.68205e-17
0.0168
6.09555e-08
-7.95584e-17
0.0168
1.78753e-07
-2.3129e-16
0.0168
3.90098e-07
-4.76725e-16
0.0167998
1.0453e-06
-1.37074e-15
0.0167995
2.36548e-06
-2.89011e-15
0.0167993
5.48164e-06
-7.6337e-15
0.0167973
1.38155e-05
-1.93225e-14
0.0167966
3.1781e-05
-3.59186e-14
0.0168001
7.35527e-05
-1.28424e-13
0.0167946
0.000238001
-2.51397e-13
0.0168059
0.000640133
-7.79907e-13
0.0170174
0.00260007
-2.04399e-12
0.0163263
0.0107484
-3.47099e-12
0.0157378
0.0115412
-7.5024e-13
0.0145313
0.011432
-5.54495e-13
0.013309
0.0118144
-4.36642e-13
0.0121495
0.0126214
-4.02178e-13
0.0107552
0.0139718
-2.66719e-13
0.00913578
0.0154193
-1.19221e-13
0.00718974
0.0171429
2.77995e-14
0.00450301
0.019569
3.61555e-13
0.0232833
5.74388e-13
0.0168001
1.68718e-16
1.866e-09
0.0168001
2.03089e-16
1.84014e-09
0.0168001
-2.96843e-17
2.52922e-08
0.0168001
-6.42906e-17
2.31286e-08
0.0168001
-1.81518e-16
1.73079e-07
0.0168003
-3.7469e-16
1.47805e-07
0.0168003
-1.03577e-15
1.05875e-06
0.016802
-2.18903e-15
7.41246e-07
0.0168003
-5.86822e-15
7.1582e-06
0.0168113
-1.22636e-14
2.9725e-06
0.0167893
-3.59853e-14
5.38092e-05
0.0168521
-8.32418e-14
1.09422e-05
0.0167088
-1.98105e-13
0.000380876
0.0169905
-7.91156e-13
0.000358511
0.0169417
-1.67165e-12
0.00264846
0.0165506
-3.97495e-12
0.0111385
0.0157047
-6.11386e-13
0.0123868
0.014839
-4.57559e-13
0.0122973
0.013919
-4.00062e-13
0.012734
0.0129133
-3.46473e-13
0.0136265
0.0118354
-1.59375e-13
0.0150489
0.0105553
-2.24652e-14
0.0166986
0.00879305
2.59801e-13
0.018904
0.00621062
6.96126e-13
0.0221503
1.17196e-12
0.0294923
0.0168001
1.85282e-10
1.38219e-17
0.0168001
1.0024e-09
5.58339e-17
0.0168001
3.73376e-09
1.59093e-16
0.0168
9.54492e-09
3.00571e-16
0.0168
2.64963e-08
7.1212e-16
0.0168
6.05209e-08
1.31525e-15
0.0167998
1.60784e-07
3.22584e-15
0.0167995
3.5503e-07
6.60043e-15
0.0167984
9.82256e-07
1.61665e-14
0.0167964
2.10993e-06
3.49864e-14
0.0167895
6.63074e-06
9.75377e-14
0.0167745
1.54746e-05
2.30459e-13
0.0167115
6.23641e-05
5.57563e-13
0.0165302
0.000181332
1.84685e-12
0.0154622
0.00106718
4.64632e-12
0.0141834
0.00127872
-2.10249e-12
0.0129435
0.00123976
-6.84109e-13
0.0116546
0.00128869
-1.7117e-13
0.0102977
0.00135647
-2.2144e-13
0.0088549
0.00144232
-4.55117e-13
0.00730461
0.00154991
-6.00235e-13
0.00564047
0.00166333
-7.00933e-13
0.0038722
0.00176794
-7.60618e-13
0.00199758
0.00187429
-7.59064e-13
0.00199691
-6.96643e-13
0.0168001
3.53505e-10
1.21033e-17
0.0168001
1.92413e-09
4.98293e-17
0.0168001
7.16184e-09
1.41371e-16
0.0168
1.833e-08
2.67569e-16
0.0168
5.08682e-08
6.27323e-16
0.0168
1.15752e-07
1.13002e-15
0.0167998
3.11848e-07
2.87034e-15
0.0167995
6.68725e-07
5.08935e-15
0.0167985
1.97284e-06
1.62438e-14
0.0167967
4.0119e-06
2.64206e-14
0.0167896
1.34745e-05
1.0027e-13
0.0167753
3.01798e-05
1.84698e-13
0.0167055
0.00013155
7.56944e-13
0.0165184
0.000368441
1.83436e-12
0.0154458
0.00213898
4.92993e-12
0.0141326
0.00259186
-2.26678e-12
0.0129113
0.00246092
-8.50204e-13
0.0116431
0.00255664
-1.70933e-13
0.0102969
0.00270232
-2.42624e-13
0.00884237
0.00289639
-4.96665e-13
0.00727469
0.00311725
-6.66979e-13
0.00559699
0.00334028
-7.8559e-13
0.00381227
0.00355238
-8.57631e-13
0.00192985
0.00375639
-9.09428e-13
0.00392614
-8.88695e-13
0.0168001
5.13569e-10
1.19067e-17
0.0168001
2.77243e-09
4.89178e-17
0.0168001
1.03249e-08
1.39499e-16
0.0168
2.628e-08
2.63765e-16
0.0168
7.3287e-08
6.21838e-16
0.0168
1.66244e-07
1.12057e-15
0.0167998
4.50672e-07
2.8649e-15
0.0167995
9.639e-07
5.12278e-15
0.0167986
2.85285e-06
1.63483e-14
0.0167969
5.81858e-06
2.6947e-14
0.0167903
1.98548e-05
1.02965e-13
0.016776
4.49074e-05
1.90915e-13
0.0167115
0.000195389
7.82644e-13
0.0165333
0.000546694
1.89643e-12
0.0155471
0.00312424
5.17086e-12
0.0142091
0.00392983
-2.48648e-12
0.0129823
0.00368761
-9.87649e-13
0.0117238
0.0038149
-2.07346e-13
0.0103884
0.00403735
-2.69313e-13
0.0089336
0.00435073
-5.70648e-13
0.00736026
0.00469026
-7.52589e-13
0.00566621
0.00503358
-9.03763e-13
0.00385554
0.0053628
-9.9913e-13
0.00195031
0.00566131
-1.08415e-12
0.00587585
-1.12723e-12
0.0168001
5.79517e-10
1.19559e-17
0.0168001
3.21523e-09
4.88467e-17
0.0168001
1.19216e-08
1.39783e-16
0.0168001
3.04932e-08
2.63929e-16
0.0168
8.43634e-08
6.25184e-16
0.0168
1.89581e-07
1.12854e-15
0.0167999
5.27064e-07
2.89126e-15
0.0167999
1.01718e-06
5.24325e-15
0.016799
3.7125e-06
1.64796e-14
0.0167993
5.6555e-06
2.77609e-14
0.0167903
2.8529e-05
1.04803e-13
0.0167819
5.37022e-05
1.92824e-13
0.0167191
0.000257573
7.91068e-13
0.0165669
0.000698946
1.91058e-12
0.0157465
0.00394371
5.32745e-12
0.0143896
0.00528664
-2.63823e-12
0.0131543
0.00492281
-1.05395e-12
0.0119022
0.00506685
-2.31072e-13
0.0105769
0.00536224
-3.00157e-13
0.00912908
0.00579807
-6.7278e-13
0.00755446
0.00626453
-8.58071e-13
0.00585413
0.00673314
-1.05486e-12
0.00401103
0.0072057
-1.19042e-12
0.00203246
0.00763957
-1.31105e-12
0.00790774
-1.37678e-12
0.0168001
7.62663e-10
1.00365e-17
0.0168001
4.16659e-09
4.2427e-17
0.0168001
1.54694e-08
1.20191e-16
0.0168
3.95195e-08
2.25465e-16
0.0168
1.094e-07
5.31892e-16
0.0168
2.48359e-07
9.27163e-16
0.0167998
6.70562e-07
2.50112e-15
0.0167994
1.39127e-06
3.45989e-15
0.0167987
4.47843e-06
1.71976e-14
0.0167971
7.24726e-06
1.19665e-14
0.0167917
3.3721e-05
1.31838e-13
0.016782
6.38169e-05
1.53731e-13
0.016744
0.00029502
8.45388e-13
0.0166439
0.000799034
1.91017e-12
0.0161638
0.00442277
5.5569e-12
0.0147839
0.00666652
-2.70232e-12
0.0134925
0.00621406
-1.16319e-12
0.0122202
0.00633898
-3.00782e-13
0.0109063
0.00667574
-3.75605e-13
0.00946445
0.0072394
-7.81484e-13
0.00788541
0.00784321
-1.01064e-12
0.00615275