/*--------------------------------*- C++ -*----------------------------------*\
| =========                 |                                                 |
| \\      /  F ield         | OpenFOAM: The Open Source CFD Toolbox           |
|  \\    /   O peration     | Version:  4.1                                   |
|   \\  /    A nd           | Web:      www.OpenFOAM.org                      |
|    \\/     M anipulation  |                                                 |
\*---------------------------------------------------------------------------*/
FoamFile
{
    version     2.0;
    format      ascii;
    class       surfaceScalarField;
    location    "3.96";
    object      phi;
}
// * * * * * * * * * * * * * * * * * * * * * * * * * * * * * * * * * * * * * //

dimensions      [1 0 -1 0 0 0 0];

internalField   nonuniform List<scalar> 
150500
(
0.0168001
1.74157e-10
-3.38634e-12
0.0168001
9.63807e-10
-1.16473e-11
0.0168001
3.59723e-09
-1.34627e-11
0.0168
9.19814e-09
-2.17171e-11
0.0168
2.55242e-08
-2.13116e-11
0.0168
5.81151e-08
-2.92534e-11
0.0167998
1.55619e-07
-2.92396e-11
0.0167995
3.35988e-07
-4.03649e-11
0.0167984
9.73404e-07
-4.20604e-11
0.0167965
2.0085e-06
-7.79932e-11
0.0167895
6.61593e-06
-9.71112e-11
0.0167749
1.49562e-05
-2.35192e-10
0.0167088
6.48956e-05
-2.98704e-10
0.0165251
0.000182705
-1.19067e-09
0.0154413
0.00107829
-2.5423e-09
0.0141555
0.0012874
5.51431e-10
0.0129153
0.00124084
-2.81472e-11
0.0116258
0.00128955
-3.22934e-10
0.0102695
0.00135683
-3.1487e-10
0.00882598
0.0014435
-2.86725e-10
0.00727807
0.00154825
-2.7849e-10
0.00561844
0.00166028
-2.96644e-10
0.00385508
0.00176193
-3.10456e-10
0.00198758
0.00186756
-3.21729e-10
0.00198767
-3.34973e-10
0.0168001
3.46416e-10
-3.37897e-12
0.0168001
1.90951e-09
-1.16471e-11
0.0168001
7.14196e-09
-1.34675e-11
0.0168
1.82182e-08
-2.16845e-11
0.0168
5.07504e-08
-2.1342e-11
0.0168
1.15362e-07
-2.91994e-11
0.0167998
3.11267e-07
-2.92096e-11
0.0167995
6.67681e-07
-4.01695e-11
0.0167984
1.97138e-06
-4.19469e-11
0.0167965
4.01664e-06
-7.71409e-11
0.0167892
1.35024e-05
-9.63188e-11
0.0167742
3.02535e-05
-2.31772e-10
0.0167059
0.000132054
-2.97083e-10
0.0165175
0.000370144
-1.1728e-09
0.0154447
0.00214551
-2.52949e-09
0.0141292
0.00260444
5.48992e-10
0.0129036
0.00246712
-3.09036e-11
0.0116332
0.00256006
-3.24901e-10
0.0102863
0.00270415
-3.15144e-10
0.00883082
0.00289904
-2.84263e-10
0.00726342
0.00311601
-2.73993e-10
0.00558712
0.00333721
-2.90618e-10
0.00380307
0.00354458
-3.03987e-10
0.0019254
0.00374523
-3.14968e-10
0.00391332
-3.28538e-10
0.0168001
5.0374e-10
-3.36643e-12
0.0168001
2.75825e-09
-1.16421e-11
0.0168001
1.03082e-08
-1.34875e-11
0.0168
2.6181e-08
-2.15981e-11
0.0168
7.31925e-08
-2.14408e-11
0.0168
1.65912e-07
-2.90775e-11
0.0167998
4.50238e-07
-2.91923e-11
0.0167995
9.6235e-07
-3.98064e-11
0.0167986
2.85187e-06
-4.18562e-11
0.0167969
5.81084e-06
-7.56196e-11
0.0167901
1.98808e-05
-9.49213e-11
0.0167757
4.49761e-05
-2.25019e-10
0.016711
0.000195646
-2.91696e-10
0.0165328
0.000547326
-1.13071e-09
0.0155473
0.00312538
-2.4935e-09
0.014208
0.00394542
5.43421e-10
0.0129795
0.00369617
-2.96524e-11
0.01172
0.00381975
-3.24159e-10
0.0103846
0.00404003
-3.14915e-10
0.00892914
0.00435453
-2.8284e-10
0.00735601
0.00468947
-2.69535e-10
0.00566259
0.00503136
-2.82723e-10
0.00385095
0.00535475
-2.94641e-10
0.00194758
0.00564866
-3.03923e-10
0.00586081
-3.15343e-10
0.0168001
5.68421e-10
-3.34635e-12
0.0168001
3.16229e-09
-1.16368e-11
0.0168001
1.18324e-08
-1.35035e-11
0.0168001
3.01519e-08
-2.14973e-11
0.0168
8.36621e-08
-2.1519e-11
0.0168
1.87733e-07
-2.88911e-11
0.0167999
5.23084e-07
-2.90295e-11
0.0167999
1.0033e-06
-3.89697e-11
0.016799
3.71469e-06
-4.12462e-11
0.0167993
5.54024e-06
-7.14657e-11
0.0167901
2.87411e-05
-9.01747e-11
0.016782
5.3345e-05
-2.12073e-10
0.0167186
0.000257986
-2.78015e-10
0.0165664
0.00069853
-1.07002e-09
0.0157484
0.00393774
-2.47684e-09
0.0143899
0.00530545
4.53358e-10
0.0131542
0.00493259
-5.9184e-11
0.0119012
0.00507281
-3.18634e-10
0.0105767
0.00536506
-3.07977e-10
0.00912821
0.00580305
-2.75976e-10
0.00755374
0.00626426
-2.6408e-10
0.00585367
0.00673212
-2.74034e-10
0.00400935
0.0071977
-2.82877e-10
0.00203123
0.00762692
-2.88967e-10
0.0078919
-2.95985e-10
0.0168001
7.56681e-10
-3.33975e-12
0.0168001
4.17445e-09
-1.16014e-11
0.0168001
1.55488e-08
-1.35975e-11
0.0168
3.97166e-08
-2.13702e-11
0.0168
1.10004e-07
-2.18465e-11
0.0168
2.49965e-07
-2.90101e-11
0.0167998
6.7341e-07
-2.97345e-11
0.0167994
1.40906e-06
-4.24873e-11
0.0167986
4.46723e-06
-3.79545e-11
0.0167969
7.3442e-06
-1.11789e-10
0.0167917
3.35204e-05
-4.54546e-12
0.0167815
6.38558e-05
-3.05696e-10
0.0167449
0.000293594
-8.80762e-11
0.0166465
0.000796149
-9.38955e-10
0.0161784
0.00440023
-2.1533e-09
0.0147977
0.00668763
2.39271e-10
0.0135029
0.00622814
-1.8506e-10
0.0122286
0.00634736
-3.31898e-10
0.0109138
0.00668055
-3.1149e-10
0.00946966
0.00724709
-2.74984e-10
0.00788988
0.00784447
-2.70838e-10
0.00615615
0.00846691
-2.76373e-10
0.00426026
0.00909237
-2.78553e-10
0.00219748
0.00968981
-2.78908e-10
0.0100893
-2.79669e-10
0.0168001
9.09433e-10
-3.31243e-12
0.0168001
4.9996e-09
-1.1579e-11
0.0168001
1.86312e-08
-1.35642e-11
0.0168
4.76353e-08
-2.12511e-11
0.0168
1.32093e-07
-2.1545e-11
0.0168
3.01836e-07
-2.82861e-11
0.0167998
7.98224e-07
-2.82531e-11
0.0167995
1.76637e-06
-3.62641e-11
0.016799
4.87967e-06
-3.83947e-11
0.0167964
1.00183e-05
-6.77729e-11
0.0167956
3.4072e-05
-4.80749e-11
0.0167903
6.93375e-05
-2.12822e-10
0.0167833
0.000299592
-1.59342e-10
0.0167735
0.000805388
-8.1086e-10
0.0168973
0.00427106
-1.9521e-09
0.0154918
0.00809356
-1.85112e-10
0.014056
0.0076646
-2.49682e-10
0.0127277
0.00767594
-2.89333e-10
0.0113993
0.00800968
-2.80223e-10
0.00997666
0.00866984
-2.62988e-10
0.00838379
0.0094374
-2.70159e-10
0.00662638
0.0102247
-2.75399e-10
0.00465419
0.0110633
-2.74795e-10
0.00242881
0.0119151
-2.7215e-10
0.0125181
-2.69876e-10
0.0168001
9.50847e-10
-3.27591e-12
0.0168001
5.26147e-09
-1.1584e-11
0.0168001
1.95846e-08
-1.35412e-11
0.0168001
5.02587e-08
-2.12224e-11
0.0168
1.38227e-07
-2.14492e-11
0.0168
3.1621e-07
-2.81203e-11
0.0168
8.24051e-07
-2.77752e-11
0.0167999
1.83277e-06
-3.53191e-11
0.0167999
4.84346e-06
-3.71818e-11
0.0167994
1.05842e-05
-5.35308e-11
0.0168025
3.08087e-05
-5.71102e-11
0.016803
6.89662e-05
-1.59687e-10
0.016852
0.000249846
-1.4253e-10
0.0169872
0.000669439
-5.99345e-10
0.0180995
0.0031564
-1.11021e-09
0.0166863
0.0095054
-7.35923e-10
0.0148947
0.00945625
-3.94178e-10
0.013481
0.00908983
-2.54923e-10
0.0121254
0.00936573
-2.51045e-10
0.0106776
0.0101176
-2.53011e-10
0.00907558
0.0110401
-2.68965e-10
0.0072652
0.0120356
-2.74831e-10
0.00521475
0.0131126
-2.71407e-10
0.00283189
0.0142978
-2.66679e-10
0.01535
-2.62126e-10
0.0168001
1.02965e-09
-3.24352e-12
0.0168001
5.72096e-09
-1.15934e-11
0.0168001
2.13433e-08
-1.35403e-11
0.0168001
5.50042e-08
-2.122e-11
0.0168
1.5126e-07
-2.14312e-11
0.0168
3.47291e-07
-2.80791e-11
0.0167999
9.02165e-07
-2.76562e-11
0.0167997
2.02954e-06
-3.50236e-11
0.0167993
5.23928e-06
-3.6519e-11
0.0167981
1.18614e-05
-5.18933e-11
0.0167978
3.08764e-05
-5.28046e-11
0.0167901
7.67938e-05
-1.55125e-10
0.016809
0.000230208
-1.12767e-10
0.0168326
0.000645869
-5.13152e-10
0.0172099
0.00277643
-9.76653e-10
0.0166712
0.0100412
-1.30838e-09
0.0151756
0.0109513
-5.42573e-10
0.0140323
0.0102332
-2.11168e-10
0.0127971
0.0106015
-2.12197e-10
0.0114385
0.0114761
-2.29166e-10
0.00988913
0.0125897
-2.56734e-10
0.00811202
0.0138135
-2.6155e-10
0.00601781
0.0152059
-2.6013e-10
0.00342969
0.0168855
-2.56367e-10
0.0187798
-2.5304e-10
0.0168001
1.38628e-09
-3.21736e-12
0.0168001
6.18817e-09
-1.15947e-11
0.0168001
2.5229e-08
-1.3555e-11
0.0168
6.07347e-08
-2.1224e-11
0.0168
1.77222e-07
-2.14754e-11
0.0168
3.87563e-07
-2.81692e-11
0.0167998
1.03578e-06
-2.7958e-11
0.0167995
2.34803e-06
-3.57979e-11
0.0167993
5.43841e-06
-3.73005e-11
0.0167975
1.36797e-05
-6.00928e-11
0.0167966
3.1645e-05
-4.29054e-11
0.0168008
7.27051e-05
-1.83642e-10
0.0167938
0.000236413
-6.37437e-11
0.0168029
0.00063724
-5.18015e-10
0.0169978
0.00257944
-8.18615e-10
0.0163052
0.0107303
-1.5475e-09
0.0157196
0.0115366
-2.62029e-10
0.0145244
0.0114284
-1.52503e-10
0.0133112
0.0118152
-1.79694e-10
0.012159
0.0126287
-1.99951e-10
0.010769
0.0139792
-2.38079e-10
0.00914881
0.0154349
-2.3928e-10
0.00720117
0.0171529
-2.39081e-10
0.00451056
0.0195756
-2.34254e-10
0.0232906
-2.32643e-10
0.0168001
-3.24026e-12
1.98901e-09
0.0168001
-1.16292e-11
1.45207e-09
0.0168001
-1.36248e-11
2.63035e-08
0.0168001
-2.18695e-11
2.2356e-08
0.0168001
-2.11843e-11
1.73227e-07
0.0168003
-2.91163e-11
1.45474e-07
0.0168003
-2.81034e-11
1.05268e-06
0.0168019
-3.74381e-11
7.29913e-07
0.0168002
-3.6221e-11
7.12132e-06
0.0168112
-5.9584e-11
2.89287e-06
0.0167892
-6.11521e-11
5.35847e-05
0.0168515
-1.36105e-10
1.05273e-05
0.0167076
-6.96156e-11
0.000379713
0.0169895
-5.49204e-10
0.000355071
0.0169285
-6.34376e-10
0.00263924
0.0165368
-1.69909e-09
0.0111182
0.0156901
-1.44301e-10
0.0123831
0.0148267
-9.49683e-11
0.0122919
0.0139122
-1.66094e-10
0.0127299
0.0129137
-1.83955e-10
0.0136277
0.0118407
-2.13822e-10
0.0150522
0.0105682
-2.11927e-10
0.0167079
0.0088047
-2.0757e-10
0.0189164
0.00621908
-1.96719e-10
0.0221606
-1.86341e-10
0.0295097
0.0168001
1.77832e-10
-5.00656e-16
0.0168001
9.66902e-10
-2.67434e-15
0.0168001
3.59851e-09
-5.77915e-15
0.0168
9.21535e-09
-1.22413e-14
0.0168
2.55247e-08
-2.1942e-14
0.0168
5.81429e-08
-4.09223e-14
0.0167998
1.55659e-07
-8.59617e-14
0.0167995
3.36125e-07
-1.51561e-13
0.0167984
9.73591e-07
-4.45284e-13
0.0167965
2.00911e-06
-7.1847e-13
0.0167895
6.61698e-06
-2.7181e-12
0.0167749
1.4959e-05
-5.08729e-12
0.0167088
6.49008e-05
-2.12036e-11
0.0165251
0.000182724
-5.38025e-11
0.0154412
0.00107835
-1.50853e-10
0.0141554
0.00128738
3.96238e-11
0.0129152
0.00124082
7.28446e-12
0.0116257
0.00128954
-9.11143e-12
0.0102694
0.00135681
-8.29968e-12
0.00882598
0.00144347
-6.19285e-12
0.0072781
0.00154823
-6.13942e-12
0.00561847
0.00166026
-7.14962e-12
0.00385513
0.00176192
-7.94379e-12
0.00198761
0.00186757
-8.39808e-12
0.0019877
-8.96883e-12
0.0168001
3.52704e-10
-5.00247e-16
0.0168001
1.91769e-09
-2.67281e-15
0.0168001
7.13971e-09
-5.77618e-15
0.0168
1.82632e-08
-1.22326e-14
0.0168
5.07333e-08
-2.19341e-14
0.0168
1.15426e-07
-4.09123e-14
0.0167998
3.11332e-07
-8.59429e-14
0.0167995
6.67958e-07
-1.5181e-13
0.0167984
1.97173e-06
-4.44787e-13
0.0167965
4.01786e-06
-7.19899e-13
0.0167892
1.35048e-05
-2.71663e-12
0.0167742
3.02596e-05
-5.08093e-12
0.0167059
0.000132067
-2.11211e-11
0.0165175
0.000370189
-5.35552e-11
0.0154446
0.00214567
-1.50966e-10
0.0141291
0.00260441
3.99627e-11
0.0129035
0.00246709
7.26776e-12
0.0116331
0.00256002
-8.9919e-12
0.0102863
0.00270411
-8.14348e-12
0.0088308
0.00289899
-6.03347e-12
0.00726341
0.00311596
-5.96639e-12
0.00558713
0.00333717
-6.89713e-12
0.00380309
0.00354456
-7.70797e-12
0.00192543
0.00374524
-8.1952e-12
0.00391336
-8.81136e-12
0.0168001
5.13119e-10
-4.98456e-16
0.0168001
2.76828e-09
-2.66544e-15
0.0168001
1.03097e-08
-5.75515e-15
0.0168
2.62291e-08
-1.21803e-14
0.0168
7.31827e-08
-2.18202e-14
0.0168
1.65974e-07
-4.06864e-14
0.0167998
4.50309e-07
-8.53578e-14
0.0167995
9.62551e-07
-1.51156e-13
0.0167986
2.85202e-06
-4.41187e-13
0.0167969
5.81083e-06
-7.17078e-13
0.0167901
1.98838e-05
-2.7044e-12
0.0167757
4.49862e-05
-5.04634e-12
0.016711
0.00019567
-2.09497e-11
0.0165328
0.000547417
-5.31007e-11
0.0155471
0.00312569
-1.5205e-10
0.0142077
0.00394537
4.03372e-11
0.0129794
0.00369609
7.37416e-12
0.0117198
0.00381967
-8.63031e-12
0.0103845
0.00403996
-7.76682e-12
0.00892906
0.00435446
-5.70661e-12
0.00735596
0.00468939
-5.62325e-12
0.00566256
0.00503129
-6.39491e-12
0.00385094
0.00535471
-7.19357e-12
0.00194758
0.00564865
-7.70911e-12
0.00586085
-8.31779e-12
0.0168001
5.72956e-10
-4.95417e-16
0.0168001
3.18521e-09
-2.65135e-15
0.0168001
1.18087e-08
-5.71836e-15
0.0168001
3.02145e-08
-1.20937e-14
0.0168
8.35729e-08
-2.1655e-14
0.0168
1.87719e-07
-4.04063e-14
0.0167999
5.22886e-07
-8.46305e-14
0.0167999
1.00233e-06
-1.51487e-13
0.016799
3.71642e-06
-4.35396e-13
0.0167993
5.52751e-06
-7.21223e-13
0.0167901
2.87792e-05
-2.68388e-12
0.016782
5.33087e-05
-4.96985e-12
0.0167185
0.000258111
-2.05901e-11
0.0165663
0.000698677
-5.20952e-11
0.0157479
0.00393839
-1.52891e-10
0.0143895
0.00530541
3.92561e-11
0.0131538
0.00493236
7.37514e-12
0.011901
0.00507267
-8.27566e-12
0.0105764
0.00536494
-7.39566e-12
0.00912802
0.00580295
-5.46658e-12
0.00755359
0.00626414
-5.18006e-12
0.00585357
0.006732
-5.75274e-12
0.00400929
0.00719761
-6.47163e-12
0.00203121
0.00762688
-6.9732e-12
0.00789191
-7.52141e-12
0.0168001
7.7022e-10
-4.71482e-16
0.0168001
4.19616e-09
-2.57121e-15
0.0168001
1.55838e-08
-5.42267e-15
0.0168
3.97971e-08
-1.11847e-14
0.0168
1.10214e-07
-1.97347e-14
0.0168
2.50432e-07
-3.51874e-14
0.0167998
6.74428e-07
-7.34102e-14
0.0167994
1.4127e-06
-1.05829e-13
0.0167986
4.46891e-06
-4.37383e-13
0.0167968
7.36601e-06
-3.13108e-13
0.0167917
3.35104e-05
-3.80826e-12
0.0167814
6.3909e-05
-3.78776e-12
0.0167449
0.000293587
-2.0997e-11
0.0166466
0.000796283
-4.96879e-11
0.0161785
0.00440088
-1.51372e-10
0.0147978
0.00668756
3.39324e-11
0.0135029
0.006228
9.02505e-12
0.0122285
0.00634726
-6.4447e-12
0.0109137
0.00668047
-6.39511e-12
0.00946956
0.00724701
-5.47732e-12
0.00788976
0.00784436
-4.82807e-12
0.00615604
0.00846678
-5.11029e-12
0.00426018
0.00909225
-5.6639e-12
0.00219744
0.00968972
-6.11354e-12
0.0100892
-6.55932e-12
0.0168001
9.27416e-10
-4.80382e-16
0.0168001
5.0118e-09
-2.59766e-15
0.0168001
1.86588e-08
-5.55444e-15
0.0168
4.76774e-08
-1.15215e-14
0.0168
1.32193e-07
-2.07403e-14
0.0168
3.02039e-07
-3.81153e-14
0.0167998
7.98726e-07
-7.70044e-14
0.0167995
1.76754e-06
-1.43703e-13
0.016799
4.88184e-06
-3.82569e-13
0.0167964
1.00283e-05
-5.89668e-13
0.0167956
3.40777e-05
-2.59356e-12
0.0167903
6.93703e-05
-3.9248e-12
0.0167833
0.000299635
-1.84111e-11
0.0167734
0.000805551
-4.54764e-11
0.016897
0.00427205
-1.4564e-10
0.0154917
0.00809318
4.3138e-12
0.014056
0.0076644
5.45295e-12
0.0127277
0.00767584
-4.00117e-12
0.0113993
0.0080096
-5.08757e-12
0.00997663
0.00866976
-5.58325e-12
0.00838373
0.00943731
-4.52717e-12
0.0066263
0.0102246
-4.60532e-12
0.00465413
0.0110632
-4.9922e-12
0.00242877
0.011915
-5.27647e-12
0.012518
-5.51404e-12
0.0168001
9.67015e-10
-4.63448e-16
0.0168001
5.2702e-09
-2.5221e-15
0.0168001
1.95971e-08
-5.2995e-15
0.0168001
5.02736e-08
-1.09667e-14
0.0168
1.38253e-07
-1.90261e-14
0.0168
3.16259e-07
-3.45253e-14
0.0168
8.24157e-07
-6.57267e-14
0.0167999
1.83301e-06
-1.20791e-13
0.0167999
4.84398e-06
-2.93195e-13
0.0167994
1.05854e-05
-5.17757e-13
0.0168025
3.08124e-05
-1.85987e-12
0.0168031
6.89716e-05
-2.59029e-12
0.0168521
0.000249874
-1.2939e-11
0.0169874
0.000669525
-3.054e-11
0.0181001
0.00315683
-7.90091e-11
0.0166865
0.00950553
-4.02223e-11
0.0148948
0.00945612
-8.9888e-12
0.013481
0.00908974
-5.0854e-12
0.0121255
0.0093657
-5.87209e-12
0.0106776
0.0101176
-7.07111e-12
0.00907558
0.01104
-5.82245e-12
0.00726517
0.0120355
-4.9619e-12
0.00521471
0.0131125
-4.68625e-12
0.00283187
0.0142977
-4.61809e-12
0.0153499
-4.53478e-12
0.0168001
1.04108e-09
-4.57567e-16
0.0168001
5.72485e-09
-2.49325e-15
0.0168001
2.13354e-08
-5.21505e-15
0.0168001
5.49722e-08
-1.07784e-14
0.0168
1.51168e-07
-1.8519e-14
0.0168
3.47155e-07
-3.3474e-14
0.0167999
9.01835e-07
-6.27987e-14
0.0167997
2.02887e-06
-1.15644e-13
0.0167993
5.23825e-06
-2.70046e-13
0.0167981
1.18574e-05
-5.12843e-13
0.0167978
3.08792e-05
-1.45604e-12
0.0167902
7.67783e-05
-3.02352e-12
0.0168091
0.000230235
-9.52821e-12
0.0168327
0.000645881
-2.40578e-11
0.0172102
0.00277669
-6.81205e-11
0.0166716
0.0100412
-8.63229e-11
0.0151758
0.0109513
-2.76536e-11
0.0140325
0.0102331
-5.58543e-12
0.0127973
0.0106015
-6.09425e-12
0.0114386
0.0114761
-7.21988e-12
0.00988918
0.0125897
-7.18349e-12
0.00811205
0.0138134
-5.87679e-12
0.00601782
0.0152058
-5.37717e-12
0.00342967
0.0168854
-4.63537e-12
0.0187797
-3.89953e-12
0.0168001
1.36217e-09
-4.63491e-16
0.0168001
6.29485e-09
-2.51271e-15
0.0168001
2.52729e-08
-5.308e-15
0.0168
6.04941e-08
-1.09753e-14
0.0168
1.77248e-07
-1.92387e-14
0.0168
3.87141e-07
-3.50589e-14
0.0167998
1.03555e-06
-6.77186e-14
0.0167995
2.34729e-06
-1.29564e-13
0.0167993
5.43807e-06
-2.81466e-13
0.0167975
1.368e-05
-6.73387e-13
0.0167966
3.16386e-05
-1.13863e-12
0.0168008
7.27204e-05
-4.04068e-12
0.0167938
0.000236411
-7.25296e-12
0.0168029
0.000637255
-2.2857e-11
0.0169979
0.0025796
-5.92828e-11
0.0163052
0.0107304
-1.02942e-10
0.0157198
0.0115366
-1.00752e-11
0.0145245
0.0114284
-3.0054e-12
0.0133113
0.0118152
-5.85278e-12
0.0121591
0.0126287
-6.87521e-12
0.0107691
0.0139792
-8.02988e-12
0.00914888
0.0154348
-6.28693e-12
0.00720121
0.0171528
-5.96233e-12
0.00451059
0.0195755
-4.7989e-12
0.0232905
-3.75576e-12
0.0168001
-4.55445e-16
1.85365e-09
0.0168001
-2.45001e-15
1.81766e-09
0.0168001
-5.08792e-15
2.51084e-08
0.0168001
-1.07389e-14
2.28729e-08
0.0168001
-1.74864e-14
1.71823e-07
0.0168003
-3.21421e-14
1.46119e-07
0.0168003
-5.73642e-14
1.0516e-06
0.0168019
-1.06285e-13
7.31011e-07
0.0168002
-2.30985e-13
7.12008e-06
0.0168112
-4.45136e-13
2.89854e-06
0.0167892
-1.18589e-12
5.35817e-05
0.0168515
-2.61343e-12
1.05472e-05
0.0167076
-6.1556e-12
0.000379677
0.0169894
-2.32304e-11
0.000355171
0.0169286
-4.91663e-11
0.0026392
0.0165368
-1.14422e-10
0.0111183
0.0156902
-4.367e-12
0.012383
0.0148268
-9.32545e-13
0.0122918
0.0139123
-6.27311e-12
0.0127298
0.0129138
-7.16567e-12
0.0136276
0.0118408
-8.17944e-12
0.0150522
0.0105683
-7.41582e-12
0.0167078
0.00880478
-5.5454e-12
0.0189163
0.00621914
-4.47238e-12
0.0221605
-3.83926e-12
0.0295096
0.0168001
1.77832e-10
1.72688e-16
0.0168001
9.66903e-10
1.55123e-16
0.0168001
3.59851e-09
-9.58223e-17
0.0168
9.21536e-09
-2.06807e-16
0.0168
2.55247e-08
-6.05332e-16
0.0168
5.8143e-08
-1.22233e-15
0.0167998
1.55659e-07
-3.73901e-15
0.0167995
3.36125e-07
-6.85609e-15
0.0167984
9.73591e-07
-2.54119e-14
0.0167965
2.00911e-06
-4.06926e-14
0.0167895
6.61699e-06
-1.76547e-13
0.0167749
1.4959e-05
-3.32937e-13
0.0167088
6.49009e-05
-1.49454e-12
0.0165251
0.000182725
-3.91406e-12
0.0154412
0.00107836
-1.16307e-11
0.0141554
0.00128738
1.62348e-12
0.0129152
0.00124082
3.22952e-14
0.0116257
0.00128953
-8.74036e-13
0.0102694
0.00135681
-7.98594e-13
0.00882598
0.00144347
-5.53409e-13
0.0072781
0.00154823
-3.20911e-13
0.00561848
0.00166026
-2.08354e-13
0.00385513
0.00176192
-1.98292e-13
0.00198761
0.00186757
-1.3416e-13
0.0019877
-1.29638e-13
0.0168001
3.52705e-10
1.72597e-16
0.0168001
1.9177e-09
1.55306e-16
0.0168001
7.13973e-09
-9.58418e-17
0.0168
1.82633e-08
-2.06809e-16
0.0168
5.07334e-08
-6.05774e-16
0.0168
1.15427e-07
-1.22378e-15
0.0167998
3.11333e-07
-3.74201e-15
0.0167995
6.67958e-07
-6.87847e-15
0.0167984
1.97173e-06
-2.53949e-14
0.0167965
4.01787e-06
-4.07939e-14
0.0167892
1.35048e-05
-1.76457e-13
0.0167742
3.02597e-05
-3.3233e-13
0.0167059
0.000132067
-1.4885e-12
0.0165175
0.00037019
-3.89389e-12
0.0154446
0.00214567
-1.1625e-11
0.0141291
0.0026044
1.66201e-12
0.0129035
0.00246709
5.15928e-14
0.0116331
0.00256002
-8.48928e-13
0.0102863
0.00270411
-7.68332e-13
0.0088308
0.00289899
-5.16295e-13
0.00726342
0.00311597
-2.78316e-13
0.00558714
0.00333717
-1.62136e-13
0.0038031
0.00354456
-1.53222e-13
0.00192543
0.00374524
-9.25084e-14
0.00391337
-9.0316e-14
0.0168001
5.13121e-10
1.72364e-16
0.0168001
2.76829e-09
1.56374e-16
0.0168001
1.03098e-08
-9.50413e-17
0.0168
2.62293e-08
-2.0503e-16
0.0168
7.31831e-08
-6.01459e-16
0.0168
1.65975e-07
-1.2159e-15
0.0167998
4.50311e-07
-3.71839e-15
0.0167995
9.62556e-07
-6.86112e-15
0.0167986
2.85203e-06
-2.52126e-14
0.0167969
5.81086e-06
-4.0676e-14
0.0167901
1.98839e-05
-1.75714e-13
0.0167757
4.49863e-05
-3.29727e-13
0.016711
0.000195671
-1.47562e-12
0.0165328
0.000547419
-3.85468e-12
0.0155471
0.00312571
-1.16676e-11
0.0142077
0.00394537
1.71988e-12
0.0129794
0.00369608
9.66151e-14
0.0117198
0.00381967
-7.91225e-13
0.0103845
0.00403996
-7.02842e-13
0.00892906
0.00435446
-4.38599e-13
0.00735596
0.00468939
-1.91239e-13
0.00566257
0.00503129
-6.67492e-14
0.00385095
0.00535471
-6.41865e-14
0.00194758
0.00564866
-4.91578e-15
0.00586086
-5.68579e-15
0.0168001
5.72965e-10
1.71993e-16
0.0168001
3.18525e-09
1.58307e-16
0.0168001
1.18089e-08
-9.36327e-17
0.0168001
3.0215e-08
-2.02078e-16
0.0168
8.3574e-08
-5.95778e-16
0.0168
1.87722e-07
-1.20811e-15
0.0167999
5.22893e-07
-3.6924e-15
0.0167999
1.00235e-06
-6.91853e-15
0.016799
3.71643e-06
-2.48979e-14
0.0167993
5.52768e-06
-4.10307e-14
0.0167901
2.8779e-05
-1.74319e-13
0.016782
5.33094e-05
-3.24128e-13
0.0167185
0.000258112
-1.44724e-12
0.0165663
0.00069868
-3.76912e-12
0.0157479
0.00393841
-1.16565e-11
0.0143895
0.0053054
1.69247e-12
0.0131538
0.00493236
1.36243e-13
0.011901
0.00507266
-7.21949e-13
0.0105764
0.00536494
-6.23644e-13
0.00912803
0.00580295
-3.40283e-13
0.00755359
0.00626414
-7.93537e-14
0.00585357
0.006732
6.36571e-14
0.00400929
0.00719761
6.12946e-14
0.00203121
0.00762688
1.1752e-13
0.00789192
1.12116e-13
0.0168001
7.70216e-10
1.69313e-16
0.0168001
4.19616e-09
1.71423e-16
0.0168001
1.55837e-08
-7.64693e-17
0.0168
3.9797e-08
-1.62528e-16
0.0168
1.10214e-07
-4.76549e-16
0.0168
2.50431e-07
-9.29853e-16
0.0167998
6.74427e-07
-3.05073e-15
0.0167994
1.41269e-06
-4.22308e-15
0.0167986
4.46894e-06
-2.51769e-14
0.0167968
7.36592e-06
-1.5255e-14
0.0167917
3.35108e-05
-2.11213e-13
0.0167814
6.39092e-05
-2.45276e-13
0.0167449
0.00029359
-1.46399e-12
0.0166466
0.000796289
-3.57443e-12
0.0161785
0.00440093
-1.14151e-11
0.0147978
0.00668754
1.3807e-12
0.0135029
0.00622799
2.50905e-13
0.0122285
0.00634726
-5.45357e-13
0.0109137
0.00668047
-4.88278e-13
0.00946956
0.007247
-2.27756e-13
0.00788976
0.00784435
1.0899e-13
0.00615604
0.00846678
2.30948e-13
0.00426018
0.00909225
1.86921e-13
0.00219744
0.00968973
2.44907e-13
0.0100893
2.44984e-13
0.0168001
9.27424e-10
1.7003e-16
0.0168001
5.01184e-09
1.66218e-16
0.0168001
1.86589e-08
-8.59544e-17
0.0168
4.76778e-08
-1.86393e-16
0.0168
1.32194e-07
-5.45771e-16
0.0168
3.02042e-07
-1.12508e-15
0.0167998
7.98733e-07
-3.30631e-15
0.0167995
1.76755e-06
-6.62106e-15
0.016799
4.88189e-06
-2.19078e-14
0.0167964
1.00283e-05
-3.2272e-14
0.0167956
3.40781e-05
-1.70379e-13
0.0167903
6.93713e-05
-2.49042e-13
0.0167833
0.000299639
-1.28201e-12
0.0167734
0.000805564
-3.23267e-12
0.0168969
0.00427213
-1.07733e-11
0.0154917
0.00809315
-5.97317e-13
0.014056
0.00766437
-2.2052e-14
0.0127277
0.00767583
-3.55545e-13
0.0113992
0.0080096
-3.27022e-13
0.00997662
0.00866976
-2.7926e-13
0.00838373
0.00943731
8.87581e-14
0.0066263
0.0102246
3.36653e-13
0.00465412
0.0110632
3.53026e-13
0.00242877
0.011915
4.06648e-13
0.012518
3.93536e-13
0.0168001
9.67018e-10
1.68146e-16
0.0168001
5.27021e-09
1.77403e-16
0.0168001
1.95971e-08
-7.27449e-17
0.0168001
5.02738e-08
-1.57527e-16
0.0168
1.38254e-07
-4.52455e-16
0.0168
3.1626e-07
-9.27427e-16
0.0168
8.24159e-07
-2.66054e-15
0.0167999
1.83302e-06
-5.31694e-15
0.0167999
4.84399e-06
-1.62964e-14
0.0167994
1.05854e-05
-2.95434e-14
0.0168025
3.08126e-05
-1.19374e-13
0.0168031
6.89717e-05
-1.70546e-13
0.0168521
0.000249877
-8.87092e-13
0.0169874
0.000669532
-2.17146e-12
0.0181002
0.00315687
-5.87043e-12
0.0166865
0.00950556
-3.66046e-12
0.0148948
0.00945611
-1.00469e-12
0.013481
0.00908973
-3.02794e-13
0.0121255
0.00936569
-2.61033e-13
0.0106776
0.0101176
2.50309e-13
0.00907557
0.01104
6.2085e-13
0.00726517
0.0120355
4.94744e-13
0.00521471
0.0131125
3.61161e-13
0.00283187
0.0142977
4.49071e-13
0.0153499
5.11682e-13
0.0168001
1.04108e-09
1.67481e-16
0.0168001
5.72484e-09
1.81544e-16
0.0168001
2.13354e-08
-6.81192e-17
0.0168001
5.49721e-08
-1.47435e-16
0.0168
1.51168e-07
-4.23395e-16
0.0168
3.47154e-07
-8.67421e-16
0.0167999
9.01833e-07
-2.48217e-15
0.0167997
2.02887e-06
-5.00694e-15
0.0167993
5.23825e-06
-1.47858e-14
0.0167981
1.18573e-05
-2.91701e-14
0.0167978
3.08794e-05
-9.30489e-14
0.0167902
7.67779e-05
-1.9438e-13
0.0168091
0.000230236
-6.58897e-13
0.0168327
0.000645884
-1.69588e-12
0.0172102
0.00277671
-4.99404e-12
0.0166716
0.0100412
-6.70369e-12
0.0151758
0.0109513
-2.22647e-12
0.0140325
0.0102331
-3.40919e-13
0.0127973
0.0106015
-1.36175e-13
0.0114386
0.0114761
-8.28511e-14
0.00988917
0.0125897
5.48841e-13
0.00811205
0.0138134
4.1405e-13
0.00601781
0.0152058
6.56743e-13
0.00342967
0.0168854
6.30566e-13
0.0187797
6.54572e-13
0.0168001
1.36217e-09
1.68062e-16
0.0168001
6.29489e-09
1.7825e-16
0.0168001
2.52731e-08
-7.38299e-17
0.0168
6.04943e-08
-1.59651e-16
0.0168
1.77249e-07
-4.69755e-16
0.0168
3.87143e-07
-9.70275e-16
0.0167998
1.03556e-06
-2.81108e-15
0.0167995
2.3473e-06
-5.95228e-15
0.0167993
5.4381e-06
-1.56052e-14
0.0167975
1.36801e-05
-4.02965e-14
0.0167966
3.16387e-05
-7.16183e-14
0.0168008
7.2721e-05
-2.66599e-13
0.0167938
0.000236412
-5.0535e-13
0.0168029
0.000637257
-1.61333e-12
0.0169979
0.00257961
-4.33832e-12
0.0163052
0.0107304
-7.79379e-12
0.0157198
0.0115366
-8.99654e-13
0.0145245
0.0114284
-2.56065e-13
0.0133113
0.0118152
2.48994e-13
0.0121591
0.0126287
3.56022e-13
0.0107691
0.0139791
5.84551e-13
0.00914887
0.0154348
3.87458e-13
0.00720121
0.0171528
6.88826e-13
0.00451058
0.0195755
8.18299e-13
0.0232905
7.74671e-13
0.0168001
1.68423e-16
1.85363e-09
0.0168001
1.90264e-16
1.81773e-09
0.0168001
-5.41152e-17
2.51083e-08
0.0168001
-1.17201e-16
2.28732e-08
0.0168001
-3.34586e-16
1.71823e-07
0.0168003
-6.86161e-16
1.4612e-07
0.0168003
-1.95117e-15
1.05161e-06
0.0168019
-3.92761e-15
7.31019e-07
0.0168002
-1.1636e-14
7.12011e-06
0.0168112
-2.21372e-14
2.89859e-06
0.0167892
-7.2972e-14
5.35818e-05
0.0168515
-1.53342e-13
1.05475e-05
0.0167076
-4.52616e-13
0.000379678
0.0169894
-1.50755e-12
0.000355174
0.0169286
-3.76287e-12
0.00263921
0.0165368
-8.60731e-12
0.0111184
0.0156902
-3.71693e-13
0.012383
0.0148268
-1.45106e-13
0.0122919
0.0139124
1.98365e-13
0.0127298
0.0129138
2.99353e-13
0.0136276
0.0118408
5.40771e-13
0.0150522
0.0105683
6.6549e-13
0.0167078
0.00880477
1.34612e-13
0.0189163
0.00621914
4.03639e-13
0.0221605
1.19588e-12
0.0295096
0.0168001
1.77832e-10
2.91464e-18
0.0168001
9.66903e-10
1.1728e-17
0.0168001
3.59851e-09
3.32825e-17
0.0168
9.21536e-09
5.49868e-17
0.0168
2.55247e-08
8.72613e-17
0.0168
5.8143e-08
6.00623e-17
0.0167998
1.55659e-07
-1.81043e-16
0.0167995
3.36125e-07
-5.58356e-16
0.0167984
9.73591e-07
-2.15653e-15
0.0167965
2.00911e-06
-3.73492e-15
0.0167895
6.61699e-06
-1.27036e-14
0.0167749
1.4959e-05
-2.40716e-14
0.0167088
6.49009e-05
-8.60014e-14
0.0165251
0.000182725
-2.01716e-13
0.0154412
0.00107836
-4.66527e-13
0.0141554
0.00128738
2.77191e-13
0.0129152
0.00124082
6.70855e-14
0.0116257
0.00128953
-9.19933e-14
0.0102694
0.00135681
-9.32637e-14
0.00882598
0.00144347
-9.40858e-14
0.0072781
0.00154823
-1.07523e-13
0.00561848
0.00166026
-1.68738e-13
0.00385513
0.00176192
-2.53573e-13
0.00198761
0.00186757
-2.11697e-13
0.0019877
-2.42954e-13
0.0168001
3.52705e-10
2.90109e-18
0.0168001
1.9177e-09
1.17348e-17
0.0168001
7.13973e-09
3.32283e-17
0.0168
1.82633e-08
5.49962e-17
0.0168
5.07334e-08
8.71165e-17
0.0168
1.15427e-07
5.97861e-17
0.0167998
3.11333e-07
-1.81982e-16
0.0167995
6.67958e-07
-5.61929e-16
0.0167984
1.97173e-06
-2.16525e-15
0.0167965
4.01787e-06
-3.76347e-15
0.0167892
1.35048e-05
-1.27915e-14
0.0167742
3.02597e-05
-2.42617e-14
0.0167059
0.000132067
-8.65311e-14
0.0165175
0.00037019
-2.03436e-13
0.0154446
0.00214567
-4.76483e-13
0.0141291
0.0026044
2.78106e-13
0.0129035
0.00246709
6.26054e-14
0.0116331
0.00256002
-9.32631e-14
0.0102863
0.00270411
-9.36283e-14
0.0088308
0.00289899
-8.96391e-14
0.00726342
0.00311597
-1.10914e-13
0.00558714
0.00333717
-1.67705e-13
0.0038031
0.00354456
-2.38498e-13
0.00192543
0.00374524
-1.95493e-13
0.00391337
-2.24429e-13
0.0168001
5.13121e-10
2.91464e-18
0.0168001
2.76829e-09
1.16721e-17
0.0168001
1.03098e-08
3.30478e-17
0.0168
2.62293e-08
5.47937e-17
0.0168
7.31831e-08
8.69141e-17
0.0168
1.65975e-07
6.03299e-17
0.0167998
4.50311e-07
-1.80337e-16
0.0167995
9.62556e-07
-5.6114e-16
0.0167986
2.85203e-06
-2.16847e-15
0.0167969
5.81087e-06
-3.78715e-15
0.0167901
1.98839e-05
-1.2925e-14
0.0167757
4.49863e-05
-2.45377e-14
0.016711
0.000195671
-8.77127e-14
0.0165328
0.000547419
-2.07602e-13
0.0155471
0.00312571
-5.0255e-13
0.0142077
0.00394537
2.77836e-13
0.0129794
0.00369608
5.25582e-14
0.0117198
0.00381967
-9.51002e-14
0.0103845
0.00403996
-9.43732e-14
0.00892906
0.00435446
-8.55237e-14
0.00735596
0.00468939
-1.39395e-13
0.00566257
0.00503129
-1.49097e-13
0.00385095
0.00535471
-2.05459e-13
0.00194758
0.00564866
-1.52028e-13
0.00586086
-1.77623e-13
0.0168001
5.72966e-10
2.81215e-18
0.0168001
3.18525e-09
1.15823e-17
0.0168001
1.18089e-08
3.26463e-17
0.0168001
3.0215e-08
5.43837e-17
0.0168
8.35741e-08
8.67031e-17
0.0168
1.87722e-07
6.09491e-17
0.0167999
5.22893e-07
-1.78777e-16
0.0167999
1.00235e-06
-5.68108e-16
0.016799
3.71643e-06
-2.17274e-15
0.0167993
5.52769e-06
-3.85231e-15
0.0167901
2.8779e-05
-1.31112e-14
0.016782
5.33094e-05
-2.47953e-14
0.0167185
0.000258112
-8.91808e-14
0.0165663
0.00069868
-2.12626e-13
0.0157479
0.00393842
-5.40611e-13
0.0143895
0.0053054
2.66249e-13
0.0131538
0.00493236
3.47141e-14
0.011901
0.00507266
-9.76282e-14
0.0105764
0.00536494
-9.47168e-14
0.00912803
0.00580295
-8.45141e-14
0.00755359
0.00626414
-1.36778e-13
0.00585357
0.006732
-1.03493e-13
0.00400929
0.00719762
-1.44135e-13
0.00203121
0.00762688
-8.08632e-14
0.00789192
-9.90591e-14
0.0168001
7.70216e-10
2.28275e-18
0.0168001
4.19616e-09
9.63415e-18
0.0168001
1.55837e-08
2.72609e-17
0.0168
3.9797e-08
4.58507e-17
0.0168
1.10214e-07
7.92891e-17
0.0168
2.50431e-07
6.86571e-17
0.0167998
6.74427e-07
-1.1871e-16
0.0167994
1.41268e-06
-3.08563e-16
0.0167986
4.46895e-06
-2.17271e-15
0.0167968
7.36592e-06
-1.99792e-15
0.0167917
3.35108e-05
-1.52557e-14
0.0167814
6.39092e-05
-2.10501e-14
0.0167449
0.00029359
-9.40543e-14
0.0166466
0.00079629
-2.14825e-13
0.0161785
0.00440093
-5.83458e-13
0.0147978
0.00668754
2.22748e-13
0.0135029
0.00622798
3.86343e-14
0.0122285
0.00634726
-8.52092e-14
0.0109137
0.00668047
-7.81405e-14
0.00946956
0.007247
-1.02436e-13
0.00788976