/*--------------------------------*- C++ -*----------------------------------*\
| =========                 |                                                 |
| \\      /  F ield         | OpenFOAM: The Open Source CFD Toolbox           |
|  \\    /   O peration     | Version:  4.1                                   |
|   \\  /    A nd           | Web:      www.OpenFOAM.org                      |
|    \\/     M anipulation  |                                                 |
\*---------------------------------------------------------------------------*/
FoamFile
{
    version     2.0;
    format      ascii;
    class       volVectorField;
    location    "1.8";
    object      U;
}
// * * * * * * * * * * * * * * * * * * * * * * * * * * * * * * * * * * * * * //

dimensions      [0 1 -1 0 0 0 0];

internalField   nonuniform List<vector> 
52500
(
(3 7.23184e-09 -0.00571425)
(2.99999 4.00935e-08 -0.00571435)
(2.99997 1.49068e-07 -0.0057145)
(2.99992 3.82729e-07 -0.00571498)
(2.99982 1.05452e-06 -0.00571585)
(2.99954 2.4105e-06 -0.00571852)
(2.99897 6.32805e-06 -0.0057236)
(2.99729 1.39769e-05 -0.00573843)
(2.99407 3.80389e-05 -0.00576958)
(2.98361 7.99309e-05 -0.00584696)
(2.96401 0.000260933 -0.00606603)
(2.89432 0.000492424 -0.00646789)
(2.71501 0.00196634 -0.00803487)
(2.24106 0.00490621 -0.0116557)
(1.03098 0.01587 -0.0167743)
(0.361697 0.0216706 -0.0185798)
(0.539876 0.023505 -0.018551)
(0.596619 0.0252801 -0.0185202)
(0.542918 0.0271707 -0.0186988)
(0.447294 0.0295119 -0.0189375)
(0.355561 0.0322791 -0.0191337)
(0.284504 0.0357917 -0.0193267)
(0.213116 0.0399284 -0.0195891)
(0.128804 0.044579 -0.0198698)
(0.0535627 0.0494258 -0.020063)
(3 2.20064e-08 -0.00571425)
(2.99999 1.2181e-07 -0.00571435)
(2.99997 4.52876e-07 -0.0057145)
(2.99992 1.16172e-06 -0.00571497)
(2.99982 3.19624e-06 -0.00571584)
(2.99954 7.30004e-06 -0.00571848)
(2.99898 1.90983e-05 -0.0057235)
(2.99732 4.21316e-05 -0.00573819)
(2.99413 0.000113939 -0.00576897)
(2.98379 0.00023861 -0.00584576)
(2.96436 0.000774327 -0.00606119)
(2.89566 0.0014394 -0.00646109)
(2.71913 0.00570778 -0.00799596)
(2.25242 0.0141524 -0.0115809)
(1.04508 0.0435028 -0.0166312)
(0.372984 0.0646304 -0.0184836)
(0.543966 0.0677943 -0.0184548)
(0.599379 0.0699444 -0.0184208)
(0.545486 0.0727455 -0.0185938)
(0.449788 0.0770246 -0.0188261)
(0.357427 0.0820386 -0.0190153)
(0.285046 0.0878289 -0.0192017)
(0.211943 0.0937094 -0.0194553)
(0.126225 0.0993639 -0.0197184)
(0.0508283 0.103403 -0.0198992)
(3 3.80816e-08 -0.00571425)
(2.99999 2.10439e-07 -0.00571435)
(2.99997 7.83571e-07 -0.00571449)
(2.99992 2.00929e-06 -0.00571496)
(2.99983 5.53847e-06 -0.0057158)
(2.99955 1.26589e-05 -0.00571839)
(2.999 3.31349e-05 -0.00572332)
(2.99737 7.34092e-05 -0.00573774)
(2.99424 0.000195985 -0.00576783)
(2.98415 0.00042027 -0.00584352)
(2.96503 0.00125771 -0.00605214)
(2.89819 0.00258529 -0.00644963)
(2.72688 0.00897635 -0.00792635)
(2.27175 0.0222509 -0.0114635)
(1.0747 0.0666384 -0.0164394)
(0.399015 0.107947 -0.0183547)
(0.552341 0.115325 -0.0183277)
(0.605209 0.11863 -0.0183017)
(0.551761 0.12346 -0.0184753)
(0.45667 0.131546 -0.0187004)
(0.363982 0.141131 -0.0188831)
(0.290402 0.15151 -0.0190564)
(0.215643 0.161839 -0.019303)
(0.128111 0.171337 -0.0195595)
(0.0508711 0.176865 -0.019727)
(3 5.46414e-08 -0.00571425)
(2.99999 3.01752e-07 -0.00571434)
(2.99997 1.12411e-06 -0.00571449)
(2.99993 2.88245e-06 -0.00571493)
(2.99983 7.95134e-06 -0.00571575)
(2.99956 1.81834e-05 -0.00571826)
(2.99903 4.75881e-05 -0.00572303)
(2.99746 0.000105802 -0.005737)
(2.99442 0.000279458 -0.00576607)
(2.98467 0.000611651 -0.0058395)
(2.96619 0.00170728 -0.00604054)
(2.90175 0.0038301 -0.00642523)
(2.73723 0.0118834 -0.00784674)
(2.29811 0.0293145 -0.0112471)
(1.11878 0.0875743 -0.0162684)
(0.432687 0.148525 -0.0182326)
(0.561151 0.16335 -0.0182015)
(0.610195 0.167567 -0.0181756)
(0.558895 0.17403 -0.0183398)
(0.466472 0.186176 -0.0185495)
(0.374568 0.200942 -0.0187188)
(0.300178 0.216387 -0.0188856)
(0.223954 0.231883 -0.0191157)
(0.133812 0.246072 -0.0193669)
(0.052919 0.253907 -0.0195447)
(3 7.10994e-08 -0.00571425)
(2.99999 3.92744e-07 -0.00571434)
(2.99997 1.46014e-06 -0.00571448)
(2.99993 3.74386e-06 -0.0057149)
(2.99984 1.02924e-05 -0.00571569)
(2.99958 2.35156e-05 -0.00571809)
(2.99907 6.12229e-05 -0.00572264)
(2.99757 0.000135923 -0.00573602)
(2.99466 0.000356183 -0.00576377)
(2.98533 0.000778726 -0.00583404)
(2.96775 0.00214281 -0.00602623)
(2.90625 0.00480955 -0.00639115)
(2.74998 0.0146152 -0.00775323)
(2.33103 0.0356856 -0.0109508)
(1.17696 0.106558 -0.0161081)
(0.474885 0.188925 -0.0181036)
(0.571265 0.212295 -0.0180651)
(0.613853 0.215636 -0.0180597)
(0.566599 0.223037 -0.0182093)
(0.47906 0.240038 -0.0184002)
(0.388823 0.260477 -0.0185504)
(0.313896 0.281469 -0.0187058)
(0.236359 0.302843 -0.0189206)
(0.143093 0.322587 -0.0191649)
(0.0571009 0.333664 -0.0193125)
(3 9.17775e-08 -0.00571425)
(2.99999 5.06175e-07 -0.00571433)
(2.99998 1.88424e-06 -0.00571446)
(2.99993 4.83007e-06 -0.00571486)
(2.99985 1.33096e-05 -0.0057156)
(2.99961 3.04333e-05 -0.00571787)
(2.99912 7.93673e-05 -0.00572216)
(2.9977 0.000177128 -0.00573482)
(2.99496 0.000456467 -0.00576097)
(2.98614 0.00104109 -0.00582762)
(2.9696 0.00260267 -0.00600867)
(2.91163 0.00639113 -0.00635234)
(2.765 0.0172423 -0.00764001)
(2.36969 0.0434532 -0.0106191)
(1.2487 0.12456 -0.0158874)
(0.528381 0.233138 -0.017949)
(0.582612 0.263491 -0.0179119)
(0.615572 0.261669 -0.017926)
(0.575867 0.269612 -0.0180553)
(0.495727 0.293162 -0.0182144)
(0.407497 0.320355 -0.0183597)
(0.3324 0.347933 -0.018477)
(0.2538 0.376718 -0.0186682)
(0.156658 0.404365 -0.0188985)
(0.0635512 0.421197 -0.0190678)
(3 1.15137e-07 -0.00571425)
(2.99999 6.33448e-07 -0.00571432)
(2.99998 2.3656e-06 -0.00571444)
(2.99994 6.07691e-06 -0.00571481)
(2.99986 1.68291e-05 -0.00571549)
(2.99964 3.87228e-05 -0.00571758)
(2.99919 0.000100498 -0.00572152)
(2.99788 0.000232578 -0.00573315)
(2.99538 0.00055501 -0.00575739)
(2.98711 0.00142824 -0.00581698)
(2.97227 0.00296589 -0.00599091)
(2.91792 0.0079915 -0.00628808)
(2.78291 0.0191732 -0.00754298)
(2.41455 0.0512177 -0.0100821)
(1.33646 0.140895 -0.0155951)
(0.59876 0.282876 -0.01774)
(0.593741 0.30812 -0.0177449)
(0.613878 0.307002 -0.0178066)
(0.588312 0.317937 -0.0179068)
(0.518096 0.345178 -0.0180294)
(0.431901 0.380163 -0.0181305)
(0.356988 0.415761 -0.0182138)
(0.27825 0.454052 -0.0183733)
(0.177267 0.493224 -0.0185626)
(0.0745123 0.521338 -0.0187131)
(3 1.26681e-07 -0.00571425)
(2.99999 6.95644e-07 -0.00571432)
(2.99998 2.59428e-06 -0.00571442)
(2.99995 6.6746e-06 -0.00571475)
(2.99988 1.84583e-05 -0.00571536)
(2.99968 4.26054e-05 -0.00571721)
(2.99928 0.000109728 -0.00572076)
(2.99808 0.000257841 -0.0057307)
(2.99595 0.00060039 -0.00575374)
(2.98814 0.00154474 -0.00580211)
(2.97514 0.00327672 -0.00597574)
(2.92459 0.00838036 -0.00622381)
(2.80305 0.0204895 -0.00744114)
(2.46427 0.0571788 -0.00956534)
(1.43856 0.155911 -0.0151708)
(0.676773 0.336451 -0.0174519)
(0.60112 0.348174 -0.0176387)
(0.618154 0.350917 -0.0176793)
(0.602524 0.368327 -0.0177336)
(0.543706 0.396983 -0.0178372)
(0.463041 0.439162 -0.0179202)
(0.389343 0.484944 -0.0179586)
(0.312371 0.536112 -0.0180585)
(0.209199 0.592178 -0.0182179)
(0.0935132 0.643026 -0.0183097)
(3 1.30846e-07 -0.00571424)
(2.99999 7.12209e-07 -0.00571431)
(2.99998 2.64201e-06 -0.0057144)
(2.99995 6.79112e-06 -0.00571469)
(2.99989 1.86663e-05 -0.00571523)
(2.99971 4.30274e-05 -0.00571685)
(2.99937 0.000110686 -0.00572001)
(2.99829 0.000255118 -0.00572845)
(2.99646 0.000626486 -0.00574972)
(2.98932 0.00143519 -0.00579034)
(2.97804 0.00373702 -0.0059521)
(2.93164 0.00827454 -0.00616503)
(2.82622 0.0235279 -0.00730877)
(2.51913 0.0610565 -0.00907309)
(1.56198 0.175079 -0.0145743)
(0.770998 0.393132 -0.0170496)
(0.606729 0.391478 -0.0175198)
(0.628017 0.391868 -0.0175535)
(0.622053 0.415575 -0.0175456)
(0.573107 0.447439 -0.0176099)
(0.502236 0.496056 -0.0176328)
(0.433265 0.554048 -0.0176292)
(0.361151 0.620595 -0.0176355)
(0.262372 0.703143 -0.0177042)
(0.129792 0.801202 -0.0176265)
(3 2.01302e-07 -0.00571424)
(2.99999 2.70779e-07 -0.0057143)
(2.99998 2.81028e-06 -0.00571438)
(2.99996 3.69797e-06 -0.00571463)
(2.99991 1.87532e-05 -0.00571509)
(2.99975 2.35709e-05 -0.00571646)
(2.99946 0.000112934 -0.00571926)
(2.99851 0.000120042 -0.00572617)
(2.99694 0.00073594 -0.00574548)
(2.99071 0.00042366 -0.00577899)
(2.98091 0.00538724 -0.00592278)
(2.9403 0.00203894 -0.00610338)
(2.85034 0.0363743 -0.00711248)
(2.58033 0.0415359 -0.00859868)
(1.72881 0.205884 -0.0137124)
(0.891094 0.450173 -0.0164705)
(0.620521 0.43704 -0.0173485)
(0.647902 0.432635 -0.0173953)
(0.65142 0.458116 -0.0173618)
(0.610403 0.495351 -0.0174002)
(0.551491 0.549913 -0.0173776)
(0.490787 0.618819 -0.0172959)
(0.43157 0.706602 -0.0171657)
(0.354998 0.835436 -0.0170403)
(0.200286 1.05419 -0.0166513)
(3 7.38282e-09 -2.43811e-09)
(2.99999 4.01489e-08 -8.62249e-09)
(2.99997 1.49234e-07 -1.00837e-08)
(2.99992 3.82914e-07 -1.57717e-08)
(2.99982 1.05497e-06 -1.59652e-08)
(2.99953 2.41132e-06 -2.0856e-08)
(2.99897 6.33088e-06 -2.0652e-08)
(2.99729 1.39831e-05 -2.61615e-08)
(2.99407 3.80649e-05 -2.81468e-08)
(2.9836 7.99887e-05 -4.04776e-08)
(2.964 0.000261205 -5.11624e-08)
(2.8943 0.000492985 -1.26488e-07)
(2.71497 0.00196931 -1.94588e-07)
(2.24095 0.00491441 -6.07344e-07)
(1.03089 0.0159048 -1.15791e-06)
(0.361649 0.021673 -1.52424e-07)
(0.539864 0.0235007 -4.1014e-08)
(0.596612 0.0252779 -4.92582e-08)
(0.542907 0.02717 -6.45988e-08)
(0.447283 0.0295122 -8.38121e-08)
(0.355554 0.0322797 -6.58147e-08)
(0.284498 0.035792 -5.46844e-08)
(0.213115 0.0399281 -5.20252e-08)
(0.128808 0.0445786 -4.00319e-08)
(0.0535638 0.0494267 -3.98325e-08)
(3 2.24096e-08 -2.4351e-09)
(2.99999 1.22035e-07 -8.62378e-09)
(2.99997 4.53274e-07 -1.0082e-08)
(2.99992 1.16223e-06 -1.57709e-08)
(2.99982 3.19732e-06 -1.59583e-08)
(2.99954 7.30209e-06 -2.08439e-08)
(2.99898 1.91043e-05 -2.05913e-08)
(2.99732 4.21452e-05 -2.60372e-08)
(2.99413 0.000113986 -2.75699e-08)
(2.98379 0.000238722 -3.93592e-08)
(2.96435 0.000774757 -4.5729e-08)
(2.89565 0.00144032 -1.17368e-07)
(2.7191 0.00571221 -1.48006e-07)
(2.25234 0.0141649 -5.04366e-07)
(1.04501 0.0435521 -9.87998e-07)
(0.372939 0.0646312 -1.94452e-07)
(0.543962 0.0677871 -5.70565e-08)
(0.599378 0.0699407 -4.98861e-08)
(0.545478 0.0727442 -6.64349e-08)
(0.449778 0.0770251 -8.72955e-08)
(0.357421 0.0820398 -6.75387e-08)
(0.285041 0.0878295 -5.59575e-08)
(0.211943 0.093709 -5.2717e-08)
(0.126229 0.0993631 -4.11458e-08)
(0.0508292 0.103403 -4.11915e-08)
(3 3.87389e-08 -2.43008e-09)
(2.99999 2.10871e-07 -8.62441e-09)
(2.99997 7.84139e-07 -1.00815e-08)
(2.99992 2.01001e-06 -1.57689e-08)
(2.99982 5.53968e-06 -1.59513e-08)
(2.99955 1.26611e-05 -2.08293e-08)
(2.999 3.31397e-05 -2.05413e-08)
(2.99737 7.34196e-05 -2.5925e-08)
(2.99424 0.000196014 -2.72032e-08)
(2.98415 0.000420329 -3.84694e-08)
(2.96502 0.00125798 -4.29492e-08)
(2.89818 0.00258561 -1.12164e-07)
(2.72685 0.00897889 -1.22915e-07)
(2.27169 0.0222587 -4.33468e-07)
(1.07462 0.0666645 -6.60449e-07)
(0.398957 0.107953 -3.76371e-07)
(0.55234 0.115322 -1.02169e-07)
(0.605212 0.118628 -5.67666e-08)
(0.551757 0.12346 -7.23459e-08)
(0.456664 0.131548 -9.37095e-08)
(0.363978 0.141133 -7.15331e-08)
(0.290398 0.151511 -5.8971e-08)
(0.215643 0.161839 -5.54855e-08)
(0.128115 0.171337 -4.38751e-08)
(0.050872 0.176867 -4.36621e-08)
(3 5.55678e-08 -2.42208e-09)
(2.99999 3.02299e-07 -8.62575e-09)
(2.99997 1.12477e-06 -1.00813e-08)
(2.99992 2.88315e-06 -1.57677e-08)
(2.99983 7.95228e-06 -1.5948e-08)
(2.99956 1.81848e-05 -2.08237e-08)
(2.99903 4.75904e-05 -2.05295e-08)
(2.99745 0.000105807 -2.58995e-08)
(2.99442 0.000279471 -2.71029e-08)
(2.98466 0.000611674 -3.84907e-08)
(2.96619 0.00170745 -4.05181e-08)
(2.90174 0.0038303 -1.14926e-07)
(2.7372 0.0118852 -1.02034e-07)
(2.29806 0.0293206 -3.81504e-07)
(1.11871 0.0875919 -5.70216e-07)
(0.432637 0.148539 -3.80723e-07)
(0.561152 0.163354 -1.40709e-07)
(0.610203 0.167568 -7.55103e-08)
(0.558895 0.174032 -8.59131e-08)
(0.466469 0.186178 -1.01345e-07)
(0.374567 0.200944 -7.58673e-08)
(0.300175 0.216389 -6.05702e-08)
(0.223955 0.231883 -5.72859e-08)
(0.133816 0.246072 -4.58837e-08)
(0.05292 0.25391 -4.52374e-08)
(3 7.22013e-08 -2.41174e-09)
(2.99999 3.93245e-07 -8.62833e-09)
(2.99997 1.46053e-06 -1.00822e-08)
(2.99993 3.74389e-06 -1.57682e-08)
(2.99984 1.02918e-05 -1.59469e-08)
(2.99958 2.35139e-05 -2.08217e-08)
(2.99907 6.12184e-05 -2.05216e-08)
(2.99756 0.000135916 -2.58689e-08)
(2.99466 0.000356167 -2.70168e-08)
(2.98533 0.000778702 -3.82508e-08)
(2.96775 0.00214287 -3.95354e-08)
(2.90624 0.00480966 -1.11241e-07)
(2.74996 0.0146168 -9.06852e-08)
(2.33098 0.0356899 -3.4405e-07)
(1.17689 0.106572 -5.10543e-07)
(0.474836 0.188937 -3.76917e-07)
(0.571265 0.212301 -1.5508e-07)
(0.613862 0.21564 -8.65501e-08)
(0.566601 0.223042 -9.48907e-08)
(0.479059 0.240042 -1.06819e-07)
(0.388823 0.26048 -7.9237e-08)
(0.313895 0.281472 -6.05864e-08)
(0.23636 0.302844 -6.07152e-08)
(0.143098 0.322587 -4.88678e-08)
(0.0571022 0.333668 -4.68114e-08)
(3 9.30877e-08 -2.40024e-09)
(2.99999 5.0655e-07 -8.63301e-09)
(2.99997 1.88389e-06 -1.00873e-08)
(2.99993 4.82832e-06 -1.57749e-08)
(2.99985 1.33038e-05 -1.59607e-08)
(2.9996 3.042e-05 -2.08449e-08)
(2.99912 7.93305e-05 -2.05804e-08)
(2.9977 0.000177038 -2.59426e-08)
(2.99495 0.000456396 -2.72222e-08)
(2.98614 0.00103984 -3.8479e-08)
(2.9696 0.00260325 -3.85837e-08)
(2.91162 0.00638945 -1.1049e-07)
(2.76498 0.0172451 -7.43192e-08)
(2.36965 0.0434569 -3.14035e-07)
(1.24864 0.124574 -4.7405e-07)
(0.528328 0.233145 -3.89395e-07)
(0.582608 0.263502 -1.56606e-07)
(0.615581 0.261676 -8.956e-08)
(0.57587 0.269618 -9.80155e-08)
(0.495727 0.293168 -1.06183e-07)
(0.407498 0.32036 -8.11651e-08)
(0.332399 0.347937 -6.28544e-08)
(0.253802 0.37672 -6.48507e-08)
(0.156663 0.404367 -5.15337e-08)
(0.0635529 0.421202 -4.94587e-08)
(3 1.16887e-07 -2.38584e-09)
(2.99999 6.3274e-07 -8.64087e-09)
(2.99998 2.36438e-06 -1.01012e-08)
(2.99994 6.07098e-06 -1.57965e-08)
(2.99986 1.68138e-05 -1.60266e-08)
(2.99964 3.86842e-05 -2.09736e-08)
(2.99919 0.000100412 -2.09859e-08)
(2.99788 0.000232305 -2.69254e-08)
(2.99538 0.00055478 -2.66621e-08)
(2.9871 0.00142648 -6.14422e-08)
(2.97227 0.00296616 -8.31147e-09)
(2.91791 0.00798895 -1.4916e-07)
(2.78289 0.0191765 -2.24878e-08)
(2.41451 0.0512191 -3.1657e-07)
(1.33641 0.140909 -4.13074e-07)
(0.598718 0.282881 -4.48903e-07)
(0.593748 0.308132 -1.22208e-07)
(0.613888 0.307012 -9.21404e-08)
(0.588317 0.317945 -9.89049e-08)
(0.518098 0.345186 -1.0866e-07)
(0.431903 0.380169 -8.12403e-08)
(0.356989 0.415765 -6.23955e-08)
(0.278252 0.454054 -6.2836e-08)
(0.177273 0.493226 -5.18472e-08)
(0.0745143 0.521345 -4.79634e-08)
(3 1.28411e-07 -2.36558e-09)
(2.99999 6.94233e-07 -8.67285e-09)
(2.99998 2.59452e-06 -1.01072e-08)
(2.99994 6.67161e-06 -1.58653e-08)
(2.99987 1.84565e-05 -1.61483e-08)
(2.99967 4.25995e-05 -2.13093e-08)
(2.99928 0.000109729 -2.15405e-08)
(2.99808 0.000257859 -2.96482e-08)
(2.99595 0.000600381 -2.67024e-08)
(2.98814 0.00154582 -6.81822e-08)
(2.97514 0.00327559 -4.08436e-09)
(2.92459 0.00838329 -1.61718e-07)
(2.80304 0.020486 1.96256e-08)
(2.46424 0.0571776 -3.49087e-07)
(1.43853 0.155911 -3.32268e-07)
(0.67674 0.33645 -5.01833e-07)
(0.601139 0.348184 -1.10559e-07)
(0.61817 0.350929 -8.99362e-08)
(0.602535 0.368337 -9.43508e-08)
(0.543713 0.396994 -9.58852e-08)
(0.463047 0.439171 -8.49666e-08)
(0.389347 0.48495 -6.33127e-08)
(0.312375 0.536115 -6.16746e-08)
(0.209206 0.592181 -5.37366e-08)
(0.0935164 0.643035 -4.68841e-08)
(3 1.29403e-07 -2.35131e-09)
(2.99999 7.0968e-07 -8.69332e-09)
(2.99998 2.63597e-06 -1.0078e-08)
(2.99995 6.77134e-06 -1.58669e-08)
(2.99989 1.8661e-05 -1.59916e-08)
(2.99971 4.30142e-05 -2.1054e-08)
(2.99937 0.00011071 -2.0865e-08)
(2.99829 0.000255271 -2.65675e-08)
(2.99645 0.000626627 -2.7195e-08)
(2.98932 0.00143677 -3.99227e-08)
(2.97803 0.0037362 -4.71482e-08)
(2.93163 0.00827871 -7.94365e-08)
(2.8262 0.0235234 -1.10517e-07)
(2.5191 0.0610589 -3.00468e-07)
(1.56192 0.175073 -3.81949e-07)
(0.770942 0.393127 -5.59309e-07)
(0.606738 0.391486 -7.67349e-08)
(0.628028 0.391881 -6.91931e-08)
(0.622062 0.415588 -8.43022e-08)
(0.573115 0.447452 -8.57549e-08)
(0.502244 0.496067 -7.8972e-08)
(0.433271 0.554056 -6.12423e-08)
(0.361157 0.6206 -5.75279e-08)
(0.26238 0.703149 -4.99348e-08)
(0.129796 0.801214 -4.31327e-08)
(3 1.87439e-07 -2.3947e-09)
(2.99999 3.33029e-07 -8.69279e-09)
(2.99998 2.71351e-06 -1.01693e-08)
(2.99996 3.7479e-06 -1.61602e-08)
(2.9999 1.86409e-05 -1.58748e-08)
(2.99975 2.36306e-05 -2.14196e-08)
(2.99946 0.000112845 -2.08443e-08)
(2.99851 0.000120162 -2.70204e-08)
(2.99694 0.000735876 -2.66952e-08)
(2.99071 0.000424138 -4.02341e-08)
(2.9809 0.00538734 -4.61892e-08)
(2.94029 0.00204001 -7.48623e-08)
(2.85032 0.0363741 -1.10455e-07)
(2.58029 0.0415432 -2.57464e-07)
(1.72872 0.20588 -4.40212e-07)
(0.891025 0.45017 -6.55676e-07)
(0.620519 0.437044 -4.73481e-08)
(0.647903 0.432645 -4.96304e-08)
(0.651422 0.458128 -7.52381e-08)
(0.610408 0.495363 -7.71655e-08)
(0.551497 0.549925 -7.26459e-08)
(0.490794 0.618829 -6.16653e-08)
(0.431578 0.706609 -4.96848e-08)
(0.355008 0.835443 -3.83141e-08)
(0.200292 1.05421 -3.62746e-08)
(3 7.38283e-09 -2.97936e-13)
(2.99999 4.0149e-08 -1.67414e-12)
(2.99997 1.49234e-07 -3.28584e-12)
(2.99992 3.82915e-07 -6.73324e-12)
(2.99982 1.05497e-06 -1.03958e-11)
(2.99953 2.41133e-06 -1.79629e-11)
(2.99897 6.3309e-06 -2.95728e-11)
(2.99729 1.39831e-05 -5.10934e-11)
(2.99407 3.80652e-05 -1.21858e-10)
(2.9836 7.99892e-05 -2.07311e-10)
(2.964 0.000261209 -8.17839e-10)
(2.8943 0.000492991 -1.19456e-09)
(2.71497 0.00196935 -5.88654e-09)
(2.24095 0.00491451 -1.38882e-08)
(1.03089 0.0159052 -3.19678e-08)
(0.361648 0.0216731 -5.35548e-09)
(0.539864 0.0235006 -1.97041e-09)
(0.596611 0.0252778 -2.35185e-09)
(0.542907 0.02717 -2.7552e-09)
(0.447282 0.0295122 -3.12386e-09)
(0.355554 0.0322797 -2.00108e-09)
(0.284498 0.035792 -1.71119e-09)
(0.213115 0.039928 -8.52587e-10)
(0.128808 0.0445787 -1.49793e-09)
(0.0535651 0.0494268 -1.26409e-09)
(3 2.24097e-08 -2.9747e-13)
(2.99999 1.22035e-07 -1.67248e-12)
(2.99997 4.53275e-07 -3.27739e-12)
(2.99992 1.16223e-06 -6.71949e-12)
(2.99982 3.19732e-06 -1.02923e-11)
(2.99954 7.3021e-06 -1.77669e-11)
(2.99898 1.91044e-05 -2.83088e-11)
(2.99732 4.21453e-05 -4.86512e-11)
(2.99413 0.000113987 -1.07947e-10)
(2.98379 0.000238722 -1.84046e-10)
(2.96435 0.000774762 -6.70053e-10)
(2.89565 0.00144033 -9.79257e-10)
(2.7191 0.00571226 -4.61182e-09)
(2.25234 0.0141651 -1.11279e-08)
(1.04501 0.0435527 -2.72586e-08)
(0.372938 0.0646311 -6.5414e-09)
(0.543962 0.067787 -2.45605e-09)
(0.599378 0.0699406 -2.39751e-09)
(0.545478 0.0727442 -2.82011e-09)
(0.449778 0.0770251 -3.21941e-09)
(0.357421 0.0820398 -2.05572e-09)
(0.285041 0.0878295 -1.76494e-09)
(0.211943 0.0937089 -9.16275e-10)
(0.126229 0.0993631 -1.5352e-09)
(0.0508305 0.103403 -1.33977e-09)
(3 3.87389e-08 -2.96901e-13)
(2.99999 2.10871e-07 -1.66961e-12)
(2.99997 7.8414e-07 -3.26809e-12)
(2.99992 2.01002e-06 -6.70073e-12)
(2.99982 5.53969e-06 -1.02128e-11)
(2.99955 1.26611e-05 -1.76111e-11)
(2.999 3.31397e-05 -2.75432e-11)
(2.99737 7.34196e-05 -4.71768e-11)
(2.99424 0.000196014 -1.00157e-10)
(2.98415 0.00042033 -1.71676e-10)
(2.96502 0.00125798 -5.85702e-10)
(2.89818 0.00258562 -8.87769e-10)
(2.72685 0.00897892 -3.88101e-09)
(2.27169 0.0222588 -9.25792e-09)
(1.07462 0.0666648 -1.85115e-08)
(0.398956 0.107953 -1.142e-08)
(0.55234 0.115322 -3.76067e-09)
(0.605212 0.118628 -2.63168e-09)
(0.551756 0.12346 -3.00655e-09)
(0.456664 0.131548 -3.39515e-09)
(0.363978 0.141133 -2.18401e-09)
(0.290398 0.151511 -1.87745e-09)
(0.215643 0.161839 -1.07896e-09)
(0.128115 0.171337 -1.58228e-09)
(0.0508733 0.176867 -1.41836e-09)
(3 5.55678e-08 -2.96539e-13)
(2.99999 3.023e-07 -1.66684e-12)
(2.99997 1.12477e-06 -3.26346e-12)
(2.99992 2.88316e-06 -6.68992e-12)
(2.99983 7.95229e-06 -1.01978e-11)
(2.99956 1.81848e-05 -1.75898e-11)
(2.99903 4.75905e-05 -2.75038e-11)
(2.99745 0.000105807 -4.74189e-11)
(2.99442 0.000279472 -9.83202e-11)
(2.98466 0.000611674 -1.7845e-10)
(2.96619 0.00170745 -5.13953e-10)
(2.90174 0.0038303 -1.00934e-09)
(2.7372 0.0118852 -3.28081e-09)
(2.29806 0.0293206 -7.8766e-09)
(1.11871 0.0875921 -1.61273e-08)
(0.432636 0.148539 -1.15245e-08)
(0.561152 0.163354 -4.90038e-09)
(0.610203 0.167568 -3.18372e-09)
(0.558895 0.174032 -3.40109e-09)
(0.466468 0.186178 -3.61701e-09)
(0.374566 0.200944 -2.33223e-09)
(0.300175 0.216389 -1.93874e-09)
(0.223955 0.231883 -1.16694e-09)
(0.133816 0.246072 -1.59872e-09)
(0.0529212 0.25391 -1.40497e-09)
(3 7.22014e-08 -2.95705e-13)
(2.99999 3.93245e-07 -1.66207e-12)
(2.99997 1.46053e-06 -3.25073e-12)
(2.99993 3.74389e-06 -6.66177e-12)
(2.99984 1.02918e-05 -1.01133e-11)
(2.99958 2.35139e-05 -1.74191e-11)
(2.99907 6.12185e-05 -2.69435e-11)
(2.99756 0.000135917 -4.63229e-11)
(2.99466 0.000356168 -9.41715e-11)
(2.98533 0.000778702 -1.70709e-10)
(2.96775 0.00214287 -4.77462e-10)
(2.90624 0.00480966 -9.42017e-10)
(2.74996 0.0146168 -2.95899e-09)
(2.33098 0.0356899 -7.01492e-09)
(1.17689 0.106572 -1.469e-08)
(0.474835 0.188937 -1.14973e-08)
(0.571265 0.212301 -5.36589e-09)
(0.613862 0.21564 -3.50564e-09)
(0.566601 0.223042 -3.65957e-09)
(0.479059 0.240042 -3.78303e-09)
(0.388823 0.26048 -2.47959e-09)
(0.313894 0.281472 -1.90231e-09)
(0.23636 0.302843 -1.39415e-09)
(0.143098 0.322587 -1.70552e-09)
(0.0571034 0.333668 -1.31902e-09)
(3 9.30877e-08 -2.95605e-13)
(2.99999 5.0655e-07 -1.66024e-12)
(2.99997 1.88389e-06 -3.24979e-12)
(2.99993 4.82833e-06 -6.6567e-12)
(2.99985 1.33038e-05 -1.01139e-11)
(2.9996 3.042e-05 -1.74145e-11)
(2.99912 7.93305e-05 -2.69885e-11)
(2.9977 0.000177038 -4.64329e-11)
(2.99495 0.000456396 -9.35693e-11)
(2.98614 0.00103984 -1.71409e-10)
(2.9696 0.00260325 -4.39937e-10)
(2.91162 0.00638945 -9.61593e-10)
(2.76498 0.0172451 -2.56658e-09)
(2.36965 0.0434569 -6.39726e-09)
(1.24864 0.124574 -1.37965e-08)
(0.528327 0.233146 -1.18393e-08)
(0.582608 0.263502 -5.45462e-09)
(0.615581 0.261676 -3.61078e-09)
(0.575869 0.269618 -3.75894e-09)
(0.495726 0.293168 -3.79513e-09)
(0.407498 0.32036 -2.58453e-09)
(0.332399 0.347937 -1.96074e-09)
(0.253802 0.37672 -1.66733e-09)
(0.156663 0.404367 -1.74426e-09)
(0.063554 0.421202 -1.36943e-09)
(3 1.16887e-07 -2.95783e-13)
(2.99999 6.3274e-07 -1.65881e-12)
(2.99998 2.36438e-06 -3.25319e-12)
(2.99994 6.07098e-06 -6.66051e-12)
(2.99986 1.68138e-05 -1.01637e-11)
(2.99964 3.86842e-05 -1.75176e-11)
(2.99919 0.000100412 -2.74894e-11)
(2.99788 0.000232306 -4.84905e-11)
(2.99538 0.000554781 -8.95736e-11)
(2.9871 0.00142648 -2.39068e-10)
(2.97227 0.00296616 -3.40424e-10)
(2.91791 0.00798895 -1.15117e-09)
(2.78289 0.0191765 -2.40664e-09)
(2.41451 0.0512191 -6.34644e-09)
(1.33641 0.140909 -1.32091e-08)
(0.598717 0.282881 -1.34361e-08)
(0.593747 0.308132 -4.25807e-09)
(0.613888 0.307012 -3.59654e-09)
(0.588317 0.317945 -3.74183e-09)
(0.518097 0.345186 -3.89107e-09)
(0.431903 0.380169 -2.66314e-09)
(0.356989 0.415765 -1.95679e-09)
(0.278252 0.454054 -1.64516e-09)
(0.177273 0.493226 -1.80232e-09)
(0.0745154 0.521346 -1.18317e-09)
(3 1.28411e-07 -2.94455e-13)
(2.99999 6.94234e-07 -1.65228e-12)
(2.99998 2.59452e-06 -3.23055e-12)
(2.99994 6.67161e-06 -6.61812e-12)
(2.99987 1.84566e-05 -9.99197e-12)
(2.99967 4.25995e-05 -1.71972e-11)
(2.99928 0.000109729 -2.61792e-11)
(2.99808 0.000257859 -4.58629e-11)
(2.99595 0.000600381 -8.46853e-11)
(2.98814 0.00154582 -1.80817e-10)
(2.97514 0.00327559 -3.59049e-10)
(2.92459 0.0083833 -9.57507e-10)
(2.80304 0.0204861 -1.96874e-09)
(2.46424 0.0571777 -6.99555e-09)
(1.43853 0.155912 -1.20557e-08)
(0.676738 0.33645 -1.5145e-08)
(0.601138 0.348184 -3.97531e-09)
(0.61817 0.350929 -3.49874e-09)
(0.602535 0.368338 -3.59218e-09)
(0.543713 0.396994 -3.55908e-09)
(0.463046 0.439171 -2.89948e-09)
(0.389347 0.48495 -2.01293e-09)
(0.312375 0.536115 -1.66654e-09)
(0.209206 0.592181 -1.77721e-09)
(0.0935175 0.643036 -1.08223e-09)
(3 1.29403e-07 -2.91068e-13)
(2.99999 7.09679e-07 -1.64394e-12)
(2.99998 2.63597e-06 -3.16505e-12)
(2.99995 6.77133e-06 -6.61867e-12)
(2.99989 1.8661e-05 -9.53527e-12)
(2.99971 4.30142e-05 -1.65924e-11)
(2.99937 0.00011071 -2.41808e-11)
(2.99829 0.000255271 -3.94667e-11)
(2.99645 0.000626627 -7.85239e-11)
(2.98932 0.00143677 -1.26184e-10)
(2.97803 0.0037362 -3.91498e-10)
(2.93163 0.00827872 -6.623e-10)
(2.8262 0.0235234 -2.43164e-09)
(2.5191 0.061059 -5.99577e-09)
(1.56191 0.175073 -1.23621e-08)
(0.77094 0.393127 -1.68811e-08)
(0.606738 0.391486 -3.64105e-09)
(0.628027 0.391882 -3.27527e-09)
(0.622062 0.415588 -3.45483e-09)
(0.573115 0.447452 -3.40326e-09)
(0.502244 0.496067 -2.87314e-09)
(0.433271 0.554056 -2.04521e-09)
(0.361157 0.620599 -1.74278e-09)
(0.26238 0.703149 -1.51686e-09)
(0.129797 0.801214 -8.60046e-10)
(3 1.87436e-07 -2.95762e-13)
(2.99999 3.33038e-07 -1.63811e-12)
(2.99998 2.71349e-06 -3.17194e-12)
(2.99996 3.74792e-06 -6.65394e-12)
(2.9999 1.86409e-05 -9.34317e-12)
(2.99975 2.36307e-05 -1.62782e-11)
(2.99946 0.000112845 -2.28663e-11)
(2.99851 0.000120162 -3.58864e-11)
(2.99694 0.000735877 -7.14023e-11)
(2.99071 0.000424139 -1.04485e-10)
(2.9809 0.00538735 -3.3854e-10)
(2.94029 0.00204001 -5.40615e-10)
(2.85032 0.0363741 -2.21483e-09)
(2.58029 0.0415433 -4.66157e-09)
(1.72872 0.20588 -1.30754e-08)
(0.891024 0.45017 -1.89793e-08)
(0.620519 0.437044 -3.27491e-09)
(0.647903 0.432645 -3.06048e-09)
(0.651421 0.458128 -3.3483e-09)
(0.610407 0.495364 -3.2845e-09)
(0.551497 0.549925 -2.79395e-09)
(0.490794 0.618829 -2.31481e-09)
(0.431578 0.706609 -1.6413e-09)
(0.355008 0.835443 -1.02365e-09)
(0.200293 1.05421 -6.32697e-10)
(3 7.38284e-09 -6.24381e-15)
(2.99999 4.0149e-08 -2.69829e-14)
(2.99997 1.49234e-07 -9.80966e-14)
(2.99992 3.82915e-07 -2.09435e-13)
(2.99982 1.05497e-06 -6.98639e-13)
(2.99953 2.41133e-06 -1.428e-12)
(2.99897 6.33093e-06 -4.92827e-12)
(2.99729 1.39832e-05 -9.77812e-12)
(2.99407 3.80655e-05 -3.6967e-11)
(2.9836 7.99899e-05 -6.56904e-11)
(2.964 0.000261212 -3.13158e-10)
(2.8943 0.000492998 -4.66611e-10)
(2.71497 0.00196939 -2.41245e-09)
(2.24095 0.00491462 -5.8136e-09)
(1.03089 0.0159057 -1.36755e-08)
(0.361647 0.0216731 -2.75488e-09)
(0.539864 0.0235006 -1.1882e-09)
(0.596611 0.0252778 -1.67756e-09)
(0.542907 0.02717 -1.95689e-09)
(0.447282 0.0295122 -2.1695e-09)
(0.355553 0.0322797 -1.47102e-09)
(0.284498 0.035792 -7.93009e-10)
(0.213114 0.039928 -9.55718e-10)
(0.128808 0.0445786 -2.65732e-10)
(0.0535654 0.0494268 -2.86801e-10)
(3 2.24097e-08 -6.05085e-15)
(2.99999 1.22035e-07 -2.62568e-14)
(2.99997 4.53275e-07 -9.44479e-14)
(2.99992 1.16223e-06 -2.03304e-13)
(2.99982 3.19732e-06 -6.56925e-13)
(2.99954 7.30211e-06 -1.3491e-12)
(2.99898 1.91044e-05 -4.43398e-12)
(2.99732 4.21454e-05 -8.83249e-12)
(2.99413 0.000113987 -3.15248e-11)
(2.98379 0.000238723 -5.67839e-11)
(2.96435 0.000774768 -2.5423e-10)
(2.89565 0.00144034 -3.83573e-10)
(2.7191 0.00571233 -1.8981e-09)
(2.25234 0.0141653 -4.69702e-09)
(1.04501 0.0435534 -1.17336e-08)
(0.372938 0.0646312 -3.2359e-09)
(0.543962 0.0677869 -1.40619e-09)
(0.599378 0.0699406 -1.70273e-09)
(0.545478 0.0727441 -1.9805e-09)
(0.449778 0.0770251 -2.1945e-09)
(0.357421 0.0820398 -1.483e-09)
(0.285041 0.0878295 -8.16413e-10)
(0.211943 0.0937089 -9.75669e-10)
(0.126229 0.099363 -3.08158e-10)
(0.0508308 0.103403 -3.31174e-10)
(3 3.87389e-08 -5.71591e-15)
(2.99999 2.10871e-07 -2.48661e-14)
(2.99997 7.8414e-07 -8.94079e-14)
(2.99992 2.01002e-06 -1.93209e-13)
(2.99982 5.53969e-06 -6.18719e-13)
(2.99955 1.26611e-05 -1.27471e-12)
(2.999 3.31397e-05 -4.10447e-12)
(2.99737 7.34196e-05 -8.21012e-12)
(2.99424 0.000196014 -2.8334e-11)
(2.98415 0.00042033 -5.19261e-11)
(2.96502 0.00125799 -2.19894e-10)
(2.89818 0.00258562 -3.48466e-10)
(2.72685 0.00897896 -1.60096e-09)
(2.27169 0.0222589 -3.93356e-09)
(1.07462 0.0666652 -8.09053e-09)
(0.398955 0.107953 -5.24385e-09)
(0.55234 0.115322 -1.96921e-09)
(0.605212 0.118628 -1.80625e-09)
(0.551756 0.12346 -2.05127e-09)
(0.456663 0.131548 -2.2487e-09)
(0.363978 0.141133 -1.52426e-09)
(0.290398 0.151511 -8.81408e-10)
(0.215643 0.161838 -1.04166e-09)
(0.128115 0.171337 -4.11731e-10)
(0.0508737 0.176867 -4.00147e-10)
(3 5.55678e-08 -5.42034e-15)
(2.99999 3.023e-07 -2.34173e-14)
(2.99997 1.12477e-06 -8.52178e-14)
(2.99992 2.88316e-06 -1.84069e-13)
(2.99983 7.95229e-06 -5.97908e-13)
(2.99956 1.81848e-05 -1.23572e-12)
(2.99903 4.75905e-05 -4.0039e-12)
(2.99745 0.000105807 -8.13395e-12)
(2.99442 0.000279472 -2.71677e-11)
(2.98466 0.000611674 -5.3603e-11)
(2.96619 0.00170746 -1.905e-10)
(2.90174 0.0038303 -3.87391e-10)
(2.7372 0.0118853 -1.36214e-09)
(2.29806 0.0293207 -3.35179e-09)
(1.11871 0.0875923 -7.09984e-09)
(0.432635 0.14854 -5.30073e-09)
(0.561152 0.163354 -2.46811e-09)
(0.610203 0.167568 -2.03373e-09)
(0.558895 0.174032 -2.20004e-09)
(0.466468 0.186178 -2.31134e-09)
(0.374566 0.200944 -1.564e-09)
(0.300175 0.216389 -9.30601e-10)
(0.223955 0.231883 -1.10297e-09)
(0.133816 0.246072 -5.28608e-10)
(0.0529215 0.25391 -4.84389e-10)
(3 7.22014e-08 -4.92535e-15)
(2.99999 3.93245e-07 -2.11915e-14)
(2.99997 1.46053e-06 -7.7723e-14)
(2.99993 3.74389e-06 -1.67915e-13)
(2.99984 1.02918e-05 -5.49432e-13)
(2.99958 2.35139e-05 -1.13718e-12)
(2.99907 6.12185e-05 -3.69838e-12)
(2.99756 0.000135917 -7.52874e-12)
(2.99466 0.000356168 -2.50821e-11)
(2.98533 0.000778702 -4.96044e-11)
(2.96775 0.00214288 -1.74038e-10)
(2.90624 0.00480966 -3.54976e-10)
(2.74996 0.0146168 -1.22471e-09)
(2.33098 0.03569 -2.9815e-09)
(1.17689 0.106572 -6.48613e-09)
(0.474834 0.188937 -5.31027e-09)
(0.571265 0.212301 -2.70267e-09)
(0.613862 0.21564 -2.18046e-09)
(0.566601 0.223042 -2.29859e-09)
(0.479058 0.240042 -2.34483e-09)
(0.388823 0.26048 -1.6083e-09)
(0.313894 0.281471 -1.00307e-09)
(0.23636 0.302843 -1.18299e-09)
(0.143097 0.322587 -6.417e-10)
(0.0571036 0.333668 -6.02371e-10)
(3 9.30877e-08 -4.64914e-15)
(2.99999 5.0655e-07 -1.98975e-14)
(2.99997 1.88389e-06 -7.41008e-14)
(2.99993 4.82832e-06 -1.59692e-13)
(2.99985 1.33038e-05 -5.32999e-13)
(2.9996 3.04199e-05 -1.10342e-12)
(2.99912 7.93305e-05 -3.6394e-12)