/*--------------------------------*- C++ -*----------------------------------*\
| =========                 |                                                 |
| \\      /  F ield         | OpenFOAM: The Open Source CFD Toolbox           |
|  \\    /   O peration     | Version:  4.1                                   |
|   \\  /    A nd           | Web:      www.OpenFOAM.org                      |
|    \\/     M anipulation  |                                                 |
\*---------------------------------------------------------------------------*/
FoamFile
{
    version     2.0;
    format      ascii;
    class       volScalarField;
    location    "8.52";
    object      Ma;
}
// * * * * * * * * * * * * * * * * * * * * * * * * * * * * * * * * * * * * * //

dimensions      [0 0 0 0 0 0 0];

internalField   nonuniform List<scalar> 
52500
(
3.00001
2.99996
2.99988
2.99959
2.99919
2.99753
2.99517
2.98592
2.97136
2.92189
2.81675
2.56133
1.95243
1.05099
0.433683
0.321516
0.343966
0.345372
0.314581
0.262587
0.211205
0.168712
0.126709
0.080018
0.0460104
3.00001
2.99996
2.99989
2.9996
2.9992
2.99755
2.99523
2.98607
2.97166
2.92269
2.81842
2.56575
1.95964
1.06062
0.439929
0.322211
0.345202
0.347135
0.316638
0.265422
0.215321
0.174388
0.13471
0.0935156
0.0695045
3.00001
2.99996
2.99989
2.99961
2.99921
2.99761
2.99533
2.98638
2.97228
2.92433
2.82194
2.57499
1.97541
1.08216
0.454433
0.324941
0.349274
0.352703
0.323291
0.274291
0.22737
0.190268
0.15606
0.124007
0.108899
3.00001
2.99996
2.99989
2.99962
2.99924
2.99769
2.99549
2.98685
2.97323
2.92682
2.82732
2.58906
2.00002
1.11631
0.476752
0.329049
0.355828
0.361881
0.334366
0.288626
0.246231
0.214132
0.18615
0.162095
0.15213
3.00001
2.99996
2.9999
2.99964
2.99928
2.99781
2.99572
2.98759
2.9745
2.93063
2.83415
2.60766
2.03354
1.16422
0.506599
0.334163
0.364496
0.37411
0.349041
0.307403
0.269978
0.243517
0.221608
0.203873
0.19763
3.00002
2.99997
2.99991
2.99967
2.99933
2.99796
2.996
2.98849
2.97604
2.93541
2.84354
2.63123
2.07631
1.22732
0.543211
0.339651
0.374674
0.388945
0.366671
0.330207
0.298247
0.277461
0.261978
0.250433
0.247811
3.00002
2.99997
2.99992
2.99969
2.99938
2.99812
2.99631
2.98938
2.97784
2.94037
2.85537
2.65803
2.13561
1.3101
0.589947
0.348732
0.388209
0.407152
0.387679
0.356332
0.330822
0.316251
0.307342
0.302932
0.30625
3.00002
2.99998
2.99993
2.99972
2.99943
2.99826
2.9966
2.9901
2.97981
2.94482
2.87012
2.68725
2.21748
1.41922
0.650691
0.367279
0.408927
0.431214
0.413732
0.387068
0.367422
0.359904
0.359008
0.363854
0.377896
3.00002
2.99998
2.99994
2.99975
2.99949
2.99843
2.99693
2.99094
2.98192
2.94958
2.88736
2.72061
2.3127
1.55501
0.72363
0.398878
0.439586
0.462049
0.445955
0.424266
0.410003
0.408638
0.417105
0.436971
0.474652
3.00002
2.99999
2.99995
2.99979
2.99955
2.99864
2.9973
2.99213
2.98411
2.95594
2.90253
2.75293
2.40826
1.68794
0.810175
0.448199
0.481743
0.496831
0.483782
0.466866
0.458286
0.463105
0.484958
0.532035
0.634012
2.99999
2.99994
2.99987
2.99957
2.99917
2.99751
2.99515
2.9859
2.97133
2.92186
2.81672
2.56125
1.95237
1.05086
0.433509
0.321336
0.34379
0.34519
0.314378
0.26234
0.210893
0.168315
0.126172
0.0791505
0.0444601
2.99999
2.99994
2.99987
2.99958
2.99918
2.99753
2.99521
2.98605
2.97164
2.92265
2.81839
2.56568
1.95957
1.06048
0.439758
0.322033
0.345028
0.346956
0.316439
0.265181
0.215019
0.174009
0.134212
0.0927849
0.0685036
2.99999
2.99994
2.99987
2.99959
2.99919
2.99759
2.99531
2.98636
2.97226
2.9243
2.82191
2.57492
1.97535
1.08202
0.454268
0.324767
0.349104
0.352529
0.323098
0.274062
0.227089
0.189926
0.155636
0.123466
0.108273
2.99999
2.99994
2.99988
2.9996
2.99922
2.99767
2.99547
2.98683
2.9732
2.92679
2.82729
2.58899
1.99995
1.11617
0.476593
0.328878
0.355663
0.361712
0.334182
0.288411
0.245975
0.213834
0.185801
0.161689
0.15169
3
2.99995
2.99988
2.99962
2.99926
2.99779
2.9957
2.98756
2.97448
2.93058
2.83413
2.60759
2.03349
1.1641
0.506457
0.334004
0.36434
0.373952
0.348869
0.307206
0.269749
0.24326
0.221322
0.203557
0.1973
3
2.99995
2.99989
2.99965
2.99931
2.99794
2.99598
2.98846
2.97602
2.93537
2.8435
2.63115
2.07623
1.22717
0.543066
0.339488
0.374519
0.388791
0.366509
0.330026
0.298044
0.27724
0.261743
0.250182
0.247554
3
2.99996
2.9999
2.99968
2.99936
2.9981
2.99629
2.98935
2.97781
2.94034
2.85534
2.65795
2.13551
1.30994
0.589806
0.348566
0.388052
0.407
0.387523
0.356164
0.330642
0.316062
0.307146
0.302732
0.306049
3
2.99996
2.99991
2.9997
2.99941
2.99824
2.99658
2.99007
2.97979
2.94477
2.8701
2.68718
2.21742
1.41908
0.650572
0.367124
0.408779
0.431071
0.413586
0.386914
0.367261
0.359741
0.358846
0.363693
0.37774
3
2.99996
2.99992
2.99973
2.99947
2.99841
2.99691
2.99092
2.9819
2.94955
2.88733
2.72055
2.31262
1.55485
0.723515
0.398723
0.439445
0.461916
0.44582
0.424127
0.40986
0.408497
0.416969
0.436843
0.474535
3
2.99997
2.99993
2.99977
2.99954
2.99862
2.99728
2.99211
2.98408
2.95591
2.90249
2.75287
2.40819
1.68783
0.810059
0.44805
0.481619
0.496712
0.48366
0.466741
0.45816
0.462983
0.484844
0.531935
0.633932
2.99999
2.99994
2.99987
2.99957
2.99917
2.99751
2.99515
2.9859
2.97133
2.92186
2.81672
2.56125
1.95236
1.05085
0.433506
0.321337
0.343791
0.34519
0.314378
0.26234
0.210893
0.168315
0.126172
0.0791506
0.0444601
2.99999
2.99994
2.99987
2.99958
2.99918
2.99753
2.99521
2.98605
2.97164
2.92265
2.81839
2.56567
1.95956
1.06048
0.439755
0.322035
0.345029
0.346956
0.316439
0.265181
0.215019
0.174009
0.134212
0.092785
0.0685036
2.99999
2.99994
2.99987
2.99959
2.99919
2.99759
2.99531
2.98636
2.97226
2.9243
2.82191
2.57491
1.97534
1.08202
0.454265
0.324769
0.349105
0.352529
0.323098
0.274062
0.227089
0.189926
0.155636
0.123466
0.108273
2.99999
2.99994
2.99988
2.9996
2.99922
2.99767
2.99547
2.98683
2.9732
2.92679
2.82729
2.58898
1.99995
1.11617
0.47659
0.328879
0.355663
0.361712
0.334182
0.288411
0.245975
0.213834
0.185801
0.161689
0.151691
3
2.99995
2.99988
2.99962
2.99926
2.99779
2.9957
2.98756
2.97448
2.93058
2.83413
2.60759
2.03348
1.16409
0.506453
0.334005
0.364341
0.373952
0.348869
0.307206
0.269749
0.243261
0.221322
0.203557
0.1973
3
2.99995
2.99989
2.99965
2.99931
2.99794
2.99598
2.98846
2.97602
2.93537
2.8435
2.63115
2.07622
1.22716
0.543063
0.33949
0.374519
0.388791
0.366509
0.330026
0.298045
0.27724
0.261743
0.250183
0.247554
3
2.99996
2.9999
2.99968
2.99936
2.9981
2.99629
2.98935
2.97781
2.94034
2.85533
2.65795
2.13551
1.30993
0.589802
0.348566
0.388052
0.407
0.387523
0.356164
0.330642
0.316062
0.307146
0.302732
0.306049
3
2.99996
2.99991
2.9997
2.99941
2.99824
2.99658
2.99007
2.97979
2.94477
2.8701
2.68718
2.21741
1.41906
0.650567
0.367124
0.408778
0.431071
0.413586
0.386914
0.367261
0.359741
0.358846
0.363693
0.377741
3
2.99996
2.99992
2.99973
2.99947
2.99841
2.99691
2.99092
2.9819
2.94955
2.88733
2.72054
2.31262
1.55484
0.72351
0.398721
0.439443
0.461915
0.445819
0.424126
0.40986
0.408497
0.416969
0.436843
0.474535
3
2.99997
2.99993
2.99977
2.99954
2.99862
2.99728
2.99211
2.98408
2.95591
2.90249
2.75287
2.40819
1.68782
0.810053
0.448048
0.481617
0.496711
0.483659
0.46674
0.45816
0.462983
0.484844
0.531935
0.633932
2.99999
2.99994
2.99987
2.99957
2.99917
2.99751
2.99515
2.9859
2.97133
2.92186
2.81672
2.56125
1.95236
1.05085
0.433505
0.321337
0.343791
0.34519
0.314378
0.26234
0.210893
0.168315
0.126172
0.0791506
0.0444601
2.99999
2.99994
2.99987
2.99958
2.99918
2.99753
2.99521
2.98605
2.97164
2.92265
2.81839
2.56567
1.95956
1.06048
0.439754
0.322035
0.345029
0.346956
0.316439
0.265181
0.215019
0.174009
0.134212
0.092785
0.0685036
2.99999
2.99994
2.99987
2.99959
2.99919
2.99759
2.99531
2.98636
2.97226
2.9243
2.82191
2.57491
1.97534
1.08202
0.454264
0.324769
0.349105
0.352529
0.323098
0.274062
0.227089
0.189926
0.155636
0.123466
0.108273
2.99999
2.99994
2.99988
2.9996
2.99922
2.99767
2.99547
2.98683
2.9732
2.92679
2.82729
2.58898
1.99995
1.11617
0.476589
0.32888
0.355663
0.361712
0.334182
0.288411
0.245975
0.213834
0.185801
0.161689
0.151691
3
2.99995
2.99988
2.99962
2.99926
2.99779
2.9957
2.98756
2.97448
2.93058
2.83413
2.60759
2.03348
1.16409
0.506453
0.334005
0.364341
0.373952
0.348869
0.307206
0.269749
0.243261
0.221322
0.203557
0.1973
3
2.99995
2.99989
2.99965
2.99931
2.99794
2.99598
2.98846
2.97602
2.93537
2.8435
2.63115
2.07622
1.22716
0.543062
0.33949
0.374519
0.388791
0.366509
0.330026
0.298045
0.27724
0.261743
0.250183
0.247554
3
2.99996
2.9999
2.99968
2.99936
2.9981
2.99629
2.98935
2.97781
2.94034
2.85533
2.65795
2.13551
1.30993
0.589801
0.348566
0.388052
0.407
0.387523
0.356164
0.330642
0.316062
0.307146
0.302732
0.306049
3
2.99996
2.99991
2.9997
2.99941
2.99824
2.99658
2.99007
2.97979
2.94477
2.8701
2.68718
2.21741
1.41906
0.650567
0.367124
0.408778
0.43107
0.413586
0.386914
0.367261
0.359741
0.358846
0.363693
0.377741
3
2.99996
2.99992
2.99973
2.99947
2.99841
2.99691
2.99092
2.9819
2.94955
2.88733
2.72054
2.31262
1.55484
0.723509
0.398721
0.439443
0.461915
0.445819
0.424126
0.40986
0.408497
0.416969
0.436843
0.474535
3
2.99997
2.99993
2.99977
2.99954
2.99862
2.99728
2.99211
2.98408
2.95591
2.90249
2.75287
2.40819
1.68782
0.810052
0.448047
0.481617
0.496711
0.483658
0.46674
0.458159
0.462983
0.484844
0.531935
0.633932
2.99999
2.99994
2.99987
2.99957
2.99917
2.99751
2.99515
2.9859
2.97133
2.92186
2.81672
2.56125
1.95236
1.05085
0.433505
0.321337
0.343791
0.34519
0.314378
0.26234
0.210893
0.168315
0.126172
0.0791506
0.0444601
2.99999
2.99994
2.99987
2.99958
2.99918
2.99753
2.99521
2.98605
2.97164
2.92265
2.81839
2.56567
1.95956
1.06048
0.439754
0.322035
0.345029
0.346956
0.316439
0.265181
0.215019
0.174009
0.134212
0.092785
0.0685036
2.99999
2.99994
2.99987
2.99959
2.99919
2.99759
2.99531
2.98636
2.97226
2.9243
2.82191
2.57491
1.97534
1.08202
0.454264
0.324769
0.349105
0.352529
0.323098
0.274062
0.227089
0.189926
0.155636
0.123466
0.108273
2.99999
2.99994
2.99988
2.9996
2.99922
2.99767
2.99547
2.98683
2.9732
2.92679
2.82729
2.58898
1.99995
1.11617
0.476589
0.32888
0.355663
0.361712
0.334182
0.288411
0.245976
0.213834
0.185801
0.161689
0.151691
3
2.99995
2.99988
2.99962
2.99926
2.99779
2.9957
2.98756
2.97448
2.93058
2.83413
2.60759
2.03348
1.16409
0.506452
0.334005
0.364341
0.373952
0.348869
0.307206
0.269749
0.243261
0.221322
0.203557
0.1973
3
2.99995
2.99989
2.99965
2.99931
2.99794
2.99598
2.98846
2.97602
2.93537
2.8435
2.63115
2.07622
1.22716
0.543062
0.33949
0.374519
0.388791
0.366509
0.330026
0.298045
0.27724
0.261743
0.250183
0.247554
3
2.99996
2.9999
2.99968
2.99936
2.9981
2.99629
2.98935
2.97781
2.94034
2.85533
2.65795
2.1355
1.30993
0.589801
0.348567
0.388052
0.407
0.387523
0.356164
0.330642
0.316062
0.307146
0.302732
0.306049
3
2.99996
2.99991
2.9997
2.99941
2.99824
2.99658
2.99007
2.97979
2.94477
2.8701
2.68718
2.21741
1.41906
0.650566
0.367124
0.408778
0.43107
0.413586
0.386914
0.367261
0.359741
0.358846
0.363693
0.377741
3
2.99996
2.99992
2.99973
2.99947
2.99841
2.99691
2.99092
2.9819
2.94955
2.88733
2.72054
2.31261
1.55484
0.723509
0.39872
0.439443
0.461915
0.445819
0.424126
0.40986
0.408497
0.416969
0.436843
0.474535
3
2.99997
2.99993
2.99977
2.99954
2.99862
2.99728
2.99211
2.98408
2.95591
2.90249
2.75287
2.40818
1.68782
0.810051
0.448047
0.481617
0.496711
0.483658
0.46674
0.458159
0.462983
0.484844
0.531935
0.633932
2.99999
2.99994
2.99987
2.99957
2.99917
2.99751
2.99515
2.9859
2.97133
2.92186
2.81672
2.56125
1.95236
1.05085
0.433505
0.321337
0.343791
0.34519
0.314378
0.26234
0.210893
0.168315
0.126172
0.0791506
0.0444601
2.99999
2.99994
2.99987
2.99958
2.99918
2.99753
2.99521
2.98605
2.97164
2.92265
2.81839
2.56567
1.95956
1.06048
0.439754
0.322035
0.345029
0.346956
0.316439
0.265181
0.215019
0.174009
0.134212
0.092785
0.0685036
2.99999
2.99994
2.99987
2.99959
2.99919
2.99759
2.99531
2.98636
2.97226
2.9243
2.82191
2.57491
1.97534
1.08202
0.454264
0.324769
0.349105
0.352529
0.323098
0.274062
0.227089
0.189926
0.155636
0.123466
0.108273
2.99999
2.99994
2.99988
2.9996
2.99922
2.99767
2.99547
2.98683
2.9732
2.92679
2.82729
2.58898
1.99995
1.11617
0.476589
0.32888
0.355663
0.361712
0.334182
0.288411
0.245976
0.213834
0.185801
0.161689
0.151691
3
2.99995
2.99988
2.99962
2.99926
2.99779
2.9957
2.98756
2.97448
2.93058
2.83413
2.60759
2.03348
1.16409
0.506452
0.334005
0.364341
0.373952
0.348869
0.307206
0.269749
0.243261
0.221322
0.203557
0.1973
3
2.99995
2.99989
2.99965
2.99931
2.99794
2.99598
2.98846
2.97602
2.93537
2.8435
2.63115
2.07622
1.22716
0.543062
0.33949
0.374519
0.388791
0.366509
0.330026
0.298045
0.27724
0.261743
0.250183
0.247554
3
2.99996
2.9999
2.99968
2.99936
2.9981
2.99629
2.98935
2.97781
2.94034
2.85533
2.65795
2.1355
1.30993
0.5898
0.348567
0.388052
0.407
0.387523
0.356164
0.330642
0.316062
0.307146
0.302732
0.306049
3
2.99996
2.99991
2.9997
2.99941
2.99824
2.99658
2.99007
2.97979
2.94477
2.8701
2.68718
2.21741
1.41906
0.650566
0.367124
0.408778
0.43107
0.413586
0.386914
0.367261
0.359741
0.358846
0.363693
0.377741
3
2.99996
2.99992
2.99973
2.99947
2.99841
2.99691
2.99092
2.9819
2.94955
2.88733
2.72054
2.31261
1.55484
0.723508
0.39872
0.439443
0.461915
0.445819
0.424126
0.40986
0.408497
0.416969
0.436843
0.474535
3
2.99997
2.99993
2.99977
2.99954
2.99862
2.99728
2.99211
2.98408
2.95591
2.90249
2.75287
2.40818
1.68782
0.810051
0.448047
0.481617
0.496711
0.483658
0.46674
0.458159
0.462983
0.484844
0.531935
0.633932
2.99999
2.99994
2.99987
2.99957
2.99917
2.99751
2.99515
2.9859
2.97133
2.92186
2.81672
2.56125
1.95236
1.05085
0.433505
0.321337
0.343791
0.34519
0.314378
0.26234
0.210893
0.168315
0.126172
0.0791506
0.0444601
2.99999
2.99994
2.99987
2.99958
2.99918
2.99753
2.99521
2.98605
2.97164
2.92265
2.81839
2.56567
1.95956
1.06048
0.439754
0.322035
0.345029
0.346956
0.316439
0.265181
0.215019
0.174009
0.134212
0.092785
0.0685036
2.99999
2.99994
2.99987
2.99959
2.99919
2.99759
2.99531
2.98636
2.97226
2.9243
2.82191
2.57491
1.97534
1.08202
0.454264
0.324769
0.349105
0.352529
0.323098
0.274062
0.227089
0.189926
0.155636
0.123466
0.108273
2.99999
2.99994
2.99988
2.9996
2.99922
2.99767
2.99547
2.98683
2.9732
2.92679
2.82729
2.58898
1.99995
1.11617
0.476589
0.32888
0.355663
0.361712
0.334182
0.288411
0.245976
0.213834
0.185801
0.161689
0.151691
3
2.99995
2.99988
2.99962
2.99926
2.99779
2.9957
2.98756
2.97448
2.93058
2.83413
2.60759
2.03348
1.16409
0.506453
0.334005
0.364341
0.373952
0.348869
0.307206
0.269749
0.243261
0.221322
0.203557
0.1973
3
2.99995
2.99989
2.99965
2.99931
2.99794
2.99598
2.98846
2.97602
2.93537
2.8435
2.63115
2.07622
1.22716
0.543062
0.33949
0.374519
0.388791
0.366509
0.330026
0.298045
0.27724
0.261743
0.250183
0.247554
3
2.99996
2.9999
2.99968
2.99936
2.9981
2.99629
2.98935
2.97781
2.94034
2.85533
2.65795
2.1355
1.30993
0.589801
0.348566
0.388052
0.407
0.387523
0.356164
0.330642
0.316062
0.307146
0.302732
0.306049
3
2.99996
2.99991
2.9997
2.99941
2.99824
2.99658
2.99007
2.97979
2.94477
2.8701
2.68718
2.21741
1.41906
0.650566
0.367124
0.408778
0.43107
0.413586
0.386914
0.367261
0.359741
0.358846
0.363693
0.377741
3
2.99996
2.99992
2.99973
2.99947
2.99841
2.99691
2.99092
2.9819
2.94955
2.88733
2.72054
2.31262
1.55484
0.723509
0.398721
0.439443
0.461915
0.445819
0.424126
0.40986
0.408497
0.416969
0.436843
0.474535
3
2.99997
2.99993
2.99977
2.99954
2.99862
2.99728
2.99211
2.98408
2.95591
2.90249
2.75287
2.40819
1.68782
0.810052
0.448047
0.481617
0.496711
0.483658
0.46674
0.458159
0.462983
0.484844
0.531935
0.633932
2.99999
2.99994
2.99987
2.99957
2.99917
2.99751
2.99515
2.9859
2.97133
2.92186
2.81672
2.56125
1.95236
1.05085
0.433506
0.321337
0.343791
0.34519
0.314378
0.26234
0.210893
0.168315
0.126172
0.0791506
0.0444601
2.99999
2.99994
2.99987
2.99958
2.99918
2.99753
2.99521
2.98605
2.97164
2.92265
2.81839
2.56567
1.95956
1.06048
0.439755
0.322035
0.345029
0.346956
0.316439
0.265181
0.215019
0.174009
0.134212
0.092785
0.0685036
2.99999
2.99994
2.99987
2.99959
2.99919
2.99759
2.99531
2.98636
2.97226
2.9243
2.82191
2.57491
1.97534
1.08202
0.454265
0.324769
0.349105
0.352529
0.323098
0.274062
0.227089
0.189926
0.155636
0.123466
0.108273
2.99999
2.99994
2.99988
2.9996
2.99922
2.99767
2.99547
2.98683
2.9732
2.92679
2.82729
2.58898
1.99995
1.11617
0.476589
0.328879
0.355663
0.361712
0.334182
0.288411
0.245975
0.213834
0.185801
0.161689
0.151691
3
2.99995
2.99988
2.99962
2.99926
2.99779
2.9957
2.98756
2.97448
2.93058
2.83413
2.60759
2.03348
1.16409
0.506453
0.334005
0.364341
0.373952
0.348869
0.307206
0.269749
0.243261
0.221322
0.203557
0.1973
3
2.99995
2.99989
2.99965
2.99931
2.99794
2.99598
2.98846
2.97602
2.93537
2.8435
2.63115
2.07622
1.22716
0.543063
0.33949
0.374519
0.388791
0.366509
0.330026
0.298045
0.27724
0.261743
0.250183
0.247554
3
2.99996
2.9999
2.99968
2.99936
2.9981
2.99629
2.98935
2.97781
2.94034
2.85533
2.65795
2.13551
1.30993
0.589802
0.348566
0.388052
0.407
0.387523
0.356164
0.330642
0.316062
0.307146
0.302732
0.306049
3
2.99996
2.99991
2.9997
2.99941
2.99824
2.99658
2.99007
2.97979
2.94477
2.8701
2.68718
2.21741
1.41906
0.650567
0.367124
0.408778
0.431071
0.413586
0.386914
0.367261
0.359741
0.358846
0.363693
0.377741
3
2.99996
2.99992
2.99973
2.99947
2.99841
2.99691
2.99092
2.9819
2.94955
2.88733
2.72054
2.31262
1.55484
0.72351
0.398721
0.439443
0.461915
0.445819
0.424126
0.40986
0.408497
0.416969
0.436843
0.474535
3
2.99997
2.99993
2.99977
2.99954
2.99862
2.99728
2.99211
2.98408
2.95591
2.90249
2.75287
2.40819
1.68782
0.810052
0.448048
0.481617
0.496711
0.483659
0.46674
0.45816
0.462983
0.484844
0.531935
0.633932
2.99999
2.99994
2.99987
2.99957
2.99917
2.99751
2.99515
2.9859
2.97133
2.92186
2.81672
2.56125
1.95237
1.05086
0.433509
0.321336
0.34379
0.34519
0.314378
0.26234
0.210893
0.168315
0.126172
0.0791505
0.0444601
2.99999
2.99994
2.99987
2.99958
2.99918
2.99753
2.99521
2.98605
2.97164
2.92265
2.81839
2.56568
1.95957
1.06048
0.439758
0.322033
0.345028
0.346956
0.316439
0.265181
0.215019
0.174009
0.134212
0.0927849
0.0685036
2.99999
2.99994
2.99987
2.99959
2.99919
2.99759
2.99531
2.98636
2.97226
2.9243
2.82191
2.57492
1.97535
1.08203
0.454268
0.324767
0.349104
0.352529
0.323098
0.274062
0.227089
0.189926
0.155636
0.123466
0.108273
2.99999
2.99994
2.99988
2.9996
2.99922
2.99767
2.99547
2.98683
2.9732
2.92679
2.82729
2.58899
1.99995
1.11617
0.476593
0.328878
0.355663
0.361712
0.334182
0.288411
0.245975
0.213834
0.185801
0.161689
0.15169
3
2.99995
2.99988
2.99962
2.99926
2.99779
2.9957
2.98756
2.97448
2.93058
2.83413
2.60759
2.03349
1.1641
0.506457
0.334004
0.36434
0.373952
0.348869
0.307206
0.269749
0.24326
0.221322
0.203557
0.1973
3
2.99995
2.99989
2.99965
2.99931
2.99794
2.99598
2.98846
2.97602
2.93537
2.8435
2.63115
2.07623
1.22717
0.543066
0.339488
0.374519
0.388791
0.366509
0.330026
0.298044
0.27724
0.261743
0.250182
0.247554
3
2.99996
2.9999
2.99968
2.99936
2.9981
2.99629
2.98935
2.97781
2.94034
2.85534
2.65795
2.13551
1.30994
0.589806
0.348566
0.388052
0.407
0.387523
0.356164
0.330642
0.316062
0.307146
0.302732
0.306049
3
2.99996
2.99991
2.9997
2.99941
2.99824
2.99658
2.99007
2.97979
2.94477
2.8701
2.68718
2.21742
1.41908
0.650573
0.367124
0.408779
0.431071
0.413586
0.386914
0.367261
0.359741
0.358846
0.363693
0.37774
3
2.99996
2.99992
2.99973
2.99947
2.99841
2.99691
2.99092
2.9819
2.94955
2.88733
2.72055
2.31262
1.55485
0.723515
0.398723
0.439445
0.461916
0.44582
0.424127
0.40986
0.408497
0.416969
0.436843
0.474535
3
2.99997
2.99993
2.99977
2.99954
2.99862
2.99728
2.99211
2.98408
2.95591
2.90249
2.75287
2.40819
1.68783
0.810059
0.44805
0.481619
0.496712
0.48366
0.466741
0.45816
0.462983
0.484844
0.531935
0.633932
3.00001
2.99996
2.99988
2.99959
2.99919
2.99753
2.99517
2.98592
2.97136
2.92189
2.81675
2.56133
1.95243
1.05099
0.433684
0.321516
0.343966
0.345372
0.314581
0.262587
0.211205
0.168712
0.126709
0.080018
0.0460104
3.00001
2.99996
2.99989
2.9996
2.9992
2.99755
2.99523
2.98607
2.97166
2.92269
2.81842
2.56575
1.95964
1.06062
0.439929
0.322211
0.345202
0.347135
0.316638
0.265422
0.215321
0.174388
0.13471
0.0935156
0.0695045
3.00001
2.99996
2.99989
2.99961
2.99921
2.99761
2.99533
2.98638
2.97228
2.92433
2.82194
2.57499
1.97541
1.08216
0.454433
0.324941
0.349274
0.352703
0.323291
0.274291
0.22737
0.190268
0.15606
0.124007
0.108899
3.00001
2.99996
2.99989
2.99962
2.99924
2.99769
2.99549
2.98685
2.97323
2.92682
2.82732
2.58906
2.00002
1.11631
0.476752
0.329048
0.355828
0.361881
0.334366
0.288626
0.246231
0.214132
0.18615
0.162095
0.15213
3.00001
2.99996
2.9999
2.99964
2.99928
2.99781
2.99572
2.98759
2.9745
2.93063
2.83415
2.60766
2.03354
1.16422
0.506599
0.334162
0.364496
0.37411
0.349041
0.307403
0.269978
0.243517
0.221608
0.203873
0.19763
3.00002
2.99997
2.99991
2.99967
2.99933
2.99796
2.996
2.98849
2.97604
2.93541
2.84354
2.63123
2.07631
1.22732
0.543211
0.339651
0.374674
0.388945
0.366671
0.330207
0.298247
0.277461
0.261978
0.250433
0.247811
3.00002
2.99997
2.99992
2.99969
2.99938
2.99812
2.99631
2.98938
2.97784
2.94037
2.85537
2.65803
2.13561
1.3101
0.589947
0.348732
0.388209
0.407152
0.387679
0.356332
0.330822
0.316251
0.307342
0.302932
0.30625
3.00002
2.99998
2.99993
2.99972
2.99943
2.99826
2.9966
2.9901
2.97981
2.94482
2.87012
2.68725
2.21748
1.41922
0.650691
0.367279
0.408927
0.431214
0.413732
0.387068
0.367422
0.359904
0.359008
0.363854
0.377897
3.00002
2.99998
2.99994
2.99975
2.99949
2.99843
2.99693
2.99094
2.98192
2.94958
2.88736
2.72061
2.3127
1.55501
0.723631
0.398878
0.439586
0.462049
0.445955
0.424266
0.410003
0.408638
0.417105
0.436971
0.474652
3.00002
2.99999
2.99995
2.99979
2.99955
2.99864
2.9973
2.99213
2.98411
2.95594
2.90253
2.75293
2.40826
1.68795
0.810176
0.448199
0.481743
0.496831
0.483782
0.466866
0.458286
0.463105
0.484958
0.532035
0.634012
3.00002
3
2.99994
2.99986
2.99953
2.99906
2.99721
2.99442
2.98442
2.96628
2.91188
2.78104
2.49606
1.83113
0.929382
0.509689
0.520121
0.528562
0.524732
0.512587
0.509314
0.52248
0.562217
0.645998
0.813193
3.00002
3
2.99995
2.99988
2.99958
2.99917
2.99747
2.99508
2.98559
2.97087
2.92049
2.81527
2.55553
1.95337
1.07212
0.589708
0.545404
0.55662
0.56202
0.557679
0.560806
0.582809
0.63599
0.734125
0.898777
3.00002
3.00001
2.99996
2.9999
2.99965
2.9993
2.99786
2.99582
2.9879
2.9752
2.93264
2.83957
2.62087
2.06678
1.22554
0.673774
0.56361
0.578748
0.594116
0.599781
0.610171
0.638923
0.696674
0.789242
0.923031
3.00002
3.00001
2.99997
2.99992
2.99971
2.99942
2.99822
2.99651
2.99001
2.97918
2.94417
2.8651
2.68109
2.19307
1.40758
0.766684
0.583402
0.600768
0.621437
0.637594
0.655492
0.687881
0.742993
0.823588
0.934182
3.00002
3.00001
2.99998
2.99994
2.99976
2.99951
2.99851
2.99706
2.99141
2.98269
2.95206
2.89293
2.73213
2.35218
1.60594
0.885618
0.625609
0.634
0.652124
0.672557
0.695211
0.729504
0.781975
0.850686
0.942831
3.00002
3.00001
3
2.99994
2.99986
2.99953
2.99906
2.99723
2.99445
2.98458
2.96652
2.9132
2.78431
2.50564
1.87022
1.03532
0.691209
0.678994
0.691951
0.710998
0.732217
0.764361
0.814288
0.876782
0.953036
3.00002
3.00001
3
2.99995
2.99989
2.99961
2.99923
2.99767
2.99547
2.98677
2.9733
2.92712
2.83051
2.59637
2.03205
1.20376
0.768446
0.713655
0.727075
0.745207
0.767669
0.796629
0.839903
0.898242
0.965917
3.00002
3.00002
3.00001
2.99997
2.99992
2.99971
2.99942
2.99825
2.99651
2.9902
2.97902
2.94465
2.86402
2.68059
2.19172
1.41424
0.873429
0.742331
0.752998
0.771525
0.797714
0.827822
0.86468
0.914968
0.976162
3.00002
3.00002
3.00001
2.99999
2.99993
2.99984
2.99947
2.99893
2.99699
2.99352
2.98292
2.9587
2.89926
2.73675
2.41686
1.66951
1.02638
0.791028
0.783428
0.798068
0.823723
0.855032
0.890384
0.932086
0.984904
3.00002
3.00002
3.00001
3
2.99995
2.99987
2.99958
2.99916
2.99747
2.99502
2.98572
2.97045
2.9211
2.81279
2.55849
1.97807
1.18873
0.859593
0.823011
0.833077
0.854089
0.881887
0.914236
0.950548
0.994317
3.00003
3.00002
3.00002
3
2.99998
2.99989
2.99976
2.99927
2.99852
2.99586
2.99106
2.97659
2.94307
2.86248
2.64073
2.22069
1.37514
0.952583
0.854474
0.861273
0.880899
0.906737
0.935416
0.968006
1.00484
3.00003
3.00002
3.00002
3.00001
2.99999
2.99992
2.99982
2.99943
2.99886
2.99662
2.9933
2.98133
2.95951
2.89578
2.73887
2.41444
1.69518
1.1011
0.903658
0.892872
0.905697
0.928858
0.955244
0.983465
1.01532
3.00003
3.00003
3.00002
3.00002
3
2.99996
2.99984
2.99966
2.99897
2.99794
2.99408
2.98797
2.96702
2.92799
2.81544
2.57586
1.99848
1.27613
0.973563
0.926675
0.932868
0.950466
0.974986
0.999116
1.02498
3.00003
3.00003
3.00002
3.00002
3
2.99998
2.99989
2.99977
2.99926
2.99854
2.99575
2.99152
2.97659
2.94898
2.87088
2.6801
2.28404
1.51355
1.08735
0.964202
0.959417
0.969815
0.989862
1.01154
1.02973
3.00003
3.00003
3.00003
3.00002
3.00001
2.99999
2.99995
2.9998
2.99958
2.99874
2.99749
2.99285
2.98543
2.96054
2.91264
2.78232
2.48933
1.85993
1.23479
1.0174
0.989523
0.993073
1.0051
1.01932
1.02833
3.00003
3.00003
3.00003
3.00002
3.00002
3
2.99997
2.99987
2.99971
2.99911
2.99825
2.9949
2.98987
2.97183
2.93981
2.84747
2.63735
2.16794
1.42968
1.091
1.019
1.01314
1.01686
1.02154
1.01796
3.00003
3.00003
3.00003
3.00003
3.00002
3.00001
2.99998
2.99994
2.99976
2.99951
2.99853
2.99709
2.99167
2.9831
2.95452
2.89647
2.75071
2.3966
1.73378
1.21282
1.0513
1.02974
1.02389
1.01598
1.00033
3.00003
3.00003
3.00003
3.00003
3.00002
3.00002
3
2.99996
2.99984
2.99967
2.99898
2.99798
2.99419
2.98836
2.96786
2.93204
2.82202
2.60692
2.04949
1.4036
1.11104
1.04256
1.01953
0.999015
0.972934
3.00003
3.00003
3.00003
3.00003
3.00003
3.00002
3.00001
2.99998
2.99993
2.99974
2.99946
2.99841
2.99681
2.99115
2.98129
2.95101
2.88281
2.72559
2.33009
1.64479
1.20711
1.05326
0.999027
0.964658
0.932017
3.00003
3.00003
3.00003
3.00003
3.00003
3.00002
3.00001
3
2.99994
2.99986
2.99955
2.9991
2.99737
2.99476
2.98536
2.96943
2.92052
2.8139
2.56338
2.03137
1.35037
1.06301
0.96435
0.917287
0.88861
3.00003
3.00003
3.00003
3.00003
3.00003
3.00003
3.00002
3.00001
2.99997
2.99991
2.9997
2.99938
2.99817
2.99639
2.98987
2.97885
2.94428
2.86672
2.68897
2.23314
1.52777
1.07059
0.898768
0.847247
0.836625
3.00003
3.00003
3.00003
3.00003
3.00003
3.00003
3.00002
3.00001
2.99999
2.99993
2.99983
2.99946
2.99892
2.99687
2.9937
2.98263
2.96261
2.90352
2.76522
2.4635
1.82723
1.12161
0.82248
0.768771
0.780525
3.00003
3.00003
3.00003
3.00003
3.00003
3.00003
3.00002
3.00001
3
2.99995
2.99987
2.99957
2.99914
2.9974
2.99495
2.98522
2.97025
2.91869
2.81523
2.5502
1.97281
1.1528
0.722383
0.661262
0.705516
3.00003
3.00003
3.00003
3.00003
3.00003
3.00003
3.00003
3.00002
3.00001
2.99996
2.9999
2.99965
2.9993
2.99787
2.99583
2.98773
2.97506
2.93097
2.83768
2.60916
2.04715
1.20506
0.629784
0.531718
0.612559
3.00003
3.00003
3.00003
3.00003
3.00003
3.00003
3.00003
3.00002
3.00001
2.99997
2.99992
2.99971
2.99941
2.99823
2.9964
2.98989
2.97762
2.9412
2.85051
2.64844
2.08968
1.25353
0.565662
0.407098
0.519263
3.00003
3.00003
3.00003
3.00003
3.00003
3.00003
3.00003
3.00002
3.00001
2.99999
2.99992
2.99982
2.99945
2.99875
2.99667
2.99175
2.97933
2.94579
2.87067
2.6389
2.20514
1.2717
0.556031
0.327264
0.457191
3.00003
3.00003
3.00003
3.00003
3.00003
3.00003
3.00003
3.00002
3.00001
2.99999
2.99994
2.99978
2.99952
2.99859
2.99696
2.99183
2.98036
2.95035
2.8695
2.69469
2.18721
1.37454
0.553031
0.271977
0.414347
3.00003
3.00003
3.00003
3.00003
3.00003
3.00003
3.00003
3.00002
3.00001
3
2.99993
2.99984
2.99947
2.99889
2.99686
2.99299
2.98143
2.95324
2.8849
2.68603
2.29858
1.41768
0.599873
0.270893
0.405835
3.00003
3.00003
3.00003
3.00003
3.00003
3.00003
3.00003
3.00002
3.00001
3
2.99993
2.99984
2.99948
2.99895
2.99696
2.99345
2.98242
2.95676
2.89259
2.71141
2.34983
1.51503
0.644725
0.273111
0.405856
3.00003
3.00003
3.00003
3.00003
3.00003
3.00003
3.00003
3.00002
3.00002
2.99999
2.99995
2.9998
2.99958
2.99873
2.99738
2.99262
2.98367
2.95653
2.89144
2.73797
2.33537
1.57629
0.639721
0.250756
0.392884
3.00003
3.00003
3.00003
3.00003
3.00003
3.00003
3.00003
3.00002
3.00001
3
2.99994
2.99986
2.99954
2.99903
2.99727
2.99386
2.98393
2.95994
2.90191
2.73728
2.41068
1.6464
0.706218
0.28558
0.40517
3.00003
3.00003
3.00003
3.00003
3.00003
3.00003
3.00003
3.00002
3.00002
2.99999
2.99995
2.9998
2.99959
2.99872
2.99745
2.99249
2.98462
2.95728
2.90202
2.75539
2.39265
1.66943
0.702828
0.280375
0.393123
3.00003
3.00003
3.00003
3.00003
3.00003
3.00003
3.00003
3.00002
3.00002
2.99999
2.99996
2.99981
2.9996
2.99876
2.99752
2.99269
2.98509
2.95849
2.9055
2.76297
2.41153
1.6992
0.72374
0.28986
0.386823
3.00003
3.00003
3.00003
3.00003
3.00003
3.00003
3.00003
3.00002
3.00002
3
2.99995
2.99987
2.99956
2.99908
2.99739
2.99431
2.98492
2.96322
2.90889
2.76143
2.46066
1.74569
0.805707
0.341686
0.409829
3.00003
3.00003
3.00003
3.00003
3.00003
3.00003
3.00003
3.00002
3.00002
2.99999
2.99996
2.99983
2.99963
2.99887
2.99768
2.99349
2.98577
2.96226
2.90697
2.77634
2.42954
1.7561
0.778045
0.329526
0.392252
3.00003
3.00003
3.00003
3.00003
3.00003
3.00003
3.00003
3.00002
3.00002
3
2.99995
2.99987
2.99957
2.99911
2.99744
2.99453
2.98532
2.96507
2.91214
2.7728
2.48081
1.78748
0.857439
0.37709
0.415
3.00003
3.00003
3.00003
3.00003
3.00003
3.00003
3.00003
3.00002
3.00002
2.99999
2.99996
2.99983
2.99964
2.99888
2.99776
2.99354
2.9864
2.96306
2.91158
2.78421
2.45072
1.79915
0.815381
0.357063
0.389491
3.00003
3.00003
3.00003
3.00003
3.00003
3.00003
3.00003
3.00002
3.00002
3
2.99996
2.99983
2.99965
2.99891
2.99781
2.99377
2.98669
2.96435
2.91291
2.78971
2.45783
1.81886
0.82836
0.363874
0.384527
3.00003
3.00003
3.00003
3.00003
3.00003
3.00003
3.00003
3.00002
3.00001
3
2.99995
2.99987
2.99955
2.99909
2.99729
2.99456
2.98462
2.96695
2.9125
2.7846
2.49422
1.82691
0.904265
0.402463
0.411518
3.00003
3.00003
3.00003
3.00003
3.00003
3.00003
3.00003
3.00002
3.00001
3
2.99994
2.99986
2.99954
2.99908
2.99722
2.99456
2.98418
2.96737
2.9119
2.78962
2.50053
1.838
0.90988
0.400063
0.407658
3
2.99998
2.99992
2.99984
2.99951
2.99904
2.99719
2.99439
2.98439
2.96625
2.91185
2.781
2.49599
1.83102
0.929221
0.509534
0.520008
0.528455
0.524624
0.512476
0.509203
0.522375
0.562123
0.645921
0.813142
3
2.99998
2.99993
2.99986
2.99956
2.99915
2.99745
2.99506
2.98557
2.97084
2.92045
2.81524
2.55545
1.95328
1.07197
0.589573
0.545305
0.556523
0.561922
0.557578
0.560707
0.582716
0.635908
0.734059
0.898729
3
2.99999
2.99994
2.99988
2.99963
2.99928
2.99784
2.9958
2.98788
2.97518
2.9326
2.83954
2.6208
2.06671
1.22539
0.673655
0.56352
0.578658
0.594026