/*--------------------------------*- C++ -*----------------------------------*\
| =========                 |                                                 |
| \\      /  F ield         | OpenFOAM: The Open Source CFD Toolbox           |
|  \\    /   O peration     | Version:  4.1                                   |
|   \\  /    A nd           | Web:      www.OpenFOAM.org                      |
|    \\/     M anipulation  |                                                 |
\*---------------------------------------------------------------------------*/
FoamFile
{
    version     2.0;
    format      ascii;
    class       volScalarField;
    location    "8.52";
    object      p;
}
// * * * * * * * * * * * * * * * * * * * * * * * * * * * * * * * * * * * * * //

dimensions      [1 -1 -2 0 0 0 0];

internalField   nonuniform List<scalar> 
52500
(
1.00001
1.00004
1.00013
1.00028
1.00082
1.00168
1.00478
1.00956
1.02854
1.05324
1.1825
1.34292
2.24852
4.04782
9.82852
11.4082
11.236
11.1414
11.2208
11.4383
11.6742
11.8276
11.9445
12.0381
12.1116
1.00001
1.00004
1.00013
1.00028
1.00081
1.00166
1.00473
1.00945
1.02825
1.05263
1.18083
1.33859
2.23661
4.01354
9.74737
11.4014
11.2275
11.1292
11.2095
11.428
11.6637
11.8171
11.9358
12.0309
12.106
1.00001
1.00004
1.00013
1.00027
1.00079
1.00162
1.00463
1.00924
1.02765
1.05139
1.17731
1.32972
2.21107
3.94031
9.567
11.3862
11.2058
11.0953
11.1746
11.3911
11.6236
11.774
11.8917
11.9856
12.0598
1.00001
1.00003
1.00012
1.00026
1.00076
1.00157
1.00447
1.00891
1.02673
1.04951
1.17192
1.3164
2.17187
3.82879
9.28523
11.368
11.1743
11.0405
11.1166
11.327
11.5533
11.698
11.8115
11.9021
11.976
1.00001
1.00003
1.00012
1.00025
1.00072
1.00149
1.00424
1.00842
1.02552
1.04655
1.1652
1.29838
2.11951
3.67946
8.8979
11.3498
11.1342
10.9667
11.038
11.2394
11.4565
11.5926
11.6998
11.786
11.86
1.00001
1.00003
1.00011
1.00023
1.00068
1.00139
1.00397
1.00782
1.02402
1.04311
1.15591
1.27635
2.0566
3.48943
8.40078
11.3357
11.0866
10.8739
10.9382
11.1264
11.3305
11.4538
11.5495
11.6269
11.7009
1.00001
1.00003
1.0001
1.00022
1.00063
1.00128
1.00367
1.00722
1.02223
1.03973
1.14413
1.25287
1.97318
3.26371
7.78509
11.3306
11.0366
10.7648
10.8199
10.9888
11.1735
11.2766
11.3527
11.4114
11.4771
1.00001
1.00003
1.00009
1.0002
1.00058
1.00118
1.00337
1.00672
1.02016
1.03714
1.12916
1.23094
1.86282
3.00946
7.04441
11.3254
10.988
10.6427
10.6857
10.8279
10.9843
11.0565
11.0984
11.119
11.1569
1
1.00002
1.00008
1.00018
1.00052
1.00107
1.00304
1.00615
1.01787
1.03476
1.11141
1.2085
1.74119
2.73356
6.20016
11.2853
10.9299
10.5145
10.5395
10.6424
10.7593
10.7873
10.7743
10.7171
10.6597
1
1.00002
1.00007
1.00016
1.00046
1.00094
1.00267
1.00539
1.01561
1.03071
1.09569
1.18478
1.62621
2.46931
5.3674
11.0849
10.8079
10.3978
10.3831
10.4331
10.4934
10.47
10.3738
10.1535
9.82041
1.00001
1.00004
1.00013
1.00029
1.00083
1.00169
1.00479
1.00957
1.02855
1.05327
1.18252
1.343
2.2486
4.04816
9.82918
11.4083
11.2361
11.1415
11.221
11.4384
11.6743
11.8278
11.9447
12.0382
12.1118
1.00001
1.00004
1.00013
1.00029
1.00082
1.00167
1.00474
1.00946
1.02826
1.05266
1.18085
1.33867
2.23668
4.01388
9.74804
11.4015
11.2276
11.1293
11.2096
11.4281
11.6638
11.8173
11.9359
12.031
12.1062
1.00001
1.00004
1.00013
1.00028
1.0008
1.00163
1.00463
1.00925
1.02766
1.05141
1.17733
1.3298
2.21115
3.94065
9.56767
11.3862
11.2059
11.0954
11.1747
11.3912
11.6237
11.7741
11.8918
11.9857
12.06
1.00001
1.00004
1.00013
1.00027
1.00077
1.00158
1.00447
1.00892
1.02674
1.04954
1.17193
1.31648
2.17195
3.82913
9.28591
11.368
11.1744
11.0406
11.1167
11.3271
11.5535
11.6981
11.8116
11.9023
11.9762
1.00001
1.00004
1.00012
1.00026
1.00073
1.00149
1.00425
1.00843
1.02554
1.04658
1.1652
1.29847
2.11957
3.67979
8.89859
11.3498
11.1343
10.9668
11.0381
11.2395
11.4566
11.5927
11.6999
11.7861
11.8601
1.00001
1.00003
1.00011
1.00024
1.00068
1.00139
1.00397
1.00783
1.02403
1.04313
1.15594
1.27641
2.05669
3.48976
8.40151
11.3357
11.0866
10.874
10.9383
11.1265
11.3306
11.4539
11.5497
11.6271
11.7011
1.00001
1.00003
1.0001
1.00022
1.00063
1.00129
1.00368
1.00723
1.02224
1.03975
1.14416
1.25293
1.97328
3.26405
7.78586
11.3306
11.0367
10.7649
10.82
10.9889
11.1736
11.2767
11.3528
11.4115
11.4773
1.00001
1.00003
1.00009
1.0002
1.00058
1.00119
1.00338
1.00673
1.02017
1.03717
1.12917
1.23103
1.86287
3.00977
7.04516
11.3254
10.9881
10.6428
10.6858
10.828
10.9844
11.0566
11.0985
11.1191
11.157
1.00001
1.00003
1.00009
1.00019
1.00053
1.00108
1.00305
1.00616
1.01788
1.03478
1.11143
1.20856
1.74127
2.73384
6.20089
11.2854
10.93
10.5146
10.5396
10.6425
10.7594
10.7874
10.7744
10.7172
10.6598
1.00001
1.00002
1.00007
1.00016
1.00046
1.00095
1.00267
1.0054
1.01562
1.03073
1.09571
1.18482
1.62628
2.46952
5.36785
11.0853
10.8081
10.3979
10.3832
10.4332
10.4935
10.4701
10.3739
10.1536
9.82051
1.00001
1.00004
1.00013
1.00029
1.00083
1.00169
1.00479
1.00957
1.02855
1.05327
1.18252
1.34301
2.24861
4.04818
9.82924
11.4083
11.2361
11.1415
11.221
11.4384
11.6744
11.8278
11.9447
12.0382
12.1118
1.00001
1.00004
1.00013
1.00029
1.00082
1.00167
1.00474
1.00946
1.02826
1.05266
1.18085
1.33867
2.23669
4.01391
9.74809
11.4015
11.2276
11.1293
11.2097
11.4281
11.6638
11.8173
11.9359
12.031
12.1062
1.00001
1.00004
1.00013
1.00028
1.0008
1.00163
1.00463
1.00925
1.02766
1.05141
1.17733
1.3298
2.21116
3.94067
9.56773
11.3862
11.2059
11.0954
11.1747
11.3912
11.6237
11.7741
11.8918
11.9857
12.06
1.00001
1.00004
1.00013
1.00027
1.00077
1.00158
1.00447
1.00892
1.02674
1.04954
1.17193
1.31648
2.17195
3.82915
9.28597
11.368
11.1744
11.0406
11.1168
11.3271
11.5535
11.6981
11.8116
11.9023
11.9762
1.00001
1.00004
1.00012
1.00026
1.00073
1.00149
1.00425
1.00843
1.02554
1.04658
1.1652
1.29847
2.11958
3.67981
8.89865
11.3498
11.1343
10.9668
11.0381
11.2396
11.4566
11.5927
11.6999
11.7861
11.8601
1.00001
1.00003
1.00011
1.00024
1.00068
1.00139
1.00397
1.00783
1.02403
1.04313
1.15594
1.27641
2.0567
3.48979
8.40157
11.3357
11.0866
10.874
10.9383
11.1265
11.3306
11.4539
11.5497
11.6271
11.7011
1.00001
1.00003
1.0001
1.00022
1.00063
1.00129
1.00368
1.00723
1.02224
1.03975
1.14416
1.25293
1.97329
3.26407
7.78593
11.3305
11.0367
10.7649
10.82
10.9889
11.1736
11.2767
11.3528
11.4115
11.4773
1.00001
1.00003
1.00009
1.0002
1.00058
1.00119
1.00338
1.00673
1.02017
1.03717
1.12917
1.23103
1.86288
3.00979
7.04524
11.3254
10.9881
10.6429
10.6858
10.828
10.9844
11.0566
11.0985
11.1191
11.157
1.00001
1.00003
1.00009
1.00019
1.00053
1.00108
1.00305
1.00616
1.01788
1.03478
1.11143
1.20856
1.74128
2.73386
6.20096
11.2854
10.93
10.5146
10.5396
10.6425
10.7594
10.7874
10.7744
10.7172
10.6598
1.00001
1.00002
1.00007
1.00016
1.00046
1.00095
1.00267
1.0054
1.01562
1.03073
1.09571
1.18482
1.62628
2.46953
5.36789
11.0853
10.8081
10.3979
10.3832
10.4332
10.4935
10.4701
10.3739
10.1536
9.82052
1.00001
1.00004
1.00013
1.00029
1.00083
1.00169
1.00479
1.00957
1.02855
1.05327
1.18252
1.34301
2.24861
4.04819
9.82924
11.4083
11.2361
11.1415
11.221
11.4384
11.6744
11.8278
11.9447
12.0382
12.1118
1.00001
1.00004
1.00013
1.00029
1.00082
1.00167
1.00474
1.00946
1.02826
1.05266
1.18085
1.33867
2.23669
4.01391
9.7481
11.4014
11.2276
11.1293
11.2097
11.4281
11.6638
11.8173
11.9359
12.031
12.1062
1.00001
1.00004
1.00013
1.00028
1.0008
1.00163
1.00463
1.00925
1.02766
1.05141
1.17733
1.3298
2.21116
3.94067
9.56773
11.3862
11.2059
11.0954
11.1747
11.3912
11.6237
11.7741
11.8918
11.9857
12.06
1.00001
1.00004
1.00013
1.00027
1.00077
1.00158
1.00447
1.00892
1.02674
1.04954
1.17193
1.31648
2.17196
3.82915
9.28598
11.368
11.1744
11.0406
11.1168
11.3271
11.5535
11.6981
11.8116
11.9023
11.9762
1.00001
1.00004
1.00012
1.00026
1.00073
1.00149
1.00425
1.00843
1.02554
1.04658
1.1652
1.29847
2.11958
3.67981
8.89866
11.3498
11.1343
10.9668
11.0381
11.2396
11.4566
11.5927
11.6999
11.7861
11.8601
1.00001
1.00003
1.00011
1.00024
1.00068
1.00139
1.00397
1.00783
1.02403
1.04313
1.15594
1.27641
2.0567
3.48979
8.40158
11.3357
11.0866
10.874
10.9383
11.1265
11.3306
11.4539
11.5497
11.6271
11.7011
1.00001
1.00003
1.0001
1.00022
1.00063
1.00129
1.00368
1.00723
1.02224
1.03975
1.14416
1.25293
1.97329
3.26407
7.78593
11.3305
11.0367
10.7649
10.82
10.9889
11.1736
11.2767
11.3528
11.4115
11.4773
1.00001
1.00003
1.00009
1.0002
1.00058
1.00119
1.00338
1.00673
1.02017
1.03717
1.12917
1.23103
1.86288
3.0098
7.04524
11.3254
10.9881
10.6429
10.6858
10.828
10.9844
11.0566
11.0985
11.1191
11.157
1.00001
1.00003
1.00009
1.00019
1.00053
1.00108
1.00305
1.00616
1.01788
1.03478
1.11143
1.20856
1.74128
2.73386
6.20097
11.2854
10.93
10.5146
10.5396
10.6425
10.7594
10.7874
10.7744
10.7172
10.6598
1.00001
1.00002
1.00007
1.00016
1.00046
1.00095
1.00267
1.0054
1.01562
1.03073
1.09571
1.18482
1.62629
2.46954
5.3679
11.0853
10.8081
10.3979
10.3832
10.4332
10.4935
10.4701
10.3739
10.1536
9.82052
1.00001
1.00004
1.00013
1.00029
1.00083
1.00169
1.00479
1.00957
1.02855
1.05327
1.18252
1.34301
2.24861
4.04819
9.82925
11.4083
11.2361
11.1415
11.221
11.4384
11.6744
11.8278
11.9447
12.0382
12.1118
1.00001
1.00004
1.00013
1.00029
1.00082
1.00167
1.00474
1.00946
1.02826
1.05266
1.18085
1.33867
2.23669
4.01391
9.74811
11.4014
11.2276
11.1293
11.2097
11.4281
11.6638
11.8173
11.9359
12.031
12.1062
1.00001
1.00004
1.00013
1.00028
1.0008
1.00163
1.00463
1.00925
1.02766
1.05141
1.17733
1.3298
2.21116
3.94068
9.56774
11.3862
11.2059
11.0954
11.1747
11.3912
11.6237
11.7741
11.8918
11.9857
12.06
1.00001
1.00004
1.00013
1.00027
1.00077
1.00158
1.00447
1.00892
1.02674
1.04954
1.17193
1.31648
2.17196
3.82916
9.28599
11.368
11.1744
11.0406
11.1168
11.3271
11.5535
11.6981
11.8116
11.9023
11.9762
1.00001
1.00004
1.00012
1.00026
1.00073
1.00149
1.00425
1.00843
1.02554
1.04658
1.16521
1.29847
2.11958
3.67981
8.89866
11.3498
11.1343
10.9668
11.0381
11.2396
11.4566
11.5927
11.6999
11.7861
11.8601
1.00001
1.00003
1.00011
1.00024
1.00068
1.00139
1.00397
1.00783
1.02403
1.04313
1.15594
1.27641
2.0567
3.48979
8.40158
11.3357
11.0866
10.874
10.9383
11.1265
11.3306
11.4539
11.5497
11.6271
11.7011
1.00001
1.00003
1.0001
1.00022
1.00063
1.00129
1.00368
1.00723
1.02224
1.03975
1.14416
1.25293
1.97329
3.26408
7.78594
11.3305
11.0367
10.7649
10.82
10.9889
11.1736
11.2767
11.3528
11.4115
11.4773
1.00001
1.00003
1.00009
1.0002
1.00058
1.00119
1.00338
1.00673
1.02017
1.03717
1.12917
1.23103
1.86288
3.0098
7.04525
11.3254
10.9881
10.6429
10.6858
10.828
10.9844
11.0566
11.0985
11.1191
11.157
1.00001
1.00003
1.00009
1.00019
1.00053
1.00108
1.00305
1.00616
1.01788
1.03478
1.11143
1.20856
1.74128
2.73386
6.20097
11.2854
10.93
10.5146
10.5396
10.6425
10.7594
10.7874
10.7744
10.7172
10.6598
1.00001
1.00002
1.00007
1.00016
1.00046
1.00095
1.00267
1.0054
1.01562
1.03073
1.09571
1.18482
1.62629
2.46954
5.3679
11.0853
10.8081
10.3979
10.3832
10.4332
10.4935
10.4701
10.3739
10.1536
9.82052
1.00001
1.00004
1.00013
1.00029
1.00083
1.00169
1.00479
1.00957
1.02855
1.05327
1.18252
1.34301
2.24861
4.04819
9.82925
11.4083
11.2361
11.1415
11.221
11.4384
11.6744
11.8278
11.9447
12.0382
12.1118
1.00001
1.00004
1.00013
1.00029
1.00082
1.00167
1.00474
1.00946
1.02826
1.05266
1.18085
1.33867
2.23669
4.01391
9.74811
11.4014
11.2276
11.1293
11.2097
11.4281
11.6638
11.8173
11.9359
12.031
12.1062
1.00001
1.00004
1.00013
1.00028
1.0008
1.00163
1.00463
1.00925
1.02766
1.05141
1.17733
1.3298
2.21116
3.94068
9.56774
11.3862
11.2059
11.0954
11.1747
11.3912
11.6237
11.7741
11.8918
11.9857
12.06
1.00001
1.00004
1.00013
1.00027
1.00077
1.00158
1.00447
1.00892
1.02674
1.04954
1.17194
1.31648
2.17196
3.82916
9.28599
11.368
11.1744
11.0406
11.1168
11.3271
11.5535
11.6981
11.8116
11.9023
11.9762
1.00001
1.00004
1.00012
1.00026
1.00073
1.00149
1.00425
1.00843
1.02554
1.04658
1.16521
1.29847
2.11958
3.67982
8.89867
11.3498
11.1343
10.9668
11.0381
11.2396
11.4566
11.5927
11.6999
11.7861
11.8601
1.00001
1.00003
1.00011
1.00024
1.00068
1.00139
1.00397
1.00783
1.02403
1.04313
1.15594
1.27641
2.0567
3.48979
8.40159
11.3357
11.0866
10.874
10.9383
11.1265
11.3306
11.4539
11.5497
11.6271
11.7011
1.00001
1.00003
1.0001
1.00022
1.00063
1.00129
1.00368
1.00723
1.02224
1.03975
1.14416
1.25293
1.97329
3.26408
7.78594
11.3305
11.0367
10.7649
10.82
10.9889
11.1736
11.2767
11.3528
11.4115
11.4773
1.00001
1.00003
1.00009
1.0002
1.00058
1.00119
1.00338
1.00673
1.02017
1.03717
1.12917
1.23103
1.86288
3.0098
7.04526
11.3254
10.9881
10.6429
10.6858
10.828
10.9844
11.0566
11.0985
11.1191
11.157
1.00001
1.00003
1.00009
1.00019
1.00053
1.00108
1.00305
1.00616
1.01788
1.03478
1.11143
1.20856
1.74128
2.73386
6.20098
11.2854
10.93
10.5146
10.5396
10.6425
10.7594
10.7874
10.7744
10.7172
10.6598
1.00001
1.00002
1.00007
1.00016
1.00046
1.00095
1.00267
1.0054
1.01562
1.03073
1.09571
1.18482
1.62629
2.46954
5.3679
11.0853
10.8081
10.3979
10.3832
10.4332
10.4935
10.4701
10.3739
10.1536
9.82052
1.00001
1.00004
1.00013
1.00029
1.00083
1.00169
1.00479
1.00957
1.02855
1.05327
1.18252
1.34301
2.24861
4.04819
9.82925
11.4083
11.2361
11.1415
11.221
11.4384
11.6744
11.8278
11.9447
12.0382
12.1118
1.00001
1.00004
1.00013
1.00029
1.00082
1.00167
1.00474
1.00946
1.02826
1.05266
1.18085
1.33867
2.23669
4.01391
9.7481
11.4014
11.2276
11.1293
11.2097
11.4281
11.6638
11.8173
11.9359
12.031
12.1062
1.00001
1.00004
1.00013
1.00028
1.0008
1.00163
1.00463
1.00925
1.02766
1.05141
1.17733
1.3298
2.21116
3.94068
9.56774
11.3862
11.2059
11.0954
11.1747
11.3912
11.6237
11.7741
11.8918
11.9857
12.06
1.00001
1.00004
1.00013
1.00027
1.00077
1.00158
1.00447
1.00892
1.02674
1.04954
1.17193
1.31648
2.17196
3.82915
9.28598
11.368
11.1744
11.0406
11.1168
11.3271
11.5535
11.6981
11.8116
11.9023
11.9762
1.00001
1.00004
1.00012
1.00026
1.00073
1.00149
1.00425
1.00843
1.02554
1.04658
1.16521
1.29847
2.11958
3.67981
8.89866
11.3498
11.1343
10.9668
11.0381
11.2396
11.4566
11.5927
11.6999
11.7861
11.8601
1.00001
1.00003
1.00011
1.00024
1.00068
1.00139
1.00397
1.00783
1.02403
1.04313
1.15594
1.27641
2.0567
3.48979
8.40158
11.3357
11.0866
10.874
10.9383
11.1265
11.3306
11.4539
11.5497
11.6271
11.7011
1.00001
1.00003
1.0001
1.00022
1.00063
1.00129
1.00368
1.00723
1.02224
1.03975
1.14416
1.25293
1.97329
3.26407
7.78594
11.3305
11.0367
10.7649
10.82
10.9889
11.1736
11.2767
11.3528
11.4115
11.4773
1.00001
1.00003
1.00009
1.0002
1.00058
1.00119
1.00338
1.00673
1.02017
1.03717
1.12917
1.23103
1.86288
3.0098
7.04525
11.3254
10.9881
10.6429
10.6858
10.828
10.9844
11.0566
11.0985
11.1191
11.157
1.00001
1.00003
1.00009
1.00019
1.00053
1.00108
1.00305
1.00616
1.01788
1.03478
1.11143
1.20856
1.74128
2.73386
6.20097
11.2854
10.93
10.5146
10.5396
10.6425
10.7594
10.7874
10.7744
10.7172
10.6598
1.00001
1.00002
1.00007
1.00016
1.00046
1.00095
1.00267
1.0054
1.01562
1.03073
1.09571
1.18482
1.62629
2.46954
5.3679
11.0853
10.8081
10.3979
10.3832
10.4332
10.4935
10.4701
10.3739
10.1536
9.82052
1.00001
1.00004
1.00013
1.00029
1.00083
1.00169
1.00479
1.00957
1.02855
1.05327
1.18252
1.34301
2.24861
4.04819
9.82924
11.4083
11.2361
11.1415
11.221
11.4384
11.6744
11.8278
11.9447
12.0382
12.1118
1.00001
1.00004
1.00013
1.00029
1.00082
1.00167
1.00474
1.00946
1.02826
1.05266
1.18085
1.33867
2.23669
4.01391
9.74809
11.4015
11.2276
11.1293
11.2097
11.4281
11.6638
11.8173
11.9359
12.031
12.1062
1.00001
1.00004
1.00013
1.00028
1.0008
1.00163
1.00463
1.00925
1.02766
1.05141
1.17733
1.3298
2.21116
3.94067
9.56773
11.3862
11.2059
11.0954
11.1747
11.3912
11.6237
11.7741
11.8918
11.9857
12.06
1.00001
1.00004
1.00013
1.00027
1.00077
1.00158
1.00447
1.00892
1.02674
1.04954
1.17193
1.31648
2.17195
3.82915
9.28597
11.368
11.1744
11.0406
11.1168
11.3271
11.5535
11.6981
11.8116
11.9023
11.9762
1.00001
1.00004
1.00012
1.00026
1.00073
1.00149
1.00425
1.00843
1.02554
1.04658
1.1652
1.29847
2.11958
3.67981
8.89865
11.3498
11.1343
10.9668
11.0381
11.2396
11.4566
11.5927
11.6999
11.7861
11.8601
1.00001
1.00003
1.00011
1.00024
1.00068
1.00139
1.00397
1.00783
1.02403
1.04313
1.15594
1.27641
2.0567
3.48979
8.40157
11.3357
11.0866
10.874
10.9383
11.1265
11.3306
11.4539
11.5497
11.6271
11.7011
1.00001
1.00003
1.0001
1.00022
1.00063
1.00129
1.00368
1.00723
1.02224
1.03975
1.14416
1.25293
1.97329
3.26407
7.78593
11.3305
11.0367
10.7649
10.82
10.9889
11.1736
11.2767
11.3528
11.4115
11.4773
1.00001
1.00003
1.00009
1.0002
1.00058
1.00119
1.00338
1.00673
1.02017
1.03717
1.12917
1.23103
1.86288
3.00979
7.04524
11.3254
10.9881
10.6429
10.6858
10.828
10.9844
11.0566
11.0985
11.1191
11.157
1.00001
1.00003
1.00009
1.00019
1.00053
1.00108
1.00305
1.00616
1.01788
1.03478
1.11143
1.20856
1.74128
2.73386
6.20096
11.2854
10.93
10.5146
10.5396
10.6425
10.7594
10.7874
10.7744
10.7172
10.6598
1.00001
1.00002
1.00007
1.00016
1.00046
1.00095
1.00267
1.0054
1.01562
1.03073
1.09571
1.18482
1.62628
2.46954
5.36789
11.0853
10.8081
10.3979
10.3832
10.4332
10.4935
10.4701
10.3739
10.1536
9.82052
1.00001
1.00004
1.00013
1.00029
1.00083
1.00169
1.00479
1.00957
1.02855
1.05327
1.18252
1.343
2.2486
4.04816
9.82918
11.4083
11.2361
11.1415
11.221
11.4384
11.6743
11.8278
11.9447
12.0382
12.1118
1.00001
1.00004
1.00013
1.00029
1.00082
1.00167
1.00474
1.00946
1.02826
1.05266
1.18085
1.33867
2.23668
4.01388
9.74804
11.4015
11.2276
11.1293
11.2096
11.4281
11.6638
11.8173
11.9359
12.031
12.1062
1.00001
1.00004
1.00013
1.00028
1.0008
1.00163
1.00463
1.00925
1.02766
1.05141
1.17733
1.3298
2.21115
3.94065
9.56767
11.3862
11.2059
11.0954
11.1747
11.3912
11.6237
11.7741
11.8918
11.9857
12.06
1.00001
1.00004
1.00013
1.00027
1.00077
1.00158
1.00447
1.00892
1.02674
1.04954
1.17193
1.31648
2.17195
3.82913
9.28591
11.368
11.1744
11.0406
11.1167
11.3271
11.5535
11.6981
11.8116
11.9023
11.9762
1.00001
1.00004
1.00012
1.00026
1.00073
1.00149
1.00425
1.00843
1.02554
1.04658
1.1652
1.29847
2.11957
3.67979
8.89859
11.3498
11.1343
10.9668
11.0381
11.2395
11.4566
11.5927
11.6999
11.7861
11.8601
1.00001
1.00003
1.00011
1.00024
1.00068
1.00139
1.00397
1.00783
1.02403
1.04313
1.15594
1.27641
2.05669
3.48976
8.4015
11.3357
11.0866
10.874
10.9383
11.1265
11.3306
11.4539
11.5497
11.6271
11.7011
1.00001
1.00003
1.0001
1.00022
1.00063
1.00129
1.00368
1.00723
1.02224
1.03975
1.14416
1.25293
1.97328
3.26405
7.78586
11.3306
11.0367
10.7649
10.82
10.9889
11.1736
11.2767
11.3528
11.4115
11.4773
1.00001
1.00003
1.00009
1.0002
1.00058
1.00119
1.00338
1.00673
1.02017
1.03717
1.12917
1.23103
1.86287
3.00977
7.04516
11.3254
10.9881
10.6428
10.6858
10.828
10.9844
11.0566
11.0985
11.1191
11.157
1.00001
1.00003
1.00009
1.00019
1.00053
1.00108
1.00305
1.00616
1.01788
1.03478
1.11143
1.20856
1.74127
2.73383
6.20088
11.2854
10.93
10.5146
10.5396
10.6425
10.7594
10.7874
10.7744
10.7172
10.6598
1.00001
1.00002
1.00007
1.00016
1.00046
1.00095
1.00267
1.0054
1.01562
1.03073
1.09571
1.18482
1.62628
2.46952
5.36785
11.0853
10.8081
10.3979
10.3832
10.4332
10.4935
10.4701
10.3739
10.1536
9.82051
1.00001
1.00004
1.00013
1.00028
1.00082
1.00168
1.00478
1.00956
1.02854
1.05324
1.1825
1.34292
2.24852
4.04782
9.82852
11.4082
11.236
11.1414
11.2208
11.4383
11.6742
11.8276
11.9445
12.0381
12.1116
1.00001
1.00004
1.00013
1.00028
1.00081
1.00166
1.00473
1.00945
1.02825
1.05263
1.18083
1.33859
2.23661
4.01354
9.74737
11.4014
11.2275
11.1292
11.2095
11.428
11.6637
11.8171
11.9358
12.0309
12.106
1.00001
1.00004
1.00013
1.00027
1.00079
1.00162
1.00463
1.00924
1.02765
1.05139
1.17731
1.32972
2.21107
3.94031
9.567
11.3862
11.2058
11.0953
11.1746
11.3911
11.6236
11.774
11.8917
11.9856
12.0598
1.00001
1.00003
1.00012
1.00026
1.00076
1.00157
1.00447
1.00891
1.02673
1.04951
1.17192
1.3164
2.17187
3.82879
9.28522
11.368
11.1743
11.0405
11.1166
11.327
11.5533
11.698
11.8115
11.9021
11.976
1.00001
1.00003
1.00012
1.00025
1.00072
1.00149
1.00424
1.00842
1.02552
1.04655
1.1652
1.29838
2.11951
3.67946
8.89789
11.3498
11.1342
10.9667
11.038
11.2394
11.4565
11.5926
11.6998
11.786
11.86
1.00001
1.00003
1.00011
1.00023
1.00068
1.00139
1.00397
1.00782
1.02402
1.04311
1.15591
1.27635
2.0566
3.48942
8.40078
11.3357
11.0866
10.8739
10.9382
11.1264
11.3305
11.4538
11.5495
11.6269
11.7009
1.00001
1.00003
1.0001
1.00022
1.00063
1.00128
1.00367
1.00722
1.02223
1.03973
1.14413
1.25287
1.97318
3.26371
7.78508
11.3306
11.0366
10.7648
10.8199
10.9888
11.1735
11.2766
11.3527
11.4114
11.4771
1.00001
1.00003
1.00009
1.0002
1.00058
1.00118
1.00337
1.00672
1.02016
1.03714
1.12916
1.23094
1.86281
3.00945
7.04441
11.3254
10.988
10.6427
10.6857
10.8279
10.9843
11.0565
11.0984
11.119
11.1569
1
1.00002
1.00008
1.00018
1.00052
1.00107
1.00304
1.00615
1.01787
1.03476
1.11141
1.2085
1.74119
2.73355
6.20016
11.2853
10.9299
10.5145
10.5395
10.6424
10.7593
10.7873
10.7743
10.7171
10.6597
1
1.00002
1.00007
1.00016
1.00046
1.00094
1.00267
1.00539
1.01561
1.03071
1.09569
1.18478
1.62621
2.46931
5.36739
11.0849
10.8079
10.3978
10.3831
10.4331
10.4934
10.47
10.3738
10.1535
9.82041
1
1.00002
1.00005
1.00016
1.00033
1.00094
1.00192
1.00551
1.01074
1.03371
1.05952
1.21672
1.41145
2.4379
4.63542
10.5373
10.5393
10.3298
10.2014
10.2077
10.1973
10.1107
9.86113
9.28918
7.86104
1
1.00002
1.00004
1.00014
1.00029
1.00084
1.00172
1.00488
1.00978
1.02898
1.05462
1.18379
1.35121
2.24991
4.04443
9.5038
10.3479
10.2145
10.0171
9.96974
9.89754
9.72373
9.34032
8.57752
7.13802
1
1.00001
1.00004
1.00012
1.00025
1.00071
1.00146
1.00415
1.00823
1.02483
1.04536
1.15976
1.2883
2.0716
3.5392
8.3254
10.2123
10.0994
9.8517
9.7289
9.6059
9.35688
8.89175
8.13369
7.00762
1
1.00001
1.00003
1.0001
1.00021
1.0006
1.00122
1.00346
1.00682
1.02087
1.03734
1.13438
1.23499
1.89403
3.05715
7.04832
10.1064
9.99072
9.70483
9.49882
9.32457
9.03593
8.56367
7.87734
6.99589
1
1.00001
1.00002
1.00008
1.00017
1.0005
1.00102
1.00291
1.00586
1.01704
1.03327
1.1054
1.20062
1.69395
2.61677
5.73329
9.94572
9.86724
9.59113
9.29333
9.0703
8.76947
8.32124
7.70915
6.97337
1
1.00001
1.00002
1.00005
1.00016
1.00033
1.00094
1.00191
1.00548
1.01066
1.03342
1.05905
1.21223
1.41001
2.369
4.44431
9.49588
9.68121
9.48966
9.12121
8.85344
8.54661
8.12998
7.58448
6.94317
1
1
1.00002
1.00004
1.00013
1.00027
1.00078
1.00159
1.00449
1.009
1.02661
1.04993
1.16862
1.31431
2.1278
3.67894
8.37012
9.42061
9.29296
8.98552
8.67163
8.35715
7.96823
7.47983
6.91488
1
1
1.00001
1.00003
1.0001
1.00021
1.00059
1.00121
1.00345
1.00674
1.02097
1.03706
1.13477
1.23592
1.89684
3.04567
6.85931
9.18384
9.11615
8.8851
8.52894
8.20233
7.83355
7.39203
6.88701
0.999999
1
1.00001
1.00003
1.00006
1.00018
1.00037
1.00107
1.00209
1.0065
1.01134
1.04114
1.0673
1.25652
1.51245
2.64439
5.21106
8.91799
8.98454
8.8171
8.44676
8.07892
7.72107
7.31924
6.86602
0.999997
0.999999
1
1.00002
1.00005
1.00014
1.0003
1.00085
1.00173
1.00493
1.00979
1.0294
1.05439
1.18518
1.35334
2.20887
3.86439
8.27938
8.85708
8.71638
8.37975
7.98006
7.62821
7.25971
6.85664
0.999995
0.999996
1
1.00001
1.00004
1.00009
1.00025
1.00052
1.00148
1.00288
1.00896
1.01558
1.05673
1.09322
1.35913
1.72453
3.33172
6.79868
8.59848
8.5391
8.31549
7.909
7.55746
7.21699
6.8589
0.999994
0.999995
0.999998
1
1.00003
1.00006
1.00019
1.0004
1.00114
1.00232
1.00664
1.01286
1.04064
1.07109
1.2582
1.50719
2.64346
5.09944
8.26139
8.38432
8.2432
7.90525
7.52559
7.19784
6.86972
0.999993
0.999994
0.999996
1
1.00001
1.00005
1.00012
1.00035
1.00072
1.00203
1.00411
1.01178
1.02334
1.0699
1.14036
1.43265
2.00034
3.76207
7.49776
8.24697
8.15298
7.89551
7.52768
7.20299
6.89905
0.999993
0.999993
0.999994
0.999999
1.00001
1.00004
1.00008
1.00025
1.00052
1.00145
1.00294
1.00839
1.01633
1.05081
1.09118
1.31872
1.65932
3.02882
5.99368
8.02674
8.0146
7.87323
7.55263
7.22869
6.96237
0.999992
0.999992
0.999994
0.999996
1
1.00002
1.00007
1.00015
1.00043
1.00088
1.00248
1.005
1.01429
1.02813
1.08531
1.16677
1.53009
2.21283
4.25218
7.58373
7.94931
7.85246
7.61104
7.2989
7.08825
0.999992
0.999992
0.999993
0.999994
1
1.00001
1.00005
1.0001
1.0003
1.00062
1.00175
1.00354
1.00999
1.01982
1.05909
1.11361
1.36302
1.80865
3.29239
6.53512
7.80587
7.79407
7.68642
7.45117
7.30643
0.999991
0.999991
0.999992
0.999994
0.999996
1.00001
1.00002
1.00008
1.00018
1.0005
1.00103
1.00289
1.00581
1.0167
1.03191
1.10189
1.18896
1.6384
2.43778
4.87314
7.48307
7.79218
7.76259
7.6782
7.64491
0.999991
0.999991
0.999991
0.999993
0.999995
1
1.00001
1.00005
1.00012
1.00035
1.00072
1.002
1.00405
1.01142
1.02298
1.06608
1.13712
1.40226
1.92013
3.48487
6.72291
7.75853
7.92473
7.96949
8.05867
0.999991
0.999991
0.999991
0.999992
0.999994
0.999997
1.00001
1.00003
1.00009
1.00019
1.00055
1.00113
1.00316
1.00623
1.01869
1.03366
1.11609
1.20577
1.72286
2.59777
5.28529
7.62093
8.24717
8.45505
8.65645
0.999991
0.999991
0.999991
0.999991
0.999992
0.999996
1
1.00002
1.00005
1.00015
1.00032
1.00091
1.00185
1.00518
1.01033
1.03029
1.05693
1.18311
1.36661
2.12309
3.63593
7.20171
8.68195
9.15241
9.38682
0.999991
0.999991
0.999991
0.999991
0.999992
0.999994
0.999998
1.00001
1.00003
1.0001
1.00022
1.00063
1.00128
1.00359
1.00708
1.02128
1.03824
1.13353
1.23481
1.85315
2.88764
6.14078
9.13285
9.9927
10.1216
0.999991
0.99999
0.999991
0.999991
0.999991
0.999993
0.999996
1
1.00002
1.00006
1.00018
1.00039
1.00109
1.0022
1.00626
1.01227
1.03755
1.0683
1.23295
1.47068
2.46455
4.61608
9.46235
10.8997
10.8588
0.999991
0.99999
0.99999
0.999991
0.999991
0.999992
0.999995
1
1.00002
1.00005
1.00015
1.00031
1.00088
1.00179
1.00507
1.01021
1.02984
1.05763
1.18612
1.36969
2.25459
4.07871
9.31966
11.5271
11.4114
0.999991
0.99999
0.99999
0.999991
0.999991
0.999992
0.999994
0.999998
1.00001
1.00004
1.00012
1.00025
1.00072
1.00147
1.00421
1.00843
1.02538
1.04744
1.16428
1.30453
2.13059
3.73128
8.94744
11.8883
11.6667
0.999991
0.99999
0.99999
0.99999
0.999991
0.999991
0.999993
0.999997
1.00001
1.00003
1.0001
1.00021
1.0006
1.00123
1.00361
1.00699
1.02266
1.03944
1.15019
1.26454
2.06152
3.51559
8.61994
12.1312
11.7386
0.999991
0.99999
0.99999
0.99999
0.999991
0.999991
0.999992
0.999997
1
1.00003
1.00006
1.0002
1.0004
1.00128
1.00222
1.00832
1.01342
1.054
1.0885
1.36374
1.76521
3.58101
8.20046
12.2684
11.6834
0.999991
0.99999
0.99999
0.99999
0.999991
0.999991
0.999993
0.999995
1.00001
1.00002
1.00008
1.00017
1.00049
1.00099
1.00305
1.0055
1.01973
1.03276
1.12958
1.22728
1.91757
3.19321
7.84359
12.3757
11.5874
0.999991
0.99999
0.99999
0.99999
0.999991
0.999991
0.999992
0.999996
1
1.00002
1.00006
1.00018
1.00038
1.00112
1.00216
1.00712
1.01217
1.04723
1.07703
1.3146
1.65346
3.20824
7.23925
12.5054
11.5969
0.999991
0.99999
0.99999
0.99999
0.999991
0.999991
0.999992
0.999996
1
1.00002
1.00005
1.00017
1.00036
1.00107
1.00209
1.00662
1.01155
1.04372
1.07107
1.28768
1.59079
2.99865
6.62175
12.5958
11.6232
0.999991
0.99999
0.99999
0.99999
0.999991
0.999991
0.999992
0.999995
1
1.00002
1.00007
1.00014
1.00043
1.00089
1.00262
1.00512
1.01641
1.02904
1.10785
1.19152
1.721
2.70484
6.25407
12.559
11.5842
0.999991
0.99999
0.99999
0.99999
0.999991
0.999991
0.999992
0.999995
1
1.00002
1.00005
1.00016
1.00033
1.00099
1.00189
1.0062
1.01058
1.04007
1.06534
1.25813
1.52042
2.7359
5.77595
12.4145
11.5872
0.999991
0.99999
0.99999
0.99999
0.999991
0.999991
0.999992
0.999995
1
1.00002
1.00007
1.00014
1.00043
1.00088
1.00255
1.00515
1.01529
1.02943
1.09706
1.18114
1.64723
2.52357
5.67205
12.1279
11.4975
0.999991
0.99999
0.99999
0.99999
0.999991
0.999991
0.999992
0.999995
1
1.00002
1.00006
1.00014
1.00042
1.00086
1.00247
1.005
1.0148
1.02862
1.09344
1.17499
1.62214
2.46492
5.50366
11.908
11.4169
0.999991
0.99999
0.99999
0.99999
0.999991
0.999991
0.999992
0.999995
1
1.00002
1.00005
1.00015
1.00032
1.00093
1.00182
1.00571
1.00998
1.03682
1.05999
1.23486
1.45481
2.577
5.16113
11.7028
11.383
0.999991
0.99999
0.99999
0.99999
0.999991
0.999991
0.999992
0.999994
1
1.00001
1.00006
1.00013
1.00038
1.00079
1.00231
1.00452
1.01423
1.02528
1.09186
1.16118
1.59604
2.37795
5.215
11.5117
11.2879
0.999991
0.99999
0.99999
0.99999
0.999991
0.999991
0.999992
0.999995
1
1.00002
1.00005
1.00015
1.00031
1.0009
1.00177
1.00546
1.00982
1.03489
1.05807
1.22398
1.4274
2.51286
4.89324
11.3352
11.2244
0.999991
0.99999
0.99999
0.99999
0.999991
0.999991
0.999992
0.999994
1
1.00001
1.00006
1.00013
1.00038
1.00077
1.00224
1.00444
1.01364
1.02477
1.0877
1.15448
1.57071
2.30825
5.02869
11.1714
11.123
0.999991
0.99999
0.99999
0.99999
0.999991
0.999991
0.999992
0.999994
1
1.00001
1.00006
1.00012
1.00037
1.00075
1.00218
1.00427
1.01337
1.02366
1.08643
1.14903
1.56112
2.2792
4.95897
11.0649
11.0723
0.999991
0.99999
0.99999
0.99999
0.999991
0.999991
0.999992
0.999995
1
1.00002
1.00005
1.00015
1.00032
1.00091
1.00186
1.00538
1.01056
1.03305
1.0593
1.21411
1.4097
2.45864
4.67331
11.0053
11.1481
0.999991
0.99999
0.99999
0.99999
0.999991
0.999991
0.999992
0.999995
1
1.00002
1.00005
1.00015
1.00032
1.00093
1.00189
1.00541
1.01076
1.03265
1.0602
1.20977
1.40543
2.43623
4.62908
10.9744
11.1737
1
1.00002
1.00006
1.00016
1.00034
1.00095
1.00193
1.00552
1.01075
1.03372
1.05954
1.21675
1.41154
2.43801
4.63597
10.538
10.5394
10.3299
10.2015
10.2078
10.1974
10.1107
9.86121
9.28927
7.86112
1
1.00002
1.00005
1.00014
1.0003
1.00085
1.00173
1.00489
1.00979
1.02899
1.05464
1.18382
1.3513
2.25002
4.04485
9.50455
10.348
10.2146
10.0171
9.96981
9.89762
9.72381
9.34041
8.57761
7.13811
1
1.00002
1.00004
1.00012
1.00026
1.00072
1.00147
1.00415
1.00824
1.02484
1.0454
1.15977
1.2884
2.07168
3.53956
8.32618
10.2123
10.0994
9.85174
9.72897
9.60597
9.35696
8.89184
8.13378
7.00772
1
1.00001
1.00004
1.0001
1.00021
1.0006
1.00122
1.00347
1.00683
1.02089
1.03736
1.13441
1.23505
1.89413
3.05748
7.04912
10.1064
9.99073
9.70487
9.49889
9.32465
9.03602
8.56376
7.87744
6.996
1
1.00001
1.00003
1.00009
1.00018
1.00051
1.00103
1.00292
1.00587
1.01705
1.03329
1.10542
1.20068
1.69404
2.61707
5.73411
9.94581
9.8673
9.59116
9.2934
9.07037
8.76956
8.32133
7.70925
6.97347
1
1.00001
1.00003
1.00006
1.00017
1.00034
1.00095
1.00192
1.00549
1.01067
1.03343
1.05907
1.21226
1.41011
2.36911
4.44488
9.49627
9.6813
9.48973
9.12127
8.85352
8.5467
8.13007
7.58458
6.94328
1
1.00001
1.00002
1.00005
1.00014
1.00028
1.00078
1.0016
1.0045
1.00901
1.02662
1.04996
1.16864
1.3144
2.12792
3.67936
8.37095
9.42073
9.29304
8.98556
8.6717
8.35724
7.96832
7.47993
6.915
1
1.00001
1.00002
1.00004
1.0001
1.00021
1.0006
1.00122
1.00346
1.00676
1.02099
1.03708
1.1348
1.23599
1.89697
3.04603
6.86012
9.18387
9.11617
8.88512
8.52901
8.20242
7.83366
7.39214