/*--------------------------------*- C++ -*----------------------------------*\
| =========                 |                                                 |
| \\      /  F ield         | OpenFOAM: The Open Source CFD Toolbox           |
|  \\    /   O peration     | Version:  4.1                                   |
|   \\  /    A nd           | Web:      www.OpenFOAM.org                      |
|    \\/     M anipulation  |                                                 |
\*---------------------------------------------------------------------------*/
FoamFile
{
    version     2.0;
    format      ascii;
    class       volScalarField;
    location    "0.58";
    object      Ma;
}
// * * * * * * * * * * * * * * * * * * * * * * * * * * * * * * * * * * * * * //

dimensions      [0 0 0 0 0 0 0];

internalField   nonuniform List<scalar> 
52500
(
3.0146
3.0335
2.87006
2.17947
0.70414
0.191256
0.249764
0.160448
0.0240344
0.0681726
0.0218548
0.0230273
0.02797
0.036631
0.0435544
0.047507
0.0551215
0.064723
0.0755503
0.0852468
0.09232
0.0861441
0.0847022
0.0459161
0.0399694
3.01691
3.03699
2.87731
2.19709
0.726613
0.194383
0.25948
0.161576
0.0531431
0.0808675
0.0454052
0.0455724
0.0475386
0.0537433
0.0596188
0.0637972
0.0713493
0.0808138
0.090685
0.0996185
0.106182
0.101225
0.0998027
0.0696406
0.0655737
3.02181
3.04447
2.89316
2.23646
0.780601
0.196422
0.276594
0.170084
0.0898285
0.101274
0.0755199
0.0763387
0.076993
0.0817048
0.0869362
0.0923106
0.100718
0.110595
0.11978
0.128258
0.134784
0.132096
0.131301
0.110348
0.107802
3.02881
3.05578
2.91621
2.29441
0.866836
0.199839
0.300377
0.180836
0.125902
0.127657
0.1051
0.106428
0.106017
0.110135
0.115816
0.122799
0.132497
0.143455
0.152968
0.161743
0.168761
0.168367
0.168963
0.154557
0.153986
3.03723
3.07068
2.94481
2.36695
0.984838
0.203977
0.329482
0.189692
0.158668
0.158592
0.134422
0.136812
0.135544
0.139421
0.145496
0.154072
0.165166
0.17735
0.187853
0.197602
0.205897
0.208137
0.210796
0.201653
0.204037
3.0467
3.08871
2.97679
2.4506
1.13371
0.210112
0.36033
0.193611
0.189865
0.191266
0.163216
0.167471
0.165372
0.169
0.175828
0.185958
0.198193
0.211851
0.223852
0.235199
0.245622
0.250878
0.256087
0.251914
0.258043
3.05697
3.10849
3.01122
2.54321
1.31061
0.223451
0.39001
0.195303
0.222899
0.22471
0.192039
0.198286
0.195801
0.199008
0.206698
0.217955
0.231281
0.246699
0.260692
0.274235
0.287566
0.29682
0.305749
0.307029
0.318628
3.06761
3.12923
3.04659
2.64171
1.51014
0.25884
0.415882
0.203008
0.25832
0.257206
0.222464
0.22922
0.226833
0.229543
0.237952
0.249785
0.264372
0.281509
0.298301
0.314466
0.331515
0.346329
0.36143
0.371412
0.393116
3.07822
3.15012
3.08151
2.74113
1.72654
0.338451
0.435251
0.229419
0.294683
0.287697
0.25487
0.259786
0.258502
0.261009
0.269733
0.281499
0.297424
0.31588
0.336251
0.355611
0.377568
0.399512
0.425454
0.449483
0.494667
3.08851
3.17041
3.11456
2.83749
1.9547
0.47239
0.444672
0.282012
0.329671
0.314573
0.290696
0.29005
0.291034
0.293362
0.301791
0.313111
0.330137
0.34972
0.374276
0.397322
0.424712
0.45572
0.49784
0.551309
0.662783
3.01454
3.03341
2.86989
2.17911
0.703697
0.191283
0.249627
0.160102
0.0224697
0.0677461
0.0204003
0.0217642
0.0269992
0.0358716
0.0428689
0.0468641
0.0545783
0.0642738
0.0751754
0.0849237
0.0920351
0.0858488
0.0844068
0.0453487
0.0393297
3.01686
3.03692
2.8772
2.19689
0.726385
0.193905
0.258924
0.161837
0.052452
0.0800412
0.0446497
0.0450113
0.0470595
0.0532624
0.0591458
0.063345
0.0709567
0.0804672
0.0903761
0.0993404
0.105929
0.100964
0.0995384
0.0692449
0.0651668
3.02175
3.04439
2.89302
2.23619
0.780269
0.196257
0.276389
0.169974
0.0892659
0.100997
0.0751736
0.0760425
0.0766945
0.0814135
0.0866195
0.0920002
0.100451
0.110337
0.119543
0.128038
0.134577
0.131886
0.131086
0.110074
0.107535
3.02874
3.05568
2.91604
2.29406
0.866338
0.199695
0.3002
0.180647
0.125468
0.127463
0.104875
0.106239
0.105834
0.109916
0.115543
0.12255
0.132276
0.14324
0.152778
0.161564
0.168588
0.168192
0.16878
0.154338
0.153776
3.03718
3.07058
2.94465
2.3666
0.984295
0.203849
0.329304
0.189534
0.158374
0.158431
0.134242
0.136588
0.13528
0.139094
0.145179
0.153818
0.164949
0.177162
0.187687
0.197446
0.205746
0.207985
0.210635
0.201464
0.203855
3.04665
3.08862
2.97664
2.45027
1.13315
0.209977
0.360184
0.19352
0.189684
0.191185
0.163098
0.167238
0.165061
0.168632
0.175492
0.185691
0.197977
0.211673
0.223694
0.235053
0.245482
0.250739
0.255941
0.25175
0.257884
3.05692
3.10841
3.01108
2.54286
1.30997
0.223301
0.389894
0.195238
0.222772
0.224659
0.19205
0.198103
0.195538
0.198701
0.206408
0.217704
0.231063
0.246523
0.260535
0.274091
0.287433
0.296689
0.305615
0.306885
0.318486
3.06757
3.12915
3.04647
2.64139
1.50951
0.258645
0.415798
0.202962
0.258263
0.257184
0.222448
0.229089
0.22663
0.229314
0.237723
0.249563
0.264163
0.281333
0.298149
0.314331
0.33139
0.346206
0.361306
0.371282
0.392986
3.07819
3.15006
3.08141
2.74086
1.72595
0.338155
0.435213
0.229336
0.294679
0.287728
0.25485
0.259708
0.258366
0.260824
0.269523
0.281283
0.297228
0.315703
0.336103
0.355481
0.377448
0.3994
0.425341
0.449361
0.494547
3.08848
3.17036
3.11448
2.83727
1.95416
0.471972
0.444672
0.281857
0.329698
0.314635
0.290726
0.290035
0.290964
0.293232
0.30162
0.312921
0.329955
0.34955
0.374136
0.397195
0.424598
0.455618
0.49774
0.551206
0.662684
3.01457
3.03345
2.86997
2.17928
0.703894
0.191125
0.249602
0.160119
0.022486
0.067777
0.020459
0.0216558
0.0268165
0.0357232
0.0427822
0.0468247
0.054557
0.064262
0.0751616
0.0849008
0.092001
0.0858086
0.0843674
0.0453202
0.0393217
3.01688
3.03694
2.87724
2.19694
0.726422
0.194139
0.259216
0.161458
0.052558
0.0803816
0.0447269
0.0449258
0.0469144
0.0531738
0.0590858
0.0633005
0.0709208
0.0804504
0.0903617
0.0993211
0.105901
0.100933
0.0995078
0.0692297
0.0651653
3.02178
3.04443
2.89308
2.23632
0.780409
0.19623
0.276397
0.169977
0.0895121
0.100912
0.0751224
0.0759734
0.0766227
0.0813318
0.0865702
0.0919674
0.100421
0.110327
0.119534
0.128026
0.134559
0.131866
0.131066
0.110069
0.107539
3.02877
3.05573
2.91613
2.29425
0.866595
0.199669
0.300202
0.180748
0.12568
0.127394
0.104835
0.106195
0.105778
0.109895
0.115569
0.122556
0.132268
0.143243
0.152776
0.16156
0.168579
0.168181
0.16877
0.15434
0.153784
3.0372
3.07063
2.94474
2.36679
0.984581
0.203813
0.329315
0.189629
0.158486
0.158391
0.134209
0.136645
0.135361
0.13923
0.145279
0.153863
0.164971
0.177179
0.187699
0.197452
0.205745
0.20798
0.210632
0.201471
0.203867
3.04667
3.08866
2.97671
2.45044
1.13344
0.209938
0.360182
0.193547
0.189705
0.191139
0.163061
0.167336
0.165187
0.168794
0.175617
0.185768
0.198027
0.211709
0.22372
0.235068
0.245488
0.25074
0.255943
0.25176
0.257898
3.05694
3.10845
3.01115
2.54303
1.31028
0.223267
0.389879
0.195207
0.22274
0.224596
0.192023
0.198173
0.195643
0.198835
0.206518
0.217787
0.23113
0.246573
0.26057
0.274113
0.287444
0.296694
0.30562
0.306898
0.318502
3.06758
3.12918
3.04652
2.64153
1.50979
0.258646
0.415767
0.202891
0.258184
0.257096
0.22242
0.229131
0.226708
0.229405
0.237799
0.249634
0.264231
0.28139
0.298188
0.314357
0.331403
0.346213
0.361313
0.371298
0.393005
3.0782
3.15008
3.08145
2.74096
1.72619
0.338225
0.435156
0.229274
0.294584
0.287608
0.25482
0.259718
0.258403
0.260885
0.269586
0.281356
0.29729
0.31576
0.336142
0.355507
0.377462
0.399409
0.425349
0.449377
0.494569
3.08848
3.17037
3.1145
2.83734
1.95435
0.472102
0.444595
0.281831
0.329614
0.314507
0.290679
0.29001
0.290965
0.293255
0.301649
0.312962
0.330002
0.349604
0.374175
0.397218
0.42461
0.455627
0.497748
0.551221
0.662706
3.01456
3.03344
2.86996
2.17925
0.703855
0.191147
0.249606
0.16009
0.0224828
0.0677812
0.020465
0.0216683
0.0268249
0.0357207
0.04277
0.0468081
0.0545371
0.0642434
0.0751449
0.0848833
0.0919799
0.0857832
0.0843401
0.0452989
0.0393122
3.01687
3.03694
2.87723
2.19692
0.726395
0.194135
0.259198
0.161465
0.0525547
0.0803512
0.0447147
0.0449256
0.0469165
0.0531681
0.0590789
0.0632887
0.0709092
0.0804384
0.0903476
0.0993048
0.10588
0.100908
0.0994817
0.0692112
0.0651548
3.02178
3.04442
2.89308
2.23629
0.780381
0.196242
0.276391
0.169983
0.0895009
0.100896
0.0751366
0.0760044
0.0766544
0.0813669
0.0865805
0.0919623
0.100417
0.110314
0.119521
0.128011
0.13454
0.131844
0.131042
0.110052
0.107527
3.02877
3.05573
2.91612
2.29423
0.866573
0.199666
0.30019
0.180747
0.125659
0.127401
0.104871
0.106219
0.105792
0.109886
0.115542
0.12254
0.132258
0.14323
0.152766
0.161547
0.168561
0.16816
0.168746
0.154323
0.153771
3.0372
3.07063
2.94473
2.36677
0.984544
0.203816
0.329322
0.189603
0.158468
0.158445
0.134253
0.136623
0.135312
0.139149
0.145224
0.153832
0.164955
0.177167
0.187687
0.197438
0.205726
0.207959
0.210609
0.201454
0.203852
3.04667
3.08866
2.97671
2.45042
1.1334
0.209949
0.3602
0.193533
0.189706
0.191207
0.163097
0.167305
0.165132
0.168726
0.175563
0.185733
0.198006
0.211693
0.223705
0.235052
0.245469
0.25072
0.255922
0.251743
0.257883
3.05694
3.10844
3.01114
2.54302
1.31026
0.22329
0.389897
0.195217
0.222769
0.224666
0.192042
0.198165
0.195624
0.198803
0.206491
0.217766
0.23111
0.246554
0.260553
0.274097
0.287425
0.296674
0.305599
0.306882
0.318487
3.06758
3.12918
3.04652
2.64153
1.50979
0.258673
0.415782
0.202919
0.258243
0.25716
0.222434
0.229135
0.226707
0.2294
0.237807
0.249629
0.264214
0.281368
0.298172
0.31434
0.331385
0.346194
0.361294
0.371285
0.392992
3.0782
3.15008
3.08145
2.74097
1.72621
0.338249
0.435171
0.229302
0.294651
0.287664
0.254827
0.25973
0.258413
0.260891
0.269595
0.281343
0.297276
0.315739
0.336128
0.355492
0.377445
0.399393
0.425332
0.449365
0.49456
3.08848
3.17037
3.11451
2.83735
1.95439
0.472133
0.444611
0.281852
0.329672
0.314546
0.290687
0.290027
0.290982
0.293275
0.301669
0.312965
0.329997
0.349587
0.374161
0.397204
0.424596
0.455612
0.497733
0.551213
0.662704
3.01457
3.03345
2.86999
2.17936
0.704018
0.191085
0.249639
0.160073
0.0224802
0.0677893
0.0204655
0.0216661
0.0268247
0.0357218
0.0427716
0.0468084
0.0545355
0.0642414
0.0751428
0.0848806
0.0919761
0.0857782
0.0843349
0.0452974
0.0393047
3.01688
3.03695
2.87726
2.19703
0.726556
0.19408
0.259233
0.161436
0.0525494
0.0803698
0.0447181
0.0449187
0.0469067
0.0531605
0.0590743
0.0632848
0.0709066
0.0804377
0.0903476
0.0993051
0.105881
0.10091
0.099485
0.0692224
0.0651543
3.02179
3.04444
2.89311
2.2364
0.780537
0.196199
0.27642
0.169952
0.0894993
0.100912
0.0751416
0.0759937
0.0766405
0.0813543
0.0865705
0.0919544
0.100414
0.110314
0.119522
0.128012
0.134542
0.131848
0.13105
0.110069
0.107529
3.02878
3.05574
2.91616
2.29433
0.866738
0.199622
0.300216
0.180722
0.125665
0.127414
0.104868
0.106205
0.105774
0.109869
0.115528
0.122531
0.132254
0.143229
0.152765
0.161546
0.168562
0.168164
0.168755
0.154343
0.153778
3.03721
3.07064
2.94476
2.36686
0.98471
0.203777
0.329345
0.189574
0.158481
0.158461
0.134275
0.136614
0.135297
0.139133
0.145211
0.153824
0.16495
0.177165
0.187685
0.197436
0.205726
0.207963
0.210618
0.201474
0.203865
3.04668
3.08867
2.97674
2.4505
1.13356
0.209932
0.360218
0.193507
0.189729
0.191207
0.163118
0.167286
0.165123
0.168715
0.175553
0.185725
0.198001
0.21169
0.223703
0.235052
0.24547
0.250724
0.25593
0.251763
0.257899
3.05695
3.10846
3.01117
2.5431
1.31043
0.223298
0.389906
0.195213
0.222817
0.22469
0.191957
0.198153
0.195623
0.198795
0.206484
0.217762
0.231109
0.246553
0.260553
0.274099
0.287429
0.29668
0.305609
0.306901
0.318505
3.06759
3.1292
3.04655
2.64161
1.50997
0.258707
0.415784
0.202922
0.258299
0.257199
0.222398
0.229132
0.226713
0.229397
0.237807
0.249632
0.264217
0.28137
0.298175
0.314345
0.33139
0.346202
0.361303
0.371301
0.39301
3.07821
3.1501
3.08147
2.74104
1.72637
0.338316
0.435165
0.229317
0.294695
0.287696
0.254818
0.25973
0.258418
0.260893
0.269599
0.281349
0.297284
0.315746
0.336135
0.3555
0.377453
0.399398
0.42534
0.449379
0.494579
3.08849
3.17038
3.11453
2.83741
1.95454
0.472238
0.444597
0.281888
0.329697
0.314567
0.290669
0.290027
0.290983
0.293277
0.301679
0.312979
0.33001
0.349598
0.374171
0.397216
0.424608
0.455618
0.497737
0.551219
0.662724
3.01457
3.03345
2.86998
2.17931
0.703952
0.191111
0.249631
0.160061
0.0224779
0.0677902
0.0204654
0.0216631
0.0268214
0.0357195
0.0427682
0.0468054
0.0545333
0.0642393
0.0751407
0.0848783
0.0919738
0.0857757
0.0843328
0.0452947
0.0393123
3.01688
3.03695
2.87725
2.19698
0.726495
0.194097
0.259217
0.16144
0.0525532
0.0803573
0.044715
0.044919
0.0469086
0.0531629
0.0590752
0.063285
0.0709056
0.0804354
0.0903444
0.099301
0.105876
0.100904
0.0994779
0.0692123
0.0651594
3.02178
3.04443
2.8931
2.23636
0.780479
0.196215
0.276409
0.169957
0.089501
0.100904
0.0751411
0.0759951
0.0766423
0.0813565
0.0865732
0.0919569
0.100414
0.110311
0.119519
0.128009
0.134538
0.131842
0.131042
0.110057
0.107535
3.02878
3.05574
2.91614
2.29429
0.866675
0.19964
0.300209
0.180726
0.125665
0.12741
0.104869
0.106206
0.105775
0.109872
0.115533
0.122534
0.132254
0.143228
0.152764
0.161545
0.16856
0.168161
0.168749
0.154331
0.153781
3.03721
3.07064
2.94475
2.36682
0.984649
0.203794
0.32934
0.18958
0.15848
0.158459
0.134276
0.136616
0.135299
0.139136
0.145215
0.153826
0.164952
0.177165
0.187686
0.197437
0.205728
0.207962
0.210614
0.201463
0.203863
3.04667
3.08867
2.97672
2.45047
1.1335
0.209943
0.360217
0.193515
0.189728
0.191206
0.16312
0.167286
0.165123
0.168716
0.175555
0.185727
0.198003
0.211691
0.223705
0.235053
0.245472
0.250724
0.255929
0.251752
0.257894
3.05694
3.10846
3.01116
2.54307
1.31037
0.223301
0.389907
0.195219
0.222816
0.22469
0.191959
0.198154
0.195623
0.198796
0.206486
0.217763
0.231109
0.246554
0.260555
0.2741
0.28743
0.296681
0.305608
0.306893
0.318499
3.06759
3.12919
3.04654
2.64159
1.50991
0.258699
0.415787
0.202927
0.258298
0.2572
0.2224
0.229133
0.226715
0.229398
0.237807
0.249631
0.264216
0.28137
0.298176
0.314345
0.331392
0.346203
0.361305
0.371297
0.393006
3.07821
3.1501
3.08147
2.74102
1.72632
0.338295
0.435171
0.229316
0.294695
0.287698
0.254821
0.259731
0.25842
0.260894
0.2696
0.281348
0.297282
0.315745
0.336134
0.355499
0.377454
0.399403
0.425345
0.449381
0.494576
3.08849
3.17038
3.11452
2.8374
1.95449
0.472204
0.444605
0.281882
0.329697
0.314571
0.290672
0.290029
0.290984
0.293277
0.301678
0.312976
0.330007
0.349595
0.374169
0.397213
0.424606
0.455624
0.497747
0.551229
0.66272
3.01456
3.03344
2.86996
2.17924
0.703854
0.191147
0.249606
0.16009
0.0224828
0.0677809
0.020465
0.0216685
0.0268252
0.0357209
0.0427702
0.0468082
0.0545373
0.0642435
0.075145
0.0848834
0.09198
0.0857833
0.08434
0.0452989
0.0393122
3.01687
3.03694
2.87723
2.19692
0.726394
0.194136
0.259198
0.161465
0.0525545
0.0803512
0.0447147
0.0449257
0.0469166
0.0531682
0.059079
0.0632888
0.0709092
0.0804385
0.0903477
0.0993048
0.10588
0.100908
0.0994817
0.0692112
0.0651548
3.02178
3.04442
2.89308
2.23629
0.780381
0.196243
0.276391
0.169983
0.0895007
0.100896
0.0751366
0.0760045
0.0766544
0.081367
0.0865805
0.0919624
0.100417
0.110314
0.119521
0.128011
0.13454
0.131844
0.131042
0.110052
0.107527
3.02877
3.05573
2.91612
2.29423
0.866572
0.199666
0.30019
0.180747
0.125659
0.127401
0.104871
0.106219
0.105792
0.109886
0.115542
0.12254
0.132258
0.14323
0.152766
0.161547
0.168561
0.16816
0.168746
0.154323
0.153771
3.0372
3.07063
2.94473
2.36676
0.984544
0.203816
0.329322
0.189603
0.158468
0.158445
0.134253
0.136623
0.135312
0.139149
0.145224
0.153832
0.164955
0.177167
0.187687
0.197438
0.205726
0.207959
0.210609
0.201454
0.203852
3.04667
3.08866
2.97671
2.45042
1.1334
0.209949
0.3602
0.193533
0.189706
0.191207
0.163097
0.167305
0.165132
0.168726
0.175563
0.185733
0.198006
0.211693
0.223705
0.235052
0.245469
0.25072
0.255922
0.251743
0.257883
3.05694
3.10844
3.01114
2.54302
1.31026
0.22329
0.389897
0.195217
0.222769
0.224666
0.192042
0.198165
0.195624
0.198803
0.206491
0.217766
0.23111
0.246554
0.260553
0.274097
0.287425
0.296674
0.305599
0.306882
0.318487
3.06758
3.12918
3.04652
2.64153
1.50979
0.258673
0.415782
0.202919
0.258243
0.25716
0.222434
0.229135
0.226707
0.2294
0.237807
0.249629
0.264214
0.281368
0.298172
0.31434
0.331385
0.346194
0.361294
0.371285
0.392992
3.0782
3.15008
3.08145
2.74097
1.72621
0.338248
0.435171
0.229302
0.294651
0.287664
0.254827
0.25973
0.258413
0.260891
0.269595
0.281343
0.297276
0.315739
0.336128
0.355492
0.377445
0.399393
0.425332
0.449365
0.49456
3.08848
3.17037
3.11451
2.83735
1.95439
0.472132
0.444611
0.281852
0.329672
0.314546
0.290687
0.290027
0.290982
0.293275
0.301669
0.312965
0.329997
0.349587
0.374161
0.397204
0.424596
0.455612
0.497733
0.551213
0.662704
3.01457
3.03345
2.86997
2.17928
0.703894
0.191125
0.249602
0.160119
0.022486
0.067777
0.020459
0.0216558
0.0268165
0.0357233
0.0427822
0.0468247
0.054557
0.064262
0.0751617
0.0849008
0.092001
0.0858086
0.0843674
0.0453202
0.0393217
3.01688
3.03694
2.87724
2.19694
0.726422
0.194139
0.259216
0.161458
0.0525581
0.0803816
0.0447269
0.0449258
0.0469144
0.0531738
0.0590858
0.0633005
0.0709208
0.0804504
0.0903617
0.0993211
0.105901
0.100933
0.0995078
0.0692297
0.0651653
3.02178
3.04443
2.89308
2.23632
0.780409
0.19623
0.276397
0.169977
0.0895121
0.100912
0.0751224
0.0759734
0.0766227
0.0813318
0.0865702
0.0919674
0.100421
0.110327
0.119534
0.128026
0.13456
0.131866
0.131066
0.110069
0.107539
3.02877
3.05573
2.91613
2.29425
0.866595
0.199669
0.300202
0.180748
0.12568
0.127394
0.104835
0.106195
0.105778
0.109895
0.115569
0.122556
0.132268
0.143243
0.152776
0.16156
0.168579
0.168181
0.16877
0.15434
0.153784
3.0372
3.07063
2.94474
2.36679
0.984581
0.203813
0.329315
0.189629
0.158486
0.158391
0.134209
0.136645
0.135361
0.13923
0.145279
0.153863
0.164971
0.177179
0.187699
0.197452
0.205745
0.20798
0.210632
0.201471
0.203867
3.04667
3.08866
2.97671
2.45044
1.13344
0.209938
0.360182
0.193547
0.189705
0.191139
0.163061
0.167336
0.165187
0.168794
0.175617
0.185768
0.198027
0.211709
0.22372
0.235068
0.245488
0.25074
0.255943
0.25176
0.257898
3.05694
3.10845
3.01115
2.54303
1.31028
0.223267
0.389879
0.195207
0.22274
0.224596
0.192023
0.198173
0.195643
0.198835
0.206518
0.217787
0.23113
0.246573
0.26057
0.274113
0.287444
0.296694
0.30562
0.306898
0.318502
3.06758
3.12918
3.04652
2.64153
1.50979
0.258646
0.415767
0.202891
0.258184
0.257096
0.22242
0.229131
0.226708
0.229405
0.237799
0.249634
0.264231
0.28139
0.298188
0.314357
0.331403
0.346213
0.361313
0.371298
0.393005
3.0782
3.15008
3.08145
2.74096
1.72619
0.338225
0.435156
0.229274
0.294584
0.287608
0.25482
0.259718
0.258403
0.260885
0.269586
0.281356
0.29729
0.31576
0.336142
0.355507
0.377462
0.399409
0.425349
0.449377
0.494569
3.08848
3.17037
3.1145
2.83734
1.95435
0.472102
0.444595
0.281831
0.329614
0.314507
0.290679
0.29001
0.290965
0.293255
0.301649
0.312962
0.330002
0.349605
0.374175
0.397218
0.42461
0.455627
0.497748
0.551221
0.662706
3.01454
3.03341
2.86989
2.17911
0.703699
0.191283
0.249628
0.160102
0.0224699
0.0677461
0.0204004
0.0217643
0.0269993
0.0358717
0.042869
0.0468643
0.0545785
0.0642741
0.0751757
0.084924
0.0920355
0.0858493
0.0844073
0.0453491
0.0393298
3.01686
3.03692
2.8772
2.19689
0.726387
0.193905
0.258925
0.161837
0.0524522
0.0800413
0.0446498
0.0450114
0.0470597
0.0532626
0.059146
0.0633452
0.070957
0.0804674
0.0903764
0.0993407
0.105929
0.100964
0.0995388
0.0692451
0.0651668
3.02175
3.04439
2.89302
2.23619
0.78027
0.196257
0.27639
0.169974
0.089266
0.100997
0.0751737
0.0760426
0.0766946
0.0814136
0.0866197
0.0920004
0.100451
0.110337
0.119543
0.128038
0.134578
0.131886
0.131086
0.110074
0.107535
3.02874
3.05568
2.91604
2.29406
0.86634
0.199695
0.3002
0.180647
0.125469
0.127463
0.104875
0.106239
0.105835
0.109916
0.115543
0.122551
0.132276
0.14324
0.152778
0.161564
0.168589
0.168192
0.16878
0.154338
0.153776
3.03718
3.07058
2.94466
2.3666
0.984296
0.203849
0.329304
0.189533
0.158374
0.158431
0.134242
0.136588
0.13528
0.139094
0.145179
0.153818
0.164949
0.177162
0.187687
0.197446
0.205746
0.207985
0.210635
0.201464
0.203855
3.04665
3.08862
2.97664
2.45027
1.13315
0.209977
0.360184
0.19352
0.189684
0.191185
0.163098
0.167238
0.165061
0.168633
0.175492
0.185691
0.197977
0.211673
0.223694
0.235053
0.245482
0.250739
0.255941
0.25175
0.257883
3.05692
3.10841
3.01108
2.54286
1.30997
0.223301
0.389893
0.195238
0.222772
0.224659
0.19205
0.198103
0.195538
0.198701
0.206409
0.217704
0.231063
0.246523
0.260535
0.274091
0.287433
0.296689
0.305615
0.306885
0.318486
3.06757
3.12915
3.04647
2.64139
1.50951
0.258644
0.415798
0.202962
0.258263
0.257184
0.222448
0.229089
0.226631
0.229314
0.237723
0.249563
0.264163
0.281333
0.298149
0.314331
0.33139
0.346206
0.361306
0.371282
0.392986
3.07819
3.15006
3.08141
2.74086
1.72595
0.338155
0.435212
0.229336
0.294679
0.287728
0.254851
0.259708
0.258366
0.260824
0.269523
0.281283
0.297229
0.315704
0.336103
0.355481
0.377448
0.3994
0.42534
0.449361
0.494547
3.08848
3.17036
3.11448
2.83727
1.95416
0.471972
0.444671
0.281857
0.329698
0.314634
0.290726
0.290035
0.290964
0.293232
0.30162
0.312921
0.329955
0.34955
0.374136
0.397195
0.424598
0.455618
0.49774
0.551206
0.662684
3.0146
3.0335
2.87006
2.17944
0.704086
0.191352
0.249862
0.160233
0.0240383
0.0683513
0.0218402
0.0229066
0.0278691
0.0365783
0.0435208
0.0474873
0.0551078
0.0647125
0.0755512
0.0852445
0.0923225
0.0861403
0.0847043
0.0459027
0.039995
3.01692
3.037
2.87733
2.1971
0.726617
0.194389
0.259459
0.161649
0.0533002
0.0807
0.0453231
0.0455998
0.0476274
0.0538372
0.0596836
0.0638403
0.07137
0.0808224
0.0906983
0.0996295
0.106199
0.101237
0.0998187
0.0696335
0.0655832
3.02182
3.04449
2.89319
2.23652
0.780671
0.19638
0.276502
0.17033
0.0899042
0.101015
0.0755095
0.0764762
0.0771672
0.0818604
0.0870413
0.0923744
0.10075
0.110615
0.119801
0.128275
0.134804
0.132109
0.131312
0.110332
0.107796
3.02881
3.05579
2.91622
2.29444
0.866868
0.199788
0.300335
0.180948
0.12581
0.127639
0.10519
0.106513
0.106095
0.110187
0.115855
0.122834
0.132527
0.143478
0.152992
0.161761
0.168778
0.168377
0.168967
0.154536
0.153969
3.03723
3.07068
2.94481
2.36694
0.984793
0.203939
0.3295
0.189648
0.158501
0.158703
0.134516
0.136798
0.135501
0.139344
0.145449
0.15406
0.165184
0.17737
0.187869
0.197613
0.205905
0.20814
0.210793
0.20163
0.204015
3.04669
3.0887
2.97677
2.45057
1.13363
0.210088
0.360358
0.193539
0.189738
0.191384
0.163286
0.167424
0.165317
0.168926
0.17578
0.185946
0.198202
0.211857
0.223855
0.235199
0.245619
0.250873
0.256078
0.251892
0.258023
3.05696
3.10848
3.0112
2.54316
1.31051
0.223443
0.390015
0.195267
0.222861
0.22481
0.192063
0.198282
0.195815
0.199017
0.206719
0.217961
0.231278
0.246692
0.260682
0.274223
0.287555
0.296806
0.305734
0.307006
0.318607
3.0676
3.12922
3.04657
2.64167
1.51005
0.258826
0.41587
0.20301
0.258376
0.257281
0.222469
0.229237
0.226864
0.229577
0.237997
0.249802
0.264368
0.281489
0.298283
0.314448
0.331497
0.346308
0.361408
0.371384
0.393089
3.07822
3.15011
3.0815
2.74109
1.72645
0.338407
0.435237
0.229423
0.294767
0.287747
0.254868
0.25982
0.258539
0.261039
0.269764
0.281503
0.297414
0.315844
0.336227
0.355588
0.377543
0.399486
0.425426
0.449448
0.49463
3.0885
3.1704
3.11454
2.83744
1.9546
0.472316
0.444661
0.28199
0.329739
0.314605
0.290695
0.290109
0.291074
0.293391
0.3018
0.313091
0.330115
0.349683
0.374249
0.397293
0.424683
0.455688
0.497807
0.55127
0.662737
3.09817
3.18952
3.14457
2.92352
2.17579
0.683234
0.44679
0.354882
0.357087
0.338663
0.330341
0.31987
0.324541
0.326493
0.334172
0.344725
0.362281
0.383076
0.411228
0.437899
0.47236
0.513593
0.575871
0.667313
0.857544
3.107
3.20719
3.17148
2.99754
2.37792
0.973723
0.440642
0.433364
0.369358
0.36381
0.369199
0.350353
0.358798
0.360108
0.36654
0.376864
0.39347
0.415634
0.446194
0.478139
0.518529
0.568902
0.645428
0.75547
0.952533
3.11488
3.22314
3.19512
3.06012
2.56442
1.31322
0.420742
0.499961
0.366809
0.393646
0.404189
0.385001
0.393349
0.39467
0.399437
0.409291
0.422998
0.446693
0.478642
0.516127
0.559786
0.615212
0.69752
0.805392
0.980902
3.12174
3.2371
3.21527
3.1116
2.72991
1.66377
0.42141
0.54435
0.366133
0.428166
0.436387
0.423926
0.4274
0.429355
0.432364
0.441435
0.451185
0.47539
0.507007
0.54951
0.596991
0.654353
0.734649
0.836533
0.980052
3.12758
3.24898
3.23193
3.15304
2.86846
1.99269
0.527725
0.566898
0.398514
0.46352
0.465125
0.462635
0.45951
0.46364
0.465318
0.472157
0.479986
0.501753
0.532961
0.577061
0.628571
0.686394
0.765221
0.859292
0.97377
3.13236
3.25874
3.24532
3.1859
2.97855
2.28066
0.802864
0.582122
0.470512
0.489466
0.490988
0.496675
0.491554
0.499543
0.499124
0.501736
0.512359
0.526696
0.556903
0.597315
0.65247
0.710267
0.785058
0.869678
0.957398
3.13606
3.26638
3.25567
3.21151
3.0637
2.54628
1.24567
0.572681
0.5552
0.498131
0.515881
0.527264
0.526477
0.534982
0.531705
0.531942
0.543436
0.550747
0.576887
0.613497
0.666982
0.723198
0.790455
0.863916
0.941126
3.13856
3.27202
3.26341
3.23079
3.12475
2.75527
1.71433
0.552979
0.614629
0.500562
0.543165
0.556473
0.560398
0.566868
0.56527
0.563911
0.571735
0.578825
0.595234
0.628251
0.672536
0.726449
0.787997
0.855943
0.928914
3.13977
3.2759
3.26923
3.24591
3.17054
2.91066
2.08709
0.667524
0.657837
0.536058
0.573562
0.58335
0.591471
0.593939
0.600942
0.595221
0.599762
0.609942
0.614244
0.640219
0.679399
0.727336
0.783847
0.850488
0.919971
3.13972
3.27826
3.27358
3.2578
3.20597
3.03077
2.41791
1.01479
0.692132
0.605776
0.600474
0.608099
0.618555
0.623159
0.636714
0.628491
0.628108
0.634802
0.639435
0.652744
0.68681
0.72977
0.780042
0.841212
0.909824
3.13848
3.27965
3.27693
3.26632
3.23068
3.11613
2.71702
1.57347
0.708489
0.670759
0.626288
0.636556
0.646176
0.653528
0.672195
0.664397
0.656024
0.658196
0.66756
0.669985
0.693706
0.732252
0.778232
0.830973
0.893934
3.13666
3.28072
3.2792
3.27154
3.24715
3.17234
2.91895
2.10592
0.832222
0.717533
0.67172
0.67516
0.677222
0.682886
0.700746
0.700356
0.686195
0.683185
0.68848
0.69563
0.703286
0.734199
0.776164
0.824192
0.87826
3.13522
3.2812
3.28031
3.27593
3.26061
3.21261
3.05343
2.49733
1.18319
0.774613
0.72432
0.714065
0.713999
0.713647
0.717595
0.732309
0.718406
0.708063
0.709475
0.717674
0.721398
0.73841
0.773972
0.818965
0.86869
3.13461
3.28109
3.28166
3.27942
3.2701
3.24045
3.14555
2.81296
1.77194
0.854869
0.768146
0.759546
0.755328
0.749518
0.739881
0.754031
0.74783
0.736638
0.732436
0.735538
0.746067
0.750837
0.775064
0.814663
0.862013
3.13433
3.28061
3.28304
3.28202
3.27642
3.25833
3.20226
3.01532
2.36587
1.13587
0.822416
0.809875
0.797336
0.788279
0.770672
0.76825
0.773996
0.767527
0.757804
0.758403
0.765807
0.778303
0.785116
0.814544
0.857195
3.13415
3.28022
3.28412
3.28369
3.28055
3.27005
3.23769
3.13337
2.76536
1.68071
0.914961
0.855907
0.840935
0.829737
0.810764
0.793473
0.801486
0.796035
0.787842
0.781374
0.787915
0.801535
0.816237
0.824672
0.857282
3.13405
3.27998
3.28484
3.28466
3.28313
3.27742
3.25946
3.20355
3.01515
2.34831
1.20769
0.912221
0.893197
0.874763
0.857709
0.833321
0.823907
0.829519
0.820195
0.81058
0.810118
0.823212
0.843549
0.862582
0.871011
3.13401
3.27986
3.28527
3.28524
3.2847
3.28182
3.2723
3.2429
3.14841
2.81412
1.81481
1.02524
0.949362
0.927525
0.908097
0.884591
0.859193
0.861502
0.854823
0.843285
0.836852
0.846133
0.865148
0.891753
0.915478
3.13399
3.27984
3.28552
3.2856
3.28547
3.28428
3.27962
3.26475
3.21875
3.06539
2.51023
1.40748
1.02494
0.989797
0.963324
0.940935
0.909882
0.891034
0.894525
0.880961
0.86772
0.870288
0.890371
0.915951
0.947664
3.13399
3.27989
3.28555
3.28583
3.28597
3.28568
3.28354
3.27628
3.25399
3.18425
2.94171
2.13364
1.23225
1.05898
1.02936
0.999578
0.972264
0.936999
0.930592
0.921758
0.903071
0.897244
0.912727
0.942536
0.974211
3.13398
3.27992
3.28553
3.28598
3.28619
3.28633
3.28547
3.282
3.27134
3.23992
3.13994
2.78231
1.80971
1.17934
1.10017
1.06623
1.03504
0.999205
0.967498
0.965798
0.947834
0.929313
0.937555
0.965349
0.999739
3.13398
3.27992
3.28552
3.28603
3.28629
3.28661
3.28633
3.28461
3.27937
3.26494
3.22325
3.08605
2.58507
1.59917
1.19298
1.13994
1.10123
1.06654
1.02298
1.00452
0.991731
0.972145
0.964597
0.989641
1.02392
3.13398
3.27992
3.28552
3.28605
3.28632
3.2867
3.28667
3.28566
3.28273
3.27577
3.25758
3.20425
3.02441
2.38731
1.51154
1.22935
1.17498
1.13341
1.09143
1.04608
1.03623
1.01931
1.00707
1.0125
1.04818
3.13398
3.27993
3.28552
3.28605
3.28632
3.28672
3.28675
3.28597
3.28368
3.27994
3.27126
3.24858
3.18365
2.96745
2.25852
1.49379
1.26602
1.20383
1.15797
1.10565
1.07644
1.06563
1.05415
1.05208
1.06882
3.13398
3.27992
3.28552
3.28605
3.28632
3.28672
3.28675
3.286
3.28377
3.28129
3.27569
3.26426
3.23779
3.16455
2.92332
2.19907
1.52027
1.28947
1.22321
1.1718
1.12006
1.11476
1.10375
1.09735
1.10206
3.13398
3.27993
3.28552
3.28605
3.28632
3.28672
3.28676
3.28601
3.28378
3.28139
3.27647
3.26853
3.25509
3.22387
3.14243
2.8951
2.21382
1.5639
1.29375
1.23328
1.17705
1.15962
1.15423
1.14321
1.13934
3.13398
3.27992
3.28552
3.28605
3.28632
3.28671
3.28676
3.28601
3.28378
3.28139
3.27653
3.26863
3.25848
3.23816
3.19903
3.11214
2.88007
2.28654
1.61187
1.30373
1.23654
1.20425
1.19743
1.18582
1.17617
3.13398
3.27992
3.28552
3.28605
3.28632
3.28672
3.28676
3.28601
3.28378
3.28139
3.27653
3.26863
3.2586
3.23844
3.20922
3.15528
3.05131
2.83258
2.35538
1.75526
1.40839
1.27092
1.22548
1.21323
1.20298
3.13398
3.27992
3.28552
3.28605
3.28632
3.28671
3.28676
3.28601
3.28378
3.2814
3.27654
3.26863
3.2586
3.23841
3.2095
3.15725
3.07028
2.92238
2.63727
2.2376
1.86968
1.61906
1.44127
1.2953
1.21964
3.13398
3.27992
3.28552
3.28605
3.28632
3.28672
3.28676
3.28601
3.28378
3.28139
3.27653
3.26863
3.2586
3.2384
3.20951
3.15737
3.07047
2.92732
2.6561
2.30714
1.99655
1.78839
1.66329
1.55936
1.44476
3.13398
3.27992
3.28552
3.28605
3.28632
3.28671
3.28676
3.28601
3.28378
3.2814
3.27654
3.26863
3.25861
3.23841
3.20953
3.15739
3.07053
2.92763
2.65693
2.31155
2.0062
1.80841
1.70314
1.63902
1.58703
3.13398
3.27992
3.28552
3.28605
3.28632
3.28671
3.28676
3.28601
3.28378
3.2814
3.27654
3.26863
3.2586
3.2384
3.2095
3.1574
3.07049
2.92755
2.65683
2.31154
2.00632
1.80932
1.70593
1.64793
1.61164
3.13398
3.27992
3.28551
3.28605
3.28632
3.28671
3.28675
3.28601
3.28378
3.2814
3.27654
3.26863
3.25861
3.23841
3.20951
3.15742
3.07052
2.92758
2.65689
2.3116
2.0064
1.80948
1.70628
1.64891
1.61443
3.13398
3.27992
3.28552
3.28605
3.28632
3.28671
3.28675
3.28601
3.28378
3.2814
3.27654
3.26863
3.25861
3.23841
3.20952
3.15739