/*--------------------------------*- C++ -*----------------------------------*\
| =========                 |                                                 |
| \\      /  F ield         | OpenFOAM: The Open Source CFD Toolbox           |
|  \\    /   O peration     | Version:  4.1                                   |
|   \\  /    A nd           | Web:      www.OpenFOAM.org                      |
|    \\/     M anipulation  |                                                 |
\*---------------------------------------------------------------------------*/
FoamFile
{
    version     2.0;
    format      ascii;
    class       volScalarField;
    location    "0.58";
    object      p;
}
// * * * * * * * * * * * * * * * * * * * * * * * * * * * * * * * * * * * * * //

dimensions      [1 -1 -2 0 0 0 0];

internalField   nonuniform List<scalar> 
52500
(
0.0932829
0.0817515
0.0920505
0.146856
0.41703
1.64899
1.3776
0.889811
1.02517
1.04233
0.927724
0.871326
0.810984
0.747615
0.690711
0.638776
0.592336
0.552241
0.521971
0.503155
0.493756
0.495963
0.504785
0.523533
0.541583
0.0932198
0.0814537
0.0915194
0.144945
0.408268
1.63158
1.39127
0.893014
1.02169
1.04605
0.929849
0.872972
0.812688
0.749248
0.692222
0.640049
0.593446
0.553343
0.5232
0.504303
0.49503
0.497227
0.506061
0.525512
0.54419
0.093088
0.080821
0.0903813
0.140843
0.389353
1.59177
1.42027
0.897354
1.01306
1.05265
0.931903
0.874125
0.814068
0.750442
0.693226
0.640793
0.593835
0.553666
0.523711
0.504455
0.495245
0.497236
0.505949
0.525865
0.544969
0.0929048
0.0798884
0.0887301
0.135018
0.362965
1.52129
1.46788
0.904025
0.999055
1.06144
0.935455
0.875794
0.816191
0.752498
0.694918
0.641893
0.594519
0.554382
0.524591
0.504688
0.495338
0.497168
0.505655
0.525523
0.544604
0.0926949
0.0786976
0.0866782
0.12809
0.332087
1.41673
1.53387
0.914748
0.980813
1.07147
0.941167
0.877944
0.818729
0.755018
0.697052
0.643331
0.595734
0.555538
0.525521
0.504944
0.495175
0.496734
0.504865
0.524601
0.54352
0.092468
0.0772955
0.0843914
0.120598
0.299129
1.27086
1.61953
0.931632
0.960537
1.0798
0.94987
0.879821
0.8219
0.758257
0.699595
0.645192
0.597432
0.557094
0.526409
0.505037
0.494499
0.495485
0.503065
0.522323
0.541678
0.0922232
0.0757708
0.0819444
0.112902
0.265813
1.09423
1.71104
0.956835
0.940938
1.08489
0.961313
0.881785
0.825472
0.762184
0.702371
0.647371
0.599695
0.558934
0.52739
0.504871
0.492939
0.492821
0.499532
0.517585
0.537692
0.0919705
0.0741894
0.0794454
0.105326
0.23244
0.906028
1.78802
0.997037
0.91849
1.08789
0.974277
0.883604
0.829386
0.766428
0.705345
0.650365
0.602472
0.561091
0.528334
0.504394
0.490744
0.488486
0.493547
0.508241
0.528398
0.0917187
0.0726145
0.0769908
0.0981891
0.200254
0.719014
1.83516
1.06326
0.891535
1.08467
0.987228
0.885839
0.833577
0.770584
0.70846
0.653914
0.60552
0.563656
0.529379
0.50363
0.487677
0.481987
0.483977
0.491969
0.5082
0.0914749
0.0711044
0.0746769
0.0915963
0.170379
0.559583
1.82754
1.15741
0.864767
1.07059
1.00796
0.889357
0.837971
0.774489
0.711717
0.65787
0.609061
0.566538
0.530557
0.502609
0.483824
0.47302
0.469595
0.46791
0.46744
0.0932849
0.0817585
0.0920622
0.146894
0.41719
1.64907
1.37732
0.889749
1.02526
1.04236
0.927665
0.871251
0.810908
0.74755
0.690658
0.638737
0.592307
0.55222
0.521958
0.50315
0.49376
0.495973
0.504802
0.523559
0.541619
0.0932214
0.0814591
0.0915278
0.144969
0.408334
1.63178
1.39102
0.892951
1.02186
1.04611
0.929736
0.872951
0.812591
0.749179
0.692169
0.640011
0.593417
0.55332
0.523185
0.504296
0.495032
0.497235
0.506076
0.525536
0.544224
0.0930898
0.0808269
0.0903907
0.140871
0.389461
1.59195
1.42007
0.897269
1.01322
1.05261
0.93183
0.874097
0.814027
0.750379
0.693175
0.640763
0.593798
0.553639
0.523692
0.504446
0.495244
0.497242
0.505961
0.525885
0.544998
0.0929066
0.0798954
0.0887415
0.135052
0.363097
1.52156
1.4676
0.90397
0.999155
1.06136
0.935405
0.875784
0.816175
0.752395
0.694862
0.641857
0.594475
0.554347
0.524568
0.504675
0.495334
0.497171
0.505664
0.525539
0.544624
0.0926965
0.0787047
0.0866891
0.128122
0.332212
1.41712
1.5335
0.914704
0.980932
1.07132
0.941138
0.877895
0.818707
0.754945
0.697002
0.64329
0.595687
0.555502
0.525494
0.504925
0.495168
0.496733
0.50487
0.524612
0.543533
0.0924694
0.0773022
0.0844015
0.120627
0.299238
1.27132
1.6191
0.931566
0.960609
1.07966
0.949815
0.879831
0.82188
0.758209
0.699555
0.645148
0.597387
0.557054
0.526379
0.505015
0.494484
0.495476
0.503062
0.522328
0.541685
0.0922244
0.0757769
0.0819538
0.112929
0.265922
1.09477
1.71061
0.956743
0.941028
1.08474
0.961164
0.881785
0.825438
0.762135
0.702342
0.647332
0.599656
0.558897
0.527361
0.504847
0.492918
0.492807
0.499521
0.517581
0.537691
0.0919716
0.0741946
0.0794534
0.105349
0.232539
0.906575
1.78769
0.996844
0.918615
1.08778
0.974085
0.883584
0.829339
0.766383
0.705302
0.650322
0.602437
0.561057
0.528304
0.504368
0.490721
0.488468
0.493531
0.508228
0.52839
0.0917196
0.0726188
0.0769974
0.0982078
0.200336
0.71947
1.83497
1.06295
0.891642
1.08459
0.987013
0.885806
0.833531
0.770543
0.708421
0.653878
0.605488
0.563628
0.529349
0.503602
0.48765
0.481963
0.483954
0.49195
0.508184
0.0914756
0.0711078
0.074682
0.0916109
0.170445
0.559907
1.82753
1.15705
0.86481
1.07054
1.00774
0.889329
0.837918
0.774451
0.711682
0.657841
0.609033
0.566512
0.530529
0.50258
0.483793
0.472991
0.469566
0.467885
0.467416
0.0932841
0.0817554
0.0920569
0.146877
0.417113
1.64904
1.37747
0.889805
1.02518
1.04224
0.927699
0.871291
0.810917
0.74757
0.69067
0.638742
0.592308
0.552212
0.521942
0.503131
0.49374
0.495957
0.504792
0.52356
0.54162
0.0932208
0.081457
0.0915248
0.144961
0.408325
1.63168
1.39115
0.892995
1.02173
1.046
0.929802
0.872928
0.812635
0.749201
0.692177
0.640012
0.593418
0.553314
0.523171
0.504278
0.495013
0.49722
0.506067
0.525537
0.544225
0.093089
0.0808241
0.0903863
0.140858
0.38941
1.59187
1.42016
0.897306
1.0131
1.05263
0.93185
0.87408
0.814017
0.750392
0.693181
0.640759
0.593805
0.553635
0.523681
0.504429
0.495228
0.497228
0.505953
0.525886
0.544999
0.0929058
0.0798917
0.0887355
0.135034
0.363028
1.52143
1.46775
0.903962
0.999089
1.06144
0.935412
0.875756
0.816141
0.752457
0.694877
0.641859
0.594486
0.554349
0.52456
0.504661
0.49532
0.497158
0.505657
0.52554
0.544625
0.0926957
0.0787009
0.0866833
0.128105
0.332145
1.41692
1.53372
0.914667
0.980852
1.07148
0.941116
0.877918
0.818686
0.754967
0.697008
0.643295
0.595704
0.555509
0.52549
0.504915
0.495155
0.496723
0.504864
0.524613
0.543535
0.0924688
0.0772988
0.0843963
0.120612
0.299181
1.27108
1.61935
0.931538
0.960561
1.0798
0.949855
0.879811
0.82188
0.758219
0.699557
0.645156
0.597401
0.557062
0.526377
0.505008
0.494476
0.495469
0.503056
0.52233
0.541686
0.092224
0.075774
0.0819493
0.112916
0.265867
1.0945
1.71085
0.956742
0.940971
1.08489
0.961228
0.88177
0.825459
0.762153
0.70234
0.647339
0.599665
0.558903
0.52736
0.504842
0.492912
0.492801
0.499518
0.517584
0.537692
0.0919713
0.0741925
0.07945
0.105339
0.232494
0.906315
1.78786
0.996903
0.918526
1.0879
0.974173
0.883591
0.829372
0.766399
0.705312
0.650334
0.602444
0.561061
0.528304
0.504363
0.490715
0.488463
0.493529
0.50823
0.528391
0.0917194
0.0726173
0.076995
0.0982005
0.200302
0.719273
1.83505
1.06306
0.89157
1.08466
0.987128
0.885809
0.833556
0.770554
0.708428
0.653882
0.60549
0.563628
0.529349
0.503597
0.487644
0.48196
0.483952
0.491952
0.508186
0.0914755
0.0711069
0.0746806
0.091606
0.170421
0.559781
1.82752
1.15718
0.864779
1.07054
1.00783
0.889326
0.837937
0.774456
0.711687
0.657846
0.609034
0.566511
0.530527
0.502576
0.483788
0.472988
0.469566
0.46789
0.467418
0.0932842
0.0817559
0.0920578
0.14688
0.417128
1.64906
1.37745
0.889817
1.0252
1.04224
0.927695
0.871282
0.810906
0.74756
0.690663
0.638737
0.592308
0.552214
0.521948
0.503144
0.49376
0.495983
0.504824
0.523598
0.541655
0.0932209
0.0814574
0.0915255
0.144964
0.408335
1.6317
1.39113
0.893002
1.02175
1.046
0.929791
0.872921
0.812625
0.749194
0.69217
0.640008
0.593419
0.553316
0.523176
0.504289
0.495033
0.497245
0.506098
0.525575
0.544259
0.093089
0.0808245
0.0903869
0.14086
0.38942
1.5919
1.42015
0.897302
1.01313
1.05262
0.931835
0.874077
0.814014
0.750391
0.693177
0.64076
0.593804
0.553635
0.523685
0.50444
0.495246
0.497252
0.505983
0.525922
0.545032
0.0929058
0.0798921
0.0887361
0.135036
0.363035
1.52144
1.46774
0.903959
0.999114
1.06143
0.935401
0.875762
0.816151
0.752439
0.694874
0.64186
0.594484
0.554347
0.524563
0.50467
0.495335
0.49718
0.505685
0.525574
0.544656
0.0926958
0.0787014
0.086684
0.128107
0.332153
1.41694
1.53369
0.914678
0.980861
1.07144
0.94112
0.877916
0.818693
0.754964
0.697009
0.643297
0.595701
0.555507
0.525491
0.504921
0.495169
0.496743
0.50489
0.524646
0.543564
0.0924689
0.0772992
0.0843969
0.120613
0.299188
1.27111
1.61931
0.931559
0.960554
1.07977
0.949855
0.879823
0.821882
0.75822
0.699562
0.645159
0.597398
0.557059
0.526377
0.505011
0.494486
0.495486
0.503079
0.522361
0.541713
0.092224
0.0757743
0.0819497
0.112917
0.265872
1.09452
1.7108
0.956752
0.940972
1.08485
0.961227
0.881779
0.825453
0.762149
0.702345
0.647344
0.599665
0.558901
0.527359
0.504843
0.492919
0.492816
0.499537
0.51761
0.537716
0.0919713
0.0741925
0.0794501
0.105339
0.232494
0.906316
1.78783
0.996895
0.918545
1.08786
0.974159
0.883582
0.829361
0.766395
0.705307
0.650331
0.60244
0.56106
0.528302
0.504363
0.49072
0.488476
0.493545
0.508252
0.528412
0.0917194
0.0726172
0.0769948
0.0982
0.2003
0.719256
1.83503
1.06304
0.891583
1.08464
0.987104
0.885815
0.833554
0.770558
0.708425
0.653882
0.605488
0.563627
0.529347
0.503597
0.487648
0.48197
0.483963
0.491967
0.508202
0.0914755
0.0711067
0.0746802
0.0916051
0.170417
0.559758
1.8275
1.15716
0.864776
1.07056
1.00783
0.889333
0.837937
0.774462
0.711685
0.657843
0.609031
0.56651
0.530525
0.502574
0.483789
0.472995
0.469576
0.467903
0.467429
0.093284
0.0817545
0.0920549
0.146868
0.417063
1.64892
1.37752
0.889837
1.02521
1.04226
0.927711
0.871305
0.810931
0.74758
0.690674
0.638741
0.592308
0.552212
0.521944
0.503138
0.493752
0.495972
0.504809
0.523576
0.541629
0.0932207
0.081456
0.0915227
0.144952
0.408274
1.63155
1.39121
0.893022
1.02175
1.04601
0.929804
0.872939
0.812649
0.749215
0.692182
0.640014
0.59342
0.553314
0.523172
0.504284
0.495025
0.497234
0.506083
0.525553
0.544234
0.0930888
0.0808231
0.0903843
0.14085
0.389366
1.59174
1.42023
0.89732
1.01313
1.05262
0.931842
0.874092
0.814033
0.75041
0.693192
0.640769
0.593807
0.553634
0.523682
0.504435
0.495239
0.497242
0.505968
0.525902
0.545007
0.0929056
0.0798907
0.0887335
0.135026
0.362987
1.52128
1.46782
0.903979
0.999098
1.06142
0.935395
0.875772
0.816168
0.752458
0.694891
0.641872
0.594488
0.554347
0.52456
0.504666
0.495328
0.49717
0.505671
0.525555
0.544632
0.0926957
0.0787
0.0866816
0.128098
0.332112
1.41677
1.53378
0.914703
0.98083
1.07142
0.94112
0.87791
0.8187
0.754983
0.697028
0.643311
0.595707
0.555508
0.525489
0.504918
0.495163
0.496733
0.504877
0.524628
0.543542
0.0924687
0.0772979
0.0843948
0.120606
0.299156
1.27093
1.61939
0.931585
0.960529
1.07976
0.949813
0.879798
0.82187
0.758231
0.69958
0.645175
0.597407
0.557062
0.526376
0.505008
0.494481
0.495477
0.503068
0.522343
0.541691
0.0922238
0.075773
0.0819476
0.11291
0.265841
1.09434
1.71088
0.95677
0.940935
1.08484
0.961254
0.881754
0.825433
0.762154
0.702362
0.647361
0.599676
0.558905
0.527359
0.50484
0.492914
0.492807
0.499526
0.517595
0.537696
0.0919711
0.0741912
0.0794481
0.105333
0.232466
0.906146
1.78789
0.996928
0.918502
1.08784
0.974202
0.883559
0.829337
0.766393
0.705321
0.650346
0.602452
0.561065
0.528303
0.504361
0.490716
0.488468
0.493535
0.508238
0.528395
0.0917192
0.072616
0.076993
0.0981949
0.200276
0.719119
1.83506
1.06311
0.891542
1.08463
0.987132
0.885795
0.833533
0.770554
0.708439
0.653899
0.6055
0.563634
0.529349
0.503596
0.487645
0.481963
0.483955
0.491954
0.508188
0.0914753
0.0711057
0.0746788
0.091601
0.170398
0.559664
1.82749
1.15724
0.86474
1.07058
1.00788
0.88932
0.837929
0.774465
0.711699
0.657859
0.609043
0.566516
0.530528
0.502574
0.483787
0.47299
0.469569
0.467892
0.467419
0.0932841
0.0817552
0.0920562
0.146873
0.417089
1.64897
1.37749
0.889835
1.02521
1.04224
0.927703
0.871294
0.810919
0.747568
0.690665
0.638735
0.592304
0.55221
0.521943
0.503139
0.493756
0.495979
0.504819
0.523591
0.541644
0.0932208
0.0814567
0.0915239
0.144957
0.408296
1.6316
1.39117
0.893019
1.02176
1.046
0.929794
0.872929
0.812637
0.749203
0.692173
0.640007
0.593416
0.553312
0.523172
0.504285
0.495029
0.497241
0.506093
0.525568
0.544249
0.0930889
0.0808237
0.0903854
0.140854
0.389387
1.5918
1.4202
0.897314
1.01313
1.0526
0.931831
0.874081
0.814021
0.750399
0.693183
0.640762
0.593803
0.553632
0.523682
0.504436
0.495242
0.497248
0.505978
0.525916
0.545022
0.0929057
0.0798913
0.0887345
0.13503
0.363005
1.52134
1.46779
0.903972
0.999104
1.0614
0.935384
0.875761
0.816156
0.752447
0.694882
0.641865
0.594485
0.554346
0.524561
0.504667
0.495332
0.497177
0.505681
0.525568
0.544647
0.0926957
0.0787005
0.0866825
0.128101
0.332128
1.41683
1.53375
0.914696
0.980836
1.07141
0.941109
0.877901
0.818689
0.754971
0.697018
0.643304
0.595704
0.555507
0.52549
0.504919
0.495167
0.49674
0.504886
0.52464
0.543556
0.0924688
0.0772983
0.0843955
0.120609
0.299168
1.271
1.61936
0.931577
0.960534
1.07975
0.949802
0.87979
0.82186
0.75822
0.699571
0.645168
0.597404
0.557061
0.526377
0.50501
0.494485
0.495483
0.503076
0.522356
0.541706
0.0922239
0.0757734
0.0819483
0.112913
0.265852
1.0944
1.71086
0.956762
0.94094
1.08483
0.961243
0.881746
0.825424
0.762144
0.702353
0.647355
0.599673
0.558905
0.52736
0.504843
0.492919
0.492815
0.499534
0.517606
0.537709
0.0919711
0.0741916
0.0794486
0.105335
0.232475
0.906203
1.78787
0.996915
0.918509
1.08783
0.974191
0.883552
0.829328
0.766383
0.705313
0.650342
0.602449
0.561065
0.528304
0.504364
0.49072
0.488475
0.493543
0.508248
0.528406
0.0917193
0.0726163
0.0769935
0.0981963
0.200284
0.719164
1.83506
1.06309
0.891549
1.08462
0.98712
0.885789
0.833525
0.770545
0.708431
0.653894
0.605498
0.563634
0.52935
0.503598
0.487649
0.48197
0.483962
0.491963
0.508196
0.0914754
0.071106
0.0746791
0.0916021
0.170403
0.559694
1.8275
1.15722
0.864745
1.07058
1.00787
0.889316
0.837921
0.774457
0.711692
0.657855
0.609041
0.566516
0.530529
0.502576
0.483791
0.472996
0.469575
0.4679
0.467424
0.0932842
0.0817559
0.0920578
0.14688
0.417129
1.64906
1.37745
0.889817
1.0252
1.04224
0.927695
0.871281
0.810906
0.74756
0.690663
0.638737
0.592308
0.552214
0.521948
0.503144
0.49376
0.495983
0.504824
0.523598
0.541655
0.0932209
0.0814574
0.0915255
0.144964
0.408335
1.6317
1.39113
0.893002
1.02175
1.046
0.929791
0.872921
0.812625
0.749194
0.692169
0.640008
0.593419
0.553316
0.523176
0.504289
0.495033
0.497245
0.506098
0.525575
0.54426
0.093089
0.0808245
0.0903869
0.14086
0.38942
1.5919
1.42015
0.897302
1.01313
1.05262
0.931835
0.874077
0.814014
0.75039
0.693177
0.64076
0.593804
0.553635
0.523685
0.50444
0.495246
0.497252
0.505983
0.525923
0.545032
0.0929058
0.0798921
0.0887361
0.135036
0.363035
1.52144
1.46774
0.903959
0.999114
1.06143
0.935401
0.875762
0.816151
0.752439
0.694874
0.64186
0.594484
0.554347
0.524563
0.50467
0.495336
0.497181
0.505685
0.525575
0.544656
0.0926958
0.0787014
0.086684
0.128107
0.332153
1.41694
1.53369
0.914678
0.980862
1.07144
0.94112
0.877916
0.818692
0.754964
0.697009
0.643297
0.595701
0.555507
0.525491
0.504921
0.495169
0.496743
0.50489
0.524646
0.543564
0.0924689
0.0772992
0.084397
0.120613
0.299188
1.27111
1.61931
0.931559
0.960554
1.07977
0.949855
0.879823
0.821882
0.75822
0.699562
0.645159
0.597398
0.557059
0.526377
0.505011
0.494486
0.495486
0.503079
0.522361
0.541713
0.092224
0.0757743
0.0819497
0.112917
0.265872
1.09452
1.7108
0.956752
0.940972
1.08485
0.961227
0.881779
0.825453
0.762149
0.702345
0.647343
0.599665
0.558901
0.527359
0.504843
0.492919
0.492816
0.499537
0.517611
0.537716
0.0919713
0.0741925
0.0794501
0.105339
0.232494
0.906317
1.78783
0.996895
0.918545
1.08786
0.974159
0.883582
0.829361
0.766395
0.705307
0.650331
0.60244
0.56106
0.528302
0.504363
0.49072
0.488476
0.493545
0.508252
0.528412
0.0917194
0.0726172
0.0769948
0.0982
0.2003
0.719257
1.83503
1.06304
0.891583
1.08464
0.987104
0.885815
0.833554
0.770557
0.708425
0.653882
0.605488
0.563627
0.529347
0.503597
0.487648
0.48197
0.483963
0.491967
0.508202
0.0914755
0.0711067
0.0746802
0.0916051
0.170417
0.559758
1.8275
1.15716
0.864776
1.07056
1.00782
0.889333
0.837937
0.774462
0.711684
0.657843
0.609031
0.56651
0.530525
0.502574
0.483789
0.472995
0.469576
0.467903
0.467429
0.0932841
0.0817554
0.0920569
0.146877
0.417113
1.64904
1.37747
0.889805
1.02518
1.04224
0.927699
0.871291
0.810917
0.74757
0.69067
0.638742
0.592308
0.552212
0.521942
0.503131
0.49374
0.495957
0.504792
0.52356
0.54162
0.0932208
0.081457
0.0915248
0.144961
0.408325
1.63168
1.39115
0.892995
1.02173
1.046
0.929802
0.872928
0.812635
0.749201
0.692177
0.640012
0.593418
0.553314
0.523171
0.504278
0.495013
0.49722
0.506067
0.525537
0.544225
0.093089
0.0808241
0.0903863
0.140858
0.38941
1.59187
1.42016
0.897306
1.0131
1.05263
0.93185
0.87408
0.814017
0.750392
0.693181
0.640759
0.593805
0.553635
0.523681
0.504429
0.495228
0.497228
0.505953
0.525886
0.544999
0.0929058
0.0798917
0.0887355
0.135034
0.363028
1.52143
1.46775
0.903962
0.999089
1.06144
0.935412
0.875756
0.816141
0.752457
0.694877
0.641859
0.594486
0.554349
0.52456
0.504661
0.49532
0.497158
0.505657
0.52554
0.544625
0.0926957
0.0787009
0.0866833
0.128105
0.332145
1.41692
1.53372
0.914667
0.980852
1.07148
0.941116
0.877918
0.818686
0.754967
0.697008
0.643295
0.595704
0.555509
0.52549
0.504915
0.495155
0.496723
0.504864
0.524613
0.543535
0.0924688
0.0772988
0.0843963
0.120612
0.299181
1.27108
1.61935
0.931538
0.960561
1.0798
0.949855
0.879811
0.82188
0.758219
0.699557
0.645156
0.597401
0.557062
0.526377
0.505008
0.494476
0.495469
0.503056
0.52233
0.541686
0.092224
0.075774
0.0819493
0.112916
0.265867
1.0945
1.71085
0.956742
0.940971
1.08489
0.961228
0.88177
0.825459
0.762153
0.70234
0.647339
0.599665
0.558903
0.52736
0.504842
0.492912
0.492801
0.499518
0.517584
0.537692
0.0919713
0.0741925
0.07945
0.105339
0.232494
0.906315
1.78786
0.996903
0.918526
1.0879
0.974173
0.883591
0.829372
0.766399
0.705312
0.650334
0.602444
0.561061
0.528304
0.504363
0.490715
0.488463
0.493529
0.50823
0.528391
0.0917194
0.0726173
0.076995
0.0982005
0.200302
0.719273
1.83505
1.06306
0.89157
1.08466
0.987128
0.885809
0.833556
0.770554
0.708428
0.653882
0.60549
0.563628
0.529349
0.503597
0.487644
0.48196
0.483952
0.491952
0.508186
0.0914755
0.0711069
0.0746806
0.091606
0.170421
0.559781
1.82752
1.15718
0.864779
1.07054
1.00783
0.889326
0.837937
0.774456
0.711687
0.657846
0.609034
0.566511
0.530527
0.502576
0.483788
0.472988
0.469566
0.46789
0.467418
0.0932849
0.0817585
0.0920621
0.146894
0.41719
1.64907
1.37733
0.889749
1.02526
1.04236
0.927665
0.871251
0.810908
0.74755
0.690658
0.638737
0.592307
0.55222
0.521958
0.50315
0.49376
0.495973
0.504802
0.523559
0.541618
0.0932214
0.081459
0.0915278
0.144969
0.408333
1.63178
1.39103
0.892952
1.02186
1.04611
0.929736
0.872951
0.812591
0.749179
0.692169
0.640011
0.593417
0.55332
0.523185
0.504296
0.495032
0.497235
0.506076
0.525536
0.544223
0.0930897
0.0808269
0.0903906
0.14087
0.389461
1.59195
1.42007
0.897269
1.01322
1.05261
0.93183
0.874097
0.814027
0.75038
0.693175
0.640763
0.593798
0.553639
0.523692
0.504446
0.495244
0.497242
0.505961
0.525885
0.544997
0.0929066
0.0798954
0.0887414
0.135052
0.363096
1.52156
1.4676
0.903971
0.999154
1.06136
0.935405
0.875784
0.816175
0.752395
0.694862
0.641857
0.594475
0.554347
0.524568
0.504675
0.495333
0.49717
0.505664
0.525538
0.544623
0.0926965
0.0787047
0.0866891
0.128122
0.332212
1.41712
1.5335
0.914704
0.980932
1.07132
0.941138
0.877895
0.818707
0.754945
0.697003
0.64329
0.595687
0.555502
0.525494
0.504925
0.495167
0.496733
0.50487
0.524611
0.543533
0.0924694
0.0773021
0.0844015
0.120627
0.299238
1.27132
1.6191
0.931566
0.960608
1.07966
0.949816
0.879831
0.82188
0.758209
0.699555
0.645149
0.597387
0.557054
0.526379
0.505015
0.494484
0.495476
0.503061
0.522328
0.541684
0.0922244
0.0757769
0.0819538
0.112929
0.265922
1.09477
1.71061
0.956742
0.941028
1.08474
0.961164
0.881785
0.825438
0.762136
0.702342
0.647332
0.599656
0.558897
0.527361
0.504847
0.492918
0.492807
0.499521
0.517581
0.53769
0.0919716
0.0741946
0.0794534
0.105349
0.232539
0.906574
1.78769
0.996844
0.918614
1.08778
0.974085
0.883584
0.829339
0.766383
0.705302
0.650322
0.602437
0.561057
0.528304
0.504368
0.490721
0.488468
0.493531
0.508227
0.52839
0.0917196
0.0726188
0.0769974
0.0982078
0.200336
0.71947
1.83497
1.06295
0.891642
1.08459
0.987013
0.885806
0.833531
0.770543
0.708421
0.653878
0.605488
0.563628
0.529349
0.503602
0.48765
0.481963
0.483953
0.491949
0.508184
0.0914756
0.0711078
0.074682
0.0916109
0.170445
0.559906
1.82753
1.15705
0.864809
1.07054
1.00774
0.889329
0.837918
0.774451
0.711682
0.657841
0.609033
0.566512
0.530529
0.50258
0.483793
0.47299
0.469565
0.467885
0.467416
0.0932829
0.0817516
0.0920508
0.146859
0.417052
1.64901
1.37761
0.889887
1.02508
1.04233
0.927778
0.871334
0.81097
0.747609
0.690707
0.638775
0.592333
0.552242
0.521977
0.50316
0.493757
0.495954
0.504767
0.523505
0.541556
0.0932196
0.0814531
0.0915185
0.144944
0.408268
1.63163
1.3913
0.893031
1.02166
1.0461
0.92983
0.872986
0.812669
0.749249
0.692232
0.64005
0.593443
0.553344
0.523205
0.504307
0.49503
0.497218
0.506043
0.525482
0.544162
0.0930876
0.0808198
0.0903794
0.140838
0.389336
1.59181
1.42036
0.897292
1.01308
1.05276
0.931867
0.874099
0.814062
0.750473
0.693241
0.640795
0.593834
0.553667
0.523713
0.504457
0.495243
0.497227
0.50593
0.525835
0.544942
0.0929047
0.0798877
0.088729
0.135015
0.36296
1.52132
1.46797
0.903968
0.999053
1.06154
0.935428
0.875813
0.816211
0.752503
0.694933
0.641902
0.594523
0.554382
0.52459
0.504687
0.495333
0.497157
0.505636
0.525494
0.544575
0.092695
0.0786978
0.0866785
0.128091
0.332095
1.4168
1.53391
0.914751
0.98075
1.07153
0.941204
0.877952
0.818755
0.755032
0.697068
0.643345
0.59574
0.555538
0.525518
0.504941
0.495169
0.496723
0.504847
0.524571
0.543488
0.0924681
0.0772962
0.0843925
0.120601
0.299143
1.27095
1.61951
0.931689
0.960459
1.07985
0.949903
0.87986
0.821923
0.758281
0.699628
0.645212
0.597432
0.55709
0.526403
0.50503
0.494491
0.495472
0.503047
0.522293
0.541643
0.0922233
0.0757715
0.0819456
0.112906
0.265829
1.09433
1.71099
0.956879
0.940911
1.08488
0.961331
0.881823
0.825483
0.762195
0.702386
0.647386
0.599699
0.558931
0.527385
0.504863
0.492929
0.492809
0.499515
0.517555
0.537655
0.0919706
0.0741901
0.0794465
0.105329
0.232455
0.906115
1.78799
0.997035
0.918511
1.08779
0.974253
0.883595
0.829385
0.766439
0.705342
0.650364
0.602467
0.561086
0.528327
0.504385
0.490734
0.488473
0.49353
0.508215
0.528363
0.0917188
0.0726152
0.0769918
0.0981922
0.200267
0.719088
1.83515
1.0632
0.891557
1.08457
0.987177
0.885848
0.833581
0.770602
0.708454
0.653904
0.605507
0.56365
0.529371
0.50362
0.487665
0.481972
0.48396
0.491946
0.508168
0.091475
0.0711052
0.074678
0.0915992
0.170391
0.559643
1.82754
1.15732
0.864759
1.07058
1.00792
0.889348
0.837963
0.774503
0.711719
0.657867
0.609047
0.566529
0.530548
0.502598
0.483811
0.473005
0.469578
0.467888
0.467415
0.0912467
0.0696933
0.0725818
0.0859464
0.145153
0.431412
1.72335
1.2803
0.849473
1.04241
1.02515
0.896741
0.841943
0.778326
0.715375
0.662051
0.612805
0.56962
0.532083
0.501839
0.479461
0.463073
0.450204
0.426944
0.368097
0.0910395
0.0683977
0.0707074
0.081186
0.125385
0.338937
1.46527
1.42691
0.855628
1.00691
1.03761
0.907835
0.846001
0.782463
0.720237
0.666289
0.617144
0.572906
0.534272
0.501519
0.475189
0.453106
0.430843
0.396471
0.328981
0.0908559
0.067236
0.0690574
0.0771688
0.109839
0.267806
1.12583
1.5905
0.887059
0.96924
1.04341
0.924035
0.849349
0.786629
0.726227
0.671243
0.622395
0.576823
0.537075
0.501842
0.472308
0.445806
0.417679
0.379591
0.325947
0.0906971
0.0662224
0.067639
0.0738422
0.0978592
0.210174
0.791611
1.71788
0.953227
0.931487
1.04272
0.945796
0.853839
0.791793
0.733228
0.677624
0.628749
0.581899
0.54101
0.503169
0.472252
0.442861
0.41225
0.376145
0.328155
0.0905637
0.0653595
0.066447
0.0711437
0.0886899
0.166292
0.542738
1.75903
1.07257
0.886609
1.02991
0.959205
0.860978
0.799916
0.741004
0.685782
0.635047
0.587863
0.545398
0.506339
0.473298
0.443338
0.412576
0.377429
0.33449
0.0904581
0.0646405
0.0654616
0.0689811
0.0817315
0.134662
0.396064
1.68802
1.24147
0.853887
0.989698
0.961852
0.877591
0.809291
0.749451
0.69494
0.642877
0.594806
0.550941
0.512581
0.476747
0.445812
0.415096
0.382122
0.347811
0.0903818
0.0640583
0.06467
0.06728
0.0763843
0.111283
0.284149
1.2975
1.41025
0.852779
0.955261
0.966783
0.900303
0.818637
0.758962
0.704902
0.652504
0.603241
0.558669
0.5199
0.484299
0.452154
0.422094
0.392853
0.364795
0.0903397
0.0635957
0.0640467
0.0659906
0.0725667
0.0961592
0.203509
0.748037
1.53465
0.888216
0.937422
0.969543
0.918946
0.829811
0.77011
0.715359
0.663839
0.612335
0.568204
0.528942
0.495409
0.464603
0.436485
0.409583
0.38244
0.0903347
0.0632404
0.0635604
0.0649792
0.0697139
0.0860802
0.155512
0.482689
1.53618
1.01144
0.927135
0.967363
0.925371
0.844971
0.782687
0.726779
0.675631
0.62421
0.579582
0.5403
0.506921
0.477495
0.450771
0.42499
0.399076
0.0903645
0.0629837
0.0631992
0.0641966
0.0674832
0.0785207
0.122496
0.342767
1.42111
1.17155
0.921572
0.94648
0.922361
0.866166
0.796339
0.738778
0.688013
0.638717
0.59115
0.552481
0.518926
0.49037
0.464789
0.440125
0.415717
0.0904232
0.0628087
0.0629512
0.0636508
0.0659073
0.0730845
0.0989967
0.224646
0.975553
1.25448
0.938694
0.933748
0.920071
0.88075
0.809081
0.751949
0.701866
0.65393
0.60597
0.565363
0.532358
0.504067
0.479139
0.456235
0.433364
0.0904831
0.0627179
0.0628142
0.063283
0.0647868
0.0694734
0.0854855
0.153163
0.477904
1.25171
0.985008
0.936435
0.922997
0.889011
0.821822
0.765963
0.71584
0.668376
0.622489
0.579778
0.547033
0.519019
0.494765
0.473004
0.452048
0.0905105
0.0627813
0.0626467
0.0628908
0.0638521
0.0669119
0.0770082
0.116021
0.303535
1.13872
1.06469
0.9485
0.926388
0.890201
0.836399
0.782935
0.732604
0.685147
0.639629
0.597714
0.562003
0.535142
0.511575
0.490564
0.470933
0.0905132
0.0628725
0.0624448
0.0626013
0.0632069
0.065122
0.0711652
0.0927114
0.193993
0.772806
1.08148
0.983461
0.931225
0.892727
0.846843
0.799485
0.747919
0.700654
0.656339
0.616184
0.579779
0.5517
0.529341
0.509163
0.490375
0.0905111
0.0629434
0.0622976
0.0623907
0.0627658
0.0639522
0.0675694
0.0795109
0.127457
0.362241
1.01711
0.990136
0.9383
0.898874
0.857773
0.81719
0.766214
0.718783
0.674248
0.634197
0.599518
0.569818
0.54772
0.528815
0.510884
0.0905096
0.062991
0.062198
0.0622509
0.0624704
0.0631734
0.0653005
0.0720046
0.096169
0.209723
0.779238
0.983361
0.958041
0.9127
0.872899
0.83107
0.784161
0.737242
0.69317
0.654146
0.620285
0.591601
0.567835
0.550025
0.533063
0.0905087
0.0630201
0.0621354
0.0621634
0.0622854
0.0626828
0.0638825
0.0675178
0.0796634
0.129241
0.369681
0.911963
0.956396
0.93373
0.889915
0.844504
0.802974
0.757013
0.71353
0.675052
0.642419
0.615078
0.592164
0.572945
0.557628
0.0905077
0.0630358
0.0620986
0.0621116
0.0621742
0.0623866
0.0630323
0.0649768
0.0710795
0.0929194
0.19388
0.641168
0.935423
0.933132
0.910568
0.861887
0.818322
0.776864
0.734648
0.696713
0.665377
0.640453
0.618789
0.599782
0.582567
0.0905079
0.0630396
0.0620793
0.062085
0.0621145
0.0622181
0.0625429
0.0635294
0.0665248
0.0764469
0.115725
0.300408
0.804338
0.921998
0.91079
0.883927
0.837125
0.798321
0.757324
0.72034
0.6899
0.666911
0.647369
0.630201
0.612461
0.0905086
0.0630354
0.0620846
0.0620624
0.0620734
0.0621203
0.0622769
0.0627544
0.064205
0.0687135
0.0845289
0.153096
0.436325
0.855986
0.902691
0.887869
0.85913
0.816954
0.782777
0.748169
0.719055
0.696497
0.679154
0.662172
0.646796
0.0905089
0.0630337
0.0620886
0.0620496
0.0620539
0.0620743
0.0621448
0.0623644
0.0630281
0.0650434
0.0715242
0.095376
0.202217
0.59144
0.85957
0.881318
0.866978
0.838961
0.810286
0.776121
0.749877
0.731175
0.715632
0.700306
0.685232
0.0905089
0.0630332
0.0620898
0.0620453
0.0620465
0.0620547
0.0620846
0.0621804
0.062469
0.0633416
0.0660173
0.074987
0.110316
0.261155
0.684471
0.849185
0.860967
0.847507
0.825572
0.808495
0.785286
0.769565
0.759003
0.745533
0.730066
0.0905089
0.0630331
0.0620901
0.0620442
0.0620443
0.0620478
0.062061
0.062103
0.0622273
0.0625898
0.0636941
0.0671013
0.0789672
0.127667
0.313402
0.714392
0.833047
0.841877
0.831247
0.824232
0.815703
0.807935
0.804285
0.797513
0.783596
0.0905089
0.0630331
0.0620901
0.0620441
0.062044
0.0620467
0.0620555
0.0620811
0.0621426
0.0623035
0.062757
0.0640765
0.0681812
0.0826184
0.141106
0.351124
0.714665
0.81498
0.826308
0.825211
0.834179
0.845162
0.849451
0.847658
0.840579
0.0905089
0.0630331
0.0620901
0.0620441
0.062044
0.0620467
0.0620553
0.0620798
0.0621306
0.0622351
0.0624501
0.0629679
0.0644474
0.0690355
0.0851805
0.14857
0.363826
0.695796
0.795459
0.815097
0.835836
0.858809
0.882826
0.88778
0.884823
0.0905089
0.0630331
0.0620901
0.0620441
0.062044
0.0620467
0.0620553
0.0620796
0.0621298
0.0622332
0.0624054
0.0626661
0.0632611
0.0648692
0.0696525
0.0860677
0.146843
0.34484
0.66213
0.764369
0.822089
0.858961
0.888788
0.908035
0.907637
0.0905089
0.0630331
0.0620901
0.0620441
0.062044
0.0620467
0.0620553
0.0620796
0.0621297
0.0622326
0.0624062
0.062644
0.0631232
0.0638393
0.0654947
0.0700928
0.0848154
0.135211
0.294062
0.577431
0.740598
0.826205
0.876776
0.90756
0.911018
0.0905089
0.0630331
0.0620901
0.0620441
0.062044
0.0620467
0.0620553
0.0620796
0.0621297
0.0622326
0.0624065
0.0626415
0.0631145
0.0638354
0.0648334
0.0668348
0.0713426
0.0833899
0.117723
0.210237
0.413754
0.636242
0.776736
0.85499
0.888369
0.0905089
0.0630331
0.0620901
0.0620441
0.062044
0.0620467
0.0620553
0.0620796
0.0621297
0.0622325
0.0624063
0.0626412
0.063114
0.0638365
0.0648192
0.0667988
0.0697176
0.0756563
0.0883702
0.117048
0.17927
0.273669
0.385843
0.553395
0.735066
0.0905089
0.0630331
0.0620901
0.0620441
0.062044
0.0620467
0.0620553
0.0620796
0.0621297
0.0622325
0.0624065
0.0626414
0.0631141
0.0638364
0.0648176
0.0667917
0.0697023
0.0752243
0.0863047
0.106506
0.147999
0.201584
0.248604
0.297748
0.36511
0.0905089
0.0630331