/*--------------------------------*- C++ -*----------------------------------*\
| =========                 |                                                 |
| \\      /  F ield         | OpenFOAM: The Open Source CFD Toolbox           |
|  \\    /   O peration     | Version:  4.1                                   |
|   \\  /    A nd           | Web:      www.OpenFOAM.org                      |
|    \\/     M anipulation  |                                                 |
\*---------------------------------------------------------------------------*/
FoamFile
{
    version     2.0;
    format      ascii;
    class       surfaceScalarField;
    location    "0.58";
    object      phi;
}
// * * * * * * * * * * * * * * * * * * * * * * * * * * * * * * * * * * * * * //

dimensions      [1 0 -1 0 0 0 0];

internalField   nonuniform List<scalar> 
150500
(
0.00206693
1.65673e-07
-8.79675e-12
0.00197069
9.63465e-07
-2.98975e-11
0.00185665
2.29031e-06
-5.02568e-11
0.00162541
7.532e-06
-1.66282e-10
0.000646962
4.22602e-05
-7.45673e-10
-0.00142246
0.00036531
-4.19607e-10
-0.000117277
0.000254492
1.26852e-09
0.000236669
0.000127692
2.93026e-10
-0.000149867
0.000204377
-4.29572e-10
-0.000123332
0.000193722
-1.52756e-10
6.6871e-06
0.000177379
2.84568e-10
6.62754e-05
0.000164442
3.58906e-10
0.000108344
0.000146139
3.62501e-10
0.00013123
0.000131843
3.13567e-10
0.000138918
0.000123011
2.51828e-10
0.000149515
0.000121607
1.89007e-10
0.000171531
0.000122896
1.38181e-10
0.000198515
0.000124996
9.9198e-11
0.000215217
0.000123687
6.06976e-11
0.000230614
0.000123598
2.12995e-11
0.000228624
0.000125672
-1.73994e-11
0.000205288
0.000130746
-4.75765e-11
0.000166553
0.000135112
-8.16531e-11
8.48409e-05
0.000141688
-1.26469e-10
0.000148619
-1.69851e-10
0.00206623
3.4415e-07
-6.6604e-12
0.0019714
2.00599e-06
-2.27363e-11
0.00185813
4.72607e-06
-3.61964e-11
0.00162989
1.54202e-05
-1.02876e-10
0.000687647
8.46826e-05
-3.06238e-10
-0.00144633
0.000730102
-9.58799e-10
-0.00013237
0.000507805
1.15205e-09
0.000237363
0.000254833
2.97883e-10
-0.000154162
0.00040799
-7.95361e-10
-0.000125359
0.000381337
-2.9118e-10
1.16037e-05
0.000351068
5.38033e-10
7.34449e-05
0.000326866
9.92944e-11
0.000118056
0.000291909
4.59461e-10
0.000142301
0.000263476
3.24396e-10
0.000149742
0.00024712
2.52761e-10
0.00015975
0.000243847
1.80651e-10
0.000180598
0.00024637
1.38121e-10
0.000206283
0.0002497
1.06783e-10
0.000221826
0.000247668
7.13423e-11
0.000235826
0.000247896
3.07169e-11
0.000232279
0.000252334
-7.9707e-12
0.000207809
0.000262878
-3.69667e-11
0.000166286
0.000272951
-6.97703e-11
8.37397e-05
0.000287427
-1.18435e-10
0.000301549
-1.61318e-10
0.00206478
4.89647e-07
-7.70125e-12
0.00197337
2.92707e-06
-2.50897e-11
0.00186192
6.81393e-06
-4.02036e-11
0.00164191
2.17933e-05
-1.21152e-10
0.000789864
0.000116445
-5.01391e-10
-0.00146201
0.00105222
-8.50461e-10
-0.000143009
0.000795869
9.44522e-10
0.000258238
0.000380483
4.02624e-10
-0.000135064
0.000601192
-7.69629e-10
-0.000116502
0.000573245
1.85952e-10
2.93011e-05
0.000524249
3.46733e-10
8.8251e-05
0.000489636
1.33156e-10
0.000133416
0.000440249
1.97077e-10
0.000156988
0.000398437
2.98682e-10
0.000165316
0.0003715
2.43601e-10
0.000176217
0.000366275
1.44712e-10
0.000195934
0.00036958
1.73858e-10
0.00021882
0.000374537
1.29199e-10
0.000233011
0.000370911
8.73507e-11
0.000245473
0.000372138
4.19062e-11
0.000240534
0.000379348
1.20757e-12
0.000213533
0.000396967
-2.76794e-11
0.000167233
0.000413791
-5.91316e-11
8.27731e-05
0.000440184
-9.72445e-11
0.00046462
-1.37527e-10
0.00206277
5.93338e-07
-7.56382e-12
0.00197608
3.65234e-06
-2.94763e-11
0.00186702
8.37995e-06
-4.85321e-11
0.00166043
2.61038e-05
-1.47555e-10
0.000925598
0.000135525
-6.02487e-10
-0.00147979
0.00129761
-1.28911e-09
-0.000156961
0.00113649
1.30156e-09
0.000289224
0.000510366
2.56389e-10
-0.000104079
0.000764092
-4.72636e-10
-0.000106507
0.000783573
3.8447e-10
4.70973e-05
0.000697112
2.35044e-10
0.000107112
0.000654997
4.73941e-11
0.000154811
0.000591069
7.91042e-11
0.000180102
0.000535545
4.85526e-10
0.000188596
0.000497603
2.6432e-10
0.00019967
0.000488577
1.69456e-10
0.000217714
0.000491987
2.0858e-10
0.000236948
0.000497982
1.64247e-10
0.000249658
0.000494062
1.08133e-10
0.000259594
0.000496408
6.05717e-11
0.000252868
0.000508043
1.96798e-11
0.000223279
0.000532973
-1.39424e-11
0.000172038
0.000559002
-4.40881e-11
8.42251e-05
0.000601781
-7.3932e-11
0.000643051
-9.19402e-11
0.00206043
6.72894e-07
-6.851e-12
0.00197887
4.16855e-06
-3.01258e-11
0.00187444
9.4212e-06
-4.68198e-11
0.0016845
2.84753e-05
-1.4121e-10
0.00107201
0.00014345
-5.68529e-10
-0.00149103
0.00143019
-1.82405e-09
-0.000181369
0.00155599
1.70124e-09
0.000325158
0.000645967
2.06835e-10
-4.94853e-05
0.000880868
-5.59188e-10
-9.6089e-05
0.00102366
6.98823e-10
7.00029e-05
0.000869432
1.38274e-10
0.00012839
0.000823428
2.28655e-10
0.000180041
0.000745061
1.04968e-10
0.000208068
0.000676038
3.41024e-10
0.00021789
0.0006247
2.33325e-10
0.000228516
0.000611522
1.91114e-10
0.000244601
0.000612492
2.18527e-10
0.000260441
0.00061963
1.71122e-10
0.000271823
0.000616989
1.28191e-10
0.000279168
0.000620658
8.46538e-11
0.000270945
0.000637286
3.41206e-11
0.000238537
0.000670516
4.9481e-12
0.000183015
0.000708207
-2.21318e-11
9.1751e-05
0.000770366
-5.05111e-11
0.000834424
-5.95792e-11
0.00205783
7.2552e-07
-6.20766e-12
0.00198132
4.47239e-06
-2.82588e-11
0.00188275
9.99781e-06
-4.31456e-11
0.00171183
2.93032e-05
-1.25047e-10
0.00121461
0.000143963
-4.91811e-10
-0.00134383
0.00143005
-2.14953e-09
-0.000218971
0.00205668
1.94718e-09
0.000355839
0.000797577
3.1003e-10
1.77555e-05
0.000977309
-3.36832e-10
-8.12016e-05
0.00126366
6.80469e-10
9.43456e-05
0.00104355
2.54091e-10
0.000153448
0.000993224
-4.57936e-11
0.000209307
0.000903789
9.2458e-11
0.000241586
0.00082016
2.23754e-10
0.000252611
0.000753877
1.90361e-10
0.00026231
0.000734024
2.02268e-10
0.000276186
0.000731667
2.12745e-10
0.000289692
0.000739952
1.86852e-10
0.000299892
0.000738973
1.37034e-10
0.000305005
0.000744424
1.00895e-10
0.000295387
0.000765522
6.63788e-11
0.000259748
0.000809359
3.80279e-11
0.000202292
0.000860778
1.41235e-11
0.000106525
0.00094926
-2.41215e-11
0.00104985
-3.0247e-11
0.00205497
7.48606e-07
-5.37713e-12
0.00198422
4.57433e-06
-2.58131e-11
0.00189222
1.01014e-05
-4.00671e-11
0.00173961
2.86462e-05
-1.18199e-10
0.00132375
0.000137532
-4.88223e-10
-0.000992784
0.00129738
-2.51317e-09
-0.000281735
0.00262499
1.98815e-09
0.000396236
0.000975853
4.2706e-10
8.20286e-05
0.00106192
-4.21202e-10
-6.171e-05
0.00149518
7.31879e-10
0.000124169
0.00122355
6.9745e-10
0.000182962
0.00116345
2.0046e-12
0.000242883
0.00106875
1.59331e-10
0.000281075
0.000969959
2.24704e-10
0.000292472
0.000886411
1.34362e-10
0.000299961
0.000855899
1.79895e-10
0.000312219
0.000848974
1.81491e-10
0.000324702
0.000858671
1.74448e-10
0.000334528
0.000860197
1.37691e-10
0.000338462
0.000866901
1.10983e-10
0.000327434
0.000893975
9.30204e-11
0.000288806
0.000951242
6.53135e-11
0.000228923
0.00101999
4.74091e-11
0.000132426
0.00113661
1.669e-11
0.00130048
5.10245e-12
0.00205198
7.43987e-07
-4.4588e-12
0.00198765
4.49848e-06
-2.20982e-11
0.0019032
9.80004e-06
-3.41565e-11
0.00176711
2.68319e-05
-1.00002e-10
0.00140131
0.000124645
-4.43528e-10
-0.000638367
0.00106945
-2.55727e-09
-0.000400197
0.00321982
1.52686e-09
0.000459656
0.00120504
8.85435e-10
0.000162226
0.00112765
-5.82644e-10
-3.71697e-05
0.00168835
5.3031e-10
0.000150001
0.00142138
8.93933e-10
0.00021728
0.00133403
9.19497e-11
0.000280542
0.0012386
2.20734e-10
0.000325821
0.00112623
2.09389e-10
0.00033695
0.00102411
1.96316e-10
0.000342521
0.000977622
1.98932e-10
0.000353476
0.000965076
1.62556e-10
0.000365932
0.000974608
1.60459e-10
0.000376289
0.000980581
1.37477e-10
0.000380171
0.000988321
1.21639e-10
0.000369524
0.00102207
1.04041e-10
0.000331349
0.00109445
8.25321e-11
0.000268499
0.0011862
7.18363e-11
0.000170645
0.00133903
6.13358e-11
0.00160043
3.86469e-11
0.00204898
7.13866e-07
-3.62084e-12
0.00199168
4.28016e-06
-1.81312e-11
0.00191545
9.16847e-06
-2.81352e-11
0.00179093
2.41679e-05
-8.04756e-11
0.00150066
0.000107153
-3.62693e-10
-0.000234897
0.00080476
-2.13638e-09
-0.000518599
0.00378887
8.7667e-10
0.000477155
0.00152694
1.37608e-09
0.000252921
0.00117724
-4.95732e-10
2.31912e-06
0.00184962
3.71594e-10
0.000171564
0.00163339
9.97977e-10
0.000256202
0.00150124
1.54669e-10
0.000322654
0.00141435
2.16698e-10
0.000374342
0.00128975
1.87064e-10
0.000385879
0.00116903
1.81685e-10
0.000389568
0.00110073
1.65119e-10
0.000399293
0.0010807
1.47578e-10
0.000413738
0.00108553
1.30591e-10
0.000425634
0.00109867
1.34288e-10
0.000431856
0.00110829
1.30842e-10
0.000425783
0.00114624
1.21002e-10
0.000395303
0.00123065
1.07341e-10
0.000333636
0.00135805
1.06543e-10
0.000233162
0.00155275
8.86904e-11
0.00197554
7.21811e-11
0.00204612
-2.91809e-12
6.61081e-07
0.00199571
-1.41089e-11
3.95968e-06
0.00192916
-2.16683e-11
8.32814e-06
0.00181786
-6.22934e-11
2.09468e-05
0.00156482
-2.92122e-10
8.65776e-05
0.000196348
-1.51471e-09
0.00057794
-0.000614662
6.29855e-11
0.0041417
0.000425925
1.64888e-09
0.00198525
0.000347156
-1.97279e-10
0.00122326
8.71409e-05
2.1135e-10
0.00192305
0.000203246
1.01217e-09
0.00188381
0.000299095
1.2716e-10
0.00167334
0.000368273
2.41851e-10
0.00159587
0.000424984
1.76747e-10
0.00145888
0.000438944
1.62371e-10
0.00132292
0.000441217
1.32506e-10
0.00122612
0.000449617
1.25954e-10
0.00119591
0.000467329
1.17655e-10
0.00119111
0.00048365
1.30013e-10
0.00121256
0.000494287
1.32994e-10
0.00122251
0.00049751
1.36729e-10
0.00126207
0.000486226
1.33566e-10
0.00135076
0.000447474
1.32449e-10
0.00150586
0.000353076
1.10073e-10
0.0017603
1.0603e-10
0.00248327
0.00206694
1.66883e-07
3.59446e-12
0.00197068
9.68537e-07
1.34684e-11
0.00185662
2.30213e-06
2.28679e-11
0.00162532
7.58229e-06
7.699e-11
0.000645863
4.2592e-05
3.59899e-10
-0.00142275
0.000366711
1.35656e-10
-0.000117611
0.000253223
-6.55285e-10
0.00023594
0.000127872
-3.26983e-10
-0.000150907
0.000204542
4.15048e-10
-0.000123416
0.000192838
7.2673e-10
6.98909e-06
0.000177057
-1.64942e-10
6.66563e-05
0.000164277
-1.92486e-10
0.000108531
0.000146311
-4.36215e-11
0.000131274
0.000132007
-9.49327e-11
0.00013888
0.000123141
-5.65466e-11
0.000149444
0.000121675
-2.38982e-11
0.000171449
0.000122932
-4.49651e-12
0.000198445
0.000125017
5.01056e-11
0.000215179
0.000123699
1.01784e-10
0.000230611
0.000123602
1.16912e-10
0.000228651
0.000125664
1.09862e-10
0.000205348
0.000130723
7.58327e-11
0.000166629
0.000135076
4.8225e-11
8.49065e-05
0.000141629
-3.65831e-12
0.000148558
-5.82966e-12
0.00206624
3.4352e-07
2.2236e-12
0.00197141
2.00402e-06
8.6531e-12
0.00185815
4.72212e-06
1.32112e-11
0.00162993
1.54029e-05
3.25329e-11
0.000688295
8.45176e-05
4.25828e-11
-0.00144331
0.000729228
5.04207e-10
-0.000130529
0.000508417
-5.67943e-10
0.000238802
0.000254683
-2.40391e-10
-0.000151822
0.000407098
6.80741e-10
-0.000123312
0.000381126
6.76022e-10
1.42376e-05
0.000350921
-3.12956e-10
7.4519e-05
0.000327351
1.09113e-10
0.000118629
0.000292587
-2.10861e-10
0.000142458
0.000264085
-1.05325e-10
0.000149719
0.00024745
-3.88258e-11
0.000159697
0.000243944
-7.26738e-12
0.000180521
0.000246477
-6.70118e-12
0.000206212
0.000249755
3.97938e-11
0.000221775
0.000247694
9.32208e-11
0.000235808
0.000247899
1.12499e-10
0.000232286
0.000252313
1.03994e-10
0.000207848
0.000262833
7.14104e-11
0.000166336
0.000272883
4.48372e-11
8.37849e-05
0.000287311
-4.22109e-12
0.000301425
-7.2518e-12
0.00206479
4.89764e-07
3.42373e-12
0.00197336
2.92498e-06
1.18546e-11
0.00186192
6.80937e-06
1.87795e-11
0.00164188
2.17758e-05
5.55134e-11
0.000789349
0.000116345
2.3499e-10
-0.00146204
0.00105125
3.56858e-10
-0.000142636
0.000795982
-4.41633e-10
0.000258146
0.00038033
-1.73327e-10
-0.000135431
0.000600421
6.3178e-10
-0.000116566
0.000573277
-9.79713e-11
2.91479e-05
0.000524384
-9.72608e-11
8.79919e-05
0.000490033
6.92276e-11
0.000133192
0.000440762
4.21805e-11
0.000156815
0.000398931
-5.93148e-11
0.000165154
0.0003718
-2.77552e-11
0.000176068
0.000366447
1.65039e-11
0.000195773
0.000369762
-3.44467e-11
0.000218701
0.000374596
1.73025e-11
0.000232934
0.000370927
7.39907e-11
0.000245442
0.000372126
1.00676e-10
0.000240532
0.000379309
9.37274e-11
0.000213565
0.000396893
6.61561e-11
0.000167272
0.000413686
4.0889e-11
8.28061e-05
0.00044003
-5.36704e-12
0.000464469
-7.71853e-12
0.00206278
5.93709e-07
3.54121e-12
0.00197607
3.65323e-06
1.54962e-11
0.001867
8.3823e-06
2.56361e-11
0.00166035
2.61121e-05
7.81382e-11
0.000924948
0.000135571
3.16319e-10
-0.00147979
0.00129766
6.43557e-10
-0.000156905
0.00113598
-7.31462e-10
0.000288804
0.000510465
3.82191e-11
-0.000104976
0.00076403
3.34352e-10
-0.000107069
0.000783293
-4.49308e-10
4.63137e-05
0.000697347
-3.33788e-11
0.000106129
0.000655416
1.62643e-10
0.000153767
0.000591596
2.0484e-10
0.00017929
0.000535705
-3.01653e-10
0.000188063
0.00049768
-7.19362e-11
0.000199322
0.000488694
-9.75664e-12
0.000217444
0.000492016
-5.32558e-11
0.000236788
0.000497965
-7.90708e-12
0.000249555
0.000494037
4.15255e-11
0.000259544
0.000496369
8.47674e-11
0.000252847
0.000507986
8.13249e-11
0.000223297
0.000532865
5.86255e-11
0.000172064
0.000558859
3.59857e-11
8.42468e-05
0.000601574
-5.49061e-12
0.000642868
-6.89446e-12
0.00206044
6.73472e-07
3.16301e-12
0.00197887
4.17071e-06
1.59861e-11
0.00187443
9.42627e-06
2.50363e-11
0.00168443
2.84916e-05
7.61882e-11
0.00107155
0.00014353
3.03369e-10
-0.00149068
0.00143072
9.53682e-10
-0.000181329
0.00155523
-1.02969e-09
0.000324668
0.000646218
1.71021e-10
-5.05229e-05
0.000881536
4.22064e-10
-9.69803e-05
0.00102366
-8.80447e-10
6.82701e-05
0.000869897
1.00257e-10
0.000127064
0.000823603
-1.08957e-10
0.000178715
0.000745055
9.2141e-11
0.00020701
0.00067576
-1.00962e-10
0.000217207
0.000624516
-2.38161e-11
0.000228102
0.00061142
-2.08064e-11
0.000244307
0.000612412
-7.8055e-11
0.000260265
0.000619514
-3.25697e-11
0.000271706
0.000616909
1.89725e-11
0.000279096
0.000620577
6.22355e-11
0.00027091
0.000637187
7.27649e-11
0.000238533
0.000670381
5.04656e-11
0.000183016
0.000708031
2.9965e-11
9.17507e-05
0.00077014
-6.53683e-12
0.000834204
-6.57757e-12
0.00205784
7.26196e-07
2.62688e-12
0.00198131
4.47524e-06
1.44011e-11
0.00188274
1.00041e-05
2.2201e-11
0.00171176
2.93198e-05
6.52462e-11
0.00121429
0.000144021
2.56739e-10
-0.00134415
0.00143059
1.12711e-09
-0.00021886
0.00205622
-1.17655e-09
0.000355412
0.000797818
1.06888e-10
1.69549e-05
0.000978262
2.60202e-10
-8.21133e-05
0.00126404
-7.56655e-10
9.29251e-05
0.00104406
-2.27116e-10
0.000152114
0.000993192
1.16429e-10
0.000208075
0.000903205
1.12351e-12
0.000240614
0.000819217
-4.85532e-11
0.000251982
0.000753316
-8.12543e-12
0.000261904
0.000733683
-3.43494e-11
0.000275889
0.000731426
-6.4382e-11
0.000289503
0.000739736
-3.72584e-11
0.00029977
0.000738823
8.00509e-12
0.000304926
0.000744285
2.60916e-11
0.000295335
0.000765362
5.30755e-11
0.000259723
0.000809192
4.29077e-11
0.000202262
0.000860592
2.36406e-11
0.000106491
0.00094902
-8.19082e-12
0.00104956
-4.61072e-12
0.00205498
7.49321e-07
1.88197e-12
0.00198421
4.57766e-06
1.20203e-11
0.00189219
1.01089e-05
1.90349e-11
0.00173953
2.86677e-05
5.78545e-11
0.00132354
0.000137633
2.43572e-10
-0.000993609
0.00129842
1.27433e-09
-0.00028144
0.00262444
-1.12547e-09
0.000395677
0.000976127
3.56078e-12
8.15027e-05
0.00106302
3.0383e-10
-6.23809e-05
0.00149587
-8.13731e-10
0.000122928
0.00122455
-2.97097e-10
0.000181979
0.00116322
8.62458e-11
0.000242004
0.00106774
-9.9866e-11
0.000280354
0.000968913
-8.04181e-11
0.000292039
0.000885688
7.82262e-12
0.000299667
0.000855401
-3.15386e-11
0.000312001
0.000848671
-4.12079e-11
0.000324536
0.000858417
-2.98668e-11
0.000334409
0.000859973
3.04333e-12
0.000338378
0.000866705
2.04389e-11
0.000327374
0.000893806
3.67269e-11
0.000288763
0.00095108
3.56762e-11
0.000228859
0.00101981
1.76222e-11
0.000132376
0.00113636
-1.07434e-11
0.00130014
-3.52231e-12
0.00205198
7.44605e-07
1.16741e-12
0.00198764
4.50173e-06
8.96969e-12
0.00190317
9.80727e-06
1.43424e-11
0.00176704
2.68526e-05
4.41897e-11
0.00140106
0.000124742
2.03677e-10
-0.000638984
0.00107058
1.21301e-09
-0.000399555
0.00321941
-7.75287e-10
0.000459391
0.00120526
-2.73632e-10
0.000161992
0.00112877
4.58007e-10
-3.73577e-05
0.00168916
-6.42106e-10
0.000149533
0.00142237
-4.10841e-10
0.000216851
0.00133371
-3.27375e-11
0.000280058
0.00123791
-1.63653e-10
0.000325368
0.00112547
-7.49448e-11
0.000336626
0.00102352
-4.71653e-11
0.00034228
0.000977117
-5.59248e-11
0.000353327
0.000964687
-3.37682e-11
0.000365815
0.000974309
-1.83438e-11
0.000376196
0.000980304
9.19504e-13
0.000380095
0.000988097
2.0368e-11
0.000369457
0.00102188
2.16189e-11
0.00033129
0.00109427
2.83698e-11
0.000268428
0.00118603
1.52674e-11
0.00017058
0.0013388
-9.51071e-12
0.00160005
-4.27942e-12
0.00204898
7.14342e-07
6.42358e-13
0.00199167
4.28305e-06
6.1675e-12
0.00191542
9.17492e-06
1.01196e-11
0.00179088
2.41865e-05
3.13434e-11
0.00150045
0.000107246
1.50108e-10
-0.00023584
0.000805679
9.24766e-10
-0.000518098
0.00378871
-3.69154e-10
0.000477348
0.00152686
-4.89674e-10
0.000252878
0.00117826
3.65508e-10
2.53958e-06
0.00185074
-3.66615e-10
0.000171765
0.00163413
-5.36153e-10
0.000256272
0.00150131
-1.3986e-11
0.00032259
0.00141417
-1.21706e-10
0.000374195
0.00128936
-5.08288e-11
0.000385764
0.0011686
-3.38493e-11
0.000389475
0.00110021
-1.894e-11
0.000399223
0.00108025
-1.1047e-11
0.000413683
0.00108513
-5.49317e-13
0.000425577
0.00109835
3.01883e-12
0.000431801
0.00110803
2.06516e-11
0.000425719
0.00114602
2.22514e-11
0.000395237
0.00123047
1.07032e-11
0.000333549
0.00135787
8.86934e-12
0.000233082
0.00155252
-1.07233e-11
0.00197512
-1.1583e-11
0.00204612
2.57384e-13
6.61403e-07
0.0019957
3.74784e-12
3.9619e-06
0.00192912
6.31114e-12
8.33312e-06
0.00181779
2.07143e-11
2.09614e-05
0.00156471
1.06696e-10
8.66539e-05
0.000195591
5.9025e-10
0.000578568
-0.000613751
8.30916e-11
0.00414343
0.000426595
-5.79816e-10
0.00198479
0.000347202
1.61517e-10
0.00122406
8.7778e-05
-2.77063e-12
0.00192394
0.000203882
-4.26827e-10
0.00188441
0.000299504
1.84076e-11
0.00167372
0.000368526
-8.87493e-11
0.00159603
0.000425119
-2.48231e-11
0.00145876
0.000439066
-2.38194e-11
0.00132264
0.000441289
-2.13141e-11
0.00122564
0.000449644
-6.00203e-12
0.00119544
0.000467333
6.36151e-12
0.00119065
0.000483627
9.4635e-12
0.00121222
0.000494244
1.99305e-11
0.00122222
0.000497458
2.56752e-11
0.00126182
0.00048616
9.96272e-12
0.00135058
0.000447388
-3.61567e-12
0.00150571
0.00035297
-2.04766e-11
0.00176013
-8.96924e-12
0.00248278
0.00206693
1.66147e-07
-5.11922e-13
0.00197069
9.6529e-07
-2.1796e-12
0.00185663
2.29461e-06
-3.912e-12
0.00162537
7.54877e-06
-1.43994e-11
0.000646511
4.23664e-05
-7.15052e-11
-0.00142236
0.000365793
-8.98745e-11
-0.00011752
0.000254191
8.51159e-11
0.000236199
0.000127889
-5.78565e-11
-0.000150552
0.000204912
-7.81994e-11
-0.000123946
0.000193475
-3.05201e-12
5.8847e-06
0.000177264
2.06267e-11
6.55329e-05
0.000164303
4.66775e-11
0.000107889
0.000145984
5.40097e-11
0.000130921
0.000131747
4.33455e-11
0.000138706
0.00012295
3.57812e-11
0.000149356
0.000121564
2.4419e-11
0.000171414
0.000122842
-9.40993e-13
0.000198409
0.000124972
-1.0224e-11
0.000215119
0.000123672
-2.8602e-11
0.000230521
0.000123589
-6.02215e-11
0.000228524
0.000125661
-1.07036e-10
0.000205231
0.000130728
-1.4966e-10
0.000166508
0.000135087
-1.87898e-10
8.48149e-05
0.00014164
-2.27082e-10
0.00014857
-2.07366e-10
0.00206624
3.44293e-07
-3.65485e-13
0.0019714
2.00673e-06
-1.69842e-12
0.00185813
4.72781e-06
-2.99628e-12
0.00162988
1.54248e-05
-1.04456e-11
0.00068763
8.46898e-05
-4.57287e-11
-0.00144546
0.000730136
-1.16958e-10
-0.00013196
0.000507909
7.67635e-11
0.000237584
0.000255019
-3.36268e-11
-0.000153782
0.000408547
-1.14032e-10
-0.000125173
0.000381241
2.7056e-13
1.16645e-05
0.000350971
5.11535e-11
7.34152e-05
0.000326763
3.37143e-11
0.00011796
0.000291805
4.77803e-11
0.000142183
0.000263414
3.31385e-11
0.000149633
0.000247073
3.50681e-11
0.000159657
0.000243767
2.20987e-11
0.000180503
0.000246345
-6.62217e-12
0.000206184
0.000249661
-1.10274e-11
0.000221723
0.000247643
-2.63209e-11
0.000235724
0.000247877
-5.54853e-11
0.000232165
0.000252313
-1.02557e-10
0.000207734
0.000262844
-1.43319e-10
0.000166213
0.000272903
-1.80227e-10
8.36937e-05
0.000287333
-2.23205e-10
0.000301449
-2.04812e-10
0.00206478
4.89802e-07
-3.51577e-13
0.00197337
2.92699e-06
-1.53706e-12
0.00186192
6.81398e-06
-2.69181e-12
0.0016419
2.17925e-05
-9.46238e-12
0.000789688
0.000116436
-4.57276e-11
-0.00146168
0.00105205
-1.13587e-10
-0.000142695
0.000795931
5.88766e-11
0.00025837
0.000380607
1.85793e-11
-0.000134922
0.00060163
-1.49708e-10
-0.000116292
0.000573258
5.42675e-11
2.9477e-05
0.000524196
7.45728e-11
8.83041e-05
0.000489602
1.80835e-11
0.000133369
0.000440207
1.06343e-11
0.000156908
0.000398367
6.87951e-12
0.000165239
0.000371441
1.73251e-11
0.000176132
0.000366224
-5.90883e-12
0.00019585
0.000369555
6.29757e-12
0.000218722
0.000374495
-2.36026e-12
0.000232908
0.00037088
-2.1527e-11
0.000245372
0.00037211
-4.91687e-11
0.000240421
0.000379314
-9.64258e-11
0.000213454
0.000396912
-1.36637e-10
0.00016715
0.000413716
-1.74948e-10
8.27174e-05
0.000440065
-2.1549e-10
0.000464505
-1.95891e-10
0.00206277
5.93501e-07
-2.97207e-13
0.00197608
3.65277e-06
-1.50215e-12
0.00186701
8.38115e-06
-2.5271e-12
0.00166039
2.61082e-05
-7.82445e-12
0.000925341
0.00013555
-3.23016e-11
-0.00147961
0.00129767
-8.20772e-11
-0.000156645
0.0011363
5.5588e-11
0.000289361
0.000510488
1.70677e-11
-0.000103987
0.000764358
-1.191e-10
-0.00010626
0.000783676
6.48553e-11
4.73722e-05
0.000697092
6.57512e-11
0.000107259
0.000655027
-2.79968e-11
0.000154863
0.000591088
-5.00726e-11
0.0001801
0.000535547
8.829e-11
0.000188546
0.000497583
1.69914e-11
0.000199601
0.000488555
-5.51952e-12
0.000217621
0.000491955
1.10755e-11
0.000236859
0.000497941
7.43056e-12
0.00024956
0.000494016
-1.31024e-11
0.000259494
0.000496367
-3.97896e-11
0.000252748
0.000507999
-8.37608e-11
0.00022319
0.000532896
-1.25654e-10
0.000171943
0.000558899
-1.64997e-10
8.416e-05
0.000601623
-2.04906e-10
0.000642915
-1.81008e-10
0.00206043
6.72991e-07
-4.31389e-13
0.00197887
4.16896e-06
-1.91965e-12
0.00187444
9.42232e-06
-2.96784e-12
0.00168447
2.84798e-05
-8.92755e-12
0.00107181
0.000143475
-3.57578e-11
-0.00149079
0.00143034
-1.15745e-10
-0.000181001
0.00155562
1.10702e-10
0.000325319
0.000646067
-6.53375e-11
-4.93627e-05
0.000881065
-4.4939e-11
-9.58431e-05
0.00102386
1.8154e-10
7.03161e-05
0.000869373
-1.91137e-11
0.000128465
0.000823569
7.35086e-12
0.000179927
0.000745152
-3.28511e-11
0.000207898
0.000676106
1.17119e-11
0.000217749
0.000624663
-6.45073e-12
0.00022841
0.000611445
-1.01678e-11
0.00024452
0.00061241
1.3664e-11
0.00026037
0.000619544
9.60468e-12
0.000271732
0.000616932
-4.7935e-12
0.000279063
0.000620604
-2.71318e-11
0.000270821
0.000637222
-7.35931e-11
0.000238431
0.000670424
-1.12885e-10
0.000182894
0.000708082
-1.50704e-10
9.1664e-05
0.0007702
-1.94946e-10
0.000834261
-1.72718e-10
0.00205784
7.25608e-07
-3.6214e-13
0.00198131
4.47278e-06
-1.81266e-12
0.00188274
9.99877e-06
-2.7453e-12
0.0017118
2.93061e-05
-7.87528e-12
0.00121446
0.00014397
-2.96921e-11
-0.00134395
0.00143013
-1.37208e-10
-0.000218612
0.00205634
1.84409e-10
0.000355956
0.000797614
-1.09062e-10
1.76418e-05
0.000977512
3.46432e-11
-8.10899e-05
0.00126388
1.48992e-10
9.45722e-05
0.00104363
1.13327e-12
0.00015344
0.000993454
-5.40217e-11
0.000209172
0.000903785
-1.07868e-11
0.000241439
0.000820022
-1.86158e-12
0.000252499
0.000753697
-2.07876e-11
0.000262223
0.000733878
-1.45106e-11
0.000276112
0.000731541
1.15851e-11
0.000289622
0.000739832
1.08504e-11
0.000299806
0.000738898
1.70117e-12
0.000304899
0.000744347
-1.57219e-11
0.000295255
0.000765426
-5.30483e-11
0.000259624
0.000809247
-9.48321e-11
0.000202141
0.000860648
-1.29006e-10
0.000106402
0.000949092
-1.8075e-10
0.00104963
-1.57765e-10
0.00205498
7.48787e-07
-1.44269e-13
0.00198421
4.57509e-06
-1.08567e-12
0.00189221
1.01032e-05
-1.7061e-12
0.00173957
2.8652e-05
-5.10784e-12
0.00132365
0.000137561
-2.05652e-11
-0.000993196
0.00129771
-9.34774e-11
-0.000281349
0.00262444
2.08468e-10
0.000396258
0.00097585
-3.85564e-11
8.19197e-05
0.00106209
-4.50763e-12
-6.17981e-05
0.00149552
1.69888e-10
0.000124039
0.00122428
2.35383e-12
0.000182866
0.00116359
-3.93715e-11
0.000242801
0.00106856
3.40502e-11
0.000280973
0.000969678
1.47976e-11
0.000292403
0.000886137
-1.82787e-11
0.000299905
0.000855677
-2.02832e-11
0.000312163
0.000848821
-2.32731e-12
0.000324632
0.000858546
9.13185e-12
0.000334438
0.000860087
6.58958e-12
0.00033835
0.000866794
-6.95089e-12
0.000327295
0.000893871
-3.39327e-11
0.000288665
0.000951135
-8.08474e-11
0.00022874
0.00101988
-1.06645e-10
0.000132286
0.00113644
-1.57158e-10
0.00130022
-1.40417e-10
0.00205198
7.44249e-07
6.06149e-14
0.00198765
4.49961e-06
-1.28948e-13
0.00190318
9.80257e-06
-2.36012e-13
0.00176708
2.68395e-05
-7.79608e-13
0.00140118
0.000124681
-2.85158e-12
-0.000638706
0.00106992
-4.54576e-12
-0.000399724
0.00321916
1.55825e-10
0.000459722
0.00120494
3.68827e-11
0.000162128
0.00112781
-8.71105e-11
-3.72588e-05
0.00168867
1.90319e-10
0.000149909
0.00142225
6.57674e-11
0.000217239
0.00133409
3.48538e-11
0.000280496
0.00123845
5.96914e-11
0.000325728
0.00112598
1.58189e-11
0.000336864
0.00102383
2.67897e-11
0.000342453
0.000977375
1.60277e-11
0.000353434
0.000964886
1.62379e-11
0.000365871
0.000974466
3.98483e-12
0.000376206
0.000980441
9.76906e-12
0.000380055
0.000988197
-1.303e-12
0.000369374
0.00102196
-2.47603e-11
0.00033119
0.00109434
-6.73591e-11
0.000268316
0.00118609
-8.86144e-11
0.000170492
0.00133889
-1.23213e-10
0.00160013
-1.20179e-10
0.00204898
7.14107e-07
1.5157e-13
0.00199167
4.28143e-06
5.72477e-13
0.00191543
9.17133e-06
8.46053e-13
0.0017909
2.41764e-05
2.29135e-12
0.00150054
0.000107196
1.05561e-11
-0.000235442
0.000805204
7.74341e-11
-0.000518274
0.00378822
1.06684e-10
0.000477361
0.0015266
8.40684e-11
0.000252849
0.00117749
-6.24655e-11
2.2869e-06
0.00184979
9.53943e-11
0.000171659
0.00163409
1.12013e-10
0.000256239
0.00150135
-2.90461e-11
0.000322664
0.00141433
1.20152e-11
0.000374294
0.00128956
-1.3116e-11
0.000385829
0.00116874
1.39628e-11
0.000389522
0.00110045
1.72342e-12
0.000399255
0.00108045
9.5678e-12
0.000413691
0.00108533
2.40968e-12
0.00042556
0.0010985
1.03699e-11
0.000431746
0.00110813
2.27003e-12
0.000425627
0.0011461
-1.69456e-11
0.000395135
0.00123055
-5.49451e-11
0.00033344
0.00135794
-6.15123e-11
0.000233014
0.0015526
-8.6412e-11
0.00197521
-9.32629e-11
0.00204612
1.63855e-13
6.61287e-07
0.00199571
9.57107e-13
3.96081e-06
0.00192914
1.42817e-12
8.33067e-06
0.00181782
3.95129e-12
2.09544e-05
0.00156476
1.84048e-11
8.66175e-05
0.000195886
1.05589e-10
0.000578271
-0.000614097
8.22978e-11
0.00414202
0.000426365
8.75166e-11
0.00198461
0.000347141
2.77099e-13
0.00122356
8.72645e-05
-1.0194e-10
0.00192328
0.000203472
2.60374e-11
0.00188426
0.000299221
-3.57298e-11
0.0016736
0.000368359
6.47182e-13
0.00159595
0.000425003
-2.48444e-11
0.00145871
0.000438957
1.12636e-11
0.00132257
0.000441237
1.14635e-11
0.00122577
0.000449621
1.39338e-11
0.00119562
0.000467304
5.43563e-12
0.00119088
0.000483579
1.10264e-11
0.00121237
0.000494171
4.66793e-12
0.00122232
0.000497362
-7.07019e-12
0.00126189
0.000486059
-3.56719e-11
0.00135065
0.000447291
-5.17429e-11
0.00150579
0.000352893
-7.28481e-11
0.00176023
-5.98742e-11
0.00248286
0.00206693
1.66233e-07
1.09293e-12
0.00197068
9.65648e-07
7.06328e-12
0.00185663
2.29545e-06
1.46113e-11
0.00162536
7.55214e-06
6.47873e-11
0.000646406
4.23881e-05
3.71217e-10
-0.00142239
0.000365894
8.977e-10
-0.000117597
0.000254117
-4.24956e-10
0.000236098
0.000127905
-1.26678e-10
-0.000150656
0.000204946
-5.05491e-11
-0.000123954
0.000193404
-9.07069e-11
5.9055e-06
0.000177261
-9.63449e-11
6.55419e-05
0.000164321
-1.36242e-10
0.00010786
0.000146019
-1.48307e-10
0.000130867
0.000131772
-1.09438e-10
0.000138642
0.000122974
-5.69609e-11
0.000149288
0.000121583
-1.81352e-11
0.000171354
0.000122843
-1.31842e-13
0.000198355
0.00012498
1.58566e-11
0.000215072
0.000123678
2.46551e-11
0.000230473
0.000123593
2.6534e-11
0.000228459
0.000125662
3.84597e-11
0.000205175
0.000130727
5.46311e-11
0.000166444
0.000135085
7.23146e-11
8.47615e-05
0.000141634
1.02493e-10
0.000148561
1.21101e-10
0.00206624
3.44298e-07
1.06104e-12
0.0019714
2.00684e-06
7.04842e-12
0.00185813
4.72809e-06
1.43099e-11
0.00162988
1.54257e-05
6.14717e-11
0.000687616
8.46921e-05
3.44181e-10
-0.00144534
0.000730159
9.13372e-10
-0.000131913
0.000507914
-4.37228e-10
0.000237607
0.000255032
-1.2918e-10
-0.000153687
0.000408508
-1.53384e-11
-0.000125054
0.000381202
-3.72826e-11
1.18068e-05
0.000351005
-6.83066e-11
7.34651e-05
0.00032684
-1.02697e-10
0.000117946
0.000291896
-1.36921e-10
0.000142128
0.00026348
-1.17223e-10
0.000149571
0.000247113
-6.80103e-11
0.000159599
0.000243769
-2.63304e-11
0.000180445
0.000246379
-5.73051e-12
0.000206131
0.000249673
1.21306e-11
0.000221673
0.000247653
2.19113e-11
0.000235672
0.000247881
2.42522e-11
0.000232096
0.000252312
3.63824e-11
0.000207676
0.000262842
5.21659e-11
0.000166145
0.000272902
6.9724e-11
8.36388e-05
0.000287321
1.01338e-10
0.000301433
1.20845e-10
0.00206478
4.89816e-07
1.08005e-12
0.00197337
2.92698e-06
6.71212e-12
0.00186192
6.814e-06
1.32684e-11
0.00164189
2.1793e-05
5.52766e-11
0.000789635
0.000116442
3.01956e-10
-0.00146168
0.00105209
9.52104e-10
-0.000142669
0.000795909
-4.61645e-10
0.000258372
0.000380614
-1.13614e-10
-0.000134828
0.000601483
3.47298e-11
-0.00011617
0.000573256
1.96691e-11
2.9589e-05
0.000524245
-3.3116e-11
8.83587e-05
0.000489712
-8.52623e-11
0.000133373
0.000440315
-1.09957e-10
0.000156878
0.000398502
-1.13809e-10
0.000165185
0.000371501
-8.49441e-11
0.000176072
0.000366257
-5.24999e-11
0.000195781
0.000369609
-1.40311e-11
0.000218659
0.000374513
8.81057e-12
0.000232851
0.00037089
1.85577e-11
0.000245316
0.000372115
2.17609e-11
0.000240348
0.000379314
3.43645e-11
0.000213395
0.000396907
5.05119e-11
0.000167079
0.000413711
6.79314e-11
8.26621e-05
0.000440058