/*--------------------------------*- C++ -*----------------------------------*\
| =========                 |                                                 |
| \\      /  F ield         | OpenFOAM: The Open Source CFD Toolbox           |
|  \\    /   O peration     | Version:  4.1                                   |
|   \\  /    A nd           | Web:      www.OpenFOAM.org                      |
|    \\/     M anipulation  |                                                 |
\*---------------------------------------------------------------------------*/
FoamFile
{
    version     2.0;
    format      ascii;
    class       volScalarField;
    location    "0.58";
    object      T;
}
// * * * * * * * * * * * * * * * * * * * * * * * * * * * * * * * * * * * * * //

dimensions      [0 0 0 1 0 0 0];

internalField   nonuniform List<scalar> 
52500
(
0.353388
0.355468
0.383769
0.535254
1.02859
1.61257
1.54107
1.38558
1.42372
1.33093
1.1745
1.13624
1.13839
1.17508
1.2016
1.18297
1.13683
1.09463
1.08088
1.0776
1.06829
1.06217
1.05814
1.05187
1.00966
0.353042
0.354924
0.382471
0.530515
1.01942
1.61025
1.54455
1.38637
1.42303
1.33312
1.17498
1.13557
1.13709
1.17272
1.20085
1.18318
1.13754
1.09443
1.08038
1.07714
1.06799
1.06193
1.05781
1.05186
1.00926
0.352312
0.353763
0.379646
0.520122
0.998185
1.59986
1.5526
1.38858
1.42268
1.34108
1.17775
1.13407
1.13415
1.16753
1.19938
1.18389
1.13932
1.09464
1.08008
1.07693
1.06822
1.06219
1.05784
1.05231
1.00923
0.351287
0.351991
0.375579
0.50527
0.965638
1.58002
1.56232
1.38975
1.42064
1.35357
1.18392
1.13289
1.13134
1.16222
1.19765
1.18471
1.14196
1.09531
1.07996
1.07682
1.06847
1.06274
1.05865
1.05346
1.00983
0.350089
0.34962
0.370586
0.487434
0.922541
1.55006
1.57602
1.39146
1.41655
1.36656
1.19187
1.13071
1.12608
1.15255
1.19388
1.18473
1.14513
1.0964
1.07961
1.07643
1.06864
1.06303
1.05888
1.05507
1.00909
0.348771
0.346721
0.36513
0.467853
0.87007
1.5028
1.5945
1.39664
1.4115
1.38106
1.20337
1.12812
1.11983
1.14138
1.18874
1.18413
1.14861
1.09793
1.07906
1.07552
1.06833
1.06325
1.05946
1.05485
1.00811
0.347349
0.343568
0.359358
0.447325
0.809764
1.43424
1.61489
1.40735
1.40476
1.3929
1.21983
1.12612
1.11275
1.12801
1.17985
1.18201
1.15252
1.09995
1.07824
1.07407
1.0672
1.06247
1.05848
1.0542
1.00601
0.345883
0.340297
0.353536
0.426706
0.743191
1.34647
1.63158
1.42333
1.39542
1.40637
1.24028
1.1254
1.10553
1.11432
1.16757
1.17936
1.15609
1.10297
1.07637
1.07176
1.0653
1.06047
1.05588
1.0509
1.00076
0.344428
0.337036
0.347889
0.407109
0.672728
1.2425
1.64044
1.44768
1.38073
1.41634
1.26455
1.12688
1.09801
1.101
1.15005
1.17479
1.15784
1.10872
1.07516
1.06866
1.06108
1.05586
1.05086
1.04331
0.98754
0.343026
0.333907
0.342644
0.389059
0.59965
1.14464
1.63326
1.47855
1.36323
1.42212
1.29422
1.13273
1.09016
1.08781
1.12819
1.16748
1.15748
1.11756
1.07351
1.06267
1.05741
1.0502
1.0418
1.0298
0.96189
0.353399
0.355482
0.383799
0.535351
1.02874
1.61264
1.54102
1.3856
1.42375
1.33093
1.17454
1.13627
1.1384
1.17505
1.20157
1.18295
1.13681
1.09462
1.08088
1.0776
1.06829
1.06216
1.05813
1.05187
1.00972
0.35305
0.354934
0.382491
0.530567
1.01951
1.61008
1.54436
1.38633
1.42343
1.33375
1.1752
1.13556
1.13696
1.17249
1.2008
1.18318
1.13754
1.09442
1.08038
1.07714
1.06798
1.06192
1.0578
1.05186
1.00931
0.352321
0.353775
0.37967
0.52019
0.99831
1.59983
1.55247
1.38854
1.42283
1.34119
1.17784
1.13425
1.13439
1.16783
1.19944
1.18387
1.13926
1.09462
1.08008
1.07693
1.06822
1.06219
1.05783
1.05232
1.00927
0.351296
0.352006
0.375607
0.505356
0.965809
1.58009
1.56224
1.38967
1.42051
1.35334
1.18387
1.13297
1.13148
1.16237
1.19773
1.18469
1.14188
1.09528
1.07995
1.07681
1.06847
1.06273
1.05865
1.05347
1.00986
0.350097
0.349635
0.370613
0.487517
0.922731
1.55012
1.57591
1.39141
1.41649
1.36609
1.19149
1.13072
1.12616
1.15269
1.19385
1.18468
1.14507
1.09638
1.0796
1.07642
1.06864
1.06303
1.05887
1.05507
1.00913
0.348779
0.346735
0.365155
0.467928
0.870264
1.50288
1.59436
1.39654
1.41131
1.38062
1.20342
1.12835
1.12035
1.14205
1.18898
1.18412
1.1485
1.0979
1.07904
1.0755
1.06832
1.06322
1.05943
1.05484
1.00816
0.347355
0.343581
0.35938
0.447399
0.809977
1.43444
1.61475
1.40723
1.40469
1.39251
1.21917
1.12645
1.11339
1.12879
1.18038
1.18218
1.15245
1.09989
1.07823
1.07407
1.06719
1.06244
1.05844
1.05418
1.00607
0.345889
0.340309
0.353555
0.42677
0.743395
1.34674
1.63148
1.42324
1.39551
1.40626
1.23965
1.12568
1.10583
1.11461
1.16769
1.17936
1.15604
1.10288
1.07636
1.07174
1.06527
1.06043
1.05582
1.05087
1.00082
0.344433
0.337045
0.347905
0.407161
0.672918
1.24276
1.6404
1.44757
1.38084
1.41636
1.2642
1.12704
1.09798
1.10091
1.14988
1.1747
1.15779
1.10867
1.07514
1.06862
1.06104
1.0558
1.05079
1.04327
0.987604
0.34303
0.333914
0.342656
0.389099
0.599817
1.14486
1.63327
1.47846
1.36331
1.42217
1.29406
1.13273
1.08998
1.08756
1.12786
1.16736
1.15742
1.11756
1.07349
1.06267
1.05739
1.05013
1.0417
1.02973
0.961949
0.353394
0.355475
0.383786
0.535306
1.02867
1.6126
1.54102
1.38557
1.42361
1.3307
1.17449
1.13638
1.13856
1.17524
1.20163
1.18295
1.13677
1.09461
1.08087
1.07759
1.06828
1.06215
1.05812
1.05187
1.00972
0.353047
0.354931
0.382484
0.530555
1.01949
1.61022
1.54448
1.38634
1.42304
1.3331
1.17503
1.13569
1.13721
1.17283
1.20087
1.18316
1.1375
1.09441
1.08037
1.07713
1.06797
1.06191
1.05779
1.05186
1.00931
0.352317
0.353769
0.379659
0.520159
0.998258
1.59985
1.55254
1.38853
1.42272
1.34116
1.1778
1.13412
1.1342
1.16759
1.1994
1.18388
1.13928
1.09462
1.08007
1.07692
1.06821
1.06218
1.05783
1.05232
1.00927
0.351292
0.351998
0.375592
0.505311
0.965723
1.58006
1.56229
1.38969
1.42064
1.35362
1.18399
1.13293
1.13141
1.16238
1.19768
1.18471
1.14191
1.09528
1.07994
1.07681
1.06846
1.06273
1.05864
1.05347
1.00987
0.350093
0.349627
0.370599
0.487473
0.922633
1.5501
1.57599
1.39142
1.41662
1.3666
1.19177
1.13063
1.12592
1.15233
1.19377
1.1847
1.14513
1.09639
1.0796
1.07642
1.06863
1.06302
1.05886
1.05507
1.00913
0.348775
0.346728
0.365142
0.467889
0.870165
1.50285
1.59445
1.39656
1.41146
1.38107
1.20377
1.12807
1.1198
1.14137
1.18874
1.18412
1.1486
1.09793
1.07903
1.0755
1.06832
1.06322
1.05942
1.05484
1.00816
0.347353
0.343575
0.35937
0.447363
0.809873
1.43435
1.61484
1.40729
1.40478
1.39283
1.21939
1.12615
1.1129
1.12822
1.18003
1.18208
1.15251
1.09992
1.07822
1.07407
1.06718
1.06243
1.05844
1.05418
1.00607
0.345887
0.340305
0.353547
0.426742
0.743303
1.34662
1.63156
1.42332
1.39555
1.40643
1.23971
1.12547
1.10564
1.11444
1.16767
1.17944
1.1561
1.10293
1.07636
1.07174
1.06527
1.06043
1.05582
1.05087
1.00082
0.344432
0.337042
0.3479
0.407141
0.672841
1.24266
1.64044
1.44766
1.38086
1.41646
1.26418
1.12695
1.09805
1.10102
1.15004
1.17474
1.15782
1.10869
1.07515
1.06862
1.06104
1.05581
1.05079
1.04327
0.987605
0.343029
0.333912
0.342652
0.389086
0.599757
1.14478
1.63327
1.47852
1.36333
1.42219
1.294
1.13275
1.09016
1.08781
1.12821
1.16748
1.15747
1.11755
1.07349
1.06267
1.05738
1.05013
1.0417
1.02973
0.961952
0.353395
0.355476
0.383788
0.535314
1.02869
1.6126
1.54102
1.38558
1.42362
1.3307
1.17449
1.13637
1.13855
1.17525
1.20164
1.18295
1.13677
1.09461
1.08088
1.07759
1.06829
1.06217
1.05814
1.05189
1.00974
0.353048
0.354931
0.382486
0.53056
1.0195
1.61022
1.54447
1.38634
1.42307
1.33313
1.17504
1.13568
1.1372
1.17283
1.20087
1.18317
1.1375
1.09441
1.08037
1.07714
1.06799
1.06193
1.05781
1.05188
1.00933
0.352317
0.35377
0.379661
0.520164
0.998269
1.59985
1.55253
1.38854
1.42275
1.34121
1.17784
1.13416
1.13426
1.16767
1.19941
1.18388
1.13927
1.09462
1.08007
1.07693
1.06822
1.0622
1.05785
1.05234
1.00929
0.351292
0.351999
0.375594
0.505315
0.965732
1.58005
1.56226
1.38966
1.42064
1.35364
1.18398
1.13289
1.13134
1.16222
1.19769
1.18471
1.14191
1.09529
1.07994
1.07681
1.06847
1.06274
1.05866
1.05349
1.00988
0.350094
0.349628
0.3706
0.487478
0.922645
1.55011
1.57598
1.39142
1.41657
1.36641
1.19162
1.13064
1.12598
1.15245
1.19379
1.1847
1.14512
1.09639
1.0796
1.07642
1.06864
1.06304
1.05888
1.05509
1.00915
0.348776
0.346729
0.365144
0.467894
0.870177
1.50286
1.59445
1.39658
1.41141
1.38089
1.2036
1.12821
1.1201
1.14174
1.18888
1.18414
1.14856
1.09792
1.07904
1.0755
1.06832
1.06323
1.05944
1.05486
1.00817
0.347353
0.343576
0.359371
0.447366
0.809882
1.43435
1.61483
1.40729
1.40476
1.39275
1.21937
1.12628
1.11308
1.12844
1.18023
1.18219
1.1525
1.09991
1.07822
1.07407
1.06719
1.06244
1.05845
1.05419
1.00609
0.345887
0.340305
0.353547
0.426742
0.743304
1.34661
1.63154
1.4233
1.39554
1.40642
1.23979
1.12552
1.10557
1.11432
1.16752
1.17936
1.15608
1.10292
1.07635
1.07174
1.06527
1.06044
1.05583
1.05088
1.00084
0.344432
0.337042
0.347899
0.407139
0.672834
1.24264
1.64042
1.44764
1.38087
1.41649
1.26431
1.12692
1.09785
1.10078
1.14977
1.17469
1.15781
1.10871
1.07515
1.06862
1.06104
1.05581
1.0508
1.04328
0.987615
0.343029
0.333912
0.342651
0.389084
0.599746
1.14476
1.63326
1.47851
1.36334
1.42226
1.29415
1.1327
1.08996
1.08755
1.12788
1.16741
1.15746
1.11758
1.0735
1.06266
1.05738
1.05013
1.04171
1.02974
0.96196
0.353393
0.355474
0.383781
0.535283
1.02862
1.61255
1.54102
1.38559
1.42364
1.33073
1.1745
1.13638
1.13855
1.17523
1.20162
1.18294
1.13677
1.09461
1.08087
1.07759
1.06828
1.06216
1.05813
1.05188
1.00972
0.353046
0.354929
0.382479
0.53053
1.01943
1.61017
1.54447
1.38635
1.42308
1.33314
1.17505
1.13569
1.1372
1.17282
1.20086
1.18316
1.1375
1.09441
1.08037
1.07713
1.06798
1.06192
1.0578
1.05187
1.00932
0.352316
0.353768
0.379654
0.520138
0.998205
1.59981
1.55254
1.38854
1.42276
1.34122
1.17785
1.13417
1.13427
1.16766
1.1994
1.18387
1.13928
1.09462
1.08006
1.07692
1.06821
1.06218
1.05783
1.05233
1.00928
0.351291
0.351996
0.375587
0.50529
0.96567
1.57999
1.56227
1.38967
1.42065
1.35364
1.18395
1.13289
1.13135
1.16221
1.19768
1.18471
1.14191
1.09528
1.07994
1.0768
1.06846
1.06272
1.05864
1.05348
1.00988
0.350093
0.349626
0.370595
0.487456
0.922584
1.55005
1.57598
1.39141
1.41653
1.36643
1.19178
1.13064
1.12599
1.15246
1.19379
1.1847
1.14511
1.09639
1.07959
1.07641
1.06863
1.06302
1.05887
1.05508
1.00914
0.348774
0.346726
0.365139
0.467875
0.870121
1.50281
1.59447
1.39661
1.41145
1.38088
1.20315
1.12821
1.12009
1.14173
1.18888
1.18413
1.14855
1.09791
1.07903
1.07549
1.06832
1.06323
1.05945
1.05486
1.00814
0.347352
0.343573
0.359366
0.447347
0.809822
1.43427
1.61485
1.4073
1.40473
1.3928
1.21971
1.12627
1.11306
1.12842
1.18023
1.1822
1.1525
1.0999
1.07822
1.07407
1.06719
1.06245
1.05847
1.0542
1.00603
0.345886
0.340302
0.353542
0.426725
0.743245
1.34652
1.63154
1.42328
1.39542
1.40635
1.24034
1.1255
1.10555
1.11431
1.16751
1.17934
1.15606
1.10291
1.07636
1.07174
1.06529
1.06046
1.05587
1.05089
1.00076
0.344431
0.337039
0.347895
0.407125
0.672781
1.24256
1.64041
1.44763
1.38074
1.41637
1.26468
1.12691
1.09783
1.10076
1.14976
1.1747
1.15781
1.10871
1.07515
1.06863
1.06107
1.05586
1.05086
1.0433
0.987529
0.343028
0.33391
0.342648
0.389072
0.599699
1.1447
1.63325
1.47851
1.36323
1.42219
1.29437
1.13269
1.08995
1.08754
1.12786
1.16739
1.15744
1.11757
1.0735
1.06267
1.0574
1.0502
1.04179
1.02979
0.961869
0.353394
0.355475
0.383784
0.535296
1.02865
1.61257
1.54102
1.38559
1.42362
1.33069
1.17449
1.13638
1.13856
1.17526
1.20164
1.18294
1.13677
1.0946
1.08087
1.07759
1.06829
1.06217
1.05814
1.05189
1.00974
0.353047
0.35493
0.382482
0.530542
1.01946
1.61018
1.54446
1.38635
1.42307
1.33312
1.17503
1.13568
1.1372
1.17284
1.20087
1.18317
1.13749
1.09441
1.08037
1.07713
1.06798
1.06192
1.05781
1.05188
1.00933
0.352316
0.353769
0.379657
0.520148
0.998229
1.59982
1.55253
1.38854
1.42275
1.3412
1.17784
1.13416
1.13426
1.16767
1.19942
1.18388
1.13927
1.09462
1.08007
1.07693
1.06822
1.06219
1.05785
1.05234
1.00928
0.351292
0.351998
0.37559
0.505299
0.965693
1.58001
1.56226
1.38967
1.42064
1.35361
1.18394
1.13289
1.13135
1.16223
1.19769
1.18472
1.14192
1.09528
1.07994
1.07681
1.06847
1.06274
1.05866
1.05349
1.00988
0.350093
0.349627
0.370597
0.487464
0.922606
1.55007
1.57597
1.3914
1.41652
1.3664
1.19177
1.13063
1.12598
1.15246
1.1938
1.18471
1.14512
1.09639
1.0796
1.07642
1.06864
1.06304
1.05888
1.05508
1.00915
0.348775
0.346727
0.365141
0.467882
0.870141
1.50283
1.59446
1.39661
1.41144
1.38086
1.20313
1.1282
1.12009
1.14173
1.18888
1.18414
1.14856
1.09792
1.07904
1.0755
1.06832
1.06323
1.05944
1.05486
1.00817
0.347352
0.343574
0.359367
0.447354
0.809843
1.4343
1.61484
1.4073
1.40472
1.39278
1.21969
1.12626
1.11306
1.12842
1.18023
1.18219
1.15251
1.09991
1.07822
1.07407
1.06719
1.06244
1.05845
1.05419
1.00608
0.345886
0.340303
0.353544
0.42673
0.743264
1.34655
1.63154
1.42327
1.39541
1.40633
1.24032
1.12549
1.10555
1.1143
1.16751
1.17935
1.15608
1.10292
1.07635
1.07174
1.06527
1.06044
1.05583
1.05088
1.00083
0.344431
0.33704
0.347896
0.407129
0.672797
1.24259
1.64042
1.44762
1.38073
1.41635
1.26466
1.1269
1.09782
1.10075
1.14976
1.17471
1.15782
1.10871
1.07515
1.06862
1.06104
1.05581
1.05079
1.04327
0.987612
0.343028
0.33391
0.342649
0.389076
0.599713
1.14472
1.63326
1.47851
1.36323
1.42218
1.29435
1.13268
1.08994
1.08753
1.12787
1.16741
1.15746
1.11758
1.0735
1.06266
1.05738
1.05013
1.04171
1.02974
0.961958
0.353395
0.355476
0.383788
0.535315
1.02869
1.6126
1.54102
1.38558
1.42362
1.3307
1.17449
1.13637
1.13855
1.17525
1.20164
1.18295
1.13677
1.09461
1.08088
1.07759
1.06829
1.06217
1.05814
1.05189
1.00974
0.353048
0.354931
0.382486
0.53056
1.0195
1.61022
1.54447
1.38634
1.42307
1.33313
1.17504
1.13568
1.1372
1.17283
1.20087
1.18317
1.1375
1.09441
1.08037
1.07714
1.06799
1.06193
1.05781
1.05188
1.00933
0.352317
0.35377
0.379661
0.520165
0.998269
1.59985
1.55253
1.38854
1.42275
1.34121
1.17784
1.13416
1.13426
1.16767
1.19941
1.18388
1.13927
1.09462
1.08007
1.07693
1.06822
1.0622
1.05785
1.05234
1.00929
0.351292
0.351999
0.375594
0.505315
0.965732
1.58005
1.56226
1.38966
1.42064
1.35364
1.18398
1.13289
1.13134
1.16222
1.19769
1.18471
1.14191
1.09529
1.07994
1.07681
1.06847
1.06274
1.05866
1.05349
1.00988
0.350094
0.349628
0.3706
0.487478
0.922645
1.55011
1.57598
1.39142
1.41657
1.36641
1.19162
1.13064
1.12598
1.15245
1.19379
1.1847
1.14512
1.09639
1.0796
1.07642
1.06864
1.06304
1.05888
1.05509
1.00915
0.348776
0.346729
0.365144
0.467894
0.870177
1.50286
1.59445
1.39658
1.41141
1.38089
1.2036
1.12821
1.1201
1.14174
1.18888
1.18414
1.14856
1.09792
1.07904
1.0755
1.06832
1.06323
1.05944
1.05486
1.00817
0.347353
0.343576
0.359371
0.447366
0.809882
1.43435
1.61483
1.40729
1.40476
1.39275
1.21937
1.12628
1.11308
1.12844
1.18023
1.18219
1.1525
1.09991
1.07822
1.07407
1.06719
1.06244
1.05845
1.05419
1.00609
0.345887
0.340305
0.353547
0.426742
0.743304
1.34661
1.63154
1.4233
1.39554
1.40642
1.23979
1.12552
1.10557
1.11432
1.16752
1.17936
1.15608
1.10292
1.07635
1.07174
1.06527
1.06044
1.05583
1.05088
1.00084
0.344432
0.337042
0.347899
0.407139
0.672835
1.24264
1.64042
1.44764
1.38087
1.41649
1.26431
1.12692
1.09785
1.10078
1.14977
1.17469
1.15781
1.10871
1.07515
1.06862
1.06104
1.05581
1.0508
1.04328
0.987615
0.343029
0.333912
0.342651
0.389084
0.599746
1.14476
1.63326
1.47851
1.36334
1.42226
1.29414
1.1327
1.08996
1.08755
1.12788
1.16741
1.15746
1.11758
1.0735
1.06266
1.05738
1.05013
1.04171
1.02974
0.961961
0.353394
0.355475
0.383786
0.535306
1.02867
1.6126
1.54102
1.38557
1.42361
1.3307
1.17449
1.13638
1.13856
1.17524
1.20163
1.18295
1.13677
1.09461
1.08087
1.07759
1.06828
1.06215
1.05812
1.05187
1.00972
0.353047
0.354931
0.382484
0.530555
1.01949
1.61022
1.54448
1.38634
1.42304
1.3331
1.17503
1.13569
1.13721
1.17283
1.20087
1.18316
1.1375
1.09441
1.08037
1.07713
1.06797
1.06191
1.05779
1.05186
1.00931
0.352317
0.353769
0.379659
0.520159
0.998258
1.59985
1.55254
1.38853
1.42272
1.34116
1.1778
1.13412
1.1342
1.16759
1.1994
1.18388
1.13928
1.09462
1.08007
1.07692
1.06821
1.06218
1.05783
1.05232
1.00927
0.351292
0.351998
0.375592
0.505311
0.965723
1.58006
1.56229
1.38969
1.42064
1.35362
1.18399
1.13293
1.13141
1.16238
1.19768
1.18471
1.14191
1.09528
1.07994
1.07681
1.06846
1.06273
1.05864
1.05347
1.00987
0.350093
0.349627
0.370599
0.487473
0.922633
1.5501
1.57599
1.39142
1.41662
1.3666
1.19177
1.13063
1.12592
1.15233
1.19377
1.1847
1.14513
1.09639
1.0796
1.07642
1.06863
1.06302
1.05886
1.05507
1.00913
0.348775
0.346728
0.365142
0.467889
0.870165
1.50285
1.59445
1.39656
1.41146
1.38107
1.20377
1.12807
1.1198
1.14137
1.18874
1.18412
1.1486
1.09793
1.07903
1.0755
1.06832
1.06322
1.05942
1.05484
1.00816
0.347353
0.343575
0.35937
0.447363
0.809873
1.43435
1.61484
1.40729
1.40478
1.39283
1.21939
1.12615
1.1129
1.12822
1.18003
1.18208
1.15251
1.09992
1.07822
1.07407
1.06718
1.06243
1.05844
1.05418
1.00607
0.345887
0.340305
0.353547
0.426742
0.743303
1.34662
1.63156
1.42332
1.39555
1.40643
1.23971
1.12547
1.10564
1.11444
1.16767
1.17944
1.1561
1.10293
1.07636
1.07174
1.06527
1.06043
1.05582
1.05087
1.00082
0.344432
0.337042
0.3479
0.407141
0.672841
1.24266
1.64044
1.44766
1.38086
1.41646
1.26418
1.12695
1.09805
1.10102
1.15004
1.17474
1.15782
1.10869
1.07515
1.06862
1.06104
1.05581
1.05079
1.04327
0.987605
0.343029
0.333912
0.342652
0.389086
0.599757
1.14478
1.63327
1.47852
1.36333
1.42219
1.294
1.13275
1.09016
1.08781
1.12821
1.16748
1.15747
1.11755
1.07349
1.06267
1.05738
1.05013
1.0417
1.02973
0.961952
0.353399
0.355481
0.383799
0.535351
1.02874
1.61264
1.54102
1.3856
1.42375
1.33093
1.17454
1.13627
1.1384
1.17505
1.20157
1.18295
1.13681
1.09462
1.08088
1.0776
1.06829
1.06216
1.05813
1.05187
1.00972
0.35305
0.354934
0.382491
0.530567
1.01951
1.61008
1.54436
1.38633
1.42343
1.33375
1.1752
1.13556
1.13696
1.17249
1.2008
1.18318
1.13754
1.09442
1.08038
1.07714
1.06798
1.06192
1.05779
1.05186
1.00931
0.352321
0.353775
0.37967
0.52019
0.998309
1.59983
1.55247
1.38854
1.42283
1.34119
1.17784
1.13425
1.13439
1.16783
1.19944
1.18387
1.13926
1.09462
1.08008
1.07693
1.06822
1.06219
1.05783
1.05232
1.00927
0.351296
0.352006
0.375607
0.505356
0.965808
1.58009
1.56224
1.38967
1.42051
1.35334
1.18387
1.13297
1.13148
1.16237
1.19773
1.18469
1.14188
1.09528
1.07995
1.07681
1.06847
1.06273
1.05865
1.05347
1.00986
0.350097
0.349635
0.370613
0.487517
0.922731
1.55012
1.57591
1.39141
1.41649
1.36609
1.19149
1.13073
1.12616
1.15269
1.19385
1.18468
1.14507
1.09638
1.0796
1.07642
1.06864
1.06303
1.05887
1.05506
1.00913
0.348779
0.346735
0.365155
0.467928
0.870264
1.50288
1.59436
1.39654
1.41131
1.38062
1.20342
1.12835
1.12035
1.14205
1.18898
1.18412
1.1485
1.0979
1.07904
1.0755
1.06832
1.06322
1.05942
1.05484
1.00816
0.347355
0.343581
0.35938
0.447399
0.809977
1.43444
1.61475
1.40723
1.40469
1.39251
1.21917
1.12645
1.11339
1.12879
1.18038
1.18218
1.15245
1.09989
1.07823
1.07407
1.06719
1.06244
1.05844
1.05418
1.00607
0.345889
0.340309
0.353555
0.42677
0.743395
1.34674
1.63148
1.42324
1.39551
1.40626
1.23965
1.12568
1.10583
1.11461
1.16769
1.17936
1.15604
1.10288
1.07635
1.07174
1.06527
1.06043
1.05582
1.05087
1.00082
0.344433
0.337045
0.347905
0.407161
0.672918
1.24276
1.6404
1.44757
1.38084
1.41636
1.2642
1.12704
1.09798
1.10091
1.14988
1.1747
1.15779
1.10867
1.07514
1.06862
1.06104
1.0558
1.05079
1.04327
0.987604
0.34303
0.333914
0.342656
0.389099
0.599817
1.14486
1.63327
1.47846
1.36331
1.42217
1.29406
1.13273
1.08998
1.08756
1.12786
1.16736
1.15742
1.11756
1.07349
1.06267
1.05739
1.05013
1.0417
1.02973
0.961949
0.353388
0.355468
0.38377
0.535263
1.02861
1.61263
1.5411
1.38563
1.42356
1.33067
1.17443
1.13628
1.13845
1.17515
1.2016
1.18295
1.13679
1.09463
1.08091
1.07763
1.06834
1.06223
1.05821
1.05187
1.0095
0.353041
0.354922
0.382469
0.530512
1.01942
1.61028
1.54457
1.38639
1.42308
1.33324
1.17508
1.13564
1.1371
1.1727
1.20084
1.18317
1.13753
1.09444
1.08041
1.07718
1.06803
1.06198
1.05787
1.05186
1.00912
0.35231
0.35376
0.379642
0.520107
0.998169
1.59984
1.55258
1.38852
1.42295
1.34183
1.1781
1.13397
1.13397
1.16733
1.19932
1.18389
1.13932
1.09464
1.0801
1.07696
1.06826
1.06224
1.0579
1.05231
1.00909
0.351287
0.35199
0.375576
0.505262
0.965633
1.58003
1.56231
1.38965
1.42071
1.35378
1.18391
1.13266
1.13105
1.16188
1.1976
1.18471
1.14198
1.09532
1.07996
1.07683
1.06849
1.06276
1.05869
1.05346
1.00972
0.350089
0.34962
0.370587
0.487438
0.922556
1.55012
1.57607
1.39146
1.41643
1.36625
1.1916
1.13073
1.12624
1.15271
1.19381
1.1847
1.14513
1.09641
1.07961
1.07643
1.06864
1.06304
1.05889
1.05505
1.00903
0.348772
0.346722
0.365133
0.467861
0.870096
1.50285
1.59454
1.3967
1.41137
1.38072
1.20304
1.1285
1.12059
1.14232
1.18921
1.18418
1.14852
1.09791
1.07905
1.07551
1.06832
1.06323
1.05944
1.05483
1.00807
0.347349
0.34357
0.359361
0.447335
0.809796
1.43428
1.61488
1.40736
1.40468
1.39274
1.21982
1.12649
1.11322
1.12852
1.18019
1.18217
1.15248
1.09989
1.07823
1.07406
1.06718
1.06245
1.05846
1.05418
1.006
0.345884
0.340299
0.353538
0.426714
0.74322
1.34651
1.63155
1.42329
1.39538
1.40631
1.24047
1.12557
1.10545
1.11413
1.16733
1.17932
1.15606
1.10291
1.07636
1.07175
1.06528
1.06044
1.05586
1.05088
1.00075
0.344429
0.337037
0.347892
0.407117
0.672758
1.24254
1.64042
1.44762
1.38071
1.41634
1.26474
1.12686
1.09767
1.10056
1.14947
1.17452
1.15774
1.10874
1.07516
1.06864
1.06107
1.05584
1.05084
1.0433
0.987536
0.343027
0.333908
0.342646
0.389067
0.599681
1.14468
1.63325
1.47851
1.36323
1.42216
1.29432
1.13259
1.08989
1.08746
1.12774
1.16731
1.15739
1.1176
1.07351
1.06266
1.0574
1.05018
1.04178
1.02978
0.961886
0.341716
0.330989
0.337956
0.373771
0.535753
1.04064
1.60363
1.51194
1.3513
1.42162
1.32399
1.14655
1.0844
1.07432
1.10106
1.15879
1.15554
1.1271
1.07433
1.06034
1.05165
1.04311
1.03026
1.00857
0.883269
0.340525
0.328314
0.333806
0.361212
0.484368
0.9293
1.53005
1.5434
1.35252
1.41569
1.35055
1.17038
1.08169
1.06195
1.07557
1.1426
1.15131
1.13386
1.07863
1.05488
1.04342
1.03445
1.01762
0.995347
0.88562
0.339468
0.325916
0.330197
0.350988
0.442253
0.81005
1.41573
1.57587
1.36629
1.40478
1.37269
1.20461
1.08296
1.04758
1.05159
1.11248
1.14478
1.13526
1.08496
1.05138
1.03763
1.02912
1.00941
0.991072
0.902441
0.338551
0.323826
0.327146
0.342819
0.408728
0.69272
1.26805
1.59666
1.39697
1.38971
1.38904
1.24871
1.08977
1.03583
1.03217
1.07094
1.13461
1.13297
1.09911
1.05377
1.03172
1.02133
1.00237
0.985012
0.93722
0.337773
0.322055
0.324635
0.336392
0.383023
0.588448
1.12696
1.59615
1.44272
1.36975
1.40018
1.28844
1.10942
1.03486
1.01679
1.03478
1.11134
1.12686
1.10986
1.06042
1.03055
1.01758
0.99448
0.981079
0.955171
0.337138
0.3206
0.32262
0.331374
0.36397
0.508547
0.998477
1.58581
1.49018
1.35747
1.39736
1.31881
1.15087
1.03949
1.00041
1.00959
1.06024
1.1136
1.10812
1.07538
1.03333
1.01792
0.995074
0.977607
0.967885
0.336651
0.319457
0.321059
0.327497
0.349993
0.445773
0.833395
1.48359
1.52056
1.36064
1.39477
1.346
1.20635
1.04996
0.995127
0.989703
1.01157
1.09161
1.10171
1.08679
1.04136
1.02043
0.998212
0.979946
0.970315
0.336331
0.318603
0.319881
0.324599
0.340392
0.403457
0.675564
1.22956
1.53529
1.37179
1.39892
1.36941
1.26671
1.07278
0.998283
0.97124
0.9792
1.04404
1.08686
1.08365
1.05913
1.03029
1.00499
0.984271
0.971657
0.336195
0.318002
0.318978
0.322324
0.3334
0.375378
0.561588
1.06166
1.53878
1.40982
1.40522
1.38858
1.30974
1.12593
1.00867
0.966352
0.957448
0.983984
1.06197
1.07644
1.06442
1.04401
1.02091
0.992556
0.975031
0.33624
0.317613
0.318283
0.32053
0.328092
0.355293
0.475892
0.918003
1.53322
1.44663
1.40902
1.40072
1.3409
1.19267
1.03116
0.968948
0.943053
0.952239
1.01176
1.05964
1.05908
1.04838
1.03523
1.0108
0.983772
0.336456
0.317348
0.317732
0.319278
0.324518
0.341841
0.411228
0.720369
1.3781
1.4509
1.4083
1.41347
1.37147
1.26284
1.06288
0.976799
0.941303
0.935615
0.95524
1.0254
1.04744
1.04504
1.03822
1.02758
1.00444
0.336743
0.317116
0.317397
0.318606
0.322236
0.333316
0.374165
0.557069
1.02188
1.4563
1.40057
1.41857
1.4025
1.3288
1.12229
0.994938
0.944805
0.922817
0.928954
0.96577
1.02438
1.03703
1.0361
1.03249
1.02397
0.336944
0.317016
0.317308
0.318009
0.320266
0.327291
0.351835
0.457827
0.843768
1.44091
1.40147
1.41545
1.41624
1.37797
1.22795
1.03096
0.955922
0.922886
0.913213
0.924043
0.97923
1.02031
1.03085
1.03132
1.0295
0.337012
0.317048
0.317149
0.317507
0.318873
0.323183
0.337358
0.393188
0.656286
1.25943
1.38269
1.40637
1.41497
1.40041
1.31899
1.10367
0.988492
0.929204
0.905182
0.90658
0.925012
0.98537
1.01747
1.02749
1.02898
0.337032
0.317149
0.316956
0.317123
0.317949
0.320578
0.328805
0.358013
0.489417
0.888488
1.3685
1.37796
1.4028
1.40186
1.37036
1.21447
1.04565
0.948307
0.908357
0.890456
0.896116
0.922247
0.986344
1.01527
1.02541
0.337044
0.317232
0.316795
0.316877
0.317347
0.318874
0.323584
0.339284
0.402385
0.680621
1.25991
1.32758
1.38552
1.39692
1.38617
1.30545
1.11432
0.992591
0.919885
0.890016
0.87599
0.883246
0.915631
0.983696
1.01275
0.337051
0.317283
0.316685
0.316736
0.31697
0.317803
0.32041
0.32863
0.358168
0.494671
0.893648
1.29
1.33949
1.38709
1.38388
1.34921
1.21356
1.0436
0.946207
0.895019
0.871237
0.861247
0.869022
0.902711
0.976008
0.337052
0.317311
0.31662
0.31665
0.31674
0.317165
0.318545
0.322829
0.337018
0.393509
0.640697
1.14947
1.2802
1.34985
1.37669
1.3573
1.28838
1.11236
0.987889
0.912972
0.87447
0.851114
0.848114
0.85767
0.890379
0.337055
0.317317
0.316577
0.316595
0.316632
0.316811
0.317483
0.319637
0.326384
0.350105
0.456734
0.79919
1.20846
1.28334
1.34841
1.3529
1.32031
1.20693
1.03619
0.939455
0.886925
0.853937
0.832896
0.834662
0.846067
0.337058
0.317306
0.316575
0.316563
0.316558
0.316602
0.316911
0.317956
0.3212
0.331569
0.370861
0.551645
0.949059
1.21011
1.28433
1.33407
1.32033
1.2686
1.10815
0.979978
0.911211
0.867517
0.83615
0.818805
0.822188
0.337058
0.317301
0.316582
0.316539
0.316524
0.316505
0.316626
0.317122
0.31866
0.323238
0.338343
0.399983
0.64437
1.05855
1.20542
1.28228
1.30906
1.28483
1.19747
1.03031
0.933678
0.888527
0.849496
0.8207
0.810567
0.337059
0.317299
0.316584
0.31653
0.31651
0.316463
0.316498
0.31674
0.317483
0.319546
0.325617
0.346754
0.440677
0.729883
1.09447
1.20453
1.27311
1.2783
1.24199
1.10322
0.973526
0.906434
0.874397
0.833692
0.812203
0.337059
0.317299
0.316585
0.316528
0.316505
0.316448
0.316447
0.316585
0.316987
0.31794
0.320499
0.32829
0.356691
0.487002
0.789917
1.09601
1.20489
1.25445
1.24205
1.1757
1.02038
0.927944
0.885828
0.862191
0.824457
0.337059
0.317299
0.316585
0.316528
0.316504
0.316446
0.316434
0.316536
0.316851
0.317308
0.318444
0.321622
0.331169
0.366018
0.517681
0.821398
1.0921
1.203
1.22968
1.19902
1.07713
0.957837
0.898527
0.873632
0.851384
0.337059
0.317299
0.316585
0.316528
0.316504
0.316446
0.316434
0.316532
0.316839
0.317095
0.317787
0.319263
0.322885
0.333613
0.373101
0.532669
0.819959
1.09928
1.19691
1.19223
1.12222
0.98102
0.908198
0.877497
0.861676
0.337059
0.317299
0.316585
0.316528
0.316504
0.316446
0.316434
0.316531
0.316839
0.31708
0.317673
0.318613
0.320196
0.324387
0.336318
0.377094
0.5265
0.803616
1.11802
1.16424
1.12044
1.00187
0.910554
0.874447
0.859799
0.337059
0.317299
0.316585
0.316528
0.316504
0.316446
0.316434
0.316531
0.316839
0.317079
0.317665
0.318605
0.319661
0.32219
0.327331
0.339691
0.377322
0.502312
0.785071
1.06838
1.0696
0.998693
0.909735
0.864663
0.84787
0.337059
0.317299
0.316585
0.316528
0.316504
0.316446
0.316434
0.316531
0.316839
0.317079
0.317664
0.318606
0.319635
0.322206
0.325667
0.332523
0.346849
0.380793
0.475776
0.669944
0.849229
0.91008
0.887608
0.848053
0.831835
0.337059
0.317299
0.316585
0.316528
0.316504
0.316446
0.316434
0.316531
0.316839
0.317079
0.317664
0.318606
0.319633
0.322215
0.325609
0.332298
0.343651
0.363427
0.410278
0.483627
0.554871
0.613888
0.669701
0.741768
0.791391
0.337059
0.317299
0.316585
0.316528
0.316504
0.316446
0.316434
0.316531
0.316839
0.317079
0.317664
0.318606
0.319633
0.322216
0.325607
0.332275
0.343655
0.362444
0.406473
0.464351
0.508321
0.533925
0.545563
0.565279
0.60428
0.337059
0.317299
0.316585
0.316528
0.316504
0.316446
0.316434
0.316531
0.316839
0.317079
0.317664
0.318606
0.319633
0.322214
0.325604
0.332273
0.343649
0.362383
0.406359
0.463123
0.505166
0.526238
0.529733
0.532811
0.541117
0.337059
0.317299
0.316585
0.316528
0.316504
0.316446
0.316434
0.316531
0.316839
0.317079
0.317664
0.318605
0.319634
0.322216
0.325609
0.332269
0.343654
0.362399
0.406377
0.463098
0.505081
0.525785
0.528538
0.529219
0.531779
0.337059
0.317299
0.316585
0.316528
0.316504
0.316446
0.316434
0.316531
0.316839
0.317079
0.317663
0.318605
0.319633
0.322215
0.325609
0.332266
0.343651
0.362395
0.406368
0.463086
0.505066
0.525737
0.528424
0.528864
0.530792
0.337059
0.317299
0.316585
0.316528
0.316504
0.316446
0.316434
0.316531
0.316839
0.317079
0.317663
0.318606
0.319633
0.322214
0.325607
0.332271
0.343647
0.362385
0.40637
0.463062
0.504984
0.525653
0.528321
0.528707
0.530518
0.337059
0.317299
0.316585
0.316528
0.316504
0.316446
0.316434
0.316531
0.316839
0.317079
0.317663
0.318605
0.319633
0.322215
0.32561
0.332264
0.343648
0.362394
0.406364
0.463087
0.505073
0.525742
0.52842
0.52883
0.530682
0.337059
0.317299
0.316585
0.316528
0.316504
0.316446
0.316434
0.316531
0.316839
0.317079
0.317663
0.318605
0.319633
0.322215
0.325609
0.332266
0.343651
0.362397
0.406372
0.463095
0.505079
0.525751
0.528427
0.528832
0.530678
0.337059
0.317299
0.316585
0.316528
0.316504
0.316446
0.316434
0.316531
0.316839
0.317078
0.317663
0.318605
0.319633
0.322214
0.325606
0.332266
0.343645
0.362381
0.406349
0.463056
0.505003
0.525681
0.528353
0.528744
0.530562
0.337059
0.317299
0.316585
0.316528
0.316504
0.316446
0.316434
0.316531
0.316839
0.317078
0.317663
0.318605
0.319633
0.322214
0.325608
0.332268
0.34365
0.362394
0.406377
0.463099
0.505066
0.525736
0.528409
0.528809
0.530645
0.337059
0.317299
0.316585
0.316528
0.316504
0.316446
0.316434
0.316531
0.316839
0.317078
0.317663
0.318605
0.319632
0.322213
0.325607
0.332266
0.343644
0.362382
0.406356
0.463057
0.504998
0.52567
0.528344
0.528735
0.530553
0.337059
0.317299
0.316585
0.316528
0.316504
0.316446
0.316434
0.316531
0.316839
0.317078
0.317663
0.318605
0.319633
0.322215
0.32561
0.332263
0.343648
0.362396
0.406373
0.463093
0.505076
0.525742
0.528419
0.528828
0.530678
0.341719
0.330994
0.337964
0.373799
0.535871
1.04087
1.60376
1.51189
1.35131
1.42167
1.32404
1.1465
1.0842
1.07403
1.10068
1.15861
1.15546
1.12713
1.07432
1.06034
1.05163
1.04304
1.03015
1.00847
0.883293
0.340527
0.328318
0.333813