/*--------------------------------*- C++ -*----------------------------------*\
| =========                 |                                                 |
| \\      /  F ield         | OpenFOAM: The Open Source CFD Toolbox           |
|  \\    /   O peration     | Version:  4.1                                   |
|   \\  /    A nd           | Web:      www.OpenFOAM.org                      |
|    \\/     M anipulation  |                                                 |
\*---------------------------------------------------------------------------*/
FoamFile
{
    version     2.0;
    format      ascii;
    class       volVectorField;
    location    "0.58";
    object      U;
}
// * * * * * * * * * * * * * * * * * * * * * * * * * * * * * * * * * * * * * //

dimensions      [0 1 -1 0 0 0 0];

internalField   nonuniform List<vector> 
52500
(
(1.79207 4.6536e-05 -0.00226075)
(1.8086 0.000307541 -0.00225186)
(1.77797 0.000693115 -0.0024578)
(1.59452 0.00196286 -0.00351216)
(0.714059 0.00724294 -0.00716643)
(-0.241314 0.024945 -0.0114587)
(-0.308997 0.0232614 -0.0107085)
(0.187707 0.018442 -0.00978742)
(0.0103267 0.024763 -0.0101272)
(-0.0744634 0.0234837 -0.00944515)
(-0.00329162 0.021922 -0.00834069)
(0.0101917 0.020817 -0.00807942)
(0.0206524 0.0199663 -0.00808796)
(0.0331579 0.0201921 -0.00834169)
(0.0420027 0.0210359 -0.00852468)
(0.0458245 0.0223525 -0.00838683)
(0.0532765 0.0234707 -0.00805225)
(0.0625866 0.0246653 -0.00774466)
(0.0738802 0.0255504 -0.00764066)
(0.0841026 0.0264519 -0.00761114)
(0.091139 0.0272346 -0.00754458)
(0.0838857 0.0280883 -0.00750659)
(0.0819762 0.0285543 -0.0074878)
(0.0360276 0.0293928 -0.00746294)
(0.0266167 0.029205 -0.00718244)
(1.79256 0.00014369 -0.00225866)
(1.80929 0.000959174 -0.00224763)
(1.77945 0.00216942 -0.0024483)
(1.60026 0.00617215 -0.00347756)
(0.733239 0.0229677 -0.00707847)
(-0.234389 0.0759928 -0.0113815)
(-0.3163 0.0619189 -0.0106874)
(0.184634 0.0448178 -0.00976143)
(0.0124638 0.0613347 -0.0100802)
(-0.0762401 0.0530709 -0.00942681)
(-0.00284328 0.0484264 -0.00831583)
(0.0116411 0.0464554 -0.00804873)
(0.0225499 0.0446807 -0.00805279)
(0.0356566 0.0452433 -0.00829773)
(0.0452001 0.046402 -0.00849012)
(0.0490984 0.0483229 -0.00835819)
(0.0564375 0.0504106 -0.00802727)
(0.065518 0.0528718 -0.00771362)
(0.0763953 0.0546869 -0.00760712)
(0.0861962 0.0565875 -0.00757729)
(0.0927211 0.0582022 -0.0075116)
(0.084905 0.0601359 -0.00747343)
(0.0822098 0.0610106 -0.00745403)
(0.0355494 0.0615003 -0.00743125)
(0.0262954 0.0599761 -0.0071497)
(1.79362 0.000235259 -0.00225429)
(1.81078 0.00160968 -0.00223876)
(1.78262 0.00362436 -0.00242814)
(1.61288 0.0102542 -0.00340386)
(0.778919 0.0382991 -0.00689229)
(-0.211072 0.130564 -0.0112519)
(-0.328014 0.105225 -0.0106973)
(0.185851 0.0743914 -0.00974256)
(0.0237237 0.104001 -0.0100368)
(-0.076062 0.088768 -0.00945202)
(0.000603521 0.0815326 -0.00830743)
(0.0152204 0.0794545 -0.00801093)
(0.0261377 0.0773037 -0.00800563)
(0.0394222 0.0785629 -0.00823325)
(0.0495593 0.080853 -0.00844982)
(0.0541607 0.0841747 -0.00833184)
(0.0619577 0.0874901 -0.00800837)
(0.070525 0.0914109 -0.00768444)
(0.0806366 0.0945328 -0.00757428)
(0.0900068 0.0977627 -0.00754424)
(0.096165 0.10051 -0.00748123)
(0.0877522 0.10382 -0.00744266)
(0.0836351 0.105769 -0.00742193)
(0.0355137 0.107227 -0.0074014)
(0.0260156 0.104886 -0.00711778)
(1.79515 0.000305136 -0.00224817)
(1.81295 0.00216081 -0.00222545)
(1.78717 0.00480889 -0.00239928)
(1.63086 0.0133797 -0.00329921)
(0.850324 0.0498569 -0.0066205)
(-0.175165 0.179703 -0.0110698)
(-0.343382 0.151448 -0.0107155)
(0.186108 0.103518 -0.00971386)
(0.0413035 0.143921 -0.00998651)
(-0.0769134 0.126697 -0.00950777)
(0.00550474 0.113921 -0.00832294)
(0.020371 0.111146 -0.00797496)
(0.0308298 0.108175 -0.00795844)
(0.0448343 0.109639 -0.00816663)
(0.0563394 0.113224 -0.00840633)
(0.0615838 0.118336 -0.00830495)
(0.0696088 0.123038 -0.00799436)
(0.0777109 0.12823 -0.00765788)
(0.0868989 0.132897 -0.00754193)
(0.0956174 0.137736 -0.00751112)
(0.101237 0.141865 -0.00744992)
(0.0922044 0.146864 -0.00741266)
(0.0868147 0.150437 -0.00739347)
(0.0368122 0.154128 -0.00737395)
(0.0260735 0.152363 -0.00708742)
(1.79707 0.000356207 -0.00224103)
(1.81565 0.00258849 -0.00220792)
(1.79266 0.00568536 -0.00236382)
(1.65244 0.015483 -0.00317383)
(0.944155 0.0574939 -0.00627579)
(-0.125501 0.22051 -0.0108208)
(-0.360407 0.202685 -0.0107561)
(0.179966 0.132614 -0.00968602)
(0.0659348 0.176681 -0.00993082)
(-0.0765564 0.168577 -0.00956564)
(0.00987556 0.146181 -0.00835023)
(0.0267034 0.142787 -0.00793152)
(0.0363439 0.138944 -0.00789383)
(0.0509217 0.140518 -0.00806997)
(0.0642535 0.145172 -0.00834808)
(0.070709 0.151839 -0.00827162)
(0.0790756 0.157868 -0.00798339)
(0.0866929 0.164046 -0.00763383)
(0.0950851 0.170295 -0.00750731)
(0.103162 0.17701 -0.00747523)
(0.108403 0.183022 -0.00741674)
(0.098928 0.19029 -0.00737944)
(0.0923617 0.196128 -0.00735876)
(0.0405193 0.202996 -0.00734667)
(0.0272523 0.20302 -0.00704539)
(1.79928 0.000392808 -0.00223318)
(1.81872 0.0028878 -0.0021868)
(1.79874 0.00627483 -0.00232485)
(1.67612 0.0167035 -0.00303663)
(1.05567 0.0618986 -0.00587133)
(-0.0582613 0.250679 -0.0104706)
(-0.373486 0.259645 -0.0108489)
(0.160687 0.1626 -0.0096793)
(0.0959489 0.203909 -0.00986657)
(-0.0708346 0.213102 -0.00963273)
(0.012064 0.17844 -0.00840213)
(0.0343401 0.174351 -0.00788544)
(0.0425301 0.169572 -0.00782211)
(0.0579996 0.170797 -0.00796302)
(0.0736177 0.176811 -0.00827997)
(0.0814499 0.185055 -0.00823367)
(0.090015 0.192227 -0.00797408)
(0.0974136 0.19932 -0.00761219)
(0.105324 0.207176 -0.00747056)
(0.112928 0.216075 -0.00743486)
(0.11795 0.22469 -0.00737913)
(0.108246 0.234839 -0.00734385)
(0.100771 0.243456 -0.00732357)
(0.0473298 0.254259 -0.00730293)
(0.0298721 0.257263 -0.00699733)
(1.80166 0.000413443 -0.00222472)
(1.82203 0.00305618 -0.00216377)
(1.8051 0.00658175 -0.00228345)
(1.70086 0.017109 -0.00289361)
(1.17765 0.0634219 -0.0054264)
(0.031246 0.265584 -0.00999173)
(-0.377096 0.321424 -0.0109748)
(0.124401 0.19522 -0.00970086)
(0.131749 0.22878 -0.00978572)
(-0.0590554 0.258365 -0.00967229)
(0.011566 0.211613 -0.00848655)
(0.0434275 0.205739 -0.00784296)
(0.0494975 0.200376 -0.00774425)
(0.0659914 0.200643 -0.00784087)
(0.0840144 0.208044 -0.00818606)
(0.0934553 0.217599 -0.00818553)
(0.102336 0.226082 -0.00796741)
(0.109857 0.23413 -0.00759331)
(0.117698 0.243657 -0.00743133)
(0.125347 0.254968 -0.00738976)
(0.130539 0.266752 -0.00733411)
(0.120741 0.281022 -0.00729857)
(0.112629 0.293617 -0.00727404)
(0.0581861 0.309738 -0.00725103)
(0.0350051 0.317585 -0.00693464)
(1.80411 0.000417957 -0.00221601)
(1.82543 0.00310058 -0.0021398)
(1.81145 0.00661146 -0.00224139)
(1.72555 0.0167512 -0.00275056)
(1.30038 0.0618656 -0.00495045)
(0.147032 0.261732 -0.00939716)
(-0.365398 0.385429 -0.0110709)
(0.0689425 0.231971 -0.00973862)
(0.17291 0.251243 -0.00968543)
(-0.0405023 0.302163 -0.00972899)
(0.00811909 0.247471 -0.00859631)
(0.0538045 0.23701 -0.00780878)
(0.0574462 0.231352 -0.00766538)
(0.0749013 0.230311 -0.00771672)
(0.095219 0.238699 -0.00806896)
(0.106736 0.249247 -0.0081339)
(0.116073 0.259356 -0.00795787)
(0.124191 0.26819 -0.00758077)
(0.132358 0.279653 -0.00738437)
(0.140564 0.293552 -0.00733769)
(0.146893 0.308946 -0.00728174)
(0.137764 0.328883 -0.00724106)
(0.129747 0.347914 -0.00720805)
(0.0752811 0.373161 -0.00717312)
(0.0439513 0.390741 -0.00683966)
(1.80654 0.000407559 -0.00220736)
(1.82879 0.00303565 -0.00211577)
(1.81752 0.00639706 -0.00220026)
(1.7489 0.015766 -0.00261521)
(1.41494 0.0573246 -0.00444824)
(0.291637 0.239163 -0.00869772)
(-0.332174 0.447555 -0.0111178)
(-0.00454239 0.275822 -0.00983666)
(0.216157 0.270342 -0.0095479)
(-0.0126397 0.342015 -0.00976491)
(0.00299157 0.286458 -0.00873108)
(0.0643713 0.268043 -0.00778978)
(0.0666814 0.262428 -0.00758447)
(0.0848206 0.260296 -0.00759533)
(0.106666 0.26876 -0.00791699)
(0.120942 0.279999 -0.00806954)
(0.130924 0.291924 -0.00793583)
(0.140446 0.301406 -0.00758629)
(0.149638 0.314828 -0.00734129)
(0.158915 0.331412 -0.00727903)
(0.16787 0.350759 -0.00721185)
(0.161237 0.377461 -0.00716203)
(0.155547 0.407396 -0.00711695)
(0.104637 0.446974 -0.00705449)
(0.0610753 0.48772 -0.00667252)
(1.80888 0.000383817 -0.00219901)
(1.832 0.00288286 -0.00209266)
(1.82311 0.00599033 -0.00216156)
(1.76981 0.0142867 -0.00248976)
(1.51282 0.0502523 -0.00394215)
(0.460784 0.207465 -0.00798958)
(-0.267964 0.501019 -0.0110556)
(-0.0907801 0.330528 -0.00998555)
(0.256088 0.28721 -0.00939074)
(0.0234872 0.374273 -0.00976993)
(-0.000677286 0.330585 -0.00888894)
(0.0745478 0.299461 -0.00779884)
(0.0778303 0.293638 -0.00750134)
(0.0956525 0.290538 -0.00747549)
(0.117843 0.298003 -0.0077367)
(0.135768 0.309775 -0.00798723)
(0.146823 0.323317 -0.00789984)
(0.158434 0.333949 -0.00761178)
(0.169426 0.348742 -0.00729511)
(0.180453 0.367617 -0.00720128)
(0.193813 0.391307 -0.00714388)
(0.193903 0.424803 -0.00707198)
(0.194516 0.46938 -0.00699038)
(0.157786 0.536706 -0.00687935)
(0.0965685 0.642785 -0.00638479)
(1.79206 4.69208e-05 -1.46688e-08)
(1.80858 0.000309455 -5.31621e-08)
(1.77794 0.000697698 -8.5054e-08)
(1.5944 0.00197791 -2.42623e-07)
(0.7137 0.00731013 -7.10596e-07)
(-0.241605 0.0251463 -2.06488e-07)
(-0.309004 0.0232949 5.10905e-07)
(0.187543 0.0185486 3.07619e-08)
(0.0100094 0.0248724 -4.73865e-08)
(-0.0745713 0.023397 3.853e-07)
(-0.00324292 0.0218699 1.12701e-07)
(0.0102731 0.0208013 1.61496e-07)
(0.0207233 0.0200097 3.33082e-07)
(0.0331956 0.0202501 2.55706e-07)
(0.0420041 0.021067 2.52791e-07)
(0.0458069 0.0223553 2.2753e-07)
(0.0532509 0.0234658 1.90921e-07)
(0.0625591 0.0246644 2.0374e-07)
(0.073862 0.0255503 2.0967e-07)
(0.0840952 0.0264506 1.79417e-07)
(0.0911445 0.0272307 1.22172e-07)
(0.0839019 0.0280814 4.50252e-08)
(0.0819986 0.028545 -5.21373e-08)
(0.0360545 0.0293808 -1.94519e-07)
(0.0266348 0.0291966 -2.43675e-07)
(1.79255 0.000143864 -1.25065e-08)
(1.80928 0.000960228 -4.56672e-08)
(1.77942 0.00217212 -7.15502e-08)
(1.6002 0.0061818 -1.91931e-07)
(0.733074 0.0230087 -4.91739e-07)
(-0.233997 0.076044 -3.33568e-07)
(-0.31578 0.0618034 4.82882e-07)
(0.185216 0.0447741 1.08374e-07)
(0.0129368 0.0612274 -1.77561e-07)
(-0.0757824 0.0529321 2.25855e-07)
(-0.00227297 0.0483497 2.11693e-07)
(0.0120402 0.0464292 2.01717e-07)
(0.0228001 0.0446995 2.58805e-07)
(0.0357338 0.0452691 2.551e-07)
(0.0452104 0.0464401 2.76156e-07)
(0.0490843 0.0483563 2.38504e-07)
(0.0564176 0.0504418 1.87456e-07)
(0.0654926 0.0528867 2.05311e-07)
(0.0763743 0.0546928 2.15093e-07)
(0.0861837 0.0565871 1.86911e-07)
(0.0927201 0.0581948 1.27488e-07)
(0.0849135 0.0601213 5.4733e-08)
(0.0822237 0.0609896 -3.87779e-08)
(0.0355664 0.0614697 -1.8266e-07)
(0.0263123 0.0599492 -2.32598e-07)
(1.7936 0.000235093 -1.20495e-08)
(1.81077 0.00160813 -4.31096e-08)
(1.7826 0.00362089 -6.70296e-08)
(1.6128 0.0102433 -1.80681e-07)
(0.778669 0.0382496 -5.10185e-07)
(-0.211221 0.130406 -3.68897e-07)
(-0.32792 0.105177 4.09355e-07)
(0.185984 0.0743398 2.64182e-07)
(0.0235812 0.103834 -1.98548e-07)
(-0.0761047 0.0888174 8.3403e-08)
(0.000597347 0.0815821 2.34631e-07)
(0.0151644 0.0795536 2.07201e-07)
(0.0260862 0.077408 2.54213e-07)
(0.0393996 0.0786648 2.77181e-07)
(0.0495103 0.0809196 2.779e-07)
(0.0541033 0.0842203 2.23807e-07)
(0.0619037 0.087542 1.99028e-07)
(0.0704746 0.0914295 2.15534e-07)
(0.080605 0.0945395 2.17717e-07)
(0.0899879 0.0977604 1.88624e-07)
(0.0961597 0.100498 1.27266e-07)
(0.0877587 0.103797 6.11564e-08)
(0.0836462 0.105737 -2.83798e-08)
(0.0355266 0.107182 -1.52774e-07)
(0.0260286 0.104849 -2.00121e-07)
(1.79514 0.000305284 -1.13223e-08)
(1.81293 0.00216035 -4.58936e-08)
(1.78714 0.00480796 -7.23865e-08)
(1.63075 0.0133761 -1.94339e-07)
(0.849937 0.0498362 -5.68858e-07)
(-0.175375 0.179595 -4.9864e-07)
(-0.343302 0.151432 4.71185e-07)
(0.186098 0.103522 3.37188e-07)
(0.0410425 0.143797 -1.72586e-07)
(-0.0770277 0.126704 8.51573e-09)
(0.00531779 0.113986 1.89917e-07)
(0.0201525 0.111272 1.69589e-07)
(0.0306075 0.108336 2.43225e-07)
(0.0446224 0.109781 2.18697e-07)
(0.0561338 0.113308 2.46742e-07)
(0.0614594 0.118385 2.19328e-07)
(0.0695228 0.123068 2.22004e-07)
(0.0776355 0.128239 2.29852e-07)
(0.0868578 0.132901 2.21462e-07)
(0.0955913 0.137733 1.96526e-07)
(0.101226 0.14185 1.36932e-07)
(0.0922056 0.146837 7.10676e-08)
(0.0868204 0.150397 -1.2622e-08)
(0.0368215 0.154071 -1.18458e-07)
(0.0260821 0.152315 -1.36352e-07)
(1.79706 0.000356476 -1.03669e-08)
(1.81563 0.0025894 -4.67506e-08)
(1.79263 0.00568754 -6.95387e-08)
(1.65234 0.015489 -1.8556e-07)
(0.943749 0.0575115 -5.52847e-07)
(-0.125663 0.220506 -7.07916e-07)
(-0.360321 0.202634 5.50923e-07)
(0.179959 0.132658 4.27392e-07)
(0.0656433 0.176691 -1.95607e-07)
(-0.0767129 0.168536 -5.17598e-08)
(0.00957573 0.146219 2.24702e-07)
(0.026358 0.142829 1.14718e-07)
(0.0359838 0.138976 2.0546e-07)
(0.0505949 0.140504 2.72729e-07)
(0.0639712 0.145156 2.67014e-07)
(0.070529 0.151839 2.33375e-07)
(0.078959 0.157862 2.00928e-07)
(0.0866128 0.164042 2.03483e-07)
(0.0950407 0.170287 2.2497e-07)
(0.10313 0.176998 2.08224e-07)
(0.108385 0.183001 1.46343e-07)
(0.0989234 0.190258 8.57118e-08)
(0.0923586 0.196083 1.2224e-08)
(0.0405216 0.20293 -8.53648e-08)
(0.0272549 0.202961 -9.13853e-08)
(1.79927 0.000393165 -1.0052e-08)
(1.8187 0.00288936 -4.62612e-08)
(1.79871 0.00627819 -6.74746e-08)
(1.67603 0.0167118 -1.72809e-07)
(1.05528 0.0619191 -5.11626e-07)
(-0.0584354 0.250694 -8.99623e-07)
(-0.373422 0.259607 5.95041e-07)
(0.160749 0.162666 4.86877e-07)
(0.095652 0.204033 -1.26811e-07)
(-0.0710718 0.213102 2.25409e-08)
(0.0117953 0.178529 6.38173e-08)
(0.033985 0.174365 4.57652e-08)
(0.0422045 0.169537 9.4918e-08)
(0.0577464 0.170709 1.96355e-07)
(0.0734026 0.176718 2.30462e-07)
(0.0813029 0.184985 2.29329e-07)
(0.0899029 0.192178 2.12244e-07)
(0.0973285 0.199296 2.19388e-07)
(0.105276 0.207149 2.21235e-07)
(0.112894 0.216047 2.10823e-07)
(0.117927 0.224659 1.7022e-07)
(0.108234 0.234798 1.18873e-07)
(0.100759 0.243405 5.91768e-08)
(0.0473243 0.254192 -4.85525e-08)
(0.029869 0.257204 -4.82688e-08)
(1.80165 0.000413837 -9.79736e-09)
(1.82201 0.00305815 -4.65429e-08)
(1.80508 0.00658596 -6.86701e-08)
(1.70078 0.017119 -1.78079e-07)
(1.17725 0.0634481 -5.57718e-07)
(0.0309762 0.265643 -1.20916e-06)
(-0.377051 0.321405 6.13823e-07)
(0.124519 0.195284 4.71861e-07)
(0.131502 0.228949 -1.69344e-07)
(-0.0592009 0.258413 2.18123e-08)
(0.0113296 0.211751 3.77843e-07)
(0.0431507 0.205779 6.55687e-08)
(0.0492856 0.200353 6.32365e-08)
(0.0658239 0.200584 1.59007e-07)
(0.0838857 0.207972 1.77802e-07)
(0.093364 0.217514 2.01598e-07)
(0.102258 0.225992 2.00612e-07)
(0.109786 0.234074 2.11719e-07)
(0.117652 0.24361 2.14106e-07)
(0.125315 0.254925 2.13735e-07)
(0.130515 0.26671 1.94794e-07)
(0.120724 0.280972 1.48604e-07)
(0.112611 0.293559 1.02268e-07)
(0.0581761 0.30967 9.01172e-09)
(0.0349985 0.317527 2.19975e-09)
(1.8041 0.000418333 -9.21223e-09)
(1.82542 0.00310273 -4.4814e-08)
(1.81143 0.00661609 -6.56385e-08)
(1.72547 0.0167629 -1.68432e-07)
(1.30002 0.0619032 -5.74014e-07)
(0.146686 0.261869 -1.4902e-06)
(-0.365391 0.385424 5.09602e-07)
(0.0691525 0.232047 6.50919e-07)
(0.172749 0.25147 -1.90937e-07)
(-0.0405509 0.302275 -3.41402e-08)
(0.00804819 0.24754 4.57426e-07)
(0.0536967 0.237053 5.6135e-08)
(0.0573483 0.231317 6.58451e-08)
(0.074808 0.23025 1.45489e-07)
(0.0951194 0.238623 1.83733e-07)
(0.10665 0.249154 1.92972e-07)
(0.116012 0.259251 1.83892e-07)
(0.124142 0.268104 2.07873e-07)
(0.132324 0.279589 2.0981e-07)
(0.140539 0.293497 2.2662e-07)
(0.146869 0.308896 2.12505e-07)
(0.137743 0.328827 1.68553e-07)
(0.129724 0.34785 1.32766e-07)
(0.0752675 0.373091 7.5194e-08)
(0.0439419 0.390684 4.84321e-08)
(1.80654 0.000407866 -8.32392e-09)
(1.82878 0.00303768 -4.13228e-08)
(1.81751 0.00640144 -6.05916e-08)
(1.74884 0.0157772 -1.51821e-07)
(1.41465 0.057364 -5.33235e-07)
(0.291256 0.239328 -1.56423e-06)
(-0.332226 0.447586 3.37049e-07)
(-0.00425029 0.275893 8.99483e-07)
(0.21607 0.270591 -1.83983e-07)
(-0.0126303 0.342195 3.2655e-08)
(0.00307357 0.286528 4.40125e-07)
(0.0644037 0.268083 1.332e-07)
(0.0666774 0.262387 9.57491e-08)
(0.0847949 0.260199 1.4483e-07)
(0.106613 0.268634 1.78546e-07)
(0.120903 0.279865 1.95404e-07)
(0.130898 0.291804 1.94258e-07)
(0.140425 0.301297 1.90338e-07)
(0.149623 0.314748 2.07514e-07)
(0.158899 0.331343 2.39199e-07)
(0.167849 0.350699 2.39366e-07)
(0.161212 0.377402 1.9671e-07)
(0.155519 0.407328 1.86459e-07)
(0.104618 0.446896 1.26155e-07)
(0.0610636 0.487663 9.50729e-08)
(1.80888 0.000384041 -7.4251e-09)
(1.83199 0.00288458 -3.62071e-08)
(1.8231 0.00599405 -5.24429e-08)
(1.76976 0.0142964 -1.3165e-07)
(1.51261 0.0502901 -4.86961e-07)
(0.460347 0.20762 -1.41097e-06)
(-0.268059 0.501092 7.09289e-08)
(-0.0904525 0.330562 1.01752e-06)
(0.256071 0.287437 -6.45416e-08)
(0.0235129 0.374478 2.06824e-07)
(-0.000494195 0.330719 5.5928e-07)
(0.0746572 0.299518 1.37969e-07)
(0.077895 0.293615 1.48186e-07)
(0.0956908 0.290441 1.58745e-07)
(0.117842 0.297859 1.63376e-07)
(0.135787 0.309627 1.46815e-07)
(0.146838 0.323181 1.69621e-07)
(0.158445 0.333831 1.82043e-07)
(0.16943 0.348651 2.10001e-07)
(0.18045 0.367542 2.40601e-07)
(0.193802 0.391241 2.64119e-07)
(0.19388 0.424739 2.37112e-07)
(0.194479 0.469312 2.12662e-07)
(0.15776 0.536629 1.46883e-07)
(0.0965587 0.64274 1.48627e-07)
(1.79206 4.66816e-05 8.69177e-09)
(1.80859 0.000308195 3.65293e-08)
(1.77795 0.000694649 5.88671e-08)
(1.59445 0.0019676 1.70075e-07)
(0.713875 0.00726276 5.31265e-07)
(-0.241415 0.0250016 3.32932e-08)
(-0.308975 0.023273 -4.74978e-07)
(0.187567 0.0184878 -3.76024e-07)
(0.0101328 0.0248421 3.15645e-07)
(-0.0745817 0.0234608 5.27487e-07)
(-0.00348375 0.0218968 -1.35952e-07)
(0.0100415 0.0207869 -1.41502e-07)
(0.020527 0.019935 1.08518e-08)
(0.0330609 0.0201682 -6.03435e-08)
(0.0419242 0.021017 -2.68819e-08)
(0.0457681 0.0223369 -1.4232e-09)
(0.0532303 0.023454 -7.19768e-09)
(0.0625483 0.0246573 4.23456e-08)
(0.073848 0.0255459 7.20698e-08)
(0.0840701 0.0264496 4.95049e-08)
(0.0911069 0.0272317 -3.90868e-09)
(0.0838572 0.0280837 -7.87761e-08)
(0.0819545 0.0285479 -1.63739e-07)
(0.0360148 0.0293834 -2.74341e-07)
(0.0266202 0.0291991 -2.36547e-07)
(1.79256 0.000143873 5.23768e-09)
(1.80929 0.000960043 2.25519e-08)
(1.77943 0.00217145 3.17984e-08)
(1.60022 0.00617825 6.02664e-08)
(0.733105 0.0229905 -5.86682e-09)
(-0.234323 0.0760353 2.84192e-07)
(-0.316143 0.0618976 -4.06037e-07)
(0.184736 0.0448562 -2.74793e-07)
(0.0125216 0.0614339 5.28505e-07)
(-0.0761698 0.0530242 5.02122e-07)
(-0.00281716 0.0484014 -2.46184e-07)
(0.0116407 0.0464399 1.38266e-07)
(0.0225366 0.0446658 -1.69808e-07)
(0.035635 0.0452355 -8.40824e-08)
(0.0451699 0.04639 -4.85104e-09)
(0.0490629 0.0483082 1.61342e-08)
(0.0564022 0.0503994 -1.5049e-08)
(0.0654869 0.0528654 3.19215e-08)
(0.0763624 0.0546827 6.50285e-08)
(0.0861613 0.0565837 4.99086e-08)
(0.0926844 0.0581964 -6.46199e-09)
(0.0848702 0.0601256 -7.6978e-08)
(0.0821799 0.0609954 -1.58939e-07)
(0.0355266 0.0614748 -2.69657e-07)
(0.0262977 0.059954 -2.34517e-07)
(1.79361 0.00023534 8.65406e-09)
(1.81077 0.00160984 3.36066e-08)
(1.78261 0.00362474 5.03341e-08)
(1.61284 0.0102549 1.26767e-07)
(0.778786 0.0382979 3.62475e-07)
(-0.211097 0.130545 1.81818e-07)
(-0.327926 0.105217 -3.1156e-07)
(0.185953 0.0744224 -1.7828e-07)
(0.0237296 0.104097 4.49188e-07)
(-0.076019 0.0887604 -4.70777e-08)
(0.000662786 0.0815248 -2.45487e-08)
(0.0152452 0.0794585 9.14315e-08)
(0.0261398 0.0773022 6.08872e-08)
(0.0394101 0.0785507 -6.07062e-08)
(0.0495356 0.0808389 -1.34283e-08)
(0.0541351 0.0841581 1.85015e-08)
(0.0619308 0.0874841 -4.0187e-08)
(0.0704945 0.0914018 2.19833e-08)
(0.0806047 0.094526 5.06287e-08)
(0.0899722 0.097757 4.39477e-08)
(0.0961284 0.100501 -1.18628e-08)
(0.0877177 0.103805 -7.64241e-08)
(0.0836028 0.105746 -1.58466e-07)
(0.0354867 0.10719 -2.61631e-07)
(0.0260139 0.104857 -2.25286e-07)
(1.79515 0.000305227 9.13075e-09)
(1.81294 0.00216088 4.58037e-08)
(1.78716 0.00480913 7.26641e-08)
(1.63081 0.0133801 1.95375e-07)
(0.85015 0.0498554 5.64597e-07)
(-0.175238 0.179679 4.33727e-07)
(-0.343307 0.151445 -5.16124e-07)
(0.186223 0.103548 6.32787e-08)
(0.0413024 0.143992 2.01443e-07)
(-0.0768794 0.126719 -2.94728e-07)
(0.00559614 0.113935 1.69857e-08)
(0.020429 0.111171 9.70163e-08)
(0.0308505 0.108201 1.13875e-07)
(0.0448509 0.109665 -2.37901e-07)
(0.056338 0.113237 -7.04645e-08)
(0.0615714 0.118335 -2.09801e-08)
(0.069585 0.123025 -6.02883e-08)
(0.0776789 0.128216 -2.71744e-09)
(0.0868699 0.132891 3.57415e-08)
(0.0955845 0.137732 3.71866e-08)
(0.1012 0.141856 -1.43787e-08)
(0.0921675 0.146847 -7.40554e-08)
(0.0867777 0.150409 -1.53603e-07)
(0.0367816 0.154084 -2.49746e-07)
(0.0260672 0.152326 -2.08311e-07)
(1.79707 0.000356281 7.67856e-09)
(1.81564 0.00258872 4.65091e-08)
(1.79265 0.00568599 7.00757e-08)
(1.6524 0.015485 1.8952e-07)
(0.943975 0.0575004 5.53919e-07)
(-0.125569 0.220506 6.81629e-07)
(-0.360333 0.202664 -6.66106e-07)
(0.180106 0.132648 1.33968e-07)
(0.0659373 0.176733 3.57046e-07)
(-0.0765175 0.168611 -5.42608e-07)
(0.00996516 0.146174 7.77899e-08)
(0.0267501 0.142812 -9.56819e-08)
(0.0363343 0.138959 6.82555e-08)
(0.0508698 0.140535 -1.01358e-07)
(0.0641975 0.14517 -3.85708e-08)
(0.0706703 0.151829 -4.24444e-08)
(0.0790478 0.15785 -9.21043e-08)
(0.0866704 0.164032 -3.37268e-08)
(0.0950623 0.170289 2.16756e-08)
(0.10313 0.177004 3.08994e-08)
(0.108364 0.183011 -1.40951e-08)
(0.0988878 0.190271 -7.22593e-08)
(0.0923171 0.196098 -1.45032e-07)
(0.0404818 0.202946 -2.39923e-07)
(0.0272394 0.202975 -1.98735e-07)
(1.79927 0.00039286 6.35761e-09)
(1.81871 0.00288799 4.20248e-08)
(1.79872 0.0062753 6.26791e-08)
(1.67607 0.0167049 1.65793e-07)
(1.05549 0.0619011 4.94186e-07)
(-0.0583431 0.250664 8.71151e-07)
(-0.373427 0.259617 -6.96437e-07)
(0.160836 0.162626 3.62331e-08)
(0.0959094 0.203953 2.79332e-07)
(-0.0708732 0.21315 -4.83185e-07)
(0.012157 0.178491 -1.75896e-07)
(0.0343718 0.174373 3.79033e-08)
(0.0425006 0.169556 -9.79631e-09)
(0.0579602 0.170762 -5.64663e-08)
(0.0735828 0.17677 -4.16729e-08)
(0.0814248 0.185023 -6.6727e-08)
(0.0899929 0.192205 -7.55335e-08)
(0.0973934 0.199309 -3.87291e-08)
(0.105302 0.207165 1.50772e-08)
(0.112896 0.216062 2.60247e-08)
(0.117907 0.224675 -1.35431e-08)
(0.1082 0.234815 -6.79505e-08)
(0.100718 0.243424 -1.2795e-07)
(0.0472845 0.254211 -2.26717e-07)
(0.0298529 0.257221 -1.80735e-07)
(1.80165 0.00041352 4.87097e-09)
(1.82202 0.00305649 3.68987e-08)
(1.80509 0.00658246 5.65798e-08)
(1.70082 0.0171108 1.5566e-07)
(1.17745 0.0634252 5.08409e-07)
(0.0311075 0.265578 1.15278e-06)
(-0.377061 0.321386 -6.35226e-07)
(0.124544 0.195229 -4.86945e-08)
(0.131697 0.228804 2.93564e-07)
(-0.0590845 0.258395 -5.14965e-07)
(0.0115422 0.211728 -2.78202e-07)
(0.0434015 0.205774 2.62296e-08)
(0.049476 0.200373 -6.78063e-08)
(0.0659801 0.200626 -7.22754e-08)
(0.0840061 0.208016 -1.87594e-08)
(0.0934486 0.217565 -7.26359e-08)
(0.102325 0.226048 -6.22592e-08)
(0.109839 0.234112 -3.03639e-08)
(0.117674 0.243639 1.1338e-08)
(0.125316 0.254949 2.70368e-08)
(0.130495 0.266732 -6.87348e-09)
(0.120691 0.280992 -6.45648e-08)
(0.112571 0.293579 -1.10418e-07)
(0.058136 0.309692 -2.04062e-07)
(0.0349816 0.317546 -1.60663e-07)
(1.8041 0.000418083 3.4371e-09)
(1.82542 0.00310116 3.01781e-08)
(1.81144 0.00661275 4.67311e-08)
(1.72551 0.0167546 1.31006e-07)
(1.30019 0.0618762 4.80645e-07)
(0.146844 0.261767 1.33996e-06)
(-0.365395 0.385383 -4.20007e-07)
(0.0691012 0.231981 -2.51884e-07)
(0.172872 0.251278 3.69411e-07)
(-0.0405321 0.302191 -3.64649e-07)
(0.00808603 0.247515 -3.26727e-07)
(0.0537995 0.237052 7.05824e-09)
(0.0574344 0.231359 -1.04981e-07)
(0.0748965 0.230303 -6.39711e-08)
(0.0952045 0.238675 -2.50985e-08)
(0.106723 0.249217 -5.38387e-08)
(0.116064 0.259317 -2.50317e-08)
(0.124177 0.268159 -2.10035e-08)
(0.132337 0.279627 1.1905e-08)
(0.140535 0.293528 3.22291e-08)
(0.146845 0.308921 4.45088e-09)
(0.137708 0.32885 -5.66827e-08)
(0.129685 0.347872 -9.74458e-08)
(0.0752274 0.373115 -1.69016e-07)
(0.0439241 0.390705 -1.40454e-07)
(1.80654 0.000407702 2.21877e-09)
(1.82878 0.00303643 2.32802e-08)
(1.81751 0.00639875 3.68806e-08)
(1.74887 0.0157704 1.03935e-07)
(1.41477 0.0573399 4.03017e-07)
(0.291419 0.239226 1.29413e-06)
(-0.332205 0.447518 -1.74309e-07)
(-0.00436133 0.275824 -4.11572e-07)
(0.21614 0.270396 3.15638e-07)
(-0.0126725 0.342062 -2.35644e-07)
(0.00300087 0.286492 -4.04164e-07)
(0.0644019 0.268083 -4.074e-08)
(0.0666789 0.262435 -1.06875e-07)
(0.0848204 0.260273 -7.06761e-08)
(0.106656 0.268711 -2.40201e-08)
(0.120928 0.279946 -2.30144e-08)
(0.130914 0.291875 -2.10468e-09)
(0.140438 0.301361 2.723e-09)
(0.149622 0.314794 1.58111e-08)
(0.158888 0.331378 3.61919e-08)
(0.167822 0.350727 1.60265e-08)
(0.161176 0.377427 -5.32135e-08)
(0.15548 0.407351 -6.88607e-08)
(0.104578 0.446922 -1.22895e-07)
(0.0610443 0.487687 -1.16295e-07)
(1.80888 0.000383942 1.23273e-09)
(1.832 0.00288365 1.64416e-08)
(1.82311 0.00599206 2.64289e-08)
(1.76978 0.0142912 7.80985e-08)
(1.51269 0.0502701 3.28548e-07)
(0.460517 0.207535 1.06218e-06)
(-0.268021 0.501003 9.41438e-08)
(-0.0905842 0.330501 -4.68535e-07)
(0.2561 0.287283 1.82554e-07)
(0.0234635 0.374331 -8.57282e-08)
(-0.000619539 0.330659 -3.829e-07)
(0.074595 0.299509 -1.64185e-08)
(0.077845 0.293655 -8.52856e-08)
(0.0956675 0.290512 -5.32723e-08)
(0.117852 0.29794 -1.48097e-08)
(0.13578 0.309697 -1.30075e-08)
(0.146832 0.323248 1.12164e-08)
(0.158439 0.333896 1.73166e-08)
(0.169416 0.348702 2.59903e-08)
(0.180429 0.367579 4.10523e-08)
(0.193771 0.391269 3.02575e-08)
(0.193842 0.424766 -3.42757e-08)
(0.19444 0.469337 -7.46248e-08)
(0.157723 0.536657 -1.27054e-07)
(0.0965384 0.642765 -8.58786e-08)
(1.79206 4.67086e-05 1.27266e-09)
(1.80859 0.000308325 1.23604e-08)
(1.77795 0.000694956 2.61021e-08)
(1.59444 0.00196857 1.08071e-07)
(0.713841 0.00726686 4.32704e-07)
(-0.241441 0.0250136 4.39956e-07)
(-0.308979 0.0232752 -2.17221e-07)
(0.187532 0.0184952 -1.75569e-07)
(0.0100954 0.0248532 -1.40146e-07)
(-0.0745871 0.0234597 -7.28319e-08)
(-0.00348156 0.0219037 -5.36016e-08)
(0.0100473 0.0207989 -6.2855e-08)
(0.0205252 0.0199496 -7.23838e-08)
(0.0330504 0.0201802 -5.82726e-08)
(0.0419064 0.021023 -2.12456e-08)
(0.0457468 0.0223394 6.51867e-09)
(0.0532079 0.0234519 -9.64499e-10)
(0.0625273 0.0246573 2.92648e-09)
(0.0738297 0.0255458 -1.10302e-08)
(0.0840515 0.0264492 -5.3686e-08)
(0.0910852 0.0272305 -9.21761e-08)
(0.0838309 0.028082 -1.12557e-07)
(0.0819263 0.0285459 -1.26161e-07)
(0.0359896 0.0293805 -1.15656e-07)
(0.0266097 0.0291962 -6.0488e-08)
(1.79256 0.000143899 1.55613e-09)
(1.80929 0.0009602 1.36659e-08)
(1.77943 0.00217182 2.7852e-08)
(1.60021 0.00617943 1.10765e-07)
(0.733081 0.0229952 4.41075e-07)
(-0.234316 0.0760435 4.3798e-07)
(-0.31612 0.0618889 -2.29827e-07)
(0.184746 0.0448545 -1.50049e-07)
(0.01253 0.0614287 -1.34064e-07)
(-0.0761421 0.0530043 -3.16918e-08)
(-0.0027839 0.0483902 -1.02492e-08)
(0.0116627 0.046434 -4.9586e-08)
(0.0225429 0.0446649 -6.8572e-08)
(0.0356254 0.0452352 -7.48457e-08)
(0.0451525 0.0463967 -3.20244e-08)
(0.0490408 0.0483126 -1.00882e-08)
(0.0563798 0.0504057 -1.36644e-08)
(0.065468 0.052869 -2.54175e-09)
(0.0763437 0.0546841 -1.11537e-08)
(0.0861417 0.0565834 -4.96403e-08)
(0.0926616 0.0581942 -8.83409e-08)
(0.0848431 0.0601221 -1.07556e-07)
(0.0821506 0.0609915 -1.20228e-07)
(0.0355005 0.0614688 -1.12453e-07)
(0.0262871 0.0599477 -5.7763e-08)
(1.79361 0.000235346 1.61713e-09)
(1.81077 0.00160988 1.32601e-08)
(1.78261 0.00362486 2.61423e-08)
(1.61283 0.0102553 1.00239e-07)
(0.778762 0.0382998 3.8717e-07)
(-0.211112 0.130551 4.73954e-07)
(-0.327918 0.105216 -2.53921e-07)
(0.18596 0.0744285 -7.98668e-08)
(0.0237338 0.104084 -1.2014e-07)
(-0.0759915 0.0887623 6.98911e-08)
(0.000696839 0.0815414 3.57791e-08)
(0.0152641 0.07949 -5.55215e-08)
(0.026146 0.0773379 -8.18331e-08)
(0.0394112 0.0785961 -9.76135e-08)
(0.0495216 0.0808615 -6.83754e-08)
(0.0541133 0.0841656 -6.50952e-08)
(0.0619077 0.0874943 -1.08482e-08)
(0.07047 0.0914031 5.91405e-09)
(0.0805835 0.0945272 -8.22061e-09)
(0.0899508 0.097756 -4.35393e-08)
(0.0961042 0.100498 -8.20363e-08)
(0.08769 0.103799 -1.01287e-07)
(0.0835723 0.10574 -1.16392e-07)
(0.0354594 0.107182 -1.10704e-07)
(0.0260032 0.104849 -5.01704e-08)
(1.79515 0.000305196 1.57152e-09)
(1.81294 0.00216075 1.42494e-08)
(1.78715 0.00480889 2.72262e-08)
(1.63081 0.0133797 9.78343e-08)
(0.850133 0.0498545 3.73862e-07)
(-0.175238 0.179673 5.21282e-07)
(-0.343287 0.151445 -2.42583e-07)
(0.186219 0.103548 -8.8249e-08)
(0.04129 0.14397 -4.47811e-08)
(-0.076871 0.126734 1.20617e-07)
(0.00557581 0.113974 7.73203e-08)
(0.0203721 0.111206 -6.89955e-08)
(0.0307803 0.108234 -1.28474e-07)
(0.0447573 0.109684 -2.53609e-09)
(0.0562611 0.113242 -8.22232e-08)
(0.0615285 0.118338 -8.38352e-08)
(0.0695564 0.12303 -1.64116e-08)
(0.0776527 0.128217 1.12337e-08)
(0.0868484 0.132892 -1.30361e-09)
(0.0955609 0.137731 -3.37544e-08)
(0.101173 0.141852 -6.58016e-08)
(0.0921384 0.146841 -8.93764e-08)
(0.0867458 0.150402 -1.08292e-07)
(0.036753 0.154074 -1.07965e-07)
(0.0260561 0.152316 -4.64086e-08)
(1.79707 0.000356268 9.99644e-10)
(1.81564 0.00258864 1.29759e-08)
(1.79265 0.00568584 2.27852e-08)
(1.65239 0.0154847 8.00384e-08)
(0.943946 0.0574992 3.10588e-07)
(-0.12559 0.220499 5.85671e-07)
(-0.360341 0.202666 -2.16355e-07)
(0.180067 0.132651 -1.8841e-07)
(0.0658614 0.176734 1.12449e-07)
(-0.0765902 0.168633 2.48612e-07)
(0.00982312 0.146222 -1.60915e-08)
(0.0265969 0.142817 3.59718e-08)
(0.0362007 0.138943 -6.46651e-08)
(0.0507731 0.140486 -8.47284e-08)
(0.0641248 0.145137 -1.23112e-07)
(0.0706239 0.151814 -1.06675e-07)
(0.0790149 0.157846 -2.50735e-08)
(0.0866411 0.164033 6.63899e-09)
(0.0950386 0.170288 3.77951e-09)
(0.103104 0.177003 -1.83279e-08)
(0.108335 0.183007 -5.65757e-08)
(0.098857 0.190264 -7.7349e-08)
(0.0922837 0.19609 -9.79468e-08)
(0.0404518 0.202935 -1.04541e-07)
(0.027228 0.202964 -4.58767e-08)
(1.79927 0.000392934 1.24584e-09)
(1.81871 0.00288829 1.26401e-08)
(1.79872 0.00627592 2.0863e-08)
(1.67607 0.0167064 6.64516e-08)