/*--------------------------------*- C++ -*----------------------------------*\
| =========                 |                                                 |
| \\      /  F ield         | OpenFOAM: The Open Source CFD Toolbox           |
|  \\    /   O peration     | Version:  4.1                                   |
|   \\  /    A nd           | Web:      www.OpenFOAM.org                      |
|    \\/     M anipulation  |                                                 |
\*---------------------------------------------------------------------------*/
FoamFile
{
    version     2.0;
    format      ascii;
    class       surfaceScalarField;
    location    "6.08";
    object      phi;
}
// * * * * * * * * * * * * * * * * * * * * * * * * * * * * * * * * * * * * * //

dimensions      [1 0 -1 0 0 0 0];

internalField   nonuniform List<scalar> 
150500
(
0.0168001
2.01676e-10
-3.45087e-12
0.0168001
1.12257e-09
-1.16287e-11
0.0168001
4.17048e-09
-1.35493e-11
0.0168
1.07443e-08
-2.14955e-11
0.0168
2.95222e-08
-2.16811e-11
0.0167999
6.79456e-08
-2.902e-11
0.0167997
1.75191e-07
-2.94251e-11
0.0167994
4.00656e-07
-4.00371e-11
0.0167982
1.00732e-06
-4.23662e-11
0.016796
2.29546e-06
-7.76492e-11
0.0167889
6.45969e-06
-9.76997e-11
0.016773
1.60823e-05
-2.37896e-10
0.0167185
5.24375e-05
-3.17028e-10
0.0165485
0.000166971
-1.1898e-09
0.0155366
0.000999277
-2.43107e-09
0.0143488
0.00118877
4.12617e-10
0.0131504
0.00119801
-2.67461e-11
0.0118833
0.00126552
-3.58146e-10
0.010539
0.00134249
-3.80125e-10
0.00910498
0.00143182
-3.99552e-10
0.00755321
0.00154963
-3.95848e-10
0.00586991
0.00168083
-4.08756e-10
0.00406069
0.00180547
-4.22958e-10
0.00211779
0.00193986
-4.3524e-10
0.00211577
-4.49891e-10
0.0168001
4.0378e-10
-3.44031e-12
0.0168001
2.23684e-09
-1.16347e-11
0.0168001
8.32631e-09
-1.35306e-11
0.0168
2.13975e-08
-2.15377e-11
0.0168
5.90275e-08
-2.16171e-11
0.0167999
1.35693e-07
-2.90722e-11
0.0167997
3.52152e-07
-2.94115e-11
0.0167993
8.02809e-07
-4.02023e-11
0.0167982
2.04578e-06
-4.22549e-11
0.0167959
4.62534e-06
-7.84802e-11
0.0167885
1.32275e-05
-9.60939e-11
0.0167719
3.27278e-05
-2.43605e-10
0.0167141
0.000108276
-2.79446e-10
0.0165352
0.000342526
-1.1977e-09
0.0155049
0.00201699
-2.39697e-09
0.0142886
0.00240617
4.05198e-10
0.0131002
0.00238598
-3.95628e-11
0.0118493
0.00251469
-3.63833e-10
0.0105144
0.00267573
-3.82706e-10
0.00906709
0.00287685
-3.98501e-10
0.00749557
0.00311904
-3.93408e-10
0.00579417
0.00337976
-4.06464e-10
0.00396547
0.00363037
-4.20412e-10
0.002019
0.00388326
-4.32477e-10
0.00413269
-4.47906e-10
0.0168001
5.88702e-10
-3.42113e-12
0.0168001
3.23971e-09
-1.16418e-11
0.0168001
1.20767e-08
-1.35012e-11
0.0168
3.09333e-08
-2.16023e-11
0.0168
8.57227e-08
-2.15055e-11
0.0168
1.9692e-07
-2.91323e-11
0.0167998
5.14082e-07
-2.93339e-11
0.0167994
1.17528e-06
-4.02241e-11
0.0167983
3.00078e-06
-4.20425e-11
0.0167962
6.84813e-06
-7.80231e-11
0.016789
1.97377e-05
-9.5156e-11
0.016773
4.8776e-05
-2.3788e-10
0.0167134
0.000165931
-2.75117e-10
0.0165317
0.000520827
-1.16547e-09
0.0155159
0.00301985
-2.36644e-09
0.0142719
0.00365144
4.06697e-10
0.0130831
0.00357439
-5.61579e-11
0.0118477
0.00374835
-3.76251e-10
0.0105295
0.00399218
-3.89911e-10
0.00908698
0.00431715
-3.97716e-10
0.00751258
0.00469127
-3.90312e-10
0.00580785
0.00508199
-4.0363e-10
0.00396337
0.00547114
-4.17362e-10
0.00201037
0.00583311
-4.27706e-10
0.00614084
-4.42468e-10
0.0168001
6.84457e-10
-3.39264e-12
0.0168001
3.77849e-09
-1.16488e-11
0.0168001
1.41176e-08
-1.34634e-11
0.0168
3.60693e-08
-2.17174e-11
0.0168
1.00151e-07
-2.13215e-11
0.0168
2.28048e-07
-2.9263e-11
0.0167999
6.09471e-07
-2.924e-11
0.0167997
1.32167e-06
-4.03964e-11
0.0167989
3.78517e-06
-4.18235e-11
0.0167979
7.85901e-06
-7.7949e-11
0.0167914
2.56031e-05
-9.42589e-11
0.0167817
5.84737e-05
-2.31346e-10
0.0167029
0.000242671
-2.67082e-10
0.0165299
0.000690474
-1.11539e-09
0.0155432
0.00399293
-2.31149e-09
0.0142628
0.00493348
4.13902e-10
0.0130897
0.00474709
-6.84811e-11
0.0118811
0.0049553
-3.91173e-10
0.0105905
0.0052811
-4.02595e-10
0.00917499
0.0057303
-4.04116e-10
0.0076151
0.00624946
-3.88826e-10
0.00590944
0.00678508
-3.98336e-10
0.00406094
0.00731571
-4.11515e-10
0.00206392
0.0078279
-4.19421e-10
0.00820268
-4.31476e-10
0.0168001
7.63072e-10
-3.36655e-12
0.0168001
4.20998e-09
-1.16437e-11
0.0168001
1.57392e-08
-1.34892e-11
0.0168001
4.00633e-08
-2.16087e-11
0.0168
1.11457e-07
-2.14471e-11
0.0168
2.51772e-07
-2.90998e-11
0.0167999
6.86065e-07
-2.92001e-11
0.0167998
1.41795e-06
-3.96578e-11
0.016799
4.4794e-06
-4.17457e-11
0.0167986
8.34631e-06
-7.38804e-11
0.0167916
3.19631e-05
-9.03079e-11
0.0167821
6.79703e-05
-2.16484e-10
0.0167187
0.000304103
-2.56617e-10
0.0165651
0.000841236
-1.04606e-09
0.0157577
0.00478572
-2.2996e-09
0.0144303
0.00626323
3.81096e-10
0.0132363
0.00594113
-9.84719e-11
0.0120321
0.00615803
-3.98467e-10
0.0107575
0.00655424
-4.07129e-10
0.00935848
0.00712698
-4.03192e-10
0.00782501
0.00778121
-3.86654e-10
0.00613175
0.00847641
-3.92806e-10
0.00424567
0.00919823
-4.01786e-10
0.00219136
0.00987857
-4.05731e-10
0.0103918
-4.15759e-10
0.0168001
8.38954e-10
-3.3447e-12
0.0168001
4.66806e-09
-1.16344e-11
0.0168001
1.74123e-08
-1.35871e-11
0.0168001
4.45343e-08
-2.14488e-11
0.0168
1.22952e-07
-2.19806e-11
0.0168
2.77847e-07
-2.93714e-11
0.0167999
7.57693e-07
-3.04351e-11
0.0167998
1.51168e-06
-4.50203e-11
0.016799
5.22834e-06
-3.87158e-11
0.0167995
7.9481e-06
-1.24683e-10
0.0167908
3.99338e-05
7.53968e-12
0.0167861
7.28519e-05
-3.37982e-10
0.01674
0.000348182
-3.60847e-11
0.0166404
0.000938212
-9.26108e-10
0.0161859
0.00522439
-2.04063e-09
0.0148139
0.00763821
2.07006e-10
0.0135609
0.00719462
-2.42406e-10
0.0123376
0.00737994
-4.46283e-10
0.0110846
0.00780604
-4.34829e-10
0.00970062
0.0085088
-4.03797e-10
0.00817071
0.0093088
-3.94181e-10
0.00647408
0.0101712
-3.91792e-10
0.00456294
0.011106
-3.97505e-10
0.00238775
0.0120511
-3.98953e-10
0.0127774
-4.03434e-10
0.0168001
1.04748e-09
-3.32451e-12
0.0168001
5.75085e-09
-1.15812e-11
0.0168001
2.14098e-08
-1.35882e-11
0.0168
5.46781e-08
-2.12914e-11
0.0168
1.51571e-07
-2.16706e-11
0.0167999
3.45991e-07
-2.85358e-11
0.0167998
9.15525e-07
-2.89384e-11
0.0167993
2.01884e-06
-3.80181e-11
0.0167988
5.62613e-06
-3.86351e-11
0.0167954
1.13197e-05
-9.46893e-11
0.0167952
3.95799e-05
-1.54698e-11
0.0167875
8.05454e-05
-2.58836e-10
0.0167842
0.000349443
-9.07918e-11
0.0167767
0.000943172
-7.98827e-10
0.0169547
0.00502985
-1.80594e-09
0.0155193
0.00907673
1.24027e-10
0.0141187
0.00859614
-2.88659e-10
0.0128367
0.00866076
-4.48408e-10
0.0115759
0.00906555
-4.34509e-10
0.0102359
0.00984701
-4.02091e-10
0.00872052
0.0108221
-3.95728e-10
0.00700843
0.0118819
-3.88668e-10
0.00504246
0.0130679
-3.88463e-10
0.00273846
0.014352
-3.84061e-10
0.0155137
-3.86354e-10
0.0168001
1.08684e-09
-3.28059e-12
0.0168001
6.03592e-09
-1.15911e-11
0.0168001
2.24988e-08
-1.35544e-11
0.0168001
5.78893e-08
-2.12579e-11
0.0168
1.59288e-07
-2.15274e-11
0.0168
3.65106e-07
-2.82771e-11
0.0168
9.53019e-07
-2.81281e-11
0.0167999
2.1243e-06
-3.60056e-11
0.0167998
5.63738e-06
-3.87343e-11
0.0167988
1.22941e-05
-5.68184e-11
0.0168013
3.65013e-05
-6.29687e-11
0.0168025
7.9292e-05
-1.77859e-10
0.0168528
0.00029708
-1.78733e-10
0.0169982
0.000795277
-7.13281e-10
0.018213
0.00379895
-1.7389e-09
0.0167501
0.0105416
-1.14072e-10
0.0149805
0.0103669
-3.27312e-10
0.0136183
0.0100221
-4.03691e-10
0.0123301
0.0103522
-3.99691e-10
0.0109706
0.011205
-3.80823e-10
0.00947572
0.0123147
-3.79606e-10
0.00776461
0.0135923
-3.82662e-10
0.00577259
0.0150574
-3.81184e-10
0.00329627
0.016826
-3.76053e-10
0.018808
-3.72304e-10
0.0168001
1.40401e-09
-3.24791e-12
0.0168001
6.28362e-09
-1.15938e-11
0.0168001
2.50483e-08
-1.35624e-11
0.0168001
6.16382e-08
-2.12529e-11
0.0168
1.75005e-07
-2.15052e-11
0.0168
3.89697e-07
-2.82083e-11
0.0167999
1.03982e-06
-2.78878e-11
0.0167997
2.29077e-06
-3.54396e-11
0.0167994
5.87276e-06
-3.72437e-11
0.0167982
1.34861e-05
-5.35758e-11
0.0167991
3.5231e-05
-5.44549e-11
0.0167994
7.87967e-05
-1.63381e-10
0.0168197
0.000275043
-1.13366e-10
0.016896
0.000719211
-5.1888e-10
0.0175427
0.00314119
-9.09593e-10
0.016919
0.0111595
-7.90514e-10
0.0154008
0.0118836
-4.91522e-10
0.0143114
0.0111103
-3.98749e-10
0.0130959
0.0115662
-3.85118e-10
0.0118478
0.0124508
-3.61517e-10
0.0104198
0.0137398
-3.60148e-10
0.00883149
0.0151781
-3.60957e-10
0.00693487
0.0169511
-3.58095e-10
0.00432855
0.0194294
-3.50618e-10
0.0231345
-3.47933e-10
0.0168001
-3.2888e-12
2.33234e-09
0.0168001
-1.15687e-11
1.96847e-09
0.0168001
-1.37721e-11
3.15619e-08
0.0168001
-2.1478e-11
2.85101e-08
0.0168001
-2.19759e-11
2.09746e-07
0.0168003
-2.90811e-11
1.87662e-07
0.0168
-2.94411e-11
1.25958e-06
0.0168013
-4.16832e-11
1.01655e-06
0.0167991
-3.50263e-11
8.03146e-06
0.0168084
-1.08067e-10
4.12884e-06
0.0167846
1.28441e-11
5.8593e-05
0.0168452
-1.28769e-10
1.636e-05
0.0167053
9.76991e-11
0.000412574
0.0169903
-5.4952e-10
0.00043498
0.0171474
-6.8044e-10
0.00297708
0.0166505
-1.52618e-09
0.0116429
0.0160504
-4.29414e-10
0.0124801
0.0148819
-3.63093e-10
0.012277
0.0137827
-3.60187e-10
0.0126643
0.0127358
-3.53575e-10
0.0134972
0.0115664
-3.47249e-10
0.0149072
0.0102435
-3.46331e-10
0.0164986
0.0085115
-3.40074e-10
0.01868
0.0060065
-3.23645e-10
0.021931
-3.06934e-10
0.0291383
0.0168001
2.06965e-10
-5.16724e-16
0.0168001
1.12405e-09
-2.75648e-15
0.0168001
4.1831e-09
-6.00761e-15
0.0168
1.07338e-08
-1.27257e-14
0.0168
2.95519e-08
-2.31103e-14
0.0167999
6.79432e-08
-4.35681e-14
0.0167997
1.75208e-07
-8.94834e-14
0.0167994
4.00606e-07
-1.71301e-13
0.0167982
1.00737e-06
-4.20076e-13
0.016796
2.29512e-06
-8.13811e-13
0.0167889
6.46045e-06
-2.48129e-12
0.016773
1.60801e-05
-5.34265e-12
0.0167185
5.24606e-05
-1.64278e-11
0.0165485
0.000166981
-4.81813e-11
0.0155365
0.000999348
-1.30808e-10
0.0143487
0.00118876
1.45224e-11
0.0131503
0.001198
-4.31068e-12
0.0118832
0.0012655
-1.9354e-11
0.010539
0.00134246
-2.0075e-11
0.00910495
0.00143179
-2.07178e-11
0.00755319
0.00154961
-2.14216e-11
0.00586991
0.00168081
-2.23885e-11
0.00406069
0.00180546
-2.34485e-11
0.0021178
0.00193986
-2.40903e-11
0.00211578
-2.5404e-11
0.0168001
4.13375e-10
-5.18617e-16
0.0168001
2.24185e-09
-2.76094e-15
0.0168001
8.34785e-09
-6.04272e-15
0.0168
2.13846e-08
-1.28063e-14
0.0168
5.90764e-08
-2.34487e-14
0.0167999
1.35704e-07
-4.44168e-14
0.0167997
3.52204e-07
-9.15159e-14
0.0167993
8.02835e-07
-1.79622e-13
0.0167982
2.0459e-06
-4.21261e-13
0.0167959
4.62562e-06
-8.70167e-13
0.0167885
1.32282e-05
-2.42269e-12
0.0167719
3.27312e-05
-5.79748e-12
0.0167142
0.000108284
-1.45069e-11
0.0165352
0.000342561
-4.96006e-11
0.0155048
0.00201711
-1.30617e-10
0.0142885
0.00240617
1.46493e-11
0.0131001
0.00238597
-5.13314e-12
0.0118493
0.00251466
-1.93589e-11
0.0105143
0.00267569
-1.99122e-11
0.00906706
0.0028768
-2.04059e-11
0.00749556
0.00311899
-2.11503e-11
0.00579417
0.00337973
-2.21457e-11
0.00396549
0.00363035
-2.32741e-11
0.00201902
0.00388326
-2.39742e-11
0.00413272
-2.53827e-11
0.0168001
6.02669e-10
-5.18559e-16
0.0168001
3.24771e-09
-2.75757e-15
0.0168001
1.21049e-08
-6.04142e-15
0.0168
3.09011e-08
-1.28079e-14
0.0168
8.58101e-08
-2.34724e-14
0.0168
1.96902e-07
-4.44664e-14
0.0167998
5.14154e-07
-9.18078e-14
0.0167994
1.17528e-06
-1.79696e-13
0.0167983
3.001e-06
-4.24723e-13
0.0167962
6.84851e-06
-8.67901e-13
0.016789
1.97392e-05
-2.45044e-12
0.016773
4.87815e-05
-5.76137e-12
0.0167134
0.000165944
-1.48522e-11
0.0165317
0.00052088
-4.99604e-11
0.0155158
0.00302005
-1.32983e-10
0.0142718
0.00365143
1.62989e-11
0.013083
0.00357436
-5.21911e-12
0.0118476
0.0037483
-1.92916e-11
0.0105295
0.00399211
-1.96579e-11
0.00908695
0.00431708
-1.996e-11
0.00751257
0.0046912
-2.07553e-11
0.00580786
0.00508193
-2.17736e-11
0.00396339
0.00547111
-2.29545e-11
0.00201038
0.00583312
-2.36067e-11
0.00614089
-2.49554e-11
0.0168001
6.97464e-10
-5.1659e-16
0.0168001
3.79221e-09
-2.74281e-15
0.0168001
1.41175e-08
-6.01339e-15
0.0168
3.61255e-08
-1.2754e-14
0.0168
1.00113e-07
-2.34006e-14
0.0168
2.28092e-07
-4.43833e-14
0.0167999
6.09435e-07
-9.19601e-14
0.0167997
1.32184e-06
-1.81297e-13
0.0167989
3.78459e-06
-4.27544e-13
0.0167979
7.85987e-06
-8.81532e-13
0.0167914
2.56027e-05
-2.51196e-12
0.0167817
5.8485e-05
-5.85593e-12
0.0167029
0.000242688
-1.53348e-11
0.0165298
0.000690572
-5.08441e-11
0.015543
0.00399324
-1.37215e-10
0.0142626
0.00493345
1.94951e-11
0.0130896
0.00474704
-4.20358e-12
0.0118809
0.00495522
-1.89974e-11
0.0105904
0.00528099
-1.93503e-11
0.00917493
0.00573019
-1.96135e-11
0.00761507
0.00624935
-2.0144e-11
0.00590943
0.00678501
-2.09504e-11
0.00406093
0.00731567
-2.21572e-11
0.00206393
0.00782789
-2.28364e-11
0.00820273
-2.39547e-11
0.0168001
7.7394e-10
-4.97794e-16
0.0168001
4.22458e-09
-2.66279e-15
0.0168001
1.57085e-08
-5.74288e-15
0.0168001
4.01388e-08
-1.21557e-14
0.0168
1.11247e-07
-2.17137e-14
0.0168
2.51606e-07
-4.05159e-14
0.0167999
6.85481e-07
-8.43128e-14
0.0167998
1.41531e-06
-1.50359e-13
0.016799
4.48052e-06
-4.29844e-13
0.0167986
8.32468e-06
-7.09148e-13
0.0167916
3.20036e-05
-2.61564e-12
0.0167821
6.79295e-05
-4.8645e-12
0.0167186
0.000304233
-1.99864e-11
0.0165649
0.000841381
-5.09309e-11
0.0157573
0.00478631
-1.46595e-10
0.0144299
0.00626319
2.58866e-11
0.013236
0.00594096
-5.13947e-13
0.0120319
0.00615789
-1.80231e-11
0.0107573
0.00655408
-1.86766e-11
0.00935833
0.00712684
-1.91325e-11
0.00782491
0.00778106
-1.91588e-11
0.0061317
0.00847629
-1.96922e-11
0.00424565
0.00919816
-2.05659e-11
0.00219136
0.00987855
-2.1124e-11
0.0103918
-2.21729e-11
0.0168001
8.49798e-10
-4.71929e-16
0.0168001
4.70355e-09
-2.57782e-15
0.0168001
1.74338e-08
-5.42479e-15
0.0168
4.46294e-08
-1.11775e-14
0.0168
1.23156e-07
-1.96555e-14
0.0168
2.78332e-07
-3.47523e-14
0.0167999
7.58683e-07
-7.33017e-14
0.0167998
1.5151e-06
-9.7069e-14
0.016799
5.23035e-06
-4.56025e-13
0.0167994
7.96124e-06
-2.62559e-13
0.0167908
3.99332e-05
-3.46417e-12
0.016786
7.29019e-05
-3.83245e-12
0.01674
0.000348175
-2.31859e-11
0.0166404
0.000938325
-5.23347e-11
0.0161861
0.00522488
-1.57021e-10
0.014814
0.00763818
3.02169e-11
0.0135609
0.00719456
3.15423e-12
0.0123376
0.00737986
-1.72112e-11
0.0110845
0.00780592
-1.82122e-11
0.00970056
0.00850867
-1.87736e-11
0.00817063
0.00930866
-1.80963e-11
0.00647402
0.0101711
-1.81365e-11
0.0045629
0.0111059
-1.90656e-11
0.00238774
0.012051
-1.96549e-11
0.0127774
-2.02228e-11
0.0168001
1.06846e-09
-4.90502e-16
0.0168001
5.76287e-09
-2.64527e-15
0.0168001
2.14447e-08
-5.69718e-15
0.0168
5.47254e-08
-1.18338e-14
0.0168
1.517e-07
-2.15111e-14
0.0167999
3.46263e-07
-3.9653e-14
0.0167998
9.16241e-07
-8.10653e-14
0.0167993
2.02071e-06
-1.48679e-13
0.0167988
5.6282e-06
-4.34987e-13
0.0167954
1.13399e-05
-4.71249e-13
0.0167952
3.95705e-05
-2.7e-12
0.0167875
8.05894e-05
-4.22371e-12
0.0167842
0.000349427
-1.72149e-11
0.0167768
0.000943254
-5.11957e-11
0.0169548
0.00503034
-1.59259e-10
0.0155194
0.00907664
2.85983e-11
0.0141188
0.00859607
4.28792e-12
0.0128368
0.0086607
-1.64914e-11
0.0115759
0.00906547
-1.80385e-11
0.0102359
0.00984689
-1.9077e-11
0.0087205
0.010822
-1.72495e-11
0.0070084
0.0118818
-1.66495e-11
0.00504244
0.0130678
-1.7422e-11
0.00273844
0.0143519
-1.73863e-11
0.0155137
-1.77576e-11
0.0168001
1.1014e-09
-4.92567e-16
0.0168001
6.04204e-09
-2.65026e-15
0.0168001
2.24986e-08
-5.73254e-15
0.0168001
5.78727e-08
-1.18964e-14
0.0168
1.59252e-07
-2.17914e-14
0.0168
3.65048e-07
-4.01637e-14
0.0168
9.52973e-07
-8.27096e-14
0.0167999
2.12425e-06
-1.54786e-13
0.0167998
5.63757e-06
-4.01823e-13
0.0167988
1.2295e-05
-7.26703e-13
0.0168014
3.65053e-05
-2.61578e-12
0.0168025
7.9301e-05
-4.18833e-12
0.0168528
0.000297127
-1.91873e-11
0.0169981
0.00079543
-4.74289e-11
0.0182125
0.00379988
-1.57303e-10
0.0167497
0.0105414
9.3401e-12
0.0149803
0.0103666
-8.68503e-13
0.0136183
0.0100219
-1.64588e-11
0.01233
0.0103521
-1.80768e-11
0.0109706
0.0112049
-1.91477e-11
0.00947568
0.0123146
-1.67102e-11
0.00776456
0.0135921
-1.60383e-11
0.00577257
0.0150573
-1.64576e-11
0.00329625
0.0168259
-1.60572e-11
0.018808
-1.56555e-11
0.0168001
1.36971e-09
-4.8241e-16
0.0168001
6.39242e-09
-2.6053e-15
0.0168001
2.49214e-08
-5.57894e-15
0.0168001
6.14797e-08
-1.15597e-14
0.0168
1.74651e-07
-2.06941e-14
0.0168
3.8921e-07
-3.78683e-14
0.0167999
1.03889e-06
-7.49515e-14
0.0167997
2.28848e-06
-1.40208e-13
0.0167994
5.87215e-06
-3.36853e-13
0.0167982
1.34717e-05
-6.63496e-13
0.0167991
3.52414e-05
-1.74616e-12
0.0167995
7.87882e-05
-4.27017e-12
0.0168198
0.000275086
-1.11778e-11
0.0168961
0.000719272
-2.93909e-11
0.0175433
0.00314159
-7.58626e-11
0.0169192
0.0111597
-5.32905e-11
0.0154008
0.0118835
-2.39672e-11
0.0143114
0.0111102
-2.09391e-11
0.0130959
0.0115661
-2.07509e-11
0.0118478
0.0124507
-1.99444e-11
0.0104198
0.0137397
-1.74053e-11
0.00883148
0.015178
-1.61845e-11
0.00693485
0.016951
-1.58707e-11
0.00432854
0.0194294
-1.51619e-11
0.0231345
-1.43511e-11
0.0168001
-5.2417e-16
2.20081e-09
0.0168001
-2.7707e-15
2.34071e-09
0.0168001
-6.16389e-15
3.04224e-08
0.0168001
-1.28602e-14
2.89757e-08
0.0168001
-2.43429e-14
2.0861e-07
0.0168003
-4.63826e-14
1.88341e-07
0.0168
-9.16862e-14
1.25892e-06
0.0168013
-2.1873e-13
1.01855e-06
0.0167991
-3.01319e-13
8.03016e-06
0.0168082
-1.29534e-12
4.14094e-06
0.0167846
-8.11498e-13
5.85728e-05
0.0168442
-5.5435e-12
2.01971e-05
0.0167057
-6.31695e-12
0.000412508
0.0169902
-2.70008e-11
0.000435094
0.0171477
-6.88492e-11
0.00297714
0.0166509
-1.24839e-10
0.0116431
0.0160507
-2.24323e-11
0.01248
0.014882
-1.85088e-11
0.0122771
0.0137827
-2.07483e-11
0.0126643
0.0127358
-2.05556e-11
0.0134971
0.0115664
-1.86246e-11
0.0149071
0.0102435
-1.78627e-11
0.0164985
0.00851152
-1.67062e-11
0.0186799
0.0060065
-1.54502e-11
0.021931
-1.51026e-11
0.0291383
0.0168001
2.06964e-10
1.92686e-16
0.0168001
1.12405e-09
1.81012e-16
0.0168001
4.18309e-09
3.13326e-17
0.0168
1.07337e-08
6.75111e-17
0.0168
2.95518e-08
1.8154e-16
0.0167999
6.79428e-08
3.7102e-16
0.0167997
1.75207e-07
9.5136e-16
0.0167994
4.00602e-07
1.98497e-15
0.0167982
1.00736e-06
4.78206e-15
0.016796
2.29509e-06
1.0072e-14
0.0167889
6.46047e-06
2.63815e-14
0.016773
1.60799e-05
5.84574e-14
0.0167185
5.24616e-05
1.36545e-13
0.0165485
0.000166981
3.81381e-13
0.0155365
0.000999349
8.15914e-13
0.0143487
0.00118876
-6.73142e-13
0.0131503
0.001198
-3.48601e-13
0.0118832
0.0012655
-1.70761e-13
0.010539
0.00134246
-1.80805e-13
0.00910496
0.00143179
-1.72587e-13
0.0075532
0.00154961
-8.88201e-14
0.00586992
0.00168081
1.12565e-14
0.0040607
0.00180546
1.23124e-13
0.0021178
0.00193986
1.74443e-13
0.00211579
2.23448e-13
0.0168001
4.13375e-10
1.93024e-16
0.0168001
2.24186e-09
1.8079e-16
0.0168001
8.34785e-09
3.23312e-17
0.0168
2.13846e-08
6.97684e-17
0.0168
5.90764e-08
1.89492e-16
0.0167999
1.35704e-07
3.8984e-16
0.0167997
3.52203e-07
9.96419e-16
0.0167993
8.02835e-07
2.1448e-15
0.0167982
2.04589e-06
4.86198e-15
0.0167959
4.62562e-06
1.10579e-14
0.0167885
1.32282e-05
2.60281e-14
0.0167719
3.27311e-05
6.5205e-14
0.0167142
0.000108284
1.14994e-13
0.0165352
0.000342561
4.05337e-13
0.0155048
0.00201711
8.2803e-13
0.0142885
0.00240616
-6.70171e-13
0.0131001
0.00238596
-3.37028e-13
0.0118493
0.00251466
-1.70646e-13
0.0105143
0.00267569
-1.85926e-13
0.00906707
0.0028768
-1.82796e-13
0.00749557
0.00311899
-9.76482e-14
0.00579418
0.00337973
4.11988e-15
0.00396549
0.00363035
1.17939e-13
0.00201902
0.00388326
1.7611e-13
0.00413273
2.34649e-13
0.0168001
6.0267e-10
1.93113e-16
0.0168001
3.24772e-09
1.81378e-16
0.0168001
1.21049e-08
3.31368e-17
0.0168
3.09012e-08
7.14565e-17
0.0168
8.58103e-08
1.94681e-16
0.0168
1.96903e-07
4.0047e-16
0.0167998
5.14155e-07
1.02678e-15
0.0167994
1.17528e-06
2.20657e-15
0.0167983
3.00101e-06
5.04265e-15
0.0167962
6.84851e-06
1.13588e-14
0.016789
1.97392e-05
2.72142e-14
0.016773
4.87815e-05
6.69768e-14
0.0167134
0.000165944
1.23573e-13
0.0165317
0.000520879
4.27444e-13
0.0155158
0.00302004
8.93621e-13
0.0142718
0.00365142
-6.84336e-13
0.013083
0.00357435
-3.22244e-13
0.0118476
0.0037483
-1.68169e-13
0.0105295
0.00399211
-1.90056e-13
0.00908696
0.00431708
-1.93206e-13
0.00751258
0.0046912
-1.08523e-13
0.00580787
0.00508194
-3.66287e-15
0.00396339
0.00547111
1.09869e-13
0.00201039
0.00583313
1.65919e-13
0.0061409
2.35266e-13
0.0168001
6.97473e-10
1.9287e-16
0.0168001
3.79226e-09
1.83317e-16
0.0168001
1.41177e-08
3.39533e-17
0.0168
3.6126e-08
7.31218e-17
0.0168
1.00114e-07
2.01145e-16
0.0168
2.28095e-07
4.15025e-16
0.0167999
6.09442e-07
1.07075e-15
0.0167997
1.32187e-06
2.3392e-15
0.0167989
3.78461e-06
5.28106e-15
0.0167979
7.85998e-06
1.2169e-14
0.0167914
2.56028e-05
2.94055e-14
0.0167817
5.84855e-05
7.22382e-14
0.0167029
0.000242686
1.36184e-13
0.0165298
0.000690572
4.67925e-13
0.0155431
0.00399324
1.00781e-12
0.0142626
0.00493343
-7.25951e-13
0.0130896
0.00474703
-3.23777e-13
0.0118809
0.00495522
-1.64405e-13
0.0105904
0.00528099
-1.8891e-13
0.00917494
0.00573019
-1.93479e-13
0.00761508
0.00624936
-1.27363e-13
0.00590944
0.00678502
-3.16263e-14
0.00406094
0.00731568
8.68503e-14
0.00206393
0.0078279
1.45874e-13
0.00820275
2.15015e-13
0.0168001
7.73953e-10
1.88864e-16
0.0168001
4.22462e-09
1.9207e-16
0.0168001
1.57086e-08
2.9985e-17
0.0168001
4.01394e-08
6.45304e-17
0.0168
1.11248e-07
1.77693e-16
0.0168
2.5161e-07
3.60249e-16
0.0167999
6.85488e-07
9.8337e-16
0.0167998
1.41534e-06
1.88874e-15
0.016799
4.48053e-06
5.63677e-15
0.0167986
8.32489e-06
9.83739e-15
0.0167916
3.20033e-05
3.29867e-14
0.0167821
6.793e-05
6.19085e-14
0.0167186
0.000304232
2.18378e-13
0.0165649
0.00084138
5.13748e-13
0.0157573
0.00478631
1.25457e-12
0.0144299
0.00626318
-8.20177e-13
0.013236
0.00594095
-4.9903e-13
0.0120319
0.00615789
-1.72861e-13
0.0107573
0.00655408
-1.92415e-13
0.00935834
0.00712683
-1.98144e-13
0.00782491
0.00778106
-1.52417e-13
0.0061317
0.0084763
-7.43558e-14
0.00424566
0.00919817
2.58649e-14
0.00219136
0.00987857
7.65933e-14
0.0103918
1.49559e-13
0.0168001
8.49791e-10
1.8324e-16
0.0168001
4.70352e-09
2.00695e-16
0.0168001
1.74337e-08
2.52085e-17
0.0168
4.4629e-08
5.36282e-17
0.0168
1.23155e-07
1.47643e-16
0.0168
2.7833e-07
2.87985e-16
0.0167999
7.58679e-07
8.61361e-16
0.0167998
1.51508e-06
1.18814e-15
0.016799
5.23035e-06
6.35436e-15
0.0167994
7.96117e-06
4.20489e-15
0.0167908
3.99334e-05
4.70406e-14
0.016786
7.29017e-05
5.31956e-14
0.01674
0.000348176
2.73797e-13
0.0166404
0.000938328
5.93662e-13
0.016186
0.0052249
1.57558e-12
0.014814
0.00763816
-8.95739e-13
0.0135609
0.00719454
-4.5673e-13
0.0123376
0.00737985
-1.80329e-13
0.0110845
0.00780591
-1.9219e-13
0.00970056
0.00850867
-2.10935e-13
0.00817063
0.00930866
-1.67107e-13
0.00647402
0.0101711
-1.28058e-13
0.00456291
0.0111059
-1.9649e-14
0.00238774
0.012051
3.21318e-14
0.0127774
8.46023e-14
0.0168001
1.06846e-09
1.87869e-16
0.0168001
5.76287e-09
1.94524e-16
0.0168001
2.14447e-08
3.17434e-17
0.0168
5.47253e-08
6.87655e-17
0.0168
1.517e-07
1.89036e-16
0.0167999
3.46262e-07
3.87312e-16
0.0167998
9.16239e-07
1.04852e-15
0.0167993
2.0207e-06
2.07485e-15
0.0167988
5.62821e-06
6.4296e-15
0.0167954
1.13398e-05
8.20613e-15
0.0167952
3.95707e-05
4.54052e-14
0.0167875
8.05897e-05
6.50203e-14
0.0167842
0.000349429
2.79735e-13
0.0167768
0.00094326
6.38796e-13
0.0169548
0.00503039
1.78983e-12
0.0155194
0.00907662
-8.82137e-13
0.0141187
0.00859605
-5.00004e-13
0.0128368
0.00866069
-1.90822e-13
0.0115759
0.00906546
-1.82229e-13
0.0102359
0.00984688
-1.82738e-13
0.00872049
0.010822
-1.84458e-13
0.0070084
0.0118818
-1.83408e-13
0.00504244
0.0130678
-7.59524e-14
0.00273844
0.0143519
-6.1835e-14
0.0155137
-1.33587e-14
0.0168001
1.1014e-09
1.88544e-16
0.0168001
6.04206e-09
1.94458e-16
0.0168001
2.24987e-08
3.3922e-17
0.0168001
5.78728e-08
7.31836e-17
0.0168
1.59253e-07
2.0269e-16
0.0168
3.65049e-07
4.13161e-16
0.0168
9.52975e-07
1.12501e-15
0.0167999
2.12425e-06
2.24026e-15
0.0167998
5.63759e-06
6.34946e-15
0.0167988
1.2295e-05
1.17988e-14
0.0168014
3.65057e-05
4.07247e-14
0.0168025
7.93013e-05
6.66477e-14
0.0168528
0.000297132
2.76238e-13
0.0169981
0.000795444
6.51273e-13
0.0182125
0.00379997
2.01471e-12
0.0167497
0.0105414
-6.01818e-13
0.0149803
0.0103666
-5.62988e-13
0.0136183
0.0100219
-1.91573e-13
0.01233
0.0103521
-1.7001e-13
0.0109705
0.0112048
-1.6242e-13
0.00947567
0.0123146
-1.84625e-13
0.00776455
0.0135921
-1.88484e-13
0.00577256
0.0150573
-1.07656e-13
0.00329625
0.0168259
-1.06249e-13
0.018808
-9.57556e-14
0.0168001
1.3697e-09
1.86276e-16
0.0168001
6.39239e-09
1.9932e-16
0.0168001
2.49212e-08
3.21652e-17
0.0168001
6.14794e-08
6.93551e-17
0.0168
1.7465e-07
1.90084e-16
0.0168
3.89208e-07
3.863e-16
0.0167999
1.03888e-06
1.03536e-15
0.0167997
2.28846e-06
2.07609e-15
0.0167994
5.87216e-06
5.55504e-15
0.0167982
1.34716e-05
1.13662e-14
0.0167991
3.52417e-05
2.80548e-14
0.0167995
7.87882e-05
7.59779e-14
0.0168198
0.000275089
1.63035e-13
0.0168961
0.000719278
4.35277e-13
0.0175434
0.00314163
1.00278e-12
0.0169192
0.0111598
3.80319e-13
0.0154008
0.0118834
-9.68382e-14
0.0143114
0.0111102
-9.3565e-14
0.0130958
0.0115661
-9.84784e-14
0.0118478
0.0124507
-1.22649e-13
0.0104197
0.0137397
-1.59444e-13
0.00883147
0.015178
-1.77584e-13
0.00693484
0.016951
-1.54082e-13
0.00432854
0.0194294
-1.3455e-13
0.0231345
-1.51381e-13
0.0168001
1.96032e-16
2.20081e-09
0.0168001
1.83093e-16
2.34083e-09
0.0168001
4.68053e-17
3.04226e-08
0.0168001
1.0251e-16
2.89765e-08
0.0168001
2.82365e-16
2.08612e-07
0.0168003
6.00373e-16
1.88346e-07
0.0168
1.45449e-15
1.25894e-06
0.0168013
3.94571e-15
1.01858e-06
0.0167991
4.91189e-15
8.03022e-06
0.0168082
2.53517e-14
4.14111e-06
0.0167846
9.71774e-15
5.8573e-05
0.0168442
9.99766e-14
2.0198e-05
0.0167057
1.06321e-13
0.00041251
0.0169902
4.13075e-13
0.000435098
0.0171477
9.82778e-13
0.00297716
0.0166509
1.58535e-12
0.0116431
0.0160507
-8.63172e-14
0.01248
0.014882
-1.28968e-13
0.0122771
0.0137827
-6.67508e-14
0.0126643
0.0127358
-7.40648e-14
0.0134971
0.0115664
-1.04005e-13
0.0149071
0.0102435
-1.14169e-13
0.0164985
0.0085115
-1.16559e-13
0.0186799
0.00600649
-1.0353e-13
0.021931
-1.14924e-13
0.0291383
0.0168001
2.06964e-10
-8.18717e-17
0.0168001
1.12405e-09
-2.85868e-16
0.0168001
4.18309e-09
-7.53118e-16
0.0168
1.07337e-08
-1.45131e-15
0.0168
2.95518e-08
-3.66779e-15
0.0167999
6.79428e-08
-7.21844e-15
0.0167997
1.75207e-07
-1.93805e-14
0.0167994
4.00602e-07
-3.94711e-14
0.0167982
1.00736e-06
-1.09412e-13
0.016796
2.29509e-06
-2.17646e-13
0.0167889
6.46047e-06
-7.05956e-13
0.016773
1.60799e-05
-1.52193e-12
0.0167185
5.24616e-05
-4.89758e-12
0.0165485
0.000166981
-1.43053e-11
0.0155365
0.000999349
-4.03995e-11
0.0143487
0.00118876
4.43353e-12
0.0131503
0.001198
-1.00066e-12
0.0118832
0.0012655
-5.47824e-12
0.010539
0.00134246
-5.75377e-12
0.00910495
0.00143179
-6.12117e-12
0.0075532
0.00154961
-6.41128e-12
0.00586992
0.00168081
-6.84647e-12
0.0040607
0.00180546
-7.53993e-12
0.0021178
0.00193986
-7.79835e-12
0.00211579
-8.25047e-12
0.0168001
4.13375e-10
-8.29364e-17
0.0168001
2.24186e-09
-2.88702e-16
0.0168001
8.34785e-09
-7.66347e-16
0.0168
2.13846e-08
-1.47871e-15
0.0168
5.90764e-08
-3.7752e-15
0.0167999
1.35704e-07
-7.48059e-15
0.0167997
3.52204e-07
-2.00136e-14
0.0167993
8.02835e-07
-4.19899e-14
0.0167982
2.04589e-06
-1.09987e-13
0.0167959
4.62562e-06
-2.34668e-13
0.0167885
1.32282e-05
-6.90433e-13
0.0167719
3.27311e-05
-1.65768e-12
0.0167142
0.000108284
-4.33532e-12
0.0165352
0.000342561
-1.47378e-11
0.0155048
0.00201711
-4.03487e-11
0.0142885
0.00240616
4.47863e-12
0.0131001
0.00238596
-1.12276e-12
0.0118493
0.00251466
-5.46461e-12
0.0105143
0.00267569
-5.6816e-12
0.00906707
0.0028768
-5.99794e-12
0.00749557
0.00311899
-6.30379e-12
0.00579418
0.00337973
-6.76377e-12
0.00396549
0.00363035
-7.48843e-12
0.00201902
0.00388326
-7.80308e-12
0.00413273
-8.3358e-12
0.0168001
6.0267e-10
-8.33777e-17
0.0168001
3.24772e-09
-2.90057e-16
0.0168001
1.21049e-08
-7.7047e-16
0.0168
3.09012e-08
-1.48649e-15
0.0168
8.58103e-08
-3.8008e-15
0.0168
1.96903e-07
-7.52921e-15
0.0167998
5.14155e-07
-2.0186e-14
0.0167994
1.17528e-06
-4.22007e-14
0.0167983
3.00101e-06
-1.11478e-13
0.0167962
6.84851e-06
-2.35077e-13
0.016789
1.97392e-05
-7.01449e-13
0.016773
4.87815e-05
-1.6541e-12
0.0167134
0.000165944
-4.45448e-12
0.0165317
0.000520879
-1.48862e-11
0.0155158
0.00302004
-4.11383e-11
0.0142718
0.00365142
4.98933e-12
0.013083
0.00357435
-1.14697e-12
0.0118476
0.0037483
-5.4397e-12
0.0105295
0.00399211
-5.59607e-12
0.00908696
0.00431708
-5.86204e-12
0.00751258
0.0046912
-6.18627e-12
0.00580786
0.00508194
-6.69621e-12
0.00396339
0.00547111
-7.45028e-12
0.00201039
0.00583313
-7.76328e-12
0.0061409
-8.34844e-12
0.0168001
6.97473e-10
-8.31473e-17
0.0168001
3.79226e-09
-2.8851e-16
0.0168001
1.41177e-08
-7.68543e-16
0.0168
3.6126e-08
-1.48149e-15
0.0168
1.00114e-07
-3.81019e-15
0.0168
2.28095e-07
-7.5602e-15
0.0167999
6.09442e-07
-2.03718e-14
0.0167997
1.32187e-06
-4.2979e-14
0.0167989
3.78461e-06
-1.13066e-13
0.0167979
7.85998e-06
-2.40769e-13
0.0167914
2.56028e-05
-7.24054e-13
0.0167817
5.84855e-05
-1.69226e-12
0.0167029
0.000242686
-4.62399e-12
0.0165298
0.000690572
-1.52131e-11
0.0155431
0.00399324
-4.25577e-11
0.0142626
0.00493344
5.97412e-12
0.0130896
0.00474703
-8.14222e-13
0.0118809
0.00495522
-5.37271e-12
0.0105904
0.00528099
-5.53069e-12
0.00917494
0.00573019
-5.82279e-12
0.00761508
0.00624936
-6.0187e-12
0.00590944
0.00678502
-6.48369e-12
0.00406094
0.00731568
-7.30389e-12
0.00206393
0.0078279
-7.66025e-12
0.00820275
-8.21758e-12
0.0168001
7.73953e-10
-7.38867e-17
0.0168001
4.22462e-09
-2.5928e-16
0.0168001
1.57086e-08
-6.85592e-16
0.0168001
4.01394e-08
-1.31299e-15
0.0168
1.11248e-07
-3.34539e-15
0.0168
2.5161e-07
-6.49476e-15
0.0167999
6.85488e-07
-1.83301e-14
0.0167998
1.41534e-06
-3.42288e-14
0.016799
4.48053e-06
-1.14956e-13
0.0167986
8.32489e-06
-1.91847e-13
0.0167916
3.20033e-05
-7.61085e-13
0.0167821
6.793e-05
-1.41339e-12
0.0167186
0.000304232
-6.05895e-12
0.0165649
0.00084138
-1.53288e-11
0.0157573
0.00478631
-4.56067e-11
0.0144299
0.00626318
7.94679e-12
0.013236
0.00594096
2.65917e-13
0.0120319
0.00615789
-5.1236e-12
0.0107573
0.00655408
-5.3849e-12
0.00935834
0.00712683
-5.75921e-12
0.00782491
0.00778106
-5.78473e-12
0.0061317
0.0084763
-6.15998e-12
0.00424566
0.00919817