/*--------------------------------*- C++ -*----------------------------------*\
| =========                 |                                                 |
| \\      /  F ield         | OpenFOAM: The Open Source CFD Toolbox           |
|  \\    /   O peration     | Version:  4.1                                   |
|   \\  /    A nd           | Web:      www.OpenFOAM.org                      |
|    \\/     M anipulation  |                                                 |
\*---------------------------------------------------------------------------*/
FoamFile
{
    version     2.0;
    format      ascii;
    class       surfaceScalarField;
    location    "5.44";
    object      phi;
}
// * * * * * * * * * * * * * * * * * * * * * * * * * * * * * * * * * * * * * //

dimensions      [1 0 -1 0 0 0 0];

internalField   nonuniform List<scalar> 
150500
(
0.0168001
2.05897e-10
-3.4232e-12
0.0168001
1.14388e-09
-1.16449e-11
0.0168
4.25326e-09
-1.35073e-11
0.0168
1.09549e-08
-2.164e-11
0.0168
3.01943e-08
-2.15332e-11
0.0167999
6.9587e-08
-2.92581e-11
0.0167997
1.80141e-07
-2.96156e-11
0.0167993
4.13277e-07
-4.08773e-11
0.016798
1.04234e-06
-4.37169e-11
0.0167955
2.37841e-06
-8.17102e-11
0.0167874
6.72704e-06
-1.0605e-10
0.0167698
1.67332e-05
-2.64451e-10
0.0167107
5.4544e-05
-3.45685e-10
0.0165284
0.000172775
-1.41351e-09
0.0154622
0.00102991
-3.04855e-09
0.0142346
0.00123423
4.90687e-10
0.0130005
0.00123402
-5.34784e-11
0.0117069
0.00129111
-3.93931e-10
0.0103452
0.00135969
-3.97753e-10
0.00890398
0.00144039
-3.82955e-10
0.00735393
0.00154975
-3.65892e-10
0.00568667
0.0016668
-3.7714e-10
0.00391175
0.00177419
-3.84895e-10
0.0020251
0.00188543
-3.95928e-10
0.00202336
-4.12415e-10
0.0168001
4.05804e-10
-3.41256e-12
0.0168001
2.23114e-09
-1.16507e-11
0.0168001
8.31391e-09
-1.34874e-11
0.0168
2.12893e-08
-2.16832e-11
0.0168
5.90308e-08
-2.14587e-11
0.0167999
1.35659e-07
-2.92962e-11
0.0167997
3.5412e-07
-2.95602e-11
0.0167993
8.11455e-07
-4.08922e-11
0.016798
2.06277e-06
-4.35641e-11
0.0167956
4.72812e-06
-8.15019e-11
0.0167874
1.35613e-05
-1.0558e-10
0.0167696
3.35852e-05
-2.61932e-10
0.016706
0.000113598
-3.43848e-10
0.0165117
0.000357368
-1.39964e-09
0.0154192
0.0020855
-3.03791e-09
0.0141505
0.00250978
4.9692e-10
0.0129282
0.00245618
-5.4355e-11
0.0116524
0.00256425
-3.91873e-10
0.0102996
0.00271035
-3.93631e-10
0.00884368
0.00289538
-3.75575e-10
0.00727631
0.00311684
-3.5862e-10
0.00559984
0.00334292
-3.70679e-10
0.00381605
0.00355742
-3.78679e-10
0.00193372
0.00376674
-3.8835e-10
0.00395556
-4.03438e-10
0.0168001
5.33999e-10
-3.39261e-12
0.0168001
2.95065e-09
-1.16564e-11
0.0168001
1.10449e-08
-1.34555e-11
0.0168
2.82488e-08
-2.17688e-11
0.0168
7.8549e-08
-2.13074e-11
0.0168
1.79172e-07
-2.93764e-11
0.0167998
4.79142e-07
-2.94382e-11
0.0167995
1.04293e-06
-4.09271e-11
0.0167984
2.97734e-06
-4.31898e-11
0.0167968
6.20202e-06
-8.10755e-11
0.0167889
2.00804e-05
-1.04503e-10
0.0167754
4.61186e-05
-2.56683e-10
0.0166964
0.00018786
-3.39997e-10
0.0165022
0.000541632
-1.3715e-09
0.015407
0.00314208
-3.02674e-09
0.014105
0.00382007
5.13238e-10
0.0128999
0.00366204
-4.87773e-11
0.0116518
0.00381042
-3.86871e-10
0.010325
0.00403561
-3.8733e-10
0.00887903
0.00434087
-3.64979e-10
0.0073156
0.00468043
-3.47873e-10
0.00563336
0.00502535
-3.60935e-10
0.00383273
0.00535767
-3.68421e-10
0.00193864
0.00566011
-3.75447e-10
0.00589303
-3.86507e-10
0.0168001
6.65387e-10
-3.37187e-12
0.0168001
3.64807e-09
-1.165e-11
0.0168001
1.36264e-08
-1.34724e-11
0.0168
3.46399e-08
-2.16741e-11
0.0168
9.66435e-08
-2.13864e-11
0.0168
2.19156e-07
-2.92105e-11
0.0167998
5.92511e-07
-2.93385e-11
0.0167996
1.26844e-06
-4.02812e-11
0.0167986
3.73573e-06
-4.29272e-11
0.016797
7.62381e-06
-7.80107e-11
0.01679
2.58394e-05
-1.02729e-10
0.0167766
5.84401e-05
-2.41563e-10
0.0167066
0.000253311
-3.55622e-10
0.0165305
0.000709864
-1.31625e-09
0.0155629
0.00406812
-3.03463e-09
0.0142315
0.00516159
5.27185e-10
0.0130177
0.00487798
-4.02481e-11
0.0117809
0.00504562
-3.74528e-10
0.0104688
0.00534601
-3.73023e-10
0.00903535
0.00577383
-3.47455e-10
0.00747573
0.00624048
-3.34301e-10
0.00579196
0.00670953
-3.53104e-10
0.00396869
0.00718161
-3.59402e-10
0.00201012
0.00761851
-3.60949e-10
0.0079025
-3.65741e-10
0.0168001
6.97832e-10
-3.34576e-12
0.0168001
3.88469e-09
-1.16429e-11
0.0168001
1.45437e-08
-1.34935e-11
0.0168001
3.71064e-08
-2.15402e-11
0.0168
1.02916e-07
-2.14914e-11
0.0168
2.31397e-07
-2.8967e-11
0.0167999
6.41765e-07
-2.9141e-11
0.0167999
1.24489e-06
-3.92658e-11
0.0167989
4.51777e-06
-4.2171e-11
0.0167995
6.88585e-06
-7.3193e-11
0.0167894
3.45988e-05
-9.71865e-11
0.0167822
6.45966e-05
-2.25408e-10
0.0167201
0.000310478
-3.38536e-10
0.0165796
0.000842564
-1.23515e-09
0.0158544
0.00474863
-2.99337e-09
0.0144946
0.00653286
4.65923e-10
0.0132596
0.00611599
-7.70857e-11
0.012025
0.00628007
-3.70959e-10
0.01074
0.00663156
-3.62277e-10
0.00932435
0.00719048
-3.32814e-10
0.00777357
0.0077927
-3.30466e-10
0.00606586
0.00841781
-3.49246e-10
0.00419724
0.00905015
-3.51447e-10
0.0021645
0.00965141
-3.49871e-10
0.0100668
-3.49651e-10
0.0168001
9.00592e-10
-3.33664e-12
0.0168001
4.95744e-09
-1.15993e-11
0.0168001
1.84427e-08
-1.36e-11
0.0168
4.71129e-08
-2.13662e-11
0.0168
1.30409e-07
-2.1841e-11
0.0167999
2.96904e-07
-2.89813e-11
0.0167998
7.93062e-07
-2.97261e-11
0.0167993
1.69604e-06
-4.21871e-11
0.0167984
5.13155e-06
-3.87851e-11
0.0167964
8.93232e-06
-1.10022e-10
0.0167916
3.79115e-05
-1.48644e-11
0.0167824
7.33773e-05
-3.10067e-10
0.0167552
0.000332698
-1.56928e-10
0.0166854
0.000905419
-1.09177e-09
0.0164319
0.00495634
-2.66849e-09
0.0150359
0.00793945
2.05933e-10
0.0137122
0.007443
-2.14038e-10
0.0124429
0.00754714
-3.68348e-10
0.0111578
0.00791309
-3.44602e-10
0.0097669
0.00858033
-3.13535e-10
0.00821274
0.0093482
-3.30729e-10
0.00649983
0.0101321
-3.5213e-10
0.00456905
0.0109824
-3.51949e-10
0.0023837
0.0118374
-3.4542e-10
0.0124508
-3.42216e-10
0.0168001
1.0083e-09
-3.30119e-12
0.0168001
5.55713e-09
-1.15898e-11
0.0168001
2.07008e-08
-1.35563e-11
0.0168
5.29886e-08
-2.12642e-11
0.0168
1.46433e-07
-2.15514e-11
0.0168
3.34535e-07
-2.83117e-11
0.0167999
8.79708e-07
-2.83164e-11
0.0167996
1.94683e-06
-3.63723e-11
0.0167992
5.30204e-06
-3.90573e-11
0.0167969
1.11133e-05
-6.78169e-11
0.016797
3.66456e-05
-5.63748e-11
0.0167964
7.31337e-05
-2.15638e-10
0.0168066
0.000317678
-2.19479e-10
0.0168576
0.000848408
-9.3526e-10
0.0173766
0.00439182
-2.40425e-09
0.015937
0.00938452
-1.06572e-10
0.0143981
0.00898656
-3.18475e-10
0.0130843
0.00886449
-3.22979e-10
0.0117971
0.00920338
-2.99563e-10
0.0104094
0.00996957
-2.83961e-10
0.0088601
0.010898
-3.18428e-10
0.00710019
0.0118931
-3.4088e-10
0.00510273
0.0129807
-3.4456e-10
0.00277097
0.0141701
-3.3976e-10
0.0152224
-3.35624e-10
0.0168001
1.07218e-09
-3.26336e-12
0.0168001
5.96891e-09
-1.1597e-11
0.0168001
2.22712e-08
-1.35441e-11
0.0168001
5.74583e-08
-2.12469e-11
0.0168
1.57847e-07
-2.14843e-11
0.0168
3.62681e-07
-2.81898e-11
0.0167999
9.41696e-07
-2.79205e-11
0.0167997
2.11595e-06
-3.55591e-11
0.0167994
5.50409e-06
-3.79455e-11
0.0167981
1.22679e-05
-5.43472e-11
0.0167998
3.40436e-05
-6.31734e-11
0.0167939
7.82089e-05
-1.65686e-10
0.0168432
0.00026491
-1.83077e-10
0.0169784
0.00070518
-6.87583e-10
0.018061
0.00328851
-1.36359e-09
0.0169205
0.0105097
-1.05544e-09
0.0151461
0.0107537
-5.609e-10
0.0138487
0.0101625
-2.12975e-10
0.0125815
0.0104715
-2.35954e-10
0.0112052
0.0113475
-2.80888e-10
0.00967978
0.0124261
-3.17089e-10
0.00793678
0.013638
-3.29633e-10
0.0058894
0.0150299
-3.30886e-10
0.00335518
0.0167057
-3.2786e-10
0.0185786
-3.2524e-10
0.0168001
1.46802e-09
-3.23461e-12
0.0168001
6.56349e-09
-1.1594e-11
0.0168001
2.67967e-08
-1.35518e-11
0.0168
6.43163e-08
-2.12299e-11
0.0168
1.88326e-07
-2.14675e-11
0.0168
4.10538e-07
-2.8138e-11
0.0167998
1.10806e-06
-2.78328e-11
0.0167994
2.4861e-06
-3.53273e-11
0.0167989
5.85025e-06
-3.74935e-11
0.0167963
1.47256e-05
-5.3813e-11
0.0167961
3.33736e-05
-5.70325e-11
0.0167921
8.13431e-05
-1.74938e-10
0.0167972
0.000256221
-1.23465e-10
0.0168166
0.000684115
-5.84724e-10
0.0172249
0.00286229
-1.17075e-09
0.0166777
0.0110254
-1.84597e-09
0.0155964
0.0118227
-9.27954e-10
0.0144742
0.0112855
6.49113e-11
0.013223
0.0117228
-1.89584e-10
0.0120348
0.0125345
-2.54458e-10
0.0106141
0.0138467
-3.0864e-10
0.00899568
0.015258
-3.16951e-10
0.00706626
0.0169604
-3.15412e-10
0.00441809
0.019355
-3.08137e-10
0.0229977
-3.02472e-10
0.0168001
-3.25547e-12
2.11577e-09
0.0168001
-1.16177e-11
1.60797e-09
0.0168001
-1.36478e-11
2.80994e-08
0.0168001
-2.18136e-11
2.41993e-08
0.0168001
-2.13243e-11
1.856e-07
0.0168003
-2.91206e-11
1.57831e-07
0.0168003
-2.83853e-11
1.12537e-06
0.016802
-3.79009e-11
8.08082e-07
0.0168001
-3.75389e-11
7.53077e-06
0.0168117
-6.38528e-11
3.15229e-06
0.0167877
-7.01831e-11
5.64911e-05
0.0168545
-1.36307e-10
1.38019e-05
0.0167092
-1.22104e-10
0.000397578
0.0169945
-5.88711e-10
0.000399897
0.0170371
-1.03314e-09
0.00280317
0.0165867
-2.03257e-09
0.0114401
0.0159247
-2.6107e-10
0.0124802
0.014892
-2.53318e-11
0.0123182
0.0138895
-1.72136e-10
0.0127233
0.0128545
-2.24073e-10
0.0135688
0.0117264
-2.99671e-10
0.0149737
0.0104205
-3.00588e-10
0.0165641
0.00866575
-2.9701e-10
0.0187166
0.00610837
-2.78848e-10
0.0219144
-2.59371e-10
0.0291071
0.0168001
2.11202e-10
-5.53421e-16
0.0168001
1.14555e-09
-2.91219e-15
0.0168
4.26656e-09
-6.55347e-15
0.0168
1.09443e-08
-1.39171e-14
0.0168
3.02263e-08
-2.65964e-14
0.0167999
6.95928e-08
-5.09214e-14
0.0167997
1.80177e-07
-1.093e-13
0.0167993
4.133e-07
-2.16869e-13
0.016798
1.04244e-06
-5.19524e-13
0.0167955
2.3786e-06
-1.0721e-12
0.0167874
6.72755e-06
-3.01996e-12
0.0167698
1.6735e-05
-7.13215e-12
0.0167107
5.45481e-05
-1.81434e-11
0.0165283
0.000172792
-6.13476e-11
0.0154621
0.00102997
-1.62143e-10
0.0142345
0.00123423
2.71419e-11
0.0130004
0.00123401
-1.37731e-12
0.0117068
0.0012911
-1.57788e-11
0.0103452
0.00135968
-1.46102e-11
0.00890398
0.00144037
-1.26324e-11
0.00735396
0.00154972
-1.42721e-11
0.00568672
0.00166678
-1.72005e-11
0.00391181
0.00177418
-1.96623e-11
0.00202514
0.00188544
-2.2882e-11
0.00202341
-2.75963e-11
0.0168001
4.15516e-10
-5.53643e-16
0.0168001
2.23644e-09
-2.91189e-15
0.0168
8.3358e-09
-6.55685e-15
0.0168
2.12662e-08
-1.39266e-14
0.0168
5.91039e-08
-2.66411e-14
0.0167999
1.3566e-07
-5.10212e-14
0.0167997
3.54213e-07
-1.09701e-13
0.0167993
8.11536e-07
-2.17882e-13
0.016798
2.06311e-06
-5.22535e-13
0.0167956
4.72871e-06
-1.07863e-12
0.0167874
1.35628e-05
-3.05064e-12
0.0167696
3.359e-05
-7.17895e-12
0.016706
0.000113606
-1.83755e-11
0.0165117
0.000357402
-6.185e-11
0.0154191
0.00208563
-1.63537e-10
0.0141504
0.00250976
2.85334e-11
0.0129281
0.00245617
-1.11999e-12
0.0116523
0.00256424
-1.57545e-11
0.0102995
0.00271032
-1.46489e-11
0.00884366
0.00289534
-1.27287e-11
0.00727631
0.00311681
-1.42462e-11
0.00559986
0.0033429
-1.68089e-11
0.00381607
0.00355741
-1.90665e-11
0.00193374
0.00376676
-2.1786e-11
0.00395563
-2.58086e-11
0.0168001
5.44298e-10
-5.52621e-16
0.0168001
2.9634e-09
-2.90499e-15
0.0168001
1.10476e-08
-6.54577e-15
0.0168
2.83079e-08
-1.39101e-14
0.0168
7.85421e-08
-2.66731e-14
0.0168
1.79282e-07
-5.11515e-14
0.0167998
4.79273e-07
-1.10477e-13
0.0167995
1.0434e-06
-2.21057e-13
0.0167984
2.97791e-06
-5.28519e-13
0.0167968
6.20427e-06
-1.10193e-12
0.0167889
2.00837e-05
-3.132e-12
0.0167754
4.61302e-05
-7.34613e-12
0.0166964
0.000187867
-1.89362e-11
0.0165022
0.000541694
-6.31658e-11
0.0154069
0.00314231
-1.6848e-10
0.0141048
0.00382005
3.18088e-11
0.0128997
0.00366204
1.74104e-13
0.0116517
0.00381039
-1.56469e-11
0.0103248
0.00403556
-1.47216e-11
0.00887892
0.00434082
-1.27994e-11
0.00731552
0.00468038
-1.38284e-11
0.00563331
0.0050253
-1.57968e-11
0.00383271
0.00535764
-1.74957e-11
0.00193864
0.00566011
-1.93248e-11
0.00589309
-2.18126e-11
0.0168001
6.7779e-10
-5.3023e-16
0.0168001
3.66148e-09
-2.80902e-15
0.0168001
1.36296e-08
-6.21524e-15
0.0168
3.47063e-08
-1.31821e-14
0.0168
9.66381e-08
-2.45349e-14
0.0168
2.1926e-07
-4.61554e-14
0.0167998
5.9265e-07
-1.00495e-13
0.0167996
1.26886e-06
-1.78429e-13
0.0167986
3.7362e-06
-5.3213e-13
0.016797
7.62491e-06
-8.592e-13
0.01679
2.58438e-05
-3.24111e-12
0.0167766
5.84541e-05
-6.0292e-12
0.0167065
0.000253343
-2.4933e-11
0.0165304
0.000709981
-6.33426e-11
0.0155625
0.00406862
-1.80387e-10
0.0142311
0.00516163
3.80646e-11
0.0130173
0.00487791
4.15893e-12
0.0117806
0.00504555
-1.47582e-11
0.0104685
0.00534593
-1.42805e-11
0.0090351
0.00577375
-1.24969e-11
0.00747553
0.00624038
-1.27912e-11
0.00579182
0.00670943
-1.45852e-11
0.00396861
0.00718152
-1.56514e-11
0.00201008
0.00761848
-1.63304e-11
0.00790253
-1.72308e-11
0.0168001
7.0404e-10
-5.26389e-16
0.0168001
3.91271e-09
-2.79058e-15
0.0168001
1.45183e-08
-6.17523e-15
0.0168001
3.7191e-08
-1.30863e-14
0.0168
1.02832e-07
-2.44495e-14
0.0168
2.31439e-07
-4.609e-14
0.0167999
6.41663e-07
-1.00847e-13
0.0167999
1.24425e-06
-1.8233e-13
0.0167989
4.51977e-06
-5.35882e-13
0.0167995
6.87509e-06
-8.91209e-13
0.0167894
3.46359e-05
-3.33296e-12
0.0167822
6.45656e-05
-6.18426e-12
0.01672
0.000310605
-2.55386e-11
0.0165794
0.000842729
-6.46223e-11
0.015854
0.0047494
-1.89715e-10
0.0144943
0.00653282
4.06886e-11
0.0132594
0.00611583
6.76923e-12
0.0120248
0.00627997
-1.45151e-11
0.0107398
0.00663148
-1.42622e-11
0.0093242
0.00719041
-1.23733e-11
0.00777342
0.0077926
-1.14199e-11
0.00606572
0.00841771
-1.24692e-11
0.00419714
0.00905004
-1.28791e-11
0.00216445
0.00965133
-1.30205e-11
0.0100668
-1.29849e-11
0.0168001
9.17886e-10
-5.00527e-16
0.0168001
4.97503e-09
-2.70165e-15
0.0168001
1.84811e-08
-5.84974e-15
0.0168
4.71846e-08
-1.21002e-14
0.0168
1.30603e-07
-2.23236e-14
0.0167999
2.97323e-07
-4.03594e-14
0.0167998
7.93999e-07
-8.87763e-14
0.0167993
1.69923e-06
-1.31222e-13
0.0167984
5.13322e-06
-5.46935e-13
0.0167963
8.95575e-06
-4.15083e-13
0.0167916
3.79019e-05
-3.457e-12
0.0167823
7.34296e-05
-4.84747e-12
0.0167553
0.000332696
-2.65912e-11
0.0166854
0.000905577
-6.31312e-11
0.0164318
0.00495717
-1.93482e-10
0.015036
0.00793928
3.43568e-11
0.0137124
0.00744283
8.60247e-12
0.012443
0.00754705
-1.20784e-11
0.0111578
0.00791308
-1.2405e-11
0.00976687
0.00858031
-1.18626e-11
0.00821268
0.00934814
-1.02207e-11
0.00649975
0.0101321
-1.08032e-11
0.00456898
0.0109822
-1.08125e-11
0.00238365
0.0118373
-1.01788e-11
0.0124507
-9.24969e-12
0.0168001
1.027e-09
-5.11997e-16
0.0168001
5.56864e-09
-2.73763e-15
0.0168001
2.0723e-08
-6.01676e-15
0.0168
5.30219e-08
-1.25245e-14
0.0168
1.4651e-07
-2.35552e-14
0.0168
3.34695e-07
-4.39209e-14
0.0167999
8.8012e-07
-9.31139e-14
0.0167996
1.94778e-06
-1.76611e-13
0.0167992
5.30395e-06
-4.81296e-13
0.016797
1.11223e-05
-7.47948e-13
0.016797
3.66517e-05
-3.3115e-12
0.0167965
7.31631e-05
-4.99685e-12
0.0168065
0.000317732
-2.36142e-11
0.0168575
0.000848593
-5.81416e-11
0.0173761
0.00439306
-1.86776e-10
0.0159367
0.00938416
1.14173e-11
0.014398
0.00898608
-6.19182e-13
0.0130843
0.00886435
-1.1249e-11
0.0117971
0.00920336
-1.1299e-11
0.0104094
0.00996954
-1.13805e-11
0.00886009
0.0108979
-9.70365e-12
0.00710016
0.011893
-9.33101e-12
0.00510269
0.0129806
-8.93481e-12
0.00277094
0.01417
-7.82685e-12
0.0152223
-6.10063e-12
0.0168001
1.08476e-09
-4.9667e-16
0.0168001
5.97648e-09
-2.67188e-15
0.0168001
2.22697e-08
-5.77965e-15
0.0168
5.74399e-08
-1.19998e-14
0.0168
1.57797e-07
-2.18375e-14
0.0168
3.62627e-07
-4.02034e-14
0.0167999
9.41597e-07
-8.11251e-14
0.0167997
2.11583e-06
-1.50939e-13
0.0167994
5.50403e-06
-3.80046e-13
0.0167981
1.22681e-05
-6.77087e-13
0.0167998
3.40472e-05
-2.38241e-12
0.016794
7.82056e-05
-3.58962e-12
0.0168433
0.000264949
-1.63253e-11
0.0169786
0.000705248
-3.9615e-11
0.018062
0.00328901
-1.03697e-10
0.0169207
0.01051
-6.75002e-11
0.0151463
0.0107533
-2.5402e-11
0.0138487
0.0101625
-5.75278e-12
0.0125815
0.0104715
-8.78938e-12
0.0112052
0.0113475
-1.30056e-11
0.00967979
0.012426
-1.14056e-11
0.00793679
0.013638
-9.67234e-12
0.0058894
0.0150298
-8.41141e-12
0.00335516
0.0167056
-6.60154e-12
0.0185785
-3.8978e-12
0.0168001
1.44498e-09
-4.88487e-16
0.0168001
6.67163e-09
-2.6302e-15
0.0168001
2.68194e-08
-5.66659e-15
0.0168
6.40881e-08
-1.1745e-14
0.0168
1.88279e-07
-2.12423e-14
0.0168
4.10098e-07
-3.89789e-14
0.0167998
1.10761e-06
-7.8328e-14
0.0167994
2.48507e-06
-1.46491e-13
0.0167989
5.84951e-06
-3.59023e-13
0.0167963
1.47231e-05
-6.96261e-13
0.0167962
3.33679e-05
-1.864e-12
0.0167921
8.13524e-05
-4.63281e-12
0.0167973
0.000256221
-1.12123e-11
0.0168166
0.000684161
-3.16089e-11
0.0172252
0.00286254
-8.9676e-11
0.0166783
0.0110255
-1.35411e-10
0.0155963
0.0118231
-6.35452e-11
0.0144742
0.0112853
1.28645e-11
0.0132231
0.0117228
-6.83675e-12
0.0120349
0.0125345
-1.16818e-11
0.0106142
0.0138466
-1.2608e-11
0.00899572
0.0152579
-1.05068e-11
0.00706628
0.0169603
-9.04601e-12
0.00441811
0.0193549
-6.27766e-12
0.0229976
-3.00479e-12
0.0168001
-4.95106e-16
1.9799e-09
0.0168001
-2.62686e-15
1.96852e-09
0.0168001
-5.67582e-15
2.68942e-08
0.0168001
-1.19992e-14
2.46947e-08
0.0168001
-2.11465e-14
1.84213e-07
0.0168003
-3.97873e-14
1.58451e-07
0.0168003
-7.80881e-14
1.12431e-06
0.016802
-1.54709e-13
8.09117e-07
0.0168001
-3.39674e-13
7.52963e-06
0.0168117
-7.14551e-13
3.14897e-06
0.0167877
-1.95301e-12
5.64899e-05
0.0168543
-4.17332e-12
1.44101e-05
0.0167093
-1.06499e-11
0.000397557
0.0169944
-2.94392e-11
0.000400002
0.0170372
-8.01028e-11
0.00280328
0.0165867
-1.51242e-10
0.0114402
0.0159251
-1.27735e-11
0.0124801
0.0148921
5.84058e-12
0.0123182
0.0138896
-5.92149e-12
0.0127233
0.0128546
-9.58297e-12
0.0135688
0.0117265
-1.37431e-11
0.0149737
0.0104206
-1.24611e-11
0.0165641
0.0086658
-1.00943e-11
0.0187166
0.00610842
-6.58914e-12
0.0219144
-3.55015e-12
0.0291071
0.0168001
2.11202e-10
2.18091e-16
0.0168001
1.14555e-09
1.80842e-16
0.0168
4.26656e-09
1.62094e-16
0.0168
1.09443e-08
3.50516e-16
0.0168
3.02263e-08
9.89337e-16
0.0167999
6.95927e-08
2.03978e-15
0.0167997
1.80177e-07
5.56049e-15
0.0167993
4.13299e-07
1.17804e-14
0.016798
1.04244e-06
3.04902e-14
0.0167955
2.37859e-06
6.51956e-14
0.0167874
6.72752e-06
1.87075e-13
0.0167698
1.6735e-05
4.47345e-13
0.0167107
5.45478e-05
1.1236e-12
0.0165283
0.000172792
3.81902e-12
0.0154621
0.00102997
1.00572e-11
0.0142345
0.00123422
-2.10465e-12
0.0130004
0.00123401
-3.52067e-13
0.0117068
0.0012911
5.31152e-13
0.0103452
0.00135968
4.32074e-13
0.00890401
0.00144037
2.04563e-13
0.00735399
0.00154972
1.72748e-13
0.00568675
0.00166678
1.50137e-13
0.00391184
0.00177419
1.35919e-13
0.00202516
0.00188545
9.66603e-14
0.00202343
-2.3686e-14
0.0168001
4.15517e-10
2.18186e-16
0.0168001
2.23645e-09
1.80887e-16
0.0168
8.33583e-09
1.62562e-16
0.0168
2.12663e-08
3.51519e-16
0.0168
5.91041e-08
9.93737e-16
0.0167999
1.35661e-07
2.04907e-15
0.0167997
3.54214e-07
5.59617e-15
0.0167993
8.11538e-07
1.18704e-14
0.016798
2.06311e-06
3.07533e-14
0.0167956
4.72871e-06
6.57908e-14
0.0167874
1.35628e-05
1.89606e-13
0.0167696
3.35899e-05
4.51836e-13
0.016706
0.000113606
1.14222e-12
0.0165117
0.000357401
3.865e-12
0.0154191
0.00208562
1.0181e-11
0.0141505
0.00250975
-2.19064e-12
0.0129281
0.00245616
-3.6971e-13
0.0116523
0.00256423
5.30505e-13
0.0102995
0.00271032
4.35232e-13
0.00884368
0.00289534
2.11063e-13
0.00727633
0.00311681
1.6497e-13
0.00559988
0.0033429
1.30964e-13
0.00381608
0.00355742
1.1078e-13
0.00193375
0.00376677
7.09193e-14
0.00395567
-4.07343e-14
0.0168001
5.44309e-10
2.17983e-16
0.0168001
2.96346e-09
1.81639e-16
0.0168001
1.10478e-08
1.62347e-16
0.0168
2.83084e-08
3.51121e-16
0.0168
7.85435e-08
9.9875e-16
0.0168
1.79285e-07
2.06294e-15
0.0167998
4.7928e-07
5.66628e-15
0.0167995
1.04343e-06
1.21255e-14
0.0167984
2.97792e-06
3.12876e-14
0.0167968
6.2044e-06
6.76494e-14
0.0167889
2.00837e-05
1.96064e-13
0.0167754
4.61308e-05
4.65626e-13
0.0166964
0.000187864
1.18699e-12
0.0165022
0.000541693
3.9796e-12
0.0154069
0.0031423
1.05813e-11
0.0141048
0.00382003
-2.39299e-12
0.0128998
0.00366203
-4.62152e-13
0.0116517
0.00381039
5.1826e-13
0.0103249
0.00403556
4.31344e-13
0.00887893
0.00434081
2.01433e-13
0.00731553
0.00468038
1.05833e-13
0.00563332
0.0050253
4.92468e-14
0.00383271
0.00535765
2.93692e-14
0.00193864
0.00566013
-3.95857e-16
0.00589313
-7.27144e-14
0.0168001
6.77794e-10
2.11467e-16
0.0168001
3.6615e-09
1.92623e-16
0.0168001
1.36297e-08
1.40368e-16
0.0168
3.47065e-08
3.02992e-16
0.0168
9.66386e-08
8.58051e-16
0.0168
2.19261e-07
1.73385e-15
0.0167998
5.92653e-07
5.02646e-15
0.0167996
1.26887e-06
9.32056e-15
0.0167986
3.73622e-06
3.17749e-14
0.016797
7.62495e-06
5.18821e-14
0.01679
2.58438e-05
2.04871e-13
0.0167766
5.84541e-05
3.8334e-13
0.0167065
0.000253343
1.59029e-12
0.0165304
0.00070998
4.03454e-12
0.0155625
0.00406863
1.14837e-11
0.0142311
0.00516161
-2.7859e-12
0.0130173
0.0048779
-7.37593e-13
0.0117806
0.00504554
4.58492e-13
0.0104685
0.00534592
3.98226e-13
0.00903511
0.00577375
1.76753e-13
0.00747553
0.00624038
2.4409e-14
0.00579182
0.00670943
-5.30574e-14
0.00396861
0.00718153
-6.85064e-14
0.00201008
0.0076185
-9.01594e-14
0.00790257
-1.32932e-13
0.0168001
7.0405e-10
2.10504e-16
0.0168001
3.91275e-09
1.9477e-16
0.0168001
1.45185e-08
1.38724e-16
0.0168001
3.71915e-08
2.99494e-16
0.0168
1.02833e-07
8.59437e-16
0.0168
2.31442e-07
1.7447e-15
0.0167999
6.4167e-07
5.09604e-15
0.0167999
1.24428e-06
9.66613e-15
0.0167989
4.51977e-06
3.23262e-14
0.0167995
6.87527e-06
5.45088e-14
0.0167894
3.46357e-05
2.13042e-13
0.0167822
6.45663e-05
3.9767e-13
0.01672
0.000310606
1.6486e-12
0.0165794
0.000842732
4.16807e-12
0.015854
0.00474942
1.22411e-11
0.0144943
0.00653279
-2.93316e-12
0.0132594
0.00611581
-9.14958e-13
0.0120248
0.00627996
4.61101e-13
0.0107398
0.00663148
4.1262e-13
0.00932419
0.00719041
1.8263e-13
0.00777341
0.0077926
-2.80876e-14
0.00606572
0.00841771
-1.31151e-13
0.00419713
0.00905005
-1.50656e-13
0.00216444
0.00965135
-1.7149e-13
0.0100668
-2.03316e-13
0.0168001
9.17882e-10
2.03124e-16
0.0168001
4.97502e-09
2.03025e-16
0.0168001
1.8481e-08
1.16221e-16
0.0168
4.71845e-08
2.48017e-16
0.0168
1.30602e-07
7.09619e-16
0.0167999
2.97321e-07
1.39768e-15
0.0167998
7.93997e-07
4.34564e-15
0.0167993
1.69922e-06
6.41597e-15
0.0167984
5.13325e-06
3.33437e-14
0.0167963
8.95562e-06
2.39313e-14
0.0167916
3.79023e-05
2.63972e-13
0.0167823
7.34299e-05
3.13868e-13
0.0167553
0.000332699
1.73916e-12
0.0166854
0.000905585
4.12555e-12
0.0164318
0.00495722
1.26633e-11
0.0150359
0.00793926
-2.51023e-12
0.0137123
0.00744281
-1.03809e-12
0.012443
0.00754704
3.17314e-13
0.0111578
0.00791307
3.20204e-13
0.00976685
0.00858031
1.62654e-13
0.00821267
0.00934813
-6.03046e-14
0.00649974
0.0101321
-1.73866e-13
0.00456897
0.0109823
-1.95528e-13
0.00238364
0.0118373
-2.19854e-13
0.0124508
-2.56461e-13
0.0168001
1.02701e-09
2.06881e-16
0.0168001
5.56867e-09
2.00393e-16
0.0168001
2.07231e-08
1.29028e-16
0.0168
5.30222e-08
2.79908e-16
0.0168
1.46511e-07
8.00394e-16
0.0168
3.34697e-07
1.64866e-15
0.0167999
8.80127e-07
4.68509e-15
0.0167996
1.94779e-06
9.4391e-15
0.0167992
5.304e-06
2.94659e-14
0.016797
1.11224e-05
4.57867e-14
0.016797
3.66522e-05
2.16693e-13
0.0167965
7.31641e-05
3.26487e-13
0.0168065
0.000317738
1.56414e-12
0.0168575
0.000848609
3.85137e-12
0.017376
0.00439317
1.24078e-11
0.0159366
0.00938414
-9.18778e-13
0.014398
0.00898603
-3.83536e-13
0.0130842
0.00886433
3.0149e-13
0.0117971
0.00920335
3.07298e-13
0.0104094
0.00996954
2.29004e-13
0.00886007
0.0108979
-1.00312e-14
0.00710014
0.011893
-1.5128e-13
0.00510268
0.0129806
-1.88206e-13
0.00277094
0.01417
-2.13578e-13
0.0152224
-2.55205e-13
0.0168001
1.08476e-09
2.02311e-16
0.0168001
5.9765e-09
2.06463e-16
0.0168001
2.22697e-08
1.13964e-16
0.0168
5.74401e-08
2.46547e-16
0.0168
1.57797e-07
6.90104e-16
0.0168
3.62629e-07
1.40846e-15
0.0167999
9.416e-07
3.91229e-15
0.0167997
2.11583e-06
7.76369e-15
0.0167994
5.50405e-06
2.28845e-14
0.0167981
1.22682e-05
4.14515e-14
0.0167998
3.40475e-05
1.56195e-13
0.016794
7.82054e-05
2.33523e-13
0.0168433
0.000264953
1.09294e-12
0.0169786
0.000705255
2.65574e-12
0.018062
0.00328905
6.99376e-12
0.0169207
0.0105101
4.46155e-12
0.0151463
0.0107533
1.36967e-12
0.0138487
0.0101625
1.08992e-15
0.0125815
0.0104715
2.08638e-13
0.0112052
0.0113475
4.3663e-13
0.00967977
0.012426
1.991e-13
0.00793677
0.013638
3.08468e-14
0.00588939
0.0150298
-3.1927e-14
0.00335516
0.0167056
-7.27839e-14
0.0185785
-1.34266e-13
0.0168001
1.44497e-09
1.99557e-16
0.0168001
6.67166e-09
2.10298e-16
0.0168001
2.68195e-08
1.06764e-16
0.0168
6.40881e-08
2.30557e-16
0.0168
1.88279e-07
6.54247e-16
0.0168
4.10099e-07
1.33543e-15
0.0167998
1.10761e-06
3.75622e-15
0.0167994
2.48507e-06
7.5376e-15
0.0167989
5.84953e-06
2.1674e-14
0.0167963
1.47231e-05
4.33172e-14
0.0167962
3.3368e-05
1.21806e-13
0.0167921
8.13528e-05
3.09851e-13
0.0167973
0.000256222
7.51333e-13
0.0168166
0.000684166
2.14054e-12
0.0172252
0.00286257
6.11118e-12
0.0166783
0.0110255
9.17409e-12
0.0155962
0.0118231
4.11077e-12
0.0144742
0.0112852
-1.34688e-12
0.0132231
0.0117228
1.48616e-13
0.0120348
0.0125345
4.4811e-13
0.0106142
0.0138466
4.26846e-13
0.0089957
0.0152579
2.83138e-13
0.00706627
0.0169603
2.38706e-13
0.0044181
0.0193549
2.13439e-13
0.0229976
1.99926e-13
0.0168001
2.00034e-16
1.97988e-09
0.0168001
2.10148e-16
1.96859e-09
0.0168001
1.04166e-16
2.68942e-08
0.0168001
2.24972e-16
2.46951e-08
0.0168001
6.4687e-16
1.84213e-07
0.0168003
1.34295e-15
1.58453e-07
0.0168003
3.68168e-15
1.12432e-06
0.016802
8.0562e-15
8.09127e-07
0.0168001
2.0134e-14
7.52967e-06
0.0168117
4.44348e-14
3.14895e-06
0.0167877
1.28479e-13
5.64902e-05
0.0168543
2.77835e-13
1.44105e-05
0.0167093
7.23547e-13
0.000397559
0.0169944
2.01181e-12
0.000400006
0.0170372
5.53349e-12
0.0028033
0.0165868
1.04854e-11
0.0114403
0.0159251
7.30616e-13
0.0124802
0.0148921
-5.90342e-13
0.0123182
0.0138896
1.84475e-13
0.0127233
0.0128546
4.13825e-13
0.0135688
0.0117264
6.72735e-13
0.0149737
0.0104206
6.12983e-13
0.0165641
0.00866579
5.75843e-13
0.0187166
0.00610841
6.13445e-13
0.0219144
8.78655e-13
0.0291071
0.0168001
2.11202e-10
-1.97259e-16
0.0168001
1.14555e-09
-6.71273e-16
0.0168
4.26656e-09
-1.86298e-15
0.0168
1.09443e-08
-3.75987e-15
0.0168
3.02263e-08
-1.00516e-14
0.0167999
6.95927e-08
-2.03792e-14
0.0167997
1.80177e-07
-5.48174e-14
0.0167993
4.13299e-07
-1.1575e-13
0.016798
1.04244e-06
-2.98425e-13
0.0167955
2.37859e-06
-6.37772e-13
0.0167874
6.72753e-06
-1.83324e-12
0.0167698
1.6735e-05
-4.35061e-12
0.0167107
5.45478e-05
-1.11112e-11
0.0165283
0.000172792
-3.73366e-11
0.0154621
0.00102997
-1.00004e-10
0.0142345
0.00123422
2.19611e-11
0.0130004
0.00123401
2.91822e-12
0.0117068
0.0012911
-6.39312e-12
0.0103452
0.00135968
-5.41729e-12
0.00890401
0.00144037
-3.50604e-12
0.00735399
0.00154972
-3.77069e-12
0.00568675
0.00166678
-4.7588e-12
0.00391184
0.00177419
-5.37644e-12
0.00202516
0.00188545
-6.05521e-12
0.00202343
-6.73197e-12
0.0168001
4.15517e-10
-1.97614e-16
0.0168001
2.23645e-09
-6.72823e-16
0.0168
8.33583e-09
-1.8676e-15
0.0168
2.12663e-08
-3.76902e-15
0.0168
5.91041e-08
-1.00907e-14
0.0167999
1.35661e-07
-2.04617e-14
0.0167997
3.54214e-07
-5.51286e-14
0.0167993
8.11537e-07
-1.16552e-13
0.016798
2.06311e-06
-3.00676e-13
0.0167956
4.72871e-06
-6.42972e-13
0.0167874
1.35628e-05
-1.85537e-12
0.0167696
3.35899e-05
-4.388e-12
0.016706
0.000113606
-1.12741e-11
0.0165117
0.000357401
-3.77031e-11
0.0154191
0.00208562
-1.00936e-10
0.0141505
0.00250975
2.28376e-11
0.0129281
0.00245617
3.05784e-12
0.0116523
0.00256423
-6.3965e-12
0.0102995
0.00271032
-5.45241e-12
0.00884368
0.00289534
-3.5663e-12
0.00727633
0.00311681
-3.70939e-12
0.00559988
0.0033429
-4.53159e-12
0.00381608
0.00355742
-5.04093e-12
0.00193375
0.00376677
-5.58214e-12
0.00395567
-6.11568e-12
0.0168001
5.44308e-10
-1.96963e-16
0.0168001
2.96345e-09
-6.71362e-16
0.0168001
1.10478e-08
-1.8649e-15
0.0168
2.83084e-08
-3.76393e-15
0.0168
7.85434e-08
-1.01328e-14
0.0168
1.79285e-07
-2.05823e-14
0.0167998
4.7928e-07
-5.57401e-14
0.0167995
1.04343e-06
-1.18903e-13
0.0167984
2.97792e-06
-3.05234e-13
0.0167968
6.2044e-06
-6.59972e-13
0.0167889
2.00837e-05
-1.9131e-12
0.0167754
4.61308e-05
-4.51004e-12
0.0166964
0.000187864
-1.16716e-11
0.0165022
0.000541693
-3.86587e-11
0.0154069
0.0031423
-1.04376e-10
0.0141048
0.00382003
2.49398e-11
0.0128998
0.00366203
3.91196e-12
0.0116517
0.00381039
-6.3067e-12
0.0103249
0.00403556
-5.43888e-12
0.00887893
0.00434081
-3.49574e-12
0.00731553
0.00468038
-3.19371e-12
0.00563332
0.0050253
-3.73997e-12
0.00383271
0.00535765
-4.07098e-12
0.00193864
0.00566013
-4.41254e-12
0.00589313
-4.76224e-12
0.0168001
6.77794e-10
-1.75159e-16
0.0168001
3.6615e-09
-5.99467e-16
0.0168001
1.36297e-08
-1.64263e-15
0.0168
3.47065e-08
-3.2907e-15
0.0168
9.66386e-08
-8.75788e-15
0.0168
2.19261e-07
-1.73783e-14
0.0167998
5.92653e-07
-4.94388e-14
0.0167996
1.26887e-06
-9.16149e-14
0.0167986
3.73622e-06
-3.08891e-13
0.016797
7.62495e-06
-5.05952e-13
0.01679
2.58438e-05
-1.99197e-12
0.0167766
5.84541e-05
-3.69563e-12
0.0167065
0.000253343
-1.56131e-11
0.0165304
0.00070998
-3.89667e-11
0.0155625
0.00406863
-1.12595e-10
0.0142311
0.00516161
2.90218e-11
0.0130173
0.0048779
6.5827e-12
0.0117806
0.00504554
-5.69498e-12
0.0104685
0.00534592
-5.07991e-12
0.00903511
0.00577375
-3.17446e-12
0.00747553
0.00624038
-2.3455e-12
0.00579182
0.00670943
-2.71547e-12
0.00396861
0.00718153
-2.89837e-12
0.00201008
0.0076185
-2.9353e-12
0.00790257
-3.02083e-12
0.0168001
7.04049e-10
-1.72353e-16
0.0168001
3.91275e-09
-5.88592e-16
0.0168001
1.45185e-08
-1.62288e-15
0.0168001
3.71915e-08
-3.24964e-15
0.0168
1.02833e-07
-8.74806e-15
0.0168
2.31442e-07
-1.74325e-14
0.0167999
6.4167e-07
-4.99431e-14
0.0167999
1.24427e-06
-9.45819e-14
0.0167989
4.51977e-06
-3.12996e-13
0.0167995
6.87526e-06
-5.28977e-13
0.0167894
3.46357e-05
-2.06093e-12
0.0167822
6.45663e-05
-3.81756e-12
0.01672
0.000310606
-1.60855e-11
0.0165794
0.000842732
-4.00106e-11
0.015854
0.00474942
-1.19172e-10
0.0144943
0.0065328
3.06664e-11
0.0132594
0.00611581
8.27833e-12
0.0120248
0.00627996
-5.59352e-12
0.0107398
0.00663148
-5.07824e-12
0.00932419
0.00719041
-3.03065e-12
0.00777341
0.0077926
-1.54118e-12
0.00606572
0.00841771
-1.51293e-12
0.00419713
0.00905005
-1.50421e-12
0.00216444
0.00965135
-1.3761e-12
0.0100668
-1.2696e-12