/*--------------------------------*- C++ -*----------------------------------*\
| =========                 |                                                 |
| \\      /  F ield         | OpenFOAM: The Open Source CFD Toolbox           |
|  \\    /   O peration     | Version:  4.1                                   |
|   \\  /    A nd           | Web:      www.OpenFOAM.org                      |
|    \\/     M anipulation  |                                                 |
\*---------------------------------------------------------------------------*/
FoamFile
{
    version     2.0;
    format      ascii;
    class       volScalarField;
    location    "0.02";
    object      Ma;
}
// * * * * * * * * * * * * * * * * * * * * * * * * * * * * * * * * * * * * * //

dimensions      [0 0 0 0 0 0 0];

internalField   nonuniform List<scalar> 
18000
(
5.96289e-12
5.89253e-12
5.81275e-12
5.74418e-12
5.6766e-12
5.60997e-12
5.54428e-12
5.47953e-12
5.41566e-12
5.35305e-12
7.53892e-12
7.2597e-12
6.98398e-12
6.72893e-12
6.48527e-12
6.25237e-12
6.0297e-12
5.81669e-12
5.61289e-12
5.41882e-12
9.66259e-12
9.0407e-12
8.45985e-12
7.93013e-12
7.44066e-12
6.98785e-12
6.56855e-12
6.17982e-12
5.8191e-12
5.48563e-12
1.25732e-11
1.13923e-11
1.0339e-11
9.40669e-12
8.57565e-12
7.83312e-12
7.1682e-12
6.5715e-12
6.03489e-12
5.55359e-12
1.66374e-11
1.45422e-11
1.27575e-11
1.12359e-11
9.93117e-12
8.8078e-12
7.83675e-12
6.99427e-12
6.26071e-12
5.62269e-12
2.24328e-11
1.88293e-11
1.59072e-11
1.35212e-11
1.15595e-11
9.93587e-12
8.58371e-12
7.4511e-12
6.49713e-12
5.69295e-12
3.08939e-11
2.47685e-11
2.00628e-11
1.64028e-11
1.35277e-11
1.12466e-11
9.42016e-12
7.94524e-12
6.74469e-12
5.76439e-12
4.35826e-11
3.31602e-11
2.56237e-11
2.00721e-11
1.59224e-11
1.27759e-11
1.0359e-11
8.48034e-12
7.00408e-12
5.83701e-12
1.6244e-10
1.47963e-10
1.35472e-10
1.25484e-10
1.17183e-10
1.10091e-10
1.03911e-10
9.84487e-11
9.35679e-11
8.92122e-11
3.58745e-08
1.82534e-08
1.56279e-08
1.35226e-08
1.18076e-08
1.0392e-08
9.21001e-09
8.21274e-09
7.36332e-09
3.99401e-09
5.97734e-12
5.90486e-12
5.82628e-12
5.75648e-12
5.68785e-12
5.62035e-12
5.55391e-12
5.48858e-12
5.42426e-12
5.36118e-12
7.56675e-12
7.28172e-12
7.01016e-12
6.75132e-12
6.50446e-12
6.26889e-12
6.04406e-12
5.82936e-12
5.62426e-12
5.42797e-12
9.69924e-12
9.06984e-12
8.49794e-12
7.96238e-12
7.46811e-12
7.0114e-12
6.58896e-12
6.19773e-12
5.83506e-12
5.4966e-12
1.2627e-11
1.14389e-11
1.03986e-11
9.45652e-12
8.61761e-12
7.86874e-12
7.19876e-12
6.59804e-12
6.05815e-12
5.5674e-12
1.67209e-11
1.46222e-11
1.28521e-11
1.13136e-11
9.99554e-12
8.86159e-12
7.88217e-12
7.03306e-12
6.29414e-12
5.64037e-12
2.25668e-11
1.89693e-11
1.60581e-11
1.3642e-11
1.16573e-11
1.00158e-11
8.64988e-12
7.50647e-12
6.54387e-12
5.71562e-12
3.11149e-11
2.5014e-11
2.03029e-11
1.65891e-11
1.36742e-11
1.13634e-11
9.51441e-12
8.02233e-12
6.80828e-12
5.79325e-12
4.39552e-11
3.35891e-11
2.60053e-11
2.03572e-11
1.61391e-11
1.29433e-11
1.04905e-11
8.58509e-12
7.08842e-12
5.87334e-12
6.40167e-11
4.60344e-11
3.37957e-11
2.52365e-11
1.91824e-11
1.48139e-11
1.1605e-11
9.2097e-12
7.39495e-12
5.96548e-12
8.2038e-09
1.66198e-09
1.41972e-09
1.22787e-09
1.07313e-09
9.46386e-10
8.41204e-10
7.52912e-10
6.78053e-10
6.14726e-10
3.89441e-13
3.63403e-13
1.72808e-13
1.51294e-13
1.30931e-13
1.11786e-13
9.39767e-14
7.77099e-14
6.33322e-14
3.75254e-14
5.34919e-13
4.60788e-13
3.86547e-13
3.35496e-13
2.89064e-13
2.47316e-13
2.10486e-13
1.79043e-13
1.53433e-13
8.00349e-14
5.9714e-13
4.88408e-13
5.24052e-13
4.54386e-13
3.94406e-13
3.43509e-13
3.01157e-13
2.66915e-13
2.39703e-13
1.20831e-13
7.28597e-13
6.32773e-13
7.6061e-13
6.55406e-13
5.67433e-13
4.94343e-13
4.34049e-13
3.84794e-13
3.44067e-13
1.7205e-13
9.5344e-13
9.40595e-13
1.10708e-12
9.37885e-13
7.99858e-13
6.87226e-13
5.95221e-13
5.20048e-13
4.57386e-13
2.25978e-13
1.33277e-12
1.47943e-12
1.60735e-12
1.32745e-12
1.10571e-12
9.29127e-13
7.87665e-13
6.73731e-13
5.79952e-13
2.82646e-13
1.96179e-12
2.3535e-12
2.32914e-12
1.86219e-12
1.50556e-12
1.23049e-12
1.0162e-12
8.47757e-13
7.12371e-13
3.42152e-13
2.9986e-12
3.74359e-12
3.37703e-12
2.59777e-12
2.02806e-12
1.60529e-12
1.28712e-12
1.04459e-12
8.5539e-13
4.04639e-13
6.67734e-12
5.96158e-12
4.9133e-12
3.61439e-12
2.71164e-12
2.07103e-12
1.60769e-12
1.26683e-12
1.00971e-12
4.70149e-13
8.89941e-09
1.59345e-11
7.80647e-12
5.55363e-12
4.05207e-12
3.02214e-12
2.29818e-12
1.77812e-12
1.39482e-12
8.02909e-13
3.89223e-13
3.62967e-13
1.72634e-13
1.51078e-13
1.3068e-13
1.11506e-13
9.36511e-14
7.73275e-14
6.28633e-14
3.67e-14
5.34946e-13
4.60661e-13
3.86797e-13
3.35673e-13
2.89174e-13
2.47373e-13
2.10489e-13
1.7898e-13
1.53288e-13
7.96383e-14
5.97355e-13
4.88603e-13
5.24641e-13
4.54832e-13
3.9474e-13
3.43736e-13
3.01277e-13
2.66943e-13
2.39629e-13
1.20478e-13
7.29204e-13
6.33636e-13
7.61735e-13
6.56277e-13
5.68095e-13
4.94834e-13
4.34387e-13
3.84991e-13
3.44146e-13
1.71837e-13
9.54757e-13
9.42589e-13
1.10912e-12
9.39494e-13
8.01107e-13
6.88195e-13
5.95951e-13
5.20577e-13
4.57762e-13
2.25973e-13
1.3354e-12
1.48344e-12
1.61108e-12
1.33038e-12
1.10802e-12
9.30952e-13
7.89094e-13
6.74851e-13
5.80829e-13
2.83002e-13
1.96692e-12
2.36127e-12
2.33594e-12
1.8675e-12
1.50973e-12
1.23378e-12
1.0188e-12
8.49822e-13
7.1403e-13
3.43049e-13
3.0085e-12
3.75846e-12
3.38939e-12
2.60723e-12
2.03534e-12
1.61095e-12
1.29155e-12
1.0481e-12
8.58196e-13
4.06317e-13
6.70396e-12
5.99004e-12
4.93563e-12
3.63091e-12
2.72402e-12
2.08042e-12
1.61491e-12
1.27244e-12
1.0141e-12
4.72873e-13
8.95482e-09
1.53135e-11
7.09955e-12
4.9977e-12
3.60713e-12
2.66069e-12
2.00083e-12
1.53085e-12
1.18694e-12
5.48692e-13
3.89305e-13
3.62733e-13
1.73099e-13
1.51464e-13
1.3101e-13
1.11782e-13
9.38915e-14
7.75297e-14
6.30136e-14
3.67989e-14
5.35592e-13
4.6109e-13
3.87803e-13
3.36523e-13
2.89893e-13
2.4798e-13
2.1099e-13
1.79382e-13
1.53579e-13
7.98373e-14
5.98783e-13
4.90036e-13
5.26434e-13
4.5632e-13
3.95961e-13
3.4472e-13
3.02052e-13
2.67521e-13
2.40023e-13
1.20724e-13
7.32181e-13
6.36858e-13
7.64702e-13
6.5869e-13
5.70027e-13
4.96376e-13
4.35599e-13
3.85916e-13
3.44825e-13
1.72281e-13
9.60612e-13
9.48591e-13
1.11406e-12
9.43431e-13
8.04239e-13
6.90666e-13
5.97899e-13
5.22105e-13
4.58934e-13
2.268e-13
1.34655e-12
1.49402e-12
1.61945e-12
1.33693e-12
1.11316e-12
9.34992e-13
7.92284e-13
6.77369e-13
5.82818e-13
2.84413e-13
1.98784e-12
2.37993e-12
2.35032e-12
1.87847e-12
1.51818e-12
1.24034e-12
1.02394e-12
8.53865e-13
7.17238e-13
3.45339e-13
3.04783e-12
3.79181e-12
3.41421e-12
2.62561e-12
2.04915e-12
1.62146e-12
1.29965e-12
1.0544e-12
8.63153e-13
4.09797e-13
6.77493e-12
6.05037e-12
4.97858e-12
3.66156e-12
2.74632e-12
2.09695e-12
1.62735e-12
1.28195e-12
1.02146e-12
4.77932e-13
8.95395e-09
1.5426e-11
7.17098e-12
5.0468e-12
3.64178e-12
2.68572e-12
2.01927e-12
1.5447e-12
1.19751e-12
5.55909e-13
3.8939e-13
3.62415e-13
1.737e-13
1.51962e-13
1.31422e-13
1.12138e-13
9.41917e-14
7.7785e-14
6.32111e-14
3.69275e-14
5.36416e-13
4.61635e-13
3.89093e-13
3.37619e-13
2.90817e-13
2.48753e-13
2.11632e-13
1.79889e-13
1.53946e-13
8.01038e-14
6.00616e-13
4.91871e-13
5.28721e-13
4.58218e-13
3.97527e-13
3.45982e-13
3.03048e-13
2.68262e-13
2.40529e-13
1.21039e-13
7.36004e-13
6.40995e-13
7.68498e-13
6.61762e-13
5.72517e-13
4.98351e-13
4.37138e-13
3.87093e-13
3.45679e-13
1.72865e-13
9.68136e-13
9.5629e-13
1.12039e-12
9.48462e-13
8.08243e-13
6.93847e-13
6.00402e-13
5.24053e-13
4.60439e-13
2.27859e-13
1.36085e-12
1.50762e-12
1.63018e-12
1.3453e-12
1.11973e-12
9.40169e-13
7.96371e-13
6.80594e-13
5.85365e-13
2.86223e-13
2.01467e-12
2.40391e-12
2.36873e-12
1.89252e-12
1.52901e-12
1.24875e-12
1.03052e-12
8.59055e-13
7.21351e-13
3.48249e-13
3.09825e-12
3.83465e-12
3.44601e-12
2.64917e-12
2.06685e-12
1.63493e-12
1.31002e-12
1.06248e-12
8.69503e-13
4.14233e-13
6.86635e-12
6.12787e-12
5.03366e-12
3.70085e-12
2.77492e-12
2.11812e-12
1.64327e-12
1.29412e-12
1.03089e-12
4.84389e-13
8.95394e-09
1.55708e-11
7.26258e-12
5.10972e-12
3.68615e-12
2.71774e-12
2.04287e-12
1.56243e-12
1.21105e-12
5.65089e-13
3.89488e-13
3.62037e-13
1.74428e-13
1.52574e-13
1.31942e-13
1.12575e-13
9.45631e-14
7.80911e-14
6.34483e-14
3.70872e-14
5.37421e-13
4.62299e-13
3.90665e-13
3.38938e-13
2.91945e-13
2.49712e-13
2.12423e-13
1.80515e-13
1.54381e-13
8.04116e-14
6.02852e-13
4.9411e-13
5.31512e-13
4.60529e-13
3.99419e-13
3.47529e-13
3.04257e-13
2.69163e-13
2.41155e-13
1.21423e-13
7.40679e-13
6.46042e-13
7.73128e-13
6.65517e-13
5.75537e-13
5.00757e-13
4.39024e-13
3.88533e-13
3.46743e-13
1.73573e-13
9.77334e-13
9.65692e-13
1.12811e-12
9.54605e-13
8.13124e-13
6.97715e-13
6.03452e-13
5.26435e-13
4.62275e-13
2.29156e-13
1.37831e-12
1.5242e-12
1.64327e-12
1.35553e-12
1.12775e-12
9.46476e-13
8.01346e-13
6.84517e-13
5.8847e-13
2.88443e-13
2.04741e-12
2.4332e-12
2.39121e-12
1.90967e-12
1.54221e-12
1.25901e-12
1.03855e-12
8.65378e-13
7.26371e-13
3.5181e-13
3.1597e-12
3.88704e-12
3.48488e-12
2.67794e-12
2.08845e-12
1.65137e-12
1.32268e-12
1.07233e-12
8.77245e-13
4.19637e-13
6.97806e-12
6.22272e-12
5.10099e-12
3.74888e-12
2.80985e-12
2.14398e-12
1.66273e-12
1.30896e-12
1.04237e-12
4.92234e-13
8.95413e-09
1.57484e-11
7.37463e-12
5.18666e-12
3.74039e-12
2.75687e-12
2.07171e-12
1.58407e-12
1.22756e-12
5.76238e-13
3.89603e-13
3.61566e-13
1.75277e-13
1.53283e-13
1.32547e-13
1.13098e-13
9.50103e-14
7.84676e-14
6.37441e-14
3.73361e-14
5.38597e-13
4.63056e-13
3.92496e-13
3.40491e-13
2.9326e-13
2.50832e-13
2.13355e-13
1.81269e-13
1.54936e-13
8.0863e-14
6.05491e-13
4.9671e-13
5.34766e-13
4.63227e-13
4.01642e-13
3.4934e-13
3.05701e-13
2.70242e-13
2.41915e-13
1.21982e-13
7.46192e-13
6.51896e-13
7.78519e-13
6.69895e-13
5.79075e-13
5.03591e-13
4.41255e-13
3.90242e-13
3.48022e-13
1.74524e-13
9.88166e-13
9.76604e-13
1.13709e-12
9.61766e-13
8.18832e-13
7.02247e-13
6.07046e-13
5.29274e-13
4.6448e-13
2.30788e-13
1.39886e-12
1.54347e-12
1.6585e-12
1.36744e-12
1.13712e-12
9.53876e-13
8.07213e-13
6.89184e-13
5.92166e-13
2.91163e-13
2.08584e-12
2.46722e-12
2.41736e-12
1.92967e-12
1.55764e-12
1.27102e-12
1.04799e-12
8.72866e-13
7.32323e-13
3.56089e-13
3.23172e-12
3.94784e-12
3.53011e-12
2.71149e-12
2.11369e-12
1.67062e-12
1.33755e-12
1.08397e-12
8.86442e-13
4.26096e-13
7.10907e-12
6.33288e-12
5.17942e-12
3.80492e-12
2.85068e-12
2.17427e-12
1.68558e-12
1.32648e-12
1.056e-12
5.01564e-13
8.98318e-09
1.59529e-11
7.50515e-12
5.2764e-12
3.80378e-12
2.8027e-12
2.10554e-12
1.60956e-12
1.2471e-12
5.89454e-13
3.89364e-13
3.81547e-13
1.96537e-13
1.61391e-13
1.32744e-13
1.24166e-13
1.53806e-13
2.63964e-13
7.55203e-13
2.28392e-12
5.37965e-13
4.98007e-13
4.13713e-13
3.50193e-13
2.94623e-13
2.55038e-13
2.4601e-13
3.00661e-13
5.8592e-13
1.60684e-12
6.04921e-13
5.54373e-13
5.62199e-13
4.77521e-13
4.05104e-13
3.50035e-13
3.2213e-13
3.39613e-13
4.87658e-13
1.10688e-12
7.45393e-13
7.19103e-13
8.04983e-13
6.83755e-13
5.82326e-13
5.0241e-13
4.48968e-13
4.30909e-13
4.93483e-13
8.23459e-13
9.86688e-13
1.03363e-12
1.1553e-12
9.69858e-13
8.18394e-13
6.98172e-13
6.09309e-13
5.5522e-13
5.5589e-13
6.68076e-13
1.39676e-12
1.57137e-12
1.65938e-12
1.36327e-12
1.12855e-12
9.44487e-13
8.04526e-13
7.06675e-13
6.55713e-13
5.92582e-13
2.08494e-12
2.44732e-12
2.38946e-12
1.90532e-12
1.53566e-12
1.25314e-12
1.03938e-12
8.8373e-13
7.79675e-13
5.69995e-13
3.23778e-12
3.85799e-12
3.4589e-12
2.65744e-12
2.07214e-12
1.64051e-12
1.32142e-12
1.08857e-12
9.23748e-13
5.83419e-13
7.05119e-12
6.14483e-12
5.04694e-12
3.70986e-12
2.78258e-12
2.12779e-12
1.65981e-12
1.32453e-12
1.08645e-12
6.21511e-13
8.78242e-09
1.51493e-11
7.28295e-12
5.12353e-12
3.69931e-12
2.73435e-12
2.06731e-12
1.60024e-12
1.27167e-12
6.83068e-13
2.54981e-12
2.41699e-12
1.55366e-12
1.67163e-13
2.58171e-12
8.04962e-12
2.12414e-11
6.18256e-11
2.39171e-10
1.35674e-09
3.5882e-12
3.49408e-12
2.60581e-12
1.21058e-12
1.29497e-12
5.96669e-12
1.64986e-11
4.58972e-11
1.57257e-10
7.42008e-10
4.85304e-12
4.76274e-12
3.79474e-12
2.38686e-12
3.63341e-13
3.99383e-12
1.24791e-11
3.42475e-11
1.07712e-10
4.40476e-10
6.50342e-12
6.34413e-12
5.2043e-12
3.702e-12
1.54092e-12
2.23457e-12
9.23489e-12
2.58452e-11
7.64858e-11
2.78507e-10
8.6938e-12
8.34764e-12
6.9047e-12
5.19641e-12
2.96674e-12
8.14856e-13
6.54439e-12
1.95725e-11
5.57876e-11
1.84963e-10
1.16563e-11
1.09304e-11
8.99233e-12
6.92806e-12
4.50886e-12
1.3987e-12
4.26817e-12
1.47492e-11
4.14861e-11
1.27716e-10
1.57459e-11
1.43211e-11
1.15989e-11
8.97169e-12
6.20624e-12
2.93255e-12
2.36539e-12
1.09516e-11
3.12682e-11
9.09768e-11
2.15217e-11
1.88595e-11
1.49083e-11
1.14246e-11
8.11078e-12
4.57424e-12
1.26562e-12
7.8963e-12
2.37509e-11
6.64397e-11
3.00534e-11
2.50653e-11
1.91824e-11
1.44156e-11
1.02867e-11
6.31244e-12
2.09031e-12
5.40775e-12
1.80794e-11
4.94867e-11
2.35321e-08
3.45277e-11
2.47681e-11
1.80959e-11
1.27978e-11
8.17173e-12
3.60034e-12
3.41916e-12
1.36908e-11
3.73813e-11
3.48703e-12
3.13504e-12
2.07791e-12
1.9066e-12
8.15299e-12
2.64733e-11
8.83847e-11
3.84645e-10
2.65888e-09
3.63968e-09
4.63105e-12
4.31391e-12
3.30037e-12
1.70717e-12
5.10955e-12
1.87246e-11
6.1534e-11
2.4052e-10
1.35473e-09
1.76162e-09
6.02801e-12
5.68405e-12
4.67901e-12
2.90077e-12
2.76187e-12
1.27513e-11
4.30679e-11
1.56909e-10
7.57465e-10
9.50832e-10
7.82348e-12
7.34864e-12
6.24993e-12
4.47752e-12
2.0085e-12
8.19461e-12
3.02479e-11
1.05936e-10
4.5401e-10
5.55636e-10
1.01899e-11
9.42454e-12
8.08777e-12
6.23094e-12
3.32853e-12
4.70242e-12
2.10367e-11
7.32495e-11
2.86946e-10
3.44656e-10
1.33843e-11
1.20768e-11
1.02979e-11
8.19083e-12
5.22519e-12
2.49229e-12
1.42107e-11
5.13927e-11
1.88938e-10
2.23842e-10
1.78013e-11
1.55444e-11
1.30237e-11
1.04386e-11
7.29038e-12
2.95227e-12
9.03026e-12
3.62554e-11
1.28383e-10
1.5067e-10
2.40667e-11
2.01813e-11
1.64634e-11
1.30856e-11
9.52598e-12
4.95331e-12
5.10007e-12
2.54394e-11
8.93211e-11
1.04281e-10
3.35109e-11
2.65253e-11
2.08965e-11
1.62784e-11
1.20039e-11
7.20179e-12
2.69561e-12
1.74899e-11
6.31822e-11
7.3727e-11
3.57228e-09
2.40893e-10
2.6701e-11
2.01906e-11
1.48056e-11
9.53305e-12
3.28495e-12
1.14901e-11
4.50813e-11
5.28431e-11
9.96755e-13
1.25259e-12
1.53618e-12
3.27048e-12
8.76394e-12
2.6238e-11
8.97072e-11
3.83156e-10
8.83554e-10
1.1155e-09
1.06836e-12
1.24066e-12
1.38507e-12
2.45801e-12
6.18232e-12
1.80846e-11
5.90995e-11
2.29991e-10
4.61053e-10
5.38625e-10
1.14188e-12
1.26531e-12
1.35735e-12
1.9718e-12
4.39999e-12
1.25679e-11
3.9809e-11
1.44317e-10
2.59327e-10
2.88422e-10
1.21379e-12
1.31429e-12
1.40503e-12
1.75533e-12
3.23074e-12
8.8071e-12
2.7287e-11
9.37589e-11
1.5406e-10
1.68539e-10
1.28626e-12
1.37659e-12
1.48497e-12
1.71225e-12
2.52826e-12
6.23662e-12
1.89579e-11
6.26272e-11
9.54174e-11
1.05728e-10
1.36125e-12
1.44669e-12
1.57501e-12
1.75784e-12
2.17636e-12
4.50403e-12
1.33114e-11
4.27756e-11
6.10278e-11
7.03578e-11
1.44132e-12
1.52277e-12
1.6666e-12
1.8395e-12
2.05808e-12
3.38677e-12
9.43394e-12
2.97374e-11
4.00032e-11
4.92113e-11
1.52952e-12
1.60522e-12
1.75763e-12
1.93163e-12
2.06749e-12
2.73394e-12
6.76294e-12
2.09673e-11
2.67125e-11
3.59108e-11
9.82383e-12
1.69641e-12
1.84905e-12
2.02443e-12
2.13332e-12
2.41699e-12
4.94126e-12
1.49548e-11
1.80832e-11
2.71742e-11
6.66488e-09
2.07059e-10
1.9418e-12
2.11277e-12
2.21429e-12
2.30558e-12
3.72932e-12
1.07593e-11
1.23066e-11
2.11384e-11
7.99964e-13
1.51645e-12
1.61174e-12
2.52185e-12
4.15661e-12
7.32677e-12
1.5211e-11
4.78104e-11
3.55585e-10
1.02569e-09
7.34219e-13
1.3624e-12
1.39911e-12
2.15616e-12
3.49349e-12
5.99412e-12
1.15911e-11
3.11606e-11
2.07563e-10
5.47678e-10
6.71188e-13
1.21856e-12
1.20544e-12
1.83363e-12
2.92901e-12
4.92253e-12
9.05297e-12
2.14089e-11
1.26679e-10
3.14863e-10
6.17187e-13
1.09634e-12
1.04433e-12
1.56881e-12
2.47325e-12
4.08599e-12
7.24392e-12
1.54806e-11
8.0352e-11
1.916e-10
5.70987e-13
9.92107e-13
9.10073e-13
1.35036e-12
2.10277e-12
3.42333e-12
5.90427e-12
1.16872e-11
5.26399e-11
1.21924e-10
5.31219e-13
9.02669e-13
7.97505e-13
1.16909e-12
1.79932e-12
2.89083e-12
4.88072e-12
9.13126e-12
3.54501e-11
8.04481e-11
4.96799e-13
8.25427e-13
7.02618e-13
1.0176e-12
1.54839e-12
2.45807e-12
4.08007e-12
7.3237e-12
2.44539e-11
5.47e-11
4.66852e-13
7.58325e-13
6.22215e-13
8.90202e-13
1.33969e-12
2.10327e-12
3.44161e-12
5.99155e-12
1.72299e-11
3.81485e-11
1.75472e-11
7.01224e-13
5.53806e-13
7.82652e-13
1.16509e-12
1.81004e-12
2.92519e-12
4.9762e-12
1.23733e-11
2.71904e-11
6.22386e-09
7.35731e-10
5.60714e-13
6.88272e-13
1.01471e-12
1.56056e-12
2.49432e-12
4.16736e-12
9.02146e-12
1.97246e-11
1.07726e-12
1.87127e-12
1.60984e-12
2.17875e-12
3.03962e-12
4.41505e-12
7.10475e-12
1.44362e-11
5.99261e-11
1.01897e-10
1.00359e-12
1.71599e-12
1.44349e-12
1.94022e-12
2.68587e-12
3.83872e-12
5.88535e-12
1.08156e-11
4.15023e-11
7.01908e-11
9.31729e-13
1.56674e-12
1.28299e-12
1.71404e-12
2.3585e-12
3.33539e-12
4.95417e-12
8.401e-12
2.90294e-11
4.93508e-11
8.6925e-13
1.43685e-12
1.14483e-12
1.5196e-12
2.07907e-12
2.91734e-12
4.24434e-12
6.77671e-12
2.06067e-11
3.53959e-11
8.14967e-13
1.32351e-12
1.02604e-12
1.35259e-12
1.84014e-12
2.56591e-12
3.68203e-12
5.63554e-12
1.48184e-11
2.58099e-11
7.67559e-13
1.22412e-12
9.23478e-13
1.20859e-12
1.63458e-12
2.26686e-12
3.22235e-12
4.79342e-12
1.07789e-11
1.9084e-11
7.25942e-13
1.13652e-12
8.34642e-13
1.08394e-12
1.45704e-12
2.01034e-12
2.83785e-12
4.14269e-12
7.92103e-12
1.42794e-11
6.89268e-13
1.059e-12
7.57428e-13
9.75677e-13
1.30313e-12
1.7888e-12
2.51119e-12
3.62026e-12
5.8753e-12
1.07938e-11
2.6893e-11
9.92457e-13
6.90149e-13
8.81446e-13
1.1693e-12
1.59672e-12
2.23101e-12
3.18862e-12
4.39626e-12
8.23102e-12
7.34616e-09
1.30711e-09
7.78275e-13
7.95559e-13
1.0495e-12
1.42521e-12
1.98243e-12
2.81509e-12
3.30224e-12
6.31022e-12
1.50465e-12
2.37601e-12
1.6189e-12
1.90848e-12
2.29076e-12
2.83634e-12
3.82083e-12
6.06778e-12
1.74455e-11
2.32404e-11
1.4231e-12
2.22311e-12
1.50286e-12
1.77377e-12
2.12857e-12
2.60891e-12
3.37755e-12
4.9689e-12
1.32437e-11
1.81214e-11
1.34235e-12
2.07144e-12
1.38066e-12
1.6311e-12
1.95895e-12
2.3905e-12
3.02194e-12
4.18689e-12
9.97064e-12
1.40827e-11
1.27087e-12
1.93581e-12
1.27037e-12
1.50079e-12
1.80362e-12
2.19755e-12
2.74124e-12
3.6387e-12
7.53032e-12
1.10025e-11
1.20764e-12
1.81437e-12
1.17148e-12
1.38276e-12
1.66224e-12
2.02475e-12
2.50857e-12
3.23805e-12
5.69927e-12
8.63343e-12
1.15148e-12
1.70532e-12
1.08282e-12
1.27599e-12
1.53337e-12
1.86808e-12
2.30732e-12
2.92867e-12
4.3171e-12
6.79736e-12
1.10143e-12
1.60713e-12
1.0033e-12
1.17942e-12
1.41594e-12
1.72518e-12
2.12865e-12
2.67638e-12
3.26911e-12
5.3644e-12
1.05668e-12
1.51845e-12
9.31936e-13
1.09214e-12
1.30904e-12
1.59453e-12
1.96716e-12
2.46149e-12
2.47209e-12
4.23927e-12
3.74654e-11
1.44157e-12
8.67902e-13
1.01334e-12
1.21184e-12
1.47512e-12
1.82005e-12
2.27264e-12
1.86583e-12
3.35107e-12
4.42101e-09
1.82537e-09
1.15015e-12
9.38274e-13
1.12061e-12
1.36216e-12
1.68032e-12
2.09625e-12
1.39252e-12
2.6394e-12
2.14194e-12
3.03083e-12
1.56709e-12
1.60887e-12
1.67034e-12
1.80036e-12
2.15059e-12
2.99725e-12
6.98558e-12
8.30872e-12
2.05471e-12
2.88998e-12
1.50913e-12
1.56578e-12
1.63704e-12
1.74783e-12
1.99389e-12
2.58722e-12
5.65476e-12
6.96816e-12
1.96746e-12
2.74554e-12
1.43474e-12
1.50231e-12
1.583e-12
1.68813e-12
1.8748e-12
2.29231e-12
4.46667e-12
5.73785e-12
1.88861e-12
2.6123e-12
1.36186e-12
1.43662e-12
1.5249e-12
1.63079e-12
1.78716e-12
2.09274e-12
3.5111e-12
4.72369e-12
1.81745e-12
2.48965e-12
1.29209e-12
1.37119e-12
1.46502e-12
1.57404e-12
1.71667e-12
1.95518e-12
2.74127e-12
3.88514e-12
1.75309e-12
2.3767e-12
1.22592e-12
1.30705e-12
1.40434e-12
1.51669e-12
1.65423e-12
1.8545e-12
2.11988e-12
3.18979e-12
1.69475e-12
2.27263e-12
1.16357e-12
1.24499e-12
1.34388e-12
1.45868e-12
1.59499e-12
1.77461e-12
1.61756e-12
2.61202e-12
1.64178e-12
2.17665e-12
1.10514e-12
1.18552e-12
1.28442e-12
1.40042e-12
1.53681e-12
1.70589e-12
1.21169e-12
2.13121e-12
4.9083e-11
2.0927e-12
1.05062e-12
1.129e-12
1.22664e-12
1.34264e-12
1.47919e-12
1.64306e-12
8.85271e-13
1.73112e-12
1.70283e-09
2.13781e-09
1.45341e-12
1.07167e-12
1.16826e-12
1.28248e-12
1.4178e-12
1.5779e-12
6.11734e-13
1.39605e-12
3.03171e-12
3.78804e-12
1.381e-12
1.21616e-12
1.06968e-12
1.00301e-12
1.13804e-12
1.55891e-12
3.49668e-12
3.83727e-12
2.94374e-12
3.67427e-12
1.38445e-12
1.25101e-12
1.12328e-12
1.03659e-12
1.08079e-12
1.36161e-12
3.001e-12
3.42167e-12
2.85557e-12
3.55342e-12
1.36489e-12
1.26008e-12
1.15435e-12
1.06692e-12
1.0578e-12
1.22496e-12
2.4746e-12
2.95087e-12
2.77407e-12
3.43785e-12
1.33786e-12
1.25715e-12
1.17246e-12
1.09345e-12
1.05852e-12
1.14484e-12
2.02326e-12
2.53991e-12
2.69896e-12
3.32805e-12
1.30642e-12
1.24599e-12
1.1806e-12
1.11424e-12
1.07081e-12
1.10564e-12
1.63674e-12
2.18131e-12
2.62975e-12
3.2241e-12
1.27221e-12
1.22873e-12
1.18045e-12
1.12807e-12
1.08608e-12
1.09187e-12
1.30553e-12
1.86872e-12
2.56591e-12
3.12591e-12
1.23648e-12
1.20707e-12
1.17364e-12
1.13501e-12
1.09974e-12
1.0919e-12
1.02191e-12
1.59671e-12
2.50702e-12
3.03331e-12
1.20016e-12
1.18239e-12
1.16163e-12
1.13578e-12
1.10962e-12
1.09802e-12
7.79514e-13
1.36092e-12
6.11341e-11
2.95212e-12
1.16392e-12
1.15573e-12
1.14574e-12
1.13139e-12
1.11512e-12
1.10569e-12
5.73953e-13
1.15789e-12
8.17404e-09
2.07341e-09
1.68573e-12
1.12445e-12
1.12456e-12
1.11994e-12
1.11293e-12
1.10831e-12
3.94113e-13
9.87152e-13
4.13232e-12
4.53501e-12
1.05432e-12
7.60229e-13
4.95037e-13
3.48224e-13
4.86794e-13
7.98131e-13
2.10738e-12
2.12763e-12
4.04997e-12
4.46305e-12
1.10106e-12
8.43096e-13
6.0079e-13
4.18475e-13
4.30331e-13
6.60667e-13
1.93872e-12
2.02247e-12
3.96845e-12
4.38362e-12
1.12526e-12
9.01685e-13
6.85078e-13
4.98674e-13
4.26859e-13
5.59788e-13
1.68999e-12
1.82681e-12
3.89139e-12
4.30363e-12
1.13795e-12
9.4453e-13
7.52157e-13
5.73587e-13
4.5926e-13
5.01666e-13
1.46762e-12
1.64929e-12
3.81886e-12
4.22441e-12
1.14246e-12
9.757e-13
8.06131e-13
6.40683e-13
5.09917e-13
4.84346e-13
1.27004e-12
1.48875e-12
3.75084e-12
4.14674e-12
1.14054e-12
9.97454e-13
8.48981e-13
6.98701e-13
5.65617e-13
4.97789e-13
1.09561e-12
1.34426e-12
3.68702e-12
4.07113e-12
1.13372e-12
1.01157e-12
8.82425e-13
7.47796e-13
6.19789e-13
5.29856e-13
9.43104e-13
1.21497e-12
3.62724e-12
3.99795e-12
1.12316e-12
1.01955e-12
9.08011e-13
7.88741e-13
6.69528e-13
5.70787e-13
8.11805e-13
1.10022e-12
7.24557e-11
3.93494e-12
1.1098e-12
1.02266e-12
9.2715e-13
8.22563e-13
7.13932e-13
6.1454e-13
7.01711e-13
9.99543e-13
1.51285e-08
1.56867e-09
1.58834e-12
1.01944e-12
9.39065e-13
8.48184e-13
7.50672e-13
6.55046e-13
6.11795e-13
9.18275e-13
5.23276e-12
5.12129e-12
7.65195e-13
4.99115e-13
2.71814e-13
1.54259e-13
2.68638e-13
4.47978e-13
1.51185e-12
1.38172e-12
5.15993e-12
5.09516e-12
7.84289e-13
5.3664e-13
3.10235e-13
1.24685e-13
1.65345e-13
3.44197e-13
1.50327e-12
1.40756e-12
5.09013e-12
5.06459e-12
7.97765e-13
5.72794e-13
3.60003e-13
1.61551e-13
7.77898e-14
2.47293e-13
1.39534e-12
1.33264e-12
5.02281e-12
5.02934e-12
8.08969e-13
6.06101e-13
4.09728e-13
2.19265e-13
4.45718e-14
1.59541e-13
1.29646e-12
1.26301e-12
4.95838e-12
4.99111e-12
8.18141e-13
6.36325e-13
4.57029e-13
2.79791e-13
1.07111e-13
8.7463e-14
1.20652e-12
1.1986e-12
4.89695e-12
4.95093e-12
8.24873e-13
6.62725e-13
5.0005e-13
3.36748e-13
1.75335e-13
6.26558e-14
1.12518e-12
1.13927e-12
4.83851e-12
4.90968e-12
8.29105e-13
6.85143e-13
5.38291e-13
3.88599e-13
2.3846e-13
1.05598e-13
1.05218e-12
1.08491e-12
4.78302e-12
4.86796e-12
8.30947e-13
7.03732e-13
5.71779e-13
4.35115e-13
2.95868e-13
1.63644e-13
9.87266e-13
1.03547e-12
8.14598e-11
4.83513e-12
8.30724e-13
7.18925e-13
6.00936e-13
4.76706e-13
3.48077e-13
2.21009e-13
9.30253e-13
9.90792e-13
2.13101e-08
8.63334e-10
1.10459e-12
7.29994e-13
6.2541e-13
5.13286e-13
3.95319e-13
2.75678e-13
8.81466e-13
9.59104e-13
5.95717e-12
5.42629e-12
7.36995e-13
6.10913e-13
5.11367e-13
4.42473e-13
4.00523e-13
3.82254e-13
1.26506e-12
1.06636e-12
5.89134e-12
5.43139e-12
6.61941e-13
5.50193e-13
4.59081e-13
3.94632e-13
3.5528e-13
3.39739e-13
1.33115e-12
1.14887e-12
5.83074e-12
5.43589e-12
5.94578e-13
4.95533e-13
4.11758e-13
3.50475e-13
3.12213e-13
2.97563e-13
1.28848e-12
1.12546e-12
5.77166e-12
5.43396e-12
5.38164e-13
4.49656e-13
3.71796e-13
3.12515e-13
2.73902e-13
2.58671e-13
1.24789e-12
1.10294e-12
5.71458e-12
5.42724e-12
4.92404e-13
4.12715e-13
3.39755e-13
2.81469e-13
2.41093e-13
2.23517e-13
1.20926e-12
1.08134e-12
5.65968e-12
5.41683e-12
4.55685e-13
3.8362e-13
3.14967e-13
2.57192e-13
2.14127e-13
1.92474e-13
1.17255e-12
1.06062e-12
5.60697e-12
5.40357e-12
4.26493e-13
3.61245e-13
2.96709e-13
2.39531e-13
1.93429e-13
1.66105e-13
1.13764e-12
1.04077e-12
5.55657e-12
5.38818e-12
4.03558e-13
3.44535e-13
2.8416e-13
2.28006e-13
1.79168e-13
1.45284e-13
1.10451e-12
1.02173e-12
8.64674e-11
5.38088e-12
3.85888e-13
3.32692e-13
2.76616e-13
2.2218e-13
1.71637e-13
1.31242e-13
1.07304e-12
1.00353e-12
2.50738e-08
5.5865e-10
4.95394e-13
3.25299e-13
2.74725e-13
2.24101e-13
1.75183e-13
1.32774e-13
1.04432e-12
1.00461e-12
5.96433e-12
5.39668e-12
7.5088e-13
6.37094e-13
5.40885e-13
4.66859e-13
4.12079e-13
3.75458e-13
1.19396e-12
1.01755e-12
5.89826e-12
5.40402e-12
6.62311e-13
5.67298e-13
4.84552e-13
4.19961e-13
3.71965e-13
3.40727e-13
1.27007e-12
1.10385e-12
5.83785e-12
5.41135e-12
5.81986e-13
5.02849e-13
4.31444e-13
3.7466e-13
3.31976e-13
3.04459e-13
1.23557e-12
1.08417e-12
5.77908e-12
5.41223e-12
5.12655e-13
4.46348e-13
3.84232e-13
3.33781e-13
2.9528e-13
2.70635e-13
1.20255e-12
1.06531e-12
5.72238e-12
5.40827e-12
4.54397e-13
3.98235e-13
3.43537e-13
2.97917e-13
2.62339e-13
2.39441e-13
1.17088e-12
1.04726e-12
5.66785e-12
5.40053e-12
4.05956e-13
3.57828e-13
3.09013e-13
2.67042e-13
2.33274e-13
2.10996e-13
1.14056e-12
1.03001e-12
5.61556e-12
5.38981e-12
3.66217e-13
3.24449e-13
2.80381e-13
2.41115e-13
2.08268e-13
1.85597e-13
1.11149e-12
1.01352e-12
5.56557e-12
5.37686e-12
3.34222e-13
2.97545e-13
2.57351e-13
2.20125e-13
1.87521e-13
1.63552e-13
1.08367e-12
9.97774e-13
8.64688e-11
5.37187e-12
3.0929e-13
2.76714e-13
2.39808e-13
2.04287e-13
1.71597e-13
1.45567e-13
1.05703e-12
9.82749e-13
2.50738e-08
5.5865e-10
4.12463e-13
2.62024e-13
2.29383e-13
1.96948e-13
1.66088e-13
1.40199e-13
1.03269e-12
9.95777e-13
5.24467e-12
5.04115e-12
7.39186e-13
5.15839e-13
3.32908e-13
2.29235e-13
2.63701e-13
3.84345e-13
1.26679e-12
1.22098e-12
5.17338e-12
5.02349e-12
7.32995e-13
5.22261e-13
3.35649e-13
1.95199e-13
1.83478e-13
2.98528e-13
1.29243e-12
1.25931e-12
5.10562e-12
5.00198e-12
7.30361e-13
5.36562e-13
3.5631e-13
1.97669e-13
1.19393e-13
2.14188e-13
1.21364e-12
1.19742e-12
5.04027e-12
4.97537e-12
7.30897e-13
5.54365e-13
3.84778e-13
2.24092e-13
9.03487e-14
1.35403e-13
1.14158e-12
1.14038e-12
4.97768e-12
4.94528e-12
7.33595e-13
5.74042e-13
4.17122e-13
2.63112e-13
1.13861e-13
6.42952e-14
1.07621e-12
1.08812e-12
4.91791e-12
4.91273e-12
7.3694e-13
5.93587e-13
4.49861e-13
3.05747e-13
1.61073e-13
2.63626e-14
1.01739e-12
1.04059e-12
4.86101e-12
4.87857e-12
7.39981e-13
6.11854e-13
4.81132e-13
3.47809e-13
2.12008e-13
7.65295e-14
9.64885e-13
9.97631e-13
4.80693e-12
4.84341e-12
7.42212e-13
6.28272e-13
5.10037e-13
3.87527e-13
2.61206e-13
1.33466e-13
9.18503e-13
9.5917e-13
8.14633e-11
4.8167e-12
7.4347e-13
6.42686e-13
5.36344e-13
4.24394e-13
3.07436e-13
1.87522e-13
8.78118e-13
9.2516e-13
2.13101e-08
8.63337e-10
1.0163e-12
6.53996e-13
5.59247e-13
4.57838e-13
3.50597e-13
2.39378e-13
8.44279e-13
9.14046e-13
4.14038e-12
4.43299e-12
9.35942e-13
6.54388e-13
3.94104e-13
2.16236e-13
3.34222e-13
6.10338e-13
1.56504e-12
1.78307e-12
4.06405e-12
4.37741e-12
9.83056e-13
7.33506e-13
4.98172e-13
3.05133e-13
2.92402e-13
4.99388e-13
1.47535e-12
1.71131e-12
3.98792e-12
4.31318e-12
1.01251e-12
7.94175e-13
5.8403e-13
3.96276e-13
3.05087e-13
4.1647e-13
1.29554e-12
1.54846e-12
3.91528e-12
4.24679e-12
1.03178e-12
8.4089e-13
6.53443e-13
4.76878e-13
3.51613e-13
3.72987e-13
1.13413e-12
1.40107e-12
3.84648e-12
4.17971e-12
1.0435e-12
8.77131e-13
7.10624e-13
5.47881e-13
4.12182e-13
3.69141e-13
9.90786e-13
1.26842e-12
3.78148e-12
4.11284e-12
1.04903e-12
9.04593e-13
7.57397e-13
6.093e-13
4.74422e-13
3.94258e-13
8.64892e-13
1.14986e-12
3.72018e-12
4.04683e-12
1.04955e-12
9.24726e-13
7.95296e-13
6.61825e-13
5.33191e-13
4.35357e-13
7.56173e-13
1.04483e-12
3.66244e-12
3.98217e-12
1.046e-12
9.38784e-13
8.25685e-13
7.06395e-13
5.86681e-13
4.82861e-13
6.64681e-13
9.52904e-13
7.24604e-11
3.92679e-12
1.03929e-12
9.47888e-13
8.4975e-13
7.44061e-13
6.34496e-13
5.31485e-13
5.90903e-13
8.73874e-13
1.51285e-08
1.56867e-09
1.52544e-12
9.50421e-13
8.66614e-13
7.73703e-13
6.74685e-13
5.76164e-13
5.34361e-13
8.17165e-13
3.04096e-12
3.69768e-12
1.22345e-12
1.03818e-12
8.78033e-13
7.88797e-13
8.6612e-13
1.17222e-12
2.3076e-12
3.06697e-12
2.9625e-12
3.60654e-12
1.24782e-12
1.09203e-12
9.49356e-13
8.45931e-13
8.51179e-13
1.04781e-12
2.01754e-12
2.75667e-12
2.88159e-12
3.50448e-12
1.24794e-12
1.12006e-12
9.98029e-13
8.95836e-13
8.592e-13
9.64693e-13
1.66559e-12
2.37803e-12
2.80562e-12
3.40466e-12
1.23825e-12
1.13436e-12
1.03214e-12
9.38558e-13
8.82653e-13
9.24186e-13
1.35883e-12
2.04654e-12
2.7347e-12
3.30806e-12
1.22208e-12
1.1389e-12
1.05514e-12
9.73632e-13
9.12536e-13
9.1416e-13
1.09252e-12
1.75682e-12
2.66864e-12
3.21521e-12
1.20123e-12
1.13587e-12
1.06884e-12
1.00056e-12
9.42248e-13
9.22151e-13
8.61391e-13
1.50413e-12
2.60715e-12
3.12631e-12
1.17714e-12
1.12703e-12
1.07488e-12
1.01977e-12
9.6843e-13
9.3905e-13
6.61167e-13
1.28465e-12
2.54992e-12
3.04149e-12
1.1509e-12
1.11377e-12
1.07473e-12
1.03207e-12
9.89709e-13
9.58885e-13
4.8862e-13
1.09517e-12
6.11389e-11
2.96689e-12
1.12338e-12
1.09733e-12
1.06973e-12
1.03855e-12
1.00587e-12
9.78338e-13
3.42718e-13
9.33497e-13
8.17405e-09
2.07342e-09
1.65118e-12
1.0751e-12
1.05846e-12
1.03731e-12
1.01386e-12
9.91707e-13
2.13767e-13
8.0108e-13
2.16261e-12
2.97343e-12
1.41175e-12
1.38963e-12
1.39155e-12
1.44808e-12
1.64961e-12
2.1592e-12
4.01971e-12
6.23806e-12
2.08478e-12
2.85719e-12
1.38696e-12
1.3843e-12
1.39904e-12
1.44739e-12
1.58739e-12
1.94508e-12
3.33155e-12
5.28341e-12
2.00364e-12
2.73117e-12
1.3399e-12
1.35344e-12
1.3811e-12
1.43045e-12
1.53644e-12
1.78772e-12
2.65344e-12
4.36053e-12
1.92898e-12
2.61242e-12
1.28945e-12
1.3154e-12
1.35422e-12
1.40875e-12
1.49953e-12
1.68483e-12
2.09727e-12
3.59434e-12
1.86063e-12
2.50109e-12
1.23809e-12
1.27348e-12
1.32154e-12
1.38271e-12
1.46884e-12