/*--------------------------------*- C++ -*----------------------------------*\
| =========                 |                                                 |
| \\      /  F ield         | OpenFOAM: The Open Source CFD Toolbox           |
|  \\    /   O peration     | Version:  4.1                                   |
|   \\  /    A nd           | Web:      www.OpenFOAM.org                      |
|    \\/     M anipulation  |                                                 |
\*---------------------------------------------------------------------------*/
FoamFile
{
    version     2.0;
    format      ascii;
    class       surfaceScalarField;
    location    "0.02";
    object      phi;
}
// * * * * * * * * * * * * * * * * * * * * * * * * * * * * * * * * * * * * * //

dimensions      [1 0 -1 0 0 0 0];

internalField   nonuniform List<scalar> 
51500
(
3.724e-13
8.2604e-15
1.60459e-11
-2.39272e-15
1.48766e-14
1.58563e-11
-1.80809e-15
1.50186e-14
1.56696e-11
-1.79847e-15
1.45612e-14
1.5485e-11
-1.78207e-15
1.38755e-14
1.5303e-11
-1.76429e-15
1.30757e-14
1.51235e-11
-1.7523e-15
1.22058e-14
1.49466e-11
-1.73265e-15
1.12903e-14
1.47721e-11
-1.68672e-15
1.03352e-14
1.46e-11
9.34881e-15
1.44312e-11
-8.06646e-17
3.79921e-13
5.23367e-15
2.02984e-11
-8.62471e-15
8.47964e-15
1.95456e-11
-7.30087e-15
7.29935e-15
1.88276e-11
-7.10835e-15
6.17593e-15
1.81403e-11
-6.912e-15
5.11818e-15
1.74835e-11
-6.72461e-15
4.12074e-15
1.68557e-11
-6.54361e-15
3.17939e-15
1.62555e-11
-6.37185e-15
2.29014e-15
1.56813e-11
-5.86124e-15
1.44895e-15
1.5132e-11
6.54196e-16
1.46087e-11
-6.90637e-16
3.86541e-13
6.3781e-15
2.60271e-11
-1.66532e-14
8.62127e-15
2.43513e-11
-1.46313e-14
7.05221e-15
2.28076e-11
-1.39331e-14
5.69436e-15
2.13797e-11
-1.32662e-14
4.50757e-15
2.00602e-11
-1.26427e-14
3.46624e-15
1.88395e-11
-1.20671e-14
2.54704e-15
1.77091e-11
-1.15278e-14
1.72755e-15
1.66611e-11
-1.02746e-14
9.93406e-16
1.56886e-11
3.5719e-16
1.47892e-11
-1.36414e-15
3.91384e-13
7.8836e-15
3.38777e-11
-2.70194e-14
1.0478e-14
3.0696e-11
-2.41994e-14
8.31357e-15
2.78751e-11
-2.24958e-14
6.52487e-15
2.53618e-11
-2.0933e-14
5.03171e-15
2.31213e-11
-1.95273e-14
3.77981e-15
2.11194e-11
-1.82525e-14
2.72193e-15
1.93267e-11
-1.71013e-14
1.81513e-15
1.77179e-11
-1.48832e-14
1.02751e-15
1.62711e-11
3.65307e-16
1.49729e-11
-2.07668e-15
3.92828e-13
9.89958e-15
4.48393e-11
-4.04933e-14
1.29273e-14
3.91946e-11
-3.6715e-14
9.92589e-15
3.43978e-11
-3.32615e-14
7.5482e-15
3.02955e-11
-3.02092e-14
5.65203e-15
2.67778e-11
-2.75365e-14
4.13722e-15
2.37489e-11
-2.51894e-14
2.91401e-15
2.11306e-11
-2.31225e-14
1.90755e-15
1.8859e-11
-1.96929e-14
1.06394e-15
1.6881e-11
3.74269e-16
1.51597e-11
-2.82695e-15
3.87993e-13
1.26582e-14
6.0469e-11
-5.82249e-14
1.60956e-14
5.07618e-11
-5.24474e-14
1.19943e-14
4.28938e-11
-4.68422e-14
8.81766e-15
3.64606e-11
-4.14582e-14
6.39264e-15
3.1171e-11
-3.68749e-14
4.54556e-15
2.67928e-11
-3.29712e-14
3.12498e-15
2.31466e-11
-2.96376e-14
2.00641e-15
2.00923e-11
-2.47188e-14
1.10205e-15
1.75198e-11
3.83045e-16
1.53499e-11
-3.6234e-15
3.71449e-13
1.65228e-14
8.32868e-11
-9.85157e-14
1.95239e-14
6.67871e-11
-7.16626e-14
1.45231e-14
5.41042e-11
-6.31417e-14
1.02959e-14
4.42351e-11
-5.51382e-14
7.20922e-15
3.64818e-11
-4.77911e-14
4.97137e-15
3.03302e-11
-4.17191e-14
3.33411e-15
2.54046e-11
-3.66891e-14
2.10029e-15
2.14269e-11
-2.99742e-14
1.13949e-15
1.81891e-11
4.36549e-16
1.55434e-11
-4.46648e-15
3.31879e-13
2.16376e-14
1.17503e-10
-1.50362e-13
2.36003e-14
8.9431e-11
-9.64636e-14
1.71717e-14
6.91076e-11
-8.26074e-14
1.24359e-14
5.41363e-11
-7.14626e-14
8.90065e-15
4.29446e-11
-6.05832e-14
6.21914e-15
3.44582e-11
-5.15743e-14
4.15785e-15
2.79395e-11
-4.43306e-14
2.55318e-15
2.28725e-11
-3.54654e-14
1.29189e-15
1.88906e-11
2.91758e-16
1.57403e-11
-5.35878e-15
3.96402e-13
-2.76441e-11
1.69702e-10
-5.29608e-14
-2.7988e-11
1.21541e-10
-4.7685e-14
-2.79182e-11
8.90117e-11
-3.50848e-14
-2.78537e-11
6.6486e-11
-2.59769e-14
-2.77948e-11
5.05532e-11
-1.9289e-14
-2.77409e-11
3.90609e-11
-1.43205e-14
-2.76916e-11
3.06248e-11
-1.05845e-14
-2.76465e-11
2.43341e-11
-7.70803e-15
-2.7605e-11
1.95754e-11
-2.75797e-11
1.59403e-11
-6.30268e-15
-1.28014e-11
5.32181e-09
-9.22313e-07
-2.12643e-12
4.36678e-09
-9.39427e-07
-3.07004e-13
3.71724e-09
-9.40945e-07
9.68441e-13
3.20382e-09
-9.42205e-07
1.87215e-12
2.79042e-09
-9.43268e-07
2.515e-12
2.45235e-09
-9.44175e-07
2.97179e-12
2.17219e-09
-9.44957e-07
2.70394e-12
1.93733e-09
-9.45638e-07
4.98286e-12
1.73847e-09
-9.46237e-07
1.56873e-09
-7.29907e-15
-9.4759e-07
3.45518e-13
9.60366e-14
2.48135e-14
-2.20549e-14
9.01009e-14
2.38041e-14
-2.58596e-14
7.92698e-14
2.29766e-14
-2.55829e-14
6.87971e-14
2.15887e-14
-2.53388e-14
5.86874e-14
2.037e-14
-2.50911e-14
4.89289e-14
1.93457e-14
-2.48645e-14
3.95089e-14
1.84075e-14
-2.46898e-14
3.04141e-14
1.7697e-14
-2.76477e-14
2.16283e-14
1.70939e-14
1.31695e-14
1.65668e-14
-1.54e-15
2.82149e-13
8.5423e-14
3.65e-14
-7.82028e-14
7.68697e-14
3.40338e-14
-8.92552e-14
6.48717e-14
3.27737e-14
-8.66181e-14
5.32585e-14
2.9606e-14
-8.41033e-14
4.21723e-14
2.68567e-14
-8.16857e-14
3.18976e-14
2.44465e-14
-7.93741e-14
2.27352e-14
2.24125e-14
-7.73297e-14
1.48232e-14
2.07218e-14
-8.46017e-14
8.14951e-15
1.93269e-14
2.67591e-15
1.77582e-14
-4.38603e-15
1.863e-13
1.12102e-13
5.18664e-14
-1.98187e-13
9.92777e-14
4.77974e-14
-1.71057e-13
8.3065e-14
4.57244e-14
-1.62515e-13
6.81685e-14
4.0172e-14
-1.54582e-13
5.46138e-14
3.54528e-14
-1.47125e-13
4.23325e-14
3.14609e-14
-1.4015e-13
3.1234e-14
2.80989e-14
-1.3393e-13
2.12305e-14
2.52664e-14
-1.43819e-13
1.2228e-14
2.28971e-14
4.14884e-15
1.98768e-14
-7.29972e-15
5.74875e-14
1.38483e-13
7.78864e-14
-3.40852e-13
1.19323e-13
7.11811e-14
-2.76818e-13
9.748e-14
6.63293e-14
-2.57044e-13
7.81362e-14
5.65926e-14
-2.39119e-13
6.11829e-14
4.85701e-14
-2.22793e-13
4.63837e-14
4.19137e-14
-2.07877e-13
3.35012e-14
3.64606e-14
-1.94737e-13
2.23097e-14
3.19348e-14
-2.05305e-13
1.26004e-14
2.81341e-14
4.19998e-15
2.30272e-14
-1.02854e-14
-8.30646e-14
1.73106e-13
1.21431e-13
-5.24696e-13
1.44842e-13
1.09598e-13
-4.13561e-13
1.15278e-13
9.82602e-14
-3.74609e-13
9.00717e-14
8.12573e-14
-3.40354e-13
6.88122e-14
6.76875e-14
-3.10063e-13
5.09525e-14
5.67806e-14
-2.83167e-13
3.59846e-14
4.80348e-14
-2.59911e-13
2.34596e-14
4.09514e-14
-2.69132e-13
1.29913e-14
3.52088e-14
4.25373e-15
2.72121e-14
-1.33461e-14
-3.26244e-13
2.19154e-13
1.95053e-13
-7.68172e-13
1.77716e-13
1.72447e-13
-5.904e-13
1.37458e-13
1.47478e-13
-5.20703e-13
1.04455e-13
1.17754e-13
-4.61371e-13
7.77118e-14
9.49884e-14
-4.10501e-13
5.61189e-14
7.73448e-14
-3.66662e-13
3.8713e-14
6.36561e-14
-3.29572e-13
2.4688e-14
5.28489e-14
-3.35393e-13
1.33954e-14
4.42989e-14
4.30626e-15
3.25056e-14
-1.64723e-14
-7.68931e-13
2.81108e-13
3.21103e-13
-1.09578e-12
2.20578e-13
2.76014e-13
-8.19005e-13
1.65376e-13
2.23401e-13
-7.0195e-13
1.21922e-13
1.71593e-13
-6.05672e-13
8.81517e-14
1.33662e-13
-5.25754e-13
6.19844e-14
1.05434e-13
-4.58983e-13
4.17121e-14
8.42016e-14
-4.0383e-13
2.60016e-14
6.81113e-14
-4.0417e-13
1.38156e-14
5.56129e-14
4.36036e-15
3.89889e-14
-1.96796e-14
-1.38101e-12
2.81463e-13
5.4194e-13
-1.54163e-12
3.05654e-13
4.48002e-13
-1.11361e-12
2.20581e-13
3.41177e-13
-9.25957e-13
1.57691e-13
2.50945e-13
-7.77023e-13
1.11284e-13
1.8798e-13
-6.57488e-13
7.6852e-14
1.43214e-13
-5.60618e-13
5.10822e-14
1.10916e-13
-4.82715e-13
3.15451e-14
8.71767e-14
-4.75541e-13
1.63443e-14
6.94196e-14
3.81684e-15
4.67106e-14
-2.29506e-14
-2.3021e-12
1.75354e-12
9.67478e-13
-2.15318e-12
1.02255e-12
7.33766e-13
-1.48924e-12
7.81092e-13
5.22466e-13
-1.20032e-12
5.94554e-13
3.65828e-13
-9.78916e-13
4.46224e-13
2.62661e-13
-8.06996e-13
3.25447e-13
1.92816e-13
-6.71888e-13
2.25096e-13
1.44539e-13
-5.66114e-13
1.40266e-13
1.10436e-13
-5.49657e-13
6.74898e-14
8.57533e-14
4.51444e-15
5.56415e-14
-2.62921e-14
-2.58384e-11
1.39237e-10
1.46391e-08
-1.63191e-11
6.84764e-12
-1.24077e-10
-1.4815e-11
4.61385e-12
-1.16165e-10
-1.34879e-11
3.31281e-12
-1.08593e-10
-1.24018e-11
2.45878e-12
-1.01702e-10
-1.14947e-11
1.88673e-12
-9.54915e-11
-1.07241e-11
1.49769e-12
-8.99184e-11
-1.00602e-11
1.2301e-12
-8.49274e-11
-9.4853e-12
1.04474e-12
-8.04635e-11
8.91358e-13
-2.97724e-14
-6.82966e-11
3.50193e-13
8.12104e-14
7.89091e-15
-1.87063e-14
7.71441e-14
6.92377e-15
-1.77267e-14
6.8094e-14
6.17268e-15
-1.7471e-14
5.93253e-14
4.92647e-15
-1.72345e-14
5.0847e-14
3.81742e-15
-1.70624e-14
4.26495e-14
2.81071e-15
-1.68313e-14
3.473e-14
1.84744e-15
-1.67513e-14
2.70739e-14
1.10672e-15
-2.32603e-14
1.96713e-14
5.8734e-16
1.25409e-14
2.82297e-16
-1.52959e-15
2.993e-13
5.8026e-14
1.31434e-14
-6.6176e-14
5.33544e-14
1.16036e-14
-6.08429e-14
4.51824e-14
1.14288e-14
-5.89325e-14
3.74912e-14
9.01993e-15
-5.71675e-14
3.03074e-14
7.10899e-15
-5.544e-14
2.36331e-14
5.67351e-15
-5.3802e-14
1.74738e-14
4.56141e-15
-5.25172e-14
1.18421e-14
3.39585e-15
-7.11375e-14
6.76557e-15
2.78421e-15
2.34347e-15
1.75916e-15
-4.39037e-15
2.22008e-13
7.38131e-14
1.89022e-14
-1.6552e-13
6.65095e-14
1.76431e-14
-1.16197e-13
5.56881e-14
1.83473e-14
-1.10267e-13
4.58028e-14
1.48503e-14
-1.04799e-13
3.68075e-14
1.20508e-14
-9.96583e-14
2.86253e-14
9.82672e-15
-9.4871e-14
2.11936e-14
8.13232e-15
-9.08395e-14
1.44618e-14
6.87008e-15
-1.2091e-13
8.37501e-15
5.94262e-15
2.91454e-15
4.27204e-15
-7.31164e-15
1.00045e-13
9.16218e-14
3.09076e-14
-2.88311e-13
8.00626e-14
3.05676e-14
-1.87515e-13
6.54031e-14
3.14295e-14
-1.7397e-13
5.25375e-14
2.56971e-14
-1.6176e-13
4.12712e-14
2.11881e-14
-1.50628e-13
3.14029e-14
1.76298e-14
-1.40473e-13
2.27674e-14
1.48631e-14
-1.31872e-13
1.52248e-14
1.273e-14
-1.72571e-13
8.65703e-15
1.11326e-14
2.96898e-15
7.6384e-15
-1.03186e-14
-1.58519e-14
1.15285e-13
5.33144e-14
-4.43749e-13
9.7396e-14
5.46773e-14
-2.79262e-13
7.742e-14
5.38838e-14
-2.52827e-13
6.06046e-14
4.39457e-14
-2.29655e-13
4.64564e-14
3.61838e-14
-2.0915e-13
3.4536e-14
3.01365e-14
-1.90964e-13
2.44955e-14
2.53793e-14
-1.75596e-13
1.6046e-14
2.17239e-14
-2.2619e-13
8.95472e-15
1.88463e-14
3.02703e-15
1.25939e-14
-1.33888e-14
-1.49894e-13
1.47298e-13
9.40084e-14
-6.46794e-13
1.19886e-13
9.78291e-14
-3.97413e-13
9.24338e-14
9.11384e-14
-3.50403e-13
7.03408e-14
7.33013e-14
-3.10472e-13
5.25154e-14
5.9585e-14
-2.76209e-13
3.80872e-14
4.90425e-14
-2.46723e-13
2.63943e-14
4.08329e-14
-2.22105e-13
1.69245e-14
3.45138e-14
-2.81837e-13
9.26076e-15
2.94629e-14
3.08514e-15
1.92687e-14
-1.6538e-14
-5.53506e-13
1.91519e-13
1.67056e-13
-9.16043e-13
1.49491e-13
1.73125e-13
-5.49983e-13
1.11401e-13
1.51907e-13
-4.71272e-13
8.21861e-14
1.19306e-13
-4.06648e-13
5.96303e-14
9.49083e-14
-3.53009e-13
4.21226e-14
7.6513e-14
-3.08193e-13
2.84906e-14
6.25367e-14
-2.71527e-13
1.78626e-14
5.18127e-14
-3.39561e-13
9.58574e-15
4.34529e-14
3.14641e-15
2.77673e-14
-1.97644e-14
-1.07543e-12
2.45336e-13
2.98411e-13
-1.2744e-12
1.8967e-13
3.0341e-13
-7.48071e-13
1.36314e-13
2.50094e-13
-6.21454e-13
9.74412e-14
1.90142e-13
-5.2125e-13
6.88333e-14
1.47065e-13
-4.40951e-13
4.75845e-14
1.15575e-13
-3.75973e-13
3.17201e-14
9.22252e-14
-3.23959e-13
1.98696e-14
7.4708e-14
-3.99429e-13
1.10475e-14
6.13114e-14
4.15416e-15
3.83172e-14
-2.30701e-14
-1.85332e-12
8.38503e-13
5.79615e-13
-1.7425e-12
3.55521e-13
5.28875e-13
-1.00742e-12
2.50723e-13
4.08031e-13
-8.08939e-13
1.68367e-13
2.98562e-13
-6.58183e-13
1.12153e-13
2.23126e-13
-5.41792e-13
7.30487e-14
1.70114e-13
-4.50699e-13
4.517e-14
1.32048e-13
-3.79633e-13
2.52928e-14
1.04241e-13
-4.61484e-13
1.17602e-14
8.35338e-14
3.04285e-15
5.12068e-14
-2.64508e-14
-1.08384e-11
1.91558e-10
1.49641e-08
-1.71602e-12
1.47695e-12
1.99122e-12
-1.38498e-12
7.91616e-13
1.49112e-12
-1.07363e-12
5.50768e-13
1.34792e-12
-8.4685e-13
3.93566e-13
1.20557e-12
-6.78367e-13
2.88018e-13
1.0553e-12
-5.50904e-13
2.15318e-13
8.61083e-13
-4.54032e-13
1.64211e-13
5.83269e-13
-5.3863e-13
1.27237e-13
5.16427e-13
7.74198e-14
-2.99793e-14
4.92468e-13
3.50052e-13
8.12636e-14
1.26064e-14
-1.8892e-14
7.71905e-14
1.08984e-14
-1.78678e-14
6.8131e-14
9.91893e-15
-1.75763e-14
5.93542e-14
7.49656e-15
-1.73503e-14
5.08711e-14
5.18345e-15
-1.71219e-14
4.26734e-14
3.64649e-15
-1.68845e-14
3.47524e-14
2.27979e-15
-1.67897e-14
2.70968e-14
1.27935e-15
-2.32714e-14
1.96972e-14
6.69467e-16
1.2568e-14
2.23458e-16
-1.54434e-15
2.99117e-13
5.80841e-14
2.22032e-14
-6.63912e-14
5.34081e-14
1.94057e-14
-6.10023e-14
4.52275e-14
1.9154e-14
-5.90468e-14
3.75335e-14
1.48854e-14
-5.72507e-14
3.03471e-14
1.14022e-14
-5.5503e-14
2.36697e-14
8.56818e-15
-5.38469e-14
1.751e-14
6.3641e-15
-5.25164e-14
1.18785e-14
4.89057e-15
-7.11497e-14
6.79974e-15
3.62038e-15
2.37635e-15
2.172e-15
-4.39037e-15
2.21743e-13
7.39149e-14
3.10405e-14
-1.65942e-13
6.66055e-14
2.98249e-14
-1.16362e-13
5.57708e-14
3.11707e-14
-1.10397e-13
4.58748e-14
2.49743e-14
-1.04903e-13
3.68737e-14
2.00075e-14
-9.97235e-14
2.86893e-14
1.62352e-14
-9.49011e-14
2.12563e-14
1.32927e-14
-9.08647e-14
1.45209e-14
1.11777e-14
-1.20924e-13
8.43774e-15
9.60374e-15
2.97372e-15
6.22192e-15
-7.31468e-15
9.97852e-14
9.18055e-14
5.04809e-14
-2.88879e-13
8.02304e-14
5.19151e-14
-1.8776e-13
6.55485e-14
5.3685e-14
-1.74158e-13
5.2665e-14
4.36709e-14
-1.61906e-13
4.13855e-14
3.59965e-14
-1.50731e-13
3.15083e-14
3.01381e-14
-1.40554e-13
2.28639e-14
2.52121e-14
-1.31902e-13
1.53181e-14
2.17274e-14
-1.72652e-13
8.74402e-15
1.88474e-14
3.05188e-15
1.24921e-14
-1.03264e-14
-1.63356e-14
1.15595e-13
8.76356e-14
-4.44627e-13
9.7675e-14
9.33802e-14
-2.79672e-13
7.76536e-14
9.16962e-14
-2.53156e-13
6.08066e-14
7.48309e-14
-2.29909e-13
4.66329e-14
6.16398e-14
-2.0937e-13
3.46931e-14
5.13458e-14
-1.91119e-13
2.46372e-14
4.35295e-14
-1.75722e-13
1.61748e-14
3.72279e-14
-2.26393e-13
9.06988e-15
3.23179e-14
3.13353e-15
2.16596e-14
-1.33901e-14
-1.50688e-13
1.47806e-13
1.55384e-13
-6.48263e-13
1.20325e-13
1.66455e-13
-3.98129e-13
9.27957e-14
1.54457e-13
-3.51007e-13
7.06452e-14
1.24136e-13
-3.10957e-13
5.27733e-14
1.00932e-13
-2.76626e-13
3.8307e-14
8.30273e-14
-2.47047e-13
2.65856e-14
6.92043e-14
-2.224e-13
1.70903e-14
5.83268e-14
-2.82238e-13
9.40856e-15
4.98835e-14
3.21338e-15
3.30283e-14
-1.65579e-14
-5.55957e-13
1.92338e-13
2.77319e-13
-9.18518e-13
1.50172e-13
2.93401e-13
-5.51277e-13
1.11947e-13
2.55706e-13
-4.72359e-13
8.26244e-14
2.00328e-13
-4.07547e-13
5.99914e-14
1.5908e-13
-3.53753e-13
4.24236e-14
1.28265e-13
-3.08818e-13
2.87424e-14
1.04561e-13
-2.72053e-13
1.80758e-14
8.64214e-14
-3.40283e-13
9.76592e-15
7.23484e-14
3.29873e-15
4.71745e-14
-1.9786e-14
-1.08024e-12
2.46662e-13
4.96497e-13
-1.27851e-12
1.90705e-13
5.11338e-13
-7.50397e-13
1.37109e-13
4.1772e-13
-6.23332e-13
9.80658e-14
3.16797e-13
-5.22797e-13
6.93273e-14
2.44132e-13
-4.42233e-13
4.79812e-14
1.91229e-13
-3.7704e-13
3.20406e-14
1.51785e-13
-3.24852e-13
2.01266e-14
1.2245e-13
-4.00601e-13
1.12597e-14
9.99401e-14
4.35487e-15
6.39362e-14
-2.31033e-14
-1.86257e-12
8.37542e-13
9.60651e-13
-1.74898e-12
3.33027e-13
8.86203e-13
-1.01141e-12
2.42163e-13
6.77328e-13
-8.12121e-13
1.60007e-13
4.92876e-13
-6.60736e-13
1.03014e-13
3.66348e-13
-5.43873e-13
5.85003e-14
2.77454e-13
-4.52412e-13
2.9736e-14
2.14e-13
-3.81045e-13
1.64421e-14
1.67721e-13
-4.63247e-13
8.52857e-15
1.33458e-13
2.90687e-15
8.34679e-14
-2.65072e-14
-1.08179e-11
2.66041e-10
1.49994e-08
-1.69368e-12
1.99586e-12
6.01802e-13
-1.35557e-12
1.08047e-12
1.16149e-13
-1.04883e-12
7.53167e-13
8.53573e-14
-8.25769e-13
5.38689e-13
6.45893e-14
-6.60324e-13
3.94378e-13
4.99433e-14
-5.35341e-13
2.94753e-13
3.93027e-14
-4.40481e-13
2.24516e-13
3.13907e-14
-5.27727e-13
1.73809e-13
2.5398e-14
1.06307e-13
-3.00441e-14
2.08028e-14
3.49834e-13
8.13917e-14
1.63198e-14
-1.91623e-14
7.72995e-14
1.38725e-14
-1.80611e-14
6.82205e-14
1.26518e-14
-1.7787e-14
5.94263e-14
9.30548e-15
-1.7479e-14
5.09326e-14
6.87158e-15
-1.7248e-14
4.27257e-14
4.61289e-15
-1.69798e-14
3.47992e-14
3.007e-15
-1.68413e-14
2.71416e-14
1.76369e-15
-2.33122e-14
1.97382e-14
9.01494e-16
1.26086e-14
3.55669e-16
-1.54455e-15
2.98774e-13
5.82288e-14
2.8317e-14
-6.67371e-14
5.35383e-14
2.47346e-14
-6.12762e-14
4.53366e-14
2.42612e-14
-5.92782e-14
3.76271e-14
1.8863e-14
-5.74263e-14
3.04278e-14
1.42175e-14
-5.56527e-14
2.37416e-14
1.08618e-14
-5.39376e-14
1.75751e-14
8.12051e-15
-5.2608e-14
1.19371e-14
6.09433e-15
-7.12019e-14
6.8533e-15
4.81107e-15
2.42352e-15
2.75216e-15
-4.39275e-15
2.21199e-13
7.41518e-14
3.95173e-14
-1.66669e-13
6.68151e-14
3.78683e-14
-1.16743e-13
5.59499e-14
3.93898e-14
-1.10715e-13
4.60272e-14
3.16942e-14
-1.05146e-13
3.70088e-14
2.55148e-14
-9.9923e-14
2.88111e-14
2.05829e-14
-9.50465e-14
2.13636e-14
1.69398e-14
-9.09811e-14
1.46201e-14
1.39701e-14
-1.21024e-13
8.52732e-15
1.21595e-14
3.0572e-15
7.82832e-15
-7.33094e-15
9.91876e-14
9.21915e-14
6.45618e-14
-2.89899e-13
8.05698e-14
6.62908e-14
-1.88354e-13
6.58306e-14
6.77314e-14
-1.74628e-13
5.29065e-14
5.564e-14
-1.62279e-13
4.15926e-14
4.58021e-14
-1.51063e-13
3.1687e-14
3.78076e-14
-1.40794e-13
2.30268e-14
3.21492e-14
-1.32115e-13
1.54628e-14
2.75221e-14
-1.72866e-13
8.87674e-15
2.4206e-14
3.17215e-15
1.62426e-14
-1.03255e-14
-1.74082e-14
1.1621e-13
1.11797e-13
-4.46247e-13
9.81987e-14
1.18787e-13
-2.80611e-13
7.80858e-14
1.1622e-13
-2.53932e-13
6.11659e-14
9.5004e-14
-2.30554e-13
4.69364e-14
7.83716e-14
-2.09885e-13
3.49531e-14
6.5301e-14
-1.91564e-13
2.48588e-14
5.49868e-14
-1.7608e-13
1.63674e-14
4.70416e-14
-2.26807e-13
9.23775e-15
4.09181e-14
3.27956e-15
2.74011e-14
-1.34092e-14
-1.524e-13
1.48774e-13
1.98636e-13
-6.50927e-13
1.21127e-13
2.12021e-13
-3.99712e-13
9.34368e-14
1.95985e-13
-3.52305e-13
7.11647e-14
1.57666e-13
-3.12028e-13
5.31995e-14
1.28218e-13
-2.77519e-13
3.86615e-14
1.05527e-13
-2.47797e-13
2.68832e-14
8.77429e-14
-2.23019e-13
1.73425e-14
7.40481e-14
-2.82979e-13
9.6249e-15
6.31089e-14
3.39849e-15
4.2185e-14
-1.65688e-14
-5.60834e-13
1.9386e-13
3.54429e-13
-9.22978e-13
1.51382e-13
3.73606e-13
-5.53941e-13
1.12884e-13
3.24928e-13
-4.74526e-13
8.3362e-14
2.54633e-13
-4.09312e-13
6.05792e-14
2.02437e-13
-3.55225e-13
4.2897e-14
1.62663e-13
-3.10039e-13
2.91267e-14
1.32687e-13
-2.73065e-13
1.83924e-14
1.09548e-13
-3.41498e-13
1.00248e-14
9.1572e-14
3.51512e-15
5.98503e-14
-1.9822e-14
-1.08936e-12
2.48863e-13
6.34276e-13
-1.28588e-12
1.92526e-13
6.51412e-13
-7.54832e-13
1.38468e-13
5.31622e-13
-6.26879e-13
9.90947e-14
4.02786e-13
-5.25648e-13
7.01195e-14
3.10258e-13
-4.44573e-13
4.85965e-14
2.42607e-13
-3.78946e-13
3.25261e-14
1.92918e-13
-3.26451e-13
2.05067e-14
1.55395e-13
-4.02466e-13
1.15639e-14
1.26838e-13
4.62846e-15
8.12684e-14
-2.31512e-14
-1.8796e-12
8.43191e-13
1.22635e-12
-1.76072e-12
3.37642e-13
1.13021e-12
-1.01872e-12
2.45198e-13
8.62229e-13
-8.17797e-13
1.62214e-13
6.27352e-13
-6.65218e-13
1.04706e-13
4.65883e-13
-5.47451e-13
6.02216e-14
3.5286e-13
-4.55313e-13
3.04422e-14
2.72024e-13
-3.83416e-13
1.68687e-14
2.13424e-13
-4.66001e-13
8.75957e-15
1.69605e-13
3.21444e-15
1.06404e-13
-2.65738e-14
-1.08618e-11
3.32638e-10
1.50344e-08
-1.70804e-12
2.53857e-12
5.99281e-13
-1.3674e-12
1.37766e-12
1.11318e-13
-1.05774e-12
9.59365e-13
8.25143e-14
-8.32606e-13
6.85821e-13
6.28327e-14
-6.65666e-13
5.01779e-13
4.88505e-14
-5.39569e-13
3.74947e-13
3.86505e-14
-4.43886e-13
2.85457e-13
3.10541e-14
-5.31621e-13
2.2072e-13
2.5306e-14
1.35475e-13
-3.01415e-14
2.09202e-14
3.4953e-13
8.15546e-14
1.97502e-14
-1.95058e-14
7.74404e-14
1.67473e-14
-1.83513e-14
6.83348e-14
1.55649e-14
-1.79919e-14
5.95213e-14
1.16315e-14
-1.76888e-14
5.10091e-14
8.22212e-15
-1.73889e-14
4.27928e-14
5.62236e-15
-1.70946e-14
3.48584e-14
3.51446e-15
-1.69239e-14
2.71964e-14
2.08998e-15
-2.33644e-14
1.97916e-14
1.02517e-15
1.26603e-14
4.41375e-16
-1.54586e-15
2.98326e-13
5.84136e-14
3.45047e-14
-6.71855e-14
5.37026e-14
3.01278e-14
-6.16165e-14
4.54758e-14
2.93684e-14
-5.95899e-14
3.77462e-14
2.28963e-14
-5.76432e-14
3.05333e-14
1.77421e-14
-5.58402e-14
2.38343e-14
1.31452e-14
-5.407e-14
1.76588e-14
9.82221e-15
-5.26935e-14
1.2012e-14
7.286e-15
-7.12785e-14
6.92145e-15
5.63874e-15
2.48338e-15
3.44091e-15
-4.40078e-15
2.20486e-13
7.44581e-14
4.81845e-14
-1.67601e-13
6.7086e-14
4.60087e-14
-1.17222e-13
5.61771e-14
4.78121e-14
-1.11115e-13
4.62246e-14
3.84044e-14
-1.05469e-13
3.7181e-14
3.08501e-14
-1.00169e-13
2.89616e-14
2.50419e-14
-9.52527e-14
2.15034e-14
2.02797e-14
-9.11045e-14
1.47497e-14
1.72588e-14
-1.21166e-13
8.64708e-15
1.46058e-14
3.17264e-15
9.62971e-15
-7.33419e-15
9.84076e-14
9.26848e-14
7.8534e-14
-2.91224e-13
8.10021e-14
8.04047e-14
-1.89068e-13
6.6194e-14
8.24139e-14
-1.75235e-13
5.3214e-14
6.72497e-14
-1.628e-13
4.18585e-14
5.53498e-14
-1.51436e-13
3.19225e-14
4.62198e-14
-1.41127e-13
2.32309e-14
3.8879e-14
-1.32362e-13
1.56453e-14
3.33355e-14
-1.73139e-13
9.04172e-15
2.90718e-14
3.31717e-15
1.93499e-14
-1.03444e-14
-1.88049e-14
1.17001e-13
1.36454e-13
-4.48323e-13
9.88717e-14
1.44473e-13
-2.81803e-13
7.86392e-14
1.41272e-13
-2.54921e-13
6.1627e-14
1.15179e-13
-2.31376e-13
4.73246e-14
9.48706e-14
-2.10569e-13
3.52849e-14
7.90624e-14
-1.92122e-13
2.51452e-14
6.67065e-14
-1.76532e-13
1.66172e-14
5.71558e-14
-2.27347e-13
9.45418e-15
4.95047e-14
3.47396e-15
3.34163e-14
-1.34207e-14
-1.54633e-13
1.50018e-13
2.41767e-13
-6.54344e-13
1.22154e-13
2.57985e-13
-4.01727e-13
9.42596e-14
2.3799e-13
-3.53968e-13
7.18309e-14
1.9119e-13
-3.13398e-13
5.37481e-14
1.55362e-13
-2.78672e-13
3.91143e-14
1.27708e-13
-2.48742e-13
2.72643e-14
1.06466e-13
-2.23826e-13
1.76634e-14
8.98069e-14
-2.83918e-13
9.89953e-15
7.67839e-14
3.62984e-15
5.11263e-14
-1.65963e-14
-5.67173e-13
1.95816e-13
4.31886e-13
-9.28678e-13
1.52933e-13
4.54697e-13
-5.57356e-13
1.14086e-13
3.94545e-13
-4.77284e-13
8.43077e-14
3.0917e-13
-4.11601e-13
6.13306e-14
2.45414e-13
-3.57094e-13
4.35027e-14
1.97605e-13
-3.11606e-13
2.96209e-14
1.61087e-13
-2.7437e-13
1.87977e-14
1.33196e-13
-3.43049e-13
1.03599e-14
1.11248e-13
3.7942e-15
7.27871e-14
-1.98561e-14
-1.10115e-12
2.51697e-13
7.74008e-13
-1.2953e-12
1.94865e-13
7.93117e-13
-7.6053e-13
1.40211e-13
6.45974e-13
-6.31416e-13
1.00417e-13
4.89522e-13
-5.2932e-13
7.11357e-14
3.77103e-13
-4.4754e-13
4.93895e-14
2.95134e-13
-3.81406e-13
3.31469e-14
2.34314e-13
-3.28485e-13
2.10004e-14
1.88843e-13
-4.04861e-13
1.19548e-14
1.54103e-13
4.97715e-15
9.88708e-14
-2.32069e-14
-1.90157e-12
8.50534e-13
1.49636e-12
-1.77572e-12
3.43686e-13
1.3767e-12
-1.02809e-12
2.49111e-13
1.04958e-12
-8.25086e-13
1.6506e-13
7.63176e-13
-6.70958e-13
1.06883e-13
5.66853e-13
-5.52039e-13
6.23983e-14
4.29132e-13
-4.59009e-13
3.13725e-14
3.30767e-13
-3.86467e-13
1.74204e-14
2.59222e-13
-4.69526e-13
9.08694e-15
2.06248e-13
3.60918e-15
1.29612e-13
-2.66581e-14
-1.09194e-11
3.99248e-10
1.50787e-08
-1.72652e-12
3.08575e-12
6.01128e-13
-1.38258e-12
1.67835e-12
1.11439e-13
-1.06918e-12
1.16865e-12
8.28589e-14
-8.41376e-13
8.35151e-13
6.32584e-14
-6.72505e-13
6.10949e-13
4.93053e-14
-5.44996e-13
4.56279e-13
3.91163e-14
-4.4826e-13
3.47305e-13
3.15273e-14
-5.36597e-13
2.69025e-13
2.57908e-14
1.65161e-13
-3.02677e-14
2.14234e-14
3.49149e-13
8.17546e-14
2.3385e-14
-1.99148e-14
7.76137e-14
2.02165e-14
-1.8689e-14
6.84733e-14
1.85279e-14
-1.82825e-14
5.96355e-14
1.39275e-14
-1.79224e-14
5.1107e-14
9.94203e-15
-1.75812e-14
4.28753e-14
6.53331e-15
-1.72197e-14
3.49325e-14
4.0924e-15
-1.70269e-14
2.72631e-14
2.18922e-15
-2.34221e-14
1.98562e-14
9.97305e-16
1.2724e-14
3.45329e-16
-1.56103e-15
2.9777e-13
5.86392e-14
4.06455e-14
-6.77343e-14
5.39019e-14
3.59326e-14
-6.20359e-14
4.56453e-14
3.50666e-14
-5.99224e-14
3.78904e-14
2.71124e-14
-5.79606e-14
3.06576e-14
2.05757e-14
-5.60514e-14
2.39479e-14
1.54102e-14
-5.4246e-14
1.77592e-14
1.13355e-14
-5.28024e-14
1.21061e-14
8.25518e-15
-7.13579e-14
7.00468e-15
5.95325e-15
2.55603e-15
3.32943e-15
-4.40273e-15
2.19598e-13
7.48301e-14
5.70961e-14
-1.68735e-13
6.74153e-14
5.53365e-14
-1.17812e-13
5.64561e-14
5.6914e-14
-1.11602e-13
4.64644e-14
4.56295e-14
-1.05843e-13
3.7391e-14
3.66748e-14
-1.00508e-13
2.9148e-14
2.94327e-14
-9.54508e-14
2.16753e-14
2.39246e-14
-9.13014e-14
1.49027e-14
1.95161e-14
-1.21327e-13
8.79128e-15
1.67081e-14
3.30422e-15
1.03899e-14
-7.34352e-15
9.74409e-14
9.32913e-14
9.31734e-14
-2.92823e-13
8.15307e-14
9.64878e-14
-1.89971e-13
6.66371e-14
9.80926e-14
-1.75978e-13
5.35899e-14
8.00601e-14
-1.63393e-13
4.21834e-14
6.5689e-14
-1.51932e-13
3.22057e-14
5.4422e-14
-1.41514e-13
2.34811e-14
4.55118e-14
-1.32672e-13
1.58705e-14
3.88562e-14
-1.73483e-13
9.24308e-15
3.36215e-14
3.50419e-15
2.20667e-14
-1.03457e-14
-2.05346e-14
1.17965e-13
1.61824e-13
-4.50844e-13
9.96933e-14
1.72715e-13
-2.83276e-13
7.93138e-14
1.67855e-13
-2.56127e-13
6.21889e-14
1.36875e-13
-2.32374e-13
4.77981e-14
1.12612e-13
-2.11395e-13
3.5688e-14
9.35258e-14
-1.92798e-13
2.54943e-14
7.87693e-14
-1.77102e-13
1.69197e-14
6.68389e-14
-2.27994e-13
9.72287e-15
5.76809e-14
3.70624e-15
3.83807e-14
-1.34448e-14
-1.5739e-13
1.51541e-13
2.87235e-13
-6.58511e-13
1.23407e-13
3.07998e-13
-4.04193e-13
9.52638e-14
2.83259e-13
-3.55993e-13
7.26458e-14
2.27533e-13
-3.1508e-13
5.44162e-14
1.84665e-13
-2.80053e-13
3.96711e-14
1.51454e-13
-2.49911e-13
2.77299e-14
1.25736e-13
-2.24783e-13
1.80585e-14
1.05404e-13
-2.85077e-13
1.02319e-14
8.96313e-14
3.9147e-15
5.94203e-14
-1.66267e-14
-5.74966e-13
1.98212e-13
5.1301e-13
-9.35636e-13
1.5483e-13
5.43117e-13
-5.61514e-13
1.15556e-13
4.70425e-13
-4.80672e-13
8.54635e-14
3.68135e-13
-4.14364e-13
6.22519e-14
2.91735e-13
-3.59386e-13
4.42448e-14
2.34296e-13
-3.13503e-13
3.02247e-14
1.9055e-13
-2.75972e-13
1.92921e-14
1.5661e-13
-3.44943e-13
1.07686e-14
1.30336e-13
4.13351e-15
8.52154e-14
-1.99007e-14
-1.11565e-12
2.55171e-13
9.19556e-13
-1.3068e-12
1.97725e-13
9.4904e-13
-7.67483e-13
1.42346e-13
7.71179e-13
-6.36961e-13
1.02034e-13
5.8329e-13
-5.33785e-13
7.23793e-14
4.48494e-13
-4.51184e-13
5.03562e-14
3.50298e-13
-3.84399e-13
3.39074e-14
2.77659e-13
-3.30974e-13
2.16015e-14
2.23031e-13
-4.0778e-13
1.24323e-14
1.81101e-13
5.39902e-15
1.16009e-13
-2.32826e-14
-1.92857e-12
8.59489e-13
1.77818e-12
-1.79398e-12
3.51019e-13
1.6494e-12
-1.03956e-12
2.53904e-13
1.25396e-12
-8.33987e-13
1.68542e-13
9.10735e-13
-6.77978e-13
1.09534e-13
6.75272e-13
-5.57643e-13
6.49694e-14
5.104e-13
-4.6354e-13
3.25394e-14
3.92715e-13
-3.90172e-13
1.81038e-14
3.07066e-13
-4.73829e-13
9.51747e-15
2.43224e-13
4.09186e-15
1.52536e-13
-2.67631e-14
-1.09897e-11
4.68525e-10
1.51317e-08
-1.74918e-12
3.68213e-12
6.03674e-13
-1.40118e-12
2.00848e-12
1.11654e-13
-1.08318e-12
1.39627e-12
8.33032e-14
-8.52104e-13
9.96444e-13
6.37877e-14
-6.8088e-13
7.27631e-13
4.98657e-14
-5.51627e-13
5.42637e-13
3.96903e-14
-4.53573e-13
4.12482e-13
3.21127e-14
-5.42701e-13
3.18055e-13
2.63906e-14
1.95007e-13
-3.04073e-14
2.20573e-14
3.48699e-13
8.19896e-14
3.30332e-14
-2.04068e-14
7.78123e-14
2.36333e-14
-1.90844e-14
6.86356e-14
2.06848e-14
-1.8608e-14
5.97684e-14
1.56372e-14
-1.8217e-14
5.12182e-14
1.41727e-14
-1.77844e-14
4.29731e-14
8.1237e-15
-1.73959e-14
3.50197e-14
5.45954e-15
-1.71151e-14
2.73449e-14
3.62178e-15
-2.35094e-14
1.99324e-14
2.94453e-15
1.27997e-14
4.06504e-15
-1.55496e-15
2.97099e-13
5.89062e-14
6.26889e-14
-6.8371e-14
5.41374e-14
4.00921e-14
-6.25467e-14
4.58424e-14
3.92963e-14
-6.03384e-14
3.80608e-14
3.05962e-14
-5.82938e-14
3.08075e-14
2.34673e-14
-5.63103e-14
2.40813e-14
1.78869e-14
-5.44402e-14
1.78793e-14
1.35768e-14
-5.2943e-14
1.2214e-14
1.05376e-14
-7.14685e-14
7.10471e-15
8.83398e-15
2.64222e-15
7.57468e-15
-4.40186e-15
2.18542e-13
7.52694e-14
9.06555e-14
-1.70073e-13
6.78003e-14
6.17487e-14
-1.185e-13
5.67837e-14
6.40753e-14
-1.12164e-13
4.67465e-14
5.15601e-14
-1.06302e-13
3.7637e-14
4.15279e-14
-1.00868e-13
2.93675e-14
4.51694e-14
-9.57512e-14
2.18723e-14
2.78678e-14
-9.14683e-14
1.5089e-14
2.35422e-14
-1.21546e-13
8.95919e-15
2.06665e-14
3.46441e-15
1.56029e-14
-7.34178e-15
9.62932e-14
9.40073e-14
1.49165e-13
-2.94703e-13
8.21491e-14
1.08352e-13
-1.9102e-13
6.71553e-14
1.10695e-13
-1.76845e-13
5.40312e-14
9.05638e-14
-1.64098e-13
4.25652e-14
7.47317e-14
-1.52522e-13
3.25399e-14
8.14545e-14
-1.41963e-13
2.37812e-14
4.23885e-14
-1.33042e-13
1.61349e-14
4.544e-14
-1.73893e-13
9.48241e-15
4.01142e-14
3.72091e-15
2.87205e-14
-1.03583e-14
-2.25895e-14
1.19106e-13
2.57057e-13
-4.53799e-13
1.00657e-13
1.9518e-13
-2.84986e-13
8.01076e-14
1.90331e-13
-2.57541e-13
6.28521e-14
1.55426e-13
-2.33552e-13
4.83582e-14
1.41754e-13
-2.12352e-13
3.61659e-14
1.38223e-13
-1.93617e-13
2.59047e-14
1.1188e-13
-1.77764e-13
1.72777e-14
7.76533e-14
-2.2877e-13
1.00376e-14
6.77192e-14
3.98185e-15
4.69744e-14
-1.34662e-14
-1.60696e-13
1.53341e-13
4.49354e-13
-6.6338e-13
1.24881e-13
3.4961e-13
-4.07071e-13
9.64469e-14
3.39549e-13
-3.5837e-13
7.36055e-14
2.88508e-13
-3.17055e-13
5.52038e-14
2.53671e-13
-2.81686e-13
4.0327e-14
2.25527e-13
-2.51299e-13
2.82803e-14
1.90702e-13
-2.25925e-13
1.85229e-14
9.75439e-14
-2.86445e-13
1.06251e-14
1.04485e-13
4.25373e-15
7.07355e-14
-1.66679e-14
-5.84215e-13
2.01047e-13
7.88282e-13
-9.43761e-13
1.57065e-13
6.99088e-13
-5.66396e-13
1.1729e-13
6.42344e-13
-4.84647e-13
8.68264e-14
5.1378e-13
-4.17615e-13
6.3339e-14
4.22173e-13
-3.62079e-13
4.51213e-14
3.52774e-13
-3.15767e-13
3.09386e-14
2.91232e-13
-2.77864e-13
1.98804e-14
1.77058e-13
-3.4717e-13
1.12526e-14
1.2916e-13
4.53259e-15
1.00273e-13
-1.99632e-14
-1.13276e-12
2.59286e-13
1.3874e-12
-1.32025e-12
2.01096e-13
1.35412e-12
-7.75657e-13
1.44862e-13
1.12212e-12
-6.43476e-13
1.03945e-13
8.55989e-13
-5.39036e-13
7.38504e-14
6.68898e-13
-4.55472e-13
5.15024e-14
5.32538e-13
-3.87932e-13
3.48104e-14
4.25096e-13
-3.33937e-13
2.23144e-14
3.17495e-13
-4.11235e-13
1.29998e-14
1.6825e-13
5.89119e-15
1.36099e-13
-2.3365e-14
-1.96042e-12
8.66295e-13
2.60733e-12
-1.81541e-12
3.59813e-13
2.46667e-12
-1.05303e-12
2.59566e-13
1.88518e-12
-8.44459e-13
1.72655e-13
1.37248e-12
-6.86238e-13
1.12657e-13
1.02453e-12
-5.64244e-13
6.79002e-14
7.81029e-13
-4.68892e-13
3.397e-14
6.0177e-13
-3.94577e-13
1.89265e-14
4.53262e-13
-4.78928e-13
1.00508e-14
2.32096e-13
4.66496e-15
1.78583e-13
-2.68815e-14
-1.10477e-11
5.30195e-10
1.51961e-08
-1.77578e-12
5.52554e-12
5.86642e-13
-1.42305e-12
3.06392e-12
1.1195e-13
-1.09965e-12
2.1319e-12
8.38414e-14
-8.6476e-13
1.52552e-12
6.4413e-14