/*--------------------------------*- C++ -*----------------------------------*\
| =========                 |                                                 |
| \\      /  F ield         | OpenFOAM: The Open Source CFD Toolbox           |
|  \\    /   O peration     | Version:  4.1                                   |
|   \\  /    A nd           | Web:      www.OpenFOAM.org                      |
|    \\/     M anipulation  |                                                 |
\*---------------------------------------------------------------------------*/
FoamFile
{
    version     2.0;
    format      ascii;
    class       volVectorField;
    location    "0.02";
    object      U;
}
// * * * * * * * * * * * * * * * * * * * * * * * * * * * * * * * * * * * * * //

dimensions      [0 1 -1 0 0 0 0];

internalField   nonuniform List<vector> 
18000
(
(7.28538e-14 3.95209e-13 -6.73424e-12)
(8.01459e-14 3.92924e-13 -6.65455e-12)
(7.27956e-14 -1.00146e-14 -6.57595e-12)
(6.56157e-14 -1.00121e-14 -6.49844e-12)
(5.86071e-14 -9.91208e-15 -6.42205e-12)
(5.17671e-14 -9.80434e-15 -6.34672e-12)
(4.5086e-14 -9.70713e-15 -6.27245e-12)
(3.85692e-14 -9.60705e-15 -6.19923e-12)
(3.22027e-14 -9.51021e-15 -6.12702e-12)
(2.59933e-14 -8.21735e-15 -6.05621e-12)
(8.95634e-14 4.11385e-13 -8.51889e-12)
(1.09163e-13 4.0345e-13 -8.20275e-12)
(9.6721e-14 -3.67117e-14 -7.90077e-12)
(8.50022e-14 -3.56457e-14 -7.61234e-12)
(7.39762e-14 -3.45143e-14 -7.33677e-12)
(6.35996e-14 -3.34298e-14 -7.07336e-12)
(5.3827e-14 -3.23889e-14 -6.82152e-12)
(4.46318e-14 -3.1388e-14 -6.58059e-12)
(3.59655e-14 -3.04331e-14 -6.35007e-12)
(2.78142e-14 -2.55252e-14 -6.13056e-12)
(8.63543e-14 4.22785e-13 -1.09234e-11)
(1.06083e-13 4.08761e-13 -1.02196e-11)
(8.86944e-14 -7.34693e-14 -9.57051e-12)
(7.29943e-14 -6.95331e-14 -8.97132e-12)
(5.88186e-14 -6.57481e-14 -8.41766e-12)
(4.60087e-14 -6.22342e-14 -7.90545e-12)
(3.44316e-14 -5.89617e-14 -7.43113e-12)
(2.39604e-14 -5.59122e-14 -6.99138e-12)
(1.4493e-14 -5.30609e-14 -6.58331e-12)
(5.93539e-15 -4.35107e-14 -6.20611e-12)
(1.12112e-13 4.2509e-13 -1.42181e-11)
(1.3064e-13 4.05472e-13 -1.28818e-11)
(1.06217e-13 -1.23877e-13 -1.16961e-11)
(8.51083e-14 -1.14058e-13 -1.06415e-11)
(6.68425e-14 -1.05128e-13 -9.70141e-12)
(5.10135e-14 -9.70871e-14 -8.86146e-12)
(3.72897e-14 -8.98298e-14 -8.10928e-12)
(2.5373e-14 -8.32603e-14 -7.43427e-12)
(1.5024e-14 -7.72862e-14 -6.82723e-12)
(6.04028e-15 -6.20743e-14 -6.28284e-12)
(1.48108e-13 4.10723e-13 -1.8818e-11)
(1.63008e-13 3.87912e-13 -1.64472e-11)
(1.28455e-13 -1.93318e-13 -1.44315e-11)
(9.99349e-14 -1.72771e-13 -1.27103e-11)
(7.63292e-14 -1.5486e-13 -1.12345e-11)
(5.67454e-14 -1.39281e-13 -9.96373e-12)
(4.04609e-14 -1.25681e-13 -8.86526e-12)
(2.68947e-14 -1.1377e-13 -7.91223e-12)
(1.55795e-14 -1.03255e-13 -7.0824e-12)
(6.14452e-15 -8.12296e-14 -6.36081e-12)
(1.99532e-13 3.66581e-13 -2.53763e-11)
(2.06396e-13 3.469e-13 -2.1299e-11)
(1.57028e-13 -2.89658e-13 -1.79939e-11)
(1.18239e-13 -2.505e-13 -1.5295e-11)
(8.76171e-14 -2.17808e-13 -1.3076e-11)
(6.3327e-14 -1.90431e-13 -1.12393e-11)
(4.3983e-14 -1.67367e-13 -9.70979e-12)
(2.85316e-14 -1.47806e-13 -8.42859e-12)
(1.61659e-14 -1.31076e-13 -7.34945e-12)
(6.25105e-15 -1.01016e-13 -6.44003e-12)
(2.74849e-13 2.69531e-13 -3.49503e-11)
(2.65664e-13 2.67409e-13 -2.80197e-11)
(1.9425e-13 -4.24519e-13 -2.26936e-11)
(1.41067e-13 -3.54017e-13 -1.85537e-11)
(1.01134e-13 -2.97773e-13 -1.53016e-11)
(7.09159e-14 -2.52555e-13 -1.27213e-11)
(4.7907e-14 -2.15852e-13 -1.06554e-11)
(3.03023e-14 -1.85773e-13 -8.98702e-12)
(1.67755e-14 -1.60893e-13 -7.62901e-12)
(6.36376e-15 -1.21455e-13 -6.52051e-12)
(3.85778e-13 7.78639e-14 -4.93064e-11)
(3.45913e-13 1.2431e-13 -3.75146e-11)
(2.41174e-13 -6.15376e-13 -2.89823e-11)
(1.67683e-13 -4.92835e-13 -2.2703e-11)
(1.15411e-13 -3.99781e-13 -1.80092e-11)
(7.78021e-14 -3.28175e-13 -1.44503e-11)
(5.04852e-14 -2.72305e-13 -1.17165e-11)
(3.04927e-14 -2.28168e-13 -9.59163e-12)
(1.57725e-14 -1.92849e-13 -7.92183e-12)
(4.91037e-15 -1.42551e-13 -6.60227e-12)
(-1.69285e-10 -2.86055e-13 -7.15353e-11)
(-1.59361e-10 -1.25027e-13 -5.12558e-11)
(-1.48594e-10 -8.88689e-13 -3.75532e-11)
(-1.39166e-10 -6.80162e-13 -2.80633e-11)
(-1.30847e-10 -5.30197e-13 -2.13442e-11)
(-1.23456e-10 -4.20148e-13 -1.64916e-11)
(-1.16849e-10 -3.37856e-13 -1.29243e-11)
(-1.10908e-10 -2.75274e-13 -1.02596e-11)
(-1.05538e-10 -2.26886e-13 -8.24006e-12)
(-1.00709e-10 -1.64336e-13 -6.69579e-12)
(4.05277e-08 -1.12132e-11 -2.19879e-09)
(2.05683e-08 2.49846e-11 -1.84893e-09)
(1.76104e-08 2.66722e-11 -1.57764e-09)
(1.52381e-08 2.34568e-11 -1.36297e-09)
(1.33056e-08 2.07616e-11 -1.18995e-09)
(1.17104e-08 1.84898e-11 -1.0483e-09)
(1.03782e-08 1.65606e-11 -9.30777e-10)
(9.25428e-09 1.49112e-11 -8.32142e-10)
(8.29692e-09 1.33668e-11 -7.48514e-10)
(4.46765e-09 -4.25317e-14 -6.77299e-10)
(2.75489e-13 3.70699e-13 -6.74678e-12)
(2.57199e-13 3.44238e-13 -6.66673e-12)
(2.25379e-13 -5.81556e-14 -6.58756e-12)
(1.94812e-13 -5.75959e-14 -6.50953e-12)
(1.65448e-13 -5.69411e-14 -6.43267e-12)
(1.37234e-13 -5.62924e-14 -6.35695e-12)
(1.10121e-13 -5.5662e-14 -6.2823e-12)
(8.40633e-14 -5.50374e-14 -6.20879e-12)
(5.90166e-14 -5.42692e-14 -6.13631e-12)
(3.50587e-14 -3.13382e-14 -6.06528e-12)
(5.58368e-13 3.18192e-13 -8.53662e-12)
(5.11891e-13 2.21131e-13 -8.21941e-12)
(4.38098e-13 -2.12232e-13 -7.91612e-12)
(3.69424e-13 -2.0461e-13 -7.62654e-12)
(3.05504e-13 -1.97225e-13 -7.34995e-12)
(2.45981e-13 -1.90166e-13 -7.0856e-12)
(1.90538e-13 -1.83424e-13 -6.83294e-12)
(1.38878e-13 -1.76977e-13 -6.59131e-12)
(9.07305e-14 -1.7034e-13 -6.36018e-12)
(4.608e-14 -9.67297e-14 -6.1401e-12)
(6.91839e-13 2.24611e-13 -1.09493e-11)
(6.10982e-13 2.7389e-14 -1.02431e-11)
(5.04457e-13 -4.30184e-13 -9.59141e-12)
(4.0973e-13 -4.03397e-13 -8.99001e-12)
(3.25468e-13 -3.78524e-13 -8.43442e-12)
(2.50478e-13 -3.55517e-13 -7.92054e-12)
(1.83716e-13 -3.3421e-13 -7.44477e-12)
(1.24275e-13 -3.14459e-13 -7.00375e-12)
(7.13445e-14 -2.95369e-13 -6.5946e-12)
(2.44514e-14 -1.65012e-13 -6.21643e-12)
(9.05888e-13 6.65923e-14 -1.42569e-11)
(7.71005e-13 -2.72121e-13 -1.29158e-11)
(6.17005e-13 -7.37946e-13 -1.17252e-11)
(4.86316e-13 -6.71564e-13 -1.06666e-11)
(3.75299e-13 -6.12235e-13 -9.7232e-12)
(2.809e-13 -5.59242e-13 -8.88042e-12)
(2.0058e-13 -5.11785e-13 -8.12588e-12)
(1.32225e-13 -4.69192e-13 -7.44887e-12)
(7.40491e-14 -4.29831e-13 -6.84011e-12)
(2.48076e-14 -2.3618e-13 -6.2943e-12)
(1.20623e-12 -1.93648e-13 -1.8878e-11)
(9.8563e-13 -7.32073e-13 -1.64974e-11)
(7.61995e-13 -1.17357e-12 -1.4473e-11)
(5.81253e-13 -1.0337e-12 -1.27448e-11)
(4.34838e-13 -9.13593e-13 -1.12633e-11)
(3.15988e-13 -8.10216e-13 -9.98793e-12)
(2.19385e-13 -7.20857e-13 -8.88575e-12)
(1.40807e-13 -6.43346e-13 -7.92968e-12)
(7.6884e-14 -5.74475e-13 -7.09736e-12)
(2.51713e-14 -3.10368e-13 -6.37373e-12)
(1.63668e-12 -6.18088e-13 -2.54713e-11)
(1.27819e-12 -1.43854e-12 -2.13748e-11)
(9.51022e-13 -1.79327e-12 -1.80539e-11)
(6.99946e-13 -1.52417e-12 -1.53427e-11)
(5.06387e-13 -1.30275e-12 -1.31144e-11)
(3.56608e-13 -1.11958e-12 -1.12705e-11)
(2.404e-13 -9.6707e-13 -9.73533e-12)
(1.5008e-13 -8.39357e-13 -8.44967e-12)
(7.98548e-14 -7.30108e-13 -7.36701e-12)
(2.554e-14 -3.8772e-13 -6.45478e-12)
(2.26859e-12 -1.31084e-12 -3.51047e-11)
(1.68421e-12 -2.53001e-12 -2.81363e-11)
(1.2007e-12 -2.68144e-12 -2.27813e-11)
(8.49707e-13 -2.19146e-12 -1.86206e-11)
(5.9291e-13 -1.80656e-12 -1.53533e-11)
(4.03827e-13 -1.50139e-12 -1.27618e-11)
(2.63937e-13 -1.25716e-12 -1.06874e-11)
(1.60118e-13 -1.06005e-12 -9.01266e-12)
(8.2964e-14 -8.97624e-13 -7.64974e-12)
(2.59144e-14 -4.68394e-13 -6.53748e-12)
(3.22213e-12 -2.45156e-12 -4.95644e-11)
(2.2592e-12 -4.23448e-12 -3.76974e-11)
(1.53534e-12 -3.96696e-12 -2.91125e-11)
(1.04062e-12 -3.10494e-12 -2.27975e-11)
(6.98266e-13 -2.46111e-12 -1.80791e-11)
(4.58956e-13 -1.97349e-12 -1.45028e-11)
(2.90379e-13 -1.59926e-12 -1.17567e-11)
(1.71004e-13 -1.30862e-12 -9.62282e-12)
(8.62301e-14 -1.078e-12 -7.94636e-12)
(2.63003e-14 -5.52531e-13 -6.62185e-12)
(6.76208e-12 -4.36056e-12 -7.19781e-11)
(2.69214e-12 -6.93845e-12 -5.15473e-11)
(1.67046e-12 -5.8512e-12 -3.77481e-11)
(1.02629e-12 -4.36568e-12 -2.81974e-11)
(6.13164e-13 -3.31579e-12 -2.14388e-11)
(3.45119e-13 -2.55896e-12 -1.65599e-11)
(1.69962e-13 -2.00342e-12 -1.29747e-11)
(5.52606e-14 -1.58899e-12 -1.02975e-11)
(-1.9557e-14 -1.27252e-12 -8.26905e-12)
(-6.67169e-14 -6.40489e-13 -6.71836e-12)
(9.01537e-09 -5.43551e-11 -2.20603e-09)
(-3.10446e-10 -5.14103e-11 -1.85379e-09)
(-2.80122e-10 -3.74386e-11 -1.58117e-09)
(-2.52905e-10 -3.11606e-11 -1.3656e-09)
(-2.29375e-10 -2.64157e-11 -1.19194e-09)
(-2.09135e-10 -2.27305e-11 -1.04984e-09)
(-1.91719e-10 -1.98034e-11 -9.3199e-10)
(-1.767e-10 -1.74339e-11 -8.33109e-10)
(-1.63721e-10 -1.54793e-11 -7.49293e-10)
(-1.5468e-10 -1.3454e-11 -6.77929e-10)
(2.2699e-13 3.77294e-13 -1.59612e-14)
(2.14305e-13 3.50542e-13 -1.52274e-14)
(1.87951e-13 -5.19934e-14 -1.39639e-14)
(1.62741e-13 -5.14675e-14 -1.28594e-14)
(1.38622e-13 -5.0841e-14 -1.19114e-14)
(1.15534e-13 -5.02366e-14 -1.10903e-14)
(9.34471e-14 -4.96373e-14 -1.04014e-14)
(7.23004e-14 -4.90383e-14 -9.8768e-15)
(5.20598e-14 -4.83165e-14 -9.45034e-15)
(3.27973e-14 -2.53532e-14 -9.16405e-15)
(4.9784e-13 3.43355e-13 -2.2761e-14)
(4.5973e-13 2.44904e-13 -2.11114e-14)
(3.93736e-13 -1.89395e-13 -1.88675e-14)
(3.32364e-13 -1.8254e-13 -1.69168e-14)
(2.75278e-13 -1.75906e-13 -1.52523e-14)
(2.22147e-13 -1.69562e-13 -1.38158e-14)
(1.72686e-13 -1.63494e-13 -1.25968e-14)
(1.26611e-13 -1.57693e-13 -1.15966e-14)
(8.36842e-14 -1.51702e-13 -1.08028e-14)
(4.39076e-14 -7.85418e-14 -1.01202e-14)
(6.14629e-13 2.7837e-13 -3.4e-14)
(5.46341e-13 7.68417e-14 -3.06497e-14)
(4.51007e-13 -3.83933e-13 -2.67025e-14)
(3.6629e-13 -3.59946e-13 -2.3366e-14)
(2.90987e-13 -3.37662e-13 -2.0537e-14)
(2.24011e-13 -3.1706e-13 -1.81319e-14)
(1.64414e-13 -2.97989e-13 -1.61304e-14)
(1.11371e-13 -2.80319e-13 -1.4469e-14)
(6.41466e-14 -2.63172e-13 -1.30712e-14)
(2.23511e-14 -1.34335e-13 -1.1943e-14)
(8.06022e-13 1.64424e-13 -5.27473e-14)
(6.90033e-13 -1.8502e-13 -4.61881e-14)
(5.52086e-13 -6.58924e-13 -3.91418e-14)
(4.3511e-13 -5.995e-13 -3.33057e-14)
(3.35817e-13 -5.46394e-13 -2.85232e-14)
(2.51438e-13 -4.98974e-13 -2.45567e-14)
(1.79681e-13 -4.56518e-13 -2.13216e-14)
(1.18639e-13 -4.18451e-13 -1.864e-14)
(6.67032e-14 -3.83156e-13 -1.64394e-14)
(2.2782e-14 -1.9276e-13 -1.46378e-14)
(1.07504e-12 -2.75744e-14 -8.42835e-14)
(8.82973e-13 -5.89673e-13 -7.12522e-14)
(6.82445e-13 -1.04863e-12 -5.85507e-14)
(5.2051e-13 -9.23389e-13 -4.83793e-14)
(3.89438e-13 -8.15855e-13 -4.02784e-14)
(2.83112e-13 -7.2334e-13 -3.37859e-14)
(1.96737e-13 -6.43401e-13 -2.85654e-14)
(1.26503e-13 -5.74088e-13 -2.43746e-14)
(6.93929e-14 -5.12368e-13 -2.09938e-14)
(2.32227e-14 -2.53953e-13 -1.82494e-14)
(1.4613e-12 -3.45284e-13 -1.37871e-13)
(1.14634e-12 -1.21448e-12 -1.11744e-13)
(8.52598e-13 -1.60381e-12 -8.85839e-14)
(6.274e-13 -1.36266e-12 -7.08184e-14)
(4.53949e-13 -1.16429e-12 -5.71811e-14)
(3.19826e-13 -1.00026e-12 -4.6626e-14)
(2.15821e-13 -8.63757e-13 -3.84116e-14)
(1.35025e-13 -7.49501e-13 -3.19701e-14)
(7.22156e-14 -6.516e-13 -2.68538e-14)
(2.36745e-14 -3.18082e-13 -2.28207e-14)
(2.02951e-12 -8.68534e-13 -2.30089e-13)
(1.51238e-12 -2.18426e-12 -1.77664e-13)
(1.07764e-12 -2.40089e-12 -1.35068e-13)
(7.62444e-13 -1.96126e-12 -1.04022e-13)
(5.32059e-13 -1.61607e-12 -8.12085e-14)
(3.62555e-13 -1.34256e-12 -6.41999e-14)
(2.37226e-13 -1.12378e-12 -5.13971e-14)
(1.44257e-13 -9.47297e-13 -4.16845e-14)
(7.518e-14 -8.01712e-13 -3.4167e-14)
(2.41373e-14 -3.85303e-13 -2.83715e-14)
(2.88879e-12 -1.73496e-12 -3.92351e-13)
(2.03152e-12 -3.70533e-12 -2.86095e-13)
(1.37964e-12 -3.55683e-12 -2.0727e-13)
(9.34769e-13 -2.78222e-12 -1.52972e-13)
(6.27256e-13 -2.20408e-12 -1.1499e-13)
(4.12484e-13 -1.76652e-12 -8.79076e-14)
(2.61292e-13 -1.43094e-12 -6.82987e-14)
(1.54273e-13 -1.17046e-12 -5.38707e-14)
(7.82956e-14 -9.63626e-13 -4.30895e-14)
(2.46089e-14 -4.55795e-13 -3.49538e-14)
(6.81438e-12 -3.18862e-12 -6.8385e-13)
(2.77822e-12 -6.12827e-12 -4.66253e-13)
(1.78508e-12 -5.25464e-12 -3.1936e-13)
(1.15162e-12 -3.91726e-12 -2.24698e-13)
(7.39312e-13 -2.97304e-12 -1.62025e-13)
(4.6682e-13 -2.29301e-12 -1.19433e-13)
(2.84586e-13 -1.79424e-12 -8.9858e-14)
(1.61686e-13 -1.42244e-12 -6.88822e-14)
(7.84078e-14 -1.13839e-12 -5.37174e-14)
(2.21959e-14 -5.29737e-13 -4.26144e-14)
(1.00685e-08 -1.30462e-11 -7.74202e-12)
(3.22006e-12 -1.69705e-11 -5.16088e-12)
(1.25636e-12 -7.90683e-12 -3.72928e-12)
(7.65485e-13 -5.5902e-12 -2.76446e-12)
(4.60508e-13 -4.05225e-12 -2.09373e-12)
(2.6788e-13 -3.00161e-12 -1.6153e-12)
(1.44668e-13 -2.26624e-12 -1.26637e-12)
(6.52452e-14 -1.74036e-12 -1.00692e-12)
(1.39201e-14 -1.35389e-12 -8.10597e-13)
(-1.86188e-14 -6.29611e-13 -6.54529e-13)
(2.27149e-13 3.77159e-13 -8.1718e-15)
(2.14436e-13 3.50139e-13 -7.27338e-15)
(1.88046e-13 -5.24781e-14 -5.62733e-15)
(1.62808e-13 -5.18705e-14 -4.25628e-15)
(1.38672e-13 -5.1183e-14 -3.05918e-15)
(1.15583e-13 -5.05091e-14 -2.089e-15)
(9.3493e-14 -4.98348e-14 -1.33172e-15)
(7.23502e-14 -4.91799e-14 -7.52576e-16)
(5.21214e-14 -4.83889e-14 -3.74732e-16)
(3.28657e-14 -2.53734e-14 -2.03998e-16)
(4.98375e-13 3.43174e-13 -1.20656e-14)
(4.60203e-13 2.44388e-13 -1.06176e-14)
(3.94123e-13 -1.89995e-13 -8.38987e-15)
(3.3269e-13 -1.8303e-13 -6.49737e-15)
(2.75561e-13 -1.76285e-13 -4.95898e-15)
(2.22402e-13 -1.69854e-13 -3.75255e-15)
(1.72923e-13 -1.63709e-13 -2.799e-15)
(1.26842e-13 -1.57828e-13 -2.11615e-15)
(8.39111e-14 -1.51764e-13 -1.64109e-15)
(4.41348e-14 -7.85381e-14 -1.38994e-15)
(6.15646e-13 2.78103e-13 -1.95439e-14)
(5.47255e-13 7.61054e-14 -1.7227e-14)
(4.51772e-13 -3.84741e-13 -1.38877e-14)
(3.66947e-13 -3.60583e-13 -1.11837e-14)
(2.91562e-13 -3.3817e-13 -8.99507e-15)
(2.24524e-13 -3.17448e-13 -7.27811e-15)
(1.64883e-13 -2.98261e-13 -5.95817e-15)
(1.11807e-13 -2.80508e-13 -4.99343e-15)
(6.45591e-14 -2.63275e-13 -4.27831e-15)
(2.27421e-14 -1.34339e-13 -3.86724e-15)
(8.07853e-13 1.63948e-13 -3.33938e-14)
(6.91653e-13 -1.86199e-13 -2.92676e-14)
(5.53438e-13 -6.60182e-13 -2.38696e-14)
(4.36251e-13 -6.00498e-13 -1.95038e-14)
(3.36796e-13 -5.47178e-13 -1.6082e-14)
(2.52297e-13 -4.99587e-13 -1.34047e-14)
(1.8044e-13 -4.56988e-13 -1.12846e-14)
(1.1932e-13 -4.18793e-13 -9.67979e-15)
(6.73236e-14 -3.83398e-13 -8.47468e-15)
(2.33429e-14 -1.92855e-13 -7.59644e-15)
(1.07823e-12 -2.85776e-14 -5.83531e-14)
(8.85708e-13 -5.91805e-13 -5.02762e-14)
(6.84669e-13 -1.05078e-12 -4.07667e-14)
(5.22349e-13 -9.25109e-13 -3.32989e-14)
(3.90974e-13 -8.17221e-13 -2.74524e-14)
(2.84416e-13 -7.24433e-13 -2.28909e-14)
(1.97853e-13 -6.44266e-13 -1.93349e-14)
(1.27475e-13 -5.74765e-13 -1.656e-14)
(7.02346e-14 -5.1291e-13 -1.44041e-14)
(2.39628e-14 -2.54213e-13 -1.27413e-14)
(1.46674e-12 -3.4748e-13 -1.02723e-13)
(1.15083e-12 -1.21859e-12 -8.59977e-14)
(8.56135e-13 -1.60769e-12 -6.84826e-14)
(6.30233e-13 -1.36574e-12 -5.51115e-14)
(4.56242e-13 -1.16675e-12 -4.4822e-14)
(3.21701e-13 -1.00224e-12 -3.69174e-14)
(2.17374e-13 -8.65341e-13 -3.07493e-14)
(1.36321e-13 -7.50787e-13 -2.59673e-14)
(7.33049e-14 -6.52653e-13 -2.21952e-14)
(2.45955e-14 -3.18652e-13 -1.92556e-14)
(2.03874e-12 -8.73303e-13 -1.81447e-13)
(1.51964e-12 -2.19227e-12 -1.46158e-13)
(1.08316e-12 -2.40799e-12 -1.1312e-13)
(7.66687e-13 -1.96681e-12 -8.87618e-14)
(5.35368e-13 -1.62046e-12 -7.05391e-14)
(3.65166e-13 -1.34605e-12 -5.6819e-14)
(2.39308e-13 -1.12657e-12 -4.63615e-14)
(1.4593e-13 -9.49549e-13 -3.83369e-14)
(7.65413e-14 -8.03554e-13 -3.21303e-14)
(2.52452e-14 -3.86332e-13 -2.7259e-14)
(2.90451e-12 -1.74507e-12 -3.22349e-13)
(2.04323e-12 -3.72092e-12 -2.47317e-13)
(1.38813e-12 -3.56982e-12 -1.84394e-13)
(9.41028e-13 -2.7921e-12 -1.39872e-13)
(6.3194e-13 -2.21167e-12 -1.07869e-13)
(4.1604e-13 -1.77244e-12 -8.45098e-14)
(2.64022e-13 -1.4356e-12 -6.71752e-14)
(1.5639e-13 -1.17418e-12 -5.42073e-14)
(7.99525e-14 -9.66621e-13 -4.4337e-14)
(2.59188e-14 -4.57488e-13 -3.67666e-14)
(6.84765e-12 -3.20966e-12 -5.78424e-13)
(2.79729e-12 -6.15849e-12 -4.18467e-13)
(1.79816e-12 -5.27817e-12 -2.97879e-13)
(1.16079e-12 -3.93449e-12 -2.16976e-13)
(7.45866e-13 -2.98589e-12 -1.6139e-13)
(4.71583e-13 -2.30274e-12 -1.22378e-13)
(2.88099e-13 -1.80172e-12 -9.44644e-14)
(1.64316e-13 -1.42826e-12 -7.41295e-14)
(8.03929e-14 -1.14298e-12 -5.91135e-14)
(2.37074e-14 -5.3232e-13 -4.78722e-14)
(1.01312e-08 -1.28671e-11 -1.20511e-12)
(3.84471e-12 -1.68781e-11 -7.1319e-13)
(1.74068e-12 -7.82662e-12 -4.79922e-13)
(1.14294e-12 -5.52749e-12 -3.33046e-13)
(7.59683e-13 -4.00262e-12 -2.37479e-13)
(5.08478e-13 -2.96189e-12 -1.73529e-13)
(3.40777e-13 -2.23412e-12 -1.29613e-13)
(2.27085e-13 -1.71416e-12 -9.8831e-14)
(1.4902e-13 -1.33236e-12 -7.67073e-14)
(9.5079e-14 -6.10452e-13 -6.05555e-14)
(2.27583e-13 3.76936e-13 -1.08886e-14)
(2.148e-13 3.49549e-13 -9.61557e-15)
(1.88336e-13 -5.31702e-14 -7.44632e-15)
(1.63035e-13 -5.24681e-14 -5.60062e-15)
(1.38858e-13 -5.16844e-14 -4.04385e-15)
(1.15737e-13 -5.09035e-14 -2.77258e-15)
(9.36256e-14 -5.01504e-14 -1.76495e-15)
(7.24735e-14 -4.94007e-14 -1.00425e-15)
(5.22316e-14 -4.8519e-14 -4.98418e-16)
(3.2972e-14 -2.54186e-14 -2.41866e-16)
(4.9942e-13 3.42781e-13 -1.6059e-14)
(4.61111e-13 2.43536e-13 -1.40604e-14)
(3.94871e-13 -1.90928e-13 -1.10865e-14)
(3.3331e-13 -1.83813e-13 -8.60075e-15)
(2.76088e-13 -1.76919e-13 -6.53562e-15)
(2.2286e-13 -1.70355e-13 -4.93564e-15)
(1.73332e-13 -1.64084e-13 -3.68355e-15)
(1.27217e-13 -1.581e-13 -2.79004e-15)
(8.42579e-14 -1.51942e-13 -2.16056e-15)
(4.44624e-14 -7.8603e-14 -1.821e-15)
(6.17486e-13 2.77425e-13 -2.60174e-14)
(5.48866e-13 7.48066e-14 -2.2832e-14)
(4.53114e-13 -3.86105e-13 -1.84083e-14)
(3.68073e-13 -3.61709e-13 -1.48049e-14)
(2.92527e-13 -3.39072e-13 -1.18917e-14)
(2.25366e-13 -3.18153e-13 -9.62831e-15)
(1.65626e-13 -2.98808e-13 -7.88979e-15)
(1.12472e-13 -2.80913e-13 -6.5815e-15)
(6.51637e-14 -2.63559e-13 -5.68328e-15)
(2.32955e-14 -1.34485e-13 -5.09125e-15)
(8.11019e-13 1.62659e-13 -4.45061e-14)
(6.94376e-13 -1.88374e-13 -3.88214e-14)
(5.55674e-13 -6.62365e-13 -3.16201e-14)
(4.38111e-13 -6.02281e-13 -2.58734e-14)
(3.38365e-13 -5.48602e-13 -2.13171e-14)
(2.53633e-13 -5.00732e-13 -1.77259e-14)
(1.81599e-13 -4.579e-13 -1.49626e-14)
(1.20331e-13 -4.19507e-13 -1.28375e-14)
(6.82151e-14 -3.83949e-13 -1.12348e-14)
(2.4134e-14 -1.9315e-13 -1.00962e-14)
(1.08357e-12 -3.11387e-14 -7.77415e-14)
(8.90171e-13 -5.95745e-13 -6.67161e-14)
(6.88247e-13 -1.05453e-12 -5.40537e-14)
(5.25256e-13 -9.28133e-13 -4.41665e-14)
(3.9336e-13 -8.1966e-13 -3.64203e-14)
(2.86396e-13 -7.26387e-13 -3.03515e-14)
(1.99518e-13 -6.45842e-13 -2.56334e-14)
(1.28883e-13 -5.76043e-13 -2.19352e-14)
(7.14417e-14 -5.13931e-13 -1.90822e-14)
(2.49992e-14 -2.54816e-13 -1.68699e-14)
(1.47571e-12 -3.52699e-13 -1.3694e-13)
(1.15802e-12 -1.22598e-12 -1.14173e-13)
(8.61723e-13 -1.61435e-12 -9.0911e-14)
(6.34625e-13 -1.37104e-12 -7.31359e-14)
(4.59735e-13 -1.17097e-12 -5.94896e-14)
(3.24515e-13 -1.00562e-12 -4.89721e-14)
(2.19657e-13 -8.68077e-13 -4.0774e-14)
(1.38196e-13 -7.53005e-13 -3.44043e-14)
(7.48576e-14 -6.54457e-13 -2.94141e-14)
(2.58859e-14 -3.19715e-13 -2.55224e-14)
(2.05379e-12 -8.83906e-13 -2.4199e-13)
(1.53116e-12 -2.20632e-12 -1.94204e-13)
(1.09175e-12 -2.41995e-12 -1.50292e-13)
(7.73191e-13 -1.97609e-12 -1.17846e-13)
(5.40359e-13 -1.62772e-12 -9.36694e-14)
(3.69042e-13 -1.35178e-12 -7.54091e-14)
(2.42351e-13 -1.13115e-12 -6.15207e-14)
(1.48346e-13 -9.53223e-13 -5.08445e-14)
(7.84722e-14 -8.06533e-13 -4.25933e-14)
(2.68026e-14 -3.88107e-13 -3.61374e-14)
(2.92996e-12 -1.76653e-12 -4.30006e-13)
(2.06164e-12 -3.74767e-12 -3.28846e-13)
(1.40125e-12 -3.59125e-12 -2.45094e-13)
(9.50539e-13 -2.8082e-12 -1.85884e-13)
(6.38951e-13 -2.22394e-12 -1.43304e-13)
(4.21278e-13 -1.78192e-12 -1.12207e-13)
(2.67989e-13 -1.44301e-12 -8.91981e-14)
(1.59425e-13 -1.18003e-12 -7.19398e-14)
(8.22957e-14 -9.7129e-13 -5.88208e-14)
(2.77439e-14 -4.60222e-13 -4.87859e-14)
(6.89738e-12 -3.25293e-12 -7.7188e-13)
(2.82688e-12 -6.2093e-12 -5.5683e-13)
(1.81814e-12 -5.31635e-12 -3.96272e-13)
(1.17459e-12 -3.96206e-12 -2.88567e-13)
(7.55588e-13 -3.00618e-12 -2.14558e-13)
(4.78554e-13 -2.31795e-12 -1.62624e-13)
(2.93178e-13 -1.81331e-12 -1.25489e-13)
(1.68064e-13 -1.43721e-12 -9.84821e-14)
(8.319e-14 -1.14998e-12 -7.84671e-14)
(2.58113e-14 -5.36355e-13 -6.35009e-14)
(1.01302e-08 -1.29765e-11 -1.58104e-12)
(3.87485e-12 -1.69905e-11 -9.47015e-13)
(1.75936e-12 -7.89423e-12 -6.37798e-13)
(1.15558e-12 -5.57407e-12 -4.42801e-13)
(7.68476e-13 -4.03556e-12 -3.15798e-13)
(5.14769e-13 -2.98571e-12 -2.30728e-13)
(3.45387e-13 -2.2517e-12 -1.72295e-13)
(2.30539e-13 -1.72737e-12 -1.31235e-13)
(1.51654e-13 -1.34246e-12 -1.01772e-13)
(9.71238e-14 -6.16175e-13 -8.03595e-14)
(2.28135e-13 3.76626e-13 -1.36292e-14)
(2.15267e-13 3.48767e-13 -1.19428e-14)
(1.88706e-13 -5.40694e-14 -9.28273e-15)
(1.63332e-13 -5.32225e-14 -6.96234e-15)
(1.39091e-13 -5.23058e-14 -5.0409e-15)
(1.15933e-13 -5.14159e-14 -3.42778e-15)
(9.3793e-14 -5.05405e-14 -2.17481e-15)
(7.26245e-14 -4.96861e-14 -1.2547e-15)
(5.23752e-14 -4.86915e-14 -6.11082e-16)
(3.31076e-14 -2.54803e-14 -3.09052e-16)
(5.00755e-13 3.42269e-13 -2.00931e-14)
(4.62274e-13 2.42426e-13 -1.75409e-14)
(3.95827e-13 -1.92127e-13 -1.38038e-14)
(3.34111e-13 -1.84817e-13 -1.07259e-14)
(2.76763e-13 -1.77734e-13 -8.1937e-15)
(2.23447e-13 -1.70988e-13 -6.14398e-15)
(1.73854e-13 -1.64567e-13 -4.5869e-15)
(1.2769e-13 -1.58443e-13 -3.43657e-15)
(8.47027e-14 -1.52162e-13 -2.69361e-15)
(4.48785e-14 -7.87016e-14 -2.28268e-15)
(6.19849e-13 2.76538e-13 -3.25297e-14)
(5.50929e-13 7.31223e-14 -2.8441e-14)
(4.54825e-13 -3.87847e-13 -2.29263e-14)
(3.69519e-13 -3.63137e-13 -1.84368e-14)
(2.93768e-13 -3.40226e-13 -1.48341e-14)
(2.26439e-13 -3.19062e-13 -1.20108e-14)
(1.66579e-13 -2.99512e-13 -9.8061e-15)
(1.13327e-13 -2.81432e-13 -8.21869e-15)
(6.59402e-14 -2.63922e-13 -7.07457e-15)
(2.40109e-14 -1.34669e-13 -6.33367e-15)
(8.15082e-13 1.60987e-13 -5.56651e-14)
(6.97863e-13 -1.91208e-13 -4.84124e-14)
(5.58537e-13 -6.65157e-13 -3.94142e-14)
(4.40494e-13 -6.04542e-13 -3.22664e-14)
(3.40375e-13 -5.50445e-13 -2.65738e-14)
(2.55349e-13 -5.02196e-13 -2.20895e-14)
(1.83079e-13 -4.5905e-13 -1.86548e-14)
(1.21627e-13 -4.20413e-13 -1.5999e-14)
(6.93558e-14 -3.84636e-13 -1.40138e-14)
(2.51468e-14 -1.93543e-13 -1.25602e-14)
(1.09045e-12 -3.44508e-14 -9.72867e-14)
(8.9589e-13 -6.00828e-13 -8.3242e-14)
(6.92838e-13 -1.05933e-12 -6.74508e-14)
(5.28978e-13 -9.3199e-13 -5.50871e-14)
(3.96418e-13 -8.22772e-13 -4.54272e-14)
(2.88942e-13 -7.28902e-13 -3.7861e-14)
(2.01648e-13 -6.47868e-13 -3.1941e-14)
(1.30691e-13 -5.77667e-13 -2.73453e-14)
(7.29818e-14 -5.15239e-13 -2.37729e-14)
(2.63225e-14 -2.55583e-13 -2.10134e-14)
(1.48724e-12 -3.59434e-13 -1.71373e-13)
(1.16725e-12 -1.23552e-12 -1.42597e-13)
(8.6889e-13 -1.62287e-12 -1.13481e-13)
(6.40255e-13 -1.3778e-12 -9.12672e-14)
(4.64216e-13 -1.17637e-12 -7.4229e-14)
(3.28116e-13 -1.00996e-12 -6.10658e-14)
(2.22588e-13 -8.71578e-13 -5.08649e-14)
(1.406e-13 -7.5584e-13 -4.29185e-14)
(7.68438e-14 -6.56765e-13 -3.67069e-14)
(2.75401e-14 -3.21077e-13 -3.18288e-14)
(2.07314e-12 -8.97575e-13 -3.03022e-13)
(1.54593e-12 -2.22442e-12 -2.42652e-13)
(1.10278e-12 -2.43527e-12 -1.87718e-13)
(7.81534e-13 -1.98797e-12 -1.47167e-13)
(5.46758e-13 -1.63702e-12 -1.16941e-13)
(3.74006e-13 -1.35914e-12 -9.41292e-14)
(2.46256e-13 -1.137e-12 -7.67846e-14)
(1.51441e-13 -9.57937e-13 -6.3453e-14)
(8.09491e-14 -8.1035e-13 -5.3114e-14)
(2.87955e-14 -3.90354e-13 -4.50419e-14)
(2.9627e-12 -1.79414e-12 -5.38795e-13)
(2.08529e-12 -3.78209e-12 -4.11175e-13)
(1.41809e-12 -3.61871e-12 -3.06364e-13)
(9.6275e-13 -2.82883e-12 -2.32269e-13)
(6.47941e-13 -2.23966e-12 -1.79023e-13)
(4.28001e-13 -1.79405e-12 -1.40146e-13)
(2.73077e-13 -1.45248e-12 -1.11391e-13)
(1.63326e-13 -1.18752e-12 -8.97949e-14)
(8.53071e-14 -9.77269e-13 -7.34003e-14)
(3.00902e-14 -4.63709e-13 -6.08351e-14)
(6.96164e-12 -3.30857e-12 -9.67695e-13)
(2.8649e-12 -6.27469e-12 -6.96735e-13)
(1.8438e-12 -5.36533e-12 -4.95705e-13)
(1.19231e-12 -3.99742e-12 -3.60838e-13)
(7.68074e-13 -3.03221e-12 -2.68196e-13)
(4.87511e-13 -2.33744e-12 -2.03214e-13)
(2.997e-13 -1.82812e-12 -1.56759e-13)
(1.72876e-13 -1.44867e-12 -1.22985e-13)
(8.6776e-14 -1.15895e-12 -9.79731e-14)
(2.85151e-14 -5.4151e-13 -7.9258e-14)
(1.01302e-08 -1.31193e-11 -1.98414e-12)
(3.91e-12 -1.71359e-11 -1.18598e-12)
(1.78266e-12 -7.9811e-12 -7.98395e-13)
(1.17134e-12 -5.63388e-12 -5.54107e-13)
(7.79477e-13 -4.07781e-12 -3.95013e-13)
(5.22653e-13 -3.01625e-12 -2.88508e-13)
(3.51178e-13 -2.27423e-12 -2.15347e-13)
(2.3488e-13 -1.74432e-12 -1.63957e-13)
(1.54977e-13 -1.3554e-12 -1.2714e-13)
(9.97118e-14 -6.2348e-13 -1.00324e-13)
(2.28812e-13 3.76236e-13 -1.63548e-14)
(2.15842e-13 3.47817e-13 -1.43074e-14)
(1.89154e-13 -5.51449e-14 -1.11204e-14)
(1.6369e-13 -5.41526e-14 -8.35753e-15)
(1.39386e-13 -5.30869e-14 -6.02186e-15)
(1.16174e-13 -5.20441e-14 -4.08792e-15)
(9.40028e-14 -5.10164e-14 -2.59204e-15)
(7.28084e-14 -5.00246e-14 -1.47078e-15)
(5.25497e-14 -4.88961e-14 -7.44565e-16)
(3.32753e-14 -2.55578e-14 -3.60357e-16)
(5.02388e-13 3.41632e-13 -2.41259e-14)
(4.63691e-13 2.41061e-13 -2.09876e-14)
(3.9699e-13 -1.93589e-13 -1.65354e-14)
(3.35079e-13 -1.86015e-13 -1.28267e-14)
(2.77589e-13 -1.78728e-13 -9.81616e-15)
(2.24167e-13 -1.71786e-13 -7.35864e-15)
(1.74492e-13 -1.65168e-13 -5.50153e-15)
(1.28276e-13 -1.58864e-13 -4.12538e-15)
(8.52441e-14 -1.52414e-13 -3.20938e-15)
(4.53872e-14 -7.87971e-14 -2.73701e-15)
(6.22733e-13 2.75436e-13 -3.90836e-14)
(5.53438e-13 7.10509e-14 -3.40828e-14)
(4.56915e-13 -3.89973e-13 -2.74496e-14)
(3.71278e-13 -3.64878e-13 -2.20686e-14)
(2.95268e-13 -3.41621e-13 -1.77687e-14)
(2.27752e-13 -3.20178e-13 -1.43959e-14)
(1.6774e-13 -3.00362e-13 -1.17492e-14)
(1.14371e-13 -2.82058e-13 -9.83699e-15)
(6.68865e-14 -2.64373e-13 -8.48948e-15)
(2.48704e-14 -1.3489e-13 -7.58715e-15)
(8.2005e-13 1.58927e-13 -6.68608e-14)
(7.02118e-13 -1.94666e-13 -5.80193e-14)
(5.62034e-13 -6.6856e-13 -4.72504e-14)
(4.434e-13 -6.07313e-13 -3.86442e-14)
(3.42823e-13 -5.52674e-13 -3.18225e-14)
(2.57438e-13 -5.03976e-13 -2.64981e-14)
(1.84889e-13 -4.60463e-13 -2.23132e-14)
(1.23202e-13 -4.2152e-13 -1.91618e-14)
(7.07475e-14 -3.85497e-13 -1.67689e-14)
(2.63821e-14 -1.94014e-13 -1.50193e-14)
(1.09884e-12 -3.85356e-14 -1.1697e-13)
(9.02875e-13 -6.07062e-13 -9.98207e-14)
(6.98436e-13 -1.06518e-12 -8.08744e-14)
(5.3352e-13 -9.36706e-13 -6.60305e-14)
(4.00148e-13 -8.26565e-13 -5.44411e-14)
(2.92037e-13 -7.31959e-13 -4.53705e-14)
(2.0425e-13 -6.5033e-13 -3.83083e-14)
(1.32895e-13 -5.7965e-13 -3.27683e-14)
(7.48698e-14 -5.16833e-13 -2.84737e-14)
(2.79462e-14 -2.56515e-13 -2.51913e-14)
(1.50134e-12 -3.67679e-13 -2.06075e-13)
(1.17852e-12 -1.24718e-12 -1.71104e-13)
(8.77636e-13 -1.63329e-12 -1.36161e-13)
(6.47132e-13 -1.38606e-12 -1.09498e-13)
(4.69685e-13 -1.18296e-12 -8.90389e-14)
(3.32517e-13 -1.01524e-12 -7.32319e-14)
(2.26167e-13 -8.75832e-13 -6.10058e-14)
(1.43536e-13 -7.59283e-13 -5.14249e-14)
(7.92727e-14 -6.59574e-13 -4.40009e-14)
(2.95575e-14 -3.22749e-13 -3.81401e-14)
(2.09683e-12 -9.14315e-13 -3.6457e-13)
(1.56399e-12 -2.24658e-12 -2.91414e-13)
(1.11625e-12 -2.45398e-12 -2.25437e-13)
(7.91734e-13 -2.00247e-12 -1.76716e-13)
(5.54581e-13 -1.64836e-12 -1.40352e-13)
(3.80086e-13 -1.3681e-12 -1.12994e-13)
(2.51026e-13 -1.14414e-12 -9.21393e-14)
(1.55224e-13 -9.63679e-13 -7.60881e-14)
(8.39695e-14 -8.15008e-13 -6.36643e-14)
(3.12296e-14 -3.93104e-13 -5.40282e-14)
(3.00281e-12 -1.82797e-12 -6.48638e-13)
(2.11423e-12 -3.82429e-12 -4.94362e-13)
(1.4387e-12 -3.65229e-12 -3.68267e-13)
(9.77688e-13 -2.85403e-12 -2.79112e-13)
(6.58945e-13 -2.25885e-12 -2.15065e-13)
(4.36222e-13 -1.80886e-12 -1.68356e-13)
(2.793e-13 -1.46405e-12 -1.33747e-13)
(1.68087e-13 -1.19666e-12 -1.07776e-13)
(8.89876e-14 -9.84563e-13 -8.80225e-14)
(3.29589e-14 -4.67966e-13 -7.29551e-14)
(7.04027e-12 -3.37678e-12 -1.16583e-12)
(2.91149e-12 -6.35487e-12 -8.38544e-13)
(1.87524e-12 -5.42524e-12 -5.96425e-13)
(1.21402e-12 -4.04066e-12 -4.3399e-13)
(7.83361e-13 -3.06402e-12 -3.22477e-13)
(4.98471e-13 -2.36126e-12 -2.4427e-13)
(3.07679e-13 -1.84625e-12 -1.88377e-13)
(1.78762e-13 -1.46265e-12 -1.47688e-13)
(9.11723e-14 -1.16988e-12 -1.17591e-13)
(3.18229e-14 -5.47793e-13 -9.51012e-14)
(1.01304e-08 -1.32925e-11 -2.3814e-12)
(3.95483e-12 -1.73139e-11 -1.42907e-12)
(1.8112e-12 -8.0875e-12 -9.61553e-13)
(1.19066e-12 -5.7071e-12 -6.67062e-13)
(7.92951e-13 -4.12953e-12 -4.75394e-13)
(5.3231e-13 -3.05361e-12 -3.47046e-13)
(3.58271e-13 -2.3018e-12 -2.58956e-13)
(2.40207e-13 -1.76503e-12 -1.9711e-13)
(1.59051e-13 -1.3712e-12 -1.52754e-13)
(1.02882e-13 -6.32401e-13 -1.20446e-13)
(2.29608e-13 3.75774e-13 -1.90917e-14)
(2.165e-13 3.46684e-13 -1.64714e-14)
(1.89675e-13 -5.64271e-14 -1.2779e-14)
(1.64104e-13 -5.52438e-14 -9.60391e-15)
(1.39724e-13 -5.40037e-14 -6.98922e-15)
(1.16461e-13 -5.27809e-14 -4.84677e-15)
(9.42518e-14 -5.15837e-14 -3.18898e-15)
(7.30367e-14 -5.04251e-14 -2.01587e-15)
(5.27591e-14 -4.91424e-14 -1.5871e-15)
(3.34771e-14 -2.56604e-14 -2.26231e-15)
(5.04314e-13 3.40864e-13 -2.80943e-14)
(4.65341e-13 2.3945e-13 -2.40733e-14)
(3.98349e-13 -1.95305e-13 -1.89968e-14)
(3.36215e-13 -1.87448e-13 -1.47557e-14)
(2.78557e-13 -1.79888e-13 -1.12986e-14)
(2.25017e-13 -1.72702e-13 -8.60991e-15)
(1.75248e-13 -1.65864e-13 -6.55522e-15)
(1.28967e-13 -1.59374e-13 -5.12253e-15)
(8.58898e-14 -1.52743e-13 -4.35074e-15)
(4.59914e-14 -7.8952e-14 -4.58373e-15)
(6.26139e-13 2.74126e-13 -4.55433e-14)
(5.5638e-13 6.86042e-14 -3.91908e-14)
(4.59362e-13 -3.92472e-13 -3.15866e-14)
(3.73346e-13 -3.66913e-13 -2.54468e-14)
(2.97042e-13 -3.43261e-13 -2.05265e-14)
(2.293e-13 -3.21482e-13 -1.67164e-14)
(1.69107e-13 -3.01382e-13 -1.38148e-14)
(1.15602e-13 -2.82805e-13 -1.16706e-14)
(6.80074e-14 -2.6491e-13 -1.03246e-14)
(2.58969e-14 -1.35196e-13 -9.8682e-15)
(8.2592e-13 1.56478e-13 -7.79453e-14)
(7.07098e-13 -1.98739e-13 -6.68679e-14)
(5.66133e-13 -6.72548e-13 -5.44631e-14)
(4.46816e-13 -6.10552e-13 -4.46132e-14)
(3.45707e-13 -5.55289e-13 -3.68551e-14)
(2.59902e-13 -5.06081e-13 -3.07386e-14)