/*--------------------------------*- C++ -*----------------------------------*\
| =========                 |                                                 |
| \\      /  F ield         | OpenFOAM: The Open Source CFD Toolbox           |
|  \\    /   O peration     | Version:  4.1                                   |
|   \\  /    A nd           | Web:      www.OpenFOAM.org                      |
|    \\/     M anipulation  |                                                 |
\*---------------------------------------------------------------------------*/
FoamFile
{
    version     2.0;
    format      ascii;
    class       volScalarField;
    location    "0.12";
    object      Ma;
}
// * * * * * * * * * * * * * * * * * * * * * * * * * * * * * * * * * * * * * //

dimensions      [0 0 0 0 0 0 0];

internalField   nonuniform List<scalar> 
18000
(
5.85977e-12
5.79116e-12
5.71291e-12
5.64599e-12
5.58002e-12
5.51493e-12
5.45079e-12
5.38754e-12
5.3252e-12
5.2642e-12
7.39432e-12
7.12296e-12
6.85418e-12
6.60578e-12
6.36845e-12
6.14141e-12
5.92434e-12
5.71652e-12
5.51755e-12
5.32855e-12
9.45645e-12
8.85391e-12
8.28962e-12
7.77483e-12
7.29877e-12
6.85796e-12
6.44961e-12
6.07074e-12
5.71895e-12
5.39391e-12
1.22736e-11
1.11329e-11
1.01131e-11
9.20894e-12
8.40219e-12
7.68056e-12
7.03365e-12
6.45255e-12
5.92945e-12
5.46041e-12
1.61922e-11
1.41757e-11
1.24535e-11
1.09817e-11
9.71774e-12
8.62778e-12
7.68417e-12
6.86445e-12
6.14967e-12
5.52818e-12
2.17538e-11
1.83016e-11
1.54926e-11
1.31913e-11
1.12952e-11
9.72246e-12
8.41028e-12
7.30919e-12
6.38017e-12
5.59691e-12
2.98279e-11
2.39931e-11
1.94881e-11
1.597e-11
1.31979e-11
1.09925e-11
9.22247e-12
7.78994e-12
6.62154e-12
5.66682e-12
4.18528e-11
3.19922e-11
2.4813e-11
1.94969e-11
1.55074e-11
1.24718e-11
1.0133e-11
8.31025e-12
6.87428e-12
5.73819e-12
9.13146e-10
8.66532e-10
8.08411e-10
7.57538e-10
7.12655e-10
6.72761e-10
6.37069e-10
6.0495e-10
5.75897e-10
5.5121e-10
1.08153e-07
2.20017e-08
1.87117e-08
1.60873e-08
1.39336e-08
1.21443e-08
1.06416e-08
9.36733e-09
8.26867e-09
1.0702e-08
5.92539e-12
5.85387e-12
5.77608e-12
5.70708e-12
5.63927e-12
5.57262e-12
5.50683e-12
5.4423e-12
5.37872e-12
5.31642e-12
7.49347e-12
7.21273e-12
6.94456e-12
6.68911e-12
6.44555e-12
6.21293e-12
5.99097e-12
5.77887e-12
5.57621e-12
5.38257e-12
9.59475e-12
8.97554e-12
8.41189e-12
7.88388e-12
7.39644e-12
6.94583e-12
6.52897e-12
6.14271e-12
5.78448e-12
5.45055e-12
1.24748e-11
1.13076e-11
1.02842e-11
9.35635e-12
8.5298e-12
7.79159e-12
7.13077e-12
6.53801e-12
6.00477e-12
5.52061e-12
1.64941e-11
1.44361e-11
1.26979e-11
1.11845e-11
9.88724e-12
8.7703e-12
7.80486e-12
6.96725e-12
6.23771e-12
5.59289e-12
2.22207e-11
1.86999e-11
1.58471e-11
1.34737e-11
1.15226e-11
9.90725e-12
8.56178e-12
7.43441e-12
6.48425e-12
5.66737e-12
3.05694e-11
2.46168e-11
2.00091e-11
1.63674e-11
1.35055e-11
1.12335e-11
9.41351e-12
7.94322e-12
6.74517e-12
5.74427e-12
4.30684e-11
3.29882e-11
2.55892e-11
2.00615e-11
1.59261e-11
1.27875e-11
1.03748e-11
8.49799e-12
7.02154e-12
5.82364e-12
6.36222e-11
4.68198e-11
3.48164e-11
2.63529e-11
2.03235e-11
1.59392e-11
1.26923e-11
1.02477e-11
8.37811e-12
6.89342e-12
5.5142e-08
9.85431e-09
8.48993e-09
7.38804e-09
6.48798e-09
5.74344e-09
5.12066e-09
4.59456e-09
4.14629e-09
3.78818e-09
3.94168e-13
3.68639e-13
1.83621e-13
1.62938e-13
1.43487e-13
1.25504e-13
1.09161e-13
9.47677e-14
8.2551e-14
6.40049e-14
5.4245e-13
4.68882e-13
3.95256e-13
3.44401e-13
2.98091e-13
2.56556e-13
2.20025e-13
1.88944e-13
1.63635e-13
9.63026e-14
6.1144e-13
5.0323e-13
5.35602e-13
4.65513e-13
4.04814e-13
3.53279e-13
3.10361e-13
2.75553e-13
2.47529e-13
1.33226e-13
7.54238e-13
6.55901e-13
7.75577e-13
6.68857e-13
5.79135e-13
5.04608e-13
4.43047e-13
3.92734e-13
3.50784e-13
1.82011e-13
9.98322e-13
9.73412e-13
1.12707e-12
9.54813e-13
8.13643e-13
6.98605e-13
6.04666e-13
5.27968e-13
4.63649e-13
2.34651e-13
1.41003e-12
1.52531e-12
1.63492e-12
1.34941e-12
1.12251e-12
9.42241e-13
7.98018e-13
6.8207e-13
5.86185e-13
2.90719e-13
2.09447e-12
2.4194e-12
2.36862e-12
1.89147e-12
1.52667e-12
1.24611e-12
1.02789e-12
8.5678e-13
7.1879e-13
3.49938e-13
3.23347e-12
3.84234e-12
3.43506e-12
2.6377e-12
2.05517e-12
1.62428e-12
1.30072e-12
1.05461e-12
8.62145e-13
4.12304e-13
2.32536e-11
6.09298e-12
4.98051e-12
3.65783e-12
2.73963e-12
2.09006e-12
1.62106e-12
1.27677e-12
1.01657e-12
4.78105e-13
5.03117e-08
1.54503e-10
1.04507e-10
7.89297e-11
6.07431e-11
4.75191e-11
3.77167e-11
3.0326e-11
2.46683e-11
2.01272e-11
3.88387e-13
3.62536e-13
1.72481e-13
1.51055e-13
1.30662e-13
1.115e-13
9.36506e-14
7.73269e-14
6.28601e-14
3.66907e-14
5.34387e-13
4.60442e-13
3.86586e-13
3.35667e-13
2.8916e-13
2.47366e-13
2.10518e-13
1.7899e-13
1.53182e-13
7.95667e-14
5.96964e-13
4.88582e-13
5.24359e-13
4.54866e-13
3.94794e-13
3.43767e-13
3.013e-13
2.6704e-13
2.39492e-13
1.2027e-13
7.28996e-13
6.33657e-13
7.61403e-13
6.56436e-13
5.68129e-13
4.94861e-13
4.34402e-13
3.85065e-13
3.4398e-13
1.71624e-13
9.54777e-13
9.42507e-13
1.10868e-12
9.39756e-13
8.01209e-13
6.88254e-13
5.95982e-13
5.20682e-13
4.57538e-13
2.25658e-13
1.33549e-12
1.48321e-12
1.61056e-12
1.33082e-12
1.10815e-12
9.31035e-13
7.89137e-13
6.75006e-13
5.80556e-13
2.82636e-13
1.96682e-12
2.36048e-12
2.33567e-12
1.86821e-12
1.50998e-12
1.23391e-12
1.01886e-12
8.50041e-13
7.13733e-13
3.42603e-13
3.00955e-12
3.75683e-12
3.38957e-12
2.60839e-12
2.03571e-12
1.6112e-12
1.29173e-12
1.04836e-12
8.57862e-13
4.05812e-13
2.37373e-11
6.00189e-12
4.93644e-12
3.63267e-12
2.72464e-12
2.08083e-12
1.61518e-12
1.27279e-12
1.01367e-12
4.72256e-13
5.35482e-08
7.01222e-11
7.23915e-12
5.04014e-12
3.63445e-12
2.67928e-12
2.01435e-12
1.54098e-12
1.1937e-12
5.55228e-13
3.88507e-13
3.62318e-13
1.72947e-13
1.51433e-13
1.30984e-13
1.11758e-13
9.3906e-14
7.75449e-14
6.29921e-14
3.68017e-14
5.3504e-13
4.60871e-13
3.87588e-13
3.36512e-13
2.89879e-13
2.47954e-13
2.10992e-13
1.79405e-13
1.53489e-13
7.97606e-14
5.98371e-13
4.89988e-13
5.26156e-13
4.56355e-13
3.95966e-13
3.44754e-13
3.02067e-13
2.67595e-13
2.39872e-13
1.20525e-13
7.31935e-13
6.36827e-13
7.64305e-13
6.58828e-13
5.70032e-13
4.96387e-13
4.35642e-13
3.85997e-13
3.4465e-13
1.72012e-13
9.60508e-13
9.48404e-13
1.11357e-12
9.43645e-13
8.04323e-13
6.9071e-13
5.97897e-13
5.22188e-13
4.58679e-13
2.26453e-13
1.34638e-12
1.49359e-12
1.6188e-12
1.33729e-12
1.11321e-12
9.35038e-13
7.92314e-13
6.77519e-13
5.82522e-13
2.83981e-13
1.98716e-12
2.37881e-12
2.34987e-12
1.87902e-12
1.51833e-12
1.24042e-12
1.02395e-12
8.54014e-13
7.16925e-13
3.44867e-13
3.04756e-12
3.78958e-12
3.41398e-12
2.62649e-12
2.04935e-12
1.62161e-12
1.29976e-12
1.05461e-12
8.62749e-13
4.09278e-13
2.37574e-11
6.06139e-12
4.97882e-12
3.66297e-12
2.74668e-12
2.09721e-12
1.62753e-12
1.28224e-12
1.02101e-12
4.77264e-13
5.38045e-08
7.03782e-11
7.2456e-12
5.04816e-12
3.64231e-12
2.68605e-12
2.01953e-12
1.54509e-12
1.19704e-12
5.55246e-13
3.8857e-13
3.61976e-13
1.7355e-13
1.51938e-13
1.31378e-13
1.12111e-13
9.4179e-14
7.78037e-14
6.32087e-14
3.69016e-14
5.35857e-13
4.61404e-13
3.88876e-13
3.37614e-13
2.90806e-13
2.48715e-13
2.11619e-13
1.79895e-13
1.53889e-13
8.00504e-14
6.00206e-13
4.91824e-13
5.2844e-13
4.58272e-13
3.97546e-13
3.45987e-13
3.03069e-13
2.68321e-13
2.40378e-13
1.20876e-13
7.35747e-13
6.40969e-13
7.6811e-13
6.61895e-13
5.72555e-13
4.98337e-13
4.37126e-13
3.87184e-13
3.45502e-13
1.72606e-13
9.68032e-13
9.56085e-13
1.1199e-12
9.48656e-13
8.0831e-13
6.93914e-13
6.00404e-13
5.24131e-13
4.60198e-13
2.27535e-13
1.36069e-12
1.50723e-12
1.62956e-12
1.34568e-12
1.11976e-12
9.40206e-13
7.96407e-13
6.80722e-13
5.85086e-13
2.85791e-13
2.01401e-12
2.40279e-12
2.3683e-12
1.89311e-12
1.52914e-12
1.24887e-12
1.03056e-12
8.592e-13
7.2102e-13
3.47763e-13
3.09801e-12
3.83253e-12
3.44585e-12
2.65009e-12
2.06707e-12
1.63509e-12
1.31015e-12
1.0627e-12
8.69085e-13
4.13654e-13
2.38606e-11
6.13911e-12
5.03409e-12
3.70234e-12
2.77531e-12
2.11843e-12
1.64349e-12
1.29442e-12
1.03043e-12
4.83746e-13
5.36862e-08
7.05192e-11
7.3368e-12
5.11094e-12
3.68658e-12
2.71799e-12
2.04306e-12
1.5628e-12
1.21052e-12
5.64344e-13
3.88666e-13
3.61629e-13
1.7426e-13
1.52559e-13
1.31928e-13
1.12563e-13
9.45578e-14
7.80828e-14
6.34205e-14
3.70712e-14
5.36873e-13
4.62074e-13
3.90453e-13
3.38916e-13
2.91945e-13
2.49716e-13
2.1243e-13
1.80516e-13
1.54271e-13
8.0343e-14
6.02453e-13
4.94057e-13
5.31221e-13
4.60579e-13
3.99438e-13
3.47569e-13
3.04261e-13
2.692e-13
2.4102e-13
1.21265e-13
7.40434e-13
6.46001e-13
7.72733e-13
6.65652e-13
5.75591e-13
5.00786e-13
4.38989e-13
3.88597e-13
3.46604e-13
1.73333e-13
9.77273e-13
9.65478e-13
1.12761e-12
9.54816e-13
8.13179e-13
6.97807e-13
6.03475e-13
5.26509e-13
4.62043e-13
2.28857e-13
1.37826e-12
1.52376e-12
1.64264e-12
1.35591e-12
1.12784e-12
9.4656e-13
8.01428e-13
6.84653e-13
5.88183e-13
2.88023e-13
2.04701e-12
2.43207e-12
2.39083e-12
1.91033e-12
1.54241e-12
1.25917e-12
1.03866e-12
8.6553e-13
7.26048e-13
3.51365e-13
3.16006e-12
3.88508e-12
3.48497e-12
2.67902e-12
2.08879e-12
1.65161e-12
1.32292e-12
1.07259e-12
8.76801e-13
4.1909e-13
2.41898e-11
6.23466e-12
5.10198e-12
3.75077e-12
2.81054e-12
2.14445e-12
1.66308e-12
1.30936e-12
1.04191e-12
4.91584e-13
5.45712e-08
7.18698e-11
7.45091e-12
5.18867e-12
3.74133e-12
2.75746e-12
2.07216e-12
1.58463e-12
1.22705e-12
5.75483e-13
3.88766e-13
3.61065e-13
1.75035e-13
1.53206e-13
1.3253e-13
1.1312e-13
9.50836e-14
7.86768e-14
6.5683e-14
6.44848e-14
5.38005e-13
4.62685e-13
3.92142e-13
3.40398e-13
2.93228e-13
2.50836e-13
2.13404e-13
1.8148e-13
1.55517e-13
8.91886e-14
6.05016e-13
4.96346e-13
5.34241e-13
4.63123e-13
4.01585e-13
3.49365e-13
3.05788e-13
2.70427e-13
2.42269e-13
1.25835e-13
7.45808e-13
6.51252e-13
7.77708e-13
6.69743e-13
5.78928e-13
5.03549e-13
4.41318e-13
3.90475e-13
3.48307e-13
1.76925e-13
9.87813e-13
9.75326e-13
1.13587e-12
9.61475e-13
8.18544e-13
7.02147e-13
6.07108e-13
5.29516e-13
4.64648e-13
2.32528e-13
1.39814e-12
1.54128e-12
1.6566e-12
1.36695e-12
1.13656e-12
9.53599e-13
8.07259e-13
6.89539e-13
5.92229e-13
2.92496e-13
2.08391e-12
2.46305e-12
2.4147e-12
1.9288e-12
1.55682e-12
1.2706e-12
1.04795e-12
8.73241e-13
7.32264e-13
3.57076e-13
3.2286e-12
3.94016e-12
3.52633e-12
2.7101e-12
2.1124e-12
1.66985e-12
1.33734e-12
1.08441e-12
8.86347e-13
4.26762e-13
2.42066e-11
6.33374e-12
5.17369e-12
3.80264e-12
2.84879e-12
2.1732e-12
1.68512e-12
1.32679e-12
1.05596e-12
5.0195e-13
6.07186e-08
7.01989e-11
7.56574e-12
5.27149e-12
3.80063e-12
2.80091e-12
2.10469e-12
1.60981e-12
1.24702e-12
5.89648e-13
3.87398e-13
3.87449e-13
2.01855e-13
1.6085e-13
1.3412e-13
1.67717e-13
2.78201e-13
7.9722e-13
3.58216e-12
1.30502e-11
5.36918e-13
5.09272e-13
4.20626e-13
3.51934e-13
2.93442e-13
2.711e-13
3.17618e-13
6.15373e-13
2.13129e-12
8.20646e-12
6.03967e-13
5.75463e-13
5.7345e-13
4.82584e-13
4.04413e-13
3.54452e-13
3.75012e-13
5.25502e-13
1.3995e-12
5.14497e-12
7.42917e-13
7.49785e-13
8.19892e-13
6.9182e-13
5.83389e-13
5.02587e-13
4.76629e-13
5.35778e-13
1.01759e-12
3.40341e-12
9.79086e-13
1.07143e-12
1.17292e-12
9.802e-13
8.21219e-13
6.97468e-13
6.22559e-13
6.18067e-13
8.57769e-13
2.37552e-12
1.37657e-12
1.61284e-12
1.67821e-12
1.37472e-12
1.1322e-12
9.43629e-13
8.10553e-13
7.58311e-13
8.32925e-13
1.74824e-12
2.03835e-12
2.48773e-12
2.40704e-12
1.91581e-12
1.53866e-12
1.25168e-12
1.04133e-12
9.17317e-13
8.90291e-13
1.35985e-12
3.13971e-12
3.88942e-12
3.47015e-12
2.6636e-12
2.07222e-12
1.63718e-12
1.32056e-12
1.1098e-12
1.00363e-12
1.12423e-12
1.71781e-11
6.15776e-12
5.04299e-12
3.70646e-12
2.77645e-12
2.12068e-12
1.65629e-12
1.33725e-12
1.15703e-12
9.92159e-13
3.14824e-08
4.92005e-11
7.27178e-12
5.10162e-12
3.6821e-12
2.72056e-12
2.05926e-12
1.60581e-12
1.32238e-12
9.37247e-13
2.54453e-12
2.40845e-12
1.54666e-12
1.61665e-13
2.60096e-12
8.17839e-12
2.22515e-11
6.95553e-11
3.0229e-10
1.12866e-09
3.58162e-12
3.4824e-12
2.59334e-12
1.19941e-12
1.30183e-12
6.02959e-12
1.7032e-11
4.96547e-11
1.83746e-10
6.44349e-10
4.84737e-12
4.74964e-12
3.77936e-12
2.37171e-12
3.42077e-13
4.01816e-12
1.27244e-11
3.6182e-11
1.19997e-10
3.94488e-10
6.50078e-12
6.33061e-12
5.18688e-12
3.68162e-12
1.5192e-12
2.24472e-12
9.35209e-12
2.68735e-11
8.26777e-11
2.54853e-10
8.69865e-12
8.33603e-12
6.8866e-12
5.17299e-12
2.94099e-12
8.01921e-13
6.59002e-12
2.01102e-11
5.9066e-11
1.71897e-10
1.16768e-11
1.0924e-11
8.97587e-12
6.90265e-12
4.47802e-12
1.36164e-12
4.28931e-12
1.49597e-11
4.32846e-11
1.20071e-10
1.5796e-11
1.43281e-11
1.15877e-11
8.94581e-12
6.17266e-12
2.8951e-12
2.37016e-12
1.10536e-11
3.22737e-11
8.62904e-11
2.1631e-11
1.88919e-11
1.49081e-11
1.14014e-11
8.07525e-12
4.53169e-12
1.22619e-12
7.9489e-12
2.42989e-11
6.34566e-11
3.00864e-11
2.5145e-11
1.92045e-11
1.43992e-11
1.02513e-11
6.26722e-12
2.03643e-12
5.43168e-12
1.83388e-11
4.75298e-11
1.63251e-07
9.44224e-11
2.4834e-11
1.8093e-11
1.27648e-11
8.12476e-12
3.54643e-12
3.42488e-12
1.38325e-11
3.60708e-11
3.46283e-12
3.11346e-12
2.06148e-12
1.91497e-12
8.19902e-12
2.70524e-11
9.48584e-11
4.58603e-10
2.2031e-09
2.94787e-09
4.59656e-12
4.28184e-12
3.27396e-12
1.69726e-12
5.13669e-12
1.90095e-11
6.44739e-11
2.69421e-10
1.17781e-09
1.50176e-09
5.97977e-12
5.63894e-12
4.64045e-12
2.87412e-12
2.77363e-12
1.28758e-11
4.44685e-11
1.6955e-10
6.80524e-10
8.39435e-10
7.75599e-12
7.28627e-12
6.1955e-12
4.43669e-12
1.99848e-12
8.25309e-12
3.09421e-11
1.11991e-10
4.17119e-10
5.02328e-10
1.00947e-11
9.33903e-12
8.01339e-12
6.17226e-12
3.29329e-12
4.72765e-12
2.1383e-11
7.63336e-11
2.67842e-10
3.16939e-10
1.32489e-11
1.19595e-11
1.01975e-11
8.1102e-12
5.17108e-12
2.49687e-12
1.4333e-11
5.30095e-11
1.78471e-10
2.08454e-10
1.76059e-11
1.53825e-11
1.28889e-11
1.03311e-11
7.21414e-12
2.91814e-12
9.088e-12
3.7114e-11
1.22295e-10
1.41668e-10
2.3779e-11
1.9955e-11
1.62823e-11
1.29438e-11
9.42287e-12
4.89397e-12
5.13162e-12
2.58877e-11
8.55961e-11
9.8805e-11
3.94567e-11
2.61943e-11
2.06515e-11
1.60923e-11
1.18696e-11
7.11958e-12
2.69925e-12
1.76986e-11
6.07806e-11
7.03122e-11
2.76161e-08
1.46872e-09
2.6368e-11
1.99453e-11
1.46329e-11
9.42301e-12
3.23931e-12
1.16071e-11
4.35063e-11
5.06195e-11
1.00157e-12
1.25669e-12
1.53684e-12
3.26037e-12
8.71015e-12
2.59741e-11
8.95038e-11
3.56857e-10
7.42851e-10
6.44532e-10
1.07656e-12
1.24794e-12
1.39034e-12
2.45545e-12
6.15664e-12
1.79409e-11
5.89476e-11
2.17048e-10
4.03823e-10
3.58246e-10
1.15391e-12
1.27678e-12
1.36763e-12
1.97284e-12
4.38956e-12
1.24979e-11
3.97554e-11
1.3753e-10
2.33487e-10
2.10437e-10
1.23058e-12
1.33083e-12
1.42078e-12
1.76265e-12
3.22667e-12
8.77299e-12
2.72838e-11
9.00362e-11
1.41436e-10
1.31082e-10
1.30915e-12
1.39891e-12
1.50691e-12
1.72719e-12
2.52853e-12
6.22313e-12
1.89942e-11
6.05217e-11
8.89112e-11
8.61515e-11
1.39206e-12
1.47646e-12
1.60403e-12
1.78069e-12
2.18437e-12
4.49679e-12
1.33624e-11
4.16243e-11
5.75214e-11
5.94075e-11
1.48275e-12
1.56162e-12
1.70391e-12
1.87095e-12
2.07631e-12
3.38268e-12
9.465e-12
2.90529e-11
3.80757e-11
4.27444e-11
1.58587e-12
1.6555e-12
1.80498e-12
1.97218e-12
2.09591e-12
2.73739e-12
6.78053e-12
2.05425e-11
2.56541e-11
3.19161e-11
6.51819e-11
1.79233e-12
1.90841e-12
2.07576e-12
2.17243e-12
2.43166e-12
4.94994e-12
1.46803e-11
1.7529e-11
2.46131e-11
4.82034e-08
1.31759e-09
2.11593e-12
2.17554e-12
2.26426e-12
2.33309e-12
3.73354e-12
1.05744e-11
1.19977e-11
1.94405e-11
7.9715e-13
1.51196e-12
1.61086e-12
2.52129e-12
4.15547e-12
7.28241e-12
1.50811e-11
5.01001e-11
3.20714e-10
9.66846e-10
7.31649e-13
1.35836e-12
1.39773e-12
2.15438e-12
3.49189e-12
5.97433e-12
1.14995e-11
3.19499e-11
1.90348e-10
5.20176e-10
6.68693e-13
1.21478e-12
1.20401e-12
1.8314e-12
2.92756e-12
4.91114e-12
8.99586e-12
2.16645e-11
1.17659e-10
3.01014e-10
6.14813e-13
1.09272e-12
1.04297e-12
1.56691e-12
2.47137e-12
4.07922e-12
7.20848e-12
1.55421e-11
7.5401e-11
1.84249e-10
5.68685e-13
9.88494e-13
9.08459e-13
1.34767e-12
2.10023e-12
3.41995e-12
5.8801e-12
1.16808e-11
4.98198e-11
1.17851e-10
5.28975e-13
8.99225e-13
7.95547e-13
1.16642e-12
1.79722e-12
2.888e-12
4.8637e-12
9.10511e-12
3.37968e-11
7.81133e-11
4.94635e-13
8.22114e-13
7.00458e-13
1.01485e-12
1.54551e-12
2.45476e-12
4.06973e-12
7.28752e-12
2.34644e-11
5.33203e-11
4.65304e-13
7.55124e-13
6.19928e-13
8.8712e-13
1.3366e-12
2.10037e-12
3.43521e-12
5.95509e-12
1.66261e-11
3.73132e-11
1.1422e-10
1.00645e-12
5.50878e-13
7.79453e-13
1.16214e-12
1.80759e-12
2.92067e-12
4.9432e-12
1.19991e-11
2.66757e-11
4.75849e-08
4.59948e-09
4.65815e-12
6.57877e-13
1.01142e-12
1.5575e-12
2.49085e-12
4.13965e-12
8.78899e-12
1.94054e-11
1.07375e-12
1.86724e-12
1.61286e-12
2.17726e-12
3.03603e-12
4.40752e-12
7.0663e-12
1.4197e-11
5.67811e-11
1.173e-10
1.00021e-12
1.7122e-12
1.4462e-12
1.93981e-12
2.68315e-12
3.83384e-12
5.86395e-12
1.06992e-11
3.99048e-11
7.73233e-11
9.28509e-13
1.56321e-12
1.28543e-12
1.71398e-12
2.35631e-12
3.33231e-12
4.94087e-12
8.32911e-12
2.81446e-11
5.28691e-11
8.66174e-13
1.43357e-12
1.14708e-12
1.51949e-12
2.07749e-12
2.91451e-12
4.2357e-12
6.72446e-12
2.00889e-11
3.72237e-11
8.11996e-13
1.32043e-12
1.02814e-12
1.35253e-12
1.83951e-12
2.56377e-12
3.67624e-12
5.59383e-12
1.45037e-11
2.67999e-11
7.647e-13
1.22128e-12
9.25374e-13
1.2087e-12
1.63405e-12
2.265e-12
3.21912e-12
4.75894e-12
1.05832e-11
1.96388e-11
7.23122e-13
1.13388e-12
8.36389e-13
1.08412e-12
1.4567e-12
2.00934e-12
2.83598e-12
4.11367e-12
7.79628e-12
1.4599e-11
6.8701e-13
1.05649e-12
7.59025e-13
9.75904e-13
1.30292e-12
1.78814e-12
2.50976e-12
3.59568e-12
5.79521e-12
1.09844e-11
1.73471e-10
1.61189e-12
6.91122e-13
8.8171e-13
1.16921e-12
1.59607e-12
2.23049e-12
3.16726e-12
4.34559e-12
8.34731e-12
5.8398e-08
8.15834e-09
1.11162e-11
7.54865e-13
1.04934e-12
1.42484e-12
1.983e-12
2.79674e-12
3.27017e-12
6.3815e-12
1.49742e-12
2.36817e-12
1.62245e-12
1.90671e-12
2.28857e-12
2.8342e-12
3.81532e-12
6.03447e-12
1.70059e-11
2.36149e-11
1.41625e-12
2.21586e-12
1.5063e-12
1.77248e-12
2.12684e-12
2.60733e-12
3.37395e-12
4.94008e-12
1.29629e-11
1.83448e-11
1.33571e-12
2.06473e-12
1.384e-12
1.63007e-12
1.95742e-12
2.38883e-12
3.01938e-12
4.16018e-12
9.78702e-12
1.42142e-11
1.26448e-12
1.92957e-12
1.27351e-12
1.50004e-12
1.80234e-12
2.196e-12
2.73951e-12
3.61315e-12
7.40713e-12
1.10783e-11
1.20145e-12
1.80854e-12
1.17444e-12
1.38212e-12
1.66137e-12
2.02336e-12
2.50759e-12
3.214e-12
5.61522e-12
8.67469e-12
1.14545e-12
1.69978e-12
1.08565e-12
1.27562e-12
1.53262e-12
1.86694e-12
2.30634e-12
2.90641e-12
4.25934e-12
6.81757e-12
1.09554e-12
1.60191e-12
1.00597e-12
1.17923e-12
1.4153e-12
1.72422e-12
2.12856e-12
2.65563e-12
3.23015e-12
5.37156e-12
1.05143e-12
1.51345e-12
9.34453e-13
1.09208e-12
1.30858e-12
1.59385e-12
1.96765e-12
2.44288e-12
2.44623e-12
4.23902e-12
2.37058e-10
2.37354e-12
8.69863e-13
1.01329e-12
1.21146e-12
1.47462e-12
1.82093e-12
2.25583e-12
1.8485e-12
3.34615e-12
4.63095e-08
1.13694e-08
1.80249e-11
8.98728e-13
1.12001e-12
1.36184e-12
1.68135e-12
2.08146e-12
1.3812e-12
2.6322e-12
2.12699e-12
3.01645e-12
1.57295e-12
1.60738e-12
1.66902e-12
1.79973e-12
2.14961e-12
2.98583e-12
6.89647e-12
8.33434e-12
2.04033e-12
2.87647e-12
1.51473e-12
1.56454e-12
1.63562e-12
1.74687e-12
1.99317e-12
2.57286e-12
5.58448e-12
6.97576e-12
1.95357e-12
2.73284e-12
1.43998e-12
1.50122e-12
1.58179e-12
1.6871e-12
1.87418e-12
2.27608e-12
4.41197e-12
5.73349e-12
1.87518e-12
2.60031e-12
1.36682e-12
1.4357e-12
1.52376e-12
1.62973e-12
1.7866e-12
2.07579e-12
3.46877e-12
4.71248e-12
1.80439e-12
2.47825e-12
1.29671e-12
1.37051e-12
1.46412e-12
1.57302e-12
1.71595e-12
1.9383e-12
2.70878e-12
3.8709e-12
1.74033e-12
2.36589e-12
1.23034e-12
1.30645e-12
1.40352e-12
1.51579e-12
1.65399e-12
1.83794e-12
2.09553e-12
3.17404e-12
1.68228e-12
2.26236e-12
1.16774e-12
1.24445e-12
1.34306e-12
1.45784e-12
1.59522e-12
1.75876e-12
1.59911e-12
2.59585e-12
1.63e-12
2.16682e-12
1.10909e-12
1.18509e-12
1.28378e-12
1.39967e-12
1.53719e-12
1.69109e-12
1.19802e-12
2.11519e-12
3.0471e-10
3.24954e-12
1.05406e-12
1.12858e-12
1.22609e-12
1.342e-12
1.47976e-12
1.62946e-12
8.7541e-13
1.7157e-12
1.21753e-08
1.32383e-08
3.90707e-11
1.03089e-12
1.16735e-12
1.28212e-12
1.41851e-12
1.56554e-12
6.04938e-13
1.38127e-12
3.00217e-12
3.76438e-12
1.39081e-12
1.21548e-12
1.06922e-12
1.00299e-12
1.13763e-12
1.55326e-12
3.46031e-12
3.82106e-12
2.91513e-12
3.65171e-12
1.39353e-12
1.25015e-12
1.12255e-12
1.0366e-12
1.08048e-12
1.35301e-12
2.96882e-12
3.40156e-12
2.82766e-12
3.53183e-12
1.37343e-12
1.25934e-12
1.15361e-12
1.06676e-12
1.05751e-12
1.21424e-12
2.4475e-12
2.93024e-12
2.74687e-12
3.41716e-12
1.34585e-12
1.2564e-12
1.17166e-12
1.09316e-12
1.05828e-12
1.13289e-12
2.0005e-12
2.51941e-12
2.67234e-12
3.30824e-12
1.31403e-12
1.24535e-12
1.17981e-12
1.11378e-12
1.0704e-12
1.09328e-12
1.61766e-12
2.16128e-12
2.60367e-12
3.20503e-12
1.27932e-12
1.22811e-12
1.17968e-12
1.12751e-12
1.08573e-12
1.07954e-12
1.28932e-12
1.84939e-12
2.54032e-12
3.10757e-12
1.24312e-12
1.20646e-12
1.17291e-12
1.1345e-12
1.09972e-12
1.07974e-12
1.00829e-12
1.57798e-12
2.48237e-12
3.0156e-12
1.20638e-12
1.18185e-12
1.16097e-12
1.13525e-12
1.10971e-12
1.08626e-12
7.68104e-13
1.34289e-12
3.75841e-10
4.16954e-12
1.16962e-12
1.15522e-12
1.14513e-12
1.13089e-12
1.11525e-12
1.09452e-12
5.64247e-13
1.14065e-12
2.69138e-08
1.27567e-08
3.94057e-11
1.09009e-12
1.12365e-12
1.11964e-12
1.11317e-12
1.09789e-12
3.85943e-13
9.7056e-13
4.07953e-12
4.50108e-12
1.06453e-12
7.60191e-13
4.9513e-13
3.4859e-13
4.86593e-13
7.96756e-13
2.08792e-12
2.10921e-12
3.99836e-12
4.43001e-12
1.11102e-12
8.42839e-13
6.00776e-13
4.18984e-13
4.30309e-13
6.57007e-13
1.92e-12
2.0021e-12
3.91794e-12
4.35157e-12
1.13496e-12
9.01348e-13
6.84975e-13
4.98948e-13
4.26804e-13
5.53808e-13
1.67299e-12
1.80655e-12
3.84189e-12
4.27238e-12
1.14732e-12
9.44136e-13
7.51938e-13
5.73819e-13
4.5937e-13
4.93616e-13
1.4524e-12
1.62953e-12
3.77018e-12
4.19408e-12
1.1515e-12
9.7518e-13
8.05784e-13
6.40719e-13
5.09853e-13
4.74994e-13
1.25615e-12
1.46937e-12
3.70302e-12
4.1172e-12
1.14917e-12
9.96966e-13
8.4863e-13
6.98692e-13
5.65449e-13
4.87975e-13
1.08291e-12
1.32532e-12
3.63999e-12
4.04232e-12
1.14196e-12
1.01107e-12
8.81973e-13
7.47734e-13
6.19634e-13
5.20194e-13
9.31567e-13
1.19669e-12
3.58138e-12
3.96982e-12
1.13102e-12
1.01909e-12
9.07513e-13
7.88569e-13
6.69424e-13
5.6164e-13
8.01328e-13
1.08263e-12
4.42165e-10
5.07779e-12
1.11732e-12
1.02216e-12
9.2674e-13
8.22374e-13
7.13664e-13
6.05962e-13
6.92195e-13
9.82718e-13
6.97319e-08
9.50366e-09
3.67966e-11
1.00413e-12
9.38414e-13
8.47961e-13
7.50464e-13
6.46937e-13
6.03361e-13
9.01827e-13
5.15213e-12
5.07855e-12
7.54514e-13
4.99046e-13
2.71875e-13
1.53817e-13
2.68144e-13
4.51987e-13
1.49936e-12
1.3647e-12
5.08074e-12
5.05305e-12
7.77453e-13
5.36563e-13
3.10458e-13
1.24657e-13
1.64852e-13
3.48062e-13
1.49047e-12
1.38874e-12
5.01223e-12
5.02318e-12
7.93879e-13
5.72734e-13
3.6015e-13
1.61738e-13
7.74001e-14
2.50495e-13
1.38303e-12
1.31396e-12
4.94604e-12
4.98845e-12
8.07398e-13
6.05962e-13
4.09868e-13
2.19538e-13
4.47607e-14
1.61533e-13
1.28496e-12
1.24468e-12
4.8828e-12
4.95086e-12
8.18263e-13
6.36161e-13
4.57111e-13
2.80003e-13
1.07439e-13
8.64151e-14
1.19554e-12
1.18044e-12
4.82243e-12
4.91121e-12
8.26315e-13
6.62491e-13
5.00022e-13
3.36857e-13
1.75592e-13
5.53623e-14
1.11463e-12
1.12143e-12
4.76489e-12
4.87042e-12
8.31584e-13
6.84875e-13
5.38263e-13
3.88754e-13
2.3867e-13
9.85303e-14
1.04221e-12
1.06746e-12
4.71081e-12
4.82923e-12
8.34181e-13
7.03421e-13
5.71665e-13
4.35225e-13
2.95943e-13
1.57644e-13
9.77735e-13
1.01848e-12
4.94382e-10
5.8439e-12
8.34725e-13
7.18617e-13
6.00812e-13
4.7671e-13
3.48133e-13
2.15666e-13
9.21285e-13
9.74231e-13
1.08582e-07
5.03067e-09
2.46083e-11
7.30234e-13
6.25254e-13
5.13273e-13
3.95319e-13
2.70701e-13
8.72806e-13
9.43214e-13
5.85617e-12
5.37887e-12
6.90916e-13
6.0982e-13
5.11083e-13
4.42068e-13
4.0045e-13
3.89355e-13
1.25547e-12
1.05042e-12
5.7918e-12
5.38412e-12
6.1879e-13
5.49123e-13
4.58654e-13
3.94269e-13
3.55123e-13
3.47679e-13
1.32088e-12
1.13128e-12
5.73251e-12
5.3888e-12
5.54582e-13
4.94602e-13
4.11357e-13
3.49984e-13
3.12155e-13
3.05557e-13
1.27841e-12
1.10812e-12
5.67467e-12
5.38713e-12
5.01627e-13
4.48832e-13
3.71354e-13
3.12052e-13
2.73768e-13
2.66775e-13
1.23802e-12
1.08562e-12
5.61879e-12
5.38061e-12
4.5956e-13
4.11984e-13
3.3947e-13
2.81108e-13
2.4088e-13
2.31496e-13
1.19957e-12
1.06425e-12
5.56514e-12
5.37056e-12
4.26934e-13
3.83008e-13
3.14668e-13
2.56778e-13
2.13848e-13
2.00438e-13
1.16306e-12
1.0437e-12
5.51338e-12
5.35751e-12
4.01766e-13
3.60701e-13
2.96446e-13
2.39231e-13
1.93337e-13
1.73826e-13
1.12831e-12
1.02415e-12
5.46451e-12
5.34243e-12
3.82939e-13
3.44049e-13
2.83972e-13
2.27714e-13
1.78901e-13
1.52567e-13
1.09549e-12
1.00533e-12
5.23154e-10
6.26843e-12
3.69569e-13
3.32255e-13
2.76343e-13
2.21948e-13
1.71524e-13
1.37822e-13
1.06402e-12
9.87232e-13
1.3254e-07
3.32798e-09
1.72387e-11
3.11391e-13
2.74481e-13
2.23931e-13
1.75014e-13
1.37914e-13
1.03545e-12
9.92253e-13
5.86289e-12
5.34938e-12
7.01622e-13
6.3585e-13
5.40657e-13
4.66616e-13
4.1204e-13
3.82385e-13
1.18506e-12
1.0024e-12
5.79827e-12
5.35686e-12
6.14949e-13
5.66065e-13
4.84214e-13
4.19639e-13
3.71826e-13
3.48581e-13
1.26054e-12
1.08709e-12
5.7392e-12
5.36439e-12
5.36771e-13
5.0182e-13
4.31085e-13
3.74246e-13
3.31801e-13
3.1225e-13
1.22617e-12
1.06754e-12
5.68172e-12
5.36546e-12
4.69783e-13
4.45318e-13
3.83807e-13
3.3334e-13
2.95143e-13
2.78498e-13
1.19326e-12
1.04871e-12
5.62628e-12
5.36177e-12
4.14234e-13
3.97346e-13
3.43149e-13
2.97414e-13
2.62162e-13
2.47245e-13
1.16169e-12
1.03078e-12
5.573e-12
5.35436e-12
3.68975e-13
3.57088e-13
3.08704e-13
2.66599e-13
2.33041e-13
2.18636e-13
1.13151e-12
1.01368e-12
5.52165e-12
5.34381e-12
3.32759e-13
3.2378e-13
2.80147e-13
2.40703e-13
2.0805e-13
1.93063e-13
1.10255e-12
9.97379e-13
5.47323e-12
5.33115e-12
3.0488e-13
2.96977e-13
2.57156e-13
2.19734e-13
1.87169e-13
1.70716e-13
1.07493e-12
9.81803e-13
5.23155e-10
6.26096e-12
2.84737e-13
2.7615e-13
2.39573e-13
2.03983e-13
1.71403e-13
1.52297e-13
1.04833e-12
9.66903e-13
1.3254e-07
3.32798e-09
1.72153e-11
2.40695e-13
2.29044e-13
1.96705e-13
1.65885e-13
1.45936e-13
1.02401e-12
9.84407e-13
5.16296e-12
4.99853e-12
7.19916e-13
5.15578e-13
3.32971e-13
2.28865e-13
2.63277e-13
3.88767e-13
1.25697e-12
1.20672e-12
5.09315e-12
4.98149e-12
7.18344e-13
5.22049e-13
3.35708e-13
1.95002e-13
1.8319e-13
3.03436e-13
1.28182e-12
1.24301e-12
5.02668e-12
4.96056e-12
7.197e-13
5.36397e-13
3.56377e-13
1.9767e-13
1.19132e-13
2.18976e-13
1.20352e-12
1.18115e-12
4.96258e-12
4.93444e-12
7.23484e-13
5.54178e-13
3.84848e-13
2.24244e-13
9.02791e-14
1.40208e-13
1.1319e-12
1.12413e-12
4.90115e-12
4.905e-12
7.28807e-13
5.73818e-13
4.17095e-13
2.63261e-13
1.14057e-13
6.92274e-14
1.06679e-12
1.07192e-12
4.84243e-12
4.87294e-12
7.34278e-13
5.93391e-13
4.49827e-13
3.05839e-13
1.61246e-13
2.77646e-14
1.00834e-12
1.02455e-12
4.78647e-12
4.83932e-12
7.38995e-13
6.11615e-13
4.81061e-13
3.47869e-13
2.12178e-13
7.36033e-14
9.56145e-13
9.81787e-13
4.73385e-12
4.8046e-12
7.42545e-13
6.2801e-13
5.0995e-13
3.87509e-13
2.61322e-13
1.30083e-13
9.10006e-13
9.43537e-13
4.94384e-10
5.82972e-12
7.44981e-13
6.42379e-13
5.36185e-13
4.2436e-13
3.07513e-13
1.84019e-13
8.6994e-13
9.098e-13
1.08582e-07
5.03067e-09
2.4566e-11
6.53477e-13
5.5906e-13
4.57771e-13
3.50606e-13
2.3586e-13
8.36254e-13
8.9929e-13
4.08649e-12
4.39921e-12
9.4211e-13
6.54466e-13
3.94317e-13
2.16662e-13
3.34018e-13
6.09639e-13
1.55193e-12
1.76933e-12
4.01134e-12
4.34449e-12
9.89891e-13
7.33396e-13
4.98238e-13
3.0561e-13
2.92383e-13
4.96878e-13
1.46208e-12
1.69524e-12
3.93639e-12
4.28109e-12
1.01964e-12
7.9402e-13
5.83978e-13
3.96559e-13
3.05146e-13
4.11898e-13
1.28334e-12
1.53243e-12
3.86468e-12
4.21546e-12
1.039e-12
8.40576e-13
6.53292e-13
4.77076e-13
3.51759e-13
3.66448e-13
1.12288e-12
1.38509e-12
3.7968e-12
4.1492e-12
1.05077e-12
8.76856e-13
7.10407e-13
5.47896e-13
4.12199e-13
3.61394e-13
9.8025e-13
1.2525e-12
3.73268e-12
4.08313e-12
1.05616e-12
9.04169e-13
7.57147e-13
6.09355e-13
4.74404e-13
3.86076e-13
8.55066e-13
1.13414e-12
3.67217e-12
4.01782e-12
1.05658e-12
9.24277e-13
7.94956e-13
6.61786e-13
5.33082e-13
4.27384e-13
7.46917e-13
1.02937e-12
3.61567e-12
3.95388e-12
1.05278e-12
9.3827e-13
8.25312e-13
7.06309e-13
5.86566e-13
4.75304e-13
6.56157e-13
9.37729e-13
4.42168e-10
5.07336e-12
1.04587e-12
9.47432e-13
8.49373e-13
7.4389e-13
6.34271e-13
5.24295e-13
5.82976e-13
8.59057e-13
6.97319e-08
9.50366e-09
3.67653e-11
9.36809e-13
8.66089e-13
7.73496e-13
6.74483e-13
5.69336e-13
5.27225e-13
8.02349e-13
3.01056e-12
3.6739e-12
1.23257e-12
1.03763e-12
8.77766e-13
7.88927e-13
8.65744e-13
1.16773e-12
2.28676e-12
3.05485e-12
2.93307e-12
3.58377e-12
1.25639e-12
1.09147e-12
9.48739e-13
8.45884e-13
8.51002e-13
1.04108e-12
1.99831e-12
2.74167e-12
2.85293e-12
3.48267e-12
1.25595e-12
1.11947e-12
9.97423e-13
8.95696e-13
8.59006e-13
9.5641e-13
1.64938e-12
2.36274e-12
2.77771e-12
3.38378e-12
1.24579e-12
1.13373e-12
1.03151e-12
9.38332e-13
8.8235e-13
9.15061e-13
1.34465e-12
2.03121e-12
2.70737e-12
3.28797e-12
1.22916e-12
1.13836e-12
1.0545e-12
9.73256e-13
9.12323e-13
9.0444e-13
1.08038e-12
1.74154e-12
2.64185e-12
3.19592e-12
1.20794e-12
1.13532e-12
1.06818e-12
1.00019e-12
9.42316e-13
9.1223e-13
8.51058e-13
1.48896e-12
2.5809e-12
3.1077e-12
1.18343e-12
1.12649e-12
1.07424e-12
1.01933e-12
9.68588e-13
9.29176e-13
6.52387e-13
1.26971e-12
2.52462e-12
3.02354e-12
1.15681e-12
1.11328e-12
1.07415e-12
1.03162e-12
9.89875e-13
9.49308e-13
4.8106e-13
1.08063e-12
3.75844e-10
4.18245e-12
1.12879e-12
1.09691e-12
1.06916e-12
1.03811e-12
1.00612e-12
9.69142e-13
3.36139e-13
9.19278e-13
2.69138e-08
1.27567e-08
3.93854e-11
1.04338e-12
1.05761e-12
1.03706e-12
1.01413e-12
9.83059e-13
2.07754e-13
7.86857e-13
2.14736e-12
2.9587e-12
1.41747e-12
1.38852e-12
1.39046e-12
1.44739e-12
1.64912e-12
2.15064e-12
3.97715e-12
6.24474e-12
2.0701e-12
2.84329e-12
1.39233e-12
1.38338e-12
1.39801e-12
1.44653e-12
1.58697e-12
1.9342e-12
3.29649e-12
5.27937e-12
1.9894e-12
2.71807e-12
1.34497e-12
1.35265e-12
1.38009e-12
1.42949e-12
1.53605e-12
1.7758e-12
2.62673e-12
4.35217e-12
1.9151e-12
2.60002e-12
1.29426e-12
1.3147e-12
1.35326e-12
1.40787e-12
1.49939e-12
1.672e-12
2.07681e-12
3.58311e-12
1.84717e-12
2.48936e-12
1.24255e-12
1.27292e-12
1.32077e-12
1.38178e-12
1.46902e-12
1.60321e-12
1.6269e-12
2.94459e-12
1.78481e-12