/*--------------------------------*- C++ -*----------------------------------*\
| =========                 |                                                 |
| \\      /  F ield         | OpenFOAM: The Open Source CFD Toolbox           |
|  \\    /   O peration     | Version:  4.1                                   |
|   \\  /    A nd           | Web:      www.OpenFOAM.org                      |
|    \\/     M anipulation  |                                                 |
\*---------------------------------------------------------------------------*/
FoamFile
{
    version     2.0;
    format      ascii;
    class       surfaceScalarField;
    location    "0.12";
    object      phi;
}
// * * * * * * * * * * * * * * * * * * * * * * * * * * * * * * * * * * * * * //

dimensions      [1 0 -1 0 0 0 0];

internalField   nonuniform List<scalar> 
51500
(
3.71151e-13
9.03578e-15
1.57749e-11
-2.21458e-15
1.65733e-14
1.55898e-11
-1.94365e-15
1.60149e-14
1.54075e-11
-1.94654e-15
1.52559e-14
1.52272e-11
-1.91423e-15
1.43944e-14
1.50494e-11
-1.89725e-15
1.3468e-14
1.4874e-11
-1.89452e-15
1.24931e-14
1.47011e-11
-1.87005e-15
1.14882e-14
1.45306e-11
-1.83601e-15
1.0451e-14
1.43625e-11
9.3876e-15
1.4198e-11
-7.6111e-17
3.77792e-13
6.18774e-15
1.99184e-11
-9.02894e-15
9.27014e-15
1.91863e-11
-7.41687e-15
7.9603e-15
1.84867e-11
-7.26454e-15
6.71189e-15
1.78168e-11
-7.06768e-15
5.54615e-15
1.71767e-11
-6.89875e-15
4.45221e-15
1.65643e-11
-6.72437e-15
3.42167e-15
1.59788e-11
-6.55886e-15
2.45339e-15
1.54183e-11
-6.27528e-15
1.53995e-15
1.48816e-11
6.83992e-16
1.43717e-11
-7.13839e-16
3.82977e-13
7.67673e-15
2.54856e-11
-1.79511e-14
8.7525e-15
2.38608e-11
-1.44405e-14
7.2954e-15
2.23604e-11
-1.38318e-14
5.97815e-15
2.09718e-11
-1.32238e-14
4.7891e-15
1.96875e-11
-1.26861e-14
3.71235e-15
1.84984e-11
-1.21588e-14
2.74036e-15
1.73967e-11
-1.16745e-14
1.86083e-15
1.63746e-11
-1.09603e-14
1.0705e-15
1.54255e-11
3.87614e-16
1.45484e-11
-1.38821e-15
3.85549e-13
9.69173e-15
3.30907e-11
-2.97458e-14
1.04539e-14
3.00151e-11
-2.35467e-14
8.4882e-15
2.72817e-11
-2.20351e-14
6.79629e-15
2.48422e-11
-2.06133e-14
5.32898e-15
2.26656e-11
-1.93473e-14
4.05105e-15
2.07187e-11
-1.82011e-14
2.93627e-15
1.89733e-11
-1.71614e-14
1.95988e-15
1.74055e-11
-1.58441e-14
1.10792e-15
1.59941e-11
3.9162e-16
1.47282e-11
-2.11896e-15
3.83237e-13
1.24671e-14
4.36699e-11
-4.53723e-14
1.27562e-14
3.82326e-11
-3.56408e-14
9.97604e-15
3.3599e-11
-3.24484e-14
7.77738e-15
2.96275e-11
-2.95442e-14
5.95744e-15
2.62169e-11
-2.7069e-14
4.43401e-15
2.32758e-11
-2.49447e-14
3.14798e-15
2.07297e-11
-2.3092e-14
2.06268e-15
1.85179e-11
-2.09589e-14
1.14819e-15
1.65892e-11
4.05631e-16
1.49115e-11
-2.87118e-15
3.7215e-13
1.63943e-14
5.86857e-11
-6.67402e-14
1.59336e-14
4.93766e-11
-5.17996e-14
1.191e-14
4.18038e-11
-4.57259e-14
8.9683e-15
3.55929e-11
-4.04772e-14
6.69127e-15
3.04759e-11
-3.60993e-14
4.86234e-15
2.62317e-11
-3.24933e-14
3.38237e-15
2.26907e-11
-2.94776e-14
2.17332e-15
1.97193e-11
-2.62874e-14
1.1902e-15
1.72123e-11
4.09698e-16
1.50976e-11
-3.67913e-15
3.44746e-13
2.03601e-14
8.04864e-11
-1.19917e-13
1.84673e-14
6.47512e-11
-7.32992e-14
1.36571e-14
5.25925e-11
-6.2794e-14
1.02441e-14
4.30964e-11
-5.38887e-14
8.41481e-15
3.56144e-11
-4.67183e-14
8.95142e-15
2.96619e-11
-4.09767e-14
6.6188e-15
2.48846e-11
-3.63778e-14
4.09834e-15
2.10184e-11
-3.18827e-14
1.7905e-15
1.78651e-11
7.43018e-16
1.52871e-11
-4.5105e-15
2.84707e-13
1.45758e-14
1.12959e-10
-1.80706e-13
1.30535e-14
8.63643e-11
-1.02387e-13
4.75981e-15
6.69751e-11
-8.47496e-14
-1.08827e-15
5.26233e-11
-7.05015e-14
-5.29755e-15
4.1853e-11
-5.92742e-14
-8.38108e-15
3.36584e-11
-5.05608e-14
-1.06715e-14
2.7345e-11
-4.38315e-14
-1.24009e-14
2.24248e-11
-3.77057e-14
-1.37254e-14
1.85487e-11
-1.49152e-14
1.54802e-11
-5.39044e-15
8.83801e-13
-1.68019e-10
1.60407e-10
3.79048e-13
-1.71697e-10
1.15357e-10
3.49236e-13
-1.7151e-10
8.48666e-11
3.21048e-13
-1.71309e-10
6.36954e-11
2.9477e-13
-1.71109e-10
4.87144e-11
2.70739e-13
-1.70914e-10
3.79207e-11
2.48965e-13
-1.70728e-10
3.00196e-11
2.29319e-13
-1.70549e-10
2.41535e-11
2.10981e-13
-1.70381e-10
1.97424e-11
-1.70753e-10
1.64133e-11
-6.31981e-15
-1.05595e-11
3.10011e-08
-9.09786e-07
6.33046e-11
2.57871e-08
-9.38989e-07
6.10593e-11
2.22091e-08
-9.40562e-07
5.98044e-11
1.93239e-08
-9.41868e-07
5.81955e-11
1.69635e-08
-9.42977e-07
5.64166e-11
1.50083e-08
-9.43929e-07
5.45773e-11
1.33711e-08
-9.44756e-07
5.28358e-11
1.19867e-08
-9.45482e-07
4.81423e-11
1.08059e-08
-9.46128e-07
9.81801e-09
-7.27218e-15
-9.53095e-07
3.44912e-13
9.48625e-14
1.30463e-13
-2.14205e-14
8.90822e-14
1.27785e-13
-2.63275e-14
7.83952e-14
1.25291e-13
-2.59374e-14
6.8059e-14
1.22127e-13
-2.56773e-14
5.80824e-14
1.1929e-13
-2.54143e-14
4.84462e-14
1.16815e-13
-2.52401e-14
3.91431e-14
1.14005e-13
-2.50138e-14
3.01588e-14
1.11834e-13
-2.72865e-14
2.14707e-14
1.09608e-13
1.3129e-14
1.07358e-13
-1.55713e-15
2.82708e-13
9.09078e-14
1.83996e-13
-7.68339e-14
8.22582e-14
1.74e-13
-9.03105e-14
6.9621e-14
1.65447e-13
-8.75242e-14
5.76254e-14
1.55464e-13
-8.50492e-14
4.62188e-14
1.46383e-13
-8.25989e-14
3.50266e-14
1.37891e-13
-8.03305e-14
2.25638e-14
1.30181e-13
-7.82988e-14
1.46229e-14
1.23141e-13
-8.34442e-14
8.05493e-15
1.16813e-13
2.65043e-15
1.10183e-13
-4.36912e-15
1.88871e-13
1.15104e-13
2.61937e-13
-1.94609e-13
1.01853e-13
2.3873e-13
-1.72921e-13
8.48693e-14
2.19891e-13
-1.64233e-13
6.94492e-14
1.98928e-13
-1.563e-13
5.55482e-14
1.80533e-13
-1.4882e-13
4.30213e-14
1.64295e-13
-1.41839e-13
3.17377e-14
1.49789e-13
-1.35528e-13
2.15967e-14
1.36829e-13
-1.41984e-13
1.24838e-14
1.25207e-13
4.33637e-15
1.13988e-13
-7.23163e-15
6.13828e-14
1.42503e-13
3.82445e-13
-3.34987e-13
1.22467e-13
3.35874e-13
-2.79846e-13
9.95604e-14
2.97419e-13
-2.59754e-13
7.95589e-14
2.58684e-13
-2.41816e-13
6.21797e-14
2.25865e-13
-2.25477e-13
4.71004e-14
1.97937e-13
-2.10462e-13
3.40249e-14
1.74106e-13
-1.97168e-13
2.26906e-14
1.53764e-13
-2.02652e-13
1.28579e-14
1.35782e-13
4.39499e-15
1.18686e-13
-1.01993e-14
-7.57193e-14
1.78672e-13
5.73283e-13
-5.1534e-13
1.48784e-13
4.83077e-13
-4.18219e-13
1.17716e-13
4.0942e-13
-3.7881e-13
9.16474e-14
3.4088e-13
-3.44428e-13
6.98815e-14
2.85868e-13
-3.14025e-13
5.17025e-14
2.40854e-13
-2.86924e-13
3.65199e-14
2.04095e-13
-2.63466e-13
2.38381e-14
1.73646e-13
-2.65581e-13
1.32528e-14
1.48451e-13
4.43971e-15
1.243e-13
-1.32832e-14
-3.04388e-13
2.27199e-13
8.83627e-13
-7.53631e-13
1.8281e-13
7.08636e-13
-5.97796e-13
1.40344e-13
5.71923e-13
-5.27233e-13
1.0622e-13
4.54541e-13
-4.67551e-13
7.88569e-14
3.65045e-13
-4.16318e-13
5.6894e-14
2.95482e-13
-3.72094e-13
3.92601e-14
2.4113e-13
-3.34505e-13
2.50702e-14
1.98093e-13
-3.30966e-13
1.36638e-14
1.63554e-13
4.48529e-15
1.31306e-13
-1.6384e-14
-7.37181e-13
2.92768e-13
1.3991e-12
-1.07379e-12
2.27064e-13
1.06411e-12
-8.31323e-13
1.68654e-13
8.11396e-13
-7.12533e-13
1.23751e-13
6.13167e-13
-6.15274e-13
8.92728e-14
4.70356e-13
-5.3436e-13
6.27327e-14
3.64988e-13
-4.66807e-13
4.2233e-14
2.86334e-13
-4.10598e-13
2.63833e-14
2.27189e-13
-3.98878e-13
1.40822e-14
1.81046e-13
4.5893e-15
1.39615e-13
-1.95584e-14
-1.32742e-12
2.92965e-13
2.28739e-12
-1.50919e-12
2.49538e-13
1.63356e-12
-1.1359e-12
1.76256e-13
1.1694e-12
-9.43981e-13
1.23951e-13
8.37076e-13
-7.92299e-13
8.61846e-14
6.11336e-13
-6.70561e-13
5.86204e-14
4.53735e-13
-5.71846e-13
3.83283e-14
3.42139e-13
-4.92215e-13
2.32831e-14
2.61203e-13
-4.69222e-13
1.20675e-14
2.01664e-13
3.72015e-15
1.48995e-13
-2.28066e-14
-2.21735e-12
6.87359e-12
3.96721e-12
-2.10094e-12
2.53568e-12
2.43701e-12
-1.52525e-12
1.90219e-12
1.6204e-12
-1.22826e-12
1.366e-12
1.09004e-12
-1.00207e-12
9.00211e-13
7.55666e-13
-8.26647e-13
4.90792e-13
5.3752e-13
-6.8888e-13
1.27384e-13
3.91882e-13
-5.80766e-13
-1.97839e-13
2.92574e-13
-5.45053e-13
-4.90922e-13
2.22727e-13
-7.4888e-13
1.61974e-13
-2.61321e-14
-1.49106e-10
1.17261e-09
2.54333e-08
-8.2909e-11
2.71914e-10
-4.65147e-10
-7.82193e-11
1.98452e-10
-4.54841e-10
-7.33371e-11
1.49411e-10
-4.36771e-10
-6.90371e-11
1.14775e-10
-4.19687e-10
-6.52171e-11
8.97787e-11
-4.03974e-10
-6.17988e-11
7.13944e-11
-3.89715e-10
-5.87208e-11
5.76558e-11
-3.76898e-10
-5.59263e-11
4.72349e-11
-3.65592e-10
3.88869e-11
-2.96167e-14
-3.18392e-10
3.49182e-13
8.14088e-14
1.02538e-14
-1.83688e-14
7.73192e-14
8.86002e-15
-2.04997e-14
6.82379e-14
7.69953e-15
-1.96069e-14
5.94463e-14
6.00466e-15
-1.89823e-14
5.09486e-14
4.5546e-15
-1.92688e-14
4.27215e-14
3.12518e-15
-1.84502e-14
3.47903e-14
2.29783e-15
-1.87787e-14
2.7112e-14
1.56775e-15
-2.33205e-14
1.96909e-14
9.30623e-16
1.25591e-14
7.78222e-16
-1.4537e-15
2.98181e-13
5.83002e-14
1.69622e-14
-6.59951e-14
5.35917e-14
1.48512e-14
-6.83194e-14
4.53913e-14
1.47399e-14
-6.49237e-14
3.76526e-14
1.15679e-14
-6.30044e-14
3.04263e-14
8.95011e-15
-6.03137e-14
2.37245e-14
6.99496e-15
-5.84665e-14
1.75354e-14
5.24883e-15
-5.83295e-14
1.18811e-14
3.94484e-15
-7.12018e-14
6.78436e-15
3.26289e-15
2.36182e-15
2.18081e-15
-4.39579e-15
2.206e-13
7.43351e-14
2.44918e-14
-1.65608e-13
6.71015e-14
2.27662e-14
-1.27532e-13
5.63447e-14
2.36958e-14
-1.17385e-13
4.65247e-14
1.94157e-14
-1.11233e-13
3.7594e-14
1.5762e-14
-1.05249e-13
2.94539e-14
1.26177e-14
-1.00033e-13
2.20103e-14
1.04679e-14
-9.92431e-14
1.52776e-14
8.75086e-15
-1.21045e-13
9.02543e-15
7.38509e-15
3.23168e-15
5.30097e-15
-7.29473e-15
9.87234e-14
9.22783e-14
4.01142e-14
-2.88671e-13
8.07521e-14
3.97087e-14
-1.97796e-13
6.61624e-14
4.09616e-14
-1.81105e-13
5.33446e-14
3.33138e-14
-1.68316e-13
4.21434e-14
2.74741e-14
-1.56763e-13
3.23075e-14
2.2844e-14
-1.45657e-13
2.36843e-14
1.9348e-14
-1.40372e-13
1.60366e-14
1.64801e-14
-1.7276e-13
9.37149e-15
1.44899e-14
3.30867e-15
9.91094e-15
-1.03316e-14
-1.77003e-14
1.16139e-13
6.95973e-14
-4.44536e-13
9.81869e-14
7.09962e-14
-2.89203e-13
7.82778e-14
6.94436e-14
-2.59835e-13
6.14965e-14
5.68257e-14
-2.36297e-13
4.74066e-14
4.66575e-14
-2.1513e-13
3.55418e-14
3.88111e-14
-1.96386e-13
2.55158e-14
3.26963e-14
-1.8292e-13
1.70474e-14
2.81239e-14
-2.26435e-13
9.83731e-15
2.43848e-14
3.41345e-15
1.64119e-14
-1.3373e-14
-1.52345e-13
1.48376e-13
1.23084e-13
-6.48401e-13
1.20927e-13
1.2657e-13
-4.0713e-13
9.34367e-14
1.16685e-13
-3.57179e-13
7.13541e-14
9.38962e-14
-3.16834e-13
5.35753e-14
7.61122e-14
-2.81934e-13
3.91683e-14
6.24274e-14
-2.51894e-13
2.74722e-14
5.02347e-14
-2.28677e-13
1.80301e-14
4.09971e-14
-2.82164e-13
1.01921e-14
3.73465e-14
3.4818e-15
2.48278e-14
-1.65256e-14
-5.60212e-13
1.92927e-13
2.18743e-13
-9.20066e-13
1.50778e-13
2.22663e-13
-5.59276e-13
1.1257e-13
1.93001e-13
-4.77751e-13
8.33338e-14
1.30191e-13
-4.12702e-13
6.08137e-14
1.19637e-13
-3.58347e-13
4.3347e-14
8.28105e-14
-3.12902e-13
2.97374e-14
6.64012e-14
-2.77441e-13
1.90304e-14
5.70659e-14
-3.39978e-13
1.06033e-14
4.8507e-14
3.58526e-15
2.93546e-14
-1.97546e-14
-1.0835e-12
2.9969e-13
3.91765e-13
-1.28528e-12
1.96438e-13
3.45826e-13
-7.57336e-13
1.47687e-13
2.85223e-13
-6.27823e-13
1.11065e-13
2.11355e-13
-5.26986e-13
8.23151e-14
1.65014e-13
-4.45887e-13
5.76011e-14
1.25943e-13
-3.80414e-13
3.85135e-14
9.86328e-14
-3.29096e-13
2.40931e-14
7.83987e-14
-3.99933e-13
1.31311e-14
6.32028e-14
4.72483e-15
4.109e-14
-2.30684e-14
-1.87763e-12
4.16003e-12
9.19392e-13
-1.77682e-12
3.83361e-13
6.22391e-13
-1.01737e-12
2.55123e-13
4.55735e-13
-8.15414e-13
1.72862e-13
3.23841e-13
-6.63712e-13
1.15992e-13
2.36111e-13
-5.46463e-13
7.60838e-14
1.75971e-13
-4.54633e-13
4.76585e-14
1.33842e-13
-3.84242e-13
2.73182e-14
1.03687e-13
-4.62176e-13
1.2667e-14
8.17099e-14
2.11083e-15
5.22298e-14
-2.64402e-14
-5.95582e-11
9.84053e-10
2.47845e-08
-3.54783e-12
6.31131e-12
1.30686e-11
-3.23576e-12
1.74821e-12
4.89953e-12
-2.58421e-12
1.14933e-12
4.93606e-12
-2.08595e-12
7.85615e-13
4.65618e-12
-1.70762e-12
5.55052e-13
3.95784e-12
-1.41338e-12
4.08349e-13
2.4942e-12
-1.18401e-12
3.05915e-13
2.37057e-12
-1.04661e-12
2.32509e-13
2.34456e-12
1.55833e-13
-3.00007e-14
2.85065e-12
3.49092e-13
8.12422e-14
1.16505e-14
-1.85258e-14
7.71746e-14
1.08381e-14
-2.04949e-14
6.81179e-14
9.27956e-15
-1.95262e-14
5.93412e-14
8.05441e-15
-1.92036e-14
5.08606e-14
4.66947e-15
-1.90135e-14
4.26642e-14
3.99484e-15
-1.82955e-14
3.47454e-14
2.03863e-15
-1.88508e-14
2.70846e-14
9.25462e-16
-2.32333e-14
1.96932e-14
4.83768e-16
1.25749e-14
1.00208e-16
-1.54564e-15
2.9826e-13
5.81061e-14
2.06435e-14
-6.60123e-14
5.34301e-14
1.83109e-14
-6.80349e-14
4.52525e-14
1.83515e-14
-6.43833e-14
3.75584e-14
1.39049e-14
-6.20706e-14
3.03633e-14
1.03003e-14
-5.97831e-14
2.36753e-14
7.62582e-15
-5.77697e-14
1.75176e-14
5.77106e-15
-5.76127e-14
1.18852e-14
4.66527e-15
-7.10421e-14
6.79706e-15
3.07952e-15
2.39005e-15
1.93821e-15
-4.37909e-15
2.20952e-13
7.40206e-14
2.94618e-14
-1.65464e-13
6.68362e-14
2.81146e-14
-1.25274e-13
5.61279e-14
3.00095e-14
-1.15804e-13
4.62969e-14
2.26142e-14
-1.10125e-13
3.73913e-14
1.83358e-14
-1.03889e-13
2.92964e-14
1.53771e-14
-9.89118e-14
2.1879e-14
1.18428e-14
-9.82938e-14
1.5128e-14
1.06035e-14
-1.20704e-13
8.98853e-15
8.60489e-15
3.2096e-15
6.67018e-15
-7.28389e-15
9.92722e-14
9.19128e-14
4.82554e-14
-2.88237e-13
8.04508e-14
4.8049e-14
-1.95929e-13
6.58951e-14
5.05686e-14
-1.79385e-13
5.3146e-14
4.15522e-14
-1.66926e-13
4.19727e-14
3.41422e-14
-1.55306e-13
3.21685e-14
3.04298e-14
-1.44627e-13
2.35536e-14
2.3549e-14
-1.38468e-13
1.59735e-14
1.99584e-14
-1.72395e-13
9.31774e-15
1.72359e-14
3.35747e-15
1.16001e-14
-1.03496e-14
-1.67735e-14
1.157e-13
8.47898e-14
-4.43827e-13
9.786e-14
8.78997e-14
-2.86853e-13
7.80172e-14
8.6933e-14
-2.58122e-13
6.12923e-14
7.03919e-14
-2.34653e-13
4.72545e-14
5.8168e-14
-2.13757e-13
3.54188e-14
4.79941e-14
-1.95021e-13
2.54178e-14
4.14497e-14
-1.81493e-13
1.69626e-14
3.51233e-14
-2.26058e-13
9.79719e-15
3.03847e-14
3.53018e-15
2.16796e-14
-1.33723e-14
-1.51061e-13
1.4783e-13
1.48844e-13
-6.47306e-13
1.20558e-13
1.55242e-13
-4.04473e-13
9.31619e-14
1.46204e-13
-3.55203e-13
7.11649e-14
1.17214e-13
-3.15104e-13
5.34349e-14
9.54827e-14
-2.80466e-13
3.90656e-14
7.90426e-14
-2.505e-13
2.74119e-14
6.61903e-14
-2.27475e-13
1.79116e-14
5.49332e-14
-2.81804e-13
1.01756e-14
4.69124e-14
3.56207e-15
3.08742e-14
-1.66011e-14
-5.57243e-13
1.92256e-13
2.6507e-13
-9.18416e-13
1.50373e-13
2.76004e-13
-5.56301e-13
1.12326e-13
2.40814e-13
-4.75586e-13
8.31592e-14
1.89988e-13
-4.10906e-13
6.07072e-14
1.50706e-13
-3.56803e-13
4.32817e-14
1.22865e-13
-3.1172e-13
2.96528e-14
9.96023e-14
-2.76256e-13
1.89859e-14
8.36513e-14
-3.39801e-13
1.07198e-14
7.06485e-14
3.67579e-15
4.53987e-14
-1.98056e-14
-1.07935e-12
2.99515e-13
4.7295e-13
-1.28266e-12
1.88878e-13
4.788e-13
-7.54257e-13
1.37707e-13
3.92411e-13
-6.25467e-13
9.896e-14
2.99803e-13
-5.25207e-13
7.07746e-14
2.32173e-13
-4.44569e-13
5.15029e-14
1.82514e-13
-3.79322e-13
3.58133e-14
1.45436e-13
-3.28089e-13
2.2508e-14
1.18194e-13
-4.00118e-13
1.22816e-14
9.57874e-14
4.50461e-15
6.37743e-14
-2.3085e-14
-1.87239e-12
4.10977e-12
1.41068e-12
-1.77289e-12
2.89444e-13
8.29762e-13
-1.01424e-12
2.45604e-13
6.37634e-13
-8.13385e-13
1.63513e-13
4.65082e-13
-6.6234e-13
1.0704e-13
3.46849e-13
-5.45502e-13
6.72173e-14
2.64764e-13
-4.54017e-13
3.19005e-14
2.04727e-13
-3.83678e-13
1.66639e-14
1.613e-13
-4.62617e-13
8.23526e-15
1.28471e-13
2.91576e-15
7.90166e-14
-2.65408e-14
-5.90621e-11
1.52961e-09
2.55849e-08
-2.15372e-12
5.40052e-12
9.08367e-12
-1.3536e-12
8.81169e-13
2.71704e-13
-1.05587e-12
6.0842e-13
2.00586e-13
-8.31338e-13
4.34053e-13
1.50176e-13
-6.64889e-13
3.17234e-13
1.07751e-13
-5.39158e-13
2.36979e-13
6.52392e-14
-4.44691e-13
1.80491e-13
5.03414e-14
-5.28806e-13
1.39722e-13
4.07051e-14
8.53732e-14
-3.00641e-14
3.45441e-14
3.48919e-13
8.13742e-14
1.85302e-14
-1.88095e-14
7.72828e-14
1.4848e-14
-2.0607e-14
6.82104e-14
1.24785e-14
-1.99517e-14
5.94129e-14
8.53798e-15
-1.90921e-14
5.09211e-14
7.86823e-15
-1.92137e-14
4.27131e-14
4.63147e-15
-1.85886e-14
3.4792e-14
3.84826e-15
-1.88197e-14
2.71357e-14
2.57738e-15
-2.3264e-14
1.9734e-14
1.08355e-15
1.26141e-14
2.46245e-16
-1.59356e-15
2.97931e-13
5.82477e-14
2.8475e-14
-6.63513e-14
5.35595e-14
2.418e-14
-6.8328e-14
4.53608e-14
2.30098e-14
-6.47876e-14
3.76429e-14
1.88852e-14
-6.20779e-14
3.04438e-14
1.31156e-14
-5.997e-14
2.375e-14
1.09114e-14
-5.75726e-14
1.75787e-14
8.25576e-15
-5.79283e-14
1.19426e-14
6.58556e-15
-7.10917e-14
6.85018e-15
4.86535e-15
2.43825e-15
2.37773e-15
-4.38235e-15
2.20428e-13
7.42505e-14
4.03279e-14
-1.66176e-13
6.70346e-14
3.7009e-14
-1.26142e-13
5.62992e-14
3.87437e-14
-1.1592e-13
4.64627e-14
3.24435e-14
-1.1016e-13
3.75276e-14
2.43444e-14
-1.04421e-13
2.94218e-14
1.95393e-14
-9.87377e-14
2.19974e-14
1.81184e-14
-9.88297e-14
1.5193e-14
1.28287e-14
-1.20762e-13
9.02939e-15
1.31512e-14
3.20337e-15
7.35858e-15
-7.37561e-15
9.86862e-14
9.22993e-14
6.75034e-14
-2.89227e-13
8.07953e-14
6.78994e-14
-1.9657e-13
6.61722e-14
6.54473e-14
-1.79888e-13
5.33722e-14
5.42859e-14
-1.67183e-13
4.21683e-14
4.4986e-14
-1.55723e-13
3.231e-14
3.57643e-14
-1.44899e-13
2.37027e-14
3.30102e-14
-1.38665e-13
1.61373e-14
2.82e-14
-1.72606e-13
9.50392e-15
2.54138e-14
3.56585e-15
1.81063e-14
-1.02882e-14
-1.78275e-14
1.16304e-13
1.12266e-13
-4.45437e-13
9.83641e-14
1.15503e-13
-2.8783e-13
7.84447e-14
1.12727e-13
-2.58839e-13
6.16452e-14
9.4078e-14
-2.35401e-13
4.7548e-14
7.93952e-14
-2.14165e-13
3.56909e-14
6.60963e-14
-1.95509e-13
2.56278e-14
5.48776e-14
-1.81857e-13
1.71054e-14
4.64347e-14
-2.26448e-13
9.84838e-15
4.21138e-14
3.60393e-15
2.63047e-14
-1.33973e-14
-1.52767e-13
1.48786e-13
2.03862e-13
-6.49909e-13
1.21362e-13
2.08276e-13
-4.06114e-13
9.37923e-14
1.92102e-13
-3.56502e-13
7.16801e-14
1.54468e-13
-3.16128e-13
5.38545e-14
1.26247e-13
-2.8139e-13
3.94108e-14
1.06795e-13
-2.51269e-13
2.76914e-14
8.58125e-14
-2.2811e-13
1.81813e-14
7.54059e-14
-2.82531e-13
1.04785e-14
6.2789e-14
3.7803e-15
4.28979e-14
-1.65766e-14
-5.6203e-13
1.93763e-13
3.58406e-13
-9.22884e-13
1.5156e-13
3.6322e-13
-5.58901e-13
1.13247e-13
3.22492e-13
-4.77779e-13
8.38869e-14
2.48668e-13
-4.12617e-13
6.12909e-14
2.03125e-13
-3.58364e-13
4.37388e-14
1.59655e-13
-3.12868e-13
3.00351e-14
1.30342e-13
-2.77274e-13
1.92795e-14
1.06795e-13
-3.41026e-13
1.09159e-14
8.92276e-14
3.94733e-15
5.93099e-14
-1.98268e-14
-1.08836e-12
3.02328e-13
6.35319e-13
-1.29009e-12
1.90613e-13
6.366e-13
-7.5861e-13
1.39006e-13
5.22632e-13
-6.28994e-13
9.99196e-14
3.96648e-13
-5.28058e-13
7.14769e-14
3.05913e-13
-4.46916e-13
5.18153e-14
2.38801e-13
-3.81198e-13
3.63084e-14
1.91341e-13
-3.29764e-13
2.29244e-14
1.53509e-13
-4.01934e-13
1.26306e-14
1.25406e-13
4.78078e-15
8.05097e-14
-2.31735e-14
-1.88911e-12
4.10198e-12
1.86325e-12
-1.78514e-12
2.91833e-13
1.10587e-12
-1.02149e-12
2.4504e-13
8.438e-13
-8.19002e-13
1.62715e-13
6.16574e-13
-6.66747e-13
1.05821e-13
4.61539e-13
-5.4911e-13
6.48308e-14
3.49104e-13
-4.56885e-13
3.04687e-14
2.69228e-13
-3.86063e-13
1.68801e-14
2.12998e-13
-4.65381e-13
8.67923e-15
1.69186e-13
3.23309e-15
1.06727e-13
-2.6582e-14
-5.90749e-11
1.94297e-09
2.56577e-08
-2.16094e-12
7.87724e-12
9.06432e-12
-1.35659e-12
1.33314e-12
1.21208e-13
-1.05843e-12
9.27287e-13
8.34035e-14
-8.33521e-13
6.64899e-13
6.32763e-14
-6.66673e-13
4.87759e-13
4.91068e-14
-5.40638e-13
3.66229e-13
3.88018e-14
-4.45909e-13
2.79887e-13
3.1145e-14
-5.30989e-13
2.14494e-13
2.53547e-14
1.32523e-13
-3.01746e-14
2.09755e-14
3.48591e-13
8.15338e-14
1.94647e-14
-1.91554e-14
7.74238e-14
1.65713e-14
-2.10469e-14
6.83211e-14
1.63778e-14
-1.99248e-14
5.95129e-14
1.27219e-14
-1.95798e-14
5.09918e-14
7.66616e-15
-1.92143e-14
4.27803e-14
5.38423e-15
-1.86612e-14
3.48472e-14
2.9782e-15
-1.90175e-14
2.71877e-14
1.74477e-15
-2.33197e-14
1.97866e-14
1.06839e-15
1.26621e-14
6.3887e-16
-1.54434e-15
2.97482e-13
5.84322e-14
3.39099e-14
-6.68193e-14
5.37215e-14
3.15448e-14
-6.8496e-14
4.55057e-14
2.94113e-14
-6.54515e-14
3.77591e-14
2.28438e-14
-6.19113e-14
3.055e-14
1.93656e-14
-6.03266e-14
2.38414e-14
1.2751e-14
-5.74562e-14
1.76636e-14
8.76227e-15
-5.80689e-14
1.20133e-14
6.33549e-15
-7.11922e-14
6.92097e-15
5.93541e-15
2.49746e-15
4.45225e-15
-4.39492e-15
2.1971e-13
7.45624e-14
4.7691e-14
-1.67098e-13
6.73098e-14
4.49249e-14
-1.26547e-13
5.65136e-14
4.72573e-14
-1.16494e-13
4.66539e-14
3.75861e-14
-1.10401e-13
3.76953e-14
3.15622e-14
-1.04466e-13
2.95463e-14
2.53604e-14
-9.92755e-14
2.21307e-14
1.86254e-14
-9.81763e-14
1.53613e-14
1.85128e-14
-1.20954e-13
9.12422e-15
1.3536e-14
3.40571e-15
1.04814e-14
-7.36607e-15
9.78991e-14
9.2779e-14
7.92407e-14
-2.90576e-13
8.12175e-14
7.87228e-14
-1.97127e-13
6.65349e-14
8.35489e-14
-1.80471e-13
5.36787e-14
6.79734e-14
-1.6792e-13
4.24378e-14
5.52794e-14
-1.5584e-13
3.25632e-14
4.55906e-14
-1.45293e-13
2.38942e-14
3.79516e-14
-1.3893e-13
1.6275e-14
3.41021e-14
-1.72866e-13
9.65252e-15
2.82945e-14
3.60274e-15
1.82998e-14
-1.03333e-14
-1.92142e-14
1.17105e-13
1.39265e-13
-4.47506e-13
9.90417e-14
1.44865e-13
-2.89007e-13
7.89944e-14
1.44811e-13
-2.59809e-13
6.20973e-14
1.15426e-13
-2.3625e-13
4.79109e-14
9.33391e-14
-2.14877e-13
3.60086e-14
7.88704e-14
-1.96096e-13
2.58923e-14
6.48027e-14
-1.82186e-13
1.73629e-14
5.68494e-14
-2.27023e-13
1.00349e-14
4.8043e-14
3.85793e-15
3.30498e-14
-1.34079e-14
-1.55021e-13
1.50027e-13
2.41482e-13
-6.53328e-13
1.22381e-13
2.594e-13
-4.08192e-13
9.4623e-14
2.37779e-13
-3.58195e-13
7.23373e-14
1.90762e-13
-3.17424e-13
5.4416e-14
1.5443e-13
-2.82677e-13
3.98458e-14
1.23477e-13
-2.52142e-13
2.80608e-14
1.05234e-13
-2.28972e-13
1.84478e-14
8.83854e-14
-2.83482e-13
1.07237e-14
7.77514e-14
3.9857e-15
5.01046e-14
-1.6587e-14
-5.6842e-13
1.95715e-13
4.33014e-13
-9.28542e-13
1.53117e-13
4.54034e-13
-5.62534e-13
1.14439e-13
3.87408e-13
-4.8042e-13
8.48405e-14
3.05982e-13
-4.15014e-13
6.20248e-14
2.39892e-13
-3.60248e-13
4.43405e-14
1.94363e-13
-3.14475e-13
3.05331e-14
1.59285e-13
-2.78576e-13
1.96837e-14
1.35835e-13
-3.42571e-13
1.12426e-14
1.1316e-13
4.26253e-15
7.07137e-14
-1.98509e-14
-1.10014e-12
3.06007e-13
7.7653e-13
-1.29972e-12
1.92977e-13
7.8177e-13
-7.64331e-13
1.40758e-13
6.34078e-13
-6.33574e-13
1.01238e-13
4.81346e-13
-5.31763e-13
7.24962e-14
3.69777e-13
-4.49896e-13
5.24064e-14
2.90333e-13
-3.83708e-13
3.69818e-14
2.29502e-13
-3.31856e-13
2.34973e-14
1.85781e-13
-4.04297e-13
1.31001e-14
1.55686e-13
5.16274e-15
9.71984e-14
-2.32015e-14
-1.91112e-12
4.12227e-12
2.26642e-12
-1.80113e-12
2.95948e-13
1.35066e-12
-1.03091e-12
2.4889e-13
1.02954e-12
-8.26292e-13
1.65512e-13
7.49329e-13
-6.72531e-13
1.07903e-13
5.53484e-13
-5.5377e-13
6.65585e-14
4.19753e-13
-4.60576e-13
3.13904e-14
3.2299e-13
-3.89187e-13
1.74281e-14
2.54068e-13
-4.68897e-13
9.04409e-15
2.04565e-13
3.62404e-15
1.28513e-13
-2.66772e-14
-5.92133e-11
2.38019e-09
2.56833e-08
-2.1845e-12
9.74909e-12
9.04432e-12
-1.37171e-12
1.65297e-12
1.19056e-13
-1.06985e-12
1.14346e-12
8.30316e-14
-8.42276e-13
8.16802e-13
6.33313e-14
-6.73496e-13
5.98666e-13
4.93565e-14
-5.46066e-13
4.45634e-13
3.91549e-14
-4.50368e-13
3.38157e-13
3.15729e-14
-5.35921e-13
2.68184e-13
2.58512e-14
1.6198e-13
-3.03067e-14
2.1546e-14
3.48207e-13
8.17359e-14
2.58462e-14
-1.95379e-14
7.76027e-14
2.43374e-14
-2.14231e-14
6.84592e-14
2.05596e-14
-2.03606e-14
5.96252e-14
1.57081e-14
-1.97397e-14
5.10988e-14
1.11262e-14
-1.95619e-14
4.28651e-14
5.83901e-15
-1.85742e-14
3.49232e-14
3.6031e-15
-1.90732e-14
2.72535e-14
2.11115e-15
-2.33753e-14
1.98496e-14
1.54337e-15
1.27288e-14
7.82454e-16
-1.56472e-15
2.96944e-13
5.8655e-14
4.35241e-14
-6.73733e-14
5.39158e-14
4.05471e-14
-6.90083e-14
4.56717e-14
3.94512e-14
-6.53376e-14
3.79035e-14
3.0383e-14
-6.28913e-14
3.06672e-14
2.21228e-14
-6.03392e-14
2.39542e-14
1.40101e-14
-5.77608e-14
1.77615e-14
1.01228e-14
-5.80893e-14
1.2113e-14
6.97053e-15
-7.12366e-14
7.00378e-15
5.69439e-15
2.5671e-15
4.41567e-15
-4.40945e-15
2.18831e-13
7.49338e-14
6.38699e-14
-1.68234e-13
6.76349e-14
6.28457e-14
-1.27138e-13
5.67922e-14
6.34564e-14
-1.16907e-13
4.68919e-14
5.07645e-14
-1.10691e-13
3.79029e-14
4.00914e-14
-1.05231e-13
2.97131e-14
3.00882e-14
-9.89185e-14
2.23094e-14
2.16559e-14
-9.90038e-14
1.5483e-14
1.66393e-14
-1.211e-13
9.27589e-15
1.38528e-14
3.48548e-15
1.19281e-14
-7.39578e-15
9.69335e-14
9.33904e-14
1.03933e-13
-2.92157e-13
8.17469e-14
1.0812e-13
-1.98052e-13
6.69789e-14
1.08536e-13
-1.81233e-13
5.40457e-14
8.78651e-14
-1.68535e-13
4.27487e-14
7.13909e-14
-1.564e-13
3.28588e-14
5.89348e-14
-1.455e-13
2.41177e-14
4.28187e-14
-1.39325e-13
1.64847e-14
3.45628e-14
-1.7324e-13
9.78382e-15
2.85315e-14
3.86718e-15
1.89119e-14
-1.03268e-14
-2.09454e-14
1.18062e-13
1.81702e-13
-4.50008e-13
9.98644e-14
1.92123e-13
-2.90584e-13
7.96629e-14
1.84593e-13
-2.61065e-13
6.26575e-14
1.49344e-13
-2.3712e-13
4.83908e-14
1.22224e-13
-2.15901e-13
3.63737e-14
1.00722e-13
-1.96626e-13
2.62434e-14
8.06362e-14
-1.8291e-13
1.76223e-14
6.19746e-14
-2.27659e-13
1.03382e-14
5.09058e-14
4.06849e-15
3.1935e-14
-1.34476e-14
-1.57754e-13
1.51558e-13
3.24987e-13
-6.57511e-13
1.23635e-13
3.39677e-13
-4.10673e-13
9.56217e-14
3.10332e-13
-3.60213e-13
7.31506e-14
2.48075e-13
-3.1926e-13
5.50681e-14
2.00797e-13
-2.83949e-13
4.04138e-14
1.64401e-13
-2.53466e-13
2.85156e-14
1.33279e-13
-2.29801e-13
1.88644e-14
9.918e-14
-2.84655e-13
1.1003e-14
8.1708e-14
4.25627e-15
5.02826e-14
-1.66028e-14
-5.76179e-13
1.98122e-13
5.78057e-13
-9.3559e-13
1.55021e-13
5.96938e-13
-5.66664e-13
1.15916e-13
5.16628e-13
-4.8392e-13
8.59917e-14
4.02805e-13
-4.17782e-13
6.29434e-14
3.18361e-13
-3.62571e-13
4.50755e-14
2.53436e-13
-3.1645e-13
3.11197e-14
2.03057e-13
-2.80156e-13
2.01246e-14
1.49402e-13
-3.44488e-13
1.16281e-14
1.20793e-13
4.62431e-15
7.45916e-14
-1.9888e-14
-1.11464e-12
3.10537e-13
1.03451e-12
-1.31152e-12
1.95838e-13
1.04788e-12
-7.71349e-13
1.42909e-13
8.48952e-13
-6.39218e-13
1.02864e-13
6.38312e-13
-5.36234e-13
7.37171e-14
4.88645e-13
-4.53607e-13
5.3098e-14
3.78938e-13
-3.8679e-13
3.78049e-14
2.97558e-13
-3.34323e-13
2.41978e-14
2.28445e-13
-4.07229e-13
1.36587e-14
1.69692e-13
5.63476e-15
1.04102e-13
-2.32923e-14
-1.9383e-12
4.17564e-12
2.95809e-12
-1.82072e-12
3.01147e-13
1.82855e-12
-1.04249e-12
2.53717e-13
1.38258e-12
-8.35326e-13
1.68994e-13
9.98165e-13
-6.79609e-13
1.10507e-13
7.36938e-13
-5.59436e-13
6.87032e-14
5.52318e-13
-4.65134e-13
3.25686e-14
4.22057e-13
-3.93001e-13
1.81101e-14
3.22336e-13
-4.73173e-13
9.49831e-15
2.31681e-13
4.10242e-15
1.39857e-13
-2.68047e-14
-6.00448e-11
3.29154e-09
2.60214e-08
-2.21479e-12
1.24495e-11
9.31705e-12
-1.39032e-12
2.22933e-12
1.18427e-13
-1.08396e-12
1.53375e-12
8.34353e-14
-8.53099e-13
1.08797e-12
6.38377e-14
-6.81962e-13
7.88118e-13
4.99044e-14
-5.52787e-13
5.83318e-13
3.97248e-14
-4.55738e-13
4.37663e-13
3.21628e-14
-5.42041e-13
3.06935e-13
2.64675e-14
1.81731e-13
-3.04025e-14
2.22464e-14
3.47752e-13
8.19669e-14
3.68691e-14
-2.00462e-14
7.77826e-14
2.14175e-14
-2.18005e-14
6.86183e-14
1.91367e-14
-2.06143e-14
5.97545e-14
1.45204e-14
-2.02825e-14
5.12069e-14
9.16674e-15
-1.94245e-14
4.29653e-14
9.17948e-15
-1.92101e-14
3.50188e-14
7.88271e-15
-1.90573e-14
2.73491e-14
1.04486e-14
-2.35607e-14
1.99404e-14
3.17294e-14
1.28274e-14
1.07647e-13
-1.53219e-15
2.9626e-13
5.89233e-14
5.67466e-14
-6.79648e-14
5.41454e-14
3.62227e-14
-6.96329e-14
4.58545e-14
3.6532e-14
-6.57337e-14
3.80681e-14
2.87553e-14
-6.33934e-14
3.08125e-14
2.79086e-14
-6.00984e-14
2.40864e-14
1.86574e-14
-5.79846e-14
1.78805e-14
1.568e-14
-5.85619e-14
1.22198e-14
1.59252e-14
-7.15309e-14
7.11776e-15
2.66225e-14
2.66135e-15
7.45241e-14
-4.33442e-15
2.17786e-13
7.53596e-14
8.13872e-14
-1.69538e-13
6.79902e-14
5.62019e-14
-1.27478e-13
5.71048e-14
5.98569e-14
-1.17566e-13
4.71539e-14
4.87464e-14
-1.11172e-13
3.81358e-14
3.98586e-14
-1.05362e-13
2.99407e-14
2.7615e-14
-9.95355e-14
2.2483e-14
2.98055e-14
-9.83837e-14
1.56652e-14
2.77803e-14
-1.21589e-13
9.378e-15
3.2234e-14
3.65497e-15
5.86155e-14
-7.29733e-15
9.57996e-14
9.41006e-14
1.39232e-13
-2.93941e-13
8.23385e-14
1.00263e-13
-1.99108e-13
6.7471e-14
1.04373e-13
-1.82126e-13
5.4465e-14
8.62592e-14
-1.69001e-13
4.31147e-14
7.21143e-14
-1.57207e-13
3.31581e-14
8.17977e-14
-1.45938e-13
2.44108e-14
5.38496e-14
-1.39644e-13
1.67562e-14
4.86318e-14
-1.73869e-13
1.0006e-14
4.83291e-14
4.08928e-15
5.81179e-14
-1.02936e-14
-2.29802e-14
1.192e-13
2.49149e-13
-4.52804e-13
1.00783e-13
1.82836e-13
-2.92293e-13
8.04231e-14
1.80829e-13
-2.62397e-13
6.33006e-14
1.49e-13
-2.38249e-13
4.89349e-14
1.24024e-13
-2.16898e-13
3.68589e-14
1.36213e-13
-1.97448e-13
2.66522e-14
7.35266e-14
-1.83713e-13
1.79483e-14
8.00893e-14
-2.28611e-13
1.06628e-14
7.38641e-14
4.28647e-15
6.80308e-14
-1.3425e-14
-1.61088e-13
1.53338e-13
4.4861e-13
-6.62086e-13
1.25043e-13
3.3112e-13
-4.13483e-13
9.67736e-14
3.07786e-13
-3.6253e-13
7.40965e-14
2.49062e-13
-3.21103e-13
5.5849e-14
2.28438e-13
-2.85607e-13
4.10477e-14
2.19203e-13
-2.55049e-13
2.90439e-14
1.70211e-13
-2.30869e-13
1.92619e-14
1.24346e-13
-2.86202e-13
1.13251e-14
1.09154e-13
4.67299e-15
8.64541e-14
-1.66416e-14
-5.85457e-13
2.00929e-13
8.05444e-13
-9.43192e-13
1.57189e-13
5.89308e-13
-5.7144e-13
1.17605e-13
5.55427e-13
-4.87767e-13
8.73163e-14
4.56898e-13
-4.2098e-13
6.4001e-14
3.90022e-13
-3.65188e-13
4.59379e-14
3.40852e-13
-3.18995e-13
3.18243e-14
2.84342e-13
-2.82015e-13
2.07512e-14
1.48884e-13
-3.46818e-13
1.20368e-14
1.55463e-13
4.99102e-15
1.12262e-13
-1.99287e-14
-1.13138e-12
3.15775e-13
1.44374e-12
-1.32441e-12
1.99159e-13
1.19746e-12
-7.79328e-13
1.45358e-13
1.01897e-12
-6.45489e-13
1.04737e-13
7.89042e-13
-5.41379e-13
7.5161e-14
6.29692e-13
-4.57786e-13
5.40264e-14
5.14793e-13
-3.90445e-13
3.87846e-14
4.17967e-13
-3.37517e-13
2.50136e-14
2.09867e-13
-4.10753e-13
1.43385e-14
1.90308e-13
6.18572e-15
1.45444e-13
-2.33613e-14
-1.96885e-12
3.94735e-12
3.80182e-12
-1.8423e-12
3.06299e-13
2.26921e-12
-1.05549e-12
2.59476e-13
1.75704e-12
-8.45378e-13
1.73023e-13
1.2915e-12
-6.87743e-13
1.13532e-13
9.76779e-13
-5.65834e-13
7.11723e-14
7.57762e-13
-4.7053e-13
3.40093e-14
5.92325e-13
-3.97664e-13
1.89381e-14
4.16346e-13
-4.78359e-13
1.00436e-14
2.36175e-13
4.67741e-15
1.858e-13
-2.69056e-14
-6.00761e-11
2.65311e-09
2.70669e-08
-2.24137e-12
1.23525e-11
7.63705e-12
-1.41146e-12
2.90872e-12
1.14147e-13
-1.09983e-12
2.03128e-12
8.39078e-14
-8.6544e-13
1.46748e-12