/*--------------------------------*- C++ -*----------------------------------*\
| =========                 |                                                 |
| \\      /  F ield         | OpenFOAM: The Open Source CFD Toolbox           |
|  \\    /   O peration     | Version:  4.1                                   |
|   \\  /    A nd           | Web:      www.OpenFOAM.org                      |
|    \\/     M anipulation  |                                                 |
\*---------------------------------------------------------------------------*/
FoamFile
{
    version     2.0;
    format      ascii;
    class       volVectorField;
    location    "0.12";
    object      U;
}
// * * * * * * * * * * * * * * * * * * * * * * * * * * * * * * * * * * * * * //

dimensions      [0 1 -1 0 0 0 0];

internalField   nonuniform List<vector> 
18000
(
(7.48487e-14 3.93935e-13 -6.61742e-12)
(8.1823e-14 3.91873e-13 -6.53969e-12)
(7.42261e-14 -1.00047e-14 -6.46297e-12)
(6.68078e-14 -1.05527e-14 -6.38733e-12)
(5.9572e-14 -1.04203e-14 -6.31276e-12)
(5.25204e-14 -1.02811e-14 -6.23918e-12)
(4.56414e-14 -1.02018e-14 -6.16667e-12)
(3.89523e-14 -1.01065e-14 -6.09516e-12)
(3.24265e-14 -9.99917e-15 -6.02466e-12)
(2.60681e-14 -8.4073e-15 -5.95568e-12)
(9.53687e-14 4.09358e-13 -8.35513e-12)
(1.13984e-13 4.00706e-13 -8.04791e-12)
(1.0077e-13 -3.81869e-14 -7.75385e-12)
(8.83105e-14 -3.76178e-14 -7.47295e-12)
(7.66262e-14 -3.63799e-14 -7.20456e-12)
(6.56548e-14 -3.51842e-14 -6.9478e-12)
(5.53328e-14 -3.40578e-14 -6.70229e-12)
(4.56535e-14 -3.29601e-14 -6.46724e-12)
(3.6545e-14 -3.1927e-14 -6.24219e-12)
(2.80055e-14 -2.61522e-14 -6.02842e-12)
(9.46741e-14 4.19487e-13 -1.06901e-11)
(1.12752e-13 4.03156e-13 -1.00083e-11)
(9.40545e-14 -7.73891e-14 -9.37782e-12)
(7.72091e-14 -7.37049e-14 -8.79555e-12)
(6.20692e-14 -6.95118e-14 -8.25706e-12)
(4.84298e-14 -6.56843e-14 -7.75845e-12)
(3.61487e-14 -6.21411e-14 -7.29653e-12)
(2.50847e-14 -5.88192e-14 -6.86794e-12)
(1.51113e-14 -5.57105e-14 -6.46998e-12)
(6.14314e-15 -4.4561e-14 -6.10233e-12)
(1.24252e-13 4.19735e-13 -1.3879e-11)
(1.39958e-13 3.95042e-13 -1.25884e-11)
(1.13381e-13 -1.31725e-13 -1.14404e-11)
(9.05047e-14 -1.21508e-13 -1.04176e-11)
(7.08237e-14 -1.11653e-13 -9.50504e-12)
(5.38553e-14 -1.02825e-13 -8.68877e-12)
(3.92373e-14 -9.48713e-14 -7.95698e-12)
(2.66014e-14 -8.76869e-14 -7.29963e-12)
(1.56809e-14 -8.11641e-14 -6.70787e-12)
(6.25083e-15 -6.35974e-14 -6.1774e-12)
(1.66261e-13 4.01839e-13 -1.83141e-11)
(1.76255e-13 3.69376e-13 -1.60327e-11)
(1.38137e-13 -2.07422e-13 -1.40873e-11)
(1.06899e-13 -1.85205e-13 -1.24225e-11)
(8.12454e-14 -1.6526e-13 -1.09928e-11)
(6.01299e-14 -1.48015e-13 -9.75988e-12)
(4.26832e-14 -1.33056e-13 -8.6925e-12)
(2.82434e-14 -1.20033e-13 -7.76524e-12)
(1.62725e-14 -1.08553e-13 -6.95667e-12)
(6.35788e-15 -8.32717e-14 -6.25384e-12)
(2.27403e-13 3.51688e-13 -2.4608e-11)
(2.2561e-13 3.1445e-13 -2.07023e-11)
(1.70332e-13 -3.13834e-13 -1.75242e-11)
(1.27311e-13 -2.70326e-13 -1.49212e-11)
(9.37332e-14 -2.33638e-13 -1.27765e-11)
(6.73492e-14 -2.03174e-13 -1.09976e-11)
(4.65195e-14 -1.77702e-13 -9.51335e-12)
(3.00049e-14 -1.56211e-13 -8.26786e-12)
(1.68987e-14 -1.37905e-13 -7.21699e-12)
(6.4663e-15 -1.03619e-13 -6.33131e-12)
(3.1892e-13 2.44129e-13 -3.37439e-11)
(2.94166e-13 2.1097e-13 -2.71426e-11)
(2.12821e-13 -4.64988e-13 -2.20422e-11)
(1.5304e-13 -3.85128e-13 -1.80631e-11)
(1.08795e-13 -3.21301e-13 -1.49279e-11)
(7.57115e-14 -2.70599e-13 -1.24334e-11)
(5.07938e-14 -2.29855e-13 -1.04313e-11)
(3.19161e-14 -1.96728e-13 -8.81103e-12)
(1.75508e-14 -1.69467e-13 -7.48946e-12)
(6.56969e-15 -1.24673e-13 -6.41005e-12)
(3.69055e-13 3.38948e-14 -4.73495e-11)
(3.04377e-13 2.54618e-14 -3.61937e-11)
(1.87962e-13 -6.82525e-13 -2.80637e-11)
(1.08963e-13 -5.41021e-13 -2.20513e-11)
(5.46127e-14 -4.34277e-13 -1.75391e-11)
(1.68734e-14 -3.53342e-13 -1.41058e-11)
(-9.48893e-15 -2.90921e-13 -1.14605e-11)
(-2.79309e-14 -2.42068e-13 -9.39879e-12)
(-4.08341e-14 -2.03342e-13 -7.77457e-12)
(-5.03848e-14 -1.46444e-13 -6.49015e-12)
(-1.03078e-09 -3.70106e-13 -6.9293e-11)
(-9.79084e-10 -2.89828e-13 -5.01213e-11)
(-9.1386e-10 -9.85481e-13 -3.70243e-11)
(-8.566e-10 -7.41315e-13 -2.78801e-11)
(-8.05992e-10 -5.68697e-13 -2.13611e-11)
(-7.60959e-10 -4.4434e-13 -1.66232e-11)
(-7.2064e-10 -3.52835e-13 -1.31198e-11)
(-6.84341e-10 -2.84269e-13 -1.04885e-11)
(-6.51496e-10 -2.33545e-13 -8.48359e-12)
(-6.23583e-10 -1.70023e-13 -6.94889e-12)
(1.217e-07 -8.60914e-11 -1.27042e-08)
(2.24101e-08 1.28989e-10 -1.08343e-08)
(1.89995e-08 1.64614e-10 -9.33539e-09)
(1.62854e-08 1.44757e-10 -8.12594e-09)
(1.40557e-08 1.28092e-10 -7.13628e-09)
(1.22012e-08 1.14076e-10 -6.31636e-09)
(1.06418e-08 1.02188e-10 -5.62958e-09)
(9.31761e-09 9.20299e-11 -5.04868e-09)
(8.1718e-09 7.81434e-11 -4.55301e-09)
(-1.13782e-08 -4.19214e-12 -4.13987e-09)
(2.72574e-13 3.69961e-13 -6.68802e-12)
(2.54686e-13 3.44347e-13 -6.60901e-12)
(2.23236e-13 -5.70146e-14 -6.53081e-12)
(1.93013e-13 -5.70178e-14 -6.45367e-12)
(1.6398e-13 -5.63707e-14 -6.37774e-12)
(1.36068e-13 -5.57047e-14 -6.30297e-12)
(1.0924e-13 -5.50992e-14 -6.22905e-12)
(8.3451e-14 -5.44866e-14 -6.15644e-12)
(5.86372e-14 -5.36507e-14 -6.08479e-12)
(3.49644e-14 -3.10133e-14 -6.01464e-12)
(5.51307e-13 3.18532e-13 -8.45393e-12)
(5.05978e-13 2.233e-13 -8.14149e-12)
(4.33194e-13 -2.09193e-13 -7.84211e-12)
(3.65404e-13 -2.0224e-13 -7.55631e-12)
(3.02289e-13 -1.9498e-13 -7.28341e-12)
(2.43486e-13 -1.8803e-13 -7.02237e-12)
(1.88693e-13 -1.81405e-13 -6.77293e-12)
(1.37631e-13 -1.75113e-13 -6.53424e-12)
(9.00113e-14 -1.68368e-13 -6.30586e-12)
(4.58906e-14 -9.56331e-14 -6.08874e-12)
(6.81817e-13 2.26882e-13 -1.08314e-11)
(6.02944e-13 3.31345e-14 -1.01367e-11)
(4.98098e-13 -4.24098e-13 -9.49443e-12)
(4.04704e-13 -3.98418e-13 -8.90147e-12)
(3.21601e-13 -3.73984e-13 -8.35355e-12)
(2.47598e-13 -3.5136e-13 -7.84653e-12)
(1.8166e-13 -3.30399e-13 -7.37703e-12)
(1.22938e-13 -3.10979e-13 -6.94161e-12)
(7.06233e-14 -2.91999e-13 -6.53748e-12)
(2.42732e-14 -1.63245e-13 -6.16436e-12)
(8.9127e-13 7.21645e-14 -1.40852e-11)
(7.59773e-13 -2.60386e-13 -1.27679e-11)
(6.08514e-13 -7.27047e-13 -1.15965e-11)
(4.7988e-13 -6.62697e-13 -1.05538e-11)
(3.70542e-13 -6.04401e-13 -9.62426e-12)
(2.77498e-13 -5.52389e-13 -8.79346e-12)
(1.98253e-13 -5.0575e-13 -8.04922e-12)
(1.30768e-13 -4.63859e-13 -7.38118e-12)
(7.32623e-14 -4.24846e-13 -6.77991e-12)
(2.46529e-14 -2.33624e-13 -6.24142e-12)
(1.18436e-12 -1.82408e-13 -1.86224e-11)
(9.69732e-13 -7.10345e-13 -1.62882e-11)
(7.5053e-13 -1.15499e-12 -1.42998e-11)
(5.72968e-13 -1.01898e-12 -1.25996e-11)
(4.2898e-13 -9.01155e-13 -1.11415e-11)
(3.11968e-13 -7.99738e-13 -9.88523e-12)
(2.16755e-13 -7.1199e-13 -8.79875e-12)
(1.39216e-13 -6.35862e-13 -7.8556e-12)
(7.60621e-14 -5.67715e-13 -7.03386e-12)
(2.50101e-14 -3.06975e-13 -6.32011e-12)
(1.60305e-12 -5.96644e-13 -2.50815e-11)
(1.25533e-12 -1.39969e-12 -2.10728e-11)
(9.35342e-13 -1.76255e-12 -1.78175e-11)
(6.89187e-13 -1.50068e-12 -1.5154e-11)
(4.9914e-13 -1.28382e-12 -1.29633e-11)
(3.51839e-13 -1.10434e-12 -1.11487e-11)
(2.37405e-13 -9.54722e-13 -9.63643e-12)
(1.48328e-13 -8.29327e-13 -8.36876e-12)
(7.90052e-14 -7.21406e-13 -7.30008e-12)
(2.53491e-14 -3.83457e-13 -6.40035e-12)
(2.21539e-12 -1.27078e-12 -3.44908e-11)
(1.65055e-12 -2.46153e-12 -2.76925e-11)
(1.1789e-12 -2.63137e-12 -2.24533e-11)
(8.35568e-13 -2.15477e-12 -1.83728e-11)
(5.83854e-13 -1.77855e-12 -1.51646e-11)
(3.9815e-13 -1.47986e-12 -1.26165e-11)
(2.60515e-13 -1.24046e-12 -1.05744e-11)
(1.58212e-13 -1.047e-12 -8.9241e-12)
(8.20567e-14 -8.86805e-13 -7.57913e-12)
(2.57335e-14 -4.63266e-13 -6.4823e-12)
(3.14071e-12 -2.37756e-12 -4.85667e-11)
(2.21096e-12 -4.11395e-12 -3.70284e-11)
(1.50647e-12 -3.88546e-12 -2.86493e-11)
(1.02321e-12 -3.04828e-12 -2.2468e-11)
(6.87843e-13 -2.4202e-12 -1.78417e-11)
(4.52795e-13 -1.94362e-12 -1.4329e-11)
(2.86808e-13 -1.57714e-12 -1.16278e-11)
(1.69012e-13 -1.29207e-12 -9.52564e-12)
(8.51409e-14 -1.06482e-12 -7.8718e-12)
(2.58327e-14 -5.4637e-13 -6.56593e-12)
(8.85823e-12 -4.24729e-12 -7.13066e-11)
(-1.09069e-11 -6.74817e-12 -5.13942e-11)
(-9.25896e-12 -5.73391e-12 -3.78547e-11)
(-7.87195e-12 -4.29247e-12 -2.84347e-11)
(-6.72927e-12 -3.2688e-12 -2.17423e-11)
(-5.7853e-12 -2.52881e-12 -1.68916e-11)
(-5.00223e-12 -1.98416e-12 -1.33131e-11)
(-4.34942e-12 -1.57699e-12 -1.06308e-11)
(-3.80227e-12 -1.26456e-12 -8.5901e-12)
(-3.31452e-12 -6.40047e-13 -7.03055e-12)
(6.10325e-08 -3.04786e-10 -1.29204e-08)
(-1.85121e-09 -2.61026e-10 -1.0991e-08)
(-1.70369e-09 -1.76392e-10 -9.45129e-09)
(-1.54298e-09 -1.53228e-10 -8.21352e-09)
(-1.40306e-09 -1.34459e-10 -7.20369e-09)
(-1.2821e-09 -1.18969e-10 -6.36909e-09)
(-1.17756e-09 -1.06027e-10 -5.67142e-09)
(-1.08709e-09 -9.50982e-11 -5.0823e-09)
(-1.0091e-09 -8.57086e-11 -4.58035e-09)
(-1.01913e-09 -7.86716e-11 -4.16215e-09)
(2.27751e-13 3.76136e-13 -7.43085e-14)
(2.14988e-13 3.49932e-13 -7.26067e-14)
(1.88535e-13 -5.15965e-14 -7.03515e-14)
(1.63242e-13 -5.16262e-14 -6.83311e-14)
(1.39047e-13 -5.09379e-14 -6.65163e-14)
(1.15855e-13 -5.03723e-14 -6.48206e-14)
(9.37081e-14 -4.98016e-14 -6.31752e-14)
(7.24745e-14 -4.91623e-14 -6.18549e-14)
(5.21551e-14 -4.84317e-14 -6.04726e-14)
(3.28602e-14 -2.53893e-14 -5.93232e-14)
(4.98895e-13 3.4189e-13 -1.04189e-13)
(4.60647e-13 2.44018e-13 -9.83236e-14)
(3.94534e-13 -1.89291e-13 -9.20959e-14)
(3.33011e-13 -1.82925e-13 -8.63974e-14)
(2.75797e-13 -1.76283e-13 -8.12283e-14)
(2.22538e-13 -1.69928e-13 -7.64955e-14)
(1.7299e-13 -1.63841e-13 -7.20837e-14)
(1.26811e-13 -1.5805e-13 -6.808e-14)
(8.37865e-14 -1.51908e-13 -6.4633e-14)
(4.39975e-14 -7.8723e-14 -6.11376e-14)
(6.16183e-13 2.76271e-13 -1.50102e-13)
(5.47648e-13 7.55268e-14 -1.36099e-13)
(4.52144e-13 -3.8427e-13 -1.22856e-13)
(3.67166e-13 -3.60853e-13 -1.11138e-13)
(2.9166e-13 -3.38439e-13 -1.00754e-13)
(2.24526e-13 -3.17763e-13 -9.14612e-14)
(1.64776e-13 -2.98657e-13 -8.3348e-14)
(1.11626e-13 -2.80971e-13 -7.60563e-14)
(6.42703e-14 -2.6357e-13 -6.94713e-14)
(2.24454e-14 -1.34644e-13 -6.39236e-14)
(8.08237e-13 1.61275e-13 -2.2113e-13)
(6.91819e-13 -1.87035e-13 -1.92522e-13)
(5.53593e-13 -6.59995e-13 -1.66982e-13)
(4.36203e-13 -6.01123e-13 -1.44943e-13)
(3.36635e-13 -5.47719e-13 -1.26438e-13)
(2.52025e-13 -5.00154e-13 -1.10692e-13)
(1.80085e-13 -4.57542e-13 -9.73391e-14)
(1.18893e-13 -4.19427e-13 -8.58563e-14)
(6.68197e-14 -3.83776e-13 -7.58549e-14)
(2.28769e-14 -1.93222e-13 -6.74227e-14)
(1.07835e-12 -3.27136e-14 -3.34366e-13)
(8.85462e-13 -5.92924e-13 -2.77908e-13)
(6.84475e-13 -1.05084e-12 -2.3062e-13)
(5.2191e-13 -9.26112e-13 -1.91979e-13)
(3.90439e-13 -8.17963e-13 -1.60837e-13)
(2.83809e-13 -7.25127e-13 -1.35437e-13)
(1.97211e-13 -6.44934e-13 -1.14722e-13)
(1.26784e-13 -5.75483e-13 -9.76909e-14)
(6.95224e-14 -5.13174e-13 -8.35498e-14)
(2.33241e-14 -2.54503e-13 -7.1844e-14)
(1.46617e-12 -3.54137e-13 -5.19401e-13)
(1.15005e-12 -1.21995e-12 -4.08806e-13)
(8.55354e-13 -1.60781e-12 -3.23547e-13)
(6.29224e-13 -1.36699e-12 -2.57255e-13)
(4.55191e-13 -1.16745e-12 -2.06566e-13)
(3.20647e-13 -1.00281e-12 -1.67186e-13)
(2.1635e-13 -8.6586e-13 -1.36452e-13)
(1.35355e-13 -7.51369e-13 -1.12251e-13)
(7.23586e-14 -6.52675e-13 -9.27407e-14)
(2.37787e-14 -3.18783e-13 -7.74208e-14)
(2.03696e-12 -8.83332e-13 -8.27992e-13)
(1.51799e-12 -2.1932e-12 -6.14848e-13)
(1.08145e-12 -2.40815e-12 -4.60935e-13)
(7.64862e-13 -1.96794e-12 -3.48687e-13)
(5.33628e-13 -1.62079e-12 -2.67585e-13)
(3.63546e-13 -1.34619e-12 -2.07749e-13)
(2.37837e-13 -1.12658e-12 -1.63194e-13)
(1.4459e-13 -9.49688e-13 -1.29588e-13)
(7.53222e-14 -8.0308e-13 -1.0348e-13)
(2.42461e-14 -3.8615e-13 -8.39263e-14)
(2.90257e-12 -1.76147e-12 -1.36201e-12)
(2.04008e-12 -3.72059e-12 -9.44786e-13)
(1.38509e-12 -3.56928e-12 -6.67205e-13)
(9.3802e-13 -2.79233e-12 -4.77998e-13)
(6.29254e-13 -2.21092e-12 -3.49554e-13)
(4.13698e-13 -1.77154e-12 -2.59808e-13)
(2.61996e-13 -1.43473e-12 -1.96168e-13)
(1.54653e-13 -1.17352e-12 -1.50113e-13)
(7.84543e-14 -9.65262e-13 -1.16296e-13)
(2.47131e-14 -4.56771e-13 -9.13328e-14)
(2.60086e-11 -3.24133e-12 -2.27507e-12)
(2.73232e-12 -6.15828e-12 -1.4591e-12)
(1.73158e-12 -5.27516e-12 -9.61842e-13)
(1.11393e-12 -3.93234e-12 -6.49532e-13)
(7.1198e-13 -2.98269e-12 -4.51353e-13)
(4.46486e-13 -2.29977e-12 -3.21245e-13)
(2.68796e-13 -1.79907e-12 -2.33894e-13)
(1.49398e-13 -1.42618e-12 -1.73908e-13)
(6.88008e-14 -1.14047e-12 -1.31708e-13)
(1.48358e-14 -5.30976e-13 -1.02128e-13)
(5.69205e-08 -7.42656e-11 -2.2445e-10)
(1.78167e-11 -7.27919e-11 -1.5792e-10)
(-1.46156e-11 -1.21628e-11 -1.16697e-10)
(-1.1714e-11 -8.75804e-12 -8.80926e-11)
(-9.49415e-12 -6.49869e-12 -6.77528e-11)
(-7.78072e-12 -4.92143e-12 -5.29674e-11)
(-6.44504e-12 -3.79314e-12 -4.2011e-11)
(-5.39379e-12 -2.96886e-12 -3.37529e-11)
(-4.56162e-12 -2.35241e-12 -2.7433e-11)
(-4.08256e-12 -1.44835e-12 -2.23555e-11)
(2.27068e-13 3.76098e-13 -8.38175e-15)
(2.14379e-13 3.49595e-13 -7.55759e-15)
(1.88001e-13 -5.19739e-14 -5.78896e-15)
(1.6277e-13 -5.18853e-14 -4.52415e-15)
(1.38641e-13 -5.11918e-14 -3.28308e-15)
(1.15558e-13 -5.05391e-14 -2.30863e-15)
(9.34739e-14 -4.98617e-14 -1.59387e-15)
(7.23173e-14 -4.92237e-14 -9.4778e-16)
(5.21104e-14 -4.83938e-14 -5.51076e-16)
(3.28835e-14 -2.53294e-14 -4.82511e-16)
(4.9829e-13 3.42168e-13 -1.24413e-14)
(4.60149e-13 2.43946e-13 -1.09564e-14)
(3.94117e-13 -1.89442e-13 -8.7751e-15)
(3.32687e-13 -1.8301e-13 -6.8629e-15)
(2.75556e-13 -1.76257e-13 -5.21984e-15)
(2.22385e-13 -1.69855e-13 -4.0922e-15)
(1.72922e-13 -1.63752e-13 -3.08466e-15)
(1.26829e-13 -1.57849e-13 -2.3785e-15)
(8.38883e-14 -1.51638e-13 -1.88787e-15)
(4.41853e-14 -7.84126e-14 -1.60547e-15)
(6.15587e-13 2.77112e-13 -2.01876e-14)
(5.4726e-13 7.57661e-14 -1.77826e-14)
(4.51872e-13 -3.84111e-13 -1.44033e-14)
(3.6698e-13 -3.6059e-13 -1.16405e-14)
(2.91584e-13 -3.38218e-13 -9.4785e-15)
(2.24539e-13 -3.17471e-13 -7.6724e-15)
(1.64899e-13 -2.98277e-13 -6.26309e-15)
(1.11836e-13 -2.80609e-13 -5.31709e-15)
(6.45517e-14 -2.63114e-13 -4.43994e-15)
(2.27955e-14 -1.3408e-13 -4.20362e-15)
(8.07745e-13 1.63097e-13 -3.43567e-14)
(6.91635e-13 -1.86224e-13 -3.00989e-14)
(5.53554e-13 -6.59562e-13 -2.47529e-14)
(4.36278e-13 -6.0068e-13 -2.01384e-14)
(3.36807e-13 -5.472e-13 -1.66193e-14)
(2.5231e-13 -4.99601e-13 -1.38788e-14)
(1.80441e-13 -4.56997e-13 -1.16719e-14)
(1.19332e-13 -4.18871e-13 -9.90306e-15)
(6.73237e-14 -3.83202e-13 -8.68768e-15)
(2.33941e-14 -1.92598e-13 -7.78352e-15)
(1.07813e-12 -2.93627e-14 -6.01701e-14)
(8.85672e-13 -5.9157e-13 -5.17153e-14)
(6.84816e-13 -1.05005e-12 -4.18572e-14)
(5.2241e-13 -9.25382e-13 -3.42077e-14)
(3.91019e-13 -8.17305e-13 -2.81346e-14)
(2.84446e-13 -7.24479e-13 -2.33362e-14)
(1.9788e-13 -6.44283e-13 -1.97269e-14)
(1.27502e-13 -5.74869e-13 -1.6953e-14)
(7.02328e-14 -5.12646e-13 -1.47337e-14)
(2.40365e-14 -2.53833e-13 -1.30411e-14)
(1.46645e-12 -3.48224e-13 -1.05833e-13)
(1.15094e-12 -1.21796e-12 -8.82125e-14)
(8.56371e-13 -1.60683e-12 -7.01733e-14)
(6.30322e-13 -1.36619e-12 -5.64277e-14)
(4.56304e-13 -1.16684e-12 -4.57779e-14)
(3.21741e-13 -1.0023e-12 -3.76177e-14)
(2.17418e-13 -8.65363e-13 -3.12487e-14)
(1.36352e-13 -7.50946e-13 -2.63826e-14)
(7.33019e-14 -6.52332e-13 -2.24789e-14)
(2.46605e-14 -3.18214e-13 -1.95315e-14)
(2.0382e-12 -8.73094e-13 -1.8691e-13)
(1.52001e-12 -2.19066e-12 -1.50111e-13)
(1.08354e-12 -2.40735e-12 -1.15688e-13)
(7.66836e-13 -1.96754e-12 -9.07061e-14)
(5.35469e-13 -1.62066e-12 -7.1833e-14)
(3.65234e-13 -1.34615e-12 -5.77479e-14)
(2.39354e-13 -1.12661e-12 -4.70016e-14)
(1.45945e-13 -9.49776e-13 -3.88428e-14)
(7.65477e-14 -8.032e-13 -3.25318e-14)
(2.52913e-14 -3.85804e-13 -2.75182e-14)
(2.90555e-12 -1.74367e-12 -3.32846e-13)
(2.04394e-12 -3.71798e-12 -2.53908e-13)
(1.38875e-12 -3.56957e-12 -1.88757e-13)
(9.41294e-13 -2.79326e-12 -1.42595e-13)
(6.32115e-13 -2.21197e-12 -1.09657e-13)
(4.16157e-13 -1.77265e-12 -8.56737e-14)
(2.64082e-13 -1.43576e-12 -6.79069e-14)
(1.56421e-13 -1.17444e-12 -5.48064e-14)
(7.99567e-14 -9.66219e-13 -4.48192e-14)
(2.60049e-14 -4.56888e-13 -3.70203e-14)
(2.66563e-11 -3.21094e-12 -5.98448e-13)
(2.82887e-12 -6.15806e-12 -4.29554e-13)
(1.7982e-12 -5.27875e-12 -3.04614e-13)
(1.16085e-12 -3.93634e-12 -2.20919e-13)
(7.45907e-13 -2.98648e-12 -1.63769e-13)
(4.71616e-13 -2.30314e-12 -1.23904e-13)
(2.88118e-13 -1.80199e-12 -9.53831e-14)
(1.64333e-13 -1.42863e-12 -7.47015e-14)
(8.03717e-14 -1.14247e-12 -5.95201e-14)
(2.37853e-14 -5.31584e-13 -4.82075e-14)
(6.05827e-08 -6.76196e-11 -8.54079e-12)
(4.00849e-11 -6.84402e-11 -1.7392e-12)
(1.65313e-12 -7.94374e-12 -1.11468e-12)
(1.07316e-12 -5.55143e-12 -7.3867e-13)
(7.11534e-13 -4.01813e-12 -5.06041e-13)
(4.74467e-13 -2.97251e-12 -3.5707e-13)
(3.16308e-13 -2.24176e-12 -2.611e-13)
(2.09152e-13 -1.71992e-12 -1.93995e-13)
(1.3565e-13 -1.33573e-12 -1.46053e-13)
(8.47037e-14 -6.12479e-13 -1.10855e-13)
(2.27512e-13 3.75925e-13 -1.08824e-14)
(2.14739e-13 3.49034e-13 -9.66917e-15)
(1.88299e-13 -5.26646e-14 -7.44135e-15)
(1.62991e-13 -5.24907e-14 -5.57582e-15)
(1.38825e-13 -5.16893e-14 -4.0587e-15)
(1.15701e-13 -5.09162e-14 -2.79109e-15)
(9.36059e-14 -5.02196e-14 -1.8228e-15)
(7.24576e-14 -4.94544e-14 -1.01039e-15)
(5.22197e-14 -4.84963e-14 -4.78824e-16)
(3.29864e-14 -2.54051e-14 -2.39423e-16)
(4.99339e-13 3.41792e-13 -1.60787e-14)
(4.61051e-13 2.43117e-13 -1.41177e-14)
(3.94871e-13 -1.9037e-13 -1.10891e-14)
(3.33286e-13 -1.83827e-13 -8.67385e-15)
(2.76081e-13 -1.76906e-13 -6.43764e-15)
(2.2284e-13 -1.70333e-13 -4.91291e-15)
(1.7332e-13 -1.64101e-13 -3.67854e-15)
(1.27218e-13 -1.58132e-13 -2.86215e-15)
(8.42332e-14 -1.5184e-13 -2.12972e-15)
(4.45216e-14 -7.8472e-14 -1.72793e-15)
(6.17408e-13 2.76461e-13 -2.6016e-14)
(5.48852e-13 7.45065e-14 -2.28552e-14)
(4.53204e-13 -3.8551e-13 -1.85053e-14)
(3.681e-13 -3.61741e-13 -1.47173e-14)
(2.92554e-13 -3.39061e-13 -1.18105e-14)
(2.25389e-13 -3.18185e-13 -9.63089e-15)
(1.65637e-13 -2.98824e-13 -7.84003e-15)
(1.12483e-13 -2.81001e-13 -6.5475e-15)
(6.51506e-14 -2.63385e-13 -5.71187e-15)
(2.33446e-14 -1.34248e-13 -5.09125e-15)
(8.10898e-13 1.61835e-13 -4.45309e-14)
(6.94346e-13 -1.88348e-13 -3.88343e-14)
(5.55769e-13 -6.61699e-13 -3.16201e-14)
(4.3814e-13 -6.02452e-13 -2.59106e-14)
(3.38375e-13 -5.48601e-13 -2.13347e-14)
(2.53625e-13 -5.0075e-13 -1.76928e-14)
(1.81604e-13 -4.57949e-13 -1.50093e-14)
(1.20335e-13 -4.19602e-13 -1.2849e-14)
(6.82187e-14 -3.83747e-13 -1.12236e-14)
(2.4183e-14 -1.92835e-13 -1.01233e-14)
(1.08344e-12 -3.18649e-14 -7.76826e-14)
(8.90099e-13 -5.95471e-13 -6.67282e-14)
(6.88374e-13 -1.05379e-12 -5.40772e-14)
(5.25294e-13 -9.28388e-13 -4.41665e-14)
(3.9339e-13 -8.19747e-13 -3.64955e-14)
(2.86414e-13 -7.26433e-13 -3.03461e-14)
(1.99541e-13 -6.45832e-13 -2.56519e-14)
(1.28908e-13 -5.76134e-13 -2.193e-14)
(7.14365e-14 -5.13638e-13 -1.91201e-14)
(2.50723e-14 -2.54413e-13 -1.68687e-14)
(1.47534e-12 -3.53371e-13 -1.37001e-13)
(1.15809e-12 -1.22526e-12 -1.14067e-13)
(8.61917e-13 -1.61341e-12 -9.09494e-14)
(6.34692e-13 -1.37145e-12 -7.30512e-14)
(4.59779e-13 -1.17102e-12 -5.9412e-14)
(3.2456e-13 -1.00566e-12 -4.90292e-14)
(2.19688e-13 -8.68107e-13 -4.0716e-14)
(1.38229e-13 -7.53172e-13 -3.43728e-14)
(7.4858e-14 -6.54123e-13 -2.93518e-14)
(2.59418e-14 -3.19224e-13 -2.54593e-14)
(2.05314e-12 -8.83455e-13 -2.41953e-13)
(1.53145e-12 -2.20457e-12 -1.94135e-13)
(1.09206e-12 -2.41925e-12 -1.50365e-13)
(7.733e-13 -1.97672e-12 -1.17716e-13)
(5.4044e-13 -1.62787e-12 -9.37006e-14)
(3.6909e-13 -1.35186e-12 -7.54191e-14)
(2.42385e-13 -1.13115e-12 -6.14092e-14)
(1.48365e-13 -9.53393e-13 -5.07993e-14)
(7.84825e-14 -8.06176e-13 -4.25818e-14)
(2.68655e-14 -3.87567e-13 -3.61064e-14)
(2.93072e-12 -1.7647e-12 -4.29843e-13)
(2.06218e-12 -3.7445e-12 -3.28667e-13)
(1.40176e-12 -3.59079e-12 -2.44834e-13)
(9.50726e-13 -2.80919e-12 -1.85787e-13)
(6.39073e-13 -2.22415e-12 -1.4325e-13)
(4.21366e-13 -1.78207e-12 -1.12166e-13)
(2.68035e-13 -1.44312e-12 -8.91911e-14)
(1.5944e-13 -1.18026e-12 -7.19358e-14)
(8.22845e-14 -9.70836e-13 -5.87536e-14)
(2.78164e-14 -4.59612e-13 -4.8909e-14)
(2.66697e-11 -3.25312e-12 -7.71074e-13)
(2.85928e-12 -6.20825e-12 -5.56454e-13)
(1.81843e-12 -5.31657e-12 -3.95887e-13)
(1.17481e-12 -3.96369e-12 -2.88156e-13)
(7.55737e-13 -3.00658e-12 -2.14373e-13)
(4.78665e-13 -2.31823e-12 -1.62607e-13)
(2.93262e-13 -1.8135e-12 -1.2537e-13)
(1.68129e-13 -1.43754e-12 -9.84658e-14)
(8.32144e-14 -1.14947e-12 -7.84201e-14)
(2.59151e-14 -5.35593e-13 -6.34523e-14)
(6.08726e-08 -6.72319e-11 -1.63719e-12)
(4.07471e-11 -6.84009e-11 -9.56273e-13)
(1.77418e-12 -7.97746e-12 -6.40557e-13)
(1.15551e-12 -5.57554e-12 -4.44322e-13)
(7.68361e-13 -4.03612e-12 -3.16637e-13)
(5.14713e-13 -2.98607e-12 -2.31241e-13)
(3.45383e-13 -2.25196e-12 -1.72734e-13)
(2.30549e-13 -1.72779e-12 -1.31557e-13)
(1.51643e-13 -1.34191e-12 -1.01935e-13)
(9.71946e-14 -6.15371e-13 -8.05682e-14)
(2.28055e-13 3.75588e-13 -1.3668e-14)
(2.15203e-13 3.48223e-13 -1.19042e-14)
(1.88662e-13 -5.35962e-14 -9.32997e-15)
(1.63302e-13 -5.32274e-14 -6.93257e-15)
(1.39041e-13 -5.2297e-14 -5.03966e-15)
(1.15896e-13 -5.14274e-14 -3.35745e-15)
(9.37616e-14 -5.05709e-14 -2.11696e-15)
(7.26006e-14 -4.97585e-14 -1.25839e-15)
(5.2362e-14 -4.87014e-14 -6.30676e-16)
(3.31113e-14 -2.54271e-14 -3.27375e-16)
(5.00664e-13 3.4128e-13 -2.01036e-14)
(4.62211e-13 2.41979e-13 -1.76074e-14)
(3.95827e-13 -1.91565e-13 -1.37767e-14)
(3.34094e-13 -1.84832e-13 -1.07464e-14)
(2.76744e-13 -1.7774e-13 -8.23824e-15)
(2.23423e-13 -1.70949e-13 -6.11368e-15)
(1.73834e-13 -1.64569e-13 -4.48792e-15)
(1.27669e-13 -1.58469e-13 -3.37689e-15)
(8.46862e-14 -1.52097e-13 -2.66893e-15)
(4.49298e-14 -7.86024e-14 -2.29125e-15)
(6.19775e-13 2.75567e-13 -3.24937e-14)
(5.50915e-13 7.28286e-14 -2.84164e-14)
(4.54915e-13 -3.87251e-13 -2.29196e-14)
(3.6954e-13 -3.63203e-13 -1.84275e-14)
(2.938e-13 -3.4023e-13 -1.47739e-14)
(2.26448e-13 -3.19067e-13 -1.19358e-14)
(1.66598e-13 -2.99533e-13 -9.68872e-15)
(1.13343e-13 -2.81497e-13 -8.1935e-15)
(6.59354e-14 -2.63746e-13 -7.10938e-15)
(2.40817e-14 -1.34472e-13 -6.28579e-15)
(8.14947e-13 1.60152e-13 -5.57061e-14)
(6.97828e-13 -1.91223e-13 -4.84225e-14)
(5.58626e-13 -6.64509e-13 -3.93946e-14)
(4.40524e-13 -6.04705e-13 -3.22788e-14)
(3.404e-13 -5.50481e-13 -2.65482e-14)
(2.55353e-13 -5.02182e-13 -2.19412e-14)
(1.83086e-13 -4.59034e-13 -1.86314e-14)
(1.21642e-13 -4.20512e-13 -1.60998e-14)
(6.93574e-14 -3.8443e-13 -1.40564e-14)
(2.5198e-14 -1.9324e-13 -1.2559e-14)
(1.09031e-12 -3.51614e-14 -9.72293e-14)
(8.95811e-13 -6.00528e-13 -8.32405e-14)
(6.92973e-13 -1.05857e-12 -6.7533e-14)
(5.29011e-13 -9.32221e-13 -5.51342e-14)
(3.96443e-13 -8.22842e-13 -4.54718e-14)
(2.88983e-13 -7.28961e-13 -3.79818e-14)
(2.01657e-13 -6.4787e-13 -3.18987e-14)
(1.30709e-13 -5.77752e-13 -2.73647e-14)
(7.29712e-14 -5.14966e-13 -2.37704e-14)
(2.63822e-14 -2.55212e-13 -2.09492e-14)
(1.48688e-12 -3.6013e-13 -1.71402e-13)
(1.16732e-12 -1.23483e-12 -1.42756e-13)
(8.69105e-13 -1.62196e-12 -1.13596e-13)
(6.40309e-13 -1.37825e-12 -9.13192e-14)
(4.64262e-13 -1.17639e-12 -7.42793e-14)
(3.28151e-13 -1.00999e-12 -6.10769e-14)
(2.22609e-13 -8.71616e-13 -5.08528e-14)
(1.40623e-13 -7.55985e-13 -4.28701e-14)
(7.68322e-14 -6.56447e-13 -3.67132e-14)
(2.76e-14 -3.20583e-13 -3.17867e-14)
(2.07247e-12 -8.97175e-13 -3.03151e-13)
(1.54623e-12 -2.22264e-12 -2.42843e-13)
(1.10308e-12 -2.43458e-12 -1.87989e-13)
(7.81656e-13 -1.98863e-12 -1.47238e-13)
(5.46849e-13 -1.63714e-12 -1.17077e-13)
(3.74054e-13 -1.35926e-12 -9.41992e-14)
(2.46303e-13 -1.13704e-12 -7.68176e-14)
(1.51457e-13 -9.58105e-13 -6.3388e-14)
(8.09536e-14 -8.09973e-13 -5.30974e-14)
(2.88691e-14 -3.89798e-13 -4.50034e-14)
(2.96345e-12 -1.7923e-12 -5.39032e-13)
(2.08587e-12 -3.77895e-12 -4.1182e-13)
(1.4186e-12 -3.61829e-12 -3.06732e-13)
(9.62955e-13 -2.82984e-12 -2.32548e-13)
(6.4807e-13 -2.23988e-12 -1.79146e-13)
(4.28105e-13 -1.7942e-12 -1.40303e-13)
(2.73133e-13 -1.4526e-12 -1.11502e-13)
(1.63357e-13 -1.18777e-12 -8.97653e-14)
(8.5304e-14 -9.76795e-13 -7.33822e-14)
(3.01732e-14 -4.63037e-13 -6.08736e-14)
(2.6774e-11 -3.30884e-12 -9.68577e-13)
(2.89717e-12 -6.27377e-12 -6.98186e-13)
(1.84406e-12 -5.36568e-12 -4.96601e-13)
(1.1925e-12 -3.99908e-12 -3.61399e-13)
(7.68195e-13 -3.0326e-12 -2.68551e-13)
(4.87601e-13 -2.33776e-12 -2.03446e-13)
(2.99771e-13 -1.82835e-12 -1.56848e-13)
(1.72936e-13 -1.449e-12 -1.23106e-13)
(8.67862e-14 -1.15843e-12 -9.79522e-14)
(2.86048e-14 -5.40756e-13 -7.93428e-14)
(6.07388e-08 -6.79085e-11 -5.89037e-12)
(4.06319e-11 -6.86511e-11 -1.1914e-12)
(1.79895e-12 -8.06383e-12 -7.9917e-13)
(1.17175e-12 -5.63517e-12 -5.54438e-13)
(7.79646e-13 -4.07826e-12 -3.95183e-13)
(5.22768e-13 -3.01651e-12 -2.88614e-13)
(3.51284e-13 -2.27443e-12 -2.15417e-13)
(2.34961e-13 -1.74474e-12 -1.63914e-13)
(1.55012e-13 -1.35481e-12 -1.26944e-13)
(9.9814e-14 -6.22617e-13 -1.00211e-13)
(2.28735e-13 3.75193e-13 -1.63423e-14)
(2.15793e-13 3.47307e-13 -1.42638e-14)
(1.89105e-13 -5.46353e-14 -1.11005e-14)
(1.63656e-13 -5.41929e-14 -8.40218e-15)
(1.39359e-13 -5.31107e-14 -6.03423e-15)
(1.16144e-13 -5.20797e-14 -4.0435e-15)
(9.39764e-14 -5.10542e-14 -2.55758e-15)
(7.2782e-14 -5.00478e-14 -1.42413e-15)
(5.25319e-14 -4.88679e-14 -8.16817e-16)
(3.32878e-14 -2.55096e-14 -4.9717e-16)
(5.02296e-13 3.40665e-13 -2.41311e-14)
(4.6363e-13 2.40629e-13 -2.0955e-14)
(3.96984e-13 -1.93048e-13 -1.66e-14)
(3.35058e-13 -1.86001e-13 -1.28588e-14)
(2.77579e-13 -1.78738e-13 -9.94468e-15)
(2.24147e-13 -1.7182e-13 -7.35106e-15)
(1.74473e-13 -1.65197e-13 -5.56292e-15)
(1.28272e-13 -1.58867e-13 -4.149e-15)
(8.52211e-14 -1.52285e-13 -3.15756e-15)
(4.5436e-14 -7.86741e-14 -2.88519e-15)
(6.2266e-13 2.74475e-13 -3.91265e-14)
(5.53415e-13 7.07633e-14 -3.40746e-14)
(4.57002e-13 -3.89369e-13 -2.73742e-14)
(3.71304e-13 -3.64931e-13 -2.20766e-14)
(2.95286e-13 -3.41636e-13 -1.77465e-14)
(2.27758e-13 -3.20232e-13 -1.43533e-14)
(1.67761e-13 -3.00357e-13 -1.16854e-14)
(1.14407e-13 -2.82087e-13 -9.86721e-15)
(6.6884e-14 -2.64213e-13 -8.58024e-15)
(2.49187e-14 -1.34696e-13 -7.65836e-15)
(8.19928e-13 1.58091e-13 -6.6874e-14)
(7.02084e-13 -1.94656e-13 -5.78831e-14)
(5.62139e-13 -6.6789e-13 -4.71957e-14)
(4.43434e-13 -6.0748e-13 -3.85933e-14)
(3.42847e-13 -5.52732e-13 -3.17968e-14)
(2.5746e-13 -5.03999e-13 -2.65551e-14)
(1.84904e-13 -4.60416e-13 -2.22781e-14)
(1.23213e-13 -4.2159e-13 -1.91963e-14)
(7.07453e-14 -3.85336e-13 -1.6804e-14)
(2.64286e-14 -1.93733e-13 -1.50132e-14)
(1.09872e-12 -3.92633e-14 -1.17221e-13)
(9.02815e-13 -6.06733e-13 -9.97076e-14)
(6.98577e-13 -1.06442e-12 -8.08303e-14)
(5.33559e-13 -9.36966e-13 -6.59261e-14)
(4.00186e-13 -8.2662e-13 -5.44007e-14)
(2.92082e-13 -7.32045e-13 -4.55022e-14)
(2.04275e-13 -6.50352e-13 -3.82779e-14)
(1.329e-13 -5.79732e-13 -3.28394e-14)
(7.48584e-14 -5.1657e-13 -2.84434e-14)
(2.80135e-14 -2.56157e-13 -2.52839e-14)
(1.50102e-12 -3.68353e-13 -2.06668e-13)
(1.17861e-12 -1.24643e-12 -1.7097e-13)
(8.77848e-13 -1.63237e-12 -1.361e-13)
(6.47204e-13 -1.3865e-12 -1.09528e-13)
(4.69744e-13 -1.18303e-12 -8.91855e-14)
(3.32559e-13 -1.01531e-12 -7.34254e-14)
(2.26213e-13 -8.75901e-13 -6.12191e-14)
(1.43557e-13 -7.59441e-13 -5.13529e-14)
(7.92718e-14 -6.59244e-13 -4.40366e-14)
(2.96174e-14 -3.22257e-13 -3.81834e-14)
(2.09627e-12 -9.13956e-13 -3.65814e-13)
(1.56433e-12 -2.24478e-12 -2.9137e-13)
(1.11659e-12 -2.45333e-12 -2.25674e-13)
(7.91883e-13 -2.00318e-12 -1.77089e-13)
(5.54679e-13 -1.64854e-12 -1.40691e-13)
(3.80162e-13 -1.36824e-12 -1.13335e-13)
(2.51084e-13 -1.14424e-12 -9.24518e-14)
(1.55244e-13 -9.63859e-13 -7.597e-14)
(8.39761e-14 -8.14641e-13 -6.36412e-14)
(3.1305e-14 -3.92573e-13 -5.41373e-14)
(3.00377e-12 -1.8263e-12 -6.51164e-13)
(2.11493e-12 -3.8212e-12 -4.95476e-13)
(1.43933e-12 -3.65204e-12 -3.69381e-13)
(9.77953e-13 -2.85517e-12 -2.79804e-13)
(6.59108e-13 -2.25915e-12 -2.156e-13)
(4.36341e-13 -1.80906e-12 -1.6887e-13)
(2.79362e-13 -1.46427e-12 -1.34182e-13)
(1.68129e-13 -1.19694e-12 -1.07814e-13)
(8.8975e-14 -9.8407e-13 -8.78803e-14)
(3.30497e-14 -4.67324e-13 -7.29986e-14)
(2.71332e-11 -3.3774e-12 -1.17054e-12)
(2.94447e-12 -6.3542e-12 -8.41938e-13)
(1.87568e-12 -5.42599e-12 -5.99072e-13)
(1.2143e-12 -4.04265e-12 -4.35664e-13)
(7.8355e-13 -3.06465e-12 -3.23654e-13)
(4.98592e-13 -2.3617e-12 -2.45e-13)
(3.0777e-13 -1.84656e-12 -1.89048e-13)
(1.78831e-13 -1.46306e-12 -1.48054e-13)
(9.11706e-14 -1.16937e-12 -1.1747e-13)
(3.19039e-14 -5.47032e-13 -9.51598e-14)
(6.17401e-08 -6.86633e-11 -4.73309e-12)
(4.20848e-11 -6.95582e-11 -1.43107e-12)
(1.82746e-12 -8.17232e-12 -9.66332e-13)
(1.19111e-12 -5.70899e-12 -6.70042e-13)
(7.9315e-13 -4.13035e-12 -4.77396e-13)
(5.32443e-13 -3.05413e-12 -3.48337e-13)
(3.58386e-13 -2.3022e-12 -2.59881e-13)
(2.40279e-13 -1.76559e-12 -1.97688e-13)
(1.59076e-13 -1.37064e-12 -1.52524e-13)
(1.02962e-13 -6.31513e-13 -1.20416e-13)
(2.29518e-13 3.74727e-13 -1.89142e-14)
(2.16376e-13 3.46148e-13 -1.5266e-14)
(1.896e-13 -5.59115e-14 -1.18751e-14)
(1.6405e-13 -5.52333e-14 -9.00118e-15)
(1.39692e-13 -5.40299e-14 -7.00901e-15)
(1.16448e-13 -5.28147e-14 -5.4267e-15)
(9.42647e-14 -5.16274e-14 -4.58716e-15)
(7.30812e-14 -5.04865e-14 -5.78367e-15)
(5.28727e-14 -4.92047e-14 -1.74814e-14)
(3.36585e-14 -2.60849e-14 -5.9239e-14)
(5.042e-13 3.39874e-13 -2.75899e-14)
(4.65166e-13 2.39079e-13 -2.18724e-14)
(3.98274e-13 -1.94683e-13 -1.75334e-14)
(3.36154e-13 -1.87416e-13 -1.37848e-14)
(2.78519e-13 -1.799e-13 -1.09627e-14)
(2.25007e-13 -1.72701e-13 -9.03541e-15)
(1.75253e-13 -1.65884e-13 -7.84447e-15)
(1.29006e-13 -1.59521e-13 -8.19108e-15)
(8.59666e-14 -1.52865e-13 -1.41208e-14)
(4.61453e-14 -7.96862e-14 -4.12621e-14)
(6.26025e-13 2.73166e-13 -4.48109e-14)
(5.56195e-13 6.83889e-14 -3.61604e-14)
(4.59327e-13 -3.91778e-13 -2.92549e-14)
(3.73295e-13 -3.669e-13 -2.39184e-14)
(2.9702e-13 -3.43249e-13 -1.95832e-14)
(2.29319e-13 -3.21503e-13 -1.67151e-14)
(1.69138e-13 -3.01424e-13 -1.49375e-14)
(1.15656e-13 -2.82904e-13 -1.39841e-14)
(6.80761e-14 -2.64974e-13 -1.68148e-14)
(2.60161e-14 -1.35954e-13 -3.32816e-14)
(8.25739e-13 1.55659e-13 -7.6779e-14)
(7.06813e-13 -1.98524e-13 -6.23461e-14)
(5.66065e-13 -6.71677e-13 -5.09649e-14)
(4.46734e-13 -6.10571e-13 -4.2189e-14)
(3.45682e-13 -5.55203e-13 -3.53985e-14)
(2.59919e-13 -5.06049e-13 -3.0238e-14)