/*--------------------------------*- C++ -*----------------------------------*\
| =========                 |                                                 |
| \\      /  F ield         | OpenFOAM: The Open Source CFD Toolbox           |
|  \\    /   O peration     | Version:  4.1                                   |
|   \\  /    A nd           | Web:      www.OpenFOAM.org                      |
|    \\/     M anipulation  |                                                 |
\*---------------------------------------------------------------------------*/
FoamFile
{
    version     2.0;
    format      ascii;
    class       volScalarField;
    location    "5.94";
    object      T;
}
// * * * * * * * * * * * * * * * * * * * * * * * * * * * * * * * * * * * * * //

dimensions      [0 0 0 1 0 0 0];

internalField   nonuniform List<scalar> 
52500
(
0.999996
1.00002
1.00004
1.00016
1.0003
1.00098
1.00182
1.00543
1.01121
1.0294
1.07826
1.17545
1.53306
2.34353
2.65983
2.73035
2.72493
2.72224
2.7368
2.74882
2.76271
2.77177
2.7799
2.78577
2.78848
0.999996
1.00002
1.00004
1.00016
1.0003
1.00097
1.00179
1.00535
1.01108
1.02896
1.07734
1.1729
1.52853
2.33378
2.65672
2.73032
2.72471
2.7219
2.73632
2.74822
2.7619
2.77048
2.77861
2.78357
2.78543
0.999996
1.00002
1.00004
1.00016
1.00029
1.00094
1.00174
1.00518
1.01081
1.02806
1.07541
1.16763
1.51823
2.31164
2.64855
2.72919
2.72326
2.72014
2.73445
2.74613
2.75961
2.76834
2.77529
2.78092
2.78157
0.999995
1.00002
1.00004
1.00015
1.00028
1.0009
1.00167
1.00493
1.0104
1.02668
1.07245
1.15943
1.50206
2.27675
2.63567
2.72725
2.7209
2.71668
2.73044
2.74244
2.75394
2.76266
2.7711
2.77444
2.77672
0.999995
1.00002
1.00004
1.00014
1.00026
1.00085
1.00158
1.0047
1.00981
1.0254
1.06815
1.15153
1.46908
2.21796
2.61653
2.72312
2.71612
2.71069
2.72379
2.73643
2.74914
2.75521
2.76109
2.76756
2.7664
0.999995
1.00002
1.00004
1.00013
1.00025
1.00081
1.00148
1.00449
1.00908
1.02413
1.06218
1.14173
1.42526
2.13807
2.58945
2.71745
2.71087
2.70159
2.71567
2.72352
2.73815
2.74702
2.75309
2.75492
2.75668
0.999995
1.00001
1.00003
1.00012
1.00023
1.00075
1.00137
1.00428
1.00822
1.02312
1.05436
1.13017
1.37303
2.03593
2.55324
2.7084
2.70206
2.692
2.70722
2.71559
2.72344
2.7299
2.73705
2.74001
2.73641
0.999995
1.00001
1.00003
1.00011
1.00021
1.00068
1.00124
1.00386
1.00737
1.02105
1.04743
1.11805
1.32086
1.92146
2.50384
2.68973
2.68028
2.67198
2.68784
2.70139
2.71234
2.7141
2.7178
2.71711
2.71339
0.999995
1.00001
1.00002
1.0001
1.00019
1.00061
1.00111
1.00347
1.00659
1.01901
1.04204
1.10613
1.28265
1.81912
2.47747
2.68048
2.6715
2.65665
2.67129
2.67687
2.6892
2.69187
2.69132
2.68547
2.66202
0.999994
1.00001
1.00002
1.00008
1.00016
1.00051
1.00096
1.00287
1.00584
1.01547
1.03883
1.08994
1.25948
1.69673
2.4212
2.655
2.65329
2.65216
2.655
2.66202
2.66542
2.66489
2.65649
2.63538
2.58529
1
1.00003
1.00005
1.00017
1.00031
1.00099
1.00182
1.00544
1.01122
1.02942
1.07827
1.1755
1.5331
2.34365
2.65991
2.73042
2.725
2.72231
2.73687
2.7489
2.76278
2.77185
2.77998
2.78585
2.78856
1
1.00003
1.00005
1.00017
1.00031
1.00098
1.0018
1.00536
1.01109
1.02898
1.07736
1.17294
1.52857
2.3339
2.65679
2.73038
2.72478
2.72197
2.7364
2.74829
2.76197
2.77056
2.77869
2.78365
2.78551
1
1.00003
1.00005
1.00017
1.0003
1.00095
1.00175
1.00519
1.01082
1.02808
1.07542
1.16767
1.51827
2.31176
2.64862
2.72925
2.72333
2.72021
2.73452
2.7462
2.75968
2.76842
2.77537
2.781
2.78165
1
1.00003
1.00005
1.00016
1.00029
1.00091
1.00168
1.00494
1.01041
1.0267
1.07247
1.15948
1.5021
2.27687
2.63574
2.72732
2.72097
2.71675
2.73052
2.74251
2.75401
2.76273
2.77117
2.77452
2.7768
1
1.00002
1.00005
1.00015
1.00027
1.00086
1.00159
1.00471
1.00982
1.02541
1.06816
1.15156
1.46911
2.21809
2.6166
2.72319
2.71618
2.71076
2.72386
2.7365
2.74922
2.75529
2.76116
2.76764
2.76647
1
1.00002
1.00004
1.00014
1.00026
1.00081
1.00149
1.0045
1.00909
1.02416
1.06218
1.14177
1.42526
2.13817
2.58952
2.71752
2.71094
2.70166
2.71573
2.72359
2.73822
2.7471
2.75316
2.75499
2.75675
1
1.00002
1.00004
1.00013
1.00024
1.00076
1.00138
1.00429
1.00823
1.02314
1.05437
1.13021
1.37305
2.03604
2.5533
2.70846
2.70212
2.69206
2.70729
2.71565
2.72351
2.72997
2.73712
2.74008
2.73648
1
1.00002
1.00004
1.00012
1.00022
1.00069
1.00125
1.00387
1.00738
1.02107
1.04744
1.11808
1.32089
1.92156
2.5039
2.68979
2.68034
2.67204
2.68791
2.70146
2.71241
2.71417
2.71787
2.71718
2.71346
1
1.00002
1.00003
1.00011
1.00019
1.00062
1.00112
1.00348
1.0066
1.01902
1.04205
1.10616
1.28266
1.81921
2.4775
2.68054
2.67157
2.65672
2.67136
2.67694
2.68926
2.69193
2.69138
2.68553
2.66209
1
1.00001
1.00003
1.00009
1.00017
1.00052
1.00097
1.00288
1.00584
1.01549
1.03883
1.08996
1.25946
1.69682
2.42124
2.65505
2.65333
2.65222
2.65507
2.66209
2.66549
2.66496
2.65655
2.63544
2.58535
1
1.00003
1.00005
1.00017
1.00031
1.00099
1.00182
1.00544
1.01122
1.02942
1.07827
1.1755
1.5331
2.34365
2.65991
2.73042
2.725
2.72231
2.73687
2.7489
2.76278
2.77185
2.77998
2.78585
2.78856
1
1.00003
1.00005
1.00017
1.00031
1.00098
1.0018
1.00536
1.01109
1.02898
1.07736
1.17294
1.52857
2.3339
2.65679
2.73038
2.72478
2.72197
2.7364
2.74829
2.76197
2.77056
2.77869
2.78365
2.78551
1
1.00003
1.00005
1.00017
1.0003
1.00095
1.00175
1.00519
1.01082
1.02808
1.07542
1.16767
1.51827
2.31176
2.64863
2.72925
2.72333
2.72021
2.73452
2.7462
2.75968
2.76842
2.77537
2.781
2.78165
1
1.00003
1.00005
1.00016
1.00029
1.00091
1.00168
1.00494
1.01041
1.0267
1.07247
1.15948
1.5021
2.27688
2.63574
2.72732
2.72097
2.71675
2.73052
2.74251
2.75401
2.76273
2.77117
2.77452
2.7768
1
1.00002
1.00005
1.00015
1.00027
1.00086
1.00159
1.00471
1.00982
1.02541
1.06816
1.15157
1.46912
2.21809
2.6166
2.72319
2.71618
2.71076
2.72386
2.7365
2.74922
2.75529
2.76116
2.76764
2.76647
1
1.00002
1.00004
1.00014
1.00026
1.00081
1.00149
1.0045
1.00909
1.02416
1.06218
1.14177
1.42526
2.13817
2.58952
2.71752
2.71094
2.70166
2.71573
2.72359
2.73822
2.7471
2.75316
2.75499
2.75675
1
1.00002
1.00004
1.00013
1.00024
1.00076
1.00138
1.00429
1.00823
1.02314
1.05437
1.13021
1.37305
2.03605
2.5533
2.70846
2.70212
2.69206
2.70729
2.71565
2.72351
2.72997
2.73712
2.74008
2.73648
1
1.00002
1.00004
1.00012
1.00022
1.00069
1.00125
1.00387
1.00738
1.02107
1.04744
1.11808
1.3209
1.92157
2.5039
2.68979
2.68034
2.67204
2.68791
2.70146
2.71241
2.71417
2.71787
2.71718
2.71346
1
1.00002
1.00003
1.00011
1.00019
1.00062
1.00112
1.00348
1.0066
1.01902
1.04205
1.10616
1.28266
1.81922
2.4775
2.68054
2.67157
2.65672
2.67136
2.67694
2.68926
2.69193
2.69138
2.68553
2.66209
1
1.00001
1.00003
1.00009
1.00017
1.00052
1.00097
1.00288
1.00584
1.01549
1.03883
1.08996
1.25946
1.69682
2.42124
2.65505
2.65333
2.65222
2.65507
2.66209
2.66549
2.66496
2.65655
2.63544
2.58535
1
1.00003
1.00005
1.00017
1.00031
1.00099
1.00182
1.00544
1.01122
1.02942
1.07827
1.1755
1.5331
2.34365
2.65991
2.73042
2.725
2.72231
2.73687
2.7489
2.76278
2.77185
2.77998
2.78585
2.78856
1
1.00003
1.00005
1.00017
1.00031
1.00098
1.0018
1.00536
1.01109
1.02898
1.07736
1.17294
1.52857
2.3339
2.65679
2.73038
2.72478
2.72197
2.7364
2.74829
2.76197
2.77056
2.77869
2.78365
2.78551
1
1.00003
1.00005
1.00017
1.0003
1.00095
1.00175
1.00519
1.01082
1.02808
1.07542
1.16767
1.51827
2.31176
2.64863
2.72925
2.72333
2.72021
2.73452
2.7462
2.75968
2.76842
2.77537
2.781
2.78165
1
1.00003
1.00005
1.00016
1.00029
1.00091
1.00168
1.00494
1.01041
1.0267
1.07247
1.15948
1.5021
2.27688
2.63574
2.72732
2.72097
2.71675
2.73052
2.74251
2.75401
2.76273
2.77117
2.77452
2.7768
1
1.00002
1.00005
1.00015
1.00027
1.00086
1.00159
1.00471
1.00982
1.02541
1.06816
1.15157
1.46912
2.21809
2.6166
2.72319
2.71618
2.71076
2.72386
2.7365
2.74922
2.75529
2.76116
2.76764
2.76647
1
1.00002
1.00004
1.00014
1.00026
1.00081
1.00149
1.0045
1.00909
1.02416
1.06218
1.14177
1.42526
2.13817
2.58952
2.71752
2.71094
2.70166
2.71573
2.72359
2.73822
2.7471
2.75316
2.75499
2.75675
1
1.00002
1.00004
1.00013
1.00024
1.00076
1.00138
1.00429
1.00823
1.02314
1.05437
1.13021
1.37305
2.03605
2.5533
2.70846
2.70212
2.69206
2.70729
2.71565
2.72351
2.72997
2.73712
2.74008
2.73648
1
1.00002
1.00004
1.00012
1.00022
1.00069
1.00125
1.00387
1.00738
1.02107
1.04744
1.11808
1.3209
1.92157
2.5039
2.68979
2.68034
2.67204
2.68791
2.70146
2.71241
2.71417
2.71787
2.71718
2.71346
1
1.00002
1.00003
1.00011
1.00019
1.00062
1.00112
1.00348
1.0066
1.01902
1.04205
1.10616
1.28266
1.81922
2.4775
2.68054
2.67157
2.65672
2.67136
2.67694
2.68926
2.69193
2.69138
2.68553
2.66209
1
1.00001
1.00003
1.00009
1.00017
1.00052
1.00097
1.00288
1.00584
1.01549
1.03883
1.08996
1.25946
1.69682
2.42124
2.65505
2.65333
2.65222
2.65507
2.66209
2.66549
2.66496
2.65655
2.63544
2.58535
1
1.00003
1.00005
1.00017
1.00031
1.00099
1.00182
1.00544
1.01122
1.02942
1.07827
1.1755
1.5331
2.34366
2.65991
2.73042
2.725
2.72231
2.73687
2.7489
2.76278
2.77185
2.77998
2.78585
2.78856
1
1.00003
1.00005
1.00017
1.00031
1.00098
1.0018
1.00536
1.01109
1.02898
1.07736
1.17294
1.52857
2.33391
2.65679
2.73038
2.72478
2.72197
2.7364
2.74829
2.76197
2.77056
2.77869
2.78365
2.78551
1
1.00003
1.00005
1.00017
1.0003
1.00095
1.00175
1.00519
1.01082
1.02808
1.07542
1.16768
1.51827
2.31176
2.64863
2.72925
2.72333
2.72021
2.73452
2.7462
2.75968
2.76842
2.77537
2.781
2.78165
1
1.00003
1.00005
1.00016
1.00029
1.00091
1.00168
1.00494
1.01041
1.0267
1.07247
1.15948
1.5021
2.27688
2.63575
2.72732
2.72097
2.71675
2.73052
2.74251
2.75401
2.76273
2.77117
2.77452
2.7768
1
1.00002
1.00005
1.00015
1.00027
1.00086
1.00159
1.00471
1.00982
1.02541
1.06816
1.15157
1.46912
2.21809
2.6166
2.72319
2.71618
2.71076
2.72386
2.7365
2.74922
2.75529
2.76116
2.76764
2.76647
1
1.00002
1.00004
1.00014
1.00026
1.00081
1.00149
1.0045
1.00909
1.02416
1.06218
1.14177
1.42526
2.13817
2.58952
2.71752
2.71094
2.70166
2.71573
2.72359
2.73822
2.7471
2.75316
2.75499
2.75675
1
1.00002
1.00004
1.00013
1.00024
1.00076
1.00138
1.00429
1.00823
1.02314
1.05437
1.13021
1.37305
2.03605
2.5533
2.70846
2.70212
2.69206
2.70729
2.71565
2.72351
2.72997
2.73712
2.74008
2.73649
1
1.00002
1.00004
1.00012
1.00022
1.00069
1.00125
1.00387
1.00738
1.02107
1.04744
1.11808
1.3209
1.92157
2.5039
2.68979
2.68034
2.67204
2.68791
2.70146
2.71241
2.71417
2.71787
2.71718
2.71346
1
1.00002
1.00003
1.00011
1.00019
1.00062
1.00112
1.00348
1.0066
1.01902
1.04205
1.10616
1.28266
1.81922
2.4775
2.68054
2.67157
2.65672
2.67136
2.67694
2.68926
2.69193
2.69138
2.68553
2.66209
1
1.00001
1.00003
1.00009
1.00017
1.00052
1.00097
1.00288
1.00584
1.01549
1.03883
1.08996
1.25946
1.69682
2.42124
2.65505
2.65333
2.65222
2.65507
2.66209
2.66549
2.66496
2.65655
2.63544
2.58535
1
1.00003
1.00005
1.00017
1.00031
1.00099
1.00182
1.00544
1.01122
1.02942
1.07827
1.1755
1.5331
2.34366
2.65991
2.73042
2.725
2.72231
2.73687
2.7489
2.76278
2.77185
2.77998
2.78585
2.78856
1
1.00003
1.00005
1.00017
1.00031
1.00098
1.0018
1.00536
1.01109
1.02898
1.07736
1.17294
1.52857
2.3339
2.65679
2.73038
2.72478
2.72197
2.7364
2.74829
2.76197
2.77056
2.77869
2.78365
2.78551
1
1.00003
1.00005
1.00017
1.0003
1.00095
1.00175
1.00519
1.01082
1.02808
1.07542
1.16768
1.51827
2.31176
2.64863
2.72925
2.72333
2.72021
2.73452
2.7462
2.75968
2.76842
2.77537
2.781
2.78165
1
1.00003
1.00005
1.00016
1.00029
1.00091
1.00168
1.00494
1.01041
1.0267
1.07247
1.15948
1.5021
2.27688
2.63575
2.72732
2.72097
2.71675
2.73052
2.74251
2.75401
2.76273
2.77117
2.77452
2.7768
1
1.00002
1.00005
1.00015
1.00027
1.00086
1.00159
1.00471
1.00982
1.02541
1.06816
1.15157
1.46912
2.21809
2.6166
2.72319
2.71618
2.71076
2.72386
2.7365
2.74922
2.75529
2.76116
2.76764
2.76647
1
1.00002
1.00004
1.00014
1.00026
1.00081
1.00149
1.0045
1.00909
1.02416
1.06218
1.14177
1.42526
2.13817
2.58952
2.71752
2.71094
2.70166
2.71573
2.72359
2.73822
2.7471
2.75316
2.75499
2.75675
1
1.00002
1.00004
1.00013
1.00024
1.00076
1.00138
1.00429
1.00823
1.02314
1.05437
1.13021
1.37305
2.03605
2.5533
2.70846
2.70212
2.69206
2.70729
2.71565
2.72351
2.72997
2.73712
2.74008
2.73649
1
1.00002
1.00004
1.00012
1.00022
1.00069
1.00125
1.00387
1.00738
1.02107
1.04744
1.11808
1.3209
1.92157
2.5039
2.68979
2.68034
2.67204
2.68791
2.70146
2.71241
2.71417
2.71787
2.71718
2.71346
1
1.00002
1.00003
1.00011
1.00019
1.00062
1.00112
1.00348
1.0066
1.01902
1.04205
1.10616
1.28266
1.81922
2.4775
2.68054
2.67157
2.65672
2.67136
2.67694
2.68926
2.69193
2.69138
2.68553
2.66209
1
1.00001
1.00003
1.00009
1.00017
1.00052
1.00097
1.00288
1.00584
1.01549
1.03883
1.08996
1.25946
1.69682
2.42124
2.65505
2.65333
2.65222
2.65507
2.66209
2.66549
2.66496
2.65655
2.63544
2.58535
1
1.00003
1.00005
1.00017
1.00031
1.00099
1.00182
1.00544
1.01122
1.02942
1.07827
1.1755
1.5331
2.34365
2.65991
2.73042
2.725
2.72231
2.73687
2.7489
2.76278
2.77185
2.77998
2.78585
2.78856
1
1.00003
1.00005
1.00017
1.00031
1.00098
1.0018
1.00536
1.01109
1.02898
1.07736
1.17294
1.52857
2.3339
2.65679
2.73038
2.72478
2.72197
2.7364
2.74829
2.76197
2.77056
2.77869
2.78365
2.78551
1
1.00003
1.00005
1.00017
1.0003
1.00095
1.00175
1.00519
1.01082
1.02808
1.07542
1.16767
1.51827
2.31176
2.64863
2.72925
2.72333
2.72021
2.73452
2.7462
2.75968
2.76842
2.77537
2.781
2.78165
1
1.00003
1.00005
1.00016
1.00029
1.00091
1.00168
1.00494
1.01041
1.0267
1.07247
1.15948
1.5021
2.27688
2.63574
2.72732
2.72097
2.71675
2.73052
2.74251
2.75401
2.76273
2.77117
2.77452
2.7768
1
1.00002
1.00005
1.00015
1.00027
1.00086
1.00159
1.00471
1.00982
1.02541
1.06816
1.15157
1.46912
2.21809
2.6166
2.72319
2.71618
2.71076
2.72386
2.7365
2.74922
2.75529
2.76116
2.76764
2.76647
1
1.00002
1.00004
1.00014
1.00026
1.00081
1.00149
1.0045
1.00909
1.02416
1.06218
1.14177
1.42526
2.13817
2.58952
2.71752
2.71094
2.70166
2.71573
2.72359
2.73822
2.7471
2.75316
2.75499
2.75675
1
1.00002
1.00004
1.00013
1.00024
1.00076
1.00138
1.00429
1.00823
1.02314
1.05437
1.13021
1.37305
2.03605
2.5533
2.70846
2.70212
2.69206
2.70729
2.71565
2.72351
2.72997
2.73712
2.74008
2.73648
1
1.00002
1.00004
1.00012
1.00022
1.00069
1.00125
1.00387
1.00738
1.02107
1.04744
1.11808
1.3209
1.92157
2.5039
2.68979
2.68034
2.67204
2.68791
2.70146
2.71241
2.71417
2.71787
2.71718
2.71346
1
1.00002
1.00003
1.00011
1.00019
1.00062
1.00112
1.00348
1.0066
1.01902
1.04205
1.10616
1.28266
1.81922
2.4775
2.68054
2.67157
2.65672
2.67136
2.67694
2.68926
2.69193
2.69138
2.68553
2.66209
1
1.00001
1.00003
1.00009
1.00017
1.00052
1.00097
1.00288
1.00584
1.01549
1.03883
1.08996
1.25946
1.69682
2.42124
2.65505
2.65333
2.65222
2.65507
2.66209
2.66549
2.66496
2.65655
2.63544
2.58535
1
1.00003
1.00005
1.00017
1.00031
1.00099
1.00182
1.00544
1.01122
1.02942
1.07827
1.1755
1.5331
2.34365
2.65991
2.73042
2.725
2.72231
2.73687
2.7489
2.76278
2.77185
2.77998
2.78585
2.78856
1
1.00003
1.00005
1.00017
1.00031
1.00098
1.0018
1.00536
1.01109
1.02898
1.07736
1.17294
1.52857
2.3339
2.65679
2.73038
2.72478
2.72197
2.7364
2.74829
2.76197
2.77056
2.77869
2.78365
2.78551
1
1.00003
1.00005
1.00017
1.0003
1.00095
1.00175
1.00519
1.01082
1.02808
1.07542
1.16767
1.51827
2.31176
2.64863
2.72925
2.72333
2.72021
2.73452
2.7462
2.75968
2.76842
2.77537
2.781
2.78165
1
1.00003
1.00005
1.00016
1.00029
1.00091
1.00168
1.00494
1.01041
1.0267
1.07247
1.15948
1.5021
2.27688
2.63574
2.72732
2.72097
2.71675
2.73052
2.74251
2.75401
2.76273
2.77117
2.77452
2.7768
1
1.00002
1.00005
1.00015
1.00027
1.00086
1.00159
1.00471
1.00982
1.02541
1.06816
1.15157
1.46912
2.21809
2.6166
2.72319
2.71618
2.71076
2.72386
2.7365
2.74922
2.75529
2.76116
2.76764
2.76647
1
1.00002
1.00004
1.00014
1.00026
1.00081
1.00149
1.0045
1.00909
1.02416
1.06218
1.14177
1.42526
2.13817
2.58952
2.71752
2.71094
2.70166
2.71573
2.72359
2.73822
2.7471
2.75316
2.75499
2.75675
1
1.00002
1.00004
1.00013
1.00024
1.00076
1.00138
1.00429
1.00823
1.02314
1.05437
1.13021
1.37305
2.03605
2.5533
2.70846
2.70212
2.69206
2.70729
2.71565
2.72351
2.72997
2.73712
2.74008
2.73648
1
1.00002
1.00004
1.00012
1.00022
1.00069
1.00125
1.00387
1.00738
1.02107
1.04744
1.11808
1.3209
1.92157
2.5039
2.68979
2.68034
2.67204
2.68791
2.70146
2.71241
2.71417
2.71787
2.71718
2.71346
1
1.00002
1.00003
1.00011
1.00019
1.00062
1.00112
1.00348
1.0066
1.01902
1.04205
1.10616
1.28266
1.81922
2.4775
2.68054
2.67157
2.65672
2.67136
2.67694
2.68926
2.69193
2.69138
2.68553
2.66209
1
1.00001
1.00003
1.00009
1.00017
1.00052
1.00097
1.00288
1.00584
1.01549
1.03883
1.08996
1.25946
1.69682
2.42124
2.65505
2.65333
2.65222
2.65507
2.66209
2.66549
2.66496
2.65655
2.63544
2.58535
1
1.00003
1.00005
1.00017
1.00031
1.00099
1.00182
1.00544
1.01122
1.02942
1.07827
1.1755
1.5331
2.34365
2.65991
2.73042
2.725
2.72231
2.73687
2.7489
2.76278
2.77185
2.77998
2.78585
2.78856
1
1.00003
1.00005
1.00017
1.00031
1.00098
1.0018
1.00536
1.01109
1.02898
1.07736
1.17294
1.52857
2.3339
2.65679
2.73038
2.72478
2.72197
2.7364
2.74829
2.76197
2.77056
2.77869
2.78365
2.78551
1
1.00003
1.00005
1.00017
1.0003
1.00095
1.00175
1.00519
1.01082
1.02808
1.07542
1.16767
1.51827
2.31176
2.64862
2.72925
2.72333
2.72021
2.73452
2.7462
2.75968
2.76842
2.77537
2.781
2.78165
1
1.00003
1.00005
1.00016
1.00029
1.00091
1.00168
1.00494
1.01041
1.0267
1.07247
1.15948
1.5021
2.27687
2.63574
2.72732
2.72097
2.71675
2.73052
2.74251
2.75401
2.76273
2.77117
2.77452
2.7768
1
1.00002
1.00005
1.00015
1.00027
1.00086
1.00159
1.00471
1.00982
1.02541
1.06816
1.15156
1.46911
2.21809
2.6166
2.72319
2.71618
2.71076
2.72386
2.7365
2.74922
2.75529
2.76116
2.76764
2.76647
1
1.00002
1.00004
1.00014
1.00026
1.00081
1.00149
1.0045
1.00909
1.02416
1.06218
1.14177
1.42526
2.13817
2.58952
2.71752
2.71094
2.70166
2.71573
2.72359
2.73822
2.7471
2.75316
2.75499
2.75675
1
1.00002
1.00004
1.00013
1.00024
1.00076
1.00138
1.00429
1.00823
1.02314
1.05437
1.13021
1.37305
2.03604
2.5533
2.70846
2.70212
2.69206
2.70729
2.71565
2.72351
2.72997
2.73712
2.74008
2.73648
1
1.00002
1.00004
1.00012
1.00022
1.00069
1.00125
1.00387
1.00738
1.02107
1.04744
1.11808
1.32089
1.92156
2.5039
2.68979
2.68034
2.67204
2.68791
2.70146
2.71241
2.71417
2.71787
2.71718
2.71346
1
1.00002
1.00003
1.00011
1.00019
1.00062
1.00112
1.00348
1.0066
1.01902
1.04205
1.10616
1.28266
1.81921
2.4775
2.68054
2.67157
2.65672
2.67136
2.67694
2.68926
2.69193
2.69138
2.68553
2.66209
1
1.00001
1.00003
1.00009
1.00017
1.00052
1.00097
1.00288
1.00584
1.01549
1.03883
1.08996
1.25946
1.69682
2.42124
2.65505
2.65333
2.65222
2.65507
2.66209
2.66549
2.66496
2.65655
2.63544
2.58535
0.999996
1.00002
1.00004
1.00016
1.0003
1.00098
1.00182
1.00543
1.01121
1.0294
1.07826
1.17545
1.53306
2.34353
2.65983
2.73035
2.72493
2.72224
2.7368
2.74882
2.76271
2.77177
2.7799
2.78577
2.78848
0.999996
1.00002
1.00004
1.00016
1.0003
1.00097
1.00179
1.00535
1.01108
1.02896
1.07734
1.1729
1.52853
2.33378
2.65671
2.73032
2.72471
2.7219
2.73632
2.74822
2.7619
2.77048
2.77861
2.78357
2.78543
0.999996
1.00002
1.00004
1.00016
1.00029
1.00094
1.00174
1.00518
1.01081
1.02806
1.07541
1.16763
1.51823
2.31164
2.64855
2.72919
2.72326
2.72014
2.73445
2.74613
2.75961
2.76834
2.77529
2.78092
2.78157
0.999995
1.00002
1.00004
1.00015
1.00028
1.0009
1.00167
1.00493
1.0104
1.02668
1.07245
1.15943
1.50206
2.27675
2.63567
2.72725
2.7209
2.71668
2.73044
2.74244
2.75394
2.76266
2.7711
2.77444
2.77672
0.999995
1.00002
1.00004
1.00014
1.00026
1.00085
1.00158
1.0047
1.00981
1.0254
1.06815
1.15153
1.46908
2.21796
2.61653
2.72312
2.71612
2.71069
2.72379
2.73643
2.74914
2.75521
2.76109
2.76756
2.76639
0.999995
1.00002
1.00004
1.00013
1.00025
1.00081
1.00148
1.00449
1.00908
1.02413
1.06218
1.14173
1.42526
2.13807
2.58945
2.71745
2.71087
2.70159
2.71567
2.72352
2.73815
2.74702
2.75309
2.75492
2.75668
0.999995
1.00001
1.00003
1.00012
1.00023
1.00075
1.00137
1.00428
1.00822
1.02312
1.05436
1.13017
1.37303
2.03593
2.55324
2.7084
2.70206
2.692
2.70722
2.71559
2.72344
2.7299
2.73705
2.74001
2.73641
0.999995
1.00001
1.00003
1.00011
1.00021
1.00068
1.00124
1.00386
1.00737
1.02105
1.04743
1.11805
1.32086
1.92146
2.50384
2.68973
2.68028
2.67198
2.68784
2.70139
2.71234
2.7141
2.7178
2.71711
2.71339
0.999995
1.00001
1.00002
1.0001
1.00019
1.00061
1.00111
1.00347
1.00659
1.01901
1.04204
1.10613
1.28265
1.81912
2.47747
2.68048
2.6715
2.65665
2.67129
2.67687
2.6892
2.69187
2.69132
2.68547
2.66202
0.999994
1.00001
1.00002
1.00008
1.00016
1.00051
1.00096
1.00287
1.00584
1.01547
1.03883
1.08994
1.25948
1.69673
2.4212
2.655
2.65329
2.65216
2.655
2.66202
2.66542
2.66489
2.65649
2.63538
2.58529
0.999996
1
1.00003
1.00005
1.00019
1.00035
1.00109
1.00208
1.00599
1.0129
1.03298
1.08954
1.20177
1.59482
2.41083
2.60785
2.63158
2.63397
2.63439
2.64059
2.64023
2.63318
2.61334
2.56402
2.38592
0.999996
1
1.00002
1.00005
1.00016
1.0003
1.00097
1.00178
1.00537
1.01096
1.02893
1.07597
1.17124
1.51484
2.29584
2.57385
2.63012
2.6218
2.61477
2.61538
2.61314
2.59932
2.56513
2.50413
2.32256
0.999995
0.999999
1.00002
1.00004
1.00014
1.00025
1.00082
1.00151
1.00448
1.0093
1.02412
1.06401
1.14298
1.43488
2.13306
2.50783
2.62207
2.61316
2.59707
2.58921
2.58299
2.56777
2.52844
2.46972
2.31958
0.999995
0.999998
1.00001
1.00003
1.00012
1.00021
1.0007
1.00127
1.00398
1.00758
1.02157
1.04915
1.12019
1.33299
1.93211
2.41996
2.6015
2.59472
2.58671
2.56684
2.55109
2.52656
2.49138
2.44727
2.33052
0.999995
0.999997
1.00001
1.00002
1.00009
1.00017
1.00056
1.00104
1.0032
1.00617
1.01764
1.03857
1.1004
1.25142
1.77374
2.29837
2.5536
2.5625
2.56566
2.55574
2.53289
2.50586
2.45003
2.41437
2.33225
0.999994
0.999998
1
1.00002
1.00005
1.00018
1.00034
1.00105
1.002
1.00575
1.0123
1.0313
1.08451
1.18764
1.55871
2.29757
2.49231
2.52234
2.52182
2.52273
2.51326
2.49225
2.44046
2.3891
2.32591
0.999994
0.999997
1
1.00002
1.00004
1.00014
1.00027
1.00086
1.00159
1.00469
1.00973
1.02513
1.06666
1.14788
1.45086
2.14467
2.44364
2.51449
2.49969
2.49413
2.48154
2.46607
2.43113
2.3798
2.32214
0.999994
0.999995
0.999998
1.00001
1.00003
1.00011
1.00021
1.00068
1.00126
1.00387
1.00748
1.02104
1.04817
1.11877
1.32229
1.9255
2.32467
2.48892
2.48508
2.47594
2.45607
2.43756
2.41099
2.36593
2.31339
0.999993
0.999994
0.999998
1
1.00003
1.00006
1.00021
1.00039
1.0012
1.00227
1.0066
1.01388
1.0358
1.09205
1.21964
1.58027
2.26121
2.43959
2.45277
2.44818
2.43603
2.41097
2.39385
2.35853
2.31053
0.999992
0.999993
0.999996
1
1.00002
1.00004
1.00015
1.00028
1.00089
1.00169
1.00481
1.01042
1.02606
1.071
1.15487
1.47413
2.14223
2.38912
2.43371
2.4231
2.4108
2.38555
2.35945
2.33727
2.30333
0.999992
0.999993
0.999994
1
1.00001
1.00004
1.00008
1.00026
1.0005
1.00141
1.0031
1.00765
1.02038
1.04541
1.13495
1.30179
1.85508
2.28054
2.41353
2.40969
2.3981
2.37667
2.34662
2.3155
2.28877
0.999992
0.999992
0.999993
0.999998
1
1.00003
1.00006
1.0002
1.00037
1.00118
1.00219
1.00657
1.01322
1.03499
1.08682
1.20945
1.5452
2.18446
2.3553
2.37526
2.37023
2.35577
2.32963
2.29898
2.26777
0.999991
0.999992
0.999993
0.999995
1
1.00001
1.00005
1.0001
1.00034
1.00064
1.00186
1.00384
1.00994
1.02485
1.05724
1.16527
1.38393
1.95838
2.29976
2.3598
2.35644
2.34015
2.31794
2.2892
2.26007
0.999991
0.999991
0.999992
0.999993
0.999999
1.00001
1.00004
1.00007
1.00025
1.00045
1.00142
1.00266
1.00764
1.01636
1.04099
1.1101
1.25195
1.66121
2.14808
2.32596
2.32922
2.32023
2.30054
2.27166
2.24498
0.999991
0.999991
0.999992
0.999993
0.999995
1
1.00002
1.00007
1.00013
1.00041
1.00078
1.00233
1.00454
1.01272
1.02777
1.07065
1.17408
1.48768
1.98608
2.26225
2.30779
2.3048
2.29108
2.26352
2.23448
0.999991
0.999991
0.999991
0.999992
0.999994
1
1.00001
1.00004
1.00009
1.00028
1.00053
1.00162
1.00306
1.00869
1.01878
1.04666
1.12464
1.29164
1.73921
2.13379
2.26421
2.27368
2.26888
2.25448
2.22814
0.999991
0.999991
0.999991
0.999992
0.999993
0.999996
1.00001
1.00002
1.00007
1.00014
1.00046
1.00086
1.00256
1.00501
1.01391
1.02996
1.0784
1.18304
1.54409
1.97252
2.20692
2.24171
2.24075
2.23117
2.2123
0.999991
0.999991
0.999991
0.999991
0.999993
0.999994
1
1.00001
1.00005
1.00009
1.00031
1.00057
1.00174
1.00326
1.00942
1.01973
1.04978
1.12665
1.31069
1.74652
2.09899
2.20964
2.22028
2.21474
2.20236
0.999991
0.999991
0.999991
0.999991
0.999992
0.999993
0.999996
1.00001
1.00002
1.00008
1.00015
1.00046
1.00089
1.00259
1.00515
1.01409
1.03035
1.08021
1.18266
1.5618
1.91824
2.14264
2.17844
2.18886
2.18203
0.999991
0.999991
0.999991
0.999991
0.999991
0.999992
0.999995
0.999998
1.00001
1.00003
1.00012
1.00023
1.00071
1.00135
1.0038
1.00805
1.02005
1.05225
1.11337
1.33169
1.79497
2.06096
2.14526
2.15711
2.15359
0.999991
0.999991
0.999991
0.999991
0.999991
0.999992
0.999993
0.999996
1.00001
1.00002
1.00008
1.00015
1.00047
1.00087
1.00262
1.00499
1.0142
1.0292
1.07861
1.1761
1.53993
1.89157
2.10192
2.13021
2.13408
0.999991
0.999991
0.999991
0.999991
0.999991
0.999991
0.999992
0.999995
0.999998
1.00001
1.00003
1.00012
1.00022
1.00068
1.00129
1.00366
1.0076
1.01923
1.049
1.10828
1.30619
1.74894
2.0129
2.1035
2.10849
0.999991
0.999991
0.999991
0.999991
0.999991
0.999991
0.999992
0.999993
0.999995
1.00001
1.00002
1.00007
1.00014
1.00044
1.00081
1.00246
1.00461
1.01322
1.02682
1.07187
1.16089
1.47558
1.85365
2.0593
2.08996
0.999991
0.999991
0.999991
0.999991
0.999991
0.999991
0.999991
0.999992
0.999994
1
1.00001
1.00004
1.00008
1.00027
1.00049
1.00152
1.00279
1.0082
1.0164
1.04232
1.10278
1.2456
1.60699
1.93826
2.05904
0.999991
0.999991
0.999991
0.999991
0.999991
0.999991
0.999991
0.999992
0.999992
0.999996
1
1.00002
1.00005
1.00016
1.00029
1.00091
1.00167
1.00496
1.00959
1.02564
1.06011
1.13816
1.36858
1.80861
1.99345
0.999991
0.999991
0.999991
0.999991
0.999991
0.999991
0.999991
0.999991
0.999992
0.999993
0.999998
1
1.00003
1.00007
1.00022
1.00041
1.00122
1.00234
1.00645
1.01374
1.03398
1.08647
1.19564
1.50233
1.86718
0.999991
0.999991
0.999991
0.999991
0.999991
0.999991
0.999991
0.999991
0.999991
0.999993
0.999994
1
1.00001
1.00005
1.0001
1.00031
1.00059
1.00173
1.00337
1.00923
1.01965
1.04984
1.11604
1.31415
1.6557
0.999991
0.999991
0.999991
0.999991
0.999991
0.999991
0.999991
0.999991
0.999991
0.999992
0.999993
0.999996
1.00001
1.00002
1.00007
1.00014
1.00043
1.00082
1.00236
1.00463
1.01256
1.02669
1.06835
1.15595
1.44454
0.999991
0.999991
0.999991
0.999991
0.999991
0.999991
0.999991
0.999991
0.999991
0.999991
0.999992
0.999994
1
1.00001
1.00004
1.00008
1.00026
1.00047
1.00143
1.00266
1.00769
1.0151
1.0401
1.08994
1.22813
0.999991
0.999991
0.999991
0.999991
0.999991
0.999991
0.999991
0.999991
0.999991
0.999991
0.999991
0.999993
0.999995
1
1.00001
1.00006
1.00011
1.00035
1.00067
1.00195
1.00381
1.01051
1.02171
1.05788
1.12555
0.999991
0.999991
0.999991
0.999991
0.999991
0.999991
0.999991
0.999991
0.999991
0.999991
0.999991
0.999992
0.999994
0.999997
1.00001
1.00002
1.00009
1.00017
1.00052
1.00099
1.00286
1.00561
1.01521
1.03277
1.08289
0.999991
0.999991
0.999991
0.999991
0.999991
0.999991
0.999991
0.999991
0.999991
0.999991
0.999991
0.999992
0.999992
0.999996
1
1.00002
1.00005
1.00016
1.0003
1.00091
1.00169
1.00504
1.00985
1.02666
1.06191
0.999991
0.999991
0.999991
0.999991
0.999991
0.999991
0.999991
0.999991
0.999991
0.999991
0.999991
0.999991
0.999992
0.999995
0.999998
1.00001
1.00003
1.00013
1.00024
1.00076
1.00142
1.00431
1.00849
1.02347
1.05459
0.999991
0.999991
0.999991
0.999991
0.999991
0.999991
0.999991
0.999991
0.999991
0.999991
0.999991
0.999991
0.999992
0.999993
0.999999
1.00001
1.00004
1.00008
1.00025
1.00051
1.00138
1.00324
1.00774
1.02152
1.04685
0.999991
0.999991
0.999991
0.999991
0.999991
0.999991
0.999991
0.999991
0.999991
0.999991
0.999991
0.999991
0.999992
0.999994
0.999997
1.00001
1.00003
1.00011
1.00021
1.00065
1.00128
1.00359
1.00812
1.02017
1.05602
0.999991
0.999991
0.999991
0.999991
0.999991
0.999991
0.999991
0.999991
0.999991
0.999991
0.999991
0.999991
0.999992
0.999993
0.999998
1
1.00003
1.00007
1.00023
1.00048
1.00129
1.00311
1.00734
1.0208
1.04511
0.999991
0.999991
0.999991
0.999991
0.999991
0.999991
0.999991
0.999991
0.999991
0.999991
0.999991
0.999991
0.999992
0.999994
0.999997
1.00001
1.00003
1.00011
1.0002
1.00066
1.00124
1.00381
1.00768
1.02089
1.05239
0.999991
0.999991
0.999991
0.999991
0.999991
0.999991
0.999991
0.999991
0.999991
0.999991
0.999991
0.999991
0.999992
0.999994
0.999997
1.00001
1.00003
1.0001
1.0002
1.00065
1.00122
1.00375
1.00755
1.02059
1.05136
0.999991
0.999991
0.999991
0.999991
0.999991
0.999991
0.999991
0.999991
0.999991
0.999991
0.999991
0.999991
0.999992
0.999993
0.999998
1
1.00004
1.00007
1.00024
1.00047
1.00137
1.00297
1.00749
1.02003
1.04525
0.999991
0.999991
0.999991
0.999991
0.999991
0.999991
0.999991
0.999991
0.999991
0.999991
0.999991
0.999991
0.999992
0.999993
0.999999
1.00001
1.00004
1.00007
1.00026
1.00048
1.00153
1.0029
1.00833
1.01881
1.04627
1
1.00001
1.00003
1.00006
1.00019
1.00036
1.0011
1.00209
1.006
1.01291
1.033
1.08957
1.20181
1.59484
2.41092
2.60791
2.63161
2.63402
2.63444
2.64065
2.64028
2.63324
2.6134
2.56407
2.38596
1
1.00001
1.00003
1.00005
1.00017
1.00031
1.00098
1.00179
1.00538
1.01097
1.02895
1.07597
1.17127
1.51484
2.29592
2.57393
2.63016
2.62184
2.61483
2.61543
2.6132
2.59937
2.56518
2.50418
2.32259
1
1.00001
1.00002
1.00005
1.00015
1.00026
1.00083
1.00152
1.00449
1.00931
1.02414
1.06403
1.14302
1.43491
2.13315
2.50789
2.62213
2.61321
2.59711
2.58926
2.58304
2.56783
2.52849
2.46976
2.31962
1
1.00001
1.00002
1.00004
1.00012
1.00022
1.00071
1.00128
1.00399
1.00759
1.02158
1.04916
1.12022
1.33301
1.93219
2.42003
2.60156
2.59478
2.58676
2.56689
2.55113
2.52662
2.49143
2.44731
2.33056
1
1
1.00002
1.00003
1.0001
1.00018
1.00057
1.00105
1.00321
1.00618
1.01765
1.03858
1.10042
1.25144
1.77382
2.2984
2.55366
2.56256
2.56571
2.55579
2.53294
2.5059
2.45008
2.41442
2.33229
1
1.00001
1.00001
1.00003
1.00006
1.00019
1.00035
1.00106
1.00201
1.00576
1.01231
1.03132
1.08452
1.18768
1.55875
2.29765
2.49237
2.52239
2.52187
2.52278
2.51331
2.49229
2.4405
2.38914
2.32595
1
1
1.00001
1.00003
1.00005
1.00015
1.00028
1.00087
1.0016
1.0047
1.00974
1.02514
1.06667
1.14792
1.45089
2.14476
2.4437
2.51454
2.49974
2.49418
2.48159
2.46612
2.43117
2.37984
2.32217
1
1
1.00001
1.00002
1.00004
1.00012
1.00022
1.00069
1.00127
1.00388
1.00749
1.02106
1.04818
1.1188
1.32232
1.92558
2.32475
2.48897
2.48512
2.47598
2.45611
2.4376
2.41103
2.36597
2.31342
1
1
1.00001
1.00001
1.00004
1.00007
1.00021
1.0004
1.00121
1.00228
1.00661
1.01389
1.03582
1.09206
1.21966
1.58031
2.26126
2.43966
2.45283
2.44823
2.43608
2.41101
2.39389
2.35857
2.31056
1
1
1