/*--------------------------------*- C++ -*----------------------------------*\
| =========                 |                                                 |
| \\      /  F ield         | OpenFOAM: The Open Source CFD Toolbox           |
|  \\    /   O peration     | Version:  4.1                                   |
|   \\  /    A nd           | Web:      www.OpenFOAM.org                      |
|    \\/     M anipulation  |                                                 |
\*---------------------------------------------------------------------------*/
FoamFile
{
    version     2.0;
    format      ascii;
    class       volScalarField;
    location    "0.6";
    object      Ma;
}
// * * * * * * * * * * * * * * * * * * * * * * * * * * * * * * * * * * * * * //

dimensions      [0 0 0 0 0 0 0];

internalField   nonuniform List<scalar> 
18000
(
5.393e-12
5.33232e-12
5.26071e-12
5.20126e-12
5.14239e-12
5.0843e-12
5.0268e-12
4.97045e-12
4.91488e-12
4.861e-12
6.74395e-12
6.50731e-12
6.26914e-12
6.05029e-12
5.84081e-12
5.6401e-12
5.44748e-12
5.26311e-12
5.08574e-12
4.91891e-12
8.53619e-12
8.01814e-12
7.52627e-12
7.07738e-12
6.6602e-12
6.27268e-12
5.91293e-12
5.57748e-12
5.2653e-12
4.97799e-12
1.09469e-11
9.98033e-12
9.10642e-12
8.32514e-12
7.62479e-12
6.99505e-12
6.42765e-12
5.91545e-12
5.45235e-12
5.03806e-12
1.42403e-11
1.25603e-11
1.11081e-11
9.8521e-12
8.76557e-12
7.82153e-12
6.99869e-12
6.27925e-12
5.64792e-12
5.09932e-12
1.88146e-11
1.59974e-11
1.36711e-11
1.17337e-11
1.01212e-11
8.77042e-12
7.63321e-12
6.67085e-12
5.85214e-12
5.16157e-12
2.52773e-11
2.06463e-11
1.69862e-11
1.40712e-11
1.17413e-11
9.86364e-12
8.33931e-12
7.09269e-12
6.0659e-12
5.22485e-12
3.46213e-11
2.70541e-11
2.13689e-11
1.70556e-11
1.37597e-11
1.12135e-11
9.22598e-12
7.66018e-12
6.41479e-12
5.43239e-12
4.14328e-09
4.12037e-09
3.87446e-09
3.65281e-09
3.45356e-09
3.27377e-09
3.11093e-09
2.96288e-09
2.82799e-09
2.75507e-09
4.46729e-07
5.11306e-08
4.35896e-08
3.78968e-08
3.31377e-08
2.9132e-08
2.57413e-08
2.28578e-08
2.03179e-08
7.78809e-08
5.68342e-12
5.61636e-12
5.54212e-12
5.47687e-12
5.41285e-12
5.35005e-12
5.28734e-12
5.22651e-12
5.16647e-12
5.10785e-12
7.15329e-12
6.89224e-12
6.63961e-12
6.39998e-12
6.17143e-12
5.95261e-12
5.74377e-12
5.54376e-12
5.35253e-12
5.17088e-12
9.11155e-12
8.53882e-12
8.01314e-12
7.51973e-12
7.06369e-12
6.64122e-12
6.2502e-12
5.88662e-12
5.54884e-12
5.23618e-12
1.17741e-11
1.0702e-11
9.756e-12
8.89314e-12
8.12311e-12
7.43354e-12
6.81493e-12
6.25872e-12
5.7562e-12
5.30248e-12
1.54561e-11
1.35816e-11
1.1988e-11
1.05896e-11
9.38692e-12
8.34777e-12
7.44628e-12
6.66154e-12
5.97525e-12
5.37148e-12
2.06465e-11
1.74705e-11
1.48798e-11
1.27012e-11
1.09024e-11
9.40579e-12
8.15379e-12
7.09997e-12
6.20746e-12
5.4427e-12
2.81082e-11
2.28159e-11
1.86704e-11
1.53534e-11
1.27311e-11
1.06356e-11
8.94728e-12
7.57651e-12
6.45213e-12
5.51631e-12
3.91096e-11
3.02883e-11
2.3707e-11
1.87183e-11
1.49539e-11
1.20733e-11
9.84363e-12
8.09733e-12
6.71377e-12
5.59447e-12
1.30727e-10
2.81982e-10
2.30912e-10
1.90439e-10
1.58849e-10
1.33843e-10
1.13809e-10
9.75802e-11
8.43134e-11
7.40164e-11
3.0352e-07
4.63581e-08
4.03936e-08
3.54107e-08
3.12845e-08
2.78334e-08
2.49199e-08
2.24398e-08
2.03172e-08
1.92389e-08
4.86775e-13
4.64781e-13
3.34817e-13
3.19441e-13
3.05384e-13
2.92812e-13
2.81577e-13
2.72066e-13
2.63742e-13
2.54373e-13
6.74628e-13
6.05e-13
5.36731e-13
4.86915e-13
4.4203e-13
4.02109e-13
3.66681e-13
3.3634e-13
3.11219e-13
2.69147e-13
8.36417e-13
7.24873e-13
7.16978e-13
6.37687e-13
5.67566e-13
5.06824e-13
4.55086e-13
4.11469e-13
3.73258e-13
2.89642e-13
1.11826e-12
9.76381e-13
1.00136e-12
8.70203e-13
7.5758e-13
6.62896e-13
5.83361e-13
5.17198e-13
4.59652e-13
3.20066e-13
1.57704e-12
1.40919e-12
1.41401e-12
1.19534e-12
1.01374e-12
8.65879e-13
7.44909e-13
6.45861e-13
5.61165e-13
3.58305e-13
2.32479e-12
2.11341e-12
2.00887e-12
1.64323e-12
1.35256e-12
1.12367e-12
9.42218e-13
7.97399e-13
6.76306e-13
4.03052e-13
3.55292e-12
3.22975e-12
2.87005e-12
2.25933e-12
1.79719e-12
1.44774e-12
1.17959e-12
9.72318e-13
8.04556e-13
4.53428e-13
5.65059e-12
5.00024e-12
4.12638e-12
3.11007e-12
2.38104e-12
1.85313e-12
1.46382e-12
1.17281e-12
9.45725e-13
5.08686e-13
2.07232e-10
1.00262e-11
8.04314e-12
5.88366e-12
4.40693e-12
3.37334e-12
2.63256e-12
2.09043e-12
1.68129e-12
1.19138e-12
2.59969e-07
3.21541e-09
2.36822e-09
1.81368e-09
1.41169e-09
1.11486e-09
8.91972e-10
7.22089e-10
5.91001e-10
4.9688e-10
3.84684e-13
3.60764e-13
1.72032e-13
1.51216e-13
1.30862e-13
1.11751e-13
9.38863e-14
7.75063e-14
6.29589e-14
3.70413e-14
5.32064e-13
4.59664e-13
3.85941e-13
3.35888e-13
2.89268e-13
2.47614e-13
2.1087e-13
1.79187e-13
1.5281e-13
7.94365e-14
5.95692e-13
4.89075e-13
5.23518e-13
4.55558e-13
3.95368e-13
3.44185e-13
3.01628e-13
2.67577e-13
2.39064e-13
1.19608e-13
7.29265e-13
6.34912e-13
7.6056e-13
6.57731e-13
5.68878e-13
4.95452e-13
4.34868e-13
3.85585e-13
3.43358e-13
1.71029e-13
9.57617e-13
9.44148e-13
1.10773e-12
9.4188e-13
8.02538e-13
6.89082e-13
5.96566e-13
5.21459e-13
4.56649e-13
2.24567e-13
1.34188e-12
1.48573e-12
1.61024e-12
1.33434e-12
1.10994e-12
9.32176e-13
7.89895e-13
6.76375e-13
5.79618e-13
2.81161e-13
1.97895e-12
2.36298e-12
2.33784e-12
1.87389e-12
1.5127e-12
1.23567e-12
1.02005e-12
8.51628e-13
7.12652e-13
3.40959e-13
3.10096e-12
3.76054e-12
3.39597e-12
2.61728e-12
2.03972e-12
1.61389e-12
1.29365e-12
1.05027e-12
8.56727e-13
4.03953e-13
2.26464e-10
6.65051e-12
4.9066e-12
3.62122e-12
2.71727e-12
2.07755e-12
1.61419e-12
1.27376e-12
1.01184e-12
4.70188e-13
2.56727e-07
9.87293e-10
7.26247e-11
4.79676e-11
3.27356e-11
2.28673e-11
1.63165e-11
1.18614e-11
8.76931e-12
6.5027e-12
3.8465e-13
3.60316e-13
1.72242e-13
1.51313e-13
1.30899e-13
1.11688e-13
9.40375e-14
7.7618e-14
6.28511e-14
3.68606e-14
5.32368e-13
4.59847e-13
3.86519e-13
3.36432e-13
2.89841e-13
2.47886e-13
2.11042e-13
1.79543e-13
1.53086e-13
7.9407e-14
5.96433e-13
4.89857e-13
5.24828e-13
4.56581e-13
3.96002e-13
3.44875e-13
3.02219e-13
2.67899e-13
2.39121e-13
1.19626e-13
7.30779e-13
6.36724e-13
7.62492e-13
6.59474e-13
5.70217e-13
4.96488e-13
4.35761e-13
3.86309e-13
3.43791e-13
1.70824e-13
9.6021e-13
9.47562e-13
1.11134e-12
9.44694e-13
8.04762e-13
6.91107e-13
5.97948e-13
5.22272e-13
4.57437e-13
2.25022e-13
1.34595e-12
1.49191e-12
1.61585e-12
1.33921e-12
1.11373e-12
9.35309e-13
7.92474e-13
6.78207e-13
5.81125e-13
2.8203e-13
1.98483e-12
2.37413e-12
2.34811e-12
1.88198e-12
1.51924e-12
1.24096e-12
1.02418e-12
8.54764e-13
7.15349e-13
3.42633e-13
3.11073e-12
3.78093e-12
3.41365e-12
2.63123e-12
2.05076e-12
1.62247e-12
1.3004e-12
1.05565e-12
8.60805e-13
4.06775e-13
2.35736e-10
6.87185e-12
4.9836e-12
3.66973e-12
2.74891e-12
2.09862e-12
1.62846e-12
1.28373e-12
1.01891e-12
4.74151e-13
2.73296e-07
1.06245e-09
1.12108e-11
5.23951e-12
3.74015e-12
2.74363e-12
2.05468e-12
1.56839e-12
1.20873e-12
5.64283e-13
3.84713e-13
3.59978e-13
1.72796e-13
1.51836e-13
1.31238e-13
1.11985e-13
9.41147e-14
7.79041e-14
6.32036e-14
3.68376e-14
5.33239e-13
4.60327e-13
3.87786e-13
3.37512e-13
2.90786e-13
2.48586e-13
2.11503e-13
1.79841e-13
1.53651e-13
7.98756e-14
5.98293e-13
4.91653e-13
5.27162e-13
4.58505e-13
3.97698e-13
3.46111e-13
3.031e-13
2.68524e-13
2.39684e-13
1.20125e-13
7.34617e-13
6.40812e-13
7.66298e-13
6.62584e-13
5.72762e-13
4.98395e-13
4.3719e-13
3.87419e-13
3.44501e-13
1.71409e-13
9.6769e-13
9.55201e-13
1.11758e-12
9.4971e-13
8.08739e-13
6.94389e-13
6.00579e-13
5.24337e-13
4.58914e-13
2.25975e-13
1.36002e-12
1.50545e-12
1.62668e-12
1.34744e-12
1.12015e-12
9.40567e-13
7.96678e-13
6.81281e-13
5.83645e-13
2.83767e-13
2.01119e-12
2.39762e-12
2.36651e-12
1.89604e-12
1.53001e-12
1.24947e-12
1.03089e-12
8.59901e-13
7.19396e-13
3.45454e-13
3.16315e-12
3.8233e-12
3.44553e-12
2.65475e-12
2.06838e-12
1.63606e-12
1.31099e-12
1.06375e-12
8.67009e-13
4.10909e-13
2.49978e-10
7.01495e-12
5.04059e-12
3.70966e-12
2.77785e-12
2.1202e-12
1.64464e-12
1.29582e-12
1.02834e-12
4.80535e-13
2.98136e-07
1.14564e-09
1.14164e-11
5.13326e-12
3.69075e-12
2.72084e-12
2.04494e-12
1.56502e-12
1.20844e-12
5.61066e-13
3.84693e-13
3.59686e-13
1.73403e-13
1.52466e-13
1.31845e-13
1.12527e-13
9.45769e-14
7.81391e-14
6.34569e-14
3.94564e-14
5.34238e-13
4.60974e-13
3.89415e-13
3.38775e-13
2.91905e-13
2.49683e-13
2.12409e-13
1.80499e-13
1.53882e-13
8.10201e-14
6.00572e-13
4.93778e-13
5.29865e-13
4.60867e-13
3.99612e-13
3.47696e-13
3.04221e-13
2.69385e-13
2.40394e-13
1.21129e-13
7.39231e-13
6.45679e-13
7.70733e-13
6.66319e-13
5.75945e-13
5.00926e-13
4.39001e-13
3.88747e-13
3.45814e-13
1.72651e-13
9.7669e-13
9.64241e-13
1.12498e-12
9.55618e-13
8.13474e-13
6.98412e-13
6.03859e-13
5.26874e-13
4.60883e-13
2.27815e-13
1.37721e-12
1.52117e-12
1.63934e-12
1.35753e-12
1.12794e-12
9.46902e-13
8.01935e-13
6.85441e-13
5.86815e-13
2.8642e-13
2.04319e-12
2.42544e-12
2.38795e-12
1.91265e-12
1.54291e-12
1.25979e-12
1.03926e-12
8.66489e-13
7.24479e-13
3.49492e-13
3.21982e-12
3.87279e-12
3.48292e-12
2.68269e-12
2.08945e-12
1.65228e-12
1.32409e-12
1.07408e-12
8.74895e-13
4.16631e-13
2.5745e-10
7.07389e-12
5.10543e-12
3.75659e-12
2.81239e-12
2.14613e-12
1.66479e-12
1.31087e-12
1.04001e-12
4.88868e-13
3.18952e-07
1.1704e-09
1.13211e-11
5.20392e-12
3.74298e-12
2.75922e-12
2.07406e-12
1.58691e-12
1.22502e-12
5.72436e-13
3.84771e-13
3.58715e-13
1.7379e-13
1.5286e-13
1.32576e-13
1.14026e-13
9.81613e-14
1.10954e-13
3.14832e-13
9.64831e-13
5.34913e-13
4.60749e-13
3.9035e-13
3.39829e-13
2.93107e-13
2.51253e-13
2.14825e-13
1.90265e-13
2.41316e-13
6.33068e-13
6.02194e-13
4.94408e-13
5.31493e-13
4.62405e-13
4.01292e-13
3.49802e-13
3.07267e-13
2.75001e-13
2.73486e-13
4.31664e-13
7.42775e-13
6.47553e-13
7.73266e-13
6.68636e-13
5.78162e-13
5.03513e-13
4.42747e-13
3.94052e-13
3.62405e-13
3.41676e-13
9.83394e-13
9.67919e-13
1.12877e-12
9.59124e-13
8.16694e-13
7.01568e-13
6.08269e-13
5.32845e-13
4.73209e-13
3.22656e-13
1.38881e-12
1.52776e-12
1.6454e-12
1.36311e-12
1.13306e-12
9.51987e-13
8.0815e-13
6.93156e-13
5.98554e-13
3.45912e-13
2.06294e-12
2.43727e-12
2.3983e-12
1.92192e-12
1.55109e-12
1.26762e-12
1.04778e-12
8.76598e-13
7.37348e-13
3.92139e-13
3.21924e-12
3.89435e-12
3.50104e-12
2.69848e-12
2.10296e-12
1.66413e-12
1.33591e-12
1.08778e-12
8.90621e-13
4.51382e-13
1.95944e-10
6.66294e-12
5.13428e-12
3.78306e-12
2.83414e-12
2.16476e-12
1.68243e-12
1.32951e-12
1.05898e-12
5.20113e-13
2.72747e-07
7.114e-10
9.20173e-12
5.23707e-12
3.77607e-12
2.78708e-12
2.09885e-12
1.61123e-12
1.24915e-12
6.03277e-13
3.95335e-13
4.23813e-13
2.3148e-13
1.57859e-13
1.93697e-13
4.89044e-13
1.05157e-12
4.13129e-12
1.56459e-11
4.3782e-11
5.59679e-13
5.76427e-13
4.62658e-13
3.60929e-13
2.96282e-13
4.56285e-13
8.51079e-13
2.61944e-12
9.18013e-12
2.85595e-11
6.53545e-13
6.98277e-13
6.44901e-13
5.13657e-13
3.99283e-13
4.32573e-13
7.99711e-13
1.8214e-12
5.83531e-12
1.85966e-11
8.27713e-13
9.33516e-13
9.21368e-13
7.46485e-13
5.88232e-13
5.17772e-13
7.67465e-13
1.39161e-12
4.02425e-12
1.25369e-11
1.11019e-12
1.31587e-12
1.30562e-12
1.0592e-12
8.43016e-13
6.9146e-13
7.70135e-13
1.18993e-12
3.03173e-12
8.75206e-12
1.56149e-12
1.91675e-12
1.84313e-12
1.47716e-12
1.17012e-12
9.36727e-13
8.70558e-13
1.22739e-12
2.45015e-12
6.31154e-12
2.27699e-12
2.85204e-12
2.60418e-12
2.03877e-12
1.5907e-12
1.2497e-12
1.05441e-12
1.21796e-12
2.09965e-12
4.6884e-12
3.38992e-12
4.3082e-12
3.69455e-12
2.80152e-12
2.13271e-12
1.63927e-12
1.31205e-12
1.28018e-12
1.88891e-12
3.58256e-12
6.2111e-11
6.19262e-12
5.2787e-12
3.8492e-12
2.83705e-12
2.12194e-12
1.63701e-12
1.42337e-12
1.76128e-12
2.81689e-12
3.89143e-08
1.20369e-09
5.6656e-12
5.21613e-12
3.73145e-12
2.71171e-12
2.02781e-12
1.63615e-12
1.71434e-12
2.28765e-12
2.51819e-12
2.36812e-12
1.51425e-12
1.57539e-13
2.69194e-12
8.81522e-12
2.72087e-11
1.10621e-10
3.90926e-10
5.93006e-10
3.54784e-12
3.42604e-12
2.53545e-12
1.14923e-12
1.34159e-12
6.33177e-12
1.95679e-11
6.91706e-11
2.30575e-10
3.77972e-10
4.81539e-12
4.68389e-12
3.70571e-12
2.30295e-12
2.5814e-13
4.13787e-12
1.39472e-11
4.61176e-11
1.45426e-10
2.54045e-10
6.47732e-12
6.2595e-12
5.10064e-12
3.58578e-12
1.42163e-12
2.30483e-12
9.88347e-12
3.2134e-11
9.65672e-11
1.76458e-10
8.70262e-12
8.26762e-12
6.79328e-12
5.0602e-12
2.82648e-12
7.70994e-13
6.84269e-12
2.29112e-11
6.65809e-11
1.25874e-10
1.1738e-11
1.0871e-11
8.88321e-12
6.77626e-12
4.33398e-12
1.19374e-12
4.41322e-12
1.63167e-11
4.7279e-11
9.18694e-11
1.59661e-11
1.43208e-11
1.15114e-11
8.81242e-12
6.01265e-12
2.72559e-12
2.41486e-12
1.17393e-11
3.43488e-11
6.83679e-11
2.20163e-11
1.89792e-11
1.48693e-11
1.12721e-11
7.90159e-12
4.33506e-12
1.06577e-12
8.29971e-12
2.53562e-11
5.17145e-11
3.12444e-10
2.53903e-11
1.9244e-11
1.4291e-11
1.00707e-11
6.05428e-12
1.78853e-12
5.61284e-12
1.89202e-11
3.96403e-11
7.11186e-07
1.9351e-09
2.52552e-11
1.80476e-11
1.25857e-11
7.8984e-12
3.30218e-12
3.49657e-12
1.4162e-11
3.06928e-11
3.35138e-12
3.01414e-12
1.98626e-12
1.95427e-12
8.43857e-12
2.9948e-11
1.29927e-10
5.51477e-10
1.13556e-09
1.32963e-09
4.43858e-12
4.13545e-12
3.15283e-12
1.65403e-12
5.26889e-12
2.0387e-11
8.00958e-11
3.16744e-10
6.93733e-10
7.93915e-10
5.75948e-12
5.43344e-12
4.46491e-12
2.7516e-12
2.83276e-12
1.35173e-11
5.19148e-11
1.94288e-10
4.44179e-10
5.00315e-10
7.4493e-12
7.00294e-12
5.94862e-12
4.25163e-12
1.95707e-12
8.51862e-12
3.46397e-11
1.25109e-10
2.93852e-10
3.27378e-10
9.66382e-12
8.95173e-12
7.67661e-12
5.90818e-12
3.13154e-12
4.87532e-12
2.32392e-11
8.32328e-11
1.9971e-10
2.21079e-10
1.26389e-11
1.14299e-11
9.74477e-12
7.7471e-12
4.92747e-12
2.53264e-12
1.51941e-11
5.64341e-11
1.38961e-10
1.5322e-10
1.67305e-11
1.46546e-11
1.22828e-11
9.84772e-12
6.8723e-12
2.76523e-12
9.52502e-12
3.8784e-11
9.82473e-11
1.08425e-10
2.25036e-11
1.89441e-11
1.54711e-11
1.23081e-11
8.96091e-12
4.62534e-12
5.37054e-12
2.66867e-11
7.03639e-11
7.80106e-11
1.72102e-10
2.48792e-11
1.95616e-11
1.52614e-11
1.12691e-11
6.7509e-12
2.7589e-12
1.8122e-11
5.08521e-11
5.68022e-11
1.44529e-07
6.86947e-09
3.82358e-11
1.88527e-11
1.38596e-11
8.9336e-12
3.03077e-12
1.18605e-11
3.68967e-11
4.16522e-11
1.02373e-12
1.27568e-12
1.53975e-12
3.21385e-12
8.46445e-12
2.48635e-11
8.67924e-11
2.70603e-10
4.04461e-10
2.60214e-10
1.11431e-12
1.28232e-12
1.4147e-12
2.44296e-12
6.0402e-12
1.73692e-11
5.77736e-11
1.7212e-10
2.46018e-10
9.36031e-11
1.20935e-12
1.3308e-12
1.41545e-12
1.97794e-12
4.34242e-12
1.22339e-11
3.92921e-11
1.12856e-10
1.55067e-10
3.93689e-11
1.30876e-12
1.40804e-12
1.4935e-12
1.79724e-12
3.20741e-12
8.6595e-12
2.7232e-11
7.59964e-11
1.00914e-10
2.93356e-11
1.41433e-12
1.50326e-12
1.60792e-12
1.79707e-12
2.53126e-12
6.15586e-12
1.90814e-11
5.23483e-11
6.73685e-11
2.62119e-11
1.53395e-12
1.61398e-12
1.7376e-12
1.88624e-12
2.22377e-12
4.46381e-12
1.34554e-11
3.68641e-11
4.58556e-11
2.30676e-11
1.67337e-12
1.74087e-12
1.87431e-12
2.01527e-12
2.16238e-12
3.36685e-12
9.52267e-12
2.61603e-11
3.16562e-11
1.99473e-11
1.86851e-12
1.88686e-12
2.02115e-12
2.15826e-12
2.22801e-12
2.75772e-12
6.81397e-12
1.87209e-11
2.20689e-11
1.71537e-11
4.54825e-10
6.42281e-12
2.17655e-12
2.30909e-12
2.35278e-12
2.50419e-12
4.96609e-12
1.34904e-11
1.54595e-11
1.47947e-11
2.47039e-07
7.44583e-09
1.89829e-11
2.47593e-12
2.49492e-12
2.46393e-12
3.74393e-12
9.76361e-12
1.08038e-11
1.27277e-11
7.84073e-13
1.49118e-12
1.60641e-12
2.51787e-12
4.14374e-12
7.0137e-12
1.46534e-11
5.52919e-11
2.3241e-10
6.8415e-10
7.19615e-13
1.33944e-12
1.39167e-12
2.14546e-12
3.48158e-12
5.84694e-12
1.1167e-11
3.43791e-11
1.41277e-10
3.90959e-10
6.56891e-13
1.19739e-12
1.19801e-12
1.81964e-12
2.91926e-12
4.84497e-12
8.80255e-12
2.2717e-11
8.97091e-11
2.36727e-10
6.0366e-13
1.07588e-12
1.0371e-12
1.55736e-12
2.46149e-12
4.04135e-12
7.0911e-12
1.59463e-11
5.90775e-11
1.50189e-10
5.57612e-13
9.71744e-13
9.0099e-13
1.33489e-12
2.08613e-12
3.39987e-12
5.79837e-12
1.17832e-11
4.00498e-11
9.886e-11
5.18254e-13
8.82789e-13
7.86773e-13
1.15394e-12
1.7865e-12
2.87206e-12
4.80376e-12
9.05826e-12
2.78237e-11
6.71026e-11
4.84317e-13
8.06195e-13
6.89882e-13
1.00145e-12
1.53157e-12
2.43742e-12
4.03169e-12
7.18063e-12
1.97585e-11
4.67657e-11
5.65925e-13
7.40116e-13
6.08785e-13
8.72307e-13
1.32183e-12
2.08582e-12
3.41042e-12
5.83133e-12
1.42957e-11
3.33243e-11
7.03535e-10
1.79803e-11
5.62224e-13
7.63232e-13
1.14773e-12
1.79509e-12
2.90278e-12
4.82152e-12
1.05223e-11
2.42067e-11
2.45455e-07
2.39901e-08
1.13546e-10
1.34821e-12
9.83525e-13
1.54395e-12
2.47535e-12
4.03217e-12
7.85266e-12
1.78661e-11
1.05719e-12
1.84742e-12
1.62657e-12
2.17062e-12
3.02061e-12
4.37637e-12
6.859e-12
1.30205e-11
5.05126e-11
1.63174e-10
9.84182e-13
1.6939e-12
1.45791e-12
1.93713e-12
2.672e-12
3.81152e-12
5.76e-12
1.0227e-11
3.58368e-11
9.95897e-11
9.13564e-13
1.54648e-12
1.29555e-12
1.71271e-12
2.34735e-12
3.31771e-12
4.87646e-12
8.03324e-12
2.54939e-11
6.43237e-11
8.51735e-13
1.41794e-12
1.1568e-12
1.51851e-12
2.07079e-12
2.90155e-12
4.19403e-12
6.49001e-12
1.83673e-11
4.34231e-11
7.98027e-13
1.30576e-12
1.03729e-12
1.35181e-12
1.83671e-12
2.55416e-12
3.64794e-12
5.39796e-12
1.33658e-11
3.03074e-11
7.5122e-13
1.20763e-12
9.33658e-13
1.2088e-12
1.63151e-12
2.25657e-12
3.20258e-12
4.59486e-12
9.83354e-12
2.17005e-11
7.09964e-13
1.12095e-12
8.43949e-13
1.08464e-12
1.45515e-12
2.00476e-12
2.82696e-12
3.97565e-12
7.30857e-12
1.58389e-11
8.21276e-13
1.04507e-12
7.66116e-13
9.765e-13
1.30187e-12
1.7848e-12
2.50344e-12
3.4791e-12
5.47812e-12
1.17474e-11
1.02953e-09
3.19481e-11
7.3156e-13
8.81704e-13
1.16872e-12
1.59335e-12
2.22819e-12
3.06572e-12
4.14093e-12
8.81954e-12
3.01543e-07
4.22195e-08
2.7833e-10
1.96707e-12
1.02506e-12
1.42543e-12
1.98542e-12
2.71003e-12
3.13925e-12
6.67708e-12
1.46363e-12
2.33165e-12
1.63936e-12
1.89823e-12
2.27829e-12
2.82433e-12
3.79145e-12
5.86993e-12
1.45772e-11
2.64916e-11
1.38435e-12
2.18202e-12
1.5224e-12
1.76701e-12
2.1185e-12
2.60029e-12
3.35693e-12
4.80801e-12
1.15003e-11
1.98799e-11
1.30493e-12
2.03321e-12
1.39934e-12
1.62604e-12
1.95027e-12
2.38137e-12
3.00633e-12
4.03936e-12
8.86361e-12
1.50393e-11
1.23472e-12
1.90028e-12
1.28818e-12
1.49711e-12
1.79646e-12
2.18928e-12
2.72978e-12
3.49813e-12
6.80228e-12
1.15278e-11
1.17258e-12
1.7812e-12
1.18836e-12
1.37985e-12
1.65726e-12
2.01767e-12
2.50167e-12
3.10522e-12
5.21399e-12
8.9202e-12
1.11733e-12
1.67393e-12
1.09883e-12
1.27434e-12
1.52891e-12
1.86209e-12
2.3013e-12
2.80506e-12
3.98924e-12
6.93841e-12
1.06812e-12
1.57758e-12
1.01853e-12
1.17866e-12
1.41234e-12
1.72041e-12
2.12754e-12
2.56033e-12
3.04991e-12
5.41567e-12
1.18595e-12
1.49114e-12
9.46162e-13
1.09191e-12
1.30643e-12
1.59129e-12
1.96912e-12
2.35661e-12
2.32685e-12
4.24134e-12
1.30685e-09
4.67163e-11
9.22726e-13
1.01252e-12
1.20965e-12
1.47282e-12
1.82391e-12
2.17812e-12
1.76872e-12
3.32853e-12
2.45555e-07
5.82629e-08
4.4047e-10
2.39062e-12
1.08736e-12
1.36277e-12
1.68557e-12
2.01272e-12
1.33024e-12
2.60459e-12
2.05752e-12
2.94938e-12
1.59955e-12
1.60112e-12
1.6625e-12
1.79886e-12
2.14228e-12
2.93821e-12
6.46638e-12
8.45794e-12
1.97353e-12
2.81339e-12
1.54035e-12
1.55934e-12
1.62907e-12
1.74503e-12
1.98633e-12
2.50998e-12
5.25412e-12
7.01798e-12
1.88911e-12
2.67337e-12
1.46402e-12
1.49687e-12
1.57575e-12
1.68475e-12
1.86771e-12
2.20361e-12
4.15988e-12
5.7293e-12
1.8128e-12
2.5443e-12
1.38959e-12
1.43198e-12
1.51819e-12
1.62714e-12
1.78052e-12
1.99896e-12
3.2746e-12
4.676e-12
1.74365e-12
2.42499e-12
1.318e-12
1.36777e-12
1.45962e-12
1.57032e-12
1.70951e-12
1.86098e-12
2.56002e-12
3.81412e-12
1.68127e-12
2.31517e-12
1.25036e-12
1.30422e-12
1.39957e-12
1.5137e-12
1.65001e-12
1.76122e-12
1.98399e-12
3.10715e-12
1.6245e-12
2.21407e-12
1.18684e-12
1.24259e-12
1.33912e-12
1.45608e-12
1.59356e-12
1.68484e-12
1.51465e-12
2.52598e-12
1.7314e-12
2.12183e-12
1.12698e-12
1.18362e-12
1.28064e-12
1.39807e-12
1.53652e-12
1.62164e-12
1.13545e-12
2.04585e-12
1.54965e-09
5.94415e-11
1.13967e-12
1.12666e-12
1.22332e-12
1.34101e-12
1.4801e-12
1.56558e-12
8.30781e-13
1.64848e-12
7.81863e-08
6.60419e-08
9.93316e-10
3.07759e-12
1.13193e-12
1.28148e-12
1.42039e-12
1.50703e-12
5.74915e-13
1.31589e-12
2.86605e-12
3.65396e-12
1.43625e-12
1.21373e-12
1.0665e-12
1.00336e-12
1.13475e-12
1.5288e-12
3.2932e-12
3.75415e-12
2.78337e-12
3.54648e-12
1.43561e-12
1.24765e-12
1.11901e-12
1.03637e-12
1.07703e-12
1.31568e-12
2.82133e-12
3.31605e-12
2.69931e-12
3.43114e-12
1.41319e-12
1.25687e-12
1.15018e-12
1.06625e-12
1.05343e-12
1.16697e-12
2.32329e-12
2.84069e-12
2.62175e-12
3.32051e-12
1.38293e-12
1.25389e-12
1.16816e-12
1.09267e-12
1.05396e-12
1.07921e-12
1.89597e-12
2.42918e-12
2.55002e-12
3.21561e-12
1.34933e-12
1.24328e-12
1.17627e-12
1.11275e-12
1.0649e-12
1.03709e-12
1.52929e-12
2.07269e-12
2.48373e-12
3.11583e-12
1.31261e-12
1.22618e-12
1.1761e-12
1.12635e-12
1.08065e-12
1.02266e-12
1.21382e-12
1.76278e-12
2.42251e-12
3.02182e-12
1.27441e-12
1.20439e-12
1.16972e-12
1.13372e-12
1.09564e-12
1.02337e-12
9.44522e-13
1.49388e-12
2.51798e-12
2.93416e-12
1.23592e-12
1.18025e-12
1.1578e-12
1.13441e-12
1.10673e-12
1.03194e-12
7.14447e-13
1.2622e-12
1.81896e-09
6.75125e-11
1.3194e-12
1.15348e-12
1.14213e-12
1.13011e-12
1.11246e-12
1.04277e-12
5.18549e-13
1.06313e-12
1.15268e-07
6.17016e-08
9.48872e-10
5.82587e-12
1.09826e-12
1.11857e-12
1.11216e-12
1.04942e-12
3.46793e-13
8.95672e-13
3.83798e-12
4.34299e-12
1.11731e-12
7.61224e-13
4.95171e-13
3.50089e-13
4.85329e-13
7.92017e-13
1.99841e-12
2.0279e-12
3.76239e-12
4.27591e-12
1.16206e-12
8.42915e-13
6.00186e-13
4.20697e-13
4.29351e-13
6.42483e-13
1.83353e-12
1.91088e-12
3.68682e-12
4.202e-12
1.18423e-12
9.00713e-13
6.84246e-13
4.99814e-13
4.25554e-13
5.28712e-13
1.59459e-12
1.71626e-12
3.61527e-12
4.12668e-12
1.19517e-12
9.43396e-13
7.50832e-13
5.74409e-13
4.58039e-13
4.58426e-13
1.38168e-12
1.54084e-12
3.5475e-12
4.0523e-12
1.19757e-12
9.73997e-13
8.04054e-13
6.40433e-13
5.07521e-13
4.33254e-13
1.19146e-12
1.38213e-12
3.48443e-12
3.97921e-12
1.19323e-12
9.95562e-13
8.47082e-13
6.98385e-13
5.62475e-13
4.44069e-13
1.02359e-12
1.24006e-12
3.42469e-12
3.9077e-12
1.18407e-12
1.0097e-12
8.80077e-13
7.47222e-13
6.16525e-13
4.76868e-13
8.77319e-13
1.11401e-12
3.51106e-12
3.8406e-12
1.17157e-12
1.01751e-12
9.05166e-13
7.87889e-13
6.66337e-13
5.20439e-13
7.51885e-13
1.0027e-12
2.06607e-09
6.92501e-11
1.38482e-12
1.0209e-12
9.24832e-13
8.21512e-13
7.10023e-13
5.67419e-13
6.47111e-13
9.06204e-13
3.27175e-07
4.2571e-08
8.45135e-10
8.33476e-12
9.31911e-13
8.46838e-13
7.47671e-13
6.10472e-13
5.63441e-13
8.27123e-13
4.7855e-12
4.87973e-12
7.3139e-13
4.97713e-13
2.72292e-13
1.51617e-13
2.66289e-13
4.71292e-13
1.4416e-12
1.28846e-12
4.72048e-12
4.85721e-12
7.70388e-13
5.3576e-13
3.11283e-13
1.24619e-13
1.6314e-13
3.67513e-13
1.43093e-12
1.30398e-12
4.65788e-12
4.83032e-12
7.98818e-13
5.72327e-13
3.60652e-13
1.62648e-13
7.61541e-14
2.67908e-13
1.32631e-12
1.22986e-12
4.59705e-12
4.79843e-12
8.21561e-13
6.05277e-13
4.10316e-13
2.20742e-13
4.56743e-14
1.75418e-13
1.23146e-12
1.16148e-12
4.53887e-12
4.76351e-12
8.38953e-13
6.35535e-13
4.57098e-13
2.80887e-13
1.08624e-13
9.2077e-14
1.14459e-12
1.09835e-12
4.48293e-12
4.72602e-12
8.52066e-13
6.61569e-13
4.99807e-13
3.37269e-13
1.76502e-13
3.16381e-14
1.06565e-12
1.04053e-12
4.42975e-12
4.68772e-12
8.6135e-13
6.83959e-13
5.37862e-13
3.89215e-13
2.39004e-13
7.06516e-14
9.95556e-13
9.88214e-13
4.51274e-12
4.6512e-12
8.66618e-13
7.02078e-13
5.71189e-13
4.35546e-13
2.95826e-13
1.33869e-13
9.3327e-13
9.41216e-13
2.2504e-09
6.55385e-11
1.23456e-12
7.17879e-13
6.0005e-13
4.76475e-13
3.47728e-13
1.93969e-13
8.78943e-13
8.98774e-13
5.19341e-07
1.8427e-08
5.09531e-10
6.58227e-12
6.30297e-13
5.13419e-13
3.94543e-13
2.50291e-13
8.32038e-13
8.7094e-13
5.39806e-12
5.15621e-12
4.94302e-13
5.99174e-13
5.10112e-13
4.40322e-13
4.00954e-13
4.21544e-13
1.2107e-12
9.78046e-13
5.34026e-12
5.16248e-12
4.41187e-13
5.39171e-13
4.57189e-13
3.92725e-13
3.55237e-13
3.83429e-13
1.27309e-12
1.05162e-12
5.28707e-12
5.16842e-12
3.99623e-13
4.86077e-13
4.09964e-13
3.47821e-13
3.12289e-13
3.41613e-13
1.23148e-12
1.02926e-12
5.23493e-12
5.16793e-12
3.7131e-13
4.41035e-13
3.69544e-13
3.0991e-13
2.73775e-13
3.03042e-13
1.19193e-12
1.00719e-12
5.18423e-12
5.16254e-12
3.55395e-13
4.05196e-13
3.38465e-13
2.79329e-13
2.40732e-13
2.67414e-13
1.15421e-12
9.86588e-13
5.1357e-12
5.15391e-12
3.493e-13
3.77151e-13
3.13182e-13
2.54754e-13
2.13501e-13
2.36337e-13
1.11868e-12
9.66938e-13
5.08878e-12
5.1423e-12
3.49578e-13
3.55677e-13
2.95342e-13
2.376e-13
1.93443e-13
2.08419e-13
1.0847e-12
9.48784e-13
5.1721e-12
5.13139e-12
3.54018e-13
3.39693e-13
2.8294e-13
2.26367e-13
1.78498e-13
1.85869e-13
1.05311e-12
9.3061e-13
2.34698e-09
6.11089e-11
9.53508e-13
3.28232e-13
2.75094e-13
2.20678e-13
1.715e-13
1.68553e-13
1.02195e-12
9.1349e-13
6.37745e-07
1.76718e-08
3.93654e-10
5.04454e-12
2.58213e-13
2.22676e-13
1.74746e-13
1.63344e-13
9.93616e-13
9.38437e-13
5.40268e-12
5.12719e-12
4.84416e-13
6.2398e-13
5.39734e-13
4.65878e-13
4.12608e-13
4.13647e-13
1.14396e-12
9.33936e-13
5.34473e-12
5.13541e-12
4.09847e-13
5.54952e-13
4.82964e-13
4.18127e-13
3.721e-13
3.83758e-13
1.2157e-12
1.01105e-12
5.29181e-12
5.14446e-12
3.47041e-13
4.92085e-13
4.29785e-13
3.72321e-13
3.32054e-13
3.47209e-13
1.18191e-12
9.92076e-13
5.24007e-12
5.14656e-12
2.98794e-13
4.3602e-13
3.82084e-13
3.31264e-13
2.9534e-13
3.13732e-13
1.14962e-12
9.73396e-13
5.1901e-12
5.14428e-12
2.66516e-13
3.89166e-13
3.41494e-13
2.95098e-13
2.62181e-13
2.82198e-13
1.11867e-12
9.56168e-13
5.14213e-12
5.138e-12
2.49016e-13
3.49837e-13
3.07174e-13
2.64292e-13
2.32927e-13
2.52971e-13
1.08914e-12
9.39688e-13
5.09582e-12
5.12889e-12
2.4349e-13
3.17243e-13
2.78725e-13
2.38612e-13
2.0799e-13
2.26708e-13
1.06073e-12
9.24333e-13
5.17931e-12
5.11994e-12
2.46989e-13
2.91219e-13
2.56187e-13
2.17985e-13
1.86498e-13
2.03171e-13
1.03395e-12
9.09276e-13
2.34698e-09
6.11087e-11
9.1364e-13
2.70561e-13
2.37993e-13
2.02212e-13
1.71124e-13
1.83304e-13
1.00758e-12
8.9486e-13
6.37744e-07
1.76718e-08
3.93633e-10
5.01837e-12
2.03824e-13
1.95e-13
1.65661e-13
1.73235e-13
9.82746e-13
9.34381e-13
4.79118e-12
4.79975e-12
6.57231e-13
5.12162e-13
3.33532e-13
2.27259e-13
2.61811e-13
4.09532e-13
1.21128e-12
1.14253e-12
4.72796e-12
4.78548e-12
6.77409e-13
5.19585e-13
3.36115e-13
1.94273e-13
1.82272e-13
3.26947e-13
1.23293e-12
1.1696e-12
4.66761e-12
4.76746e-12
6.96891e-13
5.34783e-13
3.56593e-13
1.97586e-13
1.18571e-13
2.42638e-13
1.15633e-12
1.10752e-12
4.6089e-12
4.74418e-12
7.14543e-13
5.52959e-13
3.84997e-13
2.2494e-13
9.04437e-14
1.64321e-13
1.08671e-12
1.05052e-12
4.55275e-12
4.71739e-12
7.31167e-13
5.72628e-13
4.16957e-13
2.63713e-13
1.15089e-13
9.58097e-14
1.02303e-12
9.98513e-13
4.4989e-12
4.6878e-12
7.45114e-13
5.92222e-13
4.49511e-13
3.06121e-13
1.62001e-13
5.01083e-14
9.6599e-13
9.51901e-13
4.44732e-12
4.65652e-12
7.5644e-13
6.10441e-13
4.80617e-13
3.48072e-13
2.12708e-13
6.9718e-14
9.14967e-13
9.09879e-13
4.53176e-12
4.62616e-12
7.65059e-13
6.26885e-13
5.09438e-13
3.87377e-13
2.61438e-13
1.19467e-13
8.70187e-13
8.7253e-13
2.2504e-09
6.5539e-11
1.15845e-12
6.41319e-13
5.35452e-13
4.24151e-13
3.07485e-13
1.71539e-13
8.31643e-13
8.40235e-13
5.19341e-07
1.8427e-08
5.0949e-10
6.5327e-12
5.61698e-13
4.57757e-13
3.50215e-13
2.22475e-13
7.98641e-13
8.32376e-13
3.83981e-12
4.24168e-12
9.78685e-13
6.55506e-13
3.95032e-13
2.18487e-13
3.32814e-13
6.07498e-13
1.49194e-12
1.70834e-12
3.77014e-12
4.19088e-12
1.02832e-12
7.33762e-13
4.985e-13
3.0762e-13
2.91578e-13
4.87222e-13
1.40093e-12
1.62368e-12
3.70053e-12
4.13151e-12
1.05891e-12
7.94023e-13
5.83667e-13
3.97446e-13
3.04359e-13
3.92803e-13
1.22707e-12
1.4606e-12
3.63312e-12
4.06968e-12
1.07834e-12
8.39874e-13
6.52626e-13
4.77587e-13
3.5086e-13
3.37854e-13
1.0705e-12
1.31331e-12
3.56956e-12
4.00687e-12
1.08994e-12
8.76217e-13
7.0955e-13
5.47896e-13
4.10139e-13
3.27014e-13
9.30963e-13
1.18096e-12
3.50941e-12
3.94438e-12
1.09451e-12
9.02992e-13
7.5604e-13
6.09393e-13
4.72111e-13
3.49333e-13
8.08639e-13
1.06278e-12
3.45236e-12
3.88249e-12
1.09413e-12
9.22901e-13
7.93294e-13
6.61607e-13
5.30498e-13
3.91682e-13
7.03355e-13
9.59527e-13
3.54058e-12
3.82377e-12
1.08897e-12
9.36589e-13
8.23779e-13
7.0585e-13
5.84196e-13
4.41392e-13
6.15997e-13
8.68886e-13
2.06608e-09
6.92529e-11
1.31482e-12
9.46176e-13
8.47695e-13
7.43161e-13
6.31436e-13
4.92258e-13
5.45561e-13
7.91977e-13
3.27175e-07
4.2571e-08
8.45106e-10
8.29573e-12
8.60097e-13
7.72443e-13
6.72003e-13
5.3893e-13
4.93341e-13
7.35089e-13
2.87069e-12
3.56285e-12
1.2752e-12
1.03663e-12
8.75962e-13
7.89322e-13
8.63107e-13
1.148e-12
2.19263e-12
3.00323e-12
2.79754e-12
3.47741e-12
1.29631e-12
1.08974e-12
9.46058e-13
8.45617e-13
8.48281e-13
1.01162e-12
1.91103e-12
2.67628e-12
2.7209e-12
3.38059e-12
1.2935e-12
1.11784e-12
9.94719e-13
8.95253e-13
8.55826e-13
9.19716e-13
1.57551e-12
2.29559e-12
2.64881e-12
3.2859e-12
1.28144e-12
1.13167e-12
1.02851e-12
9.37906e-13
8.78411e-13
8.73757e-13
1.27981e-12
1.96317e-12
2.58158e-12
3.19403e-12
1.26257e-12
1.13662e-12
1.05136e-12
9.72665e-13
9.08408e-13
8.59867e-13
1.02446e-12
1.67333e-12
2.51846e-12
3.10547e-12
1.23949e-12
1.13343e-12
1.06516e-12
9.99837e-13
9.39209e-13
8.66367e-13
8.03207e-13
1.42101e-12
2.45993e-12
3.02048e-12
1.21332e-12
1.12498e-12
1.07121e-12
1.01834e-12
9.66297e-13
8.8349e-13
6.11399e-13
1.20279e-12
2.55589e-12
2.94109e-12
1.18503e-12
1.11147e-12
1.07156e-12
1.03104e-12
9.87643e-13
9.0508e-13
4.45443e-13
1.01508e-12
1.81897e-09
6.7517e-11
1.27609e-12
1.09539e-12
1.06635e-12
1.03726e-12
1.00418e-12
9.26505e-13
3.05001e-13
8.55144e-13
1.15268e-07
6.17016e-08
9.48853e-10
5.79479e-12
1.03358e-12
1.03626e-12
1.01356e-12
9.42747e-13
1.78708e-13
7.22658e-13
2.07631e-12
2.88988e-12
1.44369e-12
1.38398e-12
1.38527e-12
1.44569e-12
1.64457e-12
2.1133e-12
3.78448e-12
6.2747e-12
2.00174e-12
2.77846e-12
1.41712e-12
1.37939e-12
1.39269e-12
1.44449e-12
1.58225e-12
1.88593e-12
3.13901e-12
5.27051e-12
1.92328e-12
2.65687e-12
1.36821e-12
1.34919e-12
1.37518e-12
1.4269e-12
1.53151e-12
1.72204e-12
2.5071e-12
4.31968e-12
1.85105e-12
2.54201e-12
1.31618e-12
1.31199e-12
1.34853e-12
1.40538e-12
1.4961e-12
1.61356e-12
1.98522e-12
3.536e-12
1.78489e-12
2.43437e-12
1.263e-12
1.27089e-12
1.3168e-12
1.37952e-12
1.4672e-12
1.54256e-12
1.55843e-12
2.89119e-12