/*--------------------------------*- C++ -*----------------------------------*\
| =========                 |                                                 |
| \\      /  F ield         | OpenFOAM: The Open Source CFD Toolbox           |
|  \\    /   O peration     | Version:  4.1                                   |
|   \\  /    A nd           | Web:      www.OpenFOAM.org                      |
|    \\/     M anipulation  |                                                 |
\*---------------------------------------------------------------------------*/
FoamFile
{
    version     2.0;
    format      ascii;
    class       surfaceScalarField;
    location    "0.6";
    object      phi;
}
// * * * * * * * * * * * * * * * * * * * * * * * * * * * * * * * * * * * * * //

dimensions      [1 0 -1 0 0 0 0];

internalField   nonuniform List<scalar> 
51500
(
3.65306e-13
1.58503e-14
1.45456e-11
-1.35488e-15
2.06192e-14
1.43813e-11
-2.74734e-15
1.93563e-14
1.42181e-11
-2.67997e-15
1.80044e-14
1.40574e-11
-2.59475e-15
1.6609e-14
1.38984e-11
-2.53158e-15
1.51857e-14
1.37415e-11
-2.61627e-15
1.37682e-14
1.3586e-11
-2.55979e-15
1.23712e-14
1.34337e-11
-2.58249e-15
1.09614e-14
1.32834e-11
9.56256e-15
1.31376e-11
-7.48099e-17
3.68014e-13
1.02084e-14
1.82056e-11
-1.07489e-14
1.02801e-14
1.75654e-11
-9.95257e-15
8.75939e-15
1.6947e-11
-9.75289e-15
7.31592e-15
1.6355e-11
-9.46134e-15
5.99879e-15
1.57884e-11
-9.12399e-15
4.93652e-15
1.52454e-11
-8.8772e-15
4.29826e-15
1.47244e-11
-8.63334e-15
3.19383e-15
1.42256e-11
-8.35568e-15
1.961e-15
1.37458e-11
8.16293e-16
1.32944e-11
-8.18139e-16
3.66936e-13
1.07618e-14
2.30627e-11
-2.36149e-14
1.22215e-14
2.16616e-11
-1.9721e-14
1.00922e-14
2.03511e-11
-1.87195e-14
8.1951e-15
1.9136e-11
-1.77139e-14
6.50547e-15
1.8007e-11
-1.6936e-14
4.99756e-15
1.69582e-11
-1.60314e-14
3.66851e-15
1.59847e-11
-1.53513e-14
2.47311e-15
1.50769e-11
-1.45941e-14
1.42544e-15
1.42321e-11
5.36654e-16
1.34546e-11
-1.50813e-15
3.59723e-13
1.41251e-14
2.95975e-11
-4.16534e-14
1.50093e-14
2.69825e-11
-3.25139e-14
1.20668e-14
2.46304e-11
-3.01501e-14
9.51716e-15
2.25149e-11
-2.79357e-14
7.36455e-15
2.06188e-11
-2.59732e-14
5.52948e-15
1.89141e-11
-2.41752e-14
3.96785e-15
1.73782e-11
-2.25519e-14
2.62379e-15
1.59919e-11
-2.09356e-14
1.47491e-15
1.47385e-11
5.16931e-16
1.36173e-11
-2.292e-15
3.41332e-13
1.89057e-14
3.8529e-11
-6.65411e-14
1.87491e-14
3.39814e-11
-4.97284e-14
1.45656e-14
3.00535e-11
-4.473e-14
1.11516e-14
2.66512e-11
-4.03903e-14
8.38725e-15
2.37086e-11
-3.66037e-14
6.14056e-15
2.11523e-11
-3.33507e-14
4.29228e-15
1.89245e-11
-3.0449e-14
2.7798e-15
1.6977e-11
-2.76854e-14
1.53555e-15
1.52681e-11
5.43053e-16
1.37833e-11
-3.06786e-15
3.03571e-13
2.58917e-14
5.09414e-11
-1.27324e-13
2.3867e-14
4.33094e-11
-7.28001e-14
1.78432e-14
3.7e-11
-6.34737e-14
1.31719e-14
3.17498e-11
-5.56651e-14
9.60578e-15
2.73814e-11
-4.91972e-14
6.82782e-15
2.37226e-11
-4.36947e-14
4.66069e-15
2.06431e-11
-3.9017e-14
2.94552e-15
1.80376e-11
-3.47273e-14
1.59917e-15
1.58214e-11
5.48312e-16
1.39522e-11
-3.93153e-15
2.28997e-13
4.51845e-14
6.8489e-11
-2.0328e-13
3.87611e-14
5.59323e-11
-1.04423e-13
2.77556e-14
4.59884e-11
-8.77036e-14
1.97509e-14
3.80855e-11
-7.45792e-14
1.39493e-14
3.17716e-11
-6.39992e-14
9.66742e-15
2.66845e-11
-5.5447e-14
6.45626e-15
2.25558e-11
-4.83304e-14
4.04415e-15
1.91803e-11
-4.22165e-14
2.19804e-15
1.64004e-11
7.8084e-16
1.41239e-11
-4.7848e-15
1.45974e-13
-2.98573e-13
9.38337e-11
-3.00475e-13
-3.31885e-13
7.32572e-11
-1.47239e-13
-3.48301e-13
5.77551e-11
-1.18746e-13
-3.58824e-13
4.60203e-11
-9.74474e-14
-3.65789e-13
3.705e-11
-8.10949e-14
-3.70371e-13
3.01147e-11
-6.82489e-14
-3.73351e-13
2.46952e-11
-5.80716e-14
-3.7527e-13
2.04191e-11
-4.94328e-14
-3.76482e-13
1.70109e-11
-3.8245e-13
1.43053e-11
-5.71917e-15
2.9994e-12
-7.63746e-10
1.63334e-10
2.48044e-12
-8.17325e-10
1.24895e-10
2.24481e-12
-8.22472e-10
9.88954e-11
2.03609e-12
-8.2625e-10
8.00969e-11
1.85113e-12
-8.29238e-10
6.63559e-11
1.68783e-12
-8.31625e-10
5.61602e-11
1.54357e-12
-8.33548e-10
4.85007e-11
1.41594e-12
-8.35107e-10
4.26825e-11
1.27995e-12
-8.36436e-10
3.82155e-11
-8.53198e-10
3.50771e-11
-6.68606e-15
-3.0302e-10
1.36796e-07
-8.51068e-07
2.95284e-10
1.15955e-07
-9.36885e-07
3.13255e-10
1.01443e-07
-9.38871e-07
3.03849e-10
8.94061e-08
-9.40367e-07
2.93927e-10
7.93199e-08
-9.41671e-07
2.83915e-10
7.08005e-08
-9.42824e-07
2.7404e-10
6.35496e-08
-9.43853e-07
2.61049e-10
5.73341e-08
-9.44782e-07
1.17635e-10
5.19758e-08
-9.457e-07
4.81995e-08
-7.7308e-15
-9.8214e-07
3.41988e-13
8.96616e-14
5.94852e-13
-1.85665e-14
8.45638e-14
5.84731e-13
-2.54247e-14
7.45241e-14
5.75236e-13
-2.46428e-14
6.47955e-14
5.64251e-13
-2.42441e-14
5.54014e-14
5.54472e-13
-2.40676e-14
4.63053e-14
5.45443e-13
-2.39221e-14
3.7514e-14
5.35239e-13
-2.3727e-14
2.90327e-14
5.26416e-13
-2.56965e-14
2.07769e-14
5.17505e-13
1.29437e-14
5.0815e-13
-1.59031e-15
2.84819e-13
8.41003e-14
8.25747e-13
-7.07424e-14
7.64812e-14
7.83829e-13
-8.54682e-14
6.47545e-14
7.44402e-13
-8.23543e-14
5.35699e-14
7.05577e-13
-8.00703e-14
4.27241e-14
6.69647e-13
-7.79053e-14
3.0192e-14
6.35066e-13
-7.55836e-14
2.09668e-14
6.03773e-13
-7.44219e-14
1.37286e-14
5.73143e-13
-7.83764e-14
7.63131e-15
5.45772e-13
2.5551e-15
5.17912e-13
-4.29257e-15
1.99531e-13
1.06222e-13
1.16536e-12
-1.78943e-13
9.46624e-14
1.06263e-12
-1.6241e-13
7.91563e-14
9.74279e-13
-1.54041e-13
6.48793e-14
8.87999e-13
-1.46636e-13
5.20242e-14
8.12412e-13
-1.3982e-13
4.03785e-14
7.4395e-13
-1.33604e-13
2.98302e-14
6.82246e-13
-1.28169e-13
2.03377e-14
6.26301e-13
-1.33772e-13
1.17873e-14
5.7511e-13
4.19848e-15
5.29335e-13
-6.87059e-15
7.7805e-14
1.30399e-13
1.67631e-12
-3.09534e-13
1.12946e-13
1.46589e-12
-2.61695e-13
9.22509e-14
1.28952e-12
-2.42335e-13
7.39732e-14
1.12991e-12
-2.26156e-13
5.80135e-14
9.9336e-13
-2.11435e-13
4.40736e-14
8.75544e-13
-1.97867e-13
3.19503e-14
7.74284e-13
-1.86146e-13
2.13802e-14
6.86903e-13
-1.90704e-13
1.21519e-14
6.08408e-13
4.2019e-15
5.39878e-13
-9.83089e-15
-4.50055e-14
1.61864e-13
2.463e-12
-4.75094e-13
1.35972e-13
2.05825e-12
-3.88674e-13
1.08339e-13
1.73061e-12
-3.51652e-13
8.474e-14
1.45143e-12
-3.21058e-13
6.49062e-14
1.22382e-12
-2.9357e-13
4.82428e-14
1.03699e-12
-2.69173e-13
3.4211e-14
8.82094e-13
-2.48504e-13
2.24262e-14
7.53139e-13
-2.49897e-13
1.24979e-14
6.44692e-13
4.28264e-15
5.52597e-13
-1.29499e-14
-1.83336e-13
2.02824e-13
3.70822e-12
-6.91069e-13
1.65794e-13
2.93974e-12
-5.51844e-13
1.28217e-13
2.35405e-12
-4.86925e-13
9.7685e-14
1.88205e-12
-4.33992e-13
7.29534e-14
1.51832e-12
-3.88129e-13
5.2896e-14
1.23352e-12
-3.48283e-13
3.66907e-14
1.0092e-12
-3.15294e-13
2.35298e-14
8.30267e-13
-3.11209e-13
1.29087e-14
6.86415e-13
4.28135e-15
5.66884e-13
-1.59425e-14
-6.03401e-13
2.56894e-13
5.72645e-12
-9.79083e-13
2.10808e-13
4.28583e-12
-7.61168e-13
1.58666e-13
3.24786e-12
-6.54345e-13
1.18063e-13
2.46446e-12
-5.68824e-13
8.65282e-14
1.89702e-12
-4.9658e-13
6.19592e-14
1.47485e-12
-4.36103e-13
4.26421e-14
1.15749e-12
-3.86303e-13
2.73922e-14
9.17576e-13
-3.75097e-13
1.50629e-14
7.29832e-13
4.64097e-15
5.82857e-13
-1.89699e-14
-1.11246e-12
3.12374e-13
9.10195e-12
-1.36511e-12
2.18979e-13
6.38681e-12
-1.03088e-12
1.54247e-13
4.55212e-12
-8.61283e-13
1.06937e-13
3.26872e-12
-7.28767e-13
7.21226e-14
2.39075e-12
-6.21306e-13
4.61307e-14
1.7734e-12
-5.32825e-13
2.65476e-14
1.33501e-12
-4.62686e-13
1.1645e-14
1.01576e-12
-4.409e-13
2.11321e-16
7.79535e-13
-8.58735e-15
5.99438e-13
-2.21064e-14
-1.94271e-12
6.65276e-12
1.73375e-11
-1.54841e-12
-3.31278e-11
9.25443e-12
-9.88298e-13
-3.02784e-11
6.26593e-12
-8.25489e-13
-2.78539e-11
4.38889e-12
-7.03807e-13
-2.59972e-11
3.20392e-12
-6.10485e-13
-2.45698e-11
2.43303e-12
-5.49303e-13
-2.34738e-11
1.91878e-12
-5.42557e-13
-2.26354e-11
1.56751e-12
-5.63161e-13
-2.20019e-11
1.3185e-12
-2.17131e-11
1.13562e-12
-2.52994e-14
-8.63035e-10
1.20506e-08
8.03364e-08
-2.81188e-10
6.16486e-09
-1.61374e-09
-3.06605e-10
4.62826e-09
-1.82537e-09
-2.97248e-10
3.55284e-09
-1.80428e-09
-2.87531e-10
2.77112e-09
-1.77508e-09
-2.77788e-10
2.1925e-09
-1.74282e-09
-2.68211e-10
1.7574e-09
-1.7099e-09
-2.58959e-10
1.42551e-09
-1.67796e-09
-2.53734e-10
1.16922e-09
-1.65321e-09
9.77517e-10
-2.86876e-14
-1.97203e-09
3.44441e-13
8.21191e-14
2.12455e-14
-1.67829e-14
7.79519e-14
1.95849e-14
-2.23086e-14
6.87624e-14
1.82167e-14
-2.02633e-14
5.99008e-14
1.66256e-14
-1.86852e-14
5.13315e-14
1.48603e-14
-2.02527e-14
4.29928e-14
1.28024e-14
-1.90167e-14
3.50181e-14
1.1943e-14
-1.94261e-14
2.72576e-14
1.09922e-14
-2.34921e-14
1.97588e-14
1.01302e-14
1.2627e-14
1.02196e-14
-1.33032e-15
2.93082e-13
5.93543e-14
3.4195e-14
-6.50082e-14
5.4491e-14
3.07495e-14
-7.21279e-14
4.6203e-14
2.99313e-14
-6.70116e-14
3.8269e-14
2.52553e-14
-6.58605e-14
3.08955e-14
2.20567e-14
-6.25449e-14
2.40975e-14
2.02351e-14
-6.16063e-14
1.77918e-14
1.62848e-14
-6.08667e-14
1.20449e-14
1.43981e-14
-7.13455e-14
6.85914e-15
1.34777e-14
2.41518e-15
1.20452e-14
-4.42593e-15
2.14509e-13
7.59233e-14
5.17594e-14
-1.65468e-13
6.8588e-14
4.67205e-14
-1.37008e-13
5.77263e-14
4.48285e-14
-1.2523e-13
4.7771e-14
3.90204e-14
-1.19097e-13
3.87416e-14
3.30161e-14
-1.12786e-13
3.04752e-14
2.75504e-14
-1.07551e-13
2.34664e-14
2.35823e-14
-1.0551e-13
1.64811e-14
2.07436e-14
-1.21259e-13
9.56443e-15
1.78368e-14
3.33067e-15
1.48178e-14
-7.24225e-15
9.33294e-14
9.4379e-14
8.28645e-14
-2.89278e-13
8.26415e-14
7.63474e-14
-2.19842e-13
6.7853e-14
7.1265e-14
-1.95968e-13
5.48436e-14
5.88247e-14
-1.8267e-13
4.35172e-14
4.90663e-14
-1.69605e-13
3.3828e-14
4.13472e-14
-1.54835e-13
2.56596e-14
3.4793e-14
-1.53146e-13
1.71055e-14
2.93832e-14
-1.73188e-13
9.80065e-15
2.62041e-14
3.48283e-15
1.96901e-14
-1.03873e-14
-2.46417e-14
1.19057e-13
1.41235e-13
-4.46504e-13
1.00401e-13
1.26083e-13
-3.25257e-13
8.03803e-14
1.13577e-13
-2.70744e-13
6.3241e-14
9.2123e-14
-2.46928e-13
4.89461e-14
7.43581e-14
-2.24575e-13
3.7108e-14
6.0684e-14
-2.04342e-13
2.77772e-14
5.06496e-14
-2.02297e-13
1.84159e-14
4.33695e-14
-2.26981e-13
1.04138e-14
3.7154e-14
3.61766e-15
2.69563e-14
-1.31566e-14
-1.61217e-13
1.51934e-13
2.44952e-13
-6.52285e-13
1.24207e-13
2.15258e-13
-4.49481e-13
9.60782e-14
1.82192e-13
-3.68097e-13
7.34076e-14
1.42317e-13
-3.27438e-13
5.53831e-14
1.12627e-13
-2.90726e-13
4.08635e-14
8.99045e-14
-2.59588e-13
2.96122e-14
7.34048e-14
-2.52012e-13
1.93094e-14
6.12469e-14
-2.82999e-13
1.04841e-14
4.89542e-14
3.61204e-15
3.49976e-14
-1.64831e-14
-5.75919e-13
1.92599e-13
4.31673e-13
-9.29278e-13
1.54527e-13
3.64951e-13
-5.88038e-13
1.15588e-13
2.90976e-13
-4.90211e-13
8.57536e-14
2.201e-13
-4.24853e-13
6.28326e-14
1.67943e-13
-3.6827e-13
4.54388e-14
1.30626e-13
-3.20491e-13
3.26134e-14
1.0423e-13
-2.93342e-13
2.0556e-14
8.33241e-14
-3.40853e-13
1.12178e-14
6.76427e-14
3.92219e-15
4.51933e-14
-1.96525e-14
-1.10395e-12
3.20959e-13
7.81727e-13
-1.30361e-12
2.2348e-13
6.21152e-13
-7.87595e-13
1.57074e-13
4.66451e-13
-6.43845e-13
1.09909e-13
3.34894e-13
-5.41159e-13
7.61477e-14
2.47178e-13
-4.56847e-13
5.16548e-14
1.86816e-13
-3.89486e-13
3.3687e-14
1.42663e-13
-3.42389e-13
2.04535e-14
1.11855e-13
-4.01043e-13
1.06041e-14
8.95739e-14
3.36307e-15
5.68144e-14
-2.29725e-14
-2.14549e-12
4.16888e-11
4.74897e-12
-1.77547e-12
1.11411e-12
9.57625e-13
-1.05075e-12
5.16315e-13
6.53989e-13
-8.36538e-13
2.80532e-13
4.57553e-13
-6.8268e-13
1.08299e-13
3.31381e-13
-5.63097e-13
-1.70195e-14
2.47085e-13
-4.68925e-13
-1.08322e-13
1.89324e-13
-4.02654e-13
-1.74327e-13
1.48322e-13
-4.69035e-13
-2.21657e-13
1.18818e-13
-2.52137e-13
7.9377e-14
-2.6316e-14
-5.25724e-10
5.1098e-09
7.19814e-08
-3.29626e-11
2.63022e-10
1.32426e-10
-3.31944e-11
1.38635e-10
-4.64655e-11
-2.7849e-11
9.17905e-11
-3.67826e-11
-2.34401e-11
6.26173e-11
-2.77506e-11
-1.99011e-11
4.37267e-11
-1.97002e-11
-1.70273e-11
3.12102e-11
-1.49456e-11
-1.46798e-11
2.2713e-11
-1.20405e-11
-1.27407e-11
1.68266e-11
-9.7631e-12
1.25406e-11
-2.98552e-14
-7.28703e-12
3.44611e-13
8.1144e-14
1.05654e-14
-1.67485e-14
7.71018e-14
9.47443e-15
-2.19628e-14
6.80496e-14
7.89211e-15
-1.97974e-14
5.92716e-14
6.31961e-15
-1.89498e-14
5.08222e-14
4.55126e-15
-1.95076e-14
4.26437e-14
3.66931e-15
-1.81562e-14
3.47123e-14
2.00059e-15
-1.91944e-14
2.70509e-14
1.15615e-15
-2.30765e-14
1.96691e-14
7.62242e-16
1.26154e-14
3.81098e-16
-1.58272e-15
2.94169e-13
5.81798e-14
1.78153e-14
-6.42785e-14
5.34869e-14
1.5503e-14
-7.10056e-14
4.53526e-14
1.60085e-14
-6.43515e-14
3.76586e-14
1.27638e-14
-6.22016e-14
3.04195e-14
9.2915e-15
-6.19283e-14
2.36936e-14
6.81825e-15
-5.88561e-14
1.75605e-14
5.71866e-15
-5.88359e-14
1.19216e-14
4.39198e-15
-7.04387e-14
6.79361e-15
3.77186e-15
2.41718e-15
2.12421e-15
-4.37324e-15
2.17144e-13
7.39683e-14
2.58786e-14
-1.63271e-13
6.69051e-14
2.43393e-14
-1.32718e-13
5.62106e-14
2.58466e-14
-1.168e-13
4.62763e-14
1.97826e-14
-1.13617e-13
3.73807e-14
1.64599e-14
-1.03689e-13
2.93389e-14
1.36369e-14
-9.85998e-14
2.18181e-14
1.07255e-14
-1.02978e-13
1.50305e-14
8.81071e-15
-1.19697e-13
9.38066e-15
7.59571e-15
3.10048e-15
5.5846e-15
-7.13969e-15
9.68009e-14
9.19611e-14
4.27096e-14
-2.85506e-13
8.04633e-14
4.24595e-14
-2.1255e-13
6.59933e-14
4.46402e-14
-1.79145e-13
5.32674e-14
3.64346e-14
-1.67036e-13
4.20261e-14
2.97857e-14
-1.55631e-13
3.2167e-14
2.49802e-14
-1.44435e-13
2.35555e-14
2.06846e-14
-1.47289e-13
1.59708e-14
1.75815e-14
-1.71193e-13
9.5916e-15
1.48414e-14
3.57125e-15
1.02092e-14
-1.04894e-14
-1.9099e-14
1.15877e-13
7.47551e-14
-4.4019e-13
9.78605e-14
7.77456e-14
-2.99662e-13
7.81849e-14
7.63492e-14
-2.58266e-13
6.13268e-14
6.13478e-14
-2.34945e-13
4.73188e-14
5.1409e-14
-2.13805e-13
3.54968e-14
4.22416e-14
-1.94882e-13
2.55737e-14
3.51195e-14
-1.91955e-13
1.7609e-14
3.0662e-14
-2.24356e-13
9.6021e-15
2.73293e-14
3.55766e-15
1.77107e-14
-1.33402e-14
-1.53242e-13
1.4777e-13
1.3347e-13
-6.4256e-13
1.20871e-13
1.37117e-13
-4.14365e-13
9.33712e-14
1.29377e-13
-3.54774e-13
7.1286e-14
1.0408e-13
-3.15678e-13
5.3514e-14
8.43755e-14
-2.80387e-13
3.90856e-14
6.9985e-14
-2.50118e-13
2.74203e-14
5.80344e-14
-2.35004e-13
1.79015e-14
4.837e-14
-2.79482e-13
1.04988e-14
4.27318e-14
3.684e-15
2.75519e-14
-1.66826e-14
-5.57666e-13
1.87963e-13
2.38346e-13
-9.141e-13
1.50576e-13
2.45553e-13
-5.64654e-13
1.12632e-13
2.14252e-13
-4.75218e-13
8.3313e-14
1.68809e-13
-4.11665e-13
6.0824e-14
1.33985e-13
-3.56836e-13
4.3429e-14
1.08679e-13
-3.11741e-13
2.97086e-14
8.76799e-14
-2.81034e-13
1.90066e-14
7.38558e-14
-3.37229e-13
1.08862e-14
6.21854e-14
3.42309e-15
3.98907e-14
-1.98791e-14
-1.07635e-12
3.15193e-13
4.30641e-13
-1.27915e-12
1.76013e-13
4.28444e-13
-7.62754e-13
1.80059e-13
3.50957e-13
-6.25357e-13
1.27275e-13
2.67726e-13
-5.25903e-13
8.88976e-14
2.06648e-13
-4.4514e-13
6.09654e-14
1.61814e-13
-3.79547e-13
4.0413e-14
1.29994e-13
-3.31759e-13
2.51687e-14
1.0557e-13
-3.97379e-13
1.36936e-14
8.64057e-14
5.1385e-15
5.66273e-14
-2.29411e-14
-2.10956e-12
4.2329e-11
6.94354e-12
-1.73449e-12
6.22408e-13
7.85274e-13
-1.02215e-12
2.33888e-13
5.71921e-13
-8.13625e-13
1.52739e-13
4.20474e-13
-6.63279e-13
9.94712e-14
3.12329e-13
-5.46252e-13
6.32666e-14
2.37821e-13
-4.5432e-13
3.84519e-14
1.83486e-13
-3.87691e-13
2.12561e-14
1.44724e-13
-4.59245e-13
9.26079e-15
1.14243e-13
9.9526e-16
7.01941e-14
-2.64884e-14
-4.88691e-10
7.43423e-09
7.15981e-08
-5.48505e-12
6.02879e-11
1.95788e-10
-2.06606e-12
4.29051e-12
5.0128e-13
-2.23402e-12
2.4187e-12
1.39535e-13
-1.71726e-12
1.52104e-12
2.14808e-13
-1.33705e-12
9.99196e-13
2.31083e-13
-1.05746e-12
6.78805e-13
2.30642e-13
-8.52661e-13
4.7553e-13
2.21433e-13
-7.57562e-13
3.39887e-13
2.08518e-13
2.16852e-13
-3.01074e-14
2.65118e-13
3.44486e-13
8.12372e-14
1.845e-14
-1.70967e-14
7.71663e-14
1.57732e-14
-2.1956e-14
6.81418e-14
1.28801e-14
-2.0479e-14
5.93476e-14
7.67093e-15
-1.73368e-14
5.08724e-14
7.80292e-15
-1.99201e-14
4.26523e-14
3.56426e-15
-1.91312e-14
3.47651e-14
5.06589e-15
-1.8859e-14
2.71216e-14
4.18435e-15
-2.30845e-14
1.97088e-14
8.85215e-16
1.26458e-14
1.97375e-16
-1.80693e-15
2.93876e-13
5.82865e-14
2.69155e-14
-6.44643e-14
5.36023e-14
2.6847e-14
-7.1158e-14
4.54282e-14
1.99448e-14
-6.53814e-14
3.76714e-14
1.69775e-14
-6.28891e-14
3.04855e-14
1.1297e-14
-6.07497e-14
2.37846e-14
9.4504e-15
-5.92034e-14
1.75976e-14
6.42502e-15
-5.92713e-14
1.19562e-14
7.70695e-15
-7.05234e-14
6.84622e-15
6.19373e-15
2.47604e-15
1.68109e-15
-4.34548e-15
2.16783e-13
7.41286e-14
4.23387e-14
-1.63816e-13
6.70324e-14
3.6966e-14
-1.33997e-13
5.63534e-14
3.56879e-14
-1.14656e-13
4.65102e-14
3.27654e-14
-1.11314e-13
3.74843e-14
2.32321e-14
-1.04915e-13
2.94169e-14
1.70473e-14
-9.8561e-14
2.19886e-14
1.51584e-14
-1.0307e-13
1.51814e-14
1.23396e-14
-1.1962e-13
9.21335e-15
1.32568e-14
3.0531e-15
6.23807e-15
-7.43372e-15
9.64054e-14
9.22473e-14
6.55134e-14
-2.86197e-13
8.07792e-14
6.33454e-14
-2.133e-13
6.62022e-14
6.23323e-14
-1.79585e-13
5.33619e-14
5.07253e-14
-1.66828e-13
4.22029e-14
4.15925e-14
-1.56154e-13
3.22316e-14
3.37019e-14
-1.44401e-13
2.35567e-14
3.07293e-14
-1.47871e-13
1.6123e-14
2.51659e-14
-1.71291e-13
9.97796e-15
2.58807e-14
3.75148e-15
1.97827e-14
-1.01598e-14
-1.97303e-14
1.1635e-13
1.09739e-13
-4.41539e-13
9.82007e-14
1.1024e-13
-3.02203e-13
7.85519e-14
1.08425e-13
-2.57963e-13
6.1686e-14
9.24154e-14
-2.35799e-13
4.75516e-14
7.3733e-14
-2.14454e-13
3.58051e-14
6.51127e-14
-1.94769e-13
2.59393e-14
5.6918e-14
-1.89364e-13
1.73016e-14
4.37529e-14
-2.24843e-13
9.47328e-15
3.6293e-14
3.69715e-15
2.46582e-14
-1.33183e-14
-1.54581e-13
1.48499e-13
1.91238e-13
-6.44452e-13
1.21583e-13
2.03407e-13
-4.15831e-13
9.38855e-14
1.81477e-13
-3.5583e-13
7.17126e-14
1.48014e-13
-3.16162e-13
5.38868e-14
1.20753e-13
-2.81246e-13
3.9382e-14
1.01294e-13
-2.50956e-13
2.75602e-14
8.02414e-14
-2.34003e-13
1.83071e-14
7.52905e-14
-2.80232e-13
1.0741e-14
5.97537e-14
3.80236e-15
3.84495e-14
-1.65976e-14
-5.61109e-13
1.89051e-13
3.39767e-13
-9.17857e-13
1.51549e-13
3.49657e-13
-5.66438e-13
1.13415e-13
3.11209e-13
-4.77e-13
8.39273e-14
2.37841e-13
-4.1282e-13
6.1331e-14
1.94254e-13
-3.58445e-13
4.37749e-14
1.53139e-13
-3.12353e-13
3.01466e-14
1.27626e-13
-2.81788e-13
1.91805e-14
1.04457e-13
-3.38401e-13
1.11403e-14
8.67673e-14
4.05409e-15
5.58372e-14
-1.98324e-14
-1.08319e-12
3.18151e-13
6.05515e-13
-1.28532e-12
1.79835e-13
6.14302e-13
-7.66017e-13
1.39458e-13
5.03479e-13
-6.28225e-13
1.00665e-13
3.82198e-13
-5.28359e-13
7.20806e-14
2.97855e-13
-4.46935e-13
5.37554e-14
2.35567e-13
-3.81218e-13
3.64794e-14
1.84339e-13
-3.3326e-13
2.30371e-14
1.51612e-13
-3.989e-13
1.26044e-14
1.23312e-13
4.83619e-15
7.76774e-14
-2.31529e-14
-2.13321e-12
4.40759e-11
1.05988e-11
-1.74324e-12
5.72884e-13
1.1362e-12
-1.02797e-12
1.55508e-13
8.17165e-13
-8.18766e-13
1.69043e-13
5.92839e-13
-6.67036e-13
1.11406e-13
4.45934e-13
-5.49545e-13
7.09851e-14
3.3847e-13
-4.56655e-13
4.10355e-14
2.58493e-13
-3.89982e-13
1.74185e-14
2.08011e-13
-4.61708e-13
8.48093e-15
1.66192e-13
3.27603e-15
1.05048e-13
-2.65424e-14
-5.09889e-10
1.18003e-08
7.56326e-08
-4.31508e-12
8.94052e-11
2.15204e-10
-1.31565e-12
1.54654e-12
6.94666e-13
-1.07353e-12
8.32917e-13
1.4958e-13
-8.46098e-13
5.78802e-13
8.46845e-14
-6.74977e-13
4.16259e-13
5.99729e-14
-5.46104e-13
3.07755e-13
4.57949e-14
-4.53736e-13
2.32648e-13
3.59425e-14
-5.29768e-13
1.78608e-13
2.87134e-14
1.09657e-13
-3.0104e-14
2.41934e-14
3.44162e-13
8.13921e-14
2.20581e-14
-1.74336e-14
7.73145e-14
1.49743e-14
-2.25782e-14
6.82167e-14
1.81948e-14
-1.99008e-14
5.94549e-14
1.31746e-14
-1.96042e-14
5.09191e-14
7.65571e-15
-1.91794e-14
4.27205e-14
4.7107e-15
-1.88853e-14
3.47896e-14
2.14122e-15
-1.97274e-14
2.71574e-14
1.1069e-15
-2.31227e-14
1.97765e-14
1.07969e-15
1.26753e-14
1.3074e-15
-1.55084e-15
2.93489e-13
5.84755e-14
3.69561e-14
-6.51209e-14
5.37623e-14
3.34922e-14
-7.0652e-14
4.56024e-14
3.20523e-14
-6.69087e-14
3.77938e-14
2.09192e-14
-6.16266e-14
3.06145e-14
2.16162e-14
-6.16796e-14
2.3861e-14
1.2147e-14
-5.72626e-14
1.76837e-14
8.39803e-15
-5.92587e-14
1.20162e-14
5.26248e-15
-7.08488e-14
6.90899e-15
4.51254e-15
2.53739e-15
4.66489e-15
-4.36196e-15
2.16094e-13
7.44418e-14
4.70098e-14
-1.64811e-13
6.72918e-14
5.04566e-14
-1.34201e-13
5.65611e-14
5.31698e-14
-1.15364e-13
4.66649e-14
4.26214e-14
-1.14444e-13
3.76013e-14
3.17936e-14
-1.0402e-13
2.95404e-14
2.62106e-14
-9.91177e-14
2.21436e-14
1.79161e-14
-1.02695e-13
1.5365e-14
1.84249e-14
-1.19929e-13
9.47895e-15
1.21304e-14
3.46795e-15
8.34054e-15
-7.45779e-15
9.55898e-14
9.2737e-14
8.95057e-14
-2.87526e-13
8.11995e-14
8.69692e-14
-2.14063e-13
6.6572e-14
9.07429e-14
-1.80223e-13
5.37124e-14
7.46645e-14
-1.67705e-13
4.25239e-14
5.84128e-14
-1.55821e-13
3.25621e-14
4.23771e-14
-1.45163e-13
2.37865e-14
3.46763e-14
-1.47835e-13
1.62642e-14
3.36608e-14
-1.71477e-13
9.94268e-15
2.62973e-14
3.5297e-15
1.53879e-14
-1.02956e-14
-2.11447e-14
1.17123e-13
1.55801e-13
-4.43576e-13
9.88991e-14
1.5935e-13
-3.02819e-13
7.90637e-14
1.56309e-13
-2.59107e-13
6.21058e-14
1.26072e-13
-2.36328e-13
4.78746e-14
1.04157e-13
-2.15472e-13
3.60949e-14
8.37922e-14
-1.9528e-13
2.60324e-14
6.17691e-14
-1.90985e-13
1.75811e-14
5.30546e-14
-2.25313e-13
9.91892e-15
4.45858e-14
3.99757e-15
2.84502e-14
-1.32954e-14
-1.56729e-13
1.49741e-13
2.71596e-13
-6.48026e-13
1.22571e-13
2.83163e-13
-4.17563e-13
9.47579e-14
2.62572e-13
-3.57559e-13
7.23592e-14
2.05813e-13
-3.17091e-13
5.44801e-14
1.6715e-13
-2.832e-13
3.97668e-14
1.25897e-13
-2.5145e-13
2.80454e-14
1.12548e-13
-2.34855e-13
1.84665e-14
8.28877e-14
-2.81227e-13
1.09856e-14
6.96452e-14
3.87511e-15
4.51704e-14
-1.64846e-14
-5.67351e-13
1.90805e-13
4.85889e-13
-9.23391e-13
1.53117e-13
4.99559e-13
-5.70559e-13
1.14583e-13
4.27714e-13
-4.79252e-13
8.48988e-14
3.38161e-13
-4.15474e-13
6.20576e-14
2.64648e-13
-3.60163e-13
4.44511e-14
2.09821e-13
-3.1417e-13
3.06496e-14
1.67641e-13
-2.82788e-13
1.96542e-14
1.24872e-13
-3.39992e-13
1.1489e-14
1.04074e-13
4.44474e-15
6.50696e-14
-1.97524e-14
-1.09465e-12
3.22567e-13
8.78128e-13
-1.29503e-12
1.82918e-13
8.74374e-13
-7.71782e-13
1.4069e-13
7.06948e-13
-6.32677e-13
1.01545e-13
5.32429e-13
-5.32013e-13
7.26702e-14
4.05436e-13
-4.50036e-13
5.38427e-14
3.11619e-13
-3.83785e-13
3.68931e-14
2.45788e-13
-3.35383e-13
2.35167e-14
1.8053e-13
-4.01186e-13
1.30311e-14
1.43211e-13
5.17692e-15
8.99716e-14
-2.30681e-14
-2.16889e-12
4.67837e-11
1.39462e-11
-1.75681e-12
5.92903e-13
1.61105e-12
-1.03747e-12
1.61475e-13
1.1517e-12
-8.25909e-13
1.65554e-13
8.33418e-13
-6.72847e-13
1.08151e-13
6.0957e-13
-5.54414e-13
6.67954e-14
4.53167e-13
-4.60178e-13
3.15489e-14
3.31998e-13
-3.93177e-13
1.74864e-14
2.63292e-13
-4.6522e-13
9.06361e-15
1.96337e-13
3.70764e-15
1.19489e-13
-2.6563e-14
-5.44604e-10
1.61801e-08
8.13817e-08
-4.44353e-12
1.32109e-10
2.33437e-10
-1.31682e-12
2.26196e-12
7.25366e-13
-1.06736e-12
1.14938e-12
8.62502e-14
-8.4329e-13
8.20717e-13
6.39179e-14
-6.73905e-13
5.97082e-13
4.96364e-14
-5.4616e-13
4.37886e-13
3.92296e-14
-4.54295e-13
3.28254e-13
3.15389e-14
-5.31789e-13
2.51553e-13
2.57593e-14
1.4903e-13
-3.02911e-14
2.14098e-14
3.43659e-13
8.15946e-14
2.86203e-14
-1.76946e-14
7.75124e-14
2.81065e-14
-2.31438e-14
6.8341e-14
2.2291e-14
-2.0055e-14
5.95592e-14
1.76614e-14
-1.99143e-14
5.10437e-14
8.3277e-15
-1.98044e-14
4.28102e-14
6.22907e-15
-1.90474e-14
3.48861e-14
5.2156e-15
-1.94979e-14
2.72301e-14
4.95508e-15
-2.30602e-14
1.98466e-14
9.87987e-15
1.27508e-14
2.71413e-14
-1.64907e-15
2.92951e-13
5.86797e-14
4.95431e-14
-6.57191e-14
5.39479e-14
4.48982e-14
-7.13607e-14
4.57835e-14
4.4175e-14
-6.58659e-14
3.79598e-14
3.44185e-14
-6.41645e-14
3.06998e-14
1.93666e-14
-6.10448e-14
2.3974e-14
1.24618e-14
-5.95289e-14
1.77746e-14
1.05331e-14
-5.88994e-14
1.21352e-14
1.03376e-14
-7.07926e-14
6.99272e-15
9.97973e-15
2.60467e-15
2.1526e-14
-4.45152e-15
2.15294e-13
7.48385e-14
7.22813e-14
-1.65896e-13
6.75934e-14
6.8785e-14
-1.34661e-13
5.68277e-14
6.92571e-14
-1.17102e-13
4.68785e-14
5.54671e-14
-1.12053e-13
3.7816e-14
4.30542e-14
-1.05711e-13
2.96431e-14
2.42406e-14
-9.7939e-14
2.23102e-14
1.95714e-14
-1.03552e-13
1.54091e-14
2.09884e-14
-1.20022e-13
9.76587e-15
2.11843e-14
3.32359e-15
2.28886e-14
-7.58985e-15
9.45606e-14
9.33421e-14
1.15636e-13
-2.88997e-13
8.17401e-14
1.19132e-13
-2.15052e-13
6.70158e-14
1.19124e-13
-1.8126e-13
5.4094e-14
9.58e-14
-1.68498e-13
4.29113e-14
7.77712e-14
-1.56308e-13
3.29679e-14
5.86918e-14
-1.45077e-13
2.40388e-14
3.78049e-14
-1.47912e-13
1.64822e-14
3.2285e-14
-1.72092e-13
9.65735e-15
3.65188e-14
4.05575e-15
3.1218e-14
-1.01375e-14
-2.28858e-14
1.18073e-13
2.01537e-13
-4.45971e-13
9.97124e-14
2.10569e-13
-3.0518e-13
7.97404e-14
2.01444e-13
-2.60134e-13
6.26224e-14
1.634e-13
-2.37235e-13
4.82812e-14
1.32309e-13
-2.16841e-13
3.64141e-14
1.07735e-13
-1.9565e-13
2.63941e-14
6.85781e-14
-1.93966e-13
1.7728e-14
5.52112e-14
-2.2592e-13
1.04316e-14
5.02045e-14
4.22052e-15
4.56966e-14
-1.34302e-14
-1.59489e-13
1.51262e-13
3.59588e-13
-6.52019e-13
1.23785e-13
3.72474e-13
-4.20651e-13
9.57153e-14
3.38471e-13
-3.59421e-13
7.32151e-14
2.72348e-13
-3.18723e-13
5.51856e-14
2.17496e-13
-2.8456e-13
4.03523e-14
1.7802e-13
-2.53104e-13
2.84678e-14
1.1389e-13
-2.35343e-13
1.88469e-14
8.79292e-14
-2.82353e-13
1.13956e-14
7.37906e-14
4.10643e-15
6.46908e-14
-1.65657e-14
-5.75098e-13
1.93341e-13
6.36412e-13
-9.30194e-13
1.55009e-13
6.48887e-13
-5.74496e-13
1.16053e-13
5.60536e-13
-4.82739e-13
8.60164e-14
4.36473e-13
-4.18206e-13
6.29359e-14
3.43188e-13
-3.62467e-13
4.51743e-14
2.73904e-13
-3.16676e-13
3.13467e-14
2.07195e-13
-2.83809e-13
2.01448e-14
1.34689e-13
-3.41956e-13
1.17546e-14
1.06893e-13
4.81763e-15
7.73565e-14
-1.97357e-14
-1.10887e-12
3.25313e-13
1.14121e-12
-1.30646e-12
1.85056e-13
1.1256e-12
-7.78749e-13
1.42946e-13
9.13811e-13
-6.38239e-13
1.03204e-13
6.88733e-13
-5.36443e-13
7.3954e-14
5.25922e-13
-4.53441e-13
5.45993e-14
4.0983e-13
-3.87549e-13
3.76552e-14
3.1724e-13
-3.37781e-13
2.42174e-14
1.98198e-13
-4.04046e-13
1.36462e-14
1.51366e-13
5.65673e-15
9.67508e-14
-2.31531e-14
-2.18476e-12
4.62566e-11
1.40762e-11
-1.77702e-12
5.72421e-13
2.02409e-12
-1.0491e-12
1.6095e-13
1.49182e-12
-8.34781e-13
1.68843e-13
1.07605e-12
-6.79971e-13
1.1058e-13
7.96384e-13
-5.60006e-13
6.87554e-14
5.98919e-13
-4.65226e-13
3.2678e-14
4.56005e-13
-3.96738e-13
1.81632e-14
2.82669e-13
-4.69581e-13
9.51316e-15
2.08065e-13
4.16997e-15
1.25216e-13
-2.66308e-14
-5.45356e-10
1.68786e-08
8.5265e-08
-4.28767e-12
1.14904e-10
2.30581e-10
-1.3287e-12
2.76633e-12
6.11556e-13
-1.08122e-12
1.64754e-12
8.49917e-14
-8.53788e-13
1.17733e-12
6.40423e-14
-6.82206e-13
8.54117e-13
5.00794e-14
-5.532e-13
6.30603e-13
3.98276e-14
-4.596e-13
4.4707e-13
3.22713e-14
-5.37921e-13
2.78559e-13
2.65005e-14
1.61557e-13
-3.02371e-14
2.23185e-14
3.43369e-13
8.17954e-14
2.25099e-14
-1.83529e-14
7.75747e-14
7.81066e-15
-2.31758e-14
6.84695e-14
9.78764e-15
-2.06569e-14
5.96665e-14
9.69044e-15
-2.01924e-14
5.11489e-14
1.56006e-14
-2.03972e-14
4.2945e-14
2.72327e-14
-2.00015e-14
3.50565e-14
4.73027e-14
-2.01658e-14
2.74747e-14
1.57907e-13
-2.07238e-14
2.01931e-14
6.25056e-13
1.30136e-14
1.95845e-12
-6.75848e-15
2.9224e-13
5.89067e-14
3.54016e-14
-6.61233e-14
5.40873e-14
1.3616e-14
-7.18352e-14
4.58681e-14
2.08653e-14
-6.68769e-14
3.80638e-14
1.88532e-14
-6.41983e-14
3.08277e-14
1.86659e-14
-6.12667e-14
2.41166e-14
3.27265e-14
-5.98751e-14
1.79181e-14
4.76592e-14
-6.20785e-14
1.23067e-14
1.11937e-13
-7.20274e-14
7.27065e-15
3.74138e-13
2.75594e-15
1.2731e-12
-6.78299e-15
2.14285e-13
7.51597e-14
5.0025e-14
-1.6689e-13
6.78341e-14
2.25709e-14
-1.34956e-13
5.70841e-14
3.4338e-14
-1.18499e-13
4.70795e-14
3.21152e-14
-1.1162e-13
3.80601e-14
3.30474e-14
-1.0633e-13
2.99255e-14
4.27462e-14
-9.92639e-14
2.2607e-14
5.9735e-14
-1.0428e-13
1.55798e-14
9.58352e-14
-1.23309e-13
9.28842e-15
2.51563e-13
3.52942e-15
8.32939e-13
-5.85794e-15
9.3683e-14
9.39384e-14
8.40446e-14
-2.90176e-13
8.21318e-14
4.83562e-14
-2.16217e-13
6.73463e-14
6.43153e-14
-1.81516e-13
5.44338e-14
5.95932e-14
-1.68779e-13
4.31939e-14
5.87406e-14
-1.56779e-13
3.32031e-14
6.29026e-14
-1.46694e-13
2.43958e-14
7.71754e-14
-1.49162e-13
1.69208e-14
9.97764e-14
-1.75693e-13
9.92754e-15
1.96484e-13
4.39436e-15
5.79973e-13
-7.35566e-15
-2.44445e-14
1.19046e-13
1.46606e-13
-4.47735e-13
1.00376e-13
1.04753e-13
-3.05672e-13
8.03259e-14
1.20187e-13
-2.61316e-13
6.32031e-14
1.07841e-13
-2.37826e-13
4.87886e-14
9.92788e-14
-2.17385e-13
3.69486e-14
1.27029e-13
-1.96995e-13
2.66378e-14
1.05803e-13
-1.97383e-13
1.79519e-14
1.19517e-13
-2.29704e-13
1.09232e-14
1.81224e-13
4.19095e-15
4.32998e-13
-1.20223e-14
-1.62192e-13
1.52717e-13
2.60568e-13
-6.54773e-13
1.24763e-13
2.10722e-13
-4.21858e-13
9.66062e-14
2.17025e-13
-3.61654e-13
7.39547e-14
1.8738e-13
-3.19294e-13
5.58716e-14
1.65213e-13
-2.86975e-13
4.09085e-14
1.88591e-13
-2.54354e-13
2.90088e-14
1.50823e-13
-2.37066e-13
1.9308e-14
1.61042e-13
-2.86734e-13
1.16892e-14
1.91526e-13
4.80778e-15
3.50771e-13
-1.58059e-14
-5.82691e-13
1.9758e-13
4.67594e-13
-9.34502e-13
1.56579e-13
4.02453e-13
-5.77798e-13
1.17289e-13
3.77993e-13
-4.85571e-13
8.70967e-14
3.13911e-13
-4.20129e-13
6.38215e-14
2.64682e-13
-3.65244e-13
4.59605e-14
2.69201e-13
-3.18897e-13
3.20832e-14
1.72665e-13
-2.86553e-13
2.07453e-14
2.10607e-13
-3.46751e-13
1.23009e-14
2.22337e-13
5.09871e-15
3.09031e-13
-1.90932e-14
-1.12172e-12
3.1835e-13
8.32806e-13
-1.31382e-12
1.83553e-13
7.39098e-13
-7.84008e-13
1.45337e-13
6.40495e-13
-6.42798e-13
1.0476e-13
5.10437e-13
-5.39945e-13
7.53277e-14
4.12893e-13
-4.56808e-13
5.54675e-14
3.95517e-13
-3.91646e-13
3.86958e-14
3.86129e-13
-3.40884e-13
2.49254e-14
2.33563e-13
-4.09988e-13
1.43448e-14
2.70468e-13
6.26264e-15
2.94631e-13
-2.27004e-14
-2.07972e-12
2.64586e-11
3.83026e-12
-1.80929e-12
3.87878e-13
1.27675e-12
-1.05852e-12
2.63977e-13
1.05984e-12
-8.41528e-13
1.7247e-13
8.08211e-13
-6.86071e-13
1.13265e-13
6.26195e-13
-5.64738e-13
7.10852e-14
5.88606e-13
-4.71744e-13
3.40644e-14
5.44833e-13
-4.00593e-13
1.90078e-14
2.9505e-13
-4.76698e-13
1.00646e-14
3.30874e-13
4.76232e-15
3.00169e-13
-2.64311e-14
-3.29883e-10
4.59672e-10
6.9851e-08
-2.84384e-12
-4.21613e-11
8.89928e-11
-1.31345e-12
1.42521e-12
1.23255e-14
-1.09405e-12
1.26319e-12
8.28258e-14
-8.63122e-13
1.00614e-12