/*--------------------------------*- C++ -*----------------------------------*\
| =========                 |                                                 |
| \\      /  F ield         | OpenFOAM: The Open Source CFD Toolbox           |
|  \\    /   O peration     | Version:  4.1                                   |
|   \\  /    A nd           | Web:      www.OpenFOAM.org                      |
|    \\/     M anipulation  |                                                 |
\*---------------------------------------------------------------------------*/
FoamFile
{
    version     2.0;
    format      ascii;
    class       volVectorField;
    location    "0.6";
    object      U;
}
// * * * * * * * * * * * * * * * * * * * * * * * * * * * * * * * * * * * * * //

dimensions      [0 1 -1 0 0 0 0];

internalField   nonuniform List<vector> 
18000
(
(8.37334e-14 3.87959e-13 -6.08855e-12)
(8.92875e-14 3.86981e-13 -6.01972e-12)
(8.06044e-14 -9.86647e-15 -5.95125e-12)
(7.21285e-14 -1.2952e-14 -5.88408e-12)
(6.3887e-14 -1.27326e-14 -5.81757e-12)
(5.58652e-14 -1.24127e-14 -5.75193e-12)
(4.81097e-14 -1.24012e-14 -5.68695e-12)
(4.06563e-14 -1.24048e-14 -5.62325e-12)
(3.3401e-14 -1.22081e-14 -5.56043e-12)
(2.64062e-14 -9.26422e-15 -5.4995e-12)
(1.21174e-13 4.00004e-13 -7.61843e-12)
(1.35451e-13 3.88279e-13 -7.35067e-12)
(1.18828e-13 -4.46355e-14 -7.09157e-12)
(1.03085e-13 -4.63825e-14 -6.84417e-12)
(8.84646e-14 -4.48171e-14 -6.60736e-12)
(7.48505e-14 -4.309e-14 -6.38044e-12)
(6.20508e-14 -4.14807e-14 -6.16265e-12)
(5.02563e-14 -4.00877e-14 -5.95417e-12)
(3.91653e-14 -3.86149e-14 -5.75358e-12)
(2.88604e-14 -2.88543e-14 -5.56494e-12)
(1.31346e-13 4.04598e-13 -9.6482e-12)
(1.42275e-13 3.78175e-13 -9.06246e-12)
(1.17844e-13 -9.46216e-14 -8.51364e-12)
(9.59536e-14 -9.22615e-14 -8.00601e-12)
(7.65306e-14 -8.63155e-14 -7.53426e-12)
(5.92731e-14 -8.11194e-14 -7.096e-12)
(4.3857e-14 -7.62784e-14 -6.68912e-12)
(3.01454e-14 -7.17704e-14 -6.3097e-12)
(1.79326e-14 -6.76627e-14 -5.95658e-12)
(7.10059e-15 -4.9322e-14 -5.63172e-12)
(1.77227e-13 3.96043e-13 -1.23774e-11)
(1.80855e-13 3.49165e-13 -1.12846e-11)
(1.44963e-13 -1.66165e-13 -1.03003e-11)
(1.14358e-13 -1.54498e-13 -9.41684e-12)
(8.84921e-14 -1.40612e-13 -8.62484e-12)
(6.65211e-14 -1.28282e-13 -7.91266e-12)
(4.79561e-14 -1.17323e-13 -7.27094e-12)
(3.20751e-14 -1.07517e-13 -6.6916e-12)
(1.86217e-14 -9.85205e-14 -6.16779e-12)
(7.24684e-15 -7.03754e-14 -5.69946e-12)
(2.44537e-13 3.63156e-13 -1.6105e-11)
(2.33775e-13 2.88802e-13 -1.42054e-11)
(1.80581e-13 -2.68931e-13 -1.25632e-11)
(1.37517e-13 -2.39889e-13 -1.11429e-11)
(1.02971e-13 -2.11134e-13 -9.9143e-12)
(7.51208e-14 -1.8671e-13 -8.84674e-12)
(5.25621e-14 -1.65888e-13 -7.91618e-12)
(3.42549e-14 -1.48006e-13 -7.10252e-12)
(1.93725e-14 -1.32149e-13 -6.38848e-12)
(7.32137e-15 -9.23255e-14 -5.76846e-12)
(3.45912e-13 2.87779e-13 -2.12815e-11)
(3.08241e-13 1.75443e-13 -1.80954e-11)
(2.28102e-13 -4.18191e-13 -1.54597e-11)
(1.66965e-13 -3.57125e-13 -1.32693e-11)
(1.20622e-13 -3.03211e-13 -1.14462e-11)
(8.51089e-14 -2.59426e-13 -9.91881e-12)
(5.77526e-14 -2.23506e-13 -8.63288e-12)
(3.65833e-14 -1.93673e-13 -7.54461e-12)
(2.0186e-14 -1.6839e-13 -6.61875e-12)
(7.42046e-15 -1.15182e-13 -5.83849e-12)
(5.0255e-13 1.37437e-13 -2.85932e-11)
(4.14618e-13 -2.75662e-14 -2.33549e-11)
(2.92024e-13 -6.3825e-13 -1.92049e-11)
(2.0434e-13 -5.20053e-13 -1.59099e-11)
(1.41753e-13 -4.24101e-13 -1.32762e-11)
(9.63411e-14 -3.50011e-13 -1.11535e-11)
(6.31245e-14 -2.91775e-13 -9.4301e-12)
(3.86763e-14 -2.4537e-13 -8.02059e-12)
(2.05857e-14 -2.07695e-13 -6.85959e-12)
(7.11614e-15 -1.39e-13 -5.90959e-12)
(-1.31115e-12 -1.47386e-13 -3.91472e-11)
(-1.47568e-12 -3.85476e-13 -3.05701e-11)
(-1.55368e-12 -9.66746e-13 -2.41067e-11)
(-1.57666e-12 -7.48085e-13 -1.92171e-11)
(-1.56808e-12 -5.83672e-13 -1.54771e-11)
(-1.54105e-12 -4.63308e-13 -1.25841e-11)
(-1.50363e-12 -3.72858e-13 -1.03224e-11)
(-1.46076e-12 -3.03763e-13 -8.53708e-12)
(-1.4156e-12 -2.50037e-13 -7.11369e-12)
(-1.38902e-12 -1.63722e-13 -5.98478e-12)
(-4.68693e-09 -9.99506e-13 -7.78508e-11)
(-4.66125e-09 -9.72691e-13 -6.11536e-11)
(-4.38316e-09 -1.16686e-12 -4.8747e-11)
(-4.13248e-09 -7.95159e-13 -3.95232e-11)
(-3.90711e-09 -5.45842e-13 -3.25607e-11)
(-3.70374e-09 -3.76931e-13 -2.72082e-11)
(-3.51953e-09 -2.60312e-13 -2.30279e-11)
(-3.35205e-09 -1.78783e-13 -1.97154e-11)
(-3.19946e-09 -1.7111e-13 -1.70545e-11)
(-3.11696e-09 -2.30872e-13 -1.5034e-11)
(5.02345e-07 -9.28132e-10 -5.56165e-08)
(3.1495e-08 5.27233e-12 -4.85223e-08)
(2.50438e-08 6.76958e-10 -4.24783e-08)
(2.08613e-08 6.1419e-10 -3.74529e-08)
(1.73325e-08 5.5474e-10 -3.32392e-08)
(1.43265e-08 5.02404e-10 -2.96782e-08)
(1.17445e-08 4.564e-10 -2.66458e-08)
(9.50933e-09 4.15331e-10 -2.40452e-08)
(7.28369e-09 2.27674e-10 -2.18014e-08)
(-8.57584e-08 -1.58267e-10 -2.02286e-08)
(2.59776e-13 3.66434e-13 -6.41433e-12)
(2.43621e-13 3.44628e-13 -6.34013e-12)
(2.138e-13 -5.18344e-14 -6.26632e-12)
(1.85083e-13 -5.44066e-14 -6.19335e-12)
(1.57488e-13 -5.38377e-14 -6.12166e-12)
(1.309e-13 -5.31654e-14 -6.05123e-12)
(1.05315e-13 -5.26351e-14 -5.98077e-12)
(8.07467e-14 -5.20274e-14 -5.91232e-12)
(5.69647e-14 -5.09663e-14 -5.84467e-12)
(3.45295e-14 -2.95847e-14 -5.77868e-12)
(5.20619e-13 3.19665e-13 -8.06991e-12)
(4.80185e-13 2.32532e-13 -7.77939e-12)
(4.11759e-13 -1.95688e-13 -7.498e-12)
(3.47812e-13 -1.91835e-13 -7.22983e-12)
(2.88165e-13 -1.85173e-13 -6.97375e-12)
(2.32521e-13 -1.78742e-13 -6.7282e-12)
(1.80616e-13 -1.72489e-13 -6.49351e-12)
(1.32135e-13 -1.66779e-13 -6.26842e-12)
(8.68258e-14 -1.59783e-13 -6.05295e-12)
(4.50625e-14 -9.08914e-14 -5.84929e-12)
(6.38667e-13 2.36298e-13 -1.0286e-11)
(5.68238e-13 5.76009e-14 -9.64364e-12)
(4.70568e-13 -3.97512e-13 -9.04485e-12)
(3.82868e-13 -3.76751e-13 -8.4906e-12)
(3.04737e-13 -3.54186e-13 -7.97796e-12)
(2.35003e-13 -3.33073e-13 -7.50259e-12)
(1.72714e-13 -3.13712e-13 -7.0622e-12)
(1.17039e-13 -2.958e-13 -6.65233e-12)
(6.74323e-14 -2.77175e-13 -6.2713e-12)
(2.35551e-14 -1.55355e-13 -5.92196e-12)
(8.29114e-13 9.57565e-14 -1.32946e-11)
(7.11759e-13 -2.10366e-13 -1.20851e-11)
(5.72115e-13 -6.79969e-13 -1.10018e-11)
(4.52136e-13 -6.24466e-13 -1.00318e-11)
(3.49988e-13 -5.70522e-13 -9.16582e-12)
(2.62686e-13 -5.22497e-13 -8.38971e-12)
(1.88085e-13 -4.79416e-13 -7.69297e-12)
(1.24347e-13 -4.40559e-13 -7.0661e-12)
(6.98427e-14 -4.02781e-13 -6.49954e-12)
(2.39423e-14 -2.22228e-13 -5.99488e-12)
(1.09309e-12 -1.35135e-13 -1.74518e-11)
(9.02435e-13 -6.18691e-13 -1.53268e-11)
(7.01825e-13 -1.07557e-12 -1.35019e-11)
(5.37544e-13 -9.55987e-13 -1.19304e-11)
(4.038e-13 -8.47686e-13 -1.05785e-11)
(2.94581e-13 -7.54432e-13 -9.40961e-12)
(2.05311e-13 -6.73488e-13 -8.395e-12)
(1.32287e-13 -6.03139e-13 -7.51132e-12)
(7.24593e-14 -5.38033e-13 -6.73837e-12)
(2.42646e-14 -2.92104e-13 -6.07004e-12)
(1.46496e-12 -5.08426e-13 -2.33073e-11)
(1.16024e-12 -1.23867e-12 -1.96925e-11)
(8.6954e-13 -1.63246e-12 -1.67326e-11)
(6.43626e-13 -1.40112e-12 -1.42868e-11)
(4.68178e-13 -1.203e-12 -1.22669e-11)
(3.31342e-13 -1.03873e-12 -1.05854e-11)
(2.24434e-13 -9.01216e-13 -9.17806e-12)
(1.40743e-13 -7.85655e-13 -7.99292e-12)
(7.52403e-14 -6.83272e-13 -6.9892e-12)
(2.45794e-14 -3.64646e-13 -6.14684e-12)
(2.00168e-12 -1.10653e-12 -3.17183e-11)
(1.51312e-12 -2.18157e-12 -2.56763e-11)
(1.08861e-12 -2.4231e-12 -2.09554e-11)
(7.76223e-13 -2.00098e-12 -1.72372e-11)
(5.45447e-13 -1.65991e-12 -1.42972e-11)
(3.73872e-13 -1.38781e-12 -1.19466e-11)
(2.45741e-13 -1.16844e-12 -1.0052e-11)
(1.49909e-13 -9.9039e-13 -8.51309e-12)
(7.80731e-14 -8.39413e-13 -7.25088e-12)
(2.49514e-14 -4.40521e-13 -6.22536e-12)
(2.80227e-12 -2.08027e-12 -4.41095e-11)
(1.93271e-12 -3.63225e-12 -3.40193e-11)
(1.31421e-12 -3.5524e-12 -2.65525e-11)
(8.8439e-13 -2.81378e-12 -2.09708e-11)
(5.83726e-13 -2.24839e-12 -1.67581e-11)
(3.71168e-13 -1.81675e-12 -1.35329e-11)
(2.19858e-13 -1.48227e-12 -1.10355e-11)
(1.11789e-13 -1.22047e-12 -9.0787e-12)
(3.42993e-14 -1.00719e-12 -7.5286e-12)
(-2.05465e-14 -5.19235e-13 -6.30804e-12)
(-1.19585e-10 -4.3204e-12 -8.69205e-11)
(-3.11804e-10 -6.44844e-12 -6.71889e-11)
(-2.55783e-10 -5.47934e-12 -5.28664e-11)
(-2.11199e-10 -4.18974e-12 -4.24145e-11)
(-1.76313e-10 -3.25194e-12 -3.46561e-11)
(-1.48645e-10 -2.56517e-12 -2.87719e-11)
(-1.26443e-10 -2.05191e-12 -2.42278e-11)
(-1.08436e-10 -1.66291e-12 -2.06609e-11)
(-9.3701e-11 -1.35706e-12 -1.78166e-11)
(-8.22577e-11 -7.61922e-13 -1.56666e-11)
(3.38117e-07 -1.74579e-09 -5.99345e-08)
(-7.20895e-09 -1.39393e-09 -5.19316e-08)
(-7.62899e-09 -6.36501e-10 -4.50542e-08)
(-7.0596e-09 -5.75863e-10 -3.94314e-08)
(-6.52961e-09 -5.24887e-10 -3.47829e-08)
(-6.05013e-09 -4.78998e-10 -3.08994e-08)
(-5.62096e-09 -4.37951e-10 -2.76241e-08)
(-5.23934e-09 -4.01345e-10 -2.48379e-08)
(-4.91942e-09 -3.70638e-10 -2.24506e-08)
(-6.49818e-09 -3.75579e-10 -2.07703e-08)
(2.30823e-13 3.70715e-13 -3.35537e-13)
(2.17751e-13 3.47068e-13 -3.29597e-13)
(1.9091e-13 -4.96504e-14 -3.23386e-13)
(1.65307e-13 -5.2245e-14 -3.17109e-13)
(1.40795e-13 -5.13674e-14 -3.11304e-13)
(1.17177e-13 -5.08987e-14 -3.05654e-13)
(9.47838e-14 -5.04322e-14 -2.99929e-13)
(7.31976e-14 -4.9649e-14 -2.94826e-13)
(5.25347e-14 -4.87986e-14 -2.89647e-13)
(3.31055e-14 -2.56562e-14 -2.84726e-13)
(5.02703e-13 3.35198e-13 -4.66353e-13)
(4.63984e-13 2.40163e-13 -4.4221e-13)
(3.9751e-13 -1.88332e-13 -4.18637e-13)
(3.35411e-13 -1.84315e-13 -3.96228e-13)
(2.77745e-13 -1.7777e-13 -3.75971e-13)
(2.24028e-13 -1.71319e-13 -3.56967e-13)
(1.7416e-13 -1.65136e-13 -3.38378e-13)
(1.27592e-13 -1.59446e-13 -3.21086e-13)
(8.41532e-14 -1.52616e-13 -3.05947e-13)
(4.44071e-14 -7.9448e-14 -2.90584e-13)
(6.21664e-13 2.67051e-13 -6.61583e-13)
(5.52369e-13 7.03505e-14 -6.02079e-13)
(4.56436e-13 -3.84892e-13 -5.49104e-13)
(3.70451e-13 -3.64239e-13 -5.00597e-13)
(2.9419e-13 -3.41315e-13 -4.57474e-13)
(2.26467e-13 -3.2034e-13 -4.18197e-13)
(1.66166e-13 -3.01134e-13 -3.83142e-13)
(1.12609e-13 -2.83561e-13 -3.51602e-13)
(6.47448e-14 -2.64902e-13 -3.22437e-13)
(2.28695e-14 -1.3575e-13 -2.97373e-13)
(8.15681e-13 1.4802e-13 -9.55719e-13)
(6.98076e-13 -1.94201e-13 -8.33798e-13)
(5.59055e-13 -6.62982e-13 -7.28971e-13)
(4.40279e-13 -6.07189e-13 -6.37774e-13)
(3.39679e-13 -5.52754e-13 -5.60093e-13)
(2.54243e-13 -5.04525e-13 -4.93238e-13)
(1.81592e-13 -4.61339e-13 -4.35643e-13)
(1.19833e-13 -4.23208e-13 -3.85908e-13)
(6.72643e-14 -3.85918e-13 -3.42023e-13)
(2.32617e-14 -1.95005e-13 -3.04233e-13)
(1.08897e-12 -5.33442e-14 -1.41234e-12)
(8.93779e-13 -6.03618e-13 -1.17416e-12)
(6.91637e-13 -1.05741e-12 -9.81196e-13)
(5.26975e-13 -9.359e-13 -8.21766e-13)
(3.94114e-13 -8.25722e-13 -6.91568e-13)
(2.86421e-13 -7.31714e-13 -5.85002e-13)
(1.9899e-13 -6.50734e-13 -4.97195e-13)
(1.27852e-13 -5.80831e-13 -4.24526e-13)
(7.00771e-14 -5.15919e-13 -3.63309e-13)
(2.37923e-14 -2.56509e-13 -3.12995e-13)
(1.48061e-12 -3.88522e-13 -2.13887e-12)
(1.16219e-12 -1.23668e-12 -1.68436e-12)
(8.64918e-13 -1.61969e-12 -1.33941e-12)
(6.35572e-13 -1.38221e-12 -1.06855e-12)
(4.59671e-13 -1.17889e-12 -8.60554e-13)
(3.23658e-13 -1.01211e-12 -6.97876e-13)
(2.18317e-13 -8.73665e-13 -5.70431e-13)
(1.3661e-13 -7.58319e-13 -4.6922e-13)
(7.29106e-14 -6.56303e-13 -3.86531e-13)
(2.42655e-14 -3.21588e-13 -3.22379e-13)
(2.05699e-12 -9.37635e-13 -3.32374e-12)
(1.53582e-12 -2.21738e-12 -2.46506e-12)
(1.0943e-12 -2.43033e-12 -1.85461e-12)
(7.73169e-13 -1.99094e-12 -1.40433e-12)
(5.39203e-13 -1.63721e-12 -1.07844e-12)
(3.67163e-13 -1.35927e-12 -8.36899e-13)
(2.40129e-13 -1.13691e-12 -6.5635e-13)
(1.45923e-13 -9.58658e-13 -5.19414e-13)
(7.58311e-14 -8.07723e-13 -4.12777e-13)
(2.47127e-14 -3.89296e-13 -3.33168e-13)
(3.01921e-12 -1.85366e-12 -5.32141e-12)
(2.06944e-12 -3.75722e-12 -3.68831e-12)
(1.40441e-12 -3.60649e-12 -2.61061e-12)
(9.49827e-13 -2.82633e-12 -1.86828e-12)
(6.36574e-13 -2.23446e-12 -1.36334e-12)
(4.18117e-13 -1.78926e-12 -1.00963e-12)
(2.64432e-13 -1.44837e-12 -7.58319e-13)
(1.55733e-13 -1.18499e-12 -5.76321e-13)
(7.85632e-14 -9.71044e-13 -4.42404e-13)
(2.45959e-14 -4.60486e-13 -3.44326e-13)
(2.34224e-10 -3.66666e-12 -9.73373e-12)
(-6.76173e-12 -6.46434e-12 -6.41582e-12)
(-5.91382e-12 -5.36528e-12 -4.36416e-12)
(-4.35148e-12 -4.00475e-12 -3.05561e-12)
(-3.28123e-12 -3.03437e-12 -2.21018e-12)
(-2.52575e-12 -2.33983e-12 -1.64663e-12)
(-1.98145e-12 -1.831e-12 -1.26178e-12)
(-1.58e-12 -1.45305e-12 -9.9281e-13)
(-1.27879e-12 -1.15916e-12 -7.99528e-13)
(-1.03874e-12 -5.45933e-13 -6.63162e-13)
(2.94084e-07 -8.42935e-10 -4.58666e-09)
(4.38764e-10 -7.63744e-10 -3.52957e-09)
(-3.54525e-10 -9.90783e-11 -2.65392e-09)
(-2.87479e-10 -7.37705e-11 -2.03036e-09)
(-2.33128e-10 -5.7946e-11 -1.57898e-09)
(-1.91336e-10 -4.6087e-11 -1.24587e-09)
(-1.58608e-10 -3.70821e-11 -9.95916e-10)
(-1.3276e-10 -3.01543e-11 -8.05525e-10)
(-1.12731e-10 -2.47319e-11 -6.58603e-10)
(-1.20756e-10 -2.08136e-11 -5.48636e-10)
(2.26852e-13 3.71135e-13 -1.45828e-14)
(2.14232e-13 3.47144e-13 -1.37328e-14)
(1.87861e-13 -4.9547e-14 -1.15953e-14)
(1.62625e-13 -5.20569e-14 -1.05725e-14)
(1.3857e-13 -5.13371e-14 -9.09217e-15)
(1.15527e-13 -5.07297e-14 -8.06602e-15)
(9.34053e-14 -5.00763e-14 -7.10535e-15)
(7.2239e-14 -4.93408e-14 -6.01693e-15)
(5.20522e-14 -4.82989e-14 -5.6075e-15)
(3.29937e-14 -2.52042e-14 -5.69119e-15)
(4.98065e-13 3.37348e-13 -2.19912e-14)
(4.60025e-13 2.41744e-13 -1.97158e-14)
(3.94181e-13 -1.86991e-13 -1.76316e-14)
(3.32715e-13 -1.82987e-13 -1.50404e-14)
(2.75575e-13 -1.76073e-13 -1.27099e-14)
(2.22368e-13 -1.70009e-13 -1.13587e-14)
(1.72949e-13 -1.64049e-13 -9.63864e-15)
(1.26853e-13 -1.57906e-13 -8.46834e-15)
(8.38056e-14 -1.51025e-13 -7.55642e-15)
(4.44267e-14 -7.78168e-14 -6.91172e-15)
(6.15478e-13 2.72278e-13 -3.54301e-14)
(5.4745e-13 7.40533e-14 -3.13335e-14)
(4.5241e-13 -3.81345e-13 -2.66594e-14)
(3.67292e-13 -3.60878e-13 -2.24457e-14)
(2.91773e-13 -3.38492e-13 -1.93592e-14)
(2.24642e-13 -3.17648e-13 -1.63661e-14)
(1.65036e-13 -2.98377e-13 -1.36936e-14)
(1.11961e-13 -2.81011e-13 -1.19087e-14)
(6.45692e-14 -2.62447e-13 -1.02923e-14)
(2.30361e-14 -1.32988e-13 -9.74912e-15)
(8.07533e-13 1.58809e-13 -5.83488e-14)
(6.9175e-13 -1.86744e-13 -5.08876e-14)
(5.54235e-13 -6.56838e-13 -4.24448e-14)
(4.36606e-13 -6.01576e-13 -3.49274e-14)
(3.36987e-13 -5.47568e-13 -2.90267e-14)
(2.52431e-13 -4.99877e-13 -2.45805e-14)
(1.80517e-13 -4.57224e-13 -2.04951e-14)
(1.19382e-13 -4.19232e-13 -1.722e-14)
(6.7349e-14 -3.82284e-13 -1.5085e-14)
(2.36869e-14 -1.91583e-13 -1.32593e-14)
(1.0782e-12 -3.3934e-14 -1.00651e-13)
(8.85824e-13 -5.91029e-13 -8.37081e-14)
(6.85808e-13 -1.04678e-12 -6.75183e-14)
(5.22836e-13 -9.26954e-13 -5.41253e-14)
(3.91321e-13 -8.18117e-13 -4.41936e-14)
(2.84633e-13 -7.24905e-13 -3.57828e-14)
(1.98075e-13 -6.44538e-13 -2.95719e-14)
(1.27672e-13 -5.75411e-13 -2.56285e-14)
(7.01431e-14 -5.11366e-13 -2.23651e-14)
(2.43585e-14 -2.52185e-13 -1.897e-14)
(1.46595e-12 -3.53465e-13 -1.75655e-13)
(1.15205e-12 -1.21612e-12 -1.38975e-13)
(8.57855e-13 -1.60349e-12 -1.08481e-13)
(6.30904e-13 -1.36886e-12 -8.45599e-14)
(4.56746e-13 -1.16783e-12 -6.68478e-14)
(3.2204e-13 -1.00283e-12 -5.36642e-14)
(2.17672e-13 -8.6565e-13 -4.35941e-14)
(1.36523e-13 -7.52087e-13 -3.6093e-14)
(7.3266e-14 -6.50989e-13 -2.94765e-14)
(2.4942e-14 -3.16096e-13 -2.54296e-14)
(2.03714e-12 -8.75692e-13 -3.09777e-13)
(1.52252e-12 -2.18508e-12 -2.33371e-13)
(1.08576e-12 -2.40563e-12 -1.72826e-13)
(7.67832e-13 -1.97179e-12 -1.30757e-13)
(5.36129e-13 -1.62221e-12 -9.97914e-14)
(3.65706e-13 -1.34707e-12 -7.78641e-14)
(2.39604e-13 -1.12721e-12 -6.16776e-14)
(1.46045e-13 -9.51073e-13 -4.97184e-14)
(7.66372e-14 -8.01591e-13 -4.06323e-14)
(2.55453e-14 -3.83447e-13 -3.3445e-14)
(2.99205e-12 -1.74462e-12 -5.58774e-13)
(2.04964e-12 -3.70777e-12 -3.90767e-13)
(1.39229e-12 -3.57025e-12 -2.76534e-13)
(9.429e-13 -2.79993e-12 -1.98748e-13)
(6.33095e-13 -2.21428e-12 -1.4681e-13)
(4.16807e-13 -1.77423e-12 -1.10843e-13)
(2.64425e-13 -1.437e-12 -8.49879e-14)
(1.56602e-13 -1.17598e-12 -6.67205e-14)
(7.99792e-14 -9.64477e-13 -5.36447e-14)
(2.63547e-14 -4.54207e-13 -4.32232e-14)
(2.56189e-10 -3.44775e-12 -1.05912e-12)
(3.95761e-12 -6.36754e-12 -6.36348e-13)
(1.63819e-12 -5.28692e-12 -4.24666e-13)
(1.05891e-12 -3.94672e-12 -2.95015e-13)
(6.81454e-13 -2.99032e-12 -2.1103e-13)
(4.29265e-13 -2.30569e-12 -1.55651e-13)
(2.59648e-13 -1.80387e-12 -1.17565e-13)
(1.44783e-13 -1.4309e-12 -9.11545e-14)
(6.66209e-14 -1.14055e-12 -7.20663e-14)
(1.46761e-14 -5.28518e-13 -5.8571e-14)
(2.90451e-07 -7.19788e-10 -3.97044e-10)
(8.82754e-10 -6.72884e-10 -1.25062e-10)
(-7.78118e-12 -1.56595e-11 -8.0283e-11)
(-6.82035e-12 -8.30697e-12 -5.3194e-11)
(-4.87078e-12 -5.9071e-12 -3.6236e-11)
(-3.5625e-12 -4.30344e-12 -2.5261e-11)
(-2.65469e-12 -3.19636e-12 -1.79863e-11)
(-2.01339e-12 -2.41734e-12 -1.30456e-11)
(-1.56234e-12 -1.84797e-12 -9.62167e-12)
(-1.4506e-12 -9.99673e-13 -7.1429e-12)
(2.27154e-13 3.71026e-13 -1.10898e-14)
(2.14439e-13 3.46546e-13 -9.9995e-15)
(1.88129e-13 -5.02448e-14 -7.54828e-15)
(1.62817e-13 -5.25918e-14 -5.5845e-15)
(1.38702e-13 -5.17276e-14 -4.24425e-15)
(1.15544e-13 -5.10634e-14 -3.02676e-15)
(9.35391e-14 -5.06352e-14 -2.35696e-15)
(7.24223e-14 -4.96431e-14 -1.40448e-15)
(5.2152e-14 -4.83347e-14 -4.83722e-16)
(3.30694e-14 -2.54058e-14 -3.04165e-16)
(4.98917e-13 3.37033e-13 -1.61338e-14)
(4.60771e-13 2.41147e-13 -1.43458e-14)
(3.94858e-13 -1.87596e-13 -1.10529e-14)
(3.33174e-13 -1.83813e-13 -9.28819e-15)
(2.76034e-13 -1.76903e-13 -6.33584e-15)
(2.22747e-13 -1.70334e-13 -4.72478e-15)
(1.73295e-13 -1.64202e-13 -3.96797e-15)
(1.27228e-13 -1.58312e-13 -3.43409e-15)
(8.41469e-14 -1.51362e-13 -2.44806e-15)
(4.47993e-14 -7.78603e-14 -1.32503e-15)
(6.17021e-13 2.71892e-13 -2.63483e-14)
(5.48865e-13 7.3116e-14 -2.34108e-14)
(4.53595e-13 -3.82696e-13 -1.90168e-14)
(3.68257e-13 -3.61942e-13 -1.48328e-14)
(2.92651e-13 -3.39018e-13 -1.21275e-14)
(2.25475e-13 -3.1829e-13 -9.68907e-15)
(1.65685e-13 -2.98993e-13 -7.84003e-15)
(1.12551e-13 -2.81346e-13 -6.49586e-15)
(6.51324e-14 -2.6251e-13 -5.87724e-15)
(2.36094e-14 -1.33166e-13 -5.16859e-15)
(8.10268e-13 1.5808e-13 -4.51777e-14)
(6.94212e-13 -1.88266e-13 -3.9452e-14)
(5.56243e-13 -6.58565e-13 -3.26397e-14)
(4.38317e-13 -6.03198e-13 -2.65686e-14)
(3.38451e-13 -5.48788e-13 -2.16465e-14)
(2.53621e-13 -5.00873e-13 -1.79325e-14)
(1.81571e-13 -4.58099e-13 -1.52173e-14)
(1.20384e-13 -4.19953e-13 -1.28975e-14)
(6.82917e-14 -3.82746e-13 -1.12524e-14)
(2.44376e-14 -1.91428e-13 -1.04691e-14)
(1.0829e-12 -3.51948e-14 -7.9062e-14)
(8.89793e-13 -5.94016e-13 -6.84569e-14)
(6.89076e-13 -1.05023e-12 -5.55317e-14)
(5.25515e-13 -9.29593e-13 -4.49053e-14)
(3.93551e-13 -8.20178e-13 -3.74381e-14)
(2.86527e-13 -7.26844e-13 -3.10181e-14)
(1.99674e-13 -6.45853e-13 -2.5587e-14)
(1.29018e-13 -5.76203e-13 -2.20528e-14)
(7.14121e-14 -5.12218e-13 -1.92438e-14)
(2.54127e-14 -2.52757e-13 -1.6749e-14)
(1.47382e-12 -3.56638e-13 -1.3959e-13)
(1.15856e-12 -1.22195e-12 -1.16477e-13)
(8.62956e-13 -1.60894e-12 -9.29983e-14)
(6.35062e-13 -1.3736e-12 -7.45279e-14)
(4.60021e-13 -1.1715e-12 -6.03865e-14)
(3.24782e-13 -1.00585e-12 -5.01862e-14)
(2.19893e-13 -8.68238e-13 -4.08051e-14)
(1.3837e-13 -7.5394e-13 -3.43453e-14)
(7.47768e-14 -6.52519e-13 -2.98073e-14)
(2.62329e-14 -3.16977e-13 -2.54803e-14)
(2.05035e-12 -8.81661e-13 -2.47599e-13)
(1.53303e-12 -2.19654e-12 -1.99256e-13)
(1.09362e-12 -2.41612e-12 -1.54083e-13)
(7.73876e-13 -1.97998e-12 -1.1977e-13)
(5.40855e-13 -1.62871e-12 -9.53956e-14)
(3.69355e-13 -1.35236e-12 -7.64694e-14)
(2.42554e-13 -1.13137e-12 -6.18346e-14)
(1.4845e-13 -9.54223e-13 -5.11061e-14)
(7.85195e-14 -8.04359e-13 -4.29396e-14)
(2.71794e-14 -3.85e-13 -3.61114e-14)
(3.01723e-12 -1.75693e-12 -4.42206e-13)
(2.06611e-12 -3.73026e-12 -3.3815e-13)
(1.40425e-12 -3.58903e-12 -2.50337e-13)
(9.51821e-13 -2.81428e-12 -1.89089e-13)
(6.39744e-13 -2.22548e-12 -1.45485e-13)
(4.21836e-13 -1.78287e-12 -1.13572e-13)
(2.68313e-13 -1.44374e-12 -9.01643e-14)
(1.59586e-13 -1.1814e-12 -7.2407e-14)
(8.22533e-14 -9.68609e-13 -5.90626e-14)
(2.81669e-14 -4.56658e-13 -4.96525e-14)
(2.6668e-10 -3.48508e-12 -8.84863e-13)
(4.34744e-12 -6.41998e-12 -5.72618e-13)
(1.82072e-12 -5.32088e-12 -4.04295e-13)
(1.17361e-12 -3.97165e-12 -2.93633e-13)
(7.55278e-13 -3.00906e-12 -2.17572e-13)
(4.78447e-13 -2.31977e-12 -1.64601e-13)
(2.93165e-13 -1.81454e-12 -1.2608e-13)
(1.6815e-13 -1.43919e-12 -9.92043e-14)
(8.3079e-14 -1.14707e-12 -7.86221e-14)
(2.62157e-14 -5.3201e-13 -6.36019e-14)
(3.09197e-07 -7.50869e-10 -3.24134e-10)
(9.82096e-10 -6.93044e-10 -6.32536e-12)
(3.44722e-12 -1.1971e-11 -2.38418e-12)
(9.95972e-13 -5.66309e-12 -1.441e-12)
(6.66454e-13 -4.07945e-12 -9.05179e-13)
(4.50832e-13 -3.01332e-12 -5.93181e-13)
(3.03897e-13 -2.26933e-12 -4.01939e-13)
(2.0294e-13 -1.74035e-12 -2.80356e-13)
(1.32761e-13 -1.34634e-12 -1.9965e-13)
(8.28332e-14 -6.16156e-13 -1.4512e-13)
(2.27685e-13 3.70693e-13 -1.38092e-14)
(2.14908e-13 3.45753e-13 -1.16947e-14)
(1.88408e-13 -5.12778e-14 -9.58361e-15)
(1.63149e-13 -5.33494e-14 -6.74158e-15)
(1.38855e-13 -5.23351e-14 -5.1312e-15)
(1.15735e-13 -5.14604e-14 -3.02676e-15)
(9.36084e-14 -5.07037e-14 -2.06034e-15)
(7.25205e-14 -5.00718e-14 -1.3922e-15)
(5.23342e-14 -4.87224e-14 -6.64965e-16)
(3.31458e-14 -2.52531e-14 -7.7324e-16)
(5.00245e-13 3.36609e-13 -2.01929e-14)
(4.61951e-13 2.39817e-13 -1.79345e-14)
(3.95772e-13 -1.88872e-13 -1.31885e-14)
(3.34009e-13 -1.84758e-13 -1.05771e-14)
(2.76683e-13 -1.77795e-13 -8.1937e-15)
(2.23298e-13 -1.70882e-13 -5.8662e-15)
(1.73722e-13 -1.64503e-13 -4.25613e-15)
(1.27588e-13 -1.58458e-13 -3.33835e-15)
(8.461e-14 -1.51826e-13 -3.02059e-15)
(4.51663e-14 -7.82332e-14 -2.46515e-15)
(6.19403e-13 2.71047e-13 -3.24467e-14)
(5.50894e-13 7.13803e-14 -2.86908e-14)
(4.55382e-13 -3.84457e-13 -2.30017e-14)
(3.69696e-13 -3.63403e-13 -1.87395e-14)
(2.93914e-13 -3.4037e-13 -1.45276e-14)
(2.26511e-13 -3.19213e-13 -1.13994e-14)
(1.66655e-13 -2.99553e-13 -9.31362e-15)
(1.13353e-13 -2.81738e-13 -8.30055e-15)
(6.58887e-14 -2.62945e-13 -7.24242e-15)
(2.44309e-14 -1.33539e-13 -6.38646e-15)
(8.14348e-13 1.56345e-13 -5.62007e-14)
(6.97665e-13 -1.9116e-13 -4.83537e-14)
(5.59119e-13 -6.61396e-13 -3.96389e-14)
(4.40711e-13 -6.0553e-13 -3.23476e-14)
(3.40493e-13 -5.50715e-13 -2.62067e-14)
(2.55434e-13 -5.02241e-13 -2.13307e-14)
(1.83076e-13 -4.59129e-13 -1.83078e-14)
(1.21674e-13 -4.20783e-13 -1.59875e-14)
(6.9356e-14 -3.83269e-13 -1.43132e-14)
(2.54538e-14 -1.9184e-13 -1.25381e-14)
(1.08973e-12 -3.8548e-14 -9.80796e-14)
(8.95543e-13 -5.99077e-13 -8.35905e-14)
(6.93645e-13 -1.05494e-12 -6.80629e-14)
(5.29246e-13 -9.33429e-13 -5.5653e-14)
(3.96637e-13 -8.23256e-13 -4.60496e-14)
(2.89173e-13 -7.29433e-13 -3.85696e-14)
(2.01753e-13 -6.4805e-13 -3.18563e-14)
(1.30816e-13 -5.77977e-13 -2.71488e-14)
(7.29135e-14 -5.13536e-13 -2.30911e-14)
(2.66473e-14 -2.53424e-13 -2.07135e-14)
(1.4853e-12 -3.63108e-13 -1.7204e-13)
(1.16781e-12 -1.23147e-12 -1.43787e-13)
(8.70179e-13 -1.61763e-12 -1.14176e-13)
(6.40617e-13 -1.3803e-12 -9.13682e-14)
(4.64522e-13 -1.17675e-12 -7.44374e-14)
(3.28338e-13 -1.01032e-12 -6.16923e-14)
(2.22826e-13 -8.71891e-13 -5.0603e-14)
(1.40757e-13 -7.56631e-13 -4.23997e-14)
(7.68029e-14 -6.54828e-13 -3.63366e-14)
(2.78927e-14 -3.18272e-13 -3.15467e-14)
(2.06966e-12 -8.95098e-13 -3.04581e-13)
(1.54781e-12 -2.21426e-12 -2.43844e-13)
(1.1047e-12 -2.43151e-12 -1.89239e-13)
(7.82258e-13 -1.99192e-12 -1.47935e-13)
(5.4732e-13 -1.63795e-12 -1.18104e-13)
(3.74348e-13 -1.35984e-12 -9.47937e-14)
(2.46557e-13 -1.13734e-12 -7.71865e-14)
(1.51556e-13 -9.58936e-13 -6.27479e-14)
(8.09905e-14 -8.08137e-13 -5.2837e-14)
(2.92252e-14 -3.87172e-13 -4.46797e-14)
(3.05468e-12 -1.78379e-12 -5.42239e-13)
(2.08997e-12 -3.76434e-12 -4.15081e-13)
(1.42112e-12 -3.61671e-12 -3.09004e-13)
(9.64102e-13 -2.83492e-12 -2.33921e-13)
(6.48765e-13 -2.24112e-12 -1.80434e-13)
(4.28624e-13 -1.79511e-12 -1.41546e-13)
(2.73389e-13 -1.45345e-12 -1.12592e-13)
(1.63523e-13 -1.18897e-12 -8.94597e-14)
(8.52685e-14 -9.74476e-13 -7.28186e-14)
(3.05377e-14 -4.59886e-13 -6.07779e-14)
(2.82793e-10 -3.54609e-12 -9.9123e-13)
(4.50261e-12 -6.49749e-12 -7.04946e-13)
(1.85102e-12 -5.37062e-12 -5.01669e-13)
(1.19354e-12 -4.00718e-12 -3.6424e-13)
(7.6901e-13 -3.03516e-12 -2.70938e-13)
(4.88143e-13 -2.33957e-12 -2.05016e-13)
(3.00199e-13 -1.82954e-12 -1.57577e-13)
(1.73301e-13 -1.45057e-12 -1.22915e-13)
(8.68699e-14 -1.15605e-12 -9.77515e-14)
(2.90579e-14 -5.37094e-13 -7.90823e-14)
(3.37301e-07 -7.96812e-10 -2.99699e-10)
(1.06788e-09 -7.34573e-10 -2.0165e-12)
(4.07281e-12 -1.2228e-11 -8.46263e-13)
(1.1737e-12 -5.65814e-12 -5.79814e-13)
(7.78273e-13 -4.08194e-12 -4.09491e-13)
(5.22157e-13 -3.01905e-12 -2.97331e-13)
(3.5108e-13 -2.27609e-12 -2.20924e-13)
(2.3485e-13 -1.74707e-12 -1.66391e-13)
(1.54899e-13 -1.35236e-12 -1.27879e-13)
(1.00105e-13 -6.18684e-13 -1.00721e-13)
(2.28353e-13 3.70161e-13 -1.61536e-14)
(2.15559e-13 3.44865e-13 -1.41529e-14)
(1.88798e-13 -5.22082e-14 -1.08294e-14)
(1.63488e-13 -5.43604e-14 -8.43566e-15)
(1.39217e-13 -5.32036e-14 -6.1802e-15)
(1.16002e-13 -5.22838e-14 -4.20267e-15)
(9.3877e-14 -5.1285e-14 -2.49727e-15)
(7.27292e-14 -5.02041e-14 -2.30193e-15)
(5.25491e-14 -4.86134e-14 -5.43851e-15)
(3.3369e-14 -2.5352e-14 -1.53781e-14)
(5.01844e-13 3.35995e-13 -2.41298e-14)
(4.63392e-13 2.38414e-13 -2.05224e-14)
(3.96938e-13 -1.90458e-13 -1.64061e-14)
(3.35004e-13 -1.85774e-13 -1.27857e-14)
(2.77493e-13 -1.78774e-13 -1.02208e-14)
(2.24034e-13 -1.71901e-13 -7.46343e-15)
(1.74405e-13 -1.65222e-13 -5.91248e-15)
(1.2828e-13 -1.58822e-13 -4.67369e-15)
(8.51643e-14 -1.51759e-13 -5.10342e-15)
(4.56878e-14 -7.84389e-14 -1.27348e-14)
(6.22296e-13 2.7004e-13 -3.87693e-14)
(5.53316e-13 6.94613e-14 -3.3175e-14)
(4.57469e-13 -3.86498e-13 -2.66015e-14)
(3.7148e-13 -3.65239e-13 -2.17114e-14)
(2.95323e-13 -3.41888e-13 -1.7267e-14)
(2.27793e-13 -3.20388e-13 -1.42757e-14)
(1.67799e-13 -3.00284e-13 -1.16867e-14)
(1.14473e-13 -2.82262e-13 -1.05523e-14)
(6.68669e-14 -2.63409e-13 -1.06976e-14)
(2.51707e-14 -1.3398e-13 -1.39994e-14)
(8.19343e-13 1.54209e-13 -6.60633e-14)
(7.01865e-13 -1.94555e-13 -5.62621e-14)
(5.62596e-13 -6.64621e-13 -4.60174e-14)
(4.43586e-13 -6.08368e-13 -3.75911e-14)
(3.43015e-13 -5.53133e-13 -3.12298e-14)
(2.57608e-13 -5.04109e-13 -2.64067e-14)
(1.84926e-13 -4.60402e-13 -2.26849e-14)
(1.23221e-13 -4.21743e-13 -1.96875e-14)
(7.07094e-14 -3.84368e-13 -1.82236e-14)
(2.66419e-14 -1.92583e-13 -1.88766e-14)
(1.09808e-12 -4.26065e-14 -1.15881e-13)
(9.02473e-13 -6.05141e-13 -9.7125e-14)
(6.99192e-13 -1.0606e-12 -7.86376e-14)
(5.33711e-13 -9.38023e-13 -6.45186e-14)
(4.0038e-13 -8.26939e-13 -5.377e-14)
(2.92359e-13 -7.3266e-13 -4.57126e-14)
(2.04435e-13 -6.50715e-13 -3.90049e-14)
(1.32969e-13 -5.80095e-13 -3.36176e-14)
(7.47463e-14 -5.15212e-13 -2.92755e-14)
(2.83299e-14 -2.54589e-13 -2.8513e-14)
(1.49936e-12 -3.71215e-13 -2.04671e-13)
(1.17889e-12 -1.24269e-12 -1.66792e-13)
(8.78786e-13 -1.62787e-12 -1.3297e-13)
(6.47488e-13 -1.38855e-12 -1.07501e-13)
(4.69979e-13 -1.18317e-12 -8.78027e-14)
(3.32769e-13 -1.01562e-12 -7.3793e-14)
(2.26474e-13 -8.76424e-13 -6.1269e-14)
(1.43646e-13 -7.60304e-13 -5.18023e-14)
(7.92596e-14 -6.57618e-13 -4.50011e-14)
(2.99013e-14 -3.20104e-13 -4.0561e-14)
(2.09332e-12 -9.1155e-13 -3.61342e-13)
(1.56561e-12 -2.23575e-12 -2.83186e-13)
(1.11802e-12 -2.44957e-12 -2.20306e-13)
(7.92457e-13 -2.00606e-12 -1.73878e-13)
(5.55146e-13 -1.64914e-12 -1.38915e-13)
(3.80485e-13 -1.36888e-12 -1.13332e-13)
(2.51428e-13 -1.14487e-12 -9.24545e-14)
(1.55355e-13 -9.64926e-13 -7.61917e-14)
(8.39931e-14 -8.12782e-13 -6.45069e-14)
(3.16458e-14 -3.90107e-13 -5.62084e-14)
(3.09134e-12 -1.81678e-12 -6.426e-13)
(2.1185e-12 -3.80503e-12 -4.81316e-13)
(1.44169e-12 -3.64948e-12 -3.60605e-13)
(9.79022e-13 -2.85972e-12 -2.74541e-13)
(6.59797e-13 -2.26001e-12 -2.12606e-13)
(4.36896e-13 -1.80975e-12 -1.6845e-13)
(2.79691e-13 -1.46546e-12 -1.35225e-13)
(1.68334e-13 -1.19863e-12 -1.07705e-13)
(8.89577e-14 -9.81833e-13 -8.86081e-14)
(3.34128e-14 -4.64233e-13 -7.45304e-14)
(2.91249e-10 -3.53928e-12 -6.18265e-13)
(4.50443e-12 -6.56514e-12 -8.12267e-13)
(1.88165e-12 -5.42927e-12 -5.88198e-13)
(1.21525e-12 -4.05001e-12 -4.28787e-13)
(7.84405e-13 -3.06688e-12 -3.21038e-13)
(4.99224e-13 -2.36354e-12 -2.44817e-13)
(3.08249e-13 -1.84829e-12 -1.90576e-13)
(1.79209e-13 -1.46485e-12 -1.47e-13)
(9.12566e-14 -1.1671e-12 -1.18351e-13)
(3.23005e-14 -5.4358e-13 -9.68824e-14)
(3.60851e-07 -6.89041e-10 7.42019e-10)
(1.08755e-09 -7.5534e-10 7.68675e-12)
(3.76466e-12 -1.22093e-11 -9.02313e-13)
(1.19585e-12 -5.72687e-12 -6.60373e-13)
(7.94084e-13 -4.13247e-12 -4.74006e-13)
(5.33288e-13 -3.05605e-12 -3.48053e-13)
(3.59115e-13 -2.30411e-12 -2.61331e-13)
(2.40838e-13 -1.7682e-12 -1.97094e-13)
(1.59221e-13 -1.36829e-12 -1.5254e-13)
(1.03418e-13 -6.27646e-13 -1.21645e-13)
(2.28989e-13 3.69887e-13 -1.57775e-14)
(2.15662e-13 3.43702e-13 -7.97891e-15)
(1.89098e-13 -5.34908e-14 -6.33603e-15)
(1.6378e-13 -5.51705e-14 -6.3931e-15)
(1.39603e-13 -5.40388e-14 -9.40885e-15)
(1.16567e-13 -5.30115e-14 -1.5636e-14)
(9.46481e-14 -5.16496e-14 -2.66011e-14)
(7.4212e-14 -4.9591e-14 -8.82675e-14)
(5.54863e-14 -4.62739e-14 -3.48786e-13)
(3.60821e-14 -3.52239e-14 -1.09041e-12)
(5.03417e-13 3.35182e-13 -2.1722e-14)
(4.64116e-13 2.37159e-13 -8.95225e-15)
(3.97774e-13 -1.9166e-13 -8.89016e-15)
(3.35803e-13 -1.87037e-13 -8.45838e-15)
(2.78368e-13 -1.79882e-13 -1.09385e-14)
(2.2507e-13 -1.72795e-13 -1.69787e-14)
(1.75542e-13 -1.66093e-13 -2.58776e-14)
(1.29721e-13 -1.60166e-13 -6.20958e-14)
(8.72878e-14 -1.53514e-13 -2.08212e-13)
(4.71129e-14 -9.55639e-14 -7.08264e-13)
(6.25015e-13 2.68814e-13 -3.56225e-14)
(5.55008e-13 6.7564e-14 -1.67779e-14)
(4.58983e-13 -3.88207e-13 -1.44518e-14)
(3.72934e-13 -3.66609e-13 -1.42844e-14)
(2.96886e-13 -3.43131e-13 -1.56032e-14)
(2.29492e-13 -3.21687e-13 -2.1727e-14)
(1.69564e-13 -3.01824e-13 -3.16025e-14)
(1.16244e-13 -2.83837e-13 -5.21961e-14)
(6.9085e-14 -2.6685e-13 -1.40551e-13)
(2.67645e-14 -1.52638e-13 -4.63132e-13)
(8.24119e-13 1.52437e-13 -6.14876e-14)
(7.04905e-13 -1.9694e-13 -3.25095e-14)
(5.65322e-13 -6.67076e-13 -2.79014e-14)
(4.46163e-13 -6.10318e-13 -2.65245e-14)