/*--------------------------------*- C++ -*----------------------------------*\
| =========                 |                                                 |
| \\      /  F ield         | OpenFOAM: The Open Source CFD Toolbox           |
|  \\    /   O peration     | Version:  4.1                                   |
|   \\  /    A nd           | Web:      www.OpenFOAM.org                      |
|    \\/     M anipulation  |                                                 |
\*---------------------------------------------------------------------------*/
FoamFile
{
    version     2.0;
    format      ascii;
    class       volScalarField;
    location    "4.28";
    object      Ma;
}
// * * * * * * * * * * * * * * * * * * * * * * * * * * * * * * * * * * * * * //

dimensions      [0 0 0 0 0 0 0];

internalField   nonuniform List<scalar> 
52500
(
3.00002
2.99997
2.99991
2.99968
2.99936
2.99806
2.99618
2.98902
2.97701
2.93824
2.84952
2.64529
2.10213
1.26576
0.52752
0.277758
0.329025
0.344384
0.3121
0.257476
0.20501
0.163071
0.121971
0.0766162
0.0434798
3.00002
2.99997
2.99992
2.99969
2.99937
2.99808
2.99623
2.98917
2.97733
2.93909
2.85166
2.64999
2.11315
1.28009
0.534975
0.277923
0.330546
0.346702
0.314681
0.260896
0.209784
0.169359
0.130471
0.0902415
0.0662176
3.00002
2.99997
2.99992
2.9997
2.99939
2.99813
2.99634
2.98944
2.97799
2.94068
2.85614
2.65942
2.13863
1.31302
0.553516
0.281603
0.336448
0.354357
0.323166
0.27148
0.223329
0.186368
0.152366
0.120428
0.104405
3.00002
2.99997
2.99992
2.99971
2.99942
2.99821
2.99649
2.98987
2.97897
2.94313
2.8629
2.67378
2.17778
1.36491
0.581959
0.288178
0.34623
0.367014
0.337282
0.288597
0.244243
0.21156
0.183067
0.158109
0.146537
3.00002
2.99998
2.99993
2.99973
2.99944
2.99829
2.99666
2.99021
2.98018
2.94557
2.8732
2.69298
2.23352
1.43898
0.622305
0.301616
0.361794
0.385656
0.357334
0.312143
0.271535
0.243069
0.219487
0.199946
0.191464
3.00002
2.99998
2.99993
2.99974
2.99948
2.9984
2.99687
2.99078
2.98161
2.94875
2.88529
2.71602
2.30047
1.53375
0.674242
0.325561
0.385289
0.411054
0.384013
0.342029
0.305301
0.280777
0.261988
0.247425
0.241863
3.00002
2.99998
2.99994
2.99977
2.99952
2.99854
2.99714
2.99158
2.98321
2.95307
2.89698
2.74057
2.37257
1.64521
0.736988
0.364379
0.420133
0.444318
0.418348
0.379589
0.346051
0.325418
0.311143
0.302073
0.301833
3.00002
2.99999
2.99995
2.99979
2.99957
2.99867
2.99741
2.99235
2.98477
2.95725
2.90681
2.7633
2.42863
1.73655
0.792353
0.399551
0.448988
0.470485
0.45088
0.419868
0.391782
0.376337
0.368536
0.367417
0.377187
3.00002
2.99999
2.99996
2.99982
2.99962
2.99882
2.99769
2.99315
2.98641
2.96177
2.91616
2.78917
2.47643
1.84652
0.873314
0.457343
0.472902
0.485725
0.479864
0.459253
0.440183
0.432089
0.433111
0.446198
0.480813
3.00002
3
2.99997
2.99985
2.99969
2.99904
2.99806
2.99455
2.98826
2.96904
2.92402
2.81781
2.51934
1.96118
0.985415
0.529647
0.489883
0.502696
0.507496
0.497167
0.489564
0.49148
0.50851
0.551311
0.652722
3
2.99995
2.9999
2.99967
2.99934
2.99804
2.99616
2.989
2.97699
2.9382
2.84949
2.64522
2.10206
1.26563
0.527386
0.277556
0.328841
0.344201
0.311895
0.257225
0.204689
0.162661
0.121414
0.0757112
0.041839
3
2.99995
2.9999
2.99967
2.99935
2.99806
2.99621
2.98915
2.97731
2.93905
2.85162
2.64992
2.11308
1.27995
0.534843
0.277721
0.330361
0.34652
0.314478
0.26065
0.209473
0.168968
0.129956
0.0894845
0.0651681
3
2.99996
2.9999
2.99968
2.99937
2.99811
2.99632
2.98942
2.97797
2.94064
2.85611
2.65936
2.13855
1.31289
0.553388
0.281403
0.336267
0.354178
0.322969
0.271244
0.22304
0.186016
0.15193
0.11987
0.103753
3
2.99996
2.99991
2.99969
2.9994
2.99819
2.99647
2.98984
2.97895
2.94309
2.86286
2.67372
2.17771
1.36478
0.581835
0.287979
0.346051
0.36684
0.337092
0.288375
0.243979
0.211253
0.18271
0.157691
0.146081
3
2.99996
2.99991
2.99971
2.99942
2.99827
2.99664
2.99018
2.98015
2.94553
2.87318
2.69292
2.23349
1.43887
0.622209
0.301442
0.361635
0.3855
0.357163
0.311944
0.271303
0.242806
0.219193
0.199621
0.191122
3
2.99996
2.99992
2.99973
2.99946
2.99838
2.99685
2.99076
2.98158
2.94872
2.88526
2.71596
2.30042
1.53364
0.674147
0.325395
0.385141
0.410912
0.383859
0.341853
0.305101
0.280555
0.261748
0.247169
0.241598
3
2.99997
2.99992
2.99975
2.99951
2.99852
2.99712
2.99156
2.98319
2.95305
2.89695
2.74051
2.37251
1.64509
0.736893
0.36422
0.419992
0.444186
0.418207
0.379433
0.345877
0.325232
0.310945
0.301868
0.301626
3
2.99997
2.99993
2.99977
2.99955
2.99865
2.99739
2.99233
2.98475
2.95722
2.90678
2.76325
2.42859
1.73646
0.792275
0.399412
0.448866
0.470366
0.450754
0.419731
0.391633
0.37618
0.368375
0.367255
0.377028
3
2.99997
2.99994
2.9998
2.9996
2.9988
2.99767
2.99313
2.98638
2.96174
2.91614
2.78912
2.47641
1.84642
0.873235
0.457213
0.472792
0.485616
0.47975
0.459133
0.440055
0.431958
0.43298
0.44607
0.480696
3
2.99998
2.99995
2.99983
2.99967
2.99902
2.99804
2.99452
2.98823
2.96901
2.924
2.81776
2.51931
1.96111
0.985338
0.529528
0.489778
0.502594
0.507393
0.49706
0.489454
0.49137
0.508404
0.551214
0.652643
3
2.99995
2.9999
2.99967
2.99934
2.99804
2.99616
2.989
2.97699
2.9382
2.84949
2.64521
2.10205
1.26563
0.527385
0.277557
0.328841
0.344201
0.311895
0.257226
0.20469
0.162661
0.121414
0.0757113
0.0418391
3
2.99995
2.9999
2.99967
2.99935
2.99806
2.99621
2.98915
2.97731
2.93905
2.85162
2.64992
2.11308
1.27995
0.534841
0.277722
0.330362
0.34652
0.314479
0.26065
0.209473
0.168968
0.129956
0.0894846
0.0651682
3
2.99996
2.9999
2.99968
2.99937
2.99811
2.99632
2.98942
2.97797
2.94064
2.85611
2.65936
2.13855
1.31289
0.553387
0.281404
0.336267
0.354178
0.322969
0.271244
0.22304
0.186016
0.151931
0.11987
0.103753
3
2.99996
2.99991
2.99969
2.9994
2.99819
2.99647
2.98984
2.97895
2.94309
2.86286
2.67372
2.17771
1.36477
0.581833
0.28798
0.346051
0.36684
0.337092
0.288375
0.243979
0.211253
0.18271
0.157691
0.146081
3
2.99996
2.99991
2.99971
2.99942
2.99827
2.99664
2.99018
2.98015
2.94553
2.87318
2.69292
2.23349
1.43887
0.622207
0.301443
0.361635
0.3855
0.357163
0.311944
0.271303
0.242806
0.219193
0.199621
0.191123
3
2.99996
2.99992
2.99973
2.99946
2.99838
2.99685
2.99076
2.98158
2.94872
2.88526
2.71596
2.30042
1.53363
0.674145
0.325395
0.385141
0.410911
0.383859
0.341853
0.3051
0.280555
0.261748
0.247169
0.241598
3
2.99997
2.99992
2.99975
2.99951
2.99852
2.99712
2.99156
2.98319
2.95304
2.89695
2.74051
2.3725
1.64509
0.73689
0.364219
0.419991
0.444185
0.418206
0.379432
0.345877
0.325232
0.310945
0.301868
0.301627
3
2.99997
2.99993
2.99977
2.99955
2.99865
2.99739
2.99232
2.98475
2.95722
2.90678
2.76324
2.42859
1.73645
0.792274
0.399412
0.448866
0.470366
0.450754
0.41973
0.391632
0.37618
0.368375
0.367255
0.377028
3
2.99997
2.99994
2.9998
2.9996
2.9988
2.99767
2.99313
2.98638
2.96174
2.91614
2.78912
2.47641
1.84642
0.873232
0.457213
0.472792
0.485616
0.47975
0.459132
0.440055
0.431957
0.43298
0.44607
0.480696
3
2.99998
2.99995
2.99983
2.99967
2.99901
2.99804
2.99452
2.98823
2.96901
2.924
2.81776
2.51931
1.9611
0.985335
0.529527
0.489779
0.502594
0.507394
0.49706
0.489454
0.49137
0.508404
0.551214
0.652643
3
2.99995
2.9999
2.99967
2.99934
2.99804
2.99616
2.989
2.97699
2.9382
2.84949
2.64521
2.10205
1.26563
0.527385
0.277558
0.328842
0.344201
0.311896
0.257226
0.20469
0.162661
0.121414
0.0757113
0.0418391
3
2.99995
2.9999
2.99967
2.99935
2.99806
2.99621
2.98915
2.97731
2.93905
2.85162
2.64992
2.11308
1.27995
0.534841
0.277722
0.330362
0.34652
0.314479
0.26065
0.209473
0.168968
0.129956
0.0894846
0.0651682
3
2.99996
2.9999
2.99968
2.99937
2.99811
2.99632
2.98942
2.97797
2.94064
2.85611
2.65936
2.13855
1.31289
0.553387
0.281404
0.336267
0.354178
0.322969
0.271244
0.22304
0.186016
0.151931
0.11987
0.103753
3
2.99996
2.99991
2.99969
2.9994
2.99819
2.99647
2.98984
2.97895
2.94309
2.86286
2.67372
2.17771
1.36477
0.581833
0.28798
0.346052
0.36684
0.337092
0.288375
0.243979
0.211253
0.18271
0.157691
0.146081
3
2.99996
2.99991
2.99971
2.99942
2.99827
2.99664
2.99018
2.98015
2.94553
2.87318
2.69292
2.23349
1.43887
0.622207
0.301443
0.361635
0.3855
0.357163
0.311944
0.271303
0.242807
0.219193
0.199621
0.191123
3
2.99996
2.99992
2.99973
2.99946
2.99838
2.99685
2.99076
2.98158
2.94872
2.88526
2.71596
2.30042
1.53363
0.674145
0.325395
0.385141
0.410911
0.383859
0.341853
0.3051
0.280555
0.261748
0.247169
0.241598
3
2.99997
2.99992
2.99975
2.99951
2.99852
2.99712
2.99156
2.98319
2.95304
2.89695
2.74051
2.3725
1.64509
0.73689
0.364219
0.419991
0.444185
0.418206
0.379432
0.345877
0.325232
0.310945
0.301868
0.301627
3
2.99997
2.99993
2.99977
2.99955
2.99865
2.99739
2.99232
2.98475
2.95722
2.90678
2.76324
2.42859
1.73645
0.792274
0.399412
0.448866
0.470366
0.450753
0.41973
0.391632
0.37618
0.368375
0.367255
0.377028
3
2.99997
2.99994
2.9998
2.9996
2.9988
2.99767
2.99313
2.98638
2.96174
2.91614
2.78912
2.47641
1.84642
0.873232
0.457213
0.472792
0.485616
0.47975
0.459132
0.440055
0.431957
0.43298
0.44607
0.480696
3
2.99998
2.99995
2.99983
2.99967
2.99901
2.99804
2.99452
2.98823
2.96901
2.924
2.81776
2.51931
1.9611
0.985335
0.529527
0.489779
0.502594
0.507394
0.49706
0.489454
0.49137
0.508404
0.551214
0.652643
3
2.99995
2.9999
2.99967
2.99934
2.99804
2.99616
2.989
2.97699
2.9382
2.84949
2.64521
2.10205
1.26563
0.527385
0.277558
0.328842
0.344201
0.311896
0.257226
0.20469
0.162661
0.121414
0.0757113
0.0418391
3
2.99995
2.9999
2.99967
2.99935
2.99806
2.99621
2.98915
2.97731
2.93905
2.85162
2.64992
2.11308
1.27995
0.534841
0.277722
0.330362
0.34652
0.314479
0.26065
0.209473
0.168968
0.129956
0.0894846
0.0651682
3
2.99996
2.9999
2.99968
2.99937
2.99811
2.99632
2.98942
2.97797
2.94064
2.85611
2.65936
2.13855
1.31289
0.553387
0.281404
0.336267
0.354178
0.322969
0.271244
0.22304
0.186016
0.151931
0.11987
0.103753
3
2.99996
2.99991
2.99969
2.9994
2.99819
2.99647
2.98984
2.97895
2.94309
2.86286
2.67372
2.17771
1.36477
0.581833
0.28798
0.346052
0.36684
0.337092
0.288375
0.243979
0.211253
0.18271
0.157691
0.146081
3
2.99996
2.99991
2.99971
2.99942
2.99827
2.99664
2.99018
2.98015
2.94553
2.87318
2.69292
2.23349
1.43887
0.622207
0.301443
0.361635
0.3855
0.357163
0.311944
0.271303
0.242807
0.219193
0.199621
0.191123
3
2.99996
2.99992
2.99973
2.99946
2.99838
2.99685
2.99076
2.98158
2.94872
2.88526
2.71596
2.30042
1.53363
0.674145
0.325395
0.385141
0.410911
0.383859
0.341853
0.3051
0.280555
0.261748
0.247169
0.241598
3
2.99997
2.99992
2.99975
2.99951
2.99852
2.99712
2.99156
2.98319
2.95304
2.89695
2.74051
2.3725
1.64509
0.73689
0.364219
0.419991
0.444185
0.418206
0.379432
0.345877
0.325232
0.310945
0.301868
0.301627
3
2.99997
2.99993
2.99977
2.99955
2.99865
2.99739
2.99232
2.98475
2.95722
2.90678
2.76324
2.42859
1.73645
0.792274
0.399412
0.448866
0.470366
0.450753
0.41973
0.391632
0.37618
0.368375
0.367255
0.377028
3
2.99997
2.99994
2.9998
2.9996
2.9988
2.99767
2.99313
2.98638
2.96174
2.91614
2.78912
2.47641
1.84642
0.873232
0.457213
0.472792
0.485616
0.47975
0.459132
0.440055
0.431957
0.43298
0.44607
0.480696
3
2.99998
2.99995
2.99983
2.99967
2.99901
2.99804
2.99452
2.98823
2.96901
2.924
2.81776
2.51931
1.9611
0.985335
0.529527
0.489779
0.502594
0.507394
0.49706
0.489454
0.49137
0.508404
0.551214
0.652643
3
2.99995
2.9999
2.99967
2.99934
2.99804
2.99616
2.989
2.97699
2.9382
2.84949
2.64521
2.10205
1.26563
0.527385
0.277558
0.328842
0.344201
0.311896
0.257226
0.20469
0.162661
0.121414
0.0757113
0.0418391
3
2.99995
2.9999
2.99967
2.99935
2.99806
2.99621
2.98915
2.97731
2.93905
2.85162
2.64992
2.11308
1.27995
0.534841
0.277722
0.330362
0.34652
0.314479
0.26065
0.209473
0.168968
0.129956
0.0894846
0.0651682
3
2.99996
2.9999
2.99968
2.99937
2.99811
2.99632
2.98942
2.97797
2.94064
2.85611
2.65936
2.13855
1.31289
0.553387
0.281404
0.336267
0.354178
0.322969
0.271244
0.22304
0.186016
0.151931
0.11987
0.103753
3
2.99996
2.99991
2.99969
2.9994
2.99819
2.99647
2.98984
2.97895
2.94309
2.86286
2.67372
2.17771
1.36477
0.581833
0.28798
0.346052
0.36684
0.337092
0.288375
0.243979
0.211253
0.18271
0.157691
0.146081
3
2.99996
2.99991
2.99971
2.99942
2.99827
2.99664
2.99018
2.98015
2.94553
2.87318
2.69292
2.23349
1.43887
0.622207
0.301443
0.361635
0.3855
0.357163
0.311944
0.271303
0.242807
0.219193
0.199621
0.191123
3
2.99996
2.99992
2.99973
2.99946
2.99838
2.99685
2.99076
2.98158
2.94872
2.88526
2.71596
2.30042
1.53363
0.674145
0.325395
0.385141
0.410911
0.383859
0.341853
0.3051
0.280555
0.261748
0.247169
0.241598
3
2.99997
2.99992
2.99975
2.99951
2.99852
2.99712
2.99156
2.98319
2.95304
2.89695
2.74051
2.3725
1.64509
0.73689
0.364219
0.419991
0.444185
0.418206
0.379432
0.345877
0.325232
0.310945
0.301868
0.301627
3
2.99997
2.99993
2.99977
2.99955
2.99865
2.99739
2.99232
2.98475
2.95722
2.90678
2.76324
2.42859
1.73645
0.792274
0.399412
0.448866
0.470366
0.450753
0.41973
0.391632
0.37618
0.368375
0.367255
0.377028
3
2.99997
2.99994
2.9998
2.9996
2.9988
2.99767
2.99313
2.98638
2.96174
2.91614
2.78912
2.47641
1.84642
0.873232
0.457213
0.472792
0.485616
0.47975
0.459132
0.440055
0.431957
0.43298
0.44607
0.480696
3
2.99998
2.99995
2.99983
2.99967
2.99901
2.99804
2.99452
2.98823
2.96901
2.924
2.81776
2.51931
1.9611
0.985335
0.529527
0.489779
0.502594
0.507394
0.49706
0.489454
0.49137
0.508404
0.551214
0.652643
3
2.99995
2.9999
2.99967
2.99934
2.99804
2.99616
2.989
2.97699
2.9382
2.84949
2.64521
2.10205
1.26563
0.527385
0.277558
0.328842
0.344201
0.311896
0.257226
0.20469
0.162661
0.121414
0.0757113
0.0418391
3
2.99995
2.9999
2.99967
2.99935
2.99806
2.99621
2.98915
2.97731
2.93905
2.85162
2.64992
2.11308
1.27995
0.534841
0.277722
0.330362
0.34652
0.314479
0.26065
0.209473
0.168968
0.129956
0.0894846
0.0651682
3
2.99996
2.9999
2.99968
2.99937
2.99811
2.99632
2.98942
2.97797
2.94064
2.85611
2.65936
2.13855
1.31289
0.553387
0.281404
0.336267
0.354178
0.322969
0.271244
0.22304
0.186016
0.151931
0.11987
0.103753
3
2.99996
2.99991
2.99969
2.9994
2.99819
2.99647
2.98984
2.97895
2.94309
2.86286
2.67372
2.17771
1.36477
0.581833
0.28798
0.346052
0.36684
0.337092
0.288375
0.243979
0.211253
0.18271
0.157691
0.146081
3
2.99996
2.99991
2.99971
2.99942
2.99827
2.99664
2.99018
2.98015
2.94553
2.87318
2.69292
2.23349
1.43887
0.622207
0.301443
0.361635
0.3855
0.357163
0.311944
0.271303
0.242807
0.219193
0.199621
0.191123
3
2.99996
2.99992
2.99973
2.99946
2.99838
2.99685
2.99076
2.98158
2.94872
2.88526
2.71596
2.30042
1.53363
0.674145
0.325395
0.385141
0.410911
0.383859
0.341853
0.3051
0.280555
0.261748
0.247169
0.241598
3
2.99997
2.99992
2.99975
2.99951
2.99852
2.99712
2.99156
2.98319
2.95304
2.89695
2.74051
2.3725
1.64509
0.73689
0.364219
0.419991
0.444185
0.418206
0.379432
0.345877
0.325232
0.310945
0.301868
0.301627
3
2.99997
2.99993
2.99977
2.99955
2.99865
2.99739
2.99232
2.98475
2.95722
2.90678
2.76324
2.42859
1.73645
0.792274
0.399412
0.448866
0.470366
0.450753
0.41973
0.391632
0.37618
0.368375
0.367255
0.377028
3
2.99997
2.99994
2.9998
2.9996
2.9988
2.99767
2.99313
2.98638
2.96174
2.91614
2.78912
2.47641
1.84642
0.873232
0.457213
0.472792
0.485616
0.47975
0.459132
0.440055
0.431957
0.43298
0.44607
0.480696
3
2.99998
2.99995
2.99983
2.99967
2.99901
2.99804
2.99452
2.98823
2.96901
2.924
2.81776
2.51931
1.9611
0.985335
0.529527
0.489779
0.502594
0.507394
0.49706
0.489454
0.49137
0.508404
0.551214
0.652643
3
2.99995
2.9999
2.99967
2.99934
2.99804
2.99616
2.989
2.97699
2.9382
2.84949
2.64521
2.10205
1.26563
0.527385
0.277557
0.328841
0.344201
0.311895
0.257226
0.20469
0.162661
0.121414
0.0757113
0.0418391
3
2.99995
2.9999
2.99967
2.99935
2.99806
2.99621
2.98915
2.97731
2.93905
2.85162
2.64992
2.11308
1.27995
0.534841
0.277722
0.330362
0.34652
0.314479
0.26065
0.209473
0.168968
0.129956
0.0894846
0.0651682
3
2.99996
2.9999
2.99968
2.99937
2.99811
2.99632
2.98942
2.97797
2.94064
2.85611
2.65936
2.13855
1.31289
0.553387
0.281404
0.336267
0.354178
0.322969
0.271244
0.22304
0.186016
0.151931
0.11987
0.103753
3
2.99996
2.99991
2.99969
2.9994
2.99819
2.99647
2.98984
2.97895
2.94309
2.86286
2.67372
2.17771
1.36477
0.581833
0.28798
0.346051
0.36684
0.337092
0.288375
0.243979
0.211253
0.18271
0.157691
0.146081
3
2.99996
2.99991
2.99971
2.99942
2.99827
2.99664
2.99018
2.98015
2.94553
2.87318
2.69292
2.23349
1.43887
0.622207
0.301443
0.361635
0.3855
0.357163
0.311944
0.271303
0.242806
0.219193
0.199621
0.191123
3
2.99996
2.99992
2.99973
2.99946
2.99838
2.99685
2.99076
2.98158
2.94872
2.88526
2.71596
2.30042
1.53363
0.674145
0.325395
0.385141
0.410911
0.383859
0.341853
0.3051
0.280555
0.261748
0.247169
0.241598
3
2.99997
2.99992
2.99975
2.99951
2.99852
2.99712
2.99156
2.98319
2.95304
2.89695
2.74051
2.3725
1.64509
0.73689
0.364219
0.419991
0.444185
0.418206
0.379432
0.345877
0.325232
0.310945
0.301868
0.301627
3
2.99997
2.99993
2.99977
2.99955
2.99865
2.99739
2.99232
2.98475
2.95722
2.90678
2.76324
2.42859
1.73645
0.792274
0.399412
0.448866
0.470366
0.450754
0.41973
0.391632
0.37618
0.368375
0.367255
0.377028
3
2.99997
2.99994
2.9998
2.9996
2.9988
2.99767
2.99313
2.98638
2.96174
2.91614
2.78912
2.47641
1.84642
0.873232
0.457213
0.472792
0.485616
0.47975
0.459132
0.440055
0.431957
0.43298
0.44607
0.480696
3
2.99998
2.99995
2.99983
2.99967
2.99901
2.99804
2.99452
2.98823
2.96901
2.924
2.81776
2.51931
1.9611
0.985335
0.529527
0.489779
0.502594
0.507394
0.49706
0.489454
0.49137
0.508404
0.551214
0.652643
3
2.99995
2.9999
2.99967
2.99934
2.99804
2.99616
2.989
2.97699
2.9382
2.84949
2.64522
2.10206
1.26563
0.527386
0.277556
0.328841
0.344201
0.311895
0.257225
0.204689
0.162661
0.121414
0.0757112
0.041839
3
2.99995
2.9999
2.99967
2.99935
2.99806
2.99621
2.98915
2.97731
2.93905
2.85162
2.64992
2.11308
1.27995
0.534843
0.277721
0.330361
0.34652
0.314478
0.26065
0.209473
0.168968
0.129956
0.0894845
0.0651681
3
2.99996
2.9999
2.99968
2.99937
2.99811
2.99632
2.98942
2.97797
2.94064
2.85611
2.65936
2.13855
1.31289
0.553388
0.281403
0.336267
0.354178
0.322969
0.271244
0.22304
0.186016
0.15193
0.11987
0.103753
3
2.99996
2.99991
2.99969
2.9994
2.99819
2.99647
2.98984
2.97895
2.94309
2.86286
2.67372
2.17771
1.36478
0.581835
0.287979
0.346051
0.36684
0.337092
0.288375
0.243979
0.211253
0.18271
0.157691
0.146081
3
2.99996
2.99991
2.99971
2.99942
2.99827
2.99664
2.99018
2.98015
2.94553
2.87318
2.69292
2.23349
1.43887
0.622209
0.301442
0.361635
0.3855
0.357163
0.311944
0.271303
0.242806
0.219193
0.199621
0.191122
3
2.99996
2.99992
2.99973
2.99946
2.99838
2.99685
2.99076
2.98158
2.94872
2.88526
2.71596
2.30042
1.53364
0.674147
0.325395
0.385141
0.410912
0.383859
0.341853
0.305101
0.280555
0.261748
0.247169
0.241598
3
2.99997
2.99992
2.99975
2.99951
2.99852
2.99712
2.99156
2.98319
2.95305
2.89695
2.74051
2.37251
1.64509
0.736893
0.36422
0.419992
0.444186
0.418207
0.379433
0.345877
0.325232
0.310945
0.301868
0.301626
3
2.99997
2.99993
2.99977
2.99955
2.99865
2.99739
2.99233
2.98475
2.95722
2.90678
2.76325
2.42859
1.73646
0.792275
0.399412
0.448866
0.470366
0.450754
0.419731
0.391633
0.37618
0.368375
0.367255
0.377028
3
2.99997
2.99994
2.9998
2.9996
2.9988
2.99767
2.99313
2.98638
2.96174
2.91614
2.78912
2.47641
1.84642
0.873235
0.457213
0.472792
0.485616
0.47975
0.459133
0.440055
0.431958
0.43298
0.44607
0.480696
3
2.99998
2.99995
2.99983
2.99967
2.99902
2.99804
2.99452
2.98823
2.96901
2.924
2.81776
2.51931
1.96111
0.985338
0.529528
0.489778
0.502594
0.507393
0.49706
0.489454
0.49137
0.508404
0.551214
0.652643
3.00002
2.99997
2.99991
2.99968
2.99936
2.99806
2.99618
2.98902
2.97701
2.93824
2.84952
2.64529
2.10213
1.26576
0.52752
0.277758
0.329025
0.344384
0.3121
0.257476
0.20501
0.163071
0.121971
0.0766162
0.0434798
3.00002
2.99997
2.99992
2.99969
2.99937
2.99808
2.99623
2.98917
2.97733
2.93909
2.85166
2.64999
2.11315
1.28008
0.534975
0.277923
0.330546
0.346702
0.314681
0.260896
0.209784
0.169359
0.130471
0.0902415
0.0662176
3.00002
2.99997
2.99992
2.9997
2.99939
2.99813
2.99634
2.98944
2.97799
2.94068
2.85614
2.65942
2.13863
1.31302
0.553516
0.281603
0.336448
0.354357
0.323166
0.27148
0.223329
0.186368
0.152366
0.120428
0.104405
3.00002
2.99997
2.99992
2.99971
2.99942
2.99821
2.99649
2.98987
2.97897
2.94313
2.8629
2.67378
2.17778
1.36491
0.581959
0.288178
0.34623
0.367014
0.337282
0.288597
0.244243
0.21156
0.183067
0.158109
0.146537
3.00002
2.99998
2.99993
2.99973
2.99944
2.99829
2.99666
2.99021
2.98018
2.94557
2.8732
2.69298
2.23352
1.43898
0.622305
0.301616
0.361794
0.385656
0.357334
0.312142
0.271535
0.243069
0.219487
0.199946
0.191464
3.00002
2.99998
2.99993
2.99974
2.99948
2.9984
2.99687
2.99078
2.98161
2.94875
2.88529
2.71602
2.30047
1.53375
0.674242
0.325561
0.385289
0.411054
0.384013
0.342029
0.305301
0.280777
0.261988
0.247425
0.241863
3.00002
2.99998
2.99994
2.99977
2.99952
2.99854
2.99714
2.99158
2.98321
2.95307
2.89698
2.74057
2.37257
1.64521
0.736988
0.364379
0.420133
0.444318
0.418348
0.379589
0.346051
0.325418
0.311143
0.302073
0.301833
3.00002
2.99999
2.99995
2.99979
2.99957
2.99867
2.99741
2.99235
2.98477
2.95725
2.90681
2.76329
2.42863
1.73655
0.792353
0.399551
0.448988
0.470485
0.45088
0.419868
0.391782
0.376337
0.368536
0.367417
0.377187
3.00002
2.99999
2.99996
2.99982
2.99962
2.99882
2.99769
2.99315
2.98641
2.96177
2.91616
2.78917
2.47643
1.84652
0.873313
0.457343
0.472902
0.485725
0.479864
0.459253
0.440183
0.432089
0.433111
0.446198
0.480813
3.00002
3
2.99997
2.99985
2.99969
2.99904
2.99806
2.99455
2.98826
2.96904
2.92402
2.81781
2.51934
1.96118
0.985415
0.529647
0.489883
0.502696
0.507496
0.497167
0.489564
0.49148
0.50851
0.551311
0.652722
3.00002
3.00001
2.99996
2.9999
2.99965
2.99928
2.99786
2.9957
2.98793
2.97396
2.93142
2.83042
2.60578
2.02443
1.16368
0.619194
0.513392
0.52601
0.537319
0.536077
0.537951
0.552492
0.591604
0.676481
0.856209
3.00002
3.00001
2.99997
2.99991
2.99969
2.99938
2.99813
2.99632
2.98944
2.97794
2.94075
2.85622
2.66054
2.14365
1.33063
0.710737
0.536425
0.550895
0.568627
0.576149
0.586825
0.614103
0.671085
0.776395
0.966508
3.00002
3.00001
2.99998
2.99993
2.99974
2.99947
2.99837
2.99683
2.99064
2.98134
2.94826
2.88282
2.71284
2.28962
1.53116
0.819495
0.572642
0.585242
0.603675
0.617285
0.634405
0.669799
0.735214
0.839943
1.00366
3.00002
3.00001
2.99999
2.99995
2.99979
2.99956
2.99866
2.99738
2.99229
2.9847
2.95709
2.90733
2.76334
2.44191
1.76103
0.941713
0.629334
0.633084
0.647427
0.663913
0.683774
0.721683
0.785705
0.879751
1.01683
3.00002
3.00002
2.99999
2.99996
2.99984
2.99965
2.99893
2.99789
2.99385
2.98762
2.96577
2.92403
2.81006
2.52967
1.94943
1.06252
0.694687
0.673544
0.68758
0.705348
0.727881
0.765359
0.827953
0.910954
1.02572
3.00002
3.00002
3.00001
2.99996
2.9999
2.99967
2.99933
2.998
2.99598
2.98887
2.97572
2.93703
2.84313
2.63748
2.08862
1.27709
0.799244
0.709045
0.721438
0.740234
0.766492
0.802677
0.859226
0.935889
1.03407
3.00002
3.00002
3.00001
2.99997
2.99993
2.99973
2.99945
2.99833
2.99674
2.99047
2.98082
2.94744
2.87862
2.7071
2.27298
1.52182
0.919971
0.744703
0.75027
0.770042
0.801232
0.837717
0.888013
0.955597
1.04129
3.00002
3.00002
3.00001
2.99999
2.99995
2.9998
2.99958
2.99872
2.99748
2.99265
2.98527
2.95909
2.91089
2.77334
2.4675
1.80455
1.07562
0.805586
0.79119
0.805044
0.832946
0.870094
0.916398
0.976206
1.0503
3.00002
3.00002
3.00001
3
2.99996
2.99989
2.99962
2.99923
2.99773
2.99547
2.98726
2.97318
2.92902
2.82845
2.60283
2.04632
1.25472
0.879858
0.832257
0.843535
0.866873
0.900882
0.941779
0.994172
1.05904
3.00003
3.00002
3.00002
3.00001
2.99997
2.99992
2.99972
2.99943
2.99829
2.99662
2.99043
2.9799
2.94657
2.87097
2.69558
2.24097
1.49035
0.993226
0.871392
0.875066
0.896319
0.929797
0.968167
1.01349
1.06955
3.00003
3.00003
3.00002
3.00001
3
2.99994
2.99985
2.99951
2.99901
2.99717
2.99412
2.98425
2.96357
2.90947
2.76885
2.48448
1.81176
1.17062
0.933451
0.913966
0.926329
0.954467
0.991725
1.0335
1.08173
3.00003
3.00003
3.00002
3.00002
3
2.99996
2.9999
2.99964
2.99927
2.99783
2.99574
2.98788
2.97483
2.9331
2.8398
2.62929
2.10292
1.35951
1.01116
0.953984
0.961089
0.982698
1.0159
1.05439
1.09825
3.00003
3.00003
3.00003
3.00002
3.00001
2.99999
2.99992
2.99981
2.9994
2.99878
2.99659
2.99276
2.9809
2.95446
2.88887
2.71408
2.371
1.61548
1.14424
1.0004
0.994439
1.00741
1.03569
1.07311
1.11323
3.00003
3.00003
3.00003
3.00002
3.00001
3
2.99995
2.99987
2.99956
2.99912
2.99739
2.9949
2.98536
2.97022
2.92093
2.81851
2.56642
2.02936
1.33179
1.07311
1.03676
1.04129
1.06164
1.09408
1.13092
3.00003
3.00003
3.00003
3.00002
3.00002
3.00001
2.99998
2.9999
2.99977
2.99928
2.99856
2.99584
2.99162
2.97716
2.94969
2.87391
2.68871
2.30273
1.56579
1.1738
1.07445
1.07116
1.0852
1.11207
1.14793
3.00003
3.00003
3.00003
3.00003
3.00002
3.00001
3
2.99994
2.99985
2.99951
2.99903
2.99715
2.99441
2.98431
2.96737
2.91504
2.79672
2.54004
1.94543
1.35489
1.13597
1.10846
1.1142
1.13524
1.16566
3.00003
3.00003
3.00003
3.00003
3.00002
3.00002
3
2.99998
2.99988
2.99974
2.99922
2.99843
2.99551
2.99095
2.97527
2.94637
2.8662
2.67931
2.26285
1.56852
1.22559
1.14617
1.1433
1.15717
1.18232
3.00003
3.00003
3.00003
3.00003
3.00003
3.00002
3.00001
3
2.99993
2.99984
2.99949
2.99898
2.99703
2.99416
2.98367
2.96606
2.912
2.79051
2.52592
1.93052
1.3965
1.20354
1.17742
1.18308
1.20294
3.00003
3.00003
3.00003
3.00003
3.00003
3.00002
3.00002
3
2.99998
2.99988
2.99974
2.9992
2.9984
2.99546
2.99077
2.97506
2.94603
2.8631
2.68749
2.24908
1.62053
1.30017
1.22035
1.21389
1.22344
3.00003
3.00003
3.00003
3.00003
3.00003
3.00003
3.00002
3.00001
2.99999
2.99995
2.9998
2.99959
2.99878
2.99758
2.99317
2.98616
2.96293
2.91867
2.80098
2.53509
1.97193
1.45517
1.27435
1.24692
1.2499
3.00003
3.00003
3.00003
3.00003
3.00003
3.00003
3.00002
3.00002
3
2.99998
2.99988
2.99975
2.99923
2.99848
2.99562
2.99134
2.97616
2.94993
2.87254
2.70919
2.31682
1.6948
1.37133
1.28648
1.27722
3.00003
3.00003
3.00003
3.00003
3.00003
3.00003
3.00003
3.00002
3.00002
2.99999
2.99996
2.99982
2.99962
2.99889
2.99779
2.99382
2.98749
2.96669
2.92754
2.8218
2.59233
2.07582
1.54284
1.34085
1.31128
3.00003
3.00003
3.00003
3.00003
3.00003
3.00003
3.00003
3.00003
3.00002
3.00001
2.99998
2.9999
2.99978
2.99931
2.99864
2.99608
2.99236
2.97857
2.95665
2.8871
2.74528
2.40704
1.79201
1.44055
1.3444
3.00003
3.00003
3.00003
3.00003
3.00003
3.00003
3.00003
3.00003
3.00002
3.00001
3
2.99995
2.99988
2.9996
2.9992
2.99767
2.99545
2.9873
2.97435
2.93288
2.85208
2.64727
2.21454
1.64331
1.41171
3.00003
3.00003
3.00003
3.00003
3.00003
3.00003
3.00003
3.00003
3.00003
3.00002
3.00001
2.99998
2.99994
2.99977
2.99953
2.9986
2.99726
2.99225
2.98459
2.95855
2.90965
2.78349
2.48323
1.92099
1.53425
3.00003
3.00003
3.00003
3.00003
3.00003
3.00003
3.00003
3.00003
3.00003
3.00003
3.00002
3.00001
2.99997
2.9999
2.99968
2.99934
2.99811
2.99624
2.98969
2.97874
2.94501
2.87299
2.70888
2.31431
1.74753
3.00003
3.00003
3.00003
3.00003
3.00003
3.00003
3.00003
3.00003
3.00003
3.00003
3.00002
3.00001
3
2.99994
2.99986
2.99955
2.9991
2.99745
2.9949
2.98632
2.97101
2.92735
2.82801
2.61856
2.1298
3.00003
3.00003
3.00003
3.00003
3.00003
3.00003
3.00003
3.00003
3.00003
3.00003
3.00003
3.00002
3.00001
2.99999
2.99991
2.99979
2.99937
2.99874
2.99647
2.99293
2.98089
2.95992
2.89841
2.77095
2.45703
3.00003
3.00003
3.00003
3.00003
3.00003
3.00003
3.00003
3.00003
3.00003
3.00003
3.00003
3.00002
3.00002
3
2.99996
2.99989
2.99965
2.9993
2.99797
2.99603
2.98897
2.97787
2.9421
2.87309
2.69948
3.00003
3.00003
3.00003
3.00003
3.00003
3.00003
3.00003
3.00003
3.00003
3.00003
3.00003
3.00003
3.00002
3.00001
3
2.99994
2.99985
2.99954
2.99907
2.9974
2.99482
2.98602
2.97096
2.92686
2.83238
3.00003
3.00003
3.00003
3.00003
3.00003
3.00003
3.00003
3.00003
3.00003
3.00003
3.00003
3.00003
3.00003
3.00002
3.00001
2.99999
2.99991
2.9998
2.99939
2.99876
2.99657
2.99306
2.98167
2.96103
2.90269
3.00003
3.00003
3.00003
3.00003
3.00003
3.00003
3.00003
3.00003
3.00003
3.00003
3.00003
3.00003
3.00003
3.00002
3.00002
3
2.99997
2.99987
2.99972
2.99919
2.99837
2.99553
2.99094
2.97623
2.94945
3.00003
3.00003
3.00003
3.00003
3.00003
3.00003
3.00003
3.00003
3.00003
3.00003
3.00003
3.00003
3.00003
3.00003
3.00002
3.00001
3
2.99994
2.99985
2.99954
2.99909
2.99743
2.99491
2.98624
2.97198
3.00003
3.00003
3.00003
3.00003
3.00003
3.00003
3.00003
3.00003
3.00003
3.00003
3.00003
3.00003
3.00003
3.00003
3.00002
3.00002
3.00001
2.99998
2.9999
2.99978
2.99933
2.99864
2.99622
2.99239
2.97964
3.00003
3.00003
3.00003
3.00003
3.00003
3.00003
3.00003
3.00003
3.00003
3.00003
3.00003
3.00003
3.00003
3.00003
3.00003
3.00002
3.00001
2.99999
2.99995
2.9998
2.99958
2.99875
2.9975
2.99294
2.98556
3.00003
3.00003
3.00003
3.00003
3.00003
3.00003
3.00003
3.00003
3.00003
3.00003
3.00003
3.00003
3.00003
3.00003
3.00003
3.00002
3.00001
3
2.99995
2.99987
2.99956
2.99911
2.99739
2.99472
2.98531
3.00003
3.00003
3.00003
3.00003
3.00003
3.00003
3.00003
3.00003
3.00003
3.00003
3.00003
3.00003
3.00003
3.00003
3.00003
3.00002
3.00002
3
2.99997
2.99985
2.99968
2.999
2.99798
2.99427
2.98769
3.00003
3.00003
3.00003
3.00003
3.00003
3.00003
3.00003
3.00003
3.00003
3.00003
3.00003
3.00003
3.00003
3.00003
3.00003
3.00002
3.00002
3
2.99997
2.99986
2.99969
2.99904
2.99805
2.99449
2.98799
3.00003
3.00003
3.00003
3.00003
3.00003
3.00003
3.00003
3.00003
3.00003
3.00003
3.00003
3.00003
3.00003
3.00003
3.00003
3.00002
3.00002
3
2.99995
2.99988
2.9996
2.99919
2.99755
2.99509
2.98599
3.00003
3.00003
3.00003
3.00003
3.00003
3.00003
3.00003
3.00003
3.00003
3.00003
3.00003
3.00003
3.00003
3.00003
3.00003
3.00002
3.00002
3
2.99995
2.99988
2.99958
2.99917
2.99746
2.99504
2.98544
3
2.99999
2.99994
2.99988
2.99963
2.99926
2.99784
2.99568
2.98791
2.97394
2.93139
2.83039
2.60572
2.02438
1.16359
0.619087
0.51329
0.525912
0.537223
0.53598
0.537855
0.552399
0.591518
0.67641
0.856163
3
2.99999
2.99995
2.9999
2.99967
2.99936
2.99811
2.9963
2.98941
2.97792
2.94072
2.85619
2.66048
2.1436
1.33053
0.71064
0.536323
0.550798
0.568535
0.576061
0.58674
0.614024
0.671015
0.776338
0.96647
3
2.99999
2.99996
2.99991
2.99972
2.99945
2.99835
2.99681
2.99062
2.98132
2.94822
2.88281
2.71279
2.2896
1.53107
0.819418
0.572546
0.585148
0.603588
0.617203
0.634328
0.669728
0.735152
0.839893
1.00363
3
3
2.99997
2.99993
2.99977
2.99954
2.99864
2.99736
2.99227
2.98468
2.95707
2.9073
2.7633
2.44187
1.76097
0.941646
0.629244
0.633
0.647349
0.66384
0.683705
0.72162
0.78565
0.879704
1.01679
3
3
2.99997
2.99994
2.99982
2.99963
2.99891
2.99787
2.99382
2.9876
2.96574
2.92401