/*--------------------------------*- C++ -*----------------------------------*\
| =========                 |                                                 |
| \\      /  F ield         | OpenFOAM: The Open Source CFD Toolbox           |
|  \\    /   O peration     | Version:  4.1                                   |
|   \\  /    A nd           | Web:      www.OpenFOAM.org                      |
|    \\/     M anipulation  |                                                 |
\*---------------------------------------------------------------------------*/
FoamFile
{
    version     2.0;
    format      ascii;
    class       volScalarField;
    location    "4.28";
    object      T;
}
// * * * * * * * * * * * * * * * * * * * * * * * * * * * * * * * * * * * * * //

dimensions      [0 0 0 1 0 0 0];

internalField   nonuniform List<scalar> 
52500
(
0.999995
1.00002
1.00004
1.00015
1.00028
1.0009
1.00167
1.00492
1.01038
1.02667
1.07235
1.15939
1.50132
2.27439
2.64229
2.73128
2.72547
2.721
2.73619
2.74775
2.76124
2.76963
2.77578
2.78069
2.78424
0.999995
1.00002
1.00004
1.00015
1.00027
1.00089
1.00164
1.00486
1.01023
1.0263
1.07129
1.15715
1.4938
2.26106
2.63856
2.73119
2.7252
2.72042
2.73545
2.74688
2.7601
2.76821
2.77434
2.77837
2.78105
0.999995
1.00002
1.00004
1.00014
1.00027
1.00086
1.0016
1.00474
1.00992
1.02564
1.06899
1.15304
1.47579
2.22999
2.62839
2.72951
2.72338
2.71799
2.73311
2.74428
2.75768
2.76497
2.77109
2.77595
2.77752
0.999995
1.00002
1.00004
1.00014
1.00026
1.00083
1.00153
1.00456
1.00946
1.02462
1.06554
1.14679
1.44864
2.18114
2.61212
2.72636
2.71981
2.71316
2.72798
2.73957
2.7532
2.76124
2.7657
2.76908
2.77281
0.999995
1.00001
1.00003
1.00013
1.00024
1.00079
1.00145
1.00445
1.00883
1.0239
1.05991
1.13848
1.4102
2.1105
2.58883
2.72121
2.71506
2.70539
2.72119
2.72959
2.74392
2.75244
2.75927
2.76317
2.76291
0.999995
1.00001
1.00003
1.00012
1.00023
1.00074
1.00135
1.00423
1.00811
1.02284
1.05339
1.12846
1.36582
2.02087
2.55724
2.71322
2.70685
2.69662
2.71325
2.72331
2.73277
2.74187
2.74602
2.74882
2.75306
0.999995
1.00001
1.00003
1.00011
1.00021
1.00068
1.00124
1.00386
1.00737
1.02105
1.04738
1.11792
1.3203
1.92037
2.51233
2.69714
2.68822
2.67817
2.69491
2.70942
2.72145
2.72676
2.73388
2.73629
2.73321
0.999995
1.00001
1.00003
1.0001
1.00019
1.00062
1.00112
1.00351
1.00668
1.01921
1.04265
1.10738
1.28716
1.83117
2.49134
2.68819
2.67941
2.66645
2.68117
2.68965
2.7041
2.70835
2.70877
2.70846
2.70891
0.999995
1.00001
1.00002
1.00009
1.00017
1.00055
1.001
1.00315
1.00596
1.0171
1.03856
1.09412
1.26246
1.71291
2.45682
2.675
2.65867
2.65991
2.66733
2.67238
2.68195
2.68731
2.68736
2.68072
2.65593
0.999994
1.00001
1.00002
1.00007
1.00014
1.00045
1.00085
1.00241
1.00532
1.01318
1.03593
1.07894
1.24351
1.60309
2.36788
2.6438
2.65401
2.65191
2.65234
2.65801
2.65741
2.65513
2.64537
2.6239
2.57486
1
1.00003
1.00005
1.00016
1.00029
1.00091
1.00168
1.00493
1.01039
1.02669
1.07237
1.15943
1.50136
2.27452
2.64235
2.73135
2.72554
2.72107
2.73626
2.74783
2.76132
2.7697
2.77586
2.78077
2.78433
1
1.00002
1.00005
1.00016
1.00028
1.00089
1.00165
1.00487
1.01024
1.02632
1.0713
1.15719
1.49384
2.26119
2.63863
2.73126
2.72527
2.7205
2.73552
2.74695
2.76018
2.76829
2.77442
2.77845
2.78113
1
1.00002
1.00005
1.00015
1.00027
1.00087
1.00161
1.00475
1.00993
1.02566
1.069
1.15308
1.47583
2.23012
2.62846
2.72958
2.72345
2.71806
2.73318
2.74435
2.75775
2.76504
2.77116
2.77603
2.7776
1
1.00002
1.00004
1.00015
1.00026
1.00084
1.00154
1.00457
1.00947
1.02464
1.06556
1.14682
1.44867
2.18127
2.61219
2.72643
2.71988
2.71323
2.72805
2.73965
2.75327
2.76132
2.76578
2.76916
2.77289
1
1.00002
1.00004
1.00014
1.00025
1.0008
1.00146
1.00447
1.00884
1.02392
1.05991
1.13851
1.4102
2.1106
2.5889
2.72128
2.71513
2.70546
2.72126
2.72966
2.74399
2.75251
2.75934
2.76324
2.76299
1
1.00002
1.00004
1.00013
1.00024
1.00075
1.00136
1.00424
1.00812
1.02286
1.0534
1.12849
1.36584
2.02097
2.5573
2.71328
2.70691
2.69669
2.71332
2.72338
2.73284
2.74193
2.74609
2.7489
2.75314
1
1.00002
1.00004
1.00012
1.00022
1.00069
1.00125
1.00387
1.00738
1.02106
1.04739
1.11795
1.32033
1.92048
2.51239
2.69721
2.68829
2.67824
2.69497
2.70948
2.72152
2.72682
2.73394
2.73636
2.73328
1
1.00002
1.00003
1.00011
1.0002
1.00062
1.00113
1.00352
1.00669
1.01922
1.04266
1.10741
1.28718
1.83126
2.49137
2.68825
2.67947
2.66651
2.68124
2.68972
2.70417
2.70841
2.70883
2.70853
2.70898
1
1.00002
1.00003
1.0001
1.00017
1.00056
1.00101
1.00316
1.00597
1.01711
1.03857
1.09415
1.26246
1.71301
2.45687
2.67506
2.65872
2.65996
2.66739
2.67245
2.68202
2.68737
2.68742
2.68078
2.65599
1
1.00001
1.00002
1.00008
1.00015
1.00045
1.00086
1.00242
1.00533
1.01319
1.03595
1.07896
1.24351
1.60315
2.36794
2.64386
2.65406
2.65196
2.65239
2.65806
2.65747
2.65519
2.64542
2.62395
2.57491
1
1.00003
1.00005
1.00016
1.00029
1.00091
1.00168
1.00493
1.01039
1.02669
1.07237
1.15943
1.50136
2.27452
2.64236
2.73135
2.72554
2.72107
2.73626
2.74783
2.76132
2.76971
2.77586
2.78077
2.78433
1
1.00002
1.00005
1.00016
1.00028
1.00089
1.00165
1.00487
1.01024
1.02632
1.0713
1.1572
1.49384
2.26119
2.63863
2.73126
2.72527
2.7205
2.73552
2.74695
2.76018
2.76829
2.77442
2.77845
2.78113
1
1.00002
1.00005
1.00015
1.00027
1.00087
1.00161
1.00475
1.00993
1.02566
1.069
1.15308
1.47583
2.23012
2.62846
2.72958
2.72345
2.71806
2.73318
2.74435
2.75775
2.76505
2.77116
2.77603
2.7776
1
1.00002
1.00004
1.00015
1.00026
1.00084
1.00154
1.00457
1.00947
1.02464
1.06556
1.14682
1.44868
2.18127
2.61219
2.72643
2.71988
2.71323
2.72805
2.73965
2.75327
2.76132
2.76578
2.76916
2.77289
1
1.00002
1.00004
1.00014
1.00025
1.0008
1.00146
1.00447
1.00884
1.02392
1.05991
1.13851
1.4102
2.1106
2.5889
2.72128
2.71513
2.70546
2.72126
2.72966
2.74399
2.75251
2.75934
2.76324
2.76299
1
1.00002
1.00004
1.00013
1.00024
1.00075
1.00136
1.00424
1.00812
1.02286
1.0534
1.12849
1.36584
2.02098
2.5573
2.71328
2.70691
2.69669
2.71332
2.72338
2.73284
2.74193
2.74609
2.7489
2.75314
1
1.00002
1.00004
1.00012
1.00022
1.00069
1.00125
1.00387
1.00738
1.02106
1.04739
1.11795
1.32033
1.92048
2.51239
2.69721
2.68829
2.67824
2.69497
2.70948
2.72152
2.72682
2.73395
2.73636
2.73328
1
1.00002
1.00003
1.00011
1.0002
1.00062
1.00113
1.00352
1.00669
1.01922
1.04266
1.10741
1.28718
1.83126
2.49137
2.68825
2.67947
2.66651
2.68124
2.68972
2.70417
2.70841
2.70883
2.70853
2.70898
1
1.00002
1.00003
1.0001
1.00017
1.00056
1.00101
1.00316
1.00597
1.01711
1.03857
1.09415
1.26246
1.71302
2.45687
2.67506
2.65872
2.65996
2.66739
2.67245
2.68202
2.68737
2.68742
2.68078
2.65599
1
1.00001
1.00002
1.00008
1.00015
1.00045
1.00086
1.00242
1.00533
1.01319
1.03595
1.07896
1.24351
1.60315
2.36795
2.64386
2.65406
2.65196
2.65239
2.65806
2.65747
2.65519
2.64542
2.62395
2.57491
1
1.00003
1.00005
1.00016
1.00029
1.00091
1.00168
1.00493
1.01039
1.02669
1.07237
1.15943
1.50136
2.27452
2.64236
2.73135
2.72554
2.72107
2.73626
2.74783
2.76132
2.76971
2.77586
2.78077
2.78433
1
1.00002
1.00005
1.00016
1.00028
1.00089
1.00165
1.00487
1.01024
1.02632
1.0713
1.1572
1.49384
2.26119
2.63863
2.73126
2.72527
2.7205
2.73552
2.74695
2.76018
2.76829
2.77442
2.77845
2.78113
1
1.00002
1.00005
1.00015
1.00027
1.00087
1.00161
1.00475
1.00993
1.02566
1.069
1.15308
1.47583
2.23012
2.62846
2.72958
2.72345
2.71806
2.73318
2.74435
2.75775
2.76505
2.77116
2.77603
2.7776
1
1.00002
1.00004
1.00015
1.00026
1.00084
1.00154
1.00457
1.00947
1.02464
1.06556
1.14682
1.44868
2.18127
2.61219
2.72643
2.71988
2.71323
2.72805
2.73965
2.75327
2.76132
2.76578
2.76916
2.77289
1
1.00002
1.00004
1.00014
1.00025
1.0008
1.00146
1.00447
1.00884
1.02392
1.05991
1.13851
1.4102
2.1106
2.5889
2.72128
2.71513
2.70546
2.72126
2.72966
2.74399
2.75251
2.75934
2.76324
2.76299
1
1.00002
1.00004
1.00013
1.00024
1.00075
1.00136
1.00424
1.00812
1.02286
1.0534
1.12849
1.36584
2.02098
2.5573
2.71328
2.70691
2.69669
2.71332
2.72338
2.73284
2.74193
2.74609
2.7489
2.75314
1
1.00002
1.00004
1.00012
1.00022
1.00069
1.00125
1.00387
1.00738
1.02106
1.04739
1.11795
1.32033
1.92048
2.51239
2.69721
2.68829
2.67824
2.69497
2.70948
2.72152
2.72682
2.73395
2.73636
2.73328
1
1.00002
1.00003
1.00011
1.0002
1.00062
1.00113
1.00352
1.00669
1.01922
1.04266
1.10741
1.28718
1.83126
2.49137
2.68825
2.67947
2.66651
2.68124
2.68972
2.70417
2.70841
2.70883
2.70853
2.70898
1
1.00002
1.00003
1.0001
1.00017
1.00056
1.00101
1.00316
1.00597
1.01711
1.03857
1.09415
1.26246
1.71302
2.45687
2.67506
2.65872
2.65996
2.66739
2.67245
2.68202
2.68737
2.68742
2.68078
2.65599
1
1.00001
1.00002
1.00008
1.00015
1.00045
1.00086
1.00242
1.00533
1.01319
1.03595
1.07896
1.24351
1.60315
2.36795
2.64386
2.65406
2.65196
2.65239
2.65806
2.65747
2.65519
2.64542
2.62395
2.57491
1
1.00003
1.00005
1.00016
1.00029
1.00091
1.00168
1.00493
1.01039
1.02669
1.07237
1.15943
1.50136
2.27452
2.64236
2.73135
2.72554
2.72107
2.73626
2.74783
2.76132
2.76971
2.77586
2.78077
2.78433
1
1.00002
1.00005
1.00016
1.00028
1.00089
1.00165
1.00487
1.01024
1.02632
1.0713
1.1572
1.49384
2.26119
2.63863
2.73126
2.72527
2.7205
2.73552
2.74695
2.76018
2.76829
2.77442
2.77845
2.78113
1
1.00002
1.00005
1.00015
1.00027
1.00087
1.00161
1.00475
1.00993
1.02566
1.069
1.15308
1.47583
2.23012
2.62846
2.72958
2.72345
2.71806
2.73318
2.74435
2.75775
2.76505
2.77116
2.77603
2.7776
1
1.00002
1.00004
1.00015
1.00026
1.00084
1.00154
1.00457
1.00947
1.02464
1.06556
1.14682
1.44868
2.18127
2.61219
2.72643
2.71988
2.71323
2.72805
2.73965
2.75327
2.76132
2.76578
2.76916
2.77289
1
1.00002
1.00004
1.00014
1.00025
1.0008
1.00146
1.00447
1.00884
1.02392
1.05991
1.13851
1.4102
2.1106
2.5889
2.72128
2.71513
2.70546
2.72126
2.72966
2.74399
2.75251
2.75934
2.76324
2.76299
1
1.00002
1.00004
1.00013
1.00024
1.00075
1.00136
1.00424
1.00812
1.02286
1.0534
1.12849
1.36584
2.02098
2.5573
2.71328
2.70691
2.69669
2.71332
2.72338
2.73284
2.74193
2.74609
2.7489
2.75314
1
1.00002
1.00004
1.00012
1.00022
1.00069
1.00125
1.00387
1.00738
1.02106
1.04739
1.11795
1.32033
1.92048
2.51239
2.69721
2.68829
2.67824
2.69497
2.70948
2.72152
2.72682
2.73395
2.73636
2.73328
1
1.00002
1.00003
1.00011
1.0002
1.00062
1.00113
1.00352
1.00669
1.01922
1.04266
1.10741
1.28718
1.83126
2.49137
2.68825
2.67947
2.66651
2.68124
2.68972
2.70417
2.70841
2.70883
2.70853
2.70898
1
1.00002
1.00003
1.0001
1.00017
1.00056
1.00101
1.00316
1.00597
1.01711
1.03857
1.09415
1.26246
1.71302
2.45687
2.67506
2.65872
2.65996
2.66739
2.67245
2.68202
2.68737
2.68742
2.68078
2.65599
1
1.00001
1.00002
1.00008
1.00015
1.00045
1.00086
1.00242
1.00533
1.01319
1.03595
1.07896
1.24351
1.60315
2.36795
2.64386
2.65406
2.65196
2.65239
2.65806
2.65747
2.65519
2.64542
2.62395
2.57491
1
1.00003
1.00005
1.00016
1.00029
1.00091
1.00168
1.00493
1.01039
1.02669
1.07237
1.15943
1.50136
2.27452
2.64236
2.73135
2.72554
2.72107
2.73626
2.74783
2.76132
2.76971
2.77586
2.78077
2.78433
1
1.00002
1.00005
1.00016
1.00028
1.00089
1.00165
1.00487
1.01024
1.02632
1.0713
1.1572
1.49384
2.26119
2.63863
2.73126
2.72527
2.7205
2.73552
2.74695
2.76018
2.76829
2.77442
2.77845
2.78113
1
1.00002
1.00005
1.00015
1.00027
1.00087
1.00161
1.00475
1.00993
1.02566
1.069
1.15308
1.47583
2.23012
2.62846
2.72958
2.72345
2.71806
2.73318
2.74435
2.75775
2.76505
2.77116
2.77603
2.7776
1
1.00002
1.00004
1.00015
1.00026
1.00084
1.00154
1.00457
1.00947
1.02464
1.06556
1.14682
1.44868
2.18127
2.61219
2.72643
2.71988
2.71323
2.72805
2.73965
2.75327
2.76132
2.76578
2.76916
2.77289
1
1.00002
1.00004
1.00014
1.00025
1.0008
1.00146
1.00447
1.00884
1.02392
1.05991
1.13851
1.4102
2.1106
2.5889
2.72128
2.71513
2.70546
2.72126
2.72966
2.74399
2.75251
2.75934
2.76324
2.76299
1
1.00002
1.00004
1.00013
1.00024
1.00075
1.00136
1.00424
1.00812
1.02286
1.0534
1.12849
1.36584
2.02098
2.5573
2.71328
2.70691
2.69669
2.71332
2.72338
2.73284
2.74193
2.74609
2.7489
2.75314
1
1.00002
1.00004
1.00012
1.00022
1.00069
1.00125
1.00387
1.00738
1.02106
1.04739
1.11795
1.32033
1.92048
2.51239
2.69721
2.68829
2.67824
2.69497
2.70948
2.72152
2.72682
2.73395
2.73636
2.73328
1
1.00002
1.00003
1.00011
1.0002
1.00062
1.00113
1.00352
1.00669
1.01922
1.04266
1.10741
1.28718
1.83126
2.49137
2.68825
2.67947
2.66651
2.68124
2.68972
2.70417
2.70841
2.70883
2.70853
2.70898
1
1.00002
1.00003
1.0001
1.00017
1.00056
1.00101
1.00316
1.00597
1.01711
1.03857
1.09415
1.26246
1.71302
2.45687
2.67506
2.65872
2.65996
2.66739
2.67245
2.68202
2.68737
2.68742
2.68078
2.65599
1
1.00001
1.00002
1.00008
1.00015
1.00045
1.00086
1.00242
1.00533
1.01319
1.03595
1.07896
1.24351
1.60315
2.36795
2.64386
2.65406
2.65196
2.65239
2.65806
2.65747
2.65519
2.64542
2.62395
2.57491
1
1.00003
1.00005
1.00016
1.00029
1.00091
1.00168
1.00493
1.01039
1.02669
1.07237
1.15943
1.50136
2.27452
2.64236
2.73135
2.72554
2.72107
2.73626
2.74783
2.76132
2.76971
2.77586
2.78077
2.78433
1
1.00002
1.00005
1.00016
1.00028
1.00089
1.00165
1.00487
1.01024
1.02632
1.0713
1.1572
1.49384
2.26119
2.63863
2.73126
2.72527
2.7205
2.73552
2.74695
2.76018
2.76829
2.77442
2.77845
2.78113
1
1.00002
1.00005
1.00015
1.00027
1.00087
1.00161
1.00475
1.00993
1.02566
1.069
1.15308
1.47583
2.23012
2.62846
2.72958
2.72345
2.71806
2.73318
2.74435
2.75775
2.76505
2.77116
2.77603
2.7776
1
1.00002
1.00004
1.00015
1.00026
1.00084
1.00154
1.00457
1.00947
1.02464
1.06556
1.14682
1.44868
2.18127
2.61219
2.72643
2.71988
2.71323
2.72805
2.73965
2.75327
2.76132
2.76578
2.76916
2.77289
1
1.00002
1.00004
1.00014
1.00025
1.0008
1.00146
1.00447
1.00884
1.02392
1.05991
1.13851
1.4102
2.1106
2.5889
2.72128
2.71513
2.70546
2.72126
2.72966
2.74399
2.75251
2.75934
2.76324
2.76299
1
1.00002
1.00004
1.00013
1.00024
1.00075
1.00136
1.00424
1.00812
1.02286
1.0534
1.12849
1.36584
2.02098
2.5573
2.71328
2.70691
2.69669
2.71332
2.72338
2.73284
2.74193
2.74609
2.7489
2.75314
1
1.00002
1.00004
1.00012
1.00022
1.00069
1.00125
1.00387
1.00738
1.02106
1.04739
1.11795
1.32033
1.92048
2.51239
2.69721
2.68829
2.67824
2.69497
2.70948
2.72152
2.72682
2.73395
2.73636
2.73328
1
1.00002
1.00003
1.00011
1.0002
1.00062
1.00113
1.00352
1.00669
1.01922
1.04266
1.10741
1.28718
1.83126
2.49137
2.68825
2.67947
2.66651
2.68124
2.68972
2.70417
2.70841
2.70883
2.70853
2.70898
1
1.00002
1.00003
1.0001
1.00017
1.00056
1.00101
1.00316
1.00597
1.01711
1.03857
1.09415
1.26246
1.71302
2.45687
2.67506
2.65872
2.65996
2.66739
2.67245
2.68202
2.68737
2.68742
2.68078
2.65599
1
1.00001
1.00002
1.00008
1.00015
1.00045
1.00086
1.00242
1.00533
1.01319
1.03595
1.07896
1.24351
1.60315
2.36795
2.64386
2.65406
2.65196
2.65239
2.65806
2.65747
2.65519
2.64542
2.62395
2.57491
1
1.00003
1.00005
1.00016
1.00029
1.00091
1.00168
1.00493
1.01039
1.02669
1.07237
1.15943
1.50136
2.27452
2.64236
2.73135
2.72554
2.72107
2.73626
2.74783
2.76132
2.76971
2.77586
2.78077
2.78433
1
1.00002
1.00005
1.00016
1.00028
1.00089
1.00165
1.00487
1.01024
1.02632
1.0713
1.1572
1.49384
2.26119
2.63863
2.73126
2.72527
2.7205
2.73552
2.74695
2.76018
2.76829
2.77442
2.77845
2.78113
1
1.00002
1.00005
1.00015
1.00027
1.00087
1.00161
1.00475
1.00993
1.02566
1.069
1.15308
1.47583
2.23012
2.62846
2.72958
2.72345
2.71806
2.73318
2.74435
2.75775
2.76505
2.77116
2.77603
2.7776
1
1.00002
1.00004
1.00015
1.00026
1.00084
1.00154
1.00457
1.00947
1.02464
1.06556
1.14682
1.44868
2.18127
2.61219
2.72643
2.71988
2.71323
2.72805
2.73965
2.75327
2.76132
2.76578
2.76916
2.77289
1
1.00002
1.00004
1.00014
1.00025
1.0008
1.00146
1.00447
1.00884
1.02392
1.05991
1.13851
1.4102
2.1106
2.5889
2.72128
2.71513
2.70546
2.72126
2.72966
2.74399
2.75251
2.75934
2.76324
2.76299
1
1.00002
1.00004
1.00013
1.00024
1.00075
1.00136
1.00424
1.00812
1.02286
1.0534
1.12849
1.36584
2.02098
2.5573
2.71328
2.70691
2.69669
2.71332
2.72338
2.73284
2.74193
2.74609
2.7489
2.75314
1
1.00002
1.00004
1.00012
1.00022
1.00069
1.00125
1.00387
1.00738
1.02106
1.04739
1.11795
1.32033
1.92048
2.51239
2.69721
2.68829
2.67824
2.69497
2.70948
2.72152
2.72682
2.73395
2.73636
2.73328
1
1.00002
1.00003
1.00011
1.0002
1.00062
1.00113
1.00352
1.00669
1.01922
1.04266
1.10741
1.28718
1.83126
2.49137
2.68825
2.67947
2.66651
2.68124
2.68972
2.70417
2.70841
2.70883
2.70853
2.70898
1
1.00002
1.00003
1.0001
1.00017
1.00056
1.00101
1.00316
1.00597
1.01711
1.03857
1.09415
1.26246
1.71302
2.45687
2.67506
2.65872
2.65996
2.66739
2.67245
2.68202
2.68737
2.68742
2.68078
2.65599
1
1.00001
1.00002
1.00008
1.00015
1.00045
1.00086
1.00242
1.00533
1.01319
1.03595
1.07896
1.24351
1.60315
2.36795
2.64386
2.65406
2.65196
2.65239
2.65806
2.65747
2.65519
2.64542
2.62395
2.57491
1
1.00003
1.00005
1.00016
1.00029
1.00091
1.00168
1.00493
1.01039
1.02669
1.07237
1.15943
1.50136
2.27452
2.64235
2.73135
2.72554
2.72107
2.73626
2.74783
2.76132
2.76971
2.77586
2.78077
2.78433
1
1.00002
1.00005
1.00016
1.00028
1.00089
1.00165
1.00487
1.01024
1.02632
1.0713
1.15719
1.49384
2.26119
2.63863
2.73126
2.72527
2.7205
2.73552
2.74695
2.76018
2.76829
2.77442
2.77845
2.78113
1
1.00002
1.00005
1.00015
1.00027
1.00087
1.00161
1.00475
1.00993
1.02566
1.069
1.15308
1.47583
2.23012
2.62846
2.72958
2.72345
2.71806
2.73318
2.74435
2.75775
2.76504
2.77116
2.77603
2.7776
1
1.00002
1.00004
1.00015
1.00026
1.00084
1.00154
1.00457
1.00947
1.02464
1.06556
1.14682
1.44867
2.18127
2.61219
2.72643
2.71988
2.71323
2.72805
2.73965
2.75327
2.76132
2.76578
2.76916
2.77289
1
1.00002
1.00004
1.00014
1.00025
1.0008
1.00146
1.00447
1.00884
1.02392
1.05991
1.13851
1.4102
2.1106
2.5889
2.72128
2.71513
2.70546
2.72126
2.72966
2.74399
2.75251
2.75934
2.76324
2.76299
1
1.00002
1.00004
1.00013
1.00024
1.00075
1.00136
1.00424
1.00812
1.02286
1.0534
1.12849
1.36584
2.02097
2.5573
2.71328
2.70691
2.69669
2.71332
2.72338
2.73284
2.74193
2.74609
2.7489
2.75314
1
1.00002
1.00004
1.00012
1.00022
1.00069
1.00125
1.00387
1.00738
1.02106
1.04739
1.11795
1.32033
1.92048
2.51239
2.69721
2.68829
2.67824
2.69497
2.70948
2.72152
2.72682
2.73394
2.73636
2.73328
1
1.00002
1.00003
1.00011
1.0002
1.00062
1.00113
1.00352
1.00669
1.01922
1.04266
1.10741
1.28718
1.83126
2.49137
2.68825
2.67947
2.66651
2.68124
2.68972
2.70417
2.70841
2.70883
2.70853
2.70898
1
1.00002
1.00003
1.0001
1.00017
1.00056
1.00101
1.00316
1.00597
1.01711
1.03857
1.09415
1.26246
1.71301
2.45687
2.67506
2.65872
2.65996
2.66739
2.67245
2.68202
2.68737
2.68742
2.68078
2.65599
1
1.00001
1.00002
1.00008
1.00015
1.00045
1.00086
1.00242
1.00533
1.01319
1.03595
1.07896
1.24351
1.60315
2.36794
2.64386
2.65406
2.65196
2.65239
2.65806
2.65747
2.65519
2.64542
2.62395
2.57491
0.999995
1.00002
1.00004
1.00015
1.00028
1.0009
1.00167
1.00492
1.01038
1.02667
1.07235
1.15939
1.50132
2.2744
2.64229
2.73128
2.72547
2.721
2.73619
2.74775
2.76124
2.76963
2.77578
2.78069
2.78424
0.999995
1.00002
1.00004
1.00015
1.00027
1.00089
1.00164
1.00486
1.01023
1.0263
1.07129
1.15715
1.4938
2.26106
2.63856
2.73119
2.7252
2.72042
2.73545
2.74688
2.7601
2.76821
2.77434
2.77837
2.78105
0.999995
1.00002
1.00004
1.00014
1.00027
1.00086
1.0016
1.00474
1.00992
1.02564
1.06899
1.15304
1.47579
2.22999
2.62839
2.72951
2.72338
2.71799
2.73311
2.74428
2.75768
2.76497
2.77109
2.77595
2.77752
0.999995
1.00002
1.00004
1.00014
1.00026
1.00083
1.00153
1.00456
1.00946
1.02462
1.06554
1.14679
1.44864
2.18114
2.61212
2.72636
2.71981
2.71316
2.72798
2.73957
2.7532
2.76124
2.7657
2.76908
2.77281
0.999995
1.00001
1.00003
1.00013
1.00024
1.00079
1.00145
1.00445
1.00883
1.0239
1.05991
1.13848
1.4102
2.1105
2.58883
2.72121
2.71506
2.70539
2.72119
2.72959
2.74392
2.75244
2.75927
2.76317
2.76291
0.999995
1.00001
1.00003
1.00012
1.00023
1.00074
1.00135
1.00423
1.00811
1.02284
1.05339
1.12846
1.36582
2.02087
2.55724
2.71322
2.70685
2.69662
2.71325
2.72331
2.73277
2.74187
2.74602
2.74882
2.75306
0.999995
1.00001
1.00003
1.00011
1.00021
1.00068
1.00124
1.00386
1.00737
1.02105
1.04738
1.11792
1.3203
1.92038
2.51233
2.69714
2.68822
2.67817
2.69491
2.70942
2.72145
2.72676
2.73388
2.73629
2.73321
0.999995
1.00001
1.00003
1.0001
1.00019
1.00062
1.00112
1.00351
1.00668
1.01921
1.04265
1.10738
1.28716
1.83117
2.49134
2.68819
2.67941
2.66645
2.68117
2.68965
2.7041
2.70835
2.70877
2.70846
2.70891
0.999995
1.00001
1.00002
1.00009
1.00017
1.00055
1.001
1.00315
1.00596
1.0171
1.03856
1.09412
1.26246
1.71291
2.45682
2.675
2.65867
2.65991
2.66733
2.67238
2.68195
2.68731
2.68736
2.68072
2.65593
0.999994
1.00001
1.00002
1.00007
1.00014
1.00045
1.00085
1.00241
1.00532
1.01318
1.03593
1.07894
1.24351
1.60309
2.36788
2.6438
2.65401
2.65191
2.65234
2.65801
2.65741
2.65513
2.64537
2.6239
2.57486
0.999996
1
1.00002
1.00005
1.00017
1.00031
1.00098
1.00189
1.00536
1.01182
1.02958
1.0819
1.17975
1.55206
2.34107
2.58369
2.6393
2.63434
2.63363
2.6381
2.63705
2.62885
2.60636
2.5524
2.35817
0.999996
1
1.00002
1.00004
1.00015
1.00027
1.00087
1.00161
1.00474
1.00995
1.02561
1.06893
1.15263
1.47264
2.21372
2.53898
2.63289
2.62459
2.61231
2.60969
2.60431
2.58812
2.55286
2.48825
2.29093
0.999995
0.999999
1.00001
1.00003
1.00013
1.00023
1.00076
1.00137
1.00429
1.00825
1.02296
1.05478
1.12963
1.37354
2.021
2.4623
2.6177
2.61066
2.59995
2.58965
2.58035
2.56052
2.51442
2.44891
2.29081
0.999995
0.999998
1.00001
1.00003
1.0001
1.00019
1.00062
1.00113
1.00354
1.0067
1.01935
1.04213
1.10831
1.27807
1.82006
2.35954
2.58002
2.57608
2.57211
2.55901
2.54338
2.51824
2.47656
2.42368
2.30369
0.999995
0.999997
1.00001
1.00002
1.00008
1.00015
1.00049
1.00092
1.00281
1.00545
1.01521
1.03494
1.08447
1.23302
1.63233
2.28815
2.54474
2.55465
2.55298
2.54468
2.52444
2.49659
2.43614
2.38992
2.30289
0.999994
0.999997
1
1.00002
1.00004
1.00016
1.0003
1.00092
1.00177
1.00491
1.01106
1.02697
1.07576
1.16253
1.51383
2.22693
2.4626
2.52047
2.51311
2.51008
2.49938
2.47919
2.42876
2.36757
2.29485
0.999994
0.999996
0.999999
1.00002
1.00003
1.00013
1.00024
1.00078
1.00141
1.00435
1.00853
1.02313
1.05712
1.13204
1.38526
2.02698
2.39944
2.50855
2.50029
2.48904
2.46453
2.44405
2.4106
2.35848
2.29097
0.999993
0.999995
0.999997
1.00001
1.00003
1.0001
1.00018
1.00059
1.00109
1.00336
1.00646
1.01839
1.04051
1.10354
1.26373
1.78503
2.25298
2.46822
2.47244
2.46696
2.45139
2.42126
2.38634
2.33909
2.28121
0.999993
0.999994
0.999997
1
1.00002
1.00005
1.00018
1.00034
1.00104
1.00198
1.0057
1.0121
1.03089
1.08239
1.18342
1.53483
2.21181
2.41371
2.43863
2.4298
2.42121
2.4015
2.37364
2.33174
2.2781
0.999992
0.999993
0.999996
0.999999
1.00002
1.00004
1.00013
1.00025
1.00079
1.00148
1.00428
1.00906
1.02308
1.06152
1.13677
1.40851
2.05199
2.34719
2.41949
2.41228
2.39424
2.36869
2.34291
2.31346
2.27037
0.999992
0.999992
0.999994
0.999999
1
1.00003
1.00007
1.00023
1.00043
1.00127
1.00263
1.0068
1.01688
1.03904
1.11192
1.24931
1.71039
2.19926
2.38857
2.39107
2.38115
2.35864
2.32783
2.29513
2.26143
0.999992
0.999992
0.999993
0.999997
1
1.00002
1.00005
1.00017
1.00032
1.001
1.00186
1.00545
1.01131
1.02916
1.07668
1.1702
1.49395
2.11433
2.32681
2.35797
2.35175
2.33649
2.30882
2.27652
2.24132
0.999991
0.999992
0.999993
0.999994
1
1.00001
1.00004
1.00009
1.00028
1.00053
1.00152
1.00327
1.00816
1.0213
1.04796
1.14047
1.31367
1.86268
2.22982
2.33523
2.33338
2.32287
2.30064
2.26763
2.23424
0.999991
0.999991
0.999992
0.999993
0.999998
1
1.00003
1.00006
1.00021
1.00038
1.0012
1.00221
1.00667
1.01324
1.03524
1.08468
1.20934
1.52097
2.10875
2.27843
2.29531
2.29213
2.27953
2.25272
2.2209
0.999991
0.999991
0.999991
0.999993
0.999994
1
1.00001
1.00005
1.0001
1.00034
1.00063
1.0019
1.00369
1.01008
1.02302
1.0553
1.1512
1.36123
1.88043
2.20946
2.2765
2.27446
2.26115
2.24314
2.21047
0.999991
0.999991
0.999991
0.999992
0.999993
0.999998
1
1.00003
1.00007
1.00023
1.00042
1.00131
1.00244
1.00705
1.0147
1.03729
1.0971
1.22031
1.58162
2.04446
2.23304
2.24434
2.23913
2.22383
2.1992
0.999991
0.999991
0.999991
0.999991
0.999993
0.999995
1
1.00001
1.00006
1.00011
1.00036
1.00068
1.00205
1.00396
1.01105
1.02426
1.05951
1.1523
1.39318
1.87747
2.16134
2.22028
2.21893
2.20539
2.18744
0.999991
0.999991
0.999991
0.999991
0.999992
0.999993
0.999999
1.00001
1.00004
1.00007
1.00024
1.00044
1.00137
1.00255
1.00734
1.01528
1.03871
1.09989
1.22864
1.59366
2.00792
2.1759
2.19244
2.18769
2.17297
0.999991
0.999991
0.999991
0.999991
0.999991
0.999993
0.999995
1
1.00001
1.00006
1.00012
1.00037
1.0007
1.00206
1.00405
1.01117
1.02413
1.06187
1.14621
1.41452
1.82749
2.08971
2.15621
2.16153
2.1556
0.999991
0.999991
0.999991
0.999991
0.999991
0.999992
0.999994
0.999997
1.00001
1.00002
1.00009
1.00018
1.00056
1.00105
1.00311
1.00608
1.01654
1.03695
1.09008
1.22733
1.61616
1.95998
2.11049
2.1295
2.12805
0.999991
0.999991
0.999991
0.999991
0.999991
0.999991
0.999993
0.999995
1
1.00001
1.00006
1.00011
1.00036
1.00066
1.00201
1.00378
1.01077
1.0223
1.05749
1.13568
1.3648
1.77352
2.03523
2.10091
2.10755
0.999991
0.999991
0.999991
0.999991
0.999991
0.999991
0.999992
0.999994
0.999996
1.00001
1.00002
1.00009
1.00017
1.00051
1.00096
1.00281
1.00549
1.0149
1.0326
1.08085
1.19532
1.53609
1.8905
2.05971
2.07295
0.999991
0.999991
0.999991
0.999991
0.999991
0.999991
0.999991
0.999993
0.999994
1
1.00001
1.00005
1.0001
1.00032
1.00059
1.00181
1.00331
1.00977
1.01911
1.05108
1.11806
1.30288
1.70498
1.98003
2.05381
0.999991
0.999991
0.999991
0.999991
0.999991
0.999991
0.999991
0.999992
0.999993
0.999997
1
1.00003
1.00006
1.00019
1.00035
1.00107
1.00197
1.00579
1.01127
1.03015
1.06727
1.16757
1.39853
1.82535
2.00337
0.999991
0.999991
0.999991
0.999991
0.999991
0.999991
0.999991
0.999991
0.999992
0.999995
0.999998
1.00001
1.00003
1.00011
1.00021
1.00065
1.00119
1.00354
1.00676
1.01851
1.04143
1.09736
1.2577
1.65781
1.89729
0.999991
0.999991
0.999991
0.999991
0.999991
0.999991
0.999991
0.999991
0.999992
0.999992
0.999996
1
1.00002
1.00005
1.00015
1.00029
1.00086
1.00164
1.00463
1.00948
1.02414
1.05955
1.13273
1.35654
1.77377
0.999991
0.999991
0.999991
0.999991
0.999991
0.999991
0.999991
0.999991
0.999991
0.999992
0.999993
0.999998
1
1.00003
1.00006
1.00021
1.00039
1.00116
1.00223
1.00608
1.01306
1.03176
1.0815
1.17785
1.46997
0.999991
0.999991
0.999991
0.999991
0.999991
0.999991
0.999991
0.999991
0.999991
0.999991
0.999993
0.999994
1
1.00001
1.00005
1.00009
1.00029
1.00055
1.00161
1.00308
1.0086
1.01778
1.0457
1.10525
1.27605
0.999991
0.999991
0.999991
0.999991
0.999991
0.999991
0.999991
0.999991
0.999991
0.999991
0.999992
0.999993
0.999997
1
1.00002
1.00005
1.00016
1.00031
1.00093
1.00172
1.00502
1.00973
1.02593
1.05797
1.14006
0.999991
0.999991
0.999991
0.999991
0.999991
0.999991
0.999991
0.999991
0.999991
0.999991
0.999991
0.999992
0.999993
0.999998
1
1.00003
1.00007
1.00021
1.0004
1.00119
1.00226
1.00627
1.01297
1.03236
1.07806
0.999991
0.999991
0.999991
0.999991
0.999991
0.999991
0.999991
0.999991
0.999991
0.999991
0.999991
0.999991
0.999993
0.999994
1
1.00001
1.00004
1.00009
1.00028
1.00054
1.00156
1.00303
1.00821
1.01722
1.04374
0.999991
0.999991
0.999991
0.999991
0.999991
0.999991
0.999991
0.999991
0.999991
0.999991
0.999991
0.999991
0.999992
0.999993
0.999995
1
1.00002
1.00006
1.00012
1.00037
1.00071
1.00203
1.00395
1.01066
1.02232
0.999991
0.999991
0.999991
0.999991
0.999991
0.999991
0.999991
0.999991
0.999991
0.999991
0.999991
0.999991
0.999991
0.999992
0.999993
0.999998
1
1.00003
1.00007
1.00021
1.0004
1.00118
1.00221
1.00624
1.01226
0.999991
0.999991
0.999991
0.999991
0.999991
0.999991
0.999991
0.999991
0.999991
0.999991
0.999991
0.999991
0.999991
0.999991
0.999993
0.999994
1
1.00001
1.00005
1.0001
1.00031
1.00059
1.00172
1.00333
1.00914
0.999991
0.999991
0.999991
0.999991
0.999991
0.999991
0.999991
0.999991
0.999991
0.999991
0.999991
0.999991
0.999991
0.999991
0.999992
0.999994
0.999997
1.00001
1.00003
1.0001
1.00019
1.00058
1.00109
1.0032
1.00642
0.999991
0.999991
0.999991
0.999991
0.999991
0.999991
0.999991
0.999991
0.999991
0.999991
0.999991
0.999991
0.999991
0.999991
0.999992
0.999993
0.999997
1
1.00003
1.00006
1.0002
1.00039
1.00119
1.00233
1.00652
0.999991
0.999991
0.999991
0.999991
0.999991
0.999991
0.999991
0.999991
0.999991
0.999991
0.999991
0.999991
0.999991
0.999991
0.999991
0.999993
0.999995
1.00001
1.00002
1.00007
1.00014
1.00046
1.00089
1.00254
1.00558
0.999991
0.999991
0.999991
0.999991
0.999991
0.999991
0.999991
0.999991
0.999991
0.999991
0.999991
0.999991
0.999991
0.999991
0.999991
0.999993
0.999995
1
1.00002
1.00007
1.00014
1.00045
1.00086
1.00244
1.00546
0.999991
0.999991
0.999991
0.999991
0.999991
0.999991
0.999991
0.999991
0.999991
0.999991
0.999991
0.999991
0.999991
0.999991
0.999992
0.999993
0.999997
1
1.00003
1.00005
1.00019
1.00036
1.00113
1.00215
1.00626
0.999991
0.999991
0.999991
0.999991
0.999991
0.999991
0.999991
0.999991
0.999991
0.999991
0.999991
0.999991
0.999991
0.999991
0.999992
0.999993
0.999997
1
1.00003
1.00005
1.0002
1.00036
1.00118
1.00216
1.00662
1
1.00001
1.00003
1.00006
1.00017
1.00032
1.00099
1.0019
1.00537
1.01183
1.0296
1.08191
1.17979
1.55208
2.34116
2.58375
2.63936
2.63439
2.63368
2.63815
2.63711
2.62891
2.60642
2.55244
2.35821
1
1.00001
1.00003
1.00005
1.00015
1.00028
1.00087
1.00162
1.00475
1.00996
1.02563
1.06894
1.15266
1.47266
2.21382
2.53904
2.63295
2.62464
2.61236
2.60974
2.60436
2.58817
2.55291
2.48829
2.29096
1
1.00001
1.00002
1.00004
1.00013
1.00024
1.00076
1.00138
1.0043
1.00826
1.02298
1.05479
1.12966
1.37354
2.02107
2.46237
2.61775
2.61071
2.59999
2.5897
2.5804
2.56057
2.51446
2.44895
2.29084
1
1.00001
1.00002
1.00003
1.00011
1.0002
1.00063
1.00114
1.00355
1.00671
1.01937
1.04214
1.10833
1.27809
1.82011
2.3596
2.58008
2.57613
2.57216
2.55905
2.54342
2.51829
2.4766
2.42372
2.30372
1
1
1.00002
1.00003
1.00009
1.00016
1.0005
1.00092
1.00282
1.00546
1.01523
1.03494
1.08449
1.23301
1.63239
2.2882
2.5448
2.5547
2.55303
2.54473
2.52448
2.49662
2.43618
2.38996
2.30293
1
1
1.00001
1.00003
1.00005
1.00017
1.0003
1.00092
1.00178
1.00492
1.01107
1.02699
1.07577
1.16257
1.51385
2.22701
2.46266
2.52052
2.51315
2.51012
2.49942
2.47923
2.4288
2.3676
2.29489
1
1
1.00001
1.00002
1.00004
1.00014
1.00025
1.00078
1.00142
1.00436
1.00854
1.02315
1.05713
1.13207
1.38525
2.02703
2.3995
2.50859
2.50034
2.48909
2.46457
2.44409
2.41064
2.3585
2.291
1
1
1.00001
1.00002
1.00003
1.00011
1.00019
1.0006
1.0011
1.00337
1.00647
1.0184
1.04052
1.10356
1.26375
1.7851
2.25303
2.46827
2.47249
2.46701
2.45143
2.4213
2.38637
2.33912
2.28123
1
1
1.00001
1.00001
1.00003
1.00006
1.00019
1.00034
1.00105
1.00199
1.00571
1.01211
1.03091
1.0824
1.18346
1.53486
2.21187
2.41375
2.43867