/*--------------------------------*- C++ -*----------------------------------*\
| =========                 |                                                 |
| \\      /  F ield         | OpenFOAM: The Open Source CFD Toolbox           |
|  \\    /   O peration     | Version:  4.1                                   |
|   \\  /    A nd           | Web:      www.OpenFOAM.org                      |
|    \\/     M anipulation  |                                                 |
\*---------------------------------------------------------------------------*/
FoamFile
{
    version     2.0;
    format      ascii;
    class       volScalarField;
    location    "4.82";
    object      Ma;
}
// * * * * * * * * * * * * * * * * * * * * * * * * * * * * * * * * * * * * * //

dimensions      [0 0 0 0 0 0 0];

internalField   nonuniform List<scalar> 
52500
(
3.00002
2.99997
2.99991
2.99968
2.99936
2.99805
2.99617
2.98899
2.97696
2.93809
2.8492
2.64451
2.10061
1.26346
0.526565
0.278223
0.329209
0.344481
0.312319
0.25778
0.205391
0.163574
0.122471
0.0769651
0.0437708
3.00002
2.99997
2.99992
2.99969
2.99937
2.99808
2.99623
2.98915
2.97728
2.93897
2.85133
2.64929
2.11123
1.27754
0.533747
0.278079
0.330449
0.34649
0.314537
0.260769
0.209694
0.169391
0.130549
0.0903206
0.0664791
3.00002
2.99997
2.99992
2.9997
2.99939
2.99813
2.99633
2.98942
2.97794
2.94056
2.85579
2.65868
2.13657
1.31028
0.552208
0.281729
0.336283
0.354021
0.322845
0.271129
0.222988
0.186136
0.152206
0.120376
0.104617
3.00002
2.99997
2.99992
2.99971
2.99941
2.99821
2.99648
2.98985
2.97892
2.943
2.86254
2.673
2.17561
1.36193
0.580564
0.288258
0.346009
0.366596
0.336848
0.28811
0.243755
0.211171
0.182755
0.157945
0.146635
3.00002
2.99998
2.99993
2.99972
2.99944
2.99829
2.99665
2.99019
2.98013
2.94547
2.87275
2.69215
2.23106
1.4356
0.6207
0.301494
0.361436
0.385104
0.35677
0.3115
0.270911
0.242557
0.21903
0.199636
0.191388
3.00002
2.99998
2.99993
2.99974
2.99948
2.99839
2.99687
2.99075
2.98155
2.94861
2.88488
2.71518
2.29804
1.5301
0.672492
0.325174
0.384749
0.410343
0.38327
0.341234
0.304468
0.280056
0.261348
0.246909
0.241536
3.00002
2.99998
2.99994
2.99977
2.99952
2.99853
2.99713
2.99155
2.98316
2.95294
2.89662
2.73977
2.37019
1.64134
0.73499
0.363553
0.419272
0.443384
0.417355
0.378596
0.34507
0.324478
0.31025
0.301262
0.301129
3.00002
2.99999
2.99995
2.99979
2.99957
2.99867
2.9974
2.99233
2.98473
2.95713
2.90654
2.7626
2.42723
1.7337
0.790948
0.399069
0.448524
0.469779
0.449963
0.418725
0.390614
0.375159
0.36732
0.366158
0.375895
3.00002
2.99999
2.99996
2.99982
2.99962
2.99881
2.99768
2.99313
2.98636
2.96162
2.91595
2.78843
2.47546
1.84334
0.871334
0.456323
0.472587
0.485239
0.479054
0.458222
0.438825
0.430728
0.431515
0.444277
0.478538
3.00002
3
2.99997
2.99985
2.99969
2.99903
2.99805
2.99453
2.98822
2.96895
2.92381
2.81731
2.51826
1.95864
0.983055
0.528205
0.48954
0.502233
0.506779
0.496147
0.488209
0.489814
0.506302
0.548288
0.648329
3
2.99995
2.9999
2.99966
2.99934
2.99803
2.99615
2.98897
2.97694
2.93806
2.84917
2.64444
2.10054
1.26333
0.526429
0.278018
0.329023
0.344296
0.312112
0.257527
0.20507
0.163164
0.121915
0.076064
0.0421416
3
2.99995
2.9999
2.99967
2.99935
2.99806
2.99621
2.98913
2.97726
2.93894
2.85129
2.64922
2.11115
1.27741
0.533612
0.277874
0.330264
0.346307
0.314333
0.260521
0.209382
0.168999
0.130033
0.0895635
0.0654336
3
2.99996
2.9999
2.99968
2.99937
2.99811
2.99631
2.9894
2.97792
2.94052
2.85576
2.65861
2.1365
1.31015
0.552079
0.281526
0.336101
0.353842
0.322646
0.270891
0.222697
0.185783
0.151769
0.119816
0.103966
3
2.99996
2.9999
2.99969
2.99939
2.99819
2.99646
2.98982
2.9789
2.94296
2.8625
2.67294
2.17553
1.3618
0.580439
0.288056
0.345829
0.366421
0.336657
0.287886
0.243489
0.210862
0.182396
0.157526
0.146179
3
2.99996
2.99991
2.99971
2.99942
2.99826
2.99663
2.99017
2.9801
2.94543
2.87273
2.69209
2.23103
1.43549
0.620603
0.301318
0.361276
0.384948
0.356598
0.3113
0.270678
0.242293
0.218734
0.199309
0.191045
3
2.99996
2.99992
2.99972
2.99946
2.99837
2.99685
2.99073
2.98153
2.94858
2.88485
2.71512
2.29799
1.52999
0.672395
0.325006
0.3846
0.4102
0.383116
0.341057
0.304265
0.279832
0.261105
0.24665
0.241269
3
2.99997
2.99992
2.99975
2.9995
2.99851
2.99711
2.99153
2.98314
2.95291
2.89659
2.73971
2.37013
1.64123
0.734893
0.363392
0.419131
0.443251
0.417214
0.37844
0.344896
0.32429
0.310051
0.301055
0.30092
3
2.99997
2.99993
2.99977
2.99955
2.99865
2.99738
2.9923
2.98471
2.9571
2.90652
2.76255
2.42719
1.7336
0.790869
0.398928
0.448401
0.46966
0.449836
0.418587
0.390464
0.375001
0.367157
0.365992
0.375732
3
2.99997
2.99994
2.9998
2.9996
2.99879
2.99766
2.9931
2.98634
2.96159
2.91592
2.78838
2.47543
1.84325
0.871254
0.456191
0.472476
0.48513
0.47894
0.4581
0.438696
0.430596
0.431381
0.444146
0.478416
3
2.99998
2.99995
2.99983
2.99967
2.99901
2.99803
2.99451
2.9882
2.96892
2.92379
2.81727
2.51823
1.95856
0.982977
0.528085
0.489434
0.502129
0.506674
0.496038
0.488098
0.489702
0.506193
0.548187
0.648244
3
2.99995
2.9999
2.99966
2.99934
2.99803
2.99615
2.98897
2.97694
2.93806
2.84917
2.64444
2.10054
1.26333
0.526428
0.27802
0.329024
0.344297
0.312113
0.257528
0.20507
0.163165
0.121916
0.0760646
0.042142
3
2.99995
2.9999
2.99967
2.99935
2.99806
2.99621
2.98913
2.97726
2.93894
2.85129
2.64922
2.11115
1.27741
0.533611
0.277875
0.330264
0.346307
0.314333
0.260521
0.209382
0.168999
0.130033
0.0895638
0.065434
3
2.99996
2.9999
2.99968
2.99937
2.99811
2.99631
2.9894
2.97792
2.94052
2.85576
2.65861
2.1365
1.31014
0.552077
0.281527
0.336101
0.353842
0.322646
0.270891
0.222697
0.185783
0.151769
0.119817
0.103966
3
2.99996
2.9999
2.99969
2.99939
2.99819
2.99646
2.98982
2.9789
2.94296
2.8625
2.67293
2.17553
1.36179
0.580437
0.288057
0.345829
0.366421
0.336657
0.287886
0.243489
0.210862
0.182396
0.157526
0.146179
3
2.99996
2.99991
2.99971
2.99942
2.99826
2.99663
2.99017
2.9801
2.94543
2.87273
2.69209
2.23103
1.43549
0.620601
0.301319
0.361276
0.384947
0.356597
0.3113
0.270677
0.242293
0.218734
0.199309
0.191045
3
2.99996
2.99992
2.99972
2.99946
2.99837
2.99685
2.99073
2.98153
2.94858
2.88485
2.71512
2.29799
1.52998
0.672393
0.325006
0.3846
0.4102
0.383115
0.341057
0.304265
0.279832
0.261105
0.24665
0.241269
3
2.99997
2.99992
2.99975
2.9995
2.99851
2.99711
2.99153
2.98314
2.95291
2.89659
2.73971
2.37013
1.64122
0.734891
0.363391
0.41913
0.44325
0.417213
0.378439
0.344895
0.32429
0.31005
0.301055
0.30092
3
2.99997
2.99993
2.99977
2.99955
2.99865
2.99738
2.9923
2.98471
2.9571
2.90652
2.76255
2.42719
1.7336
0.790868
0.398928
0.448401
0.469659
0.449836
0.418586
0.390464
0.375001
0.367157
0.365992
0.375733
3
2.99997
2.99994
2.9998
2.9996
2.99879
2.99766
2.9931
2.98634
2.96159
2.91592
2.78838
2.47543
1.84324
0.871252
0.45619
0.472476
0.48513
0.47894
0.4581
0.438696
0.430595
0.431381
0.444146
0.478416
3
2.99998
2.99995
2.99983
2.99967
2.99901
2.99803
2.99451
2.9882
2.96892
2.92379
2.81727
2.51823
1.95856
0.982975
0.528084
0.489434
0.502129
0.506674
0.496038
0.488097
0.489701
0.506193
0.548187
0.648244
3
2.99995
2.9999
2.99966
2.99934
2.99803
2.99615
2.98897
2.97694
2.93806
2.84917
2.64444
2.10054
1.26333
0.526428
0.27802
0.329024
0.344297
0.312113
0.257528
0.20507
0.163165
0.121916
0.0760646
0.0421421
3
2.99995
2.9999
2.99967
2.99935
2.99806
2.99621
2.98913
2.97726
2.93894
2.85129
2.64922
2.11115
1.27741
0.533611
0.277875
0.330264
0.346307
0.314333
0.260521
0.209382
0.168999
0.130033
0.0895638
0.0654341
3
2.99996
2.9999
2.99968
2.99937
2.99811
2.99631
2.9894
2.97792
2.94052
2.85576
2.65861
2.1365
1.31014
0.552077
0.281527
0.336101
0.353842
0.322646
0.270891
0.222697
0.185783
0.151769
0.119817
0.103966
3
2.99996
2.9999
2.99969
2.99939
2.99819
2.99646
2.98982
2.9789
2.94296
2.8625
2.67293
2.17553
1.36179
0.580437
0.288057
0.345829
0.366421
0.336657
0.287886
0.243489
0.210862
0.182396
0.157526
0.146179
3
2.99996
2.99991
2.99971
2.99942
2.99826
2.99663
2.99017
2.9801
2.94543
2.87273
2.69209
2.23103
1.43549
0.620601
0.301319
0.361276
0.384947
0.356597
0.3113
0.270677
0.242293
0.218734
0.199309
0.191045
3
2.99996
2.99992
2.99972
2.99946
2.99837
2.99685
2.99073
2.98153
2.94858
2.88485
2.71512
2.29798
1.52998
0.672393
0.325006
0.3846
0.4102
0.383115
0.341057
0.304265
0.279832
0.261105
0.24665
0.241269
3
2.99997
2.99992
2.99975
2.9995
2.99851
2.99711
2.99153
2.98314
2.95291
2.89659
2.73971
2.37013
1.64122
0.734891
0.363391
0.41913
0.44325
0.417213
0.378439
0.344895
0.32429
0.31005
0.301055
0.30092
3
2.99997
2.99993
2.99977
2.99955
2.99865
2.99738
2.9923
2.98471
2.9571
2.90652
2.76255
2.42719
1.7336
0.790868
0.398929
0.448401
0.469659
0.449836
0.418586
0.390464
0.375001
0.367157
0.365992
0.375733
3
2.99997
2.99994
2.9998
2.9996
2.99879
2.99766
2.9931
2.98634
2.96159
2.91592
2.78838
2.47543
1.84324
0.871252
0.45619
0.472476
0.48513
0.47894
0.4581
0.438696
0.430595
0.431381
0.444146
0.478416
3
2.99998
2.99995
2.99983
2.99967
2.99901
2.99803
2.99451
2.9882
2.96892
2.92379
2.81727
2.51823
1.95856
0.982974
0.528084
0.489434
0.502129
0.506674
0.496038
0.488097
0.489701
0.506193
0.548187
0.648244
3
2.99995
2.9999
2.99966
2.99934
2.99803
2.99615
2.98897
2.97694
2.93806
2.84917
2.64444
2.10054
1.26333
0.526428
0.27802
0.329024
0.344296
0.312113
0.257528
0.20507
0.163165
0.121916
0.0760646
0.042142
3
2.99995
2.9999
2.99967
2.99935
2.99806
2.99621
2.98913
2.97726
2.93894
2.85129
2.64922
2.11115
1.27741
0.533611
0.277875
0.330264
0.346307
0.314333
0.260521
0.209382
0.168999
0.130033
0.0895637
0.065434
3
2.99996
2.9999
2.99968
2.99937
2.99811
2.99631
2.9894
2.97792
2.94052
2.85576
2.65861
2.1365
1.31014
0.552077
0.281527
0.336101
0.353841
0.322646
0.270891
0.222697
0.185783
0.151769
0.119817
0.103966
3
2.99996
2.9999
2.99969
2.99939
2.99819
2.99646
2.98982
2.9789
2.94296
2.8625
2.67293
2.17553
1.36179
0.580437
0.288057
0.345829
0.366421
0.336656
0.287886
0.243489
0.210862
0.182396
0.157526
0.146179
3
2.99996
2.99991
2.99971
2.99942
2.99826
2.99663
2.99017
2.9801
2.94543
2.87273
2.69209
2.23102
1.43548
0.6206
0.301319
0.361276
0.384947
0.356597
0.3113
0.270677
0.242293
0.218734
0.199309
0.191045
3
2.99996
2.99992
2.99972
2.99946
2.99837
2.99685
2.99073
2.98153
2.94858
2.88485
2.71512
2.29798
1.52998
0.672393
0.325006
0.3846
0.4102
0.383115
0.341057
0.304265
0.279832
0.261105
0.24665
0.241269
3
2.99997
2.99992
2.99975
2.9995
2.99851
2.99711
2.99153
2.98314
2.95291
2.89659
2.73971
2.37013
1.64122
0.734891
0.363391
0.41913
0.44325
0.417213
0.378439
0.344895
0.32429
0.31005
0.301055
0.30092
3
2.99997
2.99993
2.99977
2.99955
2.99865
2.99738
2.9923
2.98471
2.9571
2.90652
2.76255
2.42719
1.7336
0.790868
0.398928
0.448401
0.469659
0.449836
0.418586
0.390464
0.375001
0.367157
0.365992
0.375732
3
2.99997
2.99994
2.9998
2.9996
2.99879
2.99766
2.9931
2.98634
2.96159
2.91592
2.78838
2.47543
1.84324
0.871252
0.45619
0.472476
0.48513
0.47894
0.4581
0.438695
0.430595
0.43138
0.444146
0.478416
3
2.99998
2.99995
2.99983
2.99967
2.99901
2.99803
2.99451
2.9882
2.96892
2.92379
2.81727
2.51823
1.95856
0.982974
0.528084
0.489434
0.502129
0.506674
0.496038
0.488097
0.489701
0.506192
0.548186
0.648244
3
2.99995
2.9999
2.99966
2.99934
2.99803
2.99615
2.98897
2.97694
2.93806
2.84917
2.64444
2.10054
1.26333
0.526428
0.27802
0.329024
0.344296
0.312113
0.257528
0.20507
0.163165
0.121916
0.0760645
0.042142
3
2.99995
2.9999
2.99967
2.99935
2.99806
2.99621
2.98913
2.97726
2.93894
2.85129
2.64922
2.11115
1.27741
0.533611
0.277875
0.330264
0.346307
0.314333
0.260521
0.209382
0.168999
0.130033
0.0895637
0.065434
3
2.99996
2.9999
2.99968
2.99937
2.99811
2.99631
2.9894
2.97792
2.94052
2.85576
2.65861
2.1365
1.31014
0.552077
0.281527
0.336101
0.353841
0.322646
0.270891
0.222697
0.185783
0.151769
0.119817
0.103966
3
2.99996
2.9999
2.99969
2.99939
2.99819
2.99646
2.98982
2.9789
2.94296
2.8625
2.67293
2.17553
1.36179
0.580437
0.288057
0.345829
0.366421
0.336656
0.287886
0.243489
0.210862
0.182396
0.157526
0.146179
3
2.99996
2.99991
2.99971
2.99942
2.99826
2.99663
2.99017
2.9801
2.94543
2.87273
2.69209
2.23102
1.43548
0.6206
0.301319
0.361276
0.384947
0.356597
0.3113
0.270677
0.242293
0.218734
0.199309
0.191045
3
2.99996
2.99992
2.99972
2.99946
2.99837
2.99685
2.99073
2.98153
2.94858
2.88485
2.71512
2.29798
1.52998
0.672393
0.325006
0.3846
0.4102
0.383115
0.341057
0.304265
0.279832
0.261105
0.24665
0.241269
3
2.99997
2.99992
2.99975
2.9995
2.99851
2.99711
2.99153
2.98314
2.95291
2.89659
2.73971
2.37013
1.64122
0.734891
0.363391
0.41913
0.44325
0.417213
0.378439
0.344895
0.32429
0.31005
0.301055
0.30092
3
2.99997
2.99993
2.99977
2.99955
2.99865
2.99738
2.9923
2.98471
2.9571
2.90652
2.76255
2.42719
1.7336
0.790868
0.398928
0.448401
0.469659
0.449836
0.418586
0.390464
0.375001
0.367157
0.365992
0.375732
3
2.99997
2.99994
2.9998
2.9996
2.99879
2.99766
2.9931
2.98634
2.96159
2.91592
2.78838
2.47543
1.84324
0.871252
0.45619
0.472476
0.48513
0.47894
0.4581
0.438695
0.430595
0.43138
0.444146
0.478416
3
2.99998
2.99995
2.99983
2.99967
2.99901
2.99803
2.99451
2.9882
2.96892
2.92379
2.81727
2.51823
1.95856
0.982974
0.528084
0.489434
0.502129
0.506674
0.496038
0.488097
0.489701
0.506192
0.548186
0.648244
3
2.99995
2.9999
2.99966
2.99934
2.99803
2.99615
2.98897
2.97694
2.93806
2.84917
2.64444
2.10054
1.26333
0.526428
0.27802
0.329024
0.344297
0.312113
0.257528
0.20507
0.163165
0.121916
0.0760646
0.0421421
3
2.99995
2.9999
2.99967
2.99935
2.99806
2.99621
2.98913
2.97726
2.93894
2.85129
2.64922
2.11115
1.27741
0.533611
0.277875
0.330264
0.346307
0.314333
0.260521
0.209382
0.168999
0.130033
0.0895638
0.0654341
3
2.99996
2.9999
2.99968
2.99937
2.99811
2.99631
2.9894
2.97792
2.94052
2.85576
2.65861
2.1365
1.31014
0.552077
0.281527
0.336101
0.353841
0.322646
0.270891
0.222697
0.185783
0.151769
0.119817
0.103966
3
2.99996
2.9999
2.99969
2.99939
2.99819
2.99646
2.98982
2.9789
2.94296
2.8625
2.67293
2.17553
1.36179
0.580437
0.288057
0.345829
0.366421
0.336657
0.287886
0.243489
0.210862
0.182396
0.157526
0.146179
3
2.99996
2.99991
2.99971
2.99942
2.99826
2.99663
2.99017
2.9801
2.94543
2.87273
2.69209
2.23103
1.43549
0.620601
0.301319
0.361276
0.384947
0.356597
0.3113
0.270677
0.242293
0.218734
0.199309
0.191045
3
2.99996
2.99992
2.99972
2.99946
2.99837
2.99685
2.99073
2.98153
2.94858
2.88485
2.71512
2.29798
1.52998
0.672393
0.325006
0.3846
0.4102
0.383115
0.341057
0.304265
0.279832
0.261105
0.24665
0.241269
3
2.99997
2.99992
2.99975
2.9995
2.99851
2.99711
2.99153
2.98314
2.95291
2.89659
2.73971
2.37013
1.64122
0.734891
0.363391
0.41913
0.44325
0.417213
0.378439
0.344895
0.32429
0.31005
0.301055
0.30092
3
2.99997
2.99993
2.99977
2.99955
2.99865
2.99738
2.9923
2.98471
2.9571
2.90652
2.76255
2.42719
1.7336
0.790868
0.398928
0.448401
0.469659
0.449836
0.418586
0.390464
0.375001
0.367157
0.365992
0.375733
3
2.99997
2.99994
2.9998
2.9996
2.99879
2.99766
2.9931
2.98634
2.96159
2.91592
2.78838
2.47543
1.84324
0.871252
0.45619
0.472476
0.48513
0.47894
0.4581
0.438696
0.430595
0.431381
0.444146
0.478416
3
2.99998
2.99995
2.99983
2.99967
2.99901
2.99803
2.99451
2.9882
2.96892
2.92379
2.81727
2.51823
1.95856
0.982974
0.528084
0.489434
0.502129
0.506674
0.496038
0.488097
0.489701
0.506193
0.548187
0.648244
3
2.99995
2.9999
2.99966
2.99934
2.99803
2.99615
2.98897
2.97694
2.93806
2.84917
2.64444
2.10054
1.26333
0.526428
0.27802
0.329024
0.344297
0.312113
0.257528
0.20507
0.163165
0.121916
0.0760646
0.042142
3
2.99995
2.9999
2.99967
2.99935
2.99806
2.99621
2.98913
2.97726
2.93894
2.85129
2.64922
2.11115
1.27741
0.533611
0.277875
0.330264
0.346307
0.314333
0.260521
0.209382
0.168999
0.130033
0.0895637
0.065434
3
2.99996
2.9999
2.99968
2.99937
2.99811
2.99631
2.9894
2.97792
2.94052
2.85576
2.65861
2.1365
1.31014
0.552077
0.281527
0.336101
0.353842
0.322646
0.270891
0.222697
0.185783
0.151769
0.119817
0.103966
3
2.99996
2.9999
2.99969
2.99939
2.99819
2.99646
2.98982
2.9789
2.94296
2.8625
2.67293
2.17553
1.36179
0.580437
0.288057
0.345829
0.366421
0.336657
0.287886
0.243489
0.210862
0.182396
0.157526
0.146179
3
2.99996
2.99991
2.99971
2.99942
2.99826
2.99663
2.99017
2.9801
2.94543
2.87273
2.69209
2.23103
1.43549
0.620601
0.301319
0.361276
0.384947
0.356597
0.3113
0.270677
0.242293
0.218734
0.199309
0.191045
3
2.99996
2.99992
2.99972
2.99946
2.99837
2.99685
2.99073
2.98153
2.94858
2.88485
2.71512
2.29799
1.52998
0.672393
0.325006
0.3846
0.4102
0.383115
0.341057
0.304265
0.279832
0.261105
0.24665
0.241269
3
2.99997
2.99992
2.99975
2.9995
2.99851
2.99711
2.99153
2.98314
2.95291
2.89659
2.73971
2.37013
1.64122
0.734891
0.363391
0.41913
0.44325
0.417213
0.378439
0.344895
0.32429
0.31005
0.301055
0.30092
3
2.99997
2.99993
2.99977
2.99955
2.99865
2.99738
2.9923
2.98471
2.9571
2.90652
2.76255
2.42719
1.7336
0.790868
0.398928
0.448401
0.469659
0.449836
0.418586
0.390464
0.375001
0.367157
0.365992
0.375733
3
2.99997
2.99994
2.9998
2.9996
2.99879
2.99766
2.9931
2.98634
2.96159
2.91592
2.78838
2.47543
1.84324
0.871252
0.45619
0.472476
0.48513
0.47894
0.4581
0.438696
0.430595
0.431381
0.444146
0.478416
3
2.99998
2.99995
2.99983
2.99967
2.99901
2.99803
2.99451
2.9882
2.96892
2.92379
2.81727
2.51823
1.95856
0.982975
0.528084
0.489434
0.502129
0.506674
0.496038
0.488097
0.489701
0.506193
0.548187
0.648244
3
2.99995
2.9999
2.99966
2.99934
2.99803
2.99615
2.98897
2.97694
2.93806
2.84917
2.64444
2.10054
1.26333
0.526429
0.278018
0.329023
0.344296
0.312112
0.257527
0.20507
0.163164
0.121915
0.076064
0.0421416
3
2.99995
2.9999
2.99967
2.99935
2.99806
2.99621
2.98913
2.97726
2.93894
2.85129
2.64922
2.11115
1.27741
0.533612
0.277874
0.330264
0.346307
0.314333
0.260521
0.209382
0.168999
0.130033
0.0895635
0.0654336
3
2.99996
2.9999
2.99968
2.99937
2.99811
2.99631
2.9894
2.97792
2.94052
2.85576
2.65861
2.1365
1.31015
0.552079
0.281526
0.336101
0.353842
0.322646
0.270891
0.222697
0.185783
0.151769
0.119816
0.103966
3
2.99996
2.9999
2.99969
2.99939
2.99819
2.99646
2.98982
2.9789
2.94296
2.8625
2.67294
2.17553
1.3618
0.580439
0.288056
0.345829
0.366421
0.336657
0.287886
0.243489
0.210862
0.182396
0.157526
0.146179
3
2.99996
2.99991
2.99971
2.99942
2.99826
2.99663
2.99017
2.9801
2.94543
2.87273
2.69209
2.23103
1.43549
0.620603
0.301318
0.361276
0.384948
0.356598
0.3113
0.270678
0.242293
0.218734
0.199309
0.191045
3
2.99996
2.99992
2.99972
2.99946
2.99837
2.99685
2.99073
2.98153
2.94858
2.88485
2.71512
2.29799
1.52999
0.672395
0.325006
0.3846
0.4102
0.383116
0.341057
0.304265
0.279832
0.261105
0.24665
0.241269
3
2.99997
2.99992
2.99975
2.9995
2.99851
2.99711
2.99153
2.98314
2.95291
2.89659
2.73971
2.37013
1.64123
0.734893
0.363392
0.419131
0.443251
0.417214
0.37844
0.344896
0.32429
0.31005
0.301055
0.30092
3
2.99997
2.99993
2.99977
2.99955
2.99865
2.99738
2.9923
2.98471
2.9571
2.90652
2.76255
2.42719
1.7336
0.790869
0.398928
0.448401
0.46966
0.449836
0.418587
0.390464
0.375001
0.367157
0.365992
0.375732
3
2.99997
2.99994
2.9998
2.9996
2.99879
2.99766
2.9931
2.98634
2.96159
2.91592
2.78838
2.47543
1.84325
0.871254
0.456191
0.472476
0.48513
0.47894
0.4581
0.438696
0.430596
0.431381
0.444146
0.478416
3
2.99998
2.99995
2.99983
2.99967
2.99901
2.99803
2.99451
2.9882
2.96892
2.92379
2.81727
2.51823
1.95856
0.982977
0.528085
0.489434
0.502129
0.506674
0.496038
0.488098
0.489702
0.506193
0.548187
0.648244
3.00002
2.99997
2.99991
2.99968
2.99936
2.99805
2.99617
2.98899
2.97696
2.93809
2.8492
2.64451
2.10061
1.26346
0.526565
0.278223
0.329209
0.344481
0.312319
0.25778
0.205391
0.163574
0.122471
0.0769652
0.0437708
3.00002
2.99997
2.99992
2.99969
2.99937
2.99808
2.99623
2.98915
2.97728
2.93897
2.85133
2.64929
2.11123
1.27754
0.533747
0.278079
0.330449
0.346491
0.314537
0.260769
0.209694
0.169391
0.130549
0.0903206
0.0664791
3.00002
2.99997
2.99992
2.9997
2.99939
2.99813
2.99633
2.98942
2.97794
2.94056
2.85579
2.65868
2.13657
1.31028
0.552208
0.281729
0.336283
0.354021
0.322845
0.271129
0.222988
0.186136
0.152206
0.120376
0.104617
3.00002
2.99997
2.99992
2.99971
2.99941
2.99821
2.99648
2.98985
2.97892
2.943
2.86254
2.673
2.17561
1.36193
0.580564
0.288258
0.346009
0.366596
0.336848
0.28811
0.243755
0.211171
0.182755
0.157945
0.146635
3.00002
2.99998
2.99993
2.99972
2.99944
2.99829
2.99665
2.99019
2.98013
2.94547
2.87275
2.69215
2.23106
1.4356
0.6207
0.301494
0.361436
0.385104
0.35677
0.3115
0.270911
0.242557
0.21903
0.199636
0.191388
3.00002
2.99998
2.99993
2.99974
2.99948
2.99839
2.99687
2.99075
2.98155
2.94861
2.88488
2.71518
2.29804
1.5301
0.672492
0.325174
0.384749
0.410343
0.38327
0.341234
0.304468
0.280056
0.261348
0.246909
0.241536
3.00002
2.99998
2.99994
2.99977
2.99952
2.99853
2.99713
2.99155
2.98316
2.95294
2.89662
2.73977
2.37019
1.64134
0.73499
0.363553
0.419272
0.443384
0.417355
0.378596
0.34507
0.324478
0.31025
0.301262
0.301129
3.00002
2.99999
2.99995
2.99979
2.99957
2.99867
2.9974
2.99233
2.98473
2.95713
2.90654
2.7626
2.42723
1.7337
0.790948
0.399069
0.448524
0.469779
0.449963
0.418725
0.390614
0.375159
0.36732
0.366158
0.375895
3.00002
2.99999
2.99996
2.99982
2.99962
2.99881
2.99768
2.99313
2.98636
2.96162
2.91595
2.78843
2.47546
1.84334
0.871334
0.456323
0.472587
0.48524
0.479054
0.458222
0.438825
0.430728
0.431515
0.444278
0.478538
3.00002
3
2.99997
2.99985
2.99969
2.99903
2.99805
2.99453
2.98822
2.96895
2.92381
2.81731
2.51826
1.95864
0.983055
0.528205
0.48954
0.502233
0.506779
0.496147
0.488209
0.489814
0.506302
0.548288
0.648329
3.00002
3.00001
2.99996
2.9999
2.99965
2.99928
2.99785
2.99569
2.98789
2.97389
2.9312
2.82996
2.60462
2.02232
1.16083
0.617446
0.512926
0.525481
0.536593
0.535052
0.536533
0.550463
0.588588
0.671797
0.847815
3.00002
3.00001
2.99997
2.99991
2.99969
2.99938
2.99812
2.99631
2.98941
2.97787
2.94059
2.85578
2.6596
2.14103
1.32721
0.708625
0.535625
0.550107
0.567768
0.574994
0.585168
0.611606
0.66723
0.769955
0.954097
3.00002
3.00001
2.99998
2.99993
2.99974
2.99947
2.99837
2.99682
2.99061
2.98128
2.94814
2.88232
2.71188
2.28676
1.52696
0.81705
0.571291
0.58406
0.602595
0.615954
0.632489
0.66689
0.730686
0.83206
0.988991
3.00002
3.00001
2.99999
2.99995
2.99979
2.99956
2.99866
2.99737
2.99227
2.98465
2.95696
2.90698
2.76265
2.43963
1.75794
0.938964
0.627453
0.631825
0.646245
0.662386
0.68162
0.718467
0.780668
0.871152
1.00204
3.00002
3.00002
2.99999
2.99996
2.99983
2.99965
2.99893
2.99788
2.99382
2.98756
2.96557
2.92379
2.80915
2.52819
1.94514
1.05869
0.6922
0.672368
0.686435
0.703864
0.725548
0.761867
0.822684
0.902111
1.01119
3.00002
3.00002
3.00001
2.99996
2.9999
2.99967
2.99932
2.99799
2.99596
2.98881
2.97562
2.93672
2.84244
2.63584
2.08547
1.27262
0.796396
0.70791
0.720391
0.738767
0.764224
0.799159
0.853923
0.927631
1.02073
3.00002
3.00002
3.00001
2.99997
2.99993
2.99973
2.99945
2.99832
2.99673
2.99044
2.98073
2.94727
2.87783
2.70569
2.2687
1.5161
0.916448
0.743179
0.749025
0.768451
0.798736
0.834377
0.882637
0.948442
1.0294
3.00002
3.00002
3.00001
2.99999
2.99995
2.9998
2.99958
2.99871
2.99746
2.99261
2.98517
2.95882
2.91024
2.77181
2.46316
1.79683
1.07114
0.80339
0.789489
0.803217
0.830477
0.866692
0.911191
0.969256
1.0401
3.00002
3.00002
3.00001
3
2.99996
2.99989
2.99962
2.99923
2.99771
2.99545
2.98719
2.97302
2.92858
2.8274
2.60017
2.04215
1.2502
0.877633
0.830766
0.841802
0.864561
0.897837
0.937044
0.98765
1.04976
3.00003
3.00002
3.00002
3.00001
2.99997
2.99992
2.99972
2.99943
2.99829
2.9966
2.99039
2.97978
2.9463
2.87018
2.69396
2.23636
1.48456
0.990029
0.86975
0.873422
0.894102
0.926852
0.964084
1.00758
1.06116
3.00003
3.00003
3.00002
3.00001
3
2.99994
2.99985
2.99951
2.99901
2.99716
2.99408
2.98416
2.96326
2.90883
2.76689
2.48029
1.8032
1.1657
0.931092
0.912044
0.924134
0.95163
0.987845
1.02843
1.07438
3.00003
3.00003
3.00002
3.00002
3
2.99996
2.99989
2.99964
2.99927
2.99782
2.99571
2.98779
2.97467
2.93258
2.83872
2.62657
2.09826
1.35434
1.00851
0.952057
0.958987
0.980157
1.01222
1.04986
1.09169
3.00003
3.00003
3.00003
3.00002
3.00001
2.99999
2.99992
2.99981
2.9994
2.99878
2.99657
2.99271
2.98079
2.95413
2.88812
2.71201
2.3667
1.60868
1.14033
0.998031
0.992251
1.00496
1.03242
1.06838
1.10784
3.00003
3.00003
3.00003
3.00002
3.00001
3
2.99995
2.99987
2.99956
2.99912
2.99737
2.99486
2.98527
2.97001
2.92038
2.81744
2.56309
2.02452
1.32722
1.06999
1.03439
1.0388
1.05875
1.08994
1.12566
3.00003
3.00003
3.00003
3.00002
3.00002
3.00001
2.99998
2.99989
2.99977
2.99927
2.99855
2.99581
2.99155
2.97698
2.94928
2.87293
2.68627
2.29706
1.55823
1.16889
1.07161
1.06858
1.08234
1.10909
1.14338
3.00003
3.00003
3.00003
3.00003
3.00002
3.00001
3
2.99994
2.99985
2.99951
2.99902
2.99713
2.99435
2.98415
2.96702
2.91409
2.79453
2.53409
1.93549
1.34825
1.13247
1.10568
1.11156
1.13244
1.16222
3.00003
3.00003
3.00003
3.00003
3.00002
3.00002
3
2.99998
2.99988
2.99974
2.99921
2.99842
2.99546
2.99086
2.97503
2.94582
2.86469
2.67635
2.25446
1.56099
1.22141
1.14355
1.14092
1.15447
1.17972
3.00003
3.00003
3.00003
3.00003
3.00003
3.00002
3.00001
3
2.99993
2.99984
2.99948
2.99897
2.99699
2.99409
2.98347
2.96565
2.91089
2.78813
2.51925
1.92069
1.39048
1.20054
1.17485
1.18064
1.2001
3.00003
3.00003
3.00003
3.00003
3.00003
3.00002
3.00002
3
2.99998
2.99988
2.99973
2.9992
2.99838
2.99541
2.99066
2.97477
2.94543
2.86127
2.68463
2.23934
1.61337
1.29638
1.21807
1.21177
1.221
3.00003
3.00003
3.00003
3.00003
3.00003
3.00003
3.00002
3.00001
2.99999
2.99995
2.9998
2.99958
2.99877
2.99755
2.99309
2.986
2.96249
2.9176
2.79869
2.5284
1.96131
1.44895
1.27131
1.24448
1.24753
3.00003
3.00003
3.00003
3.00003
3.00003
3.00003
3.00002
3.00002
3
2.99998
2.99988
2.99975
2.99922
2.99846
2.99557
2.99123
2.97587
2.94929
2.87072
2.70609
2.30689
1.68703
1.3667
1.28411
1.2752
3.00003
3.00003
3.00003
3.00003
3.00003
3.00003
3.00003
3.00002
3.00002
2.99999
2.99996
2.99982
2.99962
2.99888
2.99776
2.99374
2.98733
2.96617
2.9266
2.81861
2.58577
2.06154
1.53623
1.33853
1.30879
3.00003
3.00003
3.00003
3.00003
3.00003
3.00003
3.00003
3.00002
3.00002
3.00001
2.99998
2.9999
2.99977
2.9993
2.99863
2.99606
2.99225
2.9787
2.95525
2.8868
2.73756
2.39784
1.78616
1.4356
1.34147
3.00003
3.00003
3.00003
3.00003
3.00003
3.00003
3.00003
3.00003
3.00002
3.00001
3
2.99995
2.99988
2.99959
2.99919
2.99765
2.9954
2.98719
2.97403
2.93234
2.84943
2.64402
2.20563
1.63477
1.40821
3.00003
3.00003
3.00003
3.00003
3.00003
3.00003
3.00003
3.00003
3.00003
3.00002
3.00001
2.99998
2.99994
2.99977
2.99952
2.99859
2.99723
2.99216
2.98442
2.9581
2.90844
2.78088
2.47523
1.90965
1.52852
3.00003
3.00003
3.00003
3.00003
3.00003
3.00003
3.00003
3.00003
3.00003
3.00003
3.00002
3.00001
2.99996
2.9999
2.99967
2.99933
2.99809
2.9962
2.98957
2.97848
2.94434
2.87144
2.70483
2.30691
1.73942
3.00003
3.00003
3.00003
3.00003
3.00003
3.00003
3.00003
3.00003
3.00003
3.00003
3.00002
3.00001
3
2.99994
2.99986
2.99955
2.99908
2.99742
2.99482
2.98608
2.97058
2.92603
2.82503
2.61135
2.11689
3.00003
3.00003
3.00003
3.00003
3.00003
3.00003
3.00003
3.00003
3.00003
3.00003
3.00003
3.00002
3.00001
2.99999
2.99991
2.99979
2.99936
2.99872
2.99643
2.99281
2.98083
2.95889
2.89869
2.76606
2.45652
3.00003
3.00003
3.00003
3.00003
3.00003
3.00003
3.00003
3.00003
3.00003
3.00003
3.00003
3.00002
3.00002
3
2.99996
2.99989
2.99964
2.99929
2.99794
2.99597
2.98884
2.97753
2.9414
2.87129
2.69529
3.00003
3.00003
3.00003
3.00003
3.00003
3.00003
3.00003
3.00003
3.00003
3.00003
3.00003
3.00003
3.00002
3.00001
3
2.99994
2.99985
2.99953
2.99905
2.99735
2.99472
2.98571
2.97044
2.92551
2.83019
3.00003
3.00003
3.00003
3.00003
3.00003
3.00003
3.00003
3.00003
3.00003
3.00003
3.00003
3.00003
3.00003
3.00002
3.00001
2.99999
2.99991
2.99979
2.99937
2.99873
2.9965
2.9929
2.98126
2.96018
2.9004
3.00003
3.00003
3.00003
3.00003
3.00003
3.00003
3.00003
3.00003
3.00003
3.00003
3.00003
3.00003
3.00003
3.00002
3.00002
3
2.99997
2.99987
2.99971
2.99916
2.99831
2.99535
2.99058
2.97526
2.94739
3.00003
3.00003
3.00003
3.00003
3.00003
3.00003
3.00003
3.00003
3.00003
3.00003
3.00003
3.00003
3.00003
3.00003
3.00002
3.00001
2.99999
2.99993
2.99984
2.9995
2.99901
2.99721
2.99449
2.98506
2.96959
3.00003
3.00003
3.00003
3.00003
3.00003
3.00003
3.00003
3.00003
3.00003
3.00003
3.00003
3.00003
3.00003
3.00003
3.00002
3.00002
3
2.99998
2.99988
2.99973
2.99921
2.99841
2.99553
2.99103
2.97583
3.00003
3.00003
3.00003
3.00003
3.00003
3.00003
3.00003
3.00003
3.00003
3.00003
3.00003
3.00003
3.00003
3.00003
3.00003
3.00002
3.00001
2.99998
2.99993
2.99974
2.99946
2.99841
2.99683
2.99104
2.9816
3.00003
3.00003
3.00003
3.00003
3.00003
3.00003
3.00003
3.00003
3.00003
3.00003
3.00003
3.00003
3.00003
3.00003
3.00003
3.00002
3.00001
2.99999
2.99993
2.99983
2.99946
2.99888
2.99688
2.9932
2.98228
3.00003
3.00003
3.00003
3.00003
3.00003
3.00003
3.00003
3.00003
3.00003
3.00003
3.00003
3.00003
3.00003
3.00003
3.00003
3.00002
3.00001
2.99998
2.99994
2.99977
2.99953
2.99856
2.99715
2.99169
2.98308
3.00003
3.00003
3.00003
3.00003
3.00003
3.00003
3.00003
3.00003
3.00003
3.00003
3.00003
3.00003
3.00003
3.00003
3.00003
3.00002
3.00001
2.99999
2.99994
2.99978
2.99954
2.9986
2.99722
2.99186
2.98341
3.00003
3.00003
3.00003
3.00003
3.00003
3.00003
3.00003
3.00003
3.00003
3.00003
3.00003
3.00003
3.00003
3.00003
3.00003
3.00002
3.00001
3
2.99993
2.99984
2.99947
2.99893
2.99691
2.99353
2.98256
3.00003
3.00003
3.00003
3.00003
3.00003
3.00003
3.00003
3.00003
3.00003
3.00003
3.00003
3.00003
3.00003
3.00003
3.00003
3.00002
3.00001
3
2.99993
2.99983
2.99945
2.99891
2.99672
2.99351
2.98163
3
2.99999
2.99994
2.99988
2.99963
2.99926
2.99783
2.99566
2.98787
2.97387
2.93117
2.82993
2.60456
2.02227
1.16073
0.617338
0.512823
0.525381
0.536495
0.534954
0.536435
0.550368
0.588499
0.671721
0.847759
3
2.99999
2.99995
2.9999
2.99967
2.99936
2.9981
2.99629
2.98939
2.97785
2.94056
2.85574
2.65954
2.14098
1.32711
0.708527
0.535522
0.550008
0.567673
0.574903
0.58508
0.611523
0.667154
0.76989
0.954046
3
2.99999
2.99996
2.99991
2.99972
2.99945
2.99835
2.9968
2.99059
2.98126
2.9481
2.8823
2.71183
2.28673
1.52687
0.816972
0.571194
0.583964
0.602505
0.615869
0.632408
0.666815
0.730619
0.832001
0.988941
3
3
2.99997
2.99993
2.99977
2.99954
2.99864
2.99735
2.99225
2.98463
2.95693
2.90695
2.76261
2.43959
1.75787
0.938896
0.627362
0.631739
0.646165
0.66231
0.681547
0.718398
0.780606
0.871095
1.00199
3
3
2.99997
2.99994
2.99981
2.99963
2.99891
2.99786
2.9938
2.98754
2.96554
2.92377
2.80911
2.52818
1.94507
1.05862