/*--------------------------------*- C++ -*----------------------------------*\
| =========                 |                                                 |
| \\      /  F ield         | OpenFOAM: The Open Source CFD Toolbox           |
|  \\    /   O peration     | Version:  4.1                                   |
|   \\  /    A nd           | Web:      www.OpenFOAM.org                      |
|    \\/     M anipulation  |                                                 |
\*---------------------------------------------------------------------------*/
FoamFile
{
    version     2.0;
    format      ascii;
    class       volScalarField;
    location    "1.74";
    object      p;
}
// * * * * * * * * * * * * * * * * * * * * * * * * * * * * * * * * * * * * * //

dimensions      [1 -1 -2 0 0 0 0];

internalField   nonuniform List<scalar> 
52500
(
1
1.00002
1.00008
1.00017
1.00049
1.00101
1.00285
1.00578
1.01671
1.0329
1.10303
1.19726
1.6832
2.61297
5.90457
12.2338
11.439
10.9851
11.0698
11.3262
11.614
11.7868
11.9139
12.0157
12.0931
1
1.00002
1.00008
1.00017
1.00048
1.001
1.00283
1.00572
1.01655
1.0326
1.10189
1.19561
1.67479
2.59325
5.84657
12.1736
11.4249
10.9755
11.0601
11.3156
11.6034
11.7764
11.9053
12.009
12.0881
1
1.00002
1.00007
1.00016
1.00047
1.00098
1.00277
1.00561
1.01622
1.03201
1.09956
1.19234
1.65763
2.55271
5.72456
12.0376
11.3868
10.948
11.0294
11.2781
11.5616
11.7318
11.8599
11.9625
12.0417
1
1.00002
1.00007
1.00016
1.00046
1.00095
1.00269
1.00544
1.01571
1.031
1.09637
1.18568
1.63493
2.49559
5.55364
11.8288
11.3132
10.9012
10.977
11.2119
11.4865
11.6514
11.7758
11.8752
11.9552
1
1.00002
1.00007
1.00015
1.00044
1.00091
1.00257
1.00521
1.01503
1.02967
1.09222
1.17698
1.60598
2.42349
5.33725
11.5404
11.2003
10.8413
10.9083
11.1197
11.3812
11.5396
11.6579
11.7526
11.8335
1
1.00002
1.00006
1.00014
1.00041
1.00085
1.00243
1.00491
1.01419
1.02802
1.08713
1.1664
1.57155
2.33648
5.08225
11.1613
11.0462
10.777
10.8256
10.9961
11.2405
11.3897
11.497
11.5832
11.6645
1
1.00002
1.00006
1.00013
1.00038
1.00079
1.00223
1.00451
1.0131
1.02545
1.08168
1.14979
1.53474
2.22746
4.7945
10.6591
10.867
10.7218
10.7325
10.842
11.0624
11.1976
11.2856
11.3514
11.4247
1
1.00001
1.00005
1.00012
1.00034
1.0007
1.002
1.00399
1.01196
1.02193
1.07639
1.13156
1.49705
2.09812
4.48165
10.0034
10.7415
10.6314
10.6016
10.6736
10.8437
10.9564
11.0104
11.0362
11.0792
1
1.00001
1.00005
1.0001
1.0003
1.00062
1.00177
1.00349
1.01072
1.01904
1.06941
1.11469
1.45381
1.95537
4.1383
9.18837
10.6413
10.5391
10.4379
10.4812
10.5939
10.6591
10.6532
10.6024
10.5383
1
1.00001
1.00004
1.00009
1.00026
1.00053
1.00153
1.00299
1.00939
1.01636
1.06056
1.09962
1.3961
1.82228
3.72929
8.21127
10.5731
10.458
10.2583
10.2686
10.3124
10.3034
10.2191
9.99692
9.62084
1.00001
1.00002
1.00008
1.00017
1.00049
1.00101
1.00286
1.00579
1.01672
1.03291
1.10304
1.1973
1.68324
2.61312
5.9049
12.2342
11.4392
10.9852
11.0699
11.3263
11.6141
11.7869
11.914
12.0158
12.0932
1.00001
1.00002
1.00008
1.00017
1.00049
1.001
1.00284
1.00573
1.01656
1.03262
1.1019
1.19565
1.67482
2.59339
5.84689
12.174
11.425
10.9756
11.0603
11.3157
11.6035
11.7765
11.9055
12.0091
12.0882
1.00001
1.00002
1.00008
1.00017
1.00048
1.00098
1.00278
1.00562
1.01623
1.03203
1.09958
1.19238
1.65766
2.55285
5.72485
12.038
11.387
10.9481
11.0295
11.2782
11.5618
11.7319
11.86
11.9626
12.0418
1.00001
1.00002
1.00008
1.00016
1.00047
1.00095
1.00269
1.00545
1.01572
1.03101
1.09638
1.18571
1.63495
2.49572
5.55391
11.8292
11.3134
10.9013
10.9772
11.212
11.4866
11.6515
11.7759
11.8753
11.9553
1
1.00002
1.00007
1.00016
1.00045
1.00091
1.00258
1.00522
1.01504
1.02968
1.09223
1.17702
1.606
2.42361
5.33749
11.5407
11.2005
10.8414
10.9084
11.1199
11.3813
11.5397
11.6581
11.7527
11.8336
1
1.00002
1.00007
1.00015
1.00042
1.00086
1.00243
1.00492
1.0142
1.02803
1.08714
1.16644
1.57157
2.33661
5.08245
11.1617
11.0464
10.7771
10.8257
10.9962
11.2406
11.3898
11.4971
11.5834
11.6646
1
1.00002
1.00006
1.00014
1.00039
1.00079
1.00224
1.00452
1.01311
1.02547
1.08168
1.14984
1.53474
2.22756
4.79467
10.6595
10.8671
10.7219
10.7326
10.8422
11.0625
11.1978
11.2858
11.3515
11.4248
1
1.00002
1.00006
1.00012
1.00035
1.00071
1.00201
1.004
1.01197
1.02196
1.07639
1.13161
1.49703
2.09824
4.48177
10.0038
10.7417
10.6315
10.6017
10.6737
10.8438
10.9565
11.0105
11.0364
11.0793
1
1.00002
1.00005
1.00011
1.00031
1.00062
1.00178
1.0035
1.01073
1.01905
1.06943
1.11472
1.45384
1.95547
4.13844
9.18878
10.6414
10.5392
10.4381
10.4813
10.594
10.6593
10.6533
10.6025
10.5384
1
1.00001
1.00004
1.00009
1.00026
1.00054
1.00154
1.003
1.0094
1.01637
1.06057
1.09964
1.39613
1.82237
3.72945
8.21171
10.5732
10.4581
10.2584
10.2687
10.3125
10.3036
10.2192
9.99702
9.62093
1.00001
1.00002
1.00008
1.00017
1.00049
1.00101
1.00286
1.00579
1.01672
1.03291
1.10304
1.1973
1.68324
2.61312
5.9049
12.2342
11.4392
10.9852
11.0699
11.3263
11.6141
11.7869
11.914
12.0158
12.0933
1.00001
1.00002
1.00008
1.00017
1.00049
1.001
1.00284
1.00573
1.01656
1.03262
1.1019
1.19565
1.67482
2.59339
5.8469
12.174
11.425
10.9756
11.0603
11.3157
11.6035
11.7765
11.9055
12.0091
12.0882
1.00001
1.00002
1.00008
1.00017
1.00048
1.00098
1.00278
1.00562
1.01623
1.03203
1.09958
1.19238
1.65766
2.55285
5.72486
12.038
11.387
10.9481
11.0295
11.2782
11.5618
11.7319
11.86
11.9626
12.0418
1.00001
1.00002
1.00008
1.00016
1.00047
1.00095
1.00269
1.00545
1.01572
1.03101
1.09638
1.18571
1.63496
2.49572
5.55392
11.8292
11.3134
10.9013
10.9772
11.212
11.4866
11.6515
11.7759
11.8753
11.9553
1
1.00002
1.00007
1.00016
1.00045
1.00091
1.00258
1.00522
1.01504
1.02968
1.09223
1.17702
1.606
2.42361
5.33749
11.5407
11.2005
10.8414
10.9084
11.1199
11.3813
11.5397
11.6581
11.7527
11.8336
1
1.00002
1.00007
1.00015
1.00042
1.00086
1.00243
1.00492
1.0142
1.02803
1.08714
1.16644
1.57157
2.33661
5.08245
11.1617
11.0464
10.7771
10.8257
10.9962
11.2406
11.3898
11.4971
11.5834
11.6646
1
1.00002
1.00006
1.00014
1.00039
1.00079
1.00224
1.00452
1.01311
1.02547
1.08168
1.14984
1.53474
2.22757
4.79467
10.6595
10.8672
10.7219
10.7326
10.8422
11.0625
11.1978
11.2858
11.3515
11.4248
1
1.00002
1.00006
1.00012
1.00035
1.00071
1.00201
1.004
1.01197
1.02196
1.07639
1.13161
1.49703
2.09824
4.48177
10.0038
10.7417
10.6315
10.6017
10.6737
10.8438
10.9565
11.0105
11.0364
11.0793
1
1.00002
1.00005
1.00011
1.00031
1.00062
1.00178
1.0035
1.01073
1.01905
1.06943
1.11472
1.45384
1.95547
4.13844
9.18879
10.6414
10.5392
10.4381
10.4813
10.5941
10.6593
10.6533
10.6026
10.5384
1
1.00001
1.00004
1.00009
1.00026
1.00054
1.00154
1.003
1.0094
1.01637
1.06057
1.09964
1.39613
1.82237
3.72945
8.21172
10.5732
10.4581
10.2584
10.2687
10.3125
10.3036
10.2192
9.99703
9.62094
1.00001
1.00002
1.00008
1.00017
1.00049
1.00101
1.00286
1.00579
1.01672
1.03291
1.10304
1.1973
1.68324
2.61312
5.90491
12.2342
11.4392
10.9852
11.0699
11.3263
11.6141
11.7869
11.914
12.0158
12.0933
1.00001
1.00002
1.00008
1.00017
1.00049
1.001
1.00284
1.00573
1.01656
1.03262
1.1019
1.19565
1.67482
2.5934
5.8469
12.174
11.425
10.9756
11.0603
11.3157
11.6035
11.7765
11.9055
12.0091
12.0882
1.00001
1.00002
1.00008
1.00017
1.00048
1.00098
1.00278
1.00562
1.01623
1.03203
1.09958
1.19238
1.65766
2.55285
5.72486
12.038
11.387
10.9481
11.0295
11.2782
11.5618
11.7319
11.86
11.9626
12.0418
1.00001
1.00002
1.00008
1.00016
1.00047
1.00095
1.00269
1.00545
1.01572
1.03101
1.09638
1.18571
1.63496
2.49573
5.55392
11.8292
11.3134
10.9013
10.9772
11.212
11.4866
11.6515
11.7759
11.8753
11.9553
1
1.00002
1.00007
1.00016
1.00045
1.00091
1.00258
1.00522
1.01504
1.02968
1.09223
1.17702
1.60601
2.42361
5.33749
11.5407
11.2005
10.8414
10.9084
11.1199
11.3813
11.5397
11.6581
11.7527
11.8336
1
1.00002
1.00007
1.00015
1.00042
1.00086
1.00243
1.00492
1.0142
1.02803
1.08714
1.16644
1.57157
2.33661
5.08245
11.1617
11.0464
10.7771
10.8257
10.9962
11.2406
11.3898
11.4971
11.5834
11.6646
1
1.00002
1.00006
1.00014
1.00039
1.00079
1.00224
1.00452
1.01311
1.02547
1.08168
1.14984
1.53474
2.22757
4.79467
10.6595
10.8672
10.7219
10.7326
10.8422
11.0625
11.1978
11.2858
11.3515
11.4248
1
1.00002
1.00006
1.00012
1.00035
1.00071
1.00201
1.004
1.01197
1.02196
1.07639
1.13161
1.49703
2.09824
4.48177
10.0038
10.7417
10.6315
10.6017
10.6737
10.8438
10.9565
11.0105
11.0364
11.0793
1
1.00002
1.00005
1.00011
1.00031
1.00062
1.00178
1.0035
1.01073
1.01905
1.06943
1.11472
1.45384
1.95547
4.13844
9.18879
10.6414
10.5392
10.4381
10.4813
10.5941
10.6593
10.6533
10.6026
10.5384
1
1.00001
1.00004
1.00009
1.00026
1.00054
1.00154
1.003
1.0094
1.01637
1.06057
1.09964
1.39613
1.82237
3.72945
8.21172
10.5732
10.4581
10.2584
10.2687
10.3125
10.3036
10.2192
9.99703
9.62094
1.00001
1.00002
1.00008
1.00017
1.00049
1.00101
1.00286
1.00579
1.01672
1.03291
1.10304
1.1973
1.68324
2.61312
5.9049
12.2342
11.4392
10.9852
11.0699
11.3263
11.6141
11.7869
11.914
12.0158
12.0933
1.00001
1.00002
1.00008
1.00017
1.00049
1.001
1.00284
1.00573
1.01656
1.03262
1.1019
1.19565
1.67482
2.5934
5.8469
12.174
11.425
10.9756
11.0603
11.3157
11.6035
11.7765
11.9055
12.0091
12.0882
1.00001
1.00002
1.00008
1.00017
1.00048
1.00098
1.00278
1.00562
1.01623
1.03203
1.09958
1.19238
1.65766
2.55285
5.72486
12.038
11.387
10.9481
11.0295
11.2782
11.5618
11.7319
11.86
11.9626
12.0418
1.00001
1.00002
1.00008
1.00016
1.00047
1.00095
1.00269
1.00545
1.01572
1.03101
1.09638
1.18571
1.63496
2.49572
5.55392
11.8292
11.3134
10.9013
10.9772
11.212
11.4866
11.6515
11.7759
11.8753
11.9553
1
1.00002
1.00007
1.00016
1.00045
1.00091
1.00258
1.00522
1.01504
1.02968
1.09223
1.17702
1.60601
2.42361
5.33749
11.5407
11.2005
10.8414
10.9084
11.1199
11.3813
11.5397
11.6581
11.7527
11.8336
1
1.00002
1.00007
1.00015
1.00042
1.00086
1.00243
1.00492
1.0142
1.02803
1.08714
1.16644
1.57157
2.33661
5.08245
11.1617
11.0464
10.7771
10.8257
10.9962
11.2406
11.3898
11.4971
11.5834
11.6646
1
1.00002
1.00006
1.00014
1.00039
1.00079
1.00224
1.00452
1.01311
1.02547
1.08168
1.14984
1.53474
2.22757
4.79467
10.6595
10.8672
10.7219
10.7326
10.8422
11.0625
11.1978
11.2858
11.3515
11.4248
1
1.00002
1.00006
1.00012
1.00035
1.00071
1.00201
1.004
1.01197
1.02196
1.07639
1.13161
1.49703
2.09824
4.48177
10.0038
10.7417
10.6315
10.6017
10.6737
10.8438
10.9565
11.0105
11.0364
11.0793
1
1.00002
1.00005
1.00011
1.00031
1.00062
1.00178
1.0035
1.01073
1.01905
1.06943
1.11472
1.45384
1.95547
4.13844
9.18879
10.6414
10.5392
10.4381
10.4813
10.5941
10.6593
10.6533
10.6026
10.5384
1
1.00001
1.00004
1.00009
1.00026
1.00054
1.00154
1.003
1.0094
1.01637
1.06057
1.09964
1.39613
1.82237
3.72945
8.21172
10.5732
10.4581
10.2584
10.2687
10.3125
10.3036
10.2192
9.99703
9.62094
1.00001
1.00002
1.00008
1.00017
1.00049
1.00101
1.00286
1.00579
1.01672
1.03291
1.10304
1.1973
1.68324
2.61312
5.9049
12.2342
11.4392
10.9852
11.0699
11.3263
11.6141
11.7869
11.914
12.0158
12.0933
1.00001
1.00002
1.00008
1.00017
1.00049
1.001
1.00284
1.00573
1.01656
1.03262
1.1019
1.19565
1.67482
2.5934
5.8469
12.174
11.425
10.9756
11.0603
11.3157
11.6035
11.7765
11.9055
12.0091
12.0882
1.00001
1.00002
1.00008
1.00017
1.00048
1.00098
1.00278
1.00562
1.01623
1.03203
1.09958
1.19238
1.65766
2.55285
5.72486
12.038
11.387
10.9481
11.0295
11.2782
11.5618
11.7319
11.86
11.9626
12.0418
1.00001
1.00002
1.00008
1.00016
1.00047
1.00095
1.00269
1.00545
1.01572
1.03101
1.09638
1.18571
1.63496
2.49572
5.55392
11.8292
11.3134
10.9013
10.9772
11.212
11.4866
11.6515
11.7759
11.8753
11.9553
1
1.00002
1.00007
1.00016
1.00045
1.00091
1.00258
1.00522
1.01504
1.02968
1.09223
1.17702
1.60601
2.42361
5.33749
11.5407
11.2005
10.8414
10.9084
11.1199
11.3813
11.5397
11.6581
11.7527
11.8336
1
1.00002
1.00007
1.00015
1.00042
1.00086
1.00243
1.00492
1.0142
1.02803
1.08714
1.16644
1.57157
2.33661
5.08245
11.1617
11.0464
10.7771
10.8257
10.9962
11.2406
11.3898
11.4971
11.5834
11.6646
1
1.00002
1.00006
1.00014
1.00039
1.00079
1.00224
1.00452
1.01311
1.02547
1.08168
1.14984
1.53474
2.22757
4.79467
10.6595
10.8672
10.7219
10.7326
10.8422
11.0625
11.1978
11.2858
11.3515
11.4248
1
1.00002
1.00006
1.00012
1.00035
1.00071
1.00201
1.004
1.01197
1.02196
1.07639
1.13161
1.49703
2.09824
4.48177
10.0038
10.7417
10.6315
10.6017
10.6737
10.8438
10.9565
11.0105
11.0364
11.0793
1
1.00002
1.00005
1.00011
1.00031
1.00062
1.00178
1.0035
1.01073
1.01905
1.06943
1.11472
1.45384
1.95547
4.13844
9.18879
10.6414
10.5392
10.4381
10.4813
10.5941
10.6593
10.6533
10.6026
10.5384
1
1.00001
1.00004
1.00009
1.00026
1.00054
1.00154
1.003
1.0094
1.01637
1.06057
1.09964
1.39613
1.82237
3.72945
8.21172
10.5732
10.4581
10.2584
10.2687
10.3125
10.3036
10.2192
9.99703
9.62094
1.00001
1.00002
1.00008
1.00017
1.00049
1.00101
1.00286
1.00579
1.01672
1.03291
1.10304
1.1973
1.68324
2.61312
5.90491
12.2342
11.4392
10.9852
11.0699
11.3263
11.6141
11.7869
11.914
12.0158
12.0933
1.00001
1.00002
1.00008
1.00017
1.00049
1.001
1.00284
1.00573
1.01656
1.03262
1.1019
1.19565
1.67482
2.5934
5.8469
12.174
11.425
10.9756
11.0603
11.3157
11.6035
11.7765
11.9055
12.0091
12.0882
1.00001
1.00002
1.00008
1.00017
1.00048
1.00098
1.00278
1.00562
1.01623
1.03203
1.09958
1.19238
1.65766
2.55285
5.72486
12.038
11.387
10.9481
11.0295
11.2782
11.5618
11.7319
11.86
11.9626
12.0418
1.00001
1.00002
1.00008
1.00016
1.00047
1.00095
1.00269
1.00545
1.01572
1.03101
1.09638
1.18571
1.63496
2.49573
5.55392
11.8292
11.3134
10.9013
10.9772
11.212
11.4866
11.6515
11.7759
11.8753
11.9553
1
1.00002
1.00007
1.00016
1.00045
1.00091
1.00258
1.00522
1.01504
1.02968
1.09223
1.17702
1.60601
2.42361
5.33749
11.5407
11.2005
10.8414
10.9084
11.1199
11.3813
11.5397
11.6581
11.7527
11.8336
1
1.00002
1.00007
1.00015
1.00042
1.00086
1.00243
1.00492
1.0142
1.02803
1.08714
1.16644
1.57157
2.33661
5.08245
11.1617
11.0464
10.7771
10.8257
10.9962
11.2406
11.3898
11.4971
11.5834
11.6646
1
1.00002
1.00006
1.00014
1.00039
1.00079
1.00224
1.00452
1.01311
1.02547
1.08168
1.14984
1.53474
2.22757
4.79467
10.6595
10.8672
10.7219
10.7326
10.8422
11.0625
11.1978
11.2858
11.3515
11.4248
1
1.00002
1.00006
1.00012
1.00035
1.00071
1.00201
1.004
1.01197
1.02196
1.07639
1.13161
1.49703
2.09824
4.48177
10.0038
10.7417
10.6315
10.6017
10.6737
10.8438
10.9565
11.0105
11.0364
11.0793
1
1.00002
1.00005
1.00011
1.00031
1.00062
1.00178
1.0035
1.01073
1.01905
1.06943
1.11472
1.45384
1.95547
4.13844
9.18879
10.6414
10.5392
10.4381
10.4813
10.5941
10.6593
10.6533
10.6026
10.5384
1
1.00001
1.00004
1.00009
1.00026
1.00054
1.00154
1.003
1.0094
1.01637
1.06057
1.09964
1.39613
1.82237
3.72945
8.21172
10.5732
10.4581
10.2584
10.2687
10.3125
10.3036
10.2192
9.99703
9.62094
1.00001
1.00002
1.00008
1.00017
1.00049
1.00101
1.00286
1.00579
1.01672
1.03291
1.10304
1.1973
1.68324
2.61312
5.9049
12.2342
11.4392
10.9852
11.0699
11.3263
11.6141
11.7869
11.914
12.0158
12.0933
1.00001
1.00002
1.00008
1.00017
1.00049
1.001
1.00284
1.00573
1.01656
1.03262
1.1019
1.19565
1.67482
2.59339
5.8469
12.174
11.425
10.9756
11.0603
11.3157
11.6035
11.7765
11.9055
12.0091
12.0882
1.00001
1.00002
1.00008
1.00017
1.00048
1.00098
1.00278
1.00562
1.01623
1.03203
1.09958
1.19238
1.65766
2.55285
5.72486
12.038
11.387
10.9481
11.0295
11.2782
11.5618
11.7319
11.86
11.9626
12.0418
1.00001
1.00002
1.00008
1.00016
1.00047
1.00095
1.00269
1.00545
1.01572
1.03101
1.09638
1.18571
1.63496
2.49572
5.55392
11.8292
11.3134
10.9013
10.9772
11.212
11.4866
11.6515
11.7759
11.8753
11.9553
1
1.00002
1.00007
1.00016
1.00045
1.00091
1.00258
1.00522
1.01504
1.02968
1.09223
1.17702
1.606
2.42361
5.33749
11.5407
11.2005
10.8414
10.9084
11.1199
11.3813
11.5397
11.6581
11.7527
11.8336
1
1.00002
1.00007
1.00015
1.00042
1.00086
1.00243
1.00492
1.0142
1.02803
1.08714
1.16644
1.57157
2.33661
5.08245
11.1617
11.0464
10.7771
10.8257
10.9962
11.2406
11.3898
11.4971
11.5834
11.6646
1
1.00002
1.00006
1.00014
1.00039
1.00079
1.00224
1.00452
1.01311
1.02547
1.08168
1.14984
1.53474
2.22757
4.79467
10.6595
10.8672
10.7219
10.7326
10.8422
11.0625
11.1978
11.2858
11.3515
11.4248
1
1.00002
1.00006
1.00012
1.00035
1.00071
1.00201
1.004
1.01197
1.02196
1.07639
1.13161
1.49703
2.09824
4.48177
10.0038
10.7417
10.6315
10.6017
10.6737
10.8438
10.9565
11.0105
11.0364
11.0793
1
1.00002
1.00005
1.00011
1.00031
1.00062
1.00178
1.0035
1.01073
1.01905
1.06943
1.11472
1.45384
1.95547
4.13844
9.18879
10.6414
10.5392
10.4381
10.4813
10.5941
10.6593
10.6533
10.6026
10.5384
1
1.00001
1.00004
1.00009
1.00026
1.00054
1.00154
1.003
1.0094
1.01637
1.06057
1.09964
1.39613
1.82237
3.72945
8.21172
10.5732
10.4581
10.2584
10.2687
10.3125
10.3036
10.2192
9.99703
9.62094
1.00001
1.00002
1.00008
1.00017
1.00049
1.00101
1.00286
1.00579
1.01672
1.03291
1.10304
1.1973
1.68324
2.61312
5.9049
12.2342
11.4392
10.9852
11.0699
11.3263
11.6141
11.7869
11.914
12.0158
12.0932
1.00001
1.00002
1.00008
1.00017
1.00049
1.001
1.00284
1.00573
1.01656
1.03262
1.1019
1.19565
1.67482
2.59339
5.84689
12.174
11.425
10.9756
11.0603
11.3157
11.6035
11.7765
11.9055
12.0091
12.0882
1.00001
1.00002
1.00008
1.00017
1.00048
1.00098
1.00278
1.00562
1.01623
1.03203
1.09958
1.19238
1.65766
2.55285
5.72485
12.038
11.387
10.9481
11.0295
11.2782
11.5618
11.7319
11.86
11.9626
12.0418
1.00001
1.00002
1.00008
1.00016
1.00047
1.00095
1.00269
1.00545
1.01572
1.03101
1.09638
1.18571
1.63495
2.49572
5.55391
11.8291
11.3134
10.9013
10.9772
11.212
11.4866
11.6515
11.7759
11.8753
11.9553
1
1.00002
1.00007
1.00016
1.00045
1.00091
1.00258
1.00522
1.01504
1.02968
1.09223
1.17702
1.606
2.42361
5.33749
11.5407
11.2005
10.8414
10.9084
11.1199
11.3813
11.5397
11.6581
11.7527
11.8336
1
1.00002
1.00007
1.00015
1.00042
1.00086
1.00243
1.00492
1.0142
1.02803
1.08714
1.16644
1.57157
2.33661
5.08245
11.1617
11.0464
10.7771
10.8257
10.9962
11.2406
11.3898
11.4971
11.5834
11.6646
1
1.00002
1.00006
1.00014
1.00039
1.00079
1.00224
1.00452
1.01311
1.02547
1.08168
1.14984
1.53474
2.22756
4.79467
10.6595
10.8671
10.7219
10.7326
10.8422
11.0625
11.1978
11.2858
11.3515
11.4248
1
1.00002
1.00006
1.00012
1.00035
1.00071
1.00201
1.004
1.01197
1.02196
1.07639
1.13161
1.49703
2.09824
4.48177
10.0038
10.7417
10.6315
10.6017
10.6737
10.8438
10.9565
11.0105
11.0364
11.0793
1
1.00002
1.00005
1.00011
1.00031
1.00062
1.00178
1.0035
1.01073
1.01905
1.06943
1.11472
1.45384
1.95547
4.13844
9.18878
10.6414
10.5392
10.4381
10.4813
10.594
10.6593
10.6533
10.6025
10.5384
1
1.00001
1.00004
1.00009
1.00026
1.00054
1.00154
1.003
1.0094
1.01637
1.06057
1.09964
1.39613
1.82237
3.72945
8.21171
10.5732
10.4581
10.2584
10.2687
10.3125
10.3036
10.2192
9.99702
9.62093
1
1.00002
1.00008
1.00017
1.00049
1.00101
1.00285
1.00578
1.01671
1.0329
1.10303
1.19726
1.6832
2.61296
5.90457
12.2338
11.439
10.9851
11.0698
11.3262
11.614
11.7868
11.9139
12.0157
12.0931
1
1.00002
1.00008
1.00017
1.00048
1.001
1.00283
1.00572
1.01655
1.0326
1.10189
1.19561
1.67479
2.59324
5.84657
12.1736
11.4249
10.9755
11.0601
11.3156
11.6034
11.7764
11.9053
12.009
12.0881
1
1.00002
1.00007
1.00016
1.00047
1.00098
1.00277
1.00561
1.01622
1.03201
1.09956
1.19234
1.65763
2.55271
5.72455
12.0376
11.3868
10.948
11.0294
11.2781
11.5616
11.7318
11.8599
11.9625
12.0417
1
1.00002
1.00007
1.00016
1.00046
1.00095
1.00269
1.00544
1.01571
1.031
1.09637
1.18568
1.63493
2.49559
5.55364
11.8288
11.3132
10.9012
10.977
11.2119
11.4865
11.6514
11.7758
11.8752
11.9552
1
1.00002
1.00007
1.00015
1.00044
1.00091
1.00257
1.00521
1.01503
1.02967
1.09222
1.17698
1.60598
2.42349
5.33724
11.5403
11.2003
10.8413
10.9083
11.1197
11.3812
11.5396
11.6579
11.7526
11.8335
1
1.00002
1.00006
1.00014
1.00041
1.00085
1.00243
1.00491
1.01419
1.02802
1.08713
1.1664
1.57155
2.33648
5.08225
11.1613
11.0462
10.777
10.8256
10.9961
11.2405
11.3897
11.497
11.5832
11.6645
1
1.00002
1.00006
1.00013
1.00038
1.00079
1.00223
1.00451
1.0131
1.02545
1.08168
1.14979
1.53474
2.22745
4.79449
10.6591
10.867
10.7218
10.7325
10.842
11.0624
11.1976
11.2856
11.3514
11.4247
1
1.00001
1.00005
1.00012
1.00034
1.0007
1.002
1.00399
1.01196
1.02193
1.07639
1.13156
1.49705
2.09812
4.48164
10.0034
10.7415
10.6314
10.6016
10.6736
10.8437
10.9564
11.0104
11.0362
11.0792
1
1.00001
1.00005
1.0001
1.0003
1.00062
1.00177
1.00349
1.01072
1.01904
1.06941
1.11469
1.45381
1.95537
4.1383
9.18836
10.6413
10.5391
10.4379
10.4812
10.5939
10.6591
10.6532
10.6024
10.5383
1
1.00001
1.00004
1.00009
1.00026
1.00053
1.00153
1.00299
1.00939
1.01636
1.06056
1.09962
1.3961
1.82228
3.72929
8.21126
10.5731
10.458
10.2583
10.2686
10.3124
10.3034
10.2191
9.99692
9.62083
1
1.00001
1.00003
1.00009
1.0002
1.00057
1.00117
1.00338
1.00663
1.02067
1.03683
1.13356
1.23698
1.89561
3.08748
7.13374
10.5262
10.3804
10.0824
10.0269
10.0053
9.91678
9.65944
9.04666
7.48603
1
1.00001
1.00003
1.00008
1.00018
1.00051
1.00104
1.00295
1.00597
1.01733
1.03406
1.10724
1.20548
1.71043
2.66914
5.91767
10.415
10.2683
9.93293
9.78665
9.70045
9.51106
9.09778
8.26007
6.62697
1
1.00001
1.00002
1.00007
1.00015
1.00043
1.00087
1.00248
1.00502
1.01441
1.02859
1.08704
1.17175
1.56172
2.31344
4.84886
10.0464
10.0373
9.80721
9.55389
9.39525
9.12542
8.61552
7.74821
6.41307
1
1.00001
1.00002
1.00006
1.00012
1.00034
1.00071
1.00201
1.00406
1.01172
1.02271
1.07257
1.13165
1.46775
2.04738
4.20341
9.12717
9.75193
9.61247
9.32696
9.09932
8.78018
8.2559
7.45566
6.38059
1
1
1.00001
1.00004
1.00009
1.00027
1.00055
1.00157
1.00307
1.00945
1.01666
1.06041
1.09965
1.38899
1.80473
3.60208
7.69743
9.48785
9.40057
9.15239
8.8445
8.49091
7.98389
7.26733
6.36777
0.999999
1
1.00001
1.00003
1.00009
1.00018
1.00053
1.00109
1.00312
1.00615
1.01885
1.03394
1.12068
1.21462
1.78866
2.82183
6.2374
9.3352
9.26507
9.01736
8.63643
8.25152
7.7711
7.13282
6.35922
0.999998
1
1.00001
1.00002
1.00007
1.00015
1.00043
1.00088
1.00248
1.00503
1.01441
1.02857
1.0866
1.17185
1.55161
2.2844
4.6026
9.00957
9.10327
8.90947
8.49131
8.0593
7.5948
7.02302
6.3464
0.999996
0.999998
1
1.00001
1.00005
1.00011
1.00032
1.00067
1.00189
1.00383
1.011
1.02158
1.06726
1.12472
1.42758
1.9615
3.84378
8.08626
8.84977
8.71147
8.36138
7.90237
7.45196
6.93157
6.33087
0.999995
0.999996
0.999999
1.00001
1.00003
1.0001
1.00021
1.00059
1.0012
1.00342
1.00673
1.02063
1.0369
1.13126
1.23273
1.86146
2.96855
6.5007
8.54323
8.48168
8.24613
7.78392
7.33586
6.85606
6.31751
0.999994
0.999995
0.999997
1.00001
1.00002
1.00007
1.00016
1.00045
1.00093
1.00262
1.00531
1.01525
1.03014
1.09232
1.18055
1.59163
2.36591
4.81667
8.16349
8.29923
8.13886
7.75138
7.26507
6.80035
6.309
0.999993
0.999994
0.999996
1
1.00002
1.00004
1.00013
1.00027
1.00077
1.00157
1.00444
1.00881
1.02645
1.04836
1.16651
1.30897
2.064
3.4803
7.30396
8.12102
8.01158
7.71141
7.22732
6.76574
6.3067
0.999992
0.999993
0.999994
0.999997
1.00001
1.00003
1.00009
1.0002
1.00056
1.00116
1.00325
1.00655
1.01892
1.03633
1.11723
1.21704
1.75806
2.71589
5.72315
7.86173
7.83572
7.65092
7.23449
6.76071
6.30964
0.999992
0.999992
0.999993
0.999996
1
1.00002
1.00005
1.00015
1.00033
1.00092
1.00187
1.00526
1.01034
1.03134
1.05634
1.19409
1.37544
2.18985
3.83253
7.3418
7.72647
7.59305
7.25314
6.76944
6.31962
0.999991
0.999992
0.999992
0.999994
0.999998
1.00001
1.00003
1.0001
1.00022
1.00063
1.00128
1.00362
1.00713
1.02149
1.03871
1.13507
1.23847
1.86863
2.92309
6.12222
7.50299
7.45599
7.24448
6.8004
6.34324
0.999991
0.999991
0.999992
0.999993
0.999996
1
1.00002
1.00006
1.00017
1.00036
1.00102
1.00206
1.00589
1.01138
1.03569
1.06281
1.22269
1.43353
2.37727
4.314
7.02924
7.29978
7.18807
6.87456
6.39288
0.999991
0.999991
0.999991
0.999992
0.999994
0.999998
1.00001
1.00004
1.00011
1.00024
1.00069
1.0014
1.00393
1.00784
1.02308
1.04271
1.14357
1.26157
1.89401
2.99763
6.02801
7.10016
7.05825
6.86974
6.46677
0.999991
0.999991
0.999991
0.999992
0.999993
0.999997
1
1.00002
1.00006
1.00018
1.00038
1.00107
1.00217
1.00615
1.012
1.03694
1.06584
1.22991
1.44316
2.40582
4.32412
6.66152
6.91487
6.82188
6.56097
0.999991
0.999991
0.999991
0.999991
0.999992
0.999994
0.999999
1.00001
1.00004
1.00012
1.00025
1.0007
1.00144
1.004
1.00805
1.02308
1.04413
1.14065
1.2652
1.8666
2.92627
5.73672
6.7247
6.7031
6.55807
0.999991
0.99999
0.999991
0.999991
0.999991
0.999992
0.999996
1
1.00002
1.00006
1.00018
1.00037
1.00105
1.00213
1.00599
1.01186
1.0353
1.06531
1.21463
1.43021
2.28834
4.01547
6.27682
6.59556
6.52072
0.999991
0.99999
0.99999
0.999991
0.999991
0.999992
0.999994
0.999999
1.00001
1.00004
1.00009
1.00028
1.00057
1.00159
1.00323
1.00906
1.01819
1.0521
1.10698
1.30906
1.69777
2.83363
5.26482
6.37851
6.40602
0.999991
0.99999
0.99999
0.99999
0.999991
0.999991
0.999992
0.999996
1
1.00002
1.00005
1.00016
1.00035
1.00096
1.00197
1.00544
1.01086
1.03144
1.05893
1.18889
1.36893
2.10611
3.53244
5.87409
6.29591
0.999991
0.99999
0.99999
0.99999
0.99999
0.999991
0.999992
0.999993
0.999998
1.00001
1.00004
1.00008
1.00024
1.0005
1.0014
1.00283
1.00789
1.01571
1.04561
1.08933
1.26872
1.59191
2.57881
4.7188
6.02924
0.999991
0.99999
0.99999
0.99999
0.99999
0.999991
0.999991
0.999992
0.999995
1
1.00002
1.00005
1.00014
1.0003
1.00083
1.00169
1.00465
1.00935
1.02619
1.05226
1.15109
1.31443
1.87966
2.98706
5.42069
0.999991
0.99999
0.99999
0.99999
0.99999
0.99999
0.999991
0.999991
0.999993
0.999996
1.00001
1.00002
1.00008
1.00018
1.00049
1.00101
1.00277
1.0056
1.01568
1.03027
1.09325
1.17117
1.55884
2.19419
4.02324
0.999991
0.99999
0.99999
0.99999
0.99999
0.99999
0.999991
0.999991
0.999992
0.999994
1
1.00001
1.00004
1.0001
1.00029
1.00059
1.00163
1.00331
1.00913
1.01846
1.05142
1.10688
1.29871
1.6629
2.68522
0.999991
0.99999
0.99999
0.99999
0.99999
0.99999
0.99999
0.999991
0.999991
0.999993
0.999995
1
1.00002
1.00006
1.00014
1.00038
1.00079
1.00216
1.00437
1.01212
1.02396
1.06968
1.13649
1.40463
1.8781
0.999991
0.99999
0.99999
0.99999
0.99999
0.99999
0.99999
0.99999
0.999991
0.999991
0.999993
0.999997
1.00001
1.00003
1.00009
1.00018
1.00052
1.00105
1.00289
1.00574
1.01656
1.0304
1.09875
1.17489
1.57889
0.999991
0.99999
0.99999
0.99999
0.99999
0.99999
0.99999
0.99999
0.99999
0.999991
0.999992
0.999994
0.999999
1.00001
1.00004
1.00012
1.00025
1.00069
1.0014
1.00382
1.00768
1.02154
1.04133
1.12516
1.24332
0.999991
0.99999
0.99999
0.99999
0.99999
0.99999
0.99999
0.99999
0.99999
0.999991
0.999991
0.999993
0.999995
1
1.00002
1.00006
1.00013
1.00038
1.00078
1.00211
1.00426
1.01168
1.02318
1.06629
1.13037
0.999991
0.99999
0.99999
0.99999
0.99999
0.99999
0.99999
0.99999
0.99999
0.99999
0.999991
0.999991
0.999993
0.999996
1.00001
1.00002
1.00008
1.00017
1.00048
1.00099
1.00268
1.00535
1.01521
1.02818
1.08993
0.999991
0.99999
0.99999
0.99999
0.99999
0.99999
0.99999
0.99999
0.99999
0.99999
0.99999
0.999991
0.999992
0.999994
0.999998
1.00001
1.00003
1.00011
1.00022
1.00062
1.00126
1.00342
1.00688
1.01915
1.03679
0.999991
0.99999
0.99999
0.99999
0.99999
0.99999
0.99999
0.99999
0.99999
0.99999
0.99999
0.999991
0.999991
0.999992
0.999995
1
1.00002
1.00004
1.00013
1.00028
1.00077
1.00156
1.00423
1.00848
1.02346
0.999991
0.99999
0.99999
0.99999
0.99999
0.99999
0.99999
0.99999
0.99999
0.99999
0.99999
0.99999
0.999991
0.999991
0.999993
0.999995
1
1.00002
1.00007
1.00015
1.0004
1.00083
1.00224
1.00454
1.01235
0.999991
0.99999
0.99999
0.99999
0.99999
0.99999
0.99999
0.99999
0.99999
0.99999
0.99999
0.99999
0.99999
0.999991
0.999991
0.999993
0.999997
1.00001
1.00002
1.00008
1.00018
1.00049
1.001
1.0027
1.00539
0.999991
0.99999
0.99999
0.99999
0.99999
0.99999
0.99999
0.99999
0.99999
0.99999
0.99999
0.99999
0.99999
0.99999
0.999991
0.999992
0.999994
0.999998
1.00001
1.00003
1.0001
1.00022
1.0006
1.00122
1.00328
0.999991
0.99999
0.99999
0.99999
0.99999
0.99999
0.99999
0.99999
0.99999
0.99999
0.99999
0.99999
0.99999
0.99999
0.999991
0.999991
0.999992
0.999995
0.999999
1.00001
1.00004
1.00012
1.00026
1.0007
1.00143
0.999991
0.99999
0.99999
0.99999
0.99999
0.99999
0.99999
0.99999
0.99999
0.99999
0.99999
0.99999
0.99999
0.99999
0.99999
0.999991
0.999991
0.999992
0.999996
1
1.00002
1.00005
1.00014
1.0003
1.00082
0.999991
0.99999
0.99999
0.99999
0.99999
0.99999
0.99999
0.99999
0.99999
0.99999
0.99999
0.99999
0.99999
0.99999
0.99999
0.99999
0.999991
0.999991
0.999993
0.999996
1
1.00002
1.00007
1.00015
1.00041
0.999991
0.99999
0.99999
0.99999
0.99999
0.99999
0.99999
0.99999
0.99999
0.99999
0.99999
0.99999
0.99999
0.99999
0.99999
0.99999
0.99999
0.999991
0.999992
0.999994
0.999997
1.00001
1.00003
1.00009
1.00019
0.999991
0.99999
0.99999
0.99999
0.99999
0.99999
0.99999
0.99999
0.99999
0.99999
0.99999
0.99999
0.99999
0.99999
0.99999
0.99999
0.99999
0.999991
0.999991
0.999993
0.999995
1
1.00002
1.00006
1.00013
1
1.00001
1.00003
1.0001
1.00021
1.00058
1.00118
1.00339
1.00664
1.02068
1.03685
1.13358
1.23702
1.89565
3.08767
7.13417
10.5263
10.3804
10.0825
10.027
10.0054
9.91689
9.65955
9.04676
7.4861
1
1.00001
1.00003
1.00009
1.00018
1.00051
1.00105
1.00296
1.00598
1.01734
1.03408
1.10726
1.20552
1.71047
2.6693
5.91807
10.4151
10.2684
9.93302
9.78675
9.70056
9.51116
9.09788
8.26016
6.62703
1
1.00001
1.00003
1.00007
1.00015
1.00043
1.00088
1.00248
1.00502
1.01442
1.0286
1.08705
1.17179
1.56175
2.31355
4.84906
10.0465
10.0375
9.8073
9.55399
9.39535
9.12552
8.61561
7.74829
6.41313
1
1.00001
1.00002
1.00006
1.00013
1.00035
1.00072
1.00201
1.00407
1.01173
1.02273
1.07257
1.13169
1.46774
2.04749
4.20351
9.1275
9.75207
9.61259
9.32705
9.09941
8.78027
8.25598
7.45574
6.38065
1
1.00001
1.00002
1.00005
1.0001
1.00027
1.00056
1.00157
1.00308
1.00946
1.01667
1.06043
1.09967
1.38902
1.80481
3.60219
7.69776
9.48795
9.40066
9.15247
8.84458
8.49099
7.98396
7.26739
6.36782
1
1
1.00002
1.00003
1.00009
1.00019
1.00054
1.0011
1.00313
1.00616
1.01886
1.03396
1.1207
1.21466
1.78869
2.82197
6.23771
9.3353
9.26516
9.01743
8.6365
8.25159
7.77116
7.13288
6.35927
1
1
1.00001
1.00003
1.00008
1.00016
1.00043
1.00089
1.00249
1.00504
1.01442
1.02859
1.08662
1.17188
1.55164
2.28453
4.60293
9.00971
9.10334
8.90954
8.49136
8.05936
7.59486
7.02307
6.34645
1
1
1.00001
1.00002
1.00006
1.00012
1.00033
1.00068
1.0019
1.00384
1.01101
1.0216
1.06727
1.12476
1.42759
1.96159
3.8439
8.08652
8.84985
8.71154
8.36143
7.90242
7.45202
6.93163
6.33092
1
1
1.00001
1.00002
1.00004
1.0001
1.00021
1.0006
1.00121
1.00343
1.00674
1.02064
1.03691
1.13128
1.23277
1.86149
2.96869
6.50096
8.54329
8.48174
8.24617
7.78397
7.33591
6.85612
6.31757
1
1
1
1.00001
1.00003
1.00008
1.00016
1.00046
1.00094
1.00263
1.00532
1.01526
1.03015
1.09233
1.18058
1.59166
2.36603