/*--------------------------------*- C++ -*----------------------------------*\
| =========                 |                                                 |
| \\      /  F ield         | OpenFOAM: The Open Source CFD Toolbox           |
|  \\    /   O peration     | Version:  4.1                                   |
|   \\  /    A nd           | Web:      www.OpenFOAM.org                      |
|    \\/     M anipulation  |                                                 |
\*---------------------------------------------------------------------------*/
FoamFile
{
    version     2.0;
    format      ascii;
    class       volVectorField;
    location    "1.74";
    object      U;
}
// * * * * * * * * * * * * * * * * * * * * * * * * * * * * * * * * * * * * * //

dimensions      [0 1 -1 0 0 0 0];

internalField   nonuniform List<vector> 
52500
(
(3 7.1401e-09 -0.00571425)
(2.99999 3.96136e-08 -0.00571435)
(2.99997 1.47084e-07 -0.0057145)
(2.99992 3.77879e-07 -0.00571497)
(2.99982 1.03842e-06 -0.00571584)
(2.99954 2.37506e-06 -0.00571848)
(2.99898 6.19809e-06 -0.00572352)
(2.99732 1.37198e-05 -0.00573821)
(2.99412 3.67079e-05 -0.00576902)
(2.9838 7.78361e-05 -0.0058458)
(2.96434 0.000243125 -0.00606083)
(2.89578 0.000465263 -0.00646125)
(2.71964 0.00174921 -0.00799162)
(2.25406 0.00430141 -0.0115775)
(1.04731 0.0129239 -0.0166544)
(0.373799 0.0215809 -0.0185565)
(0.543663 0.0237085 -0.0185291)
(0.600224 0.0253186 -0.0184979)
(0.548274 0.0271546 -0.0186883)
(0.453239 0.0294853 -0.018933)
(0.36057 0.0324038 -0.0191216)
(0.288252 0.0361883 -0.019361)
(0.214653 0.0404973 -0.0196338)
(0.129249 0.0449477 -0.0198898)
(0.0529821 0.0492607 -0.0200632)
(3 2.19204e-08 -0.00571425)
(2.99999 1.21423e-07 -0.00571435)
(2.99997 4.51011e-07 -0.0057145)
(2.99992 1.1577e-06 -0.00571496)
(2.99982 3.17978e-06 -0.00571582)
(2.99954 7.26572e-06 -0.00571844)
(2.99899 1.89406e-05 -0.00572342)
(2.99734 4.18497e-05 -0.00573798)
(2.99417 0.000111917 -0.00576846)
(2.98397 0.000236367 -0.00584464)
(2.96467 0.00073891 -0.00605658)
(2.89696 0.00141057 -0.00645514)
(2.72319 0.00530055 -0.00795934)
(2.26274 0.0130628 -0.0115176)
(1.0605 0.0391199 -0.0165512)
(0.385224 0.0636979 -0.0184599)
(0.547175 0.0677931 -0.0184308)
(0.602439 0.0699318 -0.0183991)
(0.550256 0.0727794 -0.0185852)
(0.454989 0.0770673 -0.0188245)
(0.361701 0.0823486 -0.0190054)
(0.288212 0.0885537 -0.0192366)
(0.213218 0.0946652 -0.0194979)
(0.126805 0.100097 -0.0197365)
(0.0504187 0.103466 -0.0198989)
(3 3.78902e-08 -0.00571425)
(2.99999 2.09466e-07 -0.00571435)
(2.99997 7.7966e-07 -0.00571449)
(2.99992 2.00007e-06 -0.00571495)
(2.99983 5.51018e-06 -0.00571579)
(2.99955 1.25984e-05 -0.00571836)
(2.99901 3.29424e-05 -0.00572324)
(2.9974 7.30949e-05 -0.00573753)
(2.99428 0.000194059 -0.00576733)
(2.98431 0.000419749 -0.00584241)
(2.96533 0.00122012 -0.00604805)
(2.89936 0.00259379 -0.0064436)
(2.73044 0.0086086 -0.00789536)
(2.28083 0.0212503 -0.0114055)
(1.08982 0.0636452 -0.0163661)
(0.41105 0.105705 -0.018334)
(0.554882 0.114857 -0.0183107)
(0.607088 0.118514 -0.0182884)
(0.555175 0.123481 -0.0184728)
(0.460622 0.131646 -0.0187015)
(0.367369 0.141618 -0.0188727)
(0.292995 0.152519 -0.0190898)
(0.216615 0.163154 -0.019345)
(0.128614 0.172315 -0.0195759)
(0.0505007 0.176997 -0.0197263)
(3 5.41776e-08 -0.00571425)
(2.99999 2.99308e-07 -0.00571434)
(2.99997 1.1144e-06 -0.00571448)
(2.99993 2.85849e-06 -0.00571493)
(2.99983 7.87911e-06 -0.00571574)
(2.99957 1.80206e-05 -0.00571823)
(2.99904 4.71117e-05 -0.00572295)
(2.99748 0.000104811 -0.00573679)
(2.99446 0.000276009 -0.0057656)
(2.98481 0.000606319 -0.0058383)
(2.96651 0.00167095 -0.00603713)
(2.90279 0.00380063 -0.00641772)
(2.74026 0.0115591 -0.00782284)
(2.3061 0.0284095 -0.0111773)
(1.13301 0.0848532 -0.0162373)
(0.442682 0.146007 -0.0182183)
(0.563093 0.162693 -0.0181843)
(0.611126 0.167145 -0.0181655)
(0.561333 0.173753 -0.0183394)
(0.469597 0.186284 -0.0185548)
(0.377354 0.201578 -0.0187132)
(0.302381 0.21764 -0.018925)
(0.224714 0.233549 -0.0191604)
(0.134192 0.247336 -0.0193907)
(0.0525838 0.254144 -0.0195441)
(3 7.08153e-08 -0.00571425)
(2.99999 3.91305e-07 -0.00571434)
(2.99997 1.45402e-06 -0.00571447)
(2.99993 3.72925e-06 -0.0057149)
(2.99984 1.0245e-05 -0.00571568)
(2.99959 2.34084e-05 -0.00571806)
(2.99908 6.0894e-05 -0.00572257)
(2.99759 0.000135208 -0.00573583)
(2.9947 0.000353715 -0.00576334)
(2.98547 0.000774789 -0.00583295)
(2.96804 0.00211378 -0.0060231)
(2.90719 0.0047977 -0.00638441)
(2.75267 0.0143177 -0.00773176)
(2.33809 0.0352154 -0.0108882)
(1.19022 0.104229 -0.0160777)
(0.48467 0.186923 -0.0180883)
(0.573137 0.211812 -0.0180519)
(0.614209 0.21484 -0.0180523)
(0.568668 0.222296 -0.0182092)
(0.481942 0.240082 -0.0184053)
(0.39134 0.261239 -0.0185463)
(0.315958 0.282907 -0.0187353)
(0.237063 0.304721 -0.0189602)
(0.14341 0.324087 -0.0191785)
(0.0567584 0.333954 -0.0193096)
(3 9.19687e-08 -0.00571425)
(2.99999 5.07214e-07 -0.00571433)
(2.99998 1.88828e-06 -0.00571446)
(2.99993 4.84147e-06 -0.00571486)
(2.99985 1.33458e-05 -0.00571559)
(2.99961 3.05267e-05 -0.00571784)
(2.99913 7.9635e-05 -0.0057221)
(2.99772 0.000177972 -0.00573463)
(2.995 0.000455962 -0.00576055)
(2.98627 0.00105667 -0.0058265)
(2.96991 0.00257503 -0.00600594)
(2.91247 0.00641061 -0.0063446)
(2.76756 0.0170139 -0.007624)
(2.37605 0.0429665 -0.0105476)
(1.26101 0.122726 -0.0158492)
(0.538627 0.232043 -0.017932)
(0.584463 0.261838 -0.0178876)
(0.615059 0.26078 -0.0179194)
(0.577751 0.26911 -0.0180627)
(0.498672 0.293001 -0.018221)
(0.409943 0.321032 -0.018341)
(0.334343 0.349296 -0.0184855)
(0.254482 0.378505 -0.0186992)
(0.156908 0.405805 -0.0188939)
(0.0632203 0.421375 -0.0190625)
(3 1.14921e-07 -0.00571425)
(2.99999 6.32429e-07 -0.00571432)
(2.99998 2.36079e-06 -0.00571444)
(2.99994 6.06838e-06 -0.00571481)
(2.99986 1.67944e-05 -0.00571548)
(2.99964 3.86661e-05 -0.00571755)
(2.9992 0.00010019 -0.00572145)
(2.9979 0.000232161 -0.00573294)
(2.99544 0.000551834 -0.00575699)
(2.98722 0.00142157 -0.00581548)
(2.97256 0.00294158 -0.00598892)
(2.91871 0.00790304 -0.00628049)
(2.78507 0.0189074 -0.00752924)
(2.42032 0.0507099 -0.010016)
(1.34905 0.139185 -0.0155535)
(0.608482 0.282255 -0.0177137)
(0.595292 0.305805 -0.0177468)
(0.614403 0.305946 -0.0177955)
(0.59002 0.317864 -0.0178991)
(0.520815 0.345029 -0.0180362)
(0.434255 0.380831 -0.0181205)
(0.358669 0.417176 -0.0182415)
(0.278857 0.456081 -0.0184217)
(0.17745 0.494867 -0.0185977)
(0.0742522 0.521559 -0.0187122)
(3 1.2518e-07 -0.00571425)
(2.99999 6.87749e-07 -0.00571431)
(2.99998 2.5621e-06 -0.00571442)
(2.99995 6.59478e-06 -0.00571475)
(2.99988 1.82093e-05 -0.00571535)
(2.99968 4.20245e-05 -0.00571718)
(2.99929 0.000108077 -0.0057207)
(2.9981 0.000253431 -0.00573052)
(2.99599 0.000592809 -0.00575337)
(2.98825 0.00150559 -0.00580122)
(2.97538 0.00324911 -0.00597325)
(2.92524 0.00822323 -0.00621847)
(2.80524 0.0203141 -0.00742797)
(2.46945 0.0567775 -0.00951494)
(1.45026 0.15459 -0.0151217)
(0.686184 0.335894 -0.017417)
(0.602197 0.346651 -0.0176321)
(0.619135 0.349768 -0.0176732)
(0.604237 0.368177 -0.0177261)
(0.546128 0.397019 -0.0178443)
(0.465402 0.439809 -0.0179063)
(0.391089 0.486361 -0.0179626)
(0.313075 0.538373 -0.0180897)
(0.209362 0.594087 -0.018244)
(0.0932692 0.643399 -0.0183112)
(3 1.2905e-07 -0.00571424)
(2.99999 7.02493e-07 -0.00571431)
(2.99998 2.60407e-06 -0.0057144)
(2.99995 6.69309e-06 -0.00571469)
(2.99989 1.83818e-05 -0.00571522)
(2.99972 4.2341e-05 -0.00571682)
(2.99938 0.000108979 -0.00571997)
(2.9983 0.000250255 -0.00572834)
(2.99648 0.000618415 -0.00574941)
(2.98942 0.00140845 -0.00578964)
(2.97822 0.00369522 -0.00595)
(2.9323 0.00814764 -0.00615987)
(2.82821 0.0234103 -0.00729337)
(2.52402 0.0602364 -0.00902546)
(1.57473 0.174261 -0.0145179)
(0.781057 0.392749 -0.017007)
(0.607972 0.390437 -0.0175103)
(0.629388 0.390858 -0.0175433)
(0.624 0.415263 -0.0175397)
(0.575365 0.447596 -0.0176139)
(0.504431 0.496663 -0.017627)
(0.43503 0.55548 -0.0176333)
(0.361988 0.622785 -0.0176736)
(0.26251 0.70499 -0.0177114)
(0.129647 0.801571 -0.0176278)
(3 1.99622e-07 -0.00571424)
(2.99999 2.67748e-07 -0.0057143)
(2.99999 2.7828e-06 -0.00571438)
(2.99996 3.66787e-06 -0.00571462)
(2.99991 1.85641e-05 -0.00571509)
(2.99975 2.33742e-05 -0.00571644)
(2.99946 0.000111725 -0.00571922)
(2.99852 0.000119562 -0.00572611)
(2.99696 0.000725998 -0.00574519)
(2.99079 0.000428721 -0.0057785)
(2.98106 0.00531698 -0.00592095)
(2.94089 0.00205969 -0.00609956)
(2.8519 0.0359492 -0.00709803)
(2.58496 0.0411992 -0.00856733)
(1.74268 0.204772 -0.0136485)
(0.90162 0.449581 -0.0164211)
(0.622348 0.436338 -0.0173355)
(0.649814 0.432044 -0.0173827)
(0.653769 0.457817 -0.0173529)
(0.612742 0.495674 -0.0173978)
(0.553707 0.550648 -0.0173745)
(0.492576 0.620335 -0.0173)
(0.432508 0.708853 -0.0172158)
(0.355114 0.837541 -0.0170589)
(0.200237 1.05469 -0.0166465)
(3 7.2862e-09 -2.43399e-09)
(2.99999 3.96628e-08 -8.61417e-09)
(2.99997 1.47236e-07 -1.00925e-08)
(2.99992 3.78038e-07 -1.57462e-08)
(2.99982 1.03875e-06 -1.59355e-08)
(2.99954 2.37566e-06 -2.07875e-08)
(2.99897 6.19946e-06 -2.04349e-08)
(2.99732 1.3723e-05 -2.57103e-08)
(2.99412 3.67146e-05 -2.64662e-08)
(2.98379 7.78546e-05 -3.72871e-08)
(2.96433 0.000243152 -3.67929e-08)
(2.89577 0.000465355 -1.04616e-07)
(2.71962 0.00174938 -8.02344e-08)
(2.25401 0.00430199 -3.35948e-07)
(1.04726 0.0129255 -4.66099e-07)
(0.373756 0.0215824 -2.88666e-07)
(0.543661 0.0237093 -1.15904e-07)
(0.600225 0.0253194 -9.6746e-08)
(0.548268 0.0271554 -1.11012e-07)
(0.45323 0.0294862 -1.2387e-07)
(0.360561 0.0324043 -1.0975e-07)
(0.288245 0.0361881 -1.03115e-07)
(0.214652 0.0404966 -1.00515e-07)
(0.129252 0.0449477 -9.12062e-08)
(0.0529829 0.0492623 -9.16749e-08)
(3 2.23142e-08 -2.43106e-09)
(2.99999 1.2163e-07 -8.61561e-09)
(2.99997 4.51383e-07 -1.00909e-08)
(2.99992 1.15813e-06 -1.57459e-08)
(2.99982 3.18056e-06 -1.59321e-08)
(2.99954 7.26716e-06 -2.07816e-08)
(2.99898 1.89436e-05 -2.04192e-08)
(2.99734 4.18567e-05 -2.56741e-08)
(2.99417 0.000111931 -2.63933e-08)
(2.98396 0.000236404 -3.70559e-08)
(2.96466 0.000738989 -3.65989e-08)
(2.89695 0.00141068 -1.03431e-07)
(2.72317 0.00530111 -7.85529e-08)
(2.26269 0.0130645 -3.29241e-07)
(1.06045 0.0391253 -4.54665e-07)
(0.385181 0.0637029 -2.89965e-07)
(0.547173 0.0677954 -1.19333e-07)
(0.602439 0.0699334 -9.75872e-08)
(0.550251 0.0727811 -1.10901e-07)
(0.454981 0.0770692 -1.23281e-07)
(0.361693 0.08235 -1.0961e-07)
(0.288207 0.088554 -1.02992e-07)
(0.213219 0.0946644 -1.00075e-07)
(0.126808 0.100097 -9.12453e-08)
(0.0504193 0.103468 -9.22421e-08)
(3 3.85366e-08 -2.42612e-09)
(2.99999 2.09877e-07 -8.61661e-09)
(2.99997 7.80206e-07 -1.00902e-08)
(2.99992 2.00071e-06 -1.57449e-08)
(2.99983 5.51121e-06 -1.59284e-08)
(2.99955 1.26001e-05 -2.07736e-08)
(2.999 3.29459e-05 -2.04009e-08)
(2.99739 7.31029e-05 -2.56286e-08)
(2.99428 0.000194076 -2.63101e-08)
(2.98431 0.000419789 -3.68066e-08)
(2.96533 0.00122023 -3.59409e-08)
(2.89935 0.00259396 -1.03789e-07)
(2.73042 0.00860946 -7.21837e-08)
(2.28079 0.0212533 -3.16647e-07)
(1.08977 0.0636532 -4.27522e-07)
(0.41101 0.105713 -2.91329e-07)
(0.554882 0.11486 -1.28138e-07)
(0.607091 0.118516 -1.00106e-07)
(0.555172 0.123484 -1.11638e-07)
(0.460616 0.131649 -1.236e-07)
(0.367362 0.14162 -1.10638e-07)
(0.29299 0.152519 -1.04274e-07)
(0.216616 0.163154 -1.0133e-07)
(0.128616 0.172315 -9.24025e-08)
(0.0505013 0.177 -9.32122e-08)
(3 5.50806e-08 -2.41811e-09)
(2.99999 2.99823e-07 -8.61823e-09)
(2.99997 1.11502e-06 -1.00896e-08)
(2.99993 2.85908e-06 -1.57439e-08)
(2.99983 7.87988e-06 -1.59242e-08)
(2.99957 1.80216e-05 -2.07658e-08)
(2.99903 4.71136e-05 -2.03813e-08)
(2.99748 0.000104815 -2.55797e-08)
(2.99446 0.00027602 -2.62006e-08)
(2.98481 0.00060635 -3.65821e-08)
(2.9665 0.00167104 -3.50651e-08)
(2.90278 0.00380097 -1.02446e-07)
(2.74024 0.01156 -6.58986e-08)
(2.30606 0.0284129 -2.91999e-07)
(1.13296 0.0848624 -3.98947e-07)
(0.442646 0.146016 -2.90042e-07)
(0.563093 0.162696 -1.42039e-07)
(0.611131 0.16715 -1.02122e-07)
(0.561332 0.173758 -1.11677e-07)
(0.469592 0.186289 -1.24538e-07)
(0.377349 0.201581 -1.11066e-07)
(0.302377 0.217641 -1.04531e-07)
(0.224715 0.233548 -1.01044e-07)
(0.134196 0.247337 -9.12248e-08)
(0.0525843 0.254149 -9.31623e-08)
(3 7.18841e-08 -2.408e-09)
(2.99999 3.91781e-07 -8.6213e-09)
(2.99997 1.45434e-06 -1.00901e-08)
(2.99993 3.72911e-06 -1.57454e-08)
(2.99984 1.0244e-05 -1.59245e-08)
(2.99958 2.34061e-05 -2.07664e-08)
(2.99908 6.08881e-05 -2.03804e-08)
(2.99758 0.000135198 -2.55615e-08)
(2.9947 0.000353692 -2.61637e-08)
(2.98546 0.000774745 -3.64114e-08)
(2.96803 0.00211379 -3.46877e-08)
(2.90719 0.0047976 -9.94124e-08)
(2.75265 0.0143187 -6.06171e-08)
(2.33806 0.0352166 -2.70345e-07)
(1.19018 0.104238 -3.66049e-07)
(0.484635 0.186931 -2.91693e-07)
(0.573136 0.211814 -1.55802e-07)
(0.614215 0.214847 -9.56523e-08)
(0.568667 0.222304 -1.08367e-07)
(0.481937 0.240088 -1.27798e-07)
(0.391335 0.261243 -1.12051e-07)
(0.315955 0.282908 -1.04996e-07)
(0.237064 0.30472 -1.02359e-07)
(0.143414 0.324088 -9.24428e-08)
(0.0567593 0.33396 -9.40682e-08)
(3 9.32578e-08 -2.39669e-09)
(2.99999 5.07585e-07 -8.62618e-09)
(2.99997 1.88786e-06 -1.00952e-08)
(2.99993 4.83952e-06 -1.57531e-08)
(2.99985 1.33395e-05 -1.59399e-08)
(2.99961 3.05121e-05 -2.07925e-08)
(2.99913 7.95954e-05 -2.04477e-08)
(2.99772 0.000177876 -2.5655e-08)
(2.995 0.000455872 -2.64396e-08)
(2.98627 0.00105545 -3.69972e-08)
(2.9699 0.00257549 -3.40264e-08)
(2.91246 0.00640896 -1.04811e-07)
(2.76755 0.0170163 -4.60902e-08)
(2.37602 0.0429697 -2.88322e-07)
(1.26097 0.122738 -3.16044e-07)
(0.538587 0.23205 -3.04922e-07)
(0.584462 0.261847 -1.83513e-07)
(0.61507 0.260787 -7.07418e-08)
(0.57775 0.269116 -9.88373e-08)
(0.498667 0.293008 -1.31967e-07)
(0.409939 0.321037 -1.15643e-07)
(0.334341 0.349298 -1.07981e-07)
(0.254484 0.378505 -1.0574e-07)
(0.156912 0.405807 -9.888e-08)
(0.0632216 0.421383 -9.71184e-08)
(3 1.16642e-07 -2.38223e-09)
(2.99999 6.31583e-07 -8.63457e-09)
(2.99998 2.35946e-06 -1.0109e-08)
(2.99994 6.062e-06 -1.57769e-08)
(2.99986 1.67783e-05 -1.601e-08)
(2.99964 3.86255e-05 -2.09319e-08)
(2.9992 0.000100099 -2.08688e-08)
(2.9979 0.000231881 -2.66725e-08)
(2.99543 0.000551582 -2.60177e-08)
(2.98722 0.0014198 -5.84412e-08)
(2.97255 0.00294174 -5.84822e-09)
(2.91871 0.00790053 -1.34234e-07)
(2.78506 0.0189102 2.17586e-09)
(2.4203 0.0507132 -2.46834e-07)
(1.34903 0.139197 -2.79474e-07)
(0.608456 0.282263 -3.36895e-07)
(0.595299 0.30582 -1.33606e-07)
(0.614414 0.305953 -1.0226e-07)
(0.590025 0.317869 -1.08276e-07)
(0.520815 0.345036 -1.19695e-07)
(0.434253 0.380836 -1.21069e-07)
(0.358669 0.417178 -1.04487e-07)
(0.27886 0.45608 -1.04271e-07)
(0.177456 0.49487 -9.84175e-08)
(0.074254 0.521569 -9.65524e-08)
(3 1.26802e-07 -2.36228e-09)
(2.99999 6.86241e-07 -8.66962e-09)
(2.99998 2.5621e-06 -1.01131e-08)
(2.99994 6.59176e-06 -1.58503e-08)
(2.99988 1.82067e-05 -1.61361e-08)
(2.99968 4.20183e-05 -2.1276e-08)
(2.99929 0.000108076 -2.14423e-08)
(2.9981 0.000253448 -2.93736e-08)
(2.99599 0.000592799 -2.61199e-08)
(2.98825 0.0015066 -6.58561e-08)
(2.97537 0.00324802 -1.30948e-09)
(2.92523 0.00822586 -1.48465e-07)
(2.80523 0.0203106 3.94778e-08)
(2.46943 0.0567762 -2.66512e-07)
(1.45025 0.15459 -2.07993e-07)
(0.686168 0.335896 -3.60995e-07)
(0.602214 0.346661 -1.18347e-07)
(0.619151 0.349778 -1.04836e-07)
(0.604248 0.368185 -1.11028e-07)
(0.546135 0.397026 -1.15748e-07)
(0.465406 0.439815 -1.17682e-07)
(0.391091 0.486364 -1.04594e-07)
(0.31308 0.538373 -1.08419e-07)
(0.209368 0.594091 -9.6192e-08)
(0.0932715 0.64341 -1.0044e-07)
(3 1.27493e-07 -2.34959e-09)
(2.99999 6.99945e-07 -8.68791e-09)
(2.99998 2.59745e-06 -1.00902e-08)
(2.99995 6.67473e-06 -1.583e-08)
(2.99989 1.8374e-05 -1.6009e-08)
(2.99971 4.23286e-05 -2.09937e-08)
(2.99938 0.000109001 -2.0765e-08)
(2.9983 0.000250408 -2.63099e-08)
(2.99648 0.000618551 -2.65503e-08)
(2.98942 0.00140998 -3.85018e-08)
(2.97822 0.0036944 -4.2456e-08)
(2.9323 0.00815151 -7.0957e-08)
(2.82819 0.0234059 -8.08844e-08)
(2.52399 0.0602372 -2.26494e-07)
(1.57469 0.174254 -2.44756e-07)
(0.781021 0.392746 -3.88306e-07)
(0.60798 0.390445 -8.75533e-08)
(0.629398 0.390869 -8.46341e-08)
(0.62401 0.415273 -1.02084e-07)
(0.575373 0.447606 -1.06825e-07)
(0.504437 0.496671 -1.10324e-07)
(0.435035 0.555485 -1.01309e-07)
(0.361994 0.622787 -1.04728e-07)
(0.262518 0.704996 -1.04132e-07)
(0.129651 0.801585 -9.96451e-08)
(3 1.85566e-07 -2.39333e-09)
(2.99999 3.30389e-07 -8.68869e-09)
(2.99998 2.6866e-06 -1.01908e-08)
(2.99996 3.7163e-06 -1.60822e-08)
(2.9999 1.84558e-05 -1.59593e-08)
(2.99975 2.34281e-05 -2.13234e-08)
(2.99946 0.000111636 -2.07992e-08)
(2.99852 0.000119676 -2.67726e-08)
(2.99696 0.000725927 -2.62159e-08)
(2.99079 0.000429193 -3.90489e-08)
(2.98105 0.00531698 -4.22198e-08)
(2.94088 0.00206075 -6.80637e-08)
(2.85188 0.0359482 -8.2992e-08)
(2.58494 0.0412056 -1.99855e-07)
(1.74263 0.204766 -2.86383e-07)
(0.901573 0.449579 -4.50136e-07)
(0.622346 0.436341 -6.09059e-08)
(0.649816 0.432051 -6.5017e-08)
(0.653772 0.457826 -9.30541e-08)
(0.612748 0.495683 -9.87787e-08)
(0.553713 0.550656 -1.0472e-07)
(0.492581 0.620341 -1.02455e-07)
(0.432514 0.708857 -1.01143e-07)
(0.355124 0.837547 -9.12076e-08)
(0.200242 1.05471 -8.70187e-08)
(3 7.28621e-09 -2.88281e-13)
(2.99999 3.96629e-08 -1.62309e-12)
(2.99997 1.47236e-07 -3.12454e-12)
(2.99992 3.78038e-07 -6.38201e-12)
(2.99982 1.03875e-06 -9.29316e-12)
(2.99954 2.37567e-06 -1.57271e-11)
(2.99897 6.19947e-06 -2.20419e-11)
(2.99732 1.3723e-05 -3.62449e-11)
(2.99412 3.67146e-05 -6.55977e-11)
(2.98379 7.78546e-05 -1.09498e-10)
(2.96433 0.000243152 -3.31353e-10)
(2.89577 0.000465356 -5.30473e-10)
(2.71962 0.00174938 -2.15751e-09)
(2.25401 0.00430199 -5.23435e-09)
(1.04726 0.0129255 -1.06497e-08)
(0.373756 0.0215824 -7.61063e-09)
(0.543661 0.0237093 -3.84624e-09)
(0.600224 0.0253194 -3.72697e-09)
(0.548267 0.0271555 -4.10167e-09)
(0.453229 0.0294862 -4.28436e-09)
(0.36056 0.0324043 -3.69069e-09)
(0.288245 0.0361881 -3.62944e-09)
(0.214652 0.0404966 -2.88347e-09)
(0.129253 0.0449478 -3.42345e-09)
(0.0529845 0.0492623 -3.3768e-09)
(3 2.23142e-08 -2.87992e-13)
(2.99999 1.21631e-07 -1.62189e-12)
(2.99997 4.51384e-07 -3.1209e-12)
(2.99992 1.15813e-06 -6.37408e-12)
(2.99982 3.18057e-06 -9.26946e-12)
(2.99954 7.26717e-06 -1.56783e-11)
(2.99898 1.89437e-05 -2.18891e-11)
(2.99734 4.18568e-05 -3.59482e-11)
(2.99417 0.000111932 -6.45358e-11)
(2.98396 0.000236404 -1.07733e-10)
(2.96466 0.000738989 -3.22695e-10)
(2.89695 0.00141069 -5.16891e-10)
(2.72317 0.00530111 -2.09275e-09)
(2.26269 0.0130645 -5.07978e-09)
(1.06045 0.0391253 -1.03636e-08)
(0.385181 0.0637029 -7.60318e-09)
(0.547173 0.0677954 -3.92833e-09)
(0.602439 0.0699335 -3.76284e-09)
(0.55025 0.0727811 -4.11705e-09)
(0.454981 0.0770693 -4.29909e-09)
(0.361693 0.08235 -3.6997e-09)
(0.288207 0.088554 -3.62966e-09)
(0.213219 0.0946643 -2.90947e-09)
(0.126808 0.100097 -3.39857e-09)
(0.0504209 0.103468 -3.41907e-09)
(3 3.85366e-08 -2.87682e-13)
(2.99999 2.09877e-07 -1.62003e-12)
(2.99997 7.80207e-07 -3.11634e-12)
(2.99992 2.00072e-06 -6.36342e-12)
(2.99983 5.51122e-06 -9.24183e-12)
(2.99955 1.26001e-05 -1.56218e-11)
(2.999 3.29459e-05 -2.17282e-11)
(2.99739 7.31029e-05 -3.56943e-11)
(2.99428 0.000194076 -6.31996e-11)
(2.98431 0.00041979 -1.07371e-10)
(2.96533 0.00122024 -3.01772e-10)
(2.89935 0.00259397 -5.28639e-10)
(2.73042 0.00860946 -1.9259e-09)
(2.28079 0.0212533 -4.78558e-09)
(1.08977 0.0636533 -9.74957e-09)
(0.411009 0.105713 -7.58126e-09)
(0.554881 0.11486 -4.12549e-09)
(0.607091 0.118516 -3.85162e-09)
(0.555172 0.123484 -4.17207e-09)
(0.460616 0.131649 -4.36247e-09)
(0.367362 0.14162 -3.75432e-09)
(0.29299 0.152519 -3.67877e-09)
(0.216616 0.163154 -3.02162e-09)
(0.128616 0.172315 -3.37859e-09)
(0.0505028 0.177 -3.45431e-09)
(3 5.50806e-08 -2.87184e-13)
(2.99999 2.99823e-07 -1.61728e-12)
(2.99997 1.11502e-06 -3.10882e-12)
(2.99993 2.85908e-06 -6.3469e-12)
(2.99983 7.87988e-06 -9.19037e-12)
(2.99957 1.80216e-05 -1.55164e-11)
(2.99903 4.71136e-05 -2.13908e-11)
(2.99748 0.000104816 -3.50588e-11)
(2.99446 0.00027602 -6.08139e-11)
(2.98481 0.00060635 -1.04451e-10)
(2.9665 0.00167104 -2.77735e-10)
(2.90278 0.00380098 -5.20335e-10)
(2.74024 0.01156 -1.75326e-09)
(2.30606 0.0284129 -4.232e-09)
(1.13296 0.0848625 -9.05239e-09)
(0.442646 0.146016 -7.47119e-09)
(0.563093 0.162696 -4.44524e-09)
(0.61113 0.16715 -3.94467e-09)
(0.561331 0.173758 -4.22323e-09)
(0.469592 0.186289 -4.45357e-09)
(0.377349 0.201581 -3.79386e-09)
(0.302377 0.217641 -3.6951e-09)
(0.224715 0.233548 -3.0253e-09)
(0.134196 0.247337 -3.15116e-09)
(0.0525858 0.254149 -3.42397e-09)
(3 7.18842e-08 -2.8664e-13)
(2.99999 3.91782e-07 -1.61429e-12)
(2.99997 1.45434e-06 -3.10085e-12)
(2.99993 3.72911e-06 -6.32911e-12)
(2.99984 1.0244e-05 -9.13252e-12)
(2.99958 2.34061e-05 -1.53966e-11)
(2.99908 6.08881e-05 -2.09849e-11)
(2.99758 0.000135198 -3.42335e-11)
(2.9947 0.000353692 -5.79348e-11)
(2.98546 0.000774745 -9.86907e-11)
(2.96803 0.00211379 -2.56657e-10)
(2.90719 0.0047976 -4.76595e-10)
(2.75265 0.0143187 -1.59252e-09)
(2.33806 0.0352166 -3.81249e-09)
(1.19018 0.104239 -8.35229e-09)
(0.484635 0.186931 -7.44758e-09)
(0.573136 0.211814 -4.76485e-09)
(0.614215 0.214847 -3.86494e-09)
(0.568667 0.222304 -4.19025e-09)
(0.481937 0.240088 -4.56677e-09)
(0.391335 0.261243 -3.84247e-09)
(0.315954 0.282908 -3.67863e-09)
(0.237064 0.30472 -3.25025e-09)
(0.143414 0.324088 -3.03834e-09)
(0.0567607 0.333961 -3.25327e-09)
(3 9.32579e-08 -2.86427e-13)
(2.99999 5.07585e-07 -1.61248e-12)
(2.99997 1.88786e-06 -3.09808e-12)
(2.99993 4.83952e-06 -6.32104e-12)
(2.99985 1.33395e-05 -9.11295e-12)
(2.99961 3.05121e-05 -1.53505e-11)
(2.99913 7.95954e-05 -2.08711e-11)
(2.99772 0.000177876 -3.40365e-11)
(2.995 0.000455872 -5.70192e-11)
(2.98627 0.00105545 -1.00047e-10)
(2.9699 0.00257549 -2.31692e-10)
(2.91246 0.00640896 -5.40949e-10)
(2.76755 0.0170164 -1.34653e-09)
(2.37602 0.0429697 -3.91984e-09)
(1.26097 0.122738 -7.42893e-09)
(0.538586 0.232051 -7.56468e-09)
(0.584462 0.261847 -5.37064e-09)
(0.615069 0.260787 -3.36645e-09)
(0.577749 0.269116 -3.99378e-09)
(0.498666 0.293008 -4.69058e-09)
(0.409938 0.321037 -4.01214e-09)
(0.33434 0.349298 -3.80602e-09)
(0.254484 0.378505 -3.13026e-09)
(0.156912 0.405807 -3.59501e-09)
(0.063223 0.421384 -3.37254e-09)
(3 1.16642e-07 -2.86043e-13)
(2.99999 6.31583e-07 -1.60958e-12)
(2.99998 2.35946e-06 -3.09254e-12)
(2.99994 6.062e-06 -6.30877e-12)
(2.99986 1.67783e-05 -9.07793e-12)
(2.99964 3.86256e-05 -1.52815e-11)
(2.9992 0.000100099 -2.06508e-11)
(2.9979 0.000231881 -3.38505e-11)
(2.99543 0.000551582 -5.40641e-11)
(2.98722 0.0014198 -1.07759e-10)
(2.97255 0.00294174 -2.01909e-10)
(2.91871 0.00790054 -5.03294e-10)
(2.78506 0.0189102 -1.27017e-09)
(2.4203 0.0507132 -3.20893e-09)
(1.34903 0.139197 -7.11263e-09)
(0.608455 0.282263 -7.95807e-09)
(0.595298 0.30582 -4.27405e-09)
(0.614413 0.305953 -3.90743e-09)
(0.590025 0.317869 -4.1409e-09)
(0.520814 0.345036 -4.43811e-09)
(0.434253 0.380836 -4.30191e-09)
(0.358669 0.417178 -3.68198e-09)
(0.27886 0.45608 -3.18359e-09)
(0.177456 0.49487 -3.58569e-09)
(0.0742553 0.521569 -3.01273e-09)
(3 1.26802e-07 -2.85419e-13)
(2.99999 6.8624e-07 -1.60716e-12)
(2.99998 2.56209e-06 -3.08202e-12)
(2.99994 6.59175e-06 -6.28623e-12)
(2.99988 1.82066e-05 -8.98418e-12)
(2.99968 4.20182e-05 -1.50588e-11)
(2.99929 0.000108076 -2.00133e-11)
(2.9981 0.000253447 -3.11692e-11)
(2.99599 0.000592799 -5.21546e-11)
(2.98825 0.0015066 -8.24309e-11)
(2.97537 0.00324802 -1.95925e-10)
(2.92523 0.00822586 -4.09835e-10)
(2.80523 0.0203106 -9.9144e-10)
(2.46943 0.0567763 -3.29309e-09)
(1.45025 0.15459 -6.22283e-09)
(0.686168 0.335896 -8.36019e-09)
(0.602214 0.346661 -3.98834e-09)
(0.619151 0.349779 -3.88902e-09)
(0.604248 0.368185 -4.24874e-09)
(0.546135 0.397026 -4.38935e-09)
(0.465405 0.439815 -4.30059e-09)
(0.391091 0.486364 -3.72105e-09)
(0.31308 0.538373 -3.33857e-09)
(0.209368 0.594091 -3.3763e-09)
(0.0932728 0.643411 -2.96148e-09)
(3 1.27492e-07 -2.85698e-13)
(2.99999 6.99943e-07 -1.60817e-12)
(2.99998 2.59744e-06 -3.08223e-12)
(2.99995 6.67471e-06 -6.29019e-12)
(2.99989 1.8374e-05 -8.94592e-12)
(2.99971 4.23285e-05 -1.49942e-11)
(2.99938 0.000109001 -1.95583e-11)
(2.9983 0.000250407 -3.01118e-11)
(2.99648 0.000618551 -4.81282e-11)
(2.98942 0.00140998 -7.10858e-11)
(2.97822 0.0036944 -1.82419e-10)
(2.9323 0.00815151 -2.94971e-10)
(2.82819 0.023406 -1.08062e-09)
(2.52399 0.0602372 -2.67014e-09)
(1.57469 0.174254 -5.94911e-09)
(0.781021 0.392746 -8.69617e-09)
(0.607979 0.390445 -3.83724e-09)
(0.629398 0.390869 -3.74722e-09)
(0.62401 0.415273 -4.16993e-09)
(0.575373 0.447606 -4.27604e-09)
(0.504437 0.496671 -4.19398e-09)
(0.435035 0.555485 -3.69528e-09)
(0.361994 0.622787 -3.5138e-09)
(0.262518 0.704996 -3.35203e-09)
(0.129652 0.801586 -3.02403e-09)
(3 1.85563e-07 -2.91169e-13)
(2.99999 3.30397e-07 -1.61348e-12)
(2.99998 2.68658e-06 -3.09369e-12)
(2.99996 3.71632e-06 -6.46893e-12)
(2.9999 1.84557e-05 -8.79e-12)
(2.99975 2.34281e-05 -1.51303e-11)
(2.99946 0.000111636 -1.91414e-11)
(2.99852 0.000119676 -2.90735e-11)
(2.99696 0.000725927 -4.50042e-11)
(2.99079 0.000429193 -6.25979e-11)
(2.98105 0.00531698 -1.55758e-10)
(2.94088 0.00206076 -2.37854e-10)
(2.85188 0.0359483 -9.37057e-10)
(2.58494 0.0412056 -2.02163e-09)
(1.74263 0.204767 -5.84552e-09)
(0.901573 0.449579 -9.14387e-09)
(0.622346 0.436341 -3.65221e-09)
(0.649815 0.432051 -3.55228e-09)
(0.653772 0.457826 -4.05623e-09)
(0.612747 0.495683 -4.16535e-09)
(0.553713 0.550656 -4.11621e-09)
(0.492581 0.620341 -3.90107e-09)
(0.432514 0.708857 -3.51165e-09)
(0.355124 0.837547 -2.86244e-09)
(0.200243 1.05471 -2.59339e-09)
(3 7.28621e-09 -1.33976e-15)
(2.99999 3.96629e-08 -5.27899e-15)
(2.99997 1.47237e-07 -2.29152e-14)
(2.99992 3.78039e-07 -4.86215e-14)
(2.99982 1.03876e-06 -1.89962e-13)
(2.99954 2.37567e-06 -3.93946e-13)
(2.99897 6.19948e-06 -1.48811e-12)
(2.99732 1.3723e-05 -3.00359e-12)
(2.99412 3.67147e-05 -1.16889e-11)
(2.98379 7.78547e-05 -2.19845e-11)
(2.96433 0.000243153 -9.68164e-11)
(2.89577 0.000465357 -1.74392e-10)
(2.71962 0.00174939 -7.64093e-10)
(2.25401 0.004302 -1.97961e-09)
(1.04726 0.0129256 -4.25992e-09)
(0.373755 0.0215824 -3.28779e-09)
(0.543661 0.0237093 -1.91401e-09)
(0.600224 0.0253194 -2.23802e-09)
(0.548267 0.0271555 -2.55389e-09)
(0.453229 0.0294862 -2.82265e-09)
(0.36056 0.0324043 -2.53438e-09)
(0.288245 0.0361881 -2.28729e-09)
(0.214652 0.0404966 -2.55192e-09)
(0.129252 0.0449477 -1.94652e-09)
(0.052985 0.0492623 -1.91592e-09)
(3 2.23142e-08 -1.19455e-15)
(2.99999 1.21631e-07 -4.68075e-15)
(2.99997 4.51384e-07 -2.07533e-14)
(2.99992 1.15813e-06 -4.40023e-14)
(2.99982 3.18057e-06 -1.75478e-13)
(2.99954 7.26717e-06 -3.64413e-13)
(2.99898 1.89436e-05 -1.39593e-12)
(2.99734 4.18567e-05 -2.82683e-12)
(2.99417 0.000111932 -1.10795e-11)
(2.98396 0.000236404 -2.09692e-11)
(2.96466 0.000738991 -9.2546e-11)
(2.89695 0.00141069 -1.66277e-10)
(2.72317 0.00530113 -7.3535e-10)
(2.26269 0.0130646 -1.90374e-09)
(1.06045 0.0391254 -4.11162e-09)
(0.38518 0.063703 -3.26763e-09)
(0.547173 0.0677955 -1.94752e-09)
(0.602439 0.0699335 -2.25512e-09)
(0.55025 0.0727811 -2.55936e-09)
(0.454981 0.0770692 -2.81978e-09)
(0.361693 0.08235 -2.52546e-09)
(0.288206 0.088554 -2.28402e-09)
(0.213219 0.0946643 -2.53215e-09)
(0.126808 0.100097 -1.9602e-09)
(0.0504213 0.103468 -1.93572e-09)
(3 3.85366e-08 -9.91265e-16)
(2.99999 2.09877e-07 -3.73337e-15)
(2.99997 7.80207e-07 -1.72466e-14)
(2.99992 2.00071e-06 -3.62855e-14)
(2.99983 5.51122e-06 -1.49849e-13)
(2.99955 1.26001e-05 -3.11216e-13)
(2.999 3.29459e-05 -1.22391e-12)
(2.99739 7.31029e-05 -2.48694e-12)
(2.99428 0.000194076 -9.91977e-12)
(2.98431 0.000419789 -1.88675e-11)
(2.96533 0.00122024 -8.44869e-11)
(2.89935 0.00259397 -1.49113e-10)
(2.73042 0.00860948 -6.78931e-10)
(2.28078 0.0212533 -1.75158e-09)
(1.08977 0.0636534 -3.82354e-09)
(0.411009 0.105713 -3.22772e-09)
(0.554881 0.11486 -2.02055e-09)
(0.607091 0.118516 -2.29944e-09)
(0.555172 0.123484 -2.58984e-09)
(0.460615 0.131649 -2.85911e-09)
(0.367362 0.14162 -2.55399e-09)
(0.29299 0.152519 -2.32196e-09)
(0.216616 0.163154 -2.53866e-09)
(0.128616 0.172315 -1.99393e-09)
(0.0505032 0.177 -1.94607e-09)
(3 5.50807e-08 -8.04112e-16)
(2.99999 2.99823e-07 -3.01122e-15)
(2.99997 1.11502e-06 -1.41128e-14)
(2.99993 2.85908e-06 -2.94186e-14)
(2.99983 7.87988e-06 -1.24718e-13)
(2.99957 1.80216e-05 -2.58376e-13)
(2.99903 4.71136e-05 -1.04139e-12)
(2.99748 0.000104816 -2.1236e-12)
(2.99446 0.000276021 -8.60544e-12)
(2.98481 0.000606351 -1.67042e-11)
(2.9665 0.00167104 -7.3311e-11)
(2.90278 0.00380098 -1.36444e-10)
(2.74024 0.01156 -5.99592e-10)
(2.30606 0.028413 -1.50562e-09)
(1.13296 0.0848626 -3.48419e-09)
(0.442645 0.146017 -3.14e-09)
(0.563093 0.162696 -2.13347e-09)
(0.61113 0.16715 -2.36235e-09)
(0.561331 0.173758 -2.62939e-09)
(0.469592 0.186289 -2.90712e-09)
(0.377349 0.201581 -2.58412e-09)
(0.302377 0.217641 -2.34132e-09)
(0.224715 0.233548 -2.54328e-09)
(0.134196 0.247337 -2.00734e-09)
(0.0525862 0.254149 -1.9407e-09)
(3 7.18842e-08 -6.0857e-16)
(2.99999 3.91782e-07 -2.19743e-15)
(2.99997 1.45434e-06 -1.07494e-14)
(2.99993 3.72911e-06 -2.20425e-14)
(2.99984 1.0244e-05 -9.72228e-14)
(2.99958 2.34061e-05 -2.00629e-13)
(2.99908 6.08881e-05 -8.36584e-13)
(2.99758 0.000135198 -1.70251e-12)
(2.9947 0.000353692 -7.11751e-12)
(2.98546 0.000774746 -1.37361e-11)
(2.96803 0.00211379 -6.22174e-11)
(2.90719 0.0047976 -1.15025e-10)
(2.75265 0.0143187 -5.17038e-10)
(2.33806 0.0352166 -1.29977e-09)
(1.19018 0.104239 -3.11544e-09)
(0.484634 0.186931 -3.05986e-09)
(0.573136 0.211814 -2.2556e-09)
(0.614215 0.214847 -2.38123e-09)
(0.568667 0.222304 -2.6441e-09)
(0.481937 0.240088 -2.96555e-09)
(0.391335 0.261243 -2.62188e-09)
(0.315954 0.282908 -2.34441e-09)
(0.237064 0.30472 -2.5875e-09)
(0.143414 0.324088 -2.06444e-09)
(0.056761 0.333961 -2.00558e-09)
(3 9.32578e-08 -4.38841e-16)
(2.99999 5.07585e-07 -1.40816e-15)
(2.99997 1.88786e-06 -7.85505e-15)
(2.99993 4.83952e-06 -1.55951e-14)
(2.99985 1.33395e-05 -7.63936e-14)
(2.99961 3.05121e-05 -1.57056e-13)
(2.99913 7.95954e-05 -7.0158e-13)