/*--------------------------------*- C++ -*----------------------------------*\
| =========                 |                                                 |
| \\      /  F ield         | OpenFOAM: The Open Source CFD Toolbox           |
|  \\    /   O peration     | Version:  4.1                                   |
|   \\  /    A nd           | Web:      www.OpenFOAM.org                      |
|    \\/     M anipulation  |                                                 |
\*---------------------------------------------------------------------------*/
FoamFile
{
    version     2.0;
    format      ascii;
    class       surfaceScalarField;
    location    "7.78";
    object      phi;
}
// * * * * * * * * * * * * * * * * * * * * * * * * * * * * * * * * * * * * * //

dimensions      [1 0 -1 0 0 0 0];

internalField   nonuniform List<scalar> 
150500
(
0.0168001
1.89601e-10
-3.54129e-12
0.0168001
1.05944e-09
-1.15708e-11
0.0168001
3.93492e-09
-1.36694e-11
0.0168
1.01275e-08
-2.1391e-11
0.0168
2.78071e-08
-2.18849e-11
0.0167999
6.37046e-08
-2.89563e-11
0.0167998
1.65105e-07
-2.96638e-11
0.0167994
3.72454e-07
-4.04336e-11
0.0167983
9.60063e-07
-4.27982e-11
0.0167961
2.19558e-06
-8.88077e-11
0.0167894
5.90309e-06
-5.83057e-11
0.0167735
1.57532e-05
-3.27575e-10
0.0167169
5.40445e-05
-2.94431e-10
0.0165433
0.000168818
-1.42993e-09
0.0155177
0.00100909
-2.95798e-09
0.0143638
0.00115465
-5.40341e-11
0.0131884
0.00117504
-2.67797e-10
0.0119354
0.00125093
-5.034e-10
0.0105967
0.00133654
-5.25446e-10
0.00915681
0.00143773
-5.5339e-10
0.00759321
0.00156136
-5.79716e-10
0.00589641
0.00169473
-6.13332e-10
0.004074
0.00182012
-6.30474e-10
0.0021199
0.00195148
-6.38472e-10
0.00211766
-6.38214e-10
0.0168001
3.90188e-10
-3.53148e-12
0.0168001
2.17736e-09
-1.15788e-11
0.0168001
8.09278e-09
-1.36606e-11
0.0168
2.08107e-08
-2.14e-11
0.0168
5.71959e-08
-2.18939e-11
0.0167999
1.30898e-07
-2.89898e-11
0.0167997
3.40036e-07
-2.97401e-11
0.0167993
7.62693e-07
-4.06125e-11
0.0167982
1.99024e-06
-4.30988e-11
0.0167959
4.45984e-06
-8.96738e-11
0.0167888
1.23069e-05
-5.86793e-11
0.0167724
3.18682e-05
-3.28618e-10
0.0167127
0.000111205
-2.93417e-10
0.016533
0.000343762
-1.41866e-09
0.0154932
0.00203224
-2.95163e-09
0.0143225
0.00232616
-3.26787e-11
0.0131585
0.00233871
-2.60679e-10
0.0119185
0.00248886
-4.99717e-10
0.0105869
0.00266592
-5.20264e-10
0.0091345
0.00288801
-5.47243e-10
0.00755189
0.00314177
-5.73291e-10
0.00583619
0.00340832
-6.07224e-10
0.003993
0.00366097
-6.25197e-10
0.00203096
0.00391091
-6.34479e-10
0.00414633
-6.36767e-10
0.0168001
6.16947e-10
-3.51372e-12
0.0168001
3.4253e-09
-1.15914e-11
0.0168
1.27339e-08
-1.36443e-11
0.0168
3.27361e-08
-2.14149e-11
0.0168
9.0113e-08
-2.19046e-11
0.0167999
2.07015e-07
-2.90335e-11
0.0167997
5.33932e-07
-2.98341e-11
0.0167992
1.22932e-06
-4.07052e-11
0.0167981
3.03422e-06
-4.35561e-11
0.0167953
7.24931e-06
-8.93693e-11
0.0167884
1.83788e-05
-5.9658e-11
0.0167716
4.84556e-05
-3.25007e-10
0.0167128
0.000167458
-2.9684e-10
0.0165373
0.000514629
-1.40924e-09
0.0155175
0.00303489
-2.9979e-09
0.0143348
0.00351002
-1.25966e-12
0.0131751
0.00349795
-2.51481e-10
0.011947
0.00371497
-4.92276e-10
0.0106268
0.00398391
-5.08227e-10
0.00917952
0.00433316
-5.29764e-10
0.00759401
0.00472506
-5.57874e-10
0.00587231
0.00512804
-5.92868e-10
0.00400714
0.00552385
-6.15064e-10
0.00203272
0.00588272
-6.30387e-10
0.00617677
-6.42092e-10
0.0168001
8.28303e-10
-3.48441e-12
0.0168001
4.57796e-09
-1.1621e-11
0.0168001
1.70417e-08
-1.36386e-11
0.0168
4.37963e-08
-2.14977e-11
0.0168
1.20939e-07
-2.20919e-11
0.0167999
2.78808e-07
-2.95484e-11
0.0167997
7.17557e-07
-3.08332e-11
0.0167993
1.68107e-06
-4.56103e-11
0.0167981
4.02118e-06
-4.13154e-11
0.0167955
9.8937e-06
-1.26571e-10
0.0167884
2.4733e-05
-1.50888e-11
0.0167719
6.45396e-05
-3.68746e-10
0.016717
0.000219794
-2.29845e-10
0.0165487
0.000678287
-1.37967e-09
0.0155764
0.0039896
-2.98714e-09
0.0143858
0.00470221
5.89956e-11
0.013232
0.00465139
-2.53873e-10
0.0120227
0.00492232
-4.94437e-10
0.0107239
0.00528043
-5.00769e-10
0.00929521
0.00575981
-5.10255e-10
0.00771967
0.00629799
-5.40483e-10
0.00599723
0.00684843
-5.74625e-10
0.00412446
0.00739427
-5.99175e-10
0.00209529
0.00790916
-6.22392e-10
0.00826975
-6.462e-10
0.0168001
9.5513e-10
-3.43845e-12
0.0168001
5.26731e-09
-1.16389e-11
0.0168001
1.96258e-08
-1.3536e-11
0.0168
5.03258e-08
-2.15701e-11
0.0168
1.39256e-07
-2.16604e-11
0.0168
3.20022e-07
-2.91983e-11
0.0167998
8.33544e-07
-2.97125e-11
0.0167996
1.90632e-06
-4.06807e-11
0.0167986
4.85681e-06
-4.40641e-11
0.0167975
1.10679e-05
-8.04429e-11
0.0167896
3.18304e-05
-1.0516e-10
0.0167755
7.83458e-05
-2.6343e-10
0.016726
0.000266809
-3.54555e-10
0.0165597
0.00083963
-1.42673e-09
0.0156714
0.00485957
-3.12747e-09
0.0144615
0.00591405
2.13849e-10
0.0133114
0.00580098
-1.70661e-10
0.0121286
0.00610304
-4.64552e-10
0.0108658
0.00654096
-4.71661e-10
0.00947842
0.00714537
-4.77009e-10
0.00793347
0.00784122
-5.0531e-10
0.00621315
0.00856638
-5.41788e-10
0.00430674
0.00929909
-5.71091e-10
0.00222743
0.00998589
-6.02709e-10
0.0104948
-6.36455e-10
0.0168001
9.73338e-10
-3.39234e-12
0.0168001
5.3708e-09
-1.16516e-11
0.0168001
2.00556e-08
-1.34695e-11
0.0168001
5.11928e-08
-2.17427e-11
0.0168
1.4202e-07
-2.13662e-11
0.0168
3.22799e-07
-2.93867e-11
0.0168
8.62722e-07
-2.957e-11
0.0168
1.86122e-06
-4.1105e-11
0.0167994
5.35542e-06
-4.38964e-11
0.0167994
1.1033e-05
-8.21374e-11
0.0167942
3.62775e-05
-1.08418e-10
0.0167899
8.24286e-05
-2.6313e-10
0.0167075
0.000346541
-3.672e-10
0.0165659
0.000976343
-1.43603e-09
0.015779
0.00562724
-3.25926e-09
0.0145344
0.00716138
3.59224e-10
0.0134014
0.00693389
-9.54763e-11
0.0122578
0.00724444
-4.38018e-10
0.0110466
0.00774991
-4.46483e-10
0.00970891
0.00848026
-4.47094e-10
0.00821137
0.00933682
-4.65625e-10
0.00652569
0.0102499
-4.97878e-10
0.00460407
0.0112181
-5.29211e-10
0.00240908
0.0121784
-5.65408e-10
0.0129016
-6.06639e-10
0.0168001
9.6491e-10
-3.35489e-12
0.0168001
5.37529e-09
-1.1642e-11
0.0168001
2.00814e-08
-1.35011e-11
0.0168001
5.13058e-08
-2.15632e-11
0.0168001
1.41735e-07
-2.15247e-11
0.0168001
3.19389e-07
-2.90721e-11
0.0168
8.74021e-07
-2.93833e-11
0.0168001
1.73065e-06
-3.98072e-11
0.0167994
5.97375e-06
-4.35331e-11
0.0168009
9.56539e-06
-7.59876e-11
0.0167918
4.45478e-05
-1.06011e-10
0.0167893
8.47021e-05
-2.43235e-10
0.0167353
0.000397947
-4.01921e-10
0.0166281
0.00107987
-1.40131e-09
0.0161643
0.00607017
-3.43529e-09
0.0148316
0.00849769
3.91373e-10
0.0136515
0.00811467
-6.19348e-11
0.0125146
0.00838046
-4.30212e-10
0.0113508
0.00891276
-4.36224e-10
0.0100777
0.009752
-4.25493e-10
0.00862734
0.0107852
-4.26044e-10
0.00696372
0.0119118
-4.52247e-10
0.00502996
0.0131497
-4.79814e-10
0.00273709
0.0144683
-5.11568e-10
0.0156363
-5.51748e-10
0.0168001
1.17562e-09
-3.33791e-12
0.0168001
6.48568e-09
-1.1594e-11
0.0168001
2.4106e-08
-1.36156e-11
0.0168
6.1687e-08
-2.13716e-11
0.0168
1.70288e-07
-2.18685e-11
0.0167999
3.88437e-07
-2.90118e-11
0.0167998
1.02758e-06
-2.9847e-11
0.0167993
2.23455e-06
-4.20091e-11
0.0167986
6.46406e-06
-4.05666e-11
0.0167963
1.19792e-05
-1.07629e-10
0.0167935
4.65514e-05
-3.3604e-11
0.0167867
9.1435e-05
-3.16203e-10
0.0167756
0.000406465
-2.66059e-10
0.0167577
0.00109453
-1.30242e-09
0.0169085
0.00589776
-3.31281e-09
0.0154791
0.00993072
3.12219e-10
0.014156
0.00943832
-1.12319e-10
0.0129688
0.00956534
-4.27597e-10
0.011821
0.0100587
-4.30212e-10
0.0105937
0.0109779
-4.12483e-10
0.00921628
0.0121608
-3.98339e-10
0.00760498
0.0135214
-4.15627e-10
0.00567845
0.0150745
-4.33466e-10
0.00324939
0.0168955
-4.55054e-10
0.0188834
-4.84806e-10
0.0168001
1.51405e-09
-3.29416e-12
0.0168001
6.78409e-09
-1.15969e-11
0.0168001
2.68684e-08
-1.35842e-11
0.0168
6.65996e-08
-2.13143e-11
0.0168
1.8748e-07
-2.16493e-11
0.0168
4.1994e-07
-2.84965e-11
0.0167999
1.12125e-06
-2.86367e-11
0.0167997
2.42586e-06
-3.69734e-11
0.0167993
6.7253e-06
-4.15692e-11
0.0167978
1.34503e-05
-6.22469e-11
0.0167984
4.52364e-05
-8.35861e-11
0.0168039
8.56876e-05
-2.15945e-10
0.0168347
0.00037311
-3.48547e-10
0.0169673
0.000958921
-1.16541e-09
0.0181144
0.00472831
-3.21462e-09
0.0165695
0.0114793
-9.34269e-11
0.0149396
0.0110712
-2.5198e-10
0.0137184
0.0107871
-4.12221e-10
0.0125731
0.0112026
-4.04297e-10
0.0113709
0.0121788
-3.89778e-10
0.0100288
0.0135011
-3.77043e-10
0.00854613
0.0150021
-3.80898e-10
0.00675262
0.0168657
-3.82951e-10
0.00422291
0.0194226
-3.84716e-10
0.023104
-3.98587e-10
0.0168001
-3.34041e-12
2.7401e-09
0.0168001
-1.15223e-11
2.61608e-09
0.0168
-1.37524e-11
3.77837e-08
0.0168001
-2.1379e-11
3.5995e-08
0.0168
-2.17593e-11
2.5302e-07
0.0168002
-2.85095e-11
2.38278e-07
0.0167998
-2.84458e-11
1.52318e-06
0.0168009
-3.64434e-11
1.33655e-06
0.016798
-3.98264e-11
9.48161e-06
0.0168053
-5.91212e-11
6.14984e-06
0.0167832
-6.89734e-11
6.68181e-05
0.0168384
-2.06281e-10
3.01768e-05
0.0167331
-2.17912e-10
0.000476098
0.0170846
-8.13276e-10
0.000607648
0.0180924
-1.7451e-09
0.00370518
0.0171902
-1.33367e-09
0.0123721
0.0155745
-6.08468e-10
0.012684
0.0145388
-4.08136e-10
0.0118216
0.0133928
-3.87081e-10
0.012347
0.0123313
-3.84307e-10
0.013239
0.0111781
-3.69529e-10
0.0146532
0.00990496
-3.63076e-10
0.0162741
0.00824929
-3.51051e-10
0.01852
0.00583606
-3.28483e-10
0.0218337
-3.10567e-10
0.0289379
0.0168001
1.94478e-10
-6.16588e-16
0.0168001
1.05958e-09
-3.22456e-15
0.0168
3.94096e-09
-7.53361e-15
0.0168
1.01281e-08
-1.57964e-14
0.0168
2.78041e-08
-3.26133e-14
0.0167999
6.36854e-08
-6.2271e-14
0.0167998
1.6505e-07
-1.43384e-13
0.0167994
3.72317e-07
-2.81202e-13
0.0167983
9.59805e-07
-7.33391e-13
0.0167961
2.19491e-06
-1.5031e-12
0.0167894
5.90245e-06
-4.0631e-12
0.0167735
1.57522e-05
-1.09571e-11
0.0167169
5.4044e-05
-2.93901e-11
0.0165433
0.000168825
-9.18237e-11
0.0155177
0.0010091
-2.34894e-10
0.0143638
0.00115462
1.17589e-11
0.0131884
0.00117502
-6.16983e-12
0.0119355
0.00125091
-2.84983e-11
0.0105967
0.00133653
-3.094e-11
0.00915684
0.00143774
-3.34319e-11
0.00759322
0.00156138
-3.36656e-11
0.00589639
0.00169475
-3.4482e-11
0.00407396
0.00182014
-3.53998e-11
0.00211985
0.00195149
-3.61793e-11
0.00211761
-3.66991e-11
0.0168001
3.99113e-10
-6.19992e-16
0.0168001
2.17909e-09
-3.23942e-15
0.0168
8.10327e-09
-7.5834e-15
0.0168
2.08094e-08
-1.59058e-14
0.0168
5.71813e-08
-3.29056e-14
0.0167999
1.30835e-07
-6.28802e-14
0.0167997
3.39865e-07
-1.4486e-13
0.0167993
7.62279e-07
-2.8446e-13
0.0167982
1.98911e-06
-7.39541e-13
0.0167959
4.45831e-06
-1.5193e-12
0.0167888
1.23012e-05
-4.08263e-12
0.0167724
3.18683e-05
-1.09748e-11
0.0167127
0.0001112
-2.94524e-11
0.016533
0.000343778
-9.16341e-11
0.0154932
0.00203222
-2.35526e-10
0.0143226
0.00232609
1.3366e-11
0.0131585
0.00233867
-5.81005e-12
0.0119185
0.00248885
-2.86198e-11
0.010587
0.00266591
-3.08593e-11
0.00913453
0.00288804
-3.31406e-11
0.00755189
0.00314181
-3.33576e-11
0.00583616
0.00340837
-3.42016e-11
0.00399296
0.00366101
-3.51523e-11
0.00203092
0.00391091
-3.59726e-11
0.00414625
-3.65316e-11
0.0168001
6.31691e-10
-6.26769e-16
0.0168001
3.42395e-09
-3.27002e-15
0.0168
1.27429e-08
-7.67912e-15
0.0168
3.2714e-08
-1.61116e-14
0.0168
9.00138e-08
-3.34148e-14
0.0167999
2.06751e-07
-6.38726e-14
0.0167997
5.33339e-07
-1.47176e-13
0.0167992
1.22664e-06
-2.87998e-13
0.0167981
3.03454e-06
-7.50089e-13
0.0167953
7.23058e-06
-1.5273e-12
0.0167884
1.83954e-05
-4.12471e-12
0.0167716
4.84338e-05
-1.09303e-11
0.0167128
0.00016749
-2.96584e-11
0.0165372
0.000514647
-9.14621e-11
0.0155175
0.00303491
-2.38478e-10
0.0143348
0.00350988
2.17042e-11
0.0131752
0.00349786
-5.00536e-12
0.0119471
0.00371493
-2.89103e-11
0.0106269
0.0039839
-3.08285e-11
0.00917957
0.00433319
-3.26847e-11
0.00759404
0.00472511
-3.29407e-11
0.00587234
0.0051281
-3.38033e-11
0.00400715
0.0055239
-3.47602e-11
0.00203273
0.00588273
-3.56643e-11
0.00617669
-3.62888e-11
0.0168001
8.50947e-10
-6.57294e-16
0.0168001
4.5874e-09
-3.39024e-15
0.0168
1.71042e-08
-8.12644e-15
0.0168
4.38017e-08
-1.71401e-14
0.0168
1.21154e-07
-3.6392e-14
0.0167999
2.79075e-07
-7.10111e-14
0.0167997
7.18209e-07
-1.61507e-13
0.0167993
1.68355e-06
-3.53932e-13
0.0167981
4.02064e-06
-7.26636e-13
0.0167954
9.91417e-06
-2.02058e-12
0.0167884
2.46971e-05
-3.19971e-12
0.0167718
6.45798e-05
-1.13561e-11
0.016717
0.000219729
-2.92083e-11
0.0165488
0.000678244
-9.13701e-11
0.0155767
0.00398943
-2.43125e-10
0.0143861
0.00470202
1.74507e-11
0.0132323
0.00465135
-4.43431e-12
0.0120229
0.00492232
-2.92581e-11
0.0107242
0.00528045
-3.07245e-11
0.00929541
0.00575986
-3.18088e-11
0.00771983
0.00629806
-3.21223e-11
0.00599736
0.00684851
-3.31051e-11
0.00412456
0.00739436
-3.39377e-11
0.00209534
0.00790921
-3.50499e-11
0.00826973
-3.58141e-11
0.0168001
9.78021e-10
-6.41645e-16
0.0168001
5.28062e-09
-3.3097e-15
0.0168001
1.96764e-08
-7.84716e-15
0.0168
5.0288e-08
-1.67083e-14
0.0168
1.39422e-07
-3.44319e-14
0.0168
3.20062e-07
-6.7007e-14
0.0167998
8.33793e-07
-1.53308e-13
0.0167996
1.90661e-06
-3.09178e-13
0.0167986
4.85788e-06
-7.63664e-13
0.0167975
1.10691e-05
-1.58886e-12
0.0167896
3.18351e-05
-4.53634e-12
0.0167756
7.8347e-05
-1.08961e-11
0.016726
0.000266802
-2.76555e-11
0.0165596
0.000839621
-9.41656e-11
0.0156712
0.00485949
-2.47809e-10
0.0144615
0.00591372
2.7549e-11
0.0133115
0.00580084
-4.13553e-12
0.0121287
0.00610297
-2.96389e-11
0.0108659
0.00654093
-3.06653e-11
0.00947862
0.0071454
-3.13542e-11
0.00793366
0.0078413
-3.14575e-11
0.00621331
0.0085665
-3.24491e-11
0.00430687
0.00929921
-3.31448e-11
0.00222751
0.00998599
-3.42993e-11
0.0104949
-3.50695e-11
0.0168001
9.91915e-10
-6.3479e-16
0.0168001
5.39079e-09
-3.26842e-15
0.0168001
2.00613e-08
-7.7497e-15
0.0168001
5.12927e-08
-1.65079e-14
0.0168
1.41991e-07
-3.40365e-14
0.0168
3.22966e-07
-6.63099e-14
0.0168
8.62879e-07
-1.52313e-13
0.0168
1.86188e-06
-3.08935e-13
0.0167994
5.35572e-06
-7.64945e-13
0.0167994
1.10353e-05
-1.5941e-12
0.0167942
3.62797e-05
-4.63521e-12
0.0167898
8.24427e-05
-1.08024e-11
0.0167075
0.000346534
-2.85831e-11
0.0165658
0.000976401
-9.43785e-11
0.0157787
0.00562737
-2.54427e-10
0.0145341
0.00716097
3.58776e-11
0.0134013
0.00693363
-2.30877e-12
0.0122578
0.00724428
-2.90923e-11
0.0110467
0.00774982
-2.95482e-11
0.009709
0.00848022
-2.95794e-11
0.0082115
0.00933686
-2.97144e-11
0.00652583
0.01025
-3.08735e-11
0.00460418
0.0112182
-3.17014e-11
0.00240915
0.0121786
-3.285e-11
0.0129017
-3.37193e-11
0.0168001
9.75046e-10
-6.00158e-16
0.0168001
5.40882e-09
-3.12081e-15
0.0168001
2.00548e-08
-7.24695e-15
0.0168001
5.13977e-08
-1.54007e-14
0.0168001
1.41648e-07
-3.08807e-14
0.0168001
3.19445e-07
-5.91073e-14
0.0168
8.73953e-07
-1.37632e-13
0.0168001
1.73023e-06
-2.51521e-13
0.0167994
5.9756e-06
-7.60616e-13
0.0168009
9.5565e-06
-1.26846e-12
0.0167918
4.45816e-05
-4.75189e-12
0.0167893
8.46754e-05
-8.84155e-12
0.0167352
0.000398047
-3.62275e-11
0.016628
0.00107999
-9.22967e-11
0.0161637
0.00607073
-2.68788e-10
0.0148311
0.00849719
4.18366e-11
0.0136511
0.00811426
3.26059e-12
0.0125143
0.00838018
-2.79409e-11
0.0113506
0.00891256
-2.86358e-11
0.0100776
0.00975188
-2.85181e-11
0.00862735
0.0107851
-2.80174e-11
0.00696378
0.0119118
-2.90632e-11
0.00503003
0.0131498
-3.00655e-11
0.00273714
0.0144685
-3.08499e-11
0.0156364
-3.15117e-11
0.0168001
1.19565e-09
-5.61055e-16
0.0168001
6.49206e-09
-2.97635e-15
0.0168001
2.41353e-08
-6.73841e-15
0.0168
6.17104e-08
-1.4003e-14
0.0168
1.70403e-07
-2.76727e-14
0.0167999
3.88701e-07
-5.09796e-14
0.0167998
1.0283e-06
-1.20841e-13
0.0167992
2.23722e-06
-1.80543e-13
0.0167986
6.46506e-06
-7.84479e-13
0.0167962
1.20033e-05
-5.9675e-13
0.0167935
4.65382e-05
-5.90017e-12
0.0167867
9.14902e-05
-7.01364e-12
0.0167756
0.000406448
-3.83305e-11
0.0167577
0.00109469
-9.05067e-11
0.0169081
0.00589868
-2.76448e-10
0.0154787
0.00993019
4.15055e-11
0.0141557
0.00943781
9.4142e-12
0.0129686
0.00956501
-2.44301e-11
0.0118208
0.0100585
-2.6494e-11
0.0105935
0.0109778
-2.75413e-11
0.00921618
0.0121607
-2.63306e-11
0.00760494
0.0135214
-2.71551e-11
0.00567844
0.0150746
-2.82456e-11
0.0032494
0.0168956
-2.89609e-11
0.0188836
-2.9145e-11
0.0168001
1.47816e-09
-5.77371e-16
0.0168001
6.89683e-09
-3.02855e-15
0.0168001
2.67103e-08
-6.98231e-15
0.0168
6.6488e-08
-1.45921e-14
0.0168
1.87264e-07
-2.95443e-14
0.0168
4.19867e-07
-5.60044e-14
0.0167999
1.12133e-06
-1.28587e-13
0.0167997
2.42672e-06
-2.46198e-13
0.0167993
6.72692e-06
-6.85318e-13
0.0167978
1.34574e-05
-1.25005e-12
0.0167984
4.52457e-05
-4.63563e-12
0.0168039
8.5715e-05
-7.59784e-12
0.0168346
0.000373188
-3.43786e-11
0.0169671
0.000959181
-8.51256e-11
0.0181134
0.00473004
-2.75387e-10
0.0165686
0.0114786
1.13293e-11
0.0149391
0.0110703
-2.31901e-12
0.013718
0.0107866
-2.46559e-11
0.0125728
0.0112023
-2.58923e-11
0.0113706
0.0121786
-2.7085e-11
0.0100287
0.013501
-2.5289e-11
0.00854602
0.0150021
-2.55475e-11
0.00675256
0.0168657
-2.59305e-11
0.00422289
0.0194227
-2.63692e-11
0.0231042
-2.59847e-11
0.0168001
-5.52529e-16
2.61181e-09
0.0168001
-2.91589e-15
2.99057e-09
0.0168001
-6.59681e-15
3.66136e-08
0.0168001
-1.37236e-14
3.64598e-08
0.0168
-2.69174e-14
2.51763e-07
0.0168002
-5.04817e-14
2.38905e-07
0.0167998
-1.11813e-13
1.52216e-06
0.0168009
-2.14207e-13
1.33762e-06
0.016798
-5.60729e-13
9.48154e-06
0.0168053
-1.1134e-12
6.15391e-06
0.0167832
-3.10011e-12
6.6818e-05
0.0168384
-7.59856e-12
3.02082e-05
0.0167332
-2.05026e-11
0.000476106
0.0170847
-5.42588e-11
0.000607878
0.0180938
-1.45751e-10
0.0037056
0.0171907
-9.78472e-11
0.0123723
0.0155745
-3.81401e-11
0.0126837
0.0145387
-2.85292e-11
0.0118213
0.0133927
-2.86255e-11
0.0123467
0.0123311
-2.85635e-11
0.0132388
0.0111779
-2.6605e-11
0.014653
0.00990481
-2.62154e-11
0.016274
0.00824919
-2.57509e-11
0.01852
0.00583601
-2.5307e-11
0.0218338
-2.38621e-11
0.028938
0.0168001
1.94476e-10
1.78233e-16
0.0168001
1.05957e-09
-1.13579e-17
0.0168
3.94093e-09
-2.8486e-16
0.0168
1.0128e-08
-6.15975e-16
0.0168
2.78039e-08
-1.7461e-15
0.0167999
6.36848e-08
-3.57483e-15
0.0167998
1.65049e-07
-1.00275e-14
0.0167994
3.72314e-07
-2.05816e-14
0.0167983
9.59799e-07
-5.79312e-14
0.0167961
2.1949e-06
-1.21157e-13
0.0167894
5.90243e-06
-3.3711e-13
0.0167735
1.57522e-05
-9.16528e-13
0.0167169
5.4044e-05
-2.49414e-12
0.0165433
0.000168826
-7.82216e-12
0.0155177
0.0010091
-2.01589e-11
0.0143638
0.00115462
8.23268e-13
0.0131884
0.00117502
-6.62283e-13
0.0119355
0.00125091
-2.56251e-12
0.0105967
0.00133653
-2.77214e-12
0.00915685
0.00143774
-2.97932e-12
0.00759323
0.00156138
-2.94934e-12
0.0058964
0.00169475
-2.97948e-12
0.00407396
0.00182014
-3.04053e-12
0.00211985
0.00195149
-3.09067e-12
0.00211762
-3.12195e-12
0.0168001
3.99109e-10
1.78338e-16
0.0168001
2.17907e-09
3.91414e-18
0.0168
8.10319e-09
-2.89095e-16
0.0168
2.08092e-08
-6.25102e-16
0.0168
5.71807e-08
-1.77046e-15
0.0167999
1.30834e-07
-3.62551e-15
0.0167997
3.39862e-07
-1.0151e-14
0.0167993
7.62271e-07
-2.08552e-14
0.0167982
1.9891e-06
-5.84559e-14
0.0167959
4.45828e-06
-1.22535e-13
0.0167888
1.23011e-05
-3.38874e-13
0.0167724
3.18683e-05
-9.18248e-13
0.0167127
0.0001112
-2.50049e-12
0.016533
0.000343779
-7.8091e-12
0.0154932
0.00203223
-2.0221e-11
0.0143226
0.00232609
9.58358e-13
0.0131585
0.00233867
-6.31982e-13
0.0119185
0.00248884
-2.57459e-12
0.010587
0.00266591
-2.76827e-12
0.00913454
0.00288804
-2.95916e-12
0.00755189
0.00314181
-2.92883e-12
0.00583617
0.00340837
-2.96129e-12
0.00399296
0.00366101
-3.02366e-12
0.00203093
0.00391092
-3.07607e-12
0.00414625
-3.10863e-12
0.0168001
6.31676e-10
1.78657e-16
0.0168001
3.42388e-09
6.39679e-18
0.0168
1.27427e-08
-2.97082e-16
0.0168
3.27134e-08
-6.42386e-16
0.0168
9.00119e-08
-1.81278e-15
0.0167999
2.06746e-07
-3.70767e-15
0.0167997
5.33329e-07
-1.03448e-14
0.0167992
1.2266e-06
-2.11453e-14
0.0167981
3.03454e-06
-5.93688e-14
0.0167953
7.23032e-06
-1.23166e-13
0.0167884
1.83956e-05
-3.42757e-13
0.0167716
4.84335e-05
-9.14756e-13
0.0167128
0.00016749
-2.52033e-12
0.0165372
0.000514648
-7.80063e-12
0.0155175
0.00303491
-2.04902e-11
0.0143348
0.00350988
1.25211e-12
0.0131752
0.00349786
-5.64434e-13
0.0119471
0.00371493
-2.60483e-12
0.0106269
0.0039839
-2.77332e-12
0.00917958
0.0043332
-2.93268e-12
0.00759405
0.00472511
-2.90499e-12
0.00587234
0.0051281
-2.94104e-12
0.00400715
0.00552391
-3.00341e-12
0.00203273
0.00588273
-3.06162e-12
0.0061767
-3.09815e-12
0.0168001
8.50953e-10
1.7968e-16
0.0168001
4.58744e-09
-6.4211e-17
0.0168
1.71044e-08
-3.34992e-16
0.0168
4.38019e-08
-7.29765e-16
0.0168
1.21155e-07
-2.0652e-15
0.0167999
2.79077e-07
-4.31696e-15
0.0167997
7.18214e-07
-1.1562e-14
0.0167993
1.68357e-06
-2.68197e-14
0.0167981
4.02062e-06
-5.72568e-14
0.0167954
9.91435e-06
-1.65868e-13
0.0167884
2.46968e-05
-2.97706e-13
0.0167718
6.45799e-05
-9.53258e-13
0.016717
0.00021973
-2.48277e-12
0.0165488
0.000678244
-7.80179e-12
0.0155767
0.00398944
-2.09118e-11
0.0143861
0.00470201
1.64342e-12
0.0132323
0.00465134
-5.15019e-13
0.0120229
0.00492231
-2.64351e-12
0.0107242
0.00528045
-2.77782e-12
0.00929541
0.00575986
-2.88261e-12
0.00771983
0.00629807
-2.86204e-12
0.00599736
0.00684852
-2.90825e-12
0.00412456
0.00739436
-2.96493e-12
0.00209534
0.00790922
-3.03652e-12
0.00826973
-3.0832e-12
0.0168001
9.78025e-10
1.7935e-16
0.0168001
5.28065e-09
-4.06661e-17
0.0168001
1.96765e-08
-3.13801e-16
0.0168
5.02883e-08
-6.78871e-16
0.0168
1.39423e-07
-1.9176e-15
0.0168
3.20064e-07
-3.94877e-15
0.0167998
8.33797e-07
-1.08558e-14
0.0167996
1.90662e-06
-2.28664e-14
0.0167986
4.8579e-06
-6.05442e-14
0.0167975
1.10691e-05
-1.28197e-13
0.0167896
3.18351e-05
-3.77965e-13
0.0167756
7.83471e-05
-9.12756e-13
0.016726
0.000266801
-2.35794e-12
0.0165597
0.000839621
-8.04529e-12
0.0156712
0.0048595
-2.13447e-11
0.0144615
0.0059137
2.14336e-12
0.0133115
0.00580083
-4.88822e-13
0.0121287
0.00610297
-2.68947e-12
0.010866
0.00654094
-2.79182e-12
0.00947862
0.0071454
-2.86818e-12
0.00793367
0.0078413
-2.84175e-12
0.00621332
0.0085665
-2.88571e-12
0.00430687
0.00929921
-2.93543e-12
0.00222751
0.009986
-3.01024e-12
0.0104949
-3.05734e-12
0.0168001
9.91932e-10
1.79106e-16
0.0168001
5.39087e-09
7.47507e-18
0.0168001
2.00616e-08
-3.0654e-16
0.0168001
5.12936e-08
-6.62757e-16
0.0168
1.41993e-07
-1.88652e-15
0.0168
3.22972e-07
-3.89161e-15
0.0168
8.62891e-07
-1.07737e-14
0.0168
1.86191e-06
-2.2848e-14
0.0167994
5.35576e-06
-6.0687e-14
0.0167994
1.10355e-05
-1.28681e-13
0.0167942
3.62799e-05
-3.86629e-13
0.0167898
8.24438e-05
-9.05326e-13
0.0167075
0.00034653
-2.43985e-12
0.0165658
0.000976403
-8.07006e-12
0.0157787
0.00562738
-2.19383e-11
0.0145342
0.00716095
2.83528e-12
0.0134013
0.00693362
-3.21741e-13
0.0122578
0.00724427
-2.66551e-12
0.0110467
0.00774982
-2.73024e-12
0.00970901
0.00848023
-2.76552e-12
0.0082115
0.00933687
-2.75112e-12
0.00652584
0.01025
-2.81352e-12
0.00460418
0.0112182
-2.87569e-12
0.00240916
0.0121786
-2.95191e-12
0.0129017
-3.00392e-12
0.0168001
9.75063e-10
1.77578e-16
0.0168001
5.4089e-09
1.3168e-17
0.0168001
2.0055e-08
-2.65541e-16
0.0168001
5.13985e-08
-5.73467e-16
0.0168001
1.41651e-07
-1.62763e-15
0.0168001
3.1945e-07
-3.30028e-15
0.0168
8.73965e-07
-9.56741e-15
0.0168001
1.73026e-06
-1.80773e-14
0.0167994
5.97562e-06
-6.03997e-14
0.0168009
9.55678e-06
-1.01466e-13
0.0167918
4.45812e-05
-3.96691e-13
0.0167893
8.46764e-05
-7.40385e-13
0.0167352
0.000398047
-3.08529e-12
0.016628
0.00108
-7.89478e-12
0.0161637
0.00607076
-2.31616e-11
0.0148311
0.00849716
3.32129e-12
0.0136511
0.00811424
1.10244e-13
0.0125143
0.00838018
-2.60317e-12
0.0113506
0.00891256
-2.69319e-12
0.0100776
0.00975188
-2.72962e-12
0.00862735
0.0107851
-2.66901e-12
0.00696378
0.0119119
-2.73524e-12
0.00503003
0.0131498
-2.8142e-12
0.00273714
0.0144685
-2.8743e-12
0.0156364
-2.91146e-12
0.0168001
1.19564e-09
1.75124e-16
0.0168001
6.49204e-09
5.25279e-17
0.0168001
2.41353e-08
-2.2374e-16
0.0168
6.17102e-08
-4.78381e-16
0.0168
1.70403e-07
-1.35865e-15
0.0167999
3.887e-07
-2.68604e-15
0.0167998
1.02829e-06
-8.25661e-15
0.0167992
2.2372e-06
-1.25064e-14
0.0167986
6.46511e-06
-6.24111e-14
0.0167962
1.2003e-05
-4.76904e-14
0.0167935
4.65389e-05
-4.90418e-13
0.0167867
9.14904e-05
-5.91863e-13
0.0167756
0.000406453
-3.25289e-12
0.0167576
0.0010947
-7.73851e-12
0.0169081
0.00589876
-2.37859e-11
0.0154787
0.00993015
3.26603e-12
0.0141557
0.00943778
5.84353e-13
0.0129686
0.00956499
-2.36377e-12
0.0118208
0.0100585
-2.56799e-12
0.0105935
0.0109778
-2.71168e-12
0.00921618
0.0121607
-2.60152e-12
0.00760494
0.0135214
-2.66435e-12
0.00567844
0.0150746
-2.76226e-12
0.0032494
0.0168956
-2.83314e-12
0.0188836
-2.84475e-12
0.0168001
1.47816e-09
1.76161e-16
0.0168001
6.8969e-09
3.84223e-17
0.0168001
2.67106e-08
-2.42879e-16
0.0168
6.64886e-08
-5.24529e-16
0.0168
1.87265e-07
-1.50636e-15
0.0168
4.19871e-07
-3.0804e-15
0.0167999
1.12134e-06
-8.87001e-15
0.0167997
2.42674e-06
-1.7702e-14
0.0167993
6.72701e-06
-5.43925e-14
0.0167978
1.34575e-05
-1.00334e-13
0.0167984
4.52466e-05
-3.87415e-13
0.0168039
8.57158e-05
-6.34261e-13
0.0168346
0.000373197
-2.92347e-12
0.0169671
0.000959205
-7.26597e-12
0.0181133
0.00473021
-2.36473e-11
0.0165685
0.0114786
6.49195e-13
0.0149391
0.0110702
-3.88145e-13
0.013718
0.0107866
-2.43693e-12
0.0125728
0.0112023
-2.57725e-12
0.0113706
0.0121786
-2.73879e-12
0.0100287
0.013501
-2.60335e-12
0.00854602
0.0150021
-2.64169e-12
0.00675255
0.0168657
-2.69503e-12
0.00422289
0.0194227
-2.78323e-12
0.0231042
-2.79368e-12
0.0168001
1.75125e-16
2.61181e-09
0.0168001
7.02343e-17
2.9907e-09
0.0168001
-2.07075e-16
3.66138e-08
0.0168001
-4.46413e-16
3.64606e-08
0.0168
-1.27829e-15
2.51766e-07
0.0168002
-2.60807e-15
2.3891e-07
0.0167998
-7.45275e-15
1.52218e-06
0.0168009
-1.50128e-14
1.33765e-06
0.016798
-4.38874e-14
9.48169e-06
0.0168053
-8.89089e-14
6.15402e-06
0.0167832
-2.57269e-13
6.6819e-05
0.0168384
-6.34506e-13
3.0209e-05
0.0167332
-1.74284e-12
0.000476112
0.0170847
-4.62886e-12
0.000607894
0.018094
-1.25429e-11
0.00370565
0.0171908
-8.71088e-12
0.0123723
0.0155745
-3.60131e-12
0.0126836
0.0145386
-2.82081e-12
0.0118213
0.0133926
-2.89278e-12
0.0123467
0.012331
-2.92225e-12
0.0132388
0.0111779
-2.80701e-12
0.014653
0.0099048
-2.80625e-12
0.016274
0.00824918
-2.83916e-12
0.01852
0.00583601
-2.91372e-12
0.0218338
-2.98032e-12
0.028938
0.0168001
1.94476e-10
-8.25281e-17
0.0168001
1.05957e-09
-3.10659e-16
0.0168
3.94092e-09
-8.86749e-16
0.0168
1.0128e-08
-1.78957e-15
0.0168
2.78039e-08
-4.77183e-15
0.0167999
6.36848e-08
-9.57391e-15
0.0167998
1.65049e-07
-2.63122e-14
0.0167994
3.72314e-07
-5.38137e-14
0.0167983
9.59799e-07
-1.49484e-13
0.0167961
2.1949e-06
-3.13717e-13
0.0167894
5.90243e-06
-8.57703e-13
0.0167735
1.57522e-05
-2.35376e-12
0.0167169
5.4044e-05
-6.32551e-12
0.0165433
0.000168826
-1.99174e-11
0.0155177
0.0010091
-5.21568e-11
0.0143638
0.00115462
3.75946e-12
0.0131884
0.00117502
-2.51689e-13
0.0119355
0.00125091
-5.55342e-12
0.0105967
0.00133653
-6.12829e-12
0.00915685
0.00143774
-6.66481e-12
0.00759323
0.00156138
-6.66574e-12
0.0058964
0.00169475
-6.75401e-12
0.00407396
0.00182014
-6.96428e-12
0.00211985
0.00195149
-7.15131e-12
0.00211762
-7.2304e-12
0.0168001
3.99109e-10
-8.37173e-17
0.0168001
2.17907e-09
-3.15202e-16
0.0168
8.10318e-09
-8.99635e-16
0.0168
2.08092e-08
-1.81684e-15
0.0168
5.71806e-08
-4.8427e-15
0.0167999
1.30834e-07
-9.72096e-15
0.0167997
3.39861e-07
-2.66691e-14
0.0167993
7.6227e-07
-5.46051e-14
0.0167982
1.98909e-06
-1.50991e-13
0.0167959
4.45828e-06
-3.17723e-13
0.0167888
1.23011e-05
-8.62605e-13
0.0167724
3.18683e-05
-2.36009e-12
0.0167127
0.0001112
-6.34199e-12
0.016533
0.000343779
-1.98795e-11
0.0154932
0.00203223
-5.22608e-11
0.0143226
0.00232609
4.11344e-12
0.0131585
0.00233867
-2.32677e-13
0.0119185
0.00248884
-5.58296e-12
0.010587
0.00266591
-6.10748e-12
0.00913454
0.00288804
-6.59526e-12
0.00755189
0.00314181
-6.59174e-12
0.00583617
0.00340837
-6.68803e-12
0.00399296
0.00366101
-6.90533e-12
0.00203093
0.00391092
-7.0982e-12
0.00414625
-7.18646e-12
0.0168001
6.31675e-10
-8.62381e-17
0.0168001
3.42388e-09
-3.24381e-16
0.0168
1.27426e-08
-9.24339e-16
0.0168
3.27133e-08
-1.86795e-15
0.0168
9.00118e-08
-4.96567e-15
0.0167999
2.06746e-07
-9.95915e-15
0.0167997
5.33328e-07
-2.72295e-14
0.0167992
1.2266e-06
-5.54634e-14
0.0167981
3.03454e-06
-1.53609e-13
0.0167953
7.2303e-06
-3.19823e-13
0.0167884
1.83956e-05
-8.73399e-13
0.0167716
4.84335e-05
-2.35375e-12
0.0167128
0.00016749
-6.39593e-12
0.0165372
0.000514648
-1.986e-11
0.0155175
0.00303491
-5.29275e-11
0.0143348
0.00350988
4.88357e-12
0.0131752
0.00349786
-1.31734e-13
0.0119471
0.00371493
-5.66167e-12
0.0106269
0.0039839
-6.11033e-12
0.00917958
0.0043332
-6.49879e-12
0.00759405
0.00472511
-6.51875e-12
0.00587234
0.0051281
-6.62238e-12
0.00400715
0.00552391
-6.8409e-12
0.00203273
0.00588273
-7.0562e-12
0.0061767
-7.1621e-12
0.0168001
8.50954e-10
-9.68896e-17
0.0168001
4.58744e-09
-3.58966e-16
0.0168
1.71044e-08
-1.03662e-15
0.0168
4.38019e-08
-2.11783e-15
0.0168
1.21155e-07
-5.67236e-15
0.0167999
2.79077e-07
-1.16525e-14
0.0167997
7.18214e-07
-3.06102e-14
0.0167993
1.68357e-06
-7.10334e-14
0.0167981
4.02062e-06
-1.48154e-13
0.0167954
9.91437e-06
-4.36208e-13
0.0167884
2.46967e-05
-7.51399e-13
0.0167718
6.45799e-05
-2.46538e-12
0.016717
0.00021973
-6.29062e-12
0.0165488
0.000678244
-1.987e-11
0.0155767
0.00398944
-5.39895e-11
0.0143861
0.00470201
5.90713e-12
0.0132323
0.00465134
-6.37833e-14
0.0120229
0.00492231
-5.76256e-12
0.0107242
0.00528045
-6.10531e-12
0.00929542
0.00575986
-6.31058e-12
0.00771983
0.00629807
-6.35972e-12
0.00599736
0.00684852
-6.50676e-12
0.00412456
0.00739436
-6.68545e-12
0.00209534
0.00790922
-6.96761e-12
0.00826973
-7.11609e-12
0.0168001
9.78026e-10
-9.12314e-17
0.0168001
5.28065e-09
-3.41959e-16
0.0168001
1.96765e-08
-9.77132e-16
0.0168
5.02883e-08
-1.97829e-15
0.0168
1.39423e-07
-5.27672e-15
0.0168
3.20064e-07
-1.06632e-14
0.0167998
8.33797e-07
-2.87392e-14
0.0167996
1.90662e-06
-6.03687e-14
0.0167986
4.8579e-06
-1.57439e-13
0.0167975
1.10691e-05
-3.34709e-13
0.0167896
3.18351e-05
-9.71153e-13
0.0167756
7.83471e-05
-2.35611e-12
0.016726
0.000266801
-5.99159e-12
0.0165597
0.000839621
-2.05367e-11
0.0156712
0.0048595
-5.51126e-11
0.0144615
0.0059137
7.23107e-12
0.0133115
0.00580083
-3.467e-14
0.0121287
0.00610297
-5.8684e-12
0.010866
0.00654094