/*--------------------------------*- C++ -*----------------------------------*\
| =========                 |                                                 |
| \\      /  F ield         | OpenFOAM: The Open Source CFD Toolbox           |
|  \\    /   O peration     | Version:  4.1                                   |
|   \\  /    A nd           | Web:      www.OpenFOAM.org                      |
|    \\/     M anipulation  |                                                 |
\*---------------------------------------------------------------------------*/
FoamFile
{
    version     2.0;
    format      ascii;
    class       volScalarField;
    location    "0.78";
    object      Ma;
}
// * * * * * * * * * * * * * * * * * * * * * * * * * * * * * * * * * * * * * //

dimensions      [0 0 0 0 0 0 0];

internalField   nonuniform List<scalar> 
18000
(
5.22939e-12
5.17145e-12
5.10209e-12
5.04519e-12
4.98877e-12
4.93303e-12
4.8779e-12
4.82387e-12
4.77063e-12
4.7192e-12
6.51764e-12
6.29284e-12
6.06514e-12
5.85623e-12
5.65636e-12
5.46452e-12
5.2804e-12
5.10398e-12
4.9341e-12
4.7749e-12
8.21874e-12
7.72894e-12
7.26171e-12
6.8351e-12
6.43788e-12
6.06851e-12
5.72538e-12
5.40472e-12
5.10613e-12
4.83185e-12
1.04937e-11
9.5848e-12
8.75967e-12
8.01976e-12
7.35537e-12
6.75679e-12
6.21643e-12
5.72783e-12
5.28519e-12
4.88969e-12
1.35811e-11
1.20113e-11
1.06485e-11
9.46434e-12
8.43732e-12
7.54238e-12
6.76034e-12
6.07521e-12
5.47229e-12
4.9487e-12
1.78359e-11
1.5223e-11
1.30544e-11
1.12372e-11
9.71876e-12
8.44212e-12
7.36392e-12
6.44867e-12
5.66757e-12
5.00871e-12
2.37876e-11
1.95363e-11
1.61481e-11
1.34296e-11
1.1245e-11
9.47638e-12
8.03431e-12
6.85054e-12
5.87198e-12
5.0697e-12
3.23569e-11
2.55208e-11
2.03237e-11
1.63483e-11
1.32944e-11
1.09254e-11
9.07117e-12
7.60792e-12
6.44341e-12
5.53709e-12
5.19078e-09
5.25546e-09
4.95464e-09
4.68055e-09
4.43265e-09
4.20785e-09
4.00338e-09
3.81683e-09
3.64654e-09
3.57562e-09
5.70481e-07
6.18975e-08
5.28885e-08
4.62205e-08
4.0609e-08
3.58626e-08
3.18307e-08
2.83941e-08
2.53578e-08
1.02462e-07
5.59578e-12
5.53025e-12
5.45731e-12
5.39341e-12
5.33081e-12
5.26932e-12
5.20775e-12
5.14827e-12
5.08948e-12
5.03217e-12
7.03047e-12
6.77655e-12
6.52947e-12
6.29548e-12
6.07229e-12
5.8583e-12
5.6543e-12
5.45857e-12
5.27143e-12
5.09409e-12
8.93814e-12
8.38162e-12
7.86961e-12
7.38857e-12
6.94366e-12
6.53113e-12
6.14934e-12
5.79392e-12
5.46341e-12
5.15841e-12
1.15236e-11
1.04851e-11
9.56637e-12
8.72665e-12
7.97666e-12
7.30442e-12
6.70095e-12
6.15777e-12
5.66619e-12
5.22343e-12
1.50877e-11
1.32773e-11
1.17343e-11
1.03767e-11
9.20736e-12
8.19584e-12
7.31698e-12
6.55117e-12
5.88036e-12
5.29123e-12
2.0092e-11
1.70354e-11
1.45357e-11
1.2426e-11
1.06805e-11
9.22581e-12
8.00705e-12
6.97925e-12
6.10735e-12
5.36133e-12
2.72488e-11
2.21831e-11
1.81973e-11
1.49937e-11
1.24551e-11
1.04217e-11
8.77984e-12
7.44433e-12
6.34651e-12
5.43367e-12
3.77435e-11
2.93477e-11
2.30466e-11
1.82446e-11
1.46097e-11
1.18201e-11
9.6552e-12
7.95528e-12
6.60499e-12
5.51383e-12
2.00839e-10
4.55524e-10
3.75639e-10
3.11102e-10
2.60438e-10
2.20102e-10
1.8763e-10
1.61222e-10
1.39572e-10
1.23512e-10
3.98435e-07
5.89423e-08
5.15469e-08
4.52974e-08
4.00992e-08
3.57355e-08
3.20405e-08
2.88871e-08
2.61856e-08
2.51401e-08
5.38414e-13
5.17408e-13
4.03144e-13
3.88339e-13
3.74531e-13
3.62138e-13
3.50844e-13
3.41228e-13
3.32504e-13
3.22935e-13
7.46448e-13
6.77312e-13
6.09614e-13
5.59095e-13
5.1334e-13
4.72541e-13
4.35852e-13
4.04062e-13
3.77358e-13
3.36863e-13
9.50027e-13
8.33878e-13
8.10016e-13
7.25176e-13
6.49758e-13
5.83784e-13
5.27044e-13
4.78663e-13
4.35477e-13
3.55918e-13
1.29101e-12
1.12866e-12
1.11775e-12
9.73934e-13
8.49782e-13
7.44952e-13
6.56485e-13
5.82231e-13
5.17157e-13
3.83361e-13
1.8375e-12
1.61498e-12
1.56149e-12
1.31973e-12
1.11838e-12
9.54274e-13
8.19717e-13
7.09112e-13
6.14446e-13
4.1838e-13
2.71829e-12
2.39104e-12
2.19935e-12
1.79438e-12
1.473e-12
1.22005e-12
1.01977e-12
8.60064e-13
7.2625e-13
4.59624e-13
4.15435e-12
3.60992e-12
3.12118e-12
2.44661e-12
1.9378e-12
1.55429e-12
1.26106e-12
1.03496e-12
8.52194e-13
5.06921e-13
6.61533e-12
5.53469e-12
4.4649e-12
3.34674e-12
2.54827e-12
1.97291e-12
1.55065e-12
1.23639e-12
9.91863e-13
5.59314e-13
3.16218e-10
1.85013e-11
1.48796e-11
1.08391e-11
8.07562e-12
6.13719e-12
4.74917e-12
3.73817e-12
2.98512e-12
2.31938e-12
3.40382e-07
5.2298e-09
3.8734e-09
2.97852e-09
2.32652e-09
1.84273e-09
1.47799e-09
1.19903e-09
9.8329e-10
8.35612e-10
3.83416e-13
3.60213e-13
1.72048e-13
1.51466e-13
1.31152e-13
1.12051e-13
9.418e-14
7.7777e-14
6.32676e-14
3.75905e-14
5.31412e-13
4.59559e-13
3.859e-13
3.36125e-13
2.89504e-13
2.47875e-13
2.11147e-13
1.79395e-13
1.52875e-13
7.96669e-14
5.95629e-13
4.89646e-13
5.23521e-13
4.56061e-13
3.95789e-13
3.44534e-13
3.01944e-13
2.67936e-13
2.39065e-13
1.19623e-13
7.3017e-13
6.36065e-13
7.6068e-13
6.58576e-13
5.6947e-13
4.95894e-13
4.35233e-13
3.85957e-13
3.43261e-13
1.70999e-13
9.6031e-13
9.45941e-13
1.1081e-12
9.43154e-13
8.03385e-13
6.89692e-13
5.971e-13
5.21978e-13
4.56423e-13
2.24359e-13
1.34773e-12
1.4886e-12
1.61123e-12
1.33641e-12
1.11116e-12
9.33045e-13
7.9051e-13
6.77043e-13
5.79426e-13
2.80869e-13
1.9906e-12
2.36709e-12
2.34044e-12
1.87719e-12
1.51455e-12
1.23687e-12
1.02091e-12
8.52484e-13
7.12422e-13
3.40621e-13
3.19179e-12
3.76799e-12
3.40116e-12
2.62246e-12
2.04245e-12
1.61564e-12
1.29491e-12
1.05132e-12
8.56467e-13
4.03506e-13
3.52812e-10
7.27878e-12
4.8496e-12
3.59041e-12
2.7007e-12
2.06936e-12
1.61075e-12
1.27318e-12
1.01144e-12
4.70689e-13
3.37975e-07
1.62907e-09
1.52782e-10
1.01755e-10
6.97231e-11
4.88432e-11
3.49068e-11
2.54126e-11
1.8815e-11
1.41777e-11
3.83208e-13
3.59563e-13
1.72e-13
1.51273e-13
1.30864e-13
1.11683e-13
9.40965e-14
7.76228e-14
6.28041e-14
3.68954e-14
5.31398e-13
4.59476e-13
3.8614e-13
3.36428e-13
2.89825e-13
2.47857e-13
2.11081e-13
1.79603e-13
1.52898e-13
7.92833e-14
5.95719e-13
4.89795e-13
5.24307e-13
4.56706e-13
3.96068e-13
3.44927e-13
3.02227e-13
2.6795e-13
2.38884e-13
1.19326e-13
7.30338e-13
6.36719e-13
7.61784e-13
6.59691e-13
5.7034e-13
4.96525e-13
4.35827e-13
3.86414e-13
3.43436e-13
1.70419e-13
9.60181e-13
9.47324e-13
1.1105e-12
9.45084e-13
8.04992e-13
6.91255e-13
5.98021e-13
5.22293e-13
4.56943e-13
2.24516e-13
1.34601e-12
1.49143e-12
1.61483e-12
1.33994e-12
1.11398e-12
9.35447e-13
7.92598e-13
6.78422e-13
5.80592e-13
2.81343e-13
1.98442e-12
2.37261e-12
2.34752e-12
1.88313e-12
1.51972e-12
1.24121e-12
1.02429e-12
8.5504e-13
7.14785e-13
3.41893e-13
3.18282e-12
3.77868e-12
3.4137e-12
2.63311e-12
2.0514e-12
1.62289e-12
1.30068e-12
1.05602e-12
8.60134e-13
4.05884e-13
3.72721e-10
7.85652e-12
4.98737e-12
3.67137e-12
2.74949e-12
2.09908e-12
1.62884e-12
1.28426e-12
1.01816e-12
4.731e-13
3.58539e-07
1.77557e-09
1.58046e-11
5.91993e-12
4.09454e-12
2.94194e-12
2.17007e-12
1.63835e-12
1.25093e-12
6.02039e-13
3.8325e-13
3.5923e-13
1.72516e-13
1.518e-13
1.31198e-13
1.11933e-13
9.41149e-14
7.79227e-14
6.31827e-14
3.68131e-14
5.32275e-13
4.59937e-13
3.87368e-13
3.37475e-13
2.90769e-13
2.48551e-13
2.11498e-13
1.79862e-13
1.53495e-13
7.97946e-14
5.97584e-13
4.91591e-13
5.26643e-13
4.58599e-13
3.97809e-13
3.4615e-13
3.03117e-13
2.6858e-13
2.39409e-13
1.19866e-13
7.342e-13
6.40787e-13
7.65623e-13
6.62781e-13
5.72897e-13
4.98436e-13
4.37176e-13
3.87554e-13
3.4416e-13
1.7093e-13
9.67623e-13
9.54908e-13
1.11672e-12
9.5006e-13
8.08945e-13
6.94578e-13
6.00675e-13
5.24384e-13
4.58391e-13
2.25443e-13
1.35981e-12
1.50484e-12
1.62559e-12
1.34812e-12
1.12037e-12
9.40727e-13
7.96804e-13
6.81443e-13
5.83107e-13
2.83061e-13
2.01023e-12
2.39581e-12
2.36588e-12
1.89708e-12
1.53037e-12
1.24975e-12
1.03103e-12
8.60165e-13
7.1874e-13
3.44624e-13
3.23666e-12
3.8205e-12
3.4454e-12
2.65653e-12
2.06891e-12
1.63645e-12
1.31136e-12
1.0641e-12
8.66212e-13
4.09932e-13
3.96729e-10
8.1057e-12
5.04662e-12
3.71213e-12
2.77881e-12
2.12088e-12
1.64513e-12
1.29633e-12
1.02748e-12
4.79382e-13
3.9132e-07
1.91533e-09
1.58641e-11
5.15812e-12
3.69479e-12
2.72317e-12
2.04646e-12
1.56633e-12
1.20797e-12
5.60081e-13
3.83212e-13
3.58959e-13
1.73084e-13
1.52439e-13
1.31797e-13
1.12509e-13
9.4615e-14
7.82052e-14
6.391e-14
4.59489e-14
5.33261e-13
4.60564e-13
3.8901e-13
3.38745e-13
2.9189e-13
2.49634e-13
2.12413e-13
1.80545e-13
1.53833e-13
8.28167e-14
5.99853e-13
4.93664e-13
5.29345e-13
4.60969e-13
3.99705e-13
3.47736e-13
3.04206e-13
2.6944e-13
2.40281e-13
1.2182e-13
7.38763e-13
6.45498e-13
7.69961e-13
6.66514e-13
5.76066e-13
5.01012e-13
4.39e-13
3.88785e-13
3.45616e-13
1.72847e-13
9.76403e-13
9.63677e-13
1.12392e-12
9.55882e-13
8.13596e-13
6.98603e-13
6.04022e-13
5.26992e-13
4.60462e-13
2.27781e-13
1.37653e-12
1.52002e-12
1.63796e-12
1.35803e-12
1.12795e-12
9.47019e-13
8.02204e-13
6.85722e-13
5.86264e-13
2.86177e-13
2.04104e-12
2.42251e-12
2.38657e-12
1.91337e-12
1.54301e-12
1.25995e-12
1.03942e-12
8.66853e-13
7.23883e-13
3.4904e-13
3.28234e-12
3.86769e-12
3.48152e-12
2.68364e-12
2.08946e-12
1.65237e-12
1.32445e-12
1.07469e-12
8.74231e-13
4.15923e-13
4.02117e-10
8.03563e-12
5.10841e-12
3.75771e-12
2.8125e-12
2.14643e-12
1.66536e-12
1.31152e-12
1.03934e-12
4.88063e-13
4.12989e-07
1.90526e-09
1.51448e-11
5.21709e-12
3.7431e-12
2.75954e-12
2.07474e-12
1.58764e-12
1.22442e-12
5.71453e-13
3.83206e-13
3.57857e-13
1.73317e-13
1.52742e-13
1.32688e-13
1.15028e-13
1.02426e-13
1.54069e-13
5.16269e-13
1.47974e-12
5.33677e-13
4.60039e-13
3.89647e-13
3.39579e-13
2.93085e-13
2.51668e-13
2.16367e-13
2.03076e-13
3.42546e-13
9.71779e-13
6.00958e-13
4.93694e-13
5.30389e-13
4.62072e-13
4.01163e-13
3.50098e-13
3.08541e-13
2.80394e-13
3.17402e-13
6.51079e-13
7.41273e-13
6.46169e-13
7.71433e-13
6.6808e-13
5.77805e-13
5.03556e-13
4.43823e-13
3.97234e-13
3.81655e-13
4.81025e-13
9.8093e-13
9.65021e-13
1.1258e-12
9.57969e-13
8.15919e-13
7.01314e-13
6.09036e-13
5.35314e-13
4.838e-13
4.07242e-13
1.38361e-12
1.52226e-12
1.64063e-12
1.36118e-12
1.13147e-12
9.51224e-13
8.08666e-13
6.95704e-13
6.05582e-13
3.96584e-13
2.05162e-12
2.42635e-12
2.39103e-12
1.91851e-12
1.54849e-12
1.26633e-12
1.04778e-12
8.78649e-13
7.42667e-13
4.23708e-13
3.21498e-12
3.87454e-12
3.48956e-12
2.69279e-12
2.09862e-12
1.66152e-12
1.33506e-12
1.08957e-12
8.94914e-13
4.72302e-13
2.79892e-10
6.8624e-12
5.11589e-12
3.77336e-12
2.82721e-12
2.16057e-12
1.6809e-12
1.33085e-12
1.06215e-12
5.3486e-13
3.31764e-07
1.01774e-09
1.00113e-11
5.21792e-12
3.76441e-12
2.78007e-12
2.09608e-12
1.61191e-12
1.25113e-12
6.14118e-13
4.04538e-13
4.39827e-13
2.43556e-13
1.56579e-13
2.28252e-13
6.19014e-13
1.39135e-12
5.5578e-12
2.12138e-11
5.04586e-11
5.77742e-13
6.05146e-13
4.80847e-13
3.64396e-13
3.00789e-13
5.45888e-13
1.08365e-12
3.49051e-12
1.25414e-11
3.32673e-11
6.89385e-13
7.49109e-13
6.76422e-13
5.27198e-13
3.96679e-13
4.78272e-13
9.65983e-13
2.3946e-12
8.04117e-12
2.19415e-11
8.88464e-13
1.00993e-12
9.67661e-13
7.717e-13
5.89788e-13
5.29077e-13
9.04234e-13
1.79131e-12
5.5696e-12
1.49458e-11
1.20745e-12
1.42136e-12
1.36888e-12
1.09753e-12
8.53648e-13
6.8827e-13
8.48865e-13
1.50484e-12
4.12623e-12
1.05139e-11
1.71045e-12
2.05586e-12
1.92643e-12
1.52972e-12
1.19071e-12
9.33089e-13
9.03825e-13
1.46682e-12
3.23546e-12
7.61998e-12
2.49747e-12
3.03318e-12
2.7115e-12
2.10711e-12
1.62206e-12
1.25021e-12
1.06092e-12
1.37298e-12
2.66395e-12
5.67558e-12
3.67321e-12
4.54e-12
3.83029e-12
2.88655e-12
2.17443e-12
1.64589e-12
1.30728e-12
1.36827e-12
2.28869e-12
4.33643e-12
1.54725e-10
6.239e-12
5.44309e-12
3.95233e-12
2.88862e-12
2.1341e-12
1.62904e-12
1.46578e-12
2.03728e-12
3.39533e-12
7.87173e-08
2.10286e-09
7.99892e-12
5.31812e-12
3.79305e-12
2.7279e-12
2.01836e-12
1.65017e-12
1.89648e-12
2.73289e-12
2.50797e-12
2.35323e-12
1.50265e-12
1.6507e-13
2.72526e-12
9.06097e-12
2.90209e-11
1.24001e-10
3.75931e-10
5.0621e-10
3.5342e-12
3.40473e-12
2.51513e-12
1.13187e-12
1.35921e-12
6.44121e-12
2.04738e-11
7.59883e-11
2.26569e-10
3.25432e-10
4.80112e-12
4.65826e-12
3.67816e-12
2.27846e-12
2.37074e-13
4.18738e-12
1.44224e-11
4.97528e-11
1.4438e-10
2.22475e-10
6.4643e-12
6.23059e-12
5.06754e-12
3.55088e-12
1.3877e-12
2.33242e-12
1.00993e-11
3.41227e-11
9.6263e-11
1.57174e-10
8.69613e-12
8.23716e-12
6.75579e-12
5.01783e-12
2.78641e-12
7.71995e-13
6.95247e-12
2.39617e-11
6.65129e-11
1.13785e-10
1.17463e-11
1.08428e-11
8.8432e-12
6.72726e-12
4.28155e-12
1.13489e-12
4.46934e-12
1.68842e-11
4.72657e-11
8.40554e-11
1.60023e-11
1.43023e-11
1.14732e-11
8.75876e-12
5.95282e-12
2.66576e-12
2.44021e-12
1.20605e-11
3.43446e-11
6.31867e-11
2.21073e-11
1.89846e-11
1.48388e-11
1.12159e-11
7.83488e-12
4.26493e-12
1.01829e-12
8.48575e-12
2.53499e-11
4.82046e-11
5.23786e-10
2.55421e-11
1.92318e-11
1.4238e-11
9.99928e-12
5.97642e-12
1.69928e-12
5.72239e-12
1.89086e-11
3.72186e-11
8.86755e-07
3.10897e-09
2.61947e-11
1.80159e-11
1.25111e-11
7.81364e-12
3.21544e-12
3.5543e-12
1.41508e-11
2.90066e-11
3.31164e-12
2.97867e-12
1.95961e-12
1.96844e-12
8.53585e-12
3.102e-11
1.41374e-10
5.29185e-10
9.63582e-10
1.09918e-09
4.38246e-12
4.08363e-12
3.1093e-12
1.63982e-12
5.31673e-12
2.08877e-11
8.56371e-11
3.10482e-10
5.971e-10
6.66444e-10
5.68153e-12
5.36085e-12
4.40292e-12
2.70822e-12
2.85781e-12
1.37716e-11
5.47237e-11
1.92424e-10
3.89886e-10
4.2981e-10
7.34125e-12
6.90309e-12
5.86174e-12
4.1865e-12
1.94454e-12
8.63098e-12
3.60707e-11
1.24507e-10
2.62605e-10
2.87298e-10
9.5127e-12
8.81581e-12
7.55862e-12
5.81593e-12
3.07429e-12
4.94257e-12
2.39516e-11
8.29943e-11
1.81206e-10
1.97358e-10
1.24261e-11
1.12449e-11
9.58668e-12
7.6206e-12
4.84239e-12
2.55265e-12
1.55681e-11
5.62991e-11
1.2759e-10
1.38652e-10
1.64273e-11
1.44014e-11
1.20721e-11
9.67957e-12
6.75344e-12
2.71276e-12
9.73755e-12
3.8699e-11
9.10313e-11
9.91745e-11
2.20677e-11
1.8594e-11
1.51902e-11
1.20879e-11
8.80109e-12
4.5308e-12
5.49846e-12
2.66265e-11
6.56617e-11
7.1965e-11
2.55579e-10
2.4821e-11
1.91863e-11
1.49745e-11
1.10615e-11
6.62275e-12
2.80503e-12
1.80808e-11
4.77117e-11
5.27578e-11
1.88983e-07
8.67696e-09
5.40675e-11
1.84773e-11
1.35932e-11
8.76502e-12
2.95687e-12
1.18387e-11
3.47634e-11
3.89126e-11
1.03152e-12
1.28252e-12
1.54068e-12
3.19773e-12
8.38133e-12
2.4519e-11
8.55275e-11
2.47331e-10
3.62146e-10
3.28004e-10
1.12785e-12
1.29516e-12
1.42306e-12
2.43768e-12
6.00338e-12
1.72197e-11
5.71872e-11
1.59285e-10
2.2123e-10
1.37591e-10
1.22935e-12
1.35059e-12
1.43254e-12
1.97981e-12
4.32504e-12
1.21673e-11
3.90116e-11
1.05556e-10
1.40932e-10
5.44691e-11
1.33683e-12
1.43604e-12
1.5194e-12
1.80975e-12
3.20028e-12
8.62355e-12
2.71366e-11
7.17203e-11
9.29522e-11
2.42087e-11
1.45197e-12
1.54101e-12
1.64396e-12
1.82233e-12
2.53255e-12
6.12954e-12
1.90501e-11
4.98324e-11
6.27807e-11
1.66239e-11
1.58462e-12
1.66323e-12
1.78512e-12
1.92412e-12
2.23864e-12
4.45164e-12
1.34487e-11
3.53315e-11
4.31836e-11
1.5236e-11
1.74144e-12
1.80497e-12
1.93486e-12
2.06656e-12
2.19363e-12
3.36198e-12
9.51885e-12
2.51984e-11
3.00587e-11
1.43131e-11
1.99585e-12
1.96986e-12
2.09758e-12
2.22457e-12
2.27567e-12
2.76656e-12
6.81095e-12
1.81027e-11
2.11059e-11
1.32028e-11
6.50792e-10
1.08587e-11
2.27093e-12
2.39144e-12
2.41695e-12
2.53166e-12
4.96417e-12
1.30818e-11
1.48802e-11
1.20201e-11
3.21346e-07
1.00815e-08
3.36665e-11
2.65621e-12
2.57747e-12
2.512e-12
3.74477e-12
9.48182e-12
1.0461e-11
1.07409e-11
7.79262e-13
1.48381e-12
1.60475e-12
2.51599e-12
4.13578e-12
6.89883e-12
1.46101e-11
5.58667e-11
2.14396e-10
5.98371e-10
7.15261e-13
1.33279e-12
1.38902e-12
2.14201e-12
3.47664e-12
5.79025e-12
1.10717e-11
3.47476e-11
1.30372e-10
3.5019e-10
6.52496e-13
1.19116e-12
1.1959e-12
1.81501e-12
2.91562e-12
4.8175e-12
8.75476e-12
2.295e-11
8.3124e-11
2.15778e-10
5.99529e-13
1.06981e-12
1.03492e-12
1.55366e-12
2.45757e-12
4.02573e-12
7.0633e-12
1.6068e-11
5.50185e-11
1.38832e-10
5.53481e-13
9.65715e-13
8.98235e-13
1.33013e-12
2.08048e-12
3.39127e-12
5.77941e-12
1.1837e-11
3.75143e-11
9.24206e-11
5.14259e-13
8.76716e-13
7.8355e-13
1.14942e-12
1.78241e-12
2.8655e-12
4.78887e-12
9.0707e-12
2.62146e-11
6.33162e-11
4.80501e-13
8.00326e-13
6.85983e-13
9.96351e-13
1.52644e-12
2.4307e-12
4.02158e-12
7.16494e-12
1.87202e-11
4.44374e-11
7.37494e-13
7.3489e-13
6.04404e-13
8.66929e-13
1.31655e-12
2.08013e-12
3.40322e-12
5.80298e-12
1.36256e-11
3.18769e-11
9.76703e-10
3.08635e-11
5.88964e-13
7.56584e-13
1.1422e-12
1.79031e-12
2.89743e-12
4.78911e-12
1.00891e-11
2.32989e-11
3.19375e-07
3.16198e-08
1.93954e-10
2.19856e-12
9.64749e-13
1.53925e-12
2.47017e-12
4.00118e-12
7.57092e-12
1.72956e-11
1.05105e-12
1.8397e-12
1.631e-12
2.16852e-12
3.01603e-12
4.36622e-12
6.7663e-12
1.26454e-11
4.99246e-11
1.722e-10
9.78301e-13
1.68685e-12
1.46182e-12
1.93612e-12
2.66825e-12
3.80325e-12
5.71663e-12
1.00513e-11
3.52488e-11
1.04251e-10
9.08025e-13
1.54017e-12
1.29895e-12
1.71215e-12
2.34433e-12
3.31208e-12
4.85085e-12
7.94622e-12
2.49684e-11
6.68366e-11
8.46452e-13
1.41202e-12
1.16005e-12
1.51809e-12
2.06836e-12
2.89689e-12
4.17696e-12
6.41545e-12
1.80098e-11
4.48457e-11
7.9292e-13
1.30023e-12
1.04035e-12
1.35146e-12
1.83551e-12
2.55073e-12
3.63648e-12
5.33111e-12
1.31298e-11
3.11419e-11
7.46292e-13
1.20244e-12
9.36443e-13
1.20879e-12
1.6305e-12
2.25361e-12
3.19549e-12
4.53655e-12
9.66889e-12
2.22111e-11
7.05149e-13
1.116e-12
8.46473e-13
1.08479e-12
1.45447e-12
2.00313e-12
2.82299e-12
3.92576e-12
7.18037e-12
1.61746e-11
1.05231e-12
1.0413e-12
7.6858e-13
9.76649e-13
1.30135e-12
1.78359e-12
2.5014e-12
3.4365e-12
5.38751e-12
1.19639e-11
1.41261e-09
5.46644e-11
7.68971e-13
8.81064e-13
1.16839e-12
1.59242e-12
2.22725e-12
3.0286e-12
4.08027e-12
8.95789e-12
3.9192e-07
5.54846e-08
4.73277e-10
2.80922e-12
1.00139e-12
1.42549e-12
1.98622e-12
2.67829e-12
3.0998e-12
6.76688e-12
1.45132e-12
2.31835e-12
1.64575e-12
1.89533e-12
2.2745e-12
2.82102e-12
3.7834e-12
5.7953e-12
1.3741e-11
2.77586e-11
1.37275e-12
2.16971e-12
1.52839e-12
1.76507e-12
2.11542e-12
2.59798e-12
3.35056e-12
4.75732e-12
1.09761e-11
2.05581e-11
1.29377e-12
2.02172e-12
1.40501e-12
1.6247e-12
1.94767e-12
2.379e-12
3.00109e-12
3.99607e-12
8.53198e-12
1.53979e-11
1.22397e-12
1.88953e-12
1.2936e-12
1.49615e-12
1.79442e-12
2.18728e-12
2.72546e-12
3.45814e-12
6.58532e-12
1.17111e-11
1.16213e-12
1.77113e-12
1.19353e-12
1.37914e-12
1.65583e-12
2.01611e-12
2.49872e-12
3.06723e-12
5.07054e-12
9.01338e-12
1.10705e-12
1.66443e-12
1.1037e-12
1.27401e-12
1.5276e-12
1.86058e-12
2.29917e-12
2.76934e-12
3.89374e-12
6.9843e-12
1.05816e-12
1.56867e-12
1.02312e-12
1.17857e-12
1.41141e-12
1.71945e-12
2.12657e-12
2.52654e-12
2.98632e-12
5.43451e-12
1.43745e-12
1.484e-12
9.50488e-13
1.09184e-12
1.30576e-12
1.59082e-12
1.96903e-12
2.32554e-12
2.2846e-12
4.24562e-12
1.75394e-09
7.94068e-11
9.81045e-13
1.01203e-12
1.20893e-12
1.47264e-12
1.82439e-12
2.15006e-12
1.74071e-12
3.32462e-12
3.19508e-07
7.62944e-08
7.47468e-10
3.10065e-12
1.05823e-12
1.36217e-12
1.68701e-12
1.9877e-12
1.31266e-12
2.59678e-12
2.0325e-12
2.92505e-12
1.60895e-12
1.59913e-12
1.66021e-12
1.79897e-12
2.13875e-12
2.92323e-12
6.30269e-12
8.50974e-12
1.94937e-12
2.7905e-12
1.54945e-12
1.55747e-12
1.62683e-12
1.745e-12
1.9826e-12
2.48905e-12
5.13155e-12
7.03771e-12
1.86589e-12
2.6518e-12
1.4726e-12
1.4954e-12
1.57359e-12
1.68453e-12
1.86399e-12
2.1789e-12
4.06921e-12
5.73215e-12
1.79031e-12
2.52396e-12
1.3978e-12
1.43078e-12
1.51628e-12
1.62686e-12
1.77679e-12
1.97212e-12
3.20608e-12
4.66754e-12
1.7217e-12
2.40567e-12
1.32573e-12
1.36688e-12
1.45808e-12
1.57005e-12
1.70582e-12
1.83365e-12
2.50759e-12
3.79747e-12
1.65994e-12
2.29685e-12
1.25764e-12
1.30353e-12
1.39806e-12
1.51362e-12
1.64733e-12
1.73381e-12
1.94454e-12
3.08566e-12
1.60368e-12
2.19651e-12
1.19367e-12
1.24213e-12
1.33774e-12
1.45604e-12
1.5916e-12
1.65829e-12
1.48491e-12
2.50282e-12
1.96862e-12
2.10672e-12
1.13341e-12
1.1833e-12
1.27948e-12
1.39805e-12
1.53506e-12
1.59675e-12
1.11357e-12
2.0227e-12
2.02422e-09
9.98961e-11
1.36405e-12
1.12632e-12
1.22224e-12
1.34118e-12
1.47904e-12
1.54248e-12
8.15451e-13
1.6259e-12
1.0279e-07
8.56473e-08
1.67029e-09
8.77211e-12
1.10521e-12
1.28044e-12
1.4205e-12
1.48591e-12
5.64814e-13
1.29381e-12
2.8174e-12
3.61386e-12
1.45256e-12
1.2135e-12
1.06549e-12
1.00352e-12
1.13327e-12
1.52078e-12
3.23348e-12
3.73308e-12
2.73632e-12
3.50838e-12
1.45067e-12
1.24706e-12
1.118e-12
1.03619e-12
1.07507e-12
1.30329e-12
2.76889e-12
3.28842e-12
2.65341e-12
3.39457e-12
1.42743e-12
1.25627e-12
1.14915e-12
1.06591e-12
1.051e-12
1.15099e-12
2.27931e-12
2.8108e-12
2.57695e-12
3.28547e-12
1.39633e-12
1.25327e-12
1.16708e-12
1.09229e-12
1.05125e-12
1.06092e-12
1.85888e-12
2.39874e-12
2.50634e-12
3.18211e-12
1.362e-12
1.24275e-12
1.17516e-12
1.11217e-12
1.0618e-12
1.01782e-12
1.49783e-12
2.04247e-12
2.44087e-12
3.08349e-12
1.32461e-12
1.22566e-12
1.175e-12
1.1259e-12
1.07787e-12
1.003e-12
1.18696e-12
1.733e-12
2.38043e-12
2.99066e-12
1.28582e-12
1.2039e-12
1.16859e-12
1.13346e-12
1.09325e-12
1.00364e-12
9.21773e-13
1.46479e-12
2.7255e-12
2.9062e-12
1.24676e-12
1.17978e-12
1.1566e-12
1.13422e-12
1.1047e-12
1.01303e-12
6.95232e-13
1.23422e-12
2.33231e-09
1.12208e-10
1.71368e-12
1.15381e-12
1.14101e-12
1.1299e-12
1.11067e-12
1.02457e-12
5.0215e-13
1.03603e-12
1.47726e-07
7.90884e-08
1.58196e-09
1.43531e-11
1.08637e-12
1.11777e-12
1.11109e-12
1.03244e-12
3.32595e-13
8.69437e-13
3.75218e-12
4.28571e-12
1.1381e-12
7.61949e-13
4.95391e-13
3.50514e-13
4.8465e-13
7.90896e-13
1.96658e-12
2.00029e-12
3.67865e-12
4.22019e-12
1.18197e-12
8.43383e-13
6.00103e-13
4.21023e-13
4.28613e-13
6.38259e-13
1.80266e-12
1.87965e-12
3.6049e-12
4.14791e-12
1.20331e-12
9.00828e-13
6.84032e-13
4.99955e-13
4.24688e-13
5.20742e-13
1.56652e-12
1.68511e-12
3.53484e-12
4.074e-12
1.21374e-12
9.43584e-13
7.50381e-13
5.74373e-13
4.5718e-13
4.46623e-13
1.35632e-12
1.50992e-12
3.46853e-12
4.001e-12
1.21537e-12
9.73929e-13
8.03464e-13
6.40217e-13
5.06274e-13
4.18899e-13
1.16825e-12
1.35175e-12
3.40678e-12
3.92921e-12
1.21036e-12
9.95448e-13
8.46517e-13
6.98134e-13
5.61025e-13
4.28808e-13
1.00225e-12
1.21035e-12
3.34826e-12
3.85897e-12
1.2006e-12
1.00946e-12
8.79438e-13
7.46909e-13
6.14875e-13
4.61808e-13
8.57597e-13
1.08501e-12
3.66938e-12
3.79562e-12
1.18746e-12
1.01712e-12
9.04448e-13
7.87558e-13
6.6473e-13
5.06254e-13
7.33896e-13
9.74622e-13
2.61282e-09
1.13386e-10
2.02577e-12
1.022e-12
9.24188e-13
8.21178e-13
7.08305e-13
5.54005e-13
6.30773e-13
8.79231e-13
4.21786e-07
5.29174e-08
1.38253e-09
1.87182e-11
9.51709e-13
8.46348e-13
7.45959e-13
5.97873e-13
5.488e-13
8.00709e-13
4.65615e-12
4.80793e-12
7.33535e-13
4.96911e-13
2.72385e-13
1.50873e-13
2.65751e-13
4.78366e-13
1.42089e-12
1.26193e-12
4.59352e-12
4.7865e-12
7.77128e-13
5.35301e-13
3.11441e-13
1.24606e-13
1.6279e-13
3.74986e-13
1.40945e-12
1.27441e-12
4.53291e-12
4.76048e-12
8.09058e-13
5.7213e-13
3.60819e-13
1.62956e-13
7.58367e-14
2.75002e-13
1.30592e-12
1.20048e-12
4.47381e-12
4.72958e-12
8.3453e-13
6.05043e-13
4.10421e-13
2.21172e-13
4.60336e-14
1.81984e-13
1.21213e-12
1.13231e-12
4.4176e-12
4.69562e-12
8.53644e-13
6.3529e-13
4.57129e-13
2.81222e-13
1.08939e-13
9.759e-14
1.12612e-12
1.06951e-12
4.36314e-12
4.6589e-12
8.68135e-13
6.61262e-13
4.99729e-13
3.37491e-13
1.76666e-13
3.11863e-14
1.04797e-12
1.0121e-12
4.31157e-12
4.62166e-12
8.78476e-13
6.83673e-13
5.37694e-13
3.89343e-13
2.38954e-13
6.35387e-14
9.78621e-13
9.60378e-13
4.61404e-12
4.58882e-12
8.8449e-13
7.01679e-13
5.71041e-13
4.3562e-13
2.95653e-13
1.27116e-13
9.17073e-13
9.13995e-13
2.81587e-09
1.05263e-10
2.03991e-12
7.18888e-13
5.99776e-13
4.76348e-13
3.47365e-13
1.87506e-13
8.63481e-13
8.72186e-13
6.7001e-07
2.11207e-08
7.97805e-10
1.39186e-11
6.58416e-13
5.13408e-13
3.94098e-13
2.44148e-13
8.17217e-13
8.4561e-13
5.23712e-12
5.07537e-12
4.33355e-13
5.93416e-13
5.09688e-13
4.39893e-13
4.0121e-13
4.32912e-13
1.19462e-12
9.52416e-13
5.18163e-12
5.08195e-12
3.90886e-13
5.33813e-13
4.56589e-13
3.92287e-13
3.55539e-13
3.95863e-13
1.25573e-12
1.02354e-12
5.1305e-12
5.08838e-12
3.62153e-13
4.81505e-13
4.09435e-13
3.47066e-13
3.12587e-13
3.54207e-13
1.21445e-12
1.00143e-12
5.08035e-12
5.08843e-12
3.46957e-13
4.36812e-13
3.68948e-13
3.09212e-13
2.73975e-13
3.15554e-13
1.17523e-12
9.79613e-13
5.03144e-12
5.08347e-12
3.44025e-13
4.01497e-13
3.37837e-13
2.7877e-13
2.41034e-13
2.79846e-13
1.13778e-12
9.59299e-13
4.98476e-12
5.07538e-12
3.49186e-13
3.73837e-13
3.12418e-13
2.54157e-13
2.13821e-13
2.48707e-13
1.10259e-12
9.39969e-13
4.93956e-12
5.06441e-12
3.59008e-13
3.53009e-13
2.94764e-13
2.37038e-13
1.93719e-13
2.20451e-13
1.06891e-12
9.2225e-13
5.23296e-12
5.05719e-12
3.71274e-13
3.37372e-13
2.82397e-13
2.25891e-13
1.78605e-13
1.97509e-13
1.03767e-12
9.0431e-13
2.91905e-09
9.70482e-11
1.84657e-12
3.26033e-13
2.74466e-13
2.2021e-13
1.71702e-13
1.79543e-13
1.00663e-12
8.87434e-13
8.22808e-07
2.50932e-08
6.56019e-10
1.08364e-11
2.57483e-13
2.21855e-13
1.74797e-13
1.7285e-13
9.78304e-13
9.19952e-13
5.24093e-12
5.0464e-12
4.12337e-13
6.1771e-13
5.39286e-13
4.65715e-13
4.12981e-13
4.24675e-13
1.1292e-12
9.09686e-13
5.18535e-12
5.05502e-12
3.44719e-13
5.49183e-13
4.82349e-13
4.17628e-13
3.72608e-13
3.95979e-13
1.19942e-12
9.84247e-13
5.13454e-12
5.06459e-12
2.92165e-13
4.86789e-13
4.29123e-13
3.71799e-13
3.32558e-13
3.59358e-13
1.16589e-12
9.65567e-13
5.0848e-12
5.06707e-12
2.57055e-13
4.3114e-13
3.81194e-13
3.3055e-13
2.95803e-13
3.25894e-13
1.13379e-12
9.46954e-13
5.03685e-12
5.06538e-12
2.40641e-13
3.84745e-13
3.40562e-13
2.94481e-13
2.62673e-13
2.94134e-13
1.10301e-12
9.29898e-13
4.99069e-12
5.0596e-12
2.39583e-13
3.45899e-13
3.06446e-13
2.63476e-13
2.33107e-13
2.64852e-13
1.0738e-12
9.13692e-13
4.94612e-12
5.05094e-12
2.49053e-13
3.13638e-13
2.78034e-13
2.3799e-13
2.08212e-13
2.38241e-13
1.04561e-12
8.98626e-13
5.2394e-12
5.0457e-12
2.64732e-13
2.88084e-13
2.55659e-13
2.17449e-13
1.8667e-13
2.14458e-13
1.01896e-12
8.83683e-13
2.91905e-09
9.70483e-11
1.82243e-12
2.67234e-13
2.37015e-13
2.01533e-13
1.71278e-13
1.94266e-13
9.92895e-13
8.69507e-13
8.22808e-07
2.50932e-08
6.56e-10
1.08129e-11
1.93018e-13
1.93788e-13
1.65785e-13
1.83137e-13
9.67731e-13
9.17207e-13
4.66006e-12
4.72783e-12
6.46194e-13
5.1019e-13
3.33461e-13
2.26738e-13
2.61539e-13
4.16991e-13
1.19494e-12
1.12022e-12
4.59917e-12
4.71462e-12
6.73838e-13
5.18278e-13
3.36131e-13
1.94043e-13
1.82236e-13
3.35567e-13
1.21524e-12
1.14397e-12
4.54088e-12
4.69764e-12
6.9915e-13
5.33923e-13
3.56635e-13
1.97644e-13
1.18693e-13
2.51362e-13
1.13923e-12
1.08176e-12
4.48421e-12
4.67554e-12
7.21039e-13
5.52243e-13
3.85024e-13
2.25228e-13
9.07218e-14
1.73423e-13
1.07036e-12
1.02484e-12
4.42981e-12
4.64951e-12
7.41097e-13
5.72014e-13
4.16896e-13
2.63968e-13
1.15418e-13
1.06109e-13
1.00727e-12
9.7271e-13
4.37772e-12
4.62075e-12
7.57457e-13
5.91674e-13
4.49397e-13
3.06228e-13
1.62247e-13
6.0296e-14
9.50568e-13
9.26311e-13
4.32768e-12
4.59025e-12
7.70712e-13
6.09942e-13
4.80453e-13
3.48154e-13
2.12754e-13
7.2052e-14
8.99979e-13
8.84556e-13
4.63129e-12
4.56367e-12
7.80855e-13
6.26477e-13
5.09252e-13
3.87284e-13
2.61336e-13
1.17765e-13
8.55725e-13
8.47581e-13
2.81587e-09
1.05264e-10
1.9869e-12
6.41942e-13
5.35129e-13
4.24107e-13
3.07323e-13
1.68523e-13
8.17718e-13
8.15753e-13
6.7001e-07
2.11207e-08
7.97763e-10
1.38716e-11
5.85889e-13
4.57647e-13
3.50026e-13
2.18843e-13
7.851e-13
8.0889e-13
3.75223e-12
4.18485e-12
9.94535e-13
6.56158e-13
3.95487e-13
2.18906e-13
3.32206e-13
6.07064e-13
1.47064e-12
1.68744e-12
3.68463e-12
4.13537e-12
1.04449e-12
7.3416e-13
4.98716e-13
3.08161e-13
2.91011e-13
4.84491e-13
1.3791e-12
1.59904e-12
3.61666e-12
4.07743e-12
1.0752e-12
7.94162e-13
5.83657e-13
3.9767e-13
3.03704e-13
3.86823e-13
1.20695e-12
1.43586e-12
3.551e-12
4.01706e-12
1.09454e-12
8.39811e-13
6.52416e-13
4.7767e-13
3.50164e-13
3.28332e-13
1.05165e-12
1.28834e-12
3.48894e-12
3.95544e-12
1.10591e-12
8.76221e-13
7.09216e-13
5.47775e-13
4.09156e-13
3.15193e-13
9.13236e-13
1.15602e-12
3.43019e-12
3.89422e-12
1.11001e-12
9.02764e-13
7.5559e-13
6.09375e-13
4.70956e-13
3.36591e-13
7.91887e-13
1.03783e-12
3.37428e-12
3.83342e-12
1.1093e-12
9.22701e-13
7.92695e-13
6.61491e-13
5.29197e-13
3.79205e-13
6.87622e-13
9.3495e-13
3.69621e-12
3.7785e-12
1.10366e-12
9.36297e-13
8.23325e-13
7.05644e-13
5.82826e-13
4.29547e-13
6.01373e-13
8.44563e-13
2.61283e-09
1.13389e-10
1.97097e-12
9.47147e-13
8.47181e-13
7.42839e-13
6.3012e-13
4.81143e-13
5.3201e-13
7.68359e-13
4.21786e-07
5.29174e-08
1.3825e-09
1.86811e-11
8.78966e-13
7.71991e-13
6.70605e-13
5.28542e-13
4.81049e-13
7.11365e-13
2.82072e-12
3.52277e-12
1.29068e-12
1.03651e-12
8.75381e-13
7.89478e-13
8.61796e-13
1.14134e-12
2.15967e-12
2.98662e-12
2.74913e-12
3.43896e-12
1.31071e-12
1.08931e-12
9.45201e-13
8.45393e-13
8.46632e-13
1.00171e-12
1.88038e-12
2.65438e-12
2.67374e-12
3.34364e-12
1.30716e-12
1.11745e-12
9.93852e-13
8.95051e-13
8.53895e-13
9.07199e-13
1.54946e-12
2.27272e-12
2.60268e-12
3.25045e-12
1.2944e-12
1.13121e-12
1.02763e-12
9.37693e-13
8.7612e-13
8.59568e-13
1.25702e-12
1.93992e-12
2.53656e-12
3.15995e-12
1.27481e-12
1.13621e-12
1.05038e-12
9.72386e-13
9.06082e-13
8.44474e-13
1.00476e-12
1.64983e-12
2.47436e-12
3.07272e-12
1.25106e-12
1.13295e-12
1.0641e-12
9.99581e-13
9.37267e-13
8.50449e-13
7.86342e-13
1.39758e-12
2.41663e-12
2.98878e-12
1.22433e-12
1.12462e-12
1.0702e-12
1.01809e-12
9.6469e-13
8.67598e-13
5.96974e-13
1.17971e-12
2.7596e-12
2.91269e-12
1.19545e-12
1.11093e-12
1.07063e-12
1.03106e-12
9.86066e-13
8.89522e-13
4.32912e-13
9.92344e-13
2.33232e-09
1.12212e-10
1.67516e-12
1.09562e-12
1.06534e-12
1.03695e-12
1.00275e-12
9.11621e-13
2.93867e-13
8.32767e-13
1.47726e-07
7.90884e-08
1.58194e-09
1.43237e-11
1.02224e-12
1.03548e-12
1.01271e-12
9.28702e-13
1.68174e-13
7.00202e-13
2.05059e-12
2.86489e-12
1.45315e-12
1.38244e-12
1.38333e-12
1.4455e-12
1.64211e-12
2.10102e-12
3.71845e-12
6.28094e-12
1.97699e-12
2.75498e-12
1.42615e-12
1.37797e-12
1.39063e-12
1.44424e-12
1.57957e-12
1.86952e-12
3.08508e-12
5.26863e-12
1.89936e-12
2.6347e-12
1.37666e-12
1.34803e-12
1.37343e-12
1.42664e-12
1.52868e-12
1.70335e-12
2.46617e-12
4.31097e-12
1.82797e-12
2.52101e-12
1.32411e-12
1.31104e-12
1.3468e-12
1.4052e-12
1.49383e-12
1.59289e-12
1.95389e-12
3.52087e-12
1.76239e-12
2.41437e-12
1.27038e-12
1.27015e-12
1.31527e-12
1.3793e-12
1.46542e-12
1.52109e-12
1.53517e-12
2.87347e-12
1.70188e-12
2.31443e-12
1.21754e-12
1.22611e-12