/*--------------------------------*- C++ -*----------------------------------*\
| =========                 |                                                 |
| \\      /  F ield         | OpenFOAM: The Open Source CFD Toolbox           |
|  \\    /   O peration     | Version:  4.1                                   |
|   \\  /    A nd           | Web:      www.OpenFOAM.org                      |
|    \\/     M anipulation  |                                                 |
\*---------------------------------------------------------------------------*/
FoamFile
{
    version     2.0;
    format      ascii;
    class       surfaceScalarField;
    location    "0.78";
    object      phi;
}
// * * * * * * * * * * * * * * * * * * * * * * * * * * * * * * * * * * * * * //

dimensions      [1 0 -1 0 0 0 0];

internalField   nonuniform List<scalar> 
51500
(
3.63174e-13
1.77555e-14
1.41138e-11
-1.02e-15
2.19555e-14
1.39566e-11
-3.14408e-15
2.04849e-14
1.38e-11
-2.94532e-15
1.89458e-14
1.36461e-11
-2.82952e-15
1.73707e-14
1.34936e-11
-2.767e-15
1.57807e-14
1.33429e-11
-2.87838e-15
1.42093e-14
1.31937e-11
-2.7946e-15
1.2679e-14
1.30475e-11
-2.89239e-15
1.11373e-14
1.29034e-11
9.62499e-15
1.2764e-11
-7.6111e-17
3.64524e-13
9.86921e-15
1.76081e-11
-1.12995e-14
1.11788e-14
1.69993e-11
-1.0884e-14
9.50799e-15
1.64089e-11
-1.06524e-14
7.91836e-15
1.58432e-11
-1.03052e-14
6.47384e-15
1.5302e-11
-9.93577e-15
5.15094e-15
1.47825e-11
-9.64332e-15
4.12297e-15
1.4284e-11
-9.37747e-15
3.45038e-15
1.38062e-11
-9.17345e-15
2.10778e-15
1.33462e-11
8.62382e-16
1.29149e-11
-8.66494e-16
3.61381e-13
1.22113e-14
2.22247e-11
-2.55334e-14
1.34432e-14
2.08986e-11
-2.1658e-14
1.10863e-14
1.96529e-11
-2.04674e-14
8.98466e-15
1.84968e-11
-1.93176e-14
7.11756e-15
1.74205e-11
-1.84591e-14
5.45469e-15
1.64198e-11
-1.74227e-14
3.99828e-15
1.54901e-11
-1.66678e-14
2.68943e-15
1.46214e-11
-1.60394e-14
1.54864e-15
1.38125e-11
5.87753e-16
1.30695e-11
-1.55453e-15
3.50883e-13
1.61078e-14
2.84006e-11
-4.56059e-14
1.66125e-14
2.59389e-11
-3.58426e-14
1.33233e-14
2.37147e-11
-3.31029e-14
1.04758e-14
2.17086e-11
-3.0587e-14
8.08361e-15
1.99077e-11
-2.83556e-14
6.05439e-15
1.82853e-11
-2.63274e-14
4.33826e-15
1.6821e-11
-2.44899e-14
2.86045e-15
1.54971e-11
-2.29354e-14
1.60732e-15
1.42977e-11
5.61737e-16
1.32263e-11
-2.35402e-15
3.27212e-13
2.16681e-14
3.67873e-11
-7.79818e-14
2.0887e-14
3.25321e-11
-5.50879e-14
1.61782e-14
2.88385e-11
-4.93064e-14
1.23387e-14
2.56265e-11
-4.43545e-14
9.2472e-15
2.28415e-11
-4.00305e-14
6.74555e-15
2.04152e-11
-3.63992e-14
4.69442e-15
1.82953e-11
-3.30836e-14
3.03539e-15
1.64385e-11
-3.03283e-14
1.67418e-15
1.48047e-11
5.95851e-16
1.33863e-11
-3.1392e-15
2.80707e-13
2.98135e-14
4.83529e-11
-1.45238e-13
2.67764e-14
4.12631e-11
-8.10605e-14
1.9937e-14
3.53677e-11
-7.02675e-14
1.46422e-14
3.04361e-11
-6.1351e-14
1.06327e-14
2.63171e-11
-5.39863e-14
7.52314e-15
2.28549e-11
-4.77296e-14
5.11954e-15
1.99317e-11
-4.24323e-14
3.22404e-15
1.74508e-11
-3.80051e-14
1.74632e-15
1.5334e-11
6.17534e-16
1.35492e-11
-4.03041e-15
1.89643e-13
5.24364e-14
6.45442e-11
-2.29044e-13
4.36871e-14
5.29948e-11
-1.16922e-13
3.10922e-14
4.37665e-11
-9.74949e-14
2.19556e-14
3.63855e-11
-8.24994e-14
1.53678e-14
3.04576e-11
-7.0386e-14
1.05483e-14
2.56598e-11
-6.06959e-14
6.95123e-15
2.17492e-11
-5.2639e-14
4.27898e-15
1.85402e-11
-4.61869e-14
2.24853e-15
1.5888e-11
6.98044e-16
1.37147e-11
-4.88476e-15
1.05019e-13
-5.16052e-13
8.76766e-11
-3.37032e-13
-5.7415e-13
6.89651e-11
-1.65166e-13
-5.9485e-13
5.46956e-11
-1.32179e-13
-6.08084e-13
4.38056e-11
-1.07742e-13
-6.1691e-13
3.54245e-11
-8.90938e-14
-6.22758e-13
2.89058e-11
-7.44862e-14
-6.26586e-13
2.37857e-11
-6.30044e-14
-6.29063e-13
1.9727e-11
-5.36519e-14
-6.30657e-13
1.64783e-11
-6.42789e-13
1.38971e-11
-5.83604e-15
3.65935e-12
-9.5681e-10
1.80388e-10
3.2472e-12
-1.04252e-09
1.42027e-10
2.94485e-12
-1.05176e-09
1.16175e-10
2.67544e-12
-1.05867e-09
9.70535e-11
2.4363e-12
-1.06425e-09
8.27494e-11
2.22477e-12
-1.0688e-09
7.18925e-11
2.03762e-12
-1.07256e-09
6.35514e-11
1.87162e-12
-1.07567e-09
5.70708e-11
1.67042e-12
-1.0784e-09
5.19828e-11
-1.10716e-09
4.86026e-11
-6.8192e-15
-5.35928e-10
1.70122e-07
-8.29586e-07
3.41192e-10
1.45061e-07
-9.36089e-07
3.88705e-10
1.27537e-07
-9.38293e-07
3.79191e-10
1.12877e-07
-9.3985e-07
3.68477e-10
1.0049e-07
-9.41219e-07
3.57292e-10
8.99587e-08
-9.42439e-07
3.45975e-10
8.09452e-08
-9.43539e-07
3.26865e-10
7.31827e-08
-9.44539e-07
9.13277e-11
6.64681e-08
-9.45577e-07
6.20921e-08
-7.89039e-15
-9.92713e-07
3.40867e-13
8.79005e-14
7.5186e-13
-1.7551e-14
8.30297e-14
7.39125e-13
-2.51153e-14
7.3214e-14
7.27417e-13
-2.41948e-14
6.36848e-14
7.13922e-13
-2.37741e-14
5.44906e-14
7.01959e-13
-2.35707e-14
4.55745e-14
6.90772e-13
-2.3514e-14
3.69578e-14
6.78023e-13
-2.32548e-14
2.86455e-14
6.67171e-13
-2.51548e-14
2.05394e-14
6.56039e-13
1.28821e-14
6.4429e-13
-1.58836e-15
2.85379e-13
8.17672e-14
1.03992e-12
-6.86131e-14
7.4493e-14
9.87985e-13
-8.39162e-14
6.30654e-14
9.38429e-13
-8.05431e-14
5.2157e-14
8.90565e-13
-7.8427e-14
4.14263e-14
8.45755e-13
-7.62503e-14
2.89092e-14
8.02725e-13
-7.40278e-14
2.0459e-14
7.63822e-13
-7.30456e-14
1.34321e-14
7.25581e-13
-7.66296e-14
7.48687e-15
6.91168e-13
2.52379e-15
6.56369e-13
-4.2427e-15
2.02881e-13
1.03252e-13
1.46318e-12
-1.73598e-13
9.2243e-14
1.33519e-12
-1.58941e-13
7.72318e-14
1.22477e-12
-1.5061e-13
6.33355e-14
1.11776e-12
-1.43342e-13
5.08381e-14
1.0238e-12
-1.36727e-13
3.94818e-14
9.38288e-13
-1.30859e-13
2.91755e-14
8.61239e-13
-1.25657e-13
1.99175e-14
7.91549e-13
-1.30926e-13
1.1549e-14
7.27329e-13
4.14675e-15
6.70253e-13
-6.77648e-15
8.30174e-14
1.26389e-13
2.09557e-12
-3.00997e-13
1.09786e-13
1.8351e-12
-2.55719e-13
8.9814e-14
1.61539e-12
-2.36447e-13
7.20982e-14
1.41771e-12
-2.20887e-13
5.66113e-14
1.248e-12
-2.06697e-13
4.30516e-14
1.10144e-12
-1.9353e-13
3.12494e-14
9.7549e-13
-1.82476e-13
2.09317e-14
8.6614e-13
-1.86599e-13
1.19103e-14
7.67988e-13
4.13312e-15
6.82851e-13
-9.75825e-15
-3.52622e-14
1.56392e-13
3.06419e-12
-4.6182e-13
1.31752e-13
2.56464e-12
-3.79016e-13
1.05248e-13
2.15885e-12
-3.42537e-13
8.2467e-14
1.81479e-12
-3.13242e-13
6.3247e-14
1.53262e-12
-2.86672e-13
4.70741e-14
1.30104e-12
-2.63115e-13
3.3425e-14
1.10836e-12
-2.43479e-13
2.1943e-14
9.47424e-13
-2.44537e-13
1.22478e-14
8.12174e-13
4.23615e-15
6.9789e-13
-1.27951e-14
-1.66371e-13
1.94974e-13
4.58609e-12
-6.70741e-13
1.60305e-13
3.64414e-12
-5.3685e-13
1.24271e-13
2.92316e-12
-4.73628e-13
9.48734e-14
2.34353e-12
-4.22844e-13
7.10056e-14
1.89468e-12
-3.78647e-13
5.15829e-14
1.54247e-12
-3.40208e-13
3.58439e-14
1.26437e-12
-3.08767e-13
2.30167e-14
1.04146e-12
-3.04476e-13
1.26485e-14
8.62243e-13
4.21077e-15
7.14707e-13
-1.57797e-14
-5.60817e-13
2.53727e-13
7.03242e-12
-9.48896e-13
2.1236e-13
5.28089e-12
-7.38605e-13
1.60369e-13
4.01345e-12
-6.35199e-13
1.19709e-13
3.05524e-12
-5.53406e-13
8.80114e-14
2.35816e-12
-4.83953e-13
6.31234e-14
1.83762e-12
-4.25766e-13
4.33285e-14
1.44514e-12
-3.78107e-13
2.73884e-14
1.14742e-12
-3.66992e-13
1.39717e-14
9.14484e-13
3.57344e-15
7.33041e-13
-1.8776e-14
-1.04735e-12
2.96796e-13
1.10865e-11
-1.32e-12
1.9353e-13
7.81609e-12
-9.97353e-13
1.32352e-13
5.59402e-12
-8.34225e-13
8.77097e-14
4.03245e-12
-7.07794e-13
5.46676e-14
2.95908e-12
-6.04801e-13
2.98439e-14
2.20181e-12
-5.19682e-13
1.10108e-14
1.66151e-12
-4.52664e-13
-3.44589e-15
1.26678e-12
-4.31283e-13
-1.46488e-14
9.7361e-13
-2.34945e-14
7.5236e-13
-2.18397e-14
-1.91335e-12
-1.73489e-13
2.36308e-11
-1.09417e-12
-6.19361e-11
1.25404e-11
-8.95924e-13
-5.62707e-11
8.74089e-12
-7.57545e-13
-5.12269e-11
6.31595e-12
-6.52186e-13
-4.72142e-11
4.75974e-12
-5.69959e-13
-4.39882e-11
3.72732e-12
-5.06056e-13
-4.13837e-11
3.02456e-12
-4.6117e-13
-3.92737e-11
2.53425e-12
-5.78985e-13
-3.75683e-11
2.17928e-12
-3.67303e-11
1.92201e-12
-2.50071e-14
-1.19014e-09
1.79703e-08
1.01208e-07
-2.37845e-10
9.95304e-09
-1.85365e-09
-3.65369e-10
7.52685e-09
-2.24362e-09
-3.58321e-10
5.80824e-09
-2.23774e-09
-3.498e-10
4.55055e-09
-2.21727e-09
-3.40527e-10
3.6136e-09
-2.1898e-09
-3.30894e-10
2.90519e-09
-2.15902e-09
-3.21284e-10
2.36226e-09
-2.12764e-09
-3.20016e-10
1.94146e-09
-2.10726e-09
1.63622e-09
-2.83768e-14
-2.7775e-09
3.42679e-13
8.23012e-14
2.8727e-14
-1.61785e-14
7.8126e-14
2.69995e-14
-2.27561e-14
6.89047e-14
2.54582e-14
-2.03764e-14
6.00276e-14
2.40277e-14
-1.86491e-14
5.14342e-14
2.17645e-14
-2.05264e-14
4.3062e-14
1.94179e-14
-1.91053e-14
3.50841e-14
1.85753e-14
-1.95604e-14
2.72966e-14
1.74739e-14
-2.35502e-14
1.97737e-14
1.64875e-14
1.2651e-14
1.64193e-14
-1.30148e-15
2.91323e-13
5.96864e-14
4.59508e-14
-6.45802e-14
5.47577e-14
4.16179e-14
-7.30218e-14
4.6455e-14
4.00148e-14
-6.75184e-14
3.84586e-14
3.46669e-14
-6.65781e-14
3.10409e-14
3.09109e-14
-6.26746e-14
2.42132e-14
2.88845e-14
-6.22852e-14
1.7865e-14
2.39004e-14
-6.14851e-14
1.20945e-14
2.15341e-14
-7.13279e-14
6.87967e-15
2.0446e-14
2.43266e-15
1.81695e-14
-4.46518e-15
2.12446e-13
7.63768e-14
6.98083e-14
-1.65178e-13
6.90627e-14
6.30125e-14
-1.38852e-13
5.8177e-14
5.90371e-14
-1.26358e-13
4.81875e-14
5.19329e-14
-1.2032e-13
3.91642e-14
4.45835e-14
-1.13716e-13
3.09799e-14
3.79057e-14
-1.0859e-13
2.3985e-14
3.27759e-14
-1.06822e-13
1.66445e-14
2.8887e-14
-1.21216e-13
9.63012e-15
2.52002e-14
3.33936e-15
2.11702e-14
-7.24442e-15
9.16966e-14
9.49938e-14
1.11648e-13
-2.89126e-13
8.3202e-14
1.00707e-13
-2.22968e-13
6.83758e-14
9.16085e-14
-1.98439e-13
5.53611e-14
7.60762e-14
-1.84971e-13
4.40664e-14
6.37054e-14
-1.71483e-13
3.51943e-14
5.38767e-14
-1.58411e-13
2.59967e-14
4.53956e-14
-1.55176e-13
1.72757e-14
3.83381e-14
-1.73157e-13
9.89782e-15
3.42664e-14
3.50153e-15
2.63634e-14
-1.04441e-14
-2.6578e-14
1.19875e-13
1.88176e-13
-4.46586e-13
1.01027e-13
1.62987e-13
-3.30433e-13
8.10174e-14
1.43157e-13
-2.78511e-13
6.38366e-14
1.15495e-13
-2.55389e-13
4.95194e-14
9.32414e-14
-2.32049e-13
3.81725e-14
7.5825e-14
-2.09939e-13
2.81365e-14
6.29618e-14
-2.05095e-13
1.85832e-14
5.33383e-14
-2.27018e-13
1.04952e-14
4.54151e-14
3.70132e-15
3.40223e-14
-1.30985e-14
-1.63443e-13
1.52803e-13
3.23707e-13
-6.52647e-13
1.25143e-13
2.73104e-13
-4.66946e-13
9.68927e-14
2.25961e-13
-3.7233e-13
7.4061e-14
1.74242e-13
-3.31557e-13
5.61076e-14
1.37089e-13
-2.93823e-13
4.21307e-14
1.08722e-13
-2.62957e-13
3.00037e-14
8.77196e-14
-2.57344e-13
1.94938e-14
7.28781e-14
-2.83007e-13
1.05842e-14
5.75892e-14
3.60338e-15
4.17546e-14
-1.64994e-14
-5.78446e-13
1.89949e-13
5.67696e-13
-9.30711e-13
1.55433e-13
4.57363e-13
-6.01607e-13
1.16575e-13
3.55519e-13
-4.94022e-13
8.67116e-14
2.65313e-13
-4.28941e-13
6.39322e-14
1.99917e-13
-3.71619e-13
4.83314e-14
1.53632e-13
-3.23214e-13
3.34897e-14
1.21427e-13
-3.08422e-13
2.11834e-14
9.60107e-14
-3.40958e-13
1.16043e-14
7.68192e-14
4.1872e-15
5.22557e-14
-1.95998e-14
-1.10596e-12
3.37824e-13
1.02737e-12
-1.30682e-12
2.25456e-13
7.72135e-13
-7.98145e-13
1.58311e-13
5.65308e-13
-6.48498e-13
1.10706e-13
3.99632e-13
-5.45345e-13
7.66339e-14
2.90709e-13
-4.60337e-13
5.18876e-14
2.16215e-13
-3.92414e-13
3.37291e-14
1.62682e-13
-3.48416e-13
2.03557e-14
1.25513e-13
-4.01128e-13
1.03985e-14
9.96304e-14
3.08953e-15
6.39383e-14
-2.29268e-14
-2.34867e-12
6.4041e-11
7.10489e-12
-1.73823e-12
7.72866e-13
1.14244e-12
-1.06097e-12
3.94776e-15
7.44402e-13
-8.45413e-13
-1.75546e-13
5.1872e-13
-6.92269e-13
-3.09799e-13
3.75868e-13
-5.72572e-13
-4.07181e-13
2.82723e-13
-4.78188e-13
-4.76616e-13
2.19234e-13
-4.15299e-13
-5.25183e-13
1.74217e-13
-4.75609e-13
-5.57655e-13
1.41612e-13
-5.75072e-13
9.99407e-14
-2.6298e-14
-7.92827e-10
6.99441e-09
8.98939e-08
-5.12741e-11
5.29208e-10
2.14618e-10
-5.15114e-11
2.94285e-10
-8.83229e-11
-4.36677e-11
1.96272e-10
-7.30053e-11
-3.70386e-11
1.34667e-10
-5.85532e-11
-3.165e-11
9.44413e-11
-4.63115e-11
-2.72367e-11
6.75907e-11
-3.5442e-11
-2.35944e-11
4.93042e-11
-2.74628e-11
-2.06148e-11
3.65959e-11
-2.33398e-11
2.7507e-11
-2.97926e-14
-2.22995e-11
3.42942e-13
8.11143e-14
1.10086e-14
-1.60943e-14
7.7085e-14
9.89135e-15
-2.22335e-14
6.80271e-14
8.31526e-15
-2.00836e-14
5.9248e-14
6.65466e-15
-1.86847e-14
5.08111e-14
6.0406e-15
-1.95848e-14
4.26381e-14
4.22746e-15
-1.80775e-14
3.47043e-14
3.05533e-15
-1.9204e-14
2.70377e-14
1.15769e-15
-2.3077e-14
1.96607e-14
7.62006e-16
1.26234e-14
5.61485e-16
-1.54846e-15
2.92662e-13
5.82225e-14
1.83567e-14
-6.36748e-14
5.35193e-14
1.59629e-14
-7.16015e-14
4.54026e-14
1.6564e-14
-6.44972e-14
3.76998e-14
1.32827e-14
-6.18669e-14
3.04498e-14
9.88899e-15
-6.21171e-14
2.37121e-14
6.82983e-15
-5.90789e-14
1.75802e-14
6.34887e-15
-5.8891e-14
1.19372e-14
4.19098e-15
-7.03284e-14
6.79326e-15
3.77288e-15
2.43125e-15
2.63373e-15
-4.30385e-15
2.15718e-13
7.39682e-14
2.69341e-14
-1.62507e-13
6.69464e-14
2.50607e-14
-1.33907e-13
5.62553e-14
2.6302e-14
-1.1689e-13
4.62879e-14
2.0438e-14
-1.14025e-13
3.73743e-14
1.68647e-14
-1.0361e-13
2.93324e-14
1.39511e-14
-9.86247e-14
2.18077e-14
1.10101e-14
-1.03666e-13
1.50101e-14
9.31517e-15
-1.19389e-13
9.42011e-15
8.05719e-15
3.08959e-15
6.08249e-15
-7.08851e-15
9.58564e-14
9.20045e-14
4.41147e-14
-2.84557e-13
8.04903e-14
4.31995e-14
-2.14803e-13
6.60394e-14
4.48099e-14
-1.79205e-13
5.33186e-14
3.6878e-14
-1.6717e-13
4.20706e-14
3.00418e-14
-1.55566e-13
3.22098e-14
2.52014e-14
-1.4462e-13
2.35697e-14
2.07889e-14
-1.48403e-13
1.59126e-14
1.76183e-14
-1.70762e-13
9.55276e-15
1.4978e-14
3.61551e-15
1.04454e-14
-1.05404e-14
-2.00169e-14
1.15981e-13
7.68611e-14
-4.38962e-13
9.78845e-14
7.87139e-14
-3.13139e-13
7.82751e-14
7.64149e-14
-2.58391e-13
6.13629e-14
6.169e-14
-2.35058e-13
4.73463e-14
5.11898e-14
-2.13883e-13
3.55179e-14
4.18906e-14
-1.95141e-13
2.5595e-14
3.46078e-14
-1.95983e-13
1.78762e-14
3.04384e-14
-2.23712e-13
9.50033e-15
2.73051e-14
3.54259e-15
1.75505e-14
-1.33611e-14
-1.54175e-13
1.47797e-13
1.37761e-13
-6.40932e-13
1.21038e-13
1.38456e-13
-4.19547e-13
9.3477e-14
1.29062e-13
-3.54802e-13
7.13486e-14
1.03815e-13
-3.15903e-13
5.35559e-14
8.37168e-14
-2.80558e-13
3.90897e-14
6.93233e-14
-2.50057e-13
2.74595e-14
5.72485e-14
-2.40706e-13
1.78287e-14
4.75983e-14
-2.78702e-13
1.05012e-14
4.18502e-14
3.69772e-15
2.71202e-14
-1.67193e-14
-5.58011e-13
1.85006e-13
2.45908e-13
-9.12735e-13
1.50596e-13
2.46941e-13
-5.68298e-13
1.1281e-13
2.135e-13
-4.75293e-13
8.34124e-14
1.67801e-13
-4.12082e-13
6.09095e-14
1.3277e-13
-3.56878e-13
4.35389e-14
1.07182e-13
-3.11957e-13
2.97593e-14
8.64017e-14
-2.83017e-13
1.90421e-14
7.27421e-14
-3.36334e-13
1.09204e-14
6.12476e-14
3.4399e-15
3.90142e-14
-1.99237e-14
-1.0758e-12
3.31274e-13
4.47475e-13
-1.27809e-12
1.84134e-13
4.31289e-13
-7.66462e-13
1.97502e-13
3.48937e-13
-6.25603e-13
1.38587e-13
2.64825e-13
-5.26312e-13
9.62876e-14
2.0379e-13
-4.45437e-13
6.57716e-14
1.59014e-13
-3.7987e-13
4.34655e-14
1.27403e-13
-3.33173e-13
2.69924e-14
1.03888e-13
-3.96374e-13
1.45772e-14
8.4847e-14
5.22578e-15
5.50393e-14
-2.29118e-14
-2.31118e-12
6.62758e-11
1.06364e-11
-1.68426e-12
9.28161e-13
8.18169e-13
-1.02449e-12
2.62856e-13
5.62337e-13
-8.14194e-13
1.67121e-13
4.11962e-13
-6.63887e-13
1.06111e-13
3.05679e-13
-5.46769e-13
6.49824e-14
2.31972e-13
-4.54701e-13
3.72014e-14
1.78431e-13
-3.89436e-13
1.82818e-14
1.4021e-13
-4.58249e-13
5.35366e-15
1.1059e-13
-3.2548e-15
6.80548e-14
-2.64372e-14
-7.38394e-10
9.94264e-09
8.98097e-08
-8.83817e-12
1.11699e-10
3.29023e-10
-2.91564e-12
9.93081e-12
-2.18628e-13
-3.29073e-12
5.5288e-12
-5.75296e-13
-2.51261e-12
3.37237e-12
-2.79882e-13
-1.94128e-12
2.14626e-12
-1.04555e-13
-1.52326e-12
1.41031e-12
3.91141e-15
-1.21573e-12
9.54541e-13
6.99634e-14
-1.02722e-12
6.59599e-13
1.08361e-13
4.3181e-13
-3.01014e-14
2.41209e-13
3.42819e-13
8.11857e-14
1.80146e-14
-1.6461e-14
7.71262e-14
1.5318e-14
-2.23178e-14
6.81182e-14
1.24125e-14
-2.05391e-14
5.93258e-14
7.68194e-15
-1.71318e-14
5.08538e-14
6.75764e-15
-2.02004e-14
4.26307e-14
3.47329e-15
-1.91153e-14
3.4759e-14
5.60032e-15
-1.88622e-14
2.71115e-14
4.60762e-15
-2.30359e-14
1.96977e-14
7.96475e-16
1.26632e-14
2.97848e-16
-1.86158e-15
2.92375e-13
5.83099e-14
2.56262e-14
-6.37738e-14
5.36202e-14
2.62543e-14
-7.18602e-14
4.5453e-14
1.9195e-14
-6.5387e-14
3.76899e-14
1.66332e-14
-6.28852e-14
3.04961e-14
1.12567e-14
-6.05715e-14
2.3792e-14
8.90153e-15
-5.95527e-14
1.75984e-14
6.29181e-15
-5.95235e-14
1.19689e-14
7.3625e-15
-7.02774e-14
6.84932e-15
6.26525e-15
2.4876e-15
1.53979e-15
-4.37367e-15
2.15396e-13
7.40778e-14
3.81107e-14
-1.62967e-13
6.70221e-14
3.5584e-14
-1.35096e-13
5.63603e-14
3.46379e-14
-1.14686e-13
4.65152e-14
3.20855e-14
-1.11284e-13
3.74786e-14
2.28378e-14
-1.05293e-13
2.9425e-14
1.67572e-14
-9.80901e-14
2.20278e-14
1.51674e-14
-1.03828e-13
1.5122e-14
1.17685e-14
-1.19252e-13
9.00544e-15
1.17979e-14
3.04256e-15
6.19208e-15
-7.42071e-15
9.55367e-14
9.22181e-14
6.37872e-14
-2.85114e-13
8.07788e-14
6.30878e-14
-2.15206e-13
6.6218e-14
6.21697e-14
-1.79804e-13
5.33743e-14
4.98213e-14
-1.66653e-13
4.22109e-14
4.16269e-14
-1.56162e-13
3.22075e-14
3.29229e-14
-1.44431e-13
2.34927e-14
3.09177e-14
-1.48885e-13
1.6087e-14
2.5446e-14
-1.70814e-13
1.00426e-14
2.36179e-14
3.78871e-15
1.99986e-14
-1.01442e-14
-2.04135e-14
1.1639e-13
1.09789e-13
-4.40154e-13
9.81497e-14
1.09179e-13
-3.1454e-13
7.85957e-14
1.07283e-13
-2.58043e-13
6.16923e-14
9.0126e-14
-2.35747e-13
4.75547e-14
7.35206e-14
-2.14591e-13
3.58564e-14
6.34879e-14
-1.94706e-13
2.60472e-14
5.67278e-14
-1.94438e-13
1.74276e-14
4.3062e-14
-2.24266e-13
9.39201e-15
3.52942e-14
3.71587e-15
2.42934e-14
-1.3293e-14
-1.55293e-13
1.48388e-13
1.88175e-13
-6.42498e-13
1.21661e-13
1.99868e-13
-4.20445e-13
9.3928e-14
1.80174e-13
-3.55778e-13
7.1736e-14
1.46208e-13
-3.16049e-13
5.39132e-14
1.19528e-13
-2.81341e-13
3.93572e-14
9.90977e-14
-2.50852e-13
2.7557e-14
7.90548e-14
-2.37223e-13
1.83522e-14
7.11559e-14
-2.79419e-13
1.07846e-14
5.86389e-14
3.7774e-15
3.69989e-14
-1.66072e-14
-5.60798e-13
1.85784e-13
3.3601e-13
-9.16019e-13
1.51473e-13
3.47106e-13
-5.69442e-13
1.13497e-13
3.07345e-13
-4.76791e-13
8.3938e-14
2.34923e-13
-4.13005e-13
6.13393e-14
1.93391e-13
-3.58363e-13
4.37953e-14
1.52002e-13
-3.12287e-13
3.01382e-14
1.26096e-13
-2.83568e-13
1.91265e-14
1.02345e-13
-3.37507e-13
1.11398e-14
8.4466e-14
4.08031e-15
5.5285e-14
-1.98357e-14
-1.08141e-12
3.35269e-13
6.0291e-13
-1.28362e-12
1.71154e-13
6.08184e-13
-7.68908e-13
1.39809e-13
5.00524e-13
-6.27976e-13
1.01745e-13
3.80184e-13
-5.28513e-13
7.32812e-14
2.95449e-13
-4.4697e-13
5.46415e-14
2.35641e-13
-3.81229e-13
3.68098e-14
1.82882e-13
-3.34591e-13
2.31879e-14
1.48442e-13
-3.97847e-13
1.2668e-14
1.21746e-13
4.87982e-15
7.72537e-14
-2.31126e-14
-2.34978e-12
6.99793e-11
1.65869e-11
-1.68554e-12
8.57563e-13
1.20388e-12
-1.0294e-12
1.97464e-13
8.15131e-13
-8.18768e-13
1.74654e-13
5.901e-13
-6.67209e-13
1.16138e-13
4.41804e-13
-5.49689e-13
7.54931e-14
3.34547e-13
-4.56707e-13
4.69302e-14
2.54414e-13
-3.91344e-13
2.60757e-14
2.04216e-13
-4.60449e-13
8.5939e-15
1.61837e-13
3.25346e-15
1.02034e-13
-2.65092e-14
-7.767e-10
1.59359e-08
9.4807e-08
-6.46509e-12
1.44957e-10
3.67747e-10
-1.34723e-12
2.45238e-12
1.27604e-12
-1.10326e-12
1.07046e-12
1.6131e-13
-8.68558e-13
7.44143e-13
8.43852e-14
-6.9026e-13
4.60295e-13
6.45386e-14
-5.56648e-13
3.95523e-13
5.11612e-14
-4.63265e-13
2.63364e-13
4.12726e-14
-5.33692e-13
1.95496e-13
3.37522e-14
1.21594e-13
-3.00584e-14
3.06351e-14
3.42488e-13
8.13333e-14
2.23486e-14
-1.67785e-14
7.72743e-14
1.4785e-14
-2.29668e-14
6.81769e-14
1.8537e-14
-1.99266e-14
5.94322e-14
1.29913e-14
-1.94532e-14
5.08993e-14
7.56587e-15
-1.9267e-14
4.26935e-14
4.49463e-15
-1.88882e-14
3.4772e-14
2.01285e-15
-1.99133e-14
2.71376e-14
1.22321e-15
-2.30424e-14
1.97686e-14
1.39827e-15
1.26828e-14
1.83794e-15
-1.53653e-15
2.92017e-13
5.84978e-14
3.82427e-14
-6.44839e-14
5.37774e-14
3.4184e-14
-7.1226e-14
4.56336e-14
3.2495e-14
-6.69779e-14
3.78189e-14
2.10793e-14
-6.16181e-14
3.06219e-14
2.09306e-14
-6.1363e-14
2.3871e-14
1.21735e-14
-5.78326e-14
1.76862e-14
8.25222e-15
-5.93701e-14
1.20256e-14
5.3374e-15
-7.06661e-14
6.91032e-15
4.71172e-15
2.55216e-15
5.09126e-15
-4.3843e-15
2.14736e-13
7.43922e-14
4.90868e-14
-1.6398e-13
6.72876e-14
5.22284e-14
-1.35102e-13
5.65825e-14
5.50553e-14
-1.15808e-13
4.66486e-14
4.27702e-14
-1.14687e-13
3.7609e-14
3.21327e-14
-1.03937e-13
2.95316e-14
2.63386e-14
-9.89343e-14
2.21908e-14
1.76453e-14
-1.03357e-13
1.53866e-14
1.81137e-14
-1.19554e-13
9.43685e-15
1.19241e-14
3.36799e-15
8.84975e-15
-7.50637e-15
9.47385e-14
9.27236e-14
9.11343e-14
-2.86428e-13
8.11949e-14
8.91373e-14
-2.16193e-13
6.6579e-14
9.24397e-14
-1.80083e-13
5.37343e-14
7.57275e-14
-1.67945e-13
4.25352e-14
5.85971e-14
-1.55557e-13
3.25662e-14
4.19292e-14
-1.45094e-13
2.37221e-14
3.3628e-14
-1.49196e-13
1.61894e-14
3.08362e-14
-1.70941e-13
1.00085e-14
2.5946e-14
3.56102e-15
1.50946e-14
-1.02618e-14
-2.18629e-14
1.17138e-13
1.58844e-13
-4.4217e-13
9.88416e-14
1.62283e-13
-3.15544e-13
7.91075e-14
1.59664e-13
-2.59046e-13
6.21059e-14
1.28095e-13
-2.36361e-13
4.78571e-14
1.05448e-13
-2.15639e-13
3.61214e-14
8.51271e-14
-1.95171e-13
2.60857e-14
6.09808e-14
-1.95835e-13
1.76658e-14
5.21675e-14
-2.24689e-13
9.82184e-15
4.33773e-14
3.97024e-15
2.74486e-14
-1.3288e-14
-1.57421e-13
1.49631e-13
2.77014e-13
-6.46035e-13
1.22653e-13
2.89176e-13
-4.22242e-13
9.47981e-14
2.66868e-13
-3.57434e-13
7.2373e-14
2.08445e-13
-3.16966e-13
5.45325e-14
1.69128e-13
-2.83378e-13
3.97477e-14
1.33713e-13
-2.51307e-13
2.80597e-14
1.12184e-13
-2.37816e-13
1.84994e-14
8.08967e-14
-2.80456e-13
1.0988e-14
6.79569e-14
3.93797e-15
4.41344e-14
-1.63975e-14
-5.66958e-13
1.87476e-13
4.94477e-13
-9.21544e-13
1.53029e-13
5.06964e-13
-5.73752e-13
1.14662e-13
4.36497e-13
-4.78837e-13
8.49206e-14
3.43852e-13
-4.1576e-13
6.20467e-14
2.67209e-13
-3.60077e-13
4.44945e-14
2.12362e-13
-3.14147e-13
3.06735e-14
1.69688e-13
-2.84566e-13
1.96201e-14
1.22274e-13
-3.39014e-13
1.15379e-14
1.02162e-13
4.46798e-15
6.33212e-14
-1.97405e-14
-1.09275e-12
3.40092e-13
8.97526e-13
-1.29331e-12
2.24261e-13
8.88961e-13
-7.74662e-13
1.40101e-13
7.18149e-13
-6.3244e-13
1.01711e-13
5.40772e-13
-5.32068e-13
7.28089e-14
4.12487e-13
-4.50137e-13
5.39534e-14
3.15632e-13
-3.83861e-13
3.68819e-14
2.49096e-13
-3.3667e-13
2.35162e-14
1.77513e-13
-4.00067e-13
1.30061e-14
1.39811e-13
5.18661e-15
8.76543e-14
-2.30133e-14
-2.39386e-12
7.43075e-11
2.13933e-11
-1.69478e-12
8.94913e-13
1.72275e-12
-1.03888e-12
1.97085e-13
1.17099e-12
-8.25901e-13
1.65637e-13
8.47181e-13
-6.72988e-13
1.08413e-13
6.21061e-13
-5.54628e-13
6.71165e-14
4.61622e-13
-4.60172e-13
3.16818e-14
3.44599e-13
-3.94588e-13
1.75159e-14
2.54999e-13
-4.63877e-13
9.0632e-15
1.92145e-13
3.73553e-15
1.16506e-13
-2.6535e-14
-8.28694e-10
2.14138e-08
1.02315e-07
-6.679e-12
2.12034e-10
3.97296e-10
-1.26453e-12
2.56004e-12
1.38699e-12
-1.06485e-12
1.1031e-12
9.18266e-14
-8.43941e-13
7.91956e-13
6.48712e-14
-6.74335e-13
5.79007e-13
4.99942e-14
-5.46364e-13
4.27819e-13
3.93321e-14
-4.55932e-13
3.22108e-13
3.14955e-14
-5.30338e-13
2.43942e-13
2.56264e-14
1.44829e-13
-3.02714e-14
2.11963e-14
3.41964e-13
8.15411e-14
2.94719e-14
-1.70051e-14
7.74766e-14
2.83192e-14
-2.3583e-14
6.82945e-14
2.23744e-14
-1.98129e-14
5.95379e-14
1.79943e-14
-1.98922e-14
5.1016e-14
8.25646e-15
-1.98902e-14
4.27884e-14
6.55609e-15
-1.92846e-14
3.48765e-14
5.82512e-15
-1.95655e-14
2.72259e-14
7.57218e-15
-2.29101e-14
1.9849e-14
1.93263e-14
1.27609e-14
5.44227e-14
-1.80325e-15
2.91457e-13
5.86941e-14
5.08798e-14
-6.51006e-14
5.39633e-14
4.50265e-14
-7.18118e-14
4.58295e-14
4.46286e-14
-6.6337e-14
3.79793e-14
3.49062e-14
-6.39961e-14
3.0717e-14
1.90198e-14
-6.0982e-14
2.39837e-14
1.28848e-14
-5.97303e-14
1.77769e-14
1.22221e-14
-5.90661e-14
1.21475e-14
1.18015e-14
-7.0625e-14
6.99464e-15
1.50499e-14
2.6168e-15
3.94285e-14
-4.52785e-15
2.13974e-13
7.47899e-14
7.39023e-14
-1.65028e-13
6.75794e-14
6.83702e-14
-1.35832e-13
5.6828e-14
6.93933e-14
-1.17475e-13
4.687e-14
5.60695e-14
-1.11954e-13
3.78021e-14
4.3588e-14
-1.05905e-13
2.96137e-14
2.3755e-14
-9.75931e-14
2.23067e-14
2.07726e-14
-1.04226e-13
1.53706e-14
2.19254e-14
-1.19716e-13
9.77538e-15
2.47654e-14
3.28978e-15
3.4665e-14
-7.6575e-15
9.37179e-14
9.33315e-14
1.18334e-13
-2.87863e-13
8.17278e-14
1.18806e-13
-2.17241e-13
6.70337e-14
1.19827e-13
-1.81218e-13
5.41173e-14
9.7087e-14
-1.68628e-13
4.29472e-14
7.85737e-14
-1.5623e-13
3.29979e-14
5.17132e-14
-1.44912e-13
2.40149e-14
3.78672e-14
-1.48897e-13
1.64736e-14
3.47524e-14
-1.71741e-13
9.63687e-15
3.88014e-14
4.11802e-15
3.93926e-14
-1.00248e-14
-2.36038e-14
1.18071e-13
2.05345e-13
-4.44468e-13
9.96578e-14
2.11018e-13
-3.18088e-13
7.97637e-14
2.02651e-13
-2.59981e-13
6.26009e-14
1.65397e-13
-2.37232e-13
4.82497e-14
1.3417e-13
-2.17135e-13
3.64462e-14
1.08028e-13
-1.95459e-13
2.64384e-14
6.70748e-14
-1.97483e-13
1.77057e-14
5.58349e-14
-2.25316e-13
1.02438e-14
6.1917e-14
4.24528e-15
5.15115e-14
-1.34283e-14
-1.60125e-13
1.51135e-13
3.65419e-13
-6.49972e-13
1.23834e-13
3.74116e-13
-4.25674e-13
9.57571e-14
3.409e-13
-3.59222e-13
7.32475e-14
2.75617e-13
-3.18443e-13
5.52243e-14
2.2039e-13
-2.84854e-13
4.03176e-14
1.80091e-13
-2.53116e-13
2.84513e-14
1.10887e-13
-2.37985e-13
1.88802e-14
8.71392e-14
-2.81503e-13
1.14304e-14
7.7071e-14
4.07571e-15
6.90609e-14
-1.6621e-14
-5.74582e-13
1.90197e-13
6.4407e-13
-9.28123e-13
1.54919e-13
6.5239e-13
-5.77676e-13
1.16099e-13
5.64701e-13
-4.82407e-13
8.60147e-14
4.41353e-13
-4.18305e-13
6.29356e-14
3.47337e-13
-3.6245e-13
4.52081e-14
2.76989e-13
-3.16763e-13
3.14347e-14
2.00594e-13
-2.85337e-13
2.01498e-14
1.32078e-13
-3.4099e-13
1.17303e-14
1.07106e-13
4.84911e-15
9.33694e-14
-1.97531e-14
-1.10658e-12
3.39335e-13
1.15248e-12
-1.30448e-12
2.08711e-13
1.129e-12
-7.81524e-13
1.42444e-13
9.20645e-13
-6.37882e-13
1.03278e-13
6.95114e-13
-5.36509e-13
7.40043e-14
5.30423e-13
-4.53362e-13
5.46339e-14
4.13937e-13
-3.87837e-13
3.75816e-14
3.1966e-13
-3.39146e-13
2.42038e-14
1.94371e-13
-4.02885e-13
1.36319e-14
1.49354e-13
5.6657e-15
1.03033e-13
-2.30866e-14
-2.37884e-12
7.15603e-11
1.91702e-11
-1.72188e-12
8.18412e-13
2.06824e-12
-1.05054e-12
1.99884e-13
1.50258e-12
-8.34575e-13
1.68754e-13
1.08352e-12
-6.80037e-13
1.10629e-13
8.02175e-13
-5.60171e-13
6.88091e-14
6.04795e-13
-4.6535e-13
3.27337e-14
4.62258e-13
-3.98155e-13
1.81888e-14
2.75828e-13
-4.68245e-13
9.521e-15
2.04078e-13
4.19487e-15
1.27971e-13
-2.65857e-14
-8.07128e-10
2.02113e-08
1.05831e-07
-6.10825e-12
1.57993e-10
3.79016e-10
-1.43226e-12
2.98845e-12
1.06671e-12
-1.07856e-12
1.63965e-12
8.62507e-14
-8.53957e-13
1.1785e-12
6.41473e-14
-6.82282e-13
8.60013e-13
5.01227e-14
-5.53416e-13
6.37717e-13
3.98589e-14
-4.6109e-13
4.30217e-13
3.23139e-14
-5.36434e-13
2.72982e-13
2.65107e-14
1.61089e-13
-3.01042e-14
2.23352e-14
3.41702e-13
8.1717e-14
1.88929e-14
-1.7686e-14
7.74929e-14
1.7963e-15
-2.35352e-14
6.84019e-14
5.74087e-15
-2.05347e-14
5.9631e-14
8.2958e-15
-2.03055e-14
5.113e-14
1.89448e-14
-2.07181e-14
4.29503e-14
3.93986e-14
-2.04046e-14
3.509e-14
7.49187e-14
-1.99956e-14
2.75615e-14
2.6693e-13
-1.2535e-14
2.03425e-14
1.03517e-12
1.29832e-14
2.99196e-12
-1.09207e-14
2.90752e-13
5.88884e-14
2.89244e-14
-6.54448e-14
5.4051e-14
3.47858e-15
-7.22657e-14
4.58697e-14
1.37605e-14
-6.70331e-14
3.80595e-14
1.47562e-14
-6.43269e-14
3.08358e-14
2.39236e-14
-6.12956e-14
2.41363e-14
4.22087e-14
-6.09593e-14
1.79448e-14
6.8934e-14
-6.31607e-14
1.23619e-14
1.80872e-13
-7.11285e-14
7.35346e-15
6.1671e-13
2.7541e-15
1.95676e-12
-1.06273e-14
2.1299e-13
7.50649e-14
3.9832e-14
-1.65852e-13
6.77598e-14
7.21035e-15
-1.36004e-13
5.70547e-14
2.24614e-14
-1.18442e-13
4.70567e-14
2.44989e-14
-1.11675e-13
3.80235e-14
3.09704e-14
-1.06663e-13
2.99285e-14
4.91031e-14
-9.97255e-14
2.26447e-14
7.86237e-14
-1.05852e-13
1.55581e-14
1.43354e-13
-1.23781e-13
9.27027e-15
4.07628e-13
3.50925e-15
1.28603e-12
-7.33766e-15
9.29139e-14
9.38494e-14
6.75728e-14
-2.88707e-13
8.203e-14
2.44943e-14
-2.18069e-13
6.72896e-14
4.5801e-14
-1.81667e-13
5.44093e-14
4.70534e-14
-1.68463e-13
4.32198e-14
5.30699e-14
-1.56713e-13
3.31831e-14
6.5743e-14
-1.47226e-13
2.43947e-14
9.27523e-14
-1.51262e-13
1.69615e-14
1.34854e-13
-1.76581e-13
9.92214e-15
3.05469e-13
4.44371e-15
8.90049e-13
-7.90991e-15
-2.49209e-14
1.18933e-13
1.18875e-13
-4.45711e-13
1.00187e-13
6.83152e-14
-3.18369e-13
8.02534e-14
9.17888e-14
-2.61014e-13
6.31355e-14
8.83151e-14
-2.37821e-13
4.8732e-14
8.8042e-14
-2.17236e-13
3.70112e-14
1.2361e-13
-1.9715e-13
2.66912e-14
1.1682e-13
-2.01324e-13
1.79523e-14
1.46608e-13
-2.30547e-13
1.09342e-14
2.62847e-13
4.21121e-15
6.51873e-13
-9.9005e-15
-1.62455e-13
1.52393e-13
2.13549e-13
-6.51843e-13
1.24612e-13
1.5428e-13
-4.25934e-13
9.65107e-14
1.73958e-13
-3.61254e-13
7.39007e-14
1.5856e-13
-3.18709e-13
5.58654e-14
1.47713e-13
-2.87203e-13
4.08386e-14
1.77349e-13
-2.54391e-13
2.8885e-14
1.57144e-13
-2.40851e-13
1.93205e-14
1.85927e-13
-2.874e-13
1.16269e-14
2.54705e-13
4.74746e-15
5.10535e-13
-1.48802e-14
-5.81036e-13
1.95935e-13
3.87703e-13
-9.30909e-13
1.56255e-13
3.13466e-13
-5.80057e-13
1.17128e-13
3.13288e-13
-4.84755e-13
8.69713e-14
2.70901e-13
-4.19712e-13
6.37337e-14
2.37766e-13
-3.65412e-13
4.59542e-14
2.36592e-13
-3.18486e-13
3.2263e-14
1.70973e-13
-2.89153e-13
2.08138e-14
2.29807e-13
-3.47253e-13
1.23794e-14
2.72429e-13
5.12555e-15
4.28875e-13
-1.84024e-14
-1.11689e-12
3.17144e-13
6.88735e-13
-1.30918e-12
1.84167e-13
6.00877e-13
-7.85492e-13
1.45324e-13
5.43517e-13
-6.41638e-13
1.0472e-13
4.48147e-13
-5.39269e-13
7.53534e-14
3.74575e-13
-4.56376e-13
5.57934e-14
3.37236e-13
-3.91711e-13
3.86641e-14
3.75089e-13
-3.42721e-13
2.491e-14
2.90945e-13
-4.1025e-13
1.43489e-14
3.10555e-13
6.29765e-15
3.85879e-13
-2.22964e-14
-2.1135e-12
3.48571e-11
-9.75736e-14
-1.79074e-12
3.87681e-13
9.79924e-13
-1.05886e-12
2.66912e-13
9.12125e-13
-8.3982e-13
1.72302e-13
7.1725e-13
-6.85105e-13
1.13033e-13
5.70989e-13
-5.6404e-13
7.10187e-14
5.03232e-13
-4.72093e-13
3.40706e-14
5.26479e-13
-4.01898e-13
1.89979e-14
3.11352e-13
-4.7658e-13
1.00823e-14
3.62159e-13
4.79077e-15
3.70294e-13
-2.6206e-14
-4.12191e-10
-4.25099e-09
8.09685e-08
-2.82727e-12
-1.26105e-10
1.17514e-10
-1.31438e-12
6.88258e-13
-2.1023e-13
-1.09175e-12
1.14485e-12
8.06473e-14
-8.61567e-13