/*--------------------------------*- C++ -*----------------------------------*\
| =========                 |                                                 |
| \\      /  F ield         | OpenFOAM: The Open Source CFD Toolbox           |
|  \\    /   O peration     | Version:  4.1                                   |
|   \\  /    A nd           | Web:      www.OpenFOAM.org                      |
|    \\/     M anipulation  |                                                 |
\*---------------------------------------------------------------------------*/
FoamFile
{
    version     2.0;
    format      ascii;
    class       volVectorField;
    location    "0.78";
    object      U;
}
// * * * * * * * * * * * * * * * * * * * * * * * * * * * * * * * * * * * * * //

dimensions      [0 1 -1 0 0 0 0];

internalField   nonuniform List<vector> 
18000
(
(8.67833e-14 3.8577e-13 -5.90313e-12)
(9.18465e-14 3.85221e-13 -5.83739e-12)
(8.27933e-14 -9.76817e-15 -5.77173e-12)
(7.3963e-14 -1.37908e-14 -5.70746e-12)
(6.53721e-14 -1.35232e-14 -5.64374e-12)
(5.70214e-14 -1.31562e-14 -5.58076e-12)
(4.89599e-14 -1.31852e-14 -5.51847e-12)
(4.12487e-14 -1.31841e-14 -5.4574e-12)
(3.37338e-14 -1.29579e-14 -5.39721e-12)
(2.65277e-14 -9.56716e-15 -5.33908e-12)
(1.30024e-13 3.96646e-13 -7.36203e-12)
(1.42844e-13 3.83923e-13 -7.10772e-12)
(1.25046e-13 -4.67787e-14 -6.86061e-12)
(1.08175e-13 -4.94044e-14 -6.62448e-12)
(9.25527e-14 -4.77164e-14 -6.39857e-12)
(7.80258e-14 -4.58255e-14 -6.18172e-12)
(6.43825e-14 -4.40697e-14 -5.97357e-12)
(5.18539e-14 -4.25431e-14 -5.77409e-12)
(4.00723e-14 -4.09151e-14 -5.58199e-12)
(2.91618e-14 -2.97869e-14 -5.402e-12)
(1.43821e-13 3.99435e-13 -9.28873e-12)
(1.52362e-13 3.69587e-13 -8.73513e-12)
(1.26024e-13 -1.00505e-13 -8.21408e-12)
(1.02398e-13 -9.86321e-14 -7.73171e-12)
(8.15201e-14 -9.20777e-14 -7.28257e-12)
(6.30075e-14 -8.64255e-14 -6.86489e-12)
(4.65261e-14 -8.11643e-14 -6.47684e-12)
(3.18908e-14 -7.62534e-14 -6.11417e-12)
(1.89017e-14 -7.17826e-14 -5.77643e-12)
(7.4262e-15 -5.09616e-14 -5.46635e-12)
(1.95034e-13 3.87919e-13 -1.18643e-11)
(1.94673e-13 3.33658e-13 -1.08371e-11)
(1.5571e-13 -1.7777e-13 -9.90759e-12)
(1.22506e-13 -1.65803e-13 -9.07096e-12)
(9.45457e-14 -1.50551e-13 -8.31973e-12)
(7.08754e-14 -1.37049e-13 -7.64286e-12)
(5.09755e-14 -1.25081e-13 -7.03177e-12)
(3.39633e-14 -1.14392e-13 -6.47918e-12)
(1.96384e-14 -1.04511e-13 -5.97854e-12)
(7.58889e-15 -7.26917e-14 -5.53156e-12)
(2.70477e-13 3.50167e-13 -1.53589e-11)
(2.53007e-13 2.61871e-13 -1.35843e-11)
(1.94881e-13 -2.89547e-13 -1.20423e-11)
(1.47887e-13 -2.58448e-13 -1.07035e-11)
(1.10375e-13 -2.26751e-13 -9.54238e-12)
(8.02537e-14 -1.99902e-13 -8.53049e-12)
(5.59553e-14 -1.77183e-13 -7.64617e-12)
(3.63357e-14 -1.57697e-13 -6.87139e-12)
(2.04588e-14 -1.40291e-13 -6.18955e-12)
(7.67125e-15 -9.54405e-14 -5.59798e-12)
(3.84546e-13 2.66732e-13 -2.01736e-11)
(3.35564e-13 1.2969e-13 -1.72191e-11)
(2.47408e-13 -4.52831e-13 -1.47603e-11)
(1.80292e-13 -3.86346e-13 -1.27062e-11)
(1.29741e-13 -3.26761e-13 -1.09899e-11)
(9.11585e-14 -2.78618e-13 -9.54664e-12)
(6.15978e-14 -2.39202e-13 -8.32764e-12)
(3.88569e-14 -2.06547e-13 -7.29279e-12)
(2.13108e-14 -1.78882e-13 -6.40958e-12)
(7.76315e-15 -1.19158e-13 -5.66543e-12)
(5.60791e-13 1.03174e-13 -2.69065e-11)
(4.53314e-13 -1.04747e-13 -2.20979e-11)
(3.17699e-13 -6.95267e-13 -1.82535e-11)
(2.20994e-13 -5.65082e-13 -1.51817e-11)
(1.52396e-13 -4.58641e-13 -1.27131e-11)
(1.02932e-13 -3.76919e-13 -1.07141e-11)
(6.69549e-14 -3.12894e-13 -9.08412e-12)
(4.06432e-14 -2.62138e-13 -7.74594e-12)
(2.12771e-14 -2.2086e-13 -6.63966e-12)
(6.95632e-15 -1.43878e-13 -5.73388e-12)
(-2.5143e-12 -2.04603e-13 -3.65205e-11)
(-2.74929e-12 -5.16063e-13 -2.87376e-11)
(-2.78467e-12 -1.05878e-12 -2.27997e-11)
(-2.76049e-12 -8.16448e-13 -1.82706e-11)
(-2.7044e-12 -6.33455e-13 -1.47821e-11)
(-2.63099e-12 -5.00279e-13 -1.2067e-11)
(-2.54919e-12 -4.00636e-13 -9.93312e-12)
(-2.46423e-12 -3.2485e-13 -8.24067e-12)
(-2.37959e-12 -2.66106e-13 -6.88542e-12)
(-2.33759e-12 -1.69655e-13 -5.80953e-12)
(-5.87203e-09 -1.41471e-12 -8.74143e-11)
(-5.94544e-09 -1.30276e-12 -7.09189e-11)
(-5.60522e-09 -1.15371e-12 -5.81389e-11)
(-5.29521e-09 -7.42982e-13 -4.83828e-11)
(-5.01479e-09 -4.72401e-13 -4.08281e-11)
(-4.76049e-09 -2.92529e-13 -3.48792e-11)
(-4.52919e-09 -1.7116e-13 -3.01262e-11)
(-4.31816e-09 -8.89832e-14 -2.62779e-11)
(-4.12552e-09 -1.39835e-13 -2.31234e-11)
(-4.04529e-09 -2.92498e-13 -2.07943e-11)
(6.41724e-07 -1.43913e-09 -6.9004e-08)
(3.50326e-08 -2.85215e-10 -6.06356e-08)
(2.7072e-08 8.15468e-10 -5.33559e-08)
(2.24018e-08 7.49629e-10 -4.7245e-08)
(1.84341e-08 6.82213e-10 -4.20779e-08)
(1.5032e-08 6.21663e-10 -3.76814e-08)
(1.20933e-08 5.6765e-10 -3.39163e-08)
(9.5361e-09 5.18258e-10 -3.06718e-08)
(6.83383e-09 2.18553e-10 -2.78624e-08)
(-1.12959e-07 -2.70235e-10 -2.6043e-08)
(2.55441e-13 3.65097e-13 -6.31519e-12)
(2.39859e-13 3.44644e-13 -6.24264e-12)
(2.10602e-13 -5.00181e-14 -6.17043e-12)
(1.82379e-13 -5.35229e-14 -6.09897e-12)
(1.55278e-13 -5.29888e-14 -6.02888e-12)
(1.29132e-13 -5.22975e-14 -5.95991e-12)
(1.03971e-13 -5.18047e-14 -5.89074e-12)
(7.9813e-14 -5.11986e-14 -5.82382e-12)
(5.63904e-14 -5.00359e-14 -5.75758e-12)
(3.43847e-14 -2.90851e-14 -5.69305e-12)
(5.10358e-13 3.19881e-13 -7.93121e-12)
(4.7153e-13 2.35568e-13 -7.64863e-12)
(4.04567e-13 -1.91075e-13 -7.37367e-12)
(3.41891e-13 -1.8835e-13 -7.1118e-12)
(2.83395e-13 -1.81872e-13 -6.86173e-12)
(2.2882e-13 -1.75607e-13 -6.62161e-12)
(1.77886e-13 -1.69481e-13 -6.39238e-12)
(1.30268e-13 -1.63955e-13 -6.1721e-12)
(8.57359e-14 -1.56812e-13 -5.96125e-12)
(4.47906e-14 -8.92308e-14 -5.76242e-12)
(6.24444e-13 2.39236e-13 -1.00902e-11)
(5.56726e-13 6.56371e-14 -9.46611e-12)
(4.6141e-13 -3.88559e-13 -8.88297e-12)
(3.75586e-13 -3.69554e-13 -8.34257e-12)
(2.99094e-13 -3.47552e-13 -7.84244e-12)
(2.30785e-13 -3.26896e-13 -7.37827e-12)
(1.69698e-13 -3.08109e-13 -6.94827e-12)
(1.1507e-13 -2.90704e-13 -6.54759e-12)
(6.63447e-14 -2.72097e-13 -6.17478e-12)
(2.33106e-14 -1.52636e-13 -5.83402e-12)
(8.08912e-13 1.03276e-13 -1.30119e-11)
(6.9604e-13 -1.94096e-13 -1.18405e-11)
(5.60133e-13 -6.64327e-13 -1.07881e-11)
(4.42948e-13 -6.1181e-13 -9.84412e-12)
(3.4316e-13 -5.59236e-13 -9.00065e-12)
(2.57734e-13 -5.12522e-13 -8.24405e-12)
(1.84665e-13 -4.70559e-13 -7.56437e-12)
(1.22199e-13 -4.32723e-13 -6.95217e-12)
(6.86867e-14 -3.95322e-13 -6.39798e-12)
(2.36943e-14 -2.18354e-13 -5.90554e-12)
(1.06398e-12 -1.20028e-13 -1.70361e-11)
(8.80734e-13 -5.89213e-13 -1.49841e-11)
(6.86003e-13 -1.04959e-12 -1.32164e-11)
(5.25968e-13 -9.35347e-13 -1.16907e-11)
(3.95492e-13 -8.30017e-13 -1.03763e-11)
(2.88794e-13 -7.39395e-13 -9.23847e-12)
(2.01478e-13 -6.60597e-13 -8.24934e-12)
(1.29951e-13 -5.92155e-13 -7.38695e-12)
(7.12574e-14 -5.28011e-13 -6.63148e-12)
(2.40225e-14 -2.86982e-13 -5.97939e-12)
(1.42191e-12 -4.80574e-13 -2.26818e-11)
(1.13014e-12 -1.18774e-12 -1.92034e-11)
(8.48477e-13 -1.59045e-12 -1.63461e-11)
(6.28884e-13 -1.36888e-12 -1.39774e-11)
(4.58058e-13 -1.17665e-12 -1.20174e-11)
(3.24597e-13 -1.01712e-12 -1.0383e-11)
(2.20134e-13 -8.83393e-13 -9.01306e-12)
(1.382e-13 -7.70982e-13 -7.85716e-12)
(7.39749e-14 -6.70369e-13 -6.87667e-12)
(2.43248e-14 -3.58225e-13 -6.055e-12)
(1.93681e-12 -1.05538e-12 -3.07494e-11)
(1.47053e-12 -2.0948e-12 -2.49664e-11)
(1.06016e-12 -2.35719e-12 -2.0425e-11)
(7.57203e-13 -1.95184e-12 -1.68337e-11)
(5.32972e-13 -1.62144e-12 -1.39875e-11)
(3.65892e-13 -1.35766e-12 -1.17067e-11)
(2.40838e-13 -1.14463e-12 -9.86412e-12)
(1.47112e-13 -9.71527e-13 -8.36476e-12)
(7.67065e-14 -8.23451e-13 -7.13246e-12)
(2.46571e-14 -4.3277e-13 -6.13217e-12)
(2.64176e-12 -1.98974e-12 -4.25735e-11)
(1.74396e-12 -3.4868e-12 -3.29734e-11)
(1.16467e-12 -3.44919e-12 -2.58188e-11)
(7.63603e-13 -2.74005e-12 -2.04445e-11)
(4.83405e-13 -2.19343e-12 -1.63757e-11)
(2.85723e-13 -1.77556e-12 -1.32514e-11)
(1.45434e-13 -1.45108e-12 -1.08258e-11)
(4.56547e-14 -1.1967e-12 -8.92032e-12)
(-2.55133e-14 -9.87842e-13 -7.40705e-12)
(-7.58499e-14 -5.10035e-13 -6.21682e-12)
(-2.0408e-10 -4.62912e-12 -9.97994e-11)
(-5.09163e-10 -6.58791e-12 -7.9439e-11)
(-4.20086e-10 -5.46085e-12 -6.41188e-11)
(-3.47978e-10 -4.21182e-12 -5.26918e-11)
(-2.91324e-10 -3.29989e-12 -4.40323e-11)
(-2.46188e-10 -2.6281e-12 -3.73296e-11)
(-2.09835e-10 -2.12296e-12 -3.20501e-11)
(-1.80258e-10 -1.73784e-12 -2.7826e-11)
(-1.56005e-10 -1.43321e-12 -2.43958e-11)
(-1.38013e-10 -8.55441e-13 -2.18702e-11)
(4.44342e-07 -2.40385e-09 -7.5852e-08)
(-8.40988e-09 -1.90208e-09 -6.61257e-08)
(-9.50885e-09 -7.40483e-10 -5.75333e-08)
(-8.86972e-09 -6.76971e-10 -5.04701e-08)
(-8.25525e-09 -6.25286e-10 -4.46051e-08)
(-7.68808e-09 -5.76661e-10 -3.96881e-08)
(-7.17279e-09 -5.31875e-10 -3.55289e-08)
(-6.7097e-09 -4.91058e-10 -3.1982e-08)
(-6.33001e-09 -4.59549e-10 -2.89378e-08)
(-9.08653e-09 -4.82777e-10 -2.69479e-08)
(2.31731e-13 3.68703e-13 -4.25929e-13)
(2.18598e-13 3.46019e-13 -4.18514e-13)
(1.91639e-13 -4.88793e-14 -4.10994e-13)
(1.65951e-13 -5.24025e-14 -4.03419e-13)
(1.41328e-13 -5.14826e-14 -3.96138e-13)
(1.17575e-13 -5.10766e-14 -3.89141e-13)
(9.51256e-14 -5.06208e-14 -3.82027e-13)
(7.3421e-14 -4.97703e-14 -3.75726e-13)
(5.26455e-14 -4.89008e-14 -3.69259e-13)
(3.31928e-14 -2.57631e-14 -3.62934e-13)
(5.03664e-13 3.32874e-13 -5.90518e-13)
(4.6484e-13 2.38943e-13 -5.60382e-13)
(3.98305e-13 -1.878e-13 -5.30817e-13)
(3.3606e-13 -1.84674e-13 -5.03059e-13)
(2.78263e-13 -1.78211e-13 -4.77609e-13)
(2.2442e-13 -1.71681e-13 -4.53848e-13)
(1.74477e-13 -1.65465e-13 -4.30506e-13)
(1.27803e-13 -1.59855e-13 -4.08769e-13)
(8.42351e-14 -1.52753e-13 -3.89668e-13)
(4.45452e-14 -7.96617e-14 -3.70025e-13)
(6.22987e-13 2.63884e-13 -8.35173e-13)
(5.53564e-13 6.88268e-14 -7.60838e-13)
(4.57584e-13 -3.84704e-13 -6.94591e-13)
(3.71327e-13 -3.65151e-13 -6.33959e-13)
(2.94871e-13 -3.42124e-13 -5.79998e-13)
(2.27004e-13 -3.21052e-13 -5.3068e-13)
(1.66556e-13 -3.01795e-13 -4.86549e-13)
(1.12887e-13 -2.84301e-13 -4.46877e-13)
(6.4863e-14 -2.65191e-13 -4.10128e-13)
(2.30123e-14 -1.36045e-13 -3.78297e-13)
(8.17293e-13 1.43815e-13 -1.20196e-12)
(6.99549e-13 -1.95943e-13 -1.05013e-12)
(5.60422e-13 -6.63347e-13 -9.19284e-13)
(4.41334e-13 -6.088e-13 -8.05431e-13)
(3.40473e-13 -5.54096e-13 -7.08079e-13)
(2.54853e-13 -5.05649e-13 -6.24264e-13)
(1.82016e-13 -4.62347e-13 -5.52039e-13)
(1.2009e-13 -4.24323e-13 -4.89324e-13)
(6.73976e-14 -3.864e-13 -4.34152e-13)
(2.33883e-14 -1.95488e-13 -3.86461e-13)
(1.09107e-12 -5.96433e-14 -1.76856e-12)
(8.95562e-13 -6.05903e-13 -1.47284e-12)
(6.9334e-13 -1.0584e-12 -1.23289e-12)
(5.28257e-13 -9.38334e-13 -1.03433e-12)
(3.9506e-13 -8.27703e-13 -8.71671e-13)
(2.87109e-13 -7.33401e-13 -7.38446e-13)
(1.99467e-13 -6.52315e-13 -6.28308e-13)
(1.28129e-13 -5.82314e-13 -5.36773e-13)
(7.02376e-14 -5.16536e-13 -4.59903e-13)
(2.39638e-14 -2.5708e-13 -3.96722e-13)
(1.48283e-12 -3.98456e-13 -2.66467e-12)
(1.16466e-12 -1.23962e-12 -2.1035e-12)
(8.67136e-13 -1.6215e-12 -1.67641e-12)
(6.37067e-13 -1.38582e-12 -1.33977e-12)
(4.6079e-13 -1.18179e-12 -1.08088e-12)
(3.2443e-13 -1.01445e-12 -8.78036e-13)
(2.18835e-13 -8.75729e-13 -7.18548e-13)
(1.36943e-13 -7.6025e-13 -5.91685e-13)
(7.30741e-14 -6.57041e-13 -4.87931e-13)
(2.44271e-14 -3.22322e-13 -4.07328e-13)
(2.05905e-12 -9.52017e-13 -4.11642e-12)
(1.53911e-12 -2.21994e-12 -3.06321e-12)
(1.09708e-12 -2.43402e-12 -2.31112e-12)
(7.74968e-13 -1.99622e-12 -1.75399e-12)
(5.40486e-13 -1.64107e-12 -1.34953e-12)
(3.68075e-13 -1.3625e-12 -1.04897e-12)
(2.40732e-13 -1.13961e-12 -8.23925e-13)
(1.46311e-13 -9.61044e-13 -6.52721e-13)
(7.5977e-14 -8.08755e-13 -5.19345e-13)
(2.48526e-14 -3.90187e-13 -4.19589e-13)
(3.1046e-12 -1.87639e-12 -6.54648e-12)
(2.07465e-12 -3.75874e-12 -4.55822e-12)
(1.40733e-12 -3.61239e-12 -3.23839e-12)
(9.51322e-13 -2.8338e-12 -2.32407e-12)
(6.37187e-13 -2.23964e-12 -1.69996e-12)
(4.18078e-13 -1.79335e-12 -1.26148e-12)
(2.63944e-13 -1.45177e-12 -9.48923e-13)
(1.54943e-13 -1.18808e-12 -7.21885e-13)
(7.7529e-14 -9.72396e-13 -5.54692e-13)
(2.35888e-14 -4.61494e-13 -4.32307e-13)
(3.57488e-10 -3.98766e-12 -1.33492e-11)
(-1.76361e-11 -6.72837e-12 -9.04641e-12)
(-1.46357e-11 -5.41549e-12 -6.31377e-12)
(-1.06526e-11 -4.0458e-12 -4.53149e-12)
(-7.92384e-12 -3.06704e-12 -3.3588e-12)
(-6.0036e-12 -2.36695e-12 -2.56231e-12)
(-4.62625e-12 -1.85373e-12 -2.00778e-12)
(-3.62169e-12 -1.47261e-12 -1.61284e-12)
(-2.87637e-12 -1.17465e-12 -1.32386e-12)
(-2.30694e-12 -5.59652e-13 -1.11828e-12)
(3.85025e-07 -1.32114e-09 -7.35686e-09)
(7.84728e-10 -1.19287e-09 -5.74196e-09)
(-5.7038e-10 -1.52522e-10 -4.34228e-09)
(-4.67451e-10 -1.13592e-10 -3.33529e-09)
(-3.81296e-10 -9.0115e-11 -2.60283e-09)
(-3.14542e-10 -7.22577e-11 -2.05968e-09)
(-2.61836e-10 -5.85478e-11 -1.65049e-09)
(-2.19936e-10 -4.79009e-11 -1.33774e-09)
(-1.87688e-10 -3.95198e-11 -1.0958e-09)
(-2.14191e-10 -3.42354e-11 -9.20164e-10)
(2.26805e-13 3.69285e-13 -1.89017e-14)
(2.14218e-13 3.46222e-13 -1.80058e-14)
(1.87829e-13 -4.8603e-14 -1.56934e-14)
(1.62587e-13 -5.2117e-14 -1.46502e-14)
(1.38561e-13 -5.14542e-14 -1.30519e-14)
(1.15528e-13 -5.08002e-14 -1.19787e-14)
(9.3397e-14 -5.01303e-14 -1.08322e-14)
(7.22127e-14 -4.93617e-14 -9.5797e-15)
(5.20344e-14 -4.83026e-14 -9.1001e-15)
(3.3016e-14 -2.51798e-14 -9.19826e-15)
(4.98038e-13 3.35563e-13 -2.87065e-14)
(4.60034e-13 2.4089e-13 -2.58429e-14)
(3.94244e-13 -1.86093e-13 -2.35899e-14)
(3.3274e-13 -1.82968e-13 -2.05143e-14)
(2.75613e-13 -1.76068e-13 -1.78101e-14)
(2.22398e-13 -1.70058e-13 -1.62741e-14)
(1.72983e-13 -1.64151e-13 -1.40489e-14)
(1.26865e-13 -1.57929e-13 -1.25266e-14)
(8.37788e-14 -1.50883e-13 -1.13889e-14)
(4.45172e-14 -7.7657e-14 -1.05586e-14)
(6.15525e-13 2.70443e-13 -4.58119e-14)
(5.47587e-13 7.33593e-14 -4.06132e-14)
(4.52668e-13 -3.80381e-13 -3.48647e-14)
(3.67447e-13 -3.61e-13 -2.98236e-14)
(2.91874e-13 -3.38601e-13 -2.58533e-14)
(2.24711e-13 -3.17731e-13 -2.21782e-14)
(1.65111e-13 -2.9847e-13 -1.87408e-14)
(1.12023e-13 -2.81189e-13 -1.65444e-14)
(6.45771e-14 -2.62249e-13 -1.44848e-14)
(2.3164e-14 -1.32661e-13 -1.34506e-14)
(8.07565e-13 1.57096e-13 -7.47362e-14)
(6.91873e-13 -1.87041e-13 -6.46894e-14)
(5.54536e-13 -6.55906e-13 -5.40741e-14)
(4.36775e-13 -6.01972e-13 -4.49408e-14)
(3.37092e-13 -5.47784e-13 -3.74072e-14)
(2.52511e-13 -4.99992e-13 -3.17782e-14)
(1.80563e-13 -4.57343e-13 -2.64681e-14)
(1.1939e-13 -4.19432e-13 -2.22366e-14)
(6.7346e-14 -3.81968e-13 -1.9603e-14)
(2.38112e-14 -1.91236e-13 -1.70181e-14)
(1.07837e-12 -3.58775e-14 -1.27386e-13)
(8.85988e-13 -5.91038e-13 -1.05081e-13)
(6.86259e-13 -1.04574e-12 -8.46111e-14)
(5.2306e-13 -9.27593e-13 -6.76995e-14)
(3.91475e-13 -8.18453e-13 -5.49981e-14)
(2.84739e-13 -7.25135e-13 -4.43171e-14)
(1.98137e-13 -6.44806e-13 -3.63589e-14)
(1.27733e-13 -5.75718e-13 -3.13282e-14)
(7.01311e-14 -5.10869e-13 -2.73146e-14)
(2.44748e-14 -2.51606e-13 -2.29469e-14)
(1.46601e-12 -3.55965e-13 -2.21458e-13)
(1.15264e-12 -1.21575e-12 -1.72556e-13)
(8.58544e-13 -1.60247e-12 -1.33962e-13)
(6.31213e-13 -1.37002e-12 -1.03238e-13)
(4.56951e-13 -1.16834e-12 -8.10036e-14)
(3.22157e-13 -1.00318e-12 -6.46176e-14)
(2.17769e-13 -8.65889e-13 -5.18544e-14)
(1.36603e-13 -7.52496e-13 -4.26866e-14)
(7.32733e-14 -6.50522e-13 -3.45067e-14)
(2.50405e-14 -3.15418e-13 -2.93188e-14)
(2.03717e-12 -8.77696e-13 -3.89311e-13)
(1.52369e-12 -2.18349e-12 -2.87557e-13)
(1.08681e-12 -2.40538e-12 -2.10574e-13)
(7.68338e-13 -1.97368e-12 -1.57272e-13)
(5.36456e-13 -1.62306e-12 -1.18536e-13)
(3.65922e-13 -1.34758e-12 -9.12926e-14)
(2.39741e-13 -1.12759e-12 -7.16471e-14)
(1.46084e-13 -9.51628e-13 -5.71986e-14)
(7.66562e-14 -8.01031e-13 -4.61254e-14)
(2.56522e-14 -3.82677e-13 -3.75277e-14)
(3.08112e-12 -1.74731e-12 -7.02558e-13)
(2.05332e-12 -3.70489e-12 -4.80297e-13)
(1.39385e-12 -3.57103e-12 -3.34271e-13)
(9.43682e-13 -2.80294e-12 -2.36435e-13)
(6.33539e-13 -2.21554e-12 -1.72172e-13)
(4.17079e-13 -1.77506e-12 -1.27827e-13)
(2.64559e-13 -1.4377e-12 -9.65653e-14)
(1.56675e-13 -1.17669e-12 -7.48329e-14)
(7.99777e-14 -9.6383e-13 -5.96288e-14)
(2.64634e-14 -4.53273e-13 -4.74071e-14)
(3.9914e-10 -3.69788e-12 -1.458e-12)
(4.8685e-12 -6.59447e-12 -7.90948e-13)
(1.343e-12 -5.29446e-12 -5.18469e-13)
(8.697e-13 -3.95183e-12 -3.56558e-13)
(5.60732e-13 -2.9929e-12 -2.5317e-13)
(3.49572e-13 -2.30746e-12 -1.86247e-13)
(2.05772e-13 -1.80522e-12 -1.40645e-13)
(1.07584e-13 -1.43226e-12 -1.09198e-13)
(4.04285e-14 -1.14031e-12 -8.66427e-14)
(-3.59886e-15 -5.27799e-13 -7.06771e-14)
(3.82372e-07 -1.13491e-09 -7.8385e-10)
(1.48917e-09 -1.05348e-09 -2.63602e-10)
(-1.79256e-11 -2.36753e-11 -1.70282e-10)
(-1.56327e-11 -1.13143e-11 -1.13493e-10)
(-1.11821e-11 -7.99906e-12 -7.7675e-11)
(-8.17686e-12 -5.79692e-12 -5.43429e-11)
(-6.08218e-12 -4.278e-12 -3.8786e-11)
(-4.59765e-12 -3.21373e-12 -2.81984e-11)
(-3.55852e-12 -2.4405e-12 -2.08447e-11)
(-3.43289e-12 -1.46245e-12 -1.56001e-11)
(2.27023e-13 3.69184e-13 -1.13273e-14)
(2.14338e-13 3.45601e-13 -1.02014e-14)
(1.88071e-13 -4.93639e-14 -7.73229e-15)
(1.62759e-13 -5.26199e-14 -5.59442e-15)
(1.38654e-13 -5.17279e-14 -4.41249e-15)
(1.1549e-13 -5.1156e-14 -3.29082e-15)
(9.3525e-14 -5.07885e-14 -2.61789e-15)
(7.23968e-14 -4.9685e-14 -1.56408e-15)
(5.2122e-14 -4.82888e-14 -4.83722e-16)
(3.31156e-14 -2.54076e-14 -4.77625e-16)
(4.98776e-13 3.35271e-13 -1.63007e-14)
(4.60677e-13 2.40406e-13 -1.45139e-14)
(3.94855e-13 -1.86587e-13 -1.12636e-14)
(3.33159e-13 -1.83814e-13 -9.58831e-15)
(2.76005e-13 -1.76905e-13 -6.56743e-15)
(2.22701e-13 -1.7034e-13 -4.78286e-15)
(1.73281e-13 -1.64275e-13 -4.1772e-15)
(1.27242e-13 -1.58386e-13 -3.56091e-15)
(8.41289e-14 -1.51128e-13 -2.50235e-15)
(4.4903e-14 -7.76356e-14 -1.5075e-15)
(6.16883e-13 2.70158e-13 -2.67304e-14)
(5.48858e-13 7.25315e-14 -2.37397e-14)
(4.53714e-13 -3.81626e-13 -1.93171e-14)
(3.68336e-13 -3.62048e-13 -1.52192e-14)
(2.92683e-13 -3.39087e-13 -1.22323e-14)
(2.25503e-13 -3.1834e-13 -9.74078e-15)
(1.65707e-13 -2.98992e-13 -7.82982e-15)
(1.12578e-13 -2.81394e-13 -6.57017e-15)
(6.51376e-14 -2.6223e-13 -6.02271e-15)
(2.37027e-14 -1.32795e-13 -5.39326e-15)
(8.10003e-13 1.56646e-13 -4.57952e-14)
(6.94161e-13 -1.88326e-13 -3.99665e-14)
(5.56402e-13 -6.57353e-13 -3.32113e-14)
(4.38397e-13 -6.03422e-13 -2.70655e-14)
(3.38492e-13 -5.4891e-13 -2.20569e-14)
(2.53639e-13 -5.00904e-13 -1.81152e-14)
(1.81573e-13 -4.58174e-13 -1.53758e-14)
(1.20371e-13 -4.20075e-13 -1.30684e-14)
(6.83103e-14 -3.82336e-13 -1.12449e-14)
(2.45389e-14 -1.90944e-13 -1.06168e-14)
(1.08273e-12 -3.64074e-14 -8.03747e-14)
(8.89713e-13 -5.9351e-13 -6.96517e-14)
(6.89357e-13 -1.04885e-12 -5.64886e-14)
(5.25614e-13 -9.30007e-13 -4.56699e-14)
(3.93621e-13 -8.2041e-13 -3.79867e-14)
(2.86583e-13 -7.2699e-13 -3.12787e-14)
(1.99713e-13 -6.45927e-13 -2.55976e-14)
(1.29061e-13 -5.7621e-13 -2.2239e-14)
(7.14107e-14 -5.11643e-13 -1.9514e-14)
(2.55352e-14 -2.52164e-13 -1.68033e-14)
(1.47331e-12 -3.5793e-13 -1.42257e-13)
(1.15876e-12 -1.22084e-12 -1.18409e-13)
(8.63385e-13 -1.6073e-12 -9.46106e-14)
(6.35212e-13 -1.37438e-12 -7.56911e-14)
(4.60143e-13 -1.17173e-12 -6.11354e-14)
(3.24863e-13 -1.00596e-12 -5.07946e-14)
(2.19991e-13 -8.68346e-13 -4.10723e-14)
(1.3845e-13 -7.54168e-13 -3.44527e-14)
(7.47702e-14 -6.51904e-13 -3.00097e-14)
(2.63401e-14 -3.16186e-13 -2.54791e-14)
(2.04941e-12 -8.81152e-13 -2.52947e-13)
(1.53367e-12 -2.19364e-12 -2.03148e-13)
(1.09425e-12 -2.41493e-12 -1.5669e-13)
(7.74109e-13 -1.98118e-12 -1.21504e-13)
(5.41043e-13 -1.62914e-12 -9.68411e-14)
(3.69462e-13 -1.35258e-12 -7.73511e-14)
(2.42634e-13 -1.13145e-12 -6.23288e-14)
(1.485e-13 -9.54513e-13 -5.14673e-14)
(7.85412e-14 -8.03703e-13 -4.31705e-14)
(2.72935e-14 -3.84133e-13 -3.62887e-14)
(3.11179e-12 -1.75445e-12 -4.53241e-13)
(2.06871e-12 -3.72523e-12 -3.45546e-13)
(1.40512e-12 -3.58848e-12 -2.5433e-13)
(9.52249e-13 -2.81621e-12 -1.91586e-13)
(6.40021e-13 -2.22604e-12 -1.4712e-13)
(4.22046e-13 -1.78324e-12 -1.14659e-13)
(2.68431e-13 -1.444e-12 -9.08103e-14)
(1.59643e-13 -1.18179e-12 -7.29091e-14)
(8.22469e-14 -9.67826e-13 -5.93935e-14)
(2.82945e-14 -4.55604e-13 -4.99323e-14)
(4.21666e-10 -3.74589e-12 -1.0326e-12)
(5.85571e-12 -6.66158e-12 -5.84304e-13)
(1.8197e-12 -5.32528e-12 -4.10384e-13)
(1.1698e-12 -3.97441e-12 -2.97712e-13)
(7.53138e-13 -3.01008e-12 -2.20344e-13)
(4.77211e-13 -2.32043e-12 -1.66433e-13)
(2.92428e-13 -1.81503e-12 -1.27081e-13)
(1.67701e-13 -1.43981e-12 -9.98158e-14)
(8.27141e-14 -1.14622e-12 -7.89974e-14)
(2.61461e-14 -5.30774e-13 -6.39409e-14)
(4.05637e-07 -1.19652e-09 -6.05253e-10)
(1.68285e-09 -1.09688e-09 -1.47853e-11)
(5.39286e-12 -1.61312e-11 -5.51587e-12)
(7.16539e-13 -5.80625e-12 -3.2607e-12)
(4.86419e-13 -4.15569e-12 -1.98823e-12)
(3.36338e-13 -3.06098e-12 -1.26318e-12)
(2.28648e-13 -2.29995e-12 -8.28076e-13)
(1.52399e-13 -1.76093e-12 -5.58279e-13)
(9.77862e-14 -1.3586e-12 -3.84235e-13)
(5.39004e-14 -6.23716e-13 -2.68342e-13)
(2.27532e-13 3.68841e-13 -1.38267e-14)
(2.148e-13 3.44824e-13 -1.16237e-14)
(1.88311e-13 -5.03973e-14 -9.70297e-15)
(1.6309e-13 -5.34022e-14 -6.71306e-15)
(1.38804e-13 -5.23411e-14 -5.14605e-15)
(1.15663e-13 -5.14812e-14 -2.96137e-15)
(9.35616e-14 -5.07877e-14 -2.12927e-15)
(7.24674e-14 -5.01852e-14 -1.40694e-15)
(5.23133e-14 -4.87093e-14 -7.22522e-16)
(3.31653e-14 -2.51676e-14 -1.14337e-15)
(5.00086e-13 3.34887e-13 -2.02034e-14)
(4.61856e-13 2.39036e-13 -1.79827e-14)
(3.95736e-13 -1.87865e-13 -1.29468e-14)
(3.34003e-13 -1.84681e-13 -1.05771e-14)
(2.76641e-13 -1.77831e-13 -8.05627e-15)
(2.23243e-13 -1.70891e-13 -5.79676e-15)
(1.73678e-13 -1.6454e-13 -4.26115e-15)
(1.27564e-13 -1.58505e-13 -3.41171e-15)
(8.4593e-14 -1.51628e-13 -3.21802e-15)
(4.52614e-14 -7.80679e-14 -2.60108e-15)
(6.1927e-13 2.69354e-13 -3.23595e-14)
(5.50894e-13 7.07999e-14 -2.87836e-14)
(4.55546e-13 -3.83347e-13 -2.31013e-14)
(3.69764e-13 -3.63484e-13 -1.87833e-14)
(2.93955e-13 -3.40502e-13 -1.44961e-14)
(2.26535e-13 -3.19251e-13 -1.13489e-14)
(1.6668e-13 -2.99561e-13 -9.3149e-15)
(1.13394e-13 -2.81788e-13 -8.35218e-15)
(6.58738e-14 -2.62624e-13 -7.3568e-15)
(2.45484e-14 -1.33214e-13 -6.48591e-15)
(8.14127e-13 1.54946e-13 -5.62988e-14)
(6.97621e-13 -1.91176e-13 -4.84941e-14)
(5.59303e-13 -6.60224e-13 -3.9858e-14)
(4.40772e-13 -6.05762e-13 -3.2338e-14)
(3.40549e-13 -5.5086e-13 -2.62094e-14)
(2.55463e-13 -5.02285e-13 -2.11545e-14)
(1.83074e-13 -4.59118e-13 -1.81752e-14)
(1.2167e-13 -4.20941e-13 -1.60666e-14)
(6.93554e-14 -3.82872e-13 -1.44598e-14)
(2.55482e-14 -1.9128e-13 -1.25196e-14)
(1.08956e-12 -3.98142e-14 -9.86398e-14)
(8.95446e-13 -5.98602e-13 -8.37398e-14)
(6.93926e-13 -1.05357e-12 -6.84254e-14)
(5.29344e-13 -9.33825e-13 -5.57416e-14)
(3.96697e-13 -8.23474e-13 -4.62571e-14)
(2.89247e-13 -7.29627e-13 -3.87108e-14)
(2.01774e-13 -6.48156e-13 -3.18523e-14)
(1.30833e-13 -5.78027e-13 -2.71527e-14)
(7.29136e-14 -5.12945e-13 -2.29383e-14)
(2.67364e-14 -2.52804e-13 -2.07444e-14)
(1.48474e-12 -3.64277e-13 -1.72225e-13)
(1.16802e-12 -1.23027e-12 -1.44161e-13)
(8.7061e-13 -1.61598e-12 -1.14504e-13)
(6.40747e-13 -1.38108e-12 -9.13118e-14)
(4.64653e-13 -1.17696e-12 -7.44719e-14)
(3.28423e-13 -1.01048e-12 -6.18594e-14)
(2.22921e-13 -8.7202e-13 -5.05045e-14)
(1.40819e-13 -7.56822e-13 -4.21299e-14)
(7.67856e-14 -6.54224e-13 -3.61839e-14)
(2.80052e-14 -3.17448e-13 -3.1621e-14)
(2.06871e-12 -8.94329e-13 -3.05108e-13)
(1.54846e-12 -2.21124e-12 -2.44335e-13)
(1.10534e-12 -2.43038e-12 -1.89852e-13)
(7.82508e-13 -1.99307e-12 -1.48143e-13)
(5.4751e-13 -1.6383e-12 -1.18303e-13)
(3.74484e-13 -1.36013e-12 -9.49737e-14)
(2.46661e-13 -1.13749e-12 -7.71026e-14)
(1.51601e-13 -9.59255e-13 -6.24027e-14)
(8.10066e-14 -8.07404e-13 -5.25818e-14)
(2.93699e-14 -3.86208e-13 -4.47182e-14)
(3.15324e-12 -1.78078e-12 -5.43236e-13)
(2.0926e-12 -3.75911e-12 -4.16114e-13)
(1.42201e-12 -3.61615e-12 -3.09688e-13)
(9.64562e-13 -2.83686e-12 -2.34346e-13)
(6.49031e-13 -2.24164e-12 -1.8076e-13)
(4.28835e-13 -1.79548e-12 -1.41869e-13)
(2.73496e-13 -1.45383e-12 -1.12889e-13)
(1.63579e-13 -1.18938e-12 -8.92295e-14)
(8.52642e-14 -9.73594e-13 -7.24773e-14)
(3.06661e-14 -4.58758e-13 -6.07953e-14)
(4.4883e-10 -3.79964e-12 -9.25231e-13)
(6.16843e-12 -6.74923e-12 -7.04932e-13)
(1.85826e-12 -5.37522e-12 -5.03202e-13)
(1.19375e-12 -4.00997e-12 -3.65035e-13)
(7.69181e-13 -3.03619e-12 -2.71532e-13)
(4.88288e-13 -2.34029e-12 -2.0541e-13)
(3.00335e-13 -1.83008e-12 -1.57639e-13)
(1.73428e-13 -1.45116e-12 -1.2266e-13)
(8.68797e-14 -1.15511e-12 -9.73906e-14)
(2.92173e-14 -5.35775e-13 -7.90137e-14)
(4.42724e-07 -1.25808e-09 -4.06111e-10)
(1.82621e-09 -1.16644e-09 -1.88161e-12)
(6.8704e-12 -1.65554e-11 -9.23573e-13)
(1.17334e-12 -5.68245e-12 -6.23498e-13)
(7.7477e-13 -4.08484e-12 -4.33122e-13)
(5.2011e-13 -3.02075e-12 -3.10722e-13)
(3.49929e-13 -2.27723e-12 -2.28812e-13)
(2.34172e-13 -1.74824e-12 -1.70712e-13)
(1.54438e-13 -1.35164e-12 -1.3032e-13)
(9.992e-14 -6.17336e-13 -1.02151e-13)
(2.28206e-13 3.68285e-13 -1.60187e-14)
(2.15463e-13 3.43961e-13 -1.4007e-14)
(1.88678e-13 -5.13073e-14 -1.06976e-14)
(1.63434e-13 -5.44282e-14 -8.42822e-15)
(1.39148e-13 -5.32186e-14 -6.30267e-15)
(1.15945e-13 -5.23558e-14 -4.27671e-15)
(9.38536e-14 -5.14061e-14 -2.72128e-15)
(7.27292e-14 -5.02592e-14 -3.60205e-15)
(5.25831e-14 -4.84638e-14 -1.06958e-14)
(3.342e-14 -2.54119e-14 -3.0656e-14)
(5.01682e-13 3.3425e-13 -2.40943e-14)
(4.63307e-13 2.37587e-13 -2.02722e-14)
(3.96917e-13 -1.8946e-13 -1.6176e-14)
(3.34991e-13 -1.85732e-13 -1.27087e-14)
(2.77453e-13 -1.78801e-13 -1.02234e-14)
(2.23993e-13 -1.71855e-13 -7.61874e-15)
(1.74384e-13 -1.65241e-13 -6.17434e-15)
(1.2831e-13 -1.58835e-13 -5.57138e-15)
(8.51777e-14 -1.5156e-13 -8.05121e-15)
(4.57766e-14 -7.851e-14 -2.27962e-14)
(6.22142e-13 2.68388e-13 -3.84606e-14)
(5.53282e-13 6.89718e-14 -3.25785e-14)
(4.57628e-13 -3.85425e-13 -2.61949e-14)
(3.71536e-13 -3.6537e-13 -2.13236e-14)
(2.95372e-13 -3.41989e-13 -1.72041e-14)
(2.27809e-13 -3.20427e-13 -1.43804e-14)
(1.67805e-13 -3.00252e-13 -1.19253e-14)
(1.14509e-13 -2.82288e-13 -1.12097e-14)
(6.68806e-14 -2.63179e-13 -1.27964e-14)
(2.52576e-14 -1.33924e-13 -2.05356e-14)
(8.19108e-13 1.52834e-13 -6.54721e-14)
(7.01754e-13 -1.94501e-13 -5.51543e-14)
(5.62741e-13 -6.63406e-13 -4.52338e-14)
(4.43644e-13 -6.08629e-13 -3.70996e-14)
(3.43068e-13 -5.53285e-13 -3.08086e-14)
(2.57652e-13 -5.04191e-13 -2.64928e-14)
(1.84931e-13 -4.60389e-13 -2.2902e-14)
(1.23206e-13 -4.21772e-13 -2.01136e-14)
(7.07001e-14 -3.84068e-13 -1.97271e-14)
(2.67446e-14 -1.92312e-13 -2.32755e-14)
(1.09782e-12 -4.38269e-14 -1.14768e-13)
(9.02304e-13 -6.0453e-13 -9.53283e-14)
(6.99407e-13 -1.05912e-12 -7.73123e-14)
(5.33759e-13 -9.384e-13 -6.36283e-14)
(4.0043e-13 -8.27098e-13 -5.32952e-14)
(2.92455e-13 -7.32862e-13 -4.55959e-14)
(2.04488e-13 -6.50865e-13 -3.94366e-14)
(1.32969e-13 -5.80194e-13 -3.4264e-14)
(7.47074e-14 -5.14679e-13 -3.02527e-14)
(2.84745e-14 -2.54149e-13 -3.17569e-14)
(1.49864e-12 -3.72148e-13 -2.02346e-13)
(1.17893e-12 -1.24122e-12 -1.63941e-13)
(8.79105e-13 -1.6261e-12 -1.30585e-13)
(6.47574e-13 -1.38925e-12 -1.0597e-13)
(4.70058e-13 -1.18321e-12 -8.68985e-14)
(3.32843e-13 -1.01575e-12 -7.37081e-14)
(2.26563e-13 -8.76698e-13 -6.15188e-14)
(1.43682e-13 -7.60588e-13 -5.22739e-14)
(7.9244e-14 -6.56931e-13 -4.58664e-14)
(3.00173e-14 -3.1947e-13 -4.31897e-14)
(2.09204e-12 -9.10305e-13 -3.56338e-13)
(1.56597e-12 -2.2321e-12 -2.77774e-13)
(1.11848e-12 -2.44798e-12 -2.16572e-13)
(7.92629e-13 -2.00707e-12 -1.71567e-13)
(5.55294e-13 -1.64934e-12 -1.37268e-13)
(3.80582e-13 -1.36909e-12 -1.12692e-13)
(2.51547e-13 -1.14507e-12 -9.19493e-14)
(1.55417e-13 -9.65303e-13 -7.65967e-14)
(8.3993e-14 -8.12042e-13 -6.52469e-14)
(3.17557e-14 -3.89309e-13 -5.80563e-14)
(3.17905e-12 -1.81245e-12 -6.31678e-13)
(2.12039e-12 -3.79857e-12 -4.71425e-13)
(1.4423e-12 -3.64816e-12 -3.54241e-13)
(9.79317e-13 -2.86116e-12 -2.70444e-13)
(6.60012e-13 -2.26021e-12 -2.0996e-13)
(4.37084e-13 -1.80992e-12 -1.67169e-13)
(2.79821e-13 -1.46586e-12 -1.3513e-13)
(1.68408e-13 -1.19928e-12 -1.08166e-13)
(8.8941e-14 -9.81015e-13 -8.92932e-14)
(3.35286e-14 -4.63169e-13 -7.60174e-14)
(4.54927e-10 -3.67382e-12 2.32456e-13)
(5.99873e-12 -6.78643e-12 -7.81281e-13)
(1.88753e-12 -5.43185e-12 -5.7852e-13)
(1.21565e-12 -4.05191e-12 -4.22101e-13)
(7.84715e-13 -3.06734e-12 -3.17129e-13)
(4.99482e-13 -2.36402e-12 -2.43022e-13)
(3.08465e-13 -1.84892e-12 -1.90515e-13)
(1.7937e-13 -1.46558e-12 -1.46914e-13)
(9.12937e-14 -1.16626e-12 -1.19101e-13)
(3.24458e-14 -5.42387e-13 -9.83109e-14)
(4.67239e-07 -1.02057e-09 1.60521e-09)
(1.80415e-09 -1.17939e-09 2.16979e-11)
(5.87657e-12 -1.60748e-11 -8.08997e-13)
(1.19952e-12 -5.7425e-12 -6.5088e-13)
(7.94362e-13 -4.13312e-12 -4.69117e-13)
(5.33508e-13 -3.0566e-12 -3.46096e-13)
(3.59376e-13 -2.30486e-12 -2.61277e-13)
(2.41064e-13 -1.76913e-12 -1.95948e-13)
(1.59285e-13 -1.36753e-12 -1.53235e-13)
(1.03576e-13 -6.26253e-13 -1.22764e-13)
(2.28728e-13 3.68048e-13 -1.36742e-14)
(2.15368e-13 3.42802e-13 -4.61832e-15)
(1.88875e-13 -5.25369e-14 -3.95256e-15)
(1.63683e-13 -5.51184e-14 -5.65395e-15)
(1.39599e-13 -5.40269e-14 -1.13609e-14)
(1.16697e-13 -5.30469e-14 -2.24509e-14)
(9.49401e-14 -5.13702e-14 -4.21435e-14)
(7.504e-14 -4.81869e-14 -1.49769e-13)
(5.72341e-14 -4.25142e-14 -5.79722e-13)
(3.70841e-14 -4.04827e-14 -1.67322e-12)
(5.03021e-13 3.33468e-13 -1.80386e-14)
(4.63657e-13 2.36444e-13 -3.12482e-15)
(3.97522e-13 -1.90494e-13 -4.8413e-15)
(3.35653e-13 -1.86817e-13 -6.15365e-15)
(2.78328e-13 -1.7985e-13 -1.17033e-14)
(2.25168e-13 -1.72832e-13 -2.23373e-14)
(1.75757e-13 -1.66123e-13 -3.78792e-14)
(1.30193e-13 -1.6008e-13 -1.01048e-13)
(8.80399e-14 -1.52926e-13 -3.45042e-13)
(4.70399e-14 -1.05024e-13 -1.0934e-12)
(6.24472e-13 2.67249e-13 -2.97263e-14)
(5.54426e-13 6.731e-14 -7.6962e-15)
(4.58751e-13 -3.86743e-13 -7.41907e-15)
(3.72768e-13 -3.66387e-13 -9.82258e-15)
(2.9683e-13 -3.43038e-13 -1.44372e-14)
(2.29606e-13 -3.21754e-13 -2.53428e-14)
(1.69811e-13 -3.02041e-13 -4.22813e-14)
(1.16625e-13 -2.84222e-13 -7.90637e-14)
(6.966e-14 -2.67705e-13 -2.28982e-13)
(2.6792e-14 -1.62824e-13 -7.17889e-13)
(8.23243e-13 1.51396e-13 -5.18474e-14)
(7.03984e-13 -1.9624e-13 -1.83766e-14)
(5.6489e-13 -6.65091e-13 -1.70192e-14)
(4.45873e-13 -6.10023e-13 -1.92092e-14)