/*--------------------------------*- C++ -*----------------------------------*\
| =========                 |                                                 |
| \\      /  F ield         | OpenFOAM: The Open Source CFD Toolbox           |
|  \\    /   O peration     | Version:  4.1                                   |
|   \\  /    A nd           | Web:      www.OpenFOAM.org                      |
|    \\/     M anipulation  |                                                 |
\*---------------------------------------------------------------------------*/
FoamFile
{
    version     2.0;
    format      ascii;
    class       volVectorField;
    location    "7.96";
    object      U;
}
// * * * * * * * * * * * * * * * * * * * * * * * * * * * * * * * * * * * * * //

dimensions      [0 1 -1 0 0 0 0];

internalField   nonuniform List<vector> 
52500
(
(2.99999 1.39436e-08 -0.00571426)
(2.99998 7.77377e-08 -0.00571442)
(2.99995 2.88458e-07 -0.00571467)
(2.99987 7.41335e-07 -0.00571544)
(2.99971 2.03675e-06 -0.00571685)
(2.99925 4.66189e-06 -0.00572116)
(2.99834 1.20801e-05 -0.00572945)
(2.99555 2.71932e-05 -0.00575282)
(2.99052 6.95912e-05 -0.00580629)
(2.97241 0.000157212 -0.00592248)
(2.93877 0.000404107 -0.00632713)
(2.81651 0.00100793 -0.00696505)
(2.47569 0.00288125 -0.00972032)
(1.67423 0.00731971 -0.0149001)
(0.727544 0.0199591 -0.0180164)
(0.524527 0.020843 -0.0184675)
(0.564712 0.0222151 -0.0185011)
(0.569319 0.0244512 -0.018569)
(0.519863 0.0267245 -0.0187469)
(0.434182 0.0290284 -0.0189291)
(0.348904 0.0317553 -0.0191269)
(0.277753 0.035046 -0.0192973)
(0.206578 0.0385808 -0.0194623)
(0.124874 0.0427731 -0.0196231)
(0.0556338 0.0490116 -0.0197872)
(2.99999 4.26328e-08 -0.00571426)
(2.99998 2.37352e-07 -0.00571442)
(2.99995 8.8115e-07 -0.00571466)
(2.99987 2.26233e-06 -0.00571542)
(2.99971 6.21937e-06 -0.00571682)
(2.99925 1.42217e-05 -0.00572108)
(2.99836 3.69057e-05 -0.00572927)
(2.9956 8.28118e-05 -0.00575235)
(2.99063 0.000213271 -0.00580526)
(2.97268 0.000478382 -0.00591995)
(2.9395 0.00124776 -0.00632134)
(2.81841 0.00308176 -0.00694791)
(2.48138 0.00896236 -0.00968495)
(1.68674 0.0227536 -0.0148204)
(0.735197 0.0609435 -0.0179194)
(0.522366 0.0608461 -0.0183965)
(0.563669 0.0624442 -0.0184265)
(0.568803 0.0668725 -0.0184868)
(0.519016 0.0711915 -0.0186566)
(0.433215 0.0754732 -0.0188304)
(0.347943 0.0803537 -0.0190202)
(0.276281 0.0859002 -0.0191792)
(0.204043 0.0911165 -0.0193368)
(0.120998 0.096295 -0.0194831)
(0.0514805 0.101927 -0.0196303)
(2.99999 7.32719e-08 -0.00571426)
(2.99998 4.07607e-07 -0.00571441)
(2.99995 1.51366e-06 -0.00571465)
(2.99988 3.88606e-06 -0.00571539)
(2.99972 1.06831e-05 -0.00571676)
(2.99927 2.44364e-05 -0.00572092)
(2.99839 6.33061e-05 -0.00572892)
(2.99569 0.000142522 -0.00575143)
(2.99085 0.000363872 -0.00580318)
(2.97325 0.000822169 -0.00591493)
(2.94101 0.00212685 -0.0063094)
(2.82242 0.0052164 -0.00691397)
(2.49364 0.0153658 -0.00961173)
(1.71459 0.0390367 -0.014666)
(0.753372 0.105449 -0.01778)
(0.519986 0.103317 -0.0183148)
(0.564086 0.105016 -0.01834)
(0.570896 0.112601 -0.0183921)
(0.521094 0.120308 -0.0185531)
(0.435735 0.128516 -0.0187175)
(0.351061 0.137561 -0.0188973)
(0.279227 0.147389 -0.0190483)
(0.206088 0.156886 -0.019188)
(0.121754 0.165741 -0.0193335)
(0.0506178 0.173129 -0.0194677)
(3 1.07097e-07 -0.00571426)
(2.99998 5.94723e-07 -0.00571441)
(2.99996 2.21562e-06 -0.00571464)
(2.99988 5.70352e-06 -0.00571535)
(2.99973 1.5722e-05 -0.00571666)
(2.9993 3.6205e-05 -0.00572067)
(2.99845 9.31127e-05 -0.00572838)
(2.99585 0.000216114 -0.00574998)
(2.9912 0.0005207 -0.00580007)
(2.97412 0.00125125 -0.0059071)
(2.94327 0.00300136 -0.00629169)
(2.82855 0.00738498 -0.00686381)
(2.51235 0.0216508 -0.00950047)
(1.75789 0.0552123 -0.0144316)
(0.781419 0.150846 -0.0175997)
(0.51633 0.145674 -0.0182252)
(0.565598 0.14711 -0.0182452)
(0.575591 0.157803 -0.0182818)
(0.52629 0.168948 -0.018433)
(0.442031 0.181372 -0.0185846)
(0.358343 0.195035 -0.0187492)
(0.28666 0.209718 -0.0188962)
(0.212706 0.224157 -0.01903)
(0.126486 0.237417 -0.0191493)
(0.0520116 0.247099 -0.0192946)
(3 1.3405e-07 -0.00571426)
(2.99998 7.43175e-07 -0.0057144)
(2.99996 2.77433e-06 -0.00571461)
(2.99989 7.1445e-06 -0.00571529)
(2.99975 1.97402e-05 -0.00571653)
(2.99934 4.55377e-05 -0.00572029)
(2.99854 0.000117477 -0.00572763)
(2.99605 0.000272845 -0.00574756)
(2.99172 0.000663095 -0.00579624)
(2.97529 0.0015665 -0.00589404)
(2.94625 0.00397054 -0.00627016)
(2.83671 0.0095049 -0.00679845)
(2.5374 0.0273095 -0.00935301)
(1.81722 0.0713472 -0.0141082)
(0.818891 0.197079 -0.0173748)
(0.510817 0.187939 -0.0181293)
(0.56776 0.188794 -0.0181436)
(0.582365 0.202367 -0.0181619)
(0.534033 0.216727 -0.0183007)
(0.451601 0.233233 -0.0184408)
(0.369474 0.251626 -0.0185858)
(0.298264 0.271606 -0.0187003)
(0.223421 0.291759 -0.0188316)
(0.134535 0.310346 -0.0189588)
(0.0554658 0.323111 -0.0190743)
(3 1.45385e-07 -0.00571425)
(2.99998 8.04657e-07 -0.00571439)
(2.99996 3.00509e-06 -0.00571459)
(2.99989 7.70856e-06 -0.00571522)
(2.99976 2.1339e-05 -0.00571638)
(2.99938 4.88773e-05 -0.00571988)
(2.99864 0.000128419 -0.00572676)
(2.9963 0.000286436 -0.00574506)
(2.99228 0.000763522 -0.00579132)
(2.97684 0.00164826 -0.00588051)
(2.95006 0.00483369 -0.00623666)
(2.84647 0.0108202 -0.00671511)
(2.5695 0.0346831 -0.00917544)
(1.89293 0.0881678 -0.0137034)
(0.863469 0.246673 -0.0171032)
(0.501367 0.231814 -0.0180303)
(0.569504 0.230581 -0.0180387)
(0.590583 0.246498 -0.0180333)
(0.543931 0.263816 -0.0181601)
(0.464294 0.28462 -0.0182771)
(0.384519 0.308293 -0.0184187)
(0.314458 0.334448 -0.0185194)
(0.239176 0.361696 -0.0186105)
(0.146897 0.387843 -0.0187118)
(0.0611125 0.406064 -0.0188467)
(3 1.46328e-07 -0.00571425)
(2.99999 8.08739e-07 -0.00571438)
(2.99996 3.0152e-06 -0.00571456)
(2.9999 7.68429e-06 -0.00571515)
(2.99978 2.1263e-05 -0.00571622)
(2.99942 4.80708e-05 -0.00571947)
(2.99874 0.00012962 -0.00572582)
(2.99658 0.000268681 -0.00574286)
(2.99286 0.000829621 -0.00578529)
(2.97863 0.00153375 -0.00586841)
(2.9541 0.00565129 -0.00619416)
(2.85955 0.0113622 -0.00663993)
(2.60973 0.043067 -0.00887191)
(1.98831 0.104134 -0.0131399)
(0.925983 0.297057 -0.0167465)
(0.497954 0.277823 -0.0178989)
(0.576815 0.273019 -0.017911)
(0.604407 0.290112 -0.0178866)
(0.559098 0.309759 -0.0180055)
(0.482637 0.334948 -0.0180997)
(0.405685 0.364657 -0.0181936)
(0.337229 0.398422 -0.0182824)
(0.261985 0.434937 -0.0183626)
(0.166164 0.472084 -0.0184363)
(0.0711213 0.500752 -0.018524)
(3 1.5938e-07 -0.00571425)
(2.99999 8.81318e-07 -0.00571437)
(2.99997 3.27926e-06 -0.00571454)
(2.99991 8.36888e-06 -0.00571508)
(2.9998 2.31015e-05 -0.00571607)
(2.99947 5.22955e-05 -0.0057191)
(2.99883 0.0001406 -0.00572487)
(2.99688 0.000290759 -0.00574148)
(2.99334 0.000913509 -0.00577809)
(2.98079 0.00156491 -0.00586053)
(2.95845 0.00643659 -0.00613491)
(2.87508 0.0121451 -0.00656142)
(2.6573 0.0480119 -0.00847636)
(2.10239 0.115315 -0.0124187)
(1.01048 0.340103 -0.0163061)
(0.509818 0.326086 -0.0177209)
(0.594582 0.319348 -0.0177291)
(0.627325 0.335023 -0.0176926)
(0.582715 0.355382 -0.0178155)
(0.509601 0.384604 -0.0179118)
(0.435644 0.420826 -0.0179923)
(0.369399 0.463488 -0.0180195)
(0.2954 0.511932 -0.0180549)
(0.196882 0.565649 -0.0180866)
(0.0887968 0.615421 -0.0181511)
(3 1.87284e-07 -0.00571425)
(2.99999 1.03016e-06 -0.00571435)
(2.99997 3.8243e-06 -0.00571451)
(2.99992 9.80481e-06 -0.00571499)
(2.99982 2.69467e-05 -0.00571589)
(2.99952 6.15925e-05 -0.00571861)
(2.99894 0.000161475 -0.00572378)
(2.99722 0.000353856 -0.00573893)
(2.99392 0.000981498 -0.00577059)
(2.98316 0.00193235 -0.0058492)
(2.96312 0.00651437 -0.00607255)
(2.89166 0.0127386 -0.00647533)
(2.70779 0.0469204 -0.00805816)
(2.22975 0.113806 -0.0115978)
(1.12106 0.346652 -0.0157698)
(0.550086 0.36989 -0.0174928)
(0.627535 0.371055 -0.0175191)
(0.660942 0.381488 -0.017463)
(0.617276 0.40124 -0.0175729)
(0.548276 0.433899 -0.0176334)
(0.477612 0.477266 -0.0177121)
(0.414246 0.529068 -0.0177276)
(0.344404 0.591585 -0.0177003)
(0.248763 0.670795 -0.0176352)
(0.123018 0.764133 -0.0175222)
(3 3.46153e-07 -0.00571425)
(2.99999 6.49786e-07 -0.00571434)
(2.99997 5.09734e-06 -0.00571447)
(2.99993 7.65779e-06 -0.0057149)
(2.99984 3.46915e-05 -0.00571568)
(2.99958 4.95849e-05 -0.00571804)
(2.99907 0.000208538 -0.00572261)
(2.99756 0.000280553 -0.00573569)
(2.99466 0.00127783 -0.00576362)
(2.98535 0.00136111 -0.00583247)
(2.96764 0.00861365 -0.00602347)
(2.90663 0.00684745 -0.00639119)
(2.75189 0.0554305 -0.00770141)
(2.34088 0.0874635 -0.0109349)
(1.24872 0.317712 -0.0152128)
(0.614623 0.411145 -0.0171749)
(0.663475 0.431625 -0.0172364)
(0.694486 0.428423 -0.017259)
(0.658131 0.448316 -0.0173665)
(0.597054 0.48248 -0.0173886)
(0.53165 0.532326 -0.017395)
(0.473528 0.592701 -0.0173624)
(0.415849 0.673937 -0.0172569)
(0.33865 0.795547 -0.0170409)
(0.189562 1.00258 -0.0166183)
(2.99999 1.43056e-08 -2.64019e-09)
(2.99998 7.77637e-08 -8.60877e-09)
(2.99995 2.88909e-07 -1.01819e-08)
(2.99987 7.41414e-07 -1.59261e-08)
(2.99971 2.0366e-06 -1.6309e-08)
(2.99924 4.66059e-06 -2.15853e-08)
(2.99833 1.20762e-05 -2.21549e-08)
(2.99555 2.71834e-05 -3.02189e-08)
(2.99052 6.95714e-05 -3.21581e-08)
(2.9724 0.000157163 -6.56915e-08)
(2.93876 0.000404047 -4.49368e-08)
(2.8165 0.00100783 -2.18211e-07)
(2.47565 0.00288111 -1.89392e-07)
(1.67413 0.0073198 -6.91327e-07)
(0.727498 0.0199587 -6.84042e-07)
(0.52456 0.0208433 -1.46725e-08)
(0.564731 0.0222157 -5.50937e-08)
(0.56933 0.0244518 -1.02129e-07)
(0.519873 0.0267253 -1.05549e-07)
(0.434192 0.0290294 -1.06443e-07)
(0.348912 0.0317564 -1.05309e-07)
(0.27776 0.035047 -1.08065e-07)
(0.206583 0.0385819 -1.10115e-07)
(0.124876 0.0427745 -1.11691e-07)
(0.0556337 0.0490124 -1.12285e-07)
(2.99999 4.36587e-08 -2.63295e-09)
(2.99998 2.37493e-07 -8.61457e-09)
(2.99995 8.82499e-07 -1.01752e-08)
(2.99987 2.26267e-06 -1.59323e-08)
(2.99971 6.21925e-06 -1.63147e-08)
(2.99925 1.42189e-05 -2.16081e-08)
(2.99835 3.68973e-05 -2.22062e-08)
(2.99559 8.27947e-05 -3.03388e-08)
(2.99063 0.000213228 -3.23599e-08)
(2.97268 0.000478327 -6.62589e-08)
(2.93949 0.00124765 -4.51902e-08)
(2.81839 0.00308175 -2.1893e-07)
(2.48133 0.008962 -1.8948e-07)
(1.68664 0.0227536 -6.90028e-07)
(0.735153 0.0609405 -6.88581e-07)
(0.522401 0.060845 -1.05003e-08)
(0.563689 0.0624439 -5.35776e-08)
(0.568815 0.0668726 -1.01347e-07)
(0.519026 0.0711923 -1.0451e-07)
(0.433225 0.0754747 -1.05212e-07)
(0.347952 0.0803559 -1.04265e-07)
(0.276288 0.0859028 -1.07195e-07)
(0.204048 0.0911193 -1.0927e-07)
(0.121 0.0962978 -1.10756e-07)
(0.0514804 0.101928 -1.1129e-07)
(2.99999 7.49274e-08 -2.61967e-09)
(2.99998 4.07624e-07 -8.62397e-09)
(2.99995 1.51483e-06 -1.01628e-08)
(2.99987 3.88353e-06 -1.5943e-08)
(2.99972 1.06736e-05 -1.63213e-08)
(2.99927 2.44068e-05 -2.16382e-08)
(2.99839 6.32368e-05 -2.22693e-08)
(2.99569 0.00014227 -3.03953e-08)
(2.99085 0.000363698 -3.26727e-08)
(2.97325 0.000820591 -6.59995e-08)
(2.94099 0.00212712 -4.58059e-08)
(2.8224 0.00521496 -2.16961e-07)
(2.49359 0.0153668 -1.92617e-07)
(1.71448 0.0390382 -6.93604e-07)
(0.753325 0.105447 -7.11524e-07)
(0.520019 0.103318 -4.19931e-09)
(0.564105 0.105018 -5.15254e-08)
(0.570907 0.112603 -9.98981e-08)
(0.521104 0.12031 -1.02172e-07)
(0.435745 0.128519 -1.02156e-07)
(0.35107 0.137565 -1.01925e-07)
(0.279234 0.147394 -1.05192e-07)
(0.206093 0.156891 -1.07513e-07)
(0.121756 0.165746 -1.09207e-07)
(0.050618 0.173132 -1.10271e-07)
(2.99999 1.09878e-07 -2.59995e-09)
(2.99998 5.95386e-07 -8.64334e-09)
(2.99995 2.2208e-06 -1.01606e-08)
(2.99988 5.70316e-06 -1.6002e-08)
(2.99973 1.57307e-05 -1.646e-08)
(2.9993 3.62067e-05 -2.20133e-08)
(2.99845 9.31185e-05 -2.30133e-08)
(2.99584 0.000216119 -3.39734e-08)
(2.99119 0.000520679 -3.115e-08)
(2.97412 0.00125155 -9.32408e-08)
(2.94326 0.00299981 -1.49386e-08)
(2.82853 0.00738584 -2.45488e-07)
(2.51232 0.0216482 -1.57124e-07)
(1.75779 0.0552088 -6.91846e-07)
(0.781388 0.150835 -7.30824e-07)
(0.516381 0.145672 7.37621e-09)
(0.565628 0.147111 -5.15461e-08)
(0.57561 0.157805 -1.00519e-07)
(0.526308 0.168951 -1.00861e-07)
(0.442047 0.181376 -9.82773e-08)
(0.358357 0.195041 -9.87817e-08)
(0.28667 0.209725 -1.02423e-07)
(0.212713 0.224163 -1.05039e-07)
(0.12649 0.237423 -1.06977e-07)
(0.0520127 0.247103 -1.09127e-07)
(2.99999 1.37557e-07 -2.56409e-09)
(2.99998 7.44924e-07 -8.65963e-09)
(2.99996 2.78305e-06 -1.0086e-08)
(2.99989 7.14413e-06 -1.60429e-08)
(2.99974 1.97679e-05 -1.61697e-08)
(2.99933 4.5568e-05 -2.17517e-08)
(2.99854 0.000117554 -2.22204e-08)
(2.99605 0.000273083 -3.0425e-08)
(2.99172 0.000663221 -3.32041e-08)
(2.97528 0.00156829 -5.99604e-08)
(2.94624 0.00396849 -7.88729e-08)
(2.83669 0.00950712 -1.797e-07)
(2.53735 0.027305 -2.28601e-07)
(1.8171 0.0713412 -7.30709e-07)
(0.81884 0.197062 -7.93703e-07)
(0.510855 0.187933 3.56875e-08)
(0.567781 0.188795 -3.61748e-08)
(0.582377 0.20237 -9.45265e-08)
(0.534047 0.216732 -9.54362e-08)
(0.451617 0.233239 -9.33484e-08)
(0.369488 0.251634 -9.35392e-08)
(0.298277 0.271615 -9.71797e-08)
(0.22343 0.291769 -1.00503e-07)
(0.134541 0.310355 -1.03295e-07)
(0.0554677 0.323118 -1.06643e-07)
(3 1.48573e-07 -2.52972e-09)
(2.99998 8.07178e-07 -8.67021e-09)
(2.99996 3.00979e-06 -1.00355e-08)
(2.99989 7.71181e-06 -1.61687e-08)
(2.99976 2.13501e-05 -1.59578e-08)
(2.99938 4.889e-05 -2.18903e-08)
(2.99864 0.000128444 -2.21258e-08)
(2.9963 0.000286489 -3.07432e-08)
(2.99228 0.000763592 -3.3131e-08)
(2.97683 0.00164849 -6.12234e-08)
(2.95005 0.00483385 -8.14592e-08)
(2.84645 0.0108211 -1.80242e-07)
(2.56945 0.0346815 -2.40425e-07)
(1.8928 0.0881664 -7.56393e-07)
(0.863413 0.246656 -8.70525e-07)
(0.5014 0.231806 6.23209e-08)
(0.569517 0.230578 -2.18482e-08)
(0.590588 0.246498 -8.92145e-08)
(0.54394 0.263819 -8.95036e-08)
(0.464305 0.284626 -8.57481e-08)
(0.384531 0.308302 -8.50847e-08)
(0.31447 0.334459 -8.99865e-08)
(0.239186 0.361709 -9.442e-08)
(0.146903 0.387856 -9.78224e-08)
(0.0611149 0.406074 -1.02802e-07)
(3 1.48525e-07 -2.50023e-09)
(2.99998 8.12467e-07 -8.6652e-09)
(2.99996 3.0137e-06 -1.00488e-08)
(2.9999 7.69598e-06 -1.60709e-08)
(2.99978 2.12539e-05 -1.60248e-08)
(2.99942 4.80755e-05 -2.16989e-08)
(2.99874 0.000129608 -2.19681e-08)
(2.99658 0.000268617 -2.98373e-08)
(2.99285 0.000829687 -3.28733e-08)
(2.97862 0.00153274 -5.68049e-08)
(2.95409 0.00565344 -8.00962e-08)
(2.85953 0.0113616 -1.67536e-07)
(2.60967 0.0430712 -2.69274e-07)
(1.98818 0.104141 -7.61709e-07)
(0.925914 0.297053 -9.81051e-07)
(0.497974 0.277818 6.96369e-08)
(0.576818 0.273013 -1.44787e-08)
(0.604403 0.29011 -8.73064e-08)
(0.559099 0.30976 -8.7408e-08)
(0.482642 0.334952 -8.15814e-08)
(0.405693 0.364665 -7.73252e-08)
(0.337238 0.398434 -8.11472e-08)
(0.261993 0.434951 -8.55963e-08)
(0.16617 0.472099 -8.94148e-08)
(0.0711238 0.500765 -9.53083e-08)
(3 1.61645e-07 -2.48557e-09)
(2.99999 8.85008e-07 -8.63411e-09)
(2.99997 3.27945e-06 -1.01334e-08)
(2.99991 8.37973e-06 -1.59239e-08)
(2.99979 2.31049e-05 -1.63111e-08)
(2.99947 5.23232e-05 -2.16773e-08)
(2.99882 0.000140653 -2.23955e-08)
(2.99688 0.000290921 -3.17499e-08)
(2.99333 0.000913739 -3.0776e-08)
(2.98078 0.00156566 -8.14862e-08)
(2.95844 0.00643814 -2.73469e-08)
(2.87506 0.0121474 -2.21482e-07)
(2.65726 0.0480153 -1.85753e-07)
(2.10228 0.115325 -7.34418e-07)
(1.01043 0.340108 -1.03803e-06)
(0.509843 0.326078 5.73097e-08)
(0.594588 0.319337 -2.39432e-08)
(0.627322 0.335016 -8.39284e-08)
(0.582714 0.35538 -8.33892e-08)
(0.509603 0.384606 -7.67085e-08)
(0.435649 0.420834 -7.1447e-08)
(0.369406 0.463499 -7.40068e-08)
(0.295407 0.511947 -7.72869e-08)
(0.196887 0.565666 -8.06124e-08)
(0.0887992 0.615437 -8.60304e-08)
(3 1.87123e-07 -2.4549e-09)
(2.99999 1.03305e-06 -8.63059e-09)
(2.99997 3.82122e-06 -1.01147e-08)
(2.99992 9.80256e-06 -1.58724e-08)
(2.99981 2.69491e-05 -1.61368e-08)
(2.99952 6.16159e-05 -2.12552e-08)
(2.99894 0.000161556 -2.14166e-08)
(2.99722 0.000354162 -2.77141e-08)
(2.99392 0.000981818 -3.13604e-08)
(2.98315 0.00193462 -4.68126e-08)
(2.96312 0.00651491 -6.38605e-08)
(2.89164 0.0127435 -1.51367e-07)
(2.70775 0.046926 -2.39337e-07)
(2.22963 0.113827 -6.77776e-07)
(1.12098 0.346707 -1.1221e-06)
(0.550075 0.36989 -2.08203e-08)
(0.627528 0.371041 -5.30387e-08)
(0.660935 0.381479 -7.92522e-08)
(0.617272 0.401236 -7.72337e-08)
(0.548276 0.4339 -7.0176e-08)
(0.477614 0.477271 -6.64261e-08)
(0.41425 0.529078 -6.75782e-08)
(0.344409 0.5916 -6.85076e-08)
(0.248767 0.670814 -6.97134e-08)
(0.12302 0.764152 -7.3656e-08)
(3 3.31916e-07 -2.48885e-09)
(2.99999 7.01081e-07 -8.57443e-09)
(2.99997 4.98333e-06 -1.02384e-08)
(2.99993 7.69054e-06 -1.59187e-08)
(2.99984 3.45584e-05 -1.62138e-08)
(2.99958 4.9631e-05 -2.12558e-08)
(2.99907 0.000208441 -2.12575e-08)
(2.99756 0.000280684 -2.72875e-08)
(2.99466 0.00127791 -3.00383e-08)
(2.98534 0.00136179 -4.45581e-08)
(2.96763 0.00861435 -5.29111e-08)
(2.90662 0.0068522 -1.48496e-07)
(2.75186 0.055435 -1.55471e-07)
(2.34081 0.0874931 -4.98754e-07)
(1.24865 0.317774 -6.88724e-07)
(0.614619 0.411132 -2.71888e-07)
(0.663487 0.43161 -1.23451e-07)
(0.694496 0.428414 -7.98617e-08)
(0.658137 0.448312 -7.07655e-08)
(0.597057 0.48248 -6.87984e-08)
(0.531653 0.53233 -6.43196e-08)
(0.473531 0.59271 -6.3205e-08)
(0.415854 0.673951 -6.16902e-08)
(0.338654 0.795566 -5.91687e-08)
(0.189564 1.0026 -6.09141e-08)
(2.99999 1.43055e-08 -4.71483e-13)
(2.99998 7.77632e-08 -2.45532e-12)
(2.99995 2.88906e-07 -5.79846e-12)
(2.99987 7.41409e-07 -1.21681e-11)
(2.99971 2.03659e-06 -2.55302e-11)
(2.99924 4.66056e-06 -4.89071e-11)
(2.99833 1.20762e-05 -1.14498e-10)
(2.99555 2.71832e-05 -2.24496e-10)
(2.99052 6.95711e-05 -5.919e-10)
(2.9724 0.000157163 -1.18882e-09)
(2.93876 0.000404045 -3.19651e-09)
(2.81649 0.00100783 -7.77282e-09)
(2.47565 0.00288111 -1.88545e-08)
(1.67412 0.00731979 -4.6403e-08)
(0.727493 0.0199586 -5.64505e-08)
(0.524562 0.0208433 6.68887e-10)
(0.564732 0.0222157 -2.28047e-09)
(0.569329 0.0244518 -6.28939e-09)
(0.519873 0.0267253 -6.60198e-09)
(0.434192 0.0290294 -6.5972e-09)
(0.348912 0.0317564 -6.12194e-09)
(0.27776 0.035047 -5.96069e-09)
(0.206583 0.038582 -5.95255e-09)
(0.124876 0.0427745 -5.98999e-09)
(0.0556337 0.0490125 -6.01718e-09)
(2.99999 4.36584e-08 -4.73694e-13)
(2.99998 2.37492e-07 -2.46497e-12)
(2.99995 8.82493e-07 -5.83096e-12)
(2.99987 2.26266e-06 -1.22395e-11)
(2.99971 6.21921e-06 -2.57207e-11)
(2.99925 1.42188e-05 -4.93043e-11)
(2.99835 3.68971e-05 -1.15458e-10)
(2.99559 8.27944e-05 -2.26586e-10)
(2.99063 0.000213227 -5.95983e-10)
(2.97268 0.000478325 -1.19887e-09)
(2.93949 0.00124765 -3.21257e-09)
(2.81839 0.00308175 -7.78184e-09)
(2.48133 0.00896198 -1.89495e-08)
(1.68663 0.0227536 -4.65482e-08)
(0.735148 0.0609402 -5.70528e-08)
(0.522403 0.0608449 9.80888e-10)
(0.56369 0.0624439 -2.18656e-09)
(0.568815 0.0668726 -6.28623e-09)
(0.519026 0.0711923 -6.56618e-09)
(0.433225 0.0754747 -6.52174e-09)
(0.347952 0.0803559 -6.04711e-09)
(0.276288 0.0859029 -5.8964e-09)
(0.204048 0.0911194 -5.89225e-09)
(0.121 0.0962979 -5.93047e-09)
(0.0514804 0.101928 -5.9567e-09)
(2.99999 7.49261e-08 -4.7823e-13)
(2.99998 4.07618e-07 -2.48543e-12)
(2.99995 1.51481e-06 -5.8946e-12)
(2.99987 3.88346e-06 -1.2376e-11)
(2.99972 1.06734e-05 -2.60534e-11)
(2.99927 2.44063e-05 -4.9945e-11)
(2.99839 6.32357e-05 -1.16942e-10)
(2.99569 0.000142267 -2.28621e-10)
(2.99085 0.000363695 -6.03073e-10)
(2.97325 0.00082057 -1.20177e-09)
(2.94099 0.00212712 -3.2461e-09)
(2.8224 0.00521495 -7.75299e-09)
(2.49359 0.0153667 -1.91871e-08)
(1.71447 0.0390382 -4.69683e-08)
(0.75332 0.105447 -5.87719e-08)
(0.520021 0.103318 1.64257e-09)
(0.564106 0.105018 -1.99021e-09)
(0.570907 0.112602 -6.29664e-09)
(0.521104 0.12031 -6.51917e-09)
(0.435745 0.128519 -6.39625e-09)
(0.35107 0.137565 -5.95327e-09)
(0.279234 0.147394 -5.81907e-09)
(0.206093 0.156891 -5.80548e-09)
(0.121756 0.165746 -5.84287e-09)
(0.0506181 0.173132 -5.86632e-09)
(2.99999 1.09877e-07 -5.01264e-13)
(2.99998 5.95385e-07 -2.57553e-12)
(2.99995 2.22079e-06 -6.23305e-12)
(2.99988 5.70314e-06 -1.31542e-11)
(2.99973 1.57306e-05 -2.83274e-11)
(2.9993 3.62065e-05 -5.54019e-11)
(2.99845 9.31181e-05 -1.27971e-10)
(2.99584 0.000216117 -2.7947e-10)
(2.99119 0.000520678 -5.84531e-10)
(2.97412 0.00125155 -1.58349e-09)
(2.94326 0.0029998 -2.86595e-09)
(2.82853 0.00738583 -8.04669e-09)
(2.51231 0.0216483 -1.90882e-08)
(1.75778 0.0552087 -4.76767e-08)
(0.781383 0.150835 -6.15582e-08)
(0.516383 0.145671 2.52174e-09)
(0.565629 0.147111 -1.82445e-09)
(0.57561 0.157805 -6.30955e-09)
(0.526307 0.168951 -6.46179e-09)
(0.442047 0.181376 -6.18527e-09)
(0.358356 0.195041 -5.76349e-09)
(0.28667 0.209725 -5.67226e-09)
(0.212713 0.224164 -5.67023e-09)
(0.12649 0.237424 -5.71345e-09)
(0.0520127 0.247104 -5.75016e-09)
(2.99999 1.37558e-07 -4.88154e-13)
(2.99998 7.4493e-07 -2.5095e-12)
(2.99996 2.78307e-06 -6.00476e-12)
(2.99989 7.14417e-06 -1.27885e-11)
(2.99974 1.9768e-05 -2.67484e-11)
(2.99933 4.55683e-05 -5.21732e-11)
(2.99854 0.000117555 -1.21314e-10)
(2.99605 0.000273086 -2.44538e-10)
(2.99172 0.000663222 -6.12097e-10)
(2.97528 0.00156831 -1.25161e-09)
(2.94624 0.00396847 -3.56053e-09)
(2.83669 0.00950712 -7.78286e-09)
(2.53735 0.0273051 -1.82545e-08)
(1.81709 0.0713411 -5.01388e-08)
(0.818835 0.197061 -6.52737e-08)
(0.510857 0.187933 3.56075e-09)
(0.567781 0.188795 -1.71721e-09)
(0.582377 0.20237 -6.31417e-09)
(0.534047 0.216732 -6.39103e-09)
(0.451617 0.233239 -6.10766e-09)
(0.369488 0.251634 -5.62888e-09)
(0.298277 0.271615 -5.53158e-09)
(0.223431 0.291769 -5.51696e-09)
(0.134541 0.310355 -5.55781e-09)
(0.0554677 0.323118 -5.60906e-09)
(3 1.48575e-07 -4.81817e-13)
(2.99998 8.07187e-07 -2.47336e-12)
(2.99996 3.00982e-06 -5.91409e-12)
(2.99989 7.71189e-06 -1.26002e-11)
(2.99976 2.13503e-05 -2.63448e-11)
(2.99938 4.88905e-05 -5.14274e-11)
(2.99864 0.000128445 -1.19985e-10)
(2.9963 0.000286492 -2.43019e-10)
(2.99228 0.000763596 -6.10757e-10)
(2.97683 0.0016485 -1.24896e-09)
(2.95005 0.00483386 -3.63093e-09)
(2.84645 0.0108211 -7.71175e-09)
(2.56944 0.0346812 -1.91272e-08)
(1.8928 0.0881662 -5.15835e-08)
(0.863408 0.246655 -7.05283e-08)
(0.501402 0.231805 4.98144e-09)
(0.569517 0.230578 -1.2877e-09)
(0.590588 0.246498 -6.14536e-09)
(0.54394 0.263819 -6.06777e-09)
(0.464306 0.284626 -5.64881e-09)
(0.384532 0.308302 -5.23458e-09)
(0.31447 0.33446 -5.30205e-09)
(0.239186 0.361709 -5.35264e-09)
(0.146903 0.387856 -5.38699e-09)
(0.0611149 0.406074 -5.46819e-09)
(3 1.48528e-07 -4.53692e-13)
(2.99998 8.1248e-07 -2.35241e-12)
(2.99996 3.01375e-06 -5.50324e-12)
(2.9999 7.69613e-06 -1.16987e-11)
(2.99978 2.12543e-05 -2.3765e-11)
(2.99942 4.80765e-05 -4.55605e-11)
(2.99874 0.00012961 -1.07884e-10)
(2.99658 0.000268624 -1.96643e-10)
(2.99285 0.000829693 -6.04956e-10)
(2.97862 0.00153278 -9.90986e-10)
(2.95409 0.00565344 -3.71804e-09)
(2.85953 0.0113617 -6.35483e-09)
(2.60967 0.0430709 -2.42798e-08)
(1.98817 0.104141 -5.18276e-08)
(0.925908 0.297052 -7.91576e-08)
(0.497975 0.277817 6.22515e-09)
(0.576818 0.273013 -1.71445e-10)
(0.604403 0.29011 -5.88901e-09)
(0.559099 0.30976 -5.88068e-09)
(0.482642 0.334952 -5.46309e-09)
(0.405693 0.364665 -4.90912e-09)
(0.337239 0.398434 -4.93341e-09)
(0.261993 0.434951 -5.01764e-09)
(0.16617 0.472099 -5.08616e-09)
(0.0711238 0.500765 -5.20947e-09)
(3 1.61646e-07 -4.21472e-13)
(2.99999 8.85012e-07 -2.23321e-12)
(2.99997 3.27947e-06 -5.07747e-12)
(2.99991 8.37977e-06 -1.05468e-11)
(2.99979 2.3105e-05 -2.10292e-11)
(2.99947 5.23234e-05 -3.86671e-11)
(2.99882 0.000140654 -9.34116e-11)
(2.99688 0.000290922 -1.35746e-10)
(2.99333 0.000913744 -6.21349e-10)
(2.98078 0.00156567 -4.36143e-10)
(2.95844 0.00643815 -4.62254e-09)
(2.87506 0.0121475 -5.0431e-09)
(2.65725 0.0480155 -2.58433e-08)
(2.10227 0.115325 -5.22357e-08)
(1.01042 0.340108 -8.8316e-08)
(0.509844 0.326077 6.61335e-09)
(0.594587 0.319336 9.64091e-10)
(0.62732 0.335015 -4.98653e-09)
(0.582713 0.35538 -5.22908e-09)
(0.509603 0.384606 -5.07821e-09)
(0.435649 0.420834 -4.54864e-09)
(0.369405 0.463499 -4.58139e-09)
(0.295407 0.511947 -4.71045e-09)
(0.196887 0.565666 -4.83502e-09)
(0.0887992 0.615437 -4.95431e-09)
(3 1.87123e-07 -4.34495e-13)
(2.99999 1.03305e-06 -2.27449e-12)
(2.99997 3.82123e-06 -5.27285e-12)
(2.99992 9.80257e-06 -1.10241e-11)
(2.99981 2.69491e-05 -2.25372e-11)
(2.99952 6.1616e-05 -4.28046e-11)
(2.99894 0.000161556 -9.94366e-11)
(2.99722 0.000354161 -1.90121e-10)
(2.99392 0.000981826 -5.36113e-10)
(2.98315 0.0019346 -9.55554e-10)
(2.96311 0.00651501 -3.6239e-09)
(2.89164 0.0127436 -5.30858e-09)
(2.70774 0.0469268 -2.33625e-08)
(2.22962 0.113829 -5.01172e-08)
(1.12097 0.346712 -9.71103e-08)
(0.550072 0.369891 9.1235e-10)
(0.627526 0.37104 -1.46016e-09)
(0.660933 0.381478 -4.8806e-09)
(0.617271 0.401235 -5.01572e-09)
(0.548275 0.4339 -4.78343e-09)
(0.477614 0.477271 -4.26158e-09)
(0.41425 0.529078 -4.25788e-09)
(0.344409 0.5916 -4.31776e-09)
(0.248767 0.670814 -4.45244e-09)
(0.12302 0.764152 -4.66347e-09)
(3 3.31916e-07 -4.17137e-13)
(2.99999 7.01102e-07 -2.19553e-12)
(2.99997 4.98336e-06 -5.00278e-12)
(2.99993 7.69068e-06 -1.04124e-11)
(2.99984 3.45588e-05 -2.06954e-11)
(2.99958 4.96319e-05 -3.89233e-11)
(2.99907 0.000208444 -8.77038e-11)
(2.99756 0.000280689 -1.68366e-10)
(2.99466 0.00127793 -4.46542e-10)
(2.98534 0.00136181 -8.80993e-10)
(2.96763 0.0086145 -2.45062e-09)
(2.90662 0.00685232 -5.67403e-09)
(2.75185 0.0554359 -1.43447e-08)
(2.34081 0.0874956 -3.38939e-08)
(1.24864 0.31778 -5.80121e-08)
(0.614618 0.411131 -2.08886e-08)
(0.663487 0.431609 -8.36283e-09)
(0.694495 0.428413 -5.83402e-09)
(0.658135 0.448311 -5.24895e-09)
(0.597056 0.48248 -5.05148e-09)
(0.531652 0.53233 -4.42966e-09)
(0.473531 0.59271 -4.30563e-09)
(0.415853 0.673951 -4.2017e-09)
(0.338654 0.795566 -4.24683e-09)
(0.189564 1.0026 -4.75477e-09)
(2.99999 1.43055e-08 -4.21842e-14)
(2.99998 7.77631e-08 -1.87784e-13)
(2.99995 2.88906e-07 -6.21009e-13)
(2.99987 7.41409e-07 -1.34194e-12)
(2.99971 2.03659e-06 -3.81768e-12)
(2.99924 4.66055e-06 -7.81156e-12)
(2.99833 1.20762e-05 -2.19882e-11)
(2.99555 2.71832e-05 -4.4956e-11)
(2.99052 6.9571e-05 -1.26783e-10)
(2.9724 0.000157163 -2.59466e-10)
(2.93876 0.000404045 -7.11863e-10)
(2.81649 0.00100783 -1.74698e-09)
(2.47565 0.00288111 -4.26039e-09)
(1.67412 0.00731979 -1.0516e-08)
(0.727493 0.0199586 -1.28322e-08)
(0.524562 0.0208433 2.22065e-10)
(0.564732 0.0222157 -4.31718e-10)
(0.569329 0.0244518 -1.33107e-09)
(0.519873 0.0267253 -1.39766e-09)
(0.434192 0.0290294 -1.38129e-09)
(0.348912 0.0317564 -1.25243e-09)
(0.27776 0.035047 -1.19829e-09)
(0.206583 0.038582 -1.18351e-09)
(0.124876 0.0427745 -1.19051e-09)
(0.0556337 0.0490125 -1.18718e-09)
(2.99999 4.36584e-08 -4.27579e-14)
(2.99998 2.37492e-07 -1.90248e-13)
(2.99995 8.82492e-07 -6.29045e-13)
(2.99987 2.26266e-06 -1.35953e-12)
(2.99971 6.21921e-06 -3.86411e-12)
(2.99925 1.42188e-05 -7.90824e-12)
(2.99835 3.68971e-05 -2.22229e-11)
(2.99559 8.27943e-05 -4.54687e-11)
(2.99063 0.000213227 -1.278e-10)
(2.97268 0.000478325 -2.61972e-10)
(2.93949 0.00124765 -7.15965e-10)
(2.81839 0.00308175 -1.75029e-09)
(2.48133 0.00896198 -4.28454e-09)
(1.68663 0.0227536 -1.05552e-08)
(0.735147 0.0609402 -1.29765e-08)
(0.522403 0.0608449 2.92357e-10)
(0.56369 0.0624439 -4.10224e-10)
(0.568815 0.0668726 -1.32991e-09)
(0.519026 0.0711923 -1.38899e-09)
(0.433225 0.0754747 -1.36367e-09)
(0.347952 0.0803559 -1.23514e-09)
(0.276288 0.0859029 -1.18368e-09)
(0.204048 0.0911194 -1.16994e-09)
(0.121 0.0962979 -1.177e-09)
(0.0514804 0.101928 -1.1735e-09)
(2.99999 7.4926e-08 -4.38531e-14)
(2.99998 4.07617e-07 -1.95539e-13)
(2.99995 1.51481e-06 -6.44702e-13)
(2.99987 3.88345e-06 -1.39302e-12)
(2.99972 1.06734e-05 -3.94504e-12)
(2.99927 2.44063e-05 -8.06343e-12)
(2.99839 6.32356e-05 -2.25868e-11)
(2.99569 0.000142267 -4.59673e-11)
(2.99085 0.000363695 -1.29593e-10)
(2.97325 0.000820568 -2.62769e-10)
(2.94099 0.00212712 -7.24722e-10)
(2.8224 0.00521495 -1.74555e-09)
(2.49359 0.0153667 -4.34483e-09)
(1.71447 0.0390382 -1.06648e-08)
(0.753319 0.105447 -1.3386e-08)
(0.520021 0.103318 4.40685e-10)
(0.564106 0.105017 -3.65727e-10)
(0.570907 0.112602 -1.33167e-09)
(0.521103 0.12031 -1.378e-09)
(0.435745 0.128519 -1.335e-09)
(0.35107 0.137565 -1.2153e-09)
(0.279234 0.147394 -1.16801e-09)
(0.206093 0.156891 -1.15227e-09)
(0.121756 0.165746 -1.1593e-09)
(0.0506181 0.173132 -1.15553e-09)
(2.99999 1.09877e-07 -4.94012e-14)
(2.99998 5.95385e-07 -2.17695e-13)
(2.99995 2.22079e-06 -7.26148e-13)
(2.99988 5.70313e-06 -1.5806e-12)
(2.99973 1.57306e-05 -4.48957e-12)
(2.9993 3.62065e-05 -9.37377e-12)
(2.99845 9.31181e-05 -2.5226e-11)
(2.99584 0.000216117 -5.81534e-11)
(2.99119 0.000520678 -1.25195e-10)
(2.97412 0.00125155 -3.54237e-10)
(2.94326 0.00299979 -6.34045e-10)
(2.82853 0.00738583 -1.82154e-09)
(2.51231 0.0216483 -4.32357e-09)
(1.75778 0.0552087 -1.08468e-08)
(0.781383 0.150835 -1.40462e-08)
(0.516384 0.145671 6.37704e-10)
(0.565629 0.147111 -3.28836e-10)
(0.57561 0.157805 -1.3346e-09)
(0.526307 0.168951 -1.36565e-09)
(0.442047 0.181376 -1.28724e-09)
(0.358356 0.195041 -1.17366e-09)
(0.28667 0.209725 -1.13766e-09)
(0.212713 0.224164 -1.12512e-09)
(0.12649 0.237424 -1.13498e-09)
(0.0520127 0.247104 -1.13507e-09)
(2.99999 1.37558e-07 -4.60951e-14)
(2.99998 7.4493e-07 -2.05138e-13)
(2.99996 2.78307e-06 -6.78309e-13)
(2.99989 7.14418e-06 -1.46655e-12)
(2.99974 1.9768e-05 -4.1619e-12)
(2.99933 4.55683e-05 -8.56683e-12)
(2.99854 0.000117555 -2.36735e-11)
(2.99605 0.000273086 -4.97107e-11)
(2.99172 0.000663222 -1.32147e-10)
(2.97528 0.00156831 -2.74984e-10)
(2.94624 0.00396847 -8.00193e-10)
(2.83669 0.00950712 -1.75895e-09)
(2.53735 0.0273051 -4.15476e-09)
(1.81709 0.0713411 -1.14363e-08)
(0.818834 0.197061 -1.49347e-08)
(0.510857 0.187933 8.7225e-10)
(0.567781 0.188795 -3.02372e-10)
(0.582377 0.20237 -1.33462e-09)
(0.534047 0.216732 -1.34969e-09)
(0.451617 0.233239 -1.2745e-09)
(0.369488 0.251634 -1.14652e-09)
(0.298277 0.271615 -1.11151e-09)
(0.223431 0.291769 -1.09631e-09)
(0.134541 0.310355 -1.10648e-09)
(0.0554677 0.323118 -1.11158e-09)
(3 1.48575e-07 -4.48315e-14)
(2.99998 8.07188e-07 -1.99002e-13)
(2.99996 3.00983e-06 -6.60983e-13)
(2.99989 7.71189e-06 -1.4284e-12)
(2.99976 2.13504e-05 -4.08427e-12)