/*--------------------------------*- C++ -*----------------------------------*\
| =========                 |                                                 |
| \\      /  F ield         | OpenFOAM: The Open Source CFD Toolbox           |
|  \\    /   O peration     | Version:  4.1                                   |
|   \\  /    A nd           | Web:      www.OpenFOAM.org                      |
|    \\/     M anipulation  |                                                 |
\*---------------------------------------------------------------------------*/
FoamFile
{
    version     2.0;
    format      ascii;
    class       volScalarField;
    location    "6.12";
    object      p;
}
// * * * * * * * * * * * * * * * * * * * * * * * * * * * * * * * * * * * * * //

dimensions      [1 -1 -2 0 0 0 0];

internalField   nonuniform List<scalar> 
52500
(
1.00001
1.00003
1.00011
1.00025
1.00071
1.00145
1.00416
1.00823
1.02513
1.04545
1.1632
1.29245
2.10358
3.63388
8.7919
11.4854
11.2231
11.0385
11.1139
11.3324
11.5736
11.7267
11.8421
11.9342
12.0078
1.00001
1.00003
1.00011
1.00024
1.0007
1.00143
1.0041
1.00811
1.02482
1.0448
1.16127
1.28818
2.09171
3.59793
8.70189
11.485
11.2156
11.0263
11.1032
11.3233
11.5638
11.7166
11.8335
11.927
12.0019
1.00001
1.00003
1.00011
1.00024
1.00068
1.00139
1.00399
1.00788
1.02419
1.04348
1.15725
1.27925
2.06658
3.51991
8.50038
11.4839
11.1962
10.9922
11.0694
11.2887
11.5252
11.6744
11.79
11.882
11.9557
1.00001
1.00003
1.0001
1.00022
1.00065
1.00133
1.00383
1.00752
1.02324
1.04148
1.1511
1.26569
2.02761
3.40036
8.1856
11.4882
11.1695
10.9381
11.0132
11.2277
11.4573
11.6
11.7114
11.7998
11.8725
1.00001
1.00003
1.0001
1.00021
1.00062
1.00127
1.00363
1.00715
1.02199
1.03935
1.14277
1.25044
1.96376
3.24286
7.7471
11.5021
11.1414
10.8672
10.9378
11.144
11.3643
11.4979
11.6021
11.6854
11.7579
1.00001
1.00003
1.00009
1.0002
1.00058
1.00119
1.0034
1.00675
1.02044
1.03722
1.13166
1.23331
1.87969
3.04824
7.18111
11.5234
11.1133
10.7793
10.8421
11.0344
11.2431
11.3639
11.4563
11.5302
11.6018
1.00001
1.00002
1.00009
1.00019
1.00054
1.00111
1.00316
1.00638
1.0186
1.03589
1.11671
1.21643
1.77957
2.82499
6.50283
11.523
11.0815
10.6776
10.7289
10.899
11.0904
11.1911
11.263
11.3179
11.3814
1
1.00002
1.00008
1.00017
1.00049
1.00101
1.00286
1.00578
1.01671
1.03283
1.10284
1.19615
1.67785
2.58818
5.74526
11.4432
11.0136
10.562
10.5989
10.7368
10.9022
10.9739
11.0119
11.0283
11.0631
1
1.00002
1.00007
1.00015
1.00044
1.0009
1.00256
1.00518
1.01495
1.02948
1.0913
1.17574
1.5956
2.39327
5.19146
11.0804
10.8422
10.4379
10.4515
10.5414
10.6691
10.6986
10.6841
10.6233
10.5619
1
1.00002
1.00006
1.00013
1.00038
1.00078
1.00221
1.00444
1.01312
1.02461
1.08233
1.14786
1.53189
2.21439
4.70769
10.359
10.5401
10.3606
10.2875
10.3249
10.389
10.3673
10.2715
10.0474
9.69884
1.00001
1.00004
1.00012
1.00025
1.00072
1.00146
1.00417
1.00824
1.02514
1.04547
1.16323
1.2925
2.10366
3.63416
8.79244
11.4853
11.2231
11.0386
11.114
11.3325
11.5737
11.7268
11.8421
11.9343
12.0078
1.00001
1.00003
1.00011
1.00025
1.00071
1.00144
1.00411
1.00812
1.02484
1.04482
1.16129
1.28824
2.09178
3.59822
8.70243
11.4849
11.2156
11.0263
11.1033
11.3234
11.5639
11.7167
11.8336
11.9271
12.002
1.00001
1.00003
1.00011
1.00024
1.00069
1.0014
1.004
1.00789
1.0242
1.0435
1.15728
1.27931
2.06665
3.52018
8.50091
11.4838
11.1962
10.9923
11.0694
11.2888
11.5253
11.6744
11.7901
11.8821
11.9558
1.00001
1.00003
1.00011
1.00023
1.00066
1.00134
1.00383
1.00754
1.02326
1.0415
1.15113
1.26575
2.02768
3.40062
8.18613
11.4881
11.1695
10.9382
11.0132
11.2278
11.4573
11.6001
11.7115
11.7999
11.8726
1.00001
1.00003
1.0001
1.00022
1.00062
1.00127
1.00364
1.00716
1.02201
1.03937
1.1428
1.2505
1.96382
3.2431
7.74763
11.5021
11.1414
10.8673
10.9379
11.1441
11.3644
11.498
11.6022
11.6855
11.758
1.00001
1.00003
1.0001
1.00021
1.00059
1.0012
1.00341
1.00676
1.02045
1.03726
1.13165
1.23339
1.87969
3.04846
7.18158
11.5234
11.1133
10.7794
10.8422
11.0345
11.2432
11.364
11.4564
11.5303
11.6019
1.00001
1.00003
1.00009
1.00019
1.00055
1.00112
1.00317
1.00639
1.01861
1.03592
1.11671
1.21649
1.77959
2.82518
6.50324
11.523
11.0816
10.6777
10.729
10.8991
11.0904
11.1912
11.2631
11.318
11.3815
1.00001
1.00002
1.00008
1.00017
1.0005
1.00102
1.00287
1.00579
1.01672
1.03285
1.10286
1.1962
1.67789
2.58835
5.74566
11.4432
11.0137
10.5621
10.599
10.7368
10.9023
10.974
11.012
11.0284
11.0632
1
1.00002
1.00007
1.00016
1.00044
1.00091
1.00257
1.00519
1.01496
1.02949
1.09131
1.17578
1.59562
2.39339
5.19167
11.0806
10.8423
10.438
10.4516
10.5415
10.6692
10.6987
10.6841
10.6234
10.562
1
1.00002
1.00006
1.00013
1.00038
1.00079
1.00222
1.00445
1.01313
1.02463
1.08233
1.1479
1.53187
2.21453
4.70785
10.3594
10.5402
10.3607
10.2876
10.325
10.3891
10.3673
10.2716
10.0475
9.69891
1.00001
1.00004
1.00012
1.00025
1.00072
1.00146
1.00417
1.00824
1.02514
1.04547
1.16323
1.29251
2.10366
3.63417
8.79247
11.4853
11.2231
11.0386
11.114
11.3325
11.5737
11.7268
11.8421
11.9343
12.0079
1.00001
1.00003
1.00011
1.00025
1.00071
1.00144
1.00411
1.00812
1.02484
1.04482
1.1613
1.28824
2.09178
3.59823
8.70246
11.4849
11.2156
11.0263
11.1033
11.3234
11.5639
11.7167
11.8336
11.9271
12.002
1.00001
1.00003
1.00011
1.00024
1.00069
1.0014
1.004
1.00789
1.0242
1.0435
1.15728
1.27931
2.06666
3.52019
8.50095
11.4838
11.1962
10.9923
11.0695
11.2888
11.5253
11.6744
11.7901
11.8821
11.9558
1.00001
1.00003
1.00011
1.00023
1.00066
1.00134
1.00383
1.00754
1.02326
1.0415
1.15113
1.26575
2.02769
3.40064
8.18616
11.4881
11.1695
10.9382
11.0133
11.2278
11.4574
11.6001
11.7115
11.7999
11.8726
1.00001
1.00003
1.0001
1.00022
1.00062
1.00127
1.00364
1.00716
1.02201
1.03937
1.1428
1.2505
1.96383
3.24311
7.74766
11.5021
11.1414
10.8673
10.9379
11.1441
11.3644
11.498
11.6022
11.6855
11.758
1.00001
1.00003
1.0001
1.00021
1.00059
1.0012
1.00341
1.00676
1.02045
1.03726
1.13166
1.23339
1.8797
3.04847
7.18161
11.5234
11.1133
10.7794
10.8422
11.0345
11.2432
11.364
11.4564
11.5303
11.6019
1.00001
1.00003
1.00009
1.00019
1.00055
1.00112
1.00317
1.00639
1.01861
1.03592
1.11671
1.21649
1.7796
2.82519
6.50328
11.523
11.0816
10.6777
10.729
10.8991
11.0904
11.1912
11.2631
11.318
11.3815
1.00001
1.00002
1.00008
1.00017
1.0005
1.00102
1.00287
1.00579
1.01672
1.03285
1.10286
1.1962
1.67789
2.58836
5.7457
11.4432
11.0137
10.5621
10.599
10.7368
10.9023
10.974
11.012
11.0284
11.0632
1
1.00002
1.00007
1.00016
1.00044
1.00091
1.00257
1.00519
1.01496
1.02949
1.09131
1.17578
1.59563
2.3934
5.19169
11.0806
10.8423
10.438
10.4516
10.5415
10.6692
10.6987
10.6841
10.6234
10.562
1
1.00002
1.00006
1.00013
1.00038
1.00079
1.00222
1.00445
1.01313
1.02463
1.08233
1.1479
1.53187
2.21453
4.70787
10.3594
10.5402
10.3607
10.2876
10.325
10.3891
10.3673
10.2716
10.0475
9.69892
1.00001
1.00004
1.00012
1.00025
1.00072
1.00146
1.00417
1.00824
1.02514
1.04547
1.16323
1.29251
2.10366
3.63417
8.79247
11.4853
11.2231
11.0386
11.114
11.3325
11.5737
11.7268
11.8421
11.9343
12.0079
1.00001
1.00003
1.00011
1.00025
1.00071
1.00144
1.00411
1.00812
1.02484
1.04482
1.1613
1.28824
2.09178
3.59823
8.70246
11.4849
11.2156
11.0263
11.1033
11.3234
11.5639
11.7167
11.8336
11.9271
12.002
1.00001
1.00003
1.00011
1.00024
1.00069
1.0014
1.004
1.00789
1.0242
1.0435
1.15728
1.27931
2.06666
3.52019
8.50095
11.4838
11.1962
10.9923
11.0695
11.2888
11.5253
11.6744
11.7901
11.8821
11.9558
1.00001
1.00003
1.00011
1.00023
1.00066
1.00134
1.00383
1.00754
1.02326
1.0415
1.15113
1.26575
2.02769
3.40064
8.18616
11.4881
11.1695
10.9382
11.0133
11.2278
11.4574
11.6001
11.7115
11.7999
11.8726
1.00001
1.00003
1.0001
1.00022
1.00062
1.00127
1.00364
1.00716
1.02201
1.03937
1.1428
1.2505
1.96383
3.24311
7.74766
11.5021
11.1414
10.8673
10.9379
11.1441
11.3644
11.498
11.6022
11.6855
11.758
1.00001
1.00003
1.0001
1.00021
1.00059
1.0012
1.00341
1.00676
1.02045
1.03726
1.13166
1.23339
1.8797
3.04847
7.18161
11.5234
11.1133
10.7794
10.8422
11.0345
11.2432
11.364
11.4564
11.5303
11.6019
1.00001
1.00003
1.00009
1.00019
1.00055
1.00112
1.00317
1.00639
1.01861
1.03592
1.11671
1.21649
1.7796
2.82519
6.50328
11.523
11.0816
10.6777
10.729
10.8991
11.0904
11.1912
11.2631
11.318
11.3815
1.00001
1.00002
1.00008
1.00017
1.0005
1.00102
1.00287
1.00579
1.01672
1.03285
1.10286
1.1962
1.67789
2.58836
5.7457
11.4432
11.0137
10.5621
10.599
10.7368
10.9023
10.974
11.012
11.0284
11.0632
1
1.00002
1.00007
1.00016
1.00044
1.00091
1.00257
1.00519
1.01496
1.02949
1.09131
1.17578
1.59563
2.3934
5.19169
11.0806
10.8423
10.438
10.4516
10.5415
10.6692
10.6987
10.6841
10.6234
10.562
1
1.00002
1.00006
1.00013
1.00038
1.00079
1.00222
1.00445
1.01313
1.02463
1.08233
1.1479
1.53187
2.21453
4.70787
10.3594
10.5402
10.3607
10.2876
10.325
10.3891
10.3673
10.2716
10.0475
9.69892
1.00001
1.00004
1.00012
1.00025
1.00072
1.00146
1.00417
1.00824
1.02514
1.04547
1.16323
1.29251
2.10367
3.63417
8.79248
11.4853
11.2231
11.0386
11.114
11.3325
11.5737
11.7268
11.8421
11.9343
12.0079
1.00001
1.00003
1.00011
1.00025
1.00071
1.00144
1.00411
1.00812
1.02484
1.04482
1.1613
1.28824
2.09178
3.59823
8.70246
11.4849
11.2156
11.0263
11.1033
11.3234
11.5639
11.7167
11.8336
11.9271
12.002
1.00001
1.00003
1.00011
1.00024
1.00069
1.0014
1.004
1.00789
1.0242
1.0435
1.15728
1.27931
2.06666
3.5202
8.50095
11.4838
11.1962
10.9923
11.0695
11.2888
11.5253
11.6744
11.7901
11.8821
11.9558
1.00001
1.00003
1.00011
1.00023
1.00066
1.00134
1.00383
1.00754
1.02326
1.0415
1.15113
1.26575
2.02769
3.40064
8.18616
11.4881
11.1695
10.9382
11.0133
11.2278
11.4574
11.6001
11.7115
11.7999
11.8726
1.00001
1.00003
1.0001
1.00022
1.00062
1.00127
1.00364
1.00716
1.02201
1.03937
1.1428
1.2505
1.96383
3.24312
7.74767
11.5021
11.1414
10.8673
10.9379
11.1441
11.3644
11.498
11.6022
11.6855
11.758
1.00001
1.00003
1.0001
1.00021
1.00059
1.0012
1.00341
1.00676
1.02045
1.03726
1.13166
1.23339
1.8797
3.04848
7.18162
11.5234
11.1133
10.7794
10.8422
11.0345
11.2432
11.364
11.4564
11.5303
11.6019
1.00001
1.00003
1.00009
1.00019
1.00055
1.00112
1.00317
1.00639
1.01861
1.03592
1.11671
1.21649
1.7796
2.8252
6.50329
11.523
11.0816
10.6777
10.729
10.8991
11.0904
11.1912
11.2631
11.318
11.3815
1.00001
1.00002
1.00008
1.00017
1.0005
1.00102
1.00287
1.00579
1.01672
1.03285
1.10286
1.1962
1.6779
2.58836
5.74571
11.4432
11.0137
10.5621
10.599
10.7368
10.9023
10.974
11.012
11.0284
11.0632
1
1.00002
1.00007
1.00016
1.00044
1.00091
1.00257
1.00519
1.01496
1.02949
1.09131
1.17578
1.59563
2.3934
5.1917
11.0806
10.8423
10.438
10.4516
10.5415
10.6692
10.6987
10.6841
10.6234
10.562
1
1.00002
1.00006
1.00013
1.00038
1.00079
1.00222
1.00445
1.01313
1.02463
1.08233
1.1479
1.53187
2.21454
4.70788
10.3594
10.5402
10.3607
10.2876
10.325
10.3891
10.3673
10.2716
10.0475
9.69892
1.00001
1.00004
1.00012
1.00025
1.00072
1.00146
1.00417
1.00824
1.02514
1.04547
1.16323
1.29251
2.10367
3.63417
8.79248
11.4853
11.2231
11.0386
11.114
11.3325
11.5737
11.7268
11.8421
11.9343
12.0079
1.00001
1.00003
1.00011
1.00025
1.00071
1.00144
1.00411
1.00812
1.02484
1.04482
1.1613
1.28824
2.09178
3.59823
8.70246
11.4849
11.2156
11.0263
11.1033
11.3234
11.5639
11.7167
11.8336
11.9271
12.002
1.00001
1.00003
1.00011
1.00024
1.00069
1.0014
1.004
1.00789
1.0242
1.0435
1.15728
1.27931
2.06666
3.5202
8.50095
11.4838
11.1962
10.9923
11.0695
11.2888
11.5253
11.6744
11.7901
11.8821
11.9558
1.00001
1.00003
1.00011
1.00023
1.00066
1.00134
1.00383
1.00754
1.02326
1.0415
1.15113
1.26575
2.02769
3.40064
8.18617
11.4881
11.1695
10.9382
11.0133
11.2278
11.4574
11.6001
11.7115
11.7999
11.8726
1.00001
1.00003
1.0001
1.00022
1.00062
1.00127
1.00364
1.00716
1.02201
1.03937
1.1428
1.2505
1.96383
3.24312
7.74767
11.5021
11.1414
10.8673
10.9379
11.1441
11.3644
11.498
11.6022
11.6855
11.758
1.00001
1.00003
1.0001
1.00021
1.00059
1.0012
1.00341
1.00676
1.02045
1.03726
1.13166
1.23339
1.8797
3.04848
7.18162
11.5234
11.1133
10.7794
10.8422
11.0345
11.2432
11.364
11.4564
11.5303
11.6019
1.00001
1.00003
1.00009
1.00019
1.00055
1.00112
1.00317
1.00639
1.01861
1.03592
1.11671
1.21649
1.7796
2.8252
6.50329
11.523
11.0816
10.6777
10.729
10.8991
11.0904
11.1912
11.2631
11.318
11.3815
1.00001
1.00002
1.00008
1.00017
1.0005
1.00102
1.00287
1.00579
1.01672
1.03285
1.10286
1.1962
1.6779
2.58836
5.74571
11.4432
11.0137
10.5621
10.599
10.7368
10.9023
10.974
11.012
11.0284
11.0632
1
1.00002
1.00007
1.00016
1.00044
1.00091
1.00257
1.00519
1.01496
1.02949
1.09131
1.17578
1.59563
2.3934
5.1917
11.0806
10.8423
10.438
10.4516
10.5415
10.6692
10.6987
10.6841
10.6234
10.562
1
1.00002
1.00006
1.00013
1.00038
1.00079
1.00222
1.00445
1.01313
1.02463
1.08233
1.1479
1.53187
2.21454
4.70787
10.3594
10.5402
10.3607
10.2876
10.325
10.3891
10.3673
10.2716
10.0475
9.69892
1.00001
1.00004
1.00012
1.00025
1.00072
1.00146
1.00417
1.00824
1.02514
1.04547
1.16323
1.29251
2.10366
3.63417
8.79248
11.4853
11.2231
11.0386
11.114
11.3325
11.5737
11.7268
11.8421
11.9343
12.0079
1.00001
1.00003
1.00011
1.00025
1.00071
1.00144
1.00411
1.00812
1.02484
1.04482
1.1613
1.28824
2.09178
3.59823
8.70246
11.4849
11.2156
11.0263
11.1033
11.3234
11.5639
11.7167
11.8336
11.9271
12.002
1.00001
1.00003
1.00011
1.00024
1.00069
1.0014
1.004
1.00789
1.0242
1.0435
1.15728
1.27931
2.06666
3.52019
8.50095
11.4838
11.1962
10.9923
11.0695
11.2888
11.5253
11.6744
11.7901
11.8821
11.9558
1.00001
1.00003
1.00011
1.00023
1.00066
1.00134
1.00383
1.00754
1.02326
1.0415
1.15113
1.26575
2.02769
3.40064
8.18616
11.4881
11.1695
10.9382
11.0133
11.2278
11.4574
11.6001
11.7115
11.7999
11.8726
1.00001
1.00003
1.0001
1.00022
1.00062
1.00127
1.00364
1.00716
1.02201
1.03937
1.1428
1.2505
1.96383
3.24312
7.74766
11.5021
11.1414
10.8673
10.9379
11.1441
11.3644
11.498
11.6022
11.6855
11.758
1.00001
1.00003
1.0001
1.00021
1.00059
1.0012
1.00341
1.00676
1.02045
1.03726
1.13166
1.23339
1.8797
3.04847
7.18161
11.5234
11.1133
10.7794
10.8422
11.0345
11.2432
11.364
11.4564
11.5303
11.6019
1.00001
1.00003
1.00009
1.00019
1.00055
1.00112
1.00317
1.00639
1.01861
1.03592
1.11671
1.21649
1.7796
2.8252
6.50328
11.523
11.0816
10.6777
10.729
10.8991
11.0904
11.1912
11.2631
11.318
11.3815
1.00001
1.00002
1.00008
1.00017
1.0005
1.00102
1.00287
1.00579
1.01672
1.03285
1.10286
1.1962
1.67789
2.58836
5.7457
11.4432
11.0137
10.5621
10.599
10.7368
10.9023
10.974
11.012
11.0284
11.0632
1
1.00002
1.00007
1.00016
1.00044
1.00091
1.00257
1.00519
1.01496
1.02949
1.09131
1.17578
1.59563
2.3934
5.19169
11.0806
10.8423
10.438
10.4516
10.5415
10.6692
10.6987
10.6841
10.6234
10.562
1
1.00002
1.00006
1.00013
1.00038
1.00079
1.00222
1.00445
1.01313
1.02463
1.08233
1.1479
1.53187
2.21453
4.70787
10.3594
10.5402
10.3607
10.2876
10.325
10.3891
10.3673
10.2716
10.0475
9.69892
1.00001
1.00004
1.00012
1.00025
1.00072
1.00146
1.00417
1.00824
1.02514
1.04547
1.16323
1.29251
2.10366
3.63417
8.79247
11.4853
11.2231
11.0386
11.114
11.3325
11.5737
11.7268
11.8421
11.9343
12.0079
1.00001
1.00003
1.00011
1.00025
1.00071
1.00144
1.00411
1.00812
1.02484
1.04482
1.1613
1.28824
2.09178
3.59823
8.70246
11.4849
11.2156
11.0263
11.1033
11.3234
11.5639
11.7167
11.8336
11.9271
12.002
1.00001
1.00003
1.00011
1.00024
1.00069
1.0014
1.004
1.00789
1.0242
1.0435
1.15728
1.27931
2.06666
3.52019
8.50095
11.4838
11.1962
10.9923
11.0695
11.2888
11.5253
11.6744
11.7901
11.8821
11.9558
1.00001
1.00003
1.00011
1.00023
1.00066
1.00134
1.00383
1.00754
1.02326
1.0415
1.15113
1.26575
2.02769
3.40064
8.18616
11.4881
11.1695
10.9382
11.0133
11.2278
11.4574
11.6001
11.7115
11.7999
11.8726
1.00001
1.00003
1.0001
1.00022
1.00062
1.00127
1.00364
1.00716
1.02201
1.03937
1.1428
1.2505
1.96383
3.24311
7.74766
11.5021
11.1414
10.8673
10.9379
11.1441
11.3644
11.498
11.6022
11.6855
11.758
1.00001
1.00003
1.0001
1.00021
1.00059
1.0012
1.00341
1.00676
1.02045
1.03726
1.13166
1.23339
1.8797
3.04847
7.18161
11.5234
11.1133
10.7794
10.8422
11.0345
11.2432
11.364
11.4564
11.5303
11.6019
1.00001
1.00003
1.00009
1.00019
1.00055
1.00112
1.00317
1.00639
1.01861
1.03592
1.11671
1.21649
1.7796
2.8252
6.50328
11.523
11.0816
10.6777
10.729
10.8991
11.0904
11.1912
11.2631
11.318
11.3815
1.00001
1.00002
1.00008
1.00017
1.0005
1.00102
1.00287
1.00579
1.01672
1.03285
1.10286
1.1962
1.67789
2.58836
5.7457
11.4432
11.0137
10.5621
10.599
10.7368
10.9023
10.974
11.012
11.0284
11.0632
1
1.00002
1.00007
1.00016
1.00044
1.00091
1.00257
1.00519
1.01496
1.02949
1.09131
1.17578
1.59563
2.3934
5.19169
11.0806
10.8423
10.438
10.4516
10.5415
10.6692
10.6987
10.6841
10.6234
10.562
1
1.00002
1.00006
1.00013
1.00038
1.00079
1.00222
1.00445
1.01313
1.02463
1.08233
1.1479
1.53187
2.21453
4.70787
10.3594
10.5402
10.3607
10.2876
10.325
10.3891
10.3673
10.2716
10.0475
9.69892
1.00001
1.00004
1.00012
1.00025
1.00072
1.00146
1.00417
1.00824
1.02514
1.04547
1.16323
1.2925
2.10366
3.63416
8.79244
11.4853
11.2231
11.0386
11.114
11.3325
11.5737
11.7268
11.8421
11.9343
12.0078
1.00001
1.00003
1.00011
1.00025
1.00071
1.00144
1.00411
1.00812
1.02484
1.04482
1.16129
1.28824
2.09178
3.59822
8.70242
11.4849
11.2156
11.0263
11.1033
11.3234
11.5639
11.7167
11.8336
11.9271
12.002
1.00001
1.00003
1.00011
1.00024
1.00069
1.0014
1.004
1.00789
1.0242
1.0435
1.15728
1.27931
2.06665
3.52018
8.50091
11.4838
11.1962
10.9923
11.0694
11.2888
11.5253
11.6744
11.7901
11.8821
11.9558
1.00001
1.00003
1.00011
1.00023
1.00066
1.00134
1.00383
1.00754
1.02326
1.0415
1.15113
1.26575
2.02768
3.40062
8.18612
11.4881
11.1695
10.9382
11.0132
11.2278
11.4573
11.6001
11.7115
11.7999
11.8726
1.00001
1.00003
1.0001
1.00022
1.00062
1.00127
1.00364
1.00716
1.02201
1.03937
1.1428
1.2505
1.96382
3.2431
7.74763
11.5021
11.1414
10.8673
10.9379
11.1441
11.3644
11.498
11.6022
11.6855
11.758
1.00001
1.00003
1.0001
1.00021
1.00059
1.0012
1.00341
1.00676
1.02045
1.03726
1.13165
1.23339
1.87969
3.04846
7.18158
11.5234
11.1133
10.7794
10.8422
11.0345
11.2432
11.364
11.4564
11.5303
11.6019
1.00001
1.00003
1.00009
1.00019
1.00055
1.00112
1.00317
1.00639
1.01861
1.03592
1.11671
1.21649
1.77959
2.82518
6.50324
11.523
11.0816
10.6777
10.729
10.8991
11.0904
11.1912
11.2631
11.318
11.3815
1.00001
1.00002
1.00008
1.00017
1.0005
1.00102
1.00287
1.00579
1.01672
1.03285
1.10286
1.1962
1.67789
2.58835
5.74566
11.4432
11.0137
10.5621
10.599
10.7368
10.9023
10.974
11.012
11.0284
11.0632
1
1.00002
1.00007
1.00016
1.00044
1.00091
1.00257
1.00519
1.01496
1.02949
1.09131
1.17578
1.59562
2.39339
5.19167
11.0806
10.8423
10.438
10.4516
10.5415
10.6692
10.6987
10.6841
10.6234
10.562
1
1.00002
1.00006
1.00013
1.00038
1.00079
1.00222
1.00445
1.01313
1.02463
1.08233
1.1479
1.53187
2.21453
4.70785
10.3594
10.5402
10.3607
10.2876
10.325
10.3891
10.3673
10.2716
10.0475
9.69891
1.00001
1.00003
1.00011
1.00025
1.00071
1.00145
1.00416
1.00823
1.02513
1.04545
1.1632
1.29245
2.10358
3.63388
8.79189
11.4854
11.2231
11.0385
11.1139
11.3324
11.5736
11.7267
11.8421
11.9342
12.0078
1.00001
1.00003
1.00011
1.00024
1.0007
1.00143
1.0041
1.00811
1.02482
1.0448
1.16127
1.28818
2.09171
3.59793
8.70188
11.485
11.2156
11.0263
11.1032
11.3233
11.5638
11.7166
11.8335
11.927
12.0019
1.00001
1.00003
1.00011
1.00024
1.00068
1.00139
1.00399
1.00788
1.02419
1.04348
1.15725
1.27925
2.06658
3.5199
8.50038
11.4839
11.1962
10.9922
11.0694
11.2887
11.5252
11.6744
11.79
11.882
11.9557
1.00001
1.00003
1.0001
1.00022
1.00065
1.00133
1.00383
1.00752
1.02324
1.04148
1.1511
1.26569
2.02761
3.40036
8.1856
11.4882
11.1695
10.9381
11.0132
11.2277
11.4573
11.6
11.7114
11.7998
11.8725
1.00001
1.00003
1.0001
1.00021
1.00062
1.00127
1.00363
1.00715
1.02199
1.03935
1.14277
1.25044
1.96376
3.24285
7.7471
11.5021
11.1414
10.8672
10.9378
11.144
11.3643
11.4979
11.6021
11.6854
11.7579
1.00001
1.00003
1.00009
1.0002
1.00058
1.00119
1.0034
1.00675
1.02044
1.03722
1.13166
1.23331
1.87969
3.04824
7.18111
11.5234
11.1133
10.7793
10.8421
11.0344
11.2431
11.3639
11.4563
11.5302
11.6018
1.00001
1.00002
1.00009
1.00019
1.00054
1.00111
1.00316
1.00638
1.0186
1.03589
1.11671
1.21643
1.77957
2.82499
6.50282
11.523
11.0815
10.6776
10.7289
10.899
11.0903
11.1911
11.263
11.3179
11.3814
1
1.00002
1.00008
1.00017
1.00049
1.00101
1.00286
1.00578
1.01671
1.03283
1.10284
1.19615
1.67785
2.58818
5.74526
11.4432
11.0136
10.562
10.5989
10.7368
10.9022
10.9739
11.0119
11.0283
11.0631
1
1.00002
1.00007
1.00015
1.00044
1.0009
1.00256
1.00518
1.01495
1.02948
1.0913
1.17574
1.5956
2.39327
5.19146
11.0804
10.8422
10.4379
10.4515
10.5414
10.6691
10.6986
10.6841
10.6233
10.5619
1
1.00002
1.00006
1.00013
1.00038
1.00078
1.00221
1.00444
1.01312
1.02461
1.08233
1.14786
1.53189
2.21439
4.70769
10.359
10.5401
10.3606
10.2875
10.3249
10.389
10.3673
10.2715
10.0474
9.69884
1
1.00002
1.00004
1.00013
1.00028
1.00081
1.00165
1.00472
1.00929
1.02866
1.05148
1.1854
1.33853
2.2509
4.01877
9.4351
10.3934
10.2696
10.1055
10.0963
10.0777
9.9886
9.73622
9.14978
7.67483
1
1.00001
1.00004
1.00012
1.00025
1.00071
1.00144
1.00411
1.00815
1.02464
1.04501
1.1588
1.28668
2.06623
3.52791
8.31029
10.2869
10.1737
9.93479
9.85287
9.77323
9.5915
9.19698
8.40573
6.8999
1
1.00001
1.00003
1.0001
1.00021
1.0006
1.00122
1.00347
1.00685
1.02091
1.0375
1.13468
1.23605
1.89491
3.06374
7.07738
10.2011
10.0732
9.77621
9.61054
9.47605
9.21529
8.73325
7.93274
6.74402
1
1.00001
1.00003
1.00008
1.00018
1.00051
1.00104
1.00294
1.00594
1.01719
1.03367
1.10622
1.2004
1.69943
2.62311
5.75321
10.039
9.9426
9.64874
9.38526
9.18996
8.8897
8.39496
7.66201
6.72286
1
1.00001
1.00002
1.00007
1.00014
1.00041
1.00085
1.0024
1.00485
1.01395
1.0276
1.08405
1.16615
1.53846
2.25465
4.64047
9.5761
9.72355
9.53027
9.18658
8.9361
8.61782
8.1488
7.49716
6.70965
1
1
1.00002
1.00004
1.00013
1.00028
1.00079
1.0016
1.00456
1.00896
1.02741
1.04936
1.17549
1.31867
2.16667
3.76549
8.54791
9.47097
9.33597
9.02537
8.72338
8.39106
7.95485
7.37498
6.6907
1
1
1.00001
1.00003
1.00011
1.00022
1.00063
1.00128
1.00365
1.00719
1.02189
1.03931
1.1403
1.24644
1.92846
3.12031
7.03499
9.21682
9.14065
8.90068
8.5515
8.20422
7.79152
7.27058
6.66558
0.999999
1
1.00001
1.00002
1.00008
1.00017
1.0005
1.00102
1.0029
1.00585
1.01692
1.03309
1.10421
1.19814
1.6809
2.57317
5.51812
8.98294
8.98241
8.81297
8.44226
8.05621
7.65536
7.18221
6.64294
0.999997
0.999999
1
1.00002
1.00005
1.00015
1.00032
1.0009
1.00182
1.00518
1.01024
1.03096
1.05675
1.19351
1.3778
2.24485
4.01895
8.4239
8.8655
8.71504
8.35895
7.93868
7.54237
7.1066
6.62141
0.999996
0.999997
1
1.00001
1.00003
1.00011
1.00023
1.00067
1.00136
1.00386
1.00756
1.02327
1.04138
1.14828
1.26242
1.97687
3.22612
7.12323
8.62059
8.53566
8.27627
7.8486
7.45315
7.0471
6.6027
0.999994
0.999995
0.999999
1
1.00003
1.00006
1.0002
1.0004
1.00116
1.00225
1.00696
1.01214
1.04391
1.07186
1.27372
1.54529
2.74818
5.42102
8.31574
8.34613
8.19246
7.82739
7.39304
6.99331
6.58185
0.999993
0.999994
0.999997
1
1.00002
1.00005
1.00015
1.00031
1.00088
1.00179
1.00505
1.0101
1.02976
1.05614
1.18379
1.36188
2.17639
3.76215
7.70029
8.23827
8.11654
7.80671
7.35363
6.95215
6.56376
0.999993
0.999993
0.999994
0.999999
1.00001
1.00004
1.00009
1.00025
1.00052
1.00148
1.00294
1.00871
1.01595
1.05408
1.09212
1.33869
1.68915
3.13968
6.25565
8.0067
7.96446
7.76537
7.35024
6.92939
6.54903
0.999992
0.999992
0.999993
0.999997
1
1.00002
1.00006
1.00018
1.00038
1.00107
1.00217
1.00615
1.01204
1.03692
1.06604
1.23087
1.45017
2.43984
4.49663
7.56618
7.81759
7.69068
7.36048
6.93013
6.5464
0.999992
0.999992
0.999993
0.999994
1
1.00001
1.00005
1.00011
1.00031
1.00064
1.0018
1.00365
1.01037
1.02056
1.0611
1.12135
1.37304
1.84795
3.33629
6.57004
7.62947
7.56688
7.35035
6.94226
6.55043
0.999991
0.999991
0.999992
0.999993
0.999998
1
1.00003
1.00007
1.00021
1.00044
1.00124
1.00251
1.00707
1.01387
1.04214
1.07631
1.26096
1.52387
2.61889
4.91914
7.27342
7.40869
7.29893
6.99422
6.56757
0.999991
0.999991
0.999991
0.999993
0.999995
1
1.00001
1.00005
1.00012
1.00035
1.00071
1.002
1.00403
1.0114
1.02273
1.06616
1.13511
1.39921
1.91306
3.4198
6.50401
7.26044
7.2008
6.99864
6.60835
0.999991
0.999991
0.999991
0.999992
0.999993
0.999998
1.00001
1.00003
1.00008
1.00023
1.00048
1.00133
1.0027
1.00754
1.01497
1.04417
1.08314
1.26847
1.5615
2.65113
4.96653
6.94941
7.06368
6.96763
6.70303
0.999991
0.999991
0.999991
0.999991
0.999993
0.999995
1
1.00001
1.00006
1.00012
1.00036
1.00073
1.00205
1.00413
1.01166
1.0233
1.06721
1.13837
1.4025
1.91484
3.37861
6.25873
6.93271
6.89086
6.72129
0.999991
0.999991
0.999991
0.999991
0.999992
0.999994
0.999997
1.00001
1.00003
1.00009
1.00019
1.00055
1.00112
1.00311
1.00612
1.01824
1.03274
1.11176
1.19571
1.68737
2.47974
4.86606
6.63969
6.77195
6.6918
0.999991
0.99999
0.99999
0.999991
0.999991
0.999992
0.999995
1
1.00001
1.00006
1.00012
1.00036
1.00073
1.00203
1.0041
1.01145
1.02302
1.06544
1.13573
1.38929
1.87768
3.25528
5.95478
6.63634
6.61124
0.999991
0.99999
0.99999
0.99999
0.999991
0.999991
0.999993
0.999997
1.00001
1.00003
1.00009
1.00019
1.00053
1.00107
1.00298
1.00589
1.01734
1.03142
1.1057
1.18613
1.64004
2.37632
4.56849
6.31821
6.50922
0.999991
0.99999
0.99999
0.99999
0.999991
0.999991
0.999992
0.999994
1
1.00001
1.00005
1.00012
1.00034
1.00069
1.00191
1.00386
1.01069
1.02154
1.06055
1.12576
1.35594
1.80067
3.05124
5.56936
6.35023
0.999991
0.99999
0.99999
0.99999
0.99999
0.999991
0.999991
0.999993
0.999997
1
1.00003
1.00007
1.0002
1.00043
1.00117
1.00239
1.00656
1.01312
1.03753
1.07165
1.22287
1.4519
2.31555
4.06768
5.95158
0.999991
0.99999
0.99999
0.99999
0.99999
0.99999
0.999991
0.999992
0.999994
0.999999
1.00001
1.00004
1.00012
1.00025
1.00071
1.00144
1.00394
1.00793
1.02222
1.04292
1.13119
1.2502
1.77718
2.69883
5.07729
0.999991
0.99999
0.99999
0.99999
0.99999
0.99999
0.999991
0.999991
0.999992
0.999996
1
1.00002
1.00006
1.00017
1.00036
1.00098
1.00199
1.00549
1.01084
1.03156
1.05825
1.18639
1.36303
2.06041
3.39752
0.999991
0.99999
0.99999
0.99999
0.99999
0.99999
0.99999
0.999991
0.999992
0.999993
0.999999
1.00001
1.00004
1.00008
1.00025
1.00051
1.0014
1.00284
1.00785
1.01566
1.04435
1.08995
1.25589
1.5666
2.47679
0.999991
0.99999
0.99999
0.99999
0.99999
0.99999
0.99999
0.999991
0.999991
0.999992
0.999995
1
1.00001
1.00005
1.00012
1.00034
1.00071
1.00194
1.00391
1.01077
1.02151
1.06059
1.12376
1.34753
1.76839
0.999991
0.99999
0.99999
0.99999
0.99999
0.99999
0.99999
0.99999
0.999991
0.999991
0.999993
0.999997
1
1.00003
1.00007
1.0002
1.00042
1.00115
1.00233
1.00639
1.01266
1.03632
1.06885
1.21005
1.42931
0.999991
0.99999
0.99999
0.99999
0.99999
0.99999
0.99999
0.99999
0.999991
0.999991
0.999992
0.999994
1
1.00001
1.00005
1.0001
1.00029
1.0006
1.00166
1.00335
1.00927
1.01855
1.05229
1.10718
1.30301
0.999991
0.99999
0.99999
0.99999
0.99999
0.99999
0.99999
0.99999
0.99999
0.999991
0.999991
0.999993
0.999996
1.00001
1.00002
1.00008
1.00017
1.00047
1.00097
1.00269
1.00544
1.01542
1.03025
1.09218
1.17617
0.999991
0.99999
0.99999
0.99999
0.99999
0.99999
0.99999
0.99999
0.99999
0.999991
0.999991
0.999992
0.999995
1
1.00002
1.00005
1.00015
1.00032
1.00092
1.00187
1.00534
1.01064
1.03225
1.05961
1.20634
0.999991
0.99999
0.99999
0.99999
0.99999
0.99999
0.99999
0.99999
0.99999
0.99999
0.999991
0.999992
0.999994
0.999998
1.00001
1.00004
1.00013
1.00027
1.00079
1.00161
1.00475
1.00931
1.02983
1.05307
1.19884
0.999991
0.99999
0.99999
0.99999
0.99999
0.99999
0.99999
0.99999
0.99999
0.99999
0.999991
0.999992
0.999993
0.999998
1.00001
1.00004
1.00009
1.00028
1.00056
1.0018
1.00326
1.01174
1.01967
1.07682
1.13151
0.999991
0.99999
0.99999
0.99999
0.99999
0.99999
0.99999
0.99999
0.99999
0.99999
0.999991
0.999991
0.999994
0.999997
1.00001
1.00003
1.00011
1.00024
1.00072
1.00142
1.00454
1.00813
1.02976
1.04972
1.19599
0.999991
0.99999
0.99999
0.99999
0.99999
0.99999
0.99999
0.99999
0.99999
0.99999
0.999991
0.999991
0.999993
0.999998
1.00001
1.00004
1.00008
1.00027
1.00052
1.00176
1.00308
1.01161
1.0191
1.07609
1.12996
0.999991
0.99999
0.99999
0.99999
0.99999
0.99999
0.99999
0.99999
0.99999
0.99999
0.999991
0.999991
0.999994
0.999997
1.00001
1.00003
1.00011
1.00024
1.00073
1.00149
1.0045
1.0087
1.02897
1.05071
1.19531
0.999991
0.99999
0.99999
0.99999
0.99999
0.99999
0.99999
0.99999
0.99999
0.99999
0.999991
0.999991
0.999994
0.999997
1.00001
1.00003
1.00011
1.00024
1.00073
1.00149
1.0045
1.00861
1.02905
1.05043
1.19543
0.999991
0.99999
0.99999
0.99999
0.99999
0.99999
0.99999
0.99999
0.99999
0.99999
0.999991
0.999992
0.999993
0.999999
1.00001
1.00004
1.00009
1.00029
1.0006
1.00181
1.00353
1.01153
1.02014
1.07682
1.13146
0.999991
0.99999
0.99999
0.99999
0.99999
0.99999
0.99999
0.99999
0.99999
0.99999
0.999991
0.999992
0.999993
0.999999
1.00001
1.00004
1.0001
1.00031
1.00065
1.0019
1.00384
1.01165
1.022
1.07601
1.13594
1
1.00002
1.00005
1.00014
1.00029
1.00082
1.00165
1.00473
1.0093
1.02867
1.0515
1.18546
1.33858
2.25094
4.01899
9.43545
10.3935
10.2697
10.1056
10.0964
10.0778
9.98868
9.7363
9.14985
7.67489
1
1.00002
1.00004
1.00012
1.00025
1.00071
1.00145
1.00412
1.00816
1.02465
1.04504
1.1588
1.28676
2.06625
3.52811
8.31066
10.2869
10.1738
9.93486
9.85295
9.77331
9.59158
9.19706
8.4058
6.89997
1
1.00001
1.00004
1.0001
1.00021
1.0006
1.00123
1.00348
1.00686
1.02092
1.03752
1.1347
1.2361
1.89496
3.06392
7.07775
10.2012
10.0732
9.77628
9.61061
9.47612
9.21536
8.73332
7.93281
6.74409
1
1.00001
1.00003
1.00009
1.00018
1.00051
1.00105
1.00295
1.00595
1.0172
1.03369
1.10624
1.20044
1.69947
2.62328
5.7536
10.0391
9.94266
9.6488
9.38533
9.19003
8.88977
8.39503
7.66208
6.72293
1
1.00001
1.00002
1.00007
1.00015
1.00042
1.00085
1.00241
1.00486
1.01396
1.02761
1.08406
1.16619
1.53849
2.25477
4.64068
9.57632
9.72364
9.53034
9.18665
8.93617
8.61789
8.14887
7.49722
6.70972
1
1.00001
1.00002
1.00005
1.00014
1.00028
1.00079
1.00161
1.00456
1.00898
1.02742
1.04938
1.17552
1.31872
2.16674
3.7657
8.54829
9.47104
9.33604
9.02542
8.72344
8.39112
7.95491
7.37504
6.69076
1
1.00001
1.00002
1.00004
1.00011
1.00023
1.00064
1.00129
1.00366
1.0072
1.02191
1.03933
1.14032
1.24649
1.92851
3.12052
7.03539
9.21688
9.1407
8.90073
8.55155
8.20427
7.79158
7.27064
6.66564
1
1
1.00001
1.00003
1.00009
1.00018
1.00051
1.00103
1.00291
1.00586
1.01693
1.03311
1.10422
1.19819
1.68094
2.57335
5.51851
8.98303
8.98248
8.81302
8.44229
8.05625
7.65542
7.18227
6.64299
1
1
1.00001
1.00003
1.00006
1.00016
1.00032
1.0009
1.00183
1.00519
1.01025
1.03098
1.05677
1.19353
1.37787
2.24489
4.01927
8.42412
8.86558
8.7151