/*--------------------------------*- C++ -*----------------------------------*\
| =========                 |                                                 |
| \\      /  F ield         | OpenFOAM: The Open Source CFD Toolbox           |
|  \\    /   O peration     | Version:  4.1                                   |
|   \\  /    A nd           | Web:      www.OpenFOAM.org                      |
|    \\/     M anipulation  |                                                 |
\*---------------------------------------------------------------------------*/
FoamFile
{
    version     2.0;
    format      ascii;
    class       volVectorField;
    location    "6.12";
    object      U;
}
// * * * * * * * * * * * * * * * * * * * * * * * * * * * * * * * * * * * * * //

dimensions      [0 1 -1 0 0 0 0];

internalField   nonuniform List<vector> 
52500
(
(3 1.4968e-08 -0.00571426)
(2.99998 8.33234e-08 -0.0057144)
(2.99996 3.09552e-07 -0.00571462)
(2.99989 7.9716e-07 -0.0057153)
(2.99974 2.18948e-06 -0.00571656)
(2.99933 5.03332e-06 -0.00572037)
(2.99853 1.29595e-05 -0.0057278)
(2.99601 2.95207e-05 -0.00574802)
(2.99164 7.37568e-05 -0.00579724)
(2.97506 0.000165598 -0.00589665)
(2.9457 0.000448436 -0.00627699)
(2.8352 0.00103841 -0.00681455)
(2.53274 0.00288976 -0.00940052)
(1.80661 0.00757497 -0.0142502)
(0.805908 0.0213312 -0.0177552)
(0.493488 0.0214022 -0.0184871)
(0.555481 0.0226746 -0.0185049)
(0.572179 0.0249318 -0.0185502)
(0.522797 0.0271132 -0.0187331)
(0.435607 0.0292032 -0.0189137)
(0.349011 0.0317983 -0.0191149)
(0.277978 0.0350392 -0.0192829)
(0.207309 0.0385664 -0.0194502)
(0.125612 0.0428342 -0.0196207)
(0.0558969 0.0493244 -0.019778)
(3 4.50109e-08 -0.00571426)
(2.99998 2.50031e-07 -0.0057144)
(2.99996 9.30517e-07 -0.00571461)
(2.99989 2.39402e-06 -0.00571529)
(2.99975 6.59165e-06 -0.00571652)
(2.99934 1.51509e-05 -0.00572028)
(2.99855 3.91549e-05 -0.00572761)
(2.99607 8.91559e-05 -0.00574749)
(2.99175 0.00022423 -0.00579619)
(2.97536 0.000503005 -0.00589382)
(2.94644 0.00137402 -0.00627012)
(2.83707 0.00319308 -0.00679749)
(2.5387 0.00896026 -0.00936397)
(1.8203 0.023688 -0.0141606)
(0.813213 0.0655287 -0.017651)
(0.489736 0.0626512 -0.0184154)
(0.553754 0.0637676 -0.0184308)
(0.571083 0.0681096 -0.0184683)
(0.521183 0.0720616 -0.0186435)
(0.433825 0.0757139 -0.0188168)
(0.347346 0.0802451 -0.0190101)
(0.275875 0.0856627 -0.0191669)
(0.204177 0.0909022 -0.0193263)
(0.121208 0.0963112 -0.019482)
(0.0514049 0.102435 -0.0196206)
(3 7.40779e-08 -0.00571426)
(2.99998 4.10452e-07 -0.00571439)
(2.99996 1.53242e-06 -0.0057146)
(2.99989 3.9418e-06 -0.00571526)
(2.99975 1.08972e-05 -0.00571646)
(2.99936 2.50839e-05 -0.0057201)
(2.99859 6.51417e-05 -0.00572724)
(2.99617 0.000148871 -0.00574645)
(2.99198 0.000376097 -0.0057941)
(2.976 0.000846205 -0.00588817)
(2.948 0.00233399 -0.00625615)
(2.84102 0.00543118 -0.00676325)
(2.55166 0.0154281 -0.00928947)
(1.85089 0.040931 -0.0139837)
(0.830582 0.113948 -0.0174975)
(0.484378 0.106719 -0.0183328)
(0.553029 0.107255 -0.0183459)
(0.572231 0.114548 -0.0183745)
(0.522019 0.121634 -0.0185421)
(0.435071 0.12893 -0.0187055)
(0.349417 0.137474 -0.0188889)
(0.277929 0.147086 -0.0190385)
(0.205471 0.156514 -0.0191821)
(0.121416 0.165598 -0.019334)
(0.0502256 0.173541 -0.0194588)
(3 9.51695e-08 -0.00571425)
(2.99998 5.26288e-07 -0.00571439)
(2.99996 1.96754e-06 -0.00571459)
(2.9999 5.04496e-06 -0.00571521)
(2.99976 1.39877e-05 -0.00571636)
(2.99938 3.20344e-05 -0.00571984)
(2.99865 8.44369e-05 -0.00572669)
(2.99632 0.000187984 -0.00574487)
(2.99234 0.00050508 -0.005791)
(2.97697 0.0010862 -0.00587962)
(2.95037 0.00321378 -0.00623499)
(2.84713 0.00716529 -0.00671113)
(2.57171 0.023283 -0.00917441)
(1.89826 0.0588766 -0.0137181)
(0.856774 0.165106 -0.0172958)
(0.475361 0.151828 -0.0182437)
(0.552273 0.150324 -0.0182549)
(0.575298 0.160222 -0.0182686)
(0.525416 0.170459 -0.018425)
(0.439653 0.181789 -0.0185808)
(0.355365 0.194691 -0.0187438)
(0.28429 0.209008 -0.0188791)
(0.211219 0.223379 -0.0190231)
(0.125589 0.236921 -0.0191575)
(0.0513651 0.247118 -0.0192877)
(3 1.08162e-07 -0.00571425)
(2.99999 5.97271e-07 -0.00571438)
(2.99996 2.23292e-06 -0.00571457)
(2.9999 5.69836e-06 -0.00571516)
(2.99978 1.58333e-05 -0.00571625)
(2.99942 3.59408e-05 -0.00571955)
(2.99872 9.67973e-05 -0.00572603)
(2.99652 0.000205318 -0.00574335)
(2.99274 0.000611168 -0.00578674)
(2.97822 0.0011999 -0.0058712)
(2.9532 0.0040765 -0.00620489)
(2.85637 0.00847571 -0.00665786)
(2.60006 0.0316923 -0.00895754)
(1.96505 0.0767067 -0.0133117)
(0.898876 0.2179 -0.0170251)
(0.470115 0.198188 -0.0181308)
(0.556469 0.193447 -0.0181397)
(0.584082 0.205406 -0.0181395)
(0.534291 0.218512 -0.0182832)
(0.449693 0.233956 -0.0184339)
(0.366567 0.251222 -0.0185937)
(0.295796 0.270428 -0.0187057)
(0.221852 0.290335 -0.018818)
(0.133554 0.309204 -0.0189555)
(0.0546829 0.322461 -0.019069)
(3 1.18843e-07 -0.00571425)
(2.99999 6.56637e-07 -0.00571437)
(2.99997 2.44716e-06 -0.00571455)
(2.99991 6.228e-06 -0.00571511)
(2.99979 1.72468e-05 -0.00571613)
(2.99945 3.88624e-05 -0.00571925)
(2.9988 0.000105984 -0.00572528)
(2.99675 0.000213354 -0.0057419)
(2.99317 0.000706746 -0.00578137)
(2.97981 0.00117093 -0.00586294)
(2.95659 0.00505314 -0.00616386)
(2.86821 0.00957393 -0.00659658)
(2.63614 0.0384088 -0.00866273)
(2.05098 0.0918876 -0.0127743)
(0.957507 0.267192 -0.0166779)
(0.471501 0.245814 -0.0179952)
(0.567497 0.237831 -0.0180081)
(0.600393 0.250856 -0.017978)
(0.55062 0.266249 -0.0181245)
(0.467208 0.285993 -0.018233)
(0.384782 0.308219 -0.0183926)
(0.313913 0.33325 -0.0185136)
(0.238688 0.359983 -0.0186147)
(0.14659 0.386242 -0.0187191)
(0.0606102 0.404835 -0.0188425)
(3 1.40194e-07 -0.00571425)
(2.99999 7.75001e-07 -0.00571436)
(2.99997 2.88899e-06 -0.00571453)
(2.99991 7.38673e-06 -0.00571505)
(2.9998 2.04333e-05 -0.005716)
(2.99949 4.6434e-05 -0.00571893)
(2.99887 0.000124465 -0.00572446)
(2.99702 0.000261771 -0.00574073)
(2.99354 0.000802293 -0.00577497)
(2.98178 0.00140475 -0.00585761)
(2.96038 0.00566916 -0.00610738)
(2.88198 0.0106202 -0.00652754)
(2.67851 0.0418905 -0.00830312)
(2.15422 0.101156 -0.0121068)
(1.03747 0.305421 -0.0162492)
(0.489625 0.294853 -0.0178171)
(0.588835 0.287474 -0.017834)
(0.625914 0.299288 -0.0177978)
(0.576254 0.315195 -0.0179501)
(0.494274 0.338521 -0.018056)
(0.412375 0.366073 -0.0181564)
(0.341199 0.39803 -0.0182507)
(0.264432 0.433606 -0.0183389)
(0.167521 0.470634 -0.0184341)
(0.0712848 0.499566 -0.0185205)
(3 1.58877e-07 -0.00571425)
(2.99999 8.77741e-07 -0.00571435)
(2.99997 3.27146e-06 -0.0057145)
(2.99992 8.39071e-06 -0.00571497)
(2.99982 2.31761e-05 -0.00571583)
(2.99954 5.3042e-05 -0.00571847)
(2.99897 0.000139217 -0.00572347)
(2.99732 0.000308864 -0.00573812)
(2.99412 0.000834759 -0.00576863)
(2.98381 0.00173606 -0.00584501)
(2.96444 0.00544681 -0.00605742)
(2.89635 0.0110115 -0.00645169)
(2.72204 0.0391763 -0.00794714)
(2.26789 0.095756 -0.0113739)
(1.14331 0.29351 -0.015744)
(0.540147 0.332983 -0.0175462)
(0.626482 0.340279 -0.0175432)
(0.661754 0.349752 -0.017532)
(0.612512 0.36546 -0.0176879)
(0.532946 0.39236 -0.0178207)
(0.451525 0.425853 -0.017928)
(0.380053 0.465842 -0.0179783)
(0.302445 0.512386 -0.0180327)
(0.201203 0.565447 -0.0180756)
(0.0903674 0.615532 -0.0181399)
(3 1.76543e-07 -0.00571425)
(2.99999 9.68607e-07 -0.00571434)
(2.99997 3.60131e-06 -0.00571447)
(2.99993 9.23246e-06 -0.00571489)
(2.99984 2.54167e-05 -0.00571567)
(2.99959 5.82367e-05 -0.00571803)
(2.99908 0.000151307 -0.0057225)
(2.9976 0.000342072 -0.00573568)
(2.99473 0.00085927 -0.0057628)
(2.98558 0.00202983 -0.00583207)
(2.96825 0.00498227 -0.00601794)
(2.90843 0.0117762 -0.00637763)
(2.757 0.0337535 -0.00767708)
(2.35393 0.0837509 -0.0107487)
(1.25069 0.248507 -0.0154951)
(0.591016 0.371459 -0.0173699)
(0.651426 0.401322 -0.0173524)
(0.68647 0.400175 -0.0173172)
(0.647273 0.416094 -0.0174509)
(0.576903 0.446011 -0.0175158)
(0.500225 0.4869 -0.017612)
(0.431166 0.535783 -0.0176395)
(0.356515 0.595532 -0.0176399)
(0.256921 0.673363 -0.0176065)
(0.126872 0.767843 -0.0175006)
(3 2.99541e-07 -0.00571425)
(2.99999 5.29062e-07 -0.00571432)
(2.99998 4.35731e-06 -0.00571444)
(2.99994 6.39001e-06 -0.0057148)
(2.99986 2.95024e-05 -0.00571547)
(2.99964 4.12469e-05 -0.00571748)
(2.99921 0.000176322 -0.00572138)
(2.9979 0.000231849 -0.0057323)
(2.99553 0.00106817 -0.00575702)
(2.98722 0.00111182 -0.00581143)
(2.97269 0.00705526 -0.00599185)
(2.91912 0.00508213 -0.00627634)
(2.78649 0.0451687 -0.0075074)
(2.42716 0.0617325 -0.0100436)
(1.38756 0.242784 -0.0150943)
(0.672798 0.428483 -0.0170936)
(0.66355 0.455247 -0.0171142)
(0.691625 0.447706 -0.0171719)
(0.675058 0.465411 -0.017225)
(0.620921 0.49708 -0.0172876)
(0.555297 0.545576 -0.0172972)
(0.493845 0.603913 -0.0172721)
(0.431963 0.682496 -0.017177)
(0.351386 0.802846 -0.0169728)
(0.197141 1.01296 -0.0165593)
(2.99999 1.53568e-08 -2.56866e-09)
(2.99998 8.34394e-08 -8.65352e-09)
(2.99996 3.10429e-07 -1.00854e-08)
(2.99988 7.96398e-07 -1.59983e-08)
(2.99974 2.19139e-06 -1.61426e-08)
(2.99933 5.03293e-06 -2.16052e-08)
(2.99853 1.29601e-05 -2.19074e-08)
(2.99601 2.95159e-05 -2.97993e-08)
(2.99163 7.37567e-05 -3.14218e-08)
(2.97505 0.000165573 -5.69546e-08)
(2.94569 0.000448479 -7.05433e-08)
(2.83519 0.00103827 -1.55976e-07)
(2.53269 0.00289113 -1.91455e-07)
(1.80652 0.00757592 -5.74528e-07)
(0.805874 0.0213329 -5.82987e-07)
(0.493523 0.0214032 6.84369e-08)
(0.555495 0.0226749 -1.03202e-08)
(0.572183 0.0249319 -7.31171e-08)
(0.522802 0.0271132 -7.68506e-08)
(0.435612 0.0292033 -7.81257e-08)
(0.349017 0.0317985 -7.54558e-08)
(0.277983 0.0350395 -7.64908e-08)
(0.207314 0.0385669 -7.80085e-08)
(0.125615 0.0428351 -7.94183e-08)
(0.0558991 0.049326 -8.15325e-08)
(2.99999 4.61148e-08 -2.56089e-09)
(2.99998 2.50501e-07 -8.65803e-09)
(2.99996 9.33008e-07 -1.00721e-08)
(2.99989 2.39231e-06 -1.6029e-08)
(2.99975 6.59745e-06 -1.60972e-08)
(2.99934 1.51514e-05 -2.1642e-08)
(2.99855 3.91601e-05 -2.18946e-08)
(2.99606 8.91548e-05 -2.99007e-08)
(2.99175 0.000224242 -3.13377e-08)
(2.97536 0.00050301 -5.74421e-08)
(2.94643 0.00137413 -6.92907e-08)
(2.83706 0.00319321 -1.59516e-07)
(2.53866 0.00896196 -1.69382e-07)
(1.82021 0.0236902 -5.79888e-07)
(0.813184 0.0655314 -5.77159e-07)
(0.489774 0.0626529 6.62976e-08)
(0.55377 0.0637682 -1.37362e-08)
(0.571088 0.0681098 -7.44202e-08)
(0.521189 0.0720617 -7.73674e-08)
(0.433831 0.0757141 -7.77745e-08)
(0.347353 0.0802457 -7.4811e-08)
(0.27588 0.0856637 -7.58455e-08)
(0.204182 0.0909035 -7.7364e-08)
(0.121211 0.0963131 -7.88486e-08)
(0.0514068 0.102438 -8.12038e-08)
(3 7.5852e-08 -2.54657e-09)
(2.99998 4.11476e-07 -8.66362e-09)
(2.99996 1.53627e-06 -1.00496e-08)
(2.99989 3.93864e-06 -1.60774e-08)
(2.99975 1.09068e-05 -1.60131e-08)
(2.99936 2.50843e-05 -2.16858e-08)
(2.99859 6.51502e-05 -2.1834e-08)
(2.99617 0.000148871 -2.99054e-08)
(2.99198 0.000376114 -3.1181e-08)
(2.97599 0.000846241 -5.7068e-08)
(2.94799 0.00233409 -6.86612e-08)
(2.84101 0.00543171 -1.55921e-07)
(2.55162 0.0154289 -1.67984e-07)
(1.8508 0.0409342 -5.70446e-07)
(0.830553 0.113951 -5.81067e-07)
(0.484414 0.106722 6.56921e-08)
(0.553044 0.107257 -1.69844e-08)
(0.572236 0.114549 -7.64704e-08)
(0.522023 0.121634 -7.83931e-08)
(0.435077 0.12893 -7.72475e-08)
(0.349423 0.137475 -7.38786e-08)
(0.277935 0.147088 -7.50253e-08)
(0.205475 0.156516 -7.66413e-08)
(0.121419 0.165601 -7.81277e-08)
(0.0502273 0.173545 -8.06208e-08)
(3 9.72079e-08 -2.5254e-09)
(2.99998 5.27988e-07 -8.66886e-09)
(2.99996 1.96992e-06 -1.00217e-08)
(2.99989 5.0469e-06 -1.61627e-08)
(2.99976 1.39923e-05 -1.58776e-08)
(2.99938 3.20395e-05 -2.17834e-08)
(2.99865 8.44471e-05 -2.17675e-08)
(2.99632 0.000188014 -3.00375e-08)
(2.99233 0.000505119 -3.10366e-08)
(2.97696 0.00108639 -5.70561e-08)
(2.95036 0.00321414 -6.81517e-08)
(2.84712 0.00716635 -1.52167e-07)
(2.57167 0.0232847 -1.64819e-07)
(1.89817 0.0588817 -5.55966e-07)
(0.856744 0.16511 -5.87151e-07)
(0.475394 0.151831 6.71727e-08)
(0.552284 0.150326 -1.86223e-08)
(0.5753 0.160223 -7.87974e-08)
(0.525419 0.170459 -8.02359e-08)
(0.439657 0.18179 -7.78237e-08)
(0.35537 0.194692 -7.31521e-08)
(0.284295 0.20901 -7.37633e-08)
(0.211223 0.223382 -7.56086e-08)
(0.125592 0.236926 -7.70493e-08)
(0.0513667 0.247124 -7.94389e-08)
(3 1.0997e-07 -2.50575e-09)
(2.99998 5.99303e-07 -8.66537e-09)
(2.99996 2.23032e-06 -1.00394e-08)
(2.9999 5.70619e-06 -1.60877e-08)
(2.99977 1.58136e-05 -1.59633e-08)
(2.99941 3.59198e-05 -2.16696e-08)
(2.99872 9.67278e-05 -2.17365e-08)
(2.99652 0.00020507 -2.9503e-08)
(2.99273 0.000611056 -3.09887e-08)
(2.97821 0.00119796 -5.41532e-08)
(2.95319 0.00407881 -6.54759e-08)
(2.85635 0.00847339 -1.4327e-07)
(2.60003 0.0317003 -1.60729e-07)
(1.96496 0.0767193 -5.32992e-07)
(0.898838 0.217916 -6.12106e-07)
(0.470134 0.198195 6.19597e-08)
(0.556472 0.193447 -2.31192e-08)
(0.584079 0.205405 -7.96679e-08)
(0.53429 0.218511 -8.05452e-08)
(0.449693 0.233956 -7.7089e-08)
(0.366569 0.251223 -7.2459e-08)
(0.295798 0.270429 -7.25671e-08)
(0.221855 0.290339 -7.38296e-08)
(0.133557 0.309209 -7.50164e-08)
(0.0546842 0.322469 -7.73859e-08)
(3 1.20403e-07 -2.48907e-09)
(2.99999 6.60353e-07 -8.65973e-09)
(2.99996 2.44676e-06 -1.01123e-08)
(2.99991 6.24042e-06 -1.59688e-08)
(2.99979 1.72483e-05 -1.63689e-08)
(2.99945 3.88877e-05 -2.18822e-08)
(2.99879 0.000106016 -2.26824e-08)
(2.99675 0.00021345 -3.35821e-08)
(2.99316 0.000706951 -2.87876e-08)
(2.9798 0.00117033 -9.17175e-08)
(2.95658 0.00505557 4.56239e-09)
(2.8682 0.00957423 -2.25501e-07)
(2.63612 0.0384151 -2.81874e-08)
(2.05091 0.0919005 -4.85929e-07)
(0.957501 0.267212 -5.83743e-07)
(0.471542 0.245824 3.13329e-08)
(0.567514 0.237834 -4.84908e-08)
(0.6004 0.250856 -8.81233e-08)
(0.550626 0.266248 -8.54041e-08)
(0.467213 0.285993 -7.70333e-08)
(0.384786 0.308219 -7.35665e-08)
(0.313917 0.333252 -7.24817e-08)
(0.238691 0.359987 -7.35539e-08)
(0.146592 0.386248 -7.45843e-08)
(0.0606114 0.404844 -7.62266e-08)
(3 1.42562e-07 -2.47455e-09)
(2.99999 7.78757e-07 -8.61856e-09)
(2.99997 2.89391e-06 -1.01145e-08)
(2.99991 7.39925e-06 -1.58494e-08)
(2.9998 2.04629e-05 -1.61361e-08)
(2.99949 4.65049e-05 -2.12519e-08)
(2.99887 0.000124623 -2.15578e-08)
(2.99702 0.000262273 -2.83231e-08)
(2.99353 0.000802767 -2.87339e-08)
(2.98178 0.00140784 -6.9828e-08)
(2.96037 0.00566913 -1.17702e-08)
(2.88197 0.0106264 -1.75115e-07)
(2.6785 0.0418889 -6.0616e-08)
(2.15416 0.101161 -4.31095e-07)
(1.03746 0.305432 -5.60301e-07)
(0.489663 0.294857 1.62425e-08)
(0.588855 0.287475 -5.78111e-08)
(0.625926 0.299289 -8.92874e-08)
(0.576265 0.315197 -8.60405e-08)
(0.494283 0.338523 -7.74728e-08)
(0.412382 0.366074 -7.46176e-08)
(0.341204 0.398032 -7.2535e-08)
(0.264436 0.43361 -7.25726e-08)
(0.167523 0.47064 -7.26032e-08)
(0.0712859 0.499576 -7.38455e-08)
(3 1.61735e-07 -2.44181e-09)
(2.99999 8.79687e-07 -8.62594e-09)
(2.99997 3.27475e-06 -1.00886e-08)
(2.99992 8.39545e-06 -1.58237e-08)
(2.99982 2.31872e-05 -1.60268e-08)
(2.99954 5.30652e-05 -2.10544e-08)
(2.99897 0.000139279 -2.09421e-08)
(2.99731 0.000309023 -2.68018e-08)
(2.99412 0.000834966 -2.87711e-08)
(2.9838 0.00173784 -4.19545e-08)
(2.96443 0.00544681 -4.59248e-08)
(2.89634 0.0110152 -1.21931e-07)
(2.72202 0.0391779 -1.15468e-07)
(2.26782 0.0957662 -3.96798e-07)
(1.14328 0.293542 -5.96185e-07)
(0.540151 0.332989 -2.75541e-08)
(0.626488 0.340279 -6.54928e-08)
(0.66176 0.349754 -8.12314e-08)
(0.612521 0.365463 -8.05095e-08)
(0.532955 0.392363 -7.55508e-08)
(0.451532 0.425856 -7.38283e-08)
(0.38006 0.465846 -7.32447e-08)
(0.30245 0.512391 -7.2689e-08)
(0.201206 0.565454 -7.20921e-08)
(0.0903686 0.615543 -7.2057e-08)
(3 1.76221e-07 -2.41735e-09)
(2.99999 9.69219e-07 -8.62822e-09)
(2.99997 3.59327e-06 -1.00946e-08)
(2.99993 9.21699e-06 -1.58207e-08)
(2.99984 2.53847e-05 -1.60113e-08)
(2.99958 5.81761e-05 -2.10054e-08)
(2.99908 0.000151199 -2.07688e-08)
(2.99759 0.000341762 -2.63921e-08)
(2.99473 0.000859084 -2.77051e-08)
(2.98558 0.00202789 -3.96642e-08)
(2.96824 0.0049831 -3.98917e-08)
(2.90842 0.0117742 -1.13952e-07)
(2.75698 0.0337594 -7.46114e-08)
(2.35389 0.0837618 -2.96887e-07)
(1.25066 0.24855 -3.46332e-07)
(0.591022 0.37146 -1.54833e-07)
(0.651438 0.401322 -9.72435e-08)
(0.686482 0.400177 -8.16992e-08)
(0.647284 0.416097 -7.94909e-08)
(0.576913 0.446015 -7.4052e-08)
(0.500234 0.486903 -7.27993e-08)
(0.431174 0.535787 -7.20057e-08)
(0.356521 0.595538 -7.11785e-08)
(0.256925 0.673372 -6.9241e-08)
(0.126874 0.767855 -6.90918e-08)
(3 2.85109e-07 -2.44835e-09)
(2.99999 5.82763e-07 -8.60669e-09)
(2.99998 4.24771e-06 -1.02505e-08)
(2.99994 6.42459e-06 -1.59816e-08)
(2.99986 2.93719e-05 -1.63516e-08)
(2.99964 4.128e-05 -2.16295e-08)
(2.99921 0.000176193 -2.18815e-08)
(2.9979 0.000231907 -3.08812e-08)
(2.99553 0.00106803 -2.6053e-08)
(2.98721 0.00111221 -7.90424e-08)
(2.97268 0.00705472 7.56915e-09)
(2.91911 0.00508409 -9.30371e-08)
(2.78648 0.0451656 5.35051e-08)
(2.42714 0.0617408 -3.1559e-07)
(1.38754 0.242792 -2.8682e-07)
(0.672794 0.428475 -3.10052e-07)
(0.663572 0.455247 -8.768e-08)
(0.691644 0.447709 -7.63606e-08)
(0.675074 0.465415 -7.65535e-08)
(0.620935 0.497084 -7.50171e-08)
(0.555308 0.54558 -7.30399e-08)
(0.493854 0.603918 -7.25308e-08)
(0.431971 0.682502 -7.06904e-08)
(0.351392 0.802855 -6.64789e-08)
(0.197144 1.01297 -6.53273e-08)
(2.99999 1.53567e-08 -3.81818e-13)
(2.99998 8.34387e-08 -2.03662e-12)
(2.99996 3.10426e-07 -4.43731e-12)
(2.99988 7.96391e-07 -9.39844e-12)
(2.99974 2.19137e-06 -1.7088e-11)
(2.99933 5.03288e-06 -3.22607e-11)
(2.99853 1.296e-05 -6.62363e-11)
(2.99601 2.95155e-05 -1.27493e-10)
(2.99163 7.37563e-05 -3.07239e-10)
(2.97505 0.00016557 -5.95225e-10)
(2.94569 0.00044848 -1.75354e-09)
(2.83519 0.00103826 -3.4467e-09)
(2.53269 0.00289119 -9.52964e-09)
(1.80651 0.00757593 -2.26111e-08)
(0.805871 0.0213329 -3.01914e-08)
(0.493524 0.0214031 2.05626e-09)
(0.555496 0.0226748 -1.24524e-09)
(0.572183 0.0249319 -3.87113e-09)
(0.522802 0.0271132 -3.95478e-09)
(0.435612 0.0292033 -3.88956e-09)
(0.349017 0.0317985 -3.86774e-09)
(0.277983 0.0350395 -3.95074e-09)
(0.207314 0.0385669 -4.05783e-09)
(0.125615 0.0428351 -4.11185e-09)
(0.0558993 0.0493261 -4.28403e-09)
(2.99999 4.61147e-08 -3.84306e-13)
(2.99998 2.50501e-07 -2.04667e-12)
(2.99996 9.33005e-07 -4.47412e-12)
(2.99989 2.3923e-06 -9.48043e-12)
(2.99975 6.59744e-06 -1.73323e-11)
(2.99934 1.51514e-05 -3.2817e-11)
(2.99855 3.916e-05 -6.74549e-11)
(2.99606 8.91544e-05 -1.32326e-10)
(2.99175 0.000224242 -3.0779e-10)
(2.97536 0.000503007 -6.28145e-10)
(2.94643 0.00137413 -1.70771e-09)
(2.83706 0.00319319 -3.71683e-09)
(2.53866 0.00896201 -8.44984e-09)
(1.82021 0.0236902 -2.32993e-08)
(0.813182 0.0655312 -3.0248e-08)
(0.489775 0.0626528 2.05292e-09)
(0.55377 0.0637681 -1.35578e-09)
(0.571088 0.0681097 -3.86781e-09)
(0.521189 0.0720616 -3.91238e-09)
(0.433831 0.0757141 -3.81403e-09)
(0.347353 0.0802457 -3.79905e-09)
(0.27588 0.0856637 -3.88597e-09)
(0.204182 0.0909036 -4.00814e-09)
(0.121211 0.0963131 -4.0807e-09)
(0.0514069 0.102438 -4.27612e-09)
(3 7.58521e-08 -3.84036e-13)
(2.99998 4.11477e-07 -2.04366e-12)
(2.99996 1.53627e-06 -4.46886e-12)
(2.99989 3.93865e-06 -9.47182e-12)
(2.99975 1.09068e-05 -1.73096e-11)
(2.99936 2.50843e-05 -3.27569e-11)
(2.99859 6.51502e-05 -6.74524e-11)
(2.99617 0.000148871 -1.31638e-10)
(2.99198 0.000376114 -3.09899e-10)
(2.97599 0.00084624 -6.23401e-10)
(2.94799 0.00233409 -1.72706e-09)
(2.84101 0.0054317 -3.69185e-09)
(2.55162 0.0154288 -8.70729e-09)
(1.8508 0.0409341 -2.37049e-08)
(0.83055 0.113951 -3.13765e-08)
(0.484416 0.106722 2.32028e-09)
(0.553044 0.107257 -1.34913e-09)
(0.572236 0.114549 -3.80628e-09)
(0.522023 0.121634 -3.81625e-09)
(0.435077 0.12893 -3.68567e-09)
(0.349424 0.137475 -3.68354e-09)
(0.277935 0.147088 -3.77979e-09)
(0.205476 0.156516 -3.9228e-09)
(0.12142 0.165602 -4.01231e-09)
(0.0502274 0.173545 -4.22264e-09)
(3 9.72087e-08 -3.82577e-13)
(2.99998 5.27992e-07 -2.03279e-12)
(2.99996 1.96994e-06 -4.44816e-12)
(2.99989 5.04694e-06 -9.43235e-12)
(2.99976 1.39924e-05 -1.72558e-11)
(2.99938 3.20398e-05 -3.26941e-11)
(2.99865 8.44476e-05 -6.75527e-11)
(2.99632 0.000188016 -1.32781e-10)
(2.99233 0.000505121 -3.11976e-10)
(2.97696 0.0010864 -6.33339e-10)
(2.95036 0.00321414 -1.77296e-09)
(2.84712 0.00716638 -3.76348e-09)
(2.57166 0.0232845 -9.07583e-09)
(1.89817 0.0588815 -2.45453e-08)
(0.856742 0.16511 -3.3447e-08)
(0.475395 0.15183 2.90693e-09)
(0.552285 0.150326 -1.1017e-09)
(0.5753 0.160223 -3.68404e-09)
(0.525419 0.170459 -3.6872e-09)
(0.439657 0.18179 -3.5495e-09)
(0.35537 0.194692 -3.51843e-09)
(0.284296 0.20901 -3.5943e-09)
(0.211223 0.223382 -3.7703e-09)
(0.125592 0.236926 -3.89311e-09)
(0.0513668 0.247125 -4.103e-09)
(3 1.09972e-07 -3.68837e-13)
(2.99998 5.99311e-07 -1.97425e-12)
(2.99996 2.23035e-06 -4.25047e-12)
(2.9999 5.70628e-06 -8.99557e-12)
(2.99977 1.58138e-05 -1.60247e-11)
(2.99941 3.59204e-05 -2.98728e-11)
(2.99872 9.6729e-05 -6.19899e-11)
(2.99652 0.000205074 -1.10271e-10)
(2.99273 0.000611059 -3.1391e-10)
(2.97821 0.00119799 -5.10776e-10)
(2.95319 0.00407879 -1.8501e-09)
(2.85635 0.00847345 -3.154e-09)
(2.60003 0.0317001 -1.18916e-08)
(1.96496 0.076719 -2.51215e-08)
(0.898835 0.217915 -3.74026e-08)
(0.470136 0.198194 4.07216e-09)
(0.556473 0.193447 -3.73667e-10)
(0.584078 0.205405 -3.43529e-09)
(0.53429 0.218511 -3.48996e-09)
(0.449694 0.233956 -3.39198e-09)
(0.366569 0.251223 -3.29482e-09)
(0.295799 0.270429 -3.34044e-09)
(0.221855 0.290339 -3.49113e-09)
(0.133557 0.30921 -3.6391e-09)
(0.0546843 0.322469 -3.86296e-09)
(3 1.20404e-07 -3.49598e-13)
(2.99999 6.60354e-07 -1.91125e-12)
(2.99996 2.44676e-06 -4.01413e-12)
(2.99991 6.24043e-06 -8.26805e-12)
(2.99979 1.72484e-05 -1.44935e-11)
(2.99945 3.88877e-05 -2.55775e-11)
(2.99879 0.000106016 -5.38051e-11)
(2.99675 0.00021345 -7.05491e-11)
(2.99316 0.000706951 -3.33483e-10)
(2.9798 0.00117034 -1.85603e-10)
(2.95658 0.00505556 -2.45863e-09)
(2.8682 0.00957424 -2.5052e-09)
(2.63612 0.0384151 -1.33917e-08)
(2.05091 0.0919004 -2.64796e-08)
(0.957497 0.267211 -4.26668e-08)
(0.471543 0.245823 4.89437e-09)
(0.567514 0.237833 3.59128e-10)
(0.600399 0.250856 -3.21555e-09)
(0.550625 0.266248 -3.3455e-09)
(0.467213 0.285993 -3.28582e-09)
(0.384786 0.308219 -3.0634e-09)
(0.313916 0.333252 -3.05475e-09)
(0.238691 0.359987 -3.23373e-09)
(0.146592 0.386249 -3.4207e-09)
(0.0606114 0.404845 -3.59252e-09)
(3 1.42561e-07 -3.63585e-13)
(2.99999 7.78754e-07 -1.96231e-12)
(2.99997 2.89389e-06 -4.22055e-12)
(2.99991 7.39921e-06 -8.76556e-12)
(2.9998 2.04627e-05 -1.59065e-11)
(2.99949 4.65046e-05 -2.93031e-11)
(2.99887 0.000124623 -5.97925e-11)
(2.99702 0.00026227 -1.09556e-10)
(2.99353 0.000802766 -3.18714e-10)
(2.98178 0.00140783 -3.4414e-10)
(2.96037 0.00566914 -2.26777e-09)
(2.88196 0.0106264 -2.81315e-09)
(2.67849 0.041889 -1.28818e-08)
(2.15415 0.101162 -2.66819e-08)
(1.03746 0.305432 -4.70913e-08)
(0.489663 0.294856 4.64409e-09)
(0.588854 0.287474 6.26413e-10)
(0.625925 0.299289 -3.0421e-09)
(0.576264 0.315197 -3.29066e-09)
(0.494282 0.338522 -3.35176e-09)
(0.412381 0.366074 -2.93373e-09)
(0.341203 0.398032 -2.82322e-09)
(0.264436 0.433611 -2.97613e-09)
(0.167523 0.470641 -3.08338e-09)
(0.0712858 0.499576 -3.21959e-09)
(3 1.61735e-07 -3.65298e-13)
(2.99999 8.79688e-07 -1.96676e-12)
(2.99997 3.27476e-06 -4.24795e-12)
(2.99992 8.39546e-06 -8.81386e-12)
(2.99982 2.31872e-05 -1.61105e-11)
(2.99954 5.30653e-05 -2.96681e-11)
(2.99897 0.00013928 -6.0942e-11)
(2.99731 0.000309024 -1.13853e-10)
(2.99412 0.00083497 -2.94312e-10)
(2.9838 0.00173784 -5.27408e-10)
(2.96443 0.00544686 -1.86365e-09)
(2.89634 0.0110152 -2.80625e-09)
(2.72202 0.0391784 -1.17855e-08)
(2.26782 0.0957673 -2.54563e-08)
(1.14327 0.293545 -5.14465e-08)
(0.54015 0.332989 1.35998e-09)
(0.626487 0.340279 -2.5652e-10)
(0.661759 0.349753 -3.06377e-09)
(0.612519 0.365462 -3.36203e-09)
(0.532954 0.392362 -3.48034e-09)
(0.451531 0.425856 -2.96106e-09)
(0.380059 0.465845 -2.81503e-09)
(0.302449 0.512391 -2.89124e-09)
(0.201206 0.565455 -2.89195e-09)
(0.0903685 0.615543 -2.90403e-09)
(3 1.7622e-07 -3.58701e-13)
(2.99999 9.69214e-07 -1.93764e-12)
(2.99997 3.59325e-06 -4.14781e-12)
(2.99993 9.21694e-06 -8.59438e-12)
(2.99984 2.53846e-05 -1.53825e-11)
(2.99958 5.81757e-05 -2.81422e-11)
(2.99908 0.000151198 -5.56914e-11)
(2.99759 0.000341759 -1.0404e-10)
(2.99473 0.000859085 -2.49188e-10)
(2.98558 0.00202787 -4.87153e-10)
(2.96824 0.00498315 -1.2494e-09)
(2.90842 0.0117742 -2.94651e-09)
(2.75698 0.0337598 -6.92653e-09)
(2.35389 0.0837629 -1.62286e-08)
(1.25066 0.248555 -2.73339e-08)
(0.591022 0.37146 -9.74791e-09)
(0.651438 0.401322 -4.43819e-09)
(0.686481 0.400176 -4.02493e-09)
(0.647283 0.416096 -3.99605e-09)
(0.576912 0.446014 -3.76833e-09)
(0.500233 0.486903 -3.2605e-09)
(0.431173 0.535786 -3.01816e-09)
(0.35652 0.595538 -2.96273e-09)
(0.256924 0.673372 -2.83946e-09)
(0.126874 0.767855 -2.75003e-09)
(3 2.85107e-07 -3.84847e-13)
(2.99999 5.82775e-07 -2.03991e-12)
(2.99998 4.24771e-06 -4.51162e-12)
(2.99994 6.42466e-06 -9.39958e-12)
(2.99986 2.9372e-05 -1.76546e-11)
(2.99964 4.12804e-05 -3.34818e-11)
(2.99921 0.000176194 -6.60823e-11)
(2.9979 0.000231909 -1.55271e-10)
(2.99553 0.00106804 -2.21259e-10)
(2.98721 0.00111222 -9.10605e-10)
(2.97268 0.00705476 -6.27185e-10)
(2.91911 0.00508416 -3.7571e-09)
(2.78648 0.0451659 -5.04285e-09)
(2.42713 0.0617413 -1.49808e-08)
(1.38754 0.242793 -2.68914e-08)
(0.672792 0.428474 -2.38221e-08)
(0.663573 0.455246 -4.40767e-09)
(0.691644 0.447709 -3.74351e-09)
(0.675074 0.465415 -4.12239e-09)
(0.620934 0.497084 -4.04793e-09)
(0.555308 0.54558 -3.68442e-09)
(0.493853 0.603917 -3.54111e-09)
(0.43197 0.682502 -3.31227e-09)
(0.351391 0.802855 -3.04654e-09)
(0.197144 1.01297 -3.12435e-09)
(2.99999 1.53567e-08 -2.12618e-14)
(2.99998 8.34387e-08 -9.4477e-14)
(2.99996 3.10426e-07 -3.13046e-13)
(2.99988 7.96391e-07 -6.76941e-13)
(2.99974 2.19137e-06 -1.92403e-12)
(2.99933 5.03288e-06 -3.95681e-12)
(2.99853 1.296e-05 -1.10116e-11)
(2.99601 2.95156e-05 -2.27812e-11)
(2.99163 7.37563e-05 -6.28013e-11)
(2.97505 0.000165571 -1.25069e-10)
(2.94569 0.00044848 -3.93947e-10)
(2.83519 0.00103826 -7.80574e-10)
(2.53269 0.00289119 -2.23521e-09)
(1.80651 0.00757593 -5.34182e-09)
(0.805871 0.0213329 -7.26481e-09)
(0.493524 0.0214031 4.20364e-10)
(0.555496 0.0226748 -2.7841e-10)
(0.572183 0.0249319 -8.79175e-10)
(0.522802 0.0271132 -9.06469e-10)
(0.435612 0.0292033 -9.09743e-10)
(0.349017 0.0317985 -9.02251e-10)
(0.277983 0.0350395 -9.14544e-10)
(0.207314 0.0385669 -9.66574e-10)
(0.125615 0.0428351 -9.76507e-10)
(0.0558993 0.0493261 -1.00711e-09)
(2.99999 4.61147e-08 -2.18833e-14)
(2.99998 2.50501e-07 -9.72507e-14)
(2.99996 9.33005e-07 -3.22318e-13)
(2.99989 2.3923e-06 -6.97059e-13)
(2.99975 6.59744e-06 -1.98375e-12)
(2.99934 1.51514e-05 -4.09114e-12)
(2.99855 3.916e-05 -1.13081e-11)
(2.99606 8.91544e-05 -2.3931e-11)
(2.99175 0.000224242 -6.30211e-11)
(2.97536 0.000503008 -1.32869e-10)
(2.94643 0.00137413 -3.84092e-10)
(2.83706 0.00319319 -8.44066e-10)
(2.53866 0.00896201 -1.98984e-09)
(1.82021 0.0236902 -5.5069e-09)
(0.813182 0.0655312 -7.28815e-09)
(0.489775 0.0626528 4.21222e-10)
(0.55377 0.0637681 -3.02065e-10)
(0.571088 0.0681097 -8.78038e-10)
(0.521189 0.0720616 -8.95993e-10)
(0.433831 0.0757141 -8.9127e-10)
(0.347353 0.0802457 -8.86134e-10)
(0.27588 0.0856637 -9.01681e-10)
(0.204182 0.0909036 -9.5845e-10)
(0.121211 0.0963131 -9.76231e-10)
(0.0514069 0.102438 -1.01762e-09)
(3 7.58521e-08 -2.19201e-14)
(2.99998 4.11477e-07 -9.75056e-14)
(2.99996 1.53627e-06 -3.22829e-13)
(2.99989 3.93865e-06 -6.97898e-13)
(2.99975 1.09068e-05 -1.98603e-12)
(2.99936 2.50843e-05 -4.0906e-12)
(2.99859 6.51502e-05 -1.13413e-11)
(2.99617 0.000148871 -2.38433e-11)
(2.99198 0.000376114 -6.36991e-11)
(2.97599 0.000846241 -1.32171e-10)
(2.94799 0.00233409 -3.89655e-10)
(2.84101 0.0054317 -8.40641e-10)
(2.55162 0.0154288 -2.05502e-09)
(1.8508 0.0409341 -5.61438e-09)
(0.83055 0.113951 -7.57085e-09)
(0.484416 0.106722 4.85303e-10)
(0.553044 0.107257 -2.97922e-10)
(0.572236 0.114549 -8.64638e-10)
(0.522023 0.121634 -8.74898e-10)
(0.435077 0.12893 -8.64271e-10)
(0.349424 0.137475 -8.64059e-10)
(0.277935 0.147088 -8.87926e-10)
(0.205476 0.156516 -9.51586e-10)
(0.121419 0.165602 -9.74756e-10)
(0.0502274 0.173545 -1.02786e-09)
(3 9.72087e-08 -2.17484e-14)
(2.99998 5.27992e-07 -9.65047e-14)
(2.99996 1.96994e-06 -3.2075e-13)
(2.99989 5.04694e-06 -6.93112e-13)
(2.99976 1.39924e-05 -1.9855e-12)
(2.99938 3.20398e-05 -4.09633e-12)
(2.99865 8.44476e-05 -1.14161e-11)
(2.99632 0.000188016 -2.42072e-11)
(2.99233 0.000505121 -6.44805e-11)
(2.97696 0.0010864 -1.35005e-10)
(2.95036 0.00321414 -4.01899e-10)
(2.84712 0.00716638 -8.60318e-10)
(2.57166 0.0232845 -2.14925e-09)
(1.89817 0.0588815 -5.82887e-09)
(0.856742 0.16511 -8.0843e-09)
(0.475395 0.15183 6.22811e-10)
(0.552285 0.150326 -2.37759e-10)
(0.5753 0.160223 -8.39308e-10)
(0.525419 0.170459 -8.48902e-10)
(0.439657 0.18179 -8.41796e-10)
(0.35537 0.194692 -8.35803e-10)
(0.284296 0.20901 -8.59947e-10)
(0.211223 0.223382 -9.38714e-10)
(0.125592 0.236926 -9.7312e-10)
(0.0513668 0.247125 -1.03349e-09)
(3 1.09972e-07 -1.89011e-14)
(2.99998 5.9931e-07 -8.43205e-14)
(2.99996 2.23035e-06 -2.78733e-13)
(2.9999 5.70627e-06 -6.0147e-13)
(2.99977 1.58138e-05 -1.72163e-12)
(2.99941 3.59204e-05 -3.48742e-12)
(2.99872 9.6729e-05 -1.0236e-11)
(2.99652 0.000205074 -1.92122e-11)
(2.99273 0.000611059 -6.5406e-11)
(2.97821 0.00119799 -1.07588e-10)
(2.95319 0.00407879 -4.21948e-10)
(2.85635 0.00847345 -7.23374e-10)
(2.60003 0.0317001 -2.81118e-09)
(1.96496 0.076719 -5.9856e-09)
(0.898835 0.217915 -9.04487e-09)
(0.470136 0.198194 8.94978e-10)
(0.556473 0.193447 -6.71185e-11)
(0.584078 0.205405 -7.88724e-10)
(0.534289 0.218511 -8.11834e-10)
(0.449694 0.233956 -8.18211e-10)
(0.366569 0.251223 -8.03556e-10)
(0.295799 0.270429 -8.22101e-10)
(0.221855 0.290339 -8.97363e-10)
(0.133557 0.30921 -9.42255e-10)
(0.0546842 0.322469 -1.0091e-09)
(3 1.20404e-07 -1.53356e-14)
(2.99999 6.60354e-07 -7.01234e-14)
(2.99996 2.44676e-06 -2.26397e-13)
(2.99991 6.24043e-06 -4.79925e-13)
(2.99979 1.72484e-05 -1.37023e-12)
(2.99945 3.88877e-05 -2.64137e-12)
(2.99879 0.000106016 -8.55691e-12)