/*--------------------------------*- C++ -*----------------------------------*\
| =========                 |                                                 |
| \\      /  F ield         | OpenFOAM: The Open Source CFD Toolbox           |
|  \\    /   O peration     | Version:  4.1                                   |
|   \\  /    A nd           | Web:      www.OpenFOAM.org                      |
|    \\/     M anipulation  |                                                 |
\*---------------------------------------------------------------------------*/
FoamFile
{
    version     2.0;
    format      ascii;
    class       volScalarField;
    location    "0.82";
    object      Ma;
}
// * * * * * * * * * * * * * * * * * * * * * * * * * * * * * * * * * * * * * //

dimensions      [0 0 0 0 0 0 0];

internalField   nonuniform List<scalar> 
18000
(
5.19382e-12
5.13649e-12
5.06761e-12
5.01124e-12
4.95538e-12
4.90016e-12
4.84552e-12
4.792e-12
4.73926e-12
4.68836e-12
6.46861e-12
6.24632e-12
6.02088e-12
5.81414e-12
5.6163e-12
5.4264e-12
5.24408e-12
5.06941e-12
4.90113e-12
4.74359e-12
8.15012e-12
7.66635e-12
7.20442e-12
6.78258e-12
6.38966e-12
6.02422e-12
5.68466e-12
5.36719e-12
5.07154e-12
4.80004e-12
1.0396e-11
9.49948e-12
8.68478e-12
7.95376e-12
7.29703e-12
6.70516e-12
6.17061e-12
5.6871e-12
5.24885e-12
4.85741e-12
1.34397e-11
1.18932e-11
1.05495e-11
9.38065e-12
8.36637e-12
7.482e-12
6.7087e-12
6.03094e-12
5.43414e-12
4.91596e-12
1.76268e-11
1.50571e-11
1.29219e-11
1.11303e-11
9.63194e-12
8.37116e-12
7.30559e-12
6.4005e-12
5.62749e-12
4.97549e-12
2.3471e-11
1.92995e-11
1.59687e-11
1.32918e-11
1.11382e-11
9.39282e-12
7.96835e-12
6.79808e-12
5.8299e-12
5.03595e-12
3.18879e-11
2.52087e-11
2.01163e-11
1.62146e-11
1.32141e-11
1.08851e-11
9.0615e-12
7.62232e-12
6.47706e-12
5.59026e-12
5.41237e-09
5.50199e-09
5.18997e-09
4.90497e-09
4.64685e-09
4.41254e-09
4.19923e-09
4.00447e-09
3.8266e-09
3.75754e-09
5.97765e-07
6.42123e-08
5.48899e-08
4.80219e-08
4.22336e-08
3.73321e-08
3.3165e-08
2.9611e-08
2.64693e-08
1.07879e-07
5.57653e-12
5.51132e-12
5.43867e-12
5.37508e-12
5.31277e-12
5.25159e-12
5.19027e-12
5.13107e-12
5.07256e-12
5.01553e-12
7.00357e-12
6.75118e-12
6.50531e-12
6.27255e-12
6.05053e-12
5.83759e-12
5.63463e-12
5.43988e-12
5.25362e-12
5.07721e-12
8.90016e-12
8.34717e-12
7.83813e-12
7.3598e-12
6.91731e-12
6.50698e-12
6.12721e-12
5.77356e-12
5.44465e-12
5.14132e-12
1.14689e-11
1.04377e-11
9.52485e-12
8.69019e-12
7.94456e-12
7.27611e-12
6.67594e-12
6.13559e-12
5.64643e-12
5.20605e-12
1.50073e-11
1.32108e-11
1.16788e-11
1.03301e-11
9.16803e-12
8.16254e-12
7.28864e-12
6.52695e-12
5.85952e-12
5.2736e-12
1.99712e-11
1.69405e-11
1.44606e-11
1.23658e-11
1.0632e-11
9.18637e-12
7.97485e-12
6.95278e-12
6.08536e-12
5.34345e-12
2.70623e-11
2.20455e-11
1.80942e-11
1.49153e-11
1.23948e-11
1.03749e-11
8.74317e-12
7.41533e-12
6.32336e-12
5.41551e-12
3.74484e-11
2.91438e-11
2.29031e-11
1.81416e-11
1.45349e-11
1.1765e-11
9.61421e-12
7.92445e-12
6.58142e-12
5.49645e-12
2.18196e-10
4.98888e-10
4.12001e-10
3.41502e-10
2.86099e-10
2.41938e-10
2.06353e-10
1.77388e-10
1.53629e-10
1.3619e-10
4.19593e-07
6.16634e-08
5.3969e-08
4.74509e-08
4.20238e-08
3.74644e-08
3.36012e-08
3.03023e-08
2.74758e-08
2.64602e-08
5.50473e-13
5.29617e-13
4.1833e-13
4.03591e-13
3.89773e-13
3.77376e-13
3.6606e-13
3.56321e-13
3.47485e-13
3.37817e-13
7.6312e-13
6.93989e-13
6.26301e-13
5.75524e-13
5.29487e-13
4.88401e-13
4.51363e-13
4.19145e-13
3.92046e-13
3.51631e-13
9.75846e-13
8.58487e-13
8.31279e-13
7.45141e-13
6.68444e-13
6.01271e-13
5.43378e-13
4.93863e-13
4.4956e-13
3.70543e-13
1.32968e-12
1.16276e-12
1.14438e-12
9.9768e-13
8.70901e-13
7.63772e-13
6.7329e-13
5.97169e-13
5.30409e-13
3.9751e-13
1.89504e-12
1.66098e-12
1.59523e-12
1.34833e-12
1.14248e-12
9.7468e-13
8.37032e-13
7.23814e-13
6.26889e-13
4.31945e-13
2.80435e-12
2.45309e-12
2.24288e-12
1.82911e-12
1.50082e-12
1.24243e-12
1.03785e-12
8.74717e-13
7.38023e-13
4.72529e-13
4.28442e-12
3.69473e-12
3.17835e-12
2.48955e-12
1.97028e-12
1.57905e-12
1.28008e-12
1.04968e-12
8.63455e-13
5.19268e-13
6.82297e-12
5.65332e-12
4.54146e-12
3.40076e-12
2.58682e-12
2.00072e-12
1.57097e-12
1.25133e-12
1.00282e-12
5.71067e-13
3.43252e-10
2.11453e-11
1.7014e-11
1.23918e-11
9.22777e-12
7.00643e-12
5.41511e-12
4.25587e-12
3.39409e-12
2.66083e-12
3.58529e-07
5.7326e-09
4.25015e-09
3.2711e-09
2.55701e-09
2.0266e-09
1.62635e-09
1.32e-09
1.08296e-09
9.22504e-10
3.83147e-13
3.60102e-13
1.72077e-13
1.51546e-13
1.31237e-13
1.12134e-13
9.42745e-14
7.78727e-14
6.33707e-14
3.77743e-14
5.3128e-13
4.5955e-13
3.85911e-13
3.36204e-13
2.89574e-13
2.47948e-13
2.11226e-13
1.79462e-13
1.52916e-13
7.97467e-14
5.9565e-13
4.89809e-13
5.23542e-13
4.56204e-13
3.95901e-13
3.44624e-13
3.02042e-13
2.68032e-13
2.39079e-13
1.19651e-13
7.30454e-13
6.36394e-13
7.60734e-13
6.58807e-13
5.69639e-13
4.96006e-13
4.35333e-13
3.86064e-13
3.43247e-13
1.71009e-13
9.61077e-13
9.46462e-13
1.10823e-12
9.43475e-13
8.03621e-13
6.89859e-13
5.97242e-13
5.22101e-13
4.56388e-13
2.24325e-13
1.34936e-12
1.48942e-12
1.61156e-12
1.33693e-12
1.11149e-12
9.33282e-13
7.90682e-13
6.77209e-13
5.79402e-13
2.80829e-13
1.99388e-12
2.3683e-12
2.34117e-12
1.87801e-12
1.51503e-12
1.2372e-12
1.02113e-12
8.52686e-13
7.12393e-13
3.4056e-13
3.21749e-12
3.77022e-12
3.40257e-12
2.62376e-12
2.04316e-12
1.61609e-12
1.29523e-12
1.05158e-12
8.56434e-13
4.03431e-13
3.84722e-10
7.4545e-12
4.8332e-12
3.58136e-12
2.6959e-12
2.06706e-12
1.60984e-12
1.27312e-12
1.01151e-12
4.71111e-13
3.55945e-07
1.7951e-09
1.75986e-10
1.17391e-10
8.05152e-11
5.64471e-11
4.03635e-11
2.93957e-11
2.17738e-11
1.64526e-11
3.82891e-13
3.59398e-13
1.71948e-13
1.51262e-13
1.30858e-13
1.11683e-13
9.41037e-14
7.76263e-14
6.27912e-14
3.69017e-14
5.31181e-13
4.5939e-13
3.86058e-13
3.36425e-13
2.89818e-13
2.47851e-13
2.11087e-13
1.79615e-13
1.52858e-13
7.92568e-14
5.95564e-13
4.89785e-13
5.2419e-13
4.56741e-13
3.96088e-13
3.44931e-13
3.0223e-13
2.67954e-13
2.38828e-13
1.19267e-13
7.30245e-13
6.36727e-13
7.6163e-13
6.59735e-13
5.70367e-13
4.96535e-13
4.35845e-13
3.86442e-13
3.43362e-13
1.70332e-13
9.60179e-13
9.4728e-13
1.11032e-12
9.45166e-13
8.05047e-13
6.91288e-13
5.98035e-13
5.22298e-13
4.56832e-13
2.244e-13
1.34603e-12
1.49133e-12
1.6146e-12
1.3401e-12
1.11404e-12
9.35482e-13
7.92626e-13
6.78465e-13
5.80479e-13
2.81195e-13
1.98438e-12
2.3723e-12
2.3474e-12
1.88339e-12
1.51983e-12
1.24127e-12
1.02432e-12
8.55097e-13
7.14668e-13
3.41729e-13
3.20389e-12
3.77831e-12
3.41374e-12
2.63353e-12
2.05155e-12
1.623e-12
1.30075e-12
1.05611e-12
8.59976e-13
4.05688e-13
4.07437e-10
8.15774e-12
4.98835e-12
3.67158e-12
2.74955e-12
2.09916e-12
1.62893e-12
1.28438e-12
1.018e-12
4.72871e-13
3.77715e-07
1.95948e-09
1.72061e-11
6.22678e-12
4.25717e-12
3.03292e-12
2.2227e-12
1.66982e-12
1.27004e-12
6.19209e-13
3.82927e-13
3.59062e-13
1.72456e-13
1.51793e-13
1.31188e-13
1.1192e-13
9.41174e-14
7.79334e-14
6.31752e-14
3.68106e-14
5.32061e-13
4.59848e-13
3.87276e-13
3.37466e-13
2.90764e-13
2.48549e-13
2.11494e-13
1.79866e-13
1.53458e-13
7.97737e-14
5.9743e-13
4.91577e-13
5.26529e-13
4.58624e-13
3.97835e-13
3.46153e-13
3.03119e-13
2.68584e-13
2.39347e-13
1.19819e-13
7.34106e-13
6.40784e-13
7.65476e-13
6.62825e-13
5.72925e-13
4.98452e-13
4.37174e-13
3.87577e-13
3.44085e-13
1.70826e-13
9.67605e-13
9.54841e-13
1.11653e-12
9.5015e-13
8.08995e-13
6.94619e-13
6.00694e-13
5.24399e-13
4.58277e-13
2.25325e-13
1.35977e-12
1.50471e-12
1.62535e-12
1.34827e-12
1.12041e-12
9.4076e-13
7.96847e-13
6.81484e-13
5.82971e-13
2.82898e-13
2.01002e-12
2.39541e-12
2.36573e-12
1.89733e-12
1.53047e-12
1.24982e-12
1.03105e-12
8.60222e-13
7.18596e-13
3.44447e-13
3.25808e-12
3.81995e-12
3.44539e-12
2.65692e-12
2.06903e-12
1.63654e-12
1.31144e-12
1.06418e-12
8.66039e-13
4.09715e-13
4.33823e-10
8.4411e-12
5.04839e-12
3.71265e-12
2.77901e-12
2.12101e-12
1.64524e-12
1.29647e-12
1.0273e-12
4.79125e-13
4.12052e-07
2.11282e-09
1.71587e-11
5.16594e-12
3.69618e-12
2.7239e-12
2.04692e-12
1.56668e-12
1.20791e-12
5.59907e-13
3.82887e-13
3.58797e-13
1.73015e-13
1.52435e-13
1.31785e-13
1.12504e-13
9.46166e-14
7.8221e-14
6.41134e-14
4.83072e-14
5.33043e-13
4.60467e-13
3.88921e-13
3.38736e-13
2.91883e-13
2.49627e-13
2.12423e-13
1.80547e-13
1.53834e-13
8.34956e-14
5.99689e-13
4.93637e-13
5.29227e-13
4.60992e-13
3.99725e-13
3.47742e-13
3.04204e-13
2.69455e-13
2.40264e-13
1.22077e-13
7.38653e-13
6.4546e-13
7.69789e-13
6.66559e-13
5.76085e-13
5.0103e-13
4.39005e-13
3.88799e-13
3.45583e-13
1.72945e-13
9.76327e-13
9.63546e-13
1.12367e-12
9.55946e-13
8.13627e-13
6.9864e-13
6.04056e-13
5.2701e-13
4.60382e-13
2.27824e-13
1.37636e-12
1.51976e-12
1.63763e-12
1.35814e-12
1.12796e-12
9.47042e-13
8.02252e-13
6.8579e-13
5.8616e-13
2.86138e-13
2.04052e-12
2.42182e-12
2.38623e-12
1.91351e-12
1.54304e-12
1.25998e-12
1.03945e-12
8.6693e-13
7.23764e-13
3.48964e-13
3.30008e-12
3.86654e-12
3.48118e-12
2.68383e-12
2.08946e-12
1.65237e-12
1.32452e-12
1.07483e-12
8.74087e-13
4.15788e-13
4.37976e-10
8.32133e-12
5.10935e-12
3.75791e-12
2.8125e-12
2.14647e-12
1.66547e-12
1.31166e-12
1.0392e-12
4.87908e-13
4.33423e-07
2.0891e-09
1.6216e-11
5.22103e-12
3.74322e-12
2.75962e-12
2.0749e-12
1.58782e-12
1.2243e-12
5.7126e-13
3.82868e-13
3.57666e-13
1.73218e-13
1.52713e-13
1.32725e-13
1.15323e-13
1.03795e-13
1.66381e-13
5.69603e-13
1.60223e-12
5.33395e-13
4.59886e-13
3.89493e-13
3.39524e-13
2.93079e-13
2.51776e-13
2.16844e-13
2.07203e-13
3.71358e-13
1.05303e-12
6.00681e-13
4.93546e-13
5.30142e-13
4.61999e-13
4.01148e-13
3.50172e-13
3.08893e-13
2.82091e-13
3.31201e-13
7.04506e-13
7.4093e-13
6.45874e-13
7.71025e-13
6.67944e-13
5.77722e-13
5.03574e-13
4.44113e-13
3.98156e-13
3.87914e-13
5.16103e-13
9.8035e-13
9.64391e-13
1.12513e-12
9.577e-13
8.1575e-13
7.01253e-13
6.09225e-13
5.3601e-13
4.87123e-13
4.29503e-13
1.38238e-12
1.52104e-12
1.63955e-12
1.36072e-12
1.13111e-12
9.51052e-13
8.08794e-13
6.9638e-13
6.07707e-13
4.10328e-13
2.04897e-12
2.42396e-12
2.38937e-12
1.9177e-12
1.54788e-12
1.26603e-12
1.04779e-12
8.79172e-13
7.44183e-13
4.32364e-13
3.21364e-12
3.87019e-12
3.48695e-12
2.69144e-12
2.09762e-12
1.66092e-12
1.33485e-12
1.09e-12
8.96105e-13
4.77968e-13
2.98924e-10
6.90488e-12
5.11166e-12
3.77108e-12
2.82561e-12
2.15961e-12
1.68052e-12
1.33117e-12
1.06302e-12
5.38796e-13
3.43759e-07
1.0858e-09
1.01787e-11
5.21267e-12
3.76172e-12
2.77844e-12
2.0954e-12
1.61207e-12
1.25169e-12
6.16972e-13
4.06951e-13
4.43513e-13
2.46272e-13
1.56281e-13
2.36322e-13
6.48063e-13
1.47004e-12
5.88523e-12
2.24751e-11
5.17301e-11
5.82291e-13
6.11687e-13
4.8501e-13
3.65169e-13
3.02031e-13
5.66356e-13
1.13698e-12
3.69151e-12
1.3324e-11
3.41749e-11
6.98207e-13
7.60531e-13
6.83627e-13
5.30302e-13
3.96052e-13
4.89203e-13
1.00374e-12
2.52792e-12
8.54984e-12
2.25973e-11
9.03291e-13
1.02712e-12
9.78304e-13
7.7754e-13
5.90124e-13
5.3194e-13
9.35265e-13
1.88602e-12
5.91577e-12
1.54256e-11
1.23108e-12
1.4452e-12
1.38353e-12
1.10647e-12
8.56148e-13
6.87522e-13
8.67432e-13
1.58652e-12
4.36915e-12
1.08694e-11
1.74679e-12
2.08769e-12
1.94594e-12
1.5421e-12
1.19562e-12
9.3221e-13
9.11875e-13
1.5232e-12
3.40924e-12
7.8867e-12
2.55162e-12
3.07537e-12
2.73699e-12
2.12339e-12
1.62968e-12
1.25038e-12
1.06247e-12
1.40967e-12
2.78905e-12
5.87826e-12
3.74273e-12
4.59511e-12
3.86318e-12
2.90717e-12
2.1847e-12
1.64767e-12
1.30613e-12
1.38934e-12
2.37789e-12
4.49224e-12
1.79454e-10
6.31233e-12
5.48373e-12
3.97797e-12
2.90163e-12
2.13744e-12
1.62721e-12
1.47592e-12
2.09952e-12
3.51602e-12
8.78766e-08
2.33303e-09
9.29834e-12
5.34336e-12
3.80892e-12
2.73258e-12
2.01641e-12
1.65348e-12
1.93804e-12
2.82652e-12
2.50568e-12
2.34997e-12
1.50013e-12
1.67286e-13
2.73257e-12
9.11545e-12
2.94405e-11
1.26596e-10
3.70811e-10
4.92367e-10
3.53112e-12
3.40001e-12
2.5108e-12
1.12809e-12
1.36334e-12
6.46334e-12
2.06809e-11
7.73526e-11
2.24887e-10
3.15836e-10
4.7978e-12
4.65247e-12
3.67203e-12
2.2731e-12
2.33366e-13
4.19875e-12
1.45311e-11
5.0493e-11
1.43748e-10
2.16431e-10
6.46115e-12
6.22402e-12
5.06015e-12
3.54321e-12
1.38037e-12
2.33892e-12
1.01498e-11
3.453e-11
9.60091e-11
1.53391e-10
8.69409e-12
8.23007e-12
6.74727e-12
5.00844e-12
2.77766e-12
7.73107e-13
6.97782e-12
2.41656e-11
6.64014e-11
1.11362e-10
1.17471e-11
1.0836e-11
8.83397e-12
6.71627e-12
4.27005e-12
1.12209e-12
4.48259e-12
1.70033e-11
4.72105e-11
8.24776e-11
1.60086e-11
1.42975e-11
1.1464e-11
8.74661e-12
5.93954e-12
2.6527e-12
2.44652e-12
1.21296e-11
3.43142e-11
6.21271e-11
2.21239e-11
1.89849e-11
1.48311e-11
1.12028e-11
7.81995e-12
4.24969e-12
1.00879e-12
8.52657e-12
2.53314e-11
4.74795e-11
5.76693e-10
2.56006e-11
1.9228e-11
1.42252e-11
9.98314e-12
5.9593e-12
1.6797e-12
5.74691e-12
1.88957e-11
3.67141e-11
9.24139e-07
3.39978e-09
2.65769e-11
1.80073e-11
1.2494e-11
7.79487e-12
3.19645e-12
3.56772e-12
1.41422e-11
2.86529e-11
3.30295e-12
2.9709e-12
1.95379e-12
1.97154e-12
8.5577e-12
3.12724e-11
1.43565e-10
5.22226e-10
9.36115e-10
1.06495e-09
4.3702e-12
4.07231e-12
3.09968e-12
1.63684e-12
5.32608e-12
2.10058e-11
8.67389e-11
3.08247e-10
5.79371e-10
6.44034e-10
5.66454e-12
5.34505e-12
4.38939e-12
2.69873e-12
2.8636e-12
1.38303e-11
5.52928e-11
1.91596e-10
3.79434e-10
4.16701e-10
7.31772e-12
6.88134e-12
5.84284e-12
4.17229e-12
1.94197e-12
8.65778e-12
3.63625e-11
1.24182e-10
2.56438e-10
2.79566e-10
9.47986e-12
8.78627e-12
7.533e-12
5.79593e-12
3.06184e-12
4.9583e-12
2.40889e-11
8.28357e-11
1.7749e-10
1.92666e-10
1.238e-11
1.12046e-11
9.55236e-12
7.59315e-12
4.82391e-12
2.55761e-12
1.56463e-11
5.62176e-11
1.25277e-10
1.35726e-10
1.63616e-11
1.43463e-11
1.20264e-11
9.64314e-12
6.72767e-12
2.70146e-12
9.78313e-12
3.86521e-11
8.95447e-11
9.72916e-11
2.1974e-11
1.85178e-11
1.51293e-11
1.20402e-11
8.76654e-12
4.5102e-12
5.52655e-12
2.65972e-11
6.46834e-11
7.07218e-11
2.76457e-10
2.48659e-11
1.91049e-11
1.49124e-11
1.10166e-11
6.595e-12
2.81562e-12
1.80624e-11
4.70533e-11
5.19189e-11
1.98905e-07
9.06241e-09
5.83833e-11
1.83965e-11
1.35357e-11
8.72854e-12
2.94111e-12
1.18282e-11
3.43136e-11
3.83404e-11
1.03321e-12
1.28401e-12
1.54087e-12
3.19428e-12
8.36393e-12
2.44398e-11
8.52453e-11
2.42726e-10
3.55947e-10
3.32793e-10
1.1308e-12
1.29802e-12
1.42481e-12
2.43641e-12
5.99689e-12
1.7188e-11
5.70481e-11
1.56723e-10
2.17061e-10
1.45104e-10
1.23373e-12
1.35494e-12
1.43628e-12
1.98021e-12
4.32115e-12
1.21523e-11
3.8943e-11
1.04081e-10
1.38431e-10
5.90969e-11
1.34298e-12
1.44219e-12
1.52504e-12
1.8125e-12
3.1987e-12
8.61544e-12
2.71101e-11
7.0851e-11
9.14587e-11
2.54731e-11
1.46024e-12
1.54929e-12
1.65186e-12
1.82785e-12
2.53287e-12
6.1237e-12
1.90398e-11
4.93281e-11
6.18977e-11
1.56381e-11
1.5957e-12
1.67399e-12
1.7955e-12
1.93238e-12
2.24192e-12
4.44894e-12
1.34451e-11
3.50137e-11
4.2652e-11
1.39292e-11
1.75629e-12
1.81899e-12
1.9481e-12
2.07774e-12
2.20049e-12
3.36097e-12
9.51667e-12
2.49968e-11
2.97393e-11
1.32608e-11
2.02755e-12
1.98802e-12
2.11424e-12
2.23904e-12
2.2861e-12
2.76857e-12
6.80941e-12
1.79721e-11
2.09091e-11
1.24273e-11
6.97928e-10
1.20585e-11
2.29152e-12
2.40941e-12
2.43095e-12
2.53775e-12
4.96333e-12
1.29951e-11
1.47603e-11
1.14617e-11
3.37839e-07
1.0692e-08
3.762e-11
2.70827e-12
2.59551e-12
2.52256e-12
3.74477e-12
9.42199e-12
1.03893e-11
1.03342e-11
7.78193e-13
1.48218e-12
1.60438e-12
2.51554e-12
4.13374e-12
6.87264e-12
1.46028e-11
5.59754e-11
2.1081e-10
5.80643e-10
7.14301e-13
1.33133e-12
1.38835e-12
2.14125e-12
3.47547e-12
5.77699e-12
1.10528e-11
3.48158e-11
1.28241e-10
3.41689e-10
6.51535e-13
1.1898e-12
1.19542e-12
1.81397e-12
2.9148e-12
4.8113e-12
8.74481e-12
2.29949e-11
8.18232e-11
2.11378e-10
5.98608e-13
1.06846e-12
1.03445e-12
1.55282e-12
2.45668e-12
4.02221e-12
7.058e-12
1.60926e-11
5.42098e-11
1.36414e-10
5.52578e-13
9.64396e-13
8.97641e-13
1.32909e-12
2.07923e-12
3.38931e-12
5.77585e-12
1.18485e-11
3.70053e-11
9.10452e-11
5.1338e-13
8.75352e-13
7.82823e-13
1.14844e-12
1.7815e-12
2.86402e-12
4.786e-12
9.07439e-12
2.58908e-11
6.24997e-11
4.79644e-13
7.99011e-13
6.85133e-13
9.95207e-13
1.52531e-12
2.42921e-12
4.0196e-12
7.1641e-12
1.85123e-11
4.39432e-11
7.90094e-13
7.33795e-13
6.03422e-13
8.6574e-13
1.31539e-12
2.07884e-12
3.40177e-12
5.79792e-12
1.34893e-11
3.15621e-11
1.04118e-09
3.42309e-11
5.95973e-13
7.55083e-13
1.14098e-12
1.78924e-12
2.89631e-12
4.78277e-12
1.00004e-11
2.30999e-11
3.35781e-07
3.33416e-08
2.14878e-10
2.41331e-12
9.59801e-13
1.53818e-12
2.46908e-12
3.99491e-12
7.513e-12
1.71696e-11
1.0497e-12
1.83799e-12
1.63193e-12
2.16805e-12
3.01508e-12
4.36396e-12
6.74429e-12
1.25687e-11
4.98709e-11
1.73852e-10
9.76992e-13
1.68525e-12
1.46266e-12
1.93591e-12
2.66746e-12
3.80141e-12
5.70648e-12
1.0016e-11
3.51501e-11
1.05107e-10
9.06817e-13
1.53876e-12
1.29968e-12
1.71202e-12
2.34368e-12
3.31081e-12
4.84502e-12
7.92846e-12
2.48731e-11
6.73178e-11
8.45287e-13
1.41071e-12
1.16075e-12
1.51799e-12
2.06782e-12
2.89584e-12
4.17302e-12
6.40018e-12
1.79413e-11
4.51238e-11
7.91784e-13
1.29898e-12
1.04104e-12
1.35138e-12
1.8352e-12
2.54998e-12
3.63386e-12
5.31696e-12
1.30836e-11
3.13054e-11
7.45194e-13
1.20128e-12
9.37063e-13
1.20879e-12
1.63027e-12
2.25294e-12
3.19383e-12
4.52402e-12
9.63794e-12
2.23092e-11
7.04089e-13
1.11493e-12
8.47026e-13
1.08481e-12
1.4543e-12
2.00277e-12
2.82208e-12
3.91491e-12
7.15881e-12
1.62357e-11
1.12322e-12
1.04057e-12
7.69116e-13
9.76683e-13
1.30123e-12
1.78333e-12
2.50095e-12
3.42717e-12
5.36963e-12
1.20065e-11
1.50218e-09
6.0582e-11
7.78922e-13
8.80875e-13
1.16832e-12
1.59223e-12
2.22705e-12
3.02044e-12
4.06798e-12
8.98569e-12
4.11945e-07
5.84682e-08
5.2378e-10
2.98319e-12
9.94962e-13
1.42543e-12
1.98641e-12
2.67131e-12
3.09177e-12
6.78549e-12
1.44861e-12
2.31542e-12
1.64714e-12
1.89472e-12
2.27368e-12
2.82036e-12
3.78158e-12
5.77728e-12
1.35812e-11
2.80282e-11
1.37019e-12
2.16701e-12
1.52974e-12
1.76464e-12
2.11474e-12
2.59749e-12
3.34913e-12
4.7458e-12
1.08659e-11
2.07095e-11
1.29132e-12
2.01919e-12
1.40626e-12
1.62441e-12
1.94709e-12
2.37853e-12
2.99988e-12
3.98651e-12
8.46103e-12
1.54749e-11
1.22161e-12
1.88715e-12
1.29479e-12
1.49596e-12
1.79398e-12
2.18689e-12
2.72444e-12
3.44942e-12
6.53865e-12
1.17503e-11
1.15984e-12
1.76892e-12
1.19467e-12
1.37896e-12
1.65552e-12
2.01584e-12
2.49798e-12
3.05899e-12
5.0395e-12
9.03369e-12
1.1048e-12
1.66232e-12
1.1048e-12
1.27394e-12
1.5273e-12
1.86029e-12
2.29866e-12
2.76157e-12
3.87312e-12
6.99458e-12
1.05597e-12
1.56669e-12
1.02413e-12
1.17855e-12
1.41121e-12
1.71932e-12
2.12628e-12
2.51918e-12
2.97258e-12
5.43896e-12
1.51587e-12
1.48257e-12
9.51454e-13
1.09182e-12
1.30561e-12
1.59078e-12
1.96892e-12
2.31871e-12
2.27544e-12
4.24685e-12
1.85658e-09
8.78758e-11
1.00223e-12
1.01194e-12
1.20878e-12
1.47267e-12
1.82436e-12
2.14384e-12
1.73464e-12
3.32396e-12
3.35886e-07
8.03333e-08
8.26844e-10
3.22759e-12
1.05102e-12
1.36184e-12
1.6873e-12
1.98218e-12
1.30887e-12
2.59509e-12
2.02702e-12
2.91972e-12
1.611e-12
1.59871e-12
1.65971e-12
1.79899e-12
2.13794e-12
2.92006e-12
6.26621e-12
8.52179e-12
1.94408e-12
2.78547e-12
1.55144e-12
1.55706e-12
1.62634e-12
1.74496e-12
1.98173e-12
2.4846e-12
5.10448e-12
7.04255e-12
1.86079e-12
2.64705e-12
1.47449e-12
1.49507e-12
1.57313e-12
1.68451e-12
1.86307e-12
2.17357e-12
4.04927e-12
5.73304e-12
1.78537e-12
2.51949e-12
1.39959e-12
1.43052e-12
1.51586e-12
1.62681e-12
1.7759e-12
1.96633e-12
3.19114e-12
4.66592e-12
1.71688e-12
2.40141e-12
1.32741e-12
1.36668e-12
1.45776e-12
1.57001e-12
1.70494e-12
1.82773e-12
2.49623e-12
3.79405e-12
1.65525e-12
2.29284e-12
1.25924e-12
1.30336e-12
1.39775e-12
1.51362e-12
1.64664e-12
1.72784e-12
1.93598e-12
3.08114e-12
1.59908e-12
2.19265e-12
1.19518e-12
1.24203e-12
1.33746e-12
1.45604e-12
1.5911e-12
1.6525e-12
1.47849e-12
2.49788e-12
2.04462e-12
2.10359e-12
1.13483e-12
1.18323e-12
1.27922e-12
1.39807e-12
1.53465e-12
1.59133e-12
1.10884e-12
2.01774e-12
2.13026e-09
1.10277e-10
1.46085e-12
1.12636e-12
1.222e-12
1.34121e-12
1.47872e-12
1.53746e-12
8.12142e-13
1.62108e-12
1.08247e-07
8.99902e-08
1.84373e-09
1.06101e-11
1.09884e-12
1.28017e-12
1.42047e-12
1.48132e-12
5.62667e-13
1.28907e-12
2.80678e-12
3.60506e-12
1.45611e-12
1.21346e-12
1.06527e-12
1.00355e-12
1.1329e-12
1.51909e-12
3.22043e-12
3.72868e-12
2.72602e-12
3.50001e-12
1.45396e-12
1.24694e-12
1.11777e-12
1.03614e-12
1.07459e-12
1.30066e-12
2.75743e-12
3.28256e-12
2.64337e-12
3.38655e-12
1.43054e-12
1.25615e-12
1.14894e-12
1.06582e-12
1.05042e-12
1.14757e-12
2.2697e-12
2.80443e-12
2.56717e-12
3.27776e-12
1.39925e-12
1.25316e-12
1.16684e-12
1.0922e-12
1.05062e-12
1.05698e-12
1.8508e-12
2.39223e-12
2.49679e-12
3.17475e-12
1.36478e-12
1.24265e-12
1.17492e-12
1.11203e-12
1.06106e-12
1.01367e-12
1.49095e-12
2.03594e-12
2.43148e-12
3.07637e-12
1.32723e-12
1.22558e-12
1.17479e-12
1.12575e-12
1.07718e-12
9.98771e-13
1.18108e-12
1.72656e-12
2.37122e-12
2.9838e-12
1.28832e-12
1.20381e-12
1.16835e-12
1.13339e-12
1.09267e-12
9.99359e-13
9.16792e-13
1.4585e-12
2.7952e-12
2.90028e-12
1.24915e-12
1.1797e-12
1.15635e-12
1.13415e-12
1.1042e-12
1.00893e-12
6.91046e-13
1.22816e-12
2.44439e-09
1.2357e-10
1.86893e-12
1.15404e-12
1.14077e-12
1.12984e-12
1.11022e-12
1.02062e-12
4.9858e-13
1.03019e-12
1.5489e-07
8.28824e-08
1.74308e-09
1.69842e-11
1.08533e-12
1.11753e-12
1.11079e-12
1.02877e-12
3.29452e-13
8.6372e-13
3.73348e-12
4.27314e-12
1.14275e-12
7.6215e-13
4.95443e-13
3.50586e-13
4.8449e-13
7.9068e-13
1.9596e-12
1.99434e-12
3.6604e-12
4.20796e-12
1.18641e-12
8.43516e-13
6.00075e-13
4.21097e-13
4.28434e-13
6.37393e-13
1.7959e-12
1.87293e-12
3.58701e-12
4.13603e-12
1.20758e-12
9.00886e-13
6.83979e-13
4.99994e-13
4.24478e-13
5.19055e-13
1.56039e-12
1.67835e-12
3.5173e-12
4.06243e-12
1.21788e-12
9.43656e-13
7.5027e-13
5.74364e-13
4.56952e-13
4.44103e-13
1.35075e-12
1.50321e-12
3.4513e-12
3.98972e-12
1.21934e-12
9.73942e-13
8.03352e-13
6.40151e-13
5.0596e-13
4.15848e-13
1.16316e-12
1.3452e-12
3.38985e-12
3.91824e-12
1.21419e-12
9.9545e-13
8.46386e-13
6.98067e-13
5.6069e-13
4.25504e-13
9.97574e-13
1.2039e-12
3.33156e-12
3.84827e-12
1.2043e-12
1.00943e-12
8.79299e-13
7.46836e-13
6.14487e-13
4.58544e-13
8.53283e-13
1.07872e-12
3.72755e-12
3.78599e-12
1.19102e-12
1.01707e-12
9.04269e-13
7.87463e-13
6.64371e-13
5.032e-13
7.29931e-13
9.68498e-13
2.72986e-09
1.2446e-10
2.25151e-12
1.02252e-12
9.24062e-13
8.21087e-13
7.07922e-13
5.51104e-13
6.27199e-13
8.73359e-13
4.42671e-07
5.50703e-08
1.51685e-09
2.18059e-11
9.62779e-13
8.46266e-13
7.45521e-13
5.95136e-13
5.45569e-13
7.94958e-13
4.62799e-12
4.79217e-12
7.34703e-13
4.96709e-13
2.72392e-13
1.50709e-13
2.65637e-13
4.79917e-13
1.41634e-12
1.25619e-12
4.56586e-12
4.77094e-12
7.79198e-13
5.35175e-13
3.1147e-13
1.24613e-13
1.6273e-13
3.76622e-13
1.40476e-12
1.26801e-12
4.5057e-12
4.74514e-12
8.11848e-13
5.72075e-13
3.60861e-13
1.63023e-13
7.57759e-14
2.76607e-13
1.30143e-12
1.1941e-12
4.44702e-12
4.71447e-12
8.37862e-13
6.0498e-13
4.10442e-13
2.21266e-13
4.61075e-14
1.83494e-13
1.20791e-12
1.12599e-12
4.39117e-12
4.6807e-12
8.57326e-13
6.35232e-13
4.57134e-13
2.81298e-13
1.09004e-13
9.89976e-14
1.12209e-12
1.06324e-12
4.33709e-12
4.64417e-12
8.72084e-13
6.61198e-13
4.99703e-13
3.37536e-13
1.76668e-13
3.18229e-14
1.04406e-12
1.00591e-12
4.28585e-12
4.60715e-12
8.8262e-13
6.83613e-13
5.37665e-13
3.89369e-13
2.38929e-13
6.22451e-14
9.74899e-13
9.54299e-13
4.6585e-12
4.57537e-12
8.88807e-13
7.01598e-13
5.70997e-13
4.35639e-13
2.95622e-13
1.25784e-13
9.1353e-13
9.08074e-13
2.93488e-09
1.15054e-10
2.29734e-12
7.19382e-13
5.99717e-13
4.76329e-13
3.47263e-13
1.86193e-13
8.60061e-13
8.66384e-13
7.0325e-07
2.15926e-08
8.66592e-10
1.6029e-11
6.7177e-13
5.13383e-13
3.93983e-13
2.42887e-13
8.13969e-13
8.40114e-13
5.20211e-12
5.05761e-12
4.20983e-13
5.92067e-13
5.09571e-13
4.39773e-13
4.0128e-13
4.35375e-13
1.19111e-12
9.46856e-13
5.14712e-12
5.06422e-12
3.81248e-13
5.32523e-13
4.56439e-13
3.92184e-13
3.55605e-13
3.98566e-13
1.25192e-12
1.0174e-12
5.09644e-12
5.07081e-12
3.55707e-13
4.80408e-13
4.09313e-13
3.46911e-13
3.12672e-13
3.56918e-13
1.21073e-12
9.95404e-13
5.04673e-12
5.07097e-12
3.43666e-13
4.35795e-13
3.68799e-13
3.09077e-13
2.7403e-13
3.18257e-13
1.17158e-12
9.73623e-13
4.99821e-12
5.0661e-12
3.4365e-13
4.00612e-13
3.3765e-13
2.78646e-13
2.41157e-13
2.82544e-13
1.13417e-12
9.53371e-13
4.95195e-12
5.05814e-12
3.51198e-13
3.73056e-13
3.12242e-13
2.54038e-13
2.13905e-13
2.51347e-13
1.09907e-12
9.34102e-13
4.90711e-12
5.04732e-12
3.62924e-13
3.52353e-13
2.9462e-13
2.36936e-13
1.93803e-13
2.23051e-13
1.06542e-12
9.16455e-13
5.26769e-12
5.0412e-12
3.76737e-13
3.36832e-13
2.82285e-13
2.2579e-13
1.78624e-13
2.00031e-13
1.03429e-12
8.98586e-13
3.0382e-09
1.05755e-10
2.10392e-12
3.25616e-13
2.74313e-13
2.20115e-13
1.71762e-13
1.81936e-13
1.00327e-12
8.81762e-13
8.63618e-07
2.6961e-08
7.23984e-10
1.25216e-11
2.64696e-13
2.21609e-13
1.74813e-13
1.74945e-13
9.74901e-13
9.15931e-13
5.20574e-12
5.02865e-12
3.97139e-13
6.16226e-13
5.39176e-13
4.65666e-13
4.1307e-13
4.27093e-13
1.12597e-12
9.04392e-13
5.15068e-12
5.03735e-12
3.31388e-13
5.47807e-13
4.82193e-13
4.17518e-13
3.72724e-13
3.98635e-13
1.19588e-12
9.78426e-13
5.10034e-12
5.04706e-12
2.81671e-13
4.85488e-13
4.28966e-13
3.71716e-13
3.32682e-13
3.62006e-13
1.16238e-12
9.5978e-13
5.05102e-12
5.04962e-12
2.50161e-13
4.29978e-13
3.80996e-13
3.30405e-13
2.95921e-13
3.28523e-13
1.13032e-12
9.41204e-13
5.00353e-12
5.04805e-12
2.37808e-13
3.83673e-13
3.40341e-13
2.94349e-13
2.62795e-13
2.96705e-13
1.09957e-12
9.24197e-13
4.95776e-12
5.04238e-12
2.405e-13
3.44956e-13
3.06256e-13
2.63295e-13
2.33162e-13
2.67423e-13
1.07042e-12
9.08017e-13
4.91353e-12
5.03381e-12
2.53018e-13
3.12746e-13
2.77861e-13
2.37871e-13
2.08272e-13
2.40729e-13
1.04231e-12
8.93054e-13
5.27396e-12
5.02969e-12
2.70978e-13
2.8734e-13
2.555e-13
2.1733e-13
1.86755e-13
2.16904e-13
1.01568e-12
8.78138e-13
3.0382e-09
1.05755e-10
2.08184e-12
2.66512e-13
2.36791e-13
2.01394e-13
1.71345e-13
1.9664e-13
9.89628e-13
8.63979e-13
8.63618e-07
2.6961e-08
7.23965e-10
1.24984e-11
1.99357e-13
1.93417e-13
1.65815e-13
1.85316e-13
9.64425e-13
9.13472e-13
4.63152e-12
4.71206e-12
6.4463e-13
5.09723e-13
3.33428e-13
2.26618e-13
2.61493e-13
4.18618e-13
1.19137e-12
1.1154e-12
4.57112e-12
4.69905e-12
6.73826e-13
5.17961e-13
3.36123e-13
1.9399e-13
1.82246e-13
3.37456e-13
1.21136e-12
1.13839e-12
4.51329e-12
4.68233e-12
7.00341e-13
5.3372e-13
3.56655e-13
1.97624e-13
1.18739e-13
2.53309e-13
1.1355e-12
1.0762e-12
4.45706e-12
4.66045e-12
7.23099e-13
5.52077e-13
3.85028e-13
2.25281e-13
9.08039e-14
1.75445e-13
1.06673e-12
1.01923e-12
4.40303e-12
4.6346e-12
7.43852e-13
5.71865e-13
4.16883e-13
2.64022e-13
1.15491e-13
1.08382e-13
1.00378e-12
9.67072e-13
4.35133e-12
4.60602e-12
7.60697e-13
5.91542e-13
4.49371e-13
3.06257e-13
1.62308e-13
6.25671e-14
9.47192e-13
9.2075e-13
4.30159e-12
4.57567e-12
7.74339e-13
6.09831e-13
4.80417e-13
3.48169e-13
2.12765e-13
7.27815e-14
8.96696e-13
8.79062e-13
4.6753e-12
4.55024e-12
7.84793e-13
6.26387e-13
5.0921e-13
3.87274e-13
2.61317e-13
1.17541e-13
8.52603e-13
8.42178e-13
2.93488e-09
1.15056e-10
2.2485e-12
6.42295e-13
5.35056e-13
4.24084e-13
3.07283e-13
1.67969e-13
8.14643e-13
8.1041e-13
7.0325e-07
2.15926e-08
8.6655e-10
1.59822e-11
5.98329e-13
4.57606e-13
3.49967e-13
2.18129e-13
7.82101e-13
8.03773e-13
3.73311e-12
4.17236e-12
9.98177e-13
6.56325e-13
3.95603e-13
2.19e-13
3.32058e-13
6.06993e-13
1.46597e-12
1.68291e-12
3.66599e-12
4.12321e-12
1.04818e-12
7.34257e-13
4.98768e-13
3.08279e-13
2.90873e-13
4.83947e-13
1.37432e-12
1.5937e-12
3.59838e-12
4.06557e-12
1.07892e-12
7.94227e-13
5.83653e-13
3.97715e-13
3.03535e-13
3.85581e-13
1.20256e-12
1.43051e-12
3.53309e-12
4.00552e-12
1.0982e-12
8.39817e-13
6.5239e-13
4.77699e-13
3.49984e-13
3.26291e-13
1.04755e-12
1.28294e-12
3.47132e-12
3.94415e-12
1.10954e-12
8.76238e-13
7.09148e-13
5.47746e-13
4.08926e-13
3.12635e-13
9.09357e-13
1.15061e-12
3.41292e-12
3.88322e-12
1.1135e-12
9.02736e-13
7.55492e-13
6.09345e-13
4.70694e-13
3.33853e-13
7.88202e-13
1.0324e-12
3.35725e-12
3.82266e-12
1.11273e-12
9.22674e-13
7.92574e-13
6.61429e-13
5.28885e-13
3.76524e-13
6.84168e-13
9.29633e-13
3.75364e-12
3.76879e-12
1.107e-12
9.36248e-13
8.23225e-13
7.05595e-13
5.82501e-13
4.26999e-13
5.98153e-13
8.39291e-13
2.72987e-09
1.24463e-10
2.20043e-12
9.47622e-13
8.47077e-13
7.42746e-13
6.29787e-13
4.78753e-13
5.29012e-13
7.63215e-13
4.42671e-07
5.50703e-08
1.51682e-09
2.1769e-11
8.89774e-13
7.71902e-13
6.70249e-13
5.26268e-13
4.78357e-13
7.06206e-13
2.8098e-12
3.51398e-12
1.29408e-12
1.03649e-12
8.75247e-13
7.89522e-13
8.61493e-13
1.13991e-12
2.15252e-12
2.98308e-12
2.73852e-12
3.43052e-12
1.31389e-12
1.08923e-12
9.45008e-13
8.45355e-13
8.46253e-13
9.99584e-13
1.87374e-12
2.64965e-12
2.66343e-12
3.33554e-12
1.31015e-12
1.11738e-12
9.93696e-13
8.95016e-13
8.53454e-13
9.04508e-13
1.54382e-12
2.26782e-12
2.59258e-12
3.24265e-12
1.29725e-12
1.13112e-12
1.02743e-12
9.37633e-13
8.75572e-13
8.5652e-13
1.25207e-12
1.93494e-12
2.52672e-12
3.15245e-12
1.27749e-12
1.13615e-12
1.05019e-12
9.72299e-13
9.05539e-13
8.41164e-13
1.00049e-12
1.64476e-12
2.46471e-12
3.06555e-12
1.25361e-12
1.13285e-12
1.06389e-12
9.99494e-13
9.36776e-13
8.47029e-13
7.82678e-13
1.39251e-12
2.40715e-12
2.9818e-12
1.22678e-12
1.12454e-12
1.06999e-12
1.01804e-12
9.64266e-13
8.64131e-13
5.93826e-13
1.1747e-12
2.82829e-12
2.90666e-12
1.19775e-12
1.11084e-12
1.07042e-12
1.03105e-12
9.85686e-13
8.86133e-13
4.30153e-13
9.87385e-13
2.4444e-09
1.23574e-10
1.83225e-12
1.09583e-12
1.06516e-12
1.03687e-12
1.00236e-12
9.08396e-13
2.91436e-13
8.27913e-13
1.5489e-07
8.28824e-08
1.74306e-09
1.69548e-11
1.02123e-12
1.03524e-12
1.01249e-12
9.25676e-13
1.65872e-13
6.95345e-13
2.04496e-12
2.85941e-12
1.45523e-12
1.38213e-12
1.38287e-12
1.44545e-12
1.64156e-12
2.09843e-12
3.70441e-12
6.28184e-12
1.97155e-12
2.7498e-12
1.42813e-12
1.37766e-12
1.39017e-12
1.44419e-12
1.57893e-12
1.86601e-12
3.07354e-12
5.26818e-12
1.89411e-12
2.62982e-12
1.37852e-12
1.34778e-12
1.37303e-12
1.42661e-12
1.52801e-12
1.69932e-12
2.4574e-12
4.30936e-12
1.82291e-12
2.51639e-12
1.32585e-12
1.31084e-12
1.34643e-12
1.40516e-12
1.49325e-12
1.58844e-12
1.94715e-12
3.51769e-12
1.75743e-12
2.40998e-12
1.272e-12
1.26998e-12
1.31494e-12
1.37926e-12
1.46493e-12
1.51645e-12
1.53018e-12
2.86968e-12
1.69703e-12
2.31026e-12