/*--------------------------------*- C++ -*----------------------------------*\
| =========                 |                                                 |
| \\      /  F ield         | OpenFOAM: The Open Source CFD Toolbox           |
|  \\    /   O peration     | Version:  4.1                                   |
|   \\  /    A nd           | Web:      www.OpenFOAM.org                      |
|    \\/     M anipulation  |                                                 |
\*---------------------------------------------------------------------------*/
FoamFile
{
    version     2.0;
    format      ascii;
    class       surfaceScalarField;
    location    "0.82";
    object      phi;
}
// * * * * * * * * * * * * * * * * * * * * * * * * * * * * * * * * * * * * * //

dimensions      [1 0 -1 0 0 0 0];

internalField   nonuniform List<scalar> 
51500
(
3.62709e-13
1.81388e-14
1.40199e-11
-9.48889e-16
2.22407e-14
1.38643e-11
-3.23889e-15
2.07276e-14
1.37091e-11
-3.00657e-15
1.91467e-14
1.35566e-11
-2.8828e-15
1.75347e-14
1.34055e-11
-2.82011e-15
1.59095e-14
1.32562e-11
-2.93067e-15
1.4306e-14
1.31083e-11
-2.84955e-15
1.27444e-14
1.29634e-11
-2.96344e-15
1.1175e-14
1.28206e-11
9.63818e-15
1.26827e-11
-7.54605e-17
3.63763e-13
9.96216e-15
1.74786e-11
-1.14152e-14
1.1375e-14
1.68765e-11
-1.10924e-14
9.67173e-15
1.62921e-11
-1.08468e-14
8.05058e-15
1.57322e-11
-1.04907e-14
6.57868e-15
1.51964e-11
-1.01106e-14
5.23111e-15
1.4682e-11
-9.81468e-15
4.08566e-15
1.41882e-11
-9.54158e-15
3.50644e-15
1.37151e-11
-9.35894e-15
2.13999e-15
1.32593e-11
8.72982e-16
1.28324e-11
-8.74734e-16
3.60182e-13
1.25265e-14
2.20434e-11
-2.5942e-14
1.37078e-14
2.07333e-11
-2.20833e-14
1.13024e-14
1.95016e-11
-2.08496e-14
9.15565e-15
1.83581e-11
-1.96723e-14
7.25048e-15
1.72933e-11
-1.87939e-14
5.55465e-15
1.63029e-11
-1.77244e-14
4.07056e-15
1.53827e-11
-1.69572e-14
2.73693e-15
1.45224e-11
-1.63679e-14
1.57621e-15
1.37212e-11
5.99375e-16
1.29857e-11
-1.56168e-15
3.48973e-13
1.65377e-14
2.81424e-11
-4.64453e-14
1.69607e-14
2.57135e-11
-3.65754e-14
1.35964e-14
2.35167e-11
-3.37438e-14
1.06847e-14
2.15342e-11
-3.11653e-14
8.24005e-15
1.97535e-11
-2.88767e-14
6.16862e-15
1.81489e-11
-2.67957e-14
4.41893e-15
1.67e-11
-2.49134e-14
2.91189e-15
1.53896e-11
-2.33904e-14
1.63577e-15
1.42018e-11
5.70994e-16
1.31412e-11
-2.36811e-15
3.24187e-13
2.22643e-14
3.64131e-11
-8.08119e-14
2.13487e-14
3.222e-11
-5.62604e-14
1.65279e-14
2.85764e-11
-5.03034e-14
1.25963e-14
2.54051e-11
-4.52185e-14
9.43406e-15
2.26539e-11
-4.07782e-14
6.87777e-15
2.02556e-11
-3.7064e-14
4.7828e-15
1.81589e-11
-3.36602e-14
3.09111e-15
1.63215e-11
-3.09285e-14
1.70478e-15
1.4704e-11
6.07109e-16
1.33e-11
-3.15525e-15
2.75815e-13
3.0655e-14
4.77991e-11
-1.48978e-13
2.74035e-14
4.0824e-11
-8.28628e-14
2.03892e-14
3.50166e-11
-7.17441e-14
1.49614e-14
3.0153e-11
-6.25847e-14
1.08565e-14
2.60872e-11
-5.50276e-14
7.67449e-15
2.26671e-11
-4.86141e-14
5.21953e-15
1.97774e-11
-4.31768e-14
3.28544e-15
1.73234e-11
-3.87507e-14
1.77929e-15
1.52281e-11
6.37865e-16
1.34615e-11
-4.04971e-15
1.82979e-13
5.39533e-14
6.37047e-11
-2.34461e-13
4.47194e-14
5.23671e-11
-1.19631e-13
3.17922e-14
4.32901e-11
-9.96164e-14
2.2416e-14
3.602e-11
-8.4221e-14
1.5661e-14
3.01744e-11
-7.17748e-14
1.07272e-14
2.54385e-11
-6.18409e-14
7.04739e-15
2.15746e-11
-5.35788e-14
4.31866e-15
1.84013e-11
-4.70811e-14
2.24876e-15
1.57767e-11
6.69429e-16
1.36256e-11
-4.9058e-15
9.6437e-14
-5.70629e-13
8.63749e-11
-3.44648e-13
-6.35585e-13
6.80533e-11
-1.69005e-13
-6.57416e-13
5.4043e-11
-1.35057e-13
-6.71391e-13
4.33316e-11
-1.09948e-13
-6.80751e-13
3.50755e-11
-9.0811e-14
-6.86983e-13
2.86458e-11
-7.58294e-14
-6.91087e-13
2.35896e-11
-6.40612e-14
-6.93764e-13
1.95777e-11
-5.45698e-14
-6.95512e-13
1.63632e-11
-7.09493e-13
1.38088e-11
-5.86315e-15
3.79379e-12
-9.97646e-10
1.85112e-10
3.4156e-12
-1.09143e-09
1.46651e-10
3.09926e-12
-1.10171e-09
1.20758e-10
2.8169e-12
-1.10942e-09
1.01505e-10
2.56613e-12
-1.11566e-09
8.70218e-11
2.3442e-12
-1.12077e-09
7.59695e-11
2.14777e-12
-1.125e-09
6.74331e-11
1.97341e-12
-1.12852e-09
6.07658e-11
1.75535e-12
-1.13162e-09
5.55039e-11
-1.16346e-09
5.20602e-11
-6.85368e-15
-5.96219e-10
1.77125e-07
-8.24849e-07
3.48003e-10
1.51222e-07
-9.35911e-07
4.04271e-10
1.33095e-07
-9.38168e-07
3.94899e-10
1.17903e-07
-9.39738e-07
3.84141e-10
1.05044e-07
-9.41121e-07
3.72807e-10
9.40947e-08
-9.42356e-07
3.61264e-10
8.47123e-08
-9.43471e-07
3.40544e-10
7.66239e-08
-9.44487e-07
8.51849e-11
6.96222e-08
-9.45553e-07
6.51433e-08
-7.9227e-15
-9.95039e-07
3.40623e-13
8.75236e-14
7.85567e-13
-1.73303e-14
8.26987e-14
7.72241e-13
-2.50571e-14
7.29314e-14
7.60054e-13
-2.40856e-14
6.34475e-14
7.46097e-13
-2.36687e-14
5.42939e-14
7.33593e-13
-2.34864e-14
4.54173e-14
7.21949e-13
-2.34071e-14
3.68383e-14
7.08711e-13
-2.31601e-14
2.85626e-14
6.97407e-13
-2.50373e-14
2.04872e-14
6.85788e-13
1.28691e-14
6.73538e-13
-1.59356e-15
2.85478e-13
8.12621e-14
1.08573e-12
-6.81515e-14
7.40635e-14
1.03169e-12
-8.3567e-14
6.27017e-14
9.79997e-13
-8.01706e-14
5.18426e-14
9.3015e-13
-7.80556e-14
4.11362e-14
8.83517e-13
-7.59176e-14
2.86905e-14
8.38647e-13
-7.36652e-14
2.035e-14
7.98158e-13
-7.27741e-14
1.33675e-14
7.58296e-13
-7.62434e-14
7.45701e-15
7.22415e-13
2.51628e-15
6.86091e-13
-4.23793e-15
2.03581e-13
1.02615e-13
1.52654e-12
-1.72444e-13
9.17253e-14
1.39329e-12
-1.58214e-13
7.68199e-14
1.27819e-12
-1.49865e-13
6.30084e-14
1.16688e-12
-1.4263e-13
5.05825e-14
1.06901e-12
-1.36078e-13
3.92884e-14
9.79893e-13
-1.30255e-13
2.90365e-14
8.99626e-13
-1.25111e-13
1.98279e-14
8.26982e-13
-1.30326e-13
1.14953e-14
7.59975e-13
4.13667e-15
7.0057e-13
-6.74591e-15
8.41181e-14
1.25537e-13
2.18433e-12
-2.99165e-13
1.09111e-13
1.91339e-12
-2.54441e-13
8.92909e-14
1.68463e-12
-2.35205e-13
7.16934e-14
1.47894e-12
-2.19749e-13
5.63108e-14
1.30237e-12
-2.05676e-13
4.28353e-14
1.14972e-12
-1.92594e-13
3.10993e-14
1.01854e-12
-1.81697e-13
2.08349e-14
9.04528e-13
-1.85713e-13
1.18593e-14
8.02275e-13
4.12072e-15
7.13584e-13
-9.73483e-15
-3.32161e-14
1.55227e-13
3.19055e-12
-4.58998e-13
1.30855e-13
2.67148e-12
-3.76965e-13
1.04592e-13
2.24952e-12
-3.40593e-13
8.19836e-14
1.89194e-12
-3.11546e-13
6.28932e-14
1.59832e-12
-2.85206e-13
4.68217e-14
1.35725e-12
-2.61812e-13
3.32539e-14
1.1567e-12
-2.42407e-13
2.18396e-14
9.88988e-13
-2.43375e-13
1.21937e-14
8.48088e-13
4.22592e-15
7.29092e-13
-1.2778e-14
-1.63059e-13
1.93318e-13
4.76913e-12
-6.66435e-13
1.59142e-13
3.79177e-12
-5.3368e-13
1.23432e-13
3.04291e-12
-4.70793e-13
9.42759e-14
2.44106e-12
-4.20454e-13
7.05915e-14
1.97449e-12
-3.76632e-13
5.13029e-14
1.60814e-12
-3.38456e-13
3.56646e-14
1.31878e-12
-3.07378e-13
2.29057e-14
1.08661e-12
-3.03021e-13
1.25943e-14
8.99917e-13
4.1925e-15
7.46435e-13
-1.57402e-14
-5.51826e-13
2.53693e-13
7.30194e-12
-9.42542e-13
2.1291e-13
5.48786e-12
-7.33835e-13
1.60841e-13
4.17367e-12
-6.31127e-13
1.20077e-13
3.17959e-12
-5.50116e-13
8.82663e-14
2.4556e-12
-4.81255e-13
6.32439e-14
1.91459e-12
-4.23546e-13
4.32786e-14
1.5064e-12
-3.76342e-13
2.71143e-14
1.19649e-12
-3.65259e-13
1.33137e-14
9.54052e-13
3.56285e-15
7.6534e-13
-1.87313e-14
-1.03382e-12
2.92528e-13
1.09798e-11
-1.31056e-12
1.86133e-13
8.11071e-12
-9.90288e-13
1.2584e-13
5.81051e-12
-8.28491e-13
8.19148e-14
4.1923e-12
-7.03293e-13
4.93738e-14
3.07885e-12
-6.01289e-13
2.48999e-14
2.29254e-12
-5.16831e-13
6.3124e-15
1.73096e-12
-4.50547e-13
-7.97701e-15
1.32033e-12
-4.29199e-13
-1.90739e-14
1.01523e-12
-2.79075e-14
7.85272e-13
-2.17779e-14
-1.91415e-12
-1.96901e-12
2.52131e-11
-1.0613e-12
-6.93066e-11
1.33959e-11
-8.78527e-13
-6.295e-11
9.39987e-12
-7.45128e-13
-5.7239e-11
6.83873e-12
-6.43332e-13
-5.26733e-11
5.1875e-12
-5.63802e-13
-4.89815e-11
4.08653e-12
-5.01815e-13
-4.59829e-11
3.33305e-12
-4.57411e-13
-4.35379e-11
2.80435e-12
-5.82581e-13
-4.15484e-11
2.41997e-12
-4.05811e-11
2.14207e-12
-2.49445e-14
-1.26777e-09
1.939e-08
1.05863e-07
-2.40501e-10
1.08885e-08
-1.89391e-09
-3.76756e-10
8.24728e-09
-2.33026e-09
-3.70444e-10
6.37132e-09
-2.32877e-09
-3.62368e-10
4.99654e-09
-2.31107e-09
-3.53356e-10
3.97094e-09
-2.28536e-09
-3.43845e-10
3.19459e-09
-2.25566e-09
-3.34281e-10
2.59898e-09
-2.22492e-09
-3.34337e-10
2.13701e-09
-2.20625e-09
1.80426e-09
-2.83005e-14
-2.96943e-09
3.42292e-13
8.23387e-14
3.06111e-14
-1.60472e-14
7.81605e-14
2.88368e-14
-2.28272e-14
6.89338e-14
2.72879e-14
-2.04334e-14
6.00519e-14
2.58306e-14
-1.86476e-14
5.14553e-14
2.35279e-14
-2.05915e-14
4.30757e-14
2.11486e-14
-1.90949e-14
3.50969e-14
2.03496e-14
-1.96177e-14
2.73046e-14
1.91113e-14
-2.3559e-14
1.97768e-14
1.81284e-14
1.26557e-14
1.80065e-14
-1.29801e-15
2.90931e-13
5.97524e-14
4.89086e-14
-6.44803e-14
5.48127e-14
4.43373e-14
-7.32077e-14
4.65065e-14
4.25535e-14
-6.76106e-14
3.84987e-14
3.70708e-14
-6.67141e-14
3.10706e-14
3.31194e-14
-6.27488e-14
2.42371e-14
3.10709e-14
-6.23713e-14
1.78809e-14
2.58668e-14
-6.16362e-14
1.21039e-14
2.33237e-14
-7.13221e-14
6.8836e-15
2.21834e-14
2.4368e-15
1.97058e-14
-4.47233e-15
2.12009e-13
7.64712e-14
7.43245e-14
-1.65102e-13
6.91608e-14
6.70098e-14
-1.39213e-13
5.82738e-14
6.26306e-14
-1.26587e-13
4.82749e-14
5.51821e-14
-1.20554e-13
3.92664e-14
4.74448e-14
-1.13913e-13
3.1123e-14
4.05281e-14
-1.0878e-13
2.4052e-14
3.51005e-14
-1.07093e-13
1.66804e-14
3.09242e-14
-1.21199e-13
9.64692e-15
2.70803e-14
3.34385e-15
2.27902e-14
-7.23965e-15
9.13541e-14
9.51177e-14
1.18818e-13
-2.89063e-13
8.33186e-14
1.06742e-13
-2.23606e-13
6.84868e-14
9.66825e-14
-1.98851e-13
5.54767e-14
8.04434e-14
-1.85427e-13
4.41899e-14
6.73014e-14
-1.71833e-13
3.55048e-14
5.6986e-14
-1.58824e-13
2.60616e-14
4.80912e-14
-1.55574e-13
1.73019e-14
4.05926e-14
-1.73149e-13
9.91561e-15
3.6238e-14
3.50719e-15
2.80825e-14
-1.04597e-14
-2.69631e-14
1.20038e-13
1.99821e-13
-4.46556e-13
1.01152e-13
1.72125e-13
-3.31422e-13
8.11471e-14
1.50414e-13
-2.81682e-13
6.39616e-14
1.21383e-13
-2.57707e-13
4.96545e-14
9.79641e-14
-2.34318e-13
3.8547e-14
7.9675e-14
-2.12245e-13
2.81941e-14
6.60073e-14
-2.0562e-13
1.86217e-14
5.58684e-14
-2.2701e-13
1.05102e-14
4.75241e-14
3.71544e-15
3.58006e-14
-1.30844e-14
-1.63863e-13
1.52965e-13
3.43271e-13
-6.52656e-13
1.25329e-13
2.87486e-13
-4.68837e-13
9.706e-14
2.36885e-13
-3.7328e-13
7.4204e-14
1.8227e-13
-3.32542e-13
5.62728e-14
1.43261e-13
-2.94543e-13
4.26238e-14
1.13505e-13
-2.63705e-13
3.00807e-14
9.13763e-14
-2.58223e-13
1.95239e-14
7.57784e-14
-2.82994e-13
1.06109e-14
5.98108e-14
3.60075e-15
4.34537e-14
-1.64983e-14
-5.78809e-13
1.89293e-13
6.0117e-13
-9.30899e-13
1.55644e-13
4.80271e-13
-6.05273e-13
1.16843e-13
3.71568e-13
-4.94857e-13
8.70034e-14
2.76518e-13
-4.29807e-13
6.43661e-14
2.07945e-13
-3.72339e-13
4.88131e-14
1.59451e-13
-3.2383e-13
3.37108e-14
1.25685e-13
-3.11567e-13
2.13501e-14
9.92625e-14
-3.40969e-13
1.17035e-14
7.91158e-14
4.25331e-15
5.40411e-14
-1.95885e-14
-1.10612e-12
3.42451e-13
1.08694e-12
-1.30731e-12
2.2587e-13
8.0935e-13
-8.00458e-13
1.58548e-13
5.89745e-13
-6.49438e-13
1.1085e-13
4.15689e-13
-5.46206e-13
7.67093e-14
3.01525e-13
-4.61089e-13
5.19068e-14
2.23481e-13
-3.93016e-13
3.3705e-14
1.67719e-13
-3.50003e-13
2.02984e-14
1.28975e-13
-4.01113e-13
1.03171e-14
1.02212e-13
2.99031e-15
6.57027e-14
-2.29209e-14
-2.40386e-12
6.95831e-11
7.71252e-12
-1.72339e-12
6.12594e-13
1.19328e-12
-1.06309e-12
-1.8852e-13
7.70054e-13
-8.47583e-13
-3.39855e-13
5.3676e-13
-6.94676e-13
-4.54212e-13
3.89486e-13
-5.75072e-13
-5.36844e-13
2.93699e-13
-4.80694e-13
-5.94882e-13
2.28554e-13
-4.18894e-13
-6.34392e-13
1.82372e-13
-4.77493e-13
-6.59636e-13
1.48705e-13
-6.71515e-13
1.06388e-13
-2.62856e-14
-8.58899e-10
7.43849e-09
9.39306e-08
-5.5758e-11
6.04569e-10
2.36291e-10
-5.59572e-11
3.39168e-10
-9.88994e-11
-4.75414e-11
2.26547e-10
-8.22906e-11
-4.03895e-11
1.55631e-10
-6.6524e-11
-3.45598e-11
1.09249e-10
-5.32122e-11
-2.97749e-11
7.82436e-11
-4.14868e-11
-2.58202e-11
5.71002e-11
-3.15459e-11
-2.25963e-11
4.24022e-11
-2.6966e-11
3.19306e-11
-2.97854e-14
-2.66061e-11
3.42569e-13
8.11107e-14
1.11619e-14
-1.59477e-14
7.70828e-14
1.00529e-14
-2.22927e-14
6.80235e-14
8.47369e-15
-2.01235e-14
5.92449e-14
6.77749e-15
-1.86263e-14
5.08085e-14
6.13232e-15
-1.95764e-14
4.26362e-14
3.77283e-15
-1.81379e-14
3.47006e-14
3.04835e-15
-1.91902e-14
2.70346e-14
1.15768e-15
-2.30786e-14
1.96576e-14
7.6194e-16
1.26238e-14
6.2394e-16
-1.54846e-15
2.92316e-13
5.82297e-14
1.85316e-14
-6.3539e-14
5.3525e-14
1.61514e-14
-7.17088e-14
4.54145e-14
1.67401e-14
-6.4546e-14
3.77086e-14
1.34368e-14
-6.18011e-14
3.04565e-14
1.00847e-14
-6.21639e-14
2.37169e-14
6.52261e-15
-5.91443e-14
1.7585e-14
6.51202e-15
-5.89026e-14
1.194e-14
4.32983e-15
-7.03077e-14
6.79408e-15
3.81403e-15
2.43506e-15
2.79801e-15
-4.27913e-15
2.15394e-13
7.39711e-14
2.72762e-14
-1.62325e-13
6.69572e-14
2.53503e-14
-1.34155e-13
5.62656e-14
2.64902e-14
-1.1703e-13
4.6292e-14
2.06379e-14
-1.14018e-13
3.73718e-14
1.70192e-14
-1.03605e-13
2.93255e-14
1.40533e-14
-9.8717e-14
2.18089e-14
1.113e-14
-1.0377e-13
1.50213e-14
9.4611e-15
-1.19324e-13
9.42051e-15
8.22766e-15
3.09152e-15
6.23019e-15
-7.07073e-15
9.56379e-14
9.20143e-14
4.46441e-14
-2.84342e-13
8.04977e-14
4.35786e-14
-2.15231e-13
6.60466e-14
4.50111e-14
-1.79289e-13
5.33308e-14
3.70663e-14
-1.67181e-13
4.20829e-14
3.02676e-14
-1.55533e-13
3.22244e-14
2.53728e-14
-1.44663e-13
2.35662e-14
2.08878e-14
-1.48677e-13
1.58833e-14
1.77039e-14
-1.70656e-13
9.55351e-15
1.50744e-14
3.62252e-15
1.0507e-14
-1.05597e-14
-2.02257e-14
1.16009e-13
7.76641e-14
-4.387e-13
9.78931e-14
7.92351e-14
-3.14431e-13
7.83007e-14
7.67162e-14
-2.58473e-13
6.13717e-14
6.18737e-14
-2.35047e-13
4.73563e-14
5.1331e-14
-2.13945e-13
3.55226e-14
4.19117e-14
-1.95195e-13
2.56093e-14
3.46323e-14
-1.96377e-13
1.79234e-14
3.04611e-14
-2.23573e-13
9.49402e-15
2.73387e-14
3.5335e-15
1.75664e-14
-1.33519e-14
-1.54389e-13
1.47804e-13
1.39181e-13
-6.4058e-13
1.21076e-13
1.39148e-13
-4.20903e-13
9.35011e-14
1.29379e-13
-3.54816e-13
7.13629e-14
1.04015e-13
-3.15957e-13
5.35636e-14
8.37501e-14
-2.80612e-13
3.90936e-14
6.92989e-14
-2.50054e-13
2.7457e-14
5.71791e-14
-2.43187e-13
1.78174e-14
4.7546e-14
-2.78544e-13
1.05048e-14
4.17092e-14
3.70639e-15
2.70767e-14
-1.67221e-14
-5.58092e-13
1.84334e-13
2.48527e-13
-9.12446e-13
1.50592e-13
2.47973e-13
-5.69145e-13
1.12851e-13
2.13883e-13
-4.75324e-13
8.3435e-14
1.67932e-13
-4.1216e-13
6.09299e-14
1.32773e-13
-3.56945e-13
4.3559e-14
1.07015e-13
-3.11957e-13
2.97838e-14
8.63249e-14
-2.83518e-13
1.90439e-14
7.25409e-14
-3.36141e-13
1.09299e-14
6.11098e-14
3.44171e-15
3.88464e-14
-1.9925e-14
-1.0757e-12
3.35888e-13
4.52977e-13
-1.27788e-12
1.87076e-13
4.33166e-13
-7.67308e-13
2.00472e-13
3.49398e-13
-6.25666e-13
1.40593e-13
2.64838e-13
-5.26426e-13
9.76456e-14
2.03564e-13
-4.455e-13
6.66627e-14
1.58772e-13
-3.79946e-13
4.40167e-14
1.27024e-13
-3.33496e-13
2.7292e-14
1.03581e-13
-3.96162e-13
1.46669e-14
8.45825e-14
5.11446e-15
5.48401e-14
-2.29025e-14
-2.36661e-12
7.23318e-11
1.15841e-11
-1.66606e-12
1.01164e-12
8.29498e-13
-1.02493e-12
2.68701e-13
5.61359e-13
-8.14365e-13
1.69574e-13
4.10754e-13
-6.64068e-13
1.06862e-13
3.04605e-13
-5.46923e-13
6.4656e-14
2.31093e-13
-4.54803e-13
3.62448e-14
1.77595e-13
-3.89901e-13
1.69777e-14
1.39469e-13
-4.58046e-13
3.88573e-15
1.10069e-13
-4.74771e-15
6.78136e-14
-2.64235e-14
-8.00452e-10
1.05069e-08
9.38321e-08
-9.78608e-12
1.26499e-10
3.63456e-10
-3.15843e-12
1.18035e-11
-6.41779e-13
-3.5859e-12
6.57464e-12
-9.09708e-13
-2.73607e-12
3.99839e-12
-4.55503e-13
-2.11181e-12
2.53552e-12
-2.28837e-13
-1.65512e-12
1.65913e-12
-8.44278e-14
-1.31892e-12
1.11775e-12
7.04186e-15
-1.10598e-12
7.68927e-13
6.30385e-14
5.05595e-13
-3.01027e-14
2.15057e-13
3.42451e-13
8.11754e-14
1.78437e-14
-1.6321e-14
7.71181e-14
1.5209e-14
-2.23807e-14
6.81133e-14
1.24181e-14
-2.05516e-14
5.93204e-14
7.63309e-15
-1.71228e-14
5.08492e-14
6.57701e-15
-2.02189e-14
4.26268e-14
3.49914e-15
-1.91508e-14
3.47566e-14
5.69747e-15
-1.8863e-14
2.71092e-14
4.60246e-15
-2.30207e-14
1.96952e-14
7.70373e-16
1.26664e-14
2.70055e-16
-1.87849e-15
2.92038e-13
5.8313e-14
2.53875e-14
-6.36225e-14
5.36228e-14
2.60044e-14
-7.20033e-14
4.54587e-14
1.90219e-14
-6.53879e-14
3.76938e-14
1.6574e-14
-6.28795e-14
3.04967e-14
1.12409e-14
-6.05375e-14
2.37922e-14
8.78869e-15
-5.96226e-14
1.75986e-14
6.20339e-15
-5.95748e-14
1.19709e-14
7.29672e-15
-7.02237e-14
6.85108e-15
6.16915e-15
2.49016e-15
1.53572e-15
-4.37909e-15
2.15088e-13
7.40702e-14
3.78928e-14
-1.62774e-13
6.70217e-14
3.54515e-14
-1.35327e-13
5.63614e-14
3.44197e-14
-1.14772e-13
4.6517e-14
3.23866e-14
-1.11183e-13
3.7485e-14
2.27744e-14
-1.05322e-13
2.94357e-14
1.67573e-14
-9.80852e-14
2.20401e-14
1.51675e-14
-1.03907e-13
1.51162e-14
1.17218e-14
-1.19183e-13
8.94789e-15
1.14736e-14
3.03788e-15
6.1819e-15
-7.41139e-15
9.53383e-14
9.22099e-14
6.34625e-14
-2.84876e-13
8.07788e-14
6.27393e-14
-2.15585e-13
6.62201e-14
6.21466e-14
-1.79837e-13
5.3376e-14
4.96548e-14
-1.66621e-13
4.22094e-14
4.14284e-14
-1.56156e-13
3.21961e-14
3.26753e-14
-1.44458e-13
2.34758e-14
3.03629e-14
-1.49065e-13
1.60769e-14
2.54416e-14
-1.70713e-13
1.00571e-14
2.23748e-14
3.80194e-15
2.01078e-14
-1.01388e-14
-2.05661e-14
1.16398e-13
1.099e-13
-4.39853e-13
9.81381e-14
1.08929e-13
-3.15573e-13
7.86088e-14
1.07346e-13
-2.58056e-13
6.16965e-14
8.97779e-14
-2.35756e-13
4.75569e-14
7.34153e-14
-2.14607e-13
3.58708e-14
6.3389e-14
-1.94694e-13
2.60739e-14
5.65585e-14
-1.94909e-13
1.74704e-14
4.28404e-14
-2.24136e-13
9.37604e-15
3.49991e-14
3.71072e-15
2.42237e-14
-1.32854e-14
-1.55451e-13
1.48364e-13
1.87647e-13
-6.42059e-13
1.21678e-13
1.99128e-13
-4.21644e-13
9.39355e-14
1.79679e-13
-3.55767e-13
7.17378e-14
1.4562e-13
-3.16035e-13
5.39179e-14
1.19184e-13
-2.81355e-13
3.93502e-14
9.87679e-14
-2.50831e-13
2.75588e-14
7.88139e-14
-2.38167e-13
1.83608e-14
7.02806e-14
-2.79246e-13
1.07972e-14
5.8434e-14
3.7725e-15
3.68267e-14
-1.66026e-14
-5.60736e-13
1.8505e-13
3.35279e-13
-9.15612e-13
1.51448e-13
3.46588e-13
-5.70142e-13
1.13517e-13
3.07014e-13
-4.76737e-13
8.39435e-14
2.34609e-13
-4.13053e-13
6.1341e-14
1.93086e-13
-3.58339e-13
4.38031e-14
1.51662e-13
-3.12286e-13
3.01325e-14
1.25588e-13
-2.83943e-13
1.91122e-14
1.02066e-13
-3.37322e-13
1.11388e-14
8.4034e-14
4.09211e-15
5.52644e-14
-1.98214e-14
-1.08103e-12
3.40224e-13
6.02631e-13
-1.28326e-12
1.7914e-13
6.07228e-13
-7.69547e-13
1.39963e-13
4.99878e-13
-6.27936e-13
1.02173e-13
3.796e-13
-5.28531e-13
7.38443e-14
2.94867e-13
-4.46999e-13
5.48986e-14
2.35213e-13
-3.81236e-13
3.69173e-14
1.82543e-13
-3.34874e-13
2.32415e-14
1.48106e-13
-3.97614e-13
1.26896e-14
1.20944e-13
4.89151e-15
7.693e-14
-2.31015e-14
-2.40966e-12
7.65436e-11
1.81098e-11
-1.66391e-12
9.38935e-13
1.22364e-12
-1.02961e-12
1.98573e-13
8.14518e-13
-8.18778e-13
1.75474e-13
5.89267e-13
-6.67236e-13
1.16872e-13
4.40703e-13
-5.49746e-13
7.62244e-14
3.3349e-13
-4.56706e-13
4.77178e-14
2.53986e-13
-3.91665e-13
2.7237e-14
2.03196e-13
-4.60173e-13
9.16271e-15
1.60804e-13
2.56165e-15
1.01441e-13
-2.65014e-14
-8.43177e-10
1.68845e-08
9.91161e-08
-7.07762e-12
1.59071e-10
4.07218e-10
-1.31893e-12
2.62752e-12
1.44396e-12
-1.1133e-12
1.09571e-12
1.59773e-13
-8.76184e-13
7.56981e-13
8.38023e-14
-6.95467e-13
5.42637e-13
6.54568e-14
-5.60255e-13
3.99744e-13
5.25136e-14
-4.66393e-13
3.00708e-13
4.27252e-14
-5.35216e-13
1.87342e-13
3.51842e-14
1.11371e-13
-3.00528e-14
3.257e-14
3.42118e-13
8.13203e-14
2.2353e-14
-1.66367e-14
7.72652e-14
1.47368e-14
-2.30419e-14
6.81679e-14
1.86237e-14
-1.99478e-14
5.94271e-14
1.29581e-14
-1.94024e-14
5.08951e-14
7.55341e-15
-1.92629e-14
4.26873e-14
4.48051e-15
-1.89938e-14
3.4766e-14
1.98505e-15
-1.98995e-14
2.71353e-14
1.30474e-15
-2.30376e-14
1.9766e-14
1.44496e-15
1.26868e-14
2.05821e-15
-1.51246e-15
2.9169e-13
5.85024e-14
3.85373e-14
-6.43456e-14
5.37808e-14
3.43059e-14
-7.1336e-14
4.5641e-14
3.26214e-14
-6.69874e-14
3.78247e-14
2.11432e-14
-6.18223e-14
3.06221e-14
2.07813e-14
-6.13083e-14
2.38731e-14
1.23746e-14
-5.81663e-14
1.76885e-14
8.22278e-15
-5.94316e-14
1.20275e-14
5.32868e-15
-7.06141e-14
6.91226e-15
4.8235e-15
2.55507e-15
5.18617e-15
-4.39471e-15
2.14433e-13
7.43827e-14
4.98174e-14
-1.63798e-13
6.72861e-14
5.24259e-14
-1.35269e-13
5.65861e-14
5.54419e-14
-1.16062e-13
4.66437e-14
4.26517e-14
-1.14558e-13
3.76135e-14
3.24511e-14
-1.03943e-13
2.95294e-14
2.63388e-14
-9.89268e-14
2.21898e-14
1.75654e-14
-1.03444e-13
1.53882e-14
1.72395e-14
-1.19484e-13
9.38648e-15
1.18598e-14
3.35924e-15
9.08415e-15
-7.51742e-15
9.45432e-14
9.27201e-14
9.13631e-14
-2.86186e-13
8.1195e-14
8.9597e-14
-2.1662e-13
6.65847e-14
9.27121e-14
-1.80057e-13
5.37404e-14
7.58966e-14
-1.67988e-13
4.25379e-14
5.86453e-14
-1.5554e-13
3.25658e-14
4.20324e-14
-1.45026e-13
2.37158e-14
3.35742e-14
-1.49508e-13
1.61741e-14
3.0724e-14
-1.70819e-13
1.00324e-14
2.58561e-14
3.57408e-15
1.51406e-14
-1.02568e-14
-2.20245e-14
1.1714e-13
1.59349e-13
-4.41851e-13
9.88275e-14
1.62844e-13
-3.16798e-13
7.91122e-14
1.60093e-13
-2.59024e-13
6.21043e-14
1.28588e-13
-2.36379e-13
4.78528e-14
1.05663e-13
-2.15656e-13
3.61292e-14
8.54365e-14
-1.95156e-13
2.6095e-14
6.0812e-14
-1.96271e-13
1.76987e-14
5.1998e-14
-2.24542e-13
9.80698e-15
4.33137e-14
3.96368e-15
2.72673e-14
-1.32973e-14
-1.57579e-13
1.49608e-13
2.78188e-13
-6.45593e-13
1.22671e-13
2.905e-13
-4.23452e-13
9.48116e-14
2.67893e-13
-3.57405e-13
7.23795e-14
2.0935e-13
-3.16941e-13
5.45437e-14
1.6954e-13
-2.83404e-13
3.97408e-14
1.34449e-13
-2.51319e-13
2.80635e-14
1.1195e-13
-2.38625e-13
1.85127e-14
8.09745e-14
-2.80284e-13
1.09902e-14
6.7606e-14
3.97586e-15
4.3861e-14
-1.63734e-14
-5.66882e-13
1.86734e-13
4.95968e-13
-9.21123e-13
1.53002e-13
5.08508e-13
-5.74498e-13
1.14678e-13
4.37983e-13
-4.78762e-13
8.49235e-14
3.44894e-13
-4.15826e-13
6.20449e-14
2.67761e-13
-3.60052e-13
4.45072e-14
2.13016e-13
-3.14136e-13
3.06724e-14
1.69799e-13
-2.84988e-13
1.96092e-14
1.21877e-13
-3.38804e-13
1.15416e-14
1.0165e-13
4.47303e-15
6.29699e-14
-1.97331e-14
-1.09233e-12
3.45124e-13
9.01604e-13
-1.29295e-12
2.24379e-13
8.91489e-13
-7.75301e-13
1.39921e-13
7.20338e-13
-6.32393e-13
1.01755e-13
5.42476e-13
-5.32072e-13
7.28542e-14
4.13902e-13
-4.50171e-13
5.40017e-14
3.16473e-13
-3.83866e-13
3.68946e-14
2.49816e-13
-3.36986e-13
2.35181e-14
1.76699e-13
-3.99817e-13
1.30006e-14
1.39142e-13
5.18883e-15
8.72412e-14
-2.30035e-14
-2.45555e-12
8.12458e-11
2.32401e-11
-1.67112e-12
9.80947e-13
1.75173e-12
-1.03908e-12
1.97523e-13
1.17501e-12
-8.25906e-13
1.65676e-13
8.50156e-13
-6.73017e-13
1.08497e-13
6.23426e-13
-5.54663e-13
6.72167e-14
4.63509e-13
-4.60191e-13
3.17207e-14
3.4504e-13
-3.94913e-13
1.75215e-14
2.54298e-13
-4.63577e-13
9.06228e-15
1.91483e-13
3.74072e-15
1.16024e-13
-2.65259e-14
-8.98983e-10
2.25582e-08
1.0696e-07
-7.31081e-12
2.31826e-10
4.39402e-10
-1.3291e-12
2.65313e-12
1.58185e-12
-1.06423e-12
1.09264e-12
9.40397e-14
-8.44125e-13
7.85446e-13
6.5135e-14
-6.74453e-13
5.74984e-13
5.00928e-14
-5.46448e-13
4.25399e-13
3.93611e-14
-4.56291e-13
3.20413e-13
3.14843e-14
-5.30037e-13
2.42309e-13
2.5587e-14
1.44096e-13
-3.02557e-14
2.11385e-14
3.41592e-13
8.15296e-14
2.95841e-14
-1.68563e-14
7.74682e-14
2.83522e-14
-2.36686e-14
6.82845e-14
2.23341e-14
-1.9814e-14
5.95332e-14
1.80806e-14
-1.98202e-14
5.10103e-14
8.25086e-15
-1.99612e-14
4.27834e-14
7.13349e-15
-1.92642e-14
3.48726e-14
5.9878e-15
-1.9617e-14
2.7222e-14
8.25387e-15
-2.28705e-14
1.98492e-14
2.20604e-14
1.27627e-14
6.20301e-14
-1.85897e-15
2.91125e-13
5.86959e-14
5.10882e-14
-6.49642e-14
5.39655e-14
4.49436e-14
-7.19072e-14
4.58395e-14
4.46932e-14
-6.64455e-14
3.79829e-14
3.4954e-14
-6.39115e-14
3.07203e-14
1.89014e-14
-6.09869e-14
2.39843e-14
1.30213e-14
-5.98259e-14
1.7779e-14
1.31757e-14
-5.90755e-14
1.21511e-14
1.22444e-14
-7.0586e-14
6.99531e-15
1.65764e-14
2.61935e-15
4.45259e-14
-4.55387e-15
2.13681e-13
7.478e-14
7.40891e-14
-1.64833e-13
6.75776e-14
6.82099e-14
-1.36089e-13
5.68265e-14
6.93235e-14
-1.17506e-13
4.6868e-14
5.61932e-14
-1.11959e-13
3.77993e-14
4.36387e-14
-1.05928e-13
2.96154e-14
2.36611e-14
-9.75341e-14
2.23057e-14
2.10336e-14
-1.04359e-13
1.53702e-14
2.21901e-14
-1.19651e-13
9.77471e-15
2.57899e-14
3.28934e-15
3.79855e-14
-7.67095e-15
9.35294e-14
9.33282e-14
1.18708e-13
-2.87615e-13
8.17245e-14
1.18563e-13
-2.1766e-13
6.70384e-14
1.19847e-13
-1.81223e-13
5.41248e-14
9.73365e-14
-1.68606e-13
4.29536e-14
7.8834e-14
-1.56277e-13
3.29976e-14
5.07449e-14
-1.44822e-13
2.401e-14
3.79967e-14
-1.49152e-13
1.64562e-14
3.85914e-14
-1.71657e-13
9.64539e-15
3.95064e-14
4.12381e-15
4.16802e-14
-1.00091e-14
-2.3762e-14
1.18072e-13
2.05847e-13
-4.44135e-13
9.9646e-14
2.10783e-13
-3.19191e-13
7.9769e-14
2.02626e-13
-2.59988e-13
6.25969e-14
1.65688e-13
-2.37216e-13
4.82441e-14
1.34503e-13
-2.17193e-13
3.64539e-14
1.08001e-13
-1.95433e-13
2.64485e-14
6.68559e-14
-1.97822e-13
1.7719e-14
5.61757e-14
-2.25202e-13
1.01905e-14
6.24019e-14
4.25301e-15
5.31571e-14
-1.34298e-14
-1.60267e-13
1.51105e-13
3.66225e-13
-6.49519e-13
1.23844e-13
3.73956e-13
-4.26956e-13
9.57656e-14
3.41027e-13
-3.59206e-13
7.3253e-14
2.76026e-13
-3.18382e-13
5.52329e-14
2.20951e-13
-2.84922e-13
4.03115e-14
1.80503e-13
-2.53076e-13
2.84451e-14
1.10387e-13
-2.38821e-13
1.88802e-14
8.70845e-14
-2.81321e-13
1.14419e-14
7.82407e-14
4.07408e-15
7.02972e-14
-1.66108e-14
-5.74461e-13
1.89499e-13
6.44969e-13
-9.27659e-13
1.54891e-13
6.52158e-13
-5.78398e-13
1.16108e-13
5.64954e-13
-4.82343e-13
8.6013e-14
4.41987e-13
-4.18325e-13
6.29353e-14
3.48168e-13
-3.62458e-13
4.52139e-14
2.77505e-13
-3.16752e-13
3.14593e-14
1.9841e-13
-2.85731e-13
2.01425e-14
1.3156e-13
-3.40775e-13
1.17176e-14
1.0758e-13
4.85398e-15
9.42856e-14
-1.97609e-14
-1.10607e-12
3.43194e-13
1.15369e-12
-1.30405e-12
2.27509e-13
1.12819e-12
-7.82137e-13
1.42284e-13
9.2119e-13
-6.37802e-13
1.03289e-13
6.95981e-13
-5.36527e-13
7.40147e-14
5.31124e-13
-4.53337e-13
5.46393e-14
4.1451e-13
-3.87909e-13
3.75614e-14
3.19995e-13
-3.39464e-13
2.42059e-14
1.93732e-13
-4.02623e-13
1.3631e-14
1.49269e-13
5.6682e-15
1.04897e-13
-2.30775e-14
-2.4299e-12
7.7766e-11
2.02661e-11
-1.70246e-12
8.85553e-13
2.07539e-12
-1.05076e-12
2.00176e-13
1.50344e-12
-8.34539e-13
1.68739e-13
1.08444e-12
-6.80039e-13
1.10642e-13
8.02972e-13
-5.60218e-13
6.88248e-14
6.05444e-13
-4.65362e-13
3.27489e-14
4.63348e-13
-3.98492e-13
1.81939e-14
2.74383e-13
-4.67948e-13
9.52273e-15
2.0346e-13
4.2006e-15
1.28981e-13
-2.65818e-14
-8.69994e-10
2.07931e-08
1.10279e-07
-6.60042e-12
1.66372e-10
4.16049e-10
-1.29665e-12
3.03137e-12
1.19424e-12
-1.07786e-12
1.63634e-12
8.6574e-14
-8.53983e-13
1.17776e-12
6.41751e-14
-6.82297e-13
8.60373e-13
5.01248e-14
-5.5348e-13
6.38775e-13
3.98587e-14
-4.61423e-13
4.24212e-13
3.23201e-14
-5.361e-13
2.71929e-13
2.65096e-14
1.61336e-13
-3.00877e-14
2.23329e-14
3.41345e-13
8.16997e-14
1.80139e-14
-1.75473e-14
7.74722e-14
3.36642e-16
-2.35874e-14
6.83876e-14
4.82168e-15
-2.05592e-14
5.96217e-14
7.97712e-15
-2.0287e-14
5.11269e-14
1.98471e-14
-2.08086e-14
4.29518e-14
4.24678e-14
-2.048e-14
3.50996e-14
8.20681e-14
-1.98729e-14
2.75833e-14
2.95348e-13
-1.14222e-14
2.03796e-14
1.14289e-12
1.29662e-14
3.23664e-12
-1.19694e-14
2.90421e-13
5.88811e-14
2.73463e-14
-6.52889e-14
5.40432e-14
1.14911e-15
-7.2372e-14
4.58683e-14
1.20822e-14
-6.70532e-14
3.80595e-14
1.38217e-14
-6.43375e-14
3.08368e-14
2.42455e-14
-6.137e-14
2.41389e-14
4.45795e-14
-6.12062e-14
1.79515e-14
7.43401e-14
-6.33803e-14
1.23754e-14
1.98776e-13
-7.07682e-14
7.37333e-15
6.80907e-13
2.7479e-15
2.11958e-12
-1.16088e-14
2.12718e-13
7.50448e-14
3.73385e-14
-1.65622e-13
6.77425e-14
3.51801e-15
-1.36189e-13
5.70481e-14
1.96552e-14
-1.18504e-13
4.70511e-14
2.27045e-14
-1.11761e-13
3.80216e-14
3.0607e-14
-1.06677e-13
2.99415e-14
5.07885e-14
-9.99247e-14
2.26511e-14
8.33346e-14
-1.06198e-13
1.55569e-14
1.55645e-13
-1.23833e-13
9.27267e-15
4.49108e-13
3.50895e-15
1.3947e-12
-7.85873e-15
9.27505e-14
9.38262e-14
6.35283e-14
-2.88381e-13
8.20049e-14
1.88217e-14
-2.18398e-13
6.72746e-14
4.1457e-14
-1.81702e-13
5.44044e-14
4.41064e-14
-1.68397e-13
4.32171e-14
5.17186e-14
-1.5673e-13
3.31687e-14
6.64545e-14
-1.47347e-13
2.43946e-14
9.67065e-14
-1.51725e-13
1.69718e-14
1.43874e-13
-1.7677e-13
9.92566e-15
3.34442e-13
4.44589e-15
9.64972e-13
-8.1339e-15
-2.50152e-14
1.18906e-13
1.11975e-13
-4.45259e-13
1.00143e-13
5.97431e-14
-3.19347e-13
8.02374e-14
8.51447e-14
-2.61e-13
6.31189e-14
8.37241e-14
-2.37815e-13
4.87232e-14
8.54221e-14
-2.1718e-13
3.70319e-14
1.2272e-13
-1.97202e-13
2.67059e-14
1.19565e-13
-2.01961e-13
1.79511e-14
1.53831e-13
-2.30754e-13
1.09071e-14
2.84329e-13
4.22495e-15
7.04992e-13
-9.95233e-15
-1.62505e-13
1.52315e-13
2.019e-13
-6.51179e-13
1.24574e-13
1.40982e-13
-4.2695e-13
9.64845e-14
1.63797e-13
-3.61167e-13
7.38853e-14
1.51711e-13
-3.18587e-13
5.58647e-14
1.43582e-13
-2.87238e-13
4.08208e-14
1.74904e-13
-2.5442e-13
2.88567e-14
1.58734e-13
-2.41977e-13
1.93158e-14
1.92349e-13
-2.87567e-13
1.16294e-14
2.71369e-13
4.71334e-15
5.49337e-13
-1.42891e-14
-5.80645e-13
1.95585e-13
3.68071e-13
-9.30089e-13
1.56182e-13
2.93045e-13
-5.80558e-13
1.17089e-13
2.98039e-13
-4.84541e-13
8.69412e-14
2.60775e-13
-4.1965e-13
6.37105e-14
2.31338e-13
-3.65427e-13
4.59519e-14
2.2881e-13
-3.18421e-13
3.23079e-14
1.71563e-13
-2.89726e-13
2.08473e-14
2.3479e-13
-3.47399e-13
1.23839e-14
2.85338e-13
5.12905e-15
4.58169e-13
-1.81567e-14
-1.11576e-12
3.165e-13
6.52807e-13
-1.30813e-12
1.84543e-13
5.69541e-13
-7.85797e-13
1.45347e-13
5.20846e-13
-6.41356e-13
1.0471e-13
4.3338e-13
-5.39133e-13
7.5359e-14
3.65547e-13
-4.56261e-13
5.58287e-14
3.2312e-13
-3.91709e-13
3.86525e-14
3.72687e-13
-3.4317e-13
2.49031e-14
2.94301e-13
-4.10338e-13
1.43513e-14
3.20798e-13
6.30605e-15
4.08186e-13
-2.21947e-14
-2.11793e-12
3.65538e-11
-7.90378e-13
-1.78642e-12
3.81451e-13
9.06869e-13
-1.0589e-12
2.65229e-13
8.78491e-13
-8.39424e-13
1.72282e-13
6.9567e-13
-6.84895e-13
1.12975e-13
5.57989e-13
-5.63858e-13
7.10026e-14
4.82444e-13
-4.72154e-13
3.40721e-14
5.22416e-13
-4.02206e-13
1.89962e-14
3.15507e-13
-4.76581e-13
1.00864e-14
3.70118e-13
4.79633e-15
3.87462e-13
-2.61585e-14
-4.27684e-10
-5.74052e-09
8.31869e-08
-2.77709e-12
-1.50151e-10
1.22811e-10
-1.31585e-12
4.78798e-13
-3.03125e-13
-1.09134e-12