/*--------------------------------*- C++ -*----------------------------------*\
| =========                 |                                                 |
| \\      /  F ield         | OpenFOAM: The Open Source CFD Toolbox           |
|  \\    /   O peration     | Version:  4.1                                   |
|   \\  /    A nd           | Web:      www.OpenFOAM.org                      |
|    \\/     M anipulation  |                                                 |
\*---------------------------------------------------------------------------*/
FoamFile
{
    version     2.0;
    format      ascii;
    class       volVectorField;
    location    "0.82";
    object      U;
}
// * * * * * * * * * * * * * * * * * * * * * * * * * * * * * * * * * * * * * //

dimensions      [0 1 -1 0 0 0 0];

internalField   nonuniform List<vector> 
18000
(
(8.744e-14 3.85294e-13 -5.86283e-12)
(9.23963e-14 3.84835e-13 -5.79776e-12)
(8.32654e-14 -9.74141e-15 -5.73272e-12)
(7.43546e-14 -1.39706e-14 -5.66905e-12)
(6.56919e-14 -1.37019e-14 -5.60596e-12)
(5.72716e-14 -1.33227e-14 -5.54357e-12)
(4.91467e-14 -1.33506e-14 -5.48182e-12)
(4.13733e-14 -1.33509e-14 -5.42134e-12)
(3.38045e-14 -1.31267e-14 -5.36172e-12)
(2.65531e-14 -9.63129e-15 -5.30419e-12)
(1.31935e-13 3.95913e-13 -7.30646e-12)
(1.4444e-13 3.82979e-13 -7.05502e-12)
(1.26393e-13 -4.72394e-14 -6.81049e-12)
(1.09276e-13 -5.00562e-14 -6.57683e-12)
(9.34398e-14 -4.83399e-14 -6.35324e-12)
(7.87129e-14 -4.64125e-14 -6.13858e-12)
(6.48875e-14 -4.46325e-14 -5.93246e-12)
(5.21986e-14 -4.30847e-14 -5.73497e-12)
(4.02689e-14 -4.14133e-14 -5.54468e-12)
(2.92287e-14 -2.9984e-14 -5.36658e-12)
(1.46506e-13 3.98319e-13 -9.21101e-12)
(1.54534e-13 3.67741e-13 -8.66428e-12)
(1.2779e-13 -1.01764e-13 -8.14921e-12)
(1.03789e-13 -1.00007e-13 -7.67223e-12)
(8.25988e-14 -9.33321e-14 -7.22798e-12)
(6.38162e-14 -8.7585e-14 -6.81475e-12)
(4.71025e-14 -8.22204e-14 -6.43074e-12)
(3.22714e-14 -7.72217e-14 -6.07169e-12)
(1.91159e-14 -7.26738e-14 -5.73728e-12)
(7.5006e-15 -5.13059e-14 -5.43036e-12)
(1.98851e-13 3.86162e-13 -1.17537e-11)
(1.97641e-13 3.3033e-13 -1.07405e-11)
(1.58022e-13 -1.80259e-13 -9.82275e-12)
(1.24257e-13 -1.68241e-13 -8.9962e-12)
(9.58479e-14 -1.52688e-13 -8.25365e-12)
(7.18155e-14 -1.38942e-13 -7.58438e-12)
(5.1629e-14 -1.26756e-13 -6.97989e-12)
(3.4373e-14 -1.15873e-13 -6.43307e-12)
(1.98601e-14 -1.05807e-13 -5.9374e-12)
(7.66293e-15 -7.31951e-14 -5.49503e-12)
(2.76015e-13 3.47387e-13 -1.51987e-11)
(2.57128e-13 2.56114e-13 -1.34507e-11)
(1.97951e-13 -2.93966e-13 -1.193e-11)
(1.50117e-13 -2.62444e-13 -1.06087e-11)
(1.11967e-13 -2.30115e-13 -9.46198e-12)
(8.13621e-14 -2.02747e-13 -8.46208e-12)
(5.66914e-14 -1.7962e-13 -7.58767e-12)
(3.6784e-14 -1.59788e-13 -6.82124e-12)
(2.06934e-14 -1.42052e-13 -6.14633e-12)
(7.74521e-15 -9.61148e-14 -5.56093e-12)
(3.92747e-13 2.62249e-13 -1.99368e-11)
(3.41389e-13 1.19952e-13 -1.70312e-11)
(2.51534e-13 -4.60233e-13 -1.46101e-11)
(1.8315e-13 -3.92625e-13 -1.2585e-11)
(1.31701e-13 -3.31813e-13 -1.08914e-11)
(9.24616e-14 -2.82737e-13 -9.46619e-12)
(6.24282e-14 -2.42591e-13 -8.26151e-12)
(3.93479e-14 -2.09332e-13 -7.23819e-12)
(2.15543e-14 -1.81152e-13 -6.36415e-12)
(7.8386e-15 -1.20018e-13 -5.62782e-12)
(5.73022e-13 9.59364e-14 -2.6548e-11)
(4.61468e-13 -1.21098e-13 -2.18296e-11)
(3.23118e-13 -7.07405e-13 -1.80498e-11)
(2.24507e-13 -5.74708e-13 -1.50253e-11)
(1.54632e-13 -4.66044e-13 -1.25918e-11)
(1.04302e-13 -3.827e-13 -1.06193e-11)
(6.77349e-14 -3.17443e-13 -9.00929e-12)
(4.10243e-14 -2.65757e-13 -7.68642e-12)
(2.13858e-14 -2.23703e-13 -6.59193e-12)
(6.88471e-15 -1.44926e-13 -5.69566e-12)
(-2.81747e-12 -2.16619e-13 -3.59661e-11)
(-3.07308e-12 -5.43554e-13 -2.8349e-11)
(-3.09758e-12 -1.07827e-12 -2.25214e-11)
(-3.0615e-12 -8.31018e-13 -1.80683e-11)
(-2.99351e-12 -6.44095e-13 -1.46331e-11)
(-2.90849e-12 -5.08202e-13 -1.19559e-11)
(-2.81559e-12 -4.06615e-13 -9.84928e-12)
(-2.72011e-12 -3.29397e-13 -8.17678e-12)
(-2.6256e-12 -2.69567e-13 -6.8361e-12)
(-2.58066e-12 -1.7094e-13 -5.77166e-12)
(-6.12272e-09 -1.52547e-12 -8.99027e-11)
(-6.22434e-09 -1.38889e-12 -7.34233e-11)
(-5.87145e-09 -1.147e-12 -6.05314e-11)
(-5.54909e-09 -7.277e-13 -5.06328e-11)
(-5.25712e-09 -4.5264e-13 -4.2925e-11)
(-4.99207e-09 -2.70519e-13 -3.68241e-11)
(-4.75076e-09 -1.48256e-13 -3.19263e-11)
(-4.53044e-09 -6.61187e-14 -2.79429e-11)
(-4.32923e-09 -1.34184e-13 -2.46642e-11)
(-4.2511e-09 -3.10451e-13 -2.22628e-11)
(6.72469e-07 -1.56651e-09 -7.1808e-08)
(3.58301e-08 -3.66585e-10 -6.31963e-08)
(2.75067e-08 8.42877e-10 -5.56702e-08)
(2.27322e-08 7.7717e-10 -4.93401e-08)
(1.86702e-08 7.08453e-10 -4.39775e-08)
(1.51825e-08 6.46442e-10 -3.94079e-08)
(1.21664e-08 5.9094e-10 -3.54897e-08)
(9.53889e-09 5.39885e-10 -3.21097e-08)
(6.7256e-09 2.11954e-10 -2.91807e-08)
(-1.18954e-07 -2.98917e-10 -2.73194e-08)
(2.54514e-13 3.64807e-13 -6.29341e-12)
(2.39046e-13 3.44649e-13 -6.22121e-12)
(2.09912e-13 -4.96283e-14 -6.14935e-12)
(1.81801e-13 -5.33313e-14 -6.07824e-12)
(1.54799e-13 -5.27963e-14 -6.00848e-12)
(1.28751e-13 -5.2122e-14 -5.93985e-12)
(1.03682e-13 -5.16306e-14 -5.87096e-12)
(7.96132e-14 -5.10126e-14 -5.80436e-12)
(5.62633e-14 -4.98392e-14 -5.73843e-12)
(3.43545e-14 -2.89831e-14 -5.67423e-12)
(5.08166e-13 3.19905e-13 -7.90083e-12)
(4.69675e-13 2.36202e-13 -7.61995e-12)
(4.03027e-13 -1.90067e-13 -7.3464e-12)
(3.40621e-13 -1.87599e-13 -7.0859e-12)
(2.8237e-13 -1.81163e-13 -6.83715e-12)
(2.28023e-13 -1.74937e-13 -6.59821e-12)
(1.77299e-13 -1.68837e-13 -6.37014e-12)
(1.29865e-13 -1.6335e-13 -6.15096e-12)
(8.55028e-14 -1.56177e-13 -5.94111e-12)
(4.47286e-14 -8.88702e-14 -5.74333e-12)
(6.21412e-13 2.39848e-13 -1.00473e-11)
(5.54275e-13 6.73487e-14 -9.4272e-12)
(4.59461e-13 -3.86643e-13 -8.84745e-12)
(3.74031e-13 -3.68018e-13 -8.31009e-12)
(2.97886e-13 -3.46126e-13 -7.81269e-12)
(2.29878e-13 -3.2558e-13 -7.351e-12)
(1.69055e-13 -3.06908e-13 -6.92327e-12)
(1.14646e-13 -2.896e-13 -6.52459e-12)
(6.61118e-14 -2.71014e-13 -6.15358e-12)
(2.32555e-14 -1.52055e-13 -5.81469e-12)
(8.04635e-13 1.04867e-13 -1.29501e-11)
(6.92704e-13 -1.90636e-13 -1.1787e-11)
(5.57583e-13 -6.60981e-13 -1.07414e-11)
(4.4099e-13 -6.09127e-13 -9.803e-12)
(3.41701e-13 -5.56836e-13 -8.96445e-12)
(2.5668e-13 -5.10383e-13 -8.21211e-12)
(1.83937e-13 -4.68658e-13 -7.53614e-12)
(1.21739e-13 -4.31046e-13 -6.92715e-12)
(6.84365e-14 -3.93728e-13 -6.37567e-12)
(2.36472e-14 -2.17511e-13 -5.8859e-12)
(1.05786e-12 -1.16847e-13 -1.69454e-11)
(8.7615e-13 -5.82996e-13 -1.49092e-11)
(6.82653e-13 -1.04408e-12 -1.3154e-11)
(5.23505e-13 -9.30966e-13 -1.16383e-11)
(3.93726e-13 -8.26241e-13 -1.0332e-11)
(2.87561e-13 -7.36176e-13 -9.20095e-12)
(2.00656e-13 -6.57851e-13 -8.2174e-12)
(1.2945e-13 -5.89807e-13 -7.35965e-12)
(7.10014e-14 -5.25856e-13 -6.60801e-12)
(2.39735e-14 -2.85884e-13 -5.95948e-12)
(1.41291e-12 -4.74717e-13 -2.25456e-11)
(1.12382e-12 -1.17704e-12 -1.90968e-11)
(8.44037e-13 -1.58158e-12 -1.62617e-11)
(6.25768e-13 -1.36207e-12 -1.39097e-11)
(4.55912e-13 -1.17105e-12 -1.19628e-11)
(3.23156e-13 -1.01252e-12 -1.03387e-11)
(2.19214e-13 -8.79589e-13 -8.97684e-12)
(1.37656e-13 -7.67837e-13 -7.82737e-12)
(7.3706e-14 -6.676e-13 -6.85194e-12)
(2.42653e-14 -3.56832e-13 -6.03482e-12)
(1.92335e-12 -1.04469e-12 -3.05391e-11)
(1.46164e-12 -2.07671e-12 -2.4812e-11)
(1.05419e-12 -2.34334e-12 -2.03093e-11)
(7.53193e-13 -1.94148e-12 -1.67457e-11)
(5.30324e-13 -1.61331e-12 -1.39198e-11)
(3.64193e-13 -1.35125e-12 -1.16541e-11)
(2.39788e-13 -1.13956e-12 -9.82295e-12)
(1.46512e-13 -9.6749e-13 -8.33221e-12)
(7.6405e-14 -8.20035e-13 -7.10648e-12)
(2.4589e-14 -4.31111e-13 -6.1117e-12)
(2.60087e-12 -1.97089e-12 -4.22421e-11)
(1.69209e-12 -3.45664e-12 -3.27469e-11)
(1.12257e-12 -3.42768e-12 -2.56596e-11)
(7.28996e-13 -2.72463e-12 -2.03301e-11)
(4.54277e-13 -2.18186e-12 -1.62926e-11)
(2.60688e-13 -1.76684e-12 -1.31902e-11)
(1.23511e-13 -1.44444e-12 -1.07802e-11)
(2.61461e-14 -1.19163e-12 -8.88589e-12)
(-4.31601e-14 -9.83707e-13 -7.38061e-12)
(-9.21764e-14 -5.08042e-13 -6.19704e-12)
(-2.24241e-10 -4.72063e-12 -1.03119e-10)
(-5.58312e-10 -6.6381e-12 -8.25838e-11)
(-4.61253e-10 -5.45951e-12 -6.69997e-11)
(-3.82361e-10 -4.2188e-12 -5.53198e-11)
(-3.20319e-10 -3.3126e-12 -4.64287e-11)
(-2.70841e-10 -2.64414e-12 -3.95165e-11)
(-2.30954e-10 -2.14078e-12 -3.40493e-11)
(-1.9848e-10 -1.75655e-12 -2.96577e-11)
(-1.71838e-10 -1.45245e-12 -2.60783e-11)
(-1.52281e-10 -8.79524e-13 -2.34626e-11)
(4.68042e-07 -2.55962e-09 -7.92738e-08)
(-8.621e-09 -2.02276e-09 -6.91997e-08)
(-9.90404e-09 -7.59679e-10 -6.02454e-08)
(-9.25467e-09 -6.95913e-10 -5.28761e-08)
(-8.62538e-09 -6.44715e-10 -4.6751e-08)
(-8.04179e-09 -5.95975e-10 -4.16119e-08)
(-7.50973e-09 -5.50759e-10 -3.72621e-08)
(-7.03038e-09 -5.09339e-10 -3.35505e-08)
(-6.63983e-09 -4.78251e-10 -3.0364e-08)
(-9.69906e-09 -5.06463e-10 -2.83169e-08)
(2.31923e-13 3.68261e-13 -4.45489e-13)
(2.18774e-13 3.45788e-13 -4.3772e-13)
(1.91793e-13 -4.86994e-14 -4.29934e-13)
(1.66083e-13 -5.24334e-14 -4.22089e-13)
(1.41441e-13 -5.1512e-14 -4.14489e-13)
(1.17659e-13 -5.11135e-14 -4.07224e-13)
(9.5197e-14 -5.06569e-14 -3.99863e-13)
(7.3468e-14 -4.97952e-14 -3.93239e-13)
(5.26691e-14 -4.89269e-14 -3.86505e-13)
(3.32105e-14 -2.57832e-14 -3.79876e-13)
(5.03847e-13 3.32357e-13 -6.17319e-13)
(4.65006e-13 2.38676e-13 -5.85897e-13)
(3.98461e-13 -1.87673e-13 -5.55057e-13)
(3.36185e-13 -1.84745e-13 -5.26135e-13)
(2.78367e-13 -1.78297e-13 -4.99575e-13)
(2.24498e-13 -1.71761e-13 -4.74787e-13)
(1.74542e-13 -1.65527e-13 -4.50452e-13)
(1.27843e-13 -1.59934e-13 -4.27727e-13)
(8.42502e-14 -1.52787e-13 -4.07791e-13)
(4.45752e-14 -7.9704e-14 -3.87201e-13)
(6.2323e-13 2.63208e-13 -8.72475e-13)
(5.5379e-13 6.85187e-14 -7.94969e-13)
(4.57809e-13 -3.84637e-13 -7.25929e-13)
(3.71498e-13 -3.65327e-13 -6.62738e-13)
(2.95006e-13 -3.42283e-13 -6.06413e-13)
(2.27112e-13 -3.21195e-13 -5.54983e-13)
(1.66636e-13 -3.0193e-13 -5.08922e-13)
(1.1294e-13 -2.84453e-13 -4.67464e-13)
(6.48894e-14 -2.65243e-13 -4.291e-13)
(2.30441e-14 -1.36097e-13 -3.95844e-13)
(8.17578e-13 1.42923e-13 -1.25468e-12)
(6.9982e-13 -1.96271e-13 -1.09649e-12)
(5.60686e-13 -6.63378e-13 -9.60134e-13)
(4.41538e-13 -6.09113e-13 -8.41479e-13)
(3.40626e-13 -5.54351e-13 -7.39935e-13)
(2.5497e-13 -5.05872e-13 -6.52506e-13)
(1.82101e-13 -4.62549e-13 -5.77177e-13)
(1.2014e-13 -4.2454e-13 -5.11656e-13)
(6.74251e-14 -3.86488e-13 -4.54077e-13)
(2.34175e-14 -1.95595e-13 -4.04291e-13)
(1.09141e-12 -6.09444e-14 -1.8444e-12)
(8.95872e-13 -6.06289e-13 -1.5366e-12)
(6.93653e-13 -1.05852e-12 -1.28672e-12)
(5.285e-13 -9.38809e-13 -1.07997e-12)
(3.95238e-13 -8.28091e-13 -9.10373e-13)
(2.87238e-13 -7.33721e-13 -7.71455e-13)
(1.99558e-13 -6.52621e-13 -6.56547e-13)
(1.28184e-13 -5.82614e-13 -5.61004e-13)
(7.02666e-14 -5.16642e-13 -4.808e-13)
(2.40004e-14 -2.57188e-13 -4.14843e-13)
(1.48312e-12 -4.00469e-13 -2.77602e-12)
(1.16507e-12 -1.24006e-12 -2.19258e-12)
(8.67534e-13 -1.62174e-12 -1.74826e-12)
(6.37345e-13 -1.38649e-12 -1.39779e-12)
(4.61002e-13 -1.18234e-12 -1.12814e-12)
(3.2458e-13 -1.0149e-12 -9.16761e-13)
(2.18934e-13 -8.76122e-13 -7.50468e-13)
(1.37007e-13 -7.60627e-13 -6.18091e-13)
(7.31106e-14 -6.57174e-13 -5.09864e-13)
(2.44615e-14 -3.22462e-13 -4.25702e-13)
(2.05921e-12 -9.54843e-13 -4.28297e-12)
(1.53963e-12 -2.22011e-12 -3.18965e-12)
(1.09757e-12 -2.43454e-12 -2.40806e-12)
(7.75288e-13 -1.99717e-12 -1.82851e-12)
(5.40724e-13 -1.64179e-12 -1.40751e-12)
(3.68253e-13 -1.3631e-12 -1.09448e-12)
(2.40851e-13 -1.14014e-12 -8.59937e-13)
(1.46387e-13 -9.61507e-13 -6.8148e-13)
(7.60038e-14 -8.08933e-13 -5.42361e-13)
(2.48854e-14 -3.90371e-13 -4.38323e-13)
(3.12778e-12 -1.8808e-12 -6.80199e-12)
(2.07512e-12 -3.75844e-12 -4.74095e-12)
(1.4074e-12 -3.6132e-12 -3.37101e-12)
(9.51229e-13 -2.83511e-12 -2.42088e-12)
(6.36998e-13 -2.24056e-12 -1.77182e-12)
(4.17811e-13 -1.7941e-12 -1.3154e-12)
(2.63618e-13 -1.45243e-12 -9.89907e-13)
(1.54582e-13 -1.18869e-12 -7.53249e-13)
(7.71349e-14 -9.72638e-13 -5.79008e-13)
(2.32196e-14 -4.61683e-13 -4.51372e-13)
(3.88061e-10 -4.07645e-12 -1.42626e-11)
(-2.07703e-11 -6.80306e-12 -9.72761e-12)
(-1.71592e-11 -5.42882e-12 -6.82778e-12)
(-1.2483e-11 -4.0566e-12 -4.92662e-12)
(-9.277e-12 -3.07581e-12 -3.67021e-12)
(-7.02028e-12 -2.3743e-12 -2.81306e-12)
(-5.4013e-12 -1.85995e-12 -2.21366e-12)
(-4.22063e-12 -1.47797e-12 -1.78486e-12)
(-3.34583e-12 -1.17899e-12 -1.46996e-12)
(-2.68196e-12 -5.63557e-13 -1.24576e-12)
(4.05546e-07 -1.44102e-09 -8.04207e-09)
(8.78157e-10 -1.3004e-09 -6.29299e-09)
(-6.23479e-10 -1.65537e-10 -4.76502e-09)
(-5.12149e-10 -1.23251e-10 -3.66314e-09)
(-4.18324e-10 -9.79798e-11 -2.86084e-09)
(-3.45482e-10 -7.86964e-11 -2.26528e-09)
(-2.87863e-10 -6.38548e-11 -1.81622e-09)
(-2.41988e-10 -5.23082e-11 -1.47274e-09)
(-2.06744e-10 -4.32133e-11 -1.20688e-09)
(-2.39143e-10 -3.76496e-11 -1.01523e-09)
(2.26804e-13 3.6887e-13 -2.00002e-14)
(2.14219e-13 3.46016e-13 -1.90878e-14)
(1.87828e-13 -4.83922e-14 -1.67415e-14)
(1.62585e-13 -5.21244e-14 -1.56783e-14)
(1.3856e-13 -5.14646e-14 -1.40737e-14)
(1.15527e-13 -5.07982e-14 -1.29547e-14)
(9.33902e-14 -5.0151e-14 -1.18033e-14)
(7.22062e-14 -4.93813e-14 -1.04796e-14)
(5.20274e-14 -4.83051e-14 -1.00014e-14)
(3.30172e-14 -2.51828e-14 -1.01046e-14)
(4.98035e-13 3.35153e-13 -3.03853e-14)
(4.60037e-13 2.40691e-13 -2.73962e-14)
(3.94263e-13 -1.85886e-13 -2.50843e-14)
(3.32751e-13 -1.82971e-13 -2.18943e-14)
(2.7562e-13 -1.76069e-13 -1.90915e-14)
(2.22405e-13 -1.70064e-13 -1.75064e-14)
(1.72985e-13 -1.64179e-13 -1.5179e-14)
(1.26866e-13 -1.57943e-13 -1.35424e-14)
(8.3773e-14 -1.50863e-13 -1.23649e-14)
(4.45369e-14 -7.76178e-14 -1.1493e-14)
(6.15535e-13 2.70024e-13 -4.84187e-14)
(5.47617e-13 7.32124e-14 -4.29215e-14)
(4.52727e-13 -3.80152e-13 -3.69352e-14)
(3.67483e-13 -3.61039e-13 -3.16641e-14)
(2.91895e-13 -3.38624e-13 -2.74569e-14)
(2.24724e-13 -3.17742e-13 -2.36196e-14)
(1.6513e-13 -2.98504e-13 -2.00179e-14)
(1.12036e-13 -2.8123e-13 -1.77018e-14)
(6.45796e-14 -2.62201e-13 -1.55815e-14)
(2.31979e-14 -1.32588e-13 -1.43947e-14)
(8.07578e-13 1.56696e-13 -7.88671e-14)
(6.91907e-13 -1.87115e-13 -6.81621e-14)
(5.54599e-13 -6.55687e-13 -5.69839e-14)
(4.36817e-13 -6.02072e-13 -4.74545e-14)
(3.37118e-13 -5.47844e-13 -3.95145e-14)
(2.5253e-13 -5.00006e-13 -3.35925e-14)
(1.8057e-13 -4.57372e-13 -2.799e-14)
(1.19395e-13 -4.19487e-13 -2.35086e-14)
(6.73461e-14 -3.81893e-13 -2.07244e-14)
(2.38404e-14 -1.91158e-13 -1.79622e-14)
(1.07842e-12 -3.63283e-14 -1.3407e-13)
(8.86036e-13 -5.91061e-13 -1.10417e-13)
(6.86363e-13 -1.0455e-12 -8.88557e-14)
(5.23112e-13 -9.27729e-13 -7.10863e-14)
(3.91519e-13 -8.18541e-13 -5.7727e-14)
(2.84767e-13 -7.25192e-13 -4.64782e-14)
(1.98151e-13 -6.44871e-13 -3.80699e-14)
(1.27746e-13 -5.75777e-13 -3.27774e-14)
(7.01331e-14 -5.1076e-13 -2.85608e-14)
(2.44964e-14 -2.51471e-13 -2.39476e-14)
(1.46603e-12 -3.56552e-13 -2.32847e-13)
(1.15278e-12 -1.21568e-12 -1.80917e-13)
(8.58708e-13 -1.60225e-12 -1.40354e-13)
(6.31282e-13 -1.37028e-12 -1.07943e-13)
(4.57002e-13 -1.16846e-12 -8.45699e-14)
(3.22187e-13 -1.00327e-12 -6.73814e-14)
(2.17791e-13 -8.65956e-13 -5.39604e-14)
(1.36624e-13 -7.52587e-13 -4.43465e-14)
(7.32751e-14 -6.50425e-13 -3.57843e-14)
(2.50614e-14 -3.15279e-13 -3.02949e-14)
(2.03719e-12 -8.78198e-13 -4.09015e-13)
(1.52396e-12 -2.18316e-12 -3.0104e-13)
(1.08704e-12 -2.40534e-12 -2.19997e-13)
(7.68453e-13 -1.9741e-12 -1.63846e-13)
(5.3653e-13 -1.62325e-12 -1.23247e-13)
(3.65968e-13 -1.34772e-12 -9.46693e-14)
(2.39771e-13 -1.12768e-12 -7.41497e-14)
(1.46095e-13 -9.51743e-13 -5.90895e-14)
(7.66596e-14 -8.00917e-13 -4.75003e-14)
(2.56769e-14 -3.82505e-13 -3.85396e-14)
(3.10663e-12 -1.74801e-12 -7.37656e-13)
(2.05429e-12 -3.70431e-12 -5.02491e-13)
(1.39421e-12 -3.57123e-12 -3.48637e-13)
(9.43867e-13 -2.80362e-12 -2.45848e-13)
(6.33644e-13 -2.21584e-12 -1.78491e-13)
(4.17138e-13 -1.77526e-12 -1.32085e-13)
(2.64591e-13 -1.43786e-12 -9.94835e-14)
(1.56687e-13 -1.17685e-12 -7.68697e-14)
(7.99696e-14 -9.63698e-13 -6.11555e-14)
(2.64847e-14 -4.53075e-13 -4.84626e-14)
(4.35243e-10 -3.76994e-12 -1.57079e-12)
(5.10645e-12 -6.66012e-12 -8.34116e-13)
(1.24421e-12 -5.2967e-12 -5.45287e-13)
(8.06191e-13 -3.95312e-12 -3.74504e-13)
(5.20013e-13 -2.99362e-12 -2.65723e-13)
(3.22611e-13 -2.30798e-12 -1.95487e-13)
(1.87501e-13 -1.80561e-12 -1.47694e-13)
(9.49422e-14 -1.43264e-12 -1.14782e-13)
(3.15049e-14 -1.14032e-12 -9.11618e-14)
(-9.87031e-15 -5.27682e-13 -7.44515e-14)
(4.02701e-07 -1.24023e-09 -8.89972e-10)
(1.64625e-09 -1.14995e-09 -3.03471e-10)
(-2.07927e-11 -2.5952e-11 -1.96308e-10)
(-1.81657e-11 -1.21692e-11 -1.31001e-10)
(-1.30059e-11 -8.5972e-12 -8.97482e-11)
(-9.51606e-12 -6.22625e-12 -6.28417e-11)
(-7.08052e-12 -4.5903e-12 -4.48796e-11)
(-5.35272e-12 -3.44428e-12 -3.26425e-11)
(-4.14441e-12 -2.6127e-12 -2.41421e-11)
(-4.0363e-12 -1.59867e-12 -1.81006e-11)
(2.26998e-13 3.68777e-13 -1.14035e-14)
(2.14318e-13 3.4539e-13 -1.02837e-14)
(1.8806e-13 -4.91635e-14 -7.79197e-15)
(1.62745e-13 -5.26214e-14 -5.61923e-15)
(1.38642e-13 -5.1738e-14 -4.45207e-15)
(1.1548e-13 -5.1174e-14 -3.33524e-15)
(9.35185e-14 -5.08162e-14 -2.64497e-15)
(7.23907e-14 -4.9701e-14 -1.56408e-15)
(5.21153e-14 -4.82747e-14 -4.83722e-16)
(3.31244e-14 -2.54076e-14 -4.92284e-16)
(4.98744e-13 3.34877e-13 -1.63256e-14)
(4.60655e-13 2.40235e-13 -1.45712e-14)
(3.94855e-13 -1.86366e-13 -1.13089e-14)
(3.33153e-13 -1.83815e-13 -9.6473e-15)
(2.75993e-13 -1.76906e-13 -6.63615e-15)
(2.2269e-13 -1.70341e-13 -4.79296e-15)
(1.73275e-13 -1.64292e-13 -4.1985e-15)
(1.27242e-13 -1.58402e-13 -3.59323e-15)
(8.4129e-14 -1.51076e-13 -2.5221e-15)
(4.49238e-14 -7.75872e-14 -1.59077e-15)
(6.16855e-13 2.69772e-13 -2.68536e-14)
(5.48857e-13 7.24065e-14 -2.38694e-14)
(4.53739e-13 -3.81385e-13 -1.93884e-14)
(3.68352e-13 -3.62084e-13 -1.53069e-14)
(2.92691e-13 -3.39107e-13 -1.22624e-14)
(2.25511e-13 -3.1834e-13 -9.74078e-15)
(1.65713e-13 -2.98992e-13 -7.82982e-15)
(1.12585e-13 -2.81396e-13 -6.60795e-15)
(6.51391e-14 -2.62162e-13 -6.08363e-15)
(2.37221e-14 -1.32721e-13 -5.44728e-15)
(8.09948e-13 1.56317e-13 -4.59972e-14)
(6.94153e-13 -1.88352e-13 -4.01414e-14)
(5.56435e-13 -6.57089e-13 -3.33629e-14)
(4.38415e-13 -6.03466e-13 -2.71702e-14)
(3.38507e-13 -5.48931e-13 -2.21838e-14)
(2.53645e-13 -5.00911e-13 -1.81815e-14)
(1.81573e-13 -4.58196e-13 -1.53771e-14)
(1.20372e-13 -4.20106e-13 -1.3122e-14)
(6.83103e-14 -3.8225e-13 -1.12561e-14)
(2.45625e-14 -1.9084e-13 -1.06402e-14)
(1.08269e-12 -3.66813e-14 -8.07704e-14)
(8.89695e-13 -5.93405e-13 -7.00032e-14)
(6.89425e-13 -1.04855e-12 -5.68218e-14)
(5.25639e-13 -9.30092e-13 -4.58385e-14)
(3.93636e-13 -8.20463e-13 -3.8144e-14)
(2.86593e-13 -7.27024e-13 -3.13276e-14)
(1.9972e-13 -6.45941e-13 -2.5632e-14)
(1.29071e-13 -5.76212e-13 -2.22842e-14)
(7.14109e-14 -5.11514e-13 -1.95494e-14)
(2.55617e-14 -2.52029e-13 -1.68156e-14)
(1.4732e-12 -3.58217e-13 -1.42956e-13)
(1.1588e-12 -1.22058e-12 -1.18902e-13)
(8.63481e-13 -1.60693e-12 -9.50164e-14)
(6.35245e-13 -1.37455e-12 -7.59689e-14)
(4.6017e-13 -1.17178e-12 -6.13036e-14)
(3.24882e-13 -1.00599e-12 -5.09353e-14)
(2.20013e-13 -8.68369e-13 -4.11425e-14)
(1.38467e-13 -7.54215e-13 -3.44488e-14)
(7.47698e-14 -6.51773e-13 -3.00453e-14)
(2.63614e-14 -3.16014e-13 -2.55076e-14)
(2.04922e-12 -8.81058e-13 -2.54439e-13)
(1.53382e-12 -2.193e-12 -2.04171e-13)
(1.09439e-12 -2.41467e-12 -1.57424e-13)
(7.74163e-13 -1.98144e-12 -1.21982e-13)
(5.41083e-13 -1.62923e-12 -9.71931e-14)
(3.69489e-13 -1.35263e-12 -7.75312e-14)
(2.42652e-13 -1.13147e-12 -6.24802e-14)
(1.4851e-13 -9.54572e-13 -5.15456e-14)
(7.85474e-14 -8.03565e-13 -4.3232e-14)
(2.73217e-14 -3.8394e-13 -3.63247e-14)
(3.1392e-12 -1.75394e-12 -4.56239e-13)
(2.06943e-12 -3.72415e-12 -3.47569e-13)
(1.40531e-12 -3.58837e-12 -2.55424e-13)
(9.52349e-13 -2.81664e-12 -1.92258e-13)
(6.40085e-13 -2.22617e-12 -1.47541e-13)
(4.22098e-13 -1.78333e-12 -1.14972e-13)
(2.68457e-13 -1.44407e-12 -9.09802e-14)
(1.59658e-13 -1.18187e-12 -7.30411e-14)
(8.22447e-14 -9.67642e-13 -5.94556e-14)
(2.8326e-14 -4.5537e-13 -5.00044e-14)
(4.60944e-10 -3.82162e-12 -1.07567e-12)
(6.2863e-12 -6.73196e-12 -5.874e-13)
(1.81888e-12 -5.32662e-12 -4.11987e-13)
(1.16833e-12 -3.97501e-12 -2.98745e-13)
(7.52306e-13 -3.01031e-12 -2.21029e-13)
(4.76725e-13 -2.32059e-12 -1.6692e-13)
(2.9214e-13 -1.81515e-12 -1.274e-13)
(1.67525e-13 -1.43995e-12 -9.9981e-14)
(8.25849e-14 -1.14604e-12 -7.91186e-14)
(2.60969e-14 -5.30504e-13 -6.40307e-14)
(4.27332e-07 -1.30932e-09 -6.76675e-10)
(1.86442e-09 -1.19927e-09 -1.74641e-11)
(5.96151e-12 -1.73313e-11 -6.55959e-12)
(6.24137e-13 -5.85311e-12 -3.87046e-12)
(4.26617e-13 -4.18099e-12 -2.35271e-12)
(2.98093e-13 -3.07687e-12 -1.48934e-12)
(2.03418e-13 -2.31019e-12 -9.72269e-13)
(1.35394e-13 -1.76776e-12 -6.52464e-13)
(8.59578e-14 -1.36286e-12 -4.47038e-13)
(4.38184e-14 -6.26483e-13 -3.1044e-13)
(2.27498e-13 3.68432e-13 -1.38367e-14)
(2.14776e-13 3.44616e-13 -1.16212e-14)
(1.88289e-13 -5.02066e-14 -9.73281e-15)
(1.63078e-13 -5.3415e-14 -6.69694e-15)
(1.38793e-13 -5.23389e-14 -5.13491e-15)
(1.15647e-13 -5.14822e-14 -2.97864e-15)
(9.35459e-14 -5.08222e-14 -2.13419e-15)
(7.24619e-14 -5.02131e-14 -1.45236e-15)
(5.23063e-14 -4.87039e-14 -7.48239e-16)
(3.31757e-14 -2.51443e-14 -1.24354e-15)
(5.0005e-13 3.34504e-13 -2.01982e-14)
(4.61834e-13 2.38858e-13 -1.79931e-14)
(3.95728e-13 -1.87643e-13 -1.28951e-14)
(3.34003e-13 -1.84663e-13 -1.05771e-14)
(2.7663e-13 -1.77839e-13 -8.02955e-15)
(2.23229e-13 -1.70905e-13 -5.79423e-15)
(1.73667e-13 -1.64546e-13 -4.23484e-15)
(1.27565e-13 -1.58511e-13 -3.41792e-15)
(8.45933e-14 -1.51579e-13 -3.26244e-15)
(4.52864e-14 -7.80244e-14 -2.64884e-15)
(6.19244e-13 2.68979e-13 -3.23428e-14)
(5.50893e-13 7.06675e-14 -2.88055e-14)
(4.55582e-13 -3.83102e-13 -2.31175e-14)
(3.69778e-13 -3.6351e-13 -1.87887e-14)
(2.93963e-13 -3.40534e-13 -1.45132e-14)
(2.26541e-13 -3.19251e-13 -1.13489e-14)
(1.66685e-13 -2.99561e-13 -9.3149e-15)
(1.13404e-13 -2.81789e-13 -8.38367e-15)
(6.58713e-14 -2.62553e-13 -7.3568e-15)
(2.45722e-14 -1.33154e-13 -6.51169e-15)
(8.14079e-13 1.54625e-13 -5.62958e-14)
(6.97613e-13 -1.91192e-13 -4.85142e-14)
(5.59348e-13 -6.59966e-13 -3.98917e-14)
(4.40786e-13 -6.05815e-13 -3.23269e-14)
(3.40565e-13 -5.50889e-13 -2.61891e-14)
(2.55469e-13 -5.02305e-13 -2.11254e-14)
(1.83074e-13 -4.59117e-13 -1.81349e-14)
(1.21669e-13 -4.20967e-13 -1.61024e-14)
(6.93485e-14 -3.82786e-13 -1.44899e-14)
(2.55696e-14 -1.91157e-13 -1.25516e-14)
(1.08952e-12 -4.00989e-14 -9.8767e-14)
(8.95424e-13 -5.98494e-13 -8.37745e-14)
(6.93988e-13 -1.05327e-12 -6.85164e-14)
(5.29366e-13 -9.33926e-13 -5.57901e-14)
(3.96711e-13 -8.23528e-13 -4.62821e-14)
(2.89264e-13 -7.29669e-13 -3.87447e-14)
(2.01784e-13 -6.48176e-13 -3.18523e-14)
(1.30831e-13 -5.78045e-13 -2.71514e-14)
(7.2915e-14 -5.12814e-13 -2.29395e-14)
(2.67573e-14 -2.52667e-13 -2.07419e-14)
(1.48462e-12 -3.64542e-13 -1.72302e-13)
(1.16807e-12 -1.23001e-12 -1.44264e-13)
(8.70705e-13 -1.61561e-12 -1.14564e-13)
(6.4078e-13 -1.38125e-12 -9.13177e-14)
(4.64681e-13 -1.177e-12 -7.44648e-14)
(3.28441e-13 -1.01051e-12 -6.18887e-14)
(2.22941e-13 -8.72067e-13 -5.04802e-14)
(1.40834e-13 -7.56867e-13 -4.21023e-14)
(7.67864e-14 -6.54072e-13 -3.61533e-14)
(2.8029e-14 -3.17257e-13 -3.16494e-14)
(2.06851e-12 -8.9417e-13 -3.05223e-13)
(1.54862e-12 -2.21057e-12 -2.44453e-13)
(1.10549e-12 -2.43012e-12 -1.89996e-13)
(7.82567e-13 -1.99334e-12 -1.48212e-13)
(5.47552e-13 -1.6384e-12 -1.1834e-13)
(3.74515e-13 -1.36019e-12 -9.5008e-14)
(2.46683e-13 -1.13751e-12 -7.70723e-14)
(1.5162e-13 -9.5932e-13 -6.23495e-14)
(8.10089e-14 -8.07244e-13 -5.25112e-14)
(2.93998e-14 -3.86001e-13 -4.47492e-14)
(3.18168e-12 -1.7801e-12 -5.43473e-13)
(2.09332e-12 -3.75797e-12 -4.16337e-13)
(1.4222e-12 -3.61605e-12 -3.0983e-13)
(9.64661e-13 -2.83729e-12 -2.34415e-13)
(6.49092e-13 -2.24176e-12 -1.80832e-13)
(4.28886e-13 -1.79557e-12 -1.4191e-13)
(2.73526e-13 -1.45391e-12 -1.12965e-13)
(1.63591e-13 -1.18948e-12 -8.91824e-14)
(8.52586e-14 -9.73404e-13 -7.23842e-14)
(3.06937e-14 -4.58507e-13 -6.08002e-14)
(4.90797e-10 -3.87193e-12 -8.95871e-13)
(6.64556e-12 -6.8222e-12 -7.04499e-13)
(1.86036e-12 -5.37659e-12 -5.03526e-13)
(1.19377e-12 -4.01057e-12 -3.65211e-13)
(7.69181e-13 -3.03642e-12 -2.71645e-13)
(4.88294e-13 -2.34044e-12 -2.05476e-13)
(3.00352e-13 -1.8302e-12 -1.57653e-13)
(1.73445e-13 -1.45132e-12 -1.22616e-13)
(8.68799e-14 -1.15491e-12 -9.73137e-14)
(2.92481e-14 -5.35479e-13 -7.90137e-14)
(4.6618e-07 -1.37329e-09 -4.22044e-10)
(2.02158e-09 -1.27559e-09 -1.71102e-12)
(7.6986e-12 -1.77956e-11 -9.51563e-13)
(1.17293e-12 -5.68984e-12 -6.39519e-13)
(7.73417e-13 -4.0858e-12 -4.41592e-13)
(5.19326e-13 -3.02124e-12 -3.15461e-13)
(3.49483e-13 -2.27755e-12 -2.31582e-13)
(2.33908e-13 -1.74853e-12 -1.72245e-13)
(1.54266e-13 -1.3515e-12 -1.3119e-13)
(9.98277e-14 -6.17058e-13 -1.02697e-13)
(2.28174e-13 3.67875e-13 -1.59687e-14)
(2.15441e-13 3.43759e-13 -1.39871e-14)
(1.88652e-13 -5.11122e-14 -1.06591e-14)
(1.63423e-13 -5.44462e-14 -8.43814e-15)
(1.39133e-13 -5.3216e-14 -6.31875e-15)
(1.15932e-13 -5.23677e-14 -4.30385e-15)
(9.38441e-14 -5.1424e-14 -2.78405e-15)
(7.27225e-14 -5.02686e-14 -4.02193e-15)
(5.2591e-14 -4.84374e-14 -1.22253e-14)
(3.34319e-14 -2.54418e-14 -3.4957e-14)
(5.01644e-13 3.33861e-13 -2.40746e-14)
(4.63282e-13 2.374e-13 -2.01953e-14)
(3.96912e-13 -1.89241e-13 -1.61359e-14)
(3.34985e-13 -1.85722e-13 -1.26767e-14)
(2.77445e-13 -1.78802e-13 -1.02234e-14)
(2.23981e-13 -1.71857e-13 -7.66167e-15)
(1.74379e-13 -1.65258e-13 -6.28961e-15)
(1.28311e-13 -1.58829e-13 -5.82004e-15)
(8.51811e-14 -1.51509e-13 -8.94332e-15)
(4.57941e-14 -7.85406e-14 -2.56471e-14)
(6.22104e-13 2.68022e-13 -3.83374e-14)
(5.53274e-13 6.88655e-14 -3.24324e-14)
(4.5766e-13 -3.85186e-13 -2.60886e-14)
(3.71547e-13 -3.65401e-13 -2.1236e-14)
(2.95381e-13 -3.42011e-13 -1.72041e-14)
(2.27813e-13 -3.20433e-13 -1.43804e-14)
(1.67811e-13 -3.00243e-13 -1.20056e-14)
(1.14523e-13 -2.82295e-13 -1.13885e-14)
(6.68843e-14 -2.63131e-13 -1.33633e-14)
(2.52795e-14 -1.33924e-13 -2.23784e-14)
(8.19054e-13 1.52529e-13 -6.52731e-14)
(7.01731e-13 -1.94496e-13 -5.4892e-14)
(5.62772e-13 -6.63137e-13 -4.50358e-14)
(4.43661e-13 -6.08686e-13 -3.69978e-14)
(3.4308e-13 -5.53305e-13 -3.07547e-14)
(2.57663e-13 -5.04206e-13 -2.6522e-14)
(1.84932e-13 -4.6039e-13 -2.30007e-14)
(1.23203e-13 -4.21782e-13 -2.02501e-14)
(7.07033e-14 -3.84005e-13 -2.01756e-14)
(2.67662e-14 -1.92265e-13 -2.45358e-14)
(1.09776e-12 -4.40907e-14 -1.14428e-13)
(9.02264e-13 -6.04394e-13 -9.48682e-14)
(6.99453e-13 -1.05878e-12 -7.69219e-14)
(5.33776e-13 -9.38488e-13 -6.34354e-14)
(4.0044e-13 -8.27141e-13 -5.31685e-14)
(2.92472e-13 -7.32902e-13 -4.55701e-14)
(2.04499e-13 -6.50896e-13 -3.95373e-14)
(1.32971e-13 -5.80205e-13 -3.44359e-14)
(7.47008e-14 -5.14569e-13 -3.05734e-14)
(2.85037e-14 -2.54081e-13 -3.26626e-14)
(1.49848e-12 -3.7235e-13 -2.01751e-13)
(1.17894e-12 -1.24089e-12 -1.63238e-13)
(8.79172e-13 -1.6257e-12 -1.29998e-13)
(6.47591e-13 -1.38941e-12 -1.05609e-13)
(4.70077e-13 -1.18324e-12 -8.66959e-14)
(3.32859e-13 -1.01577e-12 -7.36774e-14)
(2.26582e-13 -8.76744e-13 -6.15903e-14)
(1.43694e-13 -7.60653e-13 -5.24429e-14)
(7.92356e-14 -6.56796e-13 -4.61133e-14)
(3.00449e-14 -3.19325e-13 -4.39121e-14)
(2.09175e-12 -9.10006e-13 -3.55e-13)
(1.56604e-12 -2.23127e-12 -2.76403e-13)
(1.11857e-12 -2.4476e-12 -2.15563e-13)
(7.92659e-13 -2.00729e-12 -1.70953e-13)
(5.55328e-13 -1.6494e-12 -1.36905e-13)
(3.80603e-13 -1.36914e-12 -1.12533e-13)
(2.51574e-13 -1.1451e-12 -9.18406e-14)
(1.55424e-13 -9.65383e-13 -7.66804e-14)
(8.39915e-14 -8.1189e-13 -6.54624e-14)
(3.17823e-14 -3.89141e-13 -5.85796e-14)
(3.20359e-12 -1.81146e-12 -6.28845e-13)
(2.12089e-12 -3.79712e-12 -4.68869e-13)
(1.44242e-12 -3.64785e-12 -3.52614e-13)
(9.79379e-13 -2.86146e-12 -2.69416e-13)
(6.60058e-13 -2.26025e-12 -2.09318e-13)
(4.37126e-13 -1.80994e-12 -1.66801e-13)
(2.7985e-13 -1.46595e-12 -1.35091e-13)
(1.68424e-13 -1.19943e-12 -1.08289e-13)
(8.89394e-14 -9.80831e-13 -8.95027e-14)
(3.35562e-14 -4.62942e-13 -7.64389e-14)
(4.95498e-10 -3.70858e-12 4.97001e-13)
(6.41349e-12 -6.8486e-12 -7.72279e-13)
(1.88928e-12 -5.43263e-12 -5.76115e-13)
(1.21577e-12 -4.05229e-12 -4.20466e-13)
(7.84784e-13 -3.06743e-12 -3.16142e-13)
(4.99539e-13 -2.3641e-12 -2.42484e-13)
(3.08513e-13 -1.84905e-12 -1.90408e-13)
(1.79406e-13 -1.46574e-12 -1.46902e-13)
(9.13036e-14 -1.16608e-12 -1.19324e-13)
(3.24791e-14 -5.42134e-13 -9.87086e-14)
(4.90356e-07 -1.09826e-09 1.85347e-09)
(1.98394e-09 -1.28439e-09 2.60766e-11)
(6.4764e-12 -1.71474e-11 -7.80269e-13)
(1.20047e-12 -5.74713e-12 -6.48802e-13)
(7.9442e-13 -4.13335e-12 -4.68169e-13)
(5.33526e-13 -3.05673e-12 -3.45702e-13)
(3.59415e-13 -2.30504e-12 -2.61302e-13)
(2.411e-13 -1.76936e-12 -1.95792e-13)
(1.59292e-13 -1.36736e-12 -1.53442e-13)
(1.03604e-13 -6.25959e-13 -1.23092e-13)
(2.28668e-13 3.67655e-13 -1.31494e-14)
(2.15294e-13 3.42603e-13 -3.80933e-15)
(1.88827e-13 -5.23294e-14 -3.39803e-15)
(1.63658e-13 -5.51086e-14 -5.49273e-15)
(1.39603e-13 -5.40218e-14 -1.18743e-14)
(1.16729e-13 -5.30431e-14 -2.41647e-14)
(9.50186e-14 -5.12807e-14 -4.61706e-14)
(7.5253e-14 -4.77579e-14 -1.658e-13)
(5.76875e-14 -4.14411e-14 -6.40505e-13)
(3.72957e-14 -4.17104e-14 -1.81184e-12)
(5.02924e-13 3.33086e-13 -1.71309e-14)
(4.63547e-13 2.3629e-13 -1.7696e-15)
(3.97463e-13 -1.90235e-13 -3.88726e-15)
(3.35617e-13 -1.8677e-13 -5.61755e-15)
(2.78322e-13 -1.79836e-13 -1.1912e-14)
(2.25187e-13 -1.72832e-13 -2.36656e-14)
(1.75815e-13 -1.66124e-13 -4.09764e-14)
(1.30311e-13 -1.6002e-13 -1.11206e-13)
(8.82248e-14 -1.52706e-13 -3.81336e-13)
(4.69684e-14 -1.07293e-13 -1.18559e-12)
(6.24339e-13 2.66921e-13 -2.82505e-14)
(5.54288e-13 6.7269e-14 -5.53122e-15)
(4.5869e-13 -3.8641e-13 -5.74975e-15)
(3.72731e-13 -3.66333e-13 -8.78548e-15)
(2.96824e-13 -3.4303e-13 -1.42302e-14)
(2.29636e-13 -3.21761e-13 -2.62775e-14)
(1.69871e-13 -3.02079e-13 -4.49657e-14)
(1.16723e-13 -2.84307e-13 -8.60305e-14)
(6.98059e-14 -2.67907e-13 -2.52509e-13)
(2.6759e-14 -1.65283e-13 -7.7927e-13)
(8.23033e-13 1.51185e-13 -4.94564e-14)
(7.03764e-13 -1.96072e-13 -1.50215e-14)
(5.64782e-13 -6.64636e-13 -1.44647e-14)
(4.45807e-13 -6.09933e-13 -1.75146e-14)