/*--------------------------------*- C++ -*----------------------------------*\
| =========                 |                                                 |
| \\      /  F ield         | OpenFOAM: The Open Source CFD Toolbox           |
|  \\    /   O peration     | Version:  4.1                                   |
|   \\  /    A nd           | Web:      www.OpenFOAM.org                      |
|    \\/     M anipulation  |                                                 |
\*---------------------------------------------------------------------------*/
FoamFile
{
    version     2.0;
    format      ascii;
    class       volScalarField;
    location    "0.7";
    object      p;
}
// * * * * * * * * * * * * * * * * * * * * * * * * * * * * * * * * * * * * * //

dimensions      [1 -1 -2 0 0 0 0];

internalField   nonuniform List<scalar> 
52500
(
1
1
1.00002
1.00005
1.00015
1.00032
1.00091
1.00186
1.00537
1.01065
1.03297
1.05997
1.21608
1.41578
2.49597
4.87107
11.5853
11.6946
11.5544
11.5596
11.6616
11.7581
11.8915
12.0376
12.1324
1
1
1.00002
1.00005
1.00015
1.00031
1.0009
1.00184
1.00531
1.01054
1.03258
1.05941
1.21358
1.41013
2.48199
4.81699
11.5019
11.6838
11.5427
11.5476
11.6495
11.7489
11.882
12.0331
12.1299
1
1
1.00002
1.00005
1.00015
1.0003
1.00088
1.0018
1.00519
1.01032
1.03179
1.05819
1.20849
1.39812
2.45247
4.70223
11.3124
11.6554
11.5074
11.5055
11.6029
11.7046
11.8353
11.9936
12.0929
1
1
1.00002
1.00004
1.00014
1.00029
1.00085
1.00173
1.00501
1.01001
1.03057
1.05653
1.20045
1.38102
2.40452
4.53596
11.012
11.612
11.4516
11.4274
11.524
11.625
11.752
11.9192
12.0197
1
1
1.00002
1.00004
1.00013
1.00027
1.00079
1.00163
1.00473
1.00945
1.02895
1.05367
1.19048
1.35799
2.34003
4.32367
10.5973
11.555
11.3767
11.3232
11.4161
11.5167
11.6362
11.8133
11.9125
1
1
1.00002
1.00004
1.00012
1.00025
1.00073
1.0015
1.00437
1.00868
1.02701
1.04902
1.17983
1.32713
2.26114
4.08072
10.0513
11.4858
11.2832
11.1899
11.277
11.379
11.4854
11.6626
11.7614
1
1
1.00001
1.00003
1.00011
1.00023
1.00066
1.00136
1.00397
1.00786
1.02471
1.04451
1.1649
1.29657
2.15838
3.79913
9.35902
11.4178
11.1783
11.0273
11.1042
11.2026
11.2942
11.4478
11.5417
0.999999
1
1.00001
1.00003
1.00009
1.0002
1.00058
1.00119
1.00351
1.00688
1.02204
1.03902
1.14755
1.25964
2.04667
3.46955
8.51435
11.3624
11.0722
10.8388
10.8989
10.9834
11.0364
11.1419
11.2153
0.999998
1
1.00001
1.00002
1.00008
1.00017
1.0005
1.00103
1.00304
1.00595
1.01913
1.03372
1.12804
1.22322
1.90015
3.11128
7.50839
11.31
10.974
10.633
10.6647
10.7086
10.7012
10.7031
10.689
0.999997
0.999999
1.00001
1.00002
1.00007
1.00015
1.00043
1.00089
1.0026
1.00514
1.0162
1.02903
1.108
1.19
1.73928
2.73936
6.36187
11.1949
10.8668
10.4272
10.3982
10.3654
10.2647
10.0745
9.77171
1
1.00001
1.00003
1.00005
1.00016
1.00032
1.00092
1.00187
1.00538
1.01066
1.03298
1.05999
1.21612
1.41588
2.49612
4.87176
11.5861
11.6944
11.5543
11.5595
11.6616
11.7581
11.8916
12.0377
12.1326
1
1.00001
1.00002
1.00005
1.00015
1.00032
1.00091
1.00185
1.00532
1.01055
1.0326
1.05943
1.21362
1.41023
2.48213
4.81767
11.5026
11.6836
11.5426
11.5476
11.6495
11.7489
11.8821
12.0332
12.13
1
1.00001
1.00002
1.00005
1.00015
1.00031
1.00089
1.0018
1.0052
1.01033
1.03181
1.05822
1.20852
1.39822
2.45261
4.70287
11.3131
11.6553
11.5073
11.5055
11.6029
11.7047
11.8354
11.9937
12.093
1
1.00001
1.00002
1.00005
1.00015
1.0003
1.00085
1.00174
1.00502
1.01002
1.03059
1.05655
1.20049
1.38109
2.40471
4.53653
11.0128
11.6119
11.4515
11.4274
11.524
11.625
11.7521
11.9193
12.0199
1
1.00001
1.00002
1.00005
1.00014
1.00028
1.0008
1.00164
1.00474
1.00946
1.02896
1.05371
1.1905
1.35812
2.34009
4.32427
10.598
11.5548
11.3767
11.3232
11.4161
11.5167
11.6363
11.8134
11.9127
1
1.00001
1.00002
1.00004
1.00013
1.00026
1.00074
1.00151
1.00438
1.0087
1.02703
1.04905
1.17987
1.32722
2.26127
4.08116
10.0521
11.4857
11.2832
11.1899
11.2771
11.379
11.4855
11.6627
11.7615
1
1.00001
1.00002
1.00004
1.00011
1.00023
1.00067
1.00137
1.00398
1.00787
1.02473
1.04453
1.16494
1.29665
2.15852
3.79954
9.3598
11.4176
11.1782
11.0273
11.1042
11.2027
11.2943
11.4479
11.5418
1
1
1.00002
1.00003
1.0001
1.0002
1.00059
1.0012
1.00352
1.00689
1.02205
1.03904
1.14758
1.25971
2.04682
3.46998
8.51522
11.3622
11.0721
10.8388
10.8989
10.9834
11.0365
11.142
11.2154
1
1
1.00001
1.00003
1.00009
1.00018
1.00051
1.00104
1.00305
1.00596
1.01915
1.03375
1.12808
1.2233
1.90029
3.1117
7.50931
11.3098
10.9739
10.633
10.6647
10.7086
10.7012
10.7031
10.6891
1
1
1.00001
1.00003
1.00007
1.00015
1.00044
1.0009
1.00261
1.00516
1.01621
1.02906
1.10804
1.19007
1.73942
2.73973
6.36278
11.1947
10.8667
10.4272
10.3982
10.3654
10.2648
10.0745
9.77178
1
1.00001
1.00003
1.00005
1.00016
1.00032
1.00092
1.00187
1.00538
1.01066
1.03298
1.05999
1.21612
1.41588
2.49612
4.87177
11.5861
11.6944
11.5543
11.5595
11.6616
11.7581
11.8916
12.0377
12.1326
1
1.00001
1.00002
1.00005
1.00015
1.00032
1.00091
1.00185
1.00532
1.01055
1.0326
1.05943
1.21362
1.41023
2.48214
4.81767
11.5026
11.6836
11.5426
11.5476
11.6495
11.7489
11.8821
12.0332
12.1301
1
1.00001
1.00002
1.00005
1.00015
1.00031
1.00089
1.0018
1.0052
1.01033
1.03181
1.05822
1.20852
1.39822
2.45261
4.70288
11.3131
11.6553
11.5073
11.5055
11.6029
11.7047
11.8354
11.9937
12.0931
1
1.00001
1.00002
1.00005
1.00015
1.0003
1.00085
1.00174
1.00502
1.01002
1.03059
1.05655
1.20049
1.38109
2.40471
4.53654
11.0128
11.6119
11.4515
11.4274
11.524
11.625
11.7521
11.9194
12.0199
1
1.00001
1.00002
1.00005
1.00014
1.00028
1.0008
1.00164
1.00474
1.00946
1.02896
1.05371
1.1905
1.35812
2.34009
4.32428
10.598
11.5549
11.3767
11.3232
11.4161
11.5167
11.6363
11.8134
11.9127
1
1.00001
1.00002
1.00004
1.00013
1.00026
1.00074
1.00151
1.00438
1.0087
1.02703
1.04905
1.17987
1.32722
2.26127
4.08117
10.0521
11.4857
11.2832
11.1899
11.2771
11.379
11.4855
11.6627
11.7615
1
1.00001
1.00002
1.00004
1.00011
1.00023
1.00067
1.00137
1.00398
1.00787
1.02473
1.04453
1.16494
1.29665
2.15852
3.79955
9.35983
11.4176
11.1782
11.0273
11.1042
11.2027
11.2943
11.4479
11.5418
1
1
1.00002
1.00003
1.0001
1.0002
1.00059
1.0012
1.00352
1.00689
1.02205
1.03904
1.14759
1.25971
2.04682
3.46999
8.51525
11.3622
11.0722
10.8388
10.8989
10.9834
11.0365
11.142
11.2154
1
1
1.00001
1.00003
1.00009
1.00018
1.00051
1.00104
1.00305
1.00596
1.01915
1.03375
1.12808
1.2233
1.9003
3.11171
7.50935
11.3098
10.9739
10.633
10.6647
10.7086
10.7012
10.7031
10.6891
1
1
1.00001
1.00003
1.00007
1.00015
1.00044
1.0009
1.00261
1.00516
1.01621
1.02906
1.10804
1.19007
1.73942
2.73974
6.36282
11.1947
10.8668
10.4272
10.3982
10.3654
10.2648
10.0745
9.77176
1
1.00001
1.00003
1.00005
1.00016
1.00032
1.00092
1.00187
1.00538
1.01066
1.03298
1.05999
1.21612
1.41588
2.49612
4.87178
11.5861
11.6944
11.5543
11.5595
11.6616
11.7581
11.8916
12.0377
12.1326
1
1.00001
1.00002
1.00005
1.00015
1.00032
1.00091
1.00185
1.00532
1.01055
1.0326
1.05943
1.21362
1.41023
2.48214
4.81768
11.5026
11.6836
11.5426
11.5476
11.6495
11.7489
11.8821
12.0332
12.1301
1
1.00001
1.00002
1.00005
1.00015
1.00031
1.00089
1.0018
1.0052
1.01033
1.03181
1.05822
1.20852
1.39822
2.45261
4.70288
11.3131
11.6553
11.5073
11.5055
11.6029
11.7047
11.8354
11.9938
12.0931
1
1.00001
1.00002
1.00005
1.00015
1.0003
1.00085
1.00174
1.00502
1.01002
1.03059
1.05655
1.20049
1.38109
2.40471
4.53655
11.0128
11.6119
11.4515
11.4274
11.524
11.625
11.7521
11.9194
12.0199
1
1.00001
1.00002
1.00005
1.00014
1.00028
1.0008
1.00164
1.00474
1.00946
1.02896
1.05371
1.1905
1.35812
2.34009
4.32429
10.598
11.5548
11.3767
11.3232
11.4161
11.5167
11.6363
11.8134
11.9127
1
1.00001
1.00002
1.00004
1.00013
1.00026
1.00074
1.00151
1.00438
1.0087
1.02703
1.04905
1.17987
1.32722
2.26128
4.08118
10.0521
11.4857
11.2832
11.1899
11.277
11.379
11.4855
11.6627
11.7615
1
1.00001
1.00002
1.00004
1.00011
1.00023
1.00067
1.00137
1.00398
1.00787
1.02473
1.04453
1.16494
1.29665
2.15852
3.79956
9.35984
11.4176
11.1782
11.0273
11.1042
11.2027
11.2943
11.4479
11.5419
1
1
1.00002
1.00003
1.0001
1.0002
1.00059
1.0012
1.00352
1.00689
1.02205
1.03905
1.14759
1.25972
2.04683
3.47
8.51528
11.3622
11.0722
10.8388
10.8989
10.9834
11.0365
11.142
11.2154
1
1
1.00001
1.00003
1.00009
1.00018
1.00051
1.00104
1.00305
1.00596
1.01915
1.03375
1.12808
1.2233
1.9003
3.11173
7.50938
11.3098
10.9739
10.633
10.6647
10.7086
10.7012
10.7031
10.6891
1
1
1.00001
1.00003
1.00007
1.00015
1.00044
1.0009
1.00261
1.00516
1.01621
1.02906
1.10804
1.19007
1.73943
2.73976
6.36286
11.1947
10.8667
10.4272
10.3982
10.3654
10.2647
10.0745
9.77178
1
1.00001
1.00003
1.00005
1.00016
1.00032
1.00092
1.00187
1.00538
1.01066
1.03298
1.05999
1.21612
1.41588
2.49613
4.8718
11.5862
11.6945
11.5544
11.5596
11.6616
11.7582
11.8916
12.0377
12.1326
1
1.00001
1.00002
1.00005
1.00015
1.00032
1.00091
1.00185
1.00532
1.01055
1.0326
1.05943
1.21362
1.41024
2.48214
4.81771
11.5027
11.6837
11.5427
11.5476
11.6495
11.749
11.8821
12.0332
12.1301
1
1.00001
1.00002
1.00005
1.00015
1.00031
1.00089
1.0018
1.0052
1.01033
1.03181
1.05822
1.20852
1.39822
2.45261
4.70291
11.3132
11.6553
11.5073
11.5055
11.6029
11.7047
11.8354
11.9937
12.0931
1
1.00001
1.00002
1.00005
1.00015
1.0003
1.00085
1.00174
1.00502
1.01002
1.03059
1.05655
1.20049
1.38109
2.40472
4.53657
11.0129
11.6119
11.4515
11.4275
11.524
11.625
11.7521
11.9194
12.0199
1
1.00001
1.00002
1.00005
1.00014
1.00028
1.0008
1.00164
1.00474
1.00946
1.02896
1.05371
1.1905
1.35812
2.3401
4.32431
10.5981
11.5549
11.3767
11.3232
11.4161
11.5167
11.6363
11.8134
11.9127
1
1.00001
1.00002
1.00004
1.00013
1.00026
1.00074
1.00151
1.00438
1.0087
1.02703
1.04905
1.17987
1.32722
2.26128
4.0812
10.0521
11.4857
11.2832
11.1899
11.2771
11.379
11.4855
11.6627
11.7615
1
1.00001
1.00002
1.00004
1.00011
1.00023
1.00067
1.00137
1.00398
1.00787
1.02473
1.04453
1.16494
1.29665
2.15853
3.79958
9.3599
11.4176
11.1783
11.0273
11.1042
11.2027
11.2943
11.4479
11.5419
1
1
1.00002
1.00003
1.0001
1.0002
1.00059
1.0012
1.00352
1.00689
1.02205
1.03904
1.14759
1.25972
2.04683
3.47001
8.51533
11.3622
11.0722
10.8388
10.8989
10.9834
11.0365
11.142
11.2154
1
1
1.00001
1.00003
1.00009
1.00018
1.00051
1.00104
1.00305
1.00596
1.01915
1.03375
1.12808
1.2233
1.90031
3.11173
7.50942
11.3098
10.9739
10.633
10.6647
10.7086
10.7012
10.7031
10.6891
1
1
1.00001
1.00003
1.00007
1.00015
1.00044
1.0009
1.00261
1.00516
1.01621
1.02906
1.10804
1.19007
1.73943
2.73976
6.36289
11.1948
10.8668
10.4272
10.3982
10.3654
10.2648
10.0745
9.77177
1
1.00001
1.00003
1.00005
1.00016
1.00032
1.00092
1.00187
1.00538
1.01066
1.03298
1.05999
1.21612
1.41588
2.49612
4.87178
11.5861
11.6945
11.5543
11.5596
11.6616
11.7581
11.8916
12.0377
12.1326
1
1.00001
1.00002
1.00005
1.00015
1.00032
1.00091
1.00185
1.00532
1.01055
1.0326
1.05943
1.21362
1.41023
2.48214
4.81769
11.5027
11.6837
11.5427
11.5476
11.6495
11.749
11.8821
12.0332
12.1301
1
1.00001
1.00002
1.00005
1.00015
1.00031
1.00089
1.0018
1.0052
1.01033
1.03181
1.05822
1.20852
1.39822
2.45261
4.70289
11.3131
11.6553
11.5073
11.5055
11.6029
11.7047
11.8354
11.9937
12.0931
1
1.00001
1.00002
1.00005
1.00015
1.0003
1.00085
1.00174
1.00502
1.01002
1.03059
1.05655
1.20049
1.38109
2.40471
4.53655
11.0128
11.6119
11.4515
11.4274
11.524
11.625
11.7521
11.9194
12.0199
1
1.00001
1.00002
1.00005
1.00014
1.00028
1.0008
1.00164
1.00474
1.00946
1.02896
1.05371
1.1905
1.35812
2.34009
4.3243
10.598
11.5549
11.3767
11.3232
11.4161
11.5167
11.6363
11.8134
11.9127
1
1.00001
1.00002
1.00004
1.00013
1.00026
1.00074
1.00151
1.00438
1.0087
1.02703
1.04905
1.17987
1.32722
2.26128
4.08118
10.0521
11.4857
11.2832
11.1899
11.2771
11.379
11.4855
11.6627
11.7615
1
1.00001
1.00002
1.00004
1.00011
1.00023
1.00067
1.00137
1.00398
1.00787
1.02473
1.04453
1.16494
1.29665
2.15852
3.79956
9.35987
11.4176
11.1783
11.0273
11.1042
11.2027
11.2943
11.4479
11.5419
1
1
1.00002
1.00003
1.0001
1.0002
1.00059
1.0012
1.00352
1.00689
1.02205
1.03904
1.14759
1.25972
2.04682
3.47
8.51529
11.3622
11.0722
10.8388
10.8989
10.9834
11.0365
11.142
11.2154
1
1
1.00001
1.00003
1.00009
1.00018
1.00051
1.00104
1.00305
1.00596
1.01915
1.03375
1.12808
1.2233
1.9003
3.11172
7.50938
11.3098
10.9739
10.633
10.6647
10.7086
10.7012
10.7031
10.6891
1
1
1.00001
1.00003
1.00007
1.00015
1.00044
1.0009
1.00261
1.00516
1.01621
1.02906
1.10804
1.19007
1.73943
2.73975
6.36285
11.1948
10.8668
10.4272
10.3982
10.3654
10.2648
10.0745
9.77177
1
1.00001
1.00003
1.00005
1.00016
1.00032
1.00092
1.00187
1.00538
1.01066
1.03298
1.05999
1.21612
1.41588
2.49612
4.87177
11.5861
11.6944
11.5543
11.5595
11.6616
11.7581
11.8916
12.0377
12.1326
1
1.00001
1.00002
1.00005
1.00015
1.00032
1.00091
1.00185
1.00532
1.01055
1.0326
1.05943
1.21362
1.41023
2.48214
4.81768
11.5026
11.6836
11.5426
11.5476
11.6495
11.7489
11.8821
12.0332
12.1301
1
1.00001
1.00002
1.00005
1.00015
1.00031
1.00089
1.0018
1.0052
1.01033
1.03181
1.05822
1.20852
1.39822
2.45261
4.70288
11.3131
11.6553
11.5073
11.5055
11.6029
11.7047
11.8354
11.9938
12.0931
1
1.00001
1.00002
1.00005
1.00015
1.0003
1.00085
1.00174
1.00502
1.01002
1.03059
1.05655
1.20049
1.38109
2.40471
4.53655
11.0128
11.6119
11.4515
11.4274
11.524
11.625
11.7521
11.9194
12.0199
1
1.00001
1.00002
1.00005
1.00014
1.00028
1.0008
1.00164
1.00474
1.00946
1.02896
1.05371
1.1905
1.35812
2.34009
4.32429
10.598
11.5548
11.3767
11.3232
11.4161
11.5167
11.6363
11.8134
11.9127
1
1.00001
1.00002
1.00004
1.00013
1.00026
1.00074
1.00151
1.00438
1.0087
1.02703
1.04905
1.17987
1.32722
2.26128
4.08118
10.0521
11.4857
11.2832
11.1899
11.277
11.379
11.4855
11.6627
11.7615
1
1.00001
1.00002
1.00004
1.00011
1.00023
1.00067
1.00137
1.00398
1.00787
1.02473
1.04453
1.16494
1.29665
2.15852
3.79956
9.35984
11.4176
11.1782
11.0273
11.1042
11.2027
11.2943
11.4479
11.5419
1
1
1.00002
1.00003
1.0001
1.0002
1.00059
1.0012
1.00352
1.00689
1.02205
1.03905
1.14759
1.25972
2.04683
3.47
8.51527
11.3622
11.0722
10.8388
10.8989
10.9834
11.0365
11.142
11.2154
1
1
1.00001
1.00003
1.00009
1.00018
1.00051
1.00104
1.00305
1.00596
1.01915
1.03375
1.12808
1.2233
1.9003
3.11173
7.50938
11.3098
10.9739
10.633
10.6647
10.7086
10.7012
10.7031
10.6891
1
1
1.00001
1.00003
1.00007
1.00015
1.00044
1.0009
1.00261
1.00516
1.01621
1.02906
1.10804
1.19007
1.73943
2.73976
6.36285
11.1947
10.8667
10.4272
10.3982
10.3654
10.2647
10.0745
9.77178
1
1.00001
1.00003
1.00005
1.00016
1.00032
1.00092
1.00187
1.00538
1.01066
1.03298
1.05999
1.21612
1.41588
2.49612
4.87177
11.5861
11.6944
11.5543
11.5595
11.6616
11.7581
11.8916
12.0377
12.1326
1
1.00001
1.00002
1.00005
1.00015
1.00032
1.00091
1.00185
1.00532
1.01055
1.0326
1.05943
1.21362
1.41023
2.48214
4.81767
11.5026
11.6836
11.5426
11.5476
11.6495
11.7489
11.8821
12.0332
12.1301
1
1.00001
1.00002
1.00005
1.00015
1.00031
1.00089
1.0018
1.0052
1.01033
1.03181
1.05822
1.20852
1.39822
2.45261
4.70288
11.3131
11.6553
11.5073
11.5055
11.6029
11.7047
11.8354
11.9937
12.0931
1
1.00001
1.00002
1.00005
1.00015
1.0003
1.00085
1.00174
1.00502
1.01002
1.03059
1.05655
1.20049
1.38109
2.40471
4.53654
11.0128
11.6119
11.4515
11.4274
11.524
11.625
11.7521
11.9194
12.0199
1
1.00001
1.00002
1.00005
1.00014
1.00028
1.0008
1.00164
1.00474
1.00946
1.02896
1.05371
1.1905
1.35812
2.34009
4.32428
10.598
11.5549
11.3767
11.3232
11.4161
11.5167
11.6363
11.8134
11.9127
1
1.00001
1.00002
1.00004
1.00013
1.00026
1.00074
1.00151
1.00438
1.0087
1.02703
1.04905
1.17987
1.32722
2.26127
4.08117
10.0521
11.4857
11.2832
11.1899
11.2771
11.379
11.4855
11.6627
11.7615
1
1.00001
1.00002
1.00004
1.00011
1.00023
1.00067
1.00137
1.00398
1.00787
1.02473
1.04453
1.16494
1.29665
2.15852
3.79955
9.35983
11.4176
11.1782
11.0273
11.1042
11.2027
11.2943
11.4479
11.5418
1
1
1.00002
1.00003
1.0001
1.0002
1.00059
1.0012
1.00352
1.00689
1.02205
1.03904
1.14759
1.25971
2.04682
3.46999
8.51525
11.3622
11.0722
10.8388
10.8989
10.9834
11.0365
11.142
11.2154
1
1
1.00001
1.00003
1.00009
1.00018
1.00051
1.00104
1.00305
1.00596
1.01915
1.03375
1.12808
1.2233
1.9003
3.11171
7.50935
11.3098
10.9739
10.633
10.6647
10.7086
10.7012
10.7031
10.6891
1
1
1.00001
1.00003
1.00007
1.00015
1.00044
1.0009
1.00261
1.00516
1.01621
1.02906
1.10804
1.19007
1.73942
2.73974
6.36282
11.1947
10.8668
10.4272
10.3982
10.3654
10.2648
10.0745
9.77176
1
1.00001
1.00003
1.00005
1.00016
1.00032
1.00092
1.00187
1.00538
1.01066
1.03298
1.05999
1.21612
1.41588
2.49612
4.87176
11.5861
11.6944
11.5543
11.5595
11.6616
11.7581
11.8916
12.0377
12.1326
1
1.00001
1.00002
1.00005
1.00015
1.00032
1.00091
1.00185
1.00532
1.01055
1.0326
1.05943
1.21362
1.41023
2.48213
4.81767
11.5026
11.6836
11.5426
11.5476
11.6495
11.7489
11.8821
12.0332
12.13
1
1.00001
1.00002
1.00005
1.00015
1.00031
1.00089
1.0018
1.0052
1.01033
1.03181
1.05822
1.20852
1.39822
2.45261
4.70287
11.3131
11.6553
11.5073
11.5055
11.6029
11.7047
11.8354
11.9937
12.0931
1
1.00001
1.00002
1.00005
1.00015
1.0003
1.00085
1.00174
1.00502
1.01002
1.03059
1.05655
1.20049
1.38109
2.40471
4.53653
11.0128
11.6119
11.4515
11.4274
11.524
11.625
11.7521
11.9193
12.0199
1
1.00001
1.00002
1.00005
1.00014
1.00028
1.0008
1.00164
1.00474
1.00946
1.02896
1.05371
1.1905
1.35812
2.34009
4.32427
10.598
11.5548
11.3767
11.3232
11.4161
11.5167
11.6363
11.8134
11.9127
1
1.00001
1.00002
1.00004
1.00013
1.00026
1.00074
1.00151
1.00438
1.0087
1.02703
1.04905
1.17987
1.32722
2.26127
4.08116
10.0521
11.4857
11.2832
11.1899
11.2771
11.379
11.4855
11.6627
11.7615
1
1.00001
1.00002
1.00004
1.00011
1.00023
1.00067
1.00137
1.00398
1.00787
1.02473
1.04453
1.16494
1.29665
2.15852
3.79954
9.3598
11.4176
11.1782
11.0273
11.1042
11.2027
11.2943
11.4479
11.5418
1
1
1.00002
1.00003
1.0001
1.0002
1.00059
1.0012
1.00352
1.00689
1.02205
1.03904
1.14758
1.25971
2.04682
3.46998
8.51522
11.3622
11.0721
10.8388
10.8989
10.9834
11.0365
11.142
11.2154
1
1
1.00001
1.00003
1.00009
1.00018
1.00051
1.00104
1.00305
1.00596
1.01915
1.03375
1.12808
1.2233
1.90029
3.1117
7.50931
11.3098
10.9739
10.633
10.6647
10.7086
10.7012
10.7031
10.6891
1
1
1.00001
1.00003
1.00007
1.00015
1.00044
1.0009
1.00261
1.00516
1.01621
1.02906
1.10804
1.19007
1.73942
2.73973
6.36278
11.1947
10.8667
10.4272
10.3982
10.3654
10.2648
10.0745
9.77178
1
1
1.00002
1.00005
1.00015
1.00032
1.00091
1.00186
1.00537
1.01065
1.03297
1.05997
1.21608
1.41578
2.49597
4.87107
11.5853
11.6946
11.5544
11.5596
11.6616
11.7581
11.8915
12.0376
12.1325
1
1
1.00002
1.00005
1.00015
1.00031
1.0009
1.00184
1.00531
1.01054
1.03258
1.05941
1.21358
1.41013
2.48199
4.81698
11.5019
11.6838
11.5427
11.5476
11.6495
11.7489
11.882
12.0331
12.1299
1
1
1.00002
1.00005
1.00015
1.0003
1.00088
1.0018
1.00519
1.01032
1.03179
1.05819
1.20849
1.39812
2.45247
4.70222
11.3124
11.6554
11.5074
11.5055
11.6029
11.7046
11.8354
11.9936
12.0929
1
1
1.00002
1.00004
1.00014
1.00029
1.00085
1.00173
1.00501
1.01001
1.03057
1.05653
1.20045
1.38102
2.40452
4.53596
11.012
11.612
11.4516
11.4274
11.524
11.625
11.752
11.9192
12.0197
1
1
1.00002
1.00004
1.00013
1.00027
1.00079
1.00163
1.00473
1.00945
1.02895
1.05367
1.19048
1.35799
2.34003
4.32367
10.5973
11.555
11.3767
11.3232
11.4161
11.5167
11.6362
11.8133
11.9126
1
1
1.00002
1.00004
1.00012
1.00025
1.00073
1.0015
1.00437
1.00868
1.02701
1.04902
1.17983
1.32713
2.26114
4.08072
10.0513
11.4858
11.2832
11.1899
11.277
11.379
11.4854
11.6626
11.7614
1
1
1.00001
1.00003
1.00011
1.00023
1.00066
1.00136
1.00397
1.00786
1.02471
1.04451
1.1649
1.29657
2.15838
3.79913
9.35901
11.4177
11.1783
11.0272
11.1042
11.2026
11.2942
11.4478
11.5417
0.999999
1
1.00001
1.00003
1.00009
1.0002
1.00058
1.00119
1.00351
1.00688
1.02204
1.03902
1.14755
1.25964
2.04667
3.46956
8.51435
11.3624
11.0722
10.8388
10.8989
10.9834
11.0364
11.1419
11.2153
0.999998
1
1.00001
1.00002
1.00008
1.00017
1.0005
1.00103
1.00304
1.00595
1.01913
1.03372
1.12804
1.22322
1.90015
3.11128
7.50839
11.31
10.974
10.633
10.6647
10.7086
10.7012
10.7031
10.689
0.999997
0.999999
1.00001
1.00002
1.00007
1.00015
1.00043
1.00089
1.0026
1.00514
1.0162
1.02903
1.108
1.19
1.73929
2.73936
6.36187
11.1949
10.8668
10.4272
10.3982
10.3654
10.2647
10.0744
9.77172
0.999996
0.999998
1
1.00002
1.00005
1.00015
1.00031
1.0009
1.00184
1.00544
1.01068
1.0342
1.06118
1.22541
1.44878
2.53419
5.02341
10.8473
10.6635
10.2561
10.0981
9.96587
9.6922
9.08504
7.59167
0.999995
0.999997
1
1.00001
1.00004
1.00012
1.00026
1.00077
1.00158
1.0046
1.00925
1.02819
1.05305
1.18465
1.35559
2.29479
4.20873
9.89556
10.3143
10.0918
9.78466
9.54444
9.1112
8.26022
6.73471
0.999995
0.999996
0.999999
1.00001
1.00003
1.0001
1.00021
1.00062
1.00127
1.00372
1.00735
1.02311
1.04142
1.15363
1.27343
2.07467
3.54494
8.44345
10.0461
9.87779
9.50064
9.14588
8.61487
7.7282
6.47207
0.999994
0.999995
0.999997
1.00001
1.00002
1.00008
1.00017
1.00051
1.00105
1.00303
1.0061
1.01846
1.03414
1.12139
1.21593
1.83227
2.95291
6.85902
9.876
9.70594
9.28146
8.81159
8.24371
7.438
6.37059
0.999993
0.999994
0.999996
1
1.00001
1.00006
1.00013
1.0004
1.00082
1.00238
1.00483
1.01423
1.02823
1.08844
1.17533
1.58956
2.40775
5.16382
9.54779
9.47819
9.13193
8.56295
7.97714
7.24617
6.33453
0.999992
0.999993
0.999995
0.999998
1.00001
1.00003
1.00011
1.00024
1.00072
1.00146
1.00428
1.00842
1.02665
1.04765
1.17542
1.32353
2.20095
3.89215
8.69538
9.14737
8.91872
8.39919
7.78727
7.11543
6.32552
0.999992
0.999992
0.999994
0.999996
1.00001
1.00002
1.00009
1.00019
1.00055
1.00114
1.0033
1.00662
1.02008
1.03733
1.13136
1.23782
1.89676
3.09234
6.96557
8.80146
8.66495
8.27141
7.65004
7.00889
6.30595
0.999992
0.999992
0.999993
0.999995
1
1.00001
1.00006
1.00013
1.0004
1.00083
1.0024
1.00487
1.01443
1.02855
1.09053
1.17736
1.60581
2.42937
5.13747
8.44517
8.42892
8.17651
7.61068
6.94593
6.28789
0.999991
0.999991
0.999992
0.999994
0.999997
1.00001
1.00003
1.00011
1.00023
1.00067
1.00138
1.00403
1.00794
1.02504
1.045
1.16367
1.30276
2.09369
3.58338
7.61455
8.20251
8.02878
7.57929
6.91482
6.28597
0.999991
0.999991
0.999991
0.999993
0.999995
1
1.00002
1.00007
1.00016
1.00049
1.001
1.00292
1.00591
1.01762
1.03405
1.11235
1.21239
1.75268
2.74354
5.89256
7.88763
7.81446
7.5241
6.92247
6.2934
0.999991
0.999991
0.999991
0.999992
0.999994
0.999998
1.00001
1.00004
1.00012
1.00026
1.00077
1.00159
1.00464
1.00933
1.02833
1.05365
1.17941
1.36305
2.15267
3.74885
7.28297
7.59055
7.41686
6.96457
6.32176
0.999991
0.999991
0.999991
0.999991
0.999993
0.999995
1.00001
1.00002
1.00008
1.00017
1.00052
1.00107
1.00311
1.00631
1.01883
1.03576
1.12089
1.22221
1.79883
2.80419
5.89107
7.31811
7.24448
6.9641
6.3888
0.999991
0.999991
0.999991
0.999991
0.999992
0.999994
0.999998
1.00001
1.00004
1.00012
1.00027
1.00079
1.00162
1.00472
1.00955
1.02854
1.0556
1.17863
1.37777
2.13739
3.78635
6.74504
7.061
6.91691
6.53345
0.999991
0.99999
0.99999
0.999991
0.999991
0.999993
0.999995
1
1.00002
1.00007
1.00016
1.00049
1.00102
1.00296
1.00595
1.01806
1.03339
1.11726
1.20982
1.76566
2.69236
5.49954
6.79881
6.76963
6.55607
0.999991
0.99999
0.99999
0.99999
0.999991
0.999991
0.999994
0.999997
1.00001
1.00003
1.00011
1.00024
1.00071
1.00146
1.00429
1.0087
1.02605
1.05092
1.1629
1.33884
2.01806
3.39119
6.2071
6.60834
6.50689
0.999991
0.99999
0.99999
0.99999
0.999991
0.999991
0.999992
0.999994
1
1.00001
1.00006
1.00014
1.00042
1.00087
1.00254
1.00515
1.01554
1.02935
1.10037
1.1825
1.65201
2.44086
4.83988
6.26657
6.34396
0.999991
0.99999
0.99999
0.99999
0.99999
0.999991
0.999991
0.999993
0.999996
1.00001
1.00002
1.00009
1.00019
1.00056
1.00116
1.00345
1.00685
1.02154
1.03981
1.13879
1.26575
1.85946
2.92699
5.50369
6.15081
0.999991
0.99999
0.99999
0.99999
0.99999
0.99999
0.999991
0.999992
0.999993
0.999999
1.00001
1.00005
1.0001
1.00032
1.00067
1.00195
1.00397
1.0118
1.02334
1.0737
1.14469
1.46982
2.06002
3.78902
5.67491
0.999991
0.99999
0.99999
0.99999
0.99999
0.99999
0.999991
0.999991
0.999992
0.999994
1
1.00001
1.00006
1.00013
1.0004
1.00083
1.00246
1.00485
1.01552
1.02798
1.10162
1.18425
1.65703
2.42121
4.5894
0.999991
0.99999
0.99999
0.99999
0.99999
0.99999
0.99999
0.999991
0.999991
0.999993
0.999995
1
1.00002
1.00008
1.00017
1.00052
1.00106
1.00318
1.00633
1.02004
1.03712
1.12889
1.24887
1.77484
2.71094
0.999991
0.99999
0.99999
0.99999
0.99999
0.99999
0.99999
0.99999
0.999991
0.999991
0.999993
0.999998
1.00001
1.00004
1.00008
1.00027
1.00056
1.00165
1.00339
1.00997
1.02027
1.06072
1.1256
1.3759
1.85014
0.999991
0.99999
0.99999
0.99999
0.99999
0.99999
0.99999
0.99999
0.99999
0.999991
0.999992
0.999993
0.999999
1.00001
1.00004
1.0001
1.00031
1.00065
1.00192
1.00383
1.0119
1.02188
1.07657
1.13967
1.47984
0.999991
0.99999
0.99999
0.99999
0.99999
0.99999
0.99999
0.99999
0.99999
0.999991
0.999991
0.999992
0.999995
0.999999
1.00002
1.00004
1.00015
1.00031
1.00092
1.00189
1.0056
1.01144
1.03437
1.07227
1.21531
0.999991
0.99999
0.99999
0.99999
0.99999
0.99999
0.99999
0.99999
0.99999
0.99999
0.999991
0.999991
0.999992
0.999995
1
1.00002
1.00006
1.00014
1.00041
1.00085
1.0025
1.00502
1.01559
1.02928
1.10061
0.999991
0.99999
0.99999
0.99999
0.99999
0.99999
0.99999
0.99999
0.99999
0.99999
0.999991
0.999991
0.999991
0.999993
0.999996
1
1.00002
1.00006
1.00018
1.00038
1.00112
1.00231
1.00686
1.01416
1.04207
0.999991
0.99999
0.99999
0.99999
0.99999
0.99999
0.99999
0.99999
0.99999
0.99999
0.99999
0.999991
0.999991
0.999992
0.999993
0.999997
1
1.00003
1.00006
1.00019
1.0004
1.00117
1.00241
1.00717
1.01489
0.999991
0.99999
0.99999
0.99999
0.99999
0.99999
0.99999
0.99999
0.99999
0.99999
0.99999
0.999991
0.999991
0.999992
0.999993
0.999995
0.999999
1.00001
1.00003
1.00007
1.0002
1.00042
1.00122
1.00251
1.00736
0.999991
0.99999
0.99999
0.99999
0.99999
0.99999
0.99999
0.99999
0.99999
0.99999
0.99999
0.999991
0.999991
0.999992
0.999993
0.999994
0.999998
1
1.00001
1.00004
1.00008
1.00022
1.00044
1.00123
1.00253
0.999991
0.99999
0.99999
0.99999
0.99999
0.99999
0.99999
0.99999
0.99999
0.99999
0.99999
0.999991
0.999991
0.999992
0.999993
0.999995
0.999997
1
1.00001
1.00003
1.00005
1.00011
1.00021
1.00053
1.00106
0.999991
0.99999
0.99999
0.99999
0.99999
0.99999
0.99999
0.99999
0.99999
0.99999
0.99999
0.999991
0.999991
0.999992
0.999993
0.999995
0.999997
1
1.00001
1.00003
1.00004
1.00008
1.00015
1.00025
1.00057
0.999991
0.99999
0.99999
0.99999
0.99999
0.99999
0.99999
0.99999
0.99999
0.99999
0.99999
0.999991
0.999991
0.999992
0.999993
0.999994
0.999997
1
1.00001
1.00002
1.00005
1.00008
1.00014
1.00022
1.00035
0.999991
0.99999
0.99999
0.99999
0.99999
0.99999
0.99999
0.99999
0.99999
0.99999
0.99999
0.999991
0.999991
0.999992
0.999993
0.999994
0.999997
1
1.00001
1.00002
1.00004
1.00008
1.00013
1.00023
1.00034
0.999991
0.99999
0.99999
0.99999
0.99999
0.99999
0.99999
0.99999
0.99999
0.99999
0.99999
0.999991
0.999991
0.999992
0.999993
0.999994
0.999997
1
1.00001
1.00002
1.00004
1.00008
1.00013
1.00021
1.00034
0.999991
0.99999
0.99999
0.99999
0.99999
0.99999
0.99999
0.99999
0.99999
0.99999
0.99999
0.999991
0.999991
0.999992
0.999993
0.999994
0.999997
1
1.00001
1.00002
1.00004
1.00008
1.00013
1.00021
1.00034
0.999991
0.99999
0.99999
0.99999
0.99999
0.99999
0.99999
0.99999
0.99999
0.99999
0.99999
0.999991
0.999991
0.999992
0.999993
0.999994
0.999997
1
1.00001
1.00002
1.00004
1.00008
1.00013
1.00021
1.00034
0.999991
0.99999
0.99999
0.99999
0.99999
0.99999
0.99999
0.99999
0.99999
0.99999
0.99999
0.999991
0.999991
0.999992
0.999993
0.999994
0.999997
1
1.00001
1.00002
1.00004
1.00008
1.00013
1.00021
1.00034
0.999991
0.99999
0.99999
0.99999
0.99999
0.99999
0.99999
0.99999
0.99999
0.99999
0.99999
0.999991
0.999991
0.999992
0.999993
0.999994
0.999997
1
1.00001
1.00002
1.00004
1.00008
1.00013
1.00021
1.00033
0.999991
0.99999
0.99999
0.99999
0.99999
0.99999
0.99999
0.99999
0.99999
0.99999
0.99999
0.999991
0.999991
0.999992
0.999993
0.999994
0.999997
1
1.00001
1.00002
1.00004
1.00008
1.00013
1.00021
1.00033
0.999991
0.99999
0.99999
0.99999
0.99999
0.99999
0.99999
0.99999
0.99999
0.99999
0.99999
0.999991
0.999991
0.999992
0.999993
0.999994
0.999997
1
1.00001
1.00002
1.00004
1.00008
1.00013
1.00021
1.00033
0.999991
0.99999
0.99999
0.99999
0.99999
0.99999
0.99999
0.99999
0.99999
0.99999
0.99999
0.999991
0.999991
0.999992
0.999993
0.999994
0.999997
1
1.00001
1.00002
1.00004
1.00008
1.00013
1.00021
1.00033
1
1
1.00001
1.00003
1.00005
1.00015
1.00032
1.00091
1.00185
1.00545
1.01069
1.03422
1.06121
1.22545
1.44891
2.53434
5.02408
10.8475
10.6636
10.2561
10.098
9.96585
9.69221
9.08507
7.59173
1
1
1.00001
1.00002
1.00005
1.00013
1.00027
1.00078
1.00159
1.00461
1.00926
1.02821
1.05308
1.18468
1.35571
2.29489
4.20938
9.89629
10.3143
10.0917
9.78462
9.54446
9.11121
8.26023
6.73477
1
1
1.00001
1.00002
1.00004
1.00011
1.00022
1.00063
1.00128
1.00373
1.00737
1.02313
1.04144
1.15366
1.27351
2.07479
3.54538
8.44423
10.046
9.87769
9.5006
9.1459
8.61487
7.72822
6.4721
1
1
1
1.00001
1.00003
1.00009
1.00018
1.00052
1.00106
1.00304
1.00611
1.01847
1.03417
1.12141
1.216
1.83239
2.95328
6.85992
9.87586
9.70583
9.2814
8.81159
8.24372
7.43803
6.37062
1
1
1
1.00001
1.00002
1.00007
1.00014
1.00041
1.00083
1.00239
1.00484
1.01425
1.02824
1.08847
1.17538
1.58969
2.4081
5.16494
9.5478
9.47815
9.13185
8.56294
7.97715
7.24619
6.33455
1
1
1
1.00001
1.00002
1.00004
1.00012
1.00025
1.00073
1.00147
1.00429
1.00844
1.02666
1.04767
1.17545
1.32361
2.20113
3.89259
8.69588
9.14741
8.91872
8.39916
7.78728
7.11545
6.32554
1
1
1
1.00001
1.00002
1.00003
1.0001
1.0002
1.00056
1.00115
1.00331
1.00663
1.02009
1.03736
1.13138
1.23791
1.89686
3.09271
6.9663
8.80148
8.66495
8.27137
7.65005
7.00892
6.30597
1
1
1
1
1.00001
1.00002
1.00007
1.00014
1.00041
1.00084
1.00241
1.00488
1.01444
1.02857
1.09056
1.17742
1.60594
2.42971
5.13838
8.44527
8.42897
8.17653
7.61063
6.94594
6.28792
1
1
1
1
1.00001
1.00002
1.00004
1.00012
1.00024
1.00068
1.00139
1.00404
1.00795
1.02505
1.04502
1.16371
1.30284
2.09385
3.58376
7.61497
8.20257
8.02882
7.5793
6.91483
6.28599
1
1
1
1
1
1.00001
1.00003
1.00008
1.00017
1.0005
1.00101
1.00293
1.00592
1.01764
1.03407
1.11237
1.21246
1.75278
2.74385
5.89319
7.88776
7.81455
7.52415
6.92247
6.29342
1
1
1
1
1
1.00001
1.00002
1.00005
1.00013
1.00027
1.00078
1.0016
1.00465
1.00935
1.02834
1.05368
1.17944
1.36316
2.15278
3.74937
7.2832
7.59062
7.4169
6.96457
6.32176
1
1
1
1
1
1.00001
1.00001
1.00003
1.00009
1.00018
1.00053
1.00108
1.00312
1.00632
1.01884
1.03579
1.12091
1.22227
1.79893
2.8045
5.89163
7.31821
7.24454
6.96411
6.38878
1
1
1
1
1
1
1.00001