/*--------------------------------*- C++ -*----------------------------------*\
| =========                 |                                                 |
| \\      /  F ield         | OpenFOAM: The Open Source CFD Toolbox           |
|  \\    /   O peration     | Version:  4.1                                   |
|   \\  /    A nd           | Web:      www.OpenFOAM.org                      |
|    \\/     M anipulation  |                                                 |
\*---------------------------------------------------------------------------*/
FoamFile
{
    version     2.0;
    format      ascii;
    class       volScalarField;
    location    "1.28";
    object      T;
}
// * * * * * * * * * * * * * * * * * * * * * * * * * * * * * * * * * * * * * //

dimensions      [0 0 0 1 0 0 0];

internalField   nonuniform List<scalar> 
52500
(
0.999994
1.00001
1.00002
1.00008
1.00016
1.00053
1.00097
1.00311
1.00592
1.01726
1.03912
1.09773
1.27302
1.78041
2.49937
2.77404
2.77303
2.77476
2.79133
2.7969
2.80464
2.80592
2.79938
2.84287
2.8089
0.999994
1.00001
1.00002
1.00008
1.00016
1.00052
1.00095
1.00305
1.00583
1.01685
1.03877
1.0959
1.27099
1.76399
2.49474
2.77367
2.77137
2.77499
2.7905
2.79568
2.80329
2.80416
2.79739
2.84059
2.8044
0.999994
1.00001
1.00002
1.00008
1.00015
1.0005
1.00092
1.00292
1.00567
1.01594
1.03824
1.09197
1.2664
1.72851
2.48364
2.77052
2.76958
2.77337
2.78706
2.79335
2.80042
2.80141
2.79474
2.83754
2.8008
0.999994
1.00001
1.00002
1.00007
1.00014
1.00048
1.00087
1.00275
1.00541
1.01495
1.03695
1.08667
1.25775
1.67878
2.46521
2.76296
2.76659
2.77025
2.78046
2.7884
2.79513
2.7954
2.78837
2.83058
2.79679
0.999994
1
1.00001
1.00007
1.00013
1.00044
1.00081
1.00251
1.00509
1.01374
1.03507
1.08117
1.24592
1.62702
2.42601
2.75082
2.76335
2.76551
2.77104
2.78216
2.78693
2.78904
2.78238
2.82081
2.78984
0.999994
1
1.00001
1.00006
1.00012
1.00039
1.00074
1.00223
1.00469
1.01233
1.03269
1.0745
1.23165
1.56762
2.36536
2.73215
2.7587
2.75928
2.76145
2.77305
2.77415
2.77589
2.77087
2.81028
2.78242
0.999994
1
1.00001
1.00005
1.0001
1.00035
1.00067
1.00199
1.00426
1.01094
1.02969
1.06671
1.21212
1.49697
2.28197
2.70454
2.75309
2.75225
2.75147
2.76029
2.76197
2.76347
2.75606
2.78681
2.76548
0.999994
1
1.00001
1.00005
1.00009
1.00032
1.0006
1.00183
1.00377
1.00995
1.0259
1.05941
1.1851
1.43449
2.15915
2.66959
2.74846
2.74511
2.7354
2.74037
2.73916
2.74382
2.73657
2.76579
2.74377
0.999994
1
1.00001
1.00004
1.00008
1.00028
1.00052
1.00168
1.00324
1.00916
1.02157
1.0518
1.15407
1.36626
2.02184
2.60862
2.7294
2.72232
2.70479
2.71339
2.71541
2.72047
2.71351
2.723
2.69293
0.999994
0.999999
1
1.00003
1.00007
1.00024
1.00044
1.0014
1.00271
1.00774
1.01758
1.04347
1.12397
1.29685
1.78902
2.54058
2.71126
2.69979
2.67889
2.68896
2.69084
2.68954
2.67737
2.67614
2.61539
1
1.00001
1.00003
1.00009
1.00017
1.00054
1.00098
1.00312
1.00593
1.01728
1.03913
1.09778
1.27304
1.78067
2.49951
2.77405
2.77312
2.77475
2.79135
2.79698
2.80475
2.80602
2.79948
2.84297
2.809
1
1.00001
1.00003
1.00009
1.00016
1.00053
1.00096
1.00306
1.00584
1.01688
1.03878
1.09595
1.271
1.76425
2.49486
2.77371
2.77139
2.775
2.79055
2.79576
2.80339
2.80426
2.79748
2.84069
2.80449
1
1.00001
1.00003
1.00009
1.00016
1.00051
1.00093
1.00293
1.00568
1.01596
1.03825
1.09202
1.26642
1.72877
2.48376
2.77055
2.7696
2.7734
2.78712
2.79343
2.80053
2.8015
2.79483
2.83763
2.80088
1
1.00001
1.00002
1.00008
1.00015
1.00048
1.00088
1.00276
1.00542
1.01498
1.03696
1.08671
1.25778
1.67899
2.46536
2.76299
2.76661
2.77028
2.78054
2.78848
2.79523
2.79549
2.78846
2.83067
2.79687
1
1.00001
1.00002
1.00008
1.00014
1.00045
1.00082
1.00252
1.0051
1.01376
1.03509
1.08121
1.24595
1.62719
2.42623
2.75086
2.76337
2.76555
2.77111
2.78224
2.78703
2.78913
2.78247
2.82089
2.78991
1
1.00001
1.00002
1.00007
1.00013
1.0004
1.00075
1.00224
1.0047
1.01235
1.0327
1.07455
1.23168
1.56783
2.36564
2.7322
2.75873
2.75932
2.76151
2.77314
2.77425
2.77598
2.77095
2.81036
2.78248
1
1.00001
1.00002
1.00006
1.00011
1.00036
1.00068
1.002
1.00427
1.01096
1.02971
1.06674
1.2122
1.49716
2.28227
2.70462
2.75311
2.75228
2.75153
2.76039
2.76208
2.76355
2.75614
2.78688
2.76554
1
1.00001
1.00002
1.00006
1.0001
1.00033
1.00061
1.00184
1.00378
1.00997
1.02591
1.05945
1.18517
1.43467
2.15955
2.66963
2.74849
2.74515
2.73551
2.7405
2.73927
2.7439
2.73663
2.76586
2.74383
1
1.00001
1.00001
1.00005
1.00009
1.00029
1.00053
1.00169
1.00325
1.00917
1.02158
1.05184
1.15414
1.36645
2.02229
2.60881
2.72948
2.72241
2.70491
2.71349
2.71549
2.72053
2.71356
2.72305
2.69298
1
1.00001
1.00001
1.00004
1.00008
1.00024
1.00045
1.00141
1.00272
1.00776
1.0176
1.0435
1.12404
1.297
1.78967
2.54051
2.71127
2.69983
2.67893
2.68899
2.69087
2.68957
2.67742
2.67619
2.61542
1
1.00001
1.00003
1.00009
1.00017
1.00054
1.00098
1.00312
1.00594
1.01728
1.03913
1.09778
1.27304
1.78068
2.49951
2.77405
2.77312
2.77475
2.79135
2.79698
2.80475
2.80602
2.79948
2.84297
2.80901
1
1.00001
1.00003
1.00009
1.00016
1.00053
1.00096
1.00306
1.00584
1.01688
1.03878
1.09595
1.271
1.76426
2.49486
2.7737
2.77139
2.77499
2.79055
2.79576
2.80339
2.80426
2.79748
2.84069
2.80451
1
1.00001
1.00003
1.00009
1.00016
1.00051
1.00093
1.00293
1.00568
1.01596
1.03825
1.09202
1.26642
1.72877
2.48376
2.77055
2.76959
2.77339
2.78712
2.79343
2.80053
2.8015
2.79483
2.83763
2.8009
1
1.00001
1.00002
1.00008
1.00015
1.00048
1.00088
1.00276
1.00542
1.01498
1.03696
1.08671
1.25779
1.679
2.46536
2.76299
2.76661
2.77028
2.78053
2.78848
2.79523
2.79549
2.78846
2.83067
2.79689
1
1.00001
1.00002
1.00008
1.00014
1.00045
1.00082
1.00252
1.0051
1.01376
1.03509
1.08121
1.24595
1.6272
2.42624
2.75086
2.76337
2.76555
2.7711
2.78224
2.78703
2.78913
2.78247
2.82089
2.78992
1
1.00001
1.00002
1.00007
1.00013
1.0004
1.00075
1.00224
1.0047
1.01235
1.0327
1.07455
1.23168
1.56783
2.36565
2.73219
2.75873
2.75932
2.76151
2.77314
2.77425
2.77598
2.77095
2.81036
2.7825
1
1.00001
1.00002
1.00006
1.00011
1.00036
1.00068
1.002
1.00427
1.01096
1.02971
1.06675
1.2122
1.49716
2.28229
2.70462
2.75311
2.75228
2.75153
2.7604
2.76208
2.76355
2.75614
2.78688
2.76556
1
1.00001
1.00002
1.00006
1.0001
1.00033
1.00061
1.00184
1.00378
1.00997
1.02592
1.05945
1.18517
1.43468
2.15956
2.66963
2.74849
2.74515
2.73551
2.7405
2.73927
2.7439
2.73663
2.76586
2.74385
1
1.00001
1.00001
1.00005
1.00009
1.00029
1.00053
1.00169
1.00325
1.00917
1.02158
1.05184
1.15415
1.36646
2.0223
2.60882
2.72948
2.72241
2.70491
2.71349
2.71549
2.72053
2.71356
2.72305
2.69299
1
1.00001
1.00001
1.00004
1.00008
1.00024
1.00045
1.00141
1.00272
1.00776
1.0176
1.0435
1.12404
1.297
1.78969
2.54051
2.71127
2.69983
2.67893
2.68899
2.69087
2.68957
2.67742
2.67619
2.61544
1
1.00001
1.00003
1.00009
1.00017
1.00054
1.00098
1.00312
1.00594
1.01728
1.03913
1.09778
1.27304
1.78069
2.49951
2.77405
2.77312
2.77475
2.79135
2.79698
2.80475
2.80602
2.79948
2.84297
2.80902
1
1.00001
1.00003
1.00009
1.00016
1.00053
1.00096
1.00306
1.00584
1.01688
1.03878
1.09595
1.271
1.76426
2.49486
2.7737
2.77139
2.77499
2.79055
2.79576
2.80339
2.80426
2.79748
2.84069
2.80451
1
1.00001
1.00003
1.00009
1.00016
1.00051
1.00093
1.00293
1.00568
1.01596
1.03825
1.09202
1.26642
1.72878
2.48376
2.77055
2.76959
2.77339
2.78712
2.79343
2.80053
2.80151
2.79483
2.83763
2.8009
1
1.00001
1.00002
1.00008
1.00015
1.00048
1.00088
1.00276
1.00542
1.01498
1.03696
1.08671
1.25779
1.679
2.46536
2.76299
2.76661
2.77028
2.78053
2.78848
2.79523
2.79549
2.78846
2.83067
2.79689
1
1.00001
1.00002
1.00008
1.00014
1.00045
1.00082
1.00252
1.0051
1.01376
1.03509
1.08121
1.24595
1.6272
2.42624
2.75086
2.76337
2.76555
2.7711
2.78224
2.78703
2.78913
2.78247
2.82089
2.78993
1
1.00001
1.00002
1.00007
1.00013
1.0004
1.00075
1.00224
1.0047
1.01235
1.0327
1.07455
1.23169
1.56784
2.36565
2.73219
2.75873
2.75932
2.76151
2.77314
2.77425
2.77598
2.77095
2.81036
2.7825
1
1.00001
1.00002
1.00006
1.00011
1.00036
1.00068
1.002
1.00427
1.01096
1.02971
1.06675
1.2122
1.49716
2.28229
2.70462
2.75311
2.75228
2.75153
2.7604
2.76208
2.76355
2.75614
2.78688
2.76556
1
1.00001
1.00002
1.00006
1.0001
1.00033
1.00061
1.00184
1.00378
1.00997
1.02592
1.05945
1.18517
1.43468
2.15957
2.66963
2.74848
2.74515
2.73551
2.7405
2.73927
2.7439
2.73663
2.76586
2.74385
1
1.00001
1.00001
1.00005
1.00009
1.00029
1.00053
1.00169
1.00325
1.00917
1.02158
1.05184
1.15415
1.36646
2.02231
2.60882
2.72948
2.72241
2.70491
2.71349
2.71549
2.72053
2.71356
2.72305
2.69299
1
1.00001
1.00001
1.00004
1.00008
1.00024
1.00045
1.00141
1.00272
1.00776
1.0176
1.0435
1.12405
1.297
1.7897
2.54051
2.71127
2.69983
2.67893
2.68899
2.69087
2.68957
2.67742
2.67619
2.61544
1
1.00001
1.00003
1.00009
1.00017
1.00054
1.00098
1.00312
1.00594
1.01728
1.03913
1.09778
1.27304
1.78069
2.49951
2.77405
2.77311
2.77474
2.79134
2.79698
2.80475
2.80602
2.79948
2.84298
2.80901
1
1.00001
1.00003
1.00009
1.00016
1.00053
1.00096
1.00306
1.00584
1.01688
1.03878
1.09596
1.271
1.76427
2.49487
2.7737
2.77139
2.77499
2.79055
2.79576
2.80339
2.80426
2.79749
2.84069
2.8045
1
1.00001
1.00003
1.00009
1.00016
1.00051
1.00093
1.00293
1.00568
1.01596
1.03825
1.09202
1.26642
1.72879
2.48376
2.77055
2.76959
2.77339
2.78712
2.79343
2.80053
2.80151
2.79483
2.83763
2.80089
1
1.00001
1.00002
1.00008
1.00015
1.00048
1.00088
1.00276
1.00542
1.01498
1.03696
1.08671
1.25779
1.67901
2.46537
2.76299
2.76661
2.77028
2.78053
2.78848
2.79523
2.79549
2.78846
2.83067
2.79688
1
1.00001
1.00002
1.00008
1.00014
1.00045
1.00082
1.00252
1.0051
1.01376
1.03509
1.08121
1.24595
1.62721
2.42625
2.75086
2.76337
2.76555
2.7711
2.78224
2.78703
2.78913
2.78247
2.8209
2.78992
1
1.00001
1.00002
1.00007
1.00013
1.0004
1.00075
1.00224
1.0047
1.01235
1.0327
1.07455
1.23169
1.56784
2.36566
2.73219
2.75873
2.75932
2.7615
2.77314
2.77425
2.77598
2.77095
2.81036
2.7825
1
1.00001
1.00002
1.00006
1.00011
1.00036
1.00068
1.002
1.00427
1.01096
1.02971
1.06675
1.2122
1.49717
2.2823
2.70462
2.75311
2.75227
2.75153
2.7604
2.76208
2.76355
2.75614
2.78688
2.76556
1
1.00001
1.00002
1.00006
1.0001
1.00033
1.00061
1.00184
1.00378
1.00997
1.02592
1.05945
1.18518
1.43469
2.15958
2.66963
2.74848
2.74515
2.73551
2.7405
2.73927
2.7439
2.73663
2.76586
2.74384
1
1.00001
1.00001
1.00005
1.00009
1.00029
1.00053
1.00169
1.00325
1.00917
1.02158
1.05184
1.15415
1.36647
2.02232
2.60882
2.72948
2.72242
2.70491
2.71349
2.71549
2.72053
2.71356
2.72305
2.69299
1
1.00001
1.00001
1.00004
1.00008
1.00024
1.00045
1.00141
1.00272
1.00776
1.0176
1.0435
1.12405
1.29701
1.78971
2.54051
2.71127
2.69983
2.67893
2.68899
2.69087
2.68957
2.67742
2.67619
2.61544
1
1.00001
1.00003
1.00009
1.00017
1.00054
1.00098
1.00312
1.00594
1.01728
1.03913
1.09778
1.27304
1.78069
2.49951
2.77405
2.77311
2.77475
2.79135
2.79698
2.80475
2.80602
2.79948
2.84297
2.80901
1
1.00001
1.00003
1.00009
1.00016
1.00053
1.00096
1.00306
1.00584
1.01688
1.03878
1.09596
1.271
1.76426
2.49486
2.7737
2.77139
2.77499
2.79055
2.79576
2.80339
2.80426
2.79749
2.84069
2.80451
1
1.00001
1.00003
1.00009
1.00016
1.00051
1.00093
1.00293
1.00568
1.01596
1.03825
1.09202
1.26642
1.72878
2.48376
2.77055
2.76959
2.77339
2.78712
2.79343
2.80053
2.80151
2.79483
2.83763
2.8009
1
1.00001
1.00002
1.00008
1.00015
1.00048
1.00088
1.00276
1.00542
1.01498
1.03696
1.08671
1.25779
1.67901
2.46536
2.76299
2.76661
2.77028
2.78053
2.78848
2.79523
2.79549
2.78846
2.83067
2.79689
1
1.00001
1.00002
1.00008
1.00014
1.00045
1.00082
1.00252
1.0051
1.01376
1.03509
1.08121
1.24595
1.6272
2.42624
2.75086
2.76337
2.76555
2.7711
2.78224
2.78703
2.78913
2.78247
2.82089
2.78992
1
1.00001
1.00002
1.00007
1.00013
1.0004
1.00075
1.00224
1.0047
1.01235
1.0327
1.07455
1.23169
1.56784
2.36565
2.73219
2.75873
2.75932
2.76151
2.77314
2.77425
2.77598
2.77095
2.81036
2.7825
1
1.00001
1.00002
1.00006
1.00011
1.00036
1.00068
1.002
1.00427
1.01096
1.02971
1.06675
1.2122
1.49717
2.28229
2.70462
2.75311
2.75228
2.75153
2.7604
2.76208
2.76355
2.75614
2.78688
2.76556
1
1.00001
1.00002
1.00006
1.0001
1.00033
1.00061
1.00184
1.00378
1.00997
1.02592
1.05945
1.18518
1.43468
2.15957
2.66963
2.74848
2.74515
2.73551
2.7405
2.73927
2.7439
2.73663
2.76586
2.74385
1
1.00001
1.00001
1.00005
1.00009
1.00029
1.00053
1.00169
1.00325
1.00917
1.02158
1.05184
1.15415
1.36646
2.02231
2.60882
2.72948
2.72241
2.70491
2.71349
2.71549
2.72053
2.71356
2.72305
2.69299
1
1.00001
1.00001
1.00004
1.00008
1.00024
1.00045
1.00141
1.00272
1.00776
1.0176
1.0435
1.12405
1.29701
1.7897
2.54051
2.71127
2.69983
2.67893
2.68899
2.69087
2.68957
2.67742
2.67619
2.61544
1
1.00001
1.00003
1.00009
1.00017
1.00054
1.00098
1.00312
1.00594
1.01728
1.03913
1.09778
1.27304
1.78068
2.49951
2.77405
2.77312
2.77475
2.79135
2.79698
2.80475
2.80602
2.79948
2.84297
2.80902
1
1.00001
1.00003
1.00009
1.00016
1.00053
1.00096
1.00306
1.00584
1.01688
1.03878
1.09595
1.271
1.76426
2.49486
2.7737
2.77139
2.77499
2.79055
2.79576
2.80339
2.80426
2.79748
2.84069
2.80451
1
1.00001
1.00003
1.00009
1.00016
1.00051
1.00093
1.00293
1.00568
1.01596
1.03825
1.09202
1.26642
1.72878
2.48376
2.77055
2.76959
2.77339
2.78712
2.79343
2.80053
2.80151
2.79483
2.83763
2.8009
1
1.00001
1.00002
1.00008
1.00015
1.00048
1.00088
1.00276
1.00542
1.01498
1.03696
1.08671
1.25779
1.679
2.46536
2.76299
2.76661
2.77028
2.78053
2.78848
2.79523
2.79549
2.78846
2.83067
2.79689
1
1.00001
1.00002
1.00008
1.00014
1.00045
1.00082
1.00252
1.0051
1.01376
1.03509
1.08121
1.24595
1.6272
2.42624
2.75086
2.76337
2.76555
2.7711
2.78224
2.78703
2.78913
2.78247
2.82089
2.78993
1
1.00001
1.00002
1.00007
1.00013
1.0004
1.00075
1.00224
1.0047
1.01235
1.0327
1.07455
1.23169
1.56783
2.36565
2.73219
2.75873
2.75932
2.76151
2.77314
2.77425
2.77598
2.77095
2.81036
2.7825
1
1.00001
1.00002
1.00006
1.00011
1.00036
1.00068
1.002
1.00427
1.01096
1.02971
1.06675
1.2122
1.49716
2.28229
2.70462
2.75311
2.75228
2.75153
2.7604
2.76208
2.76355
2.75614
2.78688
2.76556
1
1.00001
1.00002
1.00006
1.0001
1.00033
1.00061
1.00184
1.00378
1.00997
1.02592
1.05945
1.18517
1.43468
2.15957
2.66963
2.74848
2.74515
2.73551
2.7405
2.73927
2.7439
2.73663
2.76586
2.74385
1
1.00001
1.00001
1.00005
1.00009
1.00029
1.00053
1.00169
1.00325
1.00917
1.02158
1.05184
1.15415
1.36646
2.02231
2.60882
2.72948
2.72241
2.70491
2.71349
2.71549
2.72053
2.71356
2.72305
2.69299
1
1.00001
1.00001
1.00004
1.00008
1.00024
1.00045
1.00141
1.00272
1.00776
1.0176
1.0435
1.12405
1.297
1.7897
2.54051
2.71127
2.69983
2.67893
2.68899
2.69087
2.68957
2.67742
2.67619
2.61544
1
1.00001
1.00003
1.00009
1.00017
1.00054
1.00098
1.00312
1.00594
1.01728
1.03913
1.09778
1.27304
1.78068
2.49951
2.77405
2.77312
2.77475
2.79135
2.79698
2.80475
2.80602
2.79948
2.84297
2.80901
1
1.00001
1.00003
1.00009
1.00016
1.00053
1.00096
1.00306
1.00584
1.01688
1.03878
1.09595
1.271
1.76426
2.49486
2.7737
2.77139
2.77499
2.79055
2.79576
2.80339
2.80426
2.79748
2.84069
2.80451
1
1.00001
1.00003
1.00009
1.00016
1.00051
1.00093
1.00293
1.00568
1.01596
1.03825
1.09202
1.26642
1.72877
2.48376
2.77055
2.76959
2.77339
2.78712
2.79343
2.80053
2.8015
2.79483
2.83763
2.8009
1
1.00001
1.00002
1.00008
1.00015
1.00048
1.00088
1.00276
1.00542
1.01498
1.03696
1.08671
1.25779
1.679
2.46536
2.76299
2.76661
2.77028
2.78053
2.78848
2.79523
2.79549
2.78846
2.83067
2.79689
1
1.00001
1.00002
1.00008
1.00014
1.00045
1.00082
1.00252
1.0051
1.01376
1.03509
1.08121
1.24595
1.6272
2.42624
2.75086
2.76337
2.76555
2.7711
2.78224
2.78703
2.78913
2.78247
2.82089
2.78992
1
1.00001
1.00002
1.00007
1.00013
1.0004
1.00075
1.00224
1.0047
1.01235
1.0327
1.07455
1.23168
1.56783
2.36565
2.73219
2.75873
2.75932
2.76151
2.77314
2.77425
2.77598
2.77095
2.81036
2.7825
1
1.00001
1.00002
1.00006
1.00011
1.00036
1.00068
1.002
1.00427
1.01096
1.02971
1.06675
1.2122
1.49716
2.28229
2.70462
2.75311
2.75228
2.75153
2.7604
2.76208
2.76355
2.75614
2.78688
2.76556
1
1.00001
1.00002
1.00006
1.0001
1.00033
1.00061
1.00184
1.00378
1.00997
1.02592
1.05945
1.18517
1.43468
2.15956
2.66963
2.74849
2.74515
2.73551
2.7405
2.73927
2.7439
2.73663
2.76586
2.74385
1
1.00001
1.00001
1.00005
1.00009
1.00029
1.00053
1.00169
1.00325
1.00917
1.02158
1.05184
1.15415
1.36646
2.0223
2.60882
2.72948
2.72241
2.70491
2.71349
2.71549
2.72053
2.71356
2.72305
2.69299
1
1.00001
1.00001
1.00004
1.00008
1.00024
1.00045
1.00141
1.00272
1.00776
1.0176
1.0435
1.12404
1.297
1.78969
2.54051
2.71127
2.69983
2.67893
2.68899
2.69087
2.68957
2.67742
2.67619
2.61544
1
1.00001
1.00003
1.00009
1.00017
1.00054
1.00098
1.00312
1.00593
1.01728
1.03913
1.09778
1.27304
1.78067
2.49951
2.77405
2.77312
2.77475
2.79135
2.79698
2.80475
2.80602
2.79948
2.84297
2.809
1
1.00001
1.00003
1.00009
1.00016
1.00053
1.00096
1.00306
1.00584
1.01688
1.03878
1.09595
1.271
1.76425
2.49486
2.77371
2.77139
2.775
2.79055
2.79576
2.80339
2.80426
2.79748
2.84069
2.80449
1
1.00001
1.00003
1.00009
1.00016
1.00051
1.00093
1.00293
1.00568
1.01596
1.03825
1.09202
1.26642
1.72877
2.48376
2.77055
2.7696
2.7734
2.78712
2.79343
2.80053
2.8015
2.79483
2.83763
2.80088
1
1.00001
1.00002
1.00008
1.00015
1.00048
1.00088
1.00276
1.00542
1.01498
1.03696
1.08671
1.25778
1.67899
2.46536
2.76299
2.76661
2.77028
2.78054
2.78848
2.79523
2.79549
2.78846
2.83067
2.79687
1
1.00001
1.00002
1.00008
1.00014
1.00045
1.00082
1.00252
1.0051
1.01376
1.03509
1.08121
1.24595
1.62719
2.42623
2.75086
2.76337
2.76555
2.77111
2.78224
2.78703
2.78913
2.78247
2.82089
2.78991
1
1.00001
1.00002
1.00007
1.00013
1.0004
1.00075
1.00224
1.0047
1.01235
1.0327
1.07455
1.23168
1.56783
2.36564
2.7322
2.75873
2.75932
2.76151
2.77314
2.77425
2.77598
2.77095
2.81036
2.78248
1
1.00001
1.00002
1.00006
1.00011
1.00036
1.00068
1.002
1.00427
1.01096
1.02971
1.06674
1.2122
1.49716
2.28227
2.70462
2.75311
2.75228
2.75153
2.76039
2.76208
2.76355
2.75614
2.78688
2.76554
1
1.00001
1.00002
1.00006
1.0001
1.00033
1.00061
1.00184
1.00378
1.00997
1.02591
1.05945
1.18517
1.43467
2.15955
2.66963
2.74849
2.74515
2.73551
2.7405
2.73927
2.7439
2.73663
2.76586
2.74383
1
1.00001
1.00001
1.00005
1.00009
1.00029
1.00053
1.00169
1.00325
1.00917
1.02158
1.05184
1.15414
1.36645
2.02229
2.60881
2.72948
2.72241
2.70491
2.71349
2.71549
2.72053
2.71356
2.72305
2.69298
1
1.00001
1.00001
1.00004
1.00008
1.00024
1.00045
1.00141
1.00272
1.00776
1.0176
1.0435
1.12404
1.297
1.78967
2.54051
2.71127
2.69983
2.67893
2.68899
2.69087
2.68957
2.67742
2.67619
2.61542
0.999994
1.00001
1.00002
1.00008
1.00016
1.00053
1.00097
1.00311
1.00592
1.01726
1.03912
1.09773
1.27302
1.78041
2.49937
2.77404
2.77303
2.77476
2.79133
2.7969
2.80464
2.80592
2.79938
2.84287
2.80892
0.999994
1.00001
1.00002
1.00008
1.00016
1.00052
1.00095
1.00305
1.00583
1.01685
1.03877
1.0959
1.27099
1.76398
2.49474
2.77367
2.77137
2.77499
2.7905
2.79568
2.80329
2.80416
2.79739
2.84059
2.80442
0.999994
1.00001
1.00002
1.00008
1.00015
1.0005
1.00092
1.00292
1.00567
1.01594
1.03824
1.09197
1.2664
1.72851
2.48364
2.77052
2.76958
2.77337
2.78706
2.79335
2.80042
2.80141
2.79474
2.83754
2.80081
0.999994
1.00001
1.00002
1.00007
1.00014
1.00048
1.00087
1.00275
1.00541
1.01495
1.03695
1.08667
1.25775
1.67878
2.46521
2.76296
2.76659
2.77025
2.78046
2.7884
2.79513
2.7954
2.78837
2.83058
2.79681
0.999994
1
1.00001
1.00007
1.00013
1.00044
1.00081
1.00251
1.00509
1.01374
1.03507
1.08117
1.24592
1.62701
2.42601
2.75082
2.76335
2.76551
2.77104
2.78216
2.78693
2.78904
2.78238
2.82081
2.78985
0.999994
1
1.00001
1.00006
1.00012
1.00039
1.00074
1.00223
1.00469
1.01233
1.03269
1.0745
1.23165
1.56762
2.36536
2.73215
2.7587
2.75928
2.76145
2.77305
2.77415
2.77589
2.77087
2.81028
2.78243
0.999994
1
1.00001
1.00005
1.0001
1.00035
1.00067
1.00199
1.00426
1.01094
1.02969
1.06671
1.21212
1.49697
2.28197
2.70454
2.75309
2.75225
2.75147
2.76029
2.76197
2.76347
2.75606
2.78681
2.76549
0.999994
1
1.00001
1.00005
1.00009
1.00032
1.0006
1.00183
1.00377
1.00995
1.0259
1.05941
1.1851
1.43449
2.15915
2.66959
2.74846
2.74511
2.7354
2.74037
2.73916
2.74382
2.73657
2.76579
2.74378
0.999994
1
1.00001
1.00004
1.00008
1.00028
1.00052
1.00168
1.00324
1.00916
1.02157
1.0518
1.15407
1.36626
2.02184
2.60861
2.7294
2.72232
2.70478
2.71339
2.71541
2.72047
2.71351
2.723
2.69294
0.999994
0.999999
1
1.00003
1.00007
1.00024
1.00044
1.0014
1.00271
1.00774
1.01758
1.04347
1.12397
1.29685
1.78901
2.54058
2.71126
2.69979
2.67889
2.68896
2.69084
2.68954
2.67737
2.67614
2.61539
0.999994
0.999996
1.00001
1.00002
1.00008
1.00015
1.00048
1.00094
1.00274
1.00592
1.01556
1.04064
1.09526
1.27529
1.76614
2.44731
2.69792
2.69059
2.67893
2.67389
2.67325
2.66549
2.62878
2.58221
2.39919
0.999994
0.999996
1
1.00001
1.00007
1.00013
1.00043
1.00079
1.00252
1.0049
1.01384
1.03325
1.07969
1.23333
1.60632
2.36009
2.66626
2.67555
2.67248
2.65955
2.65216
2.63817
2.59528
2.52331
2.32272
0.999994
0.999995
1
1.00001
1.00005
1.0001
1.00035
1.00066
1.00199
1.00417
1.01078
1.02865
1.06472
1.20219
1.47366
2.20799
2.59958
2.66239
2.65639
2.64177
2.6166
2.59175
2.54756
2.48367
2.32219
0.999994
0.999995
1
1.00001
1.00004
1.00009
1.00029
1.00054
1.0017
1.00338
1.00918
1.0227
1.05319
1.1612
1.37502
2.05577
2.51249
2.6322
2.62941
2.62271
2.5997
2.56885
2.50174
2.44624
2.32507
0.999993
0.999994
0.999999
1
1.00003
1.00007
1.00023
1.00043
1.00138
1.00263
1.00755
1.01709
1.04154
1.11897
1.27956
1.76406
2.40613
2.58965
2.58562
2.57897
2.56606
2.54367
2.4867
2.41916
2.32287
0.999993
0.999994
0.999996
1
1.00002
1.00007
1.00013
1.00043
1.00083
1.00248
1.00514
1.01376
1.0349
1.08197
1.23479
1.63432
2.28633
2.55687
2.55541
2.54556
2.52217
2.50256
2.46199
2.40693
2.32197
0.999992
0.999993
0.999995
1
1.00001
1.00005
1.0001
1.00035
1.00065
1.00207
1.00396
1.01121
1.02616
1.06278
1.18467
1.44633
2.10814
2.49361
2.53776
2.5219
2.49714
2.47055
2.42783
2.37918
2.31613
0.999992
0.999993
0.999994
0.999999
1.00001
1.00004
1.00008
1.00026
1.00049
1.00153
1.00298
1.00834
1.01944
1.04732
1.13735
1.32124
1.84763
2.36294
2.50973
2.50597
2.48483
2.44944
2.41384
2.36354
2.30395
0.999992
0.999992
0.999994
0.999996
1.00001
1.00002
1.00008
1.00015
1.00048
1.00091
1.0028
1.00553
1.01565
1.03486
1.09135
1.22633
1.69128
2.17833
2.44956
2.4714
2.46252
2.43636
2.39076
2.35187
2.29939
0.999991
0.999992
0.999993
0.999994
1
1.00001
1.00005
1.00011
1.00035
1.00066
1.00205
1.00395
1.01121
1.02548
1.06243
1.1735
1.44189
2.02605
2.36428
2.4273
2.42367
2.40999
2.3769
2.32996
2.28889
0.999991
0.999991
0.999992
0.999994
0.999997
1.00001
1.00003
1.0001
1.00019
1.00061
1.00115
1.0035
1.00705
1.01906
1.04671
1.11064
1.31026
1.83642
2.25279
2.3939
2.39422
2.38591
2.36624
2.32392
2.2781
0.999991
0.999991
0.999992
0.999993
0.999995
1
1.00002
1.00007
1.00013
1.00044
1.00081
1.00254
1.00484
1.01423
1.03002
1.08142
1.19388
1.60585
2.04148
2.31557
2.34771
2.34283
2.33202
2.30706
2.2643
0.999991
0.999991
0.999991
0.999992
0.999995
0.999998
1.00001
1.00003
1.00012
1.00022
1.0007
1.00134
1.00385
1.00829
1.02087
1.05611
1.12316
1.37264
1.90891
2.22558
2.32035
2.32166
2.30967
2.29196
2.256
0.999991
0.999991
0.999991
0.999992
0.999993
0.999996
1.00001
1.00002
1.00008
1.00015
1.00049
1.00091
1.00281
1.0054
1.01557
1.03291
1.08883
1.20818
1.64552
2.03746
2.25716
2.27875
2.27295
2.25886
2.23342
0.999991
0.999991
0.999991
0.999991
0.999992
0.999995
0.999998
1.00001
1.00003
1.00012
1.00024
1.00074
1.00143
1.00403
1.00881
1.0218
1.05936
1.12772
1.39501
1.92308
2.17817
2.24815
2.25121
2.23951
2.21924
0.999991
0.999991
0.999991
0.999991
0.999992
0.999994
0.999996
1.00001
1.00002
1.00008
1.00016
1.00051
1.00094
1.00288
1.00554
1.0158
1.03404
1.08913
1.21573
1.64291
2.02778
2.19733
2.21143
2.2063
2.19396
0.999991
0.999991
0.999991
0.999991
0.999991
0.999992
0.999995
0.999998
1.00001
1.00003
1.00012
1.00024
1.00074
1.00142
1.00401
1.00872
1.02158
1.05833
1.12542
1.38435
1.88874
2.12054
2.18378
2.18197
2.16868
0.999991
0.999991
0.999991
0.999991
0.999991
0.999992
0.999993
0.999996
1.00001
1.00002
1.00008
1.00015
1.00049
1.00091
1.00276
1.00531
1.0151
1.03219
1.08454
1.20088
1.59723
1.96097
2.1347
2.15868
2.15434
0.999991
0.999991
0.999991
0.999991
0.999991
0.999991
0.999992
0.999995
0.999998
1.00001
1.00003
1.00012
1.00022
1.00069
1.00133
1.00376
1.00808
1.02023
1.05361
1.11717
1.34673
1.82696
2.04963
2.11265
2.12276
0.999991
0.999991
0.999991
0.999991
0.999991
0.999991
0.999992
0.999993
0.999996
1
1.00002
1.00005
1.00017
1.00033
1.00102
1.00194
1.0056
1.01166
1.02993
1.0743
1.17717
1.44546
1.91706
2.07475
2.089
0.999991
0.999991
0.999991
0.999991
0.999991
0.999991
0.999991
0.999992
0.999994
0.999997
1.00001
1.00003
1.0001
1.0002
1.00063
1.00116
1.00353
1.00684
1.01881
1.04384
1.10204
1.28357
1.7095
1.98481
2.06797
0.999991
0.999991
0.999991
0.999991
0.999991
0.999991
0.999991
0.999992
0.999992
0.999996
1
1.00002
1.00004
1.00014
1.00028
1.00085
1.00161
1.00471
1.0096
1.02513
1.06196
1.14409
1.38152
1.82372
2.00852
0.999991
0.999991
0.999991
0.999991
0.999991
0.999991
0.999991
0.999991
0.999992
0.999994
0.999996
1.00001
1.00002
1.00008
1.00016
1.0005
1.00093
1.00283
1.00537
1.01509
1.03303
1.08053
1.20657
1.53593
1.8786
0.999991
0.999991
0.999991
0.999991
0.999991
0.999991
0.999991
0.999991
0.999991
0.999992
0.999994
1
1.00001
1.00004
1.00009
1.00029
1.00053
1.00162
1.00304
1.00883
1.01812
1.04757
1.11163
1.29633
1.64183
0.999991
0.999991
0.999991
0.999991
0.999991
0.999991
0.999991
0.999991
0.999991
0.999992
0.999992
0.999996
1
1.00002
1.00004
1.00015
1.00029
1.0009
1.00167
1.00498
1.00971
1.0264
1.05974
1.14756
1.36034
0.999991
0.999991
0.999991
0.999991
0.999991
0.999991
0.999991
0.999991
0.999991
0.999991
0.999992
0.999993
0.999997
1
1.00003
1.00006
1.00019
1.00038
1.00112
1.00216
1.00613
1.01268
1.03305
1.07711
1.1977
0.999991
0.999991
0.999991
0.999991
0.999991
0.999991
0.999991
0.999991
0.999991
0.999991
0.999991
0.999992
0.999994
0.999999
1.00001
1.00004
1.00008
1.00026
1.00049
1.00146
1.00285
1.00795
1.01667
1.04381
1.09866
0.999991
0.999991
0.999991
0.999991
0.999991
0.999991
0.999991
0.999991
0.999991
0.999991
0.999991
0.999991
0.999993
0.999994
1
1.00001
1.00005
1.00011
1.00033
1.00063
1.00185
1.00363
1.01003
1.02097
1.05535
0.999991
0.999991
0.999991
0.999991
0.999991
0.999991
0.999991
0.999991
0.999991
0.999991
0.999991
0.999991
0.999992
0.999993
0.999997
1
1.00002
1.00005
1.00017
1.00032
1.00098
1.00184
1.00526
1.01046
1.02795
0.999991
0.999991
0.999991
0.999991
0.999991
0.999991
0.999991
0.999991
0.999991
0.999991
0.999991
0.999991
0.999991
0.999992
0.999993
0.999998
1
1.00003
1.00006
1.0002
1.00039
1.00115
1.00223
1.00623
1.01283
0.999991
0.999991
0.999991
0.999991
0.999991
0.999991
0.999991
0.999991
0.999991
0.999991
0.999991
0.999991
0.999991
0.999991
0.999992
0.999994
0.999999
1.00001
1.00004
1.00008
1.00025
1.00048
1.00139
1.00274
1.00758
0.999991
0.999991
0.999991
0.999991
0.999991
0.999991
0.999991
0.999991
0.999991
0.999991
0.999991
0.999991
0.999991
0.999991
0.999991
0.999993
0.999994
1
1.00001
1.00005
1.0001
1.0003
1.00057
1.00167
1.00326
0.999991
0.999991
0.999991
0.999991
0.999991
0.999991
0.999991
0.999991
0.999991
0.999991
0.999991
0.999991
0.999991
0.999991
0.999991
0.999992
0.999992
0.999996
1
1.00002
1.00004
1.00015
1.00028
1.00084
1.00157
0.999991
0.999991
0.999991
0.999991
0.999991
0.999991
0.999991
0.999991
0.999991
0.999991
0.999991
0.999991
0.999991
0.999991
0.999991
0.999991
0.999992
0.999993
0.999996
1
1.00002
1.00005
1.00016
1.00031
1.00091
0.999991
0.999991
0.999991
0.999991
0.999991
0.999991
0.999991
0.999991
0.999991
0.999991
0.999991
0.999991
0.999991
0.999991
0.999991
0.999991
0.999991
0.999992
0.999993
0.999997
1
1.00003
1.00006
1.00018
1.00035
0.999991
0.999991
0.999991
0.999991
0.999991
0.999991
0.999991
0.999991
0.999991
0.999991
0.999991
0.999991
0.999991
0.999991
0.999991
0.999991
0.999991
0.999991
0.999992
0.999993
0.999998
1
1.00003
1.00006
1.0002
0.999991
0.999991
0.999991
0.999991
0.999991
0.999991
0.999991
0.999991
0.999991
0.999991
0.999991
0.999991
0.999991
0.999991
0.999991
0.999991
0.999991
0.999991
0.999991
0.999992
0.999993
0.999999
1.00001
1.00003
1.00007
0.999991
0.999991
0.999991
0.999991
0.999991
0.999991
0.999991
0.999991
0.999991
0.999991
0.999991
0.999991
0.999991
0.999991
0.999991
0.999991
0.999991
0.999991
0.999991
0.999991
0.999992
0.999995
0.999998
1.00001
1.00003
0.999991
0.999991
0.999991
0.999991
0.999991
0.999991
0.999991
0.999991
0.999991
0.999991
0.999991
0.999991
0.999991
0.999991
0.999991
0.999991
0.999991
0.999991
0.999991
0.999991
0.999991
0.999992
0.999995
0.999999
1.00001
0.999991
0.999991
0.999991
0.999991
0.999991
0.999991
0.999991
0.999991
0.999991
0.999991
0.999991
0.999991
0.999991
0.999991
0.999991
0.999991
0.999991
0.999991
0.999991
0.999991
0.999991
0.999992
0.999993
0.999996
1.00001
1
1
1.00001
1.00003
1.00009
1.00016
1.00049
1.00094
1.00276
1.00593
1.01559
1.04064
1.09533
1.27533
1.76653
2.44733
2.69789
2.69057
2.67892
2.6739
2.67326
2.66552
2.62883
2.58226
2.39921
1
1
1.00001
1.00002
1.00008
1.00014
1.00044
1.0008
1.00254
1.00491
1.01386
1.03326
1.07974
1.23336
1.60654
2.36034
2.66628
2.67554
2.67248
2.65959
2.65223
2.63823
2.59534
2.52336
2.32274
1
1
1.00001
1.00002
1.00006
1.00011
1.00036
1.00067
1.002
1.00418
1.0108
1.02867
1.06475
1.20224
1.47387
2.20823
2.59963
2.66239
2.65642
2.64183
2.61668
2.59183
2.54764
2.48373
2.32222
1
1
1.00001
1.00002
1.00005
1.00009
1.0003
1.00055
1.00171
1.00339
1.0092
1.02272
1.05322
1.16126
1.37518
2.05602
2.51269
2.63225
2.62943
2.62275
2.59976
2.56892
2.50181
2.44631
2.32512
1
1
1.00001
1.00001
1.00004
1.00008
1.00024
1.00044
1.00139
1.00264
1.00756
1.01711
1.04157
1.11904
1.27972
1.76461
2.40625
2.58969
2.5857
2.57902
2.56611
2.54373
2.48677
2.41923
2.32293
1
1
1
1.00001
1.00002
1.00008
1.00014
1.00044
1.00084
1.00249
1.00515
1.01378
1.03491
1.08203
1.23483
1.63479
2.28628
2.55686
2.55542
2.54561
2.52225
2.50263
2.46205
2.40699
2.32203
1
1
1
1.00001
1.00002
1.00006
1.00011
1.00036
1.00066
1.00208
1.00397
1.01122
1.02617
1.06281
1.18472
1.44648
2.10843
2.49365
2.53777
2.52194
2.49717
2.4706
2.42788
2.37922
2.31618
1
1
1
1.00001
1.00001
1.00005
1.00009
1.00027
1.0005
1.00154
1.00299
1.00835
1.01946
1.04735
1.1374
1.32134
1.84799
2.36306
2.50975
2.50601
2.48488
2.44944
2.41386
2.36357
2.30398
1
1
1
1
1.00001
1.00003
1.00009
1.00016
1.00049
1.00092
1.00281
1.00554
1.01567
1.03488
1.09139
1.22639
1.69153
2.17838
2.44958
2.47144
2.46258
2.43643
2.3908
2.35189
2.29942
1