/*--------------------------------*- C++ -*----------------------------------*\
| =========                 |                                                 |
| \\      /  F ield         | OpenFOAM: The Open Source CFD Toolbox           |
|  \\    /   O peration     | Version:  4.1                                   |
|   \\  /    A nd           | Web:      www.OpenFOAM.org                      |
|    \\/     M anipulation  |                                                 |
\*---------------------------------------------------------------------------*/
FoamFile
{
    version     2.0;
    format      ascii;
    class       surfaceScalarField;
    location    "0.46";
    object      phi;
}
// * * * * * * * * * * * * * * * * * * * * * * * * * * * * * * * * * * * * * //

dimensions      [1 0 -1 0 0 0 0];

internalField   nonuniform List<scalar> 
51500
(
3.6699e-13
1.31315e-14
1.48922e-11
-1.61061e-15
1.95226e-14
1.4722e-11
-2.49179e-15
1.84361e-14
1.45536e-11
-2.46393e-15
1.72413e-14
1.43874e-11
-2.39739e-15
1.59925e-14
1.42231e-11
-2.35767e-15
1.47045e-14
1.4061e-11
-2.40162e-15
1.34106e-14
1.39007e-11
-2.36445e-15
1.2123e-14
1.37433e-11
-2.35246e-15
1.08173e-14
1.35881e-11
9.5117e-15
1.3437e-11
-7.50268e-17
3.70797e-13
9.2426e-15
1.86867e-11
-1.02905e-14
9.56302e-15
1.80209e-11
-9.22382e-15
8.16469e-15
1.73799e-11
-9.0358e-15
6.89078e-15
1.67665e-11
-8.78075e-15
5.92183e-15
1.61793e-11
-8.49441e-15
5.12436e-15
1.56171e-11
-8.25581e-15
4.20379e-15
1.5078e-11
-8.04393e-15
2.98579e-15
1.45619e-11
-7.73149e-15
1.84309e-15
1.40664e-11
7.80267e-16
1.35986e-11
-7.88866e-16
3.71433e-13
9.65664e-15
2.37402e-11
-2.20628e-14
1.12394e-14
2.22775e-11
-1.81982e-14
9.29858e-15
2.09146e-11
-1.7321e-14
7.56611e-15
1.96512e-11
-1.64305e-14
6.01826e-15
1.84792e-11
-1.57141e-14
4.63168e-15
1.73914e-11
-1.4934e-14
3.40359e-15
1.6382e-11
-1.43011e-14
2.2999e-15
1.54427e-11
-1.34966e-14
1.32545e-15
1.45686e-11
4.92955e-16
1.37633e-11
-1.47343e-15
3.66921e-13
1.25442e-14
3.05698e-11
-3.83902e-14
1.37177e-14
2.78283e-11
-2.98777e-14
1.10547e-14
2.53714e-11
-2.77917e-14
8.74745e-15
2.31664e-11
-2.58333e-14
6.78744e-15
2.11926e-11
-2.40703e-14
5.10987e-15
1.94208e-11
-2.24634e-14
3.67521e-15
1.78266e-11
-2.10117e-14
2.43377e-15
1.63898e-11
-1.94185e-14
1.37033e-15
1.50924e-11
4.80659e-16
1.39307e-11
-2.24191e-15
3.5288e-13
1.66686e-14
3.99512e-11
-6.07561e-14
1.70188e-14
3.51613e-11
-4.54481e-14
1.32684e-14
3.10405e-11
-4.10685e-14
1.01968e-14
2.74815e-11
-3.72247e-14
7.69906e-15
2.44101e-11
-3.38454e-14
5.6579e-15
2.17474e-11
-3.09487e-14
3.96758e-15
1.94313e-11
-2.83408e-14
2.57587e-15
1.74104e-11
-2.56874e-14
1.42623e-15
1.56402e-11
5.03797e-16
1.41019e-11
-3.01191e-15
3.22381e-13
2.26892e-14
5.30684e-11
-1.11975e-13
2.15044e-14
4.49843e-11
-6.61973e-14
1.61513e-14
3.8331e-11
-5.80099e-14
1.19878e-14
3.28182e-11
-5.11135e-14
8.78266e-15
2.82444e-11
-4.53756e-14
6.27087e-15
2.44243e-11
-4.04825e-14
4.29633e-15
2.12171e-11
-3.62793e-14
2.72715e-15
1.85103e-11
-3.22324e-14
1.4813e-15
1.62129e-11
5.04036e-16
1.42753e-11
-3.86171e-15
2.60902e-13
3.90387e-14
7.1756e-11
-1.81469e-13
3.45989e-14
5.83502e-11
-9.43777e-14
2.49438e-14
4.78087e-11
-7.98014e-14
1.78882e-14
3.94728e-11
-6.8233e-14
1.27362e-14
3.28399e-11
-5.88776e-14
8.90086e-15
2.75152e-11
-5.12543e-14
6.00666e-15
2.32076e-11
-4.49095e-14
3.80819e-15
1.96963e-11
-3.91631e-14
2.11419e-15
1.68124e-11
8.00589e-16
1.4452e-11
-4.70696e-15
1.8064e-13
-1.64129e-13
9.8985e-11
-2.69207e-13
-1.8404e-13
7.68197e-11
-1.32568e-13
-1.9783e-13
6.02789e-11
-1.07753e-13
-2.06788e-13
4.78382e-11
-8.90421e-14
-2.12775e-13
3.83787e-11
-7.45667e-14
-2.16772e-13
3.10991e-11
-6.31615e-14
-2.19437e-13
2.54339e-11
-5.40576e-14
-2.21208e-13
2.09798e-11
-4.60754e-14
-2.22378e-13
1.74417e-11
-2.25599e-13
1.46352e-11
-5.62744e-15
2.42976e-12
-6.02615e-10
1.55427e-10
1.8749e-12
-6.36101e-10
1.16194e-10
1.69529e-12
-6.38788e-10
8.96011e-11
1.53645e-12
-6.40697e-10
7.06815e-11
1.39572e-12
-6.42156e-10
5.70502e-11
1.2715e-12
-6.43279e-10
4.70795e-11
1.16182e-12
-6.44147e-10
3.96935e-11
1.06488e-12
-6.4482e-10
3.41608e-11
9.69591e-13
-6.45366e-10
2.99724e-11
-6.54942e-10
2.69391e-11
-6.5759e-15
-1.66604e-10
1.08658e-07
-8.6797e-07
2.43488e-10
9.16516e-08
-9.37501e-07
2.47969e-10
7.98532e-08
-9.39341e-07
2.396e-10
7.01398e-08
-9.40786e-07
2.31054e-10
6.20528e-08
-9.42037e-07
2.22594e-10
5.52582e-08
-9.43134e-07
2.14372e-10
4.95006e-08
-9.44107e-07
2.05131e-10
4.45836e-08
-9.44978e-07
1.20627e-10
4.03566e-08
-9.45809e-07
3.7208e-08
-7.5957e-15
-9.73799e-07
3.42843e-13
9.11e-14
4.66432e-13
-1.93643e-14
8.58174e-14
4.58437e-13
-2.5688e-14
7.5593e-14
4.50797e-13
-2.49981e-14
6.57026e-14
4.41893e-13
-2.46323e-14
5.61443e-14
4.33932e-13
-2.44629e-14
4.68994e-14
4.26769e-13
-2.42743e-14
3.79665e-14
4.18644e-13
-2.40829e-14
2.93442e-14
4.11591e-13
-2.61396e-14
2.09704e-14
4.04477e-13
1.29953e-14
3.97083e-13
-1.59746e-15
2.84304e-13
8.59897e-14
6.49502e-13
-7.24603e-14
7.80928e-14
6.16101e-13
-8.67439e-14
6.61295e-14
5.85133e-13
-8.38262e-14
5.4699e-14
5.53898e-13
-8.143e-14
4.37258e-14
5.2537e-13
-7.92268e-14
3.23048e-14
4.97829e-13
-7.69092e-14
2.13926e-14
4.72784e-13
-7.5477e-14
1.39792e-14
4.4871e-13
-7.97901e-14
7.74678e-15
4.26985e-13
2.58035e-15
4.04936e-13
-4.32597e-15
1.96712e-13
1.08667e-13
9.19018e-13
-1.83274e-13
9.66415e-14
8.3728e-13
-1.65332e-13
8.07247e-14
7.67462e-13
-1.56842e-13
6.6146e-14
6.98924e-13
-1.49313e-13
5.29975e-14
6.38735e-13
-1.42335e-13
4.1114e-14
5.84499e-13
-1.35834e-13
3.03615e-14
5.35355e-13
-1.30253e-13
2.06819e-14
4.90987e-13
-1.36059e-13
1.19838e-14
4.50676e-13
4.2334e-15
4.14217e-13
-6.9699e-15
7.34018e-14
1.33708e-13
1.32625e-12
-3.1653e-13
1.15549e-13
1.159e-12
-2.66644e-13
9.42609e-14
1.01932e-12
-2.47156e-13
7.55045e-14
8.91891e-13
-2.30456e-13
5.91641e-14
7.83106e-13
-2.1534e-13
4.49056e-14
6.89465e-13
-2.01353e-13
3.25236e-14
6.09107e-13
-1.89192e-13
2.17414e-14
5.39884e-13
-1.94043e-13
1.2344e-14
4.77813e-13
4.26694e-15
4.23298e-13
-9.90093e-15
-5.32299e-14
1.66408e-13
1.95677e-12
-4.8605e-13
1.39474e-13
1.6341e-12
-3.96756e-13
1.10891e-13
1.37327e-12
-3.59073e-13
8.66301e-14
1.14965e-12
-3.27512e-13
6.627e-14
9.67942e-13
-2.9921e-13
4.91995e-14
8.1917e-13
-2.74093e-13
3.48495e-14
6.95924e-13
-2.52665e-13
2.28236e-14
5.93662e-13
-2.54214e-13
1.2709e-14
5.07792e-13
4.3164e-15
4.33931e-13
-1.30792e-14
-1.99767e-13
2.09389e-13
2.96092e-12
-7.08044e-13
1.70374e-13
2.34427e-12
-5.64278e-13
1.31503e-13
1.87568e-12
-4.97932e-13
1.00007e-13
1.49642e-12
-4.43189e-13
7.45659e-14
1.2053e-12
-3.95921e-13
5.39887e-14
9.77717e-13
-3.54823e-13
3.73921e-14
7.98792e-13
-3.20661e-13
2.39524e-14
6.56513e-13
-3.16689e-13
1.31148e-14
5.42319e-13
4.33882e-15
4.4627e-13
-1.60698e-14
-6.39141e-13
2.63966e-13
4.59853e-12
-1.00447e-12
2.1205e-13
3.43586e-12
-7.80059e-13
1.59012e-13
2.59926e-12
-6.7018e-13
1.17794e-13
1.96788e-12
-5.81533e-13
8.58739e-14
1.51158e-12
-5.06995e-13
6.112e-14
1.17329e-12
-4.44518e-13
4.18088e-14
9.19666e-13
-3.93074e-13
2.67218e-14
7.28099e-13
-3.81682e-13
1.47848e-14
5.78593e-13
5.21102e-15
4.60121e-13
-1.9126e-14
-1.16855e-12
3.21475e-13
7.35835e-12
-1.40334e-12
2.3164e-13
5.15061e-12
-1.05903e-12
1.64402e-13
3.66144e-12
-8.83736e-13
1.15549e-13
2.62173e-12
-7.46122e-13
7.97663e-14
1.91325e-12
-6.34792e-13
5.32211e-14
1.4164e-12
-5.4361e-13
3.33511e-14
1.06447e-12
-4.70855e-13
1.83452e-14
8.09026e-13
-4.48745e-13
6.93257e-15
6.20295e-13
-1.72986e-15
4.74636e-13
-2.23172e-14
-1.9967e-12
1.00045e-11
1.31726e-11
-1.80626e-12
-1.60847e-11
7.16542e-12
-1.09162e-12
-1.49816e-11
4.76965e-12
-9.17303e-13
-1.40953e-11
3.26646e-12
-8.39247e-13
-1.34866e-11
2.32682e-12
-7.38257e-13
-1.30815e-11
1.72075e-12
-6.4174e-13
-1.28281e-11
1.32035e-12
-5.62472e-13
-1.26884e-11
1.04995e-12
-5.52816e-13
-1.26353e-11
8.60523e-13
-1.26903e-11
7.18944e-13
-2.55379e-14
-6.32398e-10
8.04951e-09
6.41696e-08
-2.47963e-10
3.75217e-09
-1.35795e-09
-2.51589e-10
2.80045e-09
-1.46602e-09
-2.41755e-10
2.14023e-09
-1.4387e-09
-2.32168e-10
1.66326e-09
-1.40733e-09
-2.2296e-10
1.31209e-09
-1.3752e-09
-2.14192e-10
1.04924e-09
-1.34387e-09
-2.05904e-10
8.49544e-10
-1.31426e-09
-1.99656e-10
6.95812e-10
-1.28974e-09
5.78203e-10
-2.89512e-14
-1.41346e-09
3.45813e-13
8.19471e-14
1.67318e-14
-1.72409e-14
7.77963e-14
1.50346e-14
-2.19232e-14
6.86333e-14
1.37086e-14
-2.01496e-14
5.97894e-14
1.22476e-14
-1.86277e-14
5.12408e-14
1.07015e-14
-2.00414e-14
4.29275e-14
8.64605e-15
-1.89111e-14
3.49567e-14
7.88472e-15
-1.928e-14
2.72213e-14
7.0203e-15
-2.34462e-14
1.97424e-14
6.19808e-15
1.26085e-14
6.14316e-15
-1.35981e-15
2.94516e-13
5.90791e-14
2.69225e-14
-6.53176e-14
5.42537e-14
2.40104e-14
-7.13143e-14
4.59845e-14
2.34963e-14
-6.65373e-14
3.81062e-14
1.94578e-14
-6.52568e-14
3.07709e-14
1.65559e-14
-6.24037e-14
2.40012e-14
1.46965e-14
-6.09271e-14
1.77253e-14
1.17075e-14
-6.03542e-14
1.20012e-14
9.93273e-15
-7.13213e-14
6.83943e-15
9.26009e-15
2.39884e-15
7.8495e-15
-4.41422e-15
2.16162e-13
7.55089e-14
4.04046e-14
-1.65603e-13
6.8194e-14
3.67825e-14
-1.35275e-13
5.73561e-14
3.60913e-14
-1.24216e-13
4.7426e-14
3.09592e-14
-1.17901e-13
3.83948e-14
2.5836e-14
-1.12086e-13
3.01377e-14
2.10472e-14
-1.06369e-13
2.27946e-14
1.81306e-14
-1.04393e-13
1.63202e-14
1.57057e-14
-1.21253e-13
9.49552e-15
1.33524e-14
3.33999e-15
1.09509e-14
-7.23531e-15
9.47465e-14
9.38453e-14
6.50732e-14
-2.89255e-13
8.21525e-14
6.1151e-14
-2.1686e-13
6.74115e-14
5.85666e-14
-1.92395e-13
5.44252e-14
4.81213e-14
-1.79045e-13
4.31233e-14
4.01145e-14
-1.66687e-13
3.3295e-14
3.35772e-14
-1.50513e-13
2.49931e-14
2.82558e-14
-1.51336e-13
1.69751e-14
2.38482e-14
-1.73127e-13
9.74734e-15
2.1386e-14
3.45761e-15
1.56534e-14
-1.03613e-14
-2.29014e-14
1.18324e-13
1.11628e-13
-4.46198e-13
9.98438e-14
1.02949e-13
-3.19645e-13
7.98224e-14
9.4961e-14
-2.67036e-13
6.27633e-14
7.74792e-14
-2.43229e-13
4.85136e-14
6.27465e-14
-2.21463e-13
3.65971e-14
5.13152e-14
-2.01547e-13
2.72716e-14
4.31015e-14
-1.99496e-13
1.8235e-14
3.70944e-14
-2.26898e-13
1.03173e-14
3.18128e-14
3.56039e-15
2.24704e-14
-1.32199e-14
-1.5909e-13
1.51092e-13
1.94861e-13
-6.51639e-13
1.23368e-13
1.7857e-13
-4.28575e-13
9.53785e-14
1.54802e-13
-3.6494e-13
7.28613e-14
1.22279e-13
-3.24336e-13
5.48388e-14
9.73133e-14
-2.88324e-13
4.02778e-14
7.83395e-14
-2.57193e-13
2.88044e-14
6.44212e-14
-2.40517e-13
1.91336e-14
5.39709e-14
-2.82884e-13
1.04236e-14
4.37897e-14
3.58275e-15
3.07448e-14
-1.64864e-14
-5.72808e-13
1.93924e-13
3.44562e-13
-9.27471e-13
1.53726e-13
3.06535e-13
-5.79079e-13
1.14886e-13
2.50313e-13
-4.87017e-13
8.51456e-14
1.9152e-13
-4.21473e-13
6.22945e-14
1.47912e-13
-3.65541e-13
4.46677e-14
1.16174e-13
-3.18381e-13
3.20017e-14
9.34102e-14
-2.87589e-13
2.02266e-14
7.5628e-14
-3.40712e-13
1.10047e-14
6.20416e-14
3.77409e-15
4.09115e-14
-1.96895e-14
-1.10047e-12
3.11802e-13
6.23304e-13
-1.29983e-12
2.44704e-13
5.247e-13
-7.79281e-13
1.56034e-13
4.03659e-13
-6.39719e-13
1.09224e-13
2.94322e-13
-5.37494e-13
7.57e-14
2.19974e-13
-4.5392e-13
5.13836e-14
1.68394e-13
-3.87005e-13
3.35507e-14
1.30268e-13
-3.3835e-13
2.04108e-14
1.03112e-13
-4.0085e-13
1.06409e-14
8.34256e-14
3.44322e-15
5.26165e-14
-2.30076e-14
-2.03228e-12
2.72874e-11
3.32086e-12
-1.78596e-12
1.04039e-12
8.49068e-13
-1.04206e-12
5.95149e-13
6.02138e-13
-8.303e-13
3.78518e-13
4.24928e-13
-6.76541e-13
2.2223e-13
3.08817e-13
-5.57297e-13
1.08954e-13
2.30066e-13
-4.63623e-13
2.66358e-14
1.75709e-13
-3.95645e-13
-3.32804e-14
1.36887e-13
-4.65754e-13
-7.68782e-14
1.08812e-13
-1.06558e-13
7.03705e-14
-2.6368e-14
-3.52204e-10
3.8024e-09
5.82887e-08
-2.11192e-11
1.30273e-10
8.40356e-11
-2.12288e-11
6.39766e-11
-2.13302e-11
-1.76486e-11
4.20874e-11
-1.56021e-11
-1.47518e-11
2.85787e-11
-9.87861e-12
-1.2448e-11
1.99015e-11
-6.89571e-12
-1.05965e-11
1.41727e-11
-5.03187e-12
-9.0961e-12
1.02978e-11
-3.565e-12
-7.86109e-12
7.62129e-12
-2.42763e-12
5.63971e-12
-2.99064e-14
-1.98788e-13
3.45889e-13
8.11663e-14
1.05215e-14
-1.72617e-14
7.712e-14
9.53485e-15
-2.16189e-14
6.80661e-14
7.86314e-15
-1.97039e-14
5.92888e-14
6.17666e-15
-1.91681e-14
5.08314e-14
4.21539e-15
-1.93075e-14
4.26478e-14
3.40248e-15
-1.82365e-14
3.47194e-14
2.09246e-15
-1.91266e-14
2.7058e-14
1.15621e-15
-2.3142e-14
1.96783e-14
4.81594e-16
1.26047e-14
3.3597e-16
-1.49555e-15
2.95354e-13
5.81546e-14
1.79081e-14
-6.47787e-14
5.34684e-14
1.56933e-14
-7.03322e-14
4.53238e-14
1.61356e-14
-6.44282e-14
3.76284e-14
1.26761e-14
-6.2582e-14
3.03994e-14
9.12239e-15
-6.15241e-14
2.36848e-14
6.65731e-15
-5.89862e-14
1.75475e-14
5.44926e-15
-5.84928e-14
1.19109e-14
4.17302e-15
-7.06418e-14
6.79158e-15
2.87887e-15
2.41167e-15
1.69604e-15
-4.3431e-15
2.18261e-13
7.39757e-14
2.58276e-14
-1.6389e-13
6.68754e-14
2.4336e-14
-1.31637e-13
5.61769e-14
2.60357e-14
-1.16463e-13
4.62738e-14
1.97434e-14
-1.13375e-13
3.73826e-14
1.64215e-14
-1.0358e-13
2.93334e-14
1.37859e-14
-9.87671e-14
2.18236e-14
1.06036e-14
-1.0234e-13
1.50419e-14
8.82483e-15
-1.19953e-13
9.39392e-15
7.50973e-15
3.11862e-15
5.41833e-15
-7.172e-15
9.75266e-14
9.19347e-14
4.26654e-14
-2.86271e-13
8.04492e-14
4.27715e-14
-2.10333e-13
6.59593e-14
4.52209e-14
-1.79135e-13
5.32268e-14
3.68517e-14
-1.67026e-13
4.20028e-14
3.02065e-14
-1.55543e-13
3.21525e-14
2.54281e-14
-1.44501e-13
2.35649e-14
2.09861e-14
-1.46004e-13
1.60209e-14
1.80269e-14
-1.71535e-13
9.52256e-15
1.5014e-14
3.51058e-15
1.01824e-14
-1.04517e-14
-1.84042e-14
1.15808e-13
7.50702e-14
-4.41192e-13
9.78478e-14
7.87818e-14
-2.94173e-13
7.81251e-14
7.74429e-14
-2.58156e-13
6.13111e-14
6.23497e-14
-2.34874e-13
4.7298e-14
5.23152e-14
-2.13746e-13
3.54871e-14
4.31353e-14
-1.94801e-13
2.55171e-14
3.60038e-14
-1.86834e-13
1.72588e-14
3.11918e-14
-2.24849e-13
9.80879e-15
2.78407e-14
3.57383e-15
1.82684e-14
-1.33235e-14
-1.52556e-13
1.47761e-13
1.33367e-13
-6.43873e-13
1.20763e-13
1.38988e-13
-4.11005e-13
9.32932e-14
1.31575e-13
-3.54845e-13
7.12399e-14
1.05728e-13
-3.15428e-13
5.34828e-14
8.60706e-14
-2.80455e-13
3.90642e-14
7.12884e-14
-2.5012e-13
2.74167e-14
5.95129e-14
-2.32287e-13
1.79888e-14
4.95716e-14
-2.80138e-13
1.04708e-14
4.3602e-14
3.65979e-15
2.82251e-14
-1.66572e-14
-5.5741e-13
1.89903e-13
2.38063e-13
-9.15282e-13
1.5052e-13
2.48306e-13
-5.61961e-13
1.12518e-13
2.18008e-13
-4.75249e-13
8.32471e-14
1.71766e-13
-4.1139e-13
6.0771e-14
1.36669e-13
-3.56825e-13
4.33737e-14
1.11135e-13
-3.11581e-13
2.96867e-14
8.98682e-14
-2.79608e-13
1.89634e-14
7.53247e-14
-3.37979e-13
1.08689e-14
6.37003e-14
3.52128e-15
4.11002e-14
-1.98494e-14
-1.07696e-12
3.07224e-13
4.27914e-13
-1.28003e-12
1.75321e-13
4.33373e-13
-7.60061e-13
1.50153e-13
3.57255e-13
-6.25278e-13
1.1512e-13
2.73412e-13
-5.25627e-13
8.26496e-14
2.11311e-13
-4.44899e-13
5.71993e-14
1.65883e-13
-3.79464e-13
3.80973e-14
1.32867e-13
-3.3059e-13
2.37756e-14
1.08086e-13
-3.98166e-13
1.29257e-14
8.83278e-14
4.83885e-15
5.7954e-14
-2.29784e-14
-2.00089e-12
2.74345e-11
4.72135e-12
-1.75452e-12
4.59638e-13
7.77989e-13
-1.02002e-12
2.13442e-13
5.8398e-13
-8.13434e-13
1.41475e-13
4.29148e-13
-6.62948e-13
9.33388e-14
3.192e-13
-5.45937e-13
6.03759e-14
2.43923e-13
-4.54173e-13
3.75466e-14
1.88421e-13
-3.86472e-13
2.15622e-14
1.49151e-13
-4.6014e-13
1.02784e-14
1.17994e-13
2.37021e-15
7.2473e-14
-2.65009e-14
-3.29231e-10
5.54986e-09
5.80143e-08
-3.79551e-12
3.99752e-11
1.16752e-10
-1.65749e-12
2.22295e-12
7.15936e-13
-1.59957e-12
1.31181e-12
4.8125e-13
-1.26899e-12
8.67472e-13
2.65854e-13
-1.00478e-12
5.96945e-13
2.38314e-13
-8.05433e-13
4.23402e-13
2.24631e-13
-6.63194e-13
3.08714e-13
2.24019e-13
-6.30847e-13
2.29399e-13
1.97293e-13
1.43064e-13
-3.00886e-14
2.13297e-13
3.45775e-13
8.12748e-14
1.81939e-14
-1.76058e-14
7.72008e-14
1.57552e-14
-2.16309e-14
6.8162e-14
1.2982e-14
-2.04103e-14
5.93665e-14
7.89044e-15
-1.74915e-14
5.08885e-14
8.25309e-15
-1.97652e-14
4.26695e-14
3.70701e-15
-1.90459e-14
3.4772e-14
4.77269e-15
-1.8821e-14
2.71279e-14
3.74879e-15
-2.31646e-14
1.97185e-14
8.85493e-16
1.26399e-14
3.53596e-16
-1.71412e-15
2.95068e-13
5.82753e-14
2.89009e-14
-6.50236e-14
5.35864e-14
2.62149e-14
-7.05067e-14
4.54101e-14
2.05754e-14
-6.53808e-14
3.76588e-14
1.72245e-14
-6.28889e-14
3.04725e-14
1.16513e-14
-6.08731e-14
2.37757e-14
9.38181e-15
-5.89675e-14
1.75904e-14
6.46135e-15
-5.90093e-14
1.19504e-14
7.2691e-15
-7.07087e-14
6.84373e-15
6.11748e-15
2.46588e-15
1.79942e-15
-4.34743e-15
2.17841e-13
7.41612e-14
4.23956e-14
-1.6449e-13
6.70344e-14
3.74367e-14
-1.32926e-13
5.63396e-14
3.65643e-14
-1.14893e-13
4.65018e-14
3.30337e-14
-1.11122e-13
3.74994e-14
2.39973e-14
-1.05148e-13
2.942e-14
1.75371e-14
-9.83879e-14
2.19982e-14
1.76593e-14
-1.02571e-13
1.52098e-14
1.23585e-14
-1.19919e-13
9.28624e-15
1.38624e-14
3.0717e-15
6.4196e-15
-7.43394e-15
9.70724e-14
9.22717e-14
6.82832e-14
-2.87067e-13
8.0788e-14
6.34096e-14
-2.11217e-13
6.61877e-14
6.34423e-14
-1.79574e-13
5.33642e-14
5.12034e-14
-1.66926e-13
4.21909e-14
4.20198e-14
-1.56176e-13
3.22474e-14
3.37977e-14
-1.4438e-13
2.3603e-14
3.34929e-14
-1.46865e-13
1.61116e-14
2.51669e-14
-1.71673e-13
9.90608e-15
2.52457e-14
3.72107e-15
1.95683e-14
-1.02032e-14
-1.91861e-14
1.16325e-13
1.08791e-13
-4.42696e-13
9.82465e-14
1.11218e-13
-2.95628e-13
7.85235e-14
1.10508e-13
-2.58155e-13
6.16713e-14
9.25563e-14
-2.35741e-13
4.7551e-14
7.45353e-14
-2.14322e-13
3.57751e-14
6.71747e-14
-1.94966e-13
2.58377e-14
5.71288e-14
-1.86011e-13
1.72728e-14
4.54081e-14
-2.25296e-13
9.57993e-15
3.74175e-14
3.66314e-15
2.48116e-14
-1.33522e-14
-1.54026e-13
1.48582e-13
1.93789e-13
-6.46047e-13
1.21511e-13
2.03604e-13
-4.12649e-13
9.38549e-14
1.83561e-13
-3.55943e-13
7.1697e-14
1.49938e-13
-3.16187e-13
5.38744e-14
1.21838e-13
-2.81267e-13
3.93875e-14
1.02669e-13
-2.50995e-13
2.75986e-14
8.11499e-14
-2.32115e-13
1.83035e-14
7.65523e-14
-2.80873e-13
1.07415e-14
6.13662e-14
3.83047e-15
3.92046e-14
-1.65801e-14
-5.61376e-13
1.91192e-13
3.41781e-13
-9.19294e-13
1.51574e-13
3.52627e-13
-5.64191e-13
1.13356e-13
3.1351e-13
-4.7716e-13
8.39235e-14
2.40839e-13
-4.12758e-13
6.13192e-14
1.96368e-13
-3.58428e-13
4.37738e-14
1.54311e-13
-3.12473e-13
3.01034e-14
1.28016e-13
-2.8036e-13
1.91975e-14
1.05514e-13
-3.39163e-13
1.11093e-14
8.71223e-14
4.02103e-15
5.59182e-14
-1.98426e-14
-1.08466e-12
3.09895e-13
6.09281e-13
-1.28667e-12
1.76518e-13
6.20774e-13
-7.63777e-13
1.39357e-13
5.06589e-13
-6.28468e-13
1.00288e-13
3.83461e-13
-5.282e-13
7.17339e-14
2.99326e-13
-4.46989e-13
5.33336e-14
2.35693e-13
-3.81183e-13
3.63822e-14
1.86977e-13
-3.32177e-13
2.29881e-14
1.52163e-13
-3.99784e-13
1.25908e-14
1.24229e-13
4.81392e-15
7.85534e-14
-2.31468e-14
-2.01861e-12
2.8066e-11
6.74452e-12
-1.76532e-12
4.31551e-13
1.10554e-12
-1.02643e-12
1.63146e-13
8.1948e-13
-8.18792e-13
1.65283e-13
5.96329e-13
-6.66906e-13
1.0817e-13
4.4977e-13
-5.49419e-13
6.76341e-14
3.3994e-13
-4.5668e-13
3.17664e-14
2.62655e-13
-3.88867e-13
1.70001e-14
2.07857e-13
-4.6275e-13
8.60762e-15
1.67698e-13
3.27477e-15
1.09431e-13
-2.65612e-14
-3.38288e-10
8.33505e-09
6.04059e-08
-3.23921e-12
5.50713e-11
1.25058e-10
-1.28017e-12
1.29845e-12
4.13643e-13
-1.06318e-12
7.85534e-13
1.30774e-13
-8.38005e-13
5.61483e-13
7.87414e-14
-6.69582e-13
4.12552e-13
5.61128e-14
-5.4246e-13
3.10309e-13
4.26832e-14
-4.49833e-13
2.37964e-13
3.33375e-14
-5.29036e-13
1.84805e-13
2.64839e-14
1.13025e-13
-3.01658e-14
2.16218e-14
3.45474e-13
8.14377e-14
2.12257e-14
-1.79395e-14
7.73469e-14
1.51276e-14
-2.22356e-14
6.82464e-14
1.77086e-14
-1.9903e-14
5.94716e-14
1.30733e-14
-1.96481e-14
5.09397e-14
7.58222e-15
-1.91662e-14
4.27356e-14
4.79633e-15
-1.89252e-14
3.48026e-14
2.28188e-15
-1.95338e-14
2.71664e-14
1.21071e-15
-2.31839e-14
1.97835e-14
8.94446e-16
1.26707e-14
9.9548e-16
-1.54716e-15
2.94649e-13
5.8459e-14
3.59867e-14
-6.56264e-14
5.37481e-14
3.29345e-14
-7.01727e-14
4.55762e-14
3.17896e-14
-6.66191e-14
3.77816e-14
2.16749e-14
-6.21911e-14
3.05992e-14
2.12645e-14
-6.1632e-14
2.38599e-14
1.38981e-14
-5.76934e-14
1.76825e-14
9.11683e-15
-5.89181e-14
1.20152e-14
5.32313e-15
-7.09891e-14
6.91014e-15
4.56308e-15
2.52651e-15
3.36397e-15
-4.35459e-15
2.1715e-13
7.44786e-14
4.69208e-14
-1.65464e-13
6.7293e-14
4.94586e-14
-1.33207e-13
5.65495e-14
5.13806e-14
-1.15477e-13
4.66606e-14
4.18094e-14
-1.13249e-13
3.76163e-14
3.06891e-14
-1.04196e-13
2.9523e-14
2.54544e-14
-9.92995e-14
2.21386e-14
1.78675e-14
-1.0199e-13
1.53652e-14
1.9159e-14
-1.20232e-13
9.33979e-15
1.23157e-14
3.4889e-15
8.49294e-15
-7.42613e-15
9.6254e-14
9.2746e-14
8.80664e-14
-2.8838e-13
8.12133e-14
8.63241e-14
-2.12058e-13
6.65604e-14
8.84359e-14
-1.8015e-13
5.37042e-14
7.3742e-14
-1.67903e-13
4.2506e-14
5.67631e-14
-1.55659e-13
3.25749e-14
4.3618e-14
-1.45274e-13
2.38131e-14
3.50049e-14
-1.46885e-13
1.62901e-14
3.52827e-14
-1.71856e-13
9.97091e-15
2.77707e-14
3.62629e-15
1.58782e-14
-1.03227e-14
-2.05602e-14
1.17119e-13
1.53573e-13
-4.44715e-13
9.89327e-14
1.56385e-13
-2.96879e-13
7.90403e-14
1.53081e-13
-2.59211e-13
6.21047e-14
1.24391e-13
-2.36346e-13
4.78822e-14
1.02571e-13
-2.15289e-13
3.60653e-14
8.25725e-14
-1.95432e-13
2.59942e-14
6.24265e-14
-1.86869e-13
1.75146e-14
5.36616e-14
-2.25815e-13
1.00399e-14
4.5412e-14
3.97537e-15
2.97702e-14
-1.33068e-14
-1.5622e-13
1.49817e-13
2.63161e-13
-6.49551e-13
1.22512e-13
2.78986e-13
-4.14512e-13
9.47191e-14
2.58812e-13
-3.57703e-13
7.23515e-14
2.03477e-13
-3.17209e-13
5.44642e-14
1.64999e-13
-2.83049e-13
3.9787e-14
1.24468e-13
-2.51538e-13
2.80445e-14
1.12639e-13
-2.32973e-13
1.84639e-14
8.40186e-14
-2.81877e-13
1.09694e-14
7.11024e-14
3.97697e-15
4.64617e-14
-1.65033e-14
-5.67626e-13
1.93042e-13
4.78922e-13
-9.24867e-13
1.53149e-13
4.93179e-13
-5.68142e-13
1.1453e-13
4.21711e-13
-4.79535e-13
8.48781e-14
3.32405e-13
-4.15369e-13
6.2044e-14
2.60409e-13
-3.60186e-13
4.44289e-14
2.06855e-13
-3.14214e-13
3.06177e-14
1.6119e-13
-2.81499e-13
1.96709e-14
1.27438e-13
-3.40755e-13
1.14766e-14
1.05841e-13
4.40921e-15
6.67615e-14
-1.97598e-14
-1.09616e-12
3.13933e-13
8.58308e-13
-1.29642e-12
1.7869e-13
8.60461e-13
-7.69567e-13
1.40914e-13
6.96225e-13
-6.32901e-13
1.01449e-13
5.24776e-13
-5.31913e-13
7.262e-14
3.98674e-13
-4.50016e-13
5.37816e-14
3.06859e-13
-3.83759e-13
3.69416e-14
2.34714e-13
-3.34294e-13
2.35198e-14
1.84112e-13
-4.02091e-13
1.30467e-14
1.46423e-13
5.17848e-15
9.193e-14
-2.31063e-14
-2.04761e-12
2.96128e-11
9.26609e-12
-1.78049e-12
4.4206e-13
1.54199e-12
-1.03593e-12
1.58553e-13
1.13395e-12
-8.25948e-13
1.65526e-13
8.19022e-13
-6.72774e-13
1.08021e-13
5.98072e-13
-5.54151e-13
6.66643e-14
4.45357e-13
-4.60323e-13
3.14747e-14
3.23726e-13
-3.9201e-13
1.74643e-14
2.66071e-13
-4.66256e-13
9.05985e-15
2.00093e-13
3.67945e-15
1.21539e-13
-2.66326e-14
-3.6081e-10
1.20785e-08
6.51193e-08
-3.30985e-12
8.18583e-11
1.35391e-10
-1.28717e-12
2.01738e-12
4.16757e-13
-1.06872e-12
1.19786e-12
8.43269e-14
-8.42853e-13
8.52361e-13
6.35442e-14
-6.73731e-13
6.07294e-13
4.94776e-14
-5.46096e-13
4.44313e-13
3.91867e-14
-4.53033e-13
3.31564e-13
3.15645e-14
-5.32996e-13
2.5703e-13
2.58134e-14
1.52997e-13
-3.02724e-14
2.15114e-14
3.44991e-13
8.16401e-14
2.81135e-14
-1.82321e-14
7.75408e-14
2.7549e-14
-2.27508e-14
6.83775e-14
2.20456e-14
-2.01932e-14
5.95787e-14
1.73472e-14
-1.99135e-14
5.10617e-14
8.61523e-15
-1.97683e-14
4.28281e-14
5.73529e-15
-1.87837e-14
3.48996e-14
4.9663e-15
-1.94228e-14
2.72295e-14
3.67733e-15
-2.31745e-14
1.98453e-14
5.37367e-15
1.27453e-14
1.33308e-14
-1.60028e-15
2.9411e-13
5.86686e-14
4.81772e-14
-6.62027e-14
5.3936e-14
4.43629e-14
-7.08587e-14
4.57475e-14
4.33591e-14
-6.59046e-14
3.79411e-14
3.34861e-14
-6.4009e-14
3.06872e-14
2.18187e-14
-6.11186e-14
2.3967e-14
1.24246e-14
-5.96676e-14
1.77678e-14
9.8285e-15
-5.85825e-14
1.2134e-14
9.76039e-15
-7.09179e-14
6.99377e-15
7.77117e-15
2.59419e-15
1.24574e-14
-4.42788e-15
2.16325e-13
7.4871e-14
7.05469e-14
-1.66585e-13
6.76088e-14
6.82034e-14
-1.33535e-13
5.68202e-14
6.87623e-14
-1.17245e-13
4.68833e-14
5.47438e-14
-1.11681e-13
3.78343e-14
4.26693e-14
-1.05906e-13
2.96661e-14
2.51089e-14
-9.80358e-14
2.23182e-14
1.92186e-14
-1.03011e-13
1.54155e-14
1.73104e-14
-1.20296e-13
9.73137e-15
1.94294e-14
3.33013e-15
1.69739e-14
-7.53954e-15
9.5249e-14
9.33525e-14
1.12881e-13
-2.89929e-13
8.17425e-14
1.17717e-13
-2.12707e-13
6.7004e-14
1.17721e-13
-1.81332e-13
5.40805e-14
9.44659e-14
-1.68399e-13
4.28767e-14
7.69528e-14
-1.56407e-13
3.29379e-14
6.0106e-14
-1.45139e-13
2.40574e-14
3.83783e-14
-1.46904e-13
1.64901e-14
3.13878e-14
-1.72444e-13
9.72139e-15
2.69676e-14
4.05359e-15
2.72921e-14
-1.01867e-14
-2.23141e-14
1.18073e-13
1.97346e-13
-4.47153e-13
9.97543e-14
2.08147e-13
-2.98544e-13
7.97252e-14
1.99026e-13
-2.60345e-13
6.26379e-14
1.61016e-13
-2.37232e-13
4.83052e-14
1.30325e-13
-2.16573e-13
3.63962e-14
1.06952e-13
-1.9585e-13
2.63668e-14
7.03884e-14
-1.88545e-13
1.77146e-14
5.5748e-14
-2.26398e-13
1.05253e-14
4.74897e-14
4.1693e-15
4.26435e-14
-1.34406e-14
-1.58993e-13
1.51358e-13
3.53263e-13
-6.53594e-13
1.23746e-13
3.68042e-13
-4.17414e-13
9.56856e-14
3.33925e-13
-3.59631e-13
7.31882e-14
2.67879e-13
-3.18918e-13
5.51581e-14
2.14424e-13
-2.84302e-13
4.03752e-14
1.75732e-13
-2.5319e-13
2.84702e-14
1.17123e-13
-2.33538e-13
1.88442e-14
8.96141e-14
-2.83016e-13
1.13472e-14
7.34814e-14
4.22825e-15
6.25883e-14
-1.65493e-14
-5.75474e-13
1.95474e-13
6.26686e-13
-9.31769e-13
1.55042e-13
6.41209e-13
-5.72193e-13
1.16008e-13
5.52964e-13
-4.82992e-13
8.60165e-14
4.30766e-13
-4.18133e-13
6.29351e-14
3.38704e-13
-3.62499e-13
4.51443e-14
2.70456e-13
-3.16578e-13
3.12754e-14
2.10753e-13
-2.82727e-13
2.01485e-14
1.37626e-13
-3.42692e-13
1.18077e-14
1.08942e-13
4.78463e-15
7.18084e-14
-1.97492e-14
-1.11061e-12
3.17961e-13
1.12755e-12
-1.30799e-12
1.81384e-13
1.11509e-12
-7.76592e-13
1.43129e-13
9.03783e-13
-6.38514e-13
1.03114e-13
6.80846e-13
-5.36393e-13
7.38987e-14
5.20778e-13
-4.53539e-13
5.45352e-14
4.0453e-13
-3.87257e-13
3.77073e-14
3.14305e-13
-3.36761e-13
2.42296e-14
2.02389e-13
-4.04969e-13
1.36488e-14
1.54616e-13
5.65242e-15
9.45672e-14
-2.32078e-14
-2.07378e-12
2.9884e-11
1.01887e-11
-1.79973e-12
4.41043e-13
1.98173e-12
-1.04763e-12
1.64104e-13
1.4765e-12
-8.34921e-13
1.68925e-13
1.06667e-12
-6.79891e-13
1.10556e-13
7.88734e-13
-5.59924e-13
6.87313e-14
5.90993e-13
-4.65055e-13
3.26473e-14
4.50147e-13
-3.95738e-13
1.81432e-14
2.90931e-13
-4.70608e-13
9.50762e-15
2.12625e-13
4.149e-15
1.2559e-13
-2.66807e-14
-3.68841e-10
1.35785e-08
6.85782e-08
-3.29834e-12
7.94515e-11
1.37844e-10
-1.30367e-12
2.59696e-12
3.78816e-13
-1.08272e-12
1.64086e-12
8.4272e-14
-8.53629e-13
1.16597e-12
6.39687e-14
-6.82132e-13
8.43738e-13
5.00215e-14
-5.53073e-13
6.21927e-13
3.97889e-14
-4.58472e-13
4.53521e-13
3.22358e-14
-5.39102e-13
2.84365e-13
2.64905e-14
1.64109e-13
-3.0295e-14
2.2298e-14
3.44639e-13
8.18509e-14
2.47182e-14
-1.88572e-14
7.76395e-14
1.22558e-14
-2.28486e-14
6.85183e-14
1.28327e-14
-2.07424e-14
5.96905e-14
1.08956e-14
-2.01472e-14
5.11657e-14
1.36845e-14
-2.01348e-14
4.29453e-14
1.97929e-14
-1.97258e-14
3.50376e-14
3.08124e-14
-1.99275e-14
2.74209e-14
9.38675e-14
-2.25661e-14
2.00943e-14
3.80481e-13
1.29834e-14
1.25274e-12
-4.26243e-15
2.93404e-13
5.89164e-14
3.94522e-14
-6.66624e-14
5.41079e-14
2.08846e-14
-7.14595e-14
4.58687e-14
2.60264e-14
-6.65705e-14
3.80699e-14
2.20513e-14
-6.43114e-14
3.08203e-14
1.80853e-14
-6.10103e-14
2.4107e-14
2.68884e-14
-5.94746e-14
1.79011e-14
3.4554e-14
-6.10912e-14
1.22737e-14
7.11955e-14
-7.21648e-14
7.21554e-15
2.30475e-13
2.73754e-15
8.1109e-13
-3.99962e-15
2.15291e-13
7.52245e-14
5.64052e-14
-1.67666e-13
6.78845e-14
3.35284e-14
-1.34006e-13
5.70908e-14
4.26432e-14
-1.18584e-13
4.70977e-14
3.75759e-14
-1.11403e-13
3.80926e-14
3.48239e-14
-1.06214e-13
2.9928e-14
3.87882e-14
-9.91679e-14
2.25761e-14
4.7781e-14
-1.0303e-13
1.55941e-14
6.75058e-14
-1.22783e-13
9.30719e-15
1.60183e-13
3.55235e-15
5.30828e-13
-5.46134e-15
9.42835e-14
9.39967e-14
9.43696e-14
-2.91296e-13
8.22024e-14
6.54285e-14
-2.14122e-13
6.73906e-14
7.75377e-14
-1.81598e-13
5.44512e-14
6.84105e-14
-1.68865e-13
4.31664e-14
6.29364e-14
-1.56968e-13
3.31945e-14
5.08065e-14
-1.46406e-13
2.43939e-14
6.75521e-14
-1.47427e-13
1.68825e-14
7.87089e-14
-1.75e-13
9.97736e-15
1.33951e-13
4.33009e-15
3.75249e-13
-9.25475e-15
-2.40552e-14
1.19119e-13
1.6419e-13
-4.49261e-13
1.0051e-13
1.30594e-13
-2.99684e-13
8.03702e-14
1.40381e-13
-2.61638e-13
6.32355e-14
1.21527e-13
-2.37868e-13
4.88353e-14
1.07328e-13
-2.17391e-13
3.69136e-14
1.29575e-13
-1.96997e-13
2.66165e-14
9.91988e-14
-1.90371e-13
1.79564e-14
1.03303e-13
-2.29172e-13
1.08775e-14
1.35254e-13
4.22078e-15
2.89247e-13
-1.27563e-14
-1.61958e-13
1.52934e-13
2.90384e-13
-6.56979e-13
1.24865e-13
2.5069e-13
-4.19219e-13
9.66614e-14
2.47293e-13
-3.61887e-13
7.40026e-14
2.07837e-13
-3.19816e-13
5.58668e-14
1.77779e-13
-2.86656e-13
4.09632e-14
1.97483e-13
-2.54453e-13
2.91051e-14
1.25061e-13
-2.3496e-13
1.92865e-14
1.4599e-13
-2.863e-13
1.1731e-14
1.55472e-13
4.80103e-15
2.46244e-13
-1.61711e-14
-5.83807e-13
1.98858e-13
5.18625e-13
-9.37196e-13
1.56797e-13
4.65243e-13
-5.75932e-13
1.17404e-13
4.23581e-13
-4.86228e-13
8.71749e-14
3.43921e-13
-4.2045e-13
6.38924e-14
2.83523e-13
-3.65033e-13
4.5948e-14
2.92473e-13
-3.19257e-13
3.19285e-14
2.07687e-13
-2.84821e-13
2.07303e-14
1.99008e-13
-3.46521e-13
1.22407e-14
1.92933e-13
5.09006e-15
2.30994e-13
-1.94328e-14
-1.12515e-12
3.17897e-13
9.23981e-13
-1.31715e-12
1.85329e-13
8.36761e-13
-7.8277e-13
1.45394e-13
7.08411e-13
-6.43597e-13
1.04794e-13
5.53963e-13
-5.40534e-13
7.53098e-14
4.39699e-13
-4.57095e-13
5.49651e-14
4.35696e-13
-3.91393e-13
3.87478e-14
3.95148e-13
-3.39766e-13
2.4947e-14
2.05683e-13
-4.09934e-13
1.43401e-14
2.46423e-13
6.23734e-15
2.35473e-13
-2.29727e-14
-2.0441e-12
1.95144e-11
5.22351e-12
-1.82203e-12
3.66678e-13
1.46604e-12
-1.05798e-12
2.5939e-13
1.163e-12
-8.42797e-13
1.72651e-13
8.7609e-13
-6.86784e-13
1.1337e-13
7.3788e-13
-5.65149e-13
7.11191e-14
6.46664e-13
-4.71359e-13
3.40521e-14
5.59e-13
-3.99789e-13
1.90063e-14
2.86295e-13
-4.76923e-13
1.00555e-14
3.1197e-13
4.73566e-15
2.54809e-13
-2.66055e-14
-2.55538e-10
2.01353e-09
5.97564e-08
-2.69287e-12
-2.59334e-12
6.34449e-11
-1.32624e-12
1.91174e-12
7.52327e-14
-1.0961e-12
1.52056e-12
8.35946e-14