/*--------------------------------*- C++ -*----------------------------------*\
| =========                 |                                                 |
| \\      /  F ield         | OpenFOAM: The Open Source CFD Toolbox           |
|  \\    /   O peration     | Version:  4.1                                   |
|   \\  /    A nd           | Web:      www.OpenFOAM.org                      |
|    \\/     M anipulation  |                                                 |
\*---------------------------------------------------------------------------*/
FoamFile
{
    version     2.0;
    format      ascii;
    class       volVectorField;
    location    "0.46";
    object      U;
}
// * * * * * * * * * * * * * * * * * * * * * * * * * * * * * * * * * * * * * //

dimensions      [0 1 -1 0 0 0 0];

internalField   nonuniform List<vector> 
18000
(
(8.12615e-14 3.89683e-13 -6.23751e-12)
(8.7213e-14 3.88381e-13 -6.16616e-12)
(7.88289e-14 -9.93238e-15 -6.09544e-12)
(7.06446e-14 -1.22743e-14 -6.02591e-12)
(6.26846e-14 -1.20661e-14 -5.95713e-12)
(5.49281e-14 -1.18214e-14 -5.88928e-12)
(4.74193e-14 -1.17806e-14 -5.8222e-12)
(4.01781e-14 -1.17485e-14 -5.7563e-12)
(3.31255e-14 -1.15861e-14 -5.69136e-12)
(2.63063e-14 -9.01747e-15 -5.62817e-12)
(1.13993e-13 4.02675e-13 -7.82512e-12)
(1.29469e-13 3.91776e-13 -7.54641e-12)
(1.13788e-13 -4.2881e-14 -7.27757e-12)
(9.89611e-14 -4.39325e-14 -7.02099e-12)
(8.51536e-14 -4.24493e-14 -6.77531e-12)
(7.22752e-14 -4.08941e-14 -6.54014e-12)
(6.01777e-14 -3.93985e-14 -6.31462e-12)
(4.89635e-14 -3.8084e-14 -6.0987e-12)
(3.84283e-14 -3.67464e-14 -5.89134e-12)
(2.862e-14 -2.81012e-14 -5.69568e-12)
(1.21171e-13 4.08779e-13 -9.93915e-12)
(1.34069e-13 3.85128e-13 -9.32703e-12)
(1.11214e-13 -8.9866e-14 -8.7557e-12)
(9.07316e-14 -8.70928e-14 -8.22735e-12)
(7.24928e-14 -8.16257e-14 -7.73712e-12)
(5.62396e-14 -7.679e-14 -7.2821e-12)
(4.17049e-14 -7.23252e-14 -6.85987e-12)
(2.87299e-14 -6.81614e-14 -6.46689e-12)
(1.7146e-14 -6.43051e-14 -6.10122e-12)
(6.83213e-15 -4.79795e-14 -5.76439e-12)
(1.62636e-13 4.02655e-13 -1.27947e-11)
(1.69552e-13 3.61864e-13 -1.16478e-11)
(1.362e-13 -1.56661e-13 -1.06185e-11)
(1.07736e-13 -1.45315e-13 -9.69662e-12)
(8.35762e-14 -1.32562e-13 -8.87128e-12)
(6.29856e-14 -1.21185e-13 -8.13036e-12)
(4.55177e-14 -1.11034e-13 -7.46359e-12)
(3.05408e-14 -1.01964e-13 -6.86257e-12)
(1.77998e-14 -9.36691e-14 -6.31986e-12)
(6.95993e-15 -6.84879e-14 -5.83417e-12)
(2.23139e-13 3.73796e-13 -1.67152e-11)
(2.17975e-13 3.10897e-13 -1.47118e-11)
(1.68874e-13 -2.52015e-13 -1.29869e-11)
(1.29039e-13 -2.24731e-13 -1.14994e-11)
(9.69413e-14 -1.98423e-13 -1.02155e-11)
(7.0957e-14 -1.75944e-13 -9.10233e-12)
(4.98096e-14 -1.56733e-13 -8.13386e-12)
(3.25672e-14 -1.40194e-13 -7.28871e-12)
(1.85053e-14 -1.25547e-13 -6.54834e-12)
(7.04628e-15 -8.98077e-14 -5.90536e-12)
(3.13783e-13 3.05204e-13 -2.21934e-11)
(2.85679e-13 2.13324e-13 -1.88138e-11)
(2.12243e-13 -3.89656e-13 -1.60308e-11)
(1.56038e-13 -3.33196e-13 -1.37279e-11)
(1.13184e-13 -2.83947e-13 -1.18167e-11)
(8.01845e-14 -2.4381e-13 -1.02201e-11)
(5.46177e-14 -2.10779e-13 -8.87939e-12)
(3.4752e-14 -1.83217e-13 -7.74769e-12)
(1.92665e-14 -1.59866e-13 -6.78695e-12)
(7.15034e-15 -1.11979e-13 -5.97739e-12)
(4.53445e-13 1.66139e-13 -2.99928e-11)
(3.82162e-13 3.6834e-14 -2.43914e-11)
(2.70566e-13 -5.91073e-13 -1.99856e-11)
(1.90424e-13 -4.83014e-13 -1.65051e-11)
(1.32817e-13 -3.95785e-13 -1.37347e-11)
(9.07568e-14 -3.28052e-13 -1.15101e-11)
(5.98231e-14 -2.74574e-13 -9.70996e-12)
(3.69136e-14 -2.31795e-13 -8.24222e-12)
(1.98481e-14 -1.97031e-13 -7.03658e-12)
(7.07218e-15 -1.35021e-13 -6.05062e-12)
(-5.74155e-13 -9.91088e-14 -4.13503e-11)
(-7.02885e-13 -2.75593e-13 -3.20947e-11)
(-8.05229e-13 -8.8997e-13 -2.51873e-11)
(-8.56403e-13 -6.91575e-13 -1.99957e-11)
(-8.76861e-13 -5.42709e-13 -1.60464e-11)
(-8.78475e-13 -4.33004e-13 -1.3006e-11)
(-8.6862e-13 -3.50165e-13 -1.06391e-11)
(-8.51902e-13 -2.86611e-13 -8.77762e-12)
(-8.31307e-13 -2.37018e-13 -7.2986e-12)
(-8.17628e-13 -1.58919e-13 -6.12652e-12)
(-3.69796e-09 -7.57476e-13 -7.25208e-11)
(-3.62776e-09 -7.62846e-13 -5.54646e-11)
(-3.40421e-09 -1.15243e-12 -4.31542e-11)
(-3.2043e-09 -8.12968e-13 -3.41926e-11)
(-3.02545e-09 -5.82142e-13 -2.75568e-11)
(-2.8647e-09 -4.23266e-13 -2.25506e-11)
(-2.71958e-09 -3.11589e-13 -1.87112e-11)
(-2.58801e-09 -2.31769e-13 -1.5722e-11)
(-2.46835e-09 -1.97301e-13 -1.33615e-11)
(-2.39243e-09 -2.01124e-13 -1.15483e-11)
(3.92729e-07 -6.02649e-10 -4.42617e-08)
(2.8797e-08 1.42506e-10 -3.83872e-08)
(2.33809e-08 5.50601e-10 -3.34642e-08)
(1.95996e-08 4.9472e-10 -2.94035e-08)
(1.64295e-08 4.44166e-10 -2.60212e-08)
(1.37444e-08 4.00298e-10 -2.31782e-08)
(1.14496e-08 3.62162e-10 -2.07682e-08)
(9.47194e-09 3.28644e-10 -1.87091e-08)
(7.59049e-09 2.10845e-10 -1.69379e-08)
(-6.43456e-08 -9.10535e-11 -1.56249e-08)
(2.63316e-13 3.67458e-13 -6.49273e-12)
(2.46694e-13 3.44589e-13 -6.41718e-12)
(2.16407e-13 -5.32822e-14 -6.34213e-12)
(1.8729e-13 -5.51283e-14 -6.26795e-12)
(1.59288e-13 -5.45292e-14 -6.19499e-12)
(1.32336e-13 -5.38737e-14 -6.12337e-12)
(1.06407e-13 -5.33216e-14 -6.05196e-12)
(8.14956e-14 -5.2697e-14 -5.98229e-12)
(5.74319e-14 -5.17084e-14 -5.9135e-12)
(3.4651e-14 -2.99963e-14 -5.84631e-12)
(5.29049e-13 3.19428e-13 -8.17974e-12)
(4.87295e-13 2.30013e-13 -7.88295e-12)
(4.17672e-13 -1.99431e-13 -7.59647e-12)
(3.52663e-13 -1.94689e-13 -7.3233e-12)
(2.92063e-13 -1.87889e-13 -7.06242e-12)
(2.35547e-13 -1.81309e-13 -6.81249e-12)
(1.82849e-13 -1.74969e-13 -6.57351e-12)
(1.33664e-13 -1.69074e-13 -6.34458e-12)
(8.77061e-14 -1.62153e-13 -6.12544e-12)
(4.52869e-14 -9.2225e-14 -5.91795e-12)
(6.50443e-13 2.33817e-13 -1.04416e-11)
(5.77733e-13 5.09823e-14 -9.78437e-12)
(4.78119e-13 -4.04857e-13 -9.17325e-12)
(3.8886e-13 -3.82722e-13 -8.60804e-12)
(3.09375e-13 -3.5963e-13 -8.08539e-12)
(2.38475e-13 -3.38121e-13 -7.60108e-12)
(1.75182e-13 -3.18288e-13 -7.15224e-12)
(1.18671e-13 -2.99989e-13 -6.73517e-12)
(6.83123e-14 -2.81312e-13 -6.34756e-12)
(2.37438e-14 -1.57551e-13 -5.99138e-12)
(8.45953e-13 8.94175e-14 -1.35196e-11)
(7.24803e-13 -2.23919e-13 -1.22796e-11)
(5.82033e-13 -6.92851e-13 -1.11715e-11)
(4.59719e-13 -6.34921e-13 -1.01808e-11)
(3.55626e-13 -5.79805e-13 -9.29672e-12)
(2.66756e-13 -5.3071e-13 -8.50516e-12)
(1.90889e-13 -4.86679e-13 -7.79486e-12)
(1.26106e-13 -4.46984e-13 -7.15628e-12)
(7.0783e-14 -4.08905e-13 -6.57984e-12)
(2.41487e-14 -2.2539e-13 -6.06554e-12)
(1.11755e-12 -1.47842e-13 -1.77838e-11)
(9.20602e-13 -6.43365e-13 -1.56e-11)
(7.15008e-13 -1.09715e-12 -1.37292e-11)
(5.47167e-13 -9.7312e-13 -1.2121e-11)
(4.10674e-13 -8.62276e-13 -1.07391e-11)
(2.99345e-13 -7.66854e-13 -9.54549e-12)
(2.08455e-13 -6.84072e-13 -8.51038e-12)
(1.34205e-13 -6.1217e-13 -7.60987e-12)
(7.34486e-14 -5.46212e-13 -6.823e-12)
(2.44717e-14 -2.96229e-13 -6.14175e-12)
(1.50154e-12 -5.31879e-13 -2.38085e-11)
(1.18564e-12 -1.28162e-12 -2.00835e-11)
(8.87208e-13 -1.6676e-12 -1.70407e-11)
(6.5594e-13 -1.42802e-12 -1.45334e-11)
(4.76586e-13 -1.22494e-12 -1.24653e-11)
(3.36936e-13 -1.05664e-12 -1.07461e-11)
(2.27979e-13 -9.15873e-13 -9.30894e-12)
(1.42836e-13 -7.97682e-13 -8.10051e-12)
(7.62768e-14 -6.9384e-13 -7.07821e-12)
(2.47785e-14 -3.69871e-13 -6.21947e-12)
(2.05751e-12 -1.15e-12 -3.2498e-11)
(1.54938e-12 -2.2555e-12 -2.62454e-11)
(1.11265e-12 -2.47871e-12 -2.13795e-11)
(7.92165e-13 -2.04225e-12 -1.75594e-11)
(5.55831e-13 -1.69197e-12 -1.45438e-11)
(3.80469e-13 -1.41287e-12 -1.21375e-11)
(2.4979e-13 -1.18811e-12 -1.02011e-11)
(1.52188e-13 -1.00593e-12 -8.63058e-12)
(7.91808e-14 -8.52511e-13 -7.34475e-12)
(2.51783e-14 -4.46814e-13 -6.29897e-12)
(2.90657e-12 -2.15806e-12 -4.53544e-11)
(2.03801e-12 -3.75775e-12 -3.48638e-11)
(1.39278e-12 -3.64034e-12 -2.71432e-11)
(9.45392e-13 -2.8762e-12 -2.13936e-11)
(6.32652e-13 -2.29455e-12 -1.70647e-11)
(4.11795e-13 -1.85107e-12 -1.37585e-11)
(2.54699e-13 -1.5081e-12 -1.12035e-11)
(1.42472e-13 -1.24009e-12 -9.20558e-12)
(6.20245e-14 -1.02306e-12 -7.62595e-12)
(5.05666e-15 -5.26752e-13 -6.38121e-12)
(-6.40947e-11 -4.19022e-12 -7.93898e-11)
(-1.87637e-10 -6.43553e-12 -5.99292e-11)
(-1.53364e-10 -5.51504e-12 -4.61429e-11)
(-1.26359e-10 -4.18822e-12 -3.62469e-11)
(-1.05298e-10 -3.2298e-12 -2.90147e-11)
(-8.86412e-11 -2.53051e-12 -2.36157e-11)
(-7.53069e-11 -2.0104e-12 -1.95113e-11)
(-6.45137e-11 -1.61793e-12 -1.63396e-11)
(-5.56936e-11 -1.31131e-12 -1.38492e-11)
(-4.86072e-11 -7.06455e-13 -1.19452e-11)
(2.55952e-07 -1.28049e-09 -4.69353e-08)
(-5.98066e-09 -1.03444e-09 -4.0469e-08)
(-6.04505e-09 -5.32872e-10 -3.50286e-08)
(-5.55897e-09 -4.77471e-10 -3.06e-08)
(-5.11639e-09 -4.30819e-10 -2.69514e-08)
(-4.72169e-09 -3.89931e-10 -2.3912e-08)
(-4.37224e-09 -3.54088e-10 -2.13546e-08)
(-4.064e-09 -3.22619e-10 -1.91833e-08)
(-3.80245e-09 -2.9542e-10 -1.73255e-08)
(-4.68076e-09 -2.9108e-10 -1.59461e-08)
(2.30031e-13 3.72282e-13 -2.62489e-13)
(2.17031e-13 3.47901e-13 -2.57698e-13)
(1.90288e-13 -5.02341e-14 -2.52528e-13)
(1.64768e-13 -5.21088e-14 -2.47467e-13)
(1.40347e-13 -5.12441e-14 -2.42783e-13)
(1.16833e-13 -5.07355e-14 -2.38163e-13)
(9.44872e-14 -5.02657e-14 -2.33634e-13)
(7.30054e-14 -4.95254e-14 -2.29552e-13)
(5.24343e-14 -4.87053e-14 -2.25383e-13)
(3.30383e-14 -2.55792e-14 -2.21459e-13)
(5.018e-13 3.37084e-13 -3.65494e-13)
(4.63175e-13 2.41208e-13 -3.46326e-13)
(3.96773e-13 -1.8868e-13 -3.27568e-13)
(3.34824e-13 -1.83971e-13 -3.09688e-13)
(2.77275e-13 -1.77385e-13 -2.93667e-13)
(2.23669e-13 -1.71011e-13 -2.78512e-13)
(1.73859e-13 -1.64826e-13 -2.63888e-13)
(1.27394e-13 -1.59066e-13 -2.50261e-13)
(8.40632e-14 -1.52452e-13 -2.38359e-13)
(4.42856e-14 -7.9257e-14 -2.26206e-13)
(6.20373e-13 2.69583e-13 -5.19958e-13)
(5.51234e-13 7.16553e-14 -4.72766e-13)
(4.55378e-13 -3.84865e-13 -4.30628e-13)
(3.69641e-13 -3.63386e-13 -3.92256e-13)
(2.93553e-13 -3.40576e-13 -3.58088e-13)
(2.25976e-13 -3.19727e-13 -3.27002e-13)
(1.65825e-13 -3.00549e-13 -2.99429e-13)
(1.12359e-13 -2.82884e-13 -2.74481e-13)
(6.46269e-14 -2.64611e-13 -2.51596e-13)
(2.27502e-14 -1.35472e-13 -2.31995e-13)
(8.14008e-13 1.51578e-13 -7.53554e-13)
(6.96632e-13 -1.92488e-13 -6.56753e-13)
(5.57763e-13 -6.62429e-13 -5.73468e-13)
(4.39286e-13 -6.05728e-13 -5.01079e-13)
(3.38932e-13 -5.51524e-13 -4.39625e-13)
(2.53688e-13 -5.03441e-13 -3.86708e-13)
(1.81223e-13 -4.604e-13 -3.41278e-13)
(1.19603e-13 -4.22244e-13 -3.0208e-13)
(6.71587e-14 -3.8542e-13 -2.67606e-13)
(2.31661e-14 -1.94553e-13 -2.37955e-13)
(1.08669e-12 -4.79365e-14 -1.11784e-12)
(8.91929e-13 -6.01221e-13 -9.28254e-13)
(6.8996e-13 -1.05614e-12 -7.7451e-13)
(5.25764e-13 -9.33598e-13 -6.47851e-13)
(3.9324e-13 -8.23832e-13 -5.44551e-13)
(2.85789e-13 -7.30115e-13 -4.60144e-13)
(1.98547e-13 -6.49303e-13 -3.90734e-13)
(1.27595e-13 -5.79474e-13 -3.33437e-13)
(6.99417e-14 -5.15289e-13 -2.85131e-13)
(2.36572e-14 -2.56012e-13 -2.45322e-13)
(1.47778e-12 -3.79751e-13 -1.7006e-12)
(1.15953e-12 -1.23324e-12 -1.33675e-12)
(8.62698e-13 -1.61736e-12 -1.06133e-12)
(6.34106e-13 -1.37864e-12 -8.45553e-13)
(4.58601e-13 -1.17615e-12 -6.80082e-13)
(3.22926e-13 -1.00991e-12 -5.50916e-13)
(2.17838e-13 -8.71754e-13 -4.49848e-13)
(1.36295e-13 -7.56559e-13 -3.6973e-13)
(7.27611e-14 -6.55511e-13 -3.04482e-13)
(2.41206e-14 -3.20909e-13 -2.53759e-13)
(2.05354e-12 -9.24375e-13 -2.65585e-12)
(1.5321e-12 -2.21318e-12 -1.96542e-12)
(1.09146e-12 -2.42581e-12 -1.47558e-12)
(7.71309e-13 -1.98565e-12 -1.11562e-12)
(5.37917e-13 -1.63342e-12 -8.55531e-13)
(3.66296e-13 -1.35615e-12 -6.63181e-13)
(2.39575e-13 -1.13441e-12 -5.19669e-13)
(1.45585e-13 -9.56461e-13 -4.11038e-13)
(7.56934e-14 -8.06684e-13 -3.26546e-13)
(2.45855e-14 -3.88517e-13 -2.63362e-13)
(2.97148e-12 -1.83189e-12 -4.27634e-12)
(2.06275e-12 -3.75187e-12 -2.95493e-12)
(1.40003e-12 -3.59917e-12 -2.08605e-12)
(9.47147e-13 -2.81874e-12 -1.49013e-12)
(6.34968e-13 -2.22915e-12 -1.08575e-12)
(4.17225e-13 -1.78518e-12 -8.03162e-13)
(2.64045e-13 -1.44511e-12 -6.02728e-13)
(1.55692e-13 -1.18218e-12 -4.57847e-13)
(7.87874e-14 -9.69729e-13 -3.51445e-13)
(2.48714e-14 -4.59561e-13 -2.73416e-13)
(1.54715e-10 -3.49197e-12 -7.36415e-12)
(-1.55297e-12 -6.32796e-12 -4.76468e-12)
(-1.74685e-12 -5.33526e-12 -3.18621e-12)
(-1.3609e-12 -3.97995e-12 -2.18899e-12)
(-1.09014e-12 -3.01549e-12 -1.55318e-12)
(-8.92039e-13 -2.32454e-12 -1.13434e-12)
(-7.42262e-13 -1.81841e-12 -8.51977e-13)
(-6.26047e-13 -1.44226e-12 -6.57211e-13)
(-5.34352e-13 -1.15101e-12 -5.19001e-13)
(-4.5368e-13 -5.39007e-13 -4.22234e-13)
(2.24686e-07 -5.41059e-10 -2.82453e-09)
(2.4633e-10 -4.92408e-10 -2.13805e-09)
(-2.16266e-10 -6.4261e-11 -1.60053e-09)
(-1.73843e-10 -4.77329e-11 -1.22039e-09)
(-1.40423e-10 -3.71537e-11 -9.46427e-10)
(-1.14812e-10 -2.93239e-11 -7.45025e-10)
(-9.48768e-11 -2.3439e-11 -5.94387e-10)
(-7.92091e-11 -1.89545e-11 -4.79953e-10)
(-6.70175e-11 -1.54678e-11 -3.91828e-10)
(-6.81287e-11 -1.26315e-11 -3.24355e-10)
(2.26893e-13 3.72552e-13 -1.20034e-14)
(2.14262e-13 3.47834e-13 -1.11712e-14)
(1.87889e-13 -5.02344e-14 -9.08504e-15)
(1.62655e-13 -5.19832e-14 -8.07105e-15)
(1.38582e-13 -5.1302e-14 -6.66883e-15)
(1.15527e-13 -5.06785e-14 -5.65004e-15)
(9.34161e-14 -5.00012e-14 -4.78531e-15)
(7.22529e-14 -4.93218e-14 -3.83532e-15)
(5.20739e-14 -4.83565e-14 -3.44484e-15)
(3.29641e-14 -2.51969e-14 -3.42766e-15)
(4.98103e-13 3.3875e-13 -1.79112e-14)
(4.60048e-13 2.42384e-13 -1.60176e-14)
(3.94154e-13 -1.87687e-13 -1.39202e-14)
(3.32696e-13 -1.82963e-13 -1.16327e-14)
(2.75554e-13 -1.76126e-13 -9.54002e-15)
(2.2236e-13 -1.69973e-13 -8.31066e-15)
(1.72933e-13 -1.63956e-13 -6.95741e-15)
(1.26839e-13 -1.57872e-13 -5.95308e-15)
(8.38245e-14 -1.5121e-13 -5.21817e-15)
(4.43712e-14 -7.79895e-14 -4.65843e-15)
(6.15479e-13 2.73707e-13 -2.90119e-14)
(5.47369e-13 7.45775e-14 -2.56658e-14)
(4.52238e-13 -3.82125e-13 -2.16016e-14)
(3.67182e-13 -3.60788e-13 -1.78764e-14)
(2.91701e-13 -3.38424e-13 -1.52494e-14)
(2.24603e-13 -3.17586e-13 -1.26921e-14)
(1.64985e-13 -2.9832e-13 -1.05678e-14)
(1.1192e-13 -2.809e-13 -9.13552e-15)
(6.45637e-14 -2.62611e-13 -7.76213e-15)
(2.298e-14 -1.33256e-13 -7.49998e-15)
(8.07544e-13 1.60099e-13 -4.82623e-14)
(6.91674e-13 -1.86555e-13 -4.22625e-14)
(5.54008e-13 -6.57593e-13 -3.51043e-14)
(4.36485e-13 -6.01287e-13 -2.87381e-14)
(3.3692e-13 -5.47438e-13 -2.3909e-14)
(2.52388e-13 -4.99791e-13 -2.01441e-14)
(1.80487e-13 -4.57142e-13 -1.67885e-14)
(1.19374e-13 -4.19082e-13 -1.41593e-14)
(6.73434e-14 -3.82508e-13 -1.2385e-14)
(2.35892e-14 -1.91865e-13 -1.09405e-14)
(1.0781e-12 -3.2508e-14 -8.39405e-14)
(8.85725e-13 -5.91102e-13 -7.04361e-14)
(6.85477e-13 -1.04765e-12 -5.66941e-14)
(5.22687e-13 -9.26456e-13 -4.57885e-14)
(3.91216e-13 -8.1785e-13 -3.7498e-14)
(2.84575e-13 -7.24748e-13 -3.04724e-14)
(1.98014e-13 -6.44397e-13 -2.5395e-14)
(1.27626e-13 -5.75236e-13 -2.20179e-14)
(7.0156e-14 -5.11758e-13 -1.92123e-14)
(2.4255e-14 -2.52631e-13 -1.64862e-14)
(1.46597e-12 -3.51703e-13 -1.46802e-13)
(1.15165e-12 -1.21651e-12 -1.17979e-13)
(8.57355e-13 -1.60434e-12 -9.25202e-14)
(6.30695e-13 -1.368e-12 -7.28581e-14)
(4.56593e-13 -1.16746e-12 -5.80062e-14)
(3.21943e-13 -1.00263e-12 -4.6878e-14)
(2.17588e-13 -8.65534e-13 -3.84737e-14)
(1.36477e-13 -7.5173e-13 -3.2012e-14)
(7.32822e-14 -6.51365e-13 -2.63766e-14)
(2.48656e-14 -3.16683e-13 -2.29791e-14)
(2.03725e-12 -8.74424e-13 -2.59275e-13)
(1.52167e-12 -2.18646e-12 -1.9908e-13)
(1.08502e-12 -2.40596e-12 -1.49153e-13)
(7.67477e-13 -1.9704e-12 -1.1405e-13)
(5.35897e-13 -1.62165e-12 -8.81609e-14)
(3.6554e-13 -1.34673e-12 -6.94744e-14)
(2.39526e-13 -1.12694e-12 -5.55435e-14)
(1.46008e-13 -9.50636e-13 -4.51796e-14)
(7.66164e-14 -8.0208e-13 -3.73516e-14)
(2.54742e-14 -3.84121e-13 -3.10105e-14)
(2.94787e-12 -1.74329e-12 -4.66671e-13)
(2.04743e-12 -3.71027e-12 -3.33928e-13)
(1.39117e-12 -3.56977e-12 -2.39925e-13)
(9.42372e-13 -2.79776e-12 -1.75225e-13)
(6.3278e-13 -2.21343e-12 -1.31052e-13)
(4.16604e-13 -1.77364e-12 -1.00337e-13)
(2.64327e-13 -1.43655e-12 -7.77597e-14)
(1.56535e-13 -1.17548e-12 -6.16627e-14)
(7.9964e-14 -9.6495e-13 -5.00496e-14)
(2.6262e-14 -4.54958e-13 -4.06421e-14)
(1.67024e-10 -3.32515e-12 -8.52421e-13)
(3.43652e-12 -6.25707e-12 -5.50578e-13)
(1.74433e-12 -5.2832e-12 -3.74593e-13)
(1.12671e-12 -3.9434e-12 -2.63283e-13)
(7.24388e-13 -2.98893e-12 -1.90081e-13)
(4.57452e-13 -2.30474e-12 -1.41091e-13)
(2.78609e-13 -1.80314e-12 -1.06958e-13)
(1.57827e-13 -1.43014e-12 -8.30884e-14)
(7.57566e-14 -1.14098e-12 -6.56576e-14)
(2.09308e-14 -5.29268e-13 -5.32147e-14)
(2.22145e-07 -4.63354e-10 -1.98281e-10)
(5.2432e-10 -4.3686e-10 -5.83249e-11)
(-2.75375e-12 -1.1668e-11 -3.72335e-11)
(-2.5623e-12 -6.82972e-12 -2.45464e-11)
(-1.84598e-12 -4.88931e-12 -1.66618e-11)
(-1.3662e-12 -3.58317e-12 -1.159e-11)
(-1.03286e-12 -2.67763e-12 -8.23518e-12)
(-7.96586e-13 -2.03737e-12 -5.96215e-12)
(-6.29072e-13 -1.56706e-12 -4.3901e-12)
(-5.7818e-13 -7.84683e-13 -3.24003e-12)
(2.2725e-13 3.7245e-13 -1.09186e-14)
(2.14528e-13 3.47255e-13 -9.93219e-15)
(1.88179e-13 -5.09556e-14 -7.51595e-15)
(1.62867e-13 -5.25689e-14 -5.54482e-15)
(1.38743e-13 -5.17138e-14 -4.12797e-15)
(1.15588e-13 -5.10013e-14 -2.93916e-15)
(9.35561e-14 -5.05141e-14 -2.16373e-15)
(7.24379e-14 -4.95932e-14 -1.24979e-15)
(5.21783e-14 -4.84088e-14 -4.83722e-16)
(3.30539e-14 -2.54064e-14 -3.22489e-16)
(4.99035e-13 3.38433e-13 -1.61089e-14)
(4.60846e-13 2.41719e-13 -1.43041e-14)
(3.94867e-13 -1.88411e-13 -1.10439e-14)
(3.33196e-13 -1.8381e-13 -9.07016e-15)
(2.76052e-13 -1.76902e-13 -6.28748e-15)
(2.22775e-13 -1.70334e-13 -4.72225e-15)
(1.73294e-13 -1.64154e-13 -3.80383e-15)
(1.27226e-13 -1.58241e-13 -3.26499e-15)
(8.41637e-14 -1.51521e-13 -2.3839e-15)
(4.47322e-14 -7.80519e-14 -1.44504e-15)
(6.17131e-13 2.73218e-13 -2.61406e-14)
(5.48856e-13 7.35341e-14 -2.31719e-14)
(4.53488e-13 -3.83526e-13 -1.88136e-14)
(3.68204e-13 -3.61889e-13 -1.46814e-14)
(2.92625e-13 -3.38999e-13 -1.20253e-14)
(2.25452e-13 -3.18273e-13 -9.71363e-15)
(1.6567e-13 -2.98949e-13 -7.84003e-15)
(1.12532e-13 -2.81252e-13 -6.4946e-15)
(6.51319e-14 -2.62759e-13 -5.86356e-15)
(2.35331e-14 -1.33463e-13 -5.09247e-15)
(8.10465e-13 1.59181e-13 -4.48119e-14)
(6.9426e-13 -1.88269e-13 -3.91338e-14)
(5.561e-13 -6.59487e-13 -3.23097e-14)
(4.38266e-13 -6.02982e-13 -2.62451e-14)
(3.38429e-13 -5.48714e-13 -2.14548e-14)
(2.53616e-13 -5.00847e-13 -1.77908e-14)
(1.81587e-13 -4.58043e-13 -1.51939e-14)
(1.20372e-13 -4.19845e-13 -1.28821e-14)
(6.82743e-14 -3.83054e-13 -1.11196e-14)
(2.43599e-14 -1.91842e-13 -1.03042e-14)
(1.08304e-12 -3.42327e-14 -7.83141e-14)
(8.89886e-13 -5.94485e-13 -6.78475e-14)
(6.88865e-13 -1.0513e-12 -5.49842e-14)
(5.25441e-13 -9.29228e-13 -4.45252e-14)
(3.93499e-13 -8.20039e-13 -3.70733e-14)
(2.86489e-13 -7.26724e-13 -3.07927e-14)
(1.9964e-13 -6.45832e-13 -2.55791e-14)
(1.28984e-13 -5.76195e-13 -2.19908e-14)
(7.14073e-14 -5.12639e-13 -1.91933e-14)
(2.53119e-14 -2.53234e-13 -1.67835e-14)
(1.47423e-12 -3.55635e-13 -1.38231e-13)
(1.15839e-12 -1.22288e-12 -1.15374e-13)
(8.62645e-13 -1.61027e-12 -9.21329e-14)
(6.34939e-13 -1.37297e-12 -7.38698e-14)
(4.59941e-13 -1.17133e-12 -5.99481e-14)
(3.24715e-13 -1.00578e-12 -4.96877e-14)
(2.1983e-13 -8.68175e-13 -4.07295e-14)
(1.38329e-13 -7.53754e-13 -3.43872e-14)
(7.48078e-14 -6.53004e-13 -2.96483e-14)
(2.61513e-14 -3.17594e-13 -2.54519e-14)
(2.05112e-12 -8.8213e-13 -2.44627e-13)
(1.53253e-12 -2.19884e-12 -1.96933e-13)
(1.09315e-12 -2.41703e-12 -1.52591e-13)
(7.73707e-13 -1.97902e-12 -1.18833e-13)
(5.40722e-13 -1.62841e-12 -9.47018e-14)
(3.69283e-13 -1.3522e-12 -7.60021e-14)
(2.42495e-13 -1.13129e-12 -6.16143e-14)
(1.48415e-13 -9.53962e-13 -5.08618e-14)
(7.8519e-14 -8.04882e-13 -4.27447e-14)
(2.70892e-14 -3.85755e-13 -3.6037e-14)
(2.97179e-12 -1.75905e-12 -4.36128e-13)
(2.06465e-12 -3.73432e-12 -3.34039e-13)
(1.40357e-12 -3.58947e-12 -2.47978e-13)
(9.51499e-13 -2.81277e-12 -1.87613e-13)
(6.39534e-13 -2.22505e-12 -1.4454e-13)
(4.21693e-13 -1.78262e-12 -1.13014e-13)
(2.68227e-13 -1.44357e-12 -8.97177e-14)
(1.59542e-13 -1.18105e-12 -7.21714e-14)
(8.22481e-14 -9.69246e-13 -5.88958e-14)
(2.80592e-14 -4.57508e-13 -4.93927e-14)
(1.7088e-10 -3.36054e-12 -8.15504e-13)
(3.59776e-12 -6.30537e-12 -5.65656e-13)
(1.82007e-12 -5.3188e-12 -4.00632e-13)
(1.17467e-12 -3.96945e-12 -2.91018e-13)
(7.5583e-13 -3.00828e-12 -2.15966e-13)
(4.78754e-13 -2.31926e-12 -1.6358e-13)
(2.93351e-13 -1.8142e-12 -1.25655e-13)
(1.68237e-13 -1.43871e-12 -9.88371e-14)
(8.3186e-14 -1.14777e-12 -7.84736e-14)
(2.61789e-14 -5.33035e-13 -6.35109e-14)
(2.32914e-07 -4.74991e-10 -1.53314e-10)
(5.69229e-10 -4.43596e-10 -2.93076e-12)
(2.53371e-12 -9.93753e-12 -1.24483e-12)
(1.09926e-12 -5.60871e-12 -7.84894e-13)
(7.32576e-13 -4.05155e-12 -5.17249e-13)
(4.92444e-13 -2.99593e-12 -3.54699e-13)
(3.31044e-13 -2.25827e-12 -2.5088e-13)
(2.21056e-13 -1.73274e-12 -1.82216e-13)
(1.45182e-13 -1.3424e-12 -1.35041e-13)
(9.25827e-14 -6.14168e-13 -1.02212e-13)
(2.27802e-13 3.72142e-13 -1.37105e-14)
(2.14994e-13 3.4649e-13 -1.17259e-14)
(1.88479e-13 -5.19633e-14 -9.51399e-15)
(1.63193e-13 -5.33162e-14 -6.79367e-15)
(1.38908e-13 -5.23275e-14 -5.13244e-15)
(1.15775e-13 -5.14469e-14 -3.08599e-15)
(9.36428e-14 -5.06628e-14 -2.04804e-15)
(7.25447e-14 -4.99819e-14 -1.38484e-15)
(5.23534e-14 -4.87175e-14 -6.64965e-16)
(3.31336e-14 -2.5305e-14 -6.4742e-16)
(5.00372e-13 3.37968e-13 -2.02139e-14)
(4.62021e-13 2.4043e-13 -1.78393e-14)
(3.95794e-13 -1.89673e-13 -1.33889e-14)
(3.34027e-13 -1.84782e-13 -1.0631e-14)
(2.76707e-13 -1.77795e-13 -8.23061e-15)
(2.2334e-13 -1.70921e-13 -5.9407e-15)
(1.73758e-13 -1.64503e-13 -4.35637e-15)
(1.27611e-13 -1.58406e-13 -3.22148e-15)
(8.46336e-14 -1.51913e-13 -2.87129e-15)
(4.50992e-14 -7.83685e-14 -2.39902e-15)
(6.19502e-13 2.72365e-13 -3.24467e-14)
(5.50888e-13 7.18204e-14 -2.8628e-14)
(4.55254e-13 -3.85283e-13 -2.29223e-14)
(3.69642e-13 -3.63344e-13 -1.86771e-14)
(2.93877e-13 -3.40302e-13 -1.45721e-14)
(2.26493e-13 -3.19173e-13 -1.15235e-14)
(1.66653e-13 -2.99557e-13 -9.44121e-15)
(1.13351e-13 -2.81674e-13 -8.28796e-15)
(6.58826e-14 -2.63175e-13 -7.20885e-15)
(2.43338e-14 -1.33809e-13 -6.34472e-15)
(8.14516e-13 1.57439e-13 -5.60793e-14)
(6.97718e-13 -1.9115e-13 -4.83881e-14)
(5.58974e-13 -6.62307e-13 -3.95097e-14)
(4.40654e-13 -6.05327e-13 -3.23118e-14)
(3.40457e-13 -5.50632e-13 -2.62107e-14)
(2.55406e-13 -5.02195e-13 -2.14936e-14)
(1.83078e-13 -4.59083e-13 -1.84183e-14)
(1.21676e-13 -4.2074e-13 -1.59952e-14)
(6.93535e-14 -3.83608e-13 -1.42581e-14)
(2.53761e-14 -1.92235e-13 -1.2495e-14)
(1.08988e-12 -3.75161e-14 -9.76265e-14)
(8.95614e-13 -5.99454e-13 -8.34155e-14)
(6.93437e-13 -1.05603e-12 -6.7919e-14)
(5.29181e-13 -9.33097e-13 -5.55072e-14)
(3.96583e-13 -8.23117e-13 -4.58881e-14)
(2.8912e-13 -7.29286e-13 -3.84162e-14)
(2.01719e-13 -6.47966e-13 -3.18722e-14)
(1.308e-13 -5.77921e-13 -2.72302e-14)
(7.29349e-14 -5.13986e-13 -2.32817e-14)
(2.65673e-14 -2.53931e-13 -2.07839e-14)
(1.48573e-12 -3.62235e-13 -1.71853e-13)
(1.16763e-12 -1.23241e-12 -1.43373e-13)
(8.69854e-13 -1.61888e-12 -1.14082e-13)
(6.40525e-13 -1.3797e-12 -9.14306e-14)
(4.64444e-13 -1.17664e-12 -7.43799e-14)
(3.28279e-13 -1.01022e-12 -6.14974e-14)
(2.22758e-13 -8.71762e-13 -5.07259e-14)
(1.40711e-13 -7.56454e-13 -4.25779e-14)
(7.68104e-14 -6.55347e-13 -3.64931e-14)
(2.78028e-14 -3.18929e-13 -3.159e-14)
(2.07043e-12 -8.95663e-13 -3.04274e-13)
(1.54735e-12 -2.21662e-12 -2.43623e-13)
(1.10422e-12 -2.43239e-12 -1.88957e-13)
(7.82066e-13 -1.99095e-12 -1.47775e-13)
(5.47174e-13 -1.6377e-12 -1.17887e-13)
(3.74264e-13 -1.35967e-12 -9.46322e-14)
(2.46478e-13 -1.13723e-12 -7.70916e-14)
(1.51508e-13 -9.58691e-13 -6.29405e-14)
(8.09811e-14 -8.08697e-13 -5.28575e-14)
(2.91217e-14 -3.87926e-13 -4.47058e-14)
(3.00661e-12 -1.78617e-12 -5.41416e-13)
(2.08845e-12 -3.76851e-12 -4.14386e-13)
(1.42041e-12 -3.6172e-12 -3.08476e-13)
(9.63746e-13 -2.83342e-12 -2.33525e-13)
(6.48545e-13 -2.24071e-12 -1.80137e-13)
(4.28459e-13 -1.79482e-12 -1.41154e-13)
(2.7332e-13 -1.4532e-12 -1.1227e-13)
(1.63472e-13 -1.18862e-12 -8.96118e-14)
(8.52743e-14 -9.75146e-13 -7.30061e-14)
(3.04455e-14 -4.60802e-13 -6.08114e-14)
(1.79598e-10 -3.42034e-12 -9.93671e-13)
(3.67915e-12 -6.37615e-12 -7.0372e-13)
(1.8475e-12 -5.36839e-12 -5.00482e-13)
(1.19324e-12 -4.00495e-12 -3.6354e-13)
(7.68755e-13 -3.03439e-12 -2.70419e-13)
(4.87967e-13 -2.33898e-12 -2.04632e-13)
(3.00059e-13 -1.82914e-12 -1.57329e-13)
(1.73185e-13 -1.45015e-12 -1.23098e-13)
(8.68465e-14 -1.15674e-12 -9.79014e-14)
(2.89195e-14 -5.38157e-13 -7.91957e-14)
(2.55668e-07 -5.05316e-10 -1.95367e-10)
(6.1625e-10 -4.66142e-10 -1.72078e-12)
(2.79186e-12 -1.00907e-11 -8.19729e-13)
(1.17317e-12 -5.6469e-12 -5.65327e-13)
(7.79343e-13 -4.08049e-12 -4.01377e-13)
(5.22736e-13 -3.01805e-12 -2.92479e-13)
(3.51358e-13 -2.27547e-12 -2.1802e-13)
(2.35026e-13 -1.74628e-12 -1.64976e-13)
(1.55027e-13 -1.35301e-12 -1.27115e-13)
(1.0008e-13 -6.19797e-13 -1.0024e-13)
(2.28478e-13 3.71634e-13 -1.62811e-14)
(2.15632e-13 3.45584e-13 -1.41853e-14)
(1.88891e-13 -5.29089e-14 -1.08879e-14)
(1.63538e-13 -5.43093e-14 -8.42822e-15)
(1.39263e-13 -5.31869e-14 -6.10474e-15)
(1.16048e-13 -5.2228e-14 -4.13851e-15)
(9.39115e-14 -5.11898e-14 -2.44927e-15)
(7.27221e-14 -5.01457e-14 -1.75069e-15)
(5.25328e-14 -4.87178e-14 -2.95622e-15)
(3.33415e-14 -2.53813e-14 -7.62124e-15)
(5.01979e-13 3.3735e-13 -2.41482e-14)
(4.63462e-13 2.39053e-13 -2.06645e-14)
(3.96951e-13 -1.9122e-13 -1.65251e-14)
(3.35014e-13 -1.85836e-13 -1.27831e-14)
(2.77515e-13 -1.78764e-13 -1.01508e-14)
(2.2407e-13 -1.71876e-13 -7.44071e-15)
(1.74425e-13 -1.65249e-13 -5.82352e-15)
(1.28274e-13 -1.58844e-13 -4.34918e-15)
(8.51656e-14 -1.51872e-13 -3.77697e-15)
(4.56198e-14 -7.84536e-14 -7.62322e-15)
(6.22403e-13 2.71331e-13 -3.89673e-14)
(5.53347e-13 6.9833e-14 -3.35327e-14)
(4.57332e-13 -3.87346e-13 -2.69031e-14)
(3.71425e-13 -3.6515e-13 -2.18986e-14)
(2.95297e-13 -3.41803e-13 -1.73443e-14)
(2.27782e-13 -3.20338e-13 -1.42731e-14)
(1.67782e-13 -3.00287e-13 -1.15833e-14)
(1.14469e-13 -2.82219e-13 -1.024e-14)
(6.68724e-14 -2.63633e-13 -9.63956e-15)
(2.5089e-14 -1.34113e-13 -1.06711e-14)
(8.19516e-13 1.55333e-13 -6.64233e-14)
(7.01939e-13 -1.94603e-13 -5.69271e-14)
(5.62471e-13 -6.65598e-13 -4.64331e-14)
(4.43545e-13 -6.08134e-13 -3.79862e-14)
(3.42975e-13 -5.53003e-13 -3.14823e-14)
(2.57569e-13 -5.04053e-13 -2.6514e-14)
(1.84922e-13 -4.60392e-13 -2.24601e-14)
(1.23219e-13 -4.21683e-13 -1.94055e-14)
(7.07199e-14 -3.84668e-13 -1.75783e-14)
(2.65756e-14 -1.92891e-13 -1.67511e-14)
(1.09828e-12 -4.16328e-14 -1.16568e-13)
(9.02574e-13 -6.056e-13 -9.8107e-14)
(6.99034e-13 -1.06174e-12 -7.94624e-14)
(5.33679e-13 -9.37719e-13 -6.51002e-14)
(4.00335e-13 -8.26835e-13 -5.40374e-14)
(2.92275e-13 -7.32488e-13 -4.57411e-14)
(2.04396e-13 -6.5059e-13 -3.87175e-14)
(1.32954e-13 -5.79996e-13 -3.32311e-14)
(7.47697e-14 -5.15609e-13 -2.88159e-14)
(2.82382e-14 -2.54986e-13 -2.68682e-14)
(1.4999e-12 -3.70452e-13 -2.06032e-13)
(1.17883e-12 -1.24379e-12 -1.68579e-13)
(8.78537e-13 -1.6292e-12 -1.34343e-13)
(6.47407e-13 -1.38801e-12 -1.08345e-13)
(4.69918e-13 -1.18315e-12 -8.8369e-14)
(3.32709e-13 -1.01551e-12 -7.38069e-14)
(2.26396e-13 -8.76223e-13 -6.11934e-14)
(1.43615e-13 -7.60074e-13 -5.14682e-14)
(7.92619e-14 -6.58119e-13 -4.4501e-14)
(2.98098e-14 -3.20671e-13 -3.93759e-14)
(2.09428e-12 -9.12441e-13 -3.64462e-13)
(1.56531e-12 -2.23848e-12 -2.86573e-13)
(1.11763e-12 -2.45076e-12 -2.22533e-13)
(7.92302e-13 -2.00526e-12 -1.75282e-13)
(5.55022e-13 -1.64896e-12 -1.39775e-13)
(3.80403e-13 -1.36873e-12 -1.13611e-13)
(2.51318e-13 -1.1447e-12 -9.28207e-14)
(1.55315e-13 -9.64615e-13 -7.59713e-14)
(8.39945e-14 -8.13341e-13 -6.41362e-14)
(3.15515e-14 -3.90771e-13 -5.52845e-14)
(3.04666e-12 -1.81993e-12 -6.49093e-13)
(2.11733e-12 -3.80992e-12 -4.87312e-13)
(1.44114e-12 -3.65042e-12 -3.64575e-13)
(9.78763e-13 -2.85852e-12 -2.77113e-13)
(6.59621e-13 -2.25983e-12 -2.14289e-13)
(4.36746e-13 -1.8096e-12 -1.68914e-13)
(2.79589e-13 -1.46512e-12 -1.35089e-13)
(1.68288e-13 -1.1981e-12 -1.07611e-13)
(8.89686e-14 -9.82476e-13 -8.81841e-14)
(3.33177e-14 -4.65121e-13 -7.37968e-14)
(1.86898e-10 -3.4619e-12 -9.67615e-13)
(3.72924e-12 -6.45379e-12 -8.28103e-13)
(1.87881e-12 -5.42806e-12 -5.94194e-13)
(1.21504e-12 -4.04833e-12 -4.33045e-13)
(7.84178e-13 -3.06642e-12 -3.23323e-13)
(4.99034e-13 -2.36313e-12 -2.45611e-13)
(3.08107e-13 -1.84776e-12 -1.90305e-13)
(1.79091e-13 -1.4643e-12 -1.47324e-13)
(9.12239e-14 -1.16778e-12 -1.17888e-13)
(3.21837e-14 -5.4454e-13 -9.60685e-14)
(2.75236e-07 -4.61292e-10 3.16051e-10)
(6.44081e-10 -4.84628e-10 1.95974e-12)
(2.72035e-12 -1.02034e-11 -9.43518e-13)
(1.19381e-12 -5.71912e-12 -6.67082e-13)
(7.93823e-13 -4.13215e-12 -4.77064e-13)
(5.33024e-13 -3.05559e-12 -3.49093e-13)
(3.58888e-13 -2.30356e-12 -2.61333e-13)
(2.40646e-13 -1.76752e-12 -1.98033e-13)
(1.59169e-13 -1.36893e-12 -1.52274e-13)
(1.03279e-13 -6.28743e-13 -1.21076e-13)
(2.29172e-13 3.71288e-13 -1.71372e-14)
(2.15889e-13 3.44392e-13 -1.04034e-14)
(1.89263e-13 -5.42064e-14 -8.12643e-15)
(1.63851e-13 -5.51965e-14 -7.03923e-15)
(1.3962e-13 -5.40423e-14 -8.30047e-15)
(1.16498e-13 -5.29551e-14 -1.14654e-14)
(9.44785e-14 -5.17302e-14 -1.73849e-14)
(7.372e-14 -5.01838e-14 -5.22875e-14)
(5.44209e-14 -4.80556e-14 -2.11645e-13)
(3.52655e-14 -3.16393e-14 -6.95123e-13)
(5.03683e-13 3.36534e-13 -2.40037e-14)
(4.64451e-13 2.37708e-13 -1.31169e-14)
(3.97954e-13 -1.9258e-13 -1.17691e-14)
(3.35915e-13 -1.87172e-13 -1.01475e-14)
(2.78403e-13 -1.79884e-13 -1.0628e-14)
(2.25028e-13 -1.72761e-13 -1.36642e-14)
(1.75409e-13 -1.66031e-13 -1.84503e-14)
(1.29432e-13 -1.60059e-13 -3.92384e-14)
(8.67902e-14 -1.53585e-13 -1.27545e-13)
(4.69355e-14 -8.92829e-14 -4.49705e-13)
(6.25372e-13 2.70045e-13 -3.9294e-14)
(5.55402e-13 6.77902e-14 -2.31487e-14)
(4.59123e-13 -3.89288e-13 -1.93884e-14)
(3.73063e-13 -3.66759e-13 -1.74926e-14)
(2.96929e-13 -3.43174e-13 -1.66499e-14)
(2.2943e-13 -3.21623e-13 -1.95242e-14)
(1.69398e-13 -3.01676e-13 -2.48993e-14)
(1.16004e-13 -2.83511e-13 -3.6202e-14)
(6.87085e-14 -2.66225e-13 -8.88847e-14)
(2.6609e-14 -1.45964e-13 -2.94389e-13)
(8.247e-13 1.53296e-13 -6.75646e-14)
(7.05542e-13 -1.97453e-13 -4.23872e-14)
(5.65598e-13 -6.68509e-13 -3.56239e-14)
(4.46364e-13 -6.10458e-13 -3.1735e-14)