/*--------------------------------*- C++ -*----------------------------------*\
| =========                 |                                                 |
| \\      /  F ield         | OpenFOAM: The Open Source CFD Toolbox           |
|  \\    /   O peration     | Version:  4.1                                   |
|   \\  /    A nd           | Web:      www.OpenFOAM.org                      |
|    \\/     M anipulation  |                                                 |
\*---------------------------------------------------------------------------*/
FoamFile
{
    version     2.0;
    format      ascii;
    class       volScalarField;
    location    "0.06";
    object      p;
}
// * * * * * * * * * * * * * * * * * * * * * * * * * * * * * * * * * * * * * //

dimensions      [1 -1 -2 0 0 0 0];

internalField   nonuniform List<scalar> 
52500
(
1.03375
1.10939
1.22574
1.45799
1.57911
1.63869
1.646
1.62148
1.54104
1.3424
1.14432
1.05563
1.01946
1.00634
1.00234
1.00155
1.00184
1.00348
1.00918
1.02577
1.07296
1.21184
1.68116
3.17081
11.7027
1.03376
1.10939
1.22575
1.45803
1.57914
1.63869
1.64601
1.62149
1.54107
1.34244
1.14434
1.05564
1.01946
1.00634
1.00234
1.00155
1.00184
1.00348
1.00918
1.02577
1.07296
1.21184
1.68115
3.17069
11.7016
1.03376
1.10933
1.2258
1.45814
1.57923
1.63875
1.646
1.62149
1.54106
1.34245
1.14434
1.05564
1.01947
1.00635
1.00234
1.00155
1.00184
1.00348
1.00918
1.02577
1.07297
1.21185
1.68122
3.17024
11.6961
1.03376
1.10942
1.22582
1.45819
1.57928
1.6388
1.64608
1.62156
1.54112
1.34249
1.14439
1.05567
1.01948
1.00635
1.00234
1.00155
1.00184
1.00348
1.00918
1.02576
1.07295
1.21177
1.68077
3.1676
11.6749
1.03378
1.1094
1.22587
1.45825
1.57932
1.63878
1.64602
1.62152
1.54111
1.34258
1.14444
1.05569
1.01949
1.00635
1.00234
1.00155
1.00184
1.00348
1.00917
1.02575
1.07287
1.2114
1.67887
3.15734
11.5976
1.03387
1.10961
1.22566
1.45778
1.57919
1.63813
1.64562
1.62116
1.54099
1.34283
1.14456
1.05573
1.0195
1.00635
1.00234
1.00155
1.00184
1.00347
1.00916
1.02567
1.07257
1.21008
1.67237
3.12486
11.371
1.03388
1.10965
1.2257
1.45785
1.57926
1.63818
1.64566
1.6212
1.54103
1.3429
1.14461
1.05575
1.01952
1.00636
1.00234
1.00155
1.00183
1.00345
1.00907
1.02535
1.07146
1.20565
1.65245
3.03681
10.8265
1.0338
1.10953
1.22593
1.45834
1.57939
1.63883
1.64611
1.6216
1.5412
1.34272
1.14454
1.05575
1.01952
1.00636
1.00234
1.00154
1.00181
1.00337
1.00882
1.02446
1.06852
1.19448
1.60745
2.85658
9.84409
1.03389
1.10965
1.22572
1.45789
1.57928
1.63818
1.64567
1.62121
1.54105
1.34294
1.14463
1.05576
1.01952
1.00636
1.00235
1.00148
1.00171
1.00312
1.00805
1.02212
1.06149
1.17181
1.52446
2.57112
8.31441
1.03389
1.10965
1.22571
1.45789
1.57929
1.63817
1.64567
1.62121
1.54107
1.34298
1.14465
1.05577
1.01952
1.00636
1.00235
1.00135
1.0015
1.0026
1.00655
1.01787
1.04956
1.13669
1.40774
2.17982
6.62829
1.03378
1.10944
1.22585
1.45823
1.57933
1.63884
1.64614
1.62162
1.54119
1.34259
1.14443
1.05569
1.01949
1.00636
1.00235
1.00156
1.00185
1.00349
1.00919
1.02578
1.07298
1.21187
1.68123
3.17102
11.7035
1.03378
1.10946
1.22582
1.45813
1.57921
1.63872
1.64603
1.62151
1.5411
1.34253
1.1444
1.05567
1.01948
1.00635
1.00235
1.00156
1.00185
1.00349
1.00919
1.02578
1.07298
1.21187
1.68121
3.1709
11.7024
1.03389
1.10962
1.22569
1.45784
1.57921
1.63809
1.64559
1.62113
1.54098
1.34288
1.14458
1.05573
1.01951
1.00636
1.00235
1.00156
1.00185
1.00349
1.00919
1.02578
1.07297
1.21185
1.68111
3.17027
11.6971
1.03379
1.10945
1.22581
1.4581
1.57916
1.63864
1.64594
1.62143
1.54103
1.34248
1.14437
1.05566
1.01947
1.00635
1.00235
1.00156
1.00185
1.00349
1.00919
1.02577
1.07296
1.21177
1.68066
3.16762
11.6758
1.03389
1.10962
1.22569
1.45783
1.5792
1.63808
1.64557
1.62112
1.54097
1.34287
1.14457
1.05573
1.01951
1.00636
1.00235
1.00156
1.00185
1.00349
1.00918
1.02576
1.07288
1.2114
1.67877
3.15737
11.5986
1.03378
1.10945
1.22581
1.45811
1.57916
1.63867
1.64597
1.62146
1.54105
1.34249
1.14437
1.05566
1.01947
1.00635
1.00235
1.00156
1.00185
1.00348
1.00917
1.02568
1.07258
1.21008
1.67227
3.1249
11.372
1.03377
1.10944
1.22583
1.45818
1.57926
1.63877
1.64607
1.62155
1.54113
1.34253
1.1444
1.05567
1.01948
1.00636
1.00235
1.00156
1.00184
1.00346
1.00908
1.02536
1.07147
1.20567
1.6525
3.03697
10.8273
1.03377
1.10941
1.22578
1.45808
1.57917
1.63871
1.64602
1.6215
1.54107
1.34245
1.14434
1.05564
1.01947
1.00635
1.00234
1.00154
1.00182
1.00338
1.00883
1.02447
1.06852
1.1945
1.60735
2.85681
9.84469
1.03377
1.10941
1.22577
1.45805
1.57915
1.63869
1.646
1.62148
1.54106
1.34245
1.14434
1.05564
1.01946
1.00635
1.00235
1.00148
1.00172
1.00312
1.00805
1.02212
1.06149
1.17179
1.52441
2.57121
8.31465
1.03377
1.1094
1.22577
1.45804
1.57912
1.63866
1.64597
1.62146
1.54104
1.34243
1.14433
1.05563
1.01946
1.00635
1.00235
1.00135
1.00151
1.00261
1.00655
1.01788
1.04957
1.1367
1.40775
2.17993
6.62844
1.03377
1.1094
1.22576
1.45804
1.57911
1.63865
1.64596
1.62145
1.54103
1.34242
1.14432
1.05563
1.01946
1.00635
1.00234
1.00156
1.00185
1.00349
1.00919
1.02578
1.07298
1.21187
1.68123
3.17102
11.7035
1.03377
1.10941
1.22577
1.45805
1.57914
1.63868
1.64599
1.62147
1.54105
1.34244
1.14433
1.05564
1.01946
1.00635
1.00234
1.00156
1.00185
1.00349
1.00919
1.02578
1.07298
1.21187
1.68121
3.1709
11.7024
1.03377
1.10941
1.22578
1.45808
1.57916
1.63869
1.646
1.62148
1.54106
1.34244
1.14434
1.05564
1.01946
1.00635
1.00234
1.00156
1.00185
1.00349
1.00919
1.02578
1.07298
1.21185
1.68111
3.17027
11.6971
1.03377
1.10943
1.22582
1.45815
1.57921
1.63871
1.64601
1.62149
1.54108
1.3425
1.14438
1.05566
1.01948
1.00635
1.00235
1.00156
1.00185
1.00349
1.00919
1.02577
1.07296
1.21177
1.68066
3.16763
11.6758
1.03378
1.10945
1.2258
1.45808
1.57913
1.63863
1.64593
1.62142
1.54102
1.34246
1.14436
1.05565
1.01947
1.00635
1.00234
1.00156
1.00185
1.00349
1.00918
1.02576
1.07288
1.2114
1.67877
3.15737
11.5986
1.03388
1.10958
1.22562
1.4577
1.57907
1.638
1.64551
1.62105
1.54089
1.34274
1.14449
1.05569
1.01949
1.00635
1.00235
1.00156
1.00185
1.00348
1.00917
1.02568
1.07258
1.21008
1.67227
3.1249
11.372
1.03378
1.10945
1.2258
1.45808
1.57914
1.63864
1.64594
1.62143
1.54103
1.34247
1.14436
1.05565
1.01947
1.00635
1.00235
1.00156
1.00184
1.00346
1.00908
1.02536
1.07147
1.20567
1.6525
3.03697
10.8273
1.03377
1.10944
1.22583
1.45818
1.57926
1.63876
1.64606
1.62155
1.54113
1.34254
1.1444
1.05567
1.01948
1.00636
1.00235
1.00154
1.00182
1.00338
1.00883
1.02447
1.06852
1.1945
1.60735
2.85681
9.84469
1.03377
1.10942
1.2258
1.45811
1.57921
1.63874
1.64604
1.62152
1.5411
1.34247
1.14435
1.05565
1.01947
1.00635
1.00235
1.00148
1.00172
1.00312
1.00805
1.02212
1.06149
1.17179
1.52441
2.57121
8.31465
1.03377
1.10944
1.22583
1.45818
1.57926
1.63876
1.64606
1.62155
1.54113
1.34254
1.1444
1.05568
1.01948
1.00636
1.00235
1.00135
1.00151
1.00261
1.00655
1.01787
1.04957
1.1367
1.40775
2.17994
6.62844
1.03377
1.1094
1.22576
1.45803
1.5791
1.63863
1.64594
1.62143
1.54101
1.3424
1.14431
1.05563
1.01946
1.00635
1.00234
1.00156
1.00185
1.00349
1.00919
1.02578
1.07298
1.21187
1.68123
3.17102
11.7035
1.03377
1.1094
1.22576
1.45803
1.5791
1.63863
1.64594
1.62143
1.54101
1.3424
1.14431
1.05563
1.01946
1.00635
1.00234
1.00156
1.00185
1.00349
1.00919
1.02578
1.07298
1.21187
1.68121
3.1709
11.7024
1.03377
1.1094
1.22576
1.45803
1.5791
1.63863
1.64594
1.62143
1.54101
1.3424
1.14431
1.05563
1.01946
1.00635
1.00234
1.00156
1.00185
1.00349
1.00919
1.02578
1.07298
1.21185
1.68111
3.17027
11.6971
1.03377
1.1094
1.22576
1.45803
1.5791
1.63863
1.64594
1.62143
1.54101
1.3424
1.14431
1.05563
1.01946
1.00635
1.00234
1.00156
1.00185
1.00349
1.00919
1.02577
1.07296
1.21177
1.68066
3.16763
11.6758
1.03377
1.1094
1.22576
1.45803
1.5791
1.63863
1.64594
1.62143
1.54101
1.3424
1.14431
1.05563
1.01946
1.00635
1.00234
1.00156
1.00185
1.00349
1.00918
1.02576
1.07288
1.2114
1.67877
3.15737
11.5986
1.03377
1.1094
1.22576
1.45803
1.5791
1.63863
1.64594
1.62143
1.54101
1.3424
1.14431
1.05563
1.01946
1.00635
1.00234
1.00156
1.00185
1.00348
1.00917
1.02568
1.07258
1.21008
1.67227
3.1249
11.372
1.03377
1.1094
1.22576
1.45803
1.5791
1.63863
1.64594
1.62143
1.54101
1.3424
1.14431
1.05563
1.01946
1.00635
1.00234
1.00155
1.00184
1.00346
1.00908
1.02536
1.07147
1.20567
1.6525
3.03697
10.8273
1.03377
1.1094
1.22576
1.45803
1.5791
1.63863
1.64594
1.62143
1.54101
1.3424
1.14431
1.05563
1.01946
1.00635
1.00234
1.00154
1.00181
1.00338
1.00883
1.02447
1.06852
1.1945
1.60735
2.85681
9.84469
1.03377
1.1094
1.22576
1.45803
1.5791
1.63863
1.64594
1.62143
1.54101
1.3424
1.14431
1.05563
1.01946
1.00635
1.00235
1.00148
1.00172
1.00312
1.00805
1.02212
1.06149
1.17179
1.52441
2.57121
8.31465
1.03377
1.1094
1.22576
1.45803
1.5791
1.63863
1.64594
1.62143
1.54101
1.3424
1.14431
1.05563
1.01946
1.00635
1.00235
1.00135
1.00151
1.00261
1.00655
1.01788
1.04957
1.1367
1.40775
2.17994
6.62844
1.03376
1.10931
1.22578
1.45811
1.57919
1.63868
1.64593
1.62142
1.54098
1.34238
1.1443
1.05563
1.01947
1.00635
1.00235
1.00156
1.00185
1.00349
1.00919
1.02578
1.07298
1.21187
1.68121
3.17096
11.7031
1.03376
1.10932
1.22578
1.4581
1.57918
1.63868
1.64593
1.62142
1.54099
1.3424
1.14431
1.05564
1.01947
1.00635
1.00235
1.00156
1.00185
1.00349
1.00919
1.02578
1.07298
1.21187
1.6812
3.17085
11.7021
1.03376
1.10938
1.22574
1.45802
1.57914
1.6387
1.64601
1.62149
1.54106
1.34243
1.14434
1.05565
1.01947
1.00635
1.00235
1.00156
1.00185
1.00349
1.00919
1.02578
1.07298
1.21187
1.68127
3.1704
11.6968
1.03376
1.10938
1.22574
1.45801
1.57914
1.63869
1.64601
1.62149
1.54106
1.34243
1.14434
1.05565
1.01948
1.00636
1.00235
1.00156
1.00185
1.00349
1.00919
1.02578
1.07296
1.21179
1.68083
3.16776
11.6756
1.03376
1.10932
1.22578
1.45809
1.57917
1.63868
1.64593
1.62142
1.541
1.3424
1.14432
1.05564
1.01947
1.00635
1.00235
1.00156
1.00185
1.00349
1.00918
1.02576
1.07288
1.2114
1.67875
3.15734
11.5984
1.03376
1.10932
1.22578
1.45809
1.57916
1.63871
1.64594
1.62143
1.54098
1.34235
1.1443
1.05563
1.01947
1.00635
1.00235
1.00156
1.00185
1.00348
1.00917
1.02568
1.07258
1.21008
1.67225
3.12487
11.3718
1.03375
1.10932
1.22578
1.45809
1.57919
1.63875
1.64598
1.62146
1.541
1.34234
1.14429
1.05563
1.01947
1.00635
1.00235
1.00156
1.00184
1.00346
1.00908
1.02536
1.07147
1.20567
1.65249
3.03695
10.8271
1.03375
1.10938
1.22574
1.45802
1.57916
1.63873
1.64603
1.6215
1.54105
1.34237
1.14431
1.05564
1.01947
1.00635
1.00235
1.00154
1.00182
1.00338
1.00883
1.02447
1.06852
1.1945
1.60734
2.85681
9.84461
1.03376
1.10932
1.22578
1.45809
1.57917
1.63868
1.64593
1.62142
1.541
1.3424
1.14432
1.05564
1.01947
1.00635
1.00235
1.00148
1.00172
1.00313
1.00805
1.02212
1.06149
1.17179
1.52441
2.57121
8.31463
1.03377
1.10933
1.22579
1.4581
1.57916
1.63866
1.64591
1.62141
1.54099
1.34242
1.14433
1.05564
1.01947
1.00636
1.00235
1.00135
1.00151
1.00261
1.00656
1.01788
1.04957
1.1367
1.40775
2.17994
6.62844
1.03377
1.1094
1.22576
1.45803
1.5791
1.63863
1.64594
1.62142
1.54101
1.3424
1.14431
1.05563
1.01946
1.00635
1.00234
1.00156
1.00185
1.00349
1.00919
1.02578
1.07298
1.21187
1.68123
3.17102
11.7035
1.03377
1.1094
1.22576
1.45803
1.57909
1.63863
1.64594
1.62142
1.54101
1.34241
1.14432
1.05563
1.01946
1.00635
1.00234
1.00156
1.00185
1.00349
1.00919
1.02578
1.07298
1.21187
1.68121
3.17089
11.7024
1.03377
1.1094
1.22576
1.45803
1.5791
1.63863
1.64594
1.62143
1.54101
1.3424
1.14431
1.05563
1.01946
1.00635
1.00234
1.00156
1.00185
1.00349
1.00919
1.02578
1.07297
1.21185
1.68111
3.17026
11.697
1.03376
1.1094
1.22576
1.45802
1.57909
1.63866
1.64596
1.62144
1.54101
1.34238
1.1443
1.05563
1.01946
1.00635
1.00234
1.00156
1.00185
1.00349
1.00919
1.02577
1.07296
1.21177
1.68066
3.16761
11.6758
1.03377
1.1094
1.22576
1.45803
1.5791
1.63863
1.64594
1.62143
1.54101
1.3424
1.14431
1.05563
1.01946
1.00635
1.00234
1.00156
1.00185
1.00349
1.00918
1.02575
1.07288
1.2114
1.67876
3.15734
11.5985
1.03376
1.1094
1.22576
1.45802
1.57909
1.63866
1.64596
1.62144
1.54101
1.34238
1.1443
1.05563
1.01946
1.00635
1.00234
1.00156
1.00185
1.00348
1.00917
1.02568
1.07258
1.21008
1.67227
3.12489
11.372
1.03377
1.1094
1.22576
1.45803
1.5791
1.63863
1.64594
1.62143
1.54101
1.3424
1.14431
1.05563
1.01946
1.00635
1.00234
1.00155
1.00184
1.00346
1.00908
1.02536
1.07147
1.20567
1.65249
3.03695
10.8274
1.03377
1.1094
1.22576
1.45803
1.57909
1.63863
1.64594
1.62142
1.54101
1.34241
1.14432
1.05563
1.01946
1.00635
1.00234
1.00154
1.00181
1.00338
1.00883
1.02447
1.06852
1.1945
1.60734
2.85679
9.84475
1.03377
1.1094
1.22576
1.45803
1.5791
1.63863
1.64594
1.62143
1.54101
1.34241
1.14432
1.05563
1.01946
1.00635
1.00235
1.00148
1.00172
1.00312
1.00805
1.02212
1.06149
1.17179
1.52441
2.57119
8.31457
1.03377
1.1094
1.22576
1.45804
1.57911
1.63864
1.64595
1.62144
1.54102
1.34241
1.14432
1.05563
1.01946
1.00635
1.00235
1.00135
1.00151
1.00261
1.00655
1.01787
1.04957
1.1367
1.40775
2.17992
6.62838
1.03377
1.10941
1.22576
1.45803
1.5791
1.63863
1.64594
1.62143
1.54101
1.3424
1.14431
1.05563
1.01946
1.00635
1.00234
1.00156
1.00185
1.00349
1.00919
1.02578
1.07298
1.21187
1.68123
3.17102
11.7035
1.03377
1.1094
1.22576
1.45803
1.5791
1.63863
1.64594
1.62142
1.54101
1.3424
1.14431
1.05563
1.01946
1.00635
1.00234
1.00156
1.00185
1.00349
1.00919
1.02578
1.07298
1.21187
1.68121
3.1709
11.7024
1.03377
1.1094
1.22576
1.45803
1.5791
1.63863
1.64594
1.62142
1.54101
1.3424
1.14431
1.05563
1.01946
1.00635
1.00234
1.00156
1.00185
1.00349
1.00919
1.02578
1.07298
1.21185
1.68111
3.17027
11.6971
1.03377
1.1094
1.22576
1.45803
1.5791
1.63863
1.64594
1.62143
1.54101
1.3424
1.14431
1.05563
1.01946
1.00635
1.00234
1.00156
1.00185
1.00349
1.00919
1.02577
1.07296
1.21177
1.68066
3.16763
11.6758
1.03377
1.1094
1.22576
1.45803
1.5791
1.63863
1.64594
1.62143
1.54101
1.3424
1.14431
1.05563
1.01946
1.00635
1.00234
1.00156
1.00185
1.00349
1.00918
1.02576
1.07288
1.2114
1.67877
3.15737
11.5986
1.03377
1.1094
1.22576
1.45803
1.5791
1.63863
1.64594
1.62142
1.54101
1.3424
1.14431
1.05563
1.01946
1.00635
1.00234
1.00156
1.00185
1.00348
1.00917
1.02568
1.07258
1.21008
1.67227
3.1249
11.372
1.03377
1.1094
1.22576
1.45803
1.5791
1.63863
1.64594
1.62143
1.54101
1.3424
1.14431
1.05563
1.01946
1.00635
1.00234
1.00155
1.00184
1.00346
1.00908
1.02536
1.07147
1.20567
1.6525
3.03697
10.8273
1.03377
1.1094
1.22576
1.45803
1.5791
1.63863
1.64594
1.62143
1.54101
1.3424
1.14431
1.05563
1.01946
1.00635
1.00234
1.00154
1.00181
1.00338
1.00883
1.02447
1.06852
1.1945
1.60735
2.85681
9.84469
1.03377
1.1094
1.22576
1.45803
1.5791
1.63863
1.64594
1.62143
1.54101
1.3424
1.14431
1.05563
1.01946
1.00635
1.00235
1.00148
1.00172
1.00312
1.00805
1.02212
1.06149
1.17179
1.52441
2.57121
8.31465
1.03377
1.1094
1.22576
1.45803
1.5791
1.63863
1.64594
1.62143
1.54101
1.3424
1.14431
1.05563
1.01946
1.00635
1.00235
1.00135
1.00151
1.00261
1.00655
1.01788
1.04957
1.1367
1.40775
2.17994
6.62844
1.03377
1.1094
1.22576
1.45804
1.57911
1.63865
1.64596
1.62145
1.54103
1.34242
1.14432
1.05563
1.01946
1.00635
1.00234
1.00156
1.00185
1.00349
1.00919
1.02578
1.07298
1.21187
1.68123
3.17102
11.7035
1.03377
1.10941
1.22577
1.45805
1.57914
1.63868
1.64599
1.62147
1.54105
1.34244
1.14433
1.05564
1.01946
1.00635
1.00234
1.00156
1.00185
1.00349
1.00919
1.02578
1.07298
1.21187
1.68121
3.1709
11.7024
1.03377
1.10941
1.22578
1.45808
1.57916
1.63869
1.646
1.62148
1.54106
1.34244
1.14434
1.05564
1.01946
1.00635
1.00234
1.00156
1.00185
1.00349
1.00919
1.02578
1.07298
1.21185
1.68111
3.17027
11.6971
1.03377
1.10943
1.22582
1.45815
1.57921
1.63871
1.64601
1.62149
1.54108
1.3425
1.14438
1.05566
1.01948
1.00635
1.00235
1.00156
1.00185
1.00349
1.00919
1.02577
1.07296
1.21177
1.68066
3.16763
11.6758
1.03378
1.10945
1.2258
1.45808
1.57913
1.63863
1.64593
1.62142
1.54102
1.34246
1.14436
1.05565
1.01947
1.00635
1.00234
1.00156
1.00185
1.00349
1.00918
1.02576
1.07288
1.2114
1.67877
3.15737
11.5986
1.03388
1.10958
1.22562
1.4577
1.57907
1.638
1.64551
1.62105
1.54089
1.34274
1.14449
1.05569
1.01949
1.00635
1.00235
1.00156
1.00185
1.00348
1.00917
1.02568
1.07258
1.21008
1.67227
3.1249
11.372
1.03378
1.10945
1.2258
1.45808
1.57914
1.63864
1.64594
1.62143
1.54103
1.34247
1.14436
1.05565
1.01947
1.00635
1.00235
1.00156
1.00184
1.00346
1.00908
1.02536
1.07147
1.20567
1.6525
3.03697
10.8273
1.03377
1.10944
1.22583
1.45818
1.57926
1.63876
1.64606
1.62155
1.54113
1.34254
1.1444
1.05567
1.01948
1.00636
1.00235
1.00154
1.00182
1.00338
1.00883
1.02447
1.06852
1.1945
1.60735
2.85681
9.84469
1.03377
1.10942
1.2258
1.45811
1.57921
1.63874
1.64604
1.62152
1.5411
1.34247
1.14435
1.05565
1.01947
1.00635
1.00235
1.00148
1.00172
1.00312
1.00805
1.02212
1.06149
1.17179
1.52441
2.57121
8.31465
1.03377
1.10944
1.22583
1.45818
1.57926
1.63876
1.64606
1.62155
1.54113
1.34254
1.1444
1.05568
1.01948
1.00636
1.00235
1.00135
1.00151
1.00261
1.00655
1.01787
1.04957
1.1367
1.40775
2.17994
6.62844
1.03378
1.10944
1.22585
1.45823
1.57933
1.63884
1.64614
1.62162
1.54119
1.34259
1.14443
1.05569
1.01949
1.00636
1.00235
1.00156
1.00185
1.00349
1.00919
1.02578
1.07298
1.21187
1.68123
3.17102
11.7035
1.03378
1.10946
1.22582
1.45813
1.57921
1.63872
1.64603
1.62151
1.5411
1.34253
1.1444
1.05567
1.01948
1.00635
1.00235
1.00156
1.00185
1.00349
1.00919
1.02578
1.07298
1.21187
1.68121
3.1709
11.7024
1.03389
1.10962
1.22569
1.45784
1.57921
1.63809
1.64559
1.62113
1.54098
1.34288
1.14458
1.05573
1.01951
1.00636
1.00235
1.00156
1.00185
1.00349
1.00919
1.02578
1.07297
1.21185
1.68111
3.17027
11.6971
1.03379
1.10945
1.22581
1.4581
1.57916
1.63864
1.64594
1.62143
1.54103
1.34248
1.14437
1.05566
1.01947
1.00635
1.00235
1.00156
1.00185
1.00349
1.00919
1.02577
1.07296
1.21177
1.68066
3.16762
11.6758
1.03389
1.10962
1.22569
1.45783
1.5792
1.63808
1.64557
1.62112
1.54097
1.34287
1.14457
1.05573
1.01951
1.00636
1.00235
1.00156
1.00185
1.00349
1.00918
1.02576
1.07288
1.2114
1.67877
3.15737
11.5986
1.03378
1.10945
1.22581
1.45811
1.57917
1.63867
1.64597
1.62146
1.54105
1.34249
1.14437
1.05566
1.01947
1.00635
1.00235
1.00156
1.00185
1.00348
1.00917
1.02568
1.07258
1.21008
1.67227
3.1249
11.372
1.03377
1.10944
1.22583
1.45818
1.57926
1.63877
1.64607
1.62155
1.54113
1.34253
1.1444
1.05567
1.01948
1.00636
1.00235
1.00156
1.00184
1.00346
1.00908
1.02536
1.07147
1.20567
1.6525
3.03697
10.8273
1.03377
1.10941
1.22578
1.45808
1.57917
1.63871
1.64602
1.6215
1.54107
1.34245
1.14434
1.05564
1.01947
1.00635
1.00234
1.00154
1.00182
1.00338
1.00883
1.02447
1.06852
1.1945
1.60735
2.85681
9.84469
1.03377
1.10941
1.22577
1.45805
1.57915
1.63869
1.646
1.62149
1.54106
1.34245
1.14434
1.05564
1.01946
1.00635
1.00235
1.00148
1.00172
1.00312
1.00805
1.02212
1.06149
1.17179
1.52441
2.57121
8.31465
1.03377
1.1094
1.22577
1.45804
1.57912
1.63866
1.64597
1.62146
1.54104
1.34243
1.14433
1.05563
1.01946
1.00635
1.00235
1.00135
1.00151
1.00261
1.00655
1.01788
1.04957
1.1367
1.40775
2.17993
6.62844
1.03375
1.10939
1.22576
1.45806
1.57921
1.6388
1.6461
1.62158
1.54113
1.34246
1.14436
1.05565
1.01947
1.00635
1.00234
1.00155
1.00184
1.00348
1.00918
1.02577
1.07297
1.21187
1.68133
3.17096
11.7023
1.03376
1.10935
1.22582
1.45819
1.57929
1.63878
1.64602
1.62151
1.54109
1.34251
1.14439
1.05567
1.01948
1.00635
1.00234
1.00155
1.00184
1.00348
1.00918
1.02577
1.07296
1.21184
1.68114
3.17069
11.7014
1.03377
1.10942
1.22578
1.45809
1.57918
1.63873
1.64603
1.62151
1.54108
1.34247
1.14437
1.05566
1.01948
1.00635
1.00234
1.00155
1.00184
1.00348
1.00918
1.02577
1.07297
1.21185
1.68121
3.17023
11.6959
1.03387
1.10947
1.22567
1.45784
1.57927
1.63814
1.64555
1.6211
1.54094
1.34281
1.14453
1.05571
1.0195
1.00635
1.00234
1.00155
1.00184
1.00348
1.00918
1.02576
1.07295
1.21177
1.68077
3.16759
11.6747
1.03378
1.10945
1.22585
1.45823
1.5793
1.63876
1.64606
1.62154
1.54113
1.34257
1.14444
1.05569
1.01949
1.00635
1.00234
1.00155
1.00184
1.00348
1.00917
1.02575
1.07287
1.2114
1.67887
3.15734
11.5976
1.03378
1.10943
1.22592
1.45837
1.57945
1.63891
1.64613
1.62162
1.54119
1.34266
1.1445
1.05573
1.01952
1.00636
1.00234
1.00155
1.00184
1.00347
1.00916
1.02567
1.07257
1.21008
1.67237
3.12486
11.371
1.03388
1.10961
1.22566
1.45778
1.57919
1.63811
1.64562
1.62116
1.54101
1.34288
1.14459
1.05574
1.01951
1.00635
1.00234
1.00155
1.00183
1.00345
1.00907
1.02535
1.07146
1.20565
1.65245
3.03681
10.8265
1.03389
1.10963
1.22569
1.45785
1.57934
1.63827
1.64578
1.62132
1.54116
1.34303
1.14469
1.0558
1.01954
1.00637
1.00235
1.00153
1.00181
1.00337
1.00882
1.02446
1.06852
1.19447
1.60745
2.85658
9.84408
1.03378
1.10948
1.22586
1.45823
1.57933
1.63881
1.6461
1.62158
1.54116
1.3426
1.14447
1.05571
1.0195
1.00636
1.00235
1.00148
1.00171
1.00312
1.00805
1.02212
1.06149
1.17181
1.52446
2.57112
8.31441
1.03388
1.10955
1.2258
1.45811
1.57952
1.63838
1.64574
1.62129
1.54111
1.343
1.14467
1.05579
1.01954
1.00637
1.00235
1.00135
1.0015
1.0026
1.00655
1.01787
1.04956
1.13669
1.40774
2.17983
6.6283
1.03379
1.1095
1.22588
1.45825
1.57935
1.63884
1.64614
1.62163
1.54122
1.34267
1.1445
1.05572
1.0195
1.00635
1.00238
1.00095
1.00092
1.00135
1.00322
1.00902
1.0254
1.0711
1.20224
1.58531
2.82819
1.03388
1.10963
1.22572
1.4579
1.57934
1.63827
1.64576
1.62129
1.54112
1.34295
1.14463
1.05576
1.01952
1.00634
1.00241
1.00084
1.0005
1.00059
1.00116
1.00317
1.00906
1.02556
1.07201
1.2021
1.56881
1.03378
1.10948
1.22588
1.45829
1.57941
1.6389
1.64621
1.62169
1.54128
1.34272
1.14452
1.05573
1.0195
1.00634
1.0024
1.00086
1.00029
1.00024
1.00034
1.00079
1.00226
1.00639
1.0179
1.04867
1.12934
1.03379
1.10951
1.22593
1.45837
1.57948
1.63894
1.64624
1.62173
1.54132
1.34279
1.14457
1.05576
1.01952
1.00635
1.0024
1.00086
1.00029
1.00011
1.00011
1.00018
1.00046
1.00131
1.00361
1.00969
1.02521
1.03388
1.10965
1.22574
1.45795
1.57937
1.63828
1.64576
1.6213
1.54113
1.34299
1.14466
1.05578
1.01952
1.00634
1.0024
1.00086
1.00029
1.00009
1.00003
1.00004
1.00008
1.00021
1.00059
1.00157
1.00393
1.0339
1.1097
1.22576
1.45795
1.57936
1.63825
1.64573
1.62127
1.54112
1.34303
1.14469
1.05579
1.01953
1.00634
1.0024
1.00086
1.00029
1.00009
1.00002
1.00001
1.00001
1.00003
1.00008
1.00023
1.00058
1.03391
1.10972
1.2258
1.45803
1.5794
1.63824
1.64571
1.62126
1.54112
1.34307
1.14473
1.05581
1.01954
1.00635
1.0024
1.00086
1.00029
1.00009
1.00002
0.999999
0.999995
0.999996
1
1.00002
1.00007
1.03392
1.10972
1.2258
1.45805
1.57943
1.63825
1.64574
1.62128
1.54115
1.34313
1.14476
1.05582
1.01955
1.00635
1.0024
1.00086
1.00029
1.00009
1.00002
0.999999
0.999992
0.999991
0.999992
0.999994
1
1.0339
1.1097
1.22577
1.45799
1.5794
1.63829
1.64577
1.62131
1.54116
1.34308
1.14472
1.05581
1.01954
1.00635
1.0024
1.00086
1.00029
1.00009
1.00002
0.999999
0.999992
0.99999
0.99999
0.99999
0.999991
1.0339
1.10968
1.22579
1.45806
1.57947
1.63831
1.6458
1.62134
1.54119
1.34312
1.14474
1.05582
1.01954
1.00635
1.0024
1.00086
1.00029
1.00009
1.00002
0.999999
0.999992
0.99999
0.99999
0.99999
0.99999
1.0338
1.10955
1.22596
1.45842
1.57951
1.63897
1.64625
1.62174
1.54133
1.34282
1.1446
1.05578
1.01953
1.00635
1.0024
1.00086
1.00029
1.00009
1.00002
0.999999
0.999992
0.99999
0.99999
0.99999
0.99999
1.03389
1.10966
1.22574
1.45795
1.5794
1.63833
1.64582
1.62136
1.54118
1.34303
1.14469
1.05579
1.01953
1.00634
1.0024
1.00086
1.00029
1.00009
1.00002
0.999999
0.999992
0.99999
0.99999
0.99999
0.99999
1.03389
1.10966
1.22574
1.45795
1.5794
1.6383
1.6458
1.62134
1.54118
1.34306
1.1447
1.05579
1.01953
1.00634
1.0024
1.00086
1.00029
1.00009
1.00002
0.999999
0.999992
0.99999
0.99999
0.99999
0.99999
1.0338
1.10955
1.22596
1.45842
1.57951
1.63896
1.64624
1.62173
1.54132
1.34281
1.14459
1.05577
1.01952
1.00635
1.0024
1.00086
1.00029
1.00009
1.00002
0.999999
0.999992
0.99999
0.99999
0.99999
0.99999
1.03389
1.10969
1.22579
1.45804
1.57944
1.63831
1.64578
1.62132
1.54115
1.34305
1.14471
1.0558
1.01954
1.00635
1.0024
1.00086
1.00029
1.00009
1.00002
0.999999
0.999992
0.99999
0.99999
0.99999
0.99999
1.03391
1.10969
1.22576
1.45796
1.57937
1.63822
1.64572
1.62126
1.54113
1.34308
1.14471
1.0558
1.01953
1.00634
1.0024
1.00086
1.00029
1.00009
1.00002
0.999999
0.999992
0.99999
0.99999
0.99999
0.99999
1.03391
1.10969
1.22576
1.45797
1.57937
1.63822
1.64572
1.62127
1.54114
1.34309
1.14472
1.0558
1.01953
1.00634
1.0024
1.00086
1.00029
1.00009
1.00002
0.999999
0.999992
0.99999
0.99999
0.99999
0.99999
1.0339
1.10969
1.22579
1.45807
1.57948
1.63833
1.64582
1.62136
1.54121
1.34313
1.14474
1.05582
1.01954
1.00635
1.0024
1.00086
1.00029
1.00009
1.00002
0.999999
0.999992
0.99999
0.99999
0.99999
0.99999
1.0338
1.10955
1.22597
1.45846
1.57956
1.639
1.64628
1.62177
1.54136
1.34285
1.14461
1.05578
1.01953
1.00635
1.0024
1.00086
1.00029
1.00009
1.00002
0.999999
0.999992
0.99999
0.99999
0.99999
0.99999
1.0339
1.10969
1.2258
1.45808
1.57951
1.63836
1.64585
1.62139
1.54123
1.34314
1.14475
1.05582
1.01954
1.00635
1.0024
1.00086
1.00029
1.00009
1.00002
0.999999
0.999992
0.99999
0.99999
0.99999
0.99999
1.0339
1.1097
1.22577
1.45798
1.57939
1.63827
1.64575
1.62129
1.54114
1.34306
1.14471
1.0558
1.01953
1.00634
1.0024
1.00086
1.00029
1.00009
1.00002
0.999999
0.999992
0.99999
0.99999
0.99999
0.99999
1.03391
1.10972
1.2258
1.45805
1.57944
1.63827
1.64576
1.62131
1.54118
1.34315
1.14477
1.05583
1.01955
1.00635
1.00241
1.00086
1.00029
1.00009
1.00002
0.999999
0.999992
0.99999
0.99999
0.99999
0.99999
1.0339
1.1097
1.22577
1.45798
1.57939
1.63827
1.64575
1.62129
1.54114
1.34305
1.14471
1.0558
1.01953
1.00634
1.0024
1.00086
1.00029
1.00009
1.00002
0.999999
0.999992
0.99999
0.99999
0.99999
0.99999
1.0339
1.10969
1.2258
1.45808
1.5795
1.63836
1.64585
1.62139
1.54124
1.34315
1.14476
1.05583
1.01955
1.00635
1.00241
1.00086
1.00029
1.00009
1.00002
0.999999
0.999992
0.99999
0.99999
0.99999
0.99999
1.03381
1.10955
1.22597
1.45846
1.57956
1.63898
1.64627
1.62176
1.54137
1.34288
1.14463
1.05579
1.01953
1.00635
1.00241
1.00086
1.00029
1.00009
1.00002
0.999999
0.999992
0.99999
0.99999
0.99999
0.99999
1.0339
1.10969
1.2258
1.45807
1.5795
1.63839
1.64587
1.62141
1.54124
1.34312
1.14475
1.05582
1.01955
1.00635
1.00241
1.00086
1.00029
1.00009
1.00002
0.999999
0.999992
0.99999
0.99999
0.99999
0.99999
1.03391
1.1097
1.22577
1.45798
1.57939
1.63824
1.64574
1.62128
1.54114
1.34308
1.14472
1.0558
1.01953
1.00634
1.0024
1.00086
1.00029
1.00009
1.00002
0.999999
0.999992
0.99999
0.99999
0.99999
0.99999
1.03391
1.10972
1.2258
1.45804
1.57944
1.63829
1.64577
1.62132
1.54117
1.34311
1.14475
1.05582
1.01955
1.00635
1.0024
1.00086
1.00029
1.00009
1.00002
0.999999
0.999992
0.99999
0.99999
0.99999
0.99999
1.0339
1.1097
1.22577
1.45798
1.57939
1.63826
1.64575
1.62128
1.54113
1.34304
1.1447
1.05579
1.01953
1.00634
1.0024
1.00086
1.00029
1.00009
1.00002
0.999999
0.999992
0.99999
0.99999
0.99999
0.99999
1.0339
1.10968
1.22579
1.45806
1.57947
1.6383
1.64579
1.62133
1.54119
1.34311
1.14474
1.05581
1.01954
1.00635
1.0024
1.00086
1.00029
1.00009
1.00002
0.999999
0.999992
0.99999
0.99999
0.99999
0.99999
1.03381
1.10955
1.22596
1.45843
1.57951
1.63893
1.64622
1.62171
1.54132
1.34284
1.1446
1.05577
1.01952
1.00635
1.0024
1.00086
1.00029
1.00009
1.00002
0.999999
0.999992
0.99999
0.99999
0.99999
0.99999
1.03389
1.10966
1.22574
1.45796
1.5794
1.63828
1.64578
1.62132
1.54117
1.34306
1.14469
1.05579
1.01953
1.00634
1.0024
1.00086
1.00029
1.00009
1.00002
0.999999
0.999992
0.99999
0.99999
0.99999
0.99999
1.0339
1.10966
1.22574
1.45795
1.57936
1.63823
1.64573
1.62127
1.54112
1.34302
1.14467
1.05578
1.01952
1.00634
1.0024
1.00086
1.00029
1.00009
1.00002
0.999999
0.999992
0.99999
0.99999
0.99999
0.99999
1.0338
1.10954
1.22594
1.45839
1.57946
1.63888
1.64617
1.62167
1.54128
1.34281
1.14458
1.05576
1.01952
1.00635
1.0024
1.00086
1.00029
1.00009
1.00002
0.999999
0.999992
0.99999
0.99999
0.99999
0.99999
1.03389
1.10965
1.22572
1.45791
1.57932
1.6382
1.64569
1.62123
1.54109
1.34299
1.14465
1.05577
1.01952
1.00634
1.0024
1.00086
1.00029
1.00009
1.00002
0.999999
0.999992
0.99999
0.99999
0.99999
0.99999
1.03389
1.10965
1.22573
1.45792
1.57935
1.63827
1.64576
1.6213
1.54113
1.34299
1.14466
1.05578
1.01952
1.00634
1.0024
1.00086
1.00029
1.00009
1.00002
0.999999
0.999992
0.99999
0.99999
0.99999
0.99999
1.03379
1.1095
1.22589
1.45828
1.57941
1.6389
1.6462
1.62168
1.54125
1.34268
1.14451
1.05573
1.0195
1.00634
1.0024
1.00086
1.00029
1.00009
1.00002
0.999999
0.999992
0.99999
0.99999
0.99999
0.99999
1.03389
1.10966
1.22576
1.458
1.5794
1.63826
1.64575
1.62129
1.54115
1.34307
1.1447
1.0558
1.01953
1.00635
1.0024
1.00086
1.00029
1.00009
1.00002
0.999999
0.999992
0.99999
0.99999
0.99999
0.99999
1.03379
1.10943
1.22592
1.45836
1.57944
1.63885
1.64609
1.62159
1.54119
1.3427
1.14451
1.05573
1.0195
1.00634
1.0024
1.00086
1.00029
1.00009
1.00002
0.999999
0.999992
0.99999
0.99999
0.99999
0.99999
1.03388
1.10964
1.22572
1.4579
1.57935
1.63827
1.64575
1.62128
1.5411
1.34294
1.14463
1.05577
1.01952
1.00634
1.0024
1.00086
1.00029
1.00009
1.00002
0.999999
0.999992
0.99999
0.99999
0.99999
0.99999
1.03377
1.10941
1.22577
1.45805
1.57914
1.63868
1.646
1.62148
1.54106
1.34245
1.14434
1.05564
1.01946
1.00634
1.00238
1.00096
1.00093
1.00136
1.00323
1.00903
1.02541
1.07112
1.20228
1.5854
2.82841
1.03377
1.10941
1.22578
1.45808
1.57917
1.6387
1.64601
1.62149
1.54107
1.34245
1.14434
1.05564
1.01946
1.00633
1.00241
1.00085
1.00051
1.0006
1.00117
1.00318
1.00907
1.02557
1.07204
1.20215
1.56897
1.03377
1.10943
1.22582
1.45816
1.57922
1.63872
1.64602
1.62151
1.54109
1.34251
1.14438
1.05567
1.01947
1.00634
1.00241
1.00087
1.0003
1.00025
1.00035
1.0008
1.00227
1.0064
1.01791
1.0487
1.12938
1.03378
1.10945
1.2258
1.4581
1.57917
1.63869
1.646
1.62148
1.54107
1.3425
1.14438
1.05566
1.01947
1.00634
1.0024
1.00086
1.00029
1.00012
1.00012
1.00019
1.00047
1.00132
1.00362
1.0097
1.02523
1.03388
1.10959
1.22564
1.45773
1.57913
1.63806
1.64556
1.6211
1.54094
1.34278
1.14451
1.0557
1.01949
1.00634
1.0024
1.00086
1.0003
1.0001
1.00004
1.00005
1.00009
1.00022
1.0006
1.00158
1.00395
1.03379
1.10947
1.22585
1.45821
1.57925
1.63871
1.64601
1.6215
1.5411
1.34257
1.14443
1.05569
1.01948
1.00634
1.00241
1.00086
1.0003
1.0001
1.00003
1.00002
1.00002
1.00004
1.00009
1.00024
1.00059
1.03379
1.10948
1.22586
1.45822
1.57929
1.63876
1.64605
1.62154
1.54114
1.3426
1.14444
1.0557
1.01949
1.00634
1.00241
1.00086
1.0003
1.0001
1.00003
1.00001
1.00001
1.00001
1.00001
1.00003
1.00008
1.03388
1.1096
1.22565
1.45777
1.57918
1.6381