/*--------------------------------*- C++ -*----------------------------------*\
| =========                 |                                                 |
| \\      /  F ield         | OpenFOAM: The Open Source CFD Toolbox           |
|  \\    /   O peration     | Version:  4.1                                   |
|   \\  /    A nd           | Web:      www.OpenFOAM.org                      |
|    \\/     M anipulation  |                                                 |
\*---------------------------------------------------------------------------*/
FoamFile
{
    version     2.0;
    format      ascii;
    class       surfaceScalarField;
    location    "0.06";
    object      phi;
}
// * * * * * * * * * * * * * * * * * * * * * * * * * * * * * * * * * * * * * //

dimensions      [1 0 -1 0 0 0 0];

internalField   nonuniform List<scalar> 
150500
(
0.0167973
3.02593e-09
-9.33928e-11
0.0168947
2.48092e-08
-2.14008e-10
0.0175556
-3.09499e-08
-4.19853e-10
0.0181262
-1.42749e-07
-8.97068e-10
0.0185481
-2.11098e-07
-8.73212e-10
0.0191977
-2.31606e-07
-5.89483e-10
0.0197158
-2.21975e-07
-5.62427e-10
0.0192106
-1.76943e-07
-5.7408e-10
0.0177084
-1.31173e-07
-6.22078e-10
0.0148676
-9.73945e-08
-7.82844e-10
0.0131285
-5.2571e-08
-4.76819e-10
0.0121532
-2.798e-08
-2.40001e-10
0.0116376
-1.50069e-08
-1.2962e-10
0.0113872
-8.09164e-09
-7.0454e-11
0.0112769
-3.96971e-09
-5.22249e-11
0.011227
-2.00861e-09
-4.60587e-11
0.0111986
-1.25276e-09
-4.53838e-11
0.0111776
-1.0989e-09
-4.45891e-11
0.0111476
-1.44649e-09
-4.45098e-11
0.0110779
-2.95568e-09
-4.7513e-11
0.0108969
-6.63921e-09
-5.91199e-11
0.0104715
-1.16112e-08
-1.01202e-10
0.00925364
-6.58787e-08
-2.7978e-10
0.00533429
3.40403e-08
-9.60642e-10
2.97708e-06
-3.88702e-09
0.0167971
6.34238e-09
-1.06229e-10
0.0168944
3.65392e-08
-2.6504e-10
0.017556
-1.36637e-07
-2.54849e-10
0.0181267
-2.90909e-07
-3.84509e-10
0.0185482
-4.86893e-07
-2.68733e-10
0.0191975
-5.05208e-07
-1.03015e-10
0.0197157
-4.96597e-07
-8.25848e-11
0.0192109
-4.41869e-07
-9.4761e-11
0.0177091
-3.3835e-07
-1.51158e-10
0.0148681
-2.36953e-07
-3.50031e-10
0.0131287
-1.51259e-07
-2.37712e-10
0.0121533
-9.37048e-08
-1.11776e-10
0.0116376
-5.42469e-08
-6.22551e-11
0.0113872
-2.7229e-08
-3.96764e-11
0.0112769
-1.30687e-08
-4.02475e-11
0.011227
-6.2145e-09
-4.11089e-11
0.0111986
-3.31399e-09
-4.13384e-11
0.0111776
-2.44707e-09
-4.19717e-11
0.0111476
-3.37725e-09
-4.36297e-11
0.0110779
-5.88079e-09
-4.7709e-11
0.0108969
-1.55094e-08
-5.97586e-11
0.0104715
-1.79955e-08
-9.90442e-11
0.00925382
-1.59113e-07
-2.63167e-10
0.00533482
6.32632e-07
-9.34236e-10
1.27255e-05
-3.60038e-09
0.0167969
-1.67634e-08
-5.07092e-10
0.0168922
-1.33732e-07
-1.1372e-09
0.0175573
-1.7952e-07
4.13522e-10
0.0181286
-4.32484e-07
1.16616e-09
0.0185513
-5.50137e-07
9.93726e-11
0.0191993
-6.78096e-07
2.58131e-09
0.0197151
-7.39703e-07
1.6327e-09
0.0192096
-7.25008e-07
1.44251e-09
0.0177085
-6.34117e-07
3.13103e-10
0.0148678
-4.76512e-07
-1.72203e-09
0.0131287
-3.23635e-07
-9.60318e-10
0.0121533
-1.87892e-07
-3.64377e-10
0.0116376
-9.72852e-08
-1.6332e-10
0.0113872
-4.53142e-08
-5.01599e-11
0.0112769
-1.95392e-08
-4.60739e-11
0.011227
-8.37441e-09
-4.38048e-11
0.0111986
-3.9002e-09
-4.32339e-11
0.0111776
-1.92162e-09
-4.22263e-11
0.0111476
-7.32766e-10
-4.10686e-11
0.0110779
3.22915e-09
-4.09887e-11
0.0108969
1.75744e-08
-3.27495e-11
0.0104713
1.11732e-07
7.11038e-12
0.0092532
6.34909e-07
4.59375e-10
0.00533365
4.52199e-06
-1.30409e-10
5.10084e-05
-4.61615e-09
0.0167973
-7.76403e-08
-1.11626e-10
0.0168949
-1.77625e-07
-1.50954e-10
0.0175568
-4.73153e-07
6.19973e-11
0.0181277
-6.39921e-07
3.51643e-10
0.0185493
-5.52197e-07
4.89717e-10
0.0191987
-2.35297e-07
6.30679e-10
0.0197164
-1.31886e-07
5.43817e-10
0.019211
-2.97133e-07
5.12359e-10
0.0177092
-5.7121e-07
3.62666e-10
0.0148684
-7.02537e-07
3.44172e-11
0.0131291
-5.22234e-07
4.52818e-11
0.0121536
-3.02536e-07
5.14165e-11
0.0116378
-1.51864e-07
3.07439e-11
0.0113873
-6.75142e-08
-5.96258e-12
0.011277
-2.83798e-08
-2.72528e-11
0.011227
-1.15854e-08
-3.49838e-11
0.0111986
-4.55516e-09
-3.5952e-11
0.0111776
-1.86597e-10
-3.76109e-11
0.0111476
5.45392e-09
-3.89215e-11
0.0110779
2.80698e-08
-3.99746e-11
0.010897
1.14992e-07
-3.16934e-11
0.0104719
5.6088e-07
1.05482e-11
0.00925526
3.09795e-06
4.7725e-10
0.00534229
1.86356e-05
-1.24604e-10
0.00019506
-4.62256e-09
0.016797
-2.13895e-07
-4.17069e-10
0.0168926
-4.8327e-07
-8.73725e-10
0.0175573
-3.33087e-07
6.87567e-10
0.0181294
-4.64194e-07
1.61484e-09
0.0185516
-2.83966e-07
4.90446e-10
0.0191994
4.9829e-07
2.74672e-09
0.019715
4.99596e-07
1.77136e-09
0.0192095
1.38916e-08
1.60282e-09
0.0177091
-7.52823e-07
5.58657e-10
0.0148689
-1.18453e-06
-1.16225e-09
0.0131294
-8.19782e-07
-5.57038e-10
0.0121537
-4.40796e-07
-1.62227e-10
0.0116379
-2.08082e-07
-6.05194e-11
0.0113873
-8.71748e-08
-1.65856e-11
0.011277
-3.63431e-08
-3.3506e-11
0.011227
-1.37122e-08
-3.83687e-11
0.0111987
-3.23951e-09
-3.86838e-11
0.0111776
7.01434e-09
-3.91585e-11
0.0111476
3.16467e-08
-3.93605e-11
0.0110781
1.32178e-07
-4.08387e-11
0.0108977
5.04308e-07
-3.09681e-11
0.0104741
2.25458e-06
7.52063e-12
0.00926308
1.17478e-05
4.73209e-10
0.0053756
6.46724e-05
-1.45862e-10
0.000661377
-4.62503e-09
0.0167952
-2.78192e-08
3.46882e-10
0.0168983
-1.24046e-07
5.94451e-10
0.0175553
-2.65536e-07
-5.87131e-10
0.0181329
-4.26049e-07
-1.28846e-09
0.0185457
-5.02946e-07
9.29334e-11
0.019184
-5.1785e-07
-2.09986e-09
0.0197015
-5.66227e-07
-1.37247e-09
0.019203
-6.1199e-07
-1.19671e-09
0.0177081
-6.08964e-07
-2.57746e-10
0.0148708
-5.13665e-07
1.37215e-09
0.0131309
-3.38192e-07
7.5469e-10
0.0121547
-1.88459e-07
2.83584e-10
0.0116385
-9.36486e-08
1.24733e-10
0.0113876
-4.14336e-08
-6.36767e-12
0.0112771
-1.64172e-08
-2.55584e-11
0.0112271
-2.12813e-09
-3.35704e-11
0.0111987
8.3241e-09
-3.4754e-11
0.0111777
3.71724e-08
-3.66608e-11
0.0111478
1.34454e-07
-3.75237e-11
0.0110787
5.13224e-07
-3.71441e-11
0.0109
1.84764e-06
-2.99141e-11
0.0104814
7.67423e-06
6.87281e-12
0.00928852
3.77094e-05
4.28243e-10
0.00548119
0.000189213
-2.04937e-10
0.00189407
-4.75314e-09
0.0167953
1.02894e-07
4.19505e-10
0.0168986
1.36167e-07
8.06027e-10
0.0175554
-1.07551e-07
-4.96606e-10
0.0181334
-2.65245e-07
-1.28072e-09
0.018546
-4.284e-07
-1.2006e-11
0.0191843
-1.01056e-06
-2.32066e-09
0.0197017
-9.83393e-07
-1.59314e-09
0.0192031
-7.31665e-07
-1.40531e-09
0.0177084
-2.2437e-07
-3.99149e-10
0.0148714
1.90003e-07
1.47517e-09
0.0131313
1.44939e-07
8.62835e-10
0.012155
6.80771e-08
3.28303e-10
0.0116386
2.78982e-08
1.43709e-10
0.0113877
7.07761e-09
-5.37597e-12
0.0112772
5.19608e-09
-2.61553e-11
0.0112271
2.06348e-08
-3.41451e-11
0.0111988
4.79598e-08
-3.54303e-11
0.0111778
1.49055e-07
-3.79174e-11
0.0111484
4.93669e-07
-4.12337e-11
0.0110809
1.71301e-06
-4.44271e-11
0.0109074
5.74944e-06
-5.37739e-11
0.0105024
2.18876e-05
-8.32581e-11
0.00936023
9.80878e-05
-2.1091e-10
0.00577397
0.000439661
-7.38671e-10
0.00442958
-3.68039e-09
0.0167975
-1.17668e-07
1.17013e-10
0.0168958
-1.91278e-07
4.61814e-10
0.0175566
-5.76654e-08
5.53416e-10
0.0181288
-1.3936e-08
1.00426e-09
0.0185496
2.09298e-08
8.57787e-10
0.0191986
6.46333e-07
4.6442e-10
0.0197161
6.5316e-07
3.64435e-10
0.0192109
4.05836e-07
3.94942e-10
0.0177102
-6.67787e-08
5.1861e-10
0.0148702
-4.53799e-07
1.07021e-09
0.0131303
-2.89739e-07
8.20358e-10
0.0121542
-1.37276e-07
4.23395e-10
0.0116381
-5.55012e-08
2.10808e-10
0.0113874
-2.3299e-08
4.67807e-11
0.011277
-5.67168e-09
-8.46327e-12
0.0112272
7.35107e-08
-2.68496e-11
0.011199
1.71172e-07
-2.89417e-11
0.0111783
4.92443e-07
-3.12185e-11
0.01115
1.54351e-06
-3.19217e-11
0.0110864
4.87872e-06
-2.35769e-11
0.0109247
1.53338e-05
1.90687e-11
0.0105446
5.13169e-05
-1.24376e-10
0.00950278
0.00021131
4.35384e-10
0.00633242
0.000806723
-1.05253e-09
0.00837265
-2.79718e-09
0.0167953
1.15162e-09
4.58512e-10
0.0168987
3.15152e-08
9.56061e-10
0.0175556
6.58409e-08
-2.02976e-10
0.0181337
1.16838e-07
-6.50306e-10
0.0185461
1.7722e-07
5.10682e-10
0.0191843
2.39193e-07
-1.98941e-09
0.0197017
2.55499e-07
-1.30046e-09
0.0192032
2.48315e-07
-1.1016e-09
0.0177088
2.07577e-07
-5.57648e-11
0.0148717
1.46293e-07
1.98316e-09
0.0131315
1.08516e-07
1.21029e-09
0.0121551
6.84012e-08
5.06535e-10
0.0116387
4.19466e-08
2.34054e-10
0.0113878
1.26366e-08
2.60574e-11
0.011277
3.12308e-08
-1.31875e-11
0.0112275
2.17647e-07
-2.94452e-11
0.0111998
4.80417e-07
-3.11825e-11
0.0111799
1.28269e-06
-3.23355e-11
0.0111539
3.82199e-06
-3.23852e-11
0.0110963
1.13918e-05
-2.12903e-11
0.0109507
3.38293e-05
1.46972e-11
0.0106108
0.000104078
5.62972e-11
0.00969482
0.000384684
1.84057e-10
0.00695627
0.00131469
-3.94338e-10
0.0135336
-1.11503e-09
0.016795
4.85096e-10
1.38095e-07
0.0168983
9.37717e-10
2.47086e-07
0.0175557
-2.00033e-10
1.56957e-07
0.018134
-5.901e-10
2.5383e-07
0.018546
6.57871e-10
1.83692e-07
0.0191838
-1.94803e-09
-3.83644e-07
0.0197016
-1.18718e-09
-3.8812e-07
0.0192037
-9.77744e-10
-1.27117e-07
0.0177095
1.24034e-10
3.49313e-07
0.0148721
2.24834e-09
7.40481e-07
0.0131317
1.33006e-09
4.84355e-07
0.0121551
5.55891e-10
2.47884e-07
0.0116387
2.52819e-10
1.23387e-07
0.0113878
3.63912e-11
4.49607e-08
0.0112767
-9.35298e-12
2.97591e-08
0.0112282
-2.90566e-11
5.36553e-07
0.0112016
-3.14359e-11
1.07349e-06
0.0111831
-3.39755e-11
2.65668e-06
0.0111605
-3.882e-11
7.60525e-06
0.0111112
-3.81576e-11
2.17262e-05
0.0109826
-3.26523e-11
6.2758e-05
0.0106986
-3.63443e-11
0.000181984
0.00985941
-6.50023e-11
0.000613223
0.00778906
-5.00237e-10
0.00202615
-6.75215e-10
0.0189302
0.0167972
-6.35374e-08
3.21154e-11
0.0168948
-1.61526e-07
1.72683e-10
0.0175567
-2.56755e-07
3.5931e-10
0.0181281
-2.73376e-07
8.43187e-10
0.0185493
-9.85344e-08
9.80042e-10
0.0191984
1.86701e-07
8.76989e-10
0.0197164
3.03549e-07
8.37955e-10
0.0192115
1.64138e-07
8.28695e-10
0.0177101
-1.204e-07
7.96216e-10
0.0148692
-2.81627e-07
8.03588e-10
0.0131294
-2.40617e-07
5.23138e-10
0.0121537
-1.39796e-07
2.71975e-10
0.0116378
-6.60915e-08
1.40852e-10
0.0113873
-2.83245e-08
4.84406e-11
0.011277
-1.14863e-08
1.73977e-11
0.011227
-4.31302e-09
7.23998e-12
0.0111986
-1.29713e-09
5.95796e-12
0.0111776
-2.91487e-10
3.84605e-12
0.0111476
-5.92693e-11
1.36585e-12
0.0110779
6.50128e-11
-5.90944e-13
0.0108969
6.04735e-10
-1.97395e-12
0.0104714
4.21811e-09
-2.41346e-12
0.00925337
2.80225e-08
-2.50218e-12
0.00533339
2.04514e-07
-3.71325e-12
2.27652e-06
-1.49706e-11
0.0167972
-1.41687e-07
7.16771e-11
0.0168948
-2.72747e-07
2.11437e-10
0.0175558
-1.93588e-07
1.93204e-10
0.0181273
-3.34342e-07
3.68043e-10
0.0185484
-2.0072e-07
3.40043e-10
0.0191974
3.8518e-07
1.99122e-10
0.0197154
4.1181e-07
1.88905e-10
0.0192106
1.66512e-07
2.04415e-10
0.0177093
-3.06285e-07
2.5974e-10
0.0148687
-7.0055e-07
4.44248e-10
0.0131291
-4.67904e-07
3.04663e-10
0.0121535
-2.42452e-07
1.45871e-10
0.0116377
-1.13733e-07
6.90134e-11
0.0113872
-4.47663e-08
1.80727e-11
0.0112769
-1.87713e-08
6.36115e-12
0.011227
-7.76245e-09
2.6252e-12
0.0111986
-3.25858e-09
2.17737e-12
0.0111776
-1.19432e-09
1.41282e-12
0.0111476
-1.93031e-10
5.08361e-13
0.0110779
8.92112e-10
-2.30727e-13
0.0108969
4.56249e-09
-8.13536e-13
0.0104714
2.49256e-08
-1.13773e-12
0.00925345
1.51457e-07
-1.5517e-12
0.00533378
1.03963e-06
-3.50962e-12
1.13447e-05
-1.46439e-11
0.0167949
3.71437e-08
5.55387e-10
0.0168979
6.17977e-08
8.86864e-10
0.0175558
-5.24503e-08
-4.89434e-10
0.0181333
-1.06715e-07
-8.61458e-10
0.0185454
2.92349e-08
1.77182e-10
0.0191831
-1.8109e-07
-2.71376e-09
0.0197006
-8.60199e-08
-1.84856e-09
0.0192027
-5.27536e-08
-1.57301e-09
0.0177087
6.47704e-08
-2.78672e-10
0.0148713
2.41775e-07
2.09968e-09
0.0131311
1.2862e-07
1.1401e-09
0.0121548
5.34532e-08
4.44291e-10
0.0116385
2.47852e-08
2.00984e-10
0.0113876
6.96287e-09
3.52533e-11
0.0112771
3.19604e-09
1.49111e-11
0.0112271
1.55655e-09
7.16864e-12
0.0111987
1.0841e-09
5.87005e-12
0.0111776
9.47075e-10
3.55822e-12
0.0111476
1.40392e-09
1.26108e-12
0.0110779
5.76445e-09
4.86314e-15
0.0108969
2.43715e-08
-1.60416e-12
0.0104715
1.25084e-07
-2.14053e-12
0.0092539
7.27571e-07
-2.12021e-12
0.00533579
4.67966e-06
-3.0911e-12
5.01451e-05
-1.29182e-11
0.0167971
-3.71651e-08
5.97736e-11
0.0168948
-6.10402e-08
9.81089e-11
0.0175555
5.93856e-08
-5.33925e-11
0.0181271
1.21085e-07
-2.06459e-10
0.0185479
1.60997e-08
-2.08254e-10
0.0191967
2.43116e-07
-2.77525e-10
0.0197146
1.51125e-07
-2.48789e-10
0.0192099
1.21459e-07
-2.38114e-10
0.0177086
1.31473e-08
-1.82173e-10
0.0148683
-1.63969e-07
-5.44805e-11
0.0131289
-8.1651e-08
-1.51122e-11
0.0121534
-2.8593e-08
-1.76049e-11
0.0116376
-1.22736e-08
-1.4207e-11
0.0113872
-1.42786e-09
-1.07545e-11
0.0112769
-6.91157e-10
-3.93457e-12
0.011227
-2.23042e-10
-1.78526e-12
0.0111986
8.31244e-11
-1.48965e-12
0.0111776
1.42805e-09
-9.93728e-13
0.0111476
6.29038e-09
-4.06025e-13
0.0110779
2.87635e-08
1.92195e-14
0.010897
1.1666e-07
2.75055e-13
0.0104721
5.62715e-07
1.88546e-13
0.00925584
3.10101e-06
-4.12323e-13
0.00534423
1.86229e-05
-2.99557e-12
0.000194833
-1.39639e-11
0.0167949
1.42203e-07
4.98342e-10
0.0168979
2.77208e-07
7.69445e-10
0.0175559
2.09541e-07
-5.1984e-10
0.0181333
3.89088e-07
-8.75341e-10
0.0185453
2.91443e-07
2.69446e-10
0.019183
-2.13647e-07
-2.45478e-09
0.0197005
-2.35068e-07
-1.58885e-09
0.0192026
-2.38671e-08
-1.33205e-09
0.0177086
4.52347e-07
-1.42645e-10
0.0148712
8.12236e-07
2.01317e-09
0.013131
5.3431e-07
1.05505e-09
0.0121548
2.78489e-07
4.06935e-10
0.0116385
1.32065e-07
1.84537e-10
0.0113876
5.32146e-08
3.45366e-11
0.0112771
2.24992e-08
1.37031e-11
0.0112271
1.01702e-08
6.67366e-12
0.0111987
6.28981e-09
5.50669e-12
0.0111776
1.0066e-08
3.3833e-12
0.0111477
3.20735e-08
1.24157e-12
0.0110781
1.311e-07
7.04594e-14
0.0108977
4.98622e-07
-1.46123e-12
0.0104742
2.24412e-06
-2.04429e-12
0.00926365
1.1652e-05
-2.13368e-12
0.00537754
6.45022e-05
-3.54498e-12
0.000661815
-1.44427e-11
0.0167972
6.73744e-08
-3.61232e-10
0.0168948
1.84159e-07
-4.8853e-10
0.0175557
3.35077e-07
7.81698e-10
0.018127
4.51708e-07
1.70796e-09
0.018548
3.7287e-07
4.76188e-10
0.019197
1.27319e-07
2.72837e-09
0.0197149
3.24738e-08
1.93104e-09
0.0192101
1.63917e-07
1.74094e-09
0.0177088
4.13063e-07
7.13928e-10
0.0148684
5.08129e-07
-1.03326e-09
0.0131289
3.87916e-07
-4.80465e-10
0.0121534
2.23221e-07
-1.34816e-10
0.0116376
1.09045e-07
-5.23158e-11
0.0113872
4.82842e-08
6.66379e-12
0.0112769
2.07297e-08
-5.03532e-13
0.011227
1.22218e-08
-1.28301e-12
0.0111987
1.38419e-08
-1.07919e-12
0.0111776
3.89157e-08
-5.7492e-13
0.0111478
1.33584e-07
-3.54261e-13
0.0110787
5.10366e-07
-6.98075e-13
0.0109
1.83752e-06
-3.22759e-13
0.0104816
7.65747e-06
1.45647e-13
0.00928904
3.74644e-05
-9.44688e-13
0.005483
0.000188908
-3.86004e-12
0.00189522
-1.69243e-11
0.0167971
1.54652e-08
-3.25613e-11
0.0168947
7.08984e-08
-3.47304e-11
0.0175566
1.87438e-07
1.19873e-10
0.0181276
3.5041e-07
4.25048e-10
0.0185488
4.20458e-07
5.68397e-10
0.0191979
4.29778e-07
5.1278e-10
0.0197158
4.38675e-07
4.91662e-10
0.0192109
4.33215e-07
4.75505e-10
0.0177096
4.04962e-07
4.98596e-10
0.0148688
3.41114e-07
2.61004e-10
0.0131292
2.25853e-07
1.69329e-10
0.0121535
1.27663e-07
8.91215e-11
0.0116377
6.58077e-08
5.83777e-11
0.0113872
2.81756e-08
3.14809e-11
0.0112769
1.38004e-08
1.05074e-11
0.011227
2.39455e-08
4.58123e-12
0.0111987
5.03246e-08
3.75426e-12
0.0111778
1.51276e-07
2.39327e-12
0.0111484
4.96953e-07
7.95043e-13
0.0110809
1.72158e-06
-4.41855e-13
0.0109073
5.77823e-06
-1.28192e-12
0.0105023
2.19363e-05
-1.56707e-12
0.00935968
9.83718e-05
-2.04839e-12
0.00577238
0.000439787
-4.36019e-12
0.00443062
-1.79164e-11
0.0167971
3.69481e-09
-2.49349e-11
0.0168945
2.30621e-08
-9.19308e-11
0.0175561
7.85544e-08
-1.7157e-10
0.0181269
1.76693e-07
-3.61129e-10
0.0185483
2.56216e-07
-3.17872e-10
0.0191974
3.00821e-07
-2.16545e-10
0.0197155
3.28447e-07
-1.8891e-10
0.0192107
3.26391e-07
-1.97514e-10
0.017709
2.86682e-07
-2.26561e-10
0.0148681
2.13154e-07
-3.47761e-10
0.0131287
1.37109e-07
-2.4504e-10
0.0121532
7.75826e-08
-1.31932e-10
0.0116376
4.2068e-08
-7.09436e-11
0.0113872
1.59545e-08
-2.73076e-11
0.0112769
1.01961e-08
-1.16541e-11
0.0112271
8.01454e-08
-4.68927e-12
0.011199
1.736e-07
-3.87345e-12
0.0111783
4.93381e-07
-2.58934e-12
0.01115
1.54455e-06
-9.32611e-13
0.0110864
4.87981e-06
1.58599e-13
0.0109248
1.53356e-05
8.85059e-13
0.0105449
5.13434e-05
7.76516e-13
0.0095028
0.000211195
-1.31855e-13
0.0063316
0.000806796
-3.40568e-12
0.00837335
-1.53942e-11
0.0167971
4.55004e-10
-6.11076e-12
0.0168945
4.01131e-09
-4.26848e-11
0.017556
1.53417e-08
-9.77945e-11
0.0181267
4.21691e-08
-2.28089e-10
0.0185481
6.85132e-08
-2.4766e-10
0.0191973
8.46237e-08
-1.92483e-10
0.0197153
9.30192e-08
-1.3244e-10
0.0192106
9.32026e-08
-1.5664e-10
0.017709
8.27768e-08
-1.27928e-10
0.014868
6.12794e-08
-8.45593e-11
0.0131287
3.70374e-08
-5.79028e-11
0.0121532
1.90978e-08
-2.83929e-11
0.0116376
1.3739e-08
-1.24966e-11
0.0113872
-1.24739e-09
-2.71284e-12
0.0112767
2.48133e-08
-6.55578e-13
0.0112274
2.14532e-07
-1.76972e-13
0.0111998
4.78438e-07
-1.88591e-13
0.0111799
1.28072e-06
-2.10721e-13
0.0111539
3.81799e-06
-1.73595e-13
0.0110963
1.13817e-05
-1.47118e-13
0.0109508
3.38002e-05
-1.08802e-13
0.0106109
0.000104019
-1.5933e-13
0.00969473
0.000384475
-7.42087e-13
0.0069575
0.00131531
-2.75992e-12
0.0135332
-9.05202e-12
0.0167971
-2.80106e-11
-4.0231e-10
0.0168945
-1.19066e-10
-3.70785e-09
0.017556
-2.17383e-10
-1.45189e-08
0.0181265
-5.22203e-10
-3.85e-08
0.0185479
-5.51116e-10
-6.03832e-08
0.019197
-3.15691e-10
-7.27159e-08
0.0197151
-4.40476e-10
-7.87496e-08
0.0192104
-4.72213e-10
-7.76819e-08
0.0177088
-3.73684e-10
-6.74811e-08
0.0148679
-4.56986e-10
-4.8957e-08
0.0131286
-3.13993e-10
-2.85558e-08
0.0121532
-1.66664e-10
-1.70422e-08
0.0116375
-8.93736e-11
-2.19571e-09
0.0113872
-3.48455e-11
-4.50311e-09
0.0112765
-1.50881e-11
8.07734e-09
0.0112281
-5.23368e-12
5.2692e-07
0.0112016
-4.27546e-12
1.0686e-06
0.0111831
-2.9048e-12
2.65366e-06
0.0111606
-1.0523e-12
7.60236e-06
0.0111112
6.45235e-14
2.17207e-05
0.0109826
1.07149e-12
6.27425e-05
0.0106984
8.21782e-13
0.000181948
0.00985922
-2.2156e-13
0.000613133
0.00778868
-2.28658e-12
0.00202623
-6.28622e-12
0.0189295
0.0167971
-5.13817e-10
1.16838e-14
0.0168944
-4.80201e-09
2.59912e-12
0.017556
-1.83419e-08
7.26088e-12
0.0181265
-5.14252e-08
2.34505e-11
0.0185478
-8.50616e-08
5.66292e-11
0.019197
-1.05782e-07
7.66299e-11
0.019715
-1.17247e-07
8.26193e-11
0.0192103
-1.18192e-07
8.33168e-11
0.0177087
-1.04982e-07
8.08444e-11
0.0148678
-7.70155e-08
7.057e-11
0.0131285
-4.64791e-08
3.90884e-11
0.0121531
-2.54236e-08
1.9329e-11
0.0116375
-1.29509e-08
1.01188e-11
0.0113871
-5.94887e-09
4.19818e-12
0.0112769
-2.54599e-09
1.60917e-12
0.011227
-1.11099e-09
6.21835e-13
0.0111986
-5.66178e-10
5.54836e-13
0.0111776
-2.84872e-10
4.4627e-13
0.0111476
-8.3466e-11
1.47572e-13
0.0110779
1.56161e-10
-4.12242e-14
0.0108969
8.28561e-10
-1.40046e-13
0.0104714
4.49747e-09
-7.58827e-14
0.00925337
2.82798e-08
3.55765e-13
0.00533339
2.04536e-07
2.04786e-12
2.27482e-06
1.10687e-11
0.0167971
-3.70122e-09
3.52611e-13
0.0168945
-2.2291e-08
1.03317e-11
0.017556
-7.42259e-08
2.90973e-11
0.0181266
-1.63124e-07
7.23154e-11
0.018548
-2.29916e-07
1.84783e-10
0.0191972
-2.63752e-07
2.3257e-10
0.0197152
-2.84037e-07
2.40965e-10
0.0192105
-2.79176e-07
2.32027e-10
0.0177089
-2.42792e-07
1.85291e-10
0.014868
-1.80183e-07
1.30323e-10
0.0131286
-1.16199e-07
7.58099e-11
0.0121532
-6.64234e-08
5.06911e-11
0.0116375
-3.42022e-08
2.84513e-11
0.0113872
-1.60696e-08
1.14131e-11
0.0112769
-7.05086e-09
4.41702e-12
0.011227
-2.97982e-09
1.74059e-12
0.0111986
-1.26733e-09
1.43118e-12
0.0111776
-5.25754e-10
9.31687e-13
0.0111476
-4.64219e-11
3.5153e-13
0.0110779
9.5933e-10
-1.13997e-13
0.0108969
4.60497e-09
-3.43847e-13
0.0104714
2.49241e-08
-3.51199e-13
0.00925345
1.51569e-07
1.33077e-13
0.00533378
1.03968e-06
1.8098e-12
1.13422e-05
8.07995e-12
0.0167971
-1.44422e-08
3.74509e-12
0.0168945
-6.43725e-08
2.99344e-11
0.0175561
-1.65263e-07
7.13847e-11
0.0181268
-2.96934e-07
1.59856e-10
0.0185482
-3.3215e-07
2.61632e-10
0.0191973
-3.20856e-07
2.40292e-10
0.0197153
-3.17657e-07
2.3677e-10
0.0192105
-3.09806e-07
2.30176e-10
0.0177089
-2.92687e-07
2.42019e-10
0.014868
-2.57813e-07
1.62888e-10
0.0131287
-1.73845e-07
9.81665e-11
0.0121532
-9.90758e-08
4.91283e-11
0.0116376
-5.0608e-08
2.10724e-11
0.0113872
-2.26438e-08
1.06264e-11
0.0112769
-9.52523e-09
3.86797e-12
0.011227
-4.03681e-09
1.52272e-12
0.0111986
-1.85965e-09
1.15279e-12
0.0111776
-5.48962e-10
7.47516e-13
0.0111476
9.27616e-10
2.92989e-13
0.0110779
5.71345e-09
-7.28887e-14
0.0108969
2.46467e-08
-3.13415e-13
0.0104715
1.25532e-07
-3.45868e-13
0.0092539
7.27871e-07
-1.76533e-13
0.00533579
4.67961e-06
7.06151e-13
5.01427e-05
2.47625e-12
0.0167971
-6.17898e-08
2.32754e-11
0.0168947
-1.56165e-07
1.38306e-10
0.0175565
-2.49584e-07
2.75333e-10
0.0181273
-2.74808e-07
5.91822e-10
0.0185484
-1.24291e-07
5.18339e-10
0.0191974
1.56553e-07
3.26954e-10
0.0197153
2.57047e-07
2.79177e-10
0.0192104
1.14987e-07
2.89158e-10
0.0177091
-1.63438e-07
3.27933e-10
0.0148685
-3.12682e-07
4.63553e-10
0.013129
-2.59522e-07
3.20062e-10
0.0121534
-1.50308e-07
1.66427e-10
0.0116377
-7.19615e-08
8.50033e-11
0.0113872
-3.12592e-08
2.93036e-11
0.0112769
-1.28632e-08
1.05948e-11
0.011227
-4.84107e-09
4.44892e-12
0.0111986
-1.26033e-09
3.67057e-12
0.0111776
1.1699e-09
2.38551e-12
0.0111476
6.22712e-09
8.81755e-13
0.0110779
2.8644e-08
-2.72328e-13
0.010897
1.16345e-07
-1.08699e-12
0.0104721
5.62269e-07
-1.26692e-12
0.00925583
3.10068e-06
-8.78012e-13
0.00534423
1.86227e-05
4.52067e-13
0.000194832
2.13605e-12
0.0167972
-1.26764e-07
6.26329e-11
0.0168947
-2.196e-07
1.60314e-10
0.0175557
-9.57809e-08
1.29256e-10
0.0181268
-9.62157e-08
2.01741e-10
0.0185477
-4.03468e-08
1.21586e-10
0.0191967
5.82264e-07
-2.10701e-11
0.0197145
5.79042e-07
-3.17141e-11
0.0192099
3.21243e-07
-1.60639e-11
0.0177086
-1.66472e-07
3.76422e-11
0.0148682
-5.54612e-07
2.47322e-10
0.0131288
-3.67556e-07
1.638e-10
0.0121533
-1.85557e-07
7.2155e-11
0.0116376
-8.4543e-08
4.22943e-11
0.0113872
-3.23799e-08
1.23313e-11
0.0112769
-1.36447e-08
4.32887e-12
0.011227
-4.85702e-09
1.81654e-12
0.0111986
5.10978e-10
1.43811e-12
0.0111776
7.85309e-09
7.82536e-13
0.0111477
3.12206e-08
2.84194e-13
0.0110781
1.30815e-07
-8.75916e-14
0.0108977
4.98658e-07
-3.55458e-13
0.0104743
2.24441e-06
-3.794e-13
0.00926365
1.1652e-05
6.42746e-14
0.00537754
6.4502e-05
1.39738e-12
0.000661815
6.04651e-12
0.0167948
1.26819e-07
5.26793e-10
0.0168976
2.18939e-07
8.11302e-10
0.0175552
9.10232e-08
-8.08334e-10
0.0181322
8.09652e-08
-1.30778e-09
0.0185445
-8.38571e-09
-1.99921e-10
0.0191824
-6.49843e-07
-2.90001e-09
0.0197001
-6.55478e-07
-1.9459e-09
0.0192022
-4.09534e-07
-1.68731e-09
0.0177077
9.50398e-08
-4.56695e-10
0.0148702
4.96232e-07
1.70677e-09
0.0131304
3.33437e-07
8.61869e-10
0.0121544
1.67076e-07
2.97296e-10
0.0116383
7.53213e-08
1.2276e-10
0.0113875
2.77429e-08
1.16496e-11
0.0112771
1.21088e-08
7.03586e-12
0.011227
8.7111e-09
4.00241e-12
0.0111987
1.26278e-08
3.29417e-12
0.0111777
3.84919e-08
1.87639e-12
0.0111478
1.33413e-07
7.97878e-13
0.0110787
5.10252e-07
4.55067e-13
0.0109
1.83739e-06
-4.74039e-13
0.0104816
7.65725e-06
-1.2197e-12
0.00928904
3.74643e-05
-3.25587e-13
0.00548299
0.000188908
1.25353e-12
0.00189522
7.26033e-12
0.0167972
6.12622e-08
8.02154e-11
0.0168947
1.51037e-07
1.53306e-10
0.0175557
2.30077e-07
1.36445e-10
0.0181268
2.24288e-07
2.56291e-10
0.0185478
3.09342e-08
1.94769e-10
0.0191967
-2.50888e-07
1.33932e-11
0.0197146
-3.77175e-07
1.06496e-11
0.0192099
-2.43207e-07
2.5285e-11
0.0177087
5.72389e-08
7.24541e-11
0.0148682
2.31747e-07
3.16397e-10
0.0131288
2.0695e-07
2.35557e-10
0.0121533
1.2108e-07
1.12281e-10
0.0116376
5.75431e-08
5.25707e-11
0.0113872
2.32941e-08
1.48058e-11
0.0112769
1.13229e-08
5.2142e-12
0.011227
2.30276e-08
2.13404e-12
0.0111987
4.90361e-08
1.73678e-12
0.0111778
1.50239e-07
1.08568e-12
0.0111484
4.96536e-07
3.74578e-13
0.0110809
1.72173e-06
-1.42376e-13
0.0109073
5.77878e-06
-4.92595e-13
0.0105023
2.1937e-05
-5.31472e-13
0.00935968
9.83725e-05
-2.23978e-13
0.00577237
0.000439787
8.1975e-13
0.00443062
6.13245e-12
0.0167971
1.09101e-08
3.58984e-11
0.0168947
3.98124e-08
1.53165e-10
0.0175566
7.99825e-08
3.09317e-10
0.0181276
1.15548e-07
6.91348e-10
0.0185488
8.63624e-08
7.10417e-10
0.0191978
4.21785e-08
5.90196e-10
0.0197158
1.16487e-08
5.66877e-10
0.019211
7.29775e-09
5.76583e-10
0.0177096
3.04893e-08
5.95522e-10
0.0148688
6.30596e-08
6.79436e-10
0.0131292
4.92264e-08
4.32049e-10
0.0121535
2.70393e-08
2.20075e-10
0.0116377
1.62301e-08
1.12573e-10
0.0113872
1.48112e-09
4.166e-11
0.0112769
4.04266e-09
1.56628e-11
0.0112271
7.78974e-08
6.31756e-12
0.011199
1.72969e-07
5.12238e-12
0.0111783
4.93186e-07
3.37501e-12
0.01115
1.54435e-06
1.15136e-12
0.0110864
4.87954e-06
-4.65849e-13
0.0109248
1.53353e-05
-1.55563e-12
0.0105449
5.13431e-05
-1.5849e-12
0.0095028
0.000211194
-1.11596e-12
0.0063316
0.000806796
1.53688e-13
0.00837335
3.12393e-12
0.0167971
-1.09077e-08
5.16169e-12
0.0168946
-3.97792e-08
5.42645e-11
0.0175563
-7.98471e-08
1.29919e-10
0.0181272
-1.15171e-07
3.87602e-10
0.0185485
-8.57295e-08
4.72234e-10
0.0191977
-4.13186e-08
4.9151e-10
0.0197157
-1.05072e-08
4.95859e-10
0.0192108
-6.58915e-09
4.80743e-10
0.0177092
-2.95987e-08
4.3171e-10
0.0148682
-6.25788e-08
3.36902e-10
0.0131288
-4.84051e-08
1.97762e-10
0.0121533
-2.86418e-08
9.45817e-11
0.0116376
-8.42784e-09
4.34155e-11
0.0113872
-1.26951e-08
1.55997e-11
0.0112767
1.99007e-08
5.93478e-12
0.0112274
2.13028e-07
2.23538e-12
0.0111998
4.77478e-07
1.84812e-12
0.0111799
1.28015e-06
1.27091e-12
0.0111539
3.81783e-06
5.5834e-13
0.0110963
1.13818e-05
-8.94078e-14
0.0109508
3.38004e-05
-5.16939e-13
0.0106109
0.000104019
-6.78462e-13
0.00969473
0.000384475
-3.76025e-13
0.0069575
0.00131531
1.25581e-13
0.0135332
1.31617e-12
0.0167971
3.56156e-11
-6.12516e-08
0.0168947
1.42376e-10
-1.5094e-07
0.0175566
2.5015e-10
-2.2984e-07
0.0181276
6.64412e-10
-2.23851e-07
0.0185488
6.79842e-10
-3.04138e-08
0.0191978
6.11777e-10
2.51553e-07
0.0197158
5.97699e-10
3.77957e-07
0.019211
5.98379e-10
2.43967e-07
0.0177096
5.96786e-10
-5.67257e-08
0.0148688
6.56026e-10
-2.3146e-07
0.0131292
4.23324e-10
-2.06243e-07
0.0121535
2.16978e-10
-1.22361e-07
0.0116377
1.12245e-10
-5.18946e-08
0.0113873
4.2175e-11
-2.65145e-08
0.0112765
1.66202e-11
-1.54823e-09
0.0112281
6.23543e-12
5.23417e-07
0.0112016
5.02085e-12
1.0679e-06
0.0111831
3.28849e-12
2.65374e-06
0.0111605
1.12855e-12
7.60241e-06
0.0111112
-2.95063e-13
2.17206e-05
0.0109826
-1.47493e-12
6.27421e-05
0.0106984
-1.31207e-12
0.000181948
0.00985922
-6.78917e-13
0.000613133
0.00778868
2.2683e-13
0.00202624
5.77533e-13
0.0189295
0.0167971
6.53004e-11
2.35911e-11
0.0168944
-8.78478e-11
4.02743e-10
0.017556
-3.39634e-10
-1.44163e-10
0.0181264
-5.48871e-10
-3.2896e-10
0.0185477
-4.9268e-10
-4.30714e-10
0.0191968
-2.43565e-10
-2.20865e-10
0.0197148
-1.31838e-11
6.40475e-11
0.0192101
2.08043e-10
5.40306e-11
0.0177085
4.46751e-10
1.1283e-10
0.0148677
4.15289e-10
1.24209e-10
0.0131285
2.60558e-10
4.1547e-11
0.0121531
1.2925e-10
-1.91331e-11
0.0116375
5.43944e-11
-3.94795e-11
0.0113871
2.0811e-11
-2.04016e-11
0.0112769
7.35354e-12
-9.57526e-12
0.011227
1.86975e-12
-5.48133e-12
0.0111986
9.31063e-13
-4.91875e-12
0.0111776
5.76877e-12
-3.88381e-12
0.0111476
2.97168e-11
-2.59353e-12
0.0110779
1.6194e-10
-1.53663e-12
0.0108969
7.81785e-10
7.70931e-13
0.0104714
4.43428e-09
1.16918e-11
0.00925337
2.82262e-08
8.06693e-11
0.00533339
2.04508e-07
3.50558e-10
2.27518e-06
2.40345e-09
0.0167971
-5.05514e-12
1.52452e-11
0.0168944
-1.41991e-10
3.75586e-10
0.017556
-2.56325e-10
-1.24458e-10
0.0181264
-3.86291e-10
-2.51731e-10
0.0185477
-3.91229e-10
-3.3617e-10
0.0191968
-3.25716e-10
-1.99581e-10
0.0197148
-2.38846e-10
4.23235e-11
0.0192101
-1.45359e-10
1.4435e-11
0.0177085
-1.00531e-10
5.79282e-11
0.0148677
-8.35228e-11
3.51281e-11
0.0131285
-5.76716e-11
-1.07774e-11
0.0121531
-3.45986e-11
-4.02555e-11
0.0116375
-2.03463e-11
-5.00524e-11
0.0113871
-1.09884e-11
-2.46558e-11
0.0112769
-5.73234e-12
-1.13412e-11
0.011227
7.90448e-14
-6.43885e-12
0.0111986
7.69126e-12
-5.77893e-12
0.0111776
4.47072e-11
-4.57406e-12
0.0111476
1.96569e-10
-3.00474e-12
0.0110779
1.01187e-09
-2.00969e-12
0.0108969
4.56339e-09
-5.59557e-13
0.0104714
2.48274e-08
4.59511e-12
0.00925345
1.51423e-07
4.07305e-11
0.00533378
1.03946e-06
2.41842e-10
1.13422e-05
1.48865e-09
0.0167971
-1.61272e-11
3.1406e-11
0.0168944
-9.64937e-11
1.00129e-10
0.017556
-2.84192e-10
1.0704e-10
0.0181264
-5.7432e-10
5.27875e-11
0.0185477
-6.92716e-10
-1.69129e-10
0.0191968
-6.76386e-10
-2.74164e-10
0.0197148
-6.4801e-10
-2.80837e-10
0.0192101
-5.61525e-10
-2.64666e-10
0.0177085
-4.07821e-10
-2.09073e-10
0.0148677
-2.43303e-10
-9.51845e-11
0.0131285
-1.61177e-10
-1.01863e-10
0.0121531
-1.00012e-10
-9.14969e-11
0.0116375
-5.57882e-11
-6.92318e-11
0.0113871
-2.79418e-11
-3.65157e-11
0.0112769
-1.091e-11
-1.62869e-11
0.011227
1.86315e-11
-9.23532e-12
0.0111986
6.6605e-11
-8.39865e-12
0.0111776
2.96214e-10
-6.93046e-12
0.0111476
1.20304e-09
-6.64968e-12
0.0110779
5.73904e-09
-7.73648e-12
0.0108969
2.45234e-08
-2.88222e-11
0.0104715
1.25349e-07
-1.11149e-10
0.0092539
7.27709e-07
-8.26052e-10
0.00533579
4.67952e-06
-7.10947e-10
5.01423e-05
1.6792e-09
0.0167971
-3.55467e-11
3.059e-11
0.0168944
-1.12334e-10
9.81774e-11
0.017556
-3.70413e-10
1.17351e-10
0.0181264
-5.815e-10
8.9051e-11
0.0185477
-5.81024e-10
-1.43332e-10
0.0191968
-3.98967e-10
-2.52628e-10
0.0197148
-2.02059e-10
-2.7449e-10
0.0192101
-2.90033e-11
-2.54441e-10
0.0177085
6.4374e-11
-2.07314e-10
0.0148677
4.67747e-11
-1.02692e-10
0.0131285
-1.30327e-11
-1.08734e-10
0.0121531
-2.77026e-11
-9.149e-11
0.0116375
-1.97266e-11
-7.07745e-11
0.0113871
-1.77193e-11
-3.75354e-11
0.0112769
5.22163e-12
-1.66613e-11
0.011227
1.40821e-10
-9.38785e-12
0.0111986
4.07955e-10
-8.54713e-12
0.0111776
1.65642e-09
-7.0252e-12
0.0111476
6.40545e-09
-6.69137e-12
0.011078
2.87732e-08
-7.61386e-12
0.010897
1.16529e-07
-2.9355e-11
0.0104721
5.62473e-07
-1.11055e-10
0.00925584
3.1009e-06
-8.2866e-10
0.00534423
1.86229e-05
-6.94712e-10
0.000194831
1.50628e-09
0.0167971
-1.00618e-10