/*--------------------------------*- C++ -*----------------------------------*\
| =========                 |                                                 |
| \\      /  F ield         | OpenFOAM: The Open Source CFD Toolbox           |
|  \\    /   O peration     | Version:  4.1                                   |
|   \\  /    A nd           | Web:      www.OpenFOAM.org                      |
|    \\/     M anipulation  |                                                 |
\*---------------------------------------------------------------------------*/
FoamFile
{
    version     2.0;
    format      ascii;
    class       volScalarField;
    location    "0.38";
    object      Ma;
}
// * * * * * * * * * * * * * * * * * * * * * * * * * * * * * * * * * * * * * //

dimensions      [0 0 0 0 0 0 0];

internalField   nonuniform List<scalar> 
18000
(
5.60128e-12
5.53707e-12
5.46258e-12
5.39979e-12
5.33777e-12
5.27658e-12
5.21615e-12
5.15672e-12
5.09814e-12
5.04113e-12
7.03328e-12
6.78132e-12
6.52964e-12
6.29782e-12
6.07598e-12
5.86366e-12
5.66021e-12
5.46545e-12
5.27857e-12
5.10191e-12
8.94416e-12
8.38909e-12
7.86545e-12
7.38747e-12
6.94435e-12
6.53334e-12
6.15203e-12
5.79752e-12
5.46779e-12
5.1637e-12
1.15328e-11
1.04902e-11
9.55246e-12
8.7172e-12
7.97005e-12
7.29993e-12
6.69745e-12
6.1548e-12
5.6652e-12
5.22664e-12
1.50983e-11
1.32722e-11
1.17023e-11
1.03519e-11
9.18767e-12
8.17952e-12
7.30348e-12
6.53986e-12
5.87159e-12
5.29089e-12
2.00991e-11
1.70084e-11
1.44725e-11
1.23768e-11
1.06404e-11
9.19241e-12
7.97832e-12
6.95495e-12
6.08739e-12
5.35595e-12
2.72525e-11
2.21067e-11
1.80824e-11
1.49061e-11
1.23839e-11
1.03631e-11
8.73101e-12
7.40265e-12
6.31335e-12
5.42215e-12
3.77216e-11
2.91768e-11
2.28477e-11
1.80978e-11
1.44967e-11
1.17327e-11
9.58689e-12
7.90345e-12
6.56915e-12
5.51241e-12
2.74529e-09
2.67222e-09
2.50434e-09
2.35495e-09
2.22169e-09
2.10222e-09
1.99457e-09
1.89715e-09
1.80864e-09
1.74784e-09
2.9319e-07
3.73626e-08
3.17505e-08
2.74138e-08
2.38167e-08
2.08059e-08
1.82661e-08
1.61097e-08
1.42202e-08
4.73743e-08
5.7928e-12
5.72373e-12
5.64795e-12
5.58096e-12
5.51519e-12
5.45071e-12
5.38664e-12
5.3241e-12
5.26247e-12
5.20219e-12
7.30686e-12
7.03693e-12
6.77734e-12
6.53057e-12
6.29529e-12
6.07027e-12
5.85546e-12
5.65006e-12
5.45369e-12
5.26667e-12
9.32928e-12
8.73568e-12
8.19298e-12
7.68407e-12
7.21391e-12
6.77885e-12
6.37608e-12
6.00235e-12
5.6554e-12
5.33308e-12
1.20892e-11
1.09745e-11
9.99393e-12
9.10187e-12
8.30646e-12
7.59512e-12
6.9575e-12
6.38485e-12
5.86854e-12
5.40112e-12
1.59217e-11
1.39654e-11
1.23074e-11
1.08572e-11
9.61233e-12
8.53834e-12
7.60803e-12
6.79966e-12
6.09383e-12
5.47166e-12
2.13504e-11
1.80212e-11
1.53139e-11
1.30483e-11
1.11814e-11
9.63169e-12
8.3377e-12
7.25099e-12
6.33246e-12
5.54428e-12
2.92048e-11
2.36202e-11
1.92697e-11
1.58082e-11
1.30789e-11
1.09046e-11
9.15735e-12
7.74193e-12
6.58439e-12
5.61934e-12
4.08652e-11
3.149e-11
2.45474e-11
1.93192e-11
1.53897e-11
1.23937e-11
1.00821e-11
8.27735e-12
6.85192e-12
5.69733e-12
7.52675e-11
1.24966e-10
1.0092e-10
8.24095e-11
6.81854e-11
5.70715e-11
4.82622e-11
4.11899e-11
3.54481e-11
3.07726e-11
1.88265e-07
3.01836e-08
2.61754e-08
2.28758e-08
2.01589e-08
1.7897e-08
1.59948e-08
1.43808e-08
1.30017e-08
1.21088e-08
4.3318e-13
4.09568e-13
2.5484e-13
2.37882e-13
2.22343e-13
2.08441e-13
1.96329e-13
1.86132e-13
1.77575e-13
1.67105e-13
5.99022e-13
5.27811e-13
4.57419e-13
4.07576e-13
3.62585e-13
3.22515e-13
2.87426e-13
2.57695e-13
2.33451e-13
1.84886e-13
7.11328e-13
6.03074e-13
6.1556e-13
5.41829e-13
4.77129e-13
4.21723e-13
3.75173e-13
3.36512e-13
3.03865e-13
2.09778e-13
9.21077e-13
8.02962e-13
8.75158e-13
7.5775e-13
6.57732e-13
5.74144e-13
5.04553e-13
4.47198e-13
3.98162e-13
2.46675e-13
1.27092e-12
1.17412e-12
1.25408e-12
1.06116e-12
9.01564e-13
7.7178e-13
6.65767e-13
5.79176e-13
5.05589e-13
2.90815e-13
1.85104e-12
1.7964e-12
1.8016e-12
1.48004e-12
1.22395e-12
1.02179e-12
8.60882e-13
7.32145e-13
6.24964e-13
3.41023e-13
2.81172e-12
2.79461e-12
2.59449e-12
2.05636e-12
1.64683e-12
1.33506e-12
1.09442e-12
9.07334e-13
7.55913e-13
3.95938e-13
4.44241e-12
4.38279e-12
3.75043e-12
2.85155e-12
2.20129e-12
1.72621e-12
1.3729e-12
1.10682e-12
8.98624e-13
4.55036e-13
1.0266e-10
6.54997e-12
5.2411e-12
3.84953e-12
2.88885e-12
2.21385e-12
1.72767e-12
1.37099e-12
1.09902e-12
5.92482e-13
1.63366e-07
1.35871e-09
9.89828e-10
7.53909e-10
5.84184e-10
4.59616e-10
3.66563e-10
2.95947e-10
2.41623e-10
2.00484e-10
3.8631e-13
3.6151e-13
1.72163e-13
1.51063e-13
1.30709e-13
1.11571e-13
9.37067e-14
7.73646e-14
6.28661e-14
3.67329e-14
5.33043e-13
4.59954e-13
3.86163e-13
3.35708e-13
2.89155e-13
2.47451e-13
2.10655e-13
1.79042e-13
1.52946e-13
7.94258e-14
5.96124e-13
4.88707e-13
5.23795e-13
4.55152e-13
3.95025e-13
3.43915e-13
3.014e-13
2.67299e-13
2.39192e-13
1.19805e-13
7.28829e-13
6.3406e-13
7.6076e-13
6.56994e-13
5.68417e-13
4.95102e-13
4.34583e-13
3.85262e-13
3.43569e-13
1.7122e-13
9.55678e-13
9.42925e-13
1.10785e-12
9.40716e-13
8.01777e-13
6.88556e-13
5.96155e-13
5.21038e-13
4.57025e-13
2.24973e-13
1.33757e-12
1.4838e-12
1.60989e-12
1.33238e-12
1.10887e-12
9.31488e-13
7.8942e-13
6.75648e-13
5.79983e-13
2.81745e-13
1.97048e-12
2.36048e-12
2.33608e-12
1.87074e-12
1.5111e-12
1.23463e-12
1.01928e-12
8.50767e-13
7.131e-13
3.41621e-13
3.03696e-12
3.75626e-12
3.39179e-12
2.61242e-12
2.03734e-12
1.6123e-12
1.29252e-12
1.04924e-12
8.57146e-13
4.04687e-13
1.09943e-10
6.20044e-12
4.93455e-12
3.63484e-12
2.72503e-12
2.08128e-12
1.61569e-12
1.27373e-12
1.01269e-12
4.70858e-13
1.63027e-07
4.30572e-10
2.09455e-11
1.36433e-11
9.34442e-12
6.56592e-12
4.71772e-12
3.4573e-12
2.57622e-12
1.76127e-12
3.86407e-13
3.61226e-13
1.72563e-13
1.51373e-13
1.30938e-13
1.1171e-13
9.39778e-14
7.75951e-14
6.29225e-14
3.68359e-14
5.33595e-13
4.60308e-13
3.87016e-13
3.3646e-13
2.89861e-13
2.47914e-13
2.10998e-13
1.79469e-13
1.53289e-13
7.9584e-14
5.97305e-13
4.89904e-13
5.25439e-13
4.56469e-13
3.95968e-13
3.44836e-13
3.02146e-13
2.67759e-13
2.3946e-13
1.20027e-13
7.31312e-13
6.36764e-13
7.6333e-13
6.59184e-13
5.70096e-13
4.96438e-13
4.35713e-13
3.86158e-13
3.44187e-13
1.71365e-13
9.60306e-13
9.47964e-13
1.11237e-12
9.44199e-13
8.04565e-13
6.90915e-13
5.979e-13
5.22253e-13
4.57998e-13
2.25664e-13
1.34604e-12
1.49262e-12
1.61721e-12
1.33829e-12
1.11345e-12
9.35161e-13
7.92378e-13
6.77928e-13
5.8178e-13
2.82887e-13
1.98568e-12
2.37615e-12
2.34888e-12
1.88058e-12
1.51876e-12
1.24069e-12
1.02404e-12
8.54397e-13
7.1607e-13
3.43647e-13
3.06402e-12
3.78453e-12
3.41368e-12
2.62898e-12
2.05005e-12
1.62206e-12
1.3001e-12
1.05513e-12
8.61686e-13
4.07907e-13
1.11579e-10
6.27953e-12
4.98054e-12
3.66683e-12
2.74787e-12
2.09791e-12
1.628e-12
1.28305e-12
1.01989e-12
4.75567e-13
1.69028e-07
4.48116e-10
8.36316e-12
5.07061e-12
3.65304e-12
2.69293e-12
2.02398e-12
1.54857e-12
1.19751e-12
5.54932e-13
3.8651e-13
3.60905e-13
1.73142e-13
1.51883e-13
1.31304e-13
1.12036e-13
9.41327e-14
7.78611e-14
6.32032e-14
3.68618e-14
5.34441e-13
4.60802e-13
3.88296e-13
3.37551e-13
2.90803e-13
2.48668e-13
2.11548e-13
1.79827e-13
1.53762e-13
7.99653e-14
5.99159e-13
4.91721e-13
5.27751e-13
4.58391e-13
3.97597e-13
3.46056e-13
3.03103e-13
2.68427e-13
2.39996e-13
1.2047e-13
7.35126e-13
6.40886e-13
7.67122e-13
6.62301e-13
5.7266e-13
4.98341e-13
4.37139e-13
3.87344e-13
3.44958e-13
1.7194e-13
9.67807e-13
9.55565e-13
1.11866e-12
9.49245e-13
8.08526e-13
6.9417e-13
6.00463e-13
5.24256e-13
4.59533e-13
2.26672e-13
1.3603e-12
1.50621e-12
1.628e-12
1.34665e-12
1.11996e-12
9.40377e-13
7.96514e-13
6.81041e-13
5.84351e-13
2.84678e-13
2.01243e-12
2.39993e-12
2.36732e-12
1.89468e-12
1.5296e-12
1.2492e-12
1.0307e-12
8.59565e-13
7.20159e-13
3.46494e-13
3.11482e-12
3.82732e-12
3.44573e-12
2.65258e-12
2.06773e-12
1.63558e-12
1.31059e-12
1.06327e-12
8.67953e-13
4.12179e-13
1.15653e-10
6.36643e-12
5.03643e-12
3.70645e-12
2.77664e-12
2.11933e-12
1.64406e-12
1.29522e-12
1.02928e-12
4.82019e-13
1.83158e-07
4.71987e-10
8.4799e-12
5.1181e-12
3.68825e-12
2.71911e-12
2.04384e-12
1.56385e-12
1.20931e-12
5.62508e-13
3.86524e-13
3.60584e-13
1.73792e-13
1.52509e-13
1.31892e-13
1.1255e-13
9.4549e-14
7.80765e-14
6.33763e-14
3.72612e-14
5.35446e-13
4.61483e-13
3.89887e-13
3.38832e-13
2.91931e-13
2.49706e-13
2.12443e-13
1.80502e-13
1.54005e-13
8.03743e-14
6.01443e-13
4.93917e-13
5.305e-13
4.60727e-13
3.99515e-13
3.47638e-13
3.04214e-13
2.69307e-13
2.40654e-13
1.20975e-13
7.3979e-13
6.45849e-13
7.71679e-13
6.66037e-13
5.75782e-13
5.00851e-13
4.38977e-13
3.88676e-13
3.46183e-13
1.72834e-13
9.7701e-13
9.64827e-13
1.12622e-12
9.55272e-13
8.1334e-13
6.98144e-13
6.03659e-13
5.26713e-13
4.61401e-13
2.28154e-13
1.37788e-12
1.52244e-12
1.64092e-12
1.35686e-12
1.12792e-12
9.46732e-13
8.01649e-13
6.85084e-13
5.87465e-13
2.87036e-13
2.04546e-12
2.42869e-12
2.38942e-12
1.9117e-12
1.54273e-12
1.25957e-12
1.03903e-12
8.6602e-13
7.25211e-13
3.50248e-13
3.17698e-12
3.87876e-12
3.48427e-12
2.68127e-12
2.08934e-12
1.65209e-12
1.32356e-12
1.07334e-12
8.75737e-13
4.17688e-13
1.21094e-10
6.4648e-12
5.10369e-12
3.75472e-12
2.8119e-12
2.14556e-12
1.66399e-12
1.31016e-12
1.04088e-12
4.89995e-13
1.99558e-07
4.99252e-10
8.60384e-12
5.1949e-12
3.74286e-12
2.75865e-12
2.07324e-12
1.586e-12
1.22587e-12
5.73756e-13
3.86622e-13
3.59773e-13
1.74377e-13
1.53005e-13
1.32526e-13
1.13389e-13
9.58676e-14
8.50098e-14
1.45674e-13
4.42258e-13
5.36371e-13
4.61637e-13
3.91212e-13
3.40102e-13
2.9314e-13
2.50976e-13
2.13842e-13
1.83575e-13
1.74979e-13
2.97489e-13
6.0358e-13
4.95302e-13
5.32793e-13
4.62795e-13
4.01425e-13
3.49535e-13
3.06319e-13
2.71787e-13
2.494e-13
2.27086e-13
7.44374e-13
6.49295e-13
7.75388e-13
6.69211e-13
5.78535e-13
5.03508e-13
4.41875e-13
3.91767e-13
3.51978e-13
2.25261e-13
9.85922e-13
9.71491e-13
1.1322e-12
9.60358e-13
8.17612e-13
7.01848e-13
6.07566e-13
5.30842e-13
4.67125e-13
2.58522e-13
1.39413e-12
1.53439e-12
1.65089e-12
1.36516e-12
1.13481e-12
9.52803e-13
8.07644e-13
6.91018e-13
5.94068e-13
3.08824e-13
2.0746e-12
2.45013e-12
2.40647e-12
1.92551e-12
1.55397e-12
1.26907e-12
1.04783e-12
8.74749e-13
7.33656e-13
3.68552e-13
3.22236e-12
3.91722e-12
3.51379e-12
2.70454e-12
2.10775e-12
1.66709e-12
1.3367e-12
1.08599e-12
8.87493e-13
4.35181e-13
1.04439e-10
6.45294e-12
5.15408e-12
3.79345e-12
2.84177e-12
2.16925e-12
1.6839e-12
1.32806e-12
1.05672e-12
5.08262e-13
1.87847e-07
3.66764e-10
8.24737e-12
5.25462e-12
3.78897e-12
2.7944e-12
2.10175e-12
1.61044e-12
1.24769e-12
5.9437e-13
3.8837e-13
4.05726e-13
2.17221e-13
1.59321e-13
1.58106e-13
3.33858e-13
6.70423e-13
2.50261e-12
1.02558e-11
3.27686e-11
5.44046e-13
5.43506e-13
4.41904e-13
3.56709e-13
2.93272e-13
3.56817e-13
5.85296e-13
1.63355e-12
5.96586e-12
2.10153e-11
6.20993e-13
6.38695e-13
6.09257e-13
4.98283e-13
4.01987e-13
3.86911e-13
5.99012e-13
1.1792e-12
3.75899e-12
1.34276e-11
7.71671e-13
8.43904e-13
8.69849e-13
7.1868e-13
5.86086e-13
5.07961e-13
6.13083e-13
9.55309e-13
2.55683e-12
8.92833e-12
1.02079e-12
1.19434e-12
1.23666e-12
1.01789e-12
8.316e-13
6.94725e-13
6.88334e-13
8.86362e-13
1.89204e-12
6.1771e-12
1.42746e-12
1.761e-12
1.75473e-12
1.42188e-12
1.14911e-12
9.40408e-13
8.37223e-13
9.77538e-13
1.54498e-12
4.43458e-12
2.08618e-12
2.65698e-12
2.4942e-12
1.96963e-12
1.56012e-12
1.24982e-12
1.0476e-12
1.05647e-12
1.43696e-12
3.297e-12
3.15329e-12
4.07063e-12
3.56177e-12
2.71925e-12
2.09426e-12
1.63497e-12
1.31673e-12
1.18961e-12
1.42451e-12
2.53826e-12
4.99345e-12
6.24177e-12
5.12644e-12
3.75541e-12
2.793e-12
2.11484e-12
1.64624e-12
1.37897e-12
1.4469e-12
2.02738e-12
4.9706e-09
4.37317e-10
6.76676e-12
5.1268e-12
3.68414e-12
2.70515e-12
2.041e-12
1.62124e-12
1.51102e-12
1.69021e-12
2.53051e-12
2.38653e-12
1.52883e-12
1.54791e-13
2.65057e-12
8.51849e-12
2.502e-11
9.11517e-11
3.80681e-10
7.61805e-10
3.5638e-12
3.45192e-12
2.56158e-12
1.17152e-12
1.32206e-12
6.19337e-12
1.84507e-11
5.96895e-11
2.21943e-10
4.6944e-10
4.8311e-12
4.71453e-12
3.73944e-12
2.33378e-12
2.92313e-13
4.08103e-12
1.33822e-11
4.12037e-11
1.39757e-10
3.05366e-10
6.49018e-12
6.29321e-12
5.14065e-12
3.62927e-12
1.46507e-12
2.27485e-12
9.64187e-12
2.94807e-11
9.3268e-11
2.06401e-10
8.70475e-12
8.30146e-12
6.83726e-12
5.11197e-12
2.87715e-12
7.78913e-13
6.71962e-12
2.14581e-11
6.48956e-11
1.44031e-10
1.17172e-11
1.08997e-11
8.92837e-12
6.83519e-12
4.3993e-12
1.26864e-12
4.35178e-12
1.55814e-11
4.6513e-11
1.03266e-10
1.59016e-11
1.43324e-11
1.15512e-11
8.87538e-12
6.08584e-12
2.8014e-12
2.39027e-12
1.13532e-11
3.39446e-11
7.57466e-11
2.1866e-11
1.89532e-11
1.4895e-11
1.13351e-11
7.98169e-12
4.42354e-12
1.1333e-12
8.09514e-12
2.51214e-11
5.66189e-11
1.21149e-10
2.52942e-11
1.92389e-11
1.43464e-11
1.01552e-11
6.15099e-12
1.90018e-12
5.50397e-12
1.87854e-11
4.29729e-11
4.77538e-07
8.31075e-10
2.49647e-11
1.80735e-11
1.26719e-11
8.00238e-12
3.41133e-12
3.44835e-12
1.40835e-11
3.29846e-11
3.40152e-12
3.05885e-12
2.02001e-12
1.93648e-12
8.3243e-12
2.86725e-11
1.13111e-10
5.46122e-10
1.47259e-09
1.82823e-09
4.50947e-12
4.20101e-12
3.20722e-12
1.67295e-12
5.20797e-12
1.97811e-11
7.23888e-11
3.09755e-10
8.6118e-10
1.03331e-09
5.85814e-12
5.52541e-12
4.54346e-12
2.80651e-12
2.80451e-12
1.32192e-11
4.81413e-11
1.89405e-10
5.31383e-10
6.22372e-10
7.58643e-12
7.12961e-12
6.05887e-12
4.33427e-12
1.97465e-12
8.39711e-12
3.27335e-11
1.22219e-10
3.41499e-10
3.92957e-10
9.85611e-12
9.12461e-12
7.82683e-12
6.02578e-12
3.20424e-12
4.80183e-12
2.22536e-11
8.17848e-11
2.27029e-10
2.5793e-10
1.29106e-11
1.16659e-11
9.94647e-12
7.90876e-12
5.03592e-12
2.51318e-12
1.47105e-11
5.58452e-11
1.55277e-10
1.74844e-10
1.71191e-11
1.49783e-11
1.25523e-11
1.00627e-11
7.02429e-12
2.83299e-12
9.27043e-12
3.85044e-11
1.0836e-10
1.21774e-10
2.30672e-11
1.93927e-11
1.58312e-11
1.25903e-11
9.16601e-12
4.74523e-12
5.23028e-12
2.65398e-11
7.68279e-11
8.65687e-11
9.35945e-11
2.53643e-11
2.00442e-11
1.56299e-11
1.15356e-11
6.91479e-12
2.71738e-12
1.80416e-11
5.51042e-11
6.24427e-11
9.0638e-08
4.4984e-09
2.80599e-11
1.93372e-11
1.42025e-11
9.15026e-12
3.12491e-12
1.18068e-11
3.97484e-11
4.54326e-11
1.01378e-12
1.26712e-12
1.53849e-12
3.23465e-12
8.57391e-12
2.5297e-11
8.82908e-11
3.05923e-10
5.07633e-10
1.11649e-10
1.09732e-12
1.26671e-12
1.40379e-12
2.44879e-12
6.09163e-12
1.75853e-11
5.83963e-11
1.90954e-10
2.98441e-10
9.32939e-11
1.18441e-12
1.30629e-12
1.39387e-12
1.97561e-12
4.36389e-12
1.23298e-11
3.95496e-11
1.23354e-10
1.82512e-10
7.79184e-11
1.27353e-12
1.37312e-12
1.46074e-12
1.78155e-12
3.21616e-12
8.70302e-12
2.72812e-11
8.20595e-11
1.15469e-10
6.15072e-11
1.36705e-12
1.45605e-12
1.56258e-12
1.76544e-12
2.5298e-12
6.18737e-12
1.9078e-11
5.59293e-11
7.51268e-11
4.74802e-11
1.47017e-12
1.55208e-12
1.67759e-12
1.83858e-12
2.20554e-12
4.47878e-12
1.3438e-11
3.89752e-11
5.00375e-11
3.67651e-11
1.58771e-12
1.66018e-12
1.79795e-12
1.9505e-12
2.12334e-12
3.37349e-12
9.51135e-12
2.74498e-11
3.40444e-11
2.88707e-11
1.73389e-12
1.78262e-12
1.92441e-12
2.07465e-12
2.16831e-12
2.7477e-12
6.80752e-12
1.95321e-11
2.34769e-11
2.30859e-11
2.51698e-10
3.0749e-12
2.05688e-12
2.20479e-12
2.27173e-12
2.47068e-12
4.96327e-12
1.40202e-11
1.62931e-11
1.88231e-11
1.56025e-07
4.47383e-09
7.38722e-12
2.32709e-12
2.39097e-12
2.40424e-12
3.74088e-12
1.01246e-11
1.12928e-11
1.55293e-11
7.89994e-13
1.50052e-12
1.60845e-12
2.51967e-12
4.15059e-12
7.14584e-12
1.47755e-11
5.40436e-11
2.62172e-10
8.05708e-10
7.25059e-13
1.34801e-12
1.39446e-12
2.14957e-12
3.48677e-12
5.91047e-12
1.1303e-11
3.36401e-11
1.58783e-10
4.47159e-10
6.6228e-13
1.20521e-12
1.20064e-12
1.82514e-12
2.92333e-12
4.87711e-12
8.87555e-12
2.23244e-11
1.00025e-10
2.64821e-10
6.08754e-13
1.08353e-12
1.03969e-12
1.56177e-12
2.46622e-12
4.05964e-12
7.1357e-12
1.57648e-11
6.52874e-11
1.65146e-10
5.62683e-13
9.79314e-13
9.04419e-13
1.34071e-12
2.09293e-12
3.40977e-12
5.82971e-12
1.17233e-11
4.38718e-11
1.07293e-10
5.23151e-13
8.90306e-13
7.90751e-13
1.15957e-12
1.79151e-12
2.87972e-12
4.82723e-12
9.06622e-12
3.02179e-11
7.20554e-11
4.89019e-13
8.13445e-13
6.94782e-13
1.00761e-12
1.53797e-12
2.44555e-12
4.04687e-12
7.21754e-12
2.12674e-11
4.9736e-11
4.79204e-13
7.46828e-13
6.13951e-13
8.79066e-13
1.32854e-12
2.09258e-12
3.42062e-12
5.87862e-12
1.52549e-11
3.51411e-11
4.08002e-10
7.11234e-12
5.47396e-13
7.70924e-13
1.15439e-12
1.80092e-12
2.91029e-12
4.87041e-12
1.11371e-11
2.53335e-11
1.549e-07
1.49297e-08
4.50509e-11
6.95648e-13
9.99552e-13
1.54988e-12
2.48222e-12
4.07659e-12
8.24653e-12
1.85705e-11
1.06472e-12
1.8566e-12
1.62059e-12
2.17351e-12
3.02722e-12
4.38964e-12
6.96015e-12
1.35605e-11
5.20809e-11
1.4719e-10
9.91473e-13
1.70233e-12
1.45278e-12
1.93843e-12
2.67684e-12
3.82167e-12
5.80927e-12
1.04448e-11
3.70115e-11
9.16411e-11
9.20351e-13
1.55416e-12
1.29113e-12
1.71339e-12
2.3513e-12
3.3244e-12
4.90678e-12
8.15764e-12
2.63482e-11
6.01869e-11
8.58307e-13
1.42511e-12
1.15254e-12
1.51905e-12
2.07376e-12
2.90732e-12
4.2135e-12
6.5926e-12
1.89609e-11
4.1137e-11
8.04431e-13
1.31253e-12
1.03327e-12
1.35216e-12
1.83802e-12
2.55843e-12
3.66107e-12
5.48575e-12
1.37947e-11
2.89624e-11
7.5735e-13
1.21391e-12
9.30005e-13
1.20878e-12
1.63267e-12
2.26028e-12
3.2105e-12
4.66915e-12
1.01334e-11
2.08717e-11
7.15965e-13
1.12698e-12
8.40612e-13
1.08443e-12
1.4559e-12
2.00682e-12
2.83136e-12
4.03837e-12
7.508e-12
1.53287e-11
7.05e-13
1.05017e-12
7.63014e-13
9.7626e-13
1.3024e-12
1.78632e-12
2.50623e-12
3.53214e-12
5.60991e-12
1.14302e-11
6.06622e-10
1.26573e-11
7.02099e-13
8.81986e-13
1.16904e-12
1.59456e-12
2.22923e-12
3.11191e-12
4.22681e-12
8.62133e-12
1.9049e-07
2.63688e-08
1.1086e-10
1.03301e-12
1.04239e-12
1.42499e-12
1.98437e-12
2.74945e-12
3.19458e-12
6.55154e-12
1.47894e-12
2.34822e-12
1.63163e-12
1.90202e-12
2.28299e-12
2.82868e-12
3.80183e-12
5.94936e-12
1.57088e-11
2.501e-11
1.39882e-12
2.19737e-12
1.51504e-12
1.76942e-12
2.1223e-12
2.60335e-12
3.36467e-12
4.86848e-12
1.21743e-11
1.91045e-11
1.31888e-12
2.04756e-12
1.39235e-12
1.62777e-12
1.95349e-12
2.38461e-12
3.01248e-12
4.09341e-12
9.28628e-12
1.46261e-11
1.24819e-12
1.9136e-12
1.28152e-12
1.4983e-12
1.79909e-12
2.19218e-12
2.7345e-12
3.5493e-12
7.07878e-12
1.13078e-11
1.18563e-12
1.79361e-12
1.182e-12
1.38073e-12
1.65911e-12
2.02004e-12
2.50468e-12
3.15379e-12
5.39608e-12
8.80083e-12
1.13006e-12
1.68564e-12
1.09282e-12
1.27484e-12
1.53061e-12
1.86422e-12
2.30359e-12
2.85042e-12
4.11087e-12
6.88172e-12
1.08054e-12
1.58861e-12
1.01282e-12
1.17887e-12
1.41363e-12
1.72202e-12
2.12816e-12
2.60306e-12
3.13092e-12
5.39468e-12
1.06433e-12
1.50099e-12
9.40813e-13
1.09199e-12
1.30737e-12
1.5923e-12
1.96861e-12
2.39553e-12
2.38042e-12
4.23887e-12
7.94004e-10
1.86598e-11
8.85969e-13
1.01303e-12
1.21047e-12
1.47344e-12
1.82268e-12
2.21327e-12
1.8045e-12
3.33569e-12
1.54606e-07
3.65514e-08
1.75883e-10
1.36047e-12
1.11007e-12
1.36226e-12
1.68373e-12
2.04383e-12
1.35288e-12
2.61586e-12
2.08888e-12
2.97973e-12
1.58761e-12
1.60385e-12
1.6655e-12
1.79882e-12
2.14621e-12
2.95859e-12
6.66457e-12
8.39942e-12
2.00371e-12
2.84186e-12
1.52883e-12
1.56171e-12
1.63198e-12
1.74524e-12
1.99027e-12
2.53762e-12
5.40501e-12
6.99748e-12
1.91823e-12
2.70027e-12
1.45318e-12
1.4988e-12
1.57849e-12
1.68514e-12
1.87155e-12
2.23585e-12
4.27336e-12
5.72922e-12
1.84094e-12
2.5696e-12
1.37932e-12
1.43357e-12
1.52076e-12
1.62766e-12
1.78421e-12
2.03342e-12
3.36186e-12
4.68941e-12
1.77112e-12
2.44913e-12
1.30832e-12
1.36896e-12
1.46173e-12
1.57094e-12
1.71334e-12
1.89582e-12
2.62688e-12
3.8378e-12
1.70789e-12
2.33808e-12
1.24137e-12
1.30516e-12
1.40137e-12
1.51408e-12
1.65264e-12
1.79595e-12
2.03415e-12
3.13602e-12
1.65056e-12
2.23594e-12
1.17823e-12
1.24329e-12
1.34099e-12
1.45631e-12
1.59507e-12
1.71838e-12
1.55254e-12
2.55644e-12
1.62628e-12
2.14184e-12
1.11897e-12
1.18421e-12
1.28204e-12
1.39824e-12
1.53759e-12
1.65325e-12
1.16352e-12
2.0763e-12
9.75352e-10
2.41008e-11
1.07506e-12
1.12746e-12
1.22463e-12
1.34098e-12
1.48069e-12
1.59477e-12
8.50736e-13
1.67796e-12
4.80031e-08
4.19365e-08
3.99882e-10
9.3858e-13
1.15526e-12
1.28227e-12
1.41997e-12
1.53374e-12
5.8815e-13
1.34472e-12
2.92726e-12
3.70394e-12
1.41577e-12
1.2143e-12
1.0677e-12
1.00317e-12
1.13626e-12
1.53951e-12
3.36835e-12
3.78282e-12
2.84257e-12
3.59402e-12
1.41671e-12
1.24864e-12
1.12049e-12
1.03659e-12
1.07899e-12
1.33204e-12
2.88756e-12
3.3529e-12
2.75706e-12
3.47667e-12
1.39526e-12
1.25788e-12
1.15155e-12
1.06652e-12
1.0559e-12
1.18777e-12
2.37904e-12
2.87984e-12
2.67802e-12
3.36426e-12
1.36617e-12
1.25491e-12
1.16971e-12
1.09286e-12
1.05653e-12
1.10295e-12
1.94288e-12
2.46884e-12
2.60502e-12
3.25749e-12
1.33337e-12
1.24411e-12
1.17782e-12
1.11319e-12
1.06802e-12
1.06201e-12
1.56899e-12
2.11177e-12
2.53761e-12
3.15621e-12
1.29756e-12
1.22689e-12
1.17767e-12
1.12682e-12
1.08353e-12
1.048e-12
1.24776e-12
1.80118e-12
2.47544e-12
3.06062e-12
1.26022e-12
1.20524e-12
1.17114e-12
1.13391e-12
1.0981e-12
1.0485e-12
9.73217e-13
1.53121e-12
2.44516e-12
2.97059e-12
1.22246e-12
1.1808e-12
1.15923e-12
1.13471e-12
1.10871e-12
1.05614e-12
7.38666e-13
1.29805e-12
1.17119e-09
2.78016e-11
1.20025e-12
1.15407e-12
1.14362e-12
1.13037e-12
1.11426e-12
1.06583e-12
5.39188e-13
1.09763e-12
7.51017e-08
3.97417e-08
3.86928e-10
1.41901e-12
1.11444e-12
1.11969e-12
1.11297e-12
1.07102e-12
3.64522e-13
9.29117e-13
3.94634e-12
4.41444e-12
1.09246e-12
7.60555e-13
4.95094e-13
3.49453e-13
4.86016e-13
7.93824e-13
2.03865e-12
2.06377e-12
3.86819e-12
4.34553e-12
1.13816e-12
8.42626e-13
6.00441e-13
4.1999e-13
4.29959e-13
6.48525e-13
1.87242e-12
1.95122e-12
3.79045e-12
4.26957e-12
1.16129e-12
9.00794e-13
6.84542e-13
4.99547e-13
4.26344e-13
5.39518e-13
1.62987e-12
1.75628e-12
3.71695e-12
4.19254e-12
1.17282e-12
9.43552e-13
7.5123e-13
5.74221e-13
4.58935e-13
4.73818e-13
1.41353e-12
1.58021e-12
3.64735e-12
4.11644e-12
1.1761e-12
9.74325e-13
8.04809e-13
6.40602e-13
5.08874e-13
4.51763e-13
1.22065e-12
1.42095e-12
3.58247e-12
4.04165e-12
1.17264e-12
9.96024e-13
8.47782e-13
6.98564e-13
5.6411e-13
4.63613e-13
1.0504e-12
1.27804e-12
3.52128e-12
3.9686e-12
1.16434e-12
1.01018e-12
8.80874e-13
7.47495e-13
6.18205e-13
4.96066e-13
9.01841e-13
1.15087e-12
3.48955e-12
3.89844e-12
1.15251e-12
1.01813e-12
9.06219e-13
7.88247e-13
6.68032e-13
5.38728e-13
7.7424e-13
1.03837e-12
1.35229e-09
2.9142e-11
1.16099e-12
1.02115e-12
9.25705e-13
8.21905e-13
7.11958e-13
5.84518e-13
6.67493e-13
9.40376e-13
2.10123e-07
2.84262e-08
3.52497e-10
2.1554e-12
9.34056e-13
8.47372e-13
7.49186e-13
6.26671e-13
5.81563e-13
8.60612e-13
4.94949e-12
4.96951e-12
7.36477e-13
4.98483e-13
2.72079e-13
1.52545e-13
2.67072e-13
4.62512e-13
1.46757e-12
1.32226e-12
4.88165e-12
4.94562e-12
7.68656e-13
5.36156e-13
3.10902e-13
1.24616e-13
1.63773e-13
3.58476e-13
1.4578e-12
1.34171e-12
4.81644e-12
4.9175e-12
7.92062e-13
5.72513e-13
3.60455e-13
1.62247e-13
7.66014e-14
2.59574e-13
1.35189e-12
1.26736e-12
4.75313e-12
4.88428e-12
8.10972e-13
6.05541e-13
4.10145e-13
2.2026e-13
4.52586e-14
1.68275e-13
1.25561e-12
1.19859e-12
4.69278e-12
4.84827e-12
8.25724e-13
6.35766e-13
4.57155e-13
2.80526e-13
1.08185e-13
8.75274e-14
1.16763e-12
1.13498e-12
4.63482e-12
4.80978e-12
8.36771e-13
6.61953e-13
4.99909e-13
3.37096e-13
1.76184e-13
3.94183e-14
1.0878e-12
1.07672e-12
4.57969e-12
4.77027e-12
8.44421e-13
6.84322e-13
5.38021e-13
3.89066e-13
2.38956e-13
8.20332e-14
1.01665e-12
1.02359e-12
4.55172e-12
4.73095e-12
8.48637e-13
7.02649e-13
5.71394e-13
4.35425e-13
2.9592e-13
1.43766e-13
9.53339e-13
9.75745e-13
1.49125e-09
2.83649e-11
8.87851e-13
7.17964e-13
6.00402e-13
4.7662e-13
3.47987e-13
2.03136e-13
8.98097e-13
9.32576e-13
3.32724e-07
1.35494e-08
2.23538e-10
1.83854e-12
6.24653e-13
5.13314e-13
3.94973e-13
2.58936e-13
8.50517e-13
9.03272e-13
5.60269e-12
5.25711e-12
5.7896e-13
6.05036e-13
5.10509e-13
4.41061e-13
4.00614e-13
4.07101e-13
1.23093e-12
1.01047e-12
5.54198e-12
5.26287e-12
5.1585e-13
5.44624e-13
4.57796e-13
3.9331e-13
3.55079e-13
3.67568e-13
1.29466e-12
1.08713e-12
5.48603e-12
5.2681e-12
4.61969e-13
4.90673e-13
4.10613e-13
3.48729e-13
3.12087e-13
3.2559e-13
1.25273e-12
1.06451e-12
5.43143e-12
5.26713e-12
4.2062e-13
4.45259e-13
3.70298e-13
3.10849e-13
2.73654e-13
2.86977e-13
1.21279e-12
1.04217e-12
5.37836e-12
5.26121e-12
3.90829e-13
4.08904e-13
3.38855e-13
2.80142e-13
2.40657e-13
2.5147e-13
1.17479e-12
1.02133e-12
5.32756e-12
5.25197e-12
3.71255e-13
3.80412e-13
3.13919e-13
2.55623e-13
2.1345e-13
2.20456e-13
1.13874e-12
1.0011e-12
5.27852e-12
5.23967e-12
3.5907e-13
3.58461e-13
2.95857e-13
2.38333e-13
1.93316e-13
1.93025e-13
1.10442e-12
9.82464e-13
5.25521e-12
5.22606e-12
3.52615e-13
3.42034e-13
2.83457e-13
2.26961e-13
1.78535e-13
1.70957e-13
1.07229e-12
9.63995e-13
1.56606e-09
2.68768e-11
4.31314e-13
3.30481e-13
2.75721e-13
2.21266e-13
1.71454e-13
1.54723e-13
1.041e-12
9.46456e-13
4.08343e-07
1.04551e-08
1.63568e-10
1.28026e-12
2.70691e-13
2.23342e-13
1.74775e-13
1.51661e-13
1.01265e-12
9.62154e-13
5.60821e-12
5.22784e-12
5.79791e-13
6.30381e-13
5.40169e-13
4.66133e-13
4.12193e-13
3.99709e-13
1.16253e-12
9.64542e-13
5.54734e-12
5.23586e-12
4.98911e-13
5.61063e-13
4.83578e-13
4.18787e-13
3.71706e-13
3.68114e-13
1.23607e-12
1.04503e-12
5.49166e-12
5.24401e-12
4.27519e-13
4.97344e-13
4.30389e-13
3.73168e-13
3.31724e-13
3.31592e-13
1.20202e-12
1.02589e-12
5.43738e-12
5.24567e-12
3.68663e-13
4.41048e-13
3.82941e-13
3.32211e-13
2.95024e-13
2.98039e-13
1.16941e-12
1.00704e-12
5.38496e-12
5.24273e-12
3.22901e-13
3.93668e-13
3.42348e-13
2.96051e-13
2.61939e-13
2.66646e-13
1.1381e-12
9.89477e-13
5.33465e-12
5.23596e-12
2.89489e-13
3.53791e-13
3.08035e-13
2.65369e-13
2.32787e-13
2.37717e-13
1.10829e-12
9.72747e-13
5.28607e-12
5.22612e-12
2.67e-13
3.2082e-13
2.79508e-13
2.39544e-13
2.07836e-13
2.11758e-13
1.07962e-12
9.56965e-13
5.26313e-12
5.21469e-12
2.54133e-13
2.94411e-13
2.56652e-13
2.18693e-13
1.86615e-13
1.88716e-13
1.05254e-12
9.41758e-13
1.56606e-09
2.68756e-11
3.50498e-13
2.73747e-13
2.38943e-13
2.03066e-13
1.7109e-13
1.69408e-13
1.026e-12
9.27092e-13
4.08343e-07
1.04551e-08
1.63547e-10
1.24161e-12
2.23641e-13
1.95923e-13
1.65635e-13
1.60878e-13
1.00151e-12
9.56454e-13
4.95743e-12
4.88957e-12
6.79813e-13
5.14091e-13
3.33352e-13
2.27985e-13
2.62328e-13
4.00122e-13
1.23185e-12
1.17109e-12
4.89135e-12
4.87402e-12
6.90298e-13
5.20926e-13
3.3597e-13
1.94547e-13
1.82549e-13
3.16223e-13
1.25503e-12
1.20231e-12
4.82819e-12
4.85482e-12
7.01754e-13
5.35661e-13
3.56554e-13
1.97663e-13
1.18637e-13
2.31715e-13
1.17765e-12
1.14034e-12
4.76709e-12
4.82999e-12
7.13489e-13
5.53594e-13
3.84963e-13
2.24601e-13
9.02305e-14
1.53167e-13
1.10717e-12
1.08332e-12
4.70871e-12
4.80224e-12
7.2527e-13
5.73222e-13
4.17024e-13
2.63488e-13
1.1461e-13
8.33128e-14
1.0428e-12
1.03129e-12
4.65256e-12
4.77156e-12
7.35706e-13
5.9284e-13
4.49698e-13
3.05979e-13
1.6167e-13
3.82093e-14
9.85156e-13
9.84335e-13
4.59902e-12
4.73922e-12
7.44252e-13
6.11013e-13
4.80842e-13
3.47975e-13
2.1253e-13
6.95071e-14
9.33705e-13
9.42063e-13
4.57264e-12
4.70615e-12
7.50771e-13
6.27346e-13
5.09658e-13
3.87444e-13
2.61454e-13
1.23223e-13
8.88236e-13
9.04228e-13
1.49126e-09
2.83637e-11
7.94201e-13
6.41632e-13
5.35791e-13
4.2423e-13
3.07586e-13
1.76449e-13
8.49041e-13
8.714e-13
3.32724e-07
1.35494e-08
2.23497e-10
1.77395e-12
5.5821e-13
4.57764e-13
3.50398e-13
2.27934e-13
8.15595e-13
8.62199e-13
3.95046e-12
4.31279e-12
9.60723e-13
6.54971e-13
3.94679e-13
2.17628e-13
3.33438e-13
6.08278e-13
1.51882e-12
1.73524e-12
3.87823e-12
4.26028e-12
1.0097e-12
7.33453e-13
4.98304e-13
3.06753e-13
2.92093e-13
4.91186e-13
1.4284e-12
1.65536e-12
3.80631e-12
4.19903e-12
1.04012e-12
7.93924e-13
5.83733e-13
3.97127e-13
3.04897e-13
4.00984e-13
1.25241e-12
1.49246e-12
3.73694e-12
4.13547e-12
1.05948e-12
8.40083e-13
6.52868e-13
4.77421e-13
3.51478e-13
3.50368e-13
1.09413e-12
1.34518e-12
3.67146e-12
4.07123e-12
1.07129e-12
8.76387e-13
7.09911e-13
5.47939e-13
4.11271e-13
3.42224e-13
9.53159e-13
1.21271e-12
3.60947e-12
4.00705e-12
1.07628e-12
9.03421e-13
7.56516e-13
6.09449e-13
4.73433e-13
3.65691e-13
8.29665e-13
1.09465e-12
3.55099e-12
3.94372e-12
1.07633e-12
9.23336e-13
7.94048e-13
6.61721e-13
5.31885e-13
4.07548e-13
7.22986e-13
9.90654e-13
3.52147e-12
3.88205e-12
1.07177e-12
9.37179e-13
8.24379e-13
7.06096e-13
5.85435e-13
4.56429e-13
6.3415e-13
8.99666e-13
1.3523e-09
2.91442e-11
1.08669e-12
9.46472e-13
8.48394e-13
7.4349e-13
6.32902e-13
5.06442e-13
5.62483e-13
8.21936e-13
2.10123e-07
2.84262e-08
3.52468e-10
2.10295e-12
8.62092e-13
7.72946e-13
6.73336e-13
5.52329e-13
5.08715e-13
7.65177e-13
2.93359e-12
3.61301e-12
1.25587e-12
1.03691e-12
8.76798e-13
7.89201e-13
8.64508e-13
1.15675e-12
2.23465e-12
3.02552e-12
2.85848e-12
3.52546e-12
1.27832e-12
1.09049e-12
9.47174e-13
8.45771e-13
8.4987e-13
1.02459e-12
1.95003e-12
2.70495e-12
2.7803e-12
3.42676e-12
1.27651e-12
1.11847e-12
9.95859e-13
8.9552e-13
8.57739e-13
9.35921e-13
1.60853e-12
2.32519e-12
2.70684e-12
3.33022e-12
1.26524e-12
1.1325e-12
1.0298e-12
9.38109e-13
8.80628e-13
8.92049e-13
1.30882e-12
1.99328e-12
2.63812e-12
3.2365e-12
1.2474e-12
1.13732e-12
1.05273e-12
9.72863e-13
9.10633e-13
8.79672e-13
1.04947e-12
1.70355e-12
2.57396e-12
3.14645e-12
1.22512e-12
1.13419e-12
1.06654e-12
9.99901e-13
9.41113e-13
8.86789e-13
8.24586e-13
1.45111e-12
2.51433e-12
3.05995e-12
1.19973e-12
1.12552e-12
1.07255e-12
1.01872e-12
9.67773e-13
9.03825e-13
6.29759e-13
1.23246e-12
2.48568e-12
2.97796e-12
1.1722e-12
1.11229e-12
1.07272e-12
1.03115e-12
9.89125e-13
9.24692e-13
4.61481e-13
1.04425e-12
1.17119e-09
2.78071e-11
1.15793e-12
1.09597e-12
1.06768e-12
1.03758e-12
1.00556e-12
9.45433e-13
3.19086e-13
8.83698e-13
7.51017e-08
3.97417e-08
3.86908e-10
1.37666e-12
1.04901e-12
1.0371e-12
1.0141e-12
9.60695e-13
1.91818e-13
7.51276e-13
2.10842e-12
2.92101e-12
1.43183e-12
1.38599e-12
1.38756e-12
1.44604e-12
1.64729e-12
2.1297e-12
3.87022e-12
6.26282e-12
2.03265e-12
2.80776e-12
1.40581e-12
1.38122e-12
1.39522e-12
1.44493e-12
1.58511e-12
1.90734e-12
3.20892e-12
5.27273e-12
1.95315e-12
2.6845e-12
1.35773e-12
1.3508e-12
1.37737e-12
1.42752e-12
1.53441e-12
1.7461e-12
2.56022e-12
4.33288e-12
1.8799e-12
2.56822e-12
1.30632e-12
1.31321e-12
1.35068e-12
1.40593e-12
1.49838e-12
1.6399e-12
2.02592e-12
3.55635e-12
1.81301e-12
2.45928e-12
1.25377e-12
1.27172e-12
1.31864e-12
1.38005e-12
1.46878e-12
1.56993e-12
1.58875e-12