/*--------------------------------*- C++ -*----------------------------------*\
| =========                 |                                                 |
| \\      /  F ield         | OpenFOAM: The Open Source CFD Toolbox           |
|  \\    /   O peration     | Version:  4.1                                   |
|   \\  /    A nd           | Web:      www.OpenFOAM.org                      |
|    \\/     M anipulation  |                                                 |
\*---------------------------------------------------------------------------*/
FoamFile
{
    version     2.0;
    format      ascii;
    class       surfaceScalarField;
    location    "0.38";
    object      phi;
}
// * * * * * * * * * * * * * * * * * * * * * * * * * * * * * * * * * * * * * //

dimensions      [1 0 -1 0 0 0 0];

internalField   nonuniform List<scalar> 
51500
(
3.67963e-13
1.15777e-14
1.50946e-11
-1.7617e-15
1.88691e-14
1.4921e-11
-2.347e-15
1.78922e-14
1.47494e-11
-2.34613e-15
1.67918e-14
1.458e-11
-2.28578e-15
1.56299e-14
1.44127e-11
-2.25485e-15
1.44237e-14
1.42475e-11
-2.27961e-15
1.3203e-14
1.40844e-11
-2.24947e-15
1.19781e-14
1.39239e-11
-2.2291e-15
1.0733e-14
1.37657e-11
9.48288e-15
1.36117e-11
-7.35089e-17
3.72416e-13
8.54859e-15
1.89683e-11
-1.00173e-14
9.20797e-15
1.82875e-11
-8.79729e-15
7.95357e-15
1.76332e-11
-8.62605e-15
6.93864e-15
1.70069e-11
-8.38397e-15
6.05501e-15
1.64077e-11
-8.12566e-15
5.19322e-15
1.58341e-11
-7.90281e-15
4.02525e-15
1.52845e-11
-7.70135e-15
2.86379e-15
1.47583e-11
-7.38264e-15
1.7735e-15
1.42534e-11
7.59185e-16
1.3776e-11
-7.69133e-16
3.74072e-13
9.6186e-15
2.4138e-11
-2.1142e-14
1.06671e-14
2.26387e-11
-1.73162e-14
8.83752e-15
2.12448e-11
-1.65063e-14
7.20046e-15
1.99529e-11
-1.56893e-14
5.73467e-15
1.87555e-11
-1.50091e-14
4.42024e-15
1.76448e-11
-1.42941e-14
3.25075e-15
1.66143e-11
-1.36927e-14
2.19939e-15
1.56563e-11
-1.28807e-14
1.26698e-15
1.47652e-11
4.67715e-16
1.39433e-11
-1.45847e-15
3.71146e-13
1.21619e-14
3.11422e-11
-3.64487e-14
1.2962e-14
2.83256e-11
-2.8352e-14
1.04643e-14
2.58064e-11
-2.64223e-14
8.2985e-15
2.35484e-11
-2.46069e-14
6.4502e-15
2.15288e-11
-2.29708e-14
4.865e-15
1.97174e-11
-2.14739e-14
3.50484e-15
1.8089e-11
-2.01229e-14
2.32372e-15
1.66224e-11
-1.85618e-14
1.31043e-15
1.52992e-11
4.59609e-16
1.41137e-11
-2.21394e-15
3.59729e-13
1.57079e-14
4.07918e-11
-5.73063e-14
1.60036e-14
3.58572e-11
-4.2967e-14
1.25096e-14
3.16214e-11
-3.8945e-14
9.63957e-15
2.79695e-11
-3.53757e-14
7.29958e-15
2.48218e-11
-3.22443e-14
5.37626e-15
2.20962e-11
-2.9554e-14
3.77832e-15
1.9728e-11
-2.71193e-14
2.45785e-15
1.76638e-11
-2.45641e-14
1.36271e-15
1.58576e-11
4.80946e-16
1.42877e-11
-2.98177e-15
3.33545e-13
2.0912e-14
5.43309e-11
-1.02512e-13
2.01149e-14
4.59753e-11
-6.23538e-14
1.516e-14
3.91166e-11
-5.48218e-14
1.12943e-14
3.34476e-11
-4.84683e-14
8.30183e-15
2.87517e-11
-4.31534e-14
5.9457e-15
2.48361e-11
-3.86101e-14
4.0853e-15
2.15535e-11
-3.46944e-14
2.60024e-15
1.87868e-11
-3.08265e-14
1.41368e-15
1.64417e-11
4.81089e-16
1.4464e-11
-3.81813e-15
2.7976e-13
4.28172e-14
7.37057e-11
-1.68189e-13
3.35731e-14
5.9787e-11
-8.85208e-14
2.32485e-14
4.88868e-11
-7.51769e-14
1.67671e-14
4.02922e-11
-6.45372e-14
1.20012e-14
3.34693e-11
-5.58853e-14
8.43548e-15
2.80035e-11
-4.88167e-14
5.72632e-15
2.35899e-11
-4.29242e-14
3.65488e-15
1.99983e-11
-3.74386e-14
2.05155e-15
1.70534e-11
7.98763e-16
1.46436e-11
-4.66033e-15
2.01633e-13
-1.02284e-13
1.0208e-10
-2.50108e-13
-1.16386e-13
7.89484e-11
-1.23901e-13
-1.28848e-13
6.17805e-11
-1.01269e-13
-1.37051e-13
4.89158e-11
-8.40786e-14
-1.42595e-13
3.91641e-11
-7.07291e-14
-1.46357e-13
3.16796e-11
-6.0165e-14
-1.48921e-13
2.58686e-11
-5.16932e-14
-1.50676e-13
2.13092e-11
-4.41334e-14
-1.5188e-13
1.76944e-11
-1.54156e-13
1.48285e-11
-5.57258e-15
2.08483e-12
-5.06023e-10
1.53301e-10
1.52578e-12
-5.30023e-10
1.13252e-10
1.3797e-12
-5.31618e-10
8.60909e-11
1.25043e-12
-5.32702e-10
6.69191e-11
1.13575e-12
-5.33497e-10
5.31953e-11
1.03445e-12
-5.34077e-10
4.32195e-11
9.44985e-13
-5.34498e-10
3.58733e-11
8.65891e-13
-5.34799e-10
3.04016e-11
7.90865e-13
-5.35023e-10
2.62824e-11
-5.41363e-10
2.32605e-11
-6.51822e-15
-1.06787e-10
9.16301e-08
-8.77708e-07
2.07927e-10
7.70605e-08
-9.37852e-07
2.07833e-10
6.69767e-08
-9.39618e-07
2.00488e-10
5.87114e-08
-9.41032e-07
1.9307e-10
5.18561e-08
-9.42251e-07
1.85781e-10
4.61141e-08
-9.43315e-07
1.78737e-10
4.1261e-08
-9.44255e-07
1.71371e-10
3.71255e-08
-9.45093e-07
1.13695e-10
3.35762e-08
-9.45877e-07
3.08528e-08
-7.52176e-15
-9.68985e-07
3.43346e-13
9.19507e-14
3.90526e-13
-1.98445e-14
8.65549e-14
3.83661e-13
-2.58356e-14
7.62263e-14
3.7725e-13
-2.52082e-14
6.62359e-14
3.69613e-13
-2.48735e-14
5.65831e-14
3.62754e-13
-2.46803e-14
4.72499e-14
3.56692e-13
-2.44891e-14
3.82329e-14
3.49764e-13
-2.43097e-14
2.95286e-14
3.4379e-13
-2.6381e-14
2.1085e-14
3.37803e-13
1.30245e-14
3.31486e-13
-1.59573e-15
2.83974e-13
8.71034e-14
5.4484e-13
-7.34614e-14
7.90359e-14
5.16626e-13
-8.75424e-14
6.69263e-14
4.90618e-13
-8.46618e-14
5.53658e-14
4.64061e-13
-8.2252e-14
4.4302e-14
4.39898e-13
-7.99959e-14
3.30737e-14
4.16581e-13
-7.76839e-14
2.16465e-14
3.95399e-13
-7.61142e-14
1.41242e-14
3.7516e-13
-8.06172e-14
7.81663e-15
3.5685e-13
2.59541e-15
3.38264e-13
-4.33356e-15
1.94987e-13
1.10117e-13
7.72096e-13
-1.85829e-13
9.78162e-14
7.03185e-13
-1.67056e-13
8.16579e-14
6.44568e-13
-1.58505e-13
6.68915e-14
5.8665e-13
-1.50881e-13
5.35734e-14
5.35688e-13
-1.43833e-13
4.15456e-14
4.89852e-13
-1.37171e-13
3.0679e-14
4.48478e-13
-1.31445e-13
2.08906e-14
4.11002e-13
-1.37413e-13
1.20983e-14
3.77129e-13
4.25729e-15
3.46326e-13
-7.02823e-15
7.07405e-14
1.35678e-13
1.1164e-12
-3.20678e-13
1.17101e-13
9.7557e-13
-2.69612e-13
9.54507e-14
8.57991e-13
-2.49994e-13
7.64181e-14
7.501e-13
-2.33009e-13
5.98424e-14
6.58092e-13
-2.17625e-13
4.53993e-14
5.78994e-13
-2.03422e-13
3.28599e-14
5.11115e-13
-1.90992e-13
2.19548e-14
4.5276e-13
-1.96005e-13
1.24574e-14
4.00523e-13
4.29848e-15
3.54385e-13
-9.96165e-15
-5.81893e-14
1.69127e-13
1.65144e-12
-4.92606e-13
1.41556e-13
1.37901e-12
-4.01543e-13
1.12416e-13
1.15914e-12
-3.63521e-13
8.77509e-14
9.69253e-13
-3.31313e-13
6.70824e-14
8.15488e-13
-3.02549e-13
4.97638e-14
6.89567e-13
-2.76992e-13
3.52278e-14
5.85375e-13
-2.55122e-13
2.30541e-14
4.99124e-13
-2.56774e-13
1.28324e-14
4.26733e-13
4.34342e-15
3.63907e-13
-1.31347e-14
-2.11259e-13
2.13338e-13
2.50679e-12
-7.18198e-13
1.73127e-13
1.98429e-12
-5.71741e-13
1.3347e-13
1.58757e-12
-5.04473e-13
1.01395e-13
1.26523e-12
-4.4867e-13
7.5529e-14
1.01803e-12
-4.00506e-13
5.46387e-14
8.25217e-13
-3.58722e-13
3.78101e-14
6.73669e-13
-3.2381e-13
2.42043e-14
5.53383e-13
-3.1991e-13
1.32396e-14
4.5693e-13
4.36903e-15
3.75007e-13
-1.61553e-14
-6.60721e-13
2.69711e-13
3.90653e-12
-1.01977e-12
2.14188e-13
2.91842e-12
-7.91429e-13
1.60241e-13
2.20665e-12
-6.79605e-13
1.18383e-13
1.66874e-12
-5.89129e-13
8.60231e-14
1.28029e-12
-5.13137e-13
6.0988e-14
9.93062e-13
-4.49534e-13
4.15116e-14
7.77884e-13
-3.97043e-13
2.636e-14
6.15588e-13
-3.85577e-13
1.44804e-14
4.8905e-13
5.14219e-15
3.87604e-13
-1.92164e-14
-1.20291e-12
3.26085e-13
6.27661e-12
-1.42653e-12
2.36871e-13
4.3909e-12
-1.07598e-12
1.6827e-13
3.11834e-12
-8.97163e-13
1.18643e-13
2.22984e-12
-7.56434e-13
8.23979e-14
1.6256e-12
-6.42822e-13
5.56127e-14
1.2023e-12
-5.49993e-13
3.56456e-14
9.02991e-13
-4.75675e-13
2.06381e-14
6.86112e-13
-4.53371e-13
9.2841e-15
5.25974e-13
7.13645e-16
4.00929e-13
-2.24402e-14
-2.03807e-12
1.08957e-11
1.09755e-11
-1.89553e-12
-8.65689e-12
6.07441e-12
-1.28627e-12
-8.31982e-12
4.01683e-12
-1.07956e-12
-8.08703e-12
2.72224e-12
-9.11086e-13
-7.99838e-12
1.91592e-12
-7.71727e-13
-8.01087e-12
1.39689e-12
-6.57926e-13
-8.09493e-12
1.05464e-12
-5.67794e-13
-8.22934e-12
8.24187e-13
-5.48383e-13
-8.39935e-12
6.63163e-13
-8.5972e-12
5.41214e-13
-2.56652e-14
-5.09374e-10
6.0348e-09
5.49791e-08
-2.18104e-10
2.61036e-09
-1.18335e-09
-2.16139e-10
1.94119e-09
-1.24639e-09
-2.06621e-10
1.47955e-09
-1.21797e-09
-1.97592e-10
1.1473e-09
-1.18733e-09
-1.89094e-10
9.03497e-10
-1.15692e-09
-1.81127e-10
7.21534e-10
-1.12786e-09
-1.73682e-10
5.83631e-10
-1.10076e-09
-1.67558e-10
4.77688e-10
-1.07774e-09
3.95636e-10
-2.91017e-14
-1.12186e-09
3.46597e-13
8.18359e-14
1.46235e-14
-1.75003e-14
7.76985e-14
1.29956e-14
-2.16668e-14
6.85498e-14
1.16294e-14
-2.00671e-14
5.97162e-14
1.01715e-14
-1.87119e-14
5.11807e-14
8.72197e-15
-1.9898e-14
4.2884e-14
6.751e-15
-1.88463e-14
3.49205e-14
5.99097e-15
-1.91872e-14
2.71985e-14
5.16449e-15
-2.34184e-14
1.97317e-14
4.3942e-15
1.2598e-14
4.28017e-15
-1.37759e-15
2.9536e-13
5.89108e-14
2.35559e-14
-6.54951e-14
5.41074e-14
2.08552e-14
-7.07822e-14
4.58556e-14
2.05798e-14
-6.62347e-14
3.80104e-14
1.68057e-14
-6.49234e-14
3.06962e-14
1.40538e-14
-6.21695e-14
2.39417e-14
1.21727e-14
-6.05776e-14
1.76851e-14
9.56806e-15
-6.00171e-14
1.19741e-14
7.91272e-15
-7.12955e-14
6.82791e-15
7.27546e-15
2.38997e-15
5.91308e-15
-4.41249e-15
2.17148e-13
7.5254e-14
3.51139e-14
-1.65643e-13
6.79581e-14
3.21426e-14
-1.34147e-13
5.71253e-14
3.19782e-14
-1.23554e-13
4.72133e-14
2.70773e-14
-1.17185e-13
3.82025e-14
2.24632e-14
-1.11399e-13
2.99682e-14
1.8161e-14
-1.05715e-13
2.25558e-14
1.55748e-14
-1.03611e-13
1.62052e-14
1.34142e-14
-1.21224e-13
9.44271e-15
1.1271e-14
3.32792e-15
9.09361e-15
-7.24529e-15
9.56172e-14
9.35124e-14
5.67741e-14
-2.89203e-13
8.18464e-14
5.39846e-14
-2.14816e-13
6.71479e-14
5.27297e-14
-1.88066e-13
5.4184e-14
4.32289e-14
-1.74962e-13
4.29019e-14
3.59496e-14
-1.63088e-13
3.3046e-14
2.99885e-14
-1.49091e-13
2.44943e-14
2.52471e-14
-1.50118e-13
1.68647e-14
2.13475e-14
-1.73065e-13
9.71337e-15
1.91383e-14
3.4472e-15
1.37225e-14
-1.03507e-14
-2.18137e-14
1.17862e-13
9.76873e-14
-4.45911e-13
9.94945e-14
9.22609e-14
-3.12642e-13
7.94794e-14
8.62778e-14
-2.6517e-13
6.24831e-14
7.06285e-14
-2.41436e-13
4.82527e-14
5.72358e-14
-2.1994e-13
3.63267e-14
4.69655e-14
-2.00144e-13
2.66432e-14
3.96387e-14
-1.97122e-13
1.80997e-14
3.41231e-14
-2.2681e-13
1.02478e-14
2.93281e-14
3.52875e-15
2.04e-14
-1.32735e-14
-1.57714e-13
1.50542e-13
1.71298e-13
-6.51095e-13
1.22854e-13
1.61402e-13
-4.22275e-13
9.49614e-14
1.42004e-13
-3.63214e-13
7.25303e-14
1.12818e-13
-3.22541e-13
5.45432e-14
9.02894e-14
-2.86877e-13
3.99974e-14
7.29591e-14
-2.55927e-13
2.83195e-14
6.02222e-14
-2.36626e-13
1.90304e-14
5.06528e-14
-2.8276e-13
1.04081e-14
4.1549e-14
3.55651e-15
2.8762e-14
-1.64961e-14
-5.70516e-13
1.94255e-13
3.03252e-13
-9.26127e-13
1.53159e-13
2.78852e-13
-5.74293e-13
1.14425e-13
2.31128e-13
-4.85053e-13
8.47754e-14
1.78077e-13
-4.19477e-13
6.19903e-14
1.38598e-13
-3.63939e-13
4.43443e-14
1.09435e-13
-3.17117e-13
3.14126e-14
8.83916e-14
-2.84889e-13
2.00633e-14
7.19655e-14
-3.40614e-13
1.09107e-14
5.92617e-14
3.72475e-15
3.89942e-14
-1.97002e-14
-1.09768e-12
3.07865e-13
5.47784e-13
-1.2971e-12
2.90391e-13
4.79677e-13
-7.74355e-13
1.97209e-13
3.74604e-13
-6.37165e-13
1.3576e-13
2.75509e-13
-5.35243e-13
9.12454e-14
2.07385e-13
-4.52149e-13
5.83368e-14
1.59876e-13
-3.85526e-13
3.34577e-14
1.24514e-13
-3.36117e-13
2.03663e-14
9.91053e-14
-4.00695e-13
1.06346e-14
8.04633e-14
3.45622e-15
5.06806e-14
-2.30282e-14
-1.9824e-12
2.02777e-11
2.64598e-12
-1.78763e-12
9.10746e-13
7.9619e-13
-1.03676e-12
5.53443e-13
5.76486e-13
-8.26892e-13
3.64094e-13
4.09504e-13
-6.73366e-13
2.28428e-13
2.98583e-13
-5.54498e-13
1.3063e-13
2.22821e-13
-4.61106e-13
5.97014e-14
1.70241e-13
-3.9244e-13
8.06323e-15
1.32433e-13
-4.64469e-13
-2.96216e-14
1.05098e-13
-5.58621e-14
6.71161e-14
-2.63873e-14
-2.66444e-10
3.10604e-09
5.04022e-08
-1.54411e-11
7.93018e-11
6.17591e-11
-1.5462e-11
3.6539e-11
-1.02495e-11
-1.2777e-11
2.39376e-11
-6.56417e-12
-1.06273e-11
1.6217e-11
-3.50064e-12
-8.93089e-12
1.12746e-11
-2.08924e-12
-7.57549e-12
8.02214e-12
-1.01216e-12
-6.48312e-12
5.82631e-12
-1.86361e-13
-5.59272e-12
4.31148e-12
4.4071e-13
3.17482e-12
-2.99288e-14
2.21088e-12
3.46634e-13
8.11803e-14
1.05792e-14
-1.75639e-14
7.71297e-14
9.60572e-15
-2.13995e-14
6.80777e-14
7.99728e-15
-1.96559e-14
5.92993e-14
6.17555e-15
-1.92118e-14
5.08385e-14
4.12727e-15
-1.92682e-14
4.26507e-14
3.34542e-15
-1.79266e-14
3.47254e-14
1.97104e-15
-1.90817e-14
2.70647e-14
1.1788e-15
-2.31718e-14
1.96822e-14
4.92102e-16
1.25985e-14
1.2087e-16
-1.47712e-15
2.96035e-13
5.81425e-14
1.82173e-14
-6.50614e-14
5.34588e-14
1.60482e-14
-6.99627e-14
4.53058e-14
1.63247e-14
-6.43694e-14
3.76096e-14
1.27997e-14
-6.28298e-14
3.03872e-14
9.13498e-15
-6.12484e-14
2.36817e-14
6.70433e-15
-5.89993e-14
1.75404e-14
5.40736e-15
-5.83786e-14
1.19044e-14
4.13997e-15
-7.07412e-14
6.79178e-15
2.80548e-15
2.40749e-15
1.64332e-15
-4.33486e-15
2.18894e-13
7.3982e-14
2.61335e-14
-1.64251e-13
6.68613e-14
2.46548e-14
-1.30993e-13
5.61624e-14
2.64321e-14
-1.16264e-13
4.62804e-14
2.01278e-14
-1.12905e-13
3.73895e-14
1.66624e-14
-1.03611e-13
2.93284e-14
1.398e-14
-9.88618e-14
2.18298e-14
1.06969e-14
-1.01915e-13
1.50547e-14
8.96435e-15
-1.20108e-13
9.36703e-15
7.64581e-15
3.14049e-15
5.43223e-15
-7.20713e-15
9.79379e-14
9.19223e-14
4.31653e-14
-2.86717e-13
8.04455e-14
4.34167e-14
-2.08599e-13
6.59413e-14
4.59254e-14
-1.79141e-13
5.3202e-14
3.73296e-14
-1.67013e-13
4.1984e-14
3.06134e-14
-1.55497e-13
3.21438e-14
2.59917e-14
-1.44528e-13
2.35711e-14
2.12915e-14
-1.45173e-13
1.60419e-14
1.83362e-14
-1.71742e-13
9.52725e-15
1.52751e-14
3.49079e-15
1.0375e-14
-1.04103e-14
-1.80075e-14
1.15777e-13
7.6169e-14
-4.41787e-13
9.78453e-14
7.9995e-14
-2.92042e-13
7.80938e-14
7.87877e-14
-2.58136e-13
6.13061e-14
6.35188e-14
-2.34824e-13
4.72955e-14
5.332e-14
-2.1369e-13
3.54812e-14
4.38866e-14
-1.94813e-13
2.54827e-14
3.67615e-14
-1.8522e-13
1.71529e-14
3.16719e-14
-2.2512e-13
9.87404e-15
2.82929e-14
3.57259e-15
1.88104e-14
-1.3347e-14
-1.52184e-13
1.47762e-13
1.34707e-13
-6.44654e-13
1.20705e-13
1.41122e-13
-4.0928e-13
9.3253e-14
1.33695e-13
-3.54885e-13
7.12157e-14
1.074e-13
-3.15347e-13
5.34655e-14
8.75051e-14
-2.80464e-13
3.90546e-14
7.25323e-14
-2.50163e-13
2.742e-14
6.07222e-14
-2.30969e-13
1.80017e-14
5.04703e-14
-2.80526e-13
1.04365e-14
4.42533e-14
3.65477e-15
2.87524e-14
-1.66488e-14
-5.57306e-13
1.90774e-13
2.40552e-13
-9.1598e-13
1.50485e-13
2.52062e-13
-5.60517e-13
1.12466e-13
2.21668e-13
-4.75277e-13
8.32161e-14
1.74648e-13
-4.11283e-13
6.07451e-14
1.38988e-13
-3.56796e-13
4.33467e-14
1.13163e-13
-3.11549e-13
2.96754e-14
9.155e-14
-2.78845e-13
1.89979e-14
7.66392e-14
-3.38384e-13
1.08595e-14
6.49075e-14
3.57916e-15
4.17761e-14
-1.98513e-14
-1.0774e-12
3.04126e-13
4.31169e-13
-1.28057e-12
1.7713e-13
4.39434e-13
-7.5863e-13
1.41779e-13
3.62779e-13
-6.25271e-13
1.03056e-13
2.78042e-13
-5.25492e-13
7.70336e-14
2.15251e-13
-4.44799e-13
5.53339e-14
1.68901e-13
-3.7939e-13
3.70571e-14
1.34954e-13
-3.3001e-13
2.31726e-14
1.09812e-13
-3.98609e-13
1.26045e-14
8.9766e-14
4.69551e-15
5.88714e-14
-2.30113e-14
-1.955e-12
2.03275e-11
3.69442e-12
-1.76178e-12
3.93502e-13
7.81105e-13
-1.01869e-12
2.40345e-13
5.92676e-13
-8.1341e-13
1.45386e-13
4.34928e-13
-6.62766e-13
9.23504e-14
3.23773e-13
-5.4582e-13
5.87943e-14
2.47661e-13
-4.54111e-13
3.68428e-14
1.91728e-13
-3.85791e-13
2.14024e-14
1.51977e-13
-4.6069e-13
1.04431e-14
1.20352e-13
2.7127e-15
7.3692e-14
-2.65098e-14
-2.51238e-10
4.58218e-09
5.05065e-08
-3.13588e-12
2.77802e-11
8.08433e-11
-1.51098e-12
1.62656e-12
6.91546e-13
-1.29129e-12
1.00544e-12
4.97102e-13
-1.01353e-12
6.86455e-13
3.69603e-13
-8.05704e-13
4.8568e-13
2.15388e-13
-6.49616e-13
3.53004e-13
1.88589e-13
-5.4363e-13
2.62708e-13
1.70425e-13
-5.8503e-13
1.99245e-13
1.68881e-13
1.22994e-13
-3.00855e-14
1.56941e-13
3.46514e-13
8.12981e-14
1.82928e-14
-1.78891e-14
7.72216e-14
1.60931e-14
-2.14604e-14
6.81723e-14
1.27905e-14
-2.03117e-14
5.93786e-14
8.09916e-15
-1.77072e-14
5.08972e-14
8.35593e-15
-1.96593e-14
4.26798e-14
3.84441e-15
-1.90191e-14
3.47768e-14
4.57842e-15
-1.88313e-14
2.71323e-14
3.53015e-15
-2.31731e-14
1.97231e-14
8.85494e-16
1.26322e-14
2.99856e-16
-1.70437e-15
2.95748e-13
5.82685e-14
2.87415e-14
-6.53466e-14
5.35771e-14
2.4763e-14
-7.00845e-14
4.53998e-14
2.1045e-14
-6.53832e-14
3.76555e-14
1.73447e-14
-6.28683e-14
3.04667e-14
1.20018e-14
-6.0932e-14
2.37691e-14
9.52101e-15
-5.88506e-14
1.75874e-14
6.51175e-15
-5.8875e-14
1.19475e-14
6.94634e-15
-7.08038e-14
6.84484e-15
5.77844e-15
2.45966e-15
1.91141e-15
-4.35459e-15
2.18446e-13
7.41807e-14
4.16468e-14
-1.64879e-13
6.70351e-14
3.65605e-14
-1.32119e-13
5.63305e-14
3.69026e-14
-1.15214e-13
4.64856e-14
3.09332e-14
-1.11108e-13
3.7499e-14
2.38284e-14
-1.04926e-13
2.94303e-14
1.79372e-14
-9.85129e-14
2.19832e-14
1.69735e-14
-1.02139e-13
1.51969e-14
1.23571e-14
-1.20113e-13
9.27716e-15
1.37946e-14
3.08446e-15
6.5345e-15
-7.43264e-15
9.74509e-14
9.22826e-14
6.90633e-14
-2.87567e-13
8.07908e-14
6.35876e-14
-2.09572e-13
6.61842e-14
6.41162e-14
-1.79638e-13
5.3372e-14
5.19901e-14
-1.66882e-13
4.21885e-14
4.27868e-14
-1.5622e-13
3.22464e-14
3.37553e-14
-1.44454e-13
2.36411e-14
3.39452e-14
-1.45979e-13
1.61391e-14
2.5689e-14
-1.71888e-13
9.86239e-15
2.54821e-14
3.70844e-15
1.9305e-14
-1.02227e-14
-1.8876e-14
1.16315e-13
1.08564e-13
-4.43338e-13
9.82727e-14
1.11858e-13
-2.93297e-13
7.8501e-14
1.11301e-13
-2.58305e-13
6.16611e-14
9.23135e-14
-2.35719e-13
4.75505e-14
7.54744e-14
-2.14199e-13
3.57674e-14
6.79641e-14
-1.95119e-13
2.57795e-14
5.71309e-14
-1.84882e-13
1.72324e-14
4.61131e-14
-2.25544e-13
9.77579e-15
3.83706e-14
3.63838e-15
2.49323e-14
-1.33752e-14
-1.53721e-13
1.4863e-13
1.9607e-13
-6.46962e-13
1.21476e-13
2.04797e-13
-4.10947e-13
9.38418e-14
1.8562e-13
-3.56047e-13
7.16927e-14
1.50789e-13
-3.16187e-13
5.38698e-14
1.22196e-13
-2.81281e-13
3.93874e-14
1.0318e-13
-2.51054e-13
2.76226e-14
8.18625e-14
-2.31081e-13
1.83013e-14
7.64804e-14
-2.81258e-13
1.07193e-14
6.19592e-14
3.83639e-15
3.95324e-14
-1.65753e-14
-5.61518e-13
1.92142e-13
3.44203e-13
-9.20136e-13
1.51576e-13
3.5383e-13
-5.62911e-13
1.13326e-13
3.14052e-13
-4.77266e-13
8.39158e-14
2.4174e-13
-4.12751e-13
6.13152e-14
1.97206e-13
-3.58402e-13
4.37709e-14
1.54876e-13
-3.12541e-13
3.00763e-14
1.28161e-13
-2.79629e-13
1.92249e-14
1.05785e-13
-3.39594e-13
1.10975e-14
8.76555e-14
4.00945e-15
5.67743e-14
-1.98355e-14
-1.0855e-12
3.06779e-13
6.12299e-13
-1.28746e-12
1.78023e-13
6.23572e-13
-7.62538e-13
1.39296e-13
5.07596e-13
-6.28568e-13
1.00159e-13
3.84441e-13
-5.28167e-13
7.16203e-14
2.98993e-13
-4.47004e-13
5.31796e-14
2.34915e-13
-3.81148e-13
3.6363e-14
1.89173e-13
-3.31604e-13
2.29705e-14
1.5268e-13
-4.0029e-13
1.2596e-14
1.25308e-13
4.80201e-15
7.95757e-14
-2.31512e-14
-1.97144e-12
2.0604e-11
5.12523e-12
-1.77319e-12
3.76581e-13
1.09487e-12
-1.02539e-12
2.23226e-13
8.22083e-13
-8.18832e-13
1.6395e-13
5.98113e-13
-6.66844e-13
1.06986e-13
4.51753e-13
-5.49329e-13
6.62698e-14
3.42283e-13
-4.56727e-13
3.09823e-14
2.64006e-13
-3.88196e-13
1.69335e-14
2.07624e-13
-4.63379e-13
8.64931e-15
1.68652e-13
3.26889e-15
1.10912e-13
-2.65595e-14
-2.55872e-10
6.46076e-09
5.20368e-08
-2.81798e-12
3.92929e-11
8.5214e-11
-1.28553e-12
1.25667e-12
3.0704e-13
-1.06039e-12
8.05701e-13
1.18439e-13
-8.35687e-13
5.79413e-13
7.31374e-14
-6.68037e-13
4.27596e-13
5.38523e-14
-5.41457e-13
3.22516e-13
4.13157e-14
-4.48435e-13
2.47988e-13
3.24176e-14
-5.29202e-13
1.92634e-13
2.58276e-14
1.17903e-13
-3.0171e-14
2.09796e-14
3.46226e-13
8.14616e-14
2.01083e-14
-1.82356e-14
7.73639e-14
1.51199e-14
-2.20017e-14
6.82647e-14
1.74954e-14
-1.99157e-14
5.94813e-14
1.31797e-14
-1.96438e-14
5.09528e-14
7.53082e-15
-1.92062e-14
4.27459e-14
4.81236e-15
-1.89117e-14
3.48106e-14
2.38081e-15
-1.94375e-14
2.71714e-14
1.33549e-15
-2.32038e-14
1.97835e-14
8.37298e-16
1.26673e-14
6.93817e-16
-1.55887e-15
2.95319e-13
5.84509e-14
3.58711e-14
-6.59084e-14
5.37386e-14
3.26106e-14
-6.98822e-14
4.55583e-14
3.15835e-14
-6.6443e-14
3.77745e-14
2.27215e-14
-6.23658e-14
3.05866e-14
2.0746e-14
-6.16299e-14
2.38566e-14
1.35015e-14
-5.7936e-14
1.76794e-14
9.14667e-15
-5.88391e-14
1.20147e-14
5.47417e-15
-7.10288e-14
6.91382e-15
4.80542e-15
2.51951e-15
3.21044e-15
-4.3676e-15
2.17746e-13
7.4501e-14
4.73089e-14
-1.65837e-13
6.72988e-14
4.94821e-14
-1.32497e-13
5.65456e-14
5.04663e-14
-1.15727e-13
4.66628e-14
4.16979e-14
-1.12309e-13
3.76347e-14
3.15499e-14
-1.04426e-13
2.95177e-14
2.52351e-14
-9.92646e-14
2.21383e-14
1.80305e-14
-1.01577e-13
1.5372e-14
1.9373e-14
-1.20409e-13
9.27311e-15
1.24619e-14
3.49307e-15
8.86657e-15
-7.40749e-15
9.66322e-14
9.27507e-14
8.69323e-14
-2.88874e-13
8.12156e-14
8.61501e-14
-2.10323e-13
6.65524e-14
8.71283e-14
-1.80159e-13
5.36965e-14
7.28111e-14
-1.68022e-13
4.24927e-14
5.60077e-14
-1.55633e-13
3.25808e-14
4.55755e-14
-1.45275e-13
2.38349e-14
3.53253e-14
-1.46117e-13
1.62925e-14
3.52106e-14
-1.72088e-13
9.95987e-15
2.76999e-14
3.66215e-15
1.63116e-14
-1.03272e-14
-2.02369e-14
1.17117e-13
1.52089e-13
-4.4536e-13
9.89584e-14
1.54702e-13
-2.94629e-13
7.90302e-14
1.51383e-13
-2.59295e-13
6.21033e-14
1.2343e-13
-2.3636e-13
4.78835e-14
1.01348e-13
-2.15171e-13
3.60506e-14
8.15215e-14
-1.95562e-13
2.59712e-14
6.28574e-14
-1.85455e-13
1.74869e-14
5.41678e-14
-2.26095e-13
1.0123e-14
4.5703e-14
3.94483e-15
3.04817e-14
-1.33292e-14
-1.55933e-13
1.49863e-13
2.50387e-13
-6.50432e-13
1.22478e-13
2.75855e-13
-4.12929e-13
9.46933e-14
2.55771e-13
-3.57808e-13
7.23466e-14
2.02099e-13
-3.1725e-13
5.44582e-14
1.64086e-13
-2.82947e-13
3.9798e-14
1.2413e-13
-2.51677e-13
2.80404e-14
1.11951e-13
-2.31898e-13
1.84706e-14
8.50777e-14
-2.82262e-13
1.0958e-14
7.21379e-14
4.02708e-15
4.72256e-14
-1.65157e-14
-5.67801e-13
1.94043e-13
4.66377e-13
-9.25731e-13
1.53153e-13
4.89241e-13
-5.66782e-13
1.14503e-13
4.18488e-13
-4.79703e-13
8.48698e-14
3.29779e-13
-4.15316e-13
6.20344e-14
2.55819e-13
-3.60191e-13
4.44056e-14
2.04382e-13
-3.14249e-13
3.06065e-14
1.59648e-13
-2.80788e-13
1.9697e-14
1.30724e-13
-3.4118e-13
1.14691e-14
1.0711e-13
4.37795e-15
6.73633e-14
-1.97895e-14
-1.09705e-12
3.10635e-13
8.40199e-13
-1.29722e-12
1.80117e-13
8.51448e-13
-7.6829e-13
1.40958e-13
6.89626e-13
-6.33047e-13
1.01394e-13
5.19641e-13
-5.31882e-13
7.25986e-14
3.94167e-13
-4.49962e-13
5.37911e-14
3.04135e-13
-3.83758e-13
3.69565e-14
2.30819e-13
-3.33687e-13
2.35112e-14
1.8604e-13
-4.02611e-13
1.30562e-14
1.47927e-13
5.17802e-15
9.30335e-14
-2.31399e-14
-1.99697e-12
2.14682e-11
7.05265e-12
-1.78885e-12
3.83448e-13
1.50615e-12
-1.03492e-12
2.14154e-13
1.11966e-12
-8.25979e-13
1.65518e-13
8.1041e-13
-6.72708e-13
1.07968e-13
5.87723e-13
-5.54052e-13
6.66131e-14
4.32191e-13
-4.60399e-13
3.14457e-14
3.22505e-13
-3.91319e-13
1.74553e-14
2.63432e-13
-4.66859e-13
9.05661e-15
2.01831e-13
3.66355e-15
1.22442e-13
-2.66751e-14
-2.69761e-10
9.73968e-09
5.54188e-08
-2.86297e-12
5.82353e-11
9.09107e-11
-1.29565e-12
1.91296e-12
3.03752e-13
-1.06924e-12
1.19622e-12
8.37394e-14
-8.42642e-13
8.4946e-13
6.34439e-14
-6.73653e-13
6.08e-13
4.94288e-14
-5.46068e-13
4.45407e-13
3.91753e-14
-4.52374e-13
3.33296e-13
3.1574e-14
-5.33693e-13
2.60175e-13
2.58323e-14
1.55184e-13
-3.02759e-14
2.15404e-14
3.45745e-13
8.16639e-14
2.77919e-14
-1.85357e-14
7.75566e-14
2.71583e-14
-2.24752e-14
6.83984e-14
2.17933e-14
-2.03224e-14
5.95903e-14
1.69525e-14
-1.9877e-14
5.10709e-14
8.91613e-15
-1.97515e-14
4.28383e-14
5.58648e-15
-1.8668e-14
3.49041e-14
4.83283e-15
-1.93924e-14
2.72318e-14
3.16296e-15
-2.32248e-14
1.98444e-14
3.70323e-15
1.27402e-14
7.97817e-15
-1.59486e-15
2.94775e-13
5.86658e-14
4.73003e-14
-6.64735e-14
5.39316e-14
4.38916e-14
-7.05198e-14
4.57266e-14
4.27837e-14
-6.59714e-14
3.79297e-14
3.27415e-14
-6.387e-14
3.0683e-14
2.26798e-14
-6.12709e-14
2.39627e-14
1.25399e-14
-5.94974e-14
1.77671e-14
9.52722e-15
-5.85491e-14
1.21316e-14
9.47865e-15
-7.09887e-14
6.99598e-15
7.08488e-15
2.58864e-15
9.04579e-15
-4.41856e-15
2.16911e-13
7.48869e-14
6.92722e-14
-1.66985e-13
6.76165e-14
6.74462e-14
-1.32751e-13
5.68166e-14
6.81964e-14
-1.17445e-13
4.68839e-14
5.413e-14
-1.11534e-13
3.78467e-14
4.22296e-14
-1.05899e-13
2.96791e-14
2.57953e-14
-9.81105e-14
2.23182e-14
1.9363e-14
-1.02649e-13
1.54254e-14
1.6392e-14
-1.20464e-13
9.65189e-15
1.87332e-14
3.34678e-15
1.47471e-14
-7.52068e-15
9.56422e-14
9.33605e-14
1.11051e-13
-2.9046e-13
8.17411e-14
1.16144e-13
-2.10766e-13
6.69976e-14
1.16425e-13
-1.81273e-13
5.40755e-14
9.33846e-14
-1.68455e-13
4.28505e-14
7.62778e-14
-1.56432e-13
3.2919e-14
6.04011e-14
-1.45142e-13
2.40706e-14
3.90858e-14
-1.46389e-13
1.6492e-14
3.14277e-14
-1.72612e-13
9.8232e-15
2.91085e-14
4.03677e-15
2.57915e-14
-1.02364e-14
-2.19994e-14
1.18071e-13
1.94745e-13
-4.47818e-13
9.97798e-14
2.05944e-13
-2.96171e-13
7.97121e-14
1.96933e-13
-2.60494e-13
6.26402e-14
1.59178e-13
-2.37224e-13
4.83225e-14
1.2892e-13
-2.1641e-13
3.63909e-14
1.06003e-13
-1.95985e-13
2.63439e-14
7.1708e-14
-1.86837e-13
1.77032e-14
5.6529e-14
-2.26675e-13
1.05557e-14
4.69319e-14
4.14605e-15
4.15118e-14
-1.34513e-14
-1.5871e-13
1.51408e-13
3.48978e-13
-6.545e-13
1.23723e-13
3.64127e-13
-4.15716e-13
9.56718e-14
3.30358e-13
-3.59755e-13
7.31816e-14
2.64583e-13
-3.19001e-13
5.51355e-14
2.12157e-13
-2.84204e-13
4.03841e-14
1.73881e-13
-2.53233e-13
2.84763e-14
1.23324e-13
-2.3257e-13
1.88494e-14
9.10652e-14
-2.83416e-13
1.13236e-14
7.41628e-14
4.29142e-15
5.19559e-14
-1.65367e-14
-5.75658e-13
1.96452e-13
6.20597e-13
-9.32668e-13
1.55049e-13
6.34481e-13
-5.70864e-13
1.15985e-13
5.46968e-13
-4.83219e-13
8.60129e-14
4.26233e-13
-4.18039e-13
6.29421e-14
3.35806e-13
-3.62533e-13
4.51293e-14
2.6781e-13
-3.16527e-13
3.12321e-14
2.10782e-13
-2.82083e-13
2.01603e-14
1.39724e-13
-3.43132e-13
1.18112e-14
1.10882e-13
4.76467e-15
7.00976e-14
-1.97537e-14
-1.11159e-12
3.15018e-13
1.11647e-12
-1.30885e-12
1.82801e-13
1.10589e-12
-7.75353e-13
1.43149e-13
8.96093e-13
-6.38684e-13
1.03056e-13
6.74851e-13
-5.36373e-13
7.38584e-14
5.16551e-13
-4.53589e-13
5.43756e-14
4.00718e-13
-3.87084e-13
3.77446e-14
3.12368e-13
-3.36214e-13
2.42263e-14
2.0526e-13
-4.05491e-13
1.36517e-14
1.57301e-13
5.64595e-15
9.46071e-14
-2.32327e-14
-2.02558e-12
2.19678e-11
8.12689e-12
-1.80809e-12
3.8732e-13
1.95667e-12
-1.0466e-12
2.25081e-13
1.46558e-12
-8.35018e-13
1.68963e-13
1.05824e-12
-6.79847e-13
1.10544e-13
7.81524e-13
-5.59827e-13
6.87237e-14
5.8514e-13
-4.6502e-13
3.2628e-14
4.45748e-13
-3.95129e-13
1.81339e-14
3.07564e-13
-4.71207e-13
9.5051e-15
2.16086e-13
4.13823e-15
1.27036e-13
-2.66944e-14
-2.80181e-10
1.14496e-08
5.8896e-08
-2.88773e-12
6.04846e-11
9.47145e-11
-1.31242e-12
2.50518e-12
2.87238e-13
-1.08332e-12
1.6286e-12
8.39679e-14
-8.53522e-13
1.15512e-12
6.39317e-14
-6.82099e-13
8.35441e-13
4.99875e-14
-5.5298e-13
6.15898e-13
3.97696e-14
-4.5784e-13
4.53017e-13
3.22133e-14
-5.39785e-13
2.88359e-13
2.64846e-14
1.667e-13
-3.03108e-14
2.22837e-14
3.45366e-13
8.188e-14
2.57208e-14
-1.91454e-14
7.76748e-14
1.45967e-14
-2.26387e-14
6.85457e-14
1.45083e-14
-2.07491e-14
5.97048e-14
1.17947e-14
-2.01552e-14
5.1178e-14
1.28487e-14
-2.00355e-14
4.29473e-14
1.63028e-14
-1.95558e-14
3.50299e-14
2.33602e-14
-1.97081e-14
2.73968e-14
6.52062e-14
-2.31299e-14
2.00451e-14
2.66466e-13
1.29524e-14
8.99705e-13
-3.14896e-15
2.94074e-13
5.89216e-14
4.13927e-14
-6.69646e-14
5.41189e-14
2.47929e-14
-7.12395e-14
4.58662e-14
2.86669e-14
-6.63209e-14
3.80723e-14
2.37837e-14
-6.43961e-14
3.08141e-14
1.76413e-14
-6.10577e-14
2.41018e-14
2.4159e-14
-5.92845e-14
1.78959e-14
2.85162e-14
-6.05421e-14
1.22573e-14
5.28055e-14
-7.20742e-14
7.18728e-15
1.63764e-13
2.72122e-15
5.8171e-13
-3.83547e-15
2.15865e-13
7.52574e-14
5.94809e-14
-1.68106e-13
6.79069e-14
3.9454e-14
-1.33339e-13
5.70949e-14
4.70515e-14
-1.18611e-13
4.7106e-14
4.04439e-14
-1.11411e-13
3.81111e-14
3.59709e-14
-1.06038e-13
2.99344e-14
3.70146e-14
-9.92214e-14
2.25518e-14
4.20023e-14
-1.02374e-13
1.56235e-14
5.45233e-14
-1.22444e-13
9.32006e-15
1.18041e-13
3.56262e-15
3.82546e-13
-6.66719e-15
9.46184e-14
9.40293e-14
9.92352e-14
-2.91913e-13
8.22421e-14
7.46107e-14
-2.12404e-13
6.74124e-14
8.45934e-14
-1.81632e-13
5.44624e-14
7.30739e-14
-1.68928e-13
4.31507e-14
6.5139e-14
-1.57084e-13
3.31803e-14
4.87168e-14
-1.46169e-13
2.43904e-14
6.2986e-14
-1.46518e-13
1.68346e-14
6.89039e-14
-1.74625e-13
1.00239e-14
1.05561e-13
4.30472e-15
2.75328e-13
-9.74242e-15
-2.3837e-14
1.19148e-13
1.72387e-13
-4.50112e-13
1.00582e-13
1.44311e-13
-2.97469e-13
8.03904e-14
1.5098e-13
-2.61826e-13
6.32484e-14
1.2874e-13
-2.37957e-13
4.88576e-14
1.11636e-13
-2.1731e-13
3.69034e-14
1.31137e-13
-1.97034e-13
2.66252e-14
9.61853e-14
-1.88076e-13
1.79713e-14
9.58564e-14
-2.28908e-13
1.08693e-14
1.14979e-13
4.22545e-15
2.19314e-13
-1.29978e-14
-1.61807e-13
1.5305e-13
3.04691e-13
-6.58213e-13
1.24913e-13
2.71873e-13
-4.17823e-13
9.66877e-14
2.63237e-13
-3.62024e-13
7.40289e-14
2.18793e-13
-3.20116e-13
5.58689e-14
1.84426e-13
-2.8643e-13
4.09854e-14
2.02642e-13
-2.54551e-13
2.91084e-14
1.19529e-13
-2.33897e-13
1.92726e-14
1.38956e-13
-2.8614e-13
1.17343e-14
1.3989e-13
4.80321e-15
1.95703e-13
-1.63311e-14
-5.8439e-13
1.99517e-13
5.52611e-13
-9.38669e-13
1.56908e-13
4.98335e-13
-5.74863e-13
1.17464e-13
4.47411e-13
-4.86584e-13
8.72202e-14
3.59735e-13
-4.20631e-13
6.39285e-14
2.93466e-13
-3.65013e-13
4.59499e-14
3.04869e-13
-3.19301e-13
3.18953e-14
2.48868e-13
-2.84e-13
2.07265e-14
1.93655e-13
-3.46472e-13
1.22218e-14
1.79903e-13
5.08048e-15
1.9335e-13
-1.95874e-14
-1.12692e-12
3.17371e-13
1.09734e-12
-1.31894e-12
1.87579e-13
8.88029e-13
-7.82016e-13
1.45433e-13
7.43747e-13
-6.44061e-13
1.04799e-13
5.76869e-13
-5.40819e-13
7.52788e-14
4.90345e-13
-4.57242e-13
5.47029e-14
4.56614e-13
-3.91239e-13
3.87612e-14
4.00274e-13
-3.39159e-13
2.49721e-14
2.25745e-13
-4.09996e-13
1.43419e-14
2.3544e-13
6.22226e-15
2.07e-13
-2.31169e-14
-2.02311e-12
1.55711e-11
5.43143e-12
-1.82832e-12
3.50566e-13
1.55724e-12
-1.05759e-12
2.58214e-13
1.28167e-12
-8.43499e-13
1.72747e-13
9.95121e-13
-6.87092e-13
1.1342e-13
8.04561e-13
-5.65352e-13
7.11373e-14
6.76739e-13
-4.71139e-13
3.40443e-14
5.67027e-13
-3.9931e-13
1.89946e-14
2.84257e-13
-4.77155e-13
1.00506e-14
3.0322e-13
4.72231e-15
2.32985e-13
-2.66985e-14
-2.10641e-10
2.58621e-09
5.33096e-08
-2.57467e-12
6.1448e-12
4.87696e-11
-1.34099e-12
2.25401e-12
9.6281e-14
-1.09717e-12
1.66065e-12
8.38145e-14
-8.64461e-13