/*--------------------------------*- C++ -*----------------------------------*\
| =========                 |                                                 |
| \\      /  F ield         | OpenFOAM: The Open Source CFD Toolbox           |
|  \\    /   O peration     | Version:  4.1                                   |
|   \\  /    A nd           | Web:      www.OpenFOAM.org                      |
|    \\/     M anipulation  |                                                 |
\*---------------------------------------------------------------------------*/
FoamFile
{
    version     2.0;
    format      ascii;
    class       volVectorField;
    location    "0.38";
    object      U;
}
// * * * * * * * * * * * * * * * * * * * * * * * * * * * * * * * * * * * * * //

dimensions      [0 1 -1 0 0 0 0];

internalField   nonuniform List<vector> 
18000
(
(7.98053e-14 3.9068e-13 -6.32455e-12)
(8.59904e-14 3.89185e-13 -6.25177e-12)
(7.77845e-14 -9.957e-15 -6.17968e-12)
(6.97719e-14 -1.18742e-14 -6.10873e-12)
(6.1978e-14 -1.16955e-14 -6.03865e-12)
(5.43827e-14 -1.14771e-14 -5.96949e-12)
(4.70183e-14 -1.14186e-14 -5.90119e-12)
(3.98985e-14 -1.13637e-14 -5.834e-12)
(3.29644e-14 -1.12249e-14 -5.76777e-12)
(2.62511e-14 -8.8776e-15 -5.70331e-12)
(1.09761e-13 4.04228e-13 -7.9462e-12)
(1.25946e-13 3.93819e-13 -7.66102e-12)
(1.10825e-13 -4.18278e-14 -7.38647e-12)
(9.65331e-14 -4.2489e-14 -7.12437e-12)
(8.32121e-14 -4.1067e-14 -6.87354e-12)
(7.07648e-14 -3.95949e-14 -6.63346e-12)
(5.90768e-14 -3.81846e-14 -6.4034e-12)
(4.82061e-14 -3.69211e-14 -6.18314e-12)
(3.79956e-14 -3.56519e-14 -5.97177e-12)
(2.84814e-14 -2.76542e-14 -5.772e-12)
(1.15174e-13 4.11232e-13 -1.01101e-11)
(1.29233e-13 3.89223e-13 -9.48228e-12)
(1.07317e-13 -8.7048e-14 -8.89764e-12)
(8.7657e-14 -8.40394e-14 -8.35706e-12)
(7.01212e-14 -7.88689e-14 -7.8559e-12)
(5.44612e-14 -7.42637e-14 -7.39104e-12)
(4.04392e-14 -7.00061e-14 -6.95974e-12)
(2.79005e-14 -6.60385e-14 -6.55874e-12)
(1.66815e-14 -6.23353e-14 -6.18574e-12)
(6.67505e-15 -4.71981e-14 -5.84185e-12)
(1.53989e-13 4.0653e-13 -1.30406e-11)
(1.62871e-13 3.69359e-13 -1.18614e-11)
(1.31037e-13 -1.51033e-13 -1.08055e-11)
(1.03833e-13 -1.39909e-13 -9.86082e-12)
(8.06742e-14 -1.27811e-13 -9.0158e-12)
(6.09102e-14 -1.17011e-13 -8.25786e-12)
(4.40896e-14 -1.07357e-13 -7.57639e-12)
(2.96427e-14 -9.8719e-14 -6.96258e-12)
(1.732e-14 -9.08253e-14 -6.40876e-12)
(6.79279e-15 -6.73735e-14 -5.91286e-12)
(2.10399e-13 3.80116e-13 -1.70762e-11)
(2.08595e-13 3.24045e-13 -1.50107e-11)
(1.61945e-13 -2.41977e-13 -1.32364e-11)
(1.24029e-13 -2.15806e-13 -1.17091e-11)
(9.33865e-14 -1.90921e-13 -1.03925e-11)
(6.84988e-14 -1.69586e-13 -9.25224e-12)
(4.81881e-14 -1.51351e-13 -8.2614e-12)
(3.15805e-14 -1.35606e-13 -7.39768e-12)
(1.80009e-14 -1.21677e-13 -6.64179e-12)
(6.88574e-15 -8.83375e-14 -5.98529e-12)
(2.94564e-13 3.15581e-13 -2.27353e-11)
(2.7224e-13 2.35922e-13 -1.92394e-11)
(2.02829e-13 -3.72669e-13 -1.63682e-11)
(1.4956e-13 -3.19027e-13 -1.39982e-11)
(1.08795e-13 -2.72566e-13 -1.20346e-11)
(7.72728e-14 -2.3461e-13 -1.03971e-11)
(5.2775e-14 -2.03274e-13 -9.02398e-12)
(3.36775e-14 -1.77064e-13 -7.86655e-12)
(1.87284e-14 -1.54873e-13 -6.88531e-12)
(6.99363e-15 -1.10096e-13 -6.05855e-12)
(4.238e-13 1.83397e-13 -3.08292e-11)
(3.62651e-13 7.54819e-14 -2.5008e-11)
(2.57696e-13 -5.62934e-13 -2.04484e-11)
(1.82088e-13 -4.61031e-13 -1.6857e-11)
(1.27451e-13 -3.79009e-13 -1.40051e-11)
(8.74016e-14 -3.15074e-13 -1.17199e-11)
(5.78199e-14 -2.64412e-13 -9.87428e-12)
(3.5819e-14 -2.23815e-13 -8.37206e-12)
(1.93653e-14 -1.90773e-13 -7.14015e-12)
(6.99933e-15 -1.32678e-13 -6.13301e-12)
(-2.38814e-13 -6.99307e-14 -4.26763e-11)
(-3.51625e-13 -2.09312e-13 -3.30071e-11)
(-4.63627e-13 -8.43913e-13 -2.58312e-11)
(-5.26975e-13 -6.5789e-13 -2.04579e-11)
(-5.60443e-13 -5.18361e-13 -1.63833e-11)
(-5.75103e-13 -4.15048e-13 -1.32551e-11)
(-5.77926e-13 -3.36769e-13 -1.08257e-11)
(-5.73298e-13 -2.76495e-13 -8.91903e-12)
(-5.64085e-13 -2.2936e-13 -7.40714e-12)
(-5.57398e-13 -1.56096e-13 -6.20964e-12)
(-3.10514e-09 -6.44949e-13 -7.04285e-11)
(-3.02279e-09 -6.52901e-13 -5.30571e-11)
(-2.83304e-09 -1.13194e-12 -4.07073e-11)
(-2.66412e-09 -8.12257e-13 -3.18194e-11)
(-2.51342e-09 -5.9311e-13 -2.53058e-11)
(-2.37829e-09 -4.40832e-13 -2.04421e-11)
(-2.25653e-09 -3.32692e-13 -1.67495e-11)
(-2.14632e-09 -2.54496e-13 -1.3903e-11)
(-2.0462e-09 -2.10822e-13 -1.1677e-11)
(-1.97743e-09 -1.89673e-13 -9.96278e-12)
(3.29594e-07 -4.45661e-10 -3.73689e-08)
(2.72744e-08 1.84612e-10 -3.22939e-08)
(2.23951e-08 4.7038e-10 -2.80819e-08)
(1.88526e-08 4.20379e-10 -2.4624e-08)
(1.58945e-08 3.76119e-10 -2.1755e-08)
(1.33981e-08 3.38014e-10 -1.93511e-08)
(1.12714e-08 3.05091e-10 -1.73186e-08)
(9.44387e-09 2.7638e-10 -1.5586e-08)
(7.74844e-09 1.9153e-10 -1.40982e-08)
(-5.20069e-08 -6.07082e-11 -1.29617e-08)
(2.65409e-13 3.68063e-13 -6.53806e-12)
(2.48499e-13 3.44552e-13 -6.46169e-12)
(2.17951e-13 -5.41509e-14 -6.38596e-12)
(1.88585e-13 -5.55576e-14 -6.31105e-12)
(1.60351e-13 -5.49466e-14 -6.2374e-12)
(1.33183e-13 -5.42926e-14 -6.16508e-12)
(1.07049e-13 -5.37231e-14 -6.0931e-12)
(8.19384e-14 -5.31076e-14 -6.02273e-12)
(5.77087e-14 -5.21383e-14 -5.95328e-12)
(3.47191e-14 -3.02144e-14 -5.88542e-12)
(5.34053e-13 3.19259e-13 -8.2433e-12)
(4.91496e-13 2.28514e-13 -7.94289e-12)
(4.21171e-13 -2.01651e-13 -7.65343e-12)
(3.55533e-13 -1.9639e-13 -7.37731e-12)
(2.9437e-13 -1.8949e-13 -7.11368e-12)
(2.37342e-13 -1.82835e-13 -6.86117e-12)
(1.84165e-13 -1.76427e-13 -6.61977e-12)
(1.34562e-13 -1.70435e-13 -6.38861e-12)
(8.82323e-14 -1.63556e-13 -6.16733e-12)
(4.54172e-14 -9.29959e-14 -5.95764e-12)
(6.57463e-13 2.32292e-13 -1.05318e-11)
(5.83379e-13 4.70103e-14 -9.86592e-12)
(4.82602e-13 -4.09197e-13 -9.24766e-12)
(3.92419e-13 -3.8626e-13 -8.67605e-12)
(3.12123e-13 -3.62851e-13 -8.14754e-12)
(2.40531e-13 -3.41117e-13 -7.65801e-12)
(1.76649e-13 -3.21025e-13 -7.20437e-12)
(1.19638e-13 -3.02453e-13 -6.78307e-12)
(6.88374e-14 -2.83738e-13 -6.39167e-12)
(2.38617e-14 -1.58853e-13 -6.03154e-12)
(8.56037e-13 8.55895e-14 -1.36502e-11)
(7.32608e-13 -2.32041e-13 -1.23924e-11)
(5.87948e-13 -7.00521e-13 -1.12698e-11)
(4.64237e-13 -6.41148e-13 -1.02671e-11)
(3.58971e-13 -5.85316e-13 -9.37254e-12)
(2.69168e-13 -5.35571e-13 -8.57195e-12)
(1.92553e-13 -4.90973e-13 -7.85381e-12)
(1.27158e-13 -4.50793e-13 -7.20842e-12)
(7.1339e-14 -4.12517e-13 -6.62627e-12)
(2.4268e-14 -2.27262e-13 -6.10637e-12)
(1.13229e-12 -1.55487e-13 -1.7977e-11)
(9.31504e-13 -6.58211e-13 -1.57587e-11)
(7.22906e-13 -1.11006e-12 -1.3861e-11)
(5.52919e-13 -9.83361e-13 -1.22316e-11)
(4.14772e-13 -8.70981e-13 -1.08322e-11)
(3.02173e-13 -7.74223e-13 -9.62418e-12)
(2.10319e-13 -6.90345e-13 -8.57717e-12)
(1.35333e-13 -6.17518e-13 -7.6669e-12)
(7.40318e-14 -5.51062e-13 -6.87191e-12)
(2.45952e-14 -2.98656e-13 -6.1832e-12)
(1.52375e-12 -5.46081e-13 -2.41009e-11)
(1.20097e-12 -1.30759e-12 -2.03112e-11)
(8.9785e-13 -1.68868e-12 -1.72198e-11)
(6.63322e-13 -1.44415e-12 -1.46767e-11)
(4.81622e-13 -1.23806e-12 -1.25804e-11)
(3.40267e-13 -1.06731e-12 -1.08393e-11)
(2.30092e-13 -9.24585e-13 -9.38477e-12)
(1.44073e-13 -8.04816e-13 -8.1627e-12)
(7.68943e-14 -7.00064e-13 -7.12964e-12)
(2.49013e-14 -3.72946e-13 -6.26148e-12)
(2.0917e-12 -1.17642e-12 -3.29541e-11)
(1.57146e-12 -2.30049e-12 -2.65775e-11)
(1.12721e-12 -2.51232e-12 -2.16266e-11)
(8.01765e-13 -2.0671e-12 -1.77469e-11)
(5.62056e-13 -1.71121e-12 -1.4687e-11)
(3.8442e-13 -1.42783e-12 -1.22482e-11)
(2.52197e-13 -1.19982e-12 -1.02875e-11)
(1.53541e-13 -1.01516e-12 -8.69859e-12)
(7.98356e-14 -8.60257e-13 -7.3991e-12)
(2.53084e-14 -4.50534e-13 -6.34151e-12)
(2.96133e-12 -2.20564e-12 -4.60859e-11)
(2.08603e-12 -3.83472e-12 -3.53584e-11)
(1.42662e-12 -3.69384e-12 -2.74884e-11)
(9.70427e-13 -2.91398e-12 -2.16403e-11)
(6.51835e-13 -2.32233e-12 -1.72435e-11)
(4.27153e-13 -1.87163e-12 -1.38898e-11)
(2.6752e-13 -1.52353e-12 -1.13012e-11)
(1.53598e-13 -1.25176e-12 -9.27942e-12)
(7.20302e-14 -1.03245e-12 -7.68264e-12)
(1.4255e-14 -5.31189e-13 -6.42384e-12)
(-3.79134e-11 -4.15706e-12 -7.61361e-11)
(-1.29342e-10 -6.46485e-12 -5.67253e-11)
(-1.05569e-10 -5.54692e-12 -4.31395e-11)
(-8.69183e-11 -4.19668e-12 -3.3473e-11)
(-7.23888e-11 -3.22549e-12 -2.64664e-11)
(-6.09094e-11 -2.51825e-12 -2.12801e-11)
(-5.17269e-11 -1.9936e-12 -1.73712e-11)
(-4.4299e-11 -1.59862e-12 -1.43766e-11)
(-3.82312e-11 -1.29138e-12 -1.20459e-11)
(-3.32624e-11 -6.81883e-13 -1.02589e-11)
(2.09346e-07 -1.03199e-09 -3.92512e-08)
(-5.15836e-09 -8.41209e-10 -3.37465e-08)
(-5.08888e-09 -4.63335e-10 -2.91699e-08)
(-4.66289e-09 -4.12671e-10 -2.54541e-08)
(-4.2795e-09 -3.70179e-10 -2.2399e-08)
(-3.94023e-09 -3.3345e-10 -1.98582e-08)
(-3.64165e-09 -3.01602e-10 -1.77233e-08)
(-3.37949e-09 -2.7388e-10 -1.59128e-08)
(-3.15583e-09 -2.4974e-10 -1.4365e-08)
(-3.72164e-09 -2.42156e-10 -1.3182e-08)
(2.2954e-13 3.73178e-13 -2.1962e-13)
(2.16592e-13 3.48379e-13 -2.15487e-13)
(1.89904e-13 -5.05566e-14 -2.10969e-13)
(1.64432e-13 -5.20176e-14 -2.06612e-13)
(1.40066e-13 -5.11787e-14 -2.02585e-13)
(1.16618e-13 -5.06485e-14 -1.98614e-13)
(9.43133e-14 -5.01646e-14 -1.94745e-13)
(7.28888e-14 -4.94473e-14 -1.9128e-13)
(5.2373e-14 -4.86446e-14 -1.87756e-13)
(3.29995e-14 -2.55334e-14 -1.84395e-13)
(5.0121e-13 3.38193e-13 -3.06122e-13)
(4.62655e-13 2.4183e-13 -2.89924e-13)
(3.96306e-13 -1.88871e-13 -2.74018e-13)
(3.34449e-13 -1.83753e-13 -2.58861e-13)
(2.76971e-13 -1.7715e-13 -2.45323e-13)
(2.23434e-13 -1.70793e-13 -2.3248e-13)
(1.73675e-13 -1.64616e-13 -2.20189e-13)
(1.27268e-13 -1.58843e-13 -2.08738e-13)
(8.40068e-14 -1.52338e-13 -1.98732e-13)
(4.42196e-14 -7.91382e-14 -1.88508e-13)
(6.19526e-13 2.71081e-13 -4.36307e-13)
(5.505e-13 7.2476e-14 -3.96519e-13)
(4.54702e-13 -3.84788e-13 -3.60821e-13)
(3.69124e-13 -3.62855e-13 -3.28424e-13)
(2.93153e-13 -3.40134e-13 -2.99606e-13)
(2.25673e-13 -3.19323e-13 -2.73407e-13)
(1.65606e-13 -3.00162e-13 -2.50286e-13)
(1.12201e-13 -2.82474e-13 -2.29272e-13)
(6.45498e-14 -2.64394e-13 -2.10039e-13)
(2.26776e-14 -1.35297e-13 -1.93671e-13)
(8.12876e-13 1.5373e-13 -6.3366e-13)
(6.95669e-13 -1.91387e-13 -5.51987e-13)
(5.56919e-13 -6.6202e-13 -4.81581e-13)
(4.38647e-13 -6.04774e-13 -4.20465e-13)
(3.38458e-13 -5.50724e-13 -3.68632e-13)
(2.53343e-13 -5.02755e-13 -3.24028e-13)
(1.80984e-13 -4.59814e-13 -2.85778e-13)
(1.19462e-13 -4.21647e-13 -2.52829e-13)
(6.70862e-14 -3.85086e-13 -2.23896e-13)
(2.31047e-14 -1.94267e-13 -1.99029e-13)
(1.0851e-12 -4.46423e-14 -9.42367e-13)
(8.90665e-13 -5.9959e-13 -7.82141e-13)
(6.88861e-13 -1.05517e-12 -6.52022e-13)
(5.24987e-13 -9.32089e-13 -5.44932e-13)
(3.92667e-13 -8.22614e-13 -4.57734e-13)
(2.85381e-13 -7.29094e-13 -3.86523e-13)
(1.98268e-13 -6.48388e-13 -3.28077e-13)
(1.27429e-13 -5.7863e-13 -2.79849e-13)
(6.98533e-14 -5.14869e-13 -2.39212e-13)
(2.35818e-14 -2.55702e-13 -2.05704e-13)
(1.47569e-12 -3.74306e-13 -1.43804e-12)
(1.15771e-12 -1.23078e-12 -1.12938e-12)
(8.61232e-13 -1.61561e-12 -8.95885e-13)
(6.33137e-13 -1.3763e-12 -7.13269e-13)
(4.57903e-13 -1.17439e-12 -5.73281e-13)
(3.22453e-13 -1.00846e-12 -4.64137e-13)
(2.17529e-13 -8.7054e-13 -3.7877e-13)
(1.36095e-13 -7.55472e-13 -3.11227e-13)
(7.26797e-14 -6.54952e-13 -2.56312e-13)
(2.40341e-14 -3.20461e-13 -2.13508e-13)
(2.05075e-12 -9.15885e-13 -2.25275e-12)
(1.52944e-12 -2.20977e-12 -1.6656e-12)
(1.0895e-12 -2.42256e-12 -1.24913e-12)
(7.7004e-13 -1.98215e-12 -9.43771e-13)
(5.37066e-13 -1.63091e-12 -7.2326e-13)
(3.6573e-13 -1.35412e-12 -5.60401e-13)
(2.39214e-13 -1.13278e-12 -4.38975e-13)
(1.45377e-13 -9.55033e-13 -3.47186e-13)
(7.56167e-14 -8.05987e-13 -2.75791e-13)
(2.45096e-14 -3.8804e-13 -2.22451e-13)
(2.95027e-12 -1.81774e-12 -3.64039e-12)
(2.05819e-12 -3.74703e-12 -2.51213e-12)
(1.39697e-12 -3.59373e-12 -1.77133e-12)
(9.45255e-13 -2.81357e-12 -1.26427e-12)
(6.3379e-13 -2.22557e-12 -9.20647e-13)
(4.16514e-13 -1.78247e-12 -6.80747e-13)
(2.63651e-13 -1.44298e-12 -5.10776e-13)
(1.55522e-13 -1.18038e-12 -3.88067e-13)
(7.87739e-14 -9.6884e-13 -2.97944e-13)
(2.49028e-14 -4.5898e-13 -2.31838e-13)
(1.15934e-10 -3.41524e-12 -6.12625e-12)
(3.54321e-13 -6.27147e-12 -3.9316e-12)
(-2.1692e-13 -5.32052e-12 -2.60872e-12)
(-2.68406e-13 -3.96782e-12 -1.77551e-12)
(-2.93079e-13 -3.00664e-12 -1.24754e-12)
(-2.99032e-13 -2.31758e-12 -9.01544e-13)
(-2.93617e-13 -1.81278e-12 -6.69477e-13)
(-2.81432e-13 -1.43747e-12 -5.1026e-13)
(-2.65945e-13 -1.1476e-12 -3.97868e-13)
(-2.44234e-13 -5.36218e-13 -3.19597e-13)
(1.84816e-07 -3.96515e-10 -1.98549e-09)
(1.63538e-10 -3.62454e-10 -1.48488e-09)
(-1.50519e-10 -4.74899e-11 -1.10868e-09)
(-1.20398e-10 -3.51806e-11 -8.43674e-10)
(-9.70686e-11 -2.72078e-11 -6.53193e-10)
(-7.9207e-11 -2.13572e-11 -5.13483e-10)
(-6.53482e-11 -1.69925e-11 -4.09184e-10)
(-5.4484e-11 -1.36868e-11 -3.30078e-10)
(-4.60121e-11 -1.11302e-11 -2.69235e-10)
(-4.53438e-11 -8.87155e-12 -2.22065e-10)
(2.26922e-13 3.73378e-13 -1.07874e-14)
(2.1428e-13 3.48233e-13 -9.97955e-15)
(1.87912e-13 -5.0647e-14 -7.94366e-15)
(1.62675e-13 -5.19514e-14 -6.86932e-15)
(1.38595e-13 -5.12787e-14 -5.53571e-15)
(1.15531e-13 -5.06509e-14 -4.53829e-15)
(9.34284e-14 -4.99687e-14 -3.71699e-15)
(7.22682e-14 -4.92995e-14 -2.82615e-15)
(5.20834e-14 -4.83736e-14 -2.45535e-15)
(3.2947e-14 -2.52103e-14 -2.45775e-15)
(4.98134e-13 3.39553e-13 -1.60484e-14)
(4.60061e-13 2.42757e-13 -1.43054e-14)
(3.94141e-13 -1.88094e-13 -1.22021e-14)
(3.32684e-13 -1.82962e-13 -1.00705e-14)
(2.75546e-13 -1.76153e-13 -8.08681e-15)
(2.22362e-13 -1.69953e-13 -6.93313e-15)
(1.7293e-13 -1.639e-13 -5.69823e-15)
(1.26836e-13 -1.57865e-13 -4.79305e-15)
(8.38358e-14 -1.51316e-13 -4.1274e-15)
(4.43349e-14 -7.80777e-14 -3.61751e-15)
(6.15491e-13 2.74513e-13 -2.6041e-14)
(5.4733e-13 7.48658e-14 -2.30354e-14)
(4.52143e-13 -3.82594e-13 -1.92228e-14)
(3.67129e-13 -3.60743e-13 -1.57796e-14)
(2.91664e-13 -3.38363e-13 -1.33511e-14)
(2.24586e-13 -3.17545e-13 -1.10115e-14)
(1.6496e-13 -2.98299e-13 -9.12097e-15)
(1.11896e-13 -2.8084e-13 -7.87614e-15)
(6.4561e-14 -2.62716e-13 -6.63194e-15)
(2.29369e-14 -1.33434e-13 -6.42084e-15)
(8.07564e-13 1.60819e-13 -4.3593e-14)
(6.91644e-13 -1.86458e-13 -3.8208e-14)
(5.53888e-13 -6.58032e-13 -3.17156e-14)
(4.36428e-13 -6.01131e-13 -2.58761e-14)
(3.36881e-13 -5.47369e-13 -2.14845e-14)
(2.52362e-13 -4.99746e-13 -1.80993e-14)
(1.80473e-13 -4.57105e-13 -1.506e-14)
(1.19367e-13 -4.19016e-13 -1.27341e-14)
(6.73378e-14 -3.82663e-13 -1.11459e-14)
(2.35392e-14 -1.92023e-13 -9.88694e-15)
(1.07807e-12 -3.17167e-14 -7.6106e-14)
(8.85689e-13 -5.91167e-13 -6.42451e-14)
(6.85299e-13 -1.04818e-12 -5.16746e-14)
(5.2261e-13 -9.262e-13 -4.19401e-14)
(3.91163e-13 -8.1771e-13 -3.43541e-14)
(2.84539e-13 -7.24646e-13 -2.79841e-14)
(1.9798e-13 -6.44331e-13 -2.3488e-14)
(1.27599e-13 -5.75151e-13 -2.0305e-14)
(7.01727e-14 -5.11972e-13 -1.77438e-14)
(2.42047e-14 -2.52909e-13 -1.5351e-14)
(1.46602e-12 -3.5078e-13 -1.3326e-13)
(1.15145e-12 -1.21679e-12 -1.08137e-13)
(8.57089e-13 -1.60486e-12 -8.50441e-14)
(6.30589e-13 -1.36752e-12 -6.73556e-14)
(4.56522e-13 -1.16728e-12 -5.39325e-14)
(3.21892e-13 -1.00254e-12 -4.37579e-14)
(2.17541e-13 -8.65473e-13 -3.60924e-14)
(1.36447e-13 -7.51526e-13 -3.01439e-14)
(7.32871e-14 -6.51589e-13 -2.5029e-14)
(2.48211e-14 -3.17039e-13 -2.18323e-14)
(2.03737e-12 -8.73872e-13 -2.35451e-13)
(1.52123e-12 -2.18732e-12 -1.82948e-13)
(1.08464e-12 -2.4062e-12 -1.38012e-13)
(7.67297e-13 -1.96964e-12 -1.06264e-13)
(5.35776e-13 -1.62138e-12 -8.27846e-14)
(3.65456e-13 -1.34657e-12 -6.55803e-14)
(2.39481e-13 -1.12681e-12 -5.27159e-14)
(1.4599e-13 -9.50419e-13 -4.30762e-14)
(7.65971e-14 -8.02338e-13 -3.57471e-14)
(2.54325e-14 -3.84502e-13 -2.98894e-14)
(2.93071e-12 -1.74287e-12 -4.22888e-13)
(2.0464e-12 -3.71183e-12 -3.07476e-13)
(1.39057e-12 -3.56959e-12 -2.22922e-13)
(9.42104e-13 -2.79662e-12 -1.64303e-13)
(6.32609e-13 -2.21301e-12 -1.23834e-13)
(4.16499e-13 -1.77335e-12 -9.54662e-14)
(2.64269e-13 -1.43632e-12 -7.4416e-14)
(1.565e-13 -1.17521e-12 -5.93459e-14)
(7.99628e-14 -9.65236e-13 -4.83419e-14)
(2.62023e-14 -4.55396e-13 -3.94286e-14)
(1.2434e-10 -3.27808e-12 -7.65531e-13)
(3.2126e-12 -6.21509e-12 -5.11608e-13)
(1.77416e-12 -5.28165e-12 -3.52251e-13)
(1.14564e-12 -3.94165e-12 -2.49513e-13)
(7.36382e-13 -2.98828e-12 -1.8126e-13)
(4.65319e-13 -2.30429e-12 -1.35147e-13)
(2.83885e-13 -1.80283e-12 -1.02867e-13)
(1.61448e-13 -1.42975e-12 -8.0002e-14)
(7.82846e-14 -1.14129e-12 -6.33082e-14)
(2.26076e-14 -5.29761e-13 -5.1244e-14)
(1.84443e-07 -3.42106e-10 -1.26121e-10)
(3.61887e-10 -3.24355e-10 -3.36568e-11)
(-8.58082e-13 -1.01338e-11 -2.14038e-11)
(-9.8354e-13 -6.27631e-12 -1.40676e-11)
(-7.30607e-13 -4.51043e-12 -9.53357e-12)
(-5.60481e-13 -3.31663e-12 -6.62329e-12)
(-4.40408e-13 -2.48664e-12 -4.70227e-12)
(-3.53716e-13 -1.89802e-12 -3.40177e-12)
(-2.91108e-13 -1.46465e-12 -2.50304e-12)
(-2.76174e-13 -7.0746e-13 -1.84224e-12)
(2.27309e-13 3.73269e-13 -1.08412e-14)
(2.14581e-13 3.47672e-13 -9.87734e-15)
(1.88205e-13 -5.13665e-14 -7.48611e-15)
(1.62899e-13 -5.25596e-14 -5.5411e-15)
(1.38765e-13 -5.16975e-14 -4.09333e-15)
(1.15615e-13 -5.09708e-14 -2.90707e-15)
(9.35674e-14 -5.04527e-14 -2.08004e-15)
(7.24493e-14 -4.95632e-14 -1.19086e-15)
(5.21906e-14 -4.84119e-14 -4.83722e-16)
(3.30337e-14 -2.54058e-14 -3.53027e-16)
(4.99106e-13 3.39231e-13 -1.60852e-14)
(4.60892e-13 2.42041e-13 -1.42715e-14)
(3.94868e-13 -1.88882e-13 -1.10387e-14)
(3.33221e-13 -1.83809e-13 -8.96884e-15)
(2.76063e-13 -1.769e-13 -6.29639e-15)
(2.22789e-13 -1.70331e-13 -4.76645e-15)
(1.73298e-13 -1.64131e-13 -3.71989e-15)
(1.27227e-13 -1.58211e-13 -3.15185e-15)
(8.41812e-14 -1.51608e-13 -2.29999e-15)
(4.468e-14 -7.8156e-14 -1.52342e-15)
(6.17192e-13 2.73976e-13 -2.60354e-14)
(5.48848e-13 7.37666e-14 -2.30244e-14)
(4.53424e-13 -3.83986e-13 -1.86964e-14)
(3.68175e-13 -3.61852e-13 -1.46668e-14)
(2.92605e-13 -3.39014e-13 -1.19729e-14)
(2.25441e-13 -3.18258e-13 -9.70587e-15)
(1.65657e-13 -2.98915e-13 -7.80431e-15)
(1.12515e-13 -2.81189e-13 -6.4946e-15)
(6.51328e-14 -2.62905e-13 -5.85983e-15)
(2.34888e-14 -1.33652e-13 -5.06301e-15)
(8.10572e-13 1.59804e-13 -4.46831e-14)
(6.94281e-13 -1.88278e-13 -3.90063e-14)
(5.56023e-13 -6.60017e-13 -3.21454e-14)
(4.38235e-13 -6.02872e-13 -2.61226e-14)
(3.38412e-13 -5.48662e-13 -2.13873e-14)
(2.53611e-13 -5.00822e-13 -1.77087e-14)
(1.81593e-13 -4.58034e-13 -1.51588e-14)
(1.20361e-13 -4.19782e-13 -1.28821e-14)
(6.82567e-14 -3.83213e-13 -1.11183e-14)
(2.43212e-14 -1.92071e-13 -1.02673e-14)
(1.08313e-12 -3.36881e-14 -7.80379e-14)
(8.89935e-13 -5.9473e-13 -6.75186e-14)
(6.88742e-13 -1.05189e-12 -5.47318e-14)
(5.25406e-13 -9.29036e-13 -4.43852e-14)
(3.93477e-13 -8.19988e-13 -3.6955e-14)
(2.86467e-13 -7.26647e-13 -3.0695e-14)
(1.99622e-13 -6.45813e-13 -2.55764e-14)
(1.28968e-13 -5.76194e-13 -2.19675e-14)
(7.14129e-14 -5.12861e-13 -1.91933e-14)
(2.52549e-14 -2.535e-13 -1.68107e-14)
(1.47447e-12 -3.55088e-13 -1.37688e-13)
(1.15832e-12 -1.22344e-12 -1.1492e-13)
(8.62469e-13 -1.61102e-12 -9.17794e-14)
(6.34874e-13 -1.3726e-12 -7.35622e-14)
(4.59903e-13 -1.17124e-12 -5.97124e-14)
(3.24683e-13 -1.00574e-12 -4.94761e-14)
(2.19795e-13 -8.68154e-13 -4.07322e-14)
(1.3831e-13 -7.53629e-13 -3.4365e-14)
(7.48226e-14 -6.53272e-13 -2.9563e-14)
(2.60981e-14 -3.17968e-13 -2.54296e-14)
(2.05157e-12 -8.8241e-13 -2.43494e-13)
(1.53226e-12 -2.20016e-12 -1.95948e-13)
(1.09289e-12 -2.41755e-12 -1.5187e-13)
(7.73609e-13 -1.97846e-12 -1.18403e-13)
(5.40657e-13 -1.62827e-12 -9.43691e-14)
(3.69237e-13 -1.35212e-12 -7.57878e-14)
(2.4246e-13 -1.13124e-12 -6.15207e-14)
(1.484e-13 -9.53827e-13 -5.07901e-14)
(7.8512e-14 -8.05193e-13 -4.27126e-14)
(2.7036e-14 -3.86172e-13 -3.60332e-14)
(2.9547e-12 -1.7603e-12 -4.33528e-13)
(2.06396e-12 -3.73667e-12 -3.32175e-13)
(1.40315e-12 -3.58974e-12 -2.46756e-13)
(9.51314e-13 -2.8119e-12 -1.86932e-13)
(6.39412e-13 -2.22482e-12 -1.44089e-13)
(4.21613e-13 -1.7825e-12 -1.12704e-13)
(2.68184e-13 -1.44347e-12 -8.95576e-14)
(1.59517e-13 -1.18084e-12 -7.20691e-14)
(8.22568e-14 -9.69621e-13 -5.88726e-14)
(2.79962e-14 -4.58001e-13 -4.92721e-14)
(1.26191e-10 -3.31434e-12 -7.91816e-13)
(3.30612e-12 -6.26311e-12 -5.62405e-13)
(1.8196e-12 -5.318e-12 -3.98945e-13)
(1.17489e-12 -3.96813e-12 -2.8972e-13)
(7.55914e-13 -3.00786e-12 -2.15281e-13)
(4.78797e-13 -2.31898e-12 -1.63161e-13)
(2.93378e-13 -1.81401e-12 -1.25498e-13)
(1.68236e-13 -1.43844e-12 -9.86732e-14)
(8.32146e-14 -1.14819e-12 -7.84371e-14)
(2.61304e-14 -5.33643e-13 -6.34909e-14)
(1.91233e-07 -3.46386e-10 -7.88636e-11)
(3.87187e-10 -3.27284e-10 -1.88339e-12)
(2.20166e-12 -9.15609e-12 -9.19014e-13)
(1.1293e-12 -5.5924e-12 -5.99761e-13)
(7.51713e-13 -4.0435e-12 -4.07635e-13)
(5.04386e-13 -2.99088e-12 -2.87445e-13)
(3.38776e-13 -2.25506e-12 -2.08436e-13)
(2.26193e-13 -1.73044e-12 -1.5469e-13)
(1.48674e-13 -1.34154e-12 -1.17106e-13)
(9.52044e-14 -6.13958e-13 -9.03622e-14)
(2.27864e-13 3.72973e-13 -1.3683e-14)
(2.15039e-13 3.46904e-13 -1.17396e-14)
(1.88524e-13 -5.23573e-14 -9.45679e-15)
(1.63219e-13 -5.32915e-14 -6.8718e-15)
(1.38941e-13 -5.23183e-14 -5.1213e-15)
(1.15803e-13 -5.14434e-14 -3.12424e-15)
(9.36644e-14 -5.06437e-14 -2.04557e-15)
(7.25582e-14 -4.9931e-14 -1.4008e-15)
(5.23534e-14 -4.8701e-14 -6.64965e-16)
(3.31244e-14 -2.53325e-14 -5.32595e-16)
(5.00441e-13 3.38751e-13 -2.0185e-14)
(4.62054e-13 2.40797e-13 -1.77559e-14)
(3.95802e-13 -1.90125e-13 -1.35117e-14)
(3.34039e-13 -1.84789e-13 -1.06951e-14)
(2.76715e-13 -1.7778e-13 -8.23061e-15)
(2.2336e-13 -1.70949e-13 -5.98489e-15)
(1.73772e-13 -1.6452e-13 -4.35136e-15)
(1.27624e-13 -1.5841e-13 -3.20158e-15)
(8.46484e-14 -1.51952e-13 -2.78985e-15)
(4.50547e-14 -7.84181e-14 -2.35126e-15)
(6.19567e-13 2.73111e-13 -3.24661e-14)
(5.50888e-13 7.20641e-14 -2.86007e-14)
(4.55178e-13 -3.8574e-13 -2.28859e-14)
(3.69617e-13 -3.63307e-13 -1.86027e-14)
(2.93854e-13 -3.40267e-13 -1.46088e-14)
(2.26477e-13 -3.19154e-13 -1.16127e-14)
(1.66647e-13 -2.99555e-13 -9.48331e-15)
(1.13351e-13 -2.81621e-13 -8.28796e-15)
(6.58956e-14 -2.6331e-13 -7.16036e-15)
(2.42744e-14 -1.33967e-13 -6.33245e-15)
(8.14617e-13 1.58063e-13 -5.60149e-14)
(6.97749e-13 -1.91154e-13 -4.84167e-14)
(5.58896e-13 -6.62815e-13 -3.94521e-14)
(4.40625e-13 -6.05198e-13 -3.23173e-14)
(3.40444e-13 -5.50605e-13 -2.62944e-14)
(2.5539e-13 -5.02185e-13 -2.15637e-14)
(1.83083e-13 -4.59057e-13 -1.8491e-14)
(1.21674e-13 -4.20692e-13 -1.60449e-14)
(6.93517e-14 -3.83801e-13 -1.41754e-14)
(2.53354e-14 -1.92465e-13 -1.24913e-14)
(1.08997e-12 -3.69498e-14 -9.74589e-14)
(8.95661e-13 -5.99679e-13 -8.3334e-14)
(6.93323e-13 -1.05663e-12 -6.78192e-14)
(5.29138e-13 -9.32899e-13 -5.54157e-14)
(3.96547e-13 -8.23044e-13 -4.58115e-14)
(2.89093e-13 -7.29209e-13 -3.83647e-14)
(2.01707e-13 -6.47926e-13 -3.18722e-14)
(1.30781e-13 -5.77884e-13 -2.72858e-14)
(7.29452e-14 -5.14227e-13 -2.3389e-14)
(2.6521e-14 -2.54226e-13 -2.07937e-14)
(1.48599e-12 -3.61738e-13 -1.71751e-13)
(1.16755e-12 -1.23297e-12 -1.43181e-13)
(8.69667e-13 -1.61962e-12 -1.14026e-13)
(6.40468e-13 -1.37938e-12 -9.14158e-14)
(4.64399e-13 -1.17657e-12 -7.43483e-14)
(3.28243e-13 -1.01015e-12 -6.13999e-14)
(2.22719e-13 -8.71717e-13 -5.0765e-14)
(1.40687e-13 -7.56352e-13 -4.26801e-14)
(7.68164e-14 -6.5562e-13 -3.65669e-14)
(2.77548e-14 -3.19318e-13 -3.16012e-14)
(2.07088e-12 -8.96005e-13 -3.04039e-13)
(1.54708e-12 -2.21802e-12 -2.43461e-13)
(1.10393e-12 -2.43291e-12 -1.88791e-13)
(7.81962e-13 -1.99039e-12 -1.47686e-13)
(5.47092e-13 -1.63756e-12 -1.1767e-13)
(3.74209e-13 -1.35958e-12 -9.4545e-14)
(2.46434e-13 -1.13716e-12 -7.70172e-14)
(1.51493e-13 -9.58542e-13 -6.30308e-14)
(8.09763e-14 -8.09e-13 -5.2937e-14)
(2.90668e-14 -3.88366e-13 -4.47306e-14)
(2.98841e-12 -1.78756e-12 -5.40977e-13)
(2.08772e-12 -3.77093e-12 -4.13915e-13)
(1.42001e-12 -3.61747e-12 -3.08145e-13)
(9.63548e-13 -2.83256e-12 -2.33349e-13)
(6.48424e-13 -2.24049e-12 -1.79911e-13)
(4.28377e-13 -1.79465e-12 -1.40943e-13)
(2.73278e-13 -1.45304e-12 -1.12092e-13)
(1.63439e-13 -1.18841e-12 -8.96858e-14)
(8.52788e-14 -9.75529e-13 -7.31056e-14)
(3.03852e-14 -4.6134e-13 -6.08463e-14)
(1.30798e-10 -3.37248e-12 -9.86888e-13)
(3.36222e-12 -6.33101e-12 -7.02642e-13)
(1.84615e-12 -5.36748e-12 -4.99715e-13)
(1.19306e-12 -4.00363e-12 -3.63105e-13)
(7.686e-13 -3.03393e-12 -2.70076e-13)
(4.87871e-13 -2.33867e-12 -2.04363e-13)
(2.99981e-13 -1.82894e-12 -1.57163e-13)
(1.73123e-13 -1.44989e-12 -1.23145e-13)
(8.68302e-14 -1.15711e-12 -9.79183e-14)
(2.88389e-14 -5.38779e-13 -7.92605e-14)
(2.07219e-07 -3.6574e-10 -1.31338e-10)
(4.12412e-10 -3.39205e-10 -1.51755e-12)
(2.34009e-12 -9.26868e-12 -8.11379e-13)
(1.17282e-12 -5.64261e-12 -5.60993e-13)
(7.79614e-13 -4.07984e-12 -3.98836e-13)
(5.22852e-13 -3.01756e-12 -2.90918e-13)
(3.51404e-13 -2.27515e-12 -2.17006e-13)
(2.35063e-13 -1.74587e-12 -1.64551e-13)
(1.55052e-13 -1.35342e-12 -1.26916e-13)
(1.00029e-13 -6.20462e-13 -1.00152e-13)
(2.28544e-13 3.72468e-13 -1.63436e-14)
(2.15673e-13 3.4599e-13 -1.4189e-14)
(1.88945e-13 -5.32965e-14 -1.09301e-14)
(1.63567e-13 -5.42817e-14 -8.41582e-15)
(1.39286e-13 -5.31851e-14 -6.06763e-15)
(1.16074e-13 -5.21957e-14 -4.10026e-15)
(9.39231e-14 -5.11378e-14 -2.42712e-15)
(7.27258e-14 -5.0113e-14 -1.55303e-15)
(5.25252e-14 -4.87659e-14 -2.03653e-15)
(3.33238e-14 -2.54082e-14 -4.5918e-15)
(5.02059e-13 3.38127e-13 -2.41692e-14)
(4.63507e-13 2.39429e-13 -2.07439e-14)
(3.96958e-13 -1.91636e-13 -1.65768e-14)
(3.35018e-13 -1.85882e-13 -1.27844e-14)
(2.77533e-13 -1.78768e-13 -1.01317e-14)
(2.24089e-13 -1.71874e-13 -7.40157e-15)
(1.74436e-13 -1.6525e-13 -5.76589e-15)
(1.28273e-13 -1.58843e-13 -4.24101e-15)
(8.51724e-14 -1.51962e-13 -3.3957e-15)
(4.55782e-14 -7.84824e-14 -5.65037e-15)
(6.2247e-13 2.72067e-13 -3.9085e-14)
(5.53368e-13 7.00354e-14 -3.37442e-14)
(4.57253e-13 -3.87833e-13 -2.70767e-14)
(3.7139e-13 -3.65088e-13 -2.19876e-14)
(2.95291e-13 -3.41762e-13 -1.74307e-14)
(2.27774e-13 -3.2032e-13 -1.42783e-14)
(1.67782e-13 -3.00288e-13 -1.16178e-14)
(1.1446e-13 -2.82188e-13 -1.0109e-14)
(6.68704e-14 -2.63768e-13 -9.21807e-15)
(2.50484e-14 -1.34226e-13 -9.4115e-15)
(8.19613e-13 1.55974e-13 -6.65872e-14)
(7.01969e-13 -1.94628e-13 -5.71894e-14)
(5.62398e-13 -6.66151e-13 -4.66325e-14)
(4.43521e-13 -6.07986e-13 -3.81417e-14)
(3.42947e-13 -5.52935e-13 -3.16078e-14)
(2.57546e-13 -5.04035e-13 -2.65816e-14)
(1.84921e-13 -4.60388e-13 -2.24068e-14)
(1.23216e-13 -4.21677e-13 -1.9343e-14)
(7.07232e-14 -3.84834e-13 -1.72902e-14)
(2.65377e-14 -1.9307e-13 -1.5972e-14)
(1.09839e-12 -4.10967e-14 -1.16939e-13)
(9.02628e-13 -6.0587e-13 -9.85867e-14)
(6.98933e-13 -1.06237e-12 -7.98499e-14)
(5.33654e-13 -9.37545e-13 -6.53874e-14)
(4.00301e-13 -8.26783e-13 -5.41446e-14)
(2.9223e-13 -7.32385e-13 -4.5699e-14)
(2.04371e-13 -6.50523e-13 -3.85652e-14)
(1.32944e-13 -5.79945e-13 -3.30773e-14)
(7.47974e-14 -5.15834e-13 -2.86214e-14)
(2.81811e-14 -2.55238e-13 -2.62365e-14)
(1.50019e-12 -3.7e-13 -2.06584e-13)
(1.17879e-12 -1.24441e-12 -1.69364e-13)
(8.78387e-13 -1.62995e-12 -1.34936e-13)
(6.47364e-13 -1.38767e-12 -1.08736e-13)
(4.69876e-13 -1.18312e-12 -8.86465e-14)
(3.32675e-13 -1.01545e-12 -7.37624e-14)
(2.2635e-13 -8.76129e-13 -6.1161e-14)
(1.43599e-13 -7.59927e-13 -5.13909e-14)
(7.92702e-14 -6.58408e-13 -4.42821e-14)
(2.97585e-14 -3.21027e-13 -3.8917e-14)
(2.0948e-12 -9.12885e-13 -3.65786e-13)
(1.56511e-12 -2.23999e-12 -2.88114e-13)
(1.1174e-12 -2.45139e-12 -2.23598e-13)
(7.92219e-13 -2.00481e-12 -1.75968e-13)
(5.54952e-13 -1.64888e-12 -1.40174e-13)
(3.80348e-13 -1.36863e-12 -1.137e-13)
(2.51256e-13 -1.1446e-12 -9.28675e-14)
(1.55296e-13 -9.6442e-13 -7.58996e-14)
(8.39897e-14 -8.1366e-13 -6.39669e-14)
(3.1501e-14 -3.91176e-13 -5.48628e-14)
(3.02921e-12 -1.82164e-12 -6.51723e-13)
(2.11673e-12 -3.81266e-12 -4.9017e-13)
(1.44078e-12 -3.6509e-12 -3.66544e-13)
(9.78598e-13 -2.8578e-12 -2.78347e-13)
(6.59519e-13 -2.25973e-12 -2.15063e-13)
(4.36654e-13 -1.80952e-12 -1.69127e-13)
(2.79535e-13 -1.46491e-12 -1.3497e-13)
(1.68257e-13 -1.1978e-12 -1.07587e-13)
(8.89668e-14 -9.82847e-13 -8.80031e-14)
(3.3259e-14 -4.65625e-13 -7.34785e-14)
(1.36955e-10 -3.42913e-12 -1.07752e-12)
(3.41984e-12 -6.41119e-12 -8.34836e-13)
(1.87772e-12 -5.42757e-12 -5.97039e-13)
(1.21492e-12 -4.04723e-12 -4.34882e-13)
(7.84038e-13 -3.06609e-12 -3.24053e-13)
(4.98928e-13 -2.36285e-12 -2.45759e-13)
(3.08028e-13 -1.84746e-12 -1.901e-13)
(1.79027e-13 -1.464e-12 -1.47551e-13)
(9.12085e-14 -1.16817e-12 -1.17715e-13)
(3.21163e-14 -5.45097e-13 -9.56958e-14)
(2.25773e-07 -3.46751e-10 1.53646e-10)
(4.39371e-10 -3.54958e-10 1.60187e-13)
(2.33028e-12 -9.40249e-12 -9.57042e-13)
(1.19292e-12 -5.71591e-12 -6.69625e-13)
(7.93668e-13 -4.13193e-12 -4.78218e-13)
(5.32871e-13 -3.05531e-12 -3.49414e-13)
(3.58757e-13 -2.30323e-12 -2.61199e-13)
(2.40541e-13 -1.76707e-12 -1.98172e-13)
(1.59144e-13 -1.36932e-12 -1.52209e-13)
(1.03202e-13 -6.29372e-13 -1.20867e-13)
(2.29264e-13 3.72091e-13 -1.77495e-14)
(2.16012e-13 3.4479e-13 -1.16835e-14)
(1.89355e-13 -5.46164e-14 -9.10617e-15)
(1.63895e-13 -5.52051e-14 -7.49561e-15)
(1.3964e-13 -5.40401e-14 -7.82174e-15)
(1.1647e-13 -5.29278e-14 -9.50722e-15)
(9.44044e-14 -5.17417e-14 -1.32101e-14)
(7.34999e-14 -5.03624e-14 -3.62145e-14)
(5.3917e-14 -4.86628e-14 -1.47944e-13)
(3.48153e-14 -2.98601e-14 -4.9825e-13)
(5.03823e-13 3.37312e-13 -2.51032e-14)
(4.64631e-13 2.38033e-13 -1.53609e-14)
(3.98044e-13 -1.93093e-13 -1.32376e-14)
(3.35976e-13 -1.87227e-13 -1.10312e-14)
(2.78427e-13 -1.79883e-13 -1.05555e-14)
(2.25012e-13 -1.72767e-13 -1.21087e-14)
(1.7536e-13 -1.65994e-13 -1.50662e-14)
(1.29297e-13 -1.59944e-13 -2.89087e-14)
(8.65387e-14 -1.53477e-13 -9.02575e-14)
(4.67717e-14 -8.62073e-14 -3.21962e-13)
(6.25555e-13 2.70755e-13 -4.10412e-14)
(5.55603e-13 6.79182e-14 -2.65586e-14)
(4.59185e-13 -3.89891e-13 -2.19866e-14)
(3.73126e-13 -3.66821e-13 -1.91645e-14)
(2.96948e-13 -3.43195e-13 -1.73063e-14)
(2.29401e-13 -3.21581e-13 -1.85417e-14)
(1.69323e-13 -3.01599e-13 -2.17109e-14)
(1.15899e-13 -2.83345e-13 -2.88788e-14)
(6.85177e-14 -2.65861e-13 -6.51072e-14)
(2.64798e-14 -1.42733e-13 -2.11974e-13)
(8.24998e-13 1.53794e-13 -7.04254e-14)
(7.05875e-13 -1.97733e-13 -4.76055e-14)
(5.65734e-13 -6.6928e-13 -3.97007e-14)
(4.46468e-13 -6.10504e-13 -3.44621e-14)
(3.45612e-13 -5.54954e-13 -3.15484e-14)