/*--------------------------------*- C++ -*----------------------------------*\
| =========                 |                                                 |
| \\      /  F ield         | OpenFOAM: The Open Source CFD Toolbox           |
|  \\    /   O peration     | Version:  4.1                                   |
|   \\  /    A nd           | Web:      www.OpenFOAM.org                      |
|    \\/     M anipulation  |                                                 |
\*---------------------------------------------------------------------------*/
FoamFile
{
    version     2.0;
    format      ascii;
    class       volScalarField;
    location    "1.68";
    object      Ma;
}
// * * * * * * * * * * * * * * * * * * * * * * * * * * * * * * * * * * * * * //

dimensions      [0 0 0 0 0 0 0];

internalField   nonuniform List<scalar> 
52500
(
3.00002
2.99998
2.99994
2.99977
2.99953
2.99854
2.99714
2.99158
2.98317
2.95298
2.89643
2.73867
2.3665
1.62405
0.661744
0.232733
0.331449
0.366476
0.334839
0.277063
0.220647
0.175886
0.131174
0.0824111
0.0440721
3.00002
2.99998
2.99994
2.99977
2.99953
2.99855
2.99717
2.99165
2.98332
2.95338
2.89752
2.74076
2.3734
1.63307
0.671258
0.242284
0.335832
0.36975
0.338107
0.280933
0.22563
0.182312
0.140164
0.0972531
0.0690915
3.00002
2.99999
2.99994
2.99978
2.99954
2.99858
2.99722
2.99182
2.98366
2.95425
2.89973
2.74548
2.3868
1.65306
0.691803
0.261355
0.344511
0.376405
0.345694
0.290999
0.239058
0.199576
0.162949
0.129029
0.109822
3.00002
2.99999
2.99995
2.99978
2.99956
2.99863
2.99731
2.99207
2.98418
2.95566
2.90289
2.7536
2.40426
1.68695
0.720344
0.286326
0.356496
0.38538
0.356917
0.306623
0.25963
0.225113
0.194868
0.168648
0.154674
3.00002
2.99999
2.99995
2.99979
2.99958
2.99869
2.99743
2.99241
2.98486
2.95751
2.90703
2.76413
2.42692
1.73122
0.75837
0.318743
0.371892
0.39558
0.370845
0.326934
0.285702
0.256524
0.23229
0.212457
0.202083
3.00002
2.99999
2.99995
2.99981
2.9996
2.99876
2.99758
2.99283
2.98572
2.95979
2.91217
2.77713
2.45424
1.78716
0.806916
0.360148
0.390153
0.405997
0.387564
0.351722
0.31663
0.292992
0.27494
0.261224
0.25459
3.00002
2.99999
2.99996
2.99983
2.99964
2.99886
2.99778
2.99341
2.98686
2.9634
2.91787
2.7957
2.4821
1.86788
0.86904
0.411802
0.407529
0.41783
0.408189
0.380366
0.351736
0.333904
0.323033
0.316374
0.316118
3.00002
3
2.99997
2.99985
2.99968
2.99899
2.99801
2.9942
2.98813
2.96759
2.9238
2.81357
2.5147
1.95216
0.944843
0.470099
0.42326
0.433416
0.431817
0.411657
0.390573
0.380093
0.377693
0.380822
0.39191
3.00002
3
2.99997
2.99987
2.99972
2.99911
2.99824
2.99493
2.98941
2.9714
2.93123
2.83205
2.55568
2.04503
1.04532
0.541066
0.440565
0.452367
0.458436
0.445498
0.432982
0.43102
0.438954
0.457909
0.494651
3.00002
3
2.99998
2.99989
2.99976
2.99925
2.99848
2.99569
2.9907
2.97544
2.93952
2.85359
2.60644
2.14574
1.1895
0.63
0.46459
0.477578
0.489412
0.483012
0.479008
0.485921
0.509335
0.558787
0.664334
3
2.99997
2.99992
2.99975
2.99951
2.99852
2.99712
2.99156
2.98314
2.95295
2.89641
2.73863
2.36647
1.62398
0.661637
0.232446
0.331255
0.3663
0.334642
0.276818
0.220339
0.175499
0.130649
0.0815582
0.0424291
3
2.99997
2.99992
2.99975
2.99951
2.99853
2.99715
2.99163
2.9833
2.95335
2.89749
2.74072
2.37337
1.633
0.671153
0.24201
0.335642
0.369578
0.337915
0.280695
0.225333
0.181943
0.13968
0.0965411
0.0680711
3
2.99997
2.99993
2.99976
2.99952
2.99856
2.9972
2.99179
2.98364
2.95422
2.89971
2.74543
2.38677
1.65299
0.691704
0.261105
0.344329
0.376239
0.345509
0.290773
0.238781
0.199244
0.162538
0.128501
0.109193
3
2.99997
2.99993
2.99977
2.99954
2.99861
2.99729
2.99205
2.98415
2.95564
2.90287
2.75356
2.40424
1.68688
0.72025
0.286099
0.356322
0.385219
0.35674
0.306412
0.259379
0.224823
0.194529
0.16825
0.154237
3
2.99997
2.99993
2.99978
2.99956
2.99867
2.99741
2.99238
2.98484
2.95749
2.90701
2.76409
2.4269
1.73116
0.758282
0.318541
0.371727
0.395427
0.370679
0.326739
0.285478
0.256272
0.23201
0.212147
0.201756
3
2.99997
2.99994
2.99979
2.99958
2.99874
2.99756
2.9928
2.9857
2.95977
2.91214
2.77709
2.45422
1.78709
0.806836
0.359967
0.389998
0.405852
0.387407
0.351544
0.316431
0.292777
0.274708
0.260978
0.254337
3
2.99998
2.99994
2.99981
2.99962
2.99884
2.99776
2.99339
2.98684
2.96337
2.91785
2.79566
2.4821
1.86783
0.868975
0.411652
0.407389
0.417692
0.408045
0.380207
0.351561
0.333719
0.322841
0.316176
0.315922
3
2.99998
2.99995
2.99983
2.99966
2.99897
2.99799
2.99418
2.98811
2.96756
2.92379
2.81353
2.5147
1.95212
0.944792
0.469974
0.423131
0.433289
0.431686
0.411517
0.390421
0.379935
0.377535
0.380662
0.391758
3
2.99998
2.99996
2.99985
2.9997
2.99909
2.99822
2.9949
2.98939
2.97137
2.9312
2.83201
2.55564
2.04496
1.04525
0.540947
0.440438
0.452245
0.458315
0.445372
0.432849
0.430887
0.438823
0.457784
0.49454
3
2.99999
2.99996
2.99987
2.99974
2.99923
2.99846
2.99567
2.99068
2.97541
2.9395
2.85355
2.6064
2.14568
1.18944
0.629893
0.464465
0.477458
0.489296
0.482894
0.478889
0.485806
0.509226
0.558691
0.664259
3
2.99997
2.99992
2.99975
2.99951
2.99852
2.99712
2.99156
2.98314
2.95295
2.89641
2.73863
2.36647
1.62398
0.661637
0.232446
0.331255
0.366299
0.334641
0.276818
0.220339
0.175498
0.130649
0.0815584
0.0424299
3
2.99997
2.99992
2.99975
2.99951
2.99853
2.99715
2.99163
2.9833
2.95335
2.89749
2.74072
2.37337
1.633
0.671154
0.24201
0.335642
0.369577
0.337914
0.280695
0.225333
0.181943
0.13968
0.0965413
0.0680716
3
2.99997
2.99993
2.99976
2.99952
2.99856
2.9972
2.99179
2.98364
2.95422
2.89971
2.74543
2.38677
1.65299
0.691704
0.261105
0.344329
0.376238
0.345508
0.290773
0.238781
0.199244
0.162538
0.128501
0.109193
3
2.99997
2.99993
2.99977
2.99954
2.99861
2.99729
2.99205
2.98415
2.95564
2.90287
2.75356
2.40424
1.68688
0.72025
0.286099
0.356322
0.385219
0.35674
0.306412
0.259378
0.224822
0.194529
0.16825
0.154237
3
2.99997
2.99993
2.99978
2.99956
2.99867
2.99741
2.99238
2.98484
2.95749
2.90701
2.76409
2.4269
1.73116
0.758283
0.318541
0.371726
0.395426
0.370678
0.326739
0.285478
0.256272
0.23201
0.212147
0.201756
3
2.99997
2.99994
2.99979
2.99958
2.99874
2.99756
2.9928
2.9857
2.95977
2.91214
2.77709
2.45422
1.78709
0.806836
0.359967
0.389998
0.405851
0.387406
0.351544
0.316431
0.292777
0.274708
0.260978
0.254337
3
2.99998
2.99994
2.99981
2.99962
2.99884
2.99776
2.99339
2.98684
2.96337
2.91785
2.79566
2.4821
1.86783
0.868975
0.411653
0.407389
0.417692
0.408045
0.380207
0.351561
0.333719
0.322841
0.316176
0.315922
3
2.99998
2.99995
2.99983
2.99966
2.99897
2.99799
2.99418
2.98811
2.96756
2.92379
2.81353
2.5147
1.95212
0.944792
0.469974
0.423131
0.433289
0.431686
0.411516
0.390421
0.379935
0.377534
0.380662
0.391759
3
2.99998
2.99996
2.99985
2.9997
2.99909
2.99822
2.9949
2.98939
2.97137
2.9312
2.83201
2.55564
2.04497
1.04525
0.540948
0.440437
0.452244
0.458315
0.445371
0.432849
0.430887
0.438823
0.457784
0.49454
3
2.99999
2.99996
2.99987
2.99974
2.99923
2.99846
2.99567
2.99068
2.97541
2.9395
2.85355
2.6064
2.14568
1.18944
0.629893
0.464465
0.477458
0.489296
0.482894
0.478889
0.485805
0.509226
0.558691
0.66426
3
2.99997
2.99992
2.99975
2.99951
2.99852
2.99712
2.99156
2.98314
2.95295
2.89641
2.73863
2.36647
1.62398
0.661637
0.232446
0.331255
0.366299
0.334641
0.276818
0.220339
0.175498
0.130649
0.0815584
0.0424302
3
2.99997
2.99992
2.99975
2.99951
2.99853
2.99715
2.99163
2.9833
2.95335
2.89749
2.74072
2.37337
1.633
0.671153
0.24201
0.335642
0.369577
0.337914
0.280695
0.225333
0.181943
0.13968
0.0965413
0.0680717
3
2.99997
2.99993
2.99976
2.99952
2.99856
2.9972
2.99179
2.98364
2.95422
2.89971
2.74543
2.38677
1.65299
0.691704
0.261105
0.344329
0.376238
0.345508
0.290772
0.238781
0.199244
0.162538
0.128501
0.109193
3
2.99997
2.99993
2.99977
2.99954
2.99861
2.99729
2.99205
2.98415
2.95564
2.90287
2.75356
2.40424
1.68688
0.720249
0.286099
0.356322
0.385219
0.35674
0.306412
0.259378
0.224822
0.194529
0.16825
0.154237
3
2.99997
2.99993
2.99978
2.99956
2.99867
2.99741
2.99238
2.98484
2.95749
2.90701
2.76409
2.4269
1.73116
0.758282
0.318541
0.371726
0.395426
0.370678
0.326739
0.285477
0.256272
0.23201
0.212147
0.201756
3
2.99997
2.99994
2.99979
2.99958
2.99874
2.99756
2.9928
2.9857
2.95977
2.91214
2.77709
2.45422
1.78709
0.806835
0.359967
0.389998
0.405852
0.387407
0.351544
0.316431
0.292777
0.274708
0.260978
0.254337
3
2.99998
2.99994
2.99981
2.99962
2.99884
2.99776
2.99339
2.98684
2.96337
2.91785
2.79566
2.4821
1.86783
0.868975
0.411652
0.407389
0.417692
0.408045
0.380207
0.351561
0.333719
0.322841
0.316176
0.315922
3
2.99998
2.99995
2.99983
2.99966
2.99897
2.99799
2.99418
2.98811
2.96756
2.92379
2.81353
2.5147
1.95212
0.944792
0.469974
0.423131
0.433289
0.431686
0.411516
0.390421
0.379935
0.377534
0.380662
0.391759
3
2.99998
2.99996
2.99985
2.9997
2.99909
2.99822
2.9949
2.98939
2.97137
2.9312
2.83201
2.55564
2.04496
1.04525
0.540947
0.440437
0.452244
0.458315
0.445371
0.432849
0.430887
0.438823
0.457784
0.49454
3
2.99999
2.99996
2.99987
2.99974
2.99923
2.99846
2.99567
2.99068
2.97541
2.9395
2.85355
2.6064
2.14568
1.18944
0.629893
0.464465
0.477458
0.489296
0.482894
0.478889
0.485805
0.509226
0.558691
0.66426
3
2.99997
2.99992
2.99975
2.99951
2.99852
2.99712
2.99156
2.98314
2.95295
2.89641
2.73863
2.36647
1.62398
0.661637
0.232446
0.331255
0.366299
0.334641
0.276817
0.220339
0.175498
0.130649
0.0815585
0.0424296
3
2.99997
2.99992
2.99975
2.99951
2.99853
2.99715
2.99163
2.9833
2.95335
2.89749
2.74072
2.37337
1.633
0.671153
0.24201
0.335642
0.369577
0.337914
0.280694
0.225333
0.181943
0.13968
0.0965414
0.0680715
3
2.99997
2.99993
2.99976
2.99952
2.99856
2.9972
2.99179
2.98364
2.95422
2.89971
2.74543
2.38677
1.65299
0.691704
0.261105
0.344329
0.376238
0.345508
0.290772
0.238781
0.199243
0.162538
0.128501
0.109193
3
2.99997
2.99993
2.99977
2.99954
2.99861
2.99729
2.99205
2.98415
2.95564
2.90287
2.75356
2.40424
1.68688
0.72025
0.286099
0.356322
0.385219
0.35674
0.306411
0.259378
0.224822
0.194529
0.16825
0.154237
3
2.99997
2.99993
2.99978
2.99956
2.99867
2.99741
2.99238
2.98484
2.95749
2.90701
2.76409
2.4269
1.73116
0.758283
0.318541
0.371726
0.395426
0.370678
0.326739
0.285477
0.256272
0.23201
0.212147
0.201756
3
2.99997
2.99994
2.99979
2.99958
2.99874
2.99756
2.9928
2.9857
2.95977
2.91214
2.77709
2.45422
1.78709
0.806836
0.359967
0.389998
0.405851
0.387406
0.351544
0.316431
0.292777
0.274708
0.260978
0.254337
3
2.99998
2.99994
2.99981
2.99962
2.99884
2.99776
2.99339
2.98684
2.96337
2.91785
2.79566
2.4821
1.86783
0.868975
0.411653
0.407389
0.417692
0.408045
0.380206
0.351561
0.333719
0.322841
0.316176
0.315922
3
2.99998
2.99995
2.99983
2.99966
2.99897
2.99799
2.99418
2.98811
2.96756
2.92379
2.81353
2.5147
1.95212
0.944792
0.469974
0.423131
0.433289
0.431686
0.411516
0.390421
0.379935
0.377534
0.380662
0.391759
3
2.99998
2.99996
2.99985
2.9997
2.99909
2.99822
2.9949
2.98939
2.97137
2.9312
2.83201
2.55564
2.04497
1.04525
0.540948
0.440437
0.452244
0.458315
0.445371
0.432848
0.430887
0.438823
0.457784
0.49454
3
2.99999
2.99996
2.99987
2.99974
2.99923
2.99846
2.99567
2.99068
2.97541
2.9395
2.85355
2.6064
2.14568
1.18944
0.629893
0.464465
0.477458
0.489296
0.482894
0.478889
0.485805
0.509226
0.55869
0.66426
3
2.99997
2.99992
2.99975
2.99951
2.99852
2.99712
2.99156
2.98314
2.95295
2.89641
2.73863
2.36647
1.62398
0.661637
0.232446
0.331255
0.366299
0.334641
0.276818
0.220339
0.175498
0.130649
0.0815585
0.0424301
3
2.99997
2.99992
2.99975
2.99951
2.99853
2.99715
2.99163
2.9833
2.95335
2.89749
2.74072
2.37337
1.633
0.671153
0.24201
0.335642
0.369577
0.337914
0.280694
0.225333
0.181943
0.13968
0.0965414
0.0680717
3
2.99997
2.99993
2.99976
2.99952
2.99856
2.9972
2.99179
2.98364
2.95422
2.89971
2.74543
2.38677
1.65299
0.691704
0.261105
0.344329
0.376238
0.345508
0.290772
0.238781
0.199244
0.162538
0.128501
0.109193
3
2.99997
2.99993
2.99977
2.99954
2.99861
2.99729
2.99205
2.98415
2.95564
2.90287
2.75356
2.40424
1.68688
0.72025
0.286099
0.356322
0.385219
0.35674
0.306411
0.259378
0.224822
0.194529
0.16825
0.154237
3
2.99997
2.99993
2.99978
2.99956
2.99867
2.99741
2.99238
2.98484
2.95749
2.90701
2.76409
2.4269
1.73116
0.758282
0.318541
0.371726
0.395426
0.370678
0.326739
0.285477
0.256272
0.23201
0.212147
0.201756
3
2.99997
2.99994
2.99979
2.99958
2.99874
2.99756
2.9928
2.9857
2.95977
2.91214
2.77709
2.45422
1.78709
0.806836
0.359967
0.389998
0.405851
0.387406
0.351544
0.316431
0.292777
0.274708
0.260978
0.254337
3
2.99998
2.99994
2.99981
2.99962
2.99884
2.99776
2.99339
2.98684
2.96337
2.91785
2.79566
2.4821
1.86783
0.868975
0.411653
0.407389
0.417692
0.408045
0.380207
0.351561
0.333719
0.322841
0.316176
0.315922
3
2.99998
2.99995
2.99983
2.99966
2.99897
2.99799
2.99418
2.98811
2.96756
2.92379
2.81353
2.5147
1.95212
0.944792
0.469974
0.423131
0.433289
0.431686
0.411516
0.390421
0.379935
0.377534
0.380662
0.391759
3
2.99998
2.99996
2.99985
2.9997
2.99909
2.99822
2.9949
2.98939
2.97137
2.9312
2.83201
2.55564
2.04497
1.04525
0.540948
0.440437
0.452244
0.458315
0.445371
0.432848
0.430887
0.438823
0.457784
0.49454
3
2.99999
2.99996
2.99987
2.99974
2.99923
2.99846
2.99567
2.99068
2.97541
2.9395
2.85355
2.6064
2.14568
1.18944
0.629893
0.464465
0.477458
0.489296
0.482894
0.478889
0.485805
0.509226
0.558691
0.66426
3
2.99997
2.99992
2.99975
2.99951
2.99852
2.99712
2.99156
2.98314
2.95295
2.89641
2.73863
2.36647
1.62398
0.661637
0.232446
0.331255
0.366299
0.334641
0.276818
0.220339
0.175498
0.130649
0.0815584
0.0424302
3
2.99997
2.99992
2.99975
2.99951
2.99853
2.99715
2.99163
2.9833
2.95335
2.89749
2.74072
2.37337
1.633
0.671153
0.24201
0.335642
0.369577
0.337914
0.280695
0.225333
0.181943
0.13968
0.0965413
0.0680717
3
2.99997
2.99993
2.99976
2.99952
2.99856
2.9972
2.99179
2.98364
2.95422
2.89971
2.74543
2.38677
1.65299
0.691704
0.261105
0.344329
0.376238
0.345508
0.290773
0.238781
0.199244
0.162538
0.128501
0.109193
3
2.99997
2.99993
2.99977
2.99954
2.99861
2.99729
2.99205
2.98415
2.95564
2.90287
2.75356
2.40424
1.68688
0.720249
0.286099
0.356322
0.385219
0.35674
0.306412
0.259378
0.224822
0.194529
0.16825
0.154237
3
2.99997
2.99993
2.99978
2.99956
2.99867
2.99741
2.99238
2.98484
2.95749
2.90701
2.76409
2.4269
1.73116
0.758282
0.318541
0.371726
0.395426
0.370678
0.326739
0.285477
0.256272
0.23201
0.212147
0.201756
3
2.99997
2.99994
2.99979
2.99958
2.99874
2.99756
2.9928
2.9857
2.95977
2.91214
2.77709
2.45422
1.78709
0.806835
0.359967
0.389998
0.405852
0.387407
0.351544
0.316431
0.292777
0.274708
0.260978
0.254337
3
2.99998
2.99994
2.99981
2.99962
2.99884
2.99776
2.99339
2.98684
2.96337
2.91785
2.79566
2.4821
1.86783
0.868975
0.411652
0.407389
0.417692
0.408045
0.380207
0.351561
0.333719
0.322841
0.316176
0.315922
3
2.99998
2.99995
2.99983
2.99966
2.99897
2.99799
2.99418
2.98811
2.96756
2.92379
2.81353
2.5147
1.95212
0.944792
0.469974
0.423131
0.433289
0.431686
0.411516
0.390421
0.379935
0.377534
0.380662
0.391759
3
2.99998
2.99996
2.99985
2.9997
2.99909
2.99822
2.9949
2.98939
2.97137
2.9312
2.83201
2.55564
2.04496
1.04525
0.540947
0.440437
0.452244
0.458315
0.445371
0.432849
0.430887
0.438823
0.457784
0.49454
3
2.99999
2.99996
2.99987
2.99974
2.99923
2.99846
2.99567
2.99068
2.97541
2.9395
2.85355
2.6064
2.14568
1.18944
0.629893
0.464465
0.477458
0.489296
0.482894
0.478889
0.485805
0.509226
0.558691
0.66426
3
2.99997
2.99992
2.99975
2.99951
2.99852
2.99712
2.99156
2.98314
2.95295
2.89641
2.73863
2.36647
1.62398
0.661637
0.232446
0.331255
0.366299
0.334641
0.276818
0.220339
0.175498
0.130649
0.0815584
0.0424299
3
2.99997
2.99992
2.99975
2.99951
2.99853
2.99715
2.99163
2.9833
2.95335
2.89749
2.74072
2.37337
1.633
0.671154
0.24201
0.335642
0.369577
0.337914
0.280695
0.225333
0.181943
0.13968
0.0965413
0.0680716
3
2.99997
2.99993
2.99976
2.99952
2.99856
2.9972
2.99179
2.98364
2.95422
2.89971
2.74543
2.38677
1.65299
0.691704
0.261105
0.344329
0.376238
0.345508
0.290773
0.238781
0.199244
0.162538
0.128501
0.109193
3
2.99997
2.99993
2.99977
2.99954
2.99861
2.99729
2.99205
2.98415
2.95564
2.90287
2.75356
2.40424
1.68688
0.72025
0.286099
0.356322
0.385219
0.35674
0.306412
0.259378
0.224822
0.194529
0.16825
0.154237
3
2.99997
2.99993
2.99978
2.99956
2.99867
2.99741
2.99238
2.98484
2.95749
2.90701
2.76409
2.4269
1.73116
0.758283
0.318541
0.371726
0.395426
0.370678
0.326739
0.285478
0.256272
0.23201
0.212147
0.201756
3
2.99997
2.99994
2.99979
2.99958
2.99874
2.99756
2.9928
2.9857
2.95977
2.91214
2.77709
2.45422
1.78709
0.806836
0.359967
0.389998
0.405851
0.387406
0.351544
0.316431
0.292777
0.274708
0.260978
0.254337
3
2.99998
2.99994
2.99981
2.99962
2.99884
2.99776
2.99339
2.98684
2.96337
2.91785
2.79566
2.4821
1.86783
0.868975
0.411653
0.407389
0.417692
0.408045
0.380207
0.351561
0.333719
0.322841
0.316176
0.315922
3
2.99998
2.99995
2.99983
2.99966
2.99897
2.99799
2.99418
2.98811
2.96756
2.92379
2.81353
2.5147
1.95212
0.944792
0.469974
0.423131
0.433289
0.431686
0.411516
0.390421
0.379935
0.377534
0.380662
0.391759
3
2.99998
2.99996
2.99985
2.9997
2.99909
2.99822
2.9949
2.98939
2.97137
2.9312
2.83201
2.55564
2.04497
1.04525
0.540948
0.440437
0.452244
0.458315
0.445371
0.432849
0.430887
0.438823
0.457784
0.49454
3
2.99999
2.99996
2.99987
2.99974
2.99923
2.99846
2.99567
2.99068
2.97541
2.9395
2.85355
2.6064
2.14568
1.18944
0.629893
0.464465
0.477458
0.489296
0.482894
0.478889
0.485805
0.509226
0.558691
0.66426
3
2.99997
2.99992
2.99975
2.99951
2.99852
2.99712
2.99156
2.98314
2.95295
2.89641
2.73863
2.36647
1.62398
0.661637
0.232446
0.331255
0.3663
0.334642
0.276818
0.220339
0.175499
0.130649
0.0815582
0.0424291
3
2.99997
2.99992
2.99975
2.99951
2.99853
2.99715
2.99163
2.9833
2.95335
2.89749
2.74072
2.37337
1.633
0.671153
0.24201
0.335642
0.369578
0.337915
0.280695
0.225333
0.181943
0.13968
0.0965411
0.0680711
3
2.99997
2.99993
2.99976
2.99952
2.99856
2.9972
2.99179
2.98364
2.95422
2.89971
2.74543
2.38677
1.65299
0.691704
0.261105
0.344329
0.376239
0.345509
0.290773
0.238781
0.199244
0.162538
0.128501
0.109193
3
2.99997
2.99993
2.99977
2.99954
2.99861
2.99729
2.99205
2.98415
2.95564
2.90287
2.75356
2.40424
1.68688
0.72025
0.286099
0.356322
0.385219
0.35674
0.306412
0.259379
0.224823
0.194529
0.16825
0.154237
3
2.99997
2.99993
2.99978
2.99956
2.99867
2.99741
2.99238
2.98484
2.95749
2.90701
2.76409
2.4269
1.73116
0.758282
0.318541
0.371727
0.395427
0.370679
0.326739
0.285478
0.256272
0.23201
0.212147
0.201756
3
2.99997
2.99994
2.99979
2.99958
2.99874
2.99756
2.9928
2.9857
2.95977
2.91214
2.77709
2.45422
1.78709
0.806836
0.359967
0.389998
0.405852
0.387407
0.351544
0.316431
0.292777
0.274708
0.260978
0.254337
3
2.99998
2.99994
2.99981
2.99962
2.99884
2.99776
2.99339
2.98684
2.96337
2.91785
2.79566
2.4821
1.86783
0.868975
0.411652
0.407389
0.417692
0.408045
0.380207
0.351561
0.333719
0.322841
0.316176
0.315922
3
2.99998
2.99995
2.99983
2.99966
2.99897
2.99799
2.99418
2.98811
2.96756
2.92379
2.81353
2.5147
1.95212
0.944792
0.469974
0.423131
0.433289
0.431686
0.411517
0.390421
0.379935
0.377535
0.380662
0.391758
3
2.99998
2.99996
2.99985
2.9997
2.99909
2.99822
2.9949
2.98939
2.97137
2.9312
2.83201
2.55564
2.04496
1.04525
0.540947
0.440438
0.452245
0.458315
0.445372
0.432849
0.430887
0.438823
0.457784
0.49454
3
2.99999
2.99996
2.99987
2.99974
2.99923
2.99846
2.99567
2.99068
2.97541
2.9395
2.85355
2.6064
2.14568
1.18944
0.629893
0.464465
0.477458
0.489296
0.482894
0.478889
0.485806
0.509226
0.558691
0.664259
3.00002
2.99998
2.99994
2.99977
2.99953
2.99854
2.99714
2.99158
2.98317
2.95298
2.89643
2.73867
2.3665
1.62405
0.661745
0.232734
0.331449
0.366476
0.334839
0.277063
0.220647
0.175886
0.131174
0.0824111
0.0440728
3.00002
2.99998
2.99994
2.99977
2.99953
2.99855
2.99717
2.99165
2.98332
2.95338
2.89752
2.74076
2.3734
1.63307
0.671259
0.242284
0.335832
0.36975
0.338107
0.280933
0.22563
0.182312
0.140164
0.0972531
0.0690919
3.00002
2.99999
2.99994
2.99978
2.99954
2.99858
2.99722
2.99182
2.98366
2.95425
2.89973
2.74548
2.3868
1.65306
0.691803
0.261355
0.344511
0.376405
0.345694
0.290999
0.239058
0.199576
0.162949
0.129029
0.109822
3.00002
2.99999
2.99995
2.99978
2.99956
2.99863
2.99731
2.99207
2.98418
2.95566
2.90289
2.7536
2.40426
1.68695
0.720344
0.286326
0.356496
0.38538
0.356917
0.306623
0.25963
0.225113
0.194868
0.168648
0.154674
3.00002
2.99999
2.99995
2.99979
2.99958
2.99869
2.99743
2.99241
2.98486
2.95751
2.90703
2.76413
2.42692
1.73122
0.75837
0.318744
0.371892
0.39558
0.370845
0.326934
0.285703
0.256524
0.23229
0.212457
0.202083
3.00002
2.99999
2.99995
2.99981
2.9996
2.99876
2.99758
2.99283
2.98572
2.9598
2.91217
2.77713
2.45424
1.78716
0.806916
0.360148
0.390153
0.405997
0.387564
0.351722
0.31663
0.292992
0.27494
0.261224
0.25459
3.00002
2.99999
2.99996
2.99983
2.99964
2.99886
2.99778
2.99341
2.98686
2.9634
2.91787
2.7957
2.4821
1.86788
0.869041
0.411802
0.407529
0.41783
0.408189
0.380366
0.351736
0.333904
0.323033
0.316374
0.316118
3.00002
3
2.99997
2.99985
2.99968
2.99899
2.99801
2.9942
2.98813
2.96759
2.9238
2.81357
2.5147
1.95216
0.944844
0.4701
0.42326
0.433416
0.431817
0.411658
0.390573
0.380093
0.377693
0.380822
0.39191
3.00002
3
2.99997
2.99987
2.99972
2.99911
2.99824
2.99493
2.98941
2.9714
2.93123
2.83205
2.55568
2.04503
1.04532
0.541067
0.440565
0.452367
0.458436
0.445498
0.432982
0.43102
0.438954
0.457909
0.494651
3.00002
3
2.99998
2.99989
2.99976
2.99925
2.99848
2.99569
2.9907
2.97544
2.93952
2.85359
2.60644
2.14574
1.18951
0.63
0.46459
0.477578
0.489412
0.483012
0.479008
0.485921
0.509335
0.558787
0.664334
3.00002
3.00001
2.99998
2.99993
2.99973
2.99944
2.99832
2.99661
2.99046
2.9794
2.94563
2.86566
2.68322
2.1989
1.39397
0.726398
0.499154
0.512929
0.527295
0.526058
0.528115
0.545758
0.589932
0.680236
0.863957
3.00002
3.00001
2.99998
2.99994
2.99976
2.99951
2.99849
2.99705
2.9913
2.98259
2.95138
2.89224
2.72965
2.34353
1.59791
0.829942
0.54527
0.558707
0.570983
0.573535
0.580242
0.607134
0.66743
0.777748
0.971658
3.00002
3.00001
2.99999
2.99995
2.9998
2.99959
2.99874
2.99753
2.99272
2.98552
2.95923
2.91213
2.77376
2.46691
1.79862
0.940884
0.604209
0.607381
0.616918
0.625148
0.635789
0.667412
0.732728
0.84013
1.00671
3.00002
3.00002
2.99999
2.99997
2.99984
2.99967
2.99898
2.99801
2.99411
2.98828
2.96745
2.92737
2.81929
2.54173
1.99911
1.06172
0.673698
0.643498
0.656835
0.670851
0.687919
0.722236
0.785512
0.881452
1.02079
3.00002
3.00002
3
2.99998
2.99989
2.99975
2.99923
2.99845
2.99561
2.99067
2.97524
2.94007
2.85412
2.61508
2.16245
1.25991
0.780619
0.673341
0.686435
0.705642
0.731902
0.768852
0.828422
0.91158
1.02863
3.00002
3.00002
3.00001
2.99998
2.99993
2.99975
2.99948
2.99845
2.99689
2.99121
2.98128
2.95027
2.87896
2.71241
2.28174
1.52164
0.910441
0.715323
0.719493
0.738414
0.769178
0.807925
0.865401
0.940014
1.03718
3.00002
3.00002
3.00001
2.99999
2.99995
2.9998
2.99959
2.99874
2.99754
2.99274
2.98557
2.9595
2.91268
2.77606
2.47669
1.81985
1.05685
0.777591
0.765038
0.779109
0.807309
0.844114
0.895136
0.964287
1.04844
3.00002
3.00002
3.00002
3
2.99997
2.99986
2.9997
2.99906
2.99814
2.99455
2.98905
2.9698
2.93253
2.83217
2.57985
2.0631
1.21529
0.851931
0.806388
0.819543
0.844641
0.881395
0.9253
0.98481
1.05942
3.00003
3.00002
3.00002
3.00001
2.99997
2.99992
2.99972
2.99943
2.99831
2.9966
2.99047
2.97967
2.94651
2.86924
2.69313
2.23136
1.47362
0.972491
0.848515
0.853724
0.875245
0.910751
0.953058
1.0059
1.0701
3.00003
3.00003
3.00002
3.00001
2.99999
2.99995
2.99979
2.99957
2.99869
2.99742
2.99247
2.98488
2.95803
2.90809
2.76705
2.44955
1.77502
1.13087
0.911345
0.895853
0.909764
0.938841
0.979307
1.0263
1.08331
3.00003
3.00003
3.00002
3.00002
3
2.99996
2.99989
2.99963
2.99926
2.9978
2.99562
2.98767
2.97405
2.93147
2.83467
2.61705
2.0836
1.33098
0.990264
0.937396
0.945459
0.969945
1.00587
1.0472
1.09631
3.00003
3.00003
3.00003
3.00002
3.00001
2.99998
2.99993
2.99974
2.99946
2.99837
2.9968
2.99069
2.98129
2.94873
2.88419
2.71828
2.3143
1.59165
1.11524
0.984303
0.9811
0.998143
1.02961
1.0689
1.11252
3.00003
3.00003
3.00003
3.00002
3.00001
3
2.99995
2.99987
2.99956
2.99911
2.99739
2.99479
2.98547
2.96916
2.92068
2.80868
2.55778
2.0011
1.30857
1.05577
1.02397
1.03146
1.05553
1.09224
1.13059
3.00003
3.00003
3.00003
3.00003
3.00002
3.00001
2.99997
2.99992
2.99971
2.9994
2.99821
2.99647
2.99007
2.97914
2.94531
2.86765
2.6934
2.22759
1.52707
1.14293
1.0641
1.06445
1.0826
1.11385
1.15168
3.00003
3.00003
3.00003
3.00003
3.00002
3.00001
3
2.99994
2.99985
2.99952
2.99903
2.99717
2.99428
2.98434
2.96569
2.91258
2.78217
2.50903
1.8735
1.31712
1.12246
1.10107
1.10983
1.13423
1.16888
3.00003
3.00003
3.00003
3.00003
3.00003
3.00002
3.00001
2.99997
2.99991
2.99968
2.99936
2.99808
2.99622
2.98925
2.97785
2.94113
2.86019
2.67672
2.20702
1.53254
1.2068
1.14171
1.14137
1.15837
1.18709
3.00003
3.00003
3.00003
3.00003
3.00003
3.00002
3.00001
3
2.99993
2.99984
2.9995
2.99899
2.99707
2.99408
2.98379
2.96471
2.90994
2.77765
2.4995
1.86633
1.36941
1.19646
1.1748
1.1824
1.20461
3.00003
3.00003
3.00003
3.00003
3.00003
3.00003
3.00002
3.00001
2.99997
2.99991
2.99968
2.99935
2.99807
2.99621
2.98916
2.97801
2.94088
2.86307
2.6805
2.22735
1.58219
1.28239
1.21887
1.21408
1.22606
3.00003
3.00003
3.00003
3.00003
3.00003
3.00003
3.00002
3.00001
3
2.99994
2.99985
2.99952
2.99902
2.99719
2.99431
2.98442
2.96642
2.91403
2.79208
2.52368
1.94513
1.44196
1.2699
1.24696
1.25103
3.00003
3.00003
3.00003
3.00003
3.00003
3.00003
3.00002
3.00002
3
2.99998
2.99989
2.99976
2.99925
2.9985
2.99571
2.99131
2.97629
2.94899
2.8701
2.70168
2.2847
1.67762
1.36274
1.28495
1.27873
3.00003
3.00003
3.00003
3.00003
3.00003
3.00003
3.00003
3.00002
3.00001
3
2.99994
2.99986
2.99955
2.99911
2.99739
2.99487
2.98563
2.97034
2.9234
2.81929
2.59236
2.0641
1.54642
1.34389
1.31309
3.00003
3.00003
3.00003
3.00003
3.00003
3.00003
3.00003
3.00003
3.00002
3.00001
2.99999
2.99991
2.99979
2.99935
2.99869
2.99625
2.99245
2.97944
2.95589
2.88927
2.7397
2.39415
1.78722
1.44601
1.35178
3.00003
3.00003
3.00003
3.00003
3.00003
3.00003
3.00003
3.00003
3.00002
3.00002
3
2.99995
2.99988
2.99961
2.99923
2.99773
2.99556
2.98753
2.97474
2.93341
2.85317
2.64659
2.21432
1.64515
1.42348
3.00003
3.00003
3.00003
3.00003
3.00003
3.00003
3.00003
3.00003
3.00003
3.00002
3.00001
2.99998
2.99994
2.99978
2.99955
2.99866
2.99738
2.99252
2.98515
2.95984
2.91203
2.79017
2.48993
1.94835
1.5434
3.00003
3.00003
3.00003
3.00003
3.00003
3.00003
3.00003
3.00003
3.00003
3.00002
3.00002
3
2.99998
2.99988
2.99975
2.99923
2.99847
2.99562
2.99128
2.97599
2.95028
2.86948
2.71832
2.29789
1.78708
3.00003
3.00003
3.00003
3.00003
3.00003
3.00003
3.00003
3.00003
3.00003
3.00003
3.00002
3.00002
3
2.99996
2.99984
2.99966
2.99899
2.99797
2.99438
2.98852
2.96976
2.93371
2.83862
2.62945
2.15379
3.00003
3.00003
3.00003
3.00003
3.00003
3.00003
3.00003
3.00003
3.00003
3.00003
3.00003
3.00002
3.00001
2.99998
2.99994
2.99978
2.99953
2.99864
2.99728
2.99249
2.9845
2.9599
2.90719
2.78589
2.47901
3.00003
3.00003
3.00003
3.00003
3.00003
3.00003
3.00003
3.00003
3.00003
3.00003
3.00003
3.00003
3.00002
3.00001
2.99997
2.99991
2.9997
2.99938
2.99821
2.99643
2.99014
2.97978
2.94761
2.88013
2.72365
3.00003
3.00003
3.00003
3.00003
3.00003
3.00003
3.00003
3.00003
3.00003
3.00003
3.00003
3.00003
3.00002
3.00002
3
2.99996
2.99984
2.99967
2.99901
2.99805
2.99452
2.98908
2.97079
2.93773
2.84758
3.00003
3.00003
3.00003
3.00003
3.00003
3.00003
3.00003
3.00003
3.00003
3.00003
3.00003
3.00003
3.00003
3.00002
3.00001
2.99999
2.99995
2.9998
2.99957
2.99876
2.99752
2.99312
2.98601
2.96339
2.91773
3.00003
3.00003
3.00003
3.00003
3.00003
3.00003
3.00003
3.00003
3.00003
3.00003
3.00003
3.00003
3.00003
3.00003
3.00002
3.00001
2.99998
2.99992
2.99974
2.99945
2.99843
2.99687
2.9914
2.98237
2.9542
3.00003
3.00003
3.00003
3.00003
3.00003
3.00003
3.00003
3.00003
3.00003
3.00003
3.00003
3.00003
3.00003
3.00003
3.00002
3.00002
3.00001
2.99996
2.9999
2.99966
2.99931
2.99806
2.9961
2.98947
2.97818
3.00003
3.00003
3.00003
3.00003
3.00003
3.00003
3.00003
3.00003
3.00003
3.00003
3.00003
3.00003
3.00003
3.00003
3.00003
3.00002
3.00002
2.99999
2.99996
2.99984
2.99966
2.99899
2.998
2.99442
2.98889
3.00003
3.00003
3.00003
3.00003
3.00003
3.00003
3.00003
3.00003
3.00003
3.00003
3.00003
3.00003
3.00003
3.00003
3.00003
3.00003
3.00002
3.00001
2.99999
2.99995
2.9998
2.99958
2.99879
2.99758
2.99334
3.00003
3.00003
3.00003
3.00003
3.00003
3.00003
3.00003
3.00003
3.00003
3.00003
3.00003
3.00003
3.00003
3.00003
3.00003
3.00003
3.00003
3.00002
3.00001
2.99998
2.99993
2.99975
2.99949
2.99854
2.99709
3.00003
3.00003
3.00003
3.00003
3.00003
3.00003
3.00003
3.00003
3.00003
3.00003
3.00003
3.00003
3.00003
3.00003
3.00003
3.00003
3.00003
3.00003
3.00002
3.00001
2.99997
2.99991
2.9997
2.99939
2.99828
3.00003
3.00003
3.00003
3.00003
3.00003
3.00003
3.00003
3.00003
3.00003
3.00003
3.00003
3.00003
3.00003
3.00003
3.00003
3.00003
3.00003
3.00003
3.00002
3.00002
3
2.99996
2.99989
2.99965
2.99929
3.00003
3.00003
3.00003
3.00003
3.00003
3.00003
3.00003
3.00003
3.00003
3.00003
3.00003
3.00003
3.00003
3.00003
3.00003
3.00003
3.00003
3.00003
3.00003
3.00002
3.00002
2.99999
2.99996
2.99984
2.99966
3.00003
3.00003
3.00003
3.00003
3.00003
3.00003
3.00003
3.00003
3.00003
3.00003
3.00003
3.00003
3.00003
3.00003
3.00003
3.00003
3.00003
3.00003
3.00003
3.00003
3.00002
3.00001
2.99999
2.99994
2.9998
3.00003
3.00003
3.00003
3.00003
3.00003
3.00003
3.00003
3.00003
3.00003
3.00003
3.00003
3.00003
3.00003
3.00003
3.00003
3.00003
3.00003
3.00003
3.00003
3.00003
3.00002
3.00002
3
2.99997
2.99987
3
2.99999
2.99996
2.99991
2.99971
2.99942
2.9983
2.99659
2.99043
2.97937
2.9456
2.86563
2.68317
2.19886
1.3939
0.726309
0.499038
0.512816
0.527186
0.525949
0.528008
0.545656
0.589842
0.680164
0.863915
3
2.99999
2.99996
2.99992
2.99974
2.99949
2.99847
2.99703
2.99128
2.98257
2.95135
2.89222
2.7296
2.3435
1.59784
0.829869
0.545165
0.558603
0.57088
0.573434
0.580144
0.607042
0.667351
0.777688
0.971621
3
3
2.99997
2.99993
2.99978
2.99957
2.99872
2.99751
2.99269
2.9855
2.95921
2.9121
2.77372
2.46688
1.79856
0.940828
0.60412
0.60729
0.616826
0.625055
0.635698
0.667328
0.732657
0.840077
1.00668
3
3
2.99998
2.99995
2.99982
2.99965
2.99896
2.99799
2.99409
2.98826
2.96742
2.92735
2.81925
2.54173
1.99907
1.06167
0.673617
0.643417
0.656752
0.670769
0.687837
0.722158
0.785444
0.8814
1.02075
3
3
2.99998
2.99996
2.99987
2.99973
2.99921
2.99843
2.99559