/*--------------------------------*- C++ -*----------------------------------*\
| =========                 |                                                 |
| \\      /  F ield         | OpenFOAM: The Open Source CFD Toolbox           |
|  \\    /   O peration     | Version:  4.1                                   |
|   \\  /    A nd           | Web:      www.OpenFOAM.org                      |
|    \\/     M anipulation  |                                                 |
\*---------------------------------------------------------------------------*/
FoamFile
{
    version     2.0;
    format      ascii;
    class       volVectorField;
    location    "8.82";
    object      U;
}
// * * * * * * * * * * * * * * * * * * * * * * * * * * * * * * * * * * * * * //

dimensions      [0 1 -1 0 0 0 0];

internalField   nonuniform List<vector> 
52500
(
(2.99999 1.63229e-08 -0.00571426)
(2.99998 7.67056e-08 -0.00571443)
(2.99995 2.84797e-07 -0.00571468)
(2.99987 7.23954e-07 -0.00571547)
(2.9997 1.98541e-06 -0.00571693)
(2.99922 4.53987e-06 -0.00572138)
(2.99828 1.17711e-05 -0.0057299)
(2.99542 2.64973e-05 -0.00575413)
(2.9902 6.80183e-05 -0.00580877)
(2.97168 0.000153531 -0.0059294)
(2.93665 0.000396878 -0.00633982)
(2.8112 0.00100154 -0.0070115)
(2.45941 0.00283072 -0.00980048)
(1.63693 0.00728845 -0.01507)
(0.704867 0.0195539 -0.0180812)
(0.53224 0.020676 -0.0184577)
(0.567819 0.0221214 -0.0184974)
(0.569217 0.024336 -0.0185679)
(0.519412 0.0266118 -0.0187458)
(0.433987 0.0289548 -0.0189272)
(0.34918 0.0317222 -0.0191247)
(0.278123 0.035036 -0.0192923)
(0.206844 0.038601 -0.0194596)
(0.124967 0.0428211 -0.0196184)
(0.0557375 0.0490863 -0.019781)
(2.99999 5.02071e-08 -0.00571426)
(2.99998 2.28937e-07 -0.00571442)
(2.99995 8.65537e-07 -0.00571468)
(2.99987 2.19958e-06 -0.00571546)
(2.9997 6.0447e-06 -0.0057169)
(2.99923 1.38135e-05 -0.0057213)
(2.9983 3.58794e-05 -0.00572972)
(2.99546 8.05627e-05 -0.00575368)
(2.99031 0.000208019 -0.00580776)
(2.97195 0.000466823 -0.00592694)
(2.93738 0.00122376 -0.0063341)
(2.81307 0.00305093 -0.00699423)
(2.46507 0.00882093 -0.00976617)
(1.64936 0.0225678 -0.0149906)
(0.712519 0.0596341 -0.0179865)
(0.530432 0.0603431 -0.0183868)
(0.566867 0.0621909 -0.0184228)
(0.568719 0.0665763 -0.0184858)
(0.518633 0.0709214 -0.0186556)
(0.433117 0.0753409 -0.0188284)
(0.348294 0.0803287 -0.0190179)
(0.276704 0.0859166 -0.0191743)
(0.204345 0.0911855 -0.0193339)
(0.121095 0.0964068 -0.0194777)
(0.0515754 0.102067 -0.0196235)
(2.99999 7.63688e-08 -0.00571426)
(2.99998 3.87844e-07 -0.00571442)
(2.99995 1.45746e-06 -0.00571467)
(2.99987 3.72552e-06 -0.00571543)
(2.99971 1.02473e-05 -0.00571684)
(2.99925 2.3427e-05 -0.00572114)
(2.99834 6.09e-05 -0.00572938)
(2.99556 0.000136551 -0.00575278)
(2.99053 0.000353621 -0.00580573)
(2.97251 0.000790701 -0.00592203)
(2.93887 0.00208942 -0.00632235)
(2.81703 0.00515486 -0.00696034)
(2.47721 0.0151534 -0.00969485)
(1.67656 0.0386541 -0.0148435)
(0.730515 0.103128 -0.0178513)
(0.528497 0.102441 -0.0183056)
(0.567233 0.104576 -0.0183369)
(0.570644 0.112124 -0.0183915)
(0.520659 0.119874 -0.0185536)
(0.435642 0.128308 -0.0187131)
(0.351359 0.137552 -0.0188941)
(0.279575 0.14748 -0.0190429)
(0.206335 0.15706 -0.0191874)
(0.12182 0.165964 -0.0193287)
(0.0506999 0.173371 -0.0194607)
(2.99999 1.00517e-07 -0.00571426)
(2.99998 5.57891e-07 -0.00571441)
(2.99995 2.0757e-06 -0.00571465)
(2.99988 5.3291e-06 -0.00571539)
(2.99972 1.465e-05 -0.00571675)
(2.99927 3.35155e-05 -0.0057209)
(2.99839 8.69657e-05 -0.00572886)
(2.99571 0.0001953 -0.00575142)
(2.99086 0.000502868 -0.00580267)
(2.97337 0.00112597 -0.00591463)
(2.94113 0.00296669 -0.00630459)
(2.82308 0.007239 -0.00690997)
(2.49578 0.021494 -0.00958634)
(1.71881 0.0546843 -0.0146208)
(0.758289 0.147563 -0.0176769)
(0.525477 0.144331 -0.0182172)
(0.56868 0.146316 -0.0182414)
(0.575129 0.157041 -0.0182838)
(0.5258 0.168309 -0.0184309)
(0.44197 0.180986 -0.0185892)
(0.358674 0.194936 -0.0187408)
(0.286995 0.209784 -0.0188867)
(0.212927 0.224352 -0.0190244)
(0.126503 0.237711 -0.0191437)
(0.0520607 0.247425 -0.0192874)
(3 1.3322e-07 -0.00571426)
(2.99998 7.38913e-07 -0.00571441)
(2.99996 2.7558e-06 -0.00571463)
(2.99988 7.09435e-06 -0.00571534)
(2.99973 1.95642e-05 -0.00571663)
(2.99931 4.50461e-05 -0.00572058)
(2.99847 0.000116259 -0.00572816)
(2.99591 0.000268395 -0.00574958)
(2.99131 0.000656958 -0.00579855)
(2.97453 0.00155553 -0.00590478)
(2.94411 0.00383806 -0.0062806)
(2.83123 0.00943654 -0.00684447)
(2.52077 0.0273035 -0.00943771)
(1.77684 0.0705878 -0.0143116)
(0.795869 0.193188 -0.0174586)
(0.521017 0.186337 -0.0181229)
(0.570982 0.187785 -0.0181384)
(0.581882 0.201433 -0.0181654)
(0.533614 0.216008 -0.0182964)
(0.45167 0.232873 -0.0184427)
(0.369836 0.251596 -0.018596)
(0.298578 0.271766 -0.0186956)
(0.223634 0.292029 -0.0188322)
(0.134573 0.310718 -0.0189533)
(0.0555071 0.323504 -0.0190667)
(3 1.55056e-07 -0.00571426)
(2.99998 8.58959e-07 -0.00571439)
(2.99996 3.20769e-06 -0.0057146)
(2.99989 8.25568e-06 -0.00571526)
(2.99975 2.2827e-05 -0.00571646)
(2.99935 5.2583e-05 -0.00572013)
(2.99858 0.000136522 -0.00572725)
(2.99616 0.000313652 -0.00574666)
(2.99193 0.000783688 -0.00579383)
(2.97598 0.00181422 -0.00588886)
(2.94787 0.00475773 -0.00625328)
(2.8411 0.0112282 -0.00676194)
(2.55193 0.0335516 -0.00926451)
(1.85081 0.0868496 -0.0139161)
(0.841332 0.241044 -0.017195)
(0.513473 0.228975 -0.0180232)
(0.57341 0.229045 -0.0180345)
(0.590504 0.245313 -0.0180325)
(0.543974 0.262984 -0.0181608)
(0.46483 0.284235 -0.0182594)
(0.38521 0.308305 -0.018413)
(0.314894 0.334727 -0.0185146)
(0.239437 0.362109 -0.0186011)
(0.14692 0.388336 -0.018709)
(0.0611305 0.406545 -0.0188392)
(3 1.58162e-07 -0.00571425)
(2.99998 8.75659e-07 -0.00571438)
(2.99996 3.26282e-06 -0.00571458)
(2.9999 8.34999e-06 -0.00571518)
(2.99977 2.306e-05 -0.0057163)
(2.9994 5.24877e-05 -0.00571967)
(2.99869 0.000139315 -0.00572627)
(2.99645 0.000299783 -0.00574404)
(2.99256 0.000858073 -0.00578794)
(2.97779 0.00170961 -0.0058746)
(2.95216 0.00565378 -0.00621253)
(2.85332 0.0119075 -0.00667396)
(2.59088 0.0418348 -0.00901299)
(1.94292 0.103338 -0.0134053)
(0.898456 0.291637 -0.0168622)
(0.506055 0.273718 -0.0179095)
(0.578015 0.270715 -0.0179192)
(0.602417 0.288704 -0.0178982)
(0.557984 0.308931 -0.0180183)
(0.482516 0.334549 -0.0181059)
(0.406108 0.364685 -0.018188)
(0.337577 0.398804 -0.0182775)
(0.262182 0.435485 -0.0183599)
(0.16618 0.472683 -0.0184277)
(0.0711018 0.5013 -0.0185153)
(3 1.64472e-07 -0.00571425)
(2.99999 9.10072e-07 -0.00571437)
(2.99997 3.3833e-06 -0.00571455)
(2.99991 8.63805e-06 -0.00571511)
(2.99979 2.38141e-05 -0.00571613)
(2.99945 5.393e-05 -0.00571927)
(2.99879 0.000144563 -0.00572527)
(2.99676 0.000300435 -0.00574225)
(2.99311 0.000930939 -0.00578082)
(2.97991 0.00163487 -0.0058648)
(2.95659 0.00647873 -0.006157)
(2.86878 0.0124638 -0.00659578)
(2.63798 0.0486805 -0.00862733)
(2.05509 0.11681 -0.0127153)
(0.977293 0.338737 -0.0164408)
(0.510178 0.320456 -0.0177471)
(0.590952 0.314239 -0.0177528)
(0.621685 0.331864 -0.0177143)
(0.578698 0.353592 -0.0178234)
(0.50739 0.383701 -0.0179232)
(0.434754 0.42066 -0.0179927)
(0.369012 0.463841 -0.018015)
(0.295183 0.512587 -0.0180496)
(0.19665 0.566325 -0.0180842)
(0.0886729 0.616 -0.0181438)
(3 1.92074e-07 -0.00571425)
(2.99999 1.0568e-06 -0.00571436)
(2.99997 3.92169e-06 -0.00571452)
(2.99992 1.00486e-05 -0.00571503)
(2.99981 2.7618e-05 -0.00571595)
(2.9995 6.30442e-05 -0.0057188)
(2.9989 0.000166013 -0.00572417)
(2.9971 0.000359968 -0.00573999)
(2.99368 0.00102336 -0.00577309)
(2.98234 0.00195693 -0.00585444)
(2.9614 0.00689637 -0.00609193)
(2.88579 0.0133858 -0.0065068)
(2.68993 0.0501648 -0.00819786)
(2.18306 0.12138 -0.0118834)
(1.08029 0.366361 -0.0159328)
(0.536693 0.367601 -0.0175511)
(0.617094 0.364187 -0.0175713)
(0.651116 0.376212 -0.0175081)
(0.609462 0.397678 -0.0176016)
(0.542876 0.431752 -0.0176559)
(0.474369 0.476266 -0.017725)
(0.412345 0.52893 -0.0177317)
(0.343279 0.591995 -0.017697)
(0.248026 0.671348 -0.0176258)
(0.122652 0.764531 -0.0175135)
(3 3.62744e-07 -0.00571425)
(2.99999 7.09969e-07 -0.00571434)
(2.99997 5.37819e-06 -0.00571448)
(2.99993 8.28348e-06 -0.00571492)
(2.99983 3.67504e-05 -0.00571574)
(2.99957 5.37161e-05 -0.00571818)
(2.99903 0.000221795 -0.00572292)
(2.99747 0.000304338 -0.0057365)
(2.99445 0.00136958 -0.00576552)
(2.98474 0.00145178 -0.00583682)
(2.96632 0.00928509 -0.00603629)
(2.90245 0.00752103 -0.00641582)
(2.73972 0.0594219 -0.0077925)
(2.31135 0.0985566 -0.0111436)
(1.20947 0.345012 -0.0152778)
(0.600945 0.406835 -0.0171924)
(0.658304 0.422425 -0.0172566)
(0.68861 0.421168 -0.0172889)
(0.651432 0.443053 -0.017392)
(0.590926 0.47886 -0.0174108)
(0.526926 0.530024 -0.0174138)
(0.470193 0.591563 -0.0173745)
(0.413634 0.673666 -0.0172646)
(0.33715 0.795677 -0.0170437)
(0.188752 1.00248 -0.0166139)
(2.99999 1.38944e-08 -2.4629e-09)
(2.99998 7.55939e-08 -8.79343e-09)
(2.99995 2.8075e-07 -9.96256e-09)
(2.99987 7.21023e-07 -1.59737e-08)
(2.9997 1.98087e-06 -1.61879e-08)
(2.99922 4.53628e-06 -2.15953e-08)
(2.99828 1.17666e-05 -2.21329e-08)
(2.99542 2.64925e-05 -3.01197e-08)
(2.9902 6.80171e-05 -3.29052e-08)
(2.97168 0.000153513 -6.38077e-08)
(2.93664 0.000396861 -5.25458e-08)
(2.81119 0.00100275 -2.44781e-07)
(2.45936 0.00282773 -1.41416e-07)
(1.63678 0.00729711 -9.89699e-07)
(0.704813 0.0195532 -7.07155e-07)
(0.532269 0.0206755 -2.41306e-08)
(0.567837 0.0221212 -6.28724e-08)
(0.569226 0.024336 -1.15749e-07)
(0.519419 0.026612 -1.20989e-07)
(0.433994 0.0289552 -1.22007e-07)
(0.349187 0.0317229 -1.15492e-07)
(0.278129 0.035037 -1.1451e-07)
(0.206847 0.0386022 -1.1734e-07)
(0.124968 0.0428225 -1.21655e-07)
(0.0557379 0.0490876 -1.24765e-07)
(2.99999 4.2277e-08 -2.50927e-09)
(2.99998 2.30158e-07 -8.77271e-09)
(2.99995 8.55075e-07 -1.00112e-08)
(2.99987 2.1941e-06 -1.59581e-08)
(2.9997 6.03276e-06 -1.62129e-08)
(2.99923 1.38042e-05 -2.15806e-08)
(2.9983 3.58648e-05 -2.21418e-08)
(2.99546 8.05441e-05 -3.01474e-08)
(2.99031 0.000207993 -3.2645e-08)
(2.97195 0.00046675 -6.516e-08)
(2.93737 0.0012237 -5.04244e-08)
(2.81305 0.00305206 -2.2132e-07)
(2.46502 0.00881787 -2.17805e-07)
(1.64925 0.0225768 -7.58479e-07)
(0.712468 0.059632 -7.33461e-07)
(0.530464 0.0603426 -2.99533e-08)
(0.566885 0.0621911 -6.54415e-08)
(0.568728 0.0665768 -1.1534e-07)
(0.518641 0.0709222 -1.19529e-07)
(0.433124 0.0753425 -1.1982e-07)
(0.348302 0.0803309 -1.14166e-07)
(0.276709 0.0859192 -1.13849e-07)
(0.204348 0.0911883 -1.15742e-07)
(0.121097 0.0964097 -1.17917e-07)
(0.0515761 0.10207 -1.19201e-07)
(2.99999 7.17255e-08 -2.62182e-09)
(2.99998 3.90635e-07 -8.63394e-09)
(2.99995 1.45142e-06 -1.01534e-08)
(2.99987 3.72268e-06 -1.5906e-08)
(2.99971 1.02385e-05 -1.6298e-08)
(2.99925 2.34178e-05 -2.15637e-08)
(2.99834 6.08822e-05 -2.22275e-08)
(2.99556 0.000136526 -3.02367e-08)
(2.99052 0.000353567 -3.28455e-08)
(2.97251 0.000790624 -6.59413e-08)
(2.93886 0.00208931 -5.00179e-08)
(2.81701 0.00515487 -2.22688e-07)
(2.47717 0.015153 -2.14924e-07)
(1.67645 0.0386548 -7.43979e-07)
(0.730463 0.103123 -7.5197e-07)
(0.52853 0.10244 -2.49545e-08)
(0.567252 0.104576 -6.41845e-08)
(0.570653 0.112124 -1.14209e-07)
(0.520667 0.119875 -1.1745e-07)
(0.435651 0.128311 -1.16849e-07)
(0.351367 0.137555 -1.13081e-07)
(0.279581 0.147484 -1.13795e-07)
(0.206339 0.157065 -1.14081e-07)
(0.121821 0.165969 -1.11746e-07)
(0.0507007 0.173376 -1.08855e-07)
(2.99999 1.02588e-07 -2.60474e-09)
(2.99998 5.58819e-07 -8.63942e-09)
(2.99995 2.07599e-06 -1.01573e-08)
(2.99987 5.32616e-06 -1.59196e-08)
(2.99972 1.46389e-05 -1.63216e-08)
(2.99927 3.34848e-05 -2.16071e-08)
(2.99839 8.6896e-05 -2.23135e-08)
(2.99571 0.000195067 -3.03254e-08)
(2.99085 0.000502686 -3.32032e-08)
(2.97337 0.00112464 -6.5818e-08)
(2.94111 0.00296679 -5.07606e-08)
(2.82306 0.00723786 -2.20656e-07)
(2.49573 0.0214946 -2.19958e-07)
(1.7187 0.0546859 -7.48869e-07)
(0.758234 0.147559 -7.89747e-07)
(0.525509 0.144331 -1.53363e-08)
(0.568698 0.146316 -6.14345e-08)
(0.575138 0.157041 -1.12943e-07)
(0.525809 0.16831 -1.1515e-07)
(0.441979 0.180989 -1.13137e-07)
(0.358682 0.19494 -1.12098e-07)
(0.287001 0.20979 -1.1414e-07)
(0.212932 0.224358 -1.13089e-07)
(0.126505 0.237718 -1.04885e-07)
(0.0520617 0.247433 -9.65833e-08)
(2.99999 1.365e-07 -2.58069e-09)
(2.99998 7.40213e-07 -8.65089e-09)
(2.99995 2.75971e-06 -1.01716e-08)
(2.99988 7.09686e-06 -1.59715e-08)
(2.99973 1.95673e-05 -1.64639e-08)
(2.99931 4.50463e-05 -2.1954e-08)
(2.99847 0.000116257 -2.29906e-08)
(2.9959 0.000268392 -3.32502e-08)
(2.9913 0.000656928 -3.2248e-08)
(2.97453 0.0015558 -8.38109e-08)
(2.9441 0.00383658 -2.9909e-08)
(2.83122 0.00943747 -2.41251e-07)
(2.52073 0.0273012 -1.95145e-07)
(1.77673 0.0705852 -7.50852e-07)
(0.795827 0.193178 -8.29786e-07)
(0.521062 0.186335 -3.72626e-09)
(0.571007 0.187785 -6.26056e-08)
(0.581896 0.201434 -1.14613e-07)
(0.533627 0.21601 -1.14299e-07)
(0.451683 0.232877 -1.09128e-07)
(0.369847 0.251602 -1.09376e-07)
(0.298587 0.271773 -1.12701e-07)
(0.223639 0.292037 -1.11325e-07)
(0.134577 0.310726 -9.93536e-08)
(0.0555087 0.323514 -8.68139e-08)
(3 1.58862e-07 -2.5394e-09)
(2.99998 8.61108e-07 -8.67066e-09)
(2.99996 3.21394e-06 -1.01172e-08)
(2.99989 8.26325e-06 -1.59426e-08)
(2.99975 2.28438e-05 -1.63186e-08)
(2.99935 5.26163e-05 -2.16653e-08)
(2.99858 0.000136593 -2.23793e-08)
(2.99616 0.000313896 -3.03792e-08)
(2.99193 0.000783843 -3.38022e-08)
(2.97598 0.00181593 -6.02247e-08)
(2.94786 0.0047562 -8.24569e-08)
(2.84108 0.011231 -1.84201e-07)
(2.55187 0.0335476 -2.53438e-07)
(1.85068 0.0868454 -7.87572e-07)
(0.841271 0.241027 -9.03935e-07)
(0.513506 0.228967 2.2394e-08)
(0.573426 0.229043 -5.06782e-08)
(0.590513 0.245313 -1.1027e-07)
(0.543986 0.262987 -1.0904e-07)
(0.464843 0.284241 -1.01973e-07)
(0.385222 0.308313 -1.0197e-07)
(0.314903 0.334736 -1.07588e-07)
(0.239444 0.362119 -1.06913e-07)
(0.146925 0.388347 -9.52042e-08)
(0.0611328 0.406557 -8.32192e-08)
(3 1.60927e-07 -2.50469e-09)
(2.99998 8.79004e-07 -8.67521e-09)
(2.99996 3.26444e-06 -1.01035e-08)
(2.9999 8.35212e-06 -1.5934e-08)
(2.99977 2.30574e-05 -1.62911e-08)
(2.9994 5.24762e-05 -2.16204e-08)
(2.99869 0.000139281 -2.22804e-08)
(2.99644 0.000299619 -3.0034e-08)
(2.99256 0.000858029 -3.36766e-08)
(2.97779 0.00170814 -5.81158e-08)
(2.95215 0.00565563 -8.30367e-08)
(2.8533 0.0119059 -1.73988e-07)
(2.59082 0.0418388 -2.84929e-07)
(1.94278 0.103344 -8.03661e-07)
(0.898379 0.291632 -1.0181e-06)
(0.50607 0.27371 3.35706e-08)
(0.578018 0.270708 -4.40233e-08)
(0.602416 0.288701 -1.05164e-07)
(0.557989 0.308933 -1.02552e-07)
(0.482525 0.334554 -9.36021e-08)
(0.406118 0.364694 -9.15565e-08)
(0.337585 0.398814 -9.54743e-08)
(0.26219 0.435496 -9.52259e-08)
(0.166186 0.472696 -8.80832e-08)
(0.0711044 0.501314 -8.22847e-08)
(3 1.6678e-07 -2.48437e-09)
(2.99999 9.14453e-07 -8.65194e-09)
(2.99996 3.38531e-06 -1.01498e-08)
(2.99991 8.64503e-06 -1.59375e-08)
(2.99979 2.38256e-05 -1.63989e-08)
(2.99945 5.3959e-05 -2.18256e-08)
(2.99878 0.000144625 -2.27749e-08)
(2.99675 0.000300602 -3.27314e-08)
(2.99311 0.000931206 -3.16931e-08)
(2.97991 0.00163535 -8.62396e-08)
(2.95657 0.00648059 -2.66933e-08)
(2.86876 0.0124656 -2.35541e-07)
(2.63793 0.0486845 -1.92548e-07)
(2.05496 0.116819 -7.81899e-07)
(0.977233 0.338741 -1.08623e-06)
(0.510197 0.320443 2.98494e-09)
(0.590957 0.314223 -6.12396e-08)
(0.621686 0.331857 -1.01863e-07)
(0.578702 0.353591 -9.58906e-08)
(0.507397 0.383706 -8.38721e-08)
(0.434761 0.420669 -8.2557e-08)
(0.369019 0.463853 -8.55039e-08)
(0.29519 0.5126 -8.56218e-08)
(0.196656 0.56634 -8.22434e-08)
(0.0886761 0.616016 -8.13779e-08)
(3 1.91828e-07 -2.45869e-09)
(2.99999 1.06066e-06 -8.62796e-09)
(2.99997 3.91935e-06 -1.01428e-08)
(2.99991 1.00492e-05 -1.58532e-08)
(2.99981 2.76266e-05 -1.61883e-08)
(2.9995 6.30828e-05 -2.1281e-08)
(2.99889 0.000166127 -2.16122e-08)
(2.9971 0.000360367 -2.79915e-08)
(2.99367 0.00102381 -3.16024e-08)
(2.98234 0.00195965 -5.38883e-08)
(2.96139 0.00689696 -5.75837e-08)
(2.88577 0.0133925 -1.72311e-07)
(2.68988 0.0501691 -2.40032e-07)
(2.18294 0.121398 -7.29356e-07)
(1.08021 0.366408 -1.1637e-06)
(0.53668 0.36759 -8.93071e-08)
(0.617092 0.364163 -9.38415e-08)
(0.651118 0.376202 -8.63865e-08)
(0.609466 0.397677 -7.98641e-08)
(0.542882 0.431756 -6.99789e-08)
(0.474374 0.476275 -7.20142e-08)
(0.41235 0.528942 -7.25702e-08)
(0.343285 0.59201 -7.17903e-08)
(0.248031 0.671365 -7.00104e-08)
(0.122655 0.764549 -7.34149e-08)
(3 3.47829e-07 -2.48907e-09)
(2.99999 7.61206e-07 -8.57299e-09)
(2.99997 5.26444e-06 -1.02555e-08)
(2.99992 8.31361e-06 -1.58947e-08)
(2.99983 3.66169e-05 -1.62388e-08)
(2.99956 5.37568e-05 -2.12406e-08)
(2.99903 0.000221695 -2.12992e-08)
(2.99747 0.000304458 -2.72581e-08)
(2.99444 0.00136961 -3.01517e-08)
(2.98474 0.0014527 -4.37926e-08)
(2.96631 0.00928542 -5.84932e-08)
(2.90244 0.00752546 -1.31151e-07)
(2.73968 0.0594251 -2.00353e-07)
(2.31126 0.0985836 -5.69953e-07)
(1.20938 0.345065 -8.02823e-07)
(0.600908 0.406819 -3.57089e-07)
(0.658308 0.42239 -1.74394e-07)
(0.688623 0.421159 -4.54081e-08)
(0.651439 0.443055 -5.59684e-08)
(0.59093 0.478866 -6.21634e-08)
(0.526929 0.530033 -6.62813e-08)
(0.470197 0.591575 -6.60428e-08)
(0.413639 0.673681 -6.3686e-08)
(0.337156 0.795695 -5.88318e-08)
(0.188756 1.0025 -5.81203e-08)
(2.99999 1.38943e-08 -5.0395e-13)
(2.99998 7.55932e-08 -2.58504e-12)
(2.99995 2.80748e-07 -6.27578e-12)
(2.99987 7.21018e-07 -1.32048e-11)
(2.9997 1.98086e-06 -2.86676e-11)
(2.99922 4.53625e-06 -5.53828e-11)
(2.99828 1.17665e-05 -1.33794e-10)
(2.99542 2.64924e-05 -2.62932e-10)
(2.9902 6.80169e-05 -7.16901e-10)
(2.97168 0.000153513 -1.38964e-09)
(2.93664 0.000396859 -3.97777e-09)
(2.81119 0.00100277 -1.00551e-08)
(2.45936 0.00282766 -2.16611e-08)
(1.63676 0.00729727 -6.31439e-08)
(0.704806 0.0195531 -6.81346e-08)
(0.53227 0.0206755 -1.32463e-09)
(0.567837 0.0221212 -3.84007e-09)
(0.569226 0.024336 -8.14111e-09)
(0.519419 0.0266119 -8.5088e-09)
(0.433994 0.0289552 -8.45012e-09)
(0.349187 0.0317229 -7.71398e-09)
(0.278129 0.035037 -7.38704e-09)
(0.206847 0.0386023 -7.34589e-09)
(0.124968 0.0428225 -7.4001e-09)
(0.055738 0.0490876 -7.46412e-09)
(2.99999 4.22768e-08 -5.05838e-13)
(2.99998 2.30156e-07 -2.59804e-12)
(2.99995 8.55069e-07 -6.30455e-12)
(2.99987 2.19408e-06 -1.32677e-11)
(2.9997 6.03272e-06 -2.88058e-11)
(2.99923 1.38041e-05 -5.56802e-11)
(2.9983 3.58646e-05 -1.34323e-10)
(2.99546 8.05437e-05 -2.65007e-10)
(2.99031 0.000207992 -7.13398e-10)
(2.97195 0.000466747 -1.42589e-09)
(2.93737 0.00122369 -3.94744e-09)
(2.81304 0.00305207 -9.54087e-09)
(2.46502 0.00881778 -2.35074e-08)
(1.64924 0.022577 -5.81315e-08)
(0.712462 0.0596317 -6.93568e-08)
(0.530466 0.0603424 -1.17547e-09)
(0.566886 0.0621911 -3.78752e-09)
(0.568728 0.0665767 -8.1172e-09)
(0.518641 0.0709221 -8.43455e-09)
(0.433124 0.0753425 -8.32431e-09)
(0.348302 0.0803309 -7.60101e-09)
(0.276709 0.0859192 -7.29771e-09)
(0.204349 0.0911884 -7.24386e-09)
(0.121097 0.0964098 -7.28112e-09)
(0.0515761 0.10207 -7.32744e-09)
(2.99999 7.17251e-08 -5.09887e-13)
(2.99998 3.90632e-07 -2.62344e-12)
(2.99995 1.45141e-06 -6.36997e-12)
(2.99987 3.72265e-06 -1.34119e-11)
(2.99971 1.02385e-05 -2.91622e-11)
(2.99925 2.34177e-05 -5.64161e-11)
(2.99834 6.08819e-05 -1.36168e-10)
(2.99556 0.000136525 -2.69089e-10)
(2.99052 0.000353566 -7.2182e-10)
(2.97251 0.000790621 -1.45079e-09)
(2.93886 0.0020893 -3.97972e-09)
(2.81701 0.00515486 -9.59707e-09)
(2.47716 0.0151529 -2.37504e-08)
(1.67644 0.0386547 -5.84406e-08)
(0.730457 0.103123 -7.1524e-08)
(0.528532 0.10244 -4.56624e-10)
(0.567252 0.104576 -3.53958e-09)
(0.570653 0.112124 -8.09023e-09)
(0.520667 0.119875 -8.33377e-09)
(0.43565 0.128311 -8.11371e-09)
(0.351367 0.137555 -7.41344e-09)
(0.279581 0.147484 -7.14367e-09)
(0.206339 0.157065 -7.0873e-09)
(0.121822 0.165969 -7.08845e-09)
(0.0507008 0.173376 -7.08297e-09)
(2.99999 1.02586e-07 -5.16403e-13)
(2.99998 5.58812e-07 -2.65307e-12)
(2.99995 2.07597e-06 -6.4645e-12)
(2.99987 5.32608e-06 -1.36144e-11)
(2.99972 1.46386e-05 -2.96803e-11)
(2.99927 3.34843e-05 -5.74333e-11)
(2.99839 8.68948e-05 -1.3872e-10)
(2.99571 0.000195063 -2.73195e-10)
(2.99085 0.000502682 -7.3533e-10)
(2.97337 0.00112462 -1.46435e-09)
(2.94111 0.00296678 -4.05762e-09)
(2.82306 0.00723784 -9.60744e-09)
(2.49573 0.0214946 -2.433e-08)
(1.71869 0.0546858 -5.9546e-08)
(0.758227 0.147558 -7.52581e-08)
(0.525511 0.144331 7.92871e-10)
(0.568698 0.146316 -3.09494e-09)
(0.575138 0.157041 -8.01328e-09)
(0.525809 0.16831 -8.19848e-09)
(0.441979 0.180988 -7.8351e-09)
(0.358682 0.19494 -7.2026e-09)
(0.287002 0.20979 -6.90998e-09)
(0.212932 0.224358 -6.8801e-09)
(0.126505 0.237718 -6.80203e-09)
(0.0520618 0.247433 -6.74104e-09)
(2.99999 1.365e-07 -5.41303e-13)
(2.99998 7.40212e-07 -2.75045e-12)
(2.99995 2.75971e-06 -6.83467e-12)
(2.99988 7.09684e-06 -1.44676e-11)
(2.99973 1.95672e-05 -3.21835e-11)
(2.99931 4.50462e-05 -6.33642e-11)
(2.99847 0.000116256 -1.50735e-10)
(2.9959 0.000268391 -3.22666e-10)
(2.9913 0.000656927 -7.2641e-10)
(2.97453 0.0015558 -1.73826e-09)
(2.9441 0.00383655 -3.83922e-09)
(2.83121 0.00943745 -9.87258e-09)
(2.52072 0.0273012 -2.47638e-08)
(1.77672 0.070585 -6.13005e-08)
(0.79582 0.193177 -8.08001e-08)
(0.521064 0.186335 2.24184e-09)
(0.571007 0.187785 -2.7136e-09)
(0.581896 0.201434 -7.94104e-09)
(0.533627 0.21601 -8.00355e-09)
(0.451683 0.232877 -7.44961e-09)
(0.369847 0.251602 -6.83271e-09)
(0.298587 0.271773 -6.57349e-09)
(0.22364 0.292037 -6.53153e-09)
(0.134577 0.310727 -6.4319e-09)
(0.0555087 0.323514 -6.34046e-09)
(3 1.58865e-07 -5.21961e-13)
(2.99998 8.61122e-07 -2.66467e-12)
(2.99996 3.21399e-06 -6.54861e-12)
(2.99989 8.26338e-06 -1.3816e-11)
(2.99975 2.28442e-05 -3.03859e-11)
(2.99935 5.26172e-05 -5.93084e-11)
(2.99858 0.000136595 -1.43096e-10)
(2.99616 0.000313902 -2.91269e-10)
(2.99193 0.000783848 -7.46016e-10)
(2.97598 0.00181597 -1.53599e-09)
(2.94786 0.00475619 -4.48955e-09)
(2.84108 0.0112311 -9.77549e-09)
(2.55187 0.0335473 -2.38135e-08)
(1.85067 0.0868451 -6.50166e-08)
(0.841265 0.241026 -8.72937e-08)
(0.513509 0.228967 3.96082e-09)
(0.573427 0.229042 -2.35559e-09)
(0.590513 0.245313 -7.87008e-09)
(0.543986 0.262987 -7.76487e-09)
(0.464843 0.28424 -7.00832e-09)
(0.385222 0.308313 -6.35163e-09)
(0.314904 0.334736 -6.34431e-09)
(0.239444 0.362119 -6.28538e-09)
(0.146925 0.388348 -6.1038e-09)
(0.0611328 0.406558 -5.99233e-09)
(3 1.6093e-07 -4.85764e-13)
(2.99998 8.79023e-07 -2.50303e-12)
(2.99996 3.26452e-06 -6.01818e-12)
(2.9999 8.35231e-06 -1.26251e-11)
(2.99977 2.3058e-05 -2.70942e-11)
(2.9994 5.24775e-05 -5.18011e-11)
(2.99869 0.000139283 -1.27539e-10)
(2.99644 0.000299628 -2.33249e-10)
(2.99256 0.000858038 -7.38683e-10)
(2.97779 0.00170819 -1.20722e-09)
(2.95215 0.00565562 -4.62714e-09)
(2.8533 0.0119061 -7.92265e-09)
(2.59082 0.0418384 -3.08922e-08)
(1.94277 0.103344 -6.57488e-08)
(0.898371 0.291631 -9.77374e-08)
(0.506072 0.273709 5.65774e-09)
(0.578018 0.270707 -1.44493e-09)
(0.602415 0.288701 -7.48377e-09)
(0.557989 0.308932 -7.2904e-09)
(0.482525 0.334554 -6.50495e-09)
(0.406118 0.364694 -5.71919e-09)
(0.337585 0.398814 -5.66796e-09)
(0.26219 0.435497 -5.51917e-09)
(0.166186 0.472697 -5.44263e-09)
(0.0711045 0.501314 -5.50062e-09)
(3 1.66781e-07 -4.41711e-13)
(2.99999 9.14458e-07 -2.32772e-12)
(2.99996 3.38533e-06 -5.38839e-12)
(2.99991 8.64507e-06 -1.11972e-11)
(2.99979 2.38257e-05 -2.30236e-11)
(2.99945 5.39592e-05 -4.24145e-11)
(2.99878 0.000144626 -1.07318e-10)
(2.99675 0.000300603 -1.50832e-10)
(2.99311 0.000931209 -7.53503e-10)
(2.97991 0.00163536 -4.95677e-10)
(2.95657 0.00648059 -5.79504e-09)
(2.86876 0.0124657 -6.30231e-09)
(2.63793 0.0486847 -3.29154e-08)
(2.05495 0.11682 -6.66575e-08)
(0.977224 0.338741 -1.09219e-07)
(0.510197 0.320441 4.4155e-09)
(0.590956 0.314222 -1.00263e-09)
(0.621685 0.331856 -6.65165e-09)
(0.578701 0.353591 -6.47867e-09)
(0.507396 0.383706 -5.8022e-09)
(0.434761 0.420669 -5.18687e-09)
(0.369019 0.463853 -5.32244e-09)
(0.29519 0.512601 -5.31452e-09)
(0.196656 0.56634 -5.14789e-09)
(0.0886761 0.616016 -5.08635e-09)
(3 1.91829e-07 -4.66482e-13)
(2.99999 1.06067e-06 -2.41529e-12)
(2.99997 3.91936e-06 -5.75629e-12)
(2.99991 1.00492e-05 -1.20889e-11)
(2.99981 2.76267e-05 -2.56901e-11)
(2.9995 6.30829e-05 -4.94721e-11)
(2.99889 0.000166127 -1.1904e-10)
(2.9971 0.000360366 -2.30749e-10)
(2.99367 0.00102382 -6.82589e-10)
(2.98234 0.00195964 -1.05279e-09)
(2.96139 0.00689707 -4.76925e-09)
(2.88577 0.0133927 -6.91026e-09)
(2.68988 0.05017 -2.9888e-08)
(2.18293 0.1214 -6.44212e-08)
(1.0802 0.366413 -1.19419e-07)
(0.536676 0.367589 -3.72453e-09)
(0.617089 0.364161 -4.11649e-09)
(0.651116 0.376201 -5.66802e-09)
(0.609465 0.397677 -5.46314e-09)
(0.54288 0.431756 -4.93245e-09)
(0.474373 0.476275 -4.55663e-09)
(0.41235 0.528942 -4.54993e-09)
(0.343285 0.59201 -4.51981e-09)
(0.248031 0.671365 -4.40813e-09)
(0.122655 0.76455 -4.53749e-09)
(3 3.47829e-07 -4.31471e-13)
(2.99999 7.61224e-07 -2.26111e-12)
(2.99997 5.26448e-06 -5.21547e-12)
(2.99992 8.31375e-06 -1.08873e-11)
(2.99983 3.66173e-05 -2.1968e-11)
(2.99956 5.37576e-05 -4.15651e-11)
(2.99903 0.000221698 -9.4918e-11)
(2.99747 0.000304462 -1.80782e-10)
(2.99444 0.00136963 -5.03573e-10)
(2.98474 0.00145271 -8.9212e-10)
(2.96631 0.00928559 -3.43099e-09)
(2.90244 0.00752563 -4.57679e-09)
(2.73968 0.0594262 -2.17945e-08)
(2.31125 0.0985865 -4.73841e-08)
(1.20936 0.345072 -7.91719e-08)
(0.600902 0.406818 -3.16647e-08)
(0.658306 0.422386 -1.34757e-08)
(0.688622 0.421158 -3.05953e-09)
(0.651437 0.443054 -4.34281e-09)
(0.590928 0.478866 -4.87609e-09)
(0.526928 0.530032 -4.74755e-09)
(0.470196 0.591575 -4.66022e-09)
(0.413639 0.673681 -4.40439e-09)
(0.337156 0.795695 -4.04725e-09)
(0.188756 1.0025 -3.96276e-09)
(2.99999 1.38943e-08 -3.8971e-14)
(2.99998 7.55931e-08 -1.73498e-13)
(2.99995 2.80748e-07 -5.75381e-13)
(2.99987 7.21018e-07 -1.24489e-12)
(2.9997 1.98086e-06 -3.55974e-12)
(2.99922 4.53625e-06 -7.29201e-12)
(2.99828 1.17665e-05 -2.07021e-11)
(2.99542 2.64923e-05 -4.21294e-11)
(2.9902 6.80169e-05 -1.21934e-10)
(2.97168 0.000153513 -2.39655e-10)
(2.93664 0.000396859 -6.99982e-10)
(2.81119 0.00100277 -1.7842e-09)
(2.45936 0.00282765 -3.86644e-09)
(1.63676 0.00729729 -1.13111e-08)
(0.704805 0.0195531 -1.22871e-08)
(0.532271 0.0206755 -3.10486e-10)
(0.567837 0.0221212 -7.48456e-10)
(0.569226 0.024336 -1.52057e-09)
(0.519419 0.0266119 -1.59129e-09)
(0.433994 0.0289552 -1.5813e-09)
(0.349187 0.0317229 -1.4204e-09)
(0.278129 0.035037 -1.34729e-09)
(0.206847 0.0386023 -1.32861e-09)
(0.124968 0.0428225 -1.32323e-09)
(0.055738 0.0490876 -1.32809e-09)
(2.99999 4.22767e-08 -3.93021e-14)
(2.99998 2.30156e-07 -1.75023e-13)
(2.99995 8.55068e-07 -5.80161e-13)
(2.99987 2.19408e-06 -1.2555e-12)
(2.9997 6.03272e-06 -3.58634e-12)
(2.99923 1.38041e-05 -7.35024e-12)
(2.9983 3.58645e-05 -2.08137e-11)
(2.99546 8.05436e-05 -4.25301e-11)
(2.99031 0.000207992 -1.21419e-10)
(2.97195 0.000466747 -2.46146e-10)
(2.93737 0.00122369 -6.95433e-10)
(2.81304 0.00305208 -1.69215e-09)
(2.46502 0.00881777 -4.20133e-09)
(1.64924 0.022577 -1.04241e-08)
(0.712461 0.0596317 -1.25131e-08)
(0.530466 0.0603424 -2.84916e-10)
(0.566886 0.0621911 -7.39739e-10)
(0.568728 0.0665767 -1.51709e-09)
(0.518641 0.0709221 -1.57836e-09)
(0.433124 0.0753425 -1.55752e-09)
(0.348302 0.0803309 -1.39689e-09)
(0.276709 0.0859192 -1.32773e-09)
(0.204349 0.0911884 -1.30866e-09)
(0.121097 0.0964098 -1.30402e-09)
(0.0515761 0.10207 -1.30902e-09)
(2.99999 7.1725e-08 -4.01197e-14)
(2.99998 3.90631e-07 -1.78602e-13)
(2.99995 1.4514e-06 -5.91858e-13)
(2.99987 3.72265e-06 -1.28103e-12)
(2.99971 1.02385e-05 -3.65541e-12)
(2.99925 2.34177e-05 -7.49373e-12)
(2.99834 6.08818e-05 -2.11814e-11)
(2.99556 0.000136525 -4.33413e-11)
(2.99052 0.000353565 -1.23131e-10)
(2.97251 0.000790621 -2.51037e-10)
(2.93886 0.0020893 -7.02233e-10)
(2.81701 0.00515486 -1.70464e-09)
(2.47716 0.0151529 -4.25018e-09)
(1.67644 0.0386547 -1.04922e-08)
(0.730456 0.103123 -1.29155e-08)
(0.528532 0.10244 -1.58472e-10)
(0.567252 0.104576 -6.97008e-10)
(0.570653 0.112124 -1.51419e-09)
(0.520667 0.119875 -1.56192e-09)
(0.43565 0.128311 -1.52058e-09)
(0.351367 0.137555 -1.3587e-09)
(0.279581 0.147484 -1.29603e-09)
(0.206339 0.157065 -1.27794e-09)
(0.121822 0.165969 -1.27407e-09)
(0.0507008 0.173376 -1.27832e-09)
(2.99999 1.02586e-07 -4.14027e-14)
(2.99998 5.58811e-07 -1.84667e-13)
(2.99995 2.07596e-06 -6.1041e-13)
(2.99987 5.32607e-06 -1.32088e-12)
(2.99972 1.46386e-05 -3.75758e-12)
(2.99927 3.34842e-05 -7.69456e-12)
(2.99839 8.68946e-05 -2.16899e-11)
(2.99571 0.000195063 -4.41716e-11)
(2.99085 0.000502682 -1.25851e-10)
(2.97337 0.00112462 -2.53926e-10)
(2.94111 0.00296678 -7.17806e-10)
(2.82306 0.00723783 -1.70988e-09)
(2.49573 0.0214946 -4.3625e-09)
(1.71869 0.0546858 -1.07099e-08)
(0.758227 0.147558 -1.36103e-08)
(0.525511 0.144331 6.27487e-11)
(0.568698 0.146316 -6.17767e-10)
(0.575138 0.157041 -1.50211e-09)
(0.525809 0.16831 -1.53585e-09)
(0.441978 0.180988 -1.46999e-09)
(0.358682 0.19494 -1.30988e-09)
(0.287002 0.20979 -1.24665e-09)
(0.212932 0.224358 -1.23574e-09)
(0.126505 0.237718 -1.2269e-09)
(0.0520618 0.247433 -1.23138e-09)
(2.99999 1.36499e-07 -4.62054e-14)
(2.99998 7.40212e-07 -2.03779e-13)
(2.99995 2.75971e-06 -6.81238e-13)
(2.99988 7.09684e-06 -1.48438e-12)
(2.99973 1.95672e-05 -4.23386e-12)
(2.99931 4.50461e-05 -8.82319e-12)
(2.99847 0.000116256 -2.39799e-11)
(2.9959 0.000268391 -5.35437e-11)
(2.9913 0.000656927 -1.24379e-10)
(2.97453 0.0015558 -3.06084e-10)
(2.9441 0.00383655 -6.77444e-10)
(2.83121 0.00943744 -1.76592e-09)
(2.52072 0.0273012 -4.44704e-09)
(1.77671 0.070585 -1.10518e-08)
(0.79582 0.193177 -1.46405e-08)
(0.521064 0.186335 3.19207e-10)
(0.571008 0.187785 -5.50254e-10)
(0.581896 0.201434 -1.49109e-09)
(0.533627 0.21601 -1.50129e-09)
(0.451683 0.232877 -1.40057e-09)
(0.369847 0.251602 -1.24386e-09)
(0.298587 0.271773 -1.18164e-09)
(0.22364 0.292037 -1.17108e-09)
(0.134577 0.310727 -1.16018e-09)
(0.0555087 0.323514 -1.16622e-09)
(3 1.58865e-07 -4.2647e-14)
(2.99998 8.61123e-07 -1.89212e-13)
(2.99996 3.214e-06 -6.29471e-13)
(2.99989 8.2634e-06 -1.3665e-12)
(2.99975 2.28442e-05 -3.90655e-12)
(2.99935 5.26173e-05 -8.0752e-12)