/*--------------------------------*- C++ -*----------------------------------*\
| =========                 |                                                 |
| \\      /  F ield         | OpenFOAM: The Open Source CFD Toolbox           |
|  \\    /   O peration     | Version:  4.1                                   |
|   \\  /    A nd           | Web:      www.OpenFOAM.org                      |
|    \\/     M anipulation  |                                                 |
\*---------------------------------------------------------------------------*/
FoamFile
{
    version     2.0;
    format      ascii;
    class       volScalarField;
    location    "5";
    object      Ma;
}
// * * * * * * * * * * * * * * * * * * * * * * * * * * * * * * * * * * * * * //

dimensions      [0 0 0 0 0 0 0];

internalField   nonuniform List<scalar> 
52500
(
3.00002
2.99997
2.99991
2.99968
2.99936
2.99804
2.99616
2.98894
2.97686
2.93778
2.84847
2.64271
2.09682
1.25775
0.523876
0.278772
0.329075
0.343984
0.311737
0.257176
0.204895
0.163174
0.122197
0.0768402
0.043766
3.00002
2.99997
2.99992
2.99969
2.99937
2.99807
2.99621
2.98911
2.97718
2.93872
2.85057
2.64768
2.10657
1.27142
0.530631
0.278267
0.33006
0.345778
0.313775
0.260014
0.209075
0.168877
0.130151
0.0900503
0.0663548
3.00002
2.99997
2.99992
2.9997
2.99939
2.99812
2.99631
2.98938
2.97784
2.9403
2.85502
2.65701
2.13175
1.30385
0.549018
0.281904
0.335841
0.353219
0.321984
0.270268
0.222263
0.185503
0.15167
0.119952
0.104342
3.00002
2.99997
2.99992
2.99971
2.99941
2.9982
2.99647
2.9898
2.97882
2.94273
2.86175
2.6713
2.17063
1.35513
0.577262
0.288351
0.345494
0.365703
0.335886
0.287136
0.242907
0.210399
0.18206
0.157345
0.146168
3.00002
2.99998
2.99993
2.99972
2.99944
2.99828
2.99664
2.99017
2.98003
2.94528
2.87178
2.6904
2.22556
1.42812
0.61706
0.301236
0.360707
0.384029
0.355645
0.310366
0.269906
0.241623
0.218152
0.19883
0.190689
3.00002
2.99998
2.99993
2.99974
2.99948
2.99839
2.99685
2.99071
2.98145
2.94833
2.88404
2.71346
2.29276
1.52227
0.668656
0.324442
0.383721
0.409042
0.381934
0.339903
0.303265
0.278911
0.260248
0.245848
0.240547
3.00002
2.99998
2.99994
2.99977
2.99952
2.99852
2.99712
2.99151
2.98307
2.95268
2.8959
2.7382
2.36524
1.6334
0.730834
0.36205
0.41774
0.441771
0.415728
0.37702
0.343619
0.32308
0.308877
0.299877
0.299749
3.00002
2.99999
2.99995
2.99979
2.99957
2.99866
2.99739
2.99229
2.98465
2.95691
2.90605
2.76125
2.4244
1.72793
0.788176
0.398151
0.447688
0.46864
0.448489
0.41712
0.388993
0.373486
0.365621
0.364338
0.373961
3.00002
2.99999
2.99996
2.99982
2.99962
2.99881
2.99767
2.99308
2.98629
2.96134
2.91556
2.78702
2.47349
1.83695
0.867228
0.454226
0.472064
0.484449
0.477769
0.45668
0.437064
0.428836
0.429426
0.441876
0.475715
3.00002
3
2.99997
2.99985
2.99968
2.99903
2.99805
2.9945
2.98817
2.96878
2.92343
2.81639
2.5162
1.95365
0.978368
0.525473
0.488964
0.501446
0.505602
0.494583
0.486347
0.487647
0.503635
0.544938
0.643972
3
2.99995
2.9999
2.99966
2.99934
2.99802
2.99614
2.98892
2.97684
2.93774
2.84843
2.64264
2.09674
1.25761
0.523736
0.278568
0.328889
0.343798
0.31153
0.256923
0.204573
0.162762
0.121639
0.0759369
0.042136
3
2.99995
2.9999
2.99967
2.99935
2.99805
2.99619
2.98909
2.97716
2.93869
2.85053
2.64761
2.10649
1.27128
0.530492
0.278063
0.329874
0.345593
0.31357
0.259765
0.208761
0.168484
0.129633
0.0892904
0.0653068
3
2.99996
2.9999
2.99968
2.99937
2.9981
2.99629
2.98936
2.97781
2.94027
2.85498
2.65694
2.13167
1.30372
0.548884
0.281702
0.335658
0.353039
0.321784
0.270029
0.221969
0.185148
0.151231
0.11939
0.103689
3
2.99996
2.9999
2.99969
2.99939
2.99818
2.99645
2.98978
2.97879
2.9427
2.86172
2.67123
2.17055
1.35499
0.577132
0.28815
0.345313
0.365526
0.335694
0.286911
0.24264
0.210089
0.181698
0.156923
0.145709
3
2.99996
2.99991
2.9997
2.99942
2.99826
2.99662
2.99015
2.98
2.94524
2.87176
2.69034
2.22553
1.42801
0.616959
0.301061
0.360546
0.383871
0.355471
0.310164
0.26967
0.241357
0.217855
0.198501
0.190344
3
2.99996
2.99992
2.99972
2.99946
2.99837
2.99683
2.99068
2.98143
2.9483
2.88401
2.7134
2.2927
1.52215
0.668556
0.324273
0.383571
0.408897
0.381777
0.339725
0.303061
0.278686
0.260003
0.245587
0.240278
3
2.99997
2.99992
2.99975
2.9995
2.9985
2.9971
2.99149
2.98304
2.95265
2.89586
2.73814
2.36518
1.63328
0.730733
0.361888
0.417596
0.441635
0.415584
0.376861
0.343443
0.32289
0.308676
0.299668
0.299538
3
2.99997
2.99993
2.99977
2.99955
2.99864
2.99737
2.99227
2.98463
2.95688
2.90602
2.7612
2.42436
1.72783
0.788097
0.398009
0.447563
0.468518
0.44836
0.41698
0.388842
0.373327
0.365457
0.364171
0.373797
3
2.99997
2.99994
2.9998
2.9996
2.99879
2.99765
2.99306
2.98627
2.96131
2.91553
2.78697
2.47346
1.83684
0.867139
0.454087
0.471951
0.484338
0.477654
0.456557
0.436933
0.428702
0.429291
0.441743
0.475593
3
2.99998
2.99995
2.99983
2.99967
2.99901
2.99803
2.99448
2.98815
2.96875
2.9234
2.81634
2.51616
1.95357
0.978282
0.525348
0.488857
0.501342
0.505497
0.494474
0.486234
0.487534
0.503525
0.544837
0.643888
3
2.99995
2.9999
2.99966
2.99934
2.99802
2.99614
2.98892
2.97684
2.93774
2.84843
2.64264
2.09674
1.25761
0.523735
0.27857
0.328889
0.343798
0.31153
0.256923
0.204573
0.162763
0.12164
0.0759375
0.0421365
3
2.99995
2.9999
2.99967
2.99935
2.99805
2.99619
2.98909
2.97716
2.93869
2.85053
2.64761
2.10649
1.27128
0.53049
0.278064
0.329874
0.345593
0.31357
0.259765
0.208761
0.168484
0.129633
0.0892906
0.0653073
3
2.99996
2.9999
2.99968
2.99937
2.9981
2.99629
2.98936
2.97781
2.94027
2.85498
2.65694
2.13167
1.30371
0.548882
0.281703
0.335658
0.353038
0.321784
0.270029
0.221969
0.185148
0.151231
0.119391
0.103689
3
2.99996
2.9999
2.99969
2.99939
2.99818
2.99645
2.98978
2.97879
2.9427
2.86172
2.67123
2.17055
1.35499
0.57713
0.28815
0.345313
0.365526
0.335693
0.286911
0.24264
0.210088
0.181698
0.156924
0.14571
3
2.99996
2.99991
2.9997
2.99942
2.99826
2.99662
2.99015
2.98
2.94524
2.87176
2.69033
2.22552
1.428
0.616956
0.301061
0.360546
0.38387
0.355471
0.310164
0.26967
0.241357
0.217855
0.198502
0.190344
3
2.99996
2.99992
2.99972
2.99946
2.99837
2.99683
2.99068
2.98143
2.9483
2.88401
2.7134
2.2927
1.52214
0.668553
0.324274
0.38357
0.408897
0.381777
0.339724
0.303061
0.278685
0.260003
0.245587
0.240278
3
2.99997
2.99992
2.99975
2.9995
2.9985
2.9971
2.99149
2.98304
2.95265
2.89586
2.73814
2.36517
1.63327
0.730731
0.361887
0.417596
0.441634
0.415583
0.376861
0.343443
0.32289
0.308676
0.299668
0.299539
3
2.99997
2.99993
2.99977
2.99955
2.99864
2.99737
2.99227
2.98463
2.95688
2.90602
2.7612
2.42435
1.72783
0.788096
0.398009
0.447563
0.468518
0.44836
0.416979
0.388841
0.373326
0.365456
0.364171
0.373797
3
2.99997
2.99994
2.9998
2.9996
2.99879
2.99765
2.99306
2.98627
2.96131
2.91553
2.78697
2.47346
1.83683
0.867136
0.454086
0.471952
0.484338
0.477654
0.456557
0.436933
0.428701
0.429291
0.441743
0.475593
3
2.99998
2.99995
2.99983
2.99967
2.99901
2.99803
2.99448
2.98815
2.96875
2.9234
2.81634
2.51616
1.95356
0.978279
0.525346
0.488857
0.501342
0.505497
0.494473
0.486233
0.487533
0.503525
0.544836
0.643888
3
2.99995
2.9999
2.99966
2.99934
2.99802
2.99614
2.98892
2.97684
2.93774
2.84843
2.64264
2.09674
1.25761
0.523735
0.27857
0.32889
0.343798
0.31153
0.256923
0.204573
0.162763
0.12164
0.0759375
0.0421365
3
2.99995
2.9999
2.99967
2.99935
2.99805
2.99619
2.98909
2.97716
2.93869
2.85053
2.64761
2.10649
1.27128
0.530491
0.278064
0.329874
0.345593
0.31357
0.259765
0.208762
0.168484
0.129634
0.0892907
0.0653073
3
2.99996
2.9999
2.99968
2.99937
2.9981
2.99629
2.98936
2.97781
2.94027
2.85498
2.65694
2.13167
1.30371
0.548882
0.281703
0.335658
0.353038
0.321784
0.270029
0.221969
0.185148
0.151231
0.119391
0.103689
3
2.99996
2.9999
2.99969
2.99939
2.99818
2.99645
2.98978
2.97879
2.9427
2.86172
2.67123
2.17055
1.35499
0.57713
0.288151
0.345314
0.365526
0.335693
0.286911
0.24264
0.210088
0.181698
0.156924
0.14571
3
2.99996
2.99991
2.9997
2.99942
2.99826
2.99662
2.99015
2.98
2.94524
2.87176
2.69033
2.22552
1.428
0.616956
0.301061
0.360546
0.38387
0.355471
0.310164
0.26967
0.241357
0.217855
0.198502
0.190344
3
2.99996
2.99992
2.99972
2.99946
2.99837
2.99683
2.99068
2.98143
2.9483
2.88401
2.7134
2.2927
1.52214
0.668553
0.324274
0.38357
0.408897
0.381777
0.339724
0.303061
0.278685
0.260003
0.245587
0.240278
3
2.99997
2.99992
2.99975
2.9995
2.9985
2.9971
2.99149
2.98304
2.95265
2.89586
2.73814
2.36517
1.63327
0.730731
0.361887
0.417596
0.441634
0.415583
0.376861
0.343443
0.32289
0.308676
0.299669
0.299539
3
2.99997
2.99993
2.99977
2.99955
2.99864
2.99737
2.99227
2.98463
2.95688
2.90602
2.7612
2.42435
1.72783
0.788096
0.398009
0.447563
0.468518
0.44836
0.416979
0.388841
0.373326
0.365456
0.364171
0.373797
3
2.99997
2.99994
2.9998
2.9996
2.99879
2.99765
2.99306
2.98627
2.96131
2.91553
2.78697
2.47346
1.83683
0.867136
0.454086
0.471952
0.484338
0.477654
0.456557
0.436933
0.428701
0.429291
0.441743
0.475593
3
2.99998
2.99995
2.99983
2.99967
2.99901
2.99803
2.99448
2.98815
2.96875
2.9234
2.81634
2.51616
1.95356
0.978279
0.525346
0.488857
0.501342
0.505497
0.494473
0.486233
0.487533
0.503525
0.544837
0.643888
3
2.99995
2.9999
2.99966
2.99934
2.99802
2.99614
2.98892
2.97684
2.93774
2.84843
2.64264
2.09674
1.25761
0.523734
0.27857
0.328889
0.343798
0.31153
0.256923
0.204573
0.162763
0.121639
0.0759374
0.0421365
3
2.99995
2.9999
2.99967
2.99935
2.99805
2.99619
2.98909
2.97716
2.93869
2.85053
2.64761
2.10649
1.27127
0.53049
0.278064
0.329874
0.345593
0.31357
0.259765
0.208761
0.168484
0.129633
0.0892906
0.0653072
3
2.99996
2.9999
2.99968
2.99937
2.9981
2.99629
2.98936
2.97781
2.94027
2.85498
2.65694
2.13167
1.30371
0.548881
0.281703
0.335658
0.353038
0.321784
0.270029
0.221969
0.185148
0.151231
0.11939
0.103689
3
2.99996
2.9999
2.99969
2.99939
2.99818
2.99645
2.98978
2.97879
2.9427
2.86172
2.67123
2.17055
1.35499
0.577129
0.288151
0.345313
0.365526
0.335693
0.286911
0.24264
0.210088
0.181698
0.156923
0.14571
3
2.99996
2.99991
2.9997
2.99942
2.99826
2.99662
2.99015
2.98
2.94524
2.87176
2.69033
2.22552
1.428
0.616956
0.301061
0.360546
0.38387
0.35547
0.310163
0.26967
0.241357
0.217855
0.198502
0.190344
3
2.99996
2.99992
2.99972
2.99946
2.99837
2.99683
2.99068
2.98143
2.9483
2.88401
2.7134
2.2927
1.52214
0.668553
0.324273
0.38357
0.408896
0.381777
0.339724
0.303061
0.278685
0.260003
0.245587
0.240278
3
2.99997
2.99992
2.99975
2.9995
2.9985
2.9971
2.99149
2.98304
2.95265
2.89586
2.73814
2.36517
1.63327
0.73073
0.361887
0.417595
0.441634
0.415583
0.37686
0.343443
0.32289
0.308676
0.299668
0.299539
3
2.99997
2.99993
2.99977
2.99955
2.99864
2.99737
2.99227
2.98463
2.95688
2.90602
2.7612
2.42435
1.72783
0.788095
0.398009
0.447562
0.468518
0.448359
0.416979
0.388841
0.373326
0.365456
0.364171
0.373797
3
2.99997
2.99994
2.9998
2.9996
2.99879
2.99765
2.99306
2.98627
2.96131
2.91553
2.78697
2.47346
1.83683
0.867135
0.454086
0.471952
0.484338
0.477653
0.456557
0.436933
0.428701
0.42929
0.441743
0.475593
3
2.99998
2.99995
2.99983
2.99967
2.99901
2.99803
2.99448
2.98815
2.96875
2.9234
2.81634
2.51616
1.95356
0.978278
0.525346
0.488857
0.501342
0.505497
0.494473
0.486233
0.487533
0.503524
0.544836
0.643887
3
2.99995
2.9999
2.99966
2.99934
2.99802
2.99614
2.98892
2.97684
2.93774
2.84843
2.64264
2.09674
1.25761
0.523734
0.27857
0.328889
0.343798
0.31153
0.256923
0.204573
0.162763
0.121639
0.0759374
0.0421365
3
2.99995
2.9999
2.99967
2.99935
2.99805
2.99619
2.98909
2.97716
2.93869
2.85053
2.64761
2.10649
1.27127
0.53049
0.278064
0.329874
0.345593
0.31357
0.259765
0.208761
0.168484
0.129633
0.0892906
0.0653072
3
2.99996
2.9999
2.99968
2.99937
2.9981
2.99629
2.98936
2.97781
2.94027
2.85498
2.65694
2.13167
1.30371
0.548881
0.281703
0.335658
0.353038
0.321784
0.270029
0.221969
0.185148
0.151231
0.11939
0.103689
3
2.99996
2.9999
2.99969
2.99939
2.99818
2.99645
2.98978
2.97879
2.9427
2.86171
2.67123
2.17055
1.35499
0.577129
0.288151
0.345313
0.365526
0.335693
0.286911
0.24264
0.210088
0.181698
0.156923
0.14571
3
2.99996
2.99991
2.9997
2.99942
2.99826
2.99662
2.99015
2.98
2.94524
2.87176
2.69033
2.22552
1.428
0.616956
0.301061
0.360546
0.38387
0.35547
0.310163
0.26967
0.241357
0.217855
0.198502
0.190344
3
2.99996
2.99992
2.99972
2.99946
2.99837
2.99683
2.99068
2.98143
2.9483
2.88401
2.7134
2.2927
1.52214
0.668553
0.324273
0.38357
0.408896
0.381777
0.339724
0.303061
0.278685
0.260003
0.245587
0.240278
3
2.99997
2.99992
2.99975
2.9995
2.9985
2.9971
2.99149
2.98304
2.95265
2.89586
2.73814
2.36517
1.63327
0.73073
0.361887
0.417595
0.441634
0.415583
0.37686
0.343443
0.32289
0.308676
0.299668
0.299539
3
2.99997
2.99993
2.99977
2.99955
2.99864
2.99737
2.99227
2.98463
2.95688
2.90602
2.7612
2.42435
1.72783
0.788095
0.398009
0.447562
0.468518
0.448359
0.416979
0.388841
0.373326
0.365456
0.364171
0.373797
3
2.99997
2.99994
2.9998
2.9996
2.99879
2.99765
2.99306
2.98627
2.96131
2.91553
2.78697
2.47346
1.83683
0.867135
0.454086
0.471951
0.484338
0.477653
0.456557
0.436933
0.428701
0.42929
0.441743
0.475593
3
2.99998
2.99995
2.99983
2.99967
2.99901
2.99803
2.99448
2.98815
2.96875
2.9234
2.81634
2.51616
1.95356
0.978278
0.525346
0.488857
0.501342
0.505497
0.494473
0.486233
0.487533
0.503524
0.544836
0.643887
3
2.99995
2.9999
2.99966
2.99934
2.99802
2.99614
2.98892
2.97684
2.93774
2.84843
2.64264
2.09674
1.25761
0.523735
0.27857
0.328889
0.343798
0.31153
0.256923
0.204573
0.162763
0.12164
0.0759375
0.0421365
3
2.99995
2.9999
2.99967
2.99935
2.99805
2.99619
2.98909
2.97716
2.93869
2.85053
2.64761
2.10649
1.27128
0.53049
0.278064
0.329874
0.345593
0.31357
0.259765
0.208761
0.168484
0.129633
0.0892906
0.0653073
3
2.99996
2.9999
2.99968
2.99937
2.9981
2.99629
2.98936
2.97781
2.94027
2.85498
2.65694
2.13167
1.30371
0.548882
0.281703
0.335658
0.353038
0.321784
0.270029
0.221969
0.185148
0.151231
0.119391
0.103689
3
2.99996
2.9999
2.99969
2.99939
2.99818
2.99645
2.98978
2.97879
2.9427
2.86172
2.67123
2.17055
1.35499
0.57713
0.288151
0.345313
0.365526
0.335693
0.286911
0.24264
0.210088
0.181698
0.156924
0.14571
3
2.99996
2.99991
2.9997
2.99942
2.99826
2.99662
2.99015
2.98
2.94524
2.87176
2.69033
2.22552
1.428
0.616956
0.301061
0.360546
0.38387
0.355471
0.310164
0.26967
0.241357
0.217855
0.198502
0.190344
3
2.99996
2.99992
2.99972
2.99946
2.99837
2.99683
2.99068
2.98143
2.9483
2.88401
2.7134
2.2927
1.52214
0.668553
0.324274
0.38357
0.408897
0.381777
0.339724
0.303061
0.278685
0.260003
0.245587
0.240278
3
2.99997
2.99992
2.99975
2.9995
2.9985
2.9971
2.99149
2.98304
2.95265
2.89586
2.73814
2.36517
1.63327
0.73073
0.361887
0.417595
0.441634
0.415583
0.376861
0.343443
0.32289
0.308676
0.299668
0.299539
3
2.99997
2.99993
2.99977
2.99955
2.99864
2.99737
2.99227
2.98463
2.95688
2.90602
2.7612
2.42435
1.72783
0.788096
0.398009
0.447563
0.468518
0.44836
0.416979
0.388841
0.373326
0.365456
0.364171
0.373797
3
2.99997
2.99994
2.9998
2.9996
2.99879
2.99765
2.99306
2.98627
2.96131
2.91553
2.78697
2.47346
1.83683
0.867136
0.454086
0.471952
0.484338
0.477654
0.456557
0.436933
0.428701
0.429291
0.441743
0.475593
3
2.99998
2.99995
2.99983
2.99967
2.99901
2.99803
2.99448
2.98815
2.96875
2.9234
2.81634
2.51616
1.95356
0.978279
0.525346
0.488857
0.501342
0.505497
0.494473
0.486233
0.487533
0.503525
0.544836
0.643888
3
2.99995
2.9999
2.99966
2.99934
2.99802
2.99614
2.98892
2.97684
2.93774
2.84843
2.64264
2.09674
1.25761
0.523735
0.27857
0.328889
0.343798
0.31153
0.256923
0.204573
0.162763
0.12164
0.0759375
0.0421365
3
2.99995
2.9999
2.99967
2.99935
2.99805
2.99619
2.98909
2.97716
2.93869
2.85053
2.64761
2.10649
1.27128
0.53049
0.278064
0.329874
0.345593
0.31357
0.259765
0.208761
0.168484
0.129633
0.0892906
0.0653073
3
2.99996
2.9999
2.99968
2.99937
2.9981
2.99629
2.98936
2.97781
2.94027
2.85498
2.65694
2.13167
1.30371
0.548882
0.281703
0.335658
0.353038
0.321784
0.270029
0.221969
0.185148
0.151231
0.119391
0.103689
3
2.99996
2.9999
2.99969
2.99939
2.99818
2.99645
2.98978
2.97879
2.9427
2.86172
2.67123
2.17055
1.35499
0.57713
0.28815
0.345313
0.365526
0.335693
0.286911
0.24264
0.210088
0.181698
0.156924
0.14571
3
2.99996
2.99991
2.9997
2.99942
2.99826
2.99662
2.99015
2.98
2.94524
2.87176
2.69033
2.22552
1.428
0.616956
0.301061
0.360546
0.38387
0.355471
0.310164
0.26967
0.241357
0.217855
0.198502
0.190344
3
2.99996
2.99992
2.99972
2.99946
2.99837
2.99683
2.99068
2.98143
2.9483
2.88401
2.7134
2.2927
1.52214
0.668553
0.324274
0.38357
0.408897
0.381777
0.339724
0.303061
0.278685
0.260003
0.245587
0.240278
3
2.99997
2.99992
2.99975
2.9995
2.9985
2.9971
2.99149
2.98304
2.95265
2.89586
2.73814
2.36517
1.63327
0.730731
0.361887
0.417596
0.441634
0.415583
0.376861
0.343443
0.32289
0.308676
0.299668
0.299539
3
2.99997
2.99993
2.99977
2.99955
2.99864
2.99737
2.99227
2.98463
2.95688
2.90602
2.7612
2.42435
1.72783
0.788096
0.398009
0.447563
0.468518
0.44836
0.416979
0.388841
0.373326
0.365456
0.364171
0.373797
3
2.99997
2.99994
2.9998
2.9996
2.99879
2.99765
2.99306
2.98627
2.96131
2.91553
2.78697
2.47346
1.83683
0.867136
0.454086
0.471952
0.484338
0.477654
0.456557
0.436933
0.428701
0.429291
0.441743
0.475593
3
2.99998
2.99995
2.99983
2.99967
2.99901
2.99803
2.99448
2.98815
2.96875
2.9234
2.81634
2.51616
1.95356
0.978279
0.525346
0.488857
0.501342
0.505497
0.494473
0.486233
0.487533
0.503524
0.544836
0.643888
3
2.99995
2.9999
2.99966
2.99934
2.99802
2.99614
2.98892
2.97684
2.93774
2.84843
2.64264
2.09674
1.25761
0.523736
0.278568
0.328889
0.343798
0.31153
0.256923
0.204573
0.162762
0.121639
0.0759369
0.042136
3
2.99995
2.9999
2.99967
2.99935
2.99805
2.99619
2.98909
2.97716
2.93869
2.85053
2.64761
2.10649
1.27128
0.530492
0.278063
0.329874
0.345593
0.31357
0.259765
0.208761
0.168484
0.129633
0.0892904
0.0653068
3
2.99996
2.9999
2.99968
2.99937
2.9981
2.99629
2.98936
2.97781
2.94027
2.85498
2.65694
2.13167
1.30372
0.548884
0.281702
0.335658
0.353039
0.321784
0.270029
0.221969
0.185148
0.151231
0.11939
0.103689
3
2.99996
2.9999
2.99969
2.99939
2.99818
2.99645
2.98978
2.97879
2.9427
2.86172
2.67123
2.17055
1.35499
0.577132
0.28815
0.345313
0.365526
0.335694
0.286911
0.24264
0.210089
0.181698
0.156923
0.145709
3
2.99996
2.99991
2.9997
2.99942
2.99826
2.99662
2.99015
2.98
2.94524
2.87176
2.69034
2.22553
1.42801
0.616959
0.301061
0.360546
0.383871
0.355471
0.310164
0.26967
0.241357
0.217855
0.198501
0.190344
3
2.99996
2.99992
2.99972
2.99946
2.99837
2.99683
2.99068
2.98143
2.9483
2.88401
2.7134
2.2927
1.52215
0.668556
0.324273
0.383571
0.408897
0.381777
0.339725
0.303061
0.278686
0.260003
0.245587
0.240278
3
2.99997
2.99992
2.99975
2.9995
2.9985
2.9971
2.99149
2.98304
2.95265
2.89586
2.73814
2.36518
1.63328
0.730733
0.361888
0.417596
0.441635
0.415584
0.376861
0.343443
0.32289
0.308676
0.299668
0.299538
3
2.99997
2.99993
2.99977
2.99955
2.99864
2.99737
2.99227
2.98463
2.95688
2.90602
2.7612
2.42436
1.72783
0.788097
0.398009
0.447563
0.468518
0.44836
0.41698
0.388842
0.373327
0.365457
0.364171
0.373797
3
2.99997
2.99994
2.9998
2.9996
2.99879
2.99765
2.99306
2.98627
2.96131
2.91553
2.78697
2.47346
1.83684
0.867139
0.454087
0.471951
0.484338
0.477654
0.456557
0.436933
0.428702
0.429291
0.441743
0.475593
3
2.99998
2.99995
2.99983
2.99967
2.99901
2.99803
2.99448
2.98815
2.96875
2.9234
2.81634
2.51616
1.95357
0.978282
0.525348
0.488857
0.501342
0.505497
0.494474
0.486234
0.487534
0.503525
0.544837
0.643888
3.00002
2.99997
2.99991
2.99968
2.99936
2.99804
2.99616
2.98894
2.97686
2.93778
2.84847
2.64271
2.09682
1.25775
0.523876
0.278772
0.329075
0.343984
0.311737
0.257176
0.204895
0.163174
0.122197
0.0768403
0.043766
3.00002
2.99997
2.99992
2.99969
2.99937
2.99807
2.99621
2.98911
2.97718
2.93872
2.85057
2.64768
2.10657
1.27142
0.530631
0.278267
0.33006
0.345778
0.313775
0.260014
0.209075
0.168878
0.130151
0.0900504
0.0663549
3.00002
2.99997
2.99992
2.9997
2.99939
2.99812
2.99631
2.98938
2.97784
2.9403
2.85502
2.65701
2.13175
1.30385
0.549018
0.281904
0.335841
0.35322
0.321984
0.270268
0.222263
0.185503
0.15167
0.119952
0.104342
3.00002
2.99997
2.99992
2.99971
2.99941
2.9982
2.99647
2.9898
2.97882
2.94273
2.86175
2.6713
2.17063
1.35513
0.577262
0.288351
0.345494
0.365703
0.335886
0.287136
0.242907
0.210399
0.18206
0.157345
0.146168
3.00002
2.99998
2.99993
2.99972
2.99944
2.99828
2.99664
2.99017
2.98003
2.94528
2.87178
2.6904
2.22556
1.42813
0.61706
0.301236
0.360707
0.384029
0.355645
0.310366
0.269906
0.241623
0.218152
0.19883
0.190689
3.00002
2.99998
2.99993
2.99974
2.99948
2.99839
2.99685
2.99071
2.98145
2.94833
2.88404
2.71346
2.29276
1.52227
0.668656
0.324442
0.383721
0.409042
0.381934
0.339903
0.303266
0.278911
0.260248
0.245848
0.240547
3.00002
2.99998
2.99994
2.99977
2.99952
2.99852
2.99712
2.99151
2.98307
2.95268
2.8959
2.7382
2.36524
1.6334
0.730834
0.36205
0.41774
0.441771
0.415728
0.37702
0.343619
0.32308
0.308877
0.299878
0.299749
3.00002
2.99999
2.99995
2.99979
2.99957
2.99866
2.99739
2.99229
2.98465
2.95691
2.90605
2.76125
2.4244
1.72793
0.788176
0.398151
0.447688
0.46864
0.448489
0.41712
0.388993
0.373486
0.365621
0.364338
0.373961
3.00002
2.99999
2.99996
2.99982
2.99962
2.99881
2.99767
2.99308
2.98629
2.96134
2.91556
2.78702
2.47349
1.83695
0.867229
0.454226
0.472064
0.484449
0.477769
0.45668
0.437064
0.428836
0.429426
0.441876
0.475716
3.00002
3
2.99997
2.99985
2.99968
2.99903
2.99805
2.9945
2.98817
2.96878
2.92343
2.81639
2.5162
1.95365
0.978369
0.525473
0.488964
0.501446
0.505603
0.494584
0.486347
0.487647
0.503635
0.544938
0.643973
3.00002
3.00001
2.99996
2.9999
2.99964
2.99928
2.99784
2.99567
2.98783
2.97377
2.93083
2.82913
2.60248
2.01833
1.15534
0.614164
0.512086
0.524512
0.535326
0.533407
0.5345
0.54788
0.585186
0.667078
0.840343
3.00002
3.00001
2.99997
2.99991
2.99969
2.99938
2.99811
2.99629
2.98937
2.97776
2.94032
2.85498
2.65789
2.13621
1.32079
0.7047
0.534168
0.548688
0.566238
0.573136
0.582812
0.608467
0.662905
0.763806
0.943125
3.00002
3.00001
2.99998
2.99993
2.99974
2.99947
2.99836
2.99681
2.99057
2.98119
2.94794
2.88143
2.7102
2.28156
1.51936
0.812552
0.568855
0.581948
0.600732
0.613742
0.6297
0.663279
0.725682
0.824445
0.977366
3.00002
3.00001
2.99998
2.99995
2.99979
2.99956
2.99865
2.99736
2.99223
2.98457
2.95674
2.90638
2.76143
2.43558
1.7523
0.933927
0.624011
0.629548
0.644204
0.65997
0.678477
0.714255
0.775174
0.862732
0.989793
3.00002
3.00002
2.99999
2.99996
2.99983
2.99965
2.99892
2.99787
2.99377
2.98748
2.96527
2.92329
2.80756
2.5254
1.93732
1.05173
0.687675
0.670198
0.684369
0.701445
0.722239
0.75742
0.816636
0.893256
0.999249
3.00002
3.00002
3.00001
2.99996
2.9999
2.99966
2.99932
2.99798
2.99593
2.98872
2.97545
2.93619
2.84126
2.63301
2.07983
1.26454
0.791184
0.705709
0.718358
0.736313
0.760707
0.794573
0.847828
0.918659
1.00873
3.00002
3.00002
3.00001
2.99997
2.99993
2.99973
2.99945
2.99831
2.99671
2.9904
2.98058
2.94699
2.8765
2.70322
2.26123
1.50593
0.909973
0.740211
0.746637
0.765668
0.795115
0.829395
0.876829
0.939517
1.01808
3.00002
3.00002
3.00001
2.99999
2.99995
2.99979
2.99957
2.9987
2.99744
2.99253
2.98502
2.95839
2.90914
2.76922
2.45554
1.78346
1.06287
0.799126
0.786306
0.799931
0.826808
0.861512
0.905255
0.960905
1.02914
3.00002
3.00002
3.00001
3
2.99996
2.99989
2.99961
2.99922
2.99769
2.99541
2.98707
2.97275
2.92783
2.82554
2.5954
2.03447
1.24164
0.873025
0.827778
0.838485
0.860983
0.892905
0.931137
0.979738
1.03947
3.00003
3.00002
3.00002
3.00001
2.99997
2.99992
2.99972
2.99942
2.99827
2.99657
2.99031
2.97958
2.94583
2.86875
2.691
2.22777
1.47368
0.983647
0.866352
0.870209
0.890545
0.922357
0.958086
1
1.05163
3.00003
3.00003
3.00002
3.00001
3
2.99994
2.99985
2.9995
2.999
2.99714
2.99402
2.98402
2.96272
2.90768
2.7633
2.47253
1.78742
1.15621
0.926321
0.90828
0.920285
0.947023
0.982362
1.02101
1.06536
3.00003
3.00003
3.00002
3.00002
3
2.99996
2.99989
2.99963
2.99926
2.99779
2.99566
2.98762
2.97437
2.93163
2.83668
2.62136
2.08924
1.34416
1.00304
0.948142
0.954951
0.975679
1.00693
1.04291
1.08301
3.00003
3.00003
3.00003
3.00002
3.00001
2.99999
2.99991
2.99981
2.99939
2.99877
2.99655
2.99263
2.9806
2.9535
2.88672
2.708
2.35832
1.59531
1.13245
0.993163
0.987889
1.00052
1.02726
1.0616
1.09953
3.00003
3.00003
3.00003
3.00002
3.00001
3
2.99994
2.99987
2.99955
2.99911
2.99734
2.9948
2.98509
2.9696
2.91931
2.81535
2.55649
2.01486
1.31794
1.06361
1.02964
1.03406
1.05375
1.08353
1.11759
3.00003
3.00003
3.00003
3.00002
3.00002
3
2.99998
2.99989
2.99976
2.99926
2.99853
2.99575
2.99143
2.97663
2.94848
2.87098
2.68138
2.28565
1.54296
1.15896
1.06598
1.06352
1.07734
1.10372
1.13617
3.00003
3.00003
3.00003
3.00003
3.00002
3.00001
3
2.99993
2.99985
2.9995
2.999
2.99707
2.99424
2.98382
2.96631
2.91224
2.79006
2.52235
1.91569
1.33489
1.12551
1.10015
1.10644
1.12697
1.15605
3.00003
3.00003
3.00003
3.00003
3.00002
3.00002
3
2.99998
2.99988
2.99974
2.99919
2.99838
2.99537
2.99067
2.9745
2.94472
2.86126
2.6708
2.23604
1.54612
1.21309
1.13821
1.13601
1.14949
1.17429
3.00003
3.00003
3.00003
3.00003
3.00003
3.00002
3.00001
2.99999
2.99993
2.99984
2.99947
2.99895
2.99693
2.99396
2.98308
2.96482
2.90873
2.7832
2.50614
1.90044
1.37825
1.19433
1.16956
1.17544
1.1943
3.00003
3.00003
3.00003
3.00003
3.00003
3.00002
3.00002
3
2.99998
2.99988
2.99973
2.99918
2.99834
2.99532
2.99046
2.97421
2.94426
2.85754
2.67879
2.21917
1.5986
1.28843
1.21299
1.20678
1.21595
3.00003
3.00003
3.00003
3.00003
3.00003
3.00003
3.00002
3.00001
2.99999
2.99995
2.9998
2.99958
2.99874
2.9975
2.99294
2.98569
2.96163
2.91541
2.7941
2.5144
1.93988
1.43562
1.26442
1.23905
1.24245
3.00003
3.00003
3.00003
3.00003
3.00003
3.00003
3.00002
3.00002
3
2.99998
2.99988
2.99974
2.9992
2.99842
2.99547
2.99101
2.97526
2.94802
2.86677
2.6997
2.28556
1.66985
1.35748
1.2788
1.27005
3.00003
3.00003
3.00003
3.00003
3.00003
3.00003
3.00003
3.00002
3.00002
2.99999
2.99995
2.99982
2.99961
2.99885
2.99771
2.99358
2.98699
2.96531
2.9242
2.81414
2.57096
2.03766
1.52141
1.3305
1.30288
3.00003
3.00003
3.00003
3.00003
3.00003
3.00003
3.00003
3.00002
3.00002
3
2.99998
2.99989
2.99977
2.99928
2.99859
2.99594
2.99205
2.97798
2.95432
2.88459
2.73308
2.38884
1.76092
1.42714
1.33651
3.00003
3.00003
3.00003
3.00003
3.00003
3.00003
3.00003
3.00003
3.00002
3.00001
3
2.99995
2.99987
2.99958
2.99917
2.99759
2.9953
2.98685
2.97348
2.93063
2.84637
2.63609
2.1859
1.62498
1.40049
3.00003
3.00003
3.00003
3.00003
3.00003
3.00003
3.00003
3.00003
3.00003
3.00002
3.00001
2.99998
2.99993
2.99976
2.99951
2.99855
2.99717
2.99198
2.98402
2.95726
2.9054
2.77542
2.45759
1.88834
1.51346
3.00003
3.00003
3.00003
3.00003
3.00003
3.00003
3.00003
3.00003
3.00003
3.00002
3.00002
3.00001
2.99996
2.9999
2.99967
2.99932
2.99805
2.99611
2.98932
2.97789
2.94287
2.86778
2.69583
2.28956
1.72027
3.00003
3.00003
3.00003
3.00003
3.00003
3.00003
3.00003
3.00003
3.00003
3.00003
3.00002
3.00001
3
2.99994
2.99985
2.99954
2.99906
2.99734
2.99467
2.98561
2.96963
2.92324
2.81899
2.59427
2.092
3.00003
3.00003
3.00003
3.00003
3.00003
3.00003
3.00003
3.00003
3.00003
3.00003
3.00003
3.00002
3.00001
2.99998
2.9999
2.99979
2.99935
2.99869
2.99633
2.9926
2.98019
2.95773
2.89461
2.75942
2.4323
3.00003
3.00003
3.00003
3.00003
3.00003
3.00003
3.00003
3.00003
3.00003
3.00003
3.00003
3.00002
3.00002
3
2.99996
2.99989
2.99964
2.99927
2.99789
2.99586
2.98855
2.97686
2.93968
2.8679
2.68484
3.00003
3.00003
3.00003
3.00003
3.00003
3.00003
3.00003
3.00003
3.00003
3.00003
3.00003
3.00003
3.00002
3.00001
3
2.99994
2.99984
2.99952
2.99903
2.99727
2.99455
2.98527
2.96937
2.92271
2.82488
3.00003
3.00003
3.00003
3.00003
3.00003
3.00003
3.00003
3.00003
3.00003
3.00003
3.00003
3.00003
3.00003
3.00002
3.00001
2.99998
2.9999
2.99978
2.99935
2.99869
2.99639
2.99267
2.98062
2.95885
2.89637
3.00003
3.00003
3.00003
3.00003
3.00003
3.00003
3.00003
3.00003
3.00003
3.00003
3.00003
3.00003
3.00003
3.00002
3.00002
3
2.99997
2.99986
2.9997
2.99913
2.99825
2.99519
2.99026
2.97438
2.94548
3.00003
3.00003
3.00003
3.00003
3.00003
3.00003
3.00003
3.00003
3.00003
3.00003
3.00003
3.00003
3.00003
3.00003
3.00002
3.00001
2.99999
2.99993
2.99983
2.99949
2.99898
2.99712
2.99429
2.98463
2.96816
3.00003
3.00003
3.00003
3.00003
3.00003
3.00003
3.00003
3.00003
3.00003
3.00003
3.00003
3.00003
3.00003
3.00003
3.00002
3.00002
3
2.99997
2.99987
2.99972
2.99916
2.99831
2.99525
2.99041
2.97422
3.00003
3.00003
3.00003
3.00003
3.00003
3.00003
3.00003
3.00003
3.00003
3.00003
3.00003
3.00003
3.00003
3.00003
3.00003
3.00002
3.00001
2.99997
2.99992
2.99972
2.99942
2.99831
2.99656
2.99057
2.97934
3.00003
3.00003
3.00003
3.00003
3.00003
3.00003
3.00003
3.00003
3.00003
3.00003
3.00003
3.00003
3.00003
3.00003
3.00003
3.00002
3.00001
2.99999
2.99992
2.99981
2.99942
2.99875
2.99663
2.99209
2.98004
3.00003
3.00003
3.00003
3.00003
3.00003
3.00003
3.00003
3.00003
3.00003
3.00003
3.00003
3.00003
3.00003
3.00003
3.00003
3.00002
3.00001
2.99998
2.99994
2.99975
2.99949
2.99845
2.99685
2.99113
2.98052
3.00003
3.00003
3.00003
3.00003
3.00003
3.00003
3.00003
3.00003
3.00003
3.00003
3.00003
3.00003
3.00003
3.00003
3.00003
3.00002
3.00001
2.99998
2.99994
2.99976
2.9995
2.99848
2.99691
2.99132
2.98068
3.00003
3.00003
3.00003
3.00003
3.00003
3.00003
3.00003
3.00003
3.00003
3.00003
3.00003
3.00003
3.00003
3.00003
3.00003
3.00002
3.00001
2.99999
2.99992
2.99982
2.99942
2.9988
2.99663
2.99246
2.98015
3.00003
3.00003
3.00003
3.00003
3.00003
3.00003
3.00003
3.00003
3.00003
3.00003
3.00003
3.00003
3.00003
3.00003
3.00003
3.00002
3.00001
2.99999
2.99992
2.99981
2.99938
2.99877
2.99634
2.99249
2.97919
3
2.99999
2.99994
2.99988
2.99962
2.99926
2.99782
2.99564
2.9878
2.97375
2.93079
2.8291
2.60242
2.01827
1.15523
0.614051
0.511983
0.524411
0.535227
0.533308
0.534401
0.547783
0.585096
0.667001
0.84029
3
2.99999
2.99995
2.9999
2.99967
2.99936
2.99809
2.99627
2.98934
2.97774
2.94029
2.85495
2.65783
2.13615
1.32068
0.704596
0.534064
0.548588
0.566143
0.573044
0.582723
0.608382
0.662829
0.763741
0.943074
3
2.99999
2.99996
2.99991
2.99972
2.99945
2.99834
2.99679
2.99055
2.98116
2.94791
2.88142
2.71015
2.28153
1.51926
0.812468
0.568754
0.58185
0.600641
0.613656
0.629619
0.663203
0.725614
0.824386
0.977317
3
3
2.99997
2.99993
2.99977
2.99954
2.99863
2.99734
2.99221
2.98455
2.95671
2.90635
2.76139
2.43553
1.75222
0.933852
0.623915
0.62946
0.644122
0.659893
0.678403
0.714186
0.775111
0.862676
0.989744
3
3
2.99997
2.99994
2.99981
2.99963
2.9989
2.99785
2.99375
2.98746
2.96524
2.92327
2.80751