/*--------------------------------*- C++ -*----------------------------------*\
| =========                 |                                                 |
| \\      /  F ield         | OpenFOAM: The Open Source CFD Toolbox           |
|  \\    /   O peration     | Version:  4.1                                   |
|   \\  /    A nd           | Web:      www.OpenFOAM.org                      |
|    \\/     M anipulation  |                                                 |
\*---------------------------------------------------------------------------*/
FoamFile
{
    version     2.0;
    format      ascii;
    class       volScalarField;
    location    "5";
    object      p;
}
// * * * * * * * * * * * * * * * * * * * * * * * * * * * * * * * * * * * * * //

dimensions      [1 -1 -2 0 0 0 0];

internalField   nonuniform List<scalar> 
52500
(
1.00001
1.00003
1.0001
1.00022
1.00065
1.00133
1.00382
1.00751
1.0232
1.04141
1.15097
1.2655
2.02738
3.39958
8.19167
11.5758
11.2216
10.9883
11.0672
11.2928
11.5303
11.6764
11.7862
11.8733
11.9406
1.00001
1.00003
1.0001
1.00022
1.00064
1.00131
1.00376
1.00739
1.02288
1.04077
1.14886
1.26109
2.01345
3.36063
8.09096
11.5829
11.2172
10.9772
11.0575
11.2845
11.5216
11.6678
11.7791
11.8676
11.9364
1.00001
1.00003
1.0001
1.00021
1.00062
1.00128
1.00366
1.0072
1.02222
1.03971
1.14445
1.25337
1.97822
3.2781
7.86095
11.598
11.2062
10.9455
11.0252
11.251
11.4852
11.6288
11.7394
11.827
11.8953
1.00001
1.00003
1.00009
1.00021
1.0006
1.00123
1.00351
1.00692
1.02124
1.0381
1.13778
1.24171
1.92494
3.15287
7.50319
11.6247
11.1922
10.8941
10.9706
11.1913
11.4209
11.5596
11.6664
11.7516
11.8205
1.00001
1.00003
1.00009
1.0002
1.00057
1.00117
1.00334
1.00666
1.01992
1.03689
1.12747
1.22868
1.85227
2.98914
7.01969
11.6542
11.1759
10.8253
10.8959
11.1071
11.3311
11.463
11.5642
11.6458
11.7156
1.00001
1.00002
1.00008
1.00018
1.00054
1.0011
1.00312
1.0063
1.01835
1.03554
1.1148
1.21369
1.76654
2.7963
6.42794
11.6607
11.1532
10.7414
10.8026
10.9974
11.2124
11.3332
11.4237
11.4976
11.5689
1
1.00002
1.00008
1.00017
1.00049
1.00101
1.00286
1.00578
1.0167
1.03282
1.10279
1.19597
1.67766
2.58871
5.75854
11.5867
11.0964
10.6412
10.6905
10.8598
11.0589
11.1631
11.2357
11.2925
11.3576
1
1.00002
1.00007
1.00015
1.00044
1.00091
1.00259
1.00525
1.01514
1.02983
1.09256
1.17786
1.60537
2.41691
5.27382
11.2532
10.9397
10.5305
10.5607
10.6882
10.8627
10.9416
10.9829
11.0044
11.0443
1
1.00002
1.00006
1.00014
1.0004
1.00082
1.00232
1.00469
1.01354
1.02661
1.08335
1.15615
1.54415
2.25374
4.83469
10.6036
10.6351
10.4537
10.4226
10.4874
10.6198
10.6602
10.6503
10.5978
10.5427
1
1.00001
1.00005
1.00011
1.00033
1.00068
1.00194
1.00379
1.01184
1.0207
1.07579
1.1278
1.49002
2.08608
4.38908
9.76487
10.4745
10.355
10.2504
10.2751
10.333
10.3166
10.2287
10.0133
9.66713
1.00001
1.00003
1.00011
1.00023
1.00066
1.00134
1.00382
1.00752
1.02321
1.04143
1.15099
1.26556
2.02746
3.39988
8.1923
11.5757
11.2216
10.9884
11.0673
11.2929
11.5303
11.6765
11.7863
11.8734
11.9407
1.00001
1.00003
1.0001
1.00023
1.00065
1.00132
1.00377
1.0074
1.02289
1.04079
1.14889
1.26115
2.01354
3.36093
8.09159
11.5828
11.2173
10.9773
11.0575
11.2846
11.5217
11.6679
11.7792
11.8677
11.9365
1.00001
1.00003
1.0001
1.00022
1.00063
1.00128
1.00367
1.00722
1.02223
1.03973
1.14448
1.25343
1.9783
3.27839
7.86158
11.5978
11.2062
10.9456
11.0253
11.2511
11.4853
11.6289
11.7395
11.8271
11.8954
1.00001
1.00003
1.0001
1.00021
1.0006
1.00123
1.00352
1.00693
1.02125
1.03812
1.1378
1.24176
1.92502
3.15315
7.50382
11.6246
11.1922
10.8942
10.9707
11.1914
11.421
11.5597
11.6665
11.7517
11.8205
1.00001
1.00003
1.00009
1.0002
1.00058
1.00118
1.00334
1.00667
1.01993
1.03692
1.12747
1.22876
1.8523
2.98939
7.02026
11.6542
11.1759
10.8253
10.896
11.1071
11.3311
11.4631
11.5643
11.6458
11.7156
1.00001
1.00003
1.00009
1.00019
1.00054
1.00111
1.00313
1.00631
1.01836
1.03555
1.11482
1.21375
1.76659
2.79653
6.42847
11.6607
11.1533
10.7415
10.8027
10.9975
11.2125
11.3333
11.4238
11.4977
11.569
1.00001
1.00002
1.00008
1.00017
1.0005
1.00102
1.00287
1.00579
1.01671
1.03283
1.1028
1.19602
1.67772
2.58891
5.75905
11.5868
11.0965
10.6412
10.6905
10.8598
11.059
11.1632
11.2358
11.2926
11.3577
1
1.00002
1.00007
1.00016
1.00045
1.00092
1.0026
1.00525
1.01515
1.02984
1.09258
1.1779
1.6054
2.41705
5.27409
11.2534
10.9399
10.5305
10.5607
10.6882
10.8628
10.9417
10.983
11.0045
11.0444
1
1.00002
1.00007
1.00014
1.0004
1.00082
1.00232
1.0047
1.01355
1.02663
1.08336
1.15619
1.54418
2.25388
4.83491
10.604
10.6352
10.4538
10.4227
10.4874
10.6198
10.6603
10.6504
10.5979
10.5428
1
1.00002
1.00005
1.00012
1.00034
1.00068
1.00195
1.0038
1.01185
1.02071
1.07581
1.12784
1.49004
2.08623
4.38925
9.76531
10.4745
10.3551
10.2505
10.2752
10.3331
10.3167
10.2288
10.0134
9.66721
1.00001
1.00003
1.00011
1.00023
1.00066
1.00134
1.00382
1.00752
1.02321
1.04143
1.15099
1.26556
2.02747
3.3999
8.19233
11.5757
11.2216
10.9884
11.0673
11.2929
11.5304
11.6765
11.7863
11.8734
11.9407
1.00001
1.00003
1.0001
1.00023
1.00065
1.00132
1.00377
1.0074
1.02289
1.04079
1.14889
1.26115
2.01354
3.36094
8.09162
11.5827
11.2173
10.9773
11.0575
11.2846
11.5217
11.6679
11.7792
11.8677
11.9365
1.00001
1.00003
1.0001
1.00022
1.00063
1.00128
1.00367
1.00722
1.02223
1.03973
1.14448
1.25343
1.97831
3.27841
7.86161
11.5978
11.2062
10.9456
11.0253
11.2511
11.4853
11.6289
11.7395
11.8271
11.8954
1.00001
1.00003
1.0001
1.00021
1.0006
1.00123
1.00352
1.00693
1.02125
1.03812
1.1378
1.24176
1.92503
3.15316
7.50385
11.6246
11.1922
10.8942
10.9707
11.1914
11.421
11.5597
11.6665
11.7517
11.8206
1.00001
1.00003
1.00009
1.0002
1.00058
1.00118
1.00334
1.00667
1.01993
1.03692
1.12747
1.22876
1.8523
2.98941
7.0203
11.6542
11.1759
10.8254
10.896
11.1072
11.3311
11.4631
11.5643
11.6458
11.7156
1.00001
1.00003
1.00009
1.00019
1.00054
1.00111
1.00313
1.00631
1.01836
1.03555
1.11482
1.21375
1.7666
2.79654
6.42851
11.6607
11.1533
10.7415
10.8027
10.9975
11.2125
11.3333
11.4238
11.4977
11.569
1.00001
1.00002
1.00008
1.00017
1.0005
1.00102
1.00287
1.00579
1.01671
1.03283
1.1028
1.19602
1.67772
2.58892
5.75909
11.5867
11.0965
10.6412
10.6905
10.8598
11.059
11.1632
11.2358
11.2926
11.3577
1
1.00002
1.00007
1.00016
1.00045
1.00092
1.0026
1.00525
1.01515
1.02985
1.09258
1.1779
1.6054
2.41706
5.27411
11.2534
10.9399
10.5306
10.5607
10.6882
10.8628
10.9417
10.983
11.0045
11.0444
1
1.00002
1.00007
1.00014
1.0004
1.00082
1.00232
1.0047
1.01355
1.02663
1.08336
1.1562
1.54418
2.25388
4.83493
10.604
10.6352
10.4538
10.4227
10.4875
10.6199
10.6603
10.6504
10.5979
10.5428
1
1.00002
1.00005
1.00012
1.00034
1.00068
1.00195
1.0038
1.01185
1.02071
1.07581
1.12784
1.49005
2.08623
4.38927
9.76533
10.4745
10.3551
10.2505
10.2752
10.3331
10.3167
10.2288
10.0134
9.66721
1.00001
1.00003
1.00011
1.00023
1.00066
1.00134
1.00382
1.00752
1.02321
1.04143
1.15099
1.26556
2.02747
3.3999
8.19233
11.5757
11.2216
10.9884
11.0673
11.2929
11.5304
11.6765
11.7863
11.8734
11.9407
1.00001
1.00003
1.0001
1.00023
1.00065
1.00132
1.00377
1.0074
1.02289
1.04079
1.14889
1.26115
2.01354
3.36094
8.09162
11.5827
11.2173
10.9773
11.0575
11.2846
11.5217
11.6679
11.7792
11.8677
11.9365
1.00001
1.00003
1.0001
1.00022
1.00063
1.00128
1.00367
1.00722
1.02223
1.03973
1.14448
1.25343
1.97831
3.27841
7.86161
11.5978
11.2062
10.9456
11.0253
11.2511
11.4853
11.6289
11.7395
11.8271
11.8954
1.00001
1.00003
1.0001
1.00021
1.0006
1.00123
1.00352
1.00693
1.02125
1.03812
1.1378
1.24176
1.92503
3.15316
7.50385
11.6246
11.1922
10.8942
10.9707
11.1914
11.421
11.5597
11.6665
11.7517
11.8206
1.00001
1.00003
1.00009
1.0002
1.00058
1.00118
1.00334
1.00667
1.01993
1.03692
1.12747
1.22876
1.8523
2.98941
7.0203
11.6542
11.1759
10.8254
10.896
11.1072
11.3311
11.4631
11.5643
11.6458
11.7156
1.00001
1.00003
1.00009
1.00019
1.00054
1.00111
1.00313
1.00631
1.01836
1.03555
1.11482
1.21375
1.7666
2.79654
6.42851
11.6607
11.1533
10.7415
10.8027
10.9975
11.2125
11.3333
11.4238
11.4977
11.569
1.00001
1.00002
1.00008
1.00017
1.0005
1.00102
1.00287
1.00579
1.01671
1.03283
1.1028
1.19602
1.67772
2.58892
5.75909
11.5867
11.0965
10.6412
10.6905
10.8598
11.059
11.1632
11.2358
11.2926
11.3577
1
1.00002
1.00007
1.00016
1.00045
1.00092
1.0026
1.00525
1.01515
1.02985
1.09258
1.1779
1.6054
2.41706
5.27411
11.2534
10.9399
10.5306
10.5607
10.6882
10.8628
10.9417
10.983
11.0045
11.0444
1
1.00002
1.00007
1.00014
1.0004
1.00082
1.00232
1.0047
1.01355
1.02663
1.08336
1.1562
1.54418
2.25388
4.83493
10.604
10.6352
10.4538
10.4227
10.4875
10.6198
10.6603
10.6504
10.5979
10.5428
1
1.00002
1.00005
1.00012
1.00034
1.00068
1.00195
1.0038
1.01185
1.02071
1.07581
1.12784
1.49005
2.08623
4.38927
9.76533
10.4745
10.3551
10.2505
10.2752
10.3331
10.3167
10.2288
10.0134
9.66721
1.00001
1.00003
1.00011
1.00023
1.00066
1.00134
1.00382
1.00752
1.02321
1.04143
1.15099
1.26556
2.02747
3.3999
8.19234
11.5757
11.2216
10.9884
11.0673
11.2929
11.5304
11.6765
11.7863
11.8734
11.9407
1.00001
1.00003
1.0001
1.00023
1.00065
1.00132
1.00377
1.0074
1.02289
1.04079
1.14889
1.26115
2.01354
3.36094
8.09163
11.5827
11.2173
10.9773
11.0575
11.2846
11.5217
11.6679
11.7792
11.8677
11.9365
1.00001
1.00003
1.0001
1.00022
1.00063
1.00128
1.00367
1.00722
1.02223
1.03973
1.14448
1.25343
1.97831
3.27841
7.86162
11.5978
11.2062
10.9456
11.0253
11.2511
11.4853
11.6289
11.7395
11.8271
11.8954
1.00001
1.00003
1.0001
1.00021
1.0006
1.00123
1.00352
1.00693
1.02125
1.03812
1.1378
1.24176
1.92503
3.15316
7.50387
11.6246
11.1922
10.8942
10.9707
11.1914
11.421
11.5597
11.6665
11.7517
11.8206
1.00001
1.00003
1.00009
1.0002
1.00058
1.00118
1.00334
1.00667
1.01993
1.03692
1.12747
1.22876
1.8523
2.98941
7.02031
11.6542
11.1759
10.8254
10.896
11.1072
11.3311
11.4631
11.5643
11.6458
11.7156
1.00001
1.00003
1.00009
1.00019
1.00054
1.00111
1.00313
1.00631
1.01836
1.03555
1.11482
1.21375
1.7666
2.79654
6.42852
11.6607
11.1533
10.7415
10.8027
10.9975
11.2125
11.3333
11.4238
11.4977
11.569
1.00001
1.00002
1.00008
1.00017
1.0005
1.00102
1.00287
1.00579
1.01671
1.03283
1.1028
1.19602
1.67772
2.58893
5.7591
11.5867
11.0965
10.6412
10.6905
10.8598
11.059
11.1632
11.2358
11.2926
11.3577
1
1.00002
1.00007
1.00016
1.00045
1.00092
1.0026
1.00525
1.01515
1.02985
1.09258
1.17791
1.60541
2.41706
5.27411
11.2534
10.9399
10.5306
10.5607
10.6882
10.8628
10.9417
10.983
11.0045
11.0444
1
1.00002
1.00007
1.00014
1.0004
1.00082
1.00232
1.0047
1.01355
1.02663
1.08336
1.1562
1.54418
2.25388
4.83493
10.604
10.6352
10.4538
10.4227
10.4875
10.6199
10.6603
10.6504
10.5979
10.5428
1
1.00002
1.00005
1.00012
1.00034
1.00068
1.00195
1.0038
1.01185
1.02071
1.07581
1.12784
1.49005
2.08623
4.38927
9.76534
10.4746
10.3551
10.2505
10.2752
10.3331
10.3167
10.2288
10.0134
9.66721
1.00001
1.00003
1.00011
1.00023
1.00066
1.00134
1.00382
1.00752
1.02321
1.04143
1.15099
1.26556
2.02747
3.3999
8.19234
11.5757
11.2216
10.9884
11.0673
11.2929
11.5304
11.6765
11.7863
11.8734
11.9407
1.00001
1.00003
1.0001
1.00023
1.00065
1.00132
1.00377
1.0074
1.02289
1.04079
1.14889
1.26115
2.01354
3.36094
8.09163
11.5827
11.2173
10.9773
11.0575
11.2846
11.5217
11.6679
11.7792
11.8677
11.9365
1.00001
1.00003
1.0001
1.00022
1.00063
1.00128
1.00367
1.00722
1.02223
1.03973
1.14448
1.25343
1.97831
3.27841
7.86162
11.5978
11.2062
10.9456
11.0253
11.2511
11.4853
11.6289
11.7395
11.8271
11.8954
1.00001
1.00003
1.0001
1.00021
1.0006
1.00123
1.00352
1.00693
1.02125
1.03812
1.1378
1.24176
1.92503
3.15316
7.50387
11.6246
11.1922
10.8942
10.9707
11.1914
11.421
11.5597
11.6665
11.7517
11.8206
1.00001
1.00003
1.00009
1.0002
1.00058
1.00118
1.00334
1.00667
1.01993
1.03692
1.12747
1.22876
1.85231
2.98941
7.02031
11.6542
11.1759
10.8254
10.896
11.1072
11.3311
11.4631
11.5643
11.6458
11.7156
1.00001
1.00003
1.00009
1.00019
1.00054
1.00111
1.00313
1.00631
1.01836
1.03555
1.11482
1.21375
1.7666
2.79654
6.42852
11.6607
11.1533
10.7415
10.8027
10.9975
11.2125
11.3333
11.4238
11.4977
11.569
1.00001
1.00002
1.00008
1.00017
1.0005
1.00102
1.00287
1.00579
1.01671
1.03283
1.1028
1.19602
1.67772
2.58893
5.7591
11.5867
11.0965
10.6412
10.6906
10.8598
11.059
11.1632
11.2358
11.2926
11.3577
1
1.00002
1.00007
1.00016
1.00045
1.00092
1.0026
1.00525
1.01515
1.02985
1.09258
1.17791
1.60541
2.41706
5.27411
11.2534
10.9399
10.5306
10.5607
10.6882
10.8628
10.9417
10.983
11.0045
11.0444
1
1.00002
1.00007
1.00014
1.0004
1.00082
1.00232
1.0047
1.01355
1.02663
1.08336
1.1562
1.54418
2.25388
4.83493
10.604
10.6352
10.4538
10.4227
10.4875
10.6199
10.6603
10.6504
10.5979
10.5428
1
1.00002
1.00005
1.00012
1.00034
1.00068
1.00195
1.0038
1.01185
1.02071
1.07581
1.12784
1.49005
2.08623
4.38927
9.76534
10.4746
10.3551
10.2505
10.2752
10.3331
10.3167
10.2288
10.0134
9.66721
1.00001
1.00003
1.00011
1.00023
1.00066
1.00134
1.00382
1.00752
1.02321
1.04143
1.15099
1.26556
2.02747
3.3999
8.19233
11.5757
11.2216
10.9884
11.0673
11.2929
11.5304
11.6765
11.7863
11.8734
11.9407
1.00001
1.00003
1.0001
1.00023
1.00065
1.00132
1.00377
1.0074
1.02289
1.04079
1.14889
1.26115
2.01354
3.36094
8.09162
11.5827
11.2173
10.9773
11.0575
11.2846
11.5217
11.6679
11.7792
11.8677
11.9365
1.00001
1.00003
1.0001
1.00022
1.00063
1.00128
1.00367
1.00722
1.02223
1.03973
1.14448
1.25343
1.97831
3.27841
7.86161
11.5978
11.2062
10.9456
11.0253
11.2511
11.4853
11.6289
11.7395
11.8271
11.8954
1.00001
1.00003
1.0001
1.00021
1.0006
1.00123
1.00352
1.00693
1.02125
1.03812
1.1378
1.24176
1.92503
3.15316
7.50386
11.6246
11.1922
10.8942
10.9707
11.1914
11.421
11.5597
11.6665
11.7517
11.8206
1.00001
1.00003
1.00009
1.0002
1.00058
1.00118
1.00334
1.00667
1.01993
1.03692
1.12747
1.22876
1.8523
2.98941
7.0203
11.6542
11.1759
10.8254
10.896
11.1072
11.3311
11.4631
11.5643
11.6458
11.7156
1.00001
1.00003
1.00009
1.00019
1.00054
1.00111
1.00313
1.00631
1.01836
1.03555
1.11482
1.21375
1.7666
2.79654
6.42851
11.6607
11.1533
10.7415
10.8027
10.9975
11.2125
11.3333
11.4238
11.4977
11.569
1.00001
1.00002
1.00008
1.00017
1.0005
1.00102
1.00287
1.00579
1.01671
1.03283
1.1028
1.19602
1.67772
2.58892
5.75909
11.5867
11.0965
10.6412
10.6905
10.8598
11.059
11.1632
11.2358
11.2926
11.3577
1
1.00002
1.00007
1.00016
1.00045
1.00092
1.0026
1.00525
1.01515
1.02985
1.09258
1.1779
1.6054
2.41706
5.27411
11.2534
10.9399
10.5306
10.5607
10.6882
10.8628
10.9417
10.983
11.0045
11.0444
1
1.00002
1.00007
1.00014
1.0004
1.00082
1.00232
1.0047
1.01355
1.02663
1.08336
1.1562
1.54418
2.25388
4.83493
10.604
10.6352
10.4538
10.4227
10.4875
10.6199
10.6603
10.6504
10.5979
10.5428
1
1.00002
1.00005
1.00012
1.00034
1.00068
1.00195
1.0038
1.01185
1.02071
1.07581
1.12784
1.49005
2.08623
4.38927
9.76534
10.4745
10.3551
10.2505
10.2752
10.3331
10.3167
10.2288
10.0134
9.66721
1.00001
1.00003
1.00011
1.00023
1.00066
1.00134
1.00382
1.00752
1.02321
1.04143
1.15099
1.26556
2.02747
3.3999
8.19233
11.5757
11.2216
10.9884
11.0673
11.2929
11.5304
11.6765
11.7863
11.8734
11.9407
1.00001
1.00003
1.0001
1.00023
1.00065
1.00132
1.00377
1.0074
1.02289
1.04079
1.14889
1.26115
2.01354
3.36094
8.09162
11.5827
11.2173
10.9773
11.0575
11.2846
11.5217
11.6679
11.7792
11.8677
11.9365
1.00001
1.00003
1.0001
1.00022
1.00063
1.00128
1.00367
1.00722
1.02223
1.03973
1.14448
1.25343
1.97831
3.27841
7.86161
11.5978
11.2062
10.9456
11.0253
11.2511
11.4853
11.6289
11.7395
11.8271
11.8954
1.00001
1.00003
1.0001
1.00021
1.0006
1.00123
1.00352
1.00693
1.02125
1.03812
1.1378
1.24176
1.92503
3.15316
7.50385
11.6246
11.1922
10.8942
10.9707
11.1914
11.421
11.5597
11.6665
11.7517
11.8206
1.00001
1.00003
1.00009
1.0002
1.00058
1.00118
1.00334
1.00667
1.01993
1.03692
1.12747
1.22876
1.8523
2.98941
7.0203
11.6542
11.1759
10.8254
10.896
11.1072
11.3311
11.4631
11.5643
11.6458
11.7156
1.00001
1.00003
1.00009
1.00019
1.00054
1.00111
1.00313
1.00631
1.01836
1.03555
1.11482
1.21375
1.7666
2.79654
6.42851
11.6607
11.1533
10.7415
10.8027
10.9975
11.2125
11.3333
11.4238
11.4977
11.569
1.00001
1.00002
1.00008
1.00017
1.0005
1.00102
1.00287
1.00579
1.01671
1.03283
1.1028
1.19602
1.67772
2.58892
5.75909
11.5867
11.0965
10.6412
10.6905
10.8598
11.059
11.1632
11.2358
11.2926
11.3577
1
1.00002
1.00007
1.00016
1.00045
1.00092
1.0026
1.00525
1.01515
1.02985
1.09258
1.1779
1.6054
2.41706
5.27411
11.2534
10.9399
10.5306
10.5607
10.6882
10.8628
10.9417
10.983
11.0045
11.0444
1
1.00002
1.00007
1.00014
1.0004
1.00082
1.00232
1.0047
1.01355
1.02663
1.08336
1.1562
1.54418
2.25388
4.83493
10.604
10.6352
10.4538
10.4227
10.4875
10.6199
10.6603
10.6504
10.5979
10.5428
1
1.00002
1.00005
1.00012
1.00034
1.00068
1.00195
1.0038
1.01185
1.02071
1.07581
1.12784
1.49005
2.08623
4.38927
9.76533
10.4745
10.3551
10.2505
10.2752
10.3331
10.3167
10.2288
10.0134
9.66721
1.00001
1.00003
1.00011
1.00023
1.00066
1.00134
1.00382
1.00752
1.02321
1.04143
1.15099
1.26556
2.02746
3.39988
8.1923
11.5757
11.2216
10.9884
11.0673
11.2929
11.5303
11.6765
11.7863
11.8734
11.9407
1.00001
1.00003
1.0001
1.00023
1.00065
1.00132
1.00377
1.0074
1.02289
1.04079
1.14889
1.26115
2.01354
3.36093
8.09159
11.5828
11.2173
10.9773
11.0575
11.2846
11.5217
11.6679
11.7792
11.8677
11.9365
1.00001
1.00003
1.0001
1.00022
1.00063
1.00128
1.00367
1.00722
1.02223
1.03973
1.14448
1.25343
1.9783
3.27839
7.86158
11.5978
11.2062
10.9456
11.0253
11.2511
11.4853
11.6289
11.7395
11.8271
11.8954
1.00001
1.00003
1.0001
1.00021
1.0006
1.00123
1.00352
1.00693
1.02125
1.03812
1.1378
1.24176
1.92502
3.15315
7.50382
11.6246
11.1922
10.8942
10.9707
11.1914
11.421
11.5597
11.6665
11.7517
11.8205
1.00001
1.00003
1.00009
1.0002
1.00058
1.00118
1.00334
1.00667
1.01993
1.03692
1.12747
1.22876
1.8523
2.98939
7.02026
11.6542
11.1759
10.8253
10.896
11.1071
11.3311
11.4631
11.5643
11.6458
11.7156
1.00001
1.00003
1.00009
1.00019
1.00054
1.00111
1.00313
1.00631
1.01836
1.03555
1.11482
1.21375
1.76659
2.79653
6.42847
11.6607
11.1533
10.7415
10.8027
10.9975
11.2125
11.3333
11.4238
11.4977
11.569
1.00001
1.00002
1.00008
1.00017
1.0005
1.00102
1.00287
1.00579
1.01671
1.03283
1.1028
1.19602
1.67772
2.58891
5.75905
11.5868
11.0965
10.6412
10.6905
10.8598
11.059
11.1632
11.2358
11.2926
11.3577
1
1.00002
1.00007
1.00016
1.00045
1.00092
1.0026
1.00525
1.01515
1.02984
1.09258
1.1779
1.6054
2.41705
5.27409
11.2534
10.9399
10.5305
10.5607
10.6882
10.8628
10.9417
10.983
11.0045
11.0444
1
1.00002
1.00007
1.00014
1.0004
1.00082
1.00232
1.0047
1.01355
1.02663
1.08336
1.15619
1.54418
2.25388
4.83491
10.604
10.6352
10.4538
10.4227
10.4874
10.6198
10.6603
10.6504
10.5979
10.5428
1
1.00002
1.00005
1.00012
1.00034
1.00068
1.00195
1.0038
1.01185
1.02071
1.07581
1.12784
1.49004
2.08623
4.38925
9.76531
10.4745
10.3551
10.2505
10.2752
10.3331
10.3167
10.2288
10.0134
9.66721
1.00001
1.00003
1.0001
1.00022
1.00065
1.00133
1.00382
1.00751
1.0232
1.04141
1.15097
1.2655
2.02738
3.39958
8.19167
11.5758
11.2216
10.9883
11.0672
11.2928
11.5303
11.6764
11.7862
11.8733
11.9406
1.00001
1.00003
1.0001
1.00022
1.00064
1.00131
1.00376
1.00739
1.02288
1.04077
1.14886
1.26109
2.01345
3.36063
8.09095
11.5829
11.2172
10.9772
11.0575
11.2845
11.5216
11.6678
11.7791
11.8676
11.9364
1.00001
1.00003
1.0001
1.00021
1.00062
1.00128
1.00366
1.0072
1.02222
1.03971
1.14445
1.25337
1.97822
3.2781
7.86095
11.598
11.2062
10.9455
11.0252
11.251
11.4852
11.6288
11.7394
11.827
11.8953
1.00001
1.00003
1.00009
1.00021
1.0006
1.00123
1.00351
1.00692
1.02124
1.0381
1.13778
1.24171
1.92494
3.15287
7.50318
11.6247
11.1922
10.8941
10.9706
11.1913
11.4209
11.5596
11.6664
11.7516
11.8205
1.00001
1.00003
1.00009
1.0002
1.00057
1.00117
1.00334
1.00666
1.01992
1.03689
1.12747
1.22868
1.85227
2.98914
7.01969
11.6542
11.1759
10.8253
10.8959
11.1071
11.3311
11.463
11.5642
11.6458
11.7156
1.00001
1.00002
1.00008
1.00018
1.00054
1.0011
1.00312
1.0063
1.01835
1.03554
1.1148
1.21369
1.76654
2.7963
6.42793
11.6607
11.1532
10.7414
10.8026
10.9974
11.2124
11.3332
11.4237
11.4976
11.5689
1
1.00002
1.00008
1.00017
1.00049
1.00101
1.00286
1.00578
1.0167
1.03282
1.10279
1.19597
1.67766
2.58871
5.75853
11.5867
11.0964
10.6412
10.6905
10.8598
11.0589
11.1631
11.2357
11.2925
11.3576
1
1.00002
1.00007
1.00015
1.00044
1.00091
1.00259
1.00525
1.01514
1.02983
1.09256
1.17786
1.60537
2.41691
5.27382
11.2532
10.9397
10.5305
10.5606
10.6882
10.8627
10.9416
10.9829
11.0044
11.0443
1
1.00002
1.00006
1.00014
1.0004
1.00082
1.00232
1.00469
1.01354
1.02661
1.08335
1.15615
1.54415
2.25374
4.83468
10.6036
10.6351
10.4537
10.4226
10.4874
10.6198
10.6602
10.6503
10.5978
10.5427
1
1.00001
1.00005
1.00011
1.00033
1.00068
1.00194
1.00379
1.01184
1.0207
1.07579
1.1278
1.49002
2.08608
4.38908
9.76487
10.4745
10.355
10.2504
10.2751
10.333
10.3166
10.2287
10.0133
9.66712
1
1.00002
1.00004
1.00012
1.00025
1.00073
1.00148
1.00428
1.00837
1.02615
1.04647
1.16898
1.30443
2.14368
3.72706
8.77396
10.3758
10.2677
10.0728
10.0441
10.0227
9.93349
9.68338
9.09636
7.61015
1
1.00001
1.00003
1.0001
1.00022
1.00063
1.00129
1.00368
1.00724
1.02229
1.03981
1.1443
1.25372
1.97137
3.24919
7.59859
10.2909
10.1735
9.90958
9.80095
9.71704
9.53219
9.13487
8.33606
6.80816
1
1.00001
1.00003
1.00009
1.00019
1.00055
1.00112
1.00317
1.00639
1.01866
1.03562
1.11751
1.21566
1.77957
2.80816
6.3356
10.2158
10.0847
9.76236
9.55969
9.4153
9.15221
8.66513
7.84849
6.63385
1
1.00001
1.00002
1.00007
1.00016
1.00045
1.00093
1.00262
1.0053
1.01522
1.03007
1.09209
1.17978
1.59375
2.38169
4.98605
9.99375
9.92726
9.63967
9.33494
9.12581
8.82142
8.32038
7.56969
6.59754
1
1.00001
1.00002
1.00006
1.00013
1.00036
1.00075
1.00212
1.00428
1.01232
1.02417
1.07548
1.1409
1.4852
2.10342
4.30074
9.24051
9.63177
9.46372
9.12458
8.8664
8.5415
8.06715
7.39915
6.58095
1
1
1.00002
1.00004
1.00012
1.00024
1.00069
1.0014
1.00402
1.0078
1.02451
1.04298
1.15703
1.27786
2.05656
3.44407
7.84082
9.34355
9.24133
8.97112
8.65158
8.30851
7.86392
7.26978
6.5614
1
1
1.00001
1.00003
1.00009
1.0002
1.00056
1.00115
1.00327
1.00653
1.01937
1.03602
1.12262
1.22071
1.80453
2.84672
6.29867
9.15659
9.09458
8.86134
8.48295
8.12036
7.69604
7.16087
6.5361
0.999998
1
1.00001
1.00002
1.00007
1.00015
1.00044
1.0009
1.00254
1.00513
1.01474
1.02909
1.08913
1.17401
1.57037
2.31678
4.71925
8.82744
8.95381
8.775
8.37955
7.97065
7.55598
7.07051
6.51533
0.999997
0.999998
1
1.00002
1.00004
1.00013
1.00028
1.00079
1.0016
1.00454
1.00895
1.0272
1.04915
1.17285
1.31673
2.12426
3.64741
7.96585
8.74694
8.61582
8.28506
7.84751
7.43814
6.99297
6.49432
0.999995
0.999996
0.999999
1.00001
1.00003
1.0001
1.0002
1.00059
1.00119
1.0034
1.00667
1.02043
1.03649
1.13028
1.22878
1.85062
2.92152
6.37973
8.46856
8.41691
8.20012
7.76011
7.34878
6.93142
6.4772
0.999994
0.999994
0.999998
1
1.00002
1.00006
1.00017
1.00035
1.00101
1.002
1.00597
1.01081
1.03721
1.06216
1.23103
1.45302
2.45169
4.60241
8.06222
8.27004
8.11836
7.74645
7.29521
6.88332
6.4618
0.999993
0.999993
0.999996
1
1.00001
1.00004
1.00012
1.00026
1.00075
1.00152
1.00431
1.00853
1.02561
1.04673
1.16188
1.29442
2.03619
3.38025
7.14061
8.08402
7.98811
7.71579
7.27347
6.85348
6.45215
0.999992
0.999993
0.999994
0.999998
1.00001
1.00003
1.00007
1.00021
1.00043
1.00124
1.00241
1.00739
1.01297
1.04647
1.07618
1.28848
1.56909
2.82212
5.49368
7.79076
7.79136
7.64566
7.28824
6.85234
6.45223
0.999992
0.999992
0.999993
0.999996
1
1.00002
1.00005
1.00015
1.00032
1.0009
1.00183
1.00515
1.01033
1.02997
1.05795
1.18131
1.36982
2.13958
3.66528
7.21496
7.68571
7.57862
7.29459
6.86316
6.45722
0.999991
0.999992
0.999992
0.999994
0.999999
1.00001
1.00004
1.00009
1.00025
1.00052
1.00147
1.00297
1.00845
1.01641
1.05107
1.09213
1.31677
1.66048
2.97571
5.82551
7.45172
7.43352
7.27482
6.90597
6.47471
0.999991
0.999991
0.999992
0.999993
0.999996
1
1.00002
1.00006
1.00017
1.00036
1.001
1.00204
1.00571
1.01128
1.03368
1.06147
1.20735
1.40305
2.26903
4.00648
6.95855
7.32188
7.22073
6.94835
6.5145
0.999991
0.999991
0.999991
0.999992
0.999994
1
1.00001
1.00004
1.00009
1.00028
1.00057
1.00161
1.00325
1.00917
1.01815
1.05396
1.10424
1.32627
1.72833
3.00631
5.82098
7.09854
7.08232
6.93479
6.59656
0.999991
0.999991
0.999991
0.999992
0.999993
0.999997
1
1.00002
1.00006
1.00018
1.00038
1.00106
1.00215
1.00599
1.01185
1.03513
1.06452
1.21422
1.42139
2.29612
4.05087
6.61799
6.96123
6.87845
6.64382
0.999991
0.999991
0.999991
0.999991
0.999992
0.999994
1
1.00001
1.00004
1.0001
1.00028
1.00059
1.00164
1.00332
1.00934
1.0186
1.05396
1.10937
1.3216
1.72445
2.94235
5.54362
6.7383
6.73578
6.62502
0.999991
0.99999
0.999991
0.999991
0.999991
0.999993
0.999996
1
1.00002
1.00007
1.00015
1.00044
1.0009
1.00248
1.005
1.01407
1.02767
1.0828
1.15951
1.49861
2.10423
3.83356
6.25094
6.62495
6.56701
0.999991
0.99999
0.99999
0.999991
0.999991
0.999992
0.999994
1
1.00001
1.00004
1.00009
1.00028
1.00057
1.00157
1.00319
1.00887
1.01769
1.0507
1.1021
1.29888
1.66335
2.77976
5.15287
6.39096
6.44166
0.999991
0.99999
0.99999
0.99999
0.999991
0.999991
0.999993
0.999995
1
1.00002
1.00006
1.00014
1.0004
1.00082
1.00227
1.00458
1.01278
1.02522
1.07388
1.1454
1.43587
1.96491
3.42285
5.86723
6.33222
0.999991
0.99999
0.99999
0.99999
0.999991
0.999991
0.999992
0.999993
0.999999
1.00001
1.00004
1.00009
1.00025
1.00051
1.00141
1.00287
1.00787
1.01572
1.04465
1.08843
1.26228
1.56559
2.55472
4.66603
6.05945
0.999991
0.99999
0.99999
0.99999
0.99999
0.999991
0.999991
0.999992
0.999995
1
1.00002
1.00005
1.00014
1.0003
1.00084
1.00171
1.00466
1.00939
1.02602
1.05203
1.1496
1.31078
1.87453
2.98116
5.44076
0.999991
0.99999
0.99999
0.99999
0.99999
0.99999
0.999991
0.999991
0.999993
0.999997
1.00001
1.00002
1.00008
1.00018
1.0005
1.00103
1.00282
1.00567
1.01583
1.03069
1.09356
1.17305
1.56068
2.19788
4.0547
0.999991
0.99999
0.99999
0.99999
0.99999
0.99999
0.99999
0.999991
0.999992
0.999994
0.999999
1.00001
1.00004
1.00012
1.00025
1.00069
1.00141
1.00385
1.00767
1.02194
1.04105
1.12989
1.24259
1.75091
2.62676
0.999991
0.99999
0.99999
0.99999
0.99999
0.99999
0.99999
0.999991
0.999991
0.999992
0.999996
1
1.00002
1.00006
1.00016
1.00034
1.00095
1.00192
1.00527
1.0104
1.03023
1.05549
1.17808
1.33945
1.99379
0.999991
0.99999
0.99999
0.99999
0.99999
0.99999
0.99999
0.99999
0.999991
0.999992
0.999993
0.999998
1.00001
1.00003
1.00008
1.00023
1.00048
1.00131
1.00265
1.00728
1.01448
1.0411
1.08161
1.23518
1.51439
0.999991
0.99999
0.99999
0.99999
0.99999
0.99999
0.99999
0.99999
0.999991
0.999991
0.999992
0.999995
1
1.00002
1.00004
1.00013
1.00027
1.00074
1.00151
1.0041
1.00825
1.02276
1.04512
1.12922
1.26213
0.999991
0.99999
0.99999
0.99999
0.99999
0.99999
0.99999
0.99999
0.99999
0.999991
0.999991
0.999992
0.999996
1
1.00002
1.00006
1.00017
1.00036
1.00098
1.00198
1.00538
1.01076
1.03006
1.05846
1.17112
0.999991
0.99999
0.99999
0.99999
0.99999
0.99999
0.99999
0.99999
0.99999
0.99999
0.999991
0.999992
0.999993
0.999998
1.00001
1.00003
1.00008
1.00023
1.00048
1.0013
1.00264
1.00719
1.01444
1.03979
1.08191
0.999991
0.99999
0.99999
0.99999
0.99999
0.99999
0.99999
0.99999
0.99999
0.99999
0.999991
0.999991
0.999992
0.999994
1
1.00001
1.00005
1.00011
1.00031
1.00064
1.00174
1.00351
1.00955
1.01918
1.05278
0.999991
0.99999
0.99999
0.99999
0.99999
0.99999
0.99999
0.99999
0.99999
0.99999
0.99999
0.999991
0.999991
0.999993
0.999997
1
1.00003
1.00006
1.00018
1.00038
1.00103
1.00209
1.00564
1.01131
1.03107
0.999991
0.99999
0.99999
0.99999
0.99999
0.99999
0.99999
0.99999
0.99999
0.99999
0.99999
0.999991
0.999991
0.999992
0.999994
1
1.00001
1.00005
1.0001
1.0003
1.00061
1.00168
1.0034
1.0095
1.01858
0.999991
0.99999
0.99999
0.99999
0.99999
0.99999
0.99999
0.99999
0.99999
0.99999
0.99999
0.99999
0.999991
0.999991
0.999994
0.999997
1.00001
1.00003
1.0001
1.0002
1.00059
1.00119
1.00341
1.00662
1.02071
0.999991
0.99999
0.99999
0.99999
0.99999
0.99999
0.99999
0.99999
0.99999
0.99999
0.99999
0.99999
0.999991
0.999991
0.999993
0.999997
1
1.00003
1.00007
1.00021
1.00042
1.00126
1.00229
1.00796
1.01313
0.999991
0.99999
0.99999
0.99999
0.99999
0.99999
0.99999
0.99999
0.99999
0.99999
0.99999
0.99999
0.999991
0.999991
0.999993
0.999996
1.00001
1.00002
1.00008
1.00018
1.00053
1.00107
1.00314
1.0061
1.01962
0.999991
0.99999
0.99999
0.99999
0.99999
0.99999
0.99999
0.99999
0.99999
0.99999
0.99999
0.99999
0.999991
0.999991
0.999993
0.999996
1.00001
1.00002
1.00008
1.00017
1.00051
1.00104
1.00308
1.00595
1.01945
0.999991
0.99999
0.99999
0.99999
0.99999
0.99999
0.99999
0.99999
0.99999
0.99999
0.99999
0.99999
0.999991
0.999991
0.999992
0.999996
1
1.00003
1.00006
1.0002
1.00041
1.00121
1.00232
1.00764
1.013
0.999991
0.99999
0.99999
0.99999
0.99999
0.99999
0.99999
0.99999
0.99999
0.99999
0.99999
0.99999
0.999991
0.999991
0.999993
0.999997
1
1.00003
1.00007
1.00021
1.00043
1.00125
1.00249
1.0076
1.01386
1
1.00002
1.00004
1.00013
1.00026
1.00074
1.00149
1.00429
1.00838
1.02616
1.04649
1.169
1.30448
2.14374
3.7273
8.7744
10.3758
10.2678
10.0729
10.0441
10.0228
9.93357
9.68346
9.09644
7.61023
1
1.00002
1.00004
1.00011
1.00023
1.00064
1.00129
1.00369
1.00725
1.0223
1.03983
1.14432
1.25377
1.97142
3.24941
7.59905
10.2909
10.1736
9.90966
9.80103
9.71712
9.53227
9.13495
8.33614
6.80826
1
1.00001
1.00003
1.00009
1.0002
1.00055
1.00113
1.00318
1.0064
1.01867
1.03564
1.11752
1.21572
1.77959
2.80835
6.33605
10.2158
10.0848
9.76243
9.55977
9.41537
9.15229
8.66521
7.84858
6.63396
1
1.00001
1.00003
1.00008
1.00016
1.00046
1.00094
1.00263
1.00531
1.01523
1.03009
1.09211
1.17982
1.59379
2.38183
4.98629
9.99399
9.92741
9.63973
9.335
9.12589
8.8215
8.32047
7.56979
6.59765
1
1.00001
1.00002
1.00006
1.00013
1.00037
1.00076
1.00212
1.00429
1.01233
1.02418
1.07549
1.14095
1.48522
2.10355
4.30094
9.24092
9.63189
9.4638
9.12463
8.86647
8.54158
8.06724
7.39925
6.58106
1
1.00001
1.00002
1.00004
1.00012
1.00025
1.0007
1.00141
1.00403
1.00781
1.02453
1.04301
1.15705
1.27791
2.05661
3.4443
7.84125
9.34363
9.2414
8.97116
8.65165
8.30859
7.86401
7.26987
6.56151
1
1
1.00002
1.00004
1.0001
1.0002
1.00057
1.00116
1.00328
1.00655
1.01938
1.03605
1.12262
1.22078
1.80455
2.84692
6.29909
9.15666
9.09464
8.86139
8.48302
8.12044
7.69612
7.16097
6.5362
1
1
1.00001
1.00003
1.00008
1.00016
1.00045
1.00091
1.00255
1.00514
1.01475
1.0291
1.08915
1.17405
1.57042
2.31695
4.71969
8.82756
8.95385
8.77504
8.37961
7.97073
7.55606
7.07061
6.51543
1
1
1.00001
1.00002
1.00005
1.00014
1.00028
1.00079
1.00161
1.00455
1.00896
1.02721
1.04917
1.17288
1.31678
2.12434
3.64762
7.96613
8.74702
8.61588