/*--------------------------------*- C++ -*----------------------------------*\
| =========                 |                                                 |
| \\      /  F ield         | OpenFOAM: The Open Source CFD Toolbox           |
|  \\    /   O peration     | Version:  4.1                                   |
|   \\  /    A nd           | Web:      www.OpenFOAM.org                      |
|    \\/     M anipulation  |                                                 |
\*---------------------------------------------------------------------------*/
FoamFile
{
    version     2.0;
    format      ascii;
    class       surfaceScalarField;
    location    "5";
    object      phi;
}
// * * * * * * * * * * * * * * * * * * * * * * * * * * * * * * * * * * * * * //

dimensions      [1 0 -1 0 0 0 0];

internalField   nonuniform List<scalar> 
150500
(
0.0168001
1.88084e-10
-3.39332e-12
0.0168001
1.03502e-09
-1.16471e-11
0.0168001
3.86312e-09
-1.34697e-11
0.0168
9.88471e-09
-2.17049e-11
0.0168
2.74937e-08
-2.13518e-11
0.0167999
6.30591e-08
-2.92604e-11
0.0167998
1.66452e-07
-2.93274e-11
0.0167994
3.75973e-07
-4.05261e-11
0.0167983
9.93162e-07
-4.24809e-11
0.0167961
2.2277e-06
-7.91758e-11
0.0167887
6.65925e-06
-9.98726e-11
0.0167724
1.61594e-05
-2.44974e-10
0.0167104
5.9453e-05
-3.12608e-10
0.0165247
0.000180672
-1.27573e-09
0.0154446
0.00106131
-2.78497e-09
0.0141722
0.00127364
4.77146e-10
0.012931
0.00124057
-8.22242e-11
0.0116401
0.00128862
-3.95976e-10
0.0102827
0.00135488
-3.98953e-10
0.00884186
0.00143822
-3.85677e-10
0.00729569
0.0015436
-3.67236e-10
0.00563784
0.00165561
-3.75195e-10
0.00387515
0.00176018
-3.8158e-10
0.00200341
0.0018693
-3.89057e-10
0.00200104
-4.01007e-10
0.0168001
3.47962e-10
-3.38362e-12
0.0168001
1.92139e-09
-1.16498e-11
0.0168001
7.18481e-09
-1.34584e-11
0.0168
1.83447e-08
-2.17266e-11
0.0168
5.10238e-08
-2.12999e-11
0.0168
1.16015e-07
-2.92656e-11
0.0167998
3.12402e-07
-2.92543e-11
0.0167995
6.69479e-07
-4.03938e-11
0.0167984
1.97519e-06
-4.23126e-11
0.0167967
4.00783e-06
-7.82406e-11
0.0167892
1.34551e-05
-9.93358e-11
0.016775
3.01287e-05
-2.38917e-10
0.0167007
0.000131309
-3.22971e-10
0.0165093
0.000367737
-1.25709e-09
0.0154106
0.00214078
-2.78139e-09
0.0141035
0.00258245
4.88159e-10
0.0128859
0.00245781
-7.48695e-11
0.0116183
0.00255418
-3.94773e-10
0.0102729
0.00269788
-3.97615e-10
0.00882015
0.00288835
-3.83326e-10
0.00725596
0.00310526
-3.62904e-10
0.00558352
0.00332584
-3.70342e-10
0.00380378
0.00353745
-3.76217e-10
0.00192633
0.00374436
-3.82775e-10
0.00392505
-3.9388e-10
0.0168001
5.04544e-10
-3.3712e-12
0.0168001
2.7661e-09
-1.16447e-11
0.0168001
1.03386e-08
-1.34798e-11
0.0168
2.62797e-08
-2.16383e-11
0.0168
7.34097e-08
-2.14064e-11
0.0168
1.66487e-07
-2.91461e-11
0.0167998
4.5114e-07
-2.92558e-11
0.0167995
9.65669e-07
-4.0058e-11
0.0167985
2.85631e-06
-4.23037e-11
0.0167967
5.83484e-06
-7.68634e-11
0.0167897
1.98348e-05
-9.8315e-11
0.0167747
4.48543e-05
-2.32875e-10
0.0167081
0.00019541
-3.19361e-10
0.016524
0.000547424
-1.21802e-09
0.01551
0.00313485
-2.75129e-09
0.0141768
0.00391774
5.06513e-10
0.0129522
0.00368231
-6.30904e-11
0.011694
0.00381037
-3.94217e-10
0.0103592
0.00403026
-3.9874e-10
0.00890558
0.0043393
-3.84397e-10
0.00733489
0.00467338
-3.60653e-10
0.00564578
0.00501272
-3.66377e-10
0.00384017
0.00534054
-3.70856e-10
0.00194178
0.00564034
-3.74963e-10
0.00586454
-3.82134e-10
0.0168001
5.81843e-10
-3.35154e-12
0.0168001
3.22769e-09
-1.16395e-11
0.0168001
1.20792e-08
-1.34993e-11
0.0168001
3.07555e-08
-2.1534e-11
0.0168
8.54899e-08
-2.1502e-11
0.0168
1.92116e-07
-2.8967e-11
0.0167999
5.33107e-07
-2.91317e-11
0.0167998
1.04249e-06
-3.92607e-11
0.0167989
3.69956e-06
-4.18562e-11
0.0167988
5.91232e-06
-7.28243e-11
0.0167899
2.80184e-05
-9.38632e-11
0.0167801
5.44739e-05
-2.20142e-10
0.016716
0.00025693
-3.07224e-10
0.0165578
0.000701264
-1.16004e-09
0.0157056
0.00396634
-2.74181e-09
0.014353
0.00527287
4.57713e-10
0.0131195
0.00491591
-8.26822e-11
0.0118676
0.00506025
-3.92777e-10
0.010543
0.0053525
-3.97579e-10
0.0090962
0.00578332
-3.82662e-10
0.00752357
0.00624337
-3.59309e-10
0.00582762
0.00670637
-3.64729e-10
0.00399067
0.00717498
-3.66177e-10
0.00202089
0.00760769
-3.66321e-10
0.00788312
-3.68424e-10
0.0168001
7.38181e-10
-3.34166e-12
0.0168001
4.08686e-09
-1.16131e-11
0.0168001
1.52283e-08
-1.3594e-11
0.0168
3.8908e-08
-2.1398e-11
0.0168
1.0763e-07
-2.18968e-11
0.0168
2.43862e-07
-2.91407e-11
0.0167998
6.61606e-07
-3.00255e-11
0.0167995
1.3495e-06
-4.34117e-11
0.0167986
4.4838e-06
-3.88088e-11
0.0167976
7.02639e-06
-1.16627e-10
0.0167908
3.40307e-05
-6.04494e-12
0.0167818
6.35583e-05
-3.23904e-10
0.0167387
0.000297432
-1.12392e-10
0.016631
0.000804899
-1.04191e-09
0.0161063
0.00446953
-2.46271e-09
0.0147304
0.00665164
3.09838e-10
0.0134464
0.00620034
-2.16728e-10
0.0121772
0.00632746
-4.3278e-10
0.0108651
0.00666207
-4.20754e-10
0.00942529
0.00722029
-3.91148e-10
0.00784958
0.00781641
-3.69088e-10
0.00612073
0.00843274
-3.70848e-10
0.00423396
0.00905913
-3.67627e-10
0.00218256
0.00965658
-3.63107e-10
0.0100634
-3.59695e-10
0.0168001
9.15126e-10
-3.31855e-12
0.0168001
5.02845e-09
-1.15793e-11
0.0168001
1.87342e-08
-1.35715e-11
0.0168
4.78876e-08
-2.12631e-11
0.0168
1.3281e-07
-2.15797e-11
0.0168
3.03466e-07
-2.83532e-11
0.0167998
8.02952e-07
-2.84341e-11
0.0167994
1.77527e-06
-3.66385e-11
0.0167988
4.93012e-06
-3.93677e-11
0.0167959
9.98679e-06
-6.98488e-11
0.0167946
3.46184e-05
-5.33062e-11
0.0167876
7.04279e-05
-2.26631e-10
0.016777
0.000305455
-1.98346e-10
0.0167536
0.000824508
-9.24166e-10
0.0167966
0.00440511
-2.27172e-09
0.0153909
0.0080597
1.84095e-10
0.013975
0.00761675
-2.42476e-10
0.0126546
0.00764591
-4.25635e-10
0.0113329
0.00798113
-4.17323e-10
0.00991394
0.00863621
-3.97448e-10
0.00832707
0.00940042
-3.8141e-10
0.00657942
0.0101779
-3.80657e-10
0.00461861
0.0110172
-3.73608e-10
0.00240824
0.0118643
-3.65076e-10
0.0124692
-3.59424e-10
0.0168001
9.63074e-10
-3.28106e-12
0.0168001
5.3245e-09
-1.15862e-11
0.0168001
1.98241e-08
-1.35468e-11
0.0168001
5.08432e-08
-2.12376e-11
0.0168
1.39991e-07
-2.14901e-11
0.0168
3.20134e-07
-2.82033e-11
0.0168
8.35954e-07
-2.80207e-11
0.0167999
1.85737e-06
-3.58207e-11
0.0167998
4.93622e-06
-3.8702e-11
0.016799
1.07312e-05
-5.67412e-11
0.0168011
3.19244e-05
-6.66876e-11
0.0168015
6.9893e-05
-1.8459e-10
0.0168419
0.000262616
-2.22792e-10
0.016957
0.000706002
-8.33942e-10
0.0179573
0.00338432
-2.16974e-09
0.0165377
0.00948035
-6.85493e-11
0.0147862
0.00936911
-2.88893e-10
0.0133865
0.00904387
-3.93235e-10
0.0120435
0.00932153
-3.92365e-10
0.0106037
0.0100726
-3.8393e-10
0.0090062
0.0109947
-3.75552e-10
0.00720489
0.0119764
-3.77594e-10
0.00516783
0.0130513
-3.75888e-10
0.00280306
0.0142263
-3.6811e-10
0.0152697
-3.61638e-10
0.0168001
1.03313e-09
-3.2475e-12
0.0168001
5.74595e-09
-1.15945e-11
0.0168001
2.14353e-08
-1.35428e-11
0.0168001
5.52706e-08
-2.12292e-11
0.0168
1.51872e-07
-2.14542e-11
0.0168
3.48737e-07
-2.81269e-11
0.0167999
9.05405e-07
-2.77912e-11
0.0167997
2.03491e-06
-3.53049e-11
0.0167993
5.27448e-06
-3.73131e-11
0.0167982
1.18373e-05
-5.36593e-11
0.0167981
3.15942e-05
-5.67622e-11
0.0167911
7.67171e-05
-1.70234e-10
0.0168146
0.000236995
-1.37337e-10
0.0168606
0.000659503
-5.9038e-10
0.0173576
0.0028737
-1.11751e-09
0.0167239
0.0101054
-8.85973e-10
0.0151441
0.0109456
-5.16821e-10
0.0139761
0.0102093
-4.15504e-10
0.0127337
0.0105611
-4.04114e-10
0.011367
0.0114359
-3.86173e-10
0.0098188
0.0125394
-3.79682e-10
0.00804437
0.0137477
-3.75565e-10
0.00595874
0.0151337
-3.72776e-10
0.00339115
0.0167907
-3.67545e-10
0.018658
-3.64232e-10
0.0168001
1.4077e-09
-3.22169e-12
0.0168001
6.2836e-09
-1.15935e-11
0.0168001
2.56666e-08
-1.35578e-11
0.0168
6.16523e-08
-2.12275e-11
0.0168
1.8032e-07
-2.14841e-11
0.0168
3.93639e-07
-2.81813e-11
0.0167998
1.0564e-06
-2.79922e-11
0.0167995
2.38673e-06
-3.58469e-11
0.0167991
5.5359e-06
-3.76123e-11
0.016797
1.3979e-05
-6.02701e-11
0.0167962
3.19943e-05
-4.59346e-11
0.0167981
7.45798e-05
-1.88256e-10
0.0167922
0.000240795
-8.37767e-11
0.0168087
0.000644283
-5.64647e-10
0.0170342
0.00263824
-9.35129e-10
0.0163271
0.0107954
-1.76883e-09
0.0157253
0.0115426
-4.36391e-10
0.0145043
0.0114263
-3.63104e-10
0.0132653
0.0117967
-3.75918e-10
0.0121001
0.0125974
-3.76366e-10
0.0107004
0.0139349
-3.77054e-10
0.0090679
0.0153766
-3.71874e-10
0.00712688
0.0170708
-3.68629e-10
0.00445529
0.0194585
-3.60491e-10
0.0231098
-3.60237e-10
0.0168001
-3.24281e-12
2.01509e-09
0.0168001
-1.16265e-11
1.49442e-09
0.0168001
-1.36254e-11
2.66891e-08
0.0168001
-2.18641e-11
2.2842e-08
0.0168001
-2.11915e-11
1.75904e-07
0.0168003
-2.91141e-11
1.48765e-07
0.0168003
-2.81289e-11
1.06858e-06
0.016802
-3.74792e-11
7.50715e-07
0.0168002
-3.64286e-11
7.2119e-06
0.0168113
-6.00591e-11
3.04453e-06
0.0167889
-6.25442e-11
5.41722e-05
0.0168519
-1.40363e-10
1.13833e-05
0.0167082
-7.81716e-11
0.000383038
0.0169869
-5.93132e-10
0.000363848
0.016952
-7.14852e-10
0.00266713
0.0165391
-1.87409e-09
0.0111911
0.0156857
-3.01201e-10
0.0123917
0.0148136
-2.68364e-10
0.0122948
0.013875
-3.42537e-10
0.0127308
0.0128596
-3.54297e-10
0.0136088
0.0117621
-3.64588e-10
0.0150279
0.0104831
-3.62831e-10
0.0166513
0.00872258
-3.58889e-10
0.018827
0.00614171
-3.49379e-10
0.022035
-3.4518e-10
0.0292468
0.0168001
1.92728e-10
-5.13685e-16
0.0168001
1.03741e-09
-2.72921e-15
0.0168001
3.87138e-09
-5.97681e-15
0.0168
9.88126e-09
-1.26732e-14
0.0168
2.75234e-08
-2.32462e-14
0.0167999
6.30693e-08
-4.40731e-14
0.0167998
1.66508e-07
-9.16023e-14
0.0167994
3.76084e-07
-1.8052e-13
0.0167983
9.93359e-07
-4.2931e-13
0.0167961
2.22833e-06
-8.83763e-13
0.0167887
6.66016e-06
-2.54827e-12
0.0167724
1.61632e-05
-5.94629e-12
0.0167104
5.94516e-05
-1.58162e-11
0.0165247
0.000180688
-5.27314e-11
0.0154445
0.00106136
-1.4406e-10
0.0141722
0.00127362
2.40192e-11
0.0129309
0.00124058
-3.37826e-12
0.01164
0.00128861
-1.54101e-11
0.0102827
0.00135487
-1.44169e-11
0.00884181
0.0014382
-1.30228e-11
0.00729566
0.00154357
-1.48614e-11
0.00563783
0.00165558
-1.73111e-11
0.00387517
0.00176016
-1.97287e-11
0.00200344
0.00186929
-2.25667e-11
0.00200107
-2.65221e-11
0.0168001
3.54174e-10
-4.97535e-16
0.0168001
1.92982e-09
-2.66079e-15
0.0168001
7.18176e-09
-5.7339e-15
0.0168
1.83914e-08
-1.21469e-14
0.0168
5.09998e-08
-2.16454e-14
0.0168
1.16078e-07
-4.03142e-14
0.0167998
3.12452e-07
-8.40149e-14
0.0167995
6.69732e-07
-1.47414e-13
0.0167984
1.97547e-06
-4.31969e-13
0.0167967
4.00894e-06
-6.92039e-13
0.0167892
1.34571e-05
-2.61644e-12
0.016775
3.01343e-05
-4.88204e-12
0.0167007
0.00013132
-2.04293e-11
0.0165092
0.000367778
-5.24172e-11
0.0154104
0.00214093
-1.5001e-10
0.0141033
0.00258243
2.77776e-11
0.0128857
0.0024578
1.85387e-13
0.0116181
0.00255416
-1.42193e-11
0.0102728
0.00269785
-1.38449e-11
0.00882005
0.00288831
-1.29697e-11
0.0072559
0.00310521
-1.43473e-11
0.00558348
0.00332579
-1.64459e-11
0.00380377
0.0035374
-1.87622e-11
0.00192633
0.00374433
-2.12706e-11
0.00392508
-2.46331e-11
0.0168001
5.13906e-10
-4.9571e-16
0.0168001
2.77598e-09
-2.65235e-15
0.0168001
1.03381e-08
-5.71523e-15
0.0168
2.63277e-08
-1.20979e-14
0.0168
7.33906e-08
-2.1604e-14
0.0168
1.66532e-07
-4.02534e-14
0.0167998
4.5117e-07
-8.43053e-14
0.0167995
9.65796e-07
-1.4903e-13
0.0167985
2.85623e-06
-4.36634e-13
0.0167967
5.83464e-06
-7.08326e-13
0.0167897
1.98367e-05
-2.69027e-12
0.0167747
4.48635e-05
-5.0416e-12
0.0167081
0.000195432
-2.1062e-11
0.016524
0.000547512
-5.39033e-11
0.0155098
0.00313516
-1.55745e-10
0.0141766
0.00391772
3.2953e-11
0.012952
0.00368228
3.36058e-12
0.0116938
0.00381033
-1.36473e-11
0.010359
0.0040302
-1.38036e-11
0.00890543
0.00433923
-1.33921e-11
0.00733477
0.0046733
-1.40929e-11
0.0056457
0.00501263
-1.55856e-11
0.00384012
0.00534047
-1.74329e-11
0.00194176
0.00564029
-1.915e-11
0.00586454
-2.10998e-11
0.0168001
5.87357e-10
-4.94954e-16
0.0168001
3.24752e-09
-2.6487e-15
0.0168001
1.20525e-08
-5.71305e-15
0.0168
3.08206e-08
-1.20844e-14
0.0168
8.53626e-08
-2.16629e-14
0.0168
1.92054e-07
-4.0425e-14
0.0167999
5.32773e-07
-8.50322e-14
0.0167998
1.04104e-06
-1.52139e-13
0.0167989
3.70106e-06
-4.41243e-13
0.0167988
5.89521e-06
-7.30151e-13
0.0167899
2.80597e-05
-2.74828e-12
0.0167801
5.4436e-05
-5.10155e-12
0.0167159
0.000257052
-2.13449e-11
0.0165576
0.0007014
-5.43427e-11
0.0157052
0.00396695
-1.60003e-10
0.0143525
0.00527288
3.6558e-11
0.0131191
0.00491577
4.71986e-12
0.0118673
0.00506016
-1.39188e-11
0.0105427
0.0053524
-1.42859e-11
0.00909595
0.00578322
-1.39735e-11
0.00752336
0.00624324
-1.39235e-11
0.00582747
0.00670623
-1.49221e-11
0.00399058
0.00717485
-1.60745e-11
0.00202085
0.00760759
-1.69157e-11
0.00788308
-1.75555e-11
0.0168001
7.49797e-10
-4.74484e-16
0.0168001
4.11366e-09
-2.58611e-15
0.0168001
1.52593e-08
-5.4685e-15
0.0168
3.89949e-08
-1.12775e-14
0.0168
1.07851e-07
-2.00184e-14
0.0168
2.44359e-07
-3.56433e-14
0.0167998
6.62688e-07
-7.55579e-14
0.0167995
1.35325e-06
-1.05757e-13
0.0167986
4.48546e-06
-4.63431e-13
0.0167975
7.04689e-06
-3.07115e-13
0.0167908
3.402e-05
-3.91088e-12
0.0167817
6.36137e-05
-4.02172e-12
0.0167388
0.000297411
-2.28311e-11
0.0166311
0.000805009
-5.42179e-11
0.0161065
0.00447004
-1.65329e-10
0.0147305
0.00665165
3.76723e-11
0.0134464
0.00620031
6.30896e-12
0.0121771
0.00632743
-1.41582e-11
0.010865
0.00666202
-1.49339e-11
0.00942516
0.00722021
-1.48742e-11
0.00784944
0.00781629
-1.34962e-11
0.00612059
0.0084326
-1.38764e-11
0.00423385
0.00905897
-1.44985e-11
0.00218251
0.00965643
-1.47526e-11
0.0100633
-1.44997e-11
0.0168001
9.33439e-10
-4.93072e-16
0.0168001
5.04005e-09
-2.65402e-15
0.0168001
1.87632e-08
-5.74431e-15
0.0168
4.79292e-08
-1.19321e-14
0.0168
1.3291e-07
-2.19519e-14
0.0168
3.0367e-07
-4.06073e-14
0.0167998
8.03442e-07
-8.43608e-14
0.0167994
1.77645e-06
-1.58415e-13
0.0167988
4.9321e-06
-4.30349e-13
0.0167959
9.99648e-06
-6.65298e-13
0.0167946
3.46222e-05
-2.95042e-12
0.0167877
7.04551e-05
-4.49131e-12
0.016777
0.000305473
-2.10052e-11
0.0167536
0.000824607
-5.17781e-11
0.0167964
0.00440573
-1.62989e-10
0.0153909
0.00805957
3.06559e-11
0.013975
0.00761669
6.15263e-12
0.0126546
0.00764588
-1.45211e-11
0.0113329
0.0079811
-1.58618e-11
0.00991388
0.00863617
-1.65983e-11
0.008327
0.00940031
-1.39542e-11
0.00657934
0.0101778
-1.34631e-11
0.00461853
0.0110171
-1.33903e-11
0.00240819
0.0118642
-1.29559e-11
0.0124691
-1.19993e-11
0.0168001
9.79822e-10
-4.8688e-16
0.0168001
5.33404e-09
-2.62469e-15
0.0168001
1.98387e-08
-5.65314e-15
0.0168001
5.08627e-08
-1.1723e-14
0.0168
1.4003e-07
-2.13638e-14
0.0168
3.20209e-07
-3.92857e-14
0.0168
8.36135e-07
-8.06999e-14
0.0167999
1.85777e-06
-1.50705e-13
0.0167998
4.93722e-06
-3.92637e-13
0.016799
1.07334e-05
-7.12222e-13
0.0168012
3.19316e-05
-2.55533e-12
0.0168015
6.99051e-05
-4.1915e-12
0.0168419
0.000262679
-1.88776e-11
0.0169568
0.000706191
-4.71233e-11
0.0179567
0.00338545
-1.56647e-10
0.0165372
0.00948012
1.21776e-11
0.0147859
0.00936872
-3.40568e-13
0.0133863
0.00904374
-1.58492e-11
0.0120434
0.00932143
-1.70232e-11
0.0106036
0.0100725
-1.73873e-11
0.00900614
0.0109946
-1.42257e-11
0.00720484
0.0119763
-1.30329e-11
0.00516778
0.0130512
-1.26686e-11
0.00280303
0.0142261
-1.16641e-11
0.0152695
-1.0036e-11
0.0168001
1.0444e-09
-4.73968e-16
0.0168001
5.75109e-09
-2.56583e-15
0.0168001
2.14285e-08
-5.4605e-15
0.0168001
5.52418e-08
-1.13069e-14
0.0168
1.51793e-07
-2.00906e-14
0.0168
3.48627e-07
-3.66934e-14
0.0167999
9.05152e-07
-7.23225e-14
0.0167997
2.03442e-06
-1.35111e-13
0.0167993
5.27388e-06
-3.26604e-13
0.0167982
1.18345e-05
-6.37457e-13
0.0167981
3.15984e-05
-1.73027e-12
0.0167911
7.67086e-05
-4.0802e-12
0.0168147
0.000237034
-1.1203e-11
0.0168608
0.000659552
-2.92145e-11
0.0173585
0.00287413
-7.68666e-11
0.0167242
0.0101057
-5.08992e-11
0.0151441
0.0109455
-2.4635e-11
0.0139761
0.0102093
-2.14989e-11
0.0127336
0.010561
-2.1028e-11
0.011367
0.0114358
-1.96129e-11
0.00981878
0.0125393
-1.64617e-11
0.00804434
0.0137476
-1.40976e-11
0.00595872
0.0151335
-1.28998e-11
0.00339112
0.0167905
-1.1228e-11
0.0186578
-8.8851e-12
0.0168001
1.38463e-09
-4.71835e-16
0.0168001
6.39095e-09
-2.54942e-15
0.0168001
2.57009e-08
-5.43418e-15
0.0168
6.14161e-08
-1.12482e-14
0.0168
1.80337e-07
-2.00572e-14
0.0168
3.93232e-07
-3.67519e-14
0.0167998
1.05618e-06
-7.27209e-14
0.0167995
2.38604e-06
-1.39892e-13
0.0167991
5.53571e-06
-3.11596e-13
0.016797
1.39795e-05
-7.40399e-13
0.0167962
3.19889e-05
-1.30585e-12
0.016798
7.45976e-05
-4.54211e-12
0.0167922
0.000240801
-8.4206e-12
0.0168087
0.000644313
-2.61024e-11
0.0170343
0.00263849
-6.71483e-11
0.0163274
0.0107956
-1.19413e-10
0.0157256
0.0115426
-2.31049e-11
0.0145044
0.0114263
-1.91134e-11
0.0132654
0.0117967
-2.05768e-11
0.0121001
0.0125974
-2.00135e-11
0.0107004
0.0139348
-1.82393e-11
0.00906792
0.0153765
-1.54377e-11
0.00712688
0.0170707
-1.40903e-11
0.00445529
0.0194584
-1.14891e-11
0.0231096
-8.74041e-12
0.0168001
-4.59662e-16
1.87959e-09
0.0168001
-2.46796e-15
1.85943e-09
0.0168001
-5.15485e-15
2.54899e-08
0.0168001
-1.08835e-14
2.3357e-08
0.0168001
-1.79624e-14
1.74498e-07
0.0168003
-3.31531e-14
1.49411e-07
0.0168003
-6.04476e-14
1.06751e-06
0.016802
-1.13437e-13
7.51824e-07
0.0168002
-2.49287e-13
7.21075e-06
0.0168113
-4.8987e-13
3.05027e-06
0.0167889
-1.30666e-12
5.41698e-05
0.0168519
-2.93901e-12
1.14044e-05
0.0167082
-6.78235e-12
0.000383006
0.0169868
-2.65105e-11
0.000363963
0.0169522
-5.5e-11
0.00266713
0.0165392
-1.27577e-10
0.0111913
0.0156859
-1.56026e-11
0.0123917
0.0148137
-1.37875e-11
0.0122948
0.0138751
-1.90834e-11
0.0127308
0.0128597
-1.93817e-11
0.0136088
0.0117622
-1.85548e-11
0.0150279
0.0104831
-1.72776e-11
0.0166512
0.00872262
-1.51857e-11
0.0188269
0.00614174
-1.24652e-11
0.0220348
-9.81589e-12
0.0292466
0.0168001
1.92735e-10
1.85227e-16
0.0168001
1.03744e-09
1.67603e-16
0.0168001
3.87151e-09
-1.92514e-17
0.0168
9.88159e-09
-4.16656e-17
0.0168
2.75243e-08
-8.2512e-17
0.0167999
6.30717e-08
-1.69249e-16
0.0167998
1.66513e-07
-1.87321e-16
0.0167994
3.76102e-07
-5.77733e-16
0.0167983
9.93369e-07
1.3404e-15
0.0167961
2.22843e-06
-8.18219e-18
0.0167887
6.66017e-06
2.22982e-14
0.0167724
1.61637e-05
4.28056e-14
0.0167104
5.94493e-05
2.97881e-13
0.0165247
0.000180687
9.41914e-13
0.0154445
0.00106135
3.59437e-12
0.0141722
0.00127362
1.4205e-12
0.0129309
0.00124058
8.44515e-13
0.01164
0.00128861
1.04276e-12
0.0102827
0.00135486
1.20731e-12
0.00884184
0.0014382
1.36498e-12
0.00729569
0.00154357
1.14608e-12
0.00563786
0.00165558
9.20692e-13
0.0038752
0.00176016
7.16174e-13
0.00200346
0.0018693
5.38933e-13
0.00200109
3.11219e-13
0.0168001
3.54175e-10
1.82401e-16
0.0168001
1.92983e-09
1.7664e-16
0.0168001
7.18179e-09
-1.71295e-17
0.0168
1.83915e-08
-3.71432e-17
0.0168
5.09999e-08
-7.22502e-17
0.0168
1.16079e-07
-1.47703e-16
0.0167998
3.12453e-07
-1.61592e-16
0.0167995
6.69734e-07
-4.57998e-16
0.0167984
1.97547e-06
1.17696e-15
0.0167967
4.00893e-06
2.72173e-16
0.0167892
1.34571e-05
2.07757e-14
0.016775
3.01342e-05
3.92575e-14
0.0167007
0.00013132
2.92435e-13
0.0165092
0.000367777
9.05621e-13
0.0154104
0.00214093
3.48955e-12
0.0141033
0.00258242
1.45251e-12
0.0128857
0.0024578
8.95141e-13
0.0116181
0.00255416
1.06213e-12
0.0102728
0.00269785
1.21402e-12
0.00882006
0.00288831
1.3696e-12
0.00725591
0.00310521
1.16886e-12
0.00558349
0.00332579
9.63065e-13
0.00380378
0.0035374
7.58985e-13
0.00192634
0.00374434
5.89153e-13
0.0039251
3.79438e-13
0.0168001
5.13907e-10
1.82004e-16
0.0168001
2.77598e-09
1.77587e-16
0.0168001
1.03381e-08
-1.75404e-17
0.0168
2.63278e-08
-3.79191e-17
0.0168
7.33907e-08
-7.58755e-17
0.0168
1.66533e-07
-1.55224e-16
0.0167998
4.51171e-07
-1.91156e-16
0.0167995
9.65798e-07
-5.17782e-16
0.0167985
2.85624e-06
9.50731e-16
0.0167967
5.83466e-06
-1.49434e-16
0.0167897
1.98367e-05
1.91624e-14
0.0167747
4.48635e-05
3.55793e-14
0.0167081
0.000195432
2.78876e-13
0.016524
0.000547512
8.66928e-13
0.0155097
0.00313516
3.40668e-12
0.0141766
0.00391771
1.51588e-12
0.012952
0.00368228
1.18706e-12
0.0116938
0.00381033
1.06368e-12
0.010359
0.0040302
1.21002e-12
0.00890543
0.00433923
1.37701e-12
0.00733477
0.0046733
1.20521e-12
0.00564571
0.00501263
1.03074e-12
0.00384012
0.00534047
8.39277e-13
0.00194176
0.0056403
6.91445e-13
0.00586457
5.39986e-13
0.0168001
5.87366e-10
1.81819e-16
0.0168001
3.24755e-09
1.77835e-16
0.0168001
1.20526e-08
-1.79529e-17
0.0168
3.0821e-08
-3.88127e-17
0.0168
8.53634e-08
-7.86733e-17
0.0168
1.92056e-07
-1.60195e-16
0.0167999
5.32778e-07
-2.10421e-16
0.0167998
1.04106e-06
-5.34937e-16
0.0167989
3.70105e-06
7.85606e-16
0.0167988
5.89539e-06
-2.67216e-16
0.0167899
2.80594e-05
1.82711e-14
0.0167801
5.44364e-05
3.31012e-14
0.0167159
0.000257051
2.68553e-13
0.0165576
0.000701401
8.36428e-13
0.0157052
0.00396696
3.36424e-12
0.0143525
0.00527287
1.5526e-12
0.0131191
0.00491577
8.75579e-13
0.0118673
0.00506015
1.05842e-12
0.0105427
0.0053524
1.21624e-12
0.00909594
0.00578322
1.41288e-12
0.00752336
0.00624324
1.26907e-12
0.00582747
0.00670623
1.1235e-12
0.00399057
0.00717486
9.55176e-13
0.00202085
0.0076076
8.34522e-13
0.00788311
7.34382e-13
0.0168001
7.49788e-10
1.77652e-16
0.0168001
4.11363e-09
1.84843e-16
0.0168001
1.52592e-08
-1.92539e-17
0.0168
3.89945e-08
-4.25431e-17
0.0168
1.0785e-07
-9.2823e-17
0.0168
2.44356e-07
-1.99729e-16
0.0167998
6.62683e-07
-3.07423e-16
0.0167995
1.35322e-06
-1.0709e-15
0.0167986
4.48547e-06
1.04858e-15
0.0167975
7.04676e-06
-6.46348e-15
0.0167908
3.40202e-05
2.86815e-14
0.0167817
6.36135e-05
1.2969e-14
0.0167388
0.000297413
2.7702e-13
0.0166311
0.000805012
7.91283e-13
0.0161065
0.00447007
3.27334e-12
0.0147305
0.00665164
1.56302e-12
0.0134464
0.00620031
7.57639e-13
0.0121771
0.00632742
1.07689e-12
0.010865
0.00666202
1.2464e-12
0.00942515
0.0072202
1.47709e-12
0.00784943
0.00781628
1.36487e-12
0.00612058
0.0084326
1.24684e-12
0.00423385
0.00905897
1.10121e-12
0.0021825
0.00965644
1.00082e-12
0.0100633
9.32697e-13
0.0168001
9.33442e-10
1.81769e-16
0.0168001
5.04006e-09
1.77503e-16
0.0168001
1.87632e-08
-1.66103e-17
0.0168
4.79293e-08
-3.58642e-17
0.0168
1.3291e-07
-7.13566e-17
0.0168
3.0367e-07
-1.40073e-16
0.0167998
8.03444e-07
-1.94543e-16
0.0167994
1.77645e-06
-4.01715e-16
0.0167988
4.93212e-06
7.69814e-16
0.0167959
9.99646e-06
-2.18293e-15
0.0167946
3.46224e-05
2.28697e-14
0.0167877
7.04555e-05
1.67555e-14
0.016777
0.000305475
2.52173e-13
0.0167536
0.000824614
7.32979e-13
0.0167964
0.00440578
3.1042e-12
0.0153909
0.00805956
1.62337e-12
0.013975
0.00761668
7.66232e-13
0.0126546
0.00764587
1.13353e-12
0.0113329
0.0079811
1.30415e-12
0.00991387
0.00863617
1.55764e-12
0.00832699
0.00940031
1.4803e-12
0.00657933
0.0101778
1.41036e-12
0.00461852
0.0110171
1.2856e-12
0.00240819
0.0118642
1.20201e-12
0.0124691
1.15095e-12
0.0168001
9.79829e-10
1.80753e-16
0.0168001
5.33408e-09
1.81322e-16
0.0168001
1.98388e-08
-1.51416e-17
0.0168001
5.0863e-08
-3.27582e-17
0.0168
1.4003e-07
-6.40899e-17
0.0168
3.20211e-07
-1.26312e-16
0.0168
8.36141e-07
-1.69728e-16
0.0167999
1.85778e-06
-3.3502e-16
0.0167998
4.93726e-06
4.40017e-16
0.016799
1.07335e-05
1.12999e-16
0.0168012
3.19321e-05
1.68979e-14
0.0168015
6.99055e-05
1.42988e-14
0.0168419
0.000262684
2.15283e-13
0.0169568
0.000706206
6.23436e-13
0.0179566
0.00338554
2.72173e-12
0.0165371
0.00948012
1.7535e-12
0.0147859
0.00936868
1.05017e-12
0.0133863
0.00904372
1.23507e-12
0.0120434
0.00932141
1.40155e-12
0.0106036
0.0100725
1.68738e-12
0.00900613
0.0109946
1.63293e-12
0.00720483
0.0119763
1.58986e-12
0.00516777
0.0130512
1.50468e-12
0.00280302
0.0142261
1.45106e-12
0.0152695
1.42496e-12
0.0168001
1.0444e-09
1.78431e-16
0.0168001
5.7511e-09
1.88708e-16
0.0168001
2.14286e-08
-1.27775e-17
0.0168001
5.5242e-08
-2.76133e-17
0.0168
1.51793e-07
-5.24356e-17
0.0168
3.48628e-07
-1.02172e-16
0.0167999
9.05154e-07
-1.27265e-16
0.0167997
2.03442e-06
-2.30184e-16
0.0167993
5.27389e-06
3.83033e-16
0.0167982
1.18345e-05
6.70411e-16
0.0167981
3.15987e-05
1.14574e-14
0.0167911
7.67086e-05
1.59304e-14
0.0168147
0.000237037
1.42852e-13
0.0168608
0.000659557
4.00023e-13
0.0173586
0.00287416
1.53175e-12
0.0167242
0.0101057
2.38916e-12
0.0151441
0.0109455
1.38611e-12
0.0139761
0.0102093
1.371e-12
0.0127336
0.010561
1.52635e-12
0.0113669
0.0114358
1.79241e-12
0.00981877
0.0125393
1.81217e-12
0.00804433
0.0137476
1.81791e-12
0.00595871
0.0151335
1.78491e-12
0.00339112
0.0167905
1.77035e-12
0.0186578
1.78823e-12
0.0168001
1.38463e-09
1.78147e-16
0.0168001
6.391e-09
1.90903e-16
0.0168001
2.5701e-08
-1.15967e-17
0.0168
6.14164e-08
-2.5123e-17
0.0168
1.80338e-07
-4.65682e-17
0.0168
3.93235e-07
-9.05233e-17
0.0167998
1.05619e-06
-1.00291e-16
0.0167995
2.38606e-06
-1.66716e-16
0.0167991
5.53575e-06
4.81043e-16
0.016797
1.39796e-05
1.15989e-15
0.0167962
3.19891e-05
9.54499e-15
0.016798
7.45984e-05
2.29664e-14
0.0167922
0.000240803
1.17214e-13
0.0168087
0.000644316
3.49616e-13
0.0170344
0.00263852
1.25038e-12
0.0163275
0.0107956
2.96395e-12
0.0157256
0.0115426
1.53625e-12
0.0145044
0.0114264
1.50633e-12
0.0132654
0.0117967
1.76947e-12
0.0121001
0.0125974
1.88602e-12
0.0107004
0.0139348
2.03438e-12
0.00906791
0.0153765
2.08594e-12
0.00712687
0.0170707
2.1189e-12
0.00445529
0.0194584
2.21502e-12
0.0231096
2.35097e-12
0.0168001
1.75584e-16
1.87957e-09
0.0168001
2.00626e-16
1.85951e-09
0.0168001
-9.06241e-18
2.54898e-08
0.0168001
-1.95461e-17
2.33575e-08
0.0168001
-3.54915e-17
1.74499e-07
0.0168003
-6.97362e-17
1.49413e-07
0.0168003
-6.94042e-17
1.06751e-06
0.016802
-1.19289e-16
7.51835e-07
0.0168002
4.45823e-16
7.21079e-06
0.0168113
9.58678e-16
3.05035e-06
0.0167889
8.25939e-15
5.417e-05
0.0168519
2.21235e-14
1.14048e-05
0.0167082
7.72609e-14
0.000383007
0.0169868
3.59504e-13
0.000363967
0.0169522
1.00444e-12
0.00266715
0.0165392
3.00473e-12
0.0111913
0.0156859
1.7396e-12
0.0123917
0.0148137
1.68151e-12
0.0122948
0.0138751
1.94432e-12
0.0127308
0.0128597
2.06681e-12
0.0136088
0.0117622
2.29907e-12
0.0150279
0.0104831
2.38972e-12
0.0166512
0.00872261
2.54678e-12
0.0188269
0.00614173
2.82282e-12
0.0220348
3.33637e-12
0.0292466
0.0168001
1.92735e-10
-5.22713e-17
0.0168001
1.03744e-09
-1.93118e-16
0.0168001
3.87151e-09
-5.57304e-16
0.0168
9.88159e-09
-1.08228e-15
0.0168
2.75243e-08
-2.96539e-15
0.0167999
6.30717e-08
-5.88184e-15
0.0167998
1.66513e-07
-1.72673e-14
0.0167994
3.76102e-07
-3.55471e-14
0.0167983
9.93369e-07
-1.08254e-13
0.0167961
2.22843e-06
-2.16479e-13
0.0167887
6.66017e-06
-7.67217e-13
0.0167724
1.61637e-05
-1.75085e-12
0.0167104
5.94493e-05
-5.75405e-12
0.0165247
0.000180687
-1.88149e-11
0.0154445
0.00106135
-5.83677e-11
0.0141722
0.00127362
-1.0073e-12
0.0129309
0.00124058
-5.75659e-12
0.01164
0.00128861
-1.03141e-11
0.0102827
0.00135486
-1.09419e-11
0.00884184
0.0014382
-1.15189e-11
0.00729569
0.00154357
-1.06526e-11
0.00563786
0.00165558
-9.8496e-12
0.0038752
0.00176017
-9.37614e-12
0.00200346
0.0018693
-8.89274e-12
0.00200109
-8.46726e-12
0.0168001
3.54175e-10
-4.61743e-17
0.0168001
1.92983e-09
-1.73449e-16
0.0168001
7.18179e-09
-4.96581e-16
0.0168
1.83915e-08
-9.60049e-16
0.0168
5.09999e-08
-2.59536e-15
0.0168
1.16079e-07
-5.00895e-15
0.0167998
3.12453e-07
-1.54251e-14
0.0167995
6.69734e-07
-2.75383e-14
0.0167984
1.97547e-06
-1.08193e-13
0.0167967
4.00893e-06
-1.68029e-13
0.0167892
1.34571e-05
-7.78351e-13
0.016775
3.01342e-05
-1.45588e-12
0.0167007
0.00013132
-6.96341e-12
0.0165092
0.000367777
-1.85464e-11
0.0154104
0.00214093
-5.93805e-11
0.0141033
0.00258242
-2.3739e-13
0.0128857
0.0024578
-5.01916e-12
0.0116181
0.00255416
-1.00665e-11
0.0102728
0.00269785
-1.07923e-11
0.00882006
0.00288831
-1.148e-11
0.00725591
0.00310521
-1.05866e-11
0.00558349
0.00332579
-9.79921e-12
0.00380378
0.0035374
-9.32169e-12
0.00192634
0.00374434
-8.82608e-12
0.0039251
-8.3891e-12
0.0168001
5.13907e-10
-4.54298e-17
0.0168001
2.77598e-09
-1.70518e-16
0.0168001
1.03381e-08
-4.90244e-16
0.0168
2.63278e-08
-9.47139e-16
0.0168
7.33907e-08
-2.57593e-15
0.0168
1.66533e-07
-4.97815e-15
0.0167998
4.51171e-07
-1.54117e-14
0.0167995
9.65798e-07
-2.77718e-14
0.0167985
2.85624e-06
-1.08562e-13
0.0167967
5.83466e-06
-1.70683e-13
0.0167897
1.98367e-05
-7.90687e-13
0.0167747
4.48635e-05
-1.48133e-12
0.0167081
0.000195432
-7.06353e-12
0.016524
0.000547511
-1.87373e-11
0.0155097
0.00313516
-6.04059e-11
0.0141766
0.00391771
5.24619e-13
0.012952
0.00368228
-4.26039e-12
0.0116938
0.00381033
-9.89096e-12
0.010359
0.0040302
-1.07147e-11
0.00890543
0.00433923
-1.15474e-11
0.00733477
0.0046733
-1.06159e-11
0.00564571
0.00501263
-9.84271e-12
0.00384013
0.00534047
-9.36471e-12
0.00194176
0.0056403
-8.86393e-12
0.00586457
-8.42287e-12
0.0168001
5.87366e-10
-4.52739e-17
0.0168001
3.24755e-09
-1.69522e-16
0.0168001
1.20526e-08
-4.89843e-16
0.0168
3.0821e-08
-9.46107e-16
0.0168
8.53634e-08
-2.59006e-15
0.0168
1.92056e-07
-5.02387e-15
0.0167999
5.32778e-07
-1.55666e-14
0.0167998
1.04106e-06
-2.85591e-14
0.0167989
3.70105e-06
-1.09226e-13
0.0167988
5.89539e-06
-1.75876e-13
0.0167899
2.80594e-05
-8.01781e-13
0.0167801
5.44364e-05
-1.48558e-12
0.0167159
0.000257051
-7.08171e-12
0.0165576
0.000701401
-1.86818e-11
0.0157052
0.00396696
-6.11997e-11
0.0143525
0.00527287
1.28046e-12
0.0131191
0.00491576
-3.74144e-12
0.0118673
0.00506015
-9.92018e-12
0.0105427
0.0053524
-1.08312e-11
0.00909594
0.00578322
-1.18076e-11
0.00752336
0.00624324
-1.08292e-11
0.00582747
0.00670623
-1.00462e-11
0.00399058
0.00717486
-9.56909e-12
0.00202085
0.0076076
-9.05826e-12
0.00788311
-8.60057e-12
0.0168001
7.49788e-10
-3.69527e-17
0.0168001
4.11363e-09
-1.44899e-16
0.0168001
1.52592e-08
-4.10455e-16
0.0168
3.89945e-08
-7.74764e-16
0.0168
1.0785e-07
-2.09769e-15
0.0168
2.44356e-07
-3.83104e-15
0.0167998
6.62683e-07
-1.30144e-14
0.0167995
1.35322e-06
-1.5702e-14
0.0167986
4.48547e-06
-1.15803e-13
0.0167975
7.04676e-06
-4.93864e-14
0.0167908
3.40202e-05
-1.02991e-12
0.0167817
6.36135e-05
-1.1367e-12
0.0167388
0.000297413
-7.46485e-12
0.0166311
0.000805012
-1.83996e-11
0.0161065
0.00447007
-6.19514e-11
0.0147305
0.00665164
1.66207e-12
0.0134464
0.00620031
-3.23958e-12
0.0121771
0.00632742
-1.00949e-11
0.010865
0.00666202
-1.11414e-11
0.00942515
0.0072202
-1.23103e-11
0.00784944
0.00781628
-1.12289e-11
0.00612058
0.0084326
-1.04098e-11
0.00423385
0.00905897