/*--------------------------------*- C++ -*----------------------------------*\
| =========                 |                                                 |
| \\      /  F ield         | OpenFOAM: The Open Source CFD Toolbox           |
|  \\    /   O peration     | Version:  4.1                                   |
|   \\  /    A nd           | Web:      www.OpenFOAM.org                      |
|    \\/     M anipulation  |                                                 |
\*---------------------------------------------------------------------------*/
FoamFile
{
    version     2.0;
    format      ascii;
    class       volScalarField;
    location    "5";
    object      T;
}
// * * * * * * * * * * * * * * * * * * * * * * * * * * * * * * * * * * * * * //

dimensions      [0 0 0 1 0 0 0];

internalField   nonuniform List<scalar> 
52500
(
0.999995
1.00002
1.00004
1.00015
1.00028
1.0009
1.00168
1.00496
1.01044
1.02688
1.07287
1.16076
1.50461
2.28133
2.64577
2.73226
2.72629
2.72203
2.73687
2.7487
2.76213
2.77026
2.77693
2.78182
2.78496
0.999995
1.00002
1.00004
1.00015
1.00028
1.00089
1.00165
1.00488
1.0103
1.02645
1.07186
1.15814
1.49857
2.26908
2.6423
2.73228
2.72614
2.72165
2.73631
2.74801
2.76117
2.76899
2.77564
2.77952
2.78189
0.999995
1.00002
1.00004
1.00014
1.00027
1.00087
1.00161
1.00477
1.00999
1.0258
1.06957
1.15408
1.48069
2.23853
2.63231
2.7306
2.72428
2.71922
2.73399
2.74542
2.75883
2.76581
2.77246
2.77712
2.77837
0.999995
1.00002
1.00004
1.00014
1.00026
1.00083
1.00154
1.00458
1.00954
1.02479
1.06614
1.14786
1.45362
2.1902
2.61632
2.72749
2.72078
2.71447
2.729
2.74079
2.75442
2.76215
2.76734
2.77041
2.77375
0.999995
1.00001
1.00003
1.00013
1.00024
1.0008
1.00146
1.00446
1.00891
1.02397
1.0607
1.13958
1.41569
2.12062
2.59344
2.72249
2.71611
2.70687
2.7222
2.73111
2.74522
2.75287
2.76084
2.76459
2.76402
0.999995
1.00001
1.00003
1.00012
1.00023
1.00075
1.00136
1.00426
1.00818
1.02301
1.05405
1.12956
1.37087
2.0314
2.56223
2.71473
2.70814
2.6983
2.71455
2.72466
2.73507
2.74345
2.74782
2.75052
2.75437
0.999995
1.00001
1.00003
1.00011
1.00021
1.00068
1.00125
1.00389
1.00744
1.02121
1.04794
1.11893
1.32489
1.93066
2.51825
2.69954
2.69062
2.68027
2.69693
2.71056
2.72281
2.72836
2.73593
2.73827
2.73489
0.999995
1.00001
1.00003
1.0001
1.00019
1.00062
1.00113
1.00354
1.00673
1.01937
1.04299
1.10841
1.28954
1.84049
2.49086
2.68925
2.68113
2.66903
2.68332
2.69249
2.70596
2.71018
2.71135
2.71112
2.71131
0.999995
1.00001
1.00002
1.00009
1.00017
1.00056
1.00101
1.00318
1.00601
1.01733
1.03879
1.0953
1.26379
1.72396
2.45888
2.67675
2.65946
2.66096
2.66961
2.67462
2.68497
2.68922
2.69029
2.68411
2.65948
0.999994
1.00001
1.00002
1.00007
1.00014
1.00045
1.00086
1.00244
1.00536
1.0133
1.03621
1.07964
1.24497
1.60989
2.37381
2.64683
2.65501
2.65313
2.65389
2.66038
2.66026
2.65831
2.64928
2.62907
2.58135
1
1.00003
1.00005
1.00016
1.00029
1.00091
1.00169
1.00497
1.01045
1.0269
1.07288
1.1608
1.50465
2.28146
2.64584
2.73233
2.72636
2.72211
2.73695
2.74877
2.76221
2.77034
2.77701
2.7819
2.78504
1
1.00002
1.00005
1.00016
1.00028
1.0009
1.00166
1.00489
1.01031
1.02647
1.07187
1.15818
1.49861
2.26921
2.64237
2.73235
2.72621
2.72172
2.73639
2.74809
2.76125
2.76907
2.77572
2.7796
2.78197
1
1.00002
1.00005
1.00015
1.00028
1.00088
1.00162
1.00478
1.01
1.02582
1.06959
1.15412
1.48073
2.23866
2.63238
2.73067
2.72435
2.71929
2.73407
2.74549
2.7589
2.76589
2.77254
2.7772
2.77845
1
1.00002
1.00004
1.00015
1.00026
1.00084
1.00155
1.00459
1.00955
1.0248
1.06615
1.1479
1.45366
2.19033
2.6164
2.72755
2.72085
2.71454
2.72907
2.74086
2.7545
2.76223
2.76742
2.77048
2.77382
1
1.00002
1.00004
1.00014
1.00025
1.00081
1.00147
1.00447
1.00892
1.02399
1.0607
1.13962
1.4157
2.12072
2.59351
2.72255
2.71618
2.70694
2.72227
2.73118
2.74529
2.75294
2.76092
2.76466
2.76409
1
1.00002
1.00004
1.00013
1.00024
1.00076
1.00137
1.00427
1.00819
1.02303
1.05406
1.1296
1.37089
2.03151
2.5623
2.71479
2.70821
2.69837
2.71462
2.72473
2.73514
2.74353
2.7479
2.75059
2.75444
1
1.00002
1.00004
1.00012
1.00022
1.00069
1.00126
1.0039
1.00745
1.02123
1.04795
1.11896
1.32492
1.93077
2.51832
2.69961
2.69069
2.68034
2.697
2.71062
2.72288
2.72843
2.736
2.73834
2.73496
1
1.00002
1.00003
1.00011
1.0002
1.00063
1.00114
1.00355
1.00674
1.01938
1.04301
1.10844
1.28955
1.84058
2.49089
2.68932
2.6812
2.6691
2.68339
2.69256
2.70603
2.71024
2.71142
2.71119
2.71138
1
1.00002
1.00003
1.0001
1.00018
1.00056
1.00102
1.00319
1.00602
1.01734
1.0388
1.09533
1.26379
1.72408
2.45893
2.67681
2.65952
2.66102
2.66967
2.67469
2.68504
2.68929
2.69035
2.68418
2.65955
1
1.00001
1.00002
1.00008
1.00015
1.00046
1.00087
1.00245
1.00537
1.01331
1.03622
1.07967
1.24498
1.60996
2.37388
2.6469
2.65507
2.65318
2.65394
2.66044
2.66032
2.65838
2.64934
2.62913
2.58141
1
1.00003
1.00005
1.00016
1.00029
1.00091
1.00169
1.00497
1.01045
1.0269
1.07288
1.1608
1.50465
2.28147
2.64584
2.73233
2.72636
2.72211
2.73695
2.74877
2.76221
2.77034
2.77701
2.7819
2.78504
1
1.00002
1.00005
1.00016
1.00028
1.0009
1.00166
1.00489
1.01031
1.02647
1.07187
1.15818
1.49862
2.26921
2.64237
2.73235
2.72621
2.72172
2.73639
2.74809
2.76125
2.76907
2.77572
2.7796
2.78197
1
1.00002
1.00005
1.00015
1.00028
1.00088
1.00162
1.00478
1.01
1.02582
1.06959
1.15412
1.48074
2.23866
2.63238
2.73067
2.72435
2.71929
2.73407
2.74549
2.7589
2.76589
2.77254
2.7772
2.77845
1
1.00002
1.00004
1.00015
1.00026
1.00084
1.00155
1.00459
1.00955
1.0248
1.06615
1.1479
1.45367
2.19034
2.6164
2.72755
2.72085
2.71454
2.72907
2.74086
2.7545
2.76223
2.76742
2.77048
2.77382
1
1.00002
1.00004
1.00014
1.00025
1.00081
1.00147
1.00447
1.00892
1.02399
1.0607
1.13962
1.4157
2.12073
2.59351
2.72255
2.71618
2.70694
2.72227
2.73119
2.74529
2.75294
2.76092
2.76466
2.76409
1
1.00002
1.00004
1.00013
1.00024
1.00076
1.00137
1.00427
1.00819
1.02303
1.05406
1.1296
1.3709
2.03151
2.5623
2.71479
2.70821
2.69837
2.71462
2.72473
2.73514
2.74353
2.7479
2.75059
2.75444
1
1.00002
1.00004
1.00012
1.00022
1.00069
1.00126
1.0039
1.00745
1.02123
1.04795
1.11896
1.32493
1.93078
2.51832
2.69961
2.69069
2.68034
2.697
2.71062
2.72288
2.72843
2.736
2.73834
2.73496
1
1.00002
1.00003
1.00011
1.0002
1.00063
1.00114
1.00355
1.00674
1.01938
1.04301
1.10844
1.28955
1.84059
2.49089
2.68932
2.6812
2.6691
2.68339
2.69257
2.70603
2.71024
2.71142
2.71119
2.71138
1
1.00002
1.00003
1.0001
1.00018
1.00056
1.00102
1.00319
1.00602
1.01734
1.0388
1.09533
1.26379
1.72408
2.45893
2.67681
2.65952
2.66102
2.66967
2.67469
2.68504
2.68929
2.69035
2.68418
2.65955
1
1.00001
1.00002
1.00008
1.00015
1.00046
1.00087
1.00245
1.00537
1.01331
1.03622
1.07967
1.24498
1.60997
2.37388
2.6469
2.65506
2.65318
2.65394
2.66044
2.66032
2.65838
2.64934
2.62913
2.58141
1
1.00003
1.00005
1.00016
1.00029
1.00091
1.00169
1.00497
1.01045
1.0269
1.07288
1.1608
1.50465
2.28147
2.64584
2.73233
2.72636
2.72211
2.73695
2.74877
2.76221
2.77034
2.77701
2.7819
2.78504
1
1.00002
1.00005
1.00016
1.00028
1.0009
1.00166
1.00489
1.01031
1.02647
1.07187
1.15818
1.49862
2.26921
2.64237
2.73235
2.72621
2.72172
2.73639
2.74809
2.76125
2.76907
2.77572
2.7796
2.78197
1
1.00002
1.00005
1.00015
1.00028
1.00088
1.00162
1.00478
1.01
1.02582
1.06959
1.15412
1.48074
2.23866
2.63238
2.73067
2.72435
2.71929
2.73407
2.74549
2.7589
2.76589
2.77254
2.7772
2.77845
1
1.00002
1.00004
1.00015
1.00026
1.00084
1.00155
1.00459
1.00955
1.0248
1.06615
1.1479
1.45367
2.19034
2.6164
2.72755
2.72085
2.71454
2.72907
2.74086
2.7545
2.76223
2.76742
2.77048
2.77382
1
1.00002
1.00004
1.00014
1.00025
1.00081
1.00147
1.00447
1.00892
1.02399
1.0607
1.13962
1.4157
2.12073
2.59351
2.72255
2.71618
2.70694
2.72227
2.73119
2.74529
2.75294
2.76092
2.76466
2.76409
1
1.00002
1.00004
1.00013
1.00024
1.00076
1.00137
1.00427
1.00819
1.02303
1.05406
1.1296
1.3709
2.03151
2.5623
2.71479
2.70821
2.69837
2.71462
2.72473
2.73514
2.74353
2.7479
2.75059
2.75444
1
1.00002
1.00004
1.00012
1.00022
1.00069
1.00126
1.0039
1.00745
1.02123
1.04795
1.11896
1.32493
1.93078
2.51832
2.69961
2.69069
2.68034
2.697
2.71062
2.72288
2.72843
2.736
2.73834
2.73496
1
1.00002
1.00003
1.00011
1.0002
1.00063
1.00114
1.00355
1.00674
1.01938
1.04301
1.10844
1.28955
1.84059
2.49089
2.68932
2.6812
2.6691
2.68339
2.69257
2.70603
2.71024
2.71142
2.71119
2.71138
1
1.00002
1.00003
1.0001
1.00018
1.00056
1.00102
1.00319
1.00602
1.01734
1.0388
1.09533
1.26379
1.72408
2.45893
2.67681
2.65952
2.66102
2.66967
2.67469
2.68504
2.68929
2.69035
2.68418
2.65955
1
1.00001
1.00002
1.00008
1.00015
1.00046
1.00087
1.00245
1.00537
1.01331
1.03622
1.07967
1.24498
1.60997
2.37388
2.6469
2.65506
2.65318
2.65394
2.66044
2.66032
2.65838
2.64934
2.62913
2.58141
1
1.00003
1.00005
1.00016
1.00029
1.00091
1.00169
1.00497
1.01045
1.0269
1.07289
1.1608
1.50466
2.28147
2.64584
2.73233
2.72636
2.72211
2.73695
2.74877
2.76221
2.77034
2.77701
2.7819
2.78504
1
1.00002
1.00005
1.00016
1.00028
1.0009
1.00166
1.00489
1.01031
1.02647
1.07187
1.15818
1.49862
2.26922
2.64237
2.73235
2.72621
2.72172
2.73639
2.74809
2.76125
2.76907
2.77572
2.7796
2.78197
1
1.00002
1.00005
1.00015
1.00028
1.00088
1.00162
1.00478
1.01
1.02582
1.06959
1.15412
1.48074
2.23866
2.63238
2.73067
2.72435
2.71929
2.73407
2.74549
2.7589
2.76589
2.77254
2.7772
2.77845
1
1.00002
1.00004
1.00015
1.00026
1.00084
1.00155
1.00459
1.00955
1.0248
1.06615
1.1479
1.45367
2.19034
2.6164
2.72756
2.72085
2.71454
2.72907
2.74086
2.7545
2.76223
2.76742
2.77048
2.77382
1
1.00002
1.00004
1.00014
1.00025
1.00081
1.00147
1.00447
1.00892
1.02399
1.0607
1.13962
1.4157
2.12073
2.59351
2.72255
2.71618
2.70694
2.72227
2.73119
2.74529
2.75294
2.76092
2.76466
2.7641
1
1.00002
1.00004
1.00013
1.00024
1.00076
1.00137
1.00427
1.00819
1.02303
1.05406
1.1296
1.3709
2.03152
2.5623
2.71479
2.70821
2.69837
2.71462
2.72473
2.73514
2.74353
2.7479
2.75059
2.75445
1
1.00002
1.00004
1.00012
1.00022
1.00069
1.00126
1.0039
1.00745
1.02123
1.04795
1.11896
1.32493
1.93078
2.51832
2.69962
2.69069
2.68034
2.697
2.71062
2.72288
2.72844
2.736
2.73834
2.73496
1
1.00002
1.00003
1.00011
1.0002
1.00063
1.00114
1.00355
1.00674
1.01938
1.04301
1.10844
1.28955
1.84059
2.49089
2.68932
2.6812
2.6691
2.68339
2.69257
2.70603
2.71024
2.71142
2.71119
2.71138
1
1.00002
1.00003
1.0001
1.00018
1.00056
1.00102
1.00319
1.00602
1.01734
1.0388
1.09533
1.26379
1.72409
2.45893
2.67681
2.65952
2.66102
2.66967
2.67469
2.68504
2.68929
2.69035
2.68418
2.65955
1
1.00001
1.00002
1.00008
1.00015
1.00046
1.00087
1.00245
1.00537
1.01331
1.03622
1.07967
1.24498
1.60997
2.37389
2.6469
2.65506
2.65318
2.65394
2.66044
2.66032
2.65838
2.64934
2.62913
2.58141
1
1.00003
1.00005
1.00016
1.00029
1.00091
1.00169
1.00497
1.01045
1.0269
1.07289
1.1608
1.50466
2.28147
2.64584
2.73233
2.72636
2.72211
2.73695
2.74877
2.76221
2.77034
2.77701
2.7819
2.78504
1
1.00002
1.00005
1.00016
1.00028
1.0009
1.00166
1.00489
1.01031
1.02647
1.07187
1.15818
1.49862
2.26922
2.64237
2.73235
2.72621
2.72172
2.73639
2.74809
2.76125
2.76907
2.77572
2.7796
2.78197
1
1.00002
1.00005
1.00015
1.00028
1.00088
1.00162
1.00478
1.01
1.02582
1.06959
1.15412
1.48074
2.23867
2.63238
2.73067
2.72435
2.71929
2.73407
2.74549
2.7589
2.76589
2.77254
2.7772
2.77845
1
1.00002
1.00004
1.00015
1.00026
1.00084
1.00155
1.00459
1.00955
1.0248
1.06615
1.1479
1.45367
2.19034
2.6164
2.72756
2.72085
2.71454
2.72907
2.74086
2.7545
2.76223
2.76742
2.77048
2.77382
1
1.00002
1.00004
1.00014
1.00025
1.00081
1.00147
1.00447
1.00892
1.02399
1.0607
1.13962
1.4157
2.12073
2.59351
2.72255
2.71618
2.70694
2.72227
2.73119
2.74529
2.75294
2.76092
2.76466
2.7641
1
1.00002
1.00004
1.00013
1.00024
1.00076
1.00137
1.00427
1.00819
1.02303
1.05406
1.1296
1.3709
2.03152
2.5623
2.71479
2.70821
2.69837
2.71462
2.72473
2.73514
2.74353
2.7479
2.75059
2.75445
1
1.00002
1.00004
1.00012
1.00022
1.00069
1.00126
1.0039
1.00745
1.02123
1.04795
1.11896
1.32493
1.93078
2.51832
2.69962
2.69069
2.68034
2.697
2.71062
2.72288
2.72844
2.736
2.73834
2.73496
1
1.00002
1.00003
1.00011
1.0002
1.00063
1.00114
1.00355
1.00674
1.01938
1.04301
1.10844
1.28955
1.84059
2.49089
2.68932
2.6812
2.6691
2.68339
2.69257
2.70603
2.71024
2.71142
2.71119
2.71138
1
1.00002
1.00003
1.0001
1.00018
1.00056
1.00102
1.00319
1.00602
1.01734
1.0388
1.09533
1.26379
1.72409
2.45893
2.67681
2.65952
2.66102
2.66967
2.67469
2.68504
2.68929
2.69035
2.68418
2.65955
1
1.00001
1.00002
1.00008
1.00015
1.00046
1.00087
1.00245
1.00537
1.01331
1.03622
1.07967
1.24498
1.60997
2.37389
2.6469
2.65506
2.65318
2.65394
2.66044
2.66032
2.65838
2.64934
2.62913
2.58141
1
1.00003
1.00005
1.00016
1.00029
1.00091
1.00169
1.00497
1.01045
1.0269
1.07288
1.1608
1.50465
2.28147
2.64584
2.73233
2.72636
2.72211
2.73695
2.74877
2.76221
2.77034
2.77701
2.7819
2.78504
1
1.00002
1.00005
1.00016
1.00028
1.0009
1.00166
1.00489
1.01031
1.02647
1.07187
1.15818
1.49862
2.26921
2.64237
2.73235
2.72621
2.72172
2.73639
2.74809
2.76125
2.76907
2.77572
2.7796
2.78197
1
1.00002
1.00005
1.00015
1.00028
1.00088
1.00162
1.00478
1.01
1.02582
1.06959
1.15412
1.48074
2.23866
2.63238
2.73067
2.72435
2.71929
2.73407
2.74549
2.7589
2.76589
2.77254
2.7772
2.77845
1
1.00002
1.00004
1.00015
1.00026
1.00084
1.00155
1.00459
1.00955
1.0248
1.06615
1.1479
1.45367
2.19034
2.6164
2.72755
2.72085
2.71454
2.72907
2.74086
2.7545
2.76223
2.76742
2.77048
2.77382
1
1.00002
1.00004
1.00014
1.00025
1.00081
1.00147
1.00447
1.00892
1.02399
1.0607
1.13962
1.4157
2.12073
2.59351
2.72255
2.71618
2.70694
2.72227
2.73119
2.74529
2.75294
2.76092
2.76466
2.76409
1
1.00002
1.00004
1.00013
1.00024
1.00076
1.00137
1.00427
1.00819
1.02303
1.05406
1.1296
1.3709
2.03151
2.5623
2.71479
2.70821
2.69837
2.71462
2.72473
2.73514
2.74353
2.7479
2.75059
2.75444
1
1.00002
1.00004
1.00012
1.00022
1.00069
1.00126
1.0039
1.00745
1.02123
1.04795
1.11896
1.32493
1.93078
2.51832
2.69961
2.69069
2.68034
2.697
2.71062
2.72288
2.72843
2.736
2.73834
2.73496
1
1.00002
1.00003
1.00011
1.0002
1.00063
1.00114
1.00355
1.00674
1.01938
1.04301
1.10844
1.28955
1.84059
2.49089
2.68932
2.6812
2.6691
2.68339
2.69257
2.70603
2.71024
2.71142
2.71119
2.71138
1
1.00002
1.00003
1.0001
1.00018
1.00056
1.00102
1.00319
1.00602
1.01734
1.0388
1.09533
1.26379
1.72408
2.45893
2.67681
2.65952
2.66102
2.66967
2.67469
2.68504
2.68929
2.69035
2.68418
2.65955
1
1.00001
1.00002
1.00008
1.00015
1.00046
1.00087
1.00245
1.00537
1.01331
1.03622
1.07967
1.24498
1.60997
2.37388
2.6469
2.65506
2.65318
2.65394
2.66044
2.66032
2.65838
2.64934
2.62913
2.58141
1
1.00003
1.00005
1.00016
1.00029
1.00091
1.00169
1.00497
1.01045
1.0269
1.07288
1.1608
1.50465
2.28147
2.64584
2.73233
2.72636
2.72211
2.73695
2.74877
2.76221
2.77034
2.77701
2.7819
2.78504
1
1.00002
1.00005
1.00016
1.00028
1.0009
1.00166
1.00489
1.01031
1.02647
1.07187
1.15818
1.49862
2.26921
2.64237
2.73235
2.72621
2.72172
2.73639
2.74809
2.76125
2.76907
2.77572
2.7796
2.78197
1
1.00002
1.00005
1.00015
1.00028
1.00088
1.00162
1.00478
1.01
1.02582
1.06959
1.15412
1.48074
2.23866
2.63238
2.73067
2.72435
2.71929
2.73407
2.74549
2.7589
2.76589
2.77254
2.7772
2.77845
1
1.00002
1.00004
1.00015
1.00026
1.00084
1.00155
1.00459
1.00955
1.0248
1.06615
1.1479
1.45367
2.19034
2.6164
2.72755
2.72085
2.71454
2.72907
2.74086
2.7545
2.76223
2.76742
2.77048
2.77382
1
1.00002
1.00004
1.00014
1.00025
1.00081
1.00147
1.00447
1.00892
1.02399
1.0607
1.13962
1.4157
2.12073
2.59351
2.72255
2.71618
2.70694
2.72227
2.73119
2.74529
2.75294
2.76092
2.76466
2.76409
1
1.00002
1.00004
1.00013
1.00024
1.00076
1.00137
1.00427
1.00819
1.02303
1.05406
1.1296
1.3709
2.03151
2.5623
2.71479
2.70821
2.69837
2.71462
2.72473
2.73514
2.74353
2.7479
2.75059
2.75444
1
1.00002
1.00004
1.00012
1.00022
1.00069
1.00126
1.0039
1.00745
1.02123
1.04795
1.11896
1.32493
1.93078
2.51832
2.69961
2.69069
2.68034
2.697
2.71062
2.72288
2.72843
2.736
2.73834
2.73496
1
1.00002
1.00003
1.00011
1.0002
1.00063
1.00114
1.00355
1.00674
1.01938
1.04301
1.10844
1.28955
1.84059
2.49089
2.68932
2.6812
2.6691
2.68339
2.69257
2.70603
2.71024
2.71142
2.71119
2.71138
1
1.00002
1.00003
1.0001
1.00018
1.00056
1.00102
1.00319
1.00602
1.01734
1.0388
1.09533
1.26379
1.72408
2.45893
2.67681
2.65952
2.66102
2.66967
2.67469
2.68504
2.68929
2.69035
2.68418
2.65955
1
1.00001
1.00002
1.00008
1.00015
1.00046
1.00087
1.00245
1.00537
1.01331
1.03622
1.07967
1.24498
1.60997
2.37388
2.6469
2.65506
2.65318
2.65394
2.66044
2.66032
2.65838
2.64934
2.62913
2.58141
1
1.00003
1.00005
1.00016
1.00029
1.00091
1.00169
1.00497
1.01045
1.0269
1.07288
1.1608
1.50465
2.28146
2.64584
2.73233
2.72636
2.72211
2.73695
2.74877
2.76221
2.77034
2.77701
2.7819
2.78504
1
1.00002
1.00005
1.00016
1.00028
1.0009
1.00166
1.00489
1.01031
1.02647
1.07187
1.15818
1.49861
2.26921
2.64237
2.73235
2.72621
2.72172
2.73639
2.74809
2.76125
2.76907
2.77572
2.7796
2.78197
1
1.00002
1.00005
1.00015
1.00028
1.00088
1.00162
1.00478
1.01
1.02582
1.06959
1.15412
1.48073
2.23866
2.63238
2.73067
2.72435
2.71929
2.73407
2.74549
2.7589
2.76589
2.77254
2.7772
2.77845
1
1.00002
1.00004
1.00015
1.00026
1.00084
1.00155
1.00459
1.00955
1.0248
1.06615
1.1479
1.45366
2.19033
2.6164
2.72755
2.72085
2.71454
2.72907
2.74086
2.7545
2.76223
2.76742
2.77048
2.77382
1
1.00002
1.00004
1.00014
1.00025
1.00081
1.00147
1.00447
1.00892
1.02399
1.0607
1.13962
1.4157
2.12072
2.59351
2.72255
2.71618
2.70694
2.72227
2.73118
2.74529
2.75294
2.76092
2.76466
2.76409
1
1.00002
1.00004
1.00013
1.00024
1.00076
1.00137
1.00427
1.00819
1.02303
1.05406
1.1296
1.37089
2.03151
2.5623
2.71479
2.70821
2.69837
2.71462
2.72473
2.73514
2.74353
2.7479
2.75059
2.75444
1
1.00002
1.00004
1.00012
1.00022
1.00069
1.00126
1.0039
1.00745
1.02123
1.04795
1.11896
1.32492
1.93077
2.51832
2.69961
2.69069
2.68034
2.697
2.71062
2.72288
2.72843
2.736
2.73834
2.73496
1
1.00002
1.00003
1.00011
1.0002
1.00063
1.00114
1.00355
1.00674
1.01938
1.04301
1.10844
1.28955
1.84058
2.49089
2.68932
2.6812
2.6691
2.68339
2.69256
2.70603
2.71024
2.71142
2.71119
2.71138
1
1.00002
1.00003
1.0001
1.00018
1.00056
1.00102
1.00319
1.00602
1.01734
1.0388
1.09533
1.26379
1.72408
2.45893
2.67681
2.65952
2.66102
2.66967
2.67469
2.68504
2.68929
2.69035
2.68418
2.65955
1
1.00001
1.00002
1.00008
1.00015
1.00046
1.00087
1.00245
1.00537
1.01331
1.03622
1.07967
1.24498
1.60996
2.37388
2.6469
2.65507
2.65318
2.65394
2.66044
2.66032
2.65838
2.64934
2.62913
2.58141
0.999995
1.00002
1.00004
1.00015
1.00028
1.0009
1.00168
1.00496
1.01044
1.02688
1.07287
1.16076
1.50461
2.28133
2.64577
2.73226
2.72629
2.72203
2.73687
2.7487
2.76213
2.77026
2.77693
2.78182
2.78496
0.999995
1.00002
1.00004
1.00015
1.00028
1.00089
1.00165
1.00488
1.0103
1.02645
1.07186
1.15814
1.49857
2.26908
2.6423
2.73228
2.72614
2.72165
2.73631
2.74801
2.76117
2.76899
2.77564
2.77952
2.78189
0.999995
1.00002
1.00004
1.00014
1.00027
1.00087
1.00161
1.00477
1.00999
1.0258
1.06957
1.15408
1.48069
2.23853
2.63231
2.7306
2.72428
2.71922
2.73399
2.74542
2.75883
2.76581
2.77246
2.77712
2.77837
0.999995
1.00002
1.00004
1.00014
1.00026
1.00083
1.00154
1.00458
1.00954
1.02479
1.06614
1.14786
1.45362
2.1902
2.61632
2.72749
2.72078
2.71447
2.729
2.74079
2.75442
2.76215
2.76734
2.77041
2.77375
0.999995
1.00001
1.00003
1.00013
1.00024
1.0008
1.00146
1.00446
1.00891
1.02397
1.0607
1.13958
1.41569
2.12062
2.59344
2.72249
2.71611
2.70687
2.7222
2.73111
2.74522
2.75287
2.76084
2.76459
2.76402
0.999995
1.00001
1.00003
1.00012
1.00023
1.00075
1.00136
1.00426
1.00818
1.02301
1.05405
1.12956
1.37087
2.0314
2.56223
2.71473
2.70814
2.6983
2.71455
2.72466
2.73507
2.74345
2.74782
2.75052
2.75437
0.999995
1.00001
1.00003
1.00011
1.00021
1.00068
1.00125
1.00389
1.00744
1.02121
1.04794
1.11893
1.32489
1.93066
2.51825
2.69954
2.69062
2.68027
2.69693
2.71056
2.72281
2.72836
2.73593
2.73827
2.73489
0.999995
1.00001
1.00003
1.0001
1.00019
1.00062
1.00113
1.00354
1.00673
1.01937
1.04299
1.10841
1.28954
1.84049
2.49086
2.68925
2.68113
2.66903
2.68332
2.69249
2.70596
2.71018
2.71135
2.71112
2.71131
0.999995
1.00001
1.00002
1.00009
1.00017
1.00056
1.00101
1.00318
1.00601
1.01733
1.03879
1.0953
1.26379
1.72396
2.45888
2.67675
2.65946
2.66096
2.66961
2.67462
2.68497
2.68922
2.69029
2.68411
2.65948
0.999994
1.00001
1.00002
1.00007
1.00014
1.00045
1.00086
1.00244
1.00536
1.0133
1.03621
1.07964
1.24497
1.60989
2.37381
2.64683
2.65501
2.65313
2.65389
2.66038
2.66026
2.65831
2.64928
2.62907
2.58135
0.999996
1
1.00002
1.00005
1.00017
1.00032
1.00099
1.0019
1.00541
1.0119
1.02986
1.08253
1.18158
1.55602
2.34816
2.58794
2.64085
2.63593
2.6353
2.64031
2.63983
2.63244
2.61132
2.55979
2.37562
0.999996
1
1.00002
1.00004
1.00015
1.00027
1.00087
1.00162
1.00477
1.01003
1.02579
1.06957
1.15378
1.47793
2.22279
2.54415
2.63507
2.62678
2.61448
2.61231
2.60765
2.59272
2.5596
2.49853
2.31032
0.999995
0.999999
1.00002
1.00003
1.00013
1.00023
1.00076
1.00138
1.00432
1.00833
1.02305
1.05555
1.13076
1.3789
2.03195
2.46849
2.62083
2.61359
2.60237
2.59244
2.58408
2.56546
2.52201
2.46287
2.30519
0.999995
0.999998
1.00001
1.00003
1.0001
1.00019
1.00063
1.00114
1.00357
1.00676
1.01951
1.04261
1.10908
1.28194
1.82698
2.36709
2.58416
2.57943
2.57553
2.56258
2.5478
2.52484
2.48456
2.43827
2.31911
0.999995
0.999997
1.00001
1.00002
1.00008
1.00015
1.0005
1.00093
1.00285
1.0055
1.01547
1.03522
1.08576
1.2351
1.64435
2.29606
2.5504
2.55773
2.5564
2.54844
2.52921
2.50335
2.44545
2.40603
2.32108
0.999994
0.999997
1
1.00002
1.00005
1.00016
1.0003
1.00093
1.00179
1.00498
1.01117
1.02737
1.07666
1.16493
1.51926
2.23655
2.47008
2.52413
2.51701
2.5143
2.50445
2.48582
2.43797
2.38324
2.31651
0.999994
0.999996
0.999999
1.00002
1.00004
1.00013
1.00024
1.00078
1.00143
1.00436
1.00865
1.02325
1.05831
1.13371
1.39324
2.04135
2.40824
2.5129
2.50396
2.4939
2.47118
2.45219
2.41981
2.37264
2.31179
0.999993
0.999995
0.999998
1.00001
1.00003
1.0001
1.00019
1.0006
1.00111
1.00342
1.00657
1.01869
1.04138
1.10536
1.27078
1.80354
2.26452
2.47449
2.47693
2.47169
2.4568
2.43077
2.39671
2.35327
2.29998
0.999993
0.999994
0.999997
1
1.00002
1.00005
1.00018
1.00034
1.00106
1.00201
1.00579
1.01229
1.03143
1.08379
1.18777
1.54181
2.2211
2.42096
2.44359
2.43585
2.42661
2.40911
2.3834
2.34548
2.29635
0.999992
0.999993
0.999996
0.999999
1.00002
1.00004
1.00013
1.00025
1.0008
1.0015
1.00433
1.00922
1.02337
1.06267
1.13871
1.41761
2.06599
2.35577
2.4247
2.41765
2.40095
2.37595
2.35225
2.32645
2.28742
0.999992
0.999993
0.999994
0.999999
1.00001
1.00003
1.00007
1.00023
1.00044
1.00128
1.00268
1.00688
1.01732
1.03979
1.11479
1.25602
1.73027
2.21268
2.39523
2.39692
2.38762
2.3664
2.33616
2.30726
2.2772
0.999992
0.999992
0.999993
0.999997
1
1.00002
1.00005
1.00017
1.00032
1.00102
1.00189
1.00558
1.01151
1.02986
1.07818
1.1747
1.50182
2.1262
2.33475
2.36416
2.35825
2.34381
2.3182
2.28696
2.25566
0.999991
0.999992
0.999993
0.999994
1
1.00001
1.00004
1.00009
1.00028
1.00054
1.00153
1.00333
1.00827
1.02179
1.04888
1.14375
1.32117
1.8777
2.24182
2.34242
2.34049
2.33023
2.30921
2.28008
2.24549
0.999991
0.999991
0.999992
0.999993
0.999998
1
1.00003
1.00006
1.00021
1.00039
1.00123
1.00226
1.00679
1.01351
1.03603
1.0859
1.21545
1.52804
2.11779
2.28852
2.30359
2.30055
2.28701
2.2645
2.2355
0.999991
0.999991
0.999991
0.999993
0.999994
1
1.00001
1.00005
1.00011
1.00034
1.00064
1.00194
1.00377
1.01033
1.02358
1.05665
1.15474
1.37277
1.89865
2.22212
2.28488
2.28296
2.2706
2.2504
2.22403
0.999991
0.999991
0.999991
0.999992
0.999993
0.999999
1
1.00003
1.00007
1.00023
1.00043
1.00135
1.00251
1.00727
1.01518
1.03858
1.10021
1.23068
1.60096
2.06265
2.24281
2.25347
2.24818
2.23304
2.20897
0.999991
0.999991
0.999991
0.999991
0.999993
0.999995
1
1.00001
1.00006
1.00012
1.00037
1.0007
1.00211
1.00409
1.01141
1.02496
1.06202
1.15614
1.41435
1.89456
2.17284
2.22849
2.22705
2.21505
2.19501
0.999991
0.999991
0.999991
0.999991
0.999992
0.999993
0.999999
1.00001
1.00004
1.00007
1.00025
1.00046
1.00141
1.00263
1.00761
1.01584
1.04026
1.10321
1.2406
1.61349
2.02434
2.18492
2.20186
2.19724
2.18391
0.999991
0.999991
0.999991
0.999991
0.999991
0.999993
0.999995
1
1.00001
1.00006
1.00012
1.00038
1.00072
1.00213
1.00418
1.01157
1.02484
1.06475
1.15006
1.43962
1.84291
2.09976
2.1627
2.16933
2.16419
0.999991
0.999991
0.999991
0.999991
0.999991
0.999992
0.999994
0.999997
1.00001
1.00003
1.0001
1.00019
1.00058
1.00109
1.00321
1.00629
1.0171
1.0386
1.093
1.23956
1.64036
1.97781
2.11991
2.1382
2.1365
0.999991
0.999991
0.999991
0.999991
0.999991
0.999991
0.999993
0.999995
1
1.00001
1.00006
1.00012
1.00037
1.00068
1.00208
1.00392
1.01119
1.02309
1.06045
1.1399
1.38953
1.79135
2.04772
2.10802
2.1153
0.999991
0.999991
0.999991
0.999991
0.999991
0.999991
0.999992
0.999994
0.999997
1.00001
1.00002
1.00009
1.00017
1.00053
1.001
1.00292
1.00571
1.0155
1.03427
1.08423
1.20736
1.56513
1.90756
2.07004
2.08246
0.999991
0.999991
0.999991
0.999991
0.999991
0.999991
0.999991
0.999993
0.999994
1
1.00001
1.00005
1.0001
1.00033
1.00061
1.00187
1.00345
1.01
1.0203
1.05171
1.12477
1.3114
1.73453
1.99438
2.06222
0.999991
0.999991
0.999991
0.999991
0.999991
0.999991
0.999991
0.999992
0.999993
0.999997
1
1.00003
1.00006
1.0002
1.00036
1.00111
1.00204
1.006
1.01165
1.03116
1.07003
1.17286
1.41871
1.837
2.01277
0.999991
0.999991
0.999991
0.999991
0.999991
0.999991
0.999991
0.999991
0.999992
0.999995
0.999998
1.00001
1.00003
1.00011
1.00021
1.00067
1.00123
1.00366
1.00703
1.01898
1.0437
1.10067
1.27375
1.68197
1.91526
0.999991
0.999991
0.999991
0.999991
0.999991
0.999991
0.999991
0.999991
0.999992
0.999993
0.999996
1
1.00002
1.00005
1.00016
1.0003
1.00089
1.0017
1.0048
1.00987
1.02511
1.06197
1.13957
1.37057
1.79416
0.999991
0.999991
0.999991
0.999991
0.999991
0.999991
0.999991
0.999991
0.999991
0.999992
0.999993
0.999998
1
1.00003
1.00007
1.00022
1.00041
1.00121
1.00233
1.00641
1.01367
1.03369
1.08573
1.19195
1.49374
0.999991
0.999991
0.999991
0.999991
0.999991
0.999991
0.999991
0.999991
0.999991
0.999991
0.999993
0.999994
1
1.00001
1.00005
1.0001
1.0003
1.00057
1.00167
1.00323
1.00888
1.01883
1.04722
1.11094
1.29037
0.999991
0.999991
0.999991
0.999991
0.999991
0.999991
0.999991
0.999991
0.999991
0.999991
0.999992
0.999993
0.999997
1
1.00002
1.00005
1.00017
1.00032
1.00097
1.00179
1.00521
1.01017
1.02706
1.0601
1.14817
0.999991
0.999991
0.999991
0.999991
0.999991
0.999991
0.999991
0.999991
0.999991
0.999991
0.999991
0.999992
0.999993
0.999999
1.00001
1.00003
1.00007
1.00022
1.00042
1.00124
1.00238
1.00663
1.01362
1.03441
1.08075
0.999991
0.999991
0.999991
0.999991
0.999991
0.999991
0.999991
0.999991
0.999991
0.999991
0.999991
0.999991
0.999993
0.999994
1
1.00001
1.00005
1.0001
1.0003
1.00057
1.00164
1.0032
1.0087
1.01813
1.04681
0.999991
0.999991
0.999991
0.999991
0.999991
0.999991
0.999991
0.999991
0.999991
0.999991
0.999991
0.999991
0.999992
0.999993
0.999995
1
1.00002
1.00007
1.00013
1.0004
1.00076
1.00218
1.00425
1.01151
1.02409
0.999991
0.999991
0.999991
0.999991
0.999991
0.999991
0.999991
0.999991
0.999991
0.999991
0.999991
0.999991
0.999991
0.999992
0.999994
0.999999
1.00001
1.00004
1.00007
1.00024
1.00045
1.00132
1.00249
1.00695
1.014
0.999991
0.999991
0.999991
0.999991
0.999991
0.999991
0.999991
0.999991
0.999991
0.999991
0.999991
0.999991
0.999991
0.999991
0.999993
0.999995
1
1.00002
1.00006
1.00013
1.00039
1.00073
1.00216
1.00422
1.01143
0.999991
0.999991
0.999991
0.999991
0.999991
0.999991
0.999991
0.999991
0.999991
0.999991
0.999991
0.999991
0.999991
0.999991
0.999992
0.999995
0.999999
1.00002
1.00004
1.00013
1.00025
1.00077
1.00151
1.00416
1.00942
0.999991
0.999991
0.999991
0.999991
0.999991
0.999991
0.999991
0.999991
0.999991
0.999991
0.999991
0.999991
0.999991
0.999991
0.999992
0.999994
1
1.00001
1.00004
1.00009
1.00026
1.00056
1.00145
1.00366
1.00838
0.999991
0.999991
0.999991
0.999991
0.999991
0.999991
0.999991
0.999991
0.999991
0.999991
0.999991
0.999991
0.999991
0.999991
0.999992
0.999995
0.999998
1.00001
1.00003
1.00012
1.00022
1.00071
1.00139
1.00392
1.0089
0.999991
0.999991
0.999991
0.999991
0.999991
0.999991
0.999991
0.999991
0.999991
0.999991
0.999991
0.999991
0.999991
0.999991
0.999992
0.999994
0.999997
1.00001
1.00003
1.00011
1.00022
1.0007
1.00137
1.00382
1.00885
0.999991
0.999991
0.999991
0.999991
0.999991
0.999991
0.999991
0.999991
0.999991
0.999991
0.999991
0.999991
0.999991
0.999991
0.999992
0.999993
0.999999
1.00001
1.00004
1.00008
1.00027
1.00053
1.00148
1.00345
1.00837
0.999991
0.999991
0.999991
0.999991
0.999991
0.999991
0.999991
0.999991
0.999991
0.999991
0.999991
0.999991
0.999991
0.999991
0.999992
0.999993
1
1.00001
1.00004
1.00008
1.00029
1.00054
1.00166
1.00336
1.00901
1
1.00001
1.00003
1.00006
1.00018
1.00032
1.001
1.00191
1.00542
1.01191
1.02987
1.08254
1.18162
1.55604
2.34826
2.58802
2.64091
2.63599
2.63535
2.64037
2.63989
2.6325
2.61138
2.55984
2.37566
1
1.00001
1.00003
1.00005
1.00016
1.00028
1.00088
1.00163
1.00478
1.01004
1.0258
1.06959
1.15382
1.47796
2.22289
2.54423
2.63513
2.62684
2.61453
2.61236
2.6077
2.59278
2.55965
2.49858
2.31037
1
1.00001
1.00002
1.00004
1.00013
1.00024
1.00077
1.00139
1.00433
1.00834
1.02307
1.05555
1.13079
1.3789
2.03203
2.46856
2.62089
2.61365
2.60242
2.59249
2.58413
2.56551
2.52206
2.46291
2.30523
1
1.00001
1.00002
1.00003
1.00011
1.0002
1.00064
1.00115
1.00358
1.00677
1.01952
1.04262
1.10911
1.28196
1.82704
2.36716
2.58423
2.57949
2.57558
2.56262
2.54784
2.52489
2.48461
2.43832
2.31915
1
1
1.00002
1.00003
1.00009
1.00016
1.00051
1.00094
1.00286
1.00551
1.01548
1.03523
1.08578
1.23511
1.64443
2.29612
2.55047
2.55779
2.55645
2.54849
2.52926
2.50339
2.44549
2.40607
2.32112
1
1
1.00001
1.00003
1.00005
1.00017
1.00031
1.00094
1.0018
1.00499
1.01118
1.02738
1.07668
1.16496
1.51929
2.23664
2.47015
2.52418
2.51706
2.51435
2.5045
2.48586
2.43801
2.38328
2.31655
1
1
1.00001
1.00002
1.00004
1.00014
1.00025
1.00079
1.00144
1.00437
1.00866
1.02327
1.05831
1.13374
1.39323
2.04142
2.40831
2.51295
2.50401
2.49395
2.47123
2.45224
2.41985
2.37268
2.31183
1
1
1.00001
1.00002
1.00003
1.00011
1.0002
1.00061
1.00112
1.00343
1.00658
1.0187
1.0414
1.10539
1.2708
1.80363
2.26458
2.47455
2.47698
2.47174
2.45685
2.43082
2.39675
2.3533
2.30002
1
1
1.00001
1.00001
1.00003
1.00006
1.00019
1.00035
1.00107
1.00202
1.0058
1.0123
1.03145
1.0838
1.18782
1.54185
2.22117
2.42101
2.44364
2.4359
2.42665
2.40915
2.38344
2.34552
2.29639
1
1
1
1.00001
1.00003
1.00005
1.00014
1.00026
1.00081