/*--------------------------------*- C++ -*----------------------------------*\
| =========                 |                                                 |
| \\      /  F ield         | OpenFOAM: The Open Source CFD Toolbox           |
|  \\    /   O peration     | Version:  4.1                                   |
|   \\  /    A nd           | Web:      www.OpenFOAM.org                      |
|    \\/     M anipulation  |                                                 |
\*---------------------------------------------------------------------------*/
FoamFile
{
    version     2.0;
    format      ascii;
    class       volVectorField;
    location    "5";
    object      U;
}
// * * * * * * * * * * * * * * * * * * * * * * * * * * * * * * * * * * * * * //

dimensions      [0 1 -1 0 0 0 0];

internalField   nonuniform List<vector> 
52500
(
(3 1.40594e-08 -0.00571425)
(2.99998 7.78183e-08 -0.00571439)
(2.99996 2.91398e-07 -0.00571459)
(2.9999 7.49056e-07 -0.00571521)
(2.99977 2.08337e-06 -0.00571636)
(2.99939 4.79618e-06 -0.00571984)
(2.99866 1.26192e-05 -0.00572669)
(2.99633 2.86207e-05 -0.0057449)
(2.99235 7.479e-05 -0.00579108)
(2.97699 0.000165446 -0.00587995)
(2.95041 0.000473804 -0.00623601)
(2.8472 0.00107808 -0.00671486)
(2.57199 0.00328096 -0.0091884)
(1.89964 0.00838013 -0.0137727)
(0.851607 0.0239332 -0.0175813)
(0.459854 0.022889 -0.0185122)
(0.542519 0.02364 -0.0185243)
(0.566636 0.0257121 -0.0185586)
(0.514634 0.0277163 -0.0187463)
(0.424922 0.0296601 -0.0189287)
(0.338479 0.032019 -0.0191268)
(0.268646 0.0348848 -0.0192908)
(0.199109 0.0379749 -0.0194509)
(0.119616 0.0416239 -0.0196054)
(0.0524465 0.0468352 -0.0197554)
(3 3.99491e-08 -0.00571425)
(2.99998 2.20775e-07 -0.00571438)
(2.99996 8.2593e-07 -0.00571458)
(2.9999 2.11313e-06 -0.0057152)
(2.99977 5.87431e-06 -0.00571633)
(2.99939 1.34043e-05 -0.00571975)
(2.99868 3.5749e-05 -0.00572651)
(2.99638 7.80684e-05 -0.00574439)
(2.99246 0.000219376 -0.00578998)
(2.97732 0.00045731 -0.00587713)
(2.95119 0.00141704 -0.00622839)
(2.84934 0.00307452 -0.00669726)
(2.57874 0.0108216 -0.00914211)
(1.91496 0.0264352 -0.0136665)
(0.859175 0.0741581 -0.0174634)
(0.454667 0.0671173 -0.0184368)
(0.540634 0.0660111 -0.0184485)
(0.565879 0.069601 -0.0184743)
(0.513543 0.0729911 -0.0186541)
(0.423811 0.076256 -0.0188297)
(0.337506 0.0801567 -0.0190199)
(0.267277 0.0846487 -0.0191752)
(0.196834 0.0888828 -0.0193284)
(0.116173 0.0930811 -0.0194689)
(0.0488082 0.0973752 -0.0196038)
(3 6.36461e-08 -0.00571425)
(2.99998 3.51218e-07 -0.00571438)
(2.99996 1.31574e-06 -0.00571457)
(2.9999 3.36039e-06 -0.00571517)
(2.99977 9.36782e-06 -0.00571627)
(2.99941 2.13174e-05 -0.00571961)
(2.99871 5.74415e-05 -0.00572616)
(2.99648 0.000123514 -0.00574365)
(2.99267 0.000360521 -0.00578766)
(2.97797 0.000732536 -0.00587296)
(2.95265 0.00236893 -0.00621199)
(2.85436 0.00501656 -0.00667024)
(2.59391 0.0189178 -0.00901675)
(1.95021 0.0454629 -0.0134382)
(0.881229 0.1287 -0.0172773)
(0.451194 0.114398 -0.0183418)
(0.542806 0.110874 -0.0183545)
(0.570304 0.11694 -0.01837)
(0.517609 0.123203 -0.0185439)
(0.428147 0.129912 -0.0187103)
(0.342183 0.137263 -0.0188949)
(0.271461 0.14533 -0.0190376)
(0.199844 0.153204 -0.0191843)
(0.117626 0.160466 -0.0193246)
(0.0484071 0.165913 -0.0194491)
(3 8.08521e-08 -0.00571425)
(2.99999 4.46001e-07 -0.00571437)
(2.99996 1.66809e-06 -0.00571456)
(2.9999 4.24374e-06 -0.00571513)
(2.99978 1.18212e-05 -0.00571619)
(2.99943 2.66799e-05 -0.00571939)
(2.99876 7.31474e-05 -0.00572565)
(2.99664 0.000149211 -0.0057425)
(2.99297 0.000483194 -0.00578426)
(2.97897 0.000866843 -0.00586656)
(2.95485 0.00339079 -0.00618743)
(2.86196 0.00670527 -0.00662952)
(2.61689 0.0264771 -0.00883016)
(2.00446 0.0633991 -0.0130945)
(0.915629 0.182122 -0.0170314)
(0.447526 0.161764 -0.0182329)
(0.547972 0.155437 -0.0182437)
(0.579525 0.163845 -0.018244)
(0.526856 0.173109 -0.0184096)
(0.43799 0.183817 -0.0185701)
(0.35234 0.195002 -0.0187481)
(0.281154 0.207049 -0.0188879)
(0.208173 0.219153 -0.0190172)
(0.123357 0.230228 -0.019142)
(0.0502566 0.23741 -0.0192817)
(3 9.80095e-08 -0.00571425)
(2.99999 5.4142e-07 -0.00571437)
(2.99997 2.01782e-06 -0.00571454)
(2.99991 5.1336e-06 -0.00571509)
(2.99979 1.42253e-05 -0.0057161)
(2.99946 3.20268e-05 -0.00571917)
(2.99881 8.77625e-05 -0.00572506)
(2.99682 0.000174665 -0.0057417)
(2.99327 0.000595894 -0.00577963)
(2.98036 0.000935787 -0.00586179)
(2.95764 0.004361 -0.00614849)
(2.87201 0.00805348 -0.00657871)
(2.64782 0.0328026 -0.00856915)
(2.07816 0.0784487 -0.0126204)
(0.966472 0.230504 -0.0167163)
(0.450347 0.209536 -0.0181012)
(0.559233 0.2008 -0.0181136)
(0.595436 0.210549 -0.0180892)
(0.542782 0.222186 -0.0182548)
(0.454546 0.236913 -0.018388)
(0.368762 0.252301 -0.0185604)
(0.296679 0.268978 -0.0186912)
(0.221697 0.286156 -0.018831)
(0.133149 0.302002 -0.0189543)
(0.0544564 0.311731 -0.0190693)
(3 1.23299e-07 -0.00571425)
(2.99999 6.81457e-07 -0.00571436)
(2.99997 2.54278e-06 -0.00571452)
(2.99991 6.51077e-06 -0.00571504)
(2.99981 1.80336e-05 -0.00571598)
(2.9995 4.11121e-05 -0.00571887)
(2.99888 0.000109797 -0.00572434)
(2.99706 0.000234768 -0.0057404)
(2.99361 0.000700502 -0.00577416)
(2.98205 0.00126257 -0.0058562)
(2.96094 0.00490842 -0.00610089)
(2.88386 0.00928085 -0.00651798)
(2.68419 0.0362789 -0.00826199)
(2.16783 0.087887 -0.0120335)
(1.03613 0.267854 -0.0163311)
(0.467696 0.258257 -0.0179342)
(0.579292 0.250696 -0.0179438)
(0.619289 0.260046 -0.0179141)
(0.566858 0.272625 -0.0180836)
(0.479437 0.290857 -0.018216)
(0.39315 0.310867 -0.0183551)
(0.319719 0.332947 -0.0184805)
(0.242175 0.356527 -0.018587)
(0.148257 0.37936 -0.0186966)
(0.061232 0.394043 -0.0188417)
(3 1.40038e-07 -0.00571425)
(2.99999 7.73698e-07 -0.00571435)
(2.99997 2.88563e-06 -0.0057145)
(2.99992 7.40285e-06 -0.00571497)
(2.99982 2.04541e-05 -0.00571584)
(2.99954 4.68248e-05 -0.00571847)
(2.99897 0.000122867 -0.00572348)
(2.99732 0.000272752 -0.00573813)
(2.99413 0.000735069 -0.00576865)
(2.98382 0.00153659 -0.00584502)
(2.96447 0.00478221 -0.00605755)
(2.89642 0.00968265 -0.00645181)
(2.72225 0.0343346 -0.00795003)
(2.268 0.083965 -0.0113873)
(1.13066 0.257664 -0.0158683)
(0.516006 0.295432 -0.0176873)
(0.614548 0.302568 -0.0176778)
(0.652827 0.310786 -0.0176601)
(0.600743 0.323878 -0.0178334)
(0.514916 0.346157 -0.0179803)
(0.427756 0.371737 -0.0181208)
(0.352336 0.400393 -0.0182174)
(0.271799 0.432214 -0.0183321)
(0.17161 0.465244 -0.0184268)
(0.0730565 0.489946 -0.0185215)
(3 1.47459e-07 -0.00571425)
(2.99999 8.14218e-07 -0.00571434)
(2.99997 3.02658e-06 -0.00571448)
(2.99993 7.75302e-06 -0.0057149)
(2.99984 2.1314e-05 -0.00571569)
(2.99958 4.86528e-05 -0.00571808)
(2.99907 0.00012669 -0.00572261)
(2.99757 0.000281072 -0.00573594)
(2.99467 0.000736803 -0.00576348)
(2.98539 0.00161236 -0.00583347)
(2.96785 0.00443549 -0.00602269)
(2.90704 0.00998092 -0.00638637)
(2.75291 0.0301688 -0.00771359)
(2.34297 0.0747075 -0.0108393)
(1.22422 0.220036 -0.0156559)
(0.561173 0.333298 -0.0175161)
(0.635627 0.36474 -0.0174859)
(0.673695 0.363328 -0.0174708)
(0.631302 0.37533 -0.0176151)
(0.55379 0.401826 -0.0177176)
(0.469504 0.434395 -0.017849)
(0.394395 0.471357 -0.0179191)
(0.312853 0.514051 -0.0179741)
(0.2074 0.562617 -0.0180311)
(0.0932861 0.608387 -0.0181307)
(3 1.78157e-07 -0.00571425)
(2.99999 9.75851e-07 -0.00571433)
(2.99998 3.63519e-06 -0.00571445)
(2.99994 9.35334e-06 -0.00571483)
(2.99986 2.58021e-05 -0.00571553)
(2.99963 5.96296e-05 -0.00571767)
(2.99917 0.00015286 -0.00572171)
(2.99782 0.000360493 -0.00573369)
(2.99524 0.00083178 -0.00575821)
(2.98687 0.00213965 -0.0058207)
(2.97155 0.00451732 -0.00599256)
(2.91676 0.0116351 -0.00630387)
(2.78049 0.0287692 -0.00753695)
(2.41077 0.0731594 -0.0101596)
(1.34378 0.208066 -0.0153768)
(0.635934 0.384127 -0.0173287)
(0.646646 0.417366 -0.0172456)
(0.673861 0.412445 -0.0173069)
(0.653468 0.426671 -0.017406)
(0.591646 0.455476 -0.0174672)
(0.515763 0.496563 -0.0175516)
(0.4453 0.544009 -0.0175942)
(0.367883 0.600381 -0.0176142)
(0.264404 0.673694 -0.0175871)
(0.131143 0.764427 -0.0174799)
(3 2.72387e-07 -0.00571424)
(2.99999 4.74828e-07 -0.00571431)
(2.99998 3.9596e-06 -0.00571441)
(2.99995 5.80789e-06 -0.00571473)
(2.99988 2.68055e-05 -0.00571531)
(2.99969 3.75117e-05 -0.00571703)
(2.99932 0.000160315 -0.00572054)
(2.99813 0.000209488 -0.00572924)
(2.99615 0.000973602 -0.00575317)
(2.98844 0.000972928 -0.00579549)
(2.97587 0.00648184 -0.00597304)
(2.92638 0.00408738 -0.00620311)
(2.8072 0.0416249 -0.00740289)
(2.47822 0.0537228 -0.00948878)
(1.49073 0.222945 -0.014756)
(0.7339 0.438117 -0.0169729)
(0.655855 0.45203 -0.0171474)
(0.680167 0.451884 -0.0171757)
(0.674533 0.472366 -0.0171939)
(0.629099 0.504673 -0.0172441)
(0.567339 0.554134 -0.0172331)
(0.506146 0.612914 -0.0171985)
(0.442751 0.689681 -0.017107)
(0.359664 0.806892 -0.0169168)
(0.20291 1.01441 -0.0165186)
(3 1.44175e-08 -2.52515e-09)
(2.99998 7.80315e-08 -8.66791e-09)
(2.99996 2.92075e-07 -1.0026e-08)
(2.99989 7.48924e-07 -1.61574e-08)
(2.99976 2.08536e-06 -1.58989e-08)
(2.99938 4.79769e-06 -2.17917e-08)
(2.99866 1.26236e-05 -2.18495e-08)
(2.99633 2.863e-05 -3.01808e-08)
(2.99235 7.48052e-05 -3.16183e-08)
(2.97699 0.000165496 -5.81804e-08)
(2.9504 0.00047387 -7.27033e-08)
(2.84718 0.00107835 -1.62187e-07)
(2.57194 0.00328075 -1.93729e-07)
(1.89954 0.00838049 -6.38177e-07)
(0.851573 0.0239329 -7.07061e-07)
(0.459896 0.0228891 8.80208e-08)
(0.542534 0.0236403 -1.54743e-08)
(0.566641 0.0257123 -7.58261e-08)
(0.514639 0.0277164 -7.60614e-08)
(0.424928 0.0296602 -7.22069e-08)
(0.338486 0.0320191 -6.81063e-08)
(0.268651 0.0348849 -6.92892e-08)
(0.199114 0.0379752 -7.03524e-08)
(0.11962 0.0416246 -7.17572e-08)
(0.0524494 0.0468371 -7.41935e-08)
(3 4.07693e-08 -2.51793e-09)
(2.99998 2.21581e-07 -8.66986e-09)
(2.99996 8.26388e-07 -1.00174e-08)
(2.9999 2.11623e-06 -1.61731e-08)
(2.99977 5.87484e-06 -1.58592e-08)
(2.99939 1.34097e-05 -2.17929e-08)
(2.99868 3.57565e-05 -2.17901e-08)
(2.99638 7.80939e-05 -3.00594e-08)
(2.99246 0.000219407 -3.15011e-08)
(2.97731 0.000457428 -5.73773e-08)
(2.95118 0.0014172 -7.24192e-08)
(2.84932 0.00307508 -1.57799e-07)
(2.5787 0.0108218 -2.03216e-07)
(1.91486 0.026437 -6.32706e-07)
(0.859138 0.0741589 -7.1557e-07)
(0.454705 0.067119 9.0561e-08)
(0.540646 0.0660131 -1.35051e-08)
(0.565881 0.0696025 -7.54508e-08)
(0.513546 0.0729921 -7.5761e-08)
(0.423814 0.0762567 -7.18064e-08)
(0.33751 0.0801574 -6.72695e-08)
(0.267281 0.0846494 -6.8299e-08)
(0.196837 0.0888838 -6.92523e-08)
(0.116175 0.0930827 -7.04116e-08)
(0.0488099 0.0973784 -7.25747e-08)
(3 6.48402e-08 -2.50869e-09)
(2.99998 3.52644e-07 -8.66609e-09)
(2.99996 1.31564e-06 -1.00333e-08)
(2.9999 3.3678e-06 -1.61074e-08)
(2.99977 9.36621e-06 -1.59385e-08)
(2.99941 2.13288e-05 -2.17043e-08)
(2.99871 5.7456e-05 -2.17925e-08)
(2.99648 0.000123572 -2.98149e-08)
(2.99266 0.000360593 -3.15049e-08)
(2.97797 0.000732815 -5.64295e-08)
(2.95264 0.00236939 -7.18227e-08)
(2.85434 0.00501762 -1.54657e-07)
(2.59386 0.0189193 -2.02269e-07)
(1.95011 0.045467 -6.21691e-07)
(0.881191 0.128702 -7.27696e-07)
(0.451228 0.114399 9.45094e-08)
(0.542815 0.110875 -1.08042e-08)
(0.570303 0.116941 -7.53932e-08)
(0.517608 0.123203 -7.6118e-08)
(0.428148 0.129913 -7.22233e-08)
(0.342185 0.137263 -6.69778e-08)
(0.271463 0.145331 -6.75952e-08)
(0.199845 0.153205 -6.82313e-08)
(0.117627 0.160468 -6.88571e-08)
(0.0484081 0.165917 -7.00777e-08)
(3 8.19477e-08 -2.49406e-09)
(2.99998 4.48145e-07 -8.66223e-09)
(2.99996 1.66575e-06 -1.00479e-08)
(2.9999 4.25106e-06 -1.60299e-08)
(2.99978 1.1808e-05 -1.60099e-08)
(2.99943 2.66699e-05 -2.15718e-08)
(2.99876 7.31068e-05 -2.17022e-08)
(2.99663 0.000149047 -2.92304e-08)
(2.99297 0.000483175 -3.11892e-08)
(2.97896 0.000865304 -5.35648e-08)
(2.95484 0.00339303 -6.88113e-08)
(2.86194 0.00670359 -1.4738e-07)
(2.61685 0.0264844 -1.9647e-07)
(2.00435 0.0634106 -6.04065e-07)
(0.915584 0.182138 -7.56535e-07)
(0.447547 0.16177 8.62938e-08)
(0.547973 0.155438 -1.41018e-08)
(0.579518 0.163845 -7.53997e-08)
(0.52685 0.173109 -7.62312e-08)
(0.437987 0.183817 -7.22759e-08)
(0.352338 0.195003 -6.69755e-08)
(0.281153 0.20705 -6.74989e-08)
(0.208172 0.219154 -6.74656e-08)
(0.123357 0.23023 -6.72236e-08)
(0.0502568 0.237414 -6.73914e-08)
(3 9.92378e-08 -2.48669e-09)
(2.99999 5.44749e-07 -8.64248e-09)
(2.99996 2.01812e-06 -1.01182e-08)
(2.99991 5.14471e-06 -1.59281e-08)
(2.99979 1.42319e-05 -1.63025e-08)
(2.99946 3.20581e-05 -2.16979e-08)
(2.99881 8.78181e-05 -2.23605e-08)
(2.99682 0.00017482 -3.2283e-08)
(2.99326 0.000596136 -2.89663e-08)
(2.98035 0.00093614 -8.53079e-08)
(2.95763 0.00436288 -6.80132e-09)
(2.872 0.00805479 -2.16492e-07)
(2.64779 0.0328075 -8.14497e-08)
(2.07808 0.0784599 -5.57408e-07)
(0.966459 0.230522 -7.26087e-07)
(0.450395 0.209545 6.04062e-08)
(0.559251 0.200803 -3.80503e-08)
(0.595443 0.210551 -8.31538e-08)
(0.542786 0.222187 -8.09914e-08)
(0.454549 0.236914 -7.42843e-08)
(0.368763 0.252302 -6.89668e-08)
(0.296678 0.268978 -6.87455e-08)
(0.221696 0.286157 -6.78794e-08)
(0.133148 0.302004 -6.67423e-08)
(0.0544563 0.311736 -6.56876e-08)
(3 1.25557e-07 -2.46951e-09)
(2.99999 6.84418e-07 -8.6174e-09)
(2.99997 2.5476e-06 -1.01017e-08)
(2.99991 6.52171e-06 -1.58284e-08)
(2.9998 1.80596e-05 -1.60683e-08)
(2.99949 4.11727e-05 -2.11167e-08)
(2.99888 0.000109931 -2.11868e-08)
(2.99706 0.000235187 -2.73048e-08)
(2.99361 0.000700901 -2.93652e-08)
(2.98205 0.00126525 -5.15574e-08)
(2.96093 0.00490844 -4.01439e-08)
(2.88384 0.00928623 -1.54231e-07)
(2.68417 0.0362785 -1.33313e-07)
(2.16775 0.0878936 -5.09032e-07)
(1.0361 0.267866 -7.25938e-07)
(0.467728 0.25826 3.75159e-08)
(0.579308 0.250698 -4.26958e-08)
(0.619299 0.260049 -8.22702e-08)
(0.566867 0.272628 -8.09929e-08)
(0.479445 0.29086 -7.63266e-08)
(0.393156 0.31087 -7.17587e-08)
(0.319722 0.332949 -7.09873e-08)
(0.242176 0.356528 -6.92626e-08)
(0.148257 0.379362 -6.72886e-08)
(0.0612319 0.394047 -6.5797e-08)
(3 1.4268e-07 -2.44161e-09)
(2.99999 7.75382e-07 -8.62257e-09)
(2.99997 2.88872e-06 -1.00832e-08)
(2.99992 7.40719e-06 -1.58093e-08)
(2.99982 2.04632e-05 -1.60016e-08)
(2.99954 4.68422e-05 -2.1005e-08)
(2.99897 0.000122909 -2.08796e-08)
(2.99731 0.000272842 -2.66982e-08)
(2.99412 0.000735235 -2.88651e-08)
(2.98381 0.00153736 -4.20824e-08)
(2.96447 0.00478277 -4.95285e-08)
(2.89641 0.00968525 -1.27458e-07)
(2.72222 0.034339 -1.48515e-07)
(2.26792 0.0839795 -4.72732e-07)
(1.13061 0.257708 -7.61277e-07)
(0.516004 0.295442 -9.77304e-09)
(0.614549 0.302569 -5.21828e-08)
(0.65283 0.310788 -7.66671e-08)
(0.600748 0.323881 -7.68451e-08)
(0.514922 0.346161 -7.45303e-08)
(0.427762 0.371741 -7.14049e-08)
(0.35234 0.400396 -7.10373e-08)
(0.271802 0.432216 -7.03988e-08)
(0.171611 0.465247 -6.85201e-08)
(0.0730568 0.48995 -6.65922e-08)
(3 1.49667e-07 -2.41663e-09)
(2.99999 8.15769e-07 -8.62868e-09)
(2.99997 3.02794e-06 -1.00802e-08)
(2.99993 7.75491e-06 -1.58029e-08)
(2.99984 2.13161e-05 -1.59743e-08)
(2.99958 4.86557e-05 -2.0947e-08)
(2.99907 0.000126694 -2.07055e-08)
(2.99756 0.000281074 -2.63099e-08)
(2.99466 0.000736847 -2.781e-08)
(2.98539 0.00161226 -3.98329e-08)
(2.96784 0.00443621 -4.19697e-08)
(2.90703 0.00998138 -1.1882e-07)
(2.75289 0.0301746 -9.24893e-08)
(2.34292 0.0747215 -3.39739e-07)
(1.22419 0.22009 -4.23488e-07)
(0.561183 0.3333 -1.66388e-07)
(0.635641 0.36474 -9.87328e-08)
(0.673707 0.36333 -8.24131e-08)
(0.631312 0.375333 -8.03752e-08)
(0.553798 0.40183 -7.60599e-08)
(0.469512 0.434399 -7.3425e-08)
(0.394401 0.47136 -7.18144e-08)
(0.312857 0.514055 -7.0843e-08)
(0.207403 0.562621 -6.94333e-08)
(0.093287 0.608392 -6.81539e-08)
(3 1.78331e-07 -2.39743e-09)
(2.99999 9.74674e-07 -8.62795e-09)
(2.99998 3.6309e-06 -1.00913e-08)
(2.99994 9.32502e-06 -1.58017e-08)
(2.99985 2.57873e-05 -1.59969e-08)
(2.99962 5.95734e-05 -2.09884e-08)
(2.99917 0.000152795 -2.0858e-08)
(2.99782 0.000360342 -2.67226e-08)
(2.99523 0.000831668 -2.80403e-08)
(2.98687 0.00213928 -4.4824e-08)
(2.97154 0.00451676 -3.40347e-08)
(2.91675 0.0116357 -1.32252e-07)
(2.78048 0.0287716 -5.85316e-08)
(2.41073 0.073162 -3.24976e-07)
(1.34374 0.208086 -3.83556e-07)
(0.63592 0.38412 -3.5417e-07)
(0.646667 0.417366 -8.54911e-08)
(0.67388 0.412449 -7.23906e-08)
(0.653482 0.426676 -7.55641e-08)
(0.591658 0.455481 -7.52165e-08)
(0.515773 0.496568 -7.43621e-08)
(0.445308 0.544013 -7.26992e-08)
(0.36789 0.600385 -7.19323e-08)
(0.264408 0.673698 -7.00989e-08)
(0.131145 0.764432 -6.92551e-08)
(3 2.5823e-07 -2.41313e-09)
(2.99999 5.30844e-07 -8.65244e-09)
(2.99998 3.85358e-06 -1.01415e-08)
(2.99995 5.84817e-06 -1.62751e-08)
(2.99988 2.66775e-05 -1.57782e-08)
(2.99969 3.75557e-05 -2.16805e-08)
(2.99932 0.000160198 -2.0955e-08)
(2.99813 0.000209577 -2.79179e-08)
(2.99615 0.000973486 -2.71573e-08)
(2.98844 0.000973577 -4.44946e-08)
(2.97586 0.00648111 -4.63477e-08)
(2.92637 0.00409048 -9.87695e-08)
(2.80719 0.0416223 -5.54206e-08)
(2.47818 0.0537316 -3.42017e-07)
(1.4907 0.222947 -3.14719e-07)
(0.733872 0.438116 -4.02884e-07)
(0.655875 0.452035 -5.97456e-08)
(0.680185 0.451891 -5.37891e-08)
(0.674549 0.472372 -6.96626e-08)
(0.629113 0.50468 -7.19879e-08)
(0.567351 0.55414 -7.33945e-08)
(0.506156 0.612919 -7.28757e-08)
(0.442759 0.689687 -7.20892e-08)
(0.35967 0.806897 -7.06889e-08)
(0.202913 1.01442 -7.05307e-08)
(3 1.44181e-08 -3.8331e-13)
(2.99998 7.80346e-08 -2.03588e-12)
(2.99996 2.92087e-07 -4.46111e-12)
(2.99989 7.48956e-07 -9.45955e-12)
(2.99976 2.08545e-06 -1.7352e-11)
(2.99938 4.79792e-06 -3.29e-11)
(2.99866 1.26241e-05 -6.81721e-11)
(2.99633 2.86317e-05 -1.3427e-10)
(2.99235 7.48068e-05 -3.15348e-10)
(2.97699 0.000165505 -6.42249e-10)
(2.9504 0.000473875 -1.79306e-09)
(2.84718 0.00107839 -3.81585e-09)
(2.57194 0.0032806 -9.15378e-09)
(1.89954 0.00838036 -2.48792e-08)
(0.851571 0.0239325 -3.39078e-08)
(0.459898 0.0228888 4.46805e-09)
(0.542536 0.0236402 -4.58023e-10)
(0.566642 0.0257122 -2.64816e-09)
(0.51464 0.0277163 -2.4306e-09)
(0.424929 0.0296601 -2.1113e-09)
(0.338487 0.032019 -2.44466e-09)
(0.268652 0.0348849 -2.89341e-09)
(0.199115 0.0379752 -3.33303e-09)
(0.119621 0.0416247 -3.84004e-09)
(0.0524501 0.0468376 -4.54864e-09)
(3 4.077e-08 -3.71165e-13)
(2.99998 2.21585e-07 -1.98446e-12)
(2.99996 8.26401e-07 -4.27881e-12)
(2.9999 2.11627e-06 -9.06468e-12)
(2.99977 5.87493e-06 -1.61538e-11)
(2.99939 1.341e-05 -3.00889e-11)
(2.99868 3.5757e-05 -6.25195e-11)
(2.99638 7.80956e-05 -1.0964e-10)
(2.99246 0.000219408 -3.17476e-10)
(2.97731 0.000457436 -5.02856e-10)
(2.95118 0.00141721 -1.84376e-09)
(2.84932 0.00307511 -3.1345e-09)
(2.5787 0.0108216 -1.19164e-08)
(1.91485 0.0264368 -2.48885e-08)
(0.859135 0.0741583 -3.57662e-08)
(0.454707 0.0671186 5.13069e-09)
(0.540646 0.066013 1.95392e-10)
(0.565881 0.0696024 -2.42723e-09)
(0.513546 0.0729921 -2.32569e-09)
(0.423815 0.0762566 -2.10188e-09)
(0.33751 0.0801573 -2.34991e-09)
(0.267281 0.0846494 -2.73395e-09)
(0.196837 0.0888839 -3.15653e-09)
(0.116175 0.093083 -3.60409e-09)
(0.0488102 0.0973791 -4.20584e-09)
(3 6.48403e-08 -3.69833e-13)
(2.99998 3.52645e-07 -1.97821e-12)
(2.99996 1.31564e-06 -4.26523e-12)
(2.9999 3.36781e-06 -9.02881e-12)
(2.99977 9.36621e-06 -1.61258e-11)
(2.99941 2.13288e-05 -3.00498e-11)
(2.99871 5.7456e-05 -6.27599e-11)
(2.99648 0.000123572 -1.10895e-10)
(2.99266 0.000360592 -3.21152e-10)
(2.97797 0.000732813 -5.1538e-10)
(2.95264 0.00236939 -1.89937e-09)
(2.85434 0.00501761 -3.25417e-09)
(2.59386 0.0189193 -1.23486e-08)
(1.9501 0.0454669 -2.59231e-08)
(0.881189 0.128701 -3.81336e-08)
(0.45123 0.114399 6.03864e-09)
(0.542815 0.110875 7.74402e-10)
(0.570302 0.116941 -2.32607e-09)
(0.517608 0.123203 -2.32363e-09)
(0.428148 0.129913 -2.18149e-09)
(0.342185 0.137263 -2.3034e-09)
(0.271463 0.145331 -2.57575e-09)
(0.199845 0.153205 -2.91588e-09)
(0.117627 0.160468 -3.22497e-09)
(0.0484082 0.165918 -3.57307e-09)
(3 8.19485e-08 -3.69299e-13)
(2.99998 4.48148e-07 -1.97559e-12)
(2.99996 1.66576e-06 -4.26392e-12)
(2.9999 4.2511e-06 -9.01947e-12)
(2.99978 1.18081e-05 -1.61719e-11)
(2.99943 2.66702e-05 -3.01817e-11)
(2.99876 7.31074e-05 -6.33184e-11)
(2.99663 0.000149049 -1.1323e-10)
(2.99297 0.000483176 -3.24783e-10)
(2.97896 0.00086532 -5.31915e-10)
(2.95484 0.00339302 -1.94444e-09)
(2.86194 0.00670362 -3.31635e-09)
(2.61685 0.0264844 -1.26027e-08)
(2.00435 0.0634105 -2.66154e-08)
(0.915581 0.182137 -4.08372e-08)
(0.447549 0.16177 6.65366e-09)
(0.547974 0.155438 1.01476e-09)
(0.579518 0.163845 -2.38426e-09)
(0.52685 0.173109 -2.41904e-09)
(0.437986 0.183817 -2.28882e-09)
(0.352338 0.195002 -2.27081e-09)
(0.281153 0.20705 -2.45328e-09)
(0.208172 0.219154 -2.66849e-09)
(0.123356 0.23023 -2.8208e-09)
(0.0502568 0.237415 -2.93695e-09)
(3 9.92379e-08 -3.54105e-13)
(2.99999 5.44749e-07 -1.92917e-12)
(2.99996 2.01812e-06 -4.08295e-12)
(2.99991 5.14471e-06 -8.42193e-12)
(2.99979 1.42319e-05 -1.49594e-11)
(2.99946 3.20581e-05 -2.66559e-11)
(2.99881 8.78181e-05 -5.63565e-11)
(2.99682 0.00017482 -7.92493e-11)
(2.99326 0.000596136 -3.41042e-10)
(2.98035 0.000936142 -2.28769e-10)
(2.95763 0.00436288 -2.47141e-09)
(2.87199 0.00805481 -2.64656e-09)
(2.64779 0.0328075 -1.3585e-08)
(2.07808 0.07846 -2.71689e-08)
(0.966455 0.230522 -4.47732e-08)
(0.450396 0.209545 6.8201e-09)
(0.559251 0.200803 1.29751e-09)
(0.595442 0.210551 -2.4338e-09)
(0.542785 0.222187 -2.54441e-09)
(0.454549 0.236914 -2.45108e-09)
(0.368763 0.252302 -2.18686e-09)
(0.296678 0.268978 -2.25675e-09)
(0.221696 0.286157 -2.37984e-09)
(0.133148 0.302005 -2.42901e-09)
(0.0544562 0.311737 -2.38161e-09)
(3 1.25557e-07 -3.67832e-13)
(2.99999 6.84416e-07 -1.97924e-12)
(2.99997 2.54759e-06 -4.2862e-12)
(2.99991 6.52168e-06 -8.904e-12)
(2.9998 1.80596e-05 -1.63819e-11)
(2.99949 4.11725e-05 -3.03041e-11)
(2.99888 0.000109931 -6.28174e-11)
(2.99706 0.000235185 -1.17849e-10)
(2.99361 0.000700902 -3.16968e-10)
(2.98205 0.00126523 -4.88039e-10)
(2.96093 0.00490847 -2.08905e-09)
(2.88384 0.00928624 -2.98595e-09)
(2.68416 0.0362787 -1.26128e-08)
(2.16774 0.087894 -2.66241e-08)
(1.0361 0.267866 -4.76713e-08)
(0.467729 0.258259 5.9058e-09)
(0.579307 0.250697 1.27526e-09)
(0.619298 0.260049 -2.50229e-09)
(0.566866 0.272628 -2.72186e-09)
(0.479444 0.29086 -2.77265e-09)
(0.393155 0.310869 -2.26402e-09)
(0.319721 0.332949 -2.17089e-09)
(0.242175 0.356528 -2.16642e-09)
(0.148257 0.379363 -2.09215e-09)
(0.0612317 0.394048 -1.92177e-09)
(3 1.4268e-07 -3.63136e-13)
(2.99999 7.75386e-07 -1.95705e-12)
(2.99997 2.88874e-06 -4.21729e-12)
(2.99992 7.40723e-06 -8.74621e-12)
(2.99982 2.04633e-05 -1.59394e-11)
(2.99954 4.68424e-05 -2.93121e-11)
(2.99897 0.000122909 -6.00869e-11)
(2.99731 0.000272844 -1.12103e-10)
(2.99412 0.000735241 -2.89574e-10)
(2.98381 0.00153737 -5.21592e-10)
(2.96447 0.00478283 -1.8157e-09)
(2.89641 0.00968531 -2.8203e-09)
(2.72222 0.0343395 -1.14686e-08)
(2.26791 0.0839807 -2.49493e-08)
(1.13061 0.257712 -5.03694e-08)
(0.516003 0.295443 2.42241e-09)
(0.614548 0.302569 1.28024e-10)
(0.652828 0.310788 -2.73887e-09)
(0.600746 0.323881 -2.93229e-09)
(0.514921 0.346161 -2.9157e-09)
(0.427761 0.37174 -2.30691e-09)
(0.352339 0.400396 -2.08096e-09)
(0.271802 0.432216 -2.02269e-09)
(0.171611 0.465247 -1.84267e-09)
(0.0730567 0.489951 -1.54282e-09)
(3 1.49668e-07 -3.534e-13)
(2.99999 8.15773e-07 -1.91268e-12)
(2.99997 3.02795e-06 -4.07222e-12)
(2.99993 7.75494e-06 -8.43282e-12)
(2.99984 2.13162e-05 -1.4984e-11)
(2.99958 4.86559e-05 -2.73672e-11)
(2.99907 0.000126694 -5.38378e-11)
(2.99756 0.000281075 -1.00475e-10)
(2.99466 0.000736851 -2.41027e-10)
(2.98539 0.00161227 -4.67156e-10)
(2.96784 0.00443626 -1.23328e-09)
(2.90703 0.00998141 -2.77038e-09)
(2.75289 0.030175 -6.88661e-09)
(2.34292 0.0747226 -1.57998e-08)
(1.22418 0.220094 -2.67112e-08)
(0.561183 0.3333 -8.61534e-09)
(0.635641 0.364739 -4.23936e-09)
(0.673706 0.363329 -3.79585e-09)
(0.631311 0.375333 -3.68689e-09)
(0.553797 0.40183 -3.34025e-09)
(0.469511 0.434398 -2.71528e-09)
(0.3944 0.47136 -2.26314e-09)
(0.312856 0.514054 -2.04165e-09)
(0.207402 0.562621 -1.7337e-09)
(0.0932868 0.608392 -1.29632e-09)
(3 1.78331e-07 -3.51745e-13)
(2.99999 9.74678e-07 -1.90014e-12)
(2.99998 3.63092e-06 -4.05178e-12)
(2.99994 9.32505e-06 -8.38742e-12)
(2.99985 2.57874e-05 -1.49551e-11)
(2.99962 5.95736e-05 -2.74032e-11)
(2.99917 0.000152796 -5.4121e-11)
(2.99782 0.000360344 -1.04003e-10)
(2.99523 0.000831673 -2.30034e-10)
(2.98687 0.00213929 -5.43113e-10)
(2.97154 0.00451679 -9.33926e-10)
(2.91675 0.0116358 -3.09997e-09)
(2.78047 0.0287718 -5.27137e-09)
(2.41073 0.0731624 -1.41669e-08)
(1.34373 0.208088 -2.5218e-08)
(0.635919 0.384119 -2.18418e-08)
(0.646667 0.417366 -4.01293e-09)
(0.67388 0.412448 -3.33471e-09)
(0.653482 0.426676 -3.5843e-09)
(0.591657 0.45548 -3.43984e-09)
(0.515772 0.496567 -3.04844e-09)
(0.445307 0.544013 -2.50615e-09)
(0.367889 0.600384 -2.25003e-09)
(0.264407 0.673698 -1.74768e-09)
(0.131145 0.764432 -1.19926e-09)
(3 2.58229e-07 -3.42548e-13)
(2.99999 5.30857e-07 -1.83884e-12)
(2.99998 3.85359e-06 -3.84208e-12)
(2.99995 5.84824e-06 -8.11197e-12)
(2.99988 2.66776e-05 -1.33891e-11)
(2.99969 3.75561e-05 -2.4712e-11)
(2.99932 0.000160199 -4.49863e-11)
(2.99813 0.000209579 -8.43318e-11)
(2.99615 0.000973492 -1.84249e-10)
(2.98844 0.000973593 -3.59278e-10)
(2.97586 0.00648114 -9.42474e-10)
(2.92637 0.00409057 -2.01044e-09)
(2.80718 0.0416225 -4.37409e-09)
(2.47818 0.053732 -1.44344e-08)
(1.49069 0.222948 -2.20735e-08)
(0.73387 0.438116 -2.50731e-08)
(0.655875 0.452035 -2.61441e-09)
(0.680185 0.451891 -2.30788e-09)
(0.674549 0.472372 -3.30167e-09)
(0.629113 0.504679 -3.33565e-09)
(0.567351 0.55414 -3.11394e-09)
(0.506156 0.612919 -2.85435e-09)
(0.442759 0.689686 -2.43568e-09)
(0.35967 0.806897 -1.88372e-09)
(0.202913 1.01442 -1.28735e-09)
(3 1.44181e-08 -1.73484e-14)
(2.99998 7.80346e-08 -7.62277e-14)
(2.99996 2.92087e-07 -2.61189e-13)
(2.99989 7.48956e-07 -5.64629e-13)
(2.99976 2.08545e-06 -1.68975e-12)
(2.99938 4.79792e-06 -3.48892e-12)
(2.99866 1.26242e-05 -1.03078e-11)
(2.99633 2.86317e-05 -2.1508e-11)
(2.99235 7.48068e-05 -6.31922e-11)
(2.97699 0.000165505 -1.26818e-10)
(2.9504 0.000473875 -4.21808e-10)
(2.84718 0.00107839 -8.87523e-10)
(2.57194 0.0032806 -2.51659e-09)
(1.89954 0.00838036 -6.79046e-09)
(0.851571 0.0239325 -1.01323e-08)
(0.459898 0.0228888 8.76352e-11)
(0.542536 0.0236402 -6.5702e-10)
(0.566642 0.0257122 -1.28297e-09)
(0.51464 0.0277163 -1.33961e-09)
(0.424929 0.0296601 -1.37021e-09)
(0.338487 0.032019 -1.26513e-09)
(0.268652 0.0348849 -1.1801e-09)
(0.199115 0.0379752 -1.14057e-09)
(0.119621 0.0416247 -1.09718e-09)
(0.0524502 0.0468376 -1.07161e-09)
(3 4.077e-08 -1.51968e-14)
(2.99998 2.21585e-07 -6.7378e-14)
(2.99996 8.26402e-07 -2.28252e-13)
(2.9999 2.11627e-06 -4.92875e-13)
(2.99977 5.87493e-06 -1.46367e-12)
(2.99939 1.341e-05 -2.9521e-12)
(2.99868 3.5757e-05 -9.18567e-12)
(2.99638 7.80956e-05 -1.66301e-11)
(2.99246 0.000219408 -6.32816e-11)
(2.97731 0.000457436 -9.82198e-11)
(2.95118 0.00141721 -4.29509e-10)
(2.84932 0.00307511 -7.36709e-10)
(2.5787 0.0108216 -3.09507e-09)
(1.91485 0.0264368 -6.74646e-09)
(0.859136 0.0741583 -1.04774e-08)
(0.454707 0.0671186 2.13288e-10)
(0.540646 0.066013 -5.46716e-10)
(0.565881 0.0696024 -1.24728e-09)
(0.513546 0.0729921 -1.32012e-09)
(0.423815 0.0762566 -1.36681e-09)
(0.33751 0.0801573 -1.25483e-09)
(0.267281 0.0846494 -1.16854e-09)
(0.196837 0.0888839 -1.12831e-09)
(0.116175 0.093083 -1.08159e-09)
(0.0488102 0.0973792 -1.05119e-09)
(3 6.48403e-08 -1.49832e-14)
(2.99998 3.52645e-07 -6.62358e-14)
(2.99996 1.31564e-06 -2.25427e-13)
(2.9999 3.36781e-06 -4.86418e-13)
(2.99977 9.36621e-06 -1.45508e-12)
(2.99941 2.13288e-05 -2.93944e-12)
(2.99871 5.7456e-05 -9.19942e-12)
(2.99648 0.000123572 -1.68144e-11)
(2.99266 0.000360592 -6.36754e-11)
(2.97797 0.000732813 -1.00143e-10)
(2.95264 0.00236939 -4.38164e-10)
(2.85434 0.00501761 -7.55497e-10)
(2.59386 0.0189193 -3.16408e-09)
(1.9501 0.0454669 -6.92231e-09)
(0.881189 0.128701 -1.09835e-08)
(0.45123 0.114399 3.77051e-10)
(0.542815 0.110875 -4.37788e-10)
(0.570302 0.116941 -1.22654e-09)
(0.517608 0.123203 -1.31482e-09)
(0.428148 0.129913 -1.38021e-09)
(0.342185 0.137263 -1.25799e-09)
(0.271463 0.145331 -1.16798e-09)
(0.199845 0.153205 -1.12553e-09)
(0.117627 0.160468 -1.07468e-09)
(0.0484082 0.165918 -1.0335e-09)
(3 8.19485e-08 -1.49767e-14)
(2.99998 4.48148e-07 -6.59654e-14)
(2.99996 1.66576e-06 -2.25604e-13)
(2.9999 4.2511e-06 -4.86623e-13)
(2.99978 1.18081e-05 -1.46556e-12)
(2.99943 2.66702e-05 -2.97041e-12)
(2.99876 7.31074e-05 -9.30646e-12)
(2.99663 0.000149049 -1.72998e-11)
(2.99297 0.000483176 -6.42079e-11)
(2.97896 0.00086532 -1.0338e-10)
(2.95484 0.00339302 -4.45918e-10)
(2.86194 0.00670361 -7.64166e-10)
(2.61685 0.0264844 -3.20111e-09)
(2.00435 0.0634105 -7.0432e-09)
(0.915581 0.182137 -1.1636e-08)
(0.447549 0.16177 4.92854e-10)
(0.547974 0.155438 -3.71702e-10)
(0.579518 0.163845 -1.23786e-09)
(0.52685 0.173109 -1.3374e-09)
(0.437986 0.183817 -1.41876e-09)
(0.352338 0.195002 -1.28451e-09)
(0.281153 0.20705 -1.18828e-09)
(0.208172 0.219154 -1.14145e-09)
(0.123356 0.23023 -1.08392e-09)
(0.0502568 0.237415 -1.03233e-09)
(3 9.92379e-08 -1.24186e-14)
(2.99999 5.44749e-07 -5.63232e-14)
(2.99996 2.01812e-06 -1.87378e-13)
(2.99991 5.14471e-06 -3.96391e-13)
(2.99979 1.42319e-05 -1.18819e-12)
(2.99946 3.20581e-05 -2.29114e-12)
(2.99881 8.78181e-05 -7.84882e-12)
(2.99682 0.00017482 -1.0002e-11)
(2.99326 0.000596136 -6.79499e-11)
(2.98035 0.000936142 -3.34947e-11)
(2.95763 0.00436288 -5.70058e-10)
(2.87199 0.00805481 -5.97414e-10)
(2.64779 0.0328075 -3.40648e-09)
(2.07808 0.07846 -7.11407e-09)
(0.966455 0.230522 -1.25495e-08)
(0.450396 0.209545 5.25284e-10)
(0.559251 0.200803 -3.06556e-10)
(0.595442 0.210551 -1.26686e-09)
(0.542785 0.222187 -1.38562e-09)
(0.454549 0.236914 -1.48801e-09)
(0.368763 0.252302 -1.33301e-09)
(0.296678 0.268978 -1.22669e-09)
(0.221696 0.286157 -1.17454e-09)
(0.133148 0.302005 -1.10941e-09)
(0.0544562 0.311737 -1.04402e-09)
(3 1.25557e-07 -1.54808e-14)
(2.99999 6.84416e-07 -6.80809e-14)
(2.99997 2.54759e-06 -2.33188e-13)
(2.99991 6.52168e-06 -5.05344e-13)
(2.9998 1.80596e-05 -1.51143e-12)
(2.99949 4.11725e-05 -3.11905e-12)
(2.99888 0.000109931 -9.35462e-12)
(2.99706 0.000235185 -1.86877e-11)