/*--------------------------------*- C++ -*----------------------------------*\
| =========                 |                                                 |
| \\      /  F ield         | OpenFOAM: The Open Source CFD Toolbox           |
|  \\    /   O peration     | Version:  4.1                                   |
|   \\  /    A nd           | Web:      www.OpenFOAM.org                      |
|    \\/     M anipulation  |                                                 |
\*---------------------------------------------------------------------------*/
FoamFile
{
    version     2.0;
    format      ascii;
    class       volScalarField;
    location    "2.66";
    object      Ma;
}
// * * * * * * * * * * * * * * * * * * * * * * * * * * * * * * * * * * * * * //

dimensions      [0 0 0 0 0 0 0];

internalField   nonuniform List<scalar> 
52500
(
3.00002
2.99997
2.99992
2.99969
2.99937
2.99808
2.99623
2.98917
2.97736
2.93914
2.85206
2.65085
2.11693
1.2853
0.53624
0.275174
0.328918
0.345152
0.312627
0.257473
0.204624
0.16237
0.120186
0.0740885
0.0412421
3.00002
2.99997
2.99992
2.99969
2.99938
2.99811
2.99628
2.98931
2.97768
2.93993
2.85421
2.6554
2.12876
1.30026
0.544199
0.275844
0.330811
0.347781
0.31546
0.261104
0.209614
0.168984
0.129315
0.0885956
0.0638011
3.00002
2.99997
2.99992
2.9997
2.9994
2.99816
2.99639
2.98958
2.97834
2.94153
2.85871
2.66492
2.1545
1.33394
0.562974
0.279812
0.336952
0.355694
0.324229
0.272024
0.223589
0.186471
0.151793
0.119087
0.101227
3.00002
2.99998
2.99992
2.99971
2.99942
2.99823
2.99654
2.98999
2.97932
2.94391
2.86566
2.67933
2.19427
1.38686
0.591849
0.287098
0.347165
0.368735
0.338761
0.289609
0.245076
0.212296
0.182936
0.156729
0.142634
3.00002
2.99998
2.99993
2.99973
2.99945
2.99831
2.9967
2.99029
2.9805
2.94618
2.87626
2.69852
2.25075
1.46246
0.633212
0.302492
0.36384
0.388187
0.359641
0.313915
0.273019
0.244388
0.219785
0.198597
0.187086
3.00002
2.99998
2.99994
2.99975
2.99949
2.99842
2.99692
2.99094
2.98191
2.9496
2.88783
2.72117
2.31636
1.55748
0.685637
0.32887
0.38869
0.414453
0.387165
0.344883
0.307576
0.282763
0.262769
0.246226
0.237288
3.00002
2.99998
2.99994
2.99977
2.99953
2.99856
2.99718
2.9917
2.98347
2.95375
2.89885
2.74426
2.38494
1.66141
0.747275
0.368327
0.423079
0.447218
0.421571
0.382706
0.349121
0.327925
0.31237
0.301162
0.297352
3.00002
2.99999
2.99995
2.9998
2.99958
2.99869
2.99744
2.99246
2.98501
2.95789
2.90828
2.76701
2.43708
1.75242
0.803521
0.404819
0.450665
0.471869
0.453299
0.422671
0.394944
0.37934
0.370165
0.366895
0.373096
3.00002
2.99999
2.99996
2.99982
2.99963
2.99884
2.99773
2.99329
2.98665
2.96271
2.9174
2.79363
2.48227
1.86609
0.886308
0.464257
0.473448
0.486538
0.481888
0.461699
0.443081
0.435133
0.434934
0.446075
0.477408
3.00002
3
2.99997
2.99986
2.99969
2.99905
2.99809
2.99465
2.98845
2.9696
2.92529
2.82076
2.52585
1.97641
1.00001
0.5378
0.490422
0.503503
0.509245
0.499562
0.492342
0.494384
0.510601
0.551436
0.65029
3
2.99995
2.9999
2.99967
2.99935
2.99806
2.99621
2.98914
2.97734
2.9391
2.85203
2.65079
2.11687
1.28519
0.536112
0.274958
0.328728
0.344965
0.312418
0.257217
0.204298
0.161954
0.119616
0.0731484
0.0395029
3
2.99995
2.9999
2.99967
2.99936
2.99809
2.99626
2.98928
2.97766
2.93989
2.85418
2.65534
2.1287
1.30015
0.544073
0.275628
0.330623
0.347597
0.315255
0.260854
0.209299
0.168589
0.128792
0.0878206
0.0627064
3
2.99996
2.9999
2.99968
2.99938
2.99814
2.99637
2.98956
2.97832
2.9415
2.85868
2.66486
2.15445
1.33383
0.562852
0.279597
0.336766
0.355514
0.32403
0.271785
0.223295
0.186116
0.151352
0.118519
0.100551
3
2.99996
2.99991
2.9997
2.9994
2.99821
2.99652
2.98996
2.9793
2.94386
2.86565
2.67927
2.19427
1.38678
0.591752
0.286896
0.346987
0.368564
0.338572
0.289387
0.244811
0.211988
0.182575
0.156303
0.142161
3
2.99996
2.99991
2.99971
2.99943
2.99829
2.99668
2.99026
2.98047
2.94614
2.87624
2.69847
2.25074
1.46239
0.633125
0.302308
0.36368
0.388034
0.359472
0.313719
0.272788
0.244127
0.21949
0.198267
0.186732
3
2.99996
2.99992
2.99973
2.99947
2.9984
2.9969
2.99092
2.98189
2.94957
2.88781
2.72112
2.31633
1.5574
0.685551
0.328696
0.388541
0.414314
0.387015
0.344711
0.307378
0.282544
0.262529
0.245966
0.237015
3
2.99997
2.99992
2.99975
2.99951
2.99854
2.99716
2.99168
2.98345
2.95373
2.89882
2.74421
2.38491
1.66135
0.747195
0.368169
0.422945
0.447094
0.421438
0.382556
0.348952
0.327742
0.312174
0.300955
0.297141
3
2.99997
2.99993
2.99978
2.99956
2.99867
2.99742
2.99244
2.98498
2.95787
2.90825
2.76697
2.43705
1.75235
0.803441
0.404669
0.450541
0.471754
0.453178
0.422539
0.394799
0.379187
0.370006
0.366732
0.372934
3
2.99998
2.99994
2.9998
2.99961
2.99882
2.99771
2.99327
2.98663
2.96268
2.91739
2.79359
2.48226
1.86602
0.886236
0.464125
0.473334
0.486427
0.481776
0.461581
0.442955
0.435005
0.434805
0.445948
0.477291
3
2.99998
2.99995
2.99984
2.99967
2.99903
2.99807
2.99463
2.98843
2.96958
2.92527
2.82072
2.52582
1.97635
0.999939
0.537684
0.490311
0.503396
0.509139
0.499454
0.492232
0.494275
0.510496
0.55134
0.650213
3
2.99995
2.9999
2.99967
2.99935
2.99806
2.99621
2.98914
2.97734
2.9391
2.85203
2.65079
2.11687
1.28519
0.536111
0.274958
0.328728
0.344965
0.312418
0.257217
0.204298
0.161954
0.119617
0.0731486
0.039503
3
2.99995
2.9999
2.99967
2.99936
2.99809
2.99626
2.98928
2.97766
2.93989
2.85418
2.65533
2.1287
1.30015
0.544072
0.275629
0.330623
0.347597
0.315255
0.260854
0.209299
0.168589
0.128792
0.0878208
0.0627065
3
2.99996
2.9999
2.99968
2.99938
2.99814
2.99637
2.98956
2.97832
2.9415
2.85868
2.66486
2.15445
1.33383
0.562851
0.279598
0.336766
0.355514
0.32403
0.271785
0.223295
0.186116
0.151352
0.118519
0.100551
3
2.99996
2.99991
2.9997
2.9994
2.99821
2.99652
2.98996
2.9793
2.94386
2.86565
2.67927
2.19427
1.38678
0.591751
0.286896
0.346987
0.368564
0.338572
0.289387
0.244811
0.211988
0.182575
0.156304
0.142162
3
2.99996
2.99991
2.99971
2.99943
2.99829
2.99668
2.99026
2.98047
2.94614
2.87624
2.69847
2.25074
1.46238
0.633124
0.302309
0.36368
0.388034
0.359472
0.313718
0.272788
0.244127
0.21949
0.198267
0.186733
3
2.99996
2.99992
2.99973
2.99947
2.9984
2.9969
2.99091
2.98189
2.94957
2.88781
2.72112
2.31633
1.5574
0.68555
0.328695
0.388541
0.414314
0.387014
0.344711
0.307378
0.282544
0.262529
0.245966
0.237015
3
2.99997
2.99992
2.99975
2.99951
2.99854
2.99716
2.99168
2.98345
2.95373
2.89882
2.74421
2.38491
1.66135
0.747194
0.368168
0.422945
0.447094
0.421437
0.382556
0.348952
0.327742
0.312174
0.300955
0.297141
3
2.99997
2.99993
2.99978
2.99956
2.99867
2.99742
2.99244
2.98498
2.95787
2.90825
2.76697
2.43705
1.75235
0.80344
0.404668
0.450541
0.471754
0.453178
0.422539
0.394799
0.379187
0.370006
0.366732
0.372935
3
2.99998
2.99994
2.9998
2.99961
2.99882
2.99771
2.99327
2.98663
2.96268
2.91738
2.79359
2.48226
1.86602
0.886235
0.464124
0.473334
0.486427
0.481776
0.461581
0.442955
0.435005
0.434805
0.445948
0.477292
3
2.99998
2.99995
2.99984
2.99967
2.99903
2.99807
2.99463
2.98843
2.96958
2.92527
2.82072
2.52582
1.97635
0.999937
0.537683
0.490311
0.503396
0.509139
0.499454
0.492232
0.494275
0.510496
0.55134
0.650213
3
2.99995
2.9999
2.99967
2.99935
2.99806
2.99621
2.98914
2.97734
2.9391
2.85203
2.65079
2.11687
1.28519
0.536111
0.274958
0.328728
0.344965
0.312419
0.257217
0.204298
0.161954
0.119617
0.0731486
0.039503
3
2.99995
2.9999
2.99967
2.99936
2.99809
2.99626
2.98928
2.97766
2.93989
2.85418
2.65533
2.1287
1.30015
0.544073
0.275629
0.330623
0.347597
0.315255
0.260854
0.209299
0.168589
0.128792
0.0878208
0.0627066
3
2.99996
2.9999
2.99968
2.99938
2.99814
2.99637
2.98956
2.97832
2.9415
2.85868
2.66486
2.15445
1.33383
0.562851
0.279598
0.336766
0.355514
0.32403
0.271785
0.223295
0.186116
0.151352
0.118519
0.100551
3
2.99996
2.99991
2.9997
2.9994
2.99821
2.99652
2.98996
2.9793
2.94386
2.86565
2.67927
2.19427
1.38678
0.591751
0.286896
0.346987
0.368564
0.338572
0.289387
0.244811
0.211988
0.182575
0.156304
0.142162
3
2.99996
2.99991
2.99971
2.99943
2.99829
2.99668
2.99026
2.98047
2.94614
2.87624
2.69847
2.25074
1.46238
0.633124
0.302309
0.36368
0.388034
0.359472
0.313718
0.272788
0.244127
0.21949
0.198267
0.186733
3
2.99996
2.99992
2.99973
2.99947
2.9984
2.9969
2.99091
2.98189
2.94957
2.88781
2.72112
2.31633
1.5574
0.68555
0.328695
0.388541
0.414314
0.387014
0.344711
0.307378
0.282544
0.262529
0.245966
0.237015
3
2.99997
2.99992
2.99975
2.99951
2.99854
2.99716
2.99168
2.98345
2.95373
2.89882
2.74421
2.38491
1.66135
0.747194
0.368168
0.422945
0.447094
0.421437
0.382556
0.348952
0.327742
0.312174
0.300955
0.297141
3
2.99997
2.99993
2.99978
2.99956
2.99867
2.99742
2.99244
2.98498
2.95787
2.90825
2.76697
2.43705
1.75235
0.80344
0.404668
0.450541
0.471754
0.453178
0.422539
0.394799
0.379187
0.370006
0.366732
0.372935
3
2.99998
2.99994
2.9998
2.99961
2.99882
2.99771
2.99327
2.98663
2.96268
2.91738
2.79359
2.48226
1.86602
0.886235
0.464124
0.473334
0.486427
0.481776
0.461581
0.442955
0.435005
0.434804
0.445948
0.477292
3
2.99998
2.99995
2.99984
2.99967
2.99903
2.99807
2.99463
2.98843
2.96958
2.92527
2.82072
2.52582
1.97635
0.999937
0.537683
0.490311
0.503396
0.509139
0.499453
0.492231
0.494275
0.510496
0.55134
0.650213
3
2.99995
2.9999
2.99967
2.99935
2.99806
2.99621
2.98914
2.97734
2.9391
2.85203
2.65079
2.11687
1.28519
0.536111
0.274958
0.328728
0.344965
0.312419
0.257217
0.204298
0.161954
0.119617
0.0731487
0.0395031
3
2.99995
2.9999
2.99967
2.99936
2.99809
2.99626
2.98928
2.97766
2.93989
2.85418
2.65533
2.1287
1.30015
0.544073
0.275629
0.330623
0.347597
0.315255
0.260854
0.209299
0.168589
0.128792
0.0878208
0.0627066
3
2.99996
2.9999
2.99968
2.99938
2.99814
2.99637
2.98956
2.97832
2.9415
2.85868
2.66486
2.15445
1.33383
0.562851
0.279598
0.336766
0.355514
0.32403
0.271785
0.223295
0.186116
0.151352
0.118519
0.100551
3
2.99996
2.99991
2.9997
2.9994
2.99821
2.99652
2.98996
2.9793
2.94386
2.86565
2.67927
2.19427
1.38678
0.591751
0.286896
0.346987
0.368564
0.338572
0.289387
0.244811
0.211988
0.182575
0.156304
0.142162
3
2.99996
2.99991
2.99971
2.99943
2.99829
2.99668
2.99026
2.98047
2.94614
2.87624
2.69847
2.25074
1.46238
0.633124
0.302309
0.36368
0.388034
0.359472
0.313718
0.272788
0.244127
0.21949
0.198267
0.186733
3
2.99996
2.99992
2.99973
2.99947
2.9984
2.9969
2.99091
2.98189
2.94957
2.88781
2.72112
2.31633
1.5574
0.68555
0.328695
0.388541
0.414314
0.387014
0.344711
0.307378
0.282544
0.262529
0.245966
0.237015
3
2.99997
2.99992
2.99975
2.99951
2.99854
2.99716
2.99168
2.98345
2.95373
2.89882
2.74421
2.38491
1.66135
0.747194
0.368168
0.422944
0.447094
0.421437
0.382556
0.348952
0.327742
0.312174
0.300955
0.297141
3
2.99997
2.99993
2.99978
2.99956
2.99867
2.99742
2.99244
2.98498
2.95787
2.90825
2.76697
2.43705
1.75235
0.80344
0.404668
0.450541
0.471754
0.453178
0.422539
0.394799
0.379187
0.370006
0.366732
0.372935
3
2.99998
2.99994
2.9998
2.99961
2.99882
2.99771
2.99327
2.98663
2.96268
2.91738
2.79359
2.48226
1.86602
0.886235
0.464124
0.473334
0.486427
0.481776
0.461581
0.442955
0.435005
0.434804
0.445948
0.477292
3
2.99998
2.99995
2.99984
2.99967
2.99903
2.99807
2.99463
2.98843
2.96958
2.92527
2.82072
2.52582
1.97635
0.999937
0.537683
0.490311
0.503396
0.509139
0.499453
0.492231
0.494275
0.510496
0.55134
0.650213
3
2.99995
2.9999
2.99967
2.99935
2.99806
2.99621
2.98914
2.97734
2.9391
2.85203
2.65079
2.11687
1.28519
0.536111
0.274958
0.328728
0.344965
0.312419
0.257217
0.204298
0.161954
0.119617
0.0731486
0.039503
3
2.99995
2.9999
2.99967
2.99936
2.99809
2.99626
2.98928
2.97766
2.93989
2.85418
2.65533
2.1287
1.30015
0.544073
0.275629
0.330623
0.347597
0.315255
0.260854
0.209299
0.168589
0.128792
0.0878208
0.0627066
3
2.99996
2.9999
2.99968
2.99938
2.99814
2.99637
2.98956
2.97832
2.9415
2.85868
2.66486
2.15445
1.33383
0.562851
0.279598
0.336766
0.355514
0.32403
0.271785
0.223295
0.186116
0.151352
0.118519
0.100551
3
2.99996
2.99991
2.9997
2.9994
2.99821
2.99652
2.98996
2.9793
2.94386
2.86565
2.67927
2.19427
1.38678
0.591751
0.286896
0.346987
0.368564
0.338572
0.289387
0.244811
0.211988
0.182575
0.156304
0.142162
3
2.99996
2.99991
2.99971
2.99943
2.99829
2.99668
2.99026
2.98047
2.94614
2.87624
2.69847
2.25074
1.46238
0.633124
0.302309
0.36368
0.388034
0.359472
0.313718
0.272788
0.244127
0.21949
0.198267
0.186733
3
2.99996
2.99992
2.99973
2.99947
2.9984
2.9969
2.99091
2.98189
2.94957
2.88781
2.72112
2.31633
1.5574
0.68555
0.328695
0.388541
0.414314
0.387014
0.344711
0.307378
0.282544
0.262529
0.245966
0.237015
3
2.99997
2.99992
2.99975
2.99951
2.99854
2.99716
2.99168
2.98345
2.95373
2.89882
2.74421
2.38491
1.66135
0.747194
0.368168
0.422945
0.447094
0.421437
0.382556
0.348952
0.327742
0.312174
0.300955
0.297141
3
2.99997
2.99993
2.99978
2.99956
2.99867
2.99742
2.99244
2.98498
2.95787
2.90825
2.76697
2.43705
1.75235
0.80344
0.404668
0.450541
0.471754
0.453178
0.422539
0.394799
0.379187
0.370006
0.366732
0.372935
3
2.99998
2.99994
2.9998
2.99961
2.99882
2.99771
2.99327
2.98663
2.96268
2.91738
2.79359
2.48226
1.86602
0.886235
0.464124
0.473334
0.486427
0.481776
0.461581
0.442955
0.435005
0.434804
0.445948
0.477292
3
2.99998
2.99995
2.99984
2.99967
2.99903
2.99807
2.99463
2.98843
2.96958
2.92527
2.82072
2.52582
1.97635
0.999937
0.537683
0.490311
0.503396
0.509139
0.499453
0.492231
0.494275
0.510496
0.55134
0.650213
3
2.99995
2.9999
2.99967
2.99935
2.99806
2.99621
2.98914
2.97734
2.9391
2.85203
2.65079
2.11687
1.28519
0.536111
0.274958
0.328728
0.344965
0.312419
0.257217
0.204298
0.161954
0.119617
0.0731486
0.039503
3
2.99995
2.9999
2.99967
2.99936
2.99809
2.99626
2.98928
2.97766
2.93989
2.85418
2.65533
2.1287
1.30015
0.544073
0.275629
0.330623
0.347597
0.315255
0.260854
0.209299
0.168589
0.128792
0.0878208
0.0627066
3
2.99996
2.9999
2.99968
2.99938
2.99814
2.99637
2.98956
2.97832
2.9415
2.85868
2.66486
2.15445
1.33383
0.562851
0.279598
0.336766
0.355514
0.32403
0.271785
0.223295
0.186116
0.151352
0.118519
0.100551
3
2.99996
2.99991
2.9997
2.9994
2.99821
2.99652
2.98996
2.9793
2.94386
2.86565
2.67927
2.19427
1.38678
0.591751
0.286896
0.346987
0.368564
0.338572
0.289387
0.244811
0.211988
0.182575
0.156304
0.142162
3
2.99996
2.99991
2.99971
2.99943
2.99829
2.99668
2.99026
2.98047
2.94614
2.87624
2.69847
2.25074
1.46238
0.633124
0.302309
0.36368
0.388034
0.359472
0.313718
0.272788
0.244127
0.21949
0.198267
0.186733
3
2.99996
2.99992
2.99973
2.99947
2.9984
2.9969
2.99091
2.98189
2.94957
2.88781
2.72112
2.31633
1.5574
0.68555
0.328695
0.388541
0.414314
0.387014
0.344711
0.307378
0.282544
0.262529
0.245966
0.237015
3
2.99997
2.99992
2.99975
2.99951
2.99854
2.99716
2.99168
2.98345
2.95373
2.89882
2.74421
2.38491
1.66135
0.747194
0.368168
0.422945
0.447094
0.421437
0.382556
0.348952
0.327742
0.312174
0.300955
0.297141
3
2.99997
2.99993
2.99978
2.99956
2.99867
2.99742
2.99244
2.98498
2.95787
2.90825
2.76697
2.43705
1.75235
0.80344
0.404668
0.450541
0.471754
0.453178
0.422539
0.394799
0.379187
0.370006
0.366732
0.372935
3
2.99998
2.99994
2.9998
2.99961
2.99882
2.99771
2.99327
2.98663
2.96268
2.91738
2.79359
2.48226
1.86602
0.886235
0.464124
0.473334
0.486427
0.481776
0.461581
0.442955
0.435005
0.434804
0.445948
0.477292
3
2.99998
2.99995
2.99984
2.99967
2.99903
2.99807
2.99463
2.98843
2.96958
2.92527
2.82072
2.52582
1.97635
0.999937
0.537683
0.490311
0.503396
0.509139
0.499453
0.492231
0.494275
0.510496
0.55134
0.650213
3
2.99995
2.9999
2.99967
2.99935
2.99806
2.99621
2.98914
2.97734
2.9391
2.85203
2.65079
2.11687
1.28519
0.536111
0.274958
0.328728
0.344965
0.312418
0.257217
0.204298
0.161954
0.119617
0.0731486
0.039503
3
2.99995
2.9999
2.99967
2.99936
2.99809
2.99626
2.98928
2.97766
2.93989
2.85418
2.65533
2.1287
1.30015
0.544072
0.275629
0.330623
0.347597
0.315255
0.260854
0.209299
0.168589
0.128792
0.0878208
0.0627065
3
2.99996
2.9999
2.99968
2.99938
2.99814
2.99637
2.98956
2.97832
2.9415
2.85868
2.66486
2.15445
1.33383
0.562851
0.279598
0.336766
0.355514
0.32403
0.271785
0.223295
0.186116
0.151352
0.118519
0.100551
3
2.99996
2.99991
2.9997
2.9994
2.99821
2.99652
2.98996
2.9793
2.94386
2.86565
2.67927
2.19427
1.38678
0.591751
0.286896
0.346987
0.368564
0.338572
0.289387
0.244811
0.211988
0.182575
0.156304
0.142162
3
2.99996
2.99991
2.99971
2.99943
2.99829
2.99668
2.99026
2.98047
2.94614
2.87624
2.69847
2.25074
1.46238
0.633124
0.302309
0.36368
0.388034
0.359472
0.313718
0.272788
0.244127
0.21949
0.198267
0.186733
3
2.99996
2.99992
2.99973
2.99947
2.9984
2.9969
2.99091
2.98189
2.94957
2.88781
2.72112
2.31633
1.5574
0.68555
0.328695
0.388541
0.414314
0.387014
0.344711
0.307378
0.282544
0.262529
0.245966
0.237015
3
2.99997
2.99992
2.99975
2.99951
2.99854
2.99716
2.99168
2.98345
2.95373
2.89882
2.74421
2.38491
1.66135
0.747194
0.368168
0.422945
0.447094
0.421437
0.382556
0.348952
0.327742
0.312174
0.300955
0.297141
3
2.99997
2.99993
2.99978
2.99956
2.99867
2.99742
2.99244
2.98498
2.95787
2.90825
2.76697
2.43705
1.75235
0.80344
0.404668
0.450541
0.471754
0.453178
0.422539
0.394799
0.379187
0.370006
0.366732
0.372935
3
2.99998
2.99994
2.9998
2.99961
2.99882
2.99771
2.99327
2.98663
2.96268
2.91738
2.79359
2.48226
1.86602
0.886235
0.464124
0.473334
0.486427
0.481776
0.461581
0.442955
0.435005
0.434805
0.445948
0.477292
3
2.99998
2.99995
2.99984
2.99967
2.99903
2.99807
2.99463
2.98843
2.96958
2.92527
2.82072
2.52582
1.97635
0.999937
0.537683
0.490311
0.503396
0.509139
0.499454
0.492232
0.494275
0.510496
0.55134
0.650213
3
2.99995
2.9999
2.99967
2.99935
2.99806
2.99621
2.98914
2.97734
2.9391
2.85203
2.65079
2.11687
1.28519
0.536112
0.274958
0.328728
0.344965
0.312418
0.257217
0.204298
0.161954
0.119616
0.0731484
0.0395029
3
2.99995
2.9999
2.99967
2.99936
2.99809
2.99626
2.98928
2.97766
2.93989
2.85418
2.65534
2.1287
1.30015
0.544073
0.275628
0.330623
0.347597
0.315255
0.260854
0.209299
0.168589
0.128792
0.0878206
0.0627064
3
2.99996
2.9999
2.99968
2.99938
2.99814
2.99637
2.98956
2.97832
2.9415
2.85868
2.66486
2.15445
1.33383
0.562852
0.279597
0.336766
0.355514
0.32403
0.271785
0.223295
0.186116
0.151352
0.118519
0.100551
3
2.99996
2.99991
2.9997
2.9994
2.99821
2.99652
2.98996
2.9793
2.94386
2.86565
2.67927
2.19427
1.38678
0.591752
0.286896
0.346987
0.368564
0.338572
0.289387
0.244811
0.211988
0.182575
0.156303
0.142161
3
2.99996
2.99991
2.99971
2.99943
2.99829
2.99668
2.99026
2.98047
2.94614
2.87624
2.69847
2.25074
1.46239
0.633125
0.302308
0.36368
0.388034
0.359472
0.313719
0.272788
0.244127
0.21949
0.198267
0.186732
3
2.99996
2.99992
2.99973
2.99947
2.9984
2.9969
2.99092
2.98189
2.94957
2.88781
2.72112
2.31633
1.5574
0.685551
0.328696
0.388541
0.414314
0.387015
0.344711
0.307378
0.282544
0.262529
0.245966
0.237015
3
2.99997
2.99992
2.99975
2.99951
2.99854
2.99716
2.99168
2.98345
2.95373
2.89882
2.74421
2.38491
1.66135
0.747195
0.368169
0.422945
0.447094
0.421438
0.382556
0.348952
0.327742
0.312174
0.300955
0.297141
3
2.99997
2.99993
2.99978
2.99956
2.99867
2.99742
2.99244
2.98498
2.95787
2.90825
2.76697
2.43705
1.75235
0.803441
0.404669
0.450541
0.471754
0.453178
0.422539
0.394799
0.379187
0.370006
0.366732
0.372934
3
2.99998
2.99994
2.9998
2.99961
2.99882
2.99771
2.99327
2.98663
2.96268
2.91739
2.79359
2.48226
1.86602
0.886236
0.464125
0.473334
0.486427
0.481776
0.461581
0.442955
0.435005
0.434805
0.445948
0.477291
3
2.99998
2.99995
2.99984
2.99967
2.99903
2.99807
2.99463
2.98843
2.96958
2.92527
2.82072
2.52582
1.97635
0.999939
0.537684
0.490311
0.503396
0.509139
0.499454
0.492232
0.494275
0.510496
0.55134
0.650213
3.00002
2.99997
2.99992
2.99969
2.99937
2.99808
2.99623
2.98917
2.97736
2.93914
2.85206
2.65085
2.11693
1.2853
0.536239
0.275174
0.328918
0.345152
0.312626
0.257473
0.204624
0.16237
0.120186
0.0740884
0.0412421
3.00002
2.99997
2.99992
2.99969
2.99938
2.99811
2.99628
2.98931
2.97768
2.93993
2.85421
2.6554
2.12876
1.30026
0.544199
0.275844
0.330811
0.347781
0.31546
0.261104
0.209614
0.168984
0.129315
0.0885956
0.0638011
3.00002
2.99997
2.99992
2.9997
2.9994
2.99816
2.99639
2.98958
2.97834
2.94153
2.85871
2.66492
2.1545
1.33394
0.562974
0.279812
0.336952
0.355694
0.324229
0.272024
0.223589
0.186471
0.151793
0.119087
0.101227
3.00002
2.99998
2.99992
2.99971
2.99942
2.99823
2.99654
2.98999
2.97932
2.94391
2.86566
2.67933
2.19427
1.38686
0.591849
0.287098
0.347165
0.368735
0.338761
0.289609
0.245076
0.212296
0.182936
0.156729
0.142634
3.00002
2.99998
2.99993
2.99973
2.99945
2.99831
2.9967
2.99029
2.9805
2.94618
2.87626
2.69852
2.25075
1.46246
0.633212
0.302492
0.36384
0.388187
0.359641
0.313915
0.273019
0.244388
0.219785
0.198597
0.187086
3.00002
2.99998
2.99994
2.99975
2.99949
2.99842
2.99692
2.99094
2.98191
2.9496
2.88783
2.72117
2.31636
1.55748
0.685637
0.32887
0.38869
0.414453
0.387165
0.344883
0.307576
0.282763
0.262769
0.246226
0.237288
3.00002
2.99998
2.99994
2.99977
2.99953
2.99856
2.99718
2.9917
2.98347
2.95375
2.89885
2.74426
2.38494
1.66141
0.747275
0.368327
0.423079
0.447218
0.421571
0.382706
0.349121
0.327925
0.31237
0.301161
0.297352
3.00002
2.99999
2.99995
2.9998
2.99958
2.99869
2.99744
2.99246
2.98501
2.95789
2.90828
2.76701
2.43708
1.75242
0.803521
0.404819
0.450666
0.471869
0.453299
0.422671
0.394944
0.37934
0.370165
0.366895
0.373095
3.00002
2.99999
2.99996
2.99982
2.99963
2.99884
2.99773
2.99329
2.98665
2.96271
2.9174
2.79363
2.48227
1.86609
0.886308
0.464257
0.473448
0.486538
0.481888
0.461699
0.443081
0.435133
0.434934
0.446075
0.477408
3.00002
3
2.99997
2.99986
2.99969
2.99905
2.99809
2.99465
2.98845
2.9696
2.92529
2.82076
2.52585
1.97641
1.00001
0.5378
0.490422
0.503503
0.509245
0.499562
0.492342
0.494384
0.510601
0.551435
0.65029
3.00002
3.00001
2.99996
2.9999
2.99965
2.9993
2.9979
2.99577
2.98817
2.97438
2.93274
2.83316
2.61263
2.03632
1.18049
0.628297
0.514139
0.527041
0.539009
0.538199
0.540382
0.555083
0.593776
0.677058
0.854943
3.00002
3.00001
2.99997
2.99992
2.9997
2.99939
2.99816
2.99638
2.9896
2.97832
2.94167
2.85883
2.66598
2.15886
1.35033
0.721417
0.538748
0.553174
0.57075
0.578223
0.589004
0.616356
0.673225
0.777469
0.965703
3.00002
3.00001
2.99998
2.99993
2.99974
2.99948
2.9984
2.99688
2.9908
2.98167
2.94897
2.88571
2.7183
2.30593
1.55487
0.831529
0.577795
0.589528
0.606421
0.619639
0.636503
0.671884
0.737277
0.841346
1.00383
3.00002
3.00001
2.99999
2.99995
2.99979
2.99957
2.99868
2.99743
2.99243
2.98498
2.95782
2.90921
2.76696
2.45422
1.77671
0.954738
0.636942
0.637218
0.650056
0.666142
0.686066
0.723488
0.787668
0.881272
1.01746
3.00002
3.00002
2.99999
2.99996
2.99984
2.99966
2.99896
2.99795
2.99401
2.98793
2.96689
2.92523
2.81486
2.537
1.97139
1.08105
0.705273
0.676524
0.689713
0.706993
0.729983
0.767403
0.829733
0.912592
1.02663
3.00002
3.00002
3.00001
2.99997
2.99991
2.99968
2.99934
2.99805
2.99607
2.98917
2.97625
2.93857
2.84661
2.64539
2.10492
1.29874
0.811423
0.711871
0.723206
0.741563
0.768104
0.804415
0.860755
0.937663
1.03523
3.00002
3.00002
3.00001
2.99998
2.99993
2.99973
2.99946
2.99836
2.99681
2.9906
2.98127
2.94831
2.88255
2.7141
2.2939
1.54963
0.934627
0.749663
0.752729
0.771913
0.803287
0.839633
0.889155
0.957253
1.04247
3.00002
3.00002
3.00001
2.99999
2.99995
2.9998
2.99959
2.99876
2.99755
2.99286
2.98569
2.96027
2.91378
2.77976
2.48635
1.83515
1.0941
0.813215
0.794782
0.807874
0.835186
0.872414
0.918157
0.977895
1.05186
3.00002
3.00002
3.00002
3
2.99996
2.99989
2.99963
2.99925
2.9978
2.99561
2.98769
2.97394
2.93134
2.83331
2.61519
2.06519
1.27552
0.888723
0.834764
0.84586
0.868649
0.902616
0.943704
0.996164
1.06094
3.00003
3.00002
3.00002
3.00001
2.99998
2.99993
2.99973
2.99945
2.99833
2.99671
2.99062
2.98047
2.94774
2.87496
2.70316
2.26328
1.51744
1.00611
0.874538
0.876888
0.897688
0.931092
0.970376
1.0161
1.07214
3.00003
3.00003
3.00002
3.00001
3
2.99994
2.99985
2.99952
2.99904
2.99722
2.99432
2.98461
2.96526
2.91266
2.77928
2.50559
1.85446
1.19131
0.939876
0.917242
0.928955
0.957016
0.994662
1.03671
1.08495
3.00003
3.00003
3.00002
3.00002
3.00001
2.99996
2.9999
2.99965
2.9993
2.99792
2.99589
2.98837
2.97566
2.93569
2.84494
2.64206
2.12318
1.38019
1.0176
0.956651
0.964026
0.986232
1.01979
1.05842
1.10199
3.00003
3.00003
3.00003
3.00002
3.00001
2.99999
2.99992
2.99982
2.99942
2.99882
2.99669
2.99299
2.9815
2.95601
2.89243
2.72331
2.3899
1.6442
1.15634
1.00478
0.998018
1.01155
1.04004
1.07722
1.11741
3.00003
3.00003
3.00003
3.00002
3.00001
3
2.99995
2.99987
2.99958
2.99915
2.99748
2.99507
2.98585
2.97124
2.92347
2.82336
2.58066
2.0482
1.34652
1.0806
1.04104
1.04602
1.06636
1.09838
1.13526
3.00003
3.00003
3.00003
3.00002
3.00002
3.00001
2.99998
2.9999
2.99978
2.99931
2.99862
2.99602
2.99195
2.97818
2.95147
2.87816
2.69853
2.32567
1.59509
1.19056
1.08124
1.07669
1.08901
1.11596
1.15157
3.00003
3.00003
3.00003
3.00003
3.00002
3.00001
3
2.99994
2.99986
2.99953
2.99907
2.99726
2.99463
2.98483
2.96879
2.91863
2.8088
2.55952
2.00159
1.37863
1.1462
1.11533
1.11929
1.13917
1.16904
3.00003
3.00003
3.00003
3.00003
3.00002
3.00002
3
2.99998
2.99989
2.99976
2.99925
2.9985
2.99571
2.99139
2.97633
2.94904
2.87224
2.69256
2.29757
1.59886
1.23912
1.15191
1.14808
1.15982
1.18433
3.00003
3.00003
3.00003
3.00003
3.00003
3.00002
3.00001
3
2.99994
2.99985
2.99952
2.99904
2.9972
2.99449
2.98463
2.96805
2.91711
2.80179
2.55535
1.97499
1.41857
1.21043
1.1824
1.18611
1.20494
3.00003
3.00003
3.00003
3.00003
3.00003
3.00002
3.00002
3
2.99998
2.99989
2.99975
2.99925
2.99849
2.99571
2.99129
2.9764
2.94884
2.8715
2.6992
2.29108
1.64747
1.30916
1.22281
1.21539
1.22474
3.00003
3.00003
3.00003
3.00003
3.00003
3.00003
3.00002
3.00002
2.99999
2.99995
2.99982
2.99961
2.99885
2.99771
2.99356
2.98694
2.965
2.92354
2.81115
2.56398
2.01676
1.47557
1.27889
1.24912
1.25146
3.00003
3.00003
3.00003
3.00003
3.00003
3.00003
3.00002
3.00002
3
2.99998
2.99989
2.99976
2.99927
2.99856
2.99586
2.99182
2.9774
2.95261
2.87982
2.721
2.35382
1.72183
1.37802
1.28724
1.27854
3.00003
3.00003
3.00003
3.00003
3.00003
3.00003
3.00003
3.00002
3.00002
2.99999
2.99996
2.99983
2.99965
2.99895
2.9979
2.99413
2.98808
2.96823
2.93125
2.82838
2.61351
2.103
1.56068
1.34589
1.31212
3.00003
3.00003
3.00003
3.00003
3.00003
3.00003
3.00003
3.00003
3.00002
3.00001
2.99999
2.9999
2.99979
2.99934
2.99871
2.99627
2.99271
2.9797
2.95816
2.89342
2.75301
2.43654
1.8217
1.45497
1.34828
3.00003
3.00003
3.00003
3.00003
3.00003
3.00003
3.00003
3.00003
3.00002
3.00002
3
2.99995
2.99988
2.99962
2.99923
2.99777
2.99566
2.98781
2.97552
2.9356
2.85741
2.66274
2.23479
1.65983
1.42252
3.00003
3.00003
3.00003
3.00003
3.00003
3.00003
3.00003
3.00003
3.00003
3.00002
3.00001
2.99998
2.99994
2.99978
2.99955
2.99867
2.9974
2.99265
2.98539
2.96068
2.91474
2.79415
2.51326
1.96252
1.55828
3.00003
3.00003
3.00003
3.00003
3.00003
3.00003
3.00003
3.00003
3.00003
3.00003
3.00002
3.00001
2.99997
2.99991
2.9997
2.99938
2.99823
2.99646
2.99033
2.97991
2.94822
2.87925
2.72418
2.34255
1.7781
3.00003
3.00003
3.00003
3.00003
3.00003
3.00003
3.00003
3.00003
3.00003
3.00003
3.00002
3.00001
3
2.99995
2.99987
2.99958
2.99915
2.9976
2.99519
2.98696
2.9728
2.9316
2.84137
2.63749
2.19585
3.00003
3.00003
3.00003
3.00003
3.00003
3.00003
3.00003
3.00003
3.00003
3.00003
3.00003
3.00002
3.00001
2.99999
2.99992
2.99981
2.99942
2.99882
2.99671
2.99337
2.98237
2.96187
2.90757
2.78162
2.50505
3.00003
3.00003
3.00003
3.00003
3.00003
3.00003
3.00003
3.00003
3.00003
3.00003
3.00003
3.00003
3.00002
3.00001
2.99996
2.9999
2.99968
2.99934
2.99811
2.9963
2.9897
2.97937
2.94588
2.88072
2.72075
3.00003
3.00003
3.00003
3.00003
3.00003
3.00003
3.00003
3.00003
3.00003
3.00003
3.00003
3.00003
3.00002
3.00001
3
2.99995
2.99987
2.99958
2.99915
2.99762
2.99523
2.98722
2.97325
2.93286
2.84582
3.00003
3.00003
3.00003
3.00003
3.00003
3.00003
3.00003
3.00003
3.00003
3.00003
3.00003
3.00003
3.00003
3.00002
3.00001
2.99999
2.99992
2.99982
2.99944
2.99887
2.99687
2.99367
2.9832
2.96434
2.91102
3.00003
3.00003
3.00003
3.00003
3.00003
3.00003
3.00003
3.00003
3.00003
3.00003
3.00003
3.00003
3.00003
3.00002
3.00002
3
2.99998
2.99989
2.99975
2.99927
2.99853
2.99597
2.99182
2.9785
2.95443
3.00003
3.00003
3.00003
3.00003
3.00003
3.00003
3.00003
3.00003
3.00003
3.00003
3.00003
3.00003
3.00003
3.00003
3.00002
3.00002
3
2.99995
2.99988
2.99962
2.99923
2.99783
2.99571
2.98847
2.97635
3.00003
3.00003
3.00003
3.00003
3.00003
3.00003
3.00003
3.00003
3.00003
3.00003
3.00003
3.00003
3.00003
3.00003
3.00003
3.00002
3.00001
2.99999
2.99994
2.99984
2.99952
2.99903
2.99733
2.99464
2.98583
3.00003
3.00003
3.00003
3.00003
3.00003
3.00003
3.00003
3.00003
3.00003
3.00003
3.00003
3.00003
3.00003
3.00003
3.00003
3.00003
3.00002
3.00001
2.99999
2.99991
2.9998
2.9994
2.99878
2.99667
2.99325
3.00003
3.00003
3.00003
3.00003
3.00003
3.00003
3.00003
3.00003
3.00003
3.00003
3.00003
3.00003
3.00003
3.00003
3.00003
3.00003
3.00002
3.00002
3
2.99998
2.99988
2.99974
2.99925
2.99848
2.99588
3.00003
3.00003
3.00003
3.00003
3.00003
3.00003
3.00003
3.00003
3.00003
3.00003
3.00003
3.00003
3.00003
3.00003
3.00003
3.00003
3.00003
3.00002
3.00002
2.99999
2.99996
2.99984
2.99966
2.99903
2.99806
3.00003
3.00003
3.00003
3.00003
3.00003
3.00003
3.00003
3.00003
3.00003
3.00003
3.00003
3.00003
3.00003
3.00003
3.00003
3.00003
3.00003
3.00003
3.00002
3.00001
2.99999
2.99991
2.99981
2.9994
2.99881
3.00003
3.00003
3.00003
3.00003
3.00003
3.00003
3.00003
3.00003
3.00003
3.00003
3.00003
3.00003
3.00003
3.00003
3.00003
3.00003
3.00003
3.00003
3.00002
3.00002
2.99999
2.99996
2.99983
2.99963
2.99888
3.00003
3.00003
3.00003
3.00003
3.00003
3.00003
3.00003
3.00003
3.00003
3.00003
3.00003
3.00003
3.00003
3.00003
3.00003
3.00003
3.00003
3.00003
3.00002
3.00002
3
2.99997
2.99985
2.99968
2.99899
3
2.99999
2.99994
2.99988
2.99963
2.99928
2.99788
2.99575
2.98815
2.97436
2.93271
2.83313
2.61258
2.03628
1.18041
0.628196
0.514033
0.526938
0.538909
0.5381
0.540284
0.554988
0.59369
0.676988
0.8549
3
2.99999
2.99995
2.9999
2.99968
2.99937
2.99814
2.99636
2.98957
2.9783
2.94164
2.8588
2.66593
2.15881
1.35025
0.721328
0.538645
0.553074
0.570655
0.578131
0.588915
0.616273
0.673153
0.777411
0.965666
3
2.99999
2.99996
2.99991
2.99972
2.99946
2.99838
2.99686
2.99078
2.98165
2.94894
2.88569
2.71826
2.3059
1.5548
0.83146
0.577701
0.589434
0.606331
0.619553
0.636422
0.67181
0.737213
0.841295
1.0038
3
3
2.99997
2.99993
2.99977
2.99955
2.99866
2.99741
2.99241
2.98496
2.9578
2.90918
2.76692
2.45419
1.77665
0.95468
0.636857
0.637135
0.649975
0.666065