/*--------------------------------*- C++ -*----------------------------------*\
| =========                 |                                                 |
| \\      /  F ield         | OpenFOAM: The Open Source CFD Toolbox           |
|  \\    /   O peration     | Version:  4.1                                   |
|   \\  /    A nd           | Web:      www.OpenFOAM.org                      |
|    \\/     M anipulation  |                                                 |
\*---------------------------------------------------------------------------*/
FoamFile
{
    version     2.0;
    format      ascii;
    class       volScalarField;
    location    "5.62";
    object      Ma;
}
// * * * * * * * * * * * * * * * * * * * * * * * * * * * * * * * * * * * * * //

dimensions      [0 0 0 0 0 0 0];

internalField   nonuniform List<scalar> 
52500
(
3.00002
2.99997
2.99991
2.99966
2.99931
2.99791
2.9959
2.98815
2.97543
2.93349
2.8393
2.62098
2.05657
1.19758
0.501332
0.293921
0.334542
0.34578
0.31441
0.260832
0.208588
0.166381
0.124807
0.0786761
0.0448814
3.00002
2.99997
2.99991
2.99966
2.99932
2.99794
2.99596
2.98833
2.97575
2.93444
2.84128
2.62566
2.0647
1.20955
0.507544
0.293512
0.335261
0.347046
0.315752
0.262808
0.211873
0.171231
0.132056
0.091573
0.0678774
3.00002
2.99997
2.99991
2.99967
2.99935
2.998
2.99607
2.98869
2.97639
2.93641
2.84543
2.63557
2.08277
1.23642
0.522184
0.294345
0.338536
0.351957
0.321524
0.270796
0.223281
0.186587
0.152859
0.121355
0.106227
3.00002
2.99997
2.99992
2.99969
2.99937
2.99809
2.99624
2.98919
2.97736
2.93917
2.85181
2.65038
2.11361
1.28049
0.546621
0.297953
0.345637
0.361879
0.333048
0.28559
0.242372
0.210424
0.182636
0.158637
0.148172
3.00002
2.99997
2.99992
2.99971
2.99941
2.99819
2.99644
2.98972
2.97863
2.94227
2.86044
2.66849
2.16289
1.34523
0.58279
0.306435
0.357581
0.377219
0.350125
0.306464
0.267672
0.240586
0.218154
0.199808
0.19253
3.00002
2.99998
2.99993
2.99972
2.99944
2.99829
2.99665
2.9902
2.98011
2.94545
2.87238
2.69151
2.22861
1.43296
0.63108
0.322669
0.376073
0.39911
0.373669
0.333773
0.299188
0.27645
0.259277
0.24626
0.241958
3.00002
2.99998
2.99993
2.99975
2.99948
2.99841
2.99691
2.99087
2.98177
2.94917
2.88635
2.71819
2.30621
1.54302
0.691508
0.350671
0.403465
0.428142
0.404006
0.367701
0.337137
0.318889
0.306652
0.299372
0.300422
3.00002
2.99998
2.99994
2.99977
2.99954
2.99857
2.9972
2.99176
2.98357
2.95399
2.89932
2.74507
2.38695
1.66488
0.761008
0.392282
0.440993
0.463356
0.440705
0.408423
0.381434
0.367847
0.361896
0.362623
0.373551
3.00002
2.99999
2.99995
2.9998
2.99959
2.99872
2.9975
2.99259
2.9853
2.95857
2.90992
2.77067
2.44621
1.76796
0.823808
0.431546
0.470805
0.489866
0.475095
0.45103
0.430727
0.42297
0.424924
0.439157
0.473915
3.00002
3
2.99996
2.99984
2.99966
2.99895
2.99789
2.99401
2.98731
2.96612
2.91796
2.80219
2.49007
1.88858
0.924129
0.498421
0.493894
0.506599
0.506026
0.491551
0.481484
0.482191
0.498543
0.540711
0.640414
3
2.99995
2.99989
2.99964
2.9993
2.99789
2.99588
2.98813
2.97541
2.93345
2.83927
2.62091
2.05648
1.19743
0.501183
0.293732
0.334362
0.345598
0.314208
0.260585
0.208274
0.165981
0.124263
0.0777954
0.0432937
3
2.99995
2.99989
2.99965
2.99931
2.99792
2.99594
2.9883
2.97572
2.93441
2.84124
2.62559
2.06462
1.20941
0.507397
0.293325
0.335082
0.346866
0.315552
0.262566
0.211567
0.170846
0.131548
0.0908274
0.0668545
3
2.99995
2.99989
2.99966
2.99933
2.99798
2.99605
2.98867
2.97637
2.93637
2.8454
2.63549
2.08269
1.23627
0.522042
0.294159
0.338361
0.35178
0.321329
0.270563
0.222993
0.186237
0.152426
0.120802
0.105587
3
2.99995
2.9999
2.99967
2.99935
2.99807
2.99622
2.98916
2.97734
2.93914
2.85177
2.65031
2.11352
1.28035
0.546483
0.297766
0.345463
0.361705
0.332859
0.285368
0.242108
0.210116
0.182278
0.158221
0.147722
3
2.99996
2.9999
2.99969
2.99939
2.99817
2.99642
2.9897
2.9786
2.94224
2.8604
2.66842
2.1628
1.34508
0.582657
0.306248
0.357409
0.377051
0.349944
0.306258
0.267435
0.24032
0.217859
0.199483
0.192191
3
2.99996
2.99991
2.99971
2.99942
2.99827
2.99663
2.99017
2.98008
2.9454
2.87236
2.69145
2.22856
1.43283
0.630973
0.3225
0.375916
0.398958
0.373505
0.333589
0.29898
0.276223
0.259033
0.246002
0.241693
3
2.99996
2.99992
2.99973
2.99947
2.99839
2.99688
2.99084
2.98175
2.94914
2.88632
2.71813
2.30614
1.54289
0.691404
0.350506
0.403316
0.428003
0.403859
0.367538
0.336957
0.318697
0.306451
0.299164
0.300214
3
2.99997
2.99993
2.99976
2.99952
2.99855
2.99718
2.99174
2.98355
2.95397
2.89929
2.74502
2.38689
1.66479
0.760913
0.392131
0.440862
0.463237
0.440577
0.408281
0.38128
0.367685
0.36173
0.362457
0.373389
3
2.99997
2.99993
2.99978
2.99957
2.9987
2.99748
2.99257
2.98527
2.95854
2.90989
2.77062
2.44616
1.76786
0.823705
0.431393
0.470689
0.489767
0.474982
0.450906
0.430595
0.422836
0.424789
0.439027
0.473795
3
2.99998
2.99995
2.99982
2.99964
2.99892
2.99787
2.99399
2.98729
2.96609
2.91793
2.80214
2.49003
1.88846
0.924023
0.498282
0.493791
0.5065
0.505923
0.491442
0.481371
0.482078
0.498433
0.540611
0.640333
3
2.99995
2.99989
2.99964
2.9993
2.99789
2.99588
2.98813
2.97541
2.93345
2.83927
2.62091
2.05648
1.19743
0.501182
0.293733
0.334363
0.345598
0.314208
0.260586
0.208275
0.165981
0.124263
0.0777959
0.0432942
3
2.99995
2.99989
2.99965
2.99931
2.99792
2.99594
2.9883
2.97572
2.93441
2.84124
2.62559
2.06461
1.20941
0.507396
0.293326
0.335083
0.346866
0.315552
0.262567
0.211567
0.170846
0.131548
0.0908278
0.066855
3
2.99995
2.99989
2.99966
2.99933
2.99798
2.99605
2.98867
2.97637
2.93637
2.8454
2.63549
2.08268
1.23627
0.522041
0.294161
0.338361
0.351781
0.32133
0.270563
0.222993
0.186237
0.152426
0.120802
0.105588
3
2.99995
2.9999
2.99967
2.99935
2.99807
2.99622
2.98916
2.97734
2.93914
2.85177
2.6503
2.11352
1.28034
0.546481
0.297767
0.345463
0.361705
0.332859
0.285369
0.242109
0.210116
0.182278
0.158222
0.147722
3
2.99996
2.9999
2.99969
2.99939
2.99817
2.99642
2.9897
2.9786
2.94224
2.8604
2.66841
2.1628
1.34508
0.582655
0.306249
0.357409
0.377051
0.349944
0.306258
0.267435
0.24032
0.217859
0.199483
0.192192
3
2.99996
2.99991
2.99971
2.99942
2.99827
2.99663
2.99017
2.98008
2.9454
2.87236
2.69144
2.22856
1.43282
0.63097
0.3225
0.375915
0.398957
0.373505
0.333589
0.29898
0.276223
0.259033
0.246003
0.241694
3
2.99996
2.99992
2.99973
2.99947
2.99839
2.99688
2.99084
2.98175
2.94914
2.88632
2.71813
2.30614
1.54288
0.691401
0.350506
0.403315
0.428002
0.403858
0.367537
0.336957
0.318697
0.306451
0.299165
0.300215
3
2.99997
2.99993
2.99976
2.99952
2.99855
2.99718
2.99174
2.98355
2.95397
2.89929
2.74502
2.38688
1.66478
0.76091
0.392129
0.440862
0.463237
0.440577
0.40828
0.381279
0.367685
0.36173
0.362457
0.37339
3
2.99997
2.99993
2.99978
2.99957
2.9987
2.99748
2.99257
2.98527
2.95854
2.90989
2.77062
2.44616
1.76786
0.823701
0.431391
0.470689
0.489767
0.474982
0.450906
0.430594
0.422835
0.424789
0.439027
0.473796
3
2.99998
2.99995
2.99982
2.99964
2.99892
2.99787
2.99399
2.98729
2.96609
2.91793
2.80213
2.49002
1.88845
0.924018
0.49828
0.493792
0.506501
0.505923
0.491442
0.481371
0.482077
0.498432
0.540611
0.640333
3
2.99995
2.99989
2.99964
2.9993
2.99789
2.99588
2.98813
2.97541
2.93345
2.83927
2.62091
2.05648
1.19743
0.501182
0.293733
0.334363
0.345598
0.314208
0.260586
0.208275
0.165981
0.124263
0.0777959
0.0432942
3
2.99995
2.99989
2.99965
2.99931
2.99792
2.99594
2.9883
2.97572
2.93441
2.84124
2.62559
2.06461
1.20941
0.507396
0.293326
0.335083
0.346866
0.315552
0.262566
0.211567
0.170846
0.131548
0.0908278
0.066855
3
2.99995
2.99989
2.99966
2.99933
2.99798
2.99605
2.98867
2.97637
2.93637
2.8454
2.63549
2.08268
1.23627
0.522041
0.294161
0.338361
0.351781
0.321329
0.270563
0.222993
0.186237
0.152426
0.120802
0.105588
3
2.99995
2.9999
2.99967
2.99935
2.99807
2.99622
2.98916
2.97734
2.93914
2.85177
2.6503
2.11352
1.28034
0.546481
0.297767
0.345463
0.361705
0.332859
0.285369
0.242109
0.210116
0.182278
0.158222
0.147722
3
2.99996
2.9999
2.99969
2.99939
2.99817
2.99642
2.9897
2.9786
2.94224
2.8604
2.66841
2.1628
1.34508
0.582655
0.306249
0.357409
0.377051
0.349944
0.306258
0.267435
0.24032
0.217859
0.199483
0.192192
3
2.99996
2.99991
2.99971
2.99942
2.99827
2.99663
2.99017
2.98008
2.9454
2.87236
2.69144
2.22856
1.43282
0.63097
0.3225
0.375915
0.398957
0.373505
0.333589
0.29898
0.276223
0.259033
0.246003
0.241694
3
2.99996
2.99992
2.99973
2.99947
2.99839
2.99688
2.99084
2.98175
2.94914
2.88632
2.71813
2.30614
1.54288
0.691401
0.350506
0.403315
0.428003
0.403858
0.367537
0.336957
0.318697
0.306451
0.299165
0.300215
3
2.99997
2.99993
2.99976
2.99952
2.99855
2.99718
2.99174
2.98355
2.95397
2.89929
2.74502
2.38688
1.66478
0.760911
0.39213
0.440862
0.463237
0.440577
0.40828
0.381279
0.367685
0.36173
0.362457
0.37339
3
2.99997
2.99993
2.99978
2.99957
2.9987
2.99748
2.99257
2.98527
2.95854
2.90989
2.77062
2.44616
1.76786
0.823701
0.431391
0.470689
0.489767
0.474982
0.450906
0.430595
0.422835
0.424789
0.439027
0.473796
3
2.99998
2.99995
2.99982
2.99964
2.99892
2.99787
2.99399
2.98729
2.96609
2.91793
2.80213
2.49002
1.88845
0.924019
0.49828
0.493792
0.506501
0.505923
0.491442
0.481371
0.482077
0.498432
0.540611
0.640333
3
2.99995
2.99989
2.99964
2.9993
2.99789
2.99588
2.98813
2.97541
2.93345
2.83926
2.62091
2.05648
1.19743
0.501181
0.293733
0.334363
0.345599
0.314208
0.260586
0.208275
0.165981
0.124263
0.077796
0.0432943
3
2.99995
2.99989
2.99965
2.99931
2.99792
2.99594
2.9883
2.97572
2.93441
2.84124
2.62558
2.06461
1.2094
0.507396
0.293326
0.335083
0.346867
0.315552
0.262567
0.211568
0.170846
0.131548
0.090828
0.0668552
3
2.99995
2.99989
2.99966
2.99933
2.99798
2.99605
2.98867
2.97637
2.93637
2.8454
2.63549
2.08268
1.23627
0.52204
0.294161
0.338361
0.351781
0.32133
0.270564
0.222994
0.186238
0.152426
0.120802
0.105588
3
2.99995
2.9999
2.99967
2.99935
2.99807
2.99622
2.98916
2.97734
2.93914
2.85177
2.6503
2.11351
1.28034
0.54648
0.297768
0.345463
0.361706
0.332859
0.285369
0.242109
0.210117
0.182279
0.158222
0.147723
3
2.99996
2.9999
2.99969
2.99939
2.99817
2.99642
2.9897
2.9786
2.94224
2.8604
2.66841
2.1628
1.34508
0.582654
0.306249
0.357409
0.377051
0.349944
0.306258
0.267435
0.240321
0.217859
0.199483
0.192192
3
2.99996
2.99991
2.99971
2.99942
2.99827
2.99663
2.99017
2.98008
2.9454
2.87236
2.69144
2.22856
1.43282
0.630969
0.3225
0.375915
0.398957
0.373504
0.333589
0.29898
0.276223
0.259033
0.246003
0.241694
3
2.99996
2.99992
2.99973
2.99947
2.99839
2.99688
2.99084
2.98175
2.94914
2.88632
2.71812
2.30614
1.54288
0.6914
0.350505
0.403315
0.428002
0.403858
0.367537
0.336957
0.318697
0.306451
0.299165
0.300215
3
2.99997
2.99993
2.99976
2.99952
2.99855
2.99718
2.99174
2.98355
2.95397
2.89929
2.74502
2.38688
1.66478
0.760909
0.392129
0.440861
0.463237
0.440576
0.40828
0.381279
0.367685
0.36173
0.362457
0.37339
3
2.99997
2.99993
2.99978
2.99957
2.9987
2.99748
2.99257
2.98527
2.95854
2.90989
2.77062
2.44616
1.76785
0.8237
0.43139
0.470689
0.489767
0.474982
0.450906
0.430594
0.422835
0.424789
0.439027
0.473796
3
2.99998
2.99995
2.99982
2.99964
2.99892
2.99787
2.99399
2.98729
2.96609
2.91793
2.80213
2.49002
1.88845
0.924017
0.498279
0.493792
0.506501
0.505923
0.491441
0.481371
0.482077
0.498432
0.540611
0.640333
3
2.99995
2.99989
2.99964
2.9993
2.99789
2.99588
2.98813
2.97541
2.93345
2.83926
2.62091
2.05648
1.19743
0.501181
0.293733
0.334363
0.345599
0.314208
0.260586
0.208275
0.165981
0.124263
0.077796
0.0432943
3
2.99995
2.99989
2.99965
2.99931
2.99792
2.99594
2.9883
2.97572
2.93441
2.84124
2.62558
2.06461
1.2094
0.507396
0.293326
0.335083
0.346867
0.315552
0.262567
0.211568
0.170846
0.131548
0.090828
0.0668552
3
2.99995
2.99989
2.99966
2.99933
2.99798
2.99605
2.98867
2.97637
2.93637
2.8454
2.63549
2.08268
1.23627
0.52204
0.294161
0.338361
0.351781
0.32133
0.270564
0.222994
0.186238
0.152426
0.120802
0.105588
3
2.99995
2.9999
2.99967
2.99935
2.99807
2.99622
2.98916
2.97734
2.93914
2.85177
2.6503
2.11351
1.28034
0.54648
0.297768
0.345463
0.361706
0.332859
0.285369
0.242109
0.210117
0.182279
0.158222
0.147723
3
2.99996
2.9999
2.99969
2.99939
2.99817
2.99642
2.9897
2.9786
2.94224
2.8604
2.66841
2.1628
1.34508
0.582654
0.306249
0.357409
0.377051
0.349944
0.306258
0.267435
0.240321
0.217859
0.199483
0.192192
3
2.99996
2.99991
2.99971
2.99942
2.99827
2.99663
2.99017
2.98008
2.9454
2.87236
2.69144
2.22856
1.43282
0.630969
0.3225
0.375915
0.398957
0.373505
0.333589
0.29898
0.276223
0.259033
0.246003
0.241694
3
2.99996
2.99992
2.99973
2.99947
2.99839
2.99688
2.99084
2.98175
2.94914
2.88632
2.71812
2.30614
1.54288
0.6914
0.350505
0.403315
0.428002
0.403858
0.367537
0.336957
0.318697
0.306451
0.299165
0.300215
3
2.99997
2.99993
2.99976
2.99952
2.99855
2.99718
2.99174
2.98355
2.95397
2.89929
2.74502
2.38688
1.66478
0.76091
0.392129
0.440861
0.463237
0.440576
0.40828
0.381279
0.367685
0.36173
0.362457
0.37339
3
2.99997
2.99993
2.99978
2.99957
2.9987
2.99748
2.99257
2.98527
2.95854
2.90989
2.77062
2.44616
1.76785
0.8237
0.43139
0.470689
0.489767
0.474982
0.450906
0.430594
0.422835
0.424789
0.439027
0.473796
3
2.99998
2.99995
2.99982
2.99964
2.99892
2.99787
2.99399
2.98729
2.96609
2.91793
2.80213
2.49002
1.88845
0.924017
0.498279
0.493792
0.506501
0.505923
0.491441
0.481371
0.482077
0.498432
0.540611
0.640333
3
2.99995
2.99989
2.99964
2.9993
2.99789
2.99588
2.98813
2.97541
2.93345
2.83927
2.62091
2.05648
1.19743
0.501182
0.293733
0.334363
0.345598
0.314208
0.260586
0.208275
0.165981
0.124263
0.0777959
0.0432942
3
2.99995
2.99989
2.99965
2.99931
2.99792
2.99594
2.9883
2.97572
2.93441
2.84124
2.62559
2.06461
1.20941
0.507396
0.293326
0.335083
0.346866
0.315552
0.262567
0.211567
0.170846
0.131548
0.0908278
0.066855
3
2.99995
2.99989
2.99966
2.99933
2.99798
2.99605
2.98867
2.97637
2.93637
2.8454
2.63549
2.08268
1.23627
0.522041
0.294161
0.338361
0.351781
0.32133
0.270563
0.222993
0.186237
0.152426
0.120802
0.105588
3
2.99995
2.9999
2.99967
2.99935
2.99807
2.99622
2.98916
2.97734
2.93914
2.85177
2.6503
2.11352
1.28034
0.546481
0.297767
0.345463
0.361706
0.332859
0.285369
0.242109
0.210116
0.182278
0.158222
0.147723
3
2.99996
2.9999
2.99969
2.99939
2.99817
2.99642
2.9897
2.9786
2.94224
2.8604
2.66841
2.1628
1.34508
0.582655
0.306249
0.357409
0.377051
0.349944
0.306258
0.267435
0.240321
0.217859
0.199483
0.192192
3
2.99996
2.99991
2.99971
2.99942
2.99827
2.99663
2.99017
2.98008
2.9454
2.87236
2.69144
2.22856
1.43282
0.63097
0.3225
0.375915
0.398957
0.373505
0.333589
0.29898
0.276223
0.259033
0.246003
0.241694
3
2.99996
2.99992
2.99973
2.99947
2.99839
2.99688
2.99084
2.98175
2.94914
2.88632
2.71813
2.30614
1.54288
0.691401
0.350506
0.403315
0.428003
0.403858
0.367537
0.336957
0.318697
0.306451
0.299165
0.300215
3
2.99997
2.99993
2.99976
2.99952
2.99855
2.99718
2.99174
2.98355
2.95397
2.89929
2.74502
2.38688
1.66478
0.76091
0.39213
0.440862
0.463237
0.440577
0.40828
0.381279
0.367685
0.36173
0.362457
0.37339
3
2.99997
2.99993
2.99978
2.99957
2.9987
2.99748
2.99257
2.98527
2.95854
2.90989
2.77062
2.44616
1.76786
0.823701
0.431391
0.470689
0.489767
0.474982
0.450906
0.430594
0.422835
0.424789
0.439027
0.473796
3
2.99998
2.99995
2.99982
2.99964
2.99892
2.99787
2.99399
2.98729
2.96609
2.91793
2.80213
2.49002
1.88845
0.924018
0.49828
0.493792
0.506501
0.505923
0.491442
0.481371
0.482077
0.498432
0.540611
0.640333
3
2.99995
2.99989
2.99964
2.9993
2.99789
2.99588
2.98813
2.97541
2.93345
2.83927
2.62091
2.05648
1.19743
0.501182
0.293733
0.334363
0.345598
0.314208
0.260586
0.208275
0.165981
0.124263
0.0777959
0.0432942
3
2.99995
2.99989
2.99965
2.99931
2.99792
2.99594
2.9883
2.97572
2.93441
2.84124
2.62559
2.06461
1.2094
0.507396
0.293326
0.335083
0.346866
0.315552
0.262567
0.211567
0.170846
0.131548
0.0908278
0.066855
3
2.99995
2.99989
2.99966
2.99933
2.99798
2.99605
2.98867
2.97637
2.93637
2.8454
2.63549
2.08268
1.23627
0.522041
0.294161
0.338361
0.351781
0.32133
0.270563
0.222993
0.186237
0.152426
0.120802
0.105588
3
2.99995
2.9999
2.99967
2.99935
2.99807
2.99622
2.98916
2.97734
2.93914
2.85177
2.6503
2.11352
1.28034
0.546481
0.297767
0.345463
0.361705
0.332859
0.285369
0.242109
0.210116
0.182278
0.158222
0.147722
3
2.99996
2.9999
2.99969
2.99939
2.99817
2.99642
2.9897
2.9786
2.94224
2.8604
2.66841
2.1628
1.34508
0.582655
0.306249
0.357409
0.377051
0.349944
0.306258
0.267435
0.24032
0.217859
0.199483
0.192192
3
2.99996
2.99991
2.99971
2.99942
2.99827
2.99663
2.99017
2.98008
2.9454
2.87236
2.69144
2.22856
1.43282
0.63097
0.3225
0.375915
0.398957
0.373505
0.333589
0.29898
0.276223
0.259033
0.246003
0.241694
3
2.99996
2.99992
2.99973
2.99947
2.99839
2.99688
2.99084
2.98175
2.94914
2.88632
2.71813
2.30614
1.54288
0.691401
0.350506
0.403315
0.428002
0.403858
0.367537
0.336957
0.318697
0.306451
0.299165
0.300215
3
2.99997
2.99993
2.99976
2.99952
2.99855
2.99718
2.99174
2.98355
2.95397
2.89929
2.74502
2.38688
1.66478
0.76091
0.392129
0.440862
0.463237
0.440577
0.40828
0.381279
0.367685
0.36173
0.362457
0.37339
3
2.99997
2.99993
2.99978
2.99957
2.9987
2.99748
2.99257
2.98527
2.95854
2.90989
2.77062
2.44616
1.76786
0.823701
0.431391
0.470689
0.489767
0.474982
0.450906
0.430594
0.422835
0.424789
0.439027
0.473796
3
2.99998
2.99995
2.99982
2.99964
2.99892
2.99787
2.99399
2.98729
2.96609
2.91793
2.80213
2.49002
1.88845
0.924018
0.49828
0.493792
0.506501
0.505923
0.491442
0.481371
0.482077
0.498432
0.540611
0.640333
3
2.99995
2.99989
2.99964
2.9993
2.99789
2.99588
2.98813
2.97541
2.93345
2.83927
2.62091
2.05648
1.19743
0.501183
0.293732
0.334362
0.345598
0.314208
0.260585
0.208274
0.165981
0.124263
0.0777954
0.0432937
3
2.99995
2.99989
2.99965
2.99931
2.99792
2.99594
2.9883
2.97572
2.93441
2.84124
2.62559
2.06462
1.20941
0.507397
0.293325
0.335082
0.346866
0.315552
0.262566
0.211567
0.170846
0.131548
0.0908274
0.0668545
3
2.99995
2.99989
2.99966
2.99933
2.99798
2.99605
2.98867
2.97637
2.93637
2.8454
2.63549
2.08269
1.23627
0.522042
0.294159
0.338361
0.35178
0.321329
0.270563
0.222993
0.186237
0.152426
0.120802
0.105587
3
2.99995
2.9999
2.99967
2.99935
2.99807
2.99622
2.98916
2.97734
2.93914
2.85177
2.65031
2.11352
1.28035
0.546483
0.297766
0.345463
0.361705
0.332859
0.285368
0.242108
0.210116
0.182278
0.158221
0.147722
3
2.99996
2.9999
2.99969
2.99939
2.99817
2.99642
2.9897
2.9786
2.94224
2.8604
2.66842
2.1628
1.34508
0.582657
0.306248
0.357409
0.377051
0.349945
0.306258
0.267435
0.24032
0.217859
0.199483
0.192191
3
2.99996
2.99991
2.99971
2.99942
2.99827
2.99663
2.99017
2.98008
2.9454
2.87236
2.69145
2.22856
1.43283
0.630973
0.3225
0.375916
0.398958
0.373505
0.333589
0.29898
0.276223
0.259033
0.246002
0.241693
3
2.99996
2.99992
2.99973
2.99947
2.99839
2.99688
2.99084
2.98175
2.94914
2.88632
2.71813
2.30614
1.54289
0.691404
0.350506
0.403316
0.428003
0.403859
0.367538
0.336957
0.318697
0.306451
0.299164
0.300214
3
2.99997
2.99993
2.99976
2.99952
2.99855
2.99718
2.99174
2.98355
2.95397
2.89929
2.74502
2.38689
1.66479
0.760913
0.392131
0.440862
0.463237
0.440577
0.408281
0.38128
0.367685
0.36173
0.362457
0.373389
3
2.99997
2.99993
2.99978
2.99957
2.9987
2.99748
2.99257
2.98527
2.95854
2.90989
2.77062
2.44616
1.76786
0.823705
0.431393
0.470689
0.489767
0.474982
0.450906
0.430595
0.422836
0.424789
0.439027
0.473795
3
2.99998
2.99995
2.99982
2.99964
2.99892
2.99787
2.99399
2.98729
2.96609
2.91793
2.80214
2.49003
1.88846
0.924023
0.498282
0.493791
0.5065
0.505923
0.491442
0.481371
0.482078
0.498433
0.540611
0.640333
3.00002
2.99997
2.99991
2.99966
2.99931
2.99791
2.9959
2.98815
2.97543
2.93349
2.8393
2.62098
2.05657
1.19758
0.501333
0.293921
0.334542
0.34578
0.31441
0.260832
0.208588
0.166381
0.124806
0.078676
0.0448813
3.00002
2.99997
2.99991
2.99966
2.99932
2.99794
2.99596
2.98833
2.97575
2.93444
2.84128
2.62566
2.0647
1.20955
0.507544
0.293512
0.335261
0.347046
0.315751
0.262808
0.211873
0.171231
0.132056
0.0915729
0.0678774
3.00002
2.99997
2.99991
2.99967
2.99935
2.998
2.99607
2.98869
2.97639
2.93641
2.84543
2.63557
2.08277
1.23642
0.522184
0.294345
0.338536
0.351957
0.321524
0.270796
0.223281
0.186587
0.152859
0.121355
0.106227
3.00002
2.99997
2.99992
2.99969
2.99937
2.99809
2.99624
2.98919
2.97736
2.93917
2.85181
2.65038
2.11361
1.28049
0.546621
0.297953
0.345637
0.361879
0.333048
0.28559
0.242372
0.210424
0.182636
0.158637
0.148171
3.00002
2.99997
2.99992
2.99971
2.99941
2.99819
2.99644
2.98972
2.97863
2.94227
2.86044
2.66849
2.16289
1.34524
0.58279
0.306435
0.357581
0.377219
0.350125
0.306464
0.267672
0.240586
0.218154
0.199807
0.19253
3.00002
2.99998
2.99993
2.99972
2.99944
2.99829
2.99665
2.9902
2.98011
2.94545
2.87238
2.69151
2.22861
1.43296
0.631081
0.322669
0.376073
0.39911
0.373669
0.333773
0.299188
0.27645
0.259277
0.24626
0.241958
3.00002
2.99998
2.99993
2.99975
2.99948
2.99841
2.99691
2.99087
2.98177
2.94917
2.88635
2.71819
2.30621
1.54302
0.691509
0.350672
0.403465
0.428143
0.404007
0.367701
0.337137
0.318889
0.306652
0.299372
0.300422
3.00002
2.99998
2.99994
2.99977
2.99954
2.99857
2.9972
2.99176
2.98357
2.95399
2.89932
2.74507
2.38695
1.66488
0.761009
0.392283
0.440993
0.463356
0.440705
0.408424
0.381434
0.367847
0.361896
0.362623
0.373551
3.00002
2.99999
2.99995
2.9998
2.99959
2.99872
2.9975
2.99259
2.9853
2.95857
2.90992
2.77067
2.44621
1.76796
0.823809
0.431546
0.470805
0.489866
0.475095
0.451031
0.430727
0.42297
0.424924
0.439157
0.473915
3.00002
3
2.99996
2.99984
2.99966
2.99895
2.99789
2.99401
2.98731
2.96612
2.91796
2.80219
2.49007
1.88858
0.92413
0.498421
0.493894
0.506599
0.506026
0.491551
0.481485
0.482191
0.498543
0.540711
0.640414
3.00002
3
2.99996
2.99989
2.99962
2.99922
2.99768
2.99536
2.98689
2.97205
2.92569
2.81817
2.57518
1.97109
1.09417
0.584168
0.516831
0.528686
0.536692
0.532087
0.531454
0.543649
0.580356
0.661925
0.8339
3.00002
3.00001
2.99996
2.99991
2.99967
2.99933
2.99797
2.99602
2.98849
2.97617
2.93554
2.84456
2.63328
2.08747
1.25192
0.67167
0.536758
0.551389
0.567303
0.572087
0.580138
0.604371
0.657709
0.757357
0.933627
3.00002
3.00001
2.99997
2.99992
2.99972
2.99943
2.99827
2.99661
2.99023
2.97981
2.94543
2.8692
2.68862
2.217
1.43435
0.770932
0.563989
0.579426
0.599103
0.611563
0.626943
0.659471
0.720194
0.817077
0.965452
3.00002
3.00001
2.99998
2.99994
2.99977
2.99952
2.99853
2.99714
2.99156
2.98319
2.953
2.8967
2.74093
2.37236
1.65508
0.888329
0.611123
0.619942
0.636198
0.653288
0.673105
0.709157
0.768689
0.854022
0.977419
3.00002
3.00001
2.99999
2.99996
2.99982
2.99961
2.99882
2.99766
2.99317
2.98628
2.96176
2.91687
2.78613
2.49848
1.84563
1.01844
0.676047
0.663401
0.676193
0.693889
0.715433
0.750905
0.809284
0.883675
0.98631
3.00002
3.00001
3
2.99996
2.99989
2.99963
2.99925
2.99778
2.99556
2.98752
2.97346
2.9299
2.82878
2.60253
2.03008
1.20018
0.762957
0.702347
0.714382
0.731247
0.753744
0.787018
0.839694
0.908267
0.995474
3.00002
3.00002
3.00001
2.99997
2.99992
2.9997
2.9994
2.99819
2.99645
2.98981
2.97893
2.94332
2.86416
2.6788
2.19632
1.4202
0.870236
0.733064
0.74339
0.761612
0.788264
0.820771
0.867375
0.928278
1.00397
3.00002
3.00002
3.00001
2.99998
2.99994
2.99977
2.99953
2.99857
2.99719
2.99179
2.98349
2.95421
2.89878
2.74587
2.38966
1.67637
1.0097
0.782206
0.776256
0.790984
0.818652
0.851872
0.894106
0.948486
1.01377
3.00002
3.00002
3.00001
3
2.99995
2.99987
2.99957
2.99914
2.99746
2.99495
2.9857
2.97006
2.92072
2.81133
2.55465
1.97987
1.18884
0.854898
0.819409
0.828876
0.851865
0.883
0.91909
0.966263
1.02376
3.00003
3.00002
3.00002
3.00001
2.99997
2.99991
2.99969
2.99937
2.99813
2.99627
2.98956
2.97767
2.94145
2.85639
2.66559
2.16124
1.39576
0.947162
0.855182
0.861683
0.881743
0.912044
0.945748
0.985634
1.03523
3.00003
3.00002
3.00002
3.00001
2.99999
2.99993
2.99983
2.99946
2.9989
2.99692
2.99339
2.9826
2.95803
2.89772
2.73397
2.41154
1.6713
1.09722
0.904702
0.894654
0.907527
0.934307
0.968828
1.00622
1.04892
3.00003
3.00003
3.00002
3.00001
3
2.99995
2.99988
2.99959
2.99917
2.99753
2.99516
2.98608
2.97147
2.92375
2.82148
2.57787
2.02569
1.27963
0.978739
0.935311
0.940841
0.961296
0.992584
1.02706
1.06576
3.00003
3.00003
3.00002
3.00002
3.00001
2.99998
2.9999
2.99978
2.99931
2.99861
2.99606
2.99177
2.97803
2.94865
2.87346
2.67727
2.28983
1.51055
1.08474
0.972293
0.970549
0.985915
1.01368
1.04664
1.0817
3.00003
3.00003
3.00003
3.00002
3.00001
3
2.99994
2.99985
2.9995
2.99901
2.99706
2.99421
2.98368
2.96581
2.91068
2.78404
2.50931
1.88125
1.26004
1.03255
1.00792
1.01579
1.03827
1.06955
1.10138
3.00003
3.00003
3.00003
3.00002
3.00002
3
2.99998
2.99987
2.99973
2.99916
2.99831
2.99515
2.9902
2.97307
2.94128
2.85267
2.64596
2.18498
1.45469
1.11303
1.04288
1.04446
1.06115
1.08929
1.12062
3.00003
3.00003
3.00003
3.00003
3.00002
3.00001
2.99999
2.99992
2.99982
2.99942
2.99885
2.99664
2.99336
2.98152
2.96073
2.89885
2.75313
2.44388
1.77339
1.26266
1.09581
1.0789
1.0875
1.10911
1.13925
3.00003
3.00003
3.00003
3.00003
3.00002
3.00002
3
2.99997
2.99986
2.99969
2.99906
2.99812
2.99465
2.98911
2.97045
2.93597
2.83634
2.62923
2.11275
1.45819
1.17278
1.11633
1.11742
1.13311
1.15829
3.00003
3.00003
3.00003
3.00003
3.00003
3.00002
3.00001
2.99999
2.99991
2.9998
2.99938
2.99877
2.9964
2.9929
2.98015
2.9584
2.89305
2.74562
2.41859
1.75991
1.30605
1.16255
1.147
1.15483
1.17477
3.00003
3.00003
3.00003
3.00003
3.00003
3.00002
3.00002
3
2.99997
2.99985
2.99968
2.99904
2.99806
2.99455
2.9888
2.96997
2.93486
2.83299
2.62905
2.09827
1.5044
1.24096
1.18845
1.18511
1.19763
3.00003
3.00003
3.00003
3.00003
3.00003
3.00003
3.00002
3.00001
2.99998
2.99993
2.99976
2.9995
2.99853
2.99707
2.99186
2.98304
2.95567
2.89534
2.75687
2.40174
1.7856
1.35431
1.22851
1.21362
1.22036
3.00003
3.00003
3.00003
3.00003
3.00003
3.00003
3.00002
3.00002
3
2.99997
2.99985
2.99968
2.99904
2.9981
2.99455
2.98914
2.97011
2.9374
2.83713
2.64368
2.13582
1.56099
1.30158
1.25059
1.2467
3.00003
3.00003
3.00003
3.00003
3.00003
3.00003
3.00003
3.00002
3.00001
2.99998
2.99994
2.99977
2.99952
2.99859
2.9972
2.9921
2.98401
2.95752
2.90376
2.77203
2.44996
1.85512
1.42473
1.29114
1.27429
3.00003
3.00003
3.00003
3.00003
3.00003
3.00003
3.00003
3.00002
3.00002
3
2.99997
2.99986
2.99971
2.99911
2.99825
2.99498
2.99006
2.97266
2.94311
2.85266
2.67618
2.22012
1.63486
1.36685
1.3073
3.00003
3.00003
3.00003
3.00003
3.00003
3.00003
3.00003
3.00003
3.00002
3.00001
2.99999
2.99993
2.99983
2.99947
2.99895
2.99695
2.99407
2.9834
2.96614
2.9122
2.79606
2.54086
1.97171
1.52261
1.35651
3.00003
3.00003
3.00003
3.00003
3.00003
3.00003
3.00003
3.00003
3.00003
3.00002
3.00001
2.99997
2.99991
2.99969
2.99938
2.99819
2.99646
2.99
2.97996
2.94679
2.87932
2.72033
2.32453
1.73955
1.44765
3.00003
3.00003
3.00003
3.00003
3.00003
3.00003
3.00003
3.00003
3.00003
3.00002
3.00001
3
2.99995
2.99987
2.99958
2.99914
2.99755
2.99509
2.98664
2.97198
2.92909
2.8365
2.61737
2.16448
1.61978
3.00003
3.00003
3.00003
3.00003
3.00003
3.00003
3.00003
3.00003
3.00003
3.00003
3.00002
3.00001
2.99999
2.99991
2.9998
2.99939
2.99877
2.99653
2.99303
2.98108
2.96007
2.89928
2.76809
2.45806
1.90509
3.00003
3.00003
3.00003
3.00003
3.00003
3.00003
3.00003
3.00003
3.00003
3.00003
3.00002
3.00002
3
2.99997
2.99987
2.99971
2.99915
2.9983
2.99526
2.99036
2.97441
2.94516
2.86178
2.69351
2.26427
3.00003
3.00003
3.00003
3.00003
3.00003
3.00003
3.00003
3.00003
3.00003
3.00003
3.00003
3.00002
3.00001
3
2.99994
2.99985
2.99952
2.99903
2.99723
2.99456
2.98503
2.96936
2.92132
2.82439
2.58772
3.00003
3.00003
3.00003
3.00003
3.00003
3.00003
3.00003
3.00003
3.00003
3.00003
3.00003
3.00003
3.00002
3.00001
2.99998
2.9999
2.99978
2.99934
2.99867
2.99631
2.9925
2.98003
2.95759
2.89246
2.76232
3.00003
3.00003
3.00003
3.00003
3.00003
3.00003
3.00003
3.00003
3.00003
3.00003
3.00003
3.00003
3.00002
3.00002
3
2.99997
2.99986
2.99969
2.99909
2.99817
2.99497
2.98973
2.97288
2.94214
2.85382
3.00003
3.00003
3.00003
3.00003
3.00003
3.00003
3.00003
3.00003
3.00003
3.00003
3.00003
3.00003
3.00003
3.00002
3.00001
2.99998
2.99994
2.99978
2.99955
2.99868
2.99737
2.99269
2.98528
2.96087
2.91537
3.00003
3.00003
3.00003
3.00003
3.00003
3.00003
3.00003
3.00003
3.00003
3.00003
3.00003
3.00003
3.00003
3.00002
3.00002
3
2.99997
2.99986
2.9997
2.99908
2.99817
2.99475
2.98944
2.9712
2.93655
3.00003
3.00003
3.00003
3.00003
3.00003
3.00003
3.00003
3.00003
3.00003
3.00003
3.00003
3.00003
3.00003
3.00003
3.00002
3.00001
2.99997
2.99992
2.9997
2.99938
2.99821
2.99621
2.98989
2.97606
2.93992
3.00003
3.00003
3.00003
3.00003
3.00003
3.00003
3.00003
3.00003
3.00003
3.00003
3.00003
3.00003
3.00003
3.00003
3.00002
3.00001
2.99999
2.99992
2.9998
2.9994
2.99863
2.99639
2.99097
2.97745
2.94047
3.00003
3.00003
3.00003
3.00003
3.00003
3.00003
3.00003
3.00003
3.00003
3.00003
3.00003
3.00003
3.00003
3.00003
3.00002
3.00001
2.99998
2.99994
2.99976
2.99947
2.99853
2.99648
2.99089
2.97678
2.94167
3.00003
3.00003
3.00003
3.00003
3.00003
3.00003
3.00003
3.00003
3.00003
3.00003
3.00003
3.00003
3.00003
3.00003
3.00002
3.00001
2.99999
2.99992
2.99981
2.99939
2.99868
2.99635
2.99122
2.97726
2.94066
3.00003
3.00003
3.00003
3.00003
3.00003
3.00003
3.00003
3.00003
3.00003
3.00003
3.00003
3.00003
3.00003
3.00003
3.00002
3.00001
2.99999
2.99992
2.99981
2.99939
2.99867
2.99636
2.99111
2.97709
2.93994
3.00003
3.00003
3.00003
3.00003
3.00003
3.00003
3.00003
3.00003
3.00003
3.00003
3.00003
3.00003
3.00003
3.00003
3.00002
3.00001
2.99998
2.99993
2.99974
2.99946
2.9984
2.99651
2.9905
2.97693
2.94024
3.00003
3.00003
3.00003
3.00003
3.00003
3.00003
3.00003
3.00003
3.00003
3.00003
3.00003
3.00003
3.00003
3.00003
3.00002
3.00001
2.99998
2.99993
2.99972
2.99943
2.99822
2.99644
2.98969
2.97734
2.93877
3
2.99999
2.99994
2.99987
2.9996
2.9992
2.99766
2.99534
2.98686
2.97203
2.92565
2.81812
2.57511
1.97102
1.09406
0.584047
0.516733
0.52859
0.536595
0.531988
0.531355
0.543554
0.580267
0.661851
0.833851
3
2.99999
2.99995
2.99989
2.99965
2.99931
2.99795
2.996
2.98847
2.97615
2.9355
2.84453
2.63322
2.08739
1.25179
0.67156
0.536663
0.551297
0.567211
0.571995
0.580049
0.604288
0.657635
0.757296
0.933585
3
2.99999
2.99996
2.9999
2.9997
2.99941
2.99825
2.99659
2.99021
2.97978
2.94539
2.86918
2.68856
2.21698
1.43425
0.770842
0.5639
0.579337
0.599017
0.611478
0.626863
0.659396
0.720129
0.817024
0.965412
3
2.99999
2.99996
2.99992
2.99975
2.9995
2.99851
2.99711
2.99153
2.98317
2.95297
2.89667
2.74088
2.3723
1.65496
0.888245
0.611036
0.619856
0.636115
0.653208
0.67303
0.70909
0.768629