/*--------------------------------*- C++ -*----------------------------------*\
| =========                 |                                                 |
| \\      /  F ield         | OpenFOAM: The Open Source CFD Toolbox           |
|  \\    /   O peration     | Version:  4.1                                   |
|   \\  /    A nd           | Web:      www.OpenFOAM.org                      |
|    \\/     M anipulation  |                                                 |
\*---------------------------------------------------------------------------*/
FoamFile
{
    version     2.0;
    format      ascii;
    class       volScalarField;
    location    "0.44";
    object      Ma;
}
// * * * * * * * * * * * * * * * * * * * * * * * * * * * * * * * * * * * * * //

dimensions      [0 0 0 0 0 0 0];

internalField   nonuniform List<scalar> 
18000
(
5.54355e-12
5.48028e-12
5.40663e-12
5.34478e-12
5.28362e-12
5.2233e-12
5.1637e-12
5.10511e-12
5.04739e-12
4.99122e-12
6.95294e-12
6.70525e-12
6.45732e-12
6.22918e-12
6.01076e-12
5.80168e-12
5.60125e-12
5.40938e-12
5.22515e-12
5.05122e-12
8.83062e-12
8.28596e-12
7.77119e-12
7.30133e-12
6.86547e-12
6.46099e-12
6.08571e-12
5.73654e-12
5.41165e-12
5.11226e-12
1.13695e-11
1.03482e-11
9.42831e-12
8.60817e-12
7.8741e-12
7.21528e-12
6.62256e-12
6.08839e-12
5.60618e-12
5.17438e-12
1.48583e-11
1.30734e-11
1.15366e-11
1.02126e-11
9.07022e-12
8.08001e-12
7.21882e-12
6.46753e-12
5.80956e-12
5.23784e-12
1.97387e-11
1.67253e-11
1.42486e-11
1.21973e-11
1.04958e-11
9.075e-12
7.88239e-12
6.8761e-12
6.02213e-12
5.30207e-12
2.66961e-11
2.16966e-11
1.77753e-11
1.46727e-11
1.22046e-11
1.0224e-11
8.62205e-12
7.31656e-12
6.24468e-12
5.36748e-12
3.68404e-11
2.85731e-11
2.24257e-11
1.77982e-11
1.4282e-11
1.15781e-11
9.47543e-12
7.8237e-12
6.51299e-12
5.47524e-12
3.13992e-09
3.07412e-09
2.88369e-09
2.71363e-09
2.56162e-09
2.42509e-09
2.3019e-09
2.19026e-09
2.08875e-09
2.02302e-09
3.35325e-07
4.11548e-08
3.50028e-08
3.02799e-08
2.6354e-08
2.30633e-08
2.02852e-08
1.79257e-08
1.58548e-08
5.57452e-08
5.76271e-12
5.6942e-12
5.61884e-12
5.55233e-12
5.48703e-12
5.42303e-12
5.35934e-12
5.29726e-12
5.23607e-12
5.17625e-12
7.26459e-12
6.99711e-12
6.73944e-12
6.49466e-12
6.26123e-12
6.03793e-12
5.82473e-12
5.62082e-12
5.42588e-12
5.24032e-12
9.26925e-12
8.68143e-12
8.14344e-12
7.6388e-12
7.17258e-12
6.74099e-12
6.34142e-12
5.97052e-12
5.62607e-12
5.30642e-12
1.20022e-11
1.08994e-11
9.92838e-12
9.04437e-12
8.25595e-12
7.55064e-12
6.91826e-12
6.35015e-12
5.83763e-12
5.37399e-12
1.5793e-11
1.38594e-11
1.22193e-11
1.07834e-11
9.55018e-12
8.48584e-12
7.56349e-12
6.76165e-12
6.06122e-12
5.44411e-12
2.11555e-11
1.78689e-11
1.5194e-11
1.29525e-11
1.11045e-11
9.56944e-12
8.28703e-12
7.20944e-12
6.29808e-12
5.51634e-12
2.89006e-11
2.33974e-11
1.91039e-11
1.56824e-11
1.29829e-11
1.08304e-11
9.09947e-12
7.69636e-12
6.54797e-12
5.59101e-12
4.03768e-11
3.11566e-11
2.43146e-11
1.9153e-11
1.52692e-11
1.23052e-11
1.00163e-11
8.22762e-12
6.81372e-12
5.66886e-12
8.58952e-11
1.60983e-10
1.30717e-10
1.07176e-10
8.89706e-11
7.46703e-11
6.32858e-11
5.41127e-11
4.66437e-11
4.0632e-11
2.19548e-07
3.46849e-08
3.0119e-08
2.63449e-08
2.32325e-08
2.06379e-08
1.84536e-08
1.65986e-08
1.50127e-08
1.40448e-08
4.46383e-13
4.23247e-13
2.75812e-13
2.59445e-13
2.44468e-13
2.3109e-13
2.19401e-13
2.09548e-13
2.0115e-13
1.91209e-13
6.17782e-13
5.47095e-13
4.77412e-13
4.2768e-13
3.82861e-13
3.42973e-13
3.07955e-13
2.78222e-13
2.53905e-13
2.07774e-13
7.43055e-13
6.34195e-13
6.41145e-13
5.66099e-13
5.0007e-13
4.43362e-13
3.95542e-13
3.55632e-13
3.21597e-13
2.31095e-13
9.72e-13
8.47721e-13
9.06935e-13
7.86078e-13
6.82864e-13
5.96449e-13
5.24348e-13
4.64764e-13
4.13555e-13
2.65865e-13
1.35115e-12
1.23487e-12
1.29435e-12
1.09491e-12
9.29685e-13
7.95303e-13
6.85498e-13
5.95763e-13
5.19344e-13
3.0811e-13
1.97672e-12
1.87824e-12
1.85393e-12
1.52109e-12
1.25614e-12
1.04721e-12
8.81096e-13
7.48297e-13
6.37613e-13
3.56761e-13
3.01055e-12
2.90712e-12
2.66437e-12
2.10757e-12
1.68454e-12
1.36319e-12
1.11559e-12
9.23449e-13
7.67892e-13
4.10384e-13
4.76923e-12
4.54302e-12
3.84635e-12
2.91707e-12
2.24652e-12
1.75799e-12
1.39555e-12
1.12321e-12
9.10249e-13
4.68469e-13
1.27959e-10
6.93565e-12
5.5456e-12
4.0742e-12
3.06089e-12
2.34985e-12
1.83789e-12
1.46214e-12
1.17549e-12
6.8483e-13
1.8982e-07
1.79413e-09
1.31207e-09
1.00089e-09
7.7654e-10
6.11599e-10
4.8821e-10
3.94457e-10
3.22273e-10
2.68367e-10
3.85852e-13
3.61299e-13
1.72108e-13
1.51091e-13
1.30737e-13
1.11602e-13
9.37331e-14
7.73897e-14
6.28819e-14
3.6776e-14
5.32759e-13
4.59862e-13
3.86085e-13
3.35743e-13
2.89175e-13
2.47483e-13
2.10703e-13
1.79065e-13
1.52897e-13
7.94181e-14
5.95977e-13
4.88779e-13
5.23695e-13
4.5524e-13
3.95109e-13
3.43977e-13
3.01447e-13
2.67364e-13
2.39143e-13
1.19729e-13
7.28888e-13
6.3424e-13
7.6067e-13
6.57165e-13
5.68524e-13
4.95182e-13
4.34645e-13
3.85332e-13
3.4349e-13
1.71159e-13
9.56083e-13
9.43172e-13
1.10776e-12
9.40987e-13
8.01949e-13
6.88688e-13
5.9625e-13
5.21137e-13
4.56915e-13
2.24838e-13
1.33848e-12
1.48418e-12
1.6099e-12
1.33286e-12
1.10911e-12
9.31638e-13
7.89524e-13
6.75834e-13
5.79875e-13
2.81564e-13
1.97224e-12
2.36092e-12
2.33642e-12
1.8715e-12
1.51147e-12
1.23487e-12
1.01945e-12
8.50973e-13
7.12982e-13
3.41426e-13
3.05003e-12
3.75694e-12
3.3927e-12
2.6136e-12
2.03788e-12
1.61267e-12
1.29279e-12
1.04949e-12
8.5701e-13
4.0447e-13
1.37742e-10
6.29296e-12
4.93065e-12
3.63328e-12
2.72403e-12
2.08084e-12
1.61554e-12
1.27385e-12
1.01246e-12
4.70607e-13
1.88004e-07
5.58826e-10
3.06516e-11
2.00379e-11
1.36715e-11
9.56445e-12
6.83824e-12
4.98455e-12
3.69521e-12
2.63506e-12
3.85926e-13
3.60974e-13
1.72475e-13
1.51354e-13
1.30929e-13
1.11702e-13
9.39909e-14
7.76005e-14
6.29198e-14
3.68477e-14
5.33259e-13
4.60181e-13
3.8688e-13
3.36446e-13
2.89855e-13
2.47908e-13
2.11005e-13
1.79485e-13
1.53235e-13
7.95394e-14
5.97066e-13
4.89893e-13
5.25278e-13
4.56503e-13
3.95967e-13
3.44848e-13
3.0217e-13
2.67801e-13
2.39366e-13
1.19909e-13
7.31167e-13
6.36755e-13
7.63097e-13
6.59259e-13
5.70136e-13
4.96455e-13
4.35713e-13
3.86199e-13
3.4409e-13
1.71222e-13
9.60273e-13
9.47865e-13
1.1121e-12
9.44322e-13
8.04607e-13
6.90969e-13
5.97916e-13
5.22256e-13
4.57849e-13
2.25492e-13
1.34599e-12
1.49241e-12
1.61684e-12
1.33854e-12
1.11352e-12
9.35199e-13
7.92398e-13
6.7801e-13
5.81606e-13
2.82644e-13
1.9854e-12
2.37558e-12
2.34866e-12
1.88096e-12
1.51888e-12
1.24075e-12
1.02408e-12
8.54487e-13
7.15865e-13
3.43379e-13
3.07306e-12
3.78349e-12
3.41365e-12
2.62959e-12
2.05024e-12
1.62216e-12
1.30018e-12
1.05527e-12
8.61434e-13
4.07593e-13
1.40607e-10
6.39159e-12
4.9812e-12
3.6677e-12
2.74816e-12
2.09811e-12
1.62813e-12
1.28323e-12
1.01961e-12
4.75171e-13
1.96449e-07
5.86898e-10
8.91445e-12
5.08996e-12
3.66301e-12
2.69899e-12
2.02777e-12
1.55116e-12
1.19878e-12
5.55873e-13
3.86022e-13
3.60656e-13
1.73046e-13
1.51869e-13
1.31285e-13
1.1202e-13
9.41251e-14
7.78731e-14
6.32146e-14
3.68615e-14
5.34113e-13
4.60672e-13
3.8816e-13
3.3754e-13
2.90803e-13
2.48645e-13
2.11535e-13
1.79819e-13
1.53734e-13
7.99515e-14
5.9892e-13
4.91701e-13
5.27598e-13
4.58422e-13
3.9762e-13
3.46069e-13
3.03105e-13
2.68461e-13
2.39908e-13
1.20374e-13
7.34985e-13
6.40863e-13
7.66901e-13
6.62383e-13
5.72675e-13
4.98347e-13
4.37152e-13
3.87375e-13
3.44833e-13
1.71791e-13
9.67765e-13
9.55458e-13
1.11837e-12
9.49375e-13
8.08581e-13
6.94227e-13
6.0049e-13
5.2428e-13
4.59373e-13
2.26481e-13
1.36022e-12
1.50599e-12
1.62763e-12
1.34686e-12
1.12001e-12
9.40435e-13
7.96549e-13
6.81109e-13
5.84167e-13
2.84425e-13
2.01209e-12
2.39928e-12
2.36709e-12
1.89505e-12
1.52971e-12
1.24927e-12
1.03076e-12
8.59662e-13
7.19956e-13
3.46204e-13
3.1242e-12
3.82618e-12
3.44568e-12
2.65317e-12
2.0679e-12
1.63571e-12
1.31071e-12
1.0634e-12
8.67694e-13
4.11825e-13
1.47358e-10
6.48782e-12
5.0373e-12
3.70735e-12
2.77699e-12
2.11956e-12
1.6442e-12
1.2954e-12
1.02903e-12
4.81609e-13
2.15436e-07
6.26477e-10
9.05614e-12
5.12106e-12
3.68878e-12
2.7195e-12
2.0441e-12
1.56413e-12
1.20904e-12
5.62092e-13
3.86026e-13
3.60341e-13
1.73687e-13
1.525e-13
1.31879e-13
1.12545e-13
9.45595e-14
7.8088e-14
6.33775e-14
3.75197e-14
5.35115e-13
4.61341e-13
3.89761e-13
3.38816e-13
2.91919e-13
2.49697e-13
2.12441e-13
1.80504e-13
1.53956e-13
8.04582e-14
6.01205e-13
4.93877e-13
5.30326e-13
4.60772e-13
3.99533e-13
3.47648e-13
3.04213e-13
2.69331e-13
2.40576e-13
1.20961e-13
7.39641e-13
6.45812e-13
7.71422e-13
6.66122e-13
5.75828e-13
5.00864e-13
4.3898e-13
3.8868e-13
3.46086e-13
1.72759e-13
9.76927e-13
9.64671e-13
1.12589e-12
9.55369e-13
8.13375e-13
6.98221e-13
6.03711e-13
5.26752e-13
4.61256e-13
2.28034e-13
1.37773e-12
1.52211e-12
1.6405e-12
1.35705e-12
1.12794e-12
9.46778e-13
8.01719e-13
6.85183e-13
5.87285e-13
2.8684e-13
2.04489e-12
2.42785e-12
2.38905e-12
1.91196e-12
1.54278e-12
1.25965e-12
1.0391e-12
8.66151e-13
7.25012e-13
3.50024e-13
3.18549e-12
3.87717e-12
3.48394e-12
2.68169e-12
2.08938e-12
1.65215e-12
1.32371e-12
1.07354e-12
8.75503e-13
4.17392e-13
1.53597e-10
6.58241e-12
5.10402e-12
3.75534e-12
2.81209e-12
2.14576e-12
1.66421e-12
1.31034e-12
1.04063e-12
4.89674e-13
2.32337e-07
6.55771e-10
9.15716e-12
5.19683e-12
3.74295e-12
2.75883e-12
2.07347e-12
1.58629e-12
1.22562e-12
5.73385e-13
3.86121e-13
3.59484e-13
1.74213e-13
1.52964e-13
1.3253e-13
1.13513e-13
9.62761e-14
8.94905e-14
1.83694e-13
5.7049e-13
5.3598e-13
4.61391e-13
3.90983e-13
3.40032e-13
2.93128e-13
2.51023e-13
2.14029e-13
1.8474e-13
1.87376e-13
3.78428e-13
6.03216e-13
4.95059e-13
5.32444e-13
4.62702e-13
4.01391e-13
3.49598e-13
3.06527e-13
2.72401e-13
2.53652e-13
2.74095e-13
7.43968e-13
6.48824e-13
7.74825e-13
6.69064e-13
5.78444e-13
5.03507e-13
4.42083e-13
3.92249e-13
3.5387e-13
2.50078e-13
9.85306e-13
9.70521e-13
1.1313e-12
9.60045e-13
8.17367e-13
7.01772e-13
6.07742e-13
5.31293e-13
4.68285e-13
2.71586e-13
1.39282e-12
1.53262e-12
1.64944e-12
1.36463e-12
1.13436e-12
9.52601e-13
8.07776e-13
6.91514e-13
5.94935e-13
3.164e-13
2.07174e-12
2.44672e-12
2.40435e-12
1.9246e-12
1.55322e-12
1.26867e-12
1.0478e-12
8.75207e-13
7.34399e-13
3.735e-13
3.22152e-12
3.91123e-12
3.5105e-12
2.70299e-12
2.1065e-12
1.66633e-12
1.3365e-12
1.08643e-12
8.88135e-13
4.3866e-13
1.27684e-10
6.50234e-12
5.14893e-12
3.79078e-12
2.83981e-12
2.16812e-12
1.68354e-12
1.32844e-12
1.05717e-12
5.10851e-13
2.1257e-07
4.54725e-10
8.48656e-12
5.25023e-12
3.78569e-12
2.79254e-12
2.10096e-12
1.61062e-12
1.24804e-12
5.96346e-13
3.89756e-13
4.10463e-13
2.21032e-13
1.58937e-13
1.66802e-13
3.7558e-13
7.70383e-13
2.93252e-12
1.17043e-11
3.61593e-11
5.47517e-13
5.52184e-13
4.47353e-13
3.57853e-13
2.93811e-13
3.82334e-13
6.55395e-13
1.89291e-12
6.82418e-12
2.33101e-11
6.2843e-13
6.54541e-13
6.18586e-13
5.02326e-13
4.01309e-13
3.97984e-13
6.55512e-13
1.34764e-12
4.30647e-12
1.49763e-11
7.8452e-13
8.67714e-13
8.8321e-13
7.2587e-13
5.86692e-13
5.10179e-13
6.53018e-13
1.06848e-12
2.92844e-12
9.99592e-12
1.0411e-12
1.22634e-12
1.25435e-12
1.02844e-12
8.34512e-13
6.93909e-13
7.08727e-13
9.62923e-13
2.15963e-12
6.93198e-12
1.45726e-12
1.80139e-12
1.77703e-12
1.43577e-12
1.15431e-12
9.39485e-13
8.45433e-13
1.04005e-12
1.77206e-12
4.97965e-12
2.12707e-12
2.70648e-12
2.5214e-12
1.98664e-12
1.56747e-12
1.2497e-12
1.04933e-12
1.09699e-12
1.61076e-12
3.69788e-12
3.2017e-12
4.12918e-12
3.59369e-12
2.73893e-12
2.10317e-12
1.63565e-12
1.31558e-12
1.21234e-12
1.54595e-12
2.83719e-12
9.69484e-12
6.24328e-12
5.16169e-12
3.77692e-12
2.80263e-12
2.11579e-12
1.64379e-12
1.39024e-12
1.52858e-12
2.25189e-12
7.36164e-09
6.07566e-10
6.46482e-12
5.14622e-12
3.69338e-12
2.70532e-12
2.03723e-12
1.62506e-12
1.56346e-12
1.85873e-12
2.5272e-12
2.3815e-12
1.52479e-12
1.54759e-13
2.66191e-12
8.59868e-12
2.56467e-11
9.67285e-11
3.86901e-10
7.07173e-10
3.55953e-12
3.44486e-12
2.55439e-12
1.16534e-12
1.32717e-12
6.23121e-12
1.8773e-11
6.23596e-11
2.25819e-10
4.40689e-10
4.82698e-12
4.70623e-12
3.73026e-12
2.32528e-12
2.82181e-13
4.09612e-12
1.35382e-11
4.25696e-11
1.42048e-10
2.89608e-10
6.48701e-12
6.28419e-12
5.1298e-12
3.61734e-12
1.45302e-12
2.2826e-12
9.70568e-12
3.0211e-11
9.45902e-11
1.97386e-10
8.70483e-12
8.29262e-12
6.82549e-12
5.09785e-12
2.86313e-12
7.75703e-13
6.75181e-12
2.18566e-11
6.56408e-11
1.38651e-10
1.1724e-11
1.08925e-11
8.91648e-12
6.81922e-12
4.38139e-12
1.24786e-12
4.36775e-12
1.57806e-11
4.68545e-11
9.99317e-11
1.59215e-11
1.43305e-11
1.15411e-11
8.85851e-12
6.06586e-12
2.78044e-12
2.39632e-12
1.14499e-11
3.41179e-11
7.36083e-11
2.19114e-11
1.89626e-11
1.48893e-11
1.13186e-11
7.96e-12
4.39912e-12
1.11388e-12
8.1401e-12
2.5226e-11
5.52082e-11
1.65183e-10
2.53197e-11
1.92426e-11
1.43323e-11
1.01324e-11
6.12446e-12
1.86944e-12
5.52585e-12
1.88465e-11
4.202e-11
5.43642e-07
1.09305e-09
2.50043e-11
1.80674e-11
1.2649e-11
7.97401e-12
3.38119e-12
3.45686e-12
1.41188e-11
3.23325e-11
3.38768e-12
3.04648e-12
2.01069e-12
1.94135e-12
8.35475e-12
2.90403e-11
1.179e-10
5.51603e-10
1.36329e-09
1.66381e-09
4.48986e-12
4.1829e-12
3.19222e-12
1.66765e-12
5.22461e-12
1.99574e-11
7.45392e-11
3.13353e-10
8.08662e-10
9.57309e-10
5.83085e-12
5.49996e-12
4.52172e-12
2.79133e-12
2.81196e-12
1.33017e-11
4.91751e-11
1.9153e-10
5.04721e-10
5.84632e-10
7.54845e-12
7.09456e-12
6.02834e-12
4.31137e-12
1.96961e-12
8.42873e-12
3.32565e-11
1.23434e-10
3.27241e-10
3.73012e-10
9.80282e-12
9.07671e-12
7.7852e-12
5.99317e-12
3.1841e-12
4.82087e-12
2.25223e-11
8.24505e-11
2.19014e-10
2.46803e-10
1.28352e-11
1.16005e-11
9.89056e-12
7.86389e-12
5.00583e-12
2.51793e-12
1.48406e-11
5.61296e-11
1.50547e-10
1.68433e-10
1.70111e-11
1.48884e-11
1.24774e-11
1.0003e-11
6.98206e-12
2.81415e-12
9.33367e-12
3.86385e-11
1.05454e-10
1.17872e-10
2.291e-11
1.92679e-11
1.57311e-11
1.25119e-11
9.10896e-12
4.71201e-12
5.26108e-12
2.66155e-11
7.49875e-11
8.40816e-11
1.12366e-10
2.52008e-11
1.99099e-11
1.55274e-11
1.14615e-11
6.86927e-12
2.72459e-12
1.80842e-11
5.39004e-11
6.08146e-11
1.05285e-07
5.16267e-09
2.98073e-11
1.92025e-11
1.4107e-11
9.08996e-12
3.09922e-12
1.18332e-11
3.89446e-11
4.43472e-11
1.01653e-12
1.26948e-12
1.53884e-12
3.22886e-12
8.54338e-12
2.51577e-11
8.78693e-11
2.95444e-10
4.73004e-10
1.45598e-10
1.10199e-12
1.27097e-12
1.40681e-12
2.44723e-12
6.07717e-12
1.75127e-11
5.82265e-11
1.85469e-10
2.81604e-10
7.34763e-11
1.19128e-12
1.31302e-12
1.3998e-12
1.97625e-12
4.35802e-12
1.22967e-11
3.94877e-11
1.20318e-10
1.73947e-10
5.99052e-11
1.28325e-12
1.38273e-12
1.46978e-12
1.78586e-12
3.21376e-12
8.69105e-12
2.72765e-11
8.03157e-11
1.10935e-10
5.03117e-11
1.3801e-12
1.46904e-12
1.57511e-12
1.77415e-12
2.53019e-12
6.17888e-12
1.90845e-11
5.49056e-11
7.26704e-11
4.07014e-11
1.48776e-12
1.56915e-12
1.69417e-12
1.85172e-12
2.2105e-12
4.4747e-12
1.34461e-11
3.83757e-11
4.87523e-11
3.25747e-11
1.61134e-12
1.68244e-12
1.81905e-12
1.96839e-12
2.13407e-12
3.3716e-12
9.5165e-12
2.70908e-11
3.33285e-11
2.62027e-11
1.7692e-12
1.81133e-12
1.95119e-12
2.09772e-12
2.18471e-12
2.75032e-12
6.81055e-12
1.93107e-11
2.30547e-11
2.13391e-11
3.03085e-10
3.76358e-12
2.09003e-12
2.23366e-12
2.29411e-12
2.4798e-12
4.96471e-12
1.38757e-11
1.60452e-11
1.76495e-11
1.80867e-07
5.25709e-09
9.89621e-12
2.36339e-12
2.41965e-12
2.42059e-12
3.74197e-12
1.00259e-11
1.11485e-11
1.4722e-11
7.8838e-13
1.49795e-12
1.60788e-12
2.51923e-12
4.14901e-12
7.11093e-12
1.47219e-11
5.4483e-11
2.52844e-10
7.70561e-10
7.23567e-13
1.34564e-12
1.39371e-12
2.14844e-12
3.48545e-12
5.89382e-12
1.1264e-11
3.38898e-11
1.53431e-10
4.31182e-10
6.6081e-13
1.20305e-12
1.1999e-12
1.82365e-12
2.92227e-12
4.86856e-12
8.85288e-12
2.24471e-11
9.69012e-11
2.56947e-10
6.07364e-13
1.08144e-12
1.03897e-12
1.56058e-12
2.46496e-12
4.05475e-12
7.1222e-12
1.58189e-11
6.34127e-11
1.6092e-10
5.61296e-13
9.77223e-13
9.0351e-13
1.33913e-12
2.09108e-12
3.40717e-12
5.82016e-12
1.17378e-11
4.27317e-11
1.04921e-10
5.21813e-13
8.88253e-13
7.89676e-13
1.15802e-12
1.79015e-12
2.87768e-12
4.82018e-12
9.06191e-12
2.95147e-11
7.06822e-11
4.87741e-13
8.11464e-13
6.93435e-13
1.00593e-12
1.53622e-12
2.44335e-12
4.04239e-12
7.20561e-12
2.08275e-11
4.89168e-11
4.92506e-13
7.44957e-13
6.12577e-13
8.77238e-13
1.32669e-12
2.09074e-12
3.41765e-12
5.86426e-12
1.49766e-11
3.46421e-11
4.84355e-10
9.55754e-12
5.4938e-13
7.68887e-13
1.15257e-12
1.79935e-12
2.90814e-12
4.856e-12
1.09592e-11
2.50253e-11
1.7962e-07
1.73717e-08
6.0549e-11
8.15437e-13
9.95811e-13
1.54826e-12
2.4803e-12
4.0637e-12
8.13347e-12
1.83778e-11
1.06267e-12
1.85411e-12
1.62225e-12
2.17267e-12
3.02533e-12
4.38589e-12
6.93377e-12
1.34041e-11
5.15448e-11
1.52207e-10
9.89451e-13
1.70001e-12
1.45421e-12
1.93808e-12
2.67553e-12
3.8189e-12
5.79629e-12
1.03912e-11
3.66176e-11
9.40941e-11
9.18483e-13
1.55206e-12
1.29237e-12
1.71323e-12
2.3502e-12
3.3226e-12
4.8987e-12
8.12166e-12
2.60867e-11
6.14517e-11
8.56507e-13
1.42314e-12
1.15373e-12
1.51893e-12
2.07294e-12
2.90572e-12
4.2083e-12
6.56353e-12
1.87632e-11
4.18535e-11
8.02683e-13
1.3107e-12
1.0344e-12
1.35205e-12
1.83769e-12
2.55726e-12
3.65753e-12
5.4613e-12
1.36568e-11
2.93765e-11
7.55678e-13
1.21222e-12
9.31025e-13
1.20878e-12
1.63237e-12
2.25924e-12
3.2084e-12
4.64866e-12
1.00434e-11
2.11164e-11
7.14327e-13
1.12534e-12
8.41544e-13
1.0845e-12
1.4557e-12
2.00625e-12
2.83021e-12
4.02112e-12
7.44952e-12
1.54779e-11
7.22752e-13
1.04876e-12
7.63886e-13
9.76326e-13
1.30225e-12
1.78589e-12
2.50543e-12
3.51759e-12
5.5717e-12
1.15223e-11
7.16933e-10
1.70122e-11
7.08159e-13
8.81938e-13
1.16897e-12
1.59425e-12
2.22894e-12
3.09925e-12
4.20206e-12
8.67851e-12
2.20842e-07
3.06518e-08
1.48897e-10
1.25178e-12
1.03889e-12
1.42514e-12
1.98464e-12
2.73862e-12
3.17871e-12
6.5875e-12
1.47474e-12
2.34366e-12
1.63373e-12
1.90097e-12
2.28174e-12
2.82747e-12
3.79889e-12
5.92878e-12
1.53971e-11
2.5395e-11
1.39483e-12
2.19316e-12
1.51707e-12
1.76879e-12
2.12128e-12
2.60248e-12
3.36255e-12
4.85215e-12
1.19885e-11
1.9307e-11
1.31505e-12
2.04364e-12
1.39427e-12
1.62729e-12
1.95261e-12
2.38369e-12
3.01082e-12
4.07849e-12
9.16982e-12
1.47343e-11
1.24448e-12
1.90995e-12
1.28336e-12
1.49798e-12
1.79835e-12
2.19131e-12
2.73329e-12
3.53511e-12
7.00259e-12
1.13658e-11
1.18203e-12
1.79021e-12
1.18375e-12
1.38048e-12
1.6586e-12
2.01934e-12
2.50391e-12
3.14034e-12
5.34592e-12
8.83306e-12
1.12657e-12
1.68243e-12
1.09445e-12
1.2747e-12
1.53014e-12
1.8636e-12
2.30299e-12
2.83787e-12
4.07726e-12
6.89744e-12
1.07713e-12
1.58559e-12
1.01439e-12
1.1788e-12
1.41327e-12
1.72156e-12
2.12803e-12
2.59123e-12
3.1085e-12
5.40023e-12
1.08223e-12
1.49822e-12
9.42274e-13
1.09197e-12
1.30709e-12
1.59197e-12
1.96879e-12
2.38484e-12
2.36562e-12
4.23929e-12
9.3015e-10
2.50248e-11
8.93697e-13
1.01291e-12
1.21026e-12
1.47324e-12
1.82305e-12
2.2036e-12
1.79461e-12
3.33359e-12
1.79472e-07
4.24365e-08
2.36054e-10
1.62767e-12
1.10528e-12
1.36244e-12
1.68425e-12
2.03529e-12
1.34659e-12
2.61257e-12
2.08024e-12
2.97139e-12
1.5909e-12
1.60309e-12
1.66468e-12
1.79883e-12
2.14518e-12
2.95278e-12
6.61074e-12
8.41493e-12
1.99541e-12
2.83404e-12
1.53201e-12
1.56108e-12
1.63115e-12
1.74513e-12
1.98926e-12
2.52985e-12
5.36385e-12
7.00304e-12
1.91023e-12
2.69289e-12
1.45619e-12
1.49827e-12
1.57774e-12
1.68499e-12
1.87058e-12
2.22684e-12
4.242e-12
5.72887e-12
1.83319e-12
2.56264e-12
1.38216e-12
1.43312e-12
1.52002e-12
1.62747e-12
1.78331e-12
2.02384e-12
3.33769e-12
4.68531e-12
1.76357e-12
2.44251e-12
1.31096e-12
1.36862e-12
1.46116e-12
1.57069e-12
1.71242e-12
1.88617e-12
2.60839e-12
3.83092e-12
1.70055e-12
2.33176e-12
1.24385e-12
1.3049e-12
1.40088e-12
1.51393e-12
1.65201e-12
1.78636e-12
2.02026e-12
3.12784e-12
1.64337e-12
2.22993e-12
1.18059e-12
1.24308e-12
1.34048e-12
1.45622e-12
1.59473e-12
1.70913e-12
1.54205e-12
2.5479e-12
1.64008e-12
2.13625e-12
1.12119e-12
1.18402e-12
1.28163e-12
1.39817e-12
1.5374e-12
1.64454e-12
1.15574e-12
2.06778e-12
1.13136e-09
3.21822e-11
1.08481e-12
1.12721e-12
1.22429e-12
1.34095e-12
1.48062e-12
1.58673e-12
8.45189e-13
1.66969e-12
5.62471e-08
4.85267e-08
5.35865e-10
1.07353e-12
1.15004e-12
1.28236e-12
1.4201e-12
1.52638e-12
5.84438e-13
1.33666e-12
2.91036e-12
3.69019e-12
1.42142e-12
1.21412e-12
1.06737e-12
1.00321e-12
1.13587e-12
1.53649e-12
3.34759e-12
3.77464e-12
2.82623e-12
3.58094e-12
1.42194e-12
1.24832e-12
1.12005e-12
1.03656e-12
1.0785e-12
1.32745e-12
2.86925e-12
3.34242e-12
2.74113e-12
3.46417e-12
1.4002e-12
1.25757e-12
1.15114e-12
1.06648e-12
1.0553e-12
1.18193e-12
2.36361e-12
2.86886e-12
2.66251e-12
3.35221e-12
1.37078e-12
1.25459e-12
1.16926e-12
1.09283e-12
1.05593e-12
1.09635e-12
1.92993e-12
2.45778e-12
2.58985e-12
3.24597e-12
1.33777e-12
1.24389e-12
1.17738e-12
1.11309e-12
1.06723e-12
1.05507e-12
1.55799e-12
2.10089e-12
2.52272e-12
3.14511e-12
1.30172e-12
1.22668e-12
1.17723e-12
1.12671e-12
1.0828e-12
1.04095e-12
1.23839e-12
1.7905e-12
2.46084e-12
3.04995e-12
1.26411e-12
1.205e-12
1.17076e-12
1.13386e-12
1.09746e-12
1.04152e-12
9.65285e-13
1.52082e-12
2.45077e-12
2.96047e-12
1.22615e-12
1.18062e-12
1.15885e-12
1.13465e-12
1.10821e-12
1.04942e-12
7.32003e-13
1.28813e-12
1.35011e-09
3.69473e-11
1.21607e-12
1.15386e-12
1.14324e-12
1.13031e-12
1.1138e-12
1.05942e-12
5.33487e-13
1.08806e-12
8.61109e-08
4.58092e-08
5.16444e-10
2.06056e-12
1.11077e-12
1.11933e-12
1.11281e-12
1.06504e-12
3.59655e-13
9.19861e-13
3.91639e-12
4.3948e-12
1.09917e-12
7.6071e-13
4.95087e-13
3.49632e-13
4.85844e-13
7.93279e-13
2.02754e-12
2.05378e-12
3.83895e-12
4.32639e-12
1.1446e-12
8.42663e-13
6.00388e-13
4.20213e-13
4.29818e-13
6.46768e-13
1.8617e-12
1.93997e-12
3.7618e-12
4.25097e-12
1.16749e-12
9.00733e-13
6.84446e-13
4.99637e-13
4.26156e-13
5.3646e-13
1.62017e-12
1.74517e-12
3.68882e-12
4.17441e-12
1.17888e-12
9.43483e-13
7.51117e-13
5.74288e-13
4.58712e-13
4.69499e-13
1.40475e-12
1.56926e-12
3.61974e-12
4.0988e-12
1.18193e-12
9.74203e-13
8.04597e-13
6.40565e-13
5.08549e-13
4.46598e-13
1.21262e-12
1.41017e-12
3.55539e-12
4.02449e-12
1.1782e-12
9.95868e-13
8.47592e-13
6.98535e-13
5.63674e-13
4.58172e-13
1.04301e-12
1.26751e-12
3.49459e-12
3.95186e-12
1.16966e-12
1.01004e-12
8.80648e-13
7.47414e-13
6.17782e-13
4.90755e-13
8.95093e-13
1.14066e-12
3.48197e-12
3.8824e-12
1.15766e-12
1.01794e-12
9.05929e-13
7.88145e-13
6.67612e-13
5.33654e-13
7.68113e-13
1.0285e-12
1.55201e-09
3.84638e-11
1.18915e-12
1.02099e-12
9.25446e-13
8.2179e-13
7.11447e-13
5.79793e-13
6.61883e-13
9.30927e-13
2.42203e-07
3.24506e-08
4.67635e-10
3.23651e-12
9.32584e-13
8.47244e-13
7.48794e-13
6.22161e-13
5.76592e-13
8.51346e-13
4.90413e-12
4.94483e-12
7.34219e-13
4.98299e-13
2.72143e-13
1.52261e-13
2.66851e-13
4.64928e-13
1.46041e-12
1.31288e-12
4.83705e-12
4.92128e-12
7.68351e-13
5.36056e-13
3.11e-13
1.24627e-13
1.63579e-13
3.60933e-13
1.45039e-12
1.3312e-12
4.77255e-12
4.89352e-12
7.93212e-13
5.72453e-13
3.60514e-13
1.62357e-13
7.64626e-14
2.61796e-13
1.34485e-12
1.25696e-12
4.70993e-12
4.8607e-12
8.13225e-13
6.05463e-13
4.10185e-13
2.2039e-13
4.53687e-14
1.70116e-13
1.24896e-12
1.1883e-12
4.65018e-12
4.82499e-12
8.28766e-13
6.35705e-13
4.5713e-13
2.8063e-13
1.08315e-13
8.84912e-14
1.1613e-12
1.12484e-12
4.5928e-12
4.78674e-12
8.40409e-13
6.61849e-13
4.99886e-13
3.37132e-13
1.76274e-13
3.66436e-14
1.0817e-12
1.0667e-12
4.53821e-12
4.74756e-12
8.4853e-13
6.84213e-13
5.37964e-13
3.89116e-13
2.38995e-13
7.86536e-14
1.01086e-12
1.01378e-12
4.52832e-12
4.70887e-12
8.5308e-13
7.02475e-13
5.71335e-13
4.35461e-13
2.95897e-13
1.40899e-13
9.47802e-13
9.66188e-13
1.70584e-09
3.71024e-11
9.33551e-13
7.17851e-13
6.00301e-13
4.76589e-13
3.47944e-13
2.00504e-13
8.92847e-13
9.23224e-13
3.83893e-07
1.50752e-08
2.92594e-10
2.71928e-12
6.25039e-13
5.13344e-13
3.94864e-13
2.56464e-13
8.45412e-13
8.9429e-13
5.54601e-12
5.22939e-12
5.54894e-13
6.03605e-13
5.1039e-13
4.40848e-13
4.007e-13
4.11091e-13
1.22536e-12
1.00151e-12
5.4861e-12
5.23531e-12
4.94224e-13
5.43318e-13
4.57621e-13
3.93104e-13
3.55117e-13
3.71973e-13
1.28871e-12
1.07728e-12
5.43092e-12
5.2407e-12
4.4336e-13
4.89533e-13
4.10422e-13
3.48469e-13
3.12093e-13
3.30017e-13
1.24692e-12
1.05478e-12
5.37702e-12
5.23986e-12
4.05221e-13
4.44213e-13
3.70102e-13
3.10582e-13
2.73671e-13
2.91449e-13
1.20704e-12
1.03247e-12
5.32458e-12
5.23408e-12
3.78905e-13
4.08004e-13
3.38762e-13
2.79901e-13
2.40653e-13
2.55906e-13
1.16913e-12
1.01169e-12
5.27442e-12
5.225e-12
3.62857e-13
3.79603e-13
3.13744e-13
2.55387e-13
2.13429e-13
2.24876e-13
1.13323e-12
9.91633e-13
5.22595e-12
5.21287e-12
3.5403e-13
3.57762e-13
2.95732e-13
2.38124e-13
1.93335e-13
1.97296e-13
1.09899e-12
9.73146e-13
5.22014e-12
5.19986e-12
3.50601e-13
3.41449e-13
2.83318e-13
2.26794e-13
1.78507e-13
1.75091e-13
1.06701e-12
9.54729e-13
1.78811e-09
3.49588e-11
5.14382e-13
3.29947e-13
2.7558e-13
2.21105e-13
1.71459e-13
1.58527e-13
1.03578e-12
9.3736e-13
4.71263e-07
1.226e-08
2.16792e-10
1.99977e-12
2.68189e-13
2.23186e-13
1.74763e-13
1.54848e-13
1.0074e-12
9.55529e-13
5.55125e-12
5.20017e-12
5.53021e-13
6.28795e-13
5.40068e-13
4.66042e-13
4.12298e-13
4.0356e-13
1.15744e-12
9.56117e-13
5.49121e-12
5.20823e-12
4.7372e-13
5.59513e-13
4.83421e-13
4.18608e-13
3.71764e-13
3.72449e-13
1.23049e-12
1.03563e-12
5.43629e-12
5.21664e-12
4.04338e-13
4.96056e-13
4.30235e-13
3.72895e-13
3.31776e-13
3.35931e-13
1.19649e-12
1.01652e-12
5.38272e-12
5.21842e-12
3.4793e-13
4.39784e-13
3.82712e-13
3.31929e-13
2.95094e-13
3.02414e-13
1.16397e-12
9.97723e-13
5.33096e-12
5.21566e-12
3.05265e-13
3.92582e-13
3.42136e-13
2.95762e-13
2.61953e-13
2.70973e-13
1.13276e-12
9.80241e-13
5.28131e-12
5.20901e-12
2.75599e-13
3.52796e-13
3.07816e-13
2.65082e-13
2.32799e-13
2.41955e-13
1.10301e-12
9.63586e-13
5.2334e-12
5.19941e-12
2.57303e-13
3.19937e-13
2.79297e-13
2.39254e-13
2.07863e-13
2.1594e-13
1.07443e-12
9.47946e-13
5.22788e-12
5.18846e-12
2.48758e-13
2.9361e-13
2.56529e-13
2.18484e-13
1.86555e-13
1.92732e-13
1.04742e-12
9.3277e-13
1.78811e-09
3.4958e-11
4.45977e-13
2.72967e-13
2.38725e-13
2.02859e-13
1.71081e-13
1.73256e-13
1.02094e-12
9.18171e-13
4.71263e-07
1.226e-08
2.16771e-10
1.96706e-12
2.19938e-13
1.95692e-13
1.65633e-13
1.64275e-13
9.96366e-13
9.50309e-13
4.91142e-12
4.86485e-12
6.72639e-13
5.13618e-13
3.33395e-13
2.27802e-13
2.62171e-13
4.02717e-13
1.22617e-12
1.16317e-12
4.84612e-12
4.84966e-12
6.85796e-13
5.20597e-13
3.36015e-13
1.94455e-13
1.82426e-13
3.19162e-13
1.24898e-12
1.19325e-12
4.78377e-12
4.8308e-12
6.99537e-13
5.3545e-13
3.56549e-13
1.97633e-13
1.18588e-13
2.34699e-13
1.17179e-12
1.13124e-12
4.72332e-12
4.80637e-12
7.12953e-13
5.53447e-13
3.8498e-13
2.24691e-13
9.02702e-14
1.56211e-13
1.10153e-12
1.07421e-12
4.66558e-12
4.7789e-12
7.2614e-13
5.73065e-13
4.17004e-13
2.63541e-13
1.14748e-13
8.67053e-14
1.03736e-12
1.02221e-12
4.61005e-12
4.74854e-12
7.37582e-13
5.92679e-13
4.49653e-13
3.06018e-13
1.61764e-13
4.13386e-14
9.799e-13
9.75334e-13
4.55703e-12
4.7165e-12
7.46939e-13
6.10861e-13
4.80774e-13
3.48015e-13
2.12604e-13
6.92452e-14
9.28563e-13
9.33169e-13
4.54876e-12
4.68401e-12
7.54059e-13
6.27212e-13
5.09594e-13
3.87419e-13
2.61468e-13
1.22001e-13
8.83252e-13
8.95423e-13
1.70584e-09
3.71019e-11
8.41765e-13
6.415e-13
5.35718e-13
4.24211e-13
3.0758e-13
1.74977e-13
8.44304e-13
8.62799e-13
3.83893e-07
1.50752e-08
2.92553e-10
2.66138e-12
5.58291e-13
4.57786e-13
3.50361e-13
2.26327e-13
8.10923e-13
8.53926e-13
3.91989e-12
4.2932e-12
9.65434e-13
6.55098e-13
3.94777e-13
2.17869e-13
3.33279e-13
6.08033e-13
1.51138e-12
1.72771e-12
3.84837e-12
4.24119e-12
1.01461e-12
7.33517e-13
4.98342e-13
3.06974e-13
2.91978e-13
4.90019e-13
1.42079e-12
1.64652e-12
3.77709e-12
4.18046e-12
1.04511e-12
7.93932e-13
5.83713e-13
3.97224e-13
3.04777e-13
3.98659e-13
1.2454e-12
1.48359e-12
3.70823e-12
4.11738e-12
1.0645e-12
8.40015e-13
6.52816e-13
4.77477e-13
3.51315e-13
3.46843e-13
1.08763e-12
1.33633e-12
3.64333e-12
4.05355e-12
1.07628e-12
8.76322e-13
7.0981e-13
5.47937e-13
4.11005e-13
3.37988e-13
9.4706e-13
1.20389e-12
3.5818e-12
3.9898e-12
1.08117e-12
9.0329e-13
7.56391e-13
6.09441e-13
4.73115e-13
3.61163e-13
8.239e-13
1.08584e-12
3.52373e-12
3.92689e-12
1.08109e-12
9.23188e-13
7.93827e-13
6.61686e-13
5.31544e-13
4.03137e-13
7.17585e-13
9.82021e-13
3.51328e-12
3.86587e-12
1.07638e-12
9.36997e-13
8.2421e-13
7.06018e-13
5.85139e-13
4.52237e-13
6.29196e-13
8.9113e-13
1.55201e-09
3.84663e-11
1.11463e-12
9.46303e-13
8.48196e-13
7.43392e-13
6.3252e-13
5.02508e-13
5.57847e-13
8.1367e-13
2.42203e-07
3.24506e-08
4.67606e-10
3.19026e-12
8.60706e-13
7.72815e-13
6.73014e-13
5.48604e-13
5.04484e-13
7.56825e-13
2.91626e-12
3.59921e-12
1.26116e-12
1.0368e-12
8.76544e-13
7.89222e-13
8.64178e-13
1.15429e-12
2.22303e-12
3.0192e-12
2.84168e-12
3.51226e-12
1.28327e-12
1.09026e-12
9.46874e-13
8.45723e-13
8.49459e-13
1.02095e-12
1.93921e-12
2.69689e-12
2.7639e-12
3.41407e-12
1.28119e-12
1.11826e-12
9.95531e-13
8.95478e-13
8.57292e-13
9.31383e-13
1.59938e-12
2.31691e-12
2.69082e-12
3.31801e-12
1.26971e-12
1.13225e-12
1.02944e-12
9.38075e-13
8.80075e-13
8.8695e-13
1.30076e-12
1.98488e-12
2.62251e-12
3.22484e-12
1.25156e-12
1.1371e-12
1.05233e-12
9.72812e-13
9.10074e-13
8.74158e-13
1.04253e-12
1.69513e-12
2.55867e-12
3.13519e-12
1.22904e-12
1.13398e-12
1.06615e-12
9.99886e-13
9.4066e-13
8.81114e-13
8.1866e-13
1.44274e-12
2.49933e-12
3.0491e-12
1.20347e-12
1.12535e-12
1.07217e-12
1.0186e-12
9.67409e-13
8.9816e-13
6.24677e-13
1.2242e-12
2.49074e-12
2.9677e-12
1.17571e-12
1.11206e-12
1.07241e-12
1.0311e-12
9.88748e-13
9.19279e-13
4.57054e-13
1.03617e-12
1.35011e-09
3.69524e-11
1.17323e-12
1.09577e-12
1.06733e-12
1.0375e-12
1.00521e-12
9.40185e-13
3.15185e-13
8.75772e-13
8.61109e-08
4.58092e-08
5.16425e-10
2.02258e-12
1.04549e-12
1.0368e-12
1.01398e-12
9.5573e-13
1.88224e-13
7.43359e-13
2.09961e-12
2.91248e-12
1.43509e-12
1.38542e-12
1.38694e-12
1.44589e-12
1.6466e-12
2.1251e-12
3.84635e-12
6.26643e-12
2.02417e-12
2.79974e-12
1.40894e-12
1.38072e-12
1.39454e-12
1.44479e-12
1.58439e-12
1.90134e-12
3.18946e-12
5.27212e-12
1.94493e-12
2.6769e-12
1.36063e-12
1.35036e-12
1.37675e-12
1.42733e-12
1.53374e-12
1.73939e-12
2.54543e-12
4.329e-12
1.87197e-12
2.56101e-12
1.30901e-12
1.31287e-12
1.35008e-12
1.40572e-12
1.49783e-12
1.63258e-12
2.01456e-12
3.55057e-12
1.80527e-12
2.45244e-12
1.25631e-12
1.27149e-12
1.31813e-12
1.37986e-12
1.46844e-12
1.56232e-12
1.58029e-12
2.90791e-12
1.74374e-12
2.35061e-12