/*--------------------------------*- C++ -*----------------------------------*\
| =========                 |                                                 |
| \\      /  F ield         | OpenFOAM: The Open Source CFD Toolbox           |
|  \\    /   O peration     | Version:  4.1                                   |
|   \\  /    A nd           | Web:      www.OpenFOAM.org                      |
|    \\/     M anipulation  |                                                 |
\*---------------------------------------------------------------------------*/
FoamFile
{
    version     2.0;
    format      ascii;
    class       surfaceScalarField;
    location    "0.44";
    object      phi;
}
// * * * * * * * * * * * * * * * * * * * * * * * * * * * * * * * * * * * * * //

dimensions      [1 0 -1 0 0 0 0];

internalField   nonuniform List<scalar> 
51500
(
3.67231e-13
1.25826e-14
1.49425e-11
-1.64846e-15
1.9361e-14
1.47714e-11
-2.45416e-15
1.83013e-14
1.46022e-11
-2.43494e-15
1.71296e-14
1.44353e-11
-2.37141e-15
1.59019e-14
1.42702e-11
-2.33211e-15
1.46354e-14
1.41074e-11
-2.37018e-15
1.33594e-14
1.39464e-11
-2.33579e-15
1.20872e-14
1.37882e-11
-2.32116e-15
1.07961e-14
1.36322e-11
9.50481e-15
1.34804e-11
-7.50268e-17
3.712e-13
9.07077e-15
1.87566e-11
-1.02222e-14
9.4612e-15
1.80871e-11
-9.11677e-15
8.08647e-15
1.74428e-11
-8.93497e-15
6.87325e-15
1.68263e-11
-8.68028e-15
5.95611e-15
1.6236e-11
-8.4028e-15
5.14512e-15
1.5671e-11
-8.16917e-15
4.15917e-15
1.51293e-11
-7.95925e-15
2.95536e-15
1.46107e-11
-7.64096e-15
1.82606e-15
1.41129e-11
7.74512e-16
1.36427e-11
-7.86047e-16
3.72087e-13
9.57318e-15
2.38389e-11
-2.18353e-14
1.10973e-14
2.23672e-11
-1.79774e-14
9.184e-15
2.09966e-11
-1.71198e-14
7.47523e-15
1.97261e-11
-1.62442e-14
5.94789e-15
1.85478e-11
-1.55397e-14
4.5791e-15
1.74543e-11
-1.4775e-14
3.36573e-15
1.64397e-11
-1.41481e-14
2.27502e-15
1.54958e-11
-1.33435e-14
1.31108e-15
1.46175e-11
4.87231e-16
1.3808e-11
-1.46953e-15
3.6797e-13
1.23493e-14
3.07117e-11
-3.79115e-14
1.35299e-14
2.79516e-11
-2.94962e-14
1.09079e-14
2.54793e-11
-2.74514e-14
8.63562e-15
2.32612e-11
-2.55279e-14
6.70343e-15
2.1276e-11
-2.37966e-14
5.04871e-15
1.94945e-11
-2.22178e-14
3.63276e-15
1.78918e-11
-2.07887e-14
2.40649e-15
1.64476e-11
-1.92043e-14
1.35533e-15
1.51438e-11
4.75103e-16
1.39762e-11
-2.23562e-15
3.54575e-13
1.63518e-14
4.01594e-11
-5.99034e-14
1.67669e-14
3.53337e-11
-4.48305e-14
1.30799e-14
3.11846e-11
-4.05405e-14
1.00583e-14
2.76025e-11
-3.67649e-14
7.60002e-15
2.45123e-11
-3.34468e-14
5.58783e-15
2.1834e-11
-3.06011e-14
3.9206e-15
1.95049e-11
-2.80361e-14
2.54669e-15
1.74733e-11
-2.54072e-14
1.41059e-15
1.56942e-11
4.98325e-16
1.41481e-11
-3.00519e-15
3.25144e-13
2.22214e-14
5.33808e-11
-1.09662e-13
2.11594e-14
4.52296e-11
-6.52416e-14
1.59052e-14
3.85256e-11
-5.72155e-14
1.18156e-14
3.29743e-11
-5.04569e-14
8.66271e-15
2.83702e-11
-4.48219e-14
6.19001e-15
2.45265e-11
-4.00155e-14
4.24378e-15
2.13006e-11
-3.58837e-14
2.69563e-15
1.8579e-11
-3.18813e-14
1.46416e-15
1.62697e-11
4.98025e-16
1.43222e-11
-3.85109e-15
2.65571e-13
3.8123e-14
7.22377e-11
-1.78206e-13
3.39802e-14
5.87056e-11
-9.2922e-14
2.45258e-14
4.80756e-11
-7.86535e-14
1.76115e-14
3.96758e-11
-6.73124e-14
1.2556e-14
3.2996e-11
-5.81326e-14
8.78616e-15
2.76363e-11
-5.0646e-14
5.93801e-15
2.33025e-11
-4.44166e-14
3.77055e-15
1.97713e-11
-3.87311e-14
2.09954e-15
1.68723e-11
8.01112e-16
1.44997e-11
-4.69546e-15
1.85806e-13
-1.47608e-13
9.97483e-11
-2.64523e-13
-1.65954e-13
7.73454e-11
-1.3042e-13
-1.79402e-13
6.06502e-11
-1.06143e-13
-1.88165e-13
4.81049e-11
-8.78149e-14
-1.94036e-13
3.85733e-11
-7.36133e-14
-1.97969e-13
3.1243e-11
-6.24185e-14
-2.00604e-13
2.55417e-11
-5.34701e-14
-2.02368e-13
2.10616e-11
-4.5592e-14
-2.03544e-13
1.75044e-11
-2.06492e-13
1.46831e-11
-5.6153e-15
2.34478e-12
-5.78781e-10
1.54724e-10
1.78782e-12
-6.09758e-10
1.15314e-10
1.61648e-12
-6.12149e-10
8.85957e-11
1.46497e-12
-6.13834e-10
6.96268e-11
1.3307e-12
-6.15112e-10
5.59838e-11
1.21216e-12
-6.16087e-10
4.60214e-11
1.10752e-12
-6.16833e-10
3.86537e-11
1.01501e-12
-6.17403e-10
3.31435e-11
9.24968e-13
-6.1786e-10
2.89789e-11
-6.26567e-10
2.59522e-11
-6.56268e-15
-1.50399e-10
1.04468e-07
-8.70399e-07
2.34997e-10
8.80532e-08
-9.37589e-07
2.38135e-10
7.66718e-08
-9.3941e-07
2.29991e-10
6.73119e-08
-9.40847e-07
2.21702e-10
5.95266e-08
-9.4209e-07
2.13515e-10
5.29903e-08
-9.43179e-07
2.05571e-10
4.74554e-08
-9.44143e-07
1.96813e-10
4.27309e-08
-9.45007e-07
1.19477e-10
3.86712e-08
-9.45826e-07
3.56243e-08
-7.57792e-15
-9.72599e-07
3.42965e-13
9.13109e-14
4.47635e-13
-1.94795e-14
8.60006e-14
4.39938e-13
-2.5726e-14
7.57495e-14
4.32574e-13
-2.50488e-14
6.58354e-14
4.23981e-13
-2.46965e-14
5.6253e-14
4.16303e-13
-2.45101e-14
4.69866e-14
4.09424e-13
-2.4336e-14
3.80324e-14
4.01574e-13
-2.413e-14
2.93905e-14
3.94807e-13
-2.62025e-14
2.09986e-14
3.87952e-13
1.30029e-14
3.80837e-13
-1.5992e-15
2.84223e-13
8.62651e-14
6.23604e-13
-7.27096e-14
7.83282e-14
5.91493e-13
-8.69319e-14
6.63278e-14
5.61756e-13
-8.40395e-14
5.48633e-14
5.31633e-13
-8.16332e-14
4.38682e-14
5.04211e-13
-7.94166e-14
3.25142e-14
4.77717e-13
-7.71009e-14
2.14545e-14
4.53619e-13
-7.56342e-14
1.40154e-14
4.30488e-13
-7.99945e-14
7.76382e-15
4.09604e-13
2.58381e-15
3.88403e-13
-4.33182e-15
1.96292e-13
1.09027e-13
8.82715e-13
-1.83911e-13
9.69313e-14
8.041e-13
-1.65759e-13
8.09554e-14
7.37078e-13
-1.57256e-13
6.63306e-14
6.71147e-13
-1.49697e-13
5.3141e-14
6.13261e-13
-1.42711e-13
4.12214e-14
5.6107e-13
-1.36157e-13
3.04413e-14
5.13851e-13
-1.30555e-13
2.07324e-14
4.71175e-13
-1.36395e-13
1.20133e-14
4.32453e-13
4.24004e-15
3.97407e-13
-6.98486e-15
7.27449e-14
1.34195e-13
1.27444e-12
-3.17556e-13
1.15932e-13
1.11372e-12
-2.6738e-13
9.45554e-14
9.79478e-13
-2.47854e-13
7.57306e-14
8.56862e-13
-2.31088e-13
5.93321e-14
7.52184e-13
-2.15905e-13
4.50273e-14
6.62129e-13
-2.01873e-13
3.26056e-14
5.84838e-13
-1.8963e-13
2.17945e-14
5.18313e-13
-1.94531e-13
1.2371e-14
4.58656e-13
4.27541e-15
4.06225e-13
-9.92132e-15
-5.44535e-14
1.67079e-13
1.88153e-12
-4.87668e-13
1.39988e-13
1.57122e-12
-3.97942e-13
1.11268e-13
1.32043e-12
-3.60168e-13
8.69077e-14
1.1051e-12
-3.28456e-13
6.64708e-14
9.30263e-13
-3.00041e-13
4.93394e-14
7.87109e-13
-2.74808e-13
3.4944e-14
6.68607e-13
-2.53275e-13
2.28812e-14
5.7028e-13
-2.54842e-13
1.27396e-14
4.87742e-13
4.32184e-15
4.16567e-13
-1.30995e-14
-2.02462e-13
2.10362e-13
2.84926e-12
-7.10547e-13
1.71054e-13
2.25566e-12
-5.66122e-13
1.31989e-13
1.80467e-12
-4.99547e-13
1.00349e-13
1.43937e-12
-4.44546e-13
7.4804e-14
1.15906e-12
-3.97058e-13
5.41491e-14
9.40051e-13
-3.55786e-13
3.74954e-14
7.6785e-13
-3.21445e-13
2.40144e-14
6.30978e-13
-3.17484e-13
1.31459e-14
5.21206e-13
4.3472e-15
4.28618e-13
-1.60898e-14
-6.44455e-13
2.65302e-13
4.42886e-12
-1.00824e-12
2.12482e-13
3.30872e-12
-7.82869e-13
1.59244e-13
2.50264e-12
-6.72503e-13
1.17886e-13
1.89417e-12
-5.83416e-13
8.58696e-14
1.45452e-12
-5.08513e-13
6.10569e-14
1.12879e-12
-4.4576e-13
4.17152e-14
8.84627e-13
-3.94059e-13
2.66228e-14
7.00266e-13
-3.82643e-13
1.47115e-14
5.56446e-13
5.21063e-15
4.42156e-13
-1.91518e-14
-1.17698e-12
3.22649e-13
7.09391e-12
-1.40904e-12
2.3306e-13
4.96442e-12
-1.06321e-12
1.65478e-13
3.5281e-12
-8.87047e-13
1.16428e-13
2.52532e-12
-7.48677e-13
8.05261e-14
1.84236e-12
-6.36777e-13
5.39173e-14
1.36357e-12
-5.4519e-13
3.40193e-14
1.02458e-12
-4.72049e-13
1.90104e-14
7.78629e-13
-4.49891e-13
7.61053e-15
5.96952e-13
-1.0293e-15
4.56369e-13
-2.23476e-14
-2.00637e-12
1.03046e-11
1.26141e-11
-1.83056e-12
-1.40644e-11
6.88811e-12
-1.11421e-12
-1.31701e-11
4.57645e-12
-9.63908e-13
-1.24635e-11
3.12526e-12
-8.65112e-13
-1.19987e-11
2.21906e-12
-7.48631e-13
-1.17099e-11
1.63504e-12
-6.46489e-13
-1.15511e-11
1.24951e-12
-5.64008e-13
-1.14888e-11
9.8938e-13
-5.51591e-13
-1.14991e-11
8.07345e-13
-1.1594e-11
6.70857e-13
-2.55646e-14
-6.01062e-10
7.52609e-09
6.18678e-08
-2.41096e-10
3.44979e-09
-1.31627e-09
-2.43011e-10
2.57249e-09
-1.41211e-09
-2.33213e-10
1.96472e-09
-1.38435e-09
-2.23731e-10
1.52604e-09
-1.35301e-09
-2.14671e-10
1.20333e-09
-1.3212e-09
-2.06079e-10
9.61945e-10
-1.29034e-09
-1.97982e-10
7.78665e-10
-1.26128e-09
-1.91719e-10
6.37641e-10
-1.23704e-09
5.29418e-10
-2.89857e-14
-1.33865e-09
3.46008e-13
8.19203e-14
1.61722e-14
-1.73055e-14
7.77727e-14
1.44837e-14
-2.18617e-14
6.86132e-14
1.31615e-14
-2.01315e-14
5.97716e-14
1.17017e-14
-1.86418e-14
5.12262e-14
1.01658e-14
-2.00084e-14
4.29169e-14
8.13628e-15
-1.88995e-14
3.49479e-14
7.39913e-15
-1.92533e-14
2.72157e-14
6.53813e-15
-2.34402e-14
1.97396e-14
5.71242e-15
1.26058e-14
5.63838e-15
-1.36631e-15
2.94726e-13
5.90378e-14
2.60349e-14
-6.53623e-14
5.42176e-14
2.31665e-14
-7.11883e-14
4.59529e-14
2.27195e-14
-6.64611e-14
3.80826e-14
1.87683e-14
-6.51763e-14
3.07529e-14
1.58905e-14
-6.23462e-14
2.39865e-14
1.40222e-14
-6.08449e-14
1.77153e-14
1.11284e-14
-6.02723e-14
1.19948e-14
9.38999e-15
-7.13157e-14
6.83646e-15
8.7314e-15
2.39669e-15
7.34328e-15
-4.41335e-15
2.16405e-13
7.5446e-14
3.90126e-14
-1.65614e-13
6.81369e-14
3.55597e-14
-1.3501e-13
5.72994e-14
3.49846e-14
-1.24049e-13
4.73739e-14
2.99354e-14
-1.17741e-13
3.83452e-14
2.49265e-14
-1.11924e-13
3.00957e-14
2.02797e-14
-1.06215e-13
2.27273e-14
1.7453e-14
-1.04214e-13
1.62927e-14
1.50886e-14
-1.21243e-13
9.4824e-15
1.28034e-14
3.33693e-15
1.04593e-14
-7.24095e-15
9.49637e-14
9.37642e-14
6.2903e-14
-2.89245e-13
8.2077e-14
5.92307e-14
-2.16377e-13
6.73468e-14
5.69977e-14
-1.91387e-13
5.43645e-14
4.68124e-14
-1.78091e-13
4.30685e-14
3.90065e-14
-1.65892e-13
3.32277e-14
3.26215e-14
-1.50117e-13
2.48466e-14
2.74629e-14
-1.51049e-13
1.69548e-14
2.31935e-14
-1.73111e-13
9.74039e-15
2.07963e-14
3.4561e-15
1.51364e-14
-1.03559e-14
-2.26338e-14
1.18211e-13
1.07938e-13
-4.46134e-13
9.97586e-14
1.0009e-13
-3.18493e-13
7.97373e-14
9.26286e-14
-2.66545e-13
6.26943e-14
7.56555e-14
-2.42781e-13
4.84492e-14
6.12847e-14
-2.21058e-13
3.65322e-14
5.01893e-14
-2.01187e-13
2.71375e-14
4.21726e-14
-1.99021e-13
1.82016e-14
3.62947e-14
-2.26879e-13
1.03008e-14
3.11274e-14
3.55103e-15
2.19116e-14
-1.32355e-14
-1.58757e-13
1.5096e-13
1.88634e-13
-6.51516e-13
1.23242e-13
1.74011e-13
-4.26837e-13
9.52762e-14
1.51394e-13
-3.64508e-13
7.27798e-14
1.19771e-13
-3.23881e-13
5.47635e-14
9.54229e-14
-2.87978e-13
4.02021e-14
7.68848e-14
-2.56875e-13
2.86559e-14
6.33087e-14
-2.39366e-13
1.91094e-14
5.31253e-14
-2.82858e-13
1.04195e-14
4.31684e-14
3.57782e-15
3.02067e-14
-1.64909e-14
-5.72271e-13
1.94039e-13
3.3362e-13
-9.27156e-13
1.53592e-13
2.99184e-13
-5.77866e-13
1.14777e-13
2.4522e-13
-4.86536e-13
8.50567e-14
1.87957e-13
-4.20984e-13
6.22216e-14
1.45432e-13
-3.65137e-13
4.45844e-14
1.14396e-13
-3.18073e-13
3.18898e-14
9.20745e-14
-2.86877e-13
2.01845e-14
7.46695e-14
-3.40691e-13
1.09783e-14
6.1289e-14
3.75857e-15
4.03806e-14
-1.96971e-14
-1.09983e-12
3.10737e-13
6.03335e-13
-1.29918e-12
2.62575e-13
5.12728e-13
-7.7807e-13
1.61816e-13
3.95897e-13
-6.39089e-13
1.09126e-13
2.89277e-13
-5.3695e-13
7.56358e-14
2.16582e-13
-4.53482e-13
5.13434e-14
1.66133e-13
-3.8664e-13
3.3528e-14
1.28733e-13
-3.37784e-13
2.04006e-14
1.02043e-13
-4.00817e-13
1.06411e-14
8.26616e-14
3.44838e-15
5.21261e-14
-2.30113e-14
-2.01888e-12
2.54497e-11
3.14322e-12
-1.78663e-12
1.01258e-12
8.35323e-13
-1.04076e-12
5.89492e-13
5.95559e-13
-8.29436e-13
3.78825e-13
4.20907e-13
-6.75731e-13
2.2709e-13
3.06103e-13
-5.5657e-13
1.17252e-13
2.28119e-13
-4.62963e-13
3.74656e-14
1.742e-13
-3.94791e-13
-2.06246e-14
1.3565e-13
-4.65401e-13
-6.29377e-14
1.07742e-13
-9.19193e-14
6.94484e-14
-2.63706e-14
-3.29841e-10
3.6258e-09
5.63235e-08
-1.96209e-11
1.15966e-10
7.81159e-11
-1.9709e-11
5.61698e-11
-1.83313e-11
-1.63617e-11
3.69147e-11
-1.3125e-11
-1.36604e-11
2.50514e-11
-7.7396e-12
-1.1516e-11
1.74377e-11
-5.56365e-12
-9.79496e-12
1.24147e-11
-3.91174e-12
-8.40213e-12
9.01903e-12
-2.61818e-12
-7.25764e-12
6.67436e-12
-1.61872e-12
4.93342e-12
-2.9911e-14
5.10918e-13
3.46073e-13
8.11699e-14
1.05316e-14
-1.73349e-14
7.71225e-14
9.56948e-15
-2.15651e-14
6.80691e-14
7.89146e-15
-1.9691e-14
5.92917e-14
6.17162e-15
-1.91849e-14
5.08334e-14
4.1912e-15
-1.92818e-14
4.26484e-14
3.38169e-15
-1.81992e-14
3.47198e-14
2.0456e-15
-1.91141e-14
2.7059e-14
1.15622e-15
-2.31514e-14
1.96791e-14
4.15722e-16
1.26034e-14
3.37699e-16
-1.48297e-15
2.95522e-13
5.81517e-14
1.7955e-14
-6.4848e-14
5.34664e-14
1.5769e-14
-7.02424e-14
4.53189e-14
1.61664e-14
-6.44114e-14
3.76231e-14
1.26796e-14
-6.2643e-14
3.0396e-14
9.11384e-15
-6.14664e-14
2.36839e-14
6.65565e-15
-5.89868e-14
1.75461e-14
5.43357e-15
-5.8463e-14
1.19095e-14
4.16258e-15
-7.06646e-14
6.79161e-15
2.85141e-15
2.41061e-15
1.67722e-15
-4.34353e-15
2.18418e-13
7.39769e-14
2.58594e-14
-1.63981e-13
6.68708e-14
2.43732e-14
-1.31479e-13
5.61735e-14
2.61331e-14
-1.1641e-13
4.62757e-14
1.9797e-14
-1.13283e-13
3.73845e-14
1.64579e-14
-1.03582e-13
2.93321e-14
1.38206e-14
-9.87883e-14
2.18243e-14
1.06104e-14
-1.02248e-13
1.50446e-14
8.84887e-15
-1.19988e-13
9.39336e-15
7.53464e-15
3.11919e-15
5.40879e-15
-7.18392e-15
9.76272e-14
9.19307e-14
4.27458e-14
-2.86381e-13
8.04481e-14
4.2916e-14
-2.09951e-13
6.59538e-14
4.53783e-14
-1.79144e-13
5.32195e-14
3.69638e-14
-1.6702e-13
4.1998e-14
3.02879e-14
-1.55533e-13
3.2151e-14
2.55321e-14
-1.44511e-13
2.35665e-14
2.10485e-14
-1.45793e-13
1.6026e-14
1.81254e-14
-1.71587e-13
9.51635e-15
1.50654e-14
3.50641e-15
1.0222e-14
-1.04439e-14
-1.83049e-14
1.158e-13
7.53047e-14
-4.41341e-13
9.78472e-14
7.90571e-14
-2.93591e-13
7.81172e-14
7.77427e-14
-2.5815e-13
6.13103e-14
6.2631e-14
-2.34856e-13
4.72966e-14
5.253e-14
-2.13735e-13
3.54839e-14
4.3265e-14
-1.94804e-13
2.55094e-14
3.61755e-14
-1.8638e-13
1.72282e-14
3.12924e-14
-2.24915e-13
9.83087e-15
2.79624e-14
3.57234e-15
1.84043e-14
-1.33298e-14
-1.52463e-13
1.47761e-13
1.33606e-13
-6.44068e-13
1.20748e-13
1.39463e-13
-4.10552e-13
9.32836e-14
1.32067e-13
-3.5486e-13
7.12341e-14
1.0609e-13
-3.15406e-13
5.34788e-14
8.6412e-14
-2.8045e-13
3.90633e-14
7.15851e-14
-2.50129e-13
2.74166e-14
5.97731e-14
-2.31942e-13
1.7994e-14
4.97369e-14
-2.80234e-13
1.04606e-14
4.37993e-14
3.65876e-15
2.83487e-14
-1.66555e-14
-5.57383e-13
1.90139e-13
2.38528e-13
-9.15451e-13
1.50512e-13
2.49108e-13
-5.61597e-13
1.12504e-13
2.18811e-13
-4.75259e-13
8.32378e-14
1.72428e-13
-4.11353e-13
6.07635e-14
1.3722e-13
-3.56823e-13
4.33669e-14
1.11582e-13
-3.11567e-13
2.96832e-14
9.02617e-14
-2.79421e-13
1.89681e-14
7.56147e-14
-3.38082e-13
1.08691e-14
6.40269e-14
3.53895e-15
4.13013e-14
-1.98463e-14
-1.07706e-12
3.06359e-13
4.28368e-13
-1.28016e-12
1.7563e-13
4.34589e-13
-7.59702e-13
1.46764e-13
3.58459e-13
-6.25274e-13
1.10846e-13
2.74506e-13
-5.25582e-13
8.16891e-14
2.12234e-13
-4.4488e-13
5.67053e-14
1.66551e-13
-3.79443e-13
3.78111e-14
1.33354e-13
-3.30436e-13
2.36072e-14
1.08483e-13
-3.98276e-13
1.28333e-14
8.86434e-14
4.7985e-15
5.81309e-14
-2.29888e-14
-1.98838e-12
2.5564e-11
4.4491e-12
-1.75656e-12
4.41362e-13
7.78268e-13
-1.0197e-12
2.10936e-13
5.86042e-13
-8.13424e-13
1.40051e-13
4.30533e-13
-6.629e-13
9.25383e-14
3.20261e-13
-5.45908e-13
5.9962e-14
2.44852e-13
-4.54152e-13
3.73719e-14
1.89216e-13
-3.86307e-13
2.15354e-14
1.49854e-13
-4.60271e-13
1.03396e-14
1.18646e-13
2.47884e-15
7.27986e-14
-2.65033e-14
-3.08884e-10
5.30099e-09
5.61341e-08
-3.61136e-12
3.6651e-11
1.07157e-10
-1.61534e-12
2.04189e-12
7.18243e-13
-1.48039e-12
1.21764e-12
4.94178e-13
-1.17962e-12
8.1175e-13
2.74264e-13
-9.4232e-13
5.62767e-13
2.33455e-13
-7.61372e-13
4.01777e-13
2.16132e-13
-6.38684e-13
2.94574e-13
2.18573e-13
-6.17751e-13
2.20112e-13
1.91321e-13
1.36879e-13
-3.0089e-14
2.03134e-13
3.45961e-13
8.12805e-14
1.81588e-14
-1.76767e-14
7.72057e-14
1.57759e-14
-2.15899e-14
6.81643e-14
1.28214e-14
-2.03863e-14
5.93694e-14
7.9322e-15
-1.75299e-14
5.08907e-14
8.30178e-15
-1.97396e-14
4.26719e-14
3.72445e-15
-1.90387e-14
3.4773e-14
4.73799e-15
-1.88229e-14
2.71289e-14
3.68633e-15
-2.3173e-14
1.97196e-14
8.85525e-16
1.26389e-14
3.29332e-16
-1.70437e-15
2.95239e-13
5.82735e-14
2.8904e-14
-6.51045e-14
5.35835e-14
2.5907e-14
-7.04049e-14
4.54078e-14
2.06759e-14
-6.53807e-14
3.76571e-14
1.72385e-14
-6.2889e-14
3.04706e-14
1.17259e-14
-6.08825e-14
2.37741e-14
9.44957e-15
-5.89425e-14
1.75895e-14
6.47005e-15
-5.89749e-14
1.19496e-14
7.1858e-15
-7.07321e-14
6.84405e-15
6.03445e-15
2.46437e-15
1.83779e-15
-4.34635e-15
2.17991e-13
7.41661e-14
4.22357e-14
-1.64584e-13
6.70354e-14
3.73139e-14
-1.32746e-13
5.63375e-14
3.66602e-14
-1.14954e-13
4.64995e-14
3.25823e-14
-1.11128e-13
3.75e-14
2.40126e-14
-1.05108e-13
2.94234e-14
1.76497e-14
-9.83988e-14
2.19975e-14
1.77858e-14
-1.0247e-13
1.52096e-14
1.23582e-14
-1.19967e-13
9.28434e-15
1.38736e-14
3.07544e-15
6.44832e-15
-7.43351e-15
9.71671e-14
9.2275e-14
6.85862e-14
-2.87192e-13
8.07889e-14
6.34167e-14
-2.1086e-13
6.61861e-14
6.36177e-14
-1.79591e-13
5.3366e-14
5.13325e-14
-1.66913e-13
4.21902e-14
4.21825e-14
-1.56193e-13
3.22458e-14
3.38113e-14
-1.44383e-13
2.3611e-14
3.36991e-14
-1.46685e-13
1.61142e-14
2.51925e-14
-1.71726e-13
9.896e-15
2.53582e-14
3.71806e-15
1.95095e-14
-1.02119e-14
-1.91094e-14
1.16322e-13
1.08642e-13
-4.42861e-13
9.82532e-14
1.11407e-13
-2.94986e-13
7.85185e-14
1.10765e-13
-2.58191e-13
6.1668e-14
9.24395e-14
-2.35744e-13
4.75506e-14
7.46716e-14
-2.14281e-13
3.57739e-14
6.74584e-14
-1.95015e-13
2.58235e-14
5.71284e-14
-1.85691e-13
1.72637e-14
4.58103e-14
-2.25356e-13
9.61784e-15
3.7661e-14
3.65599e-15
2.48318e-14
-1.33615e-14
-1.53949e-13
1.48594e-13
1.94198e-13
-6.46278e-13
1.21502e-13
2.03894e-13
-4.12217e-13
9.38518e-14
1.83976e-13
-3.55964e-13
7.16966e-14
1.50239e-13
-3.16188e-13
5.38737e-14
1.21956e-13
-2.8127e-13
3.93875e-14
1.02833e-13
-2.51012e-13
2.76049e-14
8.13888e-14
-2.31839e-13
1.83049e-14
7.653e-14
-2.80973e-13
1.07359e-14
6.15171e-14
3.83357e-15
3.93065e-14
-1.65746e-14
-5.61416e-13
1.91449e-13
3.42127e-13
-9.19502e-13
1.51574e-13
3.52923e-13
-5.63869e-13
1.13347e-13
3.13612e-13
-4.77186e-13
8.39211e-14
2.41034e-13
-4.12757e-13
6.13174e-14
1.96537e-13
-3.58422e-13
4.37726e-14
1.54434e-13
-3.1249e-13
3.00957e-14
1.28031e-13
-2.80176e-13
1.92002e-14
1.05538e-13
-3.39272e-13
1.11058e-14
8.71996e-14
4.01691e-15
5.60945e-14
-1.98413e-14
-1.08487e-12
3.09018e-13
6.0995e-13
-1.28687e-12
1.76689e-13
6.21656e-13
-7.63461e-13
1.39345e-13
5.06998e-13
-6.285e-13
1.00253e-13
3.83675e-13
-5.28187e-13
7.17011e-14
2.99219e-13
-4.46994e-13
5.32915e-14
2.35619e-13
-3.81177e-13
3.63757e-14
1.87589e-13
-3.32027e-13
2.29842e-14
1.52316e-13
-3.99911e-13
1.25921e-14
1.2451e-13
4.81109e-15
7.88241e-14
-2.31473e-14
-2.00566e-12
2.60881e-11
6.30658e-12
-1.76755e-12
4.16216e-13
1.10229e-12
-1.02619e-12
1.74445e-13
8.20004e-13
-8.18805e-13
1.64891e-13
5.96853e-13
-6.66883e-13
1.07824e-13
4.50394e-13
-5.49403e-13
6.72466e-14
3.40342e-13
-4.56687e-13
3.1498e-14
2.63052e-13
-3.88699e-13
1.69781e-14
2.07706e-13
-4.62907e-13
8.61997e-15
1.67931e-13
3.2735e-15
1.09852e-13
-2.65604e-14
-3.16597e-10
7.82021e-09
5.82697e-08
-3.1219e-12
5.08462e-11
1.1431e-10
-1.28e-12
1.28236e-12
3.83726e-13
-1.06232e-12
7.88054e-13
1.27815e-13
-8.37297e-13
5.64545e-13
7.73346e-14
-6.69115e-13
4.15448e-13
5.55445e-14
-5.42152e-13
3.12824e-13
4.23157e-14
-4.49441e-13
2.40132e-13
3.30727e-14
-5.29044e-13
1.86604e-13
2.62818e-14
1.14114e-13
-3.01675e-14
2.14107e-14
3.45663e-13
8.14442e-14
2.0998e-14
-1.80145e-14
7.73513e-14
1.5143e-14
-2.21781e-14
6.8251e-14
1.77026e-14
-1.99026e-14
5.9474e-14
1.307e-14
-1.96559e-14
5.09426e-14
7.53727e-15
-1.9166e-14
4.27387e-14
4.79646e-15
-1.89286e-14
3.48043e-14
2.29229e-15
-1.95032e-14
2.71677e-14
1.23843e-15
-2.31963e-14
1.97835e-14
8.77142e-16
1.26711e-14
9.86858e-16
-1.54586e-15
2.94816e-13
5.84567e-14
3.58489e-14
-6.56985e-14
5.37458e-14
3.28535e-14
-7.0103e-14
4.55718e-14
3.17689e-14
-6.6574e-14
3.77794e-14
2.20601e-14
-6.22289e-14
3.05964e-14
2.11587e-14
-6.165e-14
2.38589e-14
1.38844e-14
-5.77329e-14
1.76822e-14
9.15513e-15
-5.89025e-14
1.2015e-14
5.35612e-15
-7.0997e-14
6.91121e-15
4.61367e-15
2.52463e-15
3.30346e-15
-4.35849e-15
2.173e-13
7.44839e-14
4.70481e-14
-1.6556e-13
6.72939e-14
4.94137e-14
-1.33048e-13
5.65486e-14
5.11387e-14
-1.15526e-13
4.66616e-14
4.17204e-14
-1.12985e-13
3.762e-14
3.09853e-14
-1.04245e-13
2.9522e-14
2.53032e-14
-9.93065e-14
2.21387e-14
1.78553e-14
-1.01878e-13
1.53659e-14
1.92351e-14
-1.20278e-13
9.31969e-15
1.23306e-14
3.49107e-15
8.57202e-15
-7.41985e-15
9.63506e-14
9.27473e-14
8.78704e-14
-2.88502e-13
8.12149e-14
8.62689e-14
-2.11695e-13
6.65584e-14
8.80657e-14
-1.80153e-13
5.37021e-14
7.35809e-14
-1.67927e-13
4.25031e-14
5.6386e-14
-1.55642e-13
3.25758e-14
4.39195e-14
-1.4529e-13
2.3816e-14
3.50152e-14
-1.46709e-13
1.62938e-14
3.5312e-14
-1.71914e-13
9.97092e-15
2.77899e-14
3.63783e-15
1.59583e-14
-1.03231e-14
-2.04752e-14
1.17118e-13
1.53204e-13
-4.44879e-13
9.89383e-14
1.55859e-13
-2.96271e-13
7.90372e-14
1.52606e-13
-2.59228e-13
6.21048e-14
1.24216e-13
-2.36349e-13
4.7883e-14
1.02311e-13
-2.15263e-13
3.60627e-14
8.23562e-14
-1.95458e-13
2.59909e-14
6.25368e-14
-1.86493e-13
1.75031e-14
5.37079e-14
-2.25886e-13
1.00628e-14
4.5441e-14
3.96735e-15
2.99577e-14
-1.33116e-14
-1.56147e-13
1.49828e-13
2.60159e-13
-6.49773e-13
1.22503e-13
2.78178e-13
-4.14103e-13
9.47132e-14
2.58131e-13
-3.57727e-13
7.23495e-14
2.03012e-13
-3.17221e-13
5.44624e-14
1.64708e-13
-2.83019e-13
3.97886e-14
1.24368e-13
-2.51582e-13
2.80419e-14
1.12426e-13
-2.32691e-13
1.84674e-14
8.43168e-14
-2.81972e-13
1.09674e-14
7.13825e-14
3.99178e-15
4.66323e-14
-1.65072e-14
-5.67665e-13
1.93314e-13
4.76983e-13
-9.25083e-13
1.5315e-13
4.9229e-13
-5.67802e-13
1.14522e-13
4.21004e-13
-4.79572e-13
8.48767e-14
3.31727e-13
-4.15358e-13
6.20413e-14
2.5959e-13
-3.60185e-13
4.44246e-14
2.06423e-13
-3.14224e-13
3.0616e-14
1.60685e-13
-2.8132e-13
1.96762e-14
1.28016e-13
-3.4086e-13
1.1474e-14
1.06214e-13
4.40203e-15
6.68942e-14
-1.97667e-14
-1.09638e-12
3.13005e-13
8.54807e-13
-1.29662e-12
1.78814e-13
8.58377e-13
-7.69244e-13
1.40932e-13
6.94618e-13
-6.32941e-13
1.01436e-13
5.23626e-13
-5.319e-13
7.26155e-14
3.97752e-13
-4.50006e-13
5.37828e-14
3.06176e-13
-3.8376e-13
3.69459e-14
2.33319e-13
-3.34142e-13
2.35185e-14
1.84649e-13
-4.02219e-13
1.30495e-14
1.46865e-13
5.17827e-15
9.21853e-14
-2.31154e-14
-2.03373e-12
2.74579e-11
8.68113e-12
-1.78286e-12
4.2567e-13
1.53303e-12
-1.03569e-12
1.61446e-13
1.13078e-12
-8.25958e-13
1.65523e-13
8.16801e-13
-6.72761e-13
1.08006e-13
5.96035e-13
-5.54118e-13
6.66508e-14
4.42692e-13
-4.60347e-13
3.14662e-14
3.23259e-13
-3.91834e-13
1.74617e-14
2.65972e-13
-4.66406e-13
9.05915e-15
2.00508e-13
3.67541e-15
1.21779e-13
-2.66451e-14
-3.37068e-10
1.14952e-08
6.27345e-08
-3.18538e-12
7.56012e-11
1.23462e-10
-1.28779e-12
1.98892e-12
3.84691e-13
-1.06887e-12
1.19919e-12
8.41525e-14
-8.42794e-13
8.52916e-13
6.35131e-14
-6.73715e-13
6.07784e-13
4.9463e-14
-5.46089e-13
4.44741e-13
3.91831e-14
-4.52858e-13
3.31974e-13
3.1568e-14
-5.33173e-13
2.57818e-13
2.58184e-14
1.53543e-13
-3.0272e-14
2.15214e-14
3.45178e-13
8.16454e-14
2.80001e-14
-1.8306e-14
7.7545e-14
2.74449e-14
-2.26918e-14
6.83826e-14
2.19686e-14
-2.02259e-14
5.95824e-14
1.72798e-14
-1.99055e-14
5.10643e-14
8.68136e-15
-1.97659e-14
4.28313e-14
5.69201e-15
-1.87422e-14
3.49011e-14
4.94554e-15
-1.94172e-14
2.723e-14
3.52319e-15
-2.31874e-14
1.9845e-14
4.89761e-15
1.27439e-14
1.183e-14
-1.59833e-15
2.94279e-13
5.86681e-14
4.79956e-14
-6.62704e-14
5.39346e-14
4.42559e-14
-7.07711e-14
4.57419e-14
4.31879e-14
-6.59382e-14
3.79374e-14
3.32852e-14
-6.39568e-14
3.06857e-14
2.2079e-14
-6.11786e-14
2.39656e-14
1.24282e-14
-5.96139e-14
1.77675e-14
9.74193e-15
-5.85776e-14
1.21334e-14
9.68441e-15
-7.09354e-14
6.99422e-15
7.56859e-15
2.59281e-15
1.14852e-14
-4.42506e-15
2.16472e-13
7.48753e-14
7.02365e-14
-1.66686e-13
6.76108e-14
6.80423e-14
-1.33365e-13
5.68189e-14
6.86651e-14
-1.17258e-13
4.68855e-14
5.46256e-14
-1.11658e-13
3.78359e-14
4.25667e-14
-1.05914e-13
2.96696e-14
2.52701e-14
-9.80494e-14
2.23182e-14
1.92344e-14
-1.02926e-13
1.54177e-14
1.70262e-14
-1.20336e-13
9.71593e-15
1.92447e-14
3.33342e-15
1.63347e-14
-7.53499e-15
9.53459e-14
9.33538e-14
1.12414e-13
-2.90063e-13
8.17421e-14
1.17361e-13
-2.12293e-13
6.70027e-14
1.17433e-13
-1.81342e-13
5.40789e-14
9.42112e-14
-1.68391e-13
4.2872e-14
7.68466e-14
-1.5642e-13
3.29335e-14
6.02309e-14
-1.45142e-13
2.40607e-14
3.85483e-14
-1.46787e-13
1.64906e-14
3.13532e-14
-1.72491e-13
9.74455e-15
2.9809e-14
4.05025e-15
2.68791e-14
-1.01922e-14
-2.22365e-14
1.18074e-13
1.9674e-13
-4.47319e-13
9.97607e-14
2.07696e-13
-2.97893e-13
7.97219e-14
1.98579e-13
-2.60385e-13
6.26378e-14
1.60577e-13
-2.37227e-13
4.83087e-14
1.29971e-13
-2.16535e-13
3.63951e-14
1.06734e-13
-1.9588e-13
2.63611e-14
7.06864e-14
-1.88062e-13
1.77126e-14
5.58878e-14
-2.26466e-13
1.05342e-14
4.72736e-14
4.16288e-15
4.23221e-14
-1.34452e-14
-1.58925e-13
1.5137e-13
3.52186e-13
-6.53821e-13
1.23741e-13
3.67195e-13
-4.16984e-13
9.56823e-14
3.33078e-13
-3.59658e-13
7.31865e-14
2.67171e-13
-3.18936e-13
5.51534e-14
2.13965e-13
-2.84282e-13
4.03771e-14
1.75281e-13
-2.53199e-13
2.84719e-14
1.17928e-13
-2.33291e-13
1.88451e-14
8.99418e-14
-2.83116e-13
1.13426e-14
7.35842e-14
4.24688e-15
5.50163e-14
-1.65445e-14
-5.75519e-13
1.95738e-13
6.25232e-13
-9.31996e-13
1.55045e-13
6.39658e-13
-5.71862e-13
1.16002e-13
5.51575e-13
-4.83039e-13
8.60166e-14
4.29741e-13
-4.18117e-13
6.29365e-14
3.37975e-13
-3.62507e-13
4.514e-14
2.69867e-13
-3.16561e-13
3.12643e-14
2.10895e-13
-2.82563e-13
2.01503e-14
1.38117e-13
-3.42803e-13
1.18089e-14
1.09347e-13
4.78078e-15
7.12838e-14
-1.97483e-14
-1.11085e-12
3.17144e-13
1.12531e-12
-1.30821e-12
1.81518e-13
1.11298e-12
-7.76277e-13
1.43141e-13
9.02032e-13
-6.38557e-13
1.03099e-13
6.7944e-13
-5.36392e-13
7.38884e-14
5.19908e-13
-4.5355e-13
5.45082e-14
4.03707e-13
-3.87212e-13
3.77154e-14
3.13858e-13
-3.36625e-13
2.42297e-14
2.03047e-13
-4.05097e-13
1.36497e-14
1.55207e-13
5.65079e-15
9.44829e-14
-2.32136e-14
-2.06072e-12
2.78047e-11
9.65855e-12
-1.80208e-12
4.2623e-13
1.97545e-12
-1.04739e-12
1.68352e-13
1.47392e-12
-8.34944e-13
1.68936e-13
1.06498e-12
-6.79873e-13
1.10553e-13
7.87101e-13
-5.59914e-13
6.8728e-14
5.89571e-13
-4.65034e-13
3.26433e-14
4.49197e-13
-3.9559e-13
1.81406e-14
2.9327e-13
-4.70756e-13
9.50707e-15
2.13429e-13
4.1461e-15
1.25855e-13
-2.6685e-14
-3.45805e-10
1.30618e-08
6.61579e-08
-3.18559e-12
7.45553e-11
1.26373e-10
-1.30444e-12
2.57368e-12
3.53346e-13
-1.08289e-12
1.63847e-12
8.41889e-14
-8.53606e-13
1.16356e-12
6.39589e-14
-6.82122e-13
8.41859e-13
5.00133e-14
-5.53053e-13
6.20503e-13
3.97838e-14
-4.58306e-13
4.53678e-13
3.22304e-14
-5.39274e-13
2.85288e-13
2.64886e-14
1.64679e-13
-3.02989e-14
2.22946e-14
3.4482e-13
8.18582e-14
2.49979e-14
-1.89283e-14
7.76487e-14
1.28727e-14
-2.27979e-14
6.85247e-14
1.32477e-14
-2.07491e-14
5.96941e-14
1.11169e-14
-2.01455e-14
5.11687e-14
1.34635e-14
-2.01059e-14
4.29455e-14
1.88727e-14
-1.96866e-14
3.50356e-14
2.88223e-14
-1.98759e-14
2.74148e-14
8.61789e-14
-2.27326e-14
2.00816e-14
3.50228e-13
1.2976e-14
1.16067e-12
-3.96276e-15
2.93572e-13
5.89178e-14
3.99551e-14
-6.67401e-14
5.41107e-14
2.1876e-14
-7.14039e-14
4.5869e-14
2.67122e-14
-6.65001e-14
3.80707e-14
2.2488e-14
-6.4341e-14
3.08186e-14
1.77884e-14
-6.10159e-14
2.41058e-14
2.61737e-14
-5.94077e-14
1.78993e-14
3.29412e-14
-6.09525e-14
1.22687e-14
6.62719e-14
-7.21538e-14
7.2083e-15
2.12748e-13
2.73384e-15
7.51131e-13
-3.83829e-15
2.15435e-13
7.52329e-14
5.7211e-14
-1.67775e-13
6.78899e-14
3.50437e-14
-1.33853e-13
5.70908e-14
4.37579e-14
-1.18597e-13
4.71006e-14
3.83161e-14
-1.11394e-13
3.80988e-14
3.51153e-14
-1.06164e-13
2.99297e-14
3.83122e-14
-9.91964e-14
2.25712e-14
4.6254e-14
-1.02839e-13
1.56026e-14
6.40745e-14
-1.22703e-13
9.31048e-15
1.48963e-13
3.55672e-15
4.91976e-13
-5.61595e-15
9.43667e-14
9.40053e-14
9.56459e-14
-2.91452e-13
8.22131e-14
6.77928e-14
-2.13761e-13
6.73973e-14
7.93448e-14
-1.81608e-13
5.44527e-14
6.95872e-14
-1.68886e-13
4.31611e-14
6.34977e-14
-1.56988e-13
3.31912e-14
5.01654e-14
-1.46359e-13
2.43913e-14
6.63217e-14
-1.47204e-13
1.68711e-14
7.60918e-14
-1.74905e-13
9.98711e-15
1.26359e-13
4.32194e-15
3.4903e-13
-9.42063e-15
-2.40008e-14
1.19127e-13
1.66365e-13
-4.49475e-13
1.00528e-13
1.34101e-13
-2.99088e-13
8.03747e-14
1.43092e-13
-2.61686e-13
6.32401e-14
1.23367e-13
-2.37882e-13
4.88425e-14
1.08439e-13
-2.17381e-13
3.691e-14
1.29959e-13
-1.97003e-13
2.66184e-14
9.83919e-14
-1.89704e-13
1.79586e-14
1.0133e-13
-2.29101e-13
1.08749e-14
1.29831e-13
4.22251e-15
2.70879e-13
-1.2817e-14
-1.61921e-13
1.52963e-13
2.94139e-13
-6.57293e-13
1.24877e-13
2.56084e-13
-4.18847e-13
9.66688e-14
2.51409e-13
-3.61923e-13
7.4009e-14
2.10628e-13
-3.19897e-13
5.58656e-14
1.79443e-13
-2.866e-13
4.097e-14
1.98778e-13
-2.54473e-13
2.91089e-14
1.23576e-13
-2.34689e-13
1.9285e-14
1.44127e-13
-2.86252e-13
1.17326e-14
1.51246e-13
4.80167e-15
2.32948e-13
-1.62121e-14
-5.83959e-13
1.99031e-13
5.25056e-13
-9.3757e-13
1.56826e-13
4.73752e-13
-5.75659e-13
1.17419e-13
4.29693e-13
-4.86323e-13
8.71857e-14
3.47986e-13
-4.20493e-13
6.39042e-14
2.86075e-13
-3.65026e-13
4.59486e-14
2.95637e-13
-3.1927e-13
3.19177e-14
2.25926e-13
-2.84621e-13
2.07278e-14
1.9757e-13
-3.46496e-13
1.22342e-14
1.89418e-13
5.08701e-15
2.21054e-13
-1.94773e-14
-1.12561e-12
3.17777e-13
9.49598e-13
-1.3176e-12
1.85805e-13
8.4988e-13
-7.82588e-13
1.45405e-13
7.17455e-13
-6.43703e-13
1.04799e-13
5.59804e-13
-5.40615e-13
7.53e-14
4.49704e-13
-4.57136e-13
5.48907e-14
4.4104e-13
-3.9135e-13
3.87516e-14
3.9642e-13
-3.39621e-13
2.49521e-14
2.26225e-13
-4.09937e-13
1.43412e-14
2.43506e-13
6.23344e-15
2.27953e-13
-2.30113e-14
-2.03884e-12
1.85217e-11
5.3124e-12
-1.82367e-12
3.62769e-13
1.48995e-12
-1.05788e-12
2.58978e-13
1.17675e-12
-8.42989e-13
1.72674e-13
9.07353e-13
-6.86861e-13
1.13384e-13
7.55229e-13
-5.65201e-13
7.1124e-14
6.54386e-13
-4.71306e-13
3.405e-14
5.60994e-13
-3.99668e-13
1.90044e-14
2.85519e-13
-4.76974e-13
1.00542e-14
3.09637e-13
4.73231e-15
2.49066e-13
-2.66315e-14
-2.44434e-10
2.17057e-09
5.81967e-08
-2.66439e-12
2.03379e-13
5.97547e-11
-1.32942e-12
2.00783e-12
8.07969e-14
-1.09637e-12
1.55675e-12
8.36604e-14
-8.64142e-13