/*--------------------------------*- C++ -*----------------------------------*\
| =========                 |                                                 |
| \\      /  F ield         | OpenFOAM: The Open Source CFD Toolbox           |
|  \\    /   O peration     | Version:  4.1                                   |
|   \\  /    A nd           | Web:      www.OpenFOAM.org                      |
|    \\/     M anipulation  |                                                 |
\*---------------------------------------------------------------------------*/
FoamFile
{
    version     2.0;
    format      ascii;
    class       volVectorField;
    location    "0.44";
    object      U;
}
// * * * * * * * * * * * * * * * * * * * * * * * * * * * * * * * * * * * * * //

dimensions      [0 1 -1 0 0 0 0];

internalField   nonuniform List<vector> 
18000
(
(8.08991e-14 3.8993e-13 -6.25913e-12)
(8.69091e-14 3.8858e-13 -6.18742e-12)
(7.85693e-14 -9.93758e-15 -6.11637e-12)
(7.04276e-14 -1.21723e-14 -6.04649e-12)
(6.25077e-14 -1.19791e-14 -5.97738e-12)
(5.47945e-14 -1.17384e-14 -5.90921e-12)
(4.73205e-14 -1.16898e-14 -5.84184e-12)
(4.01091e-14 -1.16518e-14 -5.7756e-12)
(3.30851e-14 -1.14952e-14 -5.71035e-12)
(2.62938e-14 -8.98265e-15 -5.64684e-12)
(1.12943e-13 4.03062e-13 -7.85519e-12)
(1.28595e-13 3.92286e-13 -7.57487e-12)
(1.13053e-13 -4.26179e-14 -7.30461e-12)
(9.83583e-14 -4.35761e-14 -7.04668e-12)
(8.46704e-14 -4.21059e-14 -6.79972e-12)
(7.19015e-14 -4.05686e-14 -6.56331e-12)
(5.99043e-14 -3.90994e-14 -6.33668e-12)
(4.8775e-14 -3.77977e-14 -6.11968e-12)
(3.83213e-14 -3.64722e-14 -5.91133e-12)
(2.85843e-14 -2.79891e-14 -5.71465e-12)
(1.19685e-13 4.09387e-13 -9.98157e-12)
(1.32871e-13 3.86142e-13 -9.36557e-12)
(1.10247e-13 -8.9166e-14 -8.79093e-12)
(8.99696e-14 -8.63369e-14 -8.25955e-12)
(7.19053e-14 -8.09405e-14 -7.76661e-12)
(5.57983e-14 -7.61633e-14 -7.30915e-12)
(4.13903e-14 -7.17528e-14 -6.88468e-12)
(2.85239e-14 -6.76312e-14 -6.48972e-12)
(1.70322e-14 -6.38174e-14 -6.12222e-12)
(6.7927e-15 -4.7788e-14 -5.78364e-12)
(1.60495e-13 4.03619e-13 -1.28557e-11)
(1.67898e-13 3.63721e-13 -1.17007e-11)
(1.34921e-13 -1.55266e-13 -1.06649e-11)
(1.06768e-13 -1.43973e-13 -9.73735e-12)
(8.28569e-14 -1.31384e-13 -8.90715e-12)
(6.247e-14 -1.2015e-13 -8.16201e-12)
(4.51642e-14 -1.10125e-13 -7.49161e-12)
(3.03185e-14 -1.01157e-13 -6.8874e-12)
(1.76809e-14 -9.29614e-14 -6.34194e-12)
(6.91883e-15 -6.82141e-14 -5.85372e-12)
(2.1999e-13 3.7536e-13 -1.68046e-11)
(2.15654e-13 3.1415e-13 -1.47859e-11)
(1.67158e-13 -2.49532e-13 -1.30487e-11)
(1.27797e-13 -2.22521e-13 -1.15514e-11)
(9.60609e-14 -1.96564e-13 -1.02594e-11)
(7.03461e-14 -1.74366e-13 -9.13953e-12)
(4.94074e-14 -1.55397e-13 -8.16551e-12)
(3.23232e-14 -1.39054e-13 -7.31577e-12)
(1.83803e-14 -1.24588e-13 -6.57155e-12)
(7.0063e-15 -8.94474e-14 -5.92524e-12)
(3.09038e-13 3.0777e-13 -2.23275e-11)
(2.82356e-13 2.18907e-13 -1.89191e-11)
(2.09914e-13 -3.85459e-13 -1.61144e-11)
(1.54434e-13 -3.29684e-13 -1.37949e-11)
(1.12096e-13 -2.81128e-13 -1.18707e-11)
(7.94627e-14 -2.41532e-13 -1.0264e-11)
(5.4161e-14 -2.08915e-13 -8.91527e-12)
(3.4487e-14 -1.81688e-13 -7.7772e-12)
(1.91328e-14 -1.58629e-13 -6.81137e-12)
(7.11147e-15 -1.11516e-13 -5.99755e-12)
(4.46143e-13 1.70393e-13 -3.01993e-11)
(3.77351e-13 4.63686e-14 -2.45438e-11)
(2.67389e-13 -5.8412e-13 -2.01001e-11)
(1.88365e-13 -4.77578e-13 -1.65923e-11)
(1.31493e-13 -3.91634e-13 -1.38018e-11)
(8.99281e-14 -3.24833e-13 -1.15621e-11)
(5.93298e-14 -2.72049e-13 -9.75073e-12)
(3.66437e-14 -2.29816e-13 -8.27444e-12)
(1.97305e-14 -1.95481e-13 -7.0623e-12)
(7.05737e-15 -1.3444e-13 -6.0711e-12)
(-4.84249e-13 -9.19256e-14 -4.16772e-11)
(-6.08773e-13 -2.59268e-13 -3.23199e-11)
(-7.13845e-13 -8.78612e-13 -2.53464e-11)
(-7.68348e-13 -6.83244e-13 -2.011e-11)
(-7.92317e-13 -5.36688e-13 -1.61298e-11)
(-7.97431e-13 -4.28564e-13 -1.30678e-11)
(-7.90967e-13 -3.46843e-13 -1.06853e-11)
(-7.77474e-13 -2.84102e-13 -8.8127e-12)
(-7.5991e-13 -2.35116e-13 -7.32553e-12)
(-7.48025e-13 -1.58225e-13 -6.14715e-12)
(-3.55168e-09 -7.27758e-13 -7.1929e-11)
(-3.47753e-09 -7.34921e-13 -5.48024e-11)
(-3.26223e-09 -1.14822e-12 -4.24892e-11)
(-3.06994e-09 -8.13594e-13 -3.35517e-11)
(-2.89801e-09 -5.85597e-13 -2.69512e-11)
(-2.74358e-09 -4.28303e-13 -2.19846e-11)
(-2.60423e-09 -3.17454e-13 -1.81854e-11)
(-2.47794e-09 -2.37989e-13 -1.52349e-11)
(-2.36311e-09 -2.00841e-13 -1.29107e-11)
(-2.28875e-09 -1.97933e-13 -1.11238e-11)
(3.7698e-07 -5.61403e-10 -4.2567e-08)
(2.84151e-08 1.55551e-10 -3.6885e-08)
(2.31369e-08 5.31113e-10 -3.21348e-08)
(1.94147e-08 4.76564e-10 -2.82211e-08)
(1.62971e-08 4.27496e-10 -2.49645e-08)
(1.36588e-08 3.85003e-10 -2.22292e-08)
(1.14057e-08 3.48119e-10 -1.99121e-08)
(9.46539e-09 3.15767e-10 -1.79335e-08)
(7.63117e-09 2.06686e-10 -1.62321e-08)
(-6.1268e-08 -8.29103e-11 -1.49613e-08)
(2.63835e-13 3.67606e-13 -6.50402e-12)
(2.47142e-13 3.44582e-13 -6.42827e-12)
(2.16789e-13 -5.34923e-14 -6.35305e-12)
(1.87612e-13 -5.52352e-14 -6.27868e-12)
(1.59552e-13 -5.4635e-14 -6.20556e-12)
(1.32547e-13 -5.39764e-14 -6.13377e-12)
(1.06566e-13 -5.34214e-14 -6.06221e-12)
(8.1607e-14 -5.27982e-14 -5.99237e-12)
(5.75005e-14 -5.18127e-14 -5.92342e-12)
(3.46691e-14 -3.0055e-14 -5.85606e-12)
(5.30287e-13 3.19385e-13 -8.19558e-12)
(4.88339e-13 2.2964e-13 -7.89789e-12)
(4.18537e-13 -1.99974e-13 -7.61066e-12)
(3.53373e-13 -1.95107e-13 -7.33675e-12)
(2.92634e-13 -1.88291e-13 -7.0752e-12)
(2.35993e-13 -1.81687e-13 -6.82462e-12)
(1.83173e-13 -1.75329e-13 -6.58503e-12)
(1.33889e-13 -1.6941e-13 -6.35555e-12)
(8.78351e-14 -1.62499e-13 -6.13588e-12)
(4.53194e-14 -9.24185e-14 -5.92784e-12)
(6.52178e-13 2.33447e-13 -1.0464e-11)
(5.79128e-13 5.00031e-14 -9.80467e-12)
(4.79228e-13 -4.05937e-13 -9.19179e-12)
(3.89738e-13 -3.836e-13 -8.62498e-12)
(3.10055e-13 -3.60426e-13 -8.10088e-12)
(2.38984e-13 -3.38862e-13 -7.61525e-12)
(1.75546e-13 -3.18964e-13 -7.16523e-12)
(1.18909e-13 -3.00598e-13 -6.74711e-12)
(6.84432e-14 -2.81917e-13 -6.35854e-12)
(2.37727e-14 -1.57873e-13 -6.00139e-12)
(8.48442e-13 8.84707e-14 -1.35521e-11)
(7.26728e-13 -2.25925e-13 -1.23077e-11)
(5.83494e-13 -6.94748e-13 -1.11959e-11)
(4.60835e-13 -6.36457e-13 -1.02023e-11)
(3.56455e-13 -5.81165e-13 -9.3156e-12)
(2.67352e-13 -5.31911e-13 -8.52179e-12)
(1.91299e-13 -4.87748e-13 -7.80954e-12)
(1.26365e-13 -4.47925e-13 -7.16927e-12)
(7.09205e-14 -4.09795e-13 -6.5914e-12)
(2.41805e-14 -2.25862e-13 -6.07572e-12)
(1.12118e-12 -1.49731e-13 -1.78318e-11)
(9.23291e-13 -6.47026e-13 -1.56395e-11)
(7.16958e-13 -1.10034e-12 -1.3762e-11)
(5.48589e-13 -9.75648e-13 -1.21485e-11)
(4.11688e-13 -8.64427e-13 -1.07623e-11)
(3.00043e-13 -7.68684e-13 -9.56508e-12)
(2.08915e-13 -6.85626e-13 -8.52702e-12)
(1.34485e-13 -6.1349e-13 -7.62408e-12)
(7.35909e-14 -5.47406e-13 -6.83519e-12)
(2.45014e-14 -2.96829e-13 -6.15209e-12)
(1.507e-12 -5.35377e-13 -2.38812e-11)
(1.18941e-12 -1.28802e-12 -2.01402e-11)
(8.89832e-13 -1.67279e-12 -1.70853e-11)
(6.57762e-13 -1.43199e-12 -1.4569e-11)
(4.77829e-13 -1.22818e-12 -1.2494e-11)
(3.37759e-13 -1.05928e-12 -1.07693e-11)
(2.28504e-13 -9.18026e-13 -9.32782e-12)
(1.43143e-13 -7.99449e-13 -8.11599e-12)
(7.64298e-14 -6.95383e-13 -7.09102e-12)
(2.48081e-14 -3.70627e-13 -6.22994e-12)
(2.0659e-12 -1.15649e-12 -3.26113e-11)
(1.55481e-12 -2.26655e-12 -2.63279e-11)
(1.11623e-12 -2.48699e-12 -2.1441e-11)
(7.94531e-13 -2.04837e-12 -1.7606e-11)
(5.57368e-13 -1.69672e-12 -1.45795e-11)
(3.81445e-13 -1.41656e-12 -1.2165e-11)
(2.50385e-13 -1.191e-12 -1.02227e-11)
(1.52522e-13 -1.00821e-12 -8.64751e-12)
(7.93436e-14 -8.54427e-13 -7.3583e-12)
(2.52099e-14 -4.47734e-13 -6.30958e-12)
(2.92048e-12 -2.16974e-12 -4.55359e-11)
(2.05072e-12 -3.77663e-12 -3.49866e-11)
(1.40188e-12 -3.65349e-12 -2.7229e-11)
(9.52232e-13 -2.88549e-12 -2.14549e-11)
(6.37974e-13 -2.3014e-12 -1.71092e-11)
(4.16107e-13 -1.85615e-12 -1.37912e-11)
(2.58329e-13 -1.51191e-12 -1.12278e-11)
(1.4564e-13 -1.24298e-12 -9.22395e-12)
(6.48803e-14 -1.02539e-12 -7.64005e-12)
(7.68567e-15 -5.27851e-13 -6.39181e-12)
(-5.71281e-11 -4.17917e-12 -7.85027e-11)
(-1.72168e-10 -6.44037e-12 -5.90623e-11)
(-1.40661e-10 -5.52213e-12 -4.53337e-11)
(-1.15867e-10 -4.18958e-12 -3.55014e-11)
(-9.65354e-11 -3.22809e-12 -2.83309e-11)
(-8.12521e-11 -2.52689e-12 -2.29896e-11)
(-6.90204e-11 -2.00569e-12 -1.8938e-11)
(-5.91217e-11 -1.61263e-12 -1.58139e-11)
(-5.10337e-11 -1.30587e-12 -1.33664e-11)
(-4.45043e-11 -6.99813e-13 -1.14934e-11)
(2.4427e-07 -1.21721e-09 -4.50321e-08)
(-5.78343e-09 -9.85357e-10 -3.88003e-08)
(-5.80958e-09 -5.1623e-10 -3.35728e-08)
(-5.33764e-09 -4.6188e-10 -2.93204e-08)
(-4.90921e-09 -4.16146e-10 -2.58186e-08)
(-4.52788e-09 -3.76204e-10 -2.29027e-08)
(-4.19078e-09 -3.41287e-10 -2.04501e-08)
(-3.89377e-09 -3.10697e-10 -1.83684e-08)
(-3.64138e-09 -2.84193e-10 -1.65875e-08)
(-4.43549e-09 -2.78898e-10 -1.52556e-08)
(2.29911e-13 3.72505e-13 -2.51851e-13)
(2.16923e-13 3.48019e-13 -2.47229e-13)
(1.90194e-13 -5.03149e-14 -2.42213e-13)
(1.64685e-13 -5.20847e-14 -2.37327e-13)
(1.40278e-13 -5.12262e-14 -2.32802e-13)
(1.1678e-13 -5.0714e-14 -2.28353e-13)
(9.44444e-14 -5.02425e-14 -2.23988e-13)
(7.29766e-14 -4.95053e-14 -2.20065e-13)
(5.24187e-14 -4.86914e-14 -2.16036e-13)
(3.30279e-14 -2.55701e-14 -2.12257e-13)
(5.01658e-13 3.3736e-13 -3.50775e-13)
(4.63049e-13 2.41363e-13 -3.32337e-13)
(3.9666e-13 -1.88731e-13 -3.14293e-13)
(3.34732e-13 -1.83918e-13 -2.97073e-13)
(2.77201e-13 -1.77326e-13 -2.81672e-13)
(2.23611e-13 -1.70958e-13 -2.6709e-13)
(1.73813e-13 -1.64777e-13 -2.53036e-13)
(1.27364e-13 -1.59011e-13 -2.39948e-13)
(8.4048e-14 -1.52426e-13 -2.28519e-13)
(4.42695e-14 -7.92282e-14 -2.16842e-13)
(6.20167e-13 2.69952e-13 -4.99242e-13)
(5.51057e-13 7.18577e-14 -4.53861e-13)
(4.55215e-13 -3.84849e-13 -4.1332e-13)
(3.69516e-13 -3.63257e-13 -3.76429e-13)
(2.93455e-13 -3.40469e-13 -3.43589e-13)
(2.25902e-13 -3.19632e-13 -3.13707e-13)
(1.65771e-13 -3.00453e-13 -2.87241e-13)
(1.1232e-13 -2.82785e-13 -2.63255e-13)
(6.46085e-14 -2.64559e-13 -2.41283e-13)
(2.27331e-14 -1.35428e-13 -2.22488e-13)
(8.13736e-13 1.52114e-13 -7.23887e-13)
(6.96402e-13 -1.92216e-13 -6.30809e-13)
(5.57558e-13 -6.62334e-13 -5.50705e-13)
(4.39131e-13 -6.05499e-13 -4.8111e-13)
(3.38816e-13 -5.5133e-13 -4.22023e-13)
(2.53603e-13 -5.03277e-13 -3.71158e-13)
(1.81166e-13 -4.60261e-13 -3.27508e-13)
(1.19569e-13 -4.22097e-13 -2.89867e-13)
(6.71432e-14 -3.85334e-13 -2.56756e-13)
(2.31514e-14 -1.9448e-13 -2.28291e-13)
(1.08632e-12 -4.71219e-14 -1.07446e-12)
(8.91627e-13 -6.00828e-13 -8.92114e-13)
(6.89694e-13 -1.05591e-12 -7.44183e-13)
(5.25575e-13 -9.33233e-13 -6.2236e-13)
(3.93102e-13 -8.23539e-13 -5.23041e-13)
(2.85692e-13 -7.29867e-13 -4.41905e-13)
(1.98479e-13 -6.49077e-13 -3.7521e-13)
(1.27555e-13 -5.79265e-13 -3.20146e-13)
(6.99213e-14 -5.15188e-13 -2.73734e-13)
(2.36383e-14 -2.5594e-13 -2.35473e-13)
(1.47729e-12 -3.7842e-13 -1.6358e-12)
(1.1591e-12 -1.23266e-12 -1.28552e-12)
(8.62346e-13 -1.61695e-12 -1.02041e-12)
(6.33874e-13 -1.37807e-12 -8.12817e-13)
(4.58432e-13 -1.17572e-12 -6.53622e-13)
(3.22813e-13 -1.00956e-12 -5.29413e-13)
(2.17763e-13 -8.71465e-13 -4.32231e-13)
(1.36245e-13 -7.56291e-13 -3.55233e-13)
(7.27411e-14 -6.55373e-13 -2.92535e-13)
(2.40995e-14 -3.20803e-13 -2.43763e-13)
(2.0529e-12 -9.22314e-13 -2.55657e-12)
(1.53147e-12 -2.21239e-12 -1.89145e-12)
(1.09099e-12 -2.42505e-12 -1.41964e-12)
(7.71008e-13 -1.98481e-12 -1.07314e-12)
(5.37714e-13 -1.63281e-12 -8.22797e-13)
(3.66158e-13 -1.35566e-12 -6.37738e-13)
(2.39487e-13 -1.13401e-12 -4.99674e-13)
(1.45535e-13 -9.56112e-13 -3.95212e-13)
(7.56733e-14 -8.06513e-13 -3.13957e-13)
(2.45655e-14 -3.88406e-13 -2.53194e-13)
(2.9658e-12 -1.82847e-12 -4.12006e-12)
(2.06165e-12 -3.75078e-12 -2.84589e-12)
(1.39929e-12 -3.5979e-12 -2.00843e-12)
(9.46693e-13 -2.81751e-12 -1.43433e-12)
(6.34688e-13 -2.2283e-12 -1.0449e-12)
(4.17058e-13 -1.78454e-12 -7.72867e-13)
(2.63955e-13 -1.44459e-12 -5.79951e-13)
(1.55657e-13 -1.18174e-12 -4.40547e-13)
(7.8791e-14 -9.69518e-13 -3.38185e-13)
(2.48854e-14 -4.5942e-13 -2.63106e-13)
(1.44555e-10 -3.47139e-12 -7.04846e-12)
(-1.00958e-12 -6.31254e-12 -4.55021e-12)
(-1.31156e-12 -5.33145e-12 -3.03644e-12)
(-1.04967e-12 -3.97679e-12 -2.08087e-12)
(-8.62872e-13 -3.01316e-12 -1.47263e-12)
(-7.22845e-13 -2.3227e-12 -1.07257e-12)
(-6.14172e-13 -1.81691e-12 -8.03269e-13)
(-5.27603e-13 -1.44098e-12 -6.17779e-13)
(-4.57643e-13 -1.15009e-12 -4.86347e-13)
(-3.93716e-13 -5.3824e-13 -3.94452e-13)
(2.1474e-07 -5.02993e-10 -2.6029e-09)
(2.23841e-10 -4.58181e-10 -1.96472e-09)
(-1.98881e-10 -5.98408e-11 -1.46983e-09)
(-1.59663e-10 -4.4425e-11 -1.12018e-09)
(-1.28907e-10 -3.45273e-11 -8.68358e-10)
(-1.05342e-10 -2.72164e-11 -6.83336e-10)
(-8.70141e-11 -2.17312e-11 -5.45015e-10)
(-7.26195e-11 -1.75573e-11 -4.39978e-10)
(-6.14124e-11 -1.4316e-11 -3.59115e-10)
(-6.19523e-11 -1.16283e-11 -2.97006e-10)
(2.26901e-13 3.72756e-13 -1.1681e-14)
(2.14267e-13 3.47934e-13 -1.08621e-14)
(1.87894e-13 -5.03336e-14 -8.78664e-15)
(1.62661e-13 -5.19767e-14 -7.75729e-15)
(1.38585e-13 -5.12968e-14 -6.36576e-15)
(1.15528e-13 -5.06659e-14 -5.35267e-15)
(9.34161e-14 -4.99907e-14 -4.501e-15)
(7.22553e-14 -4.93206e-14 -3.57013e-15)
(5.20761e-14 -4.83657e-14 -3.1791e-15)
(3.29607e-14 -2.51956e-14 -3.15159e-15)
(4.98111e-13 3.38948e-13 -1.7412e-14)
(4.60052e-13 2.42475e-13 -1.55602e-14)
(3.9415e-13 -1.87784e-13 -1.34613e-14)
(3.32692e-13 -1.82963e-13 -1.12184e-14)
(2.75551e-13 -1.76135e-13 -9.15191e-15)
(2.2236e-13 -1.69971e-13 -7.93945e-15)
(1.7293e-13 -1.63943e-13 -6.62163e-15)
(1.26837e-13 -1.57869e-13 -5.64846e-15)
(8.38269e-14 -1.51234e-13 -4.92697e-15)
(4.43634e-14 -7.80121e-14 -4.38289e-15)
(6.15481e-13 2.73908e-13 -2.82187e-14)
(5.47358e-13 7.46473e-14 -2.49628e-14)
(4.52213e-13 -3.82244e-13 -2.09716e-14)
(3.67167e-13 -3.60776e-13 -1.7308e-14)
(2.91691e-13 -3.38409e-13 -1.47333e-14)
(2.24598e-13 -3.17576e-13 -1.22461e-14)
(1.6498e-13 -2.98314e-13 -1.01799e-14)
(1.11914e-13 -2.80885e-13 -8.79674e-15)
(6.4564e-14 -2.62636e-13 -7.46622e-15)
(2.2969e-14 -1.33301e-13 -7.21025e-15)
(8.07547e-13 1.60276e-13 -4.70346e-14)
(6.91664e-13 -1.86533e-13 -4.11833e-14)
(5.53976e-13 -6.577e-13 -3.41985e-14)
(4.36469e-13 -6.01247e-13 -2.79755e-14)
(3.3691e-13 -5.4742e-13 -2.32638e-14)
(2.52383e-13 -4.99779e-13 -1.95971e-14)
(1.80483e-13 -4.57133e-13 -1.63324e-14)
(1.19372e-13 -4.19064e-13 -1.38007e-14)
(6.73416e-14 -3.82545e-13 -1.20555e-14)
(2.3576e-14 -1.91908e-13 -1.06574e-14)
(1.07809e-12 -3.23086e-14 -8.18799e-14)
(8.85716e-13 -5.9112e-13 -6.87918e-14)
(6.85431e-13 -1.04778e-12 -5.53482e-14)
(5.22667e-13 -9.26386e-13 -4.47739e-14)
(3.91201e-13 -8.17808e-13 -3.66626e-14)
(2.84565e-13 -7.24723e-13 -2.98167e-14)
(1.98006e-13 -6.44384e-13 -2.48825e-14)
(1.27621e-13 -5.75216e-13 -2.15551e-14)
(7.01591e-14 -5.1181e-13 -1.88158e-14)
(2.42419e-14 -2.52699e-13 -1.61851e-14)
(1.46598e-12 -3.51469e-13 -1.43223e-13)
(1.1516e-12 -1.21658e-12 -1.15374e-13)
(8.57289e-13 -1.60446e-12 -9.0539e-14)
(6.30669e-13 -1.36788e-12 -7.13993e-14)
(4.56574e-13 -1.16741e-12 -5.69151e-14)
(3.21929e-13 -1.0026e-12 -4.60357e-14)
(2.17577e-13 -8.65512e-13 -3.78392e-14)
(1.36471e-13 -7.51679e-13 -3.15181e-14)
(7.3284e-14 -6.51426e-13 -2.6014e-14)
(2.48535e-14 -3.16772e-13 -2.26686e-14)
(2.03727e-12 -8.74276e-13 -2.52974e-13)
(1.52156e-12 -2.18666e-12 -1.94797e-13)
(1.08493e-12 -2.40601e-12 -1.46193e-13)
(7.6743e-13 -1.97021e-12 -1.11988e-13)
(5.35866e-13 -1.62158e-12 -8.67318e-14)
(3.6552e-13 -1.34669e-12 -6.84412e-14)
(2.39514e-13 -1.1269e-12 -5.47932e-14)
(1.46001e-13 -9.50581e-13 -4.46245e-14)
(7.66134e-14 -8.02149e-13 -3.69296e-14)
(2.5466e-14 -3.84213e-13 -3.07092e-14)
(2.94307e-12 -1.74316e-12 -4.55083e-13)
(2.04716e-12 -3.71064e-12 -3.26862e-13)
(1.39102e-12 -3.56972e-12 -2.35368e-13)
(9.42302e-13 -2.79747e-12 -1.7231e-13)
(6.32737e-13 -2.21331e-12 -1.29109e-13)
(4.16576e-13 -1.77356e-12 -9.90371e-14)
(2.64312e-13 -1.43649e-12 -7.68638e-14)
(1.56524e-13 -1.17541e-12 -6.10408e-14)
(7.99627e-14 -9.65017e-13 -4.96036e-14)
(2.62475e-14 -4.55068e-13 -4.0325e-14)
(1.55799e-10 -3.31196e-12 -8.28865e-13)
(3.37556e-12 -6.24526e-12 -5.4024e-13)
(1.75346e-12 -5.28278e-12 -3.68676e-13)
(1.13252e-12 -3.94295e-12 -2.59595e-13)
(7.28071e-13 -2.98876e-12 -1.87674e-13)
(4.59862e-13 -2.30462e-12 -1.39472e-13)
(2.80226e-13 -1.80306e-12 -1.05817e-13)
(1.58938e-13 -1.43004e-12 -8.22284e-14)
(7.65298e-14 -1.14106e-12 -6.49931e-14)
(2.14496e-14 -5.29385e-13 -5.26625e-14)
(2.12701e-07 -4.31368e-10 -1.77789e-10)
(4.80881e-10 -4.0724e-10 -5.132e-11)
(-2.21804e-12 -1.12376e-11 -3.27319e-11)
(-2.11435e-12 -6.67304e-12 -2.15625e-11)
(-1.52909e-12 -4.7819e-12 -1.463e-11)
(-1.13699e-12 -3.50751e-12 -1.01733e-11)
(-8.64138e-13 -2.62333e-12 -7.22675e-12)
(-6.70349e-13 -1.99771e-12 -5.23088e-12)
(-5.32616e-13 -1.53787e-12 -3.85085e-12)
(-4.91015e-13 -7.62585e-13 -2.83991e-12)
(2.27264e-13 3.72657e-13 -1.08949e-14)
(2.14541e-13 3.47361e-13 -9.92346e-15)
(1.88185e-13 -5.10583e-14 -7.50352e-15)
(1.62874e-13 -5.25678e-14 -5.53986e-15)
(1.38749e-13 -5.1711e-14 -4.12426e-15)
(1.15594e-13 -5.09929e-14 -2.92558e-15)
(9.35585e-14 -5.04984e-14 -2.13296e-15)
(7.24407e-14 -4.95857e-14 -1.22769e-15)
(5.21808e-14 -4.8418e-14 -4.83722e-16)
(3.30514e-14 -2.54051e-14 -3.16381e-16)
(4.99052e-13 3.38634e-13 -1.61023e-14)
(4.60856e-13 2.418e-13 -1.43001e-14)
(3.94867e-13 -1.88529e-13 -1.10361e-14)
(3.332e-13 -1.83809e-13 -9.03681e-15)
(2.76054e-13 -1.76902e-13 -6.28494e-15)
(2.22778e-13 -1.70334e-13 -4.73741e-15)
(1.73294e-13 -1.64147e-13 -3.78504e-15)
(1.27226e-13 -1.58234e-13 -3.24013e-15)
(8.41682e-14 -1.51544e-13 -2.36292e-15)
(4.47214e-14 -7.80752e-14 -1.46954e-15)
(6.17147e-13 2.73406e-13 -2.6106e-14)
(5.48854e-13 7.35946e-14 -2.31364e-14)
(4.53472e-13 -3.83644e-13 -1.87839e-14)
(3.68197e-13 -3.61883e-13 -1.46695e-14)
(2.9262e-13 -3.38998e-13 -1.20148e-14)
(2.25449e-13 -3.18269e-13 -9.71234e-15)
(1.65667e-13 -2.98939e-13 -7.84131e-15)
(1.12529e-13 -2.81235e-13 -6.4946e-15)
(6.51325e-14 -2.62796e-13 -5.86729e-15)
(2.35226e-14 -1.33509e-13 -5.0802e-15)
(8.10493e-13 1.59337e-13 -4.47607e-14)
(6.94268e-13 -1.88272e-13 -3.91037e-14)
(5.56079e-13 -6.59618e-13 -3.22703e-14)
(4.3826e-13 -6.02955e-13 -2.62107e-14)
(3.38425e-13 -5.48704e-13 -2.14346e-14)
(2.53614e-13 -5.00841e-13 -1.77696e-14)
(1.8159e-13 -4.58034e-13 -1.51926e-14)
(1.20368e-13 -4.19828e-13 -1.28821e-14)
(6.827e-14 -3.83098e-13 -1.11171e-14)
(2.43512e-14 -1.91902e-13 -1.02943e-14)
(1.08306e-12 -3.4097e-14 -7.82365e-14)
(8.89899e-13 -5.94553e-13 -6.77781e-14)
(6.88834e-13 -1.05145e-12 -5.49299e-14)
(5.25431e-13 -9.29176e-13 -4.44866e-14)
(3.93494e-13 -8.20029e-13 -3.70413e-14)
(2.86483e-13 -7.26704e-13 -3.07561e-14)
(1.99635e-13 -6.45828e-13 -2.55791e-14)
(1.28977e-13 -5.76196e-13 -2.19895e-14)
(7.1409e-14 -5.12691e-13 -1.91996e-14)
(2.52968e-14 -2.53301e-13 -1.67922e-14)
(1.47429e-12 -3.55498e-13 -1.38073e-13)
(1.15837e-12 -1.22302e-12 -1.15254e-13)
(8.62602e-13 -1.61046e-12 -9.20345e-14)
(6.34922e-13 -1.37288e-12 -7.37895e-14)
(4.59932e-13 -1.17131e-12 -5.98949e-14)
(3.24708e-13 -1.00577e-12 -4.96404e-14)
(2.19822e-13 -8.6817e-13 -4.07308e-14)
(1.38325e-13 -7.5372e-13 -3.43636e-14)
(7.48131e-14 -6.53072e-13 -2.96254e-14)
(2.61375e-14 -3.17687e-13 -2.54482e-14)
(2.05123e-12 -8.82203e-13 -2.44295e-13)
(1.53246e-12 -2.19917e-12 -1.96675e-13)
(1.09308e-12 -2.41716e-12 -1.52397e-13)
(7.73683e-13 -1.97888e-12 -1.18712e-13)
(5.40705e-13 -1.62838e-12 -9.46201e-14)
(3.69271e-13 -1.35217e-12 -7.59392e-14)
(2.42486e-13 -1.13127e-12 -6.15895e-14)
(1.48411e-13 -9.53926e-13 -5.08379e-14)
(7.85173e-14 -8.04958e-13 -4.27344e-14)
(2.70765e-14 -3.85863e-13 -3.60407e-14)
(2.96697e-12 -1.75936e-12 -4.35415e-13)
(2.06447e-12 -3.73491e-12 -3.33524e-13)
(1.40347e-12 -3.58953e-12 -2.47645e-13)
(9.51453e-13 -2.81255e-12 -1.87445e-13)
(6.39502e-13 -2.22499e-12 -1.44426e-13)
(4.21673e-13 -1.78259e-12 -1.12936e-13)
(2.68214e-13 -1.44355e-12 -8.96742e-14)
(1.59535e-13 -1.18099e-12 -7.21445e-14)
(8.22492e-14 -9.69335e-13 -5.88764e-14)
(2.80441e-14 -4.5763e-13 -4.93566e-14)
(1.59041e-10 -3.34746e-12 -8.08527e-13)
(3.5164e-12 -6.29339e-12 -5.64791e-13)
(1.81995e-12 -5.31858e-12 -4.00197e-13)
(1.17475e-12 -3.96913e-12 -2.90695e-13)
(7.55862e-13 -3.00818e-12 -2.15782e-13)
(4.78772e-13 -2.31919e-12 -1.63458e-13)
(2.93362e-13 -1.81416e-12 -1.25627e-13)
(1.6824e-13 -1.43864e-12 -9.87961e-14)
(8.3194e-14 -1.14787e-12 -7.84723e-14)
(2.6168e-14 -5.33187e-13 -6.35059e-14)
(2.22255e-07 -4.40867e-10 -1.32682e-10)
(5.20095e-10 -4.12781e-10 -2.61691e-12)
(2.43911e-12 -9.71884e-12 -1.14568e-12)
(1.10836e-12 -5.60382e-12 -7.28333e-13)
(7.38382e-13 -4.04911e-12 -4.83733e-13)
(4.96073e-13 -2.9944e-12 -3.34167e-13)
(3.334e-13 -2.2573e-12 -2.37918e-13)
(2.22621e-13 -1.73205e-12 -1.73802e-13)
(1.46247e-13 -1.34211e-12 -1.29559e-13)
(9.33924e-14 -6.14062e-13 -9.85764e-14)
(2.27819e-13 3.72352e-13 -1.3708e-14)
(2.15006e-13 3.46594e-13 -1.17234e-14)
(1.88491e-13 -5.20615e-14 -9.50031e-15)
(1.63199e-13 -5.33076e-14 -6.80235e-15)
(1.38915e-13 -5.23258e-14 -5.12502e-15)
(1.15783e-13 -5.14464e-14 -3.08846e-15)
(9.36475e-14 -5.06569e-14 -2.04188e-15)
(7.25481e-14 -4.99701e-14 -1.38484e-15)
(5.23534e-14 -4.872e-14 -6.64965e-16)
(3.31348e-14 -2.5316e-14 -6.35205e-16)
(5.0039e-13 3.38163e-13 -2.02021e-14)
(4.6203e-13 2.40519e-13 -1.78211e-14)
(3.95796e-13 -1.89787e-13 -1.34251e-14)
(3.34029e-13 -1.84783e-13 -1.06515e-14)
(2.76708e-13 -1.77789e-13 -8.23061e-15)
(2.23345e-13 -1.70927e-13 -5.95964e-15)
(1.73762e-13 -1.64509e-13 -4.36013e-15)
(1.27615e-13 -1.58406e-13 -3.21402e-15)
(8.46379e-14 -1.5192e-13 -2.85402e-15)
(4.50908e-14 -7.83783e-14 -2.38677e-15)
(6.19517e-13 2.72554e-13 -3.24536e-14)
(5.50888e-13 7.18806e-14 -2.86294e-14)
(4.55236e-13 -3.85402e-13 -2.29048e-14)
(3.69636e-13 -3.63335e-13 -1.86665e-14)
(2.93871e-13 -3.40288e-13 -1.45813e-14)
(2.26488e-13 -3.19166e-13 -1.15467e-14)
(1.66653e-13 -2.99556e-13 -9.45397e-15)
(1.13351e-13 -2.81662e-13 -8.28796e-15)
(6.5886e-14 -2.63208e-13 -7.19641e-15)
(2.4318e-14 -1.33849e-13 -6.34349e-15)
(8.1454e-13 1.57598e-13 -5.60632e-14)
(6.97726e-13 -1.91145e-13 -4.83909e-14)
(5.58955e-13 -6.62436e-13 -3.94858e-14)
(4.40647e-13 -6.05297e-13 -3.23146e-14)
(3.40453e-13 -5.50624e-13 -2.62242e-14)
(2.55401e-13 -5.02188e-13 -2.15161e-14)
(1.83078e-13 -4.59076e-13 -1.84377e-14)
(1.21676e-13 -4.20731e-13 -1.59952e-14)
(6.9353e-14 -3.83655e-13 -1.42418e-14)
(2.5366e-14 -1.92291e-13 -1.24814e-14)
(1.0899e-12 -3.73672e-14 -9.75691e-14)
(8.95625e-13 -5.99507e-13 -8.33823e-14)
(6.93407e-13 -1.05619e-12 -6.78999e-14)
(5.2917e-13 -9.33046e-13 -5.548e-14)
(3.96575e-13 -8.23096e-13 -4.587e-14)
(2.89114e-13 -7.29268e-13 -3.84108e-14)
(2.01715e-13 -6.47955e-13 -3.18722e-14)
(1.30795e-13 -5.77911e-13 -2.72522e-14)
(7.29369e-14 -5.14048e-13 -2.33095e-14)
(2.65558e-14 -2.54005e-13 -2.07826e-14)
(1.48579e-12 -3.6211e-13 -1.71832e-13)
(1.16761e-12 -1.23255e-12 -1.43317e-13)
(8.69807e-13 -1.61906e-12 -1.14062e-13)
(6.40511e-13 -1.37962e-12 -9.14247e-14)
(4.64432e-13 -1.17662e-12 -7.43728e-14)
(3.2827e-13 -1.0102e-12 -6.14779e-14)
(2.22749e-13 -8.71753e-13 -5.07394e-14)
(1.40705e-13 -7.56431e-13 -4.26067e-14)
(7.68113e-14 -6.55413e-13 -3.65096e-14)
(2.77907e-14 -3.19026e-13 -3.15962e-14)
(2.07054e-12 -8.95742e-13 -3.04201e-13)
(1.54728e-12 -2.21696e-12 -2.43591e-13)
(1.10414e-12 -2.43252e-12 -1.88908e-13)
(7.82041e-13 -1.99081e-12 -1.4774e-13)
(5.47153e-13 -1.63766e-12 -1.17843e-13)
(3.74251e-13 -1.35965e-12 -9.46093e-14)
(2.46467e-13 -1.13721e-12 -7.70695e-14)
(1.51505e-13 -9.58656e-13 -6.29697e-14)
(8.09795e-14 -8.08774e-13 -5.28704e-14)
(2.91085e-14 -3.88034e-13 -4.47095e-14)
(3.00148e-12 -1.78652e-12 -5.41316e-13)
(2.08826e-12 -3.76911e-12 -4.14297e-13)
(1.42032e-12 -3.61726e-12 -3.08404e-13)
(9.63699e-13 -2.8332e-12 -2.33483e-13)
(6.48514e-13 -2.24065e-12 -1.80094e-13)
(4.28437e-13 -1.79477e-12 -1.41103e-13)
(2.73311e-13 -1.45317e-12 -1.12233e-13)
(1.63463e-13 -1.18857e-12 -8.96414e-14)
(8.52759e-14 -9.7524e-13 -7.30306e-14)
(3.04305e-14 -4.60935e-13 -6.08226e-14)
(1.66678e-10 -3.40684e-12 -9.9221e-13)
(3.59029e-12 -6.36334e-12 -7.03473e-13)
(1.84712e-12 -5.36813e-12 -5.00304e-13)
(1.1932e-12 -4.00462e-12 -3.63425e-13)
(7.68717e-13 -3.03428e-12 -2.70342e-13)
(4.87943e-13 -2.3389e-12 -2.04574e-13)
(3.00039e-13 -1.82908e-12 -1.57282e-13)
(1.73169e-13 -1.45009e-12 -1.23119e-13)
(8.68437e-14 -1.15683e-12 -9.7904e-14)
(2.88993e-14 -5.38313e-13 -7.92132e-14)
(2.43737e-07 -4.68472e-10 -1.7926e-10)
(5.61493e-10 -4.32535e-10 -1.66927e-12)
(2.66181e-12 -9.86021e-12 -8.17328e-13)
(1.17308e-12 -5.6457e-12 -5.64049e-13)
(7.79429e-13 -4.08032e-12 -4.00651e-13)
(5.22778e-13 -3.01792e-12 -2.92021e-13)
(3.51373e-13 -2.27539e-12 -2.17735e-13)
(2.35039e-13 -1.74617e-12 -1.64851e-13)
(1.55036e-13 -1.35311e-12 -1.27063e-13)
(1.00069e-13 -6.19964e-13 -1.00206e-13)
(2.28493e-13 3.71841e-13 -1.62999e-14)
(2.15643e-13 3.45686e-13 -1.41865e-14)
(1.88905e-13 -5.30102e-14 -1.0904e-14)
(1.63547e-13 -5.43062e-14 -8.42326e-15)
(1.39269e-13 -5.31856e-14 -6.08619e-15)
(1.16056e-13 -5.22188e-14 -4.13357e-15)
(9.39158e-14 -5.11753e-14 -2.44435e-15)
(7.27228e-14 -5.01359e-14 -1.68808e-15)
(5.25307e-14 -4.87301e-14 -2.69537e-15)
(3.3337e-14 -2.5385e-14 -6.79181e-15)
(5.01997e-13 3.37549e-13 -2.41469e-14)
(4.63474e-13 2.39149e-13 -2.0684e-14)
(3.96951e-13 -1.91323e-13 -1.65328e-14)
(3.35015e-13 -1.85849e-13 -1.27831e-14)
(2.77519e-13 -1.78764e-13 -1.01432e-14)
(2.24075e-13 -1.71874e-13 -7.42303e-15)
(1.74428e-13 -1.65252e-13 -5.81851e-15)
(1.28274e-13 -1.58844e-13 -4.3181e-15)
(8.51668e-14 -1.51895e-13 -3.66346e-15)
(4.56092e-14 -7.84604e-14 -7.05867e-15)
(6.22421e-13 2.71517e-13 -3.8995e-14)
(5.53351e-13 6.9883e-14 -3.35804e-14)
(4.57311e-13 -3.8747e-13 -2.69542e-14)
(3.71417e-13 -3.65137e-13 -2.19332e-14)
(2.95294e-13 -3.41791e-13 -1.73574e-14)
(2.27779e-13 -3.20331e-13 -1.42731e-14)
(1.67781e-13 -3.00288e-13 -1.15846e-14)
(1.14467e-13 -2.82211e-13 -1.01909e-14)
(6.68728e-14 -2.63666e-13 -9.52145e-15)
(2.50771e-14 -1.34138e-13 -1.03126e-14)
(8.19541e-13 1.55492e-13 -6.6476e-14)
(7.01946e-13 -1.94614e-13 -5.69959e-14)
(5.62453e-13 -6.65733e-13 -4.64752e-14)
(4.4354e-13 -6.08098e-13 -3.80344e-14)
(3.42969e-13 -5.52989e-13 -3.15174e-14)
(2.57563e-13 -5.04046e-13 -2.65352e-14)
(1.84921e-13 -4.60391e-13 -2.24393e-14)
(1.23218e-13 -4.21679e-13 -1.93838e-14)
(7.07209e-14 -3.84713e-13 -1.74981e-14)
(2.65663e-14 -1.92933e-13 -1.65271e-14)
(1.0983e-12 -4.14993e-14 -1.16675e-13)
(9.02588e-13 -6.05669e-13 -9.82262e-14)
(6.99009e-13 -1.0619e-12 -7.95696e-14)
(5.33672e-13 -9.37675e-13 -6.51859e-14)
(4.00327e-13 -8.26821e-13 -5.40596e-14)
(2.92264e-13 -7.32464e-13 -4.5737e-14)
(2.0439e-13 -6.50573e-13 -3.86765e-14)
(1.32951e-13 -5.79983e-13 -3.31794e-14)
(7.47754e-14 -5.15664e-13 -2.87527e-14)
(2.82246e-14 -2.55049e-13 -2.66881e-14)
(1.49997e-12 -3.70346e-13 -2.06191e-13)
(1.17882e-12 -1.24395e-12 -1.68792e-13)
(8.785e-13 -1.62939e-12 -1.34504e-13)
(6.47396e-13 -1.38792e-12 -1.08455e-13)
(4.69909e-13 -1.18314e-12 -8.8451e-14)
(3.32701e-13 -1.0155e-12 -7.37972e-14)
(2.26384e-13 -8.762e-13 -6.11799e-14)
(1.43612e-13 -7.60036e-13 -5.14525e-14)
(7.9264e-14 -6.58192e-13 -4.44399e-14)
(2.97966e-14 -3.20759e-13 -3.9246e-14)
(2.09441e-12 -9.12554e-13 -3.64845e-13)
(1.56526e-12 -2.23886e-12 -2.86984e-13)
(1.11758e-12 -2.45092e-12 -2.22813e-13)
(7.92283e-13 -2.00515e-12 -1.7547e-13)
(5.55005e-13 -1.64894e-12 -1.39872e-13)
(3.80389e-13 -1.36871e-12 -1.13644e-13)
(2.51303e-13 -1.14468e-12 -9.284e-14)
(1.55311e-13 -9.64564e-13 -7.59514e-14)
(8.39932e-14 -8.13423e-13 -6.40849e-14)
(3.154e-14 -3.90874e-13 -5.51728e-14)
(3.04178e-12 -1.82037e-12 -6.49891e-13)
(2.11717e-12 -3.81061e-12 -4.88075e-13)
(1.44106e-12 -3.65054e-12 -3.65098e-13)
(9.78723e-13 -2.85834e-12 -2.77434e-13)
(6.59595e-13 -2.25981e-12 -2.14527e-13)
(4.36725e-13 -1.80958e-12 -1.68983e-13)
(2.79574e-13 -1.46506e-12 -1.35067e-13)
(1.6828e-13 -1.19803e-12 -1.07607e-13)
(8.89679e-14 -9.82568e-13 -8.81285e-14)
(3.33041e-14 -4.65245e-13 -7.37135e-14)
(1.73738e-10 -3.45293e-12 -1.00041e-12)
(3.64338e-12 -6.44179e-12 -8.29926e-13)
(1.87851e-12 -5.42792e-12 -5.94946e-13)
(1.21501e-12 -4.04808e-12 -4.33569e-13)
(7.84142e-13 -3.06634e-12 -3.23526e-13)
(4.99008e-13 -2.36307e-12 -2.45674e-13)
(3.08087e-13 -1.84769e-12 -1.9025e-13)
(1.79073e-13 -1.46422e-12 -1.4738e-13)
(9.12207e-14 -1.16787e-12 -1.17837e-13)
(3.21661e-14 -5.44678e-13 -9.59663e-14)
(2.62858e-07 -4.31557e-10 2.69885e-10)
(5.89508e-10 -4.50467e-10 1.4262e-12)
(2.60981e-12 -9.98114e-12 -9.47551e-13)
(1.19357e-12 -5.71824e-12 -6.67814e-13)
(7.93784e-13 -4.13211e-12 -4.77403e-13)
(5.32984e-13 -3.05552e-12 -3.49194e-13)
(3.58857e-13 -2.30348e-12 -2.61315e-13)
(2.40619e-13 -1.76741e-12 -1.98106e-13)
(1.59163e-13 -1.36903e-12 -1.52244e-13)
(1.03259e-13 -6.28901e-13 -1.21017e-13)
(2.29195e-13 3.71488e-13 -1.73009e-14)
(2.15921e-13 3.44492e-13 -1.07387e-14)
(1.89284e-13 -5.43083e-14 -8.3639e-15)
(1.63862e-13 -5.52011e-14 -7.15828e-15)
(1.39625e-13 -5.40411e-14 -8.17182e-15)
(1.1649e-13 -5.29449e-14 -1.09558e-14)
(9.44592e-14 -5.17387e-14 -1.62772e-14)
(7.36616e-14 -5.02394e-14 -4.79672e-14)
(5.42877e-14 -4.82292e-14 -1.94726e-13)
(3.51494e-14 -3.11739e-14 -6.43722e-13)
(5.03719e-13 3.3673e-13 -2.4294e-14)
(4.64497e-13 2.37786e-13 -1.36825e-14)
(3.97977e-13 -1.92709e-13 -1.21388e-14)
(3.35931e-13 -1.87184e-13 -1.03655e-14)
(2.78409e-13 -1.79884e-13 -1.05949e-14)
(2.25023e-13 -1.72757e-13 -1.32476e-14)
(1.75396e-13 -1.66021e-13 -1.75495e-14)
(1.29395e-13 -1.60036e-13 -3.64695e-14)
(8.6725e-14 -1.53567e-13 -1.17627e-13)
(4.68971e-14 -8.84752e-14 -4.16267e-13)
(6.25419e-13 2.70222e-13 -3.97523e-14)
(5.55453e-13 6.78231e-14 -2.40237e-14)
(4.59139e-13 -3.89439e-13 -2.00534e-14)
(3.7308e-13 -3.6678e-13 -1.79308e-14)
(2.96935e-13 -3.4318e-13 -1.68163e-14)
(2.29424e-13 -3.2161e-13 -1.92618e-14)
(1.69377e-13 -3.01661e-13 -2.40559e-14)
(1.15976e-13 -2.83468e-13 -3.42538e-14)
(6.8659e-14 -2.66129e-13 -8.25536e-14)
(2.65789e-14 -1.45113e-13 -2.72762e-13)
(8.24777e-13 1.53419e-13 -6.8308e-14)
(7.05629e-13 -1.97527e-13 -4.3733e-14)
(5.65634e-13 -6.68702e-13 -3.66687e-14)
(4.46391e-13 -6.10467e-13 -3.24206e-14)