/*--------------------------------*- C++ -*----------------------------------*\
| =========                 |                                                 |
| \\      /  F ield         | OpenFOAM: The Open Source CFD Toolbox           |
|  \\    /   O peration     | Version:  4.1                                   |
|   \\  /    A nd           | Web:      www.OpenFOAM.org                      |
|    \\/     M anipulation  |                                                 |
\*---------------------------------------------------------------------------*/
FoamFile
{
    version     2.0;
    format      ascii;
    class       volScalarField;
    location    "6.04";
    object      p;
}
// * * * * * * * * * * * * * * * * * * * * * * * * * * * * * * * * * * * * * //

dimensions      [1 -1 -2 0 0 0 0];

internalField   nonuniform List<scalar> 
52500
(
1.00001
1.00003
1.00011
1.00024
1.00071
1.00145
1.00415
1.00821
1.02506
1.04531
1.16276
1.29154
2.10051
3.62547
8.76968
11.487
11.2221
11.0354
11.1106
11.3289
11.57
11.723
11.838
11.9301
12.0034
1.00001
1.00003
1.00011
1.00024
1.0007
1.00143
1.00409
1.00809
1.02476
1.04466
1.16083
1.2872
2.08894
3.58928
8.67957
11.4866
11.2146
11.0231
11.0999
11.3199
11.5603
11.7129
11.8294
11.9228
11.9975
1.00001
1.00003
1.00011
1.00023
1.00068
1.00139
1.00398
1.00785
1.02412
1.04334
1.15681
1.27827
2.06374
3.51114
8.47749
11.4858
11.1952
10.9891
11.0661
11.2853
11.5217
11.6706
11.7859
11.8778
11.9512
1.00001
1.00003
1.0001
1.00022
1.00065
1.00133
1.00381
1.0075
1.02317
1.04134
1.15064
1.26469
2.02466
3.3914
8.16178
11.4906
11.1687
10.935
11.0099
11.2243
11.4538
11.5964
11.7073
11.7956
11.868
1.00001
1.00003
1.0001
1.00021
1.00062
1.00126
1.00362
1.00713
1.02192
1.03923
1.14229
1.24961
1.95994
3.23381
7.72148
11.5056
11.1412
10.8642
10.9346
11.1406
11.361
11.4944
11.5982
11.6814
11.7536
1.00001
1.00003
1.00009
1.0002
1.00058
1.00119
1.00339
1.00674
1.02037
1.03718
1.13102
1.23263
1.87544
3.03887
7.15344
11.5276
11.1136
10.7764
10.839
11.031
11.2398
11.3606
11.4525
11.5262
11.5976
1.00001
1.00002
1.00009
1.00019
1.00054
1.00111
1.00315
1.00636
1.01853
1.03582
1.11611
1.21568
1.7755
2.81574
6.4744
11.527
11.0821
10.6748
10.7257
10.8954
11.087
11.1878
11.2593
11.3141
11.3774
1
1.00002
1.00008
1.00017
1.00049
1.001
1.00285
1.00576
1.01664
1.03271
1.10235
1.19541
1.67416
2.57952
5.71682
11.444
11.0133
10.559
10.5955
10.733
10.8987
10.9704
11.008
11.0243
11.0591
1
1.00002
1.00007
1.00015
1.00044
1.0009
1.00255
1.00516
1.0149
1.02937
1.09097
1.17498
1.59343
2.38788
5.17751
11.0705
10.8378
10.434
10.4475
10.5374
10.6652
10.6948
10.68
10.619
10.5576
1
1.00002
1.00006
1.00013
1.00038
1.00077
1.0022
1.0044
1.01307
1.02437
1.08219
1.14684
1.5304
2.20944
4.69492
10.3366
10.5357
10.3569
10.2833
10.3206
10.3846
10.3628
10.2668
10.0422
9.69302
1.00001
1.00004
1.00012
1.00025
1.00071
1.00146
1.00416
1.00822
1.02507
1.04533
1.16278
1.2916
2.10058
3.62576
8.77023
11.4869
11.2221
11.0354
11.1106
11.329
11.5701
11.7231
11.8381
11.9302
12.0035
1.00001
1.00003
1.00011
1.00025
1.0007
1.00144
1.0041
1.0081
1.02477
1.04468
1.16086
1.28726
2.08902
3.58957
8.68012
11.4865
11.2146
11.0232
11.1
11.3199
11.5604
11.7129
11.8295
11.9229
11.9976
1.00001
1.00003
1.00011
1.00024
1.00068
1.0014
1.00399
1.00786
1.02413
1.04336
1.15683
1.27833
2.06381
3.51142
8.47804
11.4857
11.1952
10.9892
11.0662
11.2854
11.5218
11.6707
11.786
11.8779
11.9513
1.00001
1.00003
1.00011
1.00023
1.00066
1.00134
1.00382
1.00751
1.02319
1.04136
1.15067
1.26475
2.02473
3.39167
8.16232
11.4905
11.1687
10.9351
11.01
11.2244
11.4539
11.5965
11.7074
11.7957
11.8681
1.00001
1.00003
1.0001
1.00022
1.00062
1.00127
1.00362
1.00714
1.02193
1.03925
1.14232
1.24966
1.96001
3.23407
7.72202
11.5055
11.1412
10.8643
10.9347
11.1407
11.3611
11.4944
11.5983
11.6815
11.7536
1.00001
1.00003
1.0001
1.00021
1.00059
1.0012
1.0034
1.00675
1.02038
1.03722
1.13102
1.23272
1.87545
3.0391
7.15393
11.5276
11.1137
10.7764
10.8391
11.0311
11.2399
11.3606
11.4525
11.5263
11.5977
1.00001
1.00003
1.00009
1.00019
1.00055
1.00112
1.00316
1.00637
1.01854
1.03584
1.11612
1.21575
1.77553
2.81594
6.47485
11.527
11.0821
10.6749
10.7258
10.8955
11.087
11.1879
11.2593
11.3142
11.3775
1.00001
1.00002
1.00008
1.00017
1.00049
1.00101
1.00286
1.00577
1.01665
1.03272
1.10237
1.19545
1.67421
2.5797
5.71726
11.444
11.0133
10.5591
10.5956
10.7331
10.8987
10.9705
11.0081
11.0244
11.0591
1
1.00002
1.00007
1.00016
1.00044
1.00091
1.00256
1.00517
1.0149
1.02938
1.09099
1.17502
1.59346
2.38801
5.17773
11.0706
10.8379
10.4341
10.4476
10.5375
10.6653
10.6949
10.6801
10.6191
10.5576
1
1.00002
1.00006
1.00013
1.00038
1.00078
1.00221
1.00441
1.01308
1.0244
1.08218
1.14688
1.53038
2.20957
4.69509
10.3369
10.5358
10.357
10.2833
10.3207
10.3847
10.3629
10.2669
10.0423
9.69309
1.00001
1.00004
1.00012
1.00025
1.00071
1.00146
1.00416
1.00822
1.02507
1.04533
1.16278
1.2916
2.10059
3.62577
8.77026
11.4869
11.2221
11.0354
11.1106
11.329
11.5701
11.7231
11.8381
11.9302
12.0035
1.00001
1.00003
1.00011
1.00025
1.0007
1.00144
1.0041
1.0081
1.02477
1.04468
1.16086
1.28726
2.08902
3.58958
8.68015
11.4865
11.2146
11.0232
11.1
11.3199
11.5604
11.7129
11.8295
11.9229
11.9976
1.00001
1.00003
1.00011
1.00024
1.00068
1.0014
1.00399
1.00786
1.02413
1.04336
1.15683
1.27833
2.06382
3.51144
8.47807
11.4857
11.1952
10.9892
11.0662
11.2854
11.5218
11.6707
11.786
11.8779
11.9513
1.00001
1.00003
1.00011
1.00023
1.00066
1.00134
1.00382
1.00751
1.02319
1.04136
1.15067
1.26475
2.02474
3.39168
8.16235
11.4905
11.1687
10.9351
11.01
11.2244
11.4539
11.5965
11.7074
11.7957
11.8681
1.00001
1.00003
1.0001
1.00022
1.00062
1.00127
1.00362
1.00714
1.02193
1.03925
1.14232
1.24966
1.96001
3.23408
7.72206
11.5055
11.1412
10.8643
10.9347
11.1407
11.3611
11.4945
11.5983
11.6815
11.7536
1.00001
1.00003
1.0001
1.00021
1.00059
1.0012
1.0034
1.00675
1.02038
1.03722
1.13102
1.23272
1.87546
3.03911
7.15396
11.5276
11.1137
10.7765
10.8391
11.0311
11.2399
11.3606
11.4525
11.5263
11.5977
1.00001
1.00003
1.00009
1.00019
1.00055
1.00112
1.00316
1.00637
1.01854
1.03584
1.11612
1.21575
1.77554
2.81596
6.47488
11.527
11.0821
10.6749
10.7258
10.8955
11.087
11.1879
11.2593
11.3142
11.3775
1.00001
1.00002
1.00008
1.00017
1.00049
1.00101
1.00286
1.00577
1.01665
1.03272
1.10237
1.19545
1.67421
2.57972
5.71729
11.444
11.0133
10.5591
10.5956
10.7331
10.8987
10.9705
11.0081
11.0244
11.0591
1
1.00002
1.00007
1.00016
1.00044
1.00091
1.00256
1.00517
1.0149
1.02938
1.09099
1.17502
1.59347
2.38802
5.17775
11.0707
10.8379
10.4341
10.4476
10.5375
10.6653
10.6949
10.6801
10.6191
10.5576
1
1.00002
1.00006
1.00013
1.00038
1.00078
1.00221
1.00441
1.01308
1.0244
1.08218
1.14688
1.53038
2.20958
4.69511
10.3369
10.5358
10.357
10.2833
10.3207
10.3847
10.3629
10.2669
10.0423
9.6931
1.00001
1.00004
1.00012
1.00025
1.00071
1.00146
1.00416
1.00822
1.02507
1.04533
1.16278
1.2916
2.10059
3.62577
8.77026
11.4869
11.2221
11.0354
11.1106
11.329
11.5701
11.7231
11.8381
11.9302
12.0035
1.00001
1.00003
1.00011
1.00025
1.0007
1.00144
1.0041
1.0081
1.02477
1.04468
1.16086
1.28726
2.08902
3.58958
8.68015
11.4865
11.2146
11.0232
11.1
11.3199
11.5604
11.7129
11.8295
11.9229
11.9976
1.00001
1.00003
1.00011
1.00024
1.00068
1.0014
1.00399
1.00786
1.02413
1.04336
1.15683
1.27833
2.06382
3.51144
8.47807
11.4857
11.1952
10.9892
11.0662
11.2854
11.5218
11.6707
11.786
11.8779
11.9513
1.00001
1.00003
1.00011
1.00023
1.00066
1.00134
1.00382
1.00751
1.02319
1.04136
1.15067
1.26475
2.02474
3.39168
8.16235
11.4905
11.1687
10.9351
11.01
11.2244
11.4539
11.5965
11.7074
11.7957
11.8681
1.00001
1.00003
1.0001
1.00022
1.00062
1.00127
1.00362
1.00714
1.02193
1.03925
1.14232
1.24966
1.96001
3.23408
7.72206
11.5055
11.1412
10.8643
10.9347
11.1407
11.3611
11.4945
11.5983
11.6815
11.7536
1.00001
1.00003
1.0001
1.00021
1.00059
1.0012
1.0034
1.00675
1.02038
1.03722
1.13102
1.23272
1.87546
3.03911
7.15396
11.5276
11.1137
10.7765
10.8391
11.0311
11.2399
11.3606
11.4525
11.5263
11.5977
1.00001
1.00003
1.00009
1.00019
1.00055
1.00112
1.00316
1.00637
1.01854
1.03584
1.11612
1.21575
1.77554
2.81595
6.47488
11.527
11.0821
10.6749
10.7258
10.8955
11.087
11.1879
11.2593
11.3142
11.3775
1.00001
1.00002
1.00008
1.00017
1.00049
1.00101
1.00286
1.00577
1.01665
1.03272
1.10237
1.19545
1.67421
2.57972
5.71729
11.444
11.0133
10.5591
10.5956
10.7331
10.8987
10.9705
11.0081
11.0244
11.0591
1
1.00002
1.00007
1.00016
1.00044
1.00091
1.00256
1.00517
1.0149
1.02938
1.09099
1.17502
1.59347
2.38802
5.17775
11.0707
10.8379
10.4341
10.4476
10.5375
10.6653
10.6949
10.6801
10.6191
10.5576
1
1.00002
1.00006
1.00013
1.00038
1.00078
1.00221
1.00441
1.01308
1.0244
1.08218
1.14688
1.53038
2.20958
4.69511
10.3369
10.5358
10.357
10.2833
10.3207
10.3847
10.3629
10.2669
10.0423
9.6931
1.00001
1.00004
1.00012
1.00025
1.00071
1.00146
1.00416
1.00822
1.02507
1.04533
1.16278
1.2916
2.10059
3.62577
8.77027
11.4869
11.2221
11.0354
11.1106
11.329
11.5701
11.7231
11.8381
11.9302
12.0035
1.00001
1.00003
1.00011
1.00025
1.0007
1.00144
1.0041
1.0081
1.02477
1.04468
1.16086
1.28726
2.08902
3.58958
8.68016
11.4865
11.2146
11.0232
11.1
11.3199
11.5604
11.713
11.8295
11.9229
11.9976
1.00001
1.00003
1.00011
1.00024
1.00068
1.0014
1.00399
1.00786
1.02413
1.04336
1.15683
1.27833
2.06382
3.51144
8.47808
11.4857
11.1952
10.9892
11.0662
11.2854
11.5218
11.6707
11.786
11.8779
11.9513
1.00001
1.00003
1.00011
1.00023
1.00066
1.00134
1.00382
1.00751
1.02319
1.04136
1.15067
1.26475
2.02474
3.39168
8.16236
11.4905
11.1687
10.9351
11.01
11.2244
11.4539
11.5965
11.7074
11.7957
11.8681
1.00001
1.00003
1.0001
1.00022
1.00062
1.00127
1.00362
1.00714
1.02193
1.03925
1.14232
1.24966
1.96002
3.23408
7.72206
11.5055
11.1412
10.8643
10.9347
11.1407
11.3611
11.4945
11.5983
11.6815
11.7536
1.00001
1.00003
1.0001
1.00021
1.00059
1.0012
1.0034
1.00675
1.02038
1.03722
1.13102
1.23272
1.87546
3.03912
7.15397
11.5276
11.1137
10.7765
10.8391
11.0311
11.2399
11.3606
11.4525
11.5263
11.5977
1.00001
1.00003
1.00009
1.00019
1.00055
1.00112
1.00316
1.00637
1.01854
1.03584
1.11612
1.21575
1.77554
2.81596
6.47489
11.527
11.0821
10.6749
10.7258
10.8955
11.087
11.1879
11.2593
11.3142
11.3775
1.00001
1.00002
1.00008
1.00017
1.00049
1.00101
1.00286
1.00577
1.01665
1.03272
1.10237
1.19545
1.67421
2.57972
5.7173
11.444
11.0133
10.5591
10.5956
10.7331
10.8987
10.9705
11.0081
11.0244
11.0591
1
1.00002
1.00007
1.00016
1.00044
1.00091
1.00256
1.00517
1.0149
1.02938
1.09099
1.17502
1.59347
2.38802
5.17775
11.0707
10.8379
10.4341
10.4476
10.5375
10.6653
10.6949
10.6801
10.6191
10.5576
1
1.00002
1.00006
1.00013
1.00038
1.00078
1.00221
1.00441
1.01308
1.0244
1.08218
1.14688
1.53038
2.20958
4.69511
10.337
10.5358
10.357
10.2833
10.3207
10.3847
10.3629
10.2669
10.0423
9.6931
1.00001
1.00004
1.00012
1.00025
1.00071
1.00146
1.00416
1.00822
1.02507
1.04533
1.16278
1.2916
2.10059
3.62577
8.77027
11.4869
11.2221
11.0354
11.1106
11.329
11.5701
11.7231
11.8381
11.9302
12.0035
1.00001
1.00003
1.00011
1.00025
1.0007
1.00144
1.0041
1.0081
1.02477
1.04468
1.16086
1.28726
2.08902
3.58958
8.68016
11.4865
11.2146
11.0232
11.1
11.3199
11.5604
11.713
11.8295
11.9229
11.9976
1.00001
1.00003
1.00011
1.00024
1.00068
1.0014
1.00399
1.00786
1.02413
1.04336
1.15683
1.27833
2.06382
3.51144
8.47808
11.4857
11.1952
10.9892
11.0662
11.2854
11.5218
11.6707
11.786
11.8779
11.9513
1.00001
1.00003
1.00011
1.00023
1.00066
1.00134
1.00382
1.00751
1.02319
1.04136
1.15067
1.26475
2.02474
3.39168
8.16236
11.4905
11.1687
10.9351
11.01
11.2244
11.4539
11.5965
11.7074
11.7957
11.8681
1.00001
1.00003
1.0001
1.00022
1.00062
1.00127
1.00362
1.00714
1.02193
1.03925
1.14232
1.24966
1.96002
3.23408
7.72206
11.5055
11.1412
10.8643
10.9347
11.1407
11.3611
11.4945
11.5983
11.6815
11.7536
1.00001
1.00003
1.0001
1.00021
1.00059
1.0012
1.0034
1.00675
1.02038
1.03722
1.13102
1.23272
1.87546
3.03912
7.15397
11.5276
11.1137
10.7765
10.8391
11.0311
11.2399
11.3606
11.4525
11.5263
11.5977
1.00001
1.00003
1.00009
1.00019
1.00055
1.00112
1.00316
1.00637
1.01854
1.03584
1.11612
1.21575
1.77554
2.81596
6.47489
11.527
11.0821
10.6749
10.7258
10.8955
11.087
11.1879
11.2593
11.3142
11.3775
1.00001
1.00002
1.00008
1.00017
1.00049
1.00101
1.00286
1.00577
1.01665
1.03272
1.10237
1.19545
1.67421
2.57972
5.7173
11.444
11.0133
10.5591
10.5956
10.7331
10.8987
10.9705
11.0081
11.0244
11.0591
1
1.00002
1.00007
1.00016
1.00044
1.00091
1.00256
1.00517
1.0149
1.02938
1.09099
1.17502
1.59347
2.38802
5.17775
11.0707
10.8379
10.4341
10.4476
10.5375
10.6653
10.6949
10.6801
10.6191
10.5576
1
1.00002
1.00006
1.00013
1.00038
1.00078
1.00221
1.00441
1.01308
1.0244
1.08218
1.14688
1.53038
2.20958
4.69511
10.337
10.5358
10.357
10.2833
10.3207
10.3847
10.3629
10.2669
10.0423
9.6931
1.00001
1.00004
1.00012
1.00025
1.00071
1.00146
1.00416
1.00822
1.02507
1.04533
1.16278
1.2916
2.10059
3.62577
8.77026
11.4869
11.2221
11.0354
11.1106
11.329
11.5701
11.7231
11.8381
11.9302
12.0035
1.00001
1.00003
1.00011
1.00025
1.0007
1.00144
1.0041
1.0081
1.02477
1.04468
1.16086
1.28726
2.08902
3.58958
8.68015
11.4865
11.2146
11.0232
11.1
11.3199
11.5604
11.7129
11.8295
11.9229
11.9976
1.00001
1.00003
1.00011
1.00024
1.00068
1.0014
1.00399
1.00786
1.02413
1.04336
1.15683
1.27833
2.06382
3.51144
8.47807
11.4857
11.1952
10.9892
11.0662
11.2854
11.5218
11.6707
11.786
11.8779
11.9513
1.00001
1.00003
1.00011
1.00023
1.00066
1.00134
1.00382
1.00751
1.02319
1.04136
1.15067
1.26475
2.02474
3.39168
8.16235
11.4905
11.1687
10.9351
11.01
11.2244
11.4539
11.5965
11.7074
11.7957
11.8681
1.00001
1.00003
1.0001
1.00022
1.00062
1.00127
1.00362
1.00714
1.02193
1.03925
1.14232
1.24966
1.96001
3.23408
7.72206
11.5055
11.1412
10.8643
10.9347
11.1407
11.3611
11.4945
11.5983
11.6815
11.7536
1.00001
1.00003
1.0001
1.00021
1.00059
1.0012
1.0034
1.00675
1.02038
1.03722
1.13102
1.23272
1.87546
3.03911
7.15397
11.5276
11.1137
10.7765
10.8391
11.0311
11.2399
11.3606
11.4525
11.5263
11.5977
1.00001
1.00003
1.00009
1.00019
1.00055
1.00112
1.00316
1.00637
1.01854
1.03584
1.11612
1.21575
1.77554
2.81596
6.47489
11.527
11.0821
10.6749
10.7258
10.8955
11.087
11.1879
11.2593
11.3142
11.3775
1.00001
1.00002
1.00008
1.00017
1.00049
1.00101
1.00286
1.00577
1.01665
1.03272
1.10237
1.19545
1.67421
2.57972
5.7173
11.444
11.0133
10.5591
10.5956
10.7331
10.8987
10.9705
11.0081
11.0244
11.0591
1
1.00002
1.00007
1.00016
1.00044
1.00091
1.00256
1.00517
1.0149
1.02938
1.09099
1.17502
1.59347
2.38802
5.17775
11.0707
10.8379
10.4341
10.4476
10.5375
10.6653
10.6949
10.6801
10.6191
10.5576
1
1.00002
1.00006
1.00013
1.00038
1.00078
1.00221
1.00441
1.01308
1.0244
1.08218
1.14688
1.53038
2.20958
4.69511
10.3369
10.5358
10.357
10.2833
10.3207
10.3847
10.3629
10.2669
10.0423
9.6931
1.00001
1.00004
1.00012
1.00025
1.00071
1.00146
1.00416
1.00822
1.02507
1.04533
1.16278
1.2916
2.10059
3.62577
8.77026
11.4869
11.2221
11.0354
11.1106
11.329
11.5701
11.7231
11.8381
11.9302
12.0035
1.00001
1.00003
1.00011
1.00025
1.0007
1.00144
1.0041
1.0081
1.02477
1.04468
1.16086
1.28726
2.08902
3.58958
8.68015
11.4865
11.2146
11.0232
11.1
11.3199
11.5604
11.7129
11.8295
11.9229
11.9976
1.00001
1.00003
1.00011
1.00024
1.00068
1.0014
1.00399
1.00786
1.02413
1.04336
1.15683
1.27833
2.06382
3.51144
8.47807
11.4857
11.1952
10.9892
11.0662
11.2854
11.5218
11.6707
11.786
11.8779
11.9513
1.00001
1.00003
1.00011
1.00023
1.00066
1.00134
1.00382
1.00751
1.02319
1.04136
1.15067
1.26475
2.02474
3.39168
8.16235
11.4905
11.1687
10.9351
11.01
11.2244
11.4539
11.5965
11.7074
11.7957
11.8681
1.00001
1.00003
1.0001
1.00022
1.00062
1.00127
1.00362
1.00714
1.02193
1.03925
1.14232
1.24966
1.96001
3.23408
7.72206
11.5055
11.1412
10.8643
10.9347
11.1407
11.3611
11.4945
11.5983
11.6815
11.7536
1.00001
1.00003
1.0001
1.00021
1.00059
1.0012
1.0034
1.00675
1.02038
1.03722
1.13102
1.23272
1.87546
3.03911
7.15397
11.5276
11.1137
10.7765
10.8391
11.0311
11.2399
11.3606
11.4525
11.5263
11.5977
1.00001
1.00003
1.00009
1.00019
1.00055
1.00112
1.00316
1.00637
1.01854
1.03584
1.11612
1.21575
1.77554
2.81596
6.47489
11.527
11.0821
10.6749
10.7258
10.8955
11.087
11.1879
11.2593
11.3142
11.3775
1.00001
1.00002
1.00008
1.00017
1.00049
1.00101
1.00286
1.00577
1.01665
1.03272
1.10237
1.19545
1.67421
2.57972
5.71729
11.444
11.0133
10.5591
10.5956
10.7331
10.8987
10.9705
11.0081
11.0244
11.0591
1
1.00002
1.00007
1.00016
1.00044
1.00091
1.00256
1.00517
1.0149
1.02938
1.09099
1.17502
1.59347
2.38802
5.17775
11.0707
10.8379
10.4341
10.4476
10.5375
10.6653
10.6949
10.6801
10.6191
10.5576
1
1.00002
1.00006
1.00013
1.00038
1.00078
1.00221
1.00441
1.01308
1.0244
1.08218
1.14688
1.53038
2.20958
4.69511
10.3369
10.5358
10.357
10.2833
10.3207
10.3847
10.3629
10.2669
10.0423
9.6931
1.00001
1.00004
1.00012
1.00025
1.00071
1.00146
1.00416
1.00822
1.02507
1.04533
1.16278
1.2916
2.10058
3.62576
8.77023
11.4869
11.2221
11.0354
11.1106
11.329
11.5701
11.7231
11.8381
11.9302
12.0035
1.00001
1.00003
1.00011
1.00025
1.0007
1.00144
1.0041
1.0081
1.02477
1.04468
1.16086
1.28726
2.08902
3.58957
8.68012
11.4865
11.2146
11.0232
11.1
11.3199
11.5604
11.7129
11.8295
11.9229
11.9976
1.00001
1.00003
1.00011
1.00024
1.00068
1.0014
1.00399
1.00786
1.02413
1.04336
1.15683
1.27833
2.06381
3.51142
8.47804
11.4857
11.1952
10.9892
11.0662
11.2854
11.5218
11.6707
11.786
11.8779
11.9513
1.00001
1.00003
1.00011
1.00023
1.00066
1.00134
1.00382
1.00751
1.02319
1.04136
1.15067
1.26475
2.02473
3.39167
8.16232
11.4905
11.1687
10.9351
11.01
11.2244
11.4539
11.5965
11.7074
11.7957
11.8681
1.00001
1.00003
1.0001
1.00022
1.00062
1.00127
1.00362
1.00714
1.02193
1.03925
1.14232
1.24966
1.96001
3.23407
7.72202
11.5055
11.1412
10.8643
10.9347
11.1407
11.3611
11.4944
11.5983
11.6815
11.7536
1.00001
1.00003
1.0001
1.00021
1.00059
1.0012
1.0034
1.00675
1.02038
1.03722
1.13102
1.23272
1.87545
3.0391
7.15393
11.5276
11.1137
10.7764
10.8391
11.0311
11.2399
11.3606
11.4525
11.5263
11.5977
1.00001
1.00003
1.00009
1.00019
1.00055
1.00112
1.00316
1.00637
1.01854
1.03584
1.11612
1.21575
1.77553
2.81594
6.47485
11.527
11.0821
10.6749
10.7258
10.8955
11.087
11.1879
11.2593
11.3142
11.3775
1.00001
1.00002
1.00008
1.00017
1.00049
1.00101
1.00286
1.00577
1.01665
1.03272
1.10237
1.19545
1.67421
2.5797
5.71726
11.444
11.0133
10.5591
10.5956
10.7331
10.8987
10.9705
11.0081
11.0244
11.0591
1
1.00002
1.00007
1.00016
1.00044
1.00091
1.00256
1.00517
1.0149
1.02938
1.09099
1.17502
1.59346
2.38801
5.17773
11.0706
10.8379
10.4341
10.4476
10.5375
10.6653
10.6949
10.6801
10.6191
10.5576
1
1.00002
1.00006
1.00013
1.00038
1.00078
1.00221
1.00441
1.01308
1.0244
1.08218
1.14688
1.53038
2.20957
4.69509
10.3369
10.5358
10.357
10.2833
10.3207
10.3847
10.3629
10.2669
10.0423
9.69309
1.00001
1.00003
1.00011
1.00024
1.00071
1.00145
1.00415
1.00821
1.02506
1.04531
1.16276
1.29154
2.10051
3.62546
8.76967
11.487
11.2221
11.0354
11.1106
11.3289
11.57
11.723
11.838
11.9301
12.0034
1.00001
1.00003
1.00011
1.00024
1.0007
1.00143
1.00409
1.00809
1.02476
1.04466
1.16083
1.2872
2.08894
3.58928
8.67957
11.4866
11.2146
11.0231
11.0999
11.3199
11.5603
11.7129
11.8294
11.9228
11.9975
1.00001
1.00003
1.00011
1.00023
1.00068
1.00139
1.00398
1.00785
1.02412
1.04334
1.15681
1.27827
2.06374
3.51114
8.47749
11.4858
11.1952
10.9891
11.0661
11.2853
11.5217
11.6706
11.7859
11.8778
11.9512
1.00001
1.00003
1.0001
1.00022
1.00065
1.00133
1.00381
1.0075
1.02317
1.04134
1.15064
1.26469
2.02466
3.3914
8.16178
11.4906
11.1687
10.935
11.0099
11.2243
11.4538
11.5964
11.7073
11.7956
11.868
1.00001
1.00003
1.0001
1.00021
1.00062
1.00126
1.00362
1.00713
1.02192
1.03923
1.14229
1.24961
1.95994
3.23381
7.72147
11.5056
11.1412
10.8642
10.9346
11.1406
11.361
11.4944
11.5982
11.6814
11.7535
1.00001
1.00003
1.00009
1.0002
1.00058
1.00119
1.00339
1.00674
1.02037
1.03718
1.13102
1.23263
1.87544
3.03887
7.15343
11.5276
11.1136
10.7764
10.839
11.031
11.2398
11.3606
11.4525
11.5262
11.5976
1.00001
1.00002
1.00009
1.00019
1.00054
1.00111
1.00315
1.00636
1.01853
1.03582
1.11611
1.21568
1.7755
2.81574
6.47439
11.527
11.0821
10.6748
10.7257
10.8954
11.087
11.1878
11.2593
11.3141
11.3774
1
1.00002
1.00008
1.00017
1.00049
1.001
1.00285
1.00576
1.01664
1.03271
1.10235
1.19541
1.67416
2.57952
5.71682
11.444
11.0133
10.559
10.5955
10.733
10.8987
10.9704
11.008
11.0243
11.0591
1
1.00002
1.00007
1.00015
1.00044
1.0009
1.00255
1.00516
1.0149
1.02937
1.09097
1.17498
1.59343
2.38788
5.1775
11.0705
10.8378
10.434
10.4475
10.5374
10.6652
10.6948
10.68
10.619
10.5576
1
1.00002
1.00006
1.00013
1.00038
1.00077
1.0022
1.0044
1.01307
1.02437
1.08219
1.14684
1.5304
2.20944
4.69492
10.3366
10.5357
10.3569
10.2833
10.3206
10.3846
10.3628
10.2668
10.0422
9.69302
1
1.00002
1.00004
1.00013
1.00028
1.00081
1.00164
1.00471
1.00926
1.02857
1.05131
1.18479
1.33728
2.24681
4.00762
9.41073
10.3905
10.2671
10.1017
10.092
10.0731
9.98349
9.73044
9.14267
7.66518
1
1.00001
1.00004
1.00012
1.00025
1.0007
1.00144
1.00409
1.00811
1.02455
1.04478
1.15834
1.28544
2.06269
3.5178
8.28456
10.285
10.1715
9.93116
9.84837
9.76828
9.58585
9.19023
8.39683
6.88795
1
1.00001
1.00003
1.0001
1.00021
1.0006
1.00121
1.00346
1.00682
1.02083
1.03738
1.13418
1.23521
1.89093
3.05445
7.05059
10.2002
10.0713
9.77262
9.60579
9.47072
9.209
8.7258
7.92269
6.73057
1
1.00001
1.00003
1.00008
1.00018
1.00051
1.00104
1.00293
1.00592
1.01712
1.03355
1.10572
1.19972
1.6956
2.61444
5.72546
10.0344
9.93917
9.64576
9.38065
9.18429
8.88314
8.38716
7.65165
6.70874
1
1.00001
1.00002
1.00007
1.00014
1.00041
1.00084
1.00239
1.00483
1.01389
1.02749
1.08371
1.16545
1.53617
2.2492
4.6257
9.56041
9.71797
9.5256
9.18167
8.93028
8.61097
8.141
7.48707
6.69606
1
1
1.00002
1.00004
1.00013
1.00027
1.00078
1.00159
1.00454
1.00892
1.0273
1.04913
1.17479
1.31707
2.16226
3.7521
8.51858
9.4644
9.3305
9.02103
8.71765
8.38434
7.947
7.36516
6.67808
1
1
1.00001
1.00003
1.0001
1.00022
1.00063
1.00128
1.00363
1.00717
1.0218
1.03917
1.13969
1.24541
1.92366
3.10928
7.00529
9.21226
9.13675
8.89719
8.54639
8.1979
7.78378
7.2611
6.65379
0.999999
1
1.00001
1.00002
1.00008
1.00017
1.0005
1.00102
1.00288
1.00582
1.01684
1.03298
1.10361
1.19735
1.67662
2.56352
5.48809
8.97491
8.97833
8.80927
8.43802
8.05009
7.64783
7.1734
6.63251
0.999997
0.999999
1
1.00002
1.00005
1.00015
1.00031
1.00089
1.00182
1.00516
1.01021
1.03081
1.05662
1.19248
1.37558
2.24054
4.00068
8.40542
8.85938
8.70943
8.35408
7.93252
7.53524
7.09852
6.612
0.999996
0.999997
1
1.00001
1.00003
1.00011
1.00023
1.00066
1.00135
1.00384
1.00752
1.02316
1.04115
1.14753
1.26081
1.97207
3.21202
7.09011
8.61166
8.52865
8.27182
7.84302
7.44667
7.03974
6.59417
0.999994
0.999995
0.999999
1
1.00003
1.00006
1.00019
1.0004
1.00115
1.00224
1.00692
1.01207
1.04365
1.07144
1.27195
1.54141
2.73547
5.38664
8.30336
8.34145
8.18808
7.82313
7.38773
6.98719
6.57461
0.999993
0.999994
0.999997
1
1.00002
1.00005
1.00015
1.00031
1.00087
1.00178
1.00502
1.01003
1.02958
1.05576
1.18282
1.35889
2.17032
3.74469
7.67778
8.23199
8.11129
7.80303
7.34979
6.94734
6.55772
0.999993
0.999993
0.999994
0.999999
1.00001
1.00004
1.00008
1.00025
1.00052
1.00147
1.00291
1.00865
1.01582
1.05374
1.09129
1.33674
1.68286
3.12542
6.21844
7.99837
7.95813
7.76158
7.34973
6.92663
6.5441
0.999992
0.999992
0.999993
0.999997
1
1.00002
1.00006
1.00018
1.00038
1.00106
1.00216
1.0061
1.01196
1.03659
1.06558
1.22863
1.4456
2.42495
4.45613
7.55345
7.81618
7.68974
7.36027
6.92775
6.54247
0.999992
0.999992
0.999993
0.999994
1
1.00001
1.00005
1.00011
1.00031
1.00064
1.00179
1.00362
1.01028
1.02038
1.06064
1.11995
1.37029
1.84042
3.31971
6.54368
7.62642
7.56516
7.35018
6.9406
6.54673
0.999991
0.999991
0.999992
0.999993
0.999998
1
1.00003
1.00007
1.00021
1.00044
1.00123
1.00249
1.00701
1.01375
1.04179
1.07558
1.25889
1.51828
2.60521
4.88409
7.26442
7.40756
7.2982
6.99376
6.56426
0.999991
0.999991
0.999991
0.999993
0.999995
1
1.00001
1.00005
1.00012
1.00034
1.00071
1.00198
1.004
1.01131
1.02254
1.06565
1.13396
1.39611
1.90588
3.40336
6.48265
7.25609
7.19746
6.99685
6.60534
0.999991
0.999991
0.999991
0.999992
0.999993
0.999998
1.00001
1.00003
1.00008
1.00023
1.00047
1.00132
1.00267
1.00748
1.01484
1.0438
1.08237
1.26621
1.5555
2.63596
4.92651
6.93859
7.06068
6.96492
6.70055
0.999991
0.999991
0.999991
0.999991
0.999993
0.999995
1
1.00001
1.00006
1.00012
1.00035
1.00073
1.00203
1.0041
1.01156
1.02314
1.0666
1.13747
1.3988
1.90697
3.36123
6.23332
6.92645
6.88583
6.7173
0.999991
0.999991
0.999991
0.999991
0.999992
0.999994
0.999997
1.00001
1.00003
1.00009
1.00019
1.00054
1.00111
1.00309
1.00607
1.01808
1.03249
1.11072
1.19402
1.67976
2.46393
4.82372
6.62693
6.76722
6.68727
0.999991
0.99999
0.99999
0.999991
0.999991
0.999992
0.999995
1
1.00001
1.00006
1.00012
1.00035
1.00073
1.00201
1.00407
1.01135
1.02285
1.06482
1.1347
1.38543
1.86924
3.23692
5.92683
6.62809
6.6044
0.999991
0.99999
0.99999
0.99999
0.999991
0.999991
0.999993
0.999997
1.00001
1.00003
1.00009
1.00019
1.00052
1.00107
1.00296
1.00584
1.01717
1.03116
1.1046
1.18442
1.63194
2.35981
4.52369
6.30274
6.50215
0.999991
0.99999
0.99999
0.99999
0.999991
0.999991
0.999992
0.999994
1
1.00001
1.00005
1.00012
1.00033
1.00069
1.00189
1.00382
1.01058
1.02132
1.05992
1.12441
1.35208
1.79197
3.03136
5.53949
6.33893
0.999991
0.99999
0.99999
0.99999
0.99999
0.999991
0.999991
0.999993
0.999997
1
1.00003
1.00007
1.0002
1.00042
1.00116
1.00236
1.00648
1.01296
1.03706
1.07068
1.22003
1.44446
2.29702
4.01667
5.93068
0.999991
0.99999
0.99999
0.99999
0.99999
0.99999
0.999991
0.999992
0.999994
0.999999
1.00001
1.00004
1.00012
1.00025
1.0007
1.00142
1.00389
1.00783
1.02193
1.04231
1.12966
1.24597
1.76836
2.676
5.03587
0.999991
0.99999
0.99999
0.99999
0.99999
0.99999
0.999991
0.999991
0.999992
0.999996
1
1.00002
1.00006
1.00017
1.00035
1.00097
1.00196
1.0054
1.01066
1.03105
1.05721
1.18349
1.35548
2.04155
3.34929
0.999991
0.99999
0.99999
0.99999
0.99999
0.99999
0.99999
0.999991
0.999992
0.999993
0.999999
1.00001
1.00004
1.00008
1.00024
1.0005
1.00138
1.00279
1.00773
1.01538
1.04373
1.08811
1.25214
1.55697
2.45557
0.999991
0.99999
0.99999
0.99999
0.99999
0.99999
0.99999
0.999991
0.999991
0.999992
0.999995
1
1.00001
1.00005
1.00012
1.00034
1.0007
1.0019
1.00384
1.01059
1.02117
1.05953
1.12171
1.34159
1.75516
0.999991
0.99999
0.99999
0.99999
0.99999
0.99999
0.99999
0.99999
0.999991
0.999991
0.999993
0.999997
1
1.00003
1.00007
1.0002
1.00041
1.00113
1.0023
1.00623
1.01258
1.03454
1.07053
1.19699
1.42868
0.999991
0.99999
0.99999
0.99999
0.99999
0.99999
0.99999
0.99999
0.999991
0.999991
0.999992
0.999994
1
1.00001
1.00004
1.0001
1.00028
1.00058
1.00159
1.00321
1.00885
1.01781
1.04951
1.10251
1.28475
0.999991
0.99999
0.99999
0.99999
0.99999
0.99999
0.99999
0.99999
0.99999
0.999991
0.999991
0.999993
0.999996
1
1.00002
1.00007
1.00015
1.00043
1.00088
1.00241
1.00485
1.01352
1.02672
1.07816
1.15411
0.999991
0.99999
0.99999
0.99999
0.99999
0.99999
0.99999
0.99999
0.99999
0.99999
0.999991
0.999992
0.999995
0.999999
1.00001
1.00004
1.00013
1.00027
1.00076
1.00155
1.00435
1.00872
1.02558
1.04827
1.16072
0.999991
0.99999
0.99999
0.99999
0.99999
0.99999
0.99999
0.99999
0.99999
0.99999
0.999991
0.999991
0.999994
0.999997
1.00001
1.00003
1.0001
1.00022
1.00063
1.00128
1.00375
1.00717
1.02355
1.04055
1.15584
0.999991
0.99999
0.99999
0.99999
0.99999
0.99999
0.99999
0.99999
0.99999
0.99999
0.999991
0.999991
0.999993
0.999997
1
1.00003
1.00007
1.00022
1.00042
1.00138
1.00237
1.00897
1.01448
1.05851
1.0962
0.999991
0.99999
0.99999
0.99999
0.99999
0.99999
0.99999
0.99999
0.99999
0.99999
0.999991
0.999991
0.999993
0.999996
1.00001
1.00002
1.00008
1.00018
1.00055
1.00103
1.00354
1.00596
1.02322
1.03787
1.15383
0.999991
0.99999
0.99999
0.99999
0.99999
0.99999
0.99999
0.99999
0.99999
0.99999
0.999991
0.999991
0.999992
0.999996
1
1.00003
1.00006
1.0002
1.00038
1.00133
1.00222
1.00869
1.01398
1.0577
1.09469
0.999991
0.99999
0.99999
0.99999
0.99999
0.99999
0.99999
0.99999
0.99999
0.99999
0.999991
0.999991
0.999993
0.999996
1.00001
1.00002
1.00008
1.00018
1.00055
1.00109
1.00342
1.00616
1.02257
1.03742
1.152
0.999991
0.99999
0.99999
0.99999
0.99999
0.99999
0.99999
0.99999
0.99999
0.99999
0.999991
0.999991
0.999993
0.999996
1.00001
1.00002
1.00008
1.00018
1.00054
1.00107
1.00336
1.00599
1.02227
1.03659
1.15013
0.999991
0.99999
0.99999
0.99999
0.99999
0.99999
0.99999
0.99999
0.99999
0.99999
0.999991
0.999991
0.999992
0.999997
1
1.00003
1.00006
1.00021
1.00041
1.00131
1.00234
1.00863
1.01404
1.05783
1.09429
0.999991
0.99999
0.99999
0.99999
0.99999
0.99999
0.99999
0.99999
0.99999
0.99999
0.999991
0.999991
0.999993
0.999997
1
1.00003
1.00007
1.00021
1.00044
1.00133
1.00258
1.00847
1.0146
1.05792
1.09447
1
1.00002
1.00005
1.00014
1.00029
1.00081
1.00165
1.00472
1.00927
1.02858
1.05133
1.18485
1.33734
2.24685
4.00784
9.41108
10.3906
10.2671
10.1018
10.0921
10.0732
9.98357
9.73052
9.14274
7.66524
1
1.00002
1.00004
1.00012
1.00025
1.00071
1.00144
1.0041
1.00813
1.02456
1.04481
1.15834
1.28551
2.06272
3.518
8.28494
10.2851
10.1715
9.93122
9.84844
9.76835
9.58592
9.19031
8.39691
6.88801
1
1.00001
1.00004
1.0001
1.00021
1.0006
1.00122
1.00347
1.00683
1.02084
1.0374
1.1342
1.23525
1.89097
3.05464
7.05097
10.2002
10.0714
9.77268
9.60586
9.47078
9.20907
8.72588
7.92277
6.73064
1
1.00001
1.00003
1.00009
1.00018
1.00051
1.00104
1.00294
1.00593
1.01713
1.03357
1.10573
1.19977
1.69564
2.61462
5.72586
10.0345
9.93922
9.64581
9.38071
9.18435
8.88321
8.38723
7.65172
6.70881
1
1.00001
1.00002
1.00007
1.00015
1.00042
1.00085
1.0024
1.00484
1.0139
1.02751
1.08373
1.16549
1.53621
2.24931
4.6259
9.56063
9.71805
9.52567
9.18173
8.93034
8.61104
8.14106
7.48713
6.69613
1
1.00001
1.00002
1.00005
1.00014
1.00028
1.00079
1.0016
1.00455
1.00894
1.02732
1.04915
1.17481
1.31712
2.16233
3.75231
8.51896
9.46448
9.33057
9.02108
8.71771
8.38441
7.94706
7.36523
6.67814
1
1.00001
1.00002
1.00004
1.00011
1.00023
1.00064
1.00129
1.00364
1.00718
1.02181
1.03918
1.13971
1.24546
1.92371
3.10948
7.00568
9.21232
9.1368
8.89724
8.54644
8.19795
7.78384
7.26116
6.65385
1
1
1.00001
1.00003
1.00009
1.00018
1.00051
1.00103
1.00289
1.00583
1.01685
1.033
1.10362
1.1974
1.67666
2.56369
5.48847
8.97502
8.97838
8.80932
8.43807
8.05014
7.64789
7.17346
6.63256
1
1
1.00001
1.00003
1.00006
1.00016
1.00032
1.0009
1.00183
1.00517
1.01022
1.03082
1.05664
1.1925
1.37564