/*--------------------------------*- C++ -*----------------------------------*\
| =========                 |                                                 |
| \\      /  F ield         | OpenFOAM: The Open Source CFD Toolbox           |
|  \\    /   O peration     | Version:  4.1                                   |
|   \\  /    A nd           | Web:      www.OpenFOAM.org                      |
|    \\/     M anipulation  |                                                 |
\*---------------------------------------------------------------------------*/
FoamFile
{
    version     2.0;
    format      ascii;
    class       volScalarField;
    location    "9.88";
    object      T;
}
// * * * * * * * * * * * * * * * * * * * * * * * * * * * * * * * * * * * * * //

dimensions      [0 0 0 1 0 0 0];

internalField   nonuniform List<scalar> 
52500
(
0.999997
1.00003
1.00006
1.0002
1.00038
1.00121
1.00223
1.00677
1.01368
1.0365
1.09364
1.22119
1.62988
2.51016
2.71408
2.73034
2.72841
2.73037
2.74354
2.7558
2.76892
2.77703
2.78378
2.78808
2.79109
0.999997
1.00003
1.00006
1.0002
1.00037
1.0012
1.00221
1.00672
1.01354
1.03618
1.09267
1.21886
1.62449
2.50306
2.71114
2.72986
2.7278
2.72952
2.74264
2.7547
2.76769
2.77563
2.78185
2.7859
2.78849
0.999997
1.00003
1.00005
1.0002
1.00036
1.00118
1.00216
1.0066
1.01326
1.03554
1.09064
1.21408
1.61284
2.48707
2.70394
2.72811
2.72592
2.72696
2.74023
2.75208
2.76505
2.77313
2.77942
2.7825
2.78409
0.999996
1.00002
1.00005
1.00019
1.00035
1.00115
1.0021
1.00643
1.01283
1.0346
1.08755
1.20701
1.59511
2.46119
2.69274
2.72542
2.72254
2.72288
2.73573
2.74736
2.75975
2.76645
2.77447
2.77819
2.77956
0.999996
1.00002
1.00005
1.00018
1.00034
1.0011
1.00201
1.00614
1.01228
1.03305
1.08429
1.1964
1.57491
2.42586
2.67856
2.72301
2.71833
2.71816
2.72982
2.74093
2.75441
2.76079
2.76496
2.76811
2.76897
0.999996
1.00002
1.00005
1.00017
1.00032
1.00103
1.00189
1.00579
1.01159
1.03115
1.08018
1.1835
1.54899
2.3766
2.65998
2.71993
2.71452
2.71147
2.72378
2.73047
2.74294
2.75129
2.75683
2.75943
2.7596
0.999996
1.00002
1.00004
1.00016
1.00029
1.00095
1.00175
1.00524
1.01083
1.02829
1.07552
1.16839
1.51955
2.31539
2.63634
2.71665
2.70989
2.70534
2.71723
2.72492
2.73176
2.73732
2.74073
2.74174
2.7392
0.999995
1.00002
1.00004
1.00014
1.00027
1.00087
1.00161
1.00478
1.00992
1.02578
1.06891
1.15328
1.47577
2.2315
2.60561
2.70997
2.70227
2.69398
2.70355
2.71249
2.72064
2.72263
2.72454
2.72264
2.71737
0.999995
1.00001
1.00003
1.00013
1.00024
1.0008
1.00145
1.00451
1.00883
1.02412
1.05984
1.1389
1.41216
2.11309
2.56669
2.70308
2.6952
2.68505
2.69339
2.69775
2.70303
2.70289
2.69915
2.69061
2.66678
0.999995
1.00001
1.00003
1.00011
1.00021
1.00069
1.00128
1.00395
1.00775
1.02144
1.05112
1.1233
1.34688
1.99755
2.50383
2.67831
2.67359
2.66584
2.67858
2.68162
2.68483
2.68126
2.6697
2.64684
2.59526
1.00001
1.00003
1.00006
1.00021
1.00038
1.00122
1.00224
1.00678
1.01369
1.03652
1.09368
1.22127
1.63005
2.51041
2.71423
2.73043
2.72849
2.73047
2.74364
2.7559
2.76902
2.77713
2.78388
2.78817
2.79117
1.00001
1.00003
1.00006
1.00021
1.00038
1.00121
1.00222
1.00673
1.01355
1.0362
1.09271
1.21893
1.62466
2.50331
2.71129
2.72995
2.72788
2.72962
2.74274
2.75481
2.76778
2.77573
2.78194
2.78599
2.78857
1.00001
1.00003
1.00006
1.00021
1.00037
1.00119
1.00217
1.00661
1.01327
1.03556
1.09068
1.21415
1.61301
2.48734
2.70409
2.72819
2.726
2.72706
2.74032
2.75218
2.76514
2.77323
2.77951
2.78259
2.78417
1.00001
1.00003
1.00006
1.0002
1.00036
1.00115
1.00211
1.00644
1.01284
1.03462
1.08759
1.20706
1.59528
2.46145
2.6929
2.72549
2.72262
2.72297
2.73582
2.74745
2.75985
2.76655
2.77457
2.77828
2.77964
1
1.00003
1.00006
1.00019
1.00035
1.0011
1.00202
1.00615
1.01229
1.03307
1.08431
1.19648
1.57501
2.42611
2.67869
2.72307
2.71841
2.71824
2.72991
2.74101
2.7545
2.76089
2.76506
2.76819
2.76905
1
1.00003
1.00005
1.00018
1.00033
1.00104
1.0019
1.0058
1.0116
1.03117
1.0802
1.18357
1.54909
2.37686
2.66011
2.71999
2.71459
2.71155
2.72386
2.73055
2.74302
2.75137
2.75692
2.75952
2.75968
1
1.00003
1.00005
1.00017
1.0003
1.00096
1.00176
1.00525
1.01085
1.02831
1.07555
1.16847
1.51966
2.31566
2.63646
2.71671
2.70996
2.70541
2.71731
2.725
2.73185
2.73741
2.74083
2.74182
2.73928
1
1.00002
1.00005
1.00015
1.00028
1.00088
1.00161
1.00479
1.00993
1.0258
1.06894
1.15335
1.47592
2.23182
2.60574
2.71004
2.70234
2.69406
2.70362
2.71256
2.72071
2.72271
2.72462
2.72272
2.71745
1
1.00002
1.00004
1.00014
1.00025
1.00081
1.00146
1.00452
1.00884
1.02415
1.05986
1.13896
1.41228
2.11342
2.56682
2.70315
2.69527
2.68513
2.69348
2.69783
2.70311
2.70297
2.69923
2.69069
2.66685
1
1.00002
1.00004
1.00012
1.00022
1.0007
1.00129
1.00396
1.00776
1.02146
1.05114
1.12335
1.34701
1.99786
2.50401
2.67842
2.67367
2.66591
2.67863
2.68169
2.6849
2.68133
2.66977
2.6469
2.59532
1.00001
1.00003
1.00006
1.00021
1.00038
1.00122
1.00224
1.00678
1.01369
1.03652
1.09368
1.22127
1.63006
2.51043
2.71424
2.73043
2.7285
2.73047
2.74364
2.7559
2.76902
2.77713
2.78389
2.78817
2.79117
1.00001
1.00003
1.00006
1.00021
1.00038
1.00121
1.00222
1.00673
1.01355
1.03621
1.09271
1.21894
1.62468
2.50333
2.7113
2.72995
2.72788
2.72962
2.74274
2.75481
2.76778
2.77573
2.78194
2.78599
2.78857
1.00001
1.00003
1.00006
1.00021
1.00037
1.00119
1.00217
1.00661
1.01327
1.03556
1.09068
1.21416
1.61303
2.48736
2.7041
2.72819
2.726
2.72706
2.74033
2.75218
2.76515
2.77323
2.77951
2.78259
2.78417
1.00001
1.00003
1.00006
1.0002
1.00036
1.00115
1.00211
1.00644
1.01284
1.03462
1.08759
1.20707
1.5953
2.46147
2.69291
2.72549
2.72262
2.72297
2.73582
2.74745
2.75985
2.76655
2.77457
2.77828
2.77964
1
1.00003
1.00006
1.00019
1.00035
1.0011
1.00202
1.00615
1.01229
1.03307
1.08431
1.19649
1.57503
2.42613
2.6787
2.72307
2.71841
2.71824
2.72991
2.74101
2.7545
2.76089
2.76506
2.7682
2.76905
1
1.00003
1.00005
1.00018
1.00033
1.00104
1.0019
1.0058
1.0116
1.03117
1.08021
1.18358
1.5491
2.37689
2.66012
2.71999
2.71459
2.71155
2.72386
2.73055
2.74302
2.75137
2.75692
2.75952
2.75968
1
1.00003
1.00005
1.00017
1.0003
1.00096
1.00176
1.00526
1.01085
1.02831
1.07555
1.16847
1.51967
2.31568
2.63647
2.71672
2.70996
2.70542
2.71731
2.725
2.73185
2.73741
2.74083
2.74182
2.73928
1
1.00002
1.00005
1.00015
1.00028
1.00088
1.00161
1.00479
1.00993
1.0258
1.06895
1.15335
1.47594
2.23186
2.60576
2.71005
2.70234
2.69406
2.70363
2.71256
2.72071
2.72271
2.72462
2.72272
2.71745
1
1.00002
1.00004
1.00014
1.00025
1.00081
1.00146
1.00452
1.00884
1.02415
1.05986
1.13896
1.4123
2.11346
2.56683
2.70315
2.69528
2.68513
2.69348
2.69783
2.70311
2.70297
2.69923
2.69069
2.66685
1
1.00002
1.00004
1.00012
1.00022
1.0007
1.00129
1.00396
1.00776
1.02146
1.05114
1.12335
1.34703
1.99789
2.50403
2.67843
2.67367
2.66592
2.67863
2.68169
2.6849
2.68133
2.66977
2.6469
2.59532
1.00001
1.00003
1.00006
1.00021
1.00038
1.00122
1.00224
1.00678
1.01369
1.03652
1.09368
1.22127
1.63006
2.51043
2.71424
2.73043
2.7285
2.73047
2.74364
2.7559
2.76902
2.77713
2.78389
2.78817
2.79117
1.00001
1.00003
1.00006
1.00021
1.00038
1.00121
1.00222
1.00673
1.01355
1.03621
1.09271
1.21894
1.62468
2.50333
2.7113
2.72995
2.72788
2.72962
2.74274
2.75481
2.76778
2.77573
2.78194
2.78599
2.78857
1.00001
1.00003
1.00006
1.00021
1.00037
1.00119
1.00217
1.00661
1.01327
1.03556
1.09068
1.21416
1.61303
2.48736
2.7041
2.72819
2.726
2.72706
2.74033
2.75218
2.76515
2.77323
2.77952
2.78259
2.78417
1.00001
1.00003
1.00006
1.0002
1.00036
1.00115
1.00211
1.00644
1.01284
1.03462
1.08759
1.20707
1.5953
2.46147
2.69291
2.72549
2.72262
2.72297
2.73582
2.74746
2.75985
2.76655
2.77457
2.77828
2.77964
1
1.00003
1.00006
1.00019
1.00035
1.0011
1.00202
1.00615
1.01229
1.03307
1.08431
1.19649
1.57503
2.42614
2.6787
2.72307
2.71841
2.71824
2.72991
2.74101
2.7545
2.76089
2.76506
2.7682
2.76905
1
1.00003
1.00005
1.00018
1.00033
1.00104
1.0019
1.0058
1.0116
1.03117
1.08021
1.18358
1.54911
2.37689
2.66012
2.71999
2.71459
2.71155
2.72386
2.73055
2.74302
2.75137
2.75692
2.75952
2.75968
1
1.00003
1.00005
1.00017
1.0003
1.00096
1.00176
1.00526
1.01085
1.02831
1.07555
1.16848
1.51967
2.31569
2.63648
2.71672
2.70996
2.70542
2.71731
2.72501
2.73185
2.73741
2.74083
2.74182
2.73928
1
1.00002
1.00005
1.00015
1.00028
1.00088
1.00161
1.00479
1.00993
1.0258
1.06895
1.15335
1.47594
2.23186
2.60576
2.71005
2.70234
2.69406
2.70363
2.71256
2.72071
2.72271
2.72462
2.72272
2.71745
1
1.00002
1.00004
1.00014
1.00025
1.00081
1.00146
1.00452
1.00884
1.02415
1.05986
1.13896
1.41231
2.11347
2.56684
2.70315
2.69528
2.68513
2.69348
2.69784
2.70311
2.70297
2.69923
2.69069
2.66685
1
1.00002
1.00004
1.00012
1.00022
1.0007
1.00129
1.00396
1.00776
1.02146
1.05114
1.12336
1.34704
1.9979
2.50403
2.67843
2.67368
2.66592
2.67864
2.68169
2.68491
2.68133
2.66977
2.6469
2.59532
1.00001
1.00003
1.00006
1.00021
1.00038
1.00122
1.00224
1.00678
1.01369
1.03652
1.09368
1.22127
1.63007
2.51044
2.71424
2.73043
2.7285
2.73047
2.74364
2.7559
2.76902
2.77713
2.78389
2.78817
2.79117
1.00001
1.00003
1.00006
1.00021
1.00038
1.00121
1.00222
1.00673
1.01355
1.03621
1.09271
1.21894
1.62468
2.50334
2.7113
2.72995
2.72789
2.72962
2.74274
2.75481
2.76778
2.77573
2.78194
2.78599
2.78857
1.00001
1.00003
1.00006
1.00021
1.00037
1.00119
1.00217
1.00661
1.01327
1.03556
1.09068
1.21416
1.61303
2.48736
2.7041
2.72819
2.72601
2.72706
2.74033
2.75218
2.76515
2.77323
2.77952
2.78259
2.78417
1.00001
1.00003
1.00006
1.0002
1.00036
1.00115
1.00211
1.00644
1.01284
1.03462
1.08759
1.20707
1.5953
2.46147
2.69291
2.72549
2.72262
2.72297
2.73582
2.74746
2.75985
2.76655
2.77457
2.77828
2.77964
1
1.00003
1.00006
1.00019
1.00035
1.0011
1.00202
1.00615
1.01229
1.03307
1.08431
1.19649
1.57503
2.42614
2.6787
2.72307
2.71841
2.71824
2.72991
2.74101
2.7545
2.76089
2.76506
2.7682
2.76905
1
1.00003
1.00005
1.00018
1.00033
1.00104
1.0019
1.0058
1.0116
1.03117
1.08021
1.18358
1.54911
2.37689
2.66012
2.71999
2.71459
2.71155
2.72386
2.73055
2.74302
2.75137
2.75692
2.75952
2.75968
1
1.00003
1.00005
1.00017
1.0003
1.00096
1.00176
1.00526
1.01085
1.02831
1.07555
1.16848
1.51967
2.31569
2.63648
2.71672
2.70996
2.70542
2.71731
2.72501
2.73185
2.73741
2.74083
2.74182
2.73928
1
1.00002
1.00005
1.00015
1.00028
1.00088
1.00161
1.00479
1.00993
1.0258
1.06895
1.15335
1.47594
2.23187
2.60576
2.71005
2.70234
2.69406
2.70363
2.71256
2.72071
2.72271
2.72462
2.72273
2.71745
1
1.00002
1.00004
1.00014
1.00025
1.00081
1.00146
1.00452
1.00884
1.02415
1.05986
1.13896
1.41231
2.11347
2.56684
2.70315
2.69528
2.68513
2.69348
2.69784
2.70311
2.70297
2.69923
2.69069
2.66685
1
1.00002
1.00004
1.00012
1.00022
1.0007
1.00129
1.00396
1.00776
1.02146
1.05114
1.12336
1.34704
1.9979
2.50404
2.67843
2.67368
2.66592
2.67864
2.68169
2.68491
2.68133
2.66977
2.6469
2.59532
1.00001
1.00003
1.00006
1.00021
1.00038
1.00122
1.00224
1.00678
1.01369
1.03652
1.09368
1.22127
1.63007
2.51044
2.71424
2.73043
2.7285
2.73047
2.74364
2.7559
2.76902
2.77713
2.78389
2.78817
2.79117
1.00001
1.00003
1.00006
1.00021
1.00038
1.00121
1.00222
1.00673
1.01355
1.03621
1.09271
1.21894
1.62468
2.50334
2.7113
2.72995
2.72789
2.72962
2.74274
2.75481
2.76778
2.77573
2.78194
2.78599
2.78857
1.00001
1.00003
1.00006
1.00021
1.00037
1.00119
1.00217
1.00661
1.01327
1.03556
1.09068
1.21416
1.61303
2.48737
2.7041
2.72819
2.72601
2.72706
2.74033
2.75218
2.76515
2.77323
2.77952
2.78259
2.78417
1.00001
1.00003
1.00006
1.0002
1.00036
1.00115
1.00211
1.00644
1.01284
1.03462
1.08759
1.20707
1.5953
2.46147
2.69291
2.72549
2.72262
2.72297
2.73582
2.74746
2.75985
2.76655
2.77457
2.77828
2.77964
1
1.00003
1.00006
1.00019
1.00035
1.0011
1.00202
1.00615
1.01229
1.03307
1.08431
1.19649
1.57503
2.42614
2.6787
2.72307
2.71841
2.71824
2.72991
2.74101
2.7545
2.76089
2.76506
2.7682
2.76905
1
1.00003
1.00005
1.00018
1.00033
1.00104
1.0019
1.0058
1.0116
1.03117
1.08021
1.18358
1.54911
2.3769
2.66012
2.71999
2.71459
2.71155
2.72386
2.73055
2.74302
2.75137
2.75692
2.75952
2.75969
1
1.00003
1.00005
1.00017
1.0003
1.00096
1.00176
1.00526
1.01085
1.02831
1.07555
1.16848
1.51967
2.31569
2.63648
2.71672
2.70996
2.70542
2.71731
2.72501
2.73185
2.73741
2.74083
2.74182
2.73928
1
1.00002
1.00005
1.00015
1.00028
1.00088
1.00161
1.00479
1.00993
1.0258
1.06895
1.15335
1.47594
2.23187
2.60576
2.71005
2.70234
2.69406
2.70363
2.71256
2.72071
2.72271
2.72462
2.72273
2.71745
1
1.00002
1.00004
1.00014
1.00025
1.00081
1.00146
1.00452
1.00884
1.02415
1.05986
1.13896
1.41231
2.11347
2.56684
2.70315
2.69528
2.68513
2.69348
2.69784
2.70311
2.70297
2.69923
2.69069
2.66685
1
1.00002
1.00004
1.00012
1.00022
1.0007
1.00129
1.00396
1.00776
1.02146
1.05114
1.12336
1.34704
1.9979
2.50404
2.67843
2.67368
2.66592
2.67864
2.68169
2.68491
2.68133
2.66977
2.6469
2.59532
1.00001
1.00003
1.00006
1.00021
1.00038
1.00122
1.00224
1.00678
1.01369
1.03652
1.09368
1.22127
1.63007
2.51043
2.71424
2.73043
2.7285
2.73047
2.74364
2.7559
2.76902
2.77713
2.78389
2.78817
2.79117
1.00001
1.00003
1.00006
1.00021
1.00038
1.00121
1.00222
1.00673
1.01355
1.03621
1.09271
1.21894
1.62468
2.50333
2.7113
2.72995
2.72789
2.72962
2.74274
2.75481
2.76778
2.77573
2.78194
2.78599
2.78857
1.00001
1.00003
1.00006
1.00021
1.00037
1.00119
1.00217
1.00661
1.01327
1.03556
1.09068
1.21416
1.61303
2.48736
2.7041
2.72819
2.726
2.72706
2.74033
2.75218
2.76515
2.77323
2.77952
2.78259
2.78417
1.00001
1.00003
1.00006
1.0002
1.00036
1.00115
1.00211
1.00644
1.01284
1.03462
1.08759
1.20707
1.5953
2.46147
2.69291
2.72549
2.72262
2.72297
2.73582
2.74746
2.75985
2.76655
2.77457
2.77828
2.77964
1
1.00003
1.00006
1.00019
1.00035
1.0011
1.00202
1.00615
1.01229
1.03307
1.08431
1.19649
1.57503
2.42614
2.6787
2.72307
2.71841
2.71824
2.72991
2.74101
2.7545
2.76089
2.76506
2.7682
2.76905
1
1.00003
1.00005
1.00018
1.00033
1.00104
1.0019
1.0058
1.0116
1.03117
1.08021
1.18358
1.54911
2.37689
2.66012
2.71999
2.71459
2.71155
2.72386
2.73055
2.74302
2.75137
2.75692
2.75952
2.75968
1
1.00003
1.00005
1.00017
1.0003
1.00096
1.00176
1.00526
1.01085
1.02831
1.07555
1.16848
1.51967
2.31569
2.63648
2.71672
2.70996
2.70542
2.71731
2.72501
2.73185
2.73741
2.74083
2.74182
2.73928
1
1.00002
1.00005
1.00015
1.00028
1.00088
1.00161
1.00479
1.00993
1.0258
1.06895
1.15335
1.47594
2.23186
2.60576
2.71005
2.70234
2.69406
2.70363
2.71256
2.72071
2.72271
2.72462
2.72273
2.71745
1
1.00002
1.00004
1.00014
1.00025
1.00081
1.00146
1.00452
1.00884
1.02415
1.05986
1.13896
1.41231
2.11347
2.56684
2.70315
2.69528
2.68513
2.69348
2.69784
2.70311
2.70297
2.69923
2.69069
2.66685
1
1.00002
1.00004
1.00012
1.00022
1.0007
1.00129
1.00396
1.00776
1.02146
1.05114
1.12336
1.34704
1.9979
2.50404
2.67843
2.67368
2.66592
2.67864
2.68169
2.68491
2.68133
2.66977
2.6469
2.59532
1.00001
1.00003
1.00006
1.00021
1.00038
1.00122
1.00224
1.00678
1.01369
1.03652
1.09368
1.22127
1.63006
2.51043
2.71424
2.73043
2.7285
2.73047
2.74364
2.7559
2.76902
2.77713
2.78389
2.78817
2.79117
1.00001
1.00003
1.00006
1.00021
1.00038
1.00121
1.00222
1.00673
1.01355
1.03621
1.09271
1.21894
1.62468
2.50333
2.7113
2.72995
2.72788
2.72962
2.74274
2.75481
2.76778
2.77573
2.78194
2.78599
2.78857
1.00001
1.00003
1.00006
1.00021
1.00037
1.00119
1.00217
1.00661
1.01327
1.03556
1.09068
1.21416
1.61303
2.48736
2.7041
2.72819
2.726
2.72706
2.74033
2.75218
2.76515
2.77323
2.77951
2.78259
2.78417
1.00001
1.00003
1.00006
1.0002
1.00036
1.00115
1.00211
1.00644
1.01284
1.03462
1.08759
1.20707
1.5953
2.46147
2.69291
2.72549
2.72262
2.72297
2.73582
2.74745
2.75985
2.76655
2.77457
2.77828
2.77964
1
1.00003
1.00006
1.00019
1.00035
1.0011
1.00202
1.00615
1.01229
1.03307
1.08431
1.19649
1.57503
2.42614
2.6787
2.72307
2.71841
2.71824
2.72991
2.74101
2.7545
2.76089
2.76506
2.7682
2.76905
1
1.00003
1.00005
1.00018
1.00033
1.00104
1.0019
1.0058
1.0116
1.03117
1.08021
1.18358
1.5491
2.37689
2.66012
2.71999
2.71459
2.71155
2.72386
2.73055
2.74302
2.75137
2.75692
2.75952
2.75968
1
1.00003
1.00005
1.00017
1.0003
1.00096
1.00176
1.00526
1.01085
1.02831
1.07555
1.16847
1.51967
2.31569
2.63647
2.71672
2.70996
2.70542
2.71731
2.725
2.73185
2.73741
2.74083
2.74182
2.73928
1
1.00002
1.00005
1.00015
1.00028
1.00088
1.00161
1.00479
1.00993
1.0258
1.06895
1.15335
1.47594
2.23186
2.60576
2.71005
2.70234
2.69406
2.70363
2.71256
2.72071
2.72271
2.72462
2.72272
2.71745
1
1.00002
1.00004
1.00014
1.00025
1.00081
1.00146
1.00452
1.00884
1.02415
1.05986
1.13896
1.4123
2.11346
2.56683
2.70315
2.69528
2.68513
2.69348
2.69783
2.70311
2.70297
2.69923
2.69069
2.66685
1
1.00002
1.00004
1.00012
1.00022
1.0007
1.00129
1.00396
1.00776
1.02146
1.05114
1.12335
1.34703
1.99789
2.50403
2.67843
2.67367
2.66592
2.67864
2.68169
2.6849
2.68133
2.66977
2.6469
2.59532
1.00001
1.00003
1.00006
1.00021
1.00038
1.00122
1.00224
1.00678
1.01369
1.03652
1.09368
1.22127
1.63005
2.51041
2.71423
2.73043
2.72849
2.73047
2.74364
2.7559
2.76902
2.77713
2.78388
2.78817
2.79117
1.00001
1.00003
1.00006
1.00021
1.00038
1.00121
1.00222
1.00673
1.01355
1.0362
1.09271
1.21893
1.62466
2.50331
2.71129
2.72995
2.72788
2.72962
2.74274
2.75481
2.76778
2.77573
2.78194
2.78599
2.78857
1.00001
1.00003
1.00006
1.00021
1.00037
1.00119
1.00217
1.00661
1.01327
1.03556
1.09068
1.21415
1.61301
2.48734
2.70409
2.72819
2.726
2.72706
2.74032
2.75218
2.76514
2.77323
2.77951
2.78259
2.78417
1.00001
1.00003
1.00006
1.0002
1.00036
1.00115
1.00211
1.00644
1.01284
1.03462
1.08759
1.20706
1.59528
2.46145
2.6929
2.72549
2.72262
2.72297
2.73582
2.74745
2.75985
2.76655
2.77457
2.77828
2.77964
1
1.00003
1.00006
1.00019
1.00035
1.0011
1.00202
1.00615
1.01229
1.03307
1.08431
1.19648
1.57501
2.42611
2.67869
2.72307
2.71841
2.71824
2.72991
2.74101
2.7545
2.76089
2.76505
2.76819
2.76905
1
1.00003
1.00005
1.00018
1.00033
1.00104
1.0019
1.0058
1.0116
1.03117
1.0802
1.18357
1.54909
2.37686
2.66011
2.71999
2.71459
2.71155
2.72386
2.73055
2.74302
2.75137
2.75692
2.75952
2.75968
1
1.00003
1.00005
1.00017
1.0003
1.00096
1.00176
1.00525
1.01085
1.02831
1.07555
1.16847
1.51966
2.31566
2.63646
2.71671
2.70996
2.70541
2.71731
2.725
2.73185
2.73741
2.74083
2.74182
2.73928
1
1.00002
1.00005
1.00015
1.00028
1.00088
1.00161
1.00479
1.00993
1.0258
1.06894
1.15335
1.47592
2.23182
2.60574
2.71004
2.70234
2.69406
2.70362
2.71256
2.72071
2.72271
2.72462
2.72272
2.71745
1
1.00002
1.00004
1.00014
1.00025
1.00081
1.00146
1.00452
1.00884
1.02415
1.05986
1.13896
1.41228
2.11342
2.56682
2.70315
2.69527
2.68513
2.69347
2.69783
2.70311
2.70297
2.69923
2.69069
2.66685
1
1.00002
1.00004
1.00012
1.00022
1.0007
1.00129
1.00396
1.00776
1.02146
1.05114
1.12335
1.34701
1.99785
2.50401
2.67842
2.67367
2.66591
2.67863
2.68169
2.6849
2.68133
2.66977
2.6469
2.59532
0.999997
1.00003
1.00006
1.0002
1.00038
1.00121
1.00223
1.00677
1.01368
1.0365
1.09364
1.22119
1.62988
2.51016
2.71408
2.73034
2.72841
2.73037
2.74354
2.7558
2.76892
2.77703
2.78378
2.78808
2.79109
0.999997
1.00003
1.00006
1.0002
1.00037
1.0012
1.00221
1.00672
1.01354
1.03618
1.09267
1.21886
1.62449
2.50306
2.71114
2.72986
2.7278
2.72952
2.74264
2.7547
2.76769
2.77563
2.78185
2.7859
2.78849
0.999997
1.00003
1.00005
1.0002
1.00036
1.00118
1.00216
1.0066
1.01326
1.03554
1.09064
1.21408
1.61284
2.48707
2.70394
2.72811
2.72592
2.72696
2.74023
2.75208
2.76505
2.77313
2.77942
2.7825
2.78409
0.999996
1.00002
1.00005
1.00019
1.00035
1.00115
1.0021
1.00643
1.01283
1.0346
1.08755
1.20701
1.59511
2.46118
2.69274
2.72542
2.72254
2.72288
2.73573
2.74736
2.75975
2.76645
2.77447
2.77819
2.77956
0.999996
1.00002
1.00005
1.00018
1.00034
1.0011
1.00201
1.00614
1.01228
1.03305
1.08429
1.1964
1.5749
2.42586
2.67856
2.723
2.71833
2.71816
2.72982
2.74093
2.75441
2.76079
2.76496
2.76811
2.76897
0.999996
1.00002
1.00005
1.00017
1.00032
1.00103
1.00189
1.00579
1.01159
1.03115
1.08018
1.1835
1.54899
2.3766
2.65998
2.71993
2.71452
2.71147
2.72378
2.73047
2.74294
2.75129
2.75683
2.75943
2.7596
0.999996
1.00002
1.00004
1.00016
1.00029
1.00095
1.00175
1.00524
1.01083
1.02829
1.07552
1.16839
1.51955
2.31539
2.63634
2.71665
2.70989
2.70534
2.71723
2.72492
2.73176
2.73732
2.74073
2.74174
2.7392
0.999995
1.00002
1.00004
1.00014
1.00027
1.00087
1.00161
1.00478
1.00992
1.02578
1.06891
1.15328
1.47577
2.2315
2.60561
2.70997
2.70227
2.69398
2.70355
2.71249
2.72064
2.72263
2.72454
2.72264
2.71737
0.999995
1.00001
1.00003
1.00013
1.00024
1.0008
1.00145
1.00451
1.00883
1.02412
1.05984
1.1389
1.41216
2.11308
2.56669
2.70308
2.6952
2.68505
2.69339
2.69775
2.70303
2.70289
2.69915
2.69061
2.66678
0.999995
1.00001
1.00003
1.00011
1.00021
1.00069
1.00128
1.00395
1.00775
1.02144
1.05112
1.1233
1.34688
1.99755
2.50383
2.67831
2.67359
2.66584
2.67858
2.68162
2.68483
2.68126
2.6697
2.64684
2.59526
0.999997
1
1.00003
1.00007
1.00023
1.00044
1.00135
1.00269
1.00719
1.0173
1.04081
1.11786
1.26805
1.72447
2.4914
2.6606
2.65248
2.64374
2.65318
2.65926
2.65972
2.6524
2.63105
2.57997
2.41537
0.999997
1
1.00003
1.00006
1.00022
1.0004
1.00127
1.00233
1.0071
1.01429
1.03814
1.09715
1.23209
1.64355
2.46979
2.63586
2.63179
2.62907
2.62971
2.63602
2.63473
2.62162
2.58957
2.5306
2.37272
0.999996
1
1.00003
1.00005
1.00019
1.00034
1.0011
1.00201
1.00618
1.01223
1.03318
1.08301
1.19643
1.56266
2.38286
2.60189
2.62563
2.62071
2.60924
2.61034
2.60702
2.59174
2.55364
2.50128
2.37937
0.999996
1
1.00002
1.00004
1.00015
1.00028
1.00091
1.00169
1.00498
1.0104
1.02684
1.0721
1.15917
1.49583
2.24092
2.54988
2.62337
2.61393
2.60259
2.58838
2.57887
2.56073
2.52346
2.48123
2.38834
0.999995
0.999999
1.00001
1.00003
1.00013
1.00024
1.00076
1.00141
1.00426
1.00863
1.02292
1.05849
1.13431
1.39637
2.07967
2.47452
2.6132
2.60226
2.59354
2.57805
2.55953
2.54049
2.49761
2.46418
2.40016
0.999994
0.999999
1.00001
1.00004
1.00007
1.00024
1.00045
1.00134
1.00277
1.00717
1.01802
1.04137
1.121
1.27307
1.79589
2.36419
2.57605
2.57524
2.57103
2.56105
2.54029
2.5222
2.48329
2.44212
2.39717
0.999994
0.999998
1
1.00003
1.00006
1.00021
1.00038
1.00122
1.00223
1.00685
1.01356
1.03651
1.09125
1.21833
1.60198
2.35021
2.54335
2.54937
2.54752
2.54244
2.52839
2.51063
2.47845
2.43466
2.39157
0.999994
0.999997
1
1.00002
1.00004
1.00016
1.00029
1.00093
1.00176
1.0051
1.01089
1.02781
1.07535
1.16715
1.50733
2.25871
2.49103
2.53788
2.52543
2.52177
2.51066
2.49789
2.47556
2.43643
2.39422
0.999994
0.999995
1
1.00001
1.00004
1.00009
1.00029
1.00056
1.00157
1.00346
1.00856
1.02301
1.05094
1.15504
1.35202
1.9851
2.43182
2.53672
2.52567
2.51198
2.49842
2.48099
2.46803
2.44131
2.40386
0.999993
0.999994
0.999999
1.00001
1.00003
1.00007
1.00023
1.00043
1.00136
1.00258
1.00732
1.0162
1.03985
1.11071
1.25282
1.67307
2.30529
2.51033
2.51058
2.50281
2.4884
2.47108
2.4536
2.43788
2.41181
0.999993
0.999994
0.999996
1.00001
1.00002
1.00007
1.00014
1.00044
1.00082
1.00249
1.00497
1.01335
1.03252
1.07588
1.21435
1.55023
2.20919
2.4859
2.50747
2.49683
2.48482
2.46932
2.45254
2.43906
2.41947
0.999992
0.999993
0.999995
1
1.00001
1.00005
1.0001
1.00034
1.00063
1.00188
1.00382
1.01003
1.02512
1.0577
1.17161
1.40105
2.00373
2.40421
2.50057
2.49545
2.48807
2.47267
2.45622
2.44379
2.42659
0.999992
0.999992
0.999995
0.999998
1.00001
1.00003
1.0001
1.0002
1.00064
1.0012
1.00361
1.00722
1.01958
1.0468
1.11252
1.30654
1.85228
2.29096
2.4779
2.49177
2.48801
2.48286
2.47095
2.45582
2.43849
0.999992
0.999992
0.999994
0.999996
1.00001
1.00002
1.00008
1.00015
1.0005
1.00092
1.00283
1.00543
1.01565
1.03355
1.08872
1.21598
1.65961
2.16072
2.44121
2.48157
2.48938
2.48756
2.48168
2.46902
2.45116
0.999991
0.999992
0.999993
0.999996
1
1.00002
1.00004
1.00015
1.00028
1.00086
1.00166
1.00466
1.01025
1.02531
1.06971
1.15018
1.4703
2.12212
2.3844
2.48512
2.49792
2.49741
2.49283
2.48201
2.46585
0.999991
0.999992
0.999992
0.999995
0.999998
1.00001
1.00003
1.00012
1.00022
1.0007
1.00129
1.00397
1.00769
1.02163
1.0492
1.12277
1.32765
1.94534
2.32515
2.48681
2.50762
2.50549
2.49885
2.48514
2.4691
0.999991
0.999991
0.999992
0.999993
0.999998
1
1.00003
1.00006
1.00021
1.0004
1.00125
1.00237
1.00693
1.01457
1.03757
1.09676
1.23295
1.60882
2.32071
2.49606
2.52523
2.51656
2.50759
2.48982
2.47253
0.999991
0.999991
0.999992
0.999993
0.999996
1
1.00002
1.00005
1.00017
1.00031
1.00099
1.00187
1.00547
1.01149
1.02976
1.07936
1.17879
1.52829
2.27052
2.52737
2.56677
2.54022
2.52019
2.49332
2.47262
0.999991
0.999991
0.999991
0.999993
0.999994
1
1.00001
1.00005
1.00009
1.0003
1.0006
1.00163
1.0038
1.00905
1.02522
1.05436
1.17129
1.38739
2.04528
2.50211
2.62998
2.59596
2.5633
2.5166
2.48202
0.999991
0.999991
0.999991
0.999992
0.999994
0.999998
1.00001
1.00003
1.00011
1.00021
1.00068
1.00127
1.00385
1.00772
1.02096
1.05064
1.12092
1.33745
1.94034
2.44636
2.64762
2.61722
2.58914
2.54638
2.51098
0.999991
0.999991
0.999991
0.999992
0.999994
0.999997
1.00001
1.00002
1.0001
1.00018
1.00059
1.00109
1.00337
1.00656
1.01853
1.0421
1.1057
1.2825
1.82916
2.4304
2.66253
2.62255
2.60474
2.56664
2.53475
0.999991
0.999991
0.999991
0.999992
0.999993
0.999997
1
1.00003
1.00006
1.00021
1.00039
1.00123
1.00235
1.00678
1.01468
1.03725
1.10143
1.23416
1.66062
2.48228
2.67334
2.65682
2.61752
2.57923
2.54528
0.999991
0.999991
0.999991
0.999992
0.999993
0.999997
1
1.00003
1.00005
1.00019
1.00035
1.00115
1.00211
1.00651
1.01296
1.03509
1.08849
1.21142
1.60104
2.44842
2.67229
2.67933
2.64384
2.6038
2.56531
0.999991
0.999991
0.999991
0.999992
0.999992
0.999996
1
1.00002
1.00005
1.00017
1.00032
1.00103
1.0019
1.00583
1.01172
1.03163
1.08166
1.18908
1.5618
2.38487
2.66478
2.70088
2.66762
2.628
2.59167
0.999991
0.999991
0.999991
0.999992
0.999992
0.999995
0.999999
1.00002
1.00004
1.00015
1.00028
1.00087
1.0017
1.0048
1.01085
1.02697
1.07652
1.16663
1.5337
2.32782
2.66001
2.71403
2.68071
2.6378
2.60318
0.999991
0.999991
0.999991
0.999991
0.999992
0.999994
1
1.00001
1.00004
1.00009
1.00028
1.00062
1.00158
1.0041
1.00934
1.02723
1.05742
1.18833
1.43064
2.16736
2.64919
2.73103
2.70282
2.65704
2.6253
0.999991
0.999991
0.999991
0.999991
0.999992
0.999994
0.999998
1.00001
1.00003
1.00011
1.00023
1.00068
1.00143
1.00373
1.00941
1.0219
1.06433
1.13662
1.44595
2.14192
2.61424
2.72622
2.70068
2.65637
2.62929
0.999991
0.999991
0.999991
0.999991
0.999992
0.999993
0.999999
1.00001
1.00004
1.00008
1.00026
1.00051
1.00147
1.00326
1.00814
1.02215
1.04933
1.15194
1.34664
1.98147
2.60237
2.73206
2.70374
2.65255
2.62626
0.999991
0.999991
0.999991
0.999991
0.999992
0.999993
0.999999
1.00001
1.00004
1.00007
1.00025
1.00047
1.00143
1.00291
1.00775
1.0193
1.04502
1.13368
1.30697
1.84791
2.56098
2.73061
2.70468
2.65618
2.63167
0.999991
0.999991
0.999991
0.999991
0.999992
0.999994
0.999996
1.00001
1.00002
1.00009
1.00018
1.00058
1.00113
1.00326
1.00709
1.01819
1.0483
1.11061
1.31984
1.90078
2.52033
2.72984
2.70889
2.66839
2.64628
0.999991
0.999991
0.999991
0.999991
0.999992
0.999993
0.999998
1
1.00003
1.00006
1.00021
1.00042
1.00118
1.00264
1.00653
1.01766
1.03968
1.11915
1.26775
1.73774
2.5705
2.7327
2.70857
2.66983
2.64577
0.999991
0.999991
0.999991
0.999991
0.999992
0.999994
0.999996
1.00001
1.00002
1.00009
1.00017
1.00056
1.00105
1.00323
1.00636
1.01767
1.04196
1.10056
1.28331
1.7924
2.50872
2.73044
2.7023
2.67516
2.6479
0.999991
0.999991
0.999991
0.999991
0.999992
0.999994
0.999996
1.00001
1.00002
1.00008
1.00016
1.00052
1.00098
1.00298
1.00603
1.0163
1.04058
1.09536
1.27459
1.75747
2.48939
2.7266
2.69556
2.68273
2.65657
0.999991
0.999991
0.999991
0.999991
0.999992
0.999993
0.999997
1
1.00003
1.00006
1.0002
1.00039
1.00119
1.00237
1.00646
1.01511
1.03674
1.10441
1.23828
1.67426
2.53383
2.70903
2.69869
2.67656
2.64766
0.999991
0.999991
0.999991
0.999991
0.999992
0.999993
0.999995
1.00001
1.00002
1.00007
1.00014
1.00045
1.00091
1.00246
1.00584
1.01387
1.03921
1.08379
1.26551
1.66174
2.46462
2.7174
2.71317
2.68953
2.65824
0.999991
0.999991
0.999991
0.999991
0.999992
0.999993
0.999997
1
1.00003
1.00006
1.00019
1.00036
1.00112
1.00222
1.00611
1.01412
1.03469
1.09796
1.22326
1.64109
2.49425
2.69869
2.69767
2.67851
2.64902
0.999991
0.999991
0.999991
0.999991
0.999992
0.999993
0.999995
1
1.00002
1.00007
1.00014
1.00045
1.00087
1.00248
1.00544
1.01354
1.03698
1.08105
1.25265
1.62157
2.42119
2.7078
2.71151
2.6909
2.66129
0.999991
0.999991
0.999991
0.999991
0.999992
0.999993
0.999995
1
1.00002
1.00007
1.00014
1.00044
1.00085
1.00241
1.00533
1.01318
1.03618
1.07899
1.24817
1.60647
2.40546
2.70226
2.71328
2.69335
2.66463
0.999991
0.999991
0.999991
0.999991
0.999992
0.999993
0.999997
1
1.00003
1.00005
1.00019
1.00035
1.00112
1.00212
1.00618
1.01321
1.03403
1.0914
1.21156
1.60732
2.45314
2.68464
2.7002
2.67876
2.64876
0.999991
0.999991
0.999991
0.999991
0.999992
0.999993
0.999997
1
1.00003
1.00005
1.00019
1.00036
1.00115
1.00211
1.00648
1.01293
1.03487
1.08813
1.20923
1.59614
2.45074
2.68804
2.70315
2.68023
2.6482
1.00001
1.00001
1.00004
1.00008
1.00024
1.00045
1.00136
1.00269
1.0072
1.01731
1.04083
1.1179
1.26814
1.72488
2.4914
2.66069
2.65263
2.64382
2.65327
2.65933
2.65979
2.65247
2.63113
2.58004
2.41542
1.00001
1.00001
1.00004
1.00007
1.00022
1.0004
1.00128
1.00234
1.00711
1.0143
1.03816
1.09718
1.23217
1.6437
2.46997
2.63591
2.63183
2.62914
2.62978
2.63609
2.6348
2.62168
2.58962
2.53065
2.37277
1
1.00001
1.00003
1.00006
1.00019
1.00035
1.00111
1.00202
1.0062
1.01224
1.03321
1.08303
1.19651
1.56278
2.3831
2.60204
2.6257
2.62079
2.60933
2.61042
2.60709
2.5918
2.55372
2.50136
2.37943
1
1.00001
1.00003
1.00005
1.00016
1.00029
1.00092
1.00169
1.005
1.01041
1.02686
1.07213
1.15926
1.49594
2.2413
2.54992
2.6234
2.61398
2.60264
2.58847
2.57894
2.56079
2.52349
2.48127
2.3884
1
1.00001
1.00002
1.00004
1.00013
1.00024
1.00077
1.00142
1.00427
1.00864
1.02293
1.05852
1.13435
1.39654
2.07985
2.47487
2.6133
2.60234
2.5936
2.57809
2.55961
2.54058
2.49771
2.46423
2.4002
1
1.00001
1.00001
1.00004
1.00008
1.00025
1.00046
1.00135
1.00278
1.00719
1.01804
1.0414
1.12106
1.27322
1.79664
2.3644
2.57619
2.57539
2.57117
2.56117
2.54034
2.52225
2.48336
2.4422
2.39723
1
1.00001
1.00001
1.00004
1.00007
1.00022
1.00039
1.00123
1.00224
1.00686
1.01358
1.03653
1.0913
1.21841
1.60215
2.35033
2.54335
2.54942
2.5476
2.54254
2.52851
2.51072
2.4785
2.43472
2.39164
1
1
1.00001
1.00003
1.00005
1.00017
1.0003
1.00094
1.00177
1.00512
1.0109
1.02783
1.07539
1.16724
1.50746
2.25899
2.49113
2.53792
2.52549
2.52184
2.51075
2.498
2.47564
2.43648
2.39428
1
1
1.00001
1.00002
1.00005
1.0001
1.0003
1.00057
1.00158
1.00347
1.00857
1.02303
1.05098
1.15511
1.35219