/*--------------------------------*- C++ -*----------------------------------*\
| =========                 |                                                 |
| \\      /  F ield         | OpenFOAM: The Open Source CFD Toolbox           |
|  \\    /   O peration     | Version:  4.1                                   |
|   \\  /    A nd           | Web:      www.OpenFOAM.org                      |
|    \\/     M anipulation  |                                                 |
\*---------------------------------------------------------------------------*/
FoamFile
{
    version     2.0;
    format      ascii;
    class       surfaceScalarField;
    location    "9.1";
    object      phi;
}
// * * * * * * * * * * * * * * * * * * * * * * * * * * * * * * * * * * * * * //

dimensions      [1 0 -1 0 0 0 0];

internalField   nonuniform List<scalar> 
150500
(
0.0168001
1.99064e-10
-3.32276e-12
0.0168001
1.06646e-09
-1.17296e-11
0.0168001
3.79535e-09
-1.34391e-11
0.0168
9.75391e-09
-2.14746e-11
0.0168
2.67186e-08
-2.18111e-11
0.0167999
6.11813e-08
-2.9139e-11
0.0167998
1.58945e-07
-2.99701e-11
0.0167994
3.58449e-07
-4.12644e-11
0.0167984
9.29929e-07
-4.49635e-11
0.0167963
2.12404e-06
-9.41501e-11
0.0167898
5.77088e-06
-6.90228e-11
0.0167741
1.55833e-05
-4.23983e-10
0.0167182
5.35969e-05
-2.56354e-10
0.016543
0.000170598
-2.1758e-09
0.015519
0.00100946
-3.4644e-09
0.0143774
0.0011418
-3.87876e-11
0.0132075
0.00116984
-2.58389e-10
0.0119594
0.0012469
-5.65831e-10
0.010624
0.00133406
-6.05886e-10
0.00918337
0.00143909
-6.40442e-10
0.007617
0.0015652
-6.31452e-10
0.00591679
0.00169953
-6.41216e-10
0.00408961
0.00182649
-6.61701e-10
0.00212872
0.0019599
-6.79341e-10
0.00212736
-6.89152e-10
0.0168001
4.74874e-10
-3.33385e-12
0.0168001
2.01271e-09
-1.17871e-11
0.0168001
7.84501e-09
-1.34352e-11
0.0168
1.97872e-08
-2.149e-11
0.0168
5.45722e-08
-2.18094e-11
0.0167999
1.24586e-07
-2.91435e-11
0.0167998
3.24727e-07
-2.99795e-11
0.0167994
7.28871e-07
-4.12876e-11
0.0167983
1.90736e-06
-4.49992e-11
0.0167961
4.31014e-06
-9.35167e-11
0.0167893
1.19046e-05
-7.19773e-11
0.0167731
3.15901e-05
-3.67352e-10
0.0167143
0.000110151
-3.88058e-10
0.0165332
0.000347183
-1.76165e-09
0.0154948
0.00203309
-3.58036e-09
0.0143399
0.00229699
-4.77484e-11
0.0131829
0.00232675
-2.62798e-10
0.0119479
0.00248082
-5.64862e-10
0.0106198
0.0026609
-5.97788e-10
0.00916658
0.00289079
-6.27116e-10
0.00758082
0.00314979
-6.27304e-10
0.00586025
0.00341937
-6.46593e-10
0.00401018
0.00367584
-6.70696e-10
0.00203996
0.0039291
-6.89423e-10
0.0041659
-7.00827e-10
0.0168001
5.75839e-10
-3.54975e-12
0.0168001
3.19874e-09
-1.15621e-11
0.0168001
1.18029e-08
-1.36819e-11
0.0168
3.03307e-08
-2.13944e-11
0.0168
8.34352e-08
-2.19515e-11
0.0167999
1.90858e-07
-2.90938e-11
0.0167997
4.97168e-07
-3.01062e-11
0.0167994
1.11531e-06
-4.13862e-11
0.0167982
2.92012e-06
-4.53015e-11
0.016796
6.56897e-06
-9.43975e-11
0.016789
1.81866e-05
-7.1903e-11
0.0167728
4.76667e-05
-3.67173e-10
0.0167137
0.000166853
-3.84847e-10
0.0165363
0.000520256
-1.72406e-09
0.0155114
0.00304285
-3.60603e-09
0.0143465
0.00346223
-9.09426e-12
0.0131976
0.00347565
-2.53421e-10
0.0119755
0.00370171
-5.59443e-10
0.0106607
0.00397447
-5.84231e-10
0.00921055
0.00433946
-6.05561e-10
0.0076223
0.00473683
-6.18805e-10
0.005895
0.00514597
-6.50684e-10
0.00402451
0.00554548
-6.79973e-10
0.0020419
0.00591052
-6.99543e-10
0.00620624
-7.16047e-10
0.0168001
7.84587e-10
-3.52566e-12
0.0168001
4.36564e-09
-1.15848e-11
0.0168001
1.623e-08
-1.36644e-11
0.0168
4.17218e-08
-2.14275e-11
0.0168
1.149e-07
-2.19728e-11
0.0167999
2.63507e-07
-2.91628e-11
0.0167997
6.83889e-07
-3.02271e-11
0.0167993
1.55222e-06
-4.15252e-11
0.0167981
3.96767e-06
-4.58389e-11
0.0167956
9.12864e-06
-9.42763e-11
0.0167886
2.44304e-05
-7.28295e-11
0.0167725
6.36172e-05
-3.62439e-10
0.0167149
0.000222089
-3.8885e-10
0.0165472
0.000683741
-1.70158e-09
0.0155581
0.00401621
-3.67585e-09
0.0143904
0.00463055
5.19984e-11
0.0132525
0.00461353
-2.37138e-10
0.0120515
0.00490166
-5.51867e-10
0.0107552
0.00526957
-5.6785e-10
0.00933428
0.00575875
-5.7922e-10
0.00775127
0.00631881
-6.00476e-10
0.00602117
0.00687491
-6.40254e-10
0.00413908
0.00742666
-6.79111e-10
0.00210452
0.00794483
-7.04825e-10
0.0083092
-7.22977e-10
0.0168001
1.00994e-09
-3.49044e-12
0.0168001
5.57244e-09
-1.16199e-11
0.0168001
2.07457e-08
-1.36562e-11
0.0168
5.32655e-08
-2.15213e-11
0.0168
1.47262e-07
-2.21701e-11
0.0167999
3.39394e-07
-2.97019e-11
0.0167997
8.74838e-07
-3.12674e-11
0.0167992
2.05119e-06
-4.65337e-11
0.0167982
4.90374e-06
-4.35975e-11
0.0167951
1.2116e-05
-1.32666e-10
0.0167886
3.03e-05
-2.6938e-11
0.0167723
7.95647e-05
-4.04745e-10
0.0167216
0.000270391
-3.21427e-10
0.0165619
0.000839395
-1.66233e-09
0.0156453
0.00491634
-3.70702e-09
0.0144703
0.00580646
1.23725e-10
0.0133417
0.0057424
-2.45126e-10
0.0121672
0.006075
-5.6297e-10
0.0109023
0.00653314
-5.65207e-10
0.00950703
0.00715228
-5.57425e-10
0.00796591
0.00785857
-5.84947e-10
0.00623993
0.0086004
-6.2517e-10
0.00432927
0.00933589
-6.55877e-10
0.00223578
0.0100362
-6.83751e-10
0.0105432
-7.10394e-10
0.0168001
1.09698e-09
-3.43405e-12
0.0168001
6.05177e-09
-1.16459e-11
0.0168001
2.25685e-08
-1.35399e-11
0.0168
5.78372e-08
-2.16242e-11
0.0168
1.60095e-07
-2.17102e-11
0.0168
3.67247e-07
-2.94034e-11
0.0167999
9.60753e-07
-3.0171e-11
0.0167998
2.17458e-06
-4.17345e-11
0.0167989
5.66569e-06
-4.65355e-11
0.0167984
1.26665e-05
-8.5941e-11
0.0167906
3.73254e-05
-1.1968e-10
0.0167796
9.04185e-05
-2.97357e-10
0.0167268
0.000320842
-4.34826e-10
0.0165735
0.000988227
-1.6908e-09
0.0157656
0.00570689
-3.82665e-09
0.0145688
0.00700459
2.80563e-10
0.0134519
0.00685955
-1.8369e-10
0.0123139
0.00721176
-5.4546e-10
0.0111073
0.0077382
-5.42758e-10
0.00975936
0.00849849
-5.22114e-10
0.00825097
0.00936508
-5.52926e-10
0.00655501
0.0102953
-6.02442e-10
0.00461955
0.0112712
-6.43686e-10
0.00242173
0.0122327
-6.79952e-10
0.0129631
-6.97812e-10
0.0168001
1.09023e-09
-3.3835e-12
0.0168001
6.03282e-09
-1.16543e-11
0.0168001
2.25288e-08
-1.34907e-11
0.0168001
5.75228e-08
-2.17448e-11
0.0168001
1.59318e-07
-2.14732e-11
0.0168001
3.61256e-07
-2.94924e-11
0.0168
9.69162e-07
-2.99565e-11
0.0168002
2.05324e-06
-4.14251e-11
0.0167996
6.10963e-06
-4.64045e-11
0.0168002
1.20818e-05
-8.30251e-11
0.016795
4.18307e-05
-1.20723e-10
0.0167931
9.21349e-05
-2.77584e-10
0.0167132
0.000398455
-4.87138e-10
0.0165934
0.00110462
-1.66772e-09
0.0159611
0.00632087
-4.04519e-09
0.014717
0.00825063
3.45458e-10
0.0136025
0.00797449
-1.53381e-10
0.0125037
0.0083094
-5.24229e-10
0.0113595
0.008881
-5.15144e-10
0.0101082
0.00974816
-4.84774e-10
0.00865977
0.0108122
-5.09667e-10
0.00699376
0.0119599
-5.57432e-10
0.00505116
0.0132123
-5.94651e-10
0.00274371
0.0145383
-6.30219e-10
0.0157048
-6.60237e-10
0.0168001
1.12406e-09
-3.3477e-12
0.0168001
6.26972e-09
-1.16509e-11
0.0168001
2.33445e-08
-1.35959e-11
0.0168001
5.98246e-08
-2.15425e-11
0.0168
1.64391e-07
-2.20797e-11
0.0168
3.71912e-07
-2.97144e-11
0.0168
1.00308e-06
-3.12189e-11
0.0168
2.02606e-06
-4.67154e-11
0.0167992
6.76598e-06
-4.34945e-11
0.0168007
1.07259e-05
-1.32025e-10
0.0167912
5.05706e-05
-2.75612e-11
0.0167903
9.31066e-05
-3.94254e-10
0.0167491
0.000437345
-2.90562e-10
0.0166758
0.00117516
-1.56672e-09
0.0164802
0.00649715
-3.95986e-09
0.01514
0.00959291
1.65449e-10
0.0139502
0.00916545
-2.53897e-10
0.0128526
0.00940626
-5.15317e-10
0.0117554
0.00997689
-4.90032e-10
0.0105619
0.0109399
-4.44729e-10
0.00920685
0.0121658
-4.74315e-10
0.00760667
0.0135591
-5.29425e-10
0.00568249
0.0151356
-5.67064e-10
0.00325522
0.0169643
-5.9413e-10
0.0189579
-6.13324e-10
0.0168001
1.61244e-09
-3.32302e-12
0.0168001
7.26268e-09
-1.15908e-11
0.0168001
2.8745e-08
-1.36149e-11
0.0168
7.11681e-08
-2.13464e-11
0.0168
2.00867e-07
-2.17649e-11
0.0167999
4.49174e-07
-2.87006e-11
0.0167997
1.20729e-06
-2.92135e-11
0.0167991
2.58254e-06
-3.81187e-11
0.0167984
7.38478e-06
-4.34934e-11
0.0167952
1.39902e-05
-7.6146e-11
0.0167939
5.12416e-05
-8.14061e-11
0.0167926
9.42124e-05
-2.70567e-10
0.016796
0.000431591
-3.95169e-10
0.01684
0.00112877
-1.41544e-09
0.0174022
0.00591528
-3.85373e-09
0.0159454
0.0110494
-3.69218e-10
0.0145477
0.0105636
-4.18781e-10
0.0134321
0.0105216
-4.44511e-10
0.0123795
0.0110292
-4.1971e-10
0.011242
0.0120759
-3.91587e-10
0.00995596
0.01345
-4.41621e-10
0.00850797
0.0150049
-4.88347e-10
0.00673576
0.0169057
-5.08998e-10
0.00421401
0.0194842
-5.36745e-10
0.02317
-5.40502e-10
0.0168001
-3.36339e-12
2.92539e-09
0.0168001
-1.15171e-11
2.94782e-09
0.0168
-1.37684e-11
4.06552e-08
0.0168001
-2.14038e-11
3.98102e-08
0.0168
-2.18288e-11
2.7324e-07
0.0168002
-2.86332e-11
2.64049e-07
0.0167997
-2.87695e-11
1.65376e-06
0.0168008
-3.70415e-11
1.47083e-06
0.0167977
-4.06979e-11
1.04337e-05
0.0168052
-6.79383e-11
6.46785e-06
0.0167819
-7.28238e-11
7.41599e-05
0.0168428
-2.11568e-10
3.31805e-05
0.0167502
-3.11498e-10
0.000522398
0.0171404
-1.05742e-09
0.000735691
0.0188653
-2.34842e-09
0.00418055
0.0173027
-1.86472e-09
0.0126041
0.0154098
-8.92846e-10
0.0124533
0.0143426
-2.40029e-10
0.0115884
0.0132005
-3.17993e-10
0.0121706
0.0121634
-3.70156e-10
0.0131121
0.011049
-4.39211e-10
0.0145635
0.00982156
-4.63178e-10
0.016231
0.00820333
-4.90248e-10
0.0185222
0.00581268
-5.00298e-10
0.0218729
-4.46237e-10
0.0289807
0.0168001
1.86409e-10
-7.1773e-16
0.0168001
1.01499e-09
-3.65782e-15
0.0168
3.77649e-09
-9.01711e-15
0.0168
9.70335e-09
-1.90016e-14
0.0168
2.668e-08
-4.18178e-14
0.0167999
6.11266e-08
-8.11127e-14
0.0167998
1.5889e-07
-1.96604e-13
0.0167994
3.58368e-07
-3.90413e-13
0.0167984
9.29811e-07
-1.04599e-12
0.0167963
2.12397e-06
-2.16161e-12
0.0167898
5.76994e-06
-5.80788e-12
0.0167739
1.55969e-05
-1.75203e-11
0.0167185
5.35661e-05
-3.87191e-11
0.0165428
0.000170712
-1.48724e-10
0.0155189
0.00100946
-3.30473e-10
0.0143773
0.00114181
6.9608e-12
0.0132074
0.00116987
-1.03831e-11
0.0119593
0.00124695
-3.89533e-11
0.0106238
0.00133411
-4.29171e-11
0.00918307
0.00143913
-4.7263e-11
0.00761672
0.00156518
-4.78426e-11
0.00591659
0.00169946
-4.92131e-11
0.00408949
0.0018264
-5.13172e-11
0.00212866
0.00195982
-5.25104e-11
0.00212729
-5.33103e-11
0.0168001
3.80713e-10
-7.2125e-16
0.0168001
2.07284e-09
-3.67405e-15
0.0168
7.71168e-09
-9.05968e-15
0.0168
1.97736e-08
-1.90903e-14
0.0168
5.44526e-08
-4.20356e-14
0.0167999
1.24529e-07
-8.15629e-14
0.0167998
3.24582e-07
-1.97594e-13
0.0167994
7.28698e-07
-3.92287e-13
0.0167983
1.90703e-06
-1.04706e-12
0.0167961
4.30941e-06
-2.15491e-12
0.0167893
1.1904e-05
-5.88821e-12
0.0167731
3.15899e-05
-1.61183e-11
0.0167142
0.00011015
-4.2784e-11
0.0165333
0.000347212
-1.35875e-10
0.0154948
0.00203312
-3.34701e-10
0.0143399
0.00229696
7.8239e-12
0.013183
0.00232676
-1.0217e-11
0.011948
0.00248086
-3.90734e-11
0.0106199
0.00266094
-4.27148e-11
0.00916662
0.00289082
-4.67325e-11
0.00758085
0.00314977
-4.75351e-11
0.00586026
0.00341931
-4.92689e-11
0.00401018
0.00367575
-5.15519e-11
0.00203995
0.00392902
-5.27111e-11
0.00416582
-5.34849e-11
0.0168001
5.82709e-10
-7.27272e-16
0.0168001
3.17454e-09
-3.71872e-15
0.0168
1.18098e-08
-9.16342e-15
0.0168
3.02924e-08
-1.93226e-14
0.0168
8.33909e-08
-4.25985e-14
0.0167999
1.90744e-07
-8.27288e-14
0.0167997
4.96946e-07
-2.00497e-13
0.0167994
1.11486e-06
-3.98742e-13
0.0167982
2.91888e-06
-1.06016e-12
0.016796
6.56778e-06
-2.19221e-12
0.016789
1.81813e-05
-5.93461e-12
0.0167728
4.76675e-05
-1.61797e-11
0.0167137
0.000166851
-4.30481e-11
0.0165363
0.000520289
-1.35269e-10
0.0155114
0.00304287
-3.4028e-10
0.0143466
0.00346215
1.4778e-11
0.0131977
0.00347562
-9.25012e-12
0.0119756
0.00370171
-3.94593e-11
0.0106608
0.00397448
-4.2637e-11
0.0092107
0.00433948
-4.60669e-11
0.00762243
0.00473682
-4.71015e-11
0.0058951
0.00514593
-4.93743e-11
0.00402457
0.00554542
-5.16978e-11
0.00204192
0.00591047
-5.25497e-11
0.00620617
-5.35284e-11
0.0168001
8.02288e-10
-7.37731e-16
0.0168001
4.3646e-09
-3.76581e-15
0.0168
1.62409e-08
-9.31206e-15
0.0168
4.16966e-08
-1.9641e-14
0.0168
1.14794e-07
-4.34178e-14
0.0167999
2.63232e-07
-8.43315e-14
0.0167997
6.83269e-07
-2.04541e-13
0.0167993
1.54962e-06
-4.05314e-13
0.0167981
3.96791e-06
-1.08102e-12
0.0167956
9.10948e-06
-2.21514e-12
0.0167886
2.44488e-05
-6.0385e-12
0.0167725
6.35957e-05
-1.61554e-11
0.0167149
0.000222124
-4.3741e-11
0.0165472
0.000683777
-1.3561e-10
0.0155581
0.00401627
-3.49698e-10
0.0143904
0.00463038
1.50826e-11
0.0132526
0.00461343
-7.50864e-12
0.0120516
0.00490161
-4.01619e-11
0.0107554
0.00526954
-4.27221e-11
0.00933444
0.00575875
-4.55042e-11
0.00775143
0.0063188
-4.63995e-11
0.00602127
0.00687491
-4.88968e-11
0.00413912
0.00742663
-5.18118e-11
0.00210456
0.00794477
-5.30113e-11
0.00830916
-5.37263e-11
0.0168001
1.03749e-09
-7.78817e-16
0.0168001
5.5815e-09
-3.92511e-15
0.0168
2.08155e-08
-9.91871e-15
0.0168
5.32603e-08
-2.10405e-14
0.0168
1.47487e-07
-4.75699e-14
0.0167999
3.39632e-07
-9.43758e-14
0.0167997
8.75464e-07
-2.25012e-13
0.0167992
2.05351e-06
-5.01368e-13
0.0167981
4.90317e-06
-1.04599e-12
0.0167951
1.21361e-05
-2.95388e-12
0.0167886
3.02641e-05
-5.29937e-12
0.0167723
7.96063e-05
-1.68252e-11
0.0167217
0.000270339
-4.36046e-11
0.016562
0.000839377
-1.36774e-10
0.0156455
0.00491631
-3.63194e-10
0.0144706
0.00580623
2.12454e-11
0.0133419
0.0057423
-6.57082e-12
0.0121674
0.00607494
-4.10779e-11
0.0109025
0.00653311
-4.30151e-11
0.00950724
0.00715229
-4.48096e-11
0.00796608
0.0078586
-4.63039e-11
0.00624009
0.00860041
-4.85879e-11
0.00432938
0.00933591
-4.9969e-11
0.0022358
0.0100362
-5.11218e-11
0.0105432
-5.25092e-11
0.0168001
1.12208e-09
-7.45129e-16
0.0168001
6.06869e-09
-3.76518e-15
0.0168001
2.26111e-08
-9.38328e-15
0.0168
5.78139e-08
-2.00265e-14
0.0168
1.60226e-07
-4.41332e-14
0.0168
3.67263e-07
-8.71122e-14
0.0167999
9.60907e-07
-2.1027e-13
0.0167998
2.17481e-06
-4.32862e-13
0.0167989
5.6659e-06
-1.09025e-12
0.0167984
1.26681e-05
-2.31183e-12
0.0167906
3.73259e-05
-6.7063e-12
0.0167796
9.0428e-05
-1.62633e-11
0.0167267
0.000320828
-4.14859e-11
0.0165734
0.000988275
-1.41687e-10
0.0157654
0.005707
-3.74673e-10
0.0145687
0.00700419
3.59622e-11
0.013452
0.0068593
-5.9186e-12
0.012314
0.00721161
-4.21144e-11
0.0111074
0.00773812
-4.31993e-11
0.00975956
0.00849848
-4.3673e-11
0.00825114
0.00936513
-4.56125e-11
0.00655511
0.0102954
-4.85557e-11
0.00461963
0.0112713
-5.093e-11
0.00242179
0.0122328
-5.2794e-11
0.0129631
-5.23708e-11
0.0168001
1.10808e-09
-6.83511e-16
0.0168001
6.0509e-09
-3.48975e-15
0.0168001
2.24998e-08
-8.47538e-15
0.0168001
5.76294e-08
-1.80623e-14
0.0168001
1.5907e-07
-3.85849e-14
0.0168001
3.6114e-07
-7.46539e-14
0.0168
9.68572e-07
-1.8483e-13
0.0168002
2.05066e-06
-3.37129e-13
0.0167996
6.11095e-06
-1.0802e-12
0.0168002
1.20614e-05
-1.77433e-12
0.016795
4.18697e-05
-6.92419e-12
0.0167931
9.20939e-05
-1.29141e-11
0.0167131
0.000398588
-5.4423e-11
0.0165932
0.00110475
-1.39057e-10
0.0159604
0.00632147
-3.96229e-10
0.0147165
0.00825005
4.56811e-11
0.0136023
0.00797395
-1.63061e-12
0.0125036
0.00830908
-4.12202e-11
0.0113595
0.00888083
-4.20833e-11
0.0101083
0.0097481
-4.26021e-11
0.00865988
0.0108122
-4.41963e-11
0.00699388
0.01196
-4.67104e-11
0.00505122
0.0132124
-4.82698e-11
0.00274374
0.0145384
-4.99665e-11
0.0157048
-5.07596e-11
0.0168001
1.13431e-09
-6.05692e-16
0.0168001
6.30326e-09
-3.16691e-15
0.0168001
2.33532e-08
-7.32254e-15
0.0168001
5.99082e-08
-1.55448e-14
0.0168
1.64558e-07
-3.09664e-14
0.0168
3.72402e-07
-5.72818e-14
0.0168
1.00423e-06
-1.47883e-13
0.0168
2.03007e-06
-1.80345e-13
0.0167992
6.7683e-06
-1.10563e-12
0.0168006
1.07477e-05
-5.23762e-13
0.0167912
5.0562e-05
-7.45615e-12
0.0167902
9.31805e-05
-9.71933e-12
0.0167491
0.000437328
-5.34611e-11
0.0166758
0.00117534
-1.37141e-10
0.0164798
0.0064982
-4.1101e-10
0.0151397
0.00959223
3.81167e-11
0.01395
0.00916472
8.9411e-13
0.0128525
0.00940581
-3.81832e-11
0.0117553
0.00997667
-3.9351e-11
0.0105619
0.0109398
-4.0671e-11
0.00920685
0.0121658
-4.29779e-11
0.00760668
0.0135592
-4.7084e-11
0.00568251
0.0151356
-4.93815e-11
0.00325524
0.0169644
-5.01649e-11
0.018958
-4.93875e-11
0.0168001
1.57775e-09
-6.57171e-16
0.0168001
7.37853e-09
-3.38083e-15
0.0168001
2.86026e-08
-8.16612e-15
0.0168
7.10694e-08
-1.7178e-14
0.0168
2.00696e-07
-3.70376e-14
0.0167999
4.49201e-07
-7.16234e-14
0.0167997
1.2076e-06
-1.73677e-13
0.0167991
2.58412e-06
-3.37481e-13
0.0167984
7.38747e-06
-1.00075e-12
0.0167952
1.40019e-05
-1.55276e-12
0.0167939
5.12521e-05
-7.20179e-12
0.0167926
9.42593e-05
-1.10098e-11
0.0167959
0.000431667
-5.21384e-11
0.0168398
0.00112907
-1.29063e-10
0.0174012
0.00591721
-4.09229e-10
0.0159448
0.0110483
-1.10209e-11
0.0145473
0.0105625
-1.38821e-11
0.0134319
0.0105211
-3.42227e-11
0.0123793
0.0110289
-3.58307e-11
0.0112419
0.0120757
-3.86153e-11
0.00995592
0.0134499
-4.22746e-11
0.00850794
0.0150049
-4.59976e-11
0.00673575
0.0169057
-4.7497e-11
0.00421401
0.0194843
-4.91571e-11
0.0231701
-4.71721e-11
0.0168001
-6.07274e-16
2.79845e-09
0.0168001
-3.16209e-15
3.32362e-09
0.0168
-7.39636e-15
3.94656e-08
0.0168001
-1.55024e-14
4.02824e-08
0.0168
-3.17158e-14
2.71963e-07
0.0168002
-6.06513e-14
2.64681e-07
0.0167997
-1.38687e-13
1.65272e-06
0.0168008
-2.66643e-13
1.47191e-06
0.0167977
-7.73581e-13
1.04333e-05
0.0168052
-1.05706e-12
6.47352e-06
0.0167819
-5.63064e-12
7.41603e-05
0.0168428
-6.98798e-12
3.32061e-05
0.0167503
-3.84454e-11
0.000522417
0.0171406
-9.19334e-11
0.000735971
0.0188667
-2.43785e-10
0.00418125
0.0173028
-1.73544e-10
0.0126042
0.0154099
-7.38456e-11
0.0124522
0.0143424
-2.1276e-11
0.0115881
0.0132004
-3.37326e-11
0.0121703
0.0121632
-4.026e-11
0.0131119
0.0110488
-4.63406e-11
0.0145634
0.00982146
-4.85409e-11
0.0162309
0.0082033
-5.09184e-11
0.0185221
0.00581268
-5.16554e-11
0.0218729
-4.48103e-11
0.0289808
0.0168001
1.86407e-10
1.61076e-16
0.0168001
1.01498e-09
-1.7788e-16
0.0168
3.77646e-09
-5.87013e-16
0.0168
9.70327e-09
-1.26886e-15
0.0168
2.66798e-08
-3.60105e-15
0.0167999
6.11262e-08
-7.36784e-15
0.0167998
1.58889e-07
-2.07213e-14
0.0167994
3.58366e-07
-4.24625e-14
0.0167984
9.29806e-07
-1.20713e-13
0.0167963
2.12397e-06
-2.49165e-13
0.0167898
5.76989e-06
-6.98321e-13
0.0167739
1.55974e-05
-2.07346e-12
0.0167185
5.35648e-05
-4.71062e-12
0.0165428
0.000170717
-1.81346e-11
0.0155189
0.00100946
-4.04708e-11
0.0143773
0.00114181
5.75086e-13
0.0132074
0.00116987
-1.44736e-12
0.0119593
0.00124696
-4.91338e-12
0.0106238
0.00133411
-5.41325e-12
0.00918308
0.00143913
-5.96247e-12
0.00761672
0.00156518
-6.02906e-12
0.00591659
0.00169946
-6.15848e-12
0.00408949
0.0018264
-6.37084e-12
0.00212866
0.00195982
-6.50381e-12
0.00212729
-6.57824e-12
0.0168001
3.8071e-10
1.61112e-16
0.0168001
2.07281e-09
6.6238e-18
0.0168
7.7116e-09
-5.91387e-16
0.0168
1.97734e-08
-1.27851e-15
0.0168
5.44521e-08
-3.62625e-15
0.0167999
1.24528e-07
-7.42223e-15
0.0167998
3.2458e-07
-2.08297e-14
0.0167994
7.28692e-07
-4.27057e-14
0.0167983
1.90702e-06
-1.20498e-13
0.0167961
4.30938e-06
-2.50955e-13
0.0167893
1.19039e-05
-7.02436e-13
0.0167731
3.15899e-05
-1.92861e-12
0.0167142
0.000110149
-5.18911e-12
0.0165333
0.000347213
-1.65262e-11
0.0154948
0.00203312
-4.09637e-11
0.0143399
0.00229696
6.60101e-13
0.013183
0.00232676
-1.44245e-12
0.011948
0.00248086
-4.93645e-12
0.0106199
0.00266094
-5.39724e-12
0.00916663
0.00289082
-5.90843e-12
0.00758086
0.00314977
-5.99899e-12
0.00586027
0.00341931
-6.16985e-12
0.00401018
0.00367575
-6.40079e-12
0.00203995
0.00392902
-6.5298e-12
0.00416582
-6.59919e-12
0.0168001
5.82704e-10
1.6083e-16
0.0168001
3.17451e-09
9.06325e-19
0.0168
1.18097e-08
-6.02493e-16
0.0168
3.0292e-08
-1.30293e-15
0.0168
8.33901e-08
-3.69301e-15
0.0167999
1.90742e-07
-7.56187e-15
0.0167997
4.9694e-07
-2.11881e-14
0.0167994
1.11485e-06
-4.3513e-14
0.0167982
2.91884e-06
-1.22125e-13
0.016796
6.56774e-06
-2.55849e-13
0.016789
1.81811e-05
-7.0792e-13
0.0167728
4.76674e-05
-1.93903e-12
0.0167137
0.00016685
-5.21999e-12
0.0165363
0.00052029
-1.64495e-11
0.0155114
0.00304287
-4.16577e-11
0.0143466
0.00346215
1.11823e-12
0.0131977
0.00347562
-1.33974e-12
0.0119756
0.00370171
-4.99947e-12
0.0106608
0.00397448
-5.40764e-12
0.00921071
0.00433948
-5.85454e-12
0.00762243
0.00473683
-5.97235e-12
0.00589511
0.00514593
-6.20313e-12
0.00402458
0.00554542
-6.44241e-12
0.00204192
0.00591047
-6.53682e-12
0.00620617
-6.627e-12
0.0168001
8.02268e-10
1.60429e-16
0.0168001
4.36452e-09
-1.88511e-16
0.0168
1.62406e-08
-6.20538e-16
0.0168
4.16957e-08
-1.34155e-15
0.0168
1.14791e-07
-3.79274e-15
0.0167999
2.63226e-07
-7.75683e-15
0.0167997
6.83256e-07
-2.16869e-14
0.0167993
1.54957e-06
-4.43204e-14
0.0167981
3.96791e-06
-1.24765e-13
0.0167956
9.1091e-06
-2.5872e-13
0.0167886
2.44491e-05
-7.21516e-13
0.0167725
6.35953e-05
-1.93779e-12
0.0167149
0.000222125
-5.3109e-12
0.0165472
0.000683778
-1.6509e-11
0.0155581
0.00401627
-4.28555e-11
0.0143904
0.00463037
1.93096e-12
0.0132526
0.00461342
-1.13811e-12
0.0120516
0.00490161
-5.10672e-12
0.0107554
0.00526954
-5.44792e-12
0.00933445
0.00575875
-5.82745e-12
0.00775144
0.00631881
-5.94152e-12
0.00602128
0.00687492
-6.19583e-12
0.00413912
0.00742664
-6.50831e-12
0.00210456
0.00794477
-6.64596e-12
0.00830916
-6.69994e-12
0.0168001
1.03751e-09
1.58487e-16
0.0168001
5.58159e-09
-2.08292e-16
0.0168
2.08158e-08
-6.94742e-16
0.0168
5.3261e-08
-1.51283e-15
0.0168
1.47489e-07
-4.29973e-15
0.0167999
3.39637e-07
-8.98703e-15
0.0167997
8.75474e-07
-2.41909e-14
0.0167992
2.05355e-06
-5.61072e-14
0.0167981
4.90317e-06
-1.20476e-13
0.0167951
1.21364e-05
-3.49566e-13
0.0167886
3.02637e-05
-6.31209e-13
0.0167723
7.96066e-05
-2.02375e-12
0.0167217
0.00027034
-5.29983e-12
0.016562
0.000839376
-1.66747e-11
0.0156455
0.00491632
-4.45637e-11
0.0144706
0.00580621
2.84765e-12
0.0133419
0.00574229
-1.03663e-12
0.0121674
0.00607493
-5.25166e-12
0.0109025
0.00653311
-5.5247e-12
0.00950725
0.00715229
-5.80018e-12
0.00796608
0.0078586
-5.98677e-12
0.0062401
0.00860041
-6.22313e-12
0.00432939
0.00933592
-6.36207e-12
0.0022358
0.0100362
-6.49356e-12
0.0105432
-6.62612e-12
0.0168001
1.12211e-09
1.60196e-16
0.0168001
6.06885e-09
-7.3641e-18
0.0168001
2.26117e-08
-6.34551e-16
0.0168
5.78154e-08
-1.37162e-15
0.0168
1.60231e-07
-3.91563e-15
0.0168
3.67274e-07
-8.07724e-15
0.0167999
9.60931e-07
-2.24181e-14
0.0167998
2.17488e-06
-4.76536e-14
0.0167989
5.66598e-06
-1.26179e-13
0.0167984
1.26684e-05
-2.70791e-13
0.0167906
3.73263e-05
-8.03944e-13
0.0167796
9.04297e-05
-1.95592e-12
0.0167268
0.000320823
-5.05812e-12
0.0165734
0.000988277
-1.7293e-11
0.0157654
0.00570701
-4.60483e-11
0.0145687
0.00700416
3.96868e-12
0.013452
0.00685928
-9.71695e-13
0.012314
0.00721161
-5.42153e-12
0.0111074
0.00773812
-5.59983e-12
0.00975957
0.00849848
-5.73505e-12
0.00825115
0.00936514
-5.9827e-12
0.00655511
0.0102954
-6.31433e-12
0.00461964
0.0112713
-6.57268e-12
0.00242179
0.0122328
-6.79157e-12
0.0129631
-6.71142e-12
0.0168001
1.10812e-09
1.62167e-16
0.0168001
6.05108e-09
-1.44846e-16
0.0168001
2.25005e-08
-5.28079e-16
0.0168001
5.7631e-08
-1.13984e-15
0.0168001
1.59075e-07
-3.25942e-15
0.0168001
3.61152e-07
-6.59756e-15
0.0168
9.68597e-07
-1.93994e-14
0.0168002
2.05076e-06
-3.62198e-14
0.0167996
6.11099e-06
-1.25177e-13
0.0168002
1.2062e-05
-2.06488e-13
0.016795
4.18691e-05
-8.31475e-13
0.0167931
9.20956e-05
-1.55454e-12
0.0167131
0.000398587
-6.62878e-12
0.0165932
0.00110476
-1.69985e-11
0.0159604
0.00632152
-4.87378e-11
0.0147165
0.00825
5.10088e-12
0.0136023
0.00797392
-4.50432e-13
0.0125036
0.00830906
-5.37413e-12
0.0113595
0.00888082
-5.54025e-12
0.0101083
0.0097481
-5.69707e-12
0.00865988
0.0108122
-5.91583e-12
0.00699388
0.01196
-6.20339e-12
0.00505122
0.0132124
-6.38524e-12
0.00274374
0.0145384
-6.58442e-12
0.0157048
-6.65508e-12
0.0168001
1.13429e-09
1.63137e-16
0.0168001
6.30319e-09
-3.47478e-17
0.0168001
2.33529e-08
-3.94429e-16
0.0168001
5.99076e-08
-8.51047e-16
0.0168
1.64556e-07
-2.37791e-15
0.0168
3.72397e-07
-4.59742e-15
0.0168
1.00422e-06
-1.51257e-14
0.0168
2.03002e-06
-1.80924e-14
0.0167992
6.76835e-06
-1.28123e-13
0.0168006
1.07474e-05
-6.07821e-14
0.0167912
5.05629e-05
-1.0673e-12
0.0167902
9.31804e-05
-1.18002e-12
0.0167491
0.000437335
-7.09447e-12
0.0166758
0.00117535
-1.67808e-11
0.0164797
0.00649831
-5.05628e-11
0.0151396
0.00959216
4.12434e-12
0.01395
0.00916466
-2.39246e-13
0.0128525
0.00940577
-5.08684e-12
0.0117553
0.00997666
-5.3019e-12
0.0105619
0.0109398
-5.57282e-12
0.00920685
0.0121658
-5.88575e-12
0.00760668
0.0135592
-6.38199e-12
0.00568251
0.0151356
-6.66973e-12
0.00325524
0.0169644
-6.78988e-12
0.018958
-6.68855e-12
0.0168001
1.57776e-09
1.62097e-16
0.0168001
7.37862e-09
1.43445e-17
0.0168001
2.8603e-08
-4.91483e-16
0.0168
7.10702e-08
-1.06473e-15
0.0168
2.00699e-07
-3.06888e-15
0.0167999
4.49206e-07
-6.31256e-15
0.0167997
1.20761e-06
-1.81981e-14
0.0167991
2.58415e-06
-3.64793e-14
0.0167984
7.38759e-06
-1.16427e-13
0.0167952
1.4002e-05
-1.80298e-13
0.0167939
5.12531e-05
-8.68978e-13
0.0167926
9.42615e-05
-1.32579e-12
0.0167959
0.000431678
-6.36309e-12
0.0168398
0.0011291
-1.57986e-11
0.017401
0.00591744
-5.0346e-11
0.0159447
0.0110482
-1.94496e-12
0.0145473
0.0105624
-2.11955e-12
0.0134318
0.010521
-4.69517e-12
0.0123793
0.0110289
-4.9852e-12
0.0112419
0.0120757
-5.44965e-12
0.0099559
0.0134499
-5.93665e-12
0.00850793
0.0150049
-6.42192e-12
0.00673574
0.0169057
-6.64167e-12
0.00421401
0.0194843
-6.9277e-12
0.0231701
-6.73062e-12
0.0168001
1.63402e-16
2.79845e-09
0.0168001
-2.98012e-17
3.32374e-09
0.0168
-3.95011e-16
3.94659e-08
0.0168001
-8.5775e-16
4.02832e-08
0.0168
-2.4234e-15
2.71966e-07
0.0168002
-4.99109e-15
2.64686e-07
0.0167997
-1.40054e-14
1.65274e-06
0.0168008
-2.80077e-14
1.47193e-06
0.0167977
-8.91602e-14
1.04335e-05
0.0168052
-1.21108e-13
6.47349e-06
0.0167819
-6.78517e-13
7.41618e-05
0.0168428
-8.41762e-13
3.32064e-05
0.0167503
-4.69368e-12
0.000522426
0.0171406
-1.12719e-11
0.000735999
0.0188668
-3.00768e-11
0.00418135
0.0173028
-2.19012e-11
0.0126042
0.0154099
-9.55034e-12
0.0124521
0.0143424
-3.1943e-12
0.0115881
0.0132003
-4.89116e-12
0.0121703
0.0121632
-5.74197e-12
0.0131119
0.0110488
-6.57741e-12
0.0145634
0.00982144
-6.90405e-12
0.0162309
0.00820329
-7.31754e-12
0.0185221
0.00581267
-7.59483e-12
0.0218729
-6.95571e-12
0.0289808
0.0168001
1.86407e-10
-3.52611e-17
0.0168001
1.01498e-09
-1.54143e-16
0.0168
3.77646e-09
-4.92985e-16
0.0168
9.70326e-09
-1.04692e-15
0.0168
2.66798e-08
-2.90531e-15
0.0167999
6.11261e-08
-5.90644e-15
0.0167998
1.58889e-07
-1.64099e-14
0.0167994
3.58366e-07
-3.36721e-14
0.0167984
9.29806e-07
-9.40695e-14
0.0167963
2.12397e-06
-1.98124e-13
0.0167898
5.76989e-06
-5.21085e-13
0.0167739
1.55975e-05
-1.68734e-12
0.0167185
5.35646e-05
-3.06064e-12
0.0165428
0.000170717
-1.44356e-11
0.0155189
0.00100946
-3.13555e-11
0.0143773
0.00114181
1.49919e-12
0.0132074
0.00116987
-3.45228e-13
0.0119593
0.00124696
-2.53671e-12
0.0106238
0.00133411
-2.95507e-12
0.00918308
0.00143913
-3.57226e-12
0.00761672
0.00156518
-4.25368e-12
0.00591659
0.00169946
-4.67817e-12
0.00408949
0.0018264
-5.05536e-12
0.00212866
0.00195982
-5.27135e-12
0.00212729
-5.41085e-12
0.0168001
3.80709e-10
-3.55042e-17
0.0168001
2.07281e-09
-1.55365e-16
0.0168
7.7116e-09
-4.96817e-16
0.0168
1.97734e-08
-1.05522e-15
0.0168
5.44521e-08
-2.9272e-15
0.0167999
1.24528e-07
-5.95326e-15
0.0167998
3.2458e-07
-1.6508e-14
0.0167994
7.28691e-07
-3.38888e-14
0.0167983
1.90702e-06
-9.40149e-14
0.0167961
4.30938e-06
-1.99447e-13
0.0167893
1.19039e-05
-5.24791e-13
0.0167731
3.15899e-05
-1.56881e-12
0.0167142
0.000110149
-3.38559e-12
0.0165333
0.000347214
-1.31623e-11
0.0154948
0.00203312
-3.17303e-11
0.0143399
0.00229696
1.56532e-12
0.013183
0.00232676
-3.2289e-13
0.011948
0.00248086
-2.58634e-12
0.0106199
0.00266094
-2.98582e-12
0.00916663
0.00289082
-3.59719e-12
0.00758086
0.00314977
-4.31137e-12
0.00586027
0.00341931
-4.75152e-12
0.00401018
0.00367575
-5.13574e-12
0.00203995
0.00392902
-5.34367e-12
0.00416582
-5.47487e-12
0.0168001
5.82703e-10
-3.62691e-17
0.0168001
3.17451e-09
-1.58404e-16
0.0168
1.18096e-08
-5.06704e-16
0.0168
3.0292e-08
-1.07632e-15
0.0168
8.339e-08
-2.98446e-15
0.0167999
1.90742e-07
-6.07262e-15
0.0167997
4.9694e-07
-1.6815e-14
0.0167994
1.11485e-06
-3.45804e-14
0.0167982
2.91884e-06
-9.54232e-14
0.016796
6.56773e-06
-2.0363e-13
0.016789
1.81811e-05
-5.29618e-13
0.0167728
4.76674e-05
-1.57959e-12
0.0167137
0.00016685
-3.40865e-12
0.0165363
0.00052029
-1.31146e-11
0.0155114
0.00304287
-3.22865e-11
0.0143466
0.00346214
1.94304e-12
0.0131977
0.00347562
-3.03531e-13
0.0119756
0.00370171
-2.70495e-12
0.0106608
0.00397448
-3.08897e-12
0.00921071
0.00433948
-3.72186e-12
0.00762244
0.00473683
-4.44266e-12
0.00589511
0.00514593
-4.91252e-12
0.00402458
0.00554542
-5.28759e-12
0.00204192
0.00591047
-5.44578e-12
0.00620617
-5.59882e-12
0.0168001
8.02266e-10
-3.74677e-17
0.0168001
4.36451e-09
-1.63629e-16
0.0168
1.62405e-08
-5.22409e-16
0.0168
4.16956e-08
-1.10935e-15
0.0168
1.14791e-07
-3.06946e-15
0.0167999
2.63225e-07
-6.23848e-15
0.0167997
6.83254e-07
-1.7241e-14
0.0167993
1.54956e-06
-3.52808e-14
0.0167981
3.96791e-06
-9.76816e-14
0.0167956
9.10906e-06
-2.06244e-13
0.0167886
2.44491e-05
-5.40964e-13
0.0167725
6.35953e-05
-1.58164e-12
0.0167149
0.000222125
-3.47642e-12
0.0165472
0.000683779
-1.31826e-11
0.0155581
0.00401627
-3.327e-11
0.0143904
0.00463037
2.59989e-12
0.0132526
0.00461342
-2.2224e-13
0.0120516
0.00490161
-2.9157e-12
0.0107554
0.00526954
-3.28206e-12
0.00933445
0.00575875
-3.97832e-12
0.00775144
0.00631881
-4.59878e-12
0.00602128
0.00687492
-5.06873e-12
0.00413912
0.00742664
-5.52239e-12
0.00210456
0.00794477
-5.72008e-12
0.00830916
-5.82815e-12
0.0168001
1.03751e-09
-4.20543e-17
0.0168001
5.5816e-09
-1.81247e-16
0.0168
2.08158e-08
-5.85564e-16
0.0168
5.32611e-08
-1.25304e-15
0.0168
1.47489e-07
-3.49013e-15
0.0167999
3.39638e-07
-7.2558e-15
0.0167997
8.75476e-07
-1.93138e-14
0.0167992
2.05356e-06
-4.49748e-14
0.0167981
4.90317e-06
-9.4346e-14
0.0167951
1.21365e-05
-2.81271e-13
0.0167886
3.02636e-05
-4.69446e-13
0.0167723
7.96067e-05
-1.65938e-12
0.0167217
0.00027034
-3.47138e-12
0.016562
0.000839376
-1.33463e-11
0.0156455
0.00491632
-3.46846e-11
0.0144706
0.00580621
3.30542e-12
0.0133419
0.00574229
-2.10117e-13
0.0121674
0.00607493