/*--------------------------------*- C++ -*----------------------------------*\
| =========                 |                                                 |
| \\      /  F ield         | OpenFOAM: The Open Source CFD Toolbox           |
|  \\    /   O peration     | Version:  4.1                                   |
|   \\  /    A nd           | Web:      www.OpenFOAM.org                      |
|    \\/     M anipulation  |                                                 |
\*---------------------------------------------------------------------------*/
FoamFile
{
    version     2.0;
    format      ascii;
    class       volScalarField;
    location    "0.88";
    object      Ma;
}
// * * * * * * * * * * * * * * * * * * * * * * * * * * * * * * * * * * * * * //

dimensions      [0 0 0 0 0 0 0];

internalField   nonuniform List<scalar> 
52500
(
9.0739
1.35105
0.389649
0.346472
0.404725
0.446229
0.446807
0.437206
0.439644
0.448471
0.456923
0.457563
0.465127
0.481554
0.479955
0.467588
0.447567
0.419134
0.394346
0.365613
0.325406
0.267352
0.191371
0.0847063
0.0298593
9.10477
1.36009
0.397505
0.347217
0.402457
0.445128
0.446624
0.437434
0.439877
0.448692
0.457219
0.457954
0.465814
0.482609
0.481459
0.469872
0.450771
0.422805
0.398103
0.369343
0.329356
0.271771
0.196468
0.0944433
0.0517466
8.80016
1.37383
0.410178
0.346952
0.399084
0.444902
0.448463
0.440352
0.44328
0.452572
0.461621
0.462349
0.469765
0.486809
0.4861
0.475312
0.457556
0.430326
0.406008
0.37766
0.338647
0.282768
0.210258
0.118363
0.0876632
8.2884
1.39832
0.42902
0.34358
0.395839
0.445411
0.451537
0.444794
0.448398
0.45835
0.468104
0.468703
0.474971
0.492508
0.492524
0.483051
0.467169
0.441178
0.417455
0.389888
0.35233
0.299016
0.23044
0.148933
0.125321
7.85294
1.44175
0.459022
0.337308
0.39439
0.448376
0.456357
0.45093
0.455329
0.466111
0.476598
0.476948
0.481645
0.499528
0.500901
0.493001
0.479232
0.455057
0.431979
0.405639
0.370098
0.32026
0.256811
0.185287
0.166678
7.26839
1.50343
0.49704
0.326281
0.394414
0.453859
0.463451
0.459088
0.464232
0.475791
0.486779
0.487023
0.489674
0.507353
0.511073
0.504843
0.493321
0.471607
0.449455
0.425007
0.392268
0.346827
0.289922
0.228107
0.214288
6.70324
1.59542
0.545662
0.313209
0.39672
0.462911
0.473625
0.469615
0.47504
0.487053
0.498178
0.498451
0.499203
0.516014
0.522744
0.518326
0.509281
0.490724
0.469885
0.44802
0.418745
0.378983
0.33033
0.278813
0.27161
6.19354
1.72641
0.606483
0.304048
0.402663
0.476686
0.487465
0.482523
0.487562
0.499537
0.510401
0.510931
0.509976
0.525287
0.535598
0.533274
0.526869
0.512115
0.49316
0.474429
0.449865
0.417272
0.379332
0.339881
0.344812
5.68643
1.89024
0.679767
0.308838
0.415344
0.4959
0.504791
0.4973
0.501321
0.512814
0.523184
0.524338
0.521853
0.535049
0.549206
0.549494
0.545998
0.535818
0.518947
0.503813
0.48568
0.462417
0.437806
0.414757
0.442964
5.21397
2.09225
0.770314
0.329848
0.43526
0.516945
0.522117
0.512276
0.515468
0.526426
0.536299
0.538376
0.53461
0.545322
0.563101
0.566856
0.566608
0.560796
0.546739
0.535843
0.525524
0.513663
0.50756
0.517147
0.610243
9.07742
1.35116
0.389663
0.346447
0.404689
0.446181
0.446751
0.437133
0.43954
0.448331
0.456768
0.457408
0.464995
0.481423
0.479846
0.467514
0.44752
0.419105
0.39432
0.365589
0.325373
0.267302
0.191283
0.0844177
0.0289931
9.1036
1.36012
0.397457
0.347184
0.402438
0.445127
0.44664
0.437468
0.439932
0.448777
0.457362
0.458124
0.465902
0.48274
0.481622
0.47001
0.450879
0.422867
0.398126
0.369343
0.329335
0.271727
0.196383
0.094186
0.0512572
8.80038
1.37389
0.410148
0.346915
0.399052
0.444889
0.448468
0.440374
0.443323
0.452634
0.461724
0.462456
0.469766
0.486847
0.48617
0.475371
0.457599
0.430343
0.406
0.377643
0.338621
0.282721
0.210179
0.118162
0.0873812
8.29114
1.39843
0.42903
0.343558
0.395803
0.445379
0.451515
0.444779
0.448388
0.458342
0.468109
0.468691
0.474873
0.492428
0.492465
0.482976
0.467075
0.441097
0.417389
0.389838
0.352288
0.298962
0.230363
0.148775
0.125128
7.85348
1.44181
0.459013
0.33728
0.394347
0.44833
0.45631
0.450882
0.45528
0.466049
0.476526
0.476849
0.481554
0.499431
0.500761
0.492842
0.479056
0.454872
0.431836
0.405538
0.370028
0.320194
0.256736
0.18516
0.16653
7.26935
1.50351
0.497044
0.326257
0.394369
0.45381
0.463397
0.459029
0.46416
0.475692
0.486657
0.486861
0.489531
0.507224
0.510881
0.504629
0.493099
0.471381
0.449273
0.424871
0.392173
0.346747
0.289844
0.227997
0.214165
6.70341
1.59549
0.545663
0.313181
0.396674
0.462862
0.47357
0.469553
0.47496
0.486947
0.49805
0.49827
0.499055
0.515917
0.522534
0.518081
0.50901
0.490431
0.469669
0.447871
0.418645
0.378899
0.330253
0.278715
0.271505
6.19378
1.72649
0.606497
0.304022
0.40262
0.476641
0.487415
0.482464
0.487485
0.499439
0.510287
0.510748
0.509854
0.525272
0.535414
0.533027
0.526585
0.511781
0.492921
0.474273
0.449765
0.41719
0.37926
0.339792
0.344722
5.68657
1.89034
0.679792
0.308821
0.415308
0.495864
0.504749
0.497246
0.501251
0.51273
0.523089
0.524169
0.521752
0.535083
0.549074
0.549273
0.545738
0.5355
0.518717
0.50366
0.485577
0.462342
0.437736
0.414678
0.442886
5.21386
2.09238
0.770347
0.32984
0.435232
0.516918
0.522084
0.512227
0.51541
0.526358
0.536226
0.538246
0.534538
0.545374
0.563025
0.566679
0.566387
0.560536
0.546537
0.535701
0.52543
0.513595
0.507488
0.517077
0.610179
9.07501
1.35116
0.389672
0.346433
0.40467
0.446179
0.446756
0.437143
0.439561
0.448361
0.456766
0.457386
0.464995
0.481374
0.47974
0.467375
0.447361
0.418985
0.394242
0.365536
0.325337
0.267272
0.191242
0.0843912
0.0289866
9.10485
1.36018
0.397516
0.347175
0.402406
0.445091
0.446593
0.437401
0.43984
0.44865
0.45716
0.45789
0.465764
0.48253
0.481355
0.469757
0.45065
0.422715
0.398037
0.369288
0.329299
0.271696
0.196343
0.0941594
0.051248
8.80008
1.37393
0.410191
0.346906
0.399032
0.444864
0.448434
0.440325
0.443255
0.452548
0.461594
0.462323
0.469732
0.486757
0.486036
0.475239
0.457477
0.430261
0.405954
0.37761
0.338594
0.282698
0.210144
0.118137
0.0873686
8.28929
1.39845
0.429056
0.343536
0.395789
0.445373
0.451507
0.444766
0.44837
0.458326
0.468085
0.46868
0.474911
0.492448
0.492465
0.482986
0.467098
0.441127
0.417419
0.389853
0.352289
0.298954
0.230338
0.148753
0.125112
7.85301
1.44188
0.459057
0.337257
0.394342
0.448338
0.456325
0.450898
0.4553
0.466087
0.476581
0.476927
0.481619
0.499499
0.500857
0.492954
0.479178
0.455005
0.431939
0.405603
0.370058
0.320204
0.256721
0.185141
0.166515
7.26865
1.5036
0.49709
0.32623
0.394367
0.453823
0.46342
0.459058
0.464201
0.475759
0.48675
0.486996
0.489617
0.507286
0.51103
0.504803
0.493283
0.471576
0.449414
0.424968
0.392224
0.346771
0.28984
0.227984
0.214155
6.70316
1.59562
0.545721
0.313156
0.396675
0.46288
0.473597
0.469586
0.475006
0.487018
0.498145
0.498426
0.499143
0.515928
0.522693
0.518282
0.509239
0.49069
0.469847
0.447982
0.418701
0.37893
0.330258
0.278709
0.271501
6.19348
1.72665
0.606559
0.304003
0.402623
0.476661
0.487442
0.482495
0.487527
0.499499
0.510366
0.510895
0.509928
0.525237
0.535548
0.533224
0.526816
0.512053
0.493109
0.474387
0.449824
0.417223
0.379269
0.339794
0.344724
5.68634
1.89052
0.679864
0.308814
0.415314
0.495884
0.504773
0.497272
0.501285
0.512774
0.523145
0.524284
0.521801
0.535027
0.549166
0.549443
0.545942
0.535747
0.518889
0.503767
0.485638
0.462372
0.43775
0.414686
0.442893
5.21372
2.0926
0.770434
0.329837
0.435239
0.516932
0.522101
0.512247
0.515432
0.526385
0.536256
0.538314
0.534558
0.545323
0.563078
0.566807
0.566552
0.560729
0.546679
0.535793
0.525484
0.513622
0.50751
0.51709
0.610191
9.07532
1.35121
0.389708
0.346439
0.404661
0.446173
0.446751
0.437135
0.439549
0.448343
0.456743
0.457359
0.464966
0.481342
0.479711
0.467351
0.447342
0.418978
0.394245
0.365547
0.325351
0.267284
0.191253
0.0843947
0.0289851
9.10485
1.36022
0.397548
0.34718
0.402398
0.445086
0.44659
0.437399
0.439836
0.448643
0.457153
0.45788
0.465746
0.482513
0.481342
0.469746
0.450639
0.422713
0.398042
0.369299
0.329312
0.271707
0.196353
0.0941613
0.0512453
8.80021
1.37398
0.410225
0.346908
0.399025
0.444859
0.448431
0.440323
0.443252
0.452545
0.461593
0.46232
0.469721
0.486748
0.486028
0.475232
0.45747
0.430263
0.405963
0.377624
0.33861
0.282709
0.210153
0.118136
0.0873644
8.28934
1.39851
0.42909
0.343536
0.395785
0.445368
0.451503
0.444763
0.448366
0.458321
0.468079
0.468671
0.474883
0.49242
0.492444
0.482963
0.467076
0.441114
0.417412
0.389855
0.352295
0.29896
0.230343
0.148749
0.125105
7.85301
1.44195
0.459092
0.337256
0.394339
0.448333
0.45632
0.450893
0.455293
0.466074
0.476563
0.476902
0.481577
0.499453
0.500816
0.492912
0.479138
0.454966
0.431907
0.405587
0.370053
0.320203
0.256721
0.185134
0.166504
7.2686
1.50367
0.497125
0.326226
0.394364
0.45382
0.463415
0.45905
0.464189
0.47574
0.486722
0.48695
0.489575
0.507249
0.510967
0.504735
0.493222
0.47152
0.449377
0.424943
0.392211
0.346765
0.289836
0.227974
0.214142
6.70304
1.5957
0.545757
0.313152
0.396674
0.462879
0.473593
0.469578
0.474992
0.486993
0.498112
0.498364
0.499103
0.51592
0.522622
0.518198
0.50915
0.490596
0.469794
0.447956
0.418691
0.378923
0.330251
0.278697
0.271486
6.19333
1.72674
0.606596
0.304002
0.402625
0.476663
0.487441
0.482489
0.487514
0.499477
0.510334
0.510831
0.509893
0.525249
0.535487
0.533141
0.526728
0.511955
0.493053
0.47436
0.449816
0.417219
0.379263
0.339781
0.344709
5.68617
1.89062
0.679905
0.308821
0.415321
0.495891
0.504776
0.49727
0.501276
0.512757
0.52312
0.524235
0.521776
0.535037
0.54912
0.549374
0.545873
0.535672
0.518846
0.503746
0.485631
0.46237
0.437745
0.414674
0.442879
5.21352
2.09273
0.770481
0.329843
0.435247
0.516939
0.522106
0.512247
0.515428
0.526375
0.536241
0.538288
0.534544
0.545318
0.563042
0.566761
0.566509
0.560689
0.546659
0.535785
0.525483
0.513623
0.507506
0.51708
0.610178
9.07338
1.35126
0.389769
0.346425
0.404621
0.446151
0.446742
0.437133
0.439553
0.448354
0.45676
0.457373
0.464974
0.481351
0.479721
0.467363
0.447359
0.418995
0.39426
0.365558
0.325358
0.267285
0.19125
0.0843895
0.0289765
9.10311
1.36028
0.397613
0.347165
0.40236
0.445066
0.44658
0.437394
0.439836
0.448651
0.457164
0.457889
0.46575
0.482516
0.481345
0.469751
0.45065
0.422725
0.398053
0.369308
0.329319
0.271709
0.196352
0.0941591
0.051241
8.79865
1.37405
0.410289
0.346887
0.398993
0.44484
0.448421
0.440318
0.443254
0.452552
0.461602
0.462325
0.469723
0.486748
0.486027
0.475235
0.457479
0.430275
0.405974
0.377632
0.338614
0.28271
0.21015
0.118134
0.0873619
8.28733
1.39858
0.429148
0.343501
0.395759
0.445352
0.451493
0.44476
0.448371
0.458331
0.468089
0.468677
0.474898
0.492431
0.492446
0.482968
0.467084
0.441122
0.41742
0.38986
0.352297
0.298959
0.230337
0.148745
0.125104
7.85173
1.44205
0.459158
0.337212
0.39432
0.448327
0.456315
0.450895
0.455299
0.466084
0.476573
0.476911
0.48156
0.499433
0.500814
0.492914
0.479146
0.45498
0.431917
0.405591
0.370052
0.320198
0.256713
0.18513
0.166506
7.26725
1.50379
0.497191
0.326172
0.39435
0.453819
0.463416
0.459056
0.464199
0.475754
0.486738
0.486963
0.489585
0.507254
0.510969
0.504736
0.493227
0.471529
0.449385
0.424946
0.392208
0.34676
0.289828
0.227971
0.214145
6.70224
1.59587
0.545831
0.313096
0.396664
0.462884
0.473599
0.469586
0.475006
0.487011
0.498128
0.498369
0.499119
0.515949
0.52263
0.518202
0.509156
0.4906
0.469798
0.447955
0.418687
0.378917
0.330242
0.278696
0.271489
6.1926
1.72695
0.606672
0.303954
0.40262
0.476674
0.487452
0.4825
0.48753
0.499495
0.51035
0.510841
0.509901
0.525259
0.535495
0.533148
0.526736
0.511964
0.49306
0.47436
0.449812
0.417213
0.379255
0.339781
0.34471
5.68561
1.89086
0.679993
0.308791
0.415321
0.495904
0.504787
0.497281
0.501292
0.512776
0.523138
0.524259
0.521793
0.535034
0.549126
0.549384
0.545885
0.535686
0.518857
0.503749
0.485629
0.462366
0.43774
0.414674
0.442878
5.21305
2.09301
0.770584
0.32981
0.435245
0.516943
0.522111
0.512258
0.515442
0.526392
0.536262
0.538322
0.534567
0.5453
0.563037
0.566773
0.566525
0.560707
0.546674
0.535793
0.525485
0.51362
0.507505
0.51708
0.610176
9.07401
1.35126
0.389766
0.346432
0.40463
0.446156
0.446744
0.437132
0.439548
0.448344
0.456745
0.457357
0.464964
0.481338
0.479705
0.467346
0.447339
0.418977
0.394247
0.36555
0.325353
0.267281
0.191249
0.0843893
0.0289802
9.10361
1.36028
0.397608
0.347172
0.402369
0.445072
0.446584
0.437396
0.439836
0.448647
0.457157
0.457882
0.465747
0.482511
0.481338
0.469742
0.450637
0.422713
0.398043
0.369301
0.329314
0.271704
0.196347
0.0941548
0.0512411
8.79906
1.37404
0.410283
0.346894
0.399001
0.444846
0.448425
0.440321
0.443254
0.45255
0.461598
0.462321
0.469721
0.486745
0.486023
0.475229
0.457469
0.430265
0.405965
0.377625
0.338609
0.282704
0.210146
0.118129
0.0873596
8.28796
1.39859
0.429144
0.343512
0.395766
0.445357
0.451497
0.444762
0.44837
0.458329
0.468085
0.468673
0.474894
0.492428
0.492442
0.482963
0.467075
0.441113
0.417412
0.389854
0.352293
0.298955
0.230334
0.148739
0.125099
7.85209
1.44204
0.45915
0.337225
0.394326
0.448329
0.456318
0.450896
0.455298
0.466081
0.476568
0.476906
0.481557
0.499431
0.500809
0.492908
0.479138
0.454972
0.43191
0.405586
0.37005
0.320196
0.256711
0.185124
0.1665
7.26766
1.50378
0.497182
0.326187
0.394354
0.45382
0.463417
0.459055
0.464197
0.47575
0.486733
0.486958
0.489581
0.507251
0.510963
0.50473
0.49322
0.47152
0.449378
0.424941
0.392206
0.346758
0.289826
0.227965
0.214138
6.70247
1.59585
0.545819
0.313112
0.396668
0.462884
0.473599
0.469585
0.475003
0.487006
0.498123
0.498363
0.499116
0.515947
0.522624
0.518195
0.509149
0.490592
0.469792
0.447951
0.418685
0.378916
0.330242
0.27869
0.271482
6.19282
1.72691
0.606658
0.303967
0.402622
0.476673
0.487451
0.482498
0.487527
0.499491
0.510345
0.510835
0.509897
0.525258
0.53549
0.53314
0.526729
0.511956
0.493053
0.474356
0.44981
0.417212
0.379254
0.339776
0.344705
5.68579
1.89081
0.679976
0.3088
0.415322
0.495902
0.504786
0.49728
0.501289
0.512772
0.523134
0.524254
0.52179
0.535034
0.549121
0.549377
0.545877
0.535679
0.51885
0.503745
0.485627
0.462365
0.437739
0.414669
0.442874
5.2132
2.09295
0.770561
0.329819
0.435247
0.516944
0.522111
0.512256
0.515439
0.526389
0.536258
0.538317
0.534564
0.545299
0.563034
0.566767
0.566518
0.5607
0.546668
0.535787
0.525482
0.513619
0.507502
0.517077
0.610174
9.07533
1.35121
0.389708
0.346439
0.404661
0.446173
0.446751
0.437135
0.439549
0.448343
0.456743
0.457359
0.464966
0.481342
0.479711
0.467351
0.447342
0.418978
0.394245
0.365548
0.325352
0.267284
0.191254
0.0843948
0.0289851
9.10486
1.36022
0.397548
0.34718
0.402398
0.445087
0.446591
0.437399
0.439836
0.448643
0.457153
0.45788
0.465746
0.482513
0.481342
0.469745
0.450639
0.422713
0.398042
0.369299
0.329312
0.271707
0.196354
0.0941614
0.0512453
8.80022
1.37398
0.410225
0.346908
0.399025
0.44486
0.448431
0.440323
0.443252
0.452545
0.461593
0.46232
0.469721
0.486747
0.486027
0.475232
0.45747
0.430263
0.405963
0.377624
0.33861
0.282709
0.210153
0.118136
0.0873644
8.28935
1.39851
0.42909
0.343536
0.395785
0.445368
0.451503
0.444763
0.448366
0.458321
0.468078
0.468671
0.474883
0.49242
0.492443
0.482963
0.467076
0.441114
0.417412
0.389855
0.352295
0.29896
0.230343
0.148749
0.125105
7.85301
1.44195
0.459092
0.337256
0.394339
0.448333
0.45632
0.450893
0.455293
0.466074
0.476563
0.476902
0.481576
0.499453
0.500816
0.492912
0.479138
0.454966
0.431907
0.405587
0.370053
0.320203
0.256721
0.185134
0.166504
7.26861
1.50367
0.497125
0.326226
0.394364
0.45382
0.463415
0.45905
0.464189
0.47574
0.486722
0.48695
0.489575
0.507249
0.510967
0.504734
0.493221
0.47152
0.449377
0.424943
0.392211
0.346765
0.289836
0.227974
0.214142
6.70304
1.5957
0.545757
0.313152
0.396674
0.462879
0.473593
0.469578
0.474992
0.486993
0.498111
0.498363
0.499103
0.515919
0.522622
0.518197
0.50915
0.490596
0.469794
0.447956
0.418691
0.378923
0.330251
0.278697
0.271486
6.19333
1.72674
0.606596
0.304002
0.402625
0.476663
0.487441
0.482489
0.487514
0.499477
0.510334
0.510831
0.509893
0.525248
0.535487
0.533141
0.526728
0.511955
0.493053
0.47436
0.449816
0.417219
0.379263
0.339781
0.344709
5.68617
1.89062
0.679905
0.308821
0.415321
0.495891
0.504776
0.49727
0.501276
0.512757
0.52312
0.524235
0.521776
0.535037
0.54912
0.549374
0.545873
0.535672
0.518846
0.503746
0.485631
0.46237
0.437745
0.414674
0.442879
5.21352
2.09273
0.770481
0.329843
0.435247
0.516939
0.522106
0.512247
0.515428
0.526375
0.536241
0.538288
0.534544
0.545318
0.563042
0.566761
0.566509
0.560689
0.546659
0.535785
0.525483
0.513623
0.507506
0.51708
0.610178
9.07502
1.35116
0.389672
0.346433
0.40467
0.446179
0.446757
0.437143
0.439561
0.448361
0.456766
0.457386
0.464995
0.481374
0.47974
0.467375
0.447361
0.418985
0.394242
0.365536
0.325337
0.267272
0.191242
0.0843912
0.0289866
9.10485
1.36018
0.397516
0.347175
0.402406
0.445091
0.446593
0.437401
0.43984
0.44865
0.45716
0.45789
0.465764
0.48253
0.481355
0.469757
0.45065
0.422715
0.398037
0.369288
0.329299
0.271696
0.196343
0.0941594
0.051248
8.80008
1.37393
0.410191
0.346906
0.399032
0.444864
0.448434
0.440325
0.443255
0.452548
0.461594
0.462323
0.469732
0.486757
0.486036
0.475239
0.457477
0.430261
0.405954
0.37761
0.338594
0.282698
0.210144
0.118137
0.0873687
8.28929
1.39845
0.429056
0.343536
0.395789
0.445373
0.451507
0.444766
0.44837
0.458326
0.468085
0.46868
0.474911
0.492448
0.492465
0.482986
0.467098
0.441127
0.417419
0.389853
0.352289
0.298954
0.230338
0.148753
0.125112
7.85301
1.44188
0.459057
0.337258
0.394342
0.448338
0.456325
0.450898
0.4553
0.466087
0.476581
0.476927
0.481619
0.499499
0.500857
0.492954
0.479178
0.455005
0.431939
0.405603
0.370058
0.320204
0.256721
0.185141
0.166515
7.26865
1.5036
0.49709
0.32623
0.394367
0.453823
0.46342
0.459058
0.464201
0.475759
0.48675
0.486996
0.489617
0.507286
0.51103
0.504803
0.493283
0.471576
0.449414
0.424968
0.392224
0.346771
0.28984
0.227984
0.214155
6.70316
1.59562
0.545721
0.313156
0.396675
0.46288
0.473597
0.469586
0.475006
0.487018
0.498145
0.498426
0.499143
0.515928
0.522693
0.518282
0.509239
0.49069
0.469847
0.447982
0.418701
0.37893
0.330258
0.278709
0.271501
6.19348
1.72665
0.606559
0.304003
0.402623
0.476661
0.487442
0.482495
0.487527
0.499499
0.510366
0.510895
0.509928
0.525237
0.535548
0.533224
0.526816
0.512053
0.493109
0.474387
0.449824
0.417223
0.379269
0.339794
0.344724
5.68634
1.89053
0.679865
0.308814
0.415314
0.495884
0.504773
0.497272
0.501285
0.512774
0.523145
0.524284
0.521801
0.535027
0.549166
0.549443
0.545942
0.535747
0.518889
0.503767
0.485638
0.462372
0.43775
0.414686
0.442893
5.21372
2.0926
0.770434
0.329837
0.435239
0.516932
0.522101
0.512247
0.515432
0.526385
0.536256
0.538314
0.534558
0.545323
0.563078
0.566807
0.566552
0.560729
0.546679
0.535793
0.525484
0.513622
0.50751
0.51709
0.610191
9.07743
1.35116
0.389664
0.346447
0.404689
0.446181
0.446751
0.437133
0.43954
0.448331
0.456769
0.457408
0.464995
0.481424
0.479846
0.467514
0.44752
0.419105
0.39432
0.365589
0.325373
0.267302
0.191283
0.0844175
0.0289931
9.10361
1.36012
0.397457
0.347184
0.402438
0.445127
0.44664
0.437468
0.439932
0.448777
0.457363
0.458125
0.465903
0.48274
0.481623
0.47001
0.450879
0.422867
0.398125
0.369343
0.329335
0.271726
0.196383
0.0941859
0.0512572
8.80039
1.37389
0.410148
0.346916
0.399052
0.444889
0.448468
0.440374
0.443323
0.452634
0.461725
0.462456
0.469766
0.486847
0.48617
0.475371
0.457599
0.430343
0.406
0.377643
0.33862
0.282721
0.210178
0.118161
0.0873812
8.29115
1.39843
0.429031
0.343558
0.395803
0.445379
0.451515
0.444779
0.448388
0.458342
0.468109
0.468691
0.474873
0.492428
0.492465
0.482976
0.467076
0.441097
0.417389
0.389838
0.352287
0.298962
0.230363
0.148775
0.125128
7.85349
1.44181
0.459013
0.337281
0.394347
0.44833
0.45631
0.450882
0.45528
0.466049
0.476526
0.476849
0.481554
0.499431
0.500761
0.492842
0.479056
0.454872
0.431836
0.405538
0.370028
0.320193
0.256735
0.18516
0.16653
7.26935
1.50352
0.497044
0.326258
0.394369
0.45381
0.463397
0.459029
0.46416
0.475692
0.486658
0.486861
0.489531
0.507224
0.510881
0.504629
0.493099
0.471381
0.449273
0.424871
0.392173
0.346747
0.289844
0.227997
0.214165
6.70341
1.59549
0.545664
0.313182
0.396674
0.462863
0.473571
0.469553
0.47496
0.486947
0.49805
0.49827
0.499056
0.515917
0.522534
0.518082
0.50901
0.490431
0.469669
0.447871
0.418645
0.378898
0.330253
0.278715
0.271505
6.19378
1.72649
0.606497
0.304023
0.40262
0.476641
0.487415
0.482464
0.487485
0.499439
0.510288
0.510748
0.509854
0.525272
0.535415
0.533028
0.526585
0.511781
0.492921
0.474273
0.449765
0.41719
0.37926
0.339792
0.344722
5.68656
1.89035
0.679793
0.308822
0.415308
0.495865
0.504749
0.497246
0.501251
0.51273
0.523089
0.524169
0.521753
0.535083
0.549075
0.549273
0.545738
0.5355
0.518717
0.50366
0.485577
0.462342
0.437736
0.414678
0.442886
5.21386
2.09238
0.770348
0.32984
0.435232
0.516919
0.522084
0.512227
0.51541
0.526358
0.536226
0.538246
0.534538
0.545374
0.563025
0.566679
0.566388
0.560536
0.546538
0.535701
0.52543
0.513595
0.507488
0.517077
0.610179
9.07617
1.35105
0.389622
0.346492
0.404755
0.446234
0.446793
0.437174
0.439586
0.44837
0.456762
0.457383
0.46502
0.481407
0.479786
0.467444
0.447448
0.419058
0.394302
0.365587
0.325382
0.267326
0.191337
0.0846515
0.0298419
9.10681
1.36008
0.397471
0.347237
0.402488
0.445142
0.446628
0.437436
0.439876
0.448687
0.457215
0.457968
0.465857
0.482654
0.48151
0.469931
0.450828
0.422853
0.398139
0.369367
0.329364
0.271769
0.196456
0.0944117
0.0517358
8.80121
1.37379
0.410133
0.346974
0.39911
0.444919
0.448479
0.440375
0.443319
0.452637
0.461738
0.462508
0.469897
0.48697
0.486283
0.475494
0.457723
0.430449
0.406088
0.37771
0.338671
0.28278
0.210259
0.118345
0.0876565
8.29008
1.39828
0.428983
0.343613
0.39586
0.445427
0.451556
0.44482
0.44844
0.458424
0.468231
0.468854
0.474986
0.492594
0.492691
0.483221
0.467316
0.441279
0.417515
0.38993
0.352351
0.29903
0.230445
0.148923
0.12532
7.85431
1.44169
0.458981
0.337349
0.394404
0.448381
0.456364
0.450944
0.455353
0.466152
0.476679
0.477046
0.481639
0.499556
0.501005
0.493101
0.479326
0.455119
0.431992
0.405646
0.370096
0.320266
0.256816
0.185284
0.166683
7.26955
1.50335
0.496996
0.32633
0.394424
0.453856
0.463446
0.459085
0.464229
0.475788
0.486795
0.487028
0.489664
0.507372
0.511082
0.504837
0.493316
0.471586
0.449434
0.42499
0.392255
0.346827
0.289927
0.228107
0.214298
6.70392
1.5953
0.545609
0.313258
0.396726
0.462901
0.473611
0.469599
0.475016
0.487017
0.498145
0.498378
0.499179
0.516076
0.5227
0.518254
0.509192
0.490611
0.469834
0.447997
0.418741
0.378985
0.330336
0.278815
0.271622
6.19401
1.72625
0.606424
0.304091
0.402668
0.476671
0.487446
0.4825
0.487529
0.49949
0.510348
0.510825
0.509948
0.525379
0.535548
0.533176
0.52675
0.511958
0.493083
0.4744
0.449867
0.417279
0.379341
0.339886
0.344824
5.6868
1.89006
0.6797
0.308867
0.415345
0.495886
0.504772
0.497277
0.501289
0.512769
0.523132
0.524246
0.521827
0.535112
0.549162
0.549403
0.545897
0.53569
0.518877
0.503782
0.485677
0.462428
0.437816
0.414763
0.442973
5.21422
2.09204
0.770236
0.329876
0.435262
0.516939
0.522104
0.512257
0.515442
0.52639
0.53626
0.538321
0.534597
0.545344
0.56306
0.566797
0.566547
0.560729
0.546699
0.535821
0.525524
0.513674
0.507569
0.517151
0.610247
4.69299
2.25952
0.835501
0.332535
0.445262
0.526892
0.533333
0.525196
0.529162
0.540056
0.549603
0.552599
0.547833
0.555936
0.577053
0.585352
0.588365
0.586155
0.575688
0.568943
0.567644
0.570521
0.590071
0.644525
0.807565
4.29043
2.34263
0.890334
0.349429
0.454027
0.530366
0.53981
0.53632
0.542506
0.55363
0.56293
0.566492
0.561575
0.567349
0.590794
0.60448
0.610786
0.612492
0.607482
0.604295
0.610509
0.626207
0.665107
0.742317
0.905858
3.95426
2.38433
0.959367
0.38943
0.465055
0.527925
0.54402
0.547544
0.55631
0.567341
0.576114
0.579913
0.57584
0.579646
0.604002
0.623337
0.632727
0.638016
0.638166
0.638065
0.650567
0.67504
0.724071
0.802729
0.939719
3.59512
2.45543
1.03081
0.439517
0.474448
0.518735
0.548915
0.561192
0.571233
0.581178
0.58919
0.593256
0.591205
0.593205
0.615681
0.641311
0.654611
0.663655
0.66854
0.670605
0.68653
0.715136
0.765899
0.839843
0.949758
3.44909
2.47743
1.12539
0.505174
0.477072
0.515404
0.560635
0.578752
0.587731
0.595534
0.602439
0.606765
0.606986
0.607491
0.626833
0.657415
0.675785
0.687995
0.695964
0.701384
0.717686
0.747428
0.794939
0.86554
0.95846
3.3112
2.49752
1.25104
0.585902
0.480591
0.52312
0.57817
0.598832
0.605425
0.610569
0.615872
0.620014
0.62219
0.62257
0.637937
0.671755
0.695589
0.710599
0.721541
0.730583
0.745299
0.774363
0.817909
0.881347
0.963472
3.17339
2.53693
1.41724
0.683112
0.498599
0.54481
0.602059
0.621102
0.623671
0.625558
0.629027
0.633034
0.637267
0.639021
0.650161
0.683784
0.713004
0.731323
0.745416
0.757352
0.769427
0.795893
0.835411
0.891161
0.963798
3.07145
2.61939
1.65035
0.786908
0.525485
0.57119
0.624111
0.641634
0.641678
0.640721
0.642117
0.646274
0.652422
0.656399
0.664374
0.693104
0.727221
0.749973
0.766635
0.780817
0.79373
0.815797
0.851471
0.898406
0.959893
3.02489
2.68199
1.86035
0.902631
0.546481
0.592276
0.63433
0.655023
0.657441
0.65481
0.655099
0.659998
0.667763
0.674031
0.67952
0.701923
0.739224
0.76628
0.785666
0.801503
0.816887
0.833206
0.864165
0.90398
0.953089
2.98353
2.69912
2.03114
1.03013
0.598115
0.60669
0.631283
0.664179
0.673573
0.669509
0.66904
0.674791
0.683893
0.691453
0.695114
0.710431
0.747241
0.779177
0.802427
0.82015
0.837641
0.852679
0.874884
0.908228
0.948641
2.92713
2.69907
2.15943
1.22218
0.690647
0.611707
0.637175
0.678196
0.690652
0.686228
0.685407
0.691503
0.700578
0.708079
0.711084
0.719521
0.751512
0.788314
0.816073
0.836295
0.85393
0.870187
0.884285
0.911118
0.946447
2.8535
2.6904
2.28126
1.46954
0.80185
0.632674
0.661172
0.695944
0.70849
0.705315
0.704183
0.709287
0.716826
0.723771
0.726764
0.730079
0.753884
0.793622
0.826353
0.849933
0.868139
0.885762
0.899
0.915637
0.944814
2.786
2.70614
2.43687
1.76795
0.921354
0.67412
0.693395
0.710041
0.724465
0.726038
0.726245
0.728484
0.733053
0.738402
0.741656
0.74246
0.756185
0.796129
0.833185
0.861182
0.881605
0.899019
0.915274
0.926471
0.94534
2.80752
2.78537
2.57929
2.00394
1.06446
0.724659
0.717702
0.721794
0.740785
0.74876
0.748801
0.748095
0.749514
0.752784
0.756125
0.75652
0.763415
0.796116
0.836836
0.869992
0.893051
0.910093
0.926631
0.939156
0.949991
2.88415
2.88225
2.71797
2.21581
1.29349
0.825224
0.744208
0.742744
0.759202
0.773126
0.772585
0.767985
0.766522
0.767818
0.770581
0.771954
0.774319
0.796377
0.839911
0.875238
0.902383
0.921408
0.936324
0.951213
0.959355
2.95429
2.96872
2.85433
2.46797
1.67211
0.950014
0.76988
0.773149
0.784331
0.795193
0.795458
0.790171
0.784905
0.783699
0.785834
0.788186
0.788278
0.799975
0.839742
0.879988
0.909551
0.931371
0.946678
0.9598
0.972182
2.99826
3.04223
2.9627
2.68474
2.01984
1.08645
0.814283
0.806878
0.80536
0.813509
0.819161
0.81331
0.805476
0.801681
0.802367
0.805058
0.805541
0.808595
0.836458
0.882406
0.916238
0.939444
0.956
0.967554
0.979079
3.03556
3.10269
3.04582
2.83887
2.28423
1.32618
0.907341
0.838
0.829167
0.834232
0.841272
0.836895
0.827965
0.822471
0.821643
0.823336
0.824458
0.822945
0.835273
0.879758
0.920789
0.946978
0.964385
0.976522
0.985159
3.06609
3.15436
3.11725
2.97887
2.57817
1.75778
1.02984
0.865595
0.858478
0.860522
0.864874
0.8603
0.853024
0.846233
0.842723
0.842874
0.843687
0.841642
0.842701
0.871429
0.919703
0.95339
0.973055
0.98622
0.993853
3.08886
3.1922
3.16756
3.07292
2.79857
2.14214
1.20421
0.917337
0.891797
0.884679
0.886326
0.887117
0.879919
0.871505
0.866367
0.864125
0.863847
0.862335
0.858634
0.8674
0.911094
0.954983
0.980717
0.994358
1.00432
3.10703
3.22225
3.20583
3.14166
2.95347
2.45025
1.53453
1.02036
0.922163
0.9135
0.9123
0.915893
0.909192
0.900231
0.891731
0.887514
0.885447
0.883423
0.879049
0.877109
0.898349
0.947004
0.983973
1.00257
1.01225
3.12009
3.24449
3.23408
3.19308
3.07379
2.75186
2.03746
1.17966
0.962926
0.947949
0.939333
0.938144
0.940614
0.931249
0.921558
0.912675
0.908361
0.905587
0.901413
0.895575
0.899251
0.93316
0.977206
1.00678
1.02027
3.12948
3.26049
3.25373
3.22653
3.14733
2.93091
2.37732
1.45472
1.04634
0.977735
0.969887
0.966325
0.969294
0.96622
0.951676
0.942291
0.934259
0.928993
0.924433
0.918302
0.912457
0.926178
0.965367
1.00109
1.02481
3.13582
3.27186
3.26767
3.25037
3.20114
3.06839
2.71449
1.95359
1.17643
1.01622
1.00338
0.996714
0.992602
0.995382
0.990247
0.973084
0.962541
0.955105
0.948529
0.942299
0.934567
0.931591
0.954004
0.992417
1.02189
3.14032
3.27965
3.27642
3.26461
3.23258
3.14798
2.92247
2.34944
1.44476
1.09087
1.03316
1.02763
1.02232
1.0235
1.02214
1.01264
0.995306
0.983217
0.974531
0.966978
0.959446
0.94965
0.950909
0.982659
1.01637
3.14264
3.28345
3.28035
3.27265
3.25337
3.2035
3.07013
2.71225
1.93988
1.20838
1.07396
1.05904
1.05482
1.0488
1.05066
1.04879
1.03544
1.01691
1.00292
0.992791
0.984676
0.974313
0.964558
0.974373
1.00817
3.14033
3.28301
3.28152
3.27707
3.26512
3.23439
3.15366
2.93633
2.37424
1.49317
1.14688
1.0904
1.08611
1.08058
1.07773
1.07836
1.07448
1.05804
1.03741
1.02147
1.01064
1.00076
0.98836
0.980293
0.998193
3.13716
3.28202
3.28221
3.27972
3.27286
3.25499
3.20877
3.08559
2.75569
2.0128
1.27743
1.13809
1.11676
1.1139
1.10711
1.10755
1.10636
1.09972
1.079
1.05587
1.03922
1.02782
1.01556
1.00113
0.996025
3.13563
3.28086
3.28307
3.28175
3.2778
3.26741
3.24056
3.16971
2.97798
2.46675
1.60758
1.20917
1.15171
1.14498
1.14116
1.13421
1.13566
1.13351
1.1238
1.09796
1.07299
1.05664
1.04344
1.02825
1.01279
3.13475
3.28015
3.28373
3.28304
3.28082
3.27492
3.25964
3.22023
3.11485
2.8329
2.15182
1.39433
1.209
1.17623
1.17475
1.16789
1.16329
1.16336
1.15991
1.1459
1.11499
1.0899
1.07285
1.05722
1.03938
3.13432
3.27983
3.28422
3.28388
3.28269
3.27945
3.27106
3.24947
3.19275
3.03855
2.61782
1.80509
1.28606
1.21738
1.20447
1.20285
1.19427
1.19247
1.19047
1.18464
1.16507
1.1319
1.10675
1.08777
1.06923
3.13422
3.27975
3.28457
3.28441
3.28379
3.28205
3.27753
3.26582
3.23538
3.1534
2.92896
2.33622
1.55477
1.28161
1.23899
1.23558
1.22949
1.22071
1.22001
1.21702
1.20736
1.18022
1.14824
1.12255
1.10067
3.13429
3.27973
3.2848
3.28473
3.28444
3.28357
3.2812
3.27503
3.25908
3.21751
3.10426
2.79471
2.07372
1.41738
1.29137
1.26635
1.26543
1.2563
1.2472
1.2469
1.24278
1.22807
1.19422
1.16139
1.13414
3.13436
3.27971
3.28498
3.28495
3.28481
3.28437
3.28317
3.28004
3.27192
3.25083
3.19461