/*--------------------------------*- C++ -*----------------------------------*\
| =========                 |                                                 |
| \\      /  F ield         | OpenFOAM: The Open Source CFD Toolbox           |
|  \\    /   O peration     | Version:  4.1                                   |
|   \\  /    A nd           | Web:      www.OpenFOAM.org                      |
|    \\/     M anipulation  |                                                 |
\*---------------------------------------------------------------------------*/
FoamFile
{
    version     2.0;
    format      ascii;
    class       volScalarField;
    location    "0.88";
    object      p;
}
// * * * * * * * * * * * * * * * * * * * * * * * * * * * * * * * * * * * * * //

dimensions      [1 -1 -2 0 0 0 0];

internalField   nonuniform List<scalar> 
52500
(
0.0209869
0.176068
0.745319
0.745034
0.708726
0.661879
0.62077
0.590172
0.566659
0.550137
0.541065
0.531375
0.529374
0.52599
0.519122
0.513382
0.503178
0.489711
0.47652
0.467992
0.470285
0.47472
0.487879
0.512799
0.527897
0.0208529
0.175331
0.74216
0.744436
0.709956
0.662094
0.6209
0.590436
0.567166
0.550857
0.541762
0.531871
0.529742
0.52607
0.519179
0.513385
0.503181
0.489678
0.476556
0.46801
0.470366
0.474953
0.488252
0.513282
0.528374
0.0221538
0.174439
0.733721
0.745262
0.711452
0.661822
0.620539
0.5904
0.567599
0.551648
0.542357
0.532144
0.52966
0.525337
0.518516
0.512557
0.502405
0.488793
0.475806
0.467098
0.469481
0.474174
0.487497
0.512501
0.527582
0.0246159
0.172783
0.717755
0.750222
0.712852
0.661125
0.62011
0.590617
0.568559
0.553048
0.543363
0.532883
0.529747
0.524177
0.517523
0.511243
0.501303
0.487442
0.474754
0.465741
0.468046
0.472788
0.485987
0.510863
0.525921
0.0270179
0.169762
0.696007
0.757343
0.71584
0.660652
0.619908
0.591296
0.570149
0.554929
0.544616
0.533835
0.529668
0.522614
0.515946
0.509056
0.499864
0.485479
0.473199
0.463816
0.465945
0.470541
0.483398
0.507781
0.522908
0.0307748
0.165729
0.665972
0.769073
0.71922
0.660415
0.620027
0.592514
0.572318
0.557197
0.546133
0.534918
0.528858
0.521337
0.513837
0.506123
0.497956
0.483002
0.471003
0.461087
0.462957
0.46707
0.47916
0.502494
0.517905
0.0350931
0.159547
0.623884
0.786789
0.723926
0.660602
0.620491
0.594192
0.574933
0.559775
0.547963
0.536178
0.527511
0.520189
0.511346
0.5028
0.495398
0.480128
0.467972
0.457459
0.458733
0.462124
0.472799
0.493976
0.509831
0.0396582
0.150484
0.566015
0.81253
0.733291
0.662231
0.621555
0.596334
0.577858
0.562575
0.550061
0.53751
0.525962
0.519054
0.508608
0.499397
0.492029
0.476923
0.464095
0.453006
0.452721
0.455208
0.463928
0.480819
0.497066
0.0449896
0.139994
0.49584
0.845932
0.749426
0.666769
0.623617
0.599053
0.581092
0.565621
0.552324
0.538661
0.524312
0.517598
0.505736
0.495977
0.488187
0.472993
0.459535
0.447979
0.444431
0.446053
0.452035
0.461822
0.475186
0.0507838
0.128219
0.410547
0.876196
0.769291
0.672878
0.626451
0.602214
0.584513
0.568791
0.554543
0.539481
0.522977
0.515643
0.503009
0.492639
0.483399
0.468872
0.45458
0.442341
0.434605
0.433986
0.43528
0.436296
0.43696
0.020972
0.17605
0.745277
0.744997
0.7087
0.661865
0.620758
0.590155
0.566642
0.55012
0.541044
0.531347
0.529355
0.52599
0.519132
0.51339
0.503191
0.489717
0.47651
0.467962
0.470241
0.474663
0.487823
0.512751
0.527905
0.0208575
0.175323
0.742115
0.744396
0.709929
0.662079
0.62089
0.590423
0.56715
0.550838
0.541733
0.531869
0.529728
0.526053
0.51919
0.513388
0.503199
0.489683
0.476548
0.467981
0.470323
0.474897
0.488196
0.513234
0.528381
0.0221526
0.174428
0.733676
0.745223
0.711427
0.661808
0.620528
0.590388
0.567581
0.551625
0.542322
0.532149
0.529648
0.525316
0.518524
0.512557
0.502421
0.488793
0.475794
0.46707
0.469439
0.47412
0.487441
0.512453
0.527586
0.0246013
0.172765
0.717712
0.750187
0.712829
0.661113
0.6201
0.590603
0.568542
0.553027
0.543339
0.532878
0.529738
0.524175
0.517528
0.511248
0.50131
0.487445
0.474735
0.465711
0.468008
0.472736
0.485933
0.510814
0.52592
0.0270143
0.169749
0.695958
0.757307
0.715821
0.660643
0.6199
0.591282
0.570132
0.554915
0.544605
0.533811
0.529666
0.522613
0.515947
0.50907
0.499854
0.485476
0.473178
0.463788
0.465909
0.470494
0.483348
0.507731
0.522901
0.0307677
0.165714
0.665924
0.769043
0.71921
0.660409
0.620019
0.592499
0.5723
0.557188
0.546129
0.534889
0.52888
0.52133
0.513838
0.506138
0.497937
0.482993
0.470984
0.46106
0.462921
0.467027
0.479117
0.502443
0.517888
0.0350914
0.159537
0.623839
0.78676
0.72392
0.660597
0.620483
0.59418
0.574917
0.559767
0.547956
0.536147
0.527556
0.520168
0.511345
0.502806
0.495382
0.480112
0.467966
0.457437
0.458701
0.462083
0.472761
0.493924
0.509807
0.0396554
0.150475
0.565974
0.812503
0.733284
0.662227
0.621548
0.596324
0.577845
0.562567
0.55005
0.537481
0.526024
0.519025
0.508604
0.499393
0.492025
0.476901
0.464096
0.452979
0.452698
0.45518
0.463893
0.480768
0.497036
0.0449876
0.139985
0.4958
0.845911
0.749422
0.666765
0.623611
0.599043
0.581081
0.565612
0.552314
0.538643
0.524359
0.517585
0.505727
0.49597
0.488189
0.472973
0.459536
0.447953
0.444415
0.446036
0.452006
0.461775
0.475151
0.0507849
0.128212
0.410503
0.876179
0.76929
0.672874
0.626444
0.602206
0.584505
0.568784
0.554535
0.539472
0.522995
0.515649
0.502999
0.49263
0.483409
0.468856
0.45458
0.442325
0.434597
0.433964
0.435255
0.436262
0.436926
0.020982
0.176053
0.745264
0.744995
0.70871
0.661865
0.620759
0.590162
0.566647
0.550125
0.541066
0.531363
0.529379
0.526008
0.519126
0.51339
0.503171
0.489696
0.476486
0.467961
0.470248
0.47468
0.487843
0.512788
0.527911
0.0208524
0.175317
0.742102
0.744401
0.709939
0.66208
0.620889
0.590427
0.567156
0.550846
0.54176
0.531866
0.529746
0.526081
0.519182
0.51339
0.503177
0.489663
0.476524
0.467979
0.470331
0.474914
0.488218
0.51327
0.528387
0.0221539
0.174425
0.733656
0.745239
0.711433
0.661807
0.620527
0.590391
0.56759
0.551638
0.542348
0.532143
0.529662
0.525341
0.518521
0.512559
0.502402
0.488779
0.475778
0.467068
0.469448
0.474139
0.487465
0.512489
0.527593
0.0246109
0.172765
0.717683
0.750201
0.712836
0.66111
0.620098
0.590607
0.568551
0.553038
0.543351
0.532886
0.52975
0.524182
0.51753
0.511249
0.5013
0.487435
0.47473
0.465713
0.468016
0.472756
0.485958
0.51085
0.525929
0.0270171
0.169745
0.695927
0.75733
0.71583
0.660639
0.619896
0.591285
0.570141
0.55492
0.544604
0.533834
0.529665
0.522618
0.515955
0.509063
0.499861
0.485471
0.473178
0.463792
0.465918
0.470513
0.483373
0.507768
0.522913
0.0307725
0.165709
0.665884
0.769065
0.719214
0.660404
0.620015
0.592502
0.572309
0.557188
0.546124
0.534919
0.528847
0.521348
0.513846
0.506128
0.49796
0.482991
0.470984
0.461064
0.462933
0.467046
0.479138
0.50248
0.517904
0.0350933
0.159527
0.623785
0.786787
0.723924
0.660592
0.620479
0.594181
0.574923
0.559765
0.547955
0.536181
0.527492
0.520205
0.511354
0.502804
0.495399
0.48012
0.467957
0.457441
0.458712
0.462102
0.47278
0.493961
0.509826
0.0396581
0.150462
0.565903
0.812535
0.733296
0.662225
0.621545
0.596323
0.577848
0.562566
0.550051
0.53751
0.525959
0.519059
0.508619
0.499398
0.492029
0.476917
0.464086
0.452989
0.452704
0.455191
0.463911
0.480804
0.497058
0.0449898
0.139971
0.49572
0.845943
0.749438
0.666767
0.623608
0.599041
0.581081
0.565611
0.552314
0.53866
0.524318
0.517603
0.505742
0.495977
0.488188
0.472986
0.459527
0.447962
0.444418
0.44604
0.452021
0.461807
0.475175
0.0507863
0.128195
0.410406
0.876197
0.769301
0.672875
0.626441
0.602203
0.584503
0.568781
0.554534
0.539481
0.522978
0.515652
0.50301
0.492637
0.483404
0.468863
0.454573
0.442328
0.434595
0.433974
0.435267
0.436284
0.436949
0.0209806
0.176046
0.745242
0.744984
0.708711
0.661866
0.620761
0.590165
0.566652
0.550132
0.541075
0.531373
0.529392
0.526027
0.519145
0.513405
0.503178
0.489694
0.476476
0.467948
0.470231
0.47466
0.487824
0.51277
0.527903
0.0208522
0.175312
0.742079
0.744391
0.709939
0.662081
0.620892
0.59043
0.567161
0.550853
0.541767
0.531878
0.52976
0.526101
0.519201
0.513404
0.503184
0.489662
0.476515
0.467966
0.470314
0.474894
0.488199
0.513252
0.52838
0.0221532
0.174419
0.733629
0.745237
0.711432
0.661807
0.62053
0.590395
0.567595
0.551643
0.542355
0.532156
0.529675
0.525358
0.518537
0.512573
0.502408
0.488777
0.475768
0.467055
0.469431
0.474119
0.487446
0.512471
0.527586
0.0246105
0.172758
0.717653
0.7502
0.712837
0.661111
0.620101
0.590611
0.568557
0.553044
0.543359
0.532901
0.529765
0.524196
0.517546
0.51126
0.501307
0.487431
0.474719
0.465699
0.468
0.472737
0.485939
0.510833
0.525922
0.027017
0.169738
0.695896
0.757334
0.715832
0.660642
0.6199
0.591291
0.570146
0.554927
0.544614
0.533846
0.52968
0.522634
0.51597
0.509074
0.499866
0.485464
0.473167
0.463777
0.465903
0.470495
0.483355
0.507752
0.522907
0.0307728
0.165702
0.665851
0.76907
0.719217
0.660407
0.62002
0.592507
0.572314
0.557197
0.546134
0.534924
0.528871
0.52136
0.513861
0.506142
0.497956
0.482985
0.470974
0.46105
0.462918
0.467029
0.479123
0.502465
0.517897
0.0350941
0.159519
0.623748
0.786797
0.723929
0.660596
0.620484
0.594185
0.574928
0.559774
0.547964
0.536181
0.527532
0.520206
0.511366
0.502814
0.495396
0.480113
0.467954
0.457428
0.458699
0.462086
0.472766
0.493947
0.509818
0.0396594
0.150454
0.565862
0.812548
0.733304
0.66223
0.621549
0.596327
0.577852
0.562573
0.550061
0.53751
0.525999
0.519059
0.508626
0.499406
0.492033
0.476907
0.464084
0.452974
0.452695
0.45518
0.463899
0.480791
0.497049
0.0449917
0.139964
0.495676
0.845959
0.749449
0.666773
0.623612
0.599045
0.581085
0.565617
0.552323
0.538664
0.524344
0.517609
0.505749
0.495986
0.488194
0.472977
0.459525
0.44795
0.44441
0.446032
0.452011
0.461795
0.475167
0.0507889
0.128188
0.410354
0.876208
0.76931
0.67288
0.626445
0.602206
0.584506
0.568787
0.554542
0.539485
0.522996
0.515661
0.503018
0.492647
0.483406
0.468861
0.45457
0.44232
0.434589
0.433965
0.435258
0.436274
0.436941
0.0209887
0.176045
0.745214
0.744979
0.708729
0.66187
0.620762
0.590168
0.566661
0.550147
0.54109
0.531385
0.529399
0.526025
0.51914
0.513399
0.503172
0.489691
0.476478
0.467954
0.470243
0.474676
0.487841
0.512783
0.527895
0.0208594
0.17531
0.742049
0.744394
0.709955
0.662082
0.620891
0.590433
0.56717
0.550868
0.541782
0.531889
0.529767
0.526098
0.519196
0.513399
0.503178
0.489658
0.476516
0.467972
0.470325
0.47491
0.488215
0.513266
0.528372
0.0221603
0.174416
0.733591
0.74526
0.711443
0.661806
0.620528
0.590399
0.567605
0.551658
0.54237
0.532165
0.529681
0.525357
0.518534
0.512568
0.502402
0.488774
0.475769
0.46706
0.469441
0.474133
0.48746
0.512485
0.52758
0.0246211
0.172756
0.717607
0.750224
0.71285
0.661107
0.620099
0.590616
0.568567
0.553059
0.543373
0.532909
0.529769
0.524193
0.51754
0.511254
0.5013
0.487427
0.474719
0.465703
0.468007
0.472748
0.485952
0.510846
0.525919
0.0270246
0.169734
0.695849
0.757371
0.715846
0.660639
0.6199
0.591296
0.570158
0.554941
0.544627
0.533855
0.529682
0.522631
0.515964
0.509066
0.499862
0.485459
0.473166
0.46378
0.465908
0.470504
0.483365
0.507764
0.522906
0.0307824
0.165697
0.665797
0.769109
0.719224
0.660405
0.620022
0.592515
0.572326
0.55721
0.546144
0.534929
0.528873
0.521356
0.513854
0.506134
0.497948
0.48298
0.470971
0.461051
0.462922
0.467036
0.479129
0.502477
0.5179
0.0351008
0.159508
0.623677
0.786848
0.723939
0.660597
0.620488
0.594194
0.574939
0.559785
0.547972
0.536182
0.527543
0.520195
0.511361
0.502807
0.495389
0.480107
0.46795
0.457427
0.458701
0.462091
0.472772
0.49396
0.509824
0.0396665
0.15044
0.56577
0.812609
0.733328
0.662237
0.621555
0.596336
0.577862
0.562583
0.550069
0.537513
0.525999
0.519056
0.508618
0.4994
0.492026
0.4769
0.464078
0.452971
0.452696
0.455182
0.463902
0.480803
0.497057
0.044998
0.139948
0.495572
0.846021
0.74948
0.666786
0.623621
0.599055
0.581094
0.565627
0.552331
0.538665
0.524338
0.517605
0.505742
0.495979
0.488187
0.47297
0.459519
0.447947
0.444411
0.446032
0.452015
0.461806
0.475176
0.0507948
0.128169
0.410225
0.876252
0.769332
0.67289
0.626454
0.602216
0.584515
0.568796
0.554549
0.539484
0.522993
0.515651
0.503015
0.492642
0.483396
0.468856
0.454564
0.442317
0.434587
0.433968
0.435262
0.436282
0.43695
0.0209861
0.176043
0.745214
0.744976
0.708725
0.661869
0.620763
0.590169
0.566661
0.550145
0.541089
0.531384
0.529401
0.526031
0.519145
0.513405
0.503177
0.489694
0.476478
0.467954
0.470241
0.474673
0.487838
0.512778
0.527892
0.0208574
0.175309
0.742048
0.74439
0.709951
0.662083
0.620893
0.590434
0.56717
0.550865
0.541781
0.531888
0.529769
0.526104
0.519201
0.513404
0.503183
0.489662
0.476517
0.467972
0.470323
0.474906
0.488212
0.513261
0.528369
0.0221584
0.174415
0.733592
0.745253
0.711439
0.661807
0.620529
0.590399
0.567604
0.551656
0.542368
0.532165
0.529683
0.525362
0.518539
0.512574
0.502407
0.488777
0.475769
0.46706
0.469439
0.47413
0.487457
0.512479
0.527577
0.0246177
0.172754
0.71761
0.750217
0.712846
0.661108
0.620101
0.590616
0.568566
0.553056
0.543371
0.532909
0.529771
0.524198
0.517546
0.51126
0.501304
0.487431
0.47472
0.465703
0.468006
0.472746
0.485949
0.510841
0.525916
0.0270224
0.169733
0.695852
0.757361
0.715842
0.66064
0.6199
0.591296
0.570156
0.554939
0.544626
0.533855
0.529685
0.522636
0.51597
0.509072
0.499865
0.485462
0.473167
0.46378
0.465907
0.470502
0.483362
0.50776
0.522903
0.0307794
0.165696
0.665802
0.769099
0.719222
0.660406
0.620021
0.592513
0.572324
0.557207
0.546143
0.534928
0.528876
0.52136
0.513859
0.50614
0.497953
0.482984
0.470973
0.461051
0.462921
0.467034
0.479128
0.502473
0.517898
0.0350988
0.159509
0.623687
0.786834
0.723937
0.660597
0.620487
0.594192
0.574936
0.559783
0.547971
0.536182
0.527546
0.520199
0.511365
0.502812
0.495394
0.48011
0.467952
0.457428
0.4587
0.462089
0.47277
0.493956
0.509822
0.0396643
0.150442
0.565786
0.812593
0.733322
0.662235
0.621554
0.596333
0.577859
0.562581
0.550068
0.537513
0.526003
0.519059
0.508622
0.499405
0.492031
0.476904
0.46408
0.452972
0.452696
0.455182
0.463901
0.480799
0.497056
0.0449959
0.13995
0.495592
0.846004
0.749472
0.666782
0.623618
0.599052
0.581091
0.565624
0.55233
0.538665
0.524341
0.517608
0.505746
0.495984
0.488191
0.472974
0.459521
0.447948
0.44441
0.446032
0.452013
0.461803
0.475175
0.0507928
0.128173
0.410253
0.87624
0.769326
0.672886
0.626451
0.602213
0.584512
0.568793
0.554547
0.539484
0.522996
0.515655
0.503019
0.492647
0.483401
0.468859
0.454567
0.442318
0.434587
0.433967
0.435261
0.43628
0.436949
0.0209806
0.176046
0.745242
0.744984
0.708711
0.661866
0.620761
0.590165
0.566652
0.550132
0.541075
0.531373
0.529392
0.526027
0.519145
0.513405
0.503178
0.489695
0.476476
0.467948
0.470231
0.47466
0.487824
0.51277
0.527903
0.0208522
0.175312
0.742079
0.744391
0.709939
0.662081
0.620892
0.59043
0.567161
0.550853
0.541767
0.531878
0.52976
0.526101
0.519201
0.513404
0.503184
0.489662
0.476515
0.467966
0.470314
0.474894
0.488199
0.513252
0.52838
0.0221532
0.174418
0.733629
0.745237
0.711432
0.661807
0.62053
0.590395
0.567595
0.551643
0.542355
0.532156
0.529675
0.525358
0.518538
0.512573
0.502408
0.488777
0.475768
0.467055
0.469431
0.474119
0.487446
0.512471
0.527586
0.0246105
0.172758
0.717653
0.7502
0.712837
0.661111
0.620101
0.590611
0.568557
0.553044
0.543359
0.532901
0.529765
0.524197
0.517546
0.51126
0.501307
0.487431
0.474719
0.465699
0.468
0.472737
0.485939
0.510833
0.525922
0.027017
0.169738
0.695896
0.757334
0.715832
0.660642
0.6199
0.59129
0.570146
0.554927
0.544614
0.533846
0.52968
0.522634
0.515971
0.509074
0.499866
0.485464
0.473167
0.463777
0.465903
0.470495
0.483355
0.507752
0.522906
0.0307727
0.165702
0.665851
0.76907
0.719217
0.660407
0.62002
0.592507
0.572314
0.557197
0.546134
0.534924
0.528871
0.52136
0.513861
0.506142
0.497956
0.482985
0.470974
0.46105
0.462918
0.467029
0.479123
0.502465
0.517897
0.0350941
0.159519
0.623748
0.786797
0.723929
0.660596
0.620484
0.594185
0.574928
0.559774
0.547964
0.536181
0.527532
0.520206
0.511367
0.502815
0.495396
0.480113
0.467954
0.457428
0.458699
0.462086
0.472766
0.493947
0.509818
0.0396594
0.150454
0.565862
0.812548
0.733304
0.66223
0.621549
0.596327
0.577852
0.562573
0.55006
0.53751
0.526
0.519059
0.508626
0.499407
0.492033
0.476907
0.464084
0.452974
0.452695
0.45518
0.463899
0.48079
0.497049
0.0449917
0.139964
0.495677
0.845958
0.749448
0.666772
0.623612
0.599045
0.581085
0.565617
0.552323
0.538664
0.524345
0.51761
0.505749
0.495986
0.488195
0.472977
0.459525
0.44795
0.44441
0.446032
0.452011
0.461795
0.475167
0.0507888
0.128188
0.410354
0.876208
0.769309
0.672879
0.626445
0.602206
0.584506
0.568787
0.554542
0.539485
0.522996
0.515661
0.503019
0.492647
0.483406
0.468861
0.45457
0.442321
0.434589
0.433965
0.435258
0.436274
0.436941
0.020982
0.176053
0.745264
0.744995
0.70871
0.661865
0.620759
0.590162
0.566647
0.550125
0.541066
0.531363
0.529379
0.526008
0.519126
0.51339
0.503171
0.489696
0.476486
0.467961
0.470248
0.47468
0.487843
0.512788
0.527911
0.0208524
0.175317
0.742102
0.744401
0.709939
0.66208
0.620889
0.590427
0.567156
0.550846
0.54176
0.531866
0.529746
0.526081
0.519182
0.51339
0.503177
0.489663
0.476524
0.467979
0.470331
0.474914
0.488218
0.51327
0.528387
0.0221539
0.174425
0.733656
0.745239
0.711433
0.661807
0.620527
0.590391
0.56759
0.551638
0.542348
0.532143
0.529662
0.525341
0.518521
0.512559
0.502402
0.488779
0.475778
0.467068
0.469448
0.474139
0.487465
0.512489
0.527593
0.0246109
0.172765
0.717683
0.750201
0.712836
0.66111
0.620098
0.590607
0.568551
0.553038
0.543351
0.532886
0.52975
0.524182
0.51753
0.511249
0.5013
0.487435
0.47473
0.465713
0.468016
0.472756
0.485958
0.51085
0.525929
0.0270171
0.169745
0.695927
0.75733
0.71583
0.660639
0.619896
0.591285
0.570141
0.55492
0.544604
0.533834
0.529665
0.522618
0.515955
0.509063
0.499861
0.485471
0.473178
0.463792
0.465918
0.470513
0.483373
0.507768
0.522913
0.0307725
0.165709
0.665884
0.769065
0.719214
0.660404
0.620015
0.592502
0.572309
0.557188
0.546124
0.534919
0.528847
0.521348
0.513846
0.506128
0.49796
0.482991
0.470984
0.461064
0.462933
0.467046
0.479138
0.50248
0.517904
0.0350933
0.159527
0.623785
0.786787
0.723924
0.660592
0.620479
0.594181
0.574923
0.559765
0.547954
0.536181
0.527492
0.520205
0.511354
0.502804
0.495399
0.48012
0.467957
0.457441
0.458712
0.462102
0.47278
0.493961
0.509826
0.0396581
0.150462
0.565903
0.812535
0.733296
0.662225
0.621545
0.596323
0.577848
0.562566
0.550051
0.53751
0.525959
0.519059
0.508619
0.499398
0.492029
0.476917
0.464086
0.452989
0.452704
0.455191
0.463911
0.480804
0.497058
0.0449898
0.139971
0.49572
0.845943
0.749438
0.666767
0.623608
0.599041
0.581081
0.565611
0.552314
0.53866
0.524318
0.517603
0.505742
0.495977
0.488188
0.472986
0.459527
0.447962
0.444418
0.44604
0.452021
0.461807
0.475175
0.0507863
0.128195
0.410406
0.876197
0.769301
0.672875
0.626441
0.602203
0.584503
0.568781
0.554534
0.539481
0.522978
0.515652
0.50301
0.492637
0.483404
0.468863
0.454573
0.442328
0.434595
0.433974
0.435267
0.436284
0.436949
0.0209719
0.17605
0.745276
0.744996
0.7087
0.661865
0.620758
0.590155
0.566642
0.550119
0.541044
0.531347
0.529355
0.525989
0.519131
0.51339
0.503191
0.489717
0.476511
0.467963
0.470241
0.474663
0.487824
0.512751
0.527905
0.0208575
0.175323
0.742114
0.744395
0.709929
0.662079
0.62089
0.590423
0.56715
0.550838
0.541733
0.531868
0.529728
0.526053
0.519189
0.513388
0.503199
0.489683
0.476548
0.467981
0.470323
0.474897
0.488196
0.513235
0.528381
0.0221525
0.174427
0.733676
0.745222
0.711427
0.661808
0.620528
0.590388
0.567581
0.551625
0.542322
0.532148
0.529647
0.525316
0.518524
0.512557
0.502421
0.488793
0.475794
0.46707
0.469439
0.47412
0.487442
0.512453
0.527586
0.0246013
0.172765
0.717711
0.750187
0.712829
0.661114
0.6201
0.590603
0.568542
0.553027
0.543338
0.532878
0.529738
0.524175
0.517527
0.511248
0.50131
0.487445
0.474736
0.465711
0.468008
0.472736
0.485933
0.510814
0.52592
0.0270143
0.169749
0.695957
0.757307
0.715821
0.660643
0.6199
0.591282
0.570132
0.554914
0.544605
0.533811
0.529666
0.522613
0.515947
0.50907
0.499854
0.485476
0.473178
0.463788
0.465909
0.470494
0.483348
0.507732
0.522901
0.0307677
0.165714
0.665923
0.769043
0.71921
0.660409
0.620019
0.592499
0.5723
0.557188
0.546128
0.534889
0.52888
0.52133
0.513838
0.506138
0.497937
0.482993
0.470984
0.46106
0.462921
0.467027
0.479117
0.502443
0.517889
0.0350914
0.159537
0.623839
0.78676
0.72392
0.660597
0.620483
0.59418
0.574917
0.559766
0.547956
0.536147
0.527555
0.520168
0.511345
0.502806
0.495382
0.480112
0.467966
0.457437
0.458701
0.462083
0.472761
0.493925
0.509807
0.0396555
0.150475
0.565974
0.812502
0.733284
0.662227
0.621548
0.596324
0.577845
0.562567
0.55005
0.53748
0.526024
0.519025
0.508604
0.499392
0.492025
0.476901
0.464096
0.452979
0.452698
0.455181
0.463893
0.480769
0.497036
0.0449876
0.139985
0.4958
0.845911
0.749422
0.666765
0.62361
0.599043
0.581081
0.565612
0.552314
0.538643
0.524359
0.517585
0.505727
0.49597
0.488189
0.472973
0.459536
0.447953
0.444415
0.446036
0.452006
0.461776
0.475151
0.050785
0.128212
0.410503
0.876179
0.76929
0.672874
0.626444
0.602206
0.584505
0.568784
0.554535
0.539472
0.522994
0.515649
0.502999
0.49263
0.483408
0.468856
0.45458
0.442325
0.434598
0.433965
0.435255
0.436262
0.436926
0.0209773
0.176063
0.745327
0.745027
0.70871
0.661882
0.620776
0.59017
0.566647
0.550121
0.541058
0.531342
0.529359
0.525989
0.519112
0.513382
0.503173
0.489715
0.476523
0.467998
0.470289
0.474723
0.487882
0.512801
0.527891
0.0208444
0.175326
0.742169
0.744425
0.709942
0.662098
0.620905
0.590436
0.567158
0.55084
0.541744
0.531849
0.529725
0.52606
0.519171
0.513379
0.503176
0.489681
0.476562
0.468015
0.47037
0.474956
0.488256
0.513285
0.52837
0.022149
0.174437
0.733736
0.745235
0.711441
0.661827
0.620544
0.590401
0.567592
0.551628
0.542322
0.532141
0.529642
0.525305
0.518512
0.512548
0.502406
0.488794
0.475815
0.467101
0.469484
0.474177
0.487501
0.512504
0.527578
0.024607
0.172782
0.717778
0.750196
0.71284
0.661131
0.620114
0.590616
0.568554
0.553029
0.543325
0.532903
0.529739
0.524135
0.517518
0.511232
0.501311
0.487436
0.474762
0.465741
0.468047
0.47279
0.485991
0.510866
0.525917
0.0270096
0.169762
0.696031
0.75731
0.71583
0.660658
0.61991
0.591291
0.57014
0.554913
0.544588
0.533837
0.529644
0.522596
0.515943
0.509038
0.499878
0.485462
0.473197
0.463813
0.465946
0.470544
0.483402
0.507782
0.522903
0.0307666
0.16573
0.666004
0.769041
0.719217
0.66042
0.620026
0.592504
0.572308
0.557188
0.546114
0.534895
0.528846
0.521325
0.51383
0.506117
0.497945
0.482995
0.471004
0.461083
0.462956
0.467073
0.479164
0.502493
0.517898
0.0350875
0.159554
0.623935
0.786749
0.723921
0.660606
0.620488
0.594181
0.57492
0.559767
0.547949
0.536143
0.527546
0.520153
0.511334
0.502791
0.495379
0.480119
0.467981
0.457459
0.458734
0.462124
0.472803
0.493974
0.509823
0.0396537
0.150495
0.566084
0.812483
0.733275
0.66223
0.621552
0.596324
0.577843
0.562566
0.55005
0.537477
0.526009
0.519015
0.508588
0.499384
0.492019
0.476906
0.464105
0.452996
0.452729
0.455213
0.463929
0.480815
0.497058
0.0449856
0.140007
0.495921
0.845887
0.749405
0.666764
0.623614
0.599043
0.581077
0.565609
0.552314
0.538638
0.524337
0.517576
0.505716
0.495966
0.488181
0.472976
0.459541
0.447971
0.444438
0.446059
0.452038
0.461817
0.475178
0.0507808
0.128235
0.410645
0.876168
0.769278
0.672875
0.626448
0.602207
0.584501
0.56878
0.554534
0.539463
0.522988
0.51563
0.502993
0.492632
0.483387
0.468865
0.454583
0.44234
0.43461
0.433987
0.435281
0.436292
0.436952
0.0586228
0.121913
0.348653
0.870567
0.772586
0.675733
0.629623
0.605604
0.588043
0.571888
0.556526
0.539913
0.522281
0.51329
0.500416
0.489406
0.478243
0.465067
0.449058
0.436007
0.424841
0.418832
0.411427
0.393642
0.342695
0.0660666
0.121681
0.320987
0.842734
0.768317
0.677869
0.63374
0.609687
0.591739
0.574858
0.558142
0.540207
0.522024
0.51091
0.497914
0.486285
0.473626
0.461354
0.443342
0.428917
0.414648
0.403744
0.389914
0.362236
0.30564
0.0733403
0.122873
0.300779
0.799612
0.757533
0.682438
0.639779
0.614469
0.595482
0.577574
0.559295
0.540326
0.52183
0.507959
0.496074
0.483429
0.470081
0.457357
0.438132
0.421947
0.405459
0.389508
0.372139
0.342894
0.297142
0.0818947
0.125059
0.285725
0.758774
0.74351
0.693635
0.646927
0.619135
0.598939
0.579814
0.559936
0.540118
0.521419
0.50466
0.495138
0.481258
0.467414
0.452635
0.433907
0.415756
0.397882
0.378602
0.359367
0.331731
0.294006
0.0858674
0.125184
0.27049
0.713038
0.741736
0.708116
0.65396
0.623568
0.601978
0.581492
0.5603
0.539466
0.520574
0.503067
0.493714
0.480093
0.465493
0.448541
0.431155
0.410294
0.39174
0.371122
0.350616
0.324818
0.293096
0.0896249
0.123992
0.25267
0.652535
0.750002
0.720244
0.660172
0.627455
0.60453
0.582508
0.56014
0.538445
0.519876
0.503013
0.492824
0.479448
0.46398
0.446067
0.428757
0.406352
0.386949
0.366461
0.344451
0.320826
0.292942
0.0933136
0.121701
0.231133
0.577373
0.771182
0.733734
0.667487
0.63109
0.606003
0.58264
0.558864
0.537293
0.519464
0.503411
0.491313
0.479904
0.463099
0.444865
0.425866
0.404664
0.383974
0.363466
0.341247
0.31866
0.293227
0.0955571
0.116777
0.203357
0.481434
0.805929
0.75219
0.675588
0.634148
0.606603
0.58155
0.557312
0.536603
0.519818
0.504672
0.490851
0.480634
0.463287
0.444673
0.424228
0.404538
0.382153
0.361805
0.340397
0.318196
0.29452
0.0962316
0.111595
0.175338
0.369993
0.796714
0.751821
0.681251
0.63661
0.606428
0.579568
0.556464
0.536912
0.521931
0.507342
0.491674
0.481406
0.46382
0.444738
0.424308
0.404451
0.382457
0.361771
0.340624
0.318762
0.297149
0.0970588
0.108362
0.159185
0.317744
0.747733
0.738923
0.69296
0.640269
0.605502
0.578942
0.556669
0.539411
0.525051
0.51041
0.493725
0.481276
0.464524
0.44528
0.424961
0.404724
0.383847
0.36224
0.341611
0.32047
0.299947
0.0985166
0.106579
0.14615
0.27325
0.644072
0.728008
0.700996
0.644898
0.606034
0.579318
0.559193
0.543729
0.528811
0.513552
0.496458
0.480632
0.466457
0.446532
0.426589
0.405867
0.386411
0.36429
0.344176
0.324405
0.304348
0.100581
0.105551
0.134837
0.232812
0.530437
0.73212
0.706721
0.650641
0.608609
0.581641
0.564983
0.549166
0.533165
0.51674
0.498765
0.481018
0.467329
0.448247
0.428631
0.40882
0.388829
0.368799
0.347303
0.328199
0.309021
0.102181
0.103955
0.123508
0.192373
0.399273
0.737373
0.713951
0.661436
0.614391
0.589927
0.572345
0.55525
0.537707
0.519759
0.501167
0.482079
0.467385
0.450128
0.431622
0.412417
0.392494
0.373076
0.352647
0.332422
0.314018
0.100677
0.0995762
0.113138
0.165118
0.322278
0.712013
0.709879
0.682751
0.630458
0.601478
0.580457
0.56134
0.542033
0.522645
0.503775
0.484153
0.467246
0.453857
0.435068
0.415875
0.396654
0.376908
0.358141
0.33756
0.319283
0.0979538
0.0919916
0.102265
0.142355
0.270736
0.637999
0.709986
0.69111
0.647995
0.613402
0.588209
0.567131
0.546115
0.525651
0.506447
0.487588
0.46865
0.456349
0.438582
0.420124
0.400899
0.381547
0.362774
0.344391
0.324589
0.095652
0.0847358
0.0917699
0.119071
0.210176
0.489698
0.714309
0.702863
0.668251
0.625374
0.596274
0.572241
0.549859
0.528812
0.509369
0.491258
0.472565
0.457207
0.44281
0.424259
0.405617
0.386819
0.367836
0.349934
0.331898
0.0943485
0.0791817
0.083885
0.101884
0.16038
0.332577
0.702956
0.702715
0.682571
0.6395
0.604024
0.576846
0.553469
0.532331
0.512939
0.495059
0.476806
0.459445
0.447218
0.429057
0.410674
0.391979
0.373617
0.355491
0.338263
0.09325
0.0749532
0.0782752
0.0910274
0.132945
0.264582
0.62951
0.700777
0.686373
0.652175
0.611632
0.581326
0.557518
0.536521
0.51716
0.499102
0.481583
0.463151
0.448717
0.434043
0.415837
0.397692
0.379882
0.361881
0.344794
0.0923889
0.0713416
0.073522
0.0818095
0.108481
0.195623
0.463728
0.69374
0.688382
0.665946
0.620634
0.587634
0.562893
0.541701
0.522158
0.503699
0.486219
0.468189
0.451323
0.439415
0.421702
0.403929
0.38601
0.368786
0.351622
0.0917374
0.0688037
0.0702667
0.0757321
0.0926871
0.145718
0.302563
0.660788
0.687622
0.672536
0.635039
0.596903
0.569907
0.547783
0.527682
0.508737
0.490879
0.473493
0.45576
0.440928
0.428106
0.410399
0.392835
0.375519
0.358983
0.0912263
0.0668127
0.0677984
0.0714942
0.0827885
0.117825
0.230193
0.558035
0.683781
0.674893
0.648104
0.607073
0.57756
0.554226
0.53346
0.51405
0.495855
0.478691
0.46138
0.44493
0.433338
0.416732
0.399891
0.382993
0.366421
0.0908647
0.0653351
0.0659612
0.0683071
0.0752301
0.0953577
0.156882
0.334468
0.663965
0.673404
0.658562
0.623577
0.588653
0.56229
0.540008
0.519995
0.501394
0.483942
0.467359
0.450685
0.435769
0.423941
0.407173
0.390753
0.374475
0.0906077
0.064277
0.064683
0.0662493
0.0708238
0.0839201
0.123702
0.246814
0.579014
0.66826
0.660746
0.638182
0.599303
0.570338
0.546798
0.526152
0.507298
0.489713
0.473308
0.456865
0.441034
0.429437
0.414057
0.398497
0.382768
0.0904376
0.0635313
0.0637736
0.0647496
0.0675613
0.075359
0.0978911
0.168581
0.37968
0.648615
0.659041
0.646949
0.616782
0.582447
0.555435
0.533458
0.513941
0.49596
0.479272
0.463548
0.447647
0.43301
0.421745
0.40651
0.391391
0.0903188
0.0630314
0.0631737
0.063796
0.06561
0.0705297
0.0843554
0.12639
0.254803
0.574065
0.654157
0.648593
0.630596
0.594109
0.564929
0.541238
0.52119
0.50293
0.485729
0.470099
0.454604
0.439524
0.426494
0.414902
0.399861
0.0902707
0.062723
0.0627948
0.0631636
0.0642618
0.0671848
0.0751454
0.0981903
0.171149
0.388614
0.633643
0.647013
0.63712
0.610881
0.577539
0.550588
0.528898
0.510123
0.49274
0.476784
0.46186
0.446755
0.432717
0.422118
0.408351
0.0903663
0.0625976
0.0626323
0.0628603
0.0635131
0.0652948
0.0700449
0.0834771
0.124548
0.250158
0.556075
0.640976
0.637117
0.622804
0.592858
0.562732
0.538636
0.518352
0.500399
0.483949
0.469178
0.45453
0.440485
0.427388
0.417534
0.0904469
0.0627528
0.0624558
0.0625678
0.0629489
0.0639977
0.0667449
0.0741477
0.095422
0.162042
0.358045
0.615298
0.634524
0.626682
0.607211
0.575291
0.548674
0.527287
0.508878
0.491825
0.476968
0.462443
0.448743
0.435416
0.423311
0.0904805
0.0628842
0.0623104
0.0623743
0.0625979
0.0632148
0.0648398
0.0691056
0.0810232
0.1173
0.230671
0.52221
0.623852
0.624593
0.615567
0.593461
0.562113
0.537496
0.517821
0.500307
0.485048
0.470719
0.457232
0.444036
0.431564
0.0904988
0.0629642
0.06222
0.0622558
0.0623841
0.06274
0.0636717
0.0660748
0.0724667
0.0905769
0.145773
0.301317
0.583225
0.620247
0.616046
0.603561
0.577711
0.550751
0.528649
0.509986
0.493713
0.47945
0.466017
0.453181
0.440857
0.0905064
0.0630077
0.0621646
0.0621834
0.0622535
0.0624503
0.062965