/*--------------------------------*- C++ -*----------------------------------*\
| =========                 |                                                 |
| \\      /  F ield         | OpenFOAM: The Open Source CFD Toolbox           |
|  \\    /   O peration     | Version:  4.1                                   |
|   \\  /    A nd           | Web:      www.OpenFOAM.org                      |
|    \\/     M anipulation  |                                                 |
\*---------------------------------------------------------------------------*/
FoamFile
{
    version     2.0;
    format      ascii;
    class       surfaceScalarField;
    location    "0.88";
    object      phi;
}
// * * * * * * * * * * * * * * * * * * * * * * * * * * * * * * * * * * * * * //

dimensions      [1 0 -1 0 0 0 0];

internalField   nonuniform List<scalar> 
150500
(
0.00164789
-2.21426e-06
6.71141e-11
0.00176154
1.64968e-06
7.90874e-11
0.00183711
9.85e-05
1.95893e-10
0.0018047
0.000115166
1.73352e-10
0.00165957
8.8946e-05
1.19081e-10
0.00150789
7.26959e-05
6.47178e-11
0.00138686
6.44838e-05
5.3544e-11
0.00132226
6.22224e-05
7.82497e-11
0.00128299
6.17436e-05
7.87447e-11
0.00126599
6.1832e-05
7.78663e-11
0.00126664
6.31281e-05
9.30502e-11
0.00127519
6.48105e-05
1.25439e-10
0.00136605
6.90824e-05
9.00572e-11
0.00139417
7.44769e-05
1.63679e-12
0.00134957
7.51543e-05
-4.33486e-11
0.0012807
7.49536e-05
-3.64194e-11
0.00115903
7.4623e-05
-6.23466e-11
0.00106364
7.52332e-05
-2.54049e-11
0.000977881
7.81049e-05
4.30905e-11
0.000880844
8.22143e-05
1.38605e-10
0.000742193
8.73234e-05
2.07349e-10
0.000570318
9.32857e-05
2.64572e-10
0.000383454
0.000100548
2.61256e-10
0.000157511
0.000109306
2.29947e-10
0.000120349
-4.0873e-11
0.00165055
-9.34179e-06
-2.07143e-11
0.00176581
6.4544e-07
3.44235e-11
0.00183859
0.00020328
2.09828e-10
0.00179859
0.000228221
1.88346e-10
0.00165652
0.000176286
1.22196e-10
0.001505
0.00014564
7.06553e-11
0.00138491
0.000130109
4.66783e-11
0.00132103
0.000125016
5.99992e-11
0.00128268
0.000123812
7.11766e-11
0.00126644
0.000124169
8.47014e-11
0.00126702
0.000126753
1.34595e-10
0.00127539
0.000130077
1.25365e-11
0.00136708
0.000137535
6.51711e-11
0.00139607
0.000147202
7.52046e-11
0.00135426
0.000148474
-4.98979e-11
0.00128758
0.00014876
-1.58193e-11
0.00116726
0.000148798
-8.18516e-11
0.00107097
0.000150596
-2.58239e-11
0.00098414
0.000156269
3.92923e-11
0.000885896
0.000164857
1.36461e-10
0.000747805
0.000175382
2.03235e-10
0.000575039
0.000187602
2.60862e-10
0.000386156
0.000202996
2.62482e-10
0.0001579
0.000222221
2.26529e-10
0.000241898
-3.30657e-11
0.0016515
-1.57067e-05
5.47744e-12
0.00176193
1.81925e-06
4.78093e-11
0.0018352
0.000325543
2.05775e-10
0.0017853
0.000317086
1.81477e-10
0.00165616
0.000261831
1.15568e-10
0.0015052
0.00021868
6.5875e-11
0.00138773
0.00019518
4.93907e-11
0.00132596
0.000186846
5.86062e-11
0.00128976
0.000185577
7.86867e-11
0.00127511
0.000186863
1.06679e-10
0.00127525
0.000190904
1.61026e-10
0.00128053
0.000195672
-2.19812e-11
0.00137036
0.000205702
5.78039e-11
0.00140151
0.000219188
9.47554e-11
0.00136291
0.000221241
-3.51098e-11
0.00129892
0.000222291
2.32128e-12
0.00118036
0.000223002
-7.11686e-11
0.00108223
0.000225481
-8.96392e-13
0.000993896
0.000233708
5.87712e-11
0.000894422
0.000246728
1.3332e-10
0.000757551
0.000263703
1.95694e-10
0.0005844
0.000282826
2.53364e-10
0.000393811
0.00030767
2.59575e-10
0.000162814
0.000339363
2.28005e-10
0.000369264
-1.90141e-11
0.00165268
-1.72186e-05
6.55439e-11
0.00175605
7.19471e-06
7.81368e-11
0.00182835
0.000466465
1.99301e-10
0.00178385
0.000405235
1.61911e-10
0.00165424
0.000340917
1.04467e-10
0.00150745
0.000287113
5.34381e-11
0.00139453
0.000258051
4.25589e-11
0.00133532
0.000248308
6.19112e-11
0.00130184
0.000247712
8.05703e-11
0.00128881
0.000250481
9.67673e-11
0.00128782
0.000255818
1.13305e-10
0.00128681
0.000261137
2.39301e-11
0.00137198
0.000273224
4.21373e-11
0.00140728
0.000290005
1.06356e-11
0.00137408
0.00029363
-2.1302e-11
0.00131374
0.000296402
-2.24889e-11
0.00119896
0.000296404
-2.96493e-11
0.00109867
0.000299688
-1.24539e-11
0.00100909
0.000309952
8.5536e-11
0.000908104
0.000327934
1.36514e-10
0.000772734
0.000352603
1.75295e-10
0.000599337
0.000380097
2.41883e-10
0.000407071
0.000415949
2.54235e-10
0.000171684
0.000463765
2.31318e-10
0.000506987
7.68159e-12
0.00165939
-2.28683e-05
1.60958e-11
0.00175715
1.28633e-05
5.54606e-11
0.00183401
0.00061511
2.22786e-10
0.00178567
0.000494449
1.63873e-10
0.00165676
0.00040485
8.63416e-11
0.00151543
0.000348589
4.00181e-11
0.00140731
0.000319086
3.59662e-11
0.00134994
0.000310462
6.58256e-11
0.00131915
0.000311405
7.87618e-11
0.00130747
0.000315779
6.67913e-11
0.0013043
0.000321834
5.15413e-11
0.00129519
0.000326365
1.09586e-10
0.00137275
0.000340993
5.72454e-12
0.0014136
0.000358763
3.02502e-12
0.00138774
0.0003656
-5.2945e-12
0.00133215
0.000370265
-6.37423e-11
0.00122294
0.000370038
4.80058e-11
0.00111912
0.000373164
1.61056e-11
0.00102874
0.000384929
9.83349e-11
0.00092661
0.000407873
1.30774e-10
0.00079237
0.000441711
1.66006e-10
0.000619974
0.000479322
2.1939e-10
0.000426686
0.000528835
2.33522e-10
0.000185629
0.000597643
2.33619e-10
0.000660056
3.43034e-11
0.00166692
-2.56156e-05
3.22101e-11
0.00175216
2.16444e-05
6.08225e-11
0.00184508
0.00075827
2.20962e-10
0.00180233
0.000590162
1.39223e-10
0.00166484
0.000458974
4.6653e-11
0.00153073
0.000404016
2.86311e-11
0.00142667
0.000380635
3.41927e-11
0.00137016
0.000374869
6.51316e-11
0.0013416
0.000377926
8.49483e-11
0.00133054
0.000383522
4.2116e-11
0.00132385
0.000389155
1.79799e-11
0.00130638
0.000391385
1.31627e-10
0.00137575
0.000404977
-9.7775e-11
0.00142121
0.000426432
3.11579e-11
0.00140335
0.000436846
-2.70863e-12
0.00135223
0.000443189
-6.86551e-11
0.0012513
0.000443265
8.67655e-11
0.00114328
0.000445609
4.46235e-11
0.00105274
0.000458649
8.98051e-11
0.000950981
0.000486048
1.21735e-10
0.000817846
0.000530448
1.62795e-10
0.000647612
0.000579621
2.00952e-10
0.000454384
0.00064677
1.98922e-10
0.000206654
0.00074212
2.40523e-10
0.000834491
7.61534e-11
0.00167994
-2.68301e-05
7.91888e-12
0.00175032
3.09913e-05
4.21129e-11
0.00187952
0.000866247
2.04699e-10
0.00183844
0.000703802
1.3426e-10
0.00168613
0.00051346
2.76885e-11
0.00155665
0.000459543
2.38461e-11
0.0014538
0.000446493
3.3669e-11
0.00139592
0.000443919
5.84146e-11
0.0013683
0.000448195
7.28808e-11
0.00135665
0.000453683
3.59328e-11
0.00134548
0.000457424
2.80528e-11
0.00132064
0.000456247
1.4045e-10
0.00137847
0.000467808
-2.02894e-10
0.00142974
0.000491706
9.15146e-11
0.00142086
0.000506468
5.01534e-12
0.00137379
0.000514227
-2.81739e-11
0.00128499
0.000515892
7.23987e-11
0.00117218
0.000516802
7.50759e-11
0.00108156
0.000530892
2.69077e-11
0.000981351
0.000562166
1.00066e-10
0.000850038
0.000616742
1.49019e-10
0.000684755
0.000680567
1.87553e-10
0.000493135
0.000768679
1.74626e-10
0.000239238
0.000897823
2.39206e-10
0.00104095
1.12022e-10
0.00170053
-2.9517e-05
1.25097e-11
0.00175889
3.47877e-05
4.12678e-11
0.00195893
0.000899972
1.83577e-10
0.00190663
0.000845313
1.25712e-10
0.00173272
0.000587914
2.83474e-11
0.00159703
0.000533371
2.13615e-11
0.00148882
0.000523605
3.0945e-11
0.00142663
0.00052023
4.83522e-11
0.00139816
0.000523266
5.88846e-11
0.00138453
0.000526689
3.59614e-11
0.00136824
0.000527026
4.93748e-11
0.00133739
0.000521646
1.34392e-10
0.00138026
0.00052925
-2.82531e-10
0.00143853
0.000554149
1.29401e-10
0.00143967
0.000573927
1.83861e-11
0.00139704
0.000583063
1.96696e-11
0.00132265
0.000586924
1.667e-11
0.00120642
0.000587519
1.02225e-10
0.00111532
0.000600765
-4.74835e-12
0.00101863
0.000634212
1.21763e-10
0.000890529
0.000698768
1.03273e-10
0.000736119
0.000780302
1.26959e-10
0.000546822
0.000893882
1.59831e-10
0.000289834
0.00106185
2.31867e-10
0.00129504
1.41071e-10
0.00172733
-3.1746e-05
8.99748e-12
0.00177057
3.11234e-05
3.87736e-11
0.00210152
0.000803274
1.76816e-10
0.00202999
0.000997746
9.28805e-11
0.00181132
0.000708281
1.7646e-11
0.00165281
0.000644713
2.06108e-11
0.00153001
0.000619372
3.04319e-11
0.00146053
0.000605931
4.2563e-11
0.00142951
0.000603587
4.73572e-11
0.00141286
0.000602591
3.97481e-11
0.00139153
0.000598106
4.58057e-11
0.00135613
0.000587996
8.13967e-11
0.00138041
0.000589303
-2.12127e-10
0.00144643
0.000613732
5.49901e-11
0.0014586
0.000638256
3.96753e-11
0.00142255
0.000649672
2.74266e-11
0.0013596
0.00065695
-1.18047e-11
0.00124636
0.000656994
9.18161e-11
0.00115387
0.000667432
-4.63755e-12
0.00106137
0.000700887
1.16771e-10
0.000946432
0.000771154
7.38368e-11
0.000804643
0.000875657
7.68716e-11
0.000620974
0.00101523
1.32842e-10
0.000371297
0.00122855
2.09855e-10
0.00162463
1.5922e-10
0.00176415
-5.09778e-12
-3.9416e-05
0.0018097
3.31987e-11
5.64926e-06
0.0023615
1.93097e-10
0.000458023
0.00220868
7.83061e-11
0.00116639
0.00190456
1.98015e-12
0.000904158
0.00170773
1.73355e-11
0.000791849
0.00156942
2.9485e-11
0.000730808
0.00149349
3.80363e-11
0.000699342
0.00146005
3.77474e-11
0.000687852
0.00144024
2.95623e-11
0.000680779
0.00141454
3.62006e-11
0.000670393
0.00137606
4.23537e-11
0.000654786
0.00138034
-7.74104e-11
0.000647465
0.00145231
-2.61403e-11
0.000669492
0.00147702
4.52718e-11
0.000699008
0.00145014
4.09427e-11
0.000714168
0.00139939
-4.28686e-11
0.000724813
0.00129166
7.19107e-11
0.000723965
0.00119789
2.1445e-12
0.00073018
0.0011099
7.24507e-11
0.000761923
0.0010165
3.6216e-11
0.000830477
0.000894404
9.51328e-11
0.000944894
0.000733056
1.11015e-10
0.0011193
0.000504436
1.50462e-10
0.00139123
1.49883e-10
0.00208566
0.00164793
-2.26506e-06
-4.87535e-11
0.00176165
1.6028e-06
-1.25514e-11
0.00183727
9.84848e-05
5.00359e-11
0.00180475
0.000115225
5.05094e-12
0.00165953
8.89867e-05
-4.46816e-11
0.00150783
7.27217e-05
4.26519e-13
0.00138679
6.45147e-05
-6.87294e-12
0.00132212
6.2258e-05
-3.27889e-11
0.00128274
6.17865e-05
-2.61771e-11
0.00126568
6.18746e-05
-2.71906e-11
0.00126636
6.3153e-05
-1.21795e-10
0.00127495
6.48444e-05
-8.47784e-11
0.00136588
6.90276e-05
-1.40834e-10
0.00139403
7.43297e-05
-1.04794e-10
0.00134947
7.5007e-05
2.38127e-11
0.00128068
7.48761e-05
-9.90514e-13
0.00115911
7.45947e-05
1.12371e-10
0.00106373
7.52461e-05
1.22721e-10
0.000977959
7.81182e-05
1.51647e-10
0.000880966
8.22341e-05
7.49998e-12
0.000742192
8.73354e-05
-3.58247e-11
0.000570354
9.32914e-05
-7.79144e-11
0.00038353
0.000100548
-9.3032e-11
0.000157544
0.0001093
-1.8323e-10
0.000120365
-3.94035e-11
0.00165053
-9.32328e-06
2.77961e-11
0.00176576
6.49113e-07
1.93168e-11
0.00183858
0.000203251
5.9861e-11
0.00179863
0.000228221
-2.44304e-11
0.00165668
0.000176285
-4.30776e-11
0.00150527
0.000145627
-1.81887e-12
0.00138524
0.00013008
1.70649e-12
0.0013214
0.000124974
-1.77832e-11
0.0012831
0.000123756
-2.69072e-11
0.00126691
0.000124098
-4.22767e-11
0.00126759
0.000126644
-1.4961e-10
0.00127564
0.000129948
9.25538e-12
0.00136714
0.000137313
-1.10051e-10
0.00139653
0.000147045
-1.58505e-10
0.00135485
0.000148455
3.31232e-11
0.00128811
0.000148862
-8.11809e-12
0.0011677
0.000148957
1.18875e-10
0.00107125
0.000150727
1.18331e-10
0.000984312
0.000156377
1.44201e-10
0.000886056
0.000164911
6.90395e-12
0.000747822
0.000175423
-3.73348e-11
0.00057508
0.000187625
-8.17488e-11
0.000386233
0.000202999
-1.0155e-10
0.000157929
0.00022222
-1.75658e-10
0.00024192
-3.87362e-11
0.0016515
-1.5661e-05
-6.70731e-12
0.00176193
1.84262e-06
1.15164e-11
0.00183522
0.000325524
7.82812e-11
0.00178529
0.000317067
-7.44867e-11
0.00165627
0.000261779
-2.96964e-11
0.00150543
0.000218615
6.71073e-12
0.00138802
0.000195095
4.4821e-12
0.00132629
0.000186744
-1.55517e-11
0.00129014
0.000185452
-4.23717e-11
0.00127549
0.000186703
-6.60698e-11
0.00127566
0.000190698
-1.40874e-10
0.00128053
0.00019539
2.75286e-11
0.00137006
0.000205395
-8.56412e-11
0.00140159
0.000219051
-1.39409e-10
0.00136313
0.000221332
1.42511e-11
0.00129915
0.000222486
-1.10726e-11
0.00118058
0.000223269
9.7084e-11
0.00108237
0.000225685
8.54093e-11
0.000993974
0.000233878
9.40062e-11
0.000894537
0.000246821
5.95969e-12
0.000757543
0.000263765
-3.90675e-11
0.000584425
0.000282861
-8.63778e-11
0.000393876
0.000307675
-1.0972e-10
0.000162842
0.00033936
-1.76062e-10
0.000369285
-4.45544e-11
0.00165272
-1.72525e-05
-4.71811e-11
0.00175617
7.17419e-06
6.28172e-13
0.0018285
0.000466455
1.07021e-10
0.00178388
0.000405248
-6.51902e-11
0.00165429
0.000340877
-3.41539e-11
0.00150757
0.000287029
1.45123e-11
0.00139469
0.000257932
1.13422e-11
0.0013355
0.00024816
-1.47365e-11
0.00130202
0.000247555
-4.93357e-11
0.00128896
0.000250304
-5.54904e-11
0.00128798
0.000255613
-6.34091e-11
0.00128663
0.000260864
-5.1393e-11
0.00137158
0.000272937
-7.36288e-11
0.00140701
0.00028998
-2.77315e-11
0.00137382
0.000293776
-1.11132e-11
0.00131349
0.000296608
-8.72704e-13
0.00119874
0.000296709
4.55053e-11
0.00109856
0.000299924
5.7946e-11
0.00100901
0.000310131
2.22205e-11
0.000908144
0.000328062
-8.21501e-12
0.000772678
0.000352681
-3.6936e-11
0.000599318
0.000380121
-9.18746e-11
0.000407115
0.000415943
-1.20177e-10
0.000171711
0.000463742
-1.77228e-10
0.00050699
-5.57665e-11
0.00165939
-2.28659e-05
-1.44201e-11
0.00175716
1.2856e-05
1.72003e-11
0.00183408
0.000615084
1.16204e-10
0.00178568
0.000494469
-1.18785e-10
0.00165679
0.000404824
-3.9931e-11
0.00151546
0.000348502
2.60129e-11
0.00140734
0.000318959
2.33755e-11
0.00134999
0.00031031
-1.57948e-11
0.00131917
0.000311249
-4.51803e-11
0.00130744
0.000315606
-2.47673e-11
0.00130428
0.000321653
7.66166e-12
0.00129516
0.000326176
-1.31645e-10
0.00137276
0.000340925
5.65528e-12
0.00141343
0.000358874
-1.63107e-11
0.00138738
0.000365834
-4.59586e-11
0.00133172
0.000370544
3.28377e-11
0.00122242
0.000370319
-4.30765e-11
0.00111875
0.000373374
2.45023e-11
0.00102847
0.000385073
-3.64253e-13
0.00092652
0.000407968
-1.72489e-11
0.000792261
0.000441752
-4.2088e-11
0.000619927
0.000479317
-8.76165e-11
0.000426716
0.000528791
-1.15836e-10
0.000185658
0.000597583
-1.79946e-10
0.000660028
-6.61207e-11
0.00166695
-2.56356e-05
-2.4231e-11
0.00175222
2.16282e-05
1.98052e-11
0.00184518
0.000758262
1.99489e-10
0.00180236
0.00059021
-1.1622e-10
0.00166488
0.000458979
-1.61186e-11
0.00153074
0.000403942
3.01054e-11
0.00142667
0.000380519
2.43364e-11
0.00137014
0.000374742
-1.26283e-11
0.00134151
0.000377795
-4.54544e-11
0.00133037
0.00038339
-4.23525e-13
0.00132366
0.000389057
2.27296e-11
0.00130621
0.000391331
-1.68337e-10
0.00137573
0.000405004
1.59469e-10
0.00142095
0.000426648
-8.8128e-11
0.00140285
0.000437111
-4.95924e-11
0.00135172
0.000443423
4.48087e-11
0.00125069
0.000443537
-1.25305e-10
0.00114285
0.000445721
7.76181e-12
0.00105239
0.000458706
-3.78836e-13
0.000950806
0.000486054
-1.81689e-11
0.000817677
0.000530437
-5.54495e-11
0.00064755
0.000579578
-8.91273e-11
0.000454395
0.000646685
-9.80148e-11
0.000206677
0.000742011
-1.85081e-10
0.000834426
-8.09979e-11
0.00167995
-2.68279e-05
-1.05082e-11
0.00175034
3.09894e-05
5.53198e-11
0.0018796
0.000866261
3.0824e-10
0.00183847
0.000703854
-1.54701e-10
0.00168617
0.000513468
-2.42367e-11
0.00155665
0.000459486
2.56496e-11
0.00145379
0.000446403
2.2288e-11
0.00139588
0.000443832
-4.45812e-12
0.00136818
0.000448113
-2.73845e-11
0.00135645
0.000453618
7.8268e-12
0.00134525
0.00045741
8.74109e-12
0.00132042
0.000456309
-1.85356e-10
0.00137858
0.00046797
3.21759e-10
0.00142943
0.000492083
-2.0215e-10
0.00142015
0.000506737
-5.6164e-11
0.00137307
0.000514376
9.21071e-12
0.0012839
0.000515922
-9.61517e-11
0.00117158
0.000516731
-3.63879e-11
0.00108117
0.000530813
4.31507e-11
0.000981179
0.000562093
-1.525e-11
0.000849875
0.000616655
-5.16677e-11
0.000684671
0.000680479
-8.78273e-11
0.00049313
0.000768578
-8.71404e-11
0.000239255
0.000897659
-1.7891e-10
0.00104084
-9.3987e-11
0.00170055
-2.95214e-05
-1.45098e-11
0.00175893
3.47862e-05
6.89821e-11
0.00195903
0.000899998
4.0996e-10
0.0019067
0.000845386
-1.87046e-10
0.00173277
0.000587924
-7.07072e-11
0.00159704
0.000533329
8.40127e-12
0.00148881
0.000523548
2.16175e-11
0.00142659
0.000520185
4.4258e-12
0.00139803
0.00052324
-1.20102e-11
0.00138434
0.000526697
1.03832e-11
0.00136802
0.000527086
-4.61233e-12
0.00133716
0.00052176
-1.553e-10
0.0013807
0.000529592
3.19986e-10
0.00143837
0.000554634
-1.8762e-10
0.00143894
0.000574175
-8.34638e-11
0.00139618
0.000583093
-2.51658e-11
0.00132142
0.000586741
-2.65365e-11
0.00120561
0.000587238
-7.34563e-11
0.00111485
0.000600578
5.91081e-11
0.00101842
0.000634084
-4.47169e-11
0.00089045
0.00069864
-2.6438e-11
0.00073606
0.000780183
-4.88547e-11
0.000546807
0.000893757
-8.23602e-11
0.000289849
0.00106165
-1.68171e-10
0.00129488
-1.05003e-10
0.00172735
-3.17598e-05
-1.25146e-11
0.00177059
3.11162e-05
7.63176e-11
0.00210165
0.000803269
4.6196e-10
0.00203013
0.000997853
-1.85508e-10
0.0018114
0.00070832
-9.80405e-11
0.00165284
0.000644702
-1.16788e-11
0.00153001
0.000619353
1.72154e-11
0.00146049
0.000605925
7.25848e-12
0.0014294
0.000603618
-4.18208e-13
0.0014127
0.000602664
8.58665e-12
0.00139133
0.000598222
-2.35287e-13
0.00135587
0.000588153
-9.18299e-11
0.00138097
0.000589765
1.97504e-10
0.00144645
0.000614263
-1.01205e-10
0.00145799
0.000638493
-8.66581e-11
0.00142175
0.000649629
-3.12061e-11
0.00135845
0.000656672
1.83285e-13
0.00124551
0.000656626
-5.86482e-11
0.00115339
0.000667197
4.89917e-11
0.00106112
0.000700705
-4.18973e-11
0.00094638
0.000771013
-1.47651e-11
0.000804634
0.000875535
-2.01634e-11
0.000620942
0.00101507
-6.71622e-11
0.000371304
0.00122834
-1.47248e-10
0.00162441
-1.1375e-10
0.00176417
-4.8045e-12
-3.94257e-05
0.00180971
8.95297e-11
5.63248e-06
0.00236166
5.50587e-10
0.000457933
0.00220885
-1.05445e-10
0.00116651
0.00190467
-6.49227e-11
0.000904247
0.00170778
-5.92809e-12
0.000791879
0.00156943
1.60193e-11
0.000730822
0.00149346
1.53731e-11
0.000699368
0.00145996
7.552e-12
0.00068793
0.00144012
1.98331e-11
0.000680913
0.00141439
3.74015e-12
0.00067057
0.00137584
-5.1543e-11
0.000654991
0.00138081
7.50161e-11
0.00064794
0.00145249
-2.13076e-11
0.000670007
0.00147662
-6.25672e-11
0.000699217
0.0014495
-3.95315e-11
0.000714107
0.00139855
2.29891e-11
0.000724579
0.00129093
-3.1213e-11
0.000723638
0.00119747
4.12839e-11
0.00072995
0.00110966
-1.1165e-11
0.000761735
0.00101643
7.97827e-12
0.000830356
0.000894391
-4.21385e-11
0.000944735
0.000733056
-5.55893e-11
0.00111912
0.00050445
-9.64147e-11
0.00139103
-1.05246e-10
0.0020854
0.00164791
-2.22745e-06
6.19295e-12
0.00176157
1.6379e-06
3.43474e-11
0.00183719
9.85045e-05
1.06741e-10
0.00180475
0.000115187
7.19971e-11
0.00165958
8.89603e-05
-6.1149e-12
0.00150788
7.271e-05
-7.41905e-12
0.00138684
6.45066e-05
-1.15106e-11
0.00132219
6.2259e-05
-1.18912e-11
0.00128285
6.1797e-05
-1.92508e-11
0.00126578
6.18941e-05
-2.56548e-11
0.00126635
6.31981e-05
-3.43452e-11
0.0012751
6.4905e-05
-3.83678e-11
0.00136601
6.91497e-05
-5.08171e-11
0.00139383
7.4463e-05
-1.17514e-10
0.00134907
7.50802e-05
-1.04103e-10
0.00128018
7.48623e-05
-8.30675e-11
0.00115864
7.45343e-05
-3.29725e-11
0.00106343
7.5176e-05
6.34385e-12
0.000977768
7.80574e-05
3.55966e-11
0.000880813
8.21777e-05
7.65672e-11
0.000742144
8.72895e-05
9.23174e-11
0.000570291
9.32562e-05
1.02703e-10
0.00038347
0.000100525
9.19882e-11
0.000157516
0.000109296
8.5575e-11
0.000120349
5.10036e-11
0.00165056
-9.34407e-06
4.64417e-13
0.00176581
6.46079e-07
3.08698e-11
0.00183865
0.000203307
1.22671e-10
0.00179858
0.000228216
5.87408e-11
0.00165658
0.000176295
-1.13921e-12
0.00150508
0.00014565
-6.00282e-12
0.00138499
0.000130127
-1.26964e-11
0.0013211
0.000125051
-1.30409e-11
0.00128274
0.000123869
-2.01609e-11
0.00126647
0.000124239
-2.35316e-11
0.00126702
0.000126832
-3.42726e-11
0.00127547
0.000130196
-6.34565e-11
0.00136714
0.000137613
-5.45353e-11
0.00139593
0.000147186
-1.16488e-10
0.00135404
0.000148394
-1.03888e-10
0.00128733
0.000148663
-8.21161e-11
0.00116707
0.000148699
-3.23436e-11
0.00107089
0.000150539
6.70708e-12
0.000984102
0.000156216
3.70523e-11
0.000885904
0.000164815
7.61895e-11
0.00074778
0.000175335
9.16047e-11
0.000575021
0.000187556
1.01927e-10
0.00038617
0.000202957
9.20977e-11
0.000157897
0.000222204
8.44422e-11
0.000241886
4.96029e-11
0.00165151
-1.56913e-05
3.10894e-12
0.00176193
1.83112e-06
3.50153e-11
0.00183527
0.000325606
1.09742e-10
0.0017853
0.000317057
9.71093e-12
0.00165621
0.000261825
6.13234e-12
0.00150529
0.000218677
-3.02042e-12
0.00138783
0.000195186
-1.43166e-11
0.00132606
0.00018687
-1.60927e-11
0.00128986
0.000185625
-2.06733e-11
0.0012752
0.000186922
-2.28222e-11
0.00127532
0.000190972
-2.8926e-11
0.0012806
0.000195764
-7.53978e-11
0.00137036
0.000205752
-5.64695e-11
0.00140145
0.000219169
-1.01834e-10
0.00136283
0.000221193
-9.76194e-11
0.00129883
0.000222222
-8.00992e-11
0.00118029
0.000222948
-2.5505e-11
0.00108221
0.000225428
6.63766e-12
0.000993881
0.000233664
5.81305e-11
0.000894439
0.00024667
7.56984e-11
0.000757541
0.000263646
8.99431e-11
0.000584397
0.000282773
9.98701e-11
0.00039383
0.000307621
9.14474e-11
0.000162815
0.000339336
8.28755e-11
0.00036924
4.63744e-11
0.00165271
-1.72304e-05
1.71505e-12
0.00175611
7.19264e-06
3.809e-11
0.00182847
0.000466523
1.11687e-10
0.00178387
0.000405246
6.28191e-12
0.00165428
0.000340899
-1.57909e-12
0.00150752
0.000287094
-5.27501e-12
0.00139462
0.000258039
-1.87493e-11
0.00133541
0.000248312
-1.93173e-11
0.00130194
0.000247743
-2.01111e-11
0.00128891
0.000250535
-2.34572e-11
0.0012879
0.000255882
-2.94392e-11
0.00128677
0.000261198
-8.74522e-11
0.00137182
0.000273235
-8.61763e-11
0.00140714
0.000289987
-8.67072e-11
0.00137394
0.000293588
-9.41668e-11
0.00131361
0.000296349
-6.53964e-11
0.00119887
0.000296365
-2.94792e-11
0.00109868
0.000299668
1.60215e-11
0.00100911
0.000309923
6.50004e-11
0.000908155
0.000327909
8.13987e-11
0.000772745
0.000352566
8.85399e-11
0.000599347
0.000380043
9.7804e-11
0.000407097
0.000415895
9.07504e-11
0.000171691
0.000463722
7.98738e-11
0.000506947
3.95789e-11
0.00165941
-2.28657e-05
5.6121e-13
0.00175717
1.28683e-05
3.70921e-11
0.00183411
0.000615157
1.16715e-10
0.00178573
0.000494479
-1.68439e-11
0.00165681
0.000404836
-1.08854e-11
0.00151549
0.000348561
-1.2254e-11
0.00140738
0.000319061
-2.42208e-11
0.00135002
0.000310449
-2.10042e-11
0.00131924
0.000311418
-2.0342e-11
0.00130756
0.00031581
-2.70812e-11
0.0013044
0.00032186
-5.92426e-11
0.00129527
0.000326376
-4.22049e-11
0.00137284
0.000341049
-8.85079e-11
0.00141364
0.000358791
-9.50112e-11
0.00138774
0.000365615
-9.41379e-11
0.0013321
0.000370305
-5.75573e-11
0.00122288
0.000370021
-2.7378e-11
0.0011191
0.0003732
3.53554e-11
0.00102875
0.000384929
6.5829e-11
0.000926649
0.000407868
8.12148e-11
0.000792386
0.000441676
8.41037e-11
0.000619991
0.000479265
9.12327e-11
0.000426719
0.000528766
8.53667e-11
0.000185643
0.000597581
7.53773e-11
0.000660002
3.17035e-11
0.00166696
-2.56239e-05
-1.03919e-12
0.0017522
2.16452e-05
3.31267e-11
0.00184521
0.000758303
1.22788e-10
0.0018024
0.000590214
-2.61924e-11
0.00166491
0.000458962
-1.15811e-11
0.0015308
0.000403981
-1.59975e-11
0.00142674
0.000380602
-2.81287e-11
0.00137023
0.000374847
-1.86337e-11
0.00134167
0.000377922
-2.05151e-11
0.0013306
0.000383532
-4.52285e-11
0.00132391
0.000389177
-6.06804e-11
0.00130635
0.000391404
-1.93015e-11
0.00137562
0.000404971
-1.22871e-10
0.00142117
0.000426419
-7.68083e-11
0.0014034
0.000436906
-8.52574e-11
0.00135228
0.000443278
-7.18197e-11
0.00125138
0.00044338
1.90524e-11
0.0011433
0.000445681
2.70885e-11
0.00105275
0.000458672
5.84597e-11
0.000950994
0.000486038
8.12084e-11
0.000817858
0.000530406
8.29224e-11
0.00064763
0.000579556
8.39085e-11
0.000454417
0.000646688
7.43012e-11
0.000206671
0.00074204
7.12206e-11
0.000834427
3.23267e-11
0.00167997
-2.68292e-05
-3.8067e-12
0.00175035
3.09943e-05
2.56928e-11
0.00187968
0.000866233
1.35027e-10
0.00183854
0.000703882
-4.43333e-11
0.00168621
0.000513458
-1.79167e-11
0.00155673
0.000459513
-2.0778e-11
0.00145388
0.000446462
-2.76435e-11
0.00139598
0.000443894
-1.64699e-11
0.00136835
0.000448179
-2.06696e-11
0.00135671
0.000453682
-5.19545e-11
0.00134553
0.00045745
-5.68881e-11
0.00132062
0.000456303
1.21563e-12
0.00137824
0.00046775
-2.04919e-10
0.00142961
0.00049174
-5.32762e-12
0.00142082
0.00050658
-7.10056e-11
0.00137379
0.000514347
-5.83653e-11
0.00128505
0.000516039
1.07014e-11
0.00117221
0.000516876
3.46999e-11
0.00108159
0.00053091
1.12431e-11
0.000981371
0.000562138
7.00087e-11
0.000850044
0.000616684
7.26925e-11
0.000684773
0.000680495
8.19669e-11
0.000493165
0.000768594
6.51009e-11
0.000239254
0.000897729
6.59657e-11
0.00104088
3.55279e-11
0.00170057
-2.9519e-05
-6.06925e-12
0.00175894
3.47857e-05
2.58536e-11
0.00195914
0.000899889
1.42311e-10
0.00190678
0.000845427
-5.99764e-11
0.00173284
0.000587931
-3.72932e-11
0.00159713
0.000533363
-2.66975e-11
0.0014889
0.000523584
-2.56264e-11
0.00142669
0.000520208
-1.6194e-11
0.0013982
0.00052325
-1.52834e-11
0.00138457
0.000526687
-4.50419e-11
0.00136828
0.000527046
-5.36427e-11
0.00133741
0.000521701
-1.72428e-12
0.00138023
0.000529259
-1.96848e-10
0.00143848
0.000554268
-1.22469e-12
0.0014396
0.000574083
-4.58101e-11
0.00139696
0.000583198
-4.78484e-11
0.00132258
0.000587022
-2.08536e-11
0.00120636
0.000587549
5.44555e-11
0.00111531
0.000600755
9.8119e-12
0.00101865
0.000634171
8.51583e-11
0.000890557
0.000698698
5.03457e-11
0.000736145
0.000780224
5.77787e-11
0.000546851
0.000893797
5.94666e-11
0.000289852
0.00106175
6.02745e-11
0.00129494
3.85494e-11
0.00172738
-3.17559e-05
-6.54864e-12
0.00177061
3.111e-05
2.62365e-11
0.00210181
0.000803056
1.92988e-10
0.00203023
0.000997861
-7.07523e-11
0.00181148
0.000708355
-4.84954e-11
0.00165292
0.000644739
-2.13507e-11
0.00153008
0.000619371
-2.41324e-11
0.00146058
0.000605916
-1.51754e-11
0.00142954
0.000603579
-1.30052e-11
0.00141288
0.000602594
-3.76964e-11
0.00139154
0.000598122
-5.14031e-11
0.00135611
0.000588042
-1.65076e-11
0.00138053
0.000589386
-1.22765e-10
0.00144647
0.000613928
-2.50135e-11
0.00145853
0.000638456
-4.34373e-11
0.00142244
0.000649811
-5.23886e-11
0.00135944
0.000657016
-3.36617e-11
0.00124623
0.000656987
4.81723e-11
0.00115382
0.000667396
1.24715e-11
0.00106135
0.000700824
6.78419e-11
0.000946461
0.000771081
4.50944e-11
0.00080468
0.000875573
4.7113e-11
0.000621001
0.00101514
4.43824e-11
0.000371316
0.00122845
5.36412e-11
0.00162452
3.98109e-11
0.00176421
-9.51995e-12
-3.94268e-05
0.00180978
2.8979e-11
5.60115e-06
0.00236188
2.01606e-10
0.000457589
0.00220896
-4.60162e-11
0.00116653
0.00190473
-3.2484e-11
0.000904302
0.00170784
-1.57219e-11
0.000791914
0.00156949
-1.66904e-11
0.000730825
0.00149353
-1.32649e-11
0.000699334
0.00146006
-1.23406e-11
0.000687852
0.00144023
-3.52533e-11
0.000680791
0.00141453
-4.62628e-11
0.000670416
0.00137602
-1.48914e-11
0.000654826
0.00138052
-9.16046e-11
0.000647599
0.00145245
-5.07865e-11
0.000669729
0.00147699
-5.09597e-11
0.000699211
0.00145004
-5.83158e-11
0.0007143
0.00139924
-1.13468e-11
0.000724879
0.0012915
1.16567e-11
0.000723948
0.00119781
1.06585e-11
0.000730134
0.00110986
4.20588e-11
0.000761847
0.00101651
3.91989e-11
0.000830406
0.000894431
4.33627e-11
0.0009448
0.000733091
4.22963e-11
0.0011192
0.000504461
4.30628e-11
0.00139114
3.59489e-11
0.00208554
0.00164792
-2.23079e-06
-4.55175e-11
0.00176158
1.63454e-06
4.13693e-12
0.00183721
9.8506e-05
1.7115e-10
0.00180476
0.000115192
1.6906e-11
0.00165956
8.89674e-05
-1.07491e-10
0.00150786
7.27152e-05
-1.98236e-11
0.00138682
6.45097e-05
-1.41439e-12
0.00132216
6.22604e-05
-2.16809e-11
0.00128281
6.17972e-05
-5.70245e-11
0.00126573
6.18938e-05
-9.11403e-11
0.0012663
6.31983e-05
-9.13847e-11
0.00127506
6.4909e-05
-7.19763e-11
0.00136597
6.91481e-05
-2.87269e-11
0.00139381
7.44542e-05
9.63487e-12
0.00134902
7.50754e-05
2.28462e-11
0.00128014
7.48635e-05
2.51828e-11
0.00115861
7.45382e-05
2.48123e-11
0.00106342
7.51809e-05
1.79762e-11
0.000977766
7.80599e-05
-8.64324e-12
0.000880837
8.21753e-05
-2.73587e-11
0.000742135
8.72831e-05
-5.87282e-11
0.000570291
9.32473e-05
-8.44629e-11
0.000383478
0.000100515
-9.2626e-11
0.000157513
0.000109285
-6.71193e-11
0.000120342
5.18327e-11
0.00165057
-9.34329e-06
-4.10733e-11
0.00176581
6.45801e-07
5.34896e-12
0.00183868
0.000203318
1.81148e-10
0.00179856
0.000228208
-1.13319e-11
0.00165657
0.000176305
-9.66899e-11
0.00150507
0.000145657
-1.0069e-11
0.00138499
0.000130127
2.14481e-12
0.0013211
0.000125047
-2.03918e-11
0.00128274
0.000123863
-5.7781e-11
0.00126646
0.000124232
-9.0875e-11
0.00126702
0.000126823
-9.04799e-11
0.00127545
0.000130188
-6.51517e-11
0.00136712
0.000137597
-2.62709e-11
0.00139593
0.000147181
1.03005e-11
0.00135404
0.000148399
2.121e-11
0.00128733
0.000148677
2.49493e-11
0.00116706
0.000148721
2.73151e-11
0.00107089
0.000150552
1.97998e-11
0.000984102
0.000156225
-7.12251e-12
0.000885928
0.000164809
-2.52957e-11
0.00074777
0.000175324
-5.36634e-11
0.000575021
0.00018754
-7.82285e-11
0.000386179
0.000202937
-8.57135e-11
0.000157895
0.000222182
-6.61614e-11
0.000241869
4.1941e-11
0.00165152
-1.56927e-05
-4.00748e-11
0.00176194
1.83178e-06
8.54736e-12
0.00183531
0.000325635
2.30699e-10
0.00178528
0.00031704
-1.30703e-10
0.0016562
0.000261833
-6.27923e-11
0.00150528
0.00021868
8.09563e-12
0.00138783
0.000195179
7.26971e-12
0.00132606
0.000186857
-2.24079e-11
0.00128987
0.000185608
-6.07728e-11
0.00127521
0.0001869
-9.02701e-11
0.00127534
0.000190943
-8.85339e-11
0.0012806
0.000195725
-5.6456e-11
0.00137033
0.000205725
-2.63295e-11
0.00140143
0.000219159
3.73625e-12
0.0013628
0.000221199
1.61598e-11
0.00129879
0.000222247
2.02705e-11
0.00118026
0.000222973
2.7355e-11
0.0010822
0.000225464
2.09993e-11
0.000993883
0.000233684
-5.24716e-12
0.000894468
0.000246681
-2.28487e-11
0.000757534
0.000263638
-4.66401e-11
0.000584396
0.000282752
-6.96483e-11
0.000393838
0.000307593
-7.52545e-11
0.000162814
0.000339304
-6.50303e-11
0.000369214
2.8531e-11
0.00165272
-1.7232e-05
-5.96265e-11
0.00175612
7.19266e-06
8.86759e-12
0.00182851
0.000466548
2.79906e-10
0.00178386
0.000405249
-1.38421e-10
0.00165426
0.000340894
-7.42868e-11
0.00150751
0.000287087
2.16239e-11
0.00139462
0.000258026
7.7119e-12
0.00133542
0.000248293
-2.79708e-11
0.00130195
0.000247721
-6.40929e-11
0.00128891
0.000250505