/*--------------------------------*- C++ -*----------------------------------*\
| =========                 |                                                 |
| \\      /  F ield         | OpenFOAM: The Open Source CFD Toolbox           |
|  \\    /   O peration     | Version:  4.1                                   |
|   \\  /    A nd           | Web:      www.OpenFOAM.org                      |
|    \\/     M anipulation  |                                                 |
\*---------------------------------------------------------------------------*/
FoamFile
{
    version     2.0;
    format      ascii;
    class       volScalarField;
    location    "0.88";
    object      T;
}
// * * * * * * * * * * * * * * * * * * * * * * * * * * * * * * * * * * * * * //

dimensions      [0 0 0 1 0 0 0];

internalField   nonuniform List<scalar> 
52500
(
0.0563837
0.784962
0.935184
0.963261
1.00588
1.07996
1.13964
1.16747
1.17789
1.18934
1.19861
1.19169
1.12872
1.04304
1.00687
1.00259
1.02355
1.06007
1.06815
1.06165
1.05655
1.05992
1.06446
1.06652
1.02059
0.0560115
0.781269
0.935762
0.962193
1.006
1.08049
1.14001
1.16779
1.1781
1.18939
1.19847
1.19128
1.12785
1.04203
1.00596
1.00147
1.02172
1.05856
1.06712
1.06086
1.05555
1.05887
1.06342
1.06544
1.01936
0.0597085
0.775581
0.937457
0.961379
1.00424
1.07888
1.13864
1.16753
1.17832
1.18965
1.19862
1.19191
1.12997
1.04256
1.00484
0.99928
1.01764
1.0556
1.06565
1.06036
1.0549
1.05827
1.06275
1.06495
1.01843
0.0667898
0.76619
0.938996
0.960778
1.00083
1.07535
1.13558
1.16613
1.17803
1.18971
1.19901
1.19409
1.13681
1.04554
1.0048
0.997579
1.01355
1.05204
1.0641
1.05989
1.05399
1.0572
1.06189
1.06436
1.01788
0.0738136
0.752382
0.938548
0.959016
0.999675
1.07105
1.13089
1.16346
1.17724
1.18938
1.19881
1.19594
1.14508
1.04989
1.00474
0.994957
1.00797
1.04633
1.0615
1.05897
1.05296
1.0557
1.06044
1.06327
1.01696
0.0851
0.734603
0.936907
0.955409
0.99926
1.06611
1.12515
1.16053
1.17628
1.18849
1.19799
1.19716
1.15412
1.05622
1.00467
0.991571
1.00167
1.03909
1.05795
1.05747
1.05123
1.05341
1.05765
1.06113
1.01534
0.0985639
0.708992
0.932187
0.949317
0.999558
1.06016
1.11819
1.15708
1.17525
1.18759
1.19705
1.19791
1.162
1.06402
1.00479
0.987654
0.994454
1.02954
1.05256
1.05445
1.04947
1.0504
1.05395
1.0576
1.01224
0.113507
0.67345
0.921642
0.941202
1.00152
1.05339
1.11014
1.15314
1.17393
1.18658
1.19607
1.19828
1.16926
1.07391
1.00576
0.983564
0.986806
1.0182
1.04545
1.05027
1.04602
1.04595
1.04756
1.0505
1.00649
0.131839
0.631968
0.904249
0.93121
1.00478
1.04609
1.1012
1.14889
1.17248
1.18559
1.19504
1.19807
1.17576
1.08612
1.0084
0.97974
0.979219
1.00421
1.03601
1.0449
1.03986
1.03964
1.04049
1.04071
0.994356
0.152958
0.586869
0.865395
0.919696
1.0054
1.03837
1.09258
1.14424
1.17074
1.18461
1.19403
1.19736
1.18125
1.1
1.01321
0.976764
0.971624
0.989879
1.02434
1.03683
1.03372
1.03191
1.02845
1.0247
0.968568
0.0563425
0.78494
0.935143
0.963248
1.00589
1.08
1.13969
1.1675
1.17791
1.18936
1.19861
1.19164
1.12854
1.04297
1.00689
1.00262
1.02357
1.06007
1.06813
1.06162
1.05653
1.05989
1.06441
1.06647
1.02062
0.0560252
0.781263
0.935742
0.96219
1.00599
1.08042
1.13991
1.1677
1.17799
1.18928
1.19841
1.19139
1.12841
1.04236
1.00606
1.00146
1.02161
1.05847
1.06706
1.06082
1.05552
1.05884
1.06338
1.06539
1.01939
0.0597057
0.775562
0.937436
0.961375
1.00424
1.07882
1.13855
1.16742
1.17818
1.18952
1.19858
1.19208
1.13063
1.043
1.00509
0.999427
1.01768
1.05559
1.06564
1.06034
1.05488
1.05824
1.0627
1.0649
1.01845
0.0667485
0.766151
0.938966
0.96077
1.00084
1.07533
1.13554
1.16606
1.17793
1.18962
1.19895
1.19415
1.13722
1.04589
1.00506
0.997827
1.01382
1.0522
1.06416
1.05987
1.05395
1.05717
1.06184
1.06431
1.01789
0.0738043
0.752362
0.938521
0.959011
0.99967
1.07105
1.13089
1.16345
1.1772
1.18932
1.19877
1.19588
1.14483
1.04971
1.00469
0.994965
1.00805
1.04646
1.06155
1.05897
1.05293
1.05568
1.0604
1.06323
1.01697
0.0850795
0.734571
0.936883
0.955405
0.999253
1.06611
1.12515
1.16051
1.17626
1.18848
1.19797
1.19709
1.15382
1.05594
1.00457
0.991555
1.00169
1.0391
1.05791
1.05742
1.0512
1.05338
1.05763
1.0611
1.01534
0.0985596
0.708966
0.932171
0.949315
0.999547
1.06016
1.11818
1.15705
1.17522
1.18758
1.19702
1.19781
1.16162
1.0636
1.00473
0.987786
0.994705
1.02981
1.05266
1.05444
1.04943
1.05037
1.05393
1.05756
1.01223
0.113499
0.673416
0.921635
0.941198
1.00151
1.05338
1.11013
1.15311
1.17389
1.18655
1.19603
1.19818
1.16879
1.07324
1.00566
0.983805
0.987226
1.01876
1.04575
1.05038
1.046
1.04592
1.04753
1.05046
1.00648
0.131834
0.631929
0.904249
0.931203
1.00476
1.04608
1.10118
1.14887
1.17244
1.18557
1.19501
1.19801
1.17536
1.08539
1.00824
0.979988
0.979635
1.00482
1.03639
1.04508
1.03988
1.03963
1.04047
1.04067
0.994339
0.152963
0.586828
0.865398
0.919682
1.00539
1.03836
1.09256
1.14423
1.1707
1.18459
1.19401
1.19733
1.18096
1.09936
1.01301
0.976929
0.971952
0.990342
1.02466
1.037
1.03376
1.03191
1.02844
1.02467
0.968546
0.0563707
0.784936
0.935165
0.963242
1.00588
1.07996
1.13965
1.16747
1.17789
1.18934
1.1986
1.19157
1.12834
1.04289
1.0069
1.0027
1.02374
1.06017
1.06817
1.06162
1.05652
1.05989
1.06442
1.06649
1.02063
0.0560106
0.781245
0.935747
0.962178
1.00599
1.08047
1.13999
1.16776
1.17807
1.18936
1.19844
1.19122
1.12772
1.04201
1.00602
1.00157
1.02188
1.05864
1.06714
1.06083
1.05552
1.05885
1.06339
1.06541
1.01939
0.0597096
0.775554
0.937441
0.96137
1.00423
1.07885
1.13861
1.16749
1.17828
1.18961
1.19859
1.19189
1.12998
1.04262
1.0049
0.99934
1.01769
1.05561
1.06564
1.06034
1.05488
1.05825
1.06272
1.06492
1.01845
0.0667764
0.766152
0.938968
0.960767
1.00083
1.07533
1.13556
1.1661
1.17799
1.18967
1.19896
1.1941
1.13701
1.04572
1.00495
0.997739
1.01374
1.05215
1.06414
1.05987
1.05396
1.05718
1.06186
1.06433
1.0179
0.0738126
0.752344
0.938522
0.959006
0.999669
1.07104
1.13087
1.16345
1.17722
1.18934
1.19879
1.19594
1.14506
1.04986
1.00475
0.994976
1.00802
1.04639
1.06152
1.05896
1.05294
1.05569
1.06042
1.06326
1.01697
0.0850945
0.734553
0.93688
0.955395
0.999253
1.0661
1.12513
1.16052
1.17626
1.18847
1.19798
1.19718
1.15429
1.05637
1.0047
0.991535
1.00159
1.03899
1.05789
1.05743
1.05121
1.0534
1.05764
1.06112
1.01535
0.0985661
0.708935
0.932159
0.949302
0.999551
1.06015
1.11817
1.15706
1.17523
1.18757
1.19702
1.1979
1.16216
1.06424
1.00487
0.987656
0.99442
1.02945
1.05249
1.0544
1.04945
1.05039
1.05394
1.05759
1.01225
0.113509
0.67338
0.921611
0.941185
1.00151
1.05337
1.11012
1.15312
1.17391
1.18655
1.19604
1.19825
1.16925
1.07393
1.00579
0.983589
0.986848
1.01826
1.04547
1.05027
1.046
1.04594
1.04754
1.05048
1.0065
0.131842
0.631889
0.904213
0.931188
1.00477
1.04608
1.10118
1.14887
1.17245
1.18557
1.19502
1.19806
1.1757
1.08599
1.00836
0.979768
0.979284
1.00433
1.0361
1.04494
1.03986
1.03964
1.04048
1.04069
0.994357
0.15297
0.586778
0.86534
0.919671
1.00539
1.03836
1.09256
1.14423
1.17072
1.1846
1.19403
1.19737
1.18117
1.09977
1.0131
0.976769
0.971683
0.989994
1.02444
1.0369
1.03374
1.03192
1.02845
1.02468
0.968565
0.0563671
0.784925
0.935156
0.96323
1.00587
1.07997
1.13966
1.16748
1.17789
1.18935
1.1986
1.19157
1.12833
1.04288
1.00691
1.00271
1.02376
1.06017
1.06817
1.06161
1.05651
1.05988
1.06441
1.06648
1.02062
0.0560106
0.781234
0.935739
0.962168
1.00598
1.08047
1.13999
1.16776
1.17806
1.18936
1.19844
1.19123
1.12774
1.04203
1.00603
1.00158
1.02189
1.05864
1.06713
1.06082
1.05551
1.05884
1.06338
1.0654
1.01939
0.0597079
0.77554
0.937432
0.961364
1.00422
1.07885
1.13861
1.16749
1.17828
1.18961
1.19859
1.19191
1.13002
1.04266
1.00495
0.9994
1.01777
1.05566
1.06566
1.06033
1.05486
1.05824
1.06271
1.06491
1.01845
0.0667756
0.766136
0.938957
0.96076
1.00083
1.07533
1.13556
1.1661
1.17799
1.18966
1.19897
1.19413
1.13713
1.04583
1.00501
0.997779
1.01377
1.05216
1.06414
1.05986
1.05395
1.05717
1.06185
1.06432
1.01789
0.0738126
0.752327
0.938511
0.959001
0.999666
1.07104
1.13087
1.16345
1.17721
1.18933
1.19878
1.19594
1.14511
1.0499
1.00473
0.994919
1.00795
1.04635
1.0615
1.05895
1.05293
1.05568
1.06041
1.06325
1.01697
0.0850956
0.734534
0.936869
0.955389
0.999251
1.0661
1.12514
1.16052
1.17626
1.18847
1.19797
1.19716
1.15417
1.05624
1.00464
0.991509
1.00157
1.03896
1.05785
1.0574
1.0512
1.05339
1.05763
1.06111
1.01534
0.0985693
0.708913
0.932148
0.949296
0.999549
1.06015
1.11818
1.15706
1.17524
1.18758
1.19703
1.19789
1.16195
1.06398
1.00482
0.987724
0.994563
1.02963
1.05257
1.05441
1.04944
1.05038
1.05393
1.05758
1.01224
0.113514
0.673354
0.921599
0.941178
1.00151
1.05337
1.11012
1.15313
1.17392
1.18657
1.19605
1.19825
1.16907
1.07365
1.00576
0.983711
0.987048
1.01853
1.04563
1.05035
1.04601
1.04593
1.04753
1.05048
1.00649
0.131849
0.631864
0.904198
0.93118
1.00476
1.04607
1.10118
1.14888
1.17246
1.18559
1.19503
1.19806
1.17559
1.08579
1.00834
0.979871
0.979436
1.00454
1.03624
1.04502
1.03988
1.03964
1.04047
1.04069
0.99435
0.15298
0.586748
0.865314
0.919667
1.00538
1.03835
1.09255
1.14423
1.17072
1.1846
1.19404
1.19737
1.18113
1.0997
1.0131
0.976813
0.97174
0.990061
1.02449
1.03692
1.03374
1.03192
1.02845
1.02468
0.968558
0.0563898
0.784902
0.935179
0.963216
1.00587
1.07996
1.13964
1.16746
1.17788
1.18934
1.1986
1.19158
1.12836
1.0429
1.00691
1.0027
1.02374
1.06016
1.06816
1.06161
1.05652
1.05989
1.06442
1.06649
1.02061
0.0560308
0.78121
0.93576
0.962158
1.00597
1.08046
1.13997
1.16775
1.17806
1.18936
1.19844
1.19123
1.12775
1.04203
1.00603
1.00157
1.02187
1.05862
1.06712
1.06082
1.05551
1.05884
1.06339
1.06541
1.01938
0.0597278
0.775512
0.937449
0.961365
1.00421
1.07884
1.1386
1.16748
1.17827
1.1896
1.19859
1.19191
1.13002
1.04266
1.00496
0.999405
1.01776
1.05564
1.06565
1.06033
1.05487
1.05824
1.06271
1.06492
1.01844
0.0668059
0.766112
0.938969
0.960758
1.00082
1.07532
1.13554
1.16609
1.17798
1.18966
1.19898
1.19413
1.13705
1.04574
1.00497
0.997746
1.01374
1.05214
1.06413
1.05986
1.05395
1.05717
1.06185
1.06433
1.01789
0.0738348
0.752299
0.93852
0.958998
0.999666
1.07102
1.13086
1.16343
1.1772
1.18933
1.19877
1.19595
1.14526
1.05003
1.00479
0.994961
1.00797
1.04634
1.0615
1.05895
1.05293
1.05568
1.0604
1.06325
1.01697
0.0851247
0.734507
0.936873
0.95538
0.999251
1.06609
1.12512
1.1605
1.17625
1.18846
1.19796
1.19714
1.15413
1.05622
1.00464
0.991511
1.00157
1.03895
1.05784
1.0574
1.0512
1.05339
1.05762
1.06111
1.01535
0.0985906
0.708871
0.932141
0.949284
0.999554
1.06014
1.11816
1.15706
1.17523
1.18758
1.19704
1.19788
1.16185
1.06381
1.00474
0.987676
0.994532
1.02962
1.05257
1.05441
1.04944
1.05037
1.05393
1.05757
1.01225
0.113537
0.673306
0.921578
0.941166
1.00153
1.05336
1.11011
1.15312
1.17391
1.18657
1.19607
1.19826
1.16908
1.0736
1.00571
0.983682
0.987023
1.01851
1.04562
1.05034
1.04601
1.04592
1.04753
1.05047
1.0065
0.131872
0.631814
0.904158
0.931168
1.00478
1.04607
1.10117
1.14887
1.17246
1.18559
1.19504
1.19806
1.17563
1.08586
1.00836
0.979874
0.979431
1.00452
1.03622
1.04501
1.03988
1.03963
1.04047
1.04069
0.994358
0.153003
0.586687
0.865236
0.919668
1.00539
1.03835
1.09255
1.14422
1.17072
1.1846
1.19403
1.19735
1.18118
1.09988
1.0132
0.97685
0.971751
0.990048
1.02447
1.0369
1.03374
1.03191
1.02844
1.02468
0.968566
0.0563825
0.784903
0.93517
0.963215
1.00587
1.07996
1.13965
1.16747
1.17789
1.18935
1.1986
1.19157
1.12832
1.04288
1.0069
1.00271
1.02377
1.06018
1.06817
1.06161
1.05652
1.05989
1.06442
1.06649
1.02061
0.056025
0.781212
0.935751
0.962157
1.00597
1.08046
1.13997
1.16775
1.17806
1.18936
1.19844
1.19123
1.12773
1.04202
1.00602
1.00158
1.02189
1.05864
1.06713
1.06082
1.05551
1.05884
1.06339
1.0654
1.01938
0.0597225
0.775515
0.937441
0.961362
1.00421
1.07884
1.1386
1.16748
1.17827
1.1896
1.19859
1.19191
1.13001
1.04266
1.00496
0.999406
1.01778
1.05566
1.06566
1.06033
1.05487
1.05824
1.06271
1.06491
1.01844
0.0667965
0.766113
0.938962
0.960756
1.00082
1.07532
1.13555
1.16609
1.17798
1.18966
1.19898
1.19413
1.13705
1.04574
1.00497
0.99775
1.01376
1.05216
1.06414
1.05986
1.05395
1.05717
1.06185
1.06433
1.01789
0.0738286
0.752301
0.938513
0.958997
0.999665
1.07103
1.13086
1.16344
1.17721
1.18933
1.19877
1.19595
1.14525
1.05003
1.00479
0.994963
1.00798
1.04636
1.06151
1.05895
1.05294
1.05568
1.06041
1.06325
1.01697
0.0851159
0.734509
0.936868
0.95538
0.999249
1.06609
1.12513
1.16051
1.17625
1.18847
1.19796
1.19714
1.15412
1.05622
1.00463
0.991511
1.00158
1.03896
1.05785
1.05741
1.0512
1.05339
1.05763
1.06112
1.01534
0.0985843
0.708877
0.932138
0.949284
0.999551
1.06014
1.11817
1.15706
1.17523
1.18758
1.19704
1.19788
1.16184
1.0638
1.00473
0.987676
0.994534
1.02963
1.05257
1.05441
1.04944
1.05038
1.05394
1.05758
1.01224
0.11353
0.673314
0.92158
0.941167
1.00152
1.05336
1.11011
1.15312
1.17391
1.18657
1.19607
1.19826
1.16907
1.07359
1.00571
0.983683
0.987026
1.01852
1.04563
1.05034
1.04601
1.04593
1.04754
1.05048
1.0065
0.131865
0.631823
0.904165
0.931169
1.00477
1.04607
1.10117
1.14887
1.17246
1.18559
1.19504
1.19806
1.17562
1.08584
1.00836
0.979875
0.979434
1.00453
1.03623
1.04502
1.03988
1.03964
1.04047
1.04069
0.994356
0.152996
0.586699
0.865253
0.919665
1.00539
1.03835
1.09255
1.14422
1.17072
1.1846
1.19403
1.19735
1.18118
1.09986
1.0132
0.976849
0.971752
0.990053
1.02448
1.03691
1.03374
1.03192
1.02845
1.02468
0.968565
0.056367
0.784925
0.935156
0.96323
1.00587
1.07997
1.13966
1.16748
1.17789
1.18935
1.1986
1.19157
1.12833
1.04289
1.00691
1.00271
1.02376
1.06017
1.06817
1.06161
1.05651
1.05988
1.06441
1.06648
1.02062
0.0560105
0.781234
0.935739
0.962168
1.00598
1.08047
1.13999
1.16776
1.17806
1.18936
1.19844
1.19123
1.12774
1.04203
1.00603
1.00158
1.02189
1.05864
1.06713
1.06082
1.05551
1.05884
1.06338
1.0654
1.01939
0.0597079
0.77554
0.937432
0.961364
1.00422
1.07885
1.13861
1.16749
1.17828
1.18961
1.19859
1.19191
1.13002
1.04266
1.00495
0.9994
1.01777
1.05566
1.06566
1.06033
1.05486
1.05824
1.06271
1.06491
1.01845
0.0667755
0.766136
0.938957
0.96076
1.00083
1.07533
1.13556
1.1661
1.17799
1.18966
1.19897
1.19413
1.13713
1.04583
1.00501
0.997779
1.01377
1.05216
1.06414
1.05986
1.05395
1.05717
1.06185
1.06432
1.01789
0.0738125
0.752327
0.938511
0.959001
0.999666
1.07104
1.13087
1.16345
1.17721
1.18933
1.19878
1.19594
1.14511
1.0499
1.00473
0.994919
1.00795
1.04635
1.0615
1.05895
1.05293
1.05568
1.06041
1.06325
1.01697
0.0850955
0.734534
0.936869
0.955389
0.999251
1.0661
1.12514
1.16052
1.17626
1.18847
1.19797
1.19716
1.15417
1.05624
1.00464
0.991509
1.00157
1.03896
1.05785
1.0574
1.0512
1.05339
1.05763
1.06111
1.01534
0.0985693
0.708913
0.932147
0.949296
0.999548
1.06015
1.11818
1.15706
1.17524
1.18758
1.19703
1.19789
1.16195
1.06398
1.00482
0.987724
0.994563
1.02963
1.05257
1.05441
1.04944
1.05038
1.05393
1.05758
1.01224
0.113513
0.673355
0.921599
0.941178
1.00151
1.05337
1.11012
1.15313
1.17392
1.18657
1.19605
1.19825
1.16907
1.07365
1.00576
0.983711
0.987048
1.01853
1.04563
1.05035
1.04601
1.04593
1.04753
1.05048
1.00649
0.131849
0.631864
0.904198
0.93118
1.00476
1.04607
1.10118
1.14888
1.17246
1.18559
1.19503
1.19806
1.17559
1.08579
1.00834
0.979871
0.979436
1.00454
1.03624
1.04502
1.03988
1.03964
1.04047
1.04069
0.99435
0.15298
0.586748
0.865315
0.919667
1.00538
1.03835
1.09255
1.14423
1.17072
1.1846
1.19404
1.19737
1.18113
1.0997
1.0131
0.976813
0.97174
0.990062
1.02449
1.03692
1.03374
1.03192
1.02845
1.02468
0.968558
0.0563707
0.784936
0.935165
0.963242
1.00588
1.07996
1.13965
1.16747
1.17789
1.18934
1.1986
1.19157
1.12834
1.04289
1.0069
1.0027
1.02374
1.06017
1.06817
1.06162
1.05652
1.05989
1.06442
1.06649
1.02063
0.0560106
0.781245
0.935747
0.962178
1.00599
1.08047
1.13999
1.16776
1.17807
1.18936
1.19844
1.19122
1.12772
1.04201
1.00602
1.00157
1.02188
1.05864
1.06714
1.06083
1.05552
1.05885
1.06339
1.06541
1.01939
0.0597096
0.775554
0.937441
0.96137
1.00423
1.07885
1.13861
1.16749
1.17828
1.18961
1.19859
1.19189
1.12998
1.04262
1.0049
0.99934
1.01769
1.05561
1.06564
1.06034
1.05488
1.05825
1.06272
1.06492
1.01845
0.0667764
0.766152
0.938968
0.960767
1.00083
1.07533
1.13556
1.1661
1.17799
1.18967
1.19896
1.1941
1.13701
1.04572
1.00495
0.997739
1.01374
1.05215
1.06414
1.05987
1.05396
1.05718
1.06186
1.06433
1.0179
0.0738126
0.752344
0.938522
0.959006
0.999669
1.07104
1.13087
1.16345
1.17722
1.18934
1.19879
1.19594
1.14506
1.04986
1.00475
0.994976
1.00802
1.04639
1.06152
1.05896
1.05294
1.05569
1.06042
1.06326
1.01697
0.0850945
0.734553
0.93688
0.955395
0.999253
1.0661
1.12513
1.16052
1.17626
1.18847
1.19798
1.19718
1.15429
1.05637
1.0047
0.991535
1.00159
1.03899
1.05789
1.05744
1.05121
1.0534
1.05764
1.06112
1.01535
0.0985661
0.708935
0.932159
0.949302
0.999551
1.06015
1.11817
1.15706
1.17523
1.18757
1.19702
1.1979
1.16216
1.06424
1.00487
0.987656
0.99442
1.02945
1.05249
1.0544
1.04945
1.05039
1.05394
1.05759
1.01225
0.113509
0.673379
0.921611
0.941185
1.00151
1.05337
1.11012
1.15312
1.17391
1.18655
1.19604
1.19825
1.16925
1.07393
1.00579
0.983589
0.986848
1.01826
1.04547
1.05027
1.046
1.04594
1.04754
1.05048
1.0065
0.131842
0.631889
0.904213
0.931188
1.00477
1.04608
1.10118
1.14887
1.17245
1.18557
1.19502
1.19806
1.1757
1.08599
1.00836
0.979768
0.979284
1.00433
1.0361
1.04494
1.03986
1.03964
1.04048
1.04069
0.994357
0.15297
0.586778
0.86534
0.919671
1.00539
1.03836
1.09256
1.14423
1.17072
1.1846
1.19403
1.19737
1.18117
1.09977
1.0131
0.976769
0.971683
0.989994
1.02444
1.0369
1.03374
1.03192
1.02845
1.02468
0.968565
0.0563424
0.78494
0.935142
0.963248
1.00589
1.08
1.13969
1.1675
1.17791
1.18936
1.19861
1.19164
1.12854
1.04298
1.00689
1.00262
1.02357
1.06007
1.06813
1.06162
1.05653
1.05989
1.06441
1.06647
1.02062
0.0560251
0.781263
0.935741
0.96219
1.00599
1.08042
1.13991
1.1677
1.17799
1.18928
1.19841
1.19139
1.12841
1.04236
1.00606
1.00146
1.02161
1.05847
1.06706
1.06082
1.05552
1.05884
1.06338
1.06539
1.01939
0.0597056
0.775562
0.937436
0.961375
1.00424
1.07882
1.13855
1.16742
1.17818
1.18952
1.19858
1.19208
1.13063
1.043
1.00509
0.999427
1.01768
1.05559
1.06564
1.06034
1.05488
1.05824
1.0627
1.0649
1.01845
0.0667484
0.766151
0.938965
0.96077
1.00084
1.07533
1.13554
1.16606
1.17793
1.18962
1.19895
1.19415
1.13722
1.04589
1.00506
0.997827
1.01382
1.0522
1.06416
1.05987
1.05395
1.05717
1.06184
1.06431
1.01789
0.0738042
0.752362
0.93852
0.959011
0.99967
1.07105
1.13089
1.16345
1.1772
1.18932
1.19877
1.19588
1.14483
1.04971
1.00469
0.994964
1.00805
1.04646
1.06155
1.05897
1.05293
1.05568
1.0604
1.06323
1.01697
0.0850795
0.734571
0.936882
0.955405
0.999253
1.06611
1.12515
1.16051
1.17626
1.18848
1.19797
1.19709
1.15382
1.05594
1.00457
0.991555
1.00169
1.0391
1.05791
1.05742
1.0512
1.05338
1.05763
1.0611
1.01534
0.0985596
0.708965
0.932171
0.949314
0.999547
1.06016
1.11818
1.15705
1.17522
1.18758
1.19702
1.19781
1.16162
1.0636
1.00473
0.987786
0.994705
1.02981
1.05266
1.05444
1.04943
1.05037
1.05393
1.05756
1.01223
0.113499
0.673415
0.921635
0.941198
1.0015
1.05338
1.11013
1.15311
1.17389
1.18655
1.19603
1.19818
1.16879
1.07324
1.00566
0.983805
0.987226
1.01876
1.04575
1.05038
1.046
1.04592
1.04753
1.05046
1.00648
0.131834
0.631929
0.904249
0.931202
1.00476
1.04608
1.10118
1.14887
1.17244
1.18557
1.19501
1.19801
1.17536
1.08539
1.00824
0.979988
0.979635
1.00482
1.03639
1.04508
1.03988
1.03963
1.04047
1.04067
0.994339
0.152963
0.586827
0.865398
0.919682
1.00539
1.03836
1.09256
1.14423
1.1707
1.18459
1.19401
1.19733
1.18096
1.09936
1.01301
0.976929
0.971952
0.990341
1.02466
1.037
1.03376
1.03191
1.02844
1.02467
0.968546
0.0563572
0.784974
0.935149
0.963267
1.00589
1.08
1.1397
1.16751
1.17793
1.18939
1.19862
1.19154
1.12819
1.04274
1.00678
1.00258
1.02362
1.06011
1.06815
1.06164
1.05656
1.05994
1.06452
1.06659
1.02051
0.0559878
0.781279
0.935731
0.962197
1.00601
1.08051
1.14004
1.16781
1.17811
1.18941
1.19846
1.19123
1.12772
1.04197
1.00594
1.00146
1.02173
1.05856
1.06711
1.06085
1.05556
1.05889
1.06349
1.0655
1.01928
0.0596952
0.775599
0.937432
0.961377
1.00425
1.07889
1.13866
1.16754
1.1783
1.18962
1.19861
1.19201
1.13034
1.04282
1.00498
0.999336
1.01758
1.05552
1.06561
1.06035
1.05491
1.05829
1.06282
1.06502
1.01835
0.0667646
0.766201
0.938976
0.960778
1.00085
1.07535
1.13558
1.16612
1.17799
1.18963
1.19897
1.19431
1.13787
1.04619
1.00498
0.997564
1.01342
1.05192
1.06406
1.05987
1.05399
1.05721
1.06195
1.06442
1.01781
0.0737898
0.752394
0.93853
0.959018
0.999683
1.07106
1.1309
1.16346
1.1772
1.18931
1.19875
1.19602
1.14567
1.05025
1.00472
0.994738
1.00761
1.046
1.06134
1.05892
1.05297
1.05572
1.06049
1.06334
1.01689
0.0850753
0.734619
0.936896
0.955416
0.999265
1.06613
1.12518
1.16054
1.17627
1.18847
1.19796
1.19714
1.15405
1.05611
1.00458
0.991492
1.00157
1.03896
1.05785
1.05742
1.05123
1.05342
1.05769
1.06118
1.01528
0.098546
0.70902
0.932188
0.949326
0.999556
1.06018
1.11822
1.1571
1.17526
1.18761
1.19707
1.19788
1.16162
1.06351
1.00472
0.987829
0.994759
1.02986
1.05269
1.05448
1.04947
1.0504
1.05398
1.05764
1.01219
0.113492
0.673484
0.921662
0.941211
1.00151
1.0534
1.11016
1.15317
1.17395
1.18661
1.1961
1.19826
1.16887
1.0733
1.00571
0.983867
0.987276
1.01881
1.04579
1.05043
1.04604
1.04594
1.04756
1.05052
1.00646
0.131824
0.632007
0.904284
0.93122
1.00476
1.0461
1.10122
1.14891
1.17249
1.18562
1.19506
1.19805
1.17553
1.08572
1.00839
0.980008
0.979593
1.0047
1.03636
1.04509
1.03991
1.03964
1.04049
1.04072
0.994328
0.152945
0.586916
0.865457
0.919697
1.0054
1.03838
1.0926
1.14425
1.17074
1.18462
1.19404
1.19733
1.18114
1.09985
1.01324
0.976892
0.971779
0.990054
1.02449
1.03692
1.03376
1.0319
1.02844
1.0247
0.968548
0.18246
0.536699
0.852962
0.919139
1.00311
1.03266
1.08435
1.13848
1.16822
1.18312
1.19268
1.19604
1.18575
1.11567
1.02024
0.974522
0.963932
0.97658
1.01256
1.02955
1.02745
1.02081
1.01191
0.999889
0.891599
0.211053
0.506488
0.856691
0.925391
0.999107
1.02654
1.07692
1.1338
1.16624
1.18179
1.19102
1.19424
1.18806
1.13112
1.03
0.973749
0.955633
0.96136
0.992161
1.01486
1.0169
1.00916
0.993079
0.976244
0.891254
0.239886
0.489115
0.84847
0.929968
0.993926
1.0206
1.06814
1.12765
1.16266
1.17936
1.18839
1.19163
1.18862
1.14645
1.04307
0.97552
0.949841
0.95041
0.974762
1.00199
1.00643
1.00074
0.978367
0.960889
0.899655
0.277551
0.458224
0.835282
0.943138
0.98675
1.01577
1.06087
1.11889
1.1573
1.17628
1.18512
1.18832
1.18692
1.15786
1.06248
0.981203
0.945637
0.939386
0.954388
0.985614
0.994526
0.99188
0.970154
0.950631
0.91414
0.294802
0.451872
0.807904
0.95481
0.986873
1.00872
1.04987
1.10618
1.14912
1.17158
1.18105
1.18428
1.18375
1.16572
1.08483
0.991665
0.94448
0.929689
0.937465
0.966567
0.981813
0.98227
0.968553
0.941019
0.913341
0.312302
0.447327
0.772198
0.962511
0.98135
0.997201
1.03654
1.09229
1.13928
1.16503
1.17595
1.18005
1.18059
1.1712
1.11006
1.0071
0.946337
0.921148
0.922058
0.944275
0.965751
0.97029
0.963474
0.939017
0.911073
0.33133
0.439081
0.730098
0.963488
0.967344
0.985484
1.03038
1.08244
1.12965
1.15811
1.17047
1.17588
1.17815
1.1741
1.13283
1.0284
0.952429
0.915382
0.907866
0.920648
0.949216
0.959923
0.957773
0.940667
0.912092
0.346327
0.422669
0.675172
0.945288
0.946901
0.987398
1.03293
1.06924
1.11342
1.1452
1.1619
1.17063
1.17539
1.17465
1.14862
1.05592
0.964282
0.914315
0.896587
0.901113
0.92601
0.943707
0.946635
0.940544
0.917015
0.353043
0.410409
0.618785
0.870538
0.938016
0.998317
1.03507
1.05636
1.09537
1.13136
1.15359
1.16582
1.17329
1.17468
1.15962
1.08443
0.980832
0.917392
0.888716
0.886512
0.901373
0.929012
0.937731
0.936427
0.924382
0.35897
0.407685
0.558432
0.826318
0.951635
1.00775
1.0354
1.04638
1.07463
1.11676
1.14552
1.16179
1.171
1.17403
1.1666
1.11325
1.005
0.926459
0.884958
0.873885
0.879113
0.904263
0.923765
0.927316
0.923548
0.367592
0.407663
0.522091
0.767465
0.9524
1.00796
1.02272
1.0306
1.05717
1.10045
1.13454
1.15609
1.16736
1.17223
1.16974
1.13719
1.03577
0.941908
0.886434
0.863834
0.863069
0.877589
0.905636
0.916371
0.917124
0.379639
0.409517
0.49369
0.696874
0.950691
0.994768
0.996564
1.01723
1.04315
1.0827
1.12355
1.1506
1.16446
1.16994
1.1697
1.15257
1.07061
0.965187
0.894366
0.85876
0.849745
0.853962
0.877433
0.901649
0.908186
0.39163
0.407187
0.460026
0.625551
0.921837
0.952402
0.975398
1.01513
1.03686
1.06982
1.10963
1.14151
1.15974
1.16717
1.16815
1.16026
1.10809
0.995649
0.9104
0.861119
0.840116
0.837636
0.847459
0.875016
0.894019
0.38822
0.393351
0.43258
0.5662
0.851479
0.931599
0.975714
1.02132
1.03663
1.0582
1.09531
1.12977
1.15244
1.16314
1.16573
1.16286
1.13297
1.03376
0.936192
0.870277
0.837164
0.827297
0.829163
0.846684
0.872538
0.374844
0.377262
0.406883
0.514631
0.762666
0.938176
0.991288
1.01905
1.02817
1.04234
1.07815
1.11753
1.14353
1.15724
1.16275
1.16257
1.14822
1.07571
0.964571
0.887928
0.840847
0.81964
0.816132
0.821371
0.844529
0.363091
0.363703
0.383043
0.457804
0.642894
0.941762
0.985787
0.990542
1.00634
1.03152
1.06341
1.0996
1.13157
1.15074
1.15923
1.16139
1.15674
1.11395
1.00189
0.908525
0.850499
0.817476
0.805204
0.804972
0.812835
0.356479
0.352106
0.364904
0.413399
0.561335
0.87248
0.939405
0.958099
0.99957
1.02797
1.04644
1.07959
1.11499
1.14097
1.15482
1.15945
1.15876
1.14004
1.05083
0.937072
0.86419
0.822085
0.799949
0.794259
0.795505
0.350973
0.342938
0.351804
0.385688
0.498646
0.75892
0.917922
0.961553
0.997488
1.01431
1.03085
1.05939
1.09678
1.12769
1.14652
1.15564
1.15769
1.15201
1.10266
0.979478
0.884847
0.830886
0.800912
0.786639
0.784574
0.346573
0.335231
0.340854
0.36235
0.434921
0.622775
0.914437
0.960516
0.972584
0.990148
1.01247
1.04327
1.0773
1.11136
1.1372
1.15064
1.15551
1.15496
1.13542
1.04147
0.92171
0.847088
0.806389
0.783111
0.775056
0.343315
0.329753
0.333418
0.347593
0.392542
0.532104
0.821121
0.923618
0.946137
0.981512
1.00063
1.02295
1.05783
1.09537
1.12435
1.14342
1.152
1.15422
1.14856
1.10348
0.979392
0.876339
0.818321
0.787678
0.768611
0.340748
0.325477
0.327897
0.337285
0.366356
0.461713
0.687545
0.911782
0.949049
0.966721
0.983177
0.99876
1.03421
1.07318
1.10934
1.13255
1.14598
1.15215
1.15194
1.13471
1.05624
0.929671
0.84324
0.797952
0.772734
0.33892
0.322335
0.323862
0.329732
0.347346
0.400759
0.552305
0.845371
0.926545
0.93932
0.968618
0.990256
1.00932
1.0485
1.08551
1.11892
1.13831
1.14806
1.15149
1.14706
1.11045
1.00304
0.892201
0.82037
0.782669
0.337617
0.320101
0.321094
0.324948
0.336355
0.369856
0.477449
0.712538
0.903227
0.93756
0.95337
0.973991
0.989507
1.01532
1.06259
1.09645
1.12487
1.14191
1.14959
1.14973
1.13703
1.07289
0.958151
0.865208
0.803772
0.336751
0.318511
0.319126
0.321554
0.328487
0.348037
0.407804
0.570817
0.865135
0.918377
0.931607
0.955695
0.980869
0.996966
1.02355
1.07288
1.10691
1.12996
1.14469
1.14866
1.14503
1.11977
1.03127
0.922708
0.842958
0.336139
0.317414
0.317882
0.319529
0.323992
0.33611
0.371115
0.483762
0.722884
0.893237
0.928035
0.94073
0.963584
0.979618
1.00001
1.03329
1.08068
1.11452
1.13548
1.14553
1.14541
1.13783
1.09662
0.989759
0.892876
0.335824
0.316852
0.317295
0.318343
0.320985
0.32796
0.347622
0.408287
0.575467
0.862045
0.906918
0.925119
0.9436
0.969386
0.983961
1.00238
1.04018
1.08709
1.12079
1.13896
1.14362
1.14162
1.12655
1.06264
0.953783
0.336187
0.316849
0.317057
0.317695
0.319382
0.323696
0.335286
0.369001
0.478877
0.711498
0.885406
0.91904
0.928498
0.949423
0.969953
0.985899
1.00559
1.04641
1.093
1.12529
1.13875
1.13965
1.13485
1.11009
1.02477
0.336647
0.316952
0.316997
0.317357
0.318316
0.320802
0.327304
0.345436
0.400376
0.559676
0.836255
0.89093
0.91669
0.93021
0.955182
0.969554
0.985233
1.00746
1.05268
1.09957
1.12729
1.13498
1.13383
1.12531
1.08788
0.336848
0.317131
0.31689
0.317081
0.317633
0.319079
0.322834
0.332981
0.362386
0.458979
0.674332
0.8775
0.904629
0.915359
0.933005
0.958256
0.970155
0.984446
1.00891
1.05943
1.10464
1.12526
1.12977
1.1267
1.11239
0.336964
0.317244
0.316804
0.316905
0.317217
0.318038
0.320168
0.325715
0.341129
0.386672
0.52944
0.778938
0.873119
0.905237
0.914965
0.937459
0.957174
0.96965
0.983592
1.01126
1.06636
1.1057
1.12116
1.12262
1.11715
0.337018
0.317298
0.31674
0.31679
0.316958
0.317411
0.318578
0.321597
0.329672
0.352902
0.427703
0.615226
0.856848
0.882819
0.903138
0.916329
0.941479
0.955475
0.967573
0.982403
1.01596
1.06942
1.10244
1.11374
1.11309
0.337027
0.317316
0.316694
0.316718
0.316808
0.317051
0.317679
0.319312
0.323597
0.33548
0.370694
0.489671
0.707068
0.859257
0.890396
0.900167
0.919518
0.943314
0.953622
0.964586
0.982153
1.02403
1.06919
1.09539
1.10422
0.337012
0.317327
0.316664
0.316674
0.316715
0.316836
0.317166
0.318027
0.320263
0.32615
0.342886
0.393989
0.549125
0.793686
0.860585
0.889713
0.898735
0.921336
0.943606
0.951266
0.960801
0.981989
1.02942
1.0689
1.08871
0.337001
0.317334
0.316634
0.316641
0.316663
0.316726
0.316894
0.317331
0.318464
0.321432
0.329481
0.353052
0.431052
0.616918
0.839904
0.867115
0.886475
0.899166
0.923819
0.940523
0.948241
0.958534
0.983998
1.03238
1.06956
0.337
0.317329
0.316627
0.316624
0.316632
0.316662
0.316745
0.316962
0.317526
0.319004
0.322919
0.333907
0.366837
0.480753
0.682425
0.842772
0.870746
0.881883
0.900984
0.927047
0.936547
0.943882
0.960041
0.998361
1.05144
0.337001
0.317324
0.316627
0.316612
0.316616
0.31663
0.316669
0.316773
0.317046
0.317758
0.319637
0.32465
0.33906
0.382992
0.524151
0.741953
0.841971
0.870122
0.880253
0.902723
0.92865
0.939282
0.958802
0.990893
1.05757
0.337002
0.317322
0.316627
0.316607
0.316609
0.316615
0.316633
0.316681
0.316807
0.317139
0.318008
0.320319
0.326577
0.344968
0.404553
0.565664
0.79154
0.844418
0.865447
0.889374
0.917522
0.947158
0.983646
1.03301
1.12412
0.337002
0.317321
0.316627
0.316605
0.316605
0.316608
0.316615
0.316636
0.316693
0.316841
0.317235
0.318272
0.321055
0.328787
0.351981
0.431869
0.607889
0.813274
0.853161
0.874462
0.930908
0.988756
1.06569
1.14523
1.26509
0.337002
0.317321
0.316628
0.316603
0.316604
0.316605
0.316608
0.316617
0.316641
0.316706
0.316879
0.317339
0.318569
0.321904
0.331424
0.360568
0.463929
0.65038
0.836502
0.891319
1.00077
1.14056
1.26027
1.32826
1.36571
0.337002
0.317321
0.316628
0.316603
0.316603
0.316603
0.316605
0.316609
0.316621
0.316652
0.316737
0.316966
0.317577
0.319226
0.32374
0.336875
0.378935
0.511003
0.764447
0.921461
1.13871
1.26725
1.31444
1.33927
1.28765
0.182474
0.536662
0.852989
0.919129
1.00309
1.03264
1.08432
1.13847
1.16819
1.18311
1.19268
1.19603
1.1856
1.11527
1.02009
0.97459
0.9641
0.976802
1.01277
1.02965
1.02749