/*--------------------------------*- C++ -*----------------------------------*\
| =========                 |                                                 |
| \\      /  F ield         | OpenFOAM: The Open Source CFD Toolbox           |
|  \\    /   O peration     | Version:  4.1                                   |
|   \\  /    A nd           | Web:      www.OpenFOAM.org                      |
|    \\/     M anipulation  |                                                 |
\*---------------------------------------------------------------------------*/
FoamFile
{
    version     2.0;
    format      ascii;
    class       volVectorField;
    location    "0.88";
    object      U;
}
// * * * * * * * * * * * * * * * * * * * * * * * * * * * * * * * * * * * * * //

dimensions      [0 1 -1 0 0 0 0];

internalField   nonuniform List<vector> 
52500
(
(2.15462 -0.000179639 -0.000377712)
(1.19699 0.000891425 -0.00501957)
(0.376648 0.00894682 -0.00644674)
(0.33979 0.011435 -0.00663516)
(0.405725 0.0102063 -0.0069293)
(0.46356 0.00982939 -0.00742876)
(0.476812 0.0100945 -0.00782973)
(0.472207 0.0107863 -0.00801238)
(0.476939 0.0115223 -0.00807733)
(0.488865 0.0122269 -0.00814708)
(0.500008 0.0129434 -0.0082018)
(0.499245 0.0135635 -0.00814749)
(0.493899 0.0138914 -0.00771096)
(0.491556 0.0139913 -0.00714081)
(0.481351 0.0138438 -0.00690799)
(0.467937 0.0138654 -0.00688997)
(0.452524 0.014322 -0.00704796)
(0.431205 0.0153038 -0.00730399)
(0.407159 0.0164983 -0.00736991)
(0.376224 0.0177082 -0.00734416)
(0.333867 0.0188523 -0.0073428)
(0.274402 0.0202077 -0.0074072)
(0.196119 0.0215511 -0.00748529)
(0.0841355 0.0227274 -0.00755522)
(0.0171051 0.0237607 -0.00726483)
(2.1548 -0.00206377 -0.000375329)
(1.20216 0.000935788 -0.0049954)
(0.383542 0.0267163 -0.00643726)
(0.338953 0.0326866 -0.00661473)
(0.402617 0.0281819 -0.00691819)
(0.461888 0.0263056 -0.00742024)
(0.476089 0.0260612 -0.00781918)
(0.471879 0.0268558 -0.00800074)
(0.47656 0.0278572 -0.00806423)
(0.488417 0.0289009 -0.00813213)
(0.499565 0.0300836 -0.00818469)
(0.498804 0.0310742 -0.00812835)
(0.493651 0.031187 -0.00768939)
(0.491616 0.0310275 -0.00711911)
(0.48187 0.0306049 -0.00688705)
(0.469154 0.0308075 -0.00686701)
(0.45446 0.0320014 -0.00701901)
(0.433592 0.0343121 -0.00727528)
(0.409528 0.0368211 -0.00734315)
(0.378318 0.03921 -0.00731792)
(0.335766 0.0413353 -0.0073138)
(0.276083 0.0439423 -0.00737641)
(0.197072 0.0464168 -0.00745324)
(0.0843865 0.0482234 -0.00752157)
(0.016901 0.0489041 -0.00723098)
(2.15034 -0.00510094 -0.000399841)
(1.20988 0.000199046 -0.00496093)
(0.394198 0.0478404 -0.00643183)
(0.335963 0.0530213 -0.00660042)
(0.397099 0.0469776 -0.0068952)
(0.459904 0.0445393 -0.00739684)
(0.476396 0.0445831 -0.00779609)
(0.473503 0.046108 -0.00798395)
(0.478709 0.048055 -0.00804956)
(0.491 0.0501767 -0.00811649)
(0.502592 0.0524569 -0.00816745)
(0.501765 0.054377 -0.00811443)
(0.496307 0.0545829 -0.00768647)
(0.494029 0.0543364 -0.00710656)
(0.484257 0.053689 -0.00686386)
(0.471981 0.0542708 -0.00683599)
(0.458054 0.056458 -0.00697396)
(0.437906 0.060506 -0.00723587)
(0.414018 0.0648015 -0.00731248)
(0.382633 0.06909 -0.00729261)
(0.340006 0.072934 -0.00728584)
(0.280283 0.0774818 -0.00734711)
(0.200517 0.0819769 -0.00742183)
(0.0868132 0.085598 -0.00749005)
(0.0177787 0.0863628 -0.00719814)
(2.14202 -0.00658993 -0.000446826)
(1.22396 0.00268057 -0.00490225)
(0.408988 0.0742749 -0.00642026)
(0.329229 0.0705829 -0.00658776)
(0.390763 0.0638392 -0.00686262)
(0.457665 0.0618569 -0.00736118)
(0.477066 0.0622518 -0.00776167)
(0.475925 0.0643501 -0.00795904)
(0.481959 0.0671162 -0.00803062)
(0.494921 0.0701959 -0.00809869)
(0.507233 0.0733146 -0.00815096)
(0.506469 0.0757749 -0.00811049)
(0.50063 0.0759538 -0.00771465)
(0.497873 0.0753806 -0.00710994)
(0.488016 0.0744155 -0.00684724)
(0.476475 0.0754795 -0.00680731)
(0.463687 0.0784179 -0.00692799)
(0.44453 0.0843031 -0.00719159)
(0.420958 0.0904452 -0.00728026)
(0.389438 0.0969554 -0.0072662)
(0.34668 0.102944 -0.00725458)
(0.28705 0.109879 -0.0073128)
(0.20651 0.116994 -0.00738692)
(0.0913176 0.123344 -0.00745527)
(0.0194226 0.124729 -0.00716588)
(2.13352 -0.00795368 -0.000493559)
(1.25054 0.00661301 -0.0048123)
(0.432028 0.105183 -0.00638988)
(0.318724 0.0865171 -0.00656779)
(0.386453 0.0780995 -0.00684706)
(0.45745 0.0775214 -0.00732103)
(0.47876 0.0790447 -0.00771604)
(0.479318 0.0822579 -0.007925)
(0.486386 0.0862232 -0.00800754)
(0.500146 0.0905009 -0.00807724)
(0.513124 0.0945599 -0.00812978)
(0.51234 0.0974324 -0.00810414)
(0.505943 0.0979753 -0.00775174)
(0.502583 0.096621 -0.00712186)
(0.492872 0.0955021 -0.00682969)
(0.482027 0.0970966 -0.00677161)
(0.470508 0.100337 -0.00687122)
(0.452756 0.107851 -0.0071324)
(0.429703 0.115686 -0.00724025)
(0.398371 0.124473 -0.00723574)
(0.355648 0.132996 -0.00722114)
(0.296398 0.14274 -0.00727353)
(0.215471 0.153153 -0.00734516)
(0.0984606 0.163567 -0.00741348)
(0.0221988 0.16646 -0.00712774)
(2.1203 -0.00974827 -0.000568269)
(1.28851 0.011157 -0.00469743)
(0.460297 0.139811 -0.00634636)
(0.302212 0.101671 -0.0065352)
(0.38377 0.0901098 -0.00683726)
(0.45959 0.0912683 -0.00727681)
(0.482255 0.0950646 -0.00766272)
(0.484238 0.100231 -0.00788816)
(0.492199 0.105723 -0.00798205)
(0.50657 0.111211 -0.00805111)
(0.519938 0.116038 -0.00810385)
(0.519337 0.119076 -0.00809329)
(0.512077 0.120214 -0.00779323)
(0.507846 0.117975 -0.00714625)
(0.498739 0.116731 -0.00681148)
(0.488448 0.1187 -0.00673043)
(0.478339 0.122131 -0.00680922)
(0.462476 0.131041 -0.0070627)
(0.440301 0.140703 -0.00719318)
(0.409726 0.151932 -0.00719999)
(0.367355 0.163568 -0.0071813)
(0.308896 0.176758 -0.00722652)
(0.228353 0.191577 -0.00729072)
(0.109331 0.20786 -0.00735968)
(0.0267562 0.214143 -0.0070799)
(2.10444 -0.0106394 -0.000657161)
(1.34325 0.017419 -0.00453047)
(0.496264 0.17674 -0.00627546)
(0.281328 0.118066 -0.00648475)
(0.383554 0.100774 -0.00683092)
(0.465069 0.104101 -0.00722465)
(0.488265 0.111227 -0.00759969)
(0.490905 0.118868 -0.00784641)
(0.499288 0.125926 -0.00795493)
(0.513934 0.132389 -0.0080241)
(0.527329 0.137637 -0.00807691)
(0.527061 0.140587 -0.00807894)
(0.51893 0.142209 -0.00782664)
(0.513671 0.139302 -0.00718001)
(0.505476 0.137902 -0.00679415)
(0.495675 0.140019 -0.00668572)
(0.487054 0.143735 -0.00674049)
(0.473568 0.153641 -0.00697773)
(0.452762 0.165385 -0.00713327)
(0.423664 0.179185 -0.00715287)
(0.382282 0.194502 -0.00713946)
(0.325387 0.211986 -0.00717158)
(0.246569 0.232715 -0.00722556)
(0.12599 0.257463 -0.00728978)
(0.034811 0.270949 -0.00701436)
(2.08661 -0.0116251 -0.000755172)
(1.41658 0.0219494 -0.00429697)
(0.54291 0.210259 -0.00615678)
(0.261624 0.136091 -0.00641835)
(0.386971 0.112208 -0.00683148)
(0.474741 0.11802 -0.00716291)
(0.497116 0.128883 -0.00752688)
(0.49916 0.138788 -0.00779968)
(0.50731 0.147087 -0.00792477)
(0.521809 0.154094 -0.00799581)
(0.534914 0.159336 -0.0080496)
(0.535258 0.161997 -0.00806169)
(0.52643 0.164023 -0.00785605)
(0.520105 0.160491 -0.00722715)
(0.513051 0.158903 -0.00678211)
(0.503768 0.160871 -0.00664006)
(0.496633 0.165041 -0.00666851)
(0.48595 0.17561 -0.00688048)
(0.467233 0.189479 -0.00706126)
(0.440441 0.205812 -0.007097)
(0.401025 0.225433 -0.00708424)
(0.346933 0.248399 -0.00710255)
(0.272102 0.276848 -0.0071368)
(0.151813 0.313455 -0.0071873)
(0.0493765 0.342317 -0.006919)
(2.06468 -0.0128647 -0.000874671)
(1.50247 0.0239877 -0.00402659)
(0.600831 0.238333 -0.00598702)
(0.252171 0.158711 -0.00633718)
(0.395205 0.130765 -0.00683343)
(0.488083 0.137753 -0.00709161)
(0.507937 0.150145 -0.00744513)
(0.508141 0.160812 -0.00774926)
(0.515639 0.169477 -0.0078929)
(0.529712 0.176426 -0.00796755)
(0.542388 0.181266 -0.008022)
(0.543735 0.183501 -0.00804013)
(0.534481 0.185642 -0.00788066)
(0.527132 0.181684 -0.00728898)
(0.521372 0.17968 -0.00678089)
(0.512766 0.181252 -0.00659627)
(0.507193 0.18609 -0.00659732)
(0.499489 0.196908 -0.00676586)
(0.483485 0.212597 -0.00697395)
(0.460131 0.231199 -0.00703312)
(0.424375 0.255229 -0.00700828)
(0.374899 0.285843 -0.00701689)
(0.307173 0.324082 -0.00703739)
(0.193116 0.376408 -0.00705478)
(0.0770959 0.434878 -0.00676026)
(2.03911 -0.0155877 -0.00101117)
(1.60276 0.0129982 -0.00373053)
(0.68444 0.212174 -0.00567893)
(0.264203 0.173839 -0.00624028)
(0.406204 0.159455 -0.00680946)
(0.499833 0.166141 -0.00701424)
(0.516572 0.175906 -0.00736442)
(0.515724 0.185061 -0.00769592)
(0.52323 0.192981 -0.0078592)
(0.537115 0.199317 -0.00793953)
(0.549503 0.20348 -0.00799464)
(0.552151 0.205228 -0.00801489)
(0.542911 0.206866 -0.00789921)
(0.534683 0.202912 -0.00736134)
(0.530236 0.200184 -0.00679397)
(0.522794 0.201251 -0.00655802)
(0.518726 0.206917 -0.00652561)
(0.513863 0.217275 -0.00664935)
(0.501221 0.234368 -0.00687238)
(0.48234 0.254956 -0.00695191)
(0.453383 0.282636 -0.00693055)
(0.411386 0.320908 -0.00692023)
(0.354437 0.373193 -0.00689669)
(0.25935 0.454682 -0.00686421)
(0.128735 0.586578 -0.00647275)
(2.15466 -0.000200566 4.36843e-08)
(1.19708 0.00086275 2.20659e-07)
(0.376708 0.00894158 2.3831e-07)
(0.339827 0.0114504 1.71613e-07)
(0.40575 0.0102281 7.85738e-08)
(0.46358 0.00985568 7.90882e-08)
(0.476826 0.0101283 6.37547e-08)
(0.472201 0.01083 6.75153e-08)
(0.476898 0.0115766 8.13102e-08)
(0.488785 0.0122834 8.24079e-08)
(0.499905 0.0129887 -1.06091e-08)
(0.499131 0.0135963 9.30913e-08)
(0.493781 0.0138826 -3.02199e-08)
(0.49146 0.0139551 -1.2141e-07)
(0.481296 0.0138085 -2.81926e-08)
(0.467919 0.0138458 -5.43578e-08)
(0.452536 0.014317 5.0279e-08)
(0.431236 0.0153083 1.1447e-07)
(0.407195 0.0165034 2.63946e-07)
(0.376267 0.0177128 2.46633e-07)
(0.33391 0.0188549 2.86715e-07)
(0.274446 0.0202092 3.10129e-07)
(0.196166 0.0215515 2.73121e-07)
(0.0841634 0.0227271 8.46352e-08)
(0.0171235 0.0237638 -1.0165e-07)
(2.15478 -0.00207868 5.02825e-09)
(1.20219 0.00091483 1.91457e-07)
(0.383545 0.0267108 2.52998e-07)
(0.338984 0.0326931 1.57652e-07)
(0.402654 0.0281842 8.3412e-08)
(0.461929 0.0263028 8.35753e-08)
(0.476149 0.0260564 6.60944e-08)
(0.471964 0.0268482 6.21238e-08)
(0.476667 0.027845 7.03365e-08)
(0.488556 0.0288813 7.44934e-08)
(0.499779 0.0300504 1.67833e-08)
(0.499082 0.0310383 3.98686e-08)
(0.493931 0.0311286 -2.78908e-08)
(0.491884 0.0309642 -7.79509e-08)
(0.48211 0.0305605 -2.41844e-08)
(0.469342 0.0307905 -3.47413e-08)
(0.454599 0.032004 3.14512e-08)
(0.433695 0.0343242 1.08448e-07)
(0.409603 0.0368342 2.47096e-07)
(0.378381 0.0392211 2.41815e-07)
(0.335818 0.0413467 2.77002e-07)
(0.27613 0.0439517 2.97153e-07)
(0.197118 0.046421 2.60829e-07)
(0.0844122 0.0482244 8.79607e-08)
(0.0169174 0.0489083 -9.01379e-08)
(2.15034 -0.00508255 -1.16125e-09)
(1.20992 0.00022275 1.96183e-07)
(0.394217 0.0478442 2.85705e-07)
(0.335991 0.0530205 1.02701e-07)
(0.397129 0.046969 9.01847e-08)
(0.459939 0.0445236 8.80335e-08)
(0.476448 0.0445626 7.35464e-08)
(0.473574 0.0460825 6.3347e-08)
(0.478797 0.048022 6.30139e-08)
(0.491112 0.050138 7.695e-08)
(0.502768 0.0524096 6.59271e-08)
(0.501989 0.0543206 9.24638e-09)
(0.49652 0.0545348 -1.02886e-08)
(0.494228 0.0543134 -2.75451e-08)
(0.484437 0.0537016 -3.00818e-08)
(0.47212 0.0543062 -1.26959e-08)
(0.458153 0.0565065 2.26109e-08)
(0.437976 0.0605498 1.02387e-07)
(0.414066 0.0648429 2.20679e-07)
(0.382678 0.0691183 2.35277e-07)
(0.340049 0.0729583 2.61852e-07)
(0.280321 0.0775002 2.77328e-07)
(0.200557 0.0819849 2.43099e-07)
(0.0868373 0.0856007 8.96845e-08)
(0.0177945 0.0863692 -7.78193e-08)
(2.14206 -0.0065865 4.48778e-08)
(1.22404 0.00268475 2.59767e-07)
(0.409042 0.0742732 3.21707e-07)
(0.32927 0.0705849 9.21691e-08)
(0.390789 0.063832 7.34505e-08)
(0.457691 0.0618363 8.60568e-08)
(0.477101 0.062218 7.61508e-08)
(0.475966 0.0643057 6.93029e-08)
(0.482003 0.0670635 5.748e-08)
(0.494966 0.0701374 7.58026e-08)
(0.507299 0.0732538 9.18298e-08)
(0.506544 0.0757117 -2.19735e-08)
(0.500683 0.0759175 -2.13496e-08)
(0.497922 0.0754022 -3.17421e-08)
(0.488058 0.0744839 -4.68371e-08)
(0.476496 0.0755647 -3.39243e-08)
(0.463689 0.0785211 1.92825e-08)
(0.444523 0.0843855 5.23033e-08)
(0.420948 0.0905126 1.871e-07)
(0.389438 0.0970015 2.17263e-07)
(0.346695 0.102977 2.31816e-07)
(0.28707 0.109901 2.49607e-07)
(0.206541 0.117003 2.17972e-07)
(0.0913404 0.123347 9.33981e-08)
(0.0194386 0.124737 -5.51296e-08)
(2.13353 -0.00796059 6.82171e-09)
(1.25059 0.00660254 2.47541e-07)
(0.432059 0.105182 3.66362e-07)
(0.31876 0.0865241 5.48607e-08)
(0.38647 0.0780949 4.82729e-08)
(0.457464 0.0775008 7.33985e-08)
(0.478779 0.0790086 7.37248e-08)
(0.479337 0.0822107 7.32503e-08)
(0.486398 0.0861692 5.93951e-08)
(0.500143 0.0904392 7.07266e-08)
(0.51311 0.0944957 9.14069e-08)
(0.512292 0.0973676 5.16323e-09)
(0.505854 0.0979315 1.83017e-08)
(0.502482 0.0966465 -2.40898e-08)
(0.492749 0.0955747 -5.80131e-08)
(0.481896 0.0971878 -4.49411e-08)
(0.470373 0.100454 2.02052e-08)
(0.452624 0.107948 6.39598e-08)
(0.429603 0.11576 1.63537e-07)
(0.398311 0.124523 1.92876e-07)
(0.355628 0.133027 2.08358e-07)
(0.296399 0.142756 2.19999e-07)
(0.215493 0.153157 1.92114e-07)
(0.098483 0.163564 9.49323e-08)
(0.0222161 0.16646 -3.20228e-08)
(2.12033 -0.00975095 2.12713e-08)
(1.28857 0.0111507 2.7832e-07)
(0.460337 0.139813 4.17586e-07)
(0.302254 0.101682 3.62389e-08)
(0.383785 0.0901071 3.15655e-08)
(0.4596 0.0912502 6.2324e-08)
(0.482265 0.0950329 7.18468e-08)
(0.484241 0.100191 7.65188e-08)
(0.492187 0.105678 6.72811e-08)
(0.506533 0.111161 6.61708e-08)
(0.519872 0.11599 6.10676e-08)
(0.519212 0.119029 -1.24335e-08)
(0.511919 0.120168 8.15843e-08)
(0.507687 0.117989 -7.14397e-08)
(0.498549 0.116782 -5.87494e-08)
(0.488256 0.118762 -3.47587e-08)
(0.478142 0.122215 -2.53284e-08)
(0.462276 0.131102 8.38528e-08)
(0.440142 0.140744 1.49455e-07)
(0.409621 0.151958 1.76736e-07)
(0.367305 0.163584 1.81358e-07)
(0.308878 0.176765 1.87675e-07)
(0.228367 0.19157 1.65743e-07)
(0.109351 0.207848 1.0056e-07)
(0.0267726 0.214133 4.76929e-09)
(2.10445 -0.0106434 -1.29878e-09)
(1.34329 0.0174129 2.87494e-07)
(0.496297 0.176749 4.9829e-07)
(0.281368 0.118079 7.37628e-09)
(0.383566 0.100774 8.73207e-09)
(0.465076 0.104085 5.24662e-08)
(0.48827 0.111201 6.82794e-08)
(0.4909 0.118838 7.81804e-08)
(0.499264 0.125894 6.9804e-08)
(0.513883 0.132359 6.64407e-08)
(0.527243 0.137619 5.92062e-08)
(0.526895 0.140586 -2.49077e-08)
(0.518737 0.142193 1.37129e-07)
(0.513497 0.139344 -1.10522e-07)
(0.50527 0.137961 -5.63022e-08)
(0.495487 0.140075 -2.77185e-08)
(0.486869 0.143792 -7.76563e-09)
(0.473367 0.153673 6.17435e-08)
(0.452604 0.165388 1.11402e-07)
(0.42356 0.179179 1.45477e-07)
(0.38223 0.194491 1.65704e-07)
(0.325361 0.211977 1.68676e-07)
(0.246576 0.232699 1.45118e-07)
(0.126009 0.257439 1.08313e-07)
(0.0348267 0.27093 3.58382e-08)
(2.08662 -0.0116252 1.39892e-09)
(1.41662 0.0219502 3.19428e-07)
(0.542949 0.210277 6.06854e-07)
(0.261666 0.136106 -1.99914e-08)
(0.386983 0.112208 -2.6038e-08)
(0.474749 0.118007 3.34744e-08)
(0.497121 0.128864 6.30818e-08)
(0.499153 0.138768 7.59384e-08)
(0.507281 0.147071 7.08551e-08)
(0.521756 0.154086 6.84769e-08)
(0.534834 0.159343 7.24191e-08)
(0.535078 0.162023 5.66943e-09)
(0.526229 0.164037 1.77743e-08)
(0.519944 0.160545 -3.76438e-08)
(0.512855 0.158965 -6.87241e-08)
(0.503604 0.16093 -8.74362e-09)
(0.496485 0.165077 -1.98526e-09)
(0.485782 0.175637 4.57235e-08)
(0.467101 0.189475 6.87564e-08)
(0.440356 0.2058 1.32933e-07)
(0.400983 0.225403 1.32095e-07)
(0.346915 0.248373 1.33534e-07)
(0.272106 0.276825 1.30164e-07)
(0.151831 0.313419 1.13856e-07)
(0.049395 0.342291 6.14379e-08)
(2.06468 -0.0128684 -2.00462e-09)
(1.50252 0.0239857 3.31671e-07)
(0.600876 0.23836 7.24472e-07)
(0.252216 0.158732 -4.31339e-08)
(0.395221 0.130769 -5.68971e-08)
(0.488095 0.137746 1.36406e-08)
(0.507945 0.150135 5.71454e-08)
(0.508136 0.160804 7.37717e-08)
(0.515611 0.169477 7.047e-08)
(0.529665 0.176438 7.12048e-08)
(0.542321 0.181293 7.33608e-08)
(0.543569 0.18354 8.88363e-09)
(0.534302 0.185694 -4.23022e-08)
(0.527005 0.181734 -3.57373e-08)
(0.521211 0.179733 -4.15945e-08)
(0.512632 0.181301 -4.87049e-09)
(0.507078 0.186105 -8.22129e-09)
(0.49936 0.196926 5.24269e-08)
(0.483384 0.212598 5.46775e-08)
(0.460064 0.231191 1.29972e-07)
(0.424338 0.255197 1.02846e-07)
(0.374891 0.285811 9.83478e-08)
(0.307177 0.324049 1.12488e-07)
(0.193134 0.376364 1.12199e-07)
(0.0771187 0.434844 7.75812e-08)
(2.0391 -0.0155929 -2.45209e-08)
(1.60281 0.012989 3.51625e-07)
(0.684496 0.21218 9.72795e-07)
(0.264252 0.173858 -4.55394e-09)
(0.406222 0.159466 -4.66139e-08)
(0.499849 0.166143 1.46575e-08)
(0.516583 0.175905 5.44427e-08)
(0.515721 0.185064 7.25461e-08)
(0.523207 0.192996 7.01048e-08)
(0.537078 0.199349 6.86064e-08)
(0.549454 0.203526 6.24762e-08)
(0.552027 0.205282 1.39409e-09)
(0.542776 0.206953 -4.02238e-09)
(0.534595 0.202961 -6.28138e-08)
(0.530122 0.200223 -5.47912e-09)
(0.522686 0.20128 1.30863e-08)
(0.518634 0.206916 -2.97391e-08)
(0.513765 0.217278 6.39595e-08)
(0.50114 0.234365 5.56061e-08)
(0.482283 0.254942 1.06906e-07)
(0.453353 0.282607 8.06431e-08)
(0.411385 0.320872 9.37607e-08)
(0.354439 0.37315 9.74424e-08)
(0.259369 0.454632 9.44539e-08)
(0.128762 0.586537 7.9777e-08)
(2.15463 -0.000184428 -7.79818e-08)
(1.19708 0.000885013 4.89073e-08)
(0.376721 0.00894676 1.49774e-07)
(0.339813 0.0114394 5.7486e-08)
(0.405728 0.010212 -5.36447e-08)
(0.463569 0.00983655 -6.50838e-09)
(0.476824 0.0101047 -2.17085e-08)
(0.472206 0.0108015 -6.6992e-08)
(0.476918 0.0115439 -7.47938e-08)
(0.488814 0.0122523 -9.23953e-08)
(0.4999 0.0129687 -2.29205e-07)
(0.499092 0.0135884 -1.95438e-07)
(0.493737 0.0138985 -2.7065e-07)
(0.491388 0.0139785 -2.54874e-07)
(0.481192 0.0138189 -8.6414e-08)
(0.4678 0.013836 -9.66821e-08)
(0.452414 0.0142947 9.47564e-08)
(0.431133 0.0152829 1.65628e-07)
(0.407123 0.0164821 2.64589e-07)
(0.376213 0.0176962 1.14118e-07)
(0.333874 0.0188435 7.20465e-08)
(0.274416 0.0202016 2.63947e-08)
(0.196125 0.0215469 -5.49553e-09)
(0.0841366 0.0227251 -1.38781e-07)
(0.0171161 0.023761 1.24817e-08)
(2.1548 -0.00206902 4.73102e-08)
(1.20223 0.00092923 1.57929e-07)
(0.383603 0.0267189 1.56176e-07)
(0.338973 0.0326892 1.90255e-08)
(0.402622 0.028185 -4.66158e-08)
(0.461903 0.0263086 -7.68125e-09)
(0.476113 0.0260668 -1.12062e-08)
(0.471904 0.0268662 -4.9467e-08)
(0.476581 0.0278739 -7.70597e-08)
(0.488432 0.0289209 -1.08422e-07)
(0.49956 0.0301043 -2.61164e-07)
(0.498785 0.0311017 -6.9523e-08)
(0.493627 0.031198 -2.30202e-07)
(0.491583 0.0310186 -3.19381e-07)
(0.481831 0.0305872 -7.34389e-08)
(0.469116 0.0307903 -1.05147e-07)
(0.454427 0.0319886 1.06269e-07)
(0.433576 0.0343048 1.60801e-07)
(0.409528 0.0368127 2.56059e-07)
(0.378327 0.0392007 1.12534e-07)
(0.335782 0.0413258 6.82712e-08)
(0.276101 0.0439339 1.89978e-08)
(0.19708 0.0464094 -1.82239e-08)
(0.0843851 0.0482186 -1.31489e-07)
(0.0169091 0.0489015 1.1329e-08)
(2.15034 -0.00509681 -5.90592e-09)
(1.20995 0.000207074 1.28284e-07)
(0.394259 0.0478534 2.0649e-07)
(0.33598 0.0530207 -6.21774e-08)
(0.397104 0.0469778 -2.47471e-08)
(0.459919 0.0445399 4.47584e-09)
(0.476422 0.0445864 -9.9313e-09)
(0.473532 0.046117 -5.02766e-08)
(0.478737 0.0480714 -9.59333e-08)
(0.491029 0.0501986 -1.34883e-07)
(0.502619 0.0524803 -2.46425e-07)
(0.501793 0.0544037 -5.23461e-08)
(0.496332 0.0545928 -1.95956e-07)
(0.494043 0.0543262 -2.81716e-07)
(0.48426 0.053668 -9.07851e-08)
(0.471974 0.0542448 -1.06127e-07)
(0.458041 0.0564345 9.14358e-08)
(0.437903 0.0604864 1.14499e-07)
(0.414026 0.0647858 2.00116e-07)
(0.38265 0.0690744 1.10424e-07)
(0.340029 0.0729208 6.2967e-08)
(0.280306 0.0774707 8.60499e-09)
(0.200528 0.0819662 -3.21772e-08)
(0.0868137 0.0855905 -1.34703e-07)
(0.0177865 0.0863582 9.66125e-10)
(2.14203 -0.00658859 -8.38534e-08)
(1.22406 0.00268628 9.96996e-08)
(0.409065 0.0742917 2.60998e-07)
(0.329248 0.0705826 -5.61347e-08)
(0.390773 0.063837 -3.73269e-08)
(0.457681 0.0618543 1.50035e-08)
(0.477092 0.0622501 -3.76815e-09)
(0.475953 0.0643529 -5.32909e-08)
(0.481986 0.0671263 -1.049e-07)
(0.494949 0.0702128 -1.23216e-07)
(0.507265 0.0733365 -1.5274e-07)
(0.506507 0.0758047 -1.77218e-07)
(0.500667 0.0759742 -1.96095e-07)
(0.497904 0.0753885 -1.46279e-07)
(0.488042 0.0744143 -1.21868e-07)
(0.476499 0.0754713 -7.60641e-08)
(0.463712 0.0784121 1.95376e-08)
(0.444562 0.0842963 1.01792e-07)
(0.420991 0.0904374 1.27425e-07)
(0.389468 0.0969455 9.50206e-08)
(0.346711 0.102933 6.22985e-08)
(0.287077 0.109868 -3.76975e-09)
(0.206526 0.116982 -5.03955e-08)
(0.0913218 0.123334 -1.41373e-07)
(0.0194305 0.124722 -1.90091e-08)
(2.13352 -0.00795575 -2.47222e-08)
(1.25064 0.00661401 1.62635e-07)
(0.432099 0.105202 2.85846e-07)
(0.318737 0.0865204 -1.15405e-07)
(0.386464 0.0780966 -5.27547e-08)
(0.457466 0.0775159 1.03461e-08)
(0.478785 0.0790393 -2.12998e-09)
(0.479346 0.082256 -5.75612e-08)
(0.486414 0.0862281 -9.79542e-08)
(0.500175 0.0905119 -8.85613e-08)
(0.513162 0.0945734 -6.76788e-08)
(0.512378 0.0974468 -2.64466e-07)
(0.505965 0.0979933 -1.02144e-07)
(0.502593 0.0966322 -1.3792e-07)
(0.492875 0.095512 -1.55049e-07)
(0.482028 0.0971118 -2.619e-08)
(0.470511 0.100352 -8.26287e-08)
(0.452766 0.10787 8.70421e-08)
(0.429723 0.115694 8.45039e-08)
(0.398395 0.124475 8.03862e-08)
(0.355676 0.13299 4.71876e-08)
(0.296425 0.142729 -8.13537e-09)
(0.21549 0.153139 -5.34615e-08)
(0.0984685 0.163552 -1.51616e-07)
(0.0222072 0.166447 -3.78257e-08)
(2.12031 -0.00974919 -4.7071e-08)
(1.28862 0.0111599 1.7788e-07)
(0.460377 0.139834 3.4514e-07)
(0.302225 0.101679 -1.16653e-07)
(0.383782 0.090107 -3.12335e-08)
(0.459608 0.0912612 9.1693e-09)
(0.482281 0.0950569 -3.98658e-09)
(0.484266 0.100226 -5.07459e-08)
(0.492224 0.105723 -1.01518e-07)
(0.506593 0.111217 -6.5188e-08)
(0.519965 0.116046 -4.35874e-08)
(0.519374 0.119077 -2.6376e-07)
(0.512111 0.120225 6.73834e-08)
(0.507864 0.117979 -2.03807e-07)
(0.498748 0.116739 -1.50548e-07)
(0.488441 0.118714 -2.56468e-08)
(0.478325 0.122144 -1.26659e-07)
(0.46247 0.131058 5.27515e-08)
(0.440301 0.140712 7.38543e-08)
(0.409738 0.151935 7.82386e-08)
(0.367375 0.163563 2.55688e-08)
(0.30892 0.176747 -2.22488e-08)
(0.228373 0.19156 -4.47151e-08)
(0.109341 0.207841 -1.65461e-07)
(0.0267641 0.214125 -5.91599e-08)
(2.10444 -0.0106412 -2.57817e-08)
(1.34337 0.0174207 2.52218e-07)
(0.496347 0.176765 4.57448e-07)
(0.28134 0.118077 -1.52949e-07)
(0.383568 0.100771 -4.23539e-08)
(0.465089 0.104093 3.70941e-09)
(0.488291 0.111219 -5.12327e-09)
(0.490932 0.118861 -3.50246e-08)
(0.499311 0.125923 -7.57489e-08)
(0.513952 0.132391 -5.39789e-08)
(0.527344 0.137646 -5.70605e-08)
(0.527089 0.140601 -2.56358e-07)
(0.518956 0.142226 1.74167e-07)
(0.513681 0.139328 -2.57998e-07)
(0.505482 0.137931 -1.43028e-07)
(0.495668 0.140044 -5.66386e-08)
(0.487041 0.14376 -9.99049e-08)
(0.473558 0.153653 -7.66354e-09)
(0.452758 0.165386 9.02737e-08)
(0.423673 0.17918 6.90148e-08)
(0.382299 0.194491 1.66363e-08)
(0.325408 0.211972 -2.52644e-08)
(0.246588 0.232696 -4.19445e-08)
(0.126 0.257441 -1.67669e-07)
(0.0348184 0.270929 -7.71642e-08)
(2.08661 -0.0116253 -3.81374e-08)
(1.41671 0.0219515 2.88259e-07)
(0.543004 0.210282 6.08071e-07)
(0.261643 0.136105 -1.80023e-07)
(0.386988 0.112206 -9.27424e-08)
(0.474766 0.118013 -1.77337e-08)
(0.497145 0.128875 -3.91922e-09)
(0.499186 0.138781 -1.98128e-08)
(0.50733 0.147082 -4.67871e-08)
(0.521822 0.154093 -4.2505e-08)
(0.534924 0.159342 -7.46269e-08)
(0.535266 0.162016 -2.20102e-07)
(0.52643 0.164034 1.84256e-07)
(0.520096 0.160527 -2.3876e-07)
(0.513038 0.158946 -1.46521e-07)
(0.503755 0.16091 -9.14204e-08)
(0.496621 0.165076 -5.38551e-08)
(0.485941 0.175629 -4.33261e-08)
(0.467235 0.189482 9.31444e-08)
(0.440454 0.205804 4.08564e-08)
(0.401044 0.225416 2.57228e-08)
(0.346955 0.24838 1.1554e-09)
(0.272121 0.276827 -4.37852e-08)
(0.151825 0.313429 -1.65097e-07)
(0.0493855 0.342297 -9.30235e-08)
(2.06467 -0.0128673 -3.96213e-08)
(1.50261 0.0239867 3.03385e-07)
(0.600937 0.238356 7.46505e-07)
(0.252205 0.158732 -1.77148e-07)
(0.395228 0.130773 -1.22874e-07)
(0.488113 0.137753 -4.11519e-08)
(0.507968 0.150142 -8.00363e-09)
(0.508166 0.160806 -1.11131e-08)
(0.515654 0.169473 -2.45999e-08)
(0.529721 0.176425 -3.64137e-08)
(0.542395 0.181271 -6.44915e-08)
(0.543724 0.183516 -1.53133e-07)
(0.534458 0.185653 1.1101e-07)
(0.52711 0.181718 -1.68579e-07)
(0.521345 0.179727 -1.49974e-07)
(0.512746 0.181298 -1.04035e-07)
(0.507182 0.186126 -3.39111e-08)
(0.499483 0.196934 -2.93725e-08)
(0.483491 0.212607 8.38782e-08)
(0.460146 0.231196 2.14707e-08)
(0.424395 0.255213 3.68894e-08)
(0.374923 0.285823 3.0761e-08)
(0.307192 0.324059 -3.90137e-08)
(0.19313 0.37638 -1.4974e-07)
(0.0771082 0.434857 -1.08338e-07)
(2.0391 -0.0155928 -3.91977e-08)
(1.60291 0.0129751 3.4908e-07)
(0.684576 0.212111 1.03156e-06)
(0.264257 0.173841 -1.05069e-07)
(0.406228 0.15947 -8.55377e-08)
(0.49986 0.16615 -2.74085e-08)
(0.5166 0.175907 -4.94628e-09)
(0.515746 0.185059 -2.53348e-09)
(0.523242 0.19298 -7.82118e-09)
(0.537122 0.199319 -1.91304e-08)
(0.549508 0.203487 -5.22455e-08)
(0.552133 0.205241 -9.81578e-08)
(0.542879 0.206889 -1.00887e-08)
(0.534658 0.202942 -8.62546e-08)
(0.530206 0.200227 -1.31892e-07)
(0.522767 0.201294 -1.12816e-07)
(0.518712 0.20695 1.74115e-08)
(0.513857 0.2173 -3.31735e-08)
(0.501226 0.23438 7.22238e-08)
(0.482353 0.254955 3.75953e-08)
(0.453401 0.282623 7.02984e-08)
(0.411411 0.320889 -5.97117e-09)
(0.354455 0.373169 -2.6052e-08)
(0.259366 0.454654 -9.32345e-08)
(0.128751 0.586557 -1.08132e-07)
(2.15464 -0.000185822 -6.04875e-08)
(1.19711 0.000883004 1.04253e-07)
(0.376754 0.00894672 2.15314e-07)
(0.339817 0.0114406 7.26638e-08)
(0.405718 0.0102138 -9.57183e-08)
(0.463564 0.00983863 -2.64105e-08)
(0.47682 0.0101071 -1.42522e-08)
(0.472199 0.0108043 -4.22061e-08)
(0.476905 0.0115471 -9.96741e-08)
(0.488796 0.0122557 -1.60027e-07)
(0.499876 0.012972 -1.79391e-07)
(0.499063 0.0135921 -1.71652e-07)
(0.493703 0.013901 -1.51025e-07)
(0.491355 0.0139809 -1.16847e-07)
(0.481164 0.0138238 -8.78066e-08)
(0.467777 0.0138432 -5.86475e-08)
(0.452399 0.0143027 -1.23528e-08)
(0.431128 0.0152898 3.38887e-08)
(0.407126 0.0164867 5.80779e-08)
(0.376223 0.017698 5.5275e-08)
(0.333886 0.0188434 4.19873e-08)
(0.274427 0.0202005 2.94553e-08)
(0.196136 0.0215454 1.27313e-08)
(0.0841403 0.0227234 3.34136e-08)
(0.0171151 0.0237598 1.13665e-07)
(2.1548 -0.00206997 -6.38262e-08)
(1.20226 0.000927817 9.97217e-08)
(0.383632 0.0267202 2.3055e-07)
(0.338976 0.032689 3.16234e-08)
(0.402613 0.0281865 -7.92983e-08)
(0.461898 0.0263096 -1.62531e-08)
(0.476111 0.0260668 -1.06073e-08)
(0.471901 0.0268651 -4.47342e-08)
(0.476576 0.0278718 -1.03514e-07)
(0.488425 0.0289179 -1.57054e-07)
(0.499552 0.0301006 -1.69594e-07)
(0.498776 0.0310982 -1.72719e-07)
(0.493614 0.0311919 -1.48869e-07)
(0.491569 0.0310108 -1.15451e-07)
(0.48182 0.0305796 -9.06119e-08)
(0.469105 0.0307837 -5.71477e-08)
(0.454419 0.0319843 -7.59805e-09)
(0.433574 0.0343019 3.65532e-08)
(0.409532 0.0368111 6.25347e-08)
(0.378337 0.039198 5.82223e-08)
(0.335795 0.0413235 4.69518e-08)
(0.276113 0.0439314 3.6141e-08)
(0.19709 0.0464063 2.20724e-08)
(0.0843888 0.0482149 3.30238e-08)
(0.0169084 0.0488987 1.04932e-07)
(2.15034 -0.00509677 -5.73452e-08)
(1.20999 0.000207719 1.23895e-07)
(0.394289 0.0478581 2.85454e-07)
(0.335982 0.0530191 -9.32887e-08)
(0.397097 0.0469795 -4.6453e-08)
(0.459913 0.0445412 4.02649e-09)
(0.476419 0.0445857 -6.12548e-09)
(0.47353 0.0461146 -5.09337e-08)
(0.478735 0.0480679 -1.07081e-07)
(0.491027 0.0501941 -1.50643e-07)
(0.502621 0.0524734 -1.58756e-07)
(0.501796 0.0543943 -1.72723e-07)
(0.496332 0.0545834 -1.4298e-07)
(0.494043 0.0543209 -1.0875e-07)
(0.484264 0.0536672 -8.80347e-08)
(0.47198 0.054249 -6.06613e-08)
(0.458051 0.0564421 2.12143e-09)
(0.437914 0.0604955 3.77095e-08)
(0.414038 0.0647922 6.8631e-08)
(0.382662 0.069077 6.17611e-08)
(0.340043 0.0729199 5.32082e-08)
(0.280317 0.0774676 4.4249e-08)
(0.200538 0.0819615 3.4067e-08)
(0.0868174 0.0855848 3.25167e-08)
(0.0177862 0.0863536 9.33501e-08)
(2.14203 -0.00658926 -9.20994e-08)
(1.2241 0.00268645 1.33083e-07)
(0.409094 0.074299 3.40659e-07)
(0.329247 0.0705812 -9.84397e-08)
(0.390767 0.063837 -6.44589e-08)
(0.457676 0.0618541 1.35904e-08)
(0.477088 0.0622474 -1.14243e-08)
(0.47595 0.064348 -6.12558e-08)
(0.481982 0.0671199 -1.11896e-07)
(0.494943 0.0702044 -1.53722e-07)
(0.50726 0.0733251 -1.63014e-07)
(0.506506 0.0757905 -1.76124e-07)
(0.500666 0.0759629 -1.35893e-07)
(0.4979 0.0753893 -7.35415e-08)
(0.488032 0.0744272 -6.83951e-08)
(0.476482 0.0754927 -3.84656e-08)
(0.463693 0.0784366 4.75767e-09)
(0.444546 0.0843184 6.12842e-08)
(0.420981 0.0904502 8.1756e-08)
(0.389466 0.0969513 7.67478e-08)
(0.346716 0.102932 6.92077e-08)
(0.287083 0.109862 5.81772e-08)
(0.206534 0.116974 5.0449e-08)
(0.0913251 0.123325 3.12158e-08)
(0.0194309 0.124715 7.22006e-08)
(2.13352 -0.00795649 -6.83135e-08)
(1.25068 0.00661412 1.59061e-07)
(0.432129 0.105211 3.56032e-07)
(0.318735 0.0865201 -1.785e-07)
(0.38646 0.078095 -7.56889e-08)
(0.457463 0.0775138 -1.06771e-09)
(0.478781 0.0790349 -2.51059e-08)
(0.479341 0.0822493 -7.44211e-08)
(0.486406 0.0862194 -1.19533e-07)
(0.500161 0.0905005 -1.56503e-07)
(0.513142 0.0945618 -1.72588e-07)
(0.512352 0.0974397 -1.57147e-07)
(0.505932 0.097986 -1.24812e-07)
(0.502553 0.0966426 -9.39027e-08)
(0.492823 0.0955349 -6.52919e-08)
(0.481966 0.0971348 -1.97643e-08)
(0.470448 0.10038 -3.01499e-09)
(0.452712 0.107888 8.64234e-08)
(0.429684 0.115704 9.31138e-08)
(0.398376 0.124476 8.81582e-08)
(0.355671 0.132985 7.70716e-08)
(0.296427 0.14272 6.60063e-08)
(0.215496 0.153128 6.10479e-08)
(0.0984713 0.163541 2.96094e-08)
(0.0222082 0.166436 5.06394e-08)
(2.12031 -0.0097504 -9.08767e-08)
(1.28867 0.0111595 1.76059e-07)
(0.460407 0.139843 4.15428e-07)
(0.302219 0.101681 -1.88809e-07)
(0.38378 0.0901058 -4.90603e-08)
(0.459605 0.0912592 -9.99842e-09)
(0.482277 0.0950532 -4.07086e-08)
(0.484259 0.100221 -8.32588e-08)
(0.492213 0.105716 -1.22945e-07)
(0.506573 0.111207 -1.55993e-07)
(0.519934 0.116037 -1.45933e-07)
(0.519318 0.119077 -6.91683e-08)
(0.512037 0.120218 -1.85261e-07)
(0.507789 0.117994 -5.66924e-08)
(0.498663 0.116761 -5.01951e-08)
(0.488361 0.118726 -3.89936e-08)
(0.478253 0.122162 7.77815e-08)