/*--------------------------------*- C++ -*----------------------------------*\
| =========                 |                                                 |
| \\      /  F ield         | OpenFOAM: The Open Source CFD Toolbox           |
|  \\    /   O peration     | Version:  4.1                                   |
|   \\  /    A nd           | Web:      www.OpenFOAM.org                      |
|    \\/     M anipulation  |                                                 |
\*---------------------------------------------------------------------------*/
FoamFile
{
    version     2.0;
    format      ascii;
    class       volScalarField;
    location    "2.82";
    object      Ma;
}
// * * * * * * * * * * * * * * * * * * * * * * * * * * * * * * * * * * * * * //

dimensions      [0 0 0 0 0 0 0];

internalField   nonuniform List<scalar> 
52500
(
3.00002
2.99997
2.99992
2.99969
2.99938
2.9981
2.99627
2.98928
2.97762
2.93976
2.85377
2.65442
2.12637
1.29713
0.539871
0.271677
0.328069
0.345408
0.313017
0.257991
0.205059
0.16334
0.122041
0.0758241
0.0420355
3.00002
2.99997
2.99992
2.9997
2.99939
2.99813
2.99632
2.98941
2.97794
2.94054
2.85591
2.65895
2.1382
1.31222
0.547833
0.272391
0.329992
0.348053
0.315856
0.261599
0.209951
0.169726
0.130728
0.0899155
0.0650071
3.00002
2.99997
2.99992
2.99971
2.9994
2.99818
2.99643
2.98969
2.97859
2.94215
2.86039
2.66846
2.16392
1.34609
0.566568
0.276468
0.336171
0.355958
0.324588
0.272384
0.223716
0.18694
0.152816
0.120284
0.103008
3.00002
2.99998
2.99993
2.99972
2.99943
2.99825
2.99657
2.99003
2.97954
2.9443
2.86766
2.68285
2.20455
1.39986
0.595996
0.284597
0.346776
0.369189
0.339147
0.289871
0.244938
0.212398
0.183681
0.158015
0.144937
3.00002
2.99998
2.99993
2.99973
2.99945
2.99832
2.99673
2.99036
2.9807
2.94663
2.87804
2.70187
2.26031
1.47553
0.637424
0.300959
0.363935
0.38889
0.360134
0.314104
0.272726
0.244256
0.22032
0.199925
0.189764
3.00002
2.99998
2.99994
2.99975
2.99949
2.99844
2.99695
2.99103
2.9821
2.95012
2.88924
2.72411
2.32462
1.57007
0.689761
0.328625
0.389377
0.415335
0.387726
0.344993
0.307133
0.282455
0.263115
0.247538
0.240171
3.00002
2.99998
2.99994
2.99977
2.99954
2.99857
2.9972
2.99177
2.9836
2.95411
2.89978
2.74596
2.39068
1.66781
0.750344
0.367918
0.422713
0.447015
0.421271
0.382525
0.348233
0.327334
0.312549
0.302376
0.300266
3.00002
2.99999
2.99995
2.9998
2.99958
2.9987
2.99746
2.99252
2.98512
2.9582
2.90897
2.76873
2.44078
1.75922
0.807796
0.405738
0.449585
0.470423
0.452145
0.421671
0.393736
0.378395
0.370125
0.367892
0.37584
3.00002
2.99999
2.99996
2.99982
2.99963
2.99885
2.99776
2.99336
2.98678
2.96327
2.91767
2.79557
2.48396
1.87392
0.890717
0.465436
0.471373
0.484539
0.480161
0.460321
0.441414
0.433956
0.434655
0.4468
0.479738
3.00002
3
2.99997
2.99986
2.9997
2.99906
2.99811
2.99469
2.98853
2.96983
2.92579
2.82188
2.5282
1.98186
1.0047
0.539211
0.488313
0.501436
0.507384
0.497908
0.490575
0.492912
0.50994
0.551939
0.651997
3
2.99995
2.9999
2.99967
2.99936
2.99808
2.99625
2.98925
2.97759
2.93973
2.85374
2.65436
2.1263
1.29701
0.539738
0.271457
0.327876
0.345218
0.312806
0.257735
0.204734
0.162926
0.12148
0.0749056
0.04033
3
2.99996
2.9999
2.99968
2.99937
2.99811
2.9963
2.98939
2.97791
2.94051
2.85588
2.65889
2.13813
1.3121
0.547702
0.272172
0.3298
0.347865
0.315648
0.261348
0.209637
0.169332
0.13021
0.089152
0.0639329
3
2.99996
2.9999
2.99969
2.99938
2.99816
2.99641
2.98967
2.97857
2.94212
2.86035
2.6684
2.16386
1.34597
0.566439
0.276246
0.335978
0.355773
0.324385
0.272144
0.223422
0.186586
0.152378
0.119722
0.102343
3
2.99996
2.99991
2.9997
2.99941
2.99823
2.99654
2.99
2.97951
2.94425
2.86765
2.6828
2.20454
1.39977
0.595901
0.284405
0.346607
0.369024
0.338964
0.289653
0.244675
0.21209
0.183321
0.157594
0.144472
3
2.99996
2.99991
2.99971
2.99943
2.9983
2.99671
2.99033
2.98068
2.94659
2.87803
2.70182
2.2603
1.47544
0.637335
0.300777
0.363779
0.388742
0.35997
0.313912
0.272497
0.243995
0.220026
0.199597
0.189414
3
2.99996
2.99992
2.99973
2.99947
2.99842
2.99693
2.99101
2.98208
2.95009
2.88922
2.72406
2.32459
1.56998
0.68967
0.328446
0.389228
0.415198
0.387577
0.344823
0.306936
0.282236
0.262875
0.247279
0.2399
3
2.99997
2.99993
2.99975
2.99952
2.99855
2.99718
2.99175
2.98358
2.95408
2.89975
2.74592
2.39065
1.66774
0.750258
0.367754
0.422577
0.44689
0.421136
0.382376
0.348065
0.327151
0.312353
0.30217
0.300055
3
2.99997
2.99993
2.99978
2.99956
2.99868
2.99744
2.9925
2.9851
2.95817
2.90895
2.76868
2.44075
1.75915
0.807708
0.405582
0.449457
0.470306
0.452023
0.421539
0.393592
0.378242
0.369967
0.367729
0.375677
3
2.99998
2.99994
2.9998
2.99961
2.99883
2.99774
2.99334
2.98676
2.96323
2.91766
2.79552
2.48396
1.87385
0.890645
0.465303
0.471259
0.484428
0.480047
0.460203
0.44129
0.433828
0.434526
0.446672
0.479618
3
2.99998
2.99995
2.99984
2.99968
2.99904
2.99809
2.99467
2.98851
2.9698
2.92576
2.82184
2.52817
1.98179
1.00463
0.53909
0.488203
0.50133
0.507279
0.497801
0.490466
0.492805
0.509836
0.551844
0.651917
3
2.99995
2.9999
2.99967
2.99936
2.99808
2.99625
2.98925
2.97759
2.93973
2.85374
2.65435
2.1263
1.297
0.539736
0.271458
0.327876
0.345218
0.312805
0.257735
0.204734
0.162926
0.12148
0.0749057
0.0403301
3
2.99996
2.9999
2.99968
2.99937
2.99811
2.9963
2.98939
2.97791
2.94051
2.85588
2.65889
2.13813
1.31209
0.547701
0.272173
0.329801
0.347865
0.315648
0.261349
0.209637
0.169332
0.13021
0.0891521
0.063933
3
2.99996
2.9999
2.99969
2.99938
2.99816
2.99641
2.98967
2.97857
2.94212
2.86035
2.66839
2.16386
1.34597
0.566438
0.276247
0.335979
0.355773
0.324385
0.272144
0.223422
0.186586
0.152378
0.119722
0.102343
3
2.99996
2.99991
2.9997
2.99941
2.99823
2.99654
2.99
2.97951
2.94425
2.86765
2.6828
2.20454
1.39977
0.595899
0.284406
0.346607
0.369024
0.338963
0.289653
0.244675
0.21209
0.183321
0.157594
0.144472
3
2.99996
2.99991
2.99971
2.99943
2.9983
2.99671
2.99033
2.98068
2.94659
2.87803
2.70181
2.2603
1.47544
0.637334
0.300777
0.363779
0.388742
0.35997
0.313912
0.272497
0.243994
0.220026
0.199597
0.189415
3
2.99996
2.99992
2.99973
2.99947
2.99842
2.99693
2.99101
2.98208
2.95009
2.88922
2.72406
2.32459
1.56998
0.689668
0.328446
0.389227
0.415198
0.387576
0.344822
0.306936
0.282236
0.262875
0.247279
0.2399
3
2.99997
2.99993
2.99975
2.99952
2.99855
2.99718
2.99175
2.98358
2.95408
2.89975
2.74592
2.39064
1.66773
0.750256
0.367754
0.422577
0.44689
0.421136
0.382375
0.348065
0.32715
0.312353
0.30217
0.300055
3
2.99997
2.99993
2.99978
2.99956
2.99868
2.99744
2.9925
2.9851
2.95817
2.90895
2.76868
2.44075
1.75914
0.807706
0.405581
0.449457
0.470306
0.452023
0.421539
0.393591
0.378242
0.369967
0.367729
0.375677
3
2.99998
2.99994
2.9998
2.99961
2.99883
2.99774
2.99334
2.98676
2.96323
2.91766
2.79552
2.48396
1.87385
0.890643
0.465302
0.471259
0.484428
0.480047
0.460203
0.44129
0.433828
0.434526
0.446672
0.479618
3
2.99998
2.99995
2.99984
2.99968
2.99904
2.99809
2.99467
2.98851
2.9698
2.92576
2.82184
2.52817
1.98179
1.00462
0.539089
0.488203
0.50133
0.507279
0.4978
0.490466
0.492804
0.509836
0.551844
0.651917
3
2.99995
2.9999
2.99967
2.99936
2.99808
2.99625
2.98925
2.97759
2.93973
2.85374
2.65435
2.1263
1.297
0.539736
0.271458
0.327876
0.345218
0.312805
0.257735
0.204734
0.162926
0.12148
0.0749057
0.0403302
3
2.99996
2.9999
2.99968
2.99937
2.99811
2.9963
2.98939
2.97791
2.94051
2.85588
2.65889
2.13813
1.31209
0.547701
0.272173
0.329801
0.347865
0.315648
0.261349
0.209637
0.169332
0.13021
0.0891521
0.063933
3
2.99996
2.9999
2.99969
2.99938
2.99816
2.99641
2.98967
2.97857
2.94212
2.86035
2.66839
2.16386
1.34597
0.566438
0.276247
0.335979
0.355772
0.324384
0.272144
0.223422
0.186586
0.152378
0.119722
0.102343
3
2.99996
2.99991
2.9997
2.99941
2.99823
2.99654
2.99
2.97951
2.94425
2.86765
2.6828
2.20454
1.39977
0.595899
0.284406
0.346607
0.369024
0.338963
0.289653
0.244675
0.21209
0.183321
0.157594
0.144472
3
2.99996
2.99991
2.99971
2.99943
2.9983
2.99671
2.99033
2.98068
2.94659
2.87803
2.70181
2.2603
1.47544
0.637334
0.300777
0.363779
0.388742
0.35997
0.313912
0.272497
0.243994
0.220026
0.199597
0.189415
3
2.99996
2.99992
2.99973
2.99947
2.99842
2.99693
2.99101
2.98208
2.95009
2.88922
2.72406
2.32459
1.56998
0.689668
0.328446
0.389227
0.415198
0.387576
0.344822
0.306936
0.282236
0.262875
0.247279
0.2399
3
2.99997
2.99993
2.99975
2.99952
2.99855
2.99718
2.99175
2.98358
2.95408
2.89975
2.74592
2.39064
1.66773
0.750256
0.367754
0.422577
0.44689
0.421136
0.382375
0.348065
0.32715
0.312353
0.30217
0.300055
3
2.99997
2.99993
2.99978
2.99956
2.99868
2.99744
2.9925
2.9851
2.95817
2.90895
2.76868
2.44075
1.75914
0.807706
0.405581
0.449457
0.470306
0.452023
0.421539
0.393591
0.378242
0.369967
0.367729
0.375677
3
2.99998
2.99994
2.9998
2.99961
2.99883
2.99774
2.99334
2.98676
2.96323
2.91766
2.79552
2.48396
1.87385
0.890643
0.465302
0.471259
0.484428
0.480047
0.460203
0.44129
0.433828
0.434526
0.446672
0.479618
3
2.99998
2.99995
2.99984
2.99968
2.99904
2.99809
2.99467
2.98851
2.9698
2.92576
2.82184
2.52817
1.98179
1.00462
0.539089
0.488203
0.50133
0.507279
0.4978
0.490466
0.492804
0.509836
0.551844
0.651917
3
2.99995
2.9999
2.99967
2.99936
2.99808
2.99625
2.98925
2.97759
2.93973
2.85374
2.65435
2.1263
1.297
0.539736
0.271458
0.327876
0.345218
0.312805
0.257735
0.204734
0.162926
0.12148
0.0749057
0.0403302
3
2.99996
2.9999
2.99968
2.99937
2.99811
2.9963
2.98939
2.97791
2.94051
2.85588
2.65889
2.13813
1.31209
0.547701
0.272173
0.3298
0.347865
0.315648
0.261349
0.209637
0.169332
0.13021
0.0891521
0.063933
3
2.99996
2.9999
2.99969
2.99938
2.99816
2.99641
2.98967
2.97857
2.94212
2.86035
2.66839
2.16386
1.34597
0.566438
0.276247
0.335978
0.355772
0.324384
0.272144
0.223422
0.186586
0.152378
0.119722
0.102343
3
2.99996
2.99991
2.9997
2.99941
2.99823
2.99654
2.99
2.97951
2.94425
2.86765
2.6828
2.20454
1.39977
0.595899
0.284406
0.346607
0.369024
0.338963
0.289653
0.244675
0.21209
0.183321
0.157594
0.144472
3
2.99996
2.99991
2.99971
2.99943
2.9983
2.99671
2.99033
2.98068
2.94659
2.87803
2.70181
2.2603
1.47544
0.637334
0.300777
0.363779
0.388742
0.35997
0.313912
0.272497
0.243994
0.220026
0.199597
0.189415
3
2.99996
2.99992
2.99973
2.99947
2.99842
2.99693
2.99101
2.98208
2.95009
2.88922
2.72406
2.32459
1.56998
0.689668
0.328446
0.389227
0.415197
0.387576
0.344822
0.306936
0.282236
0.262875
0.247279
0.2399
3
2.99997
2.99993
2.99975
2.99952
2.99855
2.99718
2.99175
2.98358
2.95408
2.89975
2.74592
2.39064
1.66773
0.750256
0.367754
0.422577
0.44689
0.421136
0.382375
0.348065
0.32715
0.312353
0.30217
0.300055
3
2.99997
2.99993
2.99978
2.99956
2.99868
2.99744
2.9925
2.9851
2.95817
2.90895
2.76868
2.44075
1.75914
0.807706
0.405581
0.449457
0.470306
0.452022
0.421539
0.393591
0.378242
0.369967
0.367729
0.375677
3
2.99998
2.99994
2.9998
2.99961
2.99883
2.99774
2.99334
2.98676
2.96323
2.91766
2.79552
2.48396
1.87385
0.890643
0.465302
0.471259
0.484428
0.480047
0.460203
0.44129
0.433828
0.434526
0.446672
0.479618
3
2.99998
2.99995
2.99984
2.99968
2.99904
2.99809
2.99467
2.98851
2.9698
2.92576
2.82184
2.52817
1.98179
1.00462
0.539089
0.488203
0.50133
0.507279
0.4978
0.490466
0.492804
0.509836
0.551844
0.651917
3
2.99995
2.9999
2.99967
2.99936
2.99808
2.99625
2.98925
2.97759
2.93973
2.85374
2.65435
2.1263
1.297
0.539736
0.271458
0.327876
0.345218
0.312805
0.257735
0.204734
0.162926
0.12148
0.0749057
0.0403302
3
2.99996
2.9999
2.99968
2.99937
2.99811
2.9963
2.98939
2.97791
2.94051
2.85588
2.65889
2.13813
1.31209
0.547701
0.272173
0.329801
0.347865
0.315648
0.261349
0.209637
0.169332
0.13021
0.0891521
0.063933
3
2.99996
2.9999
2.99969
2.99938
2.99816
2.99641
2.98967
2.97857
2.94212
2.86035
2.66839
2.16386
1.34597
0.566438
0.276247
0.335979
0.355772
0.324384
0.272144
0.223422
0.186586
0.152378
0.119722
0.102343
3
2.99996
2.99991
2.9997
2.99941
2.99823
2.99654
2.99
2.97951
2.94425
2.86765
2.6828
2.20454
1.39977
0.595899
0.284406
0.346607
0.369024
0.338963
0.289653
0.244675
0.21209
0.183321
0.157594
0.144472
3
2.99996
2.99991
2.99971
2.99943
2.9983
2.99671
2.99033
2.98068
2.94659
2.87803
2.70181
2.2603
1.47544
0.637334
0.300777
0.363779
0.388742
0.35997
0.313912
0.272497
0.243994
0.220026
0.199597
0.189415
3
2.99996
2.99992
2.99973
2.99947
2.99842
2.99693
2.99101
2.98208
2.95009
2.88922
2.72406
2.32459
1.56998
0.689668
0.328446
0.389227
0.415197
0.387576
0.344822
0.306936
0.282236
0.262875
0.247279
0.2399
3
2.99997
2.99993
2.99975
2.99952
2.99855
2.99718
2.99175
2.98358
2.95408
2.89975
2.74592
2.39064
1.66773
0.750256
0.367754
0.422577
0.44689
0.421136
0.382375
0.348065
0.32715
0.312353
0.30217
0.300055
3
2.99997
2.99993
2.99978
2.99956
2.99868
2.99744
2.9925
2.9851
2.95817
2.90895
2.76868
2.44075
1.75914
0.807706
0.405581
0.449457
0.470306
0.452023
0.421539
0.393591
0.378242
0.369967
0.367729
0.375677
3
2.99998
2.99994
2.9998
2.99961
2.99883
2.99774
2.99334
2.98676
2.96323
2.91766
2.79552
2.48396
1.87385
0.890643
0.465302
0.471259
0.484428
0.480047
0.460203
0.44129
0.433828
0.434526
0.446672
0.479618
3
2.99998
2.99995
2.99984
2.99968
2.99904
2.99809
2.99467
2.98851
2.9698
2.92576
2.82184
2.52817
1.98179
1.00462
0.539089
0.488203
0.50133
0.507279
0.4978
0.490466
0.492804
0.509836
0.551844
0.651917
3
2.99995
2.9999
2.99967
2.99936
2.99808
2.99625
2.98925
2.97759
2.93973
2.85374
2.65435
2.1263
1.297
0.539736
0.271458
0.327876
0.345218
0.312805
0.257735
0.204734
0.162926
0.12148
0.0749057
0.0403302
3
2.99996
2.9999
2.99968
2.99937
2.99811
2.9963
2.98939
2.97791
2.94051
2.85588
2.65889
2.13813
1.31209
0.547701
0.272173
0.329801
0.347865
0.315648
0.261349
0.209637
0.169332
0.13021
0.0891521
0.063933
3
2.99996
2.9999
2.99969
2.99938
2.99816
2.99641
2.98967
2.97857
2.94212
2.86035
2.66839
2.16386
1.34597
0.566438
0.276247
0.335979
0.355772
0.324384
0.272144
0.223422
0.186586
0.152378
0.119722
0.102343
3
2.99996
2.99991
2.9997
2.99941
2.99823
2.99654
2.99
2.97951
2.94425
2.86765
2.6828
2.20454
1.39977
0.595899
0.284406
0.346607
0.369024
0.338963
0.289653
0.244675
0.21209
0.183321
0.157594
0.144472
3
2.99996
2.99991
2.99971
2.99943
2.9983
2.99671
2.99033
2.98068
2.94659
2.87803
2.70181
2.2603
1.47544
0.637334
0.300777
0.363779
0.388742
0.35997
0.313912
0.272497
0.243994
0.220026
0.199597
0.189415
3
2.99996
2.99992
2.99973
2.99947
2.99842
2.99693
2.99101
2.98208
2.95009
2.88922
2.72406
2.32459
1.56998
0.689668
0.328446
0.389227
0.415198
0.387576
0.344822
0.306936
0.282236
0.262875
0.247279
0.2399
3
2.99997
2.99993
2.99975
2.99952
2.99855
2.99718
2.99175
2.98358
2.95408
2.89975
2.74592
2.39064
1.66773
0.750256
0.367754
0.422577
0.44689
0.421136
0.382375
0.348065
0.32715
0.312353
0.30217
0.300055
3
2.99997
2.99993
2.99978
2.99956
2.99868
2.99744
2.9925
2.9851
2.95817
2.90895
2.76868
2.44075
1.75914
0.807706
0.405581
0.449457
0.470306
0.452023
0.421539
0.393591
0.378242
0.369967
0.367729
0.375677
3
2.99998
2.99994
2.9998
2.99961
2.99883
2.99774
2.99334
2.98676
2.96323
2.91766
2.79552
2.48396
1.87385
0.890643
0.465302
0.471259
0.484428
0.480047
0.460203
0.44129
0.433828
0.434526
0.446672
0.479618
3
2.99998
2.99995
2.99984
2.99968
2.99904
2.99809
2.99467
2.98851
2.9698
2.92576
2.82184
2.52817
1.98179
1.00462
0.539089
0.488203
0.50133
0.507279
0.4978
0.490466
0.492804
0.509836
0.551844
0.651917
3
2.99995
2.9999
2.99967
2.99936
2.99808
2.99625
2.98925
2.97759
2.93973
2.85374
2.65435
2.1263
1.297
0.539736
0.271458
0.327876
0.345218
0.312805
0.257735
0.204734
0.162926
0.12148
0.0749057
0.0403301
3
2.99996
2.9999
2.99968
2.99937
2.99811
2.9963
2.98939
2.97791
2.94051
2.85588
2.65889
2.13813
1.31209
0.547701
0.272173
0.329801
0.347865
0.315648
0.261349
0.209637
0.169332
0.13021
0.0891521
0.063933
3
2.99996
2.9999
2.99969
2.99938
2.99816
2.99641
2.98967
2.97857
2.94212
2.86035
2.66839
2.16386
1.34597
0.566438
0.276247
0.335979
0.355773
0.324385
0.272144
0.223422
0.186586
0.152378
0.119722
0.102343
3
2.99996
2.99991
2.9997
2.99941
2.99823
2.99654
2.99
2.97951
2.94425
2.86765
2.6828
2.20454
1.39977
0.595899
0.284406
0.346607
0.369024
0.338963
0.289653
0.244675
0.21209
0.183321
0.157594
0.144472
3
2.99996
2.99991
2.99971
2.99943
2.9983
2.99671
2.99033
2.98068
2.94659
2.87803
2.70181
2.2603
1.47544
0.637334
0.300777
0.363779
0.388742
0.35997
0.313912
0.272497
0.243994
0.220026
0.199597
0.189415
3
2.99996
2.99992
2.99973
2.99947
2.99842
2.99693
2.99101
2.98208
2.95009
2.88922
2.72406
2.32459
1.56998
0.689668
0.328446
0.389227
0.415198
0.387576
0.344822
0.306936
0.282236
0.262875
0.247279
0.2399
3
2.99997
2.99993
2.99975
2.99952
2.99855
2.99718
2.99175
2.98358
2.95408
2.89975
2.74592
2.39064
1.66773
0.750256
0.367754
0.422577
0.44689
0.421136
0.382375
0.348065
0.32715
0.312353
0.30217
0.300055
3
2.99997
2.99993
2.99978
2.99956
2.99868
2.99744
2.9925
2.9851
2.95817
2.90895
2.76868
2.44075
1.75914
0.807706
0.405581
0.449457
0.470306
0.452023
0.421539
0.393591
0.378242
0.369967
0.367729
0.375677
3
2.99998
2.99994
2.9998
2.99961
2.99883
2.99774
2.99334
2.98676
2.96323
2.91766
2.79552
2.48396
1.87385
0.890643
0.465302
0.471259
0.484428
0.480047
0.460203
0.44129
0.433828
0.434526
0.446672
0.479618
3
2.99998
2.99995
2.99984
2.99968
2.99904
2.99809
2.99467
2.98851
2.9698
2.92576
2.82184
2.52817
1.98179
1.00462
0.539089
0.488203
0.50133
0.507279
0.4978
0.490466
0.492804
0.509836
0.551844
0.651917
3
2.99995
2.9999
2.99967
2.99936
2.99808
2.99625
2.98925
2.97759
2.93973
2.85374
2.65436
2.1263
1.29701
0.539738
0.271457
0.327876
0.345218
0.312806
0.257735
0.204734
0.162926
0.12148
0.0749056
0.04033
3
2.99996
2.9999
2.99968
2.99937
2.99811
2.9963
2.98939
2.97791
2.94051
2.85588
2.65889
2.13813
1.3121
0.547702
0.272172
0.3298
0.347865
0.315648
0.261348
0.209637
0.169332
0.13021
0.089152
0.0639329
3
2.99996
2.9999
2.99969
2.99938
2.99816
2.99641
2.98967
2.97857
2.94212
2.86035
2.6684
2.16386
1.34597
0.566439
0.276246
0.335978
0.355773
0.324385
0.272144
0.223422
0.186586
0.152378
0.119722
0.102343
3
2.99996
2.99991
2.9997
2.99941
2.99823
2.99654
2.99
2.97951
2.94425
2.86765
2.6828
2.20454
1.39977
0.595901
0.284405
0.346607
0.369024
0.338964
0.289653
0.244675
0.21209
0.183321
0.157594
0.144472
3
2.99996
2.99991
2.99971
2.99943
2.9983
2.99671
2.99033
2.98068
2.94659
2.87803
2.70182
2.2603
1.47544
0.637335
0.300777
0.363779
0.388742
0.35997
0.313912
0.272497
0.243995
0.220026
0.199597
0.189414
3
2.99996
2.99992
2.99973
2.99947
2.99842
2.99693
2.99101
2.98208
2.95009
2.88922
2.72406
2.32459
1.56998
0.68967
0.328446
0.389228
0.415198
0.387577
0.344823
0.306936
0.282236
0.262875
0.247279
0.2399
3
2.99997
2.99993
2.99975
2.99952
2.99855
2.99718
2.99175
2.98358
2.95408
2.89975
2.74592
2.39065
1.66774
0.750258
0.367754
0.422577
0.44689
0.421136
0.382376
0.348065
0.327151
0.312353
0.30217
0.300055
3
2.99997
2.99993
2.99978
2.99956
2.99868
2.99744
2.9925
2.9851
2.95817
2.90895
2.76868
2.44075
1.75915
0.807708
0.405582
0.449457
0.470306
0.452023
0.421539
0.393592
0.378242
0.369967
0.367729
0.375677
3
2.99998
2.99994
2.9998
2.99961
2.99883
2.99774
2.99334
2.98676
2.96323
2.91766
2.79552
2.48396
1.87385
0.890645
0.465303
0.471259
0.484428
0.480047
0.460203
0.44129
0.433828
0.434526
0.446672
0.479618
3
2.99998
2.99995
2.99984
2.99968
2.99904
2.99809
2.99467
2.98851
2.9698
2.92576
2.82184
2.52817
1.98179
1.00463
0.539091
0.488203
0.50133
0.507279
0.497801
0.490466
0.492805
0.509836
0.551844
0.651917
3.00002
2.99997
2.99992
2.99969
2.99938
2.9981
2.99627
2.98928
2.97762
2.93976
2.85377
2.65442
2.12637
1.29713
0.539871
0.271677
0.328069
0.345408
0.313017
0.257991
0.205059
0.16334
0.122041
0.075824
0.0420354
3.00002
2.99997
2.99992
2.9997
2.99939
2.99813
2.99632
2.98941
2.97794
2.94054
2.85591
2.65895
2.1382
1.31222
0.547833
0.272391
0.329992
0.348053
0.315856
0.261599
0.209951
0.169726
0.130728
0.0899154
0.065007
3.00002
2.99997
2.99992
2.99971
2.9994
2.99818
2.99643
2.98969
2.97859
2.94215
2.86039
2.66846
2.16392
1.34609
0.566568
0.276468
0.336171
0.355958
0.324588
0.272384
0.223716
0.18694
0.152816
0.120284
0.103008
3.00002
2.99998
2.99993
2.99972
2.99943
2.99825
2.99657
2.99003
2.97954
2.9443
2.86766
2.68285
2.20455
1.39986
0.595996
0.284597
0.346776
0.369189
0.339147
0.289871
0.244938
0.212398
0.183681
0.158015
0.144937
3.00002
2.99998
2.99993
2.99973
2.99945
2.99832
2.99673
2.99036
2.9807
2.94663
2.87804
2.70187
2.26031
1.47553
0.637424
0.300959
0.363935
0.38889
0.360134
0.314104
0.272726
0.244256
0.22032
0.199925
0.189764
3.00002
2.99998
2.99994
2.99975
2.99949
2.99844
2.99695
2.99103
2.9821
2.95012
2.88924
2.72411
2.32462
1.57007
0.689761
0.328625
0.389377
0.415335
0.387726
0.344993
0.307133
0.282455
0.263115
0.247538
0.240171
3.00002
2.99998
2.99994
2.99977
2.99954
2.99857
2.9972
2.99177
2.9836
2.95411
2.89978
2.74596
2.39068
1.66781
0.750344
0.367919
0.422713
0.447015
0.421271
0.382525
0.348233
0.327334
0.312549
0.302376
0.300266
3.00002
2.99999
2.99995
2.9998
2.99958
2.9987
2.99746
2.99252
2.98512
2.9582
2.90897
2.76873
2.44078
1.75922
0.807796
0.405738
0.449585
0.470423
0.452146
0.421671
0.393736
0.378395
0.370125
0.367892
0.37584
3.00002
2.99999
2.99996
2.99982
2.99963
2.99885
2.99776
2.99336
2.98678
2.96327
2.91767
2.79557
2.48396
1.87392
0.890717
0.465436
0.471373
0.484539
0.480161
0.460321
0.441414
0.433956
0.434655
0.4468
0.479738
3.00002
3
2.99997
2.99986
2.9997
2.99906
2.99811
2.99469
2.98853
2.96983
2.92579
2.82188
2.5282
1.98186
1.0047
0.539211
0.488313
0.501436
0.507384
0.497908
0.490575
0.492912
0.50994
0.551939
0.651996
3.00002
3.00001
2.99996
2.9999
2.99966
2.9993
2.99791
2.9958
2.98827
2.97453
2.93322
2.83409
2.61491
2.03992
1.18568
0.629842
0.512173
0.525115
0.537236
0.536456
0.538664
0.553494
0.592727
0.677147
0.855926
3.00002
3.00001
2.99997
2.99992
2.9997
2.9994
2.99817
2.9964
2.98965
2.97844
2.94196
2.85963
2.66763
2.16342
1.3561
0.723274
0.537298
0.551751
0.569263
0.576547
0.587266
0.614697
0.671915
0.77715
0.966384
3.00002
3.00001
2.99998
2.99993
2.99974
2.99948
2.99841
2.9969
2.99085
2.98176
2.94922
2.88645
2.71976
2.31032
1.56118
0.833502
0.577185
0.588823
0.60528
0.61818
0.634935
0.670329
0.73599
0.840841
1.0043
3.00002
3.00001
2.99999
2.99995
2.99979
2.99957
2.99869
2.99744
2.99246
2.98504
2.95799
2.90964
2.76777
2.45703
1.78009
0.956633
0.636954
0.63662
0.648974
0.664776
0.684554
0.722232
0.786409
0.880585
1.01767
3.00002
3.00002
2.99999
2.99996
2.99984
2.99966
2.99897
2.99796
2.99405
2.98799
2.96715
2.92543
2.81587
2.53827
1.97595
1.0841
0.70601
0.675594
0.688561
0.705676
0.728611
0.766137
0.828742
0.911684
1.02654
3.00002
3.00002
3.00001
2.99997
2.99991
2.99968
2.99934
2.99806
2.99609
2.98919
2.97633
2.93875
2.84717
2.6465
2.10821
1.30233
0.812406
0.710892
0.722077
0.740373
0.766918
0.803248
0.859843
0.936892
1.03487
3.00002
3.00002
3.00001
2.99998
2.99993
2.99974
2.99947
2.99836
2.99682
2.99062
2.98132
2.94843
2.88306
2.71508
2.29684
1.55374
0.935687
0.749015
0.751782
0.770895
0.80234
0.838575
0.888201
0.956483
1.04203
3.00002
3.00002
3.00001
2.99999
2.99995
2.9998
2.99959
2.99876
2.99755
2.99288
2.98572
2.96036
2.91402
2.78023
2.48805
1.8373
1.09545
0.812946
0.793945
0.806974
0.834266
0.871561
0.917387
0.977131
1.05129
3.00002
3.00002
3.00002
3
2.99996
2.99989
2.99963
2.99926
2.9978
2.99562
2.98771
2.97399
2.93152
2.8337
2.61624
2.06694
1.27758
0.889107
0.834
0.845
0.867719
0.901591
0.942892
0.995417
1.06034
3.00003
3.00002
3.00002
3.00001
2.99998
2.99993
2.99973
2.99945
2.99833
2.99671
2.99062
2.9805
2.94778
2.8753
2.70372
2.26523
1.51979
1.00677
0.873873
0.876054
0.896834
0.930165
0.969437
1.01529
1.07145
3.00003
3.00003
3.00002
3.00001
3
2.99994
2.99985
2.99952
2.99904
2.99722
2.99432
2.98462
2.96533
2.91282
2.77986
2.50697
1.85734
1.19244
0.93951
0.916483
0.928117
0.95615
0.993816
1.03579
1.0841
3.00003
3.00003
3.00002
3.00002
3.00001
2.99996
2.9999
2.99965
2.9993
2.99792
2.99589
2.98838
2.97567
2.93577
2.84514
2.64262
2.12425
1.38114
1.01738
0.955925
0.963167
0.985315
1.01891
1.05748
1.10101
3.00003
3.00003
3.00003
3.00002
3.00001
2.99999
2.99992
2.99982
2.99942
2.99882
2.99669
2.99299
2.98149
2.95603
2.89249
2.72357
2.39057
1.64525
1.15627
1.00407
0.997164
1.01062
1.03905
1.07621
1.11633
3.00003
3.00003
3.00003
3.00002
3.00001
3
2.99995
2.99987
2.99958
2.99915
2.99748
2.99507
2.98584
2.97123
2.92346
2.82337
2.58089
2.04856
1.34659
1.07998
1.0402
1.04509
1.06532
1.09736
1.13411
3.00003
3.00003
3.00003
3.00002
3.00002
3.00001
2.99998
2.9999
2.99978
2.99931
2.99861
2.996
2.99193
2.97812
2.95143
2.87835
2.69833
2.3265
1.59493
1.18996
1.0803
1.07573
1.088
1.11486
1.15076
3.00003
3.00003
3.00003
3.00003
3.00002
3.00001
3
2.99994
2.99986
2.99953
2.99907
2.99726
2.99463
2.98485
2.96882
2.91846
2.80831
2.5594
1.99902
1.37741
1.14507
1.11423
1.11826
1.13802
1.16805
3.00003
3.00003
3.00003
3.00003
3.00002
3.00002
3
2.99998
2.99989
2.99976
2.99925
2.9985
2.99569
2.99136
2.97628
2.94886
2.8719
2.69184
2.296
1.59729
1.23779
1.15075
1.14698
1.15894
1.1833
3.00003
3.00003
3.00003
3.00003
3.00003
3.00002
3.00001
3
2.99994
2.99985
2.99952
2.99903
2.99718
2.99446
2.98456
2.9679
2.91677
2.80098
2.55374
1.972
1.41666
1.20928
1.18138
1.18529
1.20427
3.00003
3.00003
3.00003
3.00003
3.00003
3.00002
3.00002
3
2.99998
2.99989
2.99975
2.99924
2.99848
2.99569
2.99124
2.97628
2.94859
2.87087
2.69829
2.28837
1.64518
1.30801
1.22201
1.21473
1.2241
3.00003
3.00003
3.00003
3.00003
3.00003
3.00003
3.00002
3.00002
2.99999
2.99995
2.99982
2.99961
2.99884
2.9977
2.99351
2.98686
2.96478
2.92306
2.81017
2.56143
2.01279
1.4735
1.27815
1.24851
1.25092
3.00003
3.00003
3.00003
3.00003
3.00003
3.00003
3.00002
3.00002
3
2.99998
2.99989
2.99976
2.99927
2.99855
2.99583
2.99177
2.97726
2.95236
2.87918
2.71992
2.35099
1.71937
1.37734
1.28698
1.27818
3.00003
3.00003
3.00003
3.00003
3.00003
3.00003
3.00003
3.00002
3.00002
2.99999
2.99996
2.99983
2.99964
2.99894
2.99789
2.99409
2.98801
2.96806
2.93088
2.8277
2.61155
2.10096
1.55901
1.34526
1.3118
3.00003
3.00003
3.00003
3.00003
3.00003
3.00003
3.00003
3.00003
3.00002
3.00001
2.99999
2.9999
2.99979
2.99934
2.9987
2.99624
2.99266
2.97958
2.9579
2.89275
2.75169
2.43283
1.81936
1.45273
1.34735
3.00003
3.00003
3.00003
3.00003
3.00003
3.00003
3.00003
3.00003
3.00002
3.00002
3
2.99995
2.99988
2.99961
2.99923
2.99776
2.99563
2.98774
2.97536
2.93524
2.85672
2.66094
2.2324
1.65787
1.42065
3.00003
3.00003
3.00003
3.00003
3.00003
3.00003
3.00003
3.00003
3.00003
3.00002
3.00001
2.99998
2.99994
2.99978
2.99955
2.99866
2.99738
2.99259
2.98527
2.96036
2.91402
2.7926
2.50926
1.95659
1.55497
3.00003
3.00003
3.00003
3.00003
3.00003
3.00003
3.00003
3.00003
3.00003
3.00003
3.00002
3.00001
2.99997
2.99991
2.9997
2.99937
2.99821
2.99642
2.99023
2.97973
2.94776
2.87822
2.72212
2.3385
1.77417
3.00003
3.00003
3.00003
3.00003
3.00003
3.00003
3.00003
3.00003
3.00003
3.00003
3.00002
3.00001
3
2.99995
2.99987
2.99958
2.99914
2.99757
2.99515
2.98691
2.97244
2.93143
2.83743
2.63895
2.17897
3.00003
3.00003
3.00003
3.00003
3.00003
3.00003
3.00003
3.00003
3.00003
3.00003
3.00003
3.00002
3.00001
2.99999
2.99992
2.99981
2.99941
2.99881
2.99668
2.99328
2.98224
2.96124
2.90626
2.77849
2.49665
3.00003
3.00003
3.00003
3.00003
3.00003
3.00003
3.00003
3.00003
3.00003
3.00003
3.00003
3.00003
3.00002
3.00001
2.99996
2.9999
2.99967
2.99933
2.99808
2.99625
2.98956
2.97911
2.94514
2.87918
2.71695
3.00003
3.00003
3.00003
3.00003
3.00003
3.00003
3.00003
3.00003
3.00003
3.00003
3.00003
3.00003
3.00002
3.00001
3
2.99995
2.99986
2.99957
2.99913
2.99757
2.99516
2.98698
2.97293
2.93203
2.84248
3.00003
3.00003
3.00003
3.00003
3.00003
3.00003
3.00003
3.00003
3.00003
3.00003
3.00003
3.00003
3.00003
3.00002
3.00001
2.99999
2.99992
2.99981
2.99943
2.99884
2.9968
2.99354
2.98286
2.96364
2.90959
3.00003
3.00003
3.00003
3.00003
3.00003
3.00003
3.00003
3.00003
3.00003
3.00003
3.00003
3.00003
3.00003
3.00002
3.00002
3
2.99998
2.99989
2.99975
2.99926
2.9985
2.99589
2.99165
2.97806
2.95351
3.00003
3.00003
3.00003
3.00003
3.00003
3.00003
3.00003
3.00003
3.00003
3.00003
3.00003
3.00003
3.00003
3.00003
3.00002
3.00001
3
2.99995
2.99988
2.99961
2.99921
2.99778
2.99561
2.98821
2.97581
3.00003
3.00003
3.00003
3.00003
3.00003
3.00003
3.00003
3.00003
3.00003
3.00003
3.00003
3.00003
3.00003
3.00003
3.00003
3.00002
3.00001
2.99999
2.99993
2.99984
2.99951
2.999
2.99726
2.99447
2.98542
3.00003
3.00003
3.00003
3.00003
3.00003
3.00003
3.00003
3.00003
3.00003
3.00003
3.00003
3.00003
3.00003
3.00003
3.00003
3.00003
3.00002
3.00001
2.99998
2.99991
2.99979
2.99937
2.99873
2.99654
2.99298
3.00003
3.00003
3.00003
3.00003
3.00003
3.00003
3.00003
3.00003
3.00003
3.00003
3.00003
3.00003
3.00003
3.00003
3.00003
3.00003
3.00002
3.00002
3
2.99997
2.99987
2.99972
2.9992
2.99839
2.99563
3.00003
3.00003
3.00003
3.00003
3.00003
3.00003
3.00003
3.00003
3.00003
3.00003
3.00003
3.00003
3.00003
3.00003
3.00003
3.00003
3.00003
3.00002
3.00002
2.99999
2.99995
2.99982
2.99962
2.99891
2.99782
3.00003
3.00003
3.00003
3.00003
3.00003
3.00003
3.00003
3.00003
3.00003
3.00003
3.00003
3.00003
3.00003
3.00003
3.00003
3.00003
3.00003
3.00002
3.00002
3
2.99998
2.99988
2.99975
2.99923
2.99848
3.00003
3.00003
3.00003
3.00003
3.00003
3.00003
3.00003
3.00003
3.00003
3.00003
3.00003
3.00003
3.00003
3.00003
3.00003
3.00003
3.00003
3.00003
3.00002
3.00001
2.99998
2.99993
2.99974
2.99947
2.99841
3.00003
3.00003
3.00003
3.00003
3.00003
3.00003
3.00003
3.00003
3.00003
3.00003
3.00003
3.00003
3.00003
3.00003
3.00003
3.00003
3.00003
3.00003
3.00002
3.00001
2.99998
2.99994
2.99976
2.9995
2.99847
3
2.99999
2.99994
2.99988
2.99964
2.99928
2.99789
2.99578
2.98824
2.97451
2.93319
2.83406
2.61485
2.03988
1.18558
0.629736
0.512067
0.525013
0.537136
0.536358
0.538568
0.553402
0.592643
0.677078
0.855881
3
2.99999
2.99995
2.9999
2.99968
2.99938
2.99814
2.99638
2.98962
2.97842
2.94192
2.8596
2.66757
2.16337
1.356
0.72318
0.537194
0.551651
0.569168
0.576456
0.58718
0.614617
0.671845
0.777093
0.966346
3
2.99999
2.99996
2.99991
2.99972
2.99946
2.99839
2.99688
2.99082
2.98174
2.94919
2.88642
2.71971
2.31028
1.5611
0.833425
0.577088
0.588727
0.60519
0.618095
0.634856
0.670256
0.735928
0.840791
1.00427
3
3
2.99997
2.99993
2.99977
2.99955
2.99867
2.99742
2.99244
2.98502
2.95796
2.90962
2.76773
2.45699
1.78002
0.956568
0.636865
0.636535
0.648893
0.6647
0.684481
0.722167
0.786351
0.880537
1.01764
3
3
2.99998
2.99994
2.99982
2.99964
2.99895
2.99794
2.99403
2.98797
2.96711
2.92542