/*--------------------------------*- C++ -*----------------------------------*\
| =========                 |                                                 |
| \\      /  F ield         | OpenFOAM: The Open Source CFD Toolbox           |
|  \\    /   O peration     | Version:  4.1                                   |
|   \\  /    A nd           | Web:      www.OpenFOAM.org                      |
|    \\/     M anipulation  |                                                 |
\*---------------------------------------------------------------------------*/
FoamFile
{
    version     2.0;
    format      ascii;
    class       volVectorField;
    location    "6.5";
    object      U;
}
// * * * * * * * * * * * * * * * * * * * * * * * * * * * * * * * * * * * * * //

dimensions      [0 1 -1 0 0 0 0];

internalField   nonuniform List<vector> 
500
(
(3.00001 -6.15384e-08 4.38078e-17)
(3 -5.2636e-08 8.52792e-20)
(3 -1.97616e-08 9.95168e-18)
(3 -1.18921e-08 1.33624e-24)
(3 -4.48906e-09 1.23483e-23)
(3.00001 -2.08227e-07 4.35811e-17)
(3 -1.801e-07 1.72344e-19)
(3 -6.92173e-08 1.00384e-17)
(3 -3.87727e-08 1.51734e-17)
(3 -1.34428e-08 1.23574e-23)
(3.00002 -4.40194e-07 8.67024e-17)
(3.00001 -3.8474e-07 2.633e-19)
(3 -1.50151e-07 1.03732e-17)
(3 -7.94037e-08 2.9786e-17)
(3 -2.61079e-08 1.31769e-23)
(3.00002 -7.59364e-07 8.63164e-17)
(3.00001 -6.70469e-07 1.5442e-17)
(3.00001 -2.64562e-07 3.02677e-17)
(3.00001 -1.32844e-07 2.88397e-17)
(3.00001 -4.21165e-08 2.29024e-23)
(3.00003 -1.16821e-06 4.31267e-17)
(3.00001 -1.04074e-06 3.02205e-17)
(3.00001 -4.14315e-07 1.07637e-17)
(3.00001 -1.98894e-07 2.7905e-17)
(3.00001 -6.13413e-08 2.44952e-23)
(3.00003 -1.66939e-06 4.30542e-17)
(3.00001 -1.49892e-06 3.02222e-17)
(3.00001 -6.01169e-07 3.0396e-17)
(3.00001 -2.77545e-07 2.65619e-17)
(3.00001 -8.37898e-08 -1.27224e-17)
(3.00004 -2.26575e-06 4.29805e-17)
(3.00002 -2.04826e-06 3.022e-17)
(3.00001 -8.26778e-07 3.00305e-17)
(3.00001 -3.68939e-07 1.05181e-17)
(3.00001 -1.09544e-07 -1.27224e-17)
(3.00004 -2.96024e-06 4.29051e-17)
(3.00002 -2.69198e-06 3.02142e-17)
(3.00001 -1.09272e-06 2.96494e-17)
(3.00001 -4.73287e-07 9.71883e-18)
(3.00001 -1.38733e-07 -1.27223e-17)
(3.00004 -3.75591e-06 9.35408e-19)
(3.00002 -3.43316e-06 3.03931e-17)
(3.00001 -1.40052e-06 4.79697e-17)
(3.00001 -5.90863e-07 -5.59671e-18)
(3.00001 -1.71512e-07 -1.27223e-17)
(3.00005 -4.65588e-06 4.27538e-17)
(3.00002 -4.27484e-06 3.05629e-17)
(3.00002 -1.75158e-06 4.69105e-17)
(3.00001 -7.21963e-07 -6.29605e-18)
(3.00001 -2.08057e-07 -2.51519e-17)
(3.00005 -5.66325e-06 1.2969e-18)
(3.00003 -5.21998e-06 3.05261e-17)
(3.00002 -2.14729e-06 2.70771e-17)
(3.00002 -8.66881e-07 -7.43419e-18)
(3.00002 -2.48557e-07 -3.75057e-17)
(3.00006 -6.78122e-06 1.48232e-18)
(3.00003 -6.2714e-06 3.02848e-17)
(3.00002 -2.58889e-06 8.01569e-18)
(3.00002 -1.02592e-06 5.68057e-18)
(3.00002 -2.93204e-07 -3.75055e-17)
(3.00007 -8.01288e-06 8.33705e-17)
(3.00003 -7.43188e-06 3.00371e-17)
(3.00002 -3.07758e-06 7.64073e-18)
(3.00002 -1.19933e-06 -1.00884e-17)
(3.00002 -3.422e-07 -3.75054e-17)
(3.00007 -9.36139e-06 8.31988e-17)
(3.00003 -8.70402e-06 5.76078e-17)
(3.00002 -3.61442e-06 -1.14159e-17)
(3.00002 -1.38737e-06 -2.4709e-17)
(3.00002 -3.95744e-07 -2.53853e-17)
(3.00008 -1.08298e-05 1.63448e-16)
(3.00004 -1.00903e-05 2.89782e-17)
(3.00003 -4.20041e-06 -1.17027e-17)
(3.00002 -1.59022e-06 -2.47355e-17)
(3.00002 -4.54036e-07 -2.53852e-17)
(3.00008 -1.2421e-05 1.62517e-16)
(3.00004 -1.15931e-05 2.84996e-17)
(3.00003 -4.83637e-06 -1.2293e-17)
(3.00002 -1.80806e-06 -3.85825e-17)
(3.00002 -5.17274e-07 -2.53851e-17)
(3.00009 -1.41381e-05 1.61569e-16)
(3.00004 -1.32146e-05 2.77978e-17)
(3.00003 -5.52305e-06 -3.08502e-17)
(3.00003 -2.04099e-06 -3.80422e-17)
(3.00003 -5.85653e-07 -2.5385e-17)
(3.00009 -1.59837e-05 1.60606e-16)
(3.00005 -1.49567e-05 2.70889e-17)
(3.00003 -6.26103e-06 -3.10022e-17)
(3.00003 -2.28909e-06 -3.7514e-17)
(3.00003 -6.59363e-07 -2.53849e-17)
(3.0001 -1.79606e-05 1.59625e-16)
(3.00005 -1.68212e-05 2.65907e-17)
(3.00003 -7.05076e-06 -1.34305e-17)
(3.00003 -2.55238e-06 -3.69983e-17)
(3.00003 -7.38586e-07 -2.53848e-17)
(3.0001 -2.00713e-05 1.58825e-16)
(3.00005 -1.88097e-05 5.27047e-17)
(3.00004 -7.89254e-06 -3.18569e-17)
(3.00003 -2.83079e-06 -4.93809e-17)
(3.00003 -8.23505e-07 -1.37614e-17)
(3.00011 -2.23181e-05 2.34996e-16)
(3.00006 -2.09232e-05 2.51969e-17)
(3.00004 -8.78648e-06 -1.51285e-17)
(3.00004 -3.12427e-06 -6.10872e-17)
(3.00003 -9.14285e-07 -1.37613e-17)
(3.00011 -2.47031e-05 3.10163e-16)
(3.00006 -2.31629e-05 5.13106e-17)
(3.00004 -9.73255e-06 7.61405e-19)
(3.00004 -3.43262e-06 -7.21253e-17)
(3.00004 -1.01109e-06 -1.37613e-17)
(3.00012 -2.72283e-05 3.0811e-16)
(3.00006 -2.55294e-05 5.06157e-17)
(3.00004 -1.07305e-05 -1.0019e-18)
(3.00004 -3.75568e-06 -6.94517e-17)
(3.00004 -1.11408e-06 -1.37612e-17)
(3.00012 -2.98953e-05 3.81406e-16)
(3.00007 -2.8023e-05 4.96632e-17)
(3.00005 -1.17799e-05 -1.9723e-17)
(3.00004 -4.09315e-06 -6.79048e-17)
(3.00004 -1.22339e-06 -3.63037e-17)
(3.00013 -3.27055e-05 3.03909e-16)
(3.00007 -3.06438e-05 4.86985e-17)
(3.00005 -1.28802e-05 -2.02436e-17)
(3.00004 -4.44471e-06 -3.96945e-17)
(3.00004 -1.33915e-06 -1.39421e-17)
(3.00013 -3.56602e-05 3.75687e-16)
(3.00007 -3.33912e-05 2.21569e-17)
(3.00005 -1.40305e-05 -2.0109e-17)
(3.00005 -4.80998e-06 -1.51823e-17)
(3.00005 -1.46148e-06 -5.82986e-17)
(3.00014 -3.87598e-05 3.72446e-16)
(3.00008 -3.62645e-05 -3.80066e-18)
(3.00006 -1.52299e-05 -2.00624e-17)
(3.00005 -5.1885e-06 -1.8391e-17)
(3.00005 -1.5905e-06 -8.02915e-17)
(3.00014 -4.2005e-05 3.69167e-16)
(3.00008 -3.92624e-05 -4.03324e-18)
(3.00006 -1.64769e-05 -2.01018e-17)
(3.00005 -5.57978e-06 -2.14972e-17)
(3.00005 -1.72629e-06 -8.02911e-17)
(3.00015 -4.53958e-05 3.65849e-16)
(3.00008 -4.23833e-05 -4.27057e-18)
(3.00006 -1.77702e-05 -2.095e-17)
(3.00006 -5.98321e-06 -5.03047e-17)
(3.00005 -1.86893e-06 -1.01908e-16)
(3.00015 -4.89318e-05 3.62496e-16)
(3.00009 -4.56249e-05 -4.02056e-18)
(3.00006 -1.9108e-05 1.03986e-17)
(3.00006 -6.39822e-06 -5.1874e-17)
(3.00006 -2.01849e-06 -8.04809e-17)
(3.00016 -5.26123e-05 2.88186e-16)
(3.00009 -4.89848e-05 -3.78635e-18)
(3.00007 -2.04884e-05 8.54028e-18)
(3.00006 -6.82406e-06 -5.33882e-17)
(3.00006 -2.17501e-06 -8.04801e-17)
(3.00016 -5.6436e-05 2.85426e-16)
(3.00009 -5.24598e-05 -4.07371e-18)
(3.00007 -2.19092e-05 -2.49223e-17)
(3.00007 -7.26002e-06 -5.37135e-17)
(3.00006 -2.33851e-06 -5.94398e-17)
(3.00017 -6.04015e-05 3.52233e-16)
(3.0001 -5.60461e-05 -3.89526e-18)
(3.00008 -2.33679e-05 4.82024e-18)
(3.00007 -7.7053e-06 -7.66017e-17)
(3.00007 -2.50901e-06 -3.85942e-17)
(3.00017 -6.45064e-05 3.4829e-16)
(3.0001 -5.97398e-05 -5.07735e-17)
(3.00008 -2.48619e-05 3.33345e-17)
(3.00007 -8.159e-06 -7.56283e-17)
(3.00007 -2.6865e-06 -5.92314e-17)
(3.00018 -6.87484e-05 3.43866e-16)
(3.00011 -6.3536e-05 -9.64543e-17)
(3.00008 -2.63883e-05 3.06805e-17)
(3.00008 -8.62028e-06 -5.14714e-17)
(3.00007 -2.87095e-06 -5.92192e-17)
(3.00018 -7.31241e-05 2.71878e-16)
(3.00011 -6.74297e-05 -9.43718e-17)
(3.00009 -2.7944e-05 2.80879e-17)
(3.00008 -9.0881e-06 -5.07377e-17)
(3.00008 -3.0623e-06 -3.8958e-17)
(3.00019 -7.76301e-05 2.6813e-16)
(3.00012 -7.14149e-05 -9.23517e-17)
(3.00009 -2.95256e-05 2.4821e-17)
(3.00008 -9.56153e-06 -7.27382e-17)
(3.00008 -3.26049e-06 -3.8933e-17)
(3.00019 -8.22624e-05 2.64377e-16)
(3.00012 -7.54855e-05 -9.03976e-17)
(3.00009 -3.11294e-05 2.09325e-17)
(3.00009 -1.00395e-05 -9.31469e-17)
(3.00009 -3.46541e-06 -3.89037e-17)
(3.0002 -8.7016e-05 2.60129e-16)
(3.00012 -7.96346e-05 -1.3411e-16)
(3.0001 -3.2752e-05 -1.17985e-17)
(3.00009 -1.05209e-05 -8.98193e-17)
(3.00009 -3.67698e-06 -3.88742e-17)
(3.0002 -9.18862e-05 2.549e-16)
(3.00013 -8.38549e-05 -2.2114e-16)
(3.0001 -3.4389e-05 -1.34678e-17)
(3.0001 -1.10047e-05 -6.47018e-17)
(3.00009 -3.89502e-06 -3.88486e-17)
(3.0002 -9.6867e-05 1.22042e-16)
(3.00013 -8.81387e-05 -1.73751e-16)
(3.00011 -3.60365e-05 -4.25276e-17)
(3.0001 -1.14897e-05 -1.9698e-17)
(3.0001 -4.1194e-06 -3.88302e-17)
(3.00021 -0.000101952 2.45098e-16)
(3.00014 -9.24774e-05 -1.70758e-16)
(3.00011 -3.769e-05 -1.43343e-17)
(3.0001 -1.19747e-05 -4.35301e-17)
(3.0001 -4.34993e-06 -5.78195e-17)
(3.00021 -0.000107136 2.39748e-16)
(3.00014 -9.68626e-05 -1.67238e-16)
(3.00012 -3.93452e-05 1.25453e-17)
(3.00011 -1.24587e-05 -4.44505e-17)
(3.00011 -4.58641e-06 -5.78191e-17)
(3.00022 -0.00011241 2.3497e-16)
(3.00015 -0.000101285 -1.2166e-16)
(3.00012 -4.09975e-05 -1.5787e-17)
(3.00011 -1.29403e-05 -3.56914e-18)
(3.00011 -4.82862e-06 -5.78266e-17)
(3.00022 -0.000117768 3.52864e-16)
(3.00015 -0.000105735 -1.20584e-16)
(3.00013 -4.26421e-05 -6.97961e-17)
(3.00012 -1.34185e-05 -7.23044e-18)
(3.00012 -5.07631e-06 -5.78405e-17)
(3.00023 -0.0001232 4.66667e-16)
(3.00016 -0.000110202 -1.61595e-16)
(3.00013 -4.42744e-05 -9.46026e-17)
(3.00012 -1.3892e-05 -1.07103e-17)
(3.00012 -5.32923e-06 -5.78592e-17)
(3.00023 -0.0001287 5.78126e-16)
(3.00016 -0.000114677 -1.60096e-16)
(3.00014 -4.58895e-05 -9.02548e-17)
(3.00013 -1.43599e-05 2.36697e-17)
(3.00013 -5.58709e-06 -9.37287e-17)
(3.00024 -0.000134258 6.87088e-16)
(3.00017 -0.000119149 -1.99073e-16)
(3.00014 -4.74826e-05 -8.53862e-17)
(3.00013 -1.48209e-05 3.76743e-17)
(3.00013 -5.84959e-06 -5.83415e-17)
(3.00024 -0.000139864 6.76417e-16)
(3.00017 -0.000123608 -2.3661e-16)
(3.00015 -4.90489e-05 -8.08249e-17)
(3.00014 -1.52738e-05 3.07672e-17)
(3.00014 -6.11644e-06 -5.83661e-17)
(3.00024 -0.000145511 6.65502e-16)
(3.00018 -0.000128042 -2.3319e-16)
(3.00015 -5.05839e-05 -7.65e-17)
(3.00014 -1.57178e-05 2.67674e-17)
(3.00014 -6.38728e-06 -2.38599e-17)
(3.00025 -0.000151187 6.54246e-16)
(3.00018 -0.00013244 -2.29155e-16)
(3.00016 -5.20823e-05 -4.71158e-17)
(3.00015 -1.61518e-05 2.30004e-17)
(3.00015 -6.66179e-06 -2.38848e-17)
(3.00025 -0.000156884 5.29756e-16)
(3.00019 -0.000136792 -3.02028e-16)
(3.00016 -5.35403e-05 -4.44555e-17)
(3.00016 -1.65748e-05 1.69301e-17)
(3.00015 -6.93964e-06 -5.75536e-17)
(3.00026 -0.000162592 4.08085e-16)
(3.0002 -0.000141087 -2.96176e-16)
(3.00017 -5.49526e-05 -4.21074e-17)
(3.00016 -1.6986e-05 1.12265e-17)
(3.00016 -7.2204e-06 -5.75788e-17)
(3.00026 -0.000168301 3.98217e-16)
(3.0002 -0.000145314 -2.91419e-16)
(3.00018 -5.63156e-05 -8.85885e-17)
(3.00017 -1.73845e-05 5.87457e-18)
(3.00017 -7.50381e-06 -5.76039e-17)
(3.00027 -0.000174 6.03105e-16)
(3.00021 -0.000149463 -2.86553e-16)
(3.00018 -5.7625e-05 -8.31178e-17)
(3.00017 -1.77698e-05 3.66979e-17)
(3.00017 -7.78944e-06 -5.76273e-17)
(3.00027 -0.000179679 5.90276e-16)
(3.00021 -0.000153522 -2.81596e-16)
(3.00019 -5.88769e-05 -7.82524e-17)
(3.00018 -1.81409e-05 2.66075e-17)
(3.00018 -8.07688e-06 -8.9499e-17)
(3.00028 -0.000185331 5.76594e-16)
(3.00022 -0.000157485 -3.47084e-16)
(3.0002 -6.00685e-05 -2.57191e-17)
(3.00019 -1.84978e-05 5.70239e-17)
(3.00019 -8.36592e-06 -2.67053e-17)
(3.00028 -0.000190943 6.64922e-16)
(3.00023 -0.000161336 -4.0972e-16)
(3.0002 -6.11951e-05 -2.23657e-17)
(3.00019 -1.88394e-05 4.75909e-17)
(3.00019 -8.65597e-06 -5.76573e-17)
(3.00028 -0.000196509 6.49135e-16)
(3.00023 -0.000165073 -4.00011e-16)
(3.00021 -6.22561e-05 -2.10882e-17)
(3.0002 -1.91661e-05 5.156e-18)
(3.0002 -8.9469e-06 -5.76464e-17)
(3.00029 -0.000202015 6.32532e-16)
(3.00024 -0.000168681 -4.57718e-16)
(3.00022 -6.32466e-05 2.42358e-17)
(3.00021 -1.94769e-05 -1.44112e-19)
(3.00021 -9.23823e-06 -5.76253e-17)
(3.00029 -0.000207456 6.16147e-16)
(3.00024 -0.000172157 -4.45192e-16)
(3.00022 -6.41662e-05 2.43976e-17)
(3.00021 -1.97723e-05 2.75171e-17)
(3.00021 -9.52962e-06 -5.75978e-17)
(3.0003 -0.000212824 5.99964e-16)
(3.00025 -0.000175492 -4.32786e-16)
(3.00023 -6.5013e-05 2.43196e-17)
(3.00022 -2.00521e-05 2.26662e-17)
(3.00022 -9.82087e-06 -2.84268e-17)
(3.0003 -0.000218105 5.83957e-16)
(3.00026 -0.000178674 -4.21682e-16)
(3.00024 -6.57835e-05 -1.67798e-17)
(3.00023 -2.03158e-05 4.71335e-17)
(3.00023 -1.01114e-05 -5.70889e-17)
(3.00031 -0.000223303 7.55449e-16)
(3.00026 -0.000181709 -4.10743e-16)
(3.00024 -6.64817e-05 -1.41628e-17)
(3.00024 -2.05651e-05 3.52848e-17)
(3.00023 -1.04014e-05 -8.53029e-17)
(3.00031 -0.000228394 7.35709e-16)
(3.00027 -0.000184576 -4.63116e-16)
(3.00025 -6.71001e-05 -1.06523e-17)
(3.00024 -2.07978e-05 5.47583e-17)
(3.00024 -1.069e-05 -8.52857e-17)
(3.00032 -0.000233388 7.16182e-16)
(3.00028 -0.000187286 -4.50617e-16)
(3.00026 -6.76459e-05 -9.48172e-18)
(3.00025 -2.1017e-05 1.19892e-17)
(3.00025 -1.09774e-05 -8.52735e-17)
(3.00032 -0.000238271 6.96871e-16)
(3.00029 -0.000189827 -4.38218e-16)
(3.00027 -6.81154e-05 -8.82896e-18)
(3.00026 -2.12216e-05 2.9239e-18)
(3.00026 -1.12632e-05 -8.52651e-17)
(3.00033 -0.00024303 8.53972e-16)
(3.00029 -0.000192189 -3.65877e-16)
(3.00027 -6.85061e-05 -8.64035e-18)
(3.00027 -2.14111e-05 -5.39493e-18)
(3.00026 -1.15469e-05 -8.52593e-17)
(3.00034 -0.000247685 8.33078e-16)
(3.0003 -0.000194395 -3.54411e-16)
(3.00028 -6.88315e-05 2.92028e-17)
(3.00027 -2.15902e-05 -1.30237e-17)
(3.00027 -1.18292e-05 -8.5255e-17)
(3.00034 -0.000252194 8.13448e-16)
(3.00031 -0.000196405 -2.84153e-16)
(3.00029 -6.90748e-05 6.3785e-17)
(3.00028 -2.17535e-05 -2.00221e-17)
(3.00028 -1.21086e-05 -8.52507e-17)
(3.00035 -0.000256586 6.28898e-16)
(3.00031 -0.000198253 -2.18116e-16)
(3.0003 -6.92532e-05 2.1976e-17)
(3.00029 -2.19067e-05 -2.64396e-17)
(3.00029 -1.2386e-05 -8.52448e-17)
(3.00035 -0.000260849 6.13677e-16)
(3.00032 -0.000199932 -2.10897e-16)
(3.0003 -6.93676e-05 2.16583e-17)
(3.0003 -2.20507e-05 1.61998e-17)
(3.0003 -1.26613e-05 -1.34522e-16)
(3.00036 -0.00026495 5.98645e-16)
(3.00033 -0.000201406 -2.03822e-16)
(3.00031 -6.94002e-05 2.05608e-17)
(3.0003 -2.21784e-05 9.63609e-19)
(3.0003 -1.29327e-05 -1.34509e-16)
(3.00036 -0.000268946 5.83806e-16)
(3.00034 -0.000202746 -1.97008e-16)
(3.00032 -6.9391e-05 1.57526e-17)
(3.00031 -2.23046e-05 -6.42646e-17)
(3.00031 -1.32031e-05 -1.34493e-16)
(3.00037 -0.00027278 5.69161e-16)
(3.00034 -0.000203886 -1.90475e-16)
(3.00032 -6.93041e-05 1.07121e-17)
(3.00032 -2.24155e-05 -7.15421e-17)
(3.00032 -1.34691e-05 -1.34476e-16)
(3.00037 -0.00027645 7.0219e-16)
(3.00035 -0.000204845 -2.36057e-16)
(3.00033 -6.91612e-05 5.49215e-18)
(3.00032 -2.25199e-05 -7.81413e-17)
(3.00032 -1.37326e-05 -1.34461e-16)
(3.00038 -0.000280032 6.85976e-16)
(3.00035 -0.000205687 -2.28369e-16)
(3.00034 -6.89786e-05 2.75226e-18)
(3.00033 -2.26209e-05 -4.05684e-17)
(3.00033 -1.39937e-05 -1.7934e-16)
(3.00038 -0.00028338 8.13853e-16)
(3.00036 -0.000206287 -2.18867e-16)
(3.00034 -6.87195e-05 6.32442e-17)
(3.00033 -2.27087e-05 -5.54767e-17)
(3.00033 -1.42504e-05 -1.79325e-16)
(3.00038 -0.000286633 7.93583e-16)
(3.00036 -0.000206772 -2.07754e-16)
(3.00034 -6.84236e-05 1.17782e-16)
(3.00034 -2.27929e-05 -6.89383e-17)
(3.00034 -1.45038e-05 -1.79307e-16)
(3.00038 -0.000289729 7.73766e-16)
(3.00036 -0.000207106 -1.97286e-16)
(3.00035 -6.80963e-05 1.05293e-16)
(3.00034 -2.28773e-05 -8.1073e-17)
(3.00034 -1.4755e-05 -1.79284e-16)
(3.00038 -0.000292573 7.54307e-16)
(3.00036 -0.000207187 -1.85414e-16)
(3.00035 -6.76827e-05 1.52942e-16)
(3.00034 -2.2943e-05 -9.19952e-17)
(3.00034 -1.49991e-05 -1.79259e-16)
(3.00038 -0.000295297 7.35134e-16)
(3.00036 -0.000207158 -1.74357e-16)
(3.00035 -6.72473e-05 1.36649e-16)
(3.00034 -2.30081e-05 -1.01813e-16)
(3.00034 -1.52391e-05 -1.79235e-16)
(3.00037 -0.000297833 4.52521e-16)
(3.00036 -0.000206965 -2.53923e-16)
(3.00034 -6.67767e-05 1.20968e-16)
(3.00034 -2.30721e-05 -1.06093e-16)
(3.00034 -1.54754e-05 -1.3943e-16)
(3.00037 -0.00030017 4.3902e-16)
(3.00035 -0.000206605 -2.3939e-16)
(3.00034 -6.62664e-05 1.59267e-16)
(3.00033 -2.31287e-05 -1.55899e-16)
(3.00033 -1.57049e-05 -1.7837e-16)
(3.00036 -0.000302287 4.27201e-16)
(3.00035 -0.000206072 -1.38063e-16)
(3.00033 -6.57172e-05 1.91043e-16)
(3.00033 -2.31783e-05 -1.94089e-16)
(3.00033 -1.59269e-05 -1.40196e-16)
(3.00035 -0.000304152 4.16622e-16)
(3.00034 -0.000205352 -4.30357e-17)
(3.00032 -6.51249e-05 1.65634e-16)
(3.00032 -2.32175e-05 -1.87607e-16)
(3.00032 -1.61391e-05 -1.40137e-16)
(3.00034 -0.000305765 4.05829e-16)
(3.00033 -0.000204466 -3.44236e-17)
(3.00031 -6.45025e-05 1.95327e-16)
(3.00031 -2.32491e-05 -1.73366e-16)
(3.00031 -1.63403e-05 -6.70395e-17)
(3.00033 -0.000307076 3.9524e-16)
(3.00032 -0.00020339 -2.86923e-17)
(3.0003 -6.38412e-05 1.21999e-16)
(3.0003 -2.3268e-05 -1.22808e-16)
(3.0003 -1.6527e-05 -6.69712e-17)
(3.00031 -0.000308045 3.84998e-16)
(3.0003 -0.000202122 -2.54944e-17)
(3.00029 -6.31448e-05 5.52712e-17)
(3.00029 -2.32706e-05 -1.15967e-16)
(3.00029 -1.6695e-05 -6.68753e-17)
(3.00029 -0.000308615 3.73357e-16)
(3.00029 -0.000200647 -9.77316e-17)
(3.00028 -6.24137e-05 9.06009e-17)
(3.00027 -2.32574e-05 -1.45791e-16)
(3.00027 -1.68408e-05 -6.66892e-17)
(3.00028 -0.000308765 3.62039e-16)
(3.00027 -0.000198983 -8.89376e-17)
(3.00026 -6.1647e-05 1.21818e-16)
(3.00026 -2.32168e-05 -1.35577e-16)
(3.00026 -1.69563e-05 -6.6329e-17)
(3.00026 -0.000308362 3.50864e-16)
(3.00026 -0.000197058 -8.06468e-17)
(3.00025 -6.08254e-05 1.1015e-16)
(3.00024 -2.3142e-05 -5.7586e-17)
(3.00024 -1.70353e-05 -6.57033e-17)
(3.00024 -0.000307377 3.37976e-16)
(3.00024 -0.000194897 -1.43765e-16)
(3.00023 -5.99556e-05 9.38595e-17)
(3.00022 -2.3027e-05 -1.32486e-16)
(3.00022 -1.707e-05 -1.28407e-16)
(3.00022 -0.000305749 3.2497e-16)
(3.00022 -0.000192502 -1.34153e-16)
(3.00021 -5.90434e-05 7.8878e-17)
(3.00021 -2.2868e-05 -1.30413e-16)
(3.00021 -1.7054e-05 -1.26981e-16)
(3.0002 -0.000303484 3.11708e-16)
(3.0002 -0.000189949 -1.24873e-16)
(3.00019 -5.81343e-05 6.00715e-17)
(3.00019 -2.2675e-05 -1.99554e-16)
(3.00019 -1.69834e-05 -1.85752e-16)
(3.00018 -0.000300494 2.99612e-16)
(3.00019 -0.000187176 -5.29192e-17)
(3.00018 -5.71863e-05 -4.10212e-17)
(3.00017 -2.24287e-05 -1.95315e-16)
(3.00017 -1.68489e-05 -1.83238e-16)
(3.00017 -0.000296636 9.80905e-17)
(3.00017 -0.000184095 -5.36052e-17)
(3.00016 -5.61772e-05 -1.33158e-16)
(3.00016 -2.21194e-05 -1.98302e-16)
(3.00016 -1.66461e-05 -2.3795e-16)
(3.00016 -0.00029196 2.73844e-16)
(3.00016 -0.000180744 -5.39077e-17)
(3.00015 -5.51022e-05 -1.39678e-16)
(3.00015 -2.17385e-05 -2.58805e-16)
(3.00015 -1.637e-05 -2.34279e-16)
(3.00015 -0.000286563 4.39101e-16)
(3.00016 -0.00017717 -5.37129e-17)
(3.00015 -5.39497e-05 -1.44624e-16)
(3.00015 -2.12777e-05 -2.51361e-16)
(3.00015 -1.60201e-05 -2.30119e-16)
(3.00011 -0.000280595 2.44676e-16)
(3.00012 -0.000173408 -4.96157e-17)
(3.00011 -5.26635e-05 -6.79808e-17)
(3.00011 -2.07291e-05 -1.95785e-16)
(3.00011 -1.56136e-05 -2.79191e-16)
)
;

boundaryField
{
    axis
    {
        type            empty;
    }
    inlet
    {
        type            fixedValue;
        value           uniform (3 0 0);
    }
    wall
    {
        type            zeroGradient;
    }
    outlet
    {
        type            zeroGradient;
    }
    front
    {
        type            wedge;
    }
    back
    {
        type            wedge;
    }
}


// ************************************************************************* //
