/*--------------------------------*- C++ -*----------------------------------*\
| =========                 |                                                 |
| \\      /  F ield         | OpenFOAM: The Open Source CFD Toolbox           |
|  \\    /   O peration     | Version:  4.1                                   |
|   \\  /    A nd           | Web:      www.OpenFOAM.org                      |
|    \\/     M anipulation  |                                                 |
\*---------------------------------------------------------------------------*/
FoamFile
{
    version     2.0;
    format      ascii;
    class       volScalarField;
    location    "1.38";
    object      p;
}
// * * * * * * * * * * * * * * * * * * * * * * * * * * * * * * * * * * * * * //

dimensions      [1 -1 -2 0 0 0 0];

internalField   nonuniform List<scalar> 
52500
(
1
1.00002
1.00007
1.00015
1.00044
1.0009
1.00257
1.00521
1.01514
1.02991
1.09344
1.18013
1.6187
2.46171
5.48116
11.8588
11.4696
11.1086
11.1615
11.343
11.5596
11.691
11.7783
11.8328
11.8838
1
1.00002
1.00007
1.00015
1.00043
1.00089
1.00254
1.00516
1.01498
1.02959
1.09242
1.1782
1.61172
2.44518
5.43127
11.7936
11.4457
11.1013
11.1549
11.3334
11.5482
11.6797
11.7685
11.8255
11.8781
1
1.00002
1.00007
1.00014
1.00042
1.00087
1.00248
1.00504
1.01464
1.02895
1.09027
1.17437
1.59702
2.41052
5.32447
11.6466
11.3898
11.0786
11.1273
11.2927
11.5026
11.6335
11.7231
11.7823
11.836
1
1.00002
1.00006
1.00014
1.0004
1.00083
1.00238
1.00483
1.01407
1.02785
1.08709
1.16714
1.57691
2.35636
5.1668
11.4148
11.3024
11.0444
11.0793
11.2181
11.4226
11.5528
11.642
11.7033
11.76
1
1.00002
1.00006
1.00013
1.00038
1.00078
1.00223
1.00452
1.01323
1.02586
1.08322
1.15449
1.55202
2.27813
4.96557
11.0836
11.1693
11.0163
11.0214
11.1176
11.3135
11.4433
11.53
11.592
11.6524
1
1.00001
1.00005
1.00012
1.00034
1.00071
1.00205
1.00412
1.01231
1.02314
1.0788
1.14007
1.51864
2.18691
4.71259
10.6206
11.081
10.9482
10.9243
11.0001
11.1738
11.2993
11.3804
11.4396
11.5032
1
1.00001
1.00005
1.0001
1.00031
1.00064
1.00185
1.00367
1.01126
1.02042
1.07337
1.1249
1.48409
2.06425
4.43127
10.0022
11.0057
10.8692
10.7986
10.8588
11.006
11.1182
11.1847
11.2302
11.2894
1
1.00001
1.00004
1.00009
1.00027
1.00056
1.00164
1.00323
1.0101
1.01785
1.06636
1.10938
1.44061
1.92722
4.0993
9.21054
10.9539
10.7981
10.653
10.6947
10.8077
10.8942
10.9328
10.9446
10.9769
1
1.00001
1.00004
1.00008
1.00024
1.0005
1.00146
1.0029
1.00891
1.0161
1.05829
1.09695
1.38595
1.80536
3.69236
8.23527
10.9385
10.7425
10.4926
10.5093
10.5776
10.621
10.6067
10.543
10.4769
1
1.00001
1.00003
1.00007
1.0002
1.00042
1.00123
1.00241
1.00758
1.01331
1.04974
1.08144
1.32658
1.67167
3.24879
7.08784
10.9394
10.7059
10.3315
10.2973
10.3151
10.2964
10.1993
9.96575
9.59831
1
1.00002
1.00007
1.00015
1.00044
1.00091
1.00258
1.00522
1.01515
1.02993
1.09345
1.18017
1.61875
2.46187
5.48151
11.8591
11.4696
11.1085
11.1614
11.343
11.5596
11.6911
11.7784
11.8329
11.8839
1
1.00002
1.00007
1.00015
1.00044
1.0009
1.00255
1.00517
1.01499
1.02961
1.09244
1.17824
1.61177
2.44534
5.43161
11.7939
11.4457
11.1012
11.1548
11.3334
11.5482
11.6798
11.7686
11.8256
11.8782
1
1.00002
1.00007
1.00015
1.00043
1.00088
1.00249
1.00505
1.01465
1.02896
1.09029
1.17441
1.59707
2.41068
5.32481
11.647
11.3898
11.0784
11.1271
11.2927
11.5026
11.6335
11.7232
11.7823
11.8361
1
1.00002
1.00007
1.00014
1.00041
1.00084
1.00239
1.00484
1.01408
1.02786
1.0871
1.16719
1.57694
2.35655
5.1671
11.4152
11.3024
11.0441
11.0792
11.218
11.4226
11.5528
11.642
11.7033
11.7601
1
1.00002
1.00006
1.00013
1.00038
1.00078
1.00224
1.00453
1.01324
1.02589
1.08323
1.15456
1.55204
2.27832
4.96589
11.0841
11.1691
11.0161
11.0213
11.1175
11.3135
11.4433
11.53
11.592
11.6524
1
1.00002
1.00006
1.00012
1.00035
1.00072
1.00205
1.00413
1.01232
1.02316
1.07881
1.14013
1.51867
2.18709
4.71292
10.6212
11.0808
10.9481
10.9242
11.0001
11.1738
11.2993
11.3804
11.4396
11.5031
1
1.00002
1.00005
1.00011
1.00031
1.00064
1.00185
1.00368
1.01127
1.02044
1.07338
1.12497
1.48412
2.06446
4.43162
10.0029
11.0054
10.869
10.7985
10.8588
11.006
11.1182
11.1846
11.2301
11.2892
1
1.00001
1.00004
1.0001
1.00028
1.00057
1.00165
1.00324
1.01011
1.01786
1.06639
1.10942
1.4407
1.92744
4.09973
9.21148
10.9535
10.7978
10.653
10.6947
10.8077
10.8941
10.9327
10.9445
10.9767
1
1.00001
1.00004
1.00009
1.00025
1.00051
1.00147
1.00291
1.00892
1.01612
1.05831
1.09701
1.38603
1.80557
3.69291
8.23655
10.9381
10.7422
10.4925
10.5093
10.5776
10.6209
10.6066
10.5428
10.4766
1
1.00001
1.00003
1.00007
1.00021
1.00043
1.00123
1.00242
1.00759
1.01333
1.04977
1.08148
1.32668
1.67191
3.24944
7.0895
10.9389
10.7056
10.3314
10.2972
10.3151
10.2963
10.1992
9.96554
9.59802
1
1.00002
1.00007
1.00015
1.00044
1.00091
1.00258
1.00522
1.01515
1.02993
1.09345
1.18017
1.61875
2.46188
5.48152
11.8591
11.4696
11.1085
11.1614
11.343
11.5596
11.6911
11.7784
11.8329
11.8839
1
1.00002
1.00007
1.00015
1.00044
1.0009
1.00255
1.00517
1.01499
1.02961
1.09244
1.17824
1.61177
2.44534
5.43162
11.7939
11.4457
11.1012
11.1548
11.3334
11.5482
11.6798
11.7686
11.8256
11.8782
1
1.00002
1.00007
1.00015
1.00043
1.00088
1.00249
1.00505
1.01465
1.02896
1.09029
1.17441
1.59707
2.41069
5.32482
11.647
11.3898
11.0784
11.1271
11.2927
11.5026
11.6335
11.7232
11.7823
11.8361
1
1.00002
1.00007
1.00014
1.00041
1.00084
1.00239
1.00484
1.01408
1.02786
1.0871
1.16719
1.57695
2.35656
5.16711
11.4152
11.3024
11.0441
11.0792
11.218
11.4226
11.5528
11.642
11.7033
11.76
1
1.00002
1.00006
1.00013
1.00038
1.00078
1.00224
1.00453
1.01324
1.02589
1.08323
1.15456
1.55204
2.27832
4.9659
11.0841
11.1691
11.0161
11.0213
11.1175
11.3135
11.4433
11.53
11.592
11.6524
1
1.00002
1.00006
1.00012
1.00035
1.00072
1.00205
1.00413
1.01232
1.02316
1.07881
1.14013
1.51868
2.1871
4.71294
10.6212
11.0808
10.9481
10.9242
11.0001
11.1738
11.2993
11.3804
11.4396
11.5031
1
1.00002
1.00005
1.00011
1.00031
1.00064
1.00185
1.00368
1.01127
1.02044
1.07338
1.12497
1.48412
2.06447
4.43163
10.003
11.0054
10.869
10.7985
10.8588
11.006
11.1182
11.1846
11.2301
11.2892
1
1.00001
1.00004
1.0001
1.00028
1.00057
1.00165
1.00324
1.01011
1.01786
1.06639
1.10942
1.4407
1.92744
4.09974
9.21151
10.9535
10.7978
10.653
10.6947
10.8077
10.8941
10.9327
10.9445
10.9766
1
1.00001
1.00004
1.00009
1.00025
1.00051
1.00147
1.00291
1.00892
1.01612
1.05831
1.09701
1.38604
1.80557
3.69293
8.23659
10.9381
10.7422
10.4925
10.5093
10.5776
10.6209
10.6066
10.5428
10.4766
1
1.00001
1.00003
1.00007
1.00021
1.00043
1.00123
1.00242
1.00759
1.01333
1.04977
1.08149
1.32668
1.67192
3.24946
7.08954
10.9389
10.7056
10.3314
10.2972
10.3151
10.2963
10.1992
9.96553
9.598
1
1.00002
1.00007
1.00015
1.00044
1.00091
1.00258
1.00522
1.01515
1.02993
1.09345
1.18017
1.61875
2.46188
5.48152
11.8591
11.4696
11.1085
11.1614
11.343
11.5596
11.6911
11.7784
11.8329
11.8839
1
1.00002
1.00007
1.00015
1.00044
1.0009
1.00255
1.00517
1.01499
1.02961
1.09244
1.17824
1.61177
2.44535
5.43162
11.7939
11.4457
11.1012
11.1548
11.3334
11.5482
11.6798
11.7686
11.8256
11.8782
1
1.00002
1.00007
1.00015
1.00043
1.00088
1.00249
1.00505
1.01465
1.02896
1.09029
1.17441
1.59707
2.41069
5.32483
11.647
11.3898
11.0784
11.1271
11.2927
11.5026
11.6335
11.7232
11.7823
11.8361
1
1.00002
1.00007
1.00014
1.00041
1.00084
1.00239
1.00484
1.01408
1.02786
1.0871
1.16719
1.57695
2.35656
5.16712
11.4152
11.3024
11.0441
11.0792
11.218
11.4226
11.5528
11.642
11.7033
11.76
1
1.00002
1.00006
1.00013
1.00038
1.00078
1.00224
1.00453
1.01324
1.02589
1.08323
1.15456
1.55205
2.27832
4.9659
11.0841
11.1691
11.0161
11.0213
11.1175
11.3136
11.4433
11.53
11.592
11.6524
1
1.00002
1.00006
1.00012
1.00035
1.00072
1.00205
1.00413
1.01232
1.02316
1.07881
1.14013
1.51868
2.1871
4.71294
10.6212
11.0808
10.9481
10.9242
11.0001
11.1738
11.2993
11.3804
11.4396
11.5031
1
1.00002
1.00005
1.00011
1.00031
1.00064
1.00185
1.00368
1.01127
1.02044
1.07338
1.12497
1.48412
2.06447
4.43164
10.003
11.0054
10.869
10.7985
10.8588
11.006
11.1182
11.1846
11.2301
11.2892
1
1.00001
1.00004
1.0001
1.00028
1.00057
1.00165
1.00324
1.01011
1.01786
1.06639
1.10942
1.4407
1.92745
4.09975
9.21152
10.9535
10.7978
10.653
10.6947
10.8077
10.8941
10.9327
10.9445
10.9766
1
1.00001
1.00004
1.00009
1.00025
1.00051
1.00147
1.00291
1.00892
1.01612
1.05831
1.09701
1.38604
1.80558
3.69293
8.23661
10.9381
10.7422
10.4925
10.5093
10.5776
10.6209
10.6066
10.5428
10.4766
1
1.00001
1.00003
1.00007
1.00021
1.00043
1.00123
1.00242
1.00759
1.01333
1.04977
1.08149
1.32669
1.67192
3.24947
7.08957
10.9389
10.7056
10.3314
10.2972
10.3151
10.2963
10.1992
9.96553
9.598
1
1.00002
1.00007
1.00015
1.00044
1.00091
1.00258
1.00522
1.01515
1.02993
1.09345
1.18017
1.61876
2.46188
5.48153
11.8591
11.4696
11.1085
11.1614
11.343
11.5596
11.6911
11.7784
11.8329
11.8839
1
1.00002
1.00007
1.00015
1.00044
1.0009
1.00255
1.00517
1.01499
1.02961
1.09244
1.17824
1.61177
2.44535
5.43163
11.794
11.4457
11.1012
11.1547
11.3334
11.5482
11.6798
11.7686
11.8256
11.8782
1
1.00002
1.00007
1.00015
1.00043
1.00088
1.00249
1.00505
1.01465
1.02896
1.09029
1.17441
1.59707
2.41069
5.32484
11.647
11.3898
11.0784
11.1271
11.2927
11.5026
11.6335
11.7232
11.7823
11.8361
1
1.00002
1.00007
1.00014
1.00041
1.00084
1.00239
1.00484
1.01408
1.02786
1.08711
1.16719
1.57695
2.35657
5.16713
11.4152
11.3024
11.0441
11.0792
11.218
11.4226
11.5528
11.642
11.7033
11.76
1
1.00002
1.00006
1.00013
1.00038
1.00078
1.00224
1.00453
1.01324
1.02589
1.08323
1.15456
1.55205
2.27833
4.96591
11.0841
11.1691
11.0161
11.0213
11.1175
11.3135
11.4433
11.53
11.592
11.6524
1
1.00002
1.00006
1.00012
1.00035
1.00072
1.00205
1.00413
1.01232
1.02316
1.07881
1.14013
1.51868
2.18711
4.71295
10.6212
11.0808
10.9481
10.9242
11.0001
11.1738
11.2993
11.3804
11.4396
11.5031
1
1.00002
1.00005
1.00011
1.00031
1.00064
1.00185
1.00368
1.01127
1.02044
1.07338
1.12497
1.48412
2.06447
4.43165
10.003
11.0054
10.869
10.7985
10.8588
11.006
11.1182
11.1846
11.2301
11.2892
1
1.00001
1.00004
1.0001
1.00028
1.00057
1.00165
1.00324
1.01011
1.01786
1.06639
1.10942
1.4407
1.92745
4.09976
9.21155
10.9535
10.7978
10.653
10.6947
10.8077
10.8941
10.9327
10.9445
10.9766
1
1.00001
1.00004
1.00009
1.00025
1.00051
1.00147
1.00291
1.00892
1.01612
1.05831
1.09701
1.38604
1.80558
3.69295
8.23664
10.9381
10.7422
10.4925
10.5093
10.5776
10.6209
10.6066
10.5428
10.4766
1
1.00001
1.00003
1.00007
1.00021
1.00043
1.00123
1.00242
1.00759
1.01333
1.04977
1.08149
1.32669
1.67193
3.24949
7.08961
10.9389
10.7056
10.3314
10.2972
10.3151
10.2963
10.1992
9.96552
9.59799
1
1.00002
1.00007
1.00015
1.00044
1.00091
1.00258
1.00522
1.01515
1.02993
1.09345
1.18017
1.61876
2.46188
5.48153
11.8591
11.4696
11.1085
11.1614
11.343
11.5596
11.6911
11.7784
11.8329
11.8839
1
1.00002
1.00007
1.00015
1.00044
1.0009
1.00255
1.00517
1.01499
1.02961
1.09244
1.17824
1.61177
2.44535
5.43163
11.7939
11.4457
11.1012
11.1548
11.3334
11.5482
11.6798
11.7686
11.8256
11.8782
1
1.00002
1.00007
1.00015
1.00043
1.00088
1.00249
1.00505
1.01465
1.02896
1.09029
1.17441
1.59707
2.41069
5.32483
11.647
11.3898
11.0784
11.1271
11.2927
11.5026
11.6335
11.7232
11.7823
11.8361
1
1.00002
1.00007
1.00014
1.00041
1.00084
1.00239
1.00484
1.01408
1.02786
1.0871
1.16719
1.57695
2.35656
5.16712
11.4152
11.3024
11.0441
11.0792
11.218
11.4226
11.5528
11.642
11.7033
11.76
1
1.00002
1.00006
1.00013
1.00038
1.00078
1.00224
1.00453
1.01324
1.02589
1.08323
1.15456
1.55205
2.27832
4.96591
11.0841
11.1691
11.0161
11.0213
11.1175
11.3135
11.4433
11.53
11.592
11.6524
1
1.00002
1.00006
1.00012
1.00035
1.00072
1.00205
1.00413
1.01232
1.02316
1.07881
1.14013
1.51868
2.1871
4.71295
10.6212
11.0808
10.9481
10.9242
11.0001
11.1738
11.2993
11.3804
11.4396
11.5031
1
1.00002
1.00005
1.00011
1.00031
1.00064
1.00185
1.00368
1.01127
1.02044
1.07338
1.12497
1.48412
2.06447
4.43164
10.003
11.0054
10.869
10.7985
10.8588
11.006
11.1182
11.1846
11.2301
11.2892
1
1.00001
1.00004
1.0001
1.00028
1.00057
1.00165
1.00324
1.01011
1.01786
1.06639
1.10942
1.4407
1.92745
4.09975
9.21153
10.9535
10.7978
10.653
10.6947
10.8077
10.8941
10.9327
10.9445
10.9766
1
1.00001
1.00004
1.00009
1.00025
1.00051
1.00147
1.00291
1.00892
1.01612
1.05831
1.09701
1.38604
1.80558
3.69294
8.23662
10.9381
10.7422
10.4925
10.5093
10.5776
10.6209
10.6066
10.5428
10.4766
1
1.00001
1.00003
1.00007
1.00021
1.00043
1.00123
1.00242
1.00759
1.01333
1.04977
1.08149
1.32669
1.67192
3.24947
7.08958
10.9389
10.7056
10.3314
10.2972
10.3151
10.2963
10.1992
9.96552
9.598
1
1.00002
1.00007
1.00015
1.00044
1.00091
1.00258
1.00522
1.01515
1.02993
1.09345
1.18017
1.61875
2.46188
5.48152
11.8591
11.4696
11.1085
11.1614
11.343
11.5596
11.6911
11.7784
11.8329
11.8839
1
1.00002
1.00007
1.00015
1.00044
1.0009
1.00255
1.00517
1.01499
1.02961
1.09244
1.17824
1.61177
2.44535
5.43162
11.7939
11.4457
11.1012
11.1548
11.3334
11.5482
11.6798
11.7686
11.8256
11.8782
1
1.00002
1.00007
1.00015
1.00043
1.00088
1.00249
1.00505
1.01465
1.02896
1.09029
1.17441
1.59707
2.41069
5.32483
11.647
11.3898
11.0784
11.1271
11.2927
11.5026
11.6335
11.7232
11.7823
11.8361
1
1.00002
1.00007
1.00014
1.00041
1.00084
1.00239
1.00484
1.01408
1.02786
1.0871
1.16719
1.57695
2.35656
5.16712
11.4152
11.3024
11.0441
11.0792
11.218
11.4226
11.5528
11.642
11.7033
11.76
1
1.00002
1.00006
1.00013
1.00038
1.00078
1.00224
1.00453
1.01324
1.02589
1.08323
1.15456
1.55204
2.27832
4.9659
11.0841
11.1691
11.0161
11.0213
11.1175
11.3135
11.4433
11.53
11.592
11.6524
1
1.00002
1.00006
1.00012
1.00035
1.00072
1.00205
1.00413
1.01232
1.02316
1.07881
1.14013
1.51868
2.1871
4.71294
10.6212
11.0808
10.9481
10.9242
11.0001
11.1738
11.2993
11.3804
11.4396
11.5031
1
1.00002
1.00005
1.00011
1.00031
1.00064
1.00185
1.00368
1.01127
1.02044
1.07338
1.12497
1.48412
2.06447
4.43164
10.003
11.0054
10.869
10.7985
10.8588
11.006
11.1182
11.1846
11.2301
11.2892
1
1.00001
1.00004
1.0001
1.00028
1.00057
1.00165
1.00324
1.01011
1.01786
1.06639
1.10942
1.4407
1.92745
4.09975
9.21152
10.9535
10.7978
10.653
10.6947
10.8077
10.8941
10.9327
10.9445
10.9766
1
1.00001
1.00004
1.00009
1.00025
1.00051
1.00147
1.00291
1.00892
1.01612
1.05831
1.09701
1.38604
1.80558
3.69293
8.23661
10.9381
10.7422
10.4925
10.5093
10.5776
10.6209
10.6066
10.5428
10.4766
1
1.00001
1.00003
1.00007
1.00021
1.00043
1.00123
1.00242
1.00759
1.01333
1.04977
1.08149
1.32669
1.67192
3.24947
7.08956
10.9389
10.7056
10.3314
10.2972
10.3151
10.2963
10.1992
9.96553
9.598
1
1.00002
1.00007
1.00015
1.00044
1.00091
1.00258
1.00522
1.01515
1.02993
1.09345
1.18017
1.61875
2.46188
5.48152
11.8591
11.4696
11.1085
11.1614
11.343
11.5596
11.6911
11.7784
11.8329
11.8839
1
1.00002
1.00007
1.00015
1.00044
1.0009
1.00255
1.00517
1.01499
1.02961
1.09244
1.17824
1.61177
2.44534
5.43162
11.7939
11.4457
11.1012
11.1548
11.3334
11.5482
11.6798
11.7686
11.8256
11.8782
1
1.00002
1.00007
1.00015
1.00043
1.00088
1.00249
1.00505
1.01465
1.02896
1.09029
1.17441
1.59707
2.41069
5.32482
11.647
11.3898
11.0784
11.1271
11.2927
11.5026
11.6335
11.7232
11.7823
11.8361
1
1.00002
1.00007
1.00014
1.00041
1.00084
1.00239
1.00484
1.01408
1.02786
1.0871
1.16719
1.57695
2.35656
5.16711
11.4152
11.3024
11.0441
11.0792
11.218
11.4226
11.5528
11.642
11.7033
11.76
1
1.00002
1.00006
1.00013
1.00038
1.00078
1.00224
1.00453
1.01324
1.02589
1.08323
1.15456
1.55204
2.27832
4.9659
11.0841
11.1691
11.0161
11.0213
11.1175
11.3135
11.4433
11.53
11.592
11.6524
1
1.00002
1.00006
1.00012
1.00035
1.00072
1.00205
1.00413
1.01232
1.02316
1.07881
1.14013
1.51868
2.1871
4.71294
10.6212
11.0808
10.9481
10.9242
11.0001
11.1738
11.2993
11.3804
11.4396
11.5031
1
1.00002
1.00005
1.00011
1.00031
1.00064
1.00185
1.00368
1.01127
1.02044
1.07338
1.12497
1.48412
2.06447
4.43163
10.003
11.0054
10.869
10.7985
10.8588
11.006
11.1182
11.1846
11.2301
11.2892
1
1.00001
1.00004
1.0001
1.00028
1.00057
1.00165
1.00324
1.01011
1.01786
1.06639
1.10942
1.4407
1.92744
4.09974
9.21151
10.9535
10.7978
10.653
10.6947
10.8077
10.8941
10.9327
10.9445
10.9766
1
1.00001
1.00004
1.00009
1.00025
1.00051
1.00147
1.00291
1.00892
1.01612
1.05831
1.09701
1.38604
1.80557
3.69293
8.23659
10.9381
10.7422
10.4925
10.5093
10.5776
10.6209
10.6066
10.5428
10.4766
1
1.00001
1.00003
1.00007
1.00021
1.00043
1.00123
1.00242
1.00759
1.01333
1.04977
1.08149
1.32668
1.67192
3.24946
7.08954
10.9389
10.7056
10.3314
10.2972
10.3151
10.2963
10.1992
9.96553
9.598
1
1.00002
1.00007
1.00015
1.00044
1.00091
1.00258
1.00522
1.01515
1.02993
1.09345
1.18017
1.61875
2.46187
5.48151
11.8591
11.4696
11.1085
11.1614
11.343
11.5596
11.6911
11.7784
11.8329
11.8839
1
1.00002
1.00007
1.00015
1.00044
1.0009
1.00255
1.00517
1.01499
1.02961
1.09244
1.17824
1.61177
2.44534
5.43161
11.7939
11.4457
11.1012
11.1548
11.3334
11.5482
11.6798
11.7686
11.8256
11.8782
1
1.00002
1.00007
1.00015
1.00043
1.00088
1.00249
1.00505
1.01465
1.02896
1.09029
1.17441
1.59707
2.41068
5.32481
11.647
11.3898
11.0784
11.1271
11.2927
11.5026
11.6335
11.7232
11.7823
11.8361
1
1.00002
1.00007
1.00014
1.00041
1.00084
1.00239
1.00484
1.01408
1.02786
1.0871
1.16719
1.57694
2.35655
5.1671
11.4152
11.3024
11.0441
11.0792
11.218
11.4226
11.5528
11.642
11.7033
11.7601
1
1.00002
1.00006
1.00013
1.00038
1.00078
1.00224
1.00453
1.01324
1.02589
1.08323
1.15456
1.55204
2.27832
4.96589
11.0841
11.1691
11.0161
11.0213
11.1175
11.3135
11.4433
11.53
11.592
11.6524
1
1.00002
1.00006
1.00012
1.00035
1.00072
1.00205
1.00413
1.01232
1.02316
1.07881
1.14013
1.51867
2.18709
4.71292
10.6212
11.0808
10.9481
10.9242
11.0001
11.1738
11.2993
11.3804
11.4396
11.5031
1
1.00002
1.00005
1.00011
1.00031
1.00064
1.00185
1.00368
1.01127
1.02044
1.07338
1.12497
1.48412
2.06446
4.43162
10.0029
11.0054
10.869
10.7985
10.8588
11.006
11.1182
11.1846
11.2301
11.2892
1
1.00001
1.00004
1.0001
1.00028
1.00057
1.00165
1.00324
1.01011
1.01786
1.06639
1.10942
1.4407
1.92744
4.09973
9.21148
10.9535
10.7978
10.653
10.6947
10.8077
10.8941
10.9327
10.9445
10.9767
1
1.00001
1.00004
1.00009
1.00025
1.00051
1.00147
1.00291
1.00892
1.01612
1.05831
1.09701
1.38603
1.80557
3.69291
8.23655
10.9381
10.7422
10.4925
10.5093
10.5776
10.6209
10.6066
10.5428
10.4766
1
1.00001
1.00003
1.00007
1.00021
1.00043
1.00123
1.00242
1.00759
1.01333
1.04977
1.08148
1.32668
1.67191
3.24944
7.08949
10.9389
10.7056
10.3314
10.2972
10.3151
10.2963
10.1992
9.96554
9.59802
1
1.00002
1.00007
1.00015
1.00044
1.0009
1.00257
1.00521
1.01514
1.02991
1.09344
1.18013
1.6187
2.46171
5.48116
11.8588
11.4696
11.1086
11.1615
11.343
11.5596
11.691
11.7783
11.8328
11.8838
1
1.00002
1.00007
1.00015
1.00043
1.00089
1.00254
1.00516
1.01498
1.02959
1.09242
1.1782
1.61172
2.44518
5.43126
11.7936
11.4457
11.1013
11.1549
11.3334
11.5482
11.6797
11.7685
11.8255
11.8781
1
1.00002
1.00007
1.00014
1.00042
1.00087
1.00248
1.00504
1.01464
1.02895
1.09027
1.17437
1.59702
2.41052
5.32447
11.6466
11.3898
11.0786
11.1273
11.2927
11.5026
11.6335
11.7231
11.7823
11.836
1
1.00002
1.00006
1.00014
1.0004
1.00083
1.00238
1.00483
1.01407
1.02785
1.08709
1.16714
1.57691
2.35636
5.1668
11.4148
11.3024
11.0444
11.0793
11.2181
11.4226
11.5528
11.642
11.7033
11.76
1
1.00002
1.00006
1.00013
1.00038
1.00078
1.00223
1.00452
1.01323
1.02586
1.08322
1.15449
1.55202
2.27813
4.96557
11.0836
11.1693
11.0163
11.0214
11.1176
11.3135
11.4433
11.53
11.592
11.6524
1
1.00001
1.00005
1.00012
1.00034
1.00071
1.00205
1.00412
1.01231
1.02314
1.0788
1.14007
1.51864
2.18691
4.71259
10.6206
11.081
10.9482
10.9243
11.0001
11.1738
11.2993
11.3804
11.4396
11.5032
1
1.00001
1.00005
1.0001
1.00031
1.00064
1.00185
1.00367
1.01126
1.02042
1.07337
1.1249
1.48409
2.06424
4.43127
10.0022
11.0057
10.8692
10.7986
10.8588
11.006
11.1182
11.1847
11.2302
11.2894
1
1.00001
1.00004
1.00009
1.00027
1.00056
1.00164
1.00323
1.0101
1.01785
1.06636
1.10938
1.44061
1.92722
4.09929
9.21053
10.9539
10.7981
10.653
10.6947
10.8077
10.8942
10.9328
10.9446
10.9769
1
1.00001
1.00004
1.00008
1.00024
1.0005
1.00146
1.0029
1.00891
1.0161
1.05829
1.09695
1.38595
1.80536
3.69236
8.23526
10.9385
10.7425
10.4926
10.5093
10.5776
10.621
10.6067
10.543
10.4769
1
1.00001
1.00003
1.00007
1.0002
1.00042
1.00123
1.00241
1.00758
1.01331
1.04974
1.08144
1.32658
1.67167
3.24879
7.08783
10.9394
10.7059
10.3315
10.2973
10.3151
10.2964
10.1993
9.96575
9.59831
1
1.00001
1.00002
1.00007
1.00015
1.00045
1.00093
1.00268
1.00541
1.01616
1.03081
1.10312
1.19239
1.69033
2.6384
5.90204
10.8667
10.6218
10.1754
10.0573
10.0217
9.91948
9.65488
9.0436
7.50561
1
1.00001
1.00002
1.00006
1.00013
1.00039
1.00079
1.00229
1.00465
1.01358
1.027
1.08407
1.16435
1.55562
2.30836
4.91944
10.4393
10.3752
10.0421
9.81061
9.70949
9.51004
9.09594
8.26763
6.67198
1
1
1.00001
1.00005
1.00011
1.00031
1.00064
1.00186
1.00375
1.01117
1.02121
1.07118
1.12707
1.46713
2.04811
4.2711
9.41217
10.0251
9.85517
9.56736
9.38379
9.11482
8.6095
7.75738
6.45945
1
1
1.00001
1.00004
1.00008
1.00025
1.00052
1.00151
1.003
1.00913
1.01658
1.05915
1.09879
1.38857
1.80669
3.66963
7.97134
9.79278
9.6735
9.37917
9.09526
8.76334
8.24788
7.45962
6.4044
0.999999
1
1.00001
1.00003
1.00007
1.0002
1.00041
1.0012
1.0024
1.00725
1.01328
1.04666
1.07821
1.30452
1.61731
3.05402
6.40186
9.66294
9.5597
9.24747
8.86305
8.48133
7.97955
7.27459
6.38711
0.999997
0.999999
1.00001
1.00002
1.00006
1.00014
1.0004
1.00082
1.00237
1.00479
1.01404
1.0278
1.08643
1.17039
1.56176
2.32364
4.7587
9.37299
9.37949
9.15383
8.69173
8.25984
7.77328
7.14054
6.37398
0.999996
0.999997
1
1.00001
1.00005
1.0001
1.00031
1.00064
1.00183
1.00372
1.01079
1.02132
1.06666
1.12494
1.43149
1.98299
3.94699
8.44683
9.11865
8.95555
8.55756
8.08306
7.60513
7.03273
6.359
0.999994
0.999995
0.999999
1.00001
1.00003
1.00008
1.00023
1.00047
1.00136
1.00271
1.00816
1.01486
1.0522
1.0874
1.33882
1.69173
3.26124
6.78761
8.83092
8.74079
8.44368
7.94906
7.47117
6.94632
6.34869
0.999994
0.999994
0.999996
1
1.00002
1.00007
1.00014
1.00042
1.00087
1.00251
1.00506
1.01494
1.02882
1.09323
1.17778
1.60674
2.42262
5.03065
8.48961
8.54016
8.34807
7.90043
7.37965
6.87575
6.33427
0.999993
0.999993
0.999995
1
1.00001
1.00005
1.0001
1.00031
1.00064
1.00183
1.00373
1.01079
1.02145
1.06606
1.12688
1.42425
1.95948
3.77919
7.64615
8.34618
8.21074
7.85006
7.31652
6.82293
6.3227
0.999992
0.999992
0.999994
0.999997
1.00001
1.00002
1.00009
1.00018
1.00053
1.00109
1.00313
1.00618
1.01901
1.03419
1.12181
1.21677
1.79796
2.81897
6.03351
8.07408
8.02284
7.79178
7.3073
6.79901
6.32072
0.999992
0.999992
0.999993
0.999995
1
1.00002
1.00006
1.00013
1.00038
1.00079
1.00225
1.00456
1.01314
1.0262
1.07875
1.15951
1.49828
2.1561
4.15746
7.58638
7.87469
7.71946
7.32185
6.80312
6.32538
0.999991
0.999992
0.999992
0.999994
0.999998
1.00001
1.00003
1.0001
1.00022
1.00062
1.00127
1.00362
1.0071
1.02198
1.0392
1.13978
1.24996
1.91585
3.07138
6.46607
7.66566
7.58462
7.31624
6.82532
6.34183
0.999991
0.999991
0.999992
0.999993
0.999995
1
1.00002
1.00007
1.00015
1.00044
1.0009
1.00256
1.00519
1.01502
1.02971
1.09157
1.17926
1.58812
2.34972
4.68969
7.24871
7.40511
7.26993
6.90091
6.38258
0.999991
0.999991
0.999991
0.999992
0.999994
0.999998
1.00001
1.00003
1.00011
1.00024
1.00068
1.0014
1.00397
1.00788
1.02383
1.04362
1.15046
1.27806
1.94914
3.16101
6.35724
7.23704
7.169
6.93074
6.45045
0.999991
0.999991
0.999991
0.999991
0.999993
0.999996
1
1.00002
1.00007
1.00016
1.00046
1.00095
1.00268
1.00544
1.01565
1.03087
1.09546
1.18375
1.60764
2.37097
4.68065
6.86718
7.0092
6.89466
6.58363
0.999991
0.999991
0.999991
0.999991
0.999992
0.999994
0.999998
1.00001
1.00003
1.00011
1.00024
1.00069
1.00142
1.00403
1.00804
1.02391
1.04454
1.14857
1.28137
1.91975
3.08778
6.05756
6.84437
6.79886
6.60508
0.999991
0.99999
0.999991
0.999991
0.999991
0.999993
0.999995
1
1.00002
1.00007
1.00016
1.00045
1.00092
1.0026
1.00528
1.01512
1.02983
1.09156
1.17599
1.57508
2.2834
4.39152
6.45479
6.65985
6.56819
0.999991
0.99999
0.99999
0.999991
0.999991
0.999992
0.999994
0.999998
1.00001
1.00003
1.00011
1.00023
1.00065
1.00132
1.00374
1.00742
1.02226
1.04081
1.13835
1.25536
1.8466
2.87755
5.59122
6.47899
6.46171
0.999991
0.99999
0.99999
0.99999
0.999991
0.999991
0.999992
0.999996
1
1.00002
1.00005
1.00016
1.00034
1.00096
1.00195
1.00553
1.01092
1.03307
1.06053
1.2042
1.39997
2.22451
3.85317
6.01733
6.35297
0.999991
0.99999
0.99999
0.99999
0.99999
0.999991
0.999991
0.999993
0.999997
1.00001
1.00003
1.00009
1.0002
1.00058
1.00118
1.00332
1.00663
1.01952
1.03616
1.12102
1.21844
1.73595
2.60011
4.98533
6.12265
0.999991
0.99999
0.99999
0.99999
0.99999
0.999991
0.999991
0.999992
0.999995
1
1.00002
1.00004
1.00014
1.00029
1.00082
1.00167
1.00466
1.00933
1.02706
1.05216
1.16094
1.32826
1.94281
3.15279
5.55124
0.999991
0.99999
0.99999
0.99999
0.99999
0.99999
0.999991
0.999991
0.999993
0.999996
1.00001
1.00002
1.00008
1.00017
1.00049
1.001
1.00278
1.00561
1.01602
1.03044
1.09761
1.17604
1.5945
2.27095
4.24658
0.999991
0.99999
0.99999
0.99999
0.99999
0.99999
0.99999
0.999991
0.999992
0.999994
0.999999
1.00001
1.00004
1.0001
1.00028
1.00058
1.00162
1.00329
1.00916
1.01856
1.05227
1.10912
1.30782
1.68816
2.74639
0.999991
0.99999
0.99999
0.99999
0.99999
0.99999
0.99999
0.999991
0.999991
0.999992
0.999995
1
1.00002
1.00005
1.00015
1.00032
1.00089
1.00181
1.00504
1.01005
1.0291
1.05538
1.1715
1.34537
1.98035
0.999991
0.99999
0.99999
0.99999
0.99999
0.99999
0.99999
0.99999
0.999991
0.999991
0.999993
0.999997
1
1.00003
1.00007
1.0002
1.00042
1.00118
1.0024
1.00671
1.01342
1.03849
1.07795
1.2248
1.49639
0.999991
0.99999
0.99999
0.99999
0.99999
0.99999
0.99999
0.99999
0.99999
0.999991
0.999992
0.999994
0.999999
1.00001
1.00004
1.00009
1.00027
1.00056
1.00155
1.00315
1.00875
1.01778
1.04953
1.10411
1.28674
0.999991
0.99999
0.99999
0.99999
0.99999
0.99999
0.99999
0.99999
0.99999
0.999991
0.999991
0.999992
0.999994
1
1.00001
1.00005
1.00012
1.00034
1.00071
1.00195
1.00396
1.01097
1.02173
1.06282
1.12342
0.999991
0.99999
0.99999
0.99999
0.99999
0.99999
0.99999
0.99999
0.99999
0.99999
0.999991
0.999991
0.999992
0.999996
1
1.00002
1.00006
1.00018
1.00038
1.00105
1.00213
1.00586
1.01178
1.03297
1.067
0.999991
0.99999
0.99999
0.99999
0.99999
0.99999
0.99999
0.99999
0.99999
0.99999
0.99999
0.999991
0.999992
0.999993
0.999998
1.00001
1.00003
1.00008
1.00023
1.00047
1.0013
1.00265
1.00732
1.01491
1.04112
0.999991
0.99999
0.99999
0.99999
0.99999
0.99999
0.99999
0.99999
0.99999
0.99999
0.99999
0.999991
0.999991
0.999992
0.999994
1
1.00001
1.00004
1.0001
1.00028
1.00057
1.00158
1.00321
1.00882
1.0179
0.999991
0.99999
0.99999
0.99999
0.99999
0.99999
0.99999
0.99999
0.99999
0.99999
0.99999
0.99999
0.999991
0.999991
0.999992
0.999994
1
1.00001
1.00005
1.00012
1.00033
1.00069
1.00187
1.00378
1.0104
0.999991
0.99999
0.99999
0.99999
0.99999
0.99999
0.99999
0.99999
0.99999
0.99999
0.99999
0.99999
0.99999
0.999991
0.999991
0.999992
0.999996
1
1.00002
1.00005
1.00016
1.00034
1.00093
1.0019
1.00517
0.999991
0.99999
0.99999
0.99999
0.99999
0.99999
0.99999
0.99999
0.99999
0.99999
0.99999
0.99999
0.99999
0.99999
0.999991
0.999991
0.999993
0.999997
1
1.00003
1.00006
1.00019
1.00039
1.00108
1.0022
0.999991
0.99999
0.99999
0.99999
0.99999
0.99999
0.99999
0.99999
0.99999
0.99999
0.99999
0.99999
0.99999
0.99999
0.99999
0.999991
0.999992
0.999993
0.999998
1.00001
1.00003
1.00008
1.00022
1.00046
1.00126
0.999991
0.99999
0.99999
0.99999
0.99999
0.99999
0.99999
0.99999
0.99999
0.99999
0.99999
0.99999
0.99999
0.99999
0.99999
0.999991
0.999991
0.999992
0.999993
0.999999
1.00001
1.00004
1.00009
1.00025
1.00052
0.999991
0.99999
0.99999
0.99999
0.99999
0.99999
0.99999
0.99999
0.99999
0.99999
0.99999
0.99999
0.99999
0.99999
0.99999
0.99999
0.999991
0.999991
0.999992
0.999994
1
1.00001
1.00004
1.0001
1.00028
0.999991
0.99999
0.99999
0.99999
0.99999
0.99999
0.99999
0.99999
0.99999
0.99999
0.99999
0.99999
0.99999
0.99999
0.99999
0.99999
0.99999
0.999991
0.999991
0.999992
0.999995
1
1.00002
1.00004
1.00013
0.999991
0.99999
0.99999
0.99999
0.99999
0.99999
0.99999
0.99999
0.99999
0.99999
0.99999
0.99999
0.99999
0.99999
0.99999
0.99999
0.99999
0.99999
0.999991
0.999991
0.999992
0.999996
1
1.00002
1.00005
0.999991
0.99999
0.99999
0.99999
0.99999
0.99999
0.99999
0.99999
0.99999
0.99999
0.99999
0.99999
0.99999
0.99999
0.99999
0.99999
0.99999
0.99999
0.99999
0.999991
0.999992
0.999994
0.999997
1.00001
1.00003
1
1.00001
1.00003
1.00008
1.00016
1.00046
1.00094
1.00269
1.00542
1.01617
1.03083
1.10316
1.19247
1.69059
2.63904
5.90386
10.8663
10.6215
10.1752
10.0572
10.0216
9.91937
9.65475
9.04343
7.50539
1
1.00001
1.00002
1.00007
1.00014
1.00039
1.0008
1.0023
1.00466
1.0136
1.02703
1.0841
1.16443
1.55573
2.30871
4.92017
10.4396
10.3752
10.0419
9.81049
9.7094
9.50994
9.09583
8.26749
6.67183
1
1.00001
1.00002
1.00005
1.00011
1.00032
1.00065
1.00187
1.00376
1.01119
1.02124
1.0712
1.12716
1.46718
2.04845
4.27165
9.41333
10.025
9.85499
9.56723
9.38372
9.11473
8.60941
7.75729
6.45937
1
1.00001
1.00001
1.00004
1.00009
1.00026
1.00053
1.00152
1.00301
1.00914
1.0166
1.05917
1.09884
1.38865
1.80689
3.67016
7.97249
9.79247
9.67323
9.37899
9.09517
8.76327
8.2478
7.45953
6.40432
1
1
1.00001
1.00003
1.00007
1.00021
1.00042
1.00121
1.00241
1.00726
1.0133
1.04668
1.07826
1.3046
1.6175
3.05451
6.40314
9.66275
9.55948
9.24728
8.86296
8.48125
7.97948
7.27451
6.38704
1
1
1.00001
1.00002
1.00007
1.00014
1.00041
1.00083
1.00238
1.0048
1.01406
1.02781
1.08646
1.17045
1.56188
2.32399
4.75971
9.37311
9.37937
9.15371
8.69163
8.25976
7.7732
7.14047
6.37391
1
1
1.00001
1.00002
1.00005
1.00011
1.00032
1.00065
1.00184
1.00373
1.01081
1.02134
1.06669
1.12501
1.43156
1.98329
3.94755
8.44792
9.11869
8.95554
8.55748
8.08299
7.60506
7.03263
6.35893
1
1
1.00001
1.00001
1.00004
1.00008
1.00024
1.00048
1.00137
1.00272
1.00817
1.01488
1.05222
1.08745
1.33891
1.69195
3.26176
6.78887
8.83081
8.74066
8.44353
7.94897
7.47109
6.94625
6.34861
1
1
1
1.00001
1.00003
1.00007
1.00015
1.00043
1.00088
1.00252
1.00507
1.01496
1.02884
1.09327
1.17785
1.60696
2.42314
5.03207
8.48961
8.53992
8.34786
7.90032
7.37956
6.87566
6.33419
1
1
1
1.00001
1.00002
1.00006
1.00011
1.00032
1.00065
1.00184
1.00374
1.0108
1.02146
1.06609
1.12696
1.42434
1.95978
3.77969
7.64658
8.34604
8.2106
7.84995
7.31643
6.82284
6.32263
1
1
1
1.00001
1.00002
1.00003
1.00009
1.00019
1.00054
1.0011
1.00314
1.00619
1.01902
1.03421
1.12185
1.21685
1.79817