/*--------------------------------*- C++ -*----------------------------------*\
| =========                 |                                                 |
| \\      /  F ield         | OpenFOAM: The Open Source CFD Toolbox           |
|  \\    /   O peration     | Version:  4.1                                   |
|   \\  /    A nd           | Web:      www.OpenFOAM.org                      |
|    \\/     M anipulation  |                                                 |
\*---------------------------------------------------------------------------*/
FoamFile
{
    version     2.0;
    format      ascii;
    class       surfaceScalarField;
    location    "1.38";
    object      phi;
}
// * * * * * * * * * * * * * * * * * * * * * * * * * * * * * * * * * * * * * //

dimensions      [1 0 -1 0 0 0 0];

internalField   nonuniform List<scalar> 
150500
(
0.0168001
1.18665e-10
-3.23323e-12
0.0168001
6.67651e-10
-1.16354e-11
0.0168
2.44961e-09
-1.35575e-11
0.0168
6.32339e-09
-2.12591e-11
0.0168
1.69653e-08
-2.15327e-11
0.0167999
3.86266e-08
-2.81972e-11
0.0167997
9.77305e-08
-2.8007e-11
0.0167993
2.15423e-07
-3.5566e-11
0.016798
5.52277e-07
-3.81098e-11
0.016796
1.1977e-06
-5.44175e-11
0.0167886
3.37432e-06
-6.49027e-11
0.0167767
7.50343e-06
-1.6216e-10
0.0167333
2.64556e-05
-2.0079e-10
0.0166493
6.96781e-05
-6.7356e-10
0.0161707
0.000343402
-1.48247e-09
0.0147519
0.00127499
-1.40741e-09
0.0132801
0.00145086
1.43841e-10
0.0118488
0.00144243
6.45032e-10
0.0103716
0.00147657
5.23499e-10
0.00877872
0.00158387
2.26878e-10
0.00709429
0.00168931
-1.75978e-11
0.00536144
0.00174419
-2.86084e-10
0.0036145
0.00176041
-5.06253e-10
0.00183463
0.00176253
-5.18621e-10
0.00185487
-4.22596e-10
0.0168001
2.53438e-10
-3.23028e-12
0.0168001
1.41862e-09
-1.16409e-11
0.0168
5.19898e-09
-1.35608e-11
0.0168
1.33947e-08
-2.12716e-11
0.0168
3.59261e-08
-2.15523e-11
0.0167999
8.1794e-08
-2.82348e-11
0.0167997
2.06897e-07
-2.80814e-11
0.0167993
4.55362e-07
-3.56954e-11
0.0167979
1.1702e-06
-3.83683e-11
0.0167957
2.51383e-06
-5.47908e-11
0.0167879
7.15203e-06
-6.52707e-11
0.0167756
1.55846e-05
-1.63779e-10
0.0167306
5.5017e-05
-1.95948e-10
0.0166388
0.000142733
-6.66099e-10
0.0161628
0.000690639
-1.46625e-09
0.0147174
0.00257495
-1.47018e-09
0.0132262
0.00291566
6.00039e-11
0.0118216
0.0028593
6.67121e-10
0.0103743
0.00292303
5.34224e-10
0.00878009
0.00316633
1.85624e-10
0.00709648
0.00337757
-2.85182e-11
0.00536378
0.00348946
-2.63417e-10
0.00359757
0.00354187
-4.68589e-10
0.00178575
0.00355878
-4.74576e-10
0.00366334
-3.81217e-10
0.0168001
4.08083e-10
-3.22631e-12
0.0168001
2.2662e-09
-1.16497e-11
0.0168
8.3373e-09
-1.35723e-11
0.0168
2.14266e-08
-2.12985e-11
0.0168
5.80929e-08
-2.1599e-11
0.0167999
1.32585e-07
-2.83208e-11
0.0167996
3.39603e-07
-2.82506e-11
0.0167991
7.51386e-07
-3.59777e-11
0.0167976
1.93044e-06
-3.89967e-11
0.0167949
4.26298e-06
-5.54383e-11
0.016787
1.11611e-05
-6.71554e-11
0.0167704
2.74358e-05
-1.65708e-10
0.0167292
8.06033e-05
-1.88638e-10
0.0166191
0.000223325
-6.5588e-10
0.0161954
0.0010082
-1.44818e-09
0.0147316
0.00388275
-1.60948e-09
0.0131928
0.00441508
-7.59874e-11
0.0118477
0.00422251
7.55049e-10
0.010432
0.00433768
5.70191e-10
0.00884806
0.00473157
8.60867e-11
0.00717504
0.00505455
-5.22051e-11
0.0054463
0.0052342
-2.1211e-10
0.0036671
0.00534135
-3.77099e-10
0.00182384
0.00539154
-3.6415e-10
0.00551276
-2.78034e-10
0.0168001
5.72911e-10
-3.22033e-12
0.0168001
3.1333e-09
-1.16599e-11
0.0168
1.16408e-08
-1.35927e-11
0.0168
2.97318e-08
-2.13345e-11
0.0168
8.2074e-08
-2.16786e-11
0.0167999
1.87234e-07
-2.84629e-11
0.0167996
4.88486e-07
-2.86415e-11
0.016799
1.09416e-06
-3.66974e-11
0.0167973
2.71721e-06
-4.08047e-11
0.0167937
6.77085e-06
-6.01872e-11
0.0167863
1.43076e-05
-6.646e-11
0.0167649
4.10667e-05
-2.10166e-10
0.0167209
0.000105435
-1.43425e-10
0.0166353
0.000304683
-7.919e-10
0.0162497
0.00129554
-1.28804e-09
0.0147248
0.00521632
-1.79913e-09
0.0132856
0.00579381
-3.01672e-10
0.0119629
0.00558432
1.03663e-09
0.0105321
0.00576942
6.70887e-10
0.00898978
0.00625151
1.82305e-11
0.00734342
0.00670406
-9.34318e-11
0.00562444
0.00697218
-1.74015e-10
0.00381955
0.00717215
-2.58664e-10
0.00191595
0.00729298
-1.87956e-10
0.00746055
-8.81622e-11
0.0168001
6.56839e-10
-3.20936e-12
0.0168001
3.60704e-09
-1.1676e-11
0.0168
1.34235e-08
-1.36329e-11
0.0168
3.45272e-08
-2.14096e-11
0.0168
9.52991e-08
-2.18701e-11
0.0167999
2.19871e-07
-2.88425e-11
0.0167996
5.66382e-07
-2.96503e-11
0.0167991
1.32769e-06
-3.92176e-11
0.0167976
3.10873e-06
-4.1394e-11
0.0167939
8.18869e-06
-1.02907e-10
0.0167871
1.72398e-05
-2.08532e-11
0.0167694
4.66143e-05
-2.86203e-10
0.0167194
0.000131439
-8.54285e-11
0.0166749
0.000366665
-7.65534e-10
0.0163097
0.00154848
-1.3284e-09
0.0147578
0.00654661
-2.16565e-09
0.0135689
0.00697291
5.14057e-10
0.0121728
0.00700173
7.79937e-10
0.0106692
0.00727854
5.34825e-10
0.00917744
0.00772597
1.3926e-10
0.00758901
0.0082919
-1.53751e-10
0.00589541
0.00868809
-1.24673e-10
0.00407798
0.00902279
-1.21462e-10
0.00207784
0.00929957
2.8695e-11
0.00957408
1.6668e-10
0.0168001
7.31586e-10
-3.19292e-12
0.0168001
3.98166e-09
-1.17066e-11
0.0168
1.47699e-08
-1.36426e-11
0.0168
3.78998e-08
-2.14684e-11
0.0168
1.04686e-07
-2.19784e-11
0.0167999
2.41651e-07
-2.91492e-11
0.0167997
6.22504e-07
-3.0119e-11
0.0167993
1.46319e-06
-4.16914e-11
0.016798
3.45e-06
-4.1724e-11
0.0167959
8.64922e-06
-9.88438e-11
0.0167891
1.95297e-05
-3.55844e-11
0.0167754
5.10063e-05
-2.62214e-10
0.0167455
0.000138972
-1.27156e-10
0.0166441
0.000458276
-7.48775e-10
0.0163745
0.00171579
-1.39613e-09
0.014867
0.00782191
-2.48677e-09
0.0135503
0.00831211
8.03862e-10
0.0122909
0.00827219
6.21018e-10
0.0109024
0.00866485
2.99537e-10
0.0094747
0.00914761
1.60135e-10
0.00796741
0.00981399
-3.14764e-11
0.0063021
0.0103838
-5.46671e-11
0.00443164
0.0109323
3.49913e-11
0.0023165
0.0114313
2.79378e-10
0.0119358
4.73751e-10
0.0168001
6.99992e-10
-3.18167e-12
0.0168001
3.79468e-09
-1.17454e-11
0.0168001
1.42331e-08
-1.36519e-11
0.0168
3.6438e-08
-2.15329e-11
0.0168
1.0186e-07
-2.2059e-11
0.0168
2.3461e-07
-2.93691e-11
0.0167998
6.17693e-07
-3.0511e-11
0.0167996
1.41409e-06
-4.29544e-11
0.0167985
3.60552e-06
-4.30794e-11
0.0167974
8.3128e-06
-1.02601e-10
0.01679
2.21806e-05
-4.11349e-11
0.0167796
5.26149e-05
-2.78875e-10
0.0167391
0.000160081
-1.0884e-10
0.0166637
0.000504646
-9.00101e-10
0.0163773
0.00192454
-1.43777e-09
0.0149906
0.00893876
-3.09852e-09
0.0136856
0.00966373
1.17219e-09
0.012509
0.00947963
8.41992e-10
0.0112569
0.00991943
2.57711e-10
0.00993029
0.0104698
1.38384e-10
0.00850327
0.0112522
-2.68596e-11
0.00688083
0.012036
2.28541e-11
0.00499447
0.0128654
2.13436e-10
0.00270237
0.0137525
5.3839e-10
0.014693
8.27548e-10
0.0168001
6.55924e-10
-3.17276e-12
0.0168001
3.57811e-09
-1.17619e-11
0.0168001
1.33291e-08
-1.36234e-11
0.0168001
3.42117e-08
-2.15584e-11
0.0168
9.46275e-08
-2.17256e-11
0.0168
2.16329e-07
-2.89175e-11
0.0167999
5.77608e-07
-2.93033e-11
0.0167998
1.24137e-06
-3.81306e-11
0.0167989
3.62669e-06
-4.28642e-11
0.016799
7.13896e-06
-6.42389e-11
0.0167921
2.41346e-05
-9.30335e-11
0.0167901
4.87407e-05
-1.62249e-10
0.0167451
0.000182769
-3.15949e-10
0.016733
0.000492979
-9.0216e-10
0.0164231
0.00213259
-1.75255e-09
0.0153285
0.00971129
-4.06577e-09
0.0140504
0.0110206
1.59064e-09
0.0129252
0.0106518
1.04223e-09
0.0117883
0.0110511
2.49696e-10
0.0105847
0.011656
1.34546e-10
0.00925968
0.0125852
-2.72111e-11
0.00770344
0.0136232
1.36965e-10
0.00577391
0.0148515
3.72828e-10
0.00332687
0.0162415
7.50902e-10
0.0180879
1.16242e-09
0.0168001
8.5241e-10
-3.19033e-12
0.0168001
3.66288e-09
-1.17607e-11
0.0168001
1.50318e-08
-1.3685e-11
0.0168
3.64719e-08
-2.14739e-11
0.0168
1.06198e-07
-2.19046e-11
0.0168
2.32564e-07
-2.89398e-11
0.0167997
6.41851e-07
-2.97539e-11
0.0167994
1.37114e-06
-4.00521e-11
0.0167984
3.79718e-06
-4.28034e-11
0.016797
7.7183e-06
-8.45762e-11
0.0167907
2.5171e-05
-6.55048e-11
0.0167866
4.8223e-05
-2.14202e-10
0.0167497
0.000196597
-3.15599e-10
0.0167054
0.000503917
-8.67229e-10
0.0165874
0.00215306
-2.22588e-09
0.0160557
0.00984215
-5.49332e-09
0.014796
0.0123863
1.98549e-09
0.0136579
0.0118398
1.21499e-09
0.0126217
0.0120806
3.14135e-10
0.0114848
0.0127794
1.96695e-10
0.0102902
0.0138059
6.74677e-11
0.0088656
0.0150981
2.94282e-10
0.00708565
0.0166871
4.74151e-10
0.0044347
0.018943
9.18885e-10
0.0225926
1.31414e-09
0.0168001
-3.26968e-12
1.24983e-09
0.0168001
-1.17914e-11
8.24922e-10
0.0168001
-1.38467e-11
1.73591e-08
0.0168001
-2.17697e-11
1.47941e-08
0.0168
-2.19453e-11
1.1334e-07
0.0168001
-2.92718e-11
9.6679e-08
0.0168
-2.96449e-11
6.87124e-07
0.0168007
-3.88935e-11
5.00289e-07
0.016799
-4.3279e-11
4.59023e-06
0.0168038
-6.51575e-11
2.07244e-06
0.0167883
-9.89878e-11
3.56553e-05
0.0168172
-1.65769e-10
1.27466e-05
0.0167165
-3.87805e-10
0.000272267
0.0168893
-9.81445e-10
0.000288356
0.0169115
-2.58714e-09
0.00206308
0.0175855
-6.97894e-09
0.0086277
0.0162503
2.18046e-09
0.0138282
0.0148732
1.36055e-09
0.0132791
0.0138618
5.65534e-10
0.0131463
0.0128421
3.31232e-10
0.0138557
0.0117716
2.90761e-10
0.0149481
0.0105489
3.85617e-10
0.0164041
0.0088333
5.7221e-10
0.0184827
0.00625721
9.30167e-10
0.0215782
1.24117e-09
0.0289132
0.0168001
1.19957e-10
-4.72832e-16
0.0168001
6.6572e-10
-2.56577e-15
0.0168
2.44619e-09
-5.36999e-15
0.0168
6.31207e-09
-1.10733e-14
0.0168
1.69418e-08
-1.86684e-14
0.0167999
3.85774e-08
-3.35001e-14
0.0167997
9.76263e-08
-5.91061e-14
0.0167993
2.15213e-07
-1.06979e-13
0.016798
5.51828e-07
-2.27654e-13
0.016796
1.19682e-06
-4.17366e-13
0.0167886
3.37278e-06
-1.15278e-12
0.0167767
7.49923e-06
-1.98954e-12
0.0167333
2.64526e-05
-6.96079e-12
0.0166494
6.96767e-05
-1.54811e-11
0.0161708
0.000343419
-4.19446e-11
0.0147522
0.00127485
-3.15378e-11
0.0132808
0.00145057
1.68037e-11
0.0118498
0.0014422
3.04573e-11
0.0103728
0.00147638
2.38058e-11
0.0087799
0.00158373
9.02704e-12
0.00709543
0.00168934
-3.11867e-12
0.00536247
0.00174441
-1.15176e-11
0.00361529
0.00176073
-1.62507e-11
0.00183505
0.00176279
-1.68528e-11
0.00185503
-2.41636e-13
0.0168001
2.55448e-10
-4.77857e-16
0.0168001
1.4157e-09
-2.59127e-15
0.0168
5.19045e-09
-5.43934e-15
0.0168
1.3371e-08
-1.12243e-14
0.0168
3.58739e-08
-1.89915e-14
0.0167999
8.16851e-08
-3.41279e-14
0.0167997
2.06661e-07
-6.02934e-14
0.0167993
4.54882e-07
-1.08982e-13
0.0167979
1.16917e-06
-2.31272e-13
0.0167957
2.51174e-06
-4.1806e-13
0.0167879
7.14808e-06
-1.17017e-12
0.0167756
1.55743e-05
-1.91925e-12
0.0167306
5.50095e-05
-6.97789e-12
0.0166389
0.000142722
-1.53003e-11
0.0161629
0.00069064
-4.21139e-11
0.0147178
0.00257458
-3.38591e-11
0.0132271
0.00291502
1.24671e-11
0.0118226
0.00285893
3.13715e-11
0.0103755
0.00292275
2.42615e-11
0.00878127
0.00316613
7.6064e-12
0.00709758
0.00337765
-3.5076e-12
0.00536478
0.00348988
-1.02967e-11
0.00359836
0.00354247
-1.39693e-11
0.00178618
0.0035593
-1.42782e-11
0.00366368
2.72103e-13
0.0168001
4.10629e-10
-4.91285e-16
0.0168001
2.26391e-09
-2.65376e-15
0.0168
8.3225e-09
-5.62385e-15
0.0168
2.13917e-08
-1.16263e-14
0.0168
5.80097e-08
-1.99067e-14
0.0167999
1.32411e-07
-3.59335e-14
0.0167996
3.39179e-07
-6.39814e-14
0.0167991
7.50498e-07
-1.15261e-13
0.0167976
1.92828e-06
-2.45161e-13
0.0167949
4.25724e-06
-4.28648e-13
0.016787
1.11539e-05
-1.21774e-12
0.0167705
2.74069e-05
-1.93898e-12
0.0167293
8.06024e-05
-6.83943e-12
0.0166193
0.000223241
-1.52762e-11
0.0161955
0.00100823
-4.29258e-11
0.0147321
0.00388205
-3.90328e-11
0.0131938
0.00441408
1.04103e-11
0.0118487
0.00422215
3.43582e-11
0.0104332
0.00433733
2.54134e-11
0.00884926
0.00473136
3.86577e-12
0.00717609
0.00505471
-4.52264e-12
0.00544722
0.00523481
-7.83344e-12
0.00366781
0.0053422
-9.3025e-12
0.00182422
0.0053923
-1.01841e-11
0.00551329
2.78494e-12
0.0168001
5.79684e-10
-5.05395e-16
0.0168001
3.12892e-09
-2.72158e-15
0.0168
1.1621e-08
-5.83879e-15
0.0168
2.96819e-08
-1.20861e-14
0.0168
8.19407e-08
-2.13042e-14
0.0167999
1.86931e-07
-3.87983e-14
0.0167996
4.87766e-07
-7.28111e-14
0.016799
1.09217e-06
-1.33582e-13
0.0167973
2.71557e-06
-2.91075e-13
0.0167937
6.7502e-06
-5.5976e-13
0.0167863
1.4318e-05
-1.20727e-12
0.0167649
4.10317e-05
-3.34083e-12
0.0167209
0.000105441
-5.66175e-12
0.0166353
0.000304674
-1.96855e-11
0.0162499
0.0012954
-4.04483e-11
0.0147257
0.00521518
-4.51196e-11
0.0132857
0.00579364
3.68931e-12
0.0119637
0.00558329
4.5097e-11
0.0105333
0.00576862
2.9384e-11
0.00899095
0.0062514
8.38927e-13
0.00734438
0.00670432
-6.68202e-12
0.00562524
0.00697297
-6.1808e-12
0.00382013
0.00717321
-4.2615e-12
0.00191624
0.00729392
-4.62136e-12
0.00746123
9.80661e-12
0.0168001
6.64143e-10
-5.1986e-16
0.0168001
3.5963e-09
-2.76483e-15
0.0168
1.34115e-08
-6.07515e-15
0.0168
3.44868e-08
-1.26001e-14
0.0168
9.5217e-08
-2.30946e-14
0.0167999
2.19681e-07
-4.25784e-14
0.0167996
5.66013e-07
-8.42253e-14
0.0167991
1.32636e-06
-1.64384e-13
0.0167976
3.10736e-06
-3.09525e-13
0.0167939
8.18873e-06
-1.04094e-12
0.0167871
1.7229e-05
-8.36867e-13
0.0167694
4.66198e-05
-4.40679e-12
0.0167195
0.000131422
-5.84072e-12
0.0166749
0.000366609
-1.89631e-11
0.0163099
0.00154836
-4.32918e-11
0.0147585
0.00654525
-5.43506e-11
0.0135704
0.00697191
3.25881e-11
0.012174
0.00700113
3.67788e-11
0.0106704
0.0072778
2.54228e-11
0.00917864
0.00772581
6.25947e-12
0.00758982
0.00829235
-1.1325e-11
0.00589601
0.00868905
-4.52226e-12
0.00407838
0.009024
1.07763e-12
0.00207802
0.00930061
1.61663e-12
0.00957485
1.9092e-11
0.0168001
7.37163e-10
-5.15248e-16
0.0168001
3.967e-09
-2.75311e-15
0.0168
1.47596e-08
-6.0049e-15
0.0168
3.78603e-08
-1.24664e-14
0.0168
1.04641e-07
-2.25451e-14
0.0167999
2.41557e-07
-4.16e-14
0.0167997
6.22362e-07
-7.97658e-14
0.0167993
1.46277e-06
-1.53211e-13
0.016798
3.44971e-06
-3.15592e-13
0.0167959
8.64889e-06
-6.64723e-13
0.0167891
1.95286e-05
-1.42607e-12
0.0167755
5.10021e-05
-3.08538e-12
0.0167456
0.000138965
-7.81581e-12
0.0166444
0.000458201
-1.83557e-11
0.0163749
0.00171552
-4.59271e-11
0.014868
0.00782031
-6.20625e-11
0.0135515
0.00831083
4.34299e-11
0.0122921
0.00827145
3.18884e-11
0.0109033
0.0086643
1.38341e-11
0.00947541
0.00914752
6.28858e-12
0.00796791
0.0098145
-4.44349e-12
0.00630243
0.0103849
-2.08562e-12
0.00443181
0.0109336
6.06314e-12
0.00231655
0.0114324
8.62394e-12
0.0119366
3.09741e-11
0.0168001
7.03135e-10
-5.24266e-16
0.0168001
3.78369e-09
-2.77299e-15
0.0168001
1.42303e-08
-6.10954e-15
0.0168
3.64076e-08
-1.27002e-14
0.0168
1.01977e-07
-2.30651e-14
0.0168
2.34827e-07
-4.2774e-14
0.0167998
6.18308e-07
-8.17723e-14
0.0167996
1.41653e-06
-1.57416e-13
0.0167985
3.60643e-06
-3.26906e-13
0.0167974
8.33072e-06
-6.69801e-13
0.01679
2.2161e-05
-1.47383e-12
0.0167796
5.26637e-05
-3.22493e-12
0.0167392
0.000159989
-7.26299e-12
0.0166637
0.000504642
-2.17775e-11
0.0163775
0.00192416
-4.7003e-11
0.0149912
0.00893722
-7.87468e-11
0.0136862
0.00966218
5.41178e-11
0.0125097
0.00947875
3.73876e-11
0.0112574
0.00991897
1.05219e-11
0.00993057
0.0104699
4.85366e-12
0.00850336
0.0112528
-2.83568e-12
0.00688079
0.012037
9.29959e-14
0.00499438
0.0128665
1.15333e-11
0.00270229
0.0137534
1.60612e-11
0.0146936
4.30549e-11
0.0168001
6.44764e-10
-5.01937e-16
0.0168001
3.56128e-09
-2.67632e-15
0.0168001
1.32751e-08
-5.77892e-15
0.0168
3.41885e-08
-1.21917e-14
0.0168
9.45013e-08
-2.12037e-14
0.0168
2.16261e-07
-3.94549e-14
0.0167999
5.77424e-07
-7.48876e-14
0.0167998
1.24091e-06
-1.36222e-13
0.0167989
3.62701e-06
-3.17165e-13
0.016799
7.13433e-06
-5.51954e-13
0.0167921
2.41492e-05
-1.57864e-12
0.0167902
4.87231e-05
-2.78163e-12
0.0167451
0.000182776
-8.81037e-12
0.016733
0.000492954
-2.26017e-11
0.0164232
0.00213234
-5.5069e-11
0.0153285
0.0097101
-1.0962e-10
0.0140504
0.0110188
6.55901e-11
0.0129252
0.0106508
4.10915e-11
0.0117883
0.0110507
8.50866e-12
0.0105844
0.0116563
3.62399e-12
0.00925925
0.0125858
-3.36223e-12
0.00770293
0.0136242
2.66683e-12
0.00577351
0.0148523
1.5863e-11
0.00332655
0.0162422
2.46159e-11
0.0180881
5.10339e-11
0.0168001
8.12413e-10
-4.91851e-16
0.0168001
3.79288e-09
-2.65009e-15
0.0168001
1.50245e-08
-5.67624e-15
0.0168
3.63786e-08
-1.17481e-14
0.0168
1.06177e-07
-2.06513e-14
0.0168
2.32418e-07
-3.74902e-14
0.0167997
6.4185e-07
-7.13666e-14
0.0167994
1.37158e-06
-1.23212e-13
0.0167984
3.79754e-06
-3.18731e-13
0.016797
7.72459e-06
-4.5994e-13
0.0167907
2.51659e-05
-1.7853e-12
0.0167866
4.82396e-05
-2.64002e-12
0.0167497
0.000196593
-9.88378e-12
0.0167054
0.000503897
-2.29136e-11
0.0165873
0.00215288
-6.88114e-11
0.0160549
0.00984204
-1.53864e-10
0.0147951
0.0123843
7.85114e-11
0.013657
0.0118386
4.55085e-11
0.0126207
0.0120802
1.0295e-11
0.0114837
0.0127794
5.57304e-12
0.010289
0.0138064
6.43681e-14
0.0088647
0.0150986
8.01149e-12
0.007085
0.0166876
1.65801e-11
0.00443432
0.0189433
3.08817e-11
0.0225923
5.36823e-11
0.0168001
-4.90664e-16
1.18749e-09
0.0168001
-2.62485e-15
1.25809e-09
0.0168001
-5.55859e-15
1.63599e-08
0.0168001
-1.16867e-14
1.5332e-08
0.0168
-1.96529e-14
1.12291e-07
0.0168001
-3.59417e-14
9.72511e-08
0.0168
-6.85309e-14
6.86475e-07
0.0168007
-1.17276e-13
5.01575e-07
0.016799
-3.1685e-13
4.59142e-06
0.0168038
-5.012e-13
2.07762e-06
0.0167883
-1.72771e-12
3.56653e-05
0.0168172
-2.96384e-12
1.27594e-05
0.0167165
-1.08783e-11
0.00027232
0.0168893
-2.68447e-11
0.000288436
0.016911
-7.9999e-11
0.00206348
0.0175836
-2.00885e-10
0.00862971
0.0162477
8.60583e-11
0.0138265
0.0148711
5.01067e-11
0.0132773
0.0138596
1.86289e-11
0.0131457
0.01284
1.02201e-11
0.0138555
0.0117698
8.30959e-12
0.0149482
0.0105474
1.15077e-11
0.0164043
0.00883232
1.91842e-11
0.0184827
0.00625671
3.07847e-11
0.0215778
5.0248e-11
0.0289123
0.0168001
1.19954e-10
1.43215e-16
0.0168001
6.65703e-10
3.49401e-18
0.0168
2.44613e-09
-4.7806e-16
0.0168
6.31192e-09
-1.02929e-15
0.0168
1.69415e-08
-2.77232e-15
0.0167999
3.85766e-08
-5.62798e-15
0.0167997
9.76244e-08
-1.47445e-14
0.0167993
2.15209e-07
-3.01317e-14
0.016798
5.5182e-07
-8.43045e-14
0.016796
1.19681e-06
-1.63143e-13
0.0167886
3.37274e-06
-5.00189e-13
0.0167767
7.49919e-06
-8.39763e-13
0.0167333
2.64524e-05
-3.35297e-12
0.0166494
6.96766e-05
-7.32791e-12
0.0161708
0.000343419
-2.18854e-11
0.0147523
0.00127485
-2.45921e-11
0.0132809
0.00145056
-1.49386e-12
0.0118498
0.0014422
7.07695e-12
0.0103728
0.00147638
5.47002e-12
0.00877994
0.00158373
2.00306e-12
0.00709547
0.00168935
-8.3712e-13
0.00536251
0.00174442
-1.80514e-12
0.00361532
0.00176074
-2.43464e-12
0.00183507
0.00176281
-4.6095e-12
0.00185503
8.55058e-13
0.0168001
2.55441e-10
1.42625e-16
0.0168001
1.41566e-09
3.57956e-18
0.0168
5.19032e-09
-4.98888e-16
0.0168
1.33707e-08
-1.07515e-15
0.0168
3.58731e-08
-2.87013e-15
0.0167999
8.16832e-08
-5.81989e-15
0.0167997
2.06657e-07
-1.51737e-14
0.0167993
4.54872e-07
-3.07266e-14
0.0167979
1.16915e-06
-8.5286e-14
0.0167957
2.5117e-06
-1.62927e-13
0.016788
7.148e-06
-5.07815e-13
0.0167756
1.55741e-05
-8.15158e-13
0.0167306
5.50094e-05
-2.87567e-12
0.0166389
0.000142722
-7.23451e-12
0.0161629
0.000690639
-2.1801e-11
0.0147178
0.00257457
-2.52365e-11
0.0132271
0.00291499
-2.63473e-12
0.0118227
0.00285892
7.66282e-12
0.0103755
0.00292274
5.91859e-12
0.00878131
0.00316612
1.67573e-12
0.00709762
0.00337765
-9.05557e-13
0.00536481
0.0034899
-1.91365e-12
0.00359839
0.00354249
-2.09011e-12
0.00178621
0.00355932
-3.6887e-12
0.00366369
8.285e-13
0.0168001
4.10621e-10
1.40611e-16
0.0168001
2.26387e-09
2.60293e-18
0.0168
8.32236e-09
-5.13944e-16
0.0168
2.13913e-08
-1.20485e-15
0.0168
5.80087e-08
-3.16989e-15
0.0167999
1.32409e-07
-6.41786e-15
0.0167996
3.39172e-07
-1.62011e-14
0.0167991
7.50483e-07
-3.01701e-14
0.0167976
1.92824e-06
-7.43065e-14
0.0167949
4.25713e-06
-1.35067e-13
0.016787
1.11538e-05
-4.3293e-13
0.0167705
2.7406e-05
-8.271e-13
0.0167293
8.06023e-05
-3.23898e-12
0.0166193
0.000223238
-7.15628e-12
0.0161955
0.00100823
-2.18162e-11
0.0147322
0.00388203
-2.67753e-11
0.0131939
0.00441405
-4.5702e-12
0.0118488
0.00422215
9.60487e-12
0.0104332
0.00433732
6.95221e-12
0.00884931
0.00473135
5.66722e-13
0.00717613
0.00505472
-1.129e-12
0.00544725
0.00523483
-1.35441e-12
0.00366784
0.00534224
-1.85034e-12
0.00182424
0.00539232
-1.93626e-12
0.0055133
1.41608e-12
0.0168001
5.79681e-10
1.38533e-16
0.0168001
3.12891e-09
-1.31863e-16
0.0168
1.1621e-08
-6.24638e-16
0.0168
2.96817e-08
-1.34842e-15
0.0168
8.194e-08
-3.62733e-15
0.0167999
1.8693e-07
-7.36074e-15
0.0167996
4.8776e-07
-1.95935e-14
0.016799
1.09215e-06
-3.58467e-14
0.0167973
2.71556e-06
-1.06397e-13
0.0167937
6.75e-06
-2.1701e-13
0.0167863
1.43181e-05
-5.16176e-13
0.0167649
4.10313e-05
-1.27854e-12
0.0167209
0.00010544
-2.68396e-12
0.0166353
0.000304674
-8.83723e-12
0.0162499
0.00129539
-2.02851e-11
0.0147257
0.00521514
-2.92311e-11
0.0132857
0.00579363
-1.14826e-11
0.0119637
0.00558326
1.50449e-11
0.0105334
0.00576859
9.106e-12
0.008991
0.0062514
-5.42136e-13
0.00734442
0.00670433
-1.59376e-12
0.00562527
0.006973
-7.93487e-13
0.00382015
0.00717325
-4.48355e-13
0.00191626
0.00729396
-5.91369e-13
0.00746124
2.36539e-12
0.0168001
6.64144e-10
1.34969e-16
0.0168001
3.5963e-09
-1.40417e-16
0.0168
1.34115e-08
-6.17573e-16
0.0168
3.44868e-08
-1.52644e-15
0.0168
9.52172e-08
-4.25354e-15
0.0167999
2.19682e-07
-8.68724e-15
0.0167996
5.66014e-07
-2.21954e-14
0.0167991
1.32636e-06
-4.81656e-14
0.0167976
3.10736e-06
-9.27624e-14
0.0167939
8.18889e-06
-3.3908e-13
0.0167871
1.72288e-05
-3.46534e-13
0.0167694
4.66203e-05
-1.58045e-12
0.0167195
0.000131422
-2.38359e-12
0.0166749
0.000366607
-8.31696e-12
0.0163099
0.00154835
-2.14291e-11
0.0147585
0.00654521
-3.37326e-11
0.0135704
0.00697188
5.11672e-12
0.012174
0.00700112
1.01788e-11
0.0106704
0.00727777
6.54179e-12
0.00917869
0.00772581
1.23209e-12
0.00758985
0.00829237
-2.91302e-12
0.00589603
0.00868909
-1.50867e-13
0.0040784
0.00902405
8.4088e-13
0.00207803
0.00930065
1.19524e-12
0.00957485
4.29086e-12
0.0168001
7.37161e-10
1.36254e-16
0.0168001
3.967e-09
-8.44831e-18
0.0168
1.47596e-08
-5.88438e-16
0.0168
3.78603e-08
-1.47338e-15
0.0168
1.04641e-07
-4.05332e-15
0.0167999
2.41556e-07
-8.41021e-15
0.0167997
6.22362e-07
-2.05928e-14
0.0167993
1.46277e-06
-4.83298e-14
0.016798
3.44971e-06
-1.0748e-13
0.0167959
8.6489e-06
-2.16364e-13
0.0167891
1.95286e-05
-4.61598e-13
0.0167755
5.1002e-05
-1.13973e-12
0.0167456
0.000138965
-3.63342e-12
0.0166444
0.0004582
-7.87594e-12
0.016375
0.00171552
-2.13534e-11
0.014868
0.00782026
-3.74013e-11
0.0135515
0.00831079
8.88811e-12
0.0122921
0.00827142
6.77515e-12
0.0109033
0.00866428
3.02099e-12
0.00947543
0.00914752
1.6673e-12
0.00796793
0.00981452
-3.83494e-13
0.00630245
0.0103849
6.54064e-13
0.00443182
0.0109336
2.07797e-12
0.00231656
0.0114324
3.0678e-12
0.0119366
6.17174e-12
0.0168001
7.03147e-10
1.39456e-16
0.0168001
3.78375e-09
-1.27006e-16
0.0168001
1.42305e-08
-6.58075e-16
0.0168
3.64081e-08
-1.44177e-15
0.0168
1.01978e-07
-3.90871e-15
0.0168
2.3483e-07
-8.08025e-15
0.0167998
6.18314e-07
-2.10008e-14
0.0167996
1.41655e-06
-4.50642e-14
0.0167985
3.60644e-06
-1.07605e-13
0.0167974
8.33081e-06
-2.06383e-13
0.01679
2.2161e-05
-4.682e-13
0.0167796
5.2664e-05
-1.31207e-12
0.0167392
0.000159988
-3.1801e-12
0.0166637
0.000504642
-9.3785e-12
0.0163775
0.00192415
-2.0283e-11
0.0149912
0.00893718
-4.36092e-11
0.0136863
0.00966214
1.2954e-11
0.0125097
0.00947872
9.62246e-12
0.0112574
0.00991896
2.85355e-12
0.00993058
0.0104699
1.80708e-12
0.00850337
0.0112528
2.94066e-13
0.00688079
0.0120371
1.29001e-12
0.00499438
0.0128666
3.2867e-12
0.00270228
0.0137535
4.98427e-12
0.0146936
8.71541e-12
0.0168001
6.44769e-10
1.45802e-16
0.0168001
3.5613e-09
-6.71782e-18
0.0168001
1.32752e-08
-5.20377e-16
0.0168
3.41889e-08
-1.13993e-15
0.0168
9.45021e-08
-3.14566e-15
0.0168
2.16263e-07
-6.41974e-15
0.0167999
5.77428e-07
-1.74839e-14
0.0167998
1.24092e-06
-3.40374e-14
0.0167989
3.62703e-06
-1.00473e-13
0.016799
7.13439e-06
-1.57879e-13
0.0167921
2.41492e-05
-6.04198e-13
0.0167902
4.87232e-05
-1.07622e-12
0.0167451
0.000182776
-3.19214e-12
0.0167331
0.000492953
-9.06522e-12
0.0164232
0.00213233
-2.18599e-11
0.0153285
0.00971006
-5.38756e-11
0.0140504
0.0110187
1.71581e-11
0.0129252
0.0106508
1.15196e-11
0.0117883
0.0110507
2.69383e-12
0.0105844
0.0116563
1.77196e-12
0.00925924
0.0125858
3.73891e-13
0.00770292
0.0136242
1.75758e-12
0.0057735
0.0148524
4.07935e-12
0.00332654
0.0162422
6.60507e-12
0.0180881
1.09169e-11
0.0168001
8.12412e-10
1.48338e-16
0.0168001
3.79291e-09
-1.05456e-17
0.0168001
1.50246e-08
-4.67374e-16
0.0168
3.63788e-08
-1.01255e-15
0.0168
1.06178e-07
-2.78817e-15
0.0168
2.32419e-07
-5.63253e-15
0.0167997
6.41854e-07
-1.57632e-14
0.0167994
1.37158e-06
-2.83604e-14
0.0167984
3.79756e-06
-9.88508e-14
0.016797
7.7246e-06
-1.30265e-13
0.0167907
2.5166e-05
-6.73218e-13
0.0167866
4.82395e-05
-9.78735e-13
0.0167497
0.000196593
-4.21574e-12
0.0167054
0.000503896
-9.03411e-12
0.0165873
0.00215288
-3.22728e-11
0.0160549
0.00984204
-6.96434e-11
0.0147951
0.0123843
2.13601e-11
0.013657
0.0118385
1.33605e-11
0.0126207
0.0120802
3.46595e-12
0.0114837
0.0127794
2.48616e-12
0.010289
0.0138064
1.30118e-12
0.00886468
0.0150986
2.82404e-12
0.00708498
0.0166876
4.33618e-12
0.00443431
0.0189433
7.58674e-12
0.0225922
1.19984e-11
0.0168001
1.5236e-16
1.18748e-09
0.0168001
5.66665e-19
1.25814e-09
0.0168001
-4.04837e-16
1.63598e-08
0.0168001
-8.7364e-16
1.53322e-08
0.0168
-2.41713e-15
1.12291e-07
0.0168001
-4.83476e-15
9.72517e-08
0.0168
-1.43971e-14
6.86479e-07
0.0168007
-2.57046e-14
5.01575e-07
0.016799
-9.55223e-14
4.59146e-06
0.0168038
-1.46582e-13
2.0776e-06
0.0167883
-6.26526e-13
3.56656e-05
0.0168172
-1.07672e-12
1.27593e-05
0.0167165
-3.6962e-12
0.000272322
0.0168893
-9.07683e-12
0.000288437
0.016911
-2.82364e-11
0.00206349
0.0175835
-8.99128e-11
0.00862978
0.0162477
2.3122e-11
0.0138264
0.014871
1.43969e-11
0.0132772
0.0138596
6.19366e-12
0.0131457
0.0128399
4.1203e-12
0.0138555
0.0117697
3.63236e-12
0.0149482
0.0105473
3.81764e-12
0.0164043
0.0088323
4.7712e-12
0.0184827
0.0062567
6.99059e-12
0.0215778
1.07441e-11
0.0289123
0.0168001
1.19954e-10
-1.84048e-16
0.0168001
6.65698e-10
-6.19926e-16
0.0168
2.44611e-09
-1.62e-15
0.0168
6.31187e-09
-3.21714e-15
0.0168
1.69414e-08
-7.93064e-15
0.0167999
3.85763e-08
-1.56903e-14
0.0167997
9.76239e-08
-3.98765e-14
0.0167993
2.15208e-07
-7.88962e-14
0.016798
5.51817e-07
-2.11125e-13
0.016796
1.1968e-06
-4.04117e-13
0.0167886
3.37273e-06
-1.25766e-12
0.0167767
7.49918e-06
-2.23798e-12
0.0167333
2.64524e-05
-8.33872e-12
0.0166494
6.96767e-05
-1.91822e-11
0.0161708
0.000343419
-5.63492e-11
0.0147523
0.00127485
-5.12408e-11
0.0132809
0.00145056
1.52244e-11
0.0118499
0.00144219
3.70512e-11
0.0103728
0.00147638
3.26794e-11
0.00877995
0.00158373
2.25906e-11
0.00709548
0.00168935
1.63731e-11
0.00536252
0.00174442
1.06386e-11
0.00361533
0.00176074
8.23929e-12
0.00183507
0.00176281
1.88192e-11
0.00185503
1.5866e-11
0.0168001
2.55439e-10
-1.91848e-16
0.0168001
1.41565e-09
-6.48837e-16
0.0168
5.19028e-09
-1.69016e-15
0.0168
1.33706e-08
-3.36643e-15
0.0168
3.58728e-08
-8.24425e-15
0.0167999
8.16826e-08
-1.63012e-14
0.0167997
2.06655e-07
-4.10177e-14
0.0167993
4.54869e-07
-8.0797e-14
0.0167979
1.16914e-06
-2.14495e-13
0.0167957
2.51168e-06
-4.03772e-13
0.016788
7.14797e-06
-1.27435e-12
0.0167756
1.5574e-05
-2.15482e-12
0.0167306
5.50093e-05
-8.34015e-12
0.0166389
0.000142722
-1.893e-11
0.0161629
0.000690639
-5.63014e-11
0.0147179
0.00257456
-5.36611e-11
0.0132271
0.00291499
1.22184e-11
0.0118227
0.00285892
3.80585e-11
0.0103756
0.00292274
3.30982e-11
0.00878132
0.00316612
2.07069e-11
0.00709763
0.00337766
1.55757e-11
0.00536482
0.0034899
1.14969e-11
0.00359839
0.0035425
9.96532e-12
0.00178621
0.00355932
2.04531e-11
0.00366369
1.7756e-11
0.0168001
4.10619e-10
-2.11691e-16
0.0168001
2.26385e-09
-7.19479e-16
0.0168
8.32232e-09
-1.88076e-15
0.0168
2.13912e-08
-3.77458e-15
0.0168
5.80084e-08
-9.17101e-15
0.0167999
1.32408e-07
-1.8139e-14
0.0167996
3.3917e-07
-4.47721e-14
0.0167991
7.50479e-07
-8.71827e-14
0.0167976
1.92823e-06
-2.28482e-13
0.0167949
4.2571e-06
-4.1362e-13
0.016787
1.11538e-05
-1.31871e-12
0.0167705
2.74057e-05
-2.17232e-12
0.0167293
8.06024e-05
-8.12857e-12
0.0166193
0.000223237
-1.87973e-11
0.0161955
0.00100823
-5.67216e-11
0.0147322
0.00388202
-5.95116e-11
0.0131939
0.00441404
7.27013e-12
0.0118488
0.00422215
4.20049e-11
0.0104332
0.00433732
3.46433e-11
0.00884932
0.00473135
1.6329e-11
0.00717614
0.00505472
1.44243e-11
0.00544726
0.00523484
1.41036e-11
0.00366784
0.00534224
1.43334e-11
0.00182425
0.00539233
2.42963e-11
0.00551331
2.10488e-11
0.0168001
5.7968e-10
-2.32133e-16
0.0168001
3.12891e-09
-7.96035e-16
0.0168
1.1621e-08
-2.09641e-15
0.0168
2.96816e-08
-4.2293e-15
0.0168
8.19398e-08
-1.05561e-14
0.0167999
1.86929e-07
-2.09842e-14
0.0167996
4.87759e-07
-5.38018e-14
0.016799
1.09215e-06
-1.06035e-13
0.0167973
2.71555e-06
-2.76409e-13
0.0167937
6.74992e-06
-5.55373e-13
0.0167863
1.43181e-05
-1.28859e-12
0.0167649
4.10311e-05
-3.73458e-12
0.0167209
0.00010544
-6.71308e-12
0.0166353
0.000304674
-2.37653e-11
0.0162499
0.00129539
-5.31788e-11
0.0147257
0.00521513
-6.74452e-11
0.0132857
0.00579364
-1.31328e-12
0.0119637
0.00558325
5.49897e-11
0.0105334
0.00576858
3.91408e-11
0.008991
0.0062514
1.21246e-11
0.00734443
0.00670433
1.23269e-11
0.00562527
0.006973
1.64181e-11
0.00382016
0.00717326
1.95865e-11
0.00191626
0.00729396
3.05998e-11
0.00746125
2.68913e-11
0.0168001
6.64145e-10
-2.4757e-16
0.0168001
3.59631e-09
-8.34792e-16
0.0168
1.34115e-08
-2.32726e-15
0.0168
3.44869e-08
-4.73477e-15
0.0168
9.52174e-08
-1.23731e-14
0.0167999
2.19682e-07
-2.4863e-14
0.0167996
5.66015e-07
-6.56112e-14
0.0167991
1.32636e-06
-1.39173e-13
0.0167976
3.10736e-06
-2.90441e-13
0.0167939
8.18895e-06
-1.09688e-12
0.0167871
1.72287e-05
-8.30158e-13
0.0167694
4.66205e-05
-4.87561e-12
0.0167195
0.000131422
-6.84106e-12
0.0166749
0.000366607
-2.26577e-11
0.0163099
0.00154836
-5.61916e-11
0.0147585
0.0065452
-8.06941e-11
0.0135704
0.00697187
3.29276e-11
0.012174
0.00700111
4.24163e-11
0.0106704
0.00727777
3.25165e-11
0.0091787
0.00772581
1.7068e-11
0.00758986
0.00829237
8.35781e-12
0.00589604
0.0086891
1.86745e-11
0.0040784
0.00902406
2.49421e-11
0.00207803
0.00930066
3.74425e-11
0.00957486
3.40726e-11
0.0168001
7.37162e-10
-2.35723e-16