/*--------------------------------*- C++ -*----------------------------------*\
| =========                 |                                                 |
| \\      /  F ield         | OpenFOAM: The Open Source CFD Toolbox           |
|  \\    /   O peration     | Version:  4.1                                   |
|   \\  /    A nd           | Web:      www.OpenFOAM.org                      |
|    \\/     M anipulation  |                                                 |
\*---------------------------------------------------------------------------*/
FoamFile
{
    version     2.0;
    format      ascii;
    class       surfaceScalarField;
    location    "1.14";
    object      phi;
}
// * * * * * * * * * * * * * * * * * * * * * * * * * * * * * * * * * * * * * //

dimensions      [1 0 -1 0 0 0 0];

internalField   nonuniform List<scalar> 
150500
(
0.0168001
8.06337e-11
-3.19733e-12
0.0168001
4.26509e-10
-1.18033e-11
0.0168
1.64111e-09
-1.36848e-11
0.0168
4.15533e-09
-2.18526e-11
0.0168
1.22833e-08
-2.1982e-11
0.0167999
2.8531e-08
-3.00449e-11
0.0167994
8.1272e-08
-3.22724e-11
0.0167987
1.93917e-07
-4.8118e-11
0.0167957
5.13466e-07
-5.46377e-11
0.0167906
1.32238e-06
-1.42671e-10
0.0167769
3.26785e-06
-9.83877e-11
0.0167417
8.83403e-06
-4.80878e-10
0.0166695
2.55266e-05
-5.19919e-10
0.0164985
8.47817e-05
-2.56069e-09
0.0159516
0.000340197
-5.33164e-09
0.0134411
0.00164646
-1.33461e-08
0.0121438
0.00156304
4.83776e-09
0.0108565
0.00138477
1.08399e-09
0.00955212
0.00132512
-3.05906e-11
0.0082377
0.00134878
5.35154e-10
0.00684909
0.00144271
1.44846e-09
0.0053526
0.00157833
1.96959e-09
0.00369773
0.00172456
2.28376e-09
0.00186508
0.00183185
2.45294e-09
0.00201168
2.55249e-09
0.0168001
1.47811e-10
-3.19549e-12
0.0168001
7.87224e-10
-1.18078e-11
0.0168
3.03049e-09
-1.36814e-11
0.0168
7.65331e-09
-2.18503e-11
0.0168
2.25355e-08
-2.18927e-11
0.0167999
5.16704e-08
-2.98056e-11
0.0167994
1.4902e-07
-3.16742e-11
0.0167989
3.38178e-07
-4.572e-11
0.016796
9.84106e-07
-5.44796e-11
0.0167916
2.33824e-06
-1.32099e-10
0.0167774
6.59461e-06
-1.0367e-10
0.0167437
1.71534e-05
-4.82314e-10
0.0166716
5.16511e-05
-5.18488e-10
0.0164966
0.000171674
-2.61673e-09
0.0159479
0.000681012
-5.32838e-09
0.0134562
0.00325723
-1.35379e-08
0.0121709
0.00313051
5.07863e-09
0.0109429
0.00271452
1.18702e-09
0.00966996
0.00261922
-1.77869e-11
0.00836185
0.0026916
5.02795e-10
0.006933
0.00292683
1.45189e-09
0.00539461
0.00319885
1.98399e-09
0.00369463
0.00349389
2.2737e-09
0.00182385
0.00370161
2.42869e-09
0.00398265
2.52125e-09
0.0168001
2.14322e-10
-3.19514e-12
0.0168001
1.15001e-09
-1.18151e-11
0.0168001
4.28553e-09
-1.37118e-11
0.0168
1.08379e-08
-2.18423e-11
0.0168
3.06298e-08
-2.20056e-11
0.0167999
6.90515e-08
-2.97882e-11
0.0167996
1.96797e-07
-3.12785e-11
0.0167992
4.02935e-07
-4.25942e-11
0.0167968
1.37263e-06
-5.47802e-11
0.0167941
2.60746e-06
-1.00207e-10
0.0167791
9.95467e-06
-1.40108e-10
0.0167553
2.18838e-05
-4.13732e-10
0.0166788
7.95854e-05
-5.96078e-10
0.0165254
0.000243865
-2.60131e-09
0.0159794
0.00100094
-5.42539e-09
0.0136128
0.00471564
-1.40445e-08
0.012362
0.00469692
5.52769e-09
0.0111905
0.00399288
1.41992e-09
0.00995246
0.0038826
6.02489e-11
0.00864533
0.00403748
5.10604e-10
0.00718385
0.00444227
1.41183e-09
0.0055875
0.00487621
1.98061e-09
0.00382262
0.00532653
2.23893e-09
0.00188671
0.00563412
2.3681e-09
0.00601327
2.45378e-09
0.0168001
2.86448e-10
-3.20395e-12
0.0168001
1.5205e-09
-1.18095e-11
0.0168001
5.67204e-09
-1.37541e-11
0.0168
1.43477e-08
-2.17013e-11
0.0168
4.04776e-08
-2.22457e-11
0.0167999
9.15809e-08
-2.98183e-11
0.0167996
2.55135e-07
-3.19875e-11
0.0167992
5.21837e-07
-4.5447e-11
0.0167972
1.73756e-06
-5.40158e-11
0.0167957
3.02212e-06
-1.12233e-10
0.0167816
1.29651e-05
-1.314e-10
0.0167705
2.46553e-05
-3.46575e-10
0.0166922
0.000105342
-7.74822e-10
0.0165828
0.000283738
-2.17882e-09
0.0160421
0.00127806
-5.91988e-09
0.0139435
0.0059015
-1.49522e-08
0.0127451
0.00623437
5.86365e-09
0.011641
0.0052227
1.80006e-09
0.0104233
0.00513931
2.53014e-10
0.00910631
0.00539868
5.86574e-10
0.00760115
0.00599419
1.31939e-09
0.00593129
0.00662188
1.88569e-09
0.00406765
0.00725386
2.14145e-09
0.00202578
0.00766572
2.24836e-09
0.00817624
2.32503e-09
0.0168001
3.23211e-10
-3.21571e-12
0.0168001
1.71029e-09
-1.18023e-11
0.0168001
6.3615e-09
-1.37659e-11
0.0168
1.61555e-08
-2.15878e-11
0.0168
4.59475e-08
-2.21755e-11
0.0167999
1.04361e-07
-2.94439e-11
0.0167997
2.93656e-07
-3.13409e-11
0.0167993
6.11753e-07
-4.3717e-11
0.0167974
2.00786e-06
-5.23534e-11
0.0167955
3.61385e-06
-1.10311e-10
0.0167832
1.47514e-05
-1.20865e-10
0.0167702
2.87687e-05
-3.85021e-10
0.0167033
0.000119636
-6.29823e-10
0.0165917
0.000321894
-2.35041e-09
0.016187
0.00142729
-5.87114e-09
0.0145106
0.00658899
-1.64785e-08
0.0133959
0.00771024
6.2243e-09
0.0123108
0.0064772
2.30982e-09
0.0110758
0.00643614
6.37872e-10
0.00971511
0.00680828
8.14008e-10
0.00814162
0.00760275
1.27184e-09
0.00638588
0.00844643
1.73058e-09
0.00441886
0.00927855
1.94539e-09
0.00223214
0.00984091
2.0566e-09
0.0105378
2.14666e-09
0.0168001
3.88097e-10
-3.23026e-12
0.0168001
1.80684e-09
-1.17917e-11
0.0168001
6.93596e-09
-1.37478e-11
0.0168
1.76885e-08
-2.14785e-11
0.0168
5.02274e-08
-2.1882e-11
0.0168
1.14881e-07
-2.87979e-11
0.0167997
3.15295e-07
-2.98989e-11
0.0167994
6.81933e-07
-3.96315e-11
0.0167979
2.10814e-06
-4.86288e-11
0.0167968
3.68706e-06
-8.84059e-11
0.0167855
1.58696e-05
-1.23677e-10
0.0167792
2.78332e-05
-3.22509e-10
0.0167177
0.000127739
-6.64443e-10
0.0166469
0.000323458
-2.18184e-09
0.0163433
0.00143827
-5.88237e-09
0.0154702
0.00648013
-1.75611e-08
0.0144947
0.00911122
6.61692e-09
0.0132358
0.00795765
3.14834e-09
0.011874
0.00786285
1.14314e-09
0.0104211
0.00829603
1.15435e-09
0.00878936
0.0092716
1.32652e-09
0.00695141
0.0103493
1.55863e-09
0.00486206
0.0114258
1.69757e-09
0.00250348
0.0121808
1.80957e-09
0.013159
1.90528e-09
0.0168001
4.99496e-10
-3.27719e-12
0.0168001
1.72756e-09
-1.17114e-11
0.0168001
7.41903e-09
-1.37719e-11
0.0168
1.88156e-08
-2.13893e-11
0.0168
5.35309e-08
-2.17157e-11
0.0168
1.22529e-07
-2.84059e-11
0.0167998
3.32397e-07
-2.88816e-11
0.0167995
7.39799e-07
-3.68988e-11
0.0167984
2.05594e-06
-4.53379e-11
0.016796
4.39711e-06
-6.4773e-11
0.0167891
1.38936e-05
-1.32147e-10
0.0167804
2.9279e-05
-2.26031e-10
0.0167505
0.000106509
-7.11705e-10
0.0166907
0.000310481
-1.84397e-09
0.0167342
0.00120705
-5.60185e-09
0.0171555
0.00518458
-1.70864e-08
0.015931
0.0105737
4.31365e-09
0.0141503
0.00981338
2.09026e-09
0.0126297
0.00940816
1.22347e-09
0.0111147
0.00984529
1.29677e-09
0.00945683
0.0109736
1.37698e-09
0.00759732
0.0122675
1.39883e-09
0.00542672
0.0136383
1.4454e-09
0.00288409
0.0146794
1.53328e-09
0.0161364
1.62095e-09
0.0168001
4.69502e-10
-3.57364e-12
0.0168001
1.81545e-09
-1.10401e-11
0.0168001
7.41843e-09
-1.40452e-11
0.0168001
1.90669e-08
-2.13037e-11
0.0168
5.30642e-08
-2.18192e-11
0.0168
1.21537e-07
-2.79993e-11
0.0167999
3.21477e-07
-2.89991e-11
0.0167997
7.17138e-07
-3.62019e-11
0.0167989
1.93117e-06
-4.24047e-11
0.016798
4.16309e-06
-6.62079e-11
0.0167942
1.24256e-05
-8.43109e-11
0.0167852
2.62612e-05
-2.55998e-10
0.0167797
8.4937e-05
-2.57026e-10
0.0167583
0.000256018
-1.62146e-09
0.0170579
0.00080995
-2.65403e-09
0.0180475
0.00355313
-9.06819e-09
0.0165843
0.0118918
-1.02135e-09
0.0146389
0.0117019
2.91627e-10
0.0132401
0.0108445
1.41233e-09
0.0117499
0.0113891
1.37325e-09
0.0101642
0.0126125
1.30803e-09
0.00834278
0.0141507
1.25001e-09
0.0061385
0.0158871
1.23546e-09
0.00344853
0.0173229
1.26668e-09
0.0196602
1.31252e-09
0.0168001
5.45185e-10
-3.7944e-12
0.0168001
2.04849e-09
-1.05347e-11
0.0168001
8.98744e-09
-1.42669e-11
0.0168
2.22725e-08
-2.127e-11
0.0168
6.26572e-08
-2.18843e-11
0.0168
1.41778e-07
-2.79342e-11
0.0167998
3.76148e-07
-2.85914e-11
0.0167996
8.25606e-07
-3.49694e-11
0.0167987
2.216e-06
-3.88918e-11
0.0167974
4.61501e-06
-5.17653e-11
0.0167925
1.34866e-05
-7.83347e-11
0.0167893
2.50358e-05
-1.24993e-10
0.0167653
8.93322e-05
-2.94588e-10
0.0167671
0.000204778
-8.66077e-10
0.0167316
0.000772056
-1.58264e-09
0.0170331
0.00283531
-7.11158e-09
0.0163264
0.0121301
-7.18687e-09
0.0150357
0.0128323
-2.51169e-09
0.0137738
0.012217
2.42636e-09
0.0123578
0.0128841
1.39784e-09
0.0109613
0.0140675
1.17063e-09
0.00930989
0.015859
1.10502e-09
0.00733399
0.0179207
1.09938e-09
0.00448574
0.0201359
1.05676e-09
0.0242049
1.04602e-09
0.0168001
-4.01994e-12
5.80652e-10
0.0168001
-1.00527e-11
1.01696e-09
0.0168001
-1.46018e-11
1.32723e-08
0.0168001
-2.13902e-11
1.32671e-08
0.0168
-2.22242e-11
8.66701e-08
0.0168001
-2.83603e-11
8.90861e-08
0.0167998
-2.91062e-11
5.22878e-07
0.0168
-3.59675e-11
4.97491e-07
0.0167984
-3.97591e-11
3.29372e-06
0.0168002
-5.64236e-11
2.14819e-06
0.0167881
-7.094e-11
2.2356e-05
0.0168023
-1.45563e-10
6.18446e-06
0.016719
-2.01324e-10
0.000156349
0.0168272
-7.61204e-10
5.83507e-05
0.0164674
-1.11046e-09
0.00107392
0.0169046
-5.61335e-09
0.00212939
0.0162217
-7.65939e-09
0.0123618
0.0154801
2.98458e-10
0.0136295
0.014274
1.33606e-09
0.0135028
0.0131473
9.4691e-10
0.0140642
0.0119314
9.1158e-10
0.0153213
0.0106562
9.37965e-10
0.0171712
0.00884708
9.6217e-10
0.0197626
0.0061099
9.35293e-10
0.0228519
8.726e-10
0.0303629
0.0168001
8.08319e-11
-6.13033e-16
0.0168001
4.23351e-10
-3.11632e-15
0.0168
1.63552e-09
-7.64216e-15
0.0168
4.14727e-09
-1.61784e-14
0.0168
1.22846e-08
-3.68542e-14
0.0167999
2.85502e-08
-7.4615e-14
0.0167994
8.1391e-08
-1.91476e-13
0.0167987
1.94674e-07
-4.51953e-13
0.0167957
5.13448e-07
-9.23449e-13
0.0167906
1.32847e-06
-2.78284e-12
0.0167769
3.26406e-06
-4.3971e-12
0.0167416
8.84349e-06
-1.37587e-11
0.0166693
2.55213e-05
-2.86509e-11
0.0164984
8.47788e-05
-1.05214e-10
0.0159518
0.000340184
-2.52063e-10
0.0134422
0.00164647
-6.01701e-10
0.0121441
0.001563
2.32243e-10
0.0108562
0.00138514
6.28534e-11
0.00955137
0.00132561
1.28311e-11
0.00823671
0.00134911
3.74247e-11
0.00684811
0.00144279
6.41932e-11
0.00535175
0.00157818
7.40229e-11
0.00369708
0.00172427
8.36344e-11
0.00186473
0.00183148
7.73074e-11
0.0020113
9.82587e-11
0.0168001
1.46722e-10
-5.9673e-16
0.0168001
7.82975e-10
-3.05982e-15
0.0168
3.01054e-09
-7.34386e-15
0.0168
7.65609e-09
-1.55145e-14
0.0168
2.24612e-08
-3.40764e-14
0.0167999
5.15869e-08
-6.77638e-14
0.0167994
1.48936e-07
-1.75317e-13
0.0167989
3.38458e-07
-4.04437e-13
0.016796
9.83912e-07
-9.02509e-13
0.0167915
2.34723e-06
-2.6782e-12
0.0167774
6.58018e-06
-4.32901e-12
0.0167435
1.71895e-05
-1.44312e-11
0.0166715
5.16132e-05
-2.76589e-11
0.0164964
0.000171747
-1.08623e-10
0.0159482
0.000680989
-2.50116e-10
0.013457
0.00325743
-6.11684e-10
0.0121709
0.0031304
2.42692e-10
0.0109424
0.00271529
6.6905e-11
0.00966907
0.00262013
1.34291e-11
0.00836077
0.00269219
3.43733e-11
0.006932
0.00292687
6.55881e-11
0.00539378
0.00319851
7.37601e-11
0.00369402
0.00349328
8.48843e-11
0.00182351
0.00370091
7.77533e-11
0.00398189
9.80315e-11
0.0168001
2.097e-10
-5.68607e-16
0.0168001
1.14885e-09
-2.96536e-15
0.0168
4.26653e-09
-6.86718e-15
0.0168
1.09014e-08
-1.4503e-14
0.0168
3.05938e-08
-2.97134e-14
0.0167999
6.9149e-08
-5.68922e-14
0.0167996
1.96782e-07
-1.43501e-13
0.0167992
4.02374e-07
-2.8237e-13
0.0167967
1.37337e-06
-8.48104e-13
0.0167941
2.60084e-06
-1.92377e-12
0.0167791
9.96858e-06
-4.85928e-12
0.0167552
2.18928e-05
-1.35804e-11
0.0166788
7.95691e-05
-2.77108e-11
0.0165252
0.000244067
-1.13968e-10
0.0159796
0.00100101
-2.47508e-10
0.013613
0.00471627
-6.35124e-10
0.0123615
0.00469679
2.62329e-10
0.0111895
0.00399402
7.54568e-11
0.00995127
0.00388376
1.10974e-11
0.00864411
0.00403812
3.2855e-11
0.00718281
0.00444215
6.30028e-11
0.00558669
0.00487558
7.25573e-11
0.00382204
0.00532559
8.37504e-11
0.0018864
0.0056331
7.56701e-11
0.00601218
9.4687e-11
0.0168001
2.81104e-10
-5.60935e-16
0.0168001
1.51819e-09
-2.95781e-15
0.0168001
5.66769e-09
-6.72926e-15
0.0168
1.43993e-08
-1.4247e-14
0.0168
4.0586e-08
-2.78247e-14
0.0167999
9.18975e-08
-5.21746e-14
0.0167996
2.55839e-07
-1.23742e-13
0.0167992
5.23543e-07
-1.99343e-13
0.0167972
1.7404e-06
-7.69296e-13
0.0167957
3.02813e-06
-9.0854e-13
0.0167816
1.29766e-05
-5.49938e-12
0.0167706
2.46625e-05
-7.84655e-12
0.0166921
0.000105435
-3.5556e-11
0.0165832
0.000283767
-9.66746e-11
0.0160419
0.00127849
-2.65545e-10
0.0139429
0.00590315
-6.63265e-10
0.0127439
0.00623439
2.75399e-10
0.0116394
0.0052241
8.96233e-11
0.0104217
0.00514048
2.00973e-11
0.00910494
0.00539915
3.38094e-11
0.00760013
0.00599377
5.66783e-11
0.00593055
0.00662088
6.95805e-11
0.00406715
0.0072526
7.9313e-11
0.00202552
0.00766441
7.09932e-11
0.00817489
9.26995e-11
0.0168001
3.13793e-10
-5.56341e-16
0.0168001
1.69825e-09
-2.92456e-15
0.0168001
6.38016e-09
-6.71462e-15
0.0168
1.62174e-08
-1.39528e-14
0.0168
4.61471e-08
-2.82487e-14
0.0167999
1.04827e-07
-5.2944e-14
0.0167997
2.94777e-07
-1.25116e-13
0.0167993
6.14747e-07
-2.21032e-13
0.0167974
2.01218e-06
-7.3075e-13
0.0167955
3.63011e-06
-1.02786e-12
0.0167832
1.47634e-05
-5.14249e-12
0.0167702
2.88214e-05
-7.38257e-12
0.0167032
0.000119678
-3.54275e-11
0.0165915
0.000322107
-8.20422e-11
0.0161868
0.00142784
-2.81344e-10
0.0145089
0.00659238
-7.19533e-10
0.0133933
0.00771064
2.85489e-10
0.0123083
0.0064782
1.07759e-10
0.0110738
0.00643688
3.45542e-11
0.00971375
0.00680833
4.15239e-11
0.00814077
0.00760195
5.28863e-11
0.00638533
0.00844509
6.35095e-11
0.00441849
0.00927702
7.00684e-11
0.00223196
0.00983937
6.2404e-11
0.0105363
8.8431e-11
0.0168001
3.43464e-10
-5.35218e-16
0.0168001
1.84662e-09
-2.83126e-15
0.0168001
6.96201e-09
-6.36978e-15
0.0168
1.77594e-08
-1.32149e-14
0.0168
5.03478e-08
-2.57202e-14
0.0168
1.15198e-07
-4.74005e-14
0.0167997
3.15983e-07
-1.09497e-13
0.0167994
6.83755e-07
-1.85274e-13
0.0167979
2.11148e-06
-6.67434e-13
0.0167968
3.7001e-06
-8.3781e-13
0.0167855
1.58804e-05
-4.88864e-12
0.0167791
2.78895e-05
-6.83959e-12
0.0167176
0.000127806
-3.41017e-11
0.0166466
0.000323747
-7.84049e-11
0.0163429
0.0014393
-2.74335e-10
0.0154662
0.0064867
-7.59819e-10
0.0144901
0.0091121
2.92031e-10
0.0132328
0.00795712
1.35707e-10
0.0118722
0.00786258
5.34854e-11
0.0104201
0.00829544
5.42087e-11
0.0087889
0.0092705
5.52299e-11
0.00695118
0.0103477
5.88094e-11
0.00486191
0.0114241
5.92689e-11
0.0025034
0.0121792
5.03627e-11
0.0131573
8.81692e-11
0.0168001
3.6703e-10
-5.00126e-16
0.0168001
1.961e-09
-2.70341e-15
0.0168001
7.40964e-09
-5.9265e-15
0.0168
1.88919e-08
-1.22785e-14
0.0168
5.35583e-08
-2.33639e-14
0.0168
1.22752e-07
-4.31836e-14
0.0167998
3.32585e-07
-9.71531e-14
0.0167995
7.40508e-07
-1.8005e-13
0.0167984
2.05829e-06
-5.54257e-13
0.016796
4.40029e-06
-8.88596e-13
0.0167891
1.39204e-05
-4.25594e-12
0.0167804
2.92918e-05
-5.57612e-12
0.0167504
0.000106767
-3.20842e-11
0.0166908
0.000310824
-6.82053e-11
0.0167314
0.00120995
-2.50769e-10
0.0171499
0.00519584
-7.31697e-10
0.0159282
0.0105727
1.75405e-10
0.0141495
0.00981112
7.90339e-11
0.0126293
0.00940746
5.47227e-11
0.0111145
0.00984457
5.92836e-11
0.00945688
0.0109724
5.87462e-11
0.00759745
0.012266
5.24186e-11
0.0054268
0.0136367
5.05321e-11
0.00288412
0.0146778
3.8985e-11
0.0161347
7.3097e-11
0.0168001
3.62081e-10
-4.68925e-16
0.0168001
1.98223e-09
-2.56763e-15
0.0168001
7.42202e-09
-5.51131e-15
0.0168001
1.90839e-08
-1.14028e-14
0.0168
5.30086e-08
-2.11392e-14
0.0168
1.21456e-07
-3.85215e-14
0.0167999
3.21461e-07
-8.4261e-14
0.0167997
7.17396e-07
-1.62083e-13
0.0167989
1.93248e-06
-4.24131e-13
0.016798
4.16889e-06
-9.11895e-13
0.0167942
1.24316e-05
-2.36204e-12
0.0167852
2.63207e-05
-6.01212e-12
0.0167797
8.49651e-05
-1.43952e-11
0.0167581
0.000256496
-5.38227e-11
0.0170604
0.000811006
-1.28023e-10
0.0180547
0.00355823
-3.76961e-10
0.0165868
0.0118956
-6.13509e-11
0.0146404
0.0117005
1.20681e-12
0.0132408
0.0108444
6.32764e-11
0.0117504
0.0113884
6.26483e-11
0.0101646
0.0126115
5.70525e-11
0.00834313
0.0141494
4.75413e-11
0.00613879
0.0158855
4.17302e-11
0.0034487
0.0173214
2.81457e-11
0.0196587
6.65262e-11
0.0168001
4.81665e-10
-4.47376e-16
0.0168001
2.28416e-09
-2.48828e-15
0.0168001
8.80744e-09
-5.20352e-15
0.0168
2.20936e-08
-1.07797e-14
0.0168
6.21955e-08
-1.89032e-14
0.0168
1.41072e-07
-3.38359e-14
0.0167998
3.75143e-07
-6.73445e-14
0.0167996
8.24143e-07
-1.23568e-13
0.0167987
2.21415e-06
-3.05177e-13
0.0167974
4.61284e-06
-5.39887e-13
0.0167925
1.34881e-05
-1.86479e-12
0.0167894
2.50407e-05
-2.66893e-12
0.0167653
8.93734e-05
-1.21893e-11
0.0167674
0.00020493
-3.20352e-11
0.0167323
0.000772495
-7.15731e-11
0.0170354
0.00283802
-3.01547e-10
0.01633
0.0121329
-3.34623e-10
0.0150352
0.0128345
-1.19708e-10
0.0137743
0.0122157
1.09042e-10
0.0123583
0.0128833
6.30163e-11
0.0109617
0.0140666
5.06373e-11
0.00931032
0.0158579
4.24026e-11
0.00733434
0.0179193
4.04413e-11
0.00448597
0.0201345
2.19186e-11
0.0242035
5.99482e-11
0.0168001
-4.39071e-16
8.4342e-10
0.0168001
-2.47723e-15
1.12916e-09
0.0168001
-5.12574e-15
1.21575e-08
0.0168001
-1.06389e-14
1.33648e-08
0.0168
-1.82629e-14
8.46215e-08
0.0168001
-3.29685e-14
8.83607e-08
0.0167998
-6.34842e-14
5.19681e-07
0.0168
-1.19043e-13
4.95575e-07
0.0167984
-2.81245e-13
3.28817e-06
0.0168002
-5.65163e-13
2.14709e-06
0.0167881
-1.50661e-12
2.23498e-05
0.0168023
-2.95499e-12
6.19096e-06
0.0167191
-8.94516e-12
0.000156361
0.0168273
-2.51286e-11
5.84393e-05
0.0164675
-6.08156e-11
0.00107399
0.0169053
-2.288e-10
0.00213126
0.0162224
-3.68387e-10
0.0123642
0.0154823
1.15698e-11
0.0136306
0.014275
6.08173e-11
0.013503
0.0131481
4.30423e-11
0.0140638
0.011932
3.93115e-11
0.0153207
0.0106567
3.79265e-11
0.0171703
0.00884745
3.69846e-11
0.0197614
0.00611018
2.14433e-11
0.0228506
5.4237e-11
0.0303618
0.0168001
8.0838e-11
1.85515e-16
0.0168001
4.23377e-10
-9.62484e-18
0.0168
1.63564e-09
-4.52749e-16
0.0168
4.14758e-09
-9.7503e-16
0.0168
1.22858e-08
-3.43656e-15
0.0167999
2.85533e-08
-7.50924e-15
0.0167994
8.13999e-08
-2.40294e-14
0.0167987
1.94703e-07
-6.03991e-14
0.0167957
5.13483e-07
-1.31837e-13
0.0167906
1.32863e-06
-4.14552e-13
0.0167769
3.26416e-06
-6.82883e-13
0.0167416
8.84368e-06
-2.21122e-12
0.0166693
2.55219e-05
-4.77022e-12
0.0164985
8.47783e-05
-1.84185e-11
0.0159518
0.000340186
-4.55926e-11
0.0134422
0.00164648
-1.17908e-10
0.0121441
0.001563
2.5873e-11
0.0108562
0.00138516
5.37431e-12
0.00955136
0.00132563
-1.4768e-12
0.0082367
0.00134912
8.65536e-13
0.00684809
0.0014428
5.4616e-12
0.00535173
0.00157818
7.14835e-12
0.00369707
0.00172426
6.16691e-12
0.00186472
0.00183147
6.09357e-12
0.00201127
6.96694e-12
0.0168001
1.46732e-10
1.85302e-16
0.0168001
7.83011e-10
7.14726e-18
0.0168
3.01072e-09
-4.134e-16
0.0168
7.65655e-09
-8.85691e-16
0.0168
2.24631e-08
-3.04267e-15
0.0167999
5.15916e-08
-6.52063e-15
0.0167994
1.4895e-07
-2.17261e-14
0.0167989
3.3851e-07
-5.36063e-14
0.016796
9.83968e-07
-1.29057e-13
0.0167915
2.34762e-06
-4.01894e-13
0.0167774
6.58015e-06
-6.69976e-13
0.0167435
1.71907e-05
-2.31895e-12
0.0166715
5.16132e-05
-4.60236e-12
0.0164964
0.000171749
-1.88816e-11
0.0159482
0.000680993
-4.51527e-11
0.013457
0.00325745
-1.19324e-10
0.0121709
0.0031304
2.73308e-11
0.0109424
0.00271532
6.01224e-12
0.00966905
0.00262016
-1.44897e-12
0.00836075
0.0026922
7.14538e-13
0.00693198
0.00292687
5.29211e-12
0.00539376
0.00319849
7.04111e-12
0.00369402
0.00349326
6.06524e-12
0.00182351
0.00370088
6.11898e-12
0.00398185
6.39547e-12
0.0168001
2.09703e-10
1.83421e-16
0.0168001
1.14886e-09
2.47689e-17
0.0168
4.2666e-09
-3.59748e-16
0.0168
1.09016e-08
-7.7318e-16
0.0168
3.05946e-08
-2.46409e-15
0.0167999
6.9151e-08
-5.03117e-15
0.0167996
1.96789e-07
-1.70796e-14
0.0167992
4.02403e-07
-3.53032e-14
0.0167967
1.37342e-06
-1.218e-13
0.0167941
2.60118e-06
-2.90128e-13
0.0167791
9.96859e-06
-7.49234e-13
0.0167551
2.1895e-05
-2.24113e-12
0.0166788
7.95675e-05
-4.49687e-12
0.0165252
0.000244079
-1.99313e-11
0.0159796
0.00100101
-4.42079e-11
0.0136131
0.00471632
-1.22999e-10
0.0123615
0.00469678
3.03153e-11
0.0111895
0.00399405
7.38488e-12
0.00995124
0.0038838
-1.18621e-12
0.00864408
0.00403814
5.68277e-13
0.00718279
0.00444214
4.73678e-12
0.00558667
0.00487555
6.76216e-12
0.00382205
0.00532555
5.81608e-12
0.00188641
0.00563306
6.27864e-12
0.00601213
7.62412e-12
0.0168001
2.81109e-10
1.83012e-16
0.0168001
1.51823e-09
-9.14279e-17
0.0168001
5.66779e-09
-3.47312e-16
0.0168
1.43997e-08
-7.52192e-16
0.0168
4.05865e-08
-2.25904e-15
0.0167999
9.18987e-08
-4.52831e-15
0.0167996
2.55841e-07
-1.45792e-14
0.0167992
5.23542e-07
-2.43137e-14
0.0167972
1.74043e-06
-1.09574e-13
0.0167957
3.02811e-06
-1.32963e-13
0.0167816
1.29769e-05
-8.54931e-13
0.0167706
2.46629e-05
-1.24639e-12
0.0166921
0.000105437
-5.964e-12
0.0165832
0.000283774
-1.68409e-11
0.0160419
0.00127851
-4.7017e-11
0.0139429
0.00590324
-1.27019e-10
0.0127439
0.00623439
3.21829e-11
0.0116393
0.00522415
9.57783e-12
0.0104216
0.00514051
-2.86533e-13
0.00910491
0.00539915
7.31844e-13
0.00760011
0.00599374
3.88702e-12
0.00593054
0.00662083
6.24077e-12
0.00406716
0.00725255
5.40306e-12
0.00202553
0.00766435
6.35033e-12
0.00817482
8.08346e-12
0.0168001
3.13803e-10
1.81977e-16
0.0168001
1.69831e-09
-3.13072e-17
0.0168001
6.38038e-09
-3.43186e-16
0.0168
1.6218e-08
-7.39604e-16
0.0168
4.61488e-08
-2.28293e-15
0.0167999
1.04831e-07
-4.64223e-15
0.0167997
2.94788e-07
-1.47042e-14
0.0167993
6.14772e-07
-2.68264e-14
0.0167974
2.01224e-06
-1.04664e-13
0.0167955
3.63028e-06
-1.47476e-13
0.0167832
1.47637e-05
-8.04808e-13
0.0167702
2.88223e-05
-1.19345e-12
0.0167032
0.000119681
-5.84185e-12
0.0165915
0.000322114
-1.41738e-11
0.0161868
0.00142787
-4.95455e-11
0.0145088
0.00659254
-1.35464e-10
0.0133932
0.00771065
3.35941e-11
0.0123082
0.00647822
1.24756e-11
0.0110737
0.0064369
1.64004e-12
0.00971372
0.00680831
1.77347e-12
0.00814075
0.00760191
3.31857e-12
0.00638533
0.00844502
5.48229e-12
0.0044185
0.00927696
4.5494e-12
0.00223196
0.00983931
6.2064e-12
0.0105362
8.08912e-12
0.0168001
3.4348e-10
1.79564e-16
0.0168001
1.84669e-09
-7.59873e-18
0.0168001
6.96228e-09
-3.06311e-16
0.0168
1.77601e-08
-6.61158e-16
0.0168
5.03497e-08
-1.98545e-15
0.0168
1.15202e-07
-3.97602e-15
0.0167997
3.15995e-07
-1.27265e-14
0.0167994
6.83774e-07
-2.2115e-14
0.0167979
2.11157e-06
-9.65271e-14
0.0167968
3.70017e-06
-1.19902e-13
0.0167855
1.58809e-05
-7.71648e-13
0.0167791
2.78907e-05
-1.10689e-12
0.0167176
0.00012781
-5.63655e-12
0.0166466
0.000323758
-1.35271e-11
0.0163429
0.00143936
-4.81131e-11
0.0154661
0.00648699
-1.40581e-10
0.0144899
0.00911213
3.40757e-11
0.0132327
0.00795709
1.66573e-11
0.0118722
0.00786256
4.1383e-12
0.0104201
0.0082954
3.60902e-12
0.0087889
0.00927045
3.65896e-12
0.00695119
0.0103477
5.47907e-12
0.00486192
0.011424
3.47789e-12
0.0025034
0.0121792
4.34966e-12
0.0131572
5.90913e-12
0.0168001
3.67046e-10
1.75557e-16
0.0168001
1.96108e-09
3.68061e-17
0.0168001
7.40992e-09
-2.55734e-16
0.0168
1.88926e-08
-5.5122e-16
0.0168
5.35601e-08
-1.70913e-15
0.0168
1.22756e-07
-3.48908e-15
0.0167998
3.32596e-07
-1.11926e-14
0.0167995
7.4053e-07
-2.18788e-14
0.0167984
2.05838e-06
-8.04471e-14
0.016796
4.40038e-06
-1.31061e-13
0.0167891
1.39214e-05
-6.74658e-13
0.0167804
2.92924e-05
-9.1215e-13
0.0167504
0.000106777
-5.3031e-12
0.0166908
0.00031084
-1.18138e-11
0.0167313
0.00121008
-4.38686e-11
0.0171497
0.00519633
-1.34238e-10
0.0159281
0.0105726
1.38002e-11
0.0141495
0.00981101
6.45277e-12
0.0126293
0.00940742
3.83227e-12
0.0111145
0.00984453
4.08403e-12
0.00945691
0.0109723
4.18773e-12
0.00759747
0.0122659
4.55776e-12
0.00542683
0.0136366
2.51049e-12
0.00288413
0.0146778
4.3662e-12
0.0161346
5.79705e-12
0.0168001
3.6209e-10
1.7113e-16
0.0168001
1.98227e-09
9.42942e-17
0.0168001
7.42218e-09
-2.03442e-16
0.0168001
1.90843e-08
-4.38546e-16
0.0168
5.30099e-08
-1.40908e-15
0.0168
1.21459e-07
-2.92636e-15
0.0167999
3.2147e-07
-9.38724e-15
0.0167997
7.17417e-07
-1.97105e-14
0.0167989
1.93255e-06
-6.1248e-14
0.016798
4.16907e-06
-1.37708e-13
0.0167942
1.2432e-05
-3.773e-13
0.0167852
2.63224e-05
-9.89777e-13
0.0167797
8.49676e-05
-2.44864e-12
0.0167581
0.000256511
-9.34599e-12
0.0170605
0.000811056
-2.31027e-11
0.018055
0.00355844
-7.11902e-11
0.0165869
0.0118958
-2.12329e-11
0.0146405
0.0117005
-7.43031e-12
0.0132408
0.0108444
4.85298e-12
0.0117504
0.0113884
4.36143e-12
0.0101646
0.0126115
3.77666e-12
0.00834316
0.0141494
3.98897e-12
0.00613882
0.0158855
2.45749e-12
0.00344871
0.0173213
3.6585e-12
0.0196585
5.28468e-12
0.0168001
4.81664e-10
1.68258e-16
0.0168001
2.28418e-09
1.24734e-16
0.0168001
8.80747e-09
-1.61214e-16
0.0168
2.20937e-08
-3.48902e-16
0.0168
6.21959e-08
-1.07644e-15
0.0168
1.41073e-07
-2.21834e-15
0.0167998
3.75146e-07
-6.75073e-15
0.0167996
8.2415e-07
-1.36095e-14
0.0167987
2.21417e-06
-4.24448e-14
0.0167974
4.61289e-06
-7.60821e-14
0.0167925
1.34884e-05
-3.03681e-13
0.0167894
2.50411e-05
-4.22665e-13
0.0167653
8.93754e-05
-2.13991e-12
0.0167674
0.000204936
-5.63557e-12
0.0167323
0.000772512
-1.34967e-11
0.0170355
0.00283814
-5.71361e-11
0.0163301
0.012133
-7.22488e-11
0.0150352
0.0128346
-3.0626e-11
0.0137744
0.0122156
1.29377e-11
0.0123583
0.0128832
4.06376e-12
0.0109618
0.0140666
2.56468e-12
0.00931035
0.0158578
3.13842e-12
0.00733437
0.0179193
2.29881e-12
0.00448598
0.0201345
1.39184e-12
0.0242034
4.58815e-12
0.0168001
1.67166e-16
8.43393e-10
0.0168001
1.35903e-16
1.12922e-09
0.0168001
-1.43232e-16
1.21572e-08
0.0168001
-3.08793e-16
1.33649e-08
0.0168
-9.65597e-16
8.46214e-08
0.0168001
-2.00045e-15
8.83615e-08
0.0167998
-6.20589e-15
5.19685e-07
0.0168
-1.28717e-14
4.95581e-07
0.0167984
-3.89313e-14
3.28821e-06
0.0168002
-8.10517e-14
2.14713e-06
0.0167881
-2.47052e-13
2.23501e-05
0.0168023
-4.75936e-13
6.19105e-06
0.0167191
-1.61526e-12
0.000156362
0.0168273
-4.48125e-12
5.84416e-05
0.0164675
-1.1752e-11
0.001074
0.0169053
-4.43469e-11
0.00213133
0.0162225
-7.9215e-11
0.0123643
0.0154824
-7.65875e-12
0.0136306
0.0142751
2.76328e-12
0.013503
0.0131481
7.78078e-13
0.0140638
0.011932
8.80709e-13
0.0153206
0.0106567
1.77731e-12
0.0171702
0.00884748
1.90796e-12
0.0197614
0.00611018
8.92629e-13
0.0228506
3.93625e-12
0.0303616
0.0168001
8.08386e-11
-4.30349e-16
0.0168001
4.23379e-10
-1.44809e-15
0.0168
1.63566e-09
-4.52468e-15
0.0168
4.14761e-09
-9.39238e-15
0.0168
1.22859e-08
-2.91967e-14
0.0167999
2.85537e-08
-6.21438e-14
0.0167994
8.14011e-08
-1.85011e-13
0.0167987
1.94708e-07
-4.42213e-13
0.0167957
5.13487e-07
-9.79282e-13
0.0167906
1.32865e-06
-2.79911e-12
0.0167769
3.26418e-06
-4.97485e-12
0.0167416
8.8437e-06
-1.41706e-11
0.0166693
2.55219e-05
-3.24012e-11
0.0164985
8.47782e-05
-1.09657e-10
0.0159518
0.000340187
-2.77069e-10
0.0134422
0.00164648
-6.38876e-10
0.0121441
0.001563
2.78719e-10
0.0108562
0.00138516
6.79968e-11
0.00955135
0.00132563
1.41688e-12
0.00823669
0.00134912
3.18153e-11
0.00684808
0.00144279
8.23511e-11
0.00535173
0.00157817
1.12155e-10
0.00369707
0.00172425
1.32829e-10
0.00186472
0.00183147
1.41443e-10
0.00201128
1.44205e-10
0.0168001
1.46732e-10
-4.0719e-16
0.0168001
7.83014e-10
-1.37252e-15
0.0168
3.01074e-09
-4.199e-15
0.0168
7.65659e-09
-8.67448e-15
0.0168
2.24633e-08
-2.63467e-14
0.0167999
5.15922e-08
-5.51913e-14
0.0167994
1.48952e-07
-1.67961e-13
0.0167989
3.38517e-07
-3.90558e-13
0.016796
9.83975e-07
-9.55072e-13
0.0167915
2.34768e-06
-2.63406e-12
0.0167774
6.58014e-06
-4.96757e-12
0.0167435
1.71909e-05
-1.46125e-11
0.0166715
5.16132e-05
-3.1674e-11
0.0164964
0.000171749
-1.12708e-10
0.0159482
0.000680994
-2.75602e-10
0.013457
0.00325746
-6.48667e-10
0.0121709
0.00313039
2.90613e-10
0.0109424
0.00271532
7.34239e-11
0.00966905
0.00262016
2.11988e-12
0.00836074
0.00269221
3.01768e-11
0.00693198
0.00292687
8.20183e-11
0.00539376
0.00319849
1.11769e-10
0.00369402
0.00349325
1.31091e-10
0.00182351
0.00370087
1.38771e-10
0.00398185
1.41095e-10
0.0168001
2.09703e-10
-3.60663e-16
0.0168001
1.14886e-09
-1.22786e-15
0.0168
4.2666e-09
-3.59041e-15
0.0168
1.09016e-08
-7.37037e-15
0.0168
3.05946e-08
-2.14762e-14
0.0167999
6.91512e-08
-4.3516e-14
0.0167996
1.9679e-07
-1.35873e-13
0.0167992
4.02406e-07
-2.73032e-13
0.0167967
1.37342e-06
-8.8956e-13
0.0167941
2.60123e-06
-1.88919e-12
0.0167791
9.96858e-06
-5.46395e-12
0.0167551
2.18954e-05
-1.33178e-11
0.0166788
7.95672e-05
-3.24199e-11
0.0165252
0.000244081
-1.15433e-10
0.0159796
0.00100101
-2.75233e-10
0.0136131
0.00471633
-6.717e-10
0.0123615
0.00469678
3.12146e-10
0.0111895
0.00399406
8.48156e-11
0.00995123
0.0038838
5.89732e-12
0.00864407
0.00403814
3.03364e-11
0.00718278
0.00444213
7.88069e-11
0.00558667
0.00487554
1.09183e-10
0.00382205
0.00532555
1.26423e-10
0.00188641
0.00563305
1.33068e-10
0.00601213
1.32954e-10
0.0168001
2.8111e-10
-3.53124e-16
0.0168001
1.51823e-09
-1.21559e-15
0.0168001
5.6678e-09
-3.44006e-15
0.0168
1.43997e-08
-7.08449e-15
0.0168
4.05865e-08
-1.92519e-14
0.0167999
9.18988e-08
-3.78355e-14
0.0167996
2.55842e-07
-1.13166e-13
0.0167992
5.23541e-07
-1.79883e-13
0.0167972
1.74043e-06
-8.1036e-13
0.0167957
3.02811e-06
-8.82e-13
0.0167816
1.29769e-05
-6.02941e-12
0.0167706
2.46629e-05
-8.25078e-12
0.0166921
0.000105437
-3.844e-11
0.0165832
0.000283775
-9.92938e-11
0.0160419
0.00127852
-2.91406e-10
0.0139429
0.00590325
-7.01423e-10
0.0127439
0.00623439
3.28122e-10
0.0116393
0.00522415
1.02916e-10
0.0104216
0.00514052
1.53215e-11
0.0091049
0.00539915
3.34185e-11
0.0076001
0.00599374
7.15503e-11
0.00593054
0.00662083
1.0075e-10
0.00406716
0.00725254
1.16336e-10
0.00202552
0.00766434
1.22326e-10
0.00817482
1.20285e-10
0.0168001
3.13804e-10
-3.41108e-16
0.0168001
1.69832e-09
-1.15942e-15
0.0168001
6.3804e-09
-3.3775e-15
0.0168
1.6218e-08
-6.95098e-15
0.0168
4.61489e-08
-1.95977e-14
0.0167999
1.04831e-07
-3.94577e-14
0.0167997
2.9479e-07
-1.1604e-13
0.0167993
6.14775e-07
-2.12783e-13
0.0167974
2.01224e-06
-7.6413e-13
0.0167955
3.6303e-06
-1.07769e-12
0.0167832
1.47637e-05
-5.54898e-12
0.0167702
2.88224e-05
-7.81908e-12
0.0167032
0.000119681
-3.83853e-11
0.0165915
0.000322115
-8.67803e-11
0.0161868
0.00142788
-3.01966e-10
0.0145088
0.00659257
-7.56085e-10
0.0133932
0.00771065
3.38819e-10
0.0123082
0.00647822
1.2563e-10
0.0110737
0.0064369
3.48227e-11
0.00971371
0.00680831
4.4157e-11
0.00814075
0.0076019
6.60824e-11
0.00638533
0.00844502
8.84532e-11
0.0044185
0.00927695
1.00819e-10
0.00223196
0.0098393
1.07029e-10
0.0105362
1.05089e-10