/*--------------------------------*- C++ -*----------------------------------*\
| =========                 |                                                 |
| \\      /  F ield         | OpenFOAM: The Open Source CFD Toolbox           |
|  \\    /   O peration     | Version:  4.1                                   |
|   \\  /    A nd           | Web:      www.OpenFOAM.org                      |
|    \\/     M anipulation  |                                                 |
\*---------------------------------------------------------------------------*/
FoamFile
{
    version     2.0;
    format      ascii;
    class       volScalarField;
    location    "8";
    object      Ma;
}
// * * * * * * * * * * * * * * * * * * * * * * * * * * * * * * * * * * * * * //

dimensions      [0 0 0 0 0 0 0];

internalField   nonuniform List<scalar> 
52500
(
3.00001
2.99996
2.99989
2.9996
2.9992
2.99758
2.99527
2.98621
2.97193
2.9234
2.81997
2.56982
1.96672
1.07028
0.443307
0.318261
0.342648
0.34537
0.314716
0.262587
0.211027
0.168512
0.126568
0.0799506
0.0459442
3.00001
2.99996
2.99989
2.99961
2.99921
2.9976
2.99532
2.98636
2.97223
2.92421
2.82165
2.57427
1.97404
1.08016
0.44958
0.318851
0.343863
0.347136
0.316757
0.26539
0.215119
0.174169
0.134549
0.0934208
0.0694063
3.00001
2.99996
2.99989
2.99962
2.99923
2.99766
2.99543
2.98668
2.97286
2.92587
2.8252
2.58358
1.99011
1.10233
0.464222
0.321488
0.347995
0.352798
0.323469
0.274261
0.227196
0.190072
0.155902
0.123876
0.108755
3.00001
2.99996
2.9999
2.99963
2.99926
2.99775
2.9956
2.98716
2.97382
2.92843
2.83059
2.59771
2.01515
1.13748
0.486722
0.32546
0.35461
0.362093
0.334558
0.288665
0.24603
0.213906
0.185977
0.161932
0.151944
3.00001
2.99997
2.9999
2.99965
2.9993
2.99787
2.99584
2.98796
2.9751
2.93251
2.83738
2.61634
2.04922
1.18692
0.516717
0.330384
0.363287
0.374384
0.3492
0.307383
0.269858
0.243312
0.221394
0.203656
0.197403
3.00002
2.99997
2.99991
2.99968
2.99935
2.99802
2.99611
2.98881
2.97662
2.93717
2.84725
2.64016
2.09248
1.25131
0.553114
0.335475
0.37332
0.389066
0.366734
0.329883
0.297878
0.277169
0.261661
0.250159
0.247541
3.00002
2.99997
2.99992
2.9997
2.9994
2.99817
2.9964
2.98962
2.97841
2.94176
2.85917
2.66593
2.15698
1.33837
0.602138
0.346507
0.388061
0.408091
0.388247
0.356411
0.330539
0.315909
0.307046
0.302589
0.305926
3.00002
2.99998
2.99993
2.99973
2.99945
2.9983
2.99668
2.99025
2.98033
2.94588
2.87458
2.69554
2.24115
1.45138
0.664837
0.368127
0.411053
0.433803
0.415438
0.387962
0.367594
0.359691
0.358626
0.363498
0.377546
3.00002
2.99998
2.99994
2.99976
2.9995
2.99847
2.99701
2.99119
2.98241
2.95091
2.89119
2.72814
2.33568
1.58831
0.738996
0.403784
0.444613
0.466667
0.449414
0.426491
0.411162
0.409075
0.417042
0.43662
0.474331
3.00002
2.99999
2.99995
2.99979
2.99957
2.99867
2.99737
2.99233
2.98452
2.95704
2.90514
2.75922
2.42297
1.71323
0.823627
0.452797
0.48488
0.500318
0.487116
0.469538
0.460067
0.464094
0.485352
0.532095
0.633939
2.99999
2.99994
2.99987
2.99958
2.99918
2.99756
2.99525
2.98618
2.9719
2.92337
2.81994
2.56974
1.96665
1.07014
0.443135
0.31808
0.342472
0.345189
0.314514
0.262341
0.210716
0.168115
0.12603
0.0790819
0.0443906
2.99999
2.99994
2.99987
2.99959
2.99919
2.99758
2.9953
2.98634
2.97221
2.92417
2.82162
2.5742
1.97397
1.08003
0.449412
0.318673
0.343689
0.346958
0.316559
0.26515
0.214817
0.17379
0.13405
0.0926888
0.068403
2.99999
2.99994
2.99987
2.9996
2.99921
2.99764
2.99541
2.98665
2.97284
2.92583
2.82517
2.58351
1.99005
1.10219
0.464058
0.321313
0.347824
0.352623
0.323276
0.274031
0.226914
0.189729
0.155477
0.123333
0.108127
3
2.99995
2.99988
2.99961
2.99924
2.99773
2.99558
2.98714
2.9738
2.92839
2.83057
2.59765
2.01509
1.13735
0.486574
0.325299
0.354451
0.36193
0.334378
0.288453
0.245776
0.213608
0.185628
0.161526
0.151502
3
2.99995
2.99989
2.99963
2.99928
2.99785
2.99582
2.98793
2.97507
2.93248
2.83734
2.61626
2.04913
1.18677
0.516565
0.330218
0.363128
0.374225
0.349029
0.307186
0.269631
0.243057
0.221109
0.20334
0.197071
3
2.99995
2.99989
2.99966
2.99933
2.998
2.99609
2.98879
2.9766
2.93713
2.84721
2.64009
2.09239
1.25116
0.552969
0.335309
0.373161
0.388909
0.366569
0.329702
0.297675
0.276949
0.261426
0.249909
0.247283
3
2.99996
2.9999
2.99968
2.99938
2.99815
2.99638
2.9896
2.97838
2.94172
2.85913
2.66585
2.15688
1.3382
0.601997
0.346341
0.387904
0.407938
0.388088
0.356241
0.330358
0.31572
0.306852
0.302389
0.305725
3
2.99996
2.99991
2.99971
2.99943
2.99828
2.99666
2.99023
2.98031
2.94584
2.87455
2.69547
2.24109
1.45122
0.664719
0.367976
0.410906
0.43366
0.415291
0.387807
0.367432
0.359528
0.358464
0.363338
0.377391
3
2.99996
2.99992
2.99974
2.99948
2.99845
2.99699
2.99117
2.98239
2.95088
2.89116
2.72807
2.33558
1.58815
0.738876
0.403632
0.44447
0.466533
0.449277
0.42635
0.411019
0.408933
0.416907
0.436493
0.474215
3
2.99997
2.99993
2.99977
2.99955
2.99865
2.99735
2.99231
2.9845
2.95701
2.9051
2.75916
2.42291
1.71309
0.823528
0.452664
0.48476
0.500202
0.486995
0.469413
0.459941
0.463973
0.485239
0.531997
0.633861
2.99999
2.99994
2.99987
2.99958
2.99918
2.99756
2.99525
2.98618
2.9719
2.92337
2.81994
2.56974
1.96664
1.07014
0.443131
0.318081
0.342473
0.345189
0.314514
0.262341
0.210716
0.168115
0.12603
0.0790819
0.0443907
2.99999
2.99994
2.99987
2.99959
2.99919
2.99758
2.9953
2.98634
2.97221
2.92417
2.82162
2.5742
1.97397
1.08002
0.449409
0.318674
0.34369
0.346958
0.316558
0.26515
0.214817
0.17379
0.13405
0.0926888
0.068403
2.99999
2.99994
2.99987
2.9996
2.99921
2.99764
2.99541
2.98665
2.97284
2.92583
2.82517
2.58351
1.99004
1.10219
0.464054
0.321314
0.347824
0.352623
0.323276
0.274031
0.226914
0.189729
0.155477
0.123333
0.108127
3
2.99995
2.99988
2.99961
2.99924
2.99773
2.99558
2.98714
2.9738
2.92839
2.83057
2.59764
2.01508
1.13734
0.486571
0.3253
0.354451
0.36193
0.334378
0.288453
0.245776
0.213608
0.185628
0.161526
0.151503
3
2.99995
2.99989
2.99963
2.99928
2.99785
2.99582
2.98793
2.97507
2.93247
2.83734
2.61626
2.04913
1.18676
0.516562
0.330219
0.363128
0.374225
0.349029
0.307186
0.269631
0.243057
0.221109
0.20334
0.197071
3
2.99995
2.99989
2.99966
2.99933
2.998
2.99609
2.98879
2.9766
2.93713
2.84721
2.64008
2.09238
1.25115
0.552965
0.33531
0.373162
0.388909
0.366569
0.329702
0.297675
0.276949
0.261426
0.249909
0.247283
3
2.99996
2.9999
2.99968
2.99938
2.99815
2.99638
2.9896
2.97838
2.94172
2.85913
2.66585
2.15687
1.33819
0.601993
0.346342
0.387904
0.407938
0.388088
0.356241
0.330358
0.31572
0.306852
0.302389
0.305725
3
2.99996
2.99991
2.99971
2.99943
2.99828
2.99666
2.99023
2.98031
2.94583
2.87455
2.69546
2.24108
1.45121
0.664715
0.367976
0.410905
0.43366
0.415291
0.387807
0.367432
0.359528
0.358464
0.363338
0.377391
3
2.99996
2.99992
2.99974
2.99948
2.99845
2.99699
2.99117
2.98239
2.95088
2.89115
2.72807
2.33558
1.58814
0.73887
0.403631
0.444469
0.466531
0.449276
0.42635
0.411019
0.408933
0.416907
0.436493
0.474216
3
2.99997
2.99993
2.99977
2.99955
2.99865
2.99735
2.99231
2.9845
2.95701
2.9051
2.75916
2.4229
1.71308
0.823524
0.452663
0.48476
0.500201
0.486994
0.469412
0.459941
0.463973
0.485239
0.531997
0.633861
2.99999
2.99994
2.99987
2.99958
2.99918
2.99756
2.99525
2.98618
2.9719
2.92337
2.81994
2.56974
1.96664
1.07014
0.443131
0.318081
0.342473
0.345189
0.314514
0.262341
0.210716
0.168115
0.12603
0.0790819
0.0443907
2.99999
2.99994
2.99987
2.99959
2.99919
2.99758
2.9953
2.98634
2.97221
2.92417
2.82162
2.5742
1.97396
1.08002
0.449409
0.318675
0.34369
0.346958
0.316558
0.26515
0.214817
0.17379
0.13405
0.0926888
0.068403
2.99999
2.99994
2.99987
2.9996
2.99921
2.99764
2.99541
2.98665
2.97284
2.92583
2.82517
2.58351
1.99004
1.10219
0.464054
0.321314
0.347824
0.352623
0.323276
0.274031
0.226914
0.189729
0.155477
0.123333
0.108127
3
2.99995
2.99988
2.99961
2.99924
2.99773
2.99558
2.98714
2.9738
2.92839
2.83057
2.59764
2.01508
1.13734
0.48657
0.3253
0.354451
0.36193
0.334378
0.288453
0.245776
0.213608
0.185628
0.161526
0.151503
3
2.99995
2.99989
2.99963
2.99928
2.99785
2.99582
2.98793
2.97507
2.93247
2.83734
2.61626
2.04913
1.18676
0.516561
0.330219
0.363128
0.374225
0.349029
0.307186
0.269631
0.243057
0.221109
0.20334
0.197071
3
2.99995
2.99989
2.99966
2.99933
2.998
2.99609
2.98879
2.9766
2.93713
2.84721
2.64008
2.09238
1.25115
0.552965
0.335311
0.373162
0.388909
0.366569
0.329702
0.297675
0.276949
0.261426
0.249909
0.247283
3
2.99996
2.9999
2.99968
2.99938
2.99815
2.99638
2.9896
2.97838
2.94172
2.85913
2.66585
2.15687
1.33819
0.601993
0.346342
0.387904
0.407938
0.388088
0.356241
0.330358
0.31572
0.306852
0.302389
0.305725
3
2.99996
2.99991
2.99971
2.99943
2.99828
2.99666
2.99023
2.98031
2.94583
2.87455
2.69546
2.24108
1.45121
0.664714
0.367976
0.410905
0.43366
0.415291
0.387807
0.367432
0.359528
0.358464
0.363338
0.377391
3
2.99996
2.99992
2.99974
2.99948
2.99845
2.99699
2.99117
2.98239
2.95088
2.89115
2.72807
2.33558
1.58814
0.73887
0.40363
0.444468
0.466531
0.449276
0.42635
0.411019
0.408933
0.416907
0.436493
0.474216
3
2.99997
2.99993
2.99977
2.99955
2.99865
2.99735
2.99231
2.9845
2.95701
2.9051
2.75916
2.4229
1.71308
0.823524
0.452663
0.48476
0.500201
0.486994
0.469412
0.459941
0.463973
0.485239
0.531997
0.633861
2.99999
2.99994
2.99987
2.99958
2.99918
2.99756
2.99525
2.98618
2.9719
2.92337
2.81994
2.56974
1.96664
1.07013
0.443131
0.318081
0.342473
0.345189
0.314514
0.262341
0.210716
0.168115
0.12603
0.0790819
0.0443907
2.99999
2.99994
2.99987
2.99959
2.99919
2.99758
2.9953
2.98634
2.97221
2.92417
2.82162
2.5742
1.97396
1.08002
0.449408
0.318675
0.34369
0.346958
0.316558
0.26515
0.214817
0.17379
0.13405
0.0926888
0.068403
2.99999
2.99994
2.99987
2.9996
2.99921
2.99764
2.99541
2.98665
2.97284
2.92583
2.82517
2.5835
1.99004
1.10219
0.464053
0.321314
0.347824
0.352623
0.323276
0.274031
0.226914
0.189729
0.155477
0.123333
0.108127
3
2.99995
2.99988
2.99961
2.99924
2.99773
2.99558
2.98714
2.9738
2.92839
2.83057
2.59764
2.01508
1.13734
0.48657
0.3253
0.354451
0.36193
0.334378
0.288453
0.245776
0.213608
0.185628
0.161526
0.151503
3
2.99995
2.99989
2.99963
2.99928
2.99785
2.99582
2.98793
2.97507
2.93247
2.83733
2.61626
2.04913
1.18676
0.516561
0.330219
0.363128
0.374225
0.349029
0.307186
0.269631
0.243057
0.221109
0.20334
0.197071
3
2.99995
2.99989
2.99966
2.99933
2.998
2.99609
2.98879
2.9766
2.93713
2.84721
2.64008
2.09238
1.25115
0.552964
0.335311
0.373162
0.388909
0.366569
0.329702
0.297675
0.276949
0.261426
0.249909
0.247283
3
2.99996
2.9999
2.99968
2.99938
2.99815
2.99638
2.9896
2.97838
2.94172
2.85913
2.66585
2.15687
1.33819
0.601992
0.346342
0.387904
0.407938
0.388088
0.356241
0.330358
0.31572
0.306852
0.302389
0.305725
3
2.99996
2.99991
2.99971
2.99943
2.99828
2.99666
2.99023
2.98031
2.94583
2.87455
2.69546
2.24108
1.45121
0.664713
0.367976
0.410905
0.433659
0.41529
0.387807
0.367432
0.359528
0.358464
0.363338
0.377391
3
2.99996
2.99992
2.99974
2.99948
2.99845
2.99699
2.99117
2.98239
2.95088
2.89115
2.72807
2.33557
1.58814
0.738869
0.40363
0.444468
0.466531
0.449275
0.426349
0.411019
0.408933
0.416907
0.436493
0.474216
3
2.99997
2.99993
2.99977
2.99955
2.99865
2.99735
2.99231
2.9845
2.95701
2.9051
2.75915
2.4229
1.71308
0.823523
0.452662
0.484759
0.500201
0.486994
0.469412
0.45994
0.463972
0.485239
0.531997
0.633861
2.99999
2.99994
2.99987
2.99958
2.99918
2.99756
2.99525
2.98618
2.9719
2.92337
2.81994
2.56974
1.96664
1.07013
0.44313
0.318081
0.342473
0.345189
0.314514
0.262341
0.210716
0.168115
0.12603
0.0790819
0.0443907
2.99999
2.99994
2.99987
2.99959
2.99919
2.99758
2.9953
2.98634
2.97221
2.92417
2.82162
2.5742
1.97396
1.08002
0.449408
0.318675
0.34369
0.346958
0.316558
0.26515
0.214817
0.17379
0.13405
0.0926888
0.068403
2.99999
2.99994
2.99987
2.9996
2.99921
2.99764
2.99541
2.98665
2.97284
2.92583
2.82517
2.5835
1.99004
1.10218
0.464053
0.321314
0.347824
0.352623
0.323276
0.274031
0.226914
0.189729
0.155477
0.123333
0.108127
3
2.99995
2.99988
2.99961
2.99924
2.99773
2.99558
2.98714
2.9738
2.92839
2.83057
2.59764
2.01508
1.13734
0.48657
0.3253
0.354451
0.36193
0.334378
0.288453
0.245776
0.213608
0.185628
0.161526
0.151503
3
2.99995
2.99989
2.99963
2.99928
2.99785
2.99582
2.98793
2.97507
2.93247
2.83733
2.61626
2.04912
1.18676
0.516561
0.330219
0.363128
0.374225
0.349029
0.307186
0.269631
0.243057
0.221109
0.20334
0.197071
3
2.99995
2.99989
2.99966
2.99933
2.998
2.99609
2.98879
2.9766
2.93713
2.84721
2.64008
2.09238
1.25114
0.552964
0.335311
0.373162
0.388909
0.366569
0.329702
0.297675
0.276949
0.261426
0.249909
0.247283
3
2.99996
2.9999
2.99968
2.99938
2.99815
2.99638
2.9896
2.97838
2.94172
2.85913
2.66585
2.15687
1.33819
0.601992
0.346342
0.387904
0.407938
0.388088
0.356241
0.330358
0.31572
0.306852
0.302389
0.305725
3
2.99996
2.99991
2.99971
2.99943
2.99828
2.99666
2.99023
2.98031
2.94583
2.87455
2.69546
2.24108
1.45121
0.664713
0.367975
0.410905
0.433659
0.41529
0.387807
0.367432
0.359528
0.358464
0.363338
0.377391
3
2.99996
2.99992
2.99974
2.99948
2.99845
2.99699
2.99117
2.98239
2.95088
2.89115
2.72807
2.33557
1.58814
0.738869
0.40363
0.444468
0.46653
0.449275
0.426349
0.411019
0.408933
0.416907
0.436493
0.474216
3
2.99997
2.99993
2.99977
2.99955
2.99865
2.99735
2.99231
2.9845
2.95701
2.9051
2.75915
2.4229
1.71308
0.823523
0.452662
0.484759
0.500201
0.486994
0.469412
0.45994
0.463972
0.485239
0.531997
0.633861
2.99999
2.99994
2.99987
2.99958
2.99918
2.99756
2.99525
2.98618
2.9719
2.92337
2.81994
2.56974
1.96664
1.07014
0.443131
0.318081
0.342473
0.345189
0.314514
0.262341
0.210716
0.168115
0.12603
0.0790819
0.0443907
2.99999
2.99994
2.99987
2.99959
2.99919
2.99758
2.9953
2.98634
2.97221
2.92417
2.82162
2.5742
1.97396
1.08002
0.449408
0.318675
0.34369
0.346958
0.316558
0.26515
0.214817
0.17379
0.13405
0.0926888
0.068403
2.99999
2.99994
2.99987
2.9996
2.99921
2.99764
2.99541
2.98665
2.97284
2.92583
2.82517
2.5835
1.99004
1.10219
0.464054
0.321314
0.347824
0.352623
0.323276
0.274031
0.226914
0.189729
0.155477
0.123333
0.108127
3
2.99995
2.99988
2.99961
2.99924
2.99773
2.99558
2.98714
2.9738
2.92839
2.83057
2.59764
2.01508
1.13734
0.48657
0.3253
0.354451
0.36193
0.334378
0.288453
0.245776
0.213608
0.185628
0.161526
0.151503
3
2.99995
2.99989
2.99963
2.99928
2.99785
2.99582
2.98793
2.97507
2.93247
2.83734
2.61626
2.04913
1.18676
0.516561
0.330219
0.363128
0.374225
0.349029
0.307186
0.269631
0.243057
0.221109
0.20334
0.197071
3
2.99995
2.99989
2.99966
2.99933
2.998
2.99609
2.98879
2.9766
2.93713
2.84721
2.64008
2.09238
1.25115
0.552965
0.335311
0.373162
0.388909
0.366569
0.329702
0.297675
0.276949
0.261426
0.249909
0.247283
3
2.99996
2.9999
2.99968
2.99938
2.99815
2.99638
2.9896
2.97838
2.94172
2.85913
2.66585
2.15687
1.33819
0.601992
0.346342
0.387904
0.407938
0.388088
0.356241
0.330358
0.31572
0.306852
0.302389
0.305725
3
2.99996
2.99991
2.99971
2.99943
2.99828
2.99666
2.99023
2.98031
2.94583
2.87455
2.69546
2.24108
1.45121
0.664714
0.367976
0.410905
0.433659
0.415291
0.387807
0.367432
0.359528
0.358464
0.363338
0.377391
3
2.99996
2.99992
2.99974
2.99948
2.99845
2.99699
2.99117
2.98239
2.95088
2.89115
2.72807
2.33558
1.58814
0.738869
0.40363
0.444468
0.466531
0.449275
0.42635
0.411019
0.408933
0.416907
0.436493
0.474216
3
2.99997
2.99993
2.99977
2.99955
2.99865
2.99735
2.99231
2.9845
2.95701
2.9051
2.75916
2.4229
1.71308
0.823524
0.452662
0.484759
0.500201
0.486994
0.469412
0.45994
0.463972
0.485239
0.531997
0.633861
2.99999
2.99994
2.99987
2.99958
2.99918
2.99756
2.99525
2.98618
2.9719
2.92337
2.81994
2.56974
1.96664
1.07014
0.443131
0.318081
0.342473
0.345189
0.314514
0.262341
0.210716
0.168115
0.12603
0.0790819
0.0443907
2.99999
2.99994
2.99987
2.99959
2.99919
2.99758
2.9953
2.98634
2.97221
2.92417
2.82162
2.5742
1.97397
1.08002
0.449409
0.318674
0.34369
0.346958
0.316558
0.26515
0.214817
0.17379
0.13405
0.0926888
0.068403
2.99999
2.99994
2.99987
2.9996
2.99921
2.99764
2.99541
2.98665
2.97284
2.92583
2.82517
2.58351
1.99004
1.10219
0.464054
0.321314
0.347824
0.352623
0.323276
0.274031
0.226914
0.189729
0.155477
0.123333
0.108127
3
2.99995
2.99988
2.99961
2.99924
2.99773
2.99558
2.98714
2.9738
2.92839
2.83057
2.59764
2.01508
1.13734
0.486571
0.3253
0.354451
0.36193
0.334378
0.288453
0.245776
0.213608
0.185628
0.161526
0.151503
3
2.99995
2.99989
2.99963
2.99928
2.99785
2.99582
2.98793
2.97507
2.93247
2.83734
2.61626
2.04913
1.18676
0.516562
0.330219
0.363128
0.374225
0.349029
0.307186
0.269631
0.243057
0.221109
0.20334
0.197071
3
2.99995
2.99989
2.99966
2.99933
2.998
2.99609
2.98879
2.9766
2.93713
2.84721
2.64008
2.09238
1.25115
0.552965
0.33531
0.373162
0.388909
0.366569
0.329702
0.297675
0.276949
0.261426
0.249909
0.247283
3
2.99996
2.9999
2.99968
2.99938
2.99815
2.99638
2.9896
2.97838
2.94172
2.85913
2.66585
2.15687
1.33819
0.601993
0.346342
0.387904
0.407938
0.388088
0.356241
0.330358
0.31572
0.306852
0.302389
0.305725
3
2.99996
2.99991
2.99971
2.99943
2.99828
2.99666
2.99023
2.98031
2.94583
2.87455
2.69546
2.24108
1.45121
0.664714
0.367976
0.410905
0.43366
0.415291
0.387807
0.367432
0.359528
0.358464
0.363338
0.377391
3
2.99996
2.99992
2.99974
2.99948
2.99845
2.99699
2.99117
2.98239
2.95088
2.89115
2.72807
2.33558
1.58814
0.73887
0.403631
0.444469
0.466531
0.449276
0.42635
0.411019
0.408933
0.416907
0.436493
0.474216
3
2.99997
2.99993
2.99977
2.99955
2.99865
2.99735
2.99231
2.9845
2.95701
2.9051
2.75916
2.4229
1.71308
0.823524
0.452663
0.48476
0.500201
0.486994
0.469412
0.459941
0.463973
0.485239
0.531997
0.633861
2.99999
2.99994
2.99987
2.99958
2.99918
2.99756
2.99525
2.98618
2.9719
2.92337
2.81994
2.56974
1.96665
1.07014
0.443135
0.31808
0.342472
0.345189
0.314514
0.262341
0.210716
0.168115
0.12603
0.0790819
0.0443906
2.99999
2.99994
2.99987
2.99959
2.99919
2.99758
2.9953
2.98634
2.97221
2.92417
2.82162
2.5742
1.97397
1.08003
0.449412
0.318673
0.343689
0.346958
0.316559
0.26515
0.214817
0.17379
0.13405
0.0926888
0.068403
2.99999
2.99994
2.99987
2.9996
2.99921
2.99764
2.99541
2.98665
2.97284
2.92583
2.82517
2.58351
1.99005
1.10219
0.464058
0.321313
0.347824
0.352623
0.323276
0.274031
0.226914
0.189729
0.155477
0.123333
0.108127
3
2.99995
2.99988
2.99961
2.99924
2.99773
2.99558
2.98714
2.9738
2.92839
2.83057
2.59765
2.01509
1.13735
0.486574
0.325299
0.354451
0.36193
0.334378
0.288453
0.245776
0.213608
0.185628
0.161526
0.151502
3
2.99995
2.99989
2.99963
2.99928
2.99785
2.99582
2.98793
2.97507
2.93248
2.83734
2.61626
2.04913
1.18677
0.516565
0.330218
0.363128
0.374225
0.349029
0.307186
0.269631
0.243057
0.221109
0.20334
0.197071
3
2.99995
2.99989
2.99966
2.99933
2.998
2.99609
2.98879
2.9766
2.93713
2.84721
2.64009
2.09239
1.25116
0.552969
0.335309
0.373161
0.388909
0.366569
0.329702
0.297675
0.276949
0.261426
0.249909
0.247283
3
2.99996
2.9999
2.99968
2.99938
2.99815
2.99638
2.9896
2.97838
2.94172
2.85913
2.66585
2.15688
1.3382
0.601997
0.346341
0.387904
0.407938
0.388088
0.356241
0.330358
0.31572
0.306852
0.302389
0.305725
3
2.99996
2.99991
2.99971
2.99943
2.99828
2.99666
2.99023
2.98031
2.94584
2.87455
2.69547
2.24109
1.45122
0.664719
0.367976
0.410906
0.43366
0.415291
0.387807
0.367432
0.359528
0.358464
0.363338
0.377391
3
2.99996
2.99992
2.99974
2.99948
2.99845
2.99699
2.99117
2.98239
2.95088
2.89116
2.72807
2.33558
1.58815
0.738876
0.403632
0.44447
0.466533
0.449277
0.42635
0.411019
0.408934
0.416907
0.436493
0.474215
3
2.99997
2.99993
2.99977
2.99955
2.99865
2.99735
2.99231
2.9845
2.95701
2.9051
2.75916
2.42291
1.71309
0.823528
0.452664
0.48476
0.500202
0.486995
0.469413
0.459941
0.463973
0.485239
0.531997
0.633861
3.00001
2.99996
2.99989
2.9996
2.9992
2.99758
2.99527
2.98621
2.97193
2.9234
2.81997
2.56982
1.96672
1.07028
0.443307
0.31826
0.342648
0.34537
0.314716
0.262587
0.211027
0.168512
0.126568
0.0799506
0.0459442
3.00001
2.99996
2.99989
2.99961
2.99921
2.9976
2.99532
2.98636
2.97223
2.92421
2.82165
2.57427
1.97404
1.08017
0.449581
0.318851
0.343863
0.347136
0.316757
0.26539
0.215119
0.174169
0.134549
0.0934208
0.0694063
3.00001
2.99996
2.99989
2.99962
2.99923
2.99766
2.99543
2.98668
2.97286
2.92587
2.8252
2.58358
1.99012
1.10233
0.464222
0.321488
0.347995
0.352798
0.323469
0.274261
0.227196
0.190072
0.155902
0.123876
0.108755
3.00001
2.99996
2.9999
2.99963
2.99926
2.99775
2.9956
2.98716
2.97382
2.92843
2.83059
2.59771
2.01515
1.13748
0.486722
0.32546
0.35461
0.362093
0.334558
0.288665
0.24603
0.213906
0.185977
0.161932
0.151944
3.00001
2.99997
2.9999
2.99965
2.9993
2.99787
2.99584
2.98796
2.9751
2.93251
2.83738
2.61634
2.04922
1.18692
0.516717
0.330384
0.363287
0.374384
0.3492
0.307383
0.269858
0.243312
0.221394
0.203656
0.197403
3.00002
2.99997
2.99991
2.99968
2.99935
2.99802
2.99611
2.98881
2.97662
2.93717
2.84725
2.64016
2.09248
1.25131
0.553115
0.335475
0.37332
0.389066
0.366734
0.329883
0.297878
0.277169
0.261661
0.250159
0.247541
3.00002
2.99997
2.99992
2.9997
2.9994
2.99817
2.9964
2.98962
2.97841
2.94176
2.85917
2.66593
2.15698
1.33837
0.602138
0.346507
0.388061
0.408091
0.388247
0.356411
0.330539
0.315909
0.307046
0.302589
0.305926
3.00002
2.99998
2.99993
2.99973
2.99945
2.9983
2.99668
2.99025
2.98033
2.94588
2.87458
2.69554
2.24116
1.45138
0.664838
0.368127
0.411053
0.433803
0.415438
0.387962
0.367594
0.359691
0.358626
0.363498
0.377546
3.00002
2.99998
2.99994
2.99976
2.9995
2.99847
2.99701
2.99119
2.98241
2.95091
2.89119
2.72814
2.33568
1.58831
0.738996
0.403785
0.444613
0.466667
0.449414
0.426491
0.411162
0.409075
0.417042
0.43662
0.474331
3.00002
2.99999
2.99995
2.99979
2.99957
2.99867
2.99737
2.99233
2.98452
2.95704
2.90514
2.75922
2.42297
1.71323
0.823627
0.452797
0.48488
0.500318
0.487116
0.469538
0.460067
0.464094
0.485352
0.532095
0.633939
3.00002
3
2.99994
2.99986
2.99954
2.99908
2.99727
2.99454
2.98465
2.96714
2.91351
2.78753
2.50632
1.85212
0.952562
0.519953
0.521467
0.529885
0.52689
0.514941
0.511424
0.523938
0.562986
0.646382
0.813581
3.00002
3
2.99995
2.99988
2.99959
2.99919
2.99754
2.99521
2.98597
2.97163
2.92249
2.81976
2.56676
1.97334
1.09619
0.600749
0.544668
0.556196
0.562701
0.559326
0.562737
0.584594
0.637289
0.735105
0.899808
3.00002
3.00001
2.99996
2.9999
2.99966
2.99932
2.99793
2.99595
2.98834
2.97589
2.93491
2.84346
2.63127
2.08508
1.25198
0.685754
0.562164
0.577754
0.594241
0.600863
0.611679
0.640572
0.698223
0.790701
0.924614
3.00002
3.00001
2.99997
2.99992
2.99972
2.99943
2.99827
2.99661
2.99027
2.97981
2.94565
2.86922
2.6897
2.21674
1.43985
0.781825
0.584409
0.601605
0.622405
0.638792
0.657014
0.689524
0.744719
0.825422
0.936199
3.00002
3.00001
2.99998
2.99994
2.99977
2.99953
2.99856
2.99716
2.99169
2.98326
2.95353
2.89706
2.74055
2.37754
1.64365
0.905149
0.632009
0.638032
0.654962
0.674755
0.697013
0.731443
0.783978
0.852938
0.945368
3.00002
3.00001
3
2.99994
2.99986
2.99955
2.99908
2.9973
2.9946
2.98489
2.96761
2.91527
2.79222
2.51897
1.8948
1.05561
0.698746
0.683138
0.695511
0.713727
0.734411
0.766552
0.816752
0.879417
0.956042
3.00002
3.00001
3
2.99996
2.99989
2.99963
2.99926
2.99775
2.99562
2.98719
2.97417
2.92941
2.83588
2.60904
2.05721
1.23215
0.781645
0.715521
0.728829
0.746996
0.769939
0.799154
0.84267
0.901659
0.969618
3.00002
3.00002
3.00001
2.99997
2.99992
2.99972
2.99944
2.99831
2.99663
2.9905
2.97977
2.94643
2.86903
2.6912
2.21996
1.45229
0.890378
0.745144
0.754271
0.773294
0.800642
0.830999
0.868038
0.918954
0.981053
3.00002
3.00002
3.00001
2.99999
2.99993
2.99984
2.99949
2.99897
2.99709
2.99379
2.98356
2.96061
2.90347
2.74925
2.44309
1.72096
1.05128
0.798593
0.787932
0.802047
0.827911
0.859702
0.895488
0.937599
0.991629
3.00002
3.00002
3.00001
3
2.99995
2.99988
2.9996
2.99919
2.99758
2.99524
2.98638
2.97172
2.92445
2.81939
2.57722
2.00347
1.21199
0.867881
0.827429
0.837621
0.858628
0.887056
0.920573
0.958487
1.0038
3.00003
3.00002
3.00002
3.00001
2.99998
2.9999
2.99978
2.9993
2.99858
2.99604
2.99145
2.9776
2.94548
2.86827
2.65521
2.2499
1.41308
0.970529
0.860736
0.86612
0.885664
0.913125
0.943009
0.978352
1.01812
3.00003
3.00002
3.00002
3.00001
2.99999
2.99993
2.99983
2.99945
2.99892
2.99679
2.99363
2.98223
2.96166
2.90107
2.75307
2.44565
1.74767
1.12897
0.914861
0.900552
0.913017
0.936508
0.965497
0.996509
1.03226
3.00003
3.00003
3.00002
3.00002
3
2.99997
2.99985
2.99968
2.99902
2.99805
2.99437
2.98857
2.96858
2.93153
2.82462
2.59442
2.04156
1.30621
0.987671
0.934625
0.941449
0.960502
0.987451
1.01624
1.04748
3.00003
3.00003
3.00002
3.00002
3.00001
2.99998
2.9999
2.99978
2.99931
2.99862
2.99598
2.99198
2.97788
2.9518
2.87758
2.69576
2.32023
1.56082
1.11192
0.975469
0.970323
0.982
1.00526
1.03336
1.06242
3.00003
3.00003
3.00003
3.00002
3.00002
2.99999
2.99995
2.99981
2.99961
2.99882
2.99765
2.9933
2.98636
2.96306
2.91876
2.79611
2.528
1.92525
1.27214
1.03518
1.00492
1.01023
1.02725
1.05175
1.07709
3.00003
3.00003
3.00003
3.00002
3.00002
3
2.99998
2.99988
2.99973
2.99917
2.99837
2.99525
2.99057
2.97381
2.94381
2.85855
2.65702
2.22395
1.47339
1.11479
1.03755
1.03653
1.04928
1.06873
1.09003
3.00003
3.00003
3.00003
3.00003
3.00002
3.00001
2.99998
2.99994
2.99978
2.99954
2.99863
2.99728
2.99224
2.98425
2.95749
2.90475
2.76699
2.44393
1.79967
1.2528
1.08128
1.06416
1.07174
1.08641
1.10275
3.00003
3.00003
3.00003
3.00003
3.00002
3.00002
3
2.99997
2.99986
2.99969
2.99906
2.99814
2.99463
2.98929
2.97037
2.93742
2.83684
2.63622
2.12318
1.46189
1.15791
1.09443
1.09101
1.09761
1.10564
3.00003
3.00003
3.00003
3.00003
3.00003
3.00002
3.00001
2.99998
2.99993
2.99976
2.9995
2.99852
2.99705
2.99163
2.98295
2.95432
2.89618
2.75029
2.40191
1.73932
1.28345
1.1352
1.1123
1.10706
1.10162
3.00003
3.00003
3.00003
3.00003
3.00003
3.00002
3.00002
3
2.99995
2.99988
2.99961
2.99921
2.99769
2.99541
2.98726
2.97339
2.93078
2.83651
2.62394
2.12829
1.46781
1.19637
1.13408
1.11124
1.08944
3.00003
3.00003
3.00003
3.00003
3.00003
3.00003
3.00002
3.00001
2.99998
2.99993
2.99974
2.99948
2.99844
2.99694
2.99123
2.98248
2.95232
2.89498
2.74528
2.3904
1.74003
1.30014
1.14931
1.09872
1.05695
3.00003
3.00003
3.00003
3.00003
3.00003
3.00003
3.00002
3.00002
3
2.99995
2.99988
2.9996
2.99918
2.99762
2.99528
2.9868
2.97278
2.92885
2.83578
2.6128
2.128
1.4712
1.1792
1.07471
0.99856
3.00003
3.00003
3.00003
3.00003
3.00003
3.00003
3.00003
3.00002
3.00001
2.99998
2.99993
2.99973
2.99945
2.99836
2.99681
2.9908
2.98175
2.95021
2.89059
2.7364
2.36506
1.7206
1.22935
1.018
0.903494
3.00003
3.00003
3.00003
3.00003
3.00003
3.00003
3.00003
3.00002
3.00002
2.99999
2.99996
2.99982
2.99963
2.99886
2.99776
2.9935
2.98718
2.96431
2.92454
2.80645
2.55894
1.99428
1.29744
0.926673
0.780858
3.00003
3.00003
3.00003
3.00003
3.00003
3.00003
3.00003
3.00002
3.00002
3
2.99998
2.99988
2.99973
2.99917
2.99836
2.99527
2.99039
2.97394
2.94077
2.85318
2.62732
2.18441
1.3573
0.818292
0.63334
3.00003
3.00003
3.00003
3.00003
3.00003
3.00003
3.00003
3.00003
3.00002
3.00001
2.99998
2.99993
2.99973
2.99945
2.99836
2.99667
2.99072
2.97995
2.94752
2.87101
2.69503
2.23988
1.46541
0.706383
0.470673
3.00003
3.00003
3.00003
3.00003
3.00003
3.00003
3.00003
3.00003
3.00002
3.00001
2.99999
2.99993
2.99983
2.99946
2.99886
2.99686
2.99292
2.98174
2.95433
2.88983
2.7027
2.34227
1.51782
0.660751
0.342558
3.00003
3.00003
3.00003
3.00003
3.00003
3.00003
3.00003
3.00003
3.00002
3.00001
2.99999
2.99994
2.99978
2.99954
2.99858
2.99716
2.99166
2.9829
2.95273
2.89097
2.72883
2.33011
1.56
0.622796
0.256187
3.00003
3.00003
3.00003
3.00003
3.00003
3.00003
3.00003
3.00003
3.00002
3.00002
2.99999
2.99995
2.99979
2.99957
2.99865
2.99732
2.99207
2.98377
2.95477
2.89603
2.73879
2.35278
1.58713
0.628228
0.230888
3.00003
3.00003
3.00003
3.00003
3.00003
3.00003
3.00003
3.00003
3.00002
3.00001
3
2.99994
2.99986
2.99954
2.99903
2.99727
2.99385
2.98391
2.95989
2.90155
2.73671
2.40871
1.64401
0.694194
0.265782
3.00003
3.00003
3.00003
3.00003
3.00003
3.00003
3.00003
3.00003
3.00002
3.00002
2.99999
2.99996
2.99982
2.99961
2.99881
2.99754
2.99309
2.98475
2.95949
2.89907
2.75641
2.37908
1.65327
0.68038
0.256669
3.00003
3.00003
3.00003
3.00003
3.00003
3.00003
3.00003
3.00003
3.00002
3.00001
3
2.99994
2.99986
2.99952
2.99904
2.99712
2.99412
2.98372
2.96289
2.90463
2.75373
2.43866
1.70166
0.748807
0.295018
3.00003
3.00003
3.00003
3.00003
3.00003
3.00003
3.00003
3.00003
3.00002
3.00001
3
2.99994
2.99986
2.99953
2.99905
2.99716
2.99425
2.98391
2.96412
2.90663
2.76134
2.45185
1.72821
0.779698
0.312944
3.00003
3.00003
3.00003
3.00003
3.00003
3.00003
3.00003
3.00003
3.00002
3.00002
3
2.99996
2.99983
2.99963
2.99887
2.99769
2.99343
2.98567
2.96164
2.90526
2.77081
2.4169
1.72295
0.74651
0.299746
3.00003
3.00003
3.00003
3.00003
3.00003
3.00003
3.00003
3.00003
3.00002
3.00002
3
2.99995
2.99987
2.99956
2.9991
2.9974
2.99443
2.9851
2.9643
2.9107
2.76785
2.47247
1.76359
0.825481
0.346773
3.00003
3.00003
3.00003
3.00003
3.00003
3.00003
3.00003
3.00003
3.00002
3.00002
3
2.99996
2.99983
2.99964
2.99889
2.99773
2.99357
2.98598
2.9626
2.90773
2.77743
2.43292
1.75686
0.780083
0.323895
3.00003
3.00003
3.00003
3.00003
3.00003
3.00003
3.00003
3.00003
3.00002
3.00001
3
2.99995
2.99987
2.99955
2.99908
2.99725
2.99445
2.98436
2.96588
2.91025
2.775
2.47872
1.78716
0.855816
0.368504
3.00003
3.00003
3.00003
3.00003
3.00003
3.00003
3.00003
3.00003
3.00002
3.00001
3
2.99995
2.99986
2.99954
2.99908
2.99724
2.99445
2.98439
2.96596
2.91047
2.77567
2.48009
1.79268
0.863042
0.375754
3.00003
3.00003
3.00003
3.00003
3.00003
3.00003
3.00003
3.00003
3.00002
3.00002
2.99999
2.99996
2.99982
2.99963
2.99885
2.9977
2.99333
2.98614
2.96236
2.91103
2.78241
2.44861
1.79158
0.806267
0.347121
3.00003
3.00003
3.00003
3.00003
3.00003
3.00003
3.00003
3.00003
3.00002
3.00002
2.99999
2.99996
2.99981
2.99962
2.99879
2.99764
2.99297
2.98601
2.96049
2.91317
2.78064
2.45607
1.79891
0.80909
0.352139
3
2.99998
2.99993
2.99984
2.99952
2.99906
2.99725
2.99452
2.98462
2.96711
2.91348
2.78748
2.50625
1.85201
0.9524
0.519807
0.521363
0.529781
0.526783
0.514832
0.511314
0.523834
0.562893
0.646308
0.813533
3
2.99999
2.99993
2.99986
2.99957
2.99917
2.99752
2.99518
2.98594
2.9716
2.92245
2.81972
2.56668
1.97325
1.09604
0.60062
0.544574
0.556103
0.562606
0.559229
0.562641
0.584503
0.63721
0.735043
0.899766
3
2.99999
2.99995
2.99988
2.99964
2.9993
2.99791
2.99593
2.98832
2.97587
2.93487
2.84342
2.63119
2.08499
1.25183
0.685633
0.562075
0.577668
0.594155
0.600777
0.611594
0.640492
0.698154
0.790645
0.924573
3
2.99999
2.99996
2.9999
2.9997
2.99941