/*--------------------------------*- C++ -*----------------------------------*\
| =========                 |                                                 |
| \\      /  F ield         | OpenFOAM: The Open Source CFD Toolbox           |
|  \\    /   O peration     | Version:  4.1                                   |
|   \\  /    A nd           | Web:      www.OpenFOAM.org                      |
|    \\/     M anipulation  |                                                 |
\*---------------------------------------------------------------------------*/
FoamFile
{
    version     2.0;
    format      ascii;
    class       volScalarField;
    location    "8";
    object      p;
}
// * * * * * * * * * * * * * * * * * * * * * * * * * * * * * * * * * * * * * //

dimensions      [1 -1 -2 0 0 0 0];

internalField   nonuniform List<scalar> 
52500
(
1.00001
1.00004
1.00013
1.00028
1.0008
1.00165
1.00469
1.00936
1.02799
1.05211
1.17931
1.33477
2.22547
3.98138
9.6701
11.4174
11.2357
11.1283
11.2069
11.4241
11.6612
11.8146
11.9314
12.0246
12.098
1.00001
1.00004
1.00013
1.00027
1.00079
1.00163
1.00463
1.00925
1.0277
1.05149
1.17763
1.33042
2.21345
3.94703
9.58756
11.4116
11.2274
11.116
11.1956
11.414
11.6508
11.8042
11.9227
12.0175
12.0924
1.00001
1.00004
1.00012
1.00027
1.00078
1.00159
1.00453
1.00904
1.02709
1.05023
1.17407
1.32154
2.18766
3.87356
9.40385
11.3987
11.2064
11.082
11.1607
11.3774
11.611
11.7612
11.8788
11.9723
12.0464
1.00001
1.00003
1.00012
1.00026
1.00075
1.00153
1.00436
1.0087
1.02616
1.04829
1.16868
1.30817
2.14814
3.76165
9.11694
11.3842
11.1759
11.0272
11.1028
11.3137
11.5412
11.6856
11.7989
11.8893
11.963
1.00001
1.00003
1.00011
1.00024
1.00071
1.00145
1.00413
1.00817
1.02496
1.0451
1.16204
1.29007
2.09568
3.61132
8.72268
11.3702
11.1366
10.9533
11.0243
11.2265
11.4448
11.5806
11.6875
11.7735
11.8473
1.00001
1.00003
1.0001
1.00023
1.00066
1.00135
1.00386
1.0076
1.02344
1.0419
1.15224
1.26821
2.03371
3.41916
8.21941
11.3611
11.0901
10.8607
10.9251
11.1144
11.3197
11.4426
11.538
11.6151
11.6888
1.00001
1.00003
1.0001
1.00021
1.00061
1.00125
1.00358
1.00705
1.02165
1.03879
1.14037
1.24631
1.94384
3.19482
7.59242
11.3604
11.0432
10.7524
10.8076
10.9775
11.1634
11.2661
11.3418
11.4001
11.4656
1.00001
1.00002
1.00009
1.00019
1.00056
1.00116
1.00329
1.00661
1.01958
1.0367
1.12456
1.2256
1.83215
2.9415
6.84443
11.3542
10.9973
10.6319
10.6744
10.8173
10.9753
11.0473
11.0887
11.1087
11.1461
1
1.00002
1.00008
1.00017
1.00051
1.00104
1.00296
1.00599
1.01736
1.034
1.10753
1.20334
1.71325
2.67027
6.00082
11.2917
10.9323
10.5043
10.5287
10.6321
10.7509
10.7788
10.7655
10.7077
10.6499
1
1.00002
1.00007
1.00015
1.00044
1.00091
1.0026
1.00525
1.01521
1.02993
1.09313
1.17977
1.6084
2.42604
5.25317
11.01
10.7911
10.3847
10.3713
10.4222
10.4846
10.4614
10.3652
10.1444
9.81039
1.00001
1.00004
1.00013
1.00028
1.00081
1.00165
1.00469
1.00937
1.028
1.05213
1.17933
1.33485
2.22555
3.98173
9.67079
11.4174
11.2357
11.1284
11.207
11.4243
11.6614
11.8148
11.9315
12.0247
12.0981
1.00001
1.00004
1.00013
1.00028
1.0008
1.00163
1.00464
1.00926
1.02771
1.05151
1.17764
1.3305
2.21353
3.94738
9.58824
11.4117
11.2275
11.1162
11.1957
11.4141
11.651
11.8043
11.9228
12.0176
12.0926
1.00001
1.00004
1.00013
1.00027
1.00078
1.0016
1.00454
1.00905
1.0271
1.05025
1.17408
1.32162
2.18774
3.87391
9.40456
11.3987
11.2065
11.0821
11.1609
11.3775
11.6111
11.7613
11.8789
11.9725
12.0465
1.00001
1.00004
1.00012
1.00026
1.00075
1.00154
1.00437
1.00871
1.02617
1.04832
1.16869
1.30826
2.14821
3.76199
9.11764
11.3842
11.1759
11.0273
11.1029
11.3139
11.5413
11.6857
11.799
11.8894
11.9631
1.00001
1.00003
1.00012
1.00025
1.00071
1.00145
1.00414
1.00818
1.02498
1.04512
1.16207
1.29013
2.09578
3.61167
8.72343
11.3702
11.1367
10.9534
11.0244
11.2266
11.4449
11.5807
11.6876
11.7736
11.8474
1.00001
1.00003
1.00011
1.00023
1.00066
1.00136
1.00387
1.00762
1.02345
1.04192
1.15227
1.26827
2.03381
3.41952
8.22019
11.361
11.0901
10.8608
10.9252
11.1145
11.3198
11.4427
11.5381
11.6152
11.6889
1.00001
1.00003
1.0001
1.00022
1.00062
1.00126
1.00359
1.00706
1.02167
1.03881
1.14039
1.24637
1.94395
3.19517
7.59325
11.3603
11.0432
10.7525
10.8076
10.9776
11.1635
11.2662
11.3419
11.4002
11.4657
1.00001
1.00003
1.00009
1.0002
1.00057
1.00117
1.0033
1.00662
1.01959
1.03672
1.12457
1.22568
1.83222
2.94182
6.84524
11.3541
10.9973
10.632
10.6745
10.8174
10.9753
11.0474
11.0888
11.1088
11.1462
1.00001
1.00003
1.00008
1.00018
1.00051
1.00105
1.00297
1.006
1.01737
1.03402
1.10755
1.20339
1.71334
2.67056
6.00161
11.2918
10.9324
10.5044
10.5288
10.6322
10.751
10.7789
10.7656
10.7078
10.65
1
1.00002
1.00007
1.00016
1.00045
1.00092
1.00261
1.00526
1.01522
1.02995
1.09315
1.17982
1.60846
2.42625
5.25362
11.0103
10.7912
10.3848
10.3713
10.4223
10.4847
10.4615
10.3653
10.1445
9.81046
1.00001
1.00004
1.00013
1.00028
1.00081
1.00165
1.00469
1.00937
1.028
1.05213
1.17933
1.33485
2.22556
3.98176
9.67084
11.4174
11.2357
11.1284
11.207
11.4243
11.6614
11.8148
11.9315
12.0247
12.0981
1.00001
1.00004
1.00013
1.00028
1.0008
1.00163
1.00464
1.00926
1.02771
1.05151
1.17764
1.3305
2.21354
3.9474
9.5883
11.4117
11.2275
11.1162
11.1957
11.4141
11.651
11.8044
11.9228
12.0176
12.0926
1.00001
1.00004
1.00013
1.00027
1.00078
1.0016
1.00454
1.00905
1.0271
1.05025
1.17408
1.32162
2.18775
3.87393
9.40461
11.3987
11.2065
11.0821
11.1609
11.3775
11.6111
11.7613
11.8789
11.9725
12.0465
1.00001
1.00004
1.00012
1.00026
1.00075
1.00154
1.00437
1.00871
1.02617
1.04832
1.16869
1.30827
2.14822
3.76202
9.1177
11.3842
11.1759
11.0273
11.1029
11.3139
11.5413
11.6858
11.799
11.8894
11.9631
1.00001
1.00003
1.00012
1.00025
1.00071
1.00145
1.00414
1.00818
1.02498
1.04512
1.16207
1.29014
2.09578
3.61169
8.72349
11.3702
11.1367
10.9534
11.0245
11.2266
11.4449
11.5807
11.6876
11.7736
11.8474
1.00001
1.00003
1.00011
1.00023
1.00066
1.00136
1.00387
1.00762
1.02345
1.04192
1.15227
1.26827
2.03381
3.41954
8.22025
11.361
11.0901
10.8608
10.9253
11.1145
11.3198
11.4427
11.5381
11.6152
11.6889
1.00001
1.00003
1.0001
1.00022
1.00062
1.00126
1.00359
1.00706
1.02167
1.03881
1.1404
1.24637
1.94396
3.19519
7.59331
11.3603
11.0432
10.7525
10.8077
10.9776
11.1635
11.2662
11.3419
11.4003
11.4657
1.00001
1.00003
1.00009
1.0002
1.00057
1.00117
1.0033
1.00662
1.01959
1.03672
1.12457
1.22568
1.83224
2.94185
6.84531
11.3541
10.9973
10.632
10.6745
10.8174
10.9754
11.0474
11.0888
11.1088
11.1462
1.00001
1.00003
1.00008
1.00018
1.00051
1.00105
1.00297
1.006
1.01737
1.03402
1.10755
1.20339
1.71335
2.67058
6.00168
11.2918
10.9324
10.5044
10.5288
10.6322
10.751
10.7789
10.7656
10.7078
10.65
1
1.00002
1.00007
1.00016
1.00045
1.00092
1.00261
1.00526
1.01522
1.02995
1.09315
1.17983
1.60847
2.42626
5.25365
11.0103
10.7912
10.3848
10.3713
10.4223
10.4847
10.4615
10.3653
10.1445
9.81047
1.00001
1.00004
1.00013
1.00028
1.00081
1.00165
1.00469
1.00937
1.028
1.05213
1.17933
1.33485
2.22556
3.98176
9.67085
11.4174
11.2357
11.1284
11.207
11.4243
11.6614
11.8148
11.9315
12.0247
12.0981
1.00001
1.00004
1.00013
1.00028
1.0008
1.00163
1.00464
1.00926
1.02771
1.05151
1.17764
1.33051
2.21354
3.9474
9.58831
11.4117
11.2275
11.1162
11.1957
11.4141
11.651
11.8044
11.9228
12.0176
12.0926
1.00001
1.00004
1.00013
1.00027
1.00078
1.0016
1.00454
1.00905
1.0271
1.05025
1.17408
1.32162
2.18775
3.87393
9.40462
11.3987
11.2065
11.0821
11.1609
11.3775
11.6111
11.7613
11.8789
11.9725
12.0465
1.00001
1.00004
1.00012
1.00026
1.00075
1.00154
1.00437
1.00871
1.02617
1.04832
1.16869
1.30827
2.14822
3.76202
9.11771
11.3842
11.1759
11.0273
11.1029
11.3139
11.5413
11.6858
11.799
11.8894
11.9631
1.00001
1.00003
1.00012
1.00025
1.00071
1.00145
1.00414
1.00818
1.02498
1.04512
1.16207
1.29014
2.09578
3.6117
8.72349
11.3702
11.1367
10.9534
11.0245
11.2266
11.4449
11.5807
11.6876
11.7736
11.8474
1.00001
1.00003
1.00011
1.00023
1.00066
1.00136
1.00387
1.00762
1.02345
1.04192
1.15227
1.26827
2.03382
3.41955
8.22026
11.361
11.0901
10.8608
10.9253
11.1145
11.3198
11.4427
11.5381
11.6152
11.6889
1.00001
1.00003
1.0001
1.00022
1.00062
1.00126
1.00359
1.00706
1.02167
1.03881
1.1404
1.24637
1.94396
3.19519
7.59332
11.3603
11.0432
10.7525
10.8077
10.9776
11.1635
11.2662
11.3419
11.4003
11.4657
1.00001
1.00003
1.00009
1.0002
1.00057
1.00117
1.0033
1.00662
1.01959
1.03672
1.12457
1.22568
1.83224
2.94185
6.84531
11.3541
10.9973
10.632
10.6745
10.8174
10.9754
11.0474
11.0888
11.1088
11.1463
1.00001
1.00003
1.00008
1.00018
1.00051
1.00105
1.00297
1.006
1.01737
1.03402
1.10755
1.20339
1.71335
2.67058
6.00168
11.2918
10.9324
10.5044
10.5288
10.6322
10.751
10.7789
10.7656
10.7078
10.65
1
1.00002
1.00007
1.00016
1.00045
1.00092
1.00261
1.00526
1.01522
1.02995
1.09315
1.17983
1.60847
2.42626
5.25366
11.0103
10.7912
10.3848
10.3713
10.4223
10.4847
10.4615
10.3653
10.1445
9.81047
1.00001
1.00004
1.00013
1.00028
1.00081
1.00165
1.00469
1.00937
1.028
1.05213
1.17933
1.33485
2.22556
3.98176
9.67086
11.4174
11.2357
11.1284
11.207
11.4243
11.6614
11.8148
11.9315
12.0247
12.0981
1.00001
1.00004
1.00013
1.00028
1.0008
1.00163
1.00464
1.00926
1.02771
1.05151
1.17764
1.33051
2.21354
3.94741
9.58832
11.4117
11.2275
11.1162
11.1957
11.4141
11.651
11.8044
11.9228
12.0176
12.0926
1.00001
1.00004
1.00013
1.00027
1.00078
1.0016
1.00454
1.00905
1.0271
1.05025
1.17408
1.32162
2.18775
3.87394
9.40463
11.3987
11.2065
11.0821
11.1609
11.3775
11.6111
11.7613
11.8789
11.9725
12.0465
1.00001
1.00004
1.00012
1.00026
1.00075
1.00154
1.00437
1.00871
1.02617
1.04832
1.16869
1.30827
2.14822
3.76202
9.11772
11.3842
11.1759
11.0273
11.1029
11.3139
11.5413
11.6858
11.799
11.8894
11.9631
1.00001
1.00003
1.00012
1.00025
1.00071
1.00145
1.00414
1.00818
1.02498
1.04512
1.16207
1.29014
2.09579
3.6117
8.7235
11.3702
11.1367
10.9534
11.0245
11.2266
11.4449
11.5807
11.6876
11.7736
11.8474
1.00001
1.00003
1.00011
1.00023
1.00066
1.00136
1.00387
1.00762
1.02345
1.04192
1.15227
1.26827
2.03382
3.41955
8.22027
11.361
11.0901
10.8608
10.9253
11.1145
11.3198
11.4428
11.5381
11.6152
11.6889
1.00001
1.00003
1.0001
1.00022
1.00062
1.00126
1.00359
1.00706
1.02167
1.03881
1.1404
1.24637
1.94396
3.1952
7.59333
11.3603
11.0432
10.7525
10.8077
10.9776
11.1635
11.2662
11.3419
11.4003
11.4658
1.00001
1.00003
1.00009
1.0002
1.00057
1.00117
1.0033
1.00662
1.01959
1.03672
1.12457
1.22568
1.83224
2.94185
6.84532
11.3541
10.9973
10.632
10.6745
10.8174
10.9754
11.0474
11.0888
11.1088
11.1463
1.00001
1.00003
1.00008
1.00018
1.00051
1.00105
1.00297
1.006
1.01737
1.03402
1.10755
1.20339
1.71335
2.67058
6.0017
11.2918
10.9324
10.5044
10.5288
10.6322
10.751
10.7789
10.7656
10.7078
10.65
1
1.00002
1.00007
1.00016
1.00045
1.00092
1.00261
1.00526
1.01522
1.02995
1.09315
1.17983
1.60847
2.42626
5.25366
11.0103
10.7912
10.3848
10.3713
10.4223
10.4847
10.4615
10.3653
10.1445
9.81047
1.00001
1.00004
1.00013
1.00028
1.00081
1.00165
1.00469
1.00937
1.028
1.05213
1.17933
1.33485
2.22556
3.98176
9.67086
11.4174
11.2357
11.1284
11.207
11.4243
11.6614
11.8148
11.9315
12.0247
12.0981
1.00001
1.00004
1.00013
1.00028
1.0008
1.00163
1.00464
1.00926
1.02771
1.05151
1.17764
1.33051
2.21354
3.94741
9.58832
11.4117
11.2275
11.1162
11.1957
11.4141
11.651
11.8044
11.9228
12.0176
12.0926
1.00001
1.00004
1.00013
1.00027
1.00078
1.0016
1.00454
1.00905
1.0271
1.05025
1.17408
1.32162
2.18776
3.87394
9.40463
11.3987
11.2065
11.0821
11.1609
11.3775
11.6111
11.7613
11.8789
11.9725
12.0465
1.00001
1.00004
1.00012
1.00026
1.00075
1.00154
1.00437
1.00871
1.02617
1.04832
1.16869
1.30827
2.14822
3.76203
9.11772
11.3842
11.1759
11.0273
11.1029
11.3139
11.5413
11.6858
11.799
11.8894
11.9631
1.00001
1.00003
1.00012
1.00025
1.00071
1.00145
1.00414
1.00818
1.02498
1.04512
1.16207
1.29014
2.09579
3.6117
8.72351
11.3702
11.1367
10.9534
11.0245
11.2266
11.4449
11.5807
11.6876
11.7736
11.8474
1.00001
1.00003
1.00011
1.00023
1.00066
1.00136
1.00387
1.00762
1.02345
1.04192
1.15227
1.26827
2.03382
3.41955
8.22027
11.361
11.0901
10.8608
10.9253
11.1145
11.3198
11.4428
11.5381
11.6152
11.6889
1.00001
1.00003
1.0001
1.00022
1.00062
1.00126
1.00359
1.00706
1.02167
1.03881
1.1404
1.24637
1.94396
3.1952
7.59333
11.3603
11.0432
10.7525
10.8077
10.9776
11.1635
11.2662
11.3419
11.4003
11.4658
1.00001
1.00003
1.00009
1.0002
1.00057
1.00117
1.0033
1.00662
1.01959
1.03672
1.12457
1.22568
1.83224
2.94185
6.84533
11.3541
10.9973
10.632
10.6745
10.8174
10.9754
11.0474
11.0888
11.1088
11.1463
1.00001
1.00003
1.00008
1.00018
1.00051
1.00105
1.00297
1.006
1.01737
1.03402
1.10755
1.20339
1.71335
2.67059
6.0017
11.2918
10.9324
10.5044
10.5288
10.6322
10.751
10.7789
10.7656
10.7078
10.65
1
1.00002
1.00007
1.00016
1.00045
1.00092
1.00261
1.00526
1.01522
1.02995
1.09315
1.17983
1.60847
2.42626
5.25366
11.0103
10.7912
10.3848
10.3713
10.4223
10.4847
10.4615
10.3653
10.1445
9.81047
1.00001
1.00004
1.00013
1.00028
1.00081
1.00165
1.00469
1.00937
1.028
1.05213
1.17933
1.33485
2.22556
3.98176
9.67085
11.4174
11.2357
11.1284
11.207
11.4243
11.6614
11.8148
11.9315
12.0247
12.0981
1.00001
1.00004
1.00013
1.00028
1.0008
1.00163
1.00464
1.00926
1.02771
1.05151
1.17764
1.33051
2.21354
3.9474
9.58831
11.4117
11.2275
11.1162
11.1957
11.4141
11.651
11.8044
11.9228
12.0176
12.0926
1.00001
1.00004
1.00013
1.00027
1.00078
1.0016
1.00454
1.00905
1.0271
1.05025
1.17408
1.32162
2.18775
3.87393
9.40462
11.3987
11.2065
11.0821
11.1609
11.3775
11.6111
11.7613
11.8789
11.9725
12.0465
1.00001
1.00004
1.00012
1.00026
1.00075
1.00154
1.00437
1.00871
1.02617
1.04832
1.16869
1.30827
2.14822
3.76202
9.11771
11.3842
11.1759
11.0273
11.1029
11.3139
11.5413
11.6858
11.799
11.8894
11.9631
1.00001
1.00003
1.00012
1.00025
1.00071
1.00145
1.00414
1.00818
1.02498
1.04512
1.16207
1.29014
2.09579
3.6117
8.7235
11.3702
11.1367
10.9534
11.0245
11.2266
11.4449
11.5807
11.6876
11.7736
11.8474
1.00001
1.00003
1.00011
1.00023
1.00066
1.00136
1.00387
1.00762
1.02345
1.04192
1.15227
1.26827
2.03382
3.41955
8.22026
11.361
11.0901
10.8608
10.9253
11.1145
11.3198
11.4427
11.5381
11.6152
11.6889
1.00001
1.00003
1.0001
1.00022
1.00062
1.00126
1.00359
1.00706
1.02167
1.03881
1.1404
1.24637
1.94396
3.19519
7.59333
11.3603
11.0432
10.7525
10.8077
10.9776
11.1635
11.2662
11.3419
11.4003
11.4658
1.00001
1.00003
1.00009
1.0002
1.00057
1.00117
1.0033
1.00662
1.01959
1.03672
1.12457
1.22568
1.83224
2.94185
6.84532
11.3541
10.9973
10.632
10.6745
10.8174
10.9754
11.0474
11.0888
11.1088
11.1463
1.00001
1.00003
1.00008
1.00018
1.00051
1.00105
1.00297
1.006
1.01737
1.03402
1.10755
1.20339
1.71335
2.67058
6.00169
11.2918
10.9324
10.5044
10.5288
10.6322
10.751
10.7789
10.7656
10.7078
10.65
1
1.00002
1.00007
1.00016
1.00045
1.00092
1.00261
1.00526
1.01522
1.02995
1.09315
1.17983
1.60847
2.42626
5.25366
11.0103
10.7912
10.3848
10.3713
10.4223
10.4847
10.4615
10.3653
10.1445
9.81047
1.00001
1.00004
1.00013
1.00028
1.00081
1.00165
1.00469
1.00937
1.028
1.05213
1.17933
1.33485
2.22556
3.98176
9.67084
11.4174
11.2357
11.1284
11.207
11.4243
11.6614
11.8148
11.9315
12.0247
12.0981
1.00001
1.00004
1.00013
1.00028
1.0008
1.00163
1.00464
1.00926
1.02771
1.05151
1.17764
1.3305
2.21354
3.9474
9.5883
11.4117
11.2275
11.1162
11.1957
11.4141
11.651
11.8044
11.9228
12.0176
12.0926
1.00001
1.00004
1.00013
1.00027
1.00078
1.0016
1.00454
1.00905
1.0271
1.05025
1.17408
1.32162
2.18775
3.87393
9.40462
11.3987
11.2065
11.0821
11.1609
11.3775
11.6111
11.7613
11.8789
11.9725
12.0465
1.00001
1.00004
1.00012
1.00026
1.00075
1.00154
1.00437
1.00871
1.02617
1.04832
1.16869
1.30827
2.14822
3.76202
9.1177
11.3842
11.1759
11.0273
11.1029
11.3139
11.5413
11.6858
11.799
11.8894
11.9631
1.00001
1.00003
1.00012
1.00025
1.00071
1.00145
1.00414
1.00818
1.02498
1.04512
1.16207
1.29014
2.09578
3.61169
8.72349
11.3702
11.1367
10.9534
11.0245
11.2266
11.4449
11.5807
11.6876
11.7736
11.8474
1.00001
1.00003
1.00011
1.00023
1.00066
1.00136
1.00387
1.00762
1.02345
1.04192
1.15227
1.26827
2.03381
3.41954
8.22025
11.361
11.0901
10.8608
10.9253
11.1145
11.3198
11.4427
11.5381
11.6152
11.6889
1.00001
1.00003
1.0001
1.00022
1.00062
1.00126
1.00359
1.00706
1.02167
1.03881
1.1404
1.24637
1.94396
3.19519
7.59332
11.3603
11.0432
10.7525
10.8077
10.9776
11.1635
11.2662
11.3419
11.4003
11.4657
1.00001
1.00003
1.00009
1.0002
1.00057
1.00117
1.0033
1.00662
1.01959
1.03672
1.12457
1.22568
1.83224
2.94185
6.84531
11.3541
10.9973
10.632
10.6745
10.8174
10.9754
11.0474
11.0888
11.1088
11.1462
1.00001
1.00003
1.00008
1.00018
1.00051
1.00105
1.00297
1.006
1.01737
1.03402
1.10755
1.20339
1.71335
2.67058
6.00168
11.2918
10.9324
10.5044
10.5288
10.6322
10.751
10.7789
10.7656
10.7078
10.65
1
1.00002
1.00007
1.00016
1.00045
1.00092
1.00261
1.00526
1.01522
1.02995
1.09315
1.17983
1.60847
2.42626
5.25365
11.0103
10.7912
10.3848
10.3713
10.4223
10.4847
10.4615
10.3653
10.1445
9.81047
1.00001
1.00004
1.00013
1.00028
1.00081
1.00165
1.00469
1.00937
1.028
1.05213
1.17933
1.33485
2.22555
3.98173
9.67079
11.4174
11.2357
11.1284
11.207
11.4243
11.6614
11.8148
11.9315
12.0247
12.0981
1.00001
1.00004
1.00013
1.00028
1.0008
1.00163
1.00464
1.00926
1.02771
1.05151
1.17764
1.3305
2.21353
3.94738
9.58824
11.4117
11.2275
11.1162
11.1957
11.4141
11.651
11.8043
11.9228
12.0176
12.0926
1.00001
1.00004
1.00013
1.00027
1.00078
1.0016
1.00454
1.00905
1.0271
1.05025
1.17408
1.32162
2.18774
3.87391
9.40456
11.3987
11.2065
11.0821
11.1609
11.3775
11.6111
11.7613
11.8789
11.9725
12.0465
1.00001
1.00004
1.00012
1.00026
1.00075
1.00154
1.00437
1.00871
1.02617
1.04832
1.16869
1.30826
2.14821
3.76199
9.11764
11.3842
11.1759
11.0273
11.1029
11.3139
11.5413
11.6857
11.799
11.8894
11.9631
1.00001
1.00003
1.00012
1.00025
1.00071
1.00145
1.00414
1.00818
1.02498
1.04512
1.16207
1.29013
2.09578
3.61167
8.72343
11.3702
11.1367
10.9534
11.0244
11.2266
11.4449
11.5807
11.6876
11.7736
11.8474
1.00001
1.00003
1.00011
1.00023
1.00066
1.00136
1.00387
1.00762
1.02345
1.04192
1.15227
1.26827
2.03381
3.41952
8.22019
11.361
11.0901
10.8608
10.9252
11.1145
11.3198
11.4427
11.5381
11.6152
11.6889
1.00001
1.00003
1.0001
1.00022
1.00062
1.00126
1.00359
1.00706
1.02167
1.03881
1.14039
1.24637
1.94395
3.19517
7.59325
11.3603
11.0432
10.7525
10.8076
10.9776
11.1635
11.2662
11.3419
11.4002
11.4657
1.00001
1.00003
1.00009
1.0002
1.00057
1.00117
1.0033
1.00662
1.01959
1.03672
1.12457
1.22568
1.83222
2.94182
6.84524
11.3541
10.9973
10.632
10.6745
10.8174
10.9753
11.0474
11.0888
11.1088
11.1462
1.00001
1.00003
1.00008
1.00018
1.00051
1.00105
1.00297
1.006
1.01737
1.03402
1.10755
1.20339
1.71334
2.67056
6.00161
11.2918
10.9324
10.5044
10.5288
10.6322
10.751
10.7789
10.7656
10.7078
10.65
1
1.00002
1.00007
1.00016
1.00045
1.00092
1.00261
1.00526
1.01522
1.02995
1.09315
1.17982
1.60846
2.42625
5.25362
11.0103
10.7912
10.3848
10.3713
10.4223
10.4847
10.4615
10.3653
10.1445
9.81046
1.00001
1.00004
1.00013
1.00028
1.0008
1.00165
1.00469
1.00936
1.02799
1.05211
1.17931
1.33477
2.22547
3.98138
9.6701
11.4174
11.2357
11.1283
11.2069
11.4241
11.6612
11.8146
11.9314
12.0246
12.098
1.00001
1.00004
1.00013
1.00027
1.00079
1.00163
1.00463
1.00925
1.0277
1.05149
1.17763
1.33042
2.21345
3.94703
9.58755
11.4116
11.2274
11.116
11.1956
11.414
11.6508
11.8042
11.9227
12.0175
12.0924
1.00001
1.00004
1.00012
1.00027
1.00078
1.00159
1.00453
1.00904
1.02709
1.05023
1.17407
1.32154
2.18766
3.87356
9.40385
11.3987
11.2064
11.082
11.1607
11.3774
11.611
11.7612
11.8788
11.9723
12.0464
1.00001
1.00003
1.00012
1.00026
1.00075
1.00153
1.00436
1.0087
1.02616
1.04829
1.16868
1.30817
2.14814
3.76165
9.11693
11.3842
11.1759
11.0272
11.1028
11.3137
11.5412
11.6856
11.7989
11.8893
11.963
1.00001
1.00003
1.00011
1.00024
1.00071
1.00145
1.00413
1.00817
1.02496
1.0451
1.16204
1.29007
2.09568
3.61132
8.72268
11.3702
11.1366
10.9533
11.0243
11.2265
11.4448
11.5806
11.6875
11.7735
11.8473
1.00001
1.00003
1.0001
1.00023
1.00066
1.00135
1.00386
1.0076
1.02344
1.0419
1.15224
1.26821
2.03371
3.41916
8.2194
11.3611
11.0901
10.8607
10.9251
11.1144
11.3197
11.4426
11.538
11.6151
11.6888
1.00001
1.00003
1.0001
1.00021
1.00061
1.00125
1.00358
1.00705
1.02165
1.03879
1.14037
1.24631
1.94384
3.19482
7.59241
11.3604
11.0432
10.7524
10.8076
10.9775
11.1634
11.2661
11.3418
11.4001
11.4656
1.00001
1.00002
1.00009
1.00019
1.00056
1.00116
1.00329
1.00661
1.01958
1.0367
1.12456
1.2256
1.83215
2.94149
6.84443
11.3542
10.9973
10.6319
10.6744
10.8173
10.9753
11.0473
11.0887
11.1087
11.1461
1
1.00002
1.00008
1.00017
1.00051
1.00104
1.00296
1.00599
1.01736
1.034
1.10753
1.20334
1.71325
2.67026
6.00082
11.2917
10.9323
10.5043
10.5287
10.6321
10.7509
10.7788
10.7655
10.7077
10.6499
1
1.00002
1.00007
1.00015
1.00044
1.00091
1.0026
1.00525
1.01521
1.02993
1.09313
1.17977
1.6084
2.42604
5.25317
11.01
10.791
10.3847
10.3713
10.4222
10.4846
10.4614
10.3652
10.1444
9.81039
1
1.00002
1.00005
1.00015
1.00032
1.00093
1.00188
1.00539
1.01057
1.03281
1.05862
1.21069
1.39889
2.40917
4.51977
10.3688
10.5135
10.3172
10.191
10.1971
10.1869
10.1008
9.85165
9.27948
7.84973
1
1.00002
1.00004
1.00014
1.00029
1.00082
1.00167
1.00475
1.00952
1.02824
1.05315
1.17931
1.34056
2.21793
3.95499
9.31533
10.3383
10.2121
10.0108
9.9595
9.88695
9.713
9.32951
8.56594
7.12405
1
1.00001
1.00004
1.00011
1.00024
1.00069
1.00141
1.00402
1.00794
1.02417
1.04364
1.15601
1.27812
2.04493
3.45832
8.12614
10.2142
10.1009
9.847
9.71829
9.59462
9.34502
8.87961
8.12025
6.9911
1
1.00001
1.00003
1.0001
1.0002
1.00058
1.00118
1.00337
1.00664
1.02025
1.03633
1.13031
1.22799
1.86256
2.98376
6.84009
10.1176
9.99625
9.699
9.48699
9.31209
9.02322
8.55015
7.86192
6.97687
1
1.00001
1.00002
1.00008
1.00017
1.00048
1.00099
1.00282
1.00568
1.01647
1.03236
1.10124
1.19477
1.66359
2.54764
5.51017
9.92806
9.85991
9.58899
9.28255
9.05757
8.75595
8.30615
7.69175
6.95215
1
1.00001
1.00002
1.00005
1.00016
1.00032
1.00092
1.00186
1.00533
1.01044
1.03229
1.05783
1.20508
1.39334
2.3371
4.31505
9.39033
9.65826
9.47516
9.11003
8.84051
8.53128
8.1127
7.56413
6.91875
1
1
1.00002
1.00004
1.00013
1.00026
1.00075
1.00154
1.00435
1.00871
1.02575
1.04832
1.16319
1.30299
2.08973
3.5808
8.14515
9.39175
9.27451
8.97964
8.65829
8.33912
7.94723
7.45565
6.88577
1
1
1.00001
1.00003
1.00009
1.0002
1.00057
1.00117
1.00334
1.00653
1.02023
1.03587
1.12985
1.22737
1.85896
2.95909
6.6301
9.17806
9.11427
8.8836
8.51513
8.18197
7.80798
7.36218
6.85027
0.999998
1
1.00001
1.00003
1.00006
1.00017
1.00036
1.00103
1.00202
1.00622
1.01095
1.03927
1.0645
1.24415
1.48538
2.55585
4.95759
8.88221
8.98716
8.81471
8.43269
8.05547
7.69058
7.28127
6.81761
0.999997
0.999998
1
1.00002
1.00004
1.00014
1.00029
1.00081
1.00166
1.00471
1.00934
1.0282
1.05169
1.17892
1.33355
2.16874
3.75446
8.14317
8.82522
8.6905
8.36036
7.94994
7.58832
7.20847
6.78854
0.999995
0.999996
1
1.00001
1.00004
1.00008
1.00024
1.00049
1.00142
1.00275
1.00857
1.0149
1.05429
1.08913
1.34324
1.69116
3.22628
6.563
8.55649
8.50542
8.29105
7.87203
7.50549
7.1481
6.76564
0.999994
0.999995
0.999998
1
1.00003
1.00006
1.00018
1.00038
1.00109
1.00221
1.00631
1.01225
1.03847
1.06759
1.24391
1.47476
2.5483
4.83491
8.17886
8.35552
8.21205
7.8637
7.45946
7.10365
6.74813
0.999993
0.999994
0.999995
1
1.00001
1.00005
1.00011
1.00033
1.00068
1.00193
1.00391
1.0112
1.0222
1.06652
1.13271
1.41149
1.94693
3.63488
7.29986
8.18583
8.09709
7.8425
7.44377
7.0782
6.73951
0.999992
0.999993
0.999994
0.999999
1.00001
1.00003
1.00008
1.00024
1.00049
1.00137
1.00278
1.00793
1.0154
1.04814
1.08553
1.3028
1.61478
2.92012
5.72959
7.94494
7.93865
7.79586
7.45767
7.07851
6.74164
0.999992
0.999992
0.999993
0.999996
1
1.00002
1.00006
1.00014
1.0004
1.00083
1.00232
1.00469
1.01337
1.02638
1.07907
1.15678
1.48596
2.11199
3.94324
7.45201
7.85346
7.74795
7.47796
7.08924
6.75308
0.999991
0.999992
0.999993
0.999994
1
1.00001
1.00004
1.0001
1.00028
1.00058
1.00163
1.0033
1.00931
1.01838
1.0554
1.10378
1.34121
1.74509
3.15735
6.27151
7.66134
7.63388
7.4714
7.12447
6.78526
0.999991
0.999991
0.999992
0.999993
0.999996
1.00001
1.00002
1.00008
1.00016
1.00047
1.00096
1.00269
1.00542
1.0155
1.03012
1.09339
1.17769
1.58211
2.31876
4.54052
7.25302
7.52243
7.43505
7.19983
6.85906
0.999991
0.999991
0.999991
0.999992
0.999994
1
1.00001
1.00005
1.00011
1.00032
1.00066
1.00185
1.00374
1.01053
1.0211
1.06089
1.12491
1.36896
1.83549
3.28177
6.31952
7.36632
7.35011
7.24236
7.00517
0.999991
0.999991
0.999991
0.999992
0.999993
0.999996
1.00001
1.00002
1.00008
1.00018
1.00051
1.00105
1.00292
1.00587
1.01683
1.03223
1.10206
1.19025
1.6337
2.41269
4.75975
7.03069
7.32347
7.29158
7.19608
0.999991
0.999991
0.999991
0.999991
0.999992
0.999995
1
1.00002
1.00004
1.00014
1.00029
1.0008
1.00163
1.00454
1.009
1.02647
1.04882
1.16097
1.30469
1.97284
3.21496
6.29806
7.25019
7.40473
7.4498
0.999991
0.999991
0.999991
0.999991
0.999991
0.999993
0.999997
1.00001
1.00003
1.00009
1.00019
1.00053
1.00109
1.00304
1.00613
1.01733
1.03395
1.10389
1.19611
1.64671
2.42955
4.76605
7.00261
7.6183
7.86211
0.999991
0.99999
0.99999
0.999991
0.999991
0.999992
0.999995
1
1.00002
1.00005
1.00014
1.0003
1.00083
1.00168
1.00467
1.00934
1.02698
1.05106
1.1618
1.3179
1.98351
3.24736
6.38399
7.88259
8.5643
0.999991
0.99999
0.99999
0.99999
0.999991
0.999991
0.999994
0.999997
1.00001
1.00003
1.00009
1.0002
1.00056
1.00115
1.00319
1.00643
1.01814
1.03552
1.109
1.20396
1.68148
2.50827
4.99224
7.9899
9.60564
0.999991
0.99999
0.99999
0.99999
0.999991
0.999991
0.999993
0.999995
1
1.00002
1.00006
1.00014
1.00039
1.00081
1.00224
1.00454
1.01276
1.02537
1.07454
1.14963
1.45793
2.04573
3.8821
7.85052
10.8601
0.999991
0.99999
0.99999
0.99999
0.999991
0.999991
0.999992
0.999994
1
1.00001
1.00004
1.0001
1.00028
1.00059
1.00165
1.00331
1.00964
1.01809
1.05975
1.10386
1.38002
1.79855
3.50845
7.42991
11.9241
0.999991
0.99999
0.99999
0.99999
0.99999
0.999991
0.999991
0.999993
0.999997
1.00001
1.00003
1.00009
1.0002
1.00057
1.00115
1.00331
1.00649
1.02005
1.03586
1.12892
1.23002
1.8578
3.01417
6.97296
12.6372
0.999991
0.99999
0.99999
0.99999
0.99999
0.999991
0.999991
0.999992
0.999996
1
1.00003
1.00006
1.00019
1.00039
1.00115
1.00218
1.00715
1.01215
1.0457
1.0749
1.2951
1.6055
3.00655
6.53466
12.9373
0.999991
0.99999
0.99999
0.99999
0.99999
0.999991
0.999991
0.999993
0.999995
1
1.00002
1.00007
1.00016
1.00048
1.00099
1.00284
1.00574
1.01707
1.03271
1.10863
1.20349
1.7326
2.74675
6.37942
12.8726
0.999991
0.99999
0.99999
0.99999
0.99999
0.999991
0.999991
0.999993
0.999995
1
1.00002
1.00007
1.00015
1.00045
1.00093
1.00269
1.00543
1.0162
1.03117
1.10347
1.19432
1.7005
2.66943
6.15884
12.7547
0.999991
0.99999
0.99999
0.99999
0.99999
0.999991
0.999991
0.999992
0.999995
1
1.00002
1.00005
1.00016
1.00033
1.00099
1.00188
1.00621
1.01059
1.04021
1.06554
1.25936
1.52261
2.74623
5.81971
12.5855
0.999991
0.99999
0.99999
0.99999
0.99999
0.999991
0.999991
0.999992
0.999995
1
1.00002
1.00006
1.00014
1.00041
1.00084
1.00246
1.00481
1.01534
1.02712
1.1002
1.17675
1.66303
2.55113
5.78405
12.3784
0.999991
0.99999
0.99999
0.99999
0.99999
0.999991
0.999991
0.999992
0.999995
1
1.00002
1.00005
1.00016
1.00034
1.00098
1.00197
1.00588
1.01106
1.03742
1.06381
1.2445
1.48037
2.64983
5.45732
12.2092
0.999991
0.99999
0.99999
0.99999
0.99999
0.99999
0.999991
0.999992
0.999995
1
1.00002
1.00005
1.00016
1.00033
1.00096
1.00195
1.00574
1.01102
1.03618
1.06267
1.23733
1.46174
2.60732
5.27623
11.9999
0.999991
0.99999
0.99999
0.99999
0.99999
0.999991
0.999991
0.999992
0.999994
1
1.00001
1.00006
1.00013
1.00039
1.00079
1.00233
1.00457
1.01443
1.02571
1.09376
1.16548
1.61294
2.42659
5.37504
11.8025
0.999991
0.99999
0.99999
0.99999
0.99999
0.99999
0.999991
0.999992
0.999995
1
1.00002
1.00005
1.00015
1.00031
1.00091
1.00181
1.00559
1.00999
1.03576
1.05926
1.22913
1.44042
2.54768
5.04567
11.613
0.999991
0.99999
0.99999
0.99999
0.99999
0.999991
0.999991
0.999992
0.999994
1
1.00001
1.00006
1.00013
1.00038
1.00078
1.00228
1.00446
1.01408
1.02503
1.09119
1.16022
1.59184
2.37137
5.19195
11.4824
0.999991
0.99999
0.99999
0.99999
0.99999
0.99999
0.999991
0.999992
0.999995
1
1.00002
1.00005
1.00015
1.00032
1.00093
1.00189
1.00552
1.01076
1.03429
1.06052
1.22369
1.42866
2.51351
4.89486
11.3681
0.999991
0.99999
0.99999
0.99999
0.99999
0.99999
0.999991
0.999992
0.999995
1
1.00002
1.00005
1.00015
1.00032
1.00093
1.0019
1.00552
1.01074
1.03423
1.06029
1.22284
1.42608
2.50545
4.85734
11.2983
0.999991
0.99999
0.99999
0.99999
0.99999
0.999991
0.999991
0.999992
0.999994
1
1.00001
1.00006
1.00013
1.00039
1.0008
1.00229
1.00457
1.01382
1.02546
1.08806
1.15693
1.57364
2.32152
5.06195
11.214
0.999991
0.99999
0.99999
0.99999
0.99999
0.999991
0.999991
0.999992
0.999995
1
1.00002
1.00006
1.00014
1.0004
1.00083
1.00236
1.00478
1.01387
1.02724
1.08603
1.16104
1.56683
2.31304
5.04739
11.1737
1
1.00002
1.00005
1.00016
1.00033
1.00093
1.00189
1.0054
1.01058
1.03282
1.05864
1.21072
1.39898
2.40928
4.5203
10.3695
10.5136
10.3172
10.191
10.1971
10.187
10.1009
9.85172
9.27954
7.84978
1
1.00002
1.00005
1.00014
1.00029
1.00083
1.00168
1.00476
1.00954
1.02825
1.05317
1.17933
1.34065
2.21804
3.95541
9.31608
10.3384
10.2121
10.0108
9.95955
9.88701
9.71306
9.32957
8.566
7.12409
1
1.00002
1.00004
1.00012
1.00025
1.0007
1.00142
1.00403
1.00795
1.02418
1.04366
1.15604
1.27819
2.04504
3.45869
8.12692
10.2142
10.1009
9.84702
9.71833
9.59467
9.34507
8.87966
8.1203
6.99115
1
1.00001
1.00003
1.0001
1.00021
1.00059
1.00119
1.00337
1.00665
1.02026
1.03635
1.13034
1.22805
1.86267
2.9841
6.8409
10.1175
9.99622
9.69902
9.48704
9.31214
9.02327
8.5502
7.86197
6.97691
1
1.00001
1.00003
1.00008
1.00017
1.00049
1.001
1.00282
1.00569
1.01649
1.03238
1.10127
1.19483
1.66369
2.54795
5.51101
9.92812
9.85993
9.58899
9.28258
9.05761
8.75599
8.30619
7.69179
6.95218
1
1.00001
1.00003
1.00006
1.00016
1.00033
1.00093
1.00187
1.00534
1.01045
1.03231
1.05785
1.20511
1.39344
2.33721
4.31559
9.39071
9.65833
9.47521
9.11005
8.84054
8.53132
8.11273
7.56417
6.91878
1
1.00001
1.00002
1.00005
1.00013
1.00027
1.00076
1.00155
1.00436
1.00872
1.02576
1.04834
1.16322
1.30308
2.08985
3.58122
8.14598
9.39185
9.27457
8.97965
8.65831
8.33915
7.94726
7.45568
6.8858
1
1
1.00002
1.00004
1.0001
1.00021
1.00058
1.00118
1.00335
1.00655
1.02024
1.0359
1.12988
1.22743
1.85908
2.95945
6.63091
9.17806
9.11426
8.88359
8.51514
8.18199
7.80801
7.36221
6.8503
1
1
1.00001
1.00003
1.00006
1.00018
1.00037
1.00104