/*--------------------------------*- C++ -*----------------------------------*\
| =========                 |                                                 |
| \\      /  F ield         | OpenFOAM: The Open Source CFD Toolbox           |
|  \\    /   O peration     | Version:  4.1                                   |
|   \\  /    A nd           | Web:      www.OpenFOAM.org                      |
|    \\/     M anipulation  |                                                 |
\*---------------------------------------------------------------------------*/
FoamFile
{
    version     2.0;
    format      ascii;
    class       surfaceScalarField;
    location    "8";
    object      phi;
}
// * * * * * * * * * * * * * * * * * * * * * * * * * * * * * * * * * * * * * //

dimensions      [1 0 -1 0 0 0 0];

internalField   nonuniform List<scalar> 
150500
(
0.0168001
1.87158e-10
-3.54925e-12
0.0168001
1.04576e-09
-1.15664e-11
0.0168001
3.88484e-09
-1.36799e-11
0.0168
9.9989e-09
-2.13917e-11
0.0168
2.74716e-08
-2.18987e-11
0.0167999
6.29499e-08
-2.89728e-11
0.0167998
1.63341e-07
-2.97132e-11
0.0167994
3.68502e-07
-4.05284e-11
0.0167983
9.52194e-07
-4.30919e-11
0.0167962
2.17668e-06
-8.93851e-11
0.0167895
5.87349e-06
-6.04894e-11
0.0167737
1.5718e-05
-3.33622e-10
0.0167171
5.39837e-05
-3.10494e-10
0.0165429
0.00016927
-1.48609e-09
0.0155167
0.00100995
-3.07642e-09
0.0143647
0.00115239
-7.80001e-11
0.0131903
0.00117388
-2.83499e-10
0.0119388
0.0012498
-5.17372e-10
0.0106011
0.00133571
-5.35292e-10
0.00916151
0.00143778
-5.48434e-10
0.00759744
0.00156232
-5.53473e-10
0.00589975
0.00169598
-5.77111e-10
0.00407661
0.00182175
-5.95583e-10
0.00212112
0.00195374
-6.10315e-10
0.00211948
-6.19169e-10
0.0168001
3.84905e-10
-3.53953e-12
0.0168001
2.14453e-09
-1.15741e-11
0.0168001
7.97135e-09
-1.36708e-11
0.0168
2.0477e-08
-2.13999e-11
0.0168
5.63337e-08
-2.19056e-11
0.0167999
1.28854e-07
-2.90018e-11
0.0167997
3.35171e-07
-2.97783e-11
0.0167994
7.52088e-07
-4.06812e-11
0.0167982
1.96184e-06
-4.33469e-11
0.016796
4.42221e-06
-9.01065e-11
0.016789
1.21644e-05
-6.07653e-11
0.0167726
3.18468e-05
-3.34402e-10
0.016713
0.000111049
-3.09656e-10
0.0165327
0.000344764
-1.47529e-09
0.0154921
0.00203411
-3.07308e-09
0.0143239
0.00232104
-5.66833e-11
0.0131611
0.00233616
-2.75901e-10
0.0119224
0.00248681
-5.12501e-10
0.0105918
0.00266438
-5.29269e-10
0.00913927
0.00288845
-5.42088e-10
0.00755632
0.00314353
-5.482e-10
0.00583938
0.00341121
-5.72677e-10
0.00399512
0.00366459
-5.91393e-10
0.00203196
0.00391515
-6.05746e-10
0.00414976
-6.14239e-10
0.0168001
5.96005e-10
-3.52166e-12
0.0168001
3.32327e-09
-1.15867e-11
0.0168001
1.2353e-08
-1.36538e-11
0.0168
3.1781e-08
-2.14138e-11
0.0168
8.73979e-08
-2.19132e-11
0.0167999
2.00335e-07
-2.90399e-11
0.0167997
5.19771e-07
-2.98569e-11
0.0167993
1.1736e-06
-4.07458e-11
0.0167981
3.02914e-06
-4.37409e-11
0.0167957
6.85842e-06
-8.96787e-11
0.0167884
1.86642e-05
-6.14878e-11
0.016772
4.80495e-05
-3.30716e-10
0.0167125
0.000168012
-3.13048e-10
0.016536
0.000516456
-1.4665e-09
0.0155132
0.00304016
-3.12374e-09
0.0143336
0.00350125
-2.52949e-11
0.0131764
0.00349295
-2.6538e-10
0.01195
0.00371146
-5.03815e-10
0.010631
0.0039815
-5.15541e-10
0.00918341
0.00433417
-5.24427e-10
0.00759768
0.00472752
-5.35263e-10
0.00587545
0.00513186
-5.60978e-10
0.00400943
0.00552928
-5.81341e-10
0.00203396
0.00588889
-5.95914e-10
0.00618207
-6.06526e-10
0.0168001
8.38635e-10
-3.4957e-12
0.0168001
4.6264e-09
-1.16119e-11
0.0168
1.72255e-08
-1.3651e-11
0.0168
4.42425e-08
-2.14914e-11
0.0168
1.22259e-07
-2.20964e-11
0.0167999
2.82034e-07
-2.95343e-11
0.0167997
7.24079e-07
-3.08417e-11
0.0167991
1.71225e-06
-4.54776e-11
0.016798
3.99884e-06
-4.17112e-11
0.0167947
1.01651e-05
-1.2663e-10
0.0167885
2.41503e-05
-1.82108e-11
0.0167715
6.47209e-05
-3.73566e-10
0.0167157
0.000221274
-2.4889e-10
0.016549
0.000678443
-1.43701e-09
0.0155721
0.00399968
-3.11862e-09
0.0143857
0.00468879
3.59906e-11
0.0132351
0.00464322
-2.64921e-10
0.0120273
0.00491749
-5.04522e-10
0.0107296
0.00527737
-5.06906e-10
0.00930312
0.00575904
-5.02584e-10
0.00772504
0.00630332
-5.17236e-10
0.00600176
0.00685334
-5.45105e-10
0.00412753
0.00740211
-5.66301e-10
0.00209679
0.00791794
-5.81366e-10
0.00827721
-5.96081e-10
0.0168001
9.60645e-10
-3.44708e-12
0.0168001
5.3055e-09
-1.16347e-11
0.0168001
1.97624e-08
-1.35514e-11
0.0168
5.07163e-08
-2.15434e-11
0.0168
1.40219e-07
-2.17157e-11
0.0168
3.22333e-07
-2.9186e-11
0.0167998
8.38581e-07
-2.97898e-11
0.0167996
1.91762e-06
-4.07666e-11
0.0167986
4.8825e-06
-4.44317e-11
0.0167977
1.1106e-05
-8.12443e-11
0.0167892
3.19161e-05
-1.07515e-10
0.0167751
7.85288e-05
-2.70293e-10
0.0167278
0.000266134
-3.69676e-10
0.0165605
0.000840731
-1.48425e-09
0.0156707
0.00487139
-3.26331e-09
0.014468
0.00589298
1.92143e-10
0.0133213
0.00578952
-1.77802e-10
0.0121394
0.00609775
-4.6911e-10
0.0108743
0.00654017
-4.75363e-10
0.00948596
0.0071465
-4.74724e-10
0.00794268
0.00784589
-4.87261e-10
0.00621888
0.00857563
-5.14727e-10
0.00431234
0.00930725
-5.39133e-10
0.00223014
0.00999837
-5.57308e-10
0.0105057
-5.78382e-10
0.0168001
9.96031e-10
-3.40084e-12
0.0168001
5.49446e-09
-1.16495e-11
0.0168001
2.05097e-08
-1.34831e-11
0.0168001
5.2386e-08
-2.17122e-11
0.0168
1.4526e-07
-2.14321e-11
0.0168
3.30748e-07
-2.93717e-11
0.0168
8.80011e-07
-2.96613e-11
0.0168
1.91752e-06
-4.11863e-11
0.0167993
5.40443e-06
-4.43022e-11
0.0167991
1.13256e-05
-8.28566e-11
0.0167938
3.64177e-05
-1.10682e-10
0.0167882
8.39276e-05
-2.69627e-10
0.0167106
0.000341208
-3.82315e-10
0.0165681
0.000978168
-1.49247e-09
0.0157776
0.00564315
-3.39896e-09
0.0145434
0.00712924
3.37542e-10
0.0134142
0.0069187
-9.82722e-11
0.0122726
0.00723748
-4.38308e-10
0.0110638
0.00774719
-4.41488e-10
0.00972137
0.00848537
-4.32042e-10
0.00822256
0.0093432
-4.38587e-10
0.00653458
0.010262
-4.72483e-10
0.00460846
0.0112323
-5.02406e-10
0.00241298
0.0121927
-5.23341e-10
0.012917
-5.52034e-10
0.0168001
9.8634e-10
-3.36078e-12
0.0168001
5.48957e-09
-1.16435e-11
0.0168001
2.05067e-08
-1.34986e-11
0.0168001
5.23918e-08
-2.15921e-11
0.0168001
1.4478e-07
-2.15108e-11
0.0168001
3.26603e-07
-2.91336e-11
0.0168
8.90463e-07
-2.94563e-11
0.0168002
1.7843e-06
-4.00335e-11
0.0167994
5.99416e-06
-4.39226e-11
0.0168008
9.98216e-06
-7.69782e-11
0.0167925
4.40279e-05
-1.08242e-10
0.0167899
8.61607e-05
-2.4876e-10
0.0167307
0.000397931
-4.18139e-10
0.0166205
0.00108448
-1.45462e-09
0.0161232
0.00612033
-3.57313e-09
0.0148082
0.00844734
3.74668e-10
0.0136391
0.00808843
-6.19851e-11
0.0125082
0.00836734
-4.24526e-10
0.0113496
0.00890583
-4.26733e-10
0.010085
0.00974947
-4.07173e-10
0.0086355
0.0107913
-3.95871e-10
0.00697258
0.0119233
-4.23249e-10
0.00503741
0.0131659
-4.51998e-10
0.00273941
0.014489
-4.74096e-10
0.0156548
-5.07936e-10
0.0168001
1.16604e-09
-3.3405e-12
0.0168001
6.45017e-09
-1.16033e-11
0.0168001
2.39795e-08
-1.36128e-11
0.0168
6.13975e-08
-2.13945e-11
0.0168
1.69314e-07
-2.19103e-11
0.0168
3.85774e-07
-2.91227e-11
0.0167998
1.02361e-06
-3.00825e-11
0.0167994
2.19696e-06
-4.28109e-11
0.0167987
6.53342e-06
-4.10417e-11
0.0167972
1.15858e-05
-1.12323e-10
0.016793
4.74519e-05
-3.171e-11
0.0167875
9.17028e-05
-3.31971e-10
0.0167705
0.00041236
-2.6808e-10
0.0167411
0.00111064
-1.35178e-09
0.0168215
0.00601869
-3.43375e-09
0.0154081
0.00986387
3.01707e-10
0.0141128
0.00938495
-1.25075e-10
0.0129444
0.00953422
-4.11243e-10
0.0118049
0.0100425
-4.0771e-10
0.0105849
0.0109684
-3.7913e-10
0.00921333
0.0121617
-3.62734e-10
0.00760501
0.0135304
-3.8204e-10
0.00568077
0.015089
-4.03115e-10
0.00325238
0.0169159
-4.21158e-10
0.0189056
-4.51616e-10
0.0168001
1.53274e-09
-3.29983e-12
0.0168001
6.87587e-09
-1.15967e-11
0.0168001
2.72203e-08
-1.35886e-11
0.0168
6.74768e-08
-2.13209e-11
0.0168
1.89967e-07
-2.16667e-11
0.0168
4.25467e-07
-2.85288e-11
0.0167999
1.1371e-06
-2.87056e-11
0.0167996
2.45483e-06
-3.71133e-11
0.0167992
6.84621e-06
-4.18203e-11
0.0167972
1.35693e-05
-6.26736e-11
0.0167975
4.65017e-05
-8.51747e-11
0.0168022
8.67888e-05
-2.16249e-10
0.0168262
0.000385985
-3.60581e-10
0.0169394
0.000993717
-1.1935e-09
0.0179629
0.00497529
-3.30453e-09
0.0164221
0.0114069
-1.14737e-10
0.0148457
0.0109624
-2.68649e-10
0.0136488
0.010731
-3.8269e-10
0.0125272
0.0111636
-3.74386e-10
0.0113393
0.0121549
-3.45875e-10
0.0100104
0.0134894
-3.35215e-10
0.00853783
0.0150019
-3.45067e-10
0.00674914
0.0168765
-3.51946e-10
0.00422199
0.0194416
-3.60413e-10
0.0231259
-3.80543e-10
0.0168001
-3.34539e-12
2.78285e-09
0.0168001
-1.15212e-11
2.69883e-09
0.0168
-1.37549e-11
3.84605e-08
0.0168001
-2.13837e-11
3.69359e-08
0.0168
-2.17726e-11
2.57785e-07
0.0168002
-2.85349e-11
2.44643e-07
0.0167998
-2.85094e-11
1.55371e-06
0.0168008
-3.65754e-11
1.37205e-06
0.0167979
-4.01616e-11
9.69088e-06
0.0168051
-5.97775e-11
6.29865e-06
0.0167829
-7.09e-11
6.8247e-05
0.0168381
-2.11037e-10
3.13287e-05
0.0167371
-2.30987e-10
0.000484839
0.0170991
-8.49775e-10
0.000631784
0.0182681
-1.83487e-09
0.00379132
0.0172375
-1.41285e-09
0.0124292
0.0155491
-6.10143e-10
0.0126486
0.0144997
-3.77616e-10
0.0117797
0.0133518
-3.47193e-10
0.012311
0.012294
-3.37481e-10
0.013212
0.0111502
-3.21031e-10
0.0146322
0.00988576
-3.16469e-10
0.0162653
0.00823802
-3.11219e-10
0.0185232
0.00583132
-3.01064e-10
0.0218471
-3.04652e-10
0.0289554
0.0168001
1.91994e-10
-6.17411e-16
0.0168001
1.04599e-09
-3.22739e-15
0.0168
3.89105e-09
-7.55643e-15
0.0168
1.00001e-08
-1.58435e-14
0.0168
2.74702e-08
-3.2895e-14
0.0167999
6.29342e-08
-6.2853e-14
0.0167998
1.63295e-07
-1.46148e-13
0.0167994
3.68386e-07
-2.86397e-13
0.0167983
9.51976e-07
-7.59232e-13
0.0167962
2.17611e-06
-1.54525e-12
0.0167895
5.87299e-06
-4.29233e-12
0.0167737
1.57172e-05
-1.15013e-11
0.0167171
5.39835e-05
-3.15457e-11
0.0165429
0.000169278
-9.90095e-11
0.0155167
0.00100995
-2.55182e-10
0.0143647
0.00115236
4.59949e-12
0.0131904
0.00117386
-1.03209e-11
0.0119388
0.00124978
-3.01546e-11
0.0106012
0.00133571
-3.1592e-11
0.00916156
0.00143779
-3.16671e-11
0.00759747
0.00156233
-2.95588e-11
0.00589978
0.001696
-2.89955e-11
0.00407661
0.00182176
-2.91899e-11
0.00212111
0.00195376
-2.96147e-11
0.00211947
-2.99676e-11
0.0168001
3.93836e-10
-6.20108e-16
0.0168001
2.14603e-09
-3.23888e-15
0.0168
7.98241e-09
-7.59552e-15
0.0168
2.04767e-08
-1.59295e-14
0.0168
5.63227e-08
-3.31241e-14
0.0167999
1.288e-07
-6.33308e-14
0.0167997
3.3502e-07
-1.47299e-13
0.0167994
7.51762e-07
-2.889e-13
0.0167982
1.96079e-06
-7.64104e-13
0.016796
4.42145e-06
-1.55716e-12
0.016789
1.21595e-05
-4.31007e-12
0.0167726
3.1847e-05
-1.15026e-11
0.016713
0.000111045
-3.16173e-11
0.0165326
0.000344781
-9.88142e-11
0.0154921
0.00203409
-2.56034e-10
0.0143239
0.00232097
6.13787e-12
0.0131612
0.00233612
-9.89173e-12
0.0119224
0.00248678
-3.01441e-11
0.0105919
0.00266437
-3.14147e-11
0.00913933
0.00288846
-3.1304e-11
0.00755637
0.00314355
-2.92088e-11
0.00583941
0.00341124
-2.8682e-11
0.00399513
0.00366463
-2.89429e-11
0.00203195
0.00391518
-2.93987e-11
0.00414975
-2.97548e-11
0.0168001
6.0921e-10
-6.25563e-16
0.0168001
3.32377e-09
-3.26359e-15
0.0168
1.23614e-08
-7.67249e-15
0.0168
3.17614e-08
-1.60945e-14
0.0168
8.73103e-08
-3.35264e-14
0.0167999
2.00095e-07
-6.41044e-14
0.0167997
5.19217e-07
-1.49091e-13
0.0167993
1.17131e-06
-2.91312e-13
0.0167981
3.02935e-06
-7.7264e-13
0.0167957
6.84182e-06
-1.55964e-12
0.0167884
1.86833e-05
-4.34788e-12
0.016772
4.80272e-05
-1.14366e-11
0.0167125
0.000168042
-3.18334e-11
0.016536
0.000516474
-9.86341e-11
0.0155131
0.00304018
-2.59482e-10
0.0143336
0.00350112
9.51262e-12
0.0131765
0.00349287
-8.87141e-12
0.0119501
0.00371142
-3.01638e-11
0.010631
0.00398149
-3.11405e-11
0.00918346
0.0043342
-3.05947e-11
0.00759772
0.00472755
-2.87248e-11
0.00587547
0.00513191
-2.82244e-11
0.00400944
0.00552933
-2.85503e-11
0.00203396
0.00588893
-2.90051e-11
0.00618205
-2.93454e-11
0.0168001
8.62325e-10
-6.54102e-16
0.0168001
4.63382e-09
-3.37517e-15
0.0168
1.72853e-08
-8.09218e-15
0.0168
4.42555e-08
-1.70593e-14
0.0168
1.22448e-07
-3.63484e-14
0.0167999
2.82284e-07
-7.08738e-14
0.0167997
7.24675e-07
-1.62802e-13
0.0167991
1.71448e-06
-3.54578e-13
0.016798
3.9983e-06
-7.48985e-13
0.0167947
1.01839e-05
-2.04586e-12
0.0167885
2.41168e-05
-3.25129e-12
0.0167714
6.47596e-05
-1.18168e-11
0.0167157
0.00022121
-3.14146e-11
0.0165491
0.000678401
-9.84905e-11
0.0155724
0.00399952
-2.6467e-10
0.014386
0.00468861
1.17034e-11
0.0132354
0.00464319
-7.72149e-12
0.0120276
0.00491749
-2.98737e-11
0.0107298
0.00527739
-3.05905e-11
0.00930331
0.00575909
-2.944e-11
0.00772518
0.00630341
-2.77172e-11
0.00600185
0.00685343
-2.76456e-11
0.00412758
0.00740221
-2.79245e-11
0.00209681
0.00791801
-2.83917e-11
0.00827722
-2.87602e-11
0.0168001
9.83713e-10
-6.38022e-16
0.0168001
5.31826e-09
-3.29222e-15
0.0168001
1.98137e-08
-7.80751e-15
0.0168
5.06793e-08
-1.66201e-14
0.0168
1.40379e-07
-3.43767e-14
0.0168
3.22367e-07
-6.69048e-14
0.0167998
8.38809e-07
-1.54538e-13
0.0167996
1.91784e-06
-3.11367e-13
0.0167986
4.88349e-06
-7.8291e-13
0.0167977
1.11066e-05
-1.62247e-12
0.0167891
3.19204e-05
-4.73451e-12
0.0167751
7.85299e-05
-1.13989e-11
0.0167277
0.000266128
-2.96389e-11
0.0165604
0.000840724
-1.01282e-10
0.0156705
0.00487132
-2.69965e-10
0.0144679
0.00589266
2.02698e-11
0.0133214
0.00578939
-6.54671e-12
0.0121396
0.00609769
-2.94403e-11
0.0108745
0.00654016
-2.99095e-11
0.00948612
0.00714653
-2.89774e-11
0.00794284
0.00784598
-2.69919e-11
0.00621901
0.00857576
-2.6884e-11
0.00431242
0.00930738
-2.71363e-11
0.00223019
0.00999848
-2.75731e-11
0.0105057
-2.8071e-11
0.0168001
1.01586e-09
-6.297e-16
0.0168001
5.51363e-09
-3.24466e-15
0.0168001
2.05227e-08
-7.68739e-15
0.0168001
5.24593e-08
-1.63706e-14
0.0168
1.45262e-07
-3.38301e-14
0.0168
3.30877e-07
-6.58814e-14
0.0168
8.80152e-07
-1.5264e-13
0.0168
1.91805e-06
-3.08787e-13
0.0167993
5.4046e-06
-7.79833e-13
0.0167991
1.13274e-05
-1.61372e-12
0.0167938
3.64193e-05
-4.80691e-12
0.0167882
8.39415e-05
-1.12167e-11
0.0167106
0.000341201
-3.0527e-11
0.016568
0.000978231
-1.01139e-10
0.0157773
0.0056433
-2.76617e-10
0.0145431
0.00712882
2.82953e-11
0.0134141
0.00691846
-3.7585e-12
0.0122726
0.00723732
-2.81759e-11
0.0110639
0.0077471
-2.79003e-11
0.00972146
0.00848537
-2.63882e-11
0.00822267
0.00934327
-2.47791e-11
0.00653469
0.0102621
-2.5587e-11
0.00460855
0.0112325
-2.62651e-11
0.00241304
0.0121928
-2.67129e-11
0.0129171
-2.73452e-11
0.0168001
9.97715e-10
-5.93998e-16
0.0168001
5.52084e-09
-3.09108e-15
0.0168001
2.04793e-08
-7.16645e-15
0.0168001
5.24866e-08
-1.52281e-14
0.0168001
1.44666e-07
-3.05563e-14
0.0168001
3.26631e-07
-5.84385e-14
0.0168
8.90302e-07
-1.37177e-13
0.0168002
1.78357e-06
-2.49686e-13
0.0167994
5.99589e-06
-7.7072e-13
0.0168008
9.97075e-06
-1.27505e-12
0.0167924
4.40649e-05
-4.8965e-12
0.01679
8.61307e-05
-9.11197e-12
0.0167306
0.00039804
-3.8207e-11
0.0166204
0.00108461
-9.8216e-11
0.0161226
0.00612093
-2.89231e-10
0.0148076
0.00844681
3.51743e-11
0.0136387
0.00808802
2.11936e-12
0.012508
0.00836707
-2.64997e-11
0.0113495
0.00890564
-2.66224e-11
0.010085
0.00974937
-2.5254e-11
0.00863553
0.0107913
-2.30987e-11
0.00697265
0.0119234
-2.37034e-11
0.00503748
0.0131661
-2.45258e-11
0.00273945
0.0144892
-2.51911e-11
0.015655
-2.61483e-11
0.0168001
1.18578e-09
-5.527e-16
0.0168001
6.45988e-09
-2.93853e-15
0.0168001
2.40092e-08
-6.62545e-15
0.0168
6.14285e-08
-1.37513e-14
0.0168
1.69451e-07
-2.71193e-14
0.0168
3.86088e-07
-4.97639e-14
0.0167998
1.02445e-06
-1.19046e-13
0.0167994
2.2001e-06
-1.74565e-13
0.0167987
6.53465e-06
-7.88206e-13
0.0167971
1.16101e-05
-5.90489e-13
0.016793
4.74387e-05
-6.02388e-12
0.0167874
9.17661e-05
-7.26563e-12
0.0167705
0.000412338
-3.99455e-11
0.0167411
0.00111082
-9.55698e-11
0.0168211
0.00601963
-2.93945e-10
0.0154078
0.00986332
3.72073e-11
0.0141125
0.00938444
7.2468e-12
0.0129442
0.00953388
-2.2341e-11
0.0118048
0.0100423
-2.3567e-11
0.0105847
0.0109683
-2.31699e-11
0.00921328
0.0121616
-2.12474e-11
0.00760502
0.0135305
-2.19148e-11
0.0056808
0.0150891
-2.29282e-11
0.00325241
0.0169161
-2.38801e-11
0.0189058
-2.4881e-11
0.0168001
1.49694e-09
-5.68026e-16
0.0168001
6.98907e-09
-2.98682e-15
0.0168001
2.70634e-08
-6.85102e-15
0.0168
6.73666e-08
-1.43092e-14
0.0168
1.89756e-07
-2.8811e-14
0.0168
4.25409e-07
-5.45089e-14
0.0167999
1.13721e-06
-1.24957e-13
0.0167996
2.45578e-06
-2.3817e-13
0.0167992
6.84794e-06
-6.73045e-13
0.0167972
1.35769e-05
-1.19641e-12
0.0167975
4.65113e-05
-4.75284e-12
0.0168022
8.68159e-05
-7.0977e-12
0.0168261
0.000386065
-3.58656e-11
0.0169392
0.000993976
-8.76892e-11
0.0179618
0.00497713
-2.87652e-10
0.0164212
0.0114062
6.92355e-12
0.0148453
0.0109616
-5.09655e-12
0.0136485
0.0107305
-2.17683e-11
0.0125269
0.0111633
-2.26036e-11
0.0113391
0.0121547
-2.18867e-11
0.0100103
0.0134893
-1.98665e-11
0.00853778
0.0150019
-2.02799e-11
0.00674913
0.0168766
-2.08785e-11
0.004222
0.0194417
-2.20855e-11
0.023126
-2.35357e-11
0.0168001
-5.48399e-16
2.65487e-09
0.0168001
-2.89668e-15
3.0746e-09
0.0168
-6.54505e-15
3.72872e-08
0.0168001
-1.36104e-14
3.74043e-08
0.0168
-2.67232e-14
2.56527e-07
0.0168002
-5.0097e-14
2.45278e-07
0.0167998
-1.11624e-13
1.5527e-06
0.0168008
-2.1392e-13
1.37314e-06
0.0167979
-5.66222e-13
9.69088e-06
0.0168051
-1.12429e-12
6.30275e-06
0.0167829
-3.18227e-12
6.82474e-05
0.0168381
-7.77723e-12
3.13601e-05
0.0167372
-2.14882e-11
0.000484849
0.0170992
-5.70177e-11
0.00063202
0.0182695
-1.54689e-10
0.00379182
0.017238
-1.06913e-10
0.0124293
0.0155491
-4.00891e-11
0.0126482
0.0144995
-2.63726e-11
0.0117794
0.0133517
-2.43877e-11
0.0123107
0.0122939
-2.33229e-11
0.0132118
0.0111501
-2.07274e-11
0.0146321
0.00988568
-2.02839e-11
0.0162653
0.00823797
-2.01963e-11
0.0185232
0.0058313
-2.10543e-11
0.0218472
-2.37315e-11
0.0289556
0.0168001
1.91992e-10
1.74894e-16
0.0168001
1.04598e-09
-1.92963e-17
0.0168
3.89102e-09
-3.14985e-16
0.0168
1e-08
-6.80856e-16
0.0168
2.747e-08
-1.94588e-15
0.0167999
6.29338e-08
-3.98438e-15
0.0167998
1.63294e-07
-1.12945e-14
0.0167994
3.68384e-07
-2.31315e-14
0.0167983
9.51972e-07
-6.62765e-14
0.0167962
2.1761e-06
-1.37364e-13
0.0167895
5.87298e-06
-3.93856e-13
0.0167737
1.57172e-05
-1.06234e-12
0.0167171
5.39835e-05
-2.96241e-12
0.0165429
0.000169278
-9.33442e-12
0.0155167
0.00100995
-2.42712e-11
0.0143647
0.00115236
1.77876e-13
0.0131904
0.00117386
-1.14524e-12
0.0119388
0.00124978
-2.96927e-12
0.0106012
0.00133571
-3.10317e-12
0.00916156
0.00143779
-3.09843e-12
0.00759748
0.00156233
-2.85569e-12
0.00589978
0.001696
-2.76159e-12
0.00407662
0.00182176
-2.75277e-12
0.00212111
0.00195376
-2.77311e-12
0.00211947
-2.78457e-12
0.0168001
3.93833e-10
1.74961e-16
0.0168001
2.14601e-09
4.45539e-18
0.0168
7.98234e-09
-3.18721e-16
0.0168
2.04765e-08
-6.89047e-16
0.0168
5.63223e-08
-1.96749e-15
0.0167999
1.28799e-07
-4.02941e-15
0.0167997
3.35017e-07
-1.14038e-14
0.0167994
7.51756e-07
-2.33696e-14
0.0167982
1.96077e-06
-6.67513e-14
0.016796
4.42143e-06
-1.38516e-13
0.016789
1.21595e-05
-3.95696e-13
0.0167726
3.1847e-05
-1.06289e-12
0.016713
0.000111045
-2.97053e-12
0.0165326
0.000344782
-9.32006e-12
0.0154921
0.0020341
-2.43607e-11
0.0143239
0.00232097
3.22877e-13
0.0131612
0.00233612
-1.10237e-12
0.0119224
0.00248678
-2.96763e-12
0.0105919
0.00266437
-3.0872e-12
0.00913934
0.00288846
-3.06678e-12
0.00755638
0.00314356
-2.82537e-12
0.00583941
0.00341125
-2.73536e-12
0.00399513
0.00366463
-2.73161e-12
0.00203195
0.00391518
-2.75395e-12
0.00414975
-2.76497e-12
0.0168001
6.09197e-10
1.75086e-16
0.0168001
3.32371e-09
6.28837e-18
0.0168
1.23611e-08
-3.2607e-16
0.0168
3.17608e-08
-7.04767e-16
0.0168
8.73087e-08
-2.00557e-15
0.0167999
2.00091e-07
-4.10221e-15
0.0167997
5.19208e-07
-1.15749e-14
0.0167993
1.17128e-06
-2.35972e-14
0.0167981
3.02935e-06
-6.76007e-14
0.0167957
6.84159e-06
-1.38759e-13
0.0167884
1.86835e-05
-3.99719e-13
0.016772
4.8027e-05
-1.05738e-12
0.0167125
0.000168043
-2.994e-12
0.016536
0.000516475
-9.31146e-12
0.0155131
0.00304019
-2.47065e-11
0.0143336
0.00350112
6.39378e-13
0.0131765
0.00349286
-1.00257e-12
0.0119501
0.00371142
-2.97078e-12
0.010631
0.00398149
-3.06507e-12
0.00918346
0.0043342
-3.0089e-12
0.00759772
0.00472756
-2.7858e-12
0.00587548
0.00513191
-2.70127e-12
0.00400944
0.00552933
-2.70344e-12
0.00203396
0.00588894
-2.72669e-12
0.00618206
-2.73651e-12
0.0168001
8.62331e-10
1.75658e-16
0.0168001
4.63386e-09
-6.75255e-17
0.0168
1.72854e-08
-3.65683e-16
0.0168
4.42557e-08
-7.96062e-16
0.0168
1.22449e-07
-2.27172e-15
0.0167999
2.82286e-07
-4.74419e-15
0.0167997
7.24679e-07
-1.28716e-14
0.0167991
1.7145e-06
-2.96219e-14
0.016798
3.99829e-06
-6.53174e-14
0.0167947
1.01841e-05
-1.8526e-13
0.0167885
2.41165e-05
-3.51133e-13
0.0167714
6.47597e-05
-1.09611e-12
0.0167157
0.000221211
-2.95666e-12
0.0165491
0.000678401
-9.31063e-12
0.0155724
0.00399952
-2.52276e-11
0.014386
0.0046886
1.08728e-12
0.0132354
0.00464318
-8.88902e-13
0.0120276
0.00491749
-2.94845e-12
0.0107298
0.00527739
-3.02072e-12
0.00930332
0.00575909
-2.91907e-12
0.00772518
0.00630341
-2.70904e-12
0.00600185
0.00685344
-2.66173e-12
0.00412759
0.00740221
-2.66368e-12
0.00209681
0.00791802
-2.69043e-12
0.00827722
-2.70305e-12
0.0168001
9.83718e-10
1.75505e-16
0.0168001
5.31829e-09
-4.30953e-17
0.0168001
1.98138e-08
-3.42105e-16
0.0168
5.06796e-08
-7.40015e-16
0.0168
1.4038e-07
-2.10968e-15
0.0168
3.22369e-07
-4.34572e-15
0.0167998
8.38813e-07
-1.20966e-14
0.0167996
1.91785e-06
-2.54387e-14
0.0167986
4.88351e-06
-6.86871e-14
0.0167977
1.11066e-05
-1.44703e-13
0.0167891
3.19205e-05
-4.36594e-13
0.0167751
7.85301e-05
-1.05633e-12
0.0167277
0.000266127
-2.79911e-12
0.0165604
0.000840726
-9.58343e-12
0.0156705
0.00487133
-2.57723e-11
0.0144679
0.00589265
1.64671e-12
0.0133214
0.00578938
-7.69585e-13
0.0121396
0.00609769
-2.91506e-12
0.0108745
0.00654017
-2.9692e-12
0.00948612
0.00714653
-2.88812e-12
0.00794284
0.00784599
-2.6633e-12
0.00621902
0.00857576
-2.61472e-12
0.00431243
0.00930739
-2.61936e-12
0.00223019
0.00999849
-2.64763e-12
0.0105057
-2.67016e-12
0.0168001
1.01588e-09
1.75249e-16
0.0168001
5.51372e-09
5.8801e-18
0.0168001
2.0523e-08
-3.32418e-16
0.0168001
5.24602e-08
-7.18617e-16
0.0168
1.45264e-07
-2.06385e-15
0.0168
3.30882e-07
-4.25751e-15
0.0168
8.80165e-07
-1.19363e-14
0.0168
1.91809e-06
-2.52309e-14
0.0167993
5.40464e-06
-6.85151e-14
0.0167991
1.13277e-05
-1.44099e-13
0.0167938
3.64195e-05
-4.44132e-13
0.0167882
8.39426e-05
-1.04096e-12
0.0167106
0.000341198
-2.88795e-12
0.016568
0.000978234
-9.58393e-12
0.0157773
0.00564332
-2.64464e-11
0.0145431
0.00712881
2.39523e-12
0.0134141
0.00691845
-5.00011e-13
0.0122726
0.00723732
-2.80652e-12
0.0110639
0.00774711
-2.80507e-12
0.00972147
0.00848538
-2.68402e-12
0.00822268
0.00934328
-2.50002e-12
0.0065347
0.0102621
-2.529e-12
0.00460855
0.0112325
-2.57521e-12
0.00241304
0.0121928
-2.61196e-12
0.0129171
-2.64784e-12
0.0168001
9.97733e-10
1.73999e-16
0.0168001
5.52092e-09
1.43979e-17
0.0168001
2.04796e-08
-2.85897e-16
0.0168001
5.24875e-08
-6.17282e-16
0.0168001
1.44668e-07
-1.76904e-15
0.0168001
3.26637e-07
-3.58538e-15
0.0168
8.90315e-07
-1.05414e-14
0.0168002
1.78361e-06
-1.9821e-14
0.0167994
5.99592e-06
-6.78281e-14
0.0168008
9.97106e-06
-1.12916e-13
0.0167924
4.40646e-05
-4.53174e-13
0.01679
8.61318e-05
-8.45894e-13
0.0167306
0.00039804
-3.60832e-12
0.0166204
0.00108461
-9.31857e-12
0.0161225
0.00612097
-2.76565e-11
0.0148076
0.00844678
3.02937e-12
0.0136387
0.00808801
4.19023e-14
0.012508
0.00836707
-2.67113e-12
0.0113495
0.00890564
-2.71151e-12
0.010085
0.00974937
-2.61323e-12
0.00863554
0.0107913
-2.38622e-12
0.00697266
0.0119234
-2.41103e-12
0.00503748
0.0131661
-2.4805e-12
0.00273945
0.0144892
-2.54869e-12
0.015655
-2.61581e-12
0.0168001
1.18578e-09
1.718e-16
0.0168001
6.45986e-09
5.63201e-17
0.0168001
2.40091e-08
-2.3682e-16
0.0168
6.14283e-08
-5.05156e-16
0.0168
1.69451e-07
-1.45081e-15
0.0168
3.86086e-07
-2.85655e-15
0.0167998
1.02445e-06
-8.96999e-15
0.0167994
2.20007e-06
-1.32752e-14
0.0167987
6.5347e-06
-6.95238e-14
0.0167971
1.16099e-05
-5.20421e-14
0.016793
4.74394e-05
-5.55921e-13
0.0167874
9.17665e-05
-6.7956e-13
0.0167705
0.000412342
-3.76373e-12
0.0167411
0.00111083
-9.07086e-12
0.0168211
0.00601972
-2.80883e-11
0.0154077
0.00986328
3.19763e-12
0.0141125
0.00938441
4.93779e-13
0.0129442
0.00953387
-2.32857e-12
0.0118047
0.0100423
-2.47055e-12
0.0105847
0.0109683
-2.46967e-12
0.00921328
0.0121616
-2.26789e-12
0.00760502
0.0135305
-2.31698e-12
0.0056808
0.0150892
-2.41392e-12
0.00325241
0.0169161
-2.53063e-12
0.0189058
-2.62337e-12
0.0168001
1.49695e-09
1.72577e-16
0.0168001
6.98913e-09
4.28319e-17
0.0168001
2.70636e-08
-2.56967e-16
0.0168
6.73671e-08
-5.54933e-16
0.0168
1.89757e-07
-1.60215e-15
0.0168
4.25412e-07
-3.27665e-15
0.0167999
1.13722e-06
-9.50414e-15
0.0167996
2.4558e-06
-1.88941e-14
0.0167992
6.84802e-06
-5.92461e-14
0.0167972
1.3577e-05
-1.0639e-13
0.0167975
4.65122e-05
-4.41221e-13
0.0168022
8.68166e-05
-6.58382e-13
0.0168261
0.000386074
-3.38722e-12
0.0169392
0.000994001
-8.31848e-12
0.0179617
0.0049773
-2.74537e-11
0.0164211
0.0114061
3.04305e-13
0.0148452
0.0109615
-7.0808e-13
0.0136485
0.0107305
-2.30925e-12
0.0125269
0.0111633
-2.41954e-12
0.0113391
0.0121547
-2.40133e-12
0.0100103
0.0134893
-2.20866e-12
0.00853777
0.0150019
-2.26234e-12
0.00674913
0.0168766
-2.34296e-12
0.004222
0.0194418
-2.5225e-12
0.0231261
-2.72339e-12
0.0168001
1.72081e-16
2.65487e-09
0.0168001
6.89917e-17
3.07473e-09
0.0168
-2.24995e-16
3.72874e-08
0.0168001
-4.84805e-16
3.74052e-08
0.0168
-1.40104e-15
2.5653e-07
0.0168002
-2.85966e-15
2.45283e-07
0.0167998
-8.25982e-15
1.55272e-06
0.0168008
-1.66469e-14
1.37317e-06
0.0167979
-4.92755e-14
9.69102e-06
0.0168051
-9.97737e-14
6.30285e-06
0.0167829
-2.93739e-13
6.82484e-05
0.0168381
-7.21333e-13
3.13608e-05
0.0167372
-2.03092e-12
0.000484855
0.0170992
-5.40561e-12
0.000632037
0.0182697
-1.47921e-11
0.00379189
0.017238
-1.05113e-11
0.0124293
0.015549
-4.07533e-12
0.0126482
0.0144995
-2.77554e-12
0.0117794
0.0133516
-2.64634e-12
0.0123106
0.0122939
-2.57211e-12
0.0132118
0.0111501
-2.36582e-12
0.0146321
0.00988567
-2.35872e-12
0.0162653
0.00823796
-2.43267e-12
0.0185232
0.00583129
-2.66032e-12
0.0218472
-3.14422e-12
0.0289556
0.0168001
1.91992e-10
-6.90374e-17
0.0168001
1.04598e-09
-2.66375e-16
0.0168
3.89102e-09
-7.74484e-16
0.0168
1e-08
-1.56858e-15
0.0168
2.747e-08
-4.22676e-15
0.0167999
6.29338e-08
-8.48557e-15
0.0167998
1.63294e-07
-2.35989e-14
0.0167994
3.68384e-07
-4.81554e-14
0.0167983
9.51971e-07
-1.36463e-13
0.0167962
2.1761e-06
-2.8364e-13
0.0167895
5.87298e-06
-8.01575e-13
0.0167737
1.57172e-05
-2.18495e-12
0.0167171
5.39835e-05
-6.01306e-12
0.0165429
0.000169278
-1.9122e-11
0.0155167
0.00100995
-5.05674e-11
0.0143647
0.00115236
1.78589e-12
0.0131904
0.00117386
-1.07324e-12
0.0119388
0.00124978
-4.99016e-12
0.0106012
0.00133571
-5.22367e-12
0.00916156
0.00143779
-5.08073e-12
0.00759748
0.00156233
-4.52453e-12
0.00589978
0.001696
-4.33632e-12
0.00407662
0.00182176
-4.30758e-12
0.00212111
0.00195376
-4.41592e-12
0.00211947
-4.45077e-12
0.0168001
3.93833e-10
-6.98972e-17
0.0168001
2.14601e-09
-2.69474e-16
0.0168
7.98233e-09
-7.83492e-16
0.0168
2.04765e-08
-1.58744e-15
0.0168
5.63222e-08
-4.27555e-15
0.0167999
1.28798e-07
-8.58671e-15
0.0167997
3.35017e-07
-2.38432e-14
0.0167994
7.51756e-07
-4.86887e-14
0.0167982
1.96077e-06
-1.37514e-13
0.016796
4.42143e-06
-2.86235e-13
0.016789
1.21594e-05
-8.05491e-13
0.0167726
3.1847e-05
-2.18696e-12
0.016713
0.000111045
-6.029e-12
0.0165326
0.000344782
-1.90853e-11
0.0154921
0.0020341
-5.06946e-11
0.0143239
0.00232097
2.09025e-12
0.0131612
0.00233612
-9.84125e-13
0.0119224
0.00248678
-4.98199e-12
0.0105919
0.00266437
-5.17989e-12
0.00913934
0.00288846
-4.99903e-12
0.00755638
0.00314356
-4.44726e-12
0.00583941
0.00341125
-4.26761e-12
0.00399513
0.00366463
-4.25745e-12
0.00203195
0.00391518
-4.37373e-12
0.00414975
-4.41047e-12
0.0168001
6.09195e-10
-7.15582e-17
0.0168001
3.3237e-09
-2.76068e-16
0.0168
1.23611e-08
-8.0095e-16
0.0168
3.17607e-08
-1.6235e-15
0.0168
8.73085e-08
-4.36076e-15
0.0167999
2.00091e-07
-8.74937e-15
0.0167997
5.19207e-07
-2.42238e-14
0.0167993
1.17127e-06
-4.92046e-14
0.0167981
3.02935e-06
-1.39384e-13
0.0167957
6.84157e-06
-2.86916e-13
0.0167884
1.86835e-05
-8.14073e-13
0.016772
4.8027e-05
-2.17671e-12
0.0167125
0.000168043
-6.07767e-12
0.016536
0.000516476
-1.90632e-11
0.0155131
0.00304019
-5.13722e-11
0.0143336
0.00350112
2.75297e-12
0.0131765
0.00349286
-7.6974e-13
0.0119501
0.00371142
-4.97855e-12
0.010631
0.00398149
-5.1178e-12
0.00918346
0.0043342
-4.85115e-12
0.00759772
0.00472756
-4.36048e-12
0.00587548
0.00513191
-4.18278e-12
0.00400944
0.00552933
-4.19642e-12
0.00203396
0.00588894
-4.31744e-12
0.00618206
-4.35568e-12
0.0168001
8.62332e-10
-8.00226e-17
0.0168001
4.63386e-09
-3.04069e-16
0.0168
1.72854e-08
-8.92789e-16
0.0168
4.42558e-08
-1.82768e-15
0.0168
1.22449e-07
-4.94298e-15
0.0167999
2.82286e-07
-1.01444e-14
0.0167997
7.24679e-07
-2.7035e-14
0.0167991
1.7145e-06
-6.2162e-14
0.016798
3.99828e-06
-1.34641e-13
0.0167947
1.01841e-05
-3.86414e-13
0.0167885
2.41165e-05
-7.10398e-13
0.0167714
6.47597e-05
-2.26348e-12
0.0167157
0.000221211
-5.9935e-12
0.0165491
0.000678401
-1.90565e-11
0.0155724
0.00399953
-5.24041e-11
0.014386
0.0046886
3.68969e-12
0.0132354
0.00464318
-5.08867e-13
0.0120276
0.00491749
-4.91833e-12
0.0107298
0.00527739
-5.01118e-12
0.00930332
0.00575909
-4.60659e-12
0.00772518
0.00630341
-4.1609e-12
0.00600185
0.00685344
-4.1006e-12
0.00412759
0.00740221
-4.10173e-12
0.00209681
0.00791802
-4.23593e-12
0.00827722
-4.29031e-12
0.0168001
9.83719e-10
-7.51589e-17
0.0168001
5.31829e-09
-2.88588e-16
0.0168001
1.98138e-08
-8.39903e-16
0.0168
5.06796e-08
-1.70527e-15
0.0168
1.4038e-07
-4.59769e-15
0.0168
3.22369e-07
-9.29563e-15
0.0167998
8.38813e-07
-2.54012e-14
0.0167996
1.91785e-06
-5.32604e-14
0.0167986
4.88351e-06
-1.42021e-13
0.0167977
1.11066e-05
-3.00283e-13
0.0167891
3.19205e-05
-8.93451e-13
0.0167751
7.85301e-05
-2.17859e-12
0.0167277
0.000266127
-5.68087e-12
0.0165604
0.000840726
-1.96362e-11
0.0156705
0.00487133
-5.35001e-11
0.0144679
0.00589265
4.86747e-12
0.0133214
0.00578938
-2.45449e-13
0.0121396
0.00609769
-4.81792e-12
0.0108745
0.00654017