/*--------------------------------*- C++ -*----------------------------------*\
| =========                 |                                                 |
| \\      /  F ield         | OpenFOAM: The Open Source CFD Toolbox           |
|  \\    /   O peration     | Version:  4.1                                   |
|   \\  /    A nd           | Web:      www.OpenFOAM.org                      |
|    \\/     M anipulation  |                                                 |
\*---------------------------------------------------------------------------*/
FoamFile
{
    version     2.0;
    format      ascii;
    class       volScalarField;
    location    "8";
    object      T;
}
// * * * * * * * * * * * * * * * * * * * * * * * * * * * * * * * * * * * * * //

dimensions      [0 0 0 1 0 0 0];

internalField   nonuniform List<scalar> 
52500
(
0.999996
1.00002
1.00005
1.00019
1.00035
1.00112
1.00205
1.00627
1.01255
1.03379
1.08596
1.20095
1.58334
2.44074
2.68678
2.72796
2.72442
2.72459
2.73849
2.75071
2.76424
2.77326
2.78046
2.78576
2.79032
0.999996
1.00002
1.00005
1.00019
1.00034
1.00111
1.00203
1.0062
1.01241
1.03341
1.0852
1.19841
1.57886
2.43263
2.68394
2.72787
2.72407
2.72418
2.73792
2.74992
2.76334
2.77183
2.77908
2.78348
2.7873
0.999996
1.00002
1.00005
1.00018
1.00033
1.00108
1.00198
1.00605
1.01214
1.03263
1.08358
1.19318
1.56888
2.41432
2.67672
2.72674
2.72234
2.72234
2.73588
2.74773
2.76096
2.76961
2.77541
2.78075
2.78335
0.999996
1.00002
1.00005
1.00017
1.00032
1.00104
1.00191
1.00583
1.01171
1.03143
1.08112
1.18537
1.55328
2.38456
2.66541
2.72476
2.71973
2.7186
2.73186
2.74327
2.75556
2.76514
2.77156
2.77406
2.77846
0.999996
1.00002
1.00004
1.00016
1.0003
1.00098
1.00182
1.00543
1.0112
1.02936
1.07814
1.17532
1.53219
2.34163
2.64954
2.72212
2.71628
2.71366
2.7262
2.73767
2.74897
2.75513
2.76272
2.76768
2.76787
0.999995
1.00002
1.00004
1.00015
1.00028
1.00092
1.0017
1.00502
1.01054
1.02717
1.07345
1.16216
1.50699
2.28749
2.62878
2.71898
2.71233
2.70736
2.71952
2.72859
2.74183
2.74829
2.752
2.75472
2.75816
0.999995
1.00002
1.00004
1.00014
1.00026
1.00085
1.00157
1.00466
1.00973
1.0252
1.06744
1.15027
1.46303
2.2073
2.60005
2.71302
2.70635
2.69961
2.71174
2.71941
2.72691
2.73412
2.73883
2.74002
2.73754
0.999995
1.00001
1.00003
1.00013
1.00024
1.00079
1.00144
1.00444
1.00875
1.02381
1.05915
1.13739
1.40512
2.09917
2.5632
2.70324
2.69497
2.68634
2.69895
2.70916
2.71729
2.71792
2.71926
2.71799
2.71524
0.999995
1.00001
1.00003
1.00012
1.00022
1.00071
1.00129
1.00404
1.00773
1.02196
1.05033
1.12324
1.34342
1.97119
2.51355
2.69124
2.68457
2.67085
2.68142
2.68686
2.69728
2.69961
2.6962
2.68704
2.66421
0.999995
1.00001
1.00003
1.0001
1.00019
1.00061
1.00114
1.0035
1.00681
1.01922
1.04345
1.10954
1.28987
1.86704
2.44132
2.66469
2.66345
2.65853
2.67074
2.6715
2.6737
2.67245
2.66321
2.64161
2.59132
1.00001
1.00003
1.00006
1.0002
1.00035
1.00113
1.00206
1.00628
1.01256
1.0338
1.08597
1.201
1.58337
2.44087
2.68687
2.72804
2.7245
2.72467
2.73856
2.75079
2.76432
2.77335
2.78055
2.78585
2.79041
1.00001
1.00003
1.00006
1.00019
1.00035
1.00112
1.00204
1.00621
1.01242
1.03342
1.08521
1.19845
1.57889
2.43275
2.68403
2.72794
2.72414
2.72425
2.738
2.75
2.76343
2.77191
2.77916
2.78357
2.78739
1
1.00003
1.00006
1.00019
1.00034
1.00109
1.00199
1.00606
1.01215
1.03265
1.08359
1.19323
1.56891
2.41445
2.67681
2.72681
2.72241
2.72242
2.73596
2.74781
2.76104
2.76969
2.7755
2.78083
2.78344
1
1.00003
1.00005
1.00018
1.00033
1.00105
1.00192
1.00584
1.01172
1.03145
1.08113
1.18541
1.5533
2.38468
2.6655
2.72483
2.7198
2.71868
2.73194
2.74334
2.75563
2.76522
2.77164
2.77414
2.77854
1
1.00003
1.00005
1.00017
1.00031
1.00099
1.00182
1.00544
1.01121
1.02938
1.07816
1.17537
1.53223
2.34177
2.64963
2.72219
2.71635
2.71373
2.72627
2.73775
2.74905
2.7552
2.7628
2.76776
2.76795
1
1.00003
1.00005
1.00016
1.00029
1.00092
1.00171
1.00503
1.01055
1.02719
1.07346
1.1622
1.50703
2.28764
2.62886
2.71905
2.71239
2.70743
2.71959
2.72866
2.7419
2.74836
2.75208
2.7548
2.75823
1
1.00002
1.00005
1.00015
1.00027
1.00086
1.00158
1.00467
1.00974
1.02521
1.06746
1.15031
1.46309
2.20746
2.60014
2.71309
2.70642
2.69969
2.71182
2.71949
2.72699
2.73419
2.7389
2.7401
2.73761
1
1.00002
1.00004
1.00014
1.00025
1.0008
1.00145
1.00445
1.00876
1.02384
1.05915
1.13742
1.40514
2.09931
2.56328
2.70331
2.69503
2.6864
2.69901
2.70923
2.71736
2.71799
2.71933
2.71806
2.71531
1
1.00002
1.00004
1.00012
1.00023
1.00072
1.0013
1.00405
1.00774
1.02197
1.05034
1.12327
1.34346
1.97133
2.51365
2.69131
2.68465
2.67092
2.68149
2.68692
2.69735
2.69968
2.69627
2.68711
2.66427
1
1.00002
1.00003
1.00011
1.0002
1.00062
1.00115
1.00351
1.00682
1.01923
1.04346
1.10958
1.2899
1.86719
2.44134
2.66475
2.66352
2.6586
2.67081
2.67156
2.67376
2.67252
2.66327
2.64167
2.59137
1.00001
1.00003
1.00006
1.0002
1.00035
1.00113
1.00206
1.00628
1.01256
1.0338
1.08597
1.201
1.58338
2.44087
2.68687
2.72804
2.7245
2.72467
2.73856
2.75079
2.76432
2.77335
2.78055
2.78585
2.79041
1.00001
1.00003
1.00006
1.00019
1.00035
1.00112
1.00204
1.00621
1.01242
1.03343
1.08521
1.19846
1.57889
2.43276
2.68403
2.72794
2.72414
2.72425
2.738
2.75
2.76343
2.77191
2.77916
2.78357
2.78739
1
1.00003
1.00006
1.00019
1.00034
1.00109
1.00199
1.00606
1.01215
1.03265
1.08359
1.19323
1.56891
2.41445
2.67681
2.72681
2.72241
2.72242
2.73596
2.74781
2.76104
2.76969
2.7755
2.78083
2.78344
1
1.00003
1.00005
1.00018
1.00033
1.00105
1.00192
1.00584
1.01172
1.03145
1.08113
1.18541
1.5533
2.38469
2.6655
2.72483
2.7198
2.71868
2.73194
2.74334
2.75563
2.76522
2.77164
2.77414
2.77854
1
1.00003
1.00005
1.00017
1.00031
1.00099
1.00182
1.00544
1.01121
1.02938
1.07816
1.17537
1.53223
2.34178
2.64963
2.72219
2.71635
2.71373
2.72627
2.73775
2.74905
2.7552
2.7628
2.76776
2.76795
1
1.00003
1.00005
1.00016
1.00029
1.00092
1.00171
1.00503
1.01055
1.02719
1.07346
1.1622
1.50704
2.28764
2.62887
2.71905
2.71239
2.70743
2.71959
2.72866
2.7419
2.74836
2.75208
2.7548
2.75823
1
1.00002
1.00005
1.00015
1.00027
1.00086
1.00158
1.00467
1.00974
1.02521
1.06746
1.15031
1.46309
2.20747
2.60014
2.71309
2.70642
2.69969
2.71183
2.71949
2.72699
2.73419
2.7389
2.7401
2.73761
1
1.00002
1.00004
1.00014
1.00025
1.0008
1.00145
1.00445
1.00876
1.02384
1.05916
1.13743
1.40515
2.09932
2.56328
2.70331
2.69503
2.6864
2.69901
2.70923
2.71736
2.71799
2.71933
2.71806
2.71531
1
1.00002
1.00004
1.00012
1.00023
1.00072
1.0013
1.00405
1.00774
1.02197
1.05034
1.12327
1.34347
1.97134
2.51365
2.69131
2.68465
2.67092
2.68149
2.68692
2.69735
2.69968
2.69627
2.68711
2.66427
1
1.00002
1.00003
1.00011
1.0002
1.00062
1.00115
1.00351
1.00682
1.01923
1.04346
1.10958
1.2899
1.8672
2.44134
2.66475
2.66352
2.6586
2.67081
2.67156
2.67376
2.67252
2.66327
2.64167
2.59137
1.00001
1.00003
1.00006
1.0002
1.00035
1.00113
1.00206
1.00628
1.01256
1.0338
1.08597
1.201
1.58338
2.44087
2.68687
2.72804
2.7245
2.72467
2.73856
2.75079
2.76432
2.77335
2.78055
2.78585
2.79041
1.00001
1.00003
1.00006
1.00019
1.00035
1.00112
1.00204
1.00621
1.01242
1.03343
1.08521
1.19846
1.57889
2.43276
2.68403
2.72794
2.72414
2.72425
2.738
2.75
2.76343
2.77191
2.77916
2.78357
2.78739
1
1.00003
1.00006
1.00019
1.00034
1.00109
1.00199
1.00606
1.01215
1.03265
1.08359
1.19323
1.56891
2.41445
2.67681
2.72681
2.72241
2.72242
2.73596
2.74781
2.76104
2.76969
2.7755
2.78083
2.78344
1
1.00003
1.00005
1.00018
1.00033
1.00105
1.00192
1.00584
1.01172
1.03145
1.08113
1.18541
1.5533
2.38469
2.6655
2.72483
2.7198
2.71868
2.73194
2.74334
2.75563
2.76522
2.77164
2.77414
2.77854
1
1.00003
1.00005
1.00017
1.00031
1.00099
1.00182
1.00544
1.01121
1.02938
1.07816
1.17537
1.53223
2.34178
2.64963
2.72219
2.71635
2.71373
2.72627
2.73775
2.74905
2.7552
2.7628
2.76776
2.76795
1
1.00003
1.00005
1.00016
1.00029
1.00092
1.00171
1.00503
1.01055
1.02719
1.07346
1.1622
1.50704
2.28764
2.62887
2.71905
2.71239
2.70743
2.71959
2.72866
2.7419
2.74836
2.75208
2.7548
2.75823
1
1.00002
1.00005
1.00015
1.00027
1.00086
1.00158
1.00467
1.00974
1.02521
1.06746
1.15031
1.4631
2.20747
2.60014
2.71309
2.70642
2.69969
2.71183
2.71949
2.72699
2.73419
2.7389
2.7401
2.73761
1
1.00002
1.00004
1.00014
1.00025
1.0008
1.00145
1.00445
1.00876
1.02384
1.05916
1.13743
1.40515
2.09932
2.56328
2.70331
2.69503
2.6864
2.69901
2.70923
2.71736
2.71799
2.71933
2.71806
2.71531
1
1.00002
1.00004
1.00012
1.00023
1.00072
1.0013
1.00405
1.00774
1.02197
1.05034
1.12327
1.34347
1.97134
2.51365
2.69131
2.68465
2.67092
2.68149
2.68692
2.69735
2.69968
2.69627
2.68711
2.66427
1
1.00002
1.00003
1.00011
1.0002
1.00062
1.00115
1.00351
1.00682
1.01923
1.04346
1.10958
1.2899
1.8672
2.44134
2.66475
2.66352
2.6586
2.67081
2.67156
2.67376
2.67252
2.66327
2.64167
2.59137
1.00001
1.00003
1.00006
1.0002
1.00035
1.00113
1.00206
1.00628
1.01256
1.0338
1.08597
1.201
1.58338
2.44087
2.68687
2.72804
2.7245
2.72467
2.73856
2.75079
2.76432
2.77335
2.78055
2.78585
2.79041
1.00001
1.00003
1.00006
1.00019
1.00035
1.00112
1.00204
1.00621
1.01242
1.03343
1.08521
1.19846
1.57889
2.43276
2.68403
2.72794
2.72414
2.72425
2.738
2.75
2.76343
2.77191
2.77916
2.78357
2.78739
1
1.00003
1.00006
1.00019
1.00034
1.00109
1.00199
1.00606
1.01215
1.03265
1.08359
1.19323
1.56891
2.41446
2.67681
2.72681
2.72241
2.72242
2.73596
2.74781
2.76104
2.76969
2.7755
2.78083
2.78344
1
1.00003
1.00005
1.00018
1.00033
1.00105
1.00192
1.00584
1.01172
1.03145
1.08113
1.18541
1.5533
2.38469
2.6655
2.72483
2.7198
2.71868
2.73194
2.74334
2.75563
2.76522
2.77164
2.77414
2.77854
1
1.00003
1.00005
1.00017
1.00031
1.00099
1.00182
1.00544
1.01121
1.02938
1.07816
1.17537
1.53224
2.34178
2.64963
2.72219
2.71635
2.71373
2.72627
2.73775
2.74905
2.7552
2.7628
2.76776
2.76795
1
1.00003
1.00005
1.00016
1.00029
1.00092
1.00171
1.00503
1.01055
1.02719
1.07346
1.1622
1.50704
2.28764
2.62887
2.71905
2.71239
2.70743
2.71959
2.72866
2.7419
2.74836
2.75208
2.7548
2.75823
1
1.00002
1.00005
1.00015
1.00027
1.00086
1.00158
1.00467
1.00974
1.02521
1.06746
1.15031
1.4631
2.20747
2.60014
2.71309
2.70642
2.69969
2.71183
2.71949
2.72699
2.73419
2.7389
2.7401
2.73761
1
1.00002
1.00004
1.00014
1.00025
1.0008
1.00145
1.00445
1.00876
1.02384
1.05916
1.13743
1.40515
2.09932
2.56328
2.70331
2.69503
2.6864
2.69901
2.70923
2.71736
2.71799
2.71933
2.71806
2.71531
1
1.00002
1.00004
1.00012
1.00023
1.00072
1.0013
1.00405
1.00774
1.02197
1.05034
1.12327
1.34347
1.97134
2.51366
2.69131
2.68465
2.67092
2.68149
2.68692
2.69735
2.69968
2.69627
2.68711
2.66427
1
1.00002
1.00003
1.00011
1.0002
1.00062
1.00115
1.00351
1.00682
1.01923
1.04346
1.10958
1.2899
1.8672
2.44134
2.66475
2.66352
2.6586
2.67081
2.67157
2.67376
2.67252
2.66327
2.64167
2.59137
1.00001
1.00003
1.00006
1.0002
1.00035
1.00113
1.00206
1.00628
1.01256
1.0338
1.08597
1.201
1.58338
2.44087
2.68687
2.72804
2.7245
2.72467
2.73856
2.75079
2.76432
2.77335
2.78055
2.78585
2.79041
1.00001
1.00003
1.00006
1.00019
1.00035
1.00112
1.00204
1.00621
1.01242
1.03343
1.08521
1.19846
1.57889
2.43276
2.68403
2.72794
2.72414
2.72425
2.738
2.75
2.76343
2.77191
2.77916
2.78357
2.78739
1
1.00003
1.00006
1.00019
1.00034
1.00109
1.00199
1.00606
1.01215
1.03265
1.08359
1.19323
1.56891
2.41446
2.67681
2.72681
2.72241
2.72242
2.73596
2.74781
2.76104
2.76969
2.7755
2.78083
2.78344
1
1.00003
1.00005
1.00018
1.00033
1.00105
1.00192
1.00584
1.01172
1.03145
1.08113
1.18541
1.5533
2.38469
2.6655
2.72483
2.7198
2.71868
2.73194
2.74334
2.75563
2.76522
2.77164
2.77414
2.77854
1
1.00003
1.00005
1.00017
1.00031
1.00099
1.00182
1.00544
1.01121
1.02938
1.07816
1.17537
1.53224
2.34178
2.64963
2.72219
2.71635
2.71373
2.72627
2.73775
2.74905
2.7552
2.7628
2.76776
2.76795
1
1.00003
1.00005
1.00016
1.00029
1.00092
1.00171
1.00503
1.01055
1.02719
1.07346
1.1622
1.50704
2.28764
2.62887
2.71905
2.71239
2.70743
2.71959
2.72866
2.7419
2.74836
2.75208
2.7548
2.75823
1
1.00002
1.00005
1.00015
1.00027
1.00086
1.00158
1.00467
1.00974
1.02521
1.06746
1.15031
1.4631
2.20747
2.60014
2.71309
2.70642
2.69969
2.71183
2.71949
2.72699
2.73419
2.7389
2.7401
2.73761
1
1.00002
1.00004
1.00014
1.00025
1.0008
1.00145
1.00445
1.00876
1.02384
1.05916
1.13743
1.40515
2.09932
2.56328
2.70331
2.69503
2.6864
2.69901
2.70923
2.71736
2.71799
2.71933
2.71806
2.71531
1
1.00002
1.00004
1.00012
1.00023
1.00072
1.0013
1.00405
1.00774
1.02197
1.05034
1.12327
1.34347
1.97134
2.51366
2.69131
2.68465
2.67092
2.68149
2.68692
2.69735
2.69968
2.69627
2.68711
2.66427
1
1.00002
1.00003
1.00011
1.0002
1.00062
1.00115
1.00351
1.00682
1.01923
1.04346
1.10958
1.2899
1.8672
2.44134
2.66475
2.66352
2.6586
2.67081
2.67157
2.67376
2.67252
2.66327
2.64167
2.59137
1.00001
1.00003
1.00006
1.0002
1.00035
1.00113
1.00206
1.00628
1.01256
1.0338
1.08597
1.201
1.58338
2.44087
2.68687
2.72804
2.7245
2.72467
2.73856
2.75079
2.76432
2.77335
2.78055
2.78585
2.79041
1.00001
1.00003
1.00006
1.00019
1.00035
1.00112
1.00204
1.00621
1.01242
1.03343
1.08521
1.19846
1.57889
2.43276
2.68403
2.72794
2.72414
2.72425
2.738
2.75
2.76343
2.77191
2.77916
2.78357
2.78739
1
1.00003
1.00006
1.00019
1.00034
1.00109
1.00199
1.00606
1.01215
1.03265
1.08359
1.19323
1.56891
2.41446
2.67681
2.72681
2.72241
2.72242
2.73596
2.74781
2.76104
2.76969
2.7755
2.78083
2.78344
1
1.00003
1.00005
1.00018
1.00033
1.00105
1.00192
1.00584
1.01172
1.03145
1.08113
1.18541
1.5533
2.38469
2.6655
2.72483
2.7198
2.71868
2.73194
2.74334
2.75563
2.76522
2.77164
2.77414
2.77854
1
1.00003
1.00005
1.00017
1.00031
1.00099
1.00182
1.00544
1.01121
1.02938
1.07816
1.17537
1.53223
2.34178
2.64963
2.72219
2.71635
2.71373
2.72627
2.73775
2.74905
2.7552
2.7628
2.76776
2.76795
1
1.00003
1.00005
1.00016
1.00029
1.00092
1.00171
1.00503
1.01055
1.02719
1.07346
1.1622
1.50704
2.28764
2.62887
2.71905
2.71239
2.70743
2.71959
2.72866
2.7419
2.74836
2.75208
2.7548
2.75823
1
1.00002
1.00005
1.00015
1.00027
1.00086
1.00158
1.00467
1.00974
1.02521
1.06746
1.15031
1.4631
2.20747
2.60014
2.71309
2.70642
2.69969
2.71183
2.71949
2.72699
2.73419
2.7389
2.7401
2.73761
1
1.00002
1.00004
1.00014
1.00025
1.0008
1.00145
1.00445
1.00876
1.02384
1.05916
1.13743
1.40515
2.09932
2.56328
2.70331
2.69503
2.6864
2.69901
2.70923
2.71736
2.71799
2.71933
2.71806
2.71531
1
1.00002
1.00004
1.00012
1.00023
1.00072
1.0013
1.00405
1.00774
1.02197
1.05034
1.12327
1.34347
1.97134
2.51366
2.69131
2.68465
2.67092
2.68149
2.68692
2.69735
2.69968
2.69627
2.68711
2.66427
1
1.00002
1.00003
1.00011
1.0002
1.00062
1.00115
1.00351
1.00682
1.01923
1.04346
1.10958
1.2899
1.8672
2.44134
2.66475
2.66352
2.6586
2.67081
2.67157
2.67376
2.67252
2.66327
2.64167
2.59137
1.00001
1.00003
1.00006
1.0002
1.00035
1.00113
1.00206
1.00628
1.01256
1.0338
1.08597
1.201
1.58338
2.44087
2.68687
2.72804
2.7245
2.72467
2.73856
2.75079
2.76432
2.77335
2.78055
2.78585
2.79041
1.00001
1.00003
1.00006
1.00019
1.00035
1.00112
1.00204
1.00621
1.01242
1.03343
1.08521
1.19846
1.57889
2.43276
2.68403
2.72794
2.72414
2.72425
2.738
2.75
2.76343
2.77191
2.77916
2.78357
2.78739
1
1.00003
1.00006
1.00019
1.00034
1.00109
1.00199
1.00606
1.01215
1.03265
1.08359
1.19323
1.56891
2.41445
2.67681
2.72681
2.72241
2.72242
2.73596
2.74781
2.76104
2.76969
2.7755
2.78083
2.78344
1
1.00003
1.00005
1.00018
1.00033
1.00105
1.00192
1.00584
1.01172
1.03145
1.08113
1.18541
1.5533
2.38469
2.6655
2.72483
2.7198
2.71868
2.73194
2.74334
2.75563
2.76522
2.77164
2.77414
2.77854
1
1.00003
1.00005
1.00017
1.00031
1.00099
1.00182
1.00544
1.01121
1.02938
1.07816
1.17537
1.53223
2.34178
2.64963
2.72219
2.71635
2.71373
2.72627
2.73775
2.74905
2.7552
2.7628
2.76776
2.76795
1
1.00003
1.00005
1.00016
1.00029
1.00092
1.00171
1.00503
1.01055
1.02719
1.07346
1.1622
1.50704
2.28764
2.62887
2.71905
2.71239
2.70743
2.71959
2.72866
2.7419
2.74836
2.75208
2.7548
2.75823
1
1.00002
1.00005
1.00015
1.00027
1.00086
1.00158
1.00467
1.00974
1.02521
1.06746
1.15031
1.46309
2.20747
2.60014
2.71309
2.70642
2.69969
2.71183
2.71949
2.72699
2.73419
2.7389
2.7401
2.73761
1
1.00002
1.00004
1.00014
1.00025
1.0008
1.00145
1.00445
1.00876
1.02384
1.05916
1.13743
1.40515
2.09932
2.56328
2.70331
2.69503
2.6864
2.69901
2.70923
2.71736
2.71799
2.71933
2.71806
2.71531
1
1.00002
1.00004
1.00012
1.00023
1.00072
1.0013
1.00405
1.00774
1.02197
1.05034
1.12327
1.34347
1.97134
2.51365
2.69131
2.68465
2.67092
2.68149
2.68692
2.69735
2.69968
2.69627
2.68711
2.66427
1
1.00002
1.00003
1.00011
1.0002
1.00062
1.00115
1.00351
1.00682
1.01923
1.04346
1.10958
1.2899
1.8672
2.44134
2.66475
2.66352
2.6586
2.67081
2.67156
2.67376
2.67252
2.66327
2.64167
2.59137
1.00001
1.00003
1.00006
1.0002
1.00035
1.00113
1.00206
1.00628
1.01256
1.0338
1.08597
1.201
1.58337
2.44087
2.68687
2.72804
2.7245
2.72467
2.73856
2.75079
2.76432
2.77335
2.78055
2.78585
2.79041
1.00001
1.00003
1.00006
1.00019
1.00035
1.00112
1.00204
1.00621
1.01242
1.03342
1.08521
1.19845
1.57889
2.43275
2.68403
2.72794
2.72414
2.72425
2.738
2.75
2.76343
2.77191
2.77916
2.78357
2.78739
1
1.00003
1.00006
1.00019
1.00034
1.00109
1.00199
1.00606
1.01215
1.03265
1.08359
1.19323
1.56891
2.41445
2.67681
2.72681
2.72241
2.72242
2.73596
2.74781
2.76104
2.76969
2.7755
2.78083
2.78344
1
1.00003
1.00005
1.00018
1.00033
1.00105
1.00192
1.00584
1.01172
1.03145
1.08113
1.18541
1.5533
2.38468
2.6655
2.72483
2.7198
2.71868
2.73194
2.74334
2.75563
2.76522
2.77164
2.77414
2.77854
1
1.00003
1.00005
1.00017
1.00031
1.00099
1.00182
1.00544
1.01121
1.02938
1.07816
1.17537
1.53223
2.34177
2.64963
2.72219
2.71635
2.71373
2.72627
2.73775
2.74905
2.7552
2.7628
2.76776
2.76795
1
1.00003
1.00005
1.00016
1.00029
1.00092
1.00171
1.00503
1.01055
1.02719
1.07346
1.1622
1.50703
2.28764
2.62886
2.71905
2.71239
2.70743
2.71959
2.72866
2.7419
2.74836
2.75208
2.7548
2.75823
1
1.00002
1.00005
1.00015
1.00027
1.00086
1.00158
1.00467
1.00974
1.02521
1.06746
1.15031
1.46309
2.20746
2.60014
2.71309
2.70642
2.69969
2.71182
2.71949
2.72699
2.73419
2.7389
2.7401
2.73761
1
1.00002
1.00004
1.00014
1.00025
1.0008
1.00145
1.00445
1.00876
1.02384
1.05915
1.13742
1.40514
2.09931
2.56328
2.70331
2.69503
2.6864
2.69901
2.70923
2.71736
2.71799
2.71933
2.71806
2.71531
1
1.00002
1.00004
1.00012
1.00023
1.00072
1.0013
1.00405
1.00774
1.02197
1.05034
1.12327
1.34346
1.97133
2.51365
2.69131
2.68465
2.67092
2.68149
2.68692
2.69735
2.69968
2.69627
2.68711
2.66427
1
1.00002
1.00003
1.00011
1.0002
1.00062
1.00115
1.00351
1.00682
1.01923
1.04346
1.10958
1.2899
1.86719
2.44134
2.66475
2.66352
2.6586
2.67081
2.67156
2.67376
2.67252
2.66327
2.64167
2.59137
0.999996
1.00002
1.00005
1.00019
1.00035
1.00112
1.00205
1.00627
1.01255
1.03379
1.08596
1.20095
1.58334
2.44074
2.68678
2.72796
2.72442
2.72459
2.73849
2.75071
2.76424
2.77326
2.78046
2.78576
2.79032
0.999996
1.00002
1.00005
1.00019
1.00034
1.00111
1.00203
1.0062
1.01241
1.03341
1.0852
1.19841
1.57886
2.43263
2.68394
2.72787
2.72407
2.72418
2.73792
2.74992
2.76334
2.77183
2.77908
2.78348
2.7873
0.999996
1.00002
1.00005
1.00018
1.00033
1.00108
1.00198
1.00605
1.01214
1.03263
1.08358
1.19318
1.56888
2.41432
2.67672
2.72674
2.72234
2.72234
2.73588
2.74773
2.76096
2.76961
2.77541
2.78075
2.78335
0.999996
1.00002
1.00005
1.00017
1.00032
1.00104
1.00191
1.00583
1.01171
1.03143
1.08112
1.18537
1.55328
2.38456
2.66541
2.72476
2.71973
2.7186
2.73186
2.74327
2.75556
2.76514
2.77156
2.77406
2.77846
0.999996
1.00002
1.00004
1.00016
1.0003
1.00098
1.00182
1.00543
1.0112
1.02936
1.07814
1.17532
1.53219
2.34163
2.64954
2.72212
2.71628
2.71366
2.7262
2.73767
2.74897
2.75513
2.76272
2.76768
2.76787
0.999995
1.00002
1.00004
1.00015
1.00028
1.00092
1.0017
1.00502
1.01054
1.02717
1.07345
1.16216
1.50699
2.28749
2.62878
2.71898
2.71233
2.70736
2.71952
2.72859
2.74183
2.74829
2.752
2.75472
2.75816
0.999995
1.00002
1.00004
1.00014
1.00026
1.00085
1.00157
1.00466
1.00973
1.0252
1.06744
1.15027
1.46303
2.2073
2.60005
2.71302
2.70635
2.69961
2.71174
2.71941
2.72691
2.73412
2.73883
2.74002
2.73754
0.999995
1.00001
1.00003
1.00013
1.00024
1.00079
1.00144
1.00444
1.00875
1.02381
1.05915
1.13739
1.40511
2.09917
2.5632
2.70324
2.69497
2.68634
2.69895
2.70916
2.71729
2.71792
2.71926
2.71799
2.71524
0.999995
1.00001
1.00003
1.00012
1.00022
1.00071
1.00129
1.00404
1.00773
1.02196
1.05033
1.12324
1.34341
1.97119
2.51355
2.69124
2.68457
2.67085
2.68142
2.68686
2.69728
2.69961
2.6962
2.68704
2.66421
0.999995
1.00001
1.00003
1.0001
1.00019
1.00061
1.00114
1.0035
1.00681
1.01922
1.04345
1.10954
1.28987
1.86704
2.44132
2.66469
2.66345
2.65853
2.67074
2.6715
2.6737
2.67245
2.66321
2.64161
2.59132
0.999997
1
1.00003
1.00006
1.00021
1.0004
1.00125
1.0024
1.00683
1.01492
1.03765
1.10265
1.23646
1.66091
2.48197
2.63223
2.62729
2.63141
2.64133
2.65168
2.65047
2.64289
2.62256
2.57294
2.4127
0.999996
1
1.00003
1.00005
1.00019
1.00035
1.00114
1.00208
1.0064
1.01265
1.03435
1.08558
1.20386
1.57656
2.40742
2.60848
2.62381
2.61666
2.61747
2.62575
2.62422
2.61028
2.57693
2.51912
2.35883
0.999996
1
1.00002
1.00004
1.00016
1.0003
1.00096
1.00176
1.00525
1.01084
1.0283
1.07509
1.1679
1.50879
2.27484
2.55835
2.61963
2.61098
2.59494
2.59503
2.59413
2.58045
2.54012
2.48452
2.36094
0.999995
0.999999
1.00002
1.00004
1.00013
1.00025
1.0008
1.00148
1.00437
1.00909
1.02352
1.06241
1.13915
1.42379
2.09892
2.49917
2.61447
2.60273
2.5885
2.56956
2.55741
2.54383
2.51171
2.46612
2.36723
0.999995
0.999998
1.00001
1.00003
1.00011
1.00021
1.00067
1.00123
1.0038
1.00736
1.02079
1.04732
1.11824
1.31685
1.93632
2.37579
2.57742
2.579
2.57502
2.56066
2.5358
2.50977
2.47257
2.44193
2.37225
0.999994
0.999999
1
1.00003
1.00006
1.00021
1.0004
1.00124
1.00237
1.00673
1.01469
1.03692
1.09988
1.23097
1.62841
2.36304
2.53426
2.5353
2.53913
2.53579
2.52196
2.49776
2.44644
2.40574
2.36422
0.999994
0.999997
1
1.00002
1.00005
1.00018
1.00032
1.00104
1.0019
1.00584
1.01151
1.0312
1.07798
1.18094
1.52303
2.27285
2.49885
2.52276
2.51158
2.50618
2.495
2.4809
2.44477
2.38582
2.34145
0.999994
0.999996
1
1.00002
1.00004
1.00013
1.00025
1.00078
1.00148
1.00423
1.00915
1.02304
1.06264
1.13802
1.42277
2.08629
2.43255
2.51469
2.49919
2.48762
2.46553
2.4449
2.42954
2.38577
2.33211
0.999993
0.999994
0.999999
1.00001
1.00003
1.00007
1.00024
1.00045
1.00129
1.0028
1.00701
1.01841
1.04152
1.12198
1.27273
1.79028
2.28803
2.48834
2.48579
2.47543
2.45678
2.42539
2.3982
2.3758
2.32993
0.999993
0.999994
0.999998
1
1.00003
1.00005
1.00019
1.00035
1.00111
1.00207
1.00614
1.01271
1.0331
1.08645
1.1984
1.5566
2.24528
2.42518
2.4491
2.44295
2.43382
2.41503
2.38156
2.35575
2.32377
0.999992
0.999993
0.999995
1
1.00001
1.00005
1.0001
1.00032
1.00063
1.00175
1.00388
1.00951
1.02566
1.05664
1.17192
1.38767
2.02903
2.3786
2.4373
2.42939
2.4127
2.39341
2.36947
2.33796
2.30916
0.999992
0.999993
0.999994
0.999999
1.00001
1.00004
1.00008
1.00026
1.00047
1.00147
1.00279
1.00788
1.0175
1.04299
1.11991
1.27237
1.72332
2.23844
2.41044
2.40917
2.39676
2.37925
2.35522
2.32969
2.29923
0.999992
0.999992
0.999994
0.999996
1.00001
1.00002
1.00007
1.00014
1.00045
1.00085
1.00257
1.00502
1.01409
1.03079
1.07982
1.19388
1.5714
2.08152
2.35496
2.38674
2.37992
2.3643
2.34044
2.31449
2.28797
0.999991
0.999992
0.999993
0.999994
1
1.00001
1.00005
1.0001
1.00032
1.0006
1.00184
1.00352
1.00979
1.02206
1.05353
1.14838
1.35017
1.87543
2.23935
2.35778
2.36105
2.35284
2.33454
2.30866
2.28074
0.999991
0.999991
0.999992
0.999994
0.999997
1.00001
1.00002
1.00009
1.00017
1.00054
1.00102
1.00305
1.006
1.01652
1.03677
1.09303
1.22991
1.66008
2.10181
2.29897
2.32431
2.32379
2.31703
2.29976
2.27605
0.999991
0.999991
0.999992
0.999993
0.999995
1
1.00001
1.00006
1.00012
1.00038
1.00071
1.00218
1.00413
1.01174
1.02551
1.06275
1.16507
1.41925
1.94915
2.24129
2.29635
2.30038
2.29404
2.28641
2.27067
0.999991
0.999991
0.999991
0.999992
0.999994
0.999997
1.00001
1.00003
1.00011
1.0002
1.00063
1.00118
1.00353
1.00695
1.01888
1.04385
1.10548
1.27992
1.75599
2.1265
2.26782
2.27467
2.26793
2.26228
2.25274
0.999991
0.999991
0.999991
0.999992
0.999993
0.999995
1
1.00002
1.00007
1.00014
1.00044
1.00081
1.00246
1.00467
1.01342
1.02777
1.07488
1.17111
1.51696
1.94338
2.20707
2.25797
2.25865
2.25553
2.25215
0.999991
0.999991
0.999991
0.999991
0.999992
0.999995
0.999998
1.00001
1.00003
1.00011
1.00022
1.00068
1.00128
1.0038
1.00756
1.02018
1.04824
1.11288
1.30628
1.81474
2.08472
2.2128
2.23179
2.24153
2.2507
0.999991
0.999991
0.999991
0.999991
0.999992
0.999993
0.999997
1
1.00003
1.00005
1.00018
1.00035
1.00106
1.002
1.00572
1.01195
1.03038
1.07735
1.17593
1.4702
2.00121
2.17462
2.21832
2.23475
2.25676
0.999991
0.999991
0.999991
0.999991
0.999991
0.999992
0.999995
0.999998
1.00001
1.00003
1.00012
1.00023
1.00072
1.00133
1.00401
1.0077
1.0213
1.04848
1.11539
1.31204
1.81797
2.09121
2.2106
2.249
2.28023
0.999991
0.999991
0.999991
0.999991
0.999991
0.999992
0.999993
0.999997
1
1.00003
1.00006
1.00019
1.00036
1.00109
1.00205
1.00596
1.01215
1.03152
1.07678
1.18376
1.46711
1.99993
2.19394
2.27468
2.33193
0.999991
0.999991
0.999991
0.999991
0.999991
0.999991
0.999992
0.999995
0.999999
1.00002
1.00004
1.00013
1.00024
1.00076
1.00138
1.00422
1.00802
1.02226
1.0507
1.11926
1.32862
1.8266
2.15301
2.33176
2.41881
0.999991
0.999991
0.999991
0.999991
0.999991
0.999991
0.999992
0.999994
0.999996
1.00001
1.00002
1.00009
1.00016
1.00053
1.00097
1.00299
1.0056
1.01619
1.03385
1.0889
1.21283
1.61307
2.09972
2.40787
2.51657
0.999991
0.999991
0.999991
0.999991
0.999991
0.999991
0.999991
0.999993
0.999995
1
1.00001
1.00006
1.00012
1.00038
1.00071
1.00215
1.00427
1.0114
1.02751
1.06418
1.18531
1.44053
2.06427
2.47935
2.63184
0.999991
0.999991
0.999991
0.999991
0.999991
0.999991
0.999991
0.999992
0.999995
0.999998
1.00001
1.00003
1.00013
1.00024
1.00075
1.00146
1.00413
1.0091
1.02262
1.06174
1.1377
1.41064
2.08491
2.5594
2.70115
0.999991
0.999991
0.999991
0.999991
0.999991
0.999991
0.999991
0.999992
0.999993
0.999999
1.00001
1.00004
1.00008
1.00025
1.00051
1.00137
1.00324
1.0077
1.02159
1.04689
1.14708
1.33294
1.94552
2.62698
2.77441
0.999991
0.999991
0.999991
0.999991
0.999991
0.999991
0.999991
0.999992
0.999994
0.999997
1.00001
1.00003
1.00011
1.0002
1.00066
1.00124
1.0038
1.00761
1.02093
1.05099
1.12292
1.34848
2.01121
2.59126
2.78477
0.999991
0.999991
0.999991
0.999991
0.999991
0.999991
0.999991
0.999992
0.999994
0.999997
1.00001
1.00003
1.0001
1.00019
1.00062
1.00117
1.00362
1.00721
1.02005
1.04851
1.11823
1.33407
1.98809
2.58066
2.79077
0.999991
0.999991
0.999991
0.999991
0.999991
0.999991
0.999991
0.999992
0.999993
0.999998
1
1.00003
1.00006
1.00021
1.00044
1.00119
1.00282
1.0068
1.01893
1.04203
1.12925
1.29403
1.80804
2.6194
2.8018
0.999991
0.999991
0.999991
0.999991
0.999991
0.999991
0.999991
0.999992
0.999994
0.999996
1.00001
1.00002
1.00009
1.00017
1.00055
1.00109
1.00305
1.00695
1.01736
1.04801
1.1086
1.32113
1.9116
2.56125
2.79126
0.999991
0.999991
0.999991
0.999991
0.999991
0.999991
0.999991
0.999992
0.999993
0.999998
1
1.00003
1.00006
1.00022
1.00042
1.00131
1.00262
1.0071
1.01718
1.04109
1.12036
1.27552
1.75909
2.6165
2.79111
0.999991
0.999991
0.999991
0.999991
0.999991
0.999991
0.999991
0.999992
0.999993
0.999997
1
1.00003
1.00006
1.00022
1.00041
1.0013
1.00255
1.00708
1.01652
1.04031
1.11644
1.26778
1.74143
2.6093
2.78807
0.999991
0.999991
0.999991
0.999991
0.999991
0.999991
0.999991
0.999992
0.999993
0.999996
1.00001
1.00002
1.00008
1.00016
1.00052
1.00102
1.00292
1.0065
1.01648
1.04489
1.10205
1.29818
1.84316
2.53141
2.76539
0.999991
0.999991
0.999991
0.999991
0.999991
0.999991
0.999991
0.999992
0.999993
0.999997
1
1.00003
1.00006
1.0002
1.0004
1.00116
1.00251
1.00638
1.01668
1.03828
1.11352
1.2542
1.71961
2.57899
2.76129
0.999991
0.999991
0.999991
0.999991
0.999991
0.999991
0.999991
0.999992
0.999993
0.999996
1.00001
1.00002
1.00008
1.00016
1.00051
1.001
1.00285
1.00636
1.01605
1.04369
1.09886
1.28885
1.8087
2.51661
2.74782
0.999991
0.999991
0.999991
0.999991
0.999991
0.999991
0.999991
0.999992
0.999993
0.999997
1
1.00003
1.00006
1.00021
1.0004
1.00126
1.00244
1.00693
1.01559
1.03891
1.10928
1.2521
1.70277
2.56423
2.74446
0.999991
0.999991
0.999991
0.999991
0.999991
0.999991
0.999991
0.999992
0.999993
0.999997
1
1.00003
1.00006
1.00021
1.0004
1.00127
1.00244
1.00691
1.01555
1.03881
1.10895
1.25144
1.69925
2.56119
2.73632
0.999991
0.999991
0.999991
0.999991
0.999991
0.999991
0.999991
0.999992
0.999994
0.999996
1.00001
1.00002
1.00009
1.00016
1.00053
1.00101
1.00301
1.00621
1.01638
1.04174
1.09663
1.27987
1.76789
2.50492
2.73399
0.999991
0.999991
0.999991
0.999991
0.999991
0.999991
0.999991
0.999992
0.999994
0.999996
1.00001
1.00002
1.00009
1.00017
1.00056
1.00102
1.00323
1.00614
1.0177
1.04
1.09824
1.27398
1.75949
2.5041
2.73078
1.00001
1.00001
1.00004
1.00007
1.00022
1.00041
1.00126
1.0024
1.00685
1.01493
1.03766
1.10267
1.2365
1.66098
2.48205
2.63232
2.62734
2.63147
2.6414
2.65174
2.65054
2.64295
2.62262
2.573
2.41275
1
1.00001
1.00003
1.00006
1.0002
1.00036
1.00115
1.00209
1.00641
1.01266
1.03437
1.08559
1.20391
1.5766
2.40754
2.60856
2.62386
2.61672
2.61753
2.62581
2.62428
2.61034
2.57698
2.51917
2.35887
1
1.00001
1.00003
1.00005
1.00017
1.00031
1.00096
1.00177
1.00526
1.01085
1.02832
1.07511
1.16795
1.50884
2.27498
2.55843
2.61968
2.61103
2.595
2.59508
2.59418
2.5805
2.54018
2.48456
2.36098
1
1.00001
1.00002
1.00004
1.00014
1.00026
1.00081
1.00149
1.00438
1.0091
1.02353
1.06243
1.13919
1.42385
2.09907
2.49926
2.61453
2.60279
2.58855
2.56962
2.55746
2.54388
2.51176
2.46617
2.36726
1
1.00001
1.00002
1.00004
1.00012
1.00022
1.00068
1.00124
1.00381
1.00737
1.0208
1.04734
1.11828
1.3169
1.93649
2.37588
2.5775
2.57906
2.57507
2.56071
2.53585
2.50981
2.47262
2.44197
2.37229
1
1.00001
1.00001
1.00004
1.00007
1.00022
1.00041
1.00125
1.00238
1.00674
1.01471
1.03694
1.0999
1.23101
1.62847
2.36308
2.53433
2.53537
2.53919
2.53584
2.52201
2.49781
2.44649
2.40578
2.36425
1
1.00001
1.00001
1.00003
1.00006
1.00018
1.00033
1.00105
1.00191
1.00585
1.01152
1.03121
1.078
1.18099
1.52308
2.27296
2.49893
2.52281
2.51163
2.50623
2.49504
2.48094
2.44481
2.38586
2.34148
1
1
1.00001
1.00002
1.00004
1.00014
1.00026
1.00079
1.00149
1.00424
1.00916
1.02306
1.06265
1.13807
1.42283
2.08644
2.43264
2.51474
2.49923
2.48767
2.46558
2.44494
2.42958
2.38581
2.33215
1
1
1.00001
1.00001
1.00004
1.00008
1.00024
1.00046
1.0013
1.00281
1.00703
1.01842
1.04154
1.12201
1.2728
1.79046
2.28814
2.4884
2.48584
2.47548
2.45683
2.42544
2.39825
2.37584