/*--------------------------------*- C++ -*----------------------------------*\
| =========                 |                                                 |
| \\      /  F ield         | OpenFOAM: The Open Source CFD Toolbox           |
|  \\    /   O peration     | Version:  4.1                                   |
|   \\  /    A nd           | Web:      www.OpenFOAM.org                      |
|    \\/     M anipulation  |                                                 |
\*---------------------------------------------------------------------------*/
FoamFile
{
    version     2.0;
    format      ascii;
    class       volVectorField;
    location    "8";
    object      U;
}
// * * * * * * * * * * * * * * * * * * * * * * * * * * * * * * * * * * * * * //

dimensions      [0 1 -1 0 0 0 0];

internalField   nonuniform List<vector> 
52500
(
(2.99999 1.39149e-08 -0.00571426)
(2.99998 7.75775e-08 -0.00571442)
(2.99995 2.87871e-07 -0.00571467)
(2.99987 7.39819e-07 -0.00571544)
(2.99971 2.03277e-06 -0.00571686)
(2.99924 4.6528e-06 -0.00572117)
(2.99833 1.20585e-05 -0.00572947)
(2.99554 2.71445e-05 -0.00575289)
(2.9905 6.94888e-05 -0.00580645)
(2.97236 0.000156976 -0.00592286)
(2.93866 0.000403664 -0.00632803)
(2.8162 0.00100735 -0.00696766)
(2.47471 0.00287933 -0.00972575)
(1.672 0.00731704 -0.0149104)
(0.726143 0.0199384 -0.018021)
(0.524917 0.0208363 -0.0184674)
(0.564829 0.0222122 -0.0185012)
(0.569251 0.0244467 -0.0185691)
(0.519779 0.0267194 -0.0187469)
(0.434125 0.0290247 -0.0189291)
(0.34889 0.0317535 -0.0191266)
(0.277758 0.0350454 -0.0192971)
(0.206577 0.0385818 -0.0194624)
(0.124867 0.0427768 -0.0196226)
(0.0556406 0.049016 -0.019787)
(2.99999 4.25449e-08 -0.00571426)
(2.99998 2.36855e-07 -0.00571442)
(2.99995 8.79395e-07 -0.00571466)
(2.99987 2.25788e-06 -0.00571543)
(2.99971 6.20814e-06 -0.00571682)
(2.99925 1.41972e-05 -0.00572109)
(2.99835 3.68494e-05 -0.0057293)
(2.99559 8.27024e-05 -0.00575242)
(2.99061 0.000213011 -0.00580542)
(2.97264 0.000477958 -0.00592033)
(2.93938 0.00124665 -0.00632225)
(2.81809 0.00308097 -0.00695052)
(2.48039 0.00895675 -0.00969043)
(1.6845 0.0227449 -0.0148309)
(0.733795 0.0608746 -0.0179242)
(0.522774 0.0608228 -0.0183963)
(0.56379 0.0624343 -0.0184266)
(0.568735 0.0668604 -0.018487)
(0.518935 0.0711802 -0.0186566)
(0.433164 0.0754691 -0.0188303)
(0.347933 0.0803547 -0.0190199)
(0.276288 0.0859045 -0.0191789)
(0.204042 0.0911244 -0.0193368)
(0.120989 0.096305 -0.0194827)
(0.0514862 0.101936 -0.0196299)
(2.99999 7.29424e-08 -0.00571426)
(2.99998 4.05809e-07 -0.00571441)
(2.99995 1.50674e-06 -0.00571465)
(2.99988 3.86753e-06 -0.0057154)
(2.99972 1.06314e-05 -0.00571676)
(2.99927 2.43078e-05 -0.00572093)
(2.99839 6.3019e-05 -0.00572894)
(2.99569 0.000141559 -0.0057515)
(2.99084 0.000363105 -0.00580334)
(2.97321 0.00081631 -0.00591531)
(2.94089 0.00212656 -0.00631032)
(2.8221 0.00521134 -0.00691657)
(2.49264 0.0153616 -0.00961733)
(1.7123 0.0390252 -0.014677)
(0.751947 0.105335 -0.017785)
(0.520402 0.103277 -0.0183147)
(0.564193 0.104996 -0.0183401)
(0.570812 0.112579 -0.0183923)
(0.521005 0.120288 -0.0185531)
(0.435679 0.128511 -0.0187174)
(0.351046 0.137565 -0.018897)
(0.279229 0.147399 -0.0190482)
(0.206084 0.156902 -0.019188)
(0.121744 0.165758 -0.0193331)
(0.0506243 0.173143 -0.0194673)
(3 1.06982e-07 -0.00571426)
(2.99998 5.94097e-07 -0.00571441)
(2.99996 2.21322e-06 -0.00571464)
(2.99988 5.69707e-06 -0.00571535)
(2.99973 1.57042e-05 -0.00571667)
(2.9993 3.61603e-05 -0.00572068)
(2.99845 9.30105e-05 -0.00572841)
(2.99584 0.000215811 -0.00575008)
(2.99118 0.000520278 -0.00580022)
(2.97408 0.00125014 -0.00590763)
(2.94315 0.0029962 -0.00629245)
(2.82823 0.0073802 -0.00686635)
(2.51137 0.0216636 -0.00950599)
(1.75556 0.0551875 -0.0144432)
(0.780006 0.150692 -0.0176051)
(0.516799 0.145617 -0.0182251)
(0.565717 0.147074 -0.0182453)
(0.57551 0.157768 -0.0182821)
(0.526212 0.168918 -0.018433)
(0.441988 0.181354 -0.0185848)
(0.358337 0.195032 -0.0187481)
(0.286667 0.209727 -0.0188957)
(0.212705 0.224176 -0.01903)
(0.126478 0.23744 -0.0191489)
(0.0520189 0.247118 -0.0192942)
(3 1.34269e-07 -0.00571426)
(2.99998 7.44409e-07 -0.0057144)
(2.99996 2.77896e-06 -0.00571461)
(2.99989 7.15686e-06 -0.00571529)
(2.99974 1.97741e-05 -0.00571653)
(2.99933 4.56209e-05 -0.0057203)
(2.99854 0.000117654 -0.00572766)
(2.99604 0.00027348 -0.00574764)
(2.9917 0.000663316 -0.0057964)
(2.97524 0.00157107 -0.00589446)
(2.94613 0.00396412 -0.00627122)
(2.8364 0.00950509 -0.00680107)
(2.53638 0.0273109 -0.00935839)
(1.81481 0.0713087 -0.0141202)
(0.817529 0.196874 -0.0173804)
(0.511378 0.187862 -0.0181293)
(0.567918 0.188751 -0.0181435)
(0.582312 0.202331 -0.0181622)
(0.533983 0.216703 -0.0183001)
(0.451587 0.233225 -0.0184417)
(0.36949 0.251635 -0.0185866)
(0.29829 0.271622 -0.0187)
(0.223436 0.291782 -0.0188315)
(0.134536 0.310373 -0.0189582)
(0.0554758 0.323135 -0.0190739)
(3 1.45753e-07 -0.00571425)
(2.99998 8.06757e-07 -0.00571439)
(2.99996 3.01273e-06 -0.00571459)
(2.99989 7.72883e-06 -0.00571522)
(2.99976 2.13929e-05 -0.00571638)
(2.99938 4.90072e-05 -0.00571989)
(2.99864 0.0001287 -0.00572679)
(2.99629 0.000287282 -0.00574514)
(2.99226 0.00076436 -0.00579147)
(2.97679 0.00165232 -0.00588094)
(2.94994 0.00483523 -0.00623773)
(2.84615 0.0108404 -0.0067177)
(2.56846 0.0346059 -0.0091813)
(1.89043 0.0881035 -0.0137162)
(0.862119 0.246358 -0.0171096)
(0.502008 0.231659 -0.0180302)
(0.569691 0.230511 -0.0180388)
(0.590556 0.246446 -0.0180332)
(0.543918 0.263782 -0.0181598)
(0.464323 0.284608 -0.0182745)
(0.384566 0.308309 -0.0184184)
(0.314499 0.334479 -0.0185189)
(0.239204 0.361737 -0.0186108)
(0.146905 0.387887 -0.018712)
(0.0611263 0.406101 -0.0188463)
(3 1.46959e-07 -0.00571425)
(2.99999 8.12249e-07 -0.00571438)
(2.99996 3.02852e-06 -0.00571456)
(2.9999 7.7198e-06 -0.00571515)
(2.99978 2.13619e-05 -0.00571622)
(2.99942 4.83149e-05 -0.00571948)
(2.99874 0.00013017 -0.00572585)
(2.99657 0.0002705 -0.00574292)
(2.99284 0.000831145 -0.00578545)
(2.97858 0.00154528 -0.00586872)
(2.95399 0.00564876 -0.00619533)
(2.85919 0.0113959 -0.00664182)
(2.60862 0.0429954 -0.00888067)
(1.98564 0.104093 -0.0131558)
(0.92431 0.29676 -0.0167541)
(0.498349 0.277617 -0.0178999)
(0.576839 0.272922 -0.0179117)
(0.604261 0.290063 -0.0178878)
(0.559013 0.309735 -0.0180077)
(0.482629 0.334937 -0.0181009)
(0.405727 0.364671 -0.0181932)
(0.337274 0.398461 -0.0182819)
(0.262018 0.434992 -0.018362)
(0.166177 0.472144 -0.0184356)
(0.071133 0.500804 -0.0185236)
(3 1.59563e-07 -0.00571425)
(2.99999 8.82352e-07 -0.00571437)
(2.99997 3.28301e-06 -0.00571454)
(2.99991 8.37811e-06 -0.00571508)
(2.9998 2.31259e-05 -0.00571607)
(2.99947 5.2346e-05 -0.00571911)
(2.99883 0.000140741 -0.00572489)
(2.99687 0.000290955 -0.00574151)
(2.99333 0.000914504 -0.00577826)
(2.98073 0.00156619 -0.00586067)
(2.95835 0.00643942 -0.00613643)
(2.8747 0.0121623 -0.00656327)
(2.65616 0.048058 -0.00848597)
(2.09961 0.11541 -0.0124363)
(1.00849 0.34004 -0.0163149)
(0.509775 0.325808 -0.0177225)
(0.594326 0.319081 -0.0177303)
(0.626962 0.334861 -0.0176928)
(0.582454 0.355296 -0.0178139)
(0.509465 0.384566 -0.0179123)
(0.435605 0.420829 -0.0179923)
(0.369399 0.463526 -0.0180194)
(0.295409 0.511993 -0.0180549)
(0.196884 0.565719 -0.0180862)
(0.0888048 0.615481 -0.0181507)
(3 1.87365e-07 -0.00571425)
(2.99999 1.03064e-06 -0.00571435)
(2.99997 3.82579e-06 -0.00571451)
(2.99992 9.80778e-06 -0.005715)
(2.99982 2.69527e-05 -0.00571589)
(2.99952 6.15929e-05 -0.00571862)
(2.99894 0.000161536 -0.0057238)
(2.99721 0.0003535 -0.00573898)
(2.99391 0.000983298 -0.00577073)
(2.98311 0.00192836 -0.0058495)
(2.96303 0.00653979 -0.00607368)
(2.89132 0.0127519 -0.00647699)
(2.70675 0.0471347 -0.00806671)
(2.22701 0.114286 -0.0116137)
(1.11865 0.347925 -0.0157816)
(0.549233 0.36989 -0.0174968)
(0.626868 0.370695 -0.0175229)
(0.660338 0.381181 -0.0174663)
(0.616797 0.401029 -0.0175751)
(0.547954 0.433773 -0.0176339)
(0.477431 0.477212 -0.0177123)
(0.414153 0.529073 -0.0177276)
(0.34436 0.591637 -0.0177001)
(0.248731 0.670871 -0.0176348)
(0.123007 0.764185 -0.0175216)
(3 3.4709e-07 -0.00571425)
(2.99999 6.52964e-07 -0.00571434)
(2.99997 5.11363e-06 -0.00571448)
(2.99993 7.69071e-06 -0.0057149)
(2.99984 3.48097e-05 -0.00571569)
(2.99958 4.98066e-05 -0.00571805)
(2.99907 0.000209308 -0.00572263)
(2.99756 0.000281821 -0.00573574)
(2.99465 0.00128323 -0.00576374)
(2.98531 0.00136648 -0.00583276)
(2.96755 0.00865481 -0.00602416)
(2.9064 0.00687888 -0.00639315)
(2.75124 0.0556762 -0.00770547)
(2.33926 0.0881088 -0.0109505)
(1.24652 0.319463 -0.0152095)
(0.614132 0.410943 -0.0171747)
(0.663278 0.431233 -0.0172378)
(0.694219 0.428063 -0.0172614)
(0.657787 0.44803 -0.0173687)
(0.596724 0.482275 -0.0173902)
(0.531399 0.532193 -0.0173959)
(0.473358 0.592647 -0.0173629)
(0.415749 0.673954 -0.0172572)
(0.338568 0.795604 -0.0170409)
(0.189512 1.00259 -0.016618)
(2.99999 1.42764e-08 -2.64125e-09)
(2.99998 7.76045e-08 -8.60821e-09)
(2.99995 2.88324e-07 -1.01834e-08)
(2.99987 7.39907e-07 -1.59264e-08)
(2.99971 2.03264e-06 -1.63116e-08)
(2.99924 4.65155e-06 -2.15891e-08)
(2.99833 1.20548e-05 -2.21667e-08)
(2.99554 2.7135e-05 -3.02421e-08)
(2.9905 6.94697e-05 -3.22321e-08)
(2.97236 0.00015693 -6.58318e-08)
(2.93864 0.000403606 -4.54445e-08)
(2.81618 0.00100726 -2.19367e-07)
(2.47467 0.0028792 -1.92382e-07)
(1.67189 0.00731713 -6.985e-07)
(0.726097 0.019938 -6.91028e-07)
(0.524951 0.0208366 -1.30498e-08)
(0.564849 0.0222127 -5.30109e-08)
(0.569262 0.0244473 -9.97435e-08)
(0.519789 0.0267202 -1.03069e-07)
(0.434135 0.0290257 -1.03928e-07)
(0.348899 0.0317545 -1.02833e-07)
(0.277765 0.0350465 -1.05859e-07)
(0.206582 0.038583 -1.08332e-07)
(0.12487 0.0427782 -1.1031e-07)
(0.0556407 0.049017 -1.114e-07)
(2.99999 4.35712e-08 -2.63402e-09)
(2.99998 2.36999e-07 -8.61399e-09)
(2.99995 8.80754e-07 -1.01767e-08)
(2.99987 2.25824e-06 -1.59325e-08)
(2.99971 6.20808e-06 -1.6317e-08)
(2.99925 1.41945e-05 -2.16112e-08)
(2.99835 3.68413e-05 -2.22164e-08)
(2.99559 8.26861e-05 -3.03585e-08)
(2.99061 0.00021297 -3.24275e-08)
(2.97263 0.000477906 -6.63803e-08)
(2.93937 0.00124655 -4.56849e-08)
(2.81807 0.00308096 -2.20058e-07)
(2.48035 0.00895641 -1.92492e-07)
(1.6844 0.0227449 -6.97265e-07)
(0.73375 0.0608716 -6.95748e-07)
(0.522809 0.0608217 -8.99064e-09)
(0.56381 0.062434 -5.15936e-08)
(0.568747 0.0668605 -9.89481e-08)
(0.518946 0.071181 -1.02023e-07)
(0.433174 0.0754706 -1.02788e-07)
(0.347943 0.0803568 -1.01899e-07)
(0.276296 0.085907 -1.05068e-07)
(0.204047 0.0911271 -1.07587e-07)
(0.120991 0.0963078 -1.0946e-07)
(0.0514863 0.101937 -1.10449e-07)
(2.99999 7.45772e-08 -2.62073e-09)
(2.99998 4.05836e-07 -8.62338e-09)
(2.99995 1.50789e-06 -1.01641e-08)
(2.99987 3.86502e-06 -1.5943e-08)
(2.99972 1.0622e-05 -1.63231e-08)
(2.99927 2.42784e-05 -2.16404e-08)
(2.99839 6.295e-05 -2.22772e-08)
(2.99568 0.000141309 -3.04108e-08)
(2.99083 0.000362932 -3.27324e-08)
(2.9732 0.000814735 -6.61088e-08)
(2.94088 0.00212683 -4.62887e-08)
(2.82208 0.00520991 -2.18098e-07)
(2.4926 0.0153626 -1.95644e-07)
(1.71219 0.0390267 -7.00936e-07)
(0.751899 0.105333 -7.18999e-07)
(0.520436 0.103278 -2.80925e-09)
(0.564212 0.104997 -4.95715e-08)
(0.570822 0.11258 -9.7601e-08)
(0.521015 0.12029 -9.97116e-08)
(0.435689 0.128514 -9.97351e-08)
(0.351055 0.137569 -9.97855e-08)
(0.279236 0.147403 -1.03238e-07)
(0.206089 0.156906 -1.06027e-07)
(0.121747 0.165762 -1.07998e-07)
(0.0506246 0.173146 -1.09317e-07)
(2.99999 1.09757e-07 -2.60144e-09)
(2.99998 5.94752e-07 -8.64221e-09)
(2.99995 2.21835e-06 -1.01624e-08)
(2.99988 5.69681e-06 -1.60015e-08)
(2.99973 1.57126e-05 -1.64617e-08)
(2.99929 3.61619e-05 -2.20136e-08)
(2.99845 9.30157e-05 -2.30204e-08)
(2.99583 0.000215814 -3.39688e-08)
(2.99117 0.000520255 -3.12357e-08)
(2.97408 0.00125043 -9.33123e-08)
(2.94314 0.00299464 -1.55387e-08)
(2.82821 0.00738106 -2.46423e-07)
(2.51134 0.021661 -1.60395e-07)
(1.75547 0.055184 -6.9913e-07)
(0.779975 0.150682 -7.38621e-07)
(0.51685 0.145615 8.95642e-09)
(0.565748 0.147075 -4.9368e-08)
(0.57553 0.15777 -9.80282e-08)
(0.52623 0.168921 -9.84028e-08)
(0.442005 0.181358 -9.59841e-08)
(0.358351 0.195038 -9.68107e-08)
(0.286677 0.209733 -1.00841e-07)
(0.212713 0.224182 -1.03858e-07)
(0.126482 0.237446 -1.05858e-07)
(0.0520198 0.247122 -1.0798e-07)
(2.99999 1.37794e-07 -2.56525e-09)
(2.99998 7.46126e-07 -8.65911e-09)
(2.99996 2.78766e-06 -1.00881e-08)
(2.99989 7.1566e-06 -1.604e-08)
(2.99974 1.98015e-05 -1.61774e-08)
(2.99933 4.5651e-05 -2.17524e-08)
(2.99854 0.00011773 -2.22361e-08)
(2.99604 0.000273717 -3.04489e-08)
(2.9917 0.00066344 -3.32864e-08)
(2.97523 0.00157286 -6.01357e-08)
(2.94612 0.00396208 -7.93815e-08)
(2.83638 0.0095073 -1.80939e-07)
(2.53633 0.0273065 -2.31206e-07)
(1.81469 0.0713028 -7.3802e-07)
(0.817477 0.196857 -8.01623e-07)
(0.511416 0.187857 3.78402e-08)
(0.567939 0.188752 -3.34556e-08)
(0.582325 0.202333 -9.19019e-08)
(0.533998 0.216707 -9.29686e-08)
(0.451603 0.233232 -9.1394e-08)
(0.369505 0.251643 -9.19067e-08)
(0.298302 0.271631 -9.58751e-08)
(0.223445 0.291791 -9.95963e-08)
(0.134541 0.310382 -1.02302e-07)
(0.0554775 0.323142 -1.05422e-07)
(3 1.4896e-07 -2.53084e-09)
(2.99998 8.09254e-07 -8.67004e-09)
(2.99996 3.01755e-06 -1.00372e-08)
(2.99989 7.73179e-06 -1.61655e-08)
(2.99976 2.14042e-05 -1.59664e-08)
(2.99938 4.90195e-05 -2.18905e-08)
(2.99864 0.000128726 -2.21422e-08)
(2.99629 0.000287334 -3.07641e-08)
(2.99226 0.00076443 -3.32143e-08)
(2.97678 0.00165255 -6.13727e-08)
(2.94992 0.0048354 -8.19382e-08)
(2.84613 0.0108412 -1.81376e-07)
(2.5684 0.0346043 -2.43035e-07)
(1.89031 0.0881022 -7.63478e-07)
(0.862062 0.246341 -8.7848e-07)
(0.502041 0.23165 6.51495e-08)
(0.569704 0.230508 -1.85672e-08)
(0.590561 0.246447 -8.65231e-08)
(0.543926 0.263785 -8.69369e-08)
(0.464335 0.284614 -8.37395e-08)
(0.384578 0.308318 -8.35094e-08)
(0.31451 0.334491 -8.90088e-08)
(0.239213 0.361749 -9.38232e-08)
(0.146911 0.387899 -9.7066e-08)
(0.0611285 0.406111 -1.01723e-07)
(3 1.49196e-07 -2.50101e-09)
(2.99998 8.15933e-07 -8.66549e-09)
(2.99996 3.0271e-06 -1.00484e-08)
(2.9999 7.73122e-06 -1.60754e-08)
(2.99978 2.13527e-05 -1.60229e-08)
(2.99942 4.83186e-05 -2.17088e-08)
(2.99874 0.000130156 -2.19813e-08)
(2.99657 0.000270428 -2.98738e-08)
(2.99284 0.000831204 -3.29507e-08)
(2.97857 0.00154422 -5.69609e-08)
(2.95398 0.00565092 -8.05256e-08)
(2.85917 0.0113952 -1.68316e-07)
(2.60857 0.0429997 -2.72167e-07)
(1.9855 0.104101 -7.68152e-07)
(0.924241 0.296757 -9.88814e-07)
(0.498369 0.277611 7.28308e-08)
(0.576843 0.272917 -1.09163e-08)
(0.604258 0.290061 -8.42564e-08)
(0.559014 0.309736 -8.46385e-08)
(0.482635 0.334941 -7.97062e-08)
(0.405735 0.36468 -7.61492e-08)
(0.337283 0.398472 -8.07068e-08)
(0.262027 0.435006 -8.56198e-08)
(0.166183 0.472159 -8.92895e-08)
(0.0711353 0.500817 -9.48807e-08)
(3 1.61831e-07 -2.48588e-09)
(2.99999 8.86056e-07 -8.6355e-09)
(2.99997 3.28317e-06 -1.0133e-08)
(2.99991 8.38911e-06 -1.59274e-08)
(2.99979 2.31291e-05 -1.63179e-08)
(2.99947 5.23739e-05 -2.16952e-08)
(2.99882 0.000140795 -2.24355e-08)
(2.99687 0.000291119 -3.18907e-08)
(2.99332 0.000914739 -3.08544e-08)
(2.98073 0.00156696 -8.24176e-08)
(2.95834 0.00644098 -2.69026e-08)
(2.87469 0.0121647 -2.24502e-07)
(2.65611 0.0480615 -1.85863e-07)
(2.0995 0.115421 -7.40698e-07)
(1.00844 0.340046 -1.04395e-06)
(0.509801 0.3258 6.0042e-08)
(0.594332 0.31907 -2.14845e-08)
(0.62696 0.334855 -8.15131e-08)
(0.582454 0.355295 -8.11359e-08)
(0.509467 0.384569 -7.49672e-08)
(0.435611 0.420836 -7.07357e-08)
(0.369405 0.463537 -7.39471e-08)
(0.295416 0.512008 -7.77372e-08)
(0.196889 0.565736 -8.10191e-08)
(0.088807 0.615497 -8.63675e-08)
(3 1.87186e-07 -2.45563e-09)
(2.99999 1.03359e-06 -8.6306e-09)
(2.99997 3.82273e-06 -1.01152e-08)
(2.99992 9.80567e-06 -1.58732e-08)
(2.99981 2.69555e-05 -1.61384e-08)
(2.99952 6.16173e-05 -2.12581e-08)
(2.99894 0.000161618 -2.14203e-08)
(2.99721 0.000353814 -2.772e-08)
(2.99391 0.000983625 -3.13662e-08)
(2.98311 0.00193067 -4.67497e-08)
(2.96302 0.00654033 -6.42553e-08)
(2.8913 0.012757 -1.50067e-07)
(2.70671 0.0471403 -2.42514e-07)
(2.22689 0.114307 -6.79868e-07)
(1.11857 0.34798 -1.12563e-06)
(0.549222 0.369891 -1.91212e-08)
(0.626861 0.370681 -5.00169e-08)
(0.660332 0.381172 -7.65183e-08)
(0.616794 0.401025 -7.52277e-08)
(0.547953 0.433773 -6.91511e-08)
(0.477434 0.477217 -6.6285e-08)
(0.414157 0.529084 -6.80838e-08)
(0.344366 0.591652 -6.94753e-08)
(0.248736 0.670889 -7.14191e-08)
(0.123009 0.764204 -7.52131e-08)
(3 3.32864e-07 -2.48952e-09)
(2.99999 7.0423e-07 -8.57436e-09)
(2.99997 4.99954e-06 -1.02388e-08)
(2.99993 7.72342e-06 -1.59195e-08)
(2.99984 3.46765e-05 -1.62161e-08)
(2.99958 4.98527e-05 -2.12603e-08)
(2.99907 0.000209211 -2.12686e-08)
(2.99756 0.000281953 -2.73102e-08)
(2.99464 0.00128331 -3.0093e-08)
(2.98531 0.00136715 -4.46636e-08)
(2.96755 0.00865553 -5.31588e-08)
(2.90638 0.00688355 -1.49094e-07)
(2.75121 0.0556807 -1.56917e-07)
(2.33919 0.0881384 -5.02026e-07)
(1.24644 0.319525 -6.94302e-07)
(0.614129 0.410929 -2.73263e-07)
(0.66329 0.431219 -1.19408e-07)
(0.694229 0.428054 -7.69516e-08)
(0.657793 0.448026 -7.11969e-08)
(0.596728 0.482275 -6.88132e-08)
(0.531402 0.532197 -6.48464e-08)
(0.473362 0.592656 -6.40086e-08)
(0.415753 0.673968 -6.33589e-08)
(0.338572 0.795622 -6.24112e-08)
(0.189514 1.00262 -6.45387e-08)
(2.99999 1.42763e-08 -4.75252e-13)
(2.99998 7.7604e-08 -2.47202e-12)
(2.99995 2.88322e-07 -5.85632e-12)
(2.99987 7.39901e-07 -1.22935e-11)
(2.99971 2.03262e-06 -2.59129e-11)
(2.99924 4.65152e-06 -4.96961e-11)
(2.99833 1.20547e-05 -1.1688e-10)
(2.99554 2.71349e-05 -2.29348e-10)
(2.9905 6.94694e-05 -6.06777e-10)
(2.97236 0.000156929 -1.21818e-09)
(2.93864 0.000403604 -3.28735e-09)
(2.81618 0.00100726 -7.98574e-09)
(2.47466 0.00287919 -1.94091e-08)
(1.67188 0.00731712 -4.77433e-08)
(0.726091 0.0199379 -5.79626e-08)
(0.524952 0.0208366 8.49364e-10)
(0.56485 0.0222127 -2.06873e-09)
(0.569262 0.0244473 -6.03421e-09)
(0.519789 0.0267202 -6.30814e-09)
(0.434135 0.0290257 -6.2284e-09)
(0.348899 0.0317545 -5.71712e-09)
(0.277765 0.0350465 -5.54649e-09)
(0.206582 0.038583 -5.53867e-09)
(0.12487 0.0427782 -5.58293e-09)
(0.0556408 0.049017 -5.62069e-09)
(2.99999 4.35709e-08 -4.77451e-13)
(2.99998 2.36998e-07 -2.48142e-12)
(2.99995 8.80748e-07 -5.88818e-12)
(2.99987 2.25823e-06 -1.23635e-11)
(2.99971 6.20805e-06 -2.60995e-11)
(2.99925 1.41945e-05 -5.00852e-11)
(2.99835 3.68411e-05 -1.17819e-10)
(2.99559 8.26857e-05 -2.31389e-10)
(2.99061 0.000212969 -6.10789e-10)
(2.97263 0.000477904 -1.22797e-09)
(2.93937 0.00124655 -3.30357e-09)
(2.81807 0.00308096 -7.99398e-09)
(2.48034 0.00895639 -1.95088e-08)
(1.68439 0.0227448 -4.78992e-08)
(0.733744 0.0608713 -5.8599e-08)
(0.522811 0.0608217 1.14919e-09)
(0.563811 0.062434 -1.98475e-09)
(0.568747 0.0668605 -6.03772e-09)
(0.518946 0.071181 -6.27802e-09)
(0.433174 0.0754706 -6.16139e-09)
(0.347943 0.0803568 -5.65326e-09)
(0.276296 0.0859071 -5.48917e-09)
(0.204047 0.0911272 -5.49343e-09)
(0.120991 0.0963078 -5.54116e-09)
(0.0514864 0.101937 -5.57732e-09)
(2.99999 7.45759e-08 -4.819e-13)
(2.99998 4.0583e-07 -2.50165e-12)
(2.99995 1.50787e-06 -5.95092e-12)
(2.99987 3.86495e-06 -1.24981e-11)
(2.99972 1.06218e-05 -2.64272e-11)
(2.99927 2.42779e-05 -5.07154e-11)
(2.99839 6.29489e-05 -1.19282e-10)
(2.99568 0.000141305 -2.33366e-10)
(2.99083 0.000362929 -6.17859e-10)
(2.9732 0.000814714 -1.23062e-09)
(2.94088 0.00212683 -3.33799e-09)
(2.82208 0.00520989 -7.96408e-09)
(2.4926 0.0153626 -1.97567e-08)
(1.71219 0.0390267 -4.83428e-08)
(0.751894 0.105332 -6.0395e-08)
(0.520438 0.103278 1.80706e-09)
(0.564213 0.104997 -1.78474e-09)
(0.570822 0.11258 -6.05637e-09)
(0.521015 0.12029 -6.2389e-09)
(0.435689 0.128514 -6.03841e-09)
(0.351055 0.137569 -5.57512e-09)
(0.279236 0.147403 -5.41868e-09)
(0.206089 0.156906 -5.43333e-09)
(0.121747 0.165762 -5.48384e-09)
(0.0506246 0.173146 -5.51542e-09)
(2.99999 1.09757e-07 -5.05132e-13)
(2.99998 5.9475e-07 -2.59265e-12)
(2.99995 2.21835e-06 -6.29266e-12)
(2.99988 5.69678e-06 -1.32838e-11)
(2.99973 1.57126e-05 -2.87245e-11)
(2.99929 3.61617e-05 -5.62275e-11)
(2.99845 9.30154e-05 -1.30435e-10)
(2.99583 0.000215813 -2.84753e-10)
(2.99117 0.000520254 -5.99039e-10)
(2.97408 0.00125043 -1.61795e-09)
(2.94314 0.00299463 -2.95271e-09)
(2.82821 0.00738104 -8.25696e-09)
(2.51133 0.0216611 -1.96677e-08)
(1.75546 0.0551839 -4.90828e-08)
(0.779969 0.150681 -6.32883e-08)
(0.516852 0.145615 2.74019e-09)
(0.565748 0.147075 -1.55911e-09)
(0.57553 0.15777 -6.02082e-09)
(0.52623 0.168921 -6.15343e-09)
(0.442005 0.181358 -5.838e-09)
(0.358351 0.195038 -5.40521e-09)
(0.286677 0.209733 -5.33604e-09)
(0.212713 0.224183 -5.34619e-09)
(0.126482 0.237446 -5.39608e-09)
(0.0520198 0.247123 -5.4372e-09)
(2.99999 1.37795e-07 -4.91958e-13)
(2.99998 7.46132e-07 -2.52635e-12)
(2.99996 2.78768e-06 -6.06334e-12)
(2.99989 7.15664e-06 -1.29154e-11)
(2.99974 1.98016e-05 -2.71381e-11)
(2.99933 4.56513e-05 -5.29817e-11)
(2.99854 0.000117731 -1.23739e-10)
(2.99604 0.000273719 -2.49656e-10)
(2.9917 0.000663441 -6.26933e-10)
(2.97523 0.00157287 -1.28242e-09)
(2.94612 0.00396206 -3.65695e-09)
(2.83638 0.0095073 -8.00041e-09)
(2.53633 0.0273065 -1.87817e-08)
(1.81468 0.0713027 -5.16048e-08)
(0.817472 0.196856 -6.70956e-08)
(0.511418 0.187857 3.90431e-09)
(0.567939 0.188752 -1.32776e-09)
(0.582324 0.202333 -5.96433e-09)
(0.533997 0.216707 -6.04959e-09)
(0.451602 0.233232 -5.78183e-09)
(0.369505 0.251643 -5.29995e-09)
(0.298302 0.271631 -5.22182e-09)
(0.223445 0.291792 -5.23348e-09)
(0.134541 0.310383 -5.28593e-09)
(0.0554775 0.323142 -5.34384e-09)
(3 1.48962e-07 -4.85247e-13)
(2.99998 8.09263e-07 -2.48845e-12)
(2.99996 3.01758e-06 -5.96679e-12)
(2.99989 7.73187e-06 -1.2714e-11)
(2.99976 2.14045e-05 -2.6698e-11)
(2.99938 4.90201e-05 -5.2157e-11)
(2.99864 0.000128727 -1.22227e-10)
(2.99629 0.000287338 -2.47638e-10)
(2.99226 0.000764433 -6.25023e-10)
(2.97678 0.00165257 -1.27716e-09)
(2.94992 0.00483541 -3.72555e-09)
(2.84613 0.0108413 -7.91635e-09)
(2.5684 0.034604 -1.96707e-08)
(1.8903 0.088102 -5.3046e-08)
(0.862057 0.24634 -7.2433e-08)
(0.502044 0.23165 5.46548e-09)
(0.569705 0.230508 -7.74949e-10)
(0.590561 0.246447 -5.74661e-09)
(0.543926 0.263785 -5.68703e-09)
(0.464335 0.284614 -5.3105e-09)
(0.384578 0.308318 -4.91633e-09)
(0.31451 0.334491 -5.02454e-09)
(0.239213 0.361749 -5.11828e-09)
(0.146911 0.3879 -5.17486e-09)
(0.0611285 0.406111 -5.26594e-09)
(3 1.49199e-07 -4.5637e-13)
(2.99998 8.15947e-07 -2.36418e-12)
(2.99996 3.02715e-06 -5.54461e-12)
(2.9999 7.73137e-06 -1.17886e-11)
(2.99978 2.13531e-05 -2.40443e-11)
(2.99942 4.83196e-05 -4.61244e-11)
(2.99874 0.000130158 -1.09722e-10)
(2.99657 0.000270435 -1.99865e-10)
(2.99284 0.000831211 -6.18229e-10)
(2.97857 0.00154427 -1.01031e-09)
(2.95398 0.00565091 -3.80759e-09)
(2.85916 0.0113953 -6.49963e-09)
(2.60856 0.0429994 -2.49387e-08)
(1.98549 0.1041 -5.31947e-08)
(0.924235 0.296756 -8.11262e-08)
(0.498371 0.277611 6.78897e-09)
(0.576843 0.272917 3.94098e-10)
(0.604257 0.290061 -5.44941e-09)
(0.559013 0.309736 -5.47645e-09)
(0.482635 0.334941 -5.13658e-09)
(0.405735 0.36468 -4.63197e-09)
(0.337283 0.398473 -4.71552e-09)
(0.262027 0.435006 -4.85238e-09)
(0.166183 0.472159 -4.96082e-09)
(0.0711353 0.500817 -5.10999e-09)
(3 1.61832e-07 -4.23136e-13)
(2.99999 8.86061e-07 -2.2404e-12)
(2.99997 3.28319e-06 -5.1056e-12)
(2.99991 8.38916e-06 -1.06066e-11)
(2.99979 2.31293e-05 -2.12515e-11)
(2.99947 5.23742e-05 -3.91332e-11)
(2.99882 0.000140796 -9.50976e-11)
(2.99687 0.00029112 -1.39358e-10)
(2.99332 0.000914744 -6.32675e-10)
(2.98073 0.00156696 -4.68996e-10)
(2.95834 0.006441 -4.69107e-09)
(2.87469 0.0121648 -5.25807e-09)
(2.65611 0.0480617 -2.6374e-08)
(2.09949 0.115421 -5.3551e-08)
(1.00843 0.340046 -9.01854e-08)
(0.509801 0.325799 7.15812e-09)
(0.594331 0.319069 1.4114e-09)
(0.626958 0.334855 -4.63784e-09)
(0.582453 0.355295 -4.89842e-09)
(0.509467 0.384569 -4.77784e-09)
(0.435611 0.420836 -4.3319e-09)
(0.369405 0.463537 -4.43582e-09)
(0.295416 0.512008 -4.62401e-09)
(0.196889 0.565736 -4.80807e-09)
(0.088807 0.615497 -4.98531e-09)
(3 1.87187e-07 -4.3557e-13)
(2.99999 1.03359e-06 -2.27975e-12)
(2.99997 3.82273e-06 -5.28844e-12)
(2.99992 9.80568e-06 -1.10588e-11)
(2.99981 2.69555e-05 -2.26231e-11)
(2.99952 6.16173e-05 -4.29764e-11)
(2.99894 0.000161618 -9.99013e-11)
(2.99721 0.000353813 -1.90777e-10)
(2.99391 0.000983633 -5.40535e-10)
(2.98311 0.00193066 -9.53583e-10)
(2.96302 0.00654043 -3.71127e-09)
(2.8913 0.012757 -5.21135e-09)
(2.70671 0.0471412 -2.40116e-08)
(2.22688 0.114309 -5.09466e-08)
(1.11856 0.347985 -9.87388e-08)
(0.549219 0.369891 1.28189e-09)
(0.626859 0.37068 -1.06058e-09)
(0.66033 0.381171 -4.55516e-09)
(0.616792 0.401024 -4.74176e-09)
(0.547952 0.433773 -4.56693e-09)
(0.477433 0.477217 -4.12089e-09)
(0.414157 0.529084 -4.20083e-09)
(0.344365 0.591652 -4.32729e-09)
(0.248735 0.670889 -4.59474e-09)
(0.123009 0.764204 -4.88774e-09)
(3 3.32864e-07 -4.19365e-13)
(2.99999 7.0425e-07 -2.2055e-12)
(2.99997 4.99958e-06 -5.03704e-12)
(2.99993 7.72356e-06 -1.04868e-11)
(2.99984 3.46769e-05 -2.09211e-11)
(2.99958 4.98536e-05 -3.93869e-11)
(2.99907 0.000209214 -8.90873e-11)
(2.99756 0.000281958 -1.71159e-10)
(2.99464 0.00128333 -4.54778e-10)
(2.98531 0.00136717 -8.97692e-10)
(2.96755 0.00865568 -2.49426e-09)
(2.90638 0.00688367 -5.7907e-09)
(2.75121 0.0556816 -1.46174e-08)
(2.33918 0.0881409 -3.45595e-08)
(1.24643 0.319532 -5.91436e-08)
(0.614127 0.410928 -2.11135e-08)
(0.663289 0.431218 -8.11029e-09)
(0.694228 0.428053 -5.55213e-09)
(0.657792 0.448025 -5.17986e-09)
(0.596726 0.482274 -4.93876e-09)
(0.531401 0.532196 -4.38178e-09)
(0.473361 0.592656 -4.30383e-09)
(0.415753 0.673968 -4.32613e-09)
(0.338571 0.795623 -4.59477e-09)
(0.189513 1.00262 -5.28201e-09)
(2.99999 1.42763e-08 -4.27431e-14)
(2.99998 7.76039e-08 -1.90243e-13)
(2.99995 2.88322e-07 -6.2987e-13)
(2.99987 7.39901e-07 -1.36126e-12)
(2.99971 2.03262e-06 -3.87967e-12)
(2.99924 4.65151e-06 -7.94017e-12)
(2.99833 1.20547e-05 -2.23935e-11)
(2.99554 2.71348e-05 -4.57807e-11)
(2.9905 6.94694e-05 -1.29424e-10)
(2.97236 0.000156929 -2.64595e-10)
(2.93864 0.000403604 -7.28637e-10)
(2.81618 0.00100726 -1.78537e-09)
(2.47466 0.00287919 -4.36393e-09)
(1.67188 0.00731712 -1.07637e-08)
(0.726091 0.0199379 -1.31051e-08)
(0.524953 0.0208366 2.74959e-10)
(0.56485 0.0222127 -3.64099e-10)
(0.569262 0.0244473 -1.24011e-09)
(0.519789 0.0267202 -1.29363e-09)
(0.434135 0.0290257 -1.25385e-09)
(0.348899 0.0317545 -1.11635e-09)
(0.277765 0.0350465 -1.06302e-09)
(0.206582 0.038583 -1.04885e-09)
(0.12487 0.0427782 -1.05872e-09)
(0.0556408 0.049017 -1.05899e-09)
(2.99999 4.35709e-08 -4.32794e-14)
(2.99998 2.36997e-07 -1.92645e-13)
(2.99995 8.80747e-07 -6.377e-13)
(2.99987 2.25823e-06 -1.37836e-12)
(2.99971 6.20804e-06 -3.92477e-12)
(2.99925 1.41944e-05 -8.03407e-12)
(2.99835 3.68411e-05 -2.2621e-11)
(2.99559 8.26857e-05 -4.62768e-11)
(2.99061 0.000212969 -1.30412e-10)
(2.97263 0.000477904 -2.67012e-10)
(2.93937 0.00124655 -7.32717e-10)
(2.81807 0.00308096 -1.7884e-09)
(2.48034 0.00895639 -4.38876e-09)
(1.68439 0.0227448 -1.08045e-08)
(0.733744 0.0608713 -1.32554e-08)
(0.522811 0.0608217 3.42382e-10)
(0.563811 0.062434 -3.44958e-10)
(0.568747 0.0668605 -1.24089e-09)
(0.518946 0.071181 -1.28688e-09)
(0.433174 0.0754706 -1.23898e-09)
(0.347943 0.0803568 -1.10248e-09)
(0.276296 0.0859071 -1.0509e-09)
(0.204047 0.0911272 -1.04008e-09)
(0.120991 0.0963078 -1.05103e-09)
(0.0514864 0.101937 -1.0512e-09)
(2.99999 7.45758e-08 -4.43597e-14)
(2.99998 4.05829e-07 -1.97804e-13)
(2.99995 1.50787e-06 -6.52988e-13)
(2.99987 3.86495e-06 -1.41111e-12)
(2.99972 1.06218e-05 -4.00383e-12)
(2.99927 2.42779e-05 -8.18543e-12)
(2.99839 6.29488e-05 -2.29765e-11)
(2.99568 0.000141305 -4.67572e-11)
(2.99083 0.000362929 -1.3218e-10)
(2.9732 0.000814711 -2.67737e-10)
(2.94088 0.00212683 -7.41558e-10)
(2.82208 0.00520989 -1.78331e-09)
(2.4926 0.0153626 -4.45051e-09)
(1.71219 0.0390267 -1.09173e-08)
(0.751893 0.105332 -1.36778e-08)
(0.520438 0.103278 4.89569e-10)
(0.564213 0.104997 -2.99902e-10)
(0.570822 0.11258 -1.24498e-09)
(0.521015 0.12029 -1.27854e-09)
(0.435689 0.128514 -1.21261e-09)
(0.351055 0.137569 -1.08783e-09)
(0.279236 0.147403 -1.03819e-09)
(0.206089 0.156906 -1.03094e-09)
(0.121747 0.165762 -1.0433e-09)
(0.0506246 0.173146 -1.04316e-09)
(2.99999 1.09757e-07 -4.99104e-14)
(2.99998 5.9475e-07 -2.19949e-13)
(2.99995 2.21835e-06 -7.34453e-13)
(2.99988 5.69678e-06 -1.5987e-12)
(2.99973 1.57126e-05 -4.54882e-12)
(2.99929 3.61617e-05 -9.49679e-12)
(2.99845 9.30153e-05 -2.56206e-11)
(2.99583 0.000215813 -5.89588e-11)
(2.99117 0.000520254 -1.27748e-10)
(2.97408 0.00125043 -3.59706e-10)
(2.94314 0.00299462 -6.50391e-10)
(2.82821 0.00738104 -1.85814e-09)
(2.51133 0.0216611 -4.43119e-09)
(1.75546 0.0551839 -1.11034e-08)
(0.779969 0.150681 -1.43556e-08)
(0.516852 0.145615 6.98157e-10)
(0.565748 0.147075 -2.49691e-10)
(0.57553 0.15777 -1.23795e-09)
(0.52623 0.168921 -1.2614e-09)
(0.442005 0.181358 -1.16929e-09)
(0.358351 0.195038 -1.05334e-09)
(0.286677 0.209733 -1.02645e-09)
(0.212713 0.224183 -1.01864e-09)
(0.126482 0.237446 -1.03266e-09)
(0.0520198 0.247123 -1.03582e-09)
(2.99999 1.37795e-07 -4.66417e-14)
(2.99998 7.46132e-07 -2.07465e-13)
(2.99996 2.78768e-06 -6.86851e-13)
(2.99989 7.15665e-06 -1.48512e-12)
(2.99974 1.98016e-05 -4.22238e-12)
(2.99933 4.56513e-05 -8.69319e-12)
(2.99854 0.000117731 -2.40717e-11)
(2.99604 0.000273719 -5.05536e-11)
(2.9917 0.000663441 -1.34698e-10)
(2.97523 0.00157288 -2.80271e-10)
(2.94612 0.00396206 -8.1726e-10)
(2.83638 0.0095073 -1.7977e-09)
(2.53633 0.0273065 -4.24964e-09)
(1.81468 0.0713027 -1.17002e-08)
(0.817471 0.196856 -1.52553e-08)
(0.511418 0.187857 9.60123e-10)
(0.567939 0.188752 -1.95558e-10)
(0.582324 0.202333 -1.22492e-09)
(0.533997 0.216707 -1.2393e-09)
(0.451602 0.233232 -1.16393e-09)
(0.369505 0.251643 -1.0359e-09)
(0.298302 0.271631 -1.00954e-09)
(0.223445 0.291792 -1.00325e-09)
(0.134541 0.310383 -1.01946e-09)
(0.0554775 0.323142 -1.02866e-09)
(3 1.48962e-07 -4.52703e-14)
(2.99998 8.09263e-07 -2.00941e-13)
(2.99996 3.01758e-06 -6.68212e-13)
(2.99989 7.73188e-06 -1.44407e-12)
(2.99976 2.14045e-05 -4.13629e-12)