/*--------------------------------*- C++ -*----------------------------------*\
| =========                 |                                                 |
| \\      /  F ield         | OpenFOAM: The Open Source CFD Toolbox           |
|  \\    /   O peration     | Version:  4.1                                   |
|   \\  /    A nd           | Web:      www.OpenFOAM.org                      |
|    \\/     M anipulation  |                                                 |
\*---------------------------------------------------------------------------*/
FoamFile
{
    version     2.0;
    format      ascii;
    class       volScalarField;
    location    "2.02";
    object      p;
}
// * * * * * * * * * * * * * * * * * * * * * * * * * * * * * * * * * * * * * //

dimensions      [1 -1 -2 0 0 0 0];

internalField   nonuniform List<scalar> 
52500
(
1.00001
1.00002
1.00009
1.00019
1.00054
1.00112
1.00319
1.00638
1.01918
1.03546
1.12376
1.22156
1.83525
2.9633
7.04746
12.0649
11.3346
10.974
11.0715
11.3322
11.5808
11.7317
11.8514
11.9431
12.0152
1.00001
1.00002
1.00008
1.00018
1.00054
1.0011
1.00315
1.00631
1.01887
1.03516
1.12123
1.21837
1.81788
2.92394
6.92805
12.0723
11.3374
10.9652
11.0618
11.3221
11.5723
11.7243
11.846
11.9396
12.0138
1
1.00002
1.00008
1.00018
1.00052
1.00107
1.00307
1.00618
1.01822
1.03467
1.11596
1.21222
1.7815
2.84076
6.66401
12.0812
11.3421
10.9405
11.0319
11.2865
11.5371
11.6879
11.8086
11.9013
11.9753
1
1.00002
1.00008
1.00017
1.0005
1.00103
1.00294
1.00594
1.01736
1.03369
1.10892
1.2032
1.73079
2.72232
6.27647
12.0714
11.3422
10.8998
10.9819
11.2234
11.4713
11.6183
11.7353
11.8254
11.9
1
1.00002
1.00007
1.00016
1.00048
1.00098
1.00279
1.00564
1.0164
1.03225
1.10134
1.19409
1.67284
2.58856
5.81487
11.9877
11.3153
10.8427
10.9136
11.1355
11.3759
11.5165
11.6272
11.7138
11.7897
1
1.00002
1.00007
1.00015
1.00045
1.00092
1.00262
1.0053
1.01536
1.03025
1.09472
1.18129
1.62542
2.46994
5.47698
11.6906
11.2158
10.7693
10.8272
11.0189
11.2448
11.376
11.4767
11.5556
11.632
1
1.00002
1.00006
1.00014
1.00041
1.00085
1.00243
1.00491
1.01425
1.02809
1.08784
1.16772
1.57787
2.3538
5.13004
11.2148
11.0336
10.6933
10.729
10.872
11.0742
11.1893
11.2717
11.3325
11.4012
1
1.00002
1.00006
1.00013
1.00037
1.00076
1.00217
1.00435
1.01292
1.02426
1.0819
1.14583
1.53425
2.21803
4.77523
10.6106
10.8112
10.6423
10.6204
10.698
10.8625
10.9529
11.0009
11.0233
11.0613
1
1.00001
1.00005
1.00011
1.00032
1.00066
1.00191
1.00375
1.0116
1.02056
1.07519
1.12578
1.48883
2.06699
4.40789
9.83453
10.6748
10.5528
10.4643
10.5072
10.6118
10.6588
10.6486
10.5928
10.525
1
1.00001
1.00004
1.00009
1.00027
1.00056
1.00164
1.00316
1.01015
1.01738
1.06577
1.10768
1.43382
1.91244
3.99864
8.89871
10.5811
10.4641
10.2866
10.2948
10.3273
10.3086
10.2127
9.98251
9.60802
1.00001
1.00003
1.00009
1.00019
1.00055
1.00112
1.0032
1.00639
1.0192
1.03549
1.12379
1.22166
1.83543
2.96386
7.04893
12.0645
11.3345
10.9741
11.0715
11.3322
11.5807
11.7316
11.8513
11.943
12.0152
1.00001
1.00003
1.00009
1.00019
1.00054
1.00111
1.00316
1.00632
1.01888
1.03519
1.12126
1.21847
1.81806
2.92449
6.9295
12.0719
11.3374
10.9653
11.0619
11.3221
11.5723
11.7243
11.8459
11.9395
12.0137
1.00001
1.00003
1.00009
1.00018
1.00053
1.00108
1.00308
1.00619
1.01823
1.03469
1.11599
1.21231
1.78168
2.84128
6.66543
12.0808
11.3421
10.9405
11.0319
11.2865
11.537
11.6878
11.8085
11.9012
11.9753
1.00001
1.00002
1.00008
1.00018
1.00051
1.00104
1.00295
1.00595
1.01737
1.03371
1.10895
1.20327
1.73096
2.72279
6.27779
12.0713
11.3421
10.8998
10.9819
11.2234
11.4713
11.6183
11.7353
11.8254
11.9
1.00001
1.00002
1.00008
1.00017
1.00048
1.00099
1.0028
1.00565
1.01641
1.03226
1.10137
1.19414
1.67296
2.58889
5.81571
11.988
11.3154
10.8427
10.9136
11.1355
11.3759
11.5164
11.6272
11.7137
11.7896
1
1.00002
1.00007
1.00016
1.00045
1.00093
1.00263
1.00531
1.01538
1.03027
1.09474
1.18135
1.62551
2.47021
5.47762
11.6913
11.216
10.7693
10.8272
11.0189
11.2448
11.376
11.4766
11.5556
11.632
1
1.00002
1.00007
1.00015
1.00042
1.00086
1.00243
1.00492
1.01426
1.02811
1.08786
1.16778
1.57794
2.35404
5.13058
11.2155
11.0337
10.6933
10.729
10.872
11.0742
11.1893
11.2716
11.3325
11.4012
1
1.00002
1.00006
1.00013
1.00037
1.00077
1.00218
1.00436
1.01293
1.02429
1.08191
1.14591
1.53428
2.21826
4.77568
10.6115
10.8112
10.6423
10.6204
10.698
10.8625
10.9529
11.0009
11.0233
11.0613
1
1.00002
1.00005
1.00011
1.00033
1.00067
1.00191
1.00376
1.01161
1.02058
1.0752
1.12584
1.48886
2.06723
4.40827
9.83547
10.6748
10.5528
10.4643
10.5072
10.6118
10.6588
10.6486
10.5928
10.525
1
1.00001
1.00005
1.0001
1.00028
1.00057
1.00165
1.00317
1.01016
1.0174
1.06579
1.10772
1.4339
1.91264
3.99904
8.89975
10.581
10.464
10.2866
10.2947
10.3273
10.3085
10.2127
9.9825
9.60803
1.00001
1.00003
1.00009
1.00019
1.00055
1.00112
1.0032
1.00639
1.0192
1.03549
1.12379
1.22166
1.83544
2.96388
7.04898
12.0645
11.3345
10.9741
11.0715
11.3322
11.5807
11.7316
11.8513
11.943
12.0152
1.00001
1.00003
1.00009
1.00019
1.00054
1.00111
1.00316
1.00632
1.01888
1.03519
1.12126
1.21847
1.81807
2.92451
6.92955
12.0719
11.3374
10.9653
11.0619
11.3221
11.5723
11.7243
11.8459
11.9395
12.0137
1.00001
1.00003
1.00009
1.00018
1.00053
1.00108
1.00308
1.00619
1.01823
1.03469
1.11599
1.21231
1.78168
2.8413
6.66547
12.0808
11.3421
10.9405
11.0319
11.2865
11.537
11.6878
11.8085
11.9012
11.9753
1.00001
1.00002
1.00008
1.00018
1.00051
1.00104
1.00295
1.00595
1.01737
1.03371
1.10895
1.20327
1.73097
2.72281
6.27783
12.0713
11.3421
10.8998
10.9819
11.2234
11.4713
11.6183
11.7353
11.8254
11.9
1.00001
1.00002
1.00008
1.00017
1.00048
1.00099
1.0028
1.00565
1.01641
1.03226
1.10137
1.19415
1.67296
2.5889
5.81573
11.988
11.3154
10.8427
10.9136
11.1355
11.3759
11.5164
11.6272
11.7137
11.7896
1
1.00002
1.00007
1.00016
1.00045
1.00093
1.00263
1.00531
1.01538
1.03027
1.09474
1.18135
1.62551
2.47022
5.47764
11.6913
11.216
10.7693
10.8272
11.0189
11.2448
11.376
11.4766
11.5556
11.632
1
1.00002
1.00007
1.00015
1.00042
1.00086
1.00243
1.00492
1.01426
1.02811
1.08786
1.16778
1.57794
2.35404
5.1306
11.2155
11.0337
10.6933
10.729
10.872
11.0742
11.1893
11.2716
11.3325
11.4012
1
1.00002
1.00006
1.00013
1.00037
1.00077
1.00218
1.00436
1.01293
1.02429
1.08191
1.14591
1.53428
2.21826
4.7757
10.6115
10.8112
10.6423
10.6204
10.698
10.8625
10.9529
11.0009
11.0233
11.0613
1
1.00002
1.00005
1.00011
1.00033
1.00067
1.00191
1.00376
1.01161
1.02058
1.0752
1.12584
1.48886
2.06724
4.40829
9.8355
10.6748
10.5528
10.4643
10.5072
10.6118
10.6588
10.6486
10.5928
10.525
1
1.00001
1.00005
1.0001
1.00028
1.00057
1.00165
1.00317
1.01016
1.0174
1.06579
1.10772
1.4339
1.91264
3.99905
8.89978
10.581
10.464
10.2866
10.2947
10.3273
10.3085
10.2127
9.9825
9.60802
1.00001
1.00003
1.00009
1.00019
1.00055
1.00112
1.0032
1.00639
1.0192
1.03549
1.12379
1.22166
1.83544
2.96389
7.049
12.0644
11.3345
10.9741
11.0715
11.3322
11.5807
11.7316
11.8513
11.943
12.0152
1.00001
1.00003
1.00009
1.00019
1.00054
1.00111
1.00316
1.00632
1.01888
1.03519
1.12126
1.21847
1.81807
2.92451
6.92957
12.0718
11.3374
10.9653
11.0619
11.3221
11.5723
11.7243
11.8459
11.9395
12.0137
1.00001
1.00003
1.00009
1.00018
1.00053
1.00108
1.00308
1.00619
1.01823
1.03469
1.11599
1.21231
1.78169
2.8413
6.66549
12.0808
11.3421
10.9405
11.0319
11.2865
11.537
11.6878
11.8085
11.9012
11.9753
1.00001
1.00002
1.00008
1.00018
1.00051
1.00104
1.00295
1.00595
1.01737
1.03371
1.10895
1.20327
1.73097
2.72281
6.27785
12.0713
11.3421
10.8998
10.9819
11.2234
11.4713
11.6183
11.7353
11.8254
11.9
1.00001
1.00002
1.00008
1.00017
1.00048
1.00099
1.0028
1.00565
1.01641
1.03226
1.10137
1.19415
1.67296
2.5889
5.81574
11.988
11.3154
10.8427
10.9136
11.1355
11.3759
11.5164
11.6272
11.7137
11.7896
1
1.00002
1.00007
1.00016
1.00045
1.00093
1.00263
1.00531
1.01538
1.03027
1.09474
1.18135
1.62551
2.47022
5.47765
11.6913
11.216
10.7693
10.8272
11.0189
11.2448
11.376
11.4766
11.5556
11.632
1
1.00002
1.00007
1.00015
1.00042
1.00086
1.00243
1.00492
1.01426
1.02811
1.08786
1.16778
1.57794
2.35404
5.1306
11.2155
11.0337
10.6933
10.729
10.872
11.0742
11.1893
11.2716
11.3325
11.4012
1
1.00002
1.00006
1.00013
1.00037
1.00077
1.00218
1.00436
1.01293
1.02429
1.08191
1.14591
1.53428
2.21827
4.7757
10.6115
10.8112
10.6423
10.6204
10.698
10.8625
10.9529
11.0009
11.0233
11.0613
1
1.00002
1.00005
1.00011
1.00033
1.00067
1.00191
1.00376
1.01161
1.02058
1.0752
1.12584
1.48886
2.06724
4.40829
9.83551
10.6748
10.5528
10.4643
10.5072
10.6118
10.6588
10.6486
10.5928
10.525
1
1.00001
1.00005
1.0001
1.00028
1.00057
1.00165
1.00317
1.01016
1.0174
1.06579
1.10772
1.4339
1.91265
3.99906
8.89979
10.581
10.464
10.2866
10.2947
10.3273
10.3085
10.2127
9.9825
9.60802
1.00001
1.00003
1.00009
1.00019
1.00055
1.00112
1.0032
1.00639
1.0192
1.03549
1.12379
1.22166
1.83544
2.96389
7.04902
12.0644
11.3345
10.9741
11.0715
11.3322
11.5807
11.7316
11.8513
11.943
12.0152
1.00001
1.00003
1.00009
1.00019
1.00054
1.00111
1.00316
1.00632
1.01888
1.03519
1.12126
1.21847
1.81807
2.92452
6.92958
12.0718
11.3374
10.9653
11.0619
11.3221
11.5723
11.7243
11.8459
11.9395
12.0137
1.00001
1.00003
1.00009
1.00018
1.00053
1.00108
1.00308
1.00619
1.01823
1.03469
1.11599
1.21231
1.78169
2.84131
6.6655
12.0808
11.3421
10.9405
11.0319
11.2865
11.537
11.6878
11.8085
11.9012
11.9753
1.00001
1.00002
1.00008
1.00018
1.00051
1.00104
1.00295
1.00595
1.01737
1.03371
1.10895
1.20327
1.73097
2.72282
6.27786
12.0713
11.3421
10.8998
10.9819
11.2234
11.4713
11.6183
11.7353
11.8254
11.9
1.00001
1.00002
1.00008
1.00017
1.00048
1.00099
1.0028
1.00565
1.01641
1.03226
1.10137
1.19415
1.67296
2.58891
5.81575
11.988
11.3154
10.8427
10.9136
11.1355
11.3759
11.5164
11.6272
11.7137
11.7896
1
1.00002
1.00007
1.00016
1.00045
1.00093
1.00263
1.00531
1.01538
1.03027
1.09474
1.18135
1.62551
2.47022
5.47766
11.6913
11.216
10.7693
10.8272
11.0189
11.2448
11.376
11.4766
11.5556
11.632
1
1.00002
1.00007
1.00015
1.00042
1.00086
1.00243
1.00492
1.01426
1.02811
1.08786
1.16778
1.57794
2.35405
5.13061
11.2155
11.0337
10.6933
10.729
10.872
11.0742
11.1893
11.2716
11.3325
11.4012
1
1.00002
1.00006
1.00013
1.00037
1.00077
1.00218
1.00436
1.01293
1.02429
1.08191
1.14591
1.53428
2.21827
4.77571
10.6115
10.8112
10.6423
10.6204
10.698
10.8625
10.9529
11.0009
11.0233
11.0613
1
1.00002
1.00005
1.00011
1.00033
1.00067
1.00191
1.00376
1.01161
1.02058
1.0752
1.12584
1.48886
2.06724
4.40829
9.83552
10.6748
10.5528
10.4643
10.5072
10.6118
10.6588
10.6486
10.5928
10.525
1
1.00001
1.00005
1.0001
1.00028
1.00057
1.00165
1.00317
1.01016
1.0174
1.06579
1.10772
1.4339
1.91265
3.99906
8.8998
10.581
10.464
10.2866
10.2947
10.3273
10.3085
10.2127
9.9825
9.60802
1.00001
1.00003
1.00009
1.00019
1.00055
1.00112
1.0032
1.00639
1.0192
1.03549
1.12379
1.22166
1.83544
2.96389
7.049
12.0644
11.3345
10.9741
11.0715
11.3322
11.5807
11.7316
11.8513
11.943
12.0152
1.00001
1.00003
1.00009
1.00019
1.00054
1.00111
1.00316
1.00632
1.01888
1.03519
1.12126
1.21847
1.81807
2.92451
6.92957
12.0718
11.3374
10.9653
11.0619
11.3221
11.5723
11.7243
11.8459
11.9395
12.0137
1.00001
1.00003
1.00009
1.00018
1.00053
1.00108
1.00308
1.00619
1.01823
1.03469
1.11599
1.21231
1.78169
2.8413
6.66549
12.0808
11.3421
10.9405
11.0319
11.2865
11.537
11.6878
11.8085
11.9012
11.9753
1.00001
1.00002
1.00008
1.00018
1.00051
1.00104
1.00295
1.00595
1.01737
1.03371
1.10895
1.20327
1.73097
2.72281
6.27785
12.0713
11.3421
10.8998
10.9819
11.2234
11.4713
11.6183
11.7353
11.8254
11.9
1.00001
1.00002
1.00008
1.00017
1.00048
1.00099
1.0028
1.00565
1.01641
1.03226
1.10137
1.19415
1.67296
2.5889
5.81574
11.988
11.3154
10.8427
10.9136
11.1355
11.3759
11.5164
11.6272
11.7137
11.7896
1
1.00002
1.00007
1.00016
1.00045
1.00093
1.00263
1.00531
1.01538
1.03027
1.09474
1.18135
1.62551
2.47022
5.47765
11.6913
11.216
10.7693
10.8272
11.0189
11.2448
11.376
11.4766
11.5556
11.632
1
1.00002
1.00007
1.00015
1.00042
1.00086
1.00243
1.00492
1.01426
1.02811
1.08786
1.16778
1.57794
2.35404
5.1306
11.2155
11.0337
10.6933
10.729
10.872
11.0742
11.1893
11.2716
11.3325
11.4012
1
1.00002
1.00006
1.00013
1.00037
1.00077
1.00218
1.00436
1.01293
1.02429
1.08191
1.14591
1.53428
2.21827
4.7757
10.6115
10.8112
10.6423
10.6204
10.698
10.8625
10.9529
11.0009
11.0233
11.0613
1
1.00002
1.00005
1.00011
1.00033
1.00067
1.00191
1.00376
1.01161
1.02058
1.0752
1.12584
1.48886
2.06724
4.40829
9.83551
10.6748
10.5528
10.4643
10.5072
10.6118
10.6588
10.6486
10.5928
10.525
1
1.00001
1.00005
1.0001
1.00028
1.00057
1.00165
1.00317
1.01016
1.0174
1.06579
1.10772
1.4339
1.91265
3.99906
8.89979
10.581
10.464
10.2866
10.2947
10.3273
10.3085
10.2127
9.9825
9.60802
1.00001
1.00003
1.00009
1.00019
1.00055
1.00112
1.0032
1.00639
1.0192
1.03549
1.12379
1.22166
1.83544
2.96389
7.049
12.0644
11.3345
10.9741
11.0715
11.3322
11.5807
11.7316
11.8513
11.943
12.0152
1.00001
1.00003
1.00009
1.00019
1.00054
1.00111
1.00316
1.00632
1.01888
1.03519
1.12126
1.21847
1.81807
2.92451
6.92957
12.0718
11.3374
10.9653
11.0619
11.3221
11.5723
11.7243
11.8459
11.9395
12.0137
1.00001
1.00003
1.00009
1.00018
1.00053
1.00108
1.00308
1.00619
1.01823
1.03469
1.11599
1.21231
1.78169
2.8413
6.66548
12.0808
11.3421
10.9405
11.0319
11.2865
11.537
11.6878
11.8085
11.9012
11.9753
1.00001
1.00002
1.00008
1.00018
1.00051
1.00104
1.00295
1.00595
1.01737
1.03371
1.10895
1.20327
1.73097
2.72281
6.27784
12.0713
11.3421
10.8998
10.9819
11.2234
11.4713
11.6183
11.7353
11.8254
11.9
1.00001
1.00002
1.00008
1.00017
1.00048
1.00099
1.0028
1.00565
1.01641
1.03226
1.10137
1.19415
1.67296
2.5889
5.81574
11.988
11.3154
10.8427
10.9136
11.1355
11.3759
11.5164
11.6272
11.7137
11.7896
1
1.00002
1.00007
1.00016
1.00045
1.00093
1.00263
1.00531
1.01538
1.03027
1.09474
1.18135
1.62551
2.47022
5.47765
11.6913
11.216
10.7693
10.8272
11.0189
11.2448
11.376
11.4766
11.5556
11.632
1
1.00002
1.00007
1.00015
1.00042
1.00086
1.00243
1.00492
1.01426
1.02811
1.08786
1.16778
1.57794
2.35404
5.1306
11.2155
11.0337
10.6933
10.729
10.872
11.0742
11.1893
11.2716
11.3325
11.4012
1
1.00002
1.00006
1.00013
1.00037
1.00077
1.00218
1.00436
1.01293
1.02429
1.08191
1.14591
1.53428
2.21827
4.7757
10.6115
10.8112
10.6423
10.6204
10.698
10.8625
10.9529
11.0009
11.0233
11.0613
1
1.00002
1.00005
1.00011
1.00033
1.00067
1.00191
1.00376
1.01161
1.02058
1.0752
1.12584
1.48886
2.06724
4.40829
9.8355
10.6748
10.5528
10.4643
10.5072
10.6118
10.6588
10.6486
10.5928
10.525
1
1.00001
1.00005
1.0001
1.00028
1.00057
1.00165
1.00317
1.01016
1.0174
1.06579
1.10772
1.4339
1.91265
3.99906
8.89979
10.581
10.464
10.2866
10.2947
10.3273
10.3085
10.2127
9.9825
9.60802
1.00001
1.00003
1.00009
1.00019
1.00055
1.00112
1.0032
1.00639
1.0192
1.03549
1.12379
1.22166
1.83544
2.96388
7.04898
12.0645
11.3345
10.9741
11.0715
11.3322
11.5807
11.7316
11.8513
11.943
12.0152
1.00001
1.00003
1.00009
1.00019
1.00054
1.00111
1.00316
1.00632
1.01888
1.03519
1.12126
1.21847
1.81807
2.92451
6.92955
12.0719
11.3374
10.9653
11.0619
11.3221
11.5723
11.7243
11.8459
11.9395
12.0137
1.00001
1.00003
1.00009
1.00018
1.00053
1.00108
1.00308
1.00619
1.01823
1.03469
1.11599
1.21231
1.78168
2.8413
6.66547
12.0808
11.3421
10.9405
11.0319
11.2865
11.537
11.6878
11.8085
11.9012
11.9753
1.00001
1.00002
1.00008
1.00018
1.00051
1.00104
1.00295
1.00595
1.01737
1.03371
1.10895
1.20327
1.73097
2.72281
6.27783
12.0713
11.3421
10.8998
10.9819
11.2234
11.4713
11.6183
11.7353
11.8254
11.9
1.00001
1.00002
1.00008
1.00017
1.00048
1.00099
1.0028
1.00565
1.01641
1.03226
1.10137
1.19415
1.67296
2.5889
5.81573
11.988
11.3154
10.8427
10.9136
11.1355
11.3759
11.5164
11.6272
11.7137
11.7896
1
1.00002
1.00007
1.00016
1.00045
1.00093
1.00263
1.00531
1.01538
1.03027
1.09474
1.18135
1.62551
2.47022
5.47764
11.6913
11.216
10.7693
10.8272
11.0189
11.2448
11.376
11.4766
11.5556
11.632
1
1.00002
1.00007
1.00015
1.00042
1.00086
1.00243
1.00492
1.01426
1.02811
1.08786
1.16778
1.57794
2.35404
5.1306
11.2155
11.0337
10.6933
10.729
10.872
11.0742
11.1893
11.2716
11.3325
11.4012
1
1.00002
1.00006
1.00013
1.00037
1.00077
1.00218
1.00436
1.01293
1.02429
1.08191
1.14591
1.53428
2.21826
4.7757
10.6115
10.8112
10.6423
10.6204
10.698
10.8625
10.9529
11.0009
11.0233
11.0613
1
1.00002
1.00005
1.00011
1.00033
1.00067
1.00191
1.00376
1.01161
1.02058
1.0752
1.12584
1.48886
2.06724
4.40829
9.8355
10.6748
10.5528
10.4643
10.5072
10.6118
10.6588
10.6486
10.5928
10.525
1
1.00001
1.00005
1.0001
1.00028
1.00057
1.00165
1.00317
1.01016
1.0174
1.06579
1.10772
1.4339
1.91264
3.99905
8.89978
10.581
10.464
10.2866
10.2947
10.3273
10.3085
10.2127
9.9825
9.60802
1.00001
1.00003
1.00009
1.00019
1.00055
1.00112
1.0032
1.00639
1.0192
1.03549
1.12379
1.22166
1.83543
2.96386
7.04893
12.0645
11.3345
10.9741
11.0715
11.3322
11.5807
11.7316
11.8513
11.943
12.0152
1.00001
1.00003
1.00009
1.00019
1.00054
1.00111
1.00316
1.00632
1.01888
1.03519
1.12126
1.21847
1.81806
2.92449
6.9295
12.0719
11.3374
10.9653
11.0619
11.3221
11.5723
11.7243
11.8459
11.9395
12.0137
1.00001
1.00003
1.00009
1.00018
1.00053
1.00108
1.00308
1.00619
1.01823
1.03469
1.11599
1.21231
1.78168
2.84128
6.66542
12.0808
11.3421
10.9405
11.0319
11.2865
11.537
11.6878
11.8085
11.9012
11.9753
1.00001
1.00002
1.00008
1.00018
1.00051
1.00104
1.00295
1.00595
1.01737
1.03371
1.10895
1.20327
1.73096
2.72279
6.27779
12.0713
11.3421
10.8998
10.9819
11.2234
11.4713
11.6183
11.7353
11.8254
11.9
1.00001
1.00002
1.00008
1.00017
1.00048
1.00099
1.0028
1.00565
1.01641
1.03226
1.10137
1.19414
1.67296
2.58889
5.81571
11.988
11.3154
10.8427
10.9136
11.1355
11.3759
11.5164
11.6272
11.7137
11.7896
1
1.00002
1.00007
1.00016
1.00045
1.00093
1.00263
1.00531
1.01538
1.03027
1.09474
1.18135
1.62551
2.47021
5.47762
11.6913
11.216
10.7693
10.8272
11.0189
11.2448
11.376
11.4766
11.5556
11.632
1
1.00002
1.00007
1.00015
1.00042
1.00086
1.00243
1.00492
1.01426
1.02811
1.08786
1.16778
1.57794
2.35404
5.13058
11.2155
11.0337
10.6933
10.729
10.872
11.0742
11.1893
11.2716
11.3325
11.4012
1
1.00002
1.00006
1.00013
1.00037
1.00077
1.00218
1.00436
1.01293
1.02429
1.08191
1.14591
1.53428
2.21826
4.77568
10.6115
10.8112
10.6423
10.6204
10.698
10.8625
10.9529
11.0009
11.0233
11.0613
1
1.00002
1.00005
1.00011
1.00033
1.00067
1.00191
1.00376
1.01161
1.02058
1.0752
1.12584
1.48886
2.06723
4.40827
9.83547
10.6748
10.5528
10.4643
10.5072
10.6118
10.6588
10.6486
10.5928
10.525
1
1.00001
1.00005
1.0001
1.00028
1.00057
1.00165
1.00317
1.01016
1.0174
1.06579
1.10772
1.4339
1.91264
3.99904
8.89975
10.581
10.464
10.2866
10.2947
10.3273
10.3085
10.2127
9.9825
9.60802
1.00001
1.00002
1.00009
1.00019
1.00054
1.00112
1.00319
1.00638
1.01918
1.03546
1.12376
1.22156
1.83525
2.96329
7.04744
12.0649
11.3346
10.974
11.0715
11.3322
11.5808
11.7317
11.8514
11.9431
12.0152
1.00001
1.00002
1.00008
1.00018
1.00054
1.0011
1.00315
1.00631
1.01887
1.03516
1.12123
1.21837
1.81788
2.92393
6.92803
12.0723
11.3374
10.9652
11.0618
11.3221
11.5723
11.7243
11.846
11.9396
12.0138
1
1.00002
1.00008
1.00018
1.00052
1.00107
1.00307
1.00618
1.01822
1.03467
1.11596
1.21222
1.7815
2.84075
6.66399
12.0812
11.3421
10.9405
11.0319
11.2865
11.5371
11.6879
11.8086
11.9013
11.9753
1
1.00002
1.00008
1.00017
1.0005
1.00103
1.00294
1.00594
1.01736
1.03369
1.10892
1.2032
1.73079
2.72232
6.27646
12.0715
11.3422
10.8998
10.9819
11.2234
11.4713
11.6183
11.7353
11.8254
11.9
1
1.00002
1.00007
1.00016
1.00048
1.00098
1.00279
1.00564
1.0164
1.03225
1.10134
1.19409
1.67284
2.58856
5.81486
11.9877
11.3153
10.8427
10.9136
11.1355
11.3759
11.5165
11.6272
11.7138
11.7897
1
1.00002
1.00007
1.00015
1.00045
1.00092
1.00262
1.0053
1.01536
1.03025
1.09472
1.18129
1.62542
2.46993
5.47698
11.6906
11.2158
10.7693
10.8272
11.0189
11.2448
11.376
11.4767
11.5556
11.632
1
1.00002
1.00006
1.00014
1.00041
1.00085
1.00243
1.00491
1.01425
1.02809
1.08784
1.16772
1.57787
2.3538
5.13003
11.2147
11.0336
10.6933
10.729
10.872
11.0742
11.1893
11.2717
11.3325
11.4012
1
1.00002
1.00006
1.00013
1.00037
1.00076
1.00217
1.00435
1.01292
1.02426
1.0819
1.14583
1.53425
2.21803
4.77522
10.6106
10.8112
10.6423
10.6204
10.698
10.8625
10.9529
11.0009
11.0233
11.0613
1
1.00001
1.00005
1.00011
1.00032
1.00066
1.00191
1.00375
1.0116
1.02056
1.07519
1.12578
1.48883
2.06699
4.40789
9.83451
10.6748
10.5528
10.4643
10.5072
10.6118
10.6588
10.6486
10.5928
10.525
1
1.00001
1.00004
1.00009
1.00027
1.00056
1.00164
1.00316
1.01015
1.01738
1.06577
1.10768
1.43382
1.91244
3.99863
8.8987
10.5811
10.4641
10.2866
10.2948
10.3273
10.3086
10.2127
9.98251
9.60802
1
1.00001
1.00003
1.0001
1.00021
1.00061
1.00124
1.00363
1.00696
1.02256
1.03911
1.14634
1.25774
1.99977
3.33455
7.83632
10.5238
10.3867
10.1097
10.053
10.0216
9.91958
9.65087
9.03222
7.47289
1
1.00001
1.00003
1.00009
1.00019
1.00055
1.00112
1.00319
1.00642
1.01893
1.03601
1.1203
1.22124
1.80701
2.88957
6.62104
10.4691
10.3057
9.94803
9.80603
9.71319
9.51235
9.08642
8.24302
6.61825
1
1.00001
1.00002
1.00007
1.00016
1.00046
1.00094
1.00268
1.00541
1.01566
1.03087
1.09595
1.1857
1.62848
2.47136
5.31204
10.3009
10.1662
9.80904
9.56622
9.40547
9.12348
8.60509
7.73751
6.40975
1
1.00001
1.00002
1.00006
1.00013
1.00038
1.00077
1.0022
1.00445
1.01283
1.0253
1.07864
1.14849
1.51003
2.16917
4.51255
9.67408
9.86451
9.65733
9.33551
9.10548
8.77887
8.24774
7.44658
6.38
1
1
1.00001
1.00005
1.0001
1.00029
1.00059
1.0017
1.00331
1.01034
1.01808
1.0663
1.11023
1.42653
1.91172
3.87507
8.37814
9.55639
9.43292
9.13829
8.84165
8.48922
7.97952
7.26301
6.36786
1
1
1.00001
1.00003
1.00009
1.0002
1.00058
1.00117
1.00339
1.0066
1.02079
1.03659
1.13392
1.236
1.89285
3.06288
6.92197
9.35146
9.25975
8.99142
8.62917
8.25084
7.77097
7.13264
6.36149
0.999998
1
1.00001
1.00002
1.00008
1.00016
1.00047
1.00097
1.00275
1.00555
1.01608
1.03159
1.09914
1.18943
1.6482
2.50557
5.32292
9.09712
9.0887
8.89323
8.47998
8.06222
7.60073
7.02871
6.35441
0.999997
0.999998
1
1.00002
1.00006
1.00012
1.00036
1.00075
1.00212
1.00429
1.01235
1.02453
1.07428
1.1471
1.47214
2.08581
4.12771
8.42604
8.90825
8.74851
8.36667
7.91463
7.46554
6.94592
6.34611
0.999995
0.999997
1
1.00001
1.00003
1.00011
1.00022
1.00064
1.0013
1.00374
1.00723
1.02279
1.03975
1.14531
1.25513
1.96824
3.20123
7.0769
8.63062
8.53877
8.26119
7.80632
7.3614
6.88059
6.34111
0.999994
0.999995
0.999998
1.00001
1.00002
1.00008
1.00017
1.0005
1.00102
1.0029
1.00586
1.01698
1.03333
1.10429
1.20038
1.67979
2.56986
5.42737
8.32794
8.33218
8.16732
7.77638
7.29554
6.83073
6.33802
0.999993
0.999994
0.999996
1
1.00002
1.00005
1.00014
1.0003
1.00085
1.00174
1.00492
1.00978
1.02928
1.05434
1.18208
1.35559
2.16275
3.75542
7.68527
8.21686
8.08609
7.75108
7.25774
6.79635
6.33688
0.999992
0.999993
0.999995
0.999998
1.00001
1.00003
1.0001
1.00021
1.0006
1.00123
1.00349
1.00684
1.02095
1.03729
1.13298
1.23259
1.86651
2.92544
6.26587
7.98106
7.92851
7.71146
7.2595
6.78886
6.33967
0.999992
0.999992
0.999993
0.999997
1
1.00002
1.00006
1.00017
1.00035
1.001
1.00201
1.00587
1.01101
1.03615
1.06195
1.22585
1.43934
2.41192
4.44864
7.53335
7.78266
7.64385
7.2805
6.79399
6.34706
0.999992
0.999992
0.999992
0.999995
0.999999
1.00001
1.00004
1.00012
1.00025
1.0007
1.00144
1.00405
1.00803
1.02408
1.0439
1.15152
1.27434
1.95952
3.17213
6.554
7.59846
7.52247
7.27516
6.81631
6.36442
0.999991
0.999991
0.999992
0.999993
0.999997
1
1.00003
1.00006
1.00019
1.0004
1.00113
1.00226
1.00665
1.01231
1.04099
1.06968
1.25547
1.49626
2.59064
4.84879
7.21532
7.34799
7.22643
6.88865
6.40234
0.999991
0.999991
0.999991
0.999992
0.999995
0.999999
1.00002
1.00004
1.00013
1.00028
1.00078
1.00159
1.00446
1.00894
1.026
1.04933
1.15909
1.30652
1.98888
3.24789
6.4346
7.19303
7.12461
6.89993
6.45707
0.999991
0.999991
0.999991
0.999992
0.999993
0.999997
1
1.00003
1.00007
1.00021
1.00043
1.00122
1.00246
1.00699
1.01353
1.04221
1.0745
1.26288
1.51502
2.60542
4.83114
6.84803
6.96327
6.86101
6.57304
0.999991
0.999991
0.999991
0.999991
0.999992
0.999995
1
1.00002
1.00004
1.00014
1.00029
1.0008
1.00164
1.00455
1.00916
1.02621
1.0506
1.15723
1.31128
1.96164
3.1707
6.1397
6.82115
6.77324
6.58979
0.999991
0.999991
0.999991
0.999991
0.999992
0.999993
0.999997
1
1.00003
1.00007
1.00021
1.00043
1.00121
1.00246
1.00691
1.01363
1.04076
1.07571
1.24698
1.51073
2.49295
4.54664
6.47285
6.6421
6.5551
0.999991
0.99999
0.99999
0.999991
0.999991
0.999992
0.999994
1
1.00001
1.00005
1.00011
1.00032
1.00066
1.00184
1.00371
1.01041
1.02083
1.05981
1.12278
1.35473
1.80252
3.0782
5.68503
6.47132
6.45299
0.999991
0.99999
0.99999
0.99999
0.999991
0.999991
0.999993
0.999997
1
1.00003
1.00007
1.0002
1.00041
1.00114
1.00232
1.00643
1.01285
1.03702
1.07122
1.22045
1.45723
2.3168
4.09414
6.06466
6.34651
0.999991
0.99999
0.99999
0.99999
0.999991
0.999991
0.999992
0.999994
1
1.00001
1.00004
1.0001
1.00029
1.00059
1.00165
1.00333
1.00929
1.01871
1.05276
1.10989
1.30962
1.70183
2.80594
5.1336
6.13107
0.999991
0.99999
0.99999
0.99999
0.99999
0.999991
0.999991
0.999992
0.999996
1
1.00002
1.00006
1.00017
1.00036
1.00099
1.00201
1.00552
1.01102
1.03163
1.05932
1.18822
1.36503
2.08627
3.47222
5.62061
0.999991
0.99999
0.99999
0.99999
0.99999
0.99999
0.999991
0.999992
0.999994
0.999997
1.00001
1.00003
1.0001
1.00021
1.00058
1.00119
1.00326
1.0065
1.01865
1.03451
1.1123
1.20034
1.66123
2.41707
4.49226
0.999991
0.99999
0.99999
0.99999
0.99999
0.99999
0.999991
0.999991
0.999992
0.999994
1
1.00001
1.00005
1.00012
1.00034
1.0007
1.00192
1.00388
1.01071
1.02147
1.0604
1.12431
1.34991
1.77274
2.91068
0.999991
0.99999
0.99999
0.99999
0.99999
0.99999
0.99999
0.999991
0.999991
0.999993
0.999996
1.00001
1.00002
1.00008
1.00017
1.00047
1.00095
1.00261
1.00526
1.01471
1.0284
1.08655
1.16113
1.51032
2.08836
0.999991
0.99999
0.99999
0.99999
0.99999
0.99999
0.99999
0.99999
0.999991
0.999992
0.999994
0.999998
1.00001
1.00003
1.00011
1.00023
1.00063
1.00128
1.0035
1.00694
1.01996
1.03687
1.11832
1.2153
1.67734
0.999991
0.99999
0.99999
0.99999
0.99999
0.99999
0.99999
0.99999
0.999991
0.999991
0.999992
0.999995
1
1.00002
1.00005
1.00014
1.0003
1.00083
1.00169
1.00462
1.00917
1.02611
1.0488
1.15112
1.29154
0.999991
0.99999
0.99999
0.99999
0.99999
0.99999
0.99999
0.99999
0.99999
0.999991
0.999991
0.999993
0.999996
1.00001
1.00002
1.00008
1.00017
1.00047
1.00097
1.00263
1.0053
1.01461
1.02853
1.08503
1.15745
0.999991
0.99999
0.99999
0.99999
0.99999
0.99999
0.99999
0.99999
0.99999
0.99999
0.999991
0.999992
0.999994
0.999998
1.00001
1.00003
1.0001
1.00022
1.00061
1.00124
1.00338
1.00677
1.01891
1.0361
1.11004
0.999991
0.99999
0.99999
0.99999
0.99999
0.99999
0.99999
0.99999
0.99999
0.99999
0.999991
0.999991
0.999992
0.999995
1
1.00002
1.00004
1.00014
1.00028
1.00078
1.00158
1.00429
1.00858
1.02366
1.04719
0.999991
0.99999
0.99999
0.99999
0.99999
0.99999
0.99999
0.99999
0.99999
0.99999
0.99999
0.999991
0.999991
0.999993
0.999997
1
1.00002
1.00006
1.00018
1.00037
1.001
1.00203
1.00548
1.01097
1.03031
0.999991
0.99999
0.99999
0.99999
0.99999
0.99999
0.99999
0.99999
0.99999
0.99999
0.99999
0.99999
0.999991
0.999992
0.999994
0.999997
1.00001
1.00003
1.00009
1.0002
1.00054
1.0011
1.00294
1.00593
1.01619
0.999991
0.99999
0.99999
0.99999
0.99999
0.99999
0.99999
0.99999
0.99999
0.99999
0.99999
0.99999
0.99999
0.999991
0.999992
0.999994
0.999999
1.00001
1.00004
1.00011
1.00024
1.00066
1.00134
1.00359
1.00721
0.999991
0.99999
0.99999
0.99999
0.99999
0.99999
0.99999
0.99999
0.99999
0.99999
0.99999
0.99999
0.99999
0.999991
0.999991
0.999992
0.999995
1
1.00002
1.00005
1.00014
1.00029
1.00079
1.00161
1.00432
0.999991
0.99999
0.99999
0.99999
0.99999
0.99999
0.99999
0.99999
0.99999
0.99999
0.99999
0.99999
0.99999
0.99999
0.999991
0.999991
0.999993
0.999997
1
1.00002
1.00006
1.00017
1.00036
1.00096
1.00194
0.999991
0.99999
0.99999
0.99999
0.99999
0.99999
0.99999
0.99999
0.99999
0.99999
0.99999
0.99999
0.99999
0.99999
0.99999
0.999991
0.999992
0.999993
0.999998
1.00001
1.00003
1.00007
1.00021
1.00044
1.00117
0.999991
0.99999
0.99999
0.99999
0.99999
0.99999
0.99999
0.99999
0.99999
0.99999
0.99999
0.99999
0.99999
0.99999
0.99999
0.999991
0.999991
0.999992
0.999994
0.999999
1.00001
1.00003
1.00011
1.00023
1.00062
0.999991
0.99999
0.99999
0.99999
0.99999
0.99999
0.99999
0.99999
0.99999
0.99999
0.99999
0.99999
0.99999
0.99999
0.99999
0.99999
0.999991
0.999991
0.999992
0.999996
1
1.00002
1.00005
1.00014
1.0003
0.999991
0.99999
0.99999
0.99999
0.99999
0.99999
0.99999
0.99999
0.99999
0.99999
0.99999
0.99999
0.99999
0.99999
0.99999
0.99999
0.99999
0.999991
0.999992
0.999994
0.999998
1.00001
1.00003
1.0001
1.00022
1
1.00001
1.00004
1.0001
1.00022
1.00062
1.00125
1.00364
1.00698
1.02257
1.03913
1.14637
1.25781
1.99992
3.33501
7.83745
10.5237
10.3866
10.1097
10.0529
10.0215
9.91953
9.65083
9.0322
7.47288
1
1.00001
1.00003
1.00009
1.0002
1.00055
1.00113
1.0032
1.00643
1.01894
1.03603
1.12032
1.22133
1.80714
2.89001
6.62222
10.469
10.3056
9.94796
9.80596
9.71312
9.5123
9.08638
8.24299
6.61824
1
1.00001
1.00003
1.00008
1.00016
1.00047
1.00095
1.00268
1.00542
1.01567
1.03088
1.09598
1.18576
1.62863
2.47177
5.31329
10.3008
10.1661
9.80896
9.56614
9.4054
9.12342
8.60505
7.73748
6.40974
1
1.00001
1.00002
1.00007
1.00014
1.00038
1.00078
1.00221
1.00446
1.01284
1.02532
1.07866
1.14855
1.51011
2.16942
4.51303
9.67449
9.86454
9.65731
9.33545
9.10542
8.77882
8.2477
7.44655
6.37999
1
1.00001
1.00002
1.00005
1.00011
1.0003
1.0006
1.00171
1.00333
1.01035
1.0181
1.06632
1.11028
1.42658
1.91196
3.87545
8.37911
9.55643
9.43291
9.13821
8.84159
8.48917
7.97949
7.26299
6.36785
1
1
1.00002
1.00004
1.0001
1.00021
1.00058
1.00118
1.0034
1.00661
1.0208
1.03661
1.13396
1.23607
1.89299
3.06328
6.9229
9.35136
9.25965
8.99133
8.62911
8.2508
7.77094
7.13263
6.36149
1
1
1.00001
1.00003
1.00008
1.00017
1.00048
1.00098
1.00275
1.00556
1.0161
1.03161
1.09917
1.18949
1.64833
2.50592
5.32388
9.09711
9.08864
8.89316
8.47991
8.06219
7.60072
7.02871
6.35442
1
1
1.00001
1.00002
1.00006
1.00013
1.00037
1.00075
1.00213
1.0043
1.01237
1.02455
1.0743
1.14716
1.47219
2.08606
4.12804
8.42638
8.90828
8.74852
8.36665
7.91463
7.46554
6.94593
6.34612
1
1
1.00001
1.00002
1.00004
1.00011
1.00023
1.00065
1.00131
1.00375
1.00724
1.0228
1.03978
1.14534
1.2552
1.96838
3.20161
7.07765
8.6307
8.53882
8.26118
7.80634
7.36141
6.8806
6.34112
1
1
1.00001
1.00002
1.00003
1.00009
1.00018
1.00051
1.00103
1.00291
1.00587
1.01699
1.03335
1.10432
1.20043
1.67989