/*--------------------------------*- C++ -*----------------------------------*\
| =========                 |                                                 |
| \\      /  F ield         | OpenFOAM: The Open Source CFD Toolbox           |
|  \\    /   O peration     | Version:  4.1                                   |
|   \\  /    A nd           | Web:      www.OpenFOAM.org                      |
|    \\/     M anipulation  |                                                 |
\*---------------------------------------------------------------------------*/
FoamFile
{
    version     2.0;
    format      ascii;
    class       volVectorField;
    location    "0.98";
    object      U;
}
// * * * * * * * * * * * * * * * * * * * * * * * * * * * * * * * * * * * * * //

dimensions      [0 1 -1 0 0 0 0];

internalField   nonuniform List<vector> 
52500
(
(3 3.07387e-09 -0.00571424)
(3 1.62701e-08 -0.00571428)
(2.99999 6.08469e-08 -0.00571434)
(2.99997 1.55198e-07 -0.00571454)
(2.99993 4.39268e-07 -0.00571489)
(2.99981 1.00737e-06 -0.00571598)
(2.99958 2.75122e-06 -0.00571806)
(2.9989 6.04244e-06 -0.00572414)
(2.99762 1.81134e-05 -0.00573718)
(2.99321 3.24728e-05 -0.00576762)
(2.98591 0.000131439 -0.00586355)
(2.9567 0.000243472 -0.00601557)
(2.89407 0.000979545 -0.00673787)
(2.7006 0.00237883 -0.00786526)
(2.0709 0.00817813 -0.0123325)
(0.954824 0.0228478 -0.0174175)
(0.286914 0.0233584 -0.0189833)
(0.503267 0.0245567 -0.0189719)
(0.548999 0.0270577 -0.0189894)
(0.476408 0.0296361 -0.0191992)
(0.371607 0.0330561 -0.0194326)
(0.29218 0.0370577 -0.0195788)
(0.228771 0.0413778 -0.0202418)
(0.118162 0.0461391 -0.020943)
(0.0321191 0.0477258 -0.0194721)
(3 9.12339e-09 -0.00571424)
(3 4.77029e-08 -0.00571428)
(2.99999 1.77658e-07 -0.00571434)
(2.99997 4.52556e-07 -0.00571453)
(2.99993 1.27179e-06 -0.00571488)
(2.99982 2.90279e-06 -0.00571596)
(2.99959 7.89428e-06 -0.00571801)
(2.99891 1.72424e-05 -0.00572404)
(2.99764 5.1902e-05 -0.00573685)
(2.9933 9.30645e-05 -0.00576717)
(2.98608 0.000378833 -0.00586075)
(2.95739 0.000695826 -0.00601162)
(2.89597 0.00286776 -0.00671744)
(2.70626 0.00697124 -0.00782282)
(2.09047 0.0240875 -0.0121841)
(0.971864 0.0669161 -0.0172448)
(0.29601 0.0686469 -0.0188876)
(0.506936 0.0697949 -0.0188751)
(0.551325 0.0737441 -0.0188855)
(0.478125 0.0778569 -0.0190887)
(0.372884 0.084085 -0.0193104)
(0.292109 0.0904472 -0.0194472)
(0.227704 0.0964909 -0.0200991)
(0.116627 0.102562 -0.0207728)
(0.0309853 0.100689 -0.0192992)
(3 1.84522e-08 -0.00571424)
(3 7.69246e-08 -0.00571428)
(2.99999 2.98905e-07 -0.00571434)
(2.99997 7.63306e-07 -0.00571453)
(2.99993 2.10489e-06 -0.00571487)
(2.99982 4.76728e-06 -0.00571593)
(2.9996 1.26424e-05 -0.00571793)
(2.99893 2.72809e-05 -0.00572384)
(2.99768 8.01399e-05 -0.00573625)
(2.99348 0.000144495 -0.00576634)
(2.98641 0.000589276 -0.00585569)
(2.95872 0.000992774 -0.00600417)
(2.89965 0.00447616 -0.00667835)
(2.71741 0.0103181 -0.00774103)
(2.13022 0.0361386 -0.0118932)
(1.00928 0.0997725 -0.0169717)
(0.316993 0.116385 -0.0187595)
(0.51464 0.1206 -0.0187519)
(0.557093 0.125966 -0.0187635)
(0.484446 0.132594 -0.018959)
(0.379805 0.144076 -0.0191672)
(0.297269 0.155554 -0.0192951)
(0.231642 0.166359 -0.0199306)
(0.119625 0.176906 -0.0205992)
(0.0315798 0.172599 -0.0191446)
(3 3.12973e-08 -0.00571424)
(3 1.08267e-07 -0.00571428)
(2.99999 4.48592e-07 -0.00571434)
(2.99997 1.14802e-06 -0.00571452)
(2.99993 3.17205e-06 -0.00571485)
(2.99982 7.21504e-06 -0.00571588)
(2.99961 1.89601e-05 -0.00571782)
(2.99897 4.13376e-05 -0.00572361)
(2.99774 0.000114924 -0.00573549)
(2.99372 0.000224267 -0.00576557)
(2.98679 0.000797508 -0.00584925)
(2.96053 0.00138008 -0.00599634)
(2.90423 0.00566918 -0.00662394)
(2.73124 0.0131626 -0.00764779)
(2.17883 0.043141 -0.0115035)
(1.06257 0.116218 -0.0166695)
(0.346457 0.165932 -0.018638)
(0.523946 0.174629 -0.0186229)
(0.564278 0.179493 -0.0186259)
(0.494621 0.187773 -0.0188091)
(0.392329 0.204703 -0.0189902)
(0.307637 0.221931 -0.0191036)
(0.240391 0.238268 -0.0197157)
(0.126618 0.254264 -0.020396)
(0.0334155 0.248339 -0.0189853)
(3 3.87646e-08 -0.00571424)
(3 1.33572e-07 -0.00571428)
(2.99999 5.628e-07 -0.00571433)
(2.99997 1.43772e-06 -0.00571451)
(2.99994 4.02913e-06 -0.00571483)
(2.99983 9.21855e-06 -0.00571581)
(2.99962 2.45461e-05 -0.00571766)
(2.99901 5.46765e-05 -0.00572322)
(2.99784 0.000147595 -0.00573444)
(2.99404 0.000319112 -0.00576396)
(2.98738 0.000936661 -0.00584082)
(2.96268 0.00200337 -0.00598739)
(2.91003 0.0059511 -0.00656328)
(2.747 0.0169244 -0.00755122)
(2.22698 0.0433881 -0.0109939)
(1.13421 0.13024 -0.0165222)
(0.390148 0.215213 -0.01852)
(0.5335 0.230259 -0.0184861)
(0.570785 0.2328 -0.0184688)
(0.507085 0.241971 -0.01862)
(0.409294 0.264857 -0.0187893)
(0.322388 0.288345 -0.0188997)
(0.253352 0.310752 -0.0194648)
(0.137361 0.333144 -0.0201493)
(0.0366883 0.327391 -0.0188026)
(3 4.20848e-08 -0.00571424)
(3 1.55678e-07 -0.00571427)
(2.99999 6.40233e-07 -0.00571433)
(2.99997 1.63575e-06 -0.00571449)
(2.99994 4.54923e-06 -0.00571479)
(2.99984 1.03756e-05 -0.00571572)
(2.99965 2.7406e-05 -0.00571747)
(2.99907 6.08808e-05 -0.0057227)
(2.99796 0.000163374 -0.00573327)
(2.99438 0.00035051 -0.00576081)
(2.98821 0.00102806 -0.00583354)
(2.96462 0.00217083 -0.00596967)
(2.9173 0.00642641 -0.00652331)
(2.76096 0.0185915 -0.00739542)
(2.27629 0.0439647 -0.0107362)
(1.23606 0.144281 -0.0163019)
(0.450667 0.261835 -0.0183581)
(0.545554 0.287177 -0.0183048)
(0.575757 0.28441 -0.0182784)
(0.522005 0.294802 -0.0184158)
(0.431293 0.325274 -0.0185592)
(0.342003 0.356431 -0.0186504)
(0.270995 0.386531 -0.0191881)
(0.152797 0.417438 -0.0198938)
(0.0423821 0.41479 -0.018602)
(3 4.76825e-08 -0.00571424)
(3 1.88392e-07 -0.00571427)
(2.99999 7.58082e-07 -0.00571432)
(2.99998 1.9406e-06 -0.00571448)
(2.99994 5.34185e-06 -0.00571476)
(2.99985 1.21733e-05 -0.00571563)
(2.99967 3.1693e-05 -0.00571727)
(2.99913 7.00535e-05 -0.00572222)
(2.99808 0.000185583 -0.00573202)
(2.99476 0.000389035 -0.00575872)
(2.98891 0.00116771 -0.0058244)
(2.96706 0.00225993 -0.00595686)
(2.92435 0.00751091 -0.00645936)
(2.77633 0.0186975 -0.00725995)
(2.33477 0.0514446 -0.0104743)
(1.35541 0.154326 -0.0159587)
(0.527546 0.312285 -0.0181334)
(0.55825 0.336638 -0.0180647)
(0.576928 0.334531 -0.0180952)
(0.540358 0.350412 -0.0182021)
(0.459419 0.386012 -0.0183354)
(0.368009 0.426292 -0.0184047)
(0.295333 0.466695 -0.0188124)
(0.175263 0.509263 -0.0195489)
(0.052349 0.515454 -0.0183416)
(3 5.55371e-08 -0.00571424)
(3 2.3337e-07 -0.00571427)
(2.99999 9.24201e-07 -0.00571431)
(2.99998 2.36764e-06 -0.00571446)
(2.99995 6.49615e-06 -0.00571472)
(2.99986 1.48366e-05 -0.00571552)
(2.99969 3.84593e-05 -0.00571702)
(2.9992 8.55045e-05 -0.0057216)
(2.99823 0.000222145 -0.00573057)
(2.99519 0.000482568 -0.00575551)
(2.98977 0.00133122 -0.00581485)
(2.96977 0.00276693 -0.00593922)
(2.93157 0.00827161 -0.00639412)
(2.79466 0.0200838 -0.00711724)
(2.39828 0.0587386 -0.0101421)
(1.49017 0.161788 -0.0154507)
(0.615691 0.364908 -0.0178401)
(0.568386 0.378881 -0.0178646)
(0.585201 0.383374 -0.0178935)
(0.56206 0.408686 -0.017937)
(0.4916 0.447027 -0.0180493)
(0.402348 0.497171 -0.0180951)
(0.328692 0.551677 -0.0184109)
(0.208899 0.61074 -0.0191142)
(0.0707998 0.637565 -0.0179976)
(3 6.63408e-08 -0.00571424)
(3 2.94966e-07 -0.00571426)
(2.99999 1.15281e-06 -0.00571431)
(2.99998 2.95245e-06 -0.00571443)
(2.99995 8.09768e-06 -0.00571467)
(2.99988 1.86177e-05 -0.00571538)
(2.99973 4.82209e-05 -0.00571673)
(2.99928 0.000108799 -0.00572085)
(2.99841 0.000275456 -0.00572888)
(2.99568 0.000632502 -0.00575142)
(2.99082 0.00154637 -0.00580444)
(2.97272 0.00354268 -0.00591732)
(2.9393 0.00924167 -0.00632826)
(2.81485 0.022227 -0.00695945)
(2.46442 0.0629827 -0.00977638)
(1.63634 0.165322 -0.0148096)
(0.709703 0.414347 -0.017471)
(0.57242 0.421943 -0.017715)
(0.59698 0.430424 -0.0177305)
(0.586584 0.464561 -0.017723)
(0.526929 0.507794 -0.0177936)
(0.446861 0.568882 -0.0177964)
(0.375895 0.639378 -0.0179624)
(0.263008 0.724612 -0.0185955)
(0.106964 0.796727 -0.0174523)
(3 9.53931e-08 -0.00571424)
(3 3.07151e-07 -0.00571426)
(2.99999 1.65466e-06 -0.00571429)
(2.99998 2.62818e-06 -0.0057144)
(2.99996 1.05011e-05 -0.0057146)
(2.9999 1.62715e-05 -0.0057152)
(2.99977 6.19786e-05 -0.00571635)
(2.99939 9.1847e-05 -0.0057197)
(2.99866 0.000374727 -0.00572686)
(2.99625 0.000449664 -0.00574416)
(2.99221 0.00237561 -0.00579438)
(2.97607 0.00168358 -0.00588207)
(2.9476 0.0153213 -0.0062673)
(2.83562 0.0106592 -0.00677204)
(2.52998 0.0919525 -0.00942885)
(1.78169 0.165282 -0.0142055)
(0.808816 0.472048 -0.0170195)
(0.572011 0.469711 -0.0175087)
(0.610648 0.476023 -0.0174964)
(0.615688 0.513926 -0.0174513)
(0.568966 0.56448 -0.0174779)
(0.502911 0.636196 -0.0174258)
(0.443607 0.728134 -0.017407)
(0.356379 0.860123 -0.0178355)
(0.177729 1.0527 -0.016568)
(3 2.99541e-09 -2.39779e-09)
(2.99999 1.60648e-08 -8.75892e-09)
(2.99999 6.07318e-08 -1.01939e-08)
(2.99997 1.5532e-07 -1.58924e-08)
(2.99993 4.40292e-07 -1.60577e-08)
(2.99981 1.00991e-06 -2.0983e-08)
(2.99958 2.75912e-06 -2.10607e-08)
(2.9989 6.05921e-06 -2.6837e-08)
(2.99762 1.81605e-05 -3e-08)
(2.9932 3.2602e-05 -5.28824e-08)
(2.9859 0.000131696 -5.56128e-08)
(2.95669 0.000244057 -1.63672e-07)
(2.89403 0.000980986 -2.49491e-07)
(2.70048 0.00238251 -8.88923e-07)
(2.07052 0.00818959 -1.92007e-06)
(0.954537 0.0228799 -4.15289e-06)
(0.286876 0.0233639 5.53877e-07)
(0.503234 0.0245508 4.76535e-07)
(0.548969 0.0270531 3.05863e-07)
(0.476374 0.0296341 2.37035e-07)
(0.371572 0.0330559 1.39593e-07)
(0.292161 0.0370578 1.20893e-07)
(0.228763 0.0413777 9.39891e-08)
(0.118157 0.0461368 7.32712e-08)
(0.032124 0.0477278 4.68026e-08)
(3 8.7389e-09 -2.39912e-09)
(3 4.72113e-08 -8.76102e-09)
(2.99999 1.77453e-07 -1.01924e-08)
(2.99997 4.53324e-07 -1.5888e-08)
(2.99993 1.27497e-06 -1.60386e-08)
(2.99981 2.91016e-06 -2.09473e-08)
(2.99959 7.91569e-06 -2.09393e-08)
(2.99891 1.72949e-05 -2.66307e-08)
(2.99764 5.20072e-05 -2.92531e-08)
(2.9933 9.36762e-05 -5.16177e-08)
(2.98608 0.000379316 -5.21707e-08)
(2.95737 0.00069814 -1.57224e-07)
(2.89592 0.00287158 -2.32099e-07)
(2.70614 0.00698409 -8.51908e-07)
(2.09011 0.0241252 -1.82805e-06)
(0.971583 0.0670213 -4.04226e-06)
(0.295968 0.0686599 4.83092e-07)
(0.506911 0.0697755 4.43536e-07)
(0.551304 0.0737305 2.88845e-07)
(0.478098 0.0778507 2.2106e-07)
(0.372854 0.0840831 1.18975e-07)
(0.292094 0.0904465 1.07241e-07)
(0.227697 0.0964904 8.81342e-08)
(0.116622 0.102559 7.18072e-08)
(0.0309858 0.100689 4.71883e-08)
(3 1.47094e-08 -2.40262e-09)
(3 8.07855e-08 -8.76219e-09)
(2.99999 2.99136e-07 -1.01907e-08)
(2.99997 7.65896e-07 -1.58779e-08)
(2.99993 2.10536e-06 -1.60038e-08)
(2.99982 4.77922e-06 -2.08763e-08)
(2.99959 1.26498e-05 -2.06869e-08)
(2.99893 2.73267e-05 -2.60356e-08)
(2.99768 8.02054e-05 -2.80261e-08)
(2.99347 0.000145135 -4.30078e-08)
(2.98641 0.000589544 -5.18319e-08)
(2.95871 0.00099568 -1.26648e-07)
(2.89961 0.00447997 -2.09109e-07)
(2.71731 0.0103366 -7.31393e-07)
(2.12991 0.0361945 -1.60657e-06)
(1.00902 0.099965 -3.61963e-06)
(0.316955 0.11638 2.23369e-07)
(0.514632 0.120566 3.4418e-07)
(0.557089 0.125947 2.45267e-07)
(0.484429 0.132587 1.82815e-07)
(0.379782 0.144073 8.30026e-08)
(0.297259 0.155553 8.09561e-08)
(0.231637 0.166358 7.5162e-08)
(0.11962 0.176903 6.78933e-08)
(0.0315794 0.172597 4.75269e-08)
(3 2.21786e-08 -2.45383e-09)
(3 1.21304e-07 -8.65497e-09)
(2.99999 4.49631e-07 -1.02445e-08)
(2.99997 1.15299e-06 -1.58582e-08)
(2.99993 3.1706e-06 -1.60423e-08)
(2.99982 7.22488e-06 -2.07355e-08)
(2.99961 1.89478e-05 -2.07526e-08)
(2.99896 4.13327e-05 -2.55242e-08)
(2.99774 0.000114906 -2.77031e-08)
(2.99372 0.00022419 -3.67167e-08)
(2.98679 0.000797833 -5.19507e-08)
(2.96052 0.00137947 -9.09589e-08)
(2.9042 0.00567531 -1.81015e-07)
(2.73117 0.0131681 -4.98093e-07)
(2.17865 0.0431998 -1.05519e-06)
(1.06232 0.116382 -2.05795e-06)
(0.346397 0.16592 -3.21781e-07)
(0.523961 0.174599 1.90409e-07)
(0.564294 0.179481 2.05913e-07)
(0.494616 0.187769 1.42163e-07)
(0.392313 0.204701 3.85718e-08)
(0.307633 0.22193 5.09354e-08)
(0.240389 0.238267 5.87439e-08)
(0.126614 0.254261 6.05255e-08)
(0.0334152 0.248335 4.39814e-08)
(3 2.7871e-08 -2.57296e-09)
(3 1.50844e-07 -8.39106e-09)
(2.99999 5.64447e-07 -1.03565e-08)
(2.99997 1.44439e-06 -1.58374e-08)
(2.99993 4.03308e-06 -1.61218e-08)
(2.99983 9.23038e-06 -2.06786e-08)
(2.99962 2.45623e-05 -2.10685e-08)
(2.99901 5.47187e-05 -2.58785e-08)
(2.99783 0.000147691 -2.82643e-08)
(2.99404 0.000319293 -4.11775e-08)
(2.98737 0.000937249 -4.49463e-08)
(2.96267 0.00200418 -1.26313e-07)
(2.91 0.0059562 -8.9193e-08)
(2.74695 0.0169288 -6.13315e-07)
(2.22687 0.0434351 -6.7677e-07)
(1.13395 0.130311 -1.77023e-06)
(0.390048 0.215223 -7.1113e-07)
(0.533512 0.230252 -1.79588e-08)
(0.570811 0.232799 1.44322e-07)
(0.507088 0.241975 9.6708e-08)
(0.409285 0.264858 5.9146e-09)
(0.322389 0.288345 2.63227e-08)
(0.253354 0.310751 4.49421e-08)
(0.137359 0.333141 5.08105e-08)
(0.0366885 0.327387 3.84299e-08)
(3 3.16501e-08 -2.68138e-09)
(3 1.72017e-07 -8.1419e-09)
(2.99999 6.41249e-07 -1.04518e-08)
(2.99997 1.64105e-06 -1.57977e-08)
(2.99994 4.55192e-06 -1.6107e-08)
(2.99984 1.03832e-05 -2.0561e-08)
(2.99964 2.74266e-05 -2.07941e-08)
(2.99907 6.09391e-05 -2.52189e-08)
(2.99796 0.000163513 -2.71055e-08)
(2.99438 0.00035102 -3.67225e-08)
(2.9882 0.00102849 -4.49197e-08)
(2.96461 0.00217444 -9.50201e-08)
(2.91728 0.00642646 -8.74609e-08)
(2.76093 0.0186093 -5.35515e-07)
(2.27618 0.0439816 -2.77172e-07)
(1.23576 0.144335 -1.77072e-06)
(0.450553 0.26185 -7.04046e-07)
(0.545566 0.287179 -8.64643e-08)
(0.57579 0.284427 1.37996e-07)
(0.522014 0.294815 8.8526e-08)
(0.431288 0.325278 -1.15925e-08)
(0.342007 0.356432 1.0761e-08)
(0.271001 0.38653 3.4238e-08)
(0.152797 0.417435 4.14103e-08)
(0.0423831 0.414785 2.8416e-08)
(3 3.74201e-08 -2.78807e-09)
(3 2.04037e-07 -7.90469e-09)
(2.99999 7.57265e-07 -1.05588e-08)
(2.99997 1.94134e-06 -1.57825e-08)
(2.99994 5.33413e-06 -1.61481e-08)
(2.99985 1.21594e-05 -2.05613e-08)
(2.99966 3.16697e-05 -2.07513e-08)
(2.99913 7.00207e-05 -2.50394e-08)
(2.99808 0.000185559 -2.64732e-08)
(2.99476 0.000389076 -3.40483e-08)
(2.9889 0.00116785 -4.33348e-08)
(2.96705 0.00226102 -7.00967e-08)
(2.92433 0.00751101 -1.17157e-07)
(2.7763 0.0187097 -3.18479e-07)
(2.33465 0.0514449 -4.30357e-07)
(1.35514 0.154373 -1.51146e-06)
(0.527416 0.31229 -7.50017e-07)
(0.558273 0.336661 -3.04349e-07)
(0.576973 0.334551 2.11531e-07)
(0.540362 0.350422 1.38624e-07)
(0.459413 0.386021 -3.19602e-08)
(0.368016 0.426295 -6.2988e-09)
(0.295342 0.466695 2.2506e-08)
(0.175267 0.509262 3.21047e-08)
(0.0523507 0.51545 2.01582e-08)
(3 4.53046e-08 -2.89096e-09)
(3 2.46943e-07 -7.67551e-09)
(2.99999 9.16367e-07 -1.06797e-08)
(2.99998 2.35129e-06 -1.57966e-08)
(2.99995 6.45612e-06 -1.62473e-08)
(2.99986 1.47654e-05 -2.06644e-08)
(2.99969 3.83456e-05 -2.091e-08)
(2.9992 8.53299e-05 -2.52569e-08)
(2.99823 0.000221904 -2.65984e-08)
(2.99519 0.000482205 -3.40905e-08)
(2.98977 0.00133089 -4.22755e-08)
(2.96977 0.00276603 -6.67633e-08)
(2.93155 0.00827277 -1.13045e-07)
(2.79462 0.020086 -2.7189e-07)
(2.39817 0.058745 -4.64289e-07)
(1.48991 0.161837 -1.39306e-06)
(0.615566 0.364919 -9.46032e-07)
(0.568418 0.37892 -1.67018e-08)
(0.585233 0.383388 9.65393e-08)
(0.562073 0.40869 2.89983e-08)
(0.491605 0.447037 -5.08967e-09)
(0.402358 0.497176 -1.58777e-08)
(0.328706 0.551678 1.19042e-08)
(0.208906 0.61074 3.0372e-08)
(0.0708029 0.637563 1.51751e-08)
(3 5.53576e-08 -2.99552e-09)
(3 3.03082e-07 -7.47579e-09)
(2.99999 1.12674e-06 -1.08733e-08)
(2.99998 2.89628e-06 -1.59525e-08)
(2.99995 7.99353e-06 -1.65458e-08)
(2.99988 1.84319e-05 -2.10803e-08)
(2.99972 4.79737e-05 -2.14338e-08)
(2.99928 0.000108423 -2.5987e-08)
(2.99841 0.000274987 -2.74491e-08)
(2.99568 0.000631815 -3.5966e-08)
(2.99081 0.00154574 -4.15663e-08)
(2.97271 0.00354165 -8.14983e-08)
(2.93928 0.00924072 -7.80801e-08)
(2.81482 0.0222285 -2.9727e-07)
(2.46434 0.0629897 -3.82393e-07)
(1.63615 0.165359 -1.15053e-06)
(0.709617 0.414362 -1.07998e-06)
(0.572477 0.42197 5.90713e-08)
(0.597019 0.430442 6.10559e-08)
(0.586607 0.464572 -1.40116e-09)
(0.526945 0.507804 -7.65839e-09)
(0.446878 0.568889 -6.21353e-09)
(0.375912 0.63938 1.47036e-08)
(0.263019 0.724614 2.66686e-08)
(0.106969 0.796729 1.15463e-08)
(3 9.18395e-08 -3.11225e-09)
(3 2.28618e-07 -7.33229e-09)
(2.99999 1.43695e-06 -1.123e-08)
(2.99998 2.44309e-06 -1.63629e-08)
(2.99996 1.00791e-05 -1.70955e-08)
(2.99989 1.59021e-05 -2.21209e-08)
(2.99977 6.13683e-05 -2.19966e-08)
(2.99938 9.1311e-05 -2.74663e-08)
(2.99866 0.000373865 -2.83134e-08)
(2.99625 0.0004492 -3.82754e-08)
(2.99221 0.00237475 -4.09572e-08)
(2.97607 0.00168395 -7.75168e-08)
(2.94759 0.0153207 -1.07806e-07)
(2.8356 0.0106642 -2.42206e-07)
(2.5299 0.0919547 -3.52256e-07)
(1.78151 0.165304 -1.0954e-06)
(0.808734 0.472057 -1.16212e-06)
(0.572074 0.469735 1.17989e-07)
(0.61069 0.476047 7.27706e-08)
(0.615716 0.513945 2.92509e-09)
(0.56899 0.564494 -4.93844e-09)
(0.502934 0.636206 3.23958e-09)
(0.443628 0.72814 1.5413e-08)
(0.356394 0.860129 3.10682e-08)
(0.177737 1.05271 1.55457e-08)
(3 2.99547e-09 -3.22085e-13)
(2.99999 1.6065e-08 -1.76488e-12)
(2.99999 6.07329e-08 -3.61222e-12)
(2.99997 1.55323e-07 -7.40195e-12)
(2.99993 4.40301e-07 -1.23466e-11)
(2.99981 1.00994e-06 -2.18494e-11)
(2.99958 2.7592e-06 -4.15943e-11)
(2.9989 6.05936e-06 -7.16052e-11)
(2.99762 1.81613e-05 -2.26913e-10)
(2.9932 3.26022e-05 -2.11487e-10)
(2.9859 0.000131703 -1.84222e-09)
(2.95668 0.000244067 -2.15279e-09)
(2.89403 0.000981041 -1.28471e-08)
(2.70048 0.00238263 -2.66283e-08)
(2.0705 0.00819003 -8.55025e-08)
(0.954526 0.022881 -1.69683e-07)
(0.286874 0.023364 1.02217e-08)
(0.503233 0.0245504 1.07911e-08)
(0.548968 0.0270528 5.14349e-09)
(0.476373 0.0296339 2.07898e-09)
(0.371571 0.0330557 -2.16529e-09)
(0.29216 0.0370577 -3.2949e-09)
(0.228766 0.0413774 -9.9081e-09)
(0.118162 0.0461375 1.05619e-08)
(0.0321193 0.0477266 -3.76385e-09)
(3 8.73905e-09 -3.20863e-13)
(3 4.72117e-08 -1.76014e-12)
(2.99999 1.77456e-07 -3.59252e-12)
(2.99997 4.5333e-07 -7.35928e-12)
(2.99993 1.27499e-06 -1.22052e-11)
(2.99981 2.91021e-06 -2.15536e-11)
(2.99959 7.91591e-06 -4.05864e-11)
(2.99891 1.72954e-05 -7.00502e-11)
(2.99764 5.20097e-05 -2.1486e-10)
(2.9933 9.3677e-05 -2.19876e-10)
(2.98608 0.000379339 -1.70035e-09)
(2.95737 0.000698177 -2.06147e-09)
(2.89592 0.00287174 -1.2028e-08)
(2.70614 0.00698448 -2.54952e-08)
(2.09009 0.0241266 -8.15697e-08)
(0.971571 0.067025 -1.65197e-07)
(0.295965 0.0686601 7.182e-09)
(0.50691 0.0697745 9.29925e-09)
(0.551303 0.0737297 4.37162e-09)
(0.478097 0.0778502 1.41056e-09)
(0.372853 0.0840827 -2.86802e-09)
(0.292093 0.0904464 -3.32952e-09)
(0.2277 0.0964899 -1.03987e-08)
(0.116628 0.10256 1.09777e-08)
(0.0309838 0.100689 -3.61533e-09)
(3 1.47094e-08 -3.18731e-13)
(3 8.07845e-08 -1.75391e-12)
(2.99999 2.99134e-07 -3.55471e-12)
(2.99997 7.6589e-07 -7.28318e-12)
(2.99993 2.10536e-06 -1.18473e-11)
(2.99982 4.77922e-06 -2.08374e-11)
(2.99959 1.26499e-05 -3.75426e-11)
(2.99893 2.73269e-05 -6.506e-11)
(2.99768 8.02073e-05 -1.82165e-10)
(2.99347 0.000145136 -2.50469e-10)
(2.98641 0.000589563 -1.33507e-09)
(2.95871 0.000995731 -1.81961e-09)
(2.89961 0.00448015 -1.00614e-08)
(2.71731 0.0103372 -2.24377e-08)
(2.1299 0.0361967 -7.14254e-08)
(1.00901 0.099972 -1.48807e-07)
(0.316953 0.11638 -3.71325e-09)
(0.514632 0.120564 5.10966e-09)
(0.557089 0.125946 2.36154e-09)
(0.484429 0.132586 -3.32083e-10)
(0.379782 0.144072 -4.28775e-09)
(0.297257 0.155553 -3.80846e-09)
(0.23164 0.166357 -1.08269e-08)
(0.119626 0.176903 1.05526e-08)
(0.0315777 0.172599 -3.40112e-09)
(3 2.21786e-08 -3.17771e-13)
(3 1.21304e-07 -1.76917e-12)
(2.99999 4.49628e-07 -3.56892e-12)
(2.99997 1.15299e-06 -7.33133e-12)
(2.99993 3.17057e-06 -1.18121e-11)
(2.99982 7.22481e-06 -2.0755e-11)
(2.99961 1.89476e-05 -3.59833e-11)
(2.99896 4.13321e-05 -6.19614e-11)
(2.99774 0.000114906 -1.56163e-10)
(2.99372 0.000224185 -2.13242e-10)
(2.98679 0.000797844 -1.12847e-09)
(2.96052 0.00137946 -1.07617e-09)
(2.9042 0.0056755 -8.19708e-09)
(2.73116 0.0131684 -1.4359e-08)
(2.17864 0.0432018 -4.85728e-08)
(1.06231 0.116388 -8.80239e-08)
(0.346394 0.165918 -2.64415e-08)
(0.523961 0.174598 -1.30576e-09)
(0.564294 0.179479 5.6064e-10)
(0.494616 0.187768 -2.20995e-09)
(0.392313 0.204701 -6.24682e-09)
(0.307631 0.221929 -4.64665e-09)
(0.240393 0.238266 -1.12335e-08)
(0.12662 0.254261 8.38387e-09)
(0.0334135 0.248339 -2.68497e-09)
(3 2.78714e-08 -3.18284e-13)
(3 1.50846e-07 -1.77137e-12)
(2.99999 5.64453e-07 -3.60816e-12)
(2.99997 1.4444e-06 -7.41928e-12)
(2.99993 4.03311e-06 -1.23412e-11)
(2.99983 9.23046e-06 -2.16427e-11)
(2.99962 2.45624e-05 -4.00493e-11)
(2.99901 5.4719e-05 -7.19159e-11)
(2.99783 0.000147692 -1.67177e-10)
(2.99404 0.000319293 -3.16259e-10)
(2.98737 0.000937262 -9.49253e-10)
(2.96267 0.00200417 -1.76238e-09)
(2.91 0.00595636 -5.88504e-09)
(2.74695 0.0169289 -1.57245e-08)
(2.22686 0.0434367 -3.63945e-08)
(1.13394 0.130313 -7.59016e-08)
(0.390043 0.215223 -4.26075e-08)
(0.533512 0.230251 -9.66409e-09)
(0.570812 0.232799 -1.82002e-09)
(0.507088 0.241974 -3.96588e-09)
(0.409285 0.264857 -7.70374e-09)
(0.322387 0.288344 -5.12987e-09)
(0.253356 0.31075 -1.0954e-08)
(0.137365 0.333141 4.89248e-09)
(0.0366869 0.327392 1.99568e-10)
(3 3.16505e-08 -3.09999e-13)
(3 1.72018e-07 -1.74251e-12)
(2.99999 6.41254e-07 -3.49504e-12)
(2.99997 1.64107e-06 -7.18498e-12)
(2.99994 4.55195e-06 -1.1583e-11)
(2.99984 1.03833e-05 -1.99484e-11)
(2.99964 2.74269e-05 -3.55049e-11)
(2.99907 6.09398e-05 -6.21298e-11)
(2.99796 0.000163515 -1.46914e-10)
(2.99438 0.000351025 -2.58701e-10)
(2.9882 0.0010285 -8.6546e-10)
(2.96461 0.00217448 -1.46129e-09)
(2.91728 0.0064265 -4.69558e-09)
(2.76093 0.0186096 -1.54022e-08)
(2.27617 0.0439824 -2.07029e-08)
(1.23575 0.144336 -7.72634e-08)
(0.450547 0.261849 -4.39162e-08)
(0.545566 0.287178 -1.32534e-08)
(0.575791 0.284426 -1.58691e-09)
(0.522014 0.294815 -3.8425e-09)
(0.431288 0.325278 -8.22808e-09)
(0.342005 0.356432 -4.88318e-09)
(0.271002 0.386529 -9.72369e-09)
(0.152803 0.417436 3.36442e-09)
(0.0423816 0.414791 -7.65582e-10)
(3 3.74201e-08 -3.09322e-13)
(3 2.04037e-07 -1.74533e-12)
(2.99999 7.57263e-07 -3.50239e-12)
(2.99997 1.94134e-06 -7.22131e-12)
(2.99994 5.33412e-06 -1.16476e-11)
(2.99985 1.21594e-05 -2.01792e-11)
(2.99966 3.16696e-05 -3.5518e-11)
(2.99913 7.00206e-05 -6.23392e-11)
(2.99808 0.000185559 -1.40897e-10)
(2.99476 0.000389075 -2.4105e-10)
(2.9889 0.00116785 -8.14385e-10)
(2.96705 0.00226103 -1.09567e-09)
(2.92433 0.00751102 -5.05433e-09)
(2.7763 0.0187099 -1.10598e-08)
(2.33464 0.0514448 -2.26971e-08)
(1.35513 0.154374 -7.11999e-08)
(0.527409 0.312288 -4.68728e-08)
(0.558274 0.33666 -2.39354e-08)
(0.576974 0.334551 2.67766e-09)
(0.540362 0.350421 -5.65743e-10)
(0.459413 0.38602 -8.81251e-09)
(0.368015 0.426294 -5.06043e-09)
(0.295343 0.466694 -8.70686e-09)
(0.175271 0.509262 1.45372e-09)
(0.0523495 0.515456 -4.38921e-10)
(3 4.53043e-08 -3.08349e-13)
(3 2.46941e-07 -1.74744e-12)
(2.99999 9.1636e-07 -3.50683e-12)
(2.99998 2.35127e-06 -7.24414e-12)
(2.99995 6.45608e-06 -1.16914e-11)
(2.99986 1.47653e-05 -2.02879e-11)
(2.99969 3.83454e-05 -3.56538e-11)
(2.9992 8.53295e-05 -6.28825e-11)
(2.99823 0.000221903 -1.398e-10)
(2.99519 0.000482202 -2.49263e-10)
(2.98977 0.0013309 -7.73108e-10)
(2.96977 0.00276602 -1.17652e-09)
(2.93155 0.0082728 -4.86296e-09)
(2.79462 0.0200861 -9.66944e-09)
(2.39817 0.058745 -2.65597e-08)
(1.4899 0.161838 -6.62329e-08)
(0.615559 0.364918 -5.89328e-08)
(0.568419 0.37892 -8.75826e-09)
(0.585234 0.383388 -2.24636e-09)
(0.562073 0.408689 -5.12469e-09)
(0.491605 0.447036 -6.64403e-09)
(0.402357 0.497175 -5.66166e-09)
(0.328706 0.551678 -9.57453e-09)
(0.20891 0.610741 2.06985e-09)
(0.0708019 0.63757 -1.2655e-10)
(3 5.53573e-08 -3.12752e-13)
(3 3.03079e-07 -1.77809e-12)
(2.99999 1.12673e-06 -3.57927e-12)
(2.99998 2.89625e-06 -7.41624e-12)
(2.99995 7.99348e-06 -1.19902e-11)
(2.99988 1.84318e-05 -2.08726e-11)
(2.99972 4.79735e-05 -3.67524e-11)
(2.99928 0.000108423 -6.52289e-11)
(2.99841 0.000274986 -1.44618e-10)
(2.99568 0.000631813 -2.77127e-10)
(2.99081 0.00154574 -7.43471e-10)
(2.97271 0.00354164 -1.48299e-09)
(2.93928 0.00924073 -4.19193e-09)
(2.81482 0.0222286 -1.00356e-08)
(2.46433 0.0629899 -2.55872e-08)
(1.63614 0.16536 -6.19266e-08)
(0.709611 0.414361 -6.93561e-08)
(0.572479 0.42197 -3.0982e-09)
(0.59702 0.430442 -2.51815e-09)
(0.586607 0.464571 -6.00178e-09)
(0.526945 0.507803 -6.32134e-09)
(0.446877 0.568888 -4.94336e-09)
(0.375912 0.63938 -5.62986e-09)
(0.263022 0.724615 -1.70959e-10)
(0.106969 0.796736 5.03756e-10)
(3 9.18346e-08 -3.13314e-13)
(3 2.28614e-07 -1.80399e-12)
(2.99999 1.4369e-06 -3.61921e-12)
(2.99998 2.44305e-06 -7.51756e-12)
(2.99996 1.00789e-05 -1.2043e-11)
(2.99989 1.5902e-05 -2.12689e-11)
(2.99977 6.13681e-05 -3.66967e-11)
(2.99938 9.13109e-05 -6.6832e-11)
(2.99866 0.000373866 -1.45892e-10)
(2.99625 0.0004492 -2.97751e-10)
(2.99221 0.00237476 -7.17598e-10)
(2.97607 0.00168395 -1.54157e-09)
(2.94759 0.0153207 -4.41894e-09)
(2.8356 0.0106642 -9.73797e-09)
(2.52989 0.0919549 -2.3194e-08)
(1.7815 0.165305 -6.42384e-08)
(0.808728 0.472056 -7.87017e-08)
(0.572076 0.469735 9.99519e-10)
(0.610691 0.476047 -9.44156e-10)
(0.615716 0.513944 -5.57115e-09)
(0.56899 0.564493 -6.41527e-09)
(0.502933 0.636205 -4.86403e-09)
(0.443628 0.72814 -3.6901e-09)
(0.356396 0.86013 -1.10078e-09)
(0.177737 1.05272 1.57658e-09)
(3 2.99546e-09 -6.62871e-14)
(2.99999 1.6065e-08 -2.90661e-13)
(2.99999 6.07327e-08 -9.985e-13)
(2.99997 1.55323e-07 -2.14533e-12)
(2.99993 4.403e-07 -6.51518e-12)
(2.99981 1.00993e-06 -1.32747e-11)
(2.99958 2.75918e-06 -4.16583e-11)
(2.9989 6.05932e-06 -7.87837e-11)
(2.99762 1.81612e-05 -3.17406e-10)
(2.9932 3.26019e-05 -3.18249e-10)
(2.9859 0.000131703 -2.75276e-09)
(2.95668 0.000244066 -3.34682e-09)
(2.89402 0.000981045 -1.91566e-08)
(2.70048 0.00238263 -3.91351e-08)
(2.0705 0.00819006 -1.23584e-07)
(0.954525 0.0228811 -2.39711e-07)
(0.286873 0.023364 3.28311e-08)
(0.503233 0.0245504 3.03468e-08)
(0.548967 0.0270527 2.14255e-08)
(0.476373 0.0296339 1.70379e-08)
(0.371571 0.0330557 1.09539e-08)
(0.29216 0.0370577 9.2752e-09)
(0.228767 0.0413773 8.19357e-09)
(0.118163 0.0461371 4.02008e-09)
(0.0321207 0.0477279 3.99943e-09)
(3 8.73904e-09 -6.26318e-14)
(3 4.72117e-08 -2.75051e-13)
(2.99999 1.77456e-07 -9.40397e-13)
(2.99997 4.53329e-07 -2.01692e-12)
(2.99993 1.27499e-06 -6.11202e-12)
(2.99981 2.91021e-06 -1.24329e-11)
(2.99959 7.9159e-06 -3.89846e-11)
(2.99891 1.72953e-05 -7.42271e-11)
(2.99764 5.20097e-05 -2.92961e-10)
(2.9933 9.36759e-05 -3.19302e-10)
(2.98607 0.00037934 -2.50863e-09)
(2.95737 0.000698175 -3.16687e-09)
(2.89592 0.00287176 -1.78292e-08)
(2.70614 0.0069845 -3.72495e-08)
(2.09009 0.0241267 -1.17636e-07)
(0.97157 0.0670253 -2.3337e-07)
(0.295965 0.0686601 2.82605e-08)
(0.50691 0.0697744 2.83234e-08)
(0.551303 0.0737296 2.04224e-08)
(0.478097 0.0778501 1.60442e-08)
(0.372853 0.0840827 9.52174e-09)
(0.292093 0.0904463 8.24653e-09)
(0.227702 0.0964898 7.5085e-09)
(0.116628 0.102559 4.16144e-09)
(0.0309838 0.10069 3.66841e-09)
(3 1.47095e-08 -5.78116e-14)
(3 8.07848e-08 -2.58649e-13)
(2.99999 2.99135e-07 -8.48749e-13)
(2.99997 7.65892e-07 -1.8217e-12)
(2.99993 2.10536e-06 -5.23314e-12)
(2.99982 4.77923e-06 -1.05748e-11)
(2.99959 1.26499e-05 -3.18177e-11)
(2.99893 2.73269e-05 -5.98862e-11)
(2.99768 8.02075e-05 -2.33251e-10)
(2.99347 0.000145136 -2.96487e-10)
(2.98641 0.000589566 -1.95373e-09)
(2.95871 0.000995732 -2.48436e-09)
(2.89961 0.00448017 -1.49615e-08)
(2.71731 0.0103373 -3.14498e-08)
(2.1299 0.0361968 -1.02327e-07)
(1.00901 0.0999725 -2.08413e-07)
(0.316952 0.116379 1.18639e-08)
(0.514632 0.120564 2.20968e-08)
(0.557089 0.125946 1.76854e-08)
(0.484429 0.132586 1.35729e-08)
(0.379782 0.144072 6.99398e-09)
(0.297257 0.155553 6.34444e-09)
(0.231641 0.166357 6.34763e-09)
(0.119626 0.176903 4.34809e-09)
(0.0315773 0.1726 3.33332e-09)
(3 2.21786e-08 -6.29745e-14)
(3 1.21304e-07 -2.87682e-13)
(2.99999 4.49628e-07 -9.12552e-13)
(2.99997 1.15299e-06 -1.97336e-12)
(2.99993 3.17057e-06 -5.36589e-12)
(2.99982 7.22482e-06 -1.08264e-11)
(2.99961 1.89476e-05 -2.99299e-11)
(2.99896 4.13321e-05 -5.57564e-11)
(2.99774 0.000114906 -1.91565e-10)
(2.99372 0.000224185 -2.31406e-10)
(2.98679 0.000797845 -1.63993e-09)
(2.96052 0.00137946 -1.18979e-09)
(2.9042 0.00567551 -1.21553e-08)
(2.73116 0.0131685 -1.87504e-08)
(2.17864 0.043202 -6.76983e-08)
(1.06231 0.116388 -1.16309e-07)
(0.346393 0.165918 -2.16044e-08)
(0.523961 0.174597 1.27608e-08)
(0.564294 0.179479 1.52701e-08)
(0.494615 0.187768 1.09357e-08)
(0.392313 0.2047 3.84369e-09)
(0.307631 0.221929 4.22007e-09)
(0.240393 0.238266 4.93971e-09)
(0.12662 0.254261 4.2195e-09)
(0.0334129 0.24834 2.74143e-09)
(3 2.78715e-08 -6.56069e-14)
(3 1.50846e-07 -2.89869e-13)
(2.99999 5.64453e-07 -9.79141e-13)
(2.99997 1.4444e-06 -2.12537e-12)
(2.99993 4.03311e-06 -6.2032e-12)
(2.99983 9.23047e-06 -1.2858e-11)
(2.99962 2.45625e-05 -3.66629e-11)
(2.99901 5.47191e-05 -7.4485e-11)
(2.99783 0.000147693 -2.11515e-10)
(2.99404 0.000319294 -4.24294e-10)
(2.98737 0.000937263 -1.30996e-09)
(2.96267 0.00200418 -2.49738e-09)
(2.91 0.00595637 -8.02295e-09)
(2.74695 0.0169289 -2.16438e-08)
(2.22686 0.0434368 -4.77925e-08)
(1.13394 0.130313 -9.63507e-08)
(0.390042 0.215223 -4.54039e-08)
(0.533512 0.230251 1.85634e-11)
(0.570812 0.232799 1.15066e-08)
(0.507088 0.241974 8.09039e-09)
(0.409284 0.264857 1.53769e-09)
(0.322387 0.288344 2.5677e-09)
(0.253357 0.31075 3.74406e-09)
(0.137365 0.333141 3.73288e-09)
(0.0366863 0.327392 1.95153e-09)
(3 3.16505e-08 -5.33806e-14)
(3 1.72018e-07 -2.3869e-13)
(2.99999 6.41255e-07 -7.88183e-13)
(2.99997 1.64107e-06 -1.6979e-12)
(2.99994 4.55196e-06 -4.8717e-12)
(2.99984 1.03833e-05 -9.85607e-12)
(2.99964 2.74269e-05 -2.8596e-11)
(2.99907 6.09398e-05 -5.69667e-11)
(2.99796 0.000163515 -1.7462e-10)
(2.99438 0.000351026 -3.17618e-10)
(2.9882 0.0010285 -1.16472e-09)
(2.96461 0.00217449 -1.91748e-09)
(2.91728 0.00642651 -6.31937e-09)
(2.76093 0.0186096 -2.02749e-08)
(2.27617 0.0439824 -2.5389e-08)