/*--------------------------------*- C++ -*----------------------------------*\
| =========                 |                                                 |
| \\      /  F ield         | OpenFOAM: The Open Source CFD Toolbox           |
|  \\    /   O peration     | Version:  4.1                                   |
|   \\  /    A nd           | Web:      www.OpenFOAM.org                      |
|    \\/     M anipulation  |                                                 |
\*---------------------------------------------------------------------------*/
FoamFile
{
    version     2.0;
    format      ascii;
    class       volScalarField;
    location    "2.22";
    object      p;
}
// * * * * * * * * * * * * * * * * * * * * * * * * * * * * * * * * * * * * * //

dimensions      [1 -1 -2 0 0 0 0];

internalField   nonuniform List<scalar> 
52500
(
1.00001
1.00003
1.00009
1.00021
1.0006
1.00123
1.00356
1.007
1.0217
1.03874
1.14177
1.24849
1.96438
3.25144
7.82934
11.7356
11.249
10.9715
11.0586
11.2944
11.5228
11.6564
11.7607
11.8439
11.9044
1.00001
1.00003
1.00009
1.0002
1.00059
1.00122
1.0035
1.0069
1.02137
1.03818
1.13954
1.24453
1.94702
3.21123
7.71902
11.7475
11.2475
10.9607
11.0482
11.2845
11.5137
11.6489
11.7559
11.8418
11.905
1.00001
1.00003
1.00009
1.0002
1.00058
1.00118
1.0034
1.0067
1.02068
1.03705
1.13487
1.23637
1.91004
3.12459
7.47063
11.7702
11.2413
10.9285
11.0135
11.247
11.4768
11.6132
11.7216
11.8089
11.8735
1.00001
1.00002
1.00009
1.00019
1.00056
1.00114
1.00327
1.00652
1.01966
1.03614
1.1268
1.2261
1.85238
2.9948
7.08496
11.8013
11.2347
10.8768
10.9558
11.1816
11.4121
11.5479
11.656
11.7438
11.8114
1.00001
1.00002
1.00008
1.00018
1.00053
1.00109
1.0031
1.00625
1.01834
1.03509
1.11612
1.21368
1.77976
2.83129
6.58168
11.8184
11.2258
10.8098
10.879
11.0911
11.3207
11.4539
11.5592
11.6464
11.7181
1
1.00002
1.00008
1.00017
1.00049
1.00101
1.00288
1.00582
1.01691
1.03316
1.10507
1.19888
1.69983
2.64639
5.9857
11.7701
11.1952
10.726
10.7829
10.9737
11.1977
11.3241
11.4214
11.5038
11.5789
1
1.00002
1.00007
1.00015
1.00045
1.00093
1.00265
1.00536
1.01553
1.0306
1.09552
1.18335
1.62933
2.47707
5.46933
11.5299
11.0919
10.626
10.6687
10.8262
11.0341
11.1463
11.2277
11.2959
11.3671
1
1.00002
1.00006
1.00014
1.00041
1.00085
1.00241
1.00487
1.01412
1.02784
1.08687
1.16579
1.56998
2.33128
5.04984
11.0151
10.8727
10.5312
10.5455
10.6483
10.8264
10.9147
10.9646
10.9973
11.0433
1
1.00001
1.00006
1.00012
1.00036
1.00074
1.00211
1.0042
1.01259
1.02319
1.08014
1.13986
1.51896
2.17491
4.63981
10.2986
10.6363
10.4682
10.4025
10.4544
10.5722
10.6217
10.6159
10.5719
10.5186
1
1.00001
1.00005
1.0001
1.0003
1.00062
1.00179
1.00347
1.01104
1.01908
1.07125
1.11818
1.46656
2.00664
4.2236
9.41385
10.4984
10.376
10.2264
10.2402
10.2826
10.2677
10.1804
9.96486
9.60562
1.00001
1.00003
1.0001
1.00021
1.00061
1.00124
1.00356
1.00701
1.02171
1.03876
1.1418
1.24855
1.96447
3.25174
7.82997
11.7354
11.2491
10.9716
11.0587
11.2944
11.5229
11.6564
11.7608
11.8439
11.9045
1.00001
1.00003
1.0001
1.00021
1.0006
1.00122
1.00351
1.00691
1.02138
1.0382
1.13956
1.24459
1.94711
3.21152
7.71965
11.7474
11.2475
10.9608
11.0482
11.2845
11.5138
11.649
11.756
11.8418
11.905
1.00001
1.00003
1.00009
1.0002
1.00058
1.00119
1.00341
1.00671
1.0207
1.03707
1.1349
1.23643
1.91013
3.12488
7.47126
11.77
11.2413
10.9285
11.0136
11.2471
11.4769
11.6132
11.7216
11.8089
11.8736
1.00001
1.00003
1.00009
1.0002
1.00056
1.00115
1.00328
1.00653
1.01967
1.03617
1.12681
1.22619
1.85243
2.99509
7.0856
11.8011
11.2347
10.8768
10.9558
11.1816
11.4121
11.548
11.656
11.7439
11.8114
1.00001
1.00003
1.00009
1.00019
1.00053
1.00109
1.0031
1.00626
1.01835
1.03512
1.11613
1.21376
1.77982
2.83158
6.58234
11.8182
11.2258
10.8099
10.8791
11.0911
11.3208
11.4539
11.5592
11.6465
11.7182
1.00001
1.00002
1.00008
1.00017
1.0005
1.00102
1.00289
1.00583
1.01693
1.03318
1.10509
1.19894
1.69992
2.64665
5.98638
11.77
11.1952
10.726
10.783
10.9738
11.1977
11.3241
11.4215
11.5038
11.5789
1.00001
1.00002
1.00007
1.00016
1.00046
1.00094
1.00266
1.00537
1.01554
1.03061
1.09554
1.1834
1.62939
2.47727
5.46969
11.53
11.0919
10.626
10.6687
10.8263
11.0341
11.1463
11.2278
11.2959
11.3671
1
1.00002
1.00007
1.00015
1.00042
1.00085
1.00242
1.00488
1.01413
1.02786
1.08689
1.16585
1.57002
2.33147
5.05013
11.0155
10.8729
10.5311
10.5455
10.6484
10.8264
10.9147
10.9646
10.9973
11.0434
1
1.00002
1.00006
1.00013
1.00036
1.00074
1.00211
1.00421
1.0126
1.02321
1.08014
1.13992
1.51897
2.17506
4.64007
10.2991
10.6363
10.4681
10.4025
10.4544
10.5723
10.6217
10.6159
10.572
10.5187
1
1.00002
1.00005
1.00011
1.00031
1.00063
1.0018
1.00348
1.01105
1.01909
1.07126
1.11821
1.46658
2.0068
4.2238
9.41435
10.4983
10.3759
10.2264
10.2402
10.2826
10.2678
10.1805
9.96491
9.60572
1.00001
1.00003
1.0001
1.00021
1.00061
1.00124
1.00356
1.00701
1.02171
1.03876
1.1418
1.24855
1.96448
3.25175
7.83
11.7354
11.2491
10.9716
11.0587
11.2944
11.5229
11.6564
11.7608
11.8439
11.9045
1.00001
1.00003
1.0001
1.00021
1.0006
1.00122
1.00351
1.00691
1.02138
1.0382
1.13957
1.24459
1.94711
3.21154
7.71968
11.7473
11.2475
10.9608
11.0482
11.2845
11.5138
11.649
11.756
11.8418
11.905
1.00001
1.00003
1.00009
1.0002
1.00058
1.00119
1.00341
1.00671
1.0207
1.03707
1.1349
1.23643
1.91014
3.12489
7.47129
11.77
11.2413
10.9285
11.0136
11.2471
11.4769
11.6132
11.7216
11.8089
11.8736
1.00001
1.00003
1.00009
1.0002
1.00056
1.00115
1.00328
1.00653
1.01967
1.03617
1.12681
1.22619
1.85243
2.9951
7.08564
11.8011
11.2347
10.8768
10.9558
11.1816
11.4121
11.548
11.656
11.7439
11.8114
1.00001
1.00003
1.00009
1.00019
1.00053
1.00109
1.0031
1.00626
1.01835
1.03512
1.11613
1.21376
1.77983
2.83159
6.58237
11.8182
11.2258
10.8099
10.8791
11.0911
11.3208
11.4539
11.5592
11.6465
11.7182
1.00001
1.00002
1.00008
1.00017
1.0005
1.00102
1.00289
1.00583
1.01693
1.03318
1.10509
1.19894
1.69993
2.64666
5.98641
11.77
11.1952
10.726
10.783
10.9738
11.1977
11.3241
11.4215
11.5038
11.5789
1.00001
1.00002
1.00007
1.00016
1.00046
1.00094
1.00266
1.00537
1.01554
1.03061
1.09554
1.18341
1.62939
2.47727
5.46971
11.53
11.0919
10.626
10.6687
10.8263
11.0341
11.1463
11.2278
11.2959
11.3671
1
1.00002
1.00007
1.00015
1.00042
1.00085
1.00242
1.00488
1.01413
1.02786
1.08689
1.16585
1.57002
2.33148
5.05015
11.0156
10.8729
10.5311
10.5455
10.6484
10.8264
10.9147
10.9646
10.9973
11.0434
1
1.00002
1.00006
1.00013
1.00036
1.00074
1.00211
1.00421
1.0126
1.02321
1.08014
1.13992
1.51898
2.17506
4.64008
10.2991
10.6363
10.4681
10.4025
10.4544
10.5723
10.6217
10.6159
10.572
10.5187
1
1.00002
1.00005
1.00011
1.00031
1.00063
1.0018
1.00348
1.01105
1.01909
1.07126
1.11822
1.46659
2.0068
4.22382
9.41437
10.4983
10.3759
10.2264
10.2402
10.2826
10.2678
10.1805
9.96491
9.60572
1.00001
1.00003
1.0001
1.00021
1.00061
1.00124
1.00356
1.00701
1.02171
1.03876
1.1418
1.24855
1.96448
3.25175
7.83
11.7354
11.2491
10.9716
11.0587
11.2944
11.5229
11.6564
11.7608
11.8439
11.9045
1.00001
1.00003
1.0001
1.00021
1.0006
1.00122
1.00351
1.00691
1.02138
1.0382
1.13957
1.24459
1.94711
3.21154
7.71969
11.7473
11.2475
10.9608
11.0482
11.2845
11.5138
11.649
11.756
11.8418
11.905
1.00001
1.00003
1.00009
1.0002
1.00058
1.00119
1.00341
1.00671
1.0207
1.03707
1.1349
1.23643
1.91014
3.12489
7.4713
11.77
11.2413
10.9285
11.0136
11.2471
11.4769
11.6132
11.7216
11.8089
11.8736
1.00001
1.00003
1.00009
1.0002
1.00056
1.00115
1.00328
1.00653
1.01967
1.03617
1.12681
1.22619
1.85244
2.9951
7.08564
11.8011
11.2347
10.8768
10.9558
11.1816
11.4121
11.548
11.656
11.7439
11.8114
1.00001
1.00003
1.00009
1.00019
1.00053
1.00109
1.0031
1.00626
1.01835
1.03512
1.11613
1.21376
1.77983
2.83159
6.58238
11.8182
11.2258
10.8099
10.8791
11.0911
11.3208
11.4539
11.5592
11.6465
11.7182
1.00001
1.00002
1.00008
1.00017
1.0005
1.00102
1.00289
1.00583
1.01693
1.03318
1.10509
1.19894
1.69993
2.64667
5.98642
11.77
11.1952
10.726
10.783
10.9738
11.1977
11.3241
11.4215
11.5038
11.5789
1.00001
1.00002
1.00007
1.00016
1.00046
1.00094
1.00266
1.00537
1.01554
1.03061
1.09554
1.18341
1.62939
2.47727
5.46971
11.53
11.0919
10.626
10.6687
10.8263
11.0341
11.1463
11.2278
11.2959
11.3671
1
1.00002
1.00007
1.00015
1.00042
1.00085
1.00242
1.00488
1.01413
1.02786
1.08689
1.16585
1.57002
2.33148
5.05015
11.0156
10.8729
10.5311
10.5455
10.6484
10.8264
10.9147
10.9646
10.9973
11.0434
1
1.00002
1.00006
1.00013
1.00036
1.00074
1.00211
1.00421
1.0126
1.02321
1.08014
1.13992
1.51898
2.17506
4.64008
10.2991
10.6363
10.4681
10.4025
10.4544
10.5723
10.6217
10.6159
10.572
10.5187
1
1.00002
1.00005
1.00011
1.00031
1.00063
1.0018
1.00348
1.01105
1.01909
1.07126
1.11822
1.46659
2.0068
4.22382
9.41437
10.4983
10.3759
10.2264
10.2402
10.2826
10.2678
10.1805
9.96491
9.60572
1.00001
1.00003
1.0001
1.00021
1.00061
1.00124
1.00356
1.00701
1.02171
1.03876
1.1418
1.24855
1.96448
3.25176
7.83001
11.7354
11.2491
10.9716
11.0587
11.2944
11.5229
11.6564
11.7608
11.8439
11.9045
1.00001
1.00003
1.0001
1.00021
1.0006
1.00122
1.00351
1.00691
1.02138
1.0382
1.13957
1.24459
1.94712
3.21154
7.7197
11.7473
11.2475
10.9608
11.0482
11.2845
11.5138
11.649
11.756
11.8418
11.905
1.00001
1.00003
1.00009
1.0002
1.00058
1.00119
1.00341
1.00671
1.0207
1.03707
1.1349
1.23643
1.91014
3.1249
7.47131
11.77
11.2413
10.9285
11.0136
11.2471
11.4769
11.6132
11.7216
11.8089
11.8736
1.00001
1.00003
1.00009
1.0002
1.00056
1.00115
1.00328
1.00653
1.01967
1.03617
1.12681
1.22619
1.85244
2.9951
7.08566
11.8011
11.2347
10.8768
10.9558
11.1816
11.4121
11.548
11.656
11.7439
11.8114
1.00001
1.00003
1.00009
1.00019
1.00053
1.00109
1.0031
1.00626
1.01835
1.03512
1.11613
1.21376
1.77983
2.8316
6.58239
11.8182
11.2258
10.8099
10.8791
11.0911
11.3208
11.4539
11.5592
11.6465
11.7182
1.00001
1.00002
1.00008
1.00017
1.0005
1.00102
1.00289
1.00583
1.01693
1.03318
1.10509
1.19894
1.69993
2.64667
5.98643
11.77
11.1951
10.726
10.783
10.9737
11.1977
11.3241
11.4215
11.5038
11.5789
1.00001
1.00002
1.00007
1.00016
1.00046
1.00094
1.00266
1.00537
1.01554
1.03061
1.09554
1.18341
1.62939
2.47728
5.46971
11.53
11.0919
10.626
10.6687
10.8263
11.0341
11.1463
11.2278
11.2959
11.3671
1
1.00002
1.00007
1.00015
1.00042
1.00085
1.00242
1.00488
1.01413
1.02786
1.08689
1.16585
1.57002
2.33148
5.05016
11.0156
10.8729
10.5311
10.5455
10.6484
10.8264
10.9147
10.9646
10.9973
11.0434
1
1.00002
1.00006
1.00013
1.00036
1.00074
1.00211
1.00421
1.0126
1.02321
1.08014
1.13992
1.51898
2.17507
4.64009
10.2991
10.6363
10.4681
10.4025
10.4544
10.5723
10.6217
10.6159
10.572
10.5187
1
1.00002
1.00005
1.00011
1.00031
1.00063
1.0018
1.00348
1.01105
1.01909
1.07126
1.11822
1.46659
2.0068
4.22382
9.41438
10.4983
10.3759
10.2264
10.2402
10.2826
10.2678
10.1805
9.96491
9.60572
1.00001
1.00003
1.0001
1.00021
1.00061
1.00124
1.00356
1.00701
1.02171
1.03876
1.1418
1.24855
1.96448
3.25175
7.83
11.7354
11.2491
10.9716
11.0587
11.2944
11.5229
11.6564
11.7608
11.8439
11.9045
1.00001
1.00003
1.0001
1.00021
1.0006
1.00122
1.00351
1.00691
1.02138
1.0382
1.13957
1.24459
1.94711
3.21154
7.71969
11.7473
11.2475
10.9608
11.0482
11.2845
11.5138
11.649
11.756
11.8418
11.905
1.00001
1.00003
1.00009
1.0002
1.00058
1.00119
1.00341
1.00671
1.0207
1.03707
1.1349
1.23643
1.91014
3.12489
7.4713
11.77
11.2413
10.9285
11.0136
11.2471
11.4769
11.6132
11.7216
11.8089
11.8736
1.00001
1.00003
1.00009
1.0002
1.00056
1.00115
1.00328
1.00653
1.01967
1.03617
1.12681
1.22619
1.85244
2.9951
7.08565
11.8011
11.2347
10.8768
10.9558
11.1816
11.4121
11.548
11.656
11.7439
11.8114
1.00001
1.00003
1.00009
1.00019
1.00053
1.00109
1.0031
1.00626
1.01835
1.03512
1.11613
1.21376
1.77983
2.83159
6.58238
11.8182
11.2258
10.8099
10.8791
11.0911
11.3208
11.4539
11.5592
11.6465
11.7182
1.00001
1.00002
1.00008
1.00017
1.0005
1.00102
1.00289
1.00583
1.01693
1.03318
1.10509
1.19894
1.69993
2.64667
5.98642
11.77
11.1952
10.726
10.783
10.9737
11.1977
11.3241
11.4215
11.5038
11.5789
1.00001
1.00002
1.00007
1.00016
1.00046
1.00094
1.00266
1.00537
1.01554
1.03061
1.09554
1.18341
1.62939
2.47727
5.46971
11.53
11.0919
10.626
10.6687
10.8263
11.0341
11.1463
11.2278
11.2959
11.3671
1
1.00002
1.00007
1.00015
1.00042
1.00085
1.00242
1.00488
1.01413
1.02786
1.08689
1.16585
1.57002
2.33148
5.05015
11.0156
10.8729
10.5311
10.5455
10.6484
10.8264
10.9147
10.9646
10.9973
11.0434
1
1.00002
1.00006
1.00013
1.00036
1.00074
1.00211
1.00421
1.0126
1.02321
1.08014
1.13992
1.51898
2.17506
4.64008
10.2991
10.6363
10.4681
10.4025
10.4544
10.5723
10.6217
10.6159
10.572
10.5187
1
1.00002
1.00005
1.00011
1.00031
1.00063
1.0018
1.00348
1.01105
1.01909
1.07126
1.11822
1.46659
2.0068
4.22382
9.41438
10.4983
10.3759
10.2264
10.2402
10.2826
10.2678
10.1805
9.96491
9.60572
1.00001
1.00003
1.0001
1.00021
1.00061
1.00124
1.00356
1.00701
1.02171
1.03876
1.1418
1.24855
1.96448
3.25175
7.83
11.7354
11.2491
10.9716
11.0587
11.2944
11.5229
11.6564
11.7608
11.8439
11.9045
1.00001
1.00003
1.0001
1.00021
1.0006
1.00122
1.00351
1.00691
1.02138
1.0382
1.13957
1.24459
1.94711
3.21154
7.71969
11.7473
11.2475
10.9608
11.0482
11.2845
11.5138
11.649
11.756
11.8418
11.905
1.00001
1.00003
1.00009
1.0002
1.00058
1.00119
1.00341
1.00671
1.0207
1.03707
1.1349
1.23643
1.91014
3.12489
7.4713
11.77
11.2413
10.9285
11.0136
11.2471
11.4769
11.6132
11.7216
11.8089
11.8736
1.00001
1.00003
1.00009
1.0002
1.00056
1.00115
1.00328
1.00653
1.01967
1.03617
1.12681
1.22619
1.85244
2.9951
7.08564
11.8011
11.2347
10.8768
10.9558
11.1816
11.4121
11.548
11.656
11.7439
11.8114
1.00001
1.00003
1.00009
1.00019
1.00053
1.00109
1.0031
1.00626
1.01835
1.03512
1.11613
1.21376
1.77983
2.83159
6.58238
11.8182
11.2258
10.8099
10.8791
11.0911
11.3208
11.4539
11.5592
11.6465
11.7182
1.00001
1.00002
1.00008
1.00017
1.0005
1.00102
1.00289
1.00583
1.01693
1.03318
1.10509
1.19894
1.69993
2.64667
5.98642
11.77
11.1952
10.726
10.783
10.9738
11.1977
11.3241
11.4215
11.5038
11.5789
1.00001
1.00002
1.00007
1.00016
1.00046
1.00094
1.00266
1.00537
1.01554
1.03061
1.09554
1.18341
1.62939
2.47727
5.46971
11.53
11.0919
10.626
10.6687
10.8263
11.0341
11.1463
11.2278
11.2959
11.3671
1
1.00002
1.00007
1.00015
1.00042
1.00085
1.00242
1.00488
1.01413
1.02786
1.08689
1.16585
1.57002
2.33148
5.05015
11.0156
10.8729
10.5311
10.5455
10.6484
10.8264
10.9147
10.9646
10.9973
11.0434
1
1.00002
1.00006
1.00013
1.00036
1.00074
1.00211
1.00421
1.0126
1.02321
1.08014
1.13992
1.51898
2.17506
4.64008
10.2991
10.6363
10.4681
10.4025
10.4544
10.5723
10.6217
10.6159
10.572
10.5187
1
1.00002
1.00005
1.00011
1.00031
1.00063
1.0018
1.00348
1.01105
1.01909
1.07126
1.11822
1.46659
2.0068
4.22382
9.41437
10.4983
10.3759
10.2264
10.2402
10.2826
10.2678
10.1805
9.96491
9.60572
1.00001
1.00003
1.0001
1.00021
1.00061
1.00124
1.00356
1.00701
1.02171
1.03876
1.1418
1.24855
1.96448
3.25175
7.83
11.7354
11.2491
10.9716
11.0587
11.2944
11.5229
11.6564
11.7608
11.8439
11.9045
1.00001
1.00003
1.0001
1.00021
1.0006
1.00122
1.00351
1.00691
1.02138
1.0382
1.13957
1.24459
1.94711
3.21154
7.71968
11.7473
11.2475
10.9608
11.0482
11.2845
11.5138
11.649
11.756
11.8418
11.905
1.00001
1.00003
1.00009
1.0002
1.00058
1.00119
1.00341
1.00671
1.0207
1.03707
1.1349
1.23643
1.91014
3.12489
7.47129
11.77
11.2413
10.9285
11.0136
11.2471
11.4769
11.6132
11.7216
11.8089
11.8736
1.00001
1.00003
1.00009
1.0002
1.00056
1.00115
1.00328
1.00653
1.01967
1.03617
1.12681
1.22619
1.85243
2.9951
7.08564
11.8011
11.2347
10.8768
10.9558
11.1816
11.4121
11.548
11.656
11.7439
11.8114
1.00001
1.00003
1.00009
1.00019
1.00053
1.00109
1.0031
1.00626
1.01835
1.03512
1.11613
1.21376
1.77983
2.83159
6.58237
11.8182
11.2258
10.8099
10.8791
11.0911
11.3208
11.4539
11.5592
11.6465
11.7182
1.00001
1.00002
1.00008
1.00017
1.0005
1.00102
1.00289
1.00583
1.01693
1.03318
1.10509
1.19894
1.69993
2.64666
5.98641
11.77
11.1952
10.726
10.783
10.9738
11.1977
11.3241
11.4215
11.5038
11.5789
1.00001
1.00002
1.00007
1.00016
1.00046
1.00094
1.00266
1.00537
1.01554
1.03061
1.09554
1.18341
1.62939
2.47727
5.46971
11.53
11.0919
10.626
10.6687
10.8263
11.0341
11.1463
11.2278
11.2959
11.3671
1
1.00002
1.00007
1.00015
1.00042
1.00085
1.00242
1.00488
1.01413
1.02786
1.08689
1.16585
1.57002
2.33148
5.05015
11.0156
10.8729
10.5311
10.5455
10.6484
10.8264
10.9147
10.9646
10.9973
11.0434
1
1.00002
1.00006
1.00013
1.00036
1.00074
1.00211
1.00421
1.0126
1.02321
1.08014
1.13992
1.51898
2.17506
4.64008
10.2991
10.6363
10.4681
10.4025
10.4544
10.5723
10.6217
10.6159
10.572
10.5187
1
1.00002
1.00005
1.00011
1.00031
1.00063
1.0018
1.00348
1.01105
1.01909
1.07126
1.11822
1.46659
2.0068
4.22382
9.41437
10.4983
10.3759
10.2264
10.2402
10.2826
10.2678
10.1805
9.96491
9.60572
1.00001
1.00003
1.0001
1.00021
1.00061
1.00124
1.00356
1.00701
1.02171
1.03876
1.1418
1.24855
1.96447
3.25174
7.82997
11.7354
11.2491
10.9716
11.0587
11.2944
11.5229
11.6564
11.7608
11.8439
11.9045
1.00001
1.00003
1.0001
1.00021
1.0006
1.00122
1.00351
1.00691
1.02138
1.0382
1.13956
1.24459
1.94711
3.21152
7.71965
11.7474
11.2475
10.9608
11.0482
11.2845
11.5138
11.649
11.756
11.8418
11.905
1.00001
1.00003
1.00009
1.0002
1.00058
1.00119
1.00341
1.00671
1.0207
1.03707
1.1349
1.23643
1.91013
3.12488
7.47126
11.77
11.2413
10.9285
11.0136
11.2471
11.4769
11.6132
11.7216
11.8089
11.8736
1.00001
1.00003
1.00009
1.0002
1.00056
1.00115
1.00328
1.00653
1.01967
1.03617
1.12681
1.22619
1.85243
2.99508
7.0856
11.8011
11.2347
10.8768
10.9558
11.1816
11.4121
11.548
11.656
11.7439
11.8114
1.00001
1.00003
1.00009
1.00019
1.00053
1.00109
1.0031
1.00626
1.01835
1.03512
1.11613
1.21376
1.77982
2.83158
6.58234
11.8182
11.2258
10.8099
10.8791
11.0911
11.3208
11.4539
11.5592
11.6465
11.7182
1.00001
1.00002
1.00008
1.00017
1.0005
1.00102
1.00289
1.00583
1.01693
1.03318
1.10509
1.19894
1.69992
2.64665
5.98637
11.77
11.1952
10.726
10.783
10.9738
11.1977
11.3241
11.4215
11.5038
11.5789
1.00001
1.00002
1.00007
1.00016
1.00046
1.00094
1.00266
1.00537
1.01554
1.03061
1.09554
1.1834
1.62939
2.47727
5.46969
11.53
11.0919
10.626
10.6687
10.8263
11.0341
11.1463
11.2278
11.2959
11.3671
1
1.00002
1.00007
1.00015
1.00042
1.00085
1.00242
1.00488
1.01413
1.02786
1.08689
1.16585
1.57002
2.33147
5.05013
11.0155
10.8729
10.5311
10.5455
10.6484
10.8264
10.9147
10.9646
10.9973
11.0434
1
1.00002
1.00006
1.00013
1.00036
1.00074
1.00211
1.00421
1.0126
1.02321
1.08014
1.13992
1.51897
2.17506
4.64007
10.2991
10.6363
10.4681
10.4025
10.4544
10.5723
10.6217
10.6159
10.572
10.5187
1
1.00002
1.00005
1.00011
1.00031
1.00063
1.0018
1.00348
1.01105
1.01909
1.07126
1.11821
1.46658
2.0068
4.2238
9.41435
10.4983
10.3759
10.2264
10.2402
10.2826
10.2678
10.1805
9.96491
9.60572
1.00001
1.00003
1.00009
1.00021
1.0006
1.00123
1.00356
1.007
1.0217
1.03874
1.14177
1.24849
1.96438
3.25144
7.82933
11.7356
11.249
10.9715
11.0586
11.2944
11.5228
11.6564
11.7607
11.8439
11.9044
1.00001
1.00003
1.00009
1.0002
1.00059
1.00122
1.0035
1.0069
1.02137
1.03818
1.13954
1.24453
1.94702
3.21122
7.71901
11.7475
11.2475
10.9607
11.0482
11.2845
11.5137
11.6489
11.7559
11.8418
11.905
1.00001
1.00003
1.00009
1.0002
1.00058
1.00118
1.0034
1.0067
1.02068
1.03705
1.13487
1.23637
1.91004
3.12458
7.47062
11.7702
11.2413
10.9285
11.0135
11.247
11.4768
11.6132
11.7216
11.8089
11.8735
1.00001
1.00002
1.00009
1.00019
1.00056
1.00114
1.00327
1.00652
1.01966
1.03614
1.1268
1.2261
1.85238
2.99479
7.08495
11.8013
11.2347
10.8768
10.9558
11.1816
11.4121
11.5479
11.656
11.7438
11.8114
1.00001
1.00002
1.00008
1.00018
1.00053
1.00109
1.0031
1.00625
1.01834
1.03509
1.11612
1.21368
1.77976
2.83129
6.58166
11.8184
11.2258
10.8098
10.879
11.0911
11.3207
11.4539
11.5592
11.6464
11.7181
1
1.00002
1.00008
1.00017
1.00049
1.00101
1.00288
1.00582
1.01691
1.03316
1.10507
1.19888
1.69983
2.64638
5.98569
11.7701
11.1952
10.726
10.7829
10.9737
11.1977
11.3241
11.4214
11.5038
11.5789
1
1.00002
1.00007
1.00015
1.00045
1.00093
1.00265
1.00536
1.01553
1.0306
1.09552
1.18335
1.62933
2.47707
5.46932
11.5299
11.0919
10.626
10.6687
10.8262
11.0341
11.1463
11.2277
11.2959
11.3671
1
1.00002
1.00006
1.00014
1.00041
1.00085
1.00241
1.00487
1.01412
1.02784
1.08687
1.16579
1.56998
2.33128
5.04983
11.0151
10.8727
10.5312
10.5455
10.6483
10.8264
10.9147
10.9646
10.9973
11.0433
1
1.00001
1.00006
1.00012
1.00036
1.00074
1.00211
1.0042
1.01259
1.02319
1.08014
1.13986
1.51896
2.17491
4.6398
10.2986
10.6363
10.4682
10.4025
10.4544
10.5722
10.6217
10.6159
10.5719
10.5186
1
1.00001
1.00005
1.0001
1.0003
1.00062
1.00179
1.00347
1.01104
1.01908
1.07125
1.11818
1.46656
2.00664
4.22359
9.41384
10.4984
10.376
10.2264
10.2402
10.2826
10.2677
10.1804
9.96486
9.60562
1
1.00001
1.00003
1.00011
1.00023
1.00067
1.00136
1.00395
1.0076
1.02453
1.04267
1.15906
1.28209
2.08892
3.55909
8.39293
10.4097
10.2866
10.0436
9.99918
9.97209
9.8767
9.61752
9.01181
7.46928
1
1.00001
1.00003
1.0001
1.0002
1.00059
1.0012
1.00344
1.00678
1.02083
1.0374
1.13519
1.23809
1.90401
3.09742
7.19787
10.3348
10.1898
9.8754
9.75329
9.6641
9.46953
9.05437
8.22157
6.61227
1
1.00001
1.00003
1.00008
1.00017
1.00051
1.00104
1.00295
1.00595
1.01731
1.03384
1.10774
1.20293
1.71488
2.66585
5.91362
10.2014
10.07
9.7378
9.51725
9.36097
9.08358
8.57277
7.71457
6.40105
1
1.00001
1.00002
1.00007
1.00014
1.00042
1.00086
1.00243
1.00492
1.01416
1.02805
1.08565
1.16845
1.55181
2.28587
4.75371
9.80241
9.83142
9.62144
9.30008
9.07055
8.74651
8.21888
7.42381
6.36632
1
1.00001
1.00001
1.00005
1.00011
1.00032
1.00066
1.00189
1.00371
1.01136
1.02026
1.07221
1.12355
1.45741
2.01786
4.08099
8.82214
9.55996
9.41805
9.10352
8.81374
8.46389
7.95957
7.24978
6.35996
1
1
1.00001
1.00003
1.0001
1.00022
1.00063
1.00128
1.0037
1.00717
1.02267
1.03969
1.14567
1.25648
1.97773
3.25008
7.37807
9.30592
9.21438
8.95361
8.60198
8.23135
7.75685
7.12302
6.35665
0.999999
1
1.00001
1.00003
1.00008
1.00018
1.00052
1.00106
1.00301
1.00607
1.01765
1.03422
1.10996
1.2053
1.72328
2.67059
5.79801
9.09607
9.06272
8.8563
8.44192
8.04653
7.59213
7.02265
6.3502
0.999997
0.999999
1.00001
1.00002
1.00006
1.00014
1.0004
1.00082
1.00231
1.00468
1.01345
1.02668
1.08044
1.1612
1.50939
2.1805
4.33665
8.60394
8.91905
8.74786
8.35101
7.90717
7.46123
6.94238
6.34377
0.999996
0.999997
1
1.00001
1.00004
1.00012
1.00025
1.0007
1.00143
1.00409
1.00796
1.02471
1.04376
1.15685
1.28136
2.0323
3.39901
7.48334
8.67124
8.56234
8.25873
7.79698
7.35515
6.87593
6.33726
0.999995
0.999996
0.999998
1.00001
1.00003
1.00009
1.00019
1.00054
1.00111
1.00315
1.00635
1.01845
1.0355
1.1147
1.21392
1.74969
2.71998
5.8508
8.41169
8.37834
8.17421
7.73786
7.27738
6.82116
6.33055
0.999993
0.999994
0.999997
1
1.00002
1.00005
1.00015
1.00032
1.00092
1.00186
1.0053
1.01035
1.03191
1.05706
1.19877
1.38883
2.23431
4.00043
7.90984
8.25931
8.10309
7.7238
7.23289
6.7818
6.32501
0.999993
0.999993
0.999995
0.999999
1.00001
1.00003
1.00011
1.00023
1.00066
1.00134
1.0038
1.00744
1.0228
1.04063
1.14452
1.25531
1.94097
3.11873
6.70413
8.02618
7.94982
7.69196
7.21903
6.76136
6.32528
0.999992
0.999992
0.999993
0.999997
1
1.00003
1.00006
1.00019
1.00038
1.0011
1.00217
1.00651
1.01172
1.04066
1.0677
1.25303
1.49711
2.59292
4.93974
7.64125
7.75467
7.61199
7.23878
6.7641
6.32848
0.999992
0.999992
0.999993
0.999995
1
1.00002
1.00004
1.00013
1.00028
1.00078
1.0016
1.00451
1.00901
1.02655
1.04975
1.16449
1.31267
2.0376
3.3797
6.84705
7.59786
7.5049
7.23371
6.78255
6.34071
0.999991
0.999991
0.999992
0.999993
0.999998
1.00001
1.00003
1.00007
1.00021
1.00044
1.00126
1.00251
1.00737
1.01363
1.04543
1.07723
1.28346
1.55478
2.75977
5.2545
7.29358
7.3207
7.19371
6.84988
6.37237
0.999991
0.999991
0.999992
0.999992
0.999995
1
1.00002
1.00005
1.00015
1.00031
1.00087
1.00177
1.00494
1.00992
1.02856
1.05549
1.17154
1.34918
2.06117
3.44829
6.68401
7.20545
7.1211
6.87997
6.43415
0.999991
0.999991
0.999991
0.999992
0.999993
0.999998
1.00001
1.00003
1.00008
1.00023
1.00048
1.00135
1.00274
1.00776
1.01512
1.04654
1.084
1.28739
1.5854
2.76131
5.24898
6.93797
6.96784
6.85623
6.55905
0.999991
0.999991
0.999991
0.999991
0.999992
0.999996
1
1.00002
1.00005
1.00015
1.00032
1.00088
1.0018
1.00501
1.01007
1.02864
1.05703
1.16864
1.35482
2.02896
3.37228
6.37898
6.86111
6.79779
6.59879
0.999991
0.999991
0.999991
0.999991
0.999992
0.999993
0.999998
1.00001
1.00003
1.00008
1.00023
1.00048
1.00135
1.00274
1.00769
1.01523
1.04522
1.08528
1.27294
1.58398
2.65861
5.00174
6.59018
6.6696
6.57363
0.999991
0.99999
0.99999
0.999991
0.999991
0.999992
0.999995
1
1.00001
1.00006
1.00012
1.00036
1.00073
1.00204
1.00411
1.01155
1.02299
1.06659
1.13519
1.3953
1.89072
3.27064
5.96443
6.53553
6.49819
0.999991
0.99999
0.99999
0.999991
0.999991
0.999992
0.999993
0.999998
1.00001
1.00003
1.00008
1.00022
1.00046
1.00129
1.00261
1.00725
1.01447
1.04184
1.0811
1.24899
1.53199
2.5003
4.57845
6.21444
6.37251
0.999991
0.99999
0.99999
0.99999
0.999991
0.999991
0.999992
0.999994
1
1.00001
1.00005
1.00011
1.00033
1.00067
1.00186
1.00376
1.01049
1.02114
1.0596
1.12455
1.35062
1.79346
3.01826
5.47369
6.20276
0.999991
0.99999
0.99999
0.99999
0.99999
0.999991
0.999991
0.999993
0.999997
1
1.00003
1.00007
1.0002
1.00041
1.00114
1.00232
1.00638
1.01278
1.03644
1.07011
1.21603
1.43943
2.27481
3.95932
5.78635
0.999991
0.99999
0.99999
0.99999
0.99999
0.99999
0.999991
0.999992
0.999994
0.999999
1.00001
1.00004
1.00011
1.00024
1.00067
1.00138
1.00377
1.0076
1.02127
1.04134
1.12535
1.23979
1.74048
2.62469
4.87172
0.999991
0.99999
0.99999
0.99999
0.99999
0.99999
0.999991
0.999991
0.999993
0.999995
1
1.00002
1.00006
1.00014
1.00039
1.0008
1.0022
1.00444
1.01229
1.02435
1.07049
1.13917
1.41177
1.89524
3.21352
0.999991
0.99999
0.99999
0.99999
0.99999
0.99999
0.99999
0.999991
0.999991
0.999993
0.999997
1.00001
1.00003
1.00009
1.00019
1.00053
1.00108
1.00296
1.00583
1.0171
1.03089
1.10265
1.18005
1.60857
2.26213
0.999991
0.99999
0.99999
0.99999
0.99999
0.99999
0.99999
0.99999
0.999991
0.999992
0.999995
0.999999
1.00001
1.00004
1.00012
1.00026
1.00072
1.00147
1.00402
1.00802
1.02289
1.0431
1.13408
1.25718
1.75935
0.999991
0.99999
0.99999
0.99999
0.99999
0.99999
0.99999
0.99999
0.999991
0.999991
0.999992
0.999996
1
1.00002
1.00006
1.00017
1.00035
1.00097
1.00197
1.00539
1.01071
1.03079
1.05745
1.18078
1.34904
0.999991
0.99999
0.99999
0.99999
0.99999
0.99999
0.99999
0.99999
0.99999
0.999991
0.999991
0.999994
0.999997
1.00001
1.00003
1.00009
1.0002
1.00054
1.00111
1.00303
1.00605
1.01714
1.03198
1.10165
1.18157
0.999991
0.99999
0.99999
0.99999
0.99999
0.99999
0.99999
0.99999
0.99999
0.99999
0.999991
0.999992
0.999995
0.999999
1.00001
1.00004
1.00012
1.00026
1.00071
1.00144
1.00391
1.00784
1.02193
1.04229
1.12564
0.999991
0.99999
0.99999
0.99999
0.99999
0.99999
0.99999
0.99999
0.99999
0.99999
0.999991
0.999991
0.999992
0.999996
1
1.00002
1.00005
1.00016
1.00033
1.0009
1.00184
1.005
1.00997
1.02804
1.05357
0.999991
0.99999
0.99999
0.99999
0.99999
0.99999
0.99999
0.99999
0.99999
0.99999
0.99999
0.999991
0.999992
0.999993
0.999998
1.00001
1.00003
1.00007
1.00021
1.00043
1.00117
1.00237
1.00645
1.01293
1.03569
0.999991
0.99999
0.99999
0.99999
0.99999
0.99999
0.99999
0.99999
0.99999
0.99999
0.99999
0.99999
0.999991
0.999992
0.999994
0.999998
1.00001
1.00003
1.00011
1.00023
1.00063
1.00128
1.00344
1.00694
1.01893
0.999991
0.99999
0.99999
0.99999
0.99999
0.99999
0.99999
0.99999
0.99999
0.99999
0.99999
0.99999
0.999991
0.999991
0.999992
0.999995
1
1.00002
1.00004
1.00013
1.00028
1.00076
1.00154
1.00415
1.00829
0.999991
0.99999
0.99999
0.99999
0.99999
0.99999
0.99999
0.99999
0.99999
0.99999
0.99999
0.99999
0.99999
0.999991
0.999991
0.999992
0.999996
1
1.00002
1.00006
1.00017
1.00034
1.00093
1.00189
1.00508
0.999991
0.99999
0.99999
0.99999
0.99999
0.99999
0.99999
0.99999
0.99999
0.99999
0.99999
0.99999
0.99999
0.99999
0.999991
0.999992
0.999993
0.999998
1.00001
1.00003
1.00007
1.0002
1.00042
1.00114
1.00231
0.999991
0.99999
0.99999
0.99999
0.99999
0.99999
0.99999
0.99999
0.99999
0.99999
0.99999
0.99999
0.99999
0.99999
0.999991
0.999991
0.999992
0.999994
0.999999
1.00001
1.00004
1.00009
1.00025
1.00052
1.00139
0.999991
0.99999
0.99999
0.99999
0.99999
0.99999
0.99999
0.99999
0.99999
0.99999
0.99999
0.99999
0.99999
0.99999
0.99999
0.999991
0.999991
0.999992
0.999995
1
1.00002
1.00004
1.00013
1.00028
1.00074
0.999991
0.99999
0.99999
0.99999
0.99999
0.99999
0.99999
0.99999
0.99999
0.99999
0.99999
0.99999
0.99999
0.99999
0.99999
0.99999
0.999991
0.999991
0.999993
0.999997
1
1.00003
1.00006
1.00019
1.00039
0.999991
0.99999
0.99999
0.99999
0.99999
0.99999
0.99999
0.99999
0.99999
0.99999
0.99999
0.99999
0.99999
0.99999
0.99999
0.99999
0.999991
0.999991
0.999992
0.999995
1
1.00002
1.00005
1.00014
1.0003
1
1.00002
1.00004
1.00011
1.00024
1.00067
1.00136
1.00396
1.00762
1.02454
1.04269
1.15909
1.28215
2.08898
3.55936
8.39342
10.4096
10.2865
10.0436
9.9992
9.97211
9.87672
9.61756
9.01186
7.46935
1
1.00001
1.00003
1.0001
1.00021
1.00059
1.00121
1.00345
1.00679
1.02084
1.03743
1.13521
1.23814
1.90407
3.09766
7.19835
10.3347
10.1897
9.87539
9.7533
9.66412
9.46956
9.0544
8.22161
6.61233
1
1.00001
1.00003
1.00009
1.00018
1.00051
1.00104
1.00296
1.00596
1.01732
1.03386
1.10775
1.20299
1.71494
2.66606
5.91408
10.2013
10.07
9.73778
9.51726
9.36099
9.08361
8.5728
7.7146
6.4011
1
1.00001
1.00002
1.00007
1.00015
1.00042
1.00086
1.00244
1.00493
1.01417
1.02807
1.08567
1.16849
1.55185
2.28601
4.75394
9.80254
9.83143
9.62145
9.3001
9.07057
8.74653
8.21891
7.42384
6.36635
1
1.00001
1.00002
1.00006
1.00012
1.00033
1.00067
1.00189
1.00372
1.01137
1.02029
1.07222
1.12361
1.45741
2.01799
4.08118
8.82252
9.55998
9.41806
9.10353
8.81376
8.46391
7.9596
7.24981
6.35999
1
1.00001
1.00002
1.00004
1.00011
1.00023
1.00064
1.00129
1.00371
1.00718
1.02268
1.03972
1.14569
1.25653
1.9778
3.25031
7.37847
9.3059
9.21437
8.95361
8.60199
8.23137
7.75688
7.12305
6.35669
1
1
1.00001
1.00003
1.00009
1.00019
1.00053
1.00107
1.00302
1.00608
1.01767
1.03424
1.10997
1.20535
1.72334
2.67079
5.79844
9.0961
9.06272
8.8563
8.44191
8.04655
7.59216
7.02268
6.35023
1
1
1.00001
1.00002
1.00007
1.00014
1.00041
1.00083
1.00232
1.00469
1.01346
1.02669
1.08046
1.16124
1.50943
2.18062
4.33686
8.60415
8.91907
8.74788
8.35102
7.90719
7.46125
6.94241
6.3438
1
1
1.00001
1.00002
1.00004
1.00013
1.00026
1.00071
1.00144
1.0041
1.00797
1.02473
1.04378
1.15688
1.28141
2.03238
3.39924
7.48376
8.67128
8.56237
8.25874
7.79699
7.35516
6.87594
6.33728
1
1