/*--------------------------------*- C++ -*----------------------------------*\
| =========                 |                                                 |
| \\      /  F ield         | OpenFOAM: The Open Source CFD Toolbox           |
|  \\    /   O peration     | Version:  4.1                                   |
|   \\  /    A nd           | Web:      www.OpenFOAM.org                      |
|    \\/     M anipulation  |                                                 |
\*---------------------------------------------------------------------------*/
FoamFile
{
    version     2.0;
    format      ascii;
    class       volVectorField;
    location    "9.6";
    object      U;
}
// * * * * * * * * * * * * * * * * * * * * * * * * * * * * * * * * * * * * * //

dimensions      [0 1 -1 0 0 0 0];

internalField   nonuniform List<vector> 
52500
(
(2.99999 1.31638e-08 -0.00571426)
(2.99998 7.2061e-08 -0.00571443)
(2.99995 2.60967e-07 -0.00571469)
(2.99986 6.65562e-07 -0.00571551)
(2.99969 1.82759e-06 -0.00571701)
(2.9992 4.16206e-06 -0.00572159)
(2.99823 1.09737e-05 -0.0057304)
(2.99527 2.3854e-05 -0.00575521)
(2.98991 6.67558e-05 -0.00581217)
(2.97071 0.000136798 -0.00593519)
(2.93421 0.000420661 -0.00636412)
(2.80439 0.00098597 -0.00705867)
(2.43674 0.00296661 -0.00993624)
(1.58463 0.00786251 -0.0152954)
(0.671965 0.0199905 -0.0181877)
(0.536539 0.0208794 -0.0184726)
(0.567565 0.0220555 -0.0185182)
(0.565443 0.0241412 -0.0185951)
(0.515287 0.0263703 -0.01877)
(0.430435 0.0287462 -0.0189485)
(0.346858 0.0314912 -0.0191422)
(0.276469 0.0347423 -0.0193083)
(0.205602 0.0382715 -0.0194722)
(0.124206 0.0424784 -0.0196277)
(0.0553895 0.04872 -0.0197857)
(2.99999 4.02136e-08 -0.00571426)
(2.99998 2.19274e-07 -0.00571443)
(2.99995 7.95382e-07 -0.00571469)
(2.99986 2.02599e-06 -0.0057155)
(2.99969 5.56566e-06 -0.00571698)
(2.99921 1.26589e-05 -0.00572152)
(2.99825 3.33877e-05 -0.00573023)
(2.99531 7.22366e-05 -0.00575483)
(2.99 0.000203443 -0.00581111)
(2.971 0.000412091 -0.00593311)
(2.93494 0.00128932 -0.00635701)
(2.80634 0.00299207 -0.00704297)
(2.44304 0.00915329 -0.00989536)
(1.5986 0.024165 -0.0152124)
(0.680874 0.0605581 -0.0180897)
(0.53615 0.0606567 -0.0183974)
(0.567985 0.0617484 -0.0184401)
(0.56642 0.0657683 -0.0185084)
(0.516103 0.0700261 -0.0186761)
(0.431174 0.074621 -0.0188458)
(0.347376 0.0796944 -0.0190322)
(0.27615 0.0852586 -0.0191881)
(0.203876 0.0905597 -0.0193443)
(0.120775 0.0958305 -0.0194889)
(0.0513992 0.101449 -0.0196305)
(2.99999 7.67367e-08 -0.00571426)
(2.99998 3.73009e-07 -0.00571443)
(2.99995 1.39004e-06 -0.00571468)
(2.99987 3.53309e-06 -0.00571547)
(2.9997 9.72265e-06 -0.00571693)
(2.99922 2.21622e-05 -0.00572137)
(2.99828 5.81175e-05 -0.0057299)
(2.99541 0.00012792 -0.0057541)
(2.99019 0.000346985 -0.005809)
(2.97159 0.00073556 -0.00592915)
(2.93643 0.00213796 -0.00634239)
(2.81041 0.00510429 -0.00701244)
(2.45639 0.0153892 -0.00981201)
(1.62914 0.0400949 -0.0150553)
(0.701593 0.103011 -0.0179513)
(0.536906 0.102249 -0.0183093)
(0.570445 0.10378 -0.0183491)
(0.570173 0.110932 -0.0184083)
(0.51976 0.118617 -0.0185706)
(0.435044 0.127288 -0.0187295)
(0.351364 0.136693 -0.0189074)
(0.279659 0.146669 -0.0190561)
(0.206346 0.156222 -0.0192011)
(0.121829 0.165134 -0.0193337)
(0.0506285 0.172514 -0.0194649)
(2.99999 1.05636e-07 -0.00571426)
(2.99998 5.35881e-07 -0.00571442)
(2.99995 2.01027e-06 -0.00571467)
(2.99987 5.13593e-06 -0.00571543)
(2.99971 1.41458e-05 -0.00571684)
(2.99925 3.23411e-05 -0.00572114)
(2.99834 8.434e-05 -0.0057294)
(2.99555 0.000188685 -0.00575281)
(2.99051 0.000493426 -0.00580591)
(2.97246 0.0010938 -0.00592213)
(2.9387 0.00294736 -0.00632364)
(2.8165 0.0072301 -0.00696283)
(2.47544 0.0214191 -0.00970092)
(1.67207 0.0549543 -0.0148389)
(0.729623 0.145231 -0.0177825)
(0.534629 0.143191 -0.0182198)
(0.572198 0.145175 -0.0182505)
(0.574987 0.155635 -0.0182989)
(0.525375 0.166897 -0.0184477)
(0.441854 0.179841 -0.0186003)
(0.358996 0.193925 -0.0187583)
(0.287259 0.208884 -0.0188928)
(0.213013 0.22351 -0.0190374)
(0.126543 0.236884 -0.0191655)
(0.0520734 0.246507 -0.0192939)
(2.99999 1.27642e-07 -0.00571426)
(2.99998 7.07732e-07 -0.00571441)
(2.99995 2.63658e-06 -0.00571465)
(2.99988 6.77304e-06 -0.00571538)
(2.99972 1.86608e-05 -0.00571672)
(2.99928 4.27789e-05 -0.00572083)
(2.99841 0.000111098 -0.00572871)
(2.99575 0.000251467 -0.00575101)
(2.99095 0.000640709 -0.00580186)
(2.9736 0.00146023 -0.00591231)
(2.9417 0.00377639 -0.00630014)
(2.82458 0.00925977 -0.00689598)
(2.50028 0.0275263 -0.00955746)
(1.72855 0.0701512 -0.01455)
(0.76634 0.189339 -0.017576)
(0.530408 0.184532 -0.0181284)
(0.574181 0.186311 -0.018148)
(0.581468 0.199788 -0.0181822)
(0.533181 0.214415 -0.0183135)
(0.4516 0.231606 -0.0184547)
(0.370157 0.250478 -0.0186087)
(0.298862 0.270719 -0.0187203)
(0.223841 0.290994 -0.0188324)
(0.134677 0.309718 -0.0189511)
(0.0554323 0.322453 -0.0190735)
(3 1.57381e-07 -0.00571426)
(2.99998 8.72406e-07 -0.0057144)
(2.99996 3.25611e-06 -0.00571462)
(2.99988 8.38323e-06 -0.00571531)
(2.99974 2.31545e-05 -0.00571657)
(2.99932 5.33424e-05 -0.00572042)
(2.99851 0.000138087 -0.00572784)
(2.99599 0.000318313 -0.00574859)
(2.99152 0.000786386 -0.0057969)
(2.97503 0.00184252 -0.00589916)
(2.94538 0.00467672 -0.00627152)
(2.83471 0.0113731 -0.00681551)
(2.53134 0.0327628 -0.00937341)
(1.80126 0.0854371 -0.0141632)
(0.813332 0.234782 -0.0173207)
(0.525038 0.225858 -0.0180293)
(0.577239 0.227043 -0.0180442)
(0.590312 0.24343 -0.0180503)
(0.543812 0.261282 -0.0181783)
(0.46496 0.282818 -0.0182749)
(0.385553 0.307088 -0.0184167)
(0.315083 0.333643 -0.0185301)
(0.239435 0.361019 -0.0186289)
(0.146964 0.387171 -0.018731)
(0.0611252 0.405331 -0.018848)
(3 1.71037e-07 -0.00571425)
(2.99998 9.47089e-07 -0.00571439)
(2.99996 3.53574e-06 -0.00571459)
(2.99989 9.08477e-06 -0.00571522)
(2.99976 2.51284e-05 -0.00571639)
(2.99938 5.76871e-05 -0.00571991)
(2.99863 0.000150936 -0.0057268)
(2.99629 0.00034025 -0.00574538)
(2.99222 0.000886749 -0.00579125)
(2.9768 0.00196744 -0.00588171)
(2.94986 0.00551426 -0.00623573)
(2.84617 0.0125561 -0.00671762)
(2.56856 0.0399118 -0.00917133)
(1.88944 0.101476 -0.0137008)
(0.866258 0.283535 -0.0170175)
(0.515381 0.268584 -0.0179275)
(0.579859 0.267669 -0.0179351)
(0.600676 0.286379 -0.0179212)
(0.556822 0.307107 -0.0180377)
(0.482017 0.333002 -0.0181282)
(0.406034 0.363356 -0.0182089)
(0.337535 0.397533 -0.0182893)
(0.262046 0.434241 -0.0183629)
(0.166034 0.471364 -0.0184371)
(0.0709776 0.499863 -0.0185265)
(3 1.69032e-07 -0.00571425)
(2.99999 9.35876e-07 -0.00571438)
(2.99996 3.47776e-06 -0.00571456)
(2.9999 8.87908e-06 -0.00571514)
(2.99978 2.44517e-05 -0.00571621)
(2.99943 5.53511e-05 -0.00571944)
(2.99874 0.000147949 -0.00572573)
(2.99661 0.000308353 -0.00574287)
(2.99288 0.000941949 -0.00578441)
(2.97883 0.00170364 -0.00586804)
(2.95444 0.00644208 -0.0061876)
(2.86106 0.0127409 -0.00663328)
(2.61411 0.0484095 -0.00882618)
(1.99753 0.116792 -0.0130646)
(0.937999 0.333035 -0.0166264)
(0.512857 0.313987 -0.0177856)
(0.588522 0.309276 -0.0177902)
(0.616711 0.328426 -0.01775)
(0.575054 0.351156 -0.0178469)
(0.505039 0.381723 -0.0179382)
(0.433375 0.418996 -0.0180137)
(0.368069 0.462244 -0.0180432)
(0.294494 0.511003 -0.0180779)
(0.196222 0.564576 -0.0181056)
(0.0884715 0.614146 -0.0181573)
(3 1.93731e-07 -0.00571425)
(2.99999 1.06686e-06 -0.00571436)
(2.99997 3.95291e-06 -0.00571453)
(2.99991 1.01121e-05 -0.00571506)
(2.9998 2.77333e-05 -0.00571604)
(2.99948 6.30331e-05 -0.00571902)
(2.99884 0.000166683 -0.00572467)
(2.99695 0.000353583 -0.00574128)
(2.99339 0.00104194 -0.00577635)
(2.9813 0.00191531 -0.00586045)
(2.95928 0.00712001 -0.00611855)
(2.87831 0.0136694 -0.00654598)
(2.66708 0.052051 -0.00838304)
(2.12456 0.125105 -0.0122526)
(1.03413 0.371238 -0.0161458)
(0.528581 0.360825 -0.0176123)
(0.608651 0.355043 -0.0176263)
(0.642047 0.370598 -0.0175736)
(0.602167 0.39364 -0.0176598)
(0.537444 0.42864 -0.0177021)
(0.47072 0.473575 -0.0177496)
(0.409944 0.526532 -0.0177477)
(0.341671 0.589686 -0.0177143)
(0.247025 0.668869 -0.0176497)
(0.122246 0.761997 -0.017532)
(3 3.81916e-07 -0.00571425)
(2.99999 7.72617e-07 -0.00571435)
(2.99997 5.70553e-06 -0.0057145)
(2.99992 8.93574e-06 -0.00571495)
(2.99982 3.91325e-05 -0.00571581)
(2.99954 5.80673e-05 -0.00571838)
(2.99899 0.000237402 -0.00572336)
(2.99733 0.000327237 -0.00573762)
(2.99419 0.0014901 -0.00576841)
(2.98382 0.00150504 -0.00584229)
(2.96445 0.0101128 -0.00605961)
(2.89584 0.00826346 -0.0064502)
(2.71966 0.0641583 -0.00795615)
(2.25821 0.111855 -0.0114797)
(1.15552 0.373538 -0.0155093)
(0.578283 0.405235 -0.0172786)
(0.64542 0.409295 -0.0173325)
(0.678104 0.413725 -0.0173315)
(0.641243 0.437223 -0.0174447)
(0.58239 0.473951 -0.0174657)
(0.520519 0.525721 -0.0174714)
(0.465749 0.587618 -0.0174204)
(0.410657 0.669821 -0.0172981)
(0.33548 0.79182 -0.017073)
(0.188123 0.998604 -0.0166413)
(2.99999 1.27744e-08 -2.44288e-09)
(2.99998 6.96607e-08 -8.68524e-09)
(2.99995 2.58501e-07 -9.97981e-09)
(2.99986 6.62568e-07 -1.59994e-08)
(2.99969 1.8245e-06 -1.63574e-08)
(2.9992 4.15912e-06 -2.19311e-08)
(2.99823 1.09723e-05 -2.33352e-08)
(2.99527 2.38571e-05 -3.17861e-08)
(2.9899 6.67657e-05 -4.30885e-08)
(2.9707 0.000136878 -7.14228e-08)
(2.93419 0.000420725 -1.35604e-07)
(2.80435 0.000986594 -3.33673e-07)
(2.4366 0.00296761 -6.16015e-07)
(1.58429 0.00786681 -1.82948e-06)
(0.671788 0.0199967 -1.59256e-06)
(0.53658 0.0208853 1.61909e-07)
(0.567566 0.0220606 8.03852e-08)
(0.565408 0.0241463 -8.21934e-08)
(0.515232 0.0263766 -1.09691e-07)
(0.430368 0.0287542 -1.31004e-07)
(0.346789 0.031498 -9.49876e-08)
(0.276402 0.034744 -6.96416e-08)
(0.205543 0.0382665 -5.29861e-08)
(0.124164 0.0424673 -3.21835e-08)
(0.0553691 0.0487027 -8.69907e-09)
(2.99999 3.89235e-08 -2.45078e-09)
(2.99998 2.12374e-07 -8.72275e-09)
(2.99995 7.88277e-07 -9.98625e-09)
(2.99986 2.01804e-06 -1.60102e-08)
(2.99969 5.55778e-06 -1.636e-08)
(2.9992 1.26523e-05 -2.19252e-08)
(2.99824 3.33856e-05 -2.32926e-08)
(2.99531 7.22406e-05 -3.15925e-08)
(2.99 0.000203496 -4.29679e-08)
(2.97099 0.000412231 -6.94237e-08)
(2.93492 0.00128978 -1.36489e-07)
(2.80629 0.00299357 -3.21905e-07)
(2.4429 0.00915756 -6.15673e-07)
(1.59827 0.0241781 -1.79039e-06)
(0.680697 0.060576 -1.58526e-06)
(0.536186 0.0606723 1.59611e-07)
(0.567983 0.0617603 7.52088e-08)
(0.566386 0.065778 -8.55036e-08)
(0.516059 0.0700343 -1.09435e-07)
(0.43113 0.074629 -1.26966e-07)
(0.347341 0.0796982 -9.38115e-08)
(0.276122 0.0852541 -7.41891e-08)
(0.203854 0.0905467 -6.12627e-08)
(0.12076 0.0958094 -4.48452e-08)
(0.0513912 0.101419 -2.71241e-08)
(2.99999 6.78645e-08 -2.46894e-09)
(2.99998 3.69796e-07 -8.78968e-09)
(2.99995 1.37432e-06 -9.99882e-09)
(2.99987 3.52114e-06 -1.602e-08)
(2.9997 9.7015e-06 -1.63683e-08)
(2.99922 2.21385e-05 -2.19335e-08)
(2.99828 5.80804e-05 -2.32763e-08)
(2.99541 0.000127817 -3.15963e-08)
(2.99019 0.000346993 -4.24628e-08)
(2.97159 0.000734886 -6.7542e-08)
(2.93641 0.0021395 -1.33631e-07)
(2.81037 0.00510463 -3.05487e-07)
(2.45626 0.0153976 -5.93746e-07)
(1.62881 0.0401293 -1.72632e-06)
(0.701415 0.103053 -1.58327e-06)
(0.53694 0.102277 1.45451e-07)
(0.570452 0.103794 5.97084e-08)
(0.570159 0.11094 -9.03451e-08)
(0.519745 0.118622 -1.08595e-07)
(0.435033 0.127293 -1.20419e-07)
(0.351361 0.136694 -9.63684e-08)
(0.279659 0.146662 -8.65235e-08)
(0.206346 0.156207 -7.91681e-08)
(0.12183 0.16511 -7.0355e-08)
(0.0506279 0.172481 -6.1087e-08)
(2.99999 9.87961e-08 -2.629e-09)
(2.99998 5.37757e-07 -8.63068e-09)
(2.99995 1.9997e-06 -1.02011e-08)
(2.99987 5.1286e-06 -1.59672e-08)
(2.99971 1.41282e-05 -1.65257e-08)
(2.99924 3.23183e-05 -2.20095e-08)
(2.99833 8.43e-05 -2.35758e-08)
(2.99555 0.000188582 -3.30333e-08)
(2.9905 0.000493406 -4.09307e-08)
(2.97245 0.00109317 -8.28864e-08)
(2.93868 0.00294884 -9.76043e-08)
(2.81646 0.00723082 -3.39063e-07)
(2.47533 0.0214277 -5.075e-07)
(1.67183 0.0549895 -1.46078e-06)
(0.72951 0.145273 -1.54769e-06)
(0.534712 0.143219 1.03511e-07)
(0.572242 0.145187 1.4412e-08)
(0.575006 0.15564 -1.08095e-07)
(0.525391 0.166899 -1.16134e-07)
(0.44187 0.179844 -1.18336e-07)
(0.359014 0.193924 -1.0343e-07)
(0.287276 0.208877 -1.0066e-07)
(0.213026 0.223496 -9.84205e-08)
(0.126551 0.236862 -9.70776e-08)
(0.0520767 0.246476 -9.54629e-08)
(2.99999 1.30361e-07 -2.60636e-09)
(2.99998 7.08781e-07 -8.6386e-09)
(2.99995 2.63731e-06 -1.02054e-08)
(2.99988 6.76973e-06 -1.59835e-08)
(2.99972 1.86489e-05 -1.65441e-08)
(2.99928 4.27456e-05 -2.20387e-08)
(2.99841 0.000111027 -2.35872e-08)
(2.99575 0.000251216 -3.29341e-08)
(2.99094 0.000640593 -4.06456e-08)
(2.9736 0.00145875 -8.12561e-08)
(2.94168 0.00377735 -9.27711e-08)
(2.82455 0.00926036 -3.22249e-07)
(2.50018 0.0275332 -4.74865e-07)
(1.72832 0.0701706 -1.37008e-06)
(0.766231 0.189366 -1.55178e-06)
(0.530491 0.184555 9.02354e-08)
(0.57423 0.186323 -1.01716e-08)
(0.581496 0.199794 -1.17442e-07)
(0.533209 0.214418 -1.19776e-07)
(0.451628 0.231609 -1.16452e-07)
(0.370184 0.250478 -1.1111e-07)
(0.298886 0.270714 -1.13989e-07)
(0.22386 0.290983 -1.15856e-07)
(0.13469 0.3097 -1.19661e-07)
(0.0554376 0.322427 -1.23754e-07)
(2.99999 1.61263e-07 -2.57471e-09)
(2.99998 8.73928e-07 -8.65685e-09)
(2.99996 3.26091e-06 -1.0215e-08)
(2.99988 8.38658e-06 -1.60457e-08)
(2.99974 2.31598e-05 -1.66988e-08)
(2.99932 5.33467e-05 -2.24362e-08)
(2.99851 0.000138098 -2.43352e-08)
(2.99599 0.000318337 -3.66369e-08)
(2.99152 0.000786451 -3.84793e-08)
(2.97503 0.00184301 -1.09251e-07)
(2.94537 0.00467569 -5.56967e-08)
(2.83468 0.0113756 -3.40085e-07)
(2.53125 0.0327654 -4.18959e-07)
(1.80104 0.0854456 -1.3188e-06)
(0.813237 0.234792 -1.58327e-06)
(0.525128 0.225873 1.01272e-07)
(0.577291 0.227054 -2.21281e-08)
(0.590345 0.243437 -1.24903e-07)
(0.543844 0.261286 -1.23748e-07)
(0.464992 0.282822 -1.15654e-07)
(0.385583 0.30709 -1.15867e-07)
(0.315109 0.333641 -1.22267e-07)
(0.239456 0.361013 -1.29119e-07)
(0.146978 0.387158 -1.36992e-07)
(0.0611312 0.405312 -1.45322e-07)
(3 1.74956e-07 -2.52869e-09)
(2.99998 9.50013e-07 -8.67558e-09)
(2.99996 3.5422e-06 -1.01527e-08)
(2.99989 9.09442e-06 -1.60025e-08)
(2.99976 2.51498e-05 -1.65063e-08)
(2.99937 5.77335e-05 -2.204e-08)
(2.99863 0.000151038 -2.34372e-08)
(2.99629 0.000340595 -3.2622e-08)
(2.99222 0.00088702 -3.97707e-08)
(2.97679 0.00196983 -7.27491e-08)
(2.94984 0.00551295 -1.20377e-07)
(2.84614 0.012561 -2.64743e-07)
(2.56847 0.039909 -4.58581e-07)
(1.88922 0.101479 -1.34185e-06)
(0.866149 0.283531 -1.6734e-06)
(0.515455 0.268589 1.30961e-07)
(0.579897 0.267676 -1.51781e-08)
(0.600699 0.286384 -1.25612e-07)
(0.556849 0.307112 -1.24171e-07)
(0.482046 0.333007 -1.15837e-07)
(0.406062 0.363359 -1.1884e-07)
(0.33756 0.397534 -1.26911e-07)
(0.262067 0.434239 -1.36454e-07)
(0.166048 0.471356 -1.46698e-07)
(0.0709837 0.49985 -1.58704e-07)
(3 1.71488e-07 -2.4958e-09)
(2.99998 9.40573e-07 -8.66523e-09)
(2.99996 3.48034e-06 -1.01476e-08)
(2.9999 8.887e-06 -1.59626e-08)
(2.99978 2.44653e-05 -1.64304e-08)
(2.99943 5.53841e-05 -2.18525e-08)
(2.99874 0.000148017 -2.3067e-08)
(2.9966 0.000308528 -3.13782e-08)
(2.99288 0.000942245 -3.90707e-08)
(2.97882 0.0017039 -6.63323e-08)
(2.95442 0.0064443 -1.18787e-07)
(2.86102 0.0127434 -2.3251e-07)
(2.61402 0.0484118 -5.32298e-07)
(1.9973 0.116802 -1.31635e-06)
(0.937878 0.333032 -1.83997e-06)
(0.512917 0.313986 1.45949e-07)
(0.588549 0.309277 -6.44651e-09)
(0.616724 0.328429 -1.24758e-07)
(0.575072 0.35116 -1.23653e-07)
(0.50506 0.381727 -1.17421e-07)
(0.433396 0.419 -1.21152e-07)
(0.368089 0.462246 -1.30872e-07)
(0.294512 0.511003 -1.41839e-07)
(0.196234 0.564573 -1.53571e-07)
(0.0884774 0.614139 -1.6676e-07)
(3 1.93092e-07 -2.47943e-09)
(2.99999 1.07132e-06 -8.62483e-09)
(2.99997 3.94877e-06 -1.01889e-08)
(2.99991 1.01101e-05 -1.59089e-08)
(2.9998 2.77316e-05 -1.63873e-08)
(2.99948 6.30459e-05 -2.16699e-08)
(2.99884 0.000166732 -2.277e-08)
(2.99695 0.000353737 -3.06641e-08)
(2.99339 0.00104224 -3.73429e-08)
(2.9813 0.0019159 -7.54306e-08)
(2.95927 0.00712198 -8.58123e-08)
(2.87828 0.0136718 -2.5226e-07)
(2.66699 0.0520574 -4.83141e-07)
(2.12434 0.125119 -1.28248e-06)
(1.034 0.371243 -2.0194e-06)
(0.528609 0.36081 1.31878e-07)
(0.608659 0.355028 -6.48624e-09)
(0.642046 0.370595 -1.17728e-07)
(0.602172 0.393641 -1.21846e-07)
(0.537454 0.428642 -1.21717e-07)
(0.470733 0.473578 -1.25408e-07)
(0.409958 0.526535 -1.35e-07)
(0.341684 0.589688 -1.42777e-07)
(0.247035 0.668869 -1.56144e-07)
(0.122252 0.761996 -1.67645e-07)
(3 3.67214e-07 -2.5088e-09)
(2.99999 8.22959e-07 -8.56888e-09)
(2.99997 5.59171e-06 -1.03015e-08)
(2.99992 8.96549e-06 -1.59528e-08)
(2.99982 3.90026e-05 -1.64418e-08)
(2.99954 5.81136e-05 -2.16213e-08)
(2.99898 0.000237329 -2.24549e-08)
(2.99733 0.000327438 -2.95569e-08)
(2.99418 0.00149014 -3.6637e-08)
(2.98382 0.00150674 -6.15106e-08)
(2.96444 0.0101142 -9.53759e-08)
(2.89581 0.00827065 -2.24775e-07)
(2.71958 0.0641708 -4.78088e-07)
(2.25799 0.11191 -1.24155e-06)
(1.15534 0.373636 -2.25249e-06)
(0.57824 0.405238 -1.20947e-08)
(0.645395 0.409267 -7.5533e-08)
(0.678086 0.413716 -8.71532e-08)
(0.64123 0.43722 -1.22037e-07)
(0.582385 0.473949 -1.27786e-07)
(0.52052 0.52572 -1.35694e-07)
(0.465755 0.587618 -1.41467e-07)
(0.410665 0.669821 -1.51346e-07)
(0.335488 0.791821 -1.62413e-07)
(0.18813 0.998606 -1.64509e-07)
(2.99999 1.27743e-08 -7.27306e-13)
(2.99998 6.96602e-08 -3.58926e-12)
(2.99995 2.585e-07 -9.59793e-12)
(2.99986 6.62564e-07 -2.03514e-11)
(2.99969 1.8245e-06 -4.92934e-11)
(2.9992 4.1591e-06 -9.68947e-11)
(2.99823 1.09723e-05 -2.58417e-10)
(2.99526 2.38572e-05 -4.85627e-10)
(2.9899 6.67658e-05 -1.55784e-09)
(2.9707 0.00013688 -2.57497e-09)
(2.93419 0.000420726 -9.61705e-09)
(2.80435 0.000986613 -2.00518e-08)
(2.43659 0.00296764 -5.25774e-08)
(1.58427 0.00786694 -1.3395e-07)
(0.671774 0.0199967 -1.38402e-07)
(0.536583 0.0208854 4.23656e-09)
(0.567566 0.0220607 -1.41718e-09)
(0.565406 0.0241464 -1.33782e-08)
(0.51523 0.0263766 -1.5411e-08)
(0.430366 0.0287543 -1.73132e-08)
(0.346787 0.0314981 -1.60525e-08)
(0.2764 0.034744 -1.5261e-08)
(0.205541 0.0382663 -1.49934e-08)
(0.124163 0.0424669 -1.45053e-08)
(0.0553686 0.0487022 -1.39352e-08)
(2.99999 3.89233e-08 -7.30836e-13)
(2.99998 2.12373e-07 -3.60461e-12)
(2.99995 7.88274e-07 -9.63624e-12)
(2.99986 2.01803e-06 -2.04396e-11)
(2.99969 5.55776e-06 -4.93498e-11)
(2.9992 1.26522e-05 -9.68909e-11)
(2.99824 3.33856e-05 -2.57533e-10)
(2.99531 7.22404e-05 -4.80568e-10)
(2.99 0.000203497 -1.55608e-09)
(2.97099 0.000412233 -2.5188e-09)
(2.93492 0.00128979 -9.657e-09)
(2.80629 0.00299361 -1.96818e-08)
(2.44289 0.00915766 -5.27051e-08)
(1.59824 0.0241785 -1.32821e-07)
(0.680683 0.0605761 -1.39261e-07)
(0.536189 0.0606725 4.42713e-09)
(0.567983 0.0617605 -1.50698e-09)
(0.566384 0.0657781 -1.35674e-08)
(0.516057 0.0700343 -1.54445e-08)
(0.431128 0.074629 -1.71667e-08)
(0.34734 0.079698 -1.59887e-08)
(0.276121 0.0852538 -1.53812e-08)
(0.203853 0.0905462 -1.52353e-08)
(0.120759 0.0958087 -1.48481e-08)
(0.051391 0.101418 -1.44134e-08)
(2.99999 6.78631e-08 -7.36785e-13)
(2.99998 3.69788e-07 -3.62111e-12)
(2.99995 1.37429e-06 -9.7316e-12)
(2.99987 3.52106e-06 -2.0664e-11)
(2.9997 9.70129e-06 -5.00077e-11)
(2.99922 2.2138e-05 -9.84674e-11)
(2.99828 5.80793e-05 -2.59034e-10)
(2.99541 0.000127813 -4.84842e-10)
(2.99019 0.000346992 -1.54723e-09)
(2.97159 0.000734859 -2.45056e-09)
(2.93641 0.00213954 -9.64293e-09)
(2.81037 0.00510462 -1.90417e-08)
(2.45625 0.0153978 -5.25059e-08)
(1.62879 0.0401304 -1.31184e-07)
(0.7014 0.103053 -1.42195e-07)
(0.536943 0.102278 4.55067e-09)
(0.570452 0.103794 -1.88363e-09)
(0.570158 0.11094 -1.39418e-08)
(0.519744 0.118622 -1.5599e-08)
(0.435032 0.127293 -1.70804e-08)
(0.35136 0.136694 -1.61301e-08)
(0.279659 0.146661 -1.59422e-08)
(0.206346 0.156206 -1.58747e-08)
(0.12183 0.165109 -1.57241e-08)
(0.0506279 0.17248 -1.54737e-08)
(2.99999 9.87942e-08 -7.6465e-13)
(2.99998 5.37746e-07 -3.75653e-12)
(2.99995 1.99966e-06 -1.01322e-11)
(2.99987 5.1285e-06 -2.15631e-11)
(2.99971 1.4128e-05 -5.24459e-11)
(2.99924 3.23177e-05 -1.04224e-10)
(2.99833 8.42989e-05 -2.70993e-10)
(2.99555 0.000188578 -5.4746e-10)
(2.9905 0.000493404 -1.49872e-09)
(2.97245 0.00109314 -3.07403e-09)
(2.93868 0.00294888 -8.3503e-09)
(2.81646 0.00723082 -2.04672e-08)
(2.47532 0.0214279 -4.99417e-08)
(1.67181 0.0549905 -1.22905e-07)
(0.729498 0.145273 -1.45722e-07)
(0.534717 0.143219 4.24054e-09)
(0.572244 0.145187 -3.19885e-09)
(0.575006 0.15564 -1.49081e-08)
(0.52539 0.166898 -1.6123e-08)
(0.44187 0.179843 -1.72506e-08)
(0.359014 0.193924 -1.6493e-08)
(0.287276 0.208877 -1.66268e-08)
(0.213026 0.223495 -1.6679e-08)
(0.126551 0.236861 -1.68189e-08)
(0.0520767 0.246475 -1.67644e-08)
(2.99999 1.30359e-07 -7.73492e-13)
(2.99998 7.0877e-07 -3.79981e-12)
(2.99995 2.63727e-06 -1.02524e-11)
(2.99988 6.76961e-06 -2.18168e-11)
(2.99972 1.86486e-05 -5.29682e-11)
(2.99928 4.27447e-05 -1.0518e-10)
(2.99841 0.000111025 -2.7255e-10)
(2.99575 0.00025121 -5.47788e-10)
(2.99094 0.000640589 -1.50134e-09)
(2.9736 0.00145871 -3.04269e-09)
(2.94168 0.00377737 -8.32538e-09)
(2.82454 0.00926038 -1.99524e-08)
(2.50017 0.0275333 -4.98965e-08)
(1.7283 0.0701709 -1.22039e-07)
(0.766219 0.189366 -1.52938e-07)
(0.530496 0.184555 5.64497e-09)
(0.574232 0.186323 -3.54022e-09)
(0.581496 0.199794 -1.55745e-08)
(0.533209 0.214418 -1.6523e-08)
(0.451628 0.231609 -1.74218e-08)
(0.370185 0.250477 -1.71139e-08)
(0.298886 0.270713 -1.74732e-08)
(0.22386 0.290982 -1.75966e-08)
(0.13469 0.309699 -1.78664e-08)
(0.0554376 0.322426 -1.79589e-08)
(2.99999 1.61263e-07 -8.13096e-13)
(2.99998 8.7393e-07 -3.94643e-12)
(2.99996 3.26092e-06 -1.08545e-11)
(2.99988 8.38658e-06 -2.32141e-11)
(2.99974 2.31598e-05 -5.73878e-11)
(2.99932 5.33467e-05 -1.16252e-10)
(2.99851 0.000138098 -2.9517e-10)
(2.99599 0.000318336 -6.6223e-10)
(2.99152 0.00078645 -1.43995e-09)
(2.97503 0.00184301 -3.94277e-09)
(2.94537 0.00467565 -7.3161e-09)
(2.83468 0.0113756 -2.04603e-08)
(2.53124 0.0327656 -4.97084e-08)
(1.80102 0.0854456 -1.23847e-07)
(0.813225 0.23479 -1.64088e-07)
(0.525133 0.225872 8.19125e-09)
(0.577293 0.227054 -3.59593e-09)
(0.590345 0.243437 -1.62358e-08)
(0.543844 0.261286 -1.70291e-08)
(0.464992 0.282821 -1.76974e-08)
(0.385583 0.30709 -1.77669e-08)
(0.315109 0.33364 -1.81974e-08)
(0.239456 0.361012 -1.86406e-08)
(0.146978 0.387157 -1.90228e-08)
(0.0611312 0.405311 -1.9164e-08)
(3 1.74962e-07 -7.73652e-13)
(2.99998 9.50044e-07 -3.78283e-12)
(2.99996 3.54232e-06 -1.02802e-11)
(2.99989 9.09472e-06 -2.19397e-11)
(2.99976 2.51506e-05 -5.35868e-11)
(2.99937 5.77354e-05 -1.07348e-10)
(2.99863 0.000151042 -2.76652e-10)
(2.99629 0.000340609 -5.73344e-10)
(2.99222 0.000887033 -1.49634e-09)
(2.97679 0.00196991 -3.097e-09)
(2.94984 0.00551294 -9.09484e-09)
(2.84614 0.0125613 -1.95502e-08)
(2.56846 0.0399086 -4.83997e-08)
(1.88919 0.101479 -1.30749e-07)
(0.866137 0.283529 -1.78452e-07)
(0.515461 0.268588 1.13182e-08)
(0.5799 0.267675 -3.13705e-09)
(0.600699 0.286384 -1.6772e-08)
(0.55685 0.307111 -1.75337e-08)
(0.482046 0.333006 -1.82673e-08)
(0.406063 0.363358 -1.85696e-08)
(0.33756 0.397533 -1.89787e-08)
(0.262067 0.434238 -1.95008e-08)
(0.166048 0.471355 -1.99014e-08)
(0.0709837 0.499848 -2.01747e-08)
(3 1.71491e-07 -7.05602e-13)
(2.99998 9.40591e-07 -3.49083e-12)
(2.99996 3.48041e-06 -9.31235e-12)
(2.9999 8.88717e-06 -1.9793e-11)
(2.99978 2.44658e-05 -4.7544e-11)
(2.99943 5.53852e-05 -9.35387e-11)
(2.99874 0.00014802 -2.46738e-10)
(2.9966 0.000308536 -4.60298e-10)
(2.99288 0.000942255 -1.48399e-09)
(2.97882 0.00170397 -2.44151e-09)
(2.95442 0.00644428 -9.3597e-09)
(2.86102 0.0127437 -1.60832e-08)
(2.61401 0.0484113 -6.16558e-08)
(1.99728 0.116802 -1.32528e-07)
(0.937863 0.33303 -2.04708e-07)
(0.51292 0.313984 1.38233e-08)
(0.588549 0.309276 -1.03887e-09)
(0.616722 0.328428 -1.66331e-08)
(0.575071 0.35116 -1.76706e-08)
(0.50506 0.381726 -1.89085e-08)
(0.433396 0.418999 -1.9347e-08)
(0.368089 0.462245 -2.00076e-08)
(0.294512 0.511002 -2.07412e-08)
(0.196234 0.564571 -2.12174e-08)
(0.0884774 0.614137 -2.13316e-08)
(3 1.93093e-07 -6.95603e-13)
(2.99999 1.07132e-06 -3.4423e-12)
(2.99997 3.94878e-06 -9.12982e-12)
(2.99991 1.01101e-05 -1.94322e-11)
(2.9998 2.77317e-05 -4.61057e-11)
(2.99948 6.30462e-05 -9.1009e-11)
(2.99884 0.000166733 -2.33961e-10)
(2.99695 0.000353737 -4.4241e-10)
(2.99339 0.00104224 -1.45855e-09)
(2.98129 0.00191592 -1.62121e-09)
(2.95927 0.00712199 -1.08509e-08)
(2.87827 0.0136719 -1.37691e-08)
(2.66698 0.0520577 -6.37697e-08)
(2.12431 0.12512 -1.33421e-07)
(1.03398 0.371242 -2.31569e-07)
(0.528609 0.360808 1.38654e-08)
(0.608657 0.355025 9.25702e-11)
(0.642043 0.370593 -1.62478e-08)
(0.602169 0.39364 -1.81324e-08)
(0.537453 0.428641 -2.01081e-08)
(0.470731 0.473576 -2.05096e-08)
(0.409957 0.526533 -2.12784e-08)
(0.341684 0.589687 -2.18689e-08)
(0.247035 0.668868 -2.26921e-08)
(0.122252 0.761994 -2.24437e-08)
(3 3.6722e-07 -6.66809e-13)
(2.99999 8.23e-07 -3.30149e-12)
(2.99997 5.59186e-06 -8.70877e-12)
(2.99992 8.96586e-06 -1.84451e-11)
(2.99982 3.90037e-05 -4.40204e-11)
(2.99954 5.8116e-05 -8.68498e-11)
(2.99898 0.000237337 -2.2731e-10)
(2.99733 0.000327449 -4.45776e-10)
(2.99418 0.00149021 -1.36782e-09)
(2.98382 0.00150675 -2.14205e-09)
(2.96444 0.0101147 -9.5495e-09)
(2.89581 0.00827097 -1.44258e-08)
(2.71957 0.0641729 -5.98844e-08)
(2.25796 0.111916 -1.32653e-07)
(1.15532 0.373648 -2.62364e-07)
(0.578232 0.405238 -2.06912e-09)
(0.645389 0.409263 -9.15528e-09)
(0.678081 0.413714 -1.40149e-08)
(0.641226 0.437218 -2.01282e-08)
(0.582381 0.473947 -2.14487e-08)
(0.520517 0.525718 -2.26008e-08)
(0.465753 0.587617 -2.3277e-08)
(0.410664 0.669819 -2.43073e-08)
(0.335487 0.791819 -2.52334e-08)
(0.188129 0.998604 -2.39143e-08)
(2.99999 1.27743e-08 -8.85516e-14)
(2.99998 6.96602e-08 -3.96025e-13)
(2.99995 2.585e-07 -1.30996e-12)
(2.99986 6.62563e-07 -2.8232e-12)
(2.99969 1.8245e-06 -8.11917e-12)
(2.9992 4.1591e-06 -1.64757e-11)
(2.99823 1.09723e-05 -4.82522e-11)
(2.99526 2.38572e-05 -9.18133e-11)
(2.9899 6.67658e-05 -3.07015e-10)
(2.9707 0.00013688 -5.06098e-10)
(2.93419 0.000420726 -1.93555e-09)
(2.80434 0.000986615 -4.02892e-09)
(2.43659 0.00296764 -1.06777e-08)
(1.58426 0.00786695 -2.7241e-08)
(0.671772 0.0199967 -2.83874e-08)
(0.536583 0.0208854 5.79069e-10)
(0.567567 0.0220607 -5.12134e-10)
(0.565406 0.0241464 -2.93701e-09)
(0.51523 0.0263767 -3.3707e-09)
(0.430365 0.0287543 -3.79541e-09)
(0.346787 0.0314981 -3.55561e-09)
(0.2764 0.034744 -3.3814e-09)
(0.205541 0.0382662 -3.31174e-09)
(0.124163 0.0424669 -3.20187e-09)
(0.0553685 0.0487021 -3.07984e-09)
(2.99999 3.89233e-08 -8.91925e-14)
(2.99998 2.12373e-07 -3.98612e-13)
(2.99995 7.88274e-07 -1.31787e-12)
(2.99986 2.01803e-06 -2.84211e-12)
(2.99969 5.55775e-06 -8.13995e-12)
(2.9992 1.26522e-05 -1.64995e-11)
(2.99824 3.33856e-05 -4.81456e-11)
(2.99531 7.22403e-05 -9.10033e-11)
(2.99 0.000203497 -3.06941e-10)
(2.97099 0.000412234 -4.95901e-10)
(2.93492 0.00128979 -1.94461e-09)
(2.80629 0.00299362 -3.96008e-09)
(2.44289 0.00915767 -1.07083e-08)
(1.59824 0.0241785 -2.70411e-08)
(0.680681 0.0605761 -2.85837e-08)
(0.53619 0.0606725 6.15941e-10)
(0.567983 0.0617605 -5.3126e-10)
(0.566384 0.0657781 -2.97883e-09)
(0.516057 0.0700343 -3.38198e-09)
(0.431127 0.074629 -3.771e-09)
(0.347339 0.079698 -3.54529e-09)
(0.276121 0.0852537 -3.40538e-09)
(0.203853 0.0905461 -3.3592e-09)
(0.120759 0.0958086 -3.26699e-09)
(0.0513909 0.101418 -3.17313e-09)
(2.99999 6.78629e-08 -9.02295e-14)
(2.99998 3.69787e-07 -4.01206e-13)
(2.99995 1.37429e-06 -1.33679e-12)
(2.99987 3.52105e-06 -2.88774e-12)
(2.9997 9.70126e-06 -8.28054e-12)
(2.99922 2.21379e-05 -1.68361e-11)
(2.99828 5.80791e-05 -4.85407e-11)
(2.99541 0.000127812 -9.20897e-11)
(2.99019 0.000346992 -3.05704e-10)
(2.97159 0.000734855 -4.84599e-10)
(2.93641 0.00213955 -1.9432e-09)
(2.81037 0.00510462 -3.84585e-09)
(2.45625 0.0153979 -1.06792e-08)
(1.62878 0.0401305 -2.67638e-08)
(0.701398 0.103053 -2.9232e-08)
(0.536944 0.102278 6.36148e-10)
(0.570453 0.103794 -6.1109e-10)
(0.570158 0.11094 -3.0663e-09)
(0.519744 0.118621 -3.42723e-09)
(0.435032 0.127293 -3.76934e-09)
(0.35136 0.136693 -3.58478e-09)
(0.279659 0.146661 -3.52518e-09)
(0.206346 0.156206 -3.49431e-09)
(0.12183 0.165109 -3.44646e-09)
(0.0506278 0.172479 -3.38746e-09)
(2.99999 9.8794e-08 -9.61726e-14)
(2.99998 5.37745e-07 -4.27368e-13)
(2.99995 1.99965e-06 -1.42034e-12)
(2.99987 5.12849e-06 -3.07543e-12)
(2.99971 1.41279e-05 -8.80014e-12)
(2.99924 3.23176e-05 -1.80589e-11)
(2.99833 8.42987e-05 -5.11151e-11)
(2.99555 0.000188577 -1.05059e-10)
(2.9905 0.000493404 -2.96844e-10)
(2.97245 0.00109314 -6.11878e-10)
(2.93868 0.00294888 -1.68891e-09)
(2.81646 0.00723082 -4.14086e-09)
(2.47532 0.0214279 -1.02047e-08)
(1.67181 0.0549906 -2.51577e-08)
(0.729496 0.145273 -3.00426e-08)
(0.534717 0.143219 5.68286e-10)
(0.572244 0.145187 -8.80848e-10)
(0.575006 0.15564 -3.27955e-09)
(0.52539 0.166898 -3.55488e-09)
(0.44187 0.179843 -3.82889e-09)
(0.359014 0.193923 -3.6788e-09)
(0.287276 0.208877 -3.68184e-09)
(0.213026 0.223495 -3.67402e-09)
(0.126551 0.236861 -3.68245e-09)
(0.0520767 0.246475 -3.65924e-09)
(2.99999 1.30359e-07 -9.82713e-14)
(2.99998 7.08768e-07 -4.37762e-13)
(2.99995 2.63726e-06 -1.44919e-12)
(2.99988 6.76959e-06 -3.1367e-12)
(2.99972 1.86485e-05 -8.93508e-12)
(2.99928 4.27446e-05 -1.83113e-11)
(2.99841 0.000111025 -5.16086e-11)
(2.99575 0.000251209 -1.05465e-10)
(2.99094 0.000640589 -2.98512e-10)
(2.9736 0.00145871 -6.07497e-10)
(2.94168 0.00377737 -1.69088e-09)
(2.82454 0.00926038 -4.05095e-09)
(2.50017 0.0275333 -1.02365e-08)
(1.7283 0.070171 -2.50766e-08)
(0.766217 0.189366 -3.16348e-08)
(0.530497 0.184555 8.4374e-10)
(0.574232 0.186323 -9.56948e-10)
(0.581496 0.199794 -3.43995e-09)
(0.533209 0.214418 -3.66414e-09)
(0.451628 0.231609 -3.89639e-09)
(0.370185 0.250477 -3.8293e-09)
(0.298886 0.270713 -3.87691e-09)
(0.22386 0.290982 -3.8841e-09)
(0.13469 0.309699 -3.91839e-09)
(0.0554376 0.322425 -3.92075e-09)
(2.99999 1.61263e-07 -1.06724e-13)
(2.99998 8.7393e-07 -4.69574e-13)
(2.99996 3.26092e-06 -1.57735e-12)
(2.99988 8.38658e-06 -3.43424e-12)
(2.99974 2.31598e-05 -9.87236e-12)
(2.99932 5.33467e-05 -2.06517e-11)