/*--------------------------------*- C++ -*----------------------------------*\
| =========                 |                                                 |
| \\      /  F ield         | OpenFOAM: The Open Source CFD Toolbox           |
|  \\    /   O peration     | Version:  4.1                                   |
|   \\  /    A nd           | Web:      www.OpenFOAM.org                      |
|    \\/     M anipulation  |                                                 |
\*---------------------------------------------------------------------------*/
FoamFile
{
    version     2.0;
    format      ascii;
    class       volScalarField;
    location    "1.82";
    object      p;
}
// * * * * * * * * * * * * * * * * * * * * * * * * * * * * * * * * * * * * * //

dimensions      [1 -1 -2 0 0 0 0];

internalField   nonuniform List<scalar> 
52500
(
1
1.00002
1.00008
1.00017
1.0005
1.00102
1.00289
1.00585
1.01698
1.03328
1.10539
1.19961
1.70244
2.65795
6.06975
12.2882
11.4413
10.9944
11.0864
11.3515
11.6311
11.7986
11.9222
12.0195
12.0968
1
1.00002
1.00008
1.00017
1.00049
1.00101
1.00287
1.00579
1.0168
1.03295
1.10397
1.19764
1.69133
2.6318
5.97929
12.2511
11.4345
10.986
11.0775
11.3413
11.6209
11.7888
11.9142
12.0136
12.0926
1
1.00002
1.00008
1.00017
1.00048
1.00099
1.00281
1.00568
1.01645
1.03235
1.10138
1.19427
1.6713
2.58421
5.82332
12.1421
11.4083
10.9612
11.0482
11.3046
11.5805
11.746
11.8704
11.9688
12.0477
1
1.00002
1.00007
1.00016
1.00047
1.00096
1.00272
1.0055
1.01593
1.03135
1.09795
1.18801
1.64638
2.52188
5.63721
11.9331
11.3471
10.9185
10.9982
11.2395
11.5069
11.6672
11.7881
11.8834
11.963
1
1.00002
1.00007
1.00015
1.00045
1.00092
1.0026
1.00527
1.01524
1.02999
1.09367
1.17907
1.61623
2.44655
5.41038
11.6427
11.2398
10.86
10.9311
11.1494
11.4035
11.557
11.6725
11.7632
11.8435
1
1.00002
1.00007
1.00014
1.00042
1.00086
1.00246
1.00497
1.01439
1.02834
1.08844
1.16868
1.58026
2.35878
5.14629
11.2642
11.0885
10.7947
10.8489
11.0282
11.265
11.409
11.5141
11.5962
11.677
1
1.00002
1.00006
1.00013
1.00039
1.0008
1.00226
1.00457
1.01329
1.02583
1.08283
1.15214
1.54296
2.2473
4.85384
10.771
10.8946
10.7439
10.758
10.8734
11.0881
11.2173
11.3027
11.3657
11.4384
1
1.00001
1.00005
1.00012
1.00034
1.00071
1.00202
1.00402
1.01213
1.02205
1.07769
1.13303
1.50428
2.11902
4.53322
10.1219
10.7661
10.6535
10.6288
10.7028
10.8716
10.9777
11.0298
11.0531
11.0944
1
1.00001
1.00005
1.0001
1.0003
1.00062
1.00179
1.00351
1.01088
1.01913
1.07051
1.11581
1.46146
1.97304
4.18791
9.31166
10.6629
10.5597
10.4652
10.5098
10.6219
10.6812
10.6742
10.6195
10.5543
1
1.00001
1.00004
1.00009
1.00026
1.00053
1.00155
1.00299
1.00952
1.01638
1.06146
1.10039
1.40287
1.83462
3.78038
8.33948
10.5916
10.4772
10.2852
10.2965
10.3396
10.3275
10.2396
10.0128
9.63615
1.00001
1.00002
1.00008
1.00018
1.0005
1.00103
1.0029
1.00586
1.01699
1.03329
1.10541
1.19966
1.70255
2.65829
6.07081
12.2883
11.4413
10.9944
11.0865
11.3515
11.6312
11.7987
11.9223
12.0195
12.0969
1.00001
1.00002
1.00008
1.00017
1.0005
1.00102
1.00287
1.0058
1.01681
1.03296
1.10399
1.19769
1.69143
2.63211
5.98027
12.2513
11.4345
10.9861
11.0775
11.3413
11.6209
11.7889
11.9143
12.0136
12.0927
1.00001
1.00002
1.00008
1.00017
1.00049
1.001
1.00282
1.00569
1.01646
1.03236
1.1014
1.19431
1.67136
2.58445
5.82389
12.1425
11.4084
10.9612
11.0483
11.3047
11.5806
11.7461
11.8705
11.9688
12.0477
1.00001
1.00002
1.00008
1.00017
1.00047
1.00096
1.00273
1.00551
1.01594
1.03137
1.09796
1.18805
1.64643
2.52207
5.63766
11.9336
11.3473
10.9185
10.9983
11.2396
11.507
11.6673
11.7882
11.8835
11.963
1
1.00002
1.00007
1.00016
1.00045
1.00092
1.00261
1.00527
1.01525
1.03
1.09368
1.17911
1.61627
2.44672
5.41076
11.6432
11.24
10.8601
10.9311
11.1495
11.4035
11.5571
11.6726
11.7632
11.8436
1
1.00002
1.00007
1.00015
1.00043
1.00087
1.00246
1.00498
1.0144
1.02835
1.08846
1.16872
1.5803
2.35893
5.14662
11.2647
11.0887
10.7948
10.849
11.0283
11.2651
11.409
11.5142
11.5962
11.6771
1
1.00002
1.00006
1.00014
1.00039
1.0008
1.00227
1.00458
1.0133
1.02585
1.08283
1.1522
1.54297
2.24745
4.85412
10.7716
10.8947
10.744
10.7581
10.8735
11.0882
11.2174
11.3028
11.3657
11.4385
1
1.00002
1.00006
1.00012
1.00035
1.00072
1.00203
1.00403
1.01214
1.02207
1.07769
1.13309
1.50428
2.11918
4.53343
10.1225
10.7662
10.6536
10.6289
10.7029
10.8717
10.9777
11.0299
11.0531
11.0944
1
1.00002
1.00005
1.00011
1.00031
1.00063
1.0018
1.00352
1.01089
1.01914
1.07053
1.11584
1.4615
1.97318
4.18814
9.31231
10.663
10.5598
10.4653
10.5099
10.622
10.6812
10.6742
10.6196
10.5544
1
1.00001
1.00004
1.00009
1.00027
1.00054
1.00156
1.003
1.00953
1.01639
1.06148
1.10042
1.40291
1.83474
3.78064
8.34019
10.5916
10.4772
10.2852
10.2966
10.3397
10.3275
10.2397
10.0128
9.63618
1.00001
1.00002
1.00008
1.00018
1.0005
1.00103
1.0029
1.00586
1.01699
1.03329
1.10541
1.19966
1.70255
2.65829
6.07083
12.2883
11.4413
10.9944
11.0865
11.3516
11.6312
11.7987
11.9223
12.0196
12.0969
1.00001
1.00002
1.00008
1.00017
1.0005
1.00102
1.00287
1.0058
1.01681
1.03296
1.10399
1.19769
1.69143
2.63212
5.98029
12.2513
11.4345
10.9861
11.0775
11.3414
11.621
11.7889
11.9143
12.0136
12.0927
1.00001
1.00002
1.00008
1.00017
1.00049
1.001
1.00282
1.00569
1.01646
1.03236
1.1014
1.19431
1.67136
2.58445
5.8239
12.1425
11.4084
10.9613
11.0483
11.3047
11.5806
11.7461
11.8705
11.9688
12.0477
1.00001
1.00002
1.00008
1.00017
1.00047
1.00096
1.00273
1.00551
1.01594
1.03137
1.09796
1.18805
1.64643
2.52207
5.63767
11.9336
11.3473
10.9185
10.9983
11.2396
11.507
11.6673
11.7882
11.8835
11.963
1
1.00002
1.00007
1.00016
1.00045
1.00092
1.00261
1.00527
1.01525
1.03
1.09368
1.17911
1.61627
2.44672
5.41076
11.6432
11.24
10.8601
10.9311
11.1495
11.4035
11.5571
11.6726
11.7632
11.8436
1
1.00002
1.00007
1.00015
1.00043
1.00087
1.00246
1.00498
1.0144
1.02835
1.08846
1.16872
1.5803
2.35893
5.14663
11.2647
11.0887
10.7948
10.849
11.0283
11.2651
11.409
11.5142
11.5962
11.6771
1
1.00002
1.00006
1.00014
1.00039
1.0008
1.00227
1.00458
1.0133
1.02585
1.08283
1.1522
1.54297
2.24745
4.85413
10.7716
10.8947
10.744
10.7581
10.8735
11.0882
11.2174
11.3028
11.3657
11.4385
1
1.00002
1.00006
1.00012
1.00035
1.00072
1.00203
1.00403
1.01214
1.02207
1.07769
1.13309
1.50428
2.11918
4.53343
10.1225
10.7662
10.6536
10.6289
10.7029
10.8717
10.9777
11.0299
11.0531
11.0944
1
1.00002
1.00005
1.00011
1.00031
1.00063
1.0018
1.00352
1.01089
1.01914
1.07053
1.11584
1.4615
1.97318
4.18815
9.31232
10.663
10.5598
10.4653
10.5099
10.622
10.6812
10.6742
10.6196
10.5544
1
1.00001
1.00004
1.00009
1.00027
1.00054
1.00156
1.003
1.00953
1.01639
1.06148
1.10042
1.40292
1.83474
3.78065
8.3402
10.5916
10.4772
10.2852
10.2966
10.3397
10.3275
10.2397
10.0128
9.63618
1.00001
1.00002
1.00008
1.00018
1.0005
1.00103
1.0029
1.00586
1.01699
1.03329
1.10541
1.19966
1.70255
2.65829
6.07084
12.2883
11.4413
10.9944
11.0865
11.3516
11.6312
11.7987
11.9223
12.0195
12.0969
1.00001
1.00002
1.00008
1.00017
1.0005
1.00102
1.00287
1.0058
1.01681
1.03296
1.10399
1.19769
1.69143
2.63212
5.9803
12.2513
11.4345
10.9861
11.0775
11.3414
11.621
11.7889
11.9143
12.0136
12.0927
1.00001
1.00002
1.00008
1.00017
1.00049
1.001
1.00282
1.00569
1.01646
1.03236
1.1014
1.19431
1.67136
2.58445
5.82391
12.1425
11.4084
10.9613
11.0483
11.3047
11.5806
11.7461
11.8705
11.9688
12.0477
1.00001
1.00002
1.00008
1.00017
1.00047
1.00096
1.00273
1.00551
1.01594
1.03137
1.09796
1.18805
1.64643
2.52207
5.63767
11.9336
11.3473
10.9185
10.9983
11.2396
11.507
11.6673
11.7882
11.8835
11.963
1
1.00002
1.00007
1.00016
1.00045
1.00092
1.00261
1.00527
1.01525
1.03
1.09368
1.17911
1.61627
2.44672
5.41077
11.6432
11.24
10.8601
10.9311
11.1495
11.4035
11.5571
11.6726
11.7632
11.8436
1
1.00002
1.00007
1.00015
1.00043
1.00087
1.00246
1.00498
1.0144
1.02835
1.08846
1.16872
1.5803
2.35893
5.14663
11.2647
11.0887
10.7948
10.849
11.0283
11.2651
11.409
11.5142
11.5962
11.6771
1
1.00002
1.00006
1.00014
1.00039
1.0008
1.00227
1.00458
1.0133
1.02585
1.08283
1.1522
1.54297
2.24745
4.85413
10.7716
10.8947
10.744
10.7581
10.8735
11.0882
11.2174
11.3028
11.3657
11.4385
1
1.00002
1.00006
1.00012
1.00035
1.00072
1.00203
1.00403
1.01214
1.02207
1.07769
1.13309
1.50428
2.11918
4.53344
10.1225
10.7662
10.6536
10.6289
10.7029
10.8717
10.9777
11.0299
11.0531
11.0944
1
1.00002
1.00005
1.00011
1.00031
1.00063
1.0018
1.00352
1.01089
1.01914
1.07053
1.11584
1.4615
1.97319
4.18815
9.31233
10.663
10.5598
10.4653
10.5099
10.622
10.6812
10.6742
10.6196
10.5544
1
1.00001
1.00004
1.00009
1.00027
1.00054
1.00156
1.003
1.00953
1.01639
1.06148
1.10042
1.40292
1.83474
3.78065
8.34021
10.5916
10.4772
10.2852
10.2966
10.3397
10.3275
10.2397
10.0128
9.63618
1.00001
1.00002
1.00008
1.00018
1.0005
1.00103
1.0029
1.00586
1.01699
1.03329
1.10541
1.19966
1.70255
2.65829
6.07084
12.2883
11.4413
10.9944
11.0865
11.3516
11.6312
11.7987
11.9223
12.0196
12.0969
1.00001
1.00002
1.00008
1.00017
1.0005
1.00102
1.00287
1.0058
1.01681
1.03296
1.10399
1.19769
1.69143
2.63212
5.9803
12.2513
11.4345
10.9861
11.0775
11.3414
11.621
11.7889
11.9143
12.0136
12.0927
1.00001
1.00002
1.00008
1.00017
1.00049
1.001
1.00282
1.00569
1.01646
1.03236
1.1014
1.19431
1.67136
2.58445
5.82391
12.1425
11.4084
10.9613
11.0483
11.3047
11.5806
11.7461
11.8705
11.9688
12.0477
1.00001
1.00002
1.00008
1.00017
1.00047
1.00096
1.00273
1.00551
1.01594
1.03137
1.09796
1.18805
1.64643
2.52207
5.63767
11.9336
11.3473
10.9185
10.9983
11.2396
11.507
11.6673
11.7882
11.8835
11.963
1
1.00002
1.00007
1.00016
1.00045
1.00092
1.00261
1.00527
1.01525
1.03
1.09368
1.17911
1.61627
2.44672
5.41077
11.6432
11.24
10.8601
10.9311
11.1495
11.4035
11.5571
11.6726
11.7632
11.8436
1
1.00002
1.00007
1.00015
1.00043
1.00087
1.00246
1.00498
1.0144
1.02835
1.08846
1.16872
1.5803
2.35893
5.14664
11.2647
11.0887
10.7948
10.849
11.0283
11.2651
11.409
11.5142
11.5962
11.6771
1
1.00002
1.00006
1.00014
1.00039
1.0008
1.00227
1.00458
1.0133
1.02585
1.08283
1.1522
1.54297
2.24745
4.85413
10.7716
10.8947
10.744
10.7581
10.8735
11.0882
11.2174
11.3028
11.3657
11.4385
1
1.00002
1.00006
1.00012
1.00035
1.00072
1.00203
1.00403
1.01214
1.02207
1.07769
1.13309
1.50428
2.11918
4.53344
10.1225
10.7662
10.6536
10.6289
10.7029
10.8717
10.9777
11.0299
11.0531
11.0944
1
1.00002
1.00005
1.00011
1.00031
1.00063
1.0018
1.00352
1.01089
1.01914
1.07053
1.11584
1.4615
1.97319
4.18815
9.31233
10.663
10.5598
10.4653
10.5099
10.622
10.6812
10.6742
10.6196
10.5544
1
1.00001
1.00004
1.00009
1.00027
1.00054
1.00156
1.003
1.00953
1.01639
1.06148
1.10042
1.40292
1.83474
3.78065
8.34021
10.5916
10.4772
10.2852
10.2966
10.3397
10.3275
10.2397
10.0128
9.63618
1.00001
1.00002
1.00008
1.00018
1.0005
1.00103
1.0029
1.00586
1.01699
1.03329
1.10541
1.19966
1.70255
2.65829
6.07084
12.2883
11.4413
10.9944
11.0865
11.3516
11.6312
11.7987
11.9223
12.0196
12.0969
1.00001
1.00002
1.00008
1.00017
1.0005
1.00102
1.00287
1.0058
1.01681
1.03296
1.10399
1.19769
1.69143
2.63212
5.9803
12.2513
11.4345
10.9861
11.0775
11.3414
11.621
11.7889
11.9143
12.0136
12.0927
1.00001
1.00002
1.00008
1.00017
1.00049
1.001
1.00282
1.00569
1.01646
1.03236
1.1014
1.19431
1.67136
2.58445
5.82391
12.1425
11.4084
10.9613
11.0483
11.3047
11.5806
11.7461
11.8705
11.9688
12.0477
1.00001
1.00002
1.00008
1.00017
1.00047
1.00096
1.00273
1.00551
1.01594
1.03137
1.09796
1.18805
1.64643
2.52207
5.63767
11.9336
11.3473
10.9185
10.9983
11.2396
11.507
11.6673
11.7882
11.8835
11.963
1
1.00002
1.00007
1.00016
1.00045
1.00092
1.00261
1.00527
1.01525
1.03
1.09368
1.17911
1.61627
2.44672
5.41077
11.6432
11.24
10.8601
10.9311
11.1495
11.4035
11.5571
11.6726
11.7632
11.8436
1
1.00002
1.00007
1.00015
1.00043
1.00087
1.00246
1.00498
1.0144
1.02835
1.08846
1.16872
1.5803
2.35893
5.14663
11.2647
11.0887
10.7948
10.849
11.0283
11.2651
11.409
11.5142
11.5962
11.6771
1
1.00002
1.00006
1.00014
1.00039
1.0008
1.00227
1.00458
1.0133
1.02585
1.08283
1.1522
1.54297
2.24745
4.85413
10.7716
10.8947
10.744
10.7581
10.8735
11.0882
11.2174
11.3028
11.3657
11.4385
1
1.00002
1.00006
1.00012
1.00035
1.00072
1.00203
1.00403
1.01214
1.02207
1.07769
1.13309
1.50428
2.11918
4.53344
10.1225
10.7662
10.6536
10.6289
10.7029
10.8717
10.9777
11.0299
11.0531
11.0944
1
1.00002
1.00005
1.00011
1.00031
1.00063
1.0018
1.00352
1.01089
1.01914
1.07053
1.11584
1.4615
1.97318
4.18815
9.31233
10.663
10.5598
10.4653
10.5099
10.622
10.6812
10.6742
10.6196
10.5544
1
1.00001
1.00004
1.00009
1.00027
1.00054
1.00156
1.003
1.00953
1.01639
1.06148
1.10042
1.40292
1.83474
3.78065
8.34021
10.5916
10.4772
10.2852
10.2966
10.3397
10.3275
10.2397
10.0128
9.63618
1.00001
1.00002
1.00008
1.00018
1.0005
1.00103
1.0029
1.00586
1.01699
1.03329
1.10541
1.19966
1.70255
2.65829
6.07084
12.2883
11.4413
10.9944
11.0865
11.3516
11.6312
11.7987
11.9223
12.0195
12.0969
1.00001
1.00002
1.00008
1.00017
1.0005
1.00102
1.00287
1.0058
1.01681
1.03296
1.10399
1.19769
1.69143
2.63212
5.9803
12.2513
11.4345
10.9861
11.0775
11.3414
11.621
11.7889
11.9143
12.0136
12.0927
1.00001
1.00002
1.00008
1.00017
1.00049
1.001
1.00282
1.00569
1.01646
1.03236
1.1014
1.19431
1.67136
2.58445
5.82391
12.1425
11.4084
10.9613
11.0483
11.3047
11.5806
11.7461
11.8705
11.9688
12.0477
1.00001
1.00002
1.00008
1.00017
1.00047
1.00096
1.00273
1.00551
1.01594
1.03137
1.09796
1.18805
1.64643
2.52207
5.63767
11.9336
11.3473
10.9185
10.9983
11.2396
11.507
11.6673
11.7882
11.8835
11.963
1
1.00002
1.00007
1.00016
1.00045
1.00092
1.00261
1.00527
1.01525
1.03
1.09368
1.17911
1.61627
2.44672
5.41077
11.6432
11.24
10.8601
10.9311
11.1495
11.4035
11.5571
11.6726
11.7632
11.8436
1
1.00002
1.00007
1.00015
1.00043
1.00087
1.00246
1.00498
1.0144
1.02835
1.08846
1.16872
1.5803
2.35893
5.14663
11.2647
11.0887
10.7948
10.849
11.0283
11.2651
11.409
11.5142
11.5962
11.6771
1
1.00002
1.00006
1.00014
1.00039
1.0008
1.00227
1.00458
1.0133
1.02585
1.08283
1.1522
1.54297
2.24745
4.85413
10.7716
10.8947
10.744
10.7581
10.8735
11.0882
11.2174
11.3028
11.3657
11.4385
1
1.00002
1.00006
1.00012
1.00035
1.00072
1.00203
1.00403
1.01214
1.02207
1.07769
1.13309
1.50428
2.11918
4.53344
10.1225
10.7662
10.6536
10.6289
10.7029
10.8717
10.9777
11.0299
11.0531
11.0944
1
1.00002
1.00005
1.00011
1.00031
1.00063
1.0018
1.00352
1.01089
1.01914
1.07053
1.11584
1.4615
1.97319
4.18815
9.31233
10.663
10.5598
10.4653
10.5099
10.622
10.6812
10.6742
10.6196
10.5544
1
1.00001
1.00004
1.00009
1.00027
1.00054
1.00156
1.003
1.00953
1.01639
1.06148
1.10042
1.40292
1.83474
3.78065
8.34021
10.5916
10.4772
10.2852
10.2966
10.3397
10.3275
10.2397
10.0128
9.63618
1.00001
1.00002
1.00008
1.00018
1.0005
1.00103
1.0029
1.00586
1.01699
1.03329
1.10541
1.19966
1.70255
2.65829
6.07083
12.2883
11.4413
10.9944
11.0865
11.3516
11.6312
11.7987
11.9223
12.0196
12.0969
1.00001
1.00002
1.00008
1.00017
1.0005
1.00102
1.00287
1.0058
1.01681
1.03296
1.10399
1.19769
1.69143
2.63212
5.98029
12.2513
11.4345
10.9861
11.0775
11.3414
11.621
11.7889
11.9143
12.0136
12.0927
1.00001
1.00002
1.00008
1.00017
1.00049
1.001
1.00282
1.00569
1.01646
1.03236
1.1014
1.19431
1.67136
2.58445
5.8239
12.1425
11.4084
10.9613
11.0483
11.3047
11.5806
11.7461
11.8705
11.9688
12.0477
1.00001
1.00002
1.00008
1.00017
1.00047
1.00096
1.00273
1.00551
1.01594
1.03137
1.09796
1.18805
1.64643
2.52207
5.63767
11.9336
11.3473
10.9185
10.9983
11.2396
11.507
11.6673
11.7882
11.8835
11.963
1
1.00002
1.00007
1.00016
1.00045
1.00092
1.00261
1.00527
1.01525
1.03
1.09368
1.17911
1.61627
2.44672
5.41076
11.6432
11.24
10.8601
10.9311
11.1495
11.4035
11.5571
11.6726
11.7632
11.8436
1
1.00002
1.00007
1.00015
1.00043
1.00087
1.00246
1.00498
1.0144
1.02835
1.08846
1.16872
1.5803
2.35893
5.14663
11.2647
11.0887
10.7948
10.849
11.0283
11.2651
11.409
11.5142
11.5962
11.6771
1
1.00002
1.00006
1.00014
1.00039
1.0008
1.00227
1.00458
1.0133
1.02585
1.08283
1.1522
1.54297
2.24745
4.85413
10.7716
10.8947
10.744
10.7581
10.8735
11.0882
11.2174
11.3028
11.3657
11.4385
1
1.00002
1.00006
1.00012
1.00035
1.00072
1.00203
1.00403
1.01214
1.02207
1.07769
1.13309
1.50428
2.11918
4.53343
10.1225
10.7662
10.6536
10.6289
10.7029
10.8717
10.9777
11.0299
11.0531
11.0944
1
1.00002
1.00005
1.00011
1.00031
1.00063
1.0018
1.00352
1.01089
1.01914
1.07053
1.11584
1.4615
1.97318
4.18815
9.31232
10.663
10.5598
10.4653
10.5099
10.622
10.6812
10.6742
10.6196
10.5544
1
1.00001
1.00004
1.00009
1.00027
1.00054
1.00156
1.003
1.00953
1.01639
1.06148
1.10042
1.40292
1.83474
3.78065
8.3402
10.5916
10.4772
10.2852
10.2966
10.3397
10.3275
10.2397
10.0128
9.63618
1.00001
1.00002
1.00008
1.00018
1.0005
1.00103
1.0029
1.00586
1.01699
1.03329
1.10541
1.19966
1.70255
2.65829
6.07081
12.2883
11.4413
10.9944
11.0865
11.3515
11.6312
11.7987
11.9223
12.0195
12.0969
1.00001
1.00002
1.00008
1.00017
1.0005
1.00102
1.00287
1.0058
1.01681
1.03296
1.10399
1.19769
1.69143
2.63211
5.98027
12.2513
11.4345
10.9861
11.0775
11.3413
11.6209
11.7889
11.9143
12.0136
12.0927
1.00001
1.00002
1.00008
1.00017
1.00049
1.001
1.00282
1.00569
1.01646
1.03236
1.1014
1.19431
1.67136
2.58445
5.82389
12.1425
11.4084
10.9612
11.0483
11.3047
11.5806
11.7461
11.8705
11.9688
12.0477
1.00001
1.00002
1.00008
1.00017
1.00047
1.00096
1.00273
1.00551
1.01594
1.03137
1.09796
1.18805
1.64643
2.52207
5.63766
11.9336
11.3473
10.9185
10.9983
11.2396
11.507
11.6673
11.7882
11.8835
11.963
1
1.00002
1.00007
1.00016
1.00045
1.00092
1.00261
1.00527
1.01525
1.03
1.09368
1.17911
1.61627
2.44672
5.41076
11.6432
11.24
10.8601
10.9311
11.1495
11.4035
11.5571
11.6726
11.7632
11.8436
1
1.00002
1.00007
1.00015
1.00043
1.00087
1.00246
1.00498
1.0144
1.02835
1.08846
1.16872
1.5803
2.35893
5.14662
11.2647
11.0887
10.7948
10.849
11.0283
11.2651
11.409
11.5142
11.5962
11.6771
1
1.00002
1.00006
1.00014
1.00039
1.0008
1.00227
1.00458
1.0133
1.02585
1.08283
1.1522
1.54297
2.24745
4.85412
10.7716
10.8947
10.744
10.7581
10.8735
11.0882
11.2174
11.3028
11.3657
11.4385
1
1.00002
1.00006
1.00012
1.00035
1.00072
1.00203
1.00403
1.01214
1.02207
1.07769
1.13309
1.50428
2.11918
4.53343
10.1225
10.7662
10.6536
10.6289
10.7029
10.8717
10.9777
11.0299
11.0531
11.0944
1
1.00002
1.00005
1.00011
1.00031
1.00063
1.0018
1.00352
1.01089
1.01914
1.07053
1.11584
1.4615
1.97318
4.18814
9.31231
10.663
10.5598
10.4653
10.5099
10.622
10.6812
10.6742
10.6196
10.5544
1
1.00001
1.00004
1.00009
1.00027
1.00054
1.00156
1.003
1.00953
1.01639
1.06148
1.10042
1.40291
1.83474
3.78064
8.34019
10.5916
10.4772
10.2852
10.2966
10.3397
10.3275
10.2397
10.0128
9.63618
1
1.00002
1.00008
1.00017
1.0005
1.00102
1.00289
1.00585
1.01698
1.03328
1.10539
1.19961
1.70244
2.65795
6.06974
12.2882
11.4413
10.9944
11.0864
11.3515
11.6311
11.7986
11.9222
12.0195
12.0968
1
1.00002
1.00008
1.00017
1.00049
1.00101
1.00287
1.00579
1.0168
1.03295
1.10397
1.19764
1.69133
2.6318
5.97927
12.2511
11.4345
10.986
11.0775
11.3413
11.6209
11.7888
11.9142
12.0136
12.0926
1
1.00002
1.00008
1.00017
1.00048
1.00099
1.00281
1.00568
1.01645
1.03235
1.10138
1.19427
1.67129
2.58421
5.82331
12.1421
11.4083
10.9612
11.0482
11.3046
11.5805
11.746
11.8704
11.9688
12.0477
1
1.00002
1.00007
1.00016
1.00047
1.00096
1.00272
1.0055
1.01593
1.03135
1.09795
1.18801
1.64638
2.52188
5.63721
11.9331
11.3471
10.9185
10.9982
11.2395
11.5069
11.6672
11.7881
11.8834
11.963
1
1.00002
1.00007
1.00015
1.00045
1.00092
1.0026
1.00527
1.01524
1.02999
1.09367
1.17907
1.61623
2.44655
5.41038
11.6427
11.2398
10.86
10.9311
11.1494
11.4035
11.557
11.6725
11.7632
11.8435
1
1.00002
1.00007
1.00014
1.00042
1.00086
1.00246
1.00497
1.01439
1.02834
1.08844
1.16868
1.58026
2.35878
5.14628
11.2642
11.0885
10.7947
10.8489
11.0282
11.265
11.409
11.5141
11.5962
11.677
1
1.00002
1.00006
1.00013
1.00039
1.0008
1.00226
1.00457
1.01329
1.02583
1.08283
1.15214
1.54296
2.2473
4.85384
10.771
10.8946
10.7439
10.758
10.8734
11.0881
11.2173
11.3027
11.3657
11.4384
1
1.00001
1.00005
1.00012
1.00034
1.00071
1.00202
1.00402
1.01213
1.02205
1.07769
1.13303
1.50428
2.11901
4.53321
10.1219
10.7661
10.6535
10.6288
10.7028
10.8716
10.9777
11.0298
11.0531
11.0944
1
1.00001
1.00005
1.0001
1.0003
1.00062
1.00179
1.00351
1.01088
1.01913
1.07051
1.11581
1.46146
1.97304
4.18791
9.31165
10.6629
10.5597
10.4652
10.5098
10.6219
10.6812
10.6742
10.6195
10.5543
1
1.00001
1.00004
1.00009
1.00026
1.00053
1.00155
1.00299
1.00952
1.01638
1.06146
1.10039
1.40287
1.83462
3.78037
8.33947
10.5916
10.4772
10.2852
10.2965
10.3396
10.3275
10.2396
10.0128
9.63615
1
1.00001
1.00003
1.0001
1.0002
1.00058
1.00118
1.00342
1.00665
1.02101
1.03696
1.13591
1.23964
1.91455
3.1294
7.26175
10.5453
10.4005
10.1078
10.0556
10.0326
9.9408
9.68027
9.06432
7.49958
1
1.00001
1.00003
1.00008
1.00018
1.00051
1.00105
1.00299
1.00604
1.01759
1.03435
1.10944
1.20765
1.72665
2.70537
6.0389
10.4432
10.2949
9.9578
9.81451
9.727
9.53464
9.11745
8.27546
6.63786
1
1.00001
1.00002
1.00007
1.00015
1.00043
1.00088
1.00251
1.00507
1.01461
1.02893
1.08844
1.17404
1.57161
2.33576
4.91256
10.1104
10.0827
9.83138
9.5804
9.42116
9.14737
8.63345
7.76329
6.4246
1
1.00001
1.00002
1.00006
1.00012
1.00035
1.00072
1.00203
1.00411
1.01189
1.02294
1.07372
1.13349
1.47438
2.06918
4.25114
9.24062
9.79378
9.64575
9.35007
9.12285
8.80079
8.27227
7.46869
6.3927
1
1
1.00001
1.00004
1.00009
1.00027
1.00055
1.00158
1.00309
1.0096
1.01673
1.06142
1.10067
1.39611
1.8203
3.64894
7.81668
9.52278
9.42984
9.17262
8.8646
8.50916
7.9991
7.27912
6.37895
0.999999
1
1.00001
1.00003
1.00009
1.00019
1.00054
1.0011
1.00316
1.00619
1.01919
1.03416
1.12306
1.21742
1.80702
2.86212
6.36037
9.36809
9.28968
9.03136
8.65192
8.26722
7.78442
7.14462
6.37078
0.999998
1
1.00001
1.00002
1.00007
1.00015
1.00043
1.00089
1.00252
1.0051
1.01469
1.02903
1.08879
1.17447
1.56861
2.32275
4.73501
9.05106
9.11788
8.9222
8.50193
8.07202
7.60766
7.03442
6.35663
0.999996
0.999998
1
1.00001
1.00005
1.00011
1.00033
1.00068
1.00193
1.00391
1.01124
1.02205
1.06861
1.12788
1.43661
1.983
3.89964
8.17336
8.87303
8.72952
8.37146
7.91428
7.46425
6.94415
6.34278
0.999995
0.999996
0.999999
1.00001
1.00003
1.0001
1.00021
1.0006
1.00122
1.00348
1.00679
1.02106
1.0372
1.13406
1.236
1.88217
3.00903
6.6059
8.56711
8.49987
8.25651
7.79662
7.35059
6.87113
6.33215
0.999994
0.999995
0.999997
1.00001
1.00002
1.00007
1.00016
1.00046
1.00095
1.00268
1.00541
1.01559
1.03071
1.09473
1.18386
1.60888
2.40398
4.93333
8.20345
8.31185
8.15133
7.7652
7.28229
6.81826
6.32612
0.999993
0.999994
0.999996
1
1.00002
1.00004
1.00013
1.00028
1.00079
1.0016
1.00454
1.00898
1.02706
1.04935
1.17
1.31714
2.08442
3.534
7.39056
8.14774
8.03464
7.72926
7.24699
6.78595
6.32547
0.999992
0.999993
0.999995
0.999998
1.00001
1.00003
1.00009
1.0002
1.00057
1.00117
1.00329
1.00655
1.01938
1.03571
1.12172
1.21747
1.78169
2.75274
5.82026
7.89883
7.86742
7.67702
7.25411
6.78049
6.32866
0.999992
0.999992
0.999993
0.999996
1
1.00002
1.00005
1.00016
1.00033
1.00093
1.00188
1.00535
1.0104
1.03215
1.05706
1.20022
1.3831
2.23389
3.93947
7.3896
7.75844
7.62222
7.275
6.78822
6.33806
0.999991
0.999992
0.999992
0.999994
0.999998
1.00001
1.00003
1.00011
1.00023
1.00065
1.00132
1.00372
1.00732
1.02209
1.03973
1.13855
1.24585
1.88423
2.97814
6.22382
7.54099
7.48896
7.26865
6.81553
6.35914
0.999991
0.999991
0.999992
0.999993
0.999997
1
1.00002
1.00006
1.00018
1.00037
1.00105
1.00211
1.00608
1.01153
1.03706
1.06409
1.23037
1.44665
2.42484
4.43209
7.08131
7.32213
7.20952
6.88801
6.40311
0.999991
0.999991
0.999991
0.999992
0.999995
0.999999
1.00001
1.00004
1.00012
1.00025
1.00071
1.00146
1.00408
1.00816
1.02383
1.04454
1.1473
1.27164
1.91642
3.05345
6.12268
7.12985
7.08035
6.88253
6.4664
0.999991
0.999991
0.999991
0.999992
0.999993
0.999997
1
1.00003
1.00006
1.00019
1.0004
1.00111
1.00226
1.00639
1.01241
1.03843
1.06798
1.23891
1.46008
2.45682
4.44943
6.71245
6.92971
6.83408
6.5657
0.999991
0.999991
0.999991
0.999991
0.999992
0.999995
0.999999
1.00001
1.00004
1.00012
1.00026
1.00073
1.0015
1.00417
1.00838
1.02401
1.04587
1.14549
1.27691
1.8918
2.98941
5.84113
6.74997
6.72022
6.5632
0.999991
0.999991
0.999991
0.999991
0.999991
0.999993
0.999997
1
1.00003
1.00006
1.00019
1.00039
1.0011
1.00223
1.00627
1.01233
1.03707
1.06781
1.22502
1.45044
2.34728
4.16015
6.32864
6.60353
6.52385
0.999991
0.99999
0.99999
0.999991
0.999991
0.999992
0.999994
1
1.00001
1.00004
1.0001
1.00029
1.0006
1.00167
1.00338
1.00949
1.01901
1.05438
1.11175
1.32137
1.72859
2.89705
5.38045
6.40049
6.4029
0.999991
0.99999
0.99999
0.99999
0.999991
0.999991
0.999992
0.999996
1
1.00002
1.00006
1.00018
1.00037
1.00102
1.00208
1.00576
1.01149
1.03326
1.0625
1.19882
1.39424
2.16771
3.6889
5.92142
6.29706
0.999991
0.99999
0.99999
0.99999
0.999991
0.999991
0.999992
0.999993
0.999999
1.00001
1.00004
1.00009
1.00026
1.00053
1.00148
1.003
1.00837
1.01666
1.04796
1.09604
1.28102
1.62412
2.64211
4.82722
6.053
0.999991
0.99999
0.99999
0.99999
0.99999
0.999991
0.999991
0.999992
0.999996
1
1.00002
1.00005
1.00015
1.00032
1.00088
1.0018
1.00492
1.00985
1.02789
1.0533
1.1631
1.32283
1.93145
3.09729
5.48163
0.999991
0.99999
0.99999
0.99999
0.99999
0.99999
0.999991
0.999991
0.999993
0.999997
1.00001
1.00003
1.00009
1.00019
1.00052
1.00107
1.00292
1.00581
1.0167
1.03068
1.10071
1.17609
1.59969
2.25796
4.1836
0.999991
0.99999
0.99999
0.99999
0.99999
0.99999
0.999991
0.999991
0.999992
0.999994
1
1.00001
1.00005
1.00011
1.00031
1.00063
1.00173
1.00351
1.00967
1.01951
1.05446
1.11303
1.31607
1.69916
2.76696
0.999991
0.99999
0.99999
0.99999
0.99999
0.99999
0.99999
0.999991
0.999991
0.999993
0.999995
1
1.00002
1.00007
1.00015
1.00041
1.00085
1.00232
1.00468
1.01303
1.02558
1.07546
1.14507
1.4405
1.95026
0.999991
0.99999
0.99999
0.99999
0.99999
0.99999
0.99999
0.99999
0.999991
0.999991
0.999994
0.999997
1.00001
1.00003
1.00009
1.0002
1.00055
1.00113
1.0031
1.00613
1.01777
1.03248
1.10549
1.18848
1.61053
0.999991
0.99999
0.99999
0.99999
0.99999
0.99999
0.99999
0.99999
0.999991
0.999991
0.999992
0.999995
0.999999
1.00002
1.00004
1.00013
1.00027
1.00074
1.00151
1.00411
1.00824
1.02307
1.04465
1.13217
1.26525
0.999991
0.99999
0.99999
0.99999
0.99999
0.99999
0.99999
0.99999
0.99999
0.999991
0.999991
0.999993
0.999995
1
1.00002
1.00007
1.00015
1.00041
1.00085
1.0023
1.00464
1.01275
1.02518
1.07298
1.14044
0.999991
0.99999
0.99999
0.99999
0.99999
0.99999
0.99999
0.99999
0.99999
0.99999
0.999991
0.999991
0.999993
0.999997
1.00001
1.00003
1.00009
1.00019
1.00052
1.00107
1.00292
1.00577
1.01661
1.03043
1.09784
0.999991
0.99999
0.99999
0.99999
0.99999
0.99999
0.99999
0.99999
0.99999
0.99999
0.99999
0.999991
0.999992
0.999994
0.999999
1.00001
1.00004
1.00012
1.00025
1.00068
1.00138
1.00374
1.00751
1.02091
1.04021
0.999991
0.99999
0.99999
0.99999
0.99999
0.99999
0.99999
0.99999
0.99999
0.99999
0.99999
0.999991
0.999991
0.999992
0.999996
1
1.00002
1.00005
1.00015
1.00031
1.00084
1.00171
1.00463
1.00919
1.02599
0.999991
0.99999
0.99999
0.99999
0.99999
0.99999
0.99999
0.99999
0.99999
0.99999
0.99999
0.99999
0.999991
0.999991
0.999993
0.999996
1.00001
1.00002
1.00008
1.00016
1.00045
1.00092
1.00249
1.00502
1.01374
0.999991
0.99999
0.99999
0.99999
0.99999
0.99999
0.99999
0.99999
0.99999
0.99999
0.99999
0.99999
0.99999
0.999991
0.999992
0.999994
0.999997
1.00001
1.00003
1.00009
1.0002
1.00055
1.00112
1.00303
1.00608
0.999991
0.99999
0.99999
0.99999
0.99999
0.99999
0.99999
0.99999
0.99999
0.99999
0.99999
0.99999
0.99999
0.999991
0.999991
0.999992
0.999995
0.999999
1.00001
1.00004
1.00012
1.00025
1.00067
1.00136
1.00366
0.999991
0.99999
0.99999
0.99999
0.99999
0.99999
0.99999
0.99999
0.99999
0.99999
0.99999
0.99999
0.99999
0.99999
0.999991
0.999991
0.999992
0.999995
1
1.00002
1.00005
1.00014
1.00029
1.00079
1.0016
0.999991
0.99999
0.99999
0.99999
0.99999
0.99999
0.99999
0.99999
0.99999
0.99999
0.99999
0.99999
0.99999
0.99999
0.99999
0.999991
0.999991
0.999993
0.999996
1
1.00002
1.00006
1.00017
1.00035
1.00094
0.999991
0.99999
0.99999
0.99999
0.99999
0.99999
0.99999
0.99999
0.99999
0.99999
0.99999
0.99999
0.99999
0.99999
0.99999
0.99999
0.999991
0.999991
0.999993
0.999997
1.00001
1.00003
1.00008
1.00018
1.00048
0.999991
0.99999
0.99999
0.99999
0.99999
0.99999
0.99999
0.99999
0.99999
0.99999
0.99999
0.99999
0.99999
0.99999
0.99999
0.99999
0.999991
0.999991
0.999992
0.999994
0.999998
1.00001
1.00003
1.00011
1.00022
0.999991
0.99999
0.99999
0.99999
0.99999
0.99999
0.99999
0.99999
0.99999
0.99999
0.99999
0.99999
0.99999
0.99999
0.99999
0.99999
0.99999
0.999991
0.999991
0.999993
0.999996
1.00001
1.00002
1.00007
1.00015
1
1.00001
1.00003
1.0001
1.00021
1.00059
1.00119
1.00343
1.00666
1.02102
1.03698
1.13593
1.23969
1.91463
3.12969
7.26245
10.5454
10.4006
10.1079
10.0557
10.0327
9.94085
9.68031
9.06434
7.49959
1
1.00001
1.00003
1.00009
1.00018
1.00052
1.00106
1.003
1.00605
1.0176
1.03437
1.10946
1.2077
1.72672
2.70562
6.03957
10.4433
10.295
9.95788
9.81458
9.72706
9.53468
9.11748
8.27547
6.63787
1
1.00001
1.00003
1.00007
1.00016
1.00044
1.00089
1.00252
1.00508
1.01462
1.02894
1.08845
1.17409
1.57166
2.33592
4.9129
10.1107
10.0829
9.83145
9.58047
9.42122
9.14741
8.63348
7.76331
6.42462
1
1.00001
1.00002
1.00006
1.00013
1.00036
1.00073
1.00204
1.00412
1.0119
1.02296
1.07373
1.13354
1.47439
2.06935
4.25136
9.2412
9.79395
9.64587
9.35014
9.12291
8.80084
8.2723
7.46871
6.39272
1
1.00001
1.00002
1.00005
1.0001
1.00028
1.00056
1.00159
1.0031
1.00961
1.01674
1.06144
1.1007
1.39615
1.82042
3.64916
7.81728
9.5229
9.42993
9.17266
8.86465
8.5092
7.99914
7.27914
6.37898
1
1
1.00002
1.00003
1.0001
1.00019
1.00055
1.00111
1.00317
1.0062
1.0192
1.03418
1.12308
1.21747
1.80709
2.86236
6.36096
9.36819
9.28975
9.03138
8.65196
8.26726
7.78446
7.14465
6.37081
1
1
1.00001
1.00003
1.00008
1.00016
1.00044
1.0009
1.00253
1.00511
1.0147
1.02904
1.08881
1.17452
1.56868
2.32297
4.73563
9.05118
9.11791
8.92223
8.50196
8.07206
7.6077
7.03445
6.35666
1
1
1.00001
1.00002
1.00006
1.00012
1.00034
1.00069
1.00194
1.00392
1.01125
1.02206
1.06862
1.12792
1.43663
1.98314
3.89986
8.17369
8.87311
8.72958
8.3715
7.91432
7.46429
6.94419
6.34281
1
1
1.00001
1.00002
1.00004
1.00011
1.00022
1.00061
1.00123
1.00349
1.0068
1.02107
1.03722
1.13408
1.23605
1.88223
3.00923
6.60628
8.56721
8.49995
8.25656
7.79667
7.35064
6.87118
6.33219
1
1
1
1.00001
1.00003
1.00008
1.00017
1.00047
1.00096
1.00269
1.00542
1.0156
1.03072
1.09475
1.1839
1.60893
2.40415
4.93374
8.20361
8.31191
8.15139
7.76525
7.28235