/*--------------------------------*- C++ -*----------------------------------*\
| =========                 |                                                 |
| \\      /  F ield         | OpenFOAM: The Open Source CFD Toolbox           |
|  \\    /   O peration     | Version:  4.1                                   |
|   \\  /    A nd           | Web:      www.OpenFOAM.org                      |
|    \\/     M anipulation  |                                                 |
\*---------------------------------------------------------------------------*/
FoamFile
{
    version     2.0;
    format      ascii;
    class       volScalarField;
    location    "3.08";
    object      T;
}
// * * * * * * * * * * * * * * * * * * * * * * * * * * * * * * * * * * * * * //

dimensions      [0 0 0 1 0 0 0];

internalField   nonuniform List<scalar> 
52500
(
0.999995
1.00002
1.00004
1.00015
1.00027
1.00088
1.00163
1.00481
1.01011
1.02606
1.07049
1.15574
1.48792
2.25044
2.64094
2.7332
2.72718
2.72134
2.73725
2.74662
2.76115
2.76854
2.77336
2.78381
2.7913
0.999995
1.00002
1.00004
1.00014
1.00027
1.00086
1.0016
1.00475
1.00996
1.02573
1.06939
1.15372
1.47953
2.23602
2.63696
2.733
2.72683
2.72067
2.73644
2.7457
2.76
2.76709
2.77199
2.78139
2.78819
0.999995
1.00002
1.00004
1.00014
1.00026
1.00084
1.00156
1.00463
1.00966
1.02506
1.06709
1.14954
1.46148
2.20399
2.62648
2.73128
2.72501
2.7182
2.73397
2.74316
2.75743
2.7638
2.76884
2.77894
2.78475
0.999995
1.00002
1.00004
1.00013
1.00025
1.00081
1.00149
1.00449
1.0092
1.02419
1.06338
1.14325
1.43352
2.15297
2.6093
2.72771
2.72118
2.71326
2.72905
2.73852
2.75302
2.76009
2.76355
2.77187
2.78006
0.999995
1.00001
1.00003
1.00013
1.00024
1.00078
1.00142
1.0044
1.00857
1.02355
1.0576
1.13494
1.39515
2.08037
2.58514
2.72186
2.71536
2.70453
2.72076
2.72856
2.74351
2.75154
2.75706
2.76598
2.77015
0.999995
1.00001
1.00003
1.00012
1.00022
1.00072
1.00132
1.00411
1.00788
1.02229
1.05155
1.12519
1.35267
1.9912
2.55146
2.71399
2.70734
2.69545
2.71284
2.72079
2.73212
2.73999
2.74342
2.75123
2.76024
0.999995
1.00001
1.00003
1.00011
1.0002
1.00066
1.00121
1.00378
1.0072
1.02064
1.04602
1.11599
1.31009
1.90562
2.50119
2.69737
2.68889
2.67899
2.69766
2.70789
2.72135
2.72626
2.73113
2.73869
2.73998
0.999995
1.00001
1.00002
1.0001
1.00018
1.0006
1.0011
1.00343
1.00652
1.0188
1.0417
1.10494
1.28107
1.81119
2.4892
2.68798
2.67864
2.66507
2.68117
2.68868
2.70368
2.70727
2.7061
2.70995
2.71549
0.999994
1.00001
1.00002
1.00009
1.00016
1.00053
1.00097
1.00304
1.00582
1.01625
1.03818
1.0908
1.26017
1.68569
2.45268
2.67461
2.66191
2.6618
2.6662
2.67122
2.68162
2.6873
2.68579
2.68135
2.66194
0.999994
1
1.00002
1.00007
1.00013
1.00043
1.00083
1.00234
1.0052
1.01283
1.03516
1.07708
1.23977
1.58721
2.35376
2.64198
2.65766
2.65482
2.65288
2.65651
2.65583
2.65382
2.64437
2.62394
2.58027
1
1.00002
1.00005
1.00015
1.00028
1.00088
1.00164
1.00482
1.01012
1.02607
1.0705
1.15578
1.48796
2.25057
2.64101
2.73327
2.72725
2.72142
2.73733
2.7467
2.76123
2.76862
2.77344
2.78389
2.79139
1
1.00002
1.00005
1.00015
1.00027
1.00087
1.00161
1.00476
1.00997
1.02574
1.0694
1.15376
1.47957
2.23614
2.63703
2.73307
2.7269
2.72075
2.73651
2.74578
2.76008
2.76717
2.77206
2.78146
2.78827
1
1.00002
1.00004
1.00015
1.00027
1.00085
1.00157
1.00464
1.00967
1.02507
1.0671
1.14958
1.46152
2.20411
2.62655
2.73135
2.72508
2.71828
2.73404
2.74324
2.75751
2.76388
2.76892
2.77901
2.78483
1
1.00002
1.00004
1.00014
1.00026
1.00082
1.0015
1.0045
1.0092
1.02421
1.06338
1.14328
1.43351
2.15305
2.60936
2.72777
2.72124
2.71332
2.72912
2.7386
2.75309
2.76017
2.76362
2.77194
2.78014
1
1.00002
1.00004
1.00014
1.00025
1.00079
1.00142
1.00441
1.00858
1.02357
1.0576
1.13498
1.39515
2.08046
2.5852
2.72193
2.71543
2.7046
2.72083
2.72863
2.74357
2.75161
2.75713
2.76605
2.77022
1
1.00002
1.00004
1.00013
1.00023
1.00073
1.00133
1.00412
1.00789
1.02231
1.05156
1.12522
1.35268
1.99129
2.55152
2.71406
2.70741
2.69552
2.71291
2.72087
2.73219
2.74005
2.74349
2.7513
2.76032
1
1.00002
1.00004
1.00012
1.00021
1.00067
1.00122
1.00379
1.00721
1.02065
1.04603
1.11602
1.31011
1.90569
2.50125
2.69744
2.68895
2.67905
2.69772
2.70796
2.72142
2.72633
2.7312
2.73875
2.74005
1
1.00002
1.00003
1.00011
1.00019
1.00061
1.00111
1.00344
1.00653
1.01881
1.04171
1.10496
1.28108
1.81127
2.48925
2.68805
2.67871
2.66514
2.68124
2.68874
2.70374
2.70734
2.70617
2.71001
2.71555
1
1.00001
1.00003
1.00009
1.00017
1.00054
1.00098
1.00305
1.00583
1.01627
1.03818
1.09083
1.26016
1.68576
2.45273
2.67467
2.66195
2.66186
2.66627
2.67129
2.68167
2.68737
2.68586
2.68141
2.662
1
1.00001
1.00002
1.00008
1.00014
1.00044
1.00084
1.00235
1.00521
1.01284
1.03517
1.0771
1.23978
1.58728
2.35382
2.64205
2.65771
2.65487
2.65295
2.65658
2.6559
2.65388
2.64443
2.62399
2.58032
1
1.00002
1.00005
1.00015
1.00028
1.00088
1.00164
1.00482
1.01012
1.02607
1.0705
1.15578
1.48796
2.25057
2.64101
2.73327
2.72725
2.72142
2.73733
2.7467
2.76123
2.76862
2.77344
2.78389
2.79139
1
1.00002
1.00005
1.00015
1.00027
1.00087
1.00161
1.00476
1.00997
1.02574
1.0694
1.15376
1.47957
2.23615
2.63704
2.73307
2.7269
2.72075
2.73651
2.74578
2.76008
2.76717
2.77206
2.78146
2.78827
1
1.00002
1.00004
1.00015
1.00027
1.00085
1.00157
1.00464
1.00967
1.02507
1.0671
1.14958
1.46152
2.20412
2.62655
2.73135
2.72508
2.71828
2.73404
2.74324
2.75751
2.76388
2.76892
2.77901
2.78483
1
1.00002
1.00004
1.00014
1.00026
1.00082
1.0015
1.0045
1.0092
1.02421
1.06338
1.14328
1.43351
2.15306
2.60936
2.72777
2.72124
2.71332
2.72912
2.7386
2.75309
2.76017
2.76362
2.77194
2.78014
1
1.00002
1.00004
1.00014
1.00025
1.00079
1.00142
1.00441
1.00858
1.02357
1.0576
1.13498
1.39515
2.08046
2.5852
2.72193
2.71544
2.7046
2.72083
2.72863
2.74357
2.75161
2.75713
2.76605
2.77022
1
1.00002
1.00004
1.00013
1.00023
1.00073
1.00133
1.00412
1.00789
1.02231
1.05156
1.12522
1.35268
1.9913
2.55153
2.71406
2.70741
2.69552
2.71291
2.72087
2.73219
2.74006
2.74349
2.7513
2.76032
1
1.00002
1.00004
1.00012
1.00021
1.00067
1.00122
1.00379
1.00721
1.02065
1.04603
1.11602
1.31011
1.90569
2.50125
2.69744
2.68895
2.67905
2.69772
2.70796
2.72142
2.72633
2.7312
2.73875
2.74005
1
1.00002
1.00003
1.00011
1.00019
1.00061
1.00111
1.00344
1.00653
1.01881
1.04171
1.10496
1.28108
1.81127
2.48925
2.68805
2.67871
2.66514
2.68124
2.68874
2.70374
2.70734
2.70617
2.71001
2.71555
1
1.00001
1.00003
1.00009
1.00017
1.00054
1.00098
1.00305
1.00583
1.01627
1.03818
1.09083
1.26016
1.68577
2.45273
2.67467
2.66195
2.66186
2.66627
2.67129
2.68167
2.68737
2.68586
2.68141
2.662
1
1.00001
1.00002
1.00008
1.00014
1.00044
1.00084
1.00235
1.00521
1.01284
1.03517
1.0771
1.23978
1.58728
2.35382
2.64205
2.65771
2.65487
2.65295
2.65658
2.6559
2.65388
2.64443
2.62399
2.58032
1
1.00002
1.00005
1.00015
1.00028
1.00088
1.00164
1.00482
1.01012
1.02607
1.0705
1.15578
1.48796
2.25057
2.64101
2.73327
2.72725
2.72142
2.73733
2.7467
2.76123
2.76862
2.77344
2.78389
2.79139
1
1.00002
1.00005
1.00015
1.00027
1.00087
1.00161
1.00476
1.00997
1.02574
1.0694
1.15376
1.47957
2.23615
2.63704
2.73307
2.7269
2.72075
2.73651
2.74578
2.76008
2.76717
2.77206
2.78146
2.78827
1
1.00002
1.00004
1.00015
1.00027
1.00085
1.00157
1.00464
1.00967
1.02507
1.0671
1.14958
1.46152
2.20412
2.62655
2.73135
2.72508
2.71828
2.73404
2.74324
2.75751
2.76388
2.76892
2.77901
2.78483
1
1.00002
1.00004
1.00014
1.00026
1.00082
1.0015
1.0045
1.0092
1.02421
1.06338
1.14328
1.43351
2.15306
2.60936
2.72777
2.72124
2.71332
2.72912
2.7386
2.75309
2.76017
2.76362
2.77194
2.78014
1
1.00002
1.00004
1.00014
1.00025
1.00079
1.00142
1.00441
1.00858
1.02357
1.0576
1.13498
1.39515
2.08046
2.5852
2.72193
2.71544
2.7046
2.72083
2.72863
2.74357
2.75161
2.75713
2.76605
2.77022
1
1.00002
1.00004
1.00013
1.00023
1.00073
1.00133
1.00412
1.00789
1.02231
1.05156
1.12522
1.35268
1.9913
2.55153
2.71406
2.70741
2.69552
2.71291
2.72087
2.73219
2.74006
2.74349
2.7513
2.76032
1
1.00002
1.00004
1.00012
1.00021
1.00067
1.00122
1.00379
1.00721
1.02065
1.04603
1.11602
1.31011
1.90569
2.50125
2.69744
2.68895
2.67905
2.69772
2.70796
2.72142
2.72633
2.7312
2.73875
2.74005
1
1.00002
1.00003
1.00011
1.00019
1.00061
1.00111
1.00344
1.00653
1.01881
1.04171
1.10496
1.28108
1.81127
2.48925
2.68805
2.67871
2.66514
2.68124
2.68874
2.70374
2.70734
2.70617
2.71001
2.71555
1
1.00001
1.00003
1.00009
1.00017
1.00054
1.00098
1.00305
1.00583
1.01627
1.03818
1.09083
1.26016
1.68577
2.45273
2.67467
2.66195
2.66186
2.66627
2.67129
2.68167
2.68737
2.68586
2.68141
2.662
1
1.00001
1.00002
1.00008
1.00014
1.00044
1.00084
1.00235
1.00521
1.01284
1.03517
1.0771
1.23978
1.58728
2.35382
2.64205
2.65771
2.65487
2.65295
2.65658
2.6559
2.65388
2.64443
2.62399
2.58032
1
1.00002
1.00005
1.00015
1.00028
1.00088
1.00164
1.00482
1.01012
1.02607
1.0705
1.15578
1.48796
2.25057
2.64101
2.73327
2.72725
2.72142
2.73733
2.7467
2.76123
2.76862
2.77344
2.78389
2.79139
1
1.00002
1.00005
1.00015
1.00027
1.00087
1.00161
1.00476
1.00997
1.02574
1.0694
1.15376
1.47957
2.23615
2.63704
2.73307
2.7269
2.72075
2.73651
2.74578
2.76008
2.76717
2.77206
2.78146
2.78827
1
1.00002
1.00004
1.00015
1.00027
1.00085
1.00157
1.00464
1.00967
1.02507
1.0671
1.14958
1.46152
2.20412
2.62655
2.73135
2.72508
2.71828
2.73404
2.74324
2.75751
2.76388
2.76892
2.77901
2.78483
1
1.00002
1.00004
1.00014
1.00026
1.00082
1.0015
1.0045
1.0092
1.02421
1.06338
1.14328
1.43351
2.15306
2.60936
2.72777
2.72124
2.71332
2.72912
2.7386
2.75309
2.76017
2.76362
2.77194
2.78014
1
1.00002
1.00004
1.00014
1.00025
1.00079
1.00142
1.00441
1.00858
1.02357
1.0576
1.13498
1.39515
2.08046
2.5852
2.72193
2.71544
2.7046
2.72083
2.72863
2.74357
2.75161
2.75713
2.76605
2.77022
1
1.00002
1.00004
1.00013
1.00023
1.00073
1.00133
1.00412
1.00789
1.02231
1.05156
1.12522
1.35268
1.9913
2.55153
2.71406
2.70741
2.69552
2.71291
2.72087
2.73219
2.74006
2.74349
2.7513
2.76032
1
1.00002
1.00004
1.00012
1.00021
1.00067
1.00122
1.00379
1.00721
1.02065
1.04603
1.11602
1.31011
1.90569
2.50125
2.69744
2.68895
2.67905
2.69772
2.70796
2.72142
2.72633
2.7312
2.73875
2.74005
1
1.00002
1.00003
1.00011
1.00019
1.00061
1.00111
1.00344
1.00653
1.01881
1.04171
1.10496
1.28108
1.81127
2.48925
2.68805
2.67871
2.66514
2.68124
2.68874
2.70374
2.70734
2.70617
2.71001
2.71555
1
1.00001
1.00003
1.00009
1.00017
1.00054
1.00098
1.00305
1.00583
1.01627
1.03818
1.09083
1.26016
1.68577
2.45273
2.67467
2.66195
2.66186
2.66627
2.67129
2.68167
2.68737
2.68586
2.68141
2.662
1
1.00001
1.00002
1.00008
1.00014
1.00044
1.00084
1.00235
1.00521
1.01284
1.03517
1.0771
1.23978
1.58728
2.35382
2.64205
2.65771
2.65487
2.65295
2.65658
2.6559
2.65388
2.64443
2.62399
2.58032
1
1.00002
1.00005
1.00015
1.00028
1.00088
1.00164
1.00482
1.01012
1.02607
1.0705
1.15578
1.48796
2.25057
2.64101
2.73327
2.72725
2.72142
2.73733
2.7467
2.76123
2.76862
2.77344
2.78389
2.79139
1
1.00002
1.00005
1.00015
1.00027
1.00087
1.00161
1.00476
1.00997
1.02574
1.0694
1.15376
1.47957
2.23615
2.63704
2.73307
2.7269
2.72075
2.73651
2.74578
2.76008
2.76717
2.77206
2.78146
2.78827
1
1.00002
1.00004
1.00015
1.00027
1.00085
1.00157
1.00464
1.00967
1.02507
1.0671
1.14958
1.46152
2.20412
2.62655
2.73135
2.72508
2.71828
2.73404
2.74324
2.75751
2.76388
2.76892
2.77901
2.78483
1
1.00002
1.00004
1.00014
1.00026
1.00082
1.0015
1.0045
1.0092
1.02421
1.06338
1.14328
1.43351
2.15306
2.60936
2.72777
2.72124
2.71332
2.72912
2.7386
2.75309
2.76017
2.76362
2.77194
2.78014
1
1.00002
1.00004
1.00014
1.00025
1.00079
1.00142
1.00441
1.00858
1.02357
1.0576
1.13498
1.39515
2.08046
2.5852
2.72193
2.71544
2.7046
2.72083
2.72863
2.74357
2.75161
2.75713
2.76605
2.77022
1
1.00002
1.00004
1.00013
1.00023
1.00073
1.00133
1.00412
1.00789
1.02231
1.05156
1.12522
1.35268
1.9913
2.55153
2.71406
2.70741
2.69552
2.71291
2.72087
2.73219
2.74006
2.74349
2.7513
2.76032
1
1.00002
1.00004
1.00012
1.00021
1.00067
1.00122
1.00379
1.00721
1.02065
1.04603
1.11602
1.31011
1.90569
2.50125
2.69744
2.68895
2.67905
2.69772
2.70796
2.72142
2.72633
2.7312
2.73875
2.74005
1
1.00002
1.00003
1.00011
1.00019
1.00061
1.00111
1.00344
1.00653
1.01881
1.04171
1.10496
1.28108
1.81127
2.48925
2.68805
2.67871
2.66514
2.68124
2.68874
2.70374
2.70734
2.70617
2.71001
2.71555
1
1.00001
1.00003
1.00009
1.00017
1.00054
1.00098
1.00305
1.00583
1.01627
1.03818
1.09083
1.26016
1.68577
2.45273
2.67467
2.66195
2.66186
2.66627
2.67129
2.68167
2.68737
2.68586
2.68141
2.662
1
1.00001
1.00002
1.00008
1.00014
1.00044
1.00084
1.00235
1.00521
1.01284
1.03517
1.0771
1.23978
1.58728
2.35382
2.64205
2.65771
2.65487
2.65295
2.65658
2.6559
2.65388
2.64443
2.62399
2.58032
1
1.00002
1.00005
1.00015
1.00028
1.00088
1.00164
1.00482
1.01012
1.02607
1.0705
1.15578
1.48796
2.25057
2.64101
2.73327
2.72725
2.72142
2.73733
2.7467
2.76123
2.76862
2.77344
2.78389
2.79139
1
1.00002
1.00005
1.00015
1.00027
1.00087
1.00161
1.00476
1.00997
1.02574
1.0694
1.15376
1.47957
2.23615
2.63704
2.73307
2.7269
2.72075
2.73651
2.74578
2.76008
2.76717
2.77206
2.78146
2.78827
1
1.00002
1.00004
1.00015
1.00027
1.00085
1.00157
1.00464
1.00967
1.02507
1.0671
1.14958
1.46152
2.20412
2.62655
2.73135
2.72508
2.71828
2.73404
2.74324
2.75751
2.76388
2.76892
2.77901
2.78483
1
1.00002
1.00004
1.00014
1.00026
1.00082
1.0015
1.0045
1.0092
1.02421
1.06338
1.14328
1.43351
2.15306
2.60936
2.72777
2.72124
2.71332
2.72912
2.7386
2.75309
2.76017
2.76362
2.77194
2.78014
1
1.00002
1.00004
1.00014
1.00025
1.00079
1.00142
1.00441
1.00858
1.02357
1.0576
1.13498
1.39515
2.08046
2.5852
2.72193
2.71544
2.7046
2.72083
2.72863
2.74357
2.75161
2.75713
2.76605
2.77022
1
1.00002
1.00004
1.00013
1.00023
1.00073
1.00133
1.00412
1.00789
1.02231
1.05156
1.12522
1.35268
1.9913
2.55153
2.71406
2.70741
2.69552
2.71291
2.72087
2.73219
2.74006
2.74349
2.7513
2.76032
1
1.00002
1.00004
1.00012
1.00021
1.00067
1.00122
1.00379
1.00721
1.02065
1.04603
1.11602
1.31011
1.90569
2.50125
2.69744
2.68895
2.67905
2.69772
2.70796
2.72142
2.72633
2.7312
2.73875
2.74005
1
1.00002
1.00003
1.00011
1.00019
1.00061
1.00111
1.00344
1.00653
1.01881
1.04171
1.10496
1.28108
1.81127
2.48925
2.68805
2.67871
2.66514
2.68124
2.68874
2.70374
2.70734
2.70617
2.71001
2.71555
1
1.00001
1.00003
1.00009
1.00017
1.00054
1.00098
1.00305
1.00583
1.01627
1.03818
1.09083
1.26016
1.68577
2.45273
2.67467
2.66195
2.66186
2.66627
2.67129
2.68167
2.68737
2.68586
2.68141
2.662
1
1.00001
1.00002
1.00008
1.00014
1.00044
1.00084
1.00235
1.00521
1.01284
1.03517
1.0771
1.23978
1.58728
2.35382
2.64205
2.65771
2.65487
2.65295
2.65658
2.6559
2.65388
2.64443
2.62399
2.58032
1
1.00002
1.00005
1.00015
1.00028
1.00088
1.00164
1.00482
1.01012
1.02607
1.0705
1.15578
1.48796
2.25057
2.64101
2.73327
2.72725
2.72142
2.73733
2.7467
2.76123
2.76862
2.77344
2.78389
2.79139
1
1.00002
1.00005
1.00015
1.00027
1.00087
1.00161
1.00476
1.00997
1.02574
1.0694
1.15376
1.47957
2.23615
2.63704
2.73307
2.7269
2.72075
2.73651
2.74578
2.76008
2.76717
2.77206
2.78146
2.78827
1
1.00002
1.00004
1.00015
1.00027
1.00085
1.00157
1.00464
1.00967
1.02507
1.0671
1.14958
1.46152
2.20412
2.62655
2.73135
2.72508
2.71828
2.73404
2.74324
2.75751
2.76388
2.76892
2.77901
2.78483
1
1.00002
1.00004
1.00014
1.00026
1.00082
1.0015
1.0045
1.0092
1.02421
1.06338
1.14328
1.43351
2.15306
2.60936
2.72777
2.72124
2.71332
2.72912
2.7386
2.75309
2.76017
2.76362
2.77194
2.78014
1
1.00002
1.00004
1.00014
1.00025
1.00079
1.00142
1.00441
1.00858
1.02357
1.0576
1.13498
1.39515
2.08046
2.5852
2.72193
2.71544
2.7046
2.72083
2.72863
2.74357
2.75161
2.75713
2.76605
2.77022
1
1.00002
1.00004
1.00013
1.00023
1.00073
1.00133
1.00412
1.00789
1.02231
1.05156
1.12522
1.35268
1.9913
2.55153
2.71406
2.70741
2.69552
2.71291
2.72087
2.73219
2.74006
2.74349
2.7513
2.76032
1
1.00002
1.00004
1.00012
1.00021
1.00067
1.00122
1.00379
1.00721
1.02065
1.04603
1.11602
1.31011
1.90569
2.50125
2.69744
2.68895
2.67905
2.69772
2.70796
2.72142
2.72633
2.7312
2.73875
2.74005
1
1.00002
1.00003
1.00011
1.00019
1.00061
1.00111
1.00344
1.00653
1.01881
1.04171
1.10496
1.28108
1.81127
2.48925
2.68805
2.67871
2.66514
2.68124
2.68874
2.70374
2.70734
2.70617
2.71001
2.71555
1
1.00001
1.00003
1.00009
1.00017
1.00054
1.00098
1.00305
1.00583
1.01627
1.03818
1.09083
1.26016
1.68577
2.45273
2.67467
2.66195
2.66186
2.66627
2.67129
2.68167
2.68737
2.68586
2.68141
2.662
1
1.00001
1.00002
1.00008
1.00014
1.00044
1.00084
1.00235
1.00521
1.01284
1.03517
1.0771
1.23978
1.58728
2.35382
2.64205
2.65771
2.65487
2.65295
2.65658
2.6559
2.65388
2.64443
2.62399
2.58032
1
1.00002
1.00005
1.00015
1.00028
1.00088
1.00164
1.00482
1.01012
1.02607
1.0705
1.15578
1.48796
2.25057
2.64101
2.73327
2.72725
2.72142
2.73733
2.7467
2.76123
2.76862
2.77344
2.78389
2.79139
1
1.00002
1.00005
1.00015
1.00027
1.00087
1.00161
1.00476
1.00997
1.02574
1.0694
1.15376
1.47957
2.23614
2.63703
2.73307
2.7269
2.72075
2.73651
2.74578
2.76008
2.76717
2.77206
2.78146
2.78827
1
1.00002
1.00004
1.00015
1.00027
1.00085
1.00157
1.00464
1.00967
1.02507
1.0671
1.14958
1.46152
2.20411
2.62655
2.73135
2.72508
2.71828
2.73404
2.74324
2.75751
2.76388
2.76892
2.77901
2.78483
1
1.00002
1.00004
1.00014
1.00026
1.00082
1.0015
1.0045
1.0092
1.02421
1.06338
1.14328
1.43351
2.15305
2.60936
2.72777
2.72124
2.71332
2.72912
2.7386
2.75309
2.76017
2.76362
2.77194
2.78014
1
1.00002
1.00004
1.00014
1.00025
1.00079
1.00142
1.00441
1.00858
1.02357
1.0576
1.13498
1.39514
2.08046
2.5852
2.72193
2.71543
2.7046
2.72083
2.72863
2.74357
2.75161
2.75713
2.76605
2.77022
1
1.00002
1.00004
1.00013
1.00023
1.00073
1.00133
1.00412
1.00789
1.02231
1.05156
1.12522
1.35268
1.99129
2.55152
2.71406
2.70741
2.69552
2.71291
2.72087
2.73219
2.74005
2.74349
2.7513
2.76032
1
1.00002
1.00004
1.00012
1.00021
1.00067
1.00122
1.00379
1.00721
1.02065
1.04603
1.11602
1.31011
1.90569
2.50125
2.69744
2.68895
2.67905
2.69772
2.70796
2.72142
2.72633
2.7312
2.73875
2.74005
1
1.00002
1.00003
1.00011
1.00019
1.00061
1.00111
1.00344
1.00653
1.01881
1.04171
1.10496
1.28108
1.81127
2.48925
2.68805
2.67871
2.66514
2.68124
2.68874
2.70374
2.70734
2.70617
2.71001
2.71555
1
1.00001
1.00003
1.00009
1.00017
1.00054
1.00098
1.00305
1.00583
1.01627
1.03818
1.09083
1.26016
1.68576
2.45273
2.67467
2.66195
2.66186
2.66627
2.67129
2.68167
2.68737
2.68586
2.68141
2.662
1
1.00001
1.00002
1.00008
1.00014
1.00044
1.00084
1.00235
1.00521
1.01284
1.03517
1.0771
1.23978
1.58728
2.35382
2.64205
2.65771
2.65487
2.65295
2.65658
2.6559
2.65388
2.64443
2.62399
2.58032
0.999995
1.00002
1.00004
1.00015
1.00027
1.00088
1.00163
1.00481
1.01011
1.02606
1.07049
1.15574
1.48792
2.25044
2.64094
2.7332
2.72718
2.72134
2.73725
2.74662
2.76115
2.76854
2.77336
2.78381
2.7913
0.999995
1.00002
1.00004
1.00014
1.00027
1.00086
1.0016
1.00475
1.00996
1.02573
1.06939
1.15372
1.47953
2.23602
2.63696
2.733
2.72683
2.72067
2.73644
2.7457
2.76
2.76709
2.77199
2.78139
2.78819
0.999995
1.00002
1.00004
1.00014
1.00026
1.00084
1.00156
1.00463
1.00966
1.02506
1.06709
1.14954
1.46148
2.20399
2.62648
2.73128
2.72501
2.7182
2.73397
2.74316
2.75743
2.7638
2.76884
2.77894
2.78475
0.999995
1.00002
1.00004
1.00013
1.00025
1.00081
1.00149
1.00449
1.0092
1.02419
1.06338
1.14325
1.43352
2.15297
2.6093
2.72771
2.72118
2.71326
2.72905
2.73852
2.75302
2.76009
2.76355
2.77187
2.78006
0.999995
1.00001
1.00003
1.00013
1.00024
1.00078
1.00142
1.0044
1.00857
1.02355
1.0576
1.13494
1.39515
2.08037
2.58514
2.72186
2.71536
2.70453
2.72076
2.72856
2.74351
2.75154
2.75706
2.76598
2.77015
0.999995
1.00001
1.00003
1.00012
1.00022
1.00072
1.00132
1.00411
1.00788
1.02229
1.05155
1.12519
1.35267
1.9912
2.55146
2.71399
2.70734
2.69545
2.71284
2.72079
2.73212
2.73999
2.74342
2.75123
2.76024
0.999995
1.00001
1.00003
1.00011
1.0002
1.00066
1.00121
1.00378
1.0072
1.02064
1.04602
1.11599
1.31009
1.90562
2.50119
2.69737
2.68889
2.67899
2.69766
2.70789
2.72135
2.72626
2.73113
2.73869
2.73998
0.999995
1.00001
1.00002
1.0001
1.00018
1.0006
1.0011
1.00343
1.00652
1.0188
1.0417
1.10494
1.28107
1.81119
2.4892
2.68798
2.67864
2.66507
2.68117
2.68868
2.70368
2.70727
2.7061
2.70995
2.71549
0.999994
1.00001
1.00002
1.00009
1.00016
1.00053
1.00097
1.00304
1.00582
1.01625
1.03818
1.0908
1.26017
1.68569
2.45268
2.67461
2.66191
2.6618
2.6662
2.67122
2.68162
2.6873
2.68579
2.68135
2.66194
0.999994
1
1.00002
1.00007
1.00013
1.00043
1.00083
1.00234
1.0052
1.01283
1.03516
1.07708
1.23977
1.58721
2.35376
2.64198
2.65766
2.65482
2.65288
2.65651
2.65583
2.65382
2.64437
2.62394
2.58027
0.999996
1
1.00002
1.00005
1.00016
1.00031
1.00095
1.00184
1.00519
1.01158
1.02874
1.08028
1.17491
1.54423
2.3261
2.57886
2.64235
2.63824
2.63562
2.63845
2.63654
2.62765
2.60503
2.55141
2.36193
0.999996
0.999999
1.00002
1.00004
1.00014
1.00026
1.00085
1.00157
1.00465
1.00972
1.02513
1.0673
1.14983
1.46017
2.19364
2.5321
2.63415
2.62658
2.6142
2.61054
2.60434
2.58728
2.55153
2.48688
2.2932
0.999995
0.999998
1.00001
1.00003
1.00012
1.00023
1.00074
1.00134
1.0042
1.00804
1.02263
1.05296
1.12678
1.36133
1.99552
2.45451
2.61695
2.61098
2.60188
2.5914
2.58138
2.56023
2.51255
2.44705
2.28957
0.999995
0.999997
1.00001
1.00003
1.0001
1.00019
1.00061
1.00111
1.00346
1.00655
1.01899
1.04099
1.1067
1.26956
1.80764
2.34664
2.57745
2.57504
2.5722
2.56067
2.54527
2.51921
2.4758
2.42203
2.30102
0.999994
0.999997
1.00001
1.00002
1.00008
1.00015
1.00048
1.00089
1.00271
1.00531
1.01445
1.03456
1.08158
1.22966
1.60875
2.27417
2.5388
2.55526
2.55344
2.54582
2.52609
2.49785
2.43572
2.39014
2.30084
0.999994
0.999997
1
1.00002
1.00004
1.00015
1.00029
1.00089
1.00172
1.00475
1.01079
1.02621
1.07387
1.1582
1.50223
2.21013
2.45343
2.52021
2.51333
2.51063
2.50136
2.48122
2.42977
2.36637
2.29443
0.999994
0.999996
0.999999
1.00002
1.00003
1.00013
1.00023
1.00076
1.00138
1.00429
1.00826
1.02285
1.05477
1.12872
1.37026
2.00003
2.38895
2.50669
2.50065
2.48838
2.4624
2.44377
2.41502
2.3587
2.2912
0.999993
0.999995
0.999997
1.00001
1.00002
1.00009
1.00018
1.00057
1.00106
1.00326
1.00626
1.01784
1.03899
1.10068
1.25218
1.75931
2.23652
2.4646
2.47277
2.46784
2.45142
2.41868
2.38607
2.34011
2.28181
0.999993
0.999993
0.999997
1
1.00002
1.00005
1.00017
1.00032
1.00101
1.00192
1.00548
1.01175
1.02971
1.07999
1.17581
1.5238
2.19816
2.40647
2.43817
2.42919
2.42189
2.40247
2.37308
2.33208
2.27858
0.999992
0.999993
0.999996
0.999999
1.00002
1.00004
1.00013
1.00024
1.00077
1.00144
1.00421
1.00876
1.02265
1.05929
1.13357
1.39266
2.02945
2.338
2.41897
2.41275
2.3941
2.37007
2.34267
2.3122
2.26946
0.999992
0.999992
0.999993
0.999998
1
1.00003
1.00007
1.00022
1.00042
1.00126
1.00252
1.0067
1.01595
1.03768
1.1063
1.23723
1.67469
2.1826
2.38522
2.38988
2.3805
2.35868
2.32754
2.29475
2.26049
0.999992
0.999992
0.999993
0.999996
1
1.00002
1.00005
1.00016
1.0003
1.00096
1.00179
1.0052
1.01096
1.02788
1.07425
1.1628
1.4831
2.10127
2.32357
2.35776
2.35091
2.33468
2.30731
2.27423
2.24011
0.999991
0.999992
0.999993
0.999994
1
1.00001
1.00004
1.00008
1.00027
1.00052
1.00147
1.00316
1.0079
1.02057
1.0464
1.13563
1.30288
1.84319
2.2206
2.3338
2.33225
2.32111
2.29876
2.26626
2.23251
0.999991
0.999991
0.999992
0.999993
0.999997
1
1.00003
1.00006
1.0002
1.00037
1.00116
1.00214
1.00644
1.01282
1.03403
1.08291
1.20077
1.51349
2.10418
2.27304
2.29291
2.28936
2.27652
2.2501
2.21828
0.999991
0.999991
0.999991
0.999993
0.999994
1
1.00001
1.00005
1.0001
1.00032
1.0006
1.00182
1.00356
1.00962
1.02231
1.05325
1.14721
1.34607
1.86026
2.19968
2.27401
2.27178
2.26125
2.24124
2.20884
0.999991
0.999991
0.999991
0.999992
0.999993
0.999998
1
1.00003
1.00006
1.00022
1.00041
1.00126
1.00234
1.00686
1.01399
1.03607
1.0906
1.21204
1.54139
2.03344
2.22755
2.24005
2.23649
2.22252
2.19683
0.999991
0.999991
0.999991
0.999991
0.999993
0.999995
1
1.00001
1.00005
1.00011
1.00035
1.00065
1.00197
1.00378
1.01061
1.02318
1.05688
1.14722
1.37061
1.85309
2.15354
2.21802
2.21656
2.20581
2.18762
0.999991
0.999991
0.999991
0.999991
0.999992
0.999993
0.999998
1
1.00003
1.00007
1.00023
1.00042
1.0013
1.00242
1.00694
1.01448
1.03655
1.09532
1.21308
1.5675
1.99265
2.17364
2.18911
2.18573
2.17166
0.999991
0.999991
0.999991
0.999991
0.999991
0.999993
0.999995
1
1.00001
1.00006
1.00011
1.00035
1.00066
1.00197
1.00384
1.01061
1.02315
1.05795
1.14205
1.38367
1.81146
2.08698
2.15791
2.16255
2.15633
0.999991
0.999991
0.999991
0.999991
0.999991
0.999992
0.999994
0.999997
1.00001
1.00002
1.00009
1.00017
1.00053
1.001
1.00296
1.00578
1.01578
1.03486
1.08636
1.21287
1.5874
1.94598
2.11001
2.12996
2.12893
0.999991
0.999991
0.999991
0.999991
0.999991
0.999991
0.999993
0.999994
1
1.00001
1.00005
1.00011
1.00034
1.00063
1.00191
1.00359
1.01029
1.02133
1.05431
1.13142
1.34031
1.75626
2.03209
2.10299
2.10743
0.999991
0.999991
0.999991
0.999991
0.999991
0.999991
0.999992
0.999994
0.999996
1.00001
1.00002
1.00008
1.00016
1.00049
1.00092
1.00269
1.00526
1.01435
1.03099
1.07876
1.18488
1.5223
1.87554
2.05822
2.07702
0.999991
0.999991
0.999991
0.999991
0.999991
0.999991
0.999991
0.999993
0.999994
1
1.00001
1.00005
1.00009
1.00031
1.00056
1.00173
1.0032
1.00922
1.01894
1.04796
1.1177
1.28742
1.67906
1.97369
2.0544
0.999991
0.999991
0.999991
0.999991
0.999991
0.999991
0.999991
0.999992
0.999993
0.999997
1
1.00003
1.00005
1.00018
1.00034
1.00104
1.0019
1.0056
1.01087
1.0291
1.06581
1.1602
1.39161
1.82239
1.99622
0.999991
0.999991
0.999991
0.999991
0.999991
0.999991
0.999991
0.999991
0.999992
0.999994
0.999998
1.00001
1.00003
1.00011
1.0002
1.00062
1.00114
1.0034
1.00648
1.01779
1.03942
1.09379
1.24352
1.63438
1.88112
0.999991
0.999991
0.999991
0.999991
0.999991
0.999991
0.999991
0.999991
0.999992
0.999992
0.999996
1
1.00002
1.00004
1.00014
1.00028
1.00082
1.00157
1.00439
1.00911
1.0229
1.05748
1.12653
1.34482
1.75766
0.999991
0.999991
0.999991
0.999991
0.999991
0.999991
0.999991
0.999991
0.999991
0.999992
0.999993
0.999998
1
1.00003
1.00006
1.0002
1.00038
1.00111
1.00212
1.0059
1.01232
1.03043
1.07647
1.1694
1.44035
0.999991
0.999991
0.999991
0.999991
0.999991
0.999991
0.999991
0.999991
0.999991
0.999991
0.999992
0.999994
1
1.00001
1.00004
1.00009
1.00028
1.00052
1.00153
1.00296
1.00796
1.01751
1.04102
1.10403
1.24317
0.999991
0.999991
0.999991
0.999991
0.999991
0.999991
0.999991
0.999991
0.999991
0.999991
0.999992
0.999993
0.999996
1
1.00002
1.00005
1.00016
1.00029
1.00089
1.00164
1.00477
1.00928
1.0245
1.05598
1.1306
0.999991
0.999991
0.999991
0.999991
0.999991
0.999991
0.999991
0.999991
0.999991
0.999991
0.999991
0.999992
0.999993
0.999998
1
1.00003
1.00006
1.0002
1.00038
1.00112
1.00213
1.0059
1.01218
1.0303
1.07413
0.999991
0.999991
0.999991
0.999991
0.999991
0.999991
0.999991
0.999991
0.999991
0.999991
0.999991
0.999991
0.999992
0.999994
1
1.00001
1.00004
1.00009
1.00027
1.00051
1.00147
1.00285
1.00774
1.01629
1.04078
0.999991
0.999991
0.999991
0.999991
0.999991
0.999991
0.999991
0.999991
0.999991
0.999991
0.999991
0.999991
0.999991
0.999993
0.999995
1
1.00001
1.00006
1.00011
1.00035
1.00066
1.00188
1.00368
1.00995
1.02064
0.999991
0.999991
0.999991
0.999991
0.999991
0.999991
0.999991
0.999991
0.999991
0.999991
0.999991
0.999991
0.999991
0.999992
0.999993
0.999997
1
1.00003
1.00006
1.00019
1.00035
1.00103
1.00193
1.00538
1.01072
0.999991
0.999991
0.999991
0.999991
0.999991
0.999991
0.999991
0.999991
0.999991
0.999991
0.999991
0.999991
0.999991
0.999991
0.999992
0.999994
0.999999
1.00001
1.00004
1.00007
1.00023
1.00044
1.00128
1.00244
1.00675
0.999991
0.999991
0.999991
0.999991
0.999991
0.999991
0.999991
0.999991
0.999991
0.999991
0.999991
0.999991
0.999991
0.999991
0.999991
0.999993
0.999994
1
1.00001
1.00005
1.0001
1.0003
1.00057
1.00163
1.00318
0.999991
0.999991
0.999991
0.999991
0.999991
0.999991
0.999991
0.999991
0.999991
0.999991
0.999991
0.999991
0.999991
0.999991
0.999991
0.999992
0.999993
0.999996
1
1.00002
1.00007
1.00013
1.0004
1.00077
1.00218
0.999991
0.999991
0.999991
0.999991
0.999991
0.999991
0.999991
0.999991
0.999991
0.999991
0.999991
0.999991
0.999991
0.999991
0.999991
0.999991
0.999992
0.999995
0.999998
1.00001
1.00003
1.00012
1.00022
1.00068
1.00127
0.999991
0.999991
0.999991
0.999991
0.999991
0.999991
0.999991
0.999991
0.999991
0.999991
0.999991
0.999991
0.999991
0.999991
0.999991
0.999991
0.999992
0.999994
0.999996
1.00001
1.00002
1.00009
1.00018
1.00057
1.00106
0.999991
0.999991
0.999991
0.999991
0.999991
0.999991
0.999991
0.999991
0.999991
0.999991
0.999991
0.999991
0.999991
0.999991
0.999991
0.999991
0.999992
0.999993
0.999997
1
1.00003
1.00006
1.00021
1.00039
1.00125
0.999991
0.999991
0.999991
0.999991
0.999991
0.999991
0.999991
0.999991
0.999991
0.999991
0.999991
0.999991
0.999991
0.999991
0.999991
0.999991
0.999992
0.999993
0.999997
1
1.00003
1.00006
1.00021
1.00038
1.00125
1
1.00001
1.00003
1.00005
1.00017
1.00031
1.00096
1.00185
1.0052
1.01159
1.02875
1.08029
1.17495
1.54425
2.32618
2.57893
2.6424
2.63829
2.63567
2.63851
2.6366
2.62771
2.60509
2.55146
2.36196
1
1.00001
1.00003
1.00005
1.00015
1.00027
1.00086
1.00158
1.00466
1.00972
1.02514
1.06731
1.14986
1.46019
2.19374
2.53217
2.6342
2.62664
2.61425
2.61059
2.60439
2.58733
2.55159
2.48693
2.29323
1
1.00001
1.00002
1.00004
1.00013
1.00023
1.00075
1.00135
1.00421
1.00805
1.02265
1.05297
1.12681
1.36135
1.99561
2.45458
2.61701
2.61103
2.60193
2.59145
2.58143
2.56028
2.51259
2.44709
2.2896
1
1.00001
1.00002
1.00003
1.00011
1.00019
1.00062
1.00112
1.00347
1.00656
1.019
1.041
1.10672
1.26958
1.8077
2.34669
2.57751
2.57509
2.57226
2.56072
2.54531
2.51926
2.47585
2.42208
2.30105
1
1
1.00001
1.00003
1.00009
1.00016
1.00049
1.00089
1.00272
1.00532
1.01447
1.03456
1.08161
1.22965
1.60881
2.27422
2.53886
2.55531
2.5535
2.54587
2.52613
2.49789
2.43576
2.39018
2.30088
1
1
1.00001
1.00003
1.00005
1.00016
1.0003
1.0009
1.00173
1.00476
1.0108
1.02622
1.07388
1.15823
1.50224
2.21021
2.45349
2.52026
2.51338
2.51068
2.5014
2.48126
2.4298
2.3664
2.29447
1
1
1.00001
1.00002
1.00004
1.00013
1.00024
1.00077
1.00139
1.0043
1.00827
1.02287
1.05478
1.12875
1.37026
2.0001
2.38901
2.50674
2.5007
2.48842
2.46244
2.44381
2.41506
2.35873
2.29123
1
1
1.00001
1.00002
1.00003
1.0001
1.00019
1.00058
1.00107
1.00327
1.00627
1.01785
1.039
1.1007
1.25219
1.75936
2.23657
2.46465
2.47282
2.46789
2.45146
2.41873
2.38611
2.34014
2.28184
1
1
1.00001
1.00001
1.00003
1.00006
1.00018
1.00033
1.00102
1.00193
1.00549
1.01176
1.02973
1.08001
1.17585
1.52383
2.19824
2.40652
2.43821
2.42922
2.42193
2.40251
2.37312
2.33211
2.27861