/*--------------------------------*- C++ -*----------------------------------*\
| =========                 |                                                 |
| \\      /  F ield         | OpenFOAM: The Open Source CFD Toolbox           |
|  \\    /   O peration     | Version:  4.1                                   |
|   \\  /    A nd           | Web:      www.OpenFOAM.org                      |
|    \\/     M anipulation  |                                                 |
\*---------------------------------------------------------------------------*/
FoamFile
{
    version     2.0;
    format      ascii;
    class       volScalarField;
    location    "7.98";
    object      p;
}
// * * * * * * * * * * * * * * * * * * * * * * * * * * * * * * * * * * * * * //

dimensions      [1 -1 -2 0 0 0 0];

internalField   nonuniform List<scalar> 
52500
(
1.00001
1.00004
1.00013
1.00028
1.0008
1.00164
1.00468
1.00935
1.02797
1.05206
1.17917
1.33441
2.22443
3.9784
9.66278
11.4176
11.2354
11.1276
11.2061
11.4234
11.6606
11.814
11.9308
12.024
12.0974
1.00001
1.00004
1.00013
1.00027
1.00079
1.00163
1.00463
1.00925
1.02767
1.05144
1.17749
1.33007
2.21241
3.94404
9.58018
11.4119
11.2272
11.1153
11.1948
11.4132
11.6502
11.8036
11.9221
12.0168
12.0918
1.00001
1.00004
1.00012
1.00027
1.00077
1.00159
1.00452
1.00903
1.02706
1.05018
1.17392
1.32118
2.18661
3.87057
9.39633
11.399
11.2062
11.0813
11.16
11.3767
11.6103
11.7606
11.8782
11.9717
12.0458
1.00001
1.00003
1.00012
1.00026
1.00075
1.00153
1.00436
1.00869
1.02614
1.04822
1.16856
1.30781
2.1471
3.75865
9.1092
11.3846
11.1757
11.0264
11.102
11.3131
11.5406
11.685
11.7983
11.8887
11.9624
1.00001
1.00003
1.00011
1.00024
1.0007
1.00144
1.00413
1.00816
1.02494
1.04505
1.16189
1.28971
2.09469
3.60821
8.71471
11.3709
11.1365
10.9526
11.0236
11.2258
11.4442
11.58
11.687
11.7729
11.8467
1.00001
1.00003
1.0001
1.00023
1.00066
1.00135
1.00386
1.0076
1.02342
1.04185
1.15208
1.26786
2.03268
3.41604
8.21114
11.3619
11.0901
10.86
10.9245
11.1138
11.3192
11.4421
11.5375
11.6145
11.6882
1.00001
1.00003
1.0001
1.00021
1.00061
1.00125
1.00357
1.00705
1.02163
1.03875
1.1402
1.24602
1.94254
3.19175
7.58365
11.3614
11.0434
10.7518
10.8069
10.9769
11.1629
11.2656
11.3413
11.3996
11.4651
1.00001
1.00002
1.00009
1.00019
1.00056
1.00116
1.00329
1.0066
1.01955
1.03668
1.12436
1.22537
1.8308
2.93847
6.83537
11.3553
10.9976
10.6314
10.6738
10.8168
10.9748
11.0468
11.0883
11.1082
11.1456
1
1.00002
1.00008
1.00017
1.00051
1.00104
1.00296
1.00598
1.01733
1.03396
1.10737
1.20311
1.71203
2.66745
5.99178
11.292
10.9323
10.5038
10.5282
10.6316
10.7505
10.7784
10.765
10.7072
10.6494
1
1.00002
1.00007
1.00015
1.00044
1.00091
1.0026
1.00524
1.01519
1.0299
1.09302
1.17952
1.60767
2.42419
5.24824
11.0067
10.7899
10.384
10.3707
10.4217
10.4842
10.461
10.3648
10.144
9.80981
1.00001
1.00004
1.00013
1.00028
1.00081
1.00165
1.00469
1.00936
1.02798
1.05208
1.17919
1.33449
2.22451
3.97875
9.66346
11.4176
11.2355
11.1277
11.2062
11.4235
11.6607
11.8141
11.9309
12.0241
12.0975
1.00001
1.00004
1.00013
1.00028
1.0008
1.00163
1.00464
1.00926
1.02768
1.05146
1.1775
1.33015
2.21249
3.94439
9.58086
11.4119
11.2273
11.1154
11.1949
11.4134
11.6503
11.8037
11.9222
12.017
12.0919
1.00001
1.00004
1.00013
1.00027
1.00078
1.0016
1.00453
1.00904
1.02707
1.0502
1.17394
1.32126
2.18669
3.87091
9.39703
11.399
11.2063
11.0814
11.1601
11.3768
11.6105
11.7607
11.8783
11.9719
12.0459
1.00001
1.00004
1.00012
1.00026
1.00075
1.00154
1.00437
1.0087
1.02615
1.04825
1.16856
1.3079
2.14717
3.75899
9.1099
11.3846
11.1758
11.0265
11.1022
11.3132
11.5407
11.6852
11.7984
11.8888
11.9625
1.00001
1.00003
1.00012
1.00025
1.00071
1.00145
1.00414
1.00818
1.02495
1.04507
1.16191
1.28978
2.09479
3.60856
8.71545
11.3708
11.1366
10.9527
11.0237
11.2259
11.4443
11.5801
11.6871
11.7731
11.8468
1.00001
1.00003
1.00011
1.00023
1.00066
1.00135
1.00387
1.00761
1.02343
1.04187
1.15211
1.26792
2.03278
3.41639
8.21192
11.3619
11.0901
10.8601
10.9246
11.1139
11.3193
11.4422
11.5376
11.6146
11.6883
1.00001
1.00003
1.0001
1.00022
1.00062
1.00126
1.00358
1.00706
1.02164
1.03877
1.14023
1.24608
1.94265
3.1921
7.58448
11.3613
11.0434
10.7519
10.807
10.977
11.163
11.2657
11.3414
11.3997
11.4652
1.00001
1.00003
1.00009
1.0002
1.00057
1.00116
1.0033
1.00661
1.01956
1.03671
1.12437
1.22545
1.83087
2.9388
6.83617
11.3552
10.9976
10.6315
10.6739
10.8169
10.9749
11.0469
11.0884
11.1083
11.1457
1.00001
1.00003
1.00008
1.00018
1.00051
1.00105
1.00297
1.00599
1.01734
1.03398
1.10739
1.20316
1.71212
2.66775
5.99257
11.292
10.9323
10.5038
10.5282
10.6317
10.7506
10.7784
10.7651
10.7073
10.6494
1
1.00002
1.00007
1.00016
1.00045
1.00092
1.0026
1.00525
1.0152
1.02991
1.09304
1.17957
1.60773
2.4244
5.24868
11.007
10.79
10.3841
10.3707
10.4217
10.4842
10.461
10.3648
10.144
9.80987
1.00001
1.00004
1.00013
1.00028
1.00081
1.00165
1.00469
1.00936
1.02798
1.05208
1.17919
1.33449
2.22452
3.97877
9.66352
11.4176
11.2355
11.1277
11.2062
11.4235
11.6607
11.8142
11.9309
12.0241
12.0975
1.00001
1.00004
1.00013
1.00028
1.0008
1.00163
1.00464
1.00926
1.02768
1.05146
1.1775
1.33015
2.2125
3.94441
9.58092
11.4119
11.2273
11.1154
11.195
11.4134
11.6503
11.8037
11.9222
12.017
12.092
1.00001
1.00004
1.00013
1.00027
1.00078
1.0016
1.00453
1.00904
1.02707
1.05021
1.17394
1.32127
2.1867
3.87093
9.39708
11.399
11.2063
11.0814
11.1601
11.3768
11.6105
11.7607
11.8783
11.9719
12.0459
1.00001
1.00004
1.00012
1.00026
1.00075
1.00154
1.00437
1.0087
1.02615
1.04825
1.16856
1.3079
2.14717
3.75901
9.10996
11.3846
11.1758
11.0265
11.1022
11.3132
11.5407
11.6852
11.7984
11.8888
11.9625
1.00001
1.00003
1.00012
1.00025
1.00071
1.00145
1.00414
1.00818
1.02495
1.04507
1.16192
1.28978
2.09479
3.60858
8.71551
11.3708
11.1366
10.9527
11.0237
11.2259
11.4443
11.5801
11.6871
11.7731
11.8468
1.00001
1.00003
1.00011
1.00023
1.00066
1.00135
1.00387
1.00761
1.02343
1.04187
1.15211
1.26792
2.03279
3.41641
8.21198
11.3618
11.0901
10.8601
10.9246
11.1139
11.3193
11.4422
11.5376
11.6146
11.6884
1.00001
1.00003
1.0001
1.00022
1.00062
1.00126
1.00358
1.00706
1.02164
1.03877
1.14023
1.24609
1.94266
3.19212
7.58454
11.3613
11.0434
10.7519
10.807
10.977
11.163
11.2657
11.3414
11.3997
11.4652
1.00001
1.00003
1.00009
1.0002
1.00057
1.00116
1.0033
1.00661
1.01956
1.03671
1.12437
1.22545
1.83088
2.93882
6.83624
11.3552
10.9976
10.6315
10.6739
10.8169
10.9749
11.0469
11.0884
11.1083
11.1457
1.00001
1.00003
1.00008
1.00018
1.00051
1.00105
1.00297
1.00599
1.01734
1.03398
1.10739
1.20316
1.71213
2.66777
5.99263
11.292
10.9323
10.5038
10.5282
10.6317
10.7506
10.7784
10.7651
10.7073
10.6495
1
1.00002
1.00007
1.00016
1.00045
1.00092
1.0026
1.00525
1.0152
1.02991
1.09304
1.17957
1.60773
2.42441
5.24872
11.0071
10.7901
10.3841
10.3708
10.4218
10.4842
10.461
10.3648
10.144
9.80988
1.00001
1.00004
1.00013
1.00028
1.00081
1.00165
1.00469
1.00936
1.02798
1.05208
1.17919
1.3345
2.22452
3.97877
9.66353
11.4176
11.2355
11.1277
11.2062
11.4235
11.6607
11.8142
11.9309
12.0241
12.0975
1.00001
1.00004
1.00013
1.00028
1.0008
1.00163
1.00464
1.00926
1.02768
1.05146
1.1775
1.33015
2.2125
3.94441
9.58092
11.4119
11.2273
11.1154
11.195
11.4134
11.6503
11.8037
11.9222
12.017
12.092
1.00001
1.00004
1.00013
1.00027
1.00078
1.0016
1.00453
1.00904
1.02707
1.05021
1.17394
1.32127
2.1867
3.87094
9.39709
11.399
11.2063
11.0814
11.1601
11.3768
11.6105
11.7607
11.8783
11.9719
12.0459
1.00001
1.00004
1.00012
1.00026
1.00075
1.00154
1.00437
1.0087
1.02615
1.04825
1.16856
1.3079
2.14718
3.75901
9.10997
11.3846
11.1758
11.0265
11.1022
11.3132
11.5407
11.6852
11.7984
11.8888
11.9625
1.00001
1.00003
1.00012
1.00025
1.00071
1.00145
1.00414
1.00818
1.02495
1.04507
1.16192
1.28978
2.09479
3.60858
8.71552
11.3708
11.1366
10.9527
11.0237
11.2259
11.4443
11.5801
11.6871
11.7731
11.8468
1.00001
1.00003
1.00011
1.00023
1.00066
1.00135
1.00387
1.00761
1.02343
1.04187
1.15211
1.26792
2.03279
3.41642
8.21199
11.3618
11.0901
10.8601
10.9246
11.1139
11.3193
11.4422
11.5376
11.6146
11.6884
1.00001
1.00003
1.0001
1.00022
1.00062
1.00126
1.00358
1.00706
1.02164
1.03877
1.14023
1.24609
1.94266
3.19212
7.58455
11.3613
11.0434
10.7519
10.807
10.977
11.163
11.2657
11.3414
11.3997
11.4652
1.00001
1.00003
1.00009
1.0002
1.00057
1.00116
1.0033
1.00661
1.01956
1.03671
1.12437
1.22545
1.83088
2.93882
6.83625
11.3552
10.9976
10.6315
10.6739
10.8169
10.9749
11.0469
11.0884
11.1083
11.1457
1.00001
1.00003
1.00008
1.00018
1.00051
1.00105
1.00297
1.00599
1.01734
1.03398
1.10739
1.20316
1.71213
2.66777
5.99264
11.292
10.9323
10.5038
10.5282
10.6317
10.7506
10.7784
10.7651
10.7073
10.6495
1
1.00002
1.00007
1.00016
1.00045
1.00092
1.0026
1.00525
1.0152
1.02991
1.09304
1.17957
1.60773
2.42442
5.24872
11.0071
10.7901
10.3841
10.3708
10.4218
10.4842
10.461
10.3648
10.144
9.80988
1.00001
1.00004
1.00013
1.00028
1.00081
1.00165
1.00469
1.00936
1.02798
1.05208
1.17919
1.3345
2.22452
3.97877
9.66353
11.4176
11.2355
11.1277
11.2062
11.4235
11.6607
11.8142
11.9309
12.0241
12.0975
1.00001
1.00004
1.00013
1.00028
1.0008
1.00163
1.00464
1.00926
1.02768
1.05146
1.1775
1.33015
2.2125
3.94442
9.58093
11.4119
11.2273
11.1154
11.195
11.4134
11.6503
11.8037
11.9222
12.017
12.092
1.00001
1.00004
1.00013
1.00027
1.00078
1.0016
1.00453
1.00904
1.02707
1.05021
1.17394
1.32127
2.1867
3.87094
9.3971
11.399
11.2063
11.0814
11.1601
11.3768
11.6105
11.7607
11.8783
11.9719
12.0459
1.00001
1.00004
1.00012
1.00026
1.00075
1.00154
1.00437
1.0087
1.02615
1.04825
1.16856
1.3079
2.14718
3.75902
9.10997
11.3846
11.1758
11.0265
11.1022
11.3132
11.5407
11.6852
11.7984
11.8888
11.9625
1.00001
1.00003
1.00012
1.00025
1.00071
1.00145
1.00414
1.00818
1.02495
1.04507
1.16192
1.28978
2.0948
3.60859
8.71553
11.3708
11.1366
10.9527
11.0237
11.2259
11.4443
11.5801
11.6871
11.7731
11.8468
1.00001
1.00003
1.00011
1.00023
1.00066
1.00135
1.00387
1.00761
1.02343
1.04187
1.15211
1.26792
2.03279
3.41642
8.212
11.3618
11.0901
10.8601
10.9246
11.1139
11.3193
11.4422
11.5376
11.6146
11.6884
1.00001
1.00003
1.0001
1.00022
1.00062
1.00126
1.00358
1.00706
1.02164
1.03877
1.14023
1.24609
1.94266
3.19213
7.58456
11.3613
11.0434
10.7519
10.807
10.977
11.163
11.2657
11.3414
11.3997
11.4652
1.00001
1.00003
1.00009
1.0002
1.00057
1.00116
1.0033
1.00661
1.01956
1.03671
1.12437
1.22545
1.83088
2.93883
6.83626
11.3552
10.9976
10.6315
10.6739
10.8169
10.9749
11.0469
11.0884
11.1083
11.1457
1.00001
1.00003
1.00008
1.00018
1.00051
1.00105
1.00297
1.00599
1.01734
1.03398
1.10739
1.20316
1.71213
2.66777
5.99265
11.292
10.9323
10.5038
10.5282
10.6317
10.7506
10.7784
10.7651
10.7073
10.6495
1
1.00002
1.00007
1.00016
1.00045
1.00092
1.0026
1.00525
1.0152
1.02991
1.09304
1.17957
1.60774
2.42442
5.24873
11.0071
10.7901
10.3841
10.3708
10.4218
10.4842
10.461
10.3648
10.144
9.80988
1.00001
1.00004
1.00013
1.00028
1.00081
1.00165
1.00469
1.00936
1.02798
1.05208
1.17919
1.3345
2.22452
3.97877
9.66354
11.4176
11.2355
11.1277
11.2062
11.4235
11.6607
11.8142
11.9309
12.0241
12.0975
1.00001
1.00004
1.00013
1.00028
1.0008
1.00163
1.00464
1.00926
1.02768
1.05146
1.1775
1.33015
2.2125
3.94442
9.58094
11.4119
11.2273
11.1154
11.195
11.4134
11.6503
11.8037
11.9222
12.017
12.092
1.00001
1.00004
1.00013
1.00027
1.00078
1.0016
1.00453
1.00904
1.02707
1.05021
1.17394
1.32127
2.1867
3.87094
9.3971
11.399
11.2063
11.0814
11.1601
11.3768
11.6105
11.7607
11.8783
11.9719
12.0459
1.00001
1.00004
1.00012
1.00026
1.00075
1.00154
1.00437
1.0087
1.02615
1.04825
1.16856
1.3079
2.14718
3.75902
9.10998
11.3846
11.1758
11.0265
11.1022
11.3132
11.5407
11.6852
11.7984
11.8888
11.9625
1.00001
1.00003
1.00012
1.00025
1.00071
1.00145
1.00414
1.00818
1.02495
1.04507
1.16192
1.28978
2.0948
3.60859
8.71553
11.3708
11.1366
10.9527
11.0237
11.2259
11.4443
11.5801
11.6871
11.7731
11.8468
1.00001
1.00003
1.00011
1.00023
1.00066
1.00135
1.00387
1.00761
1.02343
1.04187
1.15211
1.26792
2.03279
3.41642
8.212
11.3618
11.0901
10.8601
10.9246
11.1139
11.3193
11.4422
11.5376
11.6146
11.6884
1.00001
1.00003
1.0001
1.00022
1.00062
1.00126
1.00358
1.00706
1.02164
1.03877
1.14023
1.24609
1.94266
3.19213
7.58456
11.3613
11.0434
10.7519
10.807
10.977
11.163
11.2657
11.3414
11.3997
11.4652
1.00001
1.00003
1.00009
1.0002
1.00057
1.00116
1.0033
1.00661
1.01956
1.03671
1.12437
1.22545
1.83088
2.93883
6.83626
11.3552
10.9976
10.6315
10.6739
10.8169
10.9749
11.0469
11.0884
11.1083
11.1457
1.00001
1.00003
1.00008
1.00018
1.00051
1.00105
1.00297
1.00599
1.01734
1.03398
1.10739
1.20316
1.71213
2.66777
5.99265
11.292
10.9323
10.5038
10.5282
10.6317
10.7506
10.7784
10.7651
10.7073
10.6495
1
1.00002
1.00007
1.00016
1.00045
1.00092
1.0026
1.00525
1.0152
1.02991
1.09304
1.17957
1.60774
2.42442
5.24873
11.0071
10.7901
10.3841
10.3708
10.4218
10.4842
10.461
10.3648
10.144
9.80988
1.00001
1.00004
1.00013
1.00028
1.00081
1.00165
1.00469
1.00936
1.02798
1.05208
1.17919
1.3345
2.22452
3.97877
9.66353
11.4176
11.2355
11.1277
11.2062
11.4235
11.6607
11.8142
11.9309
12.0241
12.0975
1.00001
1.00004
1.00013
1.00028
1.0008
1.00163
1.00464
1.00926
1.02768
1.05146
1.1775
1.33015
2.2125
3.94442
9.58093
11.4119
11.2273
11.1154
11.195
11.4134
11.6503
11.8037
11.9222
12.017
12.092
1.00001
1.00004
1.00013
1.00027
1.00078
1.0016
1.00453
1.00904
1.02707
1.05021
1.17394
1.32127
2.1867
3.87094
9.39709
11.399
11.2063
11.0814
11.1601
11.3768
11.6105
11.7607
11.8783
11.9719
12.0459
1.00001
1.00004
1.00012
1.00026
1.00075
1.00154
1.00437
1.0087
1.02615
1.04825
1.16856
1.3079
2.14718
3.75902
9.10997
11.3846
11.1758
11.0265
11.1022
11.3132
11.5407
11.6852
11.7984
11.8888
11.9625
1.00001
1.00003
1.00012
1.00025
1.00071
1.00145
1.00414
1.00818
1.02495
1.04507
1.16192
1.28978
2.09479
3.60859
8.71552
11.3708
11.1366
10.9527
11.0237
11.2259
11.4443
11.5801
11.6871
11.7731
11.8468
1.00001
1.00003
1.00011
1.00023
1.00066
1.00135
1.00387
1.00761
1.02343
1.04187
1.15211
1.26792
2.03279
3.41642
8.21199
11.3618
11.0901
10.8601
10.9246
11.1139
11.3193
11.4422
11.5376
11.6146
11.6884
1.00001
1.00003
1.0001
1.00022
1.00062
1.00126
1.00358
1.00706
1.02164
1.03877
1.14023
1.24609
1.94266
3.19212
7.58455
11.3613
11.0434
10.7519
10.807
10.977
11.163
11.2657
11.3414
11.3997
11.4652
1.00001
1.00003
1.00009
1.0002
1.00057
1.00116
1.0033
1.00661
1.01956
1.03671
1.12437
1.22545
1.83088
2.93883
6.83625
11.3552
10.9976
10.6315
10.6739
10.8169
10.9749
11.0469
11.0884
11.1083
11.1457
1.00001
1.00003
1.00008
1.00018
1.00051
1.00105
1.00297
1.00599
1.01734
1.03398
1.10739
1.20316
1.71213
2.66777
5.99265
11.292
10.9323
10.5038
10.5282
10.6317
10.7506
10.7784
10.7651
10.7073
10.6495
1
1.00002
1.00007
1.00016
1.00045
1.00092
1.0026
1.00525
1.0152
1.02991
1.09304
1.17957
1.60774
2.42442
5.24872
11.0071
10.7901
10.3841
10.3708
10.4218
10.4842
10.461
10.3648
10.144
9.80988
1.00001
1.00004
1.00013
1.00028
1.00081
1.00165
1.00469
1.00936
1.02798
1.05208
1.17919
1.33449
2.22452
3.97877
9.66352
11.4176
11.2355
11.1277
11.2062
11.4235
11.6607
11.8142
11.9309
12.0241
12.0975
1.00001
1.00004
1.00013
1.00028
1.0008
1.00163
1.00464
1.00926
1.02768
1.05146
1.1775
1.33015
2.2125
3.94441
9.58092
11.4119
11.2273
11.1154
11.195
11.4134
11.6503
11.8037
11.9222
12.017
12.092
1.00001
1.00004
1.00013
1.00027
1.00078
1.0016
1.00453
1.00904
1.02707
1.05021
1.17394
1.32127
2.1867
3.87093
9.39709
11.399
11.2063
11.0814
11.1601
11.3768
11.6105
11.7607
11.8783
11.9719
12.0459
1.00001
1.00004
1.00012
1.00026
1.00075
1.00154
1.00437
1.0087
1.02615
1.04825
1.16856
1.3079
2.14717
3.75901
9.10996
11.3846
11.1758
11.0265
11.1022
11.3132
11.5407
11.6852
11.7984
11.8888
11.9625
1.00001
1.00003
1.00012
1.00025
1.00071
1.00145
1.00414
1.00818
1.02495
1.04507
1.16192
1.28978
2.09479
3.60858
8.71551
11.3708
11.1366
10.9527
11.0237
11.2259
11.4443
11.5801
11.6871
11.7731
11.8468
1.00001
1.00003
1.00011
1.00023
1.00066
1.00135
1.00387
1.00761
1.02343
1.04187
1.15211
1.26792
2.03279
3.41642
8.21198
11.3618
11.0901
10.8601
10.9246
11.1139
11.3193
11.4422
11.5376
11.6146
11.6884
1.00001
1.00003
1.0001
1.00022
1.00062
1.00126
1.00358
1.00706
1.02164
1.03877
1.14023
1.24609
1.94266
3.19212
7.58454
11.3613
11.0434
10.7519
10.807
10.977
11.163
11.2657
11.3414
11.3997
11.4652
1.00001
1.00003
1.00009
1.0002
1.00057
1.00116
1.0033
1.00661
1.01956
1.03671
1.12437
1.22545
1.83088
2.93882
6.83624
11.3552
10.9976
10.6315
10.6739
10.8169
10.9749
11.0469
11.0884
11.1083
11.1457
1.00001
1.00003
1.00008
1.00018
1.00051
1.00105
1.00297
1.00599
1.01734
1.03398
1.10739
1.20316
1.71213
2.66777
5.99263
11.292
10.9323
10.5038
10.5282
10.6317
10.7506
10.7784
10.7651
10.7073
10.6495
1
1.00002
1.00007
1.00016
1.00045
1.00092
1.0026
1.00525
1.0152
1.02991
1.09304
1.17957
1.60773
2.42441
5.24872
11.0071
10.7901
10.3841
10.3708
10.4218
10.4842
10.461
10.3648
10.144
9.80988
1.00001
1.00004
1.00013
1.00028
1.00081
1.00165
1.00469
1.00936
1.02798
1.05208
1.17919
1.33449
2.22451
3.97874
9.66346
11.4176
11.2355
11.1277
11.2062
11.4235
11.6607
11.8141
11.9309
12.0241
12.0975
1.00001
1.00004
1.00013
1.00028
1.0008
1.00163
1.00464
1.00926
1.02768
1.05146
1.1775
1.33015
2.21249
3.94439
9.58086
11.4119
11.2273
11.1154
11.1949
11.4134
11.6503
11.8037
11.9222
12.017
12.0919
1.00001
1.00004
1.00013
1.00027
1.00078
1.0016
1.00453
1.00904
1.02707
1.0502
1.17394
1.32126
2.18669
3.87091
9.39703
11.399
11.2063
11.0814
11.1601
11.3768
11.6105
11.7607
11.8783
11.9719
12.0459
1.00001
1.00004
1.00012
1.00026
1.00075
1.00154
1.00437
1.0087
1.02615
1.04825
1.16856
1.3079
2.14717
3.75899
9.1099
11.3846
11.1758
11.0265
11.1022
11.3132
11.5407
11.6852
11.7984
11.8888
11.9625
1.00001
1.00003
1.00012
1.00025
1.00071
1.00145
1.00414
1.00818
1.02495
1.04507
1.16191
1.28978
2.09479
3.60856
8.71545
11.3708
11.1366
10.9527
11.0237
11.2259
11.4443
11.5801
11.6871
11.7731
11.8468
1.00001
1.00003
1.00011
1.00023
1.00066
1.00135
1.00387
1.00761
1.02343
1.04187
1.15211
1.26792
2.03278
3.41639
8.21192
11.3619
11.0901
10.8601
10.9246
11.1139
11.3193
11.4422
11.5376
11.6146
11.6883
1.00001
1.00003
1.0001
1.00022
1.00062
1.00126
1.00358
1.00706
1.02164
1.03877
1.14023
1.24608
1.94265
3.1921
7.58448
11.3613
11.0434
10.7519
10.807
10.977
11.163
11.2657
11.3414
11.3997
11.4652
1.00001
1.00003
1.00009
1.0002
1.00057
1.00116
1.0033
1.00661
1.01956
1.03671
1.12437
1.22545
1.83087
2.9388
6.83617
11.3552
10.9976
10.6315
10.6739
10.8169
10.9749
11.0469
11.0884
11.1083
11.1457
1.00001
1.00003
1.00008
1.00018
1.00051
1.00105
1.00297
1.00599
1.01734
1.03398
1.10739
1.20316
1.71212
2.66774
5.99257
11.292
10.9323
10.5038
10.5282
10.6317
10.7506
10.7784
10.7651
10.7073
10.6494
1
1.00002
1.00007
1.00016
1.00045
1.00092
1.0026
1.00525
1.0152
1.02991
1.09304
1.17957
1.60773
2.4244
5.24868
11.007
10.79
10.3841
10.3707
10.4217
10.4842
10.461
10.3648
10.144
9.80987
1.00001
1.00004
1.00013
1.00028
1.0008
1.00164
1.00468
1.00935
1.02797
1.05206
1.17917
1.33441
2.22443
3.9784
9.66278
11.4176
11.2354
11.1276
11.2061
11.4234
11.6606
11.814
11.9308
12.024
12.0974
1.00001
1.00004
1.00013
1.00027
1.00079
1.00163
1.00463
1.00925
1.02767
1.05144
1.17749
1.33007
2.21241
3.94404
9.58017
11.4119
11.2272
11.1153
11.1948
11.4132
11.6502
11.8036
11.9221
12.0168
12.0918
1.00001
1.00004
1.00012
1.00027
1.00077
1.00159
1.00452
1.00903
1.02706
1.05018
1.17392
1.32118
2.18661
3.87056
9.39632
11.399
11.2062
11.0813
11.16
11.3767
11.6103
11.7606
11.8782
11.9717
12.0458
1.00001
1.00003
1.00012
1.00026
1.00075
1.00153
1.00436
1.00869
1.02614
1.04822
1.16856
1.30781
2.1471
3.75865
9.10919
11.3846
11.1757
11.0264
11.102
11.313
11.5406
11.685
11.7983
11.8887
11.9624
1.00001
1.00003
1.00011
1.00024
1.0007
1.00144
1.00413
1.00816
1.02494
1.04505
1.16189
1.28971
2.09469
3.6082
8.71471
11.3709
11.1365
10.9526
11.0236
11.2258
11.4442
11.58
11.687
11.7729
11.8467
1.00001
1.00003
1.0001
1.00023
1.00066
1.00135
1.00386
1.0076
1.02342
1.04185
1.15208
1.26786
2.03268
3.41603
8.21114
11.3619
11.0901
10.86
10.9245
11.1138
11.3192
11.4421
11.5375
11.6145
11.6882
1.00001
1.00003
1.0001
1.00021
1.00061
1.00125
1.00357
1.00705
1.02163
1.03875
1.1402
1.24602
1.94254
3.19175
7.58365
11.3614
11.0434
10.7518
10.8069
10.9769
11.1629
11.2656
11.3413
11.3996
11.4651
1.00001
1.00002
1.00009
1.00019
1.00056
1.00116
1.00329
1.0066
1.01955
1.03668
1.12436
1.22537
1.8308
2.93847
6.83536
11.3553
10.9976
10.6314
10.6738
10.8168
10.9748
11.0468
11.0883
11.1082
11.1456
1
1.00002
1.00008
1.00017
1.00051
1.00104
1.00296
1.00598
1.01733
1.03396
1.10737
1.20311
1.71203
2.66745
5.99177
11.292
10.9323
10.5038
10.5282
10.6316
10.7505
10.7784
10.765
10.7072
10.6494
1
1.00002
1.00007
1.00015
1.00044
1.00091
1.0026
1.00524
1.01519
1.0299
1.09302
1.17952
1.60767
2.42419
5.24824
11.0067
10.7899
10.384
10.3707
10.4217
10.4842
10.461
10.3648
10.144
9.8098
1
1.00002
1.00005
1.00015
1.00032
1.00092
1.00188
1.00539
1.01056
1.03277
1.05858
1.21044
1.39837
2.40792
4.51489
10.3614
10.5126
10.3166
10.1904
10.1965
10.1864
10.1004
9.85121
9.27897
7.84896
1
1.00002
1.00004
1.00014
1.00029
1.00082
1.00167
1.00475
1.00951
1.02821
1.05308
1.17912
1.3401
2.21659
3.95117
9.30712
10.3379
10.2119
10.0104
9.95901
9.88647
9.71254
9.32904
8.56531
7.12305
1
1.00001
1.00004
1.00011
1.00024
1.00069
1.00141
1.00401
1.00793
1.02414
1.04358
1.15583
1.27771
2.04381
3.45482
8.11749
10.2142
10.101
9.8468
9.71785
9.59417
9.34456
8.87909
8.11956
6.99006
1
1.00001
1.00003
1.0001
1.0002
1.00058
1.00118
1.00336
1.00663
1.02023
1.03629
1.13014
1.22769
1.86121
2.98062
6.83112
10.1181
9.99658
9.69886
9.48659
9.31165
9.02276
8.54962
7.8612
6.9758
1
1.00001
1.00002
1.00008
1.00017
1.00048
1.00099
1.00281
1.00568
1.01645
1.03231
1.10107
1.19449
1.6623
2.54463
5.50052
9.92733
9.85967
9.58901
9.28224
9.05718
8.75551
8.30562
7.69106
6.95115
1
1.00001
1.00002
1.00005
1.00016
1.00032
1.00092
1.00186
1.00533
1.01043
1.03225
1.05778
1.20478
1.39265
2.33571
4.30966
9.38573
9.65721
9.47444
9.10979
8.84016
8.53083
8.11218
7.56345
6.91781
1
1
1.00002
1.00004
1.00013
1.00026
1.00075
1.00153
1.00434
1.0087
1.02571
1.04825
1.16297
1.30249
2.08815
3.5765
8.13529
9.39041
9.27367
8.97951
8.658
8.33867
7.94668
7.45498
6.88485
1
1
1.00001
1.00003
1.00009
1.0002
1.00057
1.00117
1.00333
1.00653
1.02019
1.03582
1.12964
1.22701
1.85735
2.95535
6.62013
9.17779
9.11421
8.88372
8.51495
8.18162
7.80745
7.3615
6.84936
0.999998
1
1.00001
1.00003
1.00006
1.00017
1.00036
1.00103
1.00202
1.00621
1.01094
1.03918
1.0644
1.2436
1.4842
2.55203
4.94649
8.8806
8.9876
8.81503
8.43273
8.0552
7.6901
7.28058
6.81667
0.999997
0.999998
1
1.00002
1.00004
1.00014
1.00028
1.00081
1.00165
1.0047
1.00932
1.02815
1.05157
1.17866
1.33272
2.16701
3.74984
8.1367
8.82436
8.69
8.36031
7.94967
7.5877
7.20755
6.78736
0.999995
0.999996
1
1.00001
1.00004
1.00008
1.00024
1.00049
1.00141
1.00275
1.00856
1.01487
1.0542
1.08897
1.34259
1.68987
3.22196
6.55398
8.55562
8.50489
8.29102
7.87155
7.50463
7.1469
6.76394
0.999994
0.999995
0.999998
1
1.00003
1.00006
1.00018
1.00038
1.00109
1.0022
1.0063
1.01223
1.03838
1.06744
1.24332
1.47345
2.54443
4.82412
8.17662
8.35551
8.21189
7.8631
7.45833
7.10206
6.74593
0.999993
0.999994
0.999995
1
1.00001
1.00005
1.00011
1.00033
1.00068
1.00193
1.0039
1.01118
1.02215
1.06639
1.13237
1.41078
1.94459
3.63082
7.2934
8.18471
8.09608
7.84154
7.44231
7.07588
6.73625
0.999992
0.999993
0.999994
0.999999
1.00001
1.00003
1.00008
1.00024
1.00049
1.00137
1.00278
1.00792
1.01537
1.04805
1.08534
1.30223
1.61328
2.91632
5.72036
7.9422
7.93634
7.79405
7.45618
7.07596
6.73798
0.999992
0.999992
0.999993
0.999996
1
1.00002
1.00006
1.00014
1.0004
1.00083
1.00232
1.00468
1.01334
1.02634
1.07891
1.15655
1.48486
2.10968
3.93809
7.44501
7.85038
7.74517
7.47511
7.08606
6.74837
0.999991
0.999992
0.999993
0.999994
1
1.00001
1.00004
1.0001
1.00028
1.00058
1.00162
1.00329
1.00929
1.01834
1.05527
1.10354
1.34045
1.74306
3.15235
6.25954
7.65708
7.62984
7.46772
7.12038
6.77849
0.999991
0.999991
0.999992
0.999993
0.999996
1.00001
1.00002
1.00008
1.00016
1.00047
1.00096
1.00268
1.00541
1.01546
1.03006
1.09308
1.17732
1.58001
2.31429
4.5272
7.24663
7.51793
7.43011
7.19369
6.84853
0.999991
0.999991
0.999991
0.999992
0.999994
1
1.00001
1.00005
1.00011
1.00032
1.00066
1.00184
1.00373
1.0105
1.02103
1.06073
1.12441
1.36791
1.83274
3.27527
6.30793
7.35964
7.34267
7.23231
6.98905
0.999991
0.999991
0.999991
0.999992
0.999993
0.999996
1.00001
1.00002
1.00008
1.00018
1.00051
1.00104
1.00291
1.00586
1.01678
1.03215
1.10166
1.18974
1.6311
2.40724
4.74468
7.02031
7.31129
7.27611
7.17202
0.999991
0.999991
0.999991
0.999991
0.999992
0.999995
1
1.00002
1.00004
1.00013
1.00028
1.0008
1.00162
1.00452
1.00896
1.02637
1.04861
1.16042
1.30314
1.96938
3.20575
6.28122
7.23152
7.37828
7.4132
0.999991
0.999991
0.999991
0.999991
0.999991
0.999993
0.999997
1.00001
1.00003
1.00009
1.00019
1.00053
1.00109
1.00302
1.0061
1.01724
1.0338
1.10331
1.19523
1.64246
2.42056
4.7394
6.97384
7.573
7.79912
0.999991
0.99999
0.99999
0.999991
0.999991
0.999992
0.999995
1
1.00002
1.00004
1.00014
1.00029
1.00082
1.00167
1.00464
1.00927
1.02679
1.05067
1.1607
1.31502
1.97596
3.22755
6.34057
7.80738
8.47204
0.999991
0.99999
0.99999
0.99999
0.999991
0.999991
0.999994
0.999997
1.00001
1.00003
1.00009
1.0002
1.00056
1.00114
1.00316
1.00637
1.01795
1.03516
1.10766
1.2018
1.67176
2.48669
4.9299
7.83631
9.47969
0.999991
0.99999
0.99999
0.99999
0.999991
0.999991
0.999992
0.999995
1
1.00002
1.00006
1.00013
1.00039
1.00079
1.00221
1.00447
1.01255
1.02497
1.07316
1.14706
1.44791
2.0217
3.80673
7.66338
10.739
0.999991
0.99999
0.99999
0.99999
0.999991
0.999991
0.999992
0.999994
0.999999
1.00001
1.00004
1.0001
1.00028
1.00058
1.00162
1.00325
1.00942
1.0177
1.0581
1.10112
1.36795
1.76889
3.41082
7.16126
11.8562
0.999991
0.99999
0.99999
0.99999
0.99999
0.999991
0.999991
0.999993
0.999996
1.00001
1.00003
1.00009
1.00019
1.00056
1.00114
1.00324
1.00645
1.01935
1.0357
1.12284
1.22379
1.81065
2.90489
6.61008
12.6051
0.999991
0.99999
0.99999
0.99999
0.99999
0.999991
0.999991
0.999992
0.999996
1
1.00002
1.00006
1.00018
1.00038
1.00112
1.00215
1.00692
1.01186
1.04424
1.07247
1.28333
1.57587
2.90157
6.16511
12.8828
0.999991
0.99999
0.99999
0.99999
0.99999
0.999991
0.999991
0.999993
0.999995
1
1.00002
1.00007
1.00016
1.00047
1.00096
1.00276
1.00558
1.01653
1.03182
1.10476
1.19677
1.70248
2.66496
6.09375
12.7589
0.999991
0.99999
0.99999
0.99999
0.99999
0.999991
0.999991
0.999992
0.999995
1
1.00002
1.00007
1.00015
1.00044
1.0009
1.00261
1.00527
1.01569
1.03021
1.10003
1.18743
1.67477
2.60076
5.95317
12.5928
0.999991
0.99999
0.99999
0.99999
0.99999
0.999991
0.999991
0.999992
0.999995
1
1.00002
1.00005
1.00016
1.00032
1.00096
1.00184
1.00602
1.01029
1.03903
1.06344
1.25137
1.50109
2.688
5.64137
12.4319
0.999991
0.99999
0.99999
0.99999
0.99999
0.999991
0.999991
0.999992
0.999994
1
1.00001
1.00006
1.00013
1.00039
1.00081
1.00238
1.00466
1.01488
1.02631
1.09722
1.17119
1.64216
2.50038
5.63448
12.2418
0.999991
0.99999
0.99999
0.99999
0.99999
0.99999
0.999991
0.999992
0.999995
1
1.00002
1.00005
1.00016
1.00033
1.00095
1.00194
1.00573
1.01094
1.03627
1.06262
1.23831
1.46448
2.61703
5.31266
12.0754
0.999991
0.99999
0.99999
0.99999
0.99999
0.99999
0.999991
0.999992
0.999995
1
1.00002
1.00005
1.00015
1.00032
1.00094
1.00191
1.0056
1.01088
1.03521
1.06168
1.23186
1.44889
2.57878
5.15464
11.8707
0.999991
0.99999
0.99999
0.99999
0.99999
0.999991
0.999991
0.999992
0.999994
1
1.00001
1.00005
1.00012
1.00037
1.00076
1.00225
1.00439
1.01409
1.02494
1.09201
1.16189
1.60163
2.39827
5.28723
11.6862
0.999991
0.99999
0.99999
0.99999
0.99999
0.99999
0.999991
0.999992
0.999995
1
1.00002
1.00004
1.00014
1.0003
1.00089
1.00178
1.00548
1.00989
1.03504
1.05853
1.22543
1.43137
2.52747
4.96305
11.5103
0.999991
0.99999
0.99999
0.99999
0.99999
0.999991
0.999991
0.999992
0.999994
1
1.00001
1.00005
1.00012
1.00037
1.00075
1.00222
1.00434
1.01382
1.02446
1.08984
1.1576
1.58481
2.35358
5.14101
11.4028
0.999991
0.99999
0.99999
0.99999
0.99999
0.99999
0.999991
0.999992
0.999995
1
1.00002
1.00005
1.00015
1.00031
1.00091
1.00186
1.00543
1.01059
1.0338
1.05972
1.2211
1.42217
2.50007
4.84335
11.2974
0.999991
0.99999
0.99999
0.99999
0.99999
0.99999
0.999991
0.999992
0.999995
1
1.00002
1.00005
1.00015
1.00032
1.00092
1.00187
1.00544
1.01058
1.03386
1.05945
1.22119
1.42069
2.49511
4.81927
11.238
0.999991
0.99999
0.99999
0.99999
0.99999
0.999991
0.999991
0.999992
0.999994
1
1.00001
1.00006
1.00013
1.00038
1.00079
1.00227
1.00455
1.01366
1.02532
1.08704
1.15543
1.56794
2.30709
5.02898
11.1601
0.999991
0.99999
0.99999
0.99999
0.99999
0.999991
0.999991
0.999992
0.999994
1
1.00002
1.00006
1.00013
1.0004
1.00082
1.00234
1.00473
1.01375
1.02701
1.08526
1.15976
1.5615
2.30121
5.01706
11.1261
1
1.00002
1.00005
1.00016
1.00033
1.00093
1.00189
1.0054
1.01057
1.03278
1.0586
1.21047
1.39845
2.40803
4.51541
10.362
10.5127
10.3166
10.1905
10.1966
10.1865
10.1004
9.85127
9.27903
7.849
1
1.00002
1.00005
1.00014
1.00029
1.00083
1.00168
1.00476
1.00952
1.02822
1.05311
1.17914
1.34019
2.21669
3.95158
9.30786
10.3379
10.2119
10.0104
9.95907
9.88653
9.7126
9.3291
8.56536
7.12309
1
1.00002
1.00004
1.00012
1.00025
1.0007
1.00142
1.00402
1.00794
1.02416
1.0436
1.15586
1.27778
2.04391
3.45519
8.11828
10.2142
10.1009
9.84683
9.7179
9.59422
9.34461
8.87914
8.11961
6.9901
1
1.00001
1.00003
1.0001
1.00021
1.00058
1.00119
1.00337
1.00664
1.02024
1.03631
1.13017
1.22775
1.86133
2.98096
6.83193
10.1181
9.99655
9.69888
9.48663
9.3117
9.0228
8.54966
7.86124
6.97583
1
1.00001
1.00003
1.00008
1.00017
1.00049
1.001
1.00282
1.00569
1.01646
1.03233
1.10109
1.19455
1.66241
2.54494
5.50137
9.92738
9.85968
9.58901
9.28228
9.05722
8.75555
8.30566
7.6911
6.95118
1
1.00001
1.00003
1.00006
1.00016
1.00033
1.00092
1.00187
1.00533
1.01044
1.03226
1.0578
1.20481
1.39275
2.33582
4.3102
9.3861
9.65729
9.4745
9.10981
8.8402
8.53086
8.11221
7.56348
6.91783
1
1.00001
1.00002
1.00005
1.00013
1.00027
1.00076
1.00154
1.00435
1.00871
1.02573
1.04827
1.16299
1.30258
2.08826
3.57692
8.13612
9.39052
9.27374
8.97952
8.65802
8.3387
7.9467
7.45501
6.88488
1
1
1.00002
1.00004
1.0001
1.00021
1.00058
1.00117
1.00334
1.00654
1.02021
1.03585
1.12967
1.22707
1.85747
2.95571
6.62092
9.1778
9.11421
8.8837
8.51496
8.18164
7.80747
7.36152
6.84938
1
1
1.00001
1.00003
1.00006
1.00018
1.00037
1.00104
1.00203
1.00622
1.01096
1.0392