/*--------------------------------*- C++ -*----------------------------------*\
| =========                 |                                                 |
| \\      /  F ield         | OpenFOAM: The Open Source CFD Toolbox           |
|  \\    /   O peration     | Version:  4.1                                   |
|   \\  /    A nd           | Web:      www.OpenFOAM.org                      |
|    \\/     M anipulation  |                                                 |
\*---------------------------------------------------------------------------*/
FoamFile
{
    version     2.0;
    format      ascii;
    class       volScalarField;
    location    "3.06";
    object      Ma;
}
// * * * * * * * * * * * * * * * * * * * * * * * * * * * * * * * * * * * * * //

dimensions      [0 0 0 0 0 0 0];

internalField   nonuniform List<scalar> 
52500
(
3.00002
2.99997
2.99992
2.99969
2.99938
2.99811
2.99628
2.98929
2.97761
2.93974
2.85344
2.65364
2.12279
1.29223
0.535765
0.26964
0.326581
0.344004
0.311279
0.256445
0.204025
0.162243
0.121694
0.0766447
0.0427935
3.00002
2.99997
2.99992
2.9997
2.99939
2.99813
2.99633
2.98943
2.97793
2.94053
2.85559
2.65821
2.13468
1.30736
0.543771
0.270363
0.328514
0.346654
0.314142
0.260098
0.20895
0.168624
0.130217
0.0902719
0.0656304
3.00002
2.99997
2.99992
2.99971
2.99941
2.99818
2.99643
2.9897
2.97859
2.94214
2.86009
2.66776
2.16052
1.34131
0.562569
0.274409
0.334658
0.354529
0.322868
0.270907
0.222667
0.185752
0.152145
0.120369
0.103729
3.00002
2.99998
2.99993
2.99972
2.99943
2.99825
2.99657
2.99006
2.97954
2.94437
2.86723
2.68225
2.20113
1.39538
0.592316
0.282936
0.345598
0.368086
0.337764
0.28869
0.244021
0.211219
0.182944
0.157981
0.145777
3.00002
2.99998
2.99993
2.99973
2.99946
2.99833
2.99674
2.99038
2.98071
2.9467
2.87769
2.70139
2.25726
1.47141
0.633997
0.299479
0.362998
0.388138
0.359174
0.313323
0.272096
0.243206
0.219592
0.199852
0.190699
3.00002
2.99998
2.99994
2.99975
2.99949
2.99844
2.99696
2.99104
2.98211
2.95013
2.88904
2.72379
2.32226
1.56665
0.686786
0.327272
0.388659
0.414943
0.387252
0.344632
0.306873
0.281655
0.262508
0.247503
0.241206
3.00002
2.99998
2.99994
2.99977
2.99954
2.99857
2.99721
2.99178
2.98361
2.95411
2.8997
2.7457
2.38943
1.66552
0.747734
0.366272
0.421834
0.446405
0.420673
0.38216
0.347983
0.326731
0.312103
0.302404
0.301406
3.00002
2.99999
2.99995
2.9998
2.99958
2.99871
2.99747
2.99253
2.98514
2.95821
2.90894
2.76854
2.43992
1.75722
0.80536
0.404012
0.448642
0.469708
0.451321
0.42117
0.393307
0.377695
0.369756
0.368031
0.377027
3.00002
2.99999
2.99996
2.99982
2.99963
2.99886
2.99777
2.99338
2.98681
2.96334
2.91761
2.79536
2.48305
1.87148
0.888358
0.463674
0.470317
0.483443
0.479055
0.459411
0.440905
0.433056
0.434237
0.446977
0.480922
3.00002
3
2.99997
2.99986
2.9997
2.99906
2.99811
2.9947
2.98854
2.96984
2.92577
2.82175
2.52772
1.98013
1.00244
0.537478
0.487084
0.500159
0.506137
0.49671
0.489736
0.492055
0.509296
0.552147
0.653049
3
2.99995
2.9999
2.99967
2.99936
2.99809
2.99626
2.98927
2.97759
2.93971
2.8534
2.65358
2.12272
1.29209
0.535628
0.269425
0.326388
0.343813
0.311066
0.256186
0.203697
0.161826
0.121131
0.0757358
0.0411197
3
2.99996
2.9999
2.99968
2.99937
2.99811
2.99631
2.9894
2.97791
2.94049
2.85556
2.65814
2.1346
1.30722
0.543637
0.270149
0.328323
0.346466
0.313932
0.259844
0.208632
0.168226
0.129696
0.089511
0.0645663
3
2.99996
2.9999
2.99969
2.99939
2.99816
2.99641
2.98968
2.97856
2.94211
2.86006
2.6677
2.16045
1.34117
0.562438
0.274191
0.334466
0.354342
0.322662
0.270662
0.222369
0.185393
0.151703
0.119805
0.103067
3
2.99996
2.99991
2.9997
2.99941
2.99823
2.99655
2.99003
2.97951
2.94433
2.86722
2.68219
2.20111
1.39528
0.592216
0.282747
0.345429
0.367921
0.33758
0.288472
0.243757
0.210909
0.182582
0.157558
0.145312
3
2.99996
2.99991
2.99971
2.99944
2.99831
2.99672
2.99036
2.98069
2.94666
2.87767
2.70134
2.25723
1.47131
0.633904
0.2993
0.362842
0.387991
0.359012
0.313133
0.271869
0.242945
0.219296
0.199522
0.190349
3
2.99996
2.99992
2.99973
2.99947
2.99842
2.99694
2.99102
2.98209
2.9501
2.88901
2.72374
2.32222
1.56655
0.686691
0.327094
0.38851
0.414805
0.387105
0.344464
0.306679
0.281437
0.262268
0.247243
0.240934
3
2.99997
2.99993
2.99976
2.99952
2.99855
2.99719
2.99175
2.98359
2.95408
2.89968
2.74565
2.38939
1.66544
0.747646
0.366109
0.421698
0.446281
0.420541
0.382013
0.347817
0.326549
0.311908
0.302198
0.301194
3
2.99997
2.99993
2.99978
2.99956
2.99869
2.99745
2.9925
2.98511
2.95818
2.90891
2.76849
2.43988
1.75714
0.805268
0.403855
0.448516
0.469593
0.4512
0.42104
0.393165
0.377543
0.369598
0.367868
0.376864
3
2.99998
2.99994
2.9998
2.99961
2.99884
2.99774
2.99335
2.98679
2.9633
2.91759
2.79531
2.48305
1.8714
0.888281
0.463539
0.470206
0.483333
0.478943
0.459293
0.440782
0.43293
0.434108
0.44685
0.480802
3
2.99998
2.99995
2.99984
2.99968
2.99904
2.99809
2.99468
2.98852
2.96981
2.92575
2.8217
2.52769
1.98005
1.00237
0.537356
0.486977
0.500055
0.506033
0.496604
0.489628
0.491948
0.509193
0.552052
0.652969
3
2.99995
2.9999
2.99967
2.99936
2.99809
2.99626
2.98927
2.97759
2.93971
2.8534
2.65357
2.12271
1.29209
0.535627
0.269426
0.326389
0.343813
0.311066
0.256186
0.203697
0.161826
0.121131
0.0757359
0.0411198
3
2.99996
2.9999
2.99968
2.99937
2.99811
2.99631
2.9894
2.97791
2.94049
2.85555
2.65814
2.1346
1.30722
0.543635
0.27015
0.328323
0.346466
0.313932
0.259844
0.208632
0.168227
0.129696
0.089511
0.0645664
3
2.99996
2.9999
2.99969
2.99939
2.99816
2.99641
2.98968
2.97856
2.94211
2.86006
2.6677
2.16045
1.34117
0.562436
0.274192
0.334466
0.354342
0.322662
0.270662
0.222369
0.185393
0.151703
0.119805
0.103067
3
2.99996
2.99991
2.9997
2.99941
2.99823
2.99655
2.99003
2.97951
2.94433
2.86722
2.68219
2.20111
1.39527
0.592214
0.282748
0.345429
0.367921
0.33758
0.288471
0.243757
0.210909
0.182582
0.157558
0.145312
3
2.99996
2.99991
2.99971
2.99944
2.99831
2.99672
2.99036
2.98069
2.94666
2.87767
2.70134
2.25723
1.47131
0.633902
0.2993
0.362842
0.38799
0.359012
0.313133
0.271869
0.242945
0.219296
0.199522
0.19035
3
2.99996
2.99992
2.99973
2.99947
2.99842
2.99694
2.99102
2.98209
2.9501
2.88901
2.72374
2.32221
1.56655
0.686689
0.327094
0.388509
0.414805
0.387104
0.344463
0.306679
0.281437
0.262268
0.247243
0.240934
3
2.99997
2.99993
2.99976
2.99952
2.99855
2.99719
2.99175
2.98359
2.95408
2.89967
2.74565
2.38939
1.66543
0.747644
0.366109
0.421698
0.446281
0.420541
0.382012
0.347817
0.326549
0.311907
0.302198
0.301194
3
2.99997
2.99993
2.99978
2.99956
2.99869
2.99745
2.9925
2.98511
2.95818
2.90891
2.76849
2.43988
1.75714
0.805266
0.403854
0.448515
0.469593
0.4512
0.42104
0.393165
0.377543
0.369598
0.367868
0.376864
3
2.99998
2.99994
2.9998
2.99961
2.99884
2.99774
2.99335
2.98679
2.9633
2.91759
2.79531
2.48305
1.8714
0.888279
0.463538
0.470207
0.483333
0.478943
0.459293
0.440782
0.43293
0.434108
0.44685
0.480802
3
2.99998
2.99995
2.99984
2.99968
2.99904
2.99809
2.99468
2.98852
2.96981
2.92575
2.8217
2.52769
1.98005
1.00236
0.537355
0.486977
0.500055
0.506033
0.496604
0.489628
0.491948
0.509193
0.552052
0.652969
3
2.99995
2.9999
2.99967
2.99936
2.99809
2.99626
2.98927
2.97759
2.93971
2.8534
2.65357
2.12271
1.29209
0.535627
0.269426
0.326389
0.343813
0.311066
0.256186
0.203697
0.161826
0.121131
0.0757359
0.0411198
3
2.99996
2.9999
2.99968
2.99937
2.99811
2.99631
2.9894
2.97791
2.94049
2.85555
2.65814
2.1346
1.30722
0.543635
0.27015
0.328323
0.346466
0.313932
0.259844
0.208632
0.168227
0.129696
0.089511
0.0645664
3
2.99996
2.9999
2.99969
2.99939
2.99816
2.99641
2.98968
2.97856
2.94211
2.86006
2.6677
2.16045
1.34117
0.562436
0.274192
0.334466
0.354342
0.322661
0.270662
0.222369
0.185393
0.151703
0.119805
0.103067
3
2.99996
2.99991
2.9997
2.99941
2.99823
2.99655
2.99003
2.97951
2.94433
2.86722
2.68219
2.20111
1.39527
0.592214
0.282748
0.345429
0.367921
0.33758
0.288471
0.243757
0.210909
0.182582
0.157558
0.145312
3
2.99996
2.99991
2.99971
2.99944
2.99831
2.99672
2.99036
2.98069
2.94666
2.87767
2.70134
2.25723
1.47131
0.633902
0.2993
0.362842
0.38799
0.359012
0.313133
0.271869
0.242945
0.219296
0.199522
0.19035
3
2.99996
2.99992
2.99973
2.99947
2.99842
2.99694
2.99102
2.98209
2.9501
2.88901
2.72374
2.32221
1.56655
0.686689
0.327094
0.388509
0.414805
0.387104
0.344463
0.306679
0.281437
0.262268
0.247243
0.240934
3
2.99997
2.99993
2.99976
2.99952
2.99855
2.99719
2.99175
2.98359
2.95408
2.89967
2.74565
2.38939
1.66543
0.747644
0.366109
0.421698
0.446281
0.420541
0.382012
0.347817
0.326549
0.311907
0.302198
0.301194
3
2.99997
2.99993
2.99978
2.99956
2.99869
2.99745
2.9925
2.98511
2.95818
2.90891
2.76849
2.43988
1.75714
0.805266
0.403854
0.448515
0.469593
0.4512
0.42104
0.393165
0.377543
0.369598
0.367868
0.376864
3
2.99998
2.99994
2.9998
2.99961
2.99884
2.99774
2.99335
2.98679
2.9633
2.91759
2.79531
2.48305
1.8714
0.888279
0.463538
0.470207
0.483334
0.478943
0.459293
0.440782
0.43293
0.434108
0.44685
0.480802
3
2.99998
2.99995
2.99984
2.99968
2.99904
2.99809
2.99468
2.98852
2.96981
2.92575
2.8217
2.52769
1.98005
1.00236
0.537355
0.486977
0.500055
0.506033
0.496604
0.489628
0.491948
0.509193
0.552052
0.652969
3
2.99995
2.9999
2.99967
2.99936
2.99809
2.99626
2.98927
2.97759
2.93971
2.8534
2.65357
2.12271
1.29209
0.535627
0.269426
0.326389
0.343813
0.311066
0.256186
0.203697
0.161826
0.121131
0.0757359
0.0411198
3
2.99996
2.9999
2.99968
2.99937
2.99811
2.99631
2.9894
2.97791
2.94049
2.85555
2.65814
2.1346
1.30722
0.543635
0.27015
0.328323
0.346466
0.313932
0.259844
0.208632
0.168227
0.129696
0.089511
0.0645664
3
2.99996
2.9999
2.99969
2.99939
2.99816
2.99641
2.98968
2.97856
2.94211
2.86006
2.6677
2.16045
1.34117
0.562436
0.274192
0.334466
0.354342
0.322661
0.270662
0.222369
0.185393
0.151703
0.119805
0.103067
3
2.99996
2.99991
2.9997
2.99941
2.99823
2.99655
2.99003
2.97951
2.94433
2.86722
2.68219
2.20111
1.39527
0.592214
0.282748
0.345429
0.367921
0.33758
0.288471
0.243757
0.210909
0.182582
0.157558
0.145312
3
2.99996
2.99991
2.99971
2.99944
2.99831
2.99672
2.99036
2.98069
2.94666
2.87767
2.70134
2.25723
1.47131
0.633902
0.2993
0.362842
0.38799
0.359012
0.313133
0.271869
0.242945
0.219296
0.199522
0.19035
3
2.99996
2.99992
2.99973
2.99947
2.99842
2.99694
2.99102
2.98209
2.9501
2.88901
2.72374
2.32221
1.56655
0.686689
0.327094
0.388509
0.414805
0.387104
0.344463
0.306679
0.281437
0.262268
0.247243
0.240934
3
2.99997
2.99993
2.99976
2.99952
2.99855
2.99719
2.99175
2.98359
2.95408
2.89967
2.74565
2.38939
1.66543
0.747644
0.366109
0.421698
0.446281
0.420541
0.382012
0.347817
0.326549
0.311907
0.302198
0.301194
3
2.99997
2.99993
2.99978
2.99956
2.99869
2.99745
2.9925
2.98511
2.95818
2.90891
2.76849
2.43988
1.75714
0.805266
0.403854
0.448515
0.469593
0.4512
0.42104
0.393165
0.377543
0.369598
0.367868
0.376864
3
2.99998
2.99994
2.9998
2.99961
2.99884
2.99774
2.99335
2.98679
2.9633
2.91759
2.79531
2.48305
1.8714
0.888279
0.463538
0.470207
0.483334
0.478943
0.459293
0.440782
0.43293
0.434108
0.44685
0.480802
3
2.99998
2.99995
2.99984
2.99968
2.99904
2.99809
2.99468
2.98852
2.96981
2.92575
2.8217
2.52769
1.98005
1.00236
0.537355
0.486977
0.500055
0.506033
0.496604
0.489628
0.491948
0.509193
0.552052
0.652969
3
2.99995
2.9999
2.99967
2.99936
2.99809
2.99626
2.98927
2.97759
2.93971
2.8534
2.65357
2.12271
1.29209
0.535627
0.269426
0.326389
0.343813
0.311066
0.256186
0.203697
0.161826
0.121131
0.0757359
0.0411198
3
2.99996
2.9999
2.99968
2.99937
2.99811
2.99631
2.9894
2.97791
2.94049
2.85555
2.65814
2.1346
1.30722
0.543635
0.27015
0.328323
0.346466
0.313932
0.259844
0.208632
0.168227
0.129696
0.089511
0.0645664
3
2.99996
2.9999
2.99969
2.99939
2.99816
2.99641
2.98968
2.97856
2.94211
2.86006
2.6677
2.16045
1.34117
0.562436
0.274192
0.334466
0.354342
0.322661
0.270662
0.222369
0.185393
0.151703
0.119805
0.103067
3
2.99996
2.99991
2.9997
2.99941
2.99823
2.99655
2.99003
2.97951
2.94433
2.86722
2.68219
2.20111
1.39527
0.592214
0.282748
0.345429
0.367921
0.33758
0.288471
0.243757
0.210909
0.182582
0.157558
0.145312
3
2.99996
2.99991
2.99971
2.99944
2.99831
2.99672
2.99036
2.98069
2.94666
2.87767
2.70134
2.25723
1.47131
0.633902
0.2993
0.362842
0.38799
0.359012
0.313133
0.271869
0.242945
0.219296
0.199522
0.19035
3
2.99996
2.99992
2.99973
2.99947
2.99842
2.99694
2.99102
2.98209
2.9501
2.88901
2.72374
2.32221
1.56655
0.686689
0.327094
0.388509
0.414805
0.387104
0.344463
0.306679
0.281437
0.262268
0.247243
0.240934
3
2.99997
2.99993
2.99976
2.99952
2.99855
2.99719
2.99175
2.98359
2.95408
2.89967
2.74565
2.38939
1.66543
0.747644
0.366109
0.421698
0.446281
0.420541
0.382012
0.347817
0.326549
0.311907
0.302198
0.301194
3
2.99997
2.99993
2.99978
2.99956
2.99869
2.99745
2.9925
2.98511
2.95818
2.90891
2.76849
2.43988
1.75714
0.805266
0.403854
0.448515
0.469593
0.4512
0.42104
0.393165
0.377543
0.369598
0.367868
0.376864
3
2.99998
2.99994
2.9998
2.99961
2.99884
2.99774
2.99335
2.98679
2.9633
2.91759
2.79531
2.48305
1.8714
0.888279
0.463538
0.470207
0.483334
0.478943
0.459293
0.440782
0.43293
0.434108
0.44685
0.480802
3
2.99998
2.99995
2.99984
2.99968
2.99904
2.99809
2.99468
2.98852
2.96981
2.92575
2.8217
2.52769
1.98005
1.00236
0.537355
0.486977
0.500055
0.506033
0.496604
0.489628
0.491948
0.509193
0.552052
0.652969
3
2.99995
2.9999
2.99967
2.99936
2.99809
2.99626
2.98927
2.97759
2.93971
2.8534
2.65357
2.12271
1.29209
0.535627
0.269426
0.326389
0.343813
0.311066
0.256186
0.203697
0.161826
0.121131
0.0757359
0.0411198
3
2.99996
2.9999
2.99968
2.99937
2.99811
2.99631
2.9894
2.97791
2.94049
2.85555
2.65814
2.1346
1.30722
0.543635
0.27015
0.328323
0.346466
0.313932
0.259844
0.208632
0.168227
0.129696
0.089511
0.0645664
3
2.99996
2.9999
2.99969
2.99939
2.99816
2.99641
2.98968
2.97856
2.94211
2.86006
2.6677
2.16045
1.34117
0.562436
0.274192
0.334466
0.354342
0.322661
0.270662
0.222369
0.185393
0.151703
0.119805
0.103067
3
2.99996
2.99991
2.9997
2.99941
2.99823
2.99655
2.99003
2.97951
2.94433
2.86722
2.68219
2.20111
1.39527
0.592214
0.282748
0.345429
0.367921
0.33758
0.288471
0.243757
0.210909
0.182582
0.157558
0.145312
3
2.99996
2.99991
2.99971
2.99944
2.99831
2.99672
2.99036
2.98069
2.94666
2.87767
2.70134
2.25723
1.47131
0.633902
0.2993
0.362842
0.38799
0.359012
0.313133
0.271869
0.242945
0.219296
0.199522
0.19035
3
2.99996
2.99992
2.99973
2.99947
2.99842
2.99694
2.99102
2.98209
2.9501
2.88901
2.72374
2.32221
1.56655
0.686689
0.327094
0.388509
0.414805
0.387104
0.344463
0.306679
0.281437
0.262268
0.247243
0.240934
3
2.99997
2.99993
2.99976
2.99952
2.99855
2.99719
2.99175
2.98359
2.95408
2.89967
2.74565
2.38939
1.66543
0.747644
0.366109
0.421698
0.446281
0.420541
0.382012
0.347817
0.326549
0.311907
0.302198
0.301194
3
2.99997
2.99993
2.99978
2.99956
2.99869
2.99745
2.9925
2.98511
2.95818
2.90891
2.76849
2.43988
1.75714
0.805266
0.403854
0.448515
0.469593
0.4512
0.42104
0.393165
0.377543
0.369598
0.367868
0.376864
3
2.99998
2.99994
2.9998
2.99961
2.99884
2.99774
2.99335
2.98679
2.9633
2.91759
2.79531
2.48305
1.8714
0.888279
0.463538
0.470207
0.483334
0.478943
0.459293
0.440782
0.43293
0.434108
0.44685
0.480802
3
2.99998
2.99995
2.99984
2.99968
2.99904
2.99809
2.99468
2.98852
2.96981
2.92575
2.8217
2.52769
1.98005
1.00236
0.537355
0.486977
0.500055
0.506033
0.496604
0.489628
0.491948
0.509193
0.552052
0.652969
3
2.99995
2.9999
2.99967
2.99936
2.99809
2.99626
2.98927
2.97759
2.93971
2.8534
2.65357
2.12271
1.29209
0.535627
0.269426
0.326389
0.343813
0.311066
0.256186
0.203697
0.161826
0.121131
0.0757359
0.0411198
3
2.99996
2.9999
2.99968
2.99937
2.99811
2.99631
2.9894
2.97791
2.94049
2.85555
2.65814
2.1346
1.30722
0.543635
0.27015
0.328323
0.346466
0.313932
0.259844
0.208632
0.168227
0.129696
0.089511
0.0645664
3
2.99996
2.9999
2.99969
2.99939
2.99816
2.99641
2.98968
2.97856
2.94211
2.86006
2.6677
2.16045
1.34117
0.562436
0.274192
0.334466
0.354342
0.322662
0.270662
0.222369
0.185393
0.151703
0.119805
0.103067
3
2.99996
2.99991
2.9997
2.99941
2.99823
2.99655
2.99003
2.97951
2.94433
2.86722
2.68219
2.20111
1.39527
0.592214
0.282748
0.345429
0.367921
0.33758
0.288471
0.243757
0.210909
0.182582
0.157558
0.145312
3
2.99996
2.99991
2.99971
2.99944
2.99831
2.99672
2.99036
2.98069
2.94666
2.87767
2.70134
2.25723
1.47131
0.633902
0.2993
0.362842
0.38799
0.359012
0.313133
0.271869
0.242945
0.219296
0.199522
0.19035
3
2.99996
2.99992
2.99973
2.99947
2.99842
2.99694
2.99102
2.98209
2.9501
2.88901
2.72374
2.32221
1.56655
0.686689
0.327094
0.388509
0.414805
0.387104
0.344463
0.306679
0.281437
0.262268
0.247243
0.240934
3
2.99997
2.99993
2.99976
2.99952
2.99855
2.99719
2.99175
2.98359
2.95408
2.89967
2.74565
2.38939
1.66543
0.747644
0.366109
0.421698
0.446281
0.420541
0.382012
0.347817
0.326549
0.311907
0.302198
0.301194
3
2.99997
2.99993
2.99978
2.99956
2.99869
2.99745
2.9925
2.98511
2.95818
2.90891
2.76849
2.43988
1.75714
0.805266
0.403854
0.448515
0.469593
0.4512
0.42104
0.393165
0.377543
0.369598
0.367868
0.376864
3
2.99998
2.99994
2.9998
2.99961
2.99884
2.99774
2.99335
2.98679
2.9633
2.91759
2.79531
2.48305
1.8714
0.888279
0.463538
0.470207
0.483333
0.478943
0.459293
0.440782
0.43293
0.434108
0.44685
0.480802
3
2.99998
2.99995
2.99984
2.99968
2.99904
2.99809
2.99468
2.98852
2.96981
2.92575
2.8217
2.52769
1.98005
1.00236
0.537355
0.486977
0.500055
0.506033
0.496604
0.489628
0.491948
0.509193
0.552052
0.652969
3
2.99995
2.9999
2.99967
2.99936
2.99809
2.99626
2.98927
2.97759
2.93971
2.8534
2.65358
2.12272
1.29209
0.535629
0.269425
0.326388
0.343813
0.311066
0.256186
0.203697
0.161826
0.121131
0.0757358
0.0411197
3
2.99996
2.9999
2.99968
2.99937
2.99811
2.99631
2.9894
2.97791
2.94049
2.85556
2.65814
2.1346
1.30722
0.543637
0.270149
0.328323
0.346466
0.313932
0.259844
0.208632
0.168226
0.129696
0.089511
0.0645663
3
2.99996
2.9999
2.99969
2.99939
2.99816
2.99641
2.98968
2.97856
2.94211
2.86006
2.6677
2.16045
1.34117
0.562438
0.274191
0.334466
0.354342
0.322662
0.270662
0.222369
0.185393
0.151703
0.119805
0.103067
3
2.99996
2.99991
2.9997
2.99941
2.99823
2.99655
2.99003
2.97951
2.94433
2.86722
2.68219
2.20111
1.39528
0.592216
0.282747
0.345429
0.367921
0.33758
0.288472
0.243757
0.210909
0.182582
0.157558
0.145312
3
2.99996
2.99991
2.99971
2.99944
2.99831
2.99672
2.99036
2.98069
2.94666
2.87767
2.70134
2.25723
1.47131
0.633904
0.2993
0.362842
0.387991
0.359012
0.313133
0.271869
0.242945
0.219296
0.199522
0.190349
3
2.99996
2.99992
2.99973
2.99947
2.99842
2.99694
2.99102
2.98209
2.9501
2.88901
2.72374
2.32222
1.56655
0.686691
0.327094
0.38851
0.414805
0.387105
0.344464
0.306679
0.281437
0.262268
0.247243
0.240934
3
2.99997
2.99993
2.99976
2.99952
2.99855
2.99719
2.99175
2.98359
2.95408
2.89968
2.74565
2.38939
1.66544
0.747646
0.366109
0.421698
0.446281
0.420541
0.382013
0.347817
0.326549
0.311908
0.302198
0.301194
3
2.99997
2.99993
2.99978
2.99956
2.99869
2.99745
2.9925
2.98511
2.95818
2.90891
2.76849
2.43988
1.75714
0.805268
0.403855
0.448516
0.469593
0.4512
0.42104
0.393165
0.377543
0.369598
0.367868
0.376864
3
2.99998
2.99994
2.9998
2.99961
2.99884
2.99774
2.99335
2.98679
2.9633
2.91759
2.79531
2.48305
1.8714
0.888281
0.463539
0.470206
0.483333
0.478943
0.459293
0.440782
0.43293
0.434108
0.44685
0.480802
3
2.99998
2.99995
2.99984
2.99968
2.99904
2.99809
2.99468
2.98852
2.96981
2.92575
2.8217
2.52769
1.98005
1.00237
0.537356
0.486977
0.500055
0.506033
0.496604
0.489628
0.491948
0.509193
0.552052
0.652969
3.00002
2.99997
2.99992
2.99969
2.99938
2.99811
2.99628
2.98929
2.97761
2.93974
2.85344
2.65364
2.12279
1.29223
0.535765
0.26964
0.326581
0.344004
0.311279
0.256445
0.204025
0.162243
0.121694
0.0766446
0.0427935
3.00002
2.99997
2.99992
2.9997
2.99939
2.99813
2.99633
2.98943
2.97793
2.94053
2.85559
2.65821
2.13468
1.30736
0.543771
0.270363
0.328514
0.346654
0.314142
0.260098
0.20895
0.168624
0.130217
0.0902719
0.0656304
3.00002
2.99997
2.99992
2.99971
2.99941
2.99818
2.99643
2.9897
2.97859
2.94214
2.86009
2.66776
2.16052
1.34131
0.562569
0.274409
0.334658
0.354529
0.322868
0.270907
0.222667
0.185752
0.152145
0.120369
0.103729
3.00002
2.99998
2.99993
2.99972
2.99943
2.99825
2.99657
2.99006
2.97954
2.94437
2.86723
2.68225
2.20113
1.39538
0.592316
0.282936
0.345598
0.368086
0.337764
0.28869
0.244021
0.211219
0.182944
0.157981
0.145777
3.00002
2.99998
2.99993
2.99973
2.99946
2.99833
2.99674
2.99038
2.98071
2.9467
2.87769
2.70139
2.25726
1.47141
0.633997
0.299479
0.362998
0.388138
0.359175
0.313323
0.272096
0.243206
0.219592
0.199852
0.190699
3.00002
2.99998
2.99994
2.99975
2.99949
2.99844
2.99696
2.99104
2.98211
2.95013
2.88904
2.72379
2.32226
1.56665
0.686786
0.327272
0.388659
0.414943
0.387252
0.344632
0.306873
0.281655
0.262508
0.247503
0.241206
3.00002
2.99998
2.99994
2.99977
2.99954
2.99857
2.99721
2.99178
2.98361
2.95411
2.8997
2.7457
2.38943
1.66552
0.747735
0.366272
0.421834
0.446405
0.420673
0.38216
0.347983
0.326731
0.312103
0.302404
0.301406
3.00002
2.99999
2.99995
2.9998
2.99958
2.99871
2.99747
2.99253
2.98514
2.95821
2.90894
2.76854
2.43992
1.75722
0.80536
0.404012
0.448642
0.469708
0.451321
0.42117
0.393307
0.377695
0.369756
0.368031
0.377027
3.00002
2.99999
2.99996
2.99982
2.99963
2.99886
2.99777
2.99338
2.98681
2.96334
2.91761
2.79536
2.48305
1.87148
0.888358
0.463674
0.470317
0.483443
0.479055
0.459411
0.440905
0.433056
0.434237
0.446977
0.480922
3.00002
3
2.99997
2.99986
2.9997
2.99906
2.99811
2.9947
2.98854
2.96984
2.92577
2.82175
2.52772
1.98013
1.00244
0.537478
0.487084
0.500159
0.506137
0.49671
0.489736
0.492055
0.509296
0.552147
0.653049
3.00002
3.00001
2.99996
2.9999
2.99966
2.9993
2.99792
2.99581
2.98829
2.97455
2.93325
2.834
2.61456
2.03854
1.18336
0.627971
0.510833
0.523714
0.535921
0.535117
0.537467
0.55249
0.591987
0.677236
0.85678
3.00002
3.00001
2.99997
2.99992
2.9997
2.9994
2.99817
2.9964
2.98965
2.97845
2.94196
2.85954
2.66731
2.16215
1.35387
0.721386
0.535957
0.550482
0.567983
0.575182
0.585929
0.613576
0.67105
0.77695
0.967087
3.00002
3.00001
2.99998
2.99993
2.99974
2.99948
2.99841
2.9969
2.99086
2.98178
2.94924
2.88635
2.71961
2.30911
1.55932
0.831598
0.575869
0.587695
0.604162
0.616773
0.633545
0.669129
0.735056
0.840294
1.00452
3.00002
3.00001
2.99999
2.99995
2.99979
2.99958
2.99869
2.99744
2.99247
2.98505
2.95799
2.90961
2.76762
2.45634
1.7787
0.9548
0.635565
0.635631
0.647991
0.663599
0.683132
0.721041
0.78535
0.879815
1.01753
3.00002
3.00002
2.99999
2.99996
2.99984
2.99967
2.99897
2.99796
2.99406
2.98801
2.96718
2.9254
2.81574
2.53771
1.97433
1.08231
0.704643
0.674718
0.687597
0.704617
0.727344
0.764843
0.827601
0.91058
1.02604
3.00002
3.00002
3.00001
2.99997
2.99991
2.99968
2.99935
2.99806
2.99609
2.9892
2.97634
2.93876
2.84709
2.64629
2.10722
1.30077
0.811093
0.710027
0.721168
0.739415
0.765818
0.801992
0.858632
0.93576
1.03393
3.00002
3.00002
3.00001
2.99998
2.99993
2.99974
2.99947
2.99837
2.99682
2.99063
2.98134
2.94847
2.88302
2.715
2.2961
1.55251
0.934407
0.748109
0.750944
0.770005
0.801384
0.837446
0.886868
0.955232
1.04096
3.00002
3.00002
3.00001
2.99999
2.99995
2.9998
2.99959
2.99876
2.99756
2.99288
2.98573
2.96037
2.91401
2.78015
2.48767
1.83629
1.09411
0.811935
0.79313
0.80609
0.833323
0.870565
0.916293
0.975829
1.05009
3.00002
3.00002
3.00002
3
2.99996
2.99989
2.99963
2.99926
2.99781
2.99562
2.98773
2.97401
2.93157
2.83368
2.61614
2.0662
1.27627
0.887999
0.833131
0.84406
0.866714
0.900535
0.941876
0.994236
1.05917
3.00003
3.00002
3.00002
3.00001
2.99998
2.99993
2.99973
2.99945
2.99833
2.99671
2.99062
2.98051
2.94779
2.87532
2.70368
2.26489
1.51886
1.00566
0.872976
0.875113
0.895847
0.92913
0.968433
1.01426
1.07037
3.00003
3.00003
3.00002
3.00001
3
2.99994
2.99985
2.99952
2.99904
2.99722
2.99433
2.98464
2.96537
2.91289
2.77993
2.50688
1.85709
1.19124
0.938494
0.915616
0.927225
0.955187
0.992876
1.03481
1.0831
3.00003
3.00003
3.00002
3.00002
3.00001
2.99996
2.9999
2.99965
2.9993
2.99792
2.99589
2.98839
2.9757
2.93581
2.84513
2.64251
2.12357
1.37983
1.01601
0.954912
0.962282
0.984466
1.01801
1.05664
1.10005
3.00003
3.00003
3.00003
3.00002
3.00001
2.99999
2.99992
2.99982
2.99942
2.99883
2.9967
2.993
2.98152
2.95603
2.89251
2.72342
2.3901
1.64413
1.15483
1.00297
0.996234
1.00977
1.03821
1.07541
1.11551
3.00003
3.00003
3.00003
3.00002
3.00001
3
2.99995
2.99987
2.99958
2.99915
2.99748
2.99507
2.98585
2.97124
2.92345
2.8233
2.58055
2.04762
1.34511
1.07874
1.03917
1.04414
1.06445
1.0965
1.13342
3.00003
3.00003
3.00003
3.00002
3.00002
3.00001
2.99998
2.9999
2.99978
2.99931
2.99862
2.996
2.99194
2.97813
2.95142
2.87831
2.69803
2.32577
1.59346
1.18864
1.07926
1.07474
1.0871
1.11398
1.14985
3.00003
3.00003
3.00003
3.00003
3.00002
3.00001
3
2.99994
2.99986
2.99953
2.99907
2.99726
2.99463
2.98482
2.96879
2.91839
2.80837
2.55857
1.99913
1.37644
1.14405
1.11327
1.11731
1.1371
1.16712
3.00003
3.00003
3.00003
3.00003
3.00002
3.00002
3
2.99998
2.99989
2.99976
2.99925
2.9985
2.99569
2.99136
2.97629
2.94885
2.87181
2.69158
2.29526
1.59622
1.23653
1.1497
1.14597
1.15802
1.18241
3.00003
3.00003
3.00003
3.00003
3.00003
3.00002
3.00001
3
2.99994
2.99985
2.99952
2.99903
2.99718
2.99446
2.98455
2.96788
2.91668
2.8008
2.55294
1.97108
1.41526
1.20806
1.18032
1.18432
1.20334
3.00003
3.00003
3.00003
3.00003
3.00003
3.00002
3.00002
3
2.99998
2.99989
2.99975
2.99924
2.99848
2.99568
2.99124
2.97627
2.94855
2.87072
2.69788
2.28725
1.64369
1.30659
1.22088
1.2137
1.22312
3.00003
3.00003
3.00003
3.00003
3.00003
3.00003
3.00002
3.00002
2.99999
2.99995
2.99982
2.99961
2.99884
2.9977
2.99351
2.98684
2.96474
2.92294
2.80984
2.56052
2.01082
1.47208
1.27683
1.24736
1.24987
3.00003
3.00003
3.00003
3.00003
3.00003
3.00003
3.00002
3.00002
3
2.99998
2.99989
2.99976
2.99927
2.99855
2.99583
2.99175
2.97728
2.95216
2.87935
2.71878
2.35098
1.71694
1.37588
1.28591
1.27711
3.00003
3.00003
3.00003
3.00003
3.00003
3.00003
3.00003
3.00002
3.00002
2.99999
2.99996
2.99983
2.99964
2.99894
2.99788
2.99408
2.98799
2.96803
2.93071
2.82753
2.61059
2.0995
1.55763
1.34391
1.31076
3.00003
3.00003
3.00003
3.00003
3.00003
3.00003
3.00003
3.00003
3.00002
3.00001
2.99999
2.9999
2.99979
2.99934
2.9987
2.99623
2.99264
2.97953
2.95782
2.89287
2.7516
2.43469
1.81501
1.45149
1.34637
3.00003
3.00003
3.00003
3.00003
3.00003
3.00003
3.00003
3.00003
3.00002
3.00002
3
2.99995
2.99988
2.99961
2.99923
2.99775
2.99562
2.98773
2.97528
2.93519
2.85645
2.66042
2.23121
1.65651
1.41927
3.00003
3.00003
3.00003
3.00003
3.00003
3.00003
3.00003
3.00003
3.00003
3.00002
3.00001
2.99998
2.99994
2.99978
2.99955
2.99866
2.99737
2.99257
2.98522
2.96025
2.91373
2.79205
2.50754
1.95412
1.55275
3.00003
3.00003
3.00003
3.00003
3.00003
3.00003
3.00003
3.00003
3.00003
3.00003
3.00002
3.00001
2.99997
2.99991
2.99969
2.99937
2.9982
2.99641
2.99021
2.97965
2.94764
2.87782
2.72132
2.33667
1.77149
3.00003
3.00003
3.00003
3.00003
3.00003
3.00003
3.00003
3.00003
3.00003
3.00003
3.00002
3.00001
3
2.99995
2.99987
2.99958
2.99914
2.99758
2.99514
2.98698
2.9725
2.93043
2.83776
2.63335
2.17872
3.00003
3.00003
3.00003
3.00003
3.00003
3.00003
3.00003
3.00003
3.00003
3.00003
3.00003
3.00002
3.00001
2.99999
2.99991
2.99981
2.9994
2.9988
2.99663
2.99329
2.98164
2.96225
2.90272
2.78386
2.4843
3.00003
3.00003
3.00003
3.00003
3.00003
3.00003
3.00003
3.00003
3.00003
3.00003
3.00003
3.00002
3.00002
3.00001
2.99996
2.9999
2.99967
2.99933
2.99807
2.99622
2.98948
2.97894
2.94478
2.87881
2.7149
3.00003
3.00003
3.00003
3.00003
3.00003
3.00003
3.00003
3.00003
3.00003
3.00003
3.00003
3.00003
3.00002
3.00001
3
2.99994
2.99986
2.99957
2.99913
2.99756
2.99513
2.98691
2.97275
2.93122
2.84141
3.00003
3.00003
3.00003
3.00003
3.00003
3.00003
3.00003
3.00003
3.00003
3.00003
3.00003
3.00003
3.00003
3.00002
3.00001
2.99999
2.99992
2.99981
2.99942
2.99883
2.99677
2.99348
2.98274
2.96329
2.90889
3.00003
3.00003
3.00003
3.00003
3.00003
3.00003
3.00003
3.00003
3.00003
3.00003
3.00003
3.00003
3.00003
3.00002
3.00002
3
2.99998
2.99988
2.99974
2.99925
2.99849
2.99585
2.99158
2.97787
2.95309
3.00003
3.00003
3.00003
3.00003
3.00003
3.00003
3.00003
3.00003
3.00003
3.00003
3.00003
3.00003
3.00003
3.00003
3.00002
3.00001
3
2.99995
2.99988
2.9996
2.9992
2.99775
2.99556
2.98807
2.97558
3.00003
3.00003
3.00003
3.00003
3.00003
3.00003
3.00003
3.00003
3.00003
3.00003
3.00003
3.00003
3.00003
3.00003
3.00003
3.00002
3.00001
2.99999
2.99993
2.99983
2.9995
2.99899
2.99721
2.99437
2.98527
3.00003
3.00003
3.00003
3.00003
3.00003
3.00003
3.00003
3.00003
3.00003
3.00003
3.00003
3.00003
3.00003
3.00003
3.00003
3.00002
3.00002
3.00001
2.99998
2.9999
2.99978
2.99935
2.99869
2.99642
2.99275
3.00003
3.00003
3.00003
3.00003
3.00003
3.00003
3.00003
3.00003
3.00003
3.00003
3.00003
3.00003
3.00003
3.00003
3.00003
3.00003
3.00002
3.00002
3
2.99997
2.99986
2.9997
2.99913
2.99825
2.99524
3.00003
3.00003
3.00003
3.00003
3.00003
3.00003
3.00003
3.00003
3.00003
3.00003
3.00003
3.00003
3.00003
3.00003
3.00003
3.00003
3.00003
3.00002
3.00001
2.99998
2.99994
2.99977
2.99951
2.99857
2.99717
3.00003
3.00003
3.00003
3.00003
3.00003
3.00003
3.00003
3.00003
3.00003
3.00003
3.00003
3.00003
3.00003
3.00003
3.00003
3.00003
3.00003
3.00002
3.00002
2.99999
2.99996
2.99982
2.99962
2.99882
2.99767
3.00003
3.00003
3.00003
3.00003
3.00003
3.00003
3.00003
3.00003
3.00003
3.00003
3.00003
3.00003
3.00003
3.00003
3.00003
3.00003
3.00003
3.00002
3.00002
3
2.99995
2.99988
2.99957
2.99914
2.99741
3.00003
3.00003
3.00003
3.00003
3.00003
3.00003
3.00003
3.00003
3.00003
3.00003
3.00003
3.00003
3.00003
3.00003
3.00003
3.00003
3.00003
3.00002
3.00002
3
2.99995
2.99988
2.99958
2.99916
2.99741
3
2.99999
2.99994
2.99988
2.99964
2.99928
2.9979
2.99579
2.98826
2.97452
2.93321
2.83396
2.6145
2.03849
1.18326
0.627863
0.510729
0.523614
0.535823
0.53502
0.537371
0.552398
0.591903
0.677166
0.856735
3
2.99999
2.99995
2.9999
2.99968
2.99938
2.99815
2.99638
2.98963
2.97843
2.94192
2.8595
2.66725
2.1621
1.35377
0.721289
0.535854
0.550383
0.567889
0.575092
0.585844
0.613497
0.67098
0.776893
0.96705
3
2.99999
2.99996
2.99991
2.99973
2.99946
2.99839
2.99688
2.99083
2.98175
2.94921
2.88633
2.71956
2.30907
1.55922
0.831518
0.57577
0.587599
0.604073
0.616688
0.633466
0.669058
0.734995
0.840245
1.00448
3
3
2.99997
2.99993
2.99977
2.99956
2.99867
2.99742
2.99244
2.98503
2.95796
2.90958
2.76758
2.4563
1.77863
0.95473
0.635474
0.635545
0.647911
0.663523
0.68306
0.720976
0.785292
0.879768
1.01749
3
3
2.99998