/*--------------------------------*- C++ -*----------------------------------*\
| =========                 |                                                 |
| \\      /  F ield         | OpenFOAM: The Open Source CFD Toolbox           |
|  \\    /   O peration     | Version:  4.1                                   |
|   \\  /    A nd           | Web:      www.OpenFOAM.org                      |
|    \\/     M anipulation  |                                                 |
\*---------------------------------------------------------------------------*/
FoamFile
{
    version     2.0;
    format      ascii;
    class       volScalarField;
    location    "6.2";
    object      p;
}
// * * * * * * * * * * * * * * * * * * * * * * * * * * * * * * * * * * * * * //

dimensions      [1 -1 -2 0 0 0 0];

internalField   nonuniform List<scalar> 
52500
(
1.00001
1.00003
1.00011
1.00025
1.00071
1.00146
1.00417
1.00826
1.02521
1.0456
1.16371
1.29346
2.1071
3.64349
8.81762
11.4839
11.2242
11.0419
11.1173
11.3358
11.5769
11.73
11.8456
11.9379
12.0116
1.00001
1.00003
1.00011
1.00024
1.0007
1.00144
1.00412
1.00814
1.0249
1.04496
1.16176
1.28927
2.09484
3.60778
8.7275
11.4835
11.2168
11.0296
11.1065
11.3266
11.5671
11.7199
11.8371
11.9307
12.0058
1.00001
1.00003
1.00011
1.00024
1.00068
1.0014
1.00401
1.00791
1.02427
1.04364
1.15775
1.28034
2.06979
3.52981
8.52648
11.4821
11.1974
10.9956
11.0727
11.292
11.5285
11.6776
11.7936
11.8858
11.9596
1.00001
1.00003
1.0001
1.00023
1.00065
1.00134
1.00384
1.00755
1.02332
1.04164
1.15161
1.2668
2.03093
3.41044
8.21261
11.4858
11.1704
10.9413
11.0164
11.2309
11.4604
11.6033
11.715
11.8036
11.8765
1.00001
1.00003
1.0001
1.00021
1.00062
1.00127
1.00364
1.00717
1.02207
1.03947
1.1433
1.25137
1.96801
3.25297
7.77594
11.4985
11.1416
10.8703
10.9409
11.1471
11.3675
11.5011
11.6056
11.6892
11.7618
1.00001
1.00003
1.00009
1.0002
1.00058
1.00119
1.00341
1.00677
1.02053
1.03726
1.13236
1.23404
1.8844
3.05864
7.21198
11.519
11.1128
10.7822
10.8452
11.0376
11.2463
11.367
11.4598
11.534
11.6058
1.00001
1.00002
1.00009
1.00019
1.00054
1.00112
1.00317
1.0064
1.01868
1.03598
1.11736
1.21724
1.78406
2.83522
6.53435
11.5188
11.0808
10.6805
10.732
10.9024
11.0936
11.1942
11.2666
11.3217
11.3854
1
1.00002
1.00008
1.00017
1.00049
1.00101
1.00287
1.0058
1.01679
1.03297
1.10337
1.19696
1.68188
2.59766
5.77646
11.4425
11.0139
10.565
10.6023
10.7405
10.9058
10.9774
11.0158
11.0324
11.0674
1
1.00002
1.00007
1.00015
1.00044
1.00091
1.00257
1.00521
1.01501
1.0296
1.09165
1.17658
1.59794
2.39918
5.20679
11.0914
10.8469
10.442
10.4556
10.5455
10.6732
10.7027
10.6884
10.6281
10.567
1
1.00002
1.00006
1.00013
1.00038
1.00078
1.00223
1.00447
1.01317
1.02485
1.08249
1.14894
1.53356
2.21981
4.72169
10.3833
10.5449
10.3646
10.292
10.3294
10.3937
10.3721
10.2767
10.0534
9.70602
1.00001
1.00004
1.00012
1.00025
1.00072
1.00147
1.00418
1.00827
1.02522
1.04562
1.16373
1.29352
2.10719
3.64379
8.8182
11.4838
11.2242
11.0419
11.1174
11.3358
11.577
11.7301
11.8457
11.938
12.0116
1.00001
1.00003
1.00011
1.00025
1.00071
1.00145
1.00413
1.00815
1.02491
1.04498
1.16178
1.28933
2.09491
3.60807
8.72807
11.4834
11.2169
11.0297
11.1066
11.3267
11.5672
11.72
11.8371
11.9308
12.0059
1.00001
1.00003
1.00011
1.00024
1.00069
1.00141
1.00401
1.00792
1.02428
1.04366
1.15777
1.2804
2.06986
3.53009
8.52704
11.482
11.1974
10.9956
11.0728
11.2921
11.5286
11.6777
11.7937
11.8859
11.9597
1.00001
1.00003
1.00011
1.00023
1.00066
1.00135
1.00385
1.00756
1.02333
1.04166
1.15163
1.26686
2.031
3.41071
8.21316
11.4857
11.1705
10.9414
11.0165
11.231
11.4605
11.6034
11.7151
11.8037
11.8766
1.00001
1.00003
1.0001
1.00022
1.00063
1.00128
1.00365
1.00718
1.02208
1.03949
1.14333
1.25142
1.96808
3.25322
7.77648
11.4985
11.1416
10.8703
10.941
11.1472
11.3675
11.5012
11.6057
11.6892
11.7619
1.00001
1.00003
1.0001
1.00021
1.00059
1.0012
1.00342
1.00678
1.02054
1.0373
1.13236
1.23412
1.8844
3.05887
7.21246
11.5189
11.1129
10.7823
10.8453
11.0377
11.2463
11.3671
11.4599
11.5341
11.6059
1.00001
1.00003
1.00009
1.00019
1.00055
1.00113
1.00318
1.00641
1.01869
1.036
1.11736
1.21731
1.78408
2.83541
6.53477
11.5188
11.0809
10.6806
10.7321
10.9025
11.0937
11.1943
11.2667
11.3218
11.3855
1.00001
1.00002
1.00008
1.00018
1.0005
1.00102
1.00288
1.00581
1.0168
1.03298
1.10339
1.19701
1.68192
2.59783
5.77686
11.4426
11.014
10.5651
10.6024
10.7405
10.9059
10.9775
11.0158
11.0325
11.0675
1
1.00002
1.00007
1.00016
1.00045
1.00091
1.00258
1.00522
1.01502
1.02962
1.09166
1.17662
1.59797
2.3993
5.20701
11.0916
10.847
10.4421
10.4557
10.5456
10.6733
10.7028
10.6884
10.6282
10.5671
1
1.00002
1.00006
1.00014
1.00039
1.00079
1.00224
1.00448
1.01318
1.02488
1.08249
1.14898
1.53355
2.21993
4.72186
10.3837
10.545
10.3647
10.2921
10.3295
10.3938
10.3722
10.2768
10.0535
9.7061
1.00001
1.00004
1.00012
1.00025
1.00072
1.00147
1.00418
1.00827
1.02522
1.04562
1.16373
1.29352
2.10719
3.6438
8.81823
11.4838
11.2242
11.0419
11.1174
11.3358
11.577
11.7301
11.8457
11.938
12.0117
1.00001
1.00003
1.00011
1.00025
1.00071
1.00145
1.00413
1.00815
1.02491
1.04498
1.16179
1.28934
2.09492
3.60808
8.7281
11.4834
11.2169
11.0297
11.1066
11.3267
11.5672
11.72
11.8371
11.9308
12.0059
1.00001
1.00003
1.00011
1.00024
1.00069
1.00141
1.00401
1.00792
1.02428
1.04366
1.15777
1.2804
2.06987
3.5301
8.52707
11.482
11.1974
10.9956
11.0728
11.2921
11.5286
11.6777
11.7937
11.8859
11.9597
1.00001
1.00003
1.00011
1.00023
1.00066
1.00135
1.00385
1.00756
1.02333
1.04166
1.15164
1.26686
2.03101
3.41072
8.2132
11.4857
11.1705
10.9414
11.0165
11.231
11.4605
11.6034
11.7151
11.8037
11.8766
1.00001
1.00003
1.0001
1.00022
1.00063
1.00128
1.00365
1.00718
1.02208
1.03949
1.14333
1.25142
1.96809
3.25324
7.77652
11.4985
11.1416
10.8704
10.941
11.1472
11.3676
11.5012
11.6057
11.6893
11.7619
1.00001
1.00003
1.0001
1.00021
1.00059
1.0012
1.00342
1.00678
1.02054
1.0373
1.13236
1.23412
1.88441
3.05888
7.2125
11.5189
11.1129
10.7823
10.8453
11.0377
11.2464
11.3671
11.4599
11.5341
11.6059
1.00001
1.00003
1.00009
1.00019
1.00055
1.00113
1.00318
1.00641
1.01869
1.036
1.11736
1.21731
1.78409
2.83542
6.53481
11.5188
11.0809
10.6806
10.7321
10.9025
11.0937
11.1943
11.2667
11.3218
11.3855
1.00001
1.00002
1.00008
1.00018
1.0005
1.00102
1.00288
1.00581
1.0168
1.03298
1.10339
1.19701
1.68193
2.59784
5.7769
11.4426
11.014
10.5651
10.6024
10.7406
10.9059
10.9775
11.0159
11.0325
11.0675
1
1.00002
1.00007
1.00016
1.00045
1.00091
1.00258
1.00522
1.01502
1.02962
1.09166
1.17662
1.59797
2.39931
5.20703
11.0916
10.847
10.4421
10.4557
10.5456
10.6733
10.7028
10.6884
10.6282
10.5671
1
1.00002
1.00006
1.00014
1.00039
1.00079
1.00224
1.00449
1.01318
1.02488
1.08249
1.14899
1.53355
2.21994
4.72188
10.3837
10.545
10.3647
10.2921
10.3295
10.3938
10.3722
10.2768
10.0535
9.70611
1.00001
1.00004
1.00012
1.00025
1.00072
1.00147
1.00418
1.00827
1.02522
1.04562
1.16373
1.29352
2.10719
3.6438
8.81823
11.4838
11.2242
11.0419
11.1174
11.3358
11.577
11.7301
11.8457
11.938
12.0117
1.00001
1.00003
1.00011
1.00025
1.00071
1.00145
1.00413
1.00815
1.02491
1.04498
1.16179
1.28934
2.09492
3.60808
8.7281
11.4834
11.2169
11.0297
11.1066
11.3267
11.5672
11.72
11.8371
11.9308
12.0059
1.00001
1.00003
1.00011
1.00024
1.00069
1.00141
1.00401
1.00792
1.02428
1.04366
1.15777
1.2804
2.06987
3.5301
8.52707
11.482
11.1974
10.9956
11.0728
11.2921
11.5286
11.6777
11.7937
11.8859
11.9597
1.00001
1.00003
1.00011
1.00023
1.00066
1.00135
1.00385
1.00756
1.02333
1.04166
1.15164
1.26686
2.03101
3.41072
8.2132
11.4857
11.1705
10.9414
11.0165
11.231
11.4605
11.6034
11.7151
11.8037
11.8766
1.00001
1.00003
1.0001
1.00022
1.00063
1.00128
1.00365
1.00718
1.02208
1.03949
1.14333
1.25142
1.96809
3.25324
7.77652
11.4985
11.1416
10.8704
10.941
11.1472
11.3676
11.5012
11.6057
11.6893
11.7619
1.00001
1.00003
1.0001
1.00021
1.00059
1.0012
1.00342
1.00678
1.02054
1.0373
1.13236
1.23412
1.88441
3.05888
7.2125
11.5189
11.1129
10.7823
10.8453
11.0377
11.2464
11.3671
11.4599
11.5341
11.6059
1.00001
1.00003
1.00009
1.00019
1.00055
1.00113
1.00318
1.00641
1.01869
1.036
1.11736
1.21731
1.78409
2.83542
6.53481
11.5188
11.0809
10.6806
10.7321
10.9025
11.0937
11.1943
11.2667
11.3218
11.3855
1.00001
1.00002
1.00008
1.00018
1.0005
1.00102
1.00288
1.00581
1.0168
1.03298
1.10339
1.19701
1.68193
2.59784
5.7769
11.4426
11.014
10.5651
10.6024
10.7406
10.9059
10.9775
11.0159
11.0325
11.0675
1
1.00002
1.00007
1.00016
1.00045
1.00091
1.00258
1.00522
1.01502
1.02962
1.09166
1.17662
1.59797
2.39931
5.20703
11.0916
10.847
10.4421
10.4557
10.5456
10.6733
10.7028
10.6884
10.6282
10.5671
1
1.00002
1.00006
1.00014
1.00039
1.00079
1.00224
1.00449
1.01318
1.02488
1.08249
1.14899
1.53355
2.21994
4.72188
10.3837
10.545
10.3647
10.2921
10.3295
10.3938
10.3722
10.2768
10.0535
9.70611
1.00001
1.00004
1.00012
1.00025
1.00072
1.00147
1.00418
1.00827
1.02522
1.04562
1.16373
1.29352
2.10719
3.6438
8.81824
11.4838
11.2242
11.0419
11.1174
11.3358
11.577
11.7301
11.8457
11.938
12.0117
1.00001
1.00003
1.00011
1.00025
1.00071
1.00145
1.00413
1.00815
1.02491
1.04498
1.16179
1.28934
2.09492
3.60809
8.72811
11.4834
11.2169
11.0297
11.1066
11.3267
11.5672
11.72
11.8371
11.9308
12.0059
1.00001
1.00003
1.00011
1.00024
1.00069
1.00141
1.00401
1.00792
1.02428
1.04366
1.15777
1.2804
2.06987
3.53011
8.52708
11.482
11.1974
10.9956
11.0728
11.2921
11.5286
11.6777
11.7937
11.8859
11.9597
1.00001
1.00003
1.00011
1.00023
1.00066
1.00135
1.00385
1.00756
1.02333
1.04166
1.15164
1.26686
2.03101
3.41072
8.21321
11.4857
11.1705
10.9414
11.0165
11.231
11.4605
11.6034
11.7151
11.8037
11.8766
1.00001
1.00003
1.0001
1.00022
1.00063
1.00128
1.00365
1.00718
1.02208
1.03949
1.14333
1.25142
1.96809
3.25324
7.77653
11.4985
11.1416
10.8704
10.941
11.1472
11.3676
11.5012
11.6057
11.6893
11.7619
1.00001
1.00003
1.0001
1.00021
1.00059
1.0012
1.00342
1.00678
1.02054
1.0373
1.13236
1.23412
1.88441
3.05888
7.21251
11.5189
11.1129
10.7823
10.8453
11.0377
11.2464
11.3671
11.4599
11.5341
11.6059
1.00001
1.00003
1.00009
1.00019
1.00055
1.00113
1.00318
1.00641
1.01869
1.036
1.11736
1.21731
1.78409
2.83542
6.53482
11.5188
11.0809
10.6806
10.7321
10.9025
11.0937
11.1943
11.2667
11.3218
11.3855
1.00001
1.00002
1.00008
1.00018
1.0005
1.00102
1.00288
1.00581
1.0168
1.03298
1.10339
1.19701
1.68193
2.59784
5.77691
11.4426
11.014
10.5651
10.6024
10.7406
10.9059
10.9775
11.0159
11.0325
11.0675
1
1.00002
1.00007
1.00016
1.00045
1.00091
1.00258
1.00522
1.01502
1.02962
1.09166
1.17662
1.59797
2.39931
5.20704
11.0916
10.847
10.4421
10.4557
10.5456
10.6733
10.7028
10.6884
10.6282
10.5671
1
1.00002
1.00006
1.00014
1.00039
1.00079
1.00224
1.00449
1.01318
1.02488
1.08249
1.14899
1.53355
2.21994
4.72188
10.3837
10.545
10.3647
10.2921
10.3295
10.3938
10.3722
10.2768
10.0535
9.70611
1.00001
1.00004
1.00012
1.00025
1.00072
1.00147
1.00418
1.00827
1.02522
1.04562
1.16373
1.29352
2.10719
3.6438
8.81824
11.4838
11.2242
11.0419
11.1174
11.3358
11.577
11.7301
11.8457
11.938
12.0117
1.00001
1.00003
1.00011
1.00025
1.00071
1.00145
1.00413
1.00815
1.02491
1.04498
1.16179
1.28934
2.09492
3.60809
8.72811
11.4834
11.2169
11.0297
11.1066
11.3267
11.5672
11.72
11.8371
11.9308
12.0059
1.00001
1.00003
1.00011
1.00024
1.00069
1.00141
1.00401
1.00792
1.02428
1.04366
1.15777
1.2804
2.06987
3.53011
8.52708
11.482
11.1974
10.9956
11.0728
11.2921
11.5286
11.6777
11.7937
11.8859
11.9597
1.00001
1.00003
1.00011
1.00023
1.00066
1.00135
1.00385
1.00756
1.02333
1.04166
1.15164
1.26686
2.03101
3.41072
8.21321
11.4857
11.1705
10.9414
11.0165
11.231
11.4605
11.6034
11.7151
11.8037
11.8766
1.00001
1.00003
1.0001
1.00022
1.00063
1.00128
1.00365
1.00718
1.02208
1.03949
1.14333
1.25142
1.96809
3.25324
7.77653
11.4985
11.1416
10.8704
10.941
11.1472
11.3676
11.5012
11.6057
11.6893
11.7619
1.00001
1.00003
1.0001
1.00021
1.00059
1.0012
1.00342
1.00678
1.02054
1.0373
1.13236
1.23412
1.88441
3.05888
7.21251
11.5189
11.1129
10.7823
10.8453
11.0377
11.2464
11.3671
11.4599
11.5341
11.6059
1.00001
1.00003
1.00009
1.00019
1.00055
1.00113
1.00318
1.00641
1.01869
1.036
1.11736
1.21731
1.78409
2.83542
6.53483
11.5188
11.0809
10.6806
10.7321
10.9025
11.0937
11.1943
11.2667
11.3218
11.3855
1.00001
1.00002
1.00008
1.00018
1.0005
1.00102
1.00288
1.00581
1.0168
1.03298
1.10339
1.19701
1.68193
2.59784
5.77691
11.4426
11.014
10.5651
10.6024
10.7406
10.9059
10.9775
11.0159
11.0325
11.0675
1
1.00002
1.00007
1.00016
1.00045
1.00091
1.00258
1.00522
1.01502
1.02962
1.09166
1.17662
1.59797
2.39931
5.20704
11.0916
10.847
10.4421
10.4557
10.5456
10.6733
10.7028
10.6884
10.6282
10.5671
1
1.00002
1.00006
1.00014
1.00039
1.00079
1.00224
1.00449
1.01318
1.02488
1.08249
1.14899
1.53355
2.21994
4.72188
10.3837
10.545
10.3647
10.2921
10.3295
10.3938
10.3722
10.2768
10.0535
9.70611
1.00001
1.00004
1.00012
1.00025
1.00072
1.00147
1.00418
1.00827
1.02522
1.04562
1.16373
1.29352
2.10719
3.6438
8.81823
11.4838
11.2242
11.0419
11.1174
11.3358
11.577
11.7301
11.8457
11.938
12.0117
1.00001
1.00003
1.00011
1.00025
1.00071
1.00145
1.00413
1.00815
1.02491
1.04498
1.16179
1.28934
2.09492
3.60809
8.7281
11.4834
11.2169
11.0297
11.1066
11.3267
11.5672
11.72
11.8371
11.9308
12.0059
1.00001
1.00003
1.00011
1.00024
1.00069
1.00141
1.00401
1.00792
1.02428
1.04366
1.15777
1.2804
2.06987
3.5301
8.52707
11.482
11.1974
10.9956
11.0728
11.2921
11.5286
11.6777
11.7937
11.8859
11.9597
1.00001
1.00003
1.00011
1.00023
1.00066
1.00135
1.00385
1.00756
1.02333
1.04166
1.15164
1.26686
2.03101
3.41072
8.2132
11.4857
11.1705
10.9414
11.0165
11.231
11.4605
11.6034
11.7151
11.8037
11.8766
1.00001
1.00003
1.0001
1.00022
1.00063
1.00128
1.00365
1.00718
1.02208
1.03949
1.14333
1.25142
1.96809
3.25324
7.77652
11.4985
11.1416
10.8704
10.941
11.1472
11.3676
11.5012
11.6057
11.6893
11.7619
1.00001
1.00003
1.0001
1.00021
1.00059
1.0012
1.00342
1.00678
1.02054
1.0373
1.13236
1.23412
1.88441
3.05888
7.2125
11.5189
11.1129
10.7823
10.8453
11.0377
11.2464
11.3671
11.4599
11.5341
11.6059
1.00001
1.00003
1.00009
1.00019
1.00055
1.00113
1.00318
1.00641
1.01869
1.036
1.11736
1.21731
1.78409
2.83542
6.53482
11.5188
11.0809
10.6806
10.7321
10.9025
11.0937
11.1943
11.2667
11.3218
11.3855
1.00001
1.00002
1.00008
1.00018
1.0005
1.00102
1.00288
1.00581
1.0168
1.03298
1.10339
1.19701
1.68193
2.59784
5.7769
11.4426
11.014
10.5651
10.6024
10.7406
10.9059
10.9775
11.0159
11.0325
11.0675
1
1.00002
1.00007
1.00016
1.00045
1.00091
1.00258
1.00522
1.01502
1.02962
1.09166
1.17662
1.59797
2.39931
5.20703
11.0916
10.847
10.4421
10.4557
10.5456
10.6733
10.7028
10.6884
10.6282
10.5671
1
1.00002
1.00006
1.00014
1.00039
1.00079
1.00224
1.00449
1.01318
1.02488
1.08249
1.14899
1.53355
2.21994
4.72188
10.3837
10.545
10.3647
10.2921
10.3295
10.3938
10.3722
10.2768
10.0535
9.70611
1.00001
1.00004
1.00012
1.00025
1.00072
1.00147
1.00418
1.00827
1.02522
1.04562
1.16373
1.29352
2.10719
3.6438
8.81823
11.4838
11.2242
11.0419
11.1174
11.3358
11.577
11.7301
11.8457
11.938
12.0117
1.00001
1.00003
1.00011
1.00025
1.00071
1.00145
1.00413
1.00815
1.02491
1.04498
1.16179
1.28934
2.09492
3.60808
8.7281
11.4834
11.2169
11.0297
11.1066
11.3267
11.5672
11.72
11.8371
11.9308
12.0059
1.00001
1.00003
1.00011
1.00024
1.00069
1.00141
1.00401
1.00792
1.02428
1.04366
1.15777
1.2804
2.06987
3.5301
8.52707
11.482
11.1974
10.9956
11.0728
11.2921
11.5286
11.6777
11.7937
11.8859
11.9597
1.00001
1.00003
1.00011
1.00023
1.00066
1.00135
1.00385
1.00756
1.02333
1.04166
1.15164
1.26686
2.03101
3.41072
8.2132
11.4857
11.1705
10.9414
11.0165
11.231
11.4605
11.6034
11.7151
11.8037
11.8766
1.00001
1.00003
1.0001
1.00022
1.00063
1.00128
1.00365
1.00718
1.02208
1.03949
1.14333
1.25142
1.96809
3.25324
7.77652
11.4985
11.1416
10.8704
10.941
11.1472
11.3676
11.5012
11.6057
11.6893
11.7619
1.00001
1.00003
1.0001
1.00021
1.00059
1.0012
1.00342
1.00678
1.02054
1.0373
1.13236
1.23412
1.88441
3.05888
7.2125
11.5189
11.1129
10.7823
10.8453
11.0377
11.2464
11.3671
11.4599
11.5341
11.6059
1.00001
1.00003
1.00009
1.00019
1.00055
1.00113
1.00318
1.00641
1.01869
1.036
1.11736
1.21731
1.78409
2.83542
6.53481
11.5188
11.0809
10.6806
10.7321
10.9025
11.0937
11.1943
11.2667
11.3218
11.3855
1.00001
1.00002
1.00008
1.00018
1.0005
1.00102
1.00288
1.00581
1.0168
1.03298
1.10339
1.19701
1.68193
2.59784
5.7769
11.4426
11.014
10.5651
10.6024
10.7406
10.9059
10.9775
11.0159
11.0325
11.0675
1
1.00002
1.00007
1.00016
1.00045
1.00091
1.00258
1.00522
1.01502
1.02962
1.09166
1.17662
1.59797
2.39931
5.20703
11.0916
10.847
10.4421
10.4557
10.5456
10.6733
10.7028
10.6884
10.6282
10.5671
1
1.00002
1.00006
1.00014
1.00039
1.00079
1.00224
1.00449
1.01318
1.02488
1.08249
1.14899
1.53355
2.21994
4.72188
10.3837
10.545
10.3647
10.2921
10.3295
10.3938
10.3722
10.2768
10.0535
9.70611
1.00001
1.00004
1.00012
1.00025
1.00072
1.00147
1.00418
1.00827
1.02522
1.04562
1.16373
1.29352
2.10719
3.64379
8.8182
11.4838
11.2242
11.0419
11.1174
11.3358
11.577
11.7301
11.8457
11.938
12.0116
1.00001
1.00003
1.00011
1.00025
1.00071
1.00145
1.00413
1.00815
1.02491
1.04498
1.16178
1.28933
2.09491
3.60807
8.72807
11.4834
11.2169
11.0297
11.1066
11.3267
11.5672
11.72
11.8371
11.9308
12.0059
1.00001
1.00003
1.00011
1.00024
1.00069
1.00141
1.00401
1.00792
1.02428
1.04366
1.15777
1.2804
2.06986
3.53009
8.52704
11.482
11.1974
10.9956
11.0728
11.2921
11.5286
11.6777
11.7937
11.8859
11.9597
1.00001
1.00003
1.00011
1.00023
1.00066
1.00135
1.00385
1.00756
1.02333
1.04166
1.15163
1.26686
2.031
3.41071
8.21316
11.4857
11.1705
10.9414
11.0165
11.231
11.4605
11.6034
11.7151
11.8037
11.8766
1.00001
1.00003
1.0001
1.00022
1.00063
1.00128
1.00365
1.00718
1.02208
1.03949
1.14333
1.25142
1.96808
3.25322
7.77648
11.4985
11.1416
10.8703
10.941
11.1472
11.3675
11.5012
11.6057
11.6892
11.7619
1.00001
1.00003
1.0001
1.00021
1.00059
1.0012
1.00342
1.00678
1.02054
1.0373
1.13236
1.23412
1.8844
3.05887
7.21246
11.5189
11.1129
10.7823
10.8453
11.0377
11.2463
11.3671
11.4599
11.5341
11.6059
1.00001
1.00003
1.00009
1.00019
1.00055
1.00113
1.00318
1.00641
1.01869
1.036
1.11736
1.21731
1.78408
2.83541
6.53477
11.5188
11.0809
10.6806
10.7321
10.9025
11.0937
11.1943
11.2667
11.3218
11.3855
1.00001
1.00002
1.00008
1.00018
1.0005
1.00102
1.00288
1.00581
1.0168
1.03298
1.10339
1.19701
1.68192
2.59783
5.77686
11.4426
11.014
10.5651
10.6024
10.7405
10.9059
10.9775
11.0158
11.0325
11.0675
1
1.00002
1.00007
1.00016
1.00045
1.00091
1.00258
1.00522
1.01502
1.02962
1.09166
1.17662
1.59797
2.3993
5.20701
11.0916
10.847
10.4421
10.4557
10.5456
10.6733
10.7028
10.6884
10.6282
10.5671
1
1.00002
1.00006
1.00014
1.00039
1.00079
1.00224
1.00448
1.01318
1.02488
1.08249
1.14898
1.53355
2.21993
4.72186
10.3837
10.545
10.3647
10.2921
10.3295
10.3938
10.3722
10.2768
10.0535
9.7061
1.00001
1.00003
1.00011
1.00025
1.00071
1.00146
1.00417
1.00826
1.02521
1.0456
1.16371
1.29346
2.1071
3.64349
8.81761
11.4839
11.2242
11.0419
11.1173
11.3358
11.5769
11.73
11.8456
11.9379
12.0116
1.00001
1.00003
1.00011
1.00024
1.0007
1.00144
1.00412
1.00814
1.0249
1.04496
1.16176
1.28927
2.09484
3.60778
8.72749
11.4835
11.2168
11.0296
11.1065
11.3266
11.5671
11.7199
11.8371
11.9307
12.0058
1.00001
1.00003
1.00011
1.00024
1.00068
1.0014
1.00401
1.00791
1.02427
1.04364
1.15775
1.28034
2.06979
3.52981
8.52647
11.4821
11.1974
10.9956
11.0727
11.292
11.5285
11.6776
11.7936
11.8858
11.9596
1.00001
1.00003
1.0001
1.00023
1.00065
1.00134
1.00384
1.00755
1.02332
1.04164
1.15161
1.2668
2.03093
3.41043
8.21261
11.4858
11.1704
10.9413
11.0164
11.2309
11.4604
11.6033
11.715
11.8036
11.8765
1.00001
1.00003
1.0001
1.00021
1.00062
1.00127
1.00364
1.00717
1.02207
1.03947
1.1433
1.25137
1.96801
3.25297
7.77593
11.4986
11.1416
10.8703
10.9409
11.1471
11.3675
11.5011
11.6056
11.6892
11.7618
1.00001
1.00003
1.00009
1.0002
1.00058
1.00119
1.00341
1.00677
1.02053
1.03726
1.13236
1.23404
1.8844
3.05864
7.21197
11.519
11.1128
10.7822
10.8452
11.0376
11.2463
11.367
11.4598
11.534
11.6058
1.00001
1.00002
1.00009
1.00019
1.00054
1.00112
1.00317
1.0064
1.01868
1.03598
1.11736
1.21724
1.78406
2.83522
6.53435
11.5188
11.0808
10.6805
10.732
10.9024
11.0936
11.1942
11.2666
11.3217
11.3854
1
1.00002
1.00008
1.00017
1.00049
1.00101
1.00287
1.0058
1.01679
1.03297
1.10337
1.19696
1.68188
2.59766
5.77645
11.4425
11.0139
10.565
10.6023
10.7405
10.9058
10.9774
11.0158
11.0324
11.0674
1
1.00002
1.00007
1.00015
1.00044
1.00091
1.00257
1.00521
1.01501
1.0296
1.09165
1.17658
1.59794
2.39918
5.20679
11.0914
10.8469
10.442
10.4556
10.5455
10.6732
10.7027
10.6884
10.6281
10.567
1
1.00002
1.00006
1.00013
1.00038
1.00078
1.00223
1.00447
1.01317
1.02485
1.08249
1.14894
1.53356
2.2198
4.72169
10.3833
10.5449
10.3646
10.292
10.3294
10.3937
10.3721
10.2767
10.0534
9.70602
1
1.00002
1.00004
1.00013
1.00028
1.00081
1.00165
1.00474
1.00932
1.02877
1.05166
1.18607
1.33989
2.25531
4.03088
9.4614
10.3966
10.2724
10.1095
10.1008
10.0828
9.99431
9.74285
9.15828
7.68717
1
1.00001
1.00004
1.00012
1.00025
1.00071
1.00145
1.00412
1.00819
1.02473
1.04526
1.15928
1.28806
2.07014
3.53878
8.33811
10.289
10.1762
9.9387
9.85778
9.7787
9.59787
9.20483
8.41655
6.91495
1
1.00001
1.00003
1.0001
1.00021
1.0006
1.00122
1.00349
1.00687
1.02099
1.03763
1.13522
1.237
1.89921
3.07382
7.10632
10.2024
10.0753
9.78011
9.61577
9.48199
9.22241
8.74195
7.94509
6.76099
1
1.00001
1.00003
1.00008
1.00018
1.00051
1.00104
1.00296
1.00597
1.01726
1.0338
1.10676
1.20112
1.70356
2.63245
5.78305
10.0441
9.94645
9.65215
9.39045
9.19632
8.89717
8.4041
7.67472
6.74056
1
1.00001
1.00002
1.00007
1.00014
1.00041
1.00085
1.00241
1.00487
1.01401
1.02772
1.0844
1.16693
1.5409
2.26056
4.65648
9.59302
9.72969
9.53536
9.19209
8.9427
8.62564
8.15798
7.50936
6.72675
1
1
1.00002
1.00004
1.00013
1.00028
1.00079
1.00161
1.00458
1.00901
1.02753
1.04961
1.17626
1.3204
2.17148
3.77991
8.57943
9.47812
9.34199
9.03038
8.72986
8.39871
7.96408
7.38689
6.70626
1
1
1.00001
1.00003
1.00011
1.00022
1.00063
1.00129
1.00366
1.00722
1.02199
1.03947
1.14096
1.24758
1.93363
3.1322
7.06673
9.22189
9.14524
8.90504
8.55722
8.21136
7.80067
7.28207
6.67995
0.999999
1
1.00001
1.00002
1.00008
1.00017
1.0005
1.00103
1.00291
1.00587
1.01701
1.03322
1.10485
1.19904
1.68549
2.58363
5.55036
8.99115
8.98859
8.81766
8.44618
8.06309
7.66445
7.19308
6.65615
0.999997
0.999999
1
1.00002
1.00005
1.00015
1.00032
1.0009
1.00183
1.0052
1.01027
1.03113
1.05691
1.19461
1.38021
2.24952
4.03834
8.44318
8.87299
8.72151
8.3639
7.94572
7.55111
7.1167
6.63343
0.999996
0.999997
1
1.00001
1.00003
1.00011
1.00024
1.00067
1.00136
1.00388
1.0076
1.0234
1.04163
1.14908
1.26417
1.9819
3.24112
7.1581
8.62994
8.54306
8.28099
7.85518
7.46103
7.05615
6.6133
0.999994
0.999995
0.999999
1
1.00003
1.00007
1.0002
1.00041
1.00116
1.00226
1.007
1.01221
1.04418
1.07231
1.27559
1.54939
2.76158
5.45708
8.32888
8.3514
8.19743
7.83236
7.39952
7.00093
6.59096
0.999993
0.999994
0.999997
1
1.00002
1.00005
1.00015
1.00031
1.00088
1.0018
1.00508
1.01017
1.02995
1.05654
1.18482
1.36506
2.18278
3.78071
7.72417
8.24524
8.12244
7.8111
7.35843
6.95823
6.57146
0.999993
0.999993
0.999994
1
1.00001
1.00004
1.00009
1.00025
1.00053
1.00149
1.00296
1.00877
1.0161
1.05443
1.09295
1.34082
1.69562
3.15488
6.29484
8.01578
7.97152
7.76982
7.35157
6.93336
6.55549
0.999992
0.999992
0.999993
0.999997
1
1.00003
1.00006
1.00018
1.00038
1.00108
1.00219
1.0062
1.01214
1.03725
1.06658
1.23315
1.45494
2.45554
4.53942
7.58
7.81966
7.69224
7.36152
6.93373
6.55191
0.999992
0.999992
0.999993
0.999994
1
1.00001
1.00005
1.00011
1.00031
1.00065
1.00182
1.00368
1.01047
1.02076
1.06159
1.12284
1.37594
1.85591
3.3539
6.59802
7.63323
7.56935
7.35138
6.94521
6.55569
0.999991
0.999991
0.999992
0.999993
0.999998
1.00001
1.00003
1.00007
1.00021
1.00045
1.00125
1.00253
1.00713
1.014
1.04249
1.07714
1.263
1.5299
2.63301
4.95584
7.28352
7.41097
7.30083
6.99618
6.57241
0.999991
0.999991
0.999991
0.999993
0.999995
1
1.00001
1.00005
1.00012
1.00035
1.00072
1.00201
1.00406
1.01149
1.02292
1.06667
1.13635
1.40243
1.92067
3.43713
6.52727
7.26632
7.2057
7.00234
6.61298
0.999991
0.999991
0.999991
0.999992
0.999993
0.999998
1.00001
1.00003
1.00008
1.00023
1.00048
1.00134
1.00272
1.00761
1.0151
1.04457
1.0839
1.27093
1.56768
2.66734
5.00859
6.96203
7.06847
6.97216
6.70748
0.999991
0.999991
0.999991
0.999991
0.999993
0.999995
1
1.00001
1.00006
1.00013
1.00036
1.00074
1.00207
1.00417
1.01176
1.02347
1.06785
1.13927
1.40648
1.92324
3.39741
6.28666
6.94081
6.89771
6.72694
0.999991
0.999991
0.999991
0.999991
0.999992
0.999994
0.999997
1.00001
1.00003
1.00009
1.0002
1.00055
1.00113
1.00314
1.00617
1.01842
1.03301
1.11287
1.19749
1.69547
2.4966
4.91106
6.65436
6.77813
6.69781
0.999991
0.99999
0.99999
0.999991
0.999991
0.999992
0.999995
1
1.00001
1.00006
1.00013
1.00036
1.00074
1.00205
1.00414
1.01156
1.0232
1.06616
1.13667
1.39373
1.88665
3.27523
5.98493
6.64594
6.61925
0.999991
0.99999
0.99999
0.99999
0.999991
0.999991
0.999993
0.999997
1.00001
1.00003
1.00009
1.00019
1.00053
1.00108
1.00301
1.00593
1.01752
1.03169
1.10686
1.18795
1.64866
2.39381
4.61593
6.33522
6.51718
0.999991
0.99999
0.99999
0.99999
0.999991
0.999991
0.999992
0.999994
1
1.00001
1.00005
1.00012
1.00034
1.0007
1.00193
1.0039
1.01081
1.02177
1.06121
1.12719
1.36004
1.81007
3.07228
5.60188
6.36289
0.999991
0.99999
0.99999
0.99999
0.99999
0.999991
0.999992
0.999993
0.999997
1
1.00003
1.00007
1.00021
1.00043
1.00119
1.00242
1.00664
1.01328
1.03805
1.07246
1.22629
1.45847
2.33647
4.12093
5.9744
0.999991
0.99999
0.99999
0.99999
0.99999
0.99999
0.999991
0.999992
0.999995
0.999999
1.00001
1.00004
1.00012
1.00026
1.00072
1.00146
1.00399
1.00803
1.02253
1.04353
1.13283
1.25455
1.78661
2.72327
5.12186
0.999991
0.99999
0.99999
0.99999
0.99999
0.99999
0.999991
0.999991
0.999992
0.999996
1
1.00002
1.00006
1.00017
1.00036
1.001
1.00203
1.00558
1.01103
1.03208
1.05937
1.18929
1.3712
2.0798
3.4477
0.999991
0.99999
0.99999
0.99999
0.99999
0.99999
0.99999
0.999991
0.999992
0.999993
0.999999
1.00001
1.00004
1.00009
1.00025
1.00052
1.00143
1.00288
1.00798
1.01597
1.04502
1.09194
1.26002
1.57737
2.50164
0.999991
0.99999
0.99999
0.99999
0.99999
0.99999
0.99999
0.999991
0.999991
0.999992
0.999995
1
1.00001
1.00006
1.00012
1.00035
1.00072
1.00197
1.00398
1.01099
1.02183
1.06206
1.12514
1.35613
1.78315
0.999991
0.99999
0.99999
0.99999
0.99999
0.99999
0.99999
0.99999
0.999991
0.999992
0.999993
0.999997
1.00001
1.00003
1.00007
1.00021
1.00044
1.00119
1.00242
1.00658
1.01323
1.0367
1.074
1.21135
1.45259
0.999991
0.99999
0.99999
0.99999
0.99999
0.99999
0.99999
0.99999
0.999991
0.999991
0.999992
0.999994
1
1.00001
1.00005
1.00011
1.00031
1.00064
1.00176
1.00355
1.00983
1.01956
1.05565
1.11247
1.32344
0.999991
0.99999
0.99999
0.99999
0.99999
0.99999
0.99999
0.99999
0.99999
0.999991
0.999991
0.999993
0.999997
1.00001
1.00003
1.00009
1.00019
1.00053
1.00109
1.00305
1.00614
1.01751
1.034
1.10553
1.20005
0.999991
0.99999
0.99999
0.99999
0.99999
0.99999
0.99999
0.99999
0.99999
0.999991
0.999991
0.999992
0.999996
1
1.00002
1.00006
1.00018
1.00037
1.00107
1.00217
1.00621
1.01215
1.03787
1.0676
1.24109
0.999991
0.99999
0.99999
0.99999
0.99999
0.99999
0.99999
0.99999
0.99999
0.999991
0.999991
0.999992
0.999995
1
1.00002
1.00005
1.00016
1.00033
1.00096
1.00195
1.00567
1.01104
1.03525
1.0622
1.23048
0.999991
0.99999
0.99999
0.99999
0.99999
0.99999
0.99999
0.99999
0.99999
0.999991
0.999991
0.999992
0.999994
1
1.00001
1.00005
1.00012
1.00037
1.00076
1.00224
1.00438
1.01401
1.02485
1.09145
1.16139
0.999991
0.99999
0.99999
0.99999
0.99999
0.99999
0.99999
0.99999
0.99999
0.99999
0.999991
0.999992
0.999995
0.999999
1.00002
1.00004
1.00014
1.00029
1.00087
1.00172
1.0054
1.0096
1.03489
1.05768
1.22489
0.999991
0.99999
0.99999
0.99999
0.99999
0.99999
0.99999
0.99999
0.99999
0.99999
0.999991
0.999992
0.999994
1
1.00001
1.00005
1.00012
1.00035
1.00073
1.00217
1.00419
1.0137
1.024
1.08949
1.1568
0.999991
0.99999
0.99999
0.99999
0.99999
0.99999
0.99999
0.99999
0.99999
0.99999
0.999991
0.999992
0.999995
0.999999
1.00002
1.00004
1.00014
1.0003
1.00089
1.00181
1.00535
1.0104
1.03364
1.05905
1.22216
0.999991
0.99999
0.99999
0.99999
0.99999
0.99999
0.99999
0.99999
0.99999
0.99999
0.999991
0.999992
0.999995
1
1.00002
1.00004
1.00015
1.00031
1.0009
1.00182
1.00536
1.01038
1.03374
1.05893
1.22219
0.999991
0.99999
0.99999
0.99999
0.99999
0.99999
0.99999
0.99999
0.99999
0.999991
0.999991
0.999992
0.999994
1
1.00001
1.00005
1.00012
1.00037
1.00075
1.00221
1.00439
1.01356
1.02489
1.08759
1.15671
0.999991
0.99999
0.99999
0.99999
0.99999
0.99999
0.99999
0.99999
0.99999
0.999991
0.999991
0.999992
0.999994
1
1.00001
1.00006
1.00013
1.00038
1.0008
1.0023
1.00467
1.01368
1.02699
1.08553
1.16204
1
1.00002
1.00005
1.00014
1.00029
1.00082
1.00166
1.00475
1.00933
1.02878
1.05168
1.18611
1.33994
2.25536
4.0311
9.46176
10.3967
10.2725
10.1096
10.1009
10.0829
9.99439
9.74293
9.15836
7.68724
1
1.00002
1.00004
1.00012
1.00025
1.00072
1.00146
1.00413
1.00821
1.02474
1.04529
1.15928
1.28813
2.07016
3.53898
8.33848
10.289
10.1763
9.93877
9.85785
9.77878
9.59795
9.20491
8.41663
6.91503
1
1.00001
1.00004
1.0001
1.00022
1.00061
1.00123
1.00349
1.00688
1.021
1.03765
1.13524
1.23704
1.89925
3.07401
7.1067
10.2024
10.0753
9.78018
9.61584
9.48206
9.22248
8.74203
7.94517
6.76108
1
1.00001
1.00003
1.00009
1.00018
1.00052
1.00105
1.00296
1.00598
1.01727
1.03382
1.10678
1.20117
1.70361
2.63262
5.78344
10.0442
9.94651
9.6522
9.39051
9.19639
8.89724
8.40417
7.67479
6.74064
1
1.00001
1.00002
1.00007
1.00015
1.00042
1.00086
1.00242
1.00488
1.01402
1.02773
1.08442
1.16697
1.54093
2.26067
4.65669
9.59325
9.72978
9.53542
9.19215
8.94277
8.62571
8.15804
7.50943
6.72683
1
1.00001
1.00002
1.00005
1.00014
1.00028
1.0008
1.00161
1.00459
1.00902
1.02754
1.04963
1.17629
1.32046
2.17156
3.78013
8.57981
9.4782
9.34206
9.03043
8.72992
8.39877
7.96414
7.38695
6.70633
1
1.00001
1.00002
1.00004
1.00011
1.00023
1.00064
1.0013
1.00367
1.00723
1.022
1.03949
1.14098
1.24763
1.93368
3.1324
7.06712
9.22195
9.14529
8.90508
8.55727
8.2114
7.80073
7.28214
6.68001
1
1
1.00001
1.00003
1.00009
1.00018
1.00051
1.00104
1.00292
1.00588
1.01702
1.03324
1.10486
1.19909
1.68553
2.5838
5.55075
8.99125
8.98866
8.81771
8.4462
8.06313
7.66451
7.19314
6.65621
1
1
1.00001
1.00003
1.00006
1.00016
1.00033
1.00091
1.00184
1.00521
1.01028
1.03114
1.05693
1.19463