/*--------------------------------*- C++ -*----------------------------------*\
| =========                 |                                                 |
| \\      /  F ield         | OpenFOAM: The Open Source CFD Toolbox           |
|  \\    /   O peration     | Version:  4.1                                   |
|   \\  /    A nd           | Web:      www.OpenFOAM.org                      |
|    \\/     M anipulation  |                                                 |
\*---------------------------------------------------------------------------*/
FoamFile
{
    version     2.0;
    format      ascii;
    class       volScalarField;
    location    "0.7";
    object      Ma;
}
// * * * * * * * * * * * * * * * * * * * * * * * * * * * * * * * * * * * * * //

dimensions      [0 0 0 0 0 0 0];

internalField   nonuniform List<scalar> 
18000
(
5.30135e-12
5.24222e-12
5.17188e-12
5.11385e-12
5.05636e-12
4.99959e-12
4.94343e-12
4.88839e-12
4.83412e-12
4.78161e-12
6.61711e-12
6.38711e-12
6.15482e-12
5.94153e-12
5.73747e-12
5.54174e-12
5.3539e-12
5.17398e-12
5.00082e-12
4.83827e-12
8.35807e-12
7.85593e-12
7.37791e-12
6.94154e-12
6.53558e-12
6.1583e-12
5.80784e-12
5.48071e-12
5.17615e-12
4.89619e-12
1.06923e-11
9.75826e-12
8.9118e-12
8.1538e-12
7.47369e-12
6.86145e-12
6.30928e-12
5.81034e-12
5.35872e-12
4.955e-12
1.38695e-11
1.22517e-11
1.08499e-11
9.63439e-12
8.58138e-12
7.66496e-12
6.86505e-12
6.1649e-12
5.54955e-12
5.01497e-12
1.82632e-11
1.55615e-11
1.33243e-11
1.14547e-11
9.89522e-12
8.58619e-12
7.48221e-12
6.54629e-12
5.74873e-12
5.07598e-12
2.44363e-11
2.00206e-11
1.65144e-11
1.37104e-11
1.14624e-11
9.64618e-12
8.1682e-12
6.95691e-12
5.95727e-12
5.13796e-12
3.33323e-11
2.61774e-11
2.07669e-11
1.6643e-11
1.34819e-11
1.10337e-11
9.11949e-12
7.6096e-12
6.40801e-12
5.46562e-12
4.73553e-09
4.75626e-09
4.47892e-09
4.22744e-09
4.0006e-09
3.79535e-09
3.609e-09
3.43926e-09
3.28443e-09
3.21132e-09
5.15679e-07
5.71812e-08
4.88128e-08
4.25627e-08
3.73187e-08
3.28928e-08
2.91394e-08
2.59435e-08
2.31235e-08
9.15788e-08
5.63454e-12
5.5683e-12
5.49482e-12
5.4303e-12
5.3671e-12
5.30504e-12
5.24295e-12
5.18288e-12
5.12352e-12
5.06563e-12
7.08473e-12
6.82767e-12
6.57814e-12
6.34165e-12
6.11609e-12
5.89998e-12
5.69386e-12
5.49623e-12
5.30729e-12
5.12805e-12
9.0147e-12
8.45108e-12
7.93301e-12
7.44652e-12
6.99669e-12
6.5798e-12
6.19395e-12
5.83489e-12
5.50118e-12
5.19282e-12
1.16341e-11
1.05808e-11
9.65007e-12
8.80017e-12
8.04133e-12
7.36146e-12
6.75132e-12
6.20239e-12
5.70599e-12
5.25838e-12
1.52501e-11
1.34115e-11
1.18462e-11
1.04706e-11
9.28665e-12
8.26293e-12
7.3741e-12
6.59995e-12
5.9223e-12
5.32669e-12
2.03361e-11
1.72271e-11
1.46874e-11
1.25473e-11
1.07784e-11
9.30528e-12
8.07189e-12
7.03257e-12
6.15161e-12
5.3973e-12
2.76266e-11
2.24616e-11
1.84058e-11
1.51522e-11
1.25768e-11
1.05161e-11
8.85377e-12
7.50272e-12
6.39318e-12
5.47021e-12
3.8343e-11
2.97611e-11
2.33371e-11
1.84531e-11
1.47612e-11
1.19316e-11
9.73816e-12
8.01775e-12
6.65282e-12
5.54921e-12
1.67808e-10
3.73896e-10
3.07389e-10
2.54139e-10
2.12427e-10
1.79298e-10
1.52682e-10
1.31073e-10
1.13377e-10
9.99785e-11
3.56198e-07
5.34189e-08
4.66416e-08
4.09433e-08
3.62129e-08
3.22483e-08
2.88957e-08
2.60377e-08
2.35902e-08
2.25096e-08
5.14868e-13
4.93462e-13
3.72715e-13
3.5773e-13
3.43857e-13
3.31442e-13
3.2023e-13
3.1072e-13
3.02202e-13
2.92786e-13
7.13772e-13
6.4453e-13
5.76696e-13
5.26596e-13
4.8128e-13
4.40957e-13
4.04912e-13
3.73881e-13
3.47921e-13
3.07036e-13
8.98875e-13
7.84932e-13
7.68011e-13
6.85718e-13
6.12744e-13
5.49123e-13
4.94692e-13
4.48486e-13
4.07518e-13
3.26517e-13
1.21378e-12
1.06056e-12
1.06517e-12
9.27053e-13
8.08088e-13
7.07845e-13
6.23383e-13
5.52774e-13
4.91096e-13
3.55093e-13
1.72178e-12
1.523e-12
1.49484e-12
1.26344e-12
1.07096e-12
9.14147e-13
7.85715e-13
6.80357e-13
5.90134e-13
3.91405e-13
2.5443e-12
2.26699e-12
2.11335e-12
1.72599e-12
1.41834e-12
1.17621e-12
9.8443e-13
8.31452e-13
7.03393e-13
4.34102e-13
3.88986e-12
3.44015e-12
3.00797e-12
2.3619e-12
1.874e-12
1.50581e-12
1.2239e-12
1.00632e-12
8.30321e-13
4.82684e-13
6.19234e-12
5.2966e-12
4.3127e-12
3.23988e-12
2.47245e-12
1.91842e-12
1.51104e-12
1.2073e-12
9.70659e-13
5.3628e-13
2.65213e-10
1.40439e-11
1.12847e-11
8.22962e-12
6.14241e-12
4.68041e-12
3.63403e-12
2.87097e-12
2.2998e-12
1.73852e-12
3.04328e-07
4.28321e-09
3.16499e-09
2.42952e-09
1.89476e-09
1.49881e-09
1.20083e-09
9.73272e-10
7.97455e-10
6.74467e-10
3.83961e-13
3.60448e-13
1.72019e-13
1.5134e-13
1.31008e-13
1.11896e-13
9.40259e-14
7.76318e-14
6.31017e-14
3.72952e-14
5.31687e-13
4.59592e-13
3.85894e-13
3.36004e-13
2.89392e-13
2.47743e-13
2.11006e-13
1.79291e-13
1.52815e-13
7.95299e-14
5.95622e-13
4.89358e-13
5.23496e-13
4.55806e-13
3.95581e-13
3.44368e-13
3.0178e-13
2.67764e-13
2.39057e-13
1.19596e-13
7.29693e-13
6.35487e-13
7.60602e-13
6.58178e-13
5.69176e-13
4.95672e-13
4.3506e-13
3.85772e-13
3.43293e-13
1.71003e-13
9.5897e-13
9.45035e-13
1.10788e-12
9.42554e-13
8.0298e-13
6.89397e-13
5.96827e-13
5.21737e-13
4.56528e-13
2.24432e-13
1.34484e-12
1.48716e-12
1.6107e-12
1.33544e-12
1.11058e-12
9.32619e-13
7.90213e-13
6.76732e-13
5.79488e-13
2.8098e-13
1.98482e-12
2.36501e-12
2.33914e-12
1.87564e-12
1.51367e-12
1.23629e-12
1.02049e-12
8.52099e-13
7.12504e-13
3.40743e-13
3.14656e-12
3.76419e-12
3.39864e-12
2.62003e-12
2.04115e-12
1.6148e-12
1.29432e-12
1.05084e-12
8.56562e-13
4.03682e-13
2.93155e-10
6.96753e-12
4.87886e-12
3.60638e-12
2.70924e-12
2.07357e-12
1.61249e-12
1.27344e-12
1.01153e-12
4.7025e-13
3.01922e-07
1.32254e-09
1.12435e-10
7.46301e-11
5.10402e-11
3.57032e-11
2.54928e-11
1.85453e-11
1.37195e-11
1.02752e-11
3.83849e-13
3.59898e-13
1.72104e-13
1.51289e-13
1.30879e-13
1.11685e-13
9.40712e-14
7.76223e-14
6.28319e-14
3.68834e-14
5.31826e-13
4.59638e-13
3.86303e-13
3.36425e-13
2.89836e-13
2.47874e-13
2.11063e-13
1.79578e-13
1.5298e-13
7.93368e-14
5.96025e-13
4.89822e-13
5.24539e-13
4.56639e-13
3.96024e-13
3.44912e-13
3.02225e-13
2.67935e-13
2.38997e-13
1.19455e-13
7.30532e-13
6.36711e-13
7.62098e-13
6.59601e-13
5.70284e-13
4.96506e-13
4.35797e-13
3.86366e-13
3.4359e-13
1.70599e-13
9.60194e-13
9.47419e-13
1.11086e-12
9.44914e-13
8.04886e-13
6.91191e-13
5.97989e-13
5.22282e-13
4.57162e-13
2.24738e-13
1.34597e-12
1.49163e-12
1.61528e-12
1.33962e-12
1.11386e-12
9.35384e-13
7.92542e-13
6.78329e-13
5.80821e-13
2.81646e-13
1.98456e-12
2.37326e-12
2.34777e-12
1.88261e-12
1.51951e-12
1.2411e-12
1.02423e-12
8.54921e-13
7.1504e-13
3.4221e-13
3.14643e-12
3.77958e-12
3.41365e-12
2.63227e-12
2.05111e-12
1.6227e-12
1.30054e-12
1.05586e-12
8.60441e-13
4.06284e-13
3.07975e-10
7.34939e-12
4.98556e-12
3.67077e-12
2.74929e-12
2.09888e-12
1.62867e-12
1.28402e-12
1.01849e-12
4.73576e-13
3.20491e-07
1.43563e-09
1.34455e-11
5.50561e-12
3.87773e-12
2.82097e-12
2.1e-12
1.59617e-12
1.22543e-12
5.79104e-13
3.83894e-13
3.59558e-13
1.72641e-13
1.51817e-13
1.31215e-13
1.11959e-13
9.4112e-14
7.79139e-14
6.31949e-14
3.68259e-14
5.32699e-13
4.60113e-13
3.87551e-13
3.37491e-13
2.90774e-13
2.48562e-13
2.11504e-13
1.79856e-13
1.5357e-13
7.98282e-14
5.97897e-13
4.91621e-13
5.26874e-13
4.58547e-13
3.97756e-13
3.46141e-13
3.03107e-13
2.6856e-13
2.3953e-13
1.19976e-13
7.34392e-13
6.40794e-13
7.65925e-13
6.62695e-13
5.72824e-13
4.98411e-13
4.37189e-13
3.87491e-13
3.44314e-13
1.71146e-13
9.67653e-13
9.55039e-13
1.11709e-12
9.49895e-13
8.08851e-13
6.94495e-13
6.0063e-13
5.24367e-13
4.58623e-13
2.25671e-13
1.3599e-12
1.50511e-12
1.62606e-12
1.34781e-12
1.12027e-12
9.40659e-13
7.96756e-13
6.81376e-13
5.8334e-13
2.83368e-13
2.01065e-12
2.39661e-12
2.36615e-12
1.8966e-12
1.53021e-12
1.24964e-12
1.03097e-12
8.60035e-13
7.19031e-13
3.44994e-13
3.1996e-12
3.82168e-12
3.44544e-12
2.65574e-12
2.06867e-12
1.63627e-12
1.31119e-12
1.06393e-12
8.66565e-13
4.10381e-13
3.27411e-10
7.54251e-12
5.04358e-12
3.71104e-12
2.7784e-12
2.12059e-12
1.6449e-12
1.29609e-12
1.02786e-12
4.79894e-13
3.49874e-07
1.54903e-09
1.36224e-11
5.14525e-12
3.69264e-12
2.72197e-12
2.04569e-12
1.56569e-12
1.20814e-12
5.60497e-13
3.83865e-13
3.59282e-13
1.73225e-13
1.52452e-13
1.3182e-13
1.12517e-13
9.45946e-14
7.81821e-14
6.36375e-14
4.23003e-14
5.33698e-13
4.6075e-13
3.89193e-13
3.3876e-13
2.91895e-13
2.49656e-13
2.12399e-13
1.80522e-13
1.53856e-13
8.18035e-14
6.00177e-13
4.93714e-13
5.2958e-13
4.60934e-13
3.99661e-13
3.47714e-13
3.0421e-13
2.69411e-13
2.40327e-13
1.2143e-13
7.38974e-13
6.45579e-13
7.70298e-13
6.66429e-13
5.76021e-13
5.00967e-13
4.39004e-13
3.88768e-13
3.4569e-13
1.72711e-13
9.76535e-13
9.6394e-13
1.1244e-12
9.55753e-13
8.13534e-13
6.98528e-13
6.03951e-13
5.26944e-13
4.60649e-13
2.27755e-13
1.37684e-12
1.52056e-12
1.6386e-12
1.3578e-12
1.12792e-12
9.46964e-13
8.02096e-13
6.85605e-13
5.86505e-13
2.86256e-13
2.04202e-12
2.42385e-12
2.38723e-12
1.91306e-12
1.54297e-12
1.25988e-12
1.03936e-12
8.66704e-13
7.24139e-13
3.49209e-13
3.25119e-12
3.86998e-12
3.48217e-12
2.68324e-12
2.08946e-12
1.65234e-12
1.32428e-12
1.07441e-12
8.74514e-13
4.16222e-13
3.34364e-10
7.54631e-12
5.10688e-12
3.75724e-12
2.81247e-12
2.14632e-12
1.66513e-12
1.31122e-12
1.03963e-12
4.8841e-13
3.7161e-07
1.55947e-09
1.32501e-11
5.21035e-12
3.743e-12
2.75941e-12
2.07443e-12
1.58729e-12
1.22467e-12
5.71863e-13
3.83892e-13
3.58241e-13
1.73522e-13
1.52798e-13
1.32629e-13
1.14519e-13
1.00177e-13
1.32374e-13
4.18931e-13
1.243e-12
5.34235e-13
4.60355e-13
3.8996e-13
3.3969e-13
2.93101e-13
2.51466e-13
2.15574e-13
1.96305e-13
2.91799e-13
8.1545e-13
6.01515e-13
4.94004e-13
5.30883e-13
4.62225e-13
4.01217e-13
3.49952e-13
3.07918e-13
2.77587e-13
2.94382e-13
5.48962e-13
7.41952e-13
6.46773e-13
7.72252e-13
6.68339e-13
5.77974e-13
5.03534e-13
4.43291e-13
3.95635e-13
3.7147e-13
4.15073e-13
9.82059e-13
9.66291e-13
1.12713e-12
9.58498e-13
8.16259e-13
7.01433e-13
6.08678e-13
5.34094e-13
4.78284e-13
3.66334e-13
1.38599e-12
1.52469e-12
1.64277e-12
1.36207e-12
1.13219e-12
9.51566e-13
8.08422e-13
6.94469e-13
6.01999e-13
3.71769e-13
2.05679e-12
2.4312e-12
2.3943e-12
1.92008e-12
1.54968e-12
1.26692e-12
1.04776e-12
8.77677e-13
7.40019e-13
4.08202e-13
3.21725e-12
3.88336e-12
3.49474e-12
2.69539e-12
2.10059e-12
1.6627e-12
1.33546e-12
1.08873e-12
8.92787e-13
4.62087e-13
2.42001e-10
6.77406e-12
5.12428e-12
3.77781e-12
2.83035e-12
2.16247e-12
1.68162e-12
1.33025e-12
1.06059e-12
5.27716e-13
3.06593e-07
8.80877e-10
9.65949e-12
5.22724e-12
3.76966e-12
2.78327e-12
2.09739e-12
1.61161e-12
1.25014e-12
6.08887e-13
4.001e-13
4.32574e-13
2.38169e-13
1.57162e-13
2.12477e-13
5.61056e-13
1.23739e-12
4.91455e-12
1.86462e-11
4.77016e-11
5.69193e-13
5.92223e-13
4.72644e-13
3.62854e-13
2.9857e-13
5.05503e-13
9.7876e-13
3.09672e-12
1.09706e-11
3.13095e-11
6.72598e-13
7.26372e-13
6.62235e-13
5.21095e-13
3.97874e-13
4.57223e-13
8.91359e-13
2.13453e-12
7.02382e-12
2.05386e-11
8.60135e-13
9.7574e-13
9.46745e-13
7.6028e-13
5.89114e-13
5.23718e-13
8.4276e-13
1.60867e-12
4.87609e-12
1.3928e-11
1.16218e-12
1.37405e-12
1.34017e-12
1.08009e-12
8.48804e-13
6.89739e-13
8.1282e-13
1.35212e-12
3.63856e-12
9.76493e-12
1.64096e-12
1.9931e-12
1.88844e-12
1.50567e-12
1.18126e-12
9.34767e-13
8.88427e-13
1.35727e-12
2.88634e-12
7.06115e-12
2.39418e-12
2.95088e-12
2.66225e-12
2.07564e-12
1.60753e-12
1.24991e-12
1.05791e-12
1.30192e-12
2.41296e-12
5.25269e-12
3.54032e-12
4.43355e-12
3.76741e-12
2.84711e-12
2.15491e-12
1.64264e-12
1.30949e-12
1.32769e-12
2.11033e-12
4.012e-12
1.09578e-10
6.17842e-12
5.36617e-12
3.90396e-12
2.86423e-12
2.12809e-12
1.63261e-12
1.44627e-12
1.91353e-12
3.1455e-12
6.06889e-08
1.67496e-09
6.25929e-12
5.27017e-12
3.76359e-12
2.71965e-12
2.02242e-12
1.64375e-12
1.81437e-12
2.5399e-12
2.51254e-12
2.35981e-12
1.50778e-12
1.61208e-13
2.71052e-12
8.9517e-12
2.82034e-11
1.18388e-10
3.84441e-10
5.40034e-10
3.54032e-12
3.41419e-12
2.52395e-12
1.13952e-12
1.35119e-12
6.39363e-12
2.00667e-11
7.30901e-11
2.29309e-10
3.46796e-10
4.8076e-12
4.66975e-12
3.6904e-12
2.28926e-12
2.45582e-13
4.16505e-12
1.42086e-11
4.81959e-11
1.45303e-10
2.35565e-10
6.47034e-12
6.24358e-12
5.0823e-12
3.56633e-12
1.4026e-12
2.3198e-12
1.00012e-11
3.32682e-11
9.65913e-11
1.65276e-10
8.69955e-12
8.25099e-12
6.77262e-12
5.03667e-12
2.80409e-12
7.70768e-13
6.90294e-12
2.35252e-11
6.66396e-11
1.18899e-10
1.17435e-11
1.08559e-11
8.86129e-12
6.74915e-12
4.30473e-12
1.16078e-12
4.4437e-12
1.6638e-11
4.73232e-11
8.73783e-11
1.59879e-11
1.43115e-11
1.14908e-11
8.78283e-12
5.97939e-12
2.69211e-12
2.42833e-12
1.19196e-11
3.43752e-11
6.5403e-11
2.20702e-11
1.89835e-11
1.48534e-11
1.12413e-11
7.86463e-12
4.29581e-12
1.03847e-12
8.40332e-12
2.53694e-11
4.97131e-11
4.24293e-10
2.54566e-11
1.92388e-11
1.42625e-11
1.00313e-11
6.01085e-12
1.73871e-12
5.67332e-12
1.89237e-11
3.82634e-11
8.10261e-07
2.55933e-09
2.56451e-11
1.80315e-11
1.25447e-11
7.85126e-12
3.25373e-12
3.528e-12
1.41618e-11
2.97364e-11
3.32918e-12
2.99433e-12
1.97133e-12
1.96219e-12
8.49236e-12
3.05331e-11
1.36597e-10
5.41142e-10
1.03056e-09
1.18603e-09
4.40722e-12
4.10649e-12
3.12863e-12
1.64597e-12
5.29607e-12
2.06603e-11
8.32885e-11
3.14283e-10
6.36454e-10
7.17012e-10
5.71588e-12
5.39283e-12
4.43022e-12
2.72733e-12
2.84645e-12
1.36566e-11
5.35229e-11
1.93721e-10
4.12464e-10
4.58553e-10
7.38884e-12
6.94706e-12
5.89997e-12
4.21518e-12
1.94991e-12
8.57946e-12
3.54567e-11
1.24972e-10
2.7577e-10
3.03976e-10
9.57917e-12
8.8756e-12
7.61053e-12
5.85647e-12
3.09949e-12
4.91196e-12
2.36564e-11
8.3207e-11
1.8904e-10
2.0734e-10
1.25197e-11
1.13263e-11
9.65619e-12
7.67622e-12
4.87979e-12
2.5433e-12
1.54061e-11
5.64098e-11
1.32442e-10
1.44831e-10
1.65604e-11
1.45126e-11
1.21646e-11
9.75348e-12
6.80564e-12
2.73575e-12
9.64442e-12
3.87641e-11
9.41289e-11
1.03122e-10
2.22587e-11
1.87479e-11
1.53136e-11
1.21846e-11
8.87128e-12
4.57245e-12
5.44177e-12
2.66687e-11
6.76893e-11
7.45579e-11
2.16366e-10
2.47985e-11
1.93511e-11
1.51004e-11
1.11526e-11
6.67909e-12
2.78412e-12
1.8108e-11
4.90708e-11
5.44992e-11
1.69187e-07
7.88837e-09
4.62686e-11
1.86417e-11
1.37101e-11
8.83904e-12
2.98915e-12
1.18538e-11
3.56891e-11
4.00959e-11
1.02808e-12
1.27952e-12
1.54028e-12
3.20478e-12
8.41739e-12
2.46748e-11
8.60895e-11
2.57126e-10
3.77689e-10
3.06577e-10
1.12187e-12
1.28943e-12
1.41946e-12
2.44014e-12
6.01878e-12
1.72856e-11
5.74557e-11
1.64716e-10
2.30683e-10
1.19677e-10
1.22051e-12
1.34182e-12
1.42501e-12
1.97898e-12
4.33276e-12
1.2197e-11
3.91424e-11
1.08662e-10
1.46516e-10
4.56192e-11
1.32444e-12
1.42366e-12
1.50799e-12
1.80422e-12
3.20345e-12
8.63963e-12
2.7184e-11
7.35461e-11
9.62032e-11
2.3931e-11
1.43535e-12
1.52431e-12
1.62804e-12
1.81117e-12
2.53196e-12
6.14127e-12
1.90672e-11
5.08959e-11
6.46921e-11
1.99124e-11
1.56228e-12
1.6415e-12
1.76419e-12
1.9074e-12
2.23206e-12
4.45703e-12
1.34537e-11
3.59915e-11
4.4309e-11
1.83353e-11
1.71143e-12
1.77668e-12
1.90816e-12
2.04394e-12
2.17982e-12
3.36408e-12
9.52179e-12
2.56147e-11
3.07358e-11
1.66371e-11
1.93654e-12
1.93322e-12
2.06391e-12
2.19533e-12
2.25463e-12
2.76258e-12
6.81311e-12
1.83712e-11
2.15176e-11
1.48641e-11
5.60421e-10
8.69494e-12
2.22934e-12
2.35514e-12
2.38868e-12
2.51946e-12
4.96543e-12
1.32596e-11
1.51292e-11
1.31991e-11
2.88339e-07
8.88749e-09
2.65268e-11
2.56653e-12
2.54108e-12
2.49074e-12
3.74457e-12
9.60449e-12
1.06092e-11
1.15915e-11
7.81395e-13
1.48707e-12
1.60547e-12
2.51683e-12
4.13957e-12
6.95053e-12
1.46267e-11
5.5634e-11
2.21951e-10
6.35204e-10
7.17191e-13
1.33571e-12
1.39029e-12
2.14355e-12
3.47893e-12
5.81597e-12
1.11119e-11
3.45986e-11
1.34926e-10
3.67764e-10
6.54446e-13
1.19392e-12
1.19686e-12
1.81708e-12
2.91727e-12
4.82982e-12
8.7752e-12
2.28533e-11
8.58886e-11
2.24856e-10
6.01388e-13
1.0725e-12
1.03587e-12
1.55532e-12
2.45932e-12
4.03272e-12
7.07481e-12
1.60162e-11
5.67326e-11
1.43774e-10
5.55308e-13
9.68383e-13
8.99447e-13
1.33222e-12
2.08299e-12
3.39512e-12
5.78723e-12
1.18135e-11
3.8589e-11
9.52387e-11
5.16025e-13
8.79412e-13
7.85002e-13
1.1514e-12
1.78421e-12
2.86846e-12
4.79507e-12
9.06379e-12
2.68963e-11
6.49715e-11
4.82201e-13
8.02929e-13
6.87706e-13
9.98636e-13
1.5287e-12
2.43368e-12
4.02584e-12
7.16995e-12
1.91611e-11
4.54554e-11
6.4833e-13
7.37166e-13
6.06371e-13
8.69312e-13
1.31887e-12
2.08268e-12
3.40631e-12
5.81446e-12
1.39117e-11
3.25146e-11
8.51851e-10
2.46833e-11
5.75743e-13
7.59547e-13
1.14466e-12
1.79245e-12
2.89975e-12
4.80271e-12
1.02745e-11
2.37002e-11
2.86541e-07
2.82048e-08
1.55458e-10
1.79505e-12
9.73772e-13
1.54134e-12
2.47242e-12
4.0144e-12
7.69169e-12
1.75486e-11
1.05378e-12
1.84313e-12
1.62906e-12
2.16945e-12
3.018e-12
4.37072e-12
6.80873e-12
1.2806e-11
5.01125e-11
1.68536e-10
9.80909e-13
1.69e-12
1.46012e-12
1.93656e-12
2.66987e-12
3.8069e-12
5.73635e-12
1.01262e-11
3.54803e-11
1.02355e-10
9.10485e-13
1.543e-12
1.29746e-12
1.71238e-12
2.34565e-12
3.31458e-12
4.86233e-12
7.98335e-12
2.5184e-11
6.58001e-11
8.4878e-13
1.41462e-12
1.15862e-12
1.51829e-12
2.06944e-12
2.89898e-12
4.18469e-12
6.44744e-12
1.81581e-11
4.42488e-11
7.95193e-13
1.30269e-12
1.039e-12
1.35162e-12
1.83606e-12
2.55225e-12
3.64168e-12
5.3602e-12
1.32285e-11
3.07917e-11
7.48462e-13
1.20474e-12
9.35221e-13
1.20881e-12
1.63098e-12
2.25494e-12
3.19871e-12
4.56211e-12
9.73496e-12
2.20005e-11
7.07281e-13
1.1182e-12
8.45378e-13
1.08474e-12
1.45478e-12
2.00386e-12
2.82479e-12
3.94772e-12
7.23231e-12
1.6036e-11
9.3215e-13
1.0429e-12
7.67508e-13
9.76587e-13
1.30157e-12
1.78412e-12
2.5023e-12
3.45532e-12
5.4258e-12
1.18726e-11
1.2383e-09
4.37834e-11
7.50952e-13
8.81401e-13
1.16854e-12
1.59283e-12
2.22766e-12
3.045e-12
4.10616e-12
8.89909e-12
3.51806e-07
4.95563e-08
3.8013e-10
2.44256e-12
1.01292e-12
1.42552e-12
1.98586e-12
2.69235e-12
3.11669e-12
6.72836e-12
1.45675e-12
2.32424e-12
1.64294e-12
1.8966e-12
2.27617e-12
2.82245e-12
3.78698e-12
5.8297e-12
1.40904e-11
2.72045e-11
1.37789e-12
2.17517e-12
1.52572e-12
1.76593e-12
2.11678e-12
2.59897e-12
3.35341e-12
4.78004e-12
1.12043e-11
2.02544e-11
1.2987e-12
2.02681e-12
1.40248e-12
1.62528e-12
1.94882e-12
2.38001e-12
3.00346e-12
4.01524e-12
8.67715e-12
1.52386e-11
1.22871e-12
1.8943e-12
1.29121e-12
1.49657e-12
1.79532e-12
2.18813e-12
2.72744e-12
3.47573e-12
6.68047e-12
1.16312e-11
1.16674e-12
1.7756e-12
1.19125e-12
1.37946e-12
1.65646e-12
2.01676e-12
2.5001e-12
3.08393e-12
5.13356e-12
8.97242e-12
1.1116e-12
1.66864e-12
1.10155e-12
1.27415e-12
1.52817e-12
1.86122e-12
2.30016e-12
2.78508e-12
3.93565e-12
6.96385e-12
1.06256e-12
1.57263e-12
1.02109e-12
1.1786e-12
1.41181e-12
1.71984e-12
2.12706e-12
2.54142e-12
3.01424e-12
5.42591e-12
1.30571e-12
1.48705e-12
9.48569e-13
1.09185e-12
1.30605e-12
1.59098e-12
1.96914e-12
2.3393e-12
2.30317e-12
4.24345e-12
1.55222e-09
6.37865e-11
9.49721e-13
1.01223e-12
1.20925e-12
1.47267e-12
1.82425e-12
2.16249e-12
1.75301e-12
3.32615e-12
2.86691e-07
6.82511e-08
6.00906e-10
2.81506e-12
1.07207e-12
1.36272e-12
1.68634e-12
1.99877e-12
1.32035e-12
2.60017e-12
2.04356e-12
2.93583e-12
1.6048e-12
1.59999e-12
1.66123e-12
1.79891e-12
2.14036e-12
2.92972e-12
6.37559e-12
8.48623e-12
1.96004e-12
2.80062e-12
1.54545e-12
1.55829e-12
1.6278e-12
1.74502e-12
1.98431e-12
2.49817e-12
5.18587e-12
7.02849e-12
1.87616e-12
2.66134e-12
1.46879e-12
1.49604e-12
1.57455e-12
1.68461e-12
1.86569e-12
2.18971e-12
4.10931e-12
5.73059e-12
1.80024e-12
2.53296e-12
1.39416e-12
1.43131e-12
1.51714e-12
1.62699e-12
1.77851e-12
1.9839e-12
3.23623e-12
4.67107e-12
1.73141e-12
2.41423e-12
1.32232e-12
1.36727e-12
1.45874e-12
1.57015e-12
1.70751e-12
1.84566e-12
2.53064e-12
3.80462e-12
1.66936e-12
2.30495e-12
1.25442e-12
1.30383e-12
1.39873e-12
1.51364e-12
1.64859e-12
1.74587e-12
1.96191e-12
3.09499e-12
1.6129e-12
2.20426e-12
1.19065e-12
1.24234e-12
1.33834e-12
1.45604e-12
1.59253e-12
1.66996e-12
1.49797e-12
2.51292e-12
1.84281e-12
2.11326e-12
1.13057e-12
1.18344e-12
1.27999e-12
1.39804e-12
1.53581e-12
1.60768e-12
1.12319e-12
2.03281e-12
1.81277e-09
8.0647e-11
1.22919e-12
1.12641e-12
1.22272e-12
1.3411e-12
1.47958e-12
1.55265e-12
8.2218e-13
1.63581e-12
9.18653e-08
7.69466e-08
1.3484e-09
5.74885e-12
1.11768e-12
1.28088e-12
1.42049e-12
1.49524e-12
5.6922e-13
1.30347e-12
2.83887e-12
3.63161e-12
1.44535e-12
1.21359e-12
1.06594e-12
1.00343e-12
1.13398e-12
1.52427e-12
3.25986e-12
3.74219e-12
2.75708e-12
3.52522e-12
1.44403e-12
1.24729e-12
1.11844e-12
1.03628e-12
1.07599e-12
1.30868e-12
2.79202e-12
3.30044e-12
2.67366e-12
3.41074e-12
1.42113e-12
1.25651e-12
1.14961e-12
1.06607e-12
1.05209e-12
1.15797e-12
2.29866e-12
2.82384e-12
2.59674e-12
3.30097e-12
1.39041e-12
1.25354e-12
1.16756e-12
1.09246e-12
1.05249e-12
1.06894e-12
1.87523e-12
2.41203e-12
2.52561e-12
3.19692e-12
1.3564e-12
1.24297e-12
1.17564e-12
1.11245e-12
1.06323e-12
1.02627e-12
1.51171e-12
2.05572e-12
2.45979e-12
3.09779e-12
1.3193e-12
1.22587e-12
1.17546e-12
1.12612e-12
1.07916e-12
1.01161e-12
1.1988e-12
1.74605e-12
2.39899e-12
3.00444e-12
1.2808e-12
1.20408e-12
1.16906e-12
1.13361e-12
1.09437e-12
1.01231e-12
9.31811e-13
1.47757e-12
2.61289e-12
2.91838e-12
1.24197e-12
1.17996e-12
1.1571e-12
1.13433e-12
1.10565e-12
1.02132e-12
7.03693e-13
1.2465e-12
2.10598e-09
9.10294e-11
1.48436e-12
1.15354e-12
1.1415e-12
1.13e-12
1.11149e-12
1.03259e-12
5.09371e-13
1.04793e-12
1.33345e-07
7.14247e-08
1.28182e-09
9.92979e-12
1.09075e-12
1.11818e-12
1.11163e-12
1.0399e-12
3.38872e-13
8.80963e-13
3.78999e-12
4.31101e-12
1.12881e-12
7.61631e-13
4.95268e-13
3.5033e-13
4.84964e-13
7.91369e-13
1.98062e-12
2.01236e-12
3.71555e-12
4.24481e-12
1.1731e-12
8.43158e-13
6.00159e-13
4.20887e-13
4.28954e-13
6.40062e-13
1.81627e-12
1.89334e-12
3.641e-12
4.17181e-12
1.19479e-12
9.0075e-13
6.84136e-13
4.99909e-13
4.25089e-13
5.24191e-13
1.57889e-12
1.69879e-12
3.57027e-12
4.0973e-12
1.20547e-12
9.43456e-13
7.50605e-13
5.74412e-13
4.57591e-13
4.5177e-13
1.36752e-12
1.52351e-12
3.50334e-12
4.02368e-12
1.20743e-12
9.73939e-13
8.03713e-13
6.40315e-13
5.06844e-13
4.25178e-13
1.1785e-12
1.36508e-12
3.441e-12
3.95131e-12
1.20273e-12
9.95472e-13
8.4677e-13
6.98258e-13
5.61682e-13
4.3552e-13
1.01168e-12
1.22343e-12
3.38194e-12
3.88051e-12
1.19322e-12
1.00955e-12
8.79729e-13
7.47063e-13
6.15621e-13
4.68436e-13
8.66297e-13
1.09776e-12
3.57938e-12
3.81532e-12
1.18035e-12
1.01726e-12
9.04773e-13
7.87726e-13
6.6545e-13
5.12471e-13
7.41865e-13
9.86988e-13
2.3739e-09
9.25914e-11
1.66971e-12
1.0213e-12
9.2445e-13
8.21332e-13
7.09095e-13
5.59908e-13
6.38012e-13
8.91109e-13
3.79863e-07
4.84529e-08
1.12977e-09
1.34255e-11
9.38315e-13
8.46556e-13
7.46802e-13
6.0341e-13
5.5528e-13
8.1235e-13
4.71311e-12
4.83965e-12
7.31947e-13
4.97293e-13
2.72367e-13
1.51196e-13
2.65972e-13
4.75238e-13
1.43004e-12
1.27359e-12
4.6494e-12
4.81778e-12
7.73606e-13
5.35541e-13
3.11377e-13
1.24607e-13
1.62926e-13
3.71672e-13
1.41896e-12
1.28743e-12
4.58795e-12
4.79137e-12
8.04024e-13
5.72237e-13
3.60749e-13
1.62817e-13
7.5962e-14
2.71837e-13
1.31492e-12
1.21339e-12
4.52808e-12
4.76001e-12
8.28337e-13
6.05152e-13
4.10387e-13
2.20972e-13
4.58776e-14
1.79005e-13
1.22067e-12
1.14515e-12
4.47101e-12
4.72563e-12
8.46718e-13
6.35401e-13
4.57111e-13
2.81066e-13
1.08811e-13
9.49667e-14
1.13427e-12
1.08221e-12
4.41589e-12
4.68859e-12
8.60635e-13
6.61399e-13
4.99761e-13
3.37387e-13
1.76626e-13
3.06822e-14
1.0558e-12
1.02461e-12
4.36361e-12
4.65086e-12
8.70543e-13
6.83806e-13
5.37762e-13
3.89294e-13
2.38992e-13
6.64372e-14
9.86118e-13
9.7263e-13
4.55035e-12
4.61616e-12
8.7622e-13
7.0186e-13
5.71112e-13
4.35585e-13
2.95726e-13
1.29952e-13
9.24224e-13
9.25958e-13
2.57064e-09
8.6691e-11
1.61254e-12
7.18242e-13
5.99892e-13
4.76407e-13
3.47545e-13
1.90247e-13
8.7034e-13
8.83884e-13
6.03268e-07
2.00478e-08
6.64938e-10
1.02347e-11
6.40979e-13
5.13443e-13
3.94297e-13
2.46768e-13
8.23771e-13
8.5675e-13
5.30796e-12
5.11111e-12
4.59418e-13
5.96027e-13
5.09906e-13
4.40114e-13
4.01091e-13
4.27923e-13
1.20173e-12
9.6371e-13
5.25143e-12
5.11758e-12
4.11886e-13
5.36294e-13
4.56867e-13
3.92499e-13
3.55411e-13
3.90389e-13
1.26339e-12
1.0359e-12
5.19938e-12
5.12375e-12
3.77139e-13
4.83609e-13
4.09679e-13
3.47388e-13
3.12452e-13
3.48682e-13
1.22197e-12
1.01368e-12
5.14841e-12
5.12361e-12
3.55893e-13
4.38779e-13
3.69222e-13
3.09504e-13
2.73863e-13
3.10086e-13
1.18262e-12
9.91738e-13
5.09873e-12
5.11842e-12
3.47106e-13
4.03201e-13
3.38157e-13
2.79017e-13
2.40861e-13
2.74375e-13
1.14504e-12
9.71315e-13
5.05119e-12
5.11009e-12
3.47321e-13
3.75363e-13
3.12777e-13
2.54397e-13
2.1365e-13
2.43286e-13
1.1097e-12
9.51844e-13
5.00524e-12
5.09884e-12
3.53075e-13
3.5424e-13
2.9504e-13
2.37277e-13
1.9358e-13
2.15141e-13
1.07589e-12
9.33965e-13
5.18787e-12
5.08974e-12
3.62045e-13
3.3844e-13
2.82656e-13
2.26103e-13
1.78547e-13
1.92399e-13
1.04449e-12
9.15882e-13
2.6721e-09
8.03687e-11
1.39656e-12
3.27017e-13
2.74759e-13
2.204e-13
1.71612e-13
1.74698e-13
1.01339e-12
8.9891e-13
7.40846e-07
2.16018e-08
5.30905e-10
7.91717e-12
2.53548e-13
2.22272e-13
1.74769e-13
1.68633e-13
9.85088e-13
9.28097e-13
5.31213e-12
5.08215e-12
4.43642e-13
6.20593e-13
5.39521e-13
4.65796e-13
4.12813e-13
4.19817e-13
1.1357e-12
9.20375e-13
5.25549e-12
5.09056e-12
3.72697e-13
5.51841e-13
4.82634e-13
4.17845e-13
3.72362e-13
3.90602e-13
1.20659e-12
9.96036e-13
5.20375e-12
5.09991e-12
3.15123e-13
4.89264e-13
4.29426e-13
3.72008e-13
3.32327e-13
3.54035e-13
1.17295e-12
9.77219e-13
5.15313e-12
5.10223e-12
2.73566e-13
4.334e-13
3.81608e-13
3.3084e-13
2.95575e-13
3.2057e-13
1.1408e-12
9.58586e-13
5.10429e-12
5.10025e-12
2.49562e-13
3.86781e-13
3.41012e-13
2.94752e-13
2.62441e-13
2.88893e-13
1.10993e-12
9.41462e-13
5.05733e-12
5.09424e-12
2.41001e-13
3.47722e-13
3.06764e-13
2.6383e-13
2.33004e-13
2.59639e-13
1.0806e-12
9.25135e-13
5.01202e-12
5.08539e-12
2.43963e-13
3.15316e-13
2.78344e-13
2.38249e-13
2.08107e-13
2.33188e-13
1.0523e-12
9.09948e-13
5.19464e-12
5.07826e-12
2.54577e-13
2.89517e-13
2.55917e-13
2.17698e-13
1.86552e-13
2.09495e-13
1.02559e-12
8.94921e-13
2.6721e-09
8.03686e-11
1.36701e-12
2.6875e-13
2.37459e-13
2.01834e-13
1.71208e-13
1.89444e-13
9.99386e-13
8.80678e-13
7.40846e-07
2.16018e-08
5.30885e-10
7.89274e-12
1.93206e-13
1.94393e-13
1.65733e-13
1.78751e-13
9.74362e-13
9.24756e-13
4.71781e-12
4.75963e-12
6.50294e-13
5.11112e-13
3.33526e-13
2.26955e-13
2.61628e-13
4.13702e-13
1.20215e-12
1.13002e-12
4.6559e-12
4.74593e-12
6.74697e-13
5.1889e-13
3.3613e-13
1.94153e-13
1.82224e-13
3.31747e-13
1.22307e-12
1.15525e-12
4.59669e-12
4.72847e-12
6.97504e-13
5.34315e-13
3.56608e-13
1.97637e-13
1.18615e-13
2.47497e-13
1.1468e-12
1.09309e-12
4.5391e-12
4.70587e-12
7.17583e-13
5.52586e-13
3.85008e-13
2.2511e-13
9.05818e-14
1.69384e-13
1.07762e-12
1.03615e-12
4.48393e-12
4.67952e-12
7.36169e-13
5.72306e-13
4.16924e-13
2.63857e-13
1.15273e-13
1.01542e-13
1.01424e-12
9.84068e-13
4.43112e-12
4.65041e-12
7.51493e-13
5.91912e-13
4.49447e-13
3.06177e-13
1.6214e-13
5.57581e-14
9.57386e-13
9.3756e-13
4.38038e-12
4.61954e-12
7.6393e-13
6.10167e-13
4.80523e-13
3.48123e-13
2.12733e-13
7.08074e-14
9.06546e-13
8.95663e-13
4.56842e-12
4.59105e-12
7.73425e-13
6.26666e-13
5.0934e-13
3.87325e-13
2.61388e-13
1.18377e-13
8.62117e-13
8.58564e-13
2.57064e-09
8.66918e-11
1.54988e-12
6.415e-13
5.35272e-13
4.24127e-13
3.07402e-13
1.69748e-13
8.23879e-13
8.26525e-13
6.03268e-07
2.00478e-08
6.64897e-10
1.0187e-11
5.70344e-13
4.57731e-13
3.5012e-13
2.20377e-13
7.91108e-13
8.19229e-13
3.79083e-12
4.20998e-12
9.87388e-13
6.5585e-13
3.95273e-13
2.18726e-13
3.32482e-13
6.07228e-13
1.48003e-12
1.69661e-12
3.72233e-12
4.1599e-12
1.0372e-12
7.33956e-13
4.98625e-13
3.07933e-13
2.91292e-13
4.85639e-13
1.38873e-12
1.60985e-12
3.65363e-12
4.10136e-12
1.06787e-12
7.94065e-13
5.83666e-13
3.97571e-13
3.0402e-13
3.89397e-13
1.21581e-12
1.44673e-12
3.58719e-12
4.04029e-12
1.08726e-12
8.39831e-13
6.52509e-13
4.77628e-13
3.50504e-13
3.32498e-13
1.05996e-12
1.29931e-12
3.52447e-12
3.97816e-12
1.09875e-12
8.76206e-13
7.09354e-13
5.47836e-13
4.09616e-13
3.20388e-13
9.21091e-13
1.16701e-12
3.46511e-12
3.9164e-12
1.10307e-12
9.02842e-13
7.55793e-13
6.09395e-13
4.71471e-13
3.42183e-13
7.99295e-13
1.04879e-12
3.40869e-12
3.85511e-12
1.10251e-12
9.22777e-13
7.92953e-13
6.61561e-13
5.29814e-13
3.84664e-13
6.94571e-13
9.45728e-13
3.60752e-12
3.79832e-12
1.09704e-12
9.36406e-13
8.23529e-13
7.05727e-13
5.83474e-13
4.34763e-13
6.07871e-13
8.55283e-13
2.37391e-09
9.25943e-11
1.6074e-12
9.4652e-13
8.47402e-13
7.42992e-13
6.30716e-13
4.86019e-13
5.38002e-13
7.78749e-13
3.79863e-07
4.84529e-08
1.12974e-09
1.33879e-11
8.66083e-13
7.72175e-13
6.71265e-13
5.33122e-13
4.86474e-13
7.21838e-13
2.84275e-12
3.54048e-12
1.28384e-12
1.03653e-12
8.75654e-13
7.89423e-13
8.62375e-13
1.14426e-12
2.17417e-12
2.99383e-12
2.77051e-12
3.45596e-12
1.30433e-12
1.08947e-12
9.45576e-13
8.45506e-13
8.47368e-13
1.00605e-12
1.89385e-12
2.66396e-12
2.69452e-12
3.35997e-12
1.30115e-12
1.1176e-12
9.94212e-13
8.95132e-13
8.54751e-13
9.12675e-13
1.56088e-12
2.2827e-12
2.62305e-12
3.26614e-12
1.28866e-12
1.13137e-12
1.02801e-12
9.37806e-13
8.77199e-13
8.65794e-13
1.26704e-12
1.95008e-12
2.55643e-12
3.17502e-12
1.26941e-12
1.13638e-12
1.0508e-12
9.72518e-13
9.07172e-13
8.51255e-13
1.01344e-12
1.66016e-12
2.49381e-12
3.08719e-12
1.24595e-12
1.13315e-12
1.06456e-12
9.9974e-13
9.38176e-13
8.57417e-13
7.93769e-13
1.40787e-12
2.43575e-12
3.00278e-12
1.21944e-12
1.12478e-12
1.07064e-12
1.01817e-12
9.6547e-13
8.74641e-13
6.03342e-13
1.18985e-12
2.64886e-12
2.92509e-12
1.19084e-12
1.11115e-12
1.07105e-12
1.03104e-12
9.86771e-13
8.96387e-13
4.38435e-13
1.00234e-12
2.10599e-09
9.10337e-11
1.44287e-12
1.09538e-12
1.06576e-12
1.03711e-12
1.00341e-12
9.18148e-13
2.98751e-13
8.42584e-13
1.33345e-07
7.14247e-08
1.2818e-09
9.89995e-12
1.02644e-12
1.03587e-12
1.01314e-12
9.3483e-13
1.72835e-13
7.10061e-13
2.06195e-12
2.87593e-12
1.44897e-12
1.38309e-12
1.38421e-12
1.4456e-12
1.64321e-12
2.10636e-12
3.74731e-12
6.27864e-12
1.98793e-12
2.76537e-12
1.42216e-12
1.37861e-12
1.39154e-12
1.44435e-12
1.58081e-12
1.87668e-12
3.10868e-12
5.2695e-12
1.90993e-12
2.6445e-12
1.37292e-12
1.34854e-12
1.37421e-12
1.42673e-12
1.52998e-12
1.71154e-12
2.48409e-12
4.31456e-12
1.83816e-12
2.5303e-12
1.32062e-12
1.31145e-12
1.34757e-12
1.40526e-12
1.49487e-12
1.60198e-12
1.96759e-12
3.52744e-12
1.77235e-12
2.42321e-12
1.26711e-12
1.27049e-12
1.31593e-12
1.37938e-12
1.46628e-12
1.53054e-12
1.54532e-12
2.88123e-12
1.7116e-12