/*--------------------------------*- C++ -*----------------------------------*\
| =========                 |                                                 |
| \\      /  F ield         | OpenFOAM: The Open Source CFD Toolbox           |
|  \\    /   O peration     | Version:  4.1                                   |
|   \\  /    A nd           | Web:      www.OpenFOAM.org                      |
|    \\/     M anipulation  |                                                 |
\*---------------------------------------------------------------------------*/
FoamFile
{
    version     2.0;
    format      ascii;
    class       surfaceScalarField;
    location    "0.7";
    object      phi;
}
// * * * * * * * * * * * * * * * * * * * * * * * * * * * * * * * * * * * * * //

dimensions      [1 0 -1 0 0 0 0];

internalField   nonuniform List<scalar> 
51500
(
3.64116e-13
1.69509e-14
1.43038e-11
-1.16889e-15
2.13713e-14
1.41435e-11
-2.9533e-15
1.99908e-14
1.3984e-11
-2.83099e-15
1.8533e-14
1.38271e-11
-2.72572e-15
1.70364e-14
1.36718e-11
-2.66332e-15
1.55197e-14
1.35183e-11
-2.76571e-15
1.40165e-14
1.33664e-11
-2.68877e-15
1.25447e-14
1.32175e-11
-2.75065e-15
1.10603e-14
1.30707e-11
9.59749e-15
1.29285e-11
-7.43763e-17
3.66065e-13
1.00154e-14
1.78708e-11
-1.10594e-14
1.07828e-14
1.72482e-11
-1.04691e-14
9.17779e-15
1.66455e-11
-1.02582e-14
7.6526e-15
1.60683e-11
-9.93232e-15
6.26284e-15
1.5516e-11
-9.57485e-15
4.99494e-15
1.49862e-11
-9.30742e-15
4.21618e-15
1.44778e-11
-9.04996e-15
3.33742e-15
1.39908e-11
-8.8062e-15
2.04337e-15
1.35221e-11
8.41585e-16
1.3082e-11
-8.43943e-16
3.6382e-13
1.15732e-14
2.25926e-11
-2.46943e-14
1.2906e-14
2.12338e-11
-2.07995e-14
1.06488e-14
1.99597e-11
-1.96973e-14
8.63687e-15
1.87777e-11
-1.86128e-14
6.84757e-15
1.76783e-11
-1.77842e-14
5.2538e-15
1.66567e-11
-1.68095e-14
3.85273e-15
1.57077e-11
-1.60855e-14
2.59378e-15
1.48218e-11
-1.53929e-14
1.49435e-15
1.39971e-11
5.65072e-16
1.32391e-11
-1.53696e-15
3.5476e-13
1.52365e-14
2.89253e-11
-4.38787e-14
1.59087e-14
2.63967e-11
-3.43721e-14
1.27709e-14
2.41166e-11
-3.18036e-14
1.00541e-14
2.20627e-11
-2.94158e-14
7.76675e-15
2.02201e-11
-2.73068e-14
5.82299e-15
1.85616e-11
-2.5379e-14
4.1752e-15
1.7066e-11
-2.36324e-14
2.75659e-15
1.57148e-11
-2.2042e-14
1.54876e-15
1.44917e-11
5.43216e-16
1.33985e-11
-2.32496e-15
3.33398e-13
2.04565e-14
3.75496e-11
-7.20509e-14
1.99484e-14
3.31669e-11
-5.2725e-14
1.5468e-14
2.93712e-11
-4.72964e-14
1.1816e-14
2.60761e-11
-4.26045e-14
8.86947e-15
2.32222e-11
-3.85198e-14
6.47884e-15
2.0739e-11
-3.50544e-14
4.51687e-15
1.85719e-11
-3.19224e-14
2.92284e-15
1.66753e-11
-2.91395e-14
1.61285e-15
1.50086e-11
5.71002e-16
1.35611e-11
-3.10906e-15
2.90698e-13
2.80977e-14
4.94837e-11
-1.37517e-13
2.55012e-14
4.21581e-11
-7.74169e-14
1.90187e-14
3.60826e-11
-6.72749e-14
1.39957e-14
3.10119e-11
-5.88509e-14
1.01804e-14
2.67839e-11
-5.18767e-14
7.21705e-15
2.32359e-11
-4.59478e-14
4.91694e-15
2.02443e-11
-4.09295e-14
3.10091e-15
1.77087e-11
-3.65391e-14
1.68103e-15
1.55484e-11
5.84837e-16
1.37266e-11
-3.98553e-15
2.06949e-13
4.93014e-14
6.62631e-11
-2.17892e-13
4.15548e-14
5.42772e-11
-1.11429e-13
2.96486e-14
4.4738e-11
-9.31896e-14
2.10021e-14
3.71299e-11
-7.90144e-14
1.47572e-14
3.10335e-11
-6.7577e-14
1.01721e-14
2.61093e-11
-5.83789e-14
6.74352e-15
2.21035e-11
-5.0741e-14
4.18498e-15
1.88215e-11
-4.44118e-14
2.23526e-15
1.61134e-11
7.43861e-16
1.38948e-11
-4.84118e-15
1.22739e-13
-4.13547e-13
9.03507e-11
-3.21251e-13
-4.5946e-13
7.0834e-11
-1.57339e-13
-4.78105e-13
5.60302e-11
-1.26301e-13
-4.90015e-13
4.47734e-11
-1.03238e-13
-4.97914e-13
3.61357e-11
-8.55968e-14
-5.03114e-13
2.94352e-11
-7.17528e-14
-5.06489e-13
2.41844e-11
-6.08469e-14
-5.08657e-13
2.00305e-11
-5.17903e-14
-5.10023e-13
1.67121e-11
-5.19002e-13
1.40763e-11
-5.78617e-15
3.3768e-12
-8.72909e-10
1.71925e-10
2.90817e-12
-9.43483e-10
1.33644e-10
2.63472e-12
-9.50782e-10
1.07799e-10
2.3918e-12
-9.56204e-10
8.8879e-11
2.17637e-12
-9.60549e-10
7.48772e-11
1.98599e-12
-9.64069e-10
6.43607e-11
1.81768e-12
-9.66944e-10
5.63643e-11
1.66857e-12
-9.69312e-10
5.02156e-11
1.49839e-12
-9.71366e-10
4.54377e-11
-9.94418e-10
4.21756e-11
-6.75957e-15
-4.2458e-10
1.55686e-07
-8.391e-07
3.23787e-10
1.3241e-07
-9.36444e-07
3.56291e-10
1.16162e-07
-9.38547e-07
3.46668e-10
1.0262e-07
-9.40077e-07
3.36182e-10
9.12204e-08
-9.41418e-07
3.25412e-10
8.15557e-08
-9.42608e-07
3.14648e-10
7.33045e-08
-9.43677e-07
2.9847e-10
6.62131e-08
-9.44646e-07
1.03066e-10
6.0088e-08
-9.45629e-07
5.59505e-08
-7.82447e-15
-9.88034e-07
3.41369e-13
8.86724e-14
6.83222e-13
-1.79964e-14
8.37015e-14
6.71557e-13
-2.5256e-14
7.3787e-14
6.60848e-13
-2.43942e-14
6.41703e-14
6.48431e-13
-2.39775e-14
5.489e-14
6.37454e-13
-2.37853e-14
4.58949e-14
6.27215e-13
-2.36981e-14
3.72024e-14
6.15522e-13
-2.34553e-14
2.88145e-14
6.05579e-13
-2.53959e-14
2.0643e-14
5.95383e-13
1.29088e-14
5.84691e-13
-1.58554e-15
2.8514e-13
8.27885e-14
9.46349e-13
-6.9549e-14
7.5365e-14
8.98809e-13
-8.45999e-14
6.38092e-14
8.53664e-13
-8.13295e-14
5.27803e-14
8.09738e-13
-7.91481e-14
4.20034e-14
7.68735e-13
-7.69631e-14
2.93878e-14
7.29395e-13
-7.47322e-14
2.06764e-14
6.93809e-13
-7.3638e-14
1.35626e-14
6.58911e-13
-7.73978e-14
7.54998e-15
6.27556e-13
2.53827e-15
5.9578e-13
-4.25918e-15
2.01433e-13
1.0455e-13
1.3334e-12
-1.7594e-13
9.33015e-14
1.2164e-12
-1.60455e-13
7.8072e-14
1.11549e-12
-1.52117e-13
6.40101e-14
1.01749e-12
-1.4476e-13
5.13572e-14
9.31492e-13
-1.38108e-13
3.98698e-14
8.53335e-13
-1.32051e-13
2.94641e-14
7.83066e-13
-1.26763e-13
2.01012e-14
7.1927e-13
-1.32164e-13
1.16541e-14
6.60741e-13
4.16815e-15
6.08545e-13
-6.82072e-15
8.07607e-14
1.28136e-13
1.91335e-12
-3.04732e-13
1.11165e-13
1.67448e-12
-2.58321e-13
9.088e-14
1.47347e-12
-2.39022e-13
7.29196e-14
1.29229e-12
-2.23199e-13
5.72242e-14
1.13691e-12
-2.08757e-13
4.35014e-14
1.00287e-12
-1.95437e-13
3.15547e-14
8.87589e-13
-1.84078e-13
2.11281e-14
7.87792e-13
-1.88395e-13
1.20171e-14
6.98216e-13
4.163e-15
6.20238e-13
-9.7962e-15
-3.94804e-14
1.58777e-13
2.80368e-12
-4.67601e-13
1.33589e-13
2.34485e-12
-3.83219e-13
1.06594e-13
1.97272e-12
-3.46532e-13
8.34549e-14
1.65663e-12
-3.16647e-13
6.39721e-14
1.39811e-12
-2.89696e-13
4.75842e-14
1.18586e-12
-2.65767e-13
3.37711e-14
1.0096e-12
-2.45669e-13
2.21543e-14
8.62561e-13
-2.4689e-13
1.23542e-14
7.38901e-13
4.2562e-15
6.34289e-13
-1.28669e-14
-1.73462e-13
1.98383e-13
4.207e-12
-6.79571e-13
1.62692e-13
3.33935e-12
-5.43385e-13
1.25988e-13
2.67636e-12
-4.79419e-13
9.61024e-14
2.14305e-12
-4.27715e-13
7.1853e-14
1.73094e-12
-3.82779e-13
5.21548e-14
1.4079e-12
-3.43757e-13
3.62123e-14
1.15306e-12
-3.11625e-13
2.32411e-14
9.49224e-13
-3.07421e-13
1.27664e-14
7.85416e-13
4.24106e-15
6.49982e-13
-1.58545e-14
-5.79303e-13
2.54417e-13
6.47122e-12
-9.6198e-13
2.114e-13
4.8518e-12
-7.4839e-13
1.59456e-13
3.68243e-12
-6.43566e-13
1.18914e-13
2.79902e-12
-5.6013e-13
8.73682e-14
2.15784e-12
-4.89458e-13
6.26853e-14
1.67979e-12
-4.30298e-13
4.31618e-14
1.31974e-12
-3.81669e-13
2.75924e-14
1.04714e-12
-3.70557e-13
1.47584e-14
8.33718e-13
3.59602e-15
6.67335e-13
-1.88547e-14
-1.07536e-12
3.04398e-13
1.02385e-11
-1.33951e-12
2.06325e-13
7.2021e-12
-1.0119e-12
1.43495e-13
5.14479e-12
-8.46004e-13
9.7558e-14
3.70205e-12
-7.16959e-13
6.36384e-14
2.71252e-12
-6.12008e-13
3.822e-14
2.01562e-12
-5.25433e-13
1.89877e-14
1.51929e-12
-4.57035e-13
4.27413e-15
1.1572e-12
-4.35501e-13
-7.07375e-15
8.88752e-13
-1.59203e-14
6.85382e-13
-2.19659e-14
-1.92017e-12
3.14452e-12
2.06779e-11
-1.17937e-12
-4.82289e-11
1.09756e-11
-9.33694e-13
-4.38772e-11
7.54879e-12
-7.84825e-13
-4.00803e-11
5.37951e-12
-6.7219e-13
-3.70961e-11
3.99849e-12
-5.84615e-13
-3.47319e-11
3.09097e-12
-5.17238e-13
-3.28531e-11
2.47936e-12
-4.79147e-13
-3.13572e-11
2.05714e-12
-5.718e-13
-3.01711e-11
1.75406e-12
-2.95866e-11
1.53341e-12
-2.5134e-14
-1.04037e-09
1.52398e-08
9.19191e-08
-2.56342e-10
8.18124e-09
-1.75905e-09
-3.40833e-10
6.16685e-09
-2.06357e-09
-3.3253e-10
4.74806e-09
-2.04999e-09
-3.23306e-10
3.71264e-09
-2.02487e-09
-3.13677e-10
2.94346e-09
-1.99461e-09
-3.03941e-10
2.36328e-09
-1.96233e-09
-2.94373e-10
1.91954e-09
-1.93023e-09
-2.90955e-10
1.57616e-09
-1.90724e-09
1.32361e-09
-2.85225e-14
-2.40763e-09
3.43449e-13
8.22232e-14
2.51983e-14
-1.64391e-14
7.80534e-14
2.35365e-14
-2.25802e-14
6.88443e-14
2.20485e-14
-2.03227e-14
5.99741e-14
2.05692e-14
-1.86291e-14
5.13893e-14
1.84562e-14
-2.04353e-14
4.30316e-14
1.62132e-14
-1.90451e-14
3.50572e-14
1.54256e-14
-1.95108e-14
2.72799e-14
1.43969e-14
-2.35264e-14
1.97681e-14
1.34832e-14
1.26409e-14
1.34929e-14
-1.31167e-15
2.92103e-13
5.95446e-14
4.04221e-14
-6.47729e-14
5.46451e-14
3.64964e-14
-7.26456e-14
4.63463e-14
3.52634e-14
-6.73193e-14
3.83779e-14
3.02686e-14
-6.62622e-14
3.09797e-14
2.67437e-14
-6.25874e-14
2.41638e-14
2.48084e-14
-6.20373e-14
1.78343e-14
2.02677e-14
-6.12008e-14
1.2073e-14
1.81802e-14
-7.13411e-14
6.8706e-15
1.71411e-14
2.42514e-15
1.53656e-14
-4.44501e-15
2.13357e-13
7.61838e-14
6.13498e-14
-1.65329e-13
6.88566e-14
5.53038e-14
-1.38049e-13
5.798e-14
5.23423e-14
-1.25899e-13
4.80027e-14
4.58194e-14
-1.19832e-13
3.89681e-14
3.91592e-14
-1.13239e-13
3.07447e-14
3.30251e-14
-1.0824e-13
2.38089e-14
2.83817e-14
-1.0625e-13
1.6577e-14
2.50936e-14
-1.21238e-13
9.60906e-15
2.17245e-14
3.32787e-15
1.8154e-14
-7.24095e-15
9.24052e-14
9.47304e-14
9.8094e-14
-2.89227e-13
8.29596e-14
8.9263e-14
-2.21634e-13
6.81522e-14
8.20637e-14
-1.97479e-13
5.51355e-14
6.79265e-14
-1.83997e-13
4.38229e-14
5.67959e-14
-1.70756e-13
3.43975e-14
4.79666e-14
-1.57343e-13
2.58698e-14
4.03703e-14
-1.54295e-13
1.72102e-14
3.40786e-14
-1.73189e-13
9.84761e-15
3.04599e-14
3.49699e-15
2.31769e-14
-1.04129e-14
-2.57559e-14
1.19529e-13
1.66178e-13
-4.46588e-13
1.00763e-13
1.45635e-13
-3.28325e-13
8.07397e-14
1.29291e-13
-2.74178e-13
6.35719e-14
1.04489e-13
-2.50666e-13
4.92602e-14
8.43374e-14
-2.27674e-13
3.75987e-14
6.86745e-14
-2.06862e-13
2.79944e-14
5.71408e-14
-2.03958e-13
1.85039e-14
4.86941e-14
-2.27011e-13
1.04657e-14
4.14957e-14
3.66098e-15
3.06872e-14
-1.31249e-14
-1.62519e-13
1.52445e-13
2.86795e-13
-6.52558e-13
1.24748e-13
2.45966e-13
-4.62406e-13
9.65489e-14
2.05485e-13
-3.70408e-13
7.37794e-14
1.59294e-13
-3.29681e-13
5.57767e-14
1.25547e-13
-2.92435e-13
4.14111e-14
9.97943e-14
-2.61476e-13
2.98456e-14
8.09315e-14
-2.55342e-13
1.94295e-14
6.73805e-14
-2.83029e-13
1.05357e-14
5.34877e-14
3.61576e-15
3.86009e-14
-1.6484e-14
-5.77508e-13
1.91215e-13
5.04185e-13
-9.30187e-13
1.5503e-13
4.13992e-13
-5.95166e-13
1.16102e-13
3.25164e-13
-4.9237e-13
8.62293e-14
2.441e-13
-4.27125e-13
6.33354e-14
1.84892e-13
-3.70186e-13
4.67723e-14
1.42761e-13
-3.21971e-13
3.30775e-14
1.13391e-13
-2.99626e-13
2.08713e-14
8.99848e-14
-3.40924e-13
1.14177e-14
7.24478e-14
4.06138e-15
4.89135e-14
-1.96271e-14
-1.10539e-12
3.29555e-13
9.12879e-13
-1.30559e-12
2.24593e-13
7.01596e-13
-7.93496e-13
1.57787e-13
5.18992e-13
-6.46513e-13
1.10376e-13
3.69248e-13
-5.43527e-13
7.64412e-14
2.70292e-13
-4.58837e-13
5.18075e-14
2.02343e-13
-3.91159e-13
3.37365e-14
1.53238e-13
-3.45534e-13
2.0428e-14
1.19085e-13
-4.01117e-13
1.05185e-14
9.4848e-14
3.242e-15
6.05756e-14
-2.29422e-14
-2.24961e-12
5.35806e-11
5.98241e-12
-1.7594e-12
9.96386e-13
1.05251e-12
-1.05654e-12
2.98543e-13
6.99782e-13
-8.41326e-13
8.07798e-14
4.87967e-13
-6.87756e-13
-8.00594e-14
3.53201e-13
-5.68023e-13
-1.97071e-13
2.64431e-13
-4.73689e-13
-2.81787e-13
2.03741e-13
-4.0905e-13
-3.42417e-13
1.60776e-13
-4.72321e-13
-3.84794e-13
1.29813e-13
-4.10285e-13
8.92568e-14
-2.63134e-14
-6.67972e-10
6.13264e-09
8.18681e-08
-4.27431e-11
3.96607e-10
1.7509e-10
-4.30076e-11
2.16078e-10
-6.85067e-11
-3.62955e-11
1.43663e-10
-5.57425e-11
-3.06834e-11
9.83237e-11
-4.38129e-11
-2.61474e-11
6.88199e-11
-3.3582e-11
-2.24461e-11
4.91915e-11
-2.4235e-11
-1.94038e-11
3.58474e-11
-2.00016e-11
-1.69009e-11
2.65838e-11
-1.67449e-11
1.99069e-11
-2.98101e-14
-1.47655e-11
3.43678e-13
8.11253e-14
1.07368e-14
-1.638e-14
7.70918e-14
9.65688e-15
-2.21212e-14
6.80359e-14
8.06606e-15
-1.99824e-14
5.92586e-14
6.45066e-15
-1.87691e-14
5.08159e-14
4.88392e-15
-1.9543e-14
4.26411e-14
4.04031e-15
-1.81361e-14
3.47082e-14
2.4551e-15
-1.9198e-14
2.7044e-14
1.15779e-15
-2.30771e-14
1.96642e-14
7.6213e-16
1.26232e-14
4.24441e-16
-1.55084e-15
2.93336e-13
5.82049e-14
1.80643e-14
-6.39406e-14
5.35043e-14
1.56691e-14
-7.13313e-14
4.53795e-14
1.62447e-14
-6.45133e-14
3.76793e-14
1.29642e-14
-6.19099e-14
3.04378e-14
9.58946e-15
-6.20571e-14
2.37039e-14
7.15625e-15
-5.89249e-14
1.75712e-14
6.03117e-15
-5.89365e-14
1.19308e-14
4.68532e-15
-7.03505e-14
6.79345e-15
3.77732e-15
2.42361e-15
2.30678e-15
-4.3522e-15
2.1635e-13
7.39651e-14
2.63558e-14
-1.62847e-13
6.69297e-14
2.46201e-14
-1.33419e-13
5.62351e-14
2.60014e-14
-1.16811e-13
4.62825e-14
2.00607e-14
-1.13837e-13
3.737e-14
1.66456e-14
-1.03692e-13
2.93348e-14
1.37916e-14
-9.85351e-14
2.18119e-14
1.08261e-14
-1.03399e-13
1.50047e-14
9.06138e-15
-1.19524e-13
9.40409e-15
7.78384e-15
3.08986e-15
5.83225e-15
-7.11627e-15
9.62862e-14
9.1985e-14
4.32693e-14
-2.84981e-13
8.04737e-14
4.26599e-14
-2.13857e-13
6.60193e-14
4.45737e-14
-1.79194e-13
5.32966e-14
3.65728e-14
-1.67062e-13
4.20543e-14
2.98279e-14
-1.55617e-13
3.21887e-14
2.50005e-14
-1.44547e-13
2.35615e-14
2.06623e-14
-1.47875e-13
1.59626e-14
1.7567e-14
-1.70969e-13
9.56905e-15
1.4844e-14
3.60333e-15
1.03588e-14
-1.05077e-14
-1.96077e-14
1.15931e-13
7.56192e-14
-4.39491e-13
9.78738e-14
7.79922e-14
-3.07978e-13
7.82348e-14
7.61497e-14
-2.58336e-13
6.13464e-14
6.13707e-14
-2.35004e-13
4.73309e-14
5.11419e-14
-2.13859e-13
3.55076e-14
4.19544e-14
-1.9494e-13
2.55891e-14
3.47421e-14
-1.95023e-13
1.7771e-14
3.03874e-14
-2.23991e-13
9.51819e-15
2.73112e-14
3.55015e-15
1.75877e-14
-1.33537e-14
-1.53751e-13
1.47785e-13
1.35404e-13
-6.41638e-13
1.2096e-13
1.37447e-13
-4.17117e-13
9.34271e-14
1.28843e-13
-3.54793e-13
7.13187e-14
1.03628e-13
-3.15798e-13
5.35372e-14
8.38219e-14
-2.80451e-13
3.90889e-14
6.95075e-14
-2.50108e-13
2.74458e-14
5.74794e-14
-2.37586e-13
1.78562e-14
4.78885e-14
-2.79042e-13
1.04924e-14
4.21583e-14
3.6918e-15
2.72717e-14
-1.67019e-14
-5.5786e-13
1.86351e-13
2.41593e-13
-9.13319e-13
1.50594e-13
2.45689e-13
-5.66659e-13
1.12728e-13
2.13321e-13
-4.75246e-13
8.33648e-14
1.67951e-13
-4.11899e-13
6.08715e-14
1.33087e-13
-3.56824e-13
4.34862e-14
1.07682e-13
-3.11879e-13
2.97268e-14
8.67492e-14
-2.8213e-13
1.90438e-14
7.31892e-14
-3.36717e-13
1.09102e-14
6.16018e-14
3.42201e-15
3.93471e-14
-1.9906e-14
-1.07602e-12
3.23226e-13
4.38373e-13
-1.27854e-12
1.79557e-13
4.28779e-13
-7.64803e-13
1.90471e-13
3.49025e-13
-6.2546e-13
1.33925e-13
2.65596e-13
-5.26135e-13
9.31825e-14
2.04646e-13
-4.45293e-13
6.37356e-14
1.59956e-13
-3.79719e-13
4.21761e-14
1.28381e-13
-3.32543e-13
2.62412e-14
1.04567e-13
-3.96813e-13
1.42495e-14
8.5459e-14
5.27225e-15
5.56512e-14
-2.29231e-14
-2.21225e-12
5.4962e-11
8.88041e-12
-1.71147e-12
7.78323e-13
8.00057e-13
-1.0235e-12
2.50173e-13
5.65693e-13
-8.13903e-13
1.61152e-13
4.15282e-13
-6.63585e-13
1.03636e-13
3.08211e-13
-5.46517e-13
6.47276e-14
2.3426e-13
-4.54495e-13
3.82707e-14
1.80543e-13
-3.88624e-13
2.0106e-14
1.41986e-13
-4.58674e-13
7.56838e-15
1.12065e-13
-9.22669e-16
6.88279e-14
-2.64545e-14
-6.2141e-10
8.82546e-09
8.17345e-08
-7.16993e-12
8.5895e-11
2.65397e-10
-2.49016e-12
6.91359e-12
1.14402e-13
-2.76878e-12
3.85516e-12
-1.65327e-13
-2.11872e-12
2.37376e-12
-3.82371e-15
-1.64147e-12
1.52654e-12
8.69136e-14
-1.29181e-12
1.01474e-12
1.3683e-13
-1.03497e-12
6.95288e-13
1.61952e-13
-8.90982e-13
4.86319e-13
1.72207e-13
3.15065e-13
-3.011e-14
2.68583e-13
3.43561e-13
8.12089e-14
1.84554e-14
-1.6741e-14
7.7143e-14
1.55292e-14
-2.21665e-14
6.81282e-14
1.23059e-14
-2.05111e-14
5.93352e-14
7.63909e-15
-1.72165e-14
5.08619e-14
7.33745e-15
-2.0073e-14
4.264e-14
3.47887e-15
-1.91518e-14
3.47615e-14
5.36259e-15
-1.88468e-14
2.71162e-14
4.48272e-15
-2.30692e-14
1.97026e-14
8.85105e-16
1.26573e-14
3.20481e-16
-1.82428e-15
2.93035e-13
5.83001e-14
2.60655e-14
-6.40761e-14
5.3613e-14
2.66708e-14
-7.15623e-14
4.54417e-14
1.95256e-14
-6.53847e-14
3.76806e-14
1.6807e-14
-6.28863e-14
3.04941e-14
1.12707e-14
-6.06641e-14
2.37912e-14
9.32163e-15
-5.93795e-14
1.75982e-14
6.39577e-15
-5.94232e-14
1.19644e-14
7.58425e-15
-7.03852e-14
6.84692e-15
6.20942e-15
2.48237e-15
1.57557e-15
-4.36001e-15
2.16008e-13
7.40962e-14
3.91172e-14
-1.63344e-13
6.7027e-14
3.60069e-14
-1.34649e-13
5.63581e-14
3.50447e-14
-1.14586e-13
4.65145e-14
3.21945e-14
-1.11337e-13
3.74717e-14
2.30808e-14
-1.05147e-13
2.94127e-14
1.67135e-14
-9.8228e-14
2.20062e-14
1.51673e-14
-1.03574e-13
1.51439e-14
1.18774e-14
-1.19403e-13
9.10801e-15
1.29095e-14
3.048e-15
6.23185e-15
-7.43199e-15
9.59314e-14
9.22339e-14
6.46e-14
-2.85591e-13
8.07769e-14
6.34642e-14
-2.14426e-13
6.62114e-14
6.21642e-14
-1.79716e-13
5.33688e-14
5.01612e-14
-1.66696e-13
4.2213e-14
4.17302e-14
-1.5619e-13
3.22213e-14
3.34649e-14
-1.44383e-13
2.35243e-14
3.11706e-14
-1.48502e-13
1.61036e-14
2.53347e-14
-1.71016e-13
1.0018e-14
2.55578e-14
3.77134e-15
1.98499e-14
-1.01609e-14
-2.01143e-14
1.16372e-13
1.0984e-13
-4.40753e-13
9.8173e-14
1.09756e-13
-3.10951e-13
7.8577e-14
1.07595e-13
-2.57984e-13
6.1687e-14
9.11728e-14
-2.35777e-13
4.75509e-14
7.36237e-14
-2.14528e-13
3.58331e-14
6.3946e-14
-1.94735e-13
2.59973e-14
5.67502e-14
-1.92926e-13
1.73639e-14
4.35196e-14
-2.24521e-13
9.42874e-15
3.56188e-14
3.70945e-15
2.44516e-14
-1.33019e-14
-1.54976e-13
1.48436e-13
1.89381e-13
-6.43352e-13
1.21629e-13
2.01183e-13
-4.18366e-13
9.39078e-14
1.80719e-13
-3.55774e-13
7.17295e-14
1.4723e-13
-3.16099e-13
5.3904e-14
1.20135e-13
-2.81301e-13
3.93693e-14
9.99741e-14
-2.50897e-13
2.75545e-14
7.96088e-14
-2.35623e-13
1.83277e-14
7.16299e-14
-2.79771e-13
1.07527e-14
5.89957e-14
3.78539e-15
3.7544e-14
-1.66108e-14
-5.60923e-13
1.87267e-13
3.37973e-13
-9.16834e-13
1.51511e-13
3.47799e-13
-5.68085e-13
1.1346e-13
3.08756e-13
-4.76882e-13
8.39294e-14
2.35868e-13
-4.12926e-13
6.13338e-14
1.93818e-13
-3.5841e-13
4.37825e-14
1.52357e-13
-3.12285e-13
3.01483e-14
1.26728e-13
-2.82824e-13
1.9153e-14
1.03126e-13
-3.3789e-13
1.11515e-14
8.5806e-14
4.06956e-15
5.55865e-14
-1.98366e-14
-1.0822e-12
3.26664e-13
6.03328e-13
-1.28435e-12
1.87569e-13
6.10652e-13
-7.67628e-13
1.396e-13
5.01875e-13
-6.2808e-13
1.01143e-13
3.80996e-13
-5.28455e-13
7.25686e-14
2.96616e-13
-4.46937e-13
5.42002e-14
2.35829e-13
-3.81223e-13
3.66351e-14
1.83523e-13
-3.34002e-13
2.31048e-14
1.49859e-13
-3.98312e-13
1.26351e-14
1.23303e-13
4.85833e-15
7.75046e-14
-2.31384e-14
-2.24323e-12
5.77364e-11
1.37636e-11
-1.71711e-12
7.15293e-13
1.16964e-12
-1.02883e-12
1.64774e-13
8.16041e-13
-8.18788e-13
1.72334e-13
5.9125e-13
-6.67122e-13
1.14175e-13
4.43864e-13
-5.49609e-13
7.36307e-14
3.36322e-13
-4.56699e-13
4.48534e-14
2.55659e-13
-3.90703e-13
1.90657e-14
2.06291e-13
-4.61015e-13
8.40379e-15
1.62953e-13
3.26741e-15
1.03107e-13
-2.65276e-14
-6.51639e-10
1.40664e-08
8.62532e-08
-5.39243e-12
1.18667e-10
2.94911e-10
-1.38337e-12
1.945e-12
9.83898e-13
-1.08719e-12
8.44854e-13
1.58921e-13
-8.5647e-13
6.47941e-13
8.5015e-14
-6.81996e-13
4.52418e-13
6.25763e-14
-5.50935e-13
3.27599e-13
4.86088e-14
-4.58216e-13
2.43204e-13
3.86435e-14
-5.31431e-13
1.83825e-13
3.12189e-14
1.13581e-13
-3.00669e-14
2.73173e-14
3.43225e-13
8.13589e-14
2.21992e-14
-1.70682e-14
7.72924e-14
1.49041e-14
-2.28039e-14
6.8195e-14
1.84435e-14
-1.98936e-14
5.9443e-14
1.31427e-14
-1.95512e-14
5.0908e-14
7.62545e-15
-1.92093e-14
4.27078e-14
4.56798e-15
-1.88623e-14
3.47805e-14
2.06833e-15
-1.9857e-14
2.71461e-14
1.28049e-15
-2.30743e-14
1.9772e-14
1.2945e-15
1.26787e-14
1.54135e-15
-1.55778e-15
2.92669e-13
5.84873e-14
3.77003e-14
-6.47646e-14
5.37705e-14
3.39801e-14
-7.09823e-14
4.56193e-14
3.22181e-14
-6.69718e-14
3.78067e-14
2.09272e-14
-6.13499e-14
3.06211e-14
2.1269e-14
-6.16074e-14
2.38633e-14
1.18635e-14
-5.72183e-14
1.76841e-14
8.25217e-15
-5.93573e-14
1.20207e-14
5.33556e-15
-7.07491e-14
6.90908e-15
4.58352e-15
2.54616e-15
4.89089e-15
-4.36803e-15
2.1534e-13
7.44139e-14
4.80834e-14
-1.64348e-13
6.7291e-14
5.15921e-14
-1.34739e-13
5.65737e-14
5.43583e-14
-1.15464e-13
4.6657e-14
4.28808e-14
-1.14769e-13
3.75994e-14
3.14057e-14
-1.03923e-13
2.9546e-14
2.65983e-14
-9.90161e-14
2.21757e-14
1.77528e-14
-1.03098e-13
1.53748e-14
1.86614e-14
-1.19709e-13
9.47961e-15
1.20285e-14
3.41433e-15
8.5096e-15
-7.49292e-15
9.51212e-14
9.27308e-14
9.05802e-14
-2.86918e-13
8.11957e-14
8.80209e-14
-2.15305e-13
6.65741e-14
9.18014e-14
-1.80145e-13
5.3725e-14
7.54447e-14
-1.67799e-13
4.25329e-14
5.84393e-14
-1.55684e-13
3.2559e-14
4.18894e-14
-1.45172e-13
2.37452e-14
3.39234e-14
-1.48558e-13
1.62319e-14
3.11749e-14
-1.7119e-13
9.95662e-15
2.5956e-14
3.5344e-15
1.51188e-14
-1.02722e-14
-2.1546e-14
1.1713e-13
1.57573e-13
-4.42795e-13
9.88662e-14
1.61033e-13
-3.1129e-13
7.90909e-14
1.58201e-13
-2.5906e-13
6.21051e-14
1.27156e-13
-2.36348e-13
4.7864e-14
1.04978e-13
-2.15576e-13
3.61129e-14
8.45274e-14
-1.95194e-13
2.6067e-14
6.13458e-14
-1.94655e-13
1.75944e-14
5.25032e-14
-2.24958e-13
9.87158e-15
4.38969e-14
3.98574e-15
2.78051e-14
-1.32917e-14
-1.57116e-13
1.49682e-13
2.74767e-13
-6.46905e-13
1.22618e-13
2.87e-13
-4.20083e-13
9.47766e-14
2.64672e-13
-3.57469e-13
7.23665e-14
2.06813e-13
-3.17021e-13
5.45107e-14
1.68209e-13
-2.83299e-13
3.97526e-14
1.29821e-13
-2.51393e-13
2.80452e-14
1.12394e-13
-2.36284e-13
1.85028e-14
8.17876e-14
-2.80792e-13
1.09868e-14
6.86875e-14
3.88844e-15
4.46209e-14
-1.64393e-14
-5.67138e-13
1.88977e-13
4.90639e-13
-9.22365e-13
1.53073e-13
5.04135e-13
-5.72315e-13
1.14629e-13
4.32528e-13
-4.78994e-13
8.49106e-14
3.4161e-13
-4.15655e-13
6.20494e-14
2.6605e-13
-3.6012e-13
4.44763e-14
2.115e-13
-3.14141e-13
3.06768e-14
1.69621e-13
-2.83747e-13
1.96319e-14
1.23352e-13
-3.3945e-13
1.15291e-14
1.02781e-13
4.45877e-15
6.40309e-14
-1.97507e-14
-1.09359e-12
3.31313e-13
8.89822e-13
-1.29405e-12
1.91973e-13
8.83237e-13
-7.73397e-13
1.40404e-13
7.13322e-13
-6.32538e-13
1.01634e-13
5.3723e-13
-5.32049e-13
7.27348e-14
4.09604e-13
-4.50081e-13
5.38954e-14
3.13959e-13
-3.83837e-13
3.68711e-14
2.47898e-13
-3.36044e-13
2.35142e-14
1.78844e-13
-4.00581e-13
1.30096e-14
1.40842e-13
5.1818e-15
8.86028e-14
-2.30363e-14
-2.28354e-12
6.13211e-11
1.79006e-11
-1.72889e-12
7.44191e-13
1.66947e-12
-1.03833e-12
1.73309e-13
1.16266e-12
-8.2591e-13
1.65586e-13
8.41077e-13
-6.72923e-13
1.08279e-13
6.16272e-13
-5.54547e-13
6.69504e-14
4.58063e-13
-4.60147e-13
3.16166e-14
3.41728e-13
-3.93972e-13
1.75026e-14
2.5831e-13
-4.64468e-13
9.06429e-15
1.94158e-13
3.72413e-15
1.17631e-13
-2.65556e-14
-6.95854e-10
1.91033e-08
9.30158e-08
-5.56741e-12
1.74564e-10
3.1925e-10
-1.37904e-12
2.45228e-12
1.0516e-12
-1.06605e-12
1.12263e-12
8.87257e-14
-8.43623e-13
8.03833e-13
6.43821e-14
-6.74115e-13
5.86526e-13
4.98152e-14
-5.46261e-13
4.31988e-13
3.92807e-14
-4.55191e-13
3.25033e-13
3.15175e-14
-5.30965e-13
2.47192e-13
2.56949e-14
1.46514e-13
-3.02913e-14
2.12999e-14
3.42712e-13
8.15641e-14
2.91314e-14
-1.73089e-14
7.74938e-14
2.82079e-14
-2.33998e-14
6.83147e-14
2.23824e-14
-1.98996e-14
5.95476e-14
1.78651e-14
-1.99424e-14
5.10282e-14
8.26942e-15
-1.9821e-14
4.27983e-14
5.76545e-15
-1.91879e-14
3.488e-14
5.50472e-15
-1.9559e-14
2.723e-14
6.28114e-15
-2.29739e-14
1.98494e-14
1.45857e-14
1.27568e-14
4.09183e-14
-1.69613e-15
2.92127e-13
5.86885e-14
5.03445e-14
-6.53809e-14
5.3956e-14
4.50584e-14
-7.1603e-14
4.58105e-14
4.451e-14
-6.61301e-14
3.79714e-14
3.48105e-14
-6.40744e-14
3.07076e-14
1.9182e-14
-6.11096e-14
2.39803e-14
1.26205e-14
-5.94889e-14
1.77761e-14
1.04068e-14
-5.90556e-14
1.21414e-14
1.09924e-14
-7.07015e-14
6.9935e-15
1.24592e-14
2.61168e-15
3.05452e-14
-4.48014e-15
2.14561e-13
7.48118e-14
7.32818e-14
-1.65411e-13
6.75838e-14
6.86674e-14
-1.35327e-13
5.68279e-14
6.94788e-14
-1.17333e-13
4.6875e-14
5.58036e-14
-1.12019e-13
3.78106e-14
4.34763e-14
-1.05798e-13
2.96236e-14
2.39213e-14
-9.77151e-14
2.23076e-14
2.01703e-14
-1.03962e-13
1.5377e-14
2.14111e-14
-1.19847e-13
9.7692e-15
2.29656e-14
3.30147e-15
2.88361e-14
-7.62758e-15
9.40862e-14
9.33365e-14
1.17269e-13
-2.88359e-13
8.17345e-14
1.19198e-13
-2.16323e-13
6.70242e-14
1.19695e-13
-1.8126e-13
5.41048e-14
9.65233e-14
-1.68566e-13
4.29333e-14
7.82521e-14
-1.56236e-13
3.29867e-14
5.6278e-14
-1.45038e-13
2.40253e-14
3.77397e-14
-1.48437e-13
1.64911e-14
3.34644e-14
-1.71897e-13
9.64401e-15
3.76479e-14
4.08893e-15
3.53457e-14
-1.00683e-14
-2.32879e-14
1.18071e-13
2.03847e-13
-4.45139e-13
9.96832e-14
2.11122e-13
-3.14209e-13
7.97533e-14
2.02473e-13
-2.60019e-13
6.26065e-14
1.64661e-13
-2.37246e-13
4.8261e-14
1.33376e-13
-2.17015e-13
3.64346e-14
1.08053e-13
-1.95529e-13
2.64172e-14
6.76198e-14
-1.96517e-13
1.77082e-14
5.53702e-14
-2.25577e-13
1.03397e-14
6.10674e-14
4.24099e-15
4.86436e-14
-1.34239e-14
-1.59837e-13
1.51193e-13
3.63204e-13
-6.50897e-13
1.23814e-13
3.73753e-13
-4.2332e-13
9.57386e-14
3.40372e-13
-3.59269e-13
7.32391e-14
2.74561e-13
-3.18555e-13
5.52084e-14
2.19266e-13
-2.84749e-13
4.03295e-14
1.79138e-13
-2.53114e-13
2.84613e-14
1.12038e-13
-2.36711e-13
1.88682e-14
8.73712e-14
-2.81876e-13
1.14135e-14
7.52481e-14
4.07845e-15
6.6856e-14
-1.65996e-14
-5.74805e-13
1.91614e-13
6.41382e-13
-9.29066e-13
1.54964e-13
6.51639e-13
-5.76208e-13
1.16081e-13
5.63757e-13
-4.82555e-13
8.60144e-14
4.39595e-13
-4.18266e-13
6.29356e-14
3.45686e-13
-3.62446e-13
4.51937e-14
2.75657e-13
-3.16739e-13
3.13959e-14
2.03785e-13
-2.84647e-13
2.01513e-14
1.33153e-13
-3.41415e-13
1.17398e-14
1.06631e-13
4.84e-15
9.17375e-14
-1.97364e-14
-1.10761e-12
3.32441e-13
1.14853e-12
-1.30536e-12
1.92916e-13
1.12881e-12
-7.80294e-13
1.42708e-13
9.18434e-13
-6.38035e-13
1.03249e-13
6.92852e-13
-5.36485e-13
7.39833e-14
5.28682e-13
-4.5339e-13
5.46278e-14
4.12441e-13
-3.87714e-13
3.76157e-14
3.18641e-13
-3.38533e-13
2.4206e-14
1.95826e-13
-4.03398e-13
1.36401e-14
1.49944e-13
5.65972e-15
9.9826e-14
-2.31178e-14
-2.2854e-12
5.97635e-11
1.69307e-11
-1.75144e-12
6.97909e-13
2.05089e-12
-1.04998e-12
1.72288e-13
1.49926e-12
-8.34654e-13
1.6879e-13
1.08093e-12
-6.80013e-13
1.10605e-13
8.00038e-13
-5.60099e-13
6.87782e-14
6.0274e-13
-4.65314e-13
3.27049e-14
4.59737e-13
-3.97479e-13
1.81774e-14
2.78784e-13
-4.68848e-13
9.517e-15
2.05559e-13
4.18448e-15
1.26359e-13
-2.66055e-14
-6.86313e-10
1.88655e-08
9.68026e-08
-5.22033e-12
1.39673e-10
3.0925e-10
-1.38184e-12
2.89337e-12
8.41544e-13
-1.07985e-12
1.64445e-12
8.56497e-14
-8.53898e-13
1.1793e-12
6.40986e-14
-6.82249e-13
8.58479e-13
5.01109e-14
-5.53305e-13
6.35265e-13
3.98516e-14
-4.6042e-13
4.39283e-13
3.22985e-14
-5.37087e-13
2.75289e-13
2.65088e-14
1.60928e-13
-3.01629e-14
2.23297e-14
3.42431e-13
8.17521e-14
2.05833e-14
-1.7972e-14
7.75323e-14
4.58539e-15
-2.3394e-14
6.84319e-14
7.57396e-15
-2.05772e-14
5.96487e-14
8.91034e-15
-2.02717e-14
5.11376e-14
1.73183e-14
-2.05641e-14
4.29463e-14
3.3665e-14
-2.02237e-14
3.50732e-14
6.17385e-14
-2.01591e-14
2.75199e-14
2.14675e-13
-1.82065e-14
2.02736e-14
8.37825e-13
1.30078e-14
2.51781e-12
-8.94966e-15
2.9142e-13
5.88983e-14
3.19707e-14
-6.57508e-14
5.40664e-14
8.02595e-15
-7.20434e-14
4.58716e-14
1.69865e-14
-6.70207e-14
3.80594e-14
1.65604e-14
-6.42893e-14
3.0832e-14
2.33364e-14
-6.12211e-14
2.41298e-14
3.77528e-14
-6.04697e-14
1.79335e-14
5.88797e-14
-6.26966e-14
1.23362e-14
1.47935e-13
-7.16492e-14
7.31467e-15
4.99648e-13
2.75963e-15
1.64224e-12
-8.81717e-15
2.13563e-13
7.51075e-14
4.46029e-14
-1.66307e-13
6.77941e-14
1.4264e-14
-1.35605e-13
5.70665e-14
2.78421e-14
-1.18334e-13
4.70683e-14
2.79636e-14
-1.1178e-13
3.80389e-14
3.18626e-14
-1.06376e-13
2.99185e-14
4.60714e-14
-9.94923e-14
2.26277e-14
6.97375e-14
-1.05157e-13
1.55668e-14
1.20643e-13
-1.23603e-13
9.27501e-15
3.32106e-13
3.51517e-15
1.07679e-12
-6.54923e-15
9.3252e-14
9.38909e-14
7.52827e-14
-2.89358e-13
8.20766e-14
3.54076e-14
-2.1733e-13
6.73163e-14
5.42597e-14
-1.81572e-13
5.44194e-14
5.28244e-14
-1.6865e-13
4.32094e-14
5.5622e-14
-1.56681e-13
3.32023e-14
6.44327e-14
-1.46993e-13
2.43926e-14
8.53756e-14
-1.50342e-13
1.69401e-14
1.18072e-13
-1.76192e-13
9.92006e-15
2.5275e-13
4.42707e-15
7.46446e-13
-7.55776e-15
-2.47158e-14
1.18986e-13
1.31932e-13
-4.46609e-13
1.00272e-13
8.49253e-14
-3.14451e-13
8.02867e-14
1.04699e-13
-2.61131e-13
6.31681e-14
9.72776e-14
-2.37788e-13
4.87581e-14
9.31699e-14
-2.17357e-13
3.69764e-14
1.25133e-13
-1.97053e-13
2.66659e-14
1.11601e-13
-1.99908e-13
1.79582e-14
1.33591e-13
-2.3016e-13
1.09491e-14
2.23469e-13
4.18948e-15
5.50265e-13
-9.99938e-15
-1.62346e-13
1.52543e-13
2.35621e-13
-6.5315e-13
1.24686e-13
1.80088e-13
-4.24053e-13
9.65593e-14
1.93638e-13
-3.61423e-13
7.39272e-14
1.71811e-13
-3.1897e-13
5.5868e-14
1.5568e-13
-2.87126e-13
4.08693e-14
1.82289e-13
-2.54341e-13
2.89394e-14
1.54179e-13
-2.3896e-13
1.93136e-14
1.7406e-13
-2.87101e-13
1.16412e-14
2.2423e-13
4.79603e-15
4.3637e-13
-1.54167e-14
-5.81791e-13
1.96653e-13
4.25038e-13
-9.32521e-13
1.56399e-13
3.54021e-13
-5.79078e-13
1.17198e-13
3.42711e-13
-4.85124e-13
8.70295e-14
2.90543e-13
-4.19903e-13
6.37733e-14
2.50059e-13
-3.65341e-13
4.59603e-14
2.51537e-13
-3.18645e-13
3.21848e-14
1.70639e-13
-2.87988e-13
2.07705e-14
2.20645e-13
-3.46999e-13
1.23567e-14
2.48508e-13
5.11471e-15
3.73103e-13
-1.87632e-14
-1.11909e-12
3.18003e-13
7.56269e-13
-1.31128e-12
1.83613e-13
6.63445e-13
-7.84842e-13
1.45317e-13
5.8788e-13
-6.42181e-13
1.04739e-13
4.7665e-13
-5.39553e-13
7.53408e-14
3.92082e-13
-4.56585e-13
5.56906e-14
3.64118e-13
-3.91707e-13
3.86776e-14
3.80023e-13
-3.41849e-13
2.49219e-14
2.63911e-13
-4.10105e-13
1.43464e-14
2.91471e-13
6.27984e-15
3.4336e-13
-2.24924e-14
-2.10099e-12
3.12435e-11
1.83304e-12
-1.79915e-12
3.92778e-13
1.1179e-12
-1.05877e-12
2.67025e-13
9.7933e-13
-8.40587e-13
1.7236e-13
7.59007e-13
-6.85532e-13
1.13145e-13
5.96272e-13
-5.64378e-13
7.10498e-14
5.4269e-13
-4.71951e-13
3.40687e-14
5.34608e-13
-4.01295e-13
1.90022e-14
3.0361e-13
-4.76611e-13
1.00739e-14
3.47314e-13
4.77881e-15
3.376e-13
-2.63095e-14
-3.77843e-10
-1.57422e-09
7.62671e-08
-2.87257e-12
-8.39495e-11
1.05693e-10
-1.31237e-12
1.05516e-12
-8.8337e-14
-1.09268e-12
1.20004e-12
8.17891e-14
-8.62298e-13