/*--------------------------------*- C++ -*----------------------------------*\
| =========                 |                                                 |
| \\      /  F ield         | OpenFOAM: The Open Source CFD Toolbox           |
|  \\    /   O peration     | Version:  4.1                                   |
|   \\  /    A nd           | Web:      www.OpenFOAM.org                      |
|    \\/     M anipulation  |                                                 |
\*---------------------------------------------------------------------------*/
FoamFile
{
    version     2.0;
    format      ascii;
    class       volVectorField;
    location    "0.7";
    object      U;
}
// * * * * * * * * * * * * * * * * * * * * * * * * * * * * * * * * * * * * * //

dimensions      [0 1 -1 0 0 0 0];

internalField   nonuniform List<vector> 
18000
(
(8.54436e-14 3.86738e-13 -5.98469e-12)
(9.07241e-14 3.85997e-13 -5.91761e-12)
(8.18334e-14 -9.81064e-15 -5.85072e-12)
(7.31585e-14 -1.34246e-14 -5.78516e-12)
(6.47205e-14 -1.31803e-14 -5.72022e-12)
(5.65146e-14 -1.28278e-14 -5.65608e-12)
(4.85891e-14 -1.28472e-14 -5.59261e-12)
(4.09912e-14 -1.28427e-14 -5.5304e-12)
(3.35887e-14 -1.26223e-14 -5.46906e-12)
(2.64743e-14 -9.43035e-15 -5.40968e-12)
(1.26142e-13 3.98131e-13 -7.47473e-12)
(1.39599e-13 3.85843e-13 -7.21451e-12)
(1.22316e-13 -4.58378e-14 -6.96214e-12)
(1.05939e-13 -4.80802e-14 -6.72105e-12)
(9.07587e-14 -4.64468e-14 -6.49039e-12)
(7.66298e-14 -4.46188e-14 -6.26912e-12)
(6.33588e-14 -4.29323e-14 -6.05675e-12)
(5.11542e-14 -4.14705e-14 -5.8533e-12)
(3.96747e-14 -3.99053e-14 -5.65749e-12)
(2.90275e-14 -2.93766e-14 -5.47371e-12)
(1.38358e-13 4.01702e-13 -9.4465e-12)
(1.47941e-13 3.73354e-13 -8.87887e-12)
(1.22436e-13 -9.79251e-14 -8.34566e-12)
(9.95698e-14 -9.58349e-14 -7.85222e-12)
(7.93296e-14 -8.95551e-14 -7.39318e-12)
(6.13687e-14 -8.40972e-14 -6.96653e-12)
(4.53514e-14 -7.90149e-14 -6.57018e-12)
(3.11219e-14 -7.42842e-14 -6.20017e-12)
(1.8476e-14 -6.99771e-14 -5.85568e-12)
(7.2811e-15 -5.02538e-14 -5.53916e-12)
(1.87249e-13 3.91484e-13 -1.20891e-11)
(1.88633e-13 3.40448e-13 -1.10333e-11)
(1.51006e-13 -1.72692e-13 -1.00799e-11)
(1.18937e-13 -1.60853e-13 -9.22278e-12)
(9.18888e-14 -1.46192e-13 -8.45373e-12)
(6.89677e-14 -1.33201e-13 -7.76138e-12)
(4.96506e-14 -1.21684e-13 -7.13691e-12)
(3.31352e-14 -1.11371e-13 -6.5726e-12)
(1.91912e-14 -1.01881e-13 -6.0618e-12)
(7.44147e-15 -7.16782e-14 -5.60547e-12)
(2.59159e-13 3.55859e-13 -1.56853e-11)
(2.44607e-13 2.73642e-13 -1.38563e-11)
(1.88619e-13 -2.80543e-13 -1.22706e-11)
(1.43346e-13 -2.50334e-13 -1.08962e-11)
(1.07134e-13 -2.19915e-13 -9.70561e-12)
(7.80013e-14 -1.94111e-13 -8.66937e-12)
(5.44657e-14 -1.72228e-13 -7.7648e-12)
(3.5425e-14 -1.53445e-13 -6.97299e-12)
(1.99798e-14 -1.36713e-13 -6.27706e-12)
(7.51721e-15 -9.40709e-14 -5.67299e-12)
(3.67731e-13 2.75914e-13 -2.06573e-11)
(3.23645e-13 1.49618e-13 -1.76021e-11)
(2.38973e-13 -4.37722e-13 -1.50665e-11)
(1.74461e-13 -3.73545e-13 -1.29529e-11)
(1.25753e-13 -3.16453e-13 -1.119e-11)
(8.85088e-14 -2.70219e-13 -9.70998e-12)
(5.99101e-14 -2.32315e-13 -8.46173e-12)
(3.78607e-14 -2.00897e-13 -7.40344e-12)
(2.08174e-14 -1.74287e-13 -6.50156e-12)
(7.61014e-15 -1.17415e-13 -5.7416e-12)
(5.35566e-13 1.18064e-13 -2.7641e-11)
(4.36524e-13 -7.1189e-14 -2.26463e-11)
(3.06561e-13 -6.70432e-13 -1.86693e-11)
(2.13762e-13 -5.45413e-13 -1.55004e-11)
(1.47783e-13 -4.43532e-13 -1.29598e-11)
(1.00088e-13 -3.65147e-13 -1.09068e-11)
(6.53135e-14 -3.03637e-13 -9.23601e-12)
(3.98162e-14 -2.54779e-13 -7.86659e-12)
(2.10087e-14 -2.15088e-13 -6.73639e-12)
(7.06331e-15 -1.4174e-13 -5.81119e-12)
(-1.94607e-12 -1.7982e-13 -3.76604e-11)
(-2.1456e-12 -4.59436e-13 -2.95349e-11)
(-2.20128e-12 -1.01878e-12 -2.33695e-11)
(-2.19943e-12 -7.86651e-13 -1.86839e-11)
(-2.16574e-12 -6.11704e-13 -1.5086e-11)
(-2.11417e-12 -4.84122e-13 -1.22933e-11)
(-2.05325e-12 -3.88475e-13 -1.01037e-11)
(-1.9881e-12 -3.15606e-13 -8.37062e-12)
(-1.92204e-12 -2.59059e-13 -6.98559e-12)
(-1.88654e-12 -1.67051e-13 -5.88645e-12)
(-5.35699e-09 -1.21414e-12 -8.28191e-11)
(-5.38067e-09 -1.1455e-12 -6.62632e-11)
(-5.06702e-09 -1.1633e-12 -5.36782e-11)
(-4.78258e-09 -7.69746e-13 -4.41821e-11)
(-4.526e-09 -5.08365e-13 -3.69116e-11)
(-4.29382e-09 -3.33155e-13 -3.12465e-11)
(-4.08302e-09 -2.13725e-13 -2.67649e-11)
(-3.89099e-09 -1.31664e-13 -2.31699e-11)
(-3.71584e-09 -1.52827e-13 -2.02486e-11)
(-3.63314e-09 -2.61437e-13 -1.80607e-11)
(5.79988e-07 -1.19936e-09 -6.32135e-08)
(3.34503e-08 -1.40644e-10 -5.53737e-08)
(2.61853e-08 7.57054e-10 -4.86167e-08)
(2.17281e-08 6.91822e-10 -4.29678e-08)
(1.79525e-08 6.27502e-10 -3.82092e-08)
(1.47242e-08 5.70258e-10 -3.41723e-08)
(1.19424e-08 5.19532e-10 -3.07238e-08)
(9.52711e-09 4.73664e-10 -2.77584e-08)
(7.04134e-09 2.26799e-10 -2.51948e-08)
(-1.00915e-07 -2.1699e-10 -2.34732e-08)
(2.57342e-13 3.65695e-13 -6.35903e-12)
(2.41506e-13 3.44649e-13 -6.28573e-12)
(2.12001e-13 -5.08176e-14 -6.21284e-12)
(1.83562e-13 -5.3915e-14 -6.14069e-12)
(1.56248e-13 -5.33604e-14 -6.06991e-12)
(1.29907e-13 -5.26727e-14 -6.00031e-12)
(1.04563e-13 -5.21694e-14 -5.93055e-12)
(8.02206e-14 -5.15616e-14 -5.86297e-12)
(5.66408e-14 -5.04429e-14 -5.79609e-12)
(3.44473e-14 -2.93055e-14 -5.73091e-12)
(5.14841e-13 3.19795e-13 -7.99249e-12)
(4.75313e-13 2.34241e-13 -7.70641e-12)
(4.07709e-13 -1.93104e-13 -7.42862e-12)
(3.44479e-13 -1.89873e-13 -7.16395e-12)
(2.85481e-13 -1.83308e-13 -6.91123e-12)
(2.30443e-13 -1.76971e-13 -6.66872e-12)
(1.79079e-13 -1.70806e-13 -6.43709e-12)
(1.31086e-13 -1.652e-13 -6.21468e-12)
(8.62119e-14 -1.58111e-13 -6.0018e-12)
(4.49131e-14 -8.9957e-14 -5.80084e-12)
(6.30641e-13 2.37968e-13 -1.01766e-11)
(5.61749e-13 6.21369e-14 -9.54456e-12)
(4.65405e-13 -3.92476e-13 -8.95448e-12)
(3.78767e-13 -3.72698e-13 -8.40798e-12)
(3.01558e-13 -3.5044e-13 -7.90232e-12)
(2.32625e-13 -3.29597e-13 -7.43323e-12)
(1.71015e-13 -3.1057e-13 -6.99866e-12)
(1.15933e-13 -2.92932e-13 -6.59389e-12)
(6.68211e-14 -2.74312e-13 -6.21745e-12)
(2.34202e-14 -1.53821e-13 -5.87292e-12)
(8.17696e-13 1.00018e-13 -1.31367e-11)
(7.02882e-13 -2.01176e-13 -1.19485e-11)
(5.65355e-13 -6.7116e-13 -1.08825e-11)
(4.46956e-13 -6.17328e-13 -9.92701e-12)
(3.4614e-13 -5.64164e-13 -9.0736e-12)
(2.59893e-13 -5.16874e-13 -8.3084e-12)
(1.8616e-13 -4.74425e-13 -7.6212e-12)
(1.23138e-13 -4.3615e-13 -7.00253e-12)
(6.91948e-14 -3.98583e-13 -6.44289e-12)
(2.37991e-14 -2.20054e-13 -5.94505e-12)
(1.07661e-12 -1.26576e-13 -1.72194e-11)
(8.90155e-13 -6.02002e-13 -1.51352e-11)
(6.92885e-13 -1.06089e-12 -1.33424e-11)
(5.31006e-13 -9.44339e-13 -1.17965e-11)
(3.99114e-13 -8.37724e-13 -1.04656e-11)
(2.91321e-13 -7.45955e-13 -9.31405e-12)
(2.03154e-13 -6.66229e-13 -8.31369e-12)
(1.30972e-13 -5.9695e-13 -7.44192e-12)
(7.1781e-14 -5.32395e-13 -6.67873e-12)
(2.41269e-14 -2.89236e-13 -6.01946e-12)
(1.44051e-12 -4.92653e-13 -2.29572e-11)
(1.14318e-12 -1.20981e-12 -1.94189e-11)
(8.57616e-13 -1.6087e-12 -1.65166e-11)
(6.35294e-13 -1.3829e-12 -1.41138e-11)
(4.62462e-13 -1.18811e-12 -1.21275e-11)
(3.27534e-13 -1.02653e-12 -1.04724e-11)
(2.22012e-13 -8.91174e-13 -9.08598e-12)
(1.39312e-13 -7.77405e-13 -7.91713e-12)
(7.45312e-14 -6.76012e-13 -6.92642e-12)
(2.4435e-14 -3.61036e-13 -6.0956e-12)
(1.96473e-12 -1.07748e-12 -3.11755e-11)
(1.48893e-12 -2.13226e-12 -2.52789e-11)
(1.07247e-12 -2.38572e-12 -2.06587e-11)
(7.65461e-13 -1.97316e-12 -1.70116e-11)
(5.38402e-13 -1.63818e-12 -1.41241e-11)
(3.69369e-13 -1.37078e-12 -1.18126e-11)
(2.42975e-13 -1.15501e-12 -9.94709e-12)
(1.48338e-13 -9.79752e-13 -8.4303e-12)
(7.73135e-14 -8.30431e-13 -7.18479e-12)
(2.47911e-14 -4.36176e-13 -6.17338e-12)
(2.71753e-12 -2.02872e-12 -4.32473e-11)
(1.83636e-12 -3.54934e-12 -3.34327e-11)
(1.23878e-12 -3.49375e-12 -2.61413e-11)
(8.23964e-13 -2.77194e-12 -2.0676e-11)
(5.33879e-13 -2.21728e-12 -1.65439e-11)
(3.28914e-13 -1.79348e-12 -1.33753e-11)
(1.83153e-13 -1.46466e-12 -1.09181e-11)
(7.91988e-14 -1.20705e-12 -8.99001e-12)
(4.83239e-15 -9.96291e-13 -7.46055e-12)
(-4.77831e-14 -5.14077e-13 -6.25693e-12)
(-1.65087e-10 -4.47153e-12 -9.36505e-11)
(-4.16511e-10 -6.50864e-12 -7.36035e-11)
(-3.42725e-10 -5.46615e-12 -5.87665e-11)
(-2.83491e-10 -4.19986e-12 -4.78069e-11)
(-2.37029e-10 -3.27644e-12 -3.95773e-11)
(-2.00089e-10 -2.59805e-12 -3.32641e-11)
(-1.70387e-10 -2.08937e-12 -2.8334e-11)
(-1.46256e-10 -1.7025e-12 -2.44219e-11)
(-1.26488e-10 -1.39716e-12 -2.12696e-11)
(-1.11516e-10 -8.10867e-13 -1.89178e-11)
(3.97055e-07 -2.10286e-09 -6.88842e-08)
(-7.92741e-09 -1.66938e-09 -5.9891e-08)
(-8.69427e-09 -6.9796e-10 -5.2043e-08)
(-8.08122e-09 -6.35367e-10 -4.56072e-08)
(-7.50061e-09 -5.8336e-10 -4.02734e-08)
(-6.96958e-09 -5.35481e-10 -3.58088e-08)
(-6.49037e-09 -4.91978e-10 -3.20371e-08)
(-6.06178e-09 -4.52721e-10 -2.88242e-08)
(-5.70646e-09 -4.21032e-10 -2.60687e-08)
(-7.90188e-09 -4.35282e-10 -2.42058e-08)
(2.31337e-13 3.69581e-13 -3.8627e-13)
(2.18237e-13 3.46482e-13 -3.79482e-13)
(1.91324e-13 -4.92187e-14 -3.72539e-13)
(1.65674e-13 -5.23354e-14 -3.65534e-13)
(1.41094e-13 -5.1425e-14 -3.58875e-13)
(1.174e-13 -5.10044e-14 -3.52459e-13)
(9.49807e-14 -5.05471e-14 -3.45953e-13)
(7.33234e-14 -4.97195e-14 -3.40193e-13)
(5.2599e-14 -4.88611e-14 -3.34279e-13)
(3.31559e-14 -2.5716e-14 -3.2858e-13)
(5.03263e-13 3.33904e-13 -5.36054e-13)
(4.6449e-13 2.39482e-13 -5.08557e-13)
(3.97969e-13 -1.88048e-13 -4.81618e-13)
(3.35789e-13 -1.84533e-13 -4.56223e-13)
(2.78044e-13 -1.78024e-13 -4.32995e-13)
(2.24252e-13 -1.71516e-13 -4.11313e-13)
(1.74348e-13 -1.65327e-13 -3.90038e-13)
(1.27712e-13 -1.59686e-13 -3.70292e-13)
(8.42016e-14 -1.52697e-13 -3.52896e-13)
(4.44864e-14 -7.95705e-14 -3.35195e-13)
(6.22446e-13 2.65283e-13 -7.59203e-13)
(5.53072e-13 6.94788e-14 -6.91311e-13)
(4.571e-13 -3.84818e-13 -6.30846e-13)
(3.7096e-13 -3.64767e-13 -5.75498e-13)
(2.94586e-13 -3.41786e-13 -5.2629e-13)
(2.26778e-13 -3.20739e-13 -4.81313e-13)
(1.66389e-13 -3.01522e-13 -4.4118e-13)
(1.12769e-13 -2.83998e-13 -4.05075e-13)
(6.48148e-14 -2.65069e-13 -3.71627e-13)
(2.29479e-14 -1.35916e-13 -3.4273e-13)
(8.16646e-13 1.45648e-13 -1.09436e-12)
(6.98944e-13 -1.95228e-13 -9.55553e-13)
(5.59857e-13 -6.63239e-13 -8.36024e-13)
(4.40893e-13 -6.08128e-13 -7.32021e-13)
(3.40142e-13 -5.53534e-13 -6.43231e-13)
(2.54595e-13 -5.05173e-13 -5.66846e-13)
(1.81833e-13 -4.61927e-13 -5.00973e-13)
(1.19984e-13 -4.23844e-13 -4.43929e-13)
(6.73399e-14 -3.86207e-13 -3.93716e-13)
(2.33311e-14 -1.95286e-13 -3.50306e-13)
(1.09025e-12 -5.69294e-14 -1.61329e-12)
(8.94847e-13 -6.04986e-13 -1.34247e-12)
(6.92642e-13 -1.05804e-12 -1.12293e-12)
(5.27722e-13 -9.37325e-13 -9.41353e-13)
(3.94668e-13 -8.26883e-13 -7.92847e-13)
(2.86823e-13 -7.32699e-13 -6.71214e-13)
(1.99269e-13 -6.51644e-13 -5.70835e-13)
(1.28012e-13 -5.81692e-13 -4.87583e-13)
(7.01685e-14 -5.16293e-13 -4.17476e-13)
(2.38876e-14 -2.56839e-13 -3.59938e-13)
(1.48203e-12 -3.94212e-13 -2.43601e-12)
(1.16369e-12 -1.23851e-12 -1.92097e-12)
(8.6624e-13 -1.62086e-12 -1.52944e-12)
(6.36454e-13 -1.38434e-12 -1.22135e-12)
(4.60325e-13 -1.18058e-12 -9.84531e-13)
(3.2411e-13 -1.01347e-12 -7.99164e-13)
(2.18616e-13 -8.74876e-13 -6.5364e-13)
(1.36804e-13 -7.5944e-13 -5.3797e-13)
(7.30059e-14 -6.56749e-13 -4.43444e-13)
(2.43581e-14 -3.22016e-13 -3.70027e-13)
(2.05844e-12 -9.45968e-13 -3.77301e-12)
(1.53784e-12 -2.21916e-12 -2.80333e-12)
(1.09597e-12 -2.43267e-12 -2.11239e-12)
(7.74244e-13 -1.99409e-12 -1.60146e-12)
(5.3996e-13 -1.63949e-12 -1.23114e-12)
(3.67696e-13 -1.36116e-12 -9.56229e-13)
(2.40477e-13 -1.13848e-12 -7.50571e-13)
(1.46146e-13 -9.60039e-13 -5.94289e-13)
(7.59163e-14 -8.08342e-13 -4.72536e-13)
(2.47945e-14 -3.8981e-13 -3.81642e-13)
(3.06299e-12 -1.86698e-12 -6.0178e-12)
(2.0729e-12 -3.75874e-12 -4.18136e-12)
(1.40649e-12 -3.61024e-12 -2.96564e-12)
(9.51005e-13 -2.8308e-12 -2.12556e-12)
(6.37178e-13 -2.23754e-12 -1.55306e-12)
(4.18302e-13 -1.79167e-12 -1.15141e-12)
(2.64338e-13 -1.45037e-12 -8.65492e-13)
(1.55443e-13 -1.18678e-12 -6.58082e-13)
(7.81203e-14 -9.71839e-13 -5.0538e-13)
(2.41536e-14 -4.61072e-13 -3.93637e-13)
(2.99803e-10 -3.82994e-12 -1.16488e-11)
(-1.21725e-11 -6.5972e-12 -7.79497e-12)
(-1.02475e-11 -5.39129e-12 -5.37788e-12)
(-7.47685e-12 -4.0261e-12 -3.81796e-12)
(-5.58055e-12 -3.05122e-12 -2.80012e-12)
(-4.24591e-12 -2.35374e-12 -2.11471e-12)
(-3.28837e-12 -1.8426e-12 -1.64171e-12)
(-2.58833e-12 -1.46304e-12 -1.30782e-12)
(-2.0672e-12 -1.16699e-12 -1.06526e-12)
(-1.66286e-12 -5.52814e-13 -8.93308e-13)
(3.44252e-07 -1.09617e-09 -6.05991e-09)
(6.16348e-10 -9.91056e-10 -4.70324e-09)
(-4.6958e-10 -1.27678e-10 -3.54755e-09)
(-3.8305e-10 -9.51112e-11 -2.72019e-09)
(-3.11619e-10 -7.51334e-11 -2.11956e-09)
(-2.56479e-10 -6.00361e-11 -1.67512e-09)
(-2.13102e-10 -4.85012e-11 -1.34088e-09)
(-1.78719e-10 -3.95779e-11 -1.08581e-09)
(-1.52171e-10 -3.25678e-11 -8.88693e-10)
(-1.6893e-10 -2.78745e-11 -7.43614e-10)
(2.26819e-13 3.701e-13 -1.68397e-14)
(2.14222e-13 3.46632e-13 -1.60002e-14)
(1.8784e-13 -4.90172e-14 -1.37451e-14)
(1.62603e-13 -5.21033e-14 -1.27279e-14)
(1.38565e-13 -5.14156e-14 -1.11716e-14)
(1.15528e-13 -5.07666e-14 -1.01143e-14)
(9.34013e-14 -5.01012e-14 -9.07339e-15)
(7.22255e-14 -4.93494e-14 -7.88916e-15)
(5.20415e-14 -4.83002e-14 -7.44932e-15)
(3.30151e-14 -2.51779e-14 -7.51374e-15)
(4.98047e-13 3.36361e-13 -2.5559e-14)
(4.60027e-13 2.41278e-13 -2.29318e-14)
(3.9421e-13 -1.86483e-13 -2.07756e-14)
(3.32724e-13 -1.82983e-13 -1.79338e-14)
(2.75598e-13 -1.7608e-13 -1.54203e-14)
(2.22387e-13 -1.70031e-13 -1.39622e-14)
(1.72968e-13 -1.64101e-13 -1.19503e-14)
(1.26863e-13 -1.5792e-13 -1.06143e-14)
(8.37907e-14 -1.50926e-13 -9.57385e-15)
(4.44771e-14 -7.77152e-14 -8.83681e-15)
(6.155e-13 2.71258e-13 -4.09359e-14)
(5.47526e-13 7.36638e-14 -3.62054e-14)
(4.52551e-13 -3.80812e-13 -3.09929e-14)
(3.67371e-13 -3.60938e-13 -2.63193e-14)
(2.91826e-13 -3.38548e-13 -2.2827e-14)
(2.24681e-13 -3.17699e-13 -1.94725e-14)
(1.65075e-13 -2.9842e-13 -1.63244e-14)
(1.11992e-13 -2.8111e-13 -1.43934e-14)
(6.45753e-14 -2.62343e-13 -1.24843e-14)
(2.3094e-14 -1.32807e-13 -1.16987e-14)
(8.07542e-13 1.57878e-13 -6.69691e-14)
(6.91812e-13 -1.86897e-13 -5.81597e-14)
(5.54404e-13 -6.56331e-13 -4.8607e-14)
(4.36698e-13 -6.01804e-13 -4.02135e-14)
(3.37042e-13 -5.4768e-13 -3.34505e-14)
(2.52473e-13 -4.99935e-13 -2.8372e-14)
(1.80541e-13 -4.57296e-13 -2.36323e-14)
(1.19389e-13 -4.19333e-13 -1.98686e-14)
(6.73445e-14 -3.82109e-13 -1.74518e-14)
(2.37547e-14 -1.91396e-13 -1.52655e-14)
(1.07829e-12 -3.50024e-14 -1.14821e-13)
(8.85905e-13 -5.91014e-13 -9.49995e-14)
(6.86058e-13 -1.04619e-12 -7.65814e-14)
(5.2296e-13 -9.27314e-13 -6.12976e-14)
(3.91405e-13 -8.18304e-13 -4.98994e-14)
(2.84688e-13 -7.25031e-13 -4.0295e-14)
(1.98111e-13 -6.44662e-13 -3.31488e-14)
(1.27705e-13 -5.75585e-13 -2.8629e-14)
(7.01341e-14 -5.11107e-13 -2.49939e-14)
(2.44284e-14 -2.51857e-13 -2.10812e-14)
(1.46598e-12 -3.54818e-13 -1.99979e-13)
(1.15237e-12 -1.21588e-12 -1.56769e-13)
(8.58231e-13 -1.60291e-12 -1.22021e-13)
(6.3107e-13 -1.36952e-12 -9.44508e-14)
(4.56856e-13 -1.16812e-12 -7.43225e-14)
(3.22103e-13 -1.00301e-12 -5.94368e-14)
(2.17728e-13 -8.65778e-13 -4.79315e-14)
(1.3656e-13 -7.52315e-13 -3.95857e-14)
(7.3269e-14 -6.50715e-13 -3.21169e-14)
(2.49988e-14 -3.15711e-13 -2.75066e-14)
(2.03714e-12 -8.7676e-13 -3.5203e-13)
(1.52316e-12 -2.18417e-12 -2.62122e-13)
(1.08633e-12 -2.40547e-12 -1.92792e-13)
(7.68102e-13 -1.97284e-12 -1.44846e-13)
(5.3631e-13 -1.62267e-12 -1.09739e-13)
(3.65825e-13 -1.34734e-12 -8.49563e-14)
(2.39677e-13 -1.12741e-12 -6.69459e-14)
(1.46069e-13 -9.51394e-13 -5.36663e-14)
(7.66469e-14 -8.01271e-13 -4.3518e-14)
(2.56044e-14 -3.83003e-13 -3.56029e-14)
(3.03656e-12 -1.74599e-12 -6.35429e-13)
(2.05156e-12 -3.70612e-12 -4.38326e-13)
(1.39314e-12 -3.57067e-12 -3.07177e-13)
(9.43326e-13 -2.80158e-12 -2.18741e-13)
(6.33338e-13 -2.21495e-12 -1.60248e-13)
(4.16958e-13 -1.77468e-12 -1.19787e-13)
(2.64495e-13 -1.43738e-12 -9.11052e-14)
(1.56645e-13 -1.17637e-12 -7.10325e-14)
(7.99868e-14 -9.64109e-13 -5.67951e-14)
(2.64171e-14 -4.53679e-13 -4.54351e-14)
(3.31644e-10 -3.57244e-12 -1.26014e-12)
(4.43073e-12 -6.48048e-12 -7.14968e-13)
(1.50149e-12 -5.29064e-12 -4.71833e-13)
(9.71409e-13 -3.94941e-12 -3.25691e-13)
(6.25766e-13 -2.99163e-12 -2.31803e-13)
(3.92562e-13 -2.30658e-12 -1.70648e-13)
(2.34862e-13 -1.80454e-12 -1.28817e-13)
(1.27692e-13 -1.43158e-12 -9.98772e-14)
(5.45997e-14 -1.14037e-12 -7.91329e-14)
(6.32135e-15 -5.28076e-13 -6.44009e-14)
(3.41583e-07 -9.38498e-10 -5.94034e-10)
(1.19926e-09 -8.73482e-10 -1.94059e-10)
(-1.28727e-11 -1.96779e-11 -1.25013e-10)
(-1.12118e-11 -9.81259e-12 -8.31091e-11)
(-8.00866e-12 -6.9518e-12 -5.67631e-11)
(-5.85237e-12 -5.04753e-12 -3.96472e-11)
(-4.35287e-12 -3.73431e-12 -2.82657e-11)
(-3.29204e-12 -2.81293e-12 -2.05299e-11)
(-2.54807e-12 -2.14181e-12 -1.51607e-11)
(-2.41354e-12 -1.22788e-12 -1.13052e-11)
(2.27082e-13 3.70004e-13 -1.11986e-14)
(2.1438e-13 3.46025e-13 -1.00892e-14)
(1.88095e-13 -4.9753e-14 -7.61542e-15)
(1.62784e-13 -5.26082e-14 -5.55722e-15)
(1.38675e-13 -5.17265e-14 -4.34692e-15)
(1.15513e-13 -5.11148e-14 -3.18223e-15)
(9.35308e-14 -5.07231e-14 -2.51081e-15)
(7.24091e-14 -4.96676e-14 -1.5162e-15)
(5.21355e-14 -4.83206e-14 -4.83722e-16)
(3.31e-14 -2.5407e-14 -4.06775e-16)
(4.9884e-13 3.36045e-13 -1.62205e-14)
(4.60717e-13 2.40733e-13 -1.44174e-14)
(3.94854e-13 -1.87028e-13 -1.11512e-14)
(3.33162e-13 -1.83811e-13 -9.42671e-15)
(2.76023e-13 -1.76904e-13 -6.46818e-15)
(2.22726e-13 -1.70338e-13 -4.79296e-15)
(1.73287e-13 -1.64242e-13 -4.09451e-15)
(1.2724e-13 -1.58352e-13 -3.51242e-15)
(8.41328e-14 -1.51232e-13 -2.47768e-15)
(4.48613e-14 -7.77323e-14 -1.35932e-15)
(6.16936e-13 2.70923e-13 -2.65075e-14)
(5.48863e-13 7.27866e-14 -2.35595e-14)
(4.53662e-13 -3.82103e-13 -1.91636e-14)
(3.68299e-13 -3.61985e-13 -1.5032e-14)
(2.92666e-13 -3.39036e-13 -1.22048e-14)
(2.25488e-13 -3.18331e-13 -9.69682e-15)
(1.65695e-13 -2.98995e-13 -7.82982e-15)
(1.12565e-13 -2.81382e-13 -6.51224e-15)
(6.51342e-14 -2.62365e-13 -5.93692e-15)
(2.36633e-14 -1.32954e-13 -5.30241e-15)
(8.10119e-13 1.57298e-13 -4.54777e-14)
(6.9418e-13 -1.88281e-13 -3.96856e-14)
(5.56335e-13 -6.57891e-13 -3.29191e-14)
(4.38363e-13 -6.03331e-13 -2.68301e-14)
(3.3847e-13 -5.48857e-13 -2.18841e-14)
(2.53627e-13 -5.00888e-13 -1.8053e-14)
(1.81573e-13 -4.58139e-13 -1.53381e-14)
(1.20373e-13 -4.2002e-13 -1.30148e-14)
(6.83065e-14 -3.82513e-13 -1.12637e-14)
(2.4494e-14 -1.91157e-13 -1.05774e-14)
(1.08281e-12 -3.58744e-14 -7.97215e-14)
(8.89747e-13 -5.93723e-13 -6.90664e-14)
(6.89233e-13 -1.04945e-12 -5.59735e-14)
(5.25567e-13 -9.29831e-13 -4.52955e-14)
(3.9359e-13 -8.20302e-13 -3.77333e-14)
(2.86559e-13 -7.26927e-13 -3.11728e-14)
(1.99698e-13 -6.45894e-13 -2.55883e-14)
(1.29041e-13 -5.76207e-13 -2.21187e-14)
(7.14108e-14 -5.11898e-13 -1.93928e-14)
(2.54803e-14 -2.52424e-13 -1.67848e-14)
(1.47353e-12 -3.57355e-13 -1.40969e-13)
(1.15867e-12 -1.22132e-12 -1.17434e-13)
(8.63192e-13 -1.60803e-12 -9.38129e-14)
(6.35147e-13 -1.37405e-12 -7.51132e-14)
(4.6009e-13 -1.17162e-12 -6.07991e-14)
(3.24827e-13 -1.00591e-12 -5.05357e-14)
(2.19945e-13 -8.68298e-13 -4.09387e-14)
(1.38416e-13 -7.5407e-13 -3.44016e-14)
(7.47697e-14 -6.52169e-13 -2.99028e-14)
(2.62935e-14 -3.16536e-13 -2.54704e-14)
(2.04982e-12 -8.81354e-13 -2.50319e-13)
(1.53338e-12 -2.19491e-12 -2.01274e-13)
(1.09397e-12 -2.41545e-12 -1.55387e-13)
(7.74005e-13 -1.98064e-12 -1.20661e-13)
(5.40959e-13 -1.62895e-12 -9.6183e-14)
(3.6941e-13 -1.35249e-12 -7.69367e-14)
(2.42598e-13 -1.1314e-12 -6.20452e-14)
(1.4848e-13 -9.54388e-13 -5.12986e-14)
(7.85324e-14 -8.03998e-13 -4.30986e-14)
(2.72415e-14 -3.84505e-13 -3.62044e-14)
(3.06423e-12 -1.75554e-12 -4.47829e-13)
(2.06744e-12 -3.72744e-12 -3.419e-13)
(1.40473e-12 -3.58871e-12 -2.52427e-13)
(9.52059e-13 -2.81535e-12 -1.90407e-13)
(6.3989e-13 -2.22579e-12 -1.46321e-13)
(4.2195e-13 -1.78307e-12 -1.14138e-13)
(2.68382e-13 -1.44388e-12 -9.05154e-14)
(1.59615e-13 -1.18162e-12 -7.26883e-14)
(8.22568e-14 -9.68179e-13 -5.93056e-14)
(2.82372e-14 -4.56076e-13 -4.98154e-14)
(3.48413e-10 -3.61455e-12 -9.57859e-13)
(5.10231e-12 -6.53976e-12 -5.78671e-13)
(1.82058e-12 -5.32303e-12 -4.07479e-13)
(1.17196e-12 -3.9732e-12 -2.95797e-13)
(7.54366e-13 -3.00964e-12 -2.19016e-13)
(4.77921e-13 -2.32012e-12 -1.65541e-13)
(2.92851e-13 -1.8148e-12 -1.2657e-13)
(1.67959e-13 -1.43952e-12 -9.95114e-14)
(8.29136e-14 -1.14659e-12 -7.87915e-14)
(2.61964e-14 -5.31333e-13 -6.37839e-14)
(3.62592e-07 -9.85992e-10 -4.7214e-10)
(1.34804e-09 -9.05969e-10 -1.0353e-11)
(4.40966e-12 -1.40437e-11 -3.83784e-12)
(8.65772e-13 -5.73018e-12 -2.28347e-12)
(5.82742e-13 -4.11487e-12 -1.40543e-12)
(3.97741e-13 -3.03544e-12 -9.0217e-13)
(2.69067e-13 -2.28351e-12 -5.98262e-13)
(1.7959e-13 -1.74991e-12 -4.08237e-13)
(1.16639e-13 -1.3519e-12 -2.84443e-13)
(6.96949e-14 -6.19478e-13 -2.01619e-13)
(2.27599e-13 3.69657e-13 -1.38279e-14)
(2.14848e-13 3.45232e-13 -1.16511e-14)
(1.88355e-13 -5.07875e-14 -9.64578e-15)
(1.63119e-13 -5.33747e-14 -6.7205e-15)
(1.38826e-13 -5.2335e-14 -5.14605e-15)
(1.157e-13 -5.14706e-14 -2.96877e-15)
(9.35844e-14 -5.07398e-14 -2.10588e-15)
(7.24898e-14 -5.01357e-14 -1.39098e-15)
(5.23219e-14 -4.87212e-14 -6.64965e-16)
(3.31543e-14 -2.52127e-14 -9.82124e-16)
(5.00153e-13 3.35649e-13 -2.01863e-14)
(4.61899e-13 2.39383e-13 -1.79944e-14)
(3.95752e-13 -1.88308e-13 -1.30489e-14)
(3.34006e-13 -1.84715e-13 -1.05771e-14)
(2.76665e-13 -1.77801e-13 -8.1199e-15)
(2.23266e-13 -1.70881e-13 -5.81696e-15)
(1.73697e-13 -1.6453e-13 -4.25488e-15)
(1.27572e-13 -1.58491e-13 -3.40922e-15)
(8.45977e-14 -1.51725e-13 -3.12918e-15)
(4.52201e-14 -7.81383e-14 -2.52393e-15)
(6.19326e-13 2.70109e-13 -3.23913e-14)
(5.50896e-13 7.10596e-14 -2.87509e-14)
(4.55473e-13 -3.83841e-13 -2.30744e-14)
(3.69733e-13 -3.63431e-13 -1.8794e-14)
(2.93935e-13 -3.40441e-13 -1.44529e-14)
(2.26523e-13 -3.19248e-13 -1.13425e-14)
(1.66671e-13 -2.99553e-13 -9.31362e-15)
(1.13374e-13 -2.81773e-13 -8.3207e-15)
(6.58855e-14 -2.62763e-13 -7.32821e-15)
(2.44982e-14 -1.33353e-13 -6.43926e-15)
(8.14228e-13 1.55572e-13 -5.63046e-14)
(6.97639e-13 -1.91162e-13 -4.8411e-14)
(5.59219e-13 -6.60749e-13 -3.97625e-14)
(4.40746e-13 -6.05659e-13 -3.23627e-14)
(3.4052e-13 -5.50781e-13 -2.62229e-14)
(2.55453e-13 -5.02255e-13 -2.1234e-14)
(1.83075e-13 -4.59131e-13 -1.82467e-14)
(1.21673e-13 -4.20867e-13 -1.60003e-14)
(6.93562e-14 -3.83051e-13 -1.43934e-14)
(2.55048e-14 -1.91535e-13 -1.2495e-14)
(1.08963e-12 -3.9254e-14 -9.83915e-14)
(8.95485e-13 -5.98819e-13 -8.36915e-14)
(6.93802e-13 -1.05417e-12 -6.82243e-14)
(5.293e-13 -9.33638e-13 -5.56901e-14)
(3.96672e-13 -8.23372e-13 -4.61833e-14)
(2.89212e-13 -7.29543e-13 -3.86551e-14)
(2.01761e-13 -6.48107e-13 -3.18523e-14)
(1.30822e-13 -5.78011e-13 -2.71475e-14)
(7.29063e-14 -5.1321e-13 -2.29812e-14)
(2.6696e-14 -2.53072e-13 -2.07135e-14)
(1.48499e-12 -3.63762e-13 -1.72114e-13)
(1.16793e-12 -1.23079e-12 -1.44014e-13)
(8.70415e-13 -1.6167e-12 -1.14286e-13)
(6.40686e-13 -1.38073e-12 -9.12999e-14)
(4.64596e-13 -1.17686e-12 -7.44705e-14)
(3.28383e-13 -1.01041e-12 -6.18176e-14)
(2.22876e-13 -8.71972e-13 -5.05558e-14)
(1.40789e-13 -7.56743e-13 -4.22399e-14)
(7.67976e-14 -6.54486e-13 -3.62501e-14)
(2.79558e-14 -3.17808e-13 -3.15715e-14)
(2.06912e-12 -8.94677e-13 -3.0489e-13)
(1.54817e-12 -2.21259e-12 -2.44124e-13)
(1.10506e-12 -2.43088e-12 -1.89528e-13)
(7.82395e-13 -1.99254e-12 -1.48027e-13)
(5.47422e-13 -1.63814e-12 -1.18215e-13)
(3.7442e-13 -1.36001e-12 -9.49037e-14)
(2.46616e-13 -1.13742e-12 -7.71742e-14)
(1.51585e-13 -9.59099e-13 -6.25381e-14)
(8.10099e-14 -8.07727e-13 -5.27036e-14)
(2.9308e-14 -3.8664e-13 -4.46797e-14)
(3.10375e-12 -1.78211e-12 -5.42779e-13)
(2.09132e-12 -3.7614e-12 -4.15711e-13)
(1.42162e-12 -3.61637e-12 -3.09385e-13)
(9.64361e-13 -2.83601e-12 -2.34162e-13)
(6.48909e-13 -2.24141e-12 -1.80631e-13)
(4.2874e-13 -1.79531e-12 -1.41757e-13)
(2.73447e-13 -1.45365e-12 -1.12771e-13)
(1.63555e-13 -1.18918e-12 -8.93331e-14)
(8.52657e-14 -9.73984e-13 -7.26389e-14)
(3.06104e-14 -4.59276e-13 -6.07853e-14)
(3.70403e-10 -3.67296e-12 -9.66068e-13)
(5.33503e-12 -6.62255e-12 -7.05249e-13)
(1.85462e-12 -5.37288e-12 -5.02529e-13)
(1.19368e-12 -4.00874e-12 -3.64622e-13)
(7.69138e-13 -3.03574e-12 -2.71317e-13)
(4.88243e-13 -2.33998e-12 -2.05265e-13)
(3.00284e-13 -1.82982e-12 -1.57607e-13)
(1.73375e-13 -1.45088e-12 -1.22764e-13)
(8.68702e-14 -1.15552e-12 -9.75482e-14)
(2.91507e-14 -5.36362e-13 -7.90274e-14)
(3.95835e-07 -1.04129e-09 -3.64382e-10)
(1.46459e-09 -9.62456e-10 -2.04821e-12)
(5.44831e-12 -1.43898e-11 -8.80767e-13)
(1.17375e-12 -5.67002e-12 -5.99341e-13)
(7.76739e-13 -4.08333e-12 -4.20107e-13)
(5.21273e-13 -3.01991e-12 -3.03389e-13)
(3.50593e-13 -2.27668e-12 -2.24503e-13)
(2.3456e-13 -1.74769e-12 -1.68329e-13)
(1.54698e-13 -1.35193e-12 -1.28976e-13)
(1.00039e-13 -6.17925e-13 -1.01387e-13)
(2.2827e-13 3.69113e-13 -1.60824e-14)
(2.15508e-13 3.44361e-13 -1.40606e-14)
(1.88731e-13 -5.17044e-14 -1.07772e-14)
(1.63459e-13 -5.43968e-14 -8.44558e-15)
(1.39178e-13 -5.32161e-14 -6.25442e-15)
(1.1597e-13 -5.23242e-14 -4.23105e-15)
(9.38616e-14 -5.13498e-14 -2.59943e-15)
(7.27344e-14 -5.02497e-14 -2.92437e-15)
(5.25702e-14 -4.85341e-14 -8.02734e-15)
(3.33974e-14 -2.53459e-14 -2.30763e-14)
(5.01754e-13 3.35033e-13 -2.41167e-14)
(4.63347e-13 2.37954e-13 -2.04182e-14)
(3.96928e-13 -1.89908e-13 -1.62885e-14)
(3.35e-13 -1.85747e-13 -1.27754e-14)
(2.77467e-13 -1.78793e-13 -1.02234e-14)
(2.24013e-13 -1.71877e-13 -7.48364e-15)
(1.74391e-13 -1.65215e-13 -6.01773e-15)
(1.283e-13 -1.58826e-13 -5.10264e-15)
(8.51747e-14 -1.51663e-13 -6.55819e-15)
(4.57397e-14 -7.84616e-14 -1.78083e-14)
(6.22214e-13 2.69121e-13 -3.86364e-14)
(5.53294e-13 6.91922e-14 -3.28761e-14)
(4.57562e-13 -3.859e-13 -2.64292e-14)
(3.71514e-13 -3.65324e-13 -2.15109e-14)
(2.95348e-13 -3.41945e-13 -1.71871e-14)
(2.27803e-13 -3.20402e-13 -1.43571e-14)
(1.67803e-13 -3.00263e-13 -1.18168e-14)
(1.14483e-13 -2.82276e-13 -1.08835e-14)
(6.68723e-14 -2.63284e-13 -1.17632e-14)
(2.52174e-14 -1.33936e-13 -1.72933e-14)
(8.19215e-13 1.53434e-13 -6.5778e-14)
(7.01803e-13 -1.94524e-13 -5.56674e-14)
(5.62676e-13 -6.63935e-13 -4.56326e-14)
(4.43614e-13 -6.08517e-13 -3.73295e-14)
(3.4305e-13 -5.53225e-13 -3.09936e-14)
(2.57632e-13 -5.0415e-13 -2.63922e-14)
(1.84928e-13 -4.60401e-13 -2.27694e-14)
(1.23209e-13 -4.21762e-13 -1.98878e-14)
(7.06999e-14 -3.84192e-13 -1.89402e-14)
(2.66958e-14 -1.92417e-13 -2.10711e-14)
(1.09793e-12 -4.329e-14 -1.15305e-13)
(9.02386e-13 -6.04809e-13 -9.61791e-14)
(6.9931e-13 -1.05979e-12 -7.79845e-14)
(5.33728e-13 -9.38223e-13 -6.40298e-14)
(4.00409e-13 -8.27017e-13 -5.3518e-14)
(2.92418e-13 -7.32781e-13 -4.56678e-14)
(2.04465e-13 -6.508e-13 -3.923e-14)
(1.32971e-13 -5.80158e-13 -3.39356e-14)
(7.47241e-14 -5.14919e-13 -2.97742e-14)
(2.84124e-14 -2.54324e-13 -3.01418e-14)
(1.49897e-12 -3.71729e-13 -2.03452e-13)
(1.17892e-12 -1.24189e-12 -1.65305e-13)
(8.78964e-13 -1.62692e-12 -1.31704e-13)
(6.47539e-13 -1.38894e-12 -1.06683e-13)
(4.70022e-13 -1.18316e-12 -8.73212e-14)
(3.32809e-13 -1.01569e-12 -7.37415e-14)
(2.26526e-13 -8.76591e-13 -6.13905e-14)
(1.43666e-13 -7.60469e-13 -5.20761e-14)
(7.92526e-14 -6.57231e-13 -4.54732e-14)
(2.99661e-14 -3.19741e-13 -4.18747e-14)
(2.09262e-12 -9.10862e-13 -3.58706e-13)
(1.56582e-12 -2.23375e-12 -2.80368e-13)
(1.11829e-12 -2.44872e-12 -2.18424e-13)
(7.92562e-13 -2.00662e-12 -1.72698e-13)
(5.55229e-13 -1.64925e-12 -1.38016e-13)
(3.80535e-13 -1.369e-12 -1.12988e-13)
(2.51495e-13 -1.14498e-12 -9.21957e-14)
(1.55393e-13 -9.65149e-13 -7.64201e-14)
(8.39948e-14 -8.12367e-13 -6.48442e-14)
(3.17076e-14 -3.89643e-13 -5.71274e-14)
(3.1356e-12 -1.81442e-12 -6.36958e-13)
(2.11949e-12 -3.80147e-12 -4.76162e-13)
(1.44205e-12 -3.64876e-12 -3.57215e-13)
(9.79188e-13 -2.86054e-12 -2.72393e-13)
(6.59918e-13 -2.26013e-12 -2.11205e-13)
(4.37002e-13 -1.80984e-12 -1.67816e-13)
(2.79761e-13 -1.46568e-12 -1.35178e-13)
(1.68372e-13 -1.19899e-12 -1.07911e-13)
(8.8953e-14 -9.81372e-13 -8.89016e-14)
(3.34775e-14 -4.63637e-13 -7.52838e-14)
(3.78271e-10 -3.60955e-12 -2.11192e-13)
(5.2612e-12 -6.67655e-12 -7.96806e-13)
(1.88454e-12 -5.43055e-12 -5.8314e-13)
(1.21545e-12 -4.05109e-12 -4.25196e-13)
(7.84576e-13 -3.06714e-12 -3.18998e-13)
(4.99364e-13 -2.36382e-12 -2.43965e-13)
(3.08362e-13 -1.84866e-12 -1.90626e-13)
(1.79294e-13 -1.46525e-12 -1.46934e-13)
(9.12755e-14 -1.16663e-12 -1.18737e-13)
(3.23812e-14 -5.4292e-13 -9.75967e-14)
(4.20425e-07 -8.68936e-10 1.17323e-09)
(1.46647e-09 -9.80877e-10 1.43962e-11)
(4.82497e-12 -1.41671e-11 -8.57043e-13)
(1.19776e-12 -5.73457e-12 -6.55008e-13)
(7.94245e-13 -4.13278e-12 -4.71266e-13)
(5.33433e-13 -3.05637e-12 -3.46978e-13)
(3.59272e-13 -2.30452e-12 -2.61277e-13)
(2.40974e-13 -1.7687e-12 -1.96416e-13)
(1.59257e-13 -1.36785e-12 -1.52872e-13)
(1.03512e-13 -6.26856e-13 -1.22186e-13)
(2.28846e-13 3.68851e-13 -1.46552e-14)
(2.15508e-13 3.43203e-13 -6.15526e-15)
(1.88975e-13 -5.29504e-14 -5.04047e-15)
(1.63731e-13 -5.51426e-14 -5.98384e-15)
(1.39596e-13 -5.4037e-14 -1.0417e-14)
(1.16632e-13 -5.30411e-14 -1.92427e-14)
(9.47982e-14 -5.15156e-14 -3.47083e-14)
(7.46429e-14 -4.89186e-14 -1.20269e-13)
(5.64008e-14 -4.4399e-14 -4.68498e-13)
(3.66519e-14 -3.8075e-14 -1.4053e-12)
(5.03204e-13 3.34236e-13 -1.97752e-14)
(4.63869e-13 2.36764e-13 -5.74534e-15)
(3.9764e-13 -1.9101e-13 -6.69121e-15)
(3.3572e-13 -1.86916e-13 -7.20149e-15)
(2.78342e-13 -1.79889e-13 -1.13075e-14)
(2.25124e-13 -1.72822e-13 -1.98006e-14)
(1.75657e-13 -1.6611e-13 -3.21923e-14)
(1.2997e-13 -1.60149e-13 -8.23733e-14)
(8.76896e-14 -1.53249e-13 -2.78948e-13)
(4.71239e-14 -1.00654e-13 -9.15855e-13)
(6.24725e-13 2.67937e-13 -3.24965e-14)
(5.54691e-13 6.74264e-14 -1.18705e-14)
(4.58864e-13 -3.87402e-13 -1.06352e-14)
(3.72838e-13 -3.66504e-13 -1.1837e-14)
(2.96855e-13 -3.43076e-13 -1.49573e-14)
(2.29553e-13 -3.21719e-13 -2.36248e-14)
(1.69698e-13 -3.01951e-13 -3.72634e-14)
(1.16445e-13 -2.84059e-13 -6.61827e-14)
(6.93877e-14 -2.67302e-13 -1.86172e-13)
(2.68084e-14 -1.58099e-13 -6.00019e-13)
(8.23647e-13 1.51846e-13 -5.63617e-14)
(7.04406e-13 -1.96555e-13 -2.48691e-14)
(5.6509e-13 -6.6599e-13 -2.20173e-14)
(4.46005e-13 -6.10176e-13 -2.25544e-14)