/*--------------------------------*- C++ -*----------------------------------*\
| =========                 |                                                 |
| \\      /  F ield         | OpenFOAM: The Open Source CFD Toolbox           |
|  \\    /   O peration     | Version:  4.1                                   |
|   \\  /    A nd           | Web:      www.OpenFOAM.org                      |
|    \\/     M anipulation  |                                                 |
\*---------------------------------------------------------------------------*/
FoamFile
{
    version     2.0;
    format      ascii;
    class       volScalarField;
    location    "0.64";
    object      Ma;
}
// * * * * * * * * * * * * * * * * * * * * * * * * * * * * * * * * * * * * * //

dimensions      [0 0 0 0 0 0 0];

internalField   nonuniform List<scalar> 
52500
(
2.81334
2.57167
1.83924
0.457565
0.149139
0.0171758
0.315717
0.0604066
0.0265696
0.137845
0.13395
0.12752
0.14861
0.166021
0.179299
0.187077
0.188353
0.180909
0.161697
0.131355
0.0996824
0.0630588
0.037912
0.0304533
0.0308331
2.81072
2.57784
1.85573
0.472694
0.156153
0.0416228
0.319134
0.0715184
0.0472061
0.140577
0.13957
0.132819
0.154058
0.171476
0.184766
0.192467
0.193688
0.186856
0.168716
0.13997
0.110631
0.0792917
0.0617742
0.0585669
0.0601461
2.80599
2.5918
1.89284
0.50769
0.165769
0.0722051
0.328362
0.0955135
0.0771321
0.149689
0.15429
0.145957
0.166592
0.183075
0.195667
0.203681
0.205581
0.200411
0.18467
0.159496
0.134966
0.111275
0.100794
0.100909
0.104073
2.79987
2.61278
1.94761
0.56414
0.179709
0.108631
0.342061
0.123923
0.107967
0.161571
0.173222
0.163108
0.182577
0.198227
0.210504
0.218805
0.221546
0.218637
0.205943
0.18475
0.164898
0.147006
0.141539
0.144389
0.149395
2.79465
2.64061
2.01705
0.643093
0.196995
0.151172
0.35685
0.15379
0.13829
0.175767
0.194244
0.183582
0.201709
0.216365
0.228309
0.2369
0.240957
0.240448
0.231256
0.214249
0.198615
0.185753
0.184976
0.190529
0.197671
2.7923
2.67482
2.09879
0.747927
0.216874
0.19892
0.369548
0.184688
0.168202
0.193029
0.216326
0.206908
0.223305
0.236874
0.248653
0.25762
0.263106
0.265025
0.259765
0.247056
0.235662
0.228234
0.23229
0.24175
0.251875
2.79614
2.71528
2.19058
0.881478
0.238617
0.249068
0.377209
0.216957
0.198621
0.213742
0.238524
0.232623
0.246988
0.259327
0.271097
0.280281
0.287273
0.291796
0.290811
0.282743
0.276315
0.275381
0.284313
0.29994
0.315871
2.81049
2.76117
2.29052
1.04534
0.262056
0.297938
0.377262
0.250979
0.229458
0.237393
0.260961
0.260387
0.272254
0.283295
0.295125
0.304353
0.31305
0.320189
0.323834
0.320759
0.320246
0.326645
0.342058
0.367339
0.396317
2.83895
2.80967
2.39775
1.239
0.289196
0.342063
0.361222
0.287398
0.259371
0.263958
0.283496
0.289558
0.29867
0.308635
0.320468
0.32951
0.339946
0.349637
0.358059
0.360476
0.366836
0.381017
0.406956
0.445747
0.50112
2.88082
2.85937
2.51201
1.45998
0.325958
0.37812
0.331289
0.325917
0.287361
0.292103
0.306774
0.319357
0.326034
0.335199
0.346473
0.355639
0.367532
0.379662
0.392875
0.401893
0.415181
0.438365
0.479963
0.545974
0.66666
2.81337
2.57158
1.83901
0.457363
0.14903
0.0151698
0.315504
0.0596263
0.0252115
0.137607
0.13372
0.127381
0.148528
0.165936
0.179171
0.18691
0.188171
0.180716
0.161485
0.131105
0.0993806
0.0626092
0.0371853
0.0295985
0.0300241
2.81074
2.57778
1.85563
0.472559
0.155696
0.0406783
0.31909
0.0712735
0.0465797
0.140642
0.139804
0.132983
0.154145
0.171454
0.184664
0.19232
0.193524
0.186679
0.168516
0.139735
0.110357
0.0789317
0.0613271
0.0581239
0.059738
2.80601
2.59172
1.89267
0.507514
0.165487
0.071637
0.328274
0.0951347
0.076573
0.149588
0.154186
0.145827
0.166482
0.182977
0.195545
0.203525
0.205416
0.200233
0.18448
0.159285
0.134738
0.111013
0.100515
0.100645
0.10384
2.79989
2.61268
1.94737
0.563889
0.179485
0.108265
0.341929
0.123563
0.107538
0.161415
0.172983
0.162879
0.182368
0.19803
0.210299
0.218607
0.221361
0.218454
0.205761
0.184561
0.164706
0.146804
0.141339
0.1442
0.14923
2.79466
2.64049
2.01679
0.642803
0.196799
0.150884
0.35671
0.153505
0.138007
0.175594
0.193956
0.183257
0.201388
0.216056
0.228011
0.236644
0.240738
0.240264
0.231082
0.214078
0.198451
0.185591
0.184823
0.190383
0.197543
2.79229
2.67469
2.09854
0.747611
0.216698
0.198665
0.369429
0.184475
0.168058
0.192845
0.216055
0.206589
0.222954
0.236535
0.24833
0.25735
0.262883
0.264845
0.259595
0.246896
0.235518
0.228102
0.232169
0.241634
0.251775
2.79611
2.71515
2.19032
0.881118
0.23846
0.248841
0.377125
0.216798
0.198564
0.213612
0.238374
0.232359
0.246682
0.25902
0.270792
0.280034
0.287063
0.291627
0.290646
0.282592
0.276185
0.275264
0.284208
0.299845
0.315793
2.81042
2.76103
2.29026
1.04493
0.261923
0.297748
0.377244
0.250864
0.229459
0.237339
0.26088
0.260194
0.272023
0.28305
0.294885
0.304143
0.31286
0.320026
0.323676
0.320616
0.320123
0.326536
0.341965
0.367258
0.396253
2.83885
2.80954
2.3975
1.23856
0.289087
0.341907
0.361272
0.287316
0.259411
0.263982
0.283458
0.289436
0.298512
0.308446
0.320277
0.329326
0.339774
0.349481
0.35791
0.360341
0.36672
0.380916
0.406873
0.445677
0.50106
2.88072
2.85925
2.51176
1.45954
0.325847
0.377994
0.331379
0.325846
0.287409
0.292166
0.306788
0.319295
0.325941
0.335074
0.346333
0.355486
0.367384
0.379516
0.392735
0.401769
0.415073
0.438274
0.479891
0.545913
0.666608
2.81336
2.57162
1.83911
0.457424
0.148923
0.0151062
0.315569
0.0597385
0.0251964
0.137518
0.133566
0.127188
0.14833
0.16577
0.179064
0.186861
0.188157
0.180715
0.161487
0.131102
0.0993628
0.0625789
0.0371654
0.0296083
0.0300248
2.81073
2.57779
1.85563
0.472569
0.155866
0.0407739
0.319039
0.0710949
0.0465545
0.140369
0.139378
0.132628
0.153881
0.171302
0.184586
0.192284
0.19351
0.186675
0.168516
0.139731
0.11034
0.0789068
0.0613158
0.0581305
0.0597413
2.806
2.59175
1.89273
0.507561
0.165523
0.0716973
0.328277
0.0951927
0.0767398
0.14952
0.154152
0.145804
0.166443
0.18292
0.195503
0.203515
0.205417
0.200243
0.184487
0.159284
0.134726
0.110997
0.100509
0.100651
0.103847
2.79988
2.61273
1.94748
0.56399
0.179495
0.108283
0.341976
0.123671
0.107689
0.161435
0.17312
0.16299
0.182457
0.198114
0.210386
0.21867
0.2214
0.218481
0.205777
0.184566
0.164699
0.146793
0.141335
0.144207
0.149239
2.79465
2.64055
2.01691
0.64293
0.196803
0.150904
0.35677
0.153592
0.138075
0.175669
0.194159
0.183471
0.201601
0.216251
0.228173
0.236753
0.240809
0.240304
0.23111
0.214091
0.19845
0.185583
0.184821
0.19039
0.197555
2.79229
2.67475
2.09866
0.747752
0.216697
0.198693
0.369475
0.184525
0.168038
0.192924
0.216244
0.206827
0.223195
0.236746
0.248509
0.257476
0.262967
0.264894
0.259634
0.246917
0.23552
0.228095
0.232169
0.241643
0.251788
2.79612
2.71521
2.19044
0.881279
0.238454
0.24887
0.377142
0.216813
0.198484
0.213639
0.238504
0.232545
0.246881
0.259207
0.27096
0.280151
0.287145
0.291678
0.290691
0.282618
0.27619
0.275264
0.284213
0.299856
0.315809
2.81045
2.76109
2.29038
1.04511
0.261912
0.297767
0.377219
0.250851
0.22934
0.2373
0.260937
0.26031
0.27216
0.28319
0.295005
0.30423
0.312929
0.32008
0.323724
0.320646
0.320135
0.326543
0.341976
0.367272
0.396271
2.83889
2.80959
2.3976
1.23875
0.289073
0.341915
0.361206
0.287286
0.259277
0.263889
0.283457
0.289492
0.298588
0.308539
0.320362
0.329402
0.339835
0.349533
0.357956
0.360372
0.366739
0.380927
0.406885
0.445693
0.501078
2.88076
2.8593
2.51186
1.45973
0.325846
0.37799
0.331285
0.325815
0.287287
0.292061
0.306751
0.319307
0.325968
0.335117
0.346377
0.355537
0.367432
0.379563
0.392779
0.401799
0.415092
0.438286
0.479902
0.545927
0.666622
2.81336
2.57161
1.83908
0.457399
0.148941
0.015111
0.315555
0.0597205
0.0251952
0.137523
0.13356
0.127191
0.148331
0.165765
0.179051
0.186841
0.188131
0.18068
0.161445
0.131054
0.0993187
0.0625381
0.037141
0.0296138
0.0300239
2.81073
2.57779
1.85561
0.472549
0.155865
0.040768
0.319036
0.0711047
0.0465628
0.140385
0.139393
0.132643
0.153888
0.171298
0.184573
0.192264
0.193485
0.186643
0.168477
0.139687
0.1103
0.0788743
0.0613005
0.0581334
0.0597415
2.806
2.59174
1.89271
0.507541
0.165532
0.0716946
0.328277
0.0952013
0.0767354
0.149537
0.154173
0.145827
0.166461
0.182936
0.195503
0.2035
0.205395
0.200211
0.184449
0.159244
0.134692
0.110971
0.100499
0.100653
0.103847
2.79988
2.61272
1.94747
0.563974
0.179499
0.10828
0.341976
0.123671
0.107667
0.161451
0.173125
0.162985
0.182439
0.198075
0.210336
0.218631
0.221368
0.218449
0.205744
0.184531
0.16467
0.146773
0.141329
0.144209
0.149241
2.79465
2.64054
2.0169
0.642914
0.196809
0.150906
0.356763
0.153578
0.138057
0.175666
0.194119
0.183409
0.201519
0.21616
0.228098
0.236699
0.240768
0.240273
0.231078
0.214059
0.198424
0.185568
0.184819
0.190394
0.197558
2.79229
2.67474
2.09865
0.747741
0.216708
0.198702
0.369465
0.184514
0.168047
0.192911
0.216194
0.206744
0.2231
0.236662
0.24844
0.257426
0.262929
0.264865
0.259602
0.246887
0.235499
0.228085
0.232169
0.241649
0.251795
2.79612
2.71521
2.19043
0.881277
0.238472
0.248883
0.377136
0.216813
0.198518
0.213648
0.238471
0.23249
0.246819
0.25915
0.27091
0.280117
0.287118
0.291657
0.290662
0.282591
0.276173
0.275255
0.284213
0.299863
0.315818
2.81045
2.76109
2.29038
1.04512
0.261937
0.297782
0.377219
0.250863
0.229394
0.237339
0.260928
0.260288
0.272135
0.283166
0.294996
0.304222
0.312917
0.320059
0.323698
0.320621
0.320118
0.326532
0.341974
0.367279
0.396281
2.83889
2.8096
2.39762
1.23878
0.289102
0.341929
0.361212
0.287306
0.259336
0.263944
0.283462
0.289498
0.298591
0.30854
0.320371
0.329397
0.339826
0.349514
0.357933
0.36035
0.36672
0.380914
0.406881
0.445699
0.501088
2.88076
2.8593
2.51188
1.45978
0.325874
0.378004
0.331295
0.325837
0.287335
0.292109
0.306767
0.319328
0.325987
0.335141
0.346404
0.355542
0.367429
0.379548
0.392757
0.401779
0.415075
0.438274
0.479898
0.545933
0.666629
2.81334
2.57166
1.83923
0.457544
0.148891
0.0151246
0.315579
0.0597318
0.0251895
0.137521
0.133549
0.127176
0.148322
0.165762
0.179057
0.186854
0.188146
0.180694
0.161456
0.131065
0.0993278
0.0625491
0.0371521
0.0296122
0.0300194
2.81071
2.57784
1.85576
0.472696
0.155827
0.0407993
0.319056
0.0711119
0.0465631
0.140377
0.139373
0.132621
0.153872
0.171288
0.184573
0.192273
0.193498
0.186657
0.168489
0.139699
0.110311
0.0788868
0.0613122
0.0581378
0.0597398
2.80599
2.59179
1.89286
0.507693
0.165498
0.0717382
0.328299
0.0952146
0.0767447
0.149525
0.154159
0.145812
0.166447
0.182924
0.195499
0.203503
0.205404
0.200222
0.184461
0.159255
0.134702
0.110983
0.100511
0.100663
0.103844
2.79987
2.61277
1.94761
0.564135
0.179465
0.108329
0.341997
0.123693
0.107683
0.161441
0.173109
0.16297
0.182426
0.198062
0.210327
0.21863
0.221372
0.218457
0.205753
0.18454
0.164678
0.146783
0.14134
0.144223
0.149242
2.79464
2.64059
2.01703
0.643084
0.196778
0.150955
0.356779
0.153601
0.138078
0.175641
0.194116
0.183412
0.201514
0.216149
0.228089
0.236695
0.240771
0.240279
0.231085
0.214066
0.19843
0.185575
0.184828
0.190407
0.197565
2.79229
2.67479
2.09877
0.747915
0.216683
0.198751
0.369474
0.184538
0.16806
0.19291
0.216198
0.206717
0.223085
0.236648
0.248429
0.25742
0.262929
0.264869
0.259608
0.246893
0.235503
0.22809
0.232175
0.24166
0.251802
2.79613
2.71525
2.19055
0.88146
0.238455
0.248924
0.377142
0.216844
0.198537
0.213663
0.238421
0.232467
0.246807
0.259138
0.2709
0.28011
0.287118
0.291662
0.290669
0.282598
0.276177
0.27526
0.284218
0.299872
0.315822
2.81046
2.76114
2.29048
1.04531
0.261924
0.297809
0.37721
0.250897
0.229419
0.237366
0.260889
0.260286
0.272135
0.28316
0.294989
0.304219
0.312919
0.320065
0.323706
0.320629
0.320123
0.326538
0.341977
0.367287
0.396285
2.83892
2.80964
2.39771
1.23897
0.289094
0.341941
0.361187
0.287337
0.259357
0.263969
0.283454
0.289506
0.298599
0.308539
0.320366
0.329393
0.339828
0.349521
0.357942
0.360359
0.366726
0.380919
0.406884
0.445704
0.501095
2.88079
2.85934
2.51197
1.45995
0.325879
0.378003
0.331259
0.325863
0.287349
0.29212
0.306761
0.319339
0.325996
0.335141
0.346401
0.355541
0.367432
0.379557
0.392768
0.40179
0.415084
0.438277
0.479897
0.545934
0.666637
2.81335
2.57164
1.83918
0.457493
0.14891
0.0151224
0.315568
0.0597229
0.0251895
0.137517
0.13354
0.127175
0.148319
0.165759
0.179052
0.186848
0.188139
0.180686
0.161447
0.131053
0.0993164
0.0625365
0.037143
0.0296131
0.0300251
2.81072
2.57782
1.85571
0.472646
0.155837
0.0407895
0.31905
0.0711157
0.0465703
0.140381
0.139378
0.13263
0.153877
0.171292
0.184573
0.192269
0.193491
0.186648
0.168478
0.139686
0.110298
0.0788737
0.0613031
0.0581343
0.0597429
2.80599
2.59177
1.89281
0.507641
0.165509
0.0717245
0.328294
0.0952169
0.0767479
0.149531
0.154166
0.145821
0.166453
0.182928
0.1955
0.203502
0.205399
0.200215
0.184451
0.159244
0.134691
0.110972
0.100502
0.100655
0.103849
2.79987
2.61275
1.94756
0.564079
0.179476
0.108314
0.341993
0.123693
0.107684
0.161447
0.173114
0.162978
0.182431
0.198066
0.210329
0.218629
0.221369
0.218452
0.205746
0.184532
0.164671
0.146775
0.141332
0.144211
0.149244
2.79464
2.64057
2.01698
0.643023
0.196789
0.15094
0.356777
0.153601
0.138078
0.175645
0.19412
0.183418
0.201517
0.216152
0.228089
0.236695
0.240769
0.240275
0.231081
0.21406
0.198426
0.18557
0.184822
0.190397
0.197561
2.79229
2.67477
2.09872
0.747852
0.216692
0.198735
0.369476
0.184537
0.168061
0.192913
0.216201
0.20672
0.223087
0.236649
0.248429
0.257419
0.262928
0.264867
0.259605
0.246889
0.235501
0.228087
0.232173
0.241652
0.251798
2.79612
2.71524
2.19051
0.881393
0.238462
0.248911
0.377145
0.216843
0.198538
0.213666
0.238424
0.232469
0.246809
0.259138
0.270899
0.280109
0.287116
0.291659
0.290666
0.282595
0.276176
0.275258
0.284217
0.299867
0.315822
2.81046
2.76112
2.29045
1.04524
0.261929
0.297799
0.377219
0.250895
0.22942
0.237369
0.260892
0.260288
0.272137
0.28316
0.294989
0.304217
0.312916
0.320062
0.323703
0.320627
0.320122
0.326537
0.341979
0.367284
0.396286
2.83891
2.80962
2.39768
1.2389
0.289095
0.341937
0.361202
0.287335
0.25936
0.263972
0.283457
0.289508
0.298601
0.30854
0.320366
0.329391
0.339825
0.349517
0.35794
0.360357
0.366726
0.38092
0.406888
0.445705
0.501095
2.88078
2.85933
2.51194
1.45989
0.325874
0.378004
0.331277
0.325861
0.287352
0.292124
0.306765
0.319341
0.325999
0.335142
0.3464
0.355539
0.367429
0.379553
0.392765
0.401787
0.415082
0.438281
0.479905
0.54594
0.666636
2.81336
2.57161
1.83908
0.457399
0.148941
0.0151109
0.315555
0.0597208
0.0251954
0.137523
0.133561
0.127192
0.148331
0.165766
0.179051
0.186841
0.188131
0.18068
0.161445
0.131054
0.0993186
0.0625379
0.0371408
0.0296139
0.0300239
2.81073
2.57779
1.85561
0.472548
0.155865
0.0407679
0.319036
0.0711047
0.0465627
0.140385
0.139393
0.132643
0.153888
0.171298
0.184573
0.192264
0.193485
0.186643
0.168477
0.139687
0.1103
0.0788741
0.0613004
0.0581334
0.0597415
2.806
2.59174
1.89271
0.507541
0.165532
0.0716945
0.328277
0.0952012
0.0767353
0.149537
0.154173
0.145827
0.166461
0.182936
0.195503
0.2035
0.205395
0.200211
0.184449
0.159244
0.134692
0.110971
0.100499
0.100653
0.103847
2.79988
2.61272
1.94747
0.563974
0.179499
0.10828
0.341975
0.123671
0.107667
0.161451
0.173125
0.162985
0.182439
0.198075
0.210336
0.218631
0.221368
0.218449
0.205744
0.184531
0.16467
0.146773
0.141329
0.144209
0.149241
2.79465
2.64054
2.0169
0.642914
0.196809
0.150905
0.356763
0.153578
0.138057
0.175666
0.194119
0.183409
0.201519
0.21616
0.228098
0.236699
0.240768
0.240273
0.231078
0.214059
0.198424
0.185568
0.184819
0.190394
0.197558
2.79229
2.67474
2.09864
0.74774
0.216708
0.198702
0.369465
0.184514
0.168047
0.192911
0.216194
0.206744
0.2231
0.236662
0.24844
0.257426
0.262929
0.264865
0.259602
0.246887
0.235499
0.228085
0.232169
0.241649
0.251795
2.79612
2.71521
2.19043
0.881276
0.238472
0.248883
0.377136
0.216813
0.198518
0.213648
0.238471
0.23249
0.246819
0.25915
0.27091
0.280117
0.287118
0.291657
0.290662
0.282591
0.276173
0.275255
0.284213
0.299863
0.315818
2.81045
2.76109
2.29038
1.04512
0.261937
0.297781
0.377219
0.250863
0.229394
0.237339
0.260928
0.260288
0.272135
0.283166
0.294996
0.304222
0.312917
0.320059
0.323698
0.320621
0.320118
0.326531
0.341974
0.367279
0.396281
2.83889
2.8096
2.39762
1.23878
0.289102
0.341929
0.361212
0.287306
0.259336
0.263944
0.283462
0.289498
0.298591
0.30854
0.320371
0.329397
0.339826
0.349514
0.357933
0.36035
0.36672
0.380914
0.406881
0.445699
0.501088
2.88076
2.8593
2.51188
1.45978
0.325874
0.378003
0.331295
0.325837
0.287335
0.29211
0.306767
0.319328
0.325987
0.335141
0.346404
0.355542
0.367429
0.379548
0.392757
0.401779
0.415075
0.438274
0.479898
0.545933
0.666629
2.81336
2.57162
1.83911
0.457424
0.148923
0.0151062
0.315569
0.0597385
0.0251964
0.137518
0.133566
0.127188
0.14833
0.16577
0.179064
0.186861
0.188157
0.180715
0.161487
0.131102
0.0993628
0.0625789
0.0371654
0.0296083
0.0300248
2.81073
2.57779
1.85563
0.472569
0.155866
0.0407739
0.319039
0.0710949
0.0465545
0.140369
0.139378
0.132628
0.153881
0.171302
0.184586
0.192284
0.19351
0.186675
0.168516
0.139731
0.11034
0.0789068
0.0613158
0.0581305
0.0597413
2.806
2.59175
1.89273
0.507561
0.165523
0.0716973
0.328277
0.0951927
0.0767398
0.14952
0.154152
0.145804
0.166443
0.18292
0.195503
0.203515
0.205417
0.200243
0.184487
0.159284
0.134726
0.110997
0.100509
0.100651
0.103847
2.79988
2.61273
1.94748
0.56399
0.179495
0.108283
0.341976
0.123671
0.107689
0.161435
0.17312
0.16299
0.182457
0.198114
0.210386
0.21867
0.2214
0.218481
0.205777
0.184566
0.1647
0.146793
0.141335
0.144207
0.149239
2.79465
2.64055
2.01691
0.64293
0.196803
0.150904
0.35677
0.153592
0.138075
0.175669
0.194159
0.183471
0.201601
0.216251
0.228173
0.236753
0.240809
0.240304
0.23111
0.214091
0.19845
0.185583
0.184821
0.19039
0.197555
2.79229
2.67475
2.09866
0.747752
0.216697
0.198693
0.369475
0.184525
0.168038
0.192924
0.216244
0.206827
0.223195
0.236746
0.248509
0.257476
0.262967
0.264894
0.259634
0.246917
0.23552
0.228095
0.232169
0.241643
0.251788
2.79612
2.71521
2.19044
0.881279
0.238454
0.24887
0.377142
0.216813
0.198484
0.213639
0.238504
0.232545
0.246881
0.259207
0.27096
0.280151
0.287145
0.291678
0.290691
0.282618
0.27619
0.275264
0.284213
0.299856
0.315809
2.81045
2.76109
2.29038
1.04511
0.261912
0.297767
0.377219
0.250851
0.22934
0.2373
0.260937
0.26031
0.27216
0.28319
0.295005
0.30423
0.312929
0.32008
0.323724
0.320646
0.320135
0.326543
0.341976
0.367272
0.396271
2.83889
2.80959
2.3976
1.23875
0.289073
0.341915
0.361206
0.287286
0.259277
0.263889
0.283457
0.289492
0.298588
0.308539
0.320362
0.329402
0.339835
0.349533
0.357956
0.360372
0.366739
0.380927
0.406885
0.445693
0.501078
2.88076
2.8593
2.51186
1.45973
0.325846
0.37799
0.331285
0.325815
0.287287
0.292061
0.306751
0.319307
0.325968
0.335117
0.346377
0.355537
0.367432
0.379563
0.392779
0.401799
0.415092
0.438286
0.479902
0.545927
0.666622
2.81337
2.57158
1.83901
0.457363
0.14903
0.0151698
0.315504
0.0596267
0.0252117
0.137607
0.133721
0.127381
0.148528
0.165936
0.179171
0.18691
0.188171
0.180716
0.161486
0.131105
0.0993811
0.0626098
0.0371857
0.0295984
0.0300242
2.81074
2.57778
1.85563
0.472559
0.155696
0.0406783
0.31909
0.0712738
0.0465798
0.140642
0.139804
0.132983
0.154145
0.171454
0.184664
0.19232
0.193524
0.186679
0.168516
0.139735
0.110357
0.0789322
0.0613273
0.0581239
0.059738
2.80601
2.59172
1.89267
0.507514
0.165488
0.0716371
0.328274
0.0951348
0.076573
0.149588
0.154186
0.145827
0.166482
0.182977
0.195545
0.203526
0.205416
0.200233
0.18448
0.159285
0.134739
0.111013
0.100515
0.100645
0.10384
2.79989
2.61268
1.94737
0.56389
0.179485
0.108265
0.341929
0.123563
0.107538
0.161415
0.172983
0.162879
0.182368
0.19803
0.210299
0.218608
0.221361
0.218454
0.205761
0.184561
0.164707
0.146804
0.141339
0.1442
0.14923
2.79466
2.64049
2.01679
0.642803
0.196799
0.150884
0.35671
0.153505
0.138007
0.175594
0.193956
0.183257
0.201388
0.216057
0.228011
0.236644
0.240738
0.240264
0.231083
0.214078
0.198451
0.185592
0.184823
0.190382
0.197543
2.79229
2.67469
2.09854
0.747612
0.216698
0.198665
0.369429
0.184475
0.168058
0.192846
0.216056
0.206589
0.222954
0.236535
0.24833
0.25735
0.262883
0.264845
0.259595
0.246896
0.235518
0.228102
0.232169
0.241634
0.251774
2.79611
2.71515
2.19032
0.881119
0.23846
0.248841
0.377125
0.216798
0.198564
0.213612
0.238374
0.232359
0.246682
0.259021
0.270793
0.280034
0.287063
0.291628
0.290646
0.282592
0.276185
0.275264
0.284208
0.299845
0.315793
2.81042
2.76103
2.29026
1.04493
0.261923
0.297748
0.377244
0.250864
0.229459
0.237339
0.26088
0.260194
0.272024
0.28305
0.294885
0.304143
0.312861
0.320026
0.323676
0.320617
0.320123
0.326536
0.341965
0.367258
0.396253
2.83885
2.80954
2.3975
1.23856
0.289087
0.341907
0.361272
0.287316
0.259411
0.263982
0.283458
0.289436
0.298512
0.308447
0.320277
0.329326
0.339775
0.349481
0.35791
0.360342
0.366721
0.380916
0.406873
0.445676
0.50106
2.88072
2.85925
2.51176
1.45955
0.325847
0.377994
0.331378
0.325846
0.287409
0.292166
0.306788
0.319295
0.325941
0.335074
0.346333
0.355487
0.367384
0.379516
0.392735
0.401769
0.415074
0.438275
0.479891
0.545913
0.666608
2.81335
2.57165
1.83915
0.45748
0.149229
0.0171915
0.315646
0.0602693
0.0264784
0.137679
0.133725
0.12735
0.148507
0.165966
0.179269
0.187063
0.188347
0.180903
0.161694
0.131352
0.0996856
0.0630637
0.0379129
0.0304411
0.0308393
2.81072
2.57783
1.85567
0.472623
0.156184
0.0416146
0.319137
0.0716044
0.0473466
0.1406
0.139679
0.132936
0.15419
0.171593
0.184848
0.192519
0.193718
0.186872
0.168729
0.139982
0.110649
0.0793112
0.061782
0.05855
0.0601557
2.80599
2.59179
1.8928
0.507633
0.165772
0.0721613
0.328424
0.095643
0.0771794
0.149847
0.154642
0.146254
0.166828
0.183239
0.195768
0.203744
0.205617
0.200435
0.18469
0.159515
0.134991
0.111295
0.100798
0.100889
0.104074
2.79987
2.61277
1.94756
0.564072
0.179703
0.10858
0.342099
0.123942
0.107863
0.161703
0.173422
0.163243
0.182669
0.198258
0.21051
0.218822
0.221565
0.218658
0.205966
0.184772
0.164923
0.147025
0.141543
0.14437
0.149382
2.79465
2.64059
2.01698
0.643
0.196991
0.151141
0.356844
0.153725
0.138156
0.175796
0.19425
0.183525
0.201631
0.216273
0.228236
0.23686
0.240945
0.240459
0.231274
0.214268
0.198635
0.185768
0.184977
0.190512
0.197654
2.7923
2.67479
2.09872
0.747819
0.216873
0.198902
0.369523
0.184615
0.16813
0.192993
0.216253
0.206762
0.223168
0.236763
0.248574
0.257595
0.263101
0.265038
0.259772
0.247067
0.235674
0.228244
0.232288
0.241736
0.251861
2.79614
2.71526
2.19051
0.881367
0.238624
0.249051
0.377187
0.21691
0.19862
0.213724
0.238448
0.23251
0.246902
0.259268
0.271064
0.280275
0.287275
0.291809
0.290812
0.282747
0.276319
0.275385
0.284307
0.299926
0.31586
2.81048
2.76114
2.29046
1.04523
0.262069
0.297922
0.377258
0.250965
0.229508
0.237422
0.26091
0.260333
0.272227
0.283281
0.295138
0.304359
0.313057
0.320193
0.323829
0.320755
0.320244
0.326643
0.342048
0.367322
0.396302
2.83893
2.80965
2.3977
1.2389
0.289208
0.342051
0.361241
0.287406
0.259433
0.264015
0.283476
0.289558
0.298685
0.308653
0.320502
0.329524
0.339951
0.349627
0.358046
0.360465
0.366828
0.381007
0.406944
0.445726
0.501095
2.88081
2.85935
2.51196
1.4599
0.325963
0.378113
0.331318
0.325925
0.2874
0.292154
0.306786
0.319386
0.326064
0.335237
0.34651
0.355646
0.367538
0.379645
0.392852
0.401875
0.415167
0.43835
0.479947
0.545949
0.666632
2.92265
2.91258
2.62479
1.69294
0.386546
0.405925
0.300862
0.364518
0.314613
0.320844
0.33122
0.348739
0.354267
0.362757
0.373359
0.382435
0.395423
0.409652
0.427239
0.443174
0.464075
0.497656
0.558303
0.656284
0.852277
2.96102
2.962
2.73089
1.91726
0.50509
0.433643
0.294847
0.400879
0.342427
0.348997
0.357036
0.377341
0.38332
0.390724
0.400206
0.410089
0.422993
0.439192
0.46017
0.483277
0.511998
0.555048
0.628541
0.740886
0.938552
2.99474
3.00704
2.82834
2.13001
0.712334
0.459787
0.332331
0.430239
0.371329
0.376327
0.384954
0.405426
0.412854
0.419211
0.427698
0.438047
0.44984
0.46775
0.491614
0.521304
0.555743
0.603582
0.681595
0.788134
0.960833
3.02296
3.04921
2.91624
2.33453
1.01085
0.477959
0.398337
0.446175
0.39958
0.403997
0.415152
0.432156
0.441687
0.448722
0.456108
0.466881
0.476144
0.495028
0.520474
0.554946
0.594109
0.643381
0.717016
0.81527
0.956478
3.04563
3.0913
2.9917
2.52856
1.3651
0.476153
0.464574
0.447441
0.427444
0.432669
0.445818
0.456261
0.470289
0.477799
0.483966
0.494232
0.503401
0.520615
0.546864
0.582506
0.625299
0.674882
0.746088
0.83538
0.947744
3.06523
3.12842
3.0529
2.69315
1.70664
0.495716
0.518772
0.438052
0.459099
0.460851
0.47437
0.479015
0.497357
0.507989
0.513671
0.522068
0.532211
0.544824
0.570448
0.603957
0.650712
0.700585
0.767172
0.847455
0.933533
3.08209
3.16108
3.10437
2.83062
1.9994
0.63088
0.568485
0.450094
0.49178
0.485536
0.499409
0.50337
0.523687
0.537706
0.543693
0.548903
0.560436
0.570084
0.591495
0.622813
0.667471
0.717394
0.777096
0.845694
0.919775
3.09624
3.18933
3.1483
2.94971
2.27812
0.911674
0.616172
0.49401
0.516637
0.507837
0.52166
0.530824
0.547338
0.566985
0.573211
0.577573
0.587747
0.596057
0.610116
0.638343
0.675795
0.725201
0.778286
0.839095
0.90736
3.10806
3.21261
3.18347
3.04461
2.55687
1.35566
0.643428
0.550609
0.534669
0.534022
0.544999
0.559654
0.570333
0.592558
0.603114
0.606894
0.613534
0.623943
0.63058
0.652329
0.685411
0.726769
0.776853
0.834415
0.897948
3.11789
3.23174
3.21031
3.11047
2.76532
1.82922
0.706002
0.597026
0.558758
0.567525
0.571141
0.587302
0.596379
0.615915
0.631991
0.635739
0.640146
0.649206
0.655302
0.665677
0.693598
0.72967
0.773443
0.826849
0.887826
3.12585
3.24757
3.23166
3.15935
2.91216
2.17116
0.879636
0.652722
0.600016
0.603597
0.599787
0.614163
0.624239
0.638545
0.659112
0.664759
0.666716
0.670791
0.679911
0.682594
0.701877
0.733514
0.772273
0.817545
0.872464
3.13206
3.26
3.24833
3.19799
3.03036
2.48001
1.22492
0.72777
0.647017
0.63469
0.631894
0.64141
0.652033
0.660665
0.685737
0.69372
0.6932
0.694639
0.701212
0.707188
0.712067
0.736948
0.770845
0.811436
0.857859
3.13659
3.26896
3.26005
3.22567
3.11748
2.76275
1.76515
0.819704
0.681314
0.671975
0.667847
0.671306
0.680689
0.684631
0.702897
0.719705
0.720137
0.718317
0.719829
0.728203
0.731687
0.743305
0.770288
0.805878
0.847479
3.13928
3.27494
3.26797
3.24459
3.17372
2.94637
2.24527
1.04806
0.732979
0.719244
0.706133
0.704335
0.711941
0.711306
0.712985
0.740014
0.747482
0.743973
0.742938
0.745711
0.752902
0.754689
0.771882
0.801624
0.838816
3.13987
3.27826
3.27333
3.25863
3.21361
3.07025
2.59999
1.4559
0.830335
0.765126
0.747876
0.740496
0.743855
0.74063
0.732897
0.751242
0.769361
0.770706
0.765828
0.766252
0.770902
0.777292
0.779181
0.799838
0.831771
3.13841
3.27972
3.27712
3.26828
3.23979
3.15302
2.87531
2.04411
1.02196
0.805004
0.794668
0.780047
0.776619
0.772759
0.760963
0.75922
0.78649
0.795794
0.791833
0.78776
0.788869
0.795685
0.803009
0.805617
0.828236
3.13607
3.28069
3.27924
3.27345
3.25632
3.20559
3.04601
2.52245
1.39546
0.884035
0.846294
0.827277
0.811957
0.806705
0.796044
0.784959
0.797534
0.812753
0.818344
0.812581
0.810737
0.813115
0.822471
0.832232
0.836047
3.13479
3.28072
3.28078
3.27783
3.26799
3.23871
3.14933
2.85865
1.99762
1.05748
0.894791
0.87841
0.855681
0.844874
0.83525
0.820288
0.812294
0.833651
0.842133
0.840236
0.833775
0.835125
0.840526
0.853724
0.868034
3.13437
3.28028
3.28228
3.28087
3.2754
3.25894
3.21016
3.05656
2.54617
1.46517
0.970881
0.930688
0.911909
0.889041
0.877079
0.863424
0.845756
0.847831
0.863479
0.867074
0.861591
0.85691
0.862881
0.873551
0.891836
3.13429
3.2799
3.28346
3.28276
3.27986
3.27101
3.24482
3.16507
2.90436
2.11164
1.18242
0.9859
0.967512
0.944007
0.922892
0.908844
0.888782
0.872848
0.886914
0.895069
0.889387
0.883499
0.882782
0.895526
0.912993
3.13428
3.27964
3.28418
3.28388
3.28249
3.27797
3.26438
3.22417
3.09785
2.67348
1.66663
1.0751
1.0218
1.0068
0.976562
0.956698
0.938035
0.913865
0.904033
0.921634
0.920987
0.910956
0.907132
0.913931
0.93515
3.1343
3.27951
3.28465
3.28456
3.28397
3.28175
3.27498
3.25498
3.19465
2.99673
2.3447
1.37363
1.08723
1.06283
1.04463
1.01048
0.989493
0.965439
0.940249
0.942606
0.950347
0.941733
0.931093
0.935508
0.952522
3.1343
3.27951
3.28494
3.28489
3.28463
3.28369
3.28056
3.27107
3.24278
3.15448
2.85802
2.004
1.24093
1.11978
1.10655
1.07838
1.04442
1.02023
0.988848
0.966193
0.977551
0.974937
0.961478
0.955997
0.97197
3.13429
3.27957
3.28496
3.28508
3.28504
3.28472
3.28336
3.2791
3.26624
3.22762
3.10321
2.67412
1.72227
1.20698
1.16112
1.14863
1.11028
1.0767
1.04653
1.01049
0.99718
1.0048
0.996889
0.983514
0.989572
3.1343
3.27959
3.28494
3.28522
3.28525
3.28514
3.28467
3.28288
3.27734
3.2606
3.20917
3.03778
2.45024
1.5472
1.22757
1.20697
1.18544
1.13917
1.10548
1.06726
1.03154
1.02895
1.02895
1.02026
1.01326
3.1343
3.27958
3.28494
3.28527
3.28533
3.28535
3.28519
3.28458
3.28235
3.27538
3.25416
3.18781
2.96392
2.25328
1.47241
1.26584
1.25092
1.21782
1.16603
1.12832
1.08227
1.05486
1.06052
1.05669
1.05135
3.1343
3.27958
3.28495
3.28526
3.28538
3.28544
3.28538
3.28524
3.28444
3.28161
3.27292
3.24719
3.16657
2.8911
2.11708
1.43407
1.31248
1.2887
1.24264
1.18912
1.14443
1.09598
1.08665
1.09167
1.09125
3.1343
3.27958
3.28495
3.28526
3.28539
3.28546
3.28546
3.28545
3.28521
3.28399
3.28024
3.26992
3.24045
3.14814
2.82689
2.037
1.44182
1.36239
1.32121
1.25822
1.20582
1.15207
1.12101
1.12731
1.13307
3.1343
3.27958
3.28495
3.28526
3.28539
3.28547
3.28548
3.2855
3.28544
3.28472
3.28274
3.27813
3.26637
3.23403
3.13446
2.78853
2.00545
1.49918
1.40328
1.33778
1.26806
1.21216
1.16553
1.168
1.1772
3.1343
3.27958
3.28495
3.28526
3.28539
3.28547
3.28548
3.2855
3.28547
3.28485
3.28324
3.28063
3.27449
3.2609
3.22711
3.127
2.78873
2.05236
1.58106
1.41138
1.33243
1.2731
1.22159
1.2153
1.22435
3.1343
3.27958
3.28495
3.28526
3.28539
3.28547
3.28548
3.2855
3.28547
3.28485
3.28322
3.28095
3.27584
3.2686
3.25289
3.21671
3.12095
2.82037
2.16715
1.61974
1.39187
1.33791
1.28343
1.26663
1.27108
3.1343
3.27958
3.28495
3.28526
3.28539
3.28547
3.28548
3.2855
3.28547
3.28485
3.28322
3.28097
3.27586
3.26949
3.25744
3.23691
3.19723
3.10351
2.84843
2.2884
1.66246
1.4108
1.35203
1.32407
1.31399
3.1343
3.27958
3.28495
3.28526
3.28539
3.28547
3.28548
3.2855
3.28547
3.28485
3.28322
3.28097
3.27586
3.26952
3.25763
3.23803
3.20977
3.15057
3.03625
2.81212
2.34929
1.84714
1.55445
1.43766
1.37983
3.1343
3.27958
3.28495
3.28526
3.28539
3.28547
3.28548
3.2855
3.28547
3.28485
3.28322
3.28097
3.27586
3.26952
3.25764
3.23803
3.2103
3.15382
3.05323
2.89512