/*--------------------------------*- C++ -*----------------------------------*\
| =========                 |                                                 |
| \\      /  F ield         | OpenFOAM: The Open Source CFD Toolbox           |
|  \\    /   O peration     | Version:  4.1                                   |
|   \\  /    A nd           | Web:      www.OpenFOAM.org                      |
|    \\/     M anipulation  |                                                 |
\*---------------------------------------------------------------------------*/
FoamFile
{
    version     2.0;
    format      ascii;
    class       volScalarField;
    location    "0.64";
    object      p;
}
// * * * * * * * * * * * * * * * * * * * * * * * * * * * * * * * * * * * * * //

dimensions      [1 -1 -2 0 0 0 0];

internalField   nonuniform List<scalar> 
52500
(
0.103721
0.11749
0.199131
0.554021
1.62669
1.00374
0.779576
0.988175
0.942652
0.821007
0.784157
0.7338
0.686305
0.643533
0.604336
0.565452
0.530455
0.498622
0.472926
0.457799
0.453347
0.456205
0.466478
0.472526
0.472794
0.103712
0.117056
0.196817
0.54394
1.61993
1.01457
0.777655
0.987152
0.945737
0.822679
0.785348
0.735441
0.687573
0.644544
0.605281
0.566561
0.53179
0.500103
0.474362
0.459035
0.454421
0.457077
0.466935
0.472681
0.472591
0.103661
0.11611
0.191854
0.52177
1.60545
1.0367
0.772839
0.982903
0.950717
0.825226
0.785739
0.736737
0.688333
0.644792
0.605608
0.567211
0.532751
0.501197
0.475358
0.45961
0.454621
0.456922
0.4662
0.471571
0.470778
0.103544
0.114701
0.184654
0.49061
1.57807
1.07025
0.766918
0.974236
0.956636
0.829998
0.786603
0.738783
0.689768
0.645521
0.606238
0.568372
0.53415
0.502794
0.47684
0.460477
0.454813
0.456548
0.464653
0.469242
0.467778
0.103289
0.112868
0.175754
0.45353
1.53134
1.11632
0.761125
0.9622
0.96455
0.836024
0.787974
0.741524
0.691724
0.646684
0.606821
0.569785
0.535553
0.504734
0.478546
0.461412
0.45473
0.455743
0.462095
0.465549
0.463407
0.102829
0.110636
0.16563
0.413074
1.45983
1.17428
0.757839
0.947025
0.97425
0.841655
0.789559
0.744783
0.694202
0.648084
0.607592
0.571127
0.536902
0.506796
0.480299
0.462208
0.45427
0.454085
0.458107
0.459952
0.457052
0.10206
0.108
0.154754
0.37129
1.35692
1.24564
0.758479
0.92862
0.984044
0.846978
0.79131
0.748577
0.697133
0.649794
0.608408
0.572285
0.538295
0.508632
0.481939
0.462663
0.453131
0.45071
0.45234
0.451864
0.447477
0.100861
0.104929
0.143542
0.329675
1.21947
1.33751
0.757519
0.907848
0.993388
0.855818
0.793215
0.752753
0.700405
0.65188
0.609443
0.57346
0.539575
0.510194
0.483179
0.46255
0.450835
0.445333
0.444416
0.440556
0.43309
0.0991725
0.101488
0.132293
0.288647
1.05067
1.43565
0.766291
0.887095
0.996896
0.867596
0.795509
0.756638
0.703889
0.654331
0.610934
0.574797
0.540932
0.511434
0.484073
0.462055
0.44756
0.438501
0.43364
0.424619
0.411059
0.0972983
0.0975208
0.120998
0.248078
0.86258
1.52639
0.791432
0.870659
0.99053
0.880993
0.799553
0.760264
0.707659
0.657361
0.613163
0.576308
0.542475
0.512159
0.484546
0.460854
0.443325
0.430137
0.419674
0.403376
0.378995
0.103721
0.117496
0.199158
0.554137
1.62661
1.00372
0.779609
0.988254
0.942506
0.820923
0.784154
0.733802
0.686309
0.643521
0.604294
0.565395
0.530399
0.498572
0.472887
0.457773
0.453335
0.456206
0.466501
0.472561
0.472839
0.103712
0.117059
0.196832
0.543966
1.62004
1.01446
0.777764
0.987164
0.94564
0.822704
0.785332
0.735446
0.687576
0.644537
0.605245
0.56651
0.531738
0.500056
0.474324
0.459009
0.454408
0.457076
0.466956
0.472713
0.472633
0.103662
0.116115
0.191875
0.521845
1.60553
1.03656
0.772956
0.982859
0.950574
0.825262
0.785736
0.736733
0.688336
0.644788
0.605582
0.567171
0.532704
0.501154
0.475322
0.459585
0.454608
0.45692
0.466218
0.471597
0.470813
0.103545
0.114707
0.184683
0.490719
1.5781
1.07011
0.766948
0.974283
0.956558
0.829933
0.786608
0.738754
0.689744
0.645508
0.606222
0.568338
0.534114
0.502755
0.476806
0.460453
0.4548
0.456543
0.464664
0.469262
0.467806
0.10329
0.112875
0.175785
0.453641
1.53143
1.11617
0.761126
0.962297
0.964521
0.83593
0.787943
0.741455
0.691665
0.646654
0.606816
0.569763
0.53553
0.5047
0.478516
0.461389
0.454716
0.455736
0.4621
0.46556
0.463424
0.102831
0.110644
0.16566
0.413177
1.45998
1.1741
0.757844
0.94711
0.974229
0.841577
0.789544
0.744709
0.694129
0.648052
0.607588
0.571111
0.536886
0.506767
0.480272
0.462187
0.454256
0.454075
0.458104
0.459953
0.457055
0.102063
0.108008
0.154783
0.371387
1.35712
1.24539
0.7585
0.928691
0.983987
0.846892
0.791274
0.748493
0.697052
0.649752
0.608405
0.572272
0.538287
0.508614
0.481918
0.462646
0.453117
0.450699
0.452334
0.451856
0.447466
0.100865
0.104937
0.14357
0.329766
1.21975
1.33719
0.757527
0.907904
0.993316
0.855751
0.793179
0.752659
0.700321
0.651831
0.609426
0.573442
0.539566
0.510179
0.483162
0.462535
0.450821
0.445322
0.444406
0.44054
0.43307
0.0991776
0.101497
0.132319
0.288731
1.05098
1.43532
0.766246
0.887125
0.996824
0.867548
0.795479
0.75655
0.703816
0.654284
0.610908
0.574776
0.540918
0.511419
0.484057
0.462042
0.447549
0.438489
0.433625
0.424598
0.411034
0.0973022
0.0975307
0.121021
0.248151
0.862895
1.52606
0.791352
0.870669
0.990451
0.880947
0.799521
0.760189
0.707598
0.657319
0.613135
0.576283
0.542455
0.512139
0.484532
0.460846
0.443317
0.430126
0.419658
0.403354
0.378969
0.103721
0.117494
0.199147
0.554083
1.62666
1.0037
0.779574
0.988204
0.942645
0.820936
0.784128
0.733762
0.686282
0.643511
0.604308
0.565421
0.530423
0.498593
0.472906
0.457787
0.453341
0.456205
0.466488
0.472526
0.472798
0.103713
0.117059
0.196829
0.543981
1.61995
1.01451
0.777678
0.98715
0.945716
0.822643
0.785318
0.735414
0.687556
0.644525
0.605253
0.566531
0.53176
0.500076
0.474343
0.459023
0.454415
0.457076
0.466943
0.47268
0.472591
0.103661
0.116113
0.191867
0.521818
1.60549
1.03662
0.772876
0.982867
0.950646
0.825227
0.78572
0.736721
0.688321
0.644775
0.605584
0.567184
0.532724
0.501173
0.475341
0.4596
0.454615
0.456921
0.466205
0.471565
0.470772
0.103545
0.114705
0.184669
0.490666
1.5781
1.07016
0.76694
0.974213
0.956551
0.829998
0.786594
0.738772
0.68976
0.645515
0.606221
0.56835
0.534127
0.502773
0.476826
0.460469
0.454808
0.456545
0.464654
0.469232
0.467766
0.10329
0.112872
0.17577
0.453587
1.53139
1.11623
0.761141
0.962199
0.964468
0.83601
0.787948
0.741502
0.691709
0.646674
0.606808
0.56977
0.535533
0.504718
0.478535
0.461405
0.454725
0.45574
0.462092
0.465532
0.463386
0.10283
0.11064
0.165646
0.413127
1.45991
1.17417
0.757852
0.947033
0.974179
0.841628
0.789553
0.74476
0.694181
0.648074
0.607583
0.571116
0.536888
0.506783
0.480291
0.462203
0.454266
0.45408
0.458098
0.459928
0.45702
0.102062
0.108004
0.154769
0.371341
1.35702
1.2455
0.758495
0.928639
0.983978
0.84694
0.791279
0.748542
0.697102
0.649776
0.608402
0.572278
0.538287
0.508625
0.481935
0.462661
0.453129
0.450704
0.452329
0.451833
0.447434
0.100863
0.104934
0.143557
0.329724
1.21962
1.33734
0.757522
0.907871
0.993333
0.85579
0.793175
0.752706
0.700363
0.651852
0.60943
0.573453
0.53957
0.510191
0.483178
0.46255
0.450834
0.445327
0.444402
0.44052
0.43304
0.0991756
0.101494
0.132308
0.288694
1.05083
1.43547
0.766261
0.88711
0.996847
0.867571
0.795477
0.756588
0.703843
0.654299
0.610915
0.574785
0.540926
0.511433
0.484072
0.462056
0.44756
0.438495
0.433622
0.424581
0.411007
0.0973008
0.0975268
0.121012
0.24812
0.862752
1.52621
0.791382
0.870666
0.990486
0.880957
0.799522
0.760215
0.707614
0.657329
0.613143
0.576293
0.542463
0.512153
0.484546
0.460857
0.443326
0.43013
0.419655
0.40334
0.378946
0.103721
0.117494
0.19915
0.554102
1.62666
1.00369
0.779576
0.988208
0.942621
0.820917
0.784124
0.733761
0.686283
0.643511
0.604306
0.565417
0.530421
0.498592
0.472911
0.457798
0.453356
0.456224
0.466509
0.472539
0.47281
0.103713
0.117059
0.196832
0.543994
1.61997
1.01449
0.777683
0.987148
0.945692
0.822636
0.785316
0.735413
0.687556
0.644524
0.60525
0.566528
0.531758
0.500076
0.474349
0.459034
0.45443
0.457094
0.466963
0.472692
0.472603
0.103662
0.116114
0.19187
0.52183
1.6055
1.0366
0.772883
0.98286
0.950623
0.825231
0.785717
0.736717
0.688319
0.644775
0.605584
0.567184
0.532724
0.501175
0.475348
0.459612
0.45463
0.456939
0.466224
0.471575
0.470782
0.103545
0.114705
0.184672
0.490675
1.57811
1.07014
0.766945
0.974213
0.956543
0.830001
0.786594
0.738764
0.689753
0.64551
0.606224
0.568351
0.534129
0.502777
0.476834
0.460481
0.454823
0.456562
0.464671
0.46924
0.467772
0.10329
0.112872
0.175772
0.453593
1.5314
1.11621
0.761143
0.962208
0.964471
0.835993
0.787949
0.741487
0.691692
0.646667
0.60681
0.569772
0.535538
0.504725
0.478545
0.461418
0.45474
0.455755
0.462105
0.465537
0.463388
0.10283
0.110641
0.165647
0.413131
1.45991
1.17416
0.757849
0.947047
0.974191
0.841607
0.789553
0.74474
0.694163
0.648067
0.607587
0.571119
0.536895
0.50679
0.480302
0.462217
0.45428
0.454093
0.458108
0.459929
0.457017
0.102062
0.108005
0.15477
0.371341
1.35702
1.24548
0.758492
0.928649
0.983982
0.846916
0.791278
0.748524
0.697087
0.649771
0.608409
0.572283
0.538297
0.508636
0.481947
0.462676
0.453143
0.450715
0.452338
0.451831
0.447426
0.100863
0.104933
0.143557
0.329721
1.2196
1.33732
0.757523
0.907876
0.993335
0.855776
0.793167
0.752689
0.700354
0.651851
0.609433
0.573455
0.539578
0.510201
0.48319
0.462564
0.450847
0.445338
0.444409
0.440516
0.433028
0.0991754
0.101493
0.132307
0.288688
1.0508
1.43546
0.766265
0.887111
0.99685
0.867574
0.795477
0.756584
0.703846
0.654303
0.61092
0.574789
0.540933
0.511441
0.484085
0.462071
0.447574
0.438505
0.433627
0.424576
0.410994
0.0973006
0.097526
0.12101
0.248111
0.862704
1.5262
0.791389
0.870665
0.990479
0.880971
0.79953
0.76022
0.707625
0.657338
0.613149
0.576297
0.542471
0.512159
0.484558
0.460872
0.443339
0.43014
0.419658
0.403336
0.378934
0.103721
0.117491
0.199129
0.553997
1.6266
1.0038
0.779558
0.988196
0.942623
0.820915
0.784126
0.733761
0.686285
0.64352
0.604321
0.565433
0.530434
0.4986
0.472913
0.457794
0.453347
0.45621
0.466489
0.472518
0.472786
0.103713
0.117055
0.196811
0.543894
1.61989
1.01461
0.777664
0.987138
0.945697
0.822634
0.785319
0.735411
0.687555
0.64453
0.605263
0.566542
0.53177
0.500084
0.474351
0.45903
0.454421
0.457081
0.466944
0.472671
0.47258
0.103661
0.11611
0.19185
0.521737
1.6054
1.03672
0.772865
0.982849
0.950633
0.825232
0.785722
0.736714
0.688313
0.644775
0.605591
0.567195
0.532734
0.501183
0.475351
0.459608
0.454622
0.456926
0.466206
0.471555
0.47076
0.103545
0.114702
0.184653
0.490591
1.578
1.07025
0.766929
0.974196
0.956556
0.830006
0.786602
0.738764
0.689745
0.645503
0.606223
0.568357
0.534137
0.502784
0.476837
0.460478
0.454815
0.45655
0.464653
0.469221
0.467752
0.103289
0.112869
0.175755
0.453519
1.53127
1.11632
0.761133
0.962186
0.96449
0.836004
0.787973
0.741499
0.69169
0.646658
0.606803
0.569772
0.535544
0.504732
0.478549
0.461416
0.454733
0.455744
0.462089
0.465519
0.463369
0.10283
0.110637
0.165632
0.413068
1.45976
1.17426
0.757846
0.94702
0.97421
0.841618
0.78955
0.744753
0.694166
0.648059
0.607577
0.571115
0.536898
0.506796
0.480306
0.462216
0.454274
0.454084
0.458095
0.459913
0.457
0.102061
0.108002
0.154757
0.371289
1.35685
1.24559
0.758486
0.928618
0.984005
0.846932
0.791293
0.748541
0.697099
0.64977
0.608399
0.572277
0.538297
0.508641
0.481951
0.462676
0.453138
0.450707
0.452326
0.451817
0.447413
0.100862
0.10493
0.143545
0.329677
1.21942
1.33743
0.757521
0.907842
0.993349
0.855781
0.793185
0.752718
0.700375
0.651857
0.609427
0.573448
0.539577
0.510204
0.483194
0.462565
0.450845
0.44533
0.444398
0.440505
0.433017
0.0991739
0.10149
0.132297
0.288651
1.05063
1.43556
0.766281
0.887084
0.996856
0.867574
0.795487
0.756611
0.703871
0.654312
0.610919
0.574785
0.540933
0.511443
0.484088
0.462072
0.447572
0.438499
0.433618
0.424567
0.410985
0.0972994
0.0975228
0.121001
0.248081
0.862551
1.52628
0.791414
0.870646
0.99048
0.880986
0.79954
0.760246
0.70765
0.65735
0.61315
0.576295
0.542473
0.512162
0.484562
0.460875
0.443339
0.430136
0.419652
0.403328
0.378927
0.103721
0.117492
0.199136
0.554034
1.62662
1.00377
0.779562
0.988196
0.942611
0.820904
0.784118
0.733752
0.686279
0.643515
0.604316
0.56543
0.530431
0.498599
0.472914
0.457797
0.453352
0.456217
0.466498
0.472526
0.472796
0.103713
0.117057
0.196819
0.543927
1.61992
1.01457
0.77767
0.987136
0.945684
0.822627
0.785311
0.735403
0.687549
0.644525
0.605258
0.566539
0.531768
0.500083
0.474351
0.459034
0.454426
0.457088
0.466953
0.472679
0.47259
0.103661
0.116111
0.191857
0.521769
1.60543
1.03668
0.772871
0.982844
0.950617
0.825228
0.785716
0.736707
0.688307
0.64477
0.605586
0.567191
0.532732
0.501182
0.475352
0.459612
0.454627
0.456933
0.466215
0.471563
0.47077
0.103545
0.114703
0.18466
0.49062
1.57804
1.07021
0.766933
0.974194
0.95654
0.830002
0.786597
0.738756
0.689739
0.645497
0.606219
0.568353
0.534135
0.502783
0.476838
0.460482
0.454821
0.456557
0.464662
0.46923
0.467762
0.10329
0.11287
0.175761
0.453545
1.53131
1.11628
0.761133
0.962186
0.964473
0.835999
0.787968
0.741491
0.691683
0.646652
0.606799
0.569769
0.535542
0.504731
0.47855
0.46142
0.454738
0.455751
0.462098
0.465528
0.46338
0.10283
0.110638
0.165637
0.413091
1.45981
1.17422
0.757843
0.947021
0.974195
0.841612
0.789544
0.744744
0.694159
0.648054
0.607573
0.571112
0.536896
0.506795
0.480307
0.462219
0.454279
0.45409
0.458103
0.459922
0.457011
0.102061
0.108003
0.154762
0.371308
1.35691
1.24555
0.758485
0.92862
0.983991
0.846926
0.791287
0.748532
0.697092
0.649764
0.608396
0.572274
0.538295
0.50864
0.481952
0.462679
0.453143
0.450713
0.452334
0.451826
0.447421
0.100862
0.104931
0.143549
0.329693
1.21949
1.33739
0.757519
0.907844
0.993336
0.855775
0.793179
0.752709
0.700368
0.651852
0.609423
0.573446
0.539575
0.510203
0.483196
0.462568
0.450849
0.445336
0.444406
0.440512
0.433025
0.0991744
0.101491
0.1323
0.288665
1.0507
1.43552
0.766272
0.887084
0.996846
0.867568
0.795482
0.756603
0.703864
0.654308
0.610915
0.574782
0.540931
0.511443
0.48409
0.462075
0.447576
0.438505
0.433625
0.424574
0.410992
0.0972998
0.0975239
0.121004
0.248092
0.862612
1.52626
0.791402
0.870645
0.990473
0.880981
0.799534
0.760238
0.707644
0.657345
0.613146
0.576292
0.542471
0.512162
0.484563
0.460878
0.443342
0.430141
0.419658
0.403335
0.378933
0.103721
0.117494
0.19915
0.554102
1.62667
1.00369
0.779576
0.988208
0.94262
0.820917
0.784124
0.733761
0.686283
0.643511
0.604306
0.565417
0.530421
0.498592
0.472911
0.457798
0.453357
0.456224
0.466509
0.472539
0.47281
0.103713
0.117059
0.196832
0.543994
1.61997
1.01449
0.777683
0.987148
0.945692
0.822635
0.785316
0.735413
0.687556
0.644524
0.60525
0.566528
0.531758
0.500076
0.474349
0.459034
0.45443
0.457094
0.466963
0.472692
0.472603
0.103662
0.116114
0.19187
0.521831
1.6055
1.0366
0.772883
0.98286
0.950623
0.825231
0.785717
0.736717
0.688319
0.644775
0.605584
0.567184
0.532724
0.501175
0.475348
0.459612
0.45463
0.456939
0.466225
0.471575
0.470782
0.103545
0.114705
0.184672
0.490676
1.57811
1.07014
0.766945
0.974213
0.956543
0.830001
0.786594
0.738764
0.689752
0.64551
0.606224
0.568351
0.534129
0.502777
0.476834
0.460481
0.454823
0.456562
0.464671
0.46924
0.467772
0.10329
0.112872
0.175772
0.453594
1.5314
1.11621
0.761143
0.962208
0.96447
0.835993
0.787949
0.741487
0.691692
0.646667
0.60681
0.569772
0.535538
0.504725
0.478545
0.461419
0.45474
0.455755
0.462105
0.465537
0.463388
0.10283
0.110641
0.165647
0.413131
1.45991
1.17416
0.757849
0.947047
0.974191
0.841607
0.789553
0.74474
0.694163
0.648067
0.607587
0.571119
0.536895
0.50679
0.480302
0.462217
0.454281
0.454094
0.458109
0.459929
0.457017
0.102062
0.108005
0.15477
0.371342
1.35702
1.24548
0.758492
0.928649
0.983982
0.846916
0.791278
0.748524
0.697087
0.649771
0.608409
0.572283
0.538297
0.508636
0.481947
0.462676
0.453143
0.450715
0.452339
0.451831
0.447426
0.100863
0.104934
0.143557
0.329721
1.2196
1.33732
0.757523
0.907876
0.993335
0.855776
0.793167
0.752689
0.700354
0.651851
0.609433
0.573454
0.539578
0.510201
0.483191
0.462564
0.450847
0.445338
0.444409
0.440516
0.433028
0.0991754
0.101493
0.132307
0.288688
1.0508
1.43546
0.766265
0.887111
0.99685
0.867574
0.795477
0.756584
0.703846
0.654303
0.61092
0.574789
0.540933
0.511441
0.484085
0.462071
0.447574
0.438505
0.433627
0.424577
0.410994
0.0973006
0.097526
0.12101
0.248111
0.862704
1.5262
0.791389
0.870665
0.990479
0.880971
0.799529
0.76022
0.707624
0.657338
0.613149
0.576297
0.542471
0.512159
0.484558
0.460872
0.44334
0.43014
0.419659
0.403336
0.378934
0.103721
0.117494
0.199147
0.554083
1.62666
1.0037
0.779574
0.988204
0.942645
0.820936
0.784128
0.733762
0.686282
0.643512
0.604308
0.565421
0.530423
0.498593
0.472906
0.457787
0.453341
0.456205
0.466488
0.472526
0.472798
0.103713
0.117059
0.196829
0.54398
1.61995
1.01451
0.777678
0.98715
0.945716
0.822643
0.785318
0.735414
0.687556
0.644525
0.605253
0.566531
0.53176
0.500076
0.474343
0.459023
0.454415
0.457076
0.466943
0.47268
0.472591
0.103661
0.116113
0.191867
0.521818
1.60549
1.03662
0.772876
0.982867
0.950646
0.825227
0.78572
0.736721
0.688321
0.644775
0.605584
0.567184
0.532724
0.501173
0.475341
0.4596
0.454615
0.456921
0.466205
0.471565
0.470772
0.103545
0.114705
0.184669
0.490666
1.5781
1.07016
0.76694
0.974213
0.956551
0.829998
0.786594
0.738772
0.68976
0.645515
0.606221
0.56835
0.534127
0.502773
0.476826
0.460469
0.454808
0.456545
0.464654
0.469232
0.467766
0.10329
0.112872
0.17577
0.453587
1.53139
1.11623
0.761141
0.962199
0.964468
0.83601
0.787948
0.741502
0.691709
0.646674
0.606808
0.56977
0.535533
0.504718
0.478535
0.461405
0.454725
0.45574
0.462092
0.465532
0.463386
0.10283
0.11064
0.165646
0.413127
1.45991
1.17417
0.757852
0.947033
0.974179
0.841628
0.789553
0.74476
0.694181
0.648074
0.607583
0.571116
0.536888
0.506783
0.480291
0.462203
0.454266
0.45408
0.458098
0.459928
0.45702
0.102062
0.108004
0.154769
0.371341
1.35702
1.2455
0.758495
0.928639
0.983978
0.84694
0.791279
0.748542
0.697102
0.649776
0.608402
0.572278
0.538287
0.508625
0.481935
0.462661
0.453129
0.450704
0.452329
0.451833
0.447434
0.100863
0.104934
0.143557
0.329724
1.21962
1.33734
0.757522
0.907871
0.993333
0.85579
0.793175
0.752706
0.700363
0.651852
0.60943
0.573453
0.53957
0.510191
0.483178
0.46255
0.450834
0.445327
0.444402
0.44052
0.43304
0.0991756
0.101494
0.132308
0.288694
1.05083
1.43547
0.766261
0.88711
0.996847
0.867571
0.795477
0.756588
0.703843
0.654299
0.610915
0.574785
0.540926
0.511433
0.484072
0.462056
0.44756
0.438495
0.433622
0.424581
0.411007
0.0973008
0.0975268
0.121012
0.24812
0.862752
1.52621
0.791382
0.870666
0.990486
0.880957
0.799522
0.760215
0.707614
0.657329
0.613143
0.576293
0.542463
0.512153
0.484546
0.460857
0.443326
0.43013
0.419655
0.40334
0.378946
0.103721
0.117496
0.199158
0.554137
1.62661
1.00372
0.779609
0.988254
0.942507
0.820923
0.784154
0.733802
0.686309
0.643521
0.604294
0.565395
0.530399
0.498572
0.472887
0.457773
0.453335
0.456205
0.466501
0.472561
0.472839
0.103712
0.117059
0.196832
0.543966
1.62004
1.01446
0.777764
0.987164
0.94564
0.822704
0.785332
0.735446
0.687576
0.644537
0.605245
0.56651
0.531738
0.500056
0.474324
0.459009
0.454408
0.457076
0.466956
0.472713
0.472633
0.103662
0.116115
0.191875
0.521845
1.60553
1.03656
0.772956
0.982858
0.950574
0.825262
0.785735
0.736733
0.688336
0.644788
0.605582
0.567171
0.532704
0.501154
0.475322
0.459585
0.454607
0.45692
0.466217
0.471597
0.470813
0.103545
0.114707
0.184683
0.490719
1.5781
1.07011
0.766948
0.974283
0.956558
0.829933
0.786608
0.738754
0.689744
0.645508
0.606222
0.568338
0.534114
0.502755
0.476806
0.460453
0.454799
0.456543
0.464664
0.469262
0.467806
0.10329
0.112875
0.175784
0.453641
1.53143
1.11617
0.761126
0.962297
0.964521
0.83593
0.787943
0.741455
0.691665
0.646654
0.606816
0.569763
0.53553
0.5047
0.478516
0.461389
0.454716
0.455736
0.4621
0.46556
0.463424
0.102831
0.110644
0.16566
0.413177
1.45998
1.1741
0.757844
0.94711
0.974229
0.841577
0.789544
0.744709
0.694129
0.648052
0.607588
0.571111
0.536886
0.506767
0.480272
0.462187
0.454256
0.454075
0.458104
0.459953
0.457055
0.102063
0.108008
0.154783
0.371387
1.35712
1.24539
0.7585
0.928691
0.983987
0.846892
0.791274
0.748493
0.697052
0.649752
0.608405
0.572272
0.538287
0.508614
0.481918
0.462646
0.453117
0.450698
0.452334
0.451856
0.447466
0.100865
0.104937
0.14357
0.329765
1.21975
1.33719
0.757527
0.907904
0.993317
0.855752
0.793179
0.752659
0.700321
0.651831
0.609426
0.573443
0.539566
0.510179
0.483162
0.462535
0.450821
0.445322
0.444406
0.44054
0.43307
0.0991776
0.101497
0.132319
0.288731
1.05098
1.43532
0.766246
0.887125
0.996824
0.867548
0.795479
0.756551
0.703816
0.654284
0.610908
0.574776
0.540918
0.511419
0.484057
0.462042
0.447549
0.438489
0.433625
0.424598
0.411034
0.0973022
0.0975307
0.121021
0.248151
0.862894
1.52606
0.791352
0.870669
0.990451
0.880947
0.799521
0.76019
0.707598
0.657319
0.613135
0.576283
0.542455
0.512139
0.484532
0.460846
0.443317
0.430126
0.419657
0.403354
0.378969
0.103721
0.117492
0.199142
0.554089
1.62671
1.00375
0.779534
0.988253
0.942725
0.820902
0.784117
0.733789
0.686318
0.643539
0.604334
0.565451
0.530451
0.498611
0.472909
0.457781
0.453332
0.456192
0.466471
0.47253
0.472803
0.103712
0.117057
0.196825
0.543988
1.62
1.01456
0.777649
0.987154
0.945745
0.822669
0.78531
0.735451
0.687591
0.644549
0.605276
0.566556
0.531787
0.500095
0.474348
0.459019
0.454406
0.457064
0.466927
0.472684
0.472599
0.103661
0.116111
0.19186
0.521806
1.60556
1.03665
0.772873
0.982825
0.950648
0.825343
0.78572
0.736756
0.688355
0.644797
0.605606
0.567207
0.532747
0.501191
0.475347
0.459596
0.454607
0.456909
0.466191
0.471573
0.470783
0.103545
0.114702
0.184661
0.490648
1.57817
1.0702
0.766949
0.974172
0.956569
0.830088
0.786615
0.738812
0.689786
0.645527
0.606239
0.568372
0.534148
0.50279
0.476831
0.460465
0.4548
0.456535
0.464643
0.469245
0.467783
0.103289
0.11287
0.175762
0.453571
1.53143
1.11629
0.761129
0.9622
0.964541
0.836008
0.787988
0.741524
0.691717
0.646678
0.606822
0.569788
0.535556
0.504734
0.47854
0.461402
0.454718
0.455731
0.462084
0.465549
0.463411
0.102829
0.110638
0.165638
0.413111
1.45993
1.17425
0.757813
0.947058
0.974303
0.841599
0.789553
0.744751
0.694182
0.648082
0.607611
0.571138
0.536913
0.506794
0.480293
0.4622
0.454258
0.454071
0.458093
0.459949
0.457053
0.10206
0.108002
0.154762
0.371321
1.35702
1.2456
0.758451
0.928651
0.984106
0.846911
0.791289
0.748545
0.697109
0.649789
0.608427
0.572296
0.538311
0.508638
0.481937
0.462657
0.453121
0.450696
0.452326
0.451857
0.447475
0.100861
0.10493
0.143548
0.3297
1.21958
1.33744
0.757499
0.907862
0.99345
0.855776
0.793174
0.752721
0.700388
0.65188
0.609453
0.573469
0.539588
0.5102
0.483178
0.462545
0.450826
0.445318
0.444402
0.440546
0.433087
0.0991734
0.10149
0.132299
0.288667
1.05076
1.43559
0.766268
0.887093
0.996933
0.867598
0.795505
0.756641
0.703896
0.654335
0.610943
0.574804
0.540943
0.511439
0.484071
0.46205
0.447551
0.438487
0.433624
0.424606
0.411055
0.097299
0.0975225
0.121002
0.248093
0.862649
1.52633
0.791406
0.870651
0.990526
0.881026
0.79957
0.760285
0.707681
0.657372
0.61317
0.57631
0.54248
0.512153
0.484543
0.46085
0.443317
0.430124
0.419658
0.403363
0.37899
0.095989
0.0925136
0.111045
0.21122
0.672171
1.59834
0.838672
0.85649
0.974729
0.893152
0.805435
0.763331
0.711962
0.661341
0.616474
0.578045
0.544097
0.512672
0.484922
0.459151
0.43829
0.420204
0.40185
0.370807
0.304566
0.0948461
0.0879239
0.102467
0.179904
0.52522
1.61307
0.919157
0.83299
0.958779
0.900915
0.813587
0.76792
0.716965
0.666435
0.620847
0.580311
0.545977
0.513535
0.485275
0.457376
0.43299
0.40995
0.384033
0.344797
0.277429
0.0938774
0.0838484
0.0951233
0.153551
0.418055
1.54491
1.02699
0.816254
0.93864
0.904748
0.826982
0.774397
0.722417
0.6724
0.626113
0.58343
0.548296
0.515281
0.485639
0.45632
0.428719
0.401712
0.371716
0.331367
0.278052
0.0931069
0.0802334
0.0887649
0.131794
0.331933
1.29519
1.14504
0.817878
0.912558
0.911914
0.845091
0.780179
0.727623
0.679046
0.631827
0.587904
0.551123
0.517418
0.486166
0.456358
0.426492
0.396916
0.365639
0.328815
0.281339
0.0925476
0.0769467
0.0833275
0.114375
0.259252
0.958491
1.28493
0.833361
0.887562
0.920854
0.862277
0.784736
0.733112
0.686842
0.638869
0.594329
0.554282
0.52025
0.48755
0.457057
0.42667
0.396521
0.3653
0.329819
0.288677
0.0920703
0.0741371
0.0789698
0.101675
0.204034
0.657445
1.38802
0.86331
0.879827
0.920128
0.872784
0.789322
0.740101
0.695343
0.646687
0.60141
0.558775
0.523885
0.49071
0.458953
0.427996
0.397381
0.366396
0.333162
0.300368
0.0916661
0.0716953
0.0753464
0.09217
0.165554
0.478558
1.39705
0.937569
0.869565
0.907395
0.873919
0.799173
0.750353
0.704462
0.655409
0.608899
0.565753
0.528213
0.495058
0.462609
0.431624
0.400404
0.370121
0.340521
0.312776
0.0913291
0.0696112
0.0722787
0.0843319
0.135248
0.368166
1.33397
1.0406
0.859619
0.890209
0.86996
0.814482
0.76225
0.712674
0.664149
0.61722
0.574265
0.53389
0.500661
0.46843
0.438258
0.407179
0.378259
0.351728
0.325707
0.0910447
0.0679293
0.0698334
0.0781235
0.110664
0.261467
1.05567
1.13137
0.874176
0.879556
0.867625
0.829012
0.771397
0.720541
0.673184
0.626786
0.583153
0.542284
0.507043
0.475249
0.444766
0.416052
0.388262
0.362492
0.337663
0.0908095
0.0665574
0.0679565
0.0738632
0.0954452
0.185187
0.572748
1.1791
0.904093
0.880252
0.868904
0.839439
0.779637
0.727833
0.68269
0.637084
0.592804
0.552611
0.514544
0.483073
0.452831
0.4246
0.397726
0.372557
0.349052
0.0906236
0.0654156
0.0664361
0.0707135
0.0858536
0.145224
0.391807
1.15503
0.972767
0.886036
0.873125
0.843367
0.785009
0.733818
0.692061
0.647893
0.603991
0.563447
0.525277
0.491566
0.46186
0.433583
0.407567
0.383296
0.360897
0.0904819
0.0645146
0.0652169
0.0681661
0.078386
0.117012
0.289342
1.04181
1.02335
0.900854
0.873244
0.842436
0.789473
0.741143
0.701969
0.659441
0.616171
0.574857
0.537451
0.501703
0.471922
0.443717
0.418041
0.394586
0.373284
0.0903847
0.0638409
0.0643151
0.066303
0.072868
0.0957212
0.19442
0.69672
1.04376
0.926497
0.875709
0.842759
0.796606
0.749828
0.713321
0.671904
0.62937
0.588082
0.550335
0.514968
0.482614
0.455032
0.429551
0.406626
0.385991
0.0903414
0.0633399
0.0636567
0.0650173
0.0693849
0.0836502
0.138038
0.371135
1.00385
0.947442
0.882345
0.845461
0.805149
0.761383
0.724032
0.685178
0.643797
0.602477
0.563982
0.528954
0.496008
0.467091
0.441953
0.419358
0.399419
0.0903591
0.0629949
0.0631898
0.0640774
0.0669133
0.0758778
0.107748
0.24613
0.848999
0.95203
0.905288
0.855754
0.815967
0.773534
0.733439
0.700034
0.65841
0.617203
0.579023
0.543536
0.510803
0.480653
0.455213
0.432942
0.413454
0.09043
0.0627861
0.0628987
0.0634655
0.065249
0.0706313
0.0884187
0.159462
0.469891
0.94379
0.918198
0.876782
0.830776
0.786537
0.746001
0.713121
0.673372
0.633641
0.594959
0.5593
0.526544
0.496518
0.469609
0.447449
0.428331
0.0904998
0.0627285
0.062769
0.0630631
0.0640871
0.0672616
0.0773498
0.113835
0.271661
0.822234
0.915809
0.891385
0.844345
0.801314
0.760136
0.722886
0.689401
0.650038
0.611442
0.575459
0.542633
0.513129
0.486449
0.463117
0.444367
0.0905173
0.0628508
0.0625169
0.0626791
0.06329
0.0651619
0.0708127
0.0896534
0.166377
0.493962
0.895868
0.891087
0.865947
0.816624
0.775273
0.735893
0.702067
0.665628
0.628579
0.593056
0.560047
0.530157
0.504163
0.480983
0.461173
0.0905156
0.0629407
0.0623374
0.0624272
0.0627752
0.0638426
0.0669796
0.0768071
0.112358
0.265239
0.761644
0.883653
0.869386
0.835449
0.791757
0.749924
0.712694
0.681837
0.64629
0.611145
0.578253
0.548723
0.522445
0.499926
0.480536
0.0905095
0.0629958
0.062222
0.0622703
0.0624618
0.0630485
0.0647711
0.0698906
0.0868523
0.154176
0.417489
0.841181
0.866041
0.847939
0.809365
0.766099
0.72677
0.694288
0.663109
0.629766
0.59725
0.56789
0.542385
0.520602
0.50158
0.0905052
0.0630256
0.0621551
0.0621793
0.0622791
0.0625887
0.0634947
0.0661239
0.0742688
0.103008
0.224027
0.649675
0.846612
0.845014
0.825663
0.784162
0.743283
0.707979
0.680083
0.648263
0.617044
0.587967
0.563316
0.542751
0.524322
0.0905033
0.0630382
0.0621178
0.0621285
0.0621773
0.0623338
0.0627922
0.0641232
0.0680528
0.0809379
0.130882
0.326782
0.751903
0.835153
0.825989
0.802104
0.761537
0.724603
0.693312
0.667699
0.637761
0.609733
0.585026
0.565499
0.549891
0.0905037
0.0630378
0.062102
0.0621066
0.062128
0.0621967
0.0624152
0.0630549
0.064941
0.0706883
0.0902679
0.170088
0.461963
0.788024
0.818769
0.80669
0.780876
0.74403
0.71113
0.685561
0.658988
0.632328
0.609045
0.590242
0.57642
0.0905045
0.063033
0.0621075
0.062087
0.062094
0.0621244
0.062222
0.0625179
0.0633854
0.0659505
0.0740773
0.103502
0.22296
0.59604
0.787208
0.801015
0.789357
0.76429
0.731787
0.702726
0.682533
0.657555
0.635229
0.618521
0.605873
0.0905045
0.0630315
0.0621111
0.0620758
0.0620786
0.0620908
0.0621321
0.06226
0.0626385
0.063765
0.0671559
0.0784336
0.121869
0.28585
0.662094
0.77896
0.784867
0.774455
0.753028
0.724818
0.704034
0.685101
0.664721
0.649311
0.640365
0.0905044
0.0630319
0.0621106
0.0620735
0.0620728
0.062076
0.0620909
0.0621402
0.0622979
0.0627653
0.0641768
0.0685211
0.0833824
0.141391
0.340484
0.687557
0.767766
0.770933
0.762381
0.746405
0.725807
0.714399
0.6966
0.683217
0.676863
0.0905044
0.0630321
0.0621101
0.0620747
0.0620684
0.0620695
0.0620746
0.0620929
0.0621533
0.0623376
0.0628909
0.0645654
0.0698444
0.0882119
0.159488
0.396753
0.692632
0.755029
0.759868
0.754416
0.744693
0.735955
0.729817
0.721749
0.719064
0.0905044
0.0630321
0.0621099
0.062075
0.0620674
0.0620677
0.0620694
0.0620762
0.0620988
0.0621683
0.0623748
0.0629957
0.0648834
0.0709526
0.0925048
0.174657
0.429447
0.68318
0.743554
0.752254
0.7504
0.750032
0.753002
0.75968
0.766379
0.0905043
0.0630321
0.0621099
0.062075
0.0620673
0.0620674
0.0620684
0.0620721
0.0620828
0.0621126
0.0621922
0.0624203
0.063087
0.0650996
0.0716353
0.0951504
0.182439
0.431535
0.666233
0.733911
0.747296
0.751536
0.765606
0.787419
0.805503
0.0905043
0.0630321
0.0621099
0.062075
0.0620673
0.0620674
0.0620683
0.0620717
0.0620807
0.0621029
0.0621503
0.0622569
0.0625139
0.0631995
0.0652171
0.0717205
0.0947985
0.174957
0.400329
0.64614
0.723511
0.74281
0.765414
0.795691
0.821308
0.0905043
0.0630321
0.0621099
0.062075
0.0620672
0.0620674
0.0620683
0.0620717
0.0620806
0.062103
0.0621502
0.062252
0.062393
0.0626905
0.0634006
0.0653187
0.0712498
0.0913061
0.157764
0.352856
0.616453
0.696978
0.753871
0.792933
0.821443