/*--------------------------------*- C++ -*----------------------------------*\
| =========                 |                                                 |
| \\      /  F ield         | OpenFOAM: The Open Source CFD Toolbox           |
|  \\    /   O peration     | Version:  4.1                                   |
|   \\  /    A nd           | Web:      www.OpenFOAM.org                      |
|    \\/     M anipulation  |                                                 |
\*---------------------------------------------------------------------------*/
FoamFile
{
    version     2.0;
    format      ascii;
    class       surfaceScalarField;
    location    "0.64";
    object      phi;
}
// * * * * * * * * * * * * * * * * * * * * * * * * * * * * * * * * * * * * * //

dimensions      [1 0 -1 0 0 0 0];

internalField   nonuniform List<scalar> 
150500
(
0.00195466
4.15701e-07
-8.72493e-13
0.0019186
2.38166e-06
-2.38282e-11
0.00171274
1.14914e-05
-1.18863e-10
0.000546445
6.59792e-05
-5.46318e-10
-0.000256272
0.0003526
3.78037e-10
0.000862205
0.000147526
6.43115e-11
0.000516393
0.000109482
-1.53959e-10
0.000216352
0.000155234
-3.79978e-10
0.000428504
0.000160638
6.89874e-10
0.000497908
0.000129296
3.94267e-10
0.000511163
0.000142137
1.21058e-11
0.000547629
0.000127245
-1.273e-11
0.000577059
0.000116035
-1.71212e-11
0.000577073
0.000107581
5.39927e-11
0.000568691
0.000100229
1.98821e-10
0.000548166
9.7351e-05
2.67385e-10
0.000516827
9.61858e-05
2.63275e-10
0.00045371
9.69394e-05
2.32369e-10
0.000367818
9.73547e-05
1.83572e-10
0.000275123
9.94102e-05
1.23479e-10
0.000185516
0.000103879
5.62009e-11
9.66903e-05
0.00010989
-4.21577e-12
2.31651e-05
0.000117136
-1.12053e-10
-2.63528e-06
0.000126853
-1.66264e-10
0.000135639
-2.16813e-10
0.00195736
9.77684e-07
-4.34782e-13
0.00192118
5.08932e-06
-1.56459e-11
0.00171438
2.34602e-05
-6.81037e-11
0.000577782
0.000131178
-1.23586e-10
-0.000265997
0.000704924
-5.43462e-10
0.000850403
0.000300792
5.47395e-10
0.000518395
0.000209254
-5.15173e-10
0.000208365
0.000315726
-5.64496e-11
0.000425523
0.000326054
4.5939e-10
0.000497972
0.000249741
-1.20871e-10
0.000514372
0.000279232
7.71421e-11
0.000554289
0.000252699
-2.41948e-11
0.000585122
0.000231506
-1.6799e-11
0.000586126
0.000214844
3.45528e-11
0.000576742
0.000201302
1.65867e-10
0.000554922
0.000195317
2.42792e-10
0.000523461
0.00019281
2.4814e-10
0.000460929
0.000194176
2.21767e-10
0.000374606
0.000195456
1.80631e-10
0.000281115
0.000199967
1.24954e-10
0.000190121
0.000209431
6.06252e-11
0.000100229
0.000221766
4.00399e-12
2.55653e-05
0.000237177
-9.92206e-11
-1.41805e-06
0.000254967
-1.53064e-10
0.000270338
-2.01685e-10
0.00196358
1.56267e-06
-2.37952e-12
0.00192789
7.62988e-06
-2.07813e-11
0.00172057
3.39184e-05
-9.42744e-11
0.000665428
0.000181589
-3.51998e-10
-0.000288545
0.00105081
-4.06753e-10
0.000842396
0.000470673
6.47488e-10
0.000532944
0.00030562
-5.48667e-10
0.000216265
0.000469664
2.07481e-10
0.000443175
0.000493332
6.75175e-10
0.00050911
0.000373516
-1.70654e-10
0.000526389
0.000412725
1.52391e-11
0.000568556
0.000378645
2.03396e-11
0.000598446
0.000348762
-1.45108e-11
0.000597666
0.000324209
1.60424e-11
0.000587567
0.000302056
1.18913e-10
0.000564854
0.000292665
1.8863e-10
0.00053437
0.000289504
2.16104e-10
0.000473083
0.000292164
2.00342e-10
0.000386488
0.000294385
1.69104e-10
0.000292219
0.000301719
1.19737e-10
0.000199737
0.000316597
6.14748e-11
0.000107855
0.000336078
8.72096e-12
3.16196e-05
0.000360202
-8.39231e-11
1.81876e-06
0.000386726
-1.2719e-10
0.000408007
-1.67459e-10
0.00197304
2.2908e-06
-4.04437e-12
0.00193724
1.00267e-05
-2.73846e-11
0.0017294
4.20377e-05
-1.25474e-10
0.000786875
0.000213872
-5.06617e-10
-0.000309747
0.00136228
-1.42562e-10
0.000827426
0.000673997
6.17863e-10
0.000558618
0.000396756
-1.41479e-10
0.000228651
0.000615255
-2.21295e-10
0.000464021
0.00066413
3.63613e-10
0.000523872
0.0005011
3.03301e-10
0.000544224
0.000540897
-2.09145e-11
0.00058729
0.000506211
1.35244e-10
0.000616896
0.000467385
1.10778e-10
0.000615399
0.000434217
6.30702e-11
0.000603394
0.000404037
7.53405e-11
0.000579217
0.000390014
1.58596e-10
0.000550364
0.000386181
1.6339e-10
0.000491054
0.000390667
1.8284e-10
0.000404169
0.000394494
1.57523e-10
0.000308878
0.000404705
1.13465e-10
0.000214399
0.000426483
6.38785e-11
0.000120847
0.000453339
1.97763e-11
4.34188e-05
0.000487288
-5.49488e-11
8.50988e-06
0.00052421
-9.18456e-11
0.000552293
-1.30676e-10
0.00198579
3.05874e-06
-6.55052e-12
0.00194838
1.21908e-05
-3.09872e-11
0.00174006
4.78302e-05
-1.34084e-10
0.000926195
0.00023013
-5.11505e-10
-0.000328702
0.00161871
-4.23232e-10
0.00079778
0.000923593
7.0917e-10
0.000591209
0.00048206
-4.71246e-12
0.000252243
0.000748022
-4.52458e-10
0.000485502
0.00083814
1.35575e-10
0.000540068
0.000636282
4.39473e-10
0.00056692
0.000663092
1.44294e-10
0.000610765
0.000636143
3.22681e-10
0.000639146
0.000589094
2.75097e-10
0.00063768
0.000546702
1.38735e-10
0.0006223
0.000507373
2.01235e-11
0.000597744
0.00048808
1.02678e-10
0.000570248
0.000482988
1.07623e-10
0.000514208
0.000489021
1.57639e-10
0.00042781
0.000495522
1.40266e-10
0.000331639
0.000508871
1.0633e-10
0.000234853
0.000539166
6.43277e-11
0.00014034
0.000573556
3.32826e-11
6.05366e-05
0.000621115
-2.05433e-11
1.94524e-05
0.000671374
-4.89451e-11
0.00070986
-7.87412e-11
0.00200173
3.86998e-06
-9.71884e-12
0.00195995
1.4138e-05
-3.30935e-11
0.00175262
5.12739e-05
-1.3112e-10
0.00107388
0.00023319
-4.73252e-10
-0.000361802
0.00179157
-6.99057e-10
0.000746081
0.00123295
8.49492e-10
0.000627978
0.000564737
-2.1163e-11
0.000287609
0.000866647
-3.97903e-10
0.000499296
0.00101534
9.64316e-11
0.00055916
0.000781094
3.61183e-10
0.000594835
0.000782243
6.9936e-11
0.000639071
0.000769227
3.47531e-10
0.000665174
0.000715097
3.4016e-10
0.000664102
0.000661936
1.49589e-10
0.000644329
0.000612561
1.98712e-11
0.000620807
0.000587195
7.43419e-11
0.000593258
0.000579235
7.74149e-11
0.000542597
0.000587486
1.31978e-10
0.00045765
0.000597051
1.25839e-10
0.000360594
0.00061439
9.85252e-11
0.00026394
0.000652626
6.58143e-11
0.000167832
0.000698332
4.48087e-11
8.53323e-05
0.000761061
1.17054e-11
3.49274e-05
0.000832103
-2.36338e-12
0.000888441
-1.57879e-11
0.00202094
4.58287e-06
-1.30967e-11
0.00197041
1.57689e-05
-3.51011e-11
0.00176698
5.25128e-05
-1.26699e-10
0.00121905
0.000226909
-4.40459e-10
-0.000390241
0.00184876
-9.57414e-10
0.000738473
0.00162155
1.16215e-09
0.000666413
0.000647534
-9.78403e-11
0.00033515
0.000969258
-3.30643e-10
0.00051453
0.00119562
2.62996e-10
0.000582516
0.000935093
4.01952e-10
0.0006257
0.000899112
1.67532e-10
0.000672481
0.000905373
3.88168e-10
0.000694994
0.00084513
3.75104e-10
0.00069435
0.000780298
1.92208e-10
0.000670161
0.000720864
1.43933e-11
0.000647508
0.000686759
5.89194e-11
0.000619818
0.000674968
3.72623e-11
0.000575836
0.000685311
8.35474e-11
0.000494476
0.000698512
9.65881e-11
0.000397473
0.000721027
7.85494e-11
0.00030301
0.000764625
6.54371e-11
0.000206758
0.000828691
5.10283e-11
0.000120314
0.000906054
2.61176e-11
5.83777e-05
0.00100546
3.75135e-11
0.00109524
4.86193e-11
0.00204318
4.85147e-06
-1.81857e-11
0.0019771
1.69112e-05
-3.78999e-11
0.00178268
5.16708e-05
-1.20825e-10
0.00134851
0.000214116
-4.09761e-10
-0.000368387
0.00176336
-1.28677e-09
0.000663136
0.00210387
1.48034e-09
0.000697356
0.000725618
-3.88768e-11
0.000398682
0.00105541
-2.64183e-10
0.000529779
0.00137133
3.30639e-10
0.0006101
0.00110443
3.07673e-10
0.000657356
0.00101971
1.6972e-10
0.000709834
0.0010446
4.35203e-10
0.000728251
0.000977961
3.87333e-10
0.000728193
0.00090192
2.27685e-10
0.000700005
0.000832517
8.06431e-11
0.000678034
0.000786701
7.9137e-11
0.000650325
0.000770141
4.27288e-11
0.000614026
0.000781234
6.70627e-11
0.000538793
0.000798754
7.88947e-11
0.00044442
0.000826009
7.1032e-11
0.000352282
0.000875675
6.26911e-11
0.00025999
0.000957506
4.98686e-11
0.000171721
0.00105506
4.62536e-11
9.60507e-05
0.00118861
7.38964e-11
0.00134217
9.2107e-11
0.00206769
4.33133e-06
-2.17313e-11
0.00198121
1.76501e-05
-3.78273e-11
0.00179669
4.84425e-05
-1.12363e-10
0.00144091
0.000194113
-3.76721e-10
-0.000244099
0.00153687
-1.45117e-09
0.000533275
0.0026514
1.5305e-09
0.000718304
0.00084214
2.09529e-10
0.000479945
0.00113014
-1.39309e-10
0.000546729
0.00151823
3.31827e-10
0.000634515
0.00128744
2.21677e-10
0.000686391
0.00114425
1.37948e-10
0.000748468
0.00118526
4.02363e-10
0.00076507
0.00111352
3.40058e-10
0.000765531
0.00102757
2.18994e-10
0.000734856
0.000947897
1.17514e-10
0.00071226
0.000887769
9.57887e-11
0.000684893
0.000865117
6.39717e-11
0.000656407
0.00087381
6.92502e-11
0.00058981
0.000896262
6.94593e-11
0.000503364
0.000925546
5.78753e-11
0.000415519
0.000982889
4.99992e-11
0.000330789
0.00107718
5.33125e-11
0.000244525
0.00120235
6.53858e-11
0.000161639
0.00137359
9.20848e-11
0.00164389
1.10414e-10
0.00209709
-1.68585e-11
3.56059e-06
0.00196359
-4.28339e-11
1.70916e-05
0.00180358
-1.00376e-10
4.28284e-05
0.00151864
-3.22881e-10
0.000166376
-6.6295e-05
-1.47207e-09
0.0012006
0.000433694
1.48447e-09
0.00323924
0.000743745
3.66136e-10
0.0010091
0.000566268
-4.88723e-11
0.00120442
0.000565269
3.59393e-10
0.00161109
0.000653712
2.11313e-10
0.00147544
0.000716091
1.45383e-10
0.00127564
0.000788141
3.40897e-10
0.0013219
0.000806222
2.81651e-10
0.00125229
0.000805635
1.96861e-10
0.00115739
0.000775334
1.28859e-10
0.0010677
0.000750183
1.13158e-10
0.00099188
0.000723748
9.23154e-11
0.000959919
0.000702031
9.2909e-11
0.000961747
0.000649103
6.48652e-11
0.000987503
0.000572928
3.83256e-11
0.00102024
0.000494221
3.82004e-11
0.00108054
0.000422329
5.1259e-11
0.0011826
0.000351168
7.41435e-11
0.00133234
0.000267415
9.89186e-11
0.00154775
1.14062e-10
0.00203809
0.00195462
4.16881e-07
-3.07379e-13
0.00191855
2.38927e-06
9.31718e-12
0.0017127
1.15349e-05
4.94921e-11
0.000545761
6.6303e-05
2.52098e-10
-0.000256635
0.000353056
-3.00526e-10
0.000861764
0.000147444
1.45732e-10
0.000515867
0.000108913
1.85666e-10
0.000215552
0.000155828
2.68934e-10
0.000427752
0.000161147
-7.58576e-10
0.000497799
0.000128062
-5.98583e-11
0.000511352
0.000141691
1.56795e-10
0.000547957
0.000127026
2.50982e-10
0.000577342
0.000115993
1.60917e-10
0.000577179
0.00010761
3.99574e-11
0.000568629
0.000100283
-6.8241e-11
0.00054803
9.73948e-05
-1.22277e-10
0.000516663
9.62201e-05
-1.16494e-10
0.000453542
9.69648e-05
-9.83514e-11
0.000367667
9.73714e-05
-9.39182e-11
0.000274995
9.94201e-05
-7.75531e-11
0.00018541
0.000103882
-3.22585e-11
9.6602e-05
0.000109888
3.39257e-12
2.30858e-05
0.000117132
6.58344e-11
-2.67868e-06
0.000126853
1.8692e-10
0.000135654
2.21435e-10
0.00195734
9.75789e-07
-8.35954e-13
0.00192118
5.08465e-06
3.08292e-12
0.00171446
2.3438e-05
1.13761e-11
0.000578517
0.000130945
-5.50666e-11
-0.000264782
0.00070475
4.348e-10
0.000851376
0.00030057
-2.27705e-10
0.000519082
0.000209724
4.74475e-10
0.00021021
0.000315313
8.86436e-11
0.000427521
0.000325309
-4.06936e-10
0.000499603
0.000249708
3.90587e-10
0.000516046
0.000278982
8.95781e-11
0.000555516
0.000252954
1.96228e-10
0.000585791
0.000232001
1.21253e-10
0.000586397
0.000215214
7.10333e-11
0.000576743
0.000201458
-3.55432e-11
0.000554811
0.000195367
-1.01726e-10
0.000523313
0.000192879
-1.05914e-10
0.000460765
0.000194234
-9.34962e-11
0.000374447
0.000195491
-9.44726e-11
0.000280977
0.000199983
-8.01861e-11
0.000190004
0.000209434
-3.90391e-11
0.000100129
0.00022176
-2.61675e-13
2.54746e-05
0.000237167
6.24986e-11
-1.48261e-06
0.000254959
1.80928e-10
0.000270356
2.24197e-10
0.00196355
1.56046e-06
3.0416e-13
0.00192787
7.62208e-06
7.48592e-12
0.00172058
3.38889e-05
3.48701e-11
0.000665278
0.000181441
1.2871e-10
-0.000288182
0.00104994
2.14868e-10
0.000842618
0.000470615
-2.41526e-10
0.000533161
0.000305831
4.10027e-10
0.000216575
0.000469236
-3.7313e-11
0.000443371
0.000492351
-3.37996e-10
0.00050943
0.000373705
1.86236e-10
0.000526562
0.00041286
9.47316e-11
0.000568606
0.000378927
6.9252e-11
0.000598499
0.000349131
9.47819e-11
0.000597663
0.000324513
8.56924e-11
0.00058747
0.000302218
-5.4468e-12
0.000564695
0.000292762
-6.23734e-11
0.000534171
0.000289595
-9.22314e-11
0.000472883
0.000292222
-8.94208e-11
0.000386307
0.000294407
-9.89778e-11
0.000292069
0.00030172
-8.54364e-11
0.000199611
0.000316589
-4.47645e-11
0.000107753
0.000336058
-2.55836e-12
3.15349e-05
0.000360185
5.86299e-11
1.78336e-06
0.0003867
1.80383e-10
0.000408023
2.24309e-10
0.001973
2.28891e-06
1.2168e-12
0.0019372
1.00223e-05
1.22453e-11
0.00172938
4.20291e-05
5.83522e-11
0.000786445
0.000213863
2.43891e-10
-0.000309758
0.00136172
1.2156e-11
0.000827433
0.000673774
-2.16609e-10
0.000558432
0.000396724
3.92919e-11
0.000228441
0.000615337
4.08661e-10
0.0004637
0.000663728
4.04013e-11
0.000523509
0.00050118
-3.66184e-10
0.000543651
0.000541246
8.35774e-11
0.000586644
0.00050658
-8.33701e-11
0.000616307
0.000467727
-7.94671e-11
0.000614951
0.000434452
-3.44047e-11
0.000603047
0.000404097
7.3265e-12
0.000578925
0.000390052
-5.38357e-11
0.000550106
0.000386201
-5.71682e-11
0.000490815
0.00039067
-8.4743e-11
0.000403965
0.000394477
-1.04364e-10
0.000308716
0.00040468
-9.02017e-11
0.000214265
0.000426461
-5.10173e-11
0.000120747
0.000453295
-8.43054e-12
4.33458e-05
0.000487258
4.96658e-11
8.47543e-06
0.000524178
1.6939e-10
0.000552308
2.26154e-10
0.00198574
3.05734e-06
2.52858e-12
0.00194835
1.21891e-05
1.45024e-11
0.00174004
4.78348e-05
6.46996e-11
0.000925852
0.000230185
2.49553e-10
-0.000328578
0.00161858
1.93314e-10
0.000797853
0.000923282
-2.70435e-10
0.000590887
0.000482112
-9.35368e-11
0.000251767
0.000748364
5.36153e-10
0.000485081
0.00083827
3.35574e-10
0.00053948
0.000636585
-4.19695e-10
0.000565803
0.000663636
-2.21284e-11
0.000609593
0.000636529
-2.32652e-10
0.000638148
0.000589288
-2.15374e-10
0.000636909
0.000546693
-9.72965e-11
0.000621777
0.000507249
5.53071e-11
0.000597323
0.000487956
-3.47834e-11
0.000569949
0.000482846
-1.45476e-11
0.000513952
0.000488943
-9.19641e-11
0.000427595
0.000495459
-1.02216e-10
0.000331469
0.000508814
-9.1728e-11
0.00023472
0.000539123
-5.39805e-11
0.000140245
0.000573487
-1.29732e-11
6.04726e-05
0.000621079
3.79796e-11
1.94175e-05
0.00067134
1.60169e-10
0.000709867
2.23258e-10
0.00200167
3.86903e-06
4.07614e-12
0.00195993
1.41373e-05
1.54272e-11
0.00175262
5.12819e-05
6.27951e-11
0.00107364
0.000233249
2.27359e-10
-0.000361419
0.00179158
3.49545e-10
0.000746249
0.00123259
-3.47814e-10
0.000627697
0.000564991
-4.80551e-11
0.000287159
0.000867133
4.0507e-10
0.000498746
0.00101599
3.06133e-10
0.000558421
0.000781485
-2.35742e-10
0.000593596
0.000782831
-4.53945e-11
0.000637724
0.000769626
-2.47263e-10
0.000664042
0.00071493
-2.58513e-10
0.000663214
0.000661495
-1.07367e-10
0.000643799
0.000612102
3.28938e-11
0.000620397
0.000586863
-2.61206e-11
0.000593008
0.000578999
-1.2007e-11
0.00054234
0.000587296
-8.28328e-11
0.00045744
0.000596923
-1.02999e-10
0.000360428
0.0006143
-9.30051e-11
0.000263819
0.000652553
-6.00466e-11
0.000167747
0.000698253
-2.64951e-11
8.52693e-05
0.000761023
3.24098e-11
3.48923e-05
0.000832057
1.49923e-10
0.00088842
2.14968e-10
0.00202088
4.58254e-06
5.53274e-12
0.00197039
1.5769e-05
1.59395e-11
0.00176697
5.25241e-05
5.92749e-11
0.00121883
0.000226976
2.07652e-10
-0.000389859
0.00184903
4.76505e-10
0.000738517
0.00162094
-5.0635e-10
0.000666219
0.000647975
2.67002e-11
0.000334784
0.000969869
2.6229e-10
0.000514123
0.0011965
3.67941e-11
0.0005818
0.000935612
-2.25606e-10
0.000624574
0.000900104
-2.24792e-11
0.000671193
0.00090554
-2.25182e-10
0.000693908
0.00084462
-2.34985e-10
0.000693434
0.000779552
-1.10475e-10
0.000669624
0.000720195
1.9009e-11
0.00064715
0.000686321
-3.07473e-11
0.000619652
0.00067469
-3.01719e-13
0.000575632
0.000685095
-6.2907e-11
0.000494288
0.00069832
-9.44745e-11
0.000397332
0.000720876
-8.99799e-11
0.000302915
0.000764512
-6.73725e-11
0.000206673
0.000828612
-3.10034e-11
0.000120257
0.000906007
2.69735e-11
5.83509e-05
0.0010054
1.38181e-10
0.00109517
1.99807e-10
0.00204311
4.85297e-06
7.53381e-12
0.00197709
1.69132e-05
1.64984e-11
0.00178266
5.16877e-05
5.45188e-11
0.00134834
0.000214194
1.88693e-10
-0.000368156
0.00176393
6.28029e-10
0.000663761
0.00210314
-6.83021e-10
0.000697254
0.000726018
2.6521e-11
0.000398391
0.00105608
1.61122e-10
0.000529631
0.0013723
-7.61831e-11
0.000609696
0.00110506
-1.78459e-10
0.00065664
0.00102075
1.48289e-11
0.000708884
0.00104453
-2.19731e-10
0.000727431
0.000977426
-1.94956e-10
0.000727498
0.000901233
-9.7721e-11
0.000699565
0.000831955
-2.14656e-11
0.00067774
0.000786301
-5.10885e-11
0.000650191
0.000769833
-2.62734e-11
0.000613874
0.000780992
-6.77323e-11
0.000538644
0.000798512
-9.16113e-11
0.000444306
0.000825812
-8.6923e-11
0.000352198
0.000875537
-7.37345e-11
0.000259925
0.000957407
-2.81517e-11
0.000171677
0.001055
2.26351e-11
9.60345e-05
0.00118853
1.17387e-10
0.00134204
1.81059e-10
0.00206762
4.33466e-06
8.58843e-12
0.0019812
1.76542e-05
1.56155e-11
0.0017967
4.84654e-05
4.84692e-11
0.00144082
0.000194207
1.67647e-10
-0.000244076
0.00153765
6.86832e-10
0.000533672
0.00265055
-7.03953e-10
0.000718276
0.000842433
-6.97404e-11
0.000479776
0.00113074
6.85186e-11
0.000546837
0.0015191
-1.05066e-10
0.000634455
0.00128812
-1.11093e-10
0.000686137
0.00114514
9.54869e-12
0.000747947
0.00118514
-1.71731e-10
0.00076461
0.0011132
-1.25543e-10
0.000765138
0.00102713
-7.14819e-11
0.000734598
0.000947531
-3.12704e-11
0.000712067
0.000887422
-4.03075e-11
0.000684788
0.000864803
-4.07731e-11
0.000656306
0.000873536
-7.67313e-11
0.000589714
0.000895977
-8.51904e-11
0.000503288
0.000925327
-7.93334e-11
0.000415457
0.000982737
-6.25138e-11
0.000330741
0.00107707
-3.00743e-11
0.0002445
0.00120228
1.21682e-11
0.000161628
0.0013735
9.51651e-11
0.00164369
1.58673e-10
0.00209703
6.00485e-12
3.56277e-06
0.00196372
1.67452e-11
1.70991e-05
0.00180356
4.11452e-11
4.28504e-05
0.00151854
1.39144e-10
0.000166463
-6.64451e-05
6.87997e-10
0.00120142
0.000434299
-6.53759e-10
0.00323841
0.000743652
-1.37068e-10
0.00100929
0.000566242
1.55054e-11
0.00120494
0.000565577
-1.60541e-10
0.00161174
0.000653893
-4.6434e-11
0.00147603
0.000716167
-1.52016e-12
0.00127631
0.000787999
-1.17972e-10
0.0013219
0.000806105
-7.46737e-11
0.0012522
0.000805546
-4.90234e-11
0.0011572
0.000775294
-3.65086e-11
0.00106749
0.000750114
-4.48297e-11
0.000991593
0.000723698
-4.19954e-11
0.000959592
0.000701968
-7.9107e-11
0.000961421
0.000649061
-7.97675e-11
0.000987187
0.0005729
-6.40905e-11
0.00101999
0.000494197
-5.0937e-11
0.00108036
0.000422305
-2.58033e-11
0.00118249
0.000351148
1.14344e-11
0.00133227
0.000267395
5.8314e-11
0.00154766
1.25858e-10
0.00203782
0.00195464
4.15986e-07
-7.67481e-15
0.00191857
2.38401e-06
-3.00004e-12
0.00171273
1.15046e-05
-1.71297e-11
0.000546199
6.60721e-05
-8.906e-11
-0.000256326
0.000352747
-1.3904e-11
0.000862093
0.000147517
3.18827e-11
0.000516179
0.000109398
-8.42603e-12
0.000215861
0.000155528
-2.00935e-11
0.000427888
0.000161052
1.12946e-10
0.000497332
0.000129006
1.12046e-10
0.000510599
0.000142015
1.84721e-11
0.000547143
0.000127057
3.91799e-12
0.000576676
0.000115856
-1.85198e-12
0.000576759
0.000107453
1.38651e-12
0.000568442
0.00010015
1.10358e-11
0.000547992
9.73006e-05
1.86767e-11
0.000516671
9.6147e-05
1.3488e-11
0.000453559
9.69106e-05
2.99984e-12
0.000367674
9.73372e-05
-2.03722e-11
0.000274975
9.94011e-05
-6.96577e-11
0.000185355
0.000103872
-9.51359e-11
9.65272e-05
0.000109882
-1.10262e-10
2.30201e-05
0.000117131
-1.12071e-10
-2.71887e-06
0.00012685
-5.95837e-11
0.000135654
-5.8306e-11
0.00195735
9.77289e-07
-1.47762e-14
0.00192117
5.08909e-06
-2.40837e-12
0.0017144
2.34599e-05
-1.34533e-11
0.000577877
0.000131154
-6.1148e-11
-0.000265629
0.000704943
-6.04982e-11
0.000850664
0.000300739
5.70762e-11
0.000518538
0.000209428
-2.32014e-11
0.000208715
0.000315834
7.14148e-12
0.000425797
0.000326332
1.14376e-10
0.000498045
0.00024976
3.41156e-11
0.000514407
0.000279154
8.49347e-12
0.000554275
0.00025251
2.06267e-12
0.000585046
0.000231312
1.69988e-12
0.000586001
0.000214699
1.57581e-12
0.0005766
0.000201209
1.25634e-11
0.000554805
0.000195244
1.59653e-11
0.00052333
0.000192761
1.04281e-11
0.000460788
0.000194131
-2.50719e-12
0.00037446
0.000195427
-2.21808e-11
0.000280962
0.000199949
-6.87152e-11
0.000189953
0.000209417
-9.33693e-11
0.000100058
0.000221751
-1.0674e-10
2.54114e-05
0.000237166
-1.06557e-10
-1.53003e-06
0.000254953
-5.6005e-11
0.000270355
-5.37522e-11
0.00196356
1.56197e-06
-1.28518e-13
0.00192788
7.62799e-06
-2.26529e-12
0.00172057
3.39124e-05
-1.23228e-11
0.000665371
0.000181561
-5.9027e-11
-0.000288282
0.00105059
-5.66465e-11
0.000842578
0.000470654
6.87137e-11
0.00053309
0.000305791
-3.28229e-11
0.000216538
0.000469696
3.2093e-11
0.000443362
0.000493429
1.07074e-10
0.000509301
0.000373672
-2.06141e-11
0.00052654
0.000412767
1.09349e-11
0.000568649
0.000378528
1.58063e-11
0.000598455
0.0003486
8.96648e-12
0.000597602
0.000324049
-3.16476e-12
0.000587473
0.000301946
-5.06129e-13
0.000564753
0.000292588
1.50758e-12
0.000534255
0.000289444
2.10981e-12
0.000472953
0.000292109
-1.13233e-11
0.000386348
0.000294343
-2.67376e-11
0.00029207
0.000301688
-7.16392e-11
0.000199572
0.000316574
-9.38367e-11
0.000107687
0.000336053
-1.04921e-10
3.14764e-05
0.000360184
-1.00137e-10
1.75468e-06
0.000386693
-4.77755e-11
0.000408021
-4.34738e-11
0.00197302
2.28997e-06
-1.4317e-13
0.00193722
1.00251e-05
-1.88119e-12
0.00172939
4.20358e-05
-9.59024e-12
0.000786716
0.000213877
-4.11571e-11
-0.00030963
0.00136209
-4.74159e-11
0.000827572
0.000673903
7.45614e-11
0.000558701
0.00039685
-2.27226e-11
0.000228908
0.000615363
4.05674e-13
0.000464223
0.0006642
3.98096e-11
0.000524072
0.000501185
-1.57967e-11
0.000544411
0.000541001
-3.97454e-12
0.000587424
0.000506176
3.80796e-11
0.000616971
0.00046729
4.32487e-11
0.000615408
0.000434107
2.9688e-11
0.000603362
0.000403978
-1.6959e-11
0.000579159
0.000389948
-4.85047e-12
0.000550271
0.000386139
-9.07413e-12
0.000490934
0.000390606
-1.98514e-11
0.000404036
0.000394438
-3.32563e-11
0.000308734
0.000404664
-7.76443e-11
0.00021424
0.000426453
-9.27718e-11
0.000120688
0.000453304
-9.91634e-11
4.32921e-05
0.00048726
-8.64731e-11
8.44812e-06
0.000524171
-3.6969e-11
0.000552304
-2.86268e-11
0.00198576
3.0579e-06
-3.16092e-13
0.00194837
1.21895e-05
-1.76335e-12
0.00174005
4.78311e-05
-7.91665e-12
0.000926051
0.000230152
-3.06666e-11
-0.000328549
0.00161862
-1.52432e-11
0.000797973
0.000923419
6.29692e-11
0.000591252
0.000482137
-1.05977e-11
0.000252421
0.000748147
-4.16448e-11
0.000485822
0.000838156
-9.61483e-12
0.000540336
0.000636465
7.49954e-11
0.000567068
0.000663214
-7.32796e-12
0.000610846
0.00063624
6.9313e-11
0.000639178
0.000589171
7.69451e-11
0.000637671
0.000546745
4.07914e-11
0.000622222
0.000507321
-1.20037e-11
0.000597647
0.00048799
-7.38901e-12
0.000570149
0.000482882
-2.04722e-11
0.000514107
0.000488932
-2.58717e-11
0.000427689
0.000495458
-4.25692e-11
0.000331507
0.000508823
-8.19968e-11
0.000234702
0.000539136
-9.15851e-11
0.000140192
0.000573512
-9.05429e-11
6.04255e-05
0.000621086
-6.71293e-11
1.93954e-05
0.000671332
-2.1579e-11
0.000709859
-9.61054e-12
0.0020017
3.86917e-06
-4.25158e-13
0.00195994
1.41366e-05
-1.4261e-12
0.00175262
5.12748e-05
-5.34256e-12
0.00107377
0.000233209
-1.64942e-11
-0.000361535
0.00179149
3.51281e-12
0.000746316
0.00123271
5.79556e-11
0.000628008
0.000564846
1.41712e-11
0.000287733
0.000866792
-6.40366e-11
0.000499515
0.00101546
-5.41692e-11
0.00055933
0.000781133
9.47068e-11
0.000594973
0.000782284
-2.97105e-12
0.000639083
0.000769584
9.50583e-11
0.000665145
0.000715254
8.54996e-11
0.000664071
0.000661947
3.44535e-11
0.000644271
0.000612432
-2.12936e-11
0.000620734
0.000587052
-1.21109e-11
0.000593178
0.000579086
-4.23806e-11
0.000542509
0.000587364
-2.89619e-11
0.000457545
0.000596979
-4.60494e-11
0.000360472
0.000614344
-8.39873e-11
0.000263803
0.000652592
-8.84568e-11
0.0001677
0.000698296
-8.08242e-11
8.5229e-05
0.000761039
-5.26568e-11
3.48765e-05
0.000832052
-4.1973e-12
0.000888409
1.3679e-11
0.00202091
4.58226e-06
-3.21051e-13
0.0019704
1.57676e-05
-7.18449e-13
0.00176698
5.25149e-05
-1.89403e-12
0.00121894
0.000226931
-1.67439e-12
-0.00039
0.00184879
3.08219e-11
0.000738636
0.00162113
6.82516e-11
0.000666431
0.000647693
1.41517e-11
0.000335197
0.000969426
-4.89537e-11
0.000514693
0.00119577
-2.7823e-11
0.000582592
0.000935183
1.13418e-10
0.000625622
0.000899603
4.46682e-12
0.000672329
0.000905762
8.22851e-11
0.000694866
0.000845195
6.97099e-11
0.000694239
0.000780193
2.20429e-11
0.000670097
0.000720654
-3.20927e-11
0.000647461
0.00068657
-3.15815e-11
0.00061978
0.000674807
-6.17153e-11
0.000575768
0.000685186
-5.45098e-11
0.000494383
0.000698428
-6.34416e-11
0.000397366
0.000720959
-8.71554e-11
0.000302892
0.000764584
-8.48398e-11
0.000206638
0.000828661
-6.91024e-11
0.000120224
0.00090604
-4.57884e-11
5.8337e-05
0.0010054
9.94906e-12
0.00109515
3.70611e-11
0.00204314
4.85187e-06
8.86132e-14
0.00197709
1.69109e-05
3.89512e-13
0.00178267
5.16764e-05
2.17081e-12
0.00134842
0.000214146
1.21984e-11
-0.000368247
0.00176357
8.38112e-11
0.000663593
0.00210335
7.98479e-11
0.000697362
0.000725707
-4.81702e-12
0.000398636
0.00105559
-2.49743e-11
0.00052989
0.00137148
-4.59691e-12
0.000610136
0.00110458
6.59242e-11
0.00065724
0.00102038
4.27259e-11
0.000709629
0.00104483
8.01216e-11
0.000728079
0.000977944
4.1576e-11
0.000728048
0.00090178
3.94808e-12
0.000699905
0.000832322
-1.26476e-11
0.000677966
0.000786506
-7.95591e-12
0.000650302
0.000769964
-4.40493e-11
0.000613983
0.000781118
-4.42356e-11
0.000538719
0.00079866
-7.0651e-11
0.000444322
0.000825934
-8.71452e-11
0.000352177
0.000875626
-7.93508e-11
0.000259884
0.000957469
-6.38292e-11
0.000171645
0.00105505
-3.17286e-11
9.60178e-05
0.00118854
1.92366e-11
0.00134201
4.43731e-11
0.00206765
4.3329e-06
8.29439e-13
0.0019812
1.76511e-05
1.70143e-12
0.0017967
4.84524e-05
6.28265e-12
0.00144086
0.000194156
2.62878e-11
-0.000244074
0.00153723
1.49334e-10
0.000533542
0.00265077
7.55042e-11
0.000718306
0.000842164
-1.86519e-11
0.000479869
0.00113031
-2.0916e-12
0.000546799
0.00151836
-1.65763e-11
0.000634537
0.00128761
-1.44862e-11
0.000686373
0.00114488
-2.29114e-12
0.000748314
0.00118538
1.62593e-11
0.000764919
0.0011135
-1.29319e-11
0.000765415
0.00102746
-1.63284e-11
0.000734786
0.000947748
-3.06533e-11
0.0007122
0.000887621
-2.47242e-11
0.000684863
0.000864978
-4.22514e-11
0.000656378
0.000873693
-3.05377e-11
0.000589756
0.000896143
-7.11627e-11
0.00050329
0.000925472
-8.83049e-11
0.000415425
0.000982845
-8.13438e-11
0.000330688
0.00107715
-5.96234e-11
0.000244457
0.00120233
-2.14904e-11
0.000161608
0.00137351
2.24401e-11
0.00164365
4.65479e-11
0.00209706
1.15383e-12
3.56163e-06
0.00196367
3.43037e-12
1.70949e-05
0.00180357
9.48036e-12
4.28387e-05
0.00151859
3.84261e-11
0.000166417
-6.63592e-05
2.26725e-10
0.001201
0.000434067
5.63493e-11
0.00323858
0.000743685
-3.58336e-11
0.00100907
0.000566225
3.06482e-12
0.00120457
0.000565378
3.22494e-11
0.00161123
0.000653768
-5.38048e-11
0.0014756
0.000716156
-4.37238e-11
0.00127614
0.000788059
-2.3292e-11
0.00132201
0.000806128
-4.0351e-11
0.00125231
0.000805566
-3.87566e-11
0.00115731
0.000775297
-3.37907e-11
0.00106755
0.000750163
-1.59854e-11
0.000991721
0.000723722
-4.65186e-11
0.000959764
0.000702008
-2.14557e-11
0.000961609
0.000649069
-6.81747e-11
0.000987381
0.000572878
-9.04171e-11
0.00102015
0.000494151
-8.22536e-11
0.00108048
0.000422244
-5.66863e-11
0.00118257
0.000351094
-1.70964e-11
0.00133233
0.000267365
1.75646e-11
0.00154767
4.25457e-11
0.00203775
0.00195464
4.16067e-07
4.70966e-13
0.00191857
2.38463e-06
2.01542e-11
0.00171272
1.15081e-05
1.17625e-10
0.000546097
6.60976e-05
6.0728e-10
-0.000256367
0.000352799
4.0324e-10
0.000862045
0.000147518
-6.52984e-10
0.000516123
0.000109381
1.08581e-10
0.000215793
0.00015558
7.30096e-11
0.000427827
0.000161106
-1.08496e-11
0.000497316
0.000128918
9.6848e-12
0.000510597
0.000141971
-5.44599e-12
0.000547143
0.000127039
-1.74472e-12
0.000576663
0.000115858
-1.25798e-11
0.000576715
0.000107459
-5.52859e-11
0.000568379
0.000100159
-9.14304e-11
0.000547922
9.73048e-05
-9.53326e-11
0.000516586
9.61475e-05
-7.7109e-11
0.000453456
9.69118e-05
-4.69653e-11
0.00036756
9.73415e-05
-6.30402e-12
0.000274862
9.94081e-05
2.18731e-11
0.000185248
0.000103879
4.64647e-11
9.64363e-05
0.00010989
6.64209e-11
2.29589e-05
0.000117138
1.0484e-10
-2.74463e-06
0.000126856
1.19528e-10
0.00013566
1.3645e-10
0.00195734
9.77252e-07
8.1812e-13
0.00192116
5.0893e-06
1.97409e-11
0.00171439
2.34612e-05
1.1416e-10
0.000577855
0.000131158
5.80454e-10
-0.000265582
0.000705
4.84593e-10
0.00085069
0.000300736
-6.6334e-10
0.000518553
0.000209465
1.05086e-10
0.000208806
0.000315849
6.7997e-11
0.000425882
0.000326327
-2.16841e-11
0.000498126
0.000249701
8.67535e-12
0.000514488
0.000279126
-1.09126e-11
0.000554325
0.00025253
9.29535e-12
0.000585053
0.000231359
5.16245e-12
0.000585962
0.000214736
-3.54681e-11
0.000576539
0.000201223
-7.5095e-11
0.000554737
0.000195241
-8.55892e-11
0.000523248
0.000192763
-7.25567e-11
0.000460688
0.000194131
-4.8116e-11
0.000374348
0.000195434
-7.92397e-12
0.000280849
0.000199961
1.97508e-11
0.000189845
0.000209431
4.41821e-11
9.99656e-05
0.000221765
6.32132e-11
2.53493e-05
0.000237179
1.01628e-10
-1.56108e-06
0.000254963
1.15283e-10
0.000270364
1.31833e-10
0.00196356
1.56198e-06
1.30497e-12
0.00192788
7.6282e-06
1.895e-11
0.00172057
3.39142e-05
1.07523e-10
0.000665318
0.000181576
5.39179e-10
-0.000288269
0.00105064
6.26848e-10
0.000842584
0.000470654
-6.91244e-10
0.000533107
0.000305809
9.81955e-11
0.000216615
0.000469682
7.43678e-11
0.000443438
0.000493291
-4.69509e-11
0.000509395
0.000373647
-3.62458e-12
0.00052661
0.000412777
-2.30015e-11
0.000568689
0.000378589
1.08774e-11
0.000598461
0.00034868
2.98315e-11
0.000597572
0.000324139
-8.8613e-13
0.000587424
0.000301984
-4.37479e-11
0.000564694
0.000292599
-6.53298e-11
0.000534175
0.000289455
-6.33878e-11
0.000472854
0.000292109
-4.74697e-11
0.000386237
0.000294347
-9.26137e-12
0.000291957
0.000301701
1.72702e-11
0.000199462
0.000316591
4.16537e-11
0.000107593
0.000336072
6.02971e-11
3.14141e-05
0.000360204