/*--------------------------------*- C++ -*----------------------------------*\
| =========                 |                                                 |
| \\      /  F ield         | OpenFOAM: The Open Source CFD Toolbox           |
|  \\    /   O peration     | Version:  4.1                                   |
|   \\  /    A nd           | Web:      www.OpenFOAM.org                      |
|    \\/     M anipulation  |                                                 |
\*---------------------------------------------------------------------------*/
FoamFile
{
    version     2.0;
    format      ascii;
    class       volScalarField;
    location    "0.64";
    object      T;
}
// * * * * * * * * * * * * * * * * * * * * * * * * * * * * * * * * * * * * * //

dimensions      [0 0 0 1 0 0 0];

internalField   nonuniform List<scalar> 
52500
(
0.388049
0.435589
0.625141
1.11313
1.51263
1.38917
1.32085
1.41894
1.38428
1.25914
1.12833
1.08208
1.07937
1.10789
1.14512
1.14218
1.11044
1.06703
1.04978
1.04818
1.04398
1.03875
1.03592
1.02235
0.972232
0.388519
0.434345
0.620168
1.10701
1.5122
1.39339
1.31909
1.41799
1.38531
1.26005
1.12841
1.08171
1.07833
1.10561
1.14385
1.14178
1.11129
1.06727
1.04948
1.04774
1.04351
1.03822
1.03503
1.02121
0.970409
0.389369
0.431548
0.60909
1.0933
1.5075
1.4002
1.31756
1.41727
1.38884
1.26645
1.13052
1.081
1.07586
1.10043
1.14144
1.14129
1.11347
1.06827
1.0496
1.0477
1.04356
1.03822
1.03449
1.02058
0.968712
0.390468
0.427384
0.593157
1.07227
1.49831
1.40766
1.31355
1.4137
1.39293
1.27833
1.13585
1.08117
1.07369
1.09543
1.13879
1.14092
1.11661
1.07007
1.05005
1.0479
1.04376
1.03846
1.03419
1.02
0.967581
0.391399
0.421939
0.573643
1.04396
1.48476
1.41703
1.30994
1.40741
1.39711
1.2904
1.14257
1.08112
1.06985
1.08729
1.13338
1.13956
1.11966
1.07245
1.05057
1.0479
1.04374
1.03838
1.03314
1.01931
0.965243
0.391785
0.415379
0.551651
1.00737
1.46498
1.42771
1.30766
1.39985
1.40216
1.30433
1.15156
1.08121
1.0652
1.07842
1.12604
1.13726
1.12205
1.07551
1.05105
1.04757
1.04338
1.03796
1.03162
1.01727
0.961546
0.391001
0.407822
0.528172
0.961302
1.43641
1.44028
1.30586
1.39227
1.40698
1.31569
1.16446
1.0824
1.06005
1.06835
1.11489
1.13321
1.12332
1.07915
1.05153
1.0467
1.04243
1.03659
1.02927
1.01345
0.955677
0.388217
0.399572
0.503967
0.904885
1.39565
1.45899
1.29791
1.38371
1.41172
1.32863
1.18143
1.08528
1.05502
1.05804
1.10114
1.12813
1.12329
1.08341
1.05133
1.0446
1.04051
1.03401
1.02512
1.00817
0.947445
0.382797
0.391391
0.479287
0.837564
1.33921
1.477
1.29456
1.37596
1.41348
1.33998
1.20275
1.09007
1.05031
1.04826
1.08421
1.12126
1.12137
1.08824
1.05138
1.04288
1.03663
1.02926
1.01936
0.999867
0.928749
0.375181
0.383382
0.453898
0.76058
1.26688
1.48988
1.29904
1.37042
1.41047
1.34922
1.22824
1.09766
1.04563
1.03812
1.06654
1.11135
1.11733
1.09422
1.05207
1.038
1.03143
1.02289
1.00977
0.98532
0.908533
0.388043
0.435607
0.625208
1.11319
1.51266
1.38922
1.32087
1.419
1.38421
1.25903
1.12837
1.08214
1.07942
1.10789
1.1451
1.14214
1.1104
1.067
1.04977
1.04816
1.04397
1.03873
1.03591
1.02235
0.9723
0.388514
0.434356
0.620195
1.10704
1.51211
1.39317
1.31909
1.41798
1.38551
1.26073
1.12873
1.08173
1.07826
1.10541
1.14377
1.14174
1.11127
1.06724
1.04946
1.04773
1.0435
1.0382
1.03502
1.02122
0.970468
0.389365
0.431564
0.609137
1.09336
1.50747
1.40004
1.31754
1.41724
1.38895
1.26681
1.13072
1.08117
1.07605
1.10068
1.14153
1.1413
1.11341
1.06823
1.04958
1.04769
1.04355
1.03821
1.03449
1.02058
0.968762
0.390465
0.427404
0.593222
1.07235
1.49833
1.40762
1.31354
1.41367
1.3928
1.27816
1.13586
1.08126
1.07384
1.09566
1.13892
1.14095
1.11653
1.07002
1.05004
1.04789
1.04375
1.03845
1.03419
1.02001
0.967623
0.391397
0.421962
0.573712
1.04404
1.48478
1.41698
1.30992
1.40742
1.39702
1.28997
1.14209
1.08105
1.06984
1.08737
1.13342
1.13955
1.11961
1.07242
1.05056
1.04789
1.04373
1.03837
1.03314
1.01931
0.965275
0.391787
0.415403
0.551716
1.00747
1.465
1.42761
1.30763
1.39984
1.40199
1.30382
1.15155
1.08128
1.06551
1.07888
1.12633
1.13728
1.12197
1.07546
1.05103
1.04756
1.04337
1.03794
1.0316
1.01726
0.961581
0.391007
0.407847
0.528235
0.96142
1.43645
1.44017
1.30585
1.39223
1.4068
1.31523
1.16389
1.08249
1.06059
1.06908
1.1156
1.13348
1.12338
1.07906
1.05151
1.04669
1.04242
1.03656
1.02924
1.01343
0.955714
0.38823
0.399596
0.504026
0.905029
1.39571
1.45889
1.29791
1.3837
1.41163
1.32844
1.18068
1.08538
1.05543
1.05853
1.10159
1.12829
1.12333
1.08332
1.0513
1.04459
1.0405
1.03399
1.02507
1.00814
0.947483
0.382816
0.391412
0.479344
0.837719
1.33931
1.47692
1.29456
1.37596
1.41347
1.33996
1.20225
1.09019
1.05045
1.04839
1.08428
1.12125
1.12135
1.08816
1.05135
1.04287
1.03661
1.02923
1.0193
0.99982
0.928788
0.375199
0.383401
0.453951
0.760725
1.267
1.4898
1.29902
1.37043
1.41049
1.34927
1.22796
1.09775
1.04559
1.038
1.06633
1.11125
1.11726
1.09418
1.05205
1.03798
1.0314
1.02285
1.00971
0.985267
0.908568
0.388046
0.4356
0.625179
1.11317
1.51264
1.38917
1.32083
1.41893
1.38417
1.25884
1.12826
1.08219
1.07954
1.10809
1.14518
1.14218
1.11037
1.067
1.04978
1.04817
1.04398
1.03874
1.0359
1.02233
0.972275
0.388516
0.434354
0.620196
1.10704
1.51218
1.39332
1.31908
1.41796
1.38528
1.26001
1.12844
1.08182
1.07847
1.10575
1.1439
1.14178
1.11124
1.06724
1.04947
1.04774
1.0435
1.0382
1.03502
1.0212
0.970442
0.389367
0.431558
0.60912
1.09334
1.5075
1.40013
1.31755
1.41723
1.38883
1.26656
1.13059
1.08107
1.07592
1.10048
1.14147
1.1413
1.11343
1.06825
1.04959
1.0477
1.04355
1.03821
1.03448
1.02056
0.968737
0.390467
0.427395
0.593192
1.07232
1.49832
1.40763
1.31356
1.41367
1.39288
1.2784
1.13597
1.08123
1.07379
1.09563
1.13886
1.14094
1.11656
1.07004
1.05005
1.0479
1.04376
1.03845
1.03418
1.01999
0.967598
0.391398
0.421951
0.573679
1.04401
1.48478
1.41701
1.30995
1.40741
1.39712
1.29048
1.14242
1.08108
1.06974
1.08714
1.13329
1.13953
1.11965
1.07245
1.05057
1.0479
1.04374
1.03838
1.03313
1.01929
0.965251
0.391787
0.415392
0.551685
1.00743
1.465
1.42766
1.30767
1.39983
1.4021
1.30433
1.15203
1.0812
1.06512
1.07833
1.12598
1.13722
1.12203
1.07552
1.05105
1.04757
1.04337
1.03795
1.0316
1.01724
0.961559
0.391005
0.407836
0.528207
0.961368
1.43644
1.44023
1.30587
1.39225
1.40692
1.31562
1.1643
1.08236
1.06012
1.06848
1.11506
1.13328
1.12334
1.07914
1.05153
1.0467
1.04243
1.03657
1.02923
1.01341
0.955693
0.388225
0.399586
0.504
0.904965
1.39569
1.45895
1.29793
1.38373
1.41173
1.32866
1.1809
1.08523
1.05512
1.05818
1.10131
1.12826
1.12336
1.08339
1.05132
1.0446
1.04051
1.03399
1.02507
1.00812
0.947462
0.382809
0.391403
0.47932
0.837652
1.33927
1.47697
1.29457
1.376
1.41355
1.34009
1.20232
1.09005
1.05036
1.04832
1.08426
1.12127
1.12139
1.08823
1.05138
1.04288
1.03661
1.02923
1.0193
0.999806
0.928767
0.375193
0.383394
0.45393
0.760663
1.26695
1.48984
1.29904
1.37046
1.41056
1.34932
1.22792
1.09766
1.04565
1.03813
1.06655
1.11134
1.11731
1.09421
1.05207
1.038
1.03141
1.02285
1.00971
0.985257
0.908549
0.388046
0.435602
0.625188
1.11318
1.51265
1.38917
1.32083
1.41894
1.38417
1.25882
1.12826
1.08219
1.07954
1.1081
1.14519
1.14219
1.11037
1.067
1.04978
1.04818
1.04399
1.03875
1.03591
1.02234
0.972281
0.388516
0.434356
0.620202
1.10705
1.51218
1.39331
1.31907
1.41796
1.38528
1.26003
1.12845
1.08181
1.07846
1.10575
1.1439
1.14179
1.11123
1.06724
1.04947
1.04775
1.04351
1.03821
1.03503
1.0212
0.970448
0.389367
0.43156
0.609126
1.09335
1.5075
1.40012
1.31755
1.41723
1.38885
1.26663
1.13063
1.08111
1.07597
1.10058
1.14151
1.14131
1.11342
1.06824
1.04959
1.04771
1.04357
1.03822
1.03449
1.02057
0.968741
0.390467
0.427396
0.593197
1.07233
1.49832
1.40761
1.31354
1.41364
1.39288
1.27846
1.13601
1.08121
1.07374
1.0955
1.13886
1.14095
1.11657
1.07004
1.05005
1.04791
1.04377
1.03846
1.03419
1.02
0.967601
0.391398
0.421953
0.573683
1.04401
1.48478
1.417
1.30994
1.4074
1.39709
1.29033
1.14228
1.08102
1.06971
1.08716
1.1333
1.13953
1.11966
1.07245
1.05057
1.04791
1.04375
1.03839
1.03314
1.0193
0.965251
0.391787
0.415393
0.551688
1.00743
1.465
1.42766
1.30767
1.39985
1.40207
1.30413
1.15179
1.08123
1.06533
1.07862
1.12615
1.13726
1.12201
1.0755
1.05105
1.04758
1.04338
1.03795
1.0316
1.01724
0.961556
0.391005
0.407836
0.528207
0.961367
1.43643
1.44022
1.30587
1.39226
1.40689
1.31548
1.16416
1.08244
1.06034
1.06876
1.11536
1.13344
1.12341
1.07911
1.05153
1.04671
1.04244
1.03658
1.02924
1.01341
0.955687
0.388225
0.399585
0.503999
0.90496
1.39568
1.45894
1.29793
1.38373
1.41172
1.3286
1.1809
1.08531
1.05518
1.05822
1.10133
1.12825
1.12335
1.08338
1.05133
1.04461
1.04052
1.034
1.02508
1.00812
0.947455
0.382808
0.391403
0.479316
0.83764
1.33925
1.47695
1.29457
1.37599
1.41354
1.34009
1.20242
1.09012
1.05026
1.04818
1.08407
1.1212
1.12135
1.08823
1.05138
1.04289
1.03662
1.02924
1.0193
0.999803
0.928757
0.375191
0.383392
0.453925
0.760645
1.26693
1.48983
1.29904
1.37046
1.41055
1.34936
1.22808
1.0977
1.0455
1.03791
1.06624
1.11124
1.11727
1.09423
1.05208
1.038
1.03142
1.02286
1.00971
0.985253
0.908541
0.388049
0.435591
0.625139
1.11312
1.51261
1.38919
1.3208
1.41893
1.38418
1.25885
1.12827
1.08219
1.07954
1.10808
1.14518
1.14218
1.11038
1.067
1.04978
1.04817
1.04398
1.03873
1.0359
1.02232
0.972263
0.388519
0.434345
0.620156
1.10699
1.51215
1.39333
1.31905
1.41795
1.38529
1.26004
1.12846
1.08182
1.07846
1.10574
1.14389
1.14178
1.11124
1.06724
1.04947
1.04774
1.0435
1.0382
1.03501
1.02119
0.970435
0.38937
0.43155
0.609082
1.09329
1.50747
1.40015
1.31753
1.41723
1.38885
1.26663
1.13064
1.08111
1.07597
1.10057
1.14149
1.1413
1.11343
1.06825
1.04959
1.0477
1.04355
1.03821
1.03448
1.02056
0.96873
0.390469
0.427387
0.593156
1.07226
1.49828
1.40763
1.31351
1.41364
1.3929
1.27847
1.13596
1.08121
1.07373
1.09548
1.13884
1.14094
1.11657
1.07005
1.05005
1.0479
1.04375
1.03844
1.03417
1.01998
0.967595
0.3914
0.421943
0.573646
1.04395
1.48473
1.41701
1.30992
1.40737
1.39707
1.29033
1.14256
1.08105
1.06972
1.08716
1.13329
1.13952
1.11965
1.07245
1.05057
1.0479
1.04374
1.03837
1.03311
1.01928
0.965249
0.391787
0.415384
0.551655
1.00737
1.46496
1.42768
1.30766
1.39984
1.4021
1.30415
1.15133
1.0812
1.06533
1.07861
1.12614
1.13724
1.122
1.0755
1.05105
1.04757
1.04337
1.03794
1.0316
1.01723
0.961539
0.391004
0.407828
0.528179
0.961303
1.43638
1.44025
1.30586
1.39226
1.40693
1.31554
1.16422
1.08244
1.06034
1.06875
1.11534
1.13344
1.12341
1.07911
1.05153
1.04671
1.04243
1.03657
1.02924
1.01341
0.955655
0.388221
0.399577
0.503974
0.904892
1.39562
1.45896
1.29792
1.3837
1.41168
1.32857
1.18137
1.08537
1.05518
1.05821
1.10131
1.12822
1.12332
1.08337
1.05133
1.04462
1.04052
1.034
1.0251
1.00813
0.947414
0.382802
0.391396
0.479294
0.837573
1.33919
1.47697
1.29456
1.37595
1.41345
1.33996
1.20285
1.09018
1.05027
1.04817
1.08405
1.12119
1.12134
1.08822
1.05138
1.0429
1.03664
1.02926
1.01934
0.999824
0.928699
0.375186
0.383386
0.453906
0.760586
1.26687
1.48984
1.29904
1.37043
1.41045
1.34924
1.22842
1.09775
1.04551
1.03791
1.06622
1.11122
1.11726
1.09422
1.05208
1.03801
1.03143
1.0229
1.00976
0.985282
0.908479
0.388048
0.435595
0.625157
1.11314
1.51262
1.38918
1.32081
1.41893
1.38416
1.2588
1.12825
1.08218
1.07954
1.1081
1.1452
1.14219
1.11037
1.067
1.04978
1.04818
1.04398
1.03874
1.03591
1.02233
0.972273
0.388518
0.434349
0.620172
1.10701
1.51216
1.39332
1.31905
1.41795
1.38527
1.26002
1.12845
1.08181
1.07846
1.10575
1.14391
1.14179
1.11124
1.06724
1.04947
1.04774
1.04351
1.03821
1.03502
1.0212
0.97044
0.389369
0.431553
0.609098
1.09331
1.50748
1.40014
1.31753
1.41722
1.38884
1.26662
1.13063
1.0811
1.07597
1.10058
1.14151
1.14131
1.11342
1.06825
1.04959
1.04771
1.04356
1.03822
1.03449
1.02056
0.968734
0.390468
0.42739
0.59317
1.07229
1.4983
1.40762
1.31352
1.41363
1.39288
1.27845
1.13594
1.0812
1.07373
1.09549
1.13885
1.14095
1.11657
1.07005
1.05005
1.04791
1.04377
1.03846
1.03419
1.01999
0.967594
0.391399
0.421947
0.573659
1.04397
1.48475
1.417
1.30992
1.40737
1.39705
1.29031
1.14254
1.08104
1.06972
1.08716
1.1333
1.13953
1.11966
1.07246
1.05058
1.04791
1.04375
1.03838
1.03313
1.01929
0.965246
0.391787
0.415387
0.551667
1.00739
1.46497
1.42767
1.30766
1.39984
1.40208
1.30413
1.15132
1.08119
1.06533
1.07861
1.12614
1.13725
1.12201
1.0755
1.05106
1.04758
1.04338
1.03795
1.0316
1.01724
0.961552
0.391004
0.407831
0.528189
0.961327
1.4364
1.44024
1.30587
1.39226
1.40692
1.31552
1.1642
1.08244
1.06034
1.06875
1.11535
1.13344
1.12341
1.07912
1.05153
1.04671
1.04244
1.03657
1.02924
1.01341
0.955684
0.388222
0.39958
0.503983
0.904917
1.39565
1.45895
1.29792
1.3837
1.41166
1.32855
1.18135
1.08536
1.05518
1.05821
1.10131
1.12823
1.12334
1.08338
1.05133
1.04461
1.04052
1.034
1.02507
1.00812
0.947454
0.382804
0.391398
0.479302
0.837598
1.33922
1.47696
1.29456
1.37595
1.41345
1.33995
1.20283
1.09017
1.05026
1.04817
1.08405
1.12119
1.12135
1.08823
1.05138
1.04289
1.03662
1.02924
1.0193
0.999801
0.928756
0.375188
0.383389
0.453913
0.760609
1.26689
1.48984
1.29903
1.37043
1.41045
1.34923
1.2284
1.09774
1.0455
1.0379
1.06622
1.11123
1.11727
1.09423
1.05208
1.03801
1.03142
1.02286
1.00971
0.985251
0.90854
0.388046
0.435602
0.625188
1.11318
1.51265
1.38917
1.32083
1.41894
1.38417
1.25882
1.12826
1.08219
1.07954
1.1081
1.14519
1.14219
1.11037
1.067
1.04978
1.04818
1.04399
1.03875
1.03592
1.02234
0.972281
0.388516
0.434356
0.620202
1.10705
1.51218
1.39331
1.31907
1.41796
1.38528
1.26003
1.12845
1.08181
1.07846
1.10575
1.1439
1.14179
1.11123
1.06724
1.04947
1.04775
1.04351
1.03821
1.03503
1.0212
0.970448
0.389367
0.43156
0.609126
1.09335
1.5075
1.40012
1.31755
1.41723
1.38884
1.26663
1.13063
1.08111
1.07597
1.10058
1.14151
1.14131
1.11342
1.06824
1.04959
1.04771
1.04357
1.03822
1.03449
1.02057
0.968741
0.390467
0.427396
0.593197
1.07233
1.49832
1.40761
1.31354
1.41364
1.39288
1.27846
1.13601
1.08121
1.07374
1.0955
1.13886
1.14095
1.11657
1.07004
1.05005
1.04791
1.04377
1.03846
1.03419
1.02
0.967601
0.391398
0.421953
0.573683
1.04401
1.48478
1.417
1.30994
1.4074
1.39709
1.29033
1.14228
1.08102
1.06971
1.08716
1.1333
1.13953
1.11966
1.07245
1.05057
1.04791
1.04375
1.03839
1.03314
1.0193
0.965251
0.391787
0.415393
0.551688
1.00743
1.465
1.42766
1.30767
1.39985
1.40207
1.30413
1.15179
1.08123
1.06533
1.07862
1.12615
1.13726
1.12201
1.0755
1.05105
1.04758
1.04338
1.03795
1.0316
1.01724
0.961556
0.391005
0.407836
0.528208
0.961368
1.43644
1.44022
1.30587
1.39226
1.40689
1.31548
1.16416
1.08244
1.06034
1.06876
1.11536
1.13344
1.12341
1.07911
1.05153
1.04671
1.04244
1.03658
1.02924
1.01341
0.955687
0.388225
0.399585
0.503999
0.90496
1.39568
1.45894
1.29793
1.38373
1.41171
1.3286
1.1809
1.08531
1.05518
1.05822
1.10133
1.12825
1.12335
1.08338
1.05133
1.04461
1.04052
1.034
1.02508
1.00812
0.947456
0.382808
0.391403
0.479316
0.837641
1.33925
1.47695
1.29457
1.37599
1.41354
1.34009
1.20242
1.09012
1.05026
1.04818
1.08407
1.1212
1.12135
1.08823
1.05138
1.04289
1.03662
1.02924
1.0193
0.999803
0.928757
0.375191
0.383392
0.453925
0.760646
1.26693
1.48983
1.29904
1.37046
1.41055
1.34936
1.22808
1.09769
1.0455
1.03791
1.06624
1.11124
1.11727
1.09423
1.05208
1.038
1.03142
1.02286
1.00971
0.985253
0.908541
0.388046
0.4356
0.625179
1.11317
1.51264
1.38917
1.32083
1.41893
1.38417
1.25884
1.12826
1.08219
1.07954
1.10809
1.14518
1.14218
1.11037
1.067
1.04978
1.04817
1.04398
1.03874
1.0359
1.02233
0.972275
0.388516
0.434354
0.620196
1.10704
1.51218
1.39332
1.31908
1.41796
1.38528
1.26001
1.12844
1.08182
1.07847
1.10575
1.1439
1.14178
1.11124
1.06724
1.04947
1.04774
1.0435
1.0382
1.03502
1.0212
0.970442
0.389367
0.431558
0.60912
1.09334
1.5075
1.40013
1.31755
1.41723
1.38883
1.26656
1.13059
1.08107
1.07592
1.10048
1.14147
1.1413
1.11343
1.06825
1.04959
1.0477
1.04355
1.03821
1.03448
1.02056
0.968737
0.390467
0.427395
0.593192
1.07232
1.49832
1.40763
1.31356
1.41367
1.39288
1.2784
1.13597
1.08123
1.07379
1.09563
1.13886
1.14094
1.11656
1.07004
1.05005
1.0479
1.04376
1.03845
1.03418
1.01999
0.967598
0.391398
0.421951
0.573679
1.04401
1.48478
1.41701
1.30995
1.40741
1.39712
1.29048
1.14242
1.08108
1.06974
1.08714
1.13329
1.13953
1.11965
1.07245
1.05057
1.0479
1.04374
1.03838
1.03313
1.01929
0.965251
0.391787
0.415392
0.551685
1.00743
1.465
1.42766
1.30767
1.39983
1.4021
1.30433
1.15203
1.0812
1.06512
1.07833
1.12598
1.13722
1.12203
1.07552
1.05105
1.04757
1.04337
1.03795
1.0316
1.01724
0.961559
0.391005
0.407836
0.528207
0.961368
1.43644
1.44023
1.30587
1.39225
1.40692
1.31562
1.1643
1.08236
1.06012
1.06848
1.11506
1.13328
1.12334
1.07914
1.05153
1.0467
1.04243
1.03657
1.02923
1.01341
0.955693
0.388225
0.399586
0.504
0.904965
1.39569
1.45895
1.29793
1.38373
1.41173
1.32866
1.1809
1.08523
1.05512
1.05818
1.10131
1.12826
1.12336
1.08339
1.05132
1.0446
1.04051
1.03399
1.02507
1.00812
0.947462
0.382809
0.391403
0.47932
0.837652
1.33927
1.47697
1.29457
1.376
1.41355
1.34009
1.20232
1.09005
1.05036
1.04832
1.08426
1.12127
1.12139
1.08823
1.05138
1.04288
1.03661
1.02923
1.0193
0.999806
0.928767
0.375193
0.383394
0.45393
0.760663
1.26695
1.48984
1.29904
1.37046
1.41056
1.34932
1.22792
1.09766
1.04565
1.03813
1.06655
1.11134
1.11731
1.09421
1.05207
1.038
1.03141
1.02285
1.00971
0.985257
0.908549
0.388043
0.435607
0.625208
1.11319
1.51266
1.38922
1.32087
1.419
1.38421
1.25903
1.12837
1.08214
1.07942
1.10789
1.1451
1.14214
1.1104
1.067
1.04977
1.04816
1.04397
1.03873
1.03591
1.02235
0.9723
0.388514
0.434356
0.620195
1.10704
1.51211
1.39317
1.31909
1.41798
1.38551
1.26073
1.12873
1.08173
1.07826
1.10541
1.14377
1.14174
1.11127
1.06724
1.04946
1.04773
1.0435
1.0382
1.03502
1.02122
0.970468
0.389365
0.431564
0.609137
1.09336
1.50747
1.40004
1.31754
1.41724
1.38895
1.26681
1.13072
1.08117
1.07605
1.10068
1.14153
1.1413
1.11341
1.06823
1.04958
1.04769
1.04355
1.03821
1.03449
1.02058
0.968762
0.390465
0.427404
0.593222
1.07235
1.49833
1.40762
1.31354
1.41367
1.3928
1.27816
1.13586
1.08126
1.07384
1.09566
1.13892
1.14095
1.11653
1.07002
1.05004
1.04789
1.04375
1.03845
1.03419
1.02001
0.967623
0.391397
0.421962
0.573712
1.04404
1.48478
1.41698
1.30992
1.40742
1.39702
1.28997
1.14209
1.08105
1.06984
1.08737
1.13342
1.13955
1.11961
1.07242
1.05056
1.04789
1.04373
1.03837
1.03314
1.01931
0.965275
0.391787
0.415403
0.551716
1.00747
1.465
1.42761
1.30763
1.39984
1.40199
1.30382
1.15155
1.08128
1.06551
1.07888
1.12633
1.13728
1.12197
1.07546
1.05103
1.04756
1.04337
1.03794
1.0316
1.01726
0.961581
0.391007
0.407847
0.528235
0.96142
1.43645
1.44017
1.30585
1.39223
1.4068
1.31523
1.16389
1.08249
1.06059
1.06908
1.1156
1.13348
1.12338
1.07906
1.05151
1.04669
1.04242
1.03656
1.02924
1.01343
0.955714
0.38823
0.399596
0.504026
0.905028
1.39571
1.45889
1.29791
1.3837
1.41163
1.32844
1.18068
1.08538
1.05543
1.05853
1.10159
1.12829
1.12333
1.08332
1.0513
1.04459
1.0405
1.03399
1.02507
1.00814
0.947483
0.382816
0.391412
0.479344
0.837719
1.33931
1.47692
1.29456
1.37596
1.41347
1.33996
1.20225
1.09019
1.05045
1.04839
1.08428
1.12125
1.12135
1.08816
1.05135
1.04287
1.03661
1.02923
1.0193
0.99982
0.928788
0.375199
0.383401
0.453951
0.760725
1.267
1.4898
1.29902
1.37043
1.41049
1.34927
1.22796
1.09775
1.04559
1.038
1.06633
1.11125
1.11726
1.09418
1.05205
1.03798
1.0314
1.02285
1.00971
0.985266
0.908568
0.388048
0.435594
0.625169
1.11317
1.51268
1.38923
1.32084
1.41897
1.38419
1.25873
1.12816
1.08209
1.07944
1.10798
1.14514
1.14217
1.1104
1.06702
1.04979
1.04819
1.04402
1.0388
1.036
1.02237
0.972107
0.388518
0.434348
0.620187
1.10704
1.51223
1.3934
1.3191
1.418
1.38532
1.2601
1.12847
1.08177
1.07837
1.1056
1.14383
1.14176
1.11127
1.06726
1.04949
1.04776
1.04354
1.03827
1.0351
1.02124
0.970293
0.389369
0.43155
0.609102
1.09334
1.50752
1.40016
1.31756
1.41723
1.38902
1.26733
1.13092
1.08101
1.07574
1.10024
1.14136
1.14125
1.11347
1.06827
1.0496
1.04772
1.04359
1.03827
1.03456
1.0206
0.968601
0.390468
0.427386
0.593172
1.07231
1.49834
1.40763
1.31353
1.4136
1.39301
1.27879
1.13611
1.08103
1.07339
1.09505
1.13869
1.14089
1.11663
1.07008
1.05006
1.04791
1.04378
1.03849
1.03424
1.02002
0.967486
0.391398
0.421943
0.573661
1.04399
1.48481
1.41705
1.30995
1.4074
1.39708
1.2902
1.14237
1.081
1.06979
1.08723
1.13323
1.13949
1.11967
1.07247
1.05057
1.0479
1.04374
1.03839
1.03317
1.01932
0.965178
0.391785
0.415383
0.551669
1.00741
1.46503
1.42774
1.30769
1.3999
1.40211
1.3039
1.15106
1.08132
1.06575
1.07913
1.12657
1.13736
1.122
1.07546
1.05104
1.04756
1.04337
1.03795
1.03162
1.01727
0.961513
0.391002
0.407827
0.528189
0.96134
1.43645
1.44029
1.30586
1.3923
1.40695
1.31537
1.16415
1.08263
1.06061
1.06903
1.11552
1.13347
1.1234
1.07907
1.05151
1.04669
1.04242
1.03657
1.02925
1.01344
0.955668
0.388219
0.399576
0.503981
0.904923
1.39568
1.45898
1.2979
1.3837
1.41169
1.32849
1.18142
1.08552
1.05522
1.0582
1.10123
1.12824
1.12333
1.08334
1.0513
1.04458
1.04049
1.03399
1.0251
1.00816
0.947445
0.3828
0.391395
0.479298
0.837599
1.33924
1.47698
1.29454
1.37592
1.41345
1.33993
1.20295
1.09026
1.05016
1.048
1.0838
1.12103
1.12127
1.08822
1.05136
1.04287
1.03661
1.02923
1.01933
0.999852
0.928763
0.375184
0.383385
0.453908
0.760607
1.26691
1.48986
1.29902
1.37039
1.41045
1.34924
1.2284
1.09772
1.04541
1.03776
1.06601
1.11107
1.11715
1.09421
1.05207
1.03799
1.03141
1.02287
1.00975
0.985306
0.908544
0.368101
0.37449
0.430231
0.68233
1.18261
1.49496
1.31216
1.36592
1.40282
1.35602
1.25668
1.10966
1.04303
1.02792
1.04528
1.09856
1.11157
1.09941
1.05476
1.03451
1.02652
1.01626
0.999219
0.970339
0.844623
0.361797
0.366486
0.409273
0.610067
1.10345
1.49
1.33564
1.35458
1.39716
1.36075
1.28424
1.12912
1.04473
1.02023
1.0281
1.08053
1.10426
1.10024
1.06089
1.03202
1.01909
1.00625
0.986062
0.95728
0.848236
0.356439
0.359416
0.391047
0.547865
1.01951
1.47312
1.36133
1.34374
1.39121
1.36347
1.3081
1.15802
1.05011
1.01315
1.01265
1.05703
1.09361
1.09715
1.06655
1.02984
1.01163
0.999737
0.975608
0.952602
0.864935
0.352172
0.352865
0.375325
0.49478
0.913133
1.402
1.37951
1.33942
1.38353
1.36761
1.32636
1.19433
1.06187
1.00443
0.996062
1.02212
1.07876
1.09119
1.07402
1.03213
1.00517
0.991215
0.969793
0.94939
0.896905
0.348978
0.346125
0.362389
0.449994
0.788986
1.28628
1.40055
1.33433
1.37642
1.3737
1.33881
1.23456
1.07755
1.00509
0.986247
0.995903
1.05525
1.08254
1.07671
1.03886
1.00509
0.987706
0.961615
0.945247
0.913425
0.346259
0.340284
0.352329
0.416
0.675258
1.15389
1.41485
1.32921
1.37568
1.37768
1.3466
1.26833
1.10713
1.01166
0.974485
0.974186
1.01735
1.06722
1.07178
1.05144
1.00773
0.987654
0.962244
0.939326
0.924298
0.343947
0.335225
0.344116
0.390095
0.584576
1.04924
1.41654
1.33071
1.37009
1.37886
1.35121
1.29183
1.14947
1.02842
0.96814
0.96136
0.979161
1.03904
1.0614
1.05487
1.01579
0.989367
0.964937
0.940732
0.926306
0.342023
0.330901
0.33725
0.369116
0.508668
0.948446
1.41456
1.33622
1.35696
1.37785
1.35576
1.31216
1.20659
1.04887
0.971153
0.946896
0.949894
1.00126
1.04639
1.04973
1.03197
0.995297
0.969187
0.944482
0.927277
0.340422
0.327398
0.331854
0.353289
0.443078
0.789512
1.33576
1.33848
1.34535
1.37367
1.3613
1.32976
1.25633
1.08366
0.981243
0.938514
0.932712
0.954581
1.0171
1.03795
1.03164
1.00888
0.979161
0.950929
0.930115
0.339098
0.324554
0.327806
0.34283
0.401248
0.635432
1.0639
1.34575
1.32862
1.36843
1.36799
1.34503
1.28721
1.13408
1.00395
0.94192
0.91857
0.922215
0.97029
1.01981
1.02513
1.01431
0.994316
0.966127
0.937905
0.338032
0.322203
0.324605
0.335325
0.37502
0.535481
0.933924
1.35446
1.32324
1.35863
1.37271
1.35607
1.30859
1.19291
1.03892
0.952673
0.91212
0.908685
0.926521
0.987788
1.0114
1.0095
0.997474
0.981362
0.956022
0.337204
0.320359
0.322109
0.329472
0.355276
0.460021
0.82343
1.33316
1.31089
1.34252
1.36931
1.36219
1.32836
1.2538
1.0761
0.968662
0.915137
0.896104
0.899764
0.93373
0.988284
0.9991
0.99486
0.983988
0.970367
0.336602
0.31903
0.320352
0.325311
0.341383
0.401372
0.652581
1.161
1.29353
1.32856
1.35583
1.36122
1.34461
1.29988
1.14244
0.997343
0.924587
0.892192
0.888403
0.897045
0.941048
0.977616
0.985597
0.981867
0.973741
0.336259
0.318127
0.319147
0.322483
0.332791
0.368738
0.516476
0.886053
1.29776
1.30637
1.33125
1.35701
1.35092
1.3287
1.2385
1.04533
0.942462
0.896243
0.876755
0.879529
0.896717
0.945778
0.970134
0.974963
0.972262
0.336216
0.317598
0.318301
0.320369
0.326855
0.348675
0.43412
0.740468
1.25352
1.26001
1.31622
1.34676
1.35083
1.34368
1.30015
1.12732
0.985774
0.909826
0.878048
0.865904
0.870772
0.892868
0.942738
0.962135
0.96687
0.336469
0.317318
0.317676
0.318945
0.323109
0.336027
0.381393
0.572367
0.98071
1.23736
1.29255
1.33016
1.34801
1.3448
1.32887
1.23668
1.05042
0.938278
0.886083
0.863031
0.856491
0.860957
0.884021
0.934357
0.954487
0.336828
0.317094
0.317391
0.318303
0.32081
0.3282
0.352718
0.451368
0.759809
1.21755
1.23833
1.29736
1.33661
1.34179
1.33682
1.29464
1.14243
1.00018
0.907739
0.867901
0.847017
0.843379
0.847653
0.870027
0.922103
0.336995
0.317088
0.317226
0.317686
0.319117
0.323352
0.336615
0.384402
0.584478
1.00943
1.19991
1.24947
1.31248
1.33364
1.33445
1.31902
1.2404
1.06522
0.948857
0.881744
0.85001
0.829492
0.826654
0.831276
0.851911
0.33703
0.317183
0.317028
0.317245
0.31804
0.320415
0.327518
0.351095
0.446719
0.743513
1.16418
1.20102
1.25815
1.31479
1.32827
1.32054
1.28532
1.1598
1.01016
0.912741
0.859167
0.830733
0.810471
0.807785
0.812896
0.337024
0.317269
0.31686
0.316969
0.317392
0.318669
0.322462
0.334282
0.376639
0.553908
0.924876
1.16308
1.20458
1.27095
1.31313
1.31554
1.3002
1.23721
1.07799
0.955043
0.883566
0.837503
0.81145
0.791297
0.789318
0.337014
0.317328
0.316755
0.316801
0.317007
0.317662
0.319633
0.325496
0.344707
0.420385
0.67791
1.09275
1.15698
1.20442
1.27915
1.30372
1.29731
1.27019
1.17378
1.01188
0.913276
0.855981
0.816781
0.792421
0.773505
0.337009
0.317361
0.316681
0.316696
0.316787
0.317119
0.318112
0.321026
0.32992
0.361174
0.495044
0.814566
1.11224
1.15561
1.20637
1.27647
1.28737
1.27369
1.22743
1.08989
0.958103
0.881281
0.835694
0.798649
0.774781
0.337011
0.317364
0.316632
0.316649
0.316698
0.316845
0.31731
0.318693
0.322822
0.33605
0.385322
0.581683
0.951241
1.10985
1.14801
1.21179
1.26626
1.26637
1.24716
1.17426
1.01674
0.912478
0.854977
0.817355
0.782069
0.337013
0.317351
0.31663
0.316622
0.316637
0.316694
0.316903
0.317533
0.319409
0.325064
0.34407
0.421122
0.667415
1.0311
1.10274
1.13992
1.21437
1.25141
1.24417
1.21297
1.10141
0.959665
0.876122
0.83575
0.80214
0.337013
0.317346
0.316637
0.3166
0.316604
0.316633
0.316713
0.316988
0.317798
0.320239
0.327824
0.354693
0.470847
0.751974
1.04825
1.09035
1.13828
1.21553
1.23442
1.22107
1.16555
1.02731
0.91297
0.849805
0.823481
0.337012
0.317348
0.316636
0.316593
0.316593
0.316602
0.31664
0.316738
0.317069
0.318081
0.321181
0.331069
0.36716
0.518209
0.815358
1.04209
1.07896
1.1397
1.21127
1.21584
1.19474
1.10324
0.959722
0.873494
0.832378
0.337012
0.317349
0.316634
0.316595
0.316585
0.316587
0.316613
0.316642
0.316762
0.31717
0.318426
0.322182
0.334302
0.379965
0.55185
0.875346
1.02501
1.07553
1.1462
1.20067
1.19394
1.15244
1.02257
0.907537
0.848326
0.337012
0.317349
0.316634
0.316595
0.316583
0.316584
0.3166
0.316612
0.316647
0.316819
0.317349
0.31882
0.323099
0.337061
0.391785
0.575407
0.899887
1.00368
1.0728
1.15604
1.18361
1.16444
1.07345
0.946228
0.869884
0.337012
0.317349
0.316634
0.316595
0.316582
0.316583
0.316598
0.316605
0.316611
0.31671
0.316974
0.317595
0.319233
0.323893
0.339
0.398882
0.592728
0.869514
0.987432
1.08236
1.15727
1.15561
1.10013
0.97823
0.890457
0.337012
0.317349
0.316634
0.316595
0.316582
0.316583
0.316598
0.316604
0.316607
0.31669
0.316901
0.317209
0.318014
0.319857
0.32463
0.339743
0.398404
0.58145
0.809099
1.00396
1.10888
1.12943
1.09246
0.991625
0.900325
0.337012
0.317349
0.316634
0.316595
0.316582
0.316583
0.316598
0.316604
0.316607
0.316689
0.316904
0.317161
0.317825
0.318659
0.320686
0.325674
0.339883
0.391194
0.539454
0.791332
1.0413
1.07311
1.05314
0.983056
0.899556
0.337012
0.317349
0.316634
0.316595
0.316582
0.316583
0.316598
0.316604
0.316607
0.316689
0.316905
0.317159
0.317826
0.318518
0.320001
0.322528
0.327617
0.341065
0.383201
0.500348
0.773989
0.967507
0.965353
0.934807
0.880503
0.337012
0.317349
0.316634
0.316595
0.316582
0.316583
0.316598
0.316604
0.316607
0.316689
0.316905
0.317158
0.317826
0.318511
0.319977
0.322376
0.32557
0.333416
0.349454
0.383834
0.478191
0.620986
0.739586
0.780975
0.782553
0.337012
0.317349
0.316634
0.316595
0.316582
0.316583
0.316598
0.316604
0.316607
0.316689
0.316905
0.317158
0.317826
0.31851
0.319974
0.32238
0.325474
0.33293
0.346652
0.36754
0.421794
0.489702
0.537816
0.567875
0.578651
0.337012
0.317349
0.316634
0.316595
0.316582
0.316583
0.316598
0.316604
0.316607
0.316689
0.316905
0.317158
0.317826
0.318511
0.319974
0.32238
0.325467
0.332922
0.346475
0.366637
0.418964
0.476269
0.509253
0.529249
0.534721
0.337012
0.317349
0.316634
0.316595
0.316582
0.316583
0.316598
0.316604
0.316607
0.316689
0.316905
0.317158
0.317826
0.318511
0.319974
0.322381
0.325467
0.332924
0.346469
0.366593
0.418864
0.475361
0.507231
0.525559
0.529712
0.337012
0.317349
0.316634
0.316595
0.316582
0.316583
0.316598
0.316604
0.316607
0.316689
0.316905
0.317158
0.317826
0.31851
0.319973
0.32238
0.325466
0.332922
0.346467
0.366581
0.418837
0.475269
0.507026
0.525184
0.529172
0.337012
0.317349
0.316634
0.316595
0.316582
0.316583
0.316598
0.316604
0.316607
0.316689
0.316905
0.317158
0.317826
0.31851
0.319974
0.322381
0.325467
0.332925
0.34647
0.366592
0.418866
0.475294
0.507067
0.525213
0.529187
0.337012
0.317349
0.316634
0.316595
0.316582
0.316583
0.316598
0.316604
0.316607
0.316689
0.316905
0.317158
0.317825
0.31851
0.319974
0.32238
0.325466
0.332922
0.346467
0.366581
0.418841
0.475263
0.50701
0.525156
0.529132
0.337012
0.317349
0.316634
0.316595
0.316582
0.316583
0.316598
0.316604
0.316607
0.316689
0.316905
0.317158
0.317826
0.318511
0.319974
0.32238
0.325466
0.332923
0.346466
0.366589
0.41886
0.475287
0.507073
0.525222
0.529202
0.368116
0.374508
0.430273
0.682459
1.18272
1.4949
1.31213
1.36596
1.40283
1.35606
1.25671
1.10963
1.04289
1.0277
1.04499
1.09835
1.11145
1.09937
1.05476
1.03451
1.02653
1.01622
0.999136
0.970266
0.844641
0.361808
0.3665
0.409308
0.610177
1.10355
1.48996
1.33558
1.35464
1.39716
1.36079
1.2843
1.12916
1.04461
1.01999
1.02779
1.08022
1.10413
1.10018
1.06092
1.03202
1.0191
1.00623
0.985977
0.957178