/*--------------------------------*- C++ -*----------------------------------*\
| =========                 |                                                 |
| \\      /  F ield         | OpenFOAM: The Open Source CFD Toolbox           |
|  \\    /   O peration     | Version:  4.1                                   |
|   \\  /    A nd           | Web:      www.OpenFOAM.org                      |
|    \\/     M anipulation  |                                                 |
\*---------------------------------------------------------------------------*/
FoamFile
{
    version     2.0;
    format      ascii;
    class       volVectorField;
    location    "0.64";
    object      U;
}
// * * * * * * * * * * * * * * * * * * * * * * * * * * * * * * * * * * * * * //

dimensions      [0 1 -1 0 0 0 0];

internalField   nonuniform List<vector> 
52500
(
(1.75253 0.00011178 -0.0024998)
(1.69728 0.000634767 -0.00281311)
(1.4542 0.00254851 -0.00413311)
(0.482602 0.00913649 -0.00780833)
(-0.181656 0.0230218 -0.0107506)
(-0.00217714 0.017651 -0.00967037)
(0.362348 0.0165995 -0.00928805)
(0.0685461 0.0194411 -0.0100557)
(0.0199111 0.0220336 -0.00976114)
(0.153156 0.0197435 -0.00886506)
(0.14063 0.0201285 -0.0079482)
(0.131126 0.0185485 -0.00761631)
(0.153174 0.0178318 -0.00758673)
(0.173648 0.0179621 -0.00777698)
(0.190798 0.018577 -0.00802769)
(0.198812 0.0195731 -0.00800269)
(0.197282 0.0203451 -0.00778265)
(0.18552 0.0211567 -0.00748989)
(0.164032 0.022055 -0.00738465)
(0.13227 0.0231375 -0.0073924)
(0.0986571 0.0242039 -0.00738368)
(0.0586461 0.0252353 -0.00736804)
(0.0274455 0.0261043 -0.00736542)
(-0.0114395 0.0276472 -0.00727302)
(0.009353 0.0280886 -0.00691556)
(1.75195 0.00038425 -0.0025021)
(1.69891 0.00203954 -0.00280409)
(1.46137 0.00803609 -0.00409658)
(0.496444 0.0288319 -0.00774087)
(-0.178629 0.0696427 -0.010696)
(-0.0136575 0.0461941 -0.00967205)
(0.364196 0.0402408 -0.00925253)
(0.0690687 0.0488057 -0.0100162)
(0.0176346 0.0517811 -0.00973498)
(0.15192 0.0417499 -0.00884826)
(0.141498 0.0435469 -0.00792544)
(0.131898 0.0403425 -0.00759242)
(0.154876 0.039361 -0.00755832)
(0.175627 0.0400555 -0.00773891)
(0.193191 0.0407718 -0.00799516)
(0.201187 0.0418993 -0.0079757)
(0.199495 0.0427953 -0.00776439)
(0.187769 0.0441653 -0.00746757)
(0.166421 0.0460794 -0.00735784)
(0.134581 0.0485877 -0.00736333)
(0.10052 0.0511202 -0.00735312)
(0.060089 0.0535062 -0.00733595)
(0.0286155 0.0554719 -0.00732969)
(-0.0108133 0.0577369 -0.00723529)
(0.00948435 0.0580799 -0.00687469)
(1.75092 0.000709668 -0.00250606)
(1.7026 0.00351405 -0.00278433)
(1.47718 0.0135265 -0.00401831)
(0.528583 0.0483729 -0.00760887)
(-0.16407 0.119973 -0.0106138)
(-0.0325605 0.0783963 -0.00968899)
(0.370922 0.0662802 -0.00921547)
(0.0764639 0.0835657 -0.00997617)
(0.0197794 0.0881869 -0.00972151)
(0.153018 0.0698844 -0.00886599)
(0.146468 0.0734634 -0.00791588)
(0.134618 0.0696386 -0.00756491)
(0.158389 0.0686598 -0.00751902)
(0.178625 0.0701192 -0.00768033)
(0.196251 0.0715739 -0.00795448)
(0.204663 0.0734674 -0.00794768)
(0.203442 0.0749003 -0.00775426)
(0.192044 0.0772653 -0.00744931)
(0.170961 0.0807007 -0.00733275)
(0.139178 0.0850173 -0.00733557)
(0.104646 0.0894697 -0.00732467)
(0.0636632 0.0935356 -0.00730617)
(0.031434 0.0973062 -0.00729498)
(-0.00890307 0.101297 -0.00719992)
(0.010112 0.101702 -0.00683423)
(1.74956 0.00108172 -0.00251086)
(1.70808 0.00489529 -0.0027552)
(1.49987 0.018134 -0.00390688)
(0.580607 0.0639863 -0.00741874)
(-0.141817 0.167826 -0.0105027)
(-0.061015 0.113111 -0.00971001)
(0.38121 0.0910314 -0.00915915)
(0.0887132 0.117224 -0.00991721)
(0.0229452 0.124965 -0.00971164)
(0.153395 0.0988003 -0.00891944)
(0.153873 0.101696 -0.00792828)
(0.138652 0.097377 -0.00754284)
(0.162913 0.0958844 -0.00748114)
(0.182983 0.0974828 -0.00762237)
(0.201024 0.0999426 -0.00791126)
(0.209758 0.102767 -0.00791984)
(0.209027 0.105137 -0.00774973)
(0.198293 0.108517 -0.00743541)
(0.177702 0.113596 -0.00730881)
(0.146048 0.119934 -0.00730819)
(0.110881 0.126622 -0.00729562)
(0.0693731 0.132576 -0.0072761)
(0.0367204 0.138986 -0.00725954)
(-0.00502567 0.145563 -0.00716243)
(0.0111927 0.146368 -0.00679594)
(1.74838 0.00150981 -0.0025139)
(1.71524 0.00618558 -0.00271744)
(1.52753 0.0217895 -0.00377095)
(0.652671 0.0755872 -0.00717418)
(-0.112018 0.212046 -0.0103659)
(-0.0964566 0.151607 -0.00974375)
(0.391962 0.11442 -0.00910576)
(0.105521 0.148511 -0.00983902)
(0.0279664 0.160756 -0.00970241)
(0.152058 0.129087 -0.00897403)
(0.162514 0.12898 -0.00795001)
(0.144029 0.125041 -0.0075185)
(0.168207 0.123205 -0.00743134)
(0.187814 0.124774 -0.00754261)
(0.206389 0.128138 -0.00784908)
(0.215796 0.131618 -0.00788471)
(0.21601 0.135228 -0.00774361)
(0.206181 0.139421 -0.00742457)
(0.186502 0.146108 -0.00728409)
(0.155314 0.15468 -0.00727806)
(0.119485 0.163841 -0.00726315)
(0.0777094 0.172445 -0.00724164)
(0.0446801 0.182487 -0.00721592)
(0.000769759 0.192226 -0.00712058)
(0.0129016 0.193659 -0.00674625)
(1.74777 0.00196725 -0.00251285)
(1.7239 0.00736716 -0.00267226)
(1.55864 0.0245161 -0.00361793)
(0.745988 0.083481 -0.00687139)
(-0.0732129 0.251873 -0.0101936)
(-0.135525 0.195014 -0.00978293)
(0.399664 0.136998 -0.00906011)
(0.126676 0.177782 -0.00975151)
(0.0337584 0.19605 -0.00970059)
(0.149718 0.161561 -0.00903675)
(0.172035 0.155657 -0.00798659)
(0.151222 0.15285 -0.00749451)
(0.174236 0.150678 -0.00737568)
(0.193357 0.151877 -0.00745787)
(0.212536 0.156169 -0.0077736)
(0.222889 0.160424 -0.00784238)
(0.224287 0.165253 -0.00773253)
(0.215591 0.170314 -0.00741727)
(0.197432 0.178579 -0.00725799)
(0.16706 0.18968 -0.00724426)
(0.130907 0.201882 -0.00722617)
(0.0896063 0.214445 -0.00720168)
(0.0562535 0.229017 -0.00716544)
(0.0091959 0.243552 -0.00706458)
(0.0153436 0.246416 -0.00668232)
(1.74842 0.00241588 -0.00250385)
(1.73398 0.00843142 -0.00262057)
(1.59179 0.0263233 -0.00345457)
(0.859747 0.087885 -0.0065061)
(-0.0239107 0.284807 -0.00997117)
(-0.172515 0.243903 -0.00982211)
(0.400477 0.159192 -0.0090126)
(0.152698 0.205243 -0.00966332)
(0.0411535 0.231771 -0.00969675)
(0.146123 0.196656 -0.00907866)
(0.181404 0.182421 -0.00804856)
(0.160539 0.180951 -0.00747713)
(0.181078 0.178389 -0.00731631)
(0.199542 0.178818 -0.00736508)
(0.219201 0.183925 -0.0076724)
(0.230738 0.189001 -0.00778805)
(0.233707 0.194997 -0.0077135)
(0.226589 0.201211 -0.00741286)
(0.210575 0.211032 -0.00723067)
(0.181809 0.224878 -0.00720497)
(0.146136 0.241208 -0.00718325)
(0.105971 0.259476 -0.00715067)
(0.0726684 0.279048 -0.00710492)
(0.0218021 0.30108 -0.00699064)
(0.0194341 0.308108 -0.00659654)
(1.75112 0.00270833 -0.00248194)
(1.74535 0.00929889 -0.00256437)
(1.62582 0.0272058 -0.00328608)
(0.990352 0.0891908 -0.00607789)
(0.0378923 0.307106 -0.00967883)
(-0.200728 0.29853 -0.00991598)
(0.390166 0.180048 -0.008944)
(0.184316 0.230427 -0.00956813)
(0.0516339 0.267521 -0.00969361)
(0.140915 0.234381 -0.00912815)
(0.190094 0.210365 -0.00813608)
(0.172091 0.209552 -0.0074703)
(0.188748 0.206208 -0.00725782)
(0.206422 0.20555 -0.00727084)
(0.226379 0.211194 -0.00755388)
(0.239401 0.217087 -0.00772662)
(0.244329 0.224336 -0.00768522)
(0.239307 0.231837 -0.0074117)
(0.225977 0.243174 -0.00719763)
(0.200014 0.259648 -0.00715574)
(0.166465 0.28098 -0.00713131)
(0.127651 0.306562 -0.00708753)
(0.0956027 0.332797 -0.00702634)
(0.0421307 0.366356 -0.00689921)
(0.0272214 0.384745 -0.00648395)
(1.75647 0.00263671 -0.00244352)
(1.75773 0.00994706 -0.00250804)
(1.65975 0.0270217 -0.00311503)
(1.13054 0.0871991 -0.0055906)
(0.114764 0.314239 -0.00929501)
(-0.213113 0.356793 -0.010023)
(0.357796 0.202037 -0.00889589)
(0.222179 0.253372 -0.00947617)
(0.0673862 0.300757 -0.00967445)
(0.134739 0.274085 -0.00916597)
(0.196917 0.240458 -0.00825102)
(0.185224 0.238813 -0.00747582)
(0.197139 0.234043 -0.0072014)
(0.214119 0.232279 -0.00718031)
(0.233941 0.237831 -0.00741462)
(0.248695 0.24461 -0.00765333)
(0.255918 0.253053 -0.00764411)
(0.253668 0.261973 -0.00741377)
(0.243524 0.274658 -0.00716552)
(0.221798 0.293717 -0.00710791)
(0.192618 0.319914 -0.0070639)
(0.156465 0.353398 -0.00700711)
(0.128147 0.390319 -0.00693022)
(0.0769133 0.438977 -0.00677713)
(0.0439867 0.480888 -0.00628625)
(1.76456 0.00226047 -0.00239157)
(1.77043 0.0101862 -0.00245384)
(1.69219 0.0254907 -0.00294015)
(1.27066 0.081127 -0.00504611)
(0.209138 0.30131 -0.00881796)
(-0.201676 0.415017 -0.010093)
(0.299372 0.229934 -0.00889516)
(0.263966 0.275321 -0.00939892)
(0.0888627 0.329366 -0.00963025)
(0.12938 0.313523 -0.00919093)
(0.202248 0.273157 -0.00839086)
(0.199454 0.268535 -0.00750003)
(0.206245 0.26184 -0.00714505)
(0.222517 0.258992 -0.00708789)
(0.241768 0.263677 -0.00727104)
(0.258485 0.271459 -0.00756005)
(0.268336 0.28083 -0.00758909)
(0.269656 0.291469 -0.00742303)
(0.263245 0.305021 -0.00713722)
(0.246857 0.326599 -0.00703835)
(0.224166 0.35706 -0.00698633)
(0.194514 0.398343 -0.00691357)
(0.173415 0.449994 -0.00680245)
(0.133883 0.525111 -0.00660217)
(0.0776056 0.630653 -0.00604945)
(1.75253 0.000112362 -3.28092e-09)
(1.69725 0.000637642 -4.00385e-08)
(1.4541 0.00256048 -1.62219e-07)
(0.482465 0.00919383 -4.40432e-07)
(-0.181825 0.0231405 7.75966e-08)
(-0.00223732 0.0177394 1.91591e-07)
(0.362224 0.0165968 1.12378e-08)
(0.068277 0.0195752 -1.47362e-07)
(0.0196891 0.0221849 3.86492e-08)
(0.153159 0.019563 3.81552e-07)
(0.140623 0.0200423 1.44124e-07)
(0.131209 0.0185125 1.9831e-07)
(0.153277 0.0178447 1.26167e-07)
(0.173727 0.0180036 1.26987e-07)
(0.190823 0.0186085 1.84108e-07)
(0.19879 0.0195832 2.18106e-07)
(0.197239 0.0203444 2.28648e-07)
(0.185468 0.0211574 2.13411e-07)
(0.163977 0.0220571 1.54126e-07)
(0.132215 0.0231392 9.72824e-08)
(0.0986149 0.0242039 4.91994e-08)
(0.058609 0.0252332 -1.39464e-09)
(0.027407 0.0261008 -7.63642e-08)
(-0.0114642 0.0276445 3.95449e-10)
(0.00934858 0.0280906 -2.80267e-08)
(1.75196 0.000384266 -3.73797e-09)
(1.6989 0.00204088 -3.46918e-08)
(1.46132 0.00804304 -1.33143e-07)
(0.496367 0.0288626 -2.89133e-07)
(-0.17833 0.0696672 -9.66183e-08)
(-0.0132795 0.0461406 3.27007e-07)
(0.364271 0.0401685 -1.38856e-07)
(0.0694363 0.0488036 1.35801e-08)
(0.0181969 0.0517199 1.07975e-07)
(0.152347 0.0415686 1.93223e-07)
(0.142034 0.0434447 1.53268e-07)
(0.132312 0.0402913 1.40649e-07)
(0.155152 0.0393452 8.93141e-08)
(0.175759 0.0400439 1.14552e-07)
(0.193237 0.0407787 1.83247e-07)
(0.201177 0.0419183 2.11539e-07)
(0.199462 0.0428215 2.21168e-07)
(0.187722 0.0441855 2.03698e-07)
(0.166365 0.0460922 1.49265e-07)
(0.134522 0.0485947 9.56587e-08)
(0.100473 0.051122 5.04727e-08)
(0.0600467 0.053503 6.32478e-09)
(0.0285732 0.0554643 -6.05623e-08)
(-0.0108431 0.0577277 1.02736e-08)
(0.00948026 0.0580805 -5.31043e-09)
(1.75092 0.000708464 -5.79424e-09)
(1.70258 0.00351025 -3.67727e-08)
(1.47711 0.0135137 -1.40476e-07)
(0.528471 0.0483183 -3.48609e-07)
(-0.164066 0.119857 -1.34019e-07)
(-0.0324327 0.0783129 4.08229e-07)
(0.370925 0.0663115 -2.1796e-07)
(0.0765181 0.0834972 1.8253e-07)
(0.0198803 0.088027 3.66704e-07)
(0.153131 0.0699829 -8.25195e-09)
(0.146557 0.0734981 9.3085e-08)
(0.134661 0.069698 8.40358e-08)
(0.158429 0.0687304 6.76018e-08)
(0.178684 0.0701637 1.01258e-07)
(0.196271 0.0716044 1.59141e-07)
(0.204631 0.0734963 1.89037e-07)
(0.203384 0.0749371 1.92647e-07)
(0.191976 0.0772908 1.75925e-07)
(0.170895 0.0807146 1.29034e-07)
(0.139114 0.085023 8.14183e-08)
(0.104596 0.0894693 4.51162e-08)
(0.063619 0.0935275 1.04189e-08)
(0.0313921 0.0972939 -4.17585e-08)
(-0.00892899 0.101282 4.55184e-08)
(0.0101098 0.101704 3.7242e-08)
(1.74957 0.00108054 -7.92587e-09)
(1.70806 0.0048918 -4.19743e-08)
(1.49977 0.0181235 -1.60597e-07)
(0.580419 0.0639489 -4.27833e-07)
(-0.141922 0.167709 -9.2112e-08)
(-0.0609241 0.113081 3.92876e-07)
(0.381156 0.0910617 -1.36165e-07)
(0.0885981 0.117192 1.16008e-07)
(0.0228667 0.124836 4.32494e-07)
(0.153375 0.0988854 1.84935e-09)
(0.153718 0.10178 4.91797e-08)
(0.138494 0.0974905 5.64935e-08)
(0.162771 0.0960173 3.85302e-08)
(0.18287 0.0976 3.62022e-08)
(0.200916 0.100012 1.15558e-07)
(0.209655 0.102809 1.56482e-07)
(0.208931 0.105159 1.65221e-07)
(0.198203 0.108531 1.56002e-07)
(0.177623 0.113603 1.07708e-07)
(0.145977 0.119936 6.64046e-08)
(0.110827 0.126618 4.10178e-08)
(0.069328 0.132566 1.92022e-08)
(0.0366815 0.138975 -8.7488e-09)
(-0.00504623 0.145548 8.11209e-08)
(0.0111911 0.146367 8.7297e-08)
(1.74838 0.00150887 -1.13294e-08)
(1.71521 0.00618391 -4.5851e-08)
(1.52743 0.0217877 -1.68682e-07)
(0.652441 0.0755844 -4.49306e-07)
(-0.112097 0.21199 -1.65826e-07)
(-0.0963329 0.151588 4.14628e-07)
(0.391892 0.114436 -9.46904e-08)
(0.10535 0.148544 5.83836e-09)
(0.0278306 0.160726 4.07851e-07)
(0.151991 0.129122 7.8899e-08)
(0.162202 0.129053 1.31761e-07)
(0.143702 0.125117 1.1005e-07)
(0.167916 0.123264 8.31294e-08)
(0.187569 0.124807 5.50131e-08)
(0.206171 0.128135 8.49795e-08)
(0.215622 0.131613 1.01038e-07)
(0.21588 0.135212 1.44787e-07)
(0.206083 0.139417 1.15992e-07)
(0.186419 0.146103 8.64973e-08)
(0.15524 0.154675 5.39711e-08)
(0.119429 0.163834 3.78514e-08)
(0.0776665 0.172435 2.95159e-08)
(0.044644 0.182478 2.90051e-08)
(0.00075209 0.19221 1.30726e-07)
(0.0128985 0.193653 1.54606e-07)
(1.74777 0.00196655 -1.59837e-08)
(1.72386 0.0073664 -4.93449e-08)
(1.55855 0.0245179 -1.69503e-07)
(0.745738 0.0834895 -4.46961e-07)
(-0.0732612 0.251845 -2.60861e-07)
(-0.135379 0.194979 4.54274e-07)
(0.399605 0.13703 -7.53139e-08)
(0.126513 0.177855 -4.34898e-08)
(0.0336247 0.196128 3.51582e-07)
(0.149589 0.16159 1.44621e-07)
(0.171737 0.155757 3.09411e-08)
(0.150869 0.152925 1.15217e-07)
(0.173946 0.15069 1.09487e-07)
(0.193147 0.151841 5.80176e-08)
(0.212354 0.156088 6.33295e-08)
(0.222732 0.160346 7.14491e-08)
(0.22416 0.16519 1.01704e-07)
(0.215498 0.170281 9.26445e-08)
(0.197347 0.178556 6.48619e-08)
(0.166987 0.189662 4.02735e-08)
(0.130853 0.20187 3.22005e-08)
(0.0895672 0.214434 3.93194e-08)
(0.0562206 0.229008 6.90326e-08)
(0.00917893 0.243536 1.88264e-07)
(0.0153382 0.246413 2.35334e-07)
(1.74842 0.00241547 -2.15479e-08)
(1.73395 0.00843107 -5.38271e-08)
(1.5917 0.0263263 -1.71405e-07)
(0.859469 0.0878967 -4.49478e-07)
(-0.0239739 0.284791 -3.8034e-07)
(-0.172385 0.243846 5.65061e-07)
(0.400445 0.159263 -9.1106e-08)
(0.152553 0.205339 -9.80333e-08)
(0.0410464 0.231909 3.25263e-07)
(0.146036 0.196691 2.03811e-07)
(0.181107 0.182578 1.58757e-07)
(0.160206 0.181048 1.75393e-07)
(0.18085 0.178415 1.62972e-07)
(0.199398 0.178792 1.01313e-07)
(0.219092 0.183858 4.19714e-08)
(0.230645 0.188915 4.73536e-08)
(0.233625 0.194914 5.73933e-08)
(0.226517 0.201147 5.08462e-08)
(0.210501 0.210986 3.32652e-08)
(0.181746 0.224844 1.30911e-08)
(0.146091 0.241188 2.18601e-08)
(0.105937 0.259457 4.65517e-08)
(0.072638 0.279032 8.30243e-08)
(0.0217893 0.301063 2.39077e-07)
(0.0194299 0.308109 3.1843e-07)
(1.75111 0.00270865 -3.04948e-08)
(1.74532 0.00929929 -6.06301e-08)
(1.62574 0.027211 -1.73379e-07)
(0.990057 0.0892092 -4.52778e-07)
(0.0378096 0.307118 -5.66065e-07)
(-0.200624 0.298471 6.47159e-07)
(0.390197 0.180152 -1.57879e-08)
(0.184191 0.23055 -1.21431e-07)
(0.0515609 0.267704 2.68999e-07)
(0.140926 0.234457 1.49276e-07)
(0.189886 0.210471 2.04409e-07)
(0.171867 0.209624 2.31205e-07)
(0.188597 0.206226 2.15725e-07)
(0.206318 0.205522 1.57039e-07)
(0.226289 0.21115 7.95905e-08)
(0.239317 0.217019 4.80213e-08)
(0.244259 0.224255 3.39926e-08)
(0.239248 0.231754 2.04302e-08)
(0.225919 0.243107 1.01076e-08)
(0.199965 0.2596 4.99589e-09)
(0.166426 0.280947 8.66131e-09)
(0.12762 0.306532 4.82094e-08)
(0.095578 0.332771 1.10279e-07)
(0.0421245 0.366334 2.7989e-07)
(0.0272203 0.384745 3.76539e-07)
(1.75645 0.00263811 -3.77519e-08)
(1.7577 0.00994854 -6.37311e-08)
(1.65967 0.0270303 -1.72344e-07)
(1.13026 0.0872263 -4.52989e-07)
(0.11466 0.314293 -7.33737e-07)
(-0.213041 0.356741 6.32704e-07)
(0.35791 0.202144 1.76015e-07)
(0.222078 0.253509 -8.17013e-08)
(0.0673658 0.300964 2.39165e-07)
(0.134818 0.274227 1.29526e-07)
(0.196827 0.240537 1.65879e-07)
(0.185138 0.238857 2.47288e-07)
(0.197058 0.234036 2.38226e-07)
(0.214045 0.232223 1.75873e-07)
(0.233862 0.237762 1.13894e-07)
(0.248624 0.244524 8.18334e-08)
(0.255862 0.252962 4.55395e-08)
(0.253624 0.261876 1.23031e-08)
(0.243486 0.274574 3.42821e-09)
(0.221766 0.293653 -6.23614e-09)
(0.19259 0.319868 2.75196e-09)
(0.156441 0.35336 5.1254e-08)
(0.128128 0.390286 1.40126e-07)
(0.0769136 0.438948 2.97191e-07)
(0.0439892 0.480881 3.9627e-07)
(1.76453 0.00226207 -3.11646e-08)
(1.7704 0.0101891 -7.63025e-08)
(1.69213 0.0255016 -1.65513e-07)
(1.27042 0.0811597 -4.20824e-07)
(0.208995 0.301406 -8.77888e-07)
(-0.201634 0.414975 6.03e-07)
(0.299562 0.230021 2.8034e-07)
(0.263883 0.275448 -3.90691e-08)
(0.088895 0.329559 2.10619e-07)
(0.129503 0.313693 1.87927e-07)
(0.202252 0.273253 1.64419e-07)
(0.199459 0.268571 2.39528e-07)
(0.206226 0.261823 2.27569e-07)
(0.222483 0.258924 1.73709e-07)
(0.241715 0.263583 1.19504e-07)
(0.258444 0.271357 9.80359e-08)
(0.268308 0.280726 8.28552e-08)
(0.269635 0.291364 4.13336e-08)
(0.263226 0.304926 3.0936e-09)
(0.246844 0.326521 -1.90447e-08)
(0.224154 0.357002 -1.78988e-09)
(0.1945 0.398299 5.39196e-08)
(0.173401 0.449957 1.55725e-07)
(0.133884 0.525075 2.93015e-07)
(0.0776096 0.630644 3.91297e-07)
(1.75253 0.00011192 -8.76088e-10)
(1.69726 0.000635607 1.74301e-08)
(1.45414 0.00255196 7.56773e-08)
(0.482525 0.00915184 2.44075e-07)
(-0.181703 0.0230524 -1.93465e-07)
(-0.00215737 0.0176733 1.58162e-07)
(0.362293 0.0166075 1.9479e-07)
(0.068438 0.0194922 2.3704e-07)
(0.0197476 0.0221084 -5.9191e-07)
(0.153029 0.0197015 3.63651e-08)
(0.140442 0.0201006 1.50932e-07)
(0.13101 0.0185122 2.16604e-07)
(0.153085 0.0177917 1.44061e-07)
(0.173574 0.0179305 5.96131e-08)
(0.190721 0.0185545 -8.066e-08)
(0.198744 0.0195575 -1.55715e-07)
(0.197224 0.0203309 -1.60445e-07)
(0.185468 0.0211477 -1.51832e-07)
(0.163981 0.0220501 -1.89066e-07)
(0.132213 0.0231354 -2.02056e-07)
(0.0985968 0.0242022 -1.73871e-07)
(0.0585755 0.0252329 -1.45451e-07)
(0.027378 0.0261017 -5.82543e-08)
(-0.0114861 0.0276459 1.72127e-07)
(0.00934371 0.0280924 2.14499e-07)
(1.75195 0.000384275 -2.56853e-09)
(1.6989 0.0020403 1.86274e-09)
(1.46133 0.00803963 -4.87532e-09)
(0.49638 0.0288456 -1.94443e-07)
(-0.178563 0.0696585 2.3864e-07)
(-0.0135279 0.0461886 -1.74543e-07)
(0.364202 0.0402409 4.82341e-07)
(0.0691446 0.048847 8.15297e-08)
(0.0177272 0.0518466 -2.68206e-07)
(0.151948 0.0416895 3.69738e-07)
(0.141518 0.0435205 7.98374e-08)
(0.131926 0.0403125 1.69413e-07)
(0.154889 0.0393303 1.10926e-07)
(0.175626 0.0400351 7.36201e-08)
(0.193168 0.0407538 -3.23147e-08)
(0.201149 0.0418854 -1.28604e-07)
(0.199452 0.0427825 -1.48473e-07)
(0.187725 0.044156 -1.52451e-07)
(0.166371 0.0460738 -1.91643e-07)
(0.134523 0.0485842 -2.04429e-07)
(0.100457 0.0511167 -1.76707e-07)
(0.0600148 0.0535008 -1.45889e-07)
(0.0285454 0.0554654 -5.57878e-08)
(-0.010864 0.0577299 1.66293e-07)
(0.00947594 0.0580838 2.20711e-07)
(1.75092 0.000709348 4.90381e-10)
(1.70259 0.0035134 1.44394e-08)
(1.47714 0.0135248 5.33191e-08)
(0.528512 0.0483644 1.08795e-07)
(-0.164055 0.119949 1.10511e-07)
(-0.0324657 0.0783793 -1.73779e-07)
(0.370931 0.0663086 4.36703e-07)
(0.0765208 0.083588 -8.06392e-09)
(0.0198532 0.0882303 -2.51097e-07)
(0.153072 0.0698888 1.63063e-07)
(0.146526 0.0734594 9.10511e-08)
(0.134667 0.0696201 8.21325e-08)
(0.158418 0.0686288 9.49019e-08)
(0.178634 0.0700831 7.68519e-08)
(0.19624 0.0715433 -8.34887e-09)
(0.204637 0.0734446 -9.11282e-08)
(0.203408 0.0748844 -1.40155e-07)
(0.192005 0.0772522 -1.5978e-07)
(0.170915 0.0806907 -2.02831e-07)
(0.139122 0.0850099 -2.13758e-07)
(0.104584 0.0894628 -1.83609e-07)
(0.0635909 0.0935263 -1.46927e-07)
(0.0313665 0.097296 -5.29336e-08)
(-0.00894878 0.101286 1.734e-07)
(0.0101061 0.101709 2.27077e-07)
(1.74957 0.00108127 3.00949e-09)
(1.70807 0.00489426 2.87352e-08)
(1.49982 0.0181315 1.16671e-07)
(0.580512 0.0639772 3.30159e-07)
(-0.141843 0.167791 -2.49056e-08)
(-0.0609341 0.113101 -1.39076e-07)
(0.381215 0.0910627 1.52765e-08)
(0.0887445 0.117242 3.55331e-07)
(0.0230182 0.124993 7.72929e-08)
(0.153455 0.0988335 -3.6378e-07)
(0.153939 0.101727 6.7388e-08)
(0.13871 0.0973814 -4.93214e-08)
(0.162956 0.0958756 -4.68015e-08)
(0.183032 0.0974768 -1.37346e-08)
(0.201049 0.0999379 -8.78204e-09)
(0.209755 0.102756 -8.76579e-08)
(0.209001 0.105119 -1.03035e-07)
(0.198255 0.108498 -1.64982e-07)
(0.177658 0.113582 -2.17339e-07)
(0.145995 0.119924 -2.25777e-07)
(0.110822 0.126615 -1.89774e-07)
(0.0693039 0.132566 -1.48344e-07)
(0.0366574 0.138977 -4.84864e-08)
(-0.00506376 0.145553 1.6988e-07)
(0.0111885 0.146374 2.44368e-07)
(1.74838 0.00150933 6.2324e-09)
(1.71523 0.00618476 3.54327e-08)
(1.52748 0.0217888 1.38048e-07)
(0.652559 0.0755865 3.75465e-07)
(-0.112044 0.212023 1.28434e-07)
(-0.096367 0.151596 -1.96059e-07)
(0.391968 0.114444 -1.02232e-07)
(0.105536 0.148538 4.5287e-07)
(0.028039 0.160777 2.51407e-07)
(0.152146 0.129131 -3.39715e-07)
(0.162562 0.128996 -3.17783e-08)
(0.144055 0.125056 -1.64816e-07)
(0.168215 0.12321 -1.44899e-07)
(0.1878 0.12478 -7.34622e-08)
(0.20636 0.128131 4.03263e-08)
(0.215763 0.131602 -6.27564e-08)
(0.215979 0.135203 -5.8935e-08)
(0.206149 0.139397 -1.80364e-07)
(0.186466 0.146092 -2.22211e-07)
(0.155267 0.154669 -2.31596e-07)
(0.119429 0.163833 -1.91931e-07)
(0.0776443 0.172435 -1.48447e-07)
(0.044622 0.182481 -4.11695e-08)
(0.000737439 0.192216 1.75314e-07)
(0.012897 0.193662 2.6176e-07)
(1.74777 0.00196676 1.03419e-08)
(1.72388 0.00736633 3.91073e-08)
(1.55859 0.0245158 1.42535e-07)
(0.745865 0.0834823 3.83315e-07)
(-0.0732326 0.251852 2.6352e-07)
(-0.135429 0.194991 -2.6246e-07)
(0.399671 0.137019 -2.99276e-08)
(0.126677 0.177811 3.23647e-07)
(0.0338119 0.19608 1.90364e-07)
(0.149768 0.161604 -1.6265e-07)
(0.172115 0.155714 -4.82001e-08)
(0.151244 0.152892 -1.57522e-07)
(0.174225 0.150682 -1.81298e-07)
(0.193336 0.151855 -8.68446e-08)
(0.212513 0.156124 6.54872e-09)
(0.222864 0.160381 -5.79242e-08)
(0.224262 0.165216 -6.76868e-08)
(0.215567 0.170289 -1.71273e-07)
(0.1974 0.178561 -2.23674e-07)
(0.167017 0.189666 -2.34539e-07)
(0.130854 0.201872 -1.95675e-07)
(0.0895465 0.214436 -1.44636e-07)
(0.0562009 0.229013 -3.38999e-08)
(0.00916753 0.243544 1.85253e-07)
(0.0153377 0.246424 2.81477e-07)
(1.74842 0.00241544 1.48469e-08)
(1.73396 0.00843053 4.27581e-08)
(1.59174 0.0263231 1.45877e-07)
(0.859605 0.0878866 3.97702e-07)
(-0.023943 0.284786 3.97693e-07)
(-0.172432 0.243862 -3.7746e-07)
(0.400489 0.159217 5.23185e-08)
(0.152683 0.205267 2.16161e-07)
(0.0411767 0.2318 2.32895e-08)
(0.146174 0.196672 -1.29688e-07)
(0.181399 0.182549 -1.97205e-08)
(0.160494 0.181032 -1.53743e-07)
(0.181054 0.17842 -1.82679e-07)
(0.199536 0.178813 -1.06949e-07)
(0.219205 0.18389 -2.06239e-08)
(0.230738 0.188955 -7.5249e-08)
(0.233699 0.194952 -7.32587e-08)
(0.226572 0.201179 -1.59533e-07)
(0.210547 0.211009 -2.17426e-07)
(0.181771 0.22486 -2.32074e-07)
(0.14609 0.241195 -2.0076e-07)
(0.105917 0.259465 -1.33334e-07)
(0.0726204 0.279042 -3.46075e-08)
(0.0217803 0.301073 1.93085e-07)
(0.0194301 0.308121 3.00076e-07)
(1.75112 0.00270826 2.1822e-08)
(1.74533 0.00929831 4.78437e-08)
(1.62577 0.0272066 1.48238e-07)
(0.990196 0.0891957 4.11474e-07)
(0.0378467 0.307097 6.00545e-07)
(-0.200664 0.298482 -4.89542e-07)
(0.390203 0.18008 2.77337e-08)
(0.184286 0.230458 1.49844e-07)
(0.05163 0.267557 -9.16701e-08)
(0.140984 0.234396 -1.30023e-07)
(0.190052 0.210442 6.14095e-08)
(0.172032 0.209621 -1.4977e-07)
(0.18872 0.206247 -1.71932e-07)
(0.206414 0.20556 -1.13265e-07)
(0.226378 0.211181 -4.29165e-08)
(0.239402 0.217057 -8.13079e-08)
(0.244328 0.224296 -8.59609e-08)
(0.239297 0.2318 -1.54439e-07)
(0.225956 0.243145 -2.11906e-07)
(0.199982 0.259627 -2.27255e-07)
(0.166423 0.280964 -2.03153e-07)
(0.127601 0.306549 -1.24672e-07)
(0.0955588 0.332787 -2.32904e-08)
(0.0421158 0.366347 1.86825e-07)
(0.0272207 0.384758 3.12913e-07)
(1.75646 0.00263728 2.7052e-08)
(1.75771 0.00994712 4.96872e-08)
(1.65971 0.0270247 1.47689e-07)
(1.13038 0.0872096 4.20206e-07)
(0.114707 0.314254 7.84054e-07)
(-0.213068 0.356745 -4.81031e-07)
(0.35787 0.202066 -1.11299e-07)
(0.222142 0.253412 7.66699e-08)
(0.0673788 0.300808 -1.28303e-07)
(0.134803 0.274131 -1.41938e-07)
(0.196888 0.240496 8.16248e-09)
(0.185198 0.238859 -1.6667e-07)
(0.197117 0.234071 -1.5376e-07)
(0.214105 0.232281 -1.04682e-07)
(0.23393 0.237814 -7.30394e-08)
(0.248683 0.244581 -8.60292e-08)
(0.255907 0.253018 -1.05257e-07)
(0.253658 0.261934 -1.54032e-07)
(0.243509 0.274624 -2.01175e-07)
(0.221773 0.293689 -2.17889e-07)
(0.192581 0.319895 -1.90799e-07)
(0.15642 0.353382 -1.22969e-07)
(0.128106 0.390306 -1.18221e-08)
(0.0769028 0.438963 1.75669e-07)
(0.0439884 0.480893 3.07248e-07)
(1.76454 0.00226123 2.05549e-08)
(1.77041 0.0101871 5.90095e-08)
(1.69215 0.0254954 1.41471e-07)
(1.27052 0.0811416 4.06714e-07)
(0.20906 0.301351 9.79864e-07)
(-0.201646 0.414971 -4.33627e-07)
(0.299482 0.229953 -2.11597e-07)
(0.263927 0.275361 2.17445e-08)
(0.0888708 0.329424 -1.35889e-07)
(0.129442 0.313593 -1.2595e-07)
(0.202243 0.273202 -4.37359e-08)
(0.199455 0.268574 -1.51768e-07)
(0.206236 0.261863 -1.33454e-07)
(0.222509 0.258988 -1.04522e-07)
(0.241762 0.263651 -8.34857e-08)
(0.258481 0.271418 -9.08915e-08)
(0.268331 0.280788 -1.14758e-07)
(0.26965 0.291427 -1.4682e-07)
(0.263236 0.304982 -1.90362e-07)
(0.246841 0.326566 -1.99886e-07)
(0.224138 0.357036 -1.77351e-07)
(0.194475 0.398325 -1.14908e-07)
(0.173376 0.449979 -7.61465e-09)
(0.133869 0.525091 1.48987e-07)
(0.0776052 0.630651 2.80738e-07)
(1.75253 0.000111955 8.08939e-10)
(1.69726 0.000635814 3.72032e-08)
(1.45413 0.00255284 1.84567e-07)
(0.482501 0.00915582 6.03322e-07)
(-0.181725 0.0230605 1.99739e-07)
(-0.0021587 0.0176789 -4.98519e-07)
(0.362277 0.0166098 1.00414e-07)
(0.0684128 0.0195031 3.97638e-08)
(0.0197296 0.0221224 1.11587e-07)
(0.153034 0.0196962 1.15699e-07)
(0.140435 0.0201032 1.39463e-08)
(0.131012 0.0185203 2.38498e-09)
(0.153085 0.0178032 -1.57811e-08)
(0.17357 0.017942 -5.38482e-08)
(0.190707 0.0185612 -8.5493e-08)
(0.198722 0.0195599 -8.5397e-08)
(0.197195 0.0203297 -7.44446e-08)
(0.185432 0.021147 -5.47264e-08)
(0.163938 0.0220502 -5.2595e-08)
(0.132164 0.0231361 -5.17007e-08)
(0.0985509 0.0242028 -4.71518e-08)
(0.0585304 0.0252334 -4.02021e-08)
(0.0273437 0.0261019 -8.44693e-09)
(-0.0115007 0.0276459 6.47744e-08)
(0.00934159 0.0280923 8.38123e-08)
(1.75195 0.000384297 1.57107e-09)
(1.6989 0.00204055 3.78093e-08)
(1.46132 0.00804081 1.86645e-07)
(0.49636 0.0288503 6.1733e-07)
(-0.17856 0.0696652 2.13486e-07)
(-0.0135079 0.0461871 -4.7731e-07)
(0.364198 0.0402392 8.23161e-08)
(0.0691557 0.0488517 6.18322e-08)
(0.017754 0.0518477 1.0106e-07)
(0.151975 0.0416647 4.876e-08)
(0.141541 0.0435029 -2.58652e-09)
(0.131945 0.0402983 1.2946e-08)
(0.154898 0.0393205 8.00903e-09)
(0.175624 0.0400261 -3.31283e-08)
(0.193154 0.0407518 -6.5836e-08)
(0.201127 0.0418848 -7.78361e-08)
(0.199424 0.0427842 -7.30544e-08)
(0.187691 0.0441578 -6.40054e-08)
(0.166329 0.0460758 -5.92648e-08)
(0.134474 0.0485867 -5.4319e-08)
(0.100411 0.051119 -4.80965e-08)
(0.0599693 0.0535026 -3.94986e-08)
(0.0285108 0.0554662 -5.49743e-09)
(-0.010879 0.0577302 6.48032e-08)
(0.00947375 0.0580845 8.47442e-08)
(1.75092 0.000709341 2.37395e-09)
(1.70259 0.00351352 3.64776e-08)
(1.47713 0.0135256 1.78087e-07)
(0.528493 0.0483675 5.88181e-07)
(-0.164065 0.119956 2.96337e-07)
(-0.0324557 0.0783798 -4.81725e-07)
(0.370929 0.0663155 6.37558e-08)
(0.0765296 0.0835939 8.98223e-08)
(0.0198773 0.0882202 6.53793e-08)
(0.153101 0.0698799 -2.76768e-08)
(0.146553 0.0734605 -9.81449e-09)
(0.134689 0.0696361 3.41046e-08)
(0.158433 0.068652 4.23687e-08)
(0.178649 0.0701123 -5.14475e-09)
(0.196238 0.0715593 -4.86747e-08)
(0.204619 0.0734495 -7.40142e-08)
(0.203381 0.0748856 -7.36905e-08)
(0.191969 0.0772507 -7.60243e-08)
(0.170873 0.080691 -7.26488e-08)
(0.139074 0.0850118 -6.27819e-08)
(0.104538 0.0894654 -5.25794e-08)
(0.0635445 0.0935277 -4.06586e-08)
(0.0313309 0.0972972 -2.42635e-09)
(-0.00896356 0.101287 7.20791e-08)
(0.0101046 0.10171 8.96049e-08)
(1.74957 0.00108123 3.37883e-09)
(1.70807 0.00489426 3.63624e-08)
(1.49981 0.018132 1.73536e-07)
(0.580497 0.0639801 5.73428e-07)
(-0.141845 0.167796 3.24813e-07)
(-0.0609198 0.113103 -4.1714e-07)
(0.381209 0.091068 6.66102e-08)
(0.088744 0.117241 8.55187e-08)
(0.0230249 0.124965 -2.81656e-08)
(0.153471 0.0988523 -4.59209e-08)
(0.153931 0.101754 -4.29665e-08)
(0.138675 0.0974204 4.34127e-08)
(0.162906 0.0959148 8.35152e-08)
(0.182956 0.0975047 7.31521e-08)
(0.200985 0.0999469 -1.4859e-08)
(0.209708 0.102758 -4.79845e-08)
(0.208965 0.105115 -7.23429e-08)
(0.19822 0.108495 -8.64434e-08)
(0.177618 0.113582 -9.03249e-08)
(0.145948 0.119926 -7.70849e-08)
(0.110775 0.126617 -5.7113e-08)
(0.0692572 0.132568 -3.89202e-08)
(0.0366221 0.13898 7.39675e-09)
(-0.00507886 0.145555 8.434e-08)
(0.0111871 0.146376 1.0399e-07)
(1.74838 0.00150928 4.96885e-09)
(1.71522 0.00618476 3.53541e-08)
(1.52748 0.0217893 1.6297e-07)
(0.652545 0.0755893 5.3617e-07)
(-0.112051 0.212028 4.12631e-07)
(-0.0963626 0.1516 -3.82282e-07)
(0.391956 0.114448 4.78924e-08)
(0.105505 0.148539 7.00026e-08)
(0.0280039 0.160761 -1.06093e-07)
(0.1521 0.129164 2.91877e-08)
(0.162453 0.129044 -1.26554e-07)
(0.143934 0.125088 1.59861e-08)
(0.168101 0.123218 1.00426e-07)
(0.187705 0.124758 9.51482e-08)
(0.206284 0.128103 2.69191e-08)
(0.215707 0.131584 -1.18258e-08)
(0.215937 0.135191 -7.40267e-08)
(0.206113 0.139394 -9.77977e-08)
(0.186427 0.146091 -1.0737e-07)
(0.15522 0.154671 -9.00579e-08)
(0.119383 0.163836 -6.02128e-08)
(0.0775991 0.17244 -3.4944e-08)
(0.0445867 0.182488 2.37269e-08)
(0.000721484 0.19222 9.98953e-08)
(0.0128956 0.193666 1.21659e-07)
(1.74777 0.00196683 7.22386e-09)
(1.72388 0.00736669 3.44739e-08)
(1.55859 0.0245173 1.49683e-07)
(0.745853 0.0834876 4.91417e-07)
(-0.0732363 0.251864 5.12274e-07)
(-0.135431 0.195002 -3.56857e-07)
(0.399657 0.137029 3.78036e-08)
(0.12663 0.177829 6.84585e-08)
(0.0337543 0.196098 -1.53949e-07)
(0.149692 0.161633 5.28138e-08)
(0.171972 0.155756 1.33849e-08)
(0.151104 0.152914 3.93848e-08)
(0.174132 0.150676 8.24687e-08)