/*--------------------------------*- C++ -*----------------------------------*\
| =========                 |                                                 |
| \\      /  F ield         | OpenFOAM: The Open Source CFD Toolbox           |
|  \\    /   O peration     | Version:  4.1                                   |
|   \\  /    A nd           | Web:      www.OpenFOAM.org                      |
|    \\/     M anipulation  |                                                 |
\*---------------------------------------------------------------------------*/
FoamFile
{
    version     2.0;
    format      ascii;
    class       volScalarField;
    location    "5.06";
    object      T;
}
// * * * * * * * * * * * * * * * * * * * * * * * * * * * * * * * * * * * * * //

dimensions      [0 0 0 1 0 0 0];

internalField   nonuniform List<scalar> 
52500
(
0.999995
1.00002
1.00004
1.00015
1.00028
1.00091
1.00168
1.00498
1.01047
1.02698
1.07311
1.1614
1.50617
2.28455
2.6474
2.73268
2.7267
2.72249
2.7373
2.7491
2.76246
2.77061
2.77718
2.78203
2.78517
0.999995
1.00002
1.00004
1.00015
1.00028
1.00089
1.00166
1.00489
1.01034
1.02652
1.07212
1.1586
1.50084
2.27277
2.64403
2.73274
2.72658
2.72215
2.73677
2.74845
2.76152
2.76936
2.77589
2.77974
2.7821
0.999995
1.00002
1.00004
1.00015
1.00027
1.00087
1.00161
1.00478
1.01003
1.02587
1.06984
1.15456
1.48299
2.24242
2.6341
2.73105
2.7247
2.71971
2.73444
2.74586
2.75917
2.76618
2.77271
2.77733
2.77858
0.999995
1.00002
1.00004
1.00014
1.00026
1.00083
1.00155
1.0046
1.00957
1.02486
1.06641
1.14835
1.45593
2.19428
2.61822
2.72795
2.72122
2.715
2.72947
2.74125
2.75478
2.76252
2.76761
2.77063
2.77395
0.999995
1.00001
1.00003
1.00013
1.00025
1.0008
1.00147
1.00447
1.00895
1.02399
1.06107
1.14008
1.41822
2.12515
2.59548
2.72301
2.71659
2.70745
2.72271
2.73161
2.74562
2.75323
2.76111
2.76481
2.76424
0.999995
1.00001
1.00003
1.00012
1.00023
1.00075
1.00137
1.00428
1.00821
1.02308
1.05435
1.13005
1.37316
2.03602
2.56442
2.71532
2.7087
2.69894
2.71511
2.72519
2.7355
2.74388
2.74812
2.75077
2.7546
0.999995
1.00001
1.00003
1.00011
1.00021
1.00069
1.00125
1.00391
1.00747
1.02129
1.04818
1.11936
1.32693
1.93508
2.52079
2.70054
2.6916
2.68111
2.69761
2.71112
2.72324
2.7288
2.73626
2.73854
2.73516
0.999995
1.00001
1.00003
1.0001
1.00019
1.00062
1.00114
1.00355
1.00675
1.01943
1.04314
1.10886
1.29055
1.84458
2.49033
2.6897
2.68188
2.66992
2.68417
2.69321
2.70651
2.71068
2.71175
2.71146
2.71163
0.999995
1.00001
1.00002
1.00009
1.00017
1.00056
1.00101
1.00319
1.00603
1.01741
1.0389
1.09582
1.26439
1.72885
2.45977
2.67747
2.65975
2.66126
2.67039
2.67533
2.68554
2.68979
2.69072
2.68452
2.65991
0.999994
1.00001
1.00002
1.00007
1.00014
1.00045
1.00086
1.00245
1.00538
1.01335
1.03633
1.07995
1.2456
1.61284
2.37633
2.64802
2.65532
2.65352
2.65437
2.66106
2.66092
2.65897
2.64991
2.62966
2.58203
1
1.00003
1.00005
1.00016
1.00029
1.00091
1.00169
1.00499
1.01048
1.027
1.07313
1.16144
1.50621
2.28468
2.64748
2.73275
2.72677
2.72256
2.73737
2.74918
2.76254
2.77069
2.77726
2.78211
2.78525
1
1.00002
1.00005
1.00016
1.00028
1.0009
1.00167
1.0049
1.01035
1.02653
1.07214
1.15864
1.50088
2.27291
2.64411
2.73281
2.72665
2.72223
2.73684
2.74852
2.7616
2.76943
2.77597
2.77982
2.78218
1
1.00002
1.00005
1.00015
1.00028
1.00088
1.00162
1.00479
1.01004
1.02589
1.06986
1.1546
1.48303
2.24255
2.63418
2.73112
2.72477
2.71979
2.73452
2.74593
2.75925
2.76625
2.77279
2.77741
2.77866
1
1.00002
1.00004
1.00015
1.00027
1.00084
1.00156
1.00461
1.00958
1.02488
1.06642
1.14839
1.45598
2.19442
2.61829
2.72802
2.72129
2.71507
2.72954
2.74132
2.75485
2.7626
2.76769
2.7707
2.77403
1
1.00002
1.00004
1.00014
1.00025
1.00081
1.00147
1.00448
1.00896
1.02402
1.06107
1.14012
1.41822
2.12525
2.59555
2.72308
2.71666
2.70751
2.72278
2.73168
2.74569
2.7533
2.76119
2.76489
2.76431
1
1.00002
1.00004
1.00013
1.00024
1.00076
1.00138
1.00429
1.00822
1.0231
1.05436
1.13008
1.37318
2.03613
2.56448
2.71539
2.70877
2.69901
2.71518
2.72526
2.73558
2.74395
2.74819
2.75084
2.75468
1
1.00002
1.00004
1.00012
1.00022
1.0007
1.00126
1.00392
1.00748
1.0213
1.04819
1.11939
1.32696
1.93519
2.52087
2.70061
2.69168
2.68118
2.69768
2.71118
2.72331
2.72887
2.73633
2.73861
2.73523
1
1.00002
1.00003
1.00011
1.0002
1.00063
1.00114
1.00356
1.00676
1.01945
1.04315
1.10889
1.29056
1.84469
2.49035
2.68977
2.68194
2.66999
2.68424
2.69329
2.70658
2.71075
2.71182
2.71153
2.7117
1
1.00002
1.00003
1.0001
1.00018
1.00057
1.00102
1.0032
1.00604
1.01743
1.03891
1.09585
1.26439
1.72897
2.45982
2.67753
2.65981
2.66132
2.67045
2.6754
2.68561
2.68986
2.69078
2.68458
2.65997
1
1.00001
1.00002
1.00008
1.00015
1.00046
1.00087
1.00246
1.00538
1.01337
1.03634
1.07997
1.24561
1.61291
2.37641
2.64809
2.65537
2.65357
2.65442
2.66112
2.66098
2.65903
2.64997
2.62972
2.58208
1
1.00003
1.00005
1.00016
1.00029
1.00091
1.00169
1.00499
1.01048
1.027
1.07313
1.16144
1.50622
2.28469
2.64748
2.73275
2.72677
2.72256
2.73737
2.74918
2.76254
2.77069
2.77726
2.78211
2.78525
1
1.00002
1.00005
1.00016
1.00028
1.0009
1.00167
1.0049
1.01035
1.02653
1.07214
1.15864
1.50088
2.27291
2.64411
2.73281
2.72665
2.72223
2.73684
2.74852
2.7616
2.76943
2.77597
2.77982
2.78218
1
1.00002
1.00005
1.00015
1.00028
1.00088
1.00162
1.00479
1.01004
1.02589
1.06986
1.1546
1.48304
2.24256
2.63418
2.73112
2.72477
2.71979
2.73452
2.74593
2.75925
2.76625
2.77279
2.77741
2.77866
1
1.00002
1.00004
1.00015
1.00027
1.00084
1.00156
1.00461
1.00958
1.02488
1.06643
1.14839
1.45598
2.19443
2.6183
2.72802
2.72129
2.71507
2.72954
2.74132
2.75485
2.7626
2.76769
2.7707
2.77403
1
1.00002
1.00004
1.00014
1.00025
1.00081
1.00147
1.00448
1.00896
1.02402
1.06107
1.14012
1.41823
2.12526
2.59555
2.72308
2.71666
2.70752
2.72278
2.73168
2.74569
2.7533
2.76119
2.76489
2.76431
1
1.00002
1.00004
1.00013
1.00024
1.00076
1.00138
1.00429
1.00822
1.0231
1.05436
1.13008
1.37318
2.03614
2.56449
2.71539
2.70877
2.69901
2.71518
2.72526
2.73558
2.74395
2.74819
2.75084
2.75468
1
1.00002
1.00004
1.00012
1.00022
1.0007
1.00126
1.00392
1.00748
1.0213
1.04819
1.11939
1.32696
1.9352
2.52087
2.70062
2.69168
2.68118
2.69768
2.71118
2.72331
2.72887
2.73633
2.73861
2.73523
1
1.00002
1.00003
1.00011
1.0002
1.00063
1.00114
1.00356
1.00676
1.01945
1.04315
1.10889
1.29057
1.84469
2.49035
2.68977
2.68194
2.66999
2.68424
2.69329
2.70658
2.71075
2.71182
2.71153
2.7117
1
1.00002
1.00003
1.0001
1.00018
1.00057
1.00102
1.0032
1.00604
1.01743
1.03891
1.09585
1.26439
1.72898
2.45982
2.67753
2.65981
2.66132
2.67045
2.6754
2.68561
2.68986
2.69078
2.68458
2.65997
1
1.00001
1.00002
1.00008
1.00015
1.00046
1.00087
1.00246
1.00538
1.01337
1.03634
1.07997
1.24561
1.61291
2.37641
2.64809
2.65537
2.65357
2.65442
2.66112
2.66098
2.65903
2.64997
2.62972
2.58208
1
1.00003
1.00005
1.00016
1.00029
1.00091
1.00169
1.00499
1.01048
1.027
1.07313
1.16144
1.50621
2.28469
2.64748
2.73275
2.72677
2.72256
2.73737
2.74918
2.76254
2.77069
2.77726
2.78211
2.78525
1
1.00002
1.00005
1.00016
1.00028
1.0009
1.00167
1.0049
1.01035
1.02653
1.07214
1.15864
1.50088
2.27291
2.64411
2.73281
2.72665
2.72223
2.73684
2.74852
2.7616
2.76943
2.77597
2.77982
2.78218
1
1.00002
1.00005
1.00015
1.00028
1.00088
1.00162
1.00479
1.01004
1.02589
1.06986
1.1546
1.48304
2.24256
2.63418
2.73112
2.72477
2.71979
2.73452
2.74593
2.75925
2.76625
2.77279
2.77741
2.77866
1
1.00002
1.00004
1.00015
1.00027
1.00084
1.00156
1.00461
1.00958
1.02488
1.06643
1.14839
1.45598
2.19443
2.6183
2.72802
2.72129
2.71507
2.72954
2.74132
2.75485
2.7626
2.76769
2.7707
2.77403
1
1.00002
1.00004
1.00014
1.00025
1.00081
1.00147
1.00448
1.00896
1.02402
1.06107
1.14012
1.41823
2.12526
2.59555
2.72308
2.71666
2.70752
2.72278
2.73168
2.74569
2.7533
2.76119
2.76489
2.76431
1
1.00002
1.00004
1.00013
1.00024
1.00076
1.00138
1.00429
1.00822
1.0231
1.05436
1.13008
1.37318
2.03614
2.56449
2.71539
2.70877
2.69901
2.71518
2.72526
2.73558
2.74395
2.74819
2.75084
2.75468
1
1.00002
1.00004
1.00012
1.00022
1.0007
1.00126
1.00392
1.00748
1.0213
1.04819
1.11939
1.32696
1.9352
2.52087
2.70062
2.69168
2.68118
2.69768
2.71118
2.72331
2.72887
2.73633
2.73861
2.73523
1
1.00002
1.00003
1.00011
1.0002
1.00063
1.00114
1.00356
1.00676
1.01945
1.04315
1.10889
1.29057
1.84469
2.49035
2.68977
2.68194
2.66999
2.68424
2.69329
2.70658
2.71075
2.71182
2.71153
2.7117
1
1.00002
1.00003
1.0001
1.00018
1.00057
1.00102
1.0032
1.00604
1.01743
1.03891
1.09585
1.26439
1.72898
2.45982
2.67753
2.65981
2.66132
2.67045
2.6754
2.68561
2.68986
2.69078
2.68458
2.65997
1
1.00001
1.00002
1.00008
1.00015
1.00046
1.00087
1.00246
1.00538
1.01337
1.03634
1.07997
1.24561
1.61291
2.37641
2.64809
2.65537
2.65357
2.65442
2.66112
2.66098
2.65903
2.64997
2.62972
2.58208
1
1.00003
1.00005
1.00016
1.00029
1.00091
1.00169
1.00499
1.01048
1.027
1.07313
1.16144
1.50622
2.28469
2.64748
2.73275
2.72677
2.72256
2.73737
2.74918
2.76254
2.77069
2.77726
2.78211
2.78525
1
1.00002
1.00005
1.00016
1.00028
1.0009
1.00167
1.0049
1.01035
1.02653
1.07214
1.15864
1.50088
2.27291
2.64411
2.73281
2.72665
2.72223
2.73684
2.74852
2.7616
2.76943
2.77597
2.77982
2.78218
1
1.00002
1.00005
1.00015
1.00028
1.00088
1.00162
1.00479
1.01004
1.02589
1.06986
1.1546
1.48304
2.24256
2.63418
2.73112
2.72477
2.71979
2.73452
2.74593
2.75925
2.76625
2.77279
2.77741
2.77866
1
1.00002
1.00004
1.00015
1.00027
1.00084
1.00156
1.00461
1.00958
1.02488
1.06643
1.14839
1.45598
2.19443
2.6183
2.72802
2.72129
2.71507
2.72954
2.74132
2.75485
2.7626
2.76769
2.7707
2.77403
1
1.00002
1.00004
1.00014
1.00025
1.00081
1.00147
1.00448
1.00896
1.02402
1.06107
1.14012
1.41823
2.12526
2.59555
2.72308
2.71666
2.70752
2.72278
2.73168
2.74569
2.7533
2.76119
2.76489
2.76431
1
1.00002
1.00004
1.00013
1.00024
1.00076
1.00138
1.00429
1.00822
1.0231
1.05436
1.13008
1.37318
2.03614
2.56449
2.71539
2.70877
2.69901
2.71518
2.72526
2.73558
2.74395
2.74819
2.75084
2.75468
1
1.00002
1.00004
1.00012
1.00022
1.0007
1.00126
1.00392
1.00748
1.0213
1.04819
1.11939
1.32696
1.9352
2.52087
2.70062
2.69168
2.68118
2.69768
2.71118
2.72331
2.72887
2.73633
2.73861
2.73523
1
1.00002
1.00003
1.00011
1.0002
1.00063
1.00114
1.00356
1.00676
1.01945
1.04315
1.10889
1.29057
1.84469
2.49035
2.68977
2.68194
2.66999
2.68424
2.69329
2.70658
2.71075
2.71182
2.71153
2.7117
1
1.00002
1.00003
1.0001
1.00018
1.00057
1.00102
1.0032
1.00604
1.01743
1.03891
1.09585
1.26439
1.72898
2.45982
2.67753
2.65981
2.66132
2.67045
2.6754
2.68561
2.68986
2.69078
2.68458
2.65997
1
1.00001
1.00002
1.00008
1.00015
1.00046
1.00087
1.00246
1.00538
1.01337
1.03634
1.07997
1.24561
1.61292
2.37641
2.64809
2.65537
2.65357
2.65442
2.66112
2.66098
2.65903
2.64997
2.62972
2.58208
1
1.00003
1.00005
1.00016
1.00029
1.00091
1.00169
1.00499
1.01048
1.027
1.07313
1.16144
1.50622
2.28469
2.64748
2.73275
2.72677
2.72256
2.73737
2.74918
2.76254
2.77069
2.77726
2.78211
2.78525
1
1.00002
1.00005
1.00016
1.00028
1.0009
1.00167
1.0049
1.01035
1.02653
1.07214
1.15864
1.50088
2.27291
2.64411
2.73281
2.72665
2.72223
2.73684
2.74852
2.7616
2.76943
2.77597
2.77982
2.78218
1
1.00002
1.00005
1.00015
1.00028
1.00088
1.00162
1.00479
1.01004
1.02589
1.06986
1.1546
1.48304
2.24256
2.63418
2.73112
2.72477
2.71979
2.73452
2.74593
2.75925
2.76625
2.77279
2.77741
2.77866
1
1.00002
1.00004
1.00015
1.00027
1.00084
1.00156
1.00461
1.00958
1.02488
1.06643
1.14839
1.45598
2.19443
2.6183
2.72802
2.72129
2.71507
2.72954
2.74132
2.75485
2.7626
2.76769
2.7707
2.77403
1
1.00002
1.00004
1.00014
1.00025
1.00081
1.00147
1.00448
1.00896
1.02402
1.06107
1.14012
1.41823
2.12526
2.59555
2.72308
2.71666
2.70752
2.72278
2.73168
2.74569
2.7533
2.76119
2.76489
2.76431
1
1.00002
1.00004
1.00013
1.00024
1.00076
1.00138
1.00429
1.00822
1.0231
1.05436
1.13008
1.37318
2.03614
2.56449
2.71539
2.70877
2.69901
2.71518
2.72526
2.73558
2.74395
2.74819
2.75084
2.75468
1
1.00002
1.00004
1.00012
1.00022
1.0007
1.00126
1.00392
1.00748
1.0213
1.04819
1.11939
1.32696
1.9352
2.52087
2.70062
2.69168
2.68118
2.69768
2.71118
2.72331
2.72887
2.73633
2.73861
2.73523
1
1.00002
1.00003
1.00011
1.0002
1.00063
1.00114
1.00356
1.00676
1.01945
1.04315
1.10889
1.29057
1.84469
2.49035
2.68977
2.68194
2.66999
2.68424
2.69329
2.70658
2.71075
2.71182
2.71153
2.7117
1
1.00002
1.00003
1.0001
1.00018
1.00057
1.00102
1.0032
1.00604
1.01743
1.03891
1.09585
1.26439
1.72898
2.45982
2.67753
2.65981
2.66132
2.67045
2.6754
2.68561
2.68986
2.69078
2.68458
2.65997
1
1.00001
1.00002
1.00008
1.00015
1.00046
1.00087
1.00246
1.00538
1.01337
1.03634
1.07997
1.24561
1.61292
2.37641
2.64809
2.65537
2.65357
2.65442
2.66112
2.66098
2.65903
2.64997
2.62972
2.58208
1
1.00003
1.00005
1.00016
1.00029
1.00091
1.00169
1.00499
1.01048
1.027
1.07313
1.16144
1.50622
2.28469
2.64748
2.73275
2.72677
2.72256
2.73737
2.74918
2.76254
2.77069
2.77726
2.78211
2.78525
1
1.00002
1.00005
1.00016
1.00028
1.0009
1.00167
1.0049
1.01035
1.02653
1.07214
1.15864
1.50088
2.27291
2.64411
2.73281
2.72665
2.72223
2.73684
2.74852
2.7616
2.76943
2.77597
2.77982
2.78218
1
1.00002
1.00005
1.00015
1.00028
1.00088
1.00162
1.00479
1.01004
1.02589
1.06986
1.1546
1.48304
2.24256
2.63418
2.73112
2.72477
2.71979
2.73452
2.74593
2.75925
2.76625
2.77279
2.77741
2.77866
1
1.00002
1.00004
1.00015
1.00027
1.00084
1.00156
1.00461
1.00958
1.02488
1.06643
1.14839
1.45598
2.19443
2.6183
2.72802
2.72129
2.71507
2.72954
2.74132
2.75485
2.7626
2.76769
2.7707
2.77403
1
1.00002
1.00004
1.00014
1.00025
1.00081
1.00147
1.00448
1.00896
1.02402
1.06107
1.14012
1.41823
2.12526
2.59555
2.72308
2.71666
2.70752
2.72278
2.73168
2.74569
2.7533
2.76119
2.76489
2.76431
1
1.00002
1.00004
1.00013
1.00024
1.00076
1.00138
1.00429
1.00822
1.0231
1.05436
1.13008
1.37318
2.03614
2.56449
2.71539
2.70877
2.69901
2.71518
2.72526
2.73558
2.74395
2.74819
2.75084
2.75468
1
1.00002
1.00004
1.00012
1.00022
1.0007
1.00126
1.00392
1.00748
1.0213
1.04819
1.11939
1.32696
1.9352
2.52087
2.70062
2.69168
2.68118
2.69768
2.71118
2.72331
2.72887
2.73633
2.73861
2.73523
1
1.00002
1.00003
1.00011
1.0002
1.00063
1.00114
1.00356
1.00676
1.01945
1.04315
1.10889
1.29057
1.84469
2.49035
2.68977
2.68194
2.66999
2.68424
2.69329
2.70658
2.71075
2.71182
2.71153
2.7117
1
1.00002
1.00003
1.0001
1.00018
1.00057
1.00102
1.0032
1.00604
1.01743
1.03891
1.09585
1.26439
1.72898
2.45982
2.67753
2.65981
2.66132
2.67045
2.6754
2.68561
2.68986
2.69078
2.68458
2.65997
1
1.00001
1.00002
1.00008
1.00015
1.00046
1.00087
1.00246
1.00538
1.01337
1.03634
1.07997
1.24561
1.61292
2.37641
2.64809
2.65537
2.65357
2.65442
2.66112
2.66098
2.65903
2.64997
2.62972
2.58208
1
1.00003
1.00005
1.00016
1.00029
1.00091
1.00169
1.00499
1.01048
1.027
1.07313
1.16144
1.50622
2.28469
2.64748
2.73275
2.72677
2.72256
2.73737
2.74918
2.76254
2.77069
2.77726
2.78211
2.78525
1
1.00002
1.00005
1.00016
1.00028
1.0009
1.00167
1.0049
1.01035
1.02653
1.07214
1.15864
1.50088
2.27291
2.64411
2.73281
2.72665
2.72223
2.73684
2.74852
2.7616
2.76943
2.77597
2.77982
2.78218
1
1.00002
1.00005
1.00015
1.00028
1.00088
1.00162
1.00479
1.01004
1.02589
1.06986
1.1546
1.48304
2.24256
2.63418
2.73112
2.72477
2.71979
2.73452
2.74593
2.75925
2.76625
2.77279
2.77741
2.77866
1
1.00002
1.00004
1.00015
1.00027
1.00084
1.00156
1.00461
1.00958
1.02488
1.06643
1.14839
1.45598
2.19443
2.6183
2.72802
2.72129
2.71507
2.72954
2.74132
2.75485
2.7626
2.76769
2.7707
2.77403
1
1.00002
1.00004
1.00014
1.00025
1.00081
1.00147
1.00448
1.00896
1.02402
1.06107
1.14012
1.41823
2.12526
2.59555
2.72308
2.71666
2.70752
2.72278
2.73168
2.74569
2.7533
2.76119
2.76489
2.76431
1
1.00002
1.00004
1.00013
1.00024
1.00076
1.00138
1.00429
1.00822
1.0231
1.05436
1.13008
1.37318
2.03614
2.56449
2.71539
2.70877
2.69901
2.71518
2.72526
2.73558
2.74395
2.74819
2.75084
2.75468
1
1.00002
1.00004
1.00012
1.00022
1.0007
1.00126
1.00392
1.00748
1.0213
1.04819
1.11939
1.32696
1.9352
2.52087
2.70062
2.69168
2.68118
2.69768
2.71118
2.72331
2.72887
2.73633
2.73861
2.73523
1
1.00002
1.00003
1.00011
1.0002
1.00063
1.00114
1.00356
1.00676
1.01945
1.04315
1.10889
1.29057
1.84469
2.49035
2.68977
2.68194
2.66999
2.68424
2.69329
2.70658
2.71075
2.71182
2.71153
2.7117
1
1.00002
1.00003
1.0001
1.00018
1.00057
1.00102
1.0032
1.00604
1.01743
1.03891
1.09585
1.26439
1.72898
2.45982
2.67753
2.65981
2.66132
2.67045
2.6754
2.68561
2.68986
2.69078
2.68458
2.65997
1
1.00001
1.00002
1.00008
1.00015
1.00046
1.00087
1.00246
1.00538
1.01337
1.03634
1.07997
1.24561
1.61291
2.37641
2.64809
2.65537
2.65357
2.65442
2.66112
2.66098
2.65903
2.64997
2.62972
2.58208
1
1.00003
1.00005
1.00016
1.00029
1.00091
1.00169
1.00499
1.01048
1.027
1.07313
1.16144
1.50621
2.28468
2.64748
2.73275
2.72677
2.72256
2.73737
2.74918
2.76254
2.77069
2.77726
2.78211
2.78525
1
1.00002
1.00005
1.00016
1.00028
1.0009
1.00167
1.0049
1.01035
1.02653
1.07214
1.15864
1.50088
2.27291
2.64411
2.73281
2.72665
2.72223
2.73684
2.74852
2.7616
2.76943
2.77597
2.77982
2.78218
1
1.00002
1.00005
1.00015
1.00028
1.00088
1.00162
1.00479
1.01004
1.02589
1.06986
1.1546
1.48303
2.24255
2.63418
2.73112
2.72477
2.71979
2.73452
2.74593
2.75925
2.76625
2.77279
2.77741
2.77866
1
1.00002
1.00004
1.00015
1.00027
1.00084
1.00156
1.00461
1.00958
1.02488
1.06642
1.14839
1.45598
2.19442
2.61829
2.72802
2.72129
2.71507
2.72954
2.74132
2.75485
2.7626
2.76769
2.7707
2.77403
1
1.00002
1.00004
1.00014
1.00025
1.00081
1.00147
1.00448
1.00896
1.02402
1.06107
1.14012
1.41822
2.12525
2.59555
2.72308
2.71666
2.70751
2.72278
2.73168
2.74569
2.7533
2.76119
2.76489
2.76431
1
1.00002
1.00004
1.00013
1.00024
1.00076
1.00138
1.00429
1.00822
1.0231
1.05436
1.13008
1.37318
2.03613
2.56448
2.71539
2.70877
2.69901
2.71518
2.72526
2.73558
2.74395
2.74819
2.75084
2.75468
1
1.00002
1.00004
1.00012
1.00022
1.0007
1.00126
1.00392
1.00748
1.0213
1.04819
1.11939
1.32696
1.93519
2.52087
2.70061
2.69168
2.68118
2.69768
2.71118
2.72331
2.72887
2.73633
2.73861
2.73523
1
1.00002
1.00003
1.00011
1.0002
1.00063
1.00114
1.00356
1.00676
1.01945
1.04315
1.10889
1.29056
1.84469
2.49035
2.68977
2.68194
2.66999
2.68424
2.69329
2.70658
2.71075
2.71182
2.71153
2.7117
1
1.00002
1.00003
1.0001
1.00018
1.00057
1.00102
1.0032
1.00604
1.01743
1.03891
1.09585
1.26439
1.72897
2.45982
2.67753
2.65981
2.66132
2.67045
2.6754
2.68561
2.68986
2.69078
2.68458
2.65997
1
1.00001
1.00002
1.00008
1.00015
1.00046
1.00087
1.00246
1.00538
1.01337
1.03634
1.07997
1.24561
1.61291
2.37641
2.64809
2.65537
2.65357
2.65442
2.66112
2.66098
2.65903
2.64997
2.62972
2.58208
0.999995
1.00002
1.00004
1.00015
1.00028
1.00091
1.00168
1.00498
1.01047
1.02698
1.07311
1.1614
1.50617
2.28455
2.6474
2.73268
2.7267
2.72249
2.7373
2.7491
2.76246
2.77061
2.77718
2.78203
2.78517
0.999995
1.00002
1.00004
1.00015
1.00028
1.00089
1.00166
1.00489
1.01034
1.02652
1.07212
1.1586
1.50084
2.27277
2.64403
2.73274
2.72658
2.72215
2.73677
2.74845
2.76152
2.76936
2.77589
2.77974
2.7821
0.999995
1.00002
1.00004
1.00015
1.00027
1.00087
1.00161
1.00478
1.01003
1.02587
1.06984
1.15456
1.48299
2.24242
2.6341
2.73105
2.7247
2.71971
2.73444
2.74586
2.75917
2.76618
2.77271
2.77733
2.77858
0.999995
1.00002
1.00004
1.00014
1.00026
1.00083
1.00155
1.0046
1.00957
1.02486
1.06641
1.14835
1.45593
2.19428
2.61822
2.72795
2.72122
2.715
2.72947
2.74125
2.75478
2.76252
2.76761
2.77063
2.77395
0.999995
1.00001
1.00003
1.00013
1.00025
1.0008
1.00147
1.00447
1.00895
1.02399
1.06107
1.14008
1.41822
2.12515
2.59548
2.72301
2.71659
2.70745
2.72271
2.7316
2.74562
2.75323
2.76111
2.76481
2.76424
0.999995
1.00001
1.00003
1.00012
1.00023
1.00075
1.00137
1.00428
1.00821
1.02308
1.05435
1.13005
1.37315
2.03602
2.56442
2.71532
2.7087
2.69894
2.71511
2.72519
2.7355
2.74388
2.74812
2.75077
2.7546
0.999995
1.00001
1.00003
1.00011
1.00021
1.00069
1.00125
1.00391
1.00747
1.02129
1.04818
1.11936
1.32693
1.93508
2.52079
2.70054
2.6916
2.68111
2.69761
2.71112
2.72324
2.7288
2.73626
2.73854
2.73516
0.999995
1.00001
1.00003
1.0001
1.00019
1.00062
1.00114
1.00355
1.00675
1.01943
1.04314
1.10886
1.29055
1.84458
2.49033
2.6897
2.68188
2.66992
2.68417
2.69321
2.70651
2.71068
2.71175
2.71146
2.71163
0.999995
1.00001
1.00002
1.00009
1.00017
1.00056
1.00101
1.00319
1.00603
1.01741
1.0389
1.09582
1.26439
1.72885
2.45977
2.67747
2.65975
2.66126
2.67039
2.67533
2.68554
2.68979
2.69072
2.68452
2.65991
0.999994
1.00001
1.00002
1.00007
1.00014
1.00045
1.00086
1.00245
1.00538
1.01335
1.03633
1.07995
1.2456
1.61284
2.37633
2.64802
2.65532
2.65352
2.65437
2.66106
2.66092
2.65897
2.64991
2.62966
2.58203
0.999996
1
1.00002
1.00005
1.00017
1.00032
1.00099
1.00191
1.00543
1.01194
1.02997
1.08279
1.18235
1.55767
2.35107
2.58962
2.64135
2.63645
2.63582
2.64092
2.64048
2.63313
2.61199
2.56057
2.37695
0.999996
1
1.00002
1.00004
1.00015
1.00027
1.00087
1.00162
1.00478
1.01006
1.02586
1.06984
1.15426
1.48014
2.22646
2.54619
2.6358
2.62748
2.61513
2.613
2.6084
2.59354
2.56062
2.49961
2.31318
0.999995
0.999999
1.00002
1.00003
1.00013
1.00023
1.00076
1.00139
1.00432
1.00836
1.02308
1.05587
1.13122
1.38112
2.03632
2.4709
2.62192
2.61456
2.60307
2.59312
2.58483
2.56629
2.52305
2.46417
2.30784
0.999995
0.999998
1.00001
1.00003
1.0001
1.00019
1.00063
1.00115
1.00358
1.00678
1.01957
1.04281
1.10938
1.2835
1.82963
2.37003
2.58563
2.58055
2.57655
2.56342
2.54867
2.52584
2.48579
2.43982
2.32119
0.999995
0.999997
1.00001
1.00002
1.00008
1.00016
1.0005
1.00093
1.00286
1.00553
1.01557
1.03535
1.08627
1.23594
1.64916
2.29895
2.55239
2.55865
2.55737
2.54935
2.53017
2.50446
2.44692
2.40778
2.32362
0.999994
0.999997
1
1.00002
1.00005
1.00016
1.0003
1.00093
1.0018
1.00501
1.01122
1.02752
1.07702
1.16586
1.52135
2.24015
2.47288
2.52523
2.51811
2.51537
2.50526
2.48676
2.43931
2.38509
2.31953
0.999994
0.999996
0.999999
1.00002
1.00004
1.00013
1.00024
1.00078
1.00144
1.00437
1.0087
1.0233
1.05877
1.13435
1.39634
2.04677
2.4115
2.51424
2.50497
2.49518
2.47296
2.45348
2.42117
2.37348
2.31519
0.999993
0.999995
0.999998
1.00001
1.00003
1.0001
1.00019
1.0006
1.00112
1.00344
1.00661
1.0188
1.04172
1.10604
1.2735
1.81044
2.26882
2.47657
2.47818
2.4728
2.45816
2.43253
2.39913
2.35428
2.30351
0.999993
0.999994
0.999997
1
1.00002
1.00005
1.00018
1.00034
1.00107
1.00202
1.00582
1.01237
1.03164
1.08432
1.18946
1.5444
2.22435
2.42353
2.445
2.4377
2.42777
2.41016
2.38578
2.34667
2.29949
0.999992
0.999993
0.999996
0.999999
1.00002
1.00004
1.00014
1.00025
1.0008
1.00151
1.00434
1.00928
1.02349
1.06311
1.13943
1.42109
2.07097
2.35878
2.42619
2.41921
2.40229
2.37762
2.35444
2.32811
2.28979
0.999992
0.999993
0.999994
0.999999
1.00001
1.00003
1.00007
1.00023
1.00044
1.00129
1.0027
1.00691
1.01748
1.04007
1.11588
1.25853
1.73752
2.21745
2.39727
2.39859
2.38914
2.36806
2.33878
2.30904
2.27932
0.999992
0.999992
0.999993
0.999997
1
1.00002
1.00005
1.00017
1.00032
1.00103
1.00191
1.00563
1.01158
1.03019
1.0786
1.1764
1.50453
2.1303
2.33732
2.36596
2.36011
2.34593
2.32013
2.28965
2.25703
0.999991
0.999992
0.999993
0.999994
1
1.00001
1.00004
1.00009
1.00028
1.00055
1.00154
1.00335
1.00832
1.02196
1.04923
1.14497
1.32395
1.88292
2.24596
2.34451
2.34262
2.33238
2.3113
2.28228
2.2484
0.999991
0.999991
0.999992
0.999993
0.999998
1
1.00003
1.00006
1.00021
1.00039
1.00123
1.00228
1.00683
1.01361
1.03633
1.08633
1.21773
1.53041
2.12053
2.29181
2.30621
2.30299
2.28967
2.26615
2.23793
0.999991
0.999991
0.999991
0.999993
0.999994
1
1.00001
1.00005
1.00011
1.00035
1.00065
1.00196
1.0038
1.01043
1.02378
1.05716
1.15596
1.37706
1.90483
2.22625
2.28745
2.28559
2.27311
2.25263
2.22597
0.999991
0.999991
0.999991
0.999992
0.999993
0.999999
1
1.00003
1.00007
1.00024
1.00044
1.00136
1.00254
1.00734
1.01537
1.03901
1.1016
1.23412
1.60928
2.06909
2.24585
2.25616
2.25067
2.23566
2.21149
0.999991
0.999991
0.999991
0.999991
0.999993
0.999995
1
1.00001
1.00006
1.00012
1.00038
1.00071
1.00213
1.00414
1.01155
1.02522
1.06307
1.15747
1.42306
1.90049
2.17662
2.23088
2.22947
2.21694
2.19744
0.999991
0.999991
0.999991
0.999991
0.999992
0.999993
0.999999
1.00001
1.00004
1.00008
1.00025
1.00046
1.00143
1.00267
1.00771
1.01605
1.04081
1.10465
1.24479
1.62219
2.03041
2.1878
2.20469
2.19987
2.18676
0.999991
0.999991
0.999991
0.999991
0.999991
0.999993
0.999995
1
1.00001
1.00006
1.00012
1.00038
1.00073
1.00215
1.00424
1.01172
1.0251
1.06589
1.1515
1.44977
1.84885
2.10347
2.16454
2.17155
2.16637
0.999991
0.999991
0.999991
0.999991
0.999991
0.999992
0.999994
0.999997
1.00001
1.00003
1.0001
1.00019
1.00059
1.0011
1.00326
1.00638
1.01731
1.03929
1.09412
1.24451
1.64986
1.98433
2.1231
2.14093
2.139
0.999991
0.999991
0.999991
0.999991
0.999991
0.999991
0.999993
0.999995
1
1.00001
1.00006
1.00012
1.00038
1.00069
1.00211
1.00398
1.01136
1.02339
1.06161
1.14157
1.39941
1.79789
2.05249
2.11026
2.11725
0.999991
0.999991
0.999991
0.999991
0.999991
0.999991
0.999992
0.999994
0.999997
1.00001
1.00002
1.00009
1.00017
1.00054
1.00101
1.00296
1.0058
1.01575
1.0349
1.08574
1.21207
1.57759
1.91305
2.07238
2.08583
0.999991
0.999991
0.999991
0.999991
0.999991
0.999991
0.999991
0.999993
0.999994
1
1.00001
1.00005
1.0001
1.00034
1.00062
1.00189
1.00352
1.01001
1.02098
1.05177
1.12878
1.31622
1.74046
2.00132
2.06601
0.999991
0.999991
0.999991
0.999991
0.999991
0.999991
0.999991
0.999992
0.999993
0.999998
1
1.00003
1.00006
1.0002
1.00037
1.00112
1.00207
1.00604
1.01192
1.03117
1.07218
1.17277
1.42888
1.84521
2.01548
0.999991
0.999991
0.999991
0.999991
0.999991
0.999991
0.999991
0.999991
0.999992
0.999995
0.999998
1.00001
1.00003
1.00012
1.00022
1.00068
1.00124
1.00371
1.00716
1.01906
1.04482
1.10196
1.28078
1.6922
1.92171
0.999991
0.999991
0.999991
0.999991
0.999991
0.999991
0.999991
0.999991
0.999992
0.999993
0.999996
1
1.00002
1.00005
1.00016
1.0003
1.00091
1.00172
1.00487
1.01004
1.02551
1.06294
1.14245
1.37574
1.80148
0.999991
0.999991
0.999991
0.999991
0.999991
0.999991
0.999991
0.999991
0.999991
0.999992
0.999993
0.999998
1
1.00003
1.00007
1.00022
1.00042
1.00124
1.00238
1.00656
1.01395
1.03444
1.08727
1.1975
1.50248
0.999991
0.999991
0.999991
0.999991
0.999991
0.999991
0.999991
0.999991
0.999991
0.999991
0.999993
0.999994
1
1.00001
1.00005
1.0001
1.00031
1.00058
1.0017
1.0033
1.00905
1.01918
1.04837
1.11275
1.29957
0.999991
0.999991
0.999991
0.999991
0.999991
0.999991
0.999991
0.999991
0.999991
0.999991
0.999992
0.999993
0.999997
1
1.00002
1.00005
1.00017
1.00032
1.00099
1.00183
1.00529
1.01035
1.02754
1.0609
1.15171
0.999991
0.999991
0.999991
0.999991
0.999991
0.999991
0.999991
0.999991
0.999991
0.999991
0.999991
0.999992
0.999993
0.999999
1.00001
1.00003
1.00007
1.00023
1.00043
1.00127
1.00243
1.00675
1.0139
1.03526
1.082
0.999991
0.999991
0.999991
0.999991
0.999991
0.999991
0.999991
0.999991
0.999991
0.999991
0.999991
0.999991
0.999993
0.999994
1
1.00001
1.00005
1.0001
1.0003
1.00058
1.00167
1.00327
1.0089
1.01853
1.04806
0.999991
0.999991
0.999991
0.999991
0.999991
0.999991
0.999991
0.999991
0.999991
0.999991
0.999991
0.999991
0.999992
0.999993
0.999996
1
1.00002
1.00007
1.00013
1.00041
1.00078
1.00223
1.00435
1.01176
1.02479
0.999991
0.999991
0.999991
0.999991
0.999991
0.999991
0.999991
0.999991
0.999991
0.999991
0.999991
0.999991
0.999991
0.999992
0.999994
0.999999
1.00001
1.00004
1.00008
1.00025
1.00046
1.00136
1.00257
1.00723
1.01457
0.999991
0.999991
0.999991
0.999991
0.999991
0.999991
0.999991
0.999991
0.999991
0.999991
0.999991
0.999991
0.999991
0.999992
0.999993
0.999995
1
1.00002
1.00007
1.00013
1.0004
1.00077
1.00217
1.00459
1.0114
0.999991
0.999991
0.999991
0.999991
0.999991
0.999991
0.999991
0.999991
0.999991
0.999991
0.999991
0.999991
0.999991
0.999991
0.999992
0.999995
0.999999
1.00002
1.00004
1.00014
1.00027
1.00079
1.00167
1.00423
1.01088
0.999991
0.999991
0.999991
0.999991
0.999991
0.999991
0.999991
0.999991
0.999991
0.999991
0.999991
0.999991
0.999991
0.999991
0.999992
0.999994
1
1.00001
1.00004
1.00009
1.00027
1.00062
1.00152
1.0041
1.00916
0.999991
0.999991
0.999991
0.999991
0.999991
0.999991
0.999991
0.999991
0.999991
0.999991
0.999991
0.999991
0.999991
0.999991
0.999992
0.999995
0.999998
1.00001
1.00003
1.00013
1.00024
1.00076
1.00154
1.00415
1.01012
0.999991
0.999991
0.999991
0.999991
0.999991
0.999991
0.999991
0.999991
0.999991
0.999991
0.999991
0.999991
0.999991
0.999991
0.999992
0.999995
0.999998
1.00001
1.00003
1.00012
1.00024
1.00073
1.00152
1.00402
1.0102
0.999991
0.999991
0.999991
0.999991
0.999991
0.999991
0.999991
0.999991
0.999991
0.999991
0.999991
0.999991
0.999991
0.999991
0.999992
0.999994
1
1.00001
1.00004
1.00009
1.00029
1.0006
1.00161
1.00394
1.00935
0.999991
0.999991
0.999991
0.999991
0.999991
0.999991
0.999991
0.999991
0.999991
0.999991
0.999991
0.999991
0.999991
0.999991
0.999992
0.999994
1
1.00001
1.00005
1.00009
1.00032
1.0006
1.00179
1.00383
1.00987
1
1.00001
1.00003
1.00006
1.00018
1.00033
1.001
1.00192
1.00544
1.01195
1.02999
1.08281
1.18239
1.5577
2.35117
2.58969
2.6414
2.63651
2.63587
2.64097
2.64054
2.63319
2.61205
2.56062
2.37699
1
1.00001
1.00003
1.00005
1.00016
1.00028
1.00088
1.00163
1.00479
1.01007
1.02588
1.06985
1.15429
1.48017
2.22657
2.54626
2.63585
2.62754
2.61519
2.61306
2.60845
2.59359
2.56068
2.49966
2.31322
1
1.00001
1.00002
1.00004
1.00013
1.00024
1.00077
1.0014
1.00433
1.00837
1.0231
1.05587
1.13125
1.38112
2.03641
2.47097
2.62198
2.61461
2.60312
2.59317
2.58488
2.56634
2.5231
2.46422
2.30789
1
1.00001
1.00002
1.00003
1.00011
1.0002
1.00064
1.00116
1.00359
1.00679
1.01958
1.04282
1.10941
1.28353
1.82969
2.3701
2.58569
2.58061
2.57661
2.56347
2.54871
2.52589
2.48583
2.43987
2.32123
1
1
1.00002
1.00003
1.00009
1.00016
1.00051
1.00094
1.00287
1.00553
1.01558
1.03536
1.0863
1.23595
1.64926
2.29901
2.55245
2.5587
2.55743
2.54941
2.53021
2.50451
2.44696
2.40782
2.32366
1
1
1.00001
1.00003
1.00005
1.00017
1.00031
1.00094
1.00181
1.00502
1.01123
1.02754
1.07703
1.1659
1.52138
2.24025
2.47295
2.52528
2.51817
2.51542
2.50531
2.4868
2.43935
2.38513
2.31957
1
1
1.00001
1.00002
1.00004
1.00014
1.00025
1.00079
1.00144
1.00438
1.00871
1.02332
1.05877
1.13438
1.39633
2.04685
2.41157
2.51429
2.50502
2.49523
2.47301
2.45353
2.42121
2.37351
2.31523
1
1
1.00001
1.00002
1.00003
1.00011
1.0002
1.00061
1.00113
1.00345
1.00662
1.01881
1.04173
1.10607
1.27353
1.81054
2.26889
2.47663
2.47823
2.47285
2.4582
2.43258
2.39917
2.35431
2.30355
1
1
1.00001
1.00001
1.00003
1.00006
1.00019
1.00035
1.00107
1.00203
1.00583
1.01238
1.03166
1.08434
1.1895
1.54443
2.22442
2.42358
2.44504