/*--------------------------------*- C++ -*----------------------------------*\
| =========                 |                                                 |
| \\      /  F ield         | OpenFOAM: The Open Source CFD Toolbox           |
|  \\    /   O peration     | Version:  4.1                                   |
|   \\  /    A nd           | Web:      www.OpenFOAM.org                      |
|    \\/     M anipulation  |                                                 |
\*---------------------------------------------------------------------------*/
FoamFile
{
    version     2.0;
    format      ascii;
    class       volScalarField;
    location    "10";
    object      Ma;
}
// * * * * * * * * * * * * * * * * * * * * * * * * * * * * * * * * * * * * * //

dimensions      [0 0 0 0 0 0 0];

internalField   nonuniform List<scalar> 
52500
(
3.00001
2.99995
2.99987
2.99956
2.99912
2.99734
2.99479
2.98486
2.96895
2.91596
2.80046
2.52536
1.87925
0.955333
0.382182
0.327959
0.343701
0.33938
0.30749
0.255943
0.206354
0.16483
0.12342
0.0776545
0.0445682
3.00001
2.99995
2.99988
2.99956
2.99913
2.99736
2.99484
2.98499
2.96925
2.91669
2.80243
2.52959
1.88744
0.965572
0.389243
0.329538
0.345613
0.341845
0.310387
0.259718
0.211346
0.171228
0.132023
0.0913829
0.0675754
3.00001
2.99995
2.99988
2.99957
2.99915
2.99741
2.99494
2.98526
2.96986
2.9182
2.80652
2.53838
1.90503
0.988043
0.405106
0.333728
0.350777
0.34858
0.318407
0.270003
0.224536
0.187923
0.153795
0.121781
0.106324
3.00001
2.99996
2.99988
2.99959
2.99917
2.99748
2.99509
2.98566
2.97077
2.92044
2.81269
2.55157
1.93179
1.02293
0.429166
0.340041
0.358851
0.359206
0.331009
0.285896
0.244377
0.212437
0.184125
0.159616
0.149123
3.00001
2.99996
2.99989
2.9996
2.99921
2.99759
2.99529
2.98624
2.97201
2.92361
2.82032
2.56973
1.96563
1.06808
0.458764
0.346009
0.367809
0.371792
0.346373
0.305483
0.26868
0.241928
0.219656
0.201345
0.194357
3.00001
2.99996
2.9999
2.99963
2.99925
2.99773
2.99556
2.98701
2.97356
2.92773
2.82923
2.59313
2.00668
1.12482
0.494682
0.352178
0.377966
0.386613
0.364372
0.328577
0.297228
0.276093
0.259842
0.24761
0.244437
3.00002
2.99997
2.99991
2.99966
2.99931
2.9979
2.99589
2.98809
2.97541
2.93332
2.83941
2.62062
2.05615
1.19622
0.537103
0.358309
0.389164
0.403157
0.384498
0.354111
0.329173
0.314542
0.30527
0.300146
0.302814
3.00002
2.99997
2.99992
2.99969
2.99937
2.99809
2.99624
2.98917
2.97746
2.9393
2.85277
2.65207
2.11881
1.2863
0.587856
0.36715
0.403109
0.422676
0.407562
0.382934
0.364529
0.357177
0.356099
0.360649
0.374387
3.00002
2.99998
2.99993
2.99972
2.99943
2.99825
2.99659
2.99
2.97969
2.94434
2.86917
2.68463
2.20887
1.4055
0.652742
0.384319
0.422906
0.446378
0.433857
0.415254
0.404022
0.404243
0.413326
0.433115
0.470917
3.00002
2.99998
2.99994
2.99976
2.9995
2.99847
2.99698
2.99115
2.98206
2.95055
2.88667
2.72065
2.30962
1.53916
0.732365
0.417739
0.454514
0.477376
0.466451
0.452543
0.447381
0.454985
0.478818
0.52711
0.629809
2.99999
2.99993
2.99986
2.99954
2.9991
2.99732
2.99477
2.98483
2.96892
2.91591
2.80038
2.52521
1.87896
0.954938
0.381858
0.3278
0.343524
0.339174
0.307253
0.255659
0.20601
0.164401
0.122845
0.0767389
0.0429444
2.99999
2.99993
2.99986
2.99955
2.99911
2.99734
2.99482
2.98496
2.96922
2.91665
2.80235
2.52944
1.88715
0.965177
0.388924
0.329381
0.345437
0.341641
0.310153
0.25944
0.211012
0.17082
0.131493
0.0906181
0.0665233
2.99999
2.99994
2.99986
2.99955
2.99913
2.99739
2.99492
2.98523
2.96983
2.91815
2.80644
2.53823
1.90475
0.987652
0.404797
0.333573
0.350602
0.348378
0.318178
0.269735
0.224223
0.187553
0.153344
0.121211
0.105655
2.99999
2.99994
2.99986
2.99957
2.99915
2.99746
2.99506
2.98563
2.97074
2.9204
2.81261
2.55143
1.93151
1.02254
0.428868
0.33989
0.358683
0.359017
0.330799
0.285655
0.2441
0.212118
0.183754
0.159183
0.148641
2.99999
2.99994
2.99987
2.99959
2.99919
2.99757
2.99527
2.98622
2.97198
2.92356
2.82026
2.56957
1.96541
1.06776
0.458521
0.345895
0.36767
0.371631
0.346192
0.305277
0.268442
0.241658
0.219351
0.201003
0.193984
2.99999
2.99994
2.99988
2.99961
2.99923
2.9977
2.99553
2.98699
2.97353
2.92768
2.82917
2.59299
2.00648
1.12449
0.494456
0.352074
0.377841
0.38647
0.364216
0.3284
0.297027
0.275869
0.259592
0.247335
0.244138
3
2.99995
2.99989
2.99964
2.99929
2.99788
2.99587
2.98806
2.97539
2.93327
2.83935
2.62048
2.05593
1.19588
0.536885
0.358204
0.389041
0.403023
0.384357
0.353956
0.329001
0.314354
0.305065
0.299924
0.302574
3
2.99995
2.9999
2.99967
2.99935
2.99807
2.99622
2.98915
2.97743
2.93925
2.8527
2.65193
2.11855
1.28593
0.58763
0.367026
0.402977
0.422541
0.407428
0.382794
0.364381
0.35702
0.355931
0.36047
0.374197
3
2.99996
2.99991
2.9997
2.99941
2.99823
2.99657
2.98998
2.97966
2.94429
2.86911
2.6845
2.20863
1.40512
0.652522
0.384177
0.422762
0.44624
0.433724
0.41512
0.403888
0.404108
0.413188
0.432972
0.470771
3
2.99997
2.99992
2.99974
2.99948
2.99845
2.99696
2.99112
2.98204
2.9505
2.88661
2.72053
2.30937
1.53877
0.732149
0.41757
0.454354
0.477232
0.466318
0.452416
0.447259
0.454867
0.478704
0.527001
0.629709
2.99999
2.99993
2.99986
2.99954
2.9991
2.99732
2.99477
2.98483
2.96892
2.91591
2.80038
2.52519
1.87894
0.954905
0.381841
0.327803
0.343525
0.339173
0.307252
0.255658
0.206009
0.164401
0.122845
0.0767383
0.0429438
2.99999
2.99993
2.99986
2.99955
2.99911
2.99734
2.99482
2.98496
2.96922
2.91664
2.80234
2.52943
1.88713
0.965144
0.388907
0.329384
0.345438
0.34164
0.310152
0.259439
0.211011
0.170819
0.131493
0.0906176
0.0665227
2.99999
2.99994
2.99986
2.99955
2.99913
2.99739
2.99492
2.98523
2.96983
2.91815
2.80644
2.53822
1.90472
0.987618
0.404779
0.333576
0.350603
0.348377
0.318177
0.269733
0.224222
0.187552
0.153344
0.12121
0.105655
2.99999
2.99994
2.99986
2.99957
2.99915
2.99746
2.99506
2.98563
2.97074
2.9204
2.81261
2.55142
1.93149
1.02251
0.42885
0.339894
0.358684
0.359016
0.330798
0.285654
0.244099
0.212118
0.183753
0.159182
0.14864
2.99999
2.99994
2.99987
2.99959
2.99919
2.99757
2.99527
2.98622
2.97198
2.92356
2.82026
2.56956
1.96538
1.06772
0.458506
0.3459
0.367672
0.37163
0.346192
0.305276
0.268442
0.241658
0.219351
0.201002
0.193983
2.99999
2.99994
2.99988
2.99961
2.99923
2.9977
2.99553
2.98699
2.97353
2.92768
2.82917
2.59297
2.00645
1.12446
0.49444
0.352079
0.377843
0.38647
0.364216
0.3284
0.297027
0.275868
0.259592
0.247334
0.244137
3
2.99995
2.99989
2.99964
2.99929
2.99788
2.99587
2.98806
2.97538
2.93327
2.83934
2.62046
2.05591
1.19585
0.53687
0.358209
0.389043
0.403023
0.384357
0.353956
0.329001
0.314354
0.305065
0.299923
0.302573
3
2.99995
2.9999
2.99967
2.99935
2.99807
2.99622
2.98915
2.97743
2.93925
2.85269
2.65192
2.11852
1.28588
0.587612
0.367029
0.402977
0.42254
0.407427
0.382794
0.364381
0.35702
0.35593
0.360469
0.374196
3
2.99996
2.99991
2.9997
2.99941
2.99823
2.99657
2.98998
2.97966
2.94428
2.86911
2.68449
2.2086
1.40507
0.652501
0.384176
0.422759
0.446237
0.433722
0.415119
0.403887
0.404107
0.413187
0.432971
0.47077
3
2.99997
2.99992
2.99974
2.99948
2.99845
2.99696
2.99112
2.98203
2.9505
2.8866
2.72051
2.30934
1.53872
0.732127
0.417563
0.454347
0.477226
0.466313
0.452413
0.447257
0.454866
0.478703
0.527
0.629707
2.99999
2.99993
2.99986
2.99954
2.9991
2.99732
2.99477
2.98483
2.96892
2.91591
2.80038
2.52519
1.87893
0.954899
0.381838
0.327803
0.343525
0.339173
0.307252
0.255658
0.206009
0.1644
0.122844
0.0767382
0.0429437
2.99999
2.99993
2.99986
2.99955
2.99911
2.99734
2.99482
2.98496
2.96922
2.91664
2.80234
2.52942
1.88712
0.965139
0.388904
0.329385
0.345438
0.34164
0.310151
0.259438
0.211011
0.170819
0.131493
0.0906175
0.0665226
2.99999
2.99994
2.99986
2.99955
2.99913
2.99739
2.99492
2.98523
2.96983
2.91815
2.80644
2.53821
1.90472
0.987613
0.404777
0.333577
0.350603
0.348377
0.318176
0.269733
0.224221
0.187552
0.153343
0.12121
0.105654
2.99999
2.99994
2.99986
2.99957
2.99915
2.99746
2.99506
2.98563
2.97074
2.9204
2.81261
2.55142
1.93148
1.0225
0.428847
0.339894
0.358684
0.359016
0.330798
0.285654
0.244099
0.212117
0.183753
0.159182
0.14864
2.99999
2.99994
2.99987
2.99959
2.99919
2.99757
2.99527
2.98622
2.97198
2.92356
2.82026
2.56956
1.96538
1.06772
0.458503
0.345901
0.367672
0.37163
0.346192
0.305276
0.268442
0.241658
0.219351
0.201002
0.193983
2.99999
2.99994
2.99988
2.99961
2.99923
2.9977
2.99553
2.98699
2.97353
2.92768
2.82917
2.59297
2.00645
1.12445
0.494437
0.35208
0.377843
0.38647
0.364216
0.3284
0.297027
0.275868
0.259592
0.247334
0.244137
3
2.99995
2.99989
2.99964
2.99929
2.99788
2.99587
2.98806
2.97538
2.93327
2.83934
2.62046
2.05591
1.19584
0.536867
0.35821
0.389043
0.403023
0.384357
0.353956
0.329001
0.314354
0.305065
0.299923
0.302572
3
2.99995
2.9999
2.99967
2.99935
2.99807
2.99622
2.98915
2.97743
2.93925
2.85269
2.65192
2.11851
1.28588
0.587609
0.36703
0.402977
0.42254
0.407427
0.382794
0.364381
0.35702
0.35593
0.360469
0.374195
3
2.99996
2.99991
2.9997
2.99941
2.99823
2.99657
2.98998
2.97966
2.94428
2.8691
2.68448
2.20859
1.40506
0.652497
0.384175
0.422759
0.446236
0.433721
0.415119
0.403887
0.404107
0.413187
0.432971
0.47077
3
2.99997
2.99992
2.99974
2.99948
2.99845
2.99696
2.99112
2.98203
2.9505
2.8866
2.72051
2.30933
1.53871
0.732123
0.417562
0.454346
0.477225
0.466313
0.452413
0.447256
0.454866
0.478703
0.527
0.629707
2.99999
2.99993
2.99986
2.99954
2.9991
2.99732
2.99477
2.98483
2.96892
2.91591
2.80037
2.52519
1.87893
0.954896
0.381836
0.327803
0.343525
0.339173
0.307251
0.255658
0.206009
0.1644
0.122844
0.0767382
0.0429437
2.99999
2.99993
2.99986
2.99955
2.99911
2.99734
2.99482
2.98496
2.96922
2.91664
2.80234
2.52942
1.88712
0.965135
0.388902
0.329385
0.345438
0.341639
0.310151
0.259438
0.211011
0.170819
0.131493
0.0906175
0.0665225
2.99999
2.99994
2.99986
2.99955
2.99913
2.99739
2.99492
2.98523
2.96983
2.91815
2.80644
2.53821
1.90472
0.987609
0.404775
0.333577
0.350603
0.348377
0.318176
0.269733
0.224221
0.187552
0.153343
0.12121
0.105654
2.99999
2.99994
2.99986
2.99957
2.99915
2.99746
2.99506
2.98563
2.97074
2.9204
2.8126
2.55142
1.93148
1.0225
0.428845
0.339894
0.358684
0.359015
0.330798
0.285654
0.244099
0.212117
0.183753
0.159182
0.14864
2.99999
2.99994
2.99987
2.99959
2.99919
2.99757
2.99527
2.98622
2.97198
2.92356
2.82026
2.56955
1.96538
1.06772
0.458502
0.345901
0.367672
0.37163
0.346191
0.305276
0.268442
0.241658
0.219351
0.201002
0.193983
2.99999
2.99994
2.99988
2.99961
2.99923
2.9977
2.99553
2.98699
2.97353
2.92768
2.82917
2.59297
2.00644
1.12445
0.494435
0.35208
0.377843
0.38647
0.364216
0.3284
0.297027
0.275868
0.259592
0.247334
0.244137
3
2.99995
2.99989
2.99964
2.99929
2.99788
2.99587
2.98806
2.97538
2.93327
2.83934
2.62046
2.0559
1.19584
0.536865
0.35821
0.389044
0.403023
0.384357
0.353956
0.329001
0.314354
0.305065
0.299923
0.302572
3
2.99995
2.9999
2.99967
2.99935
2.99807
2.99622
2.98915
2.97743
2.93925
2.85269
2.65192
2.11851
1.28587
0.587606
0.36703
0.402977
0.42254
0.407427
0.382794
0.364381
0.35702
0.35593
0.360469
0.374195
3
2.99996
2.99991
2.9997
2.99941
2.99823
2.99657
2.98998
2.97966
2.94428
2.8691
2.68448
2.20859
1.40506
0.652495
0.384175
0.422759
0.446236
0.433721
0.415118
0.403887
0.404107
0.413187
0.432971
0.47077
3
2.99997
2.99992
2.99974
2.99948
2.99845
2.99696
2.99112
2.98203
2.9505
2.8866
2.72051
2.30933
1.5387
0.73212
0.417561
0.454345
0.477225
0.466312
0.452413
0.447256
0.454865
0.478703
0.527
0.629707
2.99999
2.99993
2.99986
2.99954
2.9991
2.99732
2.99477
2.98483
2.96892
2.91591
2.80037
2.52519
1.87893
0.954895
0.381835
0.327804
0.343525
0.339173
0.307251
0.255657
0.206009
0.1644
0.122844
0.0767382
0.0429437
2.99999
2.99993
2.99986
2.99955
2.99911
2.99734
2.99482
2.98496
2.96922
2.91664
2.80234
2.52942
1.88712
0.965134
0.388902
0.329385
0.345438
0.341639
0.310151
0.259438
0.211011
0.170819
0.131493
0.0906174
0.0665225
2.99999
2.99994
2.99986
2.99955
2.99913
2.99739
2.99492
2.98523
2.96983
2.91815
2.80644
2.53821
1.90471
0.987609
0.404774
0.333577
0.350603
0.348376
0.318176
0.269733
0.224221
0.187552
0.153343
0.12121
0.105654
2.99999
2.99994
2.99986
2.99957
2.99915
2.99746
2.99506
2.98563
2.97074
2.9204
2.8126
2.55141
1.93148
1.0225
0.428845
0.339894
0.358684
0.359015
0.330798
0.285654
0.244099
0.212117
0.183753
0.159182
0.14864
2.99999
2.99994
2.99987
2.99959
2.99919
2.99757
2.99527
2.98622
2.97198
2.92356
2.82026
2.56955
1.96538
1.06771
0.458501
0.345901
0.367672
0.37163
0.346191
0.305276
0.268442
0.241658
0.219351
0.201002
0.193983
2.99999
2.99994
2.99988
2.99961
2.99923
2.9977
2.99553
2.98699
2.97353
2.92768
2.82917
2.59297
2.00644
1.12445
0.494435
0.352081
0.377843
0.38647
0.364216
0.3284
0.297027
0.275868
0.259592
0.247334
0.244137
3
2.99995
2.99989
2.99964
2.99929
2.99788
2.99587
2.98806
2.97538
2.93327
2.83934
2.62046
2.0559
1.19584
0.536865
0.358211
0.389044
0.403023
0.384357
0.353956
0.329001
0.314354
0.305065
0.299923
0.302572
3
2.99995
2.9999
2.99967
2.99935
2.99807
2.99622
2.98915
2.97743
2.93925
2.85269
2.65192
2.11851
1.28587
0.587606
0.36703
0.402977
0.42254
0.407427
0.382794
0.364381
0.35702
0.35593
0.360469
0.374195
3
2.99996
2.99991
2.9997
2.99941
2.99823
2.99657
2.98998
2.97966
2.94428
2.8691
2.68448
2.20859
1.40506
0.652494
0.384175
0.422759
0.446236
0.433721
0.415118
0.403887
0.404107
0.413187
0.432971
0.47077
3
2.99997
2.99992
2.99974
2.99948
2.99845
2.99696
2.99112
2.98203
2.9505
2.8866
2.72051
2.30933
1.5387
0.73212
0.417561
0.454345
0.477225
0.466312
0.452412
0.447256
0.454865
0.478703
0.527
0.629707
2.99999
2.99993
2.99986
2.99954
2.9991
2.99732
2.99477
2.98483
2.96892
2.91591
2.80037
2.52519
1.87893
0.954898
0.381837
0.327803
0.343525
0.339173
0.307251
0.255658
0.206009
0.1644
0.122844
0.0767382
0.0429437
2.99999
2.99993
2.99986
2.99955
2.99911
2.99734
2.99482
2.98496
2.96922
2.91664
2.80234
2.52942
1.88712
0.965137
0.388903
0.329385
0.345438
0.34164
0.310151
0.259438
0.211011
0.170819
0.131493
0.0906175
0.0665225
2.99999
2.99994
2.99986
2.99955
2.99913
2.99739
2.99492
2.98523
2.96983
2.91815
2.80644
2.53821
1.90472
0.987611
0.404776
0.333577
0.350603
0.348377
0.318176
0.269733
0.224221
0.187552
0.153343
0.12121
0.105654
2.99999
2.99994
2.99986
2.99957
2.99915
2.99746
2.99506
2.98563
2.97074
2.9204
2.8126
2.55142
1.93148
1.0225
0.428846
0.339894
0.358684
0.359015
0.330798
0.285654
0.244099
0.212117
0.183753
0.159182
0.14864
2.99999
2.99994
2.99987
2.99959
2.99919
2.99757
2.99527
2.98622
2.97198
2.92356
2.82026
2.56955
1.96538
1.06772
0.458503
0.345901
0.367672
0.37163
0.346191
0.305276
0.268442
0.241658
0.219351
0.201002
0.193983
2.99999
2.99994
2.99988
2.99961
2.99923
2.9977
2.99553
2.98699
2.97353
2.92768
2.82917
2.59297
2.00645
1.12445
0.494436
0.35208
0.377843
0.38647
0.364216
0.3284
0.297027
0.275868
0.259592
0.247334
0.244137
3
2.99995
2.99989
2.99964
2.99929
2.99788
2.99587
2.98806
2.97538
2.93327
2.83934
2.62046
2.05591
1.19584
0.536866
0.35821
0.389044
0.403023
0.384357
0.353956
0.329001
0.314354
0.305065
0.299923
0.302572
3
2.99995
2.9999
2.99967
2.99935
2.99807
2.99622
2.98915
2.97743
2.93925
2.85269
2.65192
2.11851
1.28588
0.587608
0.36703
0.402977
0.42254
0.407427
0.382794
0.364381
0.35702
0.35593
0.360469
0.374195
3
2.99996
2.99991
2.9997
2.99941
2.99823
2.99657
2.98998
2.97966
2.94428
2.8691
2.68448
2.20859
1.40506
0.652496
0.384175
0.422759
0.446236
0.433721
0.415118
0.403887
0.404107
0.413187
0.432971
0.47077
3
2.99997
2.99992
2.99974
2.99948
2.99845
2.99696
2.99112
2.98203
2.9505
2.8866
2.72051
2.30933
1.5387
0.732122
0.417562
0.454346
0.477225
0.466312
0.452413
0.447256
0.454866
0.478703
0.527
0.629707
2.99999
2.99993
2.99986
2.99954
2.9991
2.99732
2.99477
2.98483
2.96892
2.91591
2.80038
2.52519
1.87894
0.954904
0.38184
0.327803
0.343525
0.339173
0.307252
0.255658
0.206009
0.164401
0.122845
0.0767383
0.0429438
2.99999
2.99993
2.99986
2.99955
2.99911
2.99734
2.99482
2.98496
2.96922
2.91664
2.80234
2.52943
1.88713
0.965144
0.388907
0.329384
0.345438
0.34164
0.310152
0.259439
0.211011
0.170819
0.131493
0.0906176
0.0665226
2.99999
2.99994
2.99986
2.99955
2.99913
2.99739
2.99492
2.98523
2.96983
2.91815
2.80644
2.53822
1.90472
0.987618
0.404779
0.333576
0.350603
0.348377
0.318177
0.269733
0.224222
0.187552
0.153344
0.12121
0.105655
2.99999
2.99994
2.99986
2.99957
2.99915
2.99746
2.99506
2.98563
2.97074
2.9204
2.81261
2.55142
1.93149
1.02251
0.42885
0.339894
0.358684
0.359016
0.330798
0.285654
0.244099
0.212118
0.183753
0.159182
0.14864
2.99999
2.99994
2.99987
2.99959
2.99919
2.99757
2.99527
2.98622
2.97198
2.92356
2.82026
2.56956
1.96538
1.06772
0.458506
0.3459
0.367672
0.37163
0.346192
0.305276
0.268442
0.241658
0.219351
0.201002
0.193983
2.99999
2.99994
2.99988
2.99961
2.99923
2.9977
2.99553
2.98699
2.97353
2.92768
2.82917
2.59297
2.00645
1.12446
0.494439
0.352079
0.377843
0.38647
0.364216
0.3284
0.297027
0.275868
0.259592
0.247334
0.244137
3
2.99995
2.99989
2.99964
2.99929
2.99788
2.99587
2.98806
2.97538
2.93327
2.83934
2.62046
2.05591
1.19585
0.536869
0.358209
0.389043
0.403023
0.384357
0.353956
0.329001
0.314354
0.305065
0.299923
0.302573
3
2.99995
2.9999
2.99967
2.99935
2.99807
2.99622
2.98915
2.97743
2.93925
2.85269
2.65192
2.11852
1.28588
0.587611
0.367029
0.402977
0.42254
0.407427
0.382794
0.364381
0.35702
0.35593
0.360469
0.374196
3
2.99996
2.99991
2.9997
2.99941
2.99823
2.99657
2.98998
2.97966
2.94428
2.86911
2.68449
2.2086
1.40507
0.6525
0.384175
0.422759
0.446236
0.433722
0.415119
0.403887
0.404107
0.413187
0.432971
0.47077
3
2.99997
2.99992
2.99974
2.99948
2.99845
2.99696
2.99112
2.98203
2.9505
2.8866
2.72051
2.30934
1.53871
0.732126
0.417563
0.454347
0.477226
0.466313
0.452413
0.447257
0.454866
0.478703
0.527
0.629707
2.99999
2.99993
2.99986
2.99954
2.9991
2.99732
2.99477
2.98483
2.96892
2.91591
2.80038
2.52521
1.87897
0.954938
0.381858
0.3278
0.343524
0.339174
0.307253
0.25566
0.20601
0.164401
0.122845
0.0767389
0.0429444
2.99999
2.99993
2.99986
2.99955
2.99911
2.99734
2.99482
2.98496
2.96922
2.91665
2.80235
2.52944
1.88715
0.965178
0.388925
0.329381
0.345437
0.341641
0.310153
0.25944
0.211012
0.17082
0.131493
0.0906182
0.0665233
2.99999
2.99994
2.99986
2.99955
2.99913
2.99739
2.99492
2.98523
2.96983
2.91815
2.80644
2.53823
1.90475
0.987652
0.404797
0.333573
0.350602
0.348378
0.318178
0.269735
0.224223
0.187553
0.153344
0.121211
0.105655
2.99999
2.99994
2.99986
2.99957
2.99915
2.99746
2.99506
2.98563
2.97074
2.9204
2.81261
2.55143
1.93151
1.02254
0.428868
0.33989
0.358683
0.359017
0.330799
0.285655
0.2441
0.212118
0.183754
0.159183
0.148641
2.99999
2.99994
2.99987
2.99959
2.99919
2.99757
2.99527
2.98622
2.97198
2.92356
2.82026
2.56957
1.96541
1.06776
0.458522
0.345895
0.36767
0.371631
0.346192
0.305277
0.268442
0.241658
0.219351
0.201003
0.193984
2.99999
2.99994
2.99988
2.99961
2.99923
2.9977
2.99553
2.98699
2.97353
2.92768
2.82917
2.59299
2.00648
1.12449
0.494456
0.352074
0.377841
0.38647
0.364216
0.3284
0.297027
0.275869
0.259592
0.247335
0.244138
3
2.99995
2.99989
2.99964
2.99929
2.99788
2.99587
2.98806
2.97539
2.93327
2.83935
2.62048
2.05593
1.19588
0.536885
0.358204
0.389041
0.403023
0.384357
0.353956
0.329001
0.314354
0.305065
0.299924
0.302574
3
2.99995
2.9999
2.99967
2.99935
2.99807
2.99622
2.98915
2.97743
2.93925
2.8527
2.65193
2.11855
1.28593
0.58763
0.367026
0.402977
0.422541
0.407428
0.382794
0.364381
0.35702
0.355931
0.36047
0.374197
3
2.99996
2.99991
2.9997
2.99941
2.99823
2.99657
2.98998
2.97966
2.94429
2.86911
2.6845
2.20863
1.40512
0.652523
0.384177
0.422762
0.44624
0.433724
0.41512
0.403888
0.404108
0.413188
0.432972
0.470771
3
2.99997
2.99992
2.99974
2.99948
2.99845
2.99696
2.99112
2.98204
2.9505
2.88661
2.72053
2.30937
1.53877
0.732149
0.41757
0.454354
0.477232
0.466318
0.452416
0.447259
0.454867
0.478704
0.527001
0.629709
3.00001
2.99995
2.99987
2.99956
2.99912
2.99734
2.99479
2.98486
2.96895
2.91596
2.80046
2.52536
1.87925
0.955335
0.382183
0.327959
0.343701
0.33938
0.30749
0.255943
0.206354
0.16483
0.12342
0.0776545
0.0445682
3.00001
2.99995
2.99988
2.99956
2.99913
2.99736
2.99484
2.98499
2.96925
2.91669
2.80243
2.52959
1.88744
0.965574
0.389244
0.329538
0.345613
0.341845
0.310387
0.259718
0.211346
0.171228
0.132023
0.0913829
0.0675754
3.00001
2.99995
2.99988
2.99957
2.99915
2.99741
2.99494
2.98526
2.96986
2.9182
2.80652
2.53838
1.90503
0.988045
0.405107
0.333728
0.350777
0.348581
0.318407
0.270003
0.224536
0.187923
0.153795
0.121781
0.106324
3.00001
2.99996
2.99988
2.99959
2.99917
2.99748
2.99509
2.98566
2.97077
2.92044
2.81269
2.55157
1.93179
1.02293
0.429167
0.340041
0.358851
0.359206
0.331009
0.285896
0.244377
0.212437
0.184125
0.159616
0.149123
3.00001
2.99996
2.99989
2.9996
2.99921
2.99759
2.99529
2.98624
2.97201
2.92361
2.82032
2.56973
1.96563
1.06809
0.458765
0.346009
0.367809
0.371792
0.346373
0.305483
0.26868
0.241928
0.219656
0.201345
0.194357
3.00001
2.99996
2.9999
2.99963
2.99925
2.99773
2.99556
2.98701
2.97356
2.92773
2.82923
2.59313
2.00669
1.12482
0.494683
0.352178
0.377966
0.386613
0.364372
0.328577
0.297228
0.276093
0.259842
0.24761
0.244437
3.00002
2.99997
2.99991
2.99966
2.99931
2.9979
2.99589
2.98809
2.97541
2.93332
2.83941
2.62063
2.05615
1.19622
0.537103
0.358309
0.389164
0.403157
0.384498
0.354111
0.329173
0.314542
0.30527
0.300147
0.302814
3.00002
2.99997
2.99992
2.99969
2.99937
2.99809
2.99624
2.98917
2.97746
2.9393
2.85277
2.65207
2.11881
1.2863
0.587857
0.36715
0.403109
0.422676
0.407562
0.382934
0.364529
0.357177
0.356099
0.360649
0.374388
3.00002
2.99998
2.99993
2.99972
2.99943
2.99825
2.99659
2.99
2.97969
2.94434
2.86917
2.68463
2.20887
1.4055
0.652743
0.384319
0.422906
0.446378
0.433857
0.415254
0.404022
0.404243
0.413326
0.433115
0.470917
3.00002
2.99998
2.99994
2.99976
2.9995
2.99847
2.99698
2.99115
2.98206
2.95055
2.88667
2.72065
2.30962
1.53916
0.732366
0.41774
0.454514
0.477377
0.466451
0.452544
0.447381
0.454985
0.478818
0.52711
0.629809
3.00001
3
2.99993
2.99984
2.99949
2.99897
2.99699
2.99382
2.98322
2.96144
2.90323
2.75053
2.43991
1.72136
0.84592
0.474028
0.501363
0.516208
0.50688
0.495585
0.494587
0.510408
0.552716
0.638562
0.807816
3.00002
3
2.99994
2.99986
2.99953
2.99907
2.99719
2.99451
2.98406
2.96732
2.91199
2.79108
2.505
1.85234
0.956434
0.533531
0.53718
0.547276
0.547576
0.540643
0.543789
0.567212
0.622574
0.722943
0.887532
3.00002
3
2.99995
2.99988
2.9996
2.9992
2.99757
2.99526
2.98612
2.97191
2.92322
2.82113
2.56938
1.97635
1.1002
0.611783
0.558737
0.571806
0.581329
0.582378
0.591351
0.620573
0.679157
0.771725
0.905501
3.00002
3.00001
2.99996
2.99991
2.99967
2.99933
2.99798
2.99603
2.98855
2.9763
2.93599
2.84569
2.63608
2.09103
1.26015
0.694326
0.57122
0.588358
0.606412
0.617772
0.6333
0.665492
0.721225
0.800892
0.910533
3.00002
3.00001
2.99998
2.99993
2.99973
2.99945
2.99835
2.99671
2.99063
2.98025
2.94708
2.87138
2.69367
2.22816
1.44123
0.791807
0.590955
0.607461
0.628575
0.647735
0.668128
0.700333
0.751637
0.819914
0.909568
3.00002
3.00001
2.99999
2.99993
2.99984
2.99948
2.99894
2.997
2.99362
2.98304
2.95927
2.90019
2.73874
2.41869
1.66438
0.928608
0.640366
0.642541
0.658638
0.67837
0.699324
0.729085
0.774957
0.83462
0.908728
3.00002
3.00001
3
2.99994
2.99987
2.99955
2.99911
2.99729
2.99473
2.98461
2.96864
2.91545
2.80066
2.52762
1.90654
1.06737
0.69876
0.679532
0.692279
0.709156
0.727062
0.753157
0.792431
0.84461
0.90744
3.00002
3.00002
3
2.99996
2.9999
2.99966
2.9993
2.99791
2.99584
2.98816
2.97506
2.93332
2.83765
2.61906
2.06326
1.23436
0.778549
0.702249
0.714782
0.730767
0.750133
0.773175
0.805849
0.850884
0.903866
3.00002
3.00002
3.00001
2.99999
2.99991
2.9998
2.99936
2.99869
2.99632
2.99206
2.9791
2.94908
2.8765
2.67335
2.28242
1.43884
0.886903
0.721659
0.728144
0.745042
0.767143
0.78947
0.8169
0.85369
0.897198
3.00002
3.00002
3.00001
2.99999
2.99993
2.99984
2.99948
2.99896
2.99693
2.99387
2.98291
2.96268
2.90407
2.75716
2.45395
1.74644
1.03502
0.76532
0.751602
0.76359
0.783492
0.803922
0.827598
0.854934
0.888899
3.00002
3.00002
3.00002
3
2.99997
2.99985
2.99967
2.99899
2.99799
2.99414
2.98811
2.96705
2.92732
2.81613
2.55464
1.98424
1.15481
0.809255
0.767507
0.778642
0.795155
0.813652
0.832152
0.852274
0.879195
3.00003
3.00002
3.00002
3
2.99998
2.99989
2.99976
2.99924
2.99849
2.99563
2.991
2.97566
2.94343
2.86012
2.63937
2.2047
1.35824
0.899075
0.780612
0.784768
0.797905
0.814899
0.829433
0.845599
0.868299
3.00003
3.00003
3.00002
3.00001
2.99998
2.99994
2.99977
2.99952
2.99854
2.99709
2.9916
2.98281
2.95337
2.89249
2.73809
2.36087
1.64244
1.01262
0.802093
0.786664
0.794499
0.80632
0.819255
0.835184
0.856617
3.00003
3.00003
3.00002
3.00002
2.99999
2.99996
2.99982
2.99963
2.99887
2.99776
2.99346
2.98686
2.9634
2.92105
2.79499
2.531
1.90058
1.15443
0.837258
0.786775
0.788214
0.796018
0.807583
0.823846
0.845754
3.00003
3.00003
3.00002
3.00002
3.00001
2.99997
2.9999
2.99967
2.99932
2.998
2.99598
2.9888
2.97596
2.93722
2.84561
2.64295
2.1103
1.32815
0.8803
0.773022
0.77012
0.777395
0.792396
0.813086
0.836733
3.00003
3.00003
3.00003
3.00002
3.00001
2.99998
2.99993
2.99974
2.99947
2.99838
2.9968
2.99068
2.98119
2.94825
2.88364
2.71228
2.30635
1.55224
0.953413
0.755601
0.742429
0.753548
0.775522
0.802944
0.82998
3.00003
3.00003
3.00003
3.00002
3.00001
3
2.99994
2.99985
2.99951
2.99901
2.99709
2.99416
2.98371
2.96496
2.90953
2.77771
2.48777
1.85744
1.05861
0.745361
0.71612
0.732565
0.76109
0.794933
0.825178
3.00003
3.00003
3.00003
3.00002
3.00002
3
2.99996
2.99989
2.99961
2.99921
2.99764
2.99532
2.98659
2.9721
2.925
2.82064
2.57562
1.98931
1.15655
0.730391
0.673768
0.699817
0.738649
0.782717
0.817725
3.00003
3.00003
3.00003
3.00002
3.00002
3.00001
2.99998
2.9999
2.99977
2.99929
2.99851
2.99596
2.99074
2.97649
2.9407
2.8592
2.61926
2.17546
1.27873
0.757313
0.614206
0.649938
0.704043
0.761111
0.80259
3.00003
3.00003
3.00003
3.00003
3.00002
3.00001
2.99998
2.99993
2.99974
2.99947
2.99841
2.99679
2.99094
2.9806
2.94866
2.87423
2.70273
2.24938
1.48274
0.789017
0.556486
0.603672
0.670842
0.733185
0.778716
3.00003
3.00003
3.00003
3.00003
3.00002
3.00001
2.99999
2.99994
2.99978
2.99954
2.99859
2.99722
2.99185
2.9835
2.95421
2.89822
2.74262
2.38359
1.65448
0.827496
0.51919
0.575015
0.645026
0.70776
0.753587
3.00003
3.00003
3.00003
3.00003
3.00002
3.00001
3
2.99994
2.99985
2.99951
2.99902
2.9971
2.99416
2.98374
2.96445
2.90797
2.76835
2.47227
1.78883
0.88771
0.499898
0.54801
0.612197
0.678632
0.726166
3.00003
3.00003
3.00003
3.00003
3.00002
3.00001
3
2.99995
2.99987
2.99955
2.9991
2.99728
2.99468
2.98448
2.96826
2.91401
2.79682
2.51536
1.87099
0.969111
0.509281
0.517446
0.578232
0.645002
0.695244
3.00003
3.00003
3.00003
3.00003
3.00002
3.00002
3
2.99995
2.99988
2.99959
2.99919
2.99753
2.99518
2.98585
2.97126
2.92133
2.81579
2.55601
1.94696
1.05606
0.529739
0.485584
0.542478
0.610448
0.662961
3.00003
3.00003
3.00003
3.00003
3.00003
3.00002
3.00001
2.99996
2.9999
2.99965
2.99929
2.99786
2.9957
2.98777
2.97392
2.9302
2.82824
2.59577
2.00203
1.12938
0.551553
0.452969
0.509295
0.58017
0.633471
3.00003
3.00003
3.00003
3.00003
3.00003
3.00002
3.00001
2.99998
2.9999
2.99977
2.9993
2.99849
2.99592
2.99028
2.97558
2.93734
2.85216
2.59484
2.12499
1.16302
0.579321
0.419657
0.479661
0.554757
0.606588
3.00003
3.00003
3.00003
3.00003
3.00003
3.00002
3.00001
2.99998
2.99993
2.99973
2.99944
2.99836
2.99649
2.99057
2.97752
2.94348
2.85368
2.66231
2.12292
1.29811
0.614265
0.395231
0.460567
0.540641
0.588988
3.00003
3.00003
3.00003
3.00003
3.00003
3.00002
3.00001
2.99999
2.99991
2.9998
2.99937
2.99871
2.99634
2.99204
2.97892
2.94814
2.87405
2.66279
2.26061
1.37096
0.658964
0.376972
0.452796
0.538649
0.582817
3.00003
3.00003
3.00003
3.00003
3.00003
3.00002
3.00001
2.99999
2.99992
2.99982
2.99942
2.99883
2.99663
2.99286
2.98082
2.95369
2.88592
2.69799
2.33
1.49274
0.704665
0.373029
0.459214
0.549041
0.58967
3.00003
3.00003
3.00003
3.00003
3.00003
3.00002
3.00001
2.99999
2.99995
2.99978
2.99954
2.99863
2.99721
2.99211
2.9831
2.95514
2.89092
2.73865
2.34475
1.61161
0.718568
0.356034
0.454727
0.548612
0.588651
3.00003
3.00003
3.00003
3.00003
3.00003
3.00002
3.00001
3
2.99994
2.99985
2.99951
2.99899
2.99716
2.99381
2.9837
2.96016
2.9027
2.74309
2.42643
1.69126
0.765212
0.356939
0.452625
0.542926
0.582487
3.00003
3.00003
3.00003
3.00003
3.00003
3.00002
3.00002
2.99999
2.99995
2.9998
2.99958
2.99872
2.99745
2.99256
2.98486
2.95818
2.90515
2.76478
2.41732
1.72746
0.768053
0.348811
0.436116
0.52017
0.563763
3.00003
3.00003
3.00003
3.00003
3.00003
3.00002
3.00002
2.99999
2.99996
2.99981
2.99961
2.99878
2.99759
2.99291
2.98562
2.96007
2.90998
2.77481
2.44082
1.76187
0.789954
0.351328
0.419887
0.49403
0.544
3.00003
3.00003
3.00003
3.00003
3.00003
3.00002
3.00001
3
2.99995
2.99986
2.99955
2.99908
2.99732
2.99445
2.98491
2.96541
2.91211
2.77538
2.4856
1.79968
0.873814
0.395447
0.431159
0.490519
0.545727
3.00003
3.00003
3.00003
3.00003
3.00003
3.00002
3.00002
3
2.99996
2.99984
2.99965
2.99895
2.99784
2.994
2.98668
2.96535
2.91353
2.79482
2.46145
1.83958
0.84745
0.388649
0.411965
0.472487
0.533581
3.00003
3.00003
3.00003
3.00003
3.00003
3.00002
3.00002
3
2.99995
2.99987
2.99958
2.99913
2.99745
2.99477
2.9856
2.96771
2.91631
2.78889
2.5084
1.84651
0.933222
0.426625
0.425894
0.481035
0.540342
3.00003
3.00003
3.00003
3.00003
3.00003
3.00002
3.00002
3
2.99997
2.99984
2.99967
2.99898
2.99794
2.99413
2.98744
2.96663
2.91822
2.80423
2.48471
1.89065
0.891597
0.410634
0.401339
0.460068
0.5224
3.00003
3.00003
3.00003
3.00003
3.00003
3.00002
3.00002
3
2.99997
2.99985
2.99968
2.999
2.99798
2.99428
2.98773
2.96744
2.92002
2.8084
2.4938
1.90673
0.906002
0.412889
0.389889
0.447628
0.510843
3.00003
3.00003
3.00003
3.00003
3.00003
3.00002
3.00002
3
2.99995
2.99988
2.99958
2.99916
2.99748
2.99496
2.98566
2.96948
2.91872
2.80126
2.53064
1.89274
0.98803
0.446974
0.413022
0.469291
0.532555
3.00003
3.00003
3.00003
3.00003
3.00003
3.00002
3.00002
3
2.99995
2.99988
2.99957
2.99915
2.99742
2.99495
2.98527
2.96985
2.91806
2.80603
2.5364
1.90435
0.995688
0.444203
0.407592
0.468038
0.534463
3
2.99998
2.99992
2.99982
2.99947
2.99895
2.99697
2.9938
2.98319
2.96141
2.90317
2.75044
2.43973
1.72099
0.845689
0.473853
0.501223
0.516081
0.506755
0.495462
0.494471
0.510302
0.552623
0.63848
0.807752
3
2.99998
2.99992
2.99984
2.99951
2.99905
2.99717
2.99449
2.98403
2.96729
2.91194
2.79099
2.50486
1.85208
0.956105
0.533312
0.53707
0.547168
0.547469
0.540535
0.543685
0.567116