/*--------------------------------*- C++ -*----------------------------------*\
| =========                 |                                                 |
| \\      /  F ield         | OpenFOAM: The Open Source CFD Toolbox           |
|  \\    /   O peration     | Version:  4.1                                   |
|   \\  /    A nd           | Web:      www.OpenFOAM.org                      |
|    \\/     M anipulation  |                                                 |
\*---------------------------------------------------------------------------*/
FoamFile
{
    version     2.0;
    format      ascii;
    class       volScalarField;
    location    "10";
    object      p;
}
// * * * * * * * * * * * * * * * * * * * * * * * * * * * * * * * * * * * * * //

dimensions      [1 -1 -2 0 0 0 0];

internalField   nonuniform List<scalar> 
52500
(
1.00001
1.00004
1.00014
1.00031
1.00088
1.00181
1.00516
1.01031
1.03096
1.05753
1.19854
1.37963
2.36188
4.39847
10.5847
11.4103
11.2623
11.2233
11.3099
11.5315
11.7574
11.9047
12.0192
12.1101
12.181
1.00001
1.00004
1.00014
1.0003
1.00087
1.0018
1.00511
1.01022
1.03066
1.05702
1.1966
1.37535
2.349
4.3591
10.507
11.4037
11.2552
11.2125
11.2993
11.5211
11.7471
11.8949
12.0112
12.1039
12.1766
1.00001
1.00004
1.00014
1.0003
1.00086
1.00176
1.00502
1.01004
1.03005
1.056
1.19255
1.36664
2.32174
4.27619
10.3349
11.3882
11.2363
11.1812
11.2657
11.4842
11.7077
11.8535
11.9691
12.061
12.1335
1.00001
1.00004
1.00013
1.00029
1.00083
1.00171
1.00487
1.00976
1.02912
1.05448
1.18645
1.35375
2.28067
4.15277
10.0674
11.3663
11.2072
11.1295
11.2094
11.4204
11.6386
11.7797
11.8919
11.9813
12.0541
1.00001
1.00004
1.00013
1.00028
1.0008
1.00164
1.00467
1.00935
1.0279
1.05219
1.17887
1.33611
2.22765
3.99599
9.704
11.3381
11.1674
11.0584
11.1321
11.3326
11.5432
11.6769
11.783
11.8682
11.9421
1.00001
1.00003
1.00012
1.00026
1.00075
1.00155
1.00441
1.00882
1.02639
1.04911
1.16996
1.31403
2.1623
3.80932
9.23767
11.3073
11.1178
10.9676
11.0333
11.2192
11.4181
11.54
11.636
11.7133
11.7874
1.00001
1.00003
1.00011
1.00024
1.0007
1.00143
1.00408
1.00811
1.02464
1.04481
1.16001
1.28739
2.08657
3.58778
8.66272
11.2808
11.061
10.8588
10.9151
11.0817
11.2622
11.3644
11.4407
11.4997
11.5668
1.00001
1.00003
1.0001
1.00022
1.00064
1.0013
1.00373
1.00738
1.02259
1.04071
1.14668
1.25918
1.99737
3.32994
7.97641
11.2656
11.0026
10.7344
10.7792
10.9208
11.0737
11.1465
11.1896
11.2106
11.2494
1.00001
1.00003
1.00009
1.0002
1.00058
1.00119
1.00339
1.00679
1.02026
1.03766
1.13002
1.23428
1.8748
3.04618
7.16122
11.2556
10.949
10.6016
10.6312
10.7385
10.8522
10.8806
10.8681
10.8112
10.7542
1
1.00002
1.00008
1.00018
1.00051
1.00105
1.00299
1.00605
1.01773
1.03401
1.11173
1.20799
1.74565
2.75058
6.25717
11.2184
10.8965
10.4705
10.4764
10.5373
10.596
10.5722
10.4751
10.2526
9.91481
1.00001
1.00004
1.00014
1.00031
1.00089
1.00182
1.00517
1.01032
1.03098
1.05756
1.19861
1.3798
2.36227
4.39981
10.587
11.4101
11.2621
11.2234
11.31
11.5316
11.7574
11.9047
12.0192
12.11
12.1809
1.00001
1.00004
1.00014
1.00031
1.00088
1.0018
1.00512
1.01023
1.03068
1.05705
1.19666
1.37551
2.34938
4.36042
10.5093
11.4035
11.2551
11.2126
11.2994
11.5212
11.7471
11.8949
12.0112
12.1038
12.1765
1.00001
1.00004
1.00014
1.0003
1.00086
1.00177
1.00503
1.01005
1.03006
1.05603
1.19261
1.3668
2.32212
4.27747
10.3372
11.388
11.2361
11.1813
11.2658
11.4843
11.7078
11.8536
11.9691
12.061
12.1334
1.00001
1.00004
1.00014
1.00029
1.00084
1.00172
1.00488
1.00977
1.02913
1.0545
1.18651
1.35389
2.28104
4.15398
10.0697
11.3661
11.2071
11.1296
11.2095
11.4205
11.6387
11.7797
11.8919
11.9813
12.0541
1.00001
1.00004
1.00013
1.00028
1.0008
1.00165
1.00468
1.00937
1.02791
1.05223
1.17892
1.33627
2.22797
3.99703
9.70627
11.338
11.1673
11.0585
11.1322
11.3328
11.5433
11.6769
11.783
11.8682
11.9421
1.00001
1.00004
1.00012
1.00027
1.00076
1.00156
1.00442
1.00884
1.02641
1.04914
1.17
1.31418
2.1626
3.81028
9.23991
11.3071
11.1177
10.9678
11.0335
11.2193
11.4182
11.5401
11.6361
11.7134
11.7875
1.00001
1.00003
1.00011
1.00025
1.0007
1.00144
1.00409
1.00812
1.02465
1.04484
1.16007
1.28753
2.08685
3.58872
8.66496
11.2805
11.061
10.859
10.9152
11.0818
11.2623
11.3645
11.4408
11.4998
11.5669
1.00001
1.00003
1.0001
1.00023
1.00064
1.00131
1.00374
1.00739
1.0226
1.04074
1.14674
1.25929
1.99771
3.33083
7.97871
11.2653
11.0026
10.7346
10.7793
10.9209
11.0738
11.1466
11.1897
11.2107
11.2496
1.00001
1.00003
1.00009
1.00021
1.00058
1.0012
1.0034
1.0068
1.02027
1.03769
1.13006
1.2344
1.8751
3.04702
7.16353
11.2553
10.949
10.6018
10.6314
10.7386
10.8523
10.8807
10.8682
10.8113
10.7543
1.00001
1.00003
1.00008
1.00018
1.00052
1.00106
1.003
1.00606
1.01774
1.03404
1.11178
1.20809
1.74593
2.75135
6.25941
11.2184
10.8965
10.4707
10.4765
10.5375
10.5961
10.5723
10.4752
10.2527
9.91495
1.00001
1.00004
1.00014
1.00031
1.00089
1.00182
1.00517
1.01032
1.03098
1.05756
1.19862
1.37981
2.36231
4.39994
10.5873
11.4101
11.2622
11.2234
11.31
11.5316
11.7575
11.9047
12.0192
12.1101
12.1809
1.00001
1.00004
1.00014
1.00031
1.00088
1.0018
1.00512
1.01023
1.03068
1.05705
1.19667
1.37553
2.34942
4.36055
10.5095
11.4035
11.2551
11.2126
11.2994
11.5212
11.7472
11.8949
12.0112
12.1039
12.1766
1.00001
1.00004
1.00014
1.0003
1.00086
1.00177
1.00503
1.01005
1.03006
1.05603
1.19262
1.36681
2.32216
4.2776
10.3375
11.388
11.2361
11.1813
11.2658
11.4843
11.7078
11.8536
11.9692
12.061
12.1334
1.00001
1.00004
1.00014
1.00029
1.00084
1.00172
1.00488
1.00977
1.02914
1.0545
1.18652
1.3539
2.28108
4.1541
10.07
11.3661
11.2071
11.1296
11.2095
11.4205
11.6387
11.7798
11.892
11.9813
12.0541
1.00001
1.00004
1.00013
1.00028
1.0008
1.00165
1.00468
1.00937
1.02791
1.05223
1.17893
1.33629
2.228
3.99714
9.70654
11.3379
11.1673
11.0585
11.1322
11.3328
11.5434
11.677
11.783
11.8682
11.9422
1.00001
1.00004
1.00012
1.00027
1.00076
1.00156
1.00442
1.00884
1.02641
1.04914
1.17001
1.31419
2.16264
3.81039
9.24019
11.3071
11.1177
10.9678
11.0335
11.2193
11.4182
11.5401
11.6361
11.7134
11.7875
1.00001
1.00003
1.00011
1.00025
1.0007
1.00144
1.00409
1.00812
1.02465
1.04484
1.16007
1.28754
2.08689
3.58884
8.66524
11.2805
11.061
10.859
10.9152
11.0818
11.2623
11.3645
11.4408
11.4998
11.5669
1.00001
1.00003
1.0001
1.00023
1.00064
1.00131
1.00374
1.00739
1.0226
1.04074
1.14674
1.2593
1.99775
3.33093
7.97901
11.2653
11.0026
10.7346
10.7793
10.9209
11.0738
11.1466
11.1897
11.2107
11.2496
1.00001
1.00003
1.00009
1.00021
1.00058
1.0012
1.0034
1.0068
1.02027
1.03769
1.13007
1.23441
1.87514
3.04713
7.16384
11.2553
10.949
10.6018
10.6314
10.7386
10.8523
10.8807
10.8682
10.8113
10.7543
1.00001
1.00003
1.00008
1.00018
1.00052
1.00106
1.003
1.00606
1.01774
1.03404
1.11179
1.2081
1.74598
2.75145
6.25972
11.2184
10.8965
10.4707
10.4766
10.5375
10.5961
10.5724
10.4752
10.2528
9.91497
1.00001
1.00004
1.00014
1.00031
1.00089
1.00182
1.00517
1.01032
1.03098
1.05756
1.19862
1.37981
2.36232
4.39996
10.5873
11.4101
11.2622
11.2234
11.31
11.5316
11.7575
11.9047
12.0192
12.1101
12.1809
1.00001
1.00004
1.00014
1.00031
1.00088
1.0018
1.00512
1.01023
1.03068
1.05705
1.19667
1.37553
2.34943
4.36057
10.5096
11.4035
11.2551
11.2126
11.2994
11.5212
11.7472
11.8949
12.0112
12.1039
12.1766
1.00001
1.00004
1.00014
1.0003
1.00086
1.00177
1.00503
1.01005
1.03006
1.05603
1.19262
1.36681
2.32216
4.27762
10.3376
11.388
11.2361
11.1813
11.2659
11.4843
11.7078
11.8536
11.9692
12.061
12.1334
1.00001
1.00004
1.00014
1.00029
1.00084
1.00172
1.00488
1.00977
1.02914
1.0545
1.18652
1.3539
2.28109
4.15412
10.0701
11.3661
11.2071
11.1296
11.2095
11.4205
11.6387
11.7798
11.892
11.9813
12.0541
1.00001
1.00004
1.00013
1.00028
1.0008
1.00165
1.00468
1.00937
1.02791
1.05223
1.17893
1.33629
2.22801
3.99716
9.70659
11.3379
11.1673
11.0585
11.1322
11.3328
11.5434
11.677
11.783
11.8682
11.9422
1.00001
1.00004
1.00012
1.00027
1.00076
1.00156
1.00442
1.00884
1.02641
1.04914
1.17001
1.31419
2.16264
3.81041
9.24024
11.3071
11.1177
10.9678
11.0335
11.2193
11.4182
11.5401
11.6361
11.7134
11.7875
1.00001
1.00003
1.00011
1.00025
1.0007
1.00144
1.00409
1.00812
1.02465
1.04484
1.16007
1.28754
2.08689
3.58885
8.66529
11.2805
11.061
10.859
10.9152
11.0818
11.2623
11.3645
11.4408
11.4998
11.5669
1.00001
1.00003
1.0001
1.00023
1.00064
1.00131
1.00374
1.00739
1.0226
1.04074
1.14674
1.2593
1.99776
3.33095
7.97905
11.2653
11.0026
10.7346
10.7793
10.9209
11.0739
11.1467
11.1897
11.2107
11.2496
1.00001
1.00003
1.00009
1.00021
1.00058
1.0012
1.0034
1.0068
1.02027
1.03769
1.13007
1.23441
1.87515
3.04714
7.16389
11.2553
10.949
10.6018
10.6314
10.7386
10.8523
10.8807
10.8682
10.8113
10.7543
1.00001
1.00003
1.00008
1.00018
1.00052
1.00106
1.003
1.00606
1.01774
1.03404
1.11179
1.2081
1.74598
2.75146
6.25977
11.2184
10.8965
10.4707
10.4766
10.5375
10.5961
10.5724
10.4752
10.2528
9.91497
1.00001
1.00004
1.00014
1.00031
1.00089
1.00182
1.00517
1.01032
1.03098
1.05756
1.19862
1.37981
2.36232
4.39997
10.5873
11.4101
11.2622
11.2234
11.31
11.5316
11.7575
11.9047
12.0192
12.1101
12.1809
1.00001
1.00004
1.00014
1.00031
1.00088
1.0018
1.00512
1.01023
1.03068
1.05705
1.19667
1.37553
2.34943
4.36058
10.5096
11.4035
11.2551
11.2126
11.2994
11.5212
11.7472
11.8949
12.0112
12.1039
12.1766
1.00001
1.00004
1.00014
1.0003
1.00086
1.00177
1.00503
1.01005
1.03006
1.05603
1.19262
1.36681
2.32217
4.27763
10.3376
11.388
11.2361
11.1813
11.2659
11.4843
11.7078
11.8536
11.9692
12.061
12.1334
1.00001
1.00004
1.00014
1.00029
1.00084
1.00172
1.00488
1.00977
1.02914
1.05451
1.18652
1.35391
2.28109
4.15413
10.0701
11.3661
11.2071
11.1296
11.2095
11.4205
11.6387
11.7798
11.892
11.9813
12.0541
1.00001
1.00004
1.00013
1.00028
1.0008
1.00165
1.00468
1.00937
1.02791
1.05223
1.17893
1.33629
2.22801
3.99717
9.70661
11.3379
11.1673
11.0585
11.1322
11.3328
11.5434
11.677
11.783
11.8682
11.9422
1.00001
1.00004
1.00012
1.00027
1.00076
1.00156
1.00442
1.00884
1.02641
1.04914
1.17001
1.31419
2.16265
3.81042
9.24027
11.3071
11.1177
10.9678
11.0335
11.2193
11.4182
11.5401
11.6361
11.7134
11.7875
1.00001
1.00003
1.00011
1.00025
1.0007
1.00144
1.00409
1.00812
1.02465
1.04484
1.16007
1.28754
2.0869
3.58886
8.66532
11.2805
11.061
10.859
10.9152
11.0818
11.2623
11.3645
11.4408
11.4998
11.5669
1.00001
1.00003
1.0001
1.00023
1.00064
1.00131
1.00374
1.00739
1.0226
1.04074
1.14674
1.2593
1.99776
3.33096
7.97909
11.2653
11.0026
10.7346
10.7793
10.9209
11.0739
11.1467
11.1897
11.2108
11.2496
1.00001
1.00003
1.00009
1.00021
1.00058
1.0012
1.0034
1.0068
1.02027
1.03769
1.13007
1.23441
1.87516
3.04716
7.16392
11.2553
10.949
10.6018
10.6314
10.7386
10.8523
10.8807
10.8682
10.8113
10.7543
1.00001
1.00003
1.00008
1.00018
1.00052
1.00106
1.003
1.00606
1.01774
1.03404
1.11179
1.2081
1.74599
2.75147
6.2598
11.2184
10.8965
10.4707
10.4766
10.5375
10.5961
10.5724
10.4752
10.2528
9.91497
1.00001
1.00004
1.00014
1.00031
1.00089
1.00182
1.00517
1.01032
1.03098
1.05756
1.19862
1.37982
2.36233
4.39998
10.5873
11.4101
11.2622
11.2234
11.31
11.5316
11.7575
11.9047
12.0192
12.1101
12.1809
1.00001
1.00004
1.00014
1.00031
1.00088
1.0018
1.00512
1.01023
1.03068
1.05705
1.19667
1.37553
2.34943
4.36059
10.5096
11.4035
11.2551
11.2126
11.2994
11.5212
11.7472
11.8949
12.0112
12.1039
12.1766
1.00001
1.00004
1.00014
1.0003
1.00086
1.00177
1.00503
1.01005
1.03006
1.05603
1.19262
1.36681
2.32217
4.27763
10.3376
11.388
11.2361
11.1813
11.2659
11.4843
11.7078
11.8536
11.9692
12.061
12.1334
1.00001
1.00004
1.00014
1.00029
1.00084
1.00172
1.00488
1.00977
1.02914
1.05451
1.18652
1.35391
2.2811
4.15414
10.0701
11.3661
11.2071
11.1296
11.2095
11.4205
11.6387
11.7798
11.892
11.9813
12.0541
1.00001
1.00004
1.00013
1.00028
1.0008
1.00165
1.00468
1.00937
1.02791
1.05223
1.17893
1.33629
2.22802
3.99717
9.70662
11.3379
11.1673
11.0585
11.1322
11.3328
11.5434
11.677
11.783
11.8682
11.9422
1.00001
1.00004
1.00012
1.00027
1.00076
1.00156
1.00442
1.00884
1.02641
1.04914
1.17001
1.31419
2.16265
3.81042
9.24027
11.3071
11.1177
10.9678
11.0335
11.2193
11.4182
11.5401
11.6361
11.7134
11.7875
1.00001
1.00003
1.00011
1.00025
1.0007
1.00144
1.00409
1.00812
1.02465
1.04484
1.16007
1.28754
2.0869
3.58887
8.66533
11.2805
11.061
10.859
10.9152
11.0818
11.2623
11.3645
11.4408
11.4998
11.5669
1.00001
1.00003
1.0001
1.00023
1.00064
1.00131
1.00374
1.00739
1.0226
1.04074
1.14674
1.2593
1.99776
3.33096
7.97909
11.2653
11.0026
10.7346
10.7793
10.9209
11.0739
11.1467
11.1897
11.2108
11.2496
1.00001
1.00003
1.00009
1.00021
1.00058
1.0012
1.0034
1.0068
1.02027
1.03769
1.13007
1.23441
1.87516
3.04716
7.16393
11.2553
10.949
10.6018
10.6314
10.7386
10.8523
10.8807
10.8682
10.8113
10.7543
1.00001
1.00003
1.00008
1.00018
1.00052
1.00106
1.003
1.00606
1.01774
1.03404
1.11179
1.20811
1.74599
2.75147
6.25981
11.2184
10.8965
10.4707
10.4766
10.5375
10.5961
10.5724
10.4752
10.2528
9.91497
1.00001
1.00004
1.00014
1.00031
1.00089
1.00182
1.00517
1.01032
1.03098
1.05756
1.19862
1.37981
2.36232
4.39997
10.5873
11.4101
11.2622
11.2234
11.31
11.5316
11.7575
11.9047
12.0192
12.1101
12.1809
1.00001
1.00004
1.00014
1.00031
1.00088
1.0018
1.00512
1.01023
1.03068
1.05705
1.19667
1.37553
2.34943
4.36058
10.5096
11.4035
11.2551
11.2126
11.2994
11.5212
11.7472
11.8949
12.0112
12.1039
12.1766
1.00001
1.00004
1.00014
1.0003
1.00086
1.00177
1.00503
1.01005
1.03006
1.05603
1.19262
1.36681
2.32217
4.27762
10.3376
11.388
11.2361
11.1813
11.2659
11.4843
11.7078
11.8536
11.9692
12.061
12.1334
1.00001
1.00004
1.00014
1.00029
1.00084
1.00172
1.00488
1.00977
1.02914
1.05451
1.18652
1.3539
2.28109
4.15412
10.0701
11.3661
11.2071
11.1296
11.2095
11.4205
11.6387
11.7798
11.892
11.9813
12.0541
1.00001
1.00004
1.00013
1.00028
1.0008
1.00165
1.00468
1.00937
1.02791
1.05223
1.17893
1.33629
2.22801
3.99716
9.7066
11.3379
11.1673
11.0585
11.1322
11.3328
11.5434
11.677
11.783
11.8682
11.9422
1.00001
1.00004
1.00012
1.00027
1.00076
1.00156
1.00442
1.00884
1.02641
1.04914
1.17001
1.31419
2.16265
3.81041
9.24025
11.3071
11.1177
10.9678
11.0335
11.2193
11.4182
11.5401
11.6361
11.7134
11.7875
1.00001
1.00003
1.00011
1.00025
1.0007
1.00144
1.00409
1.00812
1.02465
1.04484
1.16007
1.28754
2.08689
3.58886
8.6653
11.2805
11.061
10.859
10.9152
11.0818
11.2623
11.3645
11.4408
11.4998
11.5669
1.00001
1.00003
1.0001
1.00023
1.00064
1.00131
1.00374
1.00739
1.0226
1.04074
1.14674
1.2593
1.99776
3.33096
7.97907
11.2653
11.0026
10.7346
10.7793
10.9209
11.0739
11.1467
11.1897
11.2107
11.2496
1.00001
1.00003
1.00009
1.00021
1.00058
1.0012
1.0034
1.0068
1.02027
1.03769
1.13007
1.23441
1.87515
3.04715
7.1639
11.2553
10.949
10.6018
10.6314
10.7386
10.8523
10.8807
10.8682
10.8113
10.7543
1.00001
1.00003
1.00008
1.00018
1.00052
1.00106
1.003
1.00606
1.01774
1.03404
1.11179
1.2081
1.74598
2.75147
6.25978
11.2184
10.8965
10.4707
10.4766
10.5375
10.5961
10.5724
10.4752
10.2528
9.91497
1.00001
1.00004
1.00014
1.00031
1.00089
1.00182
1.00517
1.01032
1.03098
1.05756
1.19862
1.37981
2.36231
4.39994
10.5873
11.4101
11.2622
11.2234
11.31
11.5316
11.7575
11.9047
12.0192
12.1101
12.1809
1.00001
1.00004
1.00014
1.00031
1.00088
1.0018
1.00512
1.01023
1.03068
1.05705
1.19667
1.37553
2.34942
4.36055
10.5095
11.4035
11.2551
11.2126
11.2994
11.5212
11.7472
11.8949
12.0112
12.1039
12.1766
1.00001
1.00004
1.00014
1.0003
1.00086
1.00177
1.00503
1.01005
1.03006
1.05603
1.19262
1.36681
2.32216
4.2776
10.3375
11.388
11.2361
11.1813
11.2658
11.4843
11.7078
11.8536
11.9692
12.061
12.1334
1.00001
1.00004
1.00014
1.00029
1.00084
1.00172
1.00488
1.00977
1.02914
1.0545
1.18652
1.3539
2.28108
4.1541
10.07
11.3661
11.2071
11.1296
11.2095
11.4205
11.6387
11.7798
11.892
11.9813
12.0541
1.00001
1.00004
1.00013
1.00028
1.0008
1.00165
1.00468
1.00937
1.02791
1.05223
1.17893
1.33629
2.22801
3.99714
9.70655
11.3379
11.1673
11.0585
11.1322
11.3328
11.5434
11.677
11.783
11.8682
11.9422
1.00001
1.00004
1.00012
1.00027
1.00076
1.00156
1.00442
1.00884
1.02641
1.04914
1.17001
1.31419
2.16264
3.81039
9.2402
11.3071
11.1177
10.9678
11.0335
11.2193
11.4182
11.5401
11.6361
11.7134
11.7875
1.00001
1.00003
1.00011
1.00025
1.0007
1.00144
1.00409
1.00812
1.02465
1.04484
1.16007
1.28754
2.08689
3.58884
8.66525
11.2805
11.061
10.859
10.9152
11.0818
11.2623
11.3645
11.4408
11.4998
11.5669
1.00001
1.00003
1.0001
1.00023
1.00064
1.00131
1.00374
1.00739
1.0226
1.04074
1.14674
1.2593
1.99775
3.33093
7.97901
11.2653
11.0026
10.7346
10.7793
10.9209
11.0738
11.1466
11.1897
11.2107
11.2496
1.00001
1.00003
1.00009
1.00021
1.00058
1.0012
1.0034
1.0068
1.02027
1.03769
1.13007
1.23441
1.87514
3.04713
7.16384
11.2553
10.949
10.6018
10.6314
10.7386
10.8523
10.8807
10.8682
10.8113
10.7543
1.00001
1.00003
1.00008
1.00018
1.00052
1.00106
1.003
1.00606
1.01774
1.03404
1.11179
1.2081
1.74598
2.75145
6.25972
11.2184
10.8965
10.4707
10.4766
10.5375
10.5961
10.5724
10.4752
10.2528
9.91497
1.00001
1.00004
1.00014
1.00031
1.00089
1.00182
1.00517
1.01032
1.03098
1.05756
1.19861
1.3798
2.36227
4.39981
10.587
11.4101
11.2621
11.2234
11.31
11.5316
11.7574
11.9047
12.0192
12.11
12.1809
1.00001
1.00004
1.00014
1.00031
1.00088
1.0018
1.00512
1.01023
1.03068
1.05705
1.19666
1.37551
2.34938
4.36042
10.5093
11.4035
11.2551
11.2126
11.2994
11.5212
11.7471
11.8949
12.0112
12.1038
12.1765
1.00001
1.00004
1.00014
1.0003
1.00086
1.00177
1.00503
1.01005
1.03006
1.05603
1.19261
1.3668
2.32211
4.27747
10.3372
11.388
11.2361
11.1813
11.2658
11.4843
11.7078
11.8536
11.9691
12.061
12.1334
1.00001
1.00004
1.00014
1.00029
1.00084
1.00172
1.00488
1.00977
1.02913
1.0545
1.18651
1.35389
2.28104
4.15398
10.0697
11.3661
11.2071
11.1296
11.2095
11.4205
11.6387
11.7797
11.8919
11.9813
12.0541
1.00001
1.00004
1.00013
1.00028
1.0008
1.00165
1.00468
1.00937
1.02791
1.05223
1.17892
1.33627
2.22796
3.99702
9.70627
11.338
11.1673
11.0585
11.1322
11.3328
11.5433
11.6769
11.783
11.8682
11.9421
1.00001
1.00004
1.00012
1.00027
1.00076
1.00156
1.00442
1.00884
1.02641
1.04914
1.17
1.31418
2.1626
3.81028
9.23991
11.3071
11.1177
10.9678
11.0335
11.2193
11.4182
11.5401
11.6361
11.7134
11.7875
1.00001
1.00003
1.00011
1.00025
1.0007
1.00144
1.00409
1.00812
1.02465
1.04484
1.16007
1.28753
2.08685
3.58872
8.66496
11.2805
11.061
10.859
10.9152
11.0818
11.2623
11.3645
11.4408
11.4998
11.5669
1.00001
1.00003
1.0001
1.00023
1.00064
1.00131
1.00374
1.00739
1.0226
1.04074
1.14674
1.25929
1.99771
3.33082
7.9787
11.2653
11.0026
10.7346
10.7793
10.9209
11.0738
11.1466
11.1897
11.2107
11.2496
1.00001
1.00003
1.00009
1.00021
1.00058
1.0012
1.0034
1.0068
1.02027
1.03769
1.13006
1.2344
1.8751
3.04702
7.16352
11.2553
10.949
10.6018
10.6314
10.7386
10.8523
10.8807
10.8682
10.8113
10.7543
1.00001
1.00003
1.00008
1.00018
1.00052
1.00106
1.003
1.00606
1.01774
1.03404
1.11178
1.20809
1.74593
2.75135
6.2594
11.2184
10.8965
10.4707
10.4765
10.5375
10.5961
10.5723
10.4752
10.2527
9.91495
1.00001
1.00004
1.00014
1.00031
1.00088
1.00181
1.00516
1.01031
1.03096
1.05753
1.19854
1.37963
2.36188
4.39847
10.5847
11.4103
11.2623
11.2233
11.3099
11.5315
11.7574
11.9047
12.0192
12.1101
12.181
1.00001
1.00004
1.00014
1.0003
1.00087
1.0018
1.00511
1.01022
1.03066
1.05702
1.1966
1.37535
2.34899
4.3591
10.5069
11.4037
11.2552
11.2125
11.2993
11.5211
11.7471
11.8948
12.0112
12.1039
12.1766
1.00001
1.00004
1.00014
1.0003
1.00086
1.00176
1.00502
1.01004
1.03005
1.056
1.19255
1.36664
2.32174
4.27619
10.3349
11.3882
11.2363
11.1812
11.2657
11.4842
11.7077
11.8535
11.9691
12.061
12.1335
1.00001
1.00004
1.00013
1.00029
1.00083
1.00171
1.00487
1.00976
1.02912
1.05448
1.18645
1.35374
2.28067
4.15276
10.0674
11.3663
11.2072
11.1295
11.2094
11.4204
11.6386
11.7797
11.8919
11.9813
12.0541
1.00001
1.00004
1.00013
1.00028
1.0008
1.00164
1.00467
1.00935
1.0279
1.05219
1.17887
1.33611
2.22764
3.99598
9.70399
11.3381
11.1674
11.0584
11.1321
11.3326
11.5432
11.6769
11.783
11.8682
11.9421
1.00001
1.00003
1.00012
1.00026
1.00075
1.00155
1.00441
1.00882
1.02639
1.04911
1.16996
1.31403
2.1623
3.80931
9.23765
11.3073
11.1178
10.9676
11.0333
11.2192
11.4181
11.54
11.636
11.7133
11.7874
1.00001
1.00003
1.00011
1.00024
1.0007
1.00143
1.00408
1.00811
1.02464
1.04481
1.16001
1.28739
2.08657
3.58778
8.66271
11.2808
11.061
10.8588
10.9151
11.0817
11.2622
11.3644
11.4407
11.4997
11.5668
1.00001
1.00003
1.0001
1.00022
1.00064
1.0013
1.00373
1.00738
1.02259
1.04071
1.14668
1.25917
1.99737
3.32993
7.97639
11.2656
11.0026
10.7344
10.7792
10.9208
11.0737
11.1465
11.1896
11.2106
11.2494
1.00001
1.00003
1.00009
1.0002
1.00058
1.00119
1.00339
1.00679
1.02026
1.03766
1.13002
1.23428
1.8748
3.04618
7.16121
11.2556
10.949
10.6016
10.6312
10.7385
10.8522
10.8806
10.8681
10.8112
10.7542
1
1.00002
1.00008
1.00018
1.00051
1.00105
1.00299
1.00605
1.01773
1.03401
1.11173
1.20799
1.74564
2.75058
6.25715
11.2184
10.8965
10.4705
10.4764
10.5373
10.596
10.5722
10.4751
10.2526
9.9148
1
1.00002
1.00006
1.00017
1.00036
1.00104
1.00208
1.00615
1.01142
1.03851
1.06534
1.24427
1.48613
2.59315
5.2196
11.0324
10.7925
10.3675
10.3072
10.327
10.3172
10.2292
9.97612
9.39692
7.95069
1
1.00002
1.00005
1.00016
1.00033
1.00094
1.00191
1.00544
1.01087
1.03259
1.06063
1.20764
1.40413
2.40802
4.53454
10.4085
10.5303
10.3117
10.1363
10.1074
10.0411
9.86774
9.47891
8.70937
7.24994
1
1.00002
1.00004
1.00013
1.00028
1.00081
1.00166
1.0047
1.00944
1.02796
1.05282
1.17797
1.33907
2.21421
3.95247
9.30861
10.3335
10.2012
9.97115
9.88541
9.77062
9.52976
9.05813
8.30039
7.18732
1
1.00001
1.00004
1.00011
1.00024
1.00068
1.00138
1.00394
1.00782
1.02376
1.04311
1.15375
1.2748
2.037
3.43788
8.08431
10.2098
10.0979
9.83854
9.67719
9.5196
9.23897
8.77267
8.09459
7.20808
1
1.00001
1.00003
1.00009
1.00019
1.00056
1.00114
1.00326
1.00643
1.01973
1.03551
1.12751
1.22557
1.8491
2.96607
6.80259
10.144
10.0289
9.73544
9.49545
9.30038
9.01403
8.58344
7.99086
7.25616
1
1.00001
1.00003
1.00006
1.00018
1.00037
1.00106
1.00209
1.00639
1.01135
1.04058
1.06718
1.25477
1.51454
2.65462
5.32361
9.98265
9.93936
9.68621
9.3564
9.12646
8.84853
8.4566
7.94023
7.32123
1
1
1.00002
1.00005
1.00015
1.00032
1.0009
1.00184
1.00524
1.01048
1.03125
1.05856
1.19765
1.38668
2.31799
4.26168
9.41158
9.76938
9.59856
9.25182
8.99719
8.72891
8.37556
7.93013
7.39322
1
1
1.00002
1.00004
1.00012
1.00025
1.00071
1.00144
1.00412
1.00815
1.02493
1.04511
1.16103
1.29151
2.08062
3.54737
8.12683
9.55809
9.45926
9.20215
8.91433
8.64823
8.33087
7.93936
7.47833
1
1
1.00001
1.00003
1.00007
1.00022
1.00045
1.00131
1.00256
1.00795
1.01397
1.05069
1.08375
1.32291
1.65982
3.13242
6.55465
9.44753
9.40362
9.20696
8.88471
8.61262
8.33043
7.97247
7.58496
0.999998
1
1.00001
1.00003
1.00006
1.00018
1.00037
1.00104
1.00212
1.00608
1.01181
1.03746
1.06565
1.23922
1.47167
2.54295
4.90547
9.22243
9.38673
9.22999
8.89839
8.61868
8.34864
8.04681
7.72617
0.999996
0.999998
1
1.00001
1.00005
1.00012
1.00034
1.0007
1.002
1.00405
1.01171
1.02315
1.07129
1.13691
1.45434
2.04238
4.03596
8.49743
9.32505
9.2149
8.94103
8.65124
8.40545
8.16962
7.89993
0.999995
0.999996
1
1.00001
1.00004
1.00009
1.00026
1.00053
1.00152
1.00303
1.009
1.01655
1.05659
1.09648
1.36103
1.75073
3.37745
7.03787
9.19191
9.17816
9.03159
8.73867
8.52724
8.33351
8.09799
0.999994
0.999995
0.999998
1.00001
1.00002
1.00008
1.00017
1.0005
1.00102
1.00289
1.00582
1.017
1.03249
1.1058
1.19771
1.68442
2.5862
5.47254
9.01042
9.23345
9.14068
8.92328
8.71888
8.5318
8.30883
0.999993
0.999994
0.999996
1
1.00002
1.00006
1.00013
1.00038
1.00079
1.00223
1.00452
1.01295
1.02578
1.07721
1.15596
1.48725
2.13145
4.20217
8.51258
9.37686
9.3217
9.16734
8.95943
8.75332
8.51837
0.999993
0.999993
0.999995
0.999999
1.00001
1.00004
1.00011
1.00024
1.00069
1.0014
1.00399
1.00782
1.02408
1.04297
1.15338
1.27383
2.01911
3.34514
7.4504
9.48747
9.5142
9.43174
9.23767
8.9773
8.71085
0.999992
0.999993
0.999994
0.999997
1.00001
1.00003
1.00009
1.00019
1.00055
1.00112
1.00318
1.00642
1.01862
1.03626
1.11521
1.21936
1.75747
2.75592
6.01056
9.5713
9.83312
9.73781
9.50744
9.18396
8.87922
0.999992
0.999992
0.999993
0.999996
1
1.00002
1.00005
1.00017
1.00035
1.001
1.00203
1.00578
1.01138
1.0349
1.06342
1.21869
1.44221
2.39625
4.56511
9.48207
10.1859
10.0645
9.77102
9.37181
9.02438
0.999992
0.999992
0.999992
0.999995
1
1.00002
1.00004
1.00013
1.00028
1.0008
1.00163
1.00465
1.00927
1.02794
1.05154
1.17908
1.33338
2.20644
3.88987
8.92927
10.3908
10.2919
10.0047
9.52914
9.14338
0.999991
0.999991
0.999992
0.999994
0.999999
1.00001
1.00004
1.00008
1.00025
1.00051
1.0015
1.00279
1.00928
1.01566
1.05868
1.09708
1.38179
1.78751
3.58777
7.71984
10.5985
10.5109
10.19
9.6481
9.24308
0.999991
0.999991
0.999992
0.999994
0.999997
1.00001
1.00002
1.00009
1.00019
1.00054
1.00111
1.00319
1.00629
1.0194
1.03481
1.12488
1.22123
1.82826
2.92096
6.62799
10.9532
10.783
10.3085
9.73348
9.32682
0.999991
0.999991
0.999992
0.999993
0.999996
1.00001
1.00002
1.00007
1.00016
1.00047
1.00097
1.00277
1.00561
1.01631
1.03216
1.10042
1.19529
1.66099
2.55664
5.56292
11.1995
10.9691
10.4009
9.81467
9.41301
0.999991
0.999991
0.999992
0.999992
0.999996
1
1.00002
1.00005
1.00016
1.00035
1.00099
1.00201
1.00579
1.01128
1.03565
1.06283
1.22931
1.44665
2.51176
4.9366
11.0109
10.9276
10.5232
9.90109
9.48833
0.999991
0.999991
0.999991
0.999992
0.999995
1
1.00002
1.00005
1.00015
1.00032
1.00091
1.00186
1.0053
1.01061
1.03176
1.05939
1.20285
1.39365
2.38681
4.46892
10.4708
10.8572
10.5774
9.99428
9.56329
0.999991
0.999991
0.999991
0.999992
0.999995
0.999999
1.00002
1.00004
1.00013
1.00029
1.00082
1.00168
1.0048
1.00964
1.02872
1.05414
1.18386
1.35173
2.2639
4.1055
9.81427
10.8774
10.6317
10.0853
9.63463
0.999991
0.999991
0.999991
0.999992
0.999994
0.999998
1.00001
1.00004
1.00012
1.00025
1.00072
1.00148
1.00427
1.00842
1.02612
1.04707
1.17064
1.31008
2.17147
3.82387
9.17523
10.9411
10.6988
10.1466
9.68936
0.999991
0.999991
0.999991
0.999992
0.999993
0.999998
1.00001
1.00003
1.00008
1.00025
1.0005
1.00153
1.00275
1.00969
1.016
1.06153
1.10191
1.4054
1.849
3.81051
8.49967
11.0384
10.7706
10.1697
9.72149
0.999991
0.999991
0.999991
0.999992
0.999993
0.999997
1.00001
1.00003
1.00009
1.00019
1.00057
1.00114
1.00351
1.00635
1.02233
1.03737
1.14332
1.25263
1.99189
3.31492
7.86589
11.2103
10.8777
10.1776
9.74085
0.999991
0.999991
0.999991
0.999992
0.999993
0.999997
1
1.00003
1.00007
1.00021
1.00044
1.00129
1.00253
1.00798
1.01399
1.0516
1.08521
1.33346
1.68822
3.25881
7.11213
11.4443
11.0194
10.1862
9.75149
0.999991
0.999991
0.999991
0.999992
0.999993
0.999997
1
1.00003
1.00006
1.00019
1.0004
1.00117
1.00232
1.00716
1.0127
1.04631
1.07622
1.29726
1.60699
2.99923
6.40672
11.6895
11.1611
10.2114
9.76497
0.999991
0.999991
0.999991
0.999991
0.999993
0.999995
1
1.00002
1.00007
1.00016
1.00047
1.00096
1.00276
1.00546
1.01673
1.03041
1.10732
1.19232
1.70236
2.63915
5.8961
11.849
11.2491
10.2458
9.79196
0.999991
0.999991
0.999991
0.999991
0.999992
0.999996
1
1.00002
1.00005
1.00017
1.00035
1.00101
1.00198
1.00619
1.01087
1.0396
1.06521
1.25057
1.50155
2.64958
5.45736
11.7893
11.2523
10.2942
9.84553
0.999991
0.999991
0.999991
0.999991
0.999993
0.999995
1
1.00002
1.00007
1.00015
1.00043
1.00088
1.00252
1.00511
1.01494
1.02897
1.09332
1.1744
1.61273
2.42971
5.33593
11.5442
11.1724
10.3589
9.91483
0.999991
0.999991
0.999991
0.999991
0.999993
0.999995
1
1.00002
1.00006
1.00014
1.00041
1.00084
1.0024
1.00485
1.01417
1.02763
1.08848
1.16612
1.58285
2.36378
5.15954
11.3286
11.086
10.4639
9.99197
0.999991
0.999991
0.999991
0.999991
0.999992
0.999995
1
1.00002
1.00005
1.00015
1.00032
1.00092
1.00186
1.00549
1.01031
1.03444
1.05907
1.2213
1.42333
2.49022
4.81827
11.1259
11.0369
10.6205
10.0715
0.999991
0.999991
0.999991
0.999991
0.999992
0.999994
1
1.00001
1.00005
1.00012
1.00036
1.00074
1.00215
1.00416
1.01326
1.02327
1.08496
1.14723
1.55458
2.26061
4.89076
10.9349
10.9843
10.6792
10.118
0.999991
0.999991
0.999991
0.999991
0.999992
0.999995
1
1.00002
1.00004
1.00014
1.0003
1.00087
1.00176
1.00516
1.00992
1.03214
1.05631
1.20898
1.39314
2.42433
4.55284
10.7509
11.0257
10.7412
10.1766
0.999991
0.999991
0.999991
0.999991
0.999992
0.999994
1
1.00001
1.00005
1.00012
1.00035
1.00071
1.00205
1.00404
1.01256
1.02232
1.08089
1.13892
1.52656
2.19219
4.70237
10.5775
11.0096
10.744
10.2067
0.999991
0.999991
0.999991
0.999991
0.999992
0.999994
1
1.00001
1.00005
1.00011
1.00034
1.0007
1.00201
1.00394
1.0123
1.02175
1.07918
1.1353
1.51629
2.16382
4.63735
10.4593
11.0313
10.7676
10.2319
0.999991
0.999991
0.999991
0.999991
0.999992
0.999995
1
1.00002
1.00004
1.00014
1.00029
1.00085
1.00173
1.00499
1.00986
1.03044
1.05527
1.19745
1.37322
2.35139
4.34547
10.3798
11.1256
10.8434
10.2659
0.999991
0.999991
0.999991
0.999991
0.999992
0.999995
1
1.00002
1.00004
1.00014
1.0003
1.00086
1.00176
1.00502
1.01003
1.03011
1.05617
1.19341
1.36994
2.32961
4.30371
10.3416
11.1697
10.8735
10.2709
1
1.00002
1.00006
1.00018
1.00037
1.00104
1.00209
1.00616
1.01143
1.03852
1.06538
1.24435
1.48633
2.59367
5.22095
11.0332
10.7927
10.3677
10.3074
10.3271
10.3174
10.2293
9.97623
9.39702
7.9508
1
1.00002
1.00005
1.00016
1.00033
1.00094
1.00192
1.00545
1.01088
1.03261
1.06066
1.20771
1.40431
2.40835
4.53592
10.4104
10.5306
10.3119
10.1364
10.1076
10.0412
9.86787
9.47902
8.7095
7.25008
1
1.00002
1.00005
1.00014
1.00029
1.00082
1.00166
1.00471
1.00946
1.02798
1.05285
1.17802
1.33923
2.21455
3.95355
9.31076
10.3336
10.2013
9.97121
9.88552
9.77073
9.52989
9.05826
8.30053
7.18749
1
1.00002
1.00004
1.00012
1.00024
1.00068
1.00139
1.00395
1.00783
1.02378
1.04314
1.15381
1.27494
2.03731
3.43886
8.08664
10.2098
10.0979
9.83855
9.67727
9.51971
9.2391
8.77282
8.09477
7.20827
1
1.00001
1.00003
1.0001
1.0002
1.00056
1.00115
1.00327
1.00645
1.01974
1.03554
1.12757
1.22568
1.84945
2.96696
6.80499
10.144
10.0289
9.73543
9.49555
9.30051
9.01418
8.58361
7.99106
7.25637
1
1.00001
1.00003
1.00006
1.00018
1.00038
1.00107
1.0021
1.0064
1.01137
1.04061
1.06723
1.2549
1.51485
2.65555
5.3264
9.9828
9.93941
9.68623
9.35652
9.12662
8.84871
8.4568
7.94046
7.32149
1
1.00001
1.00003
1.00006
1.00016
1.00032
1.00091
1.00185
1.00525
1.0105
1.03127
1.0586
1.19773
1.3869
2.31836
4.26321
9.41279
9.76974
9.59885
9.25198
8.99738
8.72913
8.3758
7.93041
7.39352
1
1.00001
1.00002
1.00004
1.00012
1.00025
1.00071
1.00145
1.00413
1.00816
1.02495
1.04515
1.16111
1.29168
2.08108
3.54859
8.12958
9.55863
9.45964
9.20231
8.91455
8.64848
8.33115
7.93966
7.47867
1
1.00001