/*--------------------------------*- C++ -*----------------------------------*\
| =========                 |                                                 |
| \\      /  F ield         | OpenFOAM: The Open Source CFD Toolbox           |
|  \\    /   O peration     | Version:  4.1                                   |
|   \\  /    A nd           | Web:      www.OpenFOAM.org                      |
|    \\/     M anipulation  |                                                 |
\*---------------------------------------------------------------------------*/
FoamFile
{
    version     2.0;
    format      ascii;
    class       surfaceScalarField;
    location    "10";
    object      phi;
}
// * * * * * * * * * * * * * * * * * * * * * * * * * * * * * * * * * * * * * //

dimensions      [1 0 -1 0 0 0 0];

internalField   nonuniform List<scalar> 
150500
(
0.0168001
1.76223e-10
-3.24439e-12
0.0168001
9.70216e-10
-1.14891e-11
0.0168
3.51013e-09
-1.34502e-11
0.0168
8.96695e-09
-2.15242e-11
0.0168
2.46757e-08
-2.22229e-11
0.0167999
5.62645e-08
-2.99706e-11
0.0167997
1.49098e-07
-3.28525e-11
0.0167994
3.25019e-07
-4.57581e-11
0.016798
9.23206e-07
-6.73764e-11
0.0167959
1.92082e-06
-1.14519e-10
0.0167876
6.22603e-06
-2.50118e-10
0.0167693
1.59471e-05
-6.71435e-10
0.0167037
5.80241e-05
-1.51274e-09
0.0164778
0.000200326
-5.72513e-09
0.0153365
0.00108379
-1.04154e-08
0.0141887
0.00115089
9.65564e-10
0.0130267
0.00116425
6.01594e-10
0.0117913
0.00123451
-3.02923e-10
0.0104695
0.00132031
-4.46483e-10
0.00903738
0.00143048
-5.27458e-10
0.0074799
0.00155546
-2.86683e-10
0.00579527
0.00168275
-1.18982e-10
0.00399449
0.00179922
-1.0986e-11
0.00207249
0.00192062
1.11822e-10
0.00207067
2.93547e-10
0.0168001
3.59582e-10
-3.25387e-12
0.0168001
1.97217e-09
-1.15426e-11
0.0168
7.13602e-09
-1.34476e-11
0.0168
1.81863e-08
-2.15375e-11
0.0168
5.01035e-08
-2.22126e-11
0.0167999
1.13973e-07
-2.99487e-11
0.0167997
3.02709e-07
-3.27807e-11
0.0167993
6.55963e-07
-4.55875e-11
0.016798
1.87995e-06
-6.70016e-11
0.0167958
3.86091e-06
-1.13595e-10
0.0167873
1.2727e-05
-2.48035e-10
0.0167688
3.20532e-05
-6.62918e-10
0.0167014
0.000117959
-1.49553e-09
0.0164759
0.000400551
-5.63486e-09
0.0153367
0.00216517
-1.03704e-08
0.0141845
0.00230631
9.81277e-10
0.0130368
0.00231431
5.88342e-10
0.0118106
0.00245968
-3.40366e-10
0.0104935
0.00263583
-4.74325e-10
0.00904908
0.00287324
-5.42961e-10
0.00747346
0.00312898
-3.02098e-10
0.00577094
0.00338344
-1.37075e-10
0.00394109
0.00362755
-2.63347e-11
0.00200161
0.0038586
9.56311e-11
0.00407049
2.73641e-10
0.0168001
5.51667e-10
-3.27578e-12
0.0168001
3.01426e-09
-1.16488e-11
0.0168
1.08556e-08
-1.3446e-11
0.0168
2.77527e-08
-2.15654e-11
0.0168
7.63098e-08
-2.21967e-11
0.0167999
1.7372e-07
-2.99109e-11
0.0167997
4.60031e-07
-3.26445e-11
0.0167993
9.95694e-07
-4.51795e-11
0.016798
2.8515e-06
-6.64126e-11
0.0167958
5.80369e-06
-1.10704e-10
0.0167872
1.9235e-05
-2.45953e-10
0.0167693
4.76176e-05
-6.39313e-10
0.0167038
0.000175971
-1.4695e-09
0.0164955
0.000584606
-5.43315e-09
0.0153975
0.00320447
-1.02999e-08
0.0142486
0.00345881
1.02319e-09
0.0131113
0.00345391
5.70758e-10
0.0118958
0.00367392
-3.97662e-10
0.010586
0.00394377
-5.15111e-10
0.00914436
0.00431334
-5.59114e-10
0.00756159
0.00470946
-3.19954e-10
0.00584435
0.00509871
-1.64742e-10
0.00399274
0.0054776
-5.78924e-11
0.00202332
0.00582655
5.17034e-11
0.00609198
1.89777e-10
0.0168001
8.42482e-10
-3.31101e-12
0.0168001
4.00392e-09
-1.17983e-11
0.0168
1.52051e-08
-1.34501e-11
0.0168
3.8594e-08
-2.1597e-11
0.0168
1.0639e-07
-2.21876e-11
0.0167999
2.42703e-07
-2.98853e-11
0.0167997
6.36963e-07
-3.25015e-11
0.0167992
1.41094e-06
-4.47015e-11
0.0167979
3.82544e-06
-6.56566e-11
0.0167951
8.30109e-06
-1.04494e-10
0.0167876
2.47301e-05
-2.45276e-10
0.016769
6.3829e-05
-5.92723e-10
0.0167095
0.000228014
-1.43961e-09
0.0165351
0.000736156
-5.12768e-09
0.015516
0.00416335
-1.02856e-08
0.014378
0.00460096
9.98686e-10
0.0132481
0.00458658
4.92354e-10
0.0120452
0.00487498
-4.62155e-10
0.0107479
0.00523899
-5.56633e-10
0.00932069
0.00573841
-5.75315e-10
0.0077463
0.0062819
-3.60415e-10
0.00601085
0.00683182
-2.25234e-10
0.00412765
0.00735853
-1.31572e-10
0.00210397
0.00784848
-4.67586e-11
0.0081939
4.13643e-11
0.0168001
9.40986e-10
-3.53272e-12
0.0168001
5.22308e-09
-1.16118e-11
0.0168
1.93779e-08
-1.37258e-11
0.0168
4.9791e-08
-2.15232e-11
0.0168
1.37166e-07
-2.23981e-11
0.0167999
3.14253e-07
-2.99869e-11
0.0167997
8.20348e-07
-3.29218e-11
0.0167992
1.84364e-06
-4.70001e-11
0.0167978
4.84303e-06
-6.28554e-11
0.0167949
1.08788e-05
-1.29529e-10
0.0167873
3.03394e-05
-1.83183e-10
0.0167698
7.91409e-05
-6.5376e-10
0.0167108
0.00027846
-1.24025e-09
0.0165583
0.000868246
-4.37653e-09
0.0156047
0.00505428
-1.00387e-08
0.0144799
0.00572946
8.26196e-10
0.0133696
0.00569871
2.47776e-10
0.0121962
0.00604555
-5.92377e-10
0.0109301
0.00650273
-6.30561e-10
0.00953193
0.00713429
-5.91465e-10
0.00798214
0.00782917
-4.20077e-10
0.00626461
0.00854744
-3.27152e-10
0.00434894
0.00927298
-2.45849e-10
0.00224251
0.00995313
-1.80617e-10
0.0104341
-1.33151e-10
0.0168001
1.16595e-09
-3.49467e-12
0.0168001
6.42935e-09
-1.16225e-11
0.0168
2.39379e-08
-1.37293e-11
0.0168
6.14459e-08
-2.15377e-11
0.0168
1.69862e-07
-2.24045e-11
0.0167999
3.90999e-07
-2.99902e-11
0.0167997
1.01193e-06
-3.28497e-11
0.0167991
2.35504e-06
-4.68301e-11
0.0167978
5.72893e-06
-6.19013e-11
0.0167943
1.405e-05
-1.2785e-10
0.0167876
3.51027e-05
-1.73747e-10
0.0167702
9.43502e-05
-6.19903e-10
0.0167189
0.00032133
-1.16215e-09
0.0165671
0.00100124
-4.0528e-09
0.0157003
0.00585587
-9.86182e-09
0.014579
0.00685547
8.32716e-10
0.0134929
0.00678597
9.73954e-11
0.0123617
0.00717358
-6.74034e-10
0.0111525
0.00770856
-6.71492e-10
0.00981197
0.00847264
-5.85899e-10
0.00829775
0.00934037
-4.66301e-10
0.00658775
0.0102545
-3.96602e-10
0.00464798
0.0112104
-3.39536e-10
0.00244252
0.0121565
-3.08524e-10
0.0128741
-3.10792e-10
0.0168001
1.2372e-09
-3.43472e-12
0.0168001
6.8288e-09
-1.16587e-11
0.0168001
2.5456e-08
-1.36853e-11
0.0168
6.52545e-08
-2.15665e-11
0.0168
1.80517e-07
-2.23864e-11
0.0168
4.13819e-07
-3.00306e-11
0.0167999
1.08407e-06
-3.27675e-11
0.0167997
2.443e-06
-4.66779e-11
0.0167987
6.41142e-06
-6.13665e-11
0.0167982
1.42816e-05
-1.17213e-10
0.0167889
4.23115e-05
-2.18958e-10
0.0167784
0.000102689
-5.41013e-10
0.0167227
0.000369004
-1.08751e-09
0.0165711
0.00113288
-3.93614e-09
0.0158243
0.00653467
-9.7488e-09
0.0146826
0.00800354
1.01485e-09
0.0136147
0.00785481
6.17663e-11
0.0125359
0.00824863
-7.06373e-10
0.0113938
0.00884709
-6.80698e-10
0.0101449
0.00971906
-5.72578e-10
0.00870669
0.0107765
-4.96938e-10
0.00704279
0.0119159
-4.66293e-10
0.00509087
0.0131598
-4.27725e-10
0.00276713
0.0144782
-4.20352e-10
0.0156385
-4.68947e-10
0.0168001
1.22135e-09
-3.37788e-12
0.0168001
6.80449e-09
-1.16707e-11
0.0168001
2.53581e-08
-1.36501e-11
0.0168001
6.50007e-08
-2.15406e-11
0.0168
1.78879e-07
-2.22788e-11
0.0168
4.05741e-07
-2.98053e-11
0.0168
1.08529e-06
-3.22086e-11
0.0168001
2.26101e-06
-4.46431e-11
0.0167992
6.96807e-06
-6.01541e-11
0.0168004
1.2821e-05
-1.04012e-10
0.0167919
4.88725e-05
-2.15184e-10
0.0167914
0.000100935
-4.54236e-10
0.0167053
0.000447541
-1.27785e-09
0.0165949
0.00122768
-3.70694e-09
0.0160698
0.00698753
-9.91772e-09
0.0148786
0.00920424
1.1838e-09
0.0138135
0.00892256
1.02199e-10
0.0127922
0.0092671
-6.97095e-10
0.0117336
0.00990273
-6.58987e-10
0.0105695
0.0108799
-5.40444e-10
0.00923079
0.0121119
-4.82195e-10
0.00764173
0.013502
-4.73577e-10
0.00572423
0.0150748
-4.61678e-10
0.00328797
0.0169115
-4.84705e-10
0.0189235
-5.80102e-10
0.0168001
1.69504e-09
-3.34926e-12
0.0168001
7.66606e-09
-1.16331e-11
0.0168001
3.01791e-08
-1.37281e-11
0.0168
7.50479e-08
-2.15423e-11
0.0168
2.10762e-07
-2.23978e-11
0.0167999
4.70844e-07
-2.9969e-11
0.0167997
1.27464e-06
-3.25575e-11
0.0167993
2.64251e-06
-4.66814e-11
0.0167979
8.02854e-06
-5.78051e-11
0.0167967
1.39784e-05
-1.27659e-10
0.0167869
5.63903e-05
-1.57229e-10
0.0167857
0.000101176
-4.98663e-10
0.0167466
0.000478753
-1.12538e-09
0.0166895
0.00127133
-3.47147e-09
0.0166737
0.00692767
-9.81233e-09
0.0153527
0.0105351
9.53467e-10
0.0141935
0.0100857
8.65156e-11
0.0131838
0.0102746
-6.92786e-10
0.0122132
0.0108712
-6.74595e-10
0.0111564
0.0119357
-5.74631e-10
0.0099325
0.0133338
-5.05019e-10
0.00852738
0.0149047
-4.92484e-10
0.0067738
0.0168257
-4.89315e-10
0.0042538
0.0194296
-5.0265e-10
0.0231744
-6.38058e-10
0.0168001
-3.3994e-12
3.24369e-09
0.0168001
-1.15153e-11
3.61974e-09
0.0168
-1.38793e-11
4.56745e-08
0.0168001
-2.14992e-11
4.74205e-08
0.0168
-2.22874e-11
3.09248e-07
0.0168001
-2.94432e-11
3.12045e-07
0.0167994
-3.12732e-11
1.90143e-06
0.0168004
-4.20033e-11
1.65982e-06
0.0167957
-5.59016e-11
1.24129e-05
0.016803
-9.41116e-11
6.47161e-06
0.0167692
-1.77251e-10
8.83079e-05
0.0168288
-4.02314e-10
4.01627e-05
0.0166782
-1.10403e-09
0.000621418
0.0168942
-3.13014e-09
0.00104318
0.0177673
-9.40974e-09
0.00597771
0.0162896
-1.5767e-10
0.0120175
0.0149015
-1.78193e-10
0.0114802
0.0138862
-7.50936e-10
0.0112895
0.0128911
-7.52994e-10
0.0118627
0.0119564
-6.42237e-10
0.0128666
0.0109465
-5.18639e-10
0.0143401
0.00980271
-4.91282e-10
0.016045
0.0082403
-4.71296e-10
0.0183852
0.00587064
-4.78313e-10
0.0217964
-6.09112e-10
0.029042
0.0168001
1.7146e-10
-1.3501e-15
0.0168001
9.36394e-10
-6.4795e-15
0.0168
3.48121e-09
-1.85078e-14
0.0168
8.92956e-09
-3.9455e-14
0.0168
2.46443e-08
-1.01921e-13
0.0167999
5.62429e-08
-2.02715e-13
0.0167997
1.49111e-07
-5.65475e-13
0.0167994
3.25116e-07
-1.06697e-12
0.016798
9.23482e-07
-3.56066e-12
0.0167959
1.92161e-06
-5.93527e-12
0.0167876
6.22803e-06
-2.34882e-11
0.0167692
1.59544e-05
-5.4827e-11
0.0167037
5.80465e-05
-1.64484e-10
0.0164775
0.000200456
-5.53445e-10
0.0153358
0.00108414
-1.16265e-09
0.0141878
0.00115106
2.16678e-11
0.0130258
0.00116439
-3.49347e-12
0.0117903
0.00123458
-7.64305e-11
0.0104685
0.00132033
-7.63813e-11
0.0090364
0.00143049
-8.85268e-11
0.00747893
0.00155546
-7.22591e-11
0.00579431
0.00168274
-1.01157e-10
0.00399356
0.00179918
-1.07159e-10
0.00207177
0.00192042
-9.30307e-11
0.00206996
-7.69418e-11
0.0168001
3.4865e-10
-1.34937e-15
0.0168001
1.90428e-09
-6.47751e-15
0.0168
7.07735e-09
-1.84871e-14
0.0168
1.81111e-08
-3.94089e-14
0.0168
5.00395e-08
-1.01718e-13
0.0167999
1.13926e-07
-2.02305e-13
0.0167997
3.02725e-07
-5.63858e-13
0.0167993
6.56141e-07
-1.06424e-12
0.016798
1.88041e-06
-3.54637e-12
0.0167958
3.86275e-06
-5.91514e-12
0.0167873
1.27302e-05
-2.33897e-11
0.0167687
3.20704e-05
-5.44011e-11
0.0167013
0.000118003
-1.63582e-10
0.0164757
0.000400819
-5.47688e-10
0.0153359
0.00216589
-1.16332e-09
0.0141836
0.00230664
2.51083e-11
0.0130358
0.00231456
-2.67395e-12
0.0118096
0.00245981
-8.43937e-11
0.0104925
0.00263588
-9.51495e-11
0.00904806
0.00287326
-1.01019e-10
0.00747247
0.00312895
-7.37888e-11
0.00577003
0.00338334
-9.48233e-11
0.00394035
0.00362734
-1.07289e-10
0.00200114
0.00385813
-9.52626e-11
0.00406932
-7.65572e-11
0.0168001
5.30071e-10
-1.35441e-15
0.0168001
2.90336e-09
-6.50157e-15
0.0168
1.07861e-08
-1.85283e-14
0.0168
2.76443e-08
-3.95035e-14
0.0168
7.62154e-08
-1.01623e-13
0.0167999
1.73619e-07
-2.01969e-13
0.0167997
4.59973e-07
-5.612e-13
0.0167993
9.95681e-07
-1.05602e-12
0.016798
2.85178e-06
-3.5266e-12
0.0167958
5.80546e-06
-5.83401e-12
0.0167872
1.92378e-05
-2.32959e-11
0.0167693
4.76435e-05
-5.32848e-11
0.0167038
0.000176041
-1.62309e-10
0.0164952
0.000585026
-5.35703e-10
0.0153967
0.00320568
-1.16958e-09
0.0142476
0.00345933
3.32666e-11
0.0131103
0.00345425
-3.92093e-13
0.0118947
0.0036741
-8.6808e-11
0.0105849
0.00394384
-8.65084e-11
0.00914323
0.00431335
-1.00467e-10
0.00756053
0.00470937
-7.04988e-11
0.00584344
0.00509846
-7.05676e-11
0.00399206
0.00547716
-1.07492e-10
0.00202296
0.00582577
-1.01661e-10
0.00609046
-7.79802e-11
0.0168001
7.42484e-10
-1.37249e-15
0.0168001
4.04655e-09
-6.57354e-15
0.0168
1.5037e-08
-1.87569e-14
0.0168
3.85381e-08
-4.0031e-14
0.0168
1.06198e-07
-1.02519e-13
0.0167999
2.4252e-07
-2.03693e-13
0.0167997
6.36607e-07
-5.60148e-13
0.0167992
1.40968e-06
-1.04576e-12
0.0167979
3.8261e-06
-3.50985e-12
0.0167951
8.29011e-06
-5.5753e-12
0.0167876
2.47562e-05
-2.33739e-11
0.0167691
6.38198e-05
-5.09095e-11
0.0167094
0.000228149
-1.61519e-10
0.0165347
0.000736876
-5.18222e-10
0.015515
0.00416511
-1.18701e-09
0.0143769
0.00460148
4.23332e-11
0.0132472
0.00458677
5.92873e-13
0.0120444
0.00487509
-8.91326e-11
0.0107472
0.00523903
-9.45634e-11
0.00931993
0.00573842
-9.81387e-11
0.00774559
0.00628176
-8.65204e-11
0.00601021
0.00683148
-6.62332e-11
0.00412717
0.00735793
-9.73947e-11
0.00210373
0.00784747
-1.09168e-10
0.00819214
-1.03952e-10
0.0168001
9.55621e-10
-1.42504e-15
0.0168001
5.20984e-09
-6.80995e-15
0.0168
1.93785e-08
-1.95487e-14
0.0168
4.97629e-08
-4.18271e-14
0.0168
1.37139e-07
-1.08043e-13
0.0167999
3.14203e-07
-2.17339e-13
0.0167997
8.20311e-07
-5.88931e-13
0.0167992
1.84361e-06
-1.20029e-12
0.0167978
4.84327e-06
-3.38718e-12
0.0167949
1.08797e-05
-7.05894e-12
0.0167873
3.03447e-05
-2.01742e-11
0.0167697
7.91632e-05
-5.43686e-11
0.0167108
0.000278552
-1.52128e-10
0.0165586
0.000868666
-4.77436e-10
0.015605
0.00505593
-1.19833e-09
0.0144801
0.00573007
4.98338e-11
0.0133697
0.00569903
-4.90119e-12
0.0121962
0.00604576
-9.46146e-11
0.01093
0.00650284
-9.91162e-11
0.00953176
0.00713439
-9.68859e-11
0.00798191
0.00782911
-7.12022e-11
0.00626434
0.0085471
-7.93383e-11
0.00434875
0.0092723
-6.88239e-11
0.00224243
0.00995204
-7.20132e-11
0.0104323
-1.02477e-10
0.0168001
1.1954e-09
-1.42277e-15
0.0168001
6.43567e-09
-6.80538e-15
0.0168
2.39751e-08
-1.95067e-14
0.0168
6.14617e-08
-4.17209e-14
0.0168
1.69897e-07
-1.07552e-13
0.0167999
3.91025e-07
-2.16155e-13
0.0167996
1.01204e-06
-5.84868e-13
0.0167991
2.35532e-06
-1.18569e-12
0.0167978
5.72969e-06
-3.36502e-12
0.0167943
1.40561e-05
-6.89913e-12
0.0167876
3.50878e-05
-2.01359e-11
0.0167702
9.43902e-05
-5.21268e-11
0.0167189
0.000321415
-1.50812e-10
0.0165672
0.00100148
-4.63844e-10
0.0157006
0.00585727
-1.2232e-09
0.0145795
0.00685585
7.08499e-11
0.0134935
0.00678627
-5.07577e-12
0.0123621
0.00717383
-9.75743e-11
0.0111529
0.00770874
-9.94788e-11
0.00981231
0.0084728
-9.37414e-11
0.00829798
0.0093404
-7.8638e-11
0.00658789
0.0102542
-8.33901e-11
0.00464805
0.0112098
-8.50111e-11
0.00244258
0.0121554
-7.13802e-11
0.0128723
-7.71149e-11
0.0168001
1.26504e-09
-1.43289e-15
0.0168001
6.84534e-09
-6.82292e-15
0.0168001
2.54936e-08
-1.96616e-14
0.0168
6.5293e-08
-4.21856e-14
0.0168
1.80596e-07
-1.09084e-13
0.0168
4.13966e-07
-2.21348e-13
0.0167999
1.08441e-06
-5.92513e-13
0.0167997
2.44409e-06
-1.24781e-12
0.0167987
6.41252e-06
-3.31233e-12
0.0167982
1.42884e-05
-7.09209e-12
0.0167889
4.23174e-05
-2.12934e-11
0.0167784
0.000102737
-5.18812e-11
0.0167228
0.000368967
-1.36454e-10
0.0165711
0.00113316
-4.67114e-10
0.0158243
0.00653599
-1.24321e-09
0.0146829
0.00800354
1.00757e-10
0.0136153
0.00785492
-3.99209e-12
0.0125366
0.00824881
-1.01422e-10
0.0113944
0.00884729
-1.01164e-10
0.0101454
0.00971927
-9.31749e-11
0.00870717
0.0107766
-8.58741e-11
0.00704319
0.0119158
-7.89607e-11
0.00509117
0.0131593
-8.61054e-11
0.0027673
0.0144773
-7.21838e-11
0.015637
-7.91741e-11
0.0168001
1.23372e-09
-1.26923e-15
0.0168001
6.83163e-09
-6.13416e-15
0.0168001
2.53455e-08
-1.72616e-14
0.0168001
6.49987e-08
-3.67189e-14
0.0168
1.78833e-07
-9.3679e-14
0.0168
4.05691e-07
-1.85492e-13
0.0168
1.08522e-06
-5.15287e-13
0.0168001
2.26058e-06
-9.59974e-13
0.0167992
6.96984e-06
-3.23632e-12
0.0168004
1.28141e-05
-5.36891e-12
0.0167919
4.89054e-05
-2.15339e-11
0.0167915
0.000100927
-4.04849e-11
0.0167052
0.000447698
-1.73631e-10
0.0165946
0.00122799
-4.48729e-10
0.0160689
0.00698948
-1.29317e-09
0.0148782
0.0092037
1.3308e-10
0.0138136
0.00892216
7.8917e-12
0.0127926
0.00926699
-1.0324e-10
0.0117341
0.00990278
-1.03125e-10
0.0105701
0.01088
-9.41748e-11
0.00923142
0.012112
-8.26017e-11
0.00764227
0.0135019
-8.07596e-11
0.00572466
0.0150744
-7.82905e-11
0.00328823
0.0169108
-8.21144e-11
0.0189222
-9.28339e-11
0.0168001
1.65596e-09
-1.08595e-15
0.0168001
7.7838e-09
-5.36389e-15
0.0168
3.00041e-08
-1.45515e-14
0.0168
7.49405e-08
-3.06237e-14
0.0168
2.10582e-07
-7.5958e-14
0.0167999
4.70899e-07
-1.45238e-13
0.0167997
1.275e-06
-4.25098e-13
0.0167993
2.64455e-06
-6.12853e-13
0.0167979
8.03031e-06
-3.24321e-12
0.0167966
1.39928e-05
-2.28031e-12
0.0167869
5.63987e-05
-2.64057e-11
0.0167856
0.000101233
-3.17753e-11
0.0167466
0.000478881
-1.80159e-10
0.0166892
0.00127182
-4.34601e-10
0.0166722
0.00693081
-1.32337e-09
0.0153518
0.010534
1.14723e-10
0.0141932
0.0100847
1.62152e-11
0.0131839
0.0102741
-1.07251e-10
0.0122134
0.010871
-1.12681e-10
0.0111568
0.0119355
-9.83902e-11
0.00993302
0.0133337
-9.87071e-11
0.00852794
0.0149046
-8.41986e-11
0.00677428
0.0168254
-9.11436e-11
0.00425413
0.0194289
-8.62426e-11
0.0231735
-9.17277e-11
0.0168001
-1.16206e-15
3.11219e-09
0.0168001
-5.61399e-15
4.01605e-09
0.0168
-1.5646e-14
4.44856e-08
0.0168001
-3.33583e-14
4.79241e-08
0.0168
-8.40074e-14
3.08018e-07
0.0168001
-1.68108e-13
3.1275e-07
0.0167994
-4.55601e-13
1.90069e-06
0.0168004
-8.9454e-13
1.66172e-06
0.0167957
-2.88922e-12
1.24137e-05
0.016803
-4.13008e-12
6.48235e-06
0.0167692
-2.22581e-11
8.83308e-05
0.0168287
-3.17867e-11
4.02116e-05
0.0166781
-1.63491e-10
0.000621666
0.0168937
-4.03514e-10
0.00104397
0.0177646
-1.30098e-09
0.00598306
0.0162877
-2.95211e-11
0.0120156
0.0149005
-2.3724e-11
0.0114783
0.0138857
-1.29646e-10
0.0112885
0.0128912
-1.27869e-10
0.0118621
0.0119566
-1.1167e-10
0.0128663
0.0109469
-9.22028e-11
0.0143398
0.0098032
-1.06714e-10
0.0160447
0.00824078
-9.68375e-11
0.0183849
0.00587102
-8.16703e-11
0.0217959
-9.03923e-11
0.0290415
0.0168001
1.7146e-10
6.32446e-17
0.0168001
9.36395e-10
-6.63672e-16
0.0168
3.48122e-09
-2.21094e-15
0.0168
8.92959e-09
-4.76545e-15
0.0168
2.46444e-08
-1.38373e-14
0.0167999
5.62431e-08
-2.80927e-14
0.0167997
1.49112e-07
-8.32359e-14
0.0167994
3.25118e-07
-1.5829e-13
0.016798
9.23491e-07
-5.42138e-13
0.0167959
1.92163e-06
-9.03017e-13
0.0167876
6.22811e-06
-3.62375e-12
0.0167692
1.59547e-05
-8.45806e-12
0.0167037
5.80477e-05
-2.55372e-11
0.0164775
0.000200465
-8.60343e-11
0.0153358
0.00108416
-1.81731e-10
0.0141878
0.00115106
2.06216e-12
0.0130258
0.00116439
-1.32104e-12
0.0117903
0.00123458
-1.37157e-11
0.0104685
0.00132032
-1.54939e-11
0.00903638
0.00143049
-1.6557e-11
0.00747891
0.00155545
-1.45009e-11
0.00579428
0.00168274
-1.35052e-11
0.00399354
0.00179918
-1.33926e-11
0.00207176
0.00192041
-1.3219e-11
0.00206994
-1.27223e-11
0.0168001
3.48648e-10
6.34843e-17
0.0168001
1.90427e-09
-4.85638e-16
0.0168
7.07733e-09
-2.20781e-15
0.0168
1.8111e-08
-4.75901e-15
0.0168
5.00395e-08
-1.38109e-14
0.0167999
1.13926e-07
-2.80408e-14
0.0167997
3.02726e-07
-8.30219e-14
0.0167993
6.56144e-07
-1.57937e-13
0.016798
1.88042e-06
-5.40159e-13
0.0167958
3.8628e-06
-9.00226e-13
0.0167873
1.27303e-05
-3.61002e-12
0.0167687
3.20712e-05
-8.39517e-12
0.0167013
0.000118006
-2.54075e-11
0.0164756
0.000400837
-8.51745e-11
0.0153359
0.00216593
-1.81913e-10
0.0141836
0.00230664
2.53055e-12
0.0130358
0.00231456
-1.43465e-12
0.0118095
0.00245981
-1.40352e-11
0.0104924
0.00263587
-1.56972e-11
0.00904803
0.00287326
-1.66119e-11
0.00747244
0.00312894
-1.45367e-11
0.00577001
0.00338334
-1.35592e-11
0.00394033
0.00362733
-1.3413e-11
0.00200113
0.00385812
-1.32028e-11
0.00406929
-1.26712e-11
0.0168001
5.30065e-10
6.28244e-17
0.0168001
2.90333e-09
-4.89638e-16
0.0168
1.0786e-08
-2.21403e-15
0.0168
2.76439e-08
-4.7747e-15
0.0168
7.62144e-08
-1.38069e-14
0.0167999
1.73616e-07
-2.80158e-14
0.0167997
4.5997e-07
-8.26952e-14
0.0167993
9.95672e-07
-1.56861e-13
0.016798
2.85177e-06
-5.37569e-13
0.0167958
5.80551e-06
-8.88656e-13
0.0167872
1.92378e-05
-3.59834e-12
0.0167693
4.76448e-05
-8.23016e-12
0.0167038
0.000176045
-2.523e-11
0.0164952
0.000585053
-8.33966e-11
0.0153966
0.00320574
-1.83076e-10
0.0142476
0.00345934
3.63301e-12
0.0131102
0.00345425
-1.74081e-12
0.0118946
0.00367411
-1.46081e-11
0.0105848
0.00394384
-1.60983e-11
0.0091432
0.00431335
-1.67552e-11
0.0075605
0.00470936
-1.46413e-11
0.00584341
0.00509845
-1.37258e-11
0.00399205
0.00547714
-1.35818e-11
0.00202295
0.00582575
-1.33539e-11
0.00609042
-1.29015e-11
0.0168001
7.42454e-10
6.00868e-17
0.0168001
4.0464e-09
-6.75071e-16
0.0168
1.50365e-08
-2.24815e-15
0.0168
3.85367e-08
-4.85533e-15
0.0168
1.06195e-07
-1.39562e-14
0.0167999
2.42511e-07
-2.83125e-14
0.0167997
6.36588e-07
-8.26564e-14
0.0167992
1.4096e-06
-1.55624e-13
0.0167979
3.82612e-06
-5.35585e-13
0.0167951
8.28943e-06
-8.51671e-13
0.0167876
2.47575e-05
-3.6121e-12
0.0167691
6.3819e-05
-7.88315e-12
0.0167094
0.000228156
-2.5127e-11
0.0165347
0.000736919
-8.08284e-11
0.0155149
0.0041652
-1.86109e-10
0.0143769
0.00460148
4.76419e-12
0.0132472
0.00458677
-1.81956e-12
0.0120444
0.00487509
-1.53114e-11
0.0107471
0.00523902
-1.65728e-11
0.0093199
0.00573842
-1.69129e-11
0.00774557
0.00628176
-1.48521e-11
0.0060102
0.00683147
-1.40145e-11
0.00412715
0.00735791
-1.39093e-11
0.00210372
0.00784744
-1.37844e-11
0.0081921
-1.35249e-11
0.0168001
9.55621e-10
5.01604e-17
0.0168001
5.20982e-09
-7.09963e-16
0.0168
1.93785e-08
-2.37222e-15
0.0168
4.97627e-08
-5.13744e-15
0.0168
1.37138e-07
-1.48319e-14
0.0167999
3.14202e-07
-3.04681e-14
0.0167997
8.20309e-07
-8.72345e-14
0.0167992
1.8436e-06
-1.7969e-13
0.0167978
4.84325e-06
-5.17662e-13
0.0167949
1.08797e-05
-1.08156e-12
0.0167873
3.03446e-05
-3.12717e-12
0.0167697
7.91644e-05
-8.4239e-12
0.0167108
0.000278556
-2.3758e-11
0.0165586
0.000868692
-7.46601e-11
0.015605
0.00505603
-1.88425e-10
0.0144801
0.00573007
5.55647e-12
0.0133697
0.00569903
-2.33739e-12
0.0121962
0.00604576
-1.6594e-11
0.01093
0.00650283
-1.73508e-11
0.00953177
0.00713439
-1.70745e-11
0.00798191
0.00782911
-1.52175e-11
0.00626434
0.00854709
-1.47406e-11
0.00434875
0.00927228
-1.45482e-11
0.00224243
0.00995201
-1.44417e-11
0.0104322
-1.43637e-11
0.0168001
1.1954e-09
5.02003e-17
0.0168001
6.43569e-09
-5.4306e-16
0.0168
2.39752e-08
-2.36957e-15
0.0168
6.14619e-08
-5.12947e-15
0.0168
1.69898e-07
-1.47813e-14
0.0167999
3.91026e-07
-3.0336e-14
0.0167996
1.01204e-06
-8.6772e-14
0.0167991
2.35532e-06
-1.77745e-13
0.0167978
5.72975e-06
-5.15438e-13
0.0167943
1.40562e-05
-1.0589e-12
0.0167876
3.50875e-05
-3.13034e-12
0.0167702
9.4391e-05
-8.09705e-12
0.0167189
0.000321425
-2.36299e-11
0.0165672
0.00100149
-7.27768e-11
0.0157006
0.00585737
-1.93003e-10
0.0145795
0.00685583
8.41632e-12
0.0134935
0.00678626
-2.93342e-12
0.0123622
0.00717383
-1.74617e-11
0.0111529
0.00770875
-1.78245e-11
0.00981233
0.0084728
-1.70247e-11
0.008298
0.00934041
-1.54895e-11
0.0065879
0.0102542
-1.49943e-11
0.00464805
0.0112098
-1.492e-11
0.00244258
0.0121554
-1.49841e-11
0.0128722
-1.51692e-11
0.0168001
1.26512e-09
4.79556e-17
0.0168001
6.84573e-09
-7.15243e-16
0.0168001
2.54951e-08
-2.39764e-15
0.0168
6.52968e-08
-5.20953e-15
0.0168
1.80607e-07
-1.50442e-14
0.0168
4.13992e-07
-3.11886e-14
0.0167999
1.08447e-06
-8.81352e-14
0.0167997
2.44427e-06
-1.87732e-13
0.0167987
6.41271e-06
-5.08622e-13
0.0167982
1.42895e-05
-1.092e-12
0.0167889
4.23182e-05
-3.31765e-12
0.0167784
0.000102743
-8.08665e-12
0.0167228
0.000368954
-2.1481e-11
0.0165711
0.00113318
-7.35424e-11
0.0158243
0.0065361
-1.96962e-10
0.014683
0.00800349
1.27524e-11
0.0136153
0.0078549
-3.79563e-12
0.0125366
0.00824881
-1.82222e-11
0.0113944
0.0088473
-1.82355e-11
0.0101455
0.00971927
-1.69558e-11
0.00870719
0.0107766
-1.57813e-11
0.0070432
0.0119158
-1.55248e-11
0.00509118
0.0131593
-1.54008e-11
0.00276731
0.0144773
-1.54825e-11
0.0156369
-1.5871e-11
0.0168001
1.2338e-09
7.63693e-17
0.0168001
6.83202e-09
-6.11387e-16
0.0168001
2.5347e-08
-2.03315e-15
0.0168001
6.50026e-08
-4.37831e-15
0.0168
1.78844e-07
-1.27007e-14
0.0168
4.05717e-07
-2.57198e-14
0.0168
1.08528e-06
-7.64223e-14
0.0168001
2.26077e-06
-1.43628e-13
0.0167992
6.96996e-06
-4.98487e-13
0.0168004
1.28156e-05
-8.27765e-13
0.0167919
4.89039e-05
-3.36662e-12
0.0167915
0.000100932
-6.33807e-12
0.0167052
0.000447701
-2.73563e-11
0.0165946
0.00122802
-7.09245e-11
0.0160688
0.00698969
-2.05537e-10
0.0148782
0.00920359
1.77059e-11
0.0138136
0.00892209
-1.09131e-12
0.0127926
0.00926696
-1.82686e-11
0.0117341
0.00990277
-1.825e-11
0.0105701
0.01088
-1.71185e-11
0.00923144
0.012112
-1.58365e-11
0.00764229
0.0135019
-1.56513e-11
0.00572468
0.0150744
-1.56012e-11
0.00328824
0.0169108
-1.57733e-11
0.0189222
-1.63063e-11
0.0168001
1.65597e-09
1.03801e-16
0.0168001
7.78387e-09
-2.9516e-16
0.0168
3.00043e-08
-1.62258e-15
0.0168
7.49409e-08
-3.45596e-15
0.0168
2.10584e-07
-1.0014e-14
0.0167999
4.70899e-07
-1.96128e-14
0.0167997
1.27501e-06
-6.27782e-14
0.0167993
2.6445e-06
-9.0473e-14
0.0167979
8.03058e-06
-5.01393e-13
0.0167966
1.39925e-05
-3.5051e-13
0.0167869
5.6401e-05
-4.13833e-12
0.0167856
0.000101235
-4.99568e-12
0.0167466
0.000478902
-2.84472e-11
0.0166892
0.00127187
-6.88811e-11
0.0166719
0.00693122
-2.10775e-10
0.0153516
0.0105338
1.49984e-11
0.0141931
0.0100845
8.73509e-13
0.0131838
0.010274
-1.82294e-11
0.0122134
0.010871
-1.89512e-11
0.0111568
0.0119355
-1.85211e-11
0.00993303
0.0133337
-1.66344e-11
0.00852796
0.0149046
-1.61557e-11
0.00677429
0.0168254
-1.60072e-11
0.00425414
0.0194289
-1.59472e-11
0.0231735
-1.67289e-11
0.0168001
9.25307e-17
3.11228e-09
0.0168001
-5.34839e-16
4.01636e-09
0.0168
-1.79472e-15
4.44872e-08
0.0168001
-3.88934e-15
4.79269e-08
0.0168
-1.12997e-14
3.08031e-07
0.0168001
-2.32447e-14
3.12765e-07
0.0167994
-6.77797e-14
1.90079e-06
0.0168004
-1.34632e-13
1.66175e-06
0.0167957
-4.48255e-13
1.24145e-05
0.016803
-6.39131e-13
6.48206e-06
0.0167692
-3.50435e-12
8.83366e-05
0.0168287
-5.00689e-12
4.0213e-05
0.0166781
-2.58907e-11
0.00062171
0.0168936
-6.40832e-11
0.00104407
0.0177641
-2.07399e-10
0.00598383
0.0162874
-7.67357e-12
0.0120153
0.0149004
-5.10634e-12
0.011478
0.0138856
-2.09231e-11
0.0112883
0.0128911
-2.20013e-11
0.0118619
0.0119566
-2.12027e-11
0.0128662
0.0109469
-1.80467e-11
0.0143397
0.00980321
-1.71769e-11
0.0160447
0.00824079
-1.63039e-11
0.0183849
0.00587103
-1.57338e-11
0.0217959
-1.67002e-11
0.0290415
0.0168001
1.7146e-10
-1.23324e-16
0.0168001
9.36396e-10
-5.31275e-16
0.0168
3.48122e-09
-1.72024e-15
0.0168
8.92959e-09
-3.66804e-15
0.0168
2.46444e-08
-1.05492e-14
0.0167999
5.62431e-08
-2.13717e-14
0.0167997
1.49112e-07
-6.30478e-14
0.0167994
3.25118e-07
-1.20061e-13
0.016798
9.23492e-07
-4.08133e-13
0.0167959
1.92163e-06
-6.89289e-13
0.0167876
6.22812e-06
-2.65683e-12
0.0167692
1.59548e-05
-6.63941e-12
0.0167037
5.80479e-05
-1.75521e-11
0.0164775
0.000200467
-6.736e-11
0.0153358
0.00108416
-1.41434e-10
0.0141878
0.00115106
3.97617e-12
0.0130258
0.00116439
6.57961e-13
0.0117903
0.00123458
-6.40499e-12
0.0104685
0.00132032
-7.4769e-12
0.00903637
0.00143049
-7.88091e-12
0.0074789
0.00155545
-6.42218e-12
0.00579428
0.00168274
-5.71637e-12
0.00399354
0.00179918
-5.61688e-12
0.00207175
0.00192041
-5.47534e-12
0.00206994
-5.16493e-12
0.0168001
3.48648e-10
-1.23232e-16
0.0168001
1.90427e-09
-5.30855e-16
0.0168
7.07733e-09
-1.71835e-15
0.0168
1.8111e-08
-3.66423e-15
0.0168
5.00395e-08
-1.0532e-14
0.0167999
1.13926e-07
-2.13379e-14
0.0167997
3.02726e-07
-6.29005e-14
0.0167993
6.56144e-07
-1.19817e-13
0.016798
1.88042e-06
-4.06735e-13
0.0167958
3.86281e-06
-6.87195e-13
0.0167873
1.27303e-05
-2.64773e-12
0.0167687
3.20713e-05
-6.59018e-12
0.0167013
0.000118006
-1.74391e-11
0.0164756
0.000400839
-6.66607e-11
0.0153359
0.00216594
-1.41358e-10
0.0141836
0.00230664
4.3664e-12
0.0130358
0.00231456
6.92397e-13
0.0118095
0.00245981
-6.64148e-12
0.0104924
0.00263587
-7.64001e-12
0.00904802
0.00287326
-7.93722e-12
0.00747244
0.00312894
-6.46496e-12
0.00577001
0.00338333
-5.76937e-12
0.00394032
0.00362733
-5.64816e-12
0.00200113
0.00385812
-5.48706e-12
0.00406928
-5.1563e-12
0.0168001
5.30065e-10
-1.23842e-16
0.0168001
2.90333e-09
-5.33321e-16
0.0168
1.0786e-08
-1.72452e-15
0.0168
2.76439e-08
-3.67908e-15
0.0168
7.62143e-08
-1.05373e-14
0.0167999
1.73616e-07
-2.13361e-14
0.0167997
4.59969e-07
-6.26925e-14
0.0167993
9.9567e-07
-1.19069e-13
0.016798
2.85177e-06
-4.05011e-13
0.0167958
5.80551e-06
-6.78185e-13
0.0167872
1.92378e-05
-2.64191e-12
0.0167693
4.7645e-05
-6.45891e-12
0.0167038
0.000176045
-1.72777e-11
0.0164952
0.000585057
-6.52473e-11
0.0153966
0.00320575
-1.42028e-10
0.0142476
0.00345934
5.28472e-12
0.0131102
0.00345425
8.46952e-13
0.0118946
0.0036741
-7.0617e-12
0.0105848
0.00394383
-7.94893e-12
0.00914319
0.00431335
-8.05313e-12
0.00756049
0.00470936
-6.54961e-12
0.00584341
0.00509845
-5.89293e-12
0.00399204
0.00547714
-5.77282e-12
0.00202295
0.00582574
-5.60011e-12
0.00609041
-5.3158e-12
0.0168001
7.42449e-10
-1.25816e-16
0.0168001
4.04638e-09
-5.40721e-16
0.0168
1.50364e-08
-1.75197e-15
0.0168
3.85365e-08
-3.74359e-15
0.0168
1.06194e-07
-1.06648e-14
0.0167999
2.42509e-07
-2.15959e-14
0.0167997
6.36585e-07
-6.27481e-14
0.0167992
1.40959e-06
-1.18399e-13
0.0167979
3.82612e-06
-4.03728e-13
0.0167951
8.28932e-06
-6.50983e-13
0.0167876
2.47577e-05
-2.65428e-12
0.0167691
6.38189e-05
-6.18892e-12
0.0167094
0.000228157
-1.71459e-11
0.0165347
0.000736925
-6.32415e-11
0.0155149
0.00416522
-1.44127e-10
0.0143769
0.00460148
6.20732e-12
0.0132472
0.00458676
7.11198e-13
0.0120444
0.00487509
-7.59301e-12
0.0107471
0.00523902
-8.31833e-12
0.0093199
0.00573842
-8.17662e-12
0.00774557
0.00628175
-6.69518e-12
0.0060102
0.00683147
-6.08189e-12
0.00412715
0.00735791
-5.98483e-12
0.00210372
0.00784744
-5.87302e-12
0.00819209
-5.70269e-12
0.0168001
9.55621e-10
-1.33085e-16
0.0168001
5.20982e-09
-5.69407e-16
0.0168
1.93785e-08
-1.84962e-15
0.0168
4.97627e-08
-3.96393e-15
0.0168
1.37138e-07
-1.13373e-14
0.0167999
3.14202e-07
-2.3241e-14
0.0167997
8.20309e-07
-6.62481e-14
0.0167992
1.8436e-06
-1.36612e-13
0.0167978
4.84325e-06
-3.90624e-13
0.0167949
1.08797e-05
-8.26414e-13
0.0167873
3.03446e-05
-2.29906e-12
0.0167697
7.91646e-05
-6.62198e-12
0.0167108
0.000278556
-1.61229e-11
0.0165586
0.000868696
-5.83855e-11
0.015605
0.00505604
-1.45627e-10
0.0144801
0.00573007
6.83809e-12
0.0133697
0.00569902
-1.18798e-13
0.0121962
0.00604576
-8.60343e-12
0.01093
0.00650283