/*--------------------------------*- C++ -*----------------------------------*\
| =========                 |                                                 |
| \\      /  F ield         | OpenFOAM: The Open Source CFD Toolbox           |
|  \\    /   O peration     | Version:  4.1                                   |
|   \\  /    A nd           | Web:      www.OpenFOAM.org                      |
|    \\/     M anipulation  |                                                 |
\*---------------------------------------------------------------------------*/
FoamFile
{
    version     2.0;
    format      ascii;
    class       volScalarField;
    location    "10";
    object      T;
}
// * * * * * * * * * * * * * * * * * * * * * * * * * * * * * * * * * * * * * //

dimensions      [0 0 0 1 0 0 0];

internalField   nonuniform List<scalar> 
52500
(
0.999998
1.00003
1.00006
1.00021
1.00038
1.00123
1.00226
1.00687
1.01392
1.03704
1.09542
1.22543
1.6403
2.52285
2.71987
2.73129
2.72958
2.73205
2.74513
2.75695
2.76959
2.77775
2.78456
2.78877
2.79139
0.999998
1.00003
1.00006
1.00021
1.00038
1.00122
1.00224
1.00681
1.01378
1.03673
1.09445
1.22307
1.63491
2.51609
2.717
2.73079
2.72897
2.7312
2.74422
2.7559
2.76832
2.77643
2.78264
2.78653
2.78883
0.999997
1.00003
1.00006
1.0002
1.00037
1.0012
1.0022
1.0067
1.01349
1.03608
1.09241
1.21823
1.62328
2.50089
2.70995
2.72901
2.72703
2.72863
2.74177
2.75332
2.76563
2.7739
2.78025
2.78319
2.78446
0.999997
1.00002
1.00005
1.0002
1.00036
1.00116
1.00213
1.00652
1.01307
1.03512
1.08932
1.21105
1.60557
2.47589
2.69908
2.72625
2.7238
2.72426
2.73719
2.7484
2.76054
2.76702
2.77508
2.77885
2.77996
0.999996
1.00002
1.00005
1.00019
1.00034
1.00112
1.00204
1.00626
1.0125
1.0337
1.08568
1.20095
1.5839
2.44125
2.68461
2.72347
2.71933
2.7194
2.73134
2.74187
2.75495
2.76193
2.76609
2.76887
2.76943
0.999996
1.00002
1.00005
1.00018
1.00032
1.00105
1.00193
1.0059
1.01182
1.03178
1.08161
1.18787
1.55836
2.39402
2.66646
2.72036
2.71532
2.71266
2.72493
2.73163
2.74333
2.7515
2.75746
2.76017
2.76009
0.999996
1.00002
1.00004
1.00016
1.0003
1.00097
1.00179
1.00538
1.01105
1.02902
1.07709
1.17286
1.5282
2.33338
2.64311
2.71715
2.71076
2.70659
2.71842
2.72599
2.73271
2.73816
2.74149
2.74261
2.73982
0.999995
1.00002
1.00004
1.00015
1.00027
1.00088
1.00164
1.00487
1.01015
1.02626
1.07064
1.15627
1.48957
2.25493
2.61361
2.71118
2.70361
2.69561
2.70496
2.71317
2.72101
2.72322
2.72534
2.72309
2.7179
0.999995
1.00002
1.00003
1.00013
1.00025
1.00081
1.00148
1.00454
1.00906
1.02438
1.062
1.14207
1.42684
2.14067
2.57562
2.70479
2.69697
2.68698
2.69556
2.6997
2.70391
2.7035
2.69981
2.69177
2.66755
0.999995
1.00001
1.00003
1.00012
1.00022
1.00071
1.00131
1.00404
1.00795
1.02188
1.05295
1.12614
1.36036
2.02483
2.51546
2.68319
2.67736
2.66832
2.67976
2.68323
2.68594
2.6821
2.67021
2.647
2.59584
1.00001
1.00003
1.00006
1.00022
1.00039
1.00124
1.00227
1.00688
1.01393
1.03707
1.09546
1.22552
1.64048
2.52311
2.72002
2.73137
2.72967
2.73215
2.74523
2.75706
2.76969
2.77785
2.78466
2.78888
2.79148
1.00001
1.00003
1.00006
1.00021
1.00039
1.00123
1.00225
1.00682
1.01379
1.03675
1.09448
1.22315
1.6351
2.51636
2.71715
2.73088
2.72905
2.7313
2.74432
2.756
2.76841
2.77652
2.78273
2.78662
2.78891
1.00001
1.00003
1.00006
1.00021
1.00038
1.00121
1.00221
1.00671
1.01351
1.0361
1.09244
1.21831
1.62346
2.50116
2.71011
2.72909
2.72711
2.72873
2.74187
2.75342
2.76572
2.774
2.78035
2.78328
2.78455
1.00001
1.00003
1.00006
1.0002
1.00037
1.00117
1.00214
1.00653
1.01308
1.03514
1.08936
1.21112
1.60575
2.47618
2.69923
2.72634
2.72389
2.72435
2.73728
2.74849
2.76064
2.76711
2.77518
2.77895
2.78004
1.00001
1.00003
1.00006
1.00019
1.00035
1.00112
1.00205
1.00627
1.01252
1.03372
1.08571
1.20105
1.58402
2.44152
2.68475
2.72354
2.71941
2.71949
2.73143
2.74195
2.75504
2.76203
2.7662
2.76897
2.76951
1
1.00003
1.00006
1.00018
1.00033
1.00106
1.00194
1.00591
1.01183
1.03181
1.08163
1.18795
1.55848
2.3943
2.66659
2.72043
2.7154
2.71274
2.72501
2.73171
2.74341
2.75159
2.75755
2.76026
2.76017
1
1.00003
1.00005
1.00017
1.00031
1.00098
1.0018
1.00539
1.01106
1.02904
1.07712
1.17294
1.52832
2.33367
2.64324
2.71721
2.71083
2.70666
2.71849
2.72607
2.7328
2.73825
2.74158
2.7427
2.7399
1
1.00002
1.00005
1.00016
1.00028
1.00089
1.00165
1.00488
1.01016
1.02629
1.07067
1.15634
1.48974
2.25528
2.61375
2.71125
2.70369
2.69569
2.70504
2.71324
2.72107
2.72329
2.72542
2.72318
2.71798
1
1.00002
1.00004
1.00014
1.00026
1.00082
1.00149
1.00456
1.00907
1.02441
1.06202
1.14213
1.42698
2.14102
2.57576
2.70487
2.69705
2.68705
2.69564
2.6998
2.704
2.70359
2.69989
2.69185
2.66762
1
1.00002
1.00004
1.00012
1.00023
1.00072
1.00132
1.00405
1.00796
1.02189
1.05297
1.1262
1.3605
2.02519
2.51562
2.68329
2.67747
2.66842
2.67983
2.68329
2.68601
2.68217
2.67028
2.64708
2.5959
1.00001
1.00003
1.00006
1.00022
1.00039
1.00124
1.00227
1.00688
1.01393
1.03707
1.09546
1.22552
1.6405
2.52313
2.72003
2.73137
2.72967
2.73215
2.74523
2.75706
2.76969
2.77785
2.78467
2.78888
2.79148
1.00001
1.00003
1.00006
1.00021
1.00039
1.00123
1.00225
1.00682
1.01379
1.03675
1.09449
1.22316
1.63512
2.51638
2.71716
2.73088
2.72905
2.7313
2.74432
2.756
2.76841
2.77652
2.78274
2.78662
2.78891
1.00001
1.00003
1.00006
1.00021
1.00038
1.00121
1.00221
1.00671
1.01351
1.0361
1.09245
1.21832
1.62348
2.50118
2.71012
2.72909
2.72712
2.72873
2.74187
2.75342
2.76572
2.774
2.78035
2.78328
2.78455
1.00001
1.00003
1.00006
1.0002
1.00037
1.00117
1.00214
1.00653
1.01308
1.03514
1.08936
1.21113
1.60577
2.4762
2.69924
2.72634
2.72389
2.72435
2.73729
2.7485
2.76064
2.76711
2.77518
2.77895
2.78004
1.00001
1.00003
1.00006
1.00019
1.00035
1.00112
1.00205
1.00627
1.01252
1.03372
1.08571
1.20105
1.58404
2.44155
2.68476
2.72354
2.71941
2.71949
2.73143
2.74196
2.75504
2.76203
2.7662
2.76897
2.76951
1
1.00003
1.00006
1.00018
1.00033
1.00106
1.00194
1.00591
1.01183
1.03181
1.08163
1.18796
1.5585
2.39433
2.6666
2.72043
2.7154
2.71274
2.72501
2.73172
2.74341
2.75159
2.75755
2.76026
2.76017
1
1.00003
1.00005
1.00017
1.00031
1.00098
1.0018
1.00539
1.01106
1.02904
1.07713
1.17295
1.52833
2.3337
2.64325
2.71721
2.71083
2.70666
2.71849
2.72607
2.7328
2.73825
2.74158
2.74271
2.7399
1
1.00002
1.00005
1.00016
1.00028
1.00089
1.00165
1.00488
1.01016
1.02629
1.07067
1.15635
1.48976
2.25532
2.61377
2.71125
2.70369
2.69569
2.70504
2.71324
2.72107
2.72329
2.72542
2.72318
2.71798
1
1.00002
1.00004
1.00014
1.00026
1.00082
1.00149
1.00456
1.00907
1.02441
1.06203
1.14214
1.427
2.14107
2.57578
2.70487
2.69705
2.68706
2.69564
2.6998
2.704
2.70359
2.69989
2.69185
2.66762
1
1.00002
1.00004
1.00012
1.00023
1.00072
1.00132
1.00405
1.00796
1.02189
1.05298
1.1262
1.36053
2.02524
2.51564
2.6833
2.67748
2.66842
2.67983
2.68329
2.68601
2.68217
2.67028
2.64708
2.59591
1.00001
1.00003
1.00006
1.00022
1.00039
1.00124
1.00227
1.00688
1.01393
1.03707
1.09546
1.22552
1.6405
2.52314
2.72003
2.73137
2.72967
2.73215
2.74523
2.75706
2.76969
2.77785
2.78467
2.78888
2.79148
1.00001
1.00003
1.00006
1.00021
1.00039
1.00123
1.00225
1.00682
1.01379
1.03675
1.09449
1.22316
1.63512
2.51638
2.71716
2.73088
2.72905
2.7313
2.74432
2.756
2.76841
2.77652
2.78274
2.78662
2.78891
1.00001
1.00003
1.00006
1.00021
1.00038
1.00121
1.00221
1.00671
1.01351
1.0361
1.09245
1.21832
1.62348
2.50119
2.71012
2.72909
2.72712
2.72873
2.74187
2.75343
2.76572
2.774
2.78036
2.78328
2.78455
1.00001
1.00003
1.00006
1.0002
1.00037
1.00117
1.00214
1.00653
1.01308
1.03514
1.08936
1.21113
1.60577
2.47621
2.69925
2.72634
2.72389
2.72435
2.73729
2.7485
2.76064
2.76711
2.77518
2.77895
2.78004
1.00001
1.00003
1.00006
1.00019
1.00035
1.00112
1.00205
1.00627
1.01252
1.03372
1.08571
1.20106
1.58404
2.44155
2.68476
2.72354
2.71941
2.71949
2.73143
2.74196
2.75504
2.76203
2.7662
2.76897
2.76951
1
1.00003
1.00006
1.00018
1.00033
1.00106
1.00194
1.00591
1.01183
1.03181
1.08163
1.18796
1.5585
2.39434
2.6666
2.72043
2.7154
2.71274
2.72501
2.73172
2.74341
2.75159
2.75755
2.76026
2.76017
1
1.00003
1.00005
1.00017
1.00031
1.00098
1.0018
1.00539
1.01106
1.02904
1.07713
1.17295
1.52833
2.33371
2.64325
2.71721
2.71083
2.70666
2.71849
2.72607
2.7328
2.73825
2.74158
2.74271
2.7399
1
1.00002
1.00005
1.00016
1.00028
1.00089
1.00165
1.00488
1.01016
1.02629
1.07067
1.15635
1.48977
2.25533
2.61377
2.71125
2.70369
2.69569
2.70504
2.71324
2.72107
2.72329
2.72542
2.72318
2.71798
1
1.00002
1.00004
1.00014
1.00026
1.00082
1.00149
1.00456
1.00907
1.02441
1.06203
1.14214
1.42701
2.14108
2.57578
2.70487
2.69705
2.68706
2.69564
2.6998
2.704
2.70359
2.69989
2.69185
2.66762
1
1.00002
1.00004
1.00012
1.00023
1.00072
1.00132
1.00405
1.00796
1.02189
1.05298
1.1262
1.36053
2.02525
2.51564
2.6833
2.67748
2.66842
2.67983
2.68329
2.68601
2.68217
2.67028
2.64708
2.59591
1.00001
1.00003
1.00006
1.00022
1.00039
1.00124
1.00227
1.00688
1.01393
1.03707
1.09546
1.22552
1.64051
2.52314
2.72004
2.73137
2.72967
2.73215
2.74523
2.75706
2.76969
2.77785
2.78467
2.78888
2.79148
1.00001
1.00003
1.00006
1.00021
1.00039
1.00123
1.00225
1.00682
1.01379
1.03675
1.09449
1.22316
1.63512
2.51638
2.71716
2.73088
2.72905
2.7313
2.74432
2.756
2.76842
2.77653
2.78274
2.78662
2.78891
1.00001
1.00003
1.00006
1.00021
1.00038
1.00121
1.00221
1.00671
1.01351
1.0361
1.09245
1.21832
1.62348
2.50119
2.71012
2.72909
2.72712
2.72873
2.74187
2.75343
2.76572
2.774
2.78036
2.78328
2.78455
1.00001
1.00003
1.00006
1.0002
1.00037
1.00117
1.00214
1.00653
1.01308
1.03514
1.08936
1.21113
1.60577
2.47621
2.69925
2.72634
2.72389
2.72435
2.73729
2.7485
2.76064
2.76711
2.77518
2.77895
2.78004
1.00001
1.00003
1.00006
1.0002
1.00035
1.00112
1.00205
1.00627
1.01252
1.03372
1.08571
1.20106
1.58404
2.44155
2.68476
2.72354
2.71941
2.71949
2.73143
2.74196
2.75504
2.76203
2.7662
2.76897
2.76951
1
1.00003
1.00006
1.00018
1.00033
1.00106
1.00194
1.00591
1.01183
1.03181
1.08163
1.18796
1.5585
2.39434
2.66661
2.72043
2.7154
2.71274
2.72501
2.73172
2.74341
2.75159
2.75755
2.76026
2.76017
1
1.00003
1.00005
1.00017
1.00031
1.00098
1.0018
1.00539
1.01106
1.02904
1.07713
1.17295
1.52834
2.33371
2.64325
2.71721
2.71083
2.70666
2.71849
2.72607
2.7328
2.73825
2.74158
2.74271
2.7399
1
1.00002
1.00005
1.00016
1.00028
1.00089
1.00165
1.00488
1.01016
1.02629
1.07067
1.15635
1.48977
2.25533
2.61377
2.71125
2.70369
2.69569
2.70504
2.71324
2.72107
2.72329
2.72543
2.72318
2.71798
1
1.00002
1.00004
1.00014
1.00026
1.00082
1.00149
1.00456
1.00907
1.02441
1.06203
1.14214
1.42701
2.14108
2.57578
2.70487
2.69705
2.68706
2.69565
2.6998
2.704
2.70359
2.69989
2.69185
2.66762
1
1.00002
1.00004
1.00012
1.00023
1.00072
1.00132
1.00405
1.00796
1.02189
1.05298
1.1262
1.36053
2.02525
2.51564
2.6833
2.67748
2.66842
2.67983
2.68329
2.68601
2.68217
2.67028
2.64708
2.59591
1.00001
1.00003
1.00006
1.00022
1.00039
1.00124
1.00227
1.00688
1.01393
1.03707
1.09546
1.22552
1.64051
2.52314
2.72004
2.73137
2.72967
2.73215
2.74523
2.75706
2.76969
2.77785
2.78467
2.78888
2.79148
1.00001
1.00003
1.00006
1.00021
1.00039
1.00123
1.00225
1.00682
1.01379
1.03675
1.09449
1.22316
1.63512
2.51638
2.71716
2.73088
2.72905
2.7313
2.74432
2.756
2.76842
2.77653
2.78274
2.78662
2.78891
1.00001
1.00003
1.00006
1.00021
1.00038
1.00121
1.00221
1.00671
1.01351
1.0361
1.09245
1.21832
1.62348
2.50119
2.71012
2.72909
2.72712
2.72873
2.74187
2.75343
2.76572
2.774
2.78036
2.78328
2.78455
1.00001
1.00003
1.00006
1.0002
1.00037
1.00117
1.00214
1.00653
1.01308
1.03514
1.08936
1.21113
1.60577
2.47621
2.69925
2.72634
2.72389
2.72435
2.73729
2.7485
2.76064
2.76711
2.77518
2.77895
2.78004
1.00001
1.00003
1.00006
1.0002
1.00035
1.00112
1.00205
1.00627
1.01252
1.03372
1.08571
1.20106
1.58404
2.44155
2.68476
2.72354
2.71941
2.71949
2.73143
2.74196
2.75504
2.76203
2.7662
2.76897
2.76951
1
1.00003
1.00006
1.00018
1.00033
1.00106
1.00194
1.00591
1.01183
1.03181
1.08163
1.18796
1.5585
2.39434
2.66661
2.72043
2.7154
2.71274
2.72501
2.73172
2.74341
2.75159
2.75755
2.76026
2.76017
1
1.00003
1.00005
1.00017
1.00031
1.00098
1.0018
1.00539
1.01106
1.02904
1.07713
1.17295
1.52834
2.33371
2.64325
2.71721
2.71083
2.70666
2.71849
2.72607
2.7328
2.73825
2.74158
2.74271
2.7399
1
1.00002
1.00005
1.00016
1.00028
1.00089
1.00165
1.00488
1.01016
1.02629
1.07067
1.15635
1.48977
2.25533
2.61377
2.71125
2.70369
2.69569
2.70504
2.71324
2.72107
2.72329
2.72543
2.72318
2.71798
1
1.00002
1.00004
1.00014
1.00026
1.00082
1.00149
1.00456
1.00907
1.02441
1.06203
1.14214
1.42701
2.14108
2.57578
2.70487
2.69705
2.68706
2.69565
2.6998
2.704
2.70359
2.69989
2.69186
2.66762
1
1.00002
1.00004
1.00012
1.00023
1.00072
1.00132
1.00405
1.00796
1.02189
1.05298
1.1262
1.36053
2.02525
2.51564
2.6833
2.67748
2.66842
2.67983
2.68329
2.68601
2.68217
2.67028
2.64708
2.59591
1.00001
1.00003
1.00006
1.00022
1.00039
1.00124
1.00227
1.00688
1.01393
1.03707
1.09546
1.22552
1.64051
2.52314
2.72003
2.73137
2.72967
2.73215
2.74523
2.75706
2.76969
2.77785
2.78467
2.78888
2.79148
1.00001
1.00003
1.00006
1.00021
1.00039
1.00123
1.00225
1.00682
1.01379
1.03675
1.09449
1.22316
1.63512
2.51638
2.71716
2.73088
2.72905
2.7313
2.74432
2.756
2.76841
2.77652
2.78274
2.78662
2.78891
1.00001
1.00003
1.00006
1.00021
1.00038
1.00121
1.00221
1.00671
1.01351
1.0361
1.09245
1.21832
1.62348
2.50119
2.71012
2.72909
2.72712
2.72873
2.74187
2.75343
2.76572
2.774
2.78036
2.78328
2.78455
1.00001
1.00003
1.00006
1.0002
1.00037
1.00117
1.00214
1.00653
1.01308
1.03514
1.08936
1.21113
1.60577
2.47621
2.69925
2.72634
2.72389
2.72435
2.73729
2.7485
2.76064
2.76711
2.77518
2.77895
2.78004
1.00001
1.00003
1.00006
1.0002
1.00035
1.00112
1.00205
1.00627
1.01252
1.03372
1.08571
1.20106
1.58404
2.44155
2.68476
2.72354
2.71941
2.71949
2.73143
2.74196
2.75504
2.76203
2.7662
2.76897
2.76951
1
1.00003
1.00006
1.00018
1.00033
1.00106
1.00194
1.00591
1.01183
1.03181
1.08163
1.18796
1.5585
2.39434
2.6666
2.72043
2.7154
2.71274
2.72501
2.73172
2.74341
2.75159
2.75755
2.76026
2.76017
1
1.00003
1.00005
1.00017
1.00031
1.00098
1.0018
1.00539
1.01106
1.02904
1.07713
1.17295
1.52833
2.33371
2.64325
2.71721
2.71083
2.70666
2.71849
2.72607
2.7328
2.73825
2.74158
2.74271
2.7399
1
1.00002
1.00005
1.00016
1.00028
1.00089
1.00165
1.00488
1.01016
1.02629
1.07067
1.15635
1.48977
2.25533
2.61377
2.71125
2.70369
2.69569
2.70504
2.71324
2.72107
2.72329
2.72543
2.72318
2.71798
1
1.00002
1.00004
1.00014
1.00026
1.00082
1.00149
1.00456
1.00907
1.02441
1.06203
1.14214
1.42701
2.14108
2.57578
2.70487
2.69705
2.68706
2.69565
2.6998
2.704
2.70359
2.69989
2.69185
2.66762
1
1.00002
1.00004
1.00012
1.00023
1.00072
1.00132
1.00405
1.00796
1.02189
1.05298
1.1262
1.36053
2.02525
2.51564
2.6833
2.67748
2.66842
2.67983
2.68329
2.68601
2.68217
2.67028
2.64708
2.59591
1.00001
1.00003
1.00006
1.00022
1.00039
1.00124
1.00227
1.00688
1.01393
1.03707
1.09546
1.22552
1.6405
2.52313
2.72003
2.73137
2.72967
2.73215
2.74523
2.75706
2.76969
2.77785
2.78467
2.78888
2.79148
1.00001
1.00003
1.00006
1.00021
1.00039
1.00123
1.00225
1.00682
1.01379
1.03675
1.09449
1.22316
1.63512
2.51638
2.71716
2.73088
2.72905
2.7313
2.74432
2.756
2.76841
2.77652
2.78274
2.78662
2.78891
1.00001
1.00003
1.00006
1.00021
1.00038
1.00121
1.00221
1.00671
1.01351
1.0361
1.09245
1.21832
1.62348
2.50118
2.71012
2.72909
2.72712
2.72873
2.74187
2.75342
2.76572
2.774
2.78035
2.78328
2.78455
1.00001
1.00003
1.00006
1.0002
1.00037
1.00117
1.00214
1.00653
1.01308
1.03514
1.08936
1.21113
1.60577
2.4762
2.69924
2.72634
2.72389
2.72435
2.73729
2.7485
2.76064
2.76711
2.77518
2.77895
2.78004
1.00001
1.00003
1.00006
1.00019
1.00035
1.00112
1.00205
1.00627
1.01252
1.03372
1.08571
1.20105
1.58404
2.44155
2.68476
2.72354
2.71941
2.71949
2.73143
2.74196
2.75504
2.76203
2.7662
2.76897
2.76951
1
1.00003
1.00006
1.00018
1.00033
1.00106
1.00194
1.00591
1.01183
1.03181
1.08163
1.18796
1.5585
2.39433
2.6666
2.72043
2.7154
2.71274
2.72501
2.73172
2.74341
2.75159
2.75755
2.76026
2.76017
1
1.00003
1.00005
1.00017
1.00031
1.00098
1.0018
1.00539
1.01106
1.02904
1.07713
1.17295
1.52833
2.3337
2.64325
2.71721
2.71083
2.70666
2.71849
2.72607
2.7328
2.73825
2.74158
2.74271
2.7399
1
1.00002
1.00005
1.00016
1.00028
1.00089
1.00165
1.00488
1.01016
1.02629
1.07067
1.15635
1.48976
2.25532
2.61377
2.71125
2.70369
2.69569
2.70504
2.71324
2.72107
2.72329
2.72542
2.72318
2.71798
1
1.00002
1.00004
1.00014
1.00026
1.00082
1.00149
1.00456
1.00907
1.02441
1.06203
1.14214
1.427
2.14107
2.57578
2.70487
2.69705
2.68706
2.69564
2.6998
2.704
2.70359
2.69989
2.69185
2.66762
1
1.00002
1.00004
1.00012
1.00023
1.00072
1.00132
1.00405
1.00796
1.02189
1.05298
1.1262
1.36053
2.02524
2.51564
2.6833
2.67748
2.66842
2.67983
2.68329
2.68601
2.68217
2.67028
2.64708
2.59591
1.00001
1.00003
1.00006
1.00022
1.00039
1.00124
1.00227
1.00688
1.01393
1.03707
1.09546
1.22551
1.64048
2.52311
2.72002
2.73137
2.72967
2.73215
2.74523
2.75706
2.76969
2.77785
2.78466
2.78888
2.79148
1.00001
1.00003
1.00006
1.00021
1.00039
1.00123
1.00225
1.00682
1.01379
1.03675
1.09448
1.22315
1.6351
2.51636
2.71715
2.73088
2.72905
2.7313
2.74432
2.756
2.76841
2.77652
2.78273
2.78662
2.78891
1.00001
1.00003
1.00006
1.00021
1.00038
1.00121
1.00221
1.00671
1.01351
1.0361
1.09244
1.21831
1.62346
2.50116
2.71011
2.72909
2.72711
2.72873
2.74187
2.75342
2.76572
2.774
2.78035
2.78328
2.78455
1.00001
1.00003
1.00006
1.0002
1.00037
1.00117
1.00214
1.00653
1.01308
1.03514
1.08936
1.21112
1.60575
2.47618
2.69923
2.72634
2.72389
2.72435
2.73728
2.74849
2.76064
2.76711
2.77518
2.77895
2.78004
1.00001
1.00003
1.00006
1.00019
1.00035
1.00112
1.00205
1.00627
1.01252
1.03372
1.08571
1.20105
1.58402
2.44152
2.68475
2.72354
2.71941
2.71949
2.73143
2.74195
2.75504
2.76203
2.7662
2.76897
2.76951
1
1.00003
1.00006
1.00018
1.00033
1.00106
1.00194
1.00591
1.01183
1.03181
1.08163
1.18795
1.55848
2.3943
2.66659
2.72043
2.7154
2.71274
2.72501
2.73171
2.74341
2.75159
2.75755
2.76026
2.76017
1
1.00003
1.00005
1.00017
1.00031
1.00098
1.0018
1.00539
1.01106
1.02904
1.07712
1.17294
1.52832
2.33367
2.64324
2.71721
2.71083
2.70666
2.71849
2.72607
2.7328
2.73825
2.74158
2.7427
2.7399
1
1.00002
1.00005
1.00016
1.00028
1.00089
1.00165
1.00488
1.01016
1.02629
1.07067
1.15634
1.48974
2.25528
2.61375
2.71125
2.70369
2.69569
2.70504
2.71324
2.72107
2.72329
2.72542
2.72318
2.71798
1
1.00002
1.00004
1.00014
1.00026
1.00082
1.00149
1.00456
1.00907
1.02441
1.06202
1.14213
1.42698
2.14102
2.57576
2.70487
2.69705
2.68705
2.69564
2.6998
2.704
2.70359
2.69989
2.69185
2.66762
1
1.00002
1.00004
1.00012
1.00023
1.00072
1.00132
1.00405
1.00796
1.02189
1.05297
1.1262
1.3605
2.02519
2.51562
2.68329
2.67747
2.66842
2.67983
2.68329
2.68601
2.68217
2.67028
2.64708
2.5959
0.999998
1.00003
1.00006
1.00021
1.00038
1.00123
1.00226
1.00687
1.01392
1.03704
1.09542
1.22543
1.6403
2.52285
2.71987
2.73129
2.72958
2.73205
2.74513
2.75695
2.76959
2.77775
2.78456
2.78877
2.79139
0.999998
1.00003
1.00006
1.00021
1.00038
1.00122
1.00224
1.00681
1.01378
1.03673
1.09445
1.22307
1.63491
2.51609
2.71699
2.73079
2.72897
2.7312
2.74422
2.7559
2.76832
2.77643
2.78264
2.78653
2.78883
0.999997
1.00003
1.00006
1.0002
1.00037
1.0012
1.0022
1.0067
1.01349
1.03608
1.09241
1.21823
1.62328
2.50089
2.70995
2.72901
2.72703
2.72863
2.74177
2.75332
2.76563
2.7739
2.78025
2.78319
2.78446
0.999997
1.00002
1.00005
1.0002
1.00036
1.00116
1.00213
1.00652
1.01307
1.03512
1.08932
1.21105
1.60557
2.47589
2.69908
2.72625
2.7238
2.72426
2.73719
2.7484
2.76054
2.76702
2.77508
2.77885
2.77996
0.999996
1.00002
1.00005
1.00019
1.00034
1.00112
1.00204
1.00626
1.0125
1.0337
1.08568
1.20095
1.5839
2.44125
2.68461
2.72347
2.71933
2.7194
2.73134
2.74187
2.75495
2.76193
2.76609
2.76887
2.76943
0.999996
1.00002
1.00005
1.00018
1.00032
1.00105
1.00193
1.0059
1.01182
1.03178
1.08161
1.18787
1.55836
2.39402
2.66646
2.72036
2.71532
2.71266
2.72493
2.73163
2.74333
2.7515
2.75746
2.76017
2.76009
0.999996
1.00002
1.00004
1.00016
1.0003
1.00097
1.00179
1.00538
1.01105
1.02902
1.07709
1.17286
1.5282
2.33338
2.6431
2.71715
2.71076
2.70659
2.71842
2.72599
2.73271
2.73816
2.74149
2.74261
2.73982
0.999995
1.00002
1.00004
1.00015
1.00027
1.00088
1.00164
1.00487
1.01015
1.02626
1.07064
1.15627
1.48957
2.25493
2.61361
2.71118
2.70361
2.69561
2.70496
2.71317
2.72101
2.72322
2.72534
2.72309
2.7179
0.999995
1.00002
1.00003
1.00013
1.00025
1.00081
1.00148
1.00454
1.00906
1.02438
1.062
1.14207
1.42684
2.14067
2.57561
2.70479
2.69697
2.68697
2.69556
2.6997
2.70391
2.7035
2.69981
2.69177
2.66755
0.999995
1.00001
1.00003
1.00012
1.00022
1.00071
1.00131
1.00404
1.00795
1.02188
1.05295
1.12614
1.36036
2.02483
2.51546
2.68319
2.67736
2.66832
2.67976
2.68323
2.68594
2.6821
2.67021
2.647
2.59584
0.999997
1
1.00003
1.00007
1.00024
1.00045
1.00136
1.00275
1.00728
1.01785
1.04167
1.12123
1.27533
1.7577
2.49115
2.66287
2.6568
2.64698
2.65655
2.66174
2.66162
2.65365
2.632
2.5812
2.4161
0.999997
1
1.00003
1.00006
1.00022
1.0004
1.0013
1.00238
1.00724
1.01465
1.03887
1.09975
1.23806
1.6558
2.48147
2.64058
2.63208
2.6319
2.63188
2.63737
2.63596
2.62287
2.59035
2.53091
2.37315
0.999996
1
1.00003
1.00005
1.00019
1.00035
1.00113
1.00206
1.00633
1.01252
1.03401
1.08488
1.20228
1.57437
2.40079
2.61085
2.62726
2.62294
2.61317
2.61314
2.6087
2.59228
2.55483
2.50334
2.38134
0.999996
1
1.00002
1.00004
1.00016
1.00029
1.00094
1.00173
1.00516
1.01065
1.02781
1.07401
1.165
1.5059
2.26654
2.55769
2.62381
2.61542
2.60246
2.59237
2.58316
2.56406
2.52317
2.48125
2.38917
0.999995
0.999999
1.00002
1.00003
1.00013
1.00024
1.00076
1.00144
1.0042
1.0089
1.02285
1.06135
1.13744
1.41573
2.10899
2.49064
2.61563
2.60387
2.59471
2.57647
2.56078
2.54299
2.50207
2.46574
2.4014
0.999994
1
1.00001
1.00004
1.00007
1.00024
1.00046
1.00134
1.00288
1.00724
1.01905
1.04285
1.12724
1.28695
1.84017
2.38878
2.58609
2.58391
2.57835
2.56673
2.54267
2.52384
2.48521
2.44508
2.39928
0.999994
0.999999
1
1.00003
1.00006
1.00021
1.00039
1.00125
1.00229
1.007
1.01403
1.03743
1.0947
1.22648
1.61616
2.3597
2.54826
2.55481
2.55362
2.54875
2.53427
2.51501
2.48097
2.43714
2.395
0.999994
0.999997
1
1.00002
1.00005
1.00016
1.0003
1.00096
1.00182
1.00531
1.01125
1.02893
1.07802
1.17412
1.5231
2.27988
2.50105
2.53993
2.52896
2.52565
2.51581
2.50393
2.47982
2.43894
2.39788
0.999994
0.999995
1
1.00001
1.00005
1.00009
1.0003
1.00058
1.00163
1.00359
1.00888
1.02394
1.05293
1.16187
1.36822
2.01577
2.44893
2.54079
2.52768
2.51453
2.50105
2.4859
2.47333
2.44563
2.40798
0.999993
0.999994
0.999999
1.00001
1.00004
1.00007
1.00024
1.00045
1.00141
1.0027
1.00755
1.01708
1.04153
1.1178
1.26715
1.74027
2.31395
2.52307
2.52013
2.50797
2.49225
2.47461
2.45862
2.44353
2.41579
0.999993
0.999994
0.999996
1.00001
1.00002
1.00007
1.00014
1.00047
1.00088
1.00268
1.00523
1.01471
1.03315
1.0825
1.2177
1.60638
2.21634
2.49148
2.51306
2.50416
2.49119
2.47536
2.4578
2.44571
2.42406
0.999992
0.999993
0.999995
1
1.00001
1.00006
1.00011
1.00035
1.00066
1.00198
1.00402
1.01054
1.02637
1.06068
1.17894
1.42493
2.04224
2.4136
2.5049
2.50124
2.49381
2.47905
2.46212
2.45083
2.43281
0.999992
0.999992
0.999995
0.999998
1.00001
1.00003
1.00011
1.00021
1.00068
1.00127
1.00382
1.00764
1.02056
1.05014
1.11839
1.3298
1.9028
2.31257
2.48726
2.49893
2.49665
2.49176
2.47908
2.46303
2.44442
0.999992
0.999992
0.999994
0.999996
1.00001
1.00002
1.00008
1.00016
1.00053
1.00097
1.003
1.00576
1.01653
1.03549
1.09434
1.22711
1.70766
2.18332
2.44944
2.48881
2.49637
2.49585
2.49075
2.47844
2.45912
0.999991
0.999992
0.999993
0.999996
1
1.00002
1.00004
1.00016
1.0003
1.00092
1.00176
1.00497
1.0109
1.02705
1.0743
1.16068
1.4987
2.17312
2.41198
2.49519
2.50286
2.50175
2.49736
2.4868
2.47055
0.999991
0.999992
0.999992
0.999995
0.999998
1.00001
1.00003
1.00012
1.00023
1.00075
1.00139
1.00426
1.0083
1.02306
1.05401
1.13125
1.36196
2.01533
2.36705
2.50824
2.51726
2.5122
2.50303
2.48795
2.47124
0.999991
0.999991
0.999992
0.999993
0.999998
1
1.00003
1.00007
1.00023
1.00043
1.00133
1.00256
1.00726
1.0159
1.03957
1.10611
1.25116
1.64594
2.34023
2.52194
2.53339
2.52215
2.50787
2.48768
2.46938
0.999991
0.999991
0.999992
0.999993
0.999997
1
1.00002
1.00005
1.00018
1.00034
1.00109
1.00204
1.00605
1.01255
1.03286
1.08601
1.19835
1.57058
2.3232
2.55544
2.57157
2.54474
2.51998
2.49026
2.46849
0.999991
0.999991
0.999991
0.999993
0.999994
1
1.00001
1.00005
1.0001
1.00032
1.00066
1.00175
1.00426
1.0099
1.02812
1.05976
1.19211
1.43523
2.13847
2.5423
2.62724
2.59102
2.5557
2.50677
2.47482
0.999991
0.999991
0.999992
0.999992
0.999995
0.999998
1.00001
1.00003
1.00012
1.00023
1.00073
1.00141
1.00403
1.00878
1.02211
1.06006
1.1331
1.40377
2.05114
2.49371
2.66018
2.62642
2.59323
2.5475
2.50826
0.999991
0.999991
0.999991
0.999992
0.999994
0.999997
1.00001
1.00003
1.00011
1.0002
1.00065
1.00121
1.00373
1.00726
1.0205
1.04673
1.11752
1.31346
1.92567
2.44332
2.65805
2.62832
2.59821
2.55963
2.52803
0.999991
0.999991
0.999991
0.999992
0.999993
0.999998
1
1.00003
1.00007
1.00023
1.00043
1.00133
1.00257
1.00719
1.01625
1.03985
1.11235
1.25648
1.70002
2.49663
2.67343
2.63209
2.61
2.57133
2.54116
0.999991
0.999991
0.999991
0.999992
0.999993
0.999997
1
1.00003
1.00006
1.00021
1.00039
1.00126
1.00231
1.00706
1.01422
1.03804
1.09695
1.23221
1.64521
2.49169
2.67288
2.66142
2.6268
2.59025
2.55784
0.999991
0.999991
0.999991
0.999992
0.999993
0.999997
1
1.00003
1.00005
1.00019
1.00035
1.00114
1.00209
1.00646
1.01283
1.03484
1.08761
1.20944
1.59515
2.44042
2.66687
2.6813
2.6514
2.61492
2.58194
0.999991
0.999991
0.999991
0.999992
0.999992
0.999996
1
1.00002
1.00005
1.00017
1.00031
1.00099
1.00188
1.00547
1.0118
1.03023
1.08291
1.18537
1.56447
2.38577
2.6546
2.69393
2.66464
2.62917
2.59625
0.999991
0.999991
0.999991
0.999991
0.999993
0.999994
1
1.00001
1.00005
1.0001
1.00032
1.00068
1.00175
1.0045
1.01025
1.0298
1.06244
1.20528
1.46847
2.23998
2.64257
2.71331
2.68554
2.65134
2.62172
0.999991
0.999991
0.999991
0.999991
0.999992
0.999995
0.999998
1.00001
1.00003
1.00013
1.00025
1.00073
1.00158
1.00404
1.01043
1.02395
1.07093
1.14883
1.49095
2.2303
2.60289
2.7084
2.68505
2.65021
2.6254
0.999991
0.999991
0.999991
0.999991
0.999992
0.999994
1
1.00001
1.00004
1.00009
1.00029
1.00057
1.00162
1.00361
1.00894
1.02443
1.05381
1.16758
1.38183
2.07311
2.5978
2.71922
2.69459
2.65279
2.62978
0.999991
0.999991
0.999991
0.999991
0.999992
0.999993
0.999999
1.00001
1.00004
1.00008
1.00027
1.00051
1.00151
1.00322
1.00818
1.02174
1.04892
1.14876
1.33984
1.95369
2.56562
2.72393
2.69892
2.65246
2.62953
0.999991
0.999991
0.999991
0.999991
0.999992
0.999994
0.999997
1.00001
1.00003
1.0001
1.0002
1.00063
1.00122
1.00352
1.00762
1.01937
1.05163
1.11702
1.34092
1.94571
2.53327
2.71267
2.68813
2.64387
2.62438
0.999991
0.999991
0.999991
0.999991
0.999992
0.999993
0.999998
1
1.00003
1.00007
1.00023
1.00045
1.00126
1.00281
1.00691
1.01868
1.04158
1.12538
1.28303
1.77261
2.56668
2.7195
2.69214
2.64768
2.62693
0.999991
0.999991
0.999991
0.999991
0.999992
0.999994
0.999997
1.00001
1.00002
1.0001
1.00018
1.00059
1.00111
1.00339
1.00669
1.01853
1.04398
1.10549
1.29595
1.83204
2.5164
2.72667
2.69849
2.66416
2.64153
0.999991
0.999991
0.999991
0.999991
0.999992
0.999994
0.999996
1.00001
1.00002
1.00009
1.00017
1.00056
1.00105
1.00324
1.00635
1.01773
1.04161
1.10084
1.28188
1.80216
2.50999
2.72613
2.69679
2.67048
2.64451
0.999991
0.999991
0.999991
0.999991
0.999992
0.999993
0.999997
1
1.00003
1.00006
1.00021
1.0004
1.00121
1.00247
1.00655
1.01597
1.03778
1.10931
1.24708
1.69548
2.54949
2.72204
2.6894
2.67473
2.6452
0.999991
0.999991
0.999991
0.999991
0.999992
0.999993
0.999996
1.00001
1.00002
1.00008
1.00015
1.00048
1.00095
1.00264
1.00606
1.01475
1.04099
1.08932
1.27492
1.71227
2.48502
2.72739
2.70687
2.68951
2.65679
0.999991
0.999991
0.999991
0.999991
0.999992
0.999993
0.999997
1
1.00003
1.00006
1.0002
1.00038
1.00116
1.00231
1.00631
1.0148
1.03607
1.10254
1.23447
1.66586
2.52658
2.70958
2.70459
2.68167
2.65019
0.999991
0.999991
0.999991
0.999991
0.999992
0.999993
0.999995
1.00001
1.00002
1.00008
1.00015
1.00047
1.00091
1.00261
1.00567
1.01427
1.03867
1.08519
1.26201
1.66155
2.45641
2.72045
2.71742
2.69348
2.66164
0.999991
0.999991
0.999991
0.999991
0.999992
0.999993
0.999995
1.00001
1.00002
1.00007
1.00014
1.00046
1.00089
1.00254
1.00555
1.0139
1.03784
1.08318
1.25732
1.64795
2.44173
2.72005
2.71828
2.6966
2.6657
0.999991
0.999991
0.999991
0.999991
0.999992
0.999993
0.999997
1
1.00003
1.00006
1.0002
1.00037
1.00116
1.00221
1.00642
1.01381
1.03543
1.09572
1.22258
1.63398
2.4887
2.70784
2.70718
2.68557
2.6524
0.999991
0.999991
0.999991
0.999991
0.999992
0.999993
0.999997
1
1.00003
1.00006
1.0002
1.00037
1.00119
1.00219
1.0067
1.0135
1.03617
1.09264
1.21972
1.62439
2.48859
2.71228
2.71172
2.68882
2.65338
1.00001
1.00001
1.00004
1.00008
1.00025
1.00046
1.00137
1.00276
1.00729
1.01786
1.04169
1.12127
1.27544
1.75808
2.49122
2.66297
2.65688
2.64706
2.65664
2.66182
2.66171
2.65373
2.63207
2.58126
2.41615
1.00001
1.00001
1.00004
1.00007
1.00023
1.00041
1.00131
1.00239
1.00725
1.01467
1.03889
1.09979
1.23815
1.65596
2.48161
2.64072
2.63208
2.632
2.63197
2.63743
2.63603
2.62295
2.59044
2.53098
2.3732
1
1.00001
1.00003
1.00006
1.0002
1.00036
1.00113
1.00206
1.00635
1.01253
1.03404
1.0849
1.20237
1.57451
2.40103
2.611
2.62731
2.62299
2.61326
2.61321
2.60875
2.59232
2.55487
2.5034
2.38141
1
1.00001
1.00003
1.00005
1.00017
1.0003
1.00094
1.00174
1.00518
1.01067
1.02784
1.07404
1.16509
1.50603
2.26684
2.55785
2.62387
2.61551
2.60251
2.59246
2.58326
2.56416
2.52323
2.4813
2.38922
1
1.00001
1.00002
1.00004
1.00014
1.00025
1.00077
1.00145
1.00421
1.00891
1.02287
1.06138
1.1375
1.41591
2.10935
2.49085
2.61571
2.60394
2.59478
2.5765
2.56082
2.54305
2.50216
2.46581
2.40146
1
1.00001
1.00001
1.00004
1.00008
1.00025
1.00047
1.00135
1.00289
1.00725
1.01906
1.04289
1.12731
1.28712
1.84066
2.38903
2.58621
2.58401
2.57844
2.56679
2.54272
2.5239
2.48527
2.44514
2.39934
1
1.00001
1.00001
1.00004
1.00007
1.00022
1.0004
1.00126
1.0023
1.00702
1.01405
1.03745
1.09476
1.22659
1.61633
2.35982
2.54837
2.55493
2.55375
2.54889
2.53438
2.51509
2.48103
2.43721
2.39507
1
1
1.00001
1.00003
1.00005
1.00017
1.00031
1.00097
1.00183
1.00532
1.01127
1.02895
1.07806
1.17422
1.5233
2.28013
2.5012
2.54002
2.52906
2.52576
2.51594
2.50405
2.47991
2.43901
2.39796
1
1
1.00001
1.00002
1.00005
1.0001
1.00031
1.00059
1.00164
1.0036
1.0089
1.02396
1.05297