/*--------------------------------*- C++ -*----------------------------------*\
| =========                 |                                                 |
| \\      /  F ield         | OpenFOAM: The Open Source CFD Toolbox           |
|  \\    /   O peration     | Version:  4.1                                   |
|   \\  /    A nd           | Web:      www.OpenFOAM.org                      |
|    \\/     M anipulation  |                                                 |
\*---------------------------------------------------------------------------*/
FoamFile
{
    version     2.0;
    format      ascii;
    class       volVectorField;
    location    "10";
    object      U;
}
// * * * * * * * * * * * * * * * * * * * * * * * * * * * * * * * * * * * * * //

dimensions      [0 1 -1 0 0 0 0];

internalField   nonuniform List<vector> 
52500
(
(2.99999 1.31064e-08 -0.00571427)
(2.99998 7.20384e-08 -0.00571444)
(2.99995 2.60441e-07 -0.00571471)
(2.99986 6.64622e-07 -0.00571556)
(2.99968 1.82904e-06 -0.00571712)
(2.99917 4.16683e-06 -0.00572185)
(2.99817 1.10265e-05 -0.00573103)
(2.99508 2.39812e-05 -0.00575664)
(2.98952 6.74481e-05 -0.00581643)
(2.96946 0.000138516 -0.00594332)
(2.93102 0.000426612 -0.00639453)
(2.79553 0.00101245 -0.00712388)
(2.4068 0.00302661 -0.0101101)
(1.5173 0.00813923 -0.0155743)
(0.629711 0.0199874 -0.0183305)
(0.541281 0.0210066 -0.018499)
(0.567105 0.022186 -0.0185475)
(0.560125 0.0241718 -0.0186353)
(0.508432 0.0263415 -0.0188072)
(0.423572 0.028728 -0.0189855)
(0.341432 0.0314733 -0.0191754)
(0.271835 0.0346348 -0.0193389)
(0.201481 0.0379567 -0.0195002)
(0.121174 0.0418043 -0.0196508)
(0.0537952 0.0475255 -0.0197986)
(2.99999 3.98598e-08 -0.00571427)
(2.99998 2.18696e-07 -0.00571444)
(2.99995 7.91031e-07 -0.00571471)
(2.99986 2.01643e-06 -0.00571554)
(2.99968 5.55222e-06 -0.00571709)
(2.99918 1.26356e-05 -0.00572178)
(2.99818 3.34794e-05 -0.00573086)
(2.99513 7.25858e-05 -0.00575626)
(2.98962 0.000205327 -0.00581536)
(2.96976 0.000418951 -0.00594122)
(2.93177 0.00130707 -0.0063873)
(2.79752 0.00308013 -0.00710767)
(2.4133 0.00933553 -0.0100688)
(1.53132 0.0250088 -0.0154939)
(0.638496 0.0603392 -0.0182337)
(0.540846 0.0607973 -0.0184236)
(0.567269 0.0619154 -0.0184695)
(0.560797 0.0657541 -0.0185491)
(0.509057 0.0699119 -0.0187136)
(0.424245 0.0745237 -0.0188836)
(0.342009 0.0794881 -0.0190648)
(0.271771 0.0846927 -0.0192204)
(0.200272 0.0895385 -0.0193705)
(0.118367 0.0942242 -0.0195119)
(0.0502287 0.0991261 -0.0196475)
(2.99999 6.74631e-08 -0.00571426)
(2.99998 3.69189e-07 -0.00571443)
(2.99995 1.33605e-06 -0.0057147)
(2.99986 3.40322e-06 -0.00571552)
(2.99969 9.36283e-06 -0.00571703)
(2.99919 2.12869e-05 -0.00572164)
(2.99822 5.63517e-05 -0.00573053)
(2.99522 0.000121801 -0.00575551)
(2.98981 0.000345396 -0.00581322)
(2.97036 0.00069991 -0.00593709)
(2.93331 0.00220326 -0.00637259)
(2.80168 0.0051491 -0.0070758)
(2.42708 0.0157905 -0.00998549)
(1.56186 0.0421113 -0.0153444)
(0.658587 0.103281 -0.0180995)
(0.541323 0.102823 -0.0183357)
(0.569546 0.104043 -0.0183791)
(0.56474 0.110807 -0.0184472)
(0.51345 0.118285 -0.0186051)
(0.429245 0.12695 -0.0187656)
(0.347195 0.136122 -0.0189376)
(0.276423 0.145553 -0.0190862)
(0.203787 0.154471 -0.0192294)
(0.120228 0.162623 -0.019358)
(0.0498887 0.169143 -0.0194836)
(2.99999 1.04128e-07 -0.00571426)
(2.99998 5.23564e-07 -0.00571443)
(2.99995 1.93665e-06 -0.00571468)
(2.99987 4.92757e-06 -0.00571548)
(2.9997 1.35585e-05 -0.00571695)
(2.99922 3.08815e-05 -0.00572143)
(2.99827 8.12103e-05 -0.00573004)
(2.99537 0.000177865 -0.00575441)
(2.9901 0.000488505 -0.00581004)
(2.97127 0.00102322 -0.00593105)
(2.93561 0.00303881 -0.00635065)
(2.80792 0.00722591 -0.00702913)
(2.44767 0.0218481 -0.00986161)
(1.60848 0.0574464 -0.0151212)
(0.689749 0.145078 -0.0179305)
(0.542451 0.14368 -0.0182384)
(0.573862 0.145266 -0.0182767)
(0.571897 0.155251 -0.0183293)
(0.521453 0.166281 -0.018478)
(0.43837 0.179242 -0.0186269)
(0.356742 0.19298 -0.0187879)
(0.285573 0.207278 -0.0189153)
(0.211651 0.221179 -0.0190617)
(0.125695 0.233731 -0.0191897)
(0.0516868 0.242435 -0.0193136)
(2.99999 1.33084e-07 -0.00571426)
(2.99998 6.87159e-07 -0.00571442)
(2.99995 2.5689e-06 -0.00571466)
(2.99987 6.56509e-06 -0.00571543)
(2.99971 1.80797e-05 -0.00571683)
(2.99925 4.13102e-05 -0.00572113)
(2.99834 0.00010788 -0.00572937)
(2.99556 0.000240494 -0.00575275)
(2.99052 0.000633917 -0.0058059)
(2.97245 0.00139219 -0.00592205)
(2.93865 0.00381154 -0.00632462)
(2.81608 0.0092956 -0.00696446)
(2.47362 0.0276636 -0.00971061)
(1.66723 0.0713209 -0.0148362)
(0.72784 0.186939 -0.0177303)
(0.540217 0.184108 -0.0181434)
(0.577003 0.186054 -0.0181683)
(0.579555 0.199209 -0.0182088)
(0.530755 0.21366 -0.0183421)
(0.4497 0.230864 -0.0184762)
(0.369255 0.249358 -0.018632)
(0.298314 0.268905 -0.0187505)
(0.223457 0.288394 -0.0188603)
(0.134487 0.306272 -0.0189742)
(0.0553389 0.318099 -0.0190941)
(3 1.56779e-07 -0.00571426)
(2.99998 8.69057e-07 -0.00571441)
(2.99995 3.24113e-06 -0.00571464)
(2.99988 8.33658e-06 -0.00571536)
(2.99973 2.30045e-05 -0.00571669)
(2.99929 5.28919e-05 -0.00572074)
(2.99843 0.000137069 -0.00572852)
(2.9958 0.000314167 -0.00575053)
(2.99107 0.000782925 -0.00580086)
(2.97388 0.00183018 -0.00590987)
(2.94239 0.00458228 -0.0062953)
(2.8262 0.0113528 -0.0068815)
(2.50479 0.0332067 -0.00953176)
(1.73823 0.0853544 -0.0144776)
(0.773971 0.230586 -0.0174922)
(0.535362 0.224646 -0.0180469)
(0.579916 0.226444 -0.0180637)
(0.588441 0.24263 -0.0180765)
(0.541906 0.260358 -0.0182021)
(0.463824 0.281861 -0.0182994)
(0.385404 0.305746 -0.0184328)
(0.315262 0.331671 -0.0185454)
(0.239673 0.358309 -0.018653)
(0.147203 0.383675 -0.0187553)
(0.0612552 0.401005 -0.0188685)
(3 1.7928e-07 -0.00571426)
(2.99998 9.93164e-07 -0.0057144)
(2.99996 3.70864e-06 -0.00571461)
(2.99989 9.54361e-06 -0.00571528)
(2.99975 2.63873e-05 -0.0057165)
(2.99934 6.07564e-05 -0.00572022)
(2.99856 0.000157857 -0.00572746)
(2.9961 0.000361908 -0.00574729)
(2.99179 0.000907942 -0.00579515)
(2.97556 0.00209523 -0.00589237)
(2.94681 0.00549104 -0.00626313)
(2.83805 0.0130682 -0.00678511)
(2.5415 0.0387873 -0.00932284)
(1.82446 0.100352 -0.0140295)
(0.828062 0.276576 -0.0172041)
(0.527279 0.265508 -0.0179492)
(0.582565 0.266146 -0.0179565)
(0.598606 0.285066 -0.0179491)
(0.554969 0.30589 -0.0180624)
(0.48107 0.331759 -0.0181515)
(0.406074 0.361763 -0.0182365)
(0.338011 0.395369 -0.0183134)
(0.262691 0.431432 -0.0183856)
(0.166611 0.467948 -0.0184603)
(0.071291 0.495786 -0.0185477)
(3 1.82188e-07 -0.00571425)
(2.99998 1.00829e-06 -0.00571438)
(2.99996 3.75448e-06 -0.00571458)
(2.9999 9.60818e-06 -0.00571519)
(2.99977 2.65119e-05 -0.0057163)
(2.9994 6.03795e-05 -0.00571969)
(2.99868 0.000159822 -0.00572633)
(2.99643 0.000345281 -0.00574419)
(2.99252 0.000977562 -0.00578849)
(2.97763 0.00196709 -0.00587542)
(2.95178 0.00639216 -0.00621727)
(2.85173 0.0136025 -0.00668048)
(2.58552 0.0468117 -0.00905579)
(1.928 0.116262 -0.0134656)
(0.89242 0.32634 -0.0168543)
(0.519287 0.309007 -0.0178283)
(0.587552 0.306255 -0.0178291)
(0.612118 0.326461 -0.0177881)
(0.57162 0.349631 -0.0178769)
(0.503114 0.380009 -0.0179559)
(0.432886 0.416959 -0.0180288)
(0.368362 0.45978 -0.0180631)
(0.295245 0.508026 -0.0181021)
(0.197056 0.561271 -0.0181272)
(0.0889948 0.610496 -0.018177)
(3 1.98539e-07 -0.00571425)
(2.99999 1.09347e-06 -0.00571437)
(2.99997 4.04993e-06 -0.00571455)
(2.99991 1.03485e-05 -0.0057151)
(2.99979 2.83643e-05 -0.00571612)
(2.99945 6.43256e-05 -0.00571923)
(2.99879 0.00017036 -0.00572519)
(2.99678 0.000358881 -0.00574213)
(2.99315 0.00106187 -0.00578053)
(2.98 0.00198534 -0.00586405)
(2.95675 0.00715091 -0.0061563)
(2.86894 0.0140457 -0.00659222)
(2.63794 0.0532118 -0.00862914)
(2.05239 0.127521 -0.0126987)
(0.979945 0.369907 -0.0164078)
(0.523877 0.353182 -0.0176833)
(0.60136 0.34699 -0.0176896)
(0.633208 0.366227 -0.0176327)
(0.595282 0.390785 -0.0177114)
(0.532894 0.425713 -0.0177502)
(0.468653 0.470548 -0.0177799)
(0.409468 0.523264 -0.0177711)
(0.34231 0.586291 -0.017737)
(0.248145 0.665622 -0.0176759)
(0.123079 0.759014 -0.0175525)
(3 4.00641e-07 -0.00571425)
(2.99999 8.27295e-07 -0.00571435)
(2.99997 6.01845e-06 -0.00571451)
(2.99992 9.48707e-06 -0.00571499)
(2.99982 4.13533e-05 -0.0057159)
(2.99952 6.11409e-05 -0.00571862)
(2.99893 0.000253561 -0.0057239)
(2.99717 0.000330688 -0.00573903)
(2.99388 0.00163245 -0.0057721)
(2.98263 0.00139211 -0.00584905)
(2.96207 0.0110817 -0.00609084)
(2.88711 0.00862751 -0.00649552)
(2.69289 0.0695001 -0.0081767)
(2.18655 0.125185 -0.0119277)
(1.08917 0.403302 -0.0158092)
(0.552685 0.403073 -0.017412)
(0.628831 0.396688 -0.0174415)
(0.664816 0.407178 -0.0173984)
(0.629533 0.43178 -0.017493)
(0.573858 0.468925 -0.0175182)
(0.515824 0.520776 -0.0175147)
(0.463898 0.582851 -0.0174547)
(0.411023 0.665541 -0.0173233)
(0.33709 0.788373 -0.0170906)
(0.189557 0.996719 -0.016657)
(2.99999 1.27538e-08 -2.41497e-09)
(2.99998 6.95448e-08 -8.55313e-09)
(2.99995 2.58309e-07 -1.00206e-08)
(2.99986 6.61878e-07 -1.60423e-08)
(2.99968 1.82674e-06 -1.66034e-08)
(2.99917 4.1653e-06 -2.24334e-08)
(2.99816 1.10277e-05 -2.48029e-08)
(2.99507 2.39887e-05 -3.46791e-08)
(2.98952 6.74691e-05 -5.20798e-08)
(2.96945 0.000138573 -8.69289e-08)
(2.93099 0.000426743 -1.9078e-07)
(2.79547 0.00101287 -4.55883e-07)
(2.4066 0.00302756 -9.17564e-07)
(1.51683 0.00814289 -2.59995e-06)
(0.62946 0.0199909 -2.21938e-06)
(0.541341 0.021011 1.75846e-07)
(0.567124 0.0221905 1.0786e-07)
(0.560105 0.0241754 -6.98711e-08)
(0.508396 0.0263444 -9.76805e-08)
(0.423532 0.0287306 -1.11845e-07)
(0.341401 0.0314758 -6.57211e-08)
(0.271807 0.0346375 -3.4884e-08)
(0.20145 0.0379596 -1.59324e-08)
(0.121143 0.0418037 5.38084e-09)
(0.0537674 0.0475092 3.69337e-08)
(2.99999 3.86941e-08 -2.42202e-09)
(2.99998 2.1116e-07 -8.59295e-09)
(2.99995 7.8445e-07 -1.00187e-08)
(2.99986 2.00803e-06 -1.60522e-08)
(2.99968 5.54495e-06 -1.65957e-08)
(2.99917 1.26303e-05 -2.2417e-08)
(2.99818 3.34813e-05 -2.4749e-08)
(2.99512 7.26061e-05 -3.45525e-08)
(2.98961 0.000205381 -5.17999e-08)
(2.96975 0.000419137 -8.62744e-08)
(2.93174 0.0013074 -1.89361e-07)
(2.79746 0.00308154 -4.5081e-07)
(2.4131 0.00933838 -9.09982e-07)
(1.53085 0.0250204 -2.57518e-06)
(0.638246 0.060349 -2.22499e-06)
(0.540906 0.0608083 1.79329e-07)
(0.567286 0.0619245 1.05661e-07)
(0.560774 0.0657591 -7.6985e-08)
(0.509019 0.0699141 -1.02909e-07)
(0.424204 0.0745253 -1.14618e-07)
(0.341976 0.0794896 -6.84101e-08)
(0.271742 0.0846936 -3.8038e-08)
(0.200244 0.0895379 -1.85583e-08)
(0.118346 0.0942169 2.64307e-09)
(0.0502126 0.0990985 3.35862e-08)
(2.99999 6.53448e-08 -2.43832e-09)
(2.99998 3.56918e-07 -8.67198e-09)
(2.99995 1.32501e-06 -1.00175e-08)
(2.99986 3.38982e-06 -1.6073e-08)
(2.99969 9.35094e-06 -1.65839e-08)
(2.99919 2.12777e-05 -2.23889e-08)
(2.99821 5.63528e-05 -2.4647e-08)
(2.99522 0.000121825 -3.42476e-08)
(2.98981 0.000345479 -5.13644e-08)
(2.97035 0.000700225 -8.41839e-08)
(2.93329 0.00220383 -1.88043e-07)
(2.80161 0.00515166 -4.3639e-07)
(2.42688 0.0157958 -8.9967e-07)
(1.5614 0.0421317 -2.51662e-06)
(0.658336 0.103298 -2.24383e-06)
(0.541378 0.102841 1.88385e-07)
(0.569555 0.104057 1.03001e-07)
(0.564709 0.110817 -8.79702e-08)
(0.513406 0.118291 -1.10732e-07)
(0.429199 0.126954 -1.17662e-07)
(0.347158 0.136124 -7.16041e-08)
(0.276392 0.145552 -4.29709e-08)
(0.203761 0.154466 -2.41335e-08)
(0.120211 0.162608 -4.99789e-09)
(0.0498788 0.169104 1.90898e-08)
(2.99999 9.4649e-08 -2.46455e-09)
(2.99998 5.16435e-07 -8.78321e-09)
(2.99995 1.91789e-06 -1.00207e-08)
(2.99986 4.91194e-06 -1.6097e-08)
(2.9997 1.35346e-05 -1.6578e-08)
(2.99921 3.0856e-05 -2.23717e-08)
(2.99826 8.11744e-05 -2.45417e-08)
(2.99536 0.000177763 -3.3891e-08)
(2.9901 0.000488545 -5.0814e-08)
(2.97126 0.00102254 -7.959e-08)
(2.93558 0.00304067 -1.87918e-07)
(2.80786 0.00722681 -4.07136e-07)
(2.44748 0.021858 -8.89654e-07)
(1.60803 0.057489 -2.4232e-06)
(0.689494 0.145117 -2.29523e-06)
(0.542501 0.14371 1.85802e-07)
(0.573872 0.145284 8.91451e-08)
(0.571876 0.155262 -1.00406e-07)
(0.521424 0.166287 -1.1877e-07)
(0.438342 0.179247 -1.20746e-07)
(0.35672 0.192982 -7.88771e-08)
(0.285554 0.207274 -5.37085e-08)
(0.211634 0.221169 -3.71782e-08)
(0.125683 0.233708 -2.2367e-08)
(0.0516812 0.242387 -6.9256e-09)
(2.99999 1.26325e-07 -2.62955e-09)
(2.99998 6.88099e-07 -8.6447e-09)
(2.99995 2.5576e-06 -1.02265e-08)
(2.99987 6.55753e-06 -1.60435e-08)
(2.99971 1.80628e-05 -1.6739e-08)
(2.99925 4.129e-05 -2.2458e-08)
(2.99834 0.000107846 -2.48774e-08)
(2.99556 0.00024039 -3.5715e-08)
(2.99052 0.000633952 -4.86902e-08)
(2.97244 0.00139142 -9.88836e-08)
(2.93863 0.00381348 -1.42613e-07)
(2.81603 0.00929645 -4.49968e-07)
(2.47346 0.0276741 -7.82246e-07)
(1.66688 0.0713623 -2.13186e-06)
(0.727656 0.186979 -2.32028e-06)
(0.540319 0.184141 1.56582e-07)
(0.577051 0.186072 4.40056e-08)
(0.579566 0.199219 -1.25702e-07)
(0.530758 0.213667 -1.33211e-07)
(0.449701 0.23087 -1.23918e-07)
(0.369256 0.249361 -8.98815e-08)
(0.298313 0.268901 -7.24608e-08)
(0.223453 0.288381 -5.77911e-08)
(0.134484 0.306245 -4.62851e-08)
(0.0553377 0.318046 -3.79049e-08)
(2.99999 1.60429e-07 -2.60124e-09)
(2.99998 8.70496e-07 -8.65264e-09)
(2.99995 3.2447e-06 -1.02291e-08)
(2.99988 8.33828e-06 -1.60544e-08)
(2.99973 2.30069e-05 -1.67437e-08)
(2.99929 5.28924e-05 -2.24605e-08)
(2.99843 0.000137075 -2.4824e-08)
(2.9958 0.000314185 -3.55861e-08)
(2.99106 0.000782998 -4.8005e-08)
(2.97387 0.00183069 -9.7687e-08)
(2.94237 0.00458136 -1.36474e-07)
(2.82615 0.011356 -4.29146e-07)
(2.50464 0.0332145 -7.48244e-07)
(1.73788 0.0853739 -2.03939e-06)
(0.773797 0.230607 -2.38873e-06)
(0.535475 0.224674 1.61759e-07)
(0.579976 0.226463 1.67768e-08)
(0.588469 0.242644 -1.41999e-07)
(0.54193 0.260368 -1.41674e-07)
(0.463846 0.281872 -1.23125e-07)
(0.385424 0.305752 -9.85682e-08)
(0.315277 0.331669 -8.51546e-08)
(0.239683 0.358298 -7.48588e-08)
(0.147209 0.383649 -6.94845e-08)
(0.0612581 0.400952 -6.99387e-08)
(2.99999 1.83614e-07 -2.55664e-09)
(2.99998 9.95168e-07 -8.67956e-09)
(2.99996 3.71432e-06 -1.01965e-08)
(2.99989 9.54885e-06 -1.60763e-08)
(2.99975 2.63975e-05 -1.67319e-08)
(2.99934 6.07731e-05 -2.24954e-08)
(2.99855 0.000157897 -2.47728e-08)
(2.99609 0.00036203 -3.55265e-08)
(2.99178 0.000908123 -4.76187e-08)
(2.97555 0.0020963 -9.02272e-08)
(2.94679 0.00549041 -1.69945e-07)
(2.83801 0.0130736 -3.81018e-07)
(2.54135 0.0387864 -7.10045e-07)
(1.82411 0.100361 -2.05506e-06)
(0.827892 0.276576 -2.5047e-06)
(0.52739 0.265523 1.99953e-07)
(0.582622 0.266161 1.05351e-08)
(0.598636 0.285079 -1.49812e-07)
(0.555001 0.305903 -1.44885e-07)
(0.481103 0.331772 -1.21853e-07)
(0.406106 0.361773 -1.05223e-07)
(0.338038 0.395371 -9.88922e-08)
(0.262712 0.431423 -9.16142e-08)
(0.166625 0.467924 -9.03429e-08)
(0.0712978 0.495738 -9.9056e-08)
(3 1.85337e-07 -2.51423e-09)
(2.99998 1.01203e-06 -8.68803e-09)
(2.99996 3.7566e-06 -1.01686e-08)
(2.9999 9.61166e-06 -1.6053e-08)
(2.99977 2.65148e-05 -1.66409e-08)
(2.9994 6.03852e-05 -2.23023e-08)
(2.99868 0.000159835 -2.43047e-08)
(2.99642 0.000345295 -3.38141e-08)
(2.99251 0.000977714 -4.67155e-08)
(2.97762 0.00196683 -7.95339e-08)
(2.95176 0.00639438 -1.68151e-07)
(2.85168 0.0136055 -3.20698e-07)
(2.58537 0.0468132 -8.59339e-07)
(1.92764 0.116276 -2.01455e-06)
(0.892217 0.32634 -2.74509e-06)
(0.519364 0.309009 2.35827e-07)
(0.587584 0.30626 2.01284e-08)
(0.612133 0.326469 -1.49539e-07)
(0.571645 0.349641 -1.42299e-07)
(0.503147 0.380021 -1.17646e-07)
(0.432921 0.41697 -1.04233e-07)
(0.368395 0.459785 -1.0184e-07)
(0.295274 0.508022 -9.93702e-08)
(0.197075 0.561253 -1.03576e-07)
(0.0890049 0.610456 -1.20972e-07)
(3 1.97743e-07 -2.4928e-09)
(2.99999 1.09867e-06 -8.65949e-09)
(2.99996 4.04526e-06 -1.02247e-08)
(2.99991 1.03465e-05 -1.60499e-08)
(2.99979 2.83614e-05 -1.67167e-08)
(2.99945 6.43365e-05 -2.23953e-08)
(2.99879 0.000170405 -2.45004e-08)
(2.99677 0.000359025 -3.50832e-08)
(2.99314 0.00106217 -4.50202e-08)
(2.97999 0.00198601 -9.47565e-08)
(2.95673 0.00715302 -1.30812e-07)
(2.8689 0.0140493 -3.49109e-07)
(2.63781 0.0532217 -7.83517e-07)
(2.05204 0.127545 -1.96761e-06)
(0.979731 0.369926 -2.99388e-06)
(0.523916 0.353166 1.91012e-07)
(0.60137 0.346972 1.91619e-08)
(0.633207 0.366222 -1.50871e-07)
(0.595294 0.390789 -1.48525e-07)
(0.532919 0.42572 -1.28315e-07)
(0.468684 0.470557 -1.11924e-07)
(0.409501 0.52327 -1.08396e-07)
(0.342342 0.58629 -1.0729e-07)
(0.248168 0.665611 -1.09355e-07)
(0.123092 0.758985 -1.3469e-07)
(3 3.85911e-07 -2.53016e-09)
(2.99999 8.77587e-07 -8.57204e-09)
(2.99997 5.90129e-06 -1.03381e-08)
(2.99992 9.51663e-06 -1.602e-08)
(2.99981 4.12238e-05 -1.66412e-08)
(2.99952 6.11934e-05 -2.20224e-08)
(2.99893 0.000253505 -2.35735e-08)
(2.99716 0.000331004 -3.18334e-08)
(2.99387 0.00163254 -4.33967e-08)
(2.98262 0.00139441 -7.18403e-08)
(2.96205 0.0110836 -1.42631e-07)
(2.88707 0.00863554 -2.90346e-07)
(2.69276 0.0695205 -7.73115e-07)
(2.18622 0.125244 -1.86667e-06)
(1.0889 0.403444 -3.22073e-06)
(0.552635 0.403069 -3.35685e-08)
(0.628804 0.396654 -3.69154e-08)
(0.664797 0.407156 -1.67079e-07)
(0.629527 0.431772 -1.69648e-07)
(0.573868 0.468924 -1.47324e-07)
(0.515846 0.520778 -1.19327e-07)
(0.463928 0.582855 -1.12879e-07)
(0.411055 0.665542 -1.07756e-07)
(0.337115 0.788367 -1.08663e-07)
(0.189575 0.996703 -1.36266e-07)
(2.99999 1.27538e-08 -1.1152e-12)
(2.99998 6.9545e-08 -5.31477e-12)
(2.99995 2.58309e-07 -1.54146e-11)
(2.99986 6.61881e-07 -3.28979e-11)
(2.99968 1.82675e-06 -8.60916e-11)
(2.99917 4.16532e-06 -1.71602e-10)
(2.99816 1.10277e-05 -4.81475e-10)
(2.99507 2.39889e-05 -9.07442e-10)
(2.98952 6.74698e-05 -3.01214e-09)
(2.96945 0.000138574 -4.935e-09)
(2.93099 0.000426748 -1.89045e-08)
(2.79546 0.00101289 -3.97246e-08)
(2.40658 0.00302761 -1.03953e-07)
(1.51678 0.00814307 -2.64802e-07)
(0.629432 0.0199908 -2.57697e-07)
(0.541346 0.0210111 4.22679e-09)
(0.567126 0.0221906 -9.15198e-10)
(0.560104 0.0241755 -1.74881e-08)
(0.508394 0.0263444 -1.98444e-08)
(0.42353 0.0287306 -2.09595e-08)
(0.341399 0.0314758 -1.80147e-08)
(0.271806 0.0346375 -1.65716e-08)
(0.201449 0.0379596 -1.63473e-08)
(0.121142 0.0418036 -1.60449e-08)
(0.0537667 0.0475087 -1.52887e-08)
(2.99999 3.8694e-08 -1.11451e-12)
(2.99998 2.11159e-07 -5.31274e-12)
(2.99995 7.84449e-07 -1.53969e-11)
(2.99986 2.00802e-06 -3.28588e-11)
(2.99968 5.54496e-06 -8.59218e-11)
(2.99917 1.26303e-05 -1.71259e-10)
(2.99818 3.34815e-05 -4.80126e-10)
(2.99512 7.26065e-05 -9.05199e-10)
(2.98961 0.000205383 -3.00054e-09)
(2.96975 0.000419142 -4.92001e-09)
(2.93174 0.00130742 -1.88364e-08)
(2.79745 0.0030816 -3.94652e-08)
(2.41308 0.00933849 -1.03653e-07)
(1.53081 0.0250209 -2.63597e-07)
(0.638218 0.0603488 -2.59506e-07)
(0.540911 0.0608084 4.925e-09)
(0.567287 0.0619246 -7.56434e-10)
(0.560772 0.0657591 -1.78396e-08)
(0.509017 0.069914 -2.0031e-08)
(0.424202 0.0745251 -2.09364e-08)
(0.341974 0.0794894 -1.7987e-08)
(0.271741 0.0846934 -1.65862e-08)
(0.200243 0.0895377 -1.63308e-08)
(0.118345 0.0942165 -1.6e-08)
(0.0502122 0.0990976 -1.52059e-08)
(2.99999 6.53443e-08 -1.1187e-12)
(2.99998 3.56916e-07 -5.33266e-12)
(2.99995 1.32501e-06 -1.54322e-11)
(2.99986 3.3898e-06 -3.2941e-11)
(2.99969 9.3509e-06 -8.58489e-11)
(2.99919 2.12777e-05 -1.70994e-10)
(2.99821 5.63528e-05 -4.77932e-10)
(2.99522 0.000121826 -8.98403e-10)
(2.98981 0.00034548 -2.98478e-09)
(2.97035 0.000700234 -4.85626e-09)
(2.93328 0.00220385 -1.87828e-08)
(2.80161 0.00515178 -3.8759e-08)
(2.42686 0.015796 -1.03394e-07)
(1.56136 0.0421327 -2.61023e-07)
(0.658308 0.103298 -2.64621e-07)
(0.541384 0.102842 6.57982e-09)
(0.569556 0.104058 -3.10606e-10)
(0.564707 0.110817 -1.84151e-08)
(0.513403 0.118291 -2.03681e-08)
(0.429197 0.126954 -2.0911e-08)
(0.347156 0.136123 -1.79406e-08)
(0.276391 0.145552 -1.66754e-08)
(0.20376 0.154465 -1.6475e-08)
(0.12021 0.162607 -1.61683e-08)
(0.0498784 0.169102 -1.55184e-08)
(2.99999 9.46464e-08 -1.13397e-12)
(2.99998 5.16421e-07 -5.39323e-12)
(2.99995 1.91784e-06 -1.56277e-11)
(2.99986 4.91181e-06 -3.33935e-11)
(2.9997 1.35342e-05 -8.66268e-11)
(2.99921 3.08551e-05 -1.725e-10)
(2.99826 8.11725e-05 -4.77153e-10)
(2.99536 0.000177755 -8.90026e-10)
(2.9901 0.000488544 -2.97203e-09)
(2.97126 0.00102249 -4.64728e-09)
(2.93558 0.00304075 -1.88764e-08)
(2.80785 0.00722682 -3.71897e-08)
(2.44746 0.0218584 -1.03706e-07)
(1.60798 0.0574911 -2.57105e-07)
(0.689465 0.145117 -2.74702e-07)
(0.542506 0.143711 8.40599e-09)
(0.573874 0.145284 -1.55191e-10)
(0.571874 0.155262 -1.90224e-08)
(0.521422 0.166286 -2.0646e-08)
(0.43834 0.179247 -2.07566e-08)
(0.356719 0.192981 -1.78906e-08)
(0.285553 0.207273 -1.67917e-08)
(0.211633 0.221168 -1.67478e-08)
(0.125683 0.233707 -1.66764e-08)
(0.051681 0.242385 -1.63445e-08)
(2.99999 1.26323e-07 -1.17926e-12)
(2.99998 6.88086e-07 -5.59509e-12)
(2.99995 2.55756e-06 -1.63091e-11)
(2.99987 6.55741e-06 -3.49398e-11)
(2.99971 1.80625e-05 -9.13885e-11)
(2.99925 4.12892e-05 -1.84254e-10)
(2.99834 0.000107845 -5.01966e-10)
(2.99556 0.000240383 -1.02252e-09)
(2.99052 0.000633951 -2.87017e-09)
(2.97244 0.00139137 -5.89338e-09)
(2.93863 0.00381356 -1.63409e-08)
(2.81602 0.00929646 -3.99007e-08)
(2.47344 0.0276745 -9.88122e-08)
(1.66683 0.0713641 -2.42476e-07)
(0.727631 0.186979 -2.86336e-07)
(0.540327 0.184141 9.90051e-09)
(0.577055 0.186072 -1.36881e-09)
(0.579565 0.199219 -2.03483e-08)
(0.530757 0.213666 -2.12623e-08)
(0.4497 0.23087 -2.05153e-08)
(0.369256 0.24936 -1.79862e-08)
(0.298313 0.2689 -1.74782e-08)
(0.223453 0.28838 -1.73889e-08)
(0.134484 0.306244 -1.74382e-08)
(0.0553377 0.318044 -1.74079e-08)
(2.99999 1.60429e-07 -1.17754e-12)
(2.99998 8.70495e-07 -5.59231e-12)
(2.99995 3.2447e-06 -1.62759e-11)
(2.99988 8.33826e-06 -3.48551e-11)
(2.99973 2.30069e-05 -9.09877e-11)
(2.99929 5.28922e-05 -1.83283e-10)
(2.99843 0.000137075 -4.98669e-10)
(2.9958 0.000314183 -1.01048e-09)
(2.99106 0.000782999 -2.85417e-09)
(2.97387 0.00183069 -5.76922e-09)
(2.94237 0.00458132 -1.6377e-08)
(2.82614 0.011356 -3.84581e-08)
(2.50462 0.0332151 -9.94111e-08)
(1.73784 0.0853745 -2.42295e-07)
(0.773772 0.230606 -3.05171e-07)
(0.535484 0.224674 1.41905e-08)
(0.579979 0.226463 -1.47125e-09)
(0.588469 0.242643 -2.11701e-08)
(0.54193 0.260367 -2.15558e-08)
(0.463847 0.281871 -2.00667e-08)
(0.385425 0.305752 -1.7977e-08)
(0.315278 0.331668 -1.74542e-08)
(0.239683 0.358297 -1.76204e-08)
(0.147209 0.383647 -1.80169e-08)
(0.0612582 0.40095 -1.8433e-08)
(2.99999 1.8362e-07 -1.18643e-12)
(2.99998 9.95198e-07 -5.60867e-12)
(2.99996 3.71443e-06 -1.64122e-11)
(2.99989 9.54914e-06 -3.52606e-11)
(2.99975 2.63983e-05 -9.23248e-11)
(2.99934 6.0775e-05 -1.87787e-10)
(2.99855 0.000157902 -5.05443e-10)
(2.99609 0.000362042 -1.06414e-09)
(2.99178 0.00090814 -2.81311e-09)
(2.97555 0.00209637 -5.94046e-09)
(2.94679 0.00549042 -1.74089e-08)
(2.838 0.013074 -3.85379e-08)
(2.54133 0.0387858 -9.16189e-08)
(1.82407 0.100361 -2.52328e-07)
(0.827868 0.276573 -3.28154e-07)
(0.527401 0.265522 2.03446e-08)
(0.582626 0.266161 -1.28087e-09)
(0.598636 0.285078 -2.2189e-08)
(0.555001 0.305902 -2.21258e-08)
(0.481104 0.331772 -2.01769e-08)
(0.406107 0.361772 -1.83532e-08)
(0.338039 0.39537 -1.80806e-08)
(0.262712 0.431422 -1.80982e-08)
(0.166625 0.467923 -1.8497e-08)
(0.0712979 0.495736 -1.92032e-08)
(3 1.8535e-07 -1.0462e-12)
(2.99998 1.01209e-06 -5.01894e-12)
(2.99996 3.75685e-06 -1.43554e-11)
(2.9999 9.61233e-06 -3.05754e-11)
(2.99977 2.65167e-05 -7.91264e-11)
(2.9994 6.03897e-05 -1.57065e-10)
(2.99868 0.000159846 -4.39474e-10)
(2.99642 0.000345329 -8.18306e-10)
(2.99251 0.000977748 -2.75236e-09)
(2.97762 0.00196704 -4.50578e-09)
(2.95176 0.00639438 -1.76879e-08)
(2.85167 0.0136062 -3.03523e-08)
(2.58535 0.0468121 -1.18992e-07)
(1.9276 0.116276 -2.51908e-07)
(0.892188 0.326336 -3.66958e-07)
(0.519372 0.309007 2.7003e-08)
(0.587585 0.306258 1.24335e-09)
(0.612132 0.326469 -2.27034e-08)
(0.571644 0.349641 -2.26626e-08)
(0.503147 0.380021 -2.09072e-08)
(0.432922 0.416969 -1.89701e-08)
(0.368395 0.459785 -1.85976e-08)
(0.295274 0.508021 -1.85306e-08)
(0.197075 0.561252 -1.88234e-08)
(0.0890051 0.610454 -1.96198e-08)
(3 1.97747e-07 -8.89243e-13)
(2.99999 1.0987e-06 -4.35959e-12)
(2.99996 4.04534e-06 -1.20337e-11)
(2.99991 1.03467e-05 -2.53547e-11)
(2.99979 2.83619e-05 -6.39487e-11)
(2.99945 6.43377e-05 -1.22596e-10)
(2.99879 0.000170409 -3.62408e-10)
(2.99677 0.000359031 -5.21732e-10)
(2.99314 0.00106219 -2.76146e-09)
(2.97999 0.00198607 -1.91849e-09)
(2.95673 0.00715306 -2.17579e-08)
(2.86889 0.0140496 -2.42009e-08)
(2.63779 0.0532226 -1.25193e-07)
(2.05199 0.127547 -2.53616e-07)
(0.979697 0.369925 -4.12443e-07)
(0.523917 0.353162 2.31966e-08)
(0.601367 0.346968 3.46544e-09)
(0.633203 0.366219 -2.36631e-08)
(0.595292 0.390788 -2.48333e-08)
(0.532917 0.425719 -2.42887e-08)
(0.468684 0.470556 -2.1383e-08)
(0.409501 0.523269 -2.03338e-08)
(0.342342 0.586289 -1.98054e-08)
(0.248168 0.66561 -1.91912e-08)
(0.123093 0.758983 -2.00169e-08)
(3 3.85919e-07 -9.54693e-13)
(2.99999 8.77621e-07 -4.57497e-12)
(2.99997 5.90143e-06 -1.29762e-11)
(2.99992 9.5169e-06 -2.77118e-11)
(2.99981 4.12249e-05 -7.08948e-11)
(2.99952 6.11946e-05 -1.42312e-10)
(2.99893 0.000253514 -3.88855e-10)
(2.99716 0.000331 -7.63723e-10)
(2.99387 0.00163263 -2.46357e-09)
(2.98262 0.00139431 -3.48754e-09)
(2.96205 0.0110842 -1.84178e-08)
(2.88706 0.0086357 -2.46091e-08)
(2.69274 0.0695244 -1.1551e-07)
(2.18617 0.125252 -2.47007e-07)
(1.08886 0.403463 -4.53549e-07)
(0.552623 0.403067 -6.87299e-09)
(0.628795 0.396647 -5.27091e-09)
(0.664789 0.40715 -2.86558e-08)
(0.629522 0.431768 -3.05238e-08)
(0.573864 0.468922 -2.96588e-08)
(0.515844 0.520776 -2.49117e-08)
(0.463927 0.582853 -2.33858e-08)
(0.411055 0.665541 -2.14593e-08)
(0.337116 0.788366 -1.98511e-08)
(0.189575 0.996702 -2.09148e-08)
(2.99999 1.27538e-08 -1.85291e-13)
(2.99998 6.9545e-08 -8.26826e-13)
(2.99995 2.5831e-07 -2.75349e-12)
(2.99986 6.61881e-07 -5.93465e-12)
(2.99968 1.82675e-06 -1.7218e-11)
(2.99917 4.16533e-06 -3.49447e-11)
(2.99816 1.10278e-05 -1.03287e-10)
(2.99507 2.39889e-05 -1.96011e-10)
(2.98952 6.74699e-05 -6.64804e-10)
(2.96945 0.000138574 -1.08871e-09)
(2.93099 0.000426748 -4.21527e-09)
(2.79546 0.00101289 -8.85623e-09)
(2.40657 0.00302761 -2.32723e-08)
(1.51677 0.0081431 -5.93158e-08)
(0.629428 0.0199908 -5.79017e-08)
(0.541347 0.0210111 9.13585e-10)
(0.567126 0.0221907 -1.66535e-10)
(0.560103 0.0241755 -3.81186e-09)
(0.508393 0.0263444 -4.32073e-09)
(0.42353 0.0287306 -4.53889e-09)
(0.341399 0.0314757 -3.86079e-09)
(0.271805 0.0346375 -3.52603e-09)
(0.201449 0.0379596 -3.46491e-09)
(0.121142 0.0418036 -3.39038e-09)
(0.0537666 0.0475087 -3.23234e-09)
(2.99999 3.8694e-08 -1.85066e-13)
(2.99998 2.11159e-07 -8.2596e-13)
(2.99995 7.84449e-07 -2.7498e-12)
(2.99986 2.00802e-06 -5.92711e-12)
(2.99968 5.54496e-06 -1.71865e-11)
(2.99917 1.26303e-05 -3.4883e-11)
(2.99818 3.34815e-05 -1.0303e-10)
(2.99512 7.26066e-05 -1.95596e-10)
(2.98961 0.000205383 -6.62483e-10)
(2.96975 0.000419142 -1.08577e-09)
(2.93174 0.00130742 -4.20167e-09)
(2.79745 0.0030816 -8.8014e-09)
(2.41307 0.00933851 -2.32137e-08)
(1.5308 0.025021 -5.90674e-08)
(0.638214 0.0603487 -5.83316e-08)
(0.540912 0.0608084 1.05238e-09)
(0.567288 0.0619247 -1.49108e-10)
(0.560772 0.0657591 -3.9119e-09)
(0.509016 0.0699139 -4.38543e-09)
(0.424201 0.0745251 -4.55805e-09)
(0.341974 0.0794894 -3.87403e-09)
(0.271741 0.0846933 -3.54427e-09)
(0.200243 0.0895376 -3.47193e-09)
(0.118345 0.0942164 -3.38644e-09)
(0.0502121 0.0990975 -3.2178e-09)
(2.99999 6.53442e-08 -1.85842e-13)
(2.99998 3.56916e-07 -8.29527e-13)
(2.99995 1.325e-06 -2.75814e-12)
(2.99986 3.3898e-06 -5.94788e-12)
(2.99969 9.3509e-06 -1.71847e-11)
(2.99919 2.12776e-05 -3.48583e-11)
(2.99821 5.63528e-05 -1.02643e-10)
(2.99522 0.000121825 -1.94305e-10)
(2.98981 0.000345481 -6.59532e-10)
(2.97035 0.000700235 -1.07257e-09)
(2.93328 0.00220385 -4.19298e-09)
(2.80161 0.00515179 -8.65091e-09)
(2.42686 0.015796 -2.31732e-08)
(1.56135 0.0421329 -5.85431e-08)
(0.658304 0.103298 -5.95376e-08)
(0.541384 0.102842 1.38043e-09)
(0.569556 0.104058 -9.35738e-11)
(0.564707 0.110817 -4.09401e-09)
(0.513403 0.118291 -4.51704e-09)
(0.429196 0.126954 -4.61148e-09)
(0.347156 0.136123 -3.91463e-09)
(0.276391 0.145552 -3.60302e-09)
(0.20376 0.154465 -3.53115e-09)
(0.12021 0.162607 -3.43908e-09)
(0.0498784 0.169102 -3.29121e-09)
(2.99999 9.4646e-08 -1.88938e-13)
(2.99998 5.16419e-07 -8.41497e-13)
(2.99995 1.91783e-06 -2.80155e-12)
(2.99986 4.91178e-06 -6.05035e-12)
(2.9997 1.35342e-05 -1.73766e-11)
(2.99921 3.0855e-05 -3.52409e-11)
(2.99826 8.11722e-05 -1.0263e-10)
(2.99536 0.000177754 -1.92864e-10)
(2.9901 0.000488544 -6.5743e-10)
(2.97126 0.00102248 -1.02906e-09)
(2.93558 0.00304077 -4.21635e-09)
(2.80785 0.00722682 -8.31912e-09)
(2.44745 0.0218585 -2.32619e-08)
(1.60797 0.0574914 -5.77611e-08)
(0.689461 0.145117 -6.1902e-08)
(0.542507 0.143711 1.7171e-09)
(0.573874 0.145284 -1.33793e-10)
(0.571874 0.155262 -4.32202e-09)
(0.521422 0.166286 -4.67711e-09)
(0.43834 0.179247 -4.67613e-09)
(0.356719 0.192981 -3.99209e-09)
(0.285553 0.207273 -3.70012e-09)
(0.211633 0.221168 -3.64177e-09)
(0.125683 0.233706 -3.57973e-09)
(0.0516809 0.242385 -3.48494e-09)
(2.99999 1.26322e-07 -1.99393e-13)
(2.99998 6.88084e-07 -8.8529e-13)
(2.99995 2.55755e-06 -2.95699e-12)
(2.99987 6.55739e-06 -6.40363e-12)
(2.99971 1.80624e-05 -1.84713e-11)
(2.99925 4.12891e-05 -3.79323e-11)
(2.99834 0.000107844 -1.08351e-10)
(2.99556 0.000240382 -2.22775e-10)
(2.99052 0.000633951 -6.35875e-10)
(2.97244 0.00139136 -1.30898e-09)
(2.93863 0.00381357 -3.65899e-09)
(2.81602 0.00929647 -8.93566e-09)
(2.47344 0.0276745 -2.22327e-08)
(1.66683 0.0713644 -5.46003e-08)
(0.727627 0.186979 -6.46896e-08)
(0.540328 0.184141 1.95404e-09)
(0.577055 0.186072 -5.02303e-10)
(0.579565 0.199219 -4.73572e-09)
(0.530757 0.213666 -4.93731e-09)
(0.4497 0.23087 -4.74822e-09)
(0.369255 0.24936 -4.12377e-09)
(0.298313 0.2689 -3.93896e-09)
(0.223453 0.28838 -3.8493e-09)
(0.134484 0.306243 -3.78998e-09)
(0.0553376 0.318044 -3.74355e-09)
(2.99999 1.60429e-07 -1.9938e-13)
(2.99998 8.70495e-07 -8.867e-13)
(2.99995 3.24469e-06 -2.95482e-12)
(2.99988 8.33826e-06 -6.39616e-12)
(2.99973 2.30069e-05 -1.84153e-11)