/*--------------------------------*- C++ -*----------------------------------*\
| =========                 |                                                 |
| \\      /  F ield         | OpenFOAM: The Open Source CFD Toolbox           |
|  \\    /   O peration     | Version:  4.1                                   |
|   \\  /    A nd           | Web:      www.OpenFOAM.org                      |
|    \\/     M anipulation  |                                                 |
\*---------------------------------------------------------------------------*/
FoamFile
{
    version     2.0;
    format      ascii;
    class       volScalarField;
    location    "0.72";
    object      Ma;
}
// * * * * * * * * * * * * * * * * * * * * * * * * * * * * * * * * * * * * * //

dimensions      [0 0 0 0 0 0 0];

internalField   nonuniform List<scalar> 
52500
(
3.47641
1.84415
0.420462
0.0175424
0.230959
0.291503
0.201811
0.193846
0.244597
0.26428
0.275154
0.292834
0.308932
0.316752
0.314054
0.303784
0.288005
0.267019
0.242897
0.204726
0.160368
0.11754
0.0921791
0.0538376
0.0415749
3.46775
1.8569
0.429965
0.0483426
0.226498
0.293189
0.204776
0.19543
0.244701
0.264695
0.276347
0.294483
0.311251
0.31971
0.317617
0.307449
0.291684
0.270828
0.247205
0.210225
0.167597
0.127467
0.105006
0.0739299
0.0665377
3.44778
1.88477
0.452172
0.0837772
0.220391
0.29846
0.213592
0.203185
0.250217
0.270471
0.282721
0.30047
0.317489
0.32626
0.324761
0.314859
0.299716
0.279707
0.257421
0.223064
0.184362
0.149882
0.133039
0.111904
0.10876
3.41782
1.92618
0.487251
0.119896
0.211461
0.306926
0.227161
0.214539
0.257953
0.278574
0.291541
0.308746
0.325714
0.334955
0.334631
0.32526
0.310931
0.292196
0.27186
0.241111
0.20761
0.179656
0.168743
0.155034
0.154774
3.37955
1.97881
0.53618
0.157002
0.202044
0.317315
0.244045
0.228485
0.267686
0.289332
0.302688
0.319142
0.336141
0.345911
0.346831
0.338084
0.325015
0.308029
0.29015
0.263819
0.236179
0.214686
0.209164
0.201229
0.203807
3.33423
2.04157
0.60134
0.196303
0.194542
0.328663
0.263638
0.24481
0.279145
0.302545
0.315834
0.33154
0.348535
0.35879
0.360951
0.353248
0.341866
0.327014
0.311992
0.290782
0.269318
0.254319
0.254083
0.251738
0.257857
3.28435
2.11389
0.687186
0.237986
0.192258
0.340356
0.285503
0.263442
0.292237
0.317894
0.330592
0.345574
0.362629
0.373331
0.376814
0.370694
0.361221
0.348779
0.336944
0.321468
0.306527
0.298317
0.30375
0.307832
0.319474
3.23041
2.19048
0.800484
0.282128
0.200132
0.351702
0.3095
0.284208
0.306832
0.33463
0.346323
0.360973
0.378158
0.389228
0.394208
0.390297
0.382665
0.372848
0.36458
0.355454
0.347448
0.346336
0.358894
0.371712
0.394115
3.17244
2.26685
0.945606
0.32825
0.219937
0.362801
0.335558
0.30657
0.322999
0.352196
0.362737
0.377454
0.394828
0.406395
0.41313
0.411788
0.405708
0.398687
0.394543
0.391879
0.391418
0.398528
0.420408
0.445685
0.492186
3.11103
2.34308
1.12374
0.37445
0.251989
0.376367
0.362162
0.329969
0.340675
0.369742
0.379587
0.394627
0.412503
0.424985
0.433187
0.434466
0.429968
0.425937
0.426219
0.430311
0.438081
0.454958
0.48971
0.540163
0.649946
3.4765
1.84401
0.420311
0.0157396
0.2308
0.291355
0.201623
0.193601
0.244326
0.264057
0.274994
0.292739
0.308895
0.316748
0.314053
0.303758
0.287944
0.266922
0.242756
0.204522
0.160105
0.117217
0.0918289
0.0533393
0.0410011
3.46779
1.85681
0.429861
0.0477391
0.22652
0.293158
0.204795
0.195517
0.244859
0.264869
0.276577
0.294751
0.311476
0.319848
0.317684
0.307445
0.291635
0.270737
0.247071
0.21003
0.167347
0.127171
0.1047
0.0735699
0.0661924
3.44784
1.88467
0.452053
0.0833544
0.220325
0.298429
0.213568
0.203143
0.250203
0.270465
0.282728
0.300511
0.317517
0.326272
0.324745
0.314811
0.299635
0.279598
0.257283
0.222877
0.184135
0.149631
0.132804
0.111671
0.108563
3.41791
1.92607
0.487115
0.119578
0.211355
0.30684
0.227064
0.214411
0.257825
0.278456
0.291414
0.308635
0.325601
0.334831
0.334482
0.325114
0.310788
0.292057
0.271711
0.240929
0.207407
0.17945
0.168564
0.154873
0.154646
3.37965
1.9787
0.536046
0.156774
0.20192
0.317201
0.243908
0.228328
0.267528
0.289159
0.302513
0.318936
0.335909
0.345665
0.346571
0.337837
0.324803
0.307849
0.289988
0.263645
0.235998
0.214516
0.209022
0.201109
0.203714
3.33434
2.04147
0.601208
0.196131
0.194424
0.328552
0.263499
0.244669
0.278997
0.30235
0.315616
0.331305
0.348262
0.358491
0.360639
0.352968
0.341627
0.326815
0.311827
0.290615
0.269157
0.254174
0.253967
0.251643
0.257786
3.28444
2.11379
0.687047
0.23785
0.192142
0.340247
0.285374
0.263329
0.292124
0.317726
0.330427
0.345386
0.362364
0.37303
0.376488
0.370386
0.360981
0.348584
0.336793
0.321313
0.306381
0.298189
0.303649
0.307753
0.319417
3.23051
2.19041
0.800335
0.282022
0.200011
0.351596
0.309387
0.284125
0.306759
0.334502
0.34622
0.360854
0.377942
0.388967
0.393917
0.390014
0.382445
0.372667
0.364441
0.355311
0.347313
0.346219
0.358804
0.371643
0.394067
3.17254
2.26679
0.945452
0.328175
0.219814
0.362699
0.335461
0.306516
0.322965
0.352116
0.362683
0.377387
0.394672
0.406192
0.412894
0.411557
0.405515
0.398525
0.394412
0.391749
0.391295
0.398421
0.420327
0.445623
0.492144
3.11112
2.34304
1.12358
0.374409
0.25187
0.376271
0.362084
0.329939
0.340673
0.369708
0.379587
0.394611
0.412407
0.424847
0.433016
0.434296
0.429808
0.425798
0.426099
0.430193
0.437972
0.454862
0.489635
0.54011
0.64991
3.47646
1.84408
0.420376
0.0156904
0.230832
0.291382
0.201638
0.193644
0.244384
0.264068
0.274932
0.292605
0.308716
0.316555
0.313869
0.303628
0.287858
0.266873
0.242734
0.204526
0.160138
0.117268
0.0918846
0.0533746
0.0410116
3.46779
1.85684
0.429891
0.0477141
0.226414
0.293102
0.20467
0.195331
0.244626
0.264622
0.276272
0.294396
0.311154
0.319605
0.317501
0.307336
0.291562
0.270694
0.247049
0.210032
0.167378
0.127217
0.104749
0.0735945
0.0661972
3.44782
1.88471
0.4521
0.0834005
0.220294
0.298383
0.213503
0.203094
0.250151
0.270418
0.282675
0.300424
0.31743
0.326181
0.324664
0.314752
0.299597
0.279576
0.257272
0.222886
0.184166
0.149672
0.132843
0.111686
0.108564
3.41787
1.92613
0.487178
0.119625
0.211352
0.306844
0.227074
0.214447
0.257883
0.278528
0.291501
0.308716
0.325672
0.334899
0.334554
0.325177
0.310828
0.292076
0.271722
0.240948
0.20744
0.179487
0.168596
0.154884
0.154644
3.3796
1.97875
0.536109
0.156798
0.201926
0.317229
0.243958
0.228393
0.267621
0.289295
0.302672
0.319111
0.336096
0.345856
0.346757
0.337983
0.324897
0.307904
0.290016
0.263673
0.236034
0.214551
0.209051
0.201118
0.203712
3.33429
2.04152
0.60127
0.196142
0.19442
0.328579
0.263554
0.244723
0.279077
0.302498
0.315777
0.331496
0.348501
0.358735
0.360873
0.353142
0.341744
0.326888
0.311864
0.290652
0.269195
0.254209
0.253995
0.251652
0.257784
3.28439
2.11384
0.687113
0.237856
0.192129
0.340272
0.285419
0.263357
0.292169
0.317842
0.330544
0.345535
0.362584
0.373267
0.376725
0.370583
0.361105
0.34866
0.336826
0.321352
0.306421
0.298227
0.303678
0.307763
0.319416
3.23046
2.19045
0.800406
0.282024
0.199998
0.351616
0.309415
0.284127
0.306764
0.334563
0.346277
0.360943
0.378108
0.38916
0.394119
0.390182
0.38255
0.372734
0.364475
0.355352
0.347356
0.346259
0.358834
0.371655
0.394068
3.17249
2.26682
0.945527
0.328172
0.219805
0.362712
0.335476
0.306497
0.322935
0.352119
0.362681
0.377429
0.394783
0.406331
0.413047
0.411687
0.405599
0.398578
0.394446
0.391789
0.391338
0.398462
0.420358
0.445637
0.492147
3.11108
2.34306
1.12366
0.374399
0.251868
0.376278
0.362087
0.329906
0.340618
0.369668
0.379544
0.394619
0.412467
0.424928
0.433111
0.434376
0.429869
0.42584
0.42613
0.43023
0.438015
0.454901
0.489666
0.540126
0.649915
3.47648
1.84406
0.420366
0.0156952
0.230838
0.291379
0.201633
0.193635
0.244369
0.264057
0.274923
0.292602
0.308713
0.316546
0.31385
0.303599
0.287822
0.266832
0.242691
0.204481
0.160101
0.117237
0.0918659
0.0533649
0.0410084
3.4678
1.85683
0.429884
0.0477206
0.22643
0.293105
0.204675
0.195341
0.244636
0.264633
0.276285
0.294413
0.311165
0.319603
0.317484
0.307306
0.291524
0.270653
0.247007
0.209989
0.167342
0.12719
0.104735
0.0735904
0.0662004
3.44783
1.8847
0.452093
0.0834063
0.220304
0.298387
0.213509
0.203103
0.250163
0.270432
0.282692
0.300446
0.317446
0.326188
0.324655
0.314731
0.299563
0.279536
0.25723
0.222844
0.184133
0.14965
0.132834
0.111688
0.108573
3.41788
1.92612
0.487175
0.119632
0.211362
0.306846
0.227077
0.21445
0.257888
0.278532
0.2915
0.308717
0.325664
0.334869
0.334511
0.32512
0.310773
0.292027
0.271677
0.240908
0.20741
0.17947
0.168593
0.154891
0.154657
3.3796
1.97875
0.53611
0.156808
0.201933
0.317227
0.243953
0.228385
0.267611
0.289277
0.302641
0.319069
0.336038
0.345779
0.346672
0.3379
0.324828
0.307845
0.289969
0.263634
0.236008
0.214538
0.209051
0.201128
0.203725
3.33429
2.04152
0.601277
0.196157
0.194425
0.328574
0.263543
0.244709
0.279059
0.302461
0.315734
0.331435
0.348407
0.358634
0.360774
0.353064
0.341678
0.32683
0.311818
0.290613
0.269171
0.2542
0.253998
0.251662
0.257797
3.28439
2.11385
0.687128
0.237877
0.192138
0.340266
0.285409
0.263347
0.292155
0.317807
0.330511
0.345487
0.362501
0.373177
0.376634
0.370502
0.361046
0.34861
0.336791
0.321318
0.3064
0.298219
0.303681
0.307772
0.319428
3.23045
2.19046
0.800434
0.282051
0.200012
0.351611
0.30941
0.284126
0.306763
0.334547
0.346266
0.360917
0.378053
0.3891
0.39406
0.390134
0.382509
0.372695
0.364445
0.355322
0.347337
0.346252
0.358837
0.371662
0.394078
3.17248
2.26684
0.945572
0.328204
0.219827
0.362709
0.335477
0.306506
0.322948
0.352127
0.362691
0.377416
0.394754
0.406303
0.413019
0.411668
0.405575
0.398549
0.394418
0.391762
0.391321
0.398455
0.42036
0.445642
0.492154
3.11107
2.34309
1.12372
0.374434
0.251908
0.376282
0.362092
0.329922
0.340641
0.369694
0.379565
0.394615
0.412459
0.424927
0.433111
0.434384
0.429856
0.425818
0.426106
0.430206
0.437999
0.454894
0.489666
0.540128
0.64992
3.47638
1.84422
0.42047
0.0156978
0.230776
0.291396
0.20165
0.193636
0.244364
0.264054
0.274918
0.292599
0.308711
0.316543
0.313845
0.303592
0.28782
0.266839
0.242711
0.204516
0.16014
0.117274
0.0918883
0.0533743
0.0410043
3.46771
1.85698
0.42999
0.0477238
0.226361
0.293117
0.204688
0.195336
0.244623
0.264622
0.276271
0.294399
0.311153
0.319593
0.317474
0.307297
0.291522
0.27066
0.247027
0.210023
0.167382
0.127226
0.104757
0.0736029
0.0661971
3.44774
1.88485
0.452204
0.083417
0.220234
0.298398
0.213521
0.203099
0.250151
0.270419
0.282675
0.30043
0.317432
0.326177
0.324647
0.314725
0.299563
0.279543
0.257248
0.222874
0.184168
0.14968
0.132852
0.1117
0.108568
3.41779
1.92627
0.487292
0.119648
0.211296
0.306854
0.227089
0.214449
0.257878
0.27852
0.291489
0.308698
0.325644
0.334855
0.334503
0.325116
0.310774
0.292034
0.271692
0.240933
0.207438
0.179493
0.168606
0.154901
0.154652
3.37952
1.97889
0.536236
0.156823
0.201873
0.317236
0.243967
0.228388
0.267601
0.289264
0.30261
0.319053
0.336032
0.345772
0.34667
0.337902
0.324832
0.307852
0.289981
0.263652
0.236027
0.214554
0.209061
0.201135
0.203722
3.33421
2.04166
0.601414
0.196172
0.194371
0.328579
0.263558
0.244714
0.279056
0.302458
0.315739
0.331422
0.348383
0.358618
0.360769
0.353067
0.341684
0.326837
0.311827
0.290626
0.269185
0.254211
0.254004
0.251668
0.257795
3.28432
2.11398
0.687283
0.23789
0.192097
0.34027
0.285426
0.263356
0.292156
0.317806
0.330505
0.345471
0.362479
0.373163
0.376632
0.370506
0.361052
0.348616
0.336799
0.321327
0.30641
0.298227
0.303686
0.307775
0.319426
3.23039
2.19057
0.800608
0.282062
0.199989
0.351614
0.30943
0.284137
0.306768
0.334559
0.346261
0.360903
0.378046
0.389099
0.394065
0.390145
0.382519
0.372703
0.364452
0.355329
0.347346
0.34626
0.35884
0.371663
0.394074
3.17242
2.26693
0.945758
0.32821
0.219818
0.362711
0.335495
0.306515
0.322955
0.352155
0.362707
0.377408
0.394755
0.40631
0.413029
0.411682
0.405587
0.398558
0.394426
0.391768
0.391328
0.398462
0.420362
0.445641
0.492152
3.11101
2.34317
1.12391
0.374433
0.251907
0.376287
0.362106
0.329926
0.340648
0.369726
0.379579
0.394599
0.412462
0.424938
0.433124
0.434401
0.429871
0.425829
0.426115
0.430214
0.438005
0.454902
0.489668
0.540125
0.649916
3.47642
1.84417
0.420437
0.0156983
0.230798
0.291394
0.201648
0.193634
0.244359
0.26405
0.274914
0.292593
0.308704
0.316535
0.313835
0.303582
0.287807
0.266826
0.242696
0.204498
0.160123
0.117257
0.0918785
0.0533696
0.0410096
3.46774
1.85693
0.429958
0.047724
0.226388
0.293118
0.204691
0.195342
0.244629
0.264629
0.276278
0.294404
0.311156
0.319593
0.31747
0.307291
0.291512
0.270647
0.247011
0.210004
0.167362
0.127207
0.104745
0.0735931
0.0662
3.44778
1.8848
0.45217
0.0834134
0.22026
0.2984
0.213525
0.203105
0.250157
0.270427
0.282684
0.300437
0.317436
0.326178
0.324644
0.314719
0.299553
0.279531
0.257234
0.222857
0.18415
0.149664
0.132841
0.111688
0.108571
3.41782
1.92622
0.487255
0.119642
0.211321
0.306856
0.227092
0.214454
0.257883
0.278526
0.291496
0.308704
0.325647
0.334856
0.334501
0.325111
0.310766
0.292024
0.27168
0.240918
0.207424
0.17948
0.168596
0.154889
0.154654
3.37955
1.97885
0.536197
0.156818
0.201895
0.317237
0.243968
0.22839
0.267604
0.28927
0.302616
0.319057
0.336034
0.345773
0.346669
0.337898
0.324825
0.307844
0.289971
0.263641
0.236017
0.214545
0.209053
0.201125
0.203721
3.33424
2.04162
0.60137
0.196166
0.194391
0.32858
0.263558
0.244716
0.279059
0.302462
0.315744
0.331425
0.348384
0.358617
0.360767
0.353063
0.341678
0.32683
0.311819
0.290617
0.269177
0.254205
0.253999
0.251659
0.257792
3.28435
2.11394
0.687232
0.237885
0.192112
0.340271
0.285425
0.263357
0.292158
0.317809
0.330509
0.345474
0.362479
0.373162
0.376629
0.370503
0.361048
0.34861
0.336791
0.32132
0.306404
0.298223
0.303682
0.307769
0.319424
3.23041
2.19054
0.800549
0.282057
0.199997
0.351615
0.309428
0.284138
0.30677
0.334561
0.346264
0.360905
0.378046
0.389098
0.394063
0.390141
0.382515
0.372697
0.364445
0.355323
0.34734
0.346255
0.358838
0.371659
0.394074
3.17244
2.2669
0.945692
0.328205
0.219819
0.362713
0.335494
0.306516
0.322958
0.352157
0.36271
0.37741
0.394756
0.406309
0.413028
0.411679
0.405583
0.398552
0.394418
0.391762
0.391323
0.398458
0.420361
0.44564
0.492151
3.11103
2.34314
1.12384
0.37443
0.251904
0.376286
0.362105
0.329928
0.340651
0.369729
0.379582
0.394601
0.412463
0.424938
0.433124
0.434399
0.429867
0.425823
0.426107
0.430207
0.438001
0.454898
0.489669
0.540128
0.649918
3.47648
1.84406
0.420365
0.0156952
0.230839
0.291379
0.201633
0.193635
0.24437
0.264057
0.274924
0.292602
0.308713
0.316547
0.313851
0.303599
0.287822
0.266832
0.242691
0.204481
0.160101
0.117237
0.0918658
0.0533648
0.0410084
3.4678
1.85683
0.429883
0.0477205
0.22643
0.293105
0.204675
0.195341
0.244636
0.264633
0.276285
0.294413
0.311165
0.319603
0.317484
0.307306
0.291524
0.270652
0.247007
0.209989
0.167342
0.12719
0.104734
0.0735904
0.0662004
3.44783
1.8847
0.452093
0.0834063
0.220305
0.298387
0.213509
0.203103
0.250163
0.270432
0.282692
0.300446
0.317446
0.326188
0.324655
0.314731
0.299563
0.279536
0.25723
0.222843
0.184133
0.14965
0.132834
0.111688
0.108573
3.41788
1.92612
0.487174
0.119632
0.211363
0.306846
0.227077
0.21445
0.257888
0.278532
0.2915
0.308717
0.325664
0.334869
0.334511
0.32512
0.310773
0.292027
0.271676
0.240908
0.20741
0.17947
0.168592
0.154891
0.154657
3.37961
1.97875
0.53611
0.156808
0.201933
0.317227
0.243953
0.228385
0.267611
0.289277
0.302641
0.319069
0.336038
0.345779
0.346672
0.3379
0.324827
0.307845
0.289968
0.263634
0.236007
0.214538
0.209051
0.201128
0.203725
3.33429
2.04152
0.601276
0.196157
0.194425
0.328574
0.263543
0.244709
0.279059
0.302461
0.315734
0.331435
0.348407
0.358634
0.360774
0.353064
0.341678
0.32683
0.311818
0.290613
0.269171
0.2542
0.253998
0.251662
0.257797
3.28439
2.11385
0.687128
0.237877
0.192138
0.340266
0.285409
0.263347
0.292155
0.317807
0.330511
0.345487
0.362501
0.373177
0.376634
0.370502
0.361046
0.34861
0.336791
0.321318
0.3064
0.298219
0.303681
0.307772
0.319429
3.23045
2.19046
0.800433
0.282051
0.200013
0.351611
0.30941
0.284126
0.306763
0.334547
0.346266
0.360917
0.378053
0.3891
0.39406
0.390134
0.382509
0.372694
0.364444
0.355322
0.347337
0.346252
0.358837
0.371662
0.394078
3.17248
2.26684
0.945571
0.328204
0.219827
0.362709
0.335477
0.306506
0.322948
0.352127
0.362691
0.377416
0.394754
0.406303
0.413019
0.411668
0.405575
0.398549
0.394418
0.391762
0.391321
0.398455
0.42036
0.445642
0.492154
3.11107
2.34309
1.12372
0.374434
0.251908
0.376282
0.362092
0.329922
0.340641
0.369694
0.379565
0.394615
0.412459
0.424927
0.433111
0.434384
0.429856
0.425818
0.426106
0.430206
0.437999
0.454894
0.489666
0.540128
0.649921
3.47646
1.84408
0.420376
0.0156904
0.230832
0.291382
0.201638
0.193644
0.244384
0.264068
0.274932
0.292605
0.308716
0.316555
0.313869
0.303628
0.287858
0.266873
0.242734
0.204526
0.160138
0.117268
0.0918846
0.0533746
0.0410116
3.46779
1.85684
0.429891
0.0477141
0.226414
0.293102
0.20467
0.195331
0.244626
0.264622
0.276272
0.294396
0.311154
0.319605
0.317501
0.307336
0.291562
0.270694
0.247049
0.210032
0.167378
0.127217
0.104749
0.0735945
0.0661972
3.44782
1.88471
0.4521
0.0834005
0.220294
0.298383
0.213503
0.203094
0.250151
0.270418
0.282675
0.300424
0.31743
0.326181
0.324664
0.314752
0.299597
0.279576
0.257272
0.222886
0.184166
0.149672
0.132843
0.111686
0.108564
3.41787
1.92613
0.487177
0.119625
0.211352
0.306844
0.227074
0.214447
0.257883
0.278528
0.291501
0.308716
0.325672
0.334899
0.334554
0.325177
0.310828
0.292076
0.271722
0.240948
0.207439
0.179487
0.168596
0.154884
0.154644
3.3796
1.97875
0.536109
0.156798
0.201926
0.317229
0.243958
0.228393
0.267621
0.289295
0.302672
0.319111
0.336096
0.345856
0.346757
0.337983
0.324897
0.307904
0.290016
0.263673
0.236034
0.214551
0.209051
0.201118
0.203712
3.33429
2.04152
0.60127
0.196142
0.19442
0.328579
0.263554
0.244723
0.279077
0.302498
0.315777
0.331496
0.348501
0.358735
0.360873
0.353142
0.341744
0.326888
0.311864
0.290652
0.269195
0.254209
0.253995
0.251652
0.257784
3.28439
2.11384
0.687113
0.237856
0.192129
0.340272
0.285419
0.263357
0.292169
0.317842
0.330544
0.345535
0.362584
0.373267
0.376725
0.370583
0.361105
0.34866
0.336826
0.321352
0.306421
0.298227
0.303678
0.307763
0.319416
3.23046
2.19045
0.800406
0.282024
0.199998
0.351616
0.309415
0.284127
0.306764
0.334563
0.346277
0.360943
0.378108
0.38916
0.394119
0.390182
0.38255
0.372734
0.364475
0.355352
0.347356
0.346259
0.358834
0.371655
0.394068
3.17249
2.26682
0.945527
0.328172
0.219805
0.362712
0.335476
0.306497
0.322935
0.352119
0.362681
0.377429
0.394783
0.406331
0.413047
0.411687
0.405599
0.398578
0.394446
0.391789
0.391338
0.398462
0.420358
0.445637
0.492147
3.11108
2.34306
1.12366
0.374399
0.251868
0.376278
0.362087
0.329906
0.340618
0.369668
0.379544
0.394619
0.412467
0.424928
0.433111
0.434376
0.429869
0.42584
0.42613
0.43023
0.438015
0.454901
0.489666
0.540126
0.649915
3.4765
1.84401
0.420311
0.0157396
0.230801
0.291355
0.201623
0.193601
0.244327
0.264057
0.274994
0.292739
0.308896
0.316748
0.314053
0.303758
0.287944
0.266922
0.242756
0.204523
0.160106
0.117217
0.0918289
0.0533393
0.0410011
3.46779
1.85681
0.429861
0.0477391
0.226521
0.293158
0.204795
0.195517
0.244859
0.264869
0.276578
0.294751
0.311476
0.319848
0.317684
0.307445
0.291635
0.270737
0.247071
0.21003
0.167348
0.127171
0.1047
0.0735699
0.0661924
3.44784
1.88467
0.452053
0.0833545
0.220325
0.298429
0.213568
0.203143
0.250202
0.270465
0.282728
0.300511
0.317517
0.326272
0.324746
0.314811
0.299636
0.279598
0.257283
0.222877
0.184135
0.149631
0.132804
0.111671
0.108563
3.41791
1.92607
0.487115
0.119578
0.211355
0.30684
0.227064
0.214411
0.257825
0.278456
0.291414
0.308635
0.325601
0.334831
0.334482
0.325114
0.310789
0.292058
0.271712
0.24093
0.207407
0.17945
0.168564
0.154873
0.154646
3.37965
1.9787
0.536046
0.156774
0.20192
0.317201
0.243908
0.228328
0.267528
0.289159
0.302513
0.318936
0.335909
0.345666
0.346571
0.337837
0.324804
0.307849
0.289988
0.263646
0.235999
0.214516
0.209022
0.201109
0.203714
3.33434
2.04147
0.601208
0.196131
0.194424
0.328552
0.263499
0.244669
0.278997
0.30235
0.315617
0.331305
0.348262
0.358492
0.360639
0.352968
0.341627
0.326815
0.311827
0.290616
0.269157
0.254174
0.253967
0.251643
0.257786
3.28444
2.11379
0.687047
0.237851
0.192142
0.340247
0.285374
0.263329
0.292124
0.317726
0.330427
0.345386
0.362364
0.373031
0.376488
0.370386
0.360982
0.348585
0.336793
0.321313
0.306381
0.298189
0.303649
0.307753
0.319417
3.23051
2.19041
0.800335
0.282022
0.200012
0.351596
0.309386
0.284125
0.306759
0.334502
0.34622
0.360854
0.377942
0.388967
0.393918
0.390015
0.382445
0.372668
0.364441
0.355312
0.347314
0.346219
0.358804
0.371643
0.394067
3.17253
2.26679
0.945453
0.328176
0.219814
0.362699
0.335461
0.306516
0.322965
0.352116
0.362683
0.377387
0.394672
0.406193
0.412894
0.411558
0.405516
0.398525
0.394412
0.391749
0.391295
0.398421
0.420327
0.445623
0.492144
3.11112
2.34304
1.12358
0.37441
0.25187
0.376271
0.362084
0.329939
0.340673
0.369708
0.379587
0.394611
0.412407
0.424847
0.433016
0.434296
0.429809
0.425798
0.426099
0.430193
0.437972
0.454862
0.489635
0.54011
0.64991
3.47648
1.844
0.420352
0.0175517
0.230989
0.29147
0.201733
0.193746
0.244433
0.264091
0.274949
0.292629
0.308778
0.316659
0.314007
0.303775
0.28801
0.267032
0.24291
0.204731
0.16036
0.117511
0.0921444
0.0537953
0.0415901
3.4678
1.85676
0.42986
0.0483636
0.226562
0.293194
0.204784
0.19547
0.244749
0.264743
0.276414
0.294557
0.311351
0.319821
0.317722
0.307532
0.291744
0.270871
0.247237
0.210247
0.167606
0.127459
0.104992
0.0739049
0.0665454
3.44782
1.88464
0.452072
0.0837811
0.22047
0.298493
0.213657
0.203297
0.250372
0.270649
0.28296
0.300757
0.317752
0.326462
0.324917
0.31496
0.299786
0.279759
0.257459
0.223093
0.184379
0.149883
0.133032
0.111883
0.10876
3.41787
1.92606
0.487149
0.119879
0.211532
0.306957
0.227218
0.214609
0.258058
0.278711
0.291691
0.308937
0.325882
0.335059
0.3347
0.325291
0.310964
0.292231
0.271893
0.24114
0.207628
0.17966
0.168739
0.155018
0.154768
3.3796
1.97869
0.536075
0.156981
0.202088
0.317326
0.244054
0.228476
0.267696
0.289366
0.302716
0.319164
0.336143
0.345882
0.346799
0.338045
0.324996
0.308027
0.290166
0.263841
0.236194
0.21469
0.209161
0.201219
0.203801
3.33429
2.04146
0.60123
0.196289
0.19457
0.328658
0.263611
0.244754
0.279091
0.302482
0.315782
0.331464
0.348411
0.358668
0.360843
0.35319
0.341845
0.327008
0.312007
0.290796
0.269327
0.254321
0.25408
0.251731
0.257853
3.28439
2.11379
0.687071
0.237984
0.192281
0.340344
0.285462
0.263377
0.292167
0.317797
0.330524
0.34549
0.362498
0.373212
0.376706
0.370627
0.3612
0.348775
0.336966
0.321479
0.306532
0.298318
0.303747
0.307827
0.31947
3.23045
2.19041
0.800366
0.282138
0.20015
0.351689
0.309458
0.284157
0.306778
0.334553
0.346281
0.360917
0.378068
0.389144
0.394138
0.390251
0.382646
0.372845
0.364604
0.355464
0.347451
0.346334
0.358889
0.371706
0.394111
3.17247
2.26679
0.945498
0.32827
0.21995
0.362788
0.335521
0.306537
0.322972
0.352165
0.362725
0.377409
0.394773
0.406358
0.413099
0.411787
0.405699
0.398684
0.394556
0.391885
0.391418
0.398525
0.420403
0.445678
0.492177
3.11106
2.34305
1.12365
0.374475
0.252
0.376353
0.362132
0.329951
0.340671
0.369749
0.3796
0.394602
0.412477
0.424979
0.433186
0.434494
0.42997
0.425941
0.426226
0.43031
0.438078
0.454952
0.489702
0.540154
0.649935
3.04663
2.4134
1.3253
0.422638
0.293501
0.390706
0.38791
0.353007
0.359313
0.386519
0.396822
0.412002
0.431222
0.444987
0.454411
0.458352
0.455281
0.454236
0.458752
0.469663
0.486017
0.513349
0.56507
0.653488
0.837848
2.97948
2.47027
1.52935
0.483096
0.339595
0.400006
0.411272
0.375548
0.37903
0.402324
0.414906
0.429971
0.450821
0.465959
0.476353
0.482574
0.48157
0.483086
0.491101
0.50757
0.532405
0.570357
0.634993
0.73905
0.928208
2.91215
2.51559
1.71029
0.569084
0.389098
0.403854
0.432288
0.397284
0.3985
0.41809
0.434322
0.448931
0.471414
0.487293
0.49835
0.506138
0.507894
0.511385
0.522326
0.543059
0.575133
0.618578
0.689175
0.78831
0.951488
2.85094
2.56376
1.87975
0.693963
0.447359
0.408624
0.448291
0.416535
0.41767
0.435895
0.455668
0.469586
0.490949
0.508723
0.521495
0.531163
0.536007
0.539337
0.552023
0.575204
0.612168
0.658547
0.726503
0.818542
0.949369
2.8048
2.62446
2.05718
0.878932
0.519231
0.417909
0.456128
0.436788
0.439353
0.456965
0.477705
0.489679
0.509949
0.530182
0.544355
0.555219
0.562841
0.56634
0.579937
0.603687
0.641306
0.688979
0.756156
0.83905
0.940773
2.78666
2.70112
2.25999
1.14993
0.593069
0.432228
0.462929
0.463343
0.463138
0.479335
0.498851
0.51033
0.526852
0.551159
0.567495
0.580017
0.589732
0.594264
0.605042
0.628388
0.664992
0.71292
0.776745
0.850379
0.931909
2.81183
2.78522
2.45499
1.50674
0.658624
0.455338
0.481135
0.492782
0.487905
0.501146
0.519549
0.531085
0.545408
0.571249
0.591071
0.60401
0.614949
0.622164
0.629629
0.650392
0.684175
0.731929
0.788884
0.853031
0.924388
2.8766
2.8652
2.60826
1.81661
0.732483
0.496013
0.506157
0.522747
0.513174
0.522594
0.539656
0.552386
0.564761
0.59101
0.614128
0.627862
0.639033
0.648839
0.654125
0.670556
0.701307
0.74308
0.793465
0.851221
0.915647
2.93882
2.93989
2.73642
2.05977
0.876883
0.564893
0.537104
0.546706
0.537785
0.543935
0.559489
0.574291
0.585747
0.607911
0.635094
0.651017
0.661935
0.672518
0.678777
0.688502
0.714242
0.748633
0.793203
0.848084
0.907379
2.98919
3.00494
2.85881
2.29971
1.12723
0.663357
0.566739
0.564322
0.565178
0.566823
0.581371
0.596974
0.607524
0.623444
0.653416
0.673051
0.684446
0.694554
0.704331
0.709171
0.725895
0.755151
0.792666
0.841295
0.897994
3.02461
3.0661
2.97025
2.56155
1.52558
0.758361
0.584676
0.588704
0.595195
0.591844
0.605197
0.619938
0.629789
0.640641
0.668333
0.691877
0.705156
0.714714
0.724909
0.730105
0.737937
0.762014
0.794706
0.834741
0.883671
3.05282
3.11659
3.05056
2.76244
1.96178
0.904261
0.61388
0.622815
0.62135
0.6201
0.630923
0.643341
0.651764
0.658476
0.679427
0.706302
0.725109
0.734794
0.743823
0.752963
0.755444
0.768504
0.796213
0.830517
0.871517
3.07667
3.1587
3.11165
2.90248
2.27194
1.12985
0.698171
0.661781
0.649872
0.654005
0.658547
0.667283
0.6739
0.676547
0.691891
0.721723
0.742785
0.754302
0.760641
0.76959
0.776799
0.779881
0.798783
0.827263
0.861611
3.09562
3.19426
3.16292
3.02072
2.56196
1.51154
0.818454
0.69638
0.686461
0.688357
0.68644
0.690971
0.695848
0.696516
0.702302
0.731463
0.758637
0.77364
0.780496
0.785501
0.793462
0.796619
0.804524
0.826298
0.854911
3.11036
3.22173
3.20112
3.10757
2.805
1.99244
1.00618
0.731245
0.724797
0.719997
0.716718
0.715586
0.718877
0.719444
0.718084
0.737868
0.773525
0.79194
0.799055
0.803002
0.808151
0.8157
0.816584
0.826604
0.849573
3.12181
3.24315
3.22932
3.16695
2.96615
2.3759
1.29008
0.811687
0.768747
0.755957
0.747613
0.742645
0.743651
0.744885
0.740624
0.74473
0.777906
0.807739
0.818516
0.821701
0.823251
0.829012
0.8361
0.836491
0.847652
3.13032
3.25928
3.25
3.20949
3.08238
2.69895
1.76422
0.94103
0.814755
0.792799
0.780189
0.773982
0.771857
0.772186
0.768044
0.762888
0.780462
0.817399
0.836505
0.841189
0.842759
0.842805
0.848687
0.855924
0.857398
3.13646
3.27063
3.26383
3.23701
3.15704
2.9192
2.24439
1.21119
0.866731
0.834976
0.823635
0.810201
0.803488
0.801455
0.797995
0.789771
0.789457
0.818638
0.849509
0.860953
0.861838
0.862912
0.863237
0.869396
0.877422
3.14017
3.27761
3.27223
3.25499
3.20645
3.06388
2.63197
1.66007
0.961592
0.885806
0.869207
0.851786
0.838994
0.833831
0.829564
0.821988
0.813077
0.822331
0.855041
0.875766
0.882157
0.881257
0.88305
0.885485
0.892451
3.14075
3.28051
3.27666
3.26661
3.23775
3.15314
2.89903
2.18746
1.20944
0.939677
0.911325
0.89946
0.881593
0.869807
0.863155
0.856113
0.845213
0.838227
0.860123
0.887206
0.900272
0.902053
0.900684
0.904128
0.909861
3.13824
3.28111
3.27957
3.2736
3.25594
3.20705
3.06426
2.62947
1.66554
1.02713
0.96048
0.944525
0.929577
0.91188
0.900485
0.891766
0.88172
0.868185
0.865764
0.895069
0.91426
0.922839
0.921883
0.921078
0.927306
3.13583
3.2812
3.28098
3.27777
3.26796
3.24033
3.16085
2.9207
2.2329
1.28573
1.01716
0.988744
0.978839
0.962678
0.942606
0.930495
0.91954
0.90576
0.891277
0.900432
0.927459
0.937667
0.943329
0.941881
0.943185
3.13489
3.28064
3.28243
3.2809
3.27548
3.26008
3.21711
3.09067
2.70297
1.78899
1.11658
1.03894
1.02258
1.01287
0.995409
0.972928
0.958787
0.945778
0.927282
0.915276
0.93505
0.957488
0.960542
0.96271
0.962353
3.13449
3.28018
3.2836
3.2828
3.27987
3.27154
3.24846
3.1826
2.98264
2.37991
1.43121
1.10158
1.06811
1.05992
1.04768
1.02652
1.00242
0.986589
0.968826
0.947886
0.941997
0.967173
0.981734
0.979797
0.981602
3.13435
3.27992
3.28427
3.28388
3.28237
3.27802
3.26594
3.23226
3.13318
2.82848
2.02037
1.25391
1.12123
1.10218
1.09755
1.08367
1.05391
1.03138
1.01214
0.990118
0.969018
0.975235
0.997084
1.00322
0.996684
3.13431
3.27977
3.28467
3.2845
3.28378
3.28163
3.27556
3.25863
3.21059
3.06525
2.60997
1.68674
1.19672
1.15064
1.14056
1.13363
1.11781
1.08053
1.0574
1.03521
1.00844
0.989762
1.00385
1.02139
1.02238
3.13432
3.27971
3.28493
3.28489
3.28456
3.28349
3.28051
3.27228
3.2492
3.18161
2.9705
2.33164
1.47996
1.21415
1.18363
1.18057
1.17033
1.14599
1.10734
1.08206
1.05479
1.02461
1.01272
1.03209
1.04302
3.13434
3.27974
3.28507
3.28506
3.28491
3.28443
3.28308
3.27927
3.2685
3.23785
3.14559
2.8553
2.07482
1.37716
1.23977
1.22128
1.21899
1.20667
1.1698
1.13276
1.10352
1.07054
1.03974
1.03955
1.05629
3.13434
3.27978
3.28508
3.28517
3.28511
3.2849
3.28432
3.28264
3.27788
3.26424
3.22485
3.10341
2.71311
1.86172
1.34055
1.26977
1.26111
1.25699
1.23852
1.18949
1.15368
1.11967
1.08018
1.05306
1.06608
3.13434
3.27979
3.28507
3.28523
3.2852
3.28511
3.28488
3.2842
3.2822
3.27642
3.25968
3.21036
3.05478
2.55191
1.72141
1.34551
1.30391
1.30091
1.29354
1.26483
1.20818
1.17065
1.12963
1.08813
1.07668
3.13434
3.27979
3.28506
3.28526
3.28524
3.2852
3.28512
3.28487
3.28411
3.28179
3.27497
3.25508
3.19519
3.00389
2.40271
1.65837
1.36666
1.34019
1.33817
1.32654
1.27937
1.22381
1.18089
1.13272
1.09894
3.13434
3.27979
3.28506
3.28526
3.28525
3.28524
3.28522
3.28515
3.28489
3.28402
3.28137
3.27357
3.25078
3.18098
2.95708
2.29758
1.63001
1.39081
1.37657
1.37514
1.35204
1.28879
1.23335
1.18458
1.13777
3.13434
3.27979
3.28506
3.28526
3.28526
3.28525
3.28526
3.28525
3.28519
3.28488
3.28389
3.28092
3.27227
3.24706
3.16953
2.91801
2.24125
1.60467
1.4202
1.41682
1.41095
1.36393
1.29263
1.23776
1.18648
3.13434
3.27979
3.28506
3.28526