/*--------------------------------*- C++ -*----------------------------------*\
| =========                 |                                                 |
| \\      /  F ield         | OpenFOAM: The Open Source CFD Toolbox           |
|  \\    /   O peration     | Version:  4.1                                   |
|   \\  /    A nd           | Web:      www.OpenFOAM.org                      |
|    \\/     M anipulation  |                                                 |
\*---------------------------------------------------------------------------*/
FoamFile
{
    version     2.0;
    format      ascii;
    class       surfaceScalarField;
    location    "0.72";
    object      phi;
}
// * * * * * * * * * * * * * * * * * * * * * * * * * * * * * * * * * * * * * //

dimensions      [1 0 -1 0 0 0 0];

internalField   nonuniform List<scalar> 
150500
(
0.00173359
-6.94659e-07
6.87233e-12
0.00177974
4.74529e-06
-4.7832e-11
0.0011563
5.85269e-05
-3.34343e-10
0.00117548
0.000249785
-3.85546e-12
0.00108649
0.00012187
1.3097e-10
0.000867948
0.000110844
5.74192e-11
0.000909946
0.000117005
2.46985e-10
0.000942365
0.00011791
2.22685e-10
0.000886487
0.000107317
9.60695e-11
0.000939084
9.92393e-05
8.33431e-11
0.00101844
0.000103246
7.67028e-11
0.00104332
9.89873e-05
9.52682e-11
0.00101515
9.07468e-05
9.46375e-11
0.000951512
8.39192e-05
5.31478e-11
0.00086084
7.89545e-05
-1.2691e-11
0.000795607
7.73e-05
-6.25394e-11
0.000730895
7.80828e-05
-9.04236e-11
0.000671359
8.2257e-05
-9.67613e-11
0.000579996
8.6295e-05
-4.73543e-11
0.000461556
9.00227e-05
2.30721e-11
0.000341297
9.53979e-05
8.26845e-11
0.00024584
0.000101158
1.10416e-10
0.000164981
0.000106471
1.35951e-10
8.65461e-05
0.000111419
1.38348e-10
0.000117351
1.59365e-10
0.00173685
-1.55696e-06
3.21811e-12
0.00177998
9.93768e-06
-3.32688e-11
0.00116564
0.0001162
-2.1123e-10
0.00115545
0.000512535
-2.37229e-11
0.00108236
0.000236173
-7.48401e-12
0.000867787
0.000217148
6.32368e-11
0.000907062
0.000237532
2.91967e-10
0.000936831
0.000238914
1.72992e-10
0.000883263
0.000213346
4.65251e-11
0.000936821
0.000197728
1.52829e-10
0.00101805
0.000204547
1.17788e-10
0.00104677
0.000195923
5.74309e-11
0.00102139
0.000180739
7.77363e-11
0.000959749
0.000167666
5.19764e-11
0.000868628
0.00015885
6.45655e-12
0.000801837
0.000155356
-4.31648e-11
0.000736559
0.000156841
-7.17508e-11
0.000677047
0.00016524
-8.05825e-11
0.000586607
0.000173532
-4.32131e-11
0.000469285
0.000181359
1.9536e-11
0.000348997
0.000192521
7.96006e-11
0.000251986
0.000204367
1.09973e-10
0.000168685
0.000215472
1.34494e-10
8.8079e-05
0.000225014
1.3888e-10
0.000236473
1.60248e-10
0.00174394
-2.33155e-06
4.0762e-12
0.0017814
1.47984e-05
-3.42553e-11
0.00119437
0.000164736
-2.16303e-10
0.00114128
0.000777734
4.16306e-11
0.00108668
0.000355708
-1.87005e-10
0.000873178
0.000318147
1.42241e-10
0.000914766
0.00035526
3.25589e-10
0.000944581
0.000360208
1.75036e-10
0.000892821
0.000318685
6.07191e-11
0.000942073
0.000296473
1.66601e-10
0.00102344
0.000305599
8.72607e-11
0.00105534
0.000293593
5.93529e-11
0.00103209
0.000272782
8.00398e-11
0.000971984
0.000253798
7.44079e-11
0.000880266
0.000239743
4.96536e-11
0.000811277
0.000233494
2.53665e-12
0.000745486
0.000235716
-1.89836e-11
0.000686249
0.000247781
-6.36884e-11
0.000597259
0.000261071
-3.54263e-11
0.000482035
0.000273631
1.77361e-11
0.000362212
0.000291515
7.60513e-11
0.000263215
0.00031017
1.09092e-10
0.0001768
0.000327598
1.32584e-10
9.25886e-05
0.000342321
1.39487e-10
0.000359949
1.59213e-10
0.00175451
-2.95983e-06
8.2108e-12
0.00178276
1.91192e-05
-3.89979e-11
0.00123594
0.000200138
-2.48491e-10
0.00111612
0.00103749
6.97724e-11
0.00109478
0.000487093
3.12741e-11
0.0008831
0.000416304
1.0546e-10
0.000929133
0.000468304
3.06172e-10
0.00095885
0.000480576
2.09586e-10
0.000907721
0.000423291
9.5742e-11
0.000947735
0.000395222
1.70613e-10
0.0010305
0.000406562
4.73451e-11
0.00106641
0.000393192
9.49162e-11
0.00104613
0.000366835
1.14541e-10
0.000989514
0.000341512
9.9906e-11
0.000897429
0.000321917
9.63706e-11
0.000825287
0.00031238
6.2757e-11
0.000759096
0.0003146
2.56162e-11
0.000699952
0.000330225
-2.64572e-11
0.000612823
0.000349659
-1.57946e-11
0.000501158
0.000367387
2.25219e-11
0.000382942
0.00039269
7.24521e-11
0.000282092
0.000418243
1.03696e-10
0.000191743
0.000442977
1.27075e-10
0.000101471
0.000464751
1.36156e-10
0.000490286
1.53084e-10
0.00176791
-3.47126e-06
1.03386e-11
0.00178364
2.2812e-05
-3.6012e-11
0.00128475
0.000222218
-2.22681e-10
0.00107751
0.00128654
6.42662e-11
0.00109783
0.000629948
2.28704e-10
0.000895819
0.000510465
-2.13208e-12
0.000947926
0.000575578
1.95392e-10
0.000977374
0.00060012
1.67895e-10
0.000927277
0.000529376
6.81857e-11
0.000955988
0.000495768
1.32081e-10
0.00103878
0.000507242
5.53835e-11
0.00107965
0.000494361
1.68146e-10
0.00106328
0.000463206
1.58327e-10
0.00101092
0.000431818
9.4074e-11
0.000918706
0.000406018
1.46313e-10
0.000843171
0.000391978
9.73902e-11
0.000776707
0.000393791
7.3387e-11
0.000717554
0.000412521
8.26598e-12
0.000633915
0.000438499
5.91027e-12
0.000526609
0.000462254
2.71185e-11
0.000411224
0.000494887
6.63439e-11
0.000308794
0.000527835
9.36997e-11
0.00021312
0.000561355
1.14868e-10
0.000115144
0.000591985
1.26396e-10
0.000630099
1.38937e-10
0.00178399
-3.85074e-06
1.0179e-11
0.00178313
2.5501e-05
-3.51707e-11
0.0013408
0.000231989
-1.89283e-10
0.00102906
0.00151562
8.03744e-11
0.00109103
0.000786733
2.03937e-10
0.000911781
0.000601261
-6.38418e-11
0.000971458
0.000678546
1.21468e-10
0.000998059
0.000719954
1.19829e-10
0.00094872
0.000638183
2.17321e-11
0.000966388
0.000597282
8.35783e-11
0.00104775
0.000606629
5.8538e-11
0.00109421
0.000596459
1.40545e-10
0.00108316
0.000561741
1.42361e-10
0.00103474
0.000524102
7.78373e-11
0.000944063
0.000491967
1.59514e-10
0.000865194
0.000472582
1.31273e-10
0.000798352
0.000473718
8.31583e-11
0.000739152
0.00049459
2.18197e-11
0.000660212
0.000526742
4.44758e-11
0.000557338
0.00055761
3.73947e-11
0.000447273
0.000596723
5.59592e-11
0.00034409
0.000638582
8.22628e-11
0.000242315
0.000682396
9.93587e-11
0.000133899
0.000725085
1.0985e-10
0.000782147
1.23022e-10
0.00180282
-4.16326e-06
9.92824e-12
0.0017784
2.60227e-05
-3.60378e-11
0.0014039
0.000231825
-1.63589e-10
0.000964598
0.00170108
3.28076e-11
0.0010701
0.000963843
1.32015e-10
0.000932617
0.000691432
-2.89248e-11
0.000999233
0.000780493
1.28604e-10
0.00101946
0.000840538
1.3097e-10
0.000971819
0.000749439
7.5307e-11
0.000979381
0.000700375
1.18975e-10
0.00105699
0.000702947
6.1306e-11
0.00110952
0.000697754
1.43611e-10
0.00110549
0.000661593
1.28704e-10
0.00106136
0.000617606
9.5465e-11
0.000974218
0.000579447
2.36872e-10
0.000891957
0.000555277
4.96445e-11
0.000824397
0.000553527
6.68961e-11
0.000764347
0.000575535
9.13863e-12
0.000692284
0.000613377
6.25206e-11
0.000595868
0.00065178
4.87173e-11
0.000491716
0.000697774
5.41512e-11
0.000389037
0.000749677
6.85016e-11
0.000281719
0.000805528
8.0823e-11
0.000161267
0.000865288
9.02009e-11
0.000953089
1.06697e-10
0.00182349
-4.3798e-06
1.06956e-11
0.00178092
2.53578e-05
-2.86742e-11
0.0014717
0.000223899
-1.46341e-10
0.000884005
0.0018088
-4.41104e-11
0.00103597
0.00116515
1.64253e-10
0.000963587
0.000791606
1.10608e-11
0.00102951
0.00088871
1.34086e-10
0.0010394
0.000960374
1.36942e-10
0.000996309
0.000863713
1.36126e-10
0.000993768
0.000803727
1.48053e-10
0.00106567
0.000794171
2.71312e-11
0.00112521
0.000796897
1.35291e-10
0.0011297
0.000761933
1.46966e-10
0.00109047
0.000712663
1.16694e-10
0.00101027
0.000669286
2.34052e-10
0.000923236
0.000639203
8.08018e-11
0.000855131
0.000632681
3.81655e-11
0.000793606
0.000653937
2.71603e-11
0.000730606
0.000697353
4.91072e-11
0.000642261
0.000743717
5.36886e-11
0.000544611
0.00079642
5.34777e-11
0.000445788
0.00085809
5.79219e-11
0.000334123
0.000929766
6.30268e-11
0.000200685
0.00101278
7.03404e-11
0.00115431
8.94434e-11
0.00184431
-4.46345e-06
1.08388e-11
0.00179459
2.36746e-05
-2.39732e-11
0.0015387
0.000208713
-1.30217e-10
0.000796057
0.00179133
-1.45593e-10
0.00100407
0.00139642
2.73935e-10
0.00102154
0.000962047
1.29773e-10
0.00106097
0.00100949
1.29542e-10
0.00105078
0.00107782
1.06797e-10
0.00102123
0.000983105
1.4459e-10
0.0010105
0.00090706
1.41826e-10
0.00107382
0.000879854
-7.25377e-12
0.0011409
0.00089254
1.10199e-10
0.00115522
0.000861906
1.02598e-10
0.00112214
0.000809848
1.09527e-10
0.00105225
0.000762266
1.83818e-10
0.000959975
0.000724214
9.96847e-11
0.00089048
0.000710338
5.5022e-11
0.0008282
0.000729026
6.14004e-11
0.000773551
0.000777163
4.15981e-11
0.000696027
0.00082983
6.01656e-11
0.000608082
0.000890023
5.76141e-11
0.000515878
0.000962278
5.25168e-11
0.000404876
0.00105118
4.8633e-11
0.000265533
0.00116165
4.94379e-11
0.00141758
6.93226e-11
0.0018671
1.03028e-11
-4.33075e-06
0.00181817
-1.8137e-11
2.11683e-05
0.00162027
-1.11047e-10
0.000185638
0.000775939
-2.57086e-10
0.001597
0.00113148
4.97933e-10
0.00172831
0.00110161
1.0353e-10
0.00114234
0.0010861
8.98202e-11
0.00114444
0.00105557
8.01404e-11
0.00119555
0.00104292
1.28098e-10
0.00110181
0.00103044
1.1355e-10
0.00100838
0.00108168
-1.04021e-10
0.000963235
0.00115761
1.76206e-10
0.0009822
0.0011831
1.32973e-10
0.000961096
0.00115703
9.7442e-11
0.000910001
0.00109732
1.38689e-10
0.000856919
0.00100213
9.74611e-11
0.000811828
0.00093032
7.14965e-11
0.000787508
0.000869062
7.08602e-11
0.000800914
0.000822336
6.05263e-11
0.000849681
0.00075782
6.67587e-11
0.000909424
0.000683764
6.03416e-11
0.000975363
0.000603727
5.07957e-11
0.00105493
0.000504383
3.91858e-11
0.00116027
0.000368231
3.04563e-11
0.0013074
5.53138e-11
0.00177983
0.00173356
-6.97583e-07
-1.9481e-12
0.00177973
4.75644e-06
3.05308e-11
0.00115606
5.86577e-05
2.29178e-10
0.00117503
0.00025031
1.79256e-10
0.00108609
0.000121458
-1.0487e-10
0.000867865
0.000110822
-4.70929e-11
0.000909608
0.000117349
-1.13044e-10
0.000941771
0.000118192
-8.80117e-11
0.000885956
0.000107339
-3.64537e-11
0.000938786
9.91633e-05
-7.48722e-11
0.00101829
0.000102941
1.60955e-11
0.00104336
9.87277e-05
2.19405e-11
0.00101531
9.06816e-05
-1.10689e-11
0.000951721
8.39783e-05
-1.61031e-11
0.000861013
7.90514e-05
-2.12291e-11
0.000795741
7.73614e-05
-3.57133e-11
0.000730965
7.81078e-05
7.58036e-12
0.000671337
8.22577e-05
-3.30378e-11
0.00057983
8.62789e-05
-5.87104e-11
0.000461285
9.00082e-05
-9.28286e-11
0.00034102
9.53926e-05
-7.63723e-11
0.000245617
0.000101162
-5.41014e-12
0.000164824
0.000106482
3.9848e-11
8.64582e-05
0.000111427
4.9641e-11
0.00011737
6.47231e-11
0.00173683
-1.55626e-06
5.62266e-13
0.00177998
9.93264e-06
1.86778e-11
0.00116575
0.000116138
1.25358e-10
0.00115636
0.000512275
1.93216e-10
0.00108291
0.000236306
6.75631e-12
0.000868327
0.000217178
-4.34136e-11
0.000907944
0.00023745
-1.4132e-10
0.000938059
0.000238827
-5.69661e-11
0.000884475
0.000213189
-2.00768e-12
0.000937633
0.000197442
-9.88938e-11
0.00101915
0.000204219
-1.07181e-11
0.00104782
0.000195996
6.08819e-11
0.00102213
0.000181129
7.01325e-12
0.000960261
0.000168129
-4.08238e-12
0.000868923
0.000159163
-2.38146e-11
0.000802016
0.000155497
-3.40347e-11
0.000736638
0.00015692
-3.25368e-12
0.000677036
0.00016524
-3.38904e-11
0.00058646
0.000173522
-6.04719e-11
0.000469025
0.000181344
-9.00334e-11
0.000348723
0.000192516
-7.33856e-11
0.00025176
0.000204374
-5.8016e-12
0.000168521
0.000215493
3.55244e-11
8.79852e-05
0.000225024
4.61874e-11
0.000236501
5.50988e-11
0.00174392
-2.32772e-06
-3.78731e-13
0.00178139
1.47943e-05
2.04732e-11
0.00119431
0.000164687
1.43143e-10
0.00114146
0.000777213
1.30305e-10
0.00108714
0.00035598
1.60388e-10
0.000873609
0.000318186
-8.89464e-11
0.000915259
0.000355027
-1.54367e-10
0.000945213
0.000359927
-6.45214e-11
0.000893318
0.000318462
7.83628e-13
0.000942157
0.000296196
-7.64449e-11
0.00102369
0.000305538
2.6885e-11
0.00105557
0.000293864
3.55845e-11
0.00103224
0.000273253
8.5414e-12
0.000972062
0.000254294
-5.89362e-12
0.000880289
0.00024009
-2.78422e-11
0.000811307
0.000233679
-6.25821e-11
0.000745469
0.000235832
-4.75763e-11
0.000686191
0.000247801
-3.36236e-11
0.000597099
0.00026106
-6.49249e-11
0.00048178
0.000273607
-9.02244e-11
0.000361943
0.000291504
-7.26991e-11
0.000262995
0.000310175
-7.09276e-12
0.000176642
0.000327624
3.2186e-11
9.24979e-05
0.00034233
4.48726e-11
0.000359983
4.73331e-11
0.00175448
-2.95814e-06
-3.45674e-12
0.00178276
1.91197e-05
2.51685e-11
0.00123585
0.00020015
1.76657e-10
0.00111607
0.00103719
1.21673e-10
0.0010948
0.000487013
-1.88627e-11
0.000883278
0.000416294
-3.42784e-11
0.000929276
0.000468104
-1.24232e-10
0.000958973
0.000480327
-8.69259e-11
0.000907692
0.000423169
-1.55548e-11
0.000947556
0.00039518
-6.05906e-11
0.00103026
0.000406591
3.74372e-11
0.00106606
0.000393522
-2.27899e-11
0.00104572
0.000367292
-3.95544e-11
0.00098906
0.000341957
-3.90543e-11
0.00089706
0.000322233
-6.84473e-11
0.000825056
0.000312549
-9.05109e-11
0.000758934
0.000314671
-8.86316e-11
0.000699813
0.000330257
-6.4438e-11
0.000612635
0.000349626
-7.93833e-11
0.000500906
0.000367342
-9.0727e-11
0.000382691
0.000392662
-7.06499e-11
0.000281888
0.000418237
-8.58513e-12
0.000191599
0.000442997
3.49409e-11
0.000101381
0.000464758
4.52677e-11
0.000490308
4.7031e-11
0.00176788
-3.47127e-06
-5.11968e-12
0.00178365
2.28131e-05
2.25058e-11
0.00128469
0.000222251
1.56717e-10
0.00107753
0.00128639
1.26048e-10
0.00109773
0.000629747
-1.56973e-10
0.000895852
0.000510454
9.11894e-11
0.000947889
0.000575515
-1.15305e-11
0.000977241
0.000600032
-4.64725e-11
0.000926997
0.000529381
-6.59436e-12
0.000955867
0.000495814
-1.78667e-11
0.00103844
0.000507621
7.53631e-11
0.001079
0.000494724
-5.30974e-11
0.00106255
0.000463631
-6.57429e-11
0.0010102
0.000432133
-4.65904e-12
0.000918066
0.000406197
-9.78596e-11
0.000842718
0.000392033
-8.97658e-11
0.000776355
0.000393782
-1.06166e-10
0.000717326
0.000412462
-7.8669e-11
0.000633701
0.000438432
-8.72932e-11
0.000526374
0.000462179
-8.86595e-11
0.000411001
0.000494834
-6.64965e-11
0.000308608
0.000527807
-7.13241e-12
0.000212992
0.000561356
2.98179e-11
0.000115073
0.000591983
4.27395e-11
0.000630114
4.3256e-11
0.00178396
-3.85057e-06
-5.09888e-12
0.00178315
2.55045e-05
2.13516e-11
0.00134079
0.000232029
1.30711e-10
0.00102922
0.00151554
1.01521e-10
0.00109101
0.000786635
-9.68834e-11
0.000911787
0.000601256
1.52e-10
0.000971381
0.000678575
6.92399e-11
0.000997856
0.00072001
-5.11899e-12
0.000948333
0.000638347
-3.46105e-12
0.000966001
0.000597576
-1.0933e-11
0.00104722
0.000606959
5.62927e-11
0.0010934
0.000596884
-6.96655e-11
0.0010822
0.000562009
-6.89156e-11
0.00103382
0.000524143
2.64088e-12
0.000943296
0.00049186
-1.04194e-10
0.000864688
0.000472411
-9.72994e-11
0.000797958
0.00047356
-8.99111e-11
0.000738898
0.000494423
-5.4545e-11
0.000659985
0.000526629
-1.19256e-10
0.000557133
0.000557502
-9.13661e-11
0.000447077
0.000596641
-5.4579e-11
0.000343931
0.000638527
-1.98655e-12
0.000242202
0.00068238
2.78386e-11
0.000133834
0.00072507
3.8643e-11
0.000782143
3.85116e-11
0.0018028
-4.16315e-06
-4.85486e-12
0.00177842
2.60281e-05
2.16018e-11
0.00140389
0.000231867
1.11527e-10
0.000964851
0.00170108
1.26384e-10
0.00107014
0.000963813
-2.59144e-11
0.000932588
0.00069145
1.33283e-10
0.000999172
0.000780571
9.10144e-11
0.00101932
0.000840721
-1.65967e-13
0.000971468
0.000749724
-5.97533e-11
0.000979096
0.000700782
-3.56177e-11
0.00105659
0.000703512
5.05763e-11
0.00110873
0.00069826
-6.41094e-11
0.0011044
0.000661647
-6.43686e-11
0.00106027
0.00061735
-2.91359e-11
0.000973206
0.00057898
-1.68856e-10
0.00089138
0.000554857
-1.63528e-11
0.000824
0.000553266
-6.93482e-11
0.000764153
0.000575352
-2.1777e-11
0.000692078
0.000613231
-1.1325e-10
0.000595683
0.000651645
-8.92476e-11
0.000491553
0.000697662
-4.71664e-11
0.000388906
0.0007496
5.0645e-12
0.000281628
0.000805491
2.68527e-11
0.00016121
0.000865262
3.54274e-11
0.000953059
3.25704e-11
0.00182347
-4.38034e-06
-5.12889e-12
0.00178093
2.53622e-05
1.74749e-11
0.0014717
0.000223942
9.7278e-11
0.000884298
0.00180891
1.62413e-10
0.00103602
0.0011651
-2.70658e-11
0.000963527
0.000791608
1.0967e-10
0.00102947
0.000888824
1.06961e-10
0.00103934
0.000960665
1.28562e-11
0.00099605
0.000864076
-9.66232e-11
0.000993596
0.00080412
-4.99312e-11
0.00106554
0.000794965
4.35744e-11
0.00112465
0.000797386
-5.63535e-11
0.00112876
0.000761781
-7.88117e-11
0.00108949
0.000712218
-5.856e-11
0.00100927
0.00066866
-1.65814e-10
0.000922662
0.000638748
-3.96225e-11
0.000854745
0.000632384
-4.00589e-11
0.000793443
0.000653749
-2.03752e-11
0.000730433
0.000697198
-8.73031e-11
0.0006421
0.000743556
-8.07464e-11
0.000544475
0.000796277
-3.9945e-11
0.000445692
0.000857987
1.01151e-11
0.000334053
0.00092972
2.76455e-11
0.00020064
0.00101274
4.55623e-11
0.00115425
2.78065e-11
0.0018443
-4.46486e-06
-5.07758e-12
0.00179459
2.36786e-05
1.50042e-11
0.00153869
0.000208757
8.60167e-11
0.000796369
0.00179159
2.08639e-10
0.00100407
0.00139628
-7.42457e-11
0.00102142
0.000962003
1.03477e-11
0.00106095
0.00100963
1.11082e-10
0.00105082
0.00107818
5.94247e-11
0.00102109
0.00098353
-6.33232e-11
0.00101037
0.000907438
-5.24702e-11
0.00107387
0.000880681
2.51571e-11
0.00114057
0.000892927
-4.53735e-11
0.00115461
0.000861728
-3.75438e-11
0.00112146
0.000809421
-5.6859e-11
0.00105153
0.000761737
-1.20738e-10
0.000959518
0.000723833
-5.37077e-11
0.000890154
0.000710066
-4.26274e-11
0.000828043
0.000728837
-6.87352e-11
0.00077341
0.000777009
-7.24198e-11
0.000695893
0.000829651
-7.23467e-11
0.000607971
0.000889868
-3.36665e-11
0.000515811
0.000962156
1.12956e-11
0.000404833
0.00105112
4.37918e-11
0.0002655
0.00116161
5.65642e-11
0.00141749
2.45995e-11
0.00186708
-4.71954e-12
-4.33224e-06
0.00181816
1.22159e-11
2.11719e-05
0.00162023
7.63942e-11
0.000185683
0.00077614
2.67272e-10
0.00159737
0.00113142
-1.82248e-10
0.00172805
0.00110151
1.07653e-11
0.00114237
0.00108612
1.08202e-10
0.00114459
0.00105565
8.53271e-11
0.00119595
0.00104287
-1.47643e-12
0.00110226
0.0010304
-1.96498e-11
0.00100877
0.00108186
4.50894e-11
0.000964014
0.00115746
-5.18815e-11
0.000982493
0.0011828
-6.03252e-11
0.000960998
0.00115668
-5.03744e-11
0.00090974
0.00109695
-8.5641e-11
0.000856586
0.00100185
-5.54367e-11
0.000811573
0.000930104
-5.38284e-11
0.000787285
0.000868935
-6.80942e-11
0.000800716
0.000822231
-7.61255e-11
0.000849506
0.000757726
-6.66318e-11
0.000909234
0.000683685
-2.83867e-11
0.000975201
0.000603682
1.08678e-11
0.0010548
0.000504367
4.87173e-11
0.0011602
0.000368213
6.138e-11
0.00130736
3.4751e-11
0.00177973
0.00173358
-6.95578e-07
1.67789e-12
0.00177975
4.74794e-06
-5.93898e-12
0.00115628
5.85621e-05
-4.11141e-11
0.00117541
0.000249923
4.40846e-11
0.00108638
0.00012178
5.27061e-11
0.000867937
0.000110863
2.14271e-11
0.000909805
0.000117165
3.15911e-11
0.000942032
0.000118109
3.05008e-11
0.000886076
0.000107454
1.32012e-11
0.000938847
9.93201e-05
1.14823e-11
0.00101798
0.000103221
1.82127e-11
0.00104279
9.88673e-05
3.17419e-11
0.00101468
9.06162e-05
3.24676e-11
0.000951111
8.38139e-05
1.52585e-11
0.000860601
7.88909e-05
-6.53505e-12
0.000795479
7.72588e-05
-5.26375e-11
0.000730796
7.80418e-05
-8.31115e-11
0.000671251
8.22186e-05
-1.24233e-10
0.000579818
8.62522e-05
-1.17988e-10
0.000461363
8.99938e-05
-8.19736e-11
0.000341142
9.53851e-05
-1.00545e-11
0.000245751
0.000101154
6.14269e-11
0.000164935
0.000106473
9.82629e-11
8.65289e-05
0.000111418
7.76397e-11
0.00011736
8.49054e-11
0.00173684
-1.55709e-06
1.32297e-12
0.00177999
9.93719e-06
-4.70308e-12
0.00116569
0.000116197
-3.08135e-11
0.0011557
0.000512492
4.17137e-11
0.0010825
0.000236209
4.33311e-11
0.000867952
0.000217194
3.15689e-11
0.000907266
0.000237634
3.67158e-11
0.00093705
0.000239098
3.13684e-11
0.000883427
0.000213523
1.9567e-11
0.000936972
0.00019783
2.01971e-11
0.00101806
0.00020454
1.46594e-11
0.00104666
0.000195823
1.15102e-11
0.00102123
0.000180623
2.26537e-11
0.000959571
0.00016757
1.41423e-11
0.000868516
0.0001588
-6.1578e-12
0.000801786
0.000155315
-4.76397e-11
0.0007365
0.000156794
-7.77564e-11
0.000676961
0.00016519
-1.18443e-10
0.00058645
0.000173469
-1.13672e-10
0.0004691
0.000181313
-8.00951e-11
0.000348843
0.000192499
-8.99679e-12
0.000251894
0.000204359
6.01977e-11
0.000168632
0.000215477
9.67093e-11
8.80554e-05
0.000225007
8.08167e-11
0.000236482
8.86218e-11
0.00174393
-2.3306e-06
1.14994e-12
0.0017814
1.47974e-05
-3.67442e-12
0.0011944
0.000164728
-2.32898e-11
0.00114143
0.000777583
4.2359e-11
0.00108686
0.000355812
2.0854e-11
0.000873363
0.000318207
3.49855e-11
0.000914971
0.000355321
3.9839e-11
0.000944842
0.000360344
3.32842e-11
0.000893058
0.000318844
3.18022e-11
0.0009422
0.000296534
2.58923e-11
0.00102354
0.000305639
1.70163e-11
0.00105537
0.000293546
6.02636e-12
0.00103205
0.000272721
1.15744e-11
0.0009719
0.000253749
2.12358e-12
0.00088019
0.000239687
-1.83793e-11
0.000811228
0.000233445
-5.17738e-11
0.000745423
0.000235671
-7.69537e-11
0.00068617
0.00024771
-1.14032e-10
0.000597126
0.000260998
-1.09535e-10
0.000481872
0.000273574
-7.64369e-11
0.000362071
0.000291486
-8.31574e-12
0.000263132
0.000310157
5.77377e-11
0.000176754
0.000327603
9.44705e-11
9.25677e-05
0.000342307
8.47013e-11
0.000359957
9.10439e-11
0.0017545
-2.95935e-06
1.00867e-12
0.00178277
1.91193e-05
-2.06646e-12
0.00123596
0.000200143
-1.19771e-11
0.00111622
0.00103736
3.95669e-11
0.00109486
0.000487093
2.13029e-11
0.000883247
0.000416343
1.61985e-11
0.000929297
0.000468325
3.4525e-11
0.000959072
0.000480671
3.47339e-11
0.000907954
0.000423445
3.81365e-11
0.000947813
0.000395363
1.9542e-11
0.00103059
0.000406567
2.34685e-12
0.00106648
0.000393197
-1.1275e-12
0.00104612
0.000366794
5.09275e-12
0.000989419
0.000341477
4.55241e-13
0.000897353
0.000321904
-1.27397e-11
0.000825251
0.00031238
-3.32382e-11
0.000759061
0.000314567
-7.47482e-11
0.000699887
0.000330198
-9.96687e-11
0.000612707
0.000349591
-1.00819e-10
0.000501017
0.000367325
-7.06545e-11
0.000382826
0.000392653
-7.78686e-12
0.000282027
0.000418225
5.21763e-11
0.00019171
0.000442976
8.97659e-11
0.000101448
0.000464732
8.71385e-11
0.000490279
9.12553e-11
0.0017679
-3.47119e-06
8.85125e-13
0.00178366
2.28124e-05
-8.10666e-14
0.00128477
0.000222229
4.2628e-13
0.00107763
0.00128643
4.11795e-11
0.00109789
0.000629889
2.41049e-11
0.000895934
0.000510476
8.76101e-12
0.000948045
0.000575584
2.03269e-11
0.000977567
0.00060017
2.40425e-11
0.000927497
0.000529503
2.74479e-11
0.000956228
0.000495798
2.81694e-11
0.00103897
0.000507432
-2.05522e-11
0.00107975
0.00049438
3.22899e-12
0.00106332
0.00046325
1.24919e-11
0.0010109
0.000431885
-1.02111e-11
0.000918631
0.000406085
-2.20649e-12
0.000843074
0.000391997
-2.59455e-11
0.000776615
0.000393766
-6.34587e-11
0.000717468
0.000412479
-9.37681e-11
0.00063381
0.000438428
-9.61097e-11
0.0005265
0.000462188
-6.90115e-11
0.000411137
0.000494846
-9.62877e-12
0.000308746
0.000527806
4.33632e-11
0.000213102
0.00056134
8.03105e-11
0.000115137
0.000591957
8.41269e-11
0.000630085
8.35881e-11
0.00178398
-3.85049e-06
6.26779e-13
0.00178315
2.55025e-05
2.0993e-12
0.00134083
0.000232002
1.31549e-11
0.00102923
0.00151552
5.14806e-11
0.0010911
0.000786679
2.44207e-11
0.00091189
0.000601251
-5.42423e-12
0.000971564
0.000678523
-3.96429e-13
0.000998214
0.000719967
9.60734e-12
0.000948874
0.000638325
9.38984e-12
0.000966378
0.000597431
2.13516e-11
0.00104775
0.000606527
-2.61435e-11
0.00109426
0.000596544
1.51469e-11
0.00108321
0.000561908
1.68943e-11
0.00103475
0.000524217
-2.60987e-11
0.000944009
0.000492047
-5.1921e-12
0.00086509
0.000472574
-2.5063e-11
0.000798239
0.000473662
-5.07102e-11
0.000739048
0.000494504
-1.00113e-10
0.000660116
0.000526667
-7.96355e-11
0.000557253
0.000557546
-6.73046e-11
0.000447212
0.000596678
-2.33474e-11
0.000344066
0.000638543
3.33574e-11
0.000242308
0.000682371
6.78169e-11
0.000133896
0.000725045
7.54136e-11
0.000782115
7.46732e-11
0.00180281
-4.16304e-06
2.52272e-13
0.00177842
2.6025e-05
4.63476e-12
0.00140392
0.00023184
2.45747e-11
0.000964798
0.00170101
6.872e-11
0.00107018
0.000963791
1.22322e-11
0.000932702
0.000691407
-1.23473e-11
0.000999327
0.000780433
-9.60043e-12
0.0010196
0.000840531
1.63857e-12
0.00097193
0.000749587
-8.46632e-14
0.000979428
0.000700553
1.24669e-11
0.00105698
0.000702949
-2.72617e-11
0.0011095
0.000697981
2.14939e-11
0.00110543
0.000661801
1.40641e-11
0.00106126
0.000617696
-1.95897e-11
0.000974072
0.000579423
1.03496e-11
0.00089184
0.000555193
-8.20778e-11
0.000824297
0.000553446
-7.15205e-11
0.000764258
0.000575442
-1.09119e-10
0.000692199
0.000613302
-7.95442e-11
0.0005958
0.000651719
-6.89911e-11
0.000491681
0.000697722
-3.09616e-11
0.000389032
0.00074963
1.81942e-11
0.000281726
0.000805491
5.25367e-11
0.000161267
0.00086524
6.36168e-11
0.000953034
6.39693e-11
0.00182348
-4.37994e-06
-2.24735e-13
0.00178093
2.53598e-05
6.74429e-12
0.00147172
0.000223917
3.46711e-11
0.000884213
0.0018088
9.49321e-11
0.00103604
0.00116508
-5.77862e-12
0.00096364
0.00079155
-2.32765e-11
0.00102958
0.000888627
-1.89957e-11
0.00103952
0.000960358
-6.93661e-12
0.000996362
0.000863831
5.16874e-12
0.000993845
0.000803836
4.16768e-12
0.00106576
0.000794423
-2.13851e-11
0.00112521
0.00079722
1.47752e-11
0.00112958
0.000762107
8.28789e-12
0.0010903
0.000712694
-2.30239e-11
0.00101003
0.000669202
-4.38438e-12
0.000923058
0.000639068
-4.31145e-11
0.000855004
0.000632564
-8.46854e-11
0.000793528
0.000653839
-1.11694e-10
0.000730532
0.00069729
-8.90478e-11
0.000642205
0.00074366
-7.2701e-11
0.000544591
0.000796359
-3.84443e-11
0.000445803
0.000858032
5.68455e-12
0.00033414
0.000929729
3.26179e-11
0.000200691
0.00101272
4.93664e-11
0.00115423
5.182e-11
0.0018443
-4.46412e-06
-6.41958e-13
0.00179459
2.36765e-05
8.63092e-12
0.00153871
0.000208733
4.51445e-11
0.000796266
0.00179142
1.22023e-10
0.0010041
0.00139629
-1.26936e-11
0.00102156
0.000961957
-3.32932e-11
0.00106104
0.00100942
-2.87186e-11
0.00105089
0.00107781
-1.64027e-11
0.00102123
0.000983182
5.7297e-12
0.00101049
0.000907104
-1.88636e-12
0.00107395
0.000880232
-1.33539e-11
0.00114091
0.000892877
-1.46637e-14
0.00115512
0.000862053
-4.04963e-11
0.001122
0.000809855
-3.62262e-11
0.00105205
0.00076218
-2.01156e-11
0.000959808
0.000724103
-3.51022e-11
0.000890339
0.000710226
-5.81325e-11
0.000828115
0.000728942
-9.15873e-11
0.000773484
0.000777112
-7.85134e-11
0.000695979
0.000829774
-7.13818e-11
0.000608069
0.000889969
-4.3711e-11
0.000515904
0.000962212
-3.10323e-12
0.000404905
0.00105114
1.4611e-11
0.000265542
0.00116159
2.8118e-11
0.00141748
3.79635e-11
0.00186709
-9.90551e-13
-4.33155e-06
0.00181817
8.96292e-12
2.11699e-05
0.00162026
4.55335e-11
0.000185659
0.000776091
1.98824e-10
0.00159716
0.00113148
2.02755e-11
0.00172812
0.00110163
-2.11384e-11
0.00114229
0.00108617
-2.69361e-11
0.0011444
0.00105565
-1.49519e-11
0.00119554
0.00104289
4.10869e-12
0.00110185
0.00103039
-5.76465e-12
0.00100839
0.00108186
-1.30704e-11
0.000963635
0.00115764
-1.93151e-11
0.000982493
0.00118303
-2.83419e-11
0.000961223
0.00115693
-5.33926e-11
0.00091002
0.00109719
-3.10859e-11
0.000856852
0.001002
-3.56512e-11
0.000811737
0.000930209
-4.90512e-11
0.000787417
0.000868977
-9.36981e-11
0.000800839
0.000822276
-7.21326e-11
0.000849624
0.000757788
-6.95253e-11
0.000909368
0.00068376
-4.80207e-11
0.000975318
0.000603754
-1.10068e-11
0.00105487
0.000504422
7.88655e-12
0.00116022
0.000368245
1.62123e-11
0.00130734
2.78166e-11
0.00177971
0.00173357
-6.95826e-07
-9.28541e-12
0.00177975
4.74917e-06
6.86162e-11
0.00115626
5.85773e-05
4.74597e-10
0.0011754
0.000249975
-3.30872e-11
0.00108635
0.000121766
-9.29245e-11
0.000867921
0.000110862
1.06289e-10
0.000909765
0.000117185
1.92752e-11
0.000941964
0.000118129
-1.09823e-11
0.000886018
0.000107462
-2.40662e-11
0.000938814
9.93147e-05
-2.40982e-11
0.00101796
0.0001032
-1.99905e-11
0.00104277
9.88543e-05
-7.45426e-12
0.00101465
9.06214e-05
-2.36375e-13
0.000951054
8.38312e-05
2.95665e-11
0.000860525
7.89095e-05
6.3794e-11
0.000795402
7.72729e-05
8.96468e-11
0.000730714
7.80499e-05
7.56279e-11
0.000671161
8.22213e-05
7.06435e-11
0.000579719
8.62511e-05
4.70573e-11
0.000461258
8.99918e-05
2.10809e-11
0.000341051
9.53845e-05
7.20555e-12
0.000245688
0.000101155
1.40916e-11
0.000164886
0.000106479
1.22495e-11
8.65008e-05
0.000111424
2.9928e-11
0.000117371
1.78827e-11
0.00173683
-1.55723e-06
-8.33253e-12
0.00177999
9.93815e-06
6.87763e-11
0.0011657
0.000116209
4.66285e-10
0.00115576
0.000512528
-2.68487e-11
0.00108252
0.000236226
-8.92686e-11
0.000867968
0.000217198
1.04121e-10
0.000907292
0.000237635
1.22524e-11
0.000937085
0.000239098
-1.46768e-11
0.000883469
0.000213516
-2.39671e-11
0.000937
0.000197809
-2.60146e-11
0.00101811
0.000204506
-2.36902e-11
0.0010467
0.000195826
-9.71151e-12
0.00102124
0.000180663
-6.57692e-12
0.000959529
0.000167625
1.05768e-11
0.000868443
0.000158838
4.15894e-11
0.000801707
0.000155336
7.02349e-11
0.000736413
0.000156808
6.60592e-11
0.000676871
0.000165191
6.78519e-11
0.000586353
0.000173468
4.96782e-11
0.000468998
0.000181312
2.65834e-11
0.000348756
0.000192499
1.05555e-11
0.000251833
0.000204361
1.43835e-11
0.000168586
0.000215487
1.11638e-11
8.80283e-05
0.000225019
2.63033e-11
0.000236501
1.47273e-11
0.00174392
-2.33068e-06
-8.02315e-12
0.00178141
1.47991e-05
6.83457e-11
0.0011944
0.000164747
4.48352e-10
0.00114144
0.000777634
7.14548e-12
0.00108688
0.000355834
-1.05099e-10
0.000873379
0.000318208
1.02188e-10
0.000914995
0.000355302
7.72272e-12
0.000944891
0.000360307
-1.95453e-11
0.000893117
0.000318802
-2.14101e-11
0.000942223
0.00029648
-2.95951e-11
0.0010236
0.000305598
-3.14125e-11
0.00105541
0.000293559
-1.31302e-11
0.00103205
0.000272785
-1.5913e-11
0.000971836
0.000253818
-1.31285e-11
0.000880109
0.000239761
4.05828e-12
0.000811154
0.000233491
3.55467e-11
0.000745342
0.000235694
4.51609e-11
0.00068608
0.00024773
5.85764e-11
0.000597028
0.000260999
4.92552e-11
0.000481771
0.000273571
3.18757e-11
0.000361987
0.000291485
1.42842e-11
0.000263074
0.000310161
1.44015e-11
0.00017671
0.000327616
1.05808e-11
9.25425e-05
0.000342322
1.98432e-11
0.000359983
1.37179e-11
0.0017545
-2.95939e-06
-8.25964e-12
0.00178277
1.91213e-05
6.70575e-11
0.00123597
0.000200163
4.20931e-10
0.00111624
0.00103742
5.20498e-11
0.00109488