/*--------------------------------*- C++ -*----------------------------------*\
| =========                 |                                                 |
| \\      /  F ield         | OpenFOAM: The Open Source CFD Toolbox           |
|  \\    /   O peration     | Version:  4.1                                   |
|   \\  /    A nd           | Web:      www.OpenFOAM.org                      |
|    \\/     M anipulation  |                                                 |
\*---------------------------------------------------------------------------*/
FoamFile
{
    version     2.0;
    format      ascii;
    class       volScalarField;
    location    "0.72";
    object      T;
}
// * * * * * * * * * * * * * * * * * * * * * * * * * * * * * * * * * * * * * //

dimensions      [0 0 0 1 0 0 0];

internalField   nonuniform List<scalar> 
52500
(
0.290996
0.618625
1.01982
1.26705
1.25825
1.32435
1.34071
1.33369
1.31881
1.26892
1.14084
1.05528
1.02692
1.0297
1.06017
1.08941
1.09615
1.0794
1.06175
1.06282
1.05867
1.03953
1.01287
0.98252
0.926984
0.292044
0.614874
1.01746
1.26753
1.259
1.32432
1.34084
1.33361
1.31854
1.26891
1.14084
1.05502
1.0263
1.02861
1.0584
1.08822
1.0956
1.07923
1.06083
1.06162
1.05751
1.03849
1.01186
0.981381
0.925503
0.294484
0.606649
1.01214
1.26688
1.25773
1.32277
1.342
1.3343
1.31914
1.27171
1.14419
1.05581
1.02493
1.02609
1.05433
1.08603
1.09503
1.07974
1.06019
1.06054
1.05655
1.03789
1.0111
0.980616
0.923991
0.298192
0.594455
1.00422
1.26511
1.25475
1.3178
1.34225
1.33429
1.31965
1.27776
1.15284
1.05866
1.02429
1.02418
1.05055
1.08383
1.09465
1.08088
1.05945
1.05905
1.05508
1.03699
1.01038
0.979608
0.922826
0.303011
0.579193
0.993219
1.26339
1.25066
1.31046
1.34243
1.33358
1.31924
1.28276
1.16249
1.0625
1.02303
1.02066
1.0441
1.07995
1.09347
1.08204
1.05868
1.05718
1.05294
1.03566
1.00917
0.97889
0.921358
0.308831
0.561152
0.97902
1.2599
1.24525
1.30274
1.34286
1.33264
1.3182
1.28814
1.17499
1.06733
1.02148
1.01615
1.03671
1.0751
1.09144
1.08284
1.05804
1.05472
1.05009
1.03383
1.00744
0.977833
0.919497
0.31537
0.540531
0.960034
1.25389
1.23854
1.29505
1.34311
1.33285
1.31773
1.29218
1.1885
1.0736
1.02021
1.01098
1.02765
1.06783
1.08792
1.08261
1.05773
1.05174
1.0468
1.03124
1.00557
0.975892
0.915184
0.322609
0.519922
0.932273
1.24273
1.23104
1.28868
1.34302
1.33331
1.31738
1.29598
1.20435
1.08229
1.02002
1.00564
1.01816
1.05837
1.08318
1.08155
1.05778
1.04721
1.04219
1.02863
1.00214
0.972342
0.911282
0.330616
0.500983
0.892039
1.2222
1.22291
1.28665
1.34256
1.33392
1.31725
1.29907
1.22171
1.09341
1.02159
1.00071
1.00833
1.04619
1.07709
1.07946
1.05749
1.04331
1.03752
1.02431
0.998423
0.968683
0.899194
0.339389
0.482857
0.83861
1.18508
1.22225
1.28861
1.33912
1.33402
1.31693
1.30071
1.23921
1.10725
1.025
0.995665
0.99917
1.0328
1.06909
1.07623
1.05759
1.03892
1.03062
1.01622
0.99111
0.957481
0.878017
0.290985
0.618667
1.01985
1.26708
1.25831
1.32439
1.34069
1.3337
1.31881
1.26882
1.14077
1.0553
1.02696
1.02972
1.06016
1.0894
1.09616
1.07941
1.06176
1.06282
1.05866
1.0395
1.01283
0.982479
0.926998
0.292038
0.614898
1.01749
1.26751
1.25889
1.32419
1.34074
1.33352
1.31857
1.2693
1.14139
1.05521
1.02628
1.02852
1.05823
1.08815
1.09559
1.07925
1.06084
1.06163
1.0575
1.03846
1.01181
0.981341
0.92551
0.294477
0.606675
1.01217
1.26687
1.25768
1.32263
1.34187
1.3342
1.31919
1.27212
1.14472
1.05604
1.02507
1.02622
1.05444
1.08609
1.09506
1.07974
1.06019
1.06054
1.05654
1.03787
1.01107
0.98058
0.923994
0.298181
0.594489
1.00425
1.26512
1.25476
1.31777
1.34217
1.33423
1.3196
1.2777
1.15292
1.05877
1.02443
1.02436
1.05079
1.08395
1.09469
1.08084
1.05943
1.05905
1.05508
1.03697
1.01035
0.979577
0.922828
0.302998
0.579225
0.993243
1.26339
1.25067
1.31048
1.34239
1.33354
1.31921
1.28261
1.16194
1.06225
1.02297
1.02066
1.04416
1.07999
1.09348
1.08202
1.05867
1.05718
1.05294
1.03565
1.00914
0.978862
0.921353
0.308818
0.561182
0.979042
1.2599
1.24525
1.30272
1.34281
1.33261
1.31817
1.28788
1.17464
1.06719
1.02156
1.01635
1.03696
1.07517
1.09142
1.08277
1.058
1.05471
1.05009
1.03382
1.00741
0.977806
0.919497
0.315357
0.540558
0.960061
1.25388
1.23853
1.29503
1.34306
1.3328
1.31767
1.2919
1.18789
1.07331
1.02043
1.01146
1.0283
1.06833
1.08809
1.08263
1.05768
1.05172
1.04679
1.03122
1.00554
0.975863
0.915194
0.322596
0.51994
0.932307
1.24273
1.23103
1.28865
1.34297
1.33325
1.31731
1.29582
1.2036
1.08189
1.02022
1.00614
1.01879
1.05891
1.08342
1.08163
1.05771
1.04719
1.04219
1.02862
1.0021
0.97231
0.911297
0.330602
0.500997
0.892078
1.2222
1.22288
1.28662
1.34253
1.33388
1.31721
1.29903
1.22114
1.09313
1.02172
1.00102
1.0087
1.04651
1.07723
1.07949
1.05743
1.04329
1.03751
1.0243
0.998381
0.968649
0.899218
0.339377
0.482867
0.838656
1.18508
1.2222
1.28859
1.33912
1.334
1.31692
1.30075
1.23883
1.10711
1.02508
0.995766
0.999254
1.03284
1.0691
1.0762
1.05754
1.03889
1.03059
1.0162
0.991073
0.957442
0.878039
0.290989
0.618645
1.01983
1.26706
1.25827
1.32436
1.34069
1.33367
1.31877
1.2687
1.14057
1.05526
1.02705
1.02986
1.06035
1.0895
1.09617
1.07938
1.06175
1.06283
1.05867
1.0395
1.01282
0.982472
0.926988
0.292039
0.614889
1.01747
1.26752
1.25898
1.32429
1.34081
1.33357
1.31851
1.26884
1.14077
1.05506
1.02641
1.02874
1.05853
1.08829
1.09562
1.07922
1.06083
1.06163
1.0575
1.03846
1.01181
0.981334
0.9255
0.294479
0.606663
1.01215
1.26688
1.25771
1.32272
1.34195
1.33425
1.31911
1.27177
1.14428
1.05589
1.02499
1.02614
1.05437
1.08607
1.09505
1.07974
1.0602
1.06055
1.05655
1.03787
1.01106
0.980574
0.923985
0.298186
0.594472
1.00423
1.26511
1.25475
1.31778
1.34221
1.33425
1.31961
1.27776
1.15303
1.05877
1.02438
1.02431
1.05073
1.08392
1.09469
1.08086
1.05945
1.05906
1.05508
1.03697
1.01035
0.979571
0.922819
0.303004
0.579208
0.993228
1.26338
1.25067
1.31046
1.34242
1.33356
1.31924
1.28285
1.16239
1.06243
1.02298
1.02059
1.04403
1.07993
1.09347
1.08204
1.05868
1.05719
1.05295
1.03565
1.00914
0.978857
0.921346
0.308824
0.561166
0.979029
1.2599
1.24525
1.30272
1.34284
1.33262
1.31819
1.28812
1.17533
1.0675
1.02145
1.01605
1.03656
1.075
1.0914
1.08283
1.05805
1.05473
1.05009
1.03382
1.00741
0.977801
0.919491
0.315363
0.540544
0.960046
1.25388
1.23854
1.29503
1.34308
1.33282
1.3177
1.29211
1.18858
1.07364
1.02023
1.011
1.0277
1.06787
1.08793
1.08261
1.05773
1.05174
1.0468
1.03122
1.00554
0.975858
0.915188
0.322602
0.519931
0.932289
1.24273
1.23103
1.28866
1.34299
1.33328
1.31736
1.29597
1.20412
1.0821
1.02002
1.00573
1.01829
1.05854
1.08328
1.0816
1.05777
1.04721
1.04219
1.02862
1.00209
0.972305
0.911291
0.330608
0.50099
0.892058
1.2222
1.22289
1.28664
1.34254
1.33391
1.31726
1.29914
1.22147
1.09321
1.02157
1.00078
1.00843
1.04629
1.07717
1.07951
1.05748
1.04331
1.03752
1.02429
0.998375
0.968643
0.899213
0.339383
0.482862
0.838632
1.18508
1.22222
1.28859
1.33912
1.33402
1.31696
1.30081
1.239
1.10707
1.02499
0.995707
0.999218
1.03283
1.06912
1.07624
1.05759
1.03892
1.03059
1.0162
0.991069
0.957436
0.878032
0.290987
0.618651
1.01983
1.26705
1.25828
1.32436
1.34069
1.33367
1.31877
1.26869
1.14056
1.05526
1.02704
1.02986
1.06037
1.08951
1.09619
1.07939
1.06176
1.06283
1.05867
1.03949
1.01281
0.98246
0.926976
0.292037
0.614894
1.01747
1.26752
1.25897
1.32428
1.3408
1.33356
1.31851
1.26885
1.14079
1.05506
1.0264
1.02874
1.05854
1.0883
1.09563
1.07923
1.06084
1.06164
1.05751
1.03845
1.0118
0.981322
0.925488
0.294477
0.606667
1.01215
1.26687
1.25771
1.32272
1.34194
1.33425
1.31912
1.27182
1.14434
1.05592
1.02503
1.02621
1.05446
1.08611
1.09507
1.07974
1.0602
1.06056
1.05655
1.03786
1.01105
0.980562
0.923973
0.298185
0.594474
1.00423
1.26511
1.25475
1.31777
1.3422
1.33423
1.3196
1.2778
1.15313
1.05882
1.02438
1.02427
1.05067
1.08392
1.0947
1.08087
1.05945
1.05906
1.05509
1.03696
1.01034
0.979559
0.922808
0.303003
0.579209
0.993226
1.26338
1.25067
1.31046
1.3424
1.33354
1.31922
1.2828
1.1623
1.06237
1.02291
1.02053
1.04398
1.07992
1.09348
1.08206
1.05869
1.0572
1.05295
1.03564
1.00913
0.978846
0.921334
0.308824
0.561165
0.979026
1.25989
1.24525
1.30272
1.34284
1.33262
1.31819
1.28804
1.17504
1.06734
1.02149
1.01619
1.03674
1.07506
1.09141
1.08282
1.05804
1.05473
1.0501
1.03382
1.0074
0.977791
0.919481
0.315363
0.540541
0.960041
1.25387
1.23853
1.29504
1.34308
1.33283
1.3177
1.29205
1.1883
1.07349
1.02034
1.01124
1.02803
1.06816
1.08806
1.08266
1.05772
1.05174
1.0468
1.03122
1.00553
0.97585
0.915179
0.322603
0.519927
0.932281
1.24272
1.23103
1.28866
1.34299
1.33329
1.31736
1.29593
1.20395
1.08206
1.02011
1.00589
1.01848
1.0587
1.08337
1.08164
1.05776
1.04721
1.04219
1.02862
1.00209
0.972299
0.911283
0.33061
0.500984
0.892045
1.22219
1.22289
1.28663
1.34254
1.33391
1.31725
1.29911
1.22142
1.09327
1.02162
1.00079
1.00843
1.04627
1.07716
1.0795
1.05748
1.04331
1.03752
1.0243
0.998372
0.968638
0.899207
0.339385
0.482855
0.838613
1.18506
1.22221
1.28859
1.33911
1.33401
1.31695
1.3008
1.23904
1.10719
1.025
0.995608
0.999071
1.03267
1.06904
1.07621
1.05758
1.03892
1.0306
1.0162
0.991067
0.957433
0.878027
0.290999
0.618603
1.0198
1.26705
1.25826
1.32433
1.34067
1.33366
1.31877
1.26871
1.14058
1.05526
1.02704
1.02986
1.06034
1.08949
1.09617
1.07938
1.06175
1.06283
1.05867
1.03949
1.01281
0.982457
0.926969
0.292048
0.614849
1.01745
1.26752
1.25896
1.32426
1.34078
1.33355
1.31851
1.26887
1.1408
1.05507
1.0264
1.02873
1.05852
1.08828
1.09561
1.07922
1.06083
1.06163
1.0575
1.03845
1.0118
0.981318
0.925486
0.294488
0.606623
1.01213
1.26687
1.2577
1.3227
1.34193
1.33424
1.31912
1.27181
1.14434
1.05592
1.02504
1.02621
1.05445
1.08609
1.09505
1.07973
1.0602
1.06055
1.05654
1.03786
1.01105
0.980558
0.923971
0.298196
0.59443
1.00421
1.2651
1.25473
1.31775
1.34219
1.33423
1.31961
1.27784
1.15305
1.05877
1.02437
1.02427
1.05066
1.0839
1.09468
1.08086
1.05945
1.05905
1.05507
1.03695
1.01033
0.979551
0.922808
0.303014
0.579168
0.9932
1.26337
1.25065
1.31043
1.34239
1.33352
1.31921
1.28274
1.16255
1.06252
1.02295
1.02055
1.04399
1.07991
1.09347
1.08205
1.05868
1.05718
1.05294
1.03563
1.00911
0.978837
0.921343
0.308834
0.561125
0.978998
1.25988
1.24523
1.30271
1.34283
1.33262
1.31818
1.28807
1.1748
1.06721
1.02146
1.01619
1.03675
1.07506
1.09139
1.0828
1.05803
1.05472
1.05008
1.0338
1.00739
0.977785
0.919485
0.315373
0.540504
0.960007
1.25386
1.23852
1.29503
1.34309
1.33284
1.31773
1.29211
1.1882
1.0734
1.02031
1.01123
1.02802
1.06816
1.08807
1.08265
1.05771
1.05173
1.04679
1.03121
1.00553
0.975851
0.915171
0.322612
0.519899
0.932235
1.2427
1.23101
1.28866
1.343
1.33329
1.31737
1.29593
1.20414
1.08218
1.02014
1.00589
1.01848
1.05868
1.08336
1.08163
1.05775
1.0472
1.04219
1.02861
1.0021
0.972306
0.91127
0.330618
0.500961
0.891992
1.22215
1.22288
1.28664
1.34254
1.33391
1.31723
1.29904
1.22163
1.09345
1.02168
1.0008
1.00842
1.04627
1.07715
1.07949
1.05746
1.0433
1.03752
1.02429
0.998392
0.968651
0.899184
0.339392
0.482837
0.838555
1.18501
1.22222
1.28859
1.33911
1.33401
1.31692
1.3007
1.23924
1.1074
1.02507
0.995617
0.99907
1.03265
1.06903
1.07619
1.05757
1.03891
1.0306
1.01621
0.991095
0.957457
0.878003
0.290995
0.618619
1.01981
1.26705
1.25826
1.32434
1.34067
1.33366
1.31876
1.26868
1.14055
1.05525
1.02704
1.02987
1.06037
1.08951
1.09618
1.07938
1.06176
1.06283
1.05868
1.03949
1.01281
0.982459
0.926973
0.292044
0.614863
1.01745
1.26751
1.25896
1.32426
1.34078
1.33355
1.31851
1.26885
1.14078
1.05506
1.0264
1.02874
1.05854
1.0883
1.09563
1.07922
1.06084
1.06164
1.05751
1.03845
1.0118
0.98132
0.925486
0.294485
0.606637
1.01213
1.26687
1.2577
1.3227
1.34193
1.33423
1.31912
1.2718
1.14433
1.05592
1.02504
1.02621
1.05446
1.08611
1.09506
1.07973
1.0602
1.06056
1.05655
1.03786
1.01105
0.98056
0.923971
0.298192
0.594444
1.00421
1.2651
1.25474
1.31776
1.34219
1.33423
1.3196
1.27783
1.15304
1.05877
1.02437
1.02427
1.05068
1.08392
1.09469
1.08087
1.05945
1.05906
1.05508
1.03696
1.01034
0.979558
0.922806
0.303011
0.579181
0.993207
1.26337
1.25065
1.31044
1.34239
1.33352
1.3192
1.28273
1.16253
1.06251
1.02295
1.02055
1.04399
1.07993
1.09348
1.08206
1.05869
1.05719
1.05295
1.03564
1.00913
0.978845
0.921332
0.30883
0.561138
0.979006
1.25988
1.24524
1.30271
1.34283
1.33262
1.31818
1.28806
1.17478
1.0672
1.02146
1.01619
1.03675
1.07507
1.09141
1.08281
1.05804
1.05473
1.05009
1.03382
1.0074
0.977791
0.91948
0.315369
0.540516
0.960018
1.25386
1.23852
1.29503
1.34309
1.33283
1.31772
1.2921
1.18818
1.07339
1.02031
1.01123
1.02802
1.06816
1.08807
1.08266
1.05772
1.05174
1.0468
1.03122
1.00553
0.97585
0.915179
0.322609
0.519908
0.932251
1.2427
1.23102
1.28866
1.343
1.33329
1.31736
1.29592
1.20412
1.08216
1.02014
1.00589
1.01848
1.05869
1.08337
1.08164
1.05776
1.04721
1.04219
1.02862
1.00209
0.9723
0.911284
0.330615
0.500969
0.892011
1.22216
1.22288
1.28664
1.34254
1.3339
1.31723
1.29904
1.22161
1.09343
1.02167
1.0008
1.00842
1.04627
1.07716
1.0795
1.05748
1.04331
1.03752
1.0243
0.998374
0.968639
0.899209
0.339389
0.482844
0.838576
1.18503
1.22222
1.28859
1.33911
1.33401
1.31692
1.30069
1.23922
1.10739
1.02506
0.995609
0.999064
1.03265
1.06904
1.07621
1.05758
1.03892
1.03059
1.0162
0.991068
0.957436
0.878029
0.290987
0.618651
1.01983
1.26705
1.25828
1.32436
1.34069
1.33367
1.31877
1.26869
1.14056
1.05526
1.02704
1.02986
1.06037
1.08951
1.09619
1.07939
1.06176
1.06283
1.05867
1.03949
1.01281
0.98246
0.926976
0.292037
0.614894
1.01747
1.26752
1.25897
1.32428
1.3408
1.33356
1.31851
1.26885
1.14079
1.05506
1.0264
1.02874
1.05854
1.0883
1.09563
1.07923
1.06084
1.06164
1.05751
1.03845
1.0118
0.981322
0.925488
0.294477
0.606667
1.01215
1.26687
1.25771
1.32272
1.34194
1.33425
1.31912
1.27182
1.14434
1.05592
1.02503
1.02621
1.05446
1.08611
1.09507
1.07974
1.06021
1.06056
1.05655
1.03786
1.01105
0.980562
0.923973
0.298184
0.594474
1.00423
1.26511
1.25475
1.31777
1.3422
1.33423
1.3196
1.2778
1.15313
1.05882
1.02438
1.02427
1.05067
1.08392
1.0947
1.08087
1.05945
1.05906
1.05509
1.03696
1.01034
0.979559
0.922808
0.303003
0.57921
0.993226
1.26338
1.25067
1.31046
1.3424
1.33354
1.31922
1.2828
1.1623
1.06237
1.02291
1.02053
1.04398
1.07992
1.09348
1.08206
1.0587
1.0572
1.05295
1.03564
1.00913
0.978846
0.921334
0.308824
0.561165
0.979026
1.25989
1.24525
1.30272
1.34284
1.33262
1.31819
1.28804
1.17504
1.06734
1.02149
1.01619
1.03674
1.07506
1.09141
1.08282
1.05804
1.05473
1.0501
1.03382
1.0074
0.977791
0.919481
0.315363
0.540541
0.960042
1.25387
1.23853
1.29504
1.34308
1.33283
1.3177
1.29205
1.1883
1.07349
1.02034
1.01124
1.02803
1.06816
1.08806
1.08266
1.05773
1.05174
1.0468
1.03122
1.00553
0.97585
0.915179
0.322603
0.519927
0.932281
1.24272
1.23103
1.28866
1.34299
1.33329
1.31736
1.29593
1.20395
1.08206
1.02011
1.00589
1.01848
1.0587
1.08337
1.08164
1.05776
1.04721
1.0422
1.02862
1.00209
0.972299
0.911283
0.33061
0.500984
0.892046
1.22219
1.22289
1.28663
1.34254
1.33391
1.31725
1.29911
1.22142
1.09327
1.02162
1.00079
1.00843
1.04627
1.07716
1.0795
1.05748
1.04331
1.03752
1.0243
0.998372
0.968638
0.899207
0.339385
0.482855
0.838613
1.18506
1.22221
1.28859
1.33911
1.33401
1.31695
1.3008
1.23904
1.10719
1.025
0.995607
0.999071
1.03267
1.06904
1.07621
1.05758
1.03892
1.0306
1.0162
0.991067
0.957433
0.878027
0.290989
0.618645
1.01983
1.26706
1.25827
1.32436
1.34069
1.33367
1.31877
1.2687
1.14057
1.05526
1.02705
1.02986
1.06035
1.0895
1.09617
1.07938
1.06175
1.06283
1.05867
1.0395
1.01282
0.982472
0.926988
0.292039
0.614889
1.01747
1.26752
1.25898
1.32429
1.34081
1.33357
1.31851
1.26884
1.14077
1.05506
1.02641
1.02874
1.05853
1.08829
1.09562
1.07922
1.06083
1.06163
1.0575
1.03846
1.01181
0.981334
0.9255
0.294479
0.606663
1.01215
1.26688
1.25771
1.32272
1.34195
1.33425
1.31911
1.27177
1.14428
1.05589
1.02499
1.02614
1.05437
1.08607
1.09505
1.07974
1.0602
1.06055
1.05655
1.03787
1.01106
0.980574
0.923985
0.298186
0.594472
1.00423
1.26511
1.25475
1.31778
1.34221
1.33425
1.31961
1.27776
1.15303
1.05877
1.02438
1.02431
1.05073
1.08392
1.09469
1.08086
1.05945
1.05906
1.05508
1.03697
1.01035
0.979571
0.922819
0.303004
0.579208
0.993228
1.26338
1.25067
1.31046
1.34242
1.33356
1.31924
1.28285
1.16239
1.06243
1.02298
1.02059
1.04403
1.07993
1.09347
1.08204
1.05868
1.05719
1.05295
1.03565
1.00914
0.978857
0.921346
0.308824
0.561166
0.979029
1.2599
1.24525
1.30272
1.34284
1.33262
1.31819
1.28812
1.17533
1.0675
1.02145
1.01605
1.03656
1.075
1.0914
1.08283
1.05805
1.05473
1.05009
1.03382
1.00741
0.977801
0.919491
0.315363
0.540544
0.960046
1.25388
1.23854
1.29503
1.34308
1.33282
1.3177
1.29211
1.18858
1.07364
1.02023
1.011
1.0277
1.06787
1.08793
1.08261
1.05773
1.05174
1.0468
1.03122
1.00554
0.975858
0.915188
0.322602
0.519931
0.932289
1.24273
1.23103
1.28866
1.34299
1.33328
1.31736
1.29597
1.20412
1.0821
1.02002
1.00573
1.01829
1.05854
1.08328
1.0816
1.05777
1.04721
1.04219
1.02862
1.00209
0.972305
0.911291
0.330608
0.50099
0.892058
1.2222
1.22289
1.28664
1.34254
1.33391
1.31726
1.29914
1.22147
1.09321
1.02157
1.00078
1.00843
1.04629
1.07717
1.07951
1.05748
1.04331
1.03752
1.02429
0.998375
0.968643
0.899213
0.339383
0.482862
0.838632
1.18508
1.22222
1.28859
1.33912
1.33402
1.31696
1.30081
1.239
1.10707
1.02499
0.995707
0.999218
1.03283
1.06912
1.07624
1.05759
1.03892
1.03059
1.0162
0.991069
0.957436
0.878032
0.290985
0.618667
1.01985
1.26708
1.25831
1.32439
1.34069
1.3337
1.31881
1.26882
1.14077
1.0553
1.02696
1.02972
1.06016
1.0894
1.09616
1.07941
1.06176
1.06282
1.05866
1.0395
1.01283
0.982479
0.926998
0.292038
0.614898
1.01749
1.26751
1.25889
1.32419
1.34074
1.33352
1.31857
1.2693
1.14139
1.05521
1.02628
1.02852
1.05823
1.08815
1.09559
1.07925
1.06084
1.06163
1.0575
1.03846
1.01181
0.981341
0.92551
0.294477
0.606676
1.01217
1.26687
1.25768
1.32263
1.34187
1.3342
1.31919
1.27212
1.14472
1.05604
1.02507
1.02622
1.05444
1.08609
1.09506
1.07974
1.06019
1.06054
1.05654
1.03787
1.01107
0.98058
0.923994
0.298181
0.594489
1.00425
1.26512
1.25476
1.31777
1.34217
1.33423
1.3196
1.2777
1.15292
1.05877
1.02443
1.02436
1.05079
1.08395
1.09469
1.08084
1.05943
1.05905
1.05508
1.03697
1.01035
0.979577
0.922828
0.302998
0.579225
0.993243
1.26339
1.25067
1.31048
1.34239
1.33354
1.31921
1.28261
1.16194
1.06225
1.02297
1.02066
1.04416
1.07999
1.09348
1.08202
1.05867
1.05718
1.05294
1.03565
1.00914
0.978863
0.921353
0.308818
0.561182
0.979042
1.2599
1.24525
1.30272
1.34281
1.33261
1.31817
1.28788
1.17464
1.06719
1.02156
1.01635
1.03696
1.07517
1.09142
1.08277
1.058
1.05471
1.05009
1.03382
1.00741
0.977806
0.919498
0.315357
0.540558
0.960061
1.25388
1.23853
1.29503
1.34306
1.3328
1.31767
1.2919
1.18789
1.07331
1.02043
1.01146
1.0283
1.06833
1.08809
1.08263
1.05768
1.05172
1.04679
1.03122
1.00554
0.975863
0.915194
0.322596
0.51994
0.932307
1.24273
1.23103
1.28865
1.34297
1.33325
1.31731
1.29582
1.2036
1.08189
1.02022
1.00614
1.01879
1.05891
1.08342
1.08162
1.05771
1.04719
1.04219
1.02862
1.0021
0.97231
0.911297
0.330602
0.500997
0.892078
1.2222
1.22288
1.28662
1.34253
1.33388
1.31721
1.29903
1.22114
1.09313
1.02172
1.00102
1.0087
1.0465
1.07723
1.07949
1.05743
1.04329
1.03751
1.0243
0.998381
0.968649
0.899218
0.339377
0.482867
0.838655
1.18508
1.2222
1.28859
1.33912
1.334
1.31692
1.30075
1.23883
1.10711
1.02508
0.995766
0.999254
1.03284
1.0691
1.0762
1.05754
1.03889
1.03059
1.0162
0.991073
0.957442
0.878039
0.290988
0.61867
1.01985
1.26708
1.25829
1.3244
1.34074
1.33371
1.31878
1.26864
1.14045
1.05517
1.02695
1.02975
1.06024
1.08942
1.09613
1.07937
1.06175
1.06283
1.05871
1.03959
1.01295
0.982551
0.926864
0.292037
0.614915
1.01749
1.26755
1.25902
1.32434
1.34086
1.33362
1.31854
1.26887
1.14081
1.05506
1.02633
1.02863
1.05839
1.0882
1.09558
1.07921
1.06083
1.06164
1.05754
1.03854
1.01194
0.981412
0.92539
0.294479
0.606686
1.01217
1.2669
1.25773
1.32275
1.34198
1.33427
1.31916
1.27221
1.14488
1.05606
1.02493
1.02602
1.05418
1.08595
1.09499
1.07973
1.06019
1.06055
1.05658
1.03795
1.01119
0.980647
0.923886
0.298186
0.594492
1.00425
1.26513
1.25475
1.31778
1.34221
1.33422
1.31962
1.2781
1.15365
1.05891
1.02413
1.02391
1.05025
1.08371
1.09462
1.08088
1.05945
1.05906
1.0551
1.03703
1.01045
0.979638
0.92273
0.303004
0.579227
0.993243
1.26341
1.25068
1.31048
1.34243
1.33353
1.31921
1.28277
1.16256
1.06244
1.02285
1.02044
1.04379
1.07974
1.09338
1.08205
1.05869
1.05719
1.05295
1.03569
1.00922
0.978917
0.921282
0.308824
0.561184
0.979043
1.25992
1.24528
1.30277
1.34289
1.33267
1.31821
1.28801
1.17446
1.06701
1.02161
1.01648
1.03714
1.07527
1.09145
1.0828
1.05801
1.05471
1.05009
1.03385
1.00748
0.977852
0.919443
0.315364
0.54056
0.96006
1.2539
1.23856
1.29508
1.34313
1.33289
1.31776
1.29205
1.18788
1.07332
1.02052
1.01156
1.0284
1.06836
1.08812
1.08265
1.05768
1.05172
1.04679
1.03124
1.00558
0.975902
0.915162
0.322604
0.519942
0.932304
1.24275
1.23105
1.2887
1.34303
1.33331
1.31738
1.29589
1.20396
1.08223
1.02028
1.00605
1.01861
1.05878
1.0834
1.08162
1.05771
1.04718
1.04217
1.02863
1.00214
0.972347
0.911268
0.330611
0.500997
0.892071
1.22222
1.22292
1.28665
1.34256
1.3339
1.31723
1.299
1.2216
1.09359
1.02175
1.00078
1.00835
1.04614
1.07708
1.07945
1.05744
1.04328
1.0375
1.02429
0.998413
0.968684
0.899197
0.339386
0.482866
0.838638
1.1851
1.22224
1.28861
1.33912
1.334
1.3169
1.30067
1.2392
1.10747
1.02506
0.995502
0.998906
1.03243
1.06888
1.0761
1.05754
1.0389
1.0306
1.01621
0.9911
0.957477
0.878023
0.348969
0.466857
0.77548
1.12953
1.23411
1.28441
1.33162
1.33139
1.31623
1.30074
1.25373
1.12643
1.03137
0.990891
0.989461
1.01583
1.05767
1.07118
1.0584
1.03359
1.02223
1.00951
0.982972
0.946773
0.824626
0.359438
0.454599
0.711097
1.06431
1.24702
1.27611
1.3177
1.32899
1.31601
1.29952
1.26411
1.15135
1.04177
0.988834
0.980314
0.998087
1.0425
1.06387
1.05801
1.03206
1.01603
0.999702
0.972634
0.940024
0.831035
0.370471
0.445505
0.655601
1.01538
1.25287
1.26336
1.29957
1.32531
1.31527
1.29809
1.27266
1.18108
1.05514
0.990802
0.973409
0.98522
1.02757
1.05569
1.05531
1.03268
1.00922
0.994074
0.963458
0.93644
0.852756
0.380976
0.436089
0.605413
0.984826
1.25746
1.24945
1.28073
1.3195
1.3134
1.29837
1.27894
1.20694
1.07765
0.996081
0.964076
0.967358
1.00174
1.04152
1.0492
1.03435
1.00295
0.985299
0.958307
0.934835
0.880435
0.389194
0.424293
0.557674
0.942938
1.25567
1.23085
1.26197
1.30993
1.31082
1.3006
1.2825
1.23272
1.10288
1.00355
0.959075
0.955015
0.977602
1.02511
1.04044
1.03351
1.00383
0.981403
0.950006
0.930202
0.896546
0.392447
0.409719
0.506961
0.863524
1.22098
1.20296
1.25085
1.29673
1.31092
1.30156
1.28343
1.24795
1.13889
1.01715
0.958969
0.941402
0.952294
0.999619
1.03043
1.03024
1.00715
0.981551
0.951074
0.925777
0.90387
0.387596
0.394704
0.463011
0.743576
1.08475
1.20077
1.24161
1.28247
1.31252
1.3033
1.28255
1.25794
1.17047
1.04043
0.962822
0.932818
0.9345
0.96824
1.01143
1.02319
1.01189
0.983911
0.955603
0.927514
0.905527
0.375922
0.381564
0.431428
0.637823
0.96811
1.20869
1.22831
1.26542
1.31038
1.30325
1.28385
1.26483
1.20327
1.06951
0.971802
0.928147
0.91975
0.935312
0.984169
1.0101
1.00854
0.98991
0.961317
0.932438
0.90849
0.365445
0.369416
0.406861
0.562879
0.919232
1.21914
1.2141
1.24626
1.29794
1.29975
1.28832
1.27069
1.22806
1.11007
0.989799
0.928652
0.907682
0.911841
0.950521
0.992403
1.00101
0.993574
0.970599
0.938495
0.912207
0.357354
0.359264
0.384662
0.501156
0.852708
1.21153
1.18728
1.23395
1.2767
1.29461
1.28909
1.27415
1.24532
1.15657
1.01761
0.935139
0.899953
0.894469
0.910373
0.958918
0.985133
0.986921
0.977658
0.951727
0.919673
0.352157
0.349518
0.365268
0.441372
0.729005
1.13779
1.17281
1.22678
1.25049
1.28783
1.28765
1.27859
1.25771
1.19529
1.05537
0.951856
0.90102
0.883539
0.886837
0.922449
0.964763
0.975631
0.973483
0.96157
0.936418
0.348149
0.341637
0.352114
0.401405
0.593208
0.922351
1.1743
1.21338
1.22716
1.27427
1.28506
1.28189
1.26805
1.22591
1.105
0.98428
0.90856
0.877233
0.870701
0.883135
0.929701
0.960656
0.965376
0.960468
0.944994
0.344807
0.335249
0.342552
0.376464
0.506894
0.824263
1.18563
1.18081
1.21157
1.25658
1.27994
1.28105
1.27373
1.24982
1.15307
1.01551
0.924295
0.877523
0.863741
0.86441
0.885887
0.931244
0.950196
0.952735
0.946357
0.342194
0.329903
0.334691
0.356799
0.44076
0.720724
1.13138
1.13789
1.20386
1.23567
1.27028
1.27862
1.27656
1.26513
1.21016
1.06467
0.94972
0.884221
0.855782
0.851679
0.858223
0.891722
0.926626
0.937779
0.938409
0.340172
0.325858
0.328976
0.343018
0.393119
0.584985
0.902073
1.1247
1.19431
1.21431
1.25007
1.27256
1.27557
1.27215
1.24867
1.13146
0.982213
0.898755
0.858278
0.842448
0.841844
0.852549
0.891195
0.920152
0.927174
0.338617
0.32274
0.32482
0.33398
0.365335
0.482146
0.771498
1.13824
1.15287
1.18883
1.22849
1.26016
1.27267
1.27273
1.26571
1.2062
1.04817
0.926905
0.867501
0.840055
0.83314
0.833893
0.846502
0.885024
0.910011
0.337467
0.320399
0.321784
0.327639
0.346673
0.412686
0.641765
1.05131
1.09204
1.17026
1.20941
1.24518
1.26693
1.27148
1.27071
1.2476
1.13207
0.977923
0.888932
0.846194
0.825212
0.823659
0.8257
0.838134
0.873091
0.33664
0.318751
0.319756
0.323593
0.335225
0.372837
0.514428
0.813235
1.09133
1.14044
1.17732
1.22283
1.25407
1.26706
1.26962
1.26315
1.20899
1.05966
0.930335
0.861948
0.829537
0.811956
0.811217
0.813754
0.824804
0.336146
0.31772
0.318503
0.320936
0.327847
0.34927
0.426091
0.663981
1.07128
1.08788
1.14066
1.18917
1.23541
1.25769
1.26612
1.26509
1.24452
1.15013
0.999006
0.898028
0.842461
0.81521
0.798059
0.794815
0.797057
0.3361
0.317258
0.317801
0.319186
0.323266
0.335646
0.376411
0.529771
0.844092
1.06964
1.11236
1.15071
1.20032
1.23932
1.25818
1.26288
1.25662
1.21467
1.07986
0.951093
0.870043
0.825138
0.800276
0.782265
0.775357
0.336504
0.317089
0.317312
0.318203
0.320778
0.327849
0.349444
0.42724
0.664604
1.0434
1.07092
1.11644
1.15826
1.20946
1.24219
1.25682
1.25567
1.23957
1.17252
1.02141
0.9151
0.845153
0.807157
0.783619
0.76425
0.336849
0.317036
0.317175
0.317666
0.319077
0.32303
0.334661
0.372987
0.518768
0.821589
1.05056
1.08634
1.11936
1.16132
1.21501
1.24308
1.2511
1.24467
1.21594
1.10826
0.970567
0.885949
0.823851
0.789023
0.765423
0.336961
0.317138
0.316996
0.317225
0.318003
0.320198
0.326371
0.345382
0.412846
0.631977
0.994967
1.04658
1.08946
1.12096
1.16519
1.21893
1.24087
1.24087
1.23008
1.18069
1.04597
0.925472
0.856919
0.803738
0.770741
0.337001
0.317231
0.316834
0.316954
0.317378
0.318562
0.321857
0.331451
0.362768
0.483357
0.761366
1.02349
1.05862
1.08701
1.12069
1.16951
1.21873
1.23223
1.22817
1.20814
1.13413
0.991657
0.89025
0.832918
0.784374
0.337011
0.317285
0.316741
0.3168
0.317019
0.317637
0.319356
0.324194
0.338932
0.389471
0.571663
0.900731
1.02187
1.06215
1.08351
1.11688
1.17771
1.21184
1.21979
1.21133
1.17855
1.06902
0.940093
0.858102
0.812532
0.337011
0.317319
0.316685
0.31671
0.316813
0.317118
0.317981
0.320406
0.327371
0.34957
0.43252
0.666898
0.982457
1.02611
1.05674
1.08117
1.11336
1.18059
1.20381
1.20447
1.19149
1.14044
1.01258
0.89806
0.829967
0.337008
0.317335
0.316644
0.31665
0.316698
0.316854
0.317283
0.318458
0.32178
0.331703
0.365178
0.49614
0.764157
0.986994
1.03099
1.04888
1.07466
1.11667
1.17607
1.19109
1.18754
1.1672
1.0906
0.95652
0.860035
0.337007
0.317331
0.31662
0.316627
0.31665
0.31672
0.316914
0.317458
0.319002
0.323437
0.337218
0.38522
0.559242
0.852605
0.989443
1.02695
1.04161
1.06581
1.1232
1.16739
1.1763
1.16867
1.13438
1.02664
0.907162
0.337007
0.317322
0.316621
0.316611
0.316621
0.316651
0.316734
0.316974
0.317658
0.319626
0.32536
0.34382
0.412361
0.619448
0.910294
0.991762
1.01723
1.03207
1.0612
1.13121
1.16019
1.16209
1.14958
1.09452
0.966243
0.337008
0.317319
0.316624
0.316603
0.316607
0.316619
0.316653
0.31675
0.317038
0.317874
0.320303
0.327536
0.351664
0.446335
0.673093
0.933904
0.989866
1.00544
1.02242
1.06182
1.1343
1.15134
1.1477
1.12237
1.02989
0.337007
0.317319
0.316625
0.316599
0.316601
0.316606
0.316618
0.316654
0.316765
0.317103
0.31809
0.320989
0.329851
0.3601
0.481081
0.706893
0.941789
0.982937
0.996312
1.01569
1.07667
1.13344
1.14123
1.13122
1.07919
0.337007
0.317319
0.316625
0.316598
0.316599
0.316602
0.316603
0.316613
0.316651
0.316779
0.317168
0.318303
0.321633
0.332052
0.368066
0.506405
0.731794
0.946271
0.975048
0.986537
1.01643
1.09067
1.12942
1.12778
1.10204
0.337007
0.317319
0.316625
0.316598
0.316598
0.316599
0.316597
0.316598
0.316608
0.316654
0.316802
0.317236
0.318496
0.322182
0.333825
0.374956
0.518411
0.766228
0.945506
0.963076
0.975962
1.02906
1.10054
1.11985
1.10548
0.337007
0.317319
0.316625
0.316598
0.316598
0.316599
0.316597
0.316591
0.316595
0.316611
0.316669
0.316839
0.317323
0.318676
0.32259
0.334942
0.379714
0.520807
0.804845
0.925422
0.942358
0.977302
1.05618
1.09641
1.09473
0.337007
0.317319
0.316625
0.316598
0.316598
0.316599
0.316597
0.31659
0.316592
0.3166
0.316628
0.316717
0.31693
0.317451
0.318846
0.322806
0.335157
0.380215
0.520733
0.798518
0.882206
0.93342
1.01717
1.06481
1.06551
0.337007
0.317319
0.316625
0.316598
0.316598
0.316599
0.316597
0.31659
0.316592
0.316598
0.31662
0.316691
0.316836
0.317081
0.317698
0.319144
0.322933
0.334483
0.375298
0.513833
0.713712
0.869479
0.977858
1.03364
1.0297
0.337007
0.317319
0.316625
0.316598
0.316598
0.316599
0.316597
0.31659
0.316592
0.316598
0.31662
0.316689
0.316836
0.31702
0.317503
0.318148
0.319628
0.323418
0.333911
0.367643
0.479115
0.647502
0.916537
0.993954
0.987724
0.337007
0.317319
0.316625
0.316598
0.316598
0.316599
0.316597
0.31659
0.316592
0.316598
0.31662
0.316689
0.316836
0.317017
0.317502
0.318029
0.31896
0.321214
0.325121
0.334422
0.3619
0.44482
0.622666
0.89204
0.921416
0.337007
0.317319
0.316625
0.316598
0.316598
0.316599
0.316597
0.31659
0.316592
0.316598
0.31662
0.316689
0.316836
0.317017
0.317501
0.31803
0.318926
0.321112
0.323633
0.328697
0.341575
0.367077
0.428539
0.571335
0.699202
0.337007
0.317319
0.316625
0.316598
0.316598
0.316599
0.316597
0.31659
0.316592
0.316598
0.31662
0.316689
0.316836
0.317017
0.317501
0.31803
0.318923
0.321116
0.323609
0.328346
0.340135
0.356385
0.390943
0.471243
0.525999
0.348957
0.466861
0.77552
1.12953
1.23405
1.28439
1.33163
1.3314
1.31623
1.30079
1.25367
1.12637
1.03139
0.990831
0.989352
1.01568
1.05756
1.07111
1.05835
1.03357
1.02222
1.00948
0.982925
0.946734
0.82464
0.359426
0.454599
0.711125
1.06429
1.24696
1.2761
1.31772
1.329
1.31602
1.29956
1.26414
1.15141
1.04176
0.988723
0.980121
0.997842
1.0423
1.06376
1.05796
1.03206
1.01603
0.999695