/*--------------------------------*- C++ -*----------------------------------*\
| =========                 |                                                 |
| \\      /  F ield         | OpenFOAM: The Open Source CFD Toolbox           |
|  \\    /   O peration     | Version:  4.1                                   |
|   \\  /    A nd           | Web:      www.OpenFOAM.org                      |
|    \\/     M anipulation  |                                                 |
\*---------------------------------------------------------------------------*/
FoamFile
{
    version     2.0;
    format      ascii;
    class       volVectorField;
    location    "0.72";
    object      U;
}
// * * * * * * * * * * * * * * * * * * * * * * * * * * * * * * * * * * * * * //

dimensions      [0 1 -1 0 0 0 0];

internalField   nonuniform List<vector> 
52500
(
(1.87531 -0.000164336 -0.00191869)
(1.45046 0.00118826 -0.0040484)
(0.42448 0.00762309 -0.00704401)
(0.00198303 0.017531 -0.00886817)
(0.258498 0.0148182 -0.00875803)
(0.334991 0.0151857 -0.00924472)
(0.232925 0.0161926 -0.00935037)
(0.223011 0.0171756 -0.00928725)
(0.280178 0.0177993 -0.00918041)
(0.297059 0.0174488 -0.00881802)
(0.293279 0.017231 -0.00792519)
(0.300287 0.0163036 -0.00733105)
(0.3126 0.0154541 -0.00713317)
(0.320984 0.0151229 -0.00715253)
(0.322909 0.0154729 -0.0073661)
(0.316564 0.0162732 -0.00757032)
(0.300951 0.0170911 -0.00762641)
(0.276732 0.0179632 -0.00752443)
(0.249473 0.018704 -0.00742416)
(0.210001 0.0197322 -0.00745751)
(0.163463 0.0212433 -0.00745389)
(0.117367 0.0230853 -0.00733817)
(0.0890437 0.0250235 -0.00716615)
(0.0455323 0.0269455 -0.00696828)
(0.0281851 0.0276474 -0.00659423)
(1.874 -0.000539085 -0.001925)
(1.45605 0.00372528 -0.00402285)
(0.43299 0.0238232 -0.00701231)
(0.00515378 0.0534556 -0.00884051)
(0.250912 0.039427 -0.0087434)
(0.335041 0.0387308 -0.00922173)
(0.233421 0.0406577 -0.00932622)
(0.221534 0.0420838 -0.0092618)
(0.277842 0.040891 -0.00915497)
(0.295574 0.0382462 -0.00879617)
(0.292727 0.0370354 -0.00790591)
(0.300378 0.0347886 -0.00731202)
(0.31348 0.033228 -0.00711234)
(0.322491 0.0329717 -0.00712821)
(0.324918 0.0338515 -0.00733585)
(0.318689 0.0352641 -0.0075428)
(0.303017 0.0365482 -0.00760231)
(0.278664 0.0380611 -0.00750204)
(0.251439 0.0393784 -0.00739596)
(0.212458 0.0415216 -0.00742579)
(0.16624 0.0448679 -0.00742041)
(0.12013 0.0488737 -0.00730406)
(0.0911123 0.0529578 -0.00713113)
(0.046482 0.0561712 -0.0069319)
(0.02835 0.057015 -0.00655685)
(1.87098 -0.000940325 -0.00193976)
(1.46798 0.0063197 -0.00396812)
(0.453078 0.0401555 -0.00695507)
(0.014593 0.092743 -0.00880403)
(0.23825 0.0651997 -0.00871344)
(0.337096 0.0641188 -0.00918799)
(0.237416 0.069071 -0.00930731)
(0.223134 0.0721879 -0.00923872)
(0.27866 0.0696669 -0.00913246)
(0.297767 0.0654829 -0.00879131)
(0.295506 0.0637905 -0.00790792)
(0.302632 0.0606737 -0.00729895)
(0.315964 0.05855 -0.00708534)
(0.325219 0.0583474 -0.0070931)
(0.327943 0.059998 -0.00728925)
(0.322011 0.0625846 -0.00750781)
(0.306748 0.0649136 -0.00757705)
(0.282545 0.0677207 -0.00748321)
(0.255455 0.0703011 -0.00736844)
(0.217316 0.0740872 -0.00739325)
(0.171709 0.0798295 -0.0073865)
(0.125599 0.0865317 -0.00727112)
(0.0954679 0.0934423 -0.00709609)
(0.0493016 0.0990021 -0.00689651)
(0.0291601 0.100184 -0.00651843)
(1.86636 -0.00128734 -0.00196222)
(1.48507 0.00866727 -0.00388765)
(0.485215 0.0541594 -0.00687649)
(0.0292071 0.131362 -0.00876174)
(0.218296 0.0915332 -0.00867038)
(0.340929 0.0884607 -0.00913054)
(0.244658 0.0965358 -0.00928191)
(0.225804 0.10169 -0.00921016)
(0.27965 0.0975792 -0.00910873)
(0.301018 0.0920268 -0.00880826)
(0.299882 0.0894116 -0.00794493)
(0.305986 0.0850577 -0.00729896)
(0.319214 0.081964 -0.00706266)
(0.328991 0.0813754 -0.00706136)
(0.332574 0.0835451 -0.00724383)
(0.327104 0.0872277 -0.00747189)
(0.312323 0.0906971 -0.00755225)
(0.28844 0.0950279 -0.00746747)
(0.261567 0.0991486 -0.00733866)
(0.224775 0.104828 -0.0073559)
(0.180399 0.113481 -0.00734666)
(0.134662 0.123627 -0.00723346)
(0.103333 0.134321 -0.00705868)
(0.0547151 0.143194 -0.00685694)
(0.0306214 0.145349 -0.0064808)
(1.86031 -0.00157699 -0.00199138)
(1.50592 0.010717 -0.00378715)
(0.530274 0.065588 -0.00677456)
(0.0486314 0.169413 -0.00872188)
(0.191784 0.119158 -0.0086208)
(0.345508 0.111763 -0.00905721)
(0.254662 0.122532 -0.00925644)
(0.229295 0.130226 -0.00917667)
(0.280851 0.124785 -0.00907813)
(0.305181 0.119039 -0.00881721)
(0.305088 0.115604 -0.00798776)
(0.309948 0.109982 -0.00730486)
(0.322995 0.105912 -0.00703523)
(0.333238 0.105018 -0.00701811)
(0.337676 0.10733 -0.00718017)
(0.332983 0.11183 -0.00742439)
(0.319192 0.116482 -0.00752121)
(0.296036 0.122363 -0.00745076)
(0.269563 0.128096 -0.00730718)
(0.23469 0.135819 -0.00731417)
(0.192253 0.147373 -0.00730007)
(0.147293 0.161203 -0.00719055)
(0.114587 0.175985 -0.00701539)
(0.0628974 0.188774 -0.0068168)
(0.0330519 0.192709 -0.00643889)
(1.85291 -0.00181583 -0.0020265)
(1.52928 0.0123512 -0.00366863)
(0.590296 0.0743455 -0.00664859)
(0.0749449 0.207022 -0.00867172)
(0.158804 0.147771 -0.00856427)
(0.350012 0.134652 -0.00898141)
(0.267374 0.147516 -0.00923246)
(0.233984 0.158226 -0.00914174)
(0.282033 0.151958 -0.0090431)
(0.310361 0.146644 -0.00882788)
(0.311267 0.142317 -0.00804885)
(0.314532 0.135407 -0.00731688)
(0.327234 0.130209 -0.0070054)
(0.337884 0.128822 -0.00696807)
(0.343298 0.131006 -0.00710994)
(0.339858 0.136372 -0.00736993)
(0.327443 0.142417 -0.00748368)
(0.305364 0.149978 -0.00743056)
(0.279574 0.157395 -0.00727537)
(0.247106 0.167529 -0.00726695)
(0.207292 0.182052 -0.00724672)
(0.163787 0.199972 -0.00714162)
(0.129822 0.219399 -0.00696581)
(0.0746853 0.237367 -0.00677117)
(0.0369066 0.244406 -0.00639125)
(1.84441 -0.00201097 -0.00206568)
(1.55408 0.0132104 -0.00353353)
(0.668472 0.0803268 -0.00648842)
(0.108824 0.243104 -0.00860822)
(0.119214 0.177471 -0.00850061)
(0.35371 0.157578 -0.00890572)
(0.282488 0.17203 -0.00920678)
(0.240391 0.186092 -0.00911455)
(0.283281 0.179466 -0.00901193)
(0.316169 0.174763 -0.0088288)
(0.318092 0.169242 -0.00811623)
(0.319698 0.161091 -0.00733816)
(0.331921 0.154716 -0.0069771)
(0.342909 0.15255 -0.00691355)
(0.349322 0.154399 -0.00702852)
(0.347609 0.160774 -0.00729893)
(0.33703 0.168247 -0.00743572)
(0.31638 0.177608 -0.00740284)
(0.291735 0.186878 -0.00724461)
(0.262239 0.199665 -0.00721441)
(0.225779 0.217549 -0.00718824)
(0.184634 0.240069 -0.00708468)
(0.150005 0.265007 -0.00691167)
(0.0915579 0.28991 -0.00671498)
(0.0432341 0.302486 -0.00632223)
(1.83482 -0.00217341 -0.00210889)
(1.5794 0.0132739 -0.00339605)
(0.768347 0.083525 -0.00626763)
(0.150915 0.275805 -0.008516)
(0.0758602 0.20852 -0.00843287)
(0.355598 0.181313 -0.00883675)
(0.299795 0.196688 -0.00917755)
(0.248768 0.213841 -0.00908987)
(0.284564 0.207288 -0.00898154)
(0.322285 0.202912 -0.00882797)
(0.325488 0.196058 -0.00819918)
(0.325649 0.186874 -0.00737517)
(0.337141 0.179314 -0.00695584)
(0.348281 0.176084 -0.00685806)
(0.355938 0.177428 -0.00694407)
(0.356406 0.184784 -0.00721303)
(0.347912 0.193688 -0.00737919)
(0.329193 0.204767 -0.00736924)
(0.306193 0.216313 -0.00721491)
(0.280285 0.231734 -0.00715013)
(0.248117 0.253377 -0.00711922)
(0.210447 0.28115 -0.00702468)
(0.17644 0.312892 -0.00684284)
(0.115807 0.347695 -0.00664204)
(0.0539174 0.37229 -0.00624777)
(1.82412 -0.00228839 -0.00215669)
(1.60442 0.0128004 -0.00326693)
(0.889143 0.0837976 -0.00596517)
(0.201711 0.301549 -0.00836892)
(0.0348011 0.240569 -0.00835871)
(0.354225 0.209289 -0.00878289)
(0.318351 0.223022 -0.00914423)
(0.259128 0.241118 -0.00906837)
(0.286056 0.235622 -0.00895231)
(0.328309 0.230811 -0.0088225)
(0.333266 0.222745 -0.00829224)
(0.332389 0.212698 -0.00742813)
(0.342925 0.203979 -0.00694624)
(0.354112 0.199578 -0.00680535)
(0.363172 0.200392 -0.00685695)
(0.366123 0.208097 -0.00710946)
(0.359929 0.218368 -0.00731375)
(0.343795 0.230938 -0.00732866)
(0.323088 0.245304 -0.00718229)
(0.301314 0.263399 -0.00708921)
(0.274677 0.288891 -0.00704789)
(0.242111 0.322519 -0.00695021)
(0.211372 0.362959 -0.0067669)
(0.153214 0.41097 -0.00655905)
(0.0743271 0.460722 -0.00610182)
(1.81239 -0.0023152 -0.00220885)
(1.62811 0.0118521 -0.0031414)
(1.02589 0.0805569 -0.00557448)
(0.261135 0.312897 -0.00811259)
(0.00684578 0.278379 -0.00830436)
(0.351683 0.242437 -0.00875692)
(0.334927 0.251757 -0.00909068)
(0.270635 0.268181 -0.0090442)
(0.288012 0.264218 -0.00892256)
(0.333432 0.258001 -0.00880771)
(0.341185 0.249148 -0.00838583)
(0.340009 0.238262 -0.00749899)
(0.349445 0.228585 -0.00694869)
(0.360539 0.223146 -0.0067518)
(0.370915 0.223316 -0.00677447)
(0.376387 0.230726 -0.00699795)
(0.372816 0.242072 -0.00723596)
(0.360178 0.25587 -0.00728049)
(0.342721 0.273157 -0.00715195)
(0.325408 0.293997 -0.00702434)
(0.30552 0.323107 -0.00696051)
(0.280655 0.362669 -0.00684886)
(0.25693 0.414277 -0.00666126)
(0.21199 0.484136 -0.00641447)
(0.114021 0.598217 -0.00586455)
(1.87532 -0.000165275 1.18208e-08)
(1.45041 0.00119091 -4.64105e-08)
(0.424392 0.00764555 -1.62753e-07)
(0.00191141 0.0176138 9.3465e-08)
(0.258473 0.0148389 3.43589e-08)
(0.334951 0.0152199 1.34157e-08)
(0.232887 0.0162811 1.57507e-07)
(0.222911 0.0173043 1.6332e-07)
(0.280013 0.0178714 7.81866e-08)
(0.296927 0.017424 2.34092e-08)
(0.29321 0.0171577 1.2191e-07)
(0.300285 0.0162429 1.44535e-07)
(0.31265 0.0154376 1.0692e-07)
(0.321062 0.0151452 5.06077e-08)
(0.322989 0.0155097 -5.02789e-08)
(0.316626 0.0162964 -1.69824e-07)
(0.300984 0.0170972 -1.36522e-07)
(0.276734 0.0179594 -2.17989e-07)
(0.249439 0.0186978 -1.54424e-07)
(0.209923 0.0197283 -7.31948e-08)
(0.163359 0.0212422 3.12015e-08)
(0.117258 0.023086 1.79088e-07)
(0.0889628 0.0250259 3.09008e-07)
(0.0454863 0.0269483 3.58129e-07)
(0.0281702 0.027655 3.9809e-07)
(1.87401 -0.000539843 9.09187e-09)
(1.45602 0.00372685 -3.74168e-08)
(0.432947 0.0238384 -1.21479e-07)
(0.00518594 0.0534954 9.12998e-08)
(0.251087 0.0393745 -6.09849e-09)
(0.335118 0.0387059 2.40412e-08)
(0.233617 0.0406767 1.77005e-07)
(0.221819 0.0421042 1.40494e-07)
(0.278188 0.0408335 5.82943e-08)
(0.29596 0.0381555 8.0021e-08)
(0.293166 0.0369317 1.34524e-07)
(0.300779 0.0347304 1.29425e-07)
(0.313788 0.03322 1.08159e-07)
(0.322694 0.0329904 6.5228e-08)
(0.325041 0.0338767 -1.84061e-08)
(0.318762 0.0352814 -1.32752e-07)
(0.303058 0.0365588 -1.23408e-07)
(0.278672 0.0380612 -1.97292e-07)
(0.25141 0.0393752 -1.49587e-07)
(0.212384 0.0415186 -7.56455e-08)
(0.166139 0.0448681 3.00302e-08)
(0.120022 0.0488765 1.77417e-07)
(0.0910303 0.0529636 3.04416e-07)
(0.0464319 0.0561746 3.55705e-07)
(0.0283359 0.0570274 3.92654e-07)
(1.87099 -0.000939144 8.92995e-09)
(1.46794 0.00631777 -3.58502e-08)
(0.45302 0.0401393 -1.14158e-07)
(0.0145605 0.0926829 1.04633e-07)
(0.238331 0.065188 -5.75351e-08)
(0.337169 0.0641127 6.61271e-08)
(0.237564 0.069046 2.01327e-07)
(0.223279 0.0721473 1.33726e-07)
(0.278811 0.0696204 8.05096e-08)
(0.297942 0.0654763 1.2095e-07)
(0.295689 0.063801 1.35557e-07)
(0.302785 0.0607312 1.15105e-07)
(0.316077 0.0586448 1.12804e-07)
(0.325312 0.058451 9.29911e-08)
(0.328012 0.0600764 3.63539e-08)
(0.322048 0.0626322 -7.26605e-08)
(0.306754 0.0649392 -9.69396e-08)
(0.282526 0.0677266 -1.68965e-07)
(0.255414 0.0702996 -1.41099e-07)
(0.217239 0.0740832 -7.94171e-08)
(0.17161 0.0798285 2.5425e-08)
(0.125495 0.0865339 1.74001e-07)
(0.0953885 0.0934504 2.98761e-07)
(0.0492537 0.0990063 3.54226e-07)
(0.0291481 0.100202 3.8384e-07)
(1.86638 -0.00128592 1.15547e-08)
(1.48503 0.0086665 -3.8359e-08)
(0.485135 0.0541483 -1.26686e-07)
(0.029162 0.131298 1.14992e-07)
(0.218336 0.0915439 1.32079e-08)
(0.340943 0.0884636 8.46145e-08)
(0.24472 0.0964946 2.14024e-07)
(0.22585 0.101629 1.48135e-07)
(0.279651 0.0975387 1.04847e-07)
(0.300995 0.0920366 1.48032e-07)
(0.29984 0.0894656 1.0774e-07)
(0.305939 0.0851717 8.89588e-08)
(0.319156 0.0821225 9.52574e-08)
(0.328927 0.0815469 8.22551e-08)
(0.332501 0.0836858 5.29305e-08)
(0.32703 0.0873134 -1.43603e-08)
(0.312252 0.0907376 -6.83339e-08)
(0.288375 0.0950367 -1.36269e-07)
(0.261505 0.0991425 -1.24333e-07)
(0.224693 0.104819 -7.32988e-08)
(0.180304 0.113477 2.27784e-08)
(0.134567 0.123629 1.62793e-07)
(0.10326 0.134332 2.8589e-07)
(0.0546722 0.143202 3.44528e-07)
(0.0306119 0.145371 3.62897e-07)
(1.86033 -0.00157656 1.27886e-08)
(1.50588 0.0107174 -3.74058e-08)
(0.530189 0.0655897 -1.22483e-07)
(0.0485948 0.169381 1.15674e-07)
(0.191826 0.11914 8.51135e-08)
(0.345491 0.111762 7.84105e-08)
(0.254661 0.122507 2.16495e-07)
(0.229289 0.130187 1.4622e-07)
(0.280802 0.124769 8.03107e-08)
(0.305077 0.11904 1.53967e-07)
(0.304895 0.115637 1.50721e-07)
(0.309738 0.110064 1.42162e-07)
(0.322775 0.106027 1.17201e-07)
(0.333016 0.105131 1.20167e-07)
(0.337453 0.107423 8.18583e-08)
(0.332784 0.111884 3.51398e-08)
(0.319037 0.116504 -1.55781e-08)
(0.295925 0.122359 -8.71703e-08)
(0.269484 0.12808 -9.93175e-08)
(0.234607 0.135803 -6.42111e-08)
(0.192164 0.147364 1.93314e-08)
(0.147209 0.161204 1.48834e-07)
(0.114522 0.175995 2.60965e-07)
(0.0628593 0.188782 3.22427e-07)
(0.0330428 0.192727 3.30492e-07)
(1.85293 -0.00181575 1.25722e-08)
(1.52925 0.0123525 -3.86094e-08)
(0.590208 0.0743524 -1.15419e-07)
(0.0749168 0.207008 1.15794e-07)
(0.158871 0.147754 1.09872e-07)
(0.34999 0.134648 6.96984e-08)
(0.267345 0.147512 2.10866e-07)
(0.233962 0.158224 1.37661e-07)
(0.281968 0.151985 2.37188e-08)
(0.310194 0.146667 9.81171e-08)
(0.311041 0.142349 1.33241e-07)
(0.3143 0.135472 8.78571e-08)
(0.326998 0.130281 9.26486e-08)
(0.337655 0.128864 1.07469e-07)
(0.343075 0.131021 9.1589e-08)
(0.339645 0.136353 7.28597e-08)
(0.327266 0.142388 1.95366e-08)
(0.305232 0.149939 -3.30021e-08)
(0.279485 0.157365 -7.73753e-08)
(0.247024 0.167502 -5.27084e-08)
(0.207212 0.182035 1.9925e-08)
(0.163713 0.199967 1.3884e-07)
(0.129764 0.219405 2.3327e-07)
(0.0746512 0.237372 2.88197e-07)
(0.0368972 0.244422 2.95071e-07)
(1.84443 -0.00201087 1.26996e-08)
(1.55405 0.0132127 -4.12163e-08)
(0.668375 0.0803362 -1.10423e-07)
(0.108805 0.243098 9.48431e-08)
(0.119295 0.177464 1.06143e-07)
(0.353684 0.157574 9.23945e-08)
(0.282451 0.172039 2.3416e-07)
(0.24037 0.18612 1.56468e-07)
(0.283225 0.179521 3.02798e-08)
(0.316001 0.174815 1.12636e-07)
(0.317851 0.16931 1.31733e-07)
(0.319462 0.161183 9.89584e-08)
(0.331709 0.154787 8.08855e-08)
(0.342733 0.152577 8.79254e-08)
(0.349167 0.154392 1.15449e-07)
(0.347455 0.160727 6.08097e-08)
(0.336895 0.168189 2.15021e-08)
(0.316271 0.177549 -2.69803e-08)
(0.29166 0.18683 -4.06551e-08)
(0.262164 0.199627 -3.23278e-08)
(0.22571 0.217522 2.76552e-08)
(0.184572 0.240053 1.28201e-07)
(0.149956 0.265003 2.04462e-07)
(0.0915304 0.28991 2.50771e-07)
(0.0432263 0.302499 2.57226e-07)
(1.83484 -0.0021735 1.41048e-08)
(1.57938 0.0132763 -3.34882e-08)
(0.768242 0.0835361 -1.11204e-07)
(0.150902 0.275808 6.02993e-08)
(0.0759435 0.208516 1.33089e-07)
(0.355567 0.181314 1.16956e-07)
(0.299756 0.19671 2.52002e-07)
(0.248752 0.213895 1.78613e-07)
(0.284533 0.207366 6.01858e-08)
(0.322162 0.202984 1.32554e-07)
(0.325279 0.196129 7.9544e-08)
(0.325465 0.186951 9.88882e-08)
(0.336984 0.179358 8.67724e-08)
(0.348159 0.176094 8.19853e-08)
(0.355825 0.177409 1.17489e-07)
(0.356284 0.184751 7.13703e-08)
(0.347804 0.193639 1.31057e-08)
(0.329102 0.204715 4.10554e-09)
(0.306129 0.216256 -2.84004e-08)
(0.280222 0.231687 -1.33671e-08)
(0.24806 0.25334 3.70722e-08)
(0.210397 0.281125 1.19805e-07)
(0.176402 0.312877 1.77036e-07)
(0.115788 0.347687 2.15025e-07)
(0.053913 0.3723 2.21596e-07)
(1.82414 -0.00228886 1.47899e-08)
(1.6044 0.0128025 -2.86451e-08)
(0.889035 0.083811 -1.09174e-07)
(0.201707 0.301568 1.07165e-08)
(0.0348791 0.240563 1.87225e-07)
(0.354193 0.209291 1.63746e-07)
(0.318316 0.223057 2.48399e-07)
(0.259123 0.241196 1.79853e-07)
(0.286054 0.235724 1.03484e-07)
(0.328244 0.230904 1.20525e-07)
(0.333131 0.222823 1.83151e-08)
(0.332294 0.212756 8.19073e-08)
(0.342838 0.203989 8.43568e-08)
(0.354032 0.199554 7.77167e-08)
(0.363079 0.200342 1.0316e-07)
(0.366016 0.208056 7.95878e-08)
(0.359832 0.218318 3.51647e-08)
(0.343711 0.230887 1.29685e-08)
(0.323031 0.245244 -2.19263e-08)
(0.301263 0.263344 7.47165e-09)
(0.27463 0.288847 5.26363e-08)
(0.242072 0.322485 1.16875e-07)
(0.211343 0.362935 1.56654e-07)
(0.153203 0.410952 1.81741e-07)
(0.0743274 0.460727 1.85996e-07)
(1.81241 -0.00231592 1.45681e-08)
(1.6281 0.011854 -2.11816e-08)
(1.02579 0.0805732 -9.75639e-08)
(0.261145 0.312938 -4.63506e-08)
(0.00691095 0.278364 2.82976e-07)
(0.351652 0.242443 1.30072e-07)
(0.334904 0.251799 1.99244e-07)
(0.270643 0.268273 1.69489e-07)
(0.288033 0.264339 1.60253e-07)
(0.333418 0.258115 1.26265e-07)
(0.341132 0.249251 -8.00109e-08)
(0.339998 0.238323 1.58708e-07)
(0.349417 0.228589 9.53379e-08)
(0.360491 0.223106 6.97697e-08)
(0.370839 0.223249 8.61675e-08)
(0.376296 0.230665 7.3336e-08)
(0.372735 0.242009 4.40593e-08)
(0.36011 0.25581 2.97369e-08)
(0.342674 0.273094 2.41994e-09)
(0.325368 0.293936 2.52121e-08)
(0.305485 0.323055 6.48592e-08)
(0.280627 0.362627 1.15469e-07)
(0.256909 0.414245 1.447e-07)
(0.211987 0.484111 1.52382e-07)
(0.114028 0.598218 1.69822e-07)
(1.87532 -0.000164618 -6.48647e-10)
(1.45044 0.00118889 6.10417e-08)
(0.424454 0.00762872 2.47756e-07)
(0.00196911 0.0175515 1.35833e-07)
(0.258505 0.0148238 -5.03785e-08)
(0.334979 0.0151965 -2.4394e-08)
(0.232908 0.0162239 -9.57809e-08)
(0.222964 0.0172274 -6.97408e-08)
(0.280076 0.0178415 -3.04942e-08)
(0.296923 0.0174594 -7.29435e-08)
(0.293114 0.0172177 4.27569e-08)
(0.30014 0.0162725 5.6384e-08)
(0.312483 0.0154167 1.7896e-08)
(0.320892 0.0150878 -3.35159e-09)
(0.322832 0.015447 -4.11029e-08)
(0.316506 0.016254 -1.38173e-07)
(0.300898 0.0170748 -1.0279e-07)
(0.276681 0.0179491 -2.18701e-07)
(0.249417 0.0186923 -2.23546e-07)
(0.209928 0.0197252 -2.13305e-07)
(0.163394 0.0212405 -1.22654e-07)
(0.117311 0.0230848 7.17382e-08)
(0.0890212 0.0250249 2.0191e-07)
(0.0455275 0.0269473 2.32375e-07)
(0.0281847 0.0276543 2.53325e-07)
(1.87401 -0.000539398 4.53404e-09)
(1.45603 0.00372585 3.58371e-08)
(0.432974 0.0238288 1.3375e-07)
(0.0051632 0.0534698 1.46478e-07)
(0.250969 0.0394187 4.67931e-08)
(0.335063 0.0387345 -2.04552e-08)
(0.233474 0.0406878 -1.22912e-07)
(0.221598 0.0421344 -3.09974e-08)
(0.277897 0.040925 2.03429e-08)
(0.295613 0.0382489 -9.75941e-08)
(0.292746 0.0370175 2.40331e-09)
(0.300387 0.0347617 7.64749e-08)
(0.313481 0.0332051 3.07147e-08)
(0.322485 0.0329571 9.7872e-09)
(0.324902 0.0338459 -3.71682e-08)
(0.318671 0.0352568 -1.24691e-07)
(0.302988 0.036535 -1.11085e-07)
(0.278626 0.0380443 -2.16662e-07)
(0.251389 0.0393605 -2.20151e-07)
(0.212389 0.0415092 -2.0665e-07)
(0.166173 0.0448624 -1.17294e-07)
(0.120075 0.0488725 6.94607e-08)
(0.0910881 0.0529605 1.97939e-07)
(0.0464731 0.0561719 2.29622e-07)
(0.0283506 0.0570248 2.46866e-07)
(1.87099 -0.000940101 1.86259e-09)
(1.46796 0.00631945 4.25123e-08)
(0.453061 0.0401536 1.65215e-07)
(0.0145919 0.0927306 1.11667e-07)
(0.238295 0.0652014 1.6968e-07)
(0.337124 0.0641289 -7.0013e-08)
(0.23748 0.0690938 -1.34669e-07)
(0.223196 0.0722305 -3.77985e-08)
(0.278719 0.0697079 3.5324e-08)
(0.297838 0.0655055 -6.78e-08)
(0.295575 0.0637899 4.37371e-08)
(0.302685 0.0606608 5.12066e-08)
(0.315995 0.0585341 2.26779e-08)
(0.325226 0.0583301 -5.1166e-09)
(0.327932 0.0599812 -5.85641e-08)
(0.321994 0.0625672 -1.39619e-07)
(0.306721 0.0648922 -1.639e-07)
(0.28251 0.067697 -2.10103e-07)
(0.25541 0.0702772 -2.1923e-07)
(0.217254 0.0740697 -2.02798e-07)
(0.171649 0.0798206 -1.15374e-07)
(0.12555 0.0865288 6.43257e-08)
(0.0954472 0.0934459 1.92448e-07)
(0.0492952 0.0990023 2.27797e-07)
(0.0291628 0.100198 2.38577e-07)
(1.86637 -0.00128696 -5.95e-09)
(1.48505 0.00866713 5.61825e-08)
(0.485193 0.0541572 2.27588e-07)
(0.0292013 0.131343 9.96883e-08)
(0.218334 0.0915394 2.59679e-09)
(0.340947 0.0884717 -1.74576e-08)
(0.244717 0.0965488 -1.05526e-07)
(0.225857 0.101719 -6.30308e-08)
(0.279695 0.097616 2.38343e-08)
(0.301081 0.0920622 -5.5231e-08)
(0.29996 0.0894413 5.11046e-08)
(0.306053 0.0850734 -2.9499e-08)
(0.319263 0.0819678 -4.37748e-08)
(0.32903 0.0813793 -5.21724e-08)
(0.332601 0.0835523 -1.07636e-07)
(0.327114 0.0872299 -1.6855e-07)
(0.312311 0.0906841 -2.04062e-07)
(0.288409 0.0950064 -2.18513e-07)
(0.261526 0.0991225 -2.23325e-07)
(0.224721 0.104807 -1.97066e-07)
(0.180348 0.113471 -1.12988e-07)
(0.134624 0.123624 5.47875e-08)
(0.103319 0.134327 1.82473e-07)
(0.0547137 0.143197 2.23033e-07)
(0.0306265 0.145365 2.22751e-07)
(1.86032 -0.00157684 -1.03765e-08)
(1.5059 0.0107172 5.45298e-08)
(0.530248 0.0655887 2.26499e-07)
(0.0486277 0.169399 1.06201e-07)
(0.191825 0.119155 -1.29261e-07)
(0.34552 0.11177 9.13735e-08)
(0.254712 0.12254 7.75428e-09)
(0.229342 0.130247 -2.70105e-08)
(0.280899 0.12482 2.61525e-08)
(0.305261 0.119073 1.38912e-08)
(0.305149 0.11563 5.84529e-08)
(0.309985 0.109991 -6.16294e-08)
(0.323012 0.105922 -6.74087e-08)
(0.333235 0.105039 -1.99828e-08)
(0.337651 0.107356 -1.34759e-07)
(0.332946 0.111846 -1.68986e-07)
(0.319151 0.116476 -2.20988e-07)
(0.295996 0.122345 -2.18355e-07)
(0.269523 0.12807 -2.27992e-07)
(0.234645 0.135798 -1.93679e-07)
(0.192213 0.147362 -1.10904e-07)
(0.147266 0.1612 4.57261e-08)
(0.11458 0.175991 1.65948e-07)
(0.0629008 0.188777 2.12116e-07)
(0.0330571 0.192721 2.03088e-07)
(1.85292 -0.00181573 -1.10676e-08)
(1.52927 0.0123517 5.6797e-08)
(0.590267 0.0743476 2.17895e-07)
(0.0749444 0.207011 1.01807e-07)
(0.158854 0.147765 -7.43685e-08)
(0.350022 0.134653 1.39311e-07)
(0.267418 0.147519 6.71835e-08)
(0.234029 0.15824 5.38645e-09)
(0.282068 0.151996 7.69663e-09)
(0.310409 0.146682 1.40743e-08)
(0.311346 0.142342 3.0195e-08)
(0.314591 0.135426 -6.75947e-08)
(0.327259 0.130226 -6.56133e-08)
(0.337873 0.128831 -3.28569e-08)
(0.343259 0.131008 -1.46225e-07)
(0.339805 0.136363 -1.7735e-07)
(0.327391 0.1424 -2.00845e-07)
(0.305319 0.149955 -1.96593e-07)
(0.279533 0.15737 -2.47937e-07)
(0.247068 0.167507 -1.97194e-07)
(0.207262 0.182039 -1.02781e-07)
(0.16377 0.199968 4.14121e-08)
(0.129821 0.219403 1.48543e-07)
(0.0746918 0.237368 1.94414e-07)
(0.036911 0.244417 1.8176e-07)
(1.84442 -0.00201084 -1.15212e-08)
(1.55407 0.0132114 6.32203e-08)
(0.668435 0.0803298 2.17514e-07)
(0.108827 0.243095 1.29526e-07)
(0.119268 0.177464 -1.36876e-08)
(0.353716 0.157574 1.12148e-07)
(0.282524 0.172024 7.11021e-08)
(0.240433 0.186096 1.76157e-09)
(0.283306 0.179498 -6.70548e-08)
(0.316193 0.1748 -3.12866e-08)
(0.318125 0.169291 2.31806e-08)
(0.319711 0.161154 -5.30586e-08)
(0.331924 0.154766 -6.32302e-08)
(0.342902 0.152573 -7.07698e-08)
(0.349304 0.154401 -2.07689e-07)
(0.347577 0.160755 -1.22264e-07)
(0.336992 0.16822 -1.80936e-07)
(0.316341 0.177578 -1.80053e-07)
(0.291699 0.186851 -2.42785e-07)
(0.262206 0.199643 -1.98694e-07)
(0.225758 0.217534 -1.02271e-07)
(0.184626 0.24006 3.62068e-08)
(0.15001 0.265005 1.32534e-07)
(0.0915689 0.289907 1.76183e-07)
(0.0432394 0.302495 1.5597e-07)
(1.83483 -0.00217338 -1.3565e-08)
(1.57939 0.013275 5.82015e-08)
(0.768304 0.0835292 2.23037e-07)
(0.150921 0.275801 1.77169e-07)
(0.0759138 0.208512 -3.18632e-08)
(0.355597 0.181305 8.1499e-08)
(0.29982 0.196678 7.46072e-08)
(0.248807 0.21384 7.05853e-09)
(0.284586 0.207314 -1.07777e-07)
(0.322298 0.20294 -6.1829e-08)
(0.325471 0.19609 2.04238e-08)
(0.325624 0.186934 -5.20951e-08)
(0.337124 0.179369 -8.7061e-08)
(0.348274 0.176118 -1.057e-07)
(0.355928 0.17744 -2.18015e-07)
(0.356386 0.184776 -1.21726e-07)
(0.347886 0.193667 -1.5555e-07)
(0.329162 0.20474 -1.84863e-07)
(0.306163 0.216287 -2.21541e-07)
(0.280259 0.231713 -1.93933e-07)
(0.248103 0.25336 -1.03023e-07)
(0.210446 0.281138 2.78212e-08)
(0.176451 0.312883 1.15755e-07)
(0.115823 0.347687 1.58204e-07)
(0.0539255 0.372297 1.32154e-07)
(1.82413 -0.00228858 -1.4683e-08)
(1.60441 0.0128014 5.77319e-08)
(0.889097 0.0838036 2.33721e-07)
(0.201722 0.301554 2.60532e-07)
(0.0348506 0.240559 -8.15121e-08)
(0.354219 0.209278 -3.21674e-08)
(0.318369 0.223014 6.81464e-08)
(0.259168 0.241121 3.81024e-08)
(0.286081 0.235649 -7.3341e-08)
(0.328315 0.230837 -7.33221e-08)
(0.333232 0.222766 1.01456e-08)
(0.332368 0.212745 -5.73504e-08)
(0.342913 0.204023 -9.24824e-08)
(0.354106 0.199605 -1.20102e-07)
(0.363161 0.200399 -1.79759e-07)
(0.366099 0.208093 -1.34978e-07)
(0.359899 0.218353 -1.33685e-07)
(0.343761 0.230918 -2.06779e-07)
(0.32306 0.245282 -1.90512e-07)
(0.301291 0.263379 -1.83746e-07)
(0.274666 0.288875 -1.03226e-07)
(0.242115 0.322504 1.77616e-08)
(0.211385 0.362946 9.99595e-08)
(0.153234 0.410954 1.43843e-07)
(0.0743391 0.460727 1.12456e-07)
(1.8124 -0.00231556 -1.48292e-08)
(1.6281 0.0118529 5.50306e-08)
(1.02585 0.0805649 2.48394e-07)
(0.261154 0.312915 4.08976e-07)
(0.00688866 0.278365 -1.45186e-07)
(0.351674 0.242427 -1.65891e-08)
(0.334943 0.251753 6.75916e-08)
(0.270676 0.26819 5.87632e-08)
(0.288041 0.264247 3.33151e-09)
(0.333437 0.258032 -3.41761e-08)
(0.341159 0.249183 4.34785e-08)
(0.340008 0.238308 -9.08814e-08)
(0.349443 0.228623 -1.14142e-07)
(0.360535 0.223165 -1.17277e-07)
(0.370902 0.223315 -1.56048e-07)
(0.376361 0.230714 -1.34095e-07)
(0.372786 0.242053 -1.37949e-07)
(0.360145 0.255851 -2.0787e-07)
(0.342694 0.273138 -1.91763e-07)
(0.325388 0.293978 -1.76602e-07)
(0.305512 0.323091 -1.03385e-07)
(0.280661 0.362651 4.01417e-09)
(0.256943 0.414259 8.57099e-08)
(0.212013 0.484115 1.32048e-07)
(0.114039 0.598218 1.05674e-07)
(1.87532 -0.00016469 -1.43132e-08)
(1.45043 0.00118919 1.25801e-07)
(0.424443 0.00763087 4.71145e-07)
(0.00196217 0.0175577 1.5215e-08)
(0.258513 0.0148263 -2.47187e-08)
(0.334976 0.015199 1.24782e-07)
(0.232901 0.0162296 6.49482e-08)
(0.222953 0.0172362 2.36694e-08)
(0.280059 0.0178484 -1.11108e-08)
(0.296909 0.0174617 -1.269e-08)
(0.293104 0.0172193 -7.83576e-09)
(0.300135 0.0162781 2.01373e-08)
(0.312478 0.0154273 3.17568e-08)
(0.320883 0.0151017 4.78305e-08)
(0.322814 0.0154596 6.28696e-08)
(0.316478 0.0162621 4.83999e-08)
(0.300861 0.0170779 -5.54953e-09)
(0.276639 0.0179488 -4.43222e-08)
(0.249373 0.018691 -6.96031e-08)
(0.209882 0.0197241 -6.81613e-08)
(0.163355 0.0212401 -4.72646e-09)
(0.117279 0.0230852 9.90187e-08)
(0.0890005 0.0250266 1.6041e-07)
(0.0455147 0.0269491 1.65851e-07)
(0.0281776 0.0276569 1.67432e-07)
(1.87401 -0.000539502 -1.32515e-08)
(1.45603 0.00372641 1.29019e-07)
(0.432966 0.0238325 4.80312e-07)
(0.00516237 0.0534771 2.01016e-08)
(0.250986 0.0394183 -3.17309e-08)
(0.335066 0.0387335 1.23115e-07)
(0.23348 0.0406888 6.22104e-08)
(0.221608 0.0421361 2.02124e-08)
(0.277909 0.0409212 -6.0743e-09)
(0.295628 0.0382391 -5.32287e-09)
(0.292764 0.0370044 -1.25864e-08)
(0.300406 0.0347508 5.8067e-09)
(0.313492 0.033198 1.33681e-08)
(0.322483 0.0329523 2.62989e-08)
(0.324885 0.0338433 3.77683e-08)
(0.318641 0.0352559 3.10112e-08)
(0.30295 0.0365351 -9.52777e-09)
(0.278584 0.0380435 -4.18774e-08)
(0.251346 0.0393593 -6.01362e-08)
(0.212345 0.0415081 -5.59522e-08)
(0.166136 0.0448625 2.02696e-09)
(0.120044 0.048874 9.77557e-08)
(0.0910685 0.0529643 1.56622e-07)
(0.046461 0.0561759 1.62994e-07)
(0.0283443 0.0570309 1.64635e-07)
(1.87099 -0.00094015 -1.30936e-08)
(1.46795 0.00632016 1.3047e-07)
(0.453055 0.0401579 4.81295e-07)
(0.0145881 0.0927378 3.52308e-08)
(0.238306 0.0652045 -6.13721e-08)
(0.337127 0.0641297 1.25178e-07)
(0.237486 0.0690941 5.59262e-08)
(0.223207 0.07223 1.6625e-08)
(0.278737 0.0697032 6.27323e-09)
(0.297862 0.0654968 -3.52391e-09)
(0.295603 0.0637804 -1.70829e-08)
(0.302713 0.0606621 -6.96458e-09)
(0.316016 0.0585476 -7.24181e-09)
(0.325241 0.0583513 -1.25376e-08)
(0.327932 0.0600036 -1.54408e-08)
(0.321976 0.0625816 -1.26425e-08)
(0.306687 0.0648978 -2.8584e-08)
(0.282467 0.0676978 -4.95226e-08)
(0.255367 0.070275 -5.57908e-08)
(0.21721 0.0740674 -4.25558e-08)
(0.171613 0.0798202 9.02949e-09)
(0.125521 0.0865303 9.4808e-08)
(0.0954285 0.0934514 1.51332e-07)
(0.0492843 0.0990084 1.59746e-07)
(0.029158 0.100208 1.61768e-07)
(1.86637 -0.00128698 -1.40047e-08)
(1.48505 0.00866811 1.31395e-07)
(0.485189 0.0541625 4.81564e-07)
(0.0292004 0.131352 5.80421e-08)
(0.218343 0.0915448 -1.00785e-07)
(0.340949 0.0884727 1.07629e-07)
(0.24472 0.0965447 3.69637e-08)
(0.225864 0.101711 5.85429e-09)
(0.279703 0.0976055 6.46549e-09)
(0.301092 0.09206 -2.17714e-08)
(0.299972 0.0894453 -2.62362e-08)
(0.306056 0.0850962 -8.41841e-09)
(0.319244 0.0820057 -1.03555e-08)
(0.328983 0.0814191 -2.99869e-08)
(0.332537 0.0835842 -5.34416e-08)
(0.327048 0.0872466 -5.95701e-08)
(0.312251 0.0906893 -5.29007e-08)
(0.288357 0.0950056 -5.18597e-08)
(0.261479 0.0991188 -4.60775e-08)
(0.224678 0.104804 -2.5673e-08)
(0.180314 0.11347 1.84955e-08)
(0.134598 0.123626 8.84808e-08)
(0.103303 0.134334 1.42317e-07)
(0.0547053 0.143206 1.55526e-07)
(0.0306239 0.145377 1.57273e-07)
(1.86032 -0.00157689 -1.35696e-08)
(1.5059 0.0107182 1.33808e-07)
(0.530248 0.0655945 4.7937e-07)
(0.0486287 0.169411 9.75363e-08)
(0.191829 0.119161 -1.25567e-07)
(0.345517 0.111771 7.36704e-08)
(0.254707 0.122533 -2.06957e-09)
(0.229337 0.130235 -1.9797e-08)
(0.280889 0.12481 -1.73929e-08)
(0.30523 0.119079 -3.42231e-08)
(0.305093 0.115649 -7.8397e-08)
(0.309917 0.110027 -4.86711e-08)
(0.322928 0.105955 -2.06975e-08)
(0.333139 0.105051 -6.2923e-08)
(0.337553 0.107353 -7.0579e-08)
(0.332856 0.111836 -9.21427e-08)
(0.319077 0.116469 -8.11214e-08)
(0.295936 0.122337 -6.61593e-08)
(0.269474 0.128064 -4.37696e-08)
(0.234602 0.135794 -1.7732e-08)
(0.192181 0.14736 2.31021e-08)
(0.147244 0.161203 7.9349e-08)
(0.114567 0.175998 1.28932e-07)
(0.0628942 0.188787 1.46874e-07)
(0.0330553 0.192733 1.46735e-07)
(1.85292 -0.00181585 -1.17097e-08)
(1.52927 0.0123529 1.40018e-07)
(0.590272 0.0743539 4.77034e-07)
(0.0749485 0.207027 1.59292e-07)
(0.158854 0.147774 -1.54475e-07)
(0.350015 0.134656 5.37137e-08)
(0.267404 0.147517 -2.47353e-08)
(0.234012 0.158236 -4.32904e-08)
(0.282044 0.151997 -4.72852e-08)
(0.310347 0.14669 -1.51366e-08)
(0.311239 0.142362 -6.69066e-08)
(0.314481 0.135454 1.76769e-08)
(0.32716 0.130241 7.00623e-10)
(0.337795 0.128821 -9.39603e-08)
(0.343196 0.130981 -8.24126e-08)
(0.339743 0.136327 -1.07668e-07)
(0.327329 0.142373 -1.0274e-07)
(0.30526 0.149933 -9.5119e-08)