/*--------------------------------*- C++ -*----------------------------------*\
| =========                 |                                                 |
| \\      /  F ield         | OpenFOAM: The Open Source CFD Toolbox           |
|  \\    /   O peration     | Version:  4.1                                   |
|   \\  /    A nd           | Web:      www.OpenFOAM.org                      |
|    \\/     M anipulation  |                                                 |
\*---------------------------------------------------------------------------*/
FoamFile
{
    version     2.0;
    format      ascii;
    class       surfaceScalarField;
    location    "4.42";
    object      phi;
}
// * * * * * * * * * * * * * * * * * * * * * * * * * * * * * * * * * * * * * //

dimensions      [1 0 -1 0 0 0 0];

internalField   nonuniform List<scalar> 
150500
(
0.0168001
1.81184e-10
-3.38932e-12
0.0168001
9.99921e-10
-1.16454e-11
0.0168001
3.73002e-09
-1.34661e-11
0.0168
9.54063e-09
-2.16957e-11
0.0168
2.64892e-08
-2.1324e-11
0.0168
6.05191e-08
-2.92086e-11
0.0167998
1.608e-07
-2.91673e-11
0.0167995
3.54971e-07
-4.01969e-11
0.0167984
9.82741e-07
-4.14698e-11
0.0167965
2.10992e-06
-7.71112e-11
0.0167895
6.63496e-06
-9.28878e-11
0.0167746
1.54783e-05
-2.28252e-10
0.0167115
6.24394e-05
-2.62081e-10
0.0165303
0.000181477
-1.10503e-09
0.0154619
0.00106827
-2.29136e-09
0.0141816
0.00128023
4.66054e-10
0.0129403
0.00124091
-6.01443e-11
0.0116498
0.00129009
-3.34114e-10
0.0102911
0.00135804
-3.31026e-10
0.00884674
0.00144414
-3.13323e-10
0.00729513
0.00155109
-3.06738e-10
0.00563141
0.00166318
-3.27291e-10
0.00386507
0.00176637
-3.42699e-10
0.0019933
0.00187133
-3.57454e-10
0.00199262
-3.7474e-10
0.0168001
3.47491e-10
-3.38092e-12
0.0168001
1.91715e-09
-1.16466e-11
0.0168001
7.16936e-09
-1.34635e-11
0.0168
1.82964e-08
-2.16889e-11
0.0168
5.09234e-08
-2.13173e-11
0.0168
1.15765e-07
-2.91852e-11
0.0167998
3.12005e-07
-2.91234e-11
0.0167995
6.68914e-07
-4.0055e-11
0.0167985
1.9739e-06
-4.13443e-11
0.0167967
4.01356e-06
-7.63747e-11
0.0167896
1.34819e-05
-9.22574e-11
0.0167753
3.0195e-05
-2.24725e-10
0.0167056
0.00013163
-2.62813e-10
0.0165187
0.000368648
-1.0896e-09
0.0154465
0.00214025
-2.28487e-09
0.0141328
0.0025939
4.67619e-10
0.0129105
0.00246282
-5.92349e-11
0.0116416
0.00255876
-3.36288e-10
0.0102946
0.0027045
-3.32507e-10
0.0088396
0.00289894
-3.12636e-10
0.0072713
0.00311898
-3.02785e-10
0.00559372
0.00334029
-3.21827e-10
0.00380962
0.00355057
-3.36332e-10
0.00192819
0.0037523
-3.50478e-10
0.00392022
-3.67465e-10
0.0168001
5.04512e-10
-3.36842e-12
0.0168001
2.76429e-09
-1.16417e-11
0.0168001
1.03309e-08
-1.34842e-11
0.0168
2.6249e-08
-2.1602e-11
0.0168
7.33481e-08
-2.14202e-11
0.0168
1.66296e-07
-2.90661e-11
0.0167998
4.50905e-07
-2.9119e-11
0.0167995
9.64347e-07
-3.97116e-11
0.0167986
2.85458e-06
-4.13166e-11
0.0167969
5.82228e-06
-7.49545e-11
0.0167903
1.9864e-05
-9.1162e-11
0.016776
4.49233e-05
-2.18563e-10
0.0167116
0.00019547
-2.59339e-10
0.0165336
0.000546877
-1.05195e-09
0.0155483
0.00312539
-2.25537e-09
0.0142099
0.00393223
4.73147e-10
0.0129825
0.00368988
-5.56293e-11
0.0117237
0.00381734
-3.40273e-10
0.0103878
0.00403974
-3.3761e-10
0.00893316
0.0043534
-3.16397e-10
0.00735954
0.00469221
-3.01216e-10
0.00566569
0.00503368
-3.16978e-10
0.00385515
0.00536128
-3.29144e-10
0.00194993
0.00565712
-3.40306e-10
0.0058696
-3.54157e-10
0.0168001
5.74973e-10
-3.34851e-12
0.0168001
3.19549e-09
-1.16365e-11
0.0168001
1.19534e-08
-1.35018e-11
0.0168001
3.04506e-08
-2.15003e-11
0.0168
8.45163e-08
-2.15068e-11
0.0168
1.89732e-07
-2.88852e-11
0.0167999
5.27624e-07
-2.89788e-11
0.0167999
1.01895e-06
-3.89017e-11
0.016799
3.71293e-06
-4.08149e-11
0.0167992
5.67256e-06
-7.09028e-11
0.0167903
2.85057e-05
-8.68068e-11
0.0167819
5.37634e-05
-2.06346e-10
0.0167193
0.000257561
-2.48693e-10
0.0165673
0.000699077
-9.9864e-10
0.015748
0.0039444
-2.2494e-09
0.0143909
0.00528936
4.16305e-10
0.013155
0.00492544
-7.86464e-11
0.0119026
0.00506946
-3.38902e-10
0.010577
0.00536476
-3.35953e-10
0.00912955
0.00580063
-3.1427e-10
0.00755491
0.00626648
-2.99525e-10
0.0058548
0.00673334
-3.12195e-10
0.00401164
0.00720464
-3.20831e-10
0.0020327
0.00763569
-3.27334e-10
0.0079018
-3.36753e-10
0.0168001
7.50156e-10
-3.34066e-12
0.0168001
4.14451e-09
-1.16048e-11
0.0168001
1.54424e-08
-1.35955e-11
0.0168
3.94537e-08
-2.13773e-11
0.0168
1.09233e-07
-2.18568e-11
0.0168
2.47991e-07
-2.90428e-11
0.0167998
6.69819e-07
-2.97813e-11
0.0167995
1.38823e-06
-4.27643e-11
0.0167987
4.47851e-06
-3.76822e-11
0.0167972
7.23032e-06
-1.13496e-10
0.0167917
3.37425e-05
2.00967e-13
0.0167821
6.37877e-05
-3.0725e-10
0.016744
0.000295117
-6.05493e-11
0.0166442
0.000799122
-8.88957e-10
0.0161652
0.004423
-1.98206e-09
0.014785
0.00666951
2.69602e-10
0.0134933
0.00621684
-2.10249e-10
0.0122208
0.00634172
-3.72047e-10
0.0109069
0.00667803
-3.52027e-10
0.00946509
0.00724231
-3.16406e-10
0.00788581
0.00784529
-3.08193e-10
0.00615404
0.00846444
-3.16001e-10
0.00426062
0.00909821
-3.18998e-10
0.00219817
0.0096978
-3.19331e-10
0.0100995
-3.23118e-10
0.0168001
9.1384e-10
-3.31492e-12
0.0168001
5.02266e-09
-1.1578e-11
0.0168001
1.87139e-08
-1.35671e-11
0.0168
4.78405e-08
-2.1253e-11
0.0168
1.32665e-07
-2.15527e-11
0.0168
3.03132e-07
-2.82994e-11
0.0167998
8.01771e-07
-2.82809e-11
0.0167995
1.77377e-06
-3.63248e-11
0.016799
4.90749e-06
-3.84144e-11
0.0167963
1.00362e-05
-6.81734e-11
0.0167955
3.43125e-05
-4.67257e-11
0.0167897
6.99044e-05
-2.1422e-10
0.0167823
0.000302026
-1.47098e-10
0.0167688
0.000812829
-7.83994e-10
0.0168706
0.00432077
-1.8156e-09
0.0154636
0.00807644
1.61496e-10
0.0140342
0.00764603
-2.25251e-10
0.0127086
0.00766704
-3.53459e-10
0.0113827
0.00800335
-3.37812e-10
0.009964
0.00866071
-3.10178e-10
0.00837322
0.00943601
-3.12469e-10
0.0066189
0.0102185
-3.18709e-10
0.00465146
0.0110659
-3.17931e-10
0.00242805
0.0119209
-3.14597e-10
0.0125271
-3.1589e-10
0.0168001
9.56984e-10
-3.27796e-12
0.0168001
5.29403e-09
-1.15842e-11
0.0168001
1.97058e-08
-1.35442e-11
0.0168001
5.05596e-08
-2.1228e-11
0.0168
1.39094e-07
-2.14675e-11
0.0168
3.18153e-07
-2.81572e-11
0.0168
8.2958e-07
-2.78888e-11
0.0167999
1.84438e-06
-3.5551e-11
0.0167999
4.88313e-06
-3.78978e-11
0.0167994
1.06502e-05
-5.51212e-11
0.0168023
3.12502e-05
-6.11074e-11
0.0168031
6.93294e-05
-1.74182e-10
0.0168501
0.000254624
-1.78201e-10
0.0169807
0.000682434
-7.13663e-10
0.0180667
0.00323421
-1.76039e-09
0.0166449
0.00949814
-4.16845e-11
0.0148639
0.00942695
-2.33918e-10
0.0134552
0.0090755
-2.98852e-10
0.0121022
0.00935577
-2.97874e-10
0.0106599
0.0101027
-2.91009e-10
0.00906051
0.0110348
-2.97946e-10
0.00725309
0.0120255
-3.08757e-10
0.00520886
0.0131103
-3.1068e-10
0.0028294
0.0143001
-3.07827e-10
0.015356
-3.07695e-10
0.0168001
1.03147e-09
-3.245e-12
0.0168001
5.73404e-09
-1.1593e-11
0.0168001
2.13915e-08
-1.35411e-11
0.0168001
5.5143e-08
-2.12218e-11
0.0168
1.5158e-07
-2.1437e-11
0.0168
3.4804e-07
-2.80916e-11
0.0167999
9.03799e-07
-2.76901e-11
0.0167998
2.03241e-06
-3.50964e-11
0.0167994
5.25514e-06
-3.66937e-11
0.0167982
1.18532e-05
-5.23723e-11
0.0167981
3.11767e-05
-5.28702e-11
0.0167909
7.67861e-05
-1.60604e-10
0.0168122
0.000232885
-1.08949e-10
0.0168438
0.000651082
-5.13746e-10
0.017267
0.0028106
-9.10695e-10
0.0167053
0.0100594
-7.88557e-10
0.0151767
0.0109552
-3.93142e-10
0.0140239
0.0102282
-2.9898e-10
0.0127845
0.0105948
-2.93332e-10
0.0114218
0.0114654
-2.85348e-10
0.00987636
0.0125799
-2.88017e-10
0.00809973
0.0138015
-2.95658e-10
0.00601044
0.0151997
-2.96489e-10
0.00342636
0.0168841
-2.94445e-10
0.018782
-2.95031e-10
0.0168001
1.39659e-09
-3.21889e-12
0.0168001
6.23548e-09
-1.1593e-11
0.0168001
2.5441e-08
-1.35549e-11
0.0168
6.11837e-08
-2.1221e-11
0.0168
1.78689e-07
-2.1468e-11
0.0168
3.90447e-07
-2.81516e-11
0.0167998
1.04524e-06
-2.79046e-11
0.0167995
2.36581e-06
-3.56763e-11
0.0167993
5.48087e-06
-3.7031e-11
0.0167973
1.38116e-05
-5.91901e-11
0.0167966
3.17856e-05
-4.19615e-11
0.0168001
7.3516e-05
-1.78797e-10
0.0167946
0.000237947
-5.46243e-11
0.0168058
0.000640133
-4.83378e-10
0.0170169
0.00259912
-6.95312e-10
0.0163266
0.0107491
-1.23161e-09
0.0157384
0.011543
-3.38059e-10
0.0145326
0.0114336
-2.74723e-10
0.0133109
0.0118159
-2.71171e-10
0.0121533
0.0126227
-2.72753e-10
0.0107586
0.0139746
-2.75644e-10
0.00914024
0.0154193
-2.78983e-10
0.0071949
0.017145
-2.77807e-10
0.00450686
0.0195719
-2.70597e-10
0.0232883
-2.70159e-10
0.0168001
-3.24091e-12
2.00103e-09
0.0168001
-1.16271e-11
1.47437e-09
0.0168001
-1.36228e-11
2.64818e-08
0.0168001
-2.18643e-11
2.26067e-08
0.0168001
-2.11742e-11
1.74434e-07
0.0168003
-2.90957e-11
1.47121e-07
0.0168003
-2.80522e-11
1.05953e-06
0.016802
-3.73312e-11
7.39893e-07
0.0168003
-3.59376e-11
7.1579e-06
0.0168113
-5.90381e-11
2.96522e-06
0.0167893
-5.9287e-11
5.38019e-05
0.0168521
-1.32394e-10
1.09158e-05
0.0167087
-5.7754e-11
0.000380865
0.0169907
-5.09516e-10
0.000358295
0.0169413
-5.26026e-10
0.00264821
0.0165513
-1.41324e-09
0.0111385
0.0157054
-2.43861e-10
0.0123885
0.01484
-2.08899e-10
0.0122987
0.0139208
-2.45874e-10
0.0127346
0.0129159
-2.52523e-10
0.013627
0.0118407
-2.56615e-10
0.0150496
0.01056
-2.55523e-10
0.0166997
0.00879862
-2.51655e-10
0.0189062
0.00621643
-2.38566e-10
0.022154
-2.21054e-10
0.0295044
0.0168001
1.85316e-10
-4.976e-16
0.0168001
1.00263e-09
-2.65928e-15
0.0168001
3.73467e-09
-5.72777e-15
0.0168
9.5474e-09
-1.21343e-14
0.0168
2.65035e-08
-2.15438e-14
0.0168
6.05364e-08
-4.05467e-14
0.0167998
1.60844e-07
-8.05727e-14
0.0167995
3.55082e-07
-1.57682e-13
0.0167984
9.82918e-07
-3.56981e-13
0.0167964
2.11046e-06
-7.39775e-13
0.0167895
6.63586e-06
-2.03031e-12
0.0167746
1.5481e-05
-4.7474e-12
0.0167115
6.24424e-05
-1.19674e-11
0.0165303
0.000181492
-3.993e-11
0.0154619
0.00106831
-1.06239e-10
0.0141815
0.0012802
2.22694e-11
0.0129402
0.0012409
-2.43406e-12
0.0116498
0.00129008
-1.16652e-11
0.0102911
0.00135802
-1.0371e-11
0.00884676
0.00144411
-8.80318e-12
0.00729517
0.00155107
-1.1328e-11
0.00563147
0.00166316
-1.42513e-11
0.00386513
0.00176637
-1.62811e-11
0.00199333
0.00187135
-1.82821e-11
0.00199266
-2.01038e-11
0.0168001
3.5375e-10
-4.84108e-16
0.0168001
1.92542e-09
-2.60235e-15
0.0168001
7.16663e-09
-5.52708e-15
0.0168
1.8342e-08
-1.16978e-14
0.0168
5.09021e-08
-2.02351e-14
0.0168
1.15828e-07
-3.74751e-14
0.0167998
3.12059e-07
-7.44931e-14
0.0167995
6.69171e-07
-1.30781e-13
0.0167985
1.97419e-06
-3.60616e-13
0.0167967
4.01469e-06
-5.85654e-13
0.0167896
1.34839e-05
-2.09554e-12
0.0167753
3.02005e-05
-3.91316e-12
0.0167056
0.000131641
-1.57245e-11
0.0165186
0.000368687
-3.99187e-11
0.0154464
0.00214038
-1.12018e-10
0.0141326
0.00259387
2.5258e-11
0.0129104
0.00246279
6.549e-13
0.0116415
0.00255872
-1.07476e-11
0.0102945
0.00270446
-1.00291e-11
0.00883956
0.00289889
-8.8662e-12
0.00727129
0.00311893
-1.07781e-11
0.00559372
0.00334026
-1.33285e-11
0.00380964
0.00355056
-1.52672e-11
0.00192821
0.00375232
-1.71742e-11
0.00392027
-1.88206e-11
0.0168001
5.13891e-10
-4.8253e-16
0.0168001
2.77419e-09
-2.59525e-15
0.0168001
1.03314e-08
-5.51194e-15
0.0168
2.62966e-08
-1.16569e-14
0.0168
7.33328e-08
-2.02067e-14
0.0168
1.66348e-07
-3.74302e-14
0.0167998
4.5095e-07
-7.48292e-14
0.0167995
9.64497e-07
-1.32096e-13
0.0167986
2.85458e-06
-3.65952e-13
0.0167969
5.82206e-06
-5.99521e-13
0.0167903
1.98663e-05
-2.16793e-12
0.016776
4.49324e-05
-4.06082e-12
0.0167116
0.000195491
-1.63829e-11
0.0165336
0.000546958
-4.14808e-11
0.0155481
0.00312565
-1.17794e-10
0.0142097
0.0039322
2.94322e-11
0.0129823
0.00368984
3.1932e-12
0.0117235
0.00381728
-1.0519e-11
0.0103877
0.00403967
-1.02545e-11
0.00893306
0.00435332
-9.38e-12
0.00735947
0.00469213
-1.0345e-11
0.00566565
0.00503362
-1.21898e-11
0.00385514
0.00536124
-1.37538e-11
0.00194992
0.00565711
-1.52785e-11
0.00586965
-1.65458e-11
0.0168001
5.79862e-10
-4.82386e-16
0.0168001
3.21714e-09
-2.5944e-15
0.0168001
1.19286e-08
-5.51807e-15
0.0168001
3.05108e-08
-1.16621e-14
0.0168
8.44118e-08
-2.03081e-14
0.0168
1.8969e-07
-3.7676e-14
0.0167999
5.27354e-07
-7.57626e-14
0.0167999
1.01775e-06
-1.35218e-13
0.016799
3.71449e-06
-3.72048e-13
0.0167993
5.65789e-06
-6.20738e-13
0.0167903
2.85447e-05
-2.22972e-12
0.016782
5.37242e-05
-4.14081e-12
0.0167192
0.00025768
-1.6746e-11
0.0165672
0.000699202
-4.22186e-11
0.0157476
0.00394494
-1.22341e-10
0.0143904
0.00528935
3.22794e-11
0.0131547
0.00492528
4.22339e-12
0.0119024
0.00506934
-1.07165e-11
0.0105768
0.00536465
-1.05937e-11
0.00912936
0.00580053
-9.709e-12
0.00755475
0.00626636
-1.00536e-11
0.0058547
0.00673323
-1.10795e-11
0.00401158
0.00720455
-1.21792e-11
0.00203267
0.00763565
-1.32132e-11
0.00790181
-1.40821e-11
0.0168001
7.62994e-10
-4.66137e-16
0.0168001
4.16831e-09
-2.54723e-15
0.0168001
1.5476e-08
-5.33677e-15
0.0168
3.95363e-08
-1.10055e-14
0.0168
1.09448e-07
-1.91325e-14
0.0168
2.48473e-07
-3.40448e-14
0.0167998
6.70853e-07
-6.88683e-14
0.0167994
1.39205e-06
-1.00933e-13
0.0167987
4.48001e-06
-3.91604e-13
0.0167971
7.25142e-06
-3.04604e-13
0.0167917
3.37309e-05
-3.49863e-12
0.016782
6.38395e-05
-3.36997e-12
0.0167441
0.000295093
-1.52491e-11
0.0166443
0.000799216
-4.26177e-11
0.0161654
0.00442341
-1.28267e-10
0.0147852
0.00666949
3.32715e-11
0.0134934
0.0062168
5.92898e-12
0.0122208
0.00634169
-1.0272e-11
0.0109068
0.00667798
-1.05692e-11
0.00946501
0.00724224
-9.79513e-12
0.00788572
0.00784518
-9.49034e-12
0.00615395
0.00846432
-9.81116e-12
0.00426055
0.0090981
-1.06038e-11
0.00219814
0.00969772
-1.12289e-11
0.0100995
-1.17187e-11
0.0168001
9.31986e-10
-4.80367e-16
0.0168001
5.03447e-09
-2.59881e-15
0.0168001
1.87416e-08
-5.54768e-15
0.0168
4.78811e-08
-1.15047e-14
0.0168
1.3276e-07
-2.06068e-14
0.0168
3.03325e-07
-3.78097e-14
0.0167998
8.02236e-07
-7.55793e-14
0.0167995
1.77487e-06
-1.4084e-13
0.016799
4.90931e-06
-3.6668e-13
0.0167963
1.00456e-05
-5.83831e-13
0.0167955
3.43153e-05
-2.40259e-12
0.0167897
6.99297e-05
-3.78188e-12
0.0167823
0.000302037
-1.67562e-11
0.0167688
0.000812905
-4.11644e-11
0.0168705
0.00432124
-1.27874e-10
0.0154637
0.00807629
2.94478e-11
0.0140343
0.00764598
6.64485e-12
0.0127087
0.00766703
-9.65556e-12
0.0113828
0.00800334
-1.05705e-11
0.00996402
0.00866067
-1.07062e-11
0.0083732
0.00943594
-9.40947e-12
0.00661886
0.0102184
-9.06315e-12
0.00465142
0.0110657
-9.19234e-12
0.00242802
0.0119208
-9.40808e-12
0.012527
-9.51729e-12
0.0168001
9.73441e-10
-4.75084e-16
0.0168001
5.30319e-09
-2.57304e-15
0.0168001
1.97197e-08
-5.47104e-15
0.0168001
5.05775e-08
-1.13296e-14
0.0168
1.39129e-07
-2.01312e-14
0.0168
3.18219e-07
-3.67479e-14
0.0168
8.29739e-07
-7.27379e-14
0.0167999
1.84474e-06
-1.34803e-13
0.0167999
4.88398e-06
-3.38752e-13
0.0167994
1.06522e-05
-6.16184e-13
0.0168023
3.12562e-05
-2.11987e-12
0.0168032
6.93403e-05
-3.5527e-12
0.0168501
0.000254674
-1.53056e-11
0.0169806
0.000682587
-3.80746e-11
0.0180661
0.00323511
-1.25223e-10
0.0166445
0.00949788
1.3059e-11
0.0148637
0.00942662
3.211e-12
0.0134551
0.0090754
-9.21565e-12
0.0121022
0.00935571
-1.03846e-11
0.0106599
0.0101026
-1.08431e-11
0.00906051
0.0110348
-8.69439e-12
0.00725307
0.0120255
-8.16457e-12
0.00520884
0.0131102
-7.96886e-12
0.00282938
0.0143
-7.77773e-12
0.015356
-7.42189e-12
0.0168001
1.04287e-09
-4.63401e-16
0.0168001
5.73867e-09
-2.51968e-15
0.0168001
2.13848e-08
-5.29732e-15
0.0168001
5.51139e-08
-1.09542e-14
0.0168
1.51498e-07
-1.89856e-14
0.0168
3.47926e-07
-3.44116e-14
0.0167999
9.03532e-07
-6.52423e-14
0.0167998
2.03189e-06
-1.20632e-13
0.0167994
5.25447e-06
-2.81299e-13
0.0167982
1.18501e-05
-5.44373e-13
0.0167981
3.11808e-05
-1.44005e-12
0.016791
7.67773e-05
-3.38019e-12
0.0168123
0.000232922
-9.04847e-12
0.016844
0.000651131
-2.35247e-11
0.0172676
0.00281098
-6.14287e-11
0.0167057
0.0100594
-4.47975e-11
0.0151768
0.0109552
-1.56693e-11
0.0140239
0.0102282
-1.30313e-11
0.0127845
0.0105947
-1.31007e-11
0.0114218
0.0114653
-1.25367e-11
0.00987639
0.0125798
-9.97477e-12
0.00809974
0.0138015
-8.64422e-12
0.00601044
0.0151996
-7.71e-12
0.00342635
0.016884
-6.77093e-12
0.0187819
-5.6882e-12
0.0168001
1.37299e-09
-4.61115e-16
0.0168001
6.34236e-09
-2.50326e-15
0.0168001
2.54802e-08
-5.26764e-15
0.0168
6.0945e-08
-1.08888e-14
0.0168
1.78711e-07
-1.89081e-14
0.0168
3.90034e-07
-3.43656e-14
0.0167998
1.04502e-06
-6.52441e-14
0.0167995
2.36511e-06
-1.24218e-13
0.0167993
5.48062e-06
-2.65029e-13
0.0167973
1.3812e-05
-6.31127e-13
0.0167966
3.17798e-05
-1.03826e-12
0.0168001
7.35328e-05
-3.73947e-12
0.0167946
0.000237948
-6.35611e-12
0.0168059
0.000640158
-1.99768e-11
0.0170172
0.00259931
-4.9047e-11
0.0163268
0.0107492
-7.77417e-11
0.0157386
0.011543
-1.6157e-11
0.0145328
0.0114336
-1.29343e-11
0.013311
0.0118159
-1.32983e-11
0.0121534
0.0126226
-1.28007e-11
0.0107586
0.0139746
-1.10454e-11
0.00914029
0.0154192
-9.29986e-12
0.00719493
0.0171449
-8.19373e-12
0.00450688
0.0195719
-6.10584e-12
0.0232882
-4.67997e-12
0.0168001
-4.51335e-16
1.86539e-09
0.0168001
-2.43243e-15
1.83979e-09
0.0168001
-5.02435e-15
2.52846e-08
0.0168001
-1.06019e-14
2.31231e-08
0.0168001
-1.70475e-14
1.73028e-07
0.0168003
-3.12332e-14
1.47767e-07
0.0168003
-5.44969e-14
1.05846e-06
0.016802
-1.00361e-13
7.40998e-07
0.0168003
-2.12115e-13
7.15668e-06
0.0168113
-4.08214e-13
2.97091e-06
0.0167893
-1.05481e-12
5.37989e-05
0.0168521
-2.32658e-12
1.09361e-05
0.0167088
-5.29227e-12
0.000380829
0.0169906
-2.00729e-11
0.000358397
0.0169415
-4.09697e-11
0.00264817
0.0165515
-9.25464e-11
0.0111386
0.0157056
-1.2181e-11
0.0123885
0.0148402
-1.01414e-11
0.0122987
0.0139209
-1.2546e-11
0.0127346
0.0129161
-1.24309e-11
0.013627
0.0118408
-1.10617e-11
0.0150496
0.0105601
-1.01172e-11
0.0166996
0.00879868
-8.39929e-12
0.0189062
0.00621647
-6.1666e-12
0.0221539
-4.12636e-12
0.0295044
0.0168001
1.85323e-10
1.77702e-16
0.0168001
1.00266e-09
1.81667e-16
0.0168001
3.73478e-09
-2.97156e-17
0.0168
9.54768e-09
-6.38078e-17
0.0168
2.65043e-08
-1.62376e-16
0.0168
6.05384e-08
-3.30875e-16
0.0167998
1.60849e-07
-8.00796e-16
0.0167995
3.55098e-07
-1.73372e-15
0.0167984
9.82925e-07
-3.74482e-15
0.0167964
2.11054e-06
-8.67792e-15
0.0167895
6.63588e-06
-2.12286e-14
0.0167746
1.54814e-05
-5.22932e-14
0.0167115
6.24404e-05
-1.16871e-13
0.0165303
0.000181491
-4.21948e-13
0.0154619
0.0010683
-1.1972e-12
0.0141815
0.00128019
-4.52796e-13
0.0129402
0.0012409
-6.39649e-13
0.0116498
0.00129007
-7.6984e-13
0.0102911
0.00135802
-7.19606e-13
0.00884679
0.00144411
-6.98414e-13
0.0072952
0.00155107
-9.16651e-13
0.00563149
0.00166317
-1.17651e-12
0.00386514
0.00176638
-1.37276e-12
0.00199334
0.00187135
-1.57088e-12
0.00199267
-1.72433e-12
0.0168001
3.53751e-10
1.7554e-16
0.0168001
1.92543e-09
1.87268e-16
0.0168001
7.16665e-09
-2.82494e-17
0.0168
1.83421e-08
-6.0745e-17
0.0168
5.09022e-08
-1.54236e-16
0.0168
1.15828e-07
-3.11084e-16
0.0167998
3.1206e-07
-7.80082e-16
0.0167995
6.69172e-07
-1.53995e-15
0.0167985
1.9742e-06
-4.08286e-15
0.0167967
4.01468e-06
-7.66625e-15
0.0167896
1.34839e-05
-2.39978e-14
0.0167753
3.02005e-05
-4.84968e-14
0.0167056
0.000131641
-1.67623e-13
0.0165186
0.000368686
-4.61662e-13
0.0154464
0.00214037
-1.3764e-12
0.0141326
0.00259386
-3.95595e-13
0.0129104
0.00246279
-8.6134e-13
0.0116415
0.00255872
-7.46906e-13
0.0102945
0.00270446
-7.19093e-13
0.00883957
0.00289889
-7.13836e-13
0.0072713
0.00311893
-8.85537e-13
0.00559373
0.00334026
-1.10955e-12
0.00380965
0.00355057
-1.31481e-12
0.00192822
0.00375233
-1.48876e-12
0.00392029
-1.62598e-12
0.0168001
5.13892e-10
1.75106e-16
0.0168001
2.77419e-09
1.87246e-16
0.0168001
1.03314e-08
-3.00299e-17
0.0168
2.62966e-08
-6.46125e-17
0.0168
7.33329e-08
-1.66451e-16
0.0168
1.66348e-07
-3.359e-16
0.0167998
4.50951e-07
-8.60523e-16
0.0167995
9.64498e-07
-1.69269e-15
0.0167986
2.85458e-06
-4.64522e-15
0.0167969
5.82206e-06
-8.60081e-15
0.0167903
1.98663e-05
-2.79723e-14
0.016776
4.49323e-05
-5.58455e-14
0.0167116
0.000195491
-1.99193e-13
0.0165336
0.000546958
-5.38012e-13
0.0155481
0.00312565
-1.60821e-12
0.0142097
0.00393219
-2.92374e-13
0.0129823
0.00368983
-6.12368e-13
0.0117235
0.00381728
-7.6047e-13
0.0103877
0.00403967
-7.55449e-13
0.00893306
0.00435332
-7.59297e-13
0.00735948
0.00469214
-8.65493e-13
0.00566566
0.00503362
-1.02115e-12
0.00385514
0.00536125
-1.18566e-12
0.00194993
0.00565712
-1.32424e-12
0.00586966
-1.43982e-12
0.0168001
5.79868e-10
1.74872e-16
0.0168001
3.21716e-09
1.86495e-16
0.0168001
1.19287e-08
-3.22948e-17
0.0168001
3.05111e-08
-6.94364e-17
0.0168
8.44124e-08
-1.8072e-16
0.0168
1.89691e-07
-3.64421e-16
0.0167999
5.27358e-07
-9.49194e-16
0.0167999
1.01776e-06
-1.84789e-15
0.016799
3.71449e-06
-5.25377e-15
0.0167993
5.65801e-06
-9.49481e-15
0.0167903
2.85445e-05
-3.20018e-14
0.016782
5.37246e-05
-6.235e-14
0.0167192
0.000257679
-2.30562e-13
0.0165672
0.000699202
-6.0948e-13
0.0157476
0.00394495
-1.83934e-12
0.0143904
0.00528933
-2.04153e-13
0.0131547
0.00492527
-5.80599e-13
0.0119024
0.00506934
-7.89773e-13
0.0105768
0.00536465
-7.59179e-13
0.00912936
0.00580053
-8.06945e-13
0.00755475
0.00626636
-7.53659e-13
0.0058547
0.00673323
-1.00093e-12
0.00401158
0.00720456
-1.07535e-12
0.00203267
0.00763566
-1.1787e-12
0.00790183
-1.24993e-12
0.0168001
7.62987e-10
1.71737e-16
0.0168001
4.16829e-09
1.89494e-16
0.0168001
1.54759e-08
-3.48122e-17
0.0168
3.95361e-08
-7.48997e-17
0.0168
1.09447e-07
-1.96794e-16
0.0168
2.48471e-07
-3.97196e-16
0.0167998
6.70849e-07
-1.04631e-15
0.0167994
1.39203e-06
-2.02032e-15
0.0167987
4.48002e-06
-5.92837e-15
0.0167971
7.2513e-06
-1.01059e-14
0.0167917
3.37311e-05
-3.77471e-14
0.016782
6.38393e-05
-6.80221e-14
0.0167441
0.000295094
-2.63071e-13
0.0166443
0.000799218
-6.84161e-13
0.0161654
0.00442343
-2.11665e-12
0.0147852
0.00666948
-1.71242e-13
0.0134934
0.00621679
-5.5419e-13
0.0122208
0.00634168
-8.62582e-13
0.0109068
0.00667798
-7.57671e-13
0.009465
0.00724224
-9.22916e-13
0.00788572
0.00784518
-6.67686e-13
0.00615395
0.00846432
-9.97295e-13
0.00426055
0.00909811
-9.40342e-13
0.00219814
0.00969774
-1.00969e-12
0.0100995
-1.05475e-12
0.0168001
9.31989e-10
1.74051e-16
0.0168001
5.03449e-09
1.84448e-16
0.0168001
1.87417e-08
-3.68197e-17
0.0168
4.78812e-08
-7.91815e-17
0.0168
1.32761e-07
-2.09902e-16
0.0168
3.03326e-07
-4.24783e-16
0.0167998
8.02237e-07
-1.12455e-15
0.0167995
1.77487e-06
-2.2234e-15
0.016799
4.90933e-06
-6.36505e-15
0.0167963
1.00456e-05
-1.10668e-14
0.0167955
3.43155e-05
-4.07366e-14
0.0167897
6.993e-05
-7.29752e-14
0.0167823
0.000302039
-2.83435e-13
0.0167688
0.000812911
-7.29656e-13
0.0168705
0.00432127
-2.31246e-12
0.0154637
0.00807627
-1.7886e-13
0.0140343
0.00764597
-4.95571e-13
0.0127087
0.00766702
-8.21001e-13
0.0113827
0.00800334
-7.02113e-13
0.00996401
0.00866067
-7.38477e-13
0.00837319
0.00943594
-5.42305e-13
0.00661885
0.0102184
-8.00195e-13
0.00465141
0.0110658
-8.24455e-13
0.00242802
0.0119208
-8.2142e-13
0.0125271
-8.33213e-13
0.0168001
9.73446e-10
1.73075e-16
0.0168001
5.30322e-09
1.86535e-16
0.0168001
1.97198e-08
-3.72915e-17
0.0168001
5.05777e-08
-8.02089e-17
0.0168
1.3913e-07
-2.14106e-16
0.0168
3.18221e-07
-4.33143e-16
0.0168
8.29744e-07
-1.15635e-15
0.0167999
1.84475e-06
-2.29213e-15
0.0167999
4.88402e-06
-6.49077e-15
0.0167994
1.06522e-05
-1.22237e-14
0.0168023
3.12566e-05
-4.11971e-14
0.0168032
6.93407e-05
-7.52681e-14
0.0168501
0.000254679
-2.93762e-13
0.0169806
0.000682599
-7.56546e-13
0.0180661
0.00323518
-2.51881e-12
0.0166444
0.00949787
-4.29334e-13
0.0148637
0.00942659
-4.95453e-13
0.0134551
0.00907539
-7.01925e-13
0.0121022
0.0093557
-7.38071e-13
0.0106599
0.0101026
-7.61404e-13
0.0090605
0.0110348
-7.67056e-13
0.00725307
0.0120255
-7.88248e-13
0.00520883
0.0131102
-7.43716e-13
0.00282938
0.0143001
-6.39743e-13
0.015356
-6.03851e-13
0.0168001
1.04287e-09
1.71167e-16
0.0168001
5.73869e-09
1.9177e-16
0.0168001
2.13848e-08
-3.52874e-17
0.0168001
5.51141e-08
-7.58857e-17
0.0168
1.51499e-07
-2.01225e-16
0.0168
3.47927e-07
-4.0734e-16
0.0167999
9.03534e-07
-1.07231e-15
0.0167998
2.03189e-06
-2.13828e-15
0.0167994
5.25449e-06
-5.80656e-15
0.0167982
1.18501e-05
-1.14686e-14
0.0167981
3.1181e-05
-3.2169e-14
0.016791
7.67774e-05
-7.39696e-14
0.0168123
0.000232925
-2.04616e-13
0.016844
0.000651135
-5.35348e-13
0.0172677
0.00281101
-1.47009e-12
0.0167057
0.0100595
-1.50355e-12
0.0151768
0.0109552
-7.97567e-13
0.0140239
0.0102282
-7.98572e-13
0.0127844
0.0105947
-7.98589e-13
0.0114218
0.0114653
-7.36636e-13
0.00987638
0.0125798
-7.1204e-13
0.00809973
0.0138015
-6.21284e-13
0.00601044
0.0151996
-5.45614e-13
0.00342634
0.016884
-4.57842e-13
0.0187819
-3.68856e-13
0.0168001
1.37299e-09
1.706e-16
0.0168001
6.34241e-09
1.92581e-16
0.0168001
2.54803e-08
-3.70535e-17
0.0168
6.09453e-08
-7.98557e-17
0.0168
1.78712e-07
-2.15753e-16
0.0168
3.90036e-07
-4.40139e-16
0.0167998
1.04503e-06
-1.17221e-15
0.0167995
2.36512e-06
-2.42391e-15
0.0167993
5.48065e-06
-6.02682e-15
0.0167973
1.38121e-05
-1.47045e-14
0.0167966
3.17799e-05
-2.65936e-14
0.0168001
7.35335e-05
-9.04107e-14
0.0167946
0.00023795
-1.6844e-13
0.0168059
0.000640161
-5.16777e-13
0.0170172
0.00259932
-1.34079e-12
0.0163269
0.0107492
-2.35051e-12
0.0157387
0.011543
-8.03335e-13
0.0145328
0.0114336
-7.29574e-13
0.013311
0.0118159
-7.57573e-13
0.0121534
0.0126226
-7.29798e-13
0.0107586
0.0139746
-6.94242e-13
0.00914028
0.0154192
-4.93596e-13
0.00719492
0.0171449
-4.22568e-13
0.00450688
0.0195719
-2.67296e-13
0.0232882
-1.17581e-13
0.0168001
1.69389e-16
1.86537e-09
0.0168001
2.00097e-16
1.83987e-09
0.0168001
-3.16147e-17
2.52845e-08
0.0168001
-6.83437e-17
2.31235e-08
0.0168001
-1.82543e-16
1.73028e-07
0.0168003
-3.73651e-16
1.47769e-07
0.0168003
-9.73453e-16
1.05846e-06
0.016802
-2.0216e-15
7.41007e-07
0.0168003
-5.15503e-15
7.15671e-06
0.0168113
-1.05665e-14
2.97097e-06
0.0167893
-2.93356e-14
5.37991e-05
0.0168521
-6.60375e-14
1.09365e-05
0.0167088
-1.52626e-13
0.00038083
0.0169906
-5.88038e-13
0.000358399
0.0169415
-1.21177e-12
0.00264818
0.0165515
-2.89846e-12
0.0111386
0.0157056
-6.90179e-13
0.0123885
0.0148402
-6.33331e-13
0.0122987
0.0139209
-7.38696e-13
0.0127346
0.0129161
-6.75029e-13
0.013627
0.0118408
-6.04242e-13
0.0150496
0.0105601
-4.83408e-13
0.0166996
0.00879868
-3.04502e-13
0.0189062
0.00621647
-6.10497e-14
0.0221539
1.09623e-13
0.0295044
0.0168001
1.85323e-10
7.65887e-18
0.0168001
1.00266e-09
3.20102e-17
0.0168001
3.73478e-09
9.84837e-17
0.0168
9.54768e-09
1.93002e-16
0.0168
2.65043e-08
4.94377e-16
0.0168
6.05384e-08
9.28623e-16
0.0167998
1.60849e-07
2.50041e-15
0.0167995
3.55098e-07
5.01213e-15
0.0167984
9.82925e-07
1.4548e-14
0.0167964
2.11054e-06
2.92049e-14
0.0167895
6.63587e-06
9.92389e-14
0.0167746
1.54814e-05
2.27257e-13
0.0167115
6.24403e-05
7.08654e-13
0.0165303
0.000181491
2.30984e-12
0.0154619
0.0010683
6.87003e-12
0.0141815
0.00128019
-8.13499e-13
0.0129402
0.0012409
-2.52671e-13
0.0116498
0.00129007
1.14212e-14
0.0102911
0.00135802
-4.2603e-14
0.00884679
0.00144411
-1.69801e-13
0.0072952
0.00155107
-2.31382e-13
0.00563149
0.00166317
-2.80791e-13
0.00386515
0.00176638
-3.6106e-13
0.00199334
0.00187135
-3.27685e-13
0.00199267
-3.53608e-13
0.0168001
3.53751e-10
6.85758e-18
0.0168001
1.92543e-09
2.88389e-17
0.0168001
7.16665e-09
8.82998e-17
0.0168
1.83421e-08
1.72782e-16
0.0168
5.09022e-08
4.37306e-16
0.0168
1.15828e-07
7.9945e-16
0.0167998
3.1206e-07
2.23331e-15
0.0167995
6.69172e-07
3.86973e-15
0.0167985
1.9742e-06
1.44829e-14
0.0167967
4.01468e-06
2.22978e-14
0.0167896
1.34839e-05
1.00335e-13
0.0167753
3.02004e-05
1.85283e-13
0.0167056
0.000131641
8.70749e-13
0.0165186
0.000368686
2.26406e-12
0.0154464
0.00214037
6.99114e-12
0.0141326
0.00259386
-1.04154e-12
0.0129104
0.00246279
-2.74491e-13
0.0116415
0.00255872
-7.68554e-15
0.0102945
0.00270446
-5.31363e-14
0.00883957
0.00289889
-1.70393e-13
0.0072713
0.00311893
-2.27683e-13
0.00559374
0.00334026
-2.65686e-13
0.00380965
0.00355057
-3.51259e-13
0.00192822
0.00375233
-3.18144e-13
0.00392029
-3.87664e-13
0.0168001
5.13892e-10
6.80676e-18
0.0168001
2.77419e-09
2.87424e-17
0.0168001
1.03314e-08
8.78085e-17
0.0168
2.62966e-08
1.71479e-16
0.0168
7.33329e-08
4.34293e-16
0.0168
1.66348e-07
7.92689e-16
0.0167998
4.50951e-07
2.21722e-15
0.0167995
9.64498e-07
3.8716e-15
0.0167986
2.85458e-06
1.44117e-14
0.0167969
5.82206e-06
2.24626e-14
0.0167903
1.98663e-05
1.01243e-13
0.016776
4.49323e-05
1.87414e-13
0.0167116
0.000195491
8.79045e-13
0.0165336
0.000546958
2.27688e-12
0.0155481
0.00312565
7.08791e-12
0.0142097
0.00393219
-1.25357e-12
0.0129823
0.00368983
-3.20604e-13
0.0117235
0.00381728
-2.35378e-14
0.0103877
0.00403967
-6.12847e-14
0.00893306
0.00435332
-1.6857e-13
0.00735948
0.00469214
-2.78088e-13
0.00566566
0.00503362
-3.28155e-13
0.00385514
0.00536125
-3.30111e-13
0.00194993
0.00565713
-2.99299e-13
0.00586966
-3.74993e-13
0.0168001
5.79868e-10
6.86774e-18
0.0168001
3.21716e-09
2.91032e-17
0.0168001
1.19287e-08
8.8642e-17
0.0168001
3.05111e-08
1.72621e-16
0.0168
8.44124e-08
4.37467e-16
0.0168
1.89691e-07
7.99051e-16
0.0167999
5.27358e-07
2.22901e-15
0.0167999
1.01776e-06
3.96229e-15
0.016799
3.71449e-06
1.43854e-14
0.0167993
5.65801e-06
2.30363e-14
0.0167903
2.85445e-05
1.01851e-13
0.016782
5.37245e-05
1.86624e-13
0.0167192
0.000257679
8.74293e-13
0.0165672
0.000699202
2.25282e-12
0.0157476
0.00394495
7.13842e-12
0.0143904
0.00528933
-1.37318e-12
0.0131547
0.00492527
-3.54194e-13
0.0119024
0.00506934
-2.98133e-14
0.0105768
0.00536465
-6.02957e-14
0.00912936
0.00580053
-1.6236e-13
0.00755475
0.00626636
-2.48462e-13
0.0058547
0.00673323
-3.27951e-13
0.00401158
0.00720456
-2.67632e-13
0.00203267
0.00763566
-3.61268e-13
0.00790183
-3.78532e-13
0.0168001
7.62987e-10
5.99699e-18
0.0168001
4.16829e-09
2.5998e-17
0.0168001
1.54759e-08
7.69809e-17
0.0168
3.95361e-08
1.46843e-16
0.0168
1.09447e-07
3.64367e-16
0.0168
2.48471e-07
6.26588e-16
0.0167998
6.70849e-07
1.85818e-15
0.0167994
1.39203e-06
2.16597e-15
0.0167987
4.48002e-06
1.51551e-14
0.0167971
7.2513e-06
5.20458e-15
0.0167917
3.37311e-05
1.32091e-13
0.016782
6.38393e-05
1.37218e-13
0.0167441
0.000295094
9.19929e-13
0.0166443
0.000799218
2.19885e-12
0.0161654
0.00442343
7.18822e-12
0.0147852
0.00666948
-1.40916e-12
0.0134934
0.00621679
-3.99722e-13
0.0122208
0.00634168
-4.56065e-14
0.0109068
0.00667797
-5.39629e-14
0.009465
0.00724224
-1.65287e-13