/*--------------------------------*- C++ -*----------------------------------*\
| =========                 |                                                 |
| \\      /  F ield         | OpenFOAM: The Open Source CFD Toolbox           |
|  \\    /   O peration     | Version:  4.1                                   |
|   \\  /    A nd           | Web:      www.OpenFOAM.org                      |
|    \\/     M anipulation  |                                                 |
\*---------------------------------------------------------------------------*/
FoamFile
{
    version     2.0;
    format      ascii;
    class       volScalarField;
    location    "0.8";
    object      Ma;
}
// * * * * * * * * * * * * * * * * * * * * * * * * * * * * * * * * * * * * * //

dimensions      [0 0 0 0 0 0 0];

internalField   nonuniform List<scalar> 
52500
(
4.98283
1.15626
0.30076
0.125843
0.307444
0.336178
0.335418
0.348249
0.371934
0.38273
0.386492
0.405377
0.424871
0.427507
0.419359
0.396252
0.358238
0.321169
0.293454
0.274438
0.256764
0.235833
0.207881
0.134786
0.0596582
4.96332
1.17308
0.310166
0.123311
0.307963
0.337562
0.337302
0.349406
0.371686
0.382177
0.386403
0.405841
0.425936
0.429272
0.421794
0.399468
0.361957
0.325211
0.297746
0.279331
0.262414
0.241813
0.213859
0.142853
0.0761598
4.90256
1.20986
0.330143
0.12108
0.311462
0.342908
0.343475
0.354737
0.375179
0.385723
0.390461
0.409762
0.430394
0.434276
0.427218
0.405949
0.369287
0.333572
0.307214
0.290482
0.275465
0.25599
0.22893
0.163379
0.109053
4.81029
1.26821
0.359078
0.120267
0.317675
0.35168
0.352058
0.362059
0.380454
0.391091
0.396137
0.414686
0.436308
0.44095
0.434659
0.415104
0.379809
0.345615
0.321047
0.306718
0.29416
0.276308
0.250579
0.191023
0.146188
4.70031
1.34908
0.396247
0.123774
0.32613
0.363319
0.362628
0.371039
0.387273
0.39812
0.403348
0.420665
0.443505
0.449536
0.444209
0.426745
0.393103
0.360865
0.338654
0.327178
0.317365
0.301504
0.277562
0.224192
0.186855
4.56671
1.45389
0.441069
0.134241
0.336588
0.376846
0.375162
0.381524
0.395375
0.406553
0.411802
0.427529
0.451825
0.459768
0.455638
0.440294
0.409063
0.379203
0.359877
0.351491
0.344752
0.33139
0.310263
0.263598
0.23309
4.41715
1.58236
0.493216
0.152238
0.348149
0.391404
0.389346
0.393074
0.404449
0.416036
0.421419
0.435575
0.461061
0.471403
0.468694
0.45559
0.427764
0.400427
0.384318
0.378963
0.375782
0.366068
0.349316
0.310755
0.288353
4.25818
1.7293
0.551985
0.177144
0.359899
0.406117
0.404816
0.405301
0.414327
0.426358
0.432141
0.444703
0.471119
0.484236
0.483069
0.472521
0.448905
0.42429
0.411382
0.409087
0.410494
0.40562
0.395938
0.368366
0.358831
4.08435
1.87774
0.614508
0.20868
0.371159
0.420753
0.420439
0.417642
0.424717
0.437346
0.444074
0.455311
0.482053
0.497906
0.498664
0.49106
0.47221
0.450294
0.440414
0.441351
0.448382
0.45018
0.45102
0.439732
0.455279
3.89352
1.98652
0.671062
0.247141
0.381175
0.434683
0.434993
0.429659
0.435412
0.448993
0.457469
0.467947
0.493411
0.512205
0.515318
0.510608
0.496792
0.477725
0.470818
0.47564
0.488732
0.500205
0.516372
0.533656
0.617858
4.98322
1.1561
0.300634
0.125692
0.307356
0.336073
0.335302
0.34811
0.371767
0.382543
0.386331
0.405258
0.424779
0.427459
0.419335
0.396221
0.358168
0.32107
0.293339
0.274317
0.256667
0.235757
0.207795
0.134628
0.0592644
4.96328
1.17292
0.310046
0.123226
0.307918
0.337556
0.337316
0.349461
0.371788
0.382359
0.386607
0.406008
0.426164
0.429492
0.421942
0.399547
0.361942
0.325141
0.297647
0.279221
0.262322
0.241737
0.21377
0.142697
0.0758491
4.90263
1.2097
0.330026
0.120933
0.3114
0.342889
0.34347
0.354754
0.375221
0.385821
0.390531
0.409776
0.430478
0.434358
0.427262
0.40595
0.369229
0.333481
0.30711
0.290377
0.275374
0.255909
0.22884
0.163238
0.108832
4.81057
1.26807
0.358983
0.120095
0.317598
0.351624
0.352005
0.362013
0.380414
0.391059
0.39607
0.414597
0.436251
0.440882
0.434563
0.414967
0.379666
0.345481
0.320924
0.306609
0.294064
0.27622
0.250487
0.190895
0.146017
4.70055
1.34895
0.396174
0.1236
0.326046
0.36324
0.362545
0.370952
0.387181
0.398002
0.40321
0.420569
0.443374
0.449357
0.444003
0.426509
0.392873
0.360671
0.338499
0.327054
0.31726
0.301408
0.277467
0.224077
0.186717
4.56695
1.45378
0.441017
0.134078
0.336503
0.376766
0.375074
0.381427
0.395262
0.406394
0.411625
0.427389
0.45165
0.459534
0.455372
0.440016
0.408799
0.378987
0.359702
0.351355
0.344638
0.331288
0.310169
0.263494
0.232974
4.41733
1.58228
0.493185
0.152094
0.348069
0.39133
0.389264
0.392983
0.404339
0.415885
0.421253
0.435466
0.460914
0.47115
0.468405
0.455273
0.427447
0.400206
0.384142
0.378832
0.375665
0.365964
0.349223
0.31066
0.288252
4.25835
1.72926
0.551976
0.177022
0.359827
0.40605
0.404744
0.405221
0.414235
0.426236
0.431999
0.444642
0.471035
0.484013
0.482793
0.472212
0.448582
0.424072
0.411212
0.408968
0.41038
0.405515
0.395847
0.36828
0.358743
4.08449
1.87774
0.614521
0.20858
0.371094
0.420692
0.420376
0.417575
0.424647
0.437265
0.443963
0.455268
0.482015
0.497732
0.49843
0.4908
0.471934
0.450099
0.440258
0.441237
0.448272
0.450076
0.450933
0.439653
0.455202
3.89361
1.98655
0.671083
0.247062
0.381117
0.434627
0.434938
0.429608
0.435368
0.448948
0.45739
0.467927
0.493416
0.512083
0.515141
0.510409
0.496584
0.477564
0.470685
0.47553
0.488631
0.500106
0.516288
0.533588
0.61779
4.98302
1.15624
0.300685
0.125666
0.307359
0.336097
0.335331
0.348147
0.371809
0.382556
0.386313
0.405229
0.424676
0.427299
0.41915
0.396029
0.358037
0.320998
0.293323
0.274338
0.256689
0.235768
0.2078
0.134631
0.0592642
4.96341
1.17306
0.310095
0.123147
0.307889
0.337507
0.337251
0.349359
0.371643
0.382124
0.386353
0.405798
0.425866
0.429181
0.42168
0.399323
0.361809
0.325072
0.29763
0.279238
0.262341
0.241748
0.213776
0.142699
0.0758477
4.90265
1.20984
0.33008
0.120902
0.311389
0.342858
0.343429
0.354698
0.37515
0.385702
0.390443
0.409735
0.430359
0.434226
0.42714
0.40584
0.369158
0.333445
0.307106
0.290395
0.275397
0.255926
0.22885
0.163241
0.10883
4.81044
1.26821
0.359031
0.120082
0.317601
0.351626
0.352007
0.362017
0.380424
0.391075
0.396117
0.414643
0.436281
0.440912
0.434599
0.41501
0.379706
0.345514
0.320956
0.306642
0.294096
0.276245
0.250501
0.190898
0.146014
4.70044
1.34909
0.396217
0.123593
0.326057
0.363261
0.362573
0.370993
0.387242
0.398106
0.403331
0.420651
0.443488
0.449503
0.444156
0.426666
0.393002
0.360761
0.338565
0.327105
0.317304
0.301442
0.277487
0.224082
0.186714
4.56684
1.45392
0.441056
0.134074
0.336515
0.37679
0.375107
0.381478
0.395338
0.406527
0.411774
0.427472
0.451784
0.459742
0.455593
0.440232
0.408976
0.3791
0.359788
0.351417
0.344691
0.331329
0.310194
0.263501
0.232972
4.41725
1.58241
0.493222
0.152094
0.34808
0.391349
0.389292
0.393027
0.404408
0.416005
0.421392
0.435521
0.461016
0.471367
0.468643
0.455518
0.427671
0.400333
0.384233
0.378892
0.375723
0.36601
0.349251
0.31067
0.288253
4.25827
1.72936
0.552009
0.177024
0.359833
0.406064
0.404765
0.405253
0.414283
0.426321
0.4321
0.444664
0.471094
0.484193
0.483007
0.472437
0.448795
0.424194
0.411299
0.409024
0.410438
0.405565
0.395879
0.368293
0.358747
4.08442
1.87782
0.614549
0.208583
0.371097
0.420703
0.420388
0.417593
0.424671
0.437304
0.444015
0.455264
0.482039
0.497864
0.498599
0.49098
0.472106
0.450201
0.440334
0.441292
0.448329
0.450126
0.450967
0.439671
0.45521
3.89355
1.98659
0.671104
0.247066
0.381118
0.434634
0.434944
0.429611
0.435367
0.448951
0.457401
0.467905
0.493416
0.512169
0.515256
0.510534
0.496702
0.477641
0.470745
0.475581
0.488685
0.500156
0.516324
0.533609
0.617804
4.9831
1.15625
0.300696
0.125673
0.307357
0.336092
0.335323
0.348137
0.371799
0.382544
0.3863
0.405216
0.42466
0.42728
0.419124
0.395991
0.357993
0.320958
0.293295
0.274324
0.256688
0.235776
0.207811
0.13464
0.0592664
4.96346
1.17308
0.310107
0.123158
0.30789
0.337507
0.33725
0.34936
0.371646
0.382131
0.386359
0.4058
0.425868
0.429177
0.421664
0.39929
0.361766
0.325033
0.297603
0.279226
0.262341
0.241755
0.213786
0.142707
0.0758486
4.90269
1.20986
0.330093
0.12091
0.311389
0.342858
0.343428
0.3547
0.375156
0.385715
0.390454
0.409742
0.430369
0.434226
0.427129
0.405811
0.369123
0.333412
0.307083
0.290386
0.275397
0.255931
0.228857
0.163246
0.108829
4.81048
1.26823
0.359047
0.12009
0.317602
0.351626
0.352005
0.362016
0.380424
0.391081
0.396116
0.41463
0.436271
0.440894
0.434562
0.414961
0.379648
0.345465
0.320926
0.306629
0.294095
0.276248
0.250505
0.1909
0.146011
4.70046
1.34912
0.396236
0.123601
0.326057
0.36326
0.362569
0.370988
0.387234
0.398092
0.403308
0.420621
0.44345
0.44945
0.444086
0.426586
0.392919
0.360695
0.338523
0.327086
0.317298
0.301442
0.277488
0.224081
0.18671
4.56685
1.45395
0.44108
0.134084
0.336517
0.376788
0.375101
0.381466
0.395321
0.406495
0.411731
0.427444
0.451735
0.459655
0.455492
0.440129
0.408886
0.379038
0.359745
0.351396
0.344682
0.331326
0.310192
0.263498
0.232966
4.41724
1.58245
0.49325
0.152106
0.348081
0.391348
0.389286
0.393014
0.404386
0.415968
0.421343
0.435502
0.460979
0.471273
0.468535
0.455402
0.42756
0.400272
0.384196
0.378878
0.375714
0.366005
0.349247
0.310665
0.288245
4.25824
1.72942
0.552041
0.177039
0.359835
0.406063
0.404761
0.405243
0.414265
0.42629
0.432062
0.444658
0.471071
0.484118
0.482916
0.472342
0.448704
0.424143
0.411269
0.409016
0.410432
0.405558
0.395873
0.368286
0.358737
4.08437
1.87788
0.614582
0.2086
0.3711
0.420703
0.420388
0.417588
0.424662
0.437288
0.443998
0.455268
0.482022
0.49781
0.498536
0.490918
0.472052
0.450169
0.440314
0.441284
0.448323
0.450119
0.45096
0.439663
0.455197
3.89348
1.98663
0.671132
0.247086
0.381122
0.434636
0.434947
0.429612
0.435368
0.448949
0.457405
0.467915
0.493397
0.512134
0.515223
0.510503
0.496685
0.477626
0.470735
0.475577
0.488679
0.500149
0.516317
0.5336
0.617789
4.98278
1.15648
0.30078
0.125593
0.307352
0.336115
0.335353
0.348152
0.371794
0.382537
0.386295
0.40521
0.42466
0.427283
0.419131
0.396007
0.358018
0.320983
0.293317
0.274341
0.25669
0.23577
0.207812
0.134647
0.0592648
4.96318
1.17331
0.31019
0.123081
0.307892
0.337526
0.337273
0.349369
0.371637
0.382118
0.386347
0.405789
0.42586
0.429171
0.421663
0.399299
0.361785
0.325054
0.297624
0.279243
0.262347
0.241754
0.21379
0.142719
0.0758492
4.90243
1.2101
0.330174
0.120843
0.311398
0.342876
0.343445
0.354705
0.375147
0.385702
0.390441
0.40973
0.430358
0.434218
0.427126
0.405816
0.369139
0.33343
0.307101
0.290402
0.275405
0.255932
0.228862
0.163258
0.108831
4.81018
1.26848
0.359123
0.120037
0.317612
0.351645
0.352018
0.362019
0.380418
0.391071
0.396105
0.414627
0.436264
0.440884
0.434556
0.414961
0.379657
0.345477
0.320939
0.306644
0.294103
0.276251
0.25051
0.19091
0.146013
4.70019
1.34936
0.396308
0.123565
0.326069
0.36328
0.362582
0.370991
0.387226
0.398081
0.403298
0.42059
0.443431
0.449447
0.444084
0.42659
0.392928
0.360707
0.338536
0.3271
0.317308
0.301445
0.277492
0.224088
0.186711
4.56657
1.4542
0.441147
0.134063
0.336527
0.376804
0.375112
0.381469
0.395317
0.406492
0.411728
0.42745
0.451732
0.459644
0.455483
0.440126
0.40889
0.379047
0.359757
0.35141
0.344692
0.331329
0.310194
0.263503
0.232967
4.41699
1.58269
0.493311
0.152097
0.348088
0.391359
0.389296
0.393016
0.404386
0.415965
0.421333
0.43551
0.460983
0.471263
0.468527
0.455398
0.427561
0.40028
0.384208
0.378892
0.375725
0.366009
0.349249
0.310668
0.288244
4.25801
1.72964
0.552094
0.177038
0.359837
0.406071
0.404769
0.405245
0.414266
0.426291
0.432061
0.444654
0.471067
0.484116
0.482917
0.472345
0.448714
0.424155
0.411283
0.409031
0.410442
0.405565
0.395875
0.368287
0.358735
4.08413
1.87803
0.614622
0.208606
0.371096
0.420708
0.420393
0.417589
0.424662
0.437292
0.444017
0.455281
0.482015
0.497814
0.498545
0.490927
0.472067
0.450185
0.440331
0.4413
0.448334
0.450127
0.450963
0.439662
0.455193
3.89327
1.98671
0.671157
0.247099
0.381114
0.434636
0.434948
0.42961
0.435367
0.448955
0.457439
0.467934
0.493376
0.512137
0.515237
0.510517
0.496704
0.477645
0.470754
0.475595
0.488691
0.500157
0.51632
0.533598
0.617785
4.9829
1.15642
0.300762
0.12562
0.307354
0.33611
0.335345
0.348146
0.371791
0.382531
0.386288
0.405207
0.424651
0.427271
0.419117
0.395987
0.357996
0.320963
0.293302
0.27433
0.256681
0.235763
0.207807
0.134646
0.0592697
4.96328
1.17325
0.310172
0.123108
0.307893
0.337524
0.33727
0.349368
0.371641
0.382122
0.386351
0.405794
0.425861
0.429168
0.421657
0.399286
0.361768
0.325037
0.29761
0.279231
0.262336
0.241744
0.213783
0.142712
0.0758505
4.90252
1.21004
0.330156
0.120866
0.311397
0.342875
0.343443
0.354706
0.375152
0.385707
0.390446
0.409735
0.430361
0.434218
0.427122
0.405806
0.369123
0.333414
0.307087
0.290391
0.275395
0.255924
0.228855
0.163249
0.108829
4.81028
1.26841
0.359106
0.120055
0.317611
0.351643
0.352017
0.36202
0.380423
0.391076
0.396109
0.414631
0.436266
0.440883
0.434553
0.414952
0.379644
0.345464
0.320928
0.306634
0.294096
0.276243
0.250503
0.1909
0.14601
4.70028
1.3493
0.396292
0.123577
0.326067
0.363276
0.36258
0.370992
0.38723
0.398084
0.403301
0.420594
0.443433
0.449445
0.44408
0.426582
0.392916
0.360695
0.338526
0.327092
0.317302
0.30144
0.277486
0.22408
0.186707
4.56667
1.45414
0.441132
0.13407
0.336525
0.376801
0.375111
0.38147
0.39532
0.406495
0.41173
0.427453
0.451732
0.459641
0.455479
0.440118
0.408879
0.379036
0.359748
0.351403
0.344687
0.331326
0.31019
0.263495
0.232963
4.41708
1.58263
0.493297
0.152099
0.348086
0.391357
0.389295
0.393018
0.404389
0.415967
0.421334
0.435512
0.460983
0.47126
0.468522
0.455391
0.427552
0.40027
0.3842
0.378886
0.37572
0.366007
0.349245
0.310661
0.288241
4.25809
1.72958
0.552082
0.177037
0.359837
0.40607
0.404769
0.405247
0.414269
0.426293
0.432062
0.444655
0.471067
0.484113
0.482912
0.472338
0.448704
0.424147
0.411276
0.409024
0.410439
0.405561
0.395871
0.368282
0.358732
4.08421
1.87799
0.614612
0.208603
0.371097
0.420707
0.420393
0.417591
0.424666
0.437294
0.444017
0.455281
0.482016
0.497811
0.498541
0.490921
0.47206
0.450177
0.440323
0.441293
0.44833
0.450123
0.450959
0.439659
0.455193
3.89335
1.98669
0.67115
0.247093
0.381116
0.434637
0.434949
0.429613
0.43537
0.448956
0.457438
0.467934
0.493377
0.512136
0.515234
0.510513
0.496698
0.477638
0.470746
0.475587
0.488687
0.500153
0.516316
0.533597
0.617786
4.9831
1.15625
0.300696
0.125674
0.307357
0.336092
0.335323
0.348137
0.371799
0.382544
0.3863
0.405216
0.42466
0.42728
0.419124
0.395991
0.357993
0.320957
0.293295
0.274324
0.256688
0.235776
0.207811
0.13464
0.0592664
4.96346
1.17308
0.310107
0.123158
0.30789
0.337507
0.33725
0.34936
0.371646
0.382131
0.386359
0.405801
0.425869
0.429177
0.421664
0.39929
0.361766
0.325032
0.297603
0.279225
0.262341
0.241755
0.213786
0.142707
0.0758486
4.9027
1.20986
0.330093
0.12091
0.311389
0.342858
0.343428
0.3547
0.375156
0.385715
0.390454
0.409742
0.430369
0.434226
0.427129
0.405811
0.369123
0.333411
0.307083
0.290386
0.275397
0.255931
0.228857
0.163246
0.108829
4.81048
1.26823
0.359047
0.12009
0.317602
0.351626
0.352005
0.362016
0.380424
0.391081
0.396116
0.41463
0.436271
0.440894
0.434562
0.414961
0.379648
0.345464
0.320926
0.306629
0.294095
0.276248
0.250505
0.1909
0.146011
4.70046
1.34912
0.396236
0.123601
0.326057
0.36326
0.362569
0.370988
0.387234
0.398092
0.403308
0.420621
0.44345
0.44945
0.444086
0.426586
0.392919
0.360695
0.338523
0.327086
0.317298
0.301442
0.277488
0.224081
0.18671
4.56685
1.45395
0.44108
0.134084
0.336517
0.376788
0.375101
0.381466
0.395321
0.406495
0.411731
0.427444
0.451735
0.459655
0.455492
0.440129
0.408886
0.379037
0.359745
0.351396
0.344682
0.331326
0.310192
0.263498
0.232966
4.41724
1.58245
0.49325
0.152106
0.348081
0.391348
0.389286
0.393014
0.404386
0.415968
0.421343
0.435502
0.460979
0.471273
0.468535
0.455402
0.42756
0.400272
0.384196
0.378878
0.375714
0.366005
0.349247
0.310665
0.288245
4.25825
1.72942
0.552041
0.177039
0.359835
0.406063
0.404761
0.405243
0.414266
0.42629
0.432062
0.444658
0.471071
0.484118
0.482916
0.472342
0.448704
0.424143
0.411269
0.409016
0.410432
0.405558
0.395873
0.368286
0.358737
4.08437
1.87787
0.614582
0.2086
0.3711
0.420703
0.420388
0.417588
0.424662
0.437288
0.443998
0.455268
0.482022
0.49781
0.498536
0.490918
0.472052
0.450169
0.440313
0.441284
0.448323
0.450119
0.45096
0.439663
0.455197
3.89348
1.98663
0.671132
0.247086
0.381122
0.434636
0.434947
0.429612
0.435368
0.448949
0.457405
0.467915
0.493397
0.512134
0.515223
0.510503
0.496685
0.477626
0.470735
0.475577
0.488679
0.500149
0.516317
0.5336
0.617789
4.98302
1.15624
0.300685
0.125666
0.307359
0.336097
0.335331
0.348147
0.371809
0.382556
0.386313
0.405229
0.424676
0.427299
0.41915
0.396029
0.358037
0.320998
0.293323
0.274338
0.256689
0.235768
0.2078
0.134631
0.0592642
4.96341
1.17306
0.310095
0.123147
0.307889
0.337507
0.337251
0.349359
0.371643
0.382124
0.386353
0.405798
0.425866
0.429181
0.42168
0.399323
0.361809
0.325072
0.29763
0.279238
0.262341
0.241748
0.213776
0.142699
0.0758477
4.90265
1.20984
0.33008
0.120902
0.311389
0.342858
0.343429
0.354698
0.37515
0.385702
0.390443
0.409735
0.430359
0.434226
0.42714
0.40584
0.369158
0.333445
0.307106
0.290395
0.275397
0.255925
0.22885
0.163241
0.10883
4.81044
1.26821
0.359031
0.120082
0.317601
0.351626
0.352007
0.362017
0.380424
0.391075
0.396117
0.414643
0.436281
0.440912
0.434599
0.41501
0.379706
0.345514
0.320956
0.306642
0.294096
0.276245
0.250501
0.190898
0.146014
4.70044
1.34909
0.396217
0.123593
0.326057
0.363261
0.362573
0.370993
0.387242
0.398106
0.403331
0.420651
0.443488
0.449503
0.444156
0.426666
0.393002
0.360761
0.338565
0.327105
0.317304
0.301442
0.277487
0.224082
0.186714
4.56684
1.45392
0.441056
0.134074
0.336515
0.37679
0.375107
0.381478
0.395338
0.406527
0.411774
0.427472
0.451784
0.459742
0.455593
0.440232
0.408976
0.3791
0.359788
0.351417
0.344691
0.331329
0.310194
0.263501
0.232972
4.41725
1.58241
0.493222
0.152094
0.34808
0.391349
0.389292
0.393027
0.404408
0.416005
0.421392
0.435521
0.461016
0.471367
0.468643
0.455518
0.427671
0.400333
0.384233
0.378892
0.375723
0.36601
0.349251
0.31067
0.288253
4.25827
1.72936
0.552009
0.177024
0.359833
0.406064
0.404765
0.405253
0.414283
0.426321
0.4321
0.444664
0.471094
0.484193
0.483007
0.472437
0.448795
0.424194
0.411299
0.409024
0.410438
0.405565
0.395879
0.368293
0.358747
4.08442
1.87782
0.614549
0.208583
0.371097
0.420703
0.420388
0.417593
0.424671
0.437304
0.444015
0.455264
0.482039
0.497864
0.498599
0.49098
0.472106
0.450201
0.440334
0.441292
0.448329
0.450126
0.450967
0.439671
0.45521
3.89355
1.98659
0.671104
0.247066
0.381118
0.434634
0.434944
0.429611
0.435367
0.448951
0.457401
0.467905
0.493416
0.512169
0.515256
0.510534
0.496702
0.477641
0.470745
0.475581
0.488685
0.500156
0.516324
0.533609
0.617804
4.98322
1.1561
0.300634
0.125692
0.307356
0.336073
0.335302
0.34811
0.371767
0.382544
0.386331
0.405259
0.424779
0.427459
0.419336
0.396221
0.358169
0.32107
0.293339
0.274317
0.256667
0.235757
0.207795
0.134628
0.0592644
4.96328
1.17292
0.310046
0.123227
0.307917
0.337556
0.337316
0.349461
0.371788
0.38236
0.386607
0.406008
0.426164
0.429492
0.421942
0.399547
0.361942
0.325142
0.297647
0.279221
0.262322
0.241737
0.21377
0.142697
0.0758491
4.90263
1.2097
0.330026
0.120934
0.3114
0.342889
0.34347
0.354753
0.375221
0.385821
0.390531
0.409776
0.430478
0.434358
0.427262
0.405951
0.36923
0.333481
0.30711
0.290377
0.275374
0.255909
0.22884
0.163238
0.108832
4.81057
1.26807
0.358983
0.120096
0.317598
0.351624
0.352005
0.362013
0.380413
0.391059
0.39607
0.414597
0.436251
0.440883
0.434564
0.414968
0.379666
0.345482
0.320925
0.306609
0.294064
0.276219
0.250486
0.190895
0.146017
4.70055
1.34895
0.396174
0.123601
0.326046
0.363239
0.362544
0.370952
0.387181
0.398002
0.40321
0.420569
0.443374
0.449358
0.444004
0.426509
0.392874
0.360672
0.338499
0.327054
0.31726
0.301408
0.277467
0.224077
0.186717
4.56695
1.45378
0.441017
0.134078
0.336503
0.376766
0.375073
0.381427
0.395262
0.406394
0.411625
0.42739
0.45165
0.459534
0.455372
0.440016
0.408799
0.378988
0.359702
0.351355
0.344638
0.331288
0.310169
0.263494
0.232974
4.41733
1.58228
0.493185
0.152094
0.348069
0.39133
0.389264
0.392983
0.404339
0.415885
0.421254
0.435466
0.460914
0.471151
0.468405
0.455274
0.427447
0.400206
0.384143
0.378832
0.375665
0.365964
0.349223
0.31066
0.288252
4.25835
1.72926
0.551976
0.177023
0.359827
0.40605
0.404744
0.405221
0.414235
0.426237
0.432
0.444643
0.471035
0.484013
0.482794
0.472212
0.448583
0.424073
0.411212
0.408969
0.41038
0.405515
0.395847
0.36828
0.358743
4.08449
1.87774
0.614521
0.208581
0.371094
0.420692
0.420376
0.417575
0.424647
0.437265
0.443963
0.455268
0.482016
0.497732
0.49843
0.490801
0.471935
0.4501
0.440258
0.441237
0.448272
0.450076
0.450933
0.439653
0.455202
3.89361
1.98655
0.671084
0.247063
0.381117
0.434627
0.434938
0.429608
0.435368
0.448948
0.45739
0.467927
0.493416
0.512083
0.515141
0.510409
0.496585
0.477564
0.470686
0.47553
0.488631
0.500106
0.516288
0.533588
0.61779
4.98313
1.15603
0.300679
0.125928
0.307445
0.336139
0.335351
0.348168
0.371836
0.382561
0.386311
0.405232
0.424684
0.427344
0.419252
0.396186
0.358209
0.321154
0.293446
0.274423
0.256742
0.235812
0.207862
0.134741
0.0596537
4.96355
1.17285
0.310088
0.123401
0.307965
0.337548
0.337278
0.349398
0.371703
0.3822
0.386449
0.405893
0.425989
0.429348
0.421889
0.399564
0.362032
0.32526
0.297774
0.279339
0.26241
0.241812
0.213859
0.142825
0.076152
4.90272
1.20962
0.330068
0.12116
0.311463
0.342908
0.343482
0.354778
0.375266
0.385888
0.390656
0.40992
0.430613
0.434508
0.427421
0.406129
0.369407
0.333646
0.307258
0.290499
0.27547
0.255997
0.228936
0.163359
0.109044
4.81049
1.26798
0.359012
0.120327
0.317673
0.35168
0.352067
0.362099
0.380535
0.391255
0.396282
0.414732
0.436466
0.441142
0.434809
0.415235
0.379881
0.345664
0.321081
0.306732
0.294167
0.276317
0.250586
0.191007
0.14618
4.70052
1.34885
0.396192
0.123812
0.326122
0.363305
0.362619
0.371049
0.387308
0.398198
0.403407
0.42067
0.443556
0.449603
0.444254
0.426796
0.393118
0.360865
0.338653
0.327174
0.317366
0.301511
0.277567
0.224179
0.186848
4.56693
1.45368
0.441024
0.134263
0.336576
0.376823
0.375135
0.381501
0.39536
0.406539
0.411767
0.427518
0.451807
0.459706
0.45557
0.440236
0.409021
0.379191
0.359868
0.351485
0.344749
0.331392
0.310265
0.263587
0.233087
4.41733
1.58217
0.49318
0.152253
0.348138
0.391378
0.389311
0.393035
0.404403
0.415972
0.421335
0.435566
0.461037
0.471291
0.468581
0.455476
0.427668
0.400414
0.384313
0.37897
0.375781
0.366068
0.349315
0.310745
0.288351
4.25834
1.72914
0.551958
0.177154
0.359893
0.406094
0.404783
0.405262
0.414278
0.426286
0.432057
0.444704
0.471107
0.484136
0.482957
0.472411
0.448808
0.424271
0.411379
0.409106
0.410496
0.405617
0.395935
0.368359
0.358831
4.08449
1.87764
0.614491
0.208685
0.371158
0.420735
0.420413
0.41761
0.424679
0.437292
0.444021
0.455315
0.48203
0.497828
0.498585
0.490995
0.472166
0.450287
0.440413
0.441363
0.448383
0.450175
0.451014
0.439726
0.455279
3.89363
1.98647
0.671053
0.247144
0.381179
0.434671
0.434975
0.429639
0.43539
0.448965
0.457453
0.467961
0.493381
0.512149
0.515279
0.510584
0.496806
0.477736
0.470825
0.475647
0.488727
0.500195
0.516365
0.533652
0.617857
3.70919
2.07668
0.735765
0.294593
0.39094
0.446555
0.447868
0.440834
0.446609
0.461538
0.472451
0.482146
0.504969
0.526714
0.532898
0.531199
0.522279
0.50611
0.502208
0.511259
0.531425
0.55412
0.590693
0.656971
0.819214
3.5394
2.16908
0.817829
0.35144
0.401459
0.454025
0.45863
0.451711
0.458771
0.475263
0.488927
0.497727
0.517102
0.541039
0.551104
0.552541
0.548251
0.536725
0.534719
0.547169
0.572437
0.607631
0.661387
0.749867
0.91759
3.39525
2.27285
0.911729
0.424216
0.410395
0.454073
0.46853
0.464657
0.473009
0.490956
0.506699
0.514344
0.529575
0.555335
0.569359
0.573428
0.573233
0.566556
0.566305
0.581137
0.610581
0.652656
0.716173
0.803242
0.946602
3.27041
2.35867
1.05317
0.51816
0.411093
0.453817
0.482046
0.481031
0.489839
0.509022
0.525126
0.531824
0.542996
0.568633
0.587277
0.595103
0.599006
0.597696
0.597341
0.612922
0.643668
0.689874
0.754144
0.835217
0.951569
3.1693
2.46961
1.26518
0.62007
0.40722
0.462429
0.499867
0.500173
0.509942
0.528551
0.543416
0.549438
0.557282
0.581373
0.604529
0.616593
0.623622
0.626538
0.626903
0.642137
0.672599
0.717541
0.781637
0.857593
0.955182
3.09743
2.57594
1.55024
0.712586
0.40747
0.479743
0.519035
0.521753
0.532618
0.548474
0.56089
0.566829
0.57199
0.592799
0.620536
0.637736
0.647224
0.654187
0.656801
0.668913
0.697742
0.73907
0.800121
0.872345
0.952186
3.03087
2.61114
1.76337
0.791739
0.432307
0.503534
0.536716
0.544551
0.555708
0.567533
0.577318
0.58347
0.587576
0.604187
0.634796
0.657267
0.670091
0.679949
0.685606
0.693246
0.719093
0.757126
0.812031
0.877716
0.947425
2.95296
2.61632
1.92587
0.89684
0.499088
0.530968
0.551237
0.568047
0.578159
0.585747
0.593185
0.599822
0.604012
0.616557
0.647976
0.675039
0.691909
0.702984
0.712637
0.718324
0.738939
0.773344
0.818489
0.877059
0.941426
2.86836
2.6264
2.07537
1.07045
0.599711
0.551306
0.564914
0.594518
0.60073
0.603298
0.608869
0.615823
0.621049
0.630403
0.658539
0.690226
0.711325
0.724496
0.735957
0.743131
0.756527
0.78601
0.823304
0.872438
0.932952
2.79935
2.66437
2.25142
1.30828
0.715723
0.573506
0.590606
0.62127
0.62307
0.621374
0.624927
0.632295
0.638816
0.645207
0.66705
0.701937
0.727825
0.744413
0.756885
0.768862
0.776104
0.79643
0.828287
0.86829
0.920675
2.78671
2.7442
2.459
1.64492
0.837105
0.59289
0.616762
0.641449
0.644299
0.640071
0.641964
0.649343
0.656787
0.661274
0.675436
0.712438
0.741662
0.761873
0.775942
0.788815
0.796
0.807002
0.833442
0.867759
0.909106
2.85197
2.83995
2.62431
1.95922
0.976709
0.629736
0.645573
0.655536
0.665077
0.660315
0.660354
0.667268
0.674583
0.67842
0.686956
0.716417
0.751651
0.776239
0.793135
0.805646
0.817208
0.822367
0.83817
0.867429
0.902088
2.92487
2.92887
2.76384
2.21734
1.20856
0.722324
0.673456
0.67323
0.687232
0.682494
0.681645
0.686522
0.692574
0.696245
0.700097
0.720689
0.759706
0.788675
0.807248
0.820962
0.832985
0.841245
0.848372
0.867947
0.896691
2.98253
3.00428
2.89117
2.47763
1.5466
0.844724
0.702204
0.700858
0.706554
0.705785
0.704906
0.706728
0.710735
0.714219
0.715133
0.728599
0.764615
0.797533
0.820778
0.835417
0.846206
0.857368
0.862294
0.872157
0.893695
3.02229
3.07297
2.99641
2.70269
1.93409
1.01357
0.735594
0.726997
0.725207
0.733187
0.730882
0.727887
0.7294
0.732656
0.733524
0.738532
0.766838
0.806677
0.833526
0.849299
0.860795
0.870463
0.879659
0.881168
0.892529
3.05489
3.12811
3.07553
2.86406
2.26267
1.24833
0.805488
0.757603
0.755474
0.760506
0.757831
0.75135
0.749846
0.752305
0.753914
0.753291
0.769585
0.811626
0.84378
0.863334
0.873675
0.882519
0.891237
0.898436
0.898681
3.08072
3.17329
3.13891
2.99642
2.56445
1.64823
0.915387
0.796639
0.794181
0.784942
0.783705
0.778157
0.773639
0.773935
0.775752
0.77423
0.777733
0.809705
0.851459
0.876144
0.888363
0.894986
0.901428
0.909175
0.915519
3.10039
3.20745
3.18495
3.09024
2.80142
2.07044
1.10852
0.847696
0.822618
0.81344
0.814007
0.807177
0.800075
0.798348
0.799052
0.797908
0.794077
0.807295
0.853195
0.885942
0.902657
0.910569
0.914281
0.918737
0.92567
3.11528
3.2337
3.2191
3.15695
2.96585
2.42629
1.44543
0.928019
0.85628
0.854015
0.845052
0.836928
0.829702
0.824768
0.823815
0.8226
0.817578
0.817456
0.845763
0.888054
0.913759
0.924692
0.929275
0.932466
0.935884
3.12593
3.25289
3.24365
3.20402
3.08365
2.74146
1.94574
1.07073
0.906194
0.888724
0.875107
0.872798
0.862099
0.855116
0.850665
0.848278
0.843886
0.837319
0.844604
0.884159
0.920066
0.937258
0.943308
0.946192
0.950527
3.13356
3.2668
3.26071
3.23475
3.15754
2.93823
2.34478
1.37075
0.974264
0.921853
0.915804
0.906992
0.8996
0.887073
0.880333
0.875897
0.871323
0.86394
0.858619
0.879645
0.915346
0.944479
0.956959
0.960415
0.962934
3.13886
3.27624
3.27171
3.25472
3.20725
3.07554
2.70505
1.8714
1.08663
0.968508
0.952282
0.940037
0.936579
0.925584
0.913485
0.905339
0.899794
0.892908
0.883579
0.882699
0.913211
0.943379
0.965904
0.974831
0.976952
3.14171
3.28129
3.27734
3.26639
3.23743
3.15789
2.93285
2.32336
1.37535
1.03141
0.986949
0.981231
0.971251
0.966903
0.951491
0.939651
0.930431
0.922629
0.913259
0.902619
0.909382
0.946295
0.969125
0.986565
0.992094
3.14063
3.28212
3.27973
3.27381
3.25666
3.2097
3.07974
2.71262
1.88354
1.13894
1.0348
1.01739
1.00777
1.00228
0.996525
0.978212
0.964969
0.953787
0.94446
0.931686
0.92238
0.940416
0.973034
0.990056
1.00375
3.1372
3.28173
3.28117
3.27756
3.26748
3.2404
3.16597
2.95478
2.37112
1.44733
1.098
1.05533
1.0486
1.03819
1.03483
1.02578
1.00323
0.988094
0.976524
0.964346
0.949486
0.943754
0.970671
0.99788
1.01157
3.13553
3.28097
3.28221
3.28046
3.27483
3.2594
3.21805
3.10283
2.77512
1.99218
1.22914
1.10592
1.08463
1.07803
1.06981
1.06773
1.05414
1.02744
1.01048
0.997665
0.982593
0.96639
0.967513
1.00242
1.02116
3.13468
3.28024
3.28332
3.2824
3.2793
3.27075
3.24789
3.18549
3.0078
2.50022
1.59915
1.17019
1.12685
1.11697
1.10745
1.10305
1.09826
1.0787
1.05078
1.0324
1.01696
0.998233
0.983247
0.995303
1.02621
3.13433
3.27993
3.28405
3.28359
3.28192
3.27729
3.26486
3.23159
3.13857
2.87214
2.17638
1.38085
1.18225
1.15435
1.14899
1.13857
1.13678
1.12761
1.09959
1.07271
1.05356
1.03445
1.01308
1.00067
1.02121
3.13428
3.27981
3.2845
3.28428
3.28342
3.28102
3.27457
3.25728
3.21033
3.0764
2.68605
1.85058
1.26934
1.20096
1.18607
1.17919
1.17163
1.16911
1.15504
1.11966
1.09255
1.0725
1.05014
1.0268
1.0206
3.13433
3.27974
3.28477
3.28468
3.2843
3.28312
3.27984
3.27102
3.24728
3.18127
2.98869
2.43286
1.59035
1.2633
1.22803
1.21907
1.20924
1.20491
1.19946
1.17782
1.14045
1.11225
1.08856
1.06231
1.03938
3.13438
3.2797
3.28497
3.28494
3.28475
3.28417
3.28256
3.27824
3.26653
3.23474
3.14416
2.87971
2.18281
1.45976
1.28414
1.25802
1.2517
1.24092
1.23746
1.22729
1.19594
1.15953
1.13003
1.10168
1.07104
3.13438
3.27973
3.28504
3.28507
3.285
3.28474
3.28399
3.28193
3.2764
3.26138
3.22015
3.10046
2.74387
1.95652
1.38728
1.30854
1.28992
1.28196
1.27362
1.26861
1.25185
1.21214
1.17443
1.14338
1.11035
3.13437
3.27976
3.28504
3.28515
3.28512
3.28501
3.28468
3.28375
3.28123
3.27438
3.25566
3.20312
3.04735
2.57742
1.77506
1.37901
1.33426
1.32232
1.31218
1.30639
1.29708
1.27152
1.22502
1.18646
1.15129
3.13437
3.27977
3.28504
3.28519
3.28518
3.28513
3.285
3.2846
3.2835
3.2805
3.27227
3.24948