/*--------------------------------*- C++ -*----------------------------------*\
| =========                 |                                                 |
| \\      /  F ield         | OpenFOAM: The Open Source CFD Toolbox           |
|  \\    /   O peration     | Version:  4.1                                   |
|   \\  /    A nd           | Web:      www.OpenFOAM.org                      |
|    \\/     M anipulation  |                                                 |
\*---------------------------------------------------------------------------*/
FoamFile
{
    version     2.0;
    format      ascii;
    class       volScalarField;
    location    "0.8";
    object      p;
}
// * * * * * * * * * * * * * * * * * * * * * * * * * * * * * * * * * * * * * //

dimensions      [1 -1 -2 0 0 0 0];

internalField   nonuniform List<scalar> 
52500
(
0.0588944
0.228385
0.877873
0.856591
0.750312
0.724546
0.71325
0.694464
0.661842
0.629887
0.602112
0.582131
0.55635
0.534096
0.51994
0.5078
0.500616
0.493559
0.4848
0.470982
0.455277
0.442994
0.438757
0.437521
0.444931
0.0591411
0.226395
0.870382
0.858448
0.753106
0.726238
0.714672
0.695103
0.662269
0.630367
0.602598
0.582655
0.556886
0.534532
0.520085
0.50779
0.500522
0.493576
0.48479
0.470934
0.455185
0.442978
0.438791
0.438004
0.445756
0.0600046
0.222184
0.851552
0.865861
0.756759
0.728611
0.716788
0.695772
0.662201
0.630178
0.602255
0.582691
0.556993
0.534471
0.519572
0.507031
0.499582
0.492733
0.48381
0.469793
0.453906
0.441828
0.437559
0.437307
0.445478
0.0613489
0.215685
0.820054
0.879267
0.761654
0.732318
0.719619
0.696414
0.66215
0.629948
0.601904
0.583006
0.557526
0.534711
0.519093
0.506049
0.498294
0.491491
0.482272
0.467893
0.451835
0.439948
0.43558
0.436228
0.445105
0.0629655
0.206856
0.77571
0.897403
0.76923
0.736813
0.723003
0.697422
0.662146
0.629556
0.601541
0.583444
0.558466
0.535174
0.518463
0.504855
0.496679
0.489702
0.480053
0.465273
0.44919
0.437427
0.433007
0.434584
0.4442
0.0649963
0.195957
0.717322
0.920793
0.779425
0.742353
0.727007
0.698686
0.662045
0.628872
0.60137
0.583782
0.559588
0.535861
0.517676
0.50392
0.494664
0.487329
0.477052
0.462091
0.445941
0.434009
0.429433
0.431757
0.442224
0.0673598
0.183444
0.64499
0.947521
0.792787
0.749042
0.73151
0.699575
0.661701
0.627995
0.601423
0.584016
0.560763
0.536847
0.517003
0.503346
0.492217
0.484322
0.473256
0.458491
0.442032
0.429548
0.424462
0.426961
0.43814
0.0700049
0.170142
0.561339
0.973325
0.808499
0.757303
0.735952
0.700567
0.661289
0.627226
0.601611
0.584069
0.561695
0.537869
0.516795
0.502712
0.489559
0.48074
0.46875
0.454395
0.437435
0.423852
0.417482
0.419061
0.430011
0.0731973
0.157836
0.475266
0.991851
0.824235
0.767347
0.739981
0.701214
0.660574
0.626705
0.602018
0.584006
0.562396
0.538596
0.516798
0.501672
0.486815
0.476755
0.464006
0.449594
0.432048
0.416818
0.408022
0.406067
0.414235
0.0772837
0.151919
0.420936
0.9916
0.836092
0.775636
0.742342
0.701206
0.659769
0.6266
0.602825
0.583318
0.563556
0.539261
0.516814
0.500404
0.484125
0.472604
0.459528
0.44403
0.425714
0.408337
0.395615
0.385597
0.382997
0.0588886
0.228402
0.877927
0.856546
0.750246
0.724496
0.713207
0.69443
0.661814
0.629859
0.602079
0.582097
0.556328
0.534086
0.519929
0.507798
0.500615
0.493562
0.484807
0.470988
0.455279
0.442993
0.438733
0.437452
0.444841
0.0591426
0.226415
0.870437
0.858399
0.753061
0.726187
0.714631
0.695076
0.662247
0.630334
0.602534
0.582643
0.556879
0.534527
0.520077
0.50779
0.500525
0.493582
0.484798
0.47094
0.455185
0.442974
0.438765
0.437938
0.445669
0.0600043
0.222202
0.851617
0.865798
0.756721
0.728563
0.716746
0.695741
0.662178
0.630144
0.602192
0.582684
0.556985
0.534463
0.519565
0.50703
0.499588
0.49274
0.483819
0.469798
0.453903
0.441818
0.437531
0.437242
0.445395
0.0613447
0.2157
0.820121
0.879199
0.761617
0.732276
0.719583
0.696385
0.662127
0.629927
0.601871
0.583003
0.557516
0.534702
0.519095
0.506054
0.498303
0.491498
0.482279
0.467895
0.45183
0.439933
0.435547
0.436166
0.445026
0.0629615
0.206869
0.775769
0.897342
0.769196
0.736775
0.722969
0.697397
0.662131
0.62955
0.60152
0.58344
0.558447
0.535158
0.518467
0.504855
0.49669
0.48971
0.480057
0.465272
0.449182
0.437409
0.432972
0.434526
0.444126
0.0649921
0.195966
0.717371
0.920736
0.779394
0.742316
0.726976
0.69867
0.662042
0.628881
0.60136
0.583786
0.559573
0.535844
0.517687
0.503909
0.494677
0.487338
0.477055
0.462083
0.445928
0.433987
0.429398
0.431704
0.442157
0.0673564
0.183449
0.645026
0.947472
0.792759
0.749011
0.731484
0.699566
0.661703
0.628004
0.601411
0.584026
0.560753
0.536825
0.517016
0.503315
0.49224
0.484333
0.473265
0.458475
0.442015
0.429525
0.424428
0.426913
0.438081
0.0700012
0.170142
0.561356
0.973284
0.808477
0.757276
0.735928
0.700554
0.661288
0.627227
0.601588
0.584083
0.561692
0.537849
0.51679
0.502691
0.489574
0.480752
0.468759
0.454381
0.437415
0.42383
0.41745
0.419018
0.429963
0.0731937
0.157832
0.475257
0.991817
0.824218
0.767322
0.739957
0.7012
0.660571
0.6267
0.601988
0.584034
0.562376
0.53858
0.516796
0.501652
0.48682
0.476763
0.464004
0.449585
0.43203
0.416797
0.407995
0.406031
0.414196
0.0772812
0.151914
0.420916
0.991564
0.836076
0.775615
0.742323
0.701192
0.659765
0.626595
0.602804
0.583356
0.563514
0.539238
0.516804
0.500395
0.484129
0.47261
0.459519
0.444022
0.425699
0.408319
0.395592
0.38557
0.382968
0.0588911
0.228384
0.877862
0.856566
0.750289
0.724518
0.713223
0.694436
0.661819
0.629872
0.602119
0.582106
0.556336
0.53409
0.519945
0.507812
0.500632
0.493566
0.484806
0.470975
0.45526
0.442976
0.43873
0.437478
0.444881
0.0591396
0.226395
0.870369
0.858423
0.753087
0.726209
0.714645
0.695079
0.662249
0.630351
0.602591
0.582636
0.556877
0.534529
0.520089
0.507801
0.500537
0.493584
0.484796
0.470927
0.455167
0.44296
0.438763
0.437964
0.445709
0.0600031
0.222183
0.851539
0.865834
0.756741
0.728583
0.716761
0.695747
0.662182
0.63016
0.602238
0.582677
0.556987
0.53447
0.519577
0.507042
0.499597
0.492743
0.483816
0.469785
0.453887
0.441807
0.437531
0.437269
0.445434
0.0613461
0.215682
0.820037
0.879239
0.761636
0.73229
0.719593
0.696392
0.662132
0.629929
0.601886
0.582999
0.557527
0.534715
0.519104
0.506064
0.498311
0.491504
0.482278
0.467884
0.451815
0.439926
0.435552
0.436193
0.445065
0.0629628
0.206852
0.775686
0.897378
0.769214
0.736785
0.722978
0.697402
0.66213
0.629538
0.601517
0.583435
0.558464
0.535178
0.518472
0.504868
0.496696
0.489713
0.480055
0.465263
0.449169
0.437403
0.432979
0.434552
0.444165
0.0649935
0.19595
0.71729
0.920769
0.77941
0.742326
0.726983
0.698668
0.662033
0.628856
0.601361
0.583768
0.559587
0.53587
0.517682
0.50394
0.494674
0.487338
0.477051
0.462079
0.445919
0.433984
0.429406
0.431729
0.442193
0.0673573
0.183436
0.644949
0.947498
0.792774
0.749018
0.731488
0.699561
0.661691
0.62798
0.601412
0.583999
0.560761
0.536853
0.517011
0.503355
0.492229
0.484329
0.473253
0.458477
0.44201
0.429523
0.424436
0.426936
0.438115
0.0700023
0.170132
0.561288
0.9733
0.808486
0.757282
0.735932
0.700552
0.661278
0.62721
0.601594
0.584058
0.561696
0.537874
0.516799
0.502718
0.489569
0.480747
0.468749
0.45438
0.437413
0.423829
0.417457
0.419039
0.429993
0.0731952
0.157825
0.47521
0.99182
0.824222
0.767326
0.739961
0.701199
0.660563
0.626689
0.601997
0.584008
0.562391
0.538597
0.516803
0.501672
0.486821
0.476759
0.464
0.449581
0.432028
0.416796
0.408
0.406049
0.41422
0.0772825
0.151911
0.420899
0.991558
0.836076
0.775615
0.742324
0.701192
0.659758
0.626584
0.602808
0.583332
0.563538
0.539254
0.516813
0.500405
0.48413
0.472608
0.45952
0.444018
0.425697
0.408318
0.395595
0.385581
0.382986
0.0588896
0.228381
0.877847
0.856556
0.750284
0.724513
0.713218
0.694433
0.661818
0.629872
0.60212
0.582108
0.556342
0.534101
0.51996
0.507829
0.500648
0.493575
0.484809
0.470968
0.455246
0.442963
0.438712
0.437452
0.444851
0.0591386
0.226392
0.870354
0.858414
0.753084
0.726204
0.714641
0.695077
0.662249
0.630352
0.60259
0.582641
0.556884
0.53454
0.520104
0.507818
0.500554
0.493594
0.484799
0.470919
0.455154
0.442946
0.438746
0.437938
0.44568
0.0600021
0.222179
0.851523
0.865827
0.756737
0.728578
0.716757
0.695745
0.662182
0.63016
0.602236
0.582683
0.556994
0.534481
0.519592
0.507059
0.499614
0.492754
0.483819
0.469778
0.453874
0.441794
0.437515
0.437245
0.445407
0.0613453
0.215678
0.82002
0.879233
0.761633
0.732286
0.71959
0.69639
0.662132
0.62993
0.601889
0.583007
0.557535
0.534726
0.519119
0.506081
0.498328
0.491514
0.482281
0.467877
0.451803
0.439913
0.435536
0.436171
0.445039
0.0629621
0.206848
0.775666
0.897374
0.769212
0.736782
0.722975
0.6974
0.662131
0.629542
0.601521
0.583444
0.558471
0.535187
0.518486
0.504883
0.496711
0.489725
0.480059
0.465258
0.44916
0.437392
0.432965
0.434533
0.444141
0.0649931
0.195946
0.717266
0.920767
0.779409
0.742323
0.72698
0.698668
0.662036
0.628865
0.601361
0.583782
0.559593
0.535875
0.517701
0.503946
0.494692
0.487351
0.477056
0.462074
0.44591
0.433973
0.429392
0.431712
0.442173
0.0673572
0.18343
0.644919
0.947498
0.792775
0.749017
0.731486
0.699562
0.661695
0.627989
0.601412
0.584015
0.560767
0.536854
0.517031
0.503356
0.492252
0.484344
0.473263
0.458471
0.442002
0.429513
0.424424
0.426922
0.438099
0.0700027
0.170126
0.561254
0.973303
0.808492
0.757285
0.735932
0.700553
0.661282
0.627218
0.601592
0.584071
0.5617
0.537875
0.516813
0.502724
0.489587
0.480761
0.468759
0.454378
0.437407
0.42382
0.417447
0.419028
0.429981
0.073196
0.15782
0.475176
0.991823
0.82423
0.767331
0.739962
0.7012
0.660566
0.626695
0.601996
0.584017
0.56239
0.538602
0.516817
0.501681
0.486836
0.476772
0.464007
0.44958
0.432022
0.416788
0.407992
0.406041
0.414213
0.0772839
0.151909
0.420883
0.991555
0.836084
0.775621
0.742325
0.701192
0.659761
0.62659
0.602808
0.583333
0.563537
0.539259
0.516826
0.500417
0.484144
0.472619
0.459528
0.444017
0.425692
0.408311
0.395588
0.385575
0.382983
0.0588937
0.228352
0.877741
0.856572
0.750327
0.724539
0.71324
0.694444
0.661821
0.629875
0.602123
0.582115
0.556348
0.534106
0.519962
0.507829
0.500646
0.493571
0.484799
0.470956
0.455235
0.44295
0.43871
0.437466
0.444872
0.059142
0.226362
0.870238
0.85845
0.753118
0.726228
0.714663
0.695088
0.662252
0.630355
0.602593
0.582646
0.55689
0.534544
0.520106
0.507818
0.500551
0.493589
0.484789
0.470908
0.455143
0.442935
0.438744
0.437951
0.4457
0.0600055
0.22215
0.851393
0.865888
0.756759
0.728604
0.716779
0.695754
0.662185
0.630162
0.60224
0.582689
0.556999
0.534485
0.519593
0.507057
0.49961
0.492748
0.48381
0.469768
0.453865
0.441786
0.437513
0.437257
0.445426
0.0613493
0.21565
0.819885
0.879296
0.761658
0.73231
0.71961
0.6964
0.662137
0.629933
0.60189
0.58301
0.557538
0.534728
0.519117
0.506076
0.498321
0.491507
0.482272
0.467868
0.451797
0.439908
0.435536
0.436182
0.445056
0.062966
0.20682
0.775527
0.897439
0.76924
0.736804
0.722994
0.697411
0.662136
0.629545
0.601531
0.583445
0.558473
0.535189
0.518483
0.504878
0.496702
0.489717
0.48005
0.46525
0.449156
0.437389
0.432966
0.434542
0.444156
0.0649972
0.19592
0.717124
0.920834
0.779439
0.742346
0.726999
0.698677
0.662039
0.628866
0.601357
0.583785
0.559595
0.535873
0.517698
0.503938
0.494684
0.487343
0.477049
0.462069
0.445908
0.433973
0.429394
0.43172
0.442186
0.0673611
0.183407
0.644782
0.94756
0.792808
0.749039
0.731503
0.699568
0.661697
0.62799
0.601409
0.584022
0.560768
0.536854
0.517029
0.503349
0.492244
0.484337
0.473258
0.458468
0.442002
0.429514
0.424426
0.426929
0.438109
0.0700068
0.170107
0.561131
0.973354
0.808524
0.757309
0.735947
0.700558
0.661282
0.62722
0.601595
0.584073
0.561699
0.537873
0.516811
0.502719
0.48958
0.480755
0.468755
0.454377
0.437407
0.423821
0.417449
0.419033
0.429989
0.0732008
0.15781
0.475088
0.991856
0.824258
0.767353
0.739973
0.701203
0.660566
0.626697
0.602004
0.584009
0.562391
0.5386
0.516814
0.501678
0.48683
0.476767
0.464005
0.44958
0.432023
0.416789
0.407993
0.406046
0.414219
0.0772888
0.151908
0.420857
0.991572
0.836108
0.77564
0.742333
0.701194
0.65976
0.626592
0.602814
0.583314
0.563548
0.539263
0.516826
0.500413
0.484139
0.472615
0.459526
0.444017
0.425692
0.408311
0.395589
0.385578
0.382989
0.058892
0.228359
0.877765
0.856564
0.750313
0.724529
0.713232
0.694439
0.661819
0.629875
0.602125
0.582113
0.556348
0.534107
0.519966
0.507834
0.500652
0.493576
0.484805
0.47096
0.455236
0.442951
0.438709
0.437462
0.444867
0.0591407
0.226369
0.870264
0.858436
0.753106
0.726219
0.714654
0.695083
0.662251
0.630354
0.602595
0.582645
0.55689
0.534546
0.520109
0.507822
0.500557
0.493594
0.484795
0.470912
0.455144
0.442936
0.438743
0.437947
0.445695
0.0600042
0.222157
0.851424
0.865867
0.756751
0.728594
0.71677
0.69575
0.662183
0.630162
0.60224
0.582688
0.557
0.534487
0.519596
0.507061
0.499615
0.492753
0.483815
0.469771
0.453867
0.441786
0.437512
0.437253
0.445421
0.0613478
0.215657
0.819917
0.879275
0.761649
0.7323
0.719602
0.696396
0.662135
0.629932
0.60189
0.58301
0.557538
0.53473
0.51912
0.50608
0.498326
0.491512
0.482277
0.467872
0.451798
0.439908
0.435535
0.436179
0.445052
0.0629645
0.206827
0.775561
0.897418
0.769231
0.736795
0.722987
0.697407
0.662134
0.629545
0.60153
0.583445
0.558473
0.53519
0.518486
0.504882
0.496708
0.489722
0.480055
0.465254
0.449158
0.43739
0.432965
0.434539
0.444153
0.0649957
0.195926
0.71716
0.920813
0.779429
0.742337
0.726992
0.698673
0.662038
0.628866
0.601356
0.583785
0.559594
0.535874
0.517701
0.503941
0.494689
0.487348
0.477054
0.462073
0.44591
0.433973
0.429394
0.431718
0.442183
0.0673596
0.183413
0.644817
0.94754
0.792797
0.749031
0.731496
0.699565
0.661696
0.62799
0.601408
0.584022
0.560767
0.536855
0.517031
0.503352
0.492249
0.484341
0.473263
0.458471
0.442004
0.429514
0.424426
0.426927
0.438107
0.0700053
0.170112
0.561163
0.973337
0.808513
0.7573
0.735941
0.700556
0.661282
0.627219
0.601594
0.584073
0.561698
0.537873
0.516812
0.502721
0.489584
0.48076
0.468759
0.45438
0.43741
0.423822
0.417449
0.419032
0.429988
0.0731991
0.157812
0.475112
0.991845
0.824249
0.767345
0.739969
0.701201
0.660565
0.626697
0.602002
0.584009
0.562391
0.538601
0.516816
0.50168
0.486834
0.476771
0.464009
0.449583
0.432026
0.41679
0.407993
0.406045
0.414218
0.077287
0.151908
0.420864
0.991565
0.836099
0.775633
0.74233
0.701193
0.65976
0.626592
0.602812
0.583315
0.563547
0.539263
0.516827
0.500415
0.484142
0.472619
0.45953
0.44402
0.425695
0.408313
0.39559
0.385578
0.382988
0.0588896
0.228381
0.877848
0.856556
0.750284
0.724512
0.713218
0.694433
0.661818
0.629872
0.60212
0.582108
0.556342
0.534101
0.51996
0.507829
0.500648
0.493575
0.484809
0.470968
0.455246
0.442963
0.438712
0.437452
0.44485
0.0591386
0.226392
0.870355
0.858413
0.753084
0.726204
0.714641
0.695077
0.662249
0.630352
0.60259
0.582641
0.556885
0.53454
0.520104
0.507818
0.500554
0.493594
0.484799
0.470919
0.455154
0.442946
0.438746
0.437938
0.44568
0.0600021
0.222179
0.851523
0.865826
0.756737
0.728578
0.716757
0.695745
0.662182
0.63016
0.602236
0.582683
0.556994
0.534482
0.519592
0.507059
0.499614
0.492754
0.483819
0.469778
0.453874
0.441794
0.437515
0.437244
0.445407
0.0613452
0.215679
0.82002
0.879233
0.761633
0.732286
0.719589
0.69639
0.662132
0.62993
0.601889
0.583007
0.557535
0.534726
0.519119
0.506081
0.498328
0.491514
0.482281
0.467877
0.451803
0.439913
0.435536
0.436171
0.445039
0.0629621
0.206848
0.775667
0.897373
0.769212
0.736781
0.722975
0.6974
0.662131
0.629542
0.601521
0.583444
0.558471
0.535187
0.518486
0.504883
0.496711
0.489725
0.480059
0.465258
0.44916
0.437392
0.432965
0.434533
0.444141
0.0649931
0.195946
0.717266
0.920767
0.779409
0.742323
0.72698
0.698668
0.662036
0.628865
0.601361
0.583782
0.559593
0.535875
0.517701
0.503946
0.494692
0.487351
0.477056
0.462074
0.44591
0.433973
0.429392
0.431712
0.442173
0.0673572
0.18343
0.64492
0.947498
0.792775
0.749017
0.731486
0.699561
0.661695
0.627989
0.601412
0.584015
0.560767
0.536854
0.517031
0.503356
0.492252
0.484344
0.473264
0.458471
0.442002
0.429513
0.424424
0.426922
0.438099
0.0700027
0.170126
0.561255
0.973303
0.808491
0.757284
0.735932
0.700553
0.661282
0.627218
0.601592
0.584071
0.5617
0.537875
0.516813
0.502725
0.489587
0.480761
0.468759
0.454378
0.437407
0.42382
0.417447
0.419028
0.429981
0.073196
0.15782
0.475176
0.991822
0.82423
0.767331
0.739962
0.7012
0.660566
0.626695
0.601996
0.584017
0.56239
0.538602
0.516817
0.501681
0.486836
0.476772
0.464007
0.44958
0.432022
0.416788
0.407992
0.406041
0.414213
0.0772838
0.151909
0.420883
0.991555
0.836083
0.775621
0.742325
0.701192
0.659761
0.62659
0.602808
0.583333
0.563537
0.539259
0.516826
0.500417
0.484144
0.472619
0.459528
0.444017
0.425692
0.408311
0.395588
0.385575
0.382983
0.0588911
0.228384
0.877862
0.856566
0.750289
0.724518
0.713223
0.694436
0.661819
0.629872
0.602119
0.582106
0.556336
0.53409
0.519945
0.507812
0.500632
0.493566
0.484806
0.470975
0.45526
0.442976
0.43873
0.437478
0.444881
0.0591396
0.226395
0.870369
0.858423
0.753087
0.726209
0.714645
0.695079
0.662249
0.630351
0.602591
0.582636
0.556877
0.534529
0.520089
0.507801
0.500537
0.493584
0.484796
0.470927
0.455167
0.44296
0.438763
0.437964
0.445709
0.0600031
0.222183
0.851539
0.865834
0.756741
0.728583
0.716761
0.695747
0.662182
0.63016
0.602238
0.582677
0.556987
0.53447
0.519577
0.507042
0.499597
0.492743
0.483816
0.469785
0.453887
0.441807
0.437531
0.437269
0.445434
0.0613461
0.215682
0.820037
0.879239
0.761636
0.73229
0.719593
0.696392
0.662132
0.629929
0.601886
0.582999
0.557527
0.534715
0.519104
0.506064
0.498311
0.491504
0.482278
0.467884
0.451815
0.439926
0.435552
0.436193
0.445065
0.0629628
0.206852
0.775686
0.897378
0.769214
0.736785
0.722978
0.697402
0.66213
0.629538
0.601517
0.583435
0.558464
0.535178
0.518472
0.504868
0.496696
0.489713
0.480055
0.465263
0.449169
0.437403
0.432979
0.434552
0.444165
0.0649935
0.19595
0.71729
0.920769
0.77941
0.742326
0.726983
0.698668
0.662033
0.628856
0.601361
0.583768
0.559587
0.53587
0.517682
0.50394
0.494674
0.487338
0.477051
0.462079
0.445919
0.433984
0.429406
0.431729
0.442193
0.0673573
0.183436
0.644949
0.947497
0.792774
0.749018
0.731488
0.699561
0.661691
0.62798
0.601412
0.583999
0.560761
0.536853
0.517011
0.503355
0.492229
0.484329
0.473253
0.458478
0.44201
0.429523
0.424436
0.426936
0.438115
0.0700023
0.170132
0.561288
0.9733
0.808486
0.757282
0.735932
0.700552
0.661278
0.62721
0.601594
0.584058
0.561696
0.537874
0.516799
0.502718
0.489569
0.480747
0.468749
0.45438
0.437413
0.423829
0.417457
0.419039
0.429993
0.0731952
0.157825
0.47521
0.99182
0.824222
0.767326
0.739961
0.701199
0.660563
0.626689
0.601997
0.584008
0.562391
0.538597
0.516803
0.501672
0.486821
0.476759
0.464
0.449581
0.432028
0.416796
0.408
0.406049
0.41422
0.0772825
0.151911
0.420899
0.991558
0.836076
0.775615
0.742324
0.701192
0.659758
0.626584
0.602808
0.583332
0.563538
0.539254
0.516813
0.500405
0.48413
0.472608
0.45952
0.444018
0.425697
0.408318
0.395595
0.385581
0.382986
0.0588886
0.228402
0.877927
0.856546
0.750245
0.724495
0.713207
0.69443
0.661814
0.629858
0.602079
0.582097
0.556328
0.534086
0.519929
0.507797
0.500615
0.493562
0.484807
0.470989
0.455279
0.442993
0.438733
0.437453
0.444841
0.0591426
0.226415
0.870437
0.858398
0.753061
0.726187
0.714631
0.695076
0.662247
0.630334
0.602534
0.582643
0.556879
0.534527
0.520076
0.50779
0.500525
0.493582
0.484798
0.470941
0.455186
0.442975
0.438766
0.437938
0.445669
0.0600043
0.222203
0.851618
0.865797
0.756721
0.728563
0.716746
0.69574
0.662178
0.630144
0.602192
0.582684
0.556985
0.534463
0.519565
0.50703
0.499587
0.492739
0.483819
0.469798
0.453903
0.441818
0.437531
0.437242
0.445395
0.0613447
0.2157
0.820121
0.879199
0.761616
0.732276
0.719583
0.696384
0.662127
0.629927
0.601871
0.583003
0.557516
0.534702
0.519095
0.506054
0.498302
0.491498
0.482279
0.467895
0.45183
0.439933
0.435548
0.436167
0.445026
0.0629615
0.206869
0.775769
0.897341
0.769196
0.736775
0.722969
0.697397
0.662131
0.62955
0.60152
0.58344
0.558446
0.535158
0.518466
0.504855
0.49669
0.48971
0.480057
0.465272
0.449183
0.437409
0.432973
0.434526
0.444127
0.0649921
0.195966
0.717371
0.920736
0.779394
0.742316
0.726976
0.69867
0.662042
0.628881
0.60136
0.583786
0.559572
0.535844
0.517687
0.503909
0.494677
0.487338
0.477055
0.462083
0.445928
0.433987
0.429398
0.431704
0.442157
0.0673564
0.183449
0.645026
0.947472
0.792759
0.749011
0.731484
0.699566
0.661703
0.628004
0.601411
0.584026
0.560753
0.536825
0.517015
0.503315
0.49224
0.484333
0.473265
0.458475
0.442015
0.429525
0.424428
0.426914
0.438081
0.0700012
0.170142
0.561356
0.973284
0.808477
0.757276
0.735927
0.700554
0.661288
0.627227
0.601588
0.584083
0.561692
0.537849
0.51679
0.502691
0.489573
0.480752
0.468759
0.454381
0.437416
0.42383
0.41745
0.419019
0.429963
0.0731937
0.157832
0.475256
0.991817
0.824218
0.767322
0.739957
0.7012
0.660571
0.6267
0.601988
0.584034
0.562376
0.53858
0.516795
0.501651
0.48682
0.476763
0.464003
0.449585
0.43203
0.416797
0.407995
0.406032
0.414196
0.0772812
0.151913
0.420916
0.991564
0.836076
0.775615
0.742323
0.701192
0.659765
0.626595
0.602804
0.583356
0.563514
0.539238
0.516804
0.500395
0.484129
0.47261
0.459519
0.444022
0.425699
0.408319
0.395592
0.38557
0.382968
0.0588907
0.228415
0.877975
0.856558
0.750252
0.724509
0.713224
0.694457
0.661842
0.62989
0.602134
0.5821
0.556325
0.534078
0.519929
0.507787
0.5006
0.493543
0.484792
0.470983
0.455284
0.443
0.438761
0.437524
0.444942
0.0591386
0.226426
0.870494
0.858396
0.75306
0.726204
0.714647
0.695097
0.662269
0.630364
0.602588
0.582635
0.556871
0.534518
0.520069
0.507776
0.500507
0.493564
0.484783
0.470934
0.455191
0.442984
0.438794
0.438008
0.445767
0.0600033
0.222214
0.851676
0.865786
0.756728
0.728579
0.716764
0.695766
0.662201
0.630162
0.602217
0.582686
0.556992
0.534467
0.51956
0.507021
0.499572
0.492726
0.483805
0.469794
0.45391
0.441832
0.437561
0.437311
0.445489
0.0613467
0.215714
0.82018
0.879194
0.761624
0.732292
0.7196
0.696408
0.662146
0.62993
0.601875
0.583019
0.557541
0.534713
0.519086
0.506041
0.498287
0.491486
0.482268
0.467895
0.451838
0.43995
0.435581
0.436231
0.445116
0.0629627
0.206883
0.775836
0.897333
0.7692
0.73679
0.722989
0.697416
0.662145
0.62955
0.601521
0.583448
0.558466
0.535169
0.518451
0.504849
0.496666
0.489695
0.480047
0.465274
0.449194
0.437429
0.433008
0.434586
0.44421
0.0649932
0.19598
0.717443
0.920727
0.779396
0.742333
0.726995
0.698687
0.662054
0.628882
0.60135
0.583794
0.559582
0.535847
0.517682
0.503899
0.494662
0.487326
0.477048
0.462089
0.445943
0.43401
0.429433
0.431759
0.442231
0.067357
0.183463
0.645101
0.947465
0.792759
0.749026
0.731501
0.69958
0.661716
0.628012
0.601405
0.584033
0.560755
0.536825
0.517014
0.503307
0.492225
0.484322
0.473262
0.458483
0.442032
0.429548
0.424462
0.426961
0.438146
0.0700021
0.170156
0.561429
0.973285
0.808478
0.757289
0.735945
0.700569
0.661299
0.62724
0.601594
0.584082
0.561688
0.537848
0.516793
0.502684
0.489556
0.480738
0.468756
0.454391
0.437433
0.423851
0.41748
0.41906
0.430014
0.0731944
0.157843
0.475323
0.991827
0.82422
0.767336
0.739977
0.701215
0.660581
0.626714
0.602009
0.584019
0.562381
0.538583
0.516797
0.501652
0.486807
0.476749
0.464003
0.449591
0.432044
0.416815
0.40802
0.406066
0.414236
0.077281
0.15192
0.420951
0.991588
0.83608
0.77563
0.742342
0.701207
0.659775
0.626608
0.602821
0.583322
0.563538
0.539246
0.516809
0.500388
0.484117
0.472596
0.459525
0.444023
0.425708
0.408333
0.395612
0.385595
0.382996
0.0815575
0.148804
0.388893
0.977721
0.846927
0.781046
0.742391
0.699924
0.65917
0.627036
0.604091
0.583173
0.56494
0.540045
0.516763
0.498642
0.481578
0.468525
0.454884
0.438
0.418681
0.398507
0.379535
0.354723
0.300823
0.0856333
0.145511
0.35894
0.943714
0.853813
0.785998
0.739049
0.697174
0.658975
0.629095
0.606414
0.584071
0.565944
0.540877
0.516847
0.49649
0.480012
0.46408
0.449821
0.431672
0.411762
0.388424
0.362983
0.328976
0.271456
0.0890247
0.140703
0.331283
0.903051
0.867193
0.787503
0.732968
0.694604
0.659938
0.633592
0.610115
0.586159
0.565895
0.540754
0.516564
0.495026
0.478231
0.459984
0.444851
0.425961
0.405376
0.379891
0.351122
0.314777
0.268226
0.0919849
0.135395
0.305313
0.848827
0.874066
0.794288
0.728973
0.692894
0.664262
0.63953
0.614652
0.588613
0.565592
0.540483
0.515937
0.493854
0.476125
0.456729
0.44039
0.421402
0.399748
0.373744
0.344309
0.309725
0.268986
0.0939817
0.127448
0.266682
0.754547
0.894895
0.799877
0.726214
0.691832
0.670632
0.645874
0.618644
0.590455
0.564409
0.54079
0.515967
0.493605
0.474095
0.454646
0.436744
0.417678
0.395397
0.370053
0.341241
0.309429
0.271734
0.0950913
0.118455
0.216717
0.55793
0.922297
0.812631
0.729813
0.697116
0.678052
0.651258
0.621397
0.591654
0.563698
0.540975
0.516272
0.493666
0.472661
0.454014
0.433158
0.414417
0.392293
0.367813
0.341001
0.310155
0.27753
0.0966451
0.114009
0.186925
0.418031
0.91501
0.821236
0.745642
0.71229
0.685958
0.655147
0.622821
0.592566
0.564157
0.541695
0.517451
0.494065
0.472677
0.453393
0.431653
0.412155
0.390731
0.366685
0.341311
0.312335
0.28389
0.0988116
0.112001
0.171569
0.360288
0.876467
0.83294
0.761625
0.72529
0.692177
0.657594
0.623542
0.593191
0.565431
0.542763
0.519721
0.495997
0.473417
0.453029
0.432083
0.410763
0.390195
0.366859
0.34231
0.316928
0.290387
0.101157
0.110561
0.158221
0.318518
0.802841
0.839506
0.790669
0.737444
0.696177
0.659113
0.624387
0.59438
0.567781
0.543831
0.52412
0.499733
0.475557
0.453542
0.432962
0.411034
0.390363
0.36785
0.344709
0.32166
0.296888
0.102606
0.108074
0.14384
0.274701
0.706432
0.8662
0.812434
0.744413
0.698423
0.659846
0.62605
0.597208
0.571685
0.547079
0.528059
0.503831
0.479024
0.455517
0.434347
0.412497
0.390995
0.370159
0.348268
0.325828
0.303539
0.101722
0.103489
0.126062
0.215418
0.522779
0.881625
0.823184
0.747635
0.699703
0.660147
0.628208
0.601189
0.576243
0.552488
0.53167
0.508355
0.483904
0.460034
0.437446
0.415602
0.39314
0.372964
0.352095
0.330715
0.309414
0.0988407
0.0964363
0.110997
0.171889
0.370408
0.855352
0.822648
0.753252
0.701153
0.660793
0.631854
0.606296
0.581642
0.557958
0.534343
0.514529
0.489957
0.465316
0.441975
0.419804
0.397994
0.375809
0.356057
0.335633
0.315268
0.0963817
0.088977
0.0993405
0.14288
0.295659
0.767767
0.811266
0.766773
0.70362
0.663502
0.637624
0.612428
0.587798
0.563515
0.539331
0.519875
0.4961
0.471802
0.448065
0.424776
0.403316
0.380603
0.360577
0.341112
0.321673
0.0946017
0.0825632
0.0896382
0.119501
0.227903
0.596854
0.81479
0.778871
0.710511
0.672871
0.645366
0.619187
0.593955
0.569409
0.545282
0.524904
0.502665
0.479042
0.454497
0.430943
0.408495
0.387438
0.365469
0.346579
0.328101
0.0934976
0.0773942
0.0820975
0.101455
0.169667
0.385517
0.808635
0.786298
0.73106
0.686977
0.653871
0.625886
0.600062
0.575716
0.551559
0.528891
0.510374
0.486583
0.462164
0.438399
0.415026
0.393793
0.372774
0.3522
0.334465
0.0925919
0.0734672
0.0766993
0.0897627
0.135347
0.290702
0.737406
0.779133
0.752946
0.704263
0.663361
0.632797
0.606342
0.582053
0.558433
0.534939
0.516411
0.493882
0.470246
0.446152
0.422845
0.400703
0.379956
0.359752
0.34107
0.0918933
0.0702837
0.0724285
0.0809586
0.109993
0.213146
0.563422
0.779129
0.760623
0.718534
0.673157
0.6397
0.612828
0.58865
0.565591
0.541946
0.520087
0.502296
0.478597
0.454533
0.431547
0.408998
0.387665
0.367766
0.348856
0.0913601
0.0679403
0.0693621
0.0748997
0.0930121
0.154411
0.350778
0.761233
0.760386
0.73638
0.686713
0.648822
0.620677
0.595922
0.572658
0.549315
0.526367
0.508319
0.486477
0.463372
0.440263
0.418018
0.396439
0.376412
0.357387
0.0909635
0.0661472
0.067084
0.0707202
0.0823108
0.120365
0.253128
0.657795
0.758512
0.743631
0.701502
0.659759
0.629011
0.60329
0.579581
0.556583
0.533503
0.512307
0.495325
0.472576
0.449647
0.427385
0.406099
0.385748
0.366722
0.0906822
0.0648497
0.065445
0.0677575
0.0748443
0.096607
0.170111
0.412181
0.746453
0.743158
0.72044
0.674242
0.639629
0.611697
0.586926
0.563623
0.540972
0.519173
0.500929
0.48164
0.459302
0.43746
0.416257
0.395995
0.37671
0.0904837
0.0639198
0.0642946
0.0657927
0.0702987
0.0837716
0.12744
0.27496
0.666785
0.738556
0.725346
0.690995
0.650525
0.620005
0.59427
0.570881
0.548697
0.526787
0.506185
0.490478
0.469322
0.447912
0.426917
0.406777
0.387607
0.0903492
0.0632856
0.0635073
0.0644338
0.0671828
0.0750817
0.0991391
0.181765
0.454796
0.722158
0.723557
0.706788
0.667513
0.631659
0.603045
0.578576
0.55615
0.535008
0.514156
0.495542
0.479459
0.458769
0.438102
0.417964
0.398955
0.0902912
0.0628798
0.0630035
0.0635717
0.0652869
0.0700714
0.0841295
0.129838
0.281861
0.649514
0.719489
0.71026
0.682635
0.643484
0.612769
0.587278
0.564301
0.543341
0.522851
0.502895
0.487801
0.468645
0.449242
0.429805
0.410984
0.0903558
0.062672
0.0627301
0.0630694
0.0640928
0.0669072
0.0747938
0.0987749
0.181205
0.447399
0.700654
0.708671
0.695091
0.661412
0.625146
0.596624
0.572856
0.551768
0.531881
0.511902
0.493983
0.479649
0.460758
0.44209
0.42345
0.0904554
0.0627167
0.0625847
0.0627463
0.0633182
0.0649562
0.0694833
0.0827717
0.126101
0.270463
0.618363
0.702765
0.695933
0.675408
0.641307
0.609065
0.583148
0.560711
0.540938
0.521509
0.503296
0.486634
0.472635
0.454386
0.436461
0.0904892
0.062857
0.0623886
0.0624806
0.0628109
0.0637515
0.0662986
0.0733952
0.0947605
0.167122
0.396018
0.674554
0.692942
0.682587
0.658484
0.62246
0.593695
0.570512
0.550192
0.531223
0.513209
0.495698
0.482735
0.466072
0.449202
0.0905034
0.0629506
0.0622595
0.06231
0.0624946
0.0630202
0.0644494
0.0683134
0.0795299
0.115625
0.23835
0.567272
0.681114
0.680415
0.669249
0.642389
0.608272
0.581378
0.560398
0.541408
0.523684
0.506372
0.490973
0.478992
0.462545
0.0905069
0.0630004
0.0621825
0.062209
0.062309
0.0625981
0.0633811
0.0654829
0.0712796
0.0885824
0.145714
0.315589
0.632194
0.675333
0.670154
0.655432
0.625794
0.596611
0.571408
0.552368
0.534882
0.517883
0.502243
0.487906
0.476559
0.0905042
0.0630244
0.0621379
0.0621509
0.0622028
0.0623553
0.0627684
0.0638724
0.0668311
0.075279
0.101672
0.1911
0.46168
0.651328
0.667105
0.660125
0.641973
0.612267
0.585577
0.56386
0.546165
0.529625
0.514387
0.499291
0.488774
0.0905005
0.0630352
0.0621125
0.062118
0.0621434
0.0622201
0.062432
0.0629973
0.0645204
0.0686851
0.0811044
0.122019
0.25392
0.558371
0.654091
0.657766
0.649969
0.630635
0.601858
0.577119
0.558459
0.541819
0.5268
0.512042
0.499026
0.0904992
0.0630365
0.0620996
0.0621018