/*--------------------------------*- C++ -*----------------------------------*\
| =========                 |                                                 |
| \\      /  F ield         | OpenFOAM: The Open Source CFD Toolbox           |
|  \\    /   O peration     | Version:  4.1                                   |
|   \\  /    A nd           | Web:      www.OpenFOAM.org                      |
|    \\/     M anipulation  |                                                 |
\*---------------------------------------------------------------------------*/
FoamFile
{
    version     2.0;
    format      ascii;
    class       volScalarField;
    location    "0.8";
    object      T;
}
// * * * * * * * * * * * * * * * * * * * * * * * * * * * * * * * * * * * * * //

dimensions      [0 0 0 1 0 0 0];

internalField   nonuniform List<scalar> 
52500
(
0.165058
0.841718
1.04957
1.05689
1.13941
1.21666
1.25239
1.26076
1.26069
1.25563
1.21894
1.11075
1.02817
1.00244
1.00659
1.03948
1.08067
1.08756
1.07163
1.05355
1.04461
1.03747
1.02602
1.01218
0.963153
0.166137
0.837222
1.04778
1.05607
1.14148
1.21781
1.25312
1.26087
1.26041
1.25521
1.21839
1.11018
1.02769
1.0016
1.00531
1.03739
1.07906
1.08668
1.07101
1.05251
1.04335
1.03625
1.02483
1.01125
0.962191
0.169584
0.827627
1.04241
1.05485
1.14269
1.21733
1.25413
1.26144
1.26029
1.25513
1.21978
1.11284
1.02843
1.0002
1.0028
1.03283
1.07614
1.08562
1.07086
1.05173
1.0422
1.03539
1.02388
1.01093
0.961446
0.175014
0.811822
1.03295
1.05372
1.14306
1.21492
1.25417
1.26115
1.25947
1.255
1.22416
1.12082
1.03148
0.99972
1.00084
1.02813
1.07278
1.08457
1.07086
1.05066
1.04055
1.03401
1.02288
1.01076
0.961606
0.181798
0.789366
1.01844
1.05347
1.14366
1.21008
1.25348
1.26029
1.25792
1.25397
1.22785
1.1303
1.03587
0.998961
0.997899
1.02102
1.06752
1.08259
1.07058
1.04935
1.03863
1.03218
1.02157
1.0108
0.96176
0.190548
0.759328
0.99779
1.05491
1.14257
1.20425
1.2528
1.25941
1.25537
1.25191
1.23152
1.14218
1.04151
0.998162
0.994152
1.01344
1.06067
1.07969
1.06983
1.0478
1.03608
1.02979
1.01937
1.01035
0.961604
0.20106
0.721768
0.969368
1.05725
1.14069
1.1977
1.25183
1.25826
1.25283
1.24967
1.23441
1.15437
1.04833
0.997725
0.989856
1.00511
1.05108
1.0751
1.06802
1.04639
1.03371
1.02636
1.01678
1.0091
0.960003
0.213149
0.678082
0.932292
1.0601
1.13822
1.19102
1.25017
1.25692
1.2501
1.24726
1.23674
1.16791
1.0571
0.998118
0.985438
0.996493
1.03946
1.06885
1.06521
1.04465
1.02945
1.02245
1.0118
1.00571
0.955731
0.227616
0.631699
0.89222
1.06396
1.13463
1.18414
1.24764
1.25508
1.24733
1.24489
1.23846
1.18243
1.06805
0.999878
0.9812
0.98769
1.02511
1.06075
1.06091
1.04314
1.02484
1.01823
1.00671
0.999554
0.945524
0.24527
0.594411
0.878016
1.06776
1.12828
1.17622
1.24328
1.25155
1.24483
1.24301
1.23953
1.19532
1.08237
1.00331
0.977044
0.979526
1.01013
1.051
1.05566
1.04123
1.02135
1.01074
0.997623
0.985351
0.920856
0.165036
0.841756
1.04959
1.05692
1.13942
1.2167
1.2524
1.26076
1.2607
1.25563
1.21883
1.11061
1.02816
1.00246
1.00661
1.03947
1.08066
1.08755
1.07163
1.05356
1.04462
1.03746
1.02598
1.01211
0.963124
0.166139
0.837253
1.04782
1.05606
1.1414
1.21767
1.25301
1.26076
1.26031
1.25518
1.2187
1.11074
1.02793
1.00161
1.00526
1.03723
1.07898
1.08665
1.07101
1.05252
1.04336
1.03625
1.02479
1.01118
0.962159
0.16958
0.82766
1.04245
1.05484
1.14264
1.21721
1.25401
1.26131
1.26018
1.25512
1.22018
1.11348
1.02875
1.00036
1.00292
1.03288
1.07618
1.08564
1.07087
1.05174
1.04221
1.03539
1.02384
1.01086
0.961412
0.174997
0.811858
1.03298
1.05372
1.14305
1.21487
1.2541
1.26106
1.2594
1.25495
1.22425
1.12109
1.03167
0.99991
1.00105
1.02839
1.07294
1.08462
1.07084
1.05064
1.04055
1.03401
1.02285
1.01071
0.961575
0.181783
0.7894
1.01847
1.05347
1.14366
1.21008
1.25346
1.26026
1.25788
1.25394
1.22769
1.1299
1.03565
0.998899
0.997895
1.02112
1.06762
1.08263
1.07057
1.04934
1.03863
1.03217
1.02154
1.01075
0.961726
0.190532
0.759359
0.997814
1.0549
1.14257
1.20424
1.25277
1.25938
1.25536
1.2519
1.23135
1.14181
1.04131
0.998151
0.994227
1.01356
1.06073
1.07966
1.0698
1.04778
1.03607
1.02978
1.01934
1.0103
0.961572
0.201047
0.721792
0.969389
1.05723
1.14069
1.19768
1.25179
1.25822
1.25282
1.24963
1.2342
1.1538
1.04803
0.997833
0.990165
1.00558
1.05151
1.07523
1.06804
1.04635
1.03369
1.02634
1.01674
1.00905
0.959977
0.213135
0.678097
0.932303
1.06008
1.13821
1.19099
1.25013
1.25687
1.25007
1.24722
1.23654
1.16716
1.05664
0.998228
0.985851
0.997079
1.0401
1.06913
1.06532
1.04461
1.02942
1.02244
1.01177
1.00567
0.955713
0.227603
0.631703
0.89221
1.06394
1.13462
1.18411
1.2476
1.25505
1.2473
1.24487
1.23833
1.1818
1.0676
0.999943
0.981556
0.988151
1.02566
1.06101
1.06104
1.04312
1.02482
1.01822
1.00668
0.999508
0.945511
0.245261
0.594407
0.878002
1.06774
1.12826
1.17619
1.24326
1.25152
1.2448
1.243
1.23947
1.19492
1.08199
1.00332
0.97725
0.979783
1.01043
1.05116
1.05572
1.04121
1.02131
1.01074
0.997595
0.985303
0.920844
0.165047
0.841723
1.04957
1.0569
1.13941
1.21667
1.25238
1.26074
1.26068
1.2556
1.21872
1.11042
1.02811
1.00253
1.00673
1.03968
1.08077
1.08758
1.07161
1.05354
1.0446
1.03745
1.02598
1.01213
0.963151
0.166132
0.837224
1.04779
1.05606
1.14146
1.21777
1.25309
1.26083
1.26038
1.25517
1.2183
1.11009
1.02772
1.0017
1.00544
1.03755
1.07914
1.0867
1.071
1.0525
1.04334
1.03624
1.02479
1.0112
0.962186
0.169579
0.827629
1.04242
1.05484
1.14267
1.21728
1.25409
1.26139
1.26024
1.2551
1.21979
1.1129
1.02851
1.00026
1.00287
1.03288
1.07617
1.08563
1.07086
1.05173
1.04219
1.03538
1.02385
1.01088
0.961439
0.175005
0.811822
1.03295
1.05371
1.14305
1.21489
1.25413
1.2611
1.25943
1.25495
1.22421
1.12103
1.03161
0.999853
1.00099
1.02833
1.0729
1.08461
1.07085
1.05064
1.04054
1.034
1.02285
1.01073
0.961602
0.18179
0.789363
1.01844
1.05347
1.14365
1.21006
1.25346
1.26027
1.25788
1.25395
1.22787
1.13025
1.03582
0.998945
0.997892
1.02104
1.06755
1.08261
1.07058
1.04934
1.03862
1.03217
1.02155
1.01077
0.961753
0.190539
0.759321
0.997781
1.0549
1.14257
1.20424
1.25278
1.25939
1.25536
1.2519
1.23158
1.14244
1.04166
0.998156
0.994087
1.01332
1.06058
1.07965
1.06982
1.0478
1.03607
1.02978
1.01935
1.01032
0.961598
0.201053
0.721756
0.969353
1.05723
1.14069
1.19768
1.25181
1.25824
1.25282
1.24963
1.2344
1.15454
1.04846
0.997758
0.989856
1.00511
1.05106
1.07507
1.068
1.04638
1.0337
1.02634
1.01675
1.00907
0.960002
0.213141
0.678066
0.932268
1.06008
1.13821
1.19099
1.25015
1.2569
1.25008
1.24722
1.2367
1.16781
1.05702
0.998125
0.985488
0.996591
1.0396
1.06892
1.06524
1.04464
1.02943
1.02244
1.01177
1.00569
0.955735
0.22761
0.631679
0.892188
1.06394
1.13462
1.18411
1.24762
1.25507
1.24731
1.24489
1.23845
1.18226
1.06787
0.99985
0.981263
0.987788
1.02527
1.06085
1.06097
1.04314
1.02483
1.01822
1.00668
0.999523
0.94553
0.245267
0.594394
0.877999
1.06774
1.12826
1.1762
1.24327
1.25154
1.24482
1.24303
1.23955
1.19516
1.08214
1.00325
0.977087
0.979593
1.01023
1.05107
1.0557
1.04124
1.02133
1.01074
0.997599
0.985315
0.920859
0.165042
0.841718
1.04956
1.05689
1.13941
1.21667
1.25238
1.26074
1.26068
1.2556
1.21871
1.11041
1.02811
1.00254
1.00675
1.03971
1.08079
1.08759
1.07161
1.05353
1.04459
1.03744
1.02596
1.01211
0.96313
0.166129
0.837218
1.04778
1.05606
1.14146
1.21776
1.25308
1.26082
1.26037
1.25517
1.21832
1.11011
1.02772
1.0017
1.00545
1.03756
1.07915
1.08671
1.07099
1.05249
1.04333
1.03623
1.02478
1.01118
0.962166
0.169576
0.827623
1.04241
1.05484
1.14267
1.21728
1.25408
1.26138
1.26024
1.2551
1.21983
1.11295
1.02854
1.00032
1.00293
1.03297
1.07623
1.08565
1.07086
1.05171
1.04218
1.03537
1.02383
1.01087
0.96142
0.175002
0.811815
1.03294
1.05371
1.14305
1.21488
1.25413
1.26109
1.25942
1.25495
1.22427
1.12115
1.03169
0.99988
1.001
1.02832
1.07292
1.08461
1.07084
1.05063
1.04053
1.03399
1.02284
1.01071
0.961584
0.181788
0.789354
1.01843
1.05346
1.14365
1.21006
1.25345
1.26025
1.25787
1.25394
1.22785
1.13025
1.0358
0.998886
0.997821
1.02097
1.06754
1.08261
1.07058
1.04934
1.03862
1.03216
1.02154
1.01075
0.961736
0.190538
0.759311
0.997769
1.0549
1.14256
1.20424
1.25277
1.25939
1.25535
1.2519
1.23151
1.14222
1.04152
0.998144
0.994131
1.0134
1.0606
1.07964
1.06981
1.04779
1.03606
1.02978
1.01934
1.01031
0.961583
0.201053
0.721742
0.969338
1.05723
1.14069
1.19768
1.25181
1.25824
1.25283
1.24964
1.23434
1.15423
1.04827
0.997813
0.990027
1.00537
1.05133
1.07518
1.06804
1.04637
1.03369
1.02633
1.01674
1.00906
0.959989
0.213144
0.678049
0.93225
1.06008
1.13821
1.191
1.25015
1.2569
1.25009
1.24724
1.23665
1.16756
1.05688
0.998191
0.98567
0.99683
1.03987
1.06906
1.06531
1.04463
1.02942
1.02243
1.01177
1.00568
0.955726
0.227614
0.631662
0.892171
1.06394
1.13462
1.18411
1.24762
1.25507
1.24732
1.24489
1.23842
1.18213
1.06783
0.999903
0.98136
0.987898
1.02539
1.06091
1.061
1.04314
1.02482
1.01822
1.00668
0.999517
0.945523
0.245274
0.594381
0.877996
1.06774
1.12826
1.1762
1.24326
1.25154
1.24482
1.24303
1.23953
1.19514
1.08219
1.00329
0.977078
0.979566
1.01019
1.05105
1.05568
1.04122
1.02132
1.01073
0.997592
0.98531
0.920854
0.16506
0.84166
1.04953
1.05687
1.13943
1.21666
1.25237
1.26073
1.26067
1.25559
1.21873
1.11044
1.02812
1.00254
1.00674
1.03969
1.08077
1.08758
1.0716
1.05352
1.04458
1.03743
1.02596
1.01212
0.963142
0.166145
0.837158
1.04775
1.05604
1.14147
1.21776
1.25308
1.26081
1.26036
1.25516
1.21833
1.11013
1.02773
1.00171
1.00545
1.03755
1.07914
1.0867
1.07099
1.05248
1.04332
1.03622
1.02478
1.01119
0.96218
0.169591
0.827559
1.04237
1.05484
1.14267
1.21728
1.25408
1.26137
1.26023
1.2551
1.21983
1.11296
1.02855
1.00033
1.00294
1.03296
1.07622
1.08564
1.07085
1.05171
1.04217
1.03536
1.02383
1.01087
0.961434
0.17502
0.811748
1.0329
1.05371
1.14305
1.21488
1.25413
1.26109
1.25941
1.25496
1.22427
1.12107
1.03164
0.999858
1.00098
1.0283
1.07289
1.0846
1.07084
1.05063
1.04052
1.03398
1.02284
1.01072
0.961596
0.181805
0.789285
1.01838
1.05346
1.14365
1.21005
1.25344
1.26024
1.25787
1.25392
1.22786
1.13045
1.03594
0.998942
0.997853
1.02097
1.06752
1.0826
1.07057
1.04933
1.03861
1.03215
1.02152
1.01075
0.961753
0.190557
0.759238
0.997718
1.05491
1.14256
1.20422
1.25277
1.25938
1.25534
1.25188
1.23147
1.1421
1.04145
0.998123
0.994124
1.01339
1.06059
1.07962
1.06979
1.04778
1.03605
1.02976
1.01933
1.01031
0.961599
0.201071
0.72167
0.969284
1.05724
1.14068
1.19767
1.25181
1.25824
1.25282
1.24966
1.23434
1.15409
1.04814
0.997756
0.989997
1.00535
1.05132
1.07517
1.06803
1.04636
1.03368
1.02633
1.01673
1.00906
0.960001
0.213162
0.677983
0.932198
1.06009
1.1382
1.19099
1.25015
1.2569
1.25009
1.24725
1.23668
1.16763
1.0569
0.998189
0.985663
0.996815
1.03985
1.06904
1.0653
1.04462
1.02942
1.02242
1.01176
1.00568
0.955732
0.227635
0.631608
0.892142
1.06395
1.13461
1.18411
1.24762
1.25507
1.24732
1.24488
1.23842
1.18226
1.06795
0.99995
0.981368
0.987895
1.02537
1.06089
1.06099
1.04313
1.02482
1.01821
1.00668
0.999525
0.945525
0.245294
0.594348
0.87801
1.06775
1.12825
1.17619
1.24326
1.25153
1.24481
1.243
1.2395
1.19528
1.08241
1.00338
0.977099
0.97957
1.01016
1.05103
1.05567
1.04121
1.02132
1.01073
0.997597
0.985324
0.920854
0.165053
0.841674
1.04954
1.05687
1.13942
1.21667
1.25237
1.26073
1.26067
1.25559
1.2187
1.1104
1.0281
1.00254
1.00675
1.03972
1.08079
1.08759
1.07161
1.05353
1.04458
1.03743
1.02596
1.01212
0.963141
0.166139
0.837172
1.04775
1.05604
1.14147
1.21776
1.25308
1.26081
1.26036
1.25516
1.21831
1.1101
1.02772
1.00171
1.00545
1.03757
1.07916
1.08671
1.07099
1.05249
1.04333
1.03622
1.02478
1.01119
0.962177
0.169586
0.827575
1.04238
1.05483
1.14267
1.21728
1.25408
1.26137
1.26023
1.25509
1.21982
1.11295
1.02854
1.00032
1.00294
1.03298
1.07623
1.08565
1.07085
1.05171
1.04218
1.03537
1.02383
1.01087
0.96143
0.175014
0.811765
1.0329
1.05371
1.14305
1.21488
1.25412
1.26109
1.25941
1.25496
1.22427
1.12106
1.03163
0.999858
1.00099
1.02832
1.07291
1.08461
1.07084
1.05063
1.04053
1.03399
1.02284
1.01072
0.961593
0.181799
0.789303
1.01839
1.05346
1.14365
1.21005
1.25345
1.26024
1.25787
1.25392
1.22786
1.13043
1.03593
0.99894
0.997854
1.02098
1.06754
1.08261
1.07058
1.04934
1.03861
1.03216
1.02154
1.01076
0.961744
0.190551
0.759258
0.99773
1.0549
1.14256
1.20423
1.25277
1.25938
1.25534
1.25188
1.23146
1.14208
1.04144
0.99812
0.994122
1.01339
1.0606
1.07964
1.06981
1.04778
1.03606
1.02977
1.01934
1.01031
0.96159
0.201065
0.72169
0.969297
1.05723
1.14068
1.19767
1.25181
1.25824
1.25282
1.24966
1.23434
1.15407
1.04813
0.997753
0.989998
1.00535
1.05133
1.07518
1.06804
1.04637
1.03369
1.02633
1.01674
1.00906
0.959995
0.213156
0.678001
0.932211
1.06009
1.1382
1.19099
1.25015
1.2569
1.25009
1.24724
1.23667
1.16761
1.05689
0.998186
0.985664
0.996821
1.03986
1.06905
1.06531
1.04463
1.02942
1.02243
1.01177
1.00568
0.955731
0.227627
0.631624
0.892149
1.06394
1.13461
1.18411
1.24762
1.25507
1.24732
1.24488
1.23841
1.18224
1.06794
0.999946
0.981369
0.987898
1.02538
1.0609
1.061
1.04314
1.02482
1.01822
1.00668
0.99952
0.945528
0.245287
0.594358
0.878005
1.06775
1.12825
1.17619
1.24326
1.25153
1.24481
1.24299
1.2395
1.19526
1.08239
1.00337
0.977097
0.979568
1.01017
1.05104
1.05568
1.04123
1.02132
1.01073
0.997594
0.985313
0.920858
0.165042
0.841718
1.04956
1.05689
1.13941
1.21667
1.25238
1.26074
1.26068
1.2556
1.21871
1.11041
1.02811
1.00254
1.00675
1.03971
1.08079
1.08759
1.07161
1.05353
1.04459
1.03744
1.02596
1.01211
0.96313
0.166129
0.837219
1.04778
1.05606
1.14146
1.21776
1.25308
1.26082
1.26037
1.25517
1.21832
1.11011
1.02772
1.0017
1.00545
1.03756
1.07915
1.08671
1.07099
1.05249
1.04333
1.03623
1.02478
1.01118
0.962166
0.169576
0.827623
1.04241
1.05484
1.14267
1.21728
1.25408
1.26138
1.26024
1.2551
1.21983
1.11295
1.02854
1.00032
1.00293
1.03297
1.07623
1.08565
1.07086
1.05171
1.04218
1.03537
1.02383
1.01087
0.96142
0.175002
0.811815
1.03294
1.05371
1.14305
1.21488
1.25413
1.26109
1.25942
1.25495
1.22427
1.12115
1.03169
0.99988
1.001
1.02832
1.07292
1.08461
1.07084
1.05063
1.04053
1.03399
1.02284
1.01071
0.961584
0.181788
0.789355
1.01843
1.05346
1.14365
1.21006
1.25345
1.26025
1.25787
1.25394
1.22785
1.13025
1.0358
0.998886
0.997821
1.02097
1.06754
1.08261
1.07058
1.04934
1.03862
1.03216
1.02154
1.01075
0.961736
0.190538
0.759311
0.997769
1.0549
1.14256
1.20424
1.25277
1.25939
1.25535
1.2519
1.23151
1.14222
1.04152
0.998144
0.994131
1.0134
1.0606
1.07964
1.06981
1.04779
1.03606
1.02978
1.01934
1.01031
0.961583
0.201053
0.721743
0.969338
1.05723
1.14069
1.19768
1.25181
1.25824
1.25283
1.24964
1.23434
1.15423
1.04827
0.997813
0.990027
1.00537
1.05133
1.07518
1.06804
1.04637
1.03369
1.02633
1.01674
1.00906
0.959989
0.213144
0.678049
0.93225
1.06008
1.13821
1.191
1.25015
1.2569
1.25009
1.24724
1.23665
1.16756
1.05688
0.998191
0.98567
0.99683
1.03987
1.06906
1.06531
1.04463
1.02942
1.02243
1.01177
1.00568
0.955726
0.227614
0.631662
0.892171
1.06394
1.13462
1.18411
1.24762
1.25507
1.24732
1.24489
1.23842
1.18213
1.06783
0.999903
0.98136
0.987898
1.02539
1.06091
1.061
1.04314
1.02482
1.01822
1.00668
0.999517
0.945523
0.245273
0.594381
0.877996
1.06774
1.12826
1.1762
1.24326
1.25154
1.24482
1.24303
1.23953
1.19514
1.08219
1.00329
0.977078
0.979566
1.01019
1.05105
1.05568
1.04122
1.02132
1.01073
0.997592
0.98531
0.920854
0.165047
0.841723
1.04957
1.0569
1.13941
1.21667
1.25238
1.26074
1.26068
1.2556
1.21872
1.11042
1.02811
1.00253
1.00673
1.03968
1.08077
1.08758
1.07161
1.05354
1.0446
1.03745
1.02598
1.01213
0.963151
0.166132
0.837224
1.04779
1.05606
1.14146
1.21777
1.25309
1.26083
1.26038
1.25517
1.2183
1.11009
1.02772
1.0017
1.00544
1.03755
1.07914
1.0867
1.071
1.0525
1.04334
1.03624
1.02479
1.0112
0.962186
0.169579
0.827629
1.04242
1.05484
1.14267
1.21728
1.25409
1.26139
1.26024
1.2551
1.21979
1.1129
1.02851
1.00026
1.00287
1.03288
1.07617
1.08563
1.07086
1.05173
1.04219
1.03538
1.02385
1.01088
0.961439
0.175005
0.811822
1.03295
1.05371
1.14305
1.21489
1.25413
1.2611
1.25943
1.25495
1.22421
1.12103
1.03161
0.999853
1.00099
1.02833
1.0729
1.08461
1.07085
1.05064
1.04054
1.034
1.02285
1.01073
0.961602
0.18179
0.789363
1.01844
1.05347
1.14365
1.21006
1.25346
1.26027
1.25788
1.25395
1.22787
1.13025
1.03582
0.998945
0.997892
1.02104
1.06755
1.08261
1.07058
1.04934
1.03862
1.03217
1.02155
1.01077
0.961753
0.190539
0.759321
0.997781
1.0549
1.14257
1.20424
1.25278
1.25939
1.25536
1.2519
1.23158
1.14244
1.04166
0.998156
0.994087
1.01332
1.06058
1.07965
1.06982
1.0478
1.03607
1.02978
1.01935
1.01032
0.961598
0.201053
0.721756
0.969353
1.05723
1.14069
1.19768
1.25181
1.25824
1.25282
1.24963
1.2344
1.15454
1.04846
0.997758
0.989856
1.00511
1.05106
1.07507
1.068
1.04638
1.0337
1.02634
1.01675
1.00907
0.960002
0.213141
0.678066
0.932268
1.06008
1.13821
1.19099
1.25015
1.2569
1.25008
1.24722
1.2367
1.16781
1.05702
0.998125
0.985488
0.996591
1.0396
1.06892
1.06524
1.04464
1.02943
1.02244
1.01177
1.00569
0.955735
0.22761
0.631679
0.892188
1.06394
1.13462
1.18411
1.24762
1.25507
1.24731
1.24489
1.23845
1.18226
1.06787
0.99985
0.981263
0.987788
1.02527
1.06085
1.06097
1.04314
1.02483
1.01822
1.00668
0.999523
0.94553
0.245267
0.594394
0.877999
1.06774
1.12826
1.1762
1.24327
1.25154
1.24482
1.24303
1.23955
1.19516
1.08214
1.00325
0.977087
0.979593
1.01023
1.05107
1.0557
1.04124
1.02133
1.01074
0.997599
0.985315
0.920859
0.165036
0.841756
1.04959
1.05692
1.13942
1.2167
1.2524
1.26076
1.2607
1.25563
1.21883
1.11061
1.02816
1.00246
1.00661
1.03947
1.08066
1.08755
1.07163
1.05356
1.04462
1.03746
1.02598
1.01211
0.963124
0.166139
0.837253
1.04782
1.05606
1.1414
1.21767
1.25301
1.26076
1.26031
1.25518
1.2187
1.11074
1.02793
1.00161
1.00526
1.03723
1.07898
1.08665
1.07101
1.05252
1.04336
1.03625
1.02479
1.01118
0.962159
0.16958
0.82766
1.04245
1.05484
1.14264
1.21721
1.25401
1.26131
1.26018
1.25512
1.22018
1.11348
1.02875
1.00036
1.00292
1.03288
1.07618
1.08564
1.07087
1.05174
1.04221
1.03539
1.02384
1.01086
0.961412
0.174997
0.811858
1.03298
1.05372
1.14305
1.21487
1.2541
1.26106
1.2594
1.25495
1.22425
1.12109
1.03167
0.99991
1.00105
1.02839
1.07294
1.08462
1.07084
1.05064
1.04055
1.03401
1.02285
1.01071
0.961576
0.181783
0.7894
1.01847
1.05347
1.14366
1.21008
1.25346
1.26026
1.25788
1.25394
1.22769
1.1299
1.03565
0.998899
0.997895
1.02111
1.06762
1.08263
1.07057
1.04934
1.03863
1.03217
1.02154
1.01075
0.961726
0.190532
0.759359
0.997814
1.0549
1.14257
1.20424
1.25277
1.25938
1.25536
1.2519
1.23135
1.14181
1.04131
0.998151
0.994227
1.01356
1.06072
1.07966
1.0698
1.04778
1.03607
1.02978
1.01934
1.0103
0.961572
0.201047
0.721792
0.969389
1.05723
1.14069
1.19768
1.25179
1.25822
1.25282
1.24963
1.2342
1.1538
1.04803
0.997833
0.990165
1.00558
1.05151
1.07523
1.06804
1.04635
1.03369
1.02634
1.01674
1.00905
0.959977
0.213135
0.678097
0.932302
1.06008
1.13821
1.19099
1.25013
1.25687
1.25007
1.24722
1.23654
1.16716
1.05665
0.998229
0.985851
0.997078
1.0401
1.06913
1.06532
1.04461
1.02942
1.02244
1.01177
1.00567
0.955713
0.227603
0.631703
0.89221
1.06394
1.13462
1.18411
1.2476
1.25505
1.2473
1.24487
1.23833
1.1818
1.0676
0.999943
0.981555
0.98815
1.02566
1.06101
1.06104
1.04312
1.02482
1.01822
1.00668
0.999508
0.945511
0.245262
0.594407
0.878002
1.06774
1.12826
1.17619
1.24326
1.25152
1.2448
1.243
1.23947
1.19492
1.08199
1.00332
0.97725
0.979782
1.01043
1.05116
1.05572
1.04121
1.02131
1.01074
0.997595
0.985303
0.920844
0.165041
0.841774
1.04959
1.05692
1.13941
1.2167
1.25241
1.26079
1.26073
1.25563
1.21865
1.11027
1.02799
1.00242
1.00661
1.03956
1.08068
1.08754
1.07161
1.05356
1.04463
1.03751
1.0261
1.01223
0.963053
0.166124
0.837279
1.04782
1.05609
1.14148
1.21782
1.25313
1.26088
1.26044
1.25521
1.21832
1.1101
1.02768
1.00161
1.00532
1.03739
1.07904
1.08666
1.07099
1.05252
1.04338
1.03629
1.02491
1.01131
0.962097
0.169575
0.827686
1.04245
1.05485
1.14268
1.21732
1.25412
1.26142
1.26026
1.25515
1.2201
1.11338
1.02869
1.00026
1.0028
1.03271
1.07606
1.08558
1.07086
1.05174
1.04222
1.03544
1.02396
1.01098
0.961358
0.175002
0.811882
1.03299
1.05372
1.14305
1.2149
1.25414
1.26111
1.25941
1.25497
1.22464
1.12183
1.03189
0.999679
1.00068
1.02788
1.07267
1.08453
1.07085
1.05067
1.04057
1.03405
1.02296
1.01082
0.961523
0.181784
0.789427
1.01848
1.05347
1.14366
1.21009
1.25347
1.26025
1.25787
1.25393
1.22797
1.13067
1.03596
0.998783
0.997628
1.02062
1.06725
1.08249
1.07057
1.04937
1.03865
1.03221
1.02163
1.01084
0.96169
0.190533
0.759389
0.997832
1.05491
1.14259
1.20428
1.25281
1.25943
1.25538
1.25192
1.23144
1.14184
1.04127
0.998144
0.994232
1.01357
1.06071
1.07966
1.06982
1.0478
1.03608
1.0298
1.01941
1.01039
0.961547
0.201047
0.721825
0.96941
1.05724
1.14071
1.19773
1.25185
1.25829
1.25288
1.24971
1.23428
1.15373
1.04796
0.997873
0.990259
1.00568
1.05157
1.07526
1.06807
1.04637
1.03371
1.02636
1.0168
1.00912
0.959962
0.213136
0.67813
0.93233
1.06009
1.13823
1.19104
1.25019
1.25694
1.25014
1.24729
1.23664
1.16736
1.05681
0.9983
0.985874
0.997048
1.04006
1.06913
1.06534
1.04462
1.02943
1.02244
1.01181
1.00572
0.955706
0.227603
0.631734
0.892236
1.06395
1.13464
1.18415
1.24765
1.2551
1.24735
1.2449
1.23839
1.18216
1.068
1.00003
0.981446
0.987951
1.02539
1.06091
1.061
1.04313
1.02482
1.01821
1.00671
0.999556
0.945509
0.245259
0.59443
0.878006
1.06775
1.12828
1.17623
1.24329
1.25155
1.24483
1.243
1.23948
1.19524
1.08246
1.0034
0.977051
0.979483
1.01001
1.05094
1.05562
1.0412
1.02132
1.01073
0.997608
0.985342
0.920847
0.264203
0.563639
0.876268
1.07268
1.12009
1.16787
1.23465
1.24738
1.24195
1.24124
1.23998
1.2066
1.09976
1.00877
0.972589
0.970871
0.993491
1.03917
1.04993
1.0389
1.01425
1.0021
0.986197
0.964809
0.855501
0.283452
0.533057
0.870452
1.07544
1.1087
1.15874
1.22278
1.24247
1.23909
1.23995
1.23975
1.21524
1.11898
1.01766
0.969498
0.961194
0.975478
1.01951
1.03978
1.03386
1.0115
0.992152
0.970748
0.949913
0.859288
0.301191
0.499407
0.865356
1.07946
1.09569
1.14719
1.20692
1.23442
1.23653
1.23963
1.23918
1.22259
1.1409
1.02865
0.968918
0.954427
0.963231
1.00346
1.03063
1.02931
1.00871
0.988909
0.959176
0.939949
0.873999
0.317584
0.478302
0.847705
1.07508
1.07575
1.1413
1.18952
1.22421
1.23663
1.23935
1.23826
1.22616
1.16205
1.0464
0.972076
0.946815
0.94908
0.979114
1.01615
1.02161
1.00788
0.983672
0.952924
0.933054
0.896517
0.331507
0.453612
0.803326
1.0401
1.05901
1.13778
1.16953
1.2137
1.23579
1.23891
1.23737
1.22826
1.18115
1.06744
0.978882
0.941311
0.937374
0.956847
0.998801
1.01175
1.00474
0.984393
0.947122
0.927381
0.899045
0.341549
0.430915
0.719201
0.940065
1.05791
1.13294
1.15388
1.20452
1.2334
1.23774
1.23634
1.22841
1.1967
1.09389
0.990605
0.938056
0.925338
0.934857
0.974569
0.999446
0.998473
0.985054
0.949765
0.922249
0.89949
0.351226
0.424013
0.645453
0.872702
1.07045
1.12605
1.1436
1.19603
1.22845
1.23519
1.23403
1.22724
1.20537
1.12217
1.00962
0.940792
0.91594
0.917697
0.946529
0.984543
0.990706
0.983527
0.956479
0.923708
0.899816
0.363315
0.423657
0.587537
0.855201
1.09035
1.11621
1.12967
1.17903
1.21937
1.23022
1.23019
1.22483
1.20944
1.15055
1.03286
0.948929
0.909975
0.904458
0.918589
0.959764
0.977802
0.977197
0.963832
0.930616
0.902464
0.377393
0.42237
0.545638
0.825365
1.09634
1.09597
1.12185
1.16354
1.20768
1.22497
1.22586
1.22275
1.21294
1.17439
1.0635
0.963779
0.90947
0.893169
0.89775
0.931097
0.964627
0.970028
0.964621
0.942483
0.909624
0.389645
0.415748
0.50406
0.777869
1.08114
1.07154
1.11748
1.14945
1.18911
1.21376
1.22073
1.22061
1.21566
1.19222
1.10179
0.987749
0.916022
0.884508
0.881312
0.896925
0.937852
0.957209
0.95828
0.949766
0.923253
0.392057
0.401177
0.458679
0.690213
0.980985
1.05031
1.11886
1.13651
1.16402
1.19901
1.2147
1.21884
1.21674
1.20313
1.14267
1.01375
0.927893
0.882418
0.86927
0.873884
0.904879
0.938607
0.947007
0.945313
0.934556
0.380284
0.384878
0.425933
0.589958
0.862768
1.05875
1.11424
1.12321
1.14086
1.182
1.20819
1.21688
1.21707
1.20998
1.17106
1.05789
0.95127
0.889468
0.860689
0.857256
0.869418
0.908486
0.933872
0.937443
0.933499
0.367821
0.370411
0.400071
0.518013
0.78615
1.0828
1.09346
1.10204
1.12161
1.16382
1.19752
1.21293
1.21628
1.21315
1.19116
1.10417
0.980606
0.901433
0.861865
0.846975
0.849286
0.871686
0.90748
0.924659
0.926862
0.358527
0.358745
0.377828
0.457039
0.701401
1.04883
1.04095
1.08097
1.11104
1.14692
1.18521
1.20698
1.21435
1.21389
1.2042
1.1441
1.01986
0.924436
0.867594
0.841648
0.836973
0.844032
0.874949
0.903063
0.913484
0.352718
0.347876
0.360193
0.411206
0.599469
0.884014
1.00904
1.07979
1.10645
1.12756
1.16796
1.19861
1.2112
1.21324
1.20978
1.1796
1.06929
0.950171
0.877679
0.841604
0.825981
0.826241
0.837879
0.873442
0.896682
0.348023
0.339482
0.347674
0.382229
0.507179
0.773873
1.02975
1.07309
1.08818
1.11125
1.14806
1.18512
1.20546
1.21145
1.21106
1.20021
1.12709
0.989372
0.897077
0.845787
0.823217
0.815043
0.817512
0.832029
0.868008
0.344368
0.332735
0.337968
0.360159
0.438937
0.660434
1.02775
1.02662
1.05245
1.09882
1.13108
1.1647
1.19356
1.20741
1.21001
1.20713
1.17395
1.05052
0.927792
0.857819
0.823269
0.809546
0.806108
0.809806
0.824643
0.34161
0.327754
0.331133
0.345356
0.39292
0.556471
0.865376
0.989754
1.04581
1.08494
1.10791
1.14474
1.18075
1.20035
1.20759
1.20781
1.1972
1.12646
0.97772
0.881665
0.830716
0.805389
0.796906
0.79675
0.800952
0.339546
0.323978
0.326156
0.335269
0.364892
0.469083
0.715176
1.0095
1.03369
1.04995
1.08365
1.12513
1.16206
1.1905
1.20296
1.20656
1.20438
1.17364
1.0571
0.928587
0.851225
0.811471
0.791852
0.784036
0.784772
0.338084
0.321243
0.322617
0.328316
0.346184
0.403636
0.58208
0.932053
0.985034
1.02678
1.06957
1.09398
1.13978
1.17284
1.1946
1.20348
1.20449
1.19474
1.13553
0.996616
0.887129
0.827394
0.796534
0.779723
0.769382
0.337048
0.319267
0.320168
0.323866
0.335031
0.369203
0.487533
0.744653
0.9823
1.01655
1.03835
1.06912
1.10491
1.15178
1.18028
1.19642
1.20258
1.20087
1.17752
1.07627
0.95315
0.860497
0.809961
0.783319
0.766677
0.336328
0.317915
0.318578
0.320973
0.32769
0.347212
0.410492
0.59851
0.948119
0.97734
1.01357
1.05216
1.07548
1.11756
1.15883
1.18578
1.19812
1.2
1.19201
1.14826
1.0228
0.917451
0.839297
0.794823
0.76979
0.335945
0.317169
0.317738
0.319256
0.323297
0.334744
0.369941
0.492768
0.754964
0.967095
1.00103
1.02238
1.0542
1.07789
1.12739
1.16493
1.18871
1.19703
1.19491
1.17874
1.10845
0.974207
0.885305
0.817456
0.778951
0.336137
0.316996
0.31732
0.318129
0.320547
0.327265
0.346659
0.409494
0.596085
0.93158
0.965728
1.00125
1.03258
1.0562
1.08264
1.13427
1.16908
1.18963
1.19263
1.1875
1.15855
1.05712
0.937265
0.861325
0.800946
0.336651
0.316982
0.317125
0.317667
0.319103
0.322934
0.333698
0.366626
0.482319
0.735715
0.955613
0.983615
1.00427
1.03531
1.05421
1.08656
1.14215
1.17421
1.18684
1.1858
1.17507
1.1299
1.00832
0.904343
0.83543
0.336875
0.317092
0.317016
0.317271
0.318071
0.320245
0.326119
0.343181
0.397918
0.570621
0.887072
0.950247
0.986216
1.00951
1.03669
1.05276
1.08867
1.14696
1.17512
1.18077
1.17663
1.15851
1.09133
0.957969
0.871774
0.336979
0.317219
0.316866
0.317001
0.317443
0.318646
0.321877
0.330862
0.358143
0.45375
0.683625
0.94203
0.961332
0.984761
1.01464
1.03353
1.05243
1.0946
1.14808
1.17049
1.1725
1.16555
1.13614
1.04106
0.920639
0.337019
0.317278
0.316766
0.316835
0.317075
0.317729
0.31948
0.324208
0.337871
0.38087
0.528683
0.796731
0.933772
0.966998
0.986757
1.016
1.02822
1.05125
1.10405
1.14638
1.16132
1.16095
1.14997
1.10736
0.993568
0.337019
0.317305
0.316706
0.31674
0.316863
0.317202
0.318108
0.320552
0.327276
0.347432
0.415611
0.609023
0.898212
0.936354
0.966712
0.990281
1.01262
1.02353
1.04998
1.10942
1.14385
1.15065
1.14715
1.12963
1.06742
0.337005
0.317325
0.316668
0.316682
0.316736
0.316902
0.317364
0.318611
0.32199
0.331576
0.361569
0.46976
0.70299
0.914271
0.942541
0.965152
0.992189
1.00686
1.01909
1.05289
1.10789
1.13524
1.1394
1.13217
1.10463
0.336998
0.317336
0.316635
0.316642
0.316672
0.316757
0.316984
0.317595
0.319255
0.3238
0.337178
0.379995
0.528148
0.781464
0.91068
0.944707
0.963947
0.98992
0.999975
1.01522
1.05945
1.10408
1.12362
1.12553
1.11563
0.336999
0.31733
0.316624
0.316626
0.316636
0.316674
0.316781
0.317072
0.317856
0.319995
0.325924
0.343918
0.40506
0.584337
0.851184
0.910614
0.942941
0.964627
0.983839
0.992684
1.0133
1.06436
1.1015
1.11304
1.11152
0.337001
0.317325
0.316625
0.316613
0.316618
0.316634
0.316682
0.316814
0.317173
0.318145
0.320823
0.328449
0.352379
0.438976
0.644918
0.874754
0.914324
0.939828
0.962931
0.975155
0.986788
1.01506
1.06847
1.09705
1.10337
0.337002
0.317322
0.316627
0.316608
0.316609
0.316616
0.316636
0.316693
0.31685
0.317278
0.318452
0.321728
0.331345
0.362304
0.476959
0.690815
0.876298
0.915729
0.938295
0.957191
0.96606
0.983123
1.0258
1.07347
1.09174
0.337002
0.317321
0.316628
0.316605
0.316606
0.316608
0.316616
0.31664
0.316705
0.316885
0.317381
0.318757
0.322629
0.33429
0.372556
0.505867
0.730051
0.873845
0.912766
0.935672
0.949156
0.95959
0.984936
1.03719
1.07522
0.337001
0.317321
0.316628
0.316604
0.316604
0.316605
0.316608
0.316617
0.316642
0.316714
0.316914
0.317468
0.319024
0.323437
0.336992
0.382696
0.530806
0.756327
0.871693
0.910406
0.931554
0.94176
0.957139
0.999354
1.05106
0.337001
0.317321
0.316628
0.316603
0.316604
0.316604
0.316605
0.316608
0.316617
0.316644
0.316721
0.316936
0.317536
0.31924
0.324117
0.339378
0.391837
0.553943
0.76105
0.871758
0.912614
0.928219
0.93902
0.968395
1.03019
0.337001
0.317321
0.316628
0.316603
0.316603
0.316604
0.316604
0.316605
0.316608
0.316618
0.316646
0.316725
0.316952
0.317588
0.319403
0.324632
0.341112
0.399291
0.559697
0.768485
0.880346
0.917815
0.935649
0.966589
1.04308
0.337001
0.317321
0.316628
0.316603
0.316603
0.316603
0.316604
0.316604
0.316605
0.316608
0.316619
0.316648
0.316731
0.316967
0.317634
0.319529
0.324998
0.342184
0.404827
0.551626
0.797017
0.902363
0.952672
1.02441
1.16472
0.337001
0.317321
0.316628
0.316603
0.316603
0.316603
0.316604
0.316604
0.316604
0.316606
0.316611
0.316624
0.316659
0.316758
0.317036
0.317798
0.319936
0.326135
0.345924
0.418356
0.592357
0.844975
1.04206
1.09637
1.23197
0.264199
0.563632
0.876256
1.07266
1.12007
1.16784
1.23463
1.24737
1.24193
1.24125
1.23997
1.20642
1.09957
1.00877
0.972635
0.970924
0.993539
1.03919
1.04991
1.03887
1.01422
1.00207
0.986162
0.964769
0.855488
0.283452
0.533046
0.870439
1.07542
1.10867
1.15871
1.22277
1.24247
1.23909
1.23996
1.23976
1.21521
1.11893
1.01766
0.96945
0.961117