/*--------------------------------*- C++ -*----------------------------------*\
| =========                 |                                                 |
| \\      /  F ield         | OpenFOAM: The Open Source CFD Toolbox           |
|  \\    /   O peration     | Version:  4.1                                   |
|   \\  /    A nd           | Web:      www.OpenFOAM.org                      |
|    \\/     M anipulation  |                                                 |
\*---------------------------------------------------------------------------*/
FoamFile
{
    version     2.0;
    format      ascii;
    class       volVectorField;
    location    "0.8";
    object      U;
}
// * * * * * * * * * * * * * * * * * * * * * * * * * * * * * * * * * * * * * //

dimensions      [0 1 -1 0 0 0 0];

internalField   nonuniform List<vector> 
52500
(
(2.02438 -0.000299083 -0.00110573)
(1.06079 0.00275968 -0.00552693)
(0.307685 0.0147195 -0.00731255)
(0.128756 0.010247 -0.00736639)
(0.327907 0.010649 -0.00791421)
(0.370523 0.01194 -0.00842272)
(0.375027 0.0133855 -0.00864642)
(0.390645 0.0148983 -0.00868816)
(0.417235 0.0153471 -0.00868202)
(0.428507 0.0153071 -0.00864221)
(0.426352 0.0152879 -0.00837483)
(0.426899 0.0151083 -0.00763302)
(0.430505 0.0146664 -0.00707452)
(0.427734 0.0142422 -0.00690599)
(0.420444 0.0140686 -0.00694538)
(0.403678 0.0143831 -0.00718732)
(0.372019 0.015239 -0.00748524)
(0.334445 0.0164487 -0.00755024)
(0.303174 0.0177118 -0.00745371)
(0.280954 0.0189816 -0.00733954)
(0.261516 0.0206066 -0.00728649)
(0.239051 0.022418 -0.00724995)
(0.209081 0.0239169 -0.00719596)
(0.133017 0.025374 -0.0071438)
(0.0519617 0.0260952 -0.00685301)
(2.02304 -0.00125296 -0.00111264)
(1.07332 0.00823082 -0.00549229)
(0.314159 0.0452892 -0.00727845)
(0.123166 0.0288847 -0.00734582)
(0.327693 0.0285392 -0.00791366)
(0.371126 0.0309949 -0.00841308)
(0.375968 0.0338211 -0.00863218)
(0.390515 0.0368095 -0.00866904)
(0.415575 0.0367095 -0.00866048)
(0.426634 0.0352599 -0.00862015)
(0.425051 0.0342938 -0.00835248)
(0.426278 0.0329137 -0.00761311)
(0.430572 0.0316647 -0.00705636)
(0.428444 0.0309333 -0.00688554)
(0.421727 0.0308733 -0.00692122)
(0.405568 0.0316947 -0.00715627)
(0.374426 0.0334584 -0.00745556)
(0.337035 0.0357835 -0.00752401)
(0.30566 0.0382592 -0.00742811)
(0.283546 0.0408783 -0.00730997)
(0.264226 0.0444745 -0.00725388)
(0.241249 0.0483747 -0.00721617)
(0.210254 0.0511187 -0.00716156)
(0.133284 0.0531149 -0.0071108)
(0.0517909 0.0534057 -0.00682068)
(2.0189 -0.00245743 -0.00113486)
(1.10056 0.0135487 -0.0054214)
(0.327982 0.0774097 -0.00721801)
(0.114183 0.0487117 -0.0073217)
(0.329358 0.0480761 -0.00790742)
(0.374453 0.0534305 -0.0083899)
(0.380133 0.05814 -0.00861778)
(0.393409 0.0623772 -0.00865231)
(0.416414 0.0626274 -0.00863864)
(0.427766 0.0606798 -0.00859863)
(0.427009 0.0596716 -0.00834175)
(0.428388 0.0572369 -0.00761341)
(0.432883 0.055378 -0.00704538)
(0.43084 0.054416 -0.00686052)
(0.424262 0.0545893 -0.00688794)
(0.408644 0.056244 -0.00710788)
(0.378378 0.0594202 -0.00741627)
(0.341646 0.0633933 -0.00749553)
(0.310506 0.0678189 -0.00740449)
(0.288827 0.0725963 -0.0072806)
(0.269872 0.0787371 -0.00722045)
(0.246072 0.0851268 -0.00718368)
(0.213435 0.0897492 -0.00712779)
(0.135282 0.0929143 -0.00708107)
(0.0524185 0.0929531 -0.00678945)
(2.01236 -0.00339157 -0.00116986)
(1.14251 0.0184687 -0.00530741)
(0.348799 0.107111 -0.00712693)
(0.102149 0.0689459 -0.00730047)
(0.332678 0.0679498 -0.00789183)
(0.379929 0.07644 -0.00835205)
(0.385454 0.0824505 -0.00859566)
(0.397106 0.0868952 -0.00862904)
(0.417891 0.0871518 -0.0086118)
(0.429798 0.0845824 -0.00857647)
(0.430246 0.0831796 -0.00835178)
(0.431711 0.0794177 -0.00764851)
(0.436399 0.0765674 -0.00704934)
(0.434371 0.0752074 -0.00684133)
(0.42817 0.0755554 -0.00685771)
(0.413547 0.0780149 -0.00705775)
(0.384526 0.0826977 -0.0073731)
(0.348788 0.0885592 -0.00746586)
(0.318177 0.0953052 -0.00738026)
(0.297073 0.102648 -0.0072476)
(0.278498 0.111471 -0.0071822)
(0.253703 0.120526 -0.00714625)
(0.218881 0.127543 -0.0070925)
(0.138819 0.132521 -0.00705117)
(0.0535284 0.132813 -0.00676351)
(2.0041 -0.00427291 -0.00121344)
(1.19838 0.0224023 -0.00514728)
(0.376875 0.1335 -0.00700008)
(0.0892122 0.0901518 -0.00728425)
(0.337122 0.0890347 -0.00787555)
(0.386985 0.0995191 -0.00829729)
(0.391615 0.106746 -0.00856818)
(0.40124 0.111514 -0.00860105)
(0.419713 0.111492 -0.00857973)
(0.432304 0.108588 -0.00854773)
(0.433927 0.106742 -0.00835707)
(0.435409 0.101862 -0.0076933)
(0.440592 0.0978754 -0.00706172)
(0.438837 0.0961621 -0.00681978)
(0.432997 0.0968142 -0.00682024)
(0.419439 0.0998032 -0.00699099)
(0.392059 0.105827 -0.00731661)
(0.357819 0.113526 -0.00742907)
(0.328164 0.122616 -0.00735281)
(0.307771 0.132488 -0.0072116)
(0.289602 0.143842 -0.00714082)
(0.263809 0.155512 -0.0071044)
(0.226616 0.16522 -0.00705355)
(0.144343 0.172975 -0.00702061)
(0.0555553 0.174493 -0.00673534)
(1.99344 -0.0051996 -0.00126944)
(1.26666 0.0247134 -0.00493622)
(0.412417 0.154843 -0.00682988)
(0.0789687 0.112787 -0.00727691)
(0.341883 0.111792 -0.00784569)
(0.394791 0.122845 -0.00823527)
(0.398696 0.131508 -0.00854026)
(0.405735 0.136475 -0.00857289)
(0.421569 0.135821 -0.00854104)
(0.435005 0.132739 -0.0085122)
(0.437939 0.130308 -0.00836268)
(0.439492 0.124718 -0.0077534)
(0.445285 0.119542 -0.0070818)
(0.444096 0.117171 -0.00679749)
(0.438633 0.11809 -0.00677695)
(0.426285 0.121231 -0.00692089)
(0.401066 0.128754 -0.00724891)
(0.368849 0.138379 -0.00738514)
(0.340577 0.15003 -0.00732097)
(0.320968 0.162416 -0.00717295)
(0.30322 0.176489 -0.00709391)
(0.276641 0.191078 -0.00705704)
(0.23732 0.204347 -0.00700619)
(0.152687 0.216427 -0.00698325)
(0.0590106 0.220721 -0.00670129)
(1.98062 -0.00601324 -0.00133638)
(1.34408 0.0247393 -0.00467601)
(0.45591 0.167067 -0.00660554)
(0.0754005 0.136986 -0.00727246)
(0.345685 0.136754 -0.00780807)
(0.402331 0.146787 -0.00816776)
(0.406299 0.156884 -0.00851045)
(0.410162 0.161562 -0.00854276)
(0.423354 0.160109 -0.00850255)
(0.437733 0.156897 -0.00847553)
(0.44211 0.153923 -0.00836286)
(0.4439 0.148 -0.00781498)
(0.450257 0.141662 -0.00710891)
(0.450039 0.138324 -0.00677692)
(0.444972 0.139281 -0.00672985)
(0.433973 0.142279 -0.00684543)
(0.411556 0.151323 -0.00716255)
(0.381815 0.162928 -0.00732917)
(0.355326 0.177305 -0.00728117)
(0.336673 0.192028 -0.00713422)
(0.319692 0.209092 -0.00704675)
(0.292908 0.22736 -0.00700046)
(0.252335 0.245656 -0.0069525)
(0.165672 0.264483 -0.00693506)
(0.0653496 0.274784 -0.00665103)
(1.9659 -0.00693249 -0.0014129)
(1.42384 0.0209622 -0.0043774)
(0.507363 0.163091 -0.00632098)
(0.0823938 0.162556 -0.00726724)
(0.347001 0.164196 -0.00776432)
(0.40815 0.172575 -0.00809755)
(0.413926 0.182935 -0.00847598)
(0.414236 0.186565 -0.00851166)
(0.424963 0.184214 -0.00846316)
(0.440427 0.180773 -0.00843823)
(0.446554 0.177411 -0.00835913)
(0.448812 0.171672 -0.007885)
(0.455564 0.164425 -0.00714804)
(0.456531 0.159926 -0.00676105)
(0.451906 0.160287 -0.00668206)
(0.44249 0.163245 -0.00676752)
(0.423513 0.173357 -0.00706225)
(0.396764 0.186926 -0.00726157)
(0.372347 0.2039 -0.00723414)
(0.354874 0.220993 -0.00709219)
(0.339466 0.241207 -0.00698584)
(0.313705 0.264124 -0.00693828)
(0.273534 0.289393 -0.00687807)
(0.186302 0.318924 -0.00686477)
(0.0772476 0.342124 -0.00657181)
(1.94858 -0.00786696 -0.00150429)
(1.49235 0.0128784 -0.0040649)
(0.564276 0.135925 -0.00601012)
(0.101324 0.189771 -0.00726269)
(0.344505 0.193809 -0.00771192)
(0.411424 0.200739 -0.00802621)
(0.420272 0.209387 -0.00843687)
(0.417431 0.211177 -0.00847854)
(0.426288 0.20786 -0.00842436)
(0.443054 0.204314 -0.0084018)
(0.451522 0.200709 -0.00835069)
(0.45462 0.195914 -0.00796037)
(0.461338 0.187885 -0.0072008)
(0.463304 0.182164 -0.0067537)
(0.459395 0.181389 -0.00663531)
(0.451839 0.184301 -0.00668777)
(0.436587 0.194741 -0.0069441)
(0.41342 0.210031 -0.00718155)
(0.391464 0.229089 -0.00717768)
(0.375659 0.249047 -0.00705107)
(0.362945 0.27251 -0.00692156)
(0.340273 0.300869 -0.00687136)
(0.303817 0.335311 -0.00679703)
(0.220564 0.38024 -0.00676414)
(0.100787 0.43103 -0.00643211)
(1.92823 -0.00818245 -0.00161642)
(1.53154 0.00723081 -0.00382639)
(0.619578 0.107135 -0.00587645)
(0.128034 0.220843 -0.00725811)
(0.336638 0.224829 -0.0076438)
(0.411698 0.229536 -0.00795084)
(0.42429 0.234859 -0.00838776)
(0.419488 0.234523 -0.00843606)
(0.427553 0.23049 -0.00838859)
(0.445863 0.227419 -0.00836936)
(0.457277 0.224128 -0.00833706)
(0.461415 0.220851 -0.00802426)
(0.467501 0.211889 -0.00727532)
(0.470309 0.204902 -0.00675704)
(0.467271 0.202655 -0.00658904)
(0.461735 0.205275 -0.00661235)
(0.450405 0.215381 -0.00682201)
(0.431327 0.231874 -0.00709117)
(0.412601 0.25242 -0.00711551)
(0.399387 0.275683 -0.00700718)
(0.390452 0.302418 -0.00686309)
(0.373683 0.336462 -0.00678031)
(0.346016 0.382405 -0.00668382)
(0.278875 0.450335 -0.006594)
(0.147423 0.574249 -0.0061576)
(2.02441 -0.000306167 3.13236e-08)
(1.06069 0.00275346 1.42334e-08)
(0.307644 0.0147391 4.82358e-08)
(0.128809 0.0102841 1.04148e-07)
(0.327908 0.0106744 1.22873e-07)
(0.370509 0.0119758 1.60216e-07)
(0.374997 0.0134411 1.67058e-07)
(0.390583 0.0149757 1.7023e-07)
(0.417137 0.0154264 1.52224e-07)
(0.428382 0.0153474 1.03525e-07)
(0.426236 0.0153133 -4.85543e-08)
(0.426818 0.0150591 1.67456e-07)
(0.43047 0.0146099 8.8919e-08)
(0.427748 0.0142111 3.75447e-08)
(0.420482 0.0140653 -3.59052e-08)
(0.403708 0.0143969 -8.28589e-08)
(0.37202 0.0152551 -1.16621e-07)
(0.334425 0.0164603 -5.32819e-08)
(0.303144 0.0177194 -4.90117e-08)
(0.280925 0.0189879 5.41676e-08)
(0.261519 0.0206123 1.43334e-07)
(0.239083 0.0224205 1.43382e-07)
(0.209113 0.0239159 2.269e-07)
(0.133043 0.025372 3.46665e-07)
(0.0519786 0.026095 3.84273e-07)
(2.02304 -0.00125807 1.41102e-08)
(1.07321 0.00822879 8.1322e-09)
(0.314121 0.0453084 5.26955e-08)
(0.123292 0.0288949 1.05192e-07)
(0.327728 0.0285243 9.93441e-08)
(0.371194 0.0309847 1.65469e-07)
(0.376066 0.0338198 1.62137e-07)
(0.390657 0.0368088 1.49339e-07)
(0.415766 0.0366907 1.28426e-07)
(0.426926 0.0352071 1.08475e-07)
(0.425417 0.0342501 4.50162e-08)
(0.426638 0.0328183 1.23469e-07)
(0.430917 0.0315934 6.1228e-08)
(0.428725 0.0309 2.3089e-08)
(0.421921 0.0308668 -3.04376e-08)
(0.405679 0.0317054 -8.09913e-08)
(0.374469 0.0334738 -1.17724e-07)
(0.337038 0.0358045 -6.58025e-08)
(0.305645 0.0382794 -4.89273e-08)
(0.283523 0.0409031 5.62756e-08)
(0.264227 0.0444982 1.46102e-07)
(0.241274 0.0483863 1.51167e-07)
(0.21028 0.051117 2.25685e-07)
(0.133303 0.0531079 3.30073e-07)
(0.0518051 0.0534002 3.59555e-07)
(2.0189 -0.00245121 1.43604e-08)
(1.10045 0.0135612 1.44851e-08)
(0.327942 0.0774208 5.63353e-08)
(0.114261 0.0486947 1.12893e-07)
(0.329382 0.0480556 9.3982e-08)
(0.374509 0.0534107 1.60152e-07)
(0.38021 0.0581163 1.62017e-07)
(0.393507 0.0623464 1.53039e-07)
(0.416538 0.0625859 1.23523e-07)
(0.427968 0.0606409 1.24156e-07)
(0.427247 0.0596125 1.19602e-07)
(0.4286 0.0572093 8.75263e-08)
(0.433093 0.0553936 3.90772e-08)
(0.431007 0.054464 6.04681e-09)
(0.42438 0.0546493 -3.13924e-08)
(0.40871 0.0562998 -7.69359e-08)
(0.37839 0.0594636 -1.12643e-07)
(0.341627 0.0634384 -7.71603e-08)
(0.310476 0.0678571 -4.33946e-08)
(0.288799 0.0726376 6.15841e-08)
(0.269862 0.0787746 1.50014e-07)
(0.246083 0.0851448 1.65854e-07)
(0.213452 0.0897465 2.26734e-07)
(0.135298 0.0929011 3.11338e-07)
(0.0524318 0.0929423 3.32605e-07)
(2.01238 -0.00338698 2.70413e-08)
(1.14242 0.0184825 3.58011e-08)
(0.34877 0.107132 7.24896e-08)
(0.102205 0.068932 1.13569e-07)
(0.33269 0.0679308 8.96293e-08)
(0.379957 0.0764108 1.57292e-07)
(0.385487 0.082411 1.53897e-07)
(0.397143 0.0868498 1.41314e-07)
(0.417931 0.0870983 1.15539e-07)
(0.429845 0.0845426 1.31631e-07)
(0.43028 0.0831125 1.28245e-07)
(0.431733 0.079437 4.24813e-08)
(0.436426 0.0766469 -5.88041e-09)
(0.434379 0.0753213 -2.48645e-08)
(0.428154 0.0756784 -7.09628e-08)
(0.413501 0.0781213 -1.05603e-07)
(0.384457 0.082778 -1.25924e-07)
(0.348714 0.0886264 -9.69311e-08)
(0.318111 0.095359 -3.93601e-08)
(0.297024 0.102695 7.21167e-08)
(0.27847 0.111509 1.59821e-07)
(0.253694 0.120543 1.80067e-07)
(0.218885 0.127538 2.26976e-07)
(0.13883 0.132503 2.81263e-07)
(0.0535402 0.132797 3.0569e-07)
(2.00412 -0.00427232 2.62831e-08)
(1.1983 0.0224134 5.71404e-08)
(0.376855 0.133534 1.06519e-07)
(0.0892614 0.0901451 1.04534e-07)
(0.337126 0.0890123 8.18669e-08)
(0.386994 0.0994822 1.52957e-07)
(0.39162 0.106703 1.51715e-07)
(0.401237 0.111473 1.27761e-07)
(0.419699 0.111447 1.01049e-07)
(0.432259 0.108546 1.26794e-07)
(0.433835 0.106685 1.6699e-07)
(0.435287 0.101875 5.95606e-08)
(0.440447 0.0979468 1.01896e-08)
(0.438671 0.0962644 -2.53545e-08)
(0.432815 0.0969207 -6.25977e-08)
(0.419249 0.0999033 -9.14592e-08)
(0.391879 0.105904 -1.21035e-07)
(0.357672 0.113588 -8.24368e-08)
(0.328055 0.122665 -2.07395e-08)
(0.307699 0.132527 7.74955e-08)
(0.289557 0.14387 1.65559e-07)
(0.263784 0.155523 1.94835e-07)
(0.226608 0.165212 2.26308e-07)
(0.144351 0.172953 2.53902e-07)
(0.0555665 0.174473 2.67197e-07)
(1.99346 -0.0051999 2.81846e-08)
(1.2666 0.0247242 8.29056e-08)
(0.412408 0.154886 1.54239e-07)
(0.0790133 0.112786 9.5278e-08)
(0.341884 0.11177 7.17019e-08)
(0.394794 0.12281 1.47403e-07)
(0.39869 0.131472 1.43349e-07)
(0.405714 0.136449 1.05933e-07)
(0.421527 0.135802 7.92368e-08)
(0.434905 0.132722 1.07515e-07)
(0.437786 0.130292 6.47822e-08)
(0.439324 0.124729 8.85483e-08)
(0.445096 0.119598 6.28466e-09)
(0.443884 0.117247 -5.39623e-08)
(0.438414 0.118146 -4.04033e-08)
(0.42606 0.121291 -1.32607e-07)
(0.400849 0.128777 -7.50449e-08)
(0.368672 0.138398 -6.81477e-08)
(0.340444 0.150045 3.05456e-09)
(0.320879 0.162434 8.68527e-08)
(0.30316 0.1765 1.72755e-07)
(0.276603 0.191078 2.01734e-07)
(0.237303 0.204334 2.21076e-07)
(0.15269 0.216401 2.28572e-07)
(0.0590206 0.220697 2.30961e-07)
(1.98064 -0.00601367 2.51986e-08)
(1.34405 0.0247507 1.04673e-07)
(0.455912 0.167118 2.13122e-07)
(0.0754383 0.136986 8.84159e-08)
(0.345687 0.136737 6.36921e-08)
(0.402334 0.14676 1.32365e-07)
(0.406292 0.15686 1.27158e-07)
(0.410137 0.161556 8.94407e-08)
(0.423302 0.160118 6.63494e-08)
(0.437622 0.156914 9.74259e-08)
(0.441936 0.153964 7.92123e-08)
(0.443708 0.148046 1.09031e-07)
(0.450062 0.141737 7.10149e-09)
(0.449827 0.138404 -3.57365e-08)
(0.444784 0.139326 -4.95595e-08)
(0.433793 0.142312 -6.20094e-08)
(0.41137 0.151313 -8.984e-08)
(0.381671 0.162911 -5.37732e-08)
(0.355212 0.177284 1.94197e-08)
(0.33659 0.192022 1.0633e-07)
(0.319627 0.209086 1.78104e-07)
(0.292864 0.227349 2.02148e-07)
(0.252312 0.245635 2.12424e-07)
(0.165673 0.264453 2.03221e-07)
(0.0653594 0.274757 1.87962e-07)
(1.96592 -0.00693272 2.55356e-08)
(1.42383 0.0209728 1.25934e-07)
(0.50738 0.163142 2.84443e-07)
(0.0824258 0.162559 9.1841e-08)
(0.347005 0.164185 6.18159e-08)
(0.408155 0.172556 1.14125e-07)
(0.413923 0.182923 1.17242e-07)
(0.414214 0.186574 8.98769e-08)
(0.424915 0.184246 6.83747e-08)
(0.440334 0.180821 1.05554e-07)
(0.44639 0.177488 1.17656e-07)
(0.448622 0.171735 6.88941e-08)
(0.455392 0.164496 -1.67533e-09)
(0.456352 0.159984 -2.55975e-08)
(0.45176 0.160322 -2.57415e-08)
(0.442358 0.163252 -4.52233e-08)
(0.42337 0.173354 -7.35357e-08)
(0.396654 0.186906 -5.40567e-08)
(0.372258 0.203872 1.15407e-08)
(0.354808 0.220968 1.11985e-07)
(0.339404 0.241186 1.74208e-07)
(0.313658 0.264102 1.93917e-07)
(0.273506 0.289366 2.00382e-07)
(0.186301 0.318889 1.76658e-07)
(0.077258 0.342093 1.40764e-07)
(1.9486 -0.00786854 2.22406e-08)
(1.49237 0.0128827 1.32835e-07)
(0.564309 0.135959 3.5247e-07)
(0.101355 0.189774 1.14958e-07)
(0.344511 0.193806 6.16279e-08)
(0.411429 0.200728 1.07452e-07)
(0.420273 0.209383 1.13955e-07)
(0.417418 0.211196 8.8739e-08)
(0.426254 0.20791 7.11955e-08)
(0.442995 0.204385 1.06281e-07)
(0.451395 0.200803 1.47275e-07)
(0.454466 0.195985 -1.05235e-08)
(0.461214 0.187948 2.97423e-08)
(0.463172 0.18219 -6.27661e-09)
(0.459286 0.181398 -2.65305e-08)
(0.451742 0.184279 -2.12383e-09)
(0.43648 0.194733 -3.88762e-08)
(0.413331 0.210013 -3.41752e-08)
(0.391388 0.229068 4.50758e-08)
(0.375601 0.249013 9.90879e-08)
(0.36289 0.272479 1.57493e-07)
(0.340228 0.300838 1.79908e-07)
(0.303786 0.335279 1.85163e-07)
(0.220561 0.3802 1.50417e-07)
(0.100798 0.430995 1.1597e-07)
(1.92824 -0.00818482 1.24804e-08)
(1.53157 0.00722928 9.27983e-08)
(0.61962 0.107145 2.58337e-07)
(0.128064 0.220847 1.54204e-07)
(0.336644 0.224834 7.26257e-08)
(0.411701 0.229532 1.05722e-07)
(0.424295 0.234863 1.02678e-07)
(0.419485 0.234553 8.52064e-08)
(0.427538 0.230554 6.88266e-08)
(0.445837 0.227509 1.03532e-07)
(0.457194 0.224226 1.19671e-07)
(0.461324 0.220936 -9.76642e-08)
(0.467439 0.211945 1.15022e-07)
(0.470223 0.204912 4.5364e-08)
(0.467191 0.202644 4.88775e-09)
(0.461656 0.205237 -1.13385e-08)
(0.450321 0.215356 -3.31232e-08)
(0.431254 0.231847 -2.43682e-08)
(0.412535 0.252393 5.79162e-08)
(0.399333 0.275644 9.27209e-08)
(0.390404 0.302378 1.381e-07)
(0.373642 0.336425 1.61527e-07)
(0.345984 0.382369 1.67806e-07)
(0.278868 0.450292 1.3492e-07)
(0.147435 0.574208 8.77527e-08)
(2.02439 -0.000300895 -9.21074e-09)
(1.06079 0.00275827 2.58365e-07)
(0.307694 0.0147251 3.30575e-07)
(0.128783 0.0102564 -4.22589e-08)
(0.32791 0.0106561 -2.03787e-07)
(0.37053 0.0119515 -9.81779e-08)
(0.375028 0.0134043 -6.51331e-08)
(0.390623 0.0149263 -2.22182e-08)
(0.417183 0.0153817 -2.48959e-08)
(0.428392 0.0153335 -9.41174e-08)
(0.426196 0.0153138 -2.84134e-07)
(0.426748 0.0151009 -7.07219e-08)
(0.430353 0.0146403 -8.94595e-08)
(0.427603 0.014209 -9.54536e-08)
(0.420324 0.014036 -2.04811e-07)
(0.403553 0.0143592 -2.18522e-07)
(0.371903 0.015224 -2.43775e-07)
(0.334356 0.0164396 -9.80541e-08)
(0.303127 0.0177063 -1.37043e-08)
(0.280945 0.0189772 1.6195e-07)
(0.261539 0.0206039 2.66116e-07)
(0.239093 0.0224154 2.46785e-07)
(0.209118 0.0239137 1.70956e-07)
(0.133047 0.0253707 3.97569e-09)
(0.0519796 0.0260945 -7.58004e-08)
(2.02305 -0.00125467 3.80935e-08)
(1.07332 0.00823061 2.86153e-07)
(0.314169 0.0452978 3.44008e-07)
(0.123209 0.0288906 -6.36675e-08)
(0.327705 0.0285398 -1.19094e-07)
(0.371154 0.0310027 -9.38763e-08)
(0.376003 0.0338359 -5.86955e-08)
(0.39055 0.03683 -3.62897e-09)
(0.415609 0.0367366 -8.87656e-09)
(0.426653 0.0352779 -1.17156e-07)
(0.425059 0.0343247 -3.87047e-07)
(0.426283 0.032904 1.65432e-08)
(0.430565 0.0316407 -3.48597e-08)
(0.428431 0.0309101 -8.35338e-08)
(0.421698 0.0308569 -1.85242e-07)
(0.405513 0.0316912 -1.98171e-07)
(0.374359 0.0334626 -2.1217e-07)
(0.336976 0.0357889 -8.91892e-08)
(0.305628 0.0382636 -5.73602e-09)
(0.283541 0.0408791 1.63276e-07)
(0.264248 0.0444745 2.53418e-07)
(0.241287 0.048371 2.28133e-07)
(0.210287 0.0511107 1.57249e-07)
(0.133308 0.0531051 -4.51323e-09)
(0.0518065 0.0533986 -8.23745e-08)
(2.0189 -0.00245597 2.13213e-08)
(1.10056 0.0135533 2.82463e-07)
(0.327994 0.0774194 4.00606e-07)
(0.114219 0.0487119 -1.21798e-07)
(0.329371 0.0480753 -8.39074e-08)
(0.374483 0.0534375 -8.29295e-08)
(0.38017 0.0581521 -6.31022e-08)
(0.393449 0.0623944 -2.70218e-08)
(0.416458 0.0626554 -2.63628e-08)
(0.42782 0.0607068 -1.04136e-07)
(0.427067 0.0597053 -3.08361e-07)
(0.42844 0.0572355 3.73414e-09)
(0.432924 0.0553609 -5.94563e-08)
(0.430862 0.0543939 -1.17444e-07)
(0.424256 0.0545663 -1.76999e-07)
(0.408606 0.0562299 -2.03072e-07)
(0.378322 0.0594155 -1.97023e-07)
(0.341595 0.0633961 -1.07329e-07)
(0.310478 0.0678239 -1.52124e-09)
(0.288825 0.0726006 1.557e-07)
(0.269894 0.0787397 2.28417e-07)
(0.246108 0.0851217 1.93236e-07)
(0.213467 0.0897366 1.30701e-07)
(0.135306 0.092897 -1.83321e-08)
(0.0524338 0.0929402 -9.05186e-08)
(2.01237 -0.00339013 -5.7209e-09)
(1.14252 0.0184745 2.6786e-07)
(0.348818 0.107125 4.39014e-07)
(0.102179 0.0689462 -1.3945e-07)
(0.33269 0.0679484 -8.69952e-08)
(0.379955 0.0764415 -5.8084e-08)
(0.385485 0.082456 -3.95327e-08)
(0.397142 0.0869073 -3.1197e-08)
(0.417932 0.0871744 -3.12959e-08)
(0.429852 0.0846116 -2.11316e-08)
(0.430307 0.0832149 -1.2131e-07)
(0.43177 0.079439 -2.60302e-08)
(0.436456 0.0765756 -1.18036e-07)
(0.434416 0.0752074 -1.55905e-07)
(0.428199 0.0755521 -1.59032e-07)
(0.413552 0.0780173 -1.86118e-07)
(0.384508 0.0827073 -1.84385e-07)
(0.348761 0.0885722 -1.20095e-07)
(0.318159 0.0953178 -1.15737e-08)
(0.297072 0.102658 1.37125e-07)
(0.278517 0.111476 2.09568e-07)
(0.253733 0.12052 1.60558e-07)
(0.218909 0.127527 9.32234e-08)
(0.138842 0.132498 -3.73536e-08)
(0.0535435 0.132795 -1.00092e-07)
(2.00411 -0.00427269 -6.12788e-09)
(1.1984 0.0224075 2.6047e-07)
(0.3769 0.133518 4.64235e-07)
(0.089242 0.0901538 -1.29423e-07)
(0.337132 0.0890317 -8.07859e-08)
(0.387007 0.0995149 -3.71447e-08)
(0.391642 0.106746 -3.37683e-08)
(0.401273 0.111522 -1.92224e-08)
(0.419753 0.111509 -4.95903e-09)
(0.432365 0.108611 4.99606e-08)
(0.433988 0.106761 -1.26765e-08)
(0.435447 0.10188 -2.82992e-08)
(0.440619 0.097883 -1.52514e-07)
(0.438851 0.0961707 -1.84349e-07)
(0.432992 0.0968302 -1.26483e-07)
(0.419413 0.0998254 -1.93104e-07)
(0.392018 0.105856 -1.56392e-07)
(0.357779 0.113549 -1.12402e-07)
(0.32814 0.122634 -1.49451e-08)
(0.307766 0.1325 1.08661e-07)
(0.289616 0.143847 1.81682e-07)
(0.263834 0.155506 1.36786e-07)
(0.226641 0.165203 6.26886e-08)
(0.144367 0.172949 -5.15589e-08)
(0.055571 0.174472 -1.13643e-07)
(1.99345 -0.00519976 -9.32294e-09)
(1.26668 0.024718 2.50909e-07)
(0.412451 0.154863 5.00334e-07)
(0.0790003 0.11279 -1.20597e-07)
(0.341892 0.111788 -7.29153e-08)
(0.394812 0.122837 -4.15796e-08)
(0.398721 0.131503 -2.75216e-08)
(0.405766 0.13648 1.35041e-08)
(0.421604 0.135836 3.86272e-08)
(0.435049 0.132761 1.09552e-07)
(0.437994 0.130323 -8.09127e-09)
(0.439547 0.124732 2.45108e-08)
(0.44533 0.119551 -1.30897e-07)
(0.444118 0.117182 -1.98754e-07)
(0.438621 0.118101 -9.33854e-08)
(0.426245 0.121246 -2.52172e-07)
(0.401012 0.128769 -1.1132e-07)
(0.368797 0.138392 -9.74748e-08)
(0.340546 0.150041 -9.80252e-09)
(0.320959 0.162423 6.68039e-08)
(0.303228 0.17649 1.45163e-07)
(0.276659 0.19107 1.12463e-07)
(0.237341 0.20433 4.36815e-08)
(0.152709 0.2164 -6.52486e-08)
(0.059026 0.220697 -1.23536e-07)
(1.98063 -0.00601363 -8.67671e-09)
(1.34412 0.024743 2.40192e-07)
(0.455953 0.167086 5.46663e-07)
(0.0754348 0.136988 -1.00563e-07)
(0.345693 0.13675 -7.50537e-08)
(0.40235 0.146778 -3.40911e-08)
(0.406322 0.156877 -1.3357e-08)
(0.41019 0.161565 2.48578e-08)
(0.423383 0.160121 5.25986e-08)
(0.437764 0.156917 1.01074e-07)
(0.442146 0.153951 -3.09149e-09)
(0.443934 0.148033 6.88353e-08)
(0.450283 0.141704 -8.71196e-08)
(0.450048 0.138365 -1.87213e-07)
(0.444961 0.139306 -9.83232e-08)
(0.433944 0.142296 -2.76592e-07)
(0.411512 0.151323 -8.69544e-08)
(0.381774 0.162926 -7.68936e-08)
(0.355301 0.177301 9.55051e-09)
(0.336664 0.192026 2.90896e-08)
(0.319696 0.209088 1.04578e-07)
(0.292921 0.22735 9.32183e-08)
(0.252351 0.245637 2.92149e-08)
(0.165693 0.264456 -6.67235e-08)
(0.0653651 0.27476 -1.3588e-07)
(1.96591 -0.00693305 -1.47133e-08)
(1.42388 0.0209635 2.10136e-07)
(0.507417 0.163102 5.72604e-07)
(0.0824321 0.162558 -7.05409e-08)
(0.347009 0.164193 -6.95281e-08)
(0.408167 0.172567 -4.58374e-08)
(0.413949 0.182929 -2.60332e-08)
(0.414261 0.186566 7.74674e-09)
(0.424984 0.184224 3.47739e-08)
(0.44045 0.180789 6.14427e-08)
(0.446565 0.177436 -3.27131e-08)
(0.448804 0.171699 7.71303e-08)
(0.455557 0.164473 -5.38878e-08)
(0.456518 0.159977 -1.63407e-07)
(0.451891 0.160323 -1.4684e-07)
(0.44247 0.163266 -2.24288e-07)
(0.423483 0.173361 -9.59836e-08)
(0.396738 0.186921 -6.49443e-08)
(0.372333 0.20389 4.97826e-09)
(0.354872 0.220983 2.59031e-08)
(0.33947 0.241198 7.0638e-08)
(0.313715 0.264112 7.78338e-08)
(0.273546 0.289374 2.55197e-08)
(0.186321 0.318896 -7.46247e-08)
(0.0772641 0.3421 -1.40379e-07)
(1.94859 -0.00786828 -2.37397e-08)
(1.4924 0.0128756 1.45909e-07)
(0.564338 0.13592 5.10617e-07)
(0.101367 0.189771 -2.0438e-08)
(0.344514 0.193808 -5.80263e-08)
(0.411439 0.200734 -4.62926e-08)
(0.420292 0.209381 -2.6073e-08)
(0.417453 0.211177 1.50983e-09)
(0.426306 0.207869 2.64783e-08)
(0.443073 0.20433 3.53174e-08)
(0.451514 0.200731 -5.87094e-08)
(0.454589 0.195933 1.15417e-07)
(0.461317 0.187928 -9.29639e-08)
(0.463283 0.182207 -1.3604e-07)
(0.459377 0.181423 -1.36061e-07)
(0.451822 0.184318 -1.98664e-07)
(0.436564 0.19475 -1.14137e-07)
(0.4134 0.21003 -6.77085e-08)
(0.391453 0.229083 -2.62307e-08)
(0.375659 0.249035 3.70568e-08)
(0.362951 0.272498 5.78492e-08)
(0.340282 0.300854 7.04425e-08)
(0.303824 0.335292 2.82899e-08)
(0.220579 0.380213 -7.84666e-08)
(0.100804 0.431006 -1.31921e-07)
(1.92824 -0.00818404 -2.83411e-08)
(1.53158 0.00722683 5.22364e-08)
(0.619642 0.107123 2.3243e-07)
(0.128078 0.220845 3.48009e-08)
(0.336647 0.224833 -3.50685e-08)
(0.411711 0.229532 -2.8459e-08)
(0.424309 0.234854 -1.24568e-08)
(0.419509 0.234525 1.02832e-09)
(0.42757 0.230502 2.44757e-08)
(0.445882 0.227438 3.52756e-08)
(0.457262 0.22415 -2.95284e-08)
(0.461382 0.220878 1.58875e-07)
(0.467484 0.211929 -1.49557e-07)
(0.470287 0.204938 -1.31123e-07)
(0.467251 0.202683 -1.4069e-07)
(0.461716 0.205286 -1.42995e-07)
(0.450383 0.215385 -1.03868e-07)
(0.431309 0.231872 -6.74387e-08)
(0.412591 0.252414 -6.86706e-08)
(0.399387 0.275671 4.08406e-08)
(0.390458 0.302404 5.66711e-08)
(0.373691 0.336446 6.66539e-08)
(0.34602 0.382386 3.34726e-08)
(0.278885 0.45031 -4.22875e-08)
(0.147441 0.574225 -1.21273e-07)
(2.0244 -0.00030142 -2.45955e-08)
(1.0608 0.00275793 3.86092e-07)
(0.307704 0.0147273 5.02753e-07)
(0.128791 0.010259 -2.47449e-08)
(0.327908 0.0106583 -2.03353e-07)
(0.370525 0.0119537 -1.22695e-07)
(0.375019 0.0134078 -1.04879e-07)
(0.390612 0.0149313 -4.71205e-08)
(0.417171 0.0153869 -1.27198e-08)
(0.428378 0.0153366 -2.18439e-08)
(0.42618 0.0153173 -2.48813e-08)
(0.426732 0.0151016 -6.0583e-08)
(0.430336 0.0146431 -7.65556e-08)
(0.427585 0.0142159 -9.78809e-08)
(0.4203 0.0140454 -1.13031e-07)
(0.403519 0.0143684 -1.23367e-07)
(0.37186 0.0152306 -1.05393e-07)
(0.334314 0.0164432 -3.78846e-08)
(0.303097 0.0177075 5.42151e-08)
(0.28093 0.0189775 1.48691e-07)
(0.261537 0.0206046 1.99654e-07)
(0.2391 0.0224158 2.12184e-07)
(0.209128 0.0239138 1.6366e-07)
(0.133056 0.0253702 1.04008e-07)
(0.0519817 0.0260938 7.03418e-08)
(2.02305 -0.00125521 -2.29285e-08)
(1.07333 0.00823069 3.9726e-07)
(0.314179 0.0453021 5.51023e-07)
(0.123221 0.0288926 -1.1723e-07)
(0.327706 0.0285401 -1.58787e-07)
(0.371154 0.0310019 -1.11619e-07)
(0.376001 0.0338353 -1.05425e-07)
(0.39055 0.0368294 -5.32601e-08)
(0.415612 0.0367341 -1.79937e-08)
(0.426661 0.0352707 -2.25683e-08)
(0.425069 0.0343183 -1.58856e-08)
(0.426291 0.032891 -6.87003e-08)
(0.43057 0.0316285 -8.12527e-08)
(0.428428 0.0308995 -9.96592e-08)
(0.421683 0.0308477 -1.08768e-07)
(0.405483 0.0316839 -1.14568e-07)
(0.374318 0.0334575 -9.87385e-08)
(0.336935 0.0357869 -3.51179e-08)
(0.305599 0.0382628 5.25858e-08)
(0.283528 0.04088 1.42097e-07)
(0.264247 0.0444773 1.90287e-07)
(0.241294 0.0483726 2.00595e-07)
(0.210296 0.0511105 1.57133e-07)
(0.133316 0.0531035 1.00413e-07)
(0.0518084 0.0533968 6.72954e-08)
(2.0189 -0.00245612 -2.23348e-08)
(1.10057 0.0135543 4.00891e-07)
(0.328005 0.0774258 6.17937e-07)
(0.114226 0.0487144 -2.27614e-07)
(0.329371 0.0480763 -9.309e-08)
(0.374482 0.0534371 -1.21011e-07)
(0.380168 0.0581511 -1.07235e-07)
(0.39345 0.0623932 -3.90474e-08)
(0.416464 0.0626516 -1.65969e-08)
(0.427837 0.060698 -1.88569e-08)
(0.427088 0.059694 -9.62774e-09)
(0.428459 0.0572222 -7.33531e-08)
(0.432942 0.0553545 -8.1036e-08)
(0.430874 0.0543958 -9.45912e-08)
(0.424259 0.0545726 -1.03437e-07)
(0.408594 0.0562379 -1.06615e-07)
(0.378295 0.0594222 -9.12233e-08)
(0.341562 0.063401 -3.63685e-08)
(0.310453 0.0678275 4.30629e-08)
(0.288813 0.0726033 1.30338e-07)
(0.269893 0.0787431 1.72412e-07)
(0.246113 0.0851229 1.76669e-07)
(0.213474 0.0897353 1.44569e-07)
(0.135313 0.0928935 9.55566e-08)
(0.0524359 0.0929367 6.41906e-08)
(2.01237 -0.00339045 -3.07777e-08)
(1.14253 0.0184759 3.98538e-07)
(0.34883 0.107134 6.61206e-07)
(0.102186 0.06895 -2.35381e-07)
(0.33269 0.0679499 -1.10145e-07)
(0.379955 0.0764408 -1.09637e-07)
(0.385482 0.0824533 -1.00169e-07)
(0.397141 0.0869037 -5.01953e-08)
(0.417933 0.0871666 -3.08748e-08)
(0.429859 0.0846016 -2.75839e-08)
(0.43032 0.0831978 -2.79898e-08)
(0.431782 0.0794331 -7.29243e-08)
(0.436461 0.076585 -6.86062e-08)
(0.4344 0.0752295 -8.35389e-08)
(0.428159 0.0755779 -8.27466e-08)
(0.413495 0.0780403 -8.40419e-08)
(0.384445 0.0827227 -7.30572e-08)
(0.348708 0.0885809 -2.49757e-08)
(0.318124 0.0953234 4.23669e-08)
(0.297057 0.10266 1.19041e-07)
(0.278514 0.111477 1.41931e-07)
(0.253735 0.120519 1.47538e-07)
(0.218914 0.127524 1.26517e-07)
(0.138847 0.132492 8.93123e-08)
(0.0535456 0.132789 6.41606e-08)
(2.00411 -0.00427317 -3.10666e-08)
(1.19842 0.0224089 3.99367e-07)
(0.376915 0.133529 7.19759e-07)
(0.0892478 0.0901592 -2.48567e-07)
(0.337132 0.0890341 -1.33845e-07)
(0.387006 0.0995142 -1.03187e-07)
(0.391637 0.106742 -9.63171e-08)
(0.401266 0.111516 -5.92895e-08)
(0.419743 0.111499 -3.73932e-08)
(0.432349 0.108602 -5.34731e-08)
(0.433962 0.106749 -9.43616e-08)
(0.435413 0.101887 -6.46057e-08)
(0.440569 0.0979073 -5.81847e-08)
(0.438777 0.0961983 -6.72671e-08)
(0.4329 0.0968495 -6.99309e-08)
(0.419313 0.0998374 -7.30653e-08)
(0.391925 0.105858 -4.91471e-08)
(0.357707 0.11355 -2.71097e-08)
(0.328095 0.122634 3.76344e-08)
(0.307746 0.132499 1.02054e-07)
(0.28961 0.143845 1.03506e-07)
(0.263833 0.155503 1.1598e-07)
(0.226643 0.165198 1.08989e-07)
(0.144371 0.172942 8.10907e-08)
(0.0555734 0.174465 6.12506e-08)
(1.99345 -0.00520043 -3.68172e-08)
(1.26671 0.0247192 3.86966e-07)
(0.412469 0.154874 7.87056e-07)
(0.0790062 0.112798 -2.59597e-07)
(0.341891 0.111793 -1.45282e-07)
(0.39481 0.122838 -1.07289e-07)
(0.398714 0.131501 -9.66051e-08)
(0.405753 0.136476 -5.0404e-08)
(0.421585 0.135829 -4.02687e-08)
(0.435013 0.132755 -6.81326e-08)
(0.437931 0.13032 2.65293e-08)
(0.439467 0.124742 -1.13003e-07)
(0.445238 0.119575 -4.83434e-08)
(0.444019 0.117203 -2.08124e-08)
(0.438527 0.118103 -1.04006e-07)
(0.426155 0.12124 1.24977e-08)
(0.400928 0.128746 -7.32983e-08)
(0.368731 0.138374 -3.83505e-08)
(0.340502 0.150027 1.83546e-08)