/*--------------------------------*- C++ -*----------------------------------*\
| =========                 |                                                 |
| \\      /  F ield         | OpenFOAM: The Open Source CFD Toolbox           |
|  \\    /   O peration     | Version:  4.1                                   |
|   \\  /    A nd           | Web:      www.OpenFOAM.org                      |
|    \\/     M anipulation  |                                                 |
\*---------------------------------------------------------------------------*/
FoamFile
{
    version     2.0;
    format      ascii;
    class       volScalarField;
    location    "0.72";
    object      Ma;
}
// * * * * * * * * * * * * * * * * * * * * * * * * * * * * * * * * * * * * * //

dimensions      [0 0 0 0 0 0 0];

internalField   nonuniform List<scalar> 
18000
(
5.28324e-12
5.22442e-12
5.15432e-12
5.09658e-12
5.03936e-12
4.98286e-12
4.92696e-12
4.87217e-12
4.81815e-12
4.76591e-12
6.59208e-12
6.36338e-12
6.13225e-12
5.92006e-12
5.71704e-12
5.52232e-12
5.33542e-12
5.15636e-12
4.98404e-12
4.82233e-12
8.32296e-12
7.82396e-12
7.34866e-12
6.91475e-12
6.511e-12
6.13571e-12
5.7871e-12
5.46159e-12
5.15853e-12
4.88003e-12
1.06422e-11
9.71455e-12
8.87347e-12
8.12003e-12
7.44389e-12
6.8351e-12
6.28591e-12
5.78959e-12
5.34022e-12
4.93858e-12
1.37967e-11
1.2191e-11
1.07991e-11
9.59154e-12
8.54508e-12
7.6341e-12
6.83869e-12
6.14233e-12
5.53011e-12
4.9983e-12
1.81553e-11
1.5476e-11
1.32562e-11
1.13998e-11
9.85074e-12
8.54989e-12
7.45242e-12
6.52173e-12
5.72832e-12
5.05906e-12
2.42721e-11
1.98982e-11
1.64219e-11
1.36395e-11
1.14076e-11
9.60337e-12
8.13448e-12
6.93013e-12
5.9358e-12
5.12079e-12
3.30837e-11
2.60094e-11
2.06527e-11
1.65662e-11
1.34318e-11
1.10034e-11
9.10404e-12
7.60564e-12
6.41315e-12
5.4794e-12
4.85087e-09
4.88184e-09
4.59849e-09
4.34126e-09
4.10907e-09
3.89886e-09
3.70793e-09
3.53394e-09
3.3752e-09
3.30245e-09
5.29409e-07
5.8371e-08
4.98407e-08
4.34838e-08
3.81462e-08
3.36389e-08
2.98148e-08
2.6558e-08
2.36833e-08
9.43058e-08
5.62482e-12
5.55877e-12
5.48541e-12
5.42105e-12
5.358e-12
5.29609e-12
5.23413e-12
5.17421e-12
5.11498e-12
5.05724e-12
7.07112e-12
6.81484e-12
6.56593e-12
6.33006e-12
6.1051e-12
5.88953e-12
5.68394e-12
5.48678e-12
5.2983e-12
5.11953e-12
8.99548e-12
8.43365e-12
7.91711e-12
7.43198e-12
6.98339e-12
6.5676e-12
6.18276e-12
5.82461e-12
5.49171e-12
5.1842e-12
1.16064e-11
1.05568e-11
9.62906e-12
8.78171e-12
8.0251e-12
7.34714e-12
6.73868e-12
6.19121e-12
5.69601e-12
5.24961e-12
1.52093e-11
1.33778e-11
1.18181e-11
1.0447e-11
9.26674e-12
8.2461e-12
7.35976e-12
6.58771e-12
5.91178e-12
5.3178e-12
2.02747e-11
1.71789e-11
1.46493e-11
1.25169e-11
1.07538e-11
9.28533e-12
8.05562e-12
7.0192e-12
6.1405e-12
5.38829e-12
2.75316e-11
2.23916e-11
1.83533e-11
1.51124e-11
1.25462e-11
1.04924e-11
8.83521e-12
7.48807e-12
6.38147e-12
5.46104e-12
3.8192e-11
2.9657e-11
2.3264e-11
1.84007e-11
1.47231e-11
1.19036e-11
9.71731e-12
8.00204e-12
6.64078e-12
5.54028e-12
1.75826e-10
3.9365e-10
3.23879e-10
2.67891e-10
2.24009e-10
1.89135e-10
1.61103e-10
1.38334e-10
1.19684e-10
1.05633e-10
3.66748e-07
5.481e-08
4.78756e-08
4.20378e-08
3.71891e-08
3.31238e-08
2.96849e-08
2.67524e-08
2.4241e-08
2.3166e-08
5.20682e-13
4.99375e-13
3.80326e-13
3.65388e-13
3.51546e-13
3.39136e-13
3.27911e-13
3.18386e-13
3.09816e-13
3.0038e-13
7.21841e-13
6.52643e-13
5.84859e-13
5.34672e-13
4.89266e-13
4.48827e-13
4.12624e-13
3.81425e-13
3.55285e-13
3.14528e-13
9.11598e-13
7.97113e-13
7.78433e-13
6.9552e-13
6.21936e-13
5.57735e-13
5.02733e-13
4.55993e-13
4.14473e-13
3.33877e-13
1.23305e-12
1.07755e-12
1.07821e-12
9.38679e-13
8.18418e-13
7.17046e-13
6.31585e-13
5.60064e-13
4.97548e-13
3.6215e-13
1.75076e-12
1.54595e-12
1.51137e-12
1.27738e-12
1.08271e-12
9.24069e-13
7.9412e-13
6.87455e-13
5.96133e-13
3.9812e-13
2.58799e-12
2.29796e-12
2.13469e-12
1.74294e-12
1.43186e-12
1.18704e-12
9.93148e-13
8.38508e-13
7.09014e-13
4.40441e-13
3.95648e-12
3.48256e-12
3.0361e-12
2.3829e-12
1.88978e-12
1.51779e-12
1.23307e-12
1.01337e-12
8.35696e-13
4.88678e-13
6.29905e-12
5.35615e-12
4.35056e-12
3.26641e-12
2.49122e-12
1.93188e-12
1.5208e-12
1.21445e-12
9.75871e-13
5.41967e-13
2.77581e-10
1.50545e-11
1.20995e-11
8.82042e-12
6.57977e-12
5.00982e-12
3.88611e-12
3.06709e-12
2.45486e-12
1.87136e-12
3.13302e-07
4.51234e-09
3.33633e-09
2.56217e-09
1.99899e-09
1.58177e-09
1.26765e-09
1.02767e-09
8.4221e-10
7.13168e-10
3.8382e-13
3.60388e-13
1.72021e-13
1.51368e-13
1.31042e-13
1.11932e-13
9.4059e-14
7.7663e-14
6.31374e-14
3.73593e-14
5.31619e-13
4.59583e-13
3.85893e-13
3.36031e-13
2.89418e-13
2.47774e-13
2.11039e-13
1.79314e-13
1.52827e-13
7.95586e-14
5.95619e-13
4.89424e-13
5.23499e-13
4.55865e-13
3.95631e-13
3.44408e-13
3.01815e-13
2.67806e-13
2.39056e-13
1.19597e-13
7.29799e-13
6.35621e-13
7.60617e-13
6.58275e-13
5.69247e-13
4.95721e-13
4.35103e-13
3.85815e-13
3.43277e-13
1.71e-13
9.59281e-13
9.45244e-13
1.10793e-12
9.42699e-13
8.03075e-13
6.89468e-13
5.96892e-13
5.21796e-13
4.565e-13
2.24412e-13
1.34551e-12
1.4875e-12
1.61082e-12
1.33567e-12
1.11072e-12
9.3272e-13
7.90284e-13
6.76808e-13
5.79468e-13
2.80946e-13
1.98618e-12
2.36548e-12
2.33944e-12
1.87601e-12
1.51388e-12
1.23643e-12
1.02059e-12
8.52195e-13
7.12486e-13
3.40711e-13
3.1571e-12
3.76507e-12
3.39923e-12
2.62061e-12
2.04146e-12
1.615e-12
1.29446e-12
1.05095e-12
8.56533e-13
4.03638e-13
3.07546e-10
7.04041e-12
4.87208e-12
3.6027e-12
2.70726e-12
2.07259e-12
1.61207e-12
1.27336e-12
1.01149e-12
4.70321e-13
3.10959e-07
1.39598e-09
1.21786e-10
8.09085e-11
5.53599e-11
3.87383e-11
2.76652e-11
2.01296e-11
1.48943e-11
1.11732e-11
3.83687e-13
3.59814e-13
1.72078e-13
1.51285e-13
1.30874e-13
1.11687e-13
9.40798e-14
7.76209e-14
6.2827e-14
3.68879e-14
5.31719e-13
4.59597e-13
3.86262e-13
3.36426e-13
2.89834e-13
2.47869e-13
2.11067e-13
1.79586e-13
1.52959e-13
7.93246e-14
5.95947e-13
4.89814e-13
5.24481e-13
4.56653e-13
3.96035e-13
3.44919e-13
3.02223e-13
2.67942e-13
2.38971e-13
1.19419e-13
7.30482e-13
6.36712e-13
7.6202e-13
6.59625e-13
5.70298e-13
4.96512e-13
4.35804e-13
3.86375e-13
3.43549e-13
1.70554e-13
9.6019e-13
9.47395e-13
1.11077e-12
9.44958e-13
8.04911e-13
6.91207e-13
5.97998e-13
5.22286e-13
4.57109e-13
2.24682e-13
1.34598e-12
1.49158e-12
1.61517e-12
1.3397e-12
1.11389e-12
9.35397e-13
7.92556e-13
6.78356e-13
5.8076e-13
2.8157e-13
1.98452e-12
2.37309e-12
2.3477e-12
1.88274e-12
1.51956e-12
1.24113e-12
1.02425e-12
8.54949e-13
7.14976e-13
3.4213e-13
3.15484e-12
3.77934e-12
3.41366e-12
2.63248e-12
2.05119e-12
1.62274e-12
1.30058e-12
1.0559e-12
8.60364e-13
4.0618e-13
3.23578e-10
7.46493e-12
4.98599e-12
3.67094e-12
2.74936e-12
2.09893e-12
1.62871e-12
1.28408e-12
1.0184e-12
4.73459e-13
3.29958e-07
1.51714e-09
1.39835e-11
5.58826e-12
3.92071e-12
2.84497e-12
2.11394e-12
1.6046e-12
1.23052e-12
5.83671e-13
3.83731e-13
3.59477e-13
1.72609e-13
1.51813e-13
1.3121e-13
1.1195e-13
9.41118e-14
7.79162e-14
6.31941e-14
3.68231e-14
5.32591e-13
4.60067e-13
3.87506e-13
3.37487e-13
2.90774e-13
2.48557e-13
2.115e-13
1.79858e-13
1.5355e-13
7.98215e-14
5.97817e-13
4.91614e-13
5.26816e-13
4.58559e-13
3.97768e-13
3.46144e-13
3.0311e-13
2.68569e-13
2.39499e-13
1.19946e-13
7.34344e-13
6.40792e-13
7.65847e-13
6.62716e-13
5.72844e-13
4.98416e-13
4.37183e-13
3.87502e-13
3.44279e-13
1.71094e-13
9.67646e-13
9.55007e-13
1.117e-12
9.49934e-13
8.08875e-13
6.94515e-13
6.00637e-13
5.24367e-13
4.58568e-13
2.25617e-13
1.35988e-12
1.50504e-12
1.62594e-12
1.34789e-12
1.12029e-12
9.40679e-13
7.96768e-13
6.81392e-13
5.83282e-13
2.8329e-13
2.01055e-12
2.39642e-12
2.36608e-12
1.89672e-12
1.53025e-12
1.24966e-12
1.03099e-12
8.60069e-13
7.18957e-13
3.44899e-13
3.20817e-12
3.82137e-12
3.44543e-12
2.65594e-12
2.06873e-12
1.63632e-12
1.31123e-12
1.06397e-12
8.66477e-13
4.10267e-13
3.4413e-10
7.67061e-12
5.04428e-12
3.71131e-12
2.77851e-12
2.12067e-12
1.64496e-12
1.29615e-12
1.02776e-12
4.79766e-13
3.60236e-07
1.637e-09
1.4141e-11
5.14817e-12
3.69312e-12
2.72224e-12
2.04587e-12
1.56585e-12
1.20809e-12
5.6039e-13
3.837e-13
3.59201e-13
1.7319e-13
1.52449e-13
1.31814e-13
1.12515e-13
9.45994e-14
7.81902e-14
6.36926e-14
4.30827e-14
5.33591e-13
4.60705e-13
3.89147e-13
3.38755e-13
2.91895e-13
2.49652e-13
2.12399e-13
1.80528e-13
1.5385e-13
8.20207e-14
6.00097e-13
4.93702e-13
5.29522e-13
4.60941e-13
3.99672e-13
3.47722e-13
3.04208e-13
2.69416e-13
2.40315e-13
1.21514e-13
7.38922e-13
6.45561e-13
7.70216e-13
6.66449e-13
5.76034e-13
5.00979e-13
4.39002e-13
3.88771e-13
3.4567e-13
1.72736e-13
9.76505e-13
9.63873e-13
1.12429e-12
9.55786e-13
8.13551e-13
6.9855e-13
6.03968e-13
5.26956e-13
4.60599e-13
2.27755e-13
1.37677e-12
1.52043e-12
1.63844e-12
1.35786e-12
1.12793e-12
9.46976e-13
8.02129e-13
6.85634e-13
5.86443e-13
2.86231e-13
2.04178e-12
2.42351e-12
2.38708e-12
1.91314e-12
1.54298e-12
1.25989e-12
1.03938e-12
8.6675e-13
7.24073e-13
3.49157e-13
3.25846e-12
3.86941e-12
3.48202e-12
2.68335e-12
2.08947e-12
1.65235e-12
1.32432e-12
1.07448e-12
8.74442e-13
4.16144e-13
3.50796e-10
7.6588e-12
5.10722e-12
3.75736e-12
2.81248e-12
2.14635e-12
1.66519e-12
1.3113e-12
1.03955e-12
4.88319e-13
3.82017e-07
1.64311e-09
1.36935e-11
5.21189e-12
3.74301e-12
2.75945e-12
2.0745e-12
1.58738e-12
1.22461e-12
5.71757e-13
3.83719e-13
3.58145e-13
1.7347e-13
1.52783e-13
1.32643e-13
1.14635e-13
1.00683e-13
1.3742e-13
4.42093e-13
1.30109e-12
5.34095e-13
4.60275e-13
3.89883e-13
3.39663e-13
2.93095e-13
2.51514e-13
2.15755e-13
1.97825e-13
3.03617e-13
8.53719e-13
6.01377e-13
4.93928e-13
5.30762e-13
4.6219e-13
4.01199e-13
3.49984e-13
3.08069e-13
2.78222e-13
2.99579e-13
5.73848e-13
7.41785e-13
6.46617e-13
7.7205e-13
6.68277e-13
5.77933e-13
5.0354e-13
4.43418e-13
3.96004e-13
3.73748e-13
4.3101e-13
9.81782e-13
9.65967e-13
1.1268e-12
9.58367e-13
8.1617e-13
7.01409e-13
6.08768e-13
5.34376e-13
4.79527e-13
3.76087e-13
1.3854e-12
1.52409e-12
1.64224e-12
1.36185e-12
1.13201e-12
9.51479e-13
8.08482e-13
6.94765e-13
6.02819e-13
3.77631e-13
2.05552e-12
2.42999e-12
2.39349e-12
1.91969e-12
1.54939e-12
1.26677e-12
1.04777e-12
8.77913e-13
7.40643e-13
4.11854e-13
3.21674e-12
3.88114e-12
3.49346e-12
2.69475e-12
2.1001e-12
1.6624e-12
1.33536e-12
1.08893e-12
8.93287e-13
4.64498e-13
2.51433e-10
6.79641e-12
5.1222e-12
3.77671e-12
2.82958e-12
2.162e-12
1.68145e-12
1.3304e-12
1.06096e-12
5.29418e-13
3.13039e-07
9.15116e-10
9.74921e-12
5.22505e-12
3.76836e-12
2.78248e-12
2.09707e-12
1.61168e-12
1.25038e-12
6.10128e-13
4.01158e-13
4.34369e-13
2.39514e-13
1.57016e-13
2.16364e-13
5.75529e-13
1.27544e-12
5.07398e-12
1.92907e-11
4.84199e-11
5.71258e-13
5.95431e-13
4.74681e-13
3.63233e-13
2.99091e-13
5.15523e-13
1.00476e-12
3.19418e-12
1.13624e-11
3.18178e-11
6.76677e-13
7.32043e-13
6.65759e-13
5.22608e-13
3.97581e-13
4.62375e-13
9.09899e-13
2.19874e-12
7.27733e-12
2.09012e-11
8.67032e-13
9.84262e-13
9.51935e-13
7.63105e-13
5.89284e-13
5.25009e-13
8.58043e-13
1.65354e-12
5.04926e-12
1.41901e-11
1.17323e-12
1.38581e-12
1.34727e-12
1.08439e-12
8.50003e-13
6.89376e-13
8.2169e-13
1.38799e-12
3.76054e-12
9.95709e-12
1.6579e-12
2.00865e-12
1.8978e-12
1.51158e-12
1.18358e-12
9.34361e-13
8.92188e-13
1.38423e-12
2.97373e-12
7.20413e-12
2.4193e-12
2.9712e-12
2.67435e-12
2.08335e-12
1.61108e-12
1.24998e-12
1.05864e-12
1.31938e-12
2.47576e-12
5.36067e-12
3.57267e-12
4.45964e-12
3.78275e-12
2.85674e-12
2.15965e-12
1.64341e-12
1.30895e-12
1.33763e-12
2.15488e-12
4.09467e-12
1.20309e-10
6.18516e-12
5.38485e-12
3.91568e-12
2.87012e-12
2.12951e-12
1.63173e-12
1.45105e-12
1.94434e-12
3.20903e-12
6.51541e-08
1.7778e-09
6.58223e-12
5.28181e-12
3.77065e-12
2.72156e-12
2.02139e-12
1.64532e-12
1.83475e-12
2.58888e-12
2.5114e-12
2.35816e-12
1.50649e-12
1.621e-13
2.71422e-12
8.97904e-12
2.84056e-11
1.19843e-10
3.82502e-10
5.30882e-10
3.5388e-12
3.41182e-12
2.52171e-12
1.13759e-12
1.35317e-12
6.4058e-12
2.01677e-11
7.38354e-11
2.28715e-10
3.41171e-10
4.806e-12
4.6669e-12
3.68734e-12
2.28654e-12
2.43323e-13
4.17058e-12
1.42617e-11
4.85944e-11
1.4512e-10
2.32168e-10
6.46886e-12
6.24035e-12
5.07862e-12
3.56245e-12
1.39884e-12
2.32291e-12
1.00254e-11
3.34865e-11
9.65341e-11
1.63181e-10
8.69878e-12
8.24756e-12
6.76844e-12
5.03195e-12
2.79964e-12
7.70955e-13
6.91522e-12
2.36398e-11
6.66209e-11
1.17587e-10
1.17443e-11
1.08527e-11
8.85682e-12
6.74369e-12
4.29892e-12
1.15427e-12
4.45001e-12
1.67005e-11
4.73159e-11
8.6526e-11
1.59918e-11
1.43093e-11
1.14865e-11
8.77685e-12
5.97275e-12
2.68548e-12
2.4312e-12
1.19552e-11
3.43715e-11
6.48364e-11
2.20799e-11
1.89838e-11
1.48499e-11
1.1235e-11
7.8572e-12
4.28805e-12
1.03329e-12
8.42401e-12
2.53668e-11
4.93285e-11
4.48356e-10
2.54746e-11
1.92372e-11
1.42565e-11
1.00233e-11
6.00223e-12
1.72881e-12
5.68556e-12
1.89213e-11
3.79976e-11
8.29606e-07
2.69266e-09
2.57591e-11
1.80278e-11
1.25364e-11
7.84186e-12
3.24412e-12
3.53449e-12
1.41599e-11
2.95511e-11
3.32477e-12
2.9904e-12
1.96838e-12
1.96376e-12
8.50321e-12
3.0653e-11
1.3784e-10
5.38362e-10
1.01245e-09
1.16224e-09
4.401e-12
4.10075e-12
3.1238e-12
1.64441e-12
5.3014e-12
2.07162e-11
8.38935e-11
3.1343e-10
6.26106e-10
7.03599e-10
5.70725e-12
5.38479e-12
4.42337e-12
2.72253e-12
2.84925e-12
1.36851e-11
5.38307e-11
1.93447e-10
4.0661e-10
4.51036e-10
7.37689e-12
6.93601e-12
5.89035e-12
4.20797e-12
1.94854e-12
8.59209e-12
3.56138e-11
1.24881e-10
2.72372e-10
2.99647e-10
9.56245e-12
8.86057e-12
7.59748e-12
5.84627e-12
3.09315e-12
4.91951e-12
2.3734e-11
8.31689e-11
1.87029e-10
2.04766e-10
1.24961e-11
1.13058e-11
9.6387e-12
7.66223e-12
4.87038e-12
2.54557e-12
1.54472e-11
5.63891e-11
1.312e-10
1.43244e-10
1.65269e-11
1.44846e-11
1.21413e-11
9.73488e-12
6.79249e-12
2.72995e-12
9.66793e-12
3.87516e-11
9.33386e-11
1.02112e-10
2.22105e-11
1.87093e-11
1.52825e-11
1.21602e-11
8.8536e-12
4.56198e-12
5.456e-12
2.66604e-11
6.71733e-11
7.3896e-11
2.25852e-10
2.47963e-11
1.93096e-11
1.50686e-11
1.11297e-11
6.6649e-12
2.78931e-12
1.81025e-11
4.87256e-11
5.40557e-11
1.7413e-07
8.08773e-09
4.81097e-11
1.86002e-11
1.36807e-11
8.82041e-12
2.98099e-12
1.18507e-11
3.54544e-11
3.97951e-11
1.02894e-12
1.28028e-12
1.54038e-12
3.203e-12
8.40823e-12
2.46363e-11
8.5949e-11
2.546e-10
3.73447e-10
3.13246e-10
1.12337e-12
1.29085e-12
1.42038e-12
2.43955e-12
6.01472e-12
1.7269e-11
5.73897e-11
1.63319e-10
2.2816e-10
1.24492e-10
1.22273e-12
1.34402e-12
1.4269e-12
1.97919e-12
4.33084e-12
1.21896e-11
3.91105e-11
1.07866e-10
1.45035e-10
4.76819e-11
1.32754e-12
1.42676e-12
1.51086e-12
1.80561e-12
3.20266e-12
8.63563e-12
2.71729e-11
7.30786e-11
9.53539e-11
2.36501e-11
1.43952e-12
1.5285e-12
1.63203e-12
1.81397e-12
2.53211e-12
6.13833e-12
1.90634e-11
5.06213e-11
6.41945e-11
1.89369e-11
1.56789e-12
1.64696e-12
1.76944e-12
1.9116e-12
2.23371e-12
4.45568e-12
1.34527e-11
3.58234e-11
4.40194e-11
1.7502e-11
1.71896e-12
1.78378e-12
1.91486e-12
2.04962e-12
2.18329e-12
3.36354e-12
9.52123e-12
2.5509e-11
3.05617e-11
1.6029e-11
1.95091e-12
1.94241e-12
2.07237e-12
2.20268e-12
2.25991e-12
2.76357e-12
6.81269e-12
1.83031e-11
2.14123e-11
1.44348e-11
5.82525e-10
9.20671e-12
2.23979e-12
2.36425e-12
2.39579e-12
2.52251e-12
4.96517e-12
1.32146e-11
1.50657e-11
1.28964e-11
2.96593e-07
9.18261e-09
2.82175e-11
2.58732e-12
2.55023e-12
2.49607e-12
3.74464e-12
9.57345e-12
1.05716e-11
1.13741e-11
7.80859e-13
1.48626e-12
1.60528e-12
2.51661e-12
4.13866e-12
6.93771e-12
1.46222e-11
5.56947e-11
2.20007e-10
6.25813e-10
7.16707e-13
1.33498e-12
1.38999e-12
2.14316e-12
3.47838e-12
5.80962e-12
1.11015e-11
3.46376e-11
1.33747e-10
3.63295e-10
6.5396e-13
1.19323e-12
1.19663e-12
1.81657e-12
2.91686e-12
4.82675e-12
8.76999e-12
2.28784e-11
8.51756e-11
2.22547e-10
6.00924e-13
1.07183e-12
1.03563e-12
1.55491e-12
2.45889e-12
4.03097e-12
7.07181e-12
1.60295e-11
5.62913e-11
1.42524e-10
5.54852e-13
9.67713e-13
8.9914e-13
1.33169e-12
2.08236e-12
3.39417e-12
5.78519e-12
1.18194e-11
3.83129e-11
9.45252e-11
5.15582e-13
8.78744e-13
7.8464e-13
1.1509e-12
1.78376e-12
2.86772e-12
4.79346e-12
9.06543e-12
2.67215e-11
6.45548e-11
4.81775e-13
8.02278e-13
6.87276e-13
9.98059e-13
1.52813e-12
2.43294e-12
4.02474e-12
7.16832e-12
1.90478e-11
4.51976e-11
6.68637e-13
7.36588e-13
6.05877e-13
8.68715e-13
1.31829e-12
2.08205e-12
3.40553e-12
5.81141e-12
1.38385e-11
3.23543e-11
8.82549e-10
2.61596e-11
5.78884e-13
7.58805e-13
1.14404e-12
1.79192e-12
2.89917e-12
4.79919e-12
1.02271e-11
2.35995e-11
2.94752e-07
2.90549e-08
1.64666e-10
1.89244e-12
9.71621e-13
1.54083e-12
2.47186e-12
4.01101e-12
7.66086e-12
1.74852e-11
1.0531e-12
1.84227e-12
1.62955e-12
2.16922e-12
3.0175e-12
4.3696e-12
6.79831e-12
1.27653e-11
5.00536e-11
1.69495e-10
9.80258e-13
1.68921e-12
1.46054e-12
1.93646e-12
2.66946e-12
3.80599e-12
5.73149e-12
1.0107e-11
3.54181e-11
1.02854e-10
9.09865e-13
1.54229e-12
1.29784e-12
1.71232e-12
2.34532e-12
3.31396e-12
4.85947e-12
7.97385e-12
2.5127e-11
6.60692e-11
8.48193e-13
1.41397e-12
1.15898e-12
1.51825e-12
2.06916e-12
2.89846e-12
4.18278e-12
6.43927e-12
1.81195e-11
4.44032e-11
7.94629e-13
1.30208e-12
1.03934e-12
1.35158e-12
1.83593e-12
2.55187e-12
3.64038e-12
5.35283e-12
1.3203e-11
3.08822e-11
7.4792e-13
1.20416e-12
9.3552e-13
1.2088e-12
1.63087e-12
2.25461e-12
3.19792e-12
4.55566e-12
9.71785e-12
2.2055e-11
7.06743e-13
1.11765e-12
8.45654e-13
1.08475e-12
1.45471e-12
2.00368e-12
2.82433e-12
3.9422e-12
7.21834e-12
1.60725e-11
9.59503e-13
1.04248e-12
7.6778e-13
9.76608e-13
1.30151e-12
1.78398e-12
2.50207e-12
3.45059e-12
5.41592e-12
1.18961e-11
1.28127e-09
4.63851e-11
7.55248e-13
8.81317e-13
1.16851e-12
1.59274e-12
2.22756e-12
3.04089e-12
4.09952e-12
8.91419e-12
3.61842e-07
5.10335e-08
4.02438e-10
2.53608e-12
1.01018e-12
1.42552e-12
1.98594e-12
2.68882e-12
3.11237e-12
6.73818e-12
1.45539e-12
2.32276e-12
1.64366e-12
1.89627e-12
2.27575e-12
2.82209e-12
3.78609e-12
5.82129e-12
1.39979e-11
2.73465e-11
1.3766e-12
2.17379e-12
1.52639e-12
1.76572e-12
2.11644e-12
2.59871e-12
3.3527e-12
4.77439e-12
1.11465e-11
2.03301e-11
1.29746e-12
2.02554e-12
1.40311e-12
1.62513e-12
1.94854e-12
2.37976e-12
3.00287e-12
4.01043e-12
8.6405e-12
1.52789e-11
1.22753e-12
1.8931e-12
1.2918e-12
1.49647e-12
1.79509e-12
2.18792e-12
2.72695e-12
3.4713e-12
6.65647e-12
1.16513e-11
1.16559e-12
1.77448e-12
1.19183e-12
1.37939e-12
1.6563e-12
2.01658e-12
2.49976e-12
3.07972e-12
5.11769e-12
8.98272e-12
1.11045e-12
1.66758e-12
1.1021e-12
1.27412e-12
1.52803e-12
1.86106e-12
2.29992e-12
2.78112e-12
3.9251e-12
6.96896e-12
1.06145e-12
1.57163e-12
1.0216e-12
1.17859e-12
1.41171e-12
1.71973e-12
2.12695e-12
2.53768e-12
3.00721e-12
5.42802e-12
1.33556e-12
1.48626e-12
9.49044e-13
1.09185e-12
1.30598e-12
1.59093e-12
1.96913e-12
2.33585e-12
2.2985e-12
4.24396e-12
1.6022e-09
6.75274e-11
9.56487e-13
1.01217e-12
1.20917e-12
1.47266e-12
1.82429e-12
2.15937e-12
1.74991e-12
3.32572e-12
2.94903e-07
7.02575e-08
6.36026e-10
2.89099e-12
1.06868e-12
1.36264e-12
1.68651e-12
1.99599e-12
1.31842e-12
2.59931e-12
2.04077e-12
2.93312e-12
1.60584e-12
1.59976e-12
1.66098e-12
1.79892e-12
2.13996e-12
2.92807e-12
6.35739e-12
8.49203e-12
1.95737e-12
2.79809e-12
1.54646e-12
1.55809e-12
1.62755e-12
1.74502e-12
1.9839e-12
2.49586e-12
5.17227e-12
7.03073e-12
1.87359e-12
2.65895e-12
1.46975e-12
1.49589e-12
1.57431e-12
1.68458e-12
1.86529e-12
2.18699e-12
4.09925e-12
5.73093e-12
1.79775e-12
2.53069e-12
1.39507e-12
1.43118e-12
1.51693e-12
1.62695e-12
1.77809e-12
1.98093e-12
3.22865e-12
4.67016e-12
1.72898e-12
2.41208e-12
1.32317e-12
1.36717e-12
1.45857e-12
1.57012e-12
1.7071e-12
1.84263e-12
2.52484e-12
3.80281e-12
1.66701e-12
2.30291e-12
1.25523e-12
1.30375e-12
1.39856e-12
1.51363e-12
1.64828e-12
1.74284e-12
1.95754e-12
3.09262e-12
1.61059e-12
2.20232e-12
1.19141e-12
1.24229e-12
1.33818e-12
1.45603e-12
1.59231e-12
1.66703e-12
1.49468e-12
2.51037e-12
1.87107e-12
2.11159e-12
1.13128e-12
1.18341e-12
1.27986e-12
1.39804e-12
1.53563e-12
1.60493e-12
1.12077e-12
2.03025e-12
1.86555e-09
8.52695e-11
1.25649e-12
1.12637e-12
1.22261e-12
1.34112e-12
1.47945e-12
1.55009e-12
8.20489e-13
1.63332e-12
9.45981e-08
7.91237e-08
1.42574e-09
6.42674e-12
1.11464e-12
1.28077e-12
1.4205e-12
1.4929e-12
5.68103e-13
1.30103e-12
2.83347e-12
3.62717e-12
1.44716e-12
1.21356e-12
1.06583e-12
1.00345e-12
1.13381e-12
1.52338e-12
3.25324e-12
3.73987e-12
2.75186e-12
3.52099e-12
1.4457e-12
1.24723e-12
1.11833e-12
1.03626e-12
1.07577e-12
1.30732e-12
2.78621e-12
3.29739e-12
2.66857e-12
3.40668e-12
1.42271e-12
1.25645e-12
1.14949e-12
1.06604e-12
1.05182e-12
1.15621e-12
2.29379e-12
2.82055e-12
2.59176e-12
3.29708e-12
1.39191e-12
1.25346e-12
1.16744e-12
1.09242e-12
1.05218e-12
1.06692e-12
1.87112e-12
2.40868e-12
2.52077e-12
3.1932e-12
1.35781e-12
1.24291e-12
1.17552e-12
1.11239e-12
1.06287e-12
1.02414e-12
1.50823e-12
2.05238e-12
2.45503e-12
3.09421e-12
1.32064e-12
1.2258e-12
1.17535e-12
1.12607e-12
1.07884e-12
1.00944e-12
1.19583e-12
1.74276e-12
2.39433e-12
3.00098e-12
1.28206e-12
1.20403e-12
1.16894e-12
1.13358e-12
1.09412e-12
1.01013e-12
9.29292e-13
1.47436e-12
2.63781e-12
2.91529e-12
1.24317e-12
1.17991e-12
1.15696e-12
1.13431e-12
1.10542e-12
1.01924e-12
7.01564e-13
1.24341e-12
2.16284e-09
9.61292e-11
1.53236e-12
1.15359e-12
1.14138e-12
1.12998e-12
1.11128e-12
1.03057e-12
5.07558e-13
1.04492e-12
1.36947e-07
7.33501e-08
1.35407e-09
1.09353e-11
1.08945e-12
1.1181e-12
1.11152e-12
1.03802e-12
3.37303e-13
8.78069e-13
3.78049e-12
4.30467e-12
1.13112e-12
7.61704e-13
4.95296e-13
3.50384e-13
4.84889e-13
7.91247e-13
1.97709e-12
2.00931e-12
3.70626e-12
4.23863e-12
1.17532e-12
8.43216e-13
6.00158e-13
4.20914e-13
4.28862e-13
6.39601e-13
1.81284e-12
1.88988e-12
3.63193e-12
4.16582e-12
1.19691e-12
9.00766e-13
6.84117e-13
4.99929e-13
4.24983e-13
5.23312e-13
1.57579e-12
1.69535e-12
3.56136e-12
4.09145e-12
1.20753e-12
9.43479e-13
7.50552e-13
5.74401e-13
4.57495e-13
4.50477e-13
1.36472e-12
1.52009e-12
3.49459e-12
4.018e-12
1.20942e-12
9.73931e-13
8.03652e-13
6.40287e-13
5.06698e-13
4.23594e-13
1.17592e-12
1.36171e-12
3.4324e-12
3.94577e-12
1.20463e-12
9.95462e-13
8.46709e-13
6.98226e-13
5.61522e-13
4.33832e-13
1.00932e-12
1.22014e-12
3.37348e-12
3.87511e-12
1.19506e-12
1.00953e-12
8.7966e-13
7.47022e-13
6.15432e-13
4.66771e-13
8.64119e-13
1.09457e-12
3.59873e-12
3.81034e-12
1.18212e-12
1.01722e-12
9.0469e-13
7.87688e-13
6.65276e-13
5.10904e-13
7.39871e-13
9.83875e-13
2.43424e-09
9.76175e-11
1.74724e-12
1.02144e-12
9.24379e-13
8.21295e-13
7.08901e-13
5.58417e-13
6.36195e-13
8.88119e-13
3.90363e-07
4.9589e-08
1.19093e-09
1.46422e-11
9.40787e-13
8.46503e-13
7.46597e-13
6.02012e-13
5.53658e-13
8.09421e-13
4.69878e-12
4.83169e-12
7.32245e-13
4.97201e-13
2.72375e-13
1.51116e-13
2.65915e-13
4.76024e-13
1.42774e-12
1.27066e-12
4.63535e-12
4.80994e-12
7.74413e-13
5.35487e-13
3.11392e-13
1.24603e-13
1.62887e-13
3.725e-13
1.41657e-12
1.28416e-12
4.57412e-12
4.78362e-12
8.05213e-13
5.72208e-13
3.60767e-13
1.62845e-13
7.59299e-14
2.72631e-13
1.31267e-12
1.21014e-12
4.51444e-12
4.75238e-12
8.2982e-13
6.05132e-13
4.10401e-13
2.21023e-13
4.59213e-14
1.7974e-13
1.21853e-12
1.14191e-12
4.45759e-12
4.71811e-12
8.48387e-13
6.35373e-13
4.57116e-13
2.81104e-13
1.08848e-13
9.55939e-14
1.13222e-12
1.07902e-12
4.40264e-12
4.68116e-12
8.62455e-13
6.61366e-13
4.99755e-13
3.37414e-13
1.76643e-13
3.07078e-14
1.05383e-12
1.02145e-12
4.35054e-12
4.64355e-12
8.72478e-13
6.83777e-13
5.37744e-13
3.89302e-13
2.38985e-13
6.56755e-14
9.84237e-13
9.69559e-13
4.56326e-12
4.60927e-12
8.78242e-13
7.01812e-13
5.71096e-13
4.35599e-13
2.95709e-13
1.29218e-13
9.22427e-13
9.22945e-13
2.63285e-09
9.12028e-11
1.70856e-12
7.18363e-13
5.9986e-13
4.76392e-13
3.47504e-13
1.89544e-13
8.68624e-13
8.80941e-13
6.19986e-07
2.03333e-08
6.97512e-10
1.10896e-11
6.44396e-13
5.13434e-13
3.94244e-13
2.46094e-13
8.22122e-13
8.53944e-13
5.29015e-12
5.10215e-12
4.52742e-13
5.9538e-13
5.09855e-13
4.40061e-13
4.0112e-13
4.29179e-13
1.19994e-12
9.60865e-13
5.23388e-12
5.10866e-12
4.06427e-13
5.3569e-13
4.56794e-13
3.92451e-13
3.55443e-13
3.91767e-13
1.26147e-12
1.0328e-12
5.18205e-12
5.11488e-12
3.7314e-13
4.83093e-13
4.09615e-13
3.47304e-13
3.12479e-13
3.50079e-13
1.22008e-12
1.0106e-12
5.13131e-12
5.11479e-12
3.53369e-13
4.38299e-13
3.69164e-13
3.09423e-13
2.73887e-13
3.11467e-13
1.18076e-12
9.88688e-13
5.08181e-12
5.10965e-12
3.46039e-13
4.02782e-13
3.38084e-13
2.78949e-13
2.40896e-13
2.75749e-13
1.14322e-12
9.68297e-13
5.03449e-12
5.10138e-12
3.47505e-13
3.74986e-13
3.12685e-13
2.5433e-13
2.13695e-13
2.44661e-13
1.10792e-12
9.48858e-13
4.98873e-12
5.0902e-12
3.54304e-13
3.53937e-13
2.94974e-13
2.37221e-13
1.93609e-13
2.16477e-13
1.07415e-12
9.31028e-13
5.19624e-12
5.08153e-12
3.64128e-13
3.38174e-13
2.82593e-13
2.26054e-13
1.7856e-13
1.93686e-13
1.04279e-12
9.12974e-13
2.73493e-09
8.4441e-11
1.50103e-12
3.2676e-13
2.74685e-13
2.20349e-13
1.71634e-13
1.75911e-13
1.01168e-12
8.96032e-13
7.61379e-07
2.24447e-08
5.60873e-10
8.59273e-12
2.53564e-13
2.22174e-13
1.74778e-13
1.69688e-13
9.8338e-13
9.26048e-13
5.29424e-12
5.07319e-12
4.35701e-13
6.19883e-13
5.39472e-13
4.65771e-13
4.12857e-13
4.21042e-13
1.13407e-12
9.17692e-13
5.23785e-12
5.08165e-12
3.65554e-13
5.51193e-13
4.8256e-13
4.17788e-13
3.7242e-13
3.91965e-13
1.2048e-12
9.93074e-13
5.18634e-12
5.09105e-12
3.09154e-13
4.88668e-13
4.29338e-13
3.71944e-13
3.32391e-13
3.55379e-13
1.17117e-12
9.74284e-13
5.13596e-12
5.09341e-12
2.69113e-13
4.32852e-13
3.81512e-13
3.30761e-13
2.95628e-13
3.21916e-13
1.13904e-12
9.55664e-13
5.08734e-12
5.09151e-12
2.46928e-13
3.86286e-13
3.40905e-13
2.94682e-13
2.62487e-13
2.90218e-13
1.1082e-12
9.38548e-13
5.04058e-12
5.08555e-12
2.4023e-13
3.47279e-13
3.06687e-13
2.63743e-13
2.33022e-13
2.60951e-13
1.0789e-12
9.22263e-13
4.99544e-12
5.07674e-12
2.44861e-13
3.14913e-13
2.78265e-13
2.38177e-13
2.08133e-13
2.3446e-13
1.05062e-12
9.07105e-13
5.20293e-12
5.07004e-12
2.56799e-13
2.89167e-13
2.55853e-13
2.17636e-13
1.86583e-13
2.10745e-13
1.02392e-12
8.92086e-13
2.73493e-09
8.4441e-11
1.47303e-12
2.68365e-13
2.3735e-13
2.01762e-13
1.71225e-13
1.90656e-13
9.97757e-13
8.77872e-13
7.61379e-07
2.24447e-08
5.60854e-10
8.56855e-12
1.92026e-13
1.94248e-13
1.65746e-13
1.7985e-13
9.72694e-13
9.22852e-13
4.70329e-12
4.75166e-12
6.4914e-13
5.10891e-13
3.33513e-13
2.26902e-13
2.616e-13
4.14531e-13
1.20034e-12
1.12755e-12
4.64164e-12
4.73808e-12
6.74377e-13
5.18743e-13
3.36129e-13
1.9413e-13
1.82217e-13
3.32702e-13
1.22112e-12
1.15241e-12
4.58266e-12
4.72073e-12
6.97821e-13
5.34215e-13
3.56611e-13
1.97645e-13
1.18631e-13
2.4846e-13
1.1449e-12
1.09023e-12
4.52529e-12
4.69826e-12
7.18368e-13
5.52505e-13
3.8501e-13
2.25142e-13
9.06071e-14
1.70396e-13
1.07581e-12
1.03332e-12
4.47034e-12
4.67199e-12
7.37329e-13
5.72238e-13
4.16916e-13
2.63881e-13
1.15306e-13
1.02688e-13
1.01249e-12
9.81209e-13
4.4177e-12
4.64297e-12
7.52915e-13
5.91853e-13
4.49435e-13
3.06189e-13
1.62165e-13
5.68962e-14
9.55682e-13
9.3473e-13
4.36713e-12
4.61219e-12
7.65564e-13
6.1011e-13
4.80501e-13
3.4813e-13
2.1274e-13
7.10888e-14
9.04898e-13
8.92865e-13
4.58115e-12
4.58415e-12
7.75215e-13
6.26618e-13
5.09322e-13
3.87314e-13
2.61377e-13
1.18201e-13
8.60515e-13
8.55803e-13
2.63286e-09
9.12037e-11
1.64847e-12
6.41577e-13
5.35238e-13
4.2412e-13
3.07382e-13
1.69424e-13
8.22332e-13
8.23814e-13
6.19986e-07
2.03333e-08
6.9747e-10
1.10422e-11
5.73293e-13
4.57714e-13
3.50094e-13
2.19979e-13
7.8961e-13
8.16634e-13
3.78112e-12
4.20368e-12
9.8916e-13
6.55928e-13
3.95327e-13
2.18767e-13
3.32414e-13
6.0718e-13
1.47767e-12
1.6943e-12
3.71286e-12
4.15374e-12
1.039e-12
7.34001e-13
4.98649e-13
3.07994e-13
2.91227e-13
4.85343e-13
1.38631e-12
1.60713e-12
3.64435e-12
4.09537e-12
1.06968e-12
7.94076e-13
5.83672e-13
3.97602e-13
3.03945e-13
3.88741e-13
1.21358e-12
1.444e-12
3.5781e-12
4.03447e-12
1.08907e-12
8.39828e-13
6.52484e-13
4.77632e-13
3.50426e-13
3.31447e-13
1.05787e-12
1.29655e-12
3.51554e-12
3.97246e-12
1.10053e-12
8.76208e-13
7.09322e-13
5.47824e-13
4.09511e-13
3.19078e-13
9.19131e-13
1.16425e-12
3.45633e-12
3.91083e-12
1.1048e-12
9.02817e-13
7.55744e-13
6.09395e-13
4.7134e-13
3.40775e-13
7.97442e-13
1.04604e-12
3.40003e-12
3.84966e-12
1.1042e-12
9.22757e-13
7.92891e-13
6.61548e-13
5.29663e-13
3.83288e-13
6.92834e-13
9.43011e-13
3.62656e-12
3.79332e-12
1.09869e-12
9.36368e-13
8.23479e-13
7.05712e-13
5.83307e-13
4.33452e-13
6.0624e-13
8.52585e-13
2.43425e-09
9.76204e-11
1.68676e-12
9.46648e-13
8.47343e-13
7.4295e-13
6.30571e-13
4.84789e-13
5.36503e-13
7.7614e-13
3.90363e-07
4.9589e-08
1.1909e-09
1.46048e-11
8.68429e-13
7.72127e-13
6.71107e-13
5.31974e-13
4.85119e-13
7.19213e-13
2.83722e-12
3.53604e-12
1.28556e-12
1.03652e-12
8.75585e-13
7.89435e-13
8.62228e-13
1.14352e-12
2.17052e-12
2.99199e-12
2.76516e-12
3.4517e-12
1.30593e-12
1.08943e-12
9.4548e-13
8.45476e-13
8.47191e-13
1.00495e-12
1.89046e-12
2.66154e-12
2.6893e-12
3.35588e-12
1.30266e-12
1.11755e-12
9.94109e-13
8.95109e-13
8.54537e-13
9.11297e-13
1.558e-12
2.28017e-12
2.61794e-12
3.26221e-12
1.29009e-12
1.13133e-12
1.02791e-12
9.37777e-13
8.76943e-13
8.64226e-13
1.26452e-12
1.94751e-12
2.55144e-12
3.17124e-12
1.27077e-12
1.13633e-12
1.05069e-12
9.72488e-13
9.06918e-13
8.49549e-13
1.01127e-12
1.65756e-12
2.48894e-12
3.08356e-12
1.24723e-12
1.1331e-12
1.06444e-12
9.99708e-13
9.37963e-13
8.55659e-13
7.91902e-13
1.40529e-12
2.43095e-12
2.99927e-12
1.22066e-12
1.12474e-12
1.07053e-12
1.01816e-12
9.65286e-13
8.72865e-13
6.01751e-13
1.18731e-12
2.67333e-12
2.92195e-12
1.192e-12
1.11109e-12
1.07093e-12
1.03105e-12
9.86604e-13
8.9466e-13
4.37047e-13
9.99823e-13
2.16284e-09
9.61335e-11
1.4915e-12
1.09542e-12
1.06566e-12
1.03707e-12
1.00325e-12
9.16508e-13
2.97521e-13
8.40112e-13
1.36947e-07
7.33501e-08
1.35405e-09
1.09056e-11
1.02519e-12
1.03578e-12
1.01304e-12
9.33285e-13
1.71651e-13
7.07576e-13
2.0591e-12
2.87317e-12
1.45002e-12
1.38292e-12
1.384e-12
1.44557e-12
1.64293e-12
2.10501e-12
3.74002e-12
6.27929e-12
1.98519e-12
2.76277e-12
1.42316e-12
1.37845e-12
1.39132e-12
1.44433e-12
1.58051e-12
1.87487e-12
3.10272e-12
5.26928e-12
1.90727e-12
2.64204e-12
1.37386e-12
1.34842e-12
1.37401e-12
1.4267e-12
1.52966e-12
1.70947e-12
2.47957e-12
4.31362e-12
1.83561e-12
2.52798e-12
1.3215e-12
1.31134e-12
1.34738e-12
1.40523e-12
1.49462e-12
1.5997e-12
1.96413e-12
3.52578e-12
1.76987e-12
2.421e-12
1.26793e-12
1.2704e-12
1.31576e-12
1.37935e-12
1.46608e-12
1.52817e-12
1.54276e-12
2.87928e-12
1.70917e-12