/*--------------------------------*- C++ -*----------------------------------*\
| =========                 |                                                 |
| \\      /  F ield         | OpenFOAM: The Open Source CFD Toolbox           |
|  \\    /   O peration     | Version:  4.1                                   |
|   \\  /    A nd           | Web:      www.OpenFOAM.org                      |
|    \\/     M anipulation  |                                                 |
\*---------------------------------------------------------------------------*/
FoamFile
{
    version     2.0;
    format      ascii;
    class       surfaceScalarField;
    location    "0.72";
    object      phi;
}
// * * * * * * * * * * * * * * * * * * * * * * * * * * * * * * * * * * * * * //

dimensions      [1 0 -1 0 0 0 0];

internalField   nonuniform List<scalar> 
51500
(
3.63878e-13
1.71562e-14
1.4256e-11
-1.12927e-15
2.15194e-14
1.40965e-11
-2.9987e-15
2.01153e-14
1.39377e-11
-2.86123e-15
1.8637e-14
1.37816e-11
-2.7523e-15
1.71212e-14
1.3627e-11
-2.69014e-15
1.55855e-14
1.34742e-11
-2.79494e-15
1.40654e-14
1.3323e-11
-2.7113e-15
1.25792e-14
1.31748e-11
-2.79035e-15
1.10794e-14
1.30286e-11
9.60509e-15
1.28872e-11
-7.45931e-17
3.65683e-13
9.96045e-15
1.78047e-11
-1.11209e-14
1.0882e-14
1.71856e-11
-1.05727e-14
9.26065e-15
1.6586e-11
-1.03564e-14
7.7191e-15
1.60116e-11
-1.00287e-14
6.31557e-15
1.54621e-11
-9.66534e-15
5.03186e-15
1.4935e-11
-9.39095e-15
4.19459e-15
1.44291e-11
-9.13237e-15
3.36587e-15
1.39443e-11
-8.89551e-15
2.0598e-15
1.34779e-11
8.4628e-16
1.304e-11
-8.49364e-16
3.63203e-13
1.17335e-14
2.25e-11
-2.49058e-14
1.30412e-14
2.11494e-11
-2.10149e-14
1.07588e-14
1.98825e-11
-1.98902e-14
8.72461e-15
1.8707e-11
-1.87894e-14
6.91566e-15
1.76135e-11
-1.79518e-14
5.30454e-15
1.65971e-11
-1.69642e-14
3.88927e-15
1.56529e-11
-1.62313e-14
2.61744e-15
1.47714e-11
-1.5557e-14
1.50783e-15
1.39507e-11
5.7158e-16
1.31965e-11
-1.53957e-15
3.53781e-13
1.54557e-14
2.87931e-11
-4.43145e-14
1.60859e-14
2.62814e-11
-3.47401e-14
1.29099e-14
2.40154e-11
-3.21303e-14
1.01601e-14
2.19735e-11
-2.97102e-14
7.84644e-15
2.01414e-11
-2.75705e-14
5.88101e-15
1.84921e-11
-2.56194e-14
4.21629e-15
1.70044e-11
-2.38458e-14
2.78311e-15
1.566e-11
-2.22632e-14
1.56328e-15
1.44429e-11
5.47254e-16
1.33552e-11
-2.33255e-15
3.31838e-13
2.07618e-14
3.73573e-11
-7.35692e-14
2.01849e-14
3.30069e-11
-5.33184e-14
1.56467e-14
2.92369e-11
-4.78008e-14
1.19473e-14
2.59628e-11
-4.30452e-14
8.9646e-15
2.31263e-11
-3.88984e-14
6.54606e-15
2.06575e-11
-3.53925e-14
4.56147e-15
1.85022e-11
-3.22161e-14
2.95081e-15
1.66157e-11
-2.94353e-14
1.62825e-15
1.49573e-11
5.77286e-16
1.35171e-11
-3.11491e-15
2.88175e-13
2.85307e-14
4.91981e-11
-1.39479e-13
2.58228e-14
4.19322e-11
-7.83334e-14
1.92501e-14
3.59022e-11
-6.80247e-14
1.41586e-14
3.08667e-11
-5.948e-14
1.02941e-14
2.66663e-11
-5.24072e-14
7.29389e-15
2.31399e-11
-4.63984e-14
4.96757e-15
2.01656e-11
-4.13059e-14
3.13197e-15
1.76438e-11
-3.6905e-14
1.69756e-15
1.54945e-11
5.92933e-16
1.3682e-11
-3.99463e-15
2.02598e-13
5.0098e-14
6.58283e-11
-2.2072e-13
4.20963e-14
5.39532e-11
-1.12812e-13
3.00149e-14
4.44927e-11
-9.42721e-14
2.12444e-14
3.69421e-11
-7.98915e-14
1.49127e-14
3.08883e-11
-6.8285e-14
1.02682e-14
2.5996e-11
-5.8961e-14
6.79724e-15
2.20143e-11
-5.12174e-14
4.21003e-15
1.87507e-11
-4.48541e-14
2.2395e-15
1.60567e-11
7.33853e-16
1.38495e-11
-4.85354e-15
1.18239e-13
-4.38322e-13
8.9673e-11
-3.25266e-13
-4.87096e-13
7.03611e-11
-1.59315e-13
-5.06231e-13
5.56929e-11
-1.27785e-13
-5.18453e-13
4.45289e-11
-1.04376e-13
-5.26567e-13
3.59562e-11
-8.64796e-14
-5.31915e-13
2.93017e-11
-7.24425e-14
-5.35392e-13
2.40839e-11
-6.13929e-14
-5.37626e-13
1.99541e-11
-5.22543e-14
-5.3904e-13
1.66532e-11
-5.48742e-13
1.40312e-11
-5.80048e-15
3.44911e-12
-8.94166e-10
1.73913e-10
2.9932e-12
-9.68398e-10
1.35628e-10
2.71241e-12
-9.76164e-10
1.09791e-10
2.4628e-12
-9.81944e-10
9.08295e-11
2.24138e-12
-9.86585e-10
7.67594e-11
2.04567e-12
-9.90353e-10
6.61645e-11
1.87262e-12
-9.93438e-10
5.80879e-11
1.71926e-12
-9.95985e-10
5.18616e-11
1.54165e-12
-9.98199e-10
4.7011e-11
-1.02262e-09
4.37207e-11
-6.77475e-15
-4.51253e-10
1.5935e-07
-8.36717e-07
3.286e-10
1.35614e-07
-9.36355e-07
3.64558e-10
1.19039e-07
-9.38483e-07
3.5494e-10
1.0521e-07
-9.4002e-07
3.44379e-10
9.35585e-08
-9.41368e-07
3.3349e-10
8.3673e-08
-9.42566e-07
3.22575e-10
7.52281e-08
-9.43642e-07
3.05698e-10
6.79665e-08
-9.44619e-07
9.87722e-11
6.16921e-08
-9.45616e-07
5.74908e-08
-7.8429e-15
-9.89207e-07
3.41245e-13
8.84779e-14
7.00553e-13
-1.78854e-14
8.35325e-14
6.88624e-13
-2.52163e-14
7.36428e-14
6.77661e-13
-2.43484e-14
6.40474e-14
6.64953e-13
-2.39207e-14
5.47887e-14
6.53739e-13
-2.37343e-14
4.58138e-14
6.43259e-13
-2.36533e-14
3.71409e-14
6.31287e-13
-2.3401e-14
2.87716e-14
6.2112e-13
-2.53387e-14
2.06165e-14
6.10682e-13
1.29023e-14
5.99731e-13
-1.58424e-15
2.85204e-13
8.25308e-14
9.69987e-13
-6.93145e-14
7.51457e-14
9.21314e-13
-8.44292e-14
6.36217e-14
8.7506e-13
-8.11355e-14
5.2624e-14
8.30143e-13
-7.89604e-14
4.18618e-14
7.88217e-13
-7.67801e-14
2.92635e-14
7.47906e-13
-7.45611e-14
2.06213e-14
7.1147e-13
-7.34856e-14
1.35304e-14
6.75751e-13
-7.72034e-14
7.53388e-15
6.43613e-13
2.53486e-15
6.11068e-13
-4.25766e-15
2.01805e-13
1.04223e-13
1.36624e-12
-1.75351e-13
9.30337e-14
1.24642e-12
-1.60076e-13
7.786e-14
1.14311e-12
-1.5173e-13
6.38399e-14
1.04283e-12
-1.44406e-13
5.12253e-14
9.54807e-13
-1.37756e-13
3.97713e-14
8.748e-13
-1.31751e-13
2.93912e-14
8.02797e-13
-1.2649e-13
2.00544e-14
7.37501e-13
-1.31846e-13
1.16279e-14
6.77565e-13
4.16256e-15
6.24101e-13
-6.81486e-15
8.13314e-14
1.27694e-13
1.95951e-12
-3.03788e-13
1.10816e-13
1.71515e-12
-2.57666e-13
9.06104e-14
1.50938e-12
-2.3837e-13
7.27124e-14
1.32401e-12
-2.22618e-13
5.70698e-14
1.165e-12
-2.08232e-13
4.33884e-14
1.02779e-12
-1.94959e-13
3.14772e-14
9.0979e-13
-1.83675e-13
2.10789e-14
8.0758e-13
-1.87939e-13
1.199e-14
7.15829e-13
4.15428e-15
6.36015e-13
-9.7923e-15
-3.84097e-14
1.58174e-13
2.86981e-12
-4.66139e-13
1.33125e-13
2.40057e-12
-3.82154e-13
1.06254e-13
2.01986e-12
-3.45523e-13
8.32049e-14
1.69667e-12
-3.15787e-13
6.37888e-14
1.43212e-12
-2.88934e-13
4.74557e-14
1.21498e-12
-2.65096e-13
3.36844e-14
1.03455e-12
-2.45119e-13
2.21008e-14
8.83992e-13
-2.46298e-13
1.23278e-14
7.57403e-13
4.25165e-15
6.50338e-13
-1.28513e-14
-1.71628e-13
1.97519e-13
4.30342e-12
-6.77336e-13
1.62087e-13
3.41674e-12
-5.41729e-13
1.25554e-13
2.73897e-12
-4.77954e-13
9.57916e-14
2.19384e-12
-4.26485e-13
7.16393e-14
1.77239e-12
-3.81734e-13
5.20092e-14
1.44195e-12
-3.42865e-13
3.61185e-14
1.1812e-12
-3.10902e-13
2.31843e-14
9.72528e-13
-3.06681e-13
1.27364e-14
8.04792e-13
4.233e-15
6.66331e-13
-1.58326e-14
-5.74622e-13
2.54151e-13
6.61432e-12
-9.58658e-13
2.11613e-13
4.96105e-12
-7.45912e-13
1.59672e-13
3.76653e-12
-6.41444e-13
1.19112e-13
2.86401e-12
-5.58439e-13
8.75384e-14
2.2086e-12
-4.88063e-13
6.28142e-14
1.71976e-12
-4.29155e-13
4.32308e-14
1.35147e-12
-3.80769e-13
2.75786e-14
1.07248e-12
-3.69659e-13
1.46166e-14
8.54107e-13
3.59061e-15
6.83907e-13
-1.88324e-14
-1.06823e-12
3.02608e-13
1.04554e-11
-1.33456e-12
2.03364e-13
7.3587e-12
-1.00822e-12
1.40933e-13
5.25914e-12
-8.4302e-13
9.53042e-14
3.78602e-12
-7.14642e-13
6.1589e-14
2.77505e-12
-6.10189e-13
3.63064e-14
2.06278e-12
-5.2398e-13
1.71636e-14
1.55529e-12
-4.55932e-13
2.50469e-15
1.18489e-12
-4.34437e-13
-8.81441e-15
9.1017e-13
-1.76638e-14
7.02255e-13
-2.19382e-14
-1.91746e-12
2.35293e-12
2.1391e-11
-1.15464e-12
-5.15237e-11
1.13496e-11
-9.2383e-13
-4.68525e-11
7.83196e-12
-7.77655e-13
-4.27554e-11
5.6007e-12
-6.66854e-13
-3.95242e-11
4.17761e-12
-5.80594e-13
-3.69535e-11
3.24031e-12
-5.14007e-13
-3.49013e-11
2.60709e-12
-4.70773e-13
-3.3259e-11
2.16887e-12
-5.73582e-13
-3.19494e-11
1.85363e-12
-3.13025e-11
1.62438e-12
-2.51058e-14
-1.07714e-09
1.59082e-08
9.42391e-08
-2.39371e-10
8.61143e-09
-1.78448e-09
-3.47195e-10
6.49645e-09
-2.10944e-09
-3.39175e-10
5.00467e-09
-2.09765e-09
-3.30103e-10
3.91522e-09
-2.07358e-09
-3.20541e-10
3.10533e-09
-2.04392e-09
-3.10813e-10
2.49408e-09
-2.01193e-09
-3.01217e-10
2.02633e-09
-1.97995e-09
-2.98276e-10
1.66422e-09
-1.9575e-09
1.39881e-09
-2.84829e-14
-2.49833e-09
3.43257e-13
8.22432e-14
2.60562e-14
-1.63745e-14
7.80717e-14
2.43545e-14
-2.26256e-14
6.88595e-14
2.28697e-14
-2.03357e-14
5.99875e-14
2.141e-14
-1.86237e-14
5.14011e-14
1.92555e-14
-2.04652e-14
4.30389e-14
1.69658e-14
-1.90556e-14
3.50642e-14
1.61801e-14
-1.95233e-14
2.72843e-14
1.51393e-14
-2.35341e-14
1.97696e-14
1.42048e-14
1.26437e-14
1.42128e-14
-1.30646e-15
2.91906e-13
5.95807e-14
4.17501e-14
-6.47252e-14
5.4674e-14
3.77546e-14
-7.27425e-14
4.63746e-14
3.64149e-14
-6.73659e-14
3.83984e-14
3.13448e-14
-6.63473e-14
3.09953e-14
2.7737e-14
-6.26049e-14
2.41769e-14
2.57984e-14
-6.21057e-14
1.78422e-14
2.11347e-14
-6.12714e-14
1.20783e-14
1.89866e-14
-7.13382e-14
6.87306e-15
1.79352e-14
2.42709e-15
1.60367e-14
-4.45217e-15
2.13126e-13
7.62339e-14
6.34129e-14
-1.65291e-13
6.89095e-14
5.71785e-14
-1.38261e-13
5.80292e-14
5.39501e-14
-1.26015e-13
4.80495e-14
4.73079e-14
-1.19954e-13
3.90171e-14
4.04745e-14
-1.13361e-13
3.08004e-14
3.41828e-14
-1.08339e-13
2.38572e-14
2.94356e-14
-1.06389e-13
1.65949e-14
2.60211e-14
-1.21235e-13
9.61498e-15
2.2544e-14
3.3298e-15
1.88816e-14
-7.24009e-15
9.2224e-14
9.47978e-14
1.01365e-13
-2.89207e-13
8.3021e-14
9.20379e-14
-2.21975e-13
6.8209e-14
8.43763e-14
-1.97735e-13
5.51922e-14
6.99011e-14
-1.84245e-13
4.3882e-14
5.84413e-14
-1.70955e-13
3.45728e-14
4.93886e-14
-1.57651e-13
2.59032e-14
4.15811e-14
-1.54517e-13
1.72275e-14
3.50784e-14
-1.73185e-13
9.85968e-15
3.13755e-14
3.49797e-15
2.39592e-14
-1.04196e-14
-2.59694e-14
1.19618e-13
1.71495e-13
-4.46595e-13
1.0083e-13
1.49839e-13
-3.28869e-13
8.08102e-14
1.32671e-13
-2.75066e-13
6.36386e-14
1.07132e-13
-2.5164e-13
4.93251e-14
8.65114e-14
-2.28545e-13
3.7717e-14
7.03932e-14
-2.07491e-13
2.8033e-14
5.85449e-14
-2.04255e-13
1.85243e-14
4.9804e-14
-2.27016e-13
1.04727e-14
4.24409e-14
3.67211e-15
3.14975e-14
-1.31158e-14
-1.62763e-13
1.52539e-13
2.95729e-13
-6.5259e-13
1.24851e-13
2.52561e-13
-4.63694e-13
9.66374e-14
2.10449e-13
-3.70887e-13
7.38499e-14
1.6293e-13
-3.30141e-13
5.58586e-14
1.28337e-13
-2.92776e-13
4.15535e-14
1.01944e-13
-2.61843e-13
2.98856e-14
8.25605e-14
-2.55881e-13
1.94463e-14
6.86974e-14
-2.8302e-13
1.05481e-14
5.44848e-14
3.61315e-15
3.93576e-14
-1.64911e-14
-5.77764e-13
1.90909e-13
5.19628e-13
-9.30341e-13
1.55128e-13
4.24484e-13
-5.96697e-13
1.16213e-13
3.32539e-13
-4.92782e-13
8.634e-14
2.49256e-13
-4.27584e-13
6.34608e-14
1.88532e-13
-3.70546e-13
4.72287e-14
1.45382e-13
-3.22284e-13
3.31777e-14
1.15341e-13
-3.01554e-13
2.09464e-14
9.14438e-14
-3.40935e-13
1.14623e-14
7.35035e-14
4.09131e-15
4.971e-14
-1.96184e-14
-1.10558e-12
3.31501e-13
9.40745e-13
-1.30593e-12
2.24812e-13
7.18758e-13
-7.94659e-13
1.57923e-13
5.30221e-13
-6.47028e-13
1.10463e-13
3.76614e-13
-5.43984e-13
7.6494e-14
2.75248e-13
-4.59217e-13
5.18319e-14
2.05709e-13
-3.91482e-13
3.3739e-14
1.555e-13
-3.46218e-13
2.04147e-14
1.20617e-13
-4.01126e-13
1.04935e-14
9.60116e-14
3.20959e-15
6.14007e-14
-2.29346e-14
-2.27301e-12
5.61173e-11
6.25157e-12
-1.75495e-12
9.52043e-13
1.07367e-12
-1.05767e-12
2.35631e-13
7.1017e-13
-8.42321e-13
2.52947e-14
4.95045e-13
-6.88847e-13
-1.30463e-13
3.58368e-13
-5.69107e-13
-2.43734e-13
2.68594e-13
-4.74752e-13
-3.25517e-13
2.07246e-13
-4.10507e-13
-3.83846e-13
1.63825e-13
-4.73083e-13
-4.24282e-13
1.32512e-13
-4.48115e-13
9.16646e-14
-2.63158e-14
-6.98269e-10
6.34474e-09
8.38667e-08
-4.48193e-11
4.27544e-10
1.84507e-10
-4.50824e-11
2.34224e-10
-7.3287e-11
-3.80897e-11
1.55852e-10
-5.98897e-11
-3.22273e-11
1.06734e-10
-4.73444e-11
-2.74823e-11
7.47423e-11
-3.6629e-11
-2.36071e-11
5.34404e-11
-2.69307e-11
-2.04181e-11
3.89541e-11
-2.17775e-11
-1.77977e-11
2.8894e-11
-1.83106e-11
2.16571e-11
-2.98069e-14
-1.65166e-11
3.43491e-13
8.11218e-14
1.07978e-14
-1.63064e-14
7.70907e-14
9.71075e-15
-2.21475e-14
6.80334e-14
8.11577e-15
-2.00181e-14
5.92558e-14
6.49385e-15
-1.87521e-14
5.08145e-14
5.00178e-15
-1.95501e-14
4.26405e-14
4.12007e-15
-1.81264e-14
3.47072e-14
2.60257e-15
-1.92031e-14
2.70424e-14
1.15775e-15
-2.3075e-14
1.96633e-14
7.62102e-16
1.2623e-14
4.4005e-16
-1.54867e-15
2.93172e-13
5.82101e-14
1.81404e-14
-6.38765e-14
5.35075e-14
1.57269e-14
-7.13888e-14
4.53852e-14
1.63198e-14
-6.45309e-14
3.76842e-14
1.30351e-14
-6.18857e-14
3.04412e-14
9.65873e-15
-6.20753e-14
2.37056e-14
7.22729e-15
-5.89568e-14
1.75736e-14
6.10756e-15
-5.89291e-14
1.19327e-14
4.7582e-15
-7.03452e-14
6.79316e-15
3.77707e-15
2.42553e-15
2.39329e-15
-4.33724e-15
2.16191e-13
7.39651e-14
2.648e-14
-1.62763e-13
6.6934e-14
2.47094e-14
-1.33539e-13
5.62401e-14
2.60635e-14
-1.16819e-13
4.62844e-14
2.01459e-14
-1.13895e-13
3.73686e-14
1.66978e-14
-1.03666e-13
2.93353e-14
1.3828e-14
-9.85521e-14
2.18098e-14
1.08608e-14
-1.03477e-13
1.50027e-14
9.12054e-15
-1.19486e-13
9.40994e-15
7.84049e-15
3.09005e-15
5.89041e-15
-7.11107e-15
9.61801e-14
9.19899e-14
4.34403e-14
-2.84876e-13
8.04775e-14
4.27636e-14
-2.14098e-13
6.6025e-14
4.4612e-14
-1.79213e-13
5.33002e-14
3.66305e-14
-1.67066e-13
4.20614e-14
2.98784e-14
-1.55612e-13
3.21932e-14
2.50455e-14
-1.44574e-13
2.35637e-14
2.06762e-14
-1.47995e-13
1.59555e-14
1.75897e-14
-1.70916e-13
9.56292e-15
1.48739e-14
3.60534e-15
1.03783e-14
-1.05172e-14
-1.97101e-14
1.15943e-13
7.58804e-14
-4.39356e-13
9.78763e-14
7.81366e-14
-3.09743e-13
7.82434e-14
7.61757e-14
-2.58324e-13
6.13527e-14
6.14532e-14
-2.35031e-13
4.73327e-14
5.11283e-14
-2.13861e-13
3.551e-14
4.1932e-14
-1.94986e-13
2.5591e-14
3.46938e-14
-1.95325e-13
1.77936e-14
3.03963e-14
-2.23921e-13
9.51243e-15
2.73054e-14
3.54969e-15
1.75715e-14
-1.33563e-14
-1.53856e-13
1.47788e-13
1.35924e-13
-6.41462e-13
1.2098e-13
1.3765e-13
-4.17685e-13
9.34406e-14
1.28835e-13
-3.54802e-13
7.13245e-14
1.03628e-13
-3.15823e-13
5.35432e-14
8.37441e-14
-2.80468e-13
3.90889e-14
6.9438e-14
-2.50107e-13
2.74495e-14
5.74031e-14
-2.38212e-13
1.78527e-14
4.78078e-14
-2.78955e-13
1.04943e-14
4.20668e-14
3.69132e-15
2.72385e-14
-1.67032e-14
-5.57897e-13
1.86017e-13
2.42549e-13
-9.1317e-13
1.50596e-13
2.45894e-13
-5.67073e-13
1.12747e-13
2.13287e-13
-4.75247e-13
8.33774e-14
1.67868e-13
-4.11953e-13
6.08796e-14
1.32946e-13
-3.56829e-13
4.35002e-14
1.07532e-13
-3.11902e-13
2.97334e-14
8.6619e-14
-2.82347e-13
1.90422e-14
7.30654e-14
-3.36624e-13
1.09122e-14
6.15095e-14
3.42765e-15
3.92799e-14
-1.9907e-14
-1.07596e-12
3.25097e-13
4.40419e-13
-1.27843e-12
1.80559e-13
4.29246e-13
-7.65208e-13
1.92347e-13
3.48894e-13
-6.25497e-13
1.35157e-13
2.65326e-13
-5.26172e-13
9.39969e-14
2.0438e-13
-4.45335e-13
6.42681e-14
1.59647e-13
-3.79756e-13
4.25155e-14
1.28122e-13
-3.32694e-13
2.64439e-14
1.04398e-13
-3.96704e-13
1.43461e-14
8.52574e-14
5.27795e-15
5.54796e-14
-2.29218e-14
-2.23554e-12
5.76903e-11
9.30207e-12
-1.70557e-12
8.13661e-13
8.04043e-13
-1.02376e-12
2.53421e-13
5.64722e-13
-8.13967e-13
1.62743e-13
4.14364e-13
-6.63654e-13
1.04352e-13
3.07491e-13
-5.46581e-13
6.48867e-14
2.33584e-13
-4.54537e-13
3.80952e-14
1.79972e-13
-3.88815e-13
1.97367e-14
1.41475e-13
-4.5857e-13
7.0957e-15
1.11626e-13
-1.43133e-15
6.86087e-14
-2.64478e-14
-6.49766e-10
9.1038e-09
8.37592e-08
-7.55933e-12
9.18841e-11
2.80646e-10
-2.58915e-12
7.58375e-12
3.30358e-14
-2.89101e-12
4.22526e-12
-2.53643e-13
-2.21079e-12
2.59423e-12
-6.38659e-14
-1.71146e-12
1.66322e-12
4.58331e-14
-1.34579e-12
1.10189e-12
1.08782e-13
-1.07708e-12
7.52382e-13
1.4295e-13
-9.22473e-13
5.24423e-13
1.59393e-13
3.40712e-13
-3.01066e-14
2.64577e-13
3.43374e-13
8.12031e-14
1.83725e-14
-1.6671e-14
7.7139e-14
1.54513e-14
-2.22064e-14
6.81257e-14
1.23642e-14
-2.05159e-14
5.9333e-14
7.64417e-15
-1.71924e-14
5.08596e-14
7.16906e-15
-2.01192e-14
4.26375e-14
3.48398e-15
-1.91291e-14
3.47616e-14
5.48231e-15
-1.88474e-14
2.71154e-14
4.54343e-15
-2.30643e-14
1.97015e-14
8.85083e-16
1.26593e-14
3.32608e-16
-1.82992e-15
2.9287e-13
5.83025e-14
2.59374e-14
-6.40011e-14
5.36144e-14
2.66022e-14
-7.16379e-14
4.54444e-14
1.94287e-14
-6.53855e-14
3.76828e-14
1.67687e-14
-6.28863e-14
3.04955e-14
1.12638e-14
-6.06429e-14
2.37915e-14
9.19142e-15
-5.94208e-14
1.75981e-14
6.38363e-15
-5.94503e-14
1.19656e-14
7.50453e-15
-7.03573e-14
6.8471e-15
6.24028e-15
2.4837e-15
1.55972e-15
-4.36478e-15
2.15854e-13
7.40908e-14
3.86422e-14
-1.6325e-13
6.70257e-14
3.58695e-14
-1.3477e-13
5.63585e-14
3.49503e-14
-1.14578e-13
4.65149e-14
3.21932e-14
-1.11342e-13
3.74708e-14
2.29875e-14
-1.05205e-13
2.94142e-14
1.67102e-14
-9.81629e-14
2.201e-14
1.51673e-14
-1.03661e-13
1.51355e-14
1.18238e-14
-1.1936e-13
9.08514e-15
1.27266e-14
3.04908e-15
6.22052e-15
-7.4309e-15
9.58343e-14
9.22305e-14
6.44635e-14
-2.85471e-13
8.07771e-14
6.34468e-14
-2.14625e-13
6.62136e-14
6.21655e-14
-1.79742e-13
5.33704e-14
5.00875e-14
-1.66681e-13
4.22143e-14
4.1691e-14
-1.56193e-13
3.22188e-14
3.33472e-14
-1.44387e-13
2.35177e-14
3.12365e-14
-1.48601e-13
1.61008e-14
2.54391e-14
-1.70963e-13
1.0023e-14
2.531e-14
3.77226e-15
1.98394e-14
-1.01601e-14
-2.01895e-14
1.16376e-13
1.09806e-13
-4.40601e-13
9.81676e-14
1.09609e-13
-3.12193e-13
7.85806e-14
1.07402e-13
-2.57994e-13
6.16878e-14
9.08676e-14
-2.35772e-13
4.75496e-14
7.35988e-14
-2.14543e-13
3.58383e-14
6.38376e-14
-1.94727e-13
2.60089e-14
5.67437e-14
-1.93417e-13
1.73774e-14
4.34641e-14
-2.24459e-13
9.4183e-15
3.55885e-14
3.71416e-15
2.44247e-14
-1.32975e-14
-1.55054e-13
1.48423e-13
1.8904e-13
-6.43142e-13
1.21636e-13
2.00759e-13
-4.18866e-13
9.39137e-14
1.80671e-13
-3.55783e-13
7.17314e-14
1.47047e-13
-3.16077e-13
5.39081e-14
1.20103e-13
-2.81312e-13
3.93666e-14
9.97424e-14
-2.50886e-13
2.75551e-14
7.94759e-14
-2.35999e-13
1.8335e-14
7.14455e-14
-2.79678e-13
1.07625e-14
5.88916e-14
3.78214e-15
3.73782e-14
-1.66147e-14
-5.60892e-13
1.86898e-13
3.37506e-13
-9.16628e-13
1.51504e-13
3.47619e-13
-5.68424e-13
1.13468e-13
3.08243e-13
-4.76858e-13
8.39315e-14
2.35597e-13
-4.12946e-13
6.13349e-14
1.93682e-13
-3.58397e-13
4.37858e-14
1.52249e-13
-3.12283e-13
3.01464e-14
1.26533e-13
-2.83012e-13
1.91457e-14
1.02905e-13
-3.37794e-13
1.11463e-14
8.54789e-14
4.07201e-15
5.54763e-14
-1.98361e-14
-1.082e-12
3.28658e-13
6.0309e-13
-1.28417e-12
1.89502e-13
6.09907e-13
-7.67942e-13
1.39642e-13
5.01562e-13
-6.28056e-13
1.0127e-13
3.80784e-13
-5.2847e-13
7.27098e-14
2.96261e-13
-4.46943e-13
5.43007e-14
2.35825e-13
-3.81225e-13
3.66736e-14
1.83339e-13
-3.34158e-13
2.31228e-14
1.49468e-13
-3.98192e-13
1.26437e-14
1.23175e-13
4.8637e-15
7.74594e-14
-2.3131e-14
-2.26827e-12
6.0687e-11
1.44418e-11
-1.71034e-12
7.48391e-13
1.17751e-12
-1.02899e-12
1.67664e-13
8.15794e-13
-8.18786e-13
1.72968e-13
5.90867e-13
-6.67145e-13
1.14707e-13
4.435e-13
-5.49622e-13
7.41332e-14
3.35944e-13
-4.56705e-13
4.54335e-14
2.55314e-13
-3.90858e-13
2.02735e-14
2.05833e-13
-4.60872e-13
8.41016e-15
1.62795e-13
3.26461e-15
1.02852e-13
-2.65252e-14
-6.81919e-10
1.45296e-08
8.83821e-08
-5.64222e-12
1.24998e-10
3.1236e-10
-1.40144e-12
2.2248e-12
1.05165e-12
-1.09073e-12
9.03691e-13
1.60058e-13
-8.59136e-13
7.28741e-13
8.49231e-14
-6.8382e-13
4.63129e-13
6.30791e-14
-5.5219e-13
3.34256e-13
4.92249e-14
-4.59344e-13
2.47103e-13
3.9264e-14
-5.31907e-13
1.86083e-13
3.18096e-14
1.15153e-13
-3.00638e-14
2.80777e-14
3.43039e-13
8.13527e-14
2.22361e-14
-1.6994e-14
7.72882e-14
1.48835e-14
-2.28517e-14
6.81902e-14
1.8453e-14
-1.98895e-14
5.94406e-14
1.31495e-14
-1.95334e-14
5.09056e-14
7.62529e-15
-1.92201e-14
4.27037e-14
4.52447e-15
-1.88621e-14
3.47783e-14
2.04231e-15
-1.98803e-14
2.71432e-14
1.23887e-15
-2.30648e-14
1.97715e-14
1.29617e-15
1.26794e-14
1.60375e-15
-1.55605e-15
2.92504e-13
5.84892e-14
3.7786e-14
-6.46956e-14
5.37717e-14
3.40506e-14
-7.10423e-14
4.56232e-14
3.2329e-14
-6.69744e-14
3.78096e-14
2.096e-14
-6.13733e-14
3.06217e-14
2.12065e-14
-6.1546e-14
2.38654e-14
1.1931e-14
-5.73096e-14
1.76842e-14
8.2261e-15
-5.93565e-14
1.20219e-14
5.3512e-15
-7.07321e-14
6.90874e-15
4.60215e-15
2.54768e-15
4.94274e-15
-4.37042e-15
2.15189e-13
7.44087e-14
4.83482e-14
-1.64254e-13
6.72909e-14
5.17776e-14
-1.3484e-13
5.65758e-14
5.44961e-14
-1.15506e-13
4.66554e-14
4.28726e-14
-1.14806e-13
3.75998e-14
3.14339e-14
-1.03905e-13
2.9544e-14
2.65655e-14
-9.89948e-14
2.21804e-14
1.77181e-14
-1.03175e-13
1.53802e-14
1.86408e-14
-1.19666e-13
9.4761e-15
1.20206e-14
3.39834e-15
8.58503e-15
-7.49726e-15
9.50274e-14
9.27288e-14
9.07273e-14
-2.86796e-13
8.11949e-14
8.82358e-14
-2.15527e-13
6.65744e-14
9.19392e-14
-1.80138e-13
5.37268e-14
7.55154e-14
-1.67823e-13
4.25344e-14
5.84958e-14
-1.55664e-13
3.25597e-14
4.18708e-14
-1.45142e-13
2.37389e-14
3.38504e-14
-1.4872e-13
1.62205e-14
3.09756e-14
-1.71131e-13
9.96705e-15
2.59198e-14
3.54006e-15
1.50924e-14
-1.02687e-14
-2.16248e-14
1.17132e-13
1.57929e-13
-4.42641e-13
9.88603e-14
1.6141e-13
-3.12719e-13
7.90966e-14
1.58692e-13
-2.59058e-13
6.2106e-14
1.27381e-13
-2.36352e-13
4.78623e-14
1.05102e-13
-2.15596e-13
3.61156e-14
8.46569e-14
-1.95179e-13
2.60723e-14
6.12579e-14
-1.95044e-13
1.76076e-14
5.23628e-14
-2.24895e-13
9.85582e-15
4.36907e-14
3.98246e-15
2.77099e-14
-1.32886e-14
-1.57192e-13
1.4967e-13
2.7537e-13
-6.46686e-13
1.22627e-13
2.87615e-13
-4.20611e-13
9.47804e-14
2.65114e-13
-3.57462e-13
7.23672e-14
2.07209e-13
-3.17006e-13
5.45159e-14
1.68361e-13
-2.83321e-13
3.97508e-14
1.31226e-13
-2.51366e-13
2.80484e-14
1.12375e-13
-2.36658e-13
1.85026e-14
8.15064e-14
-2.80705e-13
1.09898e-14
6.85043e-14
3.89831e-15
4.44888e-14
-1.64313e-14
-5.67095e-13
1.88602e-13
4.91639e-13
-9.22163e-13
1.53063e-13
5.04919e-13
-5.72664e-13
1.14638e-13
4.33716e-13
-4.78957e-13
8.49134e-14
3.42156e-13
-4.15679e-13
6.20483e-14
2.66395e-13
-3.60108e-13
4.44815e-14
2.11816e-13
-3.14144e-13
3.06769e-14
1.69773e-13
-2.83945e-13
1.96293e-14
1.23023e-13
-3.39342e-13
1.15319e-14
1.02527e-13
4.4614e-15
6.38688e-14
-1.97451e-14
-1.09338e-12
3.33353e-13
8.91894e-13
-1.29386e-12
1.9443e-13
8.84849e-13
-7.73713e-13
1.40335e-13
7.14569e-13
-6.32515e-13
1.01652e-13
5.38141e-13
-5.32051e-13
7.27535e-14
4.10446e-13
-4.50095e-13
5.39052e-14
3.14355e-13
-3.83844e-13
3.68718e-14
2.48236e-13
-3.36195e-13
2.35143e-14
1.78508e-13
-4.00453e-13
1.30096e-14
1.40558e-13
5.18296e-15
8.83665e-14
-2.30289e-14
-2.30953e-12
6.44556e-11
1.87474e-11
-1.72161e-12
7.7929e-13
1.68221e-12
-1.03849e-12
1.64637e-13
1.16478e-12
-8.25902e-13
1.65597e-13
8.42645e-13
-6.72946e-13
1.08308e-13
6.17431e-13
-5.54566e-13
6.69884e-14
4.58974e-13
-4.60153e-13
3.1632e-14
3.42843e-13
-3.94115e-13
1.75059e-14
2.57211e-13
-4.64324e-13
9.06404e-15
1.93552e-13
3.72727e-15
1.17317e-13
-2.65502e-14
-7.28089e-10
1.96834e-08
9.53427e-08
-5.82688e-12
1.83654e-10
3.37985e-10
-1.39587e-12
2.48105e-12
1.12892e-12
-1.06576e-12
1.11784e-12
8.93805e-14
-8.43695e-13
8.01146e-13
6.44972e-14
-6.74165e-13
5.84584e-13
4.98567e-14
-5.46288e-13
4.30929e-13
3.92925e-14
-4.55367e-13
3.24408e-13
3.15124e-14
-5.30806e-13
2.46323e-13
2.56787e-14
1.46074e-13
-3.02872e-14
2.12754e-14
3.42523e-13
8.15578e-14
2.92204e-14
-1.72323e-14
7.74899e-14
2.82462e-14
-2.34467e-14
6.83099e-14
2.23951e-14
-1.98742e-14
5.95451e-14
1.78944e-14
-1.99452e-14
5.1025e-14
8.25535e-15
-1.9823e-14
4.27956e-14
5.91454e-15
-1.92175e-14
3.4879e-14
5.5792e-15
-1.95722e-14
2.72295e-14
6.57537e-15
-2.29539e-14
1.985e-14
1.56973e-14
1.2758e-14
4.40879e-14
-1.71217e-15
2.91963e-13
5.86905e-14
5.05156e-14
-6.53107e-14
5.39577e-14
4.50492e-14
-7.16592e-14
4.58148e-14
4.45353e-14
-6.61736e-14
3.79734e-14
3.48205e-14
-6.40721e-14
3.071e-14
1.91228e-14
-6.10743e-14
2.39815e-14
1.2681e-14
-5.95315e-14
1.77763e-14
1.07778e-14
-5.90714e-14
1.21427e-14
1.1158e-14
-7.06821e-14
6.99377e-15
1.30395e-14
2.61308e-15
3.26176e-14
-4.4925e-15
2.14414e-13
7.48062e-14
7.34552e-14
-1.65317e-13
6.75823e-14
6.86222e-14
-1.35453e-13
5.68278e-14
6.95082e-14
-1.1738e-13
4.68738e-14
5.58731e-14
-1.11991e-13
3.78081e-14
4.34816e-14
-1.05833e-13
2.96202e-14
2.3911e-14
-9.76751e-14
2.23077e-14
2.03176e-14
-1.04036e-13
1.53735e-14
2.15211e-14
-1.19812e-13
9.77071e-15
2.33824e-14
3.29678e-15
3.02013e-14
-7.63734e-15
9.39934e-14
9.33355e-14
1.17571e-13
-2.88234e-13
8.17335e-14
1.19162e-13
-2.16557e-13
6.70279e-14
1.19795e-13
-1.81254e-13
5.41074e-14
9.66751e-14
-1.68585e-13
4.29376e-14
7.83304e-14
-1.56228e-13
3.29897e-14
5.52977e-14
-1.45013e-13
2.40225e-14
3.7743e-14
-1.48548e-13
1.64892e-14
3.37414e-14
-1.7186e-13
9.64073e-15
3.79118e-14
4.09757e-15
3.62836e-14
-1.00558e-14
-2.33661e-14
1.18071e-13
2.04282e-13
-4.4497e-13
9.96765e-14
2.111e-13
-3.15538e-13
7.97541e-14
2.02564e-13
-2.59998e-13
6.26057e-14
1.64854e-13
-2.37249e-13
4.82569e-14
1.33622e-13
-2.17044e-13
3.64393e-14
1.0808e-13
-1.95509e-13
2.64225e-14
6.74551e-14
-1.96807e-13
1.7706e-14
5.5457e-14
-2.25509e-13
1.03176e-14
6.12764e-14
4.24192e-15
4.93149e-14
-1.3425e-14
-1.59908e-13
1.51179e-13
3.63845e-13
-6.50668e-13
1.23819e-13
3.73894e-13
-4.23869e-13
9.5745e-14
3.40582e-13
-3.59266e-13
7.32403e-14
2.74811e-13
-3.18513e-13
5.52134e-14
2.19598e-13
-2.84785e-13
4.0325e-14
1.79337e-13
-2.53117e-13
2.84599e-14
1.11734e-13
-2.37007e-13
1.88706e-14
8.72843e-14
-2.81781e-13
1.14148e-14
7.56518e-14
4.07724e-15
6.73688e-14
-1.66056e-14
-5.74751e-13
1.9126e-13
6.42128e-13
-9.28828e-13
1.54954e-13
6.51923e-13
-5.76581e-13
1.16084e-13
5.64049e-13
-4.82512e-13
8.60152e-14
4.40129e-13
-4.18279e-13
6.29356e-14
3.46153e-13
-3.62439e-13
4.51973e-14
2.76001e-13
-3.16757e-13
3.14041e-14
2.03029e-13
-2.8482e-13
2.01533e-14
1.32897e-13
-3.41303e-13
1.17404e-14
1.0672e-13
4.8428e-15
9.21178e-14
-1.97379e-14
-1.10735e-12
3.34064e-13
1.14972e-12
-1.30515e-12
1.95025e-13
1.12908e-12
-7.80602e-13
1.42649e-13
9.1909e-13
-6.37994e-13
1.03256e-13
6.93515e-13
-5.36496e-13
7.39885e-14
5.29129e-13
-4.53381e-13
5.46311e-14
4.12903e-13
-3.87744e-13
3.76081e-14
3.18923e-13
-3.38685e-13
2.42047e-14
1.95459e-13
-4.03269e-13
1.36374e-14
1.49733e-13
5.66084e-15
1.00569e-13
-2.311e-14
-2.30768e-12
6.26334e-11
1.7497e-11
-1.74497e-12
7.2633e-13
2.0556e-12
-1.05014e-12
1.75553e-13
1.50027e-12
-8.34632e-13
1.6878e-13
1.08168e-12
-6.80022e-13
1.10611e-13
8.00662e-13
-5.60116e-13
6.87848e-14
6.03341e-13
-4.65324e-13
3.27119e-14
4.60463e-13
-3.97646e-13
1.81805e-14
2.78009e-13
-4.68696e-13
9.51816e-15
2.05158e-13
4.18731e-15
1.2671e-13
-2.65989e-14
-7.15878e-10
1.92241e-08
9.90764e-08
-5.43035e-12
1.44417e-10
3.26139e-10
-1.39611e-12
2.9181e-12
8.94196e-13
-1.07954e-12
1.64345e-12
8.57955e-14
-8.53918e-13
1.17912e-12
6.41095e-14
-6.82254e-13
8.59031e-13
5.01157e-14
-5.53331e-13
6.35922e-13
3.9854e-14
-4.60588e-13
4.37328e-13
3.23026e-14
-5.36923e-13
2.74688e-13
2.65101e-14
1.60907e-13
-3.01508e-14
2.23301e-14
3.42247e-13
8.17433e-14
2.01733e-14
-1.78988e-14
7.75225e-14
3.90588e-15
-2.34345e-14
6.84242e-14
7.11352e-15
-2.05542e-14
5.96438e-14
8.75973e-15
-2.02969e-14
5.11355e-14
1.77037e-14
-2.05892e-14
4.29471e-14
3.50473e-14
-2.02781e-14
3.50773e-14
6.48974e-14
-2.01295e-14
2.75299e-14
2.2717e-13
-1.74136e-14
2.02902e-14
8.8488e-13
1.30032e-14
2.6343e-12
-9.42605e-15
2.91252e-13
5.88963e-14
3.12174e-14
-6.56739e-14
5.40632e-14
6.89012e-15
-7.21017e-14
4.58718e-14
1.61927e-14
-6.70241e-14
3.80599e-14
1.61229e-14
-6.43158e-14
3.08327e-14
2.34742e-14
-6.12093e-14
2.41328e-14
3.88315e-14
-6.06036e-14
1.79363e-14
6.12853e-14
-6.28147e-14
1.23426e-14
1.55829e-13
-7.15363e-14
7.32437e-15
5.27511e-13
2.759e-15
1.71938e-12
-9.25475e-15
2.1342e-13
7.50968e-14
4.3437e-14
-1.66193e-13
6.7786e-14
1.25502e-14
-1.35721e-13
5.70634e-14
2.64977e-14
-1.18349e-13
4.70654e-14
2.71024e-14
-1.11736e-13
3.80352e-14
3.1637e-14
-1.06447e-13
2.99159e-14
4.67598e-14
-9.95517e-14
2.26292e-14
7.18798e-14
-1.05326e-13
1.5563e-14
1.2609e-13
-1.23652e-13
9.27207e-15
3.50056e-13
3.5112e-15
1.12799e-12
-6.72509e-15
9.31682e-14
9.38812e-14
7.33926e-14
-2.89195e-13
8.2064e-14
3.27069e-14
-2.17539e-13
6.73103e-14
5.21458e-14
-1.81585e-13
5.44165e-14
5.1401e-14
-1.68614e-13
4.32134e-14
5.49764e-14
-1.56682e-13
3.32007e-14
6.47473e-14
-1.47052e-13
2.43942e-14
8.71587e-14
-1.50567e-13
1.69466e-14
1.22115e-13
-1.76294e-13
9.92059e-15
2.65276e-13
4.43425e-15
7.81551e-13
-7.63061e-15
-2.47714e-14
1.18973e-13
1.28756e-13
-4.46379e-13
1.00251e-13
8.08294e-14
-3.15848e-13
8.02772e-14
1.01495e-13
-2.61081e-13
6.31595e-14
9.50759e-14
-2.37804e-13
4.87503e-14
9.18707e-14
-2.17334e-13
3.69841e-14
1.2475e-13
-1.9707e-13
2.66722e-14
1.12873e-13
-2.00282e-13
1.7956e-14
1.36675e-13
-2.30255e-13
1.09507e-14
2.3284e-13
4.19326e-15
5.75054e-13
-9.92934e-15
-1.62376e-13
1.52506e-13
2.30244e-13
-6.52824e-13
1.24668e-13
1.73762e-13
-4.24511e-13
9.65487e-14
1.88809e-13
-3.61372e-13
7.3922e-14
1.6856e-13
-3.18911e-13
5.58683e-14
1.53724e-13
-2.87142e-13
4.08602e-14
1.81037e-13
-2.54359e-13
2.89263e-14
1.54876e-13
-2.39381e-13
1.93168e-14
1.76934e-13
-2.87176e-13
1.16334e-14
2.31499e-13
4.78567e-15
4.54465e-13
-1.53068e-14
-5.81606e-13
1.96471e-13
4.16e-13
-9.32119e-13
1.56364e-13
3.44052e-13
-5.79323e-13
1.1718e-13
3.35448e-13
-4.8503e-13
8.7015e-14
2.85704e-13
-4.19865e-13
6.37626e-14
2.4702e-13
-3.6535e-13
4.59612e-14
2.47858e-13
-3.18605e-13
3.22025e-14
1.70592e-13
-2.88278e-13
2.07795e-14
2.22837e-13
-3.4706e-13
1.23643e-14
2.54252e-13
5.11898e-15
3.86676e-13
-1.86843e-14
-1.11855e-12
3.17842e-13
7.39874e-13
-1.31076e-12
1.83718e-13
6.47789e-13
-7.85002e-13
1.45316e-13
5.76997e-13
-6.42051e-13
1.04735e-13
4.69634e-13
-5.39478e-13
7.53454e-14
3.87775e-13
-4.56539e-13
5.57196e-14
3.57555e-13
-3.91704e-13
3.86764e-14
3.78767e-13
-3.42072e-13
2.49185e-14
2.70901e-13
-4.10134e-13
1.43475e-14
2.96068e-13
6.28455e-15
3.5372e-13
-2.24445e-14
-2.10456e-12
3.21717e-11
1.28791e-12
-1.79706e-12
3.92348e-13
1.08436e-12
-1.0588e-12
2.67301e-13
9.62689e-13
-8.40396e-13
1.72343e-13
7.48768e-13
-6.85428e-13
1.13117e-13
5.90052e-13
-5.64291e-13
7.10425e-14
5.33085e-13
-4.71994e-13
3.4068e-14
5.3254e-13
-4.01443e-13
1.90012e-14
3.05473e-13
-4.76599e-13
1.0076e-14
3.50884e-13
4.78177e-15
3.45563e-13
-2.62871e-14
-3.86825e-10
-2.03138e-09
7.74768e-08
-2.86758e-12
-9.37514e-11
1.08791e-10
-1.3127e-12
9.69677e-13
-1.13333e-13
-1.09244e-12
1.18666e-12
8.15294e-14