/*--------------------------------*- C++ -*----------------------------------*\
| =========                 |                                                 |
| \\      /  F ield         | OpenFOAM: The Open Source CFD Toolbox           |
|  \\    /   O peration     | Version:  4.1                                   |
|   \\  /    A nd           | Web:      www.OpenFOAM.org                      |
|    \\/     M anipulation  |                                                 |
\*---------------------------------------------------------------------------*/
FoamFile
{
    version     2.0;
    format      ascii;
    class       volVectorField;
    location    "0.72";
    object      U;
}
// * * * * * * * * * * * * * * * * * * * * * * * * * * * * * * * * * * * * * //

dimensions      [0 1 -1 0 0 0 0];

internalField   nonuniform List<vector> 
18000
(
(8.57795e-14 3.86493e-13 -5.96417e-12)
(9.10083e-14 3.85803e-13 -5.89743e-12)
(8.20752e-14 -9.79689e-15 -5.83084e-12)
(7.33609e-14 -1.35188e-14 -5.76562e-12)
(6.48859e-14 -1.32705e-14 -5.70099e-12)
(5.66423e-14 -1.29128e-14 -5.63715e-12)
(4.86836e-14 -1.2935e-14 -5.57398e-12)
(4.10578e-14 -1.2923e-14 -5.51205e-12)
(3.36242e-14 -1.27055e-14 -5.45099e-12)
(2.64899e-14 -9.47005e-15 -5.39193e-12)
(1.27121e-13 3.97763e-13 -7.44637e-12)
(1.40416e-13 3.85365e-13 -7.18763e-12)
(1.23002e-13 -4.60763e-14 -6.93659e-12)
(1.06501e-13 -4.84123e-14 -6.69674e-12)
(9.121e-14 -4.67699e-14 -6.46727e-12)
(7.69812e-14 -4.49266e-14 -6.24714e-12)
(6.36182e-14 -4.32163e-14 -6.03584e-12)
(5.13324e-14 -4.17392e-14 -5.83337e-12)
(3.97746e-14 -4.01583e-14 -5.6385e-12)
(2.90611e-14 -2.94783e-14 -5.45567e-12)
(1.39736e-13 4.01127e-13 -9.40675e-12)
(1.49054e-13 3.72401e-13 -8.84269e-12)
(1.2334e-13 -9.85762e-14 -8.31254e-12)
(1.00282e-13 -9.65383e-14 -7.82188e-12)
(7.98814e-14 -9.01903e-14 -7.36535e-12)
(6.1783e-14 -8.4681e-14 -6.94095e-12)
(4.5648e-14 -7.95539e-14 -6.5467e-12)
(3.13138e-14 -7.47795e-14 -6.17854e-12)
(1.85835e-14 -7.04352e-14 -5.83574e-12)
(7.31752e-15 -5.04324e-14 -5.52087e-12)
(1.89213e-13 3.90582e-13 -1.20324e-11)
(1.90158e-13 3.38735e-13 -1.09839e-11)
(1.52194e-13 -1.73971e-13 -1.00365e-11)
(1.19838e-13 -1.62097e-13 -9.18453e-12)
(9.25599e-14 -1.47291e-13 -8.41998e-12)
(6.94487e-14 -1.34171e-13 -7.73153e-12)
(4.99849e-14 -1.22545e-13 -7.11045e-12)
(3.3344e-14 -1.12132e-13 -6.54911e-12)
(1.93024e-14 -1.02537e-13 -6.04086e-12)
(7.47894e-15 -7.19335e-14 -5.58688e-12)
(2.62019e-13 3.54423e-13 -1.56029e-11)
(2.46729e-13 2.70672e-13 -1.37877e-11)
(1.90199e-13 -2.82817e-13 -1.2213e-11)
(1.4449e-13 -2.5238e-13 -1.08477e-11)
(1.07952e-13 -2.21639e-13 -9.66449e-12)
(7.85697e-14 -1.9557e-13 -8.6344e-12)
(5.48415e-14 -1.73476e-13 -7.73493e-12)
(3.56547e-14 -1.54521e-13 -6.94742e-12)
(2.00998e-14 -1.37618e-13 -6.25505e-12)
(7.55417e-15 -9.44133e-14 -5.65413e-12)
(3.71988e-13 2.73592e-13 -2.05351e-11)
(3.26659e-13 1.44579e-13 -1.75054e-11)
(2.41104e-13 -4.41541e-13 -1.49892e-11)
(1.75934e-13 -3.76771e-13 -1.28907e-11)
(1.2676e-13 -3.19048e-13 -1.11395e-11)
(8.91779e-14 -2.7234e-13 -9.66883e-12)
(6.03339e-14 -2.34057e-13 -8.42797e-12)
(3.81111e-14 -2.02324e-13 -7.3756e-12)
(2.09427e-14 -1.75443e-13 -6.47842e-12)
(7.65032e-15 -1.17849e-13 -5.72244e-12)
(5.41969e-13 1.14292e-13 -2.74551e-11)
(4.40782e-13 -7.96841e-14 -2.25077e-11)
(3.09384e-13 -6.76713e-13 -1.85643e-11)
(2.15597e-13 -5.50381e-13 -1.542e-11)
(1.48953e-13 -4.47343e-13 -1.28976e-11)
(1.0081e-13 -3.6812e-13 -1.08582e-11)
(6.5732e-14 -3.05975e-13 -9.19776e-12)
(4.0031e-14 -2.56632e-13 -7.83622e-12)
(2.10806e-14 -2.16541e-13 -6.71205e-12)
(7.04283e-15 -1.42281e-13 -5.79175e-12)
(-2.08325e-12 -1.8611e-13 -3.73714e-11)
(-2.29097e-12 -4.73801e-13 -2.93331e-11)
(-2.34176e-12 -1.02891e-12 -2.32254e-11)
(-2.33452e-12 -7.94182e-13 -1.85795e-11)
(-2.29542e-12 -6.172e-13 -1.50093e-11)
(-2.23856e-12 -4.88202e-13 -1.22362e-11)
(-2.17259e-12 -3.91545e-13 -1.00607e-11)
(-2.10265e-12 -3.17939e-13 -8.33787e-12)
(-2.03209e-12 -2.60832e-13 -6.96037e-12)
(-1.99491e-12 -1.67704e-13 -5.86707e-12)
(-5.48747e-09 -1.26176e-12 -8.39184e-11)
(-5.52275e-09 -1.18308e-12 -6.73816e-11)
(-5.2023e-09 -1.16141e-12 -5.47517e-11)
(-4.91135e-09 -7.63556e-13 -4.51939e-11)
(-4.64871e-09 -4.99845e-13 -3.78553e-11)
(-4.41093e-09 -3.23444e-13 -3.21219e-11)
(-4.19495e-09 -2.03504e-13 -2.75748e-11)
(-3.99812e-09 -1.21389e-13 -2.39187e-11)
(-3.81854e-09 -1.494e-13 -2.09411e-11)
(-3.73624e-09 -2.68618e-13 -1.87184e-11)
(5.95453e-07 -1.25741e-09 -6.46844e-08)
(3.38443e-08 -1.74494e-10 -5.67071e-08)
(2.64091e-08 7.72117e-10 -4.98155e-08)
(2.18981e-08 7.06622e-10 -4.40482e-08)
(1.80741e-08 6.41464e-10 -3.91852e-08)
(1.48021e-08 5.83344e-10 -3.50567e-08)
(1.19808e-08 5.31757e-10 -3.15277e-08)
(9.52979e-09 4.84983e-10 -2.84915e-08)
(6.99059e-09 2.25361e-10 -2.58656e-08)
(-1.03933e-07 -2.29783e-10 -2.41178e-08)
(2.56863e-13 3.65548e-13 -6.34803e-12)
(2.41092e-13 3.44648e-13 -6.27493e-12)
(2.1165e-13 -5.0614e-14 -6.2022e-12)
(1.83262e-13 -5.38165e-14 -6.13022e-12)
(1.56002e-13 -5.32673e-14 -6.05962e-12)
(1.29711e-13 -5.25758e-14 -5.99019e-12)
(1.04414e-13 -5.20797e-14 -5.92057e-12)
(8.01172e-14 -5.14686e-14 -5.85316e-12)
(5.65771e-14 -5.03418e-14 -5.78643e-12)
(3.44321e-14 -2.9253e-14 -5.72142e-12)
(5.13708e-13 3.19821e-13 -7.97712e-12)
(4.74359e-13 2.3458e-13 -7.69191e-12)
(4.06916e-13 -1.92597e-13 -7.41482e-12)
(3.43824e-13 -1.89495e-13 -7.15086e-12)
(2.84956e-13 -1.82946e-13 -6.89881e-12)
(2.30032e-13 -1.76618e-13 -6.65691e-12)
(1.78779e-13 -1.70473e-13 -6.42588e-12)
(1.3088e-13 -1.6489e-13 -6.204e-12)
(8.60901e-14 -1.5778e-13 -5.99163e-12)
(4.48847e-14 -8.97752e-14 -5.7912e-12)
(6.29074e-13 2.38296e-13 -1.01549e-11)
(5.60478e-13 6.30255e-14 -9.52488e-12)
(4.64395e-13 -3.91492e-13 -8.93655e-12)
(3.77963e-13 -3.71903e-13 -8.39157e-12)
(3.00937e-13 -3.49708e-13 -7.88731e-12)
(2.3216e-13 -3.28914e-13 -7.41945e-12)
(1.70682e-13 -3.09947e-13 -6.98602e-12)
(1.15717e-13 -2.92375e-13 -6.58227e-12)
(6.67015e-14 -2.73752e-13 -6.20675e-12)
(2.33938e-14 -1.53521e-13 -5.86318e-12)
(8.15473e-13 1.00841e-13 -1.31054e-11)
(7.0115e-13 -1.99385e-13 -1.19214e-11)
(5.64034e-13 -6.69433e-13 -1.08588e-11)
(4.45944e-13 -6.15934e-13 -9.9062e-12)
(3.45386e-13 -5.6292e-13 -9.05529e-12)
(2.59348e-13 -5.15772e-13 -8.29225e-12)
(1.85782e-13 -4.73446e-13 -7.60694e-12)
(1.229e-13 -4.35286e-13 -6.98991e-12)
(6.90668e-14 -3.97756e-13 -6.43163e-12)
(2.37704e-14 -2.19627e-13 -5.93513e-12)
(1.07341e-12 -1.24915e-13 -1.71733e-11)
(8.87767e-13 -5.9876e-13 -1.50972e-11)
(6.91141e-13 -1.05803e-12 -1.33107e-11)
(5.29731e-13 -9.42063e-13 -1.17699e-11)
(3.98199e-13 -8.35775e-13 -1.04431e-11)
(2.90684e-13 -7.44296e-13 -9.29509e-12)
(2.02731e-13 -6.64806e-13 -8.29754e-12)
(1.30714e-13 -5.95741e-13 -7.42813e-12)
(7.16489e-14 -5.31293e-13 -6.66688e-12)
(2.40981e-14 -2.8867e-13 -6.00941e-12)
(1.43579e-12 -4.8959e-13 -2.2888e-11)
(1.13987e-12 -1.20421e-12 -1.93648e-11)
(8.55298e-13 -1.60407e-12 -1.64738e-11)
(6.3367e-13 -1.37934e-12 -1.40796e-11)
(4.61348e-13 -1.18521e-12 -1.20999e-11)
(3.2679e-13 -1.02415e-12 -1.045e-11)
(2.21537e-13 -8.89208e-13 -9.06768e-12)
(1.3903e-13 -7.75784e-13 -7.90209e-12)
(7.43915e-14 -6.7459e-13 -6.91394e-12)
(2.44083e-14 -3.60328e-13 -6.08543e-12)
(1.95761e-12 -1.07187e-12 -3.10683e-11)
(1.48425e-12 -2.12273e-12 -2.52004e-11)
(1.06935e-12 -2.37848e-12 -2.06e-11)
(7.63366e-13 -1.96775e-12 -1.69669e-11)
(5.37026e-13 -1.63394e-12 -1.40898e-11)
(3.6849e-13 -1.36746e-12 -1.1786e-11)
(2.42435e-13 -1.15238e-12 -9.92627e-12)
(1.48029e-13 -9.77674e-13 -8.41385e-12)
(7.71611e-14 -8.28669e-13 -7.17166e-12)
(2.47593e-14 -4.35315e-13 -6.16304e-12)
(2.69931e-12 -2.01879e-12 -4.30775e-11)
(1.81462e-12 -3.5334e-12 -3.33171e-11)
(1.22146e-12 -3.48242e-12 -2.60602e-11)
(8.09935e-13 -2.76384e-12 -2.06178e-11)
(5.22192e-13 -2.21123e-12 -1.65016e-11)
(3.18942e-13 -1.78894e-12 -1.33442e-11)
(1.74459e-13 -1.46123e-12 -1.08949e-11)
(7.147e-14 -1.20443e-12 -8.97249e-12)
(-2.16082e-15 -9.94157e-13 -7.4471e-12)
(-5.42484e-14 -5.13058e-13 -6.24683e-12)
(-1.74647e-10 -4.5078e-12 -9.51254e-11)
(-4.38953e-10 -6.52585e-12 -7.50047e-11)
(-3.61431e-10 -5.46445e-12 -6.00527e-11)
(-2.99069e-10 -4.20256e-12 -4.89812e-11)
(-2.50134e-10 -3.28203e-12 -4.06484e-11)
(-2.11208e-10 -2.60528e-12 -3.42416e-11)
(-1.79896e-10 -2.09749e-12 -2.92275e-11)
(-1.54449e-10 -1.71105e-12 -2.52403e-11)
(-1.33596e-10 -1.40586e-12 -2.20211e-11)
(-1.17884e-10 -8.21561e-13 -1.96267e-11)
(4.08864e-07 -2.1768e-09 -7.06419e-08)
(-8.05563e-09 -1.72649e-09 -6.14606e-08)
(-8.90099e-09 -7.09123e-10 -5.34239e-08)
(-8.28071e-09 -6.46249e-10 -4.68293e-08)
(-7.69109e-09 -5.94234e-10 -4.13614e-08)
(-7.1506e-09 -5.46102e-10 -3.67826e-08)
(-6.66205e-09 -5.02224e-10 -3.29133e-08)
(-6.22458e-09 -4.62531e-10 -2.96162e-08)
(-5.86284e-09 -4.30805e-10 -2.6788e-08)
(-8.19295e-09 -4.47174e-10 -2.48918e-08)
(2.31437e-13 3.69362e-13 -3.96267e-13)
(2.18328e-13 3.46367e-13 -3.89309e-13)
(1.91403e-13 -4.91349e-14 -3.82229e-13)
(1.65743e-13 -5.23541e-14 -3.75071e-13)
(1.41154e-13 -5.14381e-14 -3.68263e-13)
(1.17443e-13 -5.1023e-14 -3.6169e-13)
(9.50179e-14 -5.05686e-14 -3.5503e-13)
(7.33486e-14 -4.97312e-14 -3.4914e-13)
(5.26109e-14 -4.88727e-14 -3.43082e-13)
(3.31659e-14 -2.5727e-14 -3.37238e-13)
(5.03366e-13 3.33644e-13 -5.49773e-13)
(4.6458e-13 2.39345e-13 -5.21616e-13)
(3.98055e-13 -1.87987e-13 -4.94012e-13)
(3.35858e-13 -1.84566e-13 -4.6803e-13)
(2.78101e-13 -1.78072e-13 -4.44248e-13)
(2.24296e-13 -1.71559e-13 -4.22028e-13)
(1.74382e-13 -1.65362e-13 -4.00219e-13)
(1.27735e-13 -1.59728e-13 -3.79988e-13)
(8.42111e-14 -1.52711e-13 -3.62158e-13)
(4.45019e-14 -7.95962e-14 -3.43963e-13)
(6.2259e-13 2.6493e-13 -7.78384e-13)
(5.53202e-13 6.9314e-14 -7.08842e-13)
(4.57226e-13 -3.84795e-13 -6.46915e-13)
(3.71056e-13 -3.64866e-13 -5.9024e-13)
(2.94659e-13 -3.41869e-13 -5.39822e-13)
(2.26837e-13 -3.2082e-13 -4.93746e-13)
(1.66432e-13 -3.01594e-13 -4.526e-13)
(1.12799e-13 -2.84076e-13 -4.15603e-13)
(6.48276e-14 -2.65099e-13 -3.81323e-13)
(2.2963e-14 -1.3595e-13 -3.51677e-13)
(8.16819e-13 1.45183e-13 -1.12153e-12)
(6.99103e-13 -1.95417e-13 -9.79436e-13)
(5.60002e-13 -6.63274e-13 -8.57034e-13)
(4.41008e-13 -6.083e-13 -7.50539e-13)
(3.40227e-13 -5.53679e-13 -6.59573e-13)
(2.54661e-13 -5.05296e-13 -5.81325e-13)
(1.8188e-13 -4.62035e-13 -5.1384e-13)
(1.20012e-13 -4.23965e-13 -4.55355e-13)
(6.7354e-14 -3.8626e-13 -4.03899e-13)
(2.3345e-14 -1.95341e-13 -3.59404e-13)
(1.09047e-12 -5.76238e-14 -1.65255e-12)
(8.95035e-13 -6.05237e-13 -1.37541e-12)
(6.92825e-13 -1.05814e-12 -1.15071e-12)
(5.27862e-13 -9.37588e-13 -9.64809e-13)
(3.9477e-13 -8.27096e-13 -8.12738e-13)
(2.86897e-13 -7.32879e-13 -6.88164e-13)
(1.99321e-13 -6.51817e-13 -5.85323e-13)
(1.28042e-13 -5.81852e-13 -4.99971e-13)
(7.01841e-14 -5.1636e-13 -4.28163e-13)
(2.39075e-14 -2.569e-13 -3.69201e-13)
(1.48225e-12 -3.95304e-13 -2.49392e-12)
(1.16395e-12 -1.23882e-12 -1.96716e-12)
(8.66477e-13 -1.62104e-12 -1.5666e-12)
(6.36614e-13 -1.38472e-12 -1.25127e-12)
(4.60448e-13 -1.18089e-12 -1.00885e-12)
(3.24193e-13 -1.01372e-12 -8.19058e-13)
(2.18673e-13 -8.75096e-13 -6.70001e-13)
(1.36839e-13 -7.59655e-13 -5.51503e-13)
(7.3023e-14 -6.56826e-13 -4.54644e-13)
(2.43763e-14 -3.22094e-13 -3.79427e-13)
(2.05864e-12 -9.47524e-13 -3.86016e-12)
(1.53818e-12 -2.21941e-12 -2.86919e-12)
(1.09627e-12 -2.43306e-12 -2.16269e-12)
(7.74437e-13 -1.99465e-12 -1.64002e-12)
(5.40098e-13 -1.6399e-12 -1.26105e-12)
(3.67795e-13 -1.36151e-12 -9.79646e-13)
(2.40543e-13 -1.13878e-12 -7.69085e-13)
(1.46188e-13 -9.60302e-13 -6.09021e-13)
(7.59335e-14 -8.08452e-13 -4.84325e-13)
(2.48071e-14 -3.89906e-13 -3.91188e-13)
(3.07282e-12 -1.86943e-12 -6.15229e-12)
(2.07342e-12 -3.75884e-12 -4.27702e-12)
(1.40678e-12 -3.61084e-12 -3.03476e-12)
(9.51144e-13 -2.8316e-12 -2.17582e-12)
(6.37225e-13 -2.2381e-12 -1.59019e-12)
(4.18282e-13 -1.79211e-12 -1.17921e-12)
(2.64268e-13 -1.45074e-12 -8.86538e-13)
(1.55343e-13 -1.18712e-12 -6.74154e-13)
(7.79948e-14 -9.7199e-13 -5.17803e-13)
(2.40337e-14 -4.6118e-13 -4.03367e-13)
(3.1379e-10 -3.86699e-12 -1.20589e-11)
(-1.34404e-11 -6.62781e-12 -8.09461e-12)
(-1.12646e-11 -5.39704e-12 -5.60085e-12)
(-8.21209e-12 -4.03079e-12 -3.98717e-12)
(-6.1225e-12 -3.05497e-12 -2.93213e-12)
(-4.65206e-12 -2.35686e-12 -2.22018e-12)
(-3.59726e-12 -1.84522e-12 -1.72776e-12)
(-2.82685e-12 -1.46529e-12 -1.37941e-12)
(-2.25388e-12 -1.16878e-12 -1.12589e-12)
(-1.81117e-12 -5.54408e-13 -9.45957e-13)
(3.54401e-07 -1.15055e-09 -6.37466e-09)
(6.56183e-10 -1.03985e-09 -4.95483e-09)
(-4.9408e-10 -1.33734e-10 -3.73975e-09)
(-4.03509e-10 -9.9621e-11 -2.86881e-09)
(-3.28479e-10 -7.87812e-11 -2.23622e-09)
(-2.70509e-10 -6.30066e-11 -1.76788e-09)
(-2.24865e-10 -5.09397e-11 -1.41552e-09)
(-1.88658e-10 -4.15956e-11 -1.14651e-09)
(-1.60723e-10 -3.42503e-11 -9.38572e-10)
(-1.79674e-10 -2.94059e-11 -7.86046e-10)
(2.26814e-13 3.69893e-13 -1.73396e-14)
(2.14222e-13 3.46528e-13 -1.64801e-14)
(1.87836e-13 -4.89099e-14 -1.42125e-14)
(1.62599e-13 -5.21074e-14 -1.31892e-14)
(1.38563e-13 -5.14288e-14 -1.16306e-14)
(1.15529e-13 -5.07773e-14 -1.05597e-14)
(9.34001e-14 -5.01067e-14 -9.4857e-15)
(7.22219e-14 -4.93507e-14 -8.29798e-15)
(5.20396e-14 -4.82989e-14 -7.8461e-15)
(3.30148e-14 -2.51761e-14 -7.91807e-15)
(4.98044e-13 3.36167e-13 -2.63249e-14)
(4.6003e-13 2.41183e-13 -2.36433e-14)
(3.94218e-13 -1.86386e-13 -2.14594e-14)
(3.32727e-13 -1.82979e-13 -1.8561e-14)
(2.75602e-13 -1.76079e-13 -1.59917e-14)
(2.2239e-13 -1.70038e-13 -1.45241e-14)
(1.72973e-13 -1.64113e-13 -1.24564e-14)
(1.26864e-13 -1.57922e-13 -1.10818e-14)
(8.37871e-14 -1.50914e-13 -1.00094e-14)
(4.4487e-14 -7.76986e-14 -9.2544e-15)
(6.15507e-13 2.71052e-13 -4.21182e-14)
(5.4754e-13 7.35853e-14 -3.72702e-14)
(4.5258e-13 -3.80705e-13 -3.19218e-14)
(3.67389e-13 -3.60951e-13 -2.71718e-14)
(2.91837e-13 -3.38564e-13 -2.35698e-14)
(2.24688e-13 -3.17709e-13 -2.01228e-14)
(1.65084e-13 -2.98428e-13 -1.69049e-14)
(1.11998e-13 -2.81131e-13 -1.49224e-14)
(6.45753e-14 -2.62319e-13 -1.29506e-14)
(2.31121e-14 -1.32767e-13 -1.2121e-14)
(8.07546e-13 1.57686e-13 -6.88319e-14)
(6.91826e-13 -1.86933e-13 -5.97305e-14)
(5.54438e-13 -6.56225e-13 -4.99271e-14)
(4.36715e-13 -6.0185e-13 -4.13575e-14)
(3.37054e-13 -5.47707e-13 -3.44009e-14)
(2.52483e-13 -4.99945e-13 -2.91931e-14)
(1.80546e-13 -4.57311e-13 -2.43081e-14)
(1.19388e-13 -4.19356e-13 -2.04377e-14)
(6.73452e-14 -3.82067e-13 -1.79705e-14)
(2.37686e-14 -1.91355e-13 -1.57012e-14)
(1.07831e-12 -3.52212e-14 -1.17851e-13)
(8.85924e-13 -5.91016e-13 -9.74403e-14)
(6.86107e-13 -1.04608e-12 -7.85334e-14)
(5.22985e-13 -9.27385e-13 -6.2848e-14)
(3.91424e-13 -8.18338e-13 -5.11399e-14)
(2.847e-13 -7.25057e-13 -4.12683e-14)
(1.98117e-13 -6.44698e-13 -3.39209e-14)
(1.27713e-13 -5.75619e-13 -2.92805e-14)
(7.01323e-14 -5.11047e-13 -2.55557e-14)
(2.44394e-14 -2.51794e-13 -2.15353e-14)
(1.46598e-12 -3.551e-13 -2.05175e-13)
(1.15243e-12 -1.21584e-12 -1.60606e-13)
(8.58308e-13 -1.60279e-12 -1.24906e-13)
(6.31107e-13 -1.36964e-12 -9.65796e-14)
(4.5688e-13 -1.16817e-12 -7.59266e-14)
(3.22116e-13 -1.00305e-12 -6.06871e-14)
(2.1774e-13 -8.65806e-13 -4.8871e-14)
(1.36571e-13 -7.52361e-13 -4.03311e-14)
(7.327e-14 -6.50663e-13 -3.26972e-14)
(2.50084e-14 -3.15633e-13 -2.7947e-14)
(2.03714e-12 -8.76987e-13 -3.61077e-13)
(1.52329e-12 -2.184e-12 -2.68265e-13)
(1.08645e-12 -2.40545e-12 -1.97104e-13)
(7.68161e-13 -1.97305e-12 -1.47866e-13)
(5.36346e-13 -1.62277e-12 -1.11857e-13)
(3.65851e-13 -1.3474e-12 -8.64839e-14)
(2.39693e-13 -1.12745e-12 -6.80761e-14)
(1.46072e-13 -9.51456e-13 -5.45228e-14)
(7.66503e-14 -8.01216e-13 -4.41516e-14)
(2.56163e-14 -3.82922e-13 -3.60717e-14)
(3.04692e-12 -1.7463e-12 -6.51748e-13)
(2.05198e-12 -3.70581e-12 -4.48527e-13)
(1.39332e-12 -3.57075e-12 -3.13741e-13)
(9.43414e-13 -2.80192e-12 -2.23027e-13)
(6.33387e-13 -2.2151e-12 -1.63142e-13)
(4.16989e-13 -1.77478e-12 -1.21723e-13)
(2.64509e-13 -1.43746e-12 -9.24168e-14)
(1.56654e-13 -1.17645e-12 -7.19466e-14)
(7.99878e-14 -9.64035e-13 -5.74699e-14)
(2.64307e-14 -4.53579e-13 -4.59163e-14)
(3.47927e-10 -3.60155e-12 -1.30632e-12)
(4.53531e-12 -6.5069e-12 -7.32765e-13)
(1.46638e-12 -5.29151e-12 -4.82686e-13)
(9.48901e-13 -3.94999e-12 -3.32823e-13)
(6.11395e-13 -2.99192e-12 -2.36698e-13)
(3.83071e-13 -2.30679e-12 -1.742e-13)
(2.28446e-13 -1.8047e-12 -1.31509e-13)
(1.23261e-13 -1.43173e-12 -1.01988e-13)
(5.14779e-14 -1.14035e-12 -8.084e-14)
(4.14188e-15 -5.28003e-13 -6.58207e-14)
(3.51807e-07 -9.85817e-10 -6.38744e-10)
(1.2687e-09 -9.1686e-10 -2.10205e-10)
(-1.40522e-11 -2.06096e-11 -1.35508e-10)
(-1.22386e-11 -1.01625e-11 -9.01444e-11)
(-8.74452e-12 -7.19542e-12 -6.16001e-11)
(-6.39067e-12 -5.22157e-12 -4.30433e-11)
(-4.7529e-12 -3.8604e-12 -3.06948e-11)
(-3.59378e-12 -2.90581e-12 -2.23001e-11)
(-2.78127e-12 -2.21095e-12 -1.64721e-11)
(-2.64617e-12 -1.28197e-12 -1.22942e-11)
(2.27067e-13 3.69797e-13 -1.12286e-14)
(2.14369e-13 3.45918e-13 -1.01142e-14)
(1.88089e-13 -4.96559e-14 -7.64153e-15)
(1.62778e-13 -5.26098e-14 -5.55598e-15)
(1.3867e-13 -5.1725e-14 -4.36548e-15)
(1.15507e-13 -5.11307e-14 -3.21925e-15)
(9.35314e-14 -5.07405e-14 -2.55143e-15)
(7.24066e-14 -4.96677e-14 -1.53953e-15)
(5.21324e-14 -4.83157e-14 -4.83722e-16)
(3.31061e-14 -2.5407e-14 -4.23877e-16)
(4.98824e-13 3.35852e-13 -1.62521e-14)
(4.60707e-13 2.4065e-13 -1.44344e-14)
(3.94854e-13 -1.86919e-13 -1.1177e-14)
(3.33161e-13 -1.83812e-13 -9.4639e-15)
(2.76019e-13 -1.76905e-13 -6.4949e-15)
(2.2272e-13 -1.70337e-13 -4.78665e-15)
(1.73288e-13 -1.64248e-13 -4.12583e-15)
(1.27242e-13 -1.58361e-13 -3.52112e-15)
(8.41299e-14 -1.51206e-13 -2.48878e-15)
(4.48728e-14 -7.77091e-14 -1.39483e-15)
(6.16922e-13 2.70731e-13 -2.6549e-14)
(5.48861e-13 7.27221e-14 -2.35923e-14)
(4.53675e-13 -3.81983e-13 -1.9204e-14)
(3.68308e-13 -3.61996e-13 -1.50785e-14)
(2.9267e-13 -3.39048e-13 -1.22113e-14)
(2.25492e-13 -3.18338e-13 -9.71363e-15)
(1.65697e-13 -2.98992e-13 -7.82982e-15)
(1.12568e-13 -2.8139e-13 -6.52231e-15)
(6.51355e-14 -2.62333e-13 -5.95308e-15)
(2.36741e-14 -1.3291e-13 -5.32083e-15)
(8.10089e-13 1.57136e-13 -4.55435e-14)
(6.94175e-13 -1.88288e-13 -3.97515e-14)
(5.56352e-13 -6.57756e-13 -3.2988e-14)
(4.38372e-13 -6.03355e-13 -2.68907e-14)
(3.38474e-13 -5.48871e-13 -2.19354e-14)
(2.5363e-13 -5.00893e-13 -1.80689e-14)
(1.81573e-13 -4.58147e-13 -1.53459e-14)
(1.20372e-13 -4.2003e-13 -1.30493e-14)
(6.83089e-14 -3.82465e-13 -1.12687e-14)
(2.45049e-14 -1.91104e-13 -1.05836e-14)
(1.08279e-12 -3.60087e-14 -7.98673e-14)
(8.89739e-13 -5.93668e-13 -6.92037e-14)
(6.89262e-13 -1.0493e-12 -5.60777e-14)
(5.25579e-13 -9.29876e-13 -4.53984e-14)
(3.93597e-13 -8.20328e-13 -3.77876e-14)
(2.86565e-13 -7.26943e-13 -3.11986e-14)
(1.99702e-13 -6.45904e-13 -2.55883e-14)
(1.29046e-13 -5.76208e-13 -2.21614e-14)
(7.14097e-14 -5.11836e-13 -1.94345e-14)
(2.54935e-14 -2.52358e-13 -1.67909e-14)
(1.47348e-12 -3.57497e-13 -1.41271e-13)
(1.15869e-12 -1.2212e-12 -1.17665e-13)
(8.6324e-13 -1.60785e-12 -9.40112e-14)
(6.35163e-13 -1.37413e-12 -7.52558e-14)
(4.60102e-13 -1.17165e-12 -6.0881e-14)
(3.24835e-13 -1.00592e-12 -5.06039e-14)
(2.19956e-13 -8.6831e-13 -4.09671e-14)
(1.38425e-13 -7.54098e-13 -3.44226e-14)
(7.47696e-14 -6.52099e-13 -2.99295e-14)
(2.63058e-14 -3.16447e-13 -2.54729e-14)
(2.04972e-12 -8.81302e-13 -2.50942e-13)
(1.53345e-12 -2.19459e-12 -2.01712e-13)
(1.09404e-12 -2.41532e-12 -1.55674e-13)
(7.74032e-13 -1.98078e-12 -1.20861e-13)
(5.40981e-13 -1.629e-12 -9.63256e-14)
(3.69423e-13 -1.35251e-12 -7.70353e-14)
(2.42607e-13 -1.13141e-12 -6.21072e-14)
(1.48485e-13 -9.54418e-13 -5.13358e-14)
(7.85338e-14 -8.03925e-13 -4.31153e-14)
(2.72532e-14 -3.84411e-13 -3.6228e-14)
(3.07525e-12 -1.75526e-12 -4.49097e-13)
(2.06773e-12 -3.72689e-12 -3.42756e-13)
(1.40483e-12 -3.58865e-12 -2.52882e-13)
(9.52106e-13 -2.81557e-12 -1.9068e-13)
(6.39922e-13 -2.22586e-12 -1.4651e-13)
(4.21971e-13 -1.78311e-12 -1.14254e-13)
(2.68394e-13 -1.44391e-12 -9.05884e-14)
(1.59621e-13 -1.18167e-12 -7.27462e-14)
(8.2255e-14 -9.6809e-13 -5.93224e-14)
(2.8252e-14 -4.55954e-13 -4.98427e-14)
(3.66067e-10 -3.64497e-12 -9.75135e-13)
(5.27765e-12 -6.56794e-12 -5.80023e-13)
(1.82045e-12 -5.32354e-12 -4.08179e-13)
(1.1715e-12 -3.97351e-12 -2.96252e-13)
(7.54107e-13 -3.00976e-12 -2.19341e-13)
(4.77773e-13 -2.32019e-12 -1.65743e-13)
(2.92762e-13 -1.81485e-12 -1.26686e-13)
(1.67905e-13 -1.43959e-12 -9.95769e-14)
(8.28707e-14 -1.14649e-12 -7.88332e-14)
(2.61877e-14 -5.31196e-13 -6.38188e-14)
(3.73302e-07 -1.03675e-09 -5.04197e-10)
(1.42822e-09 -9.51972e-10 -1.13522e-11)
(4.63687e-12 -1.4528e-11 -4.21007e-12)
(8.3259e-13 -5.74716e-12 -2.49988e-12)
(5.61357e-13 -4.12393e-12 -1.5343e-12)
(3.84134e-13 -3.04111e-12 -9.81915e-13)
(2.60121e-13 -2.28716e-12 -6.48987e-13)
(1.73578e-13 -1.75236e-12 -4.41335e-13)
(1.12477e-13 -1.35336e-12 -3.06431e-13)
(6.62412e-14 -6.20389e-13 -2.16303e-13)
(2.27583e-13 3.6945e-13 -1.38267e-14)
(2.14836e-13 3.45131e-13 -1.16424e-14)
(1.88343e-13 -5.06906e-14 -9.6607e-15)
(1.63112e-13 -5.33808e-14 -6.72174e-15)
(1.3882e-13 -5.2333e-14 -5.14605e-15)
(1.15689e-13 -5.14705e-14 -2.9589e-15)
(9.35785e-14 -5.07494e-14 -2.12311e-15)
(7.24818e-14 -5.01518e-14 -1.3922e-15)
(5.23207e-14 -4.87212e-14 -6.64965e-16)
(3.31565e-14 -2.5203e-14 -1.0261e-15)
(5.00135e-13 3.35457e-13 -2.01798e-14)
(4.61889e-13 2.39293e-13 -1.79905e-14)
(3.95748e-13 -1.88197e-13 -1.30256e-14)
(3.34006e-13 -1.84705e-13 -1.05771e-14)
(2.7666e-13 -1.7781e-13 -8.10845e-15)
(2.2326e-13 -1.70881e-13 -5.80559e-15)
(1.7369e-13 -1.64532e-13 -4.25488e-15)
(1.27569e-13 -1.58495e-13 -3.41046e-15)
(8.45946e-14 -1.51701e-13 -3.15262e-15)
(4.52295e-14 -7.81236e-14 -2.53862e-15)
(6.19311e-13 2.69919e-13 -3.23816e-14)
(5.50896e-13 7.09978e-14 -2.87645e-14)
(4.55492e-13 -3.83715e-13 -2.30811e-14)
(3.69741e-13 -3.63443e-13 -1.87926e-14)
(2.9394e-13 -3.40456e-13 -1.44542e-14)
(2.26526e-13 -3.19251e-13 -1.13425e-14)
(1.66672e-13 -2.99556e-13 -9.31362e-15)
(1.13381e-13 -2.81781e-13 -8.32322e-15)
(6.58836e-14 -2.62727e-13 -7.34561e-15)
(2.45112e-14 -1.33315e-13 -6.45399e-15)
(8.14202e-13 1.55419e-13 -5.63105e-14)
(6.97635e-13 -1.91165e-13 -4.84296e-14)
(5.59238e-13 -6.60616e-13 -3.9785e-14)
(4.40753e-13 -6.05685e-13 -3.23572e-14)
(3.40527e-13 -5.50802e-13 -2.62242e-14)
(2.55455e-13 -5.02262e-13 -2.12102e-14)
(1.83075e-13 -4.59124e-13 -1.8235e-14)
(1.21674e-13 -4.20881e-13 -1.60143e-14)
(6.93592e-14 -3.8301e-13 -1.4406e-14)
(2.55155e-14 -1.91474e-13 -1.24864e-14)
(1.08962e-12 -3.93937e-14 -9.84551e-14)
(8.95475e-13 -5.98766e-13 -8.37097e-14)
(6.93834e-13 -1.05402e-12 -6.82845e-14)
(5.29311e-13 -9.33681e-13 -5.56958e-14)
(3.96678e-13 -8.23398e-13 -4.62042e-14)
(2.8922e-13 -7.29563e-13 -3.86633e-14)
(2.01764e-13 -6.48115e-13 -3.18523e-14)
(1.30824e-13 -5.78011e-13 -2.71475e-14)
(7.29058e-14 -5.13147e-13 -2.29673e-14)
(2.67066e-14 -2.53007e-13 -2.07246e-14)
(1.48493e-12 -3.6389e-13 -1.72141e-13)
(1.16795e-12 -1.23066e-12 -1.44048e-13)
(8.70463e-13 -1.61651e-12 -1.14342e-13)
(6.40701e-13 -1.38082e-12 -9.13118e-14)
(4.64609e-13 -1.17689e-12 -7.44791e-14)
(3.28392e-13 -1.01043e-12 -6.18427e-14)
(2.22887e-13 -8.71984e-13 -5.05463e-14)
(1.40795e-13 -7.56763e-13 -4.22098e-14)
(7.67928e-14 -6.54421e-13 -3.62348e-14)
(2.79672e-14 -3.17717e-13 -3.15764e-14)
(2.06902e-12 -8.94593e-13 -3.0495e-13)
(1.54824e-12 -2.21226e-12 -2.44181e-13)
(1.10513e-12 -2.43076e-12 -1.89621e-13)
(7.82422e-13 -1.99267e-12 -1.4805e-13)
(5.47444e-13 -1.63818e-12 -1.18244e-13)
(3.74436e-13 -1.36004e-12 -9.49223e-14)
(2.46627e-13 -1.13744e-12 -7.71686e-14)
(1.51588e-13 -9.5914e-13 -6.24956e-14)
(8.10097e-14 -8.07646e-13 -5.26587e-14)
(2.93231e-14 -3.8653e-13 -4.46884e-14)
(3.11523e-12 -1.78178e-12 -5.42887e-13)
(2.09162e-12 -3.76082e-12 -4.15814e-13)
(1.42172e-12 -3.61631e-12 -3.09467e-13)
(9.64411e-13 -2.83622e-12 -2.34199e-13)
(6.48941e-13 -2.24147e-12 -1.80669e-13)
(4.28764e-13 -1.79535e-12 -1.41784e-13)
(2.73458e-13 -1.45369e-12 -1.12798e-13)
(1.63561e-13 -1.18923e-12 -8.93129e-14)
(8.52668e-14 -9.73886e-13 -7.26066e-14)
(3.06254e-14 -4.59144e-13 -6.07903e-14)
(3.89318e-10 -3.70245e-12 -9.57849e-13)
(5.52879e-12 -6.6519e-12 -7.05223e-13)
(1.85547e-12 -5.37342e-12 -5.02693e-13)
(1.1937e-12 -4.00904e-12 -3.64722e-13)
(7.69154e-13 -3.03586e-12 -2.71384e-13)
(4.88258e-13 -2.34006e-12 -2.05317e-13)
(3.00299e-13 -1.82989e-12 -1.57619e-13)
(1.73389e-13 -1.45095e-12 -1.22746e-13)
(8.68734e-14 -1.15542e-12 -9.75026e-14)
(2.91687e-14 -5.36217e-13 -7.90175e-14)
(4.07558e-07 -1.09376e-09 -3.75861e-10)
(1.55133e-09 -1.01166e-09 -2.02554e-12)
(5.77565e-12 -1.48932e-11 -8.89951e-13)
(1.17369e-12 -5.67287e-12 -6.04567e-13)
(7.76324e-13 -4.08368e-12 -4.22941e-13)
(5.21025e-13 -3.0201e-12 -3.04978e-13)
(3.50453e-13 -2.27681e-12 -2.25451e-13)
(2.34478e-13 -1.74782e-12 -1.68856e-13)
(1.54641e-13 -1.35185e-12 -1.29273e-13)
(1.00016e-13 -6.17777e-13 -1.01557e-13)
(2.28252e-13 3.68904e-13 -1.60674e-14)
(2.15497e-13 3.4426e-13 -1.40469e-14)
(1.88718e-13 -5.16038e-14 -1.07586e-14)
(1.63453e-13 -5.44011e-14 -8.44806e-15)
(1.3917e-13 -5.32193e-14 -6.26679e-15)
(1.15963e-13 -5.23328e-14 -4.23352e-15)
(9.38591e-14 -5.13645e-14 -2.62035e-15)
(7.27341e-14 -5.02582e-14 -3.06064e-15)
(5.25751e-14 -4.85158e-14 -8.6421e-15)
(3.34026e-14 -2.53477e-14 -2.48512e-14)
(5.01736e-13 3.34842e-13 -2.41062e-14)
(4.63338e-13 2.37866e-13 -2.03791e-14)
(3.96925e-13 -1.89796e-13 -1.62626e-14)
(3.34997e-13 -1.85742e-13 -1.27511e-14)
(2.77463e-13 -1.78798e-13 -1.02234e-14)
(2.24009e-13 -1.71873e-13 -7.51394e-15)
(1.74389e-13 -1.65217e-13 -6.05281e-15)
(1.28303e-13 -1.58828e-13 -5.20832e-15)
(8.5177e-14 -1.51639e-13 -6.88641e-15)
(4.57499e-14 -7.8472e-14 -1.89766e-14)
(6.22197e-13 2.68937e-13 -3.86046e-14)
(5.53291e-13 6.91354e-14 -3.2816e-14)
(4.57578e-13 -3.85782e-13 -2.63794e-14)
(3.7152e-13 -3.65333e-13 -2.14657e-14)
(2.95353e-13 -3.41957e-13 -1.71818e-14)
(2.27805e-13 -3.20411e-13 -1.43791e-14)
(1.67803e-13 -3.00259e-13 -1.18474e-14)
(1.14488e-13 -2.82278e-13 -1.09566e-14)
(6.68741e-14 -2.63258e-13 -1.20143e-14)
(2.52267e-14 -1.3393e-13 -1.80569e-14)
(8.19189e-13 1.53283e-13 -6.57136e-14)
(7.01792e-13 -1.94519e-13 -5.55498e-14)
(5.62695e-13 -6.63802e-13 -4.55498e-14)
(4.43621e-13 -6.08544e-13 -3.72676e-14)
(3.43055e-13 -5.53242e-13 -3.09477e-14)
(2.57637e-13 -5.04161e-13 -2.64147e-14)
(1.84929e-13 -4.60397e-13 -2.27954e-14)
(1.23208e-13 -4.21764e-13 -1.99235e-14)
(7.06989e-14 -3.84161e-13 -1.91119e-14)
(2.67073e-14 -1.92389e-13 -2.15758e-14)
(1.09791e-12 -4.34234e-14 -1.15195e-13)
(9.02365e-13 -6.04736e-13 -9.5971e-14)
(6.99334e-13 -1.05963e-12 -7.7848e-14)
(5.33736e-13 -9.38269e-13 -6.39255e-14)
(4.00414e-13 -8.27038e-13 -5.3479e-14)
(2.9243e-13 -7.32803e-13 -4.5661e-14)
(2.0447e-13 -6.50816e-13 -3.92764e-14)
(1.3297e-13 -5.80168e-13 -3.40029e-14)
(7.47193e-14 -5.14857e-13 -2.98752e-14)
(2.84285e-14 -2.54276e-13 -3.05243e-14)
(1.49889e-12 -3.71836e-13 -2.03196e-13)
(1.17892e-12 -1.24172e-12 -1.64969e-13)
(8.79e-13 -1.62671e-12 -1.3143e-13)
(6.47547e-13 -1.38901e-12 -1.0649e-13)
(4.70031e-13 -1.18317e-12 -8.72177e-14)
(3.32818e-13 -1.0157e-12 -7.37317e-14)
(2.26537e-13 -8.76624e-13 -6.14243e-14)
(1.43668e-13 -7.605e-13 -5.21114e-14)
(7.92489e-14 -6.57154e-13 -4.55725e-14)
(2.99786e-14 -3.19671e-13 -4.2179e-14)
(2.09247e-12 -9.10725e-13 -3.58131e-13)
(1.56586e-12 -2.23333e-12 -2.79746e-13)
(1.11834e-12 -2.44854e-12 -2.18007e-13)
(7.92579e-13 -2.00674e-12 -1.72432e-13)
(5.55248e-13 -1.64927e-12 -1.37853e-13)
(3.80544e-13 -1.36902e-12 -1.12928e-13)
(2.51508e-13 -1.14501e-12 -9.21365e-14)
(1.55401e-13 -9.65197e-13 -7.64706e-14)
(8.3995e-14 -8.12284e-13 -6.49429e-14)
(3.172e-14 -3.89551e-13 -5.73481e-14)
(3.14577e-12 -1.81393e-12 -6.35715e-13)
(2.1197e-12 -3.80075e-12 -4.75032e-13)
(1.44211e-12 -3.64862e-12 -3.56499e-13)
(9.79222e-13 -2.8607e-12 -2.71931e-13)
(6.59942e-13 -2.26015e-12 -2.10904e-13)
(4.37022e-13 -1.80987e-12 -1.67669e-13)
(2.79775e-13 -1.46572e-12 -1.35171e-13)
(1.68382e-13 -1.19906e-12 -1.07976e-13)
(8.89514e-14 -9.81283e-13 -8.89856e-14)
(3.34897e-14 -4.63518e-13 -7.54542e-14)
(3.96862e-10 -3.62497e-12 -1.10724e-13)
(5.43428e-12 -6.70225e-12 -7.93198e-13)
(1.88523e-12 -5.43085e-12 -5.82014e-13)
(1.2155e-12 -4.0513e-12 -4.24449e-13)
(7.84611e-13 -3.0672e-12 -3.18543e-13)
(4.99394e-13 -2.36387e-12 -2.43749e-13)
(3.08388e-13 -1.84873e-12 -1.90624e-13)
(1.79314e-13 -1.46533e-12 -1.46925e-13)
(9.12804e-14 -1.16653e-12 -1.18811e-13)
(3.23978e-14 -5.42783e-13 -9.7765e-14)
(4.32199e-07 -9.06316e-10 1.27339e-09)
(1.54809e-09 -1.02903e-09 1.60491e-11)
(5.0699e-12 -1.46148e-11 -8.4611e-13)
(1.19819e-12 -5.73639e-12 -6.53952e-13)
(7.94273e-13 -4.13285e-12 -4.70688e-13)
(5.33458e-13 -3.05643e-12 -3.46753e-13)
(3.59299e-13 -2.3046e-12 -2.61265e-13)
(2.40998e-13 -1.76881e-12 -1.96298e-13)
(1.59266e-13 -1.36777e-12 -1.52954e-13)
(1.03528e-13 -6.26705e-13 -1.22313e-13)
(2.28817e-13 3.68648e-13 -1.44178e-14)
(2.15474e-13 3.43103e-13 -5.7838e-15)
(1.88949e-13 -5.28459e-14 -4.77191e-15)
(1.63718e-13 -5.5137e-14 -5.90075e-15)
(1.39596e-13 -5.4037e-14 -1.06397e-14)
(1.16647e-13 -5.3043e-14 -2.00139e-14)
(9.48324e-14 -5.14843e-14 -3.64892e-14)
(7.47377e-14 -4.87534e-14 -1.27314e-13)
(5.65998e-14 -4.39565e-14 -4.95009e-13)
(3.67619e-14 -3.86675e-14 -1.47104e-12)
(5.03159e-13 3.34041e-13 -1.93561e-14)
(4.63817e-13 2.36682e-13 -5.08728e-15)
(3.97612e-13 -1.90883e-13 -6.23229e-15)
(3.35704e-13 -1.86892e-13 -6.93985e-15)
(2.78337e-13 -1.79878e-13 -1.13966e-14)
(2.25138e-13 -1.72823e-13 -2.04168e-14)
(1.75681e-13 -1.66115e-13 -3.35554e-14)
(1.30024e-13 -1.60143e-13 -8.68332e-14)
(8.77753e-14 -1.53176e-13 -2.94663e-13)
(4.71104e-14 -1.01721e-13 -9.59342e-13)
(6.24663e-13 2.67764e-13 -3.18237e-14)
(5.54628e-13 6.73976e-14 -1.08604e-14)
(4.58838e-13 -3.8724e-13 -9.84229e-15)
(3.72821e-13 -3.6648e-13 -1.13337e-14)
(2.96848e-13 -3.4306e-13 -1.48184e-14)
(2.29567e-13 -3.21724e-13 -2.40333e-14)
(1.69724e-13 -3.01983e-13 -3.84755e-14)
(1.16488e-13 -2.84102e-13 -6.92644e-14)
(6.94542e-14 -2.67397e-13 -1.96345e-13)
(2.68079e-14 -1.59253e-13 -6.28827e-13)
(8.23549e-13 1.51734e-13 -5.52598e-14)
(7.043e-13 -1.96474e-13 -2.32782e-14)
(5.65042e-13 -6.6577e-13 -2.07828e-14)
(4.45972e-13 -6.10143e-13 -2.17298e-14)
(3.4544e-13 -5.5457e-13 -2.54885e-14)