/*--------------------------------*- C++ -*----------------------------------*\
| =========                 |                                                 |
| \\      /  F ield         | OpenFOAM: The Open Source CFD Toolbox           |
|  \\    /   O peration     | Version:  4.1                                   |
|   \\  /    A nd           | Web:      www.OpenFOAM.org                      |
|    \\/     M anipulation  |                                                 |
\*---------------------------------------------------------------------------*/
FoamFile
{
    version     2.0;
    format      ascii;
    class       surfaceScalarField;
    location    "9.42";
    object      phi;
}
// * * * * * * * * * * * * * * * * * * * * * * * * * * * * * * * * * * * * * //

dimensions      [1 0 -1 0 0 0 0];

internalField   nonuniform List<scalar> 
150500
(
0.0168001
1.82288e-10
-3.29066e-12
0.0168001
9.99328e-10
-1.17009e-11
0.0168001
3.58763e-09
-1.34032e-11
0.0168
9.19071e-09
-2.14599e-11
0.0168
2.51052e-08
-2.18423e-11
0.0167999
5.72003e-08
-2.9147e-11
0.0167998
1.50171e-07
-3.03979e-11
0.0167992
3.25456e-07
-4.07398e-11
0.0167989
9.21076e-07
-5.26401e-11
0.0167937
1.8767e-06
-8.56694e-11
0.0167919
6.12622e-06
-1.59179e-10
0.0167669
1.50204e-05
-4.22309e-10
0.0167168
5.51328e-05
-8.73046e-10
0.0165242
0.000180195
-3.38582e-09
0.0154754
0.0010272
-6.33118e-09
0.0143404
0.00113754
6.61638e-10
0.0131813
0.00116035
3.25679e-10
0.0119424
0.0012382
-3.30769e-10
0.0106147
0.00132632
-4.22562e-10
0.00917919
0.00143374
-4.85732e-10
0.00761609
0.00156176
-4.18962e-10
0.00591719
0.00169764
-4.15165e-10
0.00408985
0.00182585
-4.36439e-10
0.00212828
0.00195995
-4.35884e-10
0.00212652
-4.00014e-10
0.0168001
4.13173e-10
-3.30203e-12
0.0168001
2.0734e-09
-1.17569e-11
0.0168001
7.61121e-09
-1.34083e-11
0.0168
1.93962e-08
-2.14888e-11
0.0168
5.33089e-08
-2.1866e-11
0.0167999
1.21635e-07
-2.91918e-11
0.0167998
3.17768e-07
-3.03787e-11
0.0167991
7.06572e-07
-4.0383e-11
0.0167987
1.88917e-06
-5.28057e-11
0.0167933
4.13922e-06
-7.79113e-11
0.0167916
1.20392e-05
-1.68082e-10
0.0167653
3.14035e-05
-3.75697e-10
0.016715
0.000110275
-9.00947e-10
0.016527
0.00035626
-3.20855e-09
0.0154901
0.00204238
-6.23293e-09
0.0143437
0.00228631
5.55532e-10
0.0131893
0.00231576
2.21804e-10
0.0119556
0.00247077
-3.65346e-10
0.0106283
0.00265194
-4.33471e-10
0.00917498
0.00288503
-4.83927e-10
0.00758826
0.0031469
-4.50238e-10
0.00586586
0.00341862
-4.61605e-10
0.00401331
0.00367674
-4.81056e-10
0.00204133
0.00393045
-4.82208e-10
0.00416619
-4.54861e-10
0.0168001
6.3907e-10
-3.37736e-12
0.0168001
3.08366e-09
-1.17844e-11
0.0168001
1.17228e-08
-1.34756e-11
0.0168
2.9854e-08
-2.14936e-11
0.0168
8.22322e-08
-2.19525e-11
0.0167999
1.87938e-07
-2.93181e-11
0.0167998
4.89803e-07
-3.07581e-11
0.0167991
1.09966e-06
-4.27316e-11
0.0167987
2.87697e-06
-5.03698e-11
0.0167929
6.50121e-06
-1.03741e-10
0.0167914
1.79839e-05
-1.0959e-10
0.0167638
4.75608e-05
-4.59398e-10
0.0167149
0.000166441
-6.97696e-10
0.0165345
0.000523003
-2.7092e-09
0.0155113
0.00304435
-5.90621e-09
0.0143556
0.0034431
2.73049e-10
0.0132095
0.00346207
-1.73535e-11
0.0119885
0.00369036
-4.36818e-10
0.0106729
0.00396567
-4.59884e-10
0.00922267
0.0043333
-4.74561e-10
0.00763235
0.00473558
-4.81775e-10
0.00590271
0.00514672
-5.14008e-10
0.00403224
0.00554585
-5.33083e-10
0.00204431
0.00591615
-5.46975e-10
0.00620848
-5.38932e-10
0.0168001
7.68984e-10
-3.51982e-12
0.0168001
4.28065e-09
-1.16145e-11
0.0168001
1.58682e-08
-1.36437e-11
0.0168
4.08259e-08
-2.14336e-11
0.0168
1.12268e-07
-2.20416e-11
0.0167999
2.57163e-07
-2.9275e-11
0.0167998
6.69209e-07
-3.07744e-11
0.0167991
1.50229e-06
-4.26326e-11
0.0167986
3.9359e-06
-4.9975e-11
0.0167929
8.79549e-06
-1.02676e-10
0.0167908
2.44746e-05
-1.03853e-10
0.0167635
6.30904e-05
-4.43377e-10
0.0167162
0.00022149
-6.44952e-10
0.0165411
0.000684923
-2.51119e-09
0.0155507
0.00401301
-5.73113e-09
0.0143954
0.00459944
1.91112e-10
0.0132627
0.00459476
-1.06254e-10
0.0120633
0.00488827
-4.57513e-10
0.0107677
0.00525951
-4.64482e-10
0.00934438
0.00575422
-4.64061e-10
0.00776302
0.00631537
-4.91437e-10
0.0060285
0.00687927
-5.33152e-10
0.00414031
0.00743239
-5.67919e-10
0.00210949
0.00794506
-5.94486e-10
0.00831592
-6.07659e-10
0.0168001
1.01698e-09
-3.48802e-12
0.0168001
5.60953e-09
-1.16333e-11
0.0168
2.08813e-08
-1.36253e-11
0.0168
5.36156e-08
-2.14578e-11
0.0168
1.48043e-07
-2.20514e-11
0.0167999
3.41088e-07
-2.93209e-11
0.0167997
8.77456e-07
-3.08352e-11
0.0167989
2.06017e-06
-4.28026e-11
0.0167985
4.88745e-06
-4.99809e-11
0.0167916
1.22403e-05
-1.03363e-10
0.0167909
2.95414e-05
-1.01363e-10
0.0167624
7.94954e-05
-4.32348e-10
0.0167202
0.000271888
-6.21237e-10
0.0165562
0.000835921
-2.39575e-09
0.0156306
0.00491621
-5.64161e-09
0.0144713
0.00576044
2.81891e-10
0.0133503
0.00571594
-1.07005e-10
0.0121779
0.00605905
-4.721e-10
0.0109129
0.00652258
-4.70474e-10
0.0095167
0.00714789
-4.56862e-10
0.00797284
0.00785725
-4.99398e-10
0.00625188
0.00859922
-5.42331e-10
0.0043375
0.00934441
-5.88964e-10
0.00223629
0.0100444
-6.18552e-10
0.0105502
-6.54784e-10
0.0168001
1.12554e-09
-3.43485e-12
0.0168001
6.2115e-09
-1.16661e-11
0.0168001
2.31422e-08
-1.35852e-11
0.0168
5.93812e-08
-2.1488e-11
0.0168
1.6415e-07
-2.20497e-11
0.0168
3.77314e-07
-2.94163e-11
0.0167999
9.81686e-07
-3.09096e-11
0.0167994
2.24516e-06
-4.33685e-11
0.0167992
5.71265e-06
-4.9781e-11
0.0167943
1.30302e-05
-9.77094e-11
0.0167918
3.73452e-05
-1.40913e-10
0.0167657
9.20053e-05
-3.7092e-10
0.0167342
0.000313009
-6.23432e-10
0.0165702
0.000986794
-2.38109e-09
0.0157585
0.00570428
-5.68065e-09
0.0145797
0.00694148
4.59438e-10
0.0134669
0.00682899
-5.19141e-11
0.0123284
0.00719574
-4.68826e-10
0.0111198
0.00772923
-4.64293e-10
0.00977227
0.00849323
-4.38086e-10
0.00825952
0.00936732
-4.84014e-10
0.00655851
0.0102985
-5.28203e-10
0.00462451
0.0112766
-5.87984e-10
0.00242661
0.0122408
-6.29166e-10
0.0129746
-6.79609e-10
0.0168001
1.12191e-09
-3.3827e-12
0.0168001
6.19866e-09
-1.16766e-11
0.0168001
2.31289e-08
-1.35233e-11
0.0168001
5.90864e-08
-2.16613e-11
0.0168001
1.63608e-07
-2.17411e-11
0.0168
3.71964e-07
-2.95593e-11
0.0168
9.91149e-07
-3.06503e-11
0.0167999
2.13949e-06
-4.28804e-11
0.0168
6.12925e-06
-4.98461e-11
0.0167963
1.26168e-05
-9.33892e-11
0.0167977
4.13368e-05
-1.47873e-10
0.0167813
9.36956e-05
-3.54874e-10
0.0167116
0.000393675
-6.4226e-10
0.0165796
0.00110507
-2.33594e-09
0.015907
0.00635216
-5.78045e-09
0.0146932
0.00815867
6.54665e-10
0.0135948
0.00792817
2.95904e-11
0.0125039
0.00828505
-4.50034e-10
0.0113614
0.00886962
-4.50921e-10
0.0101113
0.00974175
-4.29189e-10
0.00866688
0.0108099
-4.64142e-10
0.00700126
0.0119627
-5.12121e-10
0.00505664
0.0132192
-5.68344e-10
0.00274612
0.0145494
-6.2015e-10
0.0157184
-6.82016e-10
0.0168001
1.11475e-09
-3.34068e-12
0.0168001
6.22294e-09
-1.16663e-11
0.0168001
2.32023e-08
-1.35577e-11
0.0168001
5.94494e-08
-2.14785e-11
0.0168001
1.63515e-07
-2.19063e-11
0.0168
3.69545e-07
-2.92413e-11
0.0168
1.00065e-06
-3.04533e-11
0.0167999
2.00679e-06
-4.16732e-11
0.0167998
6.77284e-06
-4.93007e-11
0.0167978
1.08547e-05
-8.76549e-11
0.0167935
5.04715e-05
-1.42579e-10
0.0167796
9.38674e-05
-3.19114e-10
0.0167428
0.00044062
-7.2308e-10
0.0166486
0.00118703
-2.24243e-09
0.0163617
0.00661199
-6.0061e-09
0.0150552
0.0094697
7.61509e-10
0.0138956
0.00908963
1.15955e-10
0.0128202
0.00935911
-4.18026e-10
0.0117364
0.0099517
-4.20896e-10
0.0105503
0.010925
-4.0507e-10
0.00920041
0.0121576
-4.29573e-10
0.00760504
0.0135563
-4.83306e-10
0.00568569
0.0151366
-5.37646e-10
0.00325991
0.016973
-5.99923e-10
0.0189758
-6.67272e-10
0.0168001
1.62945e-09
-3.32249e-12
0.0168001
7.33662e-09
-1.1609e-11
0.0168001
2.90245e-08
-1.36423e-11
0.0168
7.18915e-08
-2.1388e-11
0.0168
2.02794e-07
-2.19615e-11
0.0167999
4.53577e-07
-2.90438e-11
0.0167997
1.21963e-06
-3.03545e-11
0.0167989
2.60221e-06
-4.06867e-11
0.0167984
7.50785e-06
-4.80669e-11
0.0167932
1.39782e-05
-1.0383e-10
0.0167939
5.24442e-05
-9.17991e-11
0.0167818
9.61481e-05
-3.54822e-10
0.0167857
0.000443299
-6.24294e-10
0.0167964
0.00116528
-2.09533e-09
0.0172093
0.00617072
-5.90275e-09
0.0157761
0.0109084
7.44303e-10
0.0144355
0.010433
1.12344e-10
0.0133471
0.0104474
-3.87938e-10
0.0123205
0.0109776
-3.9975e-10
0.0112031
0.0120406
-3.99276e-10
0.00993502
0.0134233
-4.215e-10
0.00850027
0.0149889
-4.70509e-10
0.00673587
0.0168988
-5.06435e-10
0.00421888
0.0194874
-5.74178e-10
0.0231915
-6.39017e-10
0.0168001
-3.36307e-12
2.99352e-09
0.0168001
-1.15327e-11
3.08158e-09
0.0168
-1.37903e-11
4.1686e-08
0.0168001
-2.14356e-11
4.13754e-08
0.0168
-2.19907e-11
2.80684e-07
0.0168002
-2.88971e-11
2.74619e-07
0.0167997
-2.9681e-11
1.70295e-06
0.0168006
-3.88097e-11
1.52647e-06
0.0167975
-4.65989e-11
1.08322e-05
0.0168034
-7.85883e-11
6.55888e-06
0.0167802
-1.13461e-10
7.73421e-05
0.0168336
-2.95601e-10
3.51844e-05
0.0167356
-6.36373e-10
0.000545836
0.0170812
-1.92093e-09
0.000810002
0.0186629
-5.81417e-09
0.00455851
0.0170727
1.19501e-10
0.0125015
0.0152844
-1.88399e-10
0.0122225
0.0142276
-2.59855e-10
0.0115041
0.0131067
-3.70958e-10
0.0120973
0.0120941
-3.94122e-10
0.0130517
0.0110054
-4.35226e-10
0.0145103
0.00980256
-4.60759e-10
0.0161899
0.00820194
-5.07832e-10
0.0184971
0.00582026
-5.64615e-10
0.0218662
-6.10636e-10
0.0290082
0.0168001
1.74597e-10
-8.21579e-16
0.0168001
9.59097e-10
-4.13107e-15
0.0168001
3.55606e-09
-1.06324e-14
0.0168
9.14083e-09
-2.24557e-14
0.0168
2.50478e-08
-5.24609e-14
0.0167999
5.71126e-08
-1.02073e-13
0.0167998
1.50063e-07
-2.68637e-13
0.0167992
3.25243e-07
-4.97726e-13
0.0167989
9.20852e-07
-1.64775e-12
0.0167937
1.87765e-06
-2.69634e-12
0.0167919
6.12481e-06
-1.0878e-11
0.0167668
1.50378e-05
-2.43509e-11
0.0167168
5.51608e-05
-7.59138e-11
0.0165239
0.00018038
-2.46587e-10
0.0154742
0.00102795
-5.66068e-10
0.014339
0.00113792
2.36729e-11
0.0131798
0.00116044
4.13767e-12
0.0119409
0.00123821
-3.71394e-11
0.0106132
0.00132627
-4.15203e-11
0.00917782
0.00143366
-4.43834e-11
0.00761492
0.00156158
-4.48539e-11
0.00591628
0.0016974
-4.89832e-11
0.0040892
0.0018256
-5.34111e-11
0.00212791
0.00195968
-5.54824e-11
0.00212618
-5.51476e-11
0.0168001
3.72193e-10
-8.39012e-16
0.0168001
2.02821e-09
-4.20444e-15
0.0168001
7.53863e-09
-1.0845e-14
0.0168
1.93235e-08
-2.29416e-14
0.0168
5.31913e-08
-5.31137e-14
0.0167999
1.21473e-07
-1.02941e-13
0.0167998
3.17473e-07
-2.67299e-13
0.0167991
7.05423e-07
-4.8082e-13
0.0167987
1.88956e-06
-1.65943e-12
0.0167933
4.12829e-06
-2.44746e-12
0.0167916
1.2061e-05
-1.12027e-11
0.0167654
3.13809e-05
-2.29212e-11
0.0167149
0.000110377
-7.71369e-11
0.0165266
0.000356719
-2.40186e-10
0.0154893
0.00204345
-5.65606e-10
0.0143431
0.00228654
2.20733e-11
0.0131889
0.0023157
1.63551e-12
0.0119553
0.00247071
-3.8419e-11
0.0106281
0.00265184
-4.21724e-11
0.00917478
0.00288495
-4.45782e-11
0.00758805
0.00314675
-4.56989e-11
0.00586563
0.0034184
-5.01058e-11
0.0040131
0.00367648
-5.43707e-11
0.0020412
0.00393012
-5.64955e-11
0.00416575
-5.62783e-11
0.0168001
5.74631e-10
-8.58866e-16
0.0168001
3.12815e-09
-4.29278e-15
0.0168001
1.16345e-08
-1.11716e-14
0.0168
2.98335e-08
-2.36742e-14
0.0168
8.21449e-08
-5.58735e-14
0.0167999
1.87883e-07
-1.10092e-13
0.0167998
4.89703e-07
-2.83697e-13
0.0167991
1.09956e-06
-5.69754e-13
0.0167987
2.87683e-06
-1.59229e-12
0.0167929
6.50131e-06
-3.2869e-12
0.0167914
1.79858e-05
-9.43703e-12
0.0167637
4.75719e-05
-2.54481e-11
0.0167149
0.000166487
-7.12074e-11
0.0165347
0.000523227
-2.24672e-10
0.0155116
0.00304514
-5.61443e-10
0.0143559
0.00344337
1.75014e-11
0.0132098
0.00346212
-3.91362e-12
0.0119888
0.00369036
-4.1771e-11
0.0106731
0.00396563
-4.41109e-11
0.00922286
0.00433326
-4.52544e-11
0.00763249
0.0047355
-4.68472e-11
0.00590278
0.00514657
-5.17029e-11
0.00403229
0.00554561
-5.50531e-11
0.00204432
0.00591588
-5.75416e-11
0.00620806
-5.75997e-11
0.0168001
7.81989e-10
-8.66533e-16
0.0168001
4.27185e-09
-4.33672e-15
0.0168001
1.58853e-08
-1.12837e-14
0.0168
4.08167e-08
-2.39208e-14
0.0168
1.12261e-07
-5.64349e-14
0.0167999
2.57132e-07
-1.11266e-13
0.0167998
6.69153e-07
-2.85804e-13
0.0167991
1.50216e-06
-5.73715e-13
0.0167986
3.93581e-06
-1.59457e-12
0.0167929
8.79521e-06
-3.27647e-12
0.0167908
2.44766e-05
-9.37357e-12
0.0167635
6.30954e-05
-2.49396e-11
0.0167162
0.000221518
-7.01787e-11
0.0165412
0.000685055
-2.18755e-10
0.0155509
0.00401353
-5.65025e-10
0.0143958
0.00459958
2.20989e-11
0.0132631
0.00459484
-5.7006e-12
0.0120636
0.00488831
-4.40735e-11
0.010768
0.00525951
-4.57098e-11
0.00934467
0.00575423
-4.622e-11
0.00776327
0.00631533
-4.76649e-11
0.00602867
0.0068792
-5.20931e-11
0.00414042
0.00743222
-5.59679e-11
0.00210955
0.00794483
-5.83254e-11
0.00831557
-5.89048e-11
0.0168001
1.04342e-09
-8.76405e-16
0.0168001
5.61472e-09
-4.38006e-15
0.0168
2.09176e-08
-1.14201e-14
0.0168
5.36264e-08
-2.42169e-14
0.0168
1.48066e-07
-5.71342e-14
0.0167999
3.41087e-07
-1.12647e-13
0.0167997
8.77451e-07
-2.8888e-13
0.0167989
2.06003e-06
-5.77565e-13
0.0167985
4.88748e-06
-1.6111e-12
0.0167916
1.22426e-05
-3.2612e-12
0.016791
2.95264e-05
-9.52744e-12
0.0167624
7.95153e-05
-2.43168e-11
0.0167202
0.000271901
-7.06456e-11
0.0165562
0.000835978
-2.16339e-10
0.0156307
0.00491655
-5.76186e-10
0.0144716
0.0057604
3.39599e-11
0.0133507
0.00571599
-3.60433e-12
0.0121783
0.0060591
-4.58463e-11
0.0109132
0.00652261
-4.70251e-11
0.00951705
0.00714794
-4.68133e-11
0.00797312
0.00785728
-4.92663e-11
0.00625213
0.00859919
-5.2771e-11
0.00433765
0.00934436
-5.69579e-11
0.00223637
0.0100442
-5.81987e-11
0.0105499
-6.00512e-11
0.0168001
1.15181e-09
-9.05631e-16
0.0168001
6.22769e-09
-4.4813e-15
0.0168001
2.31923e-08
-1.18322e-14
0.0168
5.93328e-08
-2.51687e-14
0.0168
1.64312e-07
-5.98733e-14
0.0168
3.77306e-07
-1.1951e-13
0.0167999
9.8187e-07
-3.02746e-13
0.0167994
2.24544e-06
-6.38678e-13
0.0167992
5.71298e-06
-1.61242e-12
0.0167943
1.30332e-05
-3.52222e-12
0.0167917
3.73422e-05
-1.00123e-11
0.0167657
9.20169e-05
-2.46945e-11
0.0167342
0.000313008
-6.44346e-11
0.0165701
0.000986865
-2.2076e-10
0.0157583
0.00570461
-5.88124e-10
0.0145798
0.00694121
4.84252e-11
0.0134671
0.00682893
-1.82269e-12
0.0123287
0.00719576
-4.77352e-11
0.0111201
0.00772925
-4.83885e-11
0.00977261
0.00849326
-4.69422e-11
0.00825982
0.00936739
-4.98144e-11
0.00655874
0.0102986
-5.25387e-11
0.00462468
0.0112766
-5.73736e-11
0.0024267
0.0122406
-5.88095e-11
0.0129744
-6.09706e-11
0.0168001
1.143e-09
-8.98907e-16
0.0168001
6.22049e-09
-4.45386e-15
0.0168001
2.3136e-08
-1.17044e-14
0.0168001
5.91947e-08
-2.50631e-14
0.0168001
1.63573e-07
-5.89503e-14
0.0168
3.72167e-07
-1.17711e-13
0.0168
9.91366e-07
-2.99333e-13
0.0167999
2.14035e-06
-6.17612e-13
0.0168
6.13013e-06
-1.63165e-12
0.0167963
1.26197e-05
-3.39009e-12
0.0167977
4.13434e-05
-1.03555e-11
0.0167813
9.37177e-05
-2.40831e-11
0.0167116
0.000393655
-6.69446e-11
0.0165796
0.00110518
-2.20042e-10
0.0159067
0.00635267
-6.04757e-10
0.0146931
0.0081582
6.73837e-11
0.0135948
0.00792799
4.54398e-12
0.012504
0.00828499
-4.71962e-11
0.0113615
0.00886961
-4.84546e-11
0.0101115
0.00974174
-4.79291e-11
0.00866708
0.0108099
-5.01893e-11
0.00700145
0.0119627
-5.29579e-11
0.00505679
0.0132192
-5.67037e-11
0.0027462
0.0145493
-5.90705e-11
0.0157183
-6.19009e-11
0.0168001
1.12225e-09
-8.35795e-16
0.0168001
6.25411e-09
-4.18035e-15
0.0168001
2.31814e-08
-1.07459e-14
0.0168001
5.94824e-08
-2.29108e-14
0.0168001
1.63492e-07
-5.25344e-14
0.0168
3.69628e-07
-1.02537e-13
0.0168
1.00078e-06
-2.67604e-13
0.0167999
2.00749e-06
-4.81602e-13
0.0167998
6.77426e-06
-1.6342e-12
0.0167978
1.08518e-05
-2.58253e-12
0.0167935
5.04956e-05
-1.07542e-11
0.0167797
9.38631e-05
-1.95009e-11
0.0167427
0.000440716
-8.39942e-11
0.0166484
0.00118721
-2.14272e-10
0.0163609
0.00661306
-6.37608e-10
0.0150547
0.00946895
8.41746e-11
0.0138953
0.0090892
1.77344e-11
0.0128201
0.00935888
-4.42668e-11
0.0117364
0.00995159
-4.64311e-11
0.0105503
0.010925
-4.75947e-11
0.00920051
0.0121576
-4.87732e-11
0.00760517
0.0135563
-5.27018e-11
0.0056858
0.0151367
-5.65634e-11
0.00325997
0.016973
-6.02594e-11
0.0189757
-6.34436e-11
0.0168001
1.59382e-09
-7.96882e-16
0.0168001
7.45108e-09
-4.02061e-15
0.0168
2.88765e-08
-1.02292e-14
0.0168
7.17798e-08
-2.16977e-14
0.0168
2.02598e-07
-4.9382e-14
0.0167999
4.53528e-07
-9.69298e-14
0.0167997
1.21982e-06
-2.43785e-13
0.0167989
2.60335e-06
-4.63193e-13
0.0167984
7.50921e-06
-1.5816e-12
0.0167932
1.39899e-05
-1.43516e-12
0.0167939
5.24486e-05
-1.28301e-11
0.0167817
9.61897e-05
-1.59172e-11
0.0167857
0.000443366
-8.65694e-11
0.0167962
0.00116558
-2.08013e-10
0.0172083
0.00617253
-6.50729e-10
0.0157754
0.0109075
9.24711e-11
0.0144351
0.0104322
2.48062e-11
0.0133468
0.010447
-3.9604e-11
0.0123203
0.0109773
-4.4929e-11
0.011203
0.0120404
-4.94895e-11
0.00993501
0.0134232
-4.9938e-11
0.00850029
0.0149889
-5.37857e-11
0.00673593
0.0168987
-5.68464e-11
0.00421894
0.0194874
-6.24873e-11
0.0231915
-6.67126e-11
0.0168001
-8.02358e-16
2.86376e-09
0.0168001
-4.02474e-15
3.46317e-09
0.0168
-1.03219e-14
4.0505e-08
0.0168001
-2.17971e-14
4.18526e-08
0.0168
-5.05504e-14
2.79455e-07
0.0168002
-9.91151e-14
2.75315e-07
0.0167997
-2.5483e-13
1.7022e-06
0.0168006
-4.9999e-13
1.52816e-06
0.0167975
-1.5214e-12
1.08325e-05
0.0168034
-2.44073e-12
6.56923e-06
0.0167802
-1.08844e-11
7.73558e-05
0.0168336
-1.75246e-11
3.52307e-05
0.0167355
-7.94329e-11
0.000545977
0.0170807
-1.98328e-10
0.00081067
0.0186612
-6.59034e-10
0.00456157
0.0170712
2.3996e-11
0.0125003
0.0152837
-7.64857e-12
0.0122209
0.0142271
-2.94476e-11
0.0115037
0.0131063
-4.81122e-11
0.0120969
0.0120939
-5.17133e-11
0.0130513
0.0110053
-5.4884e-11
0.0145101
0.00980251
-5.73556e-11
0.0161897
0.00820195
-6.21472e-11
0.018497
0.0058203
-6.86583e-11
0.0218662
-7.4412e-11
0.0290082
0.0168001
1.7459e-10
1.49425e-16
0.0168001
9.59068e-10
-2.56834e-16
0.0168001
3.55594e-09
-8.54096e-16
0.0168
9.14052e-09
-1.84028e-15
0.0168
2.50471e-08
-5.33177e-15
0.0167999
5.71109e-08
-1.08027e-14
0.0167998
1.5006e-07
-3.2096e-14
0.0167992
3.25238e-07
-6.05081e-14
0.0167989
9.20838e-07
-2.10724e-13
0.0167937
1.8777e-06
-3.45149e-13
0.0167919
6.12469e-06
-1.42469e-12
0.0167668
1.50384e-05
-3.19366e-12
0.0167168
5.51612e-05
-1.00341e-11
0.0165239
0.000180387
-3.26804e-11
0.0154742
0.00102797
-7.547e-11
0.0143389
0.00113792
2.59635e-12
0.0131797
0.00116044
1.62302e-13
0.0119409
0.00123821
-5.21124e-12
0.0106132
0.00132627
-5.78481e-12
0.0091778
0.00143365
-6.15115e-12
0.0076149
0.00156158
-6.11981e-12
0.00591626
0.00169739
-6.60557e-12
0.00408919
0.0018256
-7.15129e-12
0.0021279
0.00195968
-7.38818e-12
0.00212617
-7.33292e-12
0.0168001
3.72181e-10
1.48331e-16
0.0168001
2.02814e-09
-8.11051e-17
0.0168001
7.53839e-09
-8.81483e-16
0.0168
1.93229e-08
-1.90346e-15
0.0168
5.31896e-08
-5.42201e-15
0.0167999
1.21469e-07
-1.09316e-14
0.0167998
3.17463e-07
-3.19677e-14
0.0167991
7.0538e-07
-5.84777e-14
0.0167987
1.88957e-06
-2.12339e-13
0.0167933
4.1279e-06
-3.13926e-13
0.0167916
1.20617e-05
-1.46643e-12
0.0167654
3.138e-05
-3.01363e-12
0.0167149
0.000110381
-1.01904e-11
0.0165266
0.000356734
-3.18719e-11
0.0154892
0.00204348
-7.54391e-11
0.014343
0.00228654
2.39784e-12
0.0131889
0.0023157
-1.5776e-13
0.0119553
0.0024707
-5.38218e-12
0.0106281
0.00265184
-5.8762e-12
0.00917479
0.00288495
-6.18406e-12
0.00758805
0.00314675
-6.23597e-12
0.00586563
0.0034184
-6.756e-12
0.0040131
0.00367648
-7.27851e-12
0.0020412
0.00393012
-7.51972e-12
0.00416574
-7.47594e-12
0.0168001
5.74626e-10
1.46809e-16
0.0168001
3.12811e-09
-9.47449e-17
0.0168001
1.16344e-08
-9.24688e-16
0.0168
2.98332e-08
-2.00102e-15
0.0168
8.21442e-08
-5.7893e-15
0.0167999
1.87882e-07
-1.18794e-14
0.0167998
4.89699e-07
-3.41469e-14
0.0167991
1.09956e-06
-7.01333e-14
0.0167987
2.87682e-06
-2.03875e-13
0.0167929
6.50129e-06
-4.24085e-13
0.0167914
1.79858e-05
-1.23806e-12
0.0167637
4.75722e-05
-3.34514e-12
0.0167149
0.000166488
-9.44246e-12
0.0165347
0.000523235
-2.98473e-11
0.0155117
0.00304516
-7.49883e-11
0.014356
0.00344337
1.81526e-12
0.0132098
0.00346212
-9.18886e-13
0.0119888
0.00369035
-5.83564e-12
0.0106732
0.00396563
-6.14862e-12
0.00922288
0.00433326
-6.29429e-12
0.00763251
0.0047355
-6.40972e-12
0.00590279
0.00514657
-6.98588e-12
0.0040323
0.00554561
-7.39532e-12
0.00204432
0.00591588
-7.67935e-12
0.00620806
-7.66581e-12
0.0168001
7.81984e-10
1.46175e-16
0.0168001
4.27182e-09
-2.81398e-16
0.0168001
1.58852e-08
-9.39583e-16
0.0168
4.08164e-08
-2.03358e-15
0.0168
1.1226e-07
-5.86979e-15
0.0167999
2.57131e-07
-1.20479e-14
0.0167998
6.69149e-07
-3.44765e-14
0.0167991
1.50215e-06
-7.07614e-14
0.0167986
3.93579e-06
-2.04536e-13
0.0167929
8.79519e-06
-4.23513e-13
0.0167908
2.44764e-05
-1.23208e-12
0.0167635
6.30956e-05
-3.28456e-12
0.0167162
0.000221518
-9.32534e-12
0.0165412
0.000685061
-2.91188e-11
0.0155509
0.00401355
-7.55912e-11
0.0143958
0.00459957
2.43166e-12
0.0132632
0.00459484
-1.07302e-12
0.0120636
0.00488831
-6.15927e-12
0.0107681
0.00525951
-6.38825e-12
0.00934469
0.00575423
-6.45821e-12
0.00776329
0.00631533
-6.56169e-12
0.00602868
0.00687921
-7.08941e-12
0.00414043
0.00743222
-7.56223e-12
0.00210956
0.00794483
-7.83192e-12
0.00831558
-7.88032e-12
0.0168001
1.04341e-09
1.4532e-16
0.0168001
5.61466e-09
-2.87842e-16
0.0168
2.09174e-08
-9.58804e-16
0.0168
5.36258e-08
-2.07548e-15
0.0168
1.48064e-07
-5.96986e-15
0.0167999
3.41083e-07
-1.22466e-14
0.0167997
8.77441e-07
-3.4935e-14
0.0167989
2.06e-06
-7.138e-14
0.0167985
4.88745e-06
-2.07083e-13
0.0167916
1.22425e-05
-4.22227e-13
0.016791
2.95261e-05
-1.255e-12
0.0167624
7.95149e-05
-3.20859e-12
0.0167202
0.000271905
-9.40739e-12
0.0165562
0.000835982
-2.88581e-11
0.0156307
0.00491657
-7.7232e-11
0.0144716
0.00576038
3.99207e-12
0.0133508
0.00571598
-8.267e-13
0.0121783
0.0060591
-6.42054e-12
0.0109133
0.00652261
-6.59731e-12
0.00951706
0.00714794
-6.58741e-12
0.00797313
0.00785729
-6.81877e-12
0.00625215
0.00859919
-7.24306e-12
0.00433766
0.00934437
-7.75889e-12
0.00223637
0.0100443
-7.90041e-12
0.0105499
-8.10371e-12
0.0168001
1.15181e-09
1.43217e-16
0.0168001
6.22771e-09
-1.25456e-16
0.0168001
2.31924e-08
-1.01313e-15
0.0168
5.93329e-08
-2.20154e-15
0.0168
1.64313e-07
-6.3373e-15
0.0168
3.77307e-07
-1.31509e-14
0.0167999
9.81873e-07
-3.67971e-14
0.0167994
2.24545e-06
-7.94789e-14
0.0167992
5.71299e-06
-2.07595e-13
0.0167943
1.30333e-05
-4.57276e-13
0.0167917
3.73421e-05
-1.32129e-12
0.0167657
9.20174e-05
-3.26507e-12
0.0167342
0.000313007
-8.60591e-12
0.0165701
0.000986869
-2.9505e-11
0.0157583
0.00570464
-7.90081e-11
0.0145798
0.00694117
5.88469e-12
0.0134672
0.00682891
-4.47935e-13
0.0123287
0.00719575
-6.70631e-12
0.0111201
0.00772925
-6.82577e-12
0.00977263
0.00849326
-6.68206e-12
0.00825983
0.0093674
-6.9722e-12
0.00655875
0.0102986
-7.31795e-12
0.00462469
0.0112766
-7.92022e-12
0.00242671
0.0122407
-8.09459e-12
0.0129744
-8.33851e-12
0.0168001
1.14303e-09
1.43614e-16
0.0168001
6.22065e-09
-3.0143e-16
0.0168001
2.31365e-08
-1.00308e-15
0.0168001
5.91962e-08
-2.17189e-15
0.0168001
1.63577e-07
-6.25679e-15
0.0168
3.72177e-07
-1.29152e-14
0.0168
9.91388e-07
-3.64121e-14
0.0167999
2.14044e-06
-7.67938e-14
0.0168
6.13019e-06
-2.10523e-13
0.0167963
1.26202e-05
-4.4051e-13
0.0167977
4.13435e-05
-1.36928e-12
0.0167813
9.37202e-05
-3.18986e-12
0.0167116
0.000393648
-8.96091e-12
0.0165796
0.00110519
-2.947e-11
0.0159067
0.00635271
-8.14181e-11
0.0146931
0.00815815
8.36422e-12
0.0135948
0.00792797
2.37358e-13
0.012504
0.00828498
-6.69079e-12
0.0113615
0.00886961
-6.89529e-12
0.0101115
0.00974174
-6.8929e-12
0.0086671
0.0108099
-7.1204e-12
0.00700146
0.0119627
-7.4919e-12
0.00505679
0.0132193
-7.98348e-12
0.00274621
0.0145494
-8.29846e-12
0.0157183
-8.63768e-12
0.0168001
1.12227e-09
1.48283e-16
0.0168001
6.2542e-09
-2.66422e-16
0.0168001
2.31817e-08
-8.786e-16
0.0168001
5.94833e-08
-1.8983e-15
0.0168001
1.63495e-07
-5.41999e-15
0.0168
3.69633e-07
-1.09489e-14
0.0168
1.0008e-06
-3.22975e-14
0.0167999
2.00752e-06
-5.89699e-14
0.0167998
6.77432e-06
-2.11319e-13
0.0167978
1.08522e-05
-3.34395e-13
0.0167935
5.04951e-05
-1.425e-12
0.0167797
9.3865e-05
-2.58689e-12
0.0167427
0.000440718
-1.12416e-11
0.0166484
0.00118721
-2.87515e-11
0.0163608
0.00661315
-8.59466e-11
0.0150547
0.00946886
1.05357e-11
0.0138953
0.00908917
1.94258e-12
0.0128201
0.00935886
-6.38481e-12
0.0117364
0.00995158
-6.72199e-12
0.0105503
0.010925
-6.96878e-12
0.00920051
0.0121576
-7.08984e-12
0.00760517
0.0135563
-7.63496e-12
0.00568581
0.0151367
-8.17173e-12
0.00325998
0.016973
-8.69713e-12
0.0189757
-9.11241e-12
0.0168001
1.59383e-09
1.50292e-16
0.0168001
7.45117e-09
-5.4914e-17
0.0168
2.88767e-08
-8.11514e-16
0.0168
7.17806e-08
-1.76534e-15
0.0168
2.02599e-07
-5.00226e-15
0.0167999
4.53533e-07
-1.02834e-14
0.0167997
1.21983e-06
-2.92992e-14
0.0167989
2.60337e-06
-5.67943e-14
0.0167984
7.50935e-06
-2.05095e-13
0.0167932
1.39897e-05
-1.84004e-13
0.0167939
5.24499e-05
-1.70277e-12
0.0167817
9.61907e-05
-2.11571e-12
0.0167857
0.000443376
-1.15946e-11
0.0167962
0.00116561
-2.79487e-11
0.0172082
0.00617273
-8.77956e-11
0.0157752
0.0109074
1.15342e-11
0.014435
0.0104321
3.36733e-12
0.0133467
0.0104469
-5.86055e-12
0.0123203
0.0109773
-6.63238e-12
0.011203
0.0120404
-7.3521e-12
0.00993501
0.0134232
-7.42679e-12
0.00850028
0.0149889
-8.0012e-12
0.00673593
0.0168988
-8.46886e-12
0.00421894
0.0194874
-9.33922e-12
0.0231915
-9.97582e-12
0.0168001
1.50447e-16
2.86381e-09
0.0168001
-2.44621e-16
3.46343e-09
0.0168
-8.19599e-16
4.0506e-08
0.0168001
-1.77253e-15
4.18549e-08
0.0168
-5.15068e-15
2.79464e-07
0.0168002
-1.05689e-14
2.7533e-07
0.0167997
-3.0775e-14
1.70226e-06
0.0168006
-6.16954e-14
1.52822e-06
0.0167975
-1.97462e-13
1.08331e-05
0.0168034
-3.16209e-13
6.56928e-06
0.0167802
-1.44884e-12
7.73593e-05
0.0168336
-2.32573e-12
3.52328e-05
0.0167355
-1.06589e-11
0.000546
0.0170807
-2.6664e-11
0.000810742
0.0186609
-8.89248e-11
0.00456194
0.0170709
2.61878e-12
0.0125002
0.0152836
-1.48705e-12
0.0122207
0.014227
-4.58673e-12
0.0115036
0.0131062
-7.23195e-12
0.0120968
0.0120938
-7.79054e-12
0.0130513
0.0110053
-8.30378e-12
0.0145101
0.0098025
-8.71396e-12
0.0161897
0.00820195
-9.52066e-12
0.018497
0.00582029
-1.06562e-11
0.0218662
-1.16958e-11
0.0290082
0.0168001
1.74589e-10
-4.51545e-17
0.0168001
9.59065e-10
-1.98537e-16
0.0168001
3.55593e-09
-6.52915e-16
0.0168
9.14048e-09
-1.39018e-15
0.0168
2.5047e-08
-4.01128e-15
0.0167999
5.71107e-08
-8.09777e-15
0.0167998
1.5006e-07
-2.41423e-14
0.0167992
3.25238e-07
-4.54526e-14
0.0167989
9.20836e-07
-1.59204e-13
0.0167937
1.8777e-06
-2.62377e-13
0.0167919
6.12467e-06
-1.05944e-12
0.0167668
1.50385e-05
-2.53919e-12
0.0167168
5.51613e-05
-6.90891e-12
0.0165239
0.000180388
-2.63291e-11
0.0154742
0.00102797
-6.11131e-11
0.0143389
0.00113792
1.58792e-12
0.0131797
0.00116044
1.9401e-13
0.0119409
0.00123821
-3.72975e-12
0.0106132
0.00132627
-4.04189e-12
0.0091778
0.00143365
-4.02421e-12
0.0076149
0.00156158
-3.69953e-12
0.00591626
0.00169739
-3.87269e-12
0.00408918
0.0018256
-4.32406e-12
0.0021279
0.00195968
-4.48834e-12
0.00212617
-4.51347e-12
0.0168001
3.72179e-10
-4.68206e-17
0.0168001
2.02813e-09
-2.05189e-16
0.0168001
7.53836e-09
-6.73794e-16
0.0168
1.93228e-08
-1.43834e-15
0.0168
5.31893e-08
-4.08686e-15
0.0167999
1.21468e-07
-8.21668e-15
0.0167998
3.17462e-07
-2.41089e-14
0.0167991
7.05374e-07
-4.41666e-14
0.0167987
1.88957e-06
-1.60519e-13
0.0167933
4.12785e-06
-2.40095e-13
0.0167916
1.20618e-05
-1.0895e-12
0.0167654
3.13799e-05
-2.40317e-12
0.0167149
0.000110381
-7.01537e-12
0.0165266
0.000356736
-2.57216e-11
0.0154892
0.00204349
-6.1048e-11
0.014343
0.00228654
1.45294e-12
0.0131889
0.0023157
-3.6757e-14
0.0119553
0.0024707
-3.8485e-12
0.0106281
0.00265183
-4.09936e-12
0.00917479
0.00288495
-4.0361e-12
0.00758805
0.00314675
-3.79173e-12
0.00586563
0.0034184
-4.03016e-12
0.0040131
0.00367648
-4.46034e-12
0.0020412
0.00393012
-4.65932e-12
0.00416574
-4.68693e-12
0.0168001
5.74626e-10
-4.9133e-17
0.0168001
3.12811e-09
-2.14664e-16
0.0168001
1.16344e-08
-7.08876e-16
0.0168
2.98332e-08
-1.51622e-15
0.0168
8.21441e-08
-4.36871e-15
0.0167999
1.87882e-07
-8.93556e-15
0.0167998
4.89699e-07
-2.577e-14
0.0167991
1.09956e-06
-5.29091e-14
0.0167987
2.87682e-06
-1.54576e-13
0.0167929
6.50129e-06
-3.24004e-13
0.0167914
1.79858e-05
-9.26634e-13
0.0167637
4.75722e-05
-2.66869e-12
0.0167149
0.000166489
-6.5532e-12
0.0165347
0.000523236
-2.41365e-11
0.0155117
0.00304517
-6.0756e-11
0.014356
0.00344336
1.05216e-12
0.0132098
0.00346211
-6.75529e-13
0.0119888
0.00369035
-4.18487e-12
0.0106732
0.00396563
-4.29787e-12
0.00922288
0.00433326
-4.11638e-12
0.00763251
0.0047355
-3.93554e-12
0.00590279
0.00514657
-4.28401e-12
0.0040323
0.00554561
-4.58589e-12
0.00204432
0.00591588
-4.85885e-12
0.00620806
-4.91437e-12
0.0168001
7.81983e-10
-5.01537e-17
0.0168001
4.27182e-09
-2.19346e-16
0.0168001
1.58852e-08
-7.22463e-16
0.0168
4.08163e-08
-1.54511e-15
0.0168
1.1226e-07
-4.4411e-15
0.0167999
2.5713e-07
-9.08533e-15
0.0167998
6.69149e-07
-2.60909e-14
0.0167991
1.50215e-06
-5.35219e-14
0.0167986
3.93579e-06
-1.55576e-13
0.0167929
8.79519e-06
-3.24474e-13
0.0167908
2.44764e-05
-9.26076e-13
0.0167635
6.30956e-05
-2.62874e-12
0.0167162
0.000221518
-6.51267e-12
0.0165412
0.000685062
-2.36117e-11
0.0155509
0.00401355
-6.13503e-11
0.0143958
0.00459957
1.48762e-12
0.0132632
0.00459484
-7.61804e-13
0.0120636
0.00488831
-4.42199e-12
0.0107681
0.00525951
-4.46709e-12
0.00934469
0.00575423
-4.23907e-12
0.00776329
0.00631533
-4.05553e-12
0.00602868
0.00687921
-4.39003e-12
0.00414043
0.00743222
-4.80769e-12
0.00210956
0.00794483
-5.06251e-12
0.00831558
-5.18735e-12
0.0168001
1.04341e-09
-5.1492e-17
0.0168001
5.61466e-09
-2.25144e-16
0.0168
2.09174e-08
-7.39449e-16
0.0168
5.36257e-08
-1.58141e-15
0.0168
1.48064e-07
-4.52979e-15
0.0167999
3.41082e-07
-9.26076e-15
0.0167997
8.7744e-07
-2.65198e-14
0.0167989
2.05999e-06
-5.41241e-14
0.0167985
4.88745e-06
-1.58125e-13
0.0167916
1.22424e-05
-3.24145e-13
0.016791
2.95261e-05
-9.48199e-13
0.0167624
7.95149e-05
-2.57613e-12
0.0167202
0.000271906
-6.61496e-12
0.0165562
0.000835982
-2.34737e-11
0.0156307
0.00491658
-6.28171e-11
0.0144716
0.00576037
2.71111e-12
0.0133508
0.00571598
-5.25733e-13