/*--------------------------------*- C++ -*----------------------------------*\
| =========                 |                                                 |
| \\      /  F ield         | OpenFOAM: The Open Source CFD Toolbox           |
|  \\    /   O peration     | Version:  4.1                                   |
|   \\  /    A nd           | Web:      www.OpenFOAM.org                      |
|    \\/     M anipulation  |                                                 |
\*---------------------------------------------------------------------------*/
FoamFile
{
    version     2.0;
    format      ascii;
    class       volScalarField;
    location    "9.42";
    object      T;
}
// * * * * * * * * * * * * * * * * * * * * * * * * * * * * * * * * * * * * * //

dimensions      [0 0 0 1 0 0 0];

internalField   nonuniform List<scalar> 
52500
(
0.999997
1.00003
1.00005
1.0002
1.00036
1.00118
1.00216
1.00659
1.01319
1.0355
1.08995
1.21302
1.60786
2.48117
2.70071
2.7275
2.72513
2.72578
2.73952
2.75173
2.7651
2.77351
2.78065
2.78557
2.78956
0.999997
1.00003
1.00005
1.0002
1.00036
1.00117
1.00214
1.00654
1.01305
1.03519
1.089
1.21078
1.60257
2.47339
2.69759
2.72698
2.72446
2.72495
2.73869
2.75072
2.76408
2.77205
2.77921
2.78332
2.78656
0.999996
1.00002
1.00005
1.00019
1.00035
1.00114
1.00209
1.0064
1.01277
1.0345
1.08725
1.20589
1.59228
2.45693
2.69058
2.72577
2.72282
2.72315
2.73681
2.74825
2.76156
2.76972
2.7761
2.78014
2.78234
0.999996
1.00002
1.00005
1.00019
1.00034
1.00111
1.00202
1.00619
1.01236
1.03335
1.08483
1.19802
1.5775
2.43075
2.68
2.72387
2.71976
2.71978
2.7324
2.74462
2.75594
2.76406
2.77143
2.77568
2.77771
0.999996
1.00002
1.00005
1.00018
1.00033
1.00106
1.00193
1.0059
1.01181
1.03182
1.08157
1.18764
1.55714
2.39271
2.66531
2.72149
2.7161
2.71509
2.72647
2.73857
2.75134
2.75666
2.76174
2.76569
2.76694
0.999996
1.00002
1.00004
1.00016
1.0003
1.00098
1.00181
1.00544
1.01117
1.0294
1.07789
1.17525
1.53133
2.34033
2.64573
2.71832
2.71237
2.70839
2.72078
2.72742
2.7411
2.74891
2.7535
2.75624
2.75739
0.999995
1.00002
1.00004
1.00015
1.00028
1.0009
1.00168
1.00496
1.0104
1.02681
1.07238
1.15978
1.50154
2.27655
2.62063
2.71453
2.70772
2.70203
2.71423
2.72159
2.72803
2.73384
2.73774
2.73882
2.73666
0.999995
1.00002
1.00004
1.00014
1.00026
1.00083
1.00153
1.00457
1.00945
1.0247
1.06547
1.14708
1.44863
2.1813
2.58728
2.70665
2.69876
2.69015
2.70041
2.71048
2.71854
2.71931
2.72073
2.71891
2.71459
0.999995
1.00001
1.00003
1.00013
1.00023
1.00076
1.00139
1.00435
1.00836
1.02336
1.05581
1.13247
1.38367
2.05617
2.54492
2.69766
2.69028
2.67878
2.68759
2.69182
2.69958
2.69969
2.69578
2.68681
2.66354
0.999995
1.00001
1.00003
1.00011
1.0002
1.00066
1.00122
1.00375
1.00732
1.02047
1.04757
1.11682
1.32081
1.93545
2.47693
2.66924
2.66707
2.66094
2.67444
2.67591
2.67929
2.67642
2.66546
2.64287
2.59166
1.00001
1.00003
1.00006
1.00021
1.00037
1.00119
1.00217
1.0066
1.0132
1.03551
1.08997
1.21308
1.60798
2.48137
2.70085
2.72759
2.72522
2.72587
2.73962
2.75183
2.76519
2.7736
2.78074
2.78566
2.78964
1.00001
1.00003
1.00006
1.0002
1.00037
1.00118
1.00215
1.00655
1.01306
1.03521
1.08903
1.21083
1.60269
2.47359
2.69772
2.72707
2.72455
2.72503
2.73877
2.75081
2.76417
2.77213
2.7793
2.7834
2.78665
1.00001
1.00003
1.00006
1.0002
1.00036
1.00115
1.0021
1.00641
1.01279
1.03452
1.08726
1.20596
1.59235
2.4571
2.6907
2.72585
2.72289
2.72323
2.73689
2.74833
2.76164
2.76981
2.77619
2.78022
2.78242
1.00001
1.00003
1.00006
1.00019
1.00035
1.00111
1.00203
1.0062
1.01238
1.03337
1.08485
1.19808
1.57756
2.43093
2.68011
2.72394
2.71984
2.71985
2.73248
2.7447
2.75602
2.76414
2.77152
2.77576
2.77779
1
1.00003
1.00006
1.00018
1.00033
1.00106
1.00194
1.00591
1.01182
1.03184
1.08159
1.1877
1.5572
2.39289
2.66542
2.72156
2.71617
2.71517
2.72655
2.73864
2.75141
2.75674
2.76182
2.76578
2.76702
1
1.00003
1.00005
1.00017
1.00031
1.00099
1.00182
1.00545
1.01118
1.02942
1.07791
1.17531
1.5314
2.34052
2.64584
2.71838
2.71244
2.70846
2.72086
2.72749
2.74116
2.74898
2.75358
2.75632
2.75747
1
1.00003
1.00005
1.00016
1.00029
1.00091
1.00168
1.00497
1.01041
1.02683
1.07241
1.15984
1.50162
2.27675
2.62073
2.7146
2.70779
2.70211
2.7143
2.72167
2.72811
2.73392
2.73782
2.7389
2.73674
1
1.00002
1.00004
1.00015
1.00026
1.00084
1.00154
1.00458
1.00947
1.02471
1.0655
1.14713
1.44872
2.18153
2.58739
2.70671
2.69883
2.69022
2.70048
2.71055
2.71861
2.71938
2.72081
2.71898
2.71467
1
1.00002
1.00004
1.00013
1.00024
1.00077
1.0014
1.00436
1.00837
1.02338
1.05582
1.13252
1.38375
2.0564
2.54503
2.69774
2.69036
2.67886
2.68766
2.69189
2.69964
2.69976
2.69585
2.68688
2.66361
1
1.00002
1.00004
1.00012
1.00021
1.00067
1.00123
1.00376
1.00733
1.02048
1.04759
1.11687
1.32089
1.93569
2.47705
2.66932
2.66714
2.66101
2.67451
2.67598
2.67936
2.67649
2.66553
2.64294
2.59172
1.00001
1.00003
1.00006
1.00021
1.00037
1.00119
1.00217
1.0066
1.0132
1.03552
1.08998
1.21308
1.60798
2.48138
2.70085
2.72759
2.72522
2.72587
2.73962
2.75183
2.76519
2.7736
2.78074
2.78566
2.78964
1.00001
1.00003
1.00006
1.0002
1.00037
1.00118
1.00215
1.00655
1.01306
1.03521
1.08903
1.21083
1.6027
2.4736
2.69773
2.72707
2.72455
2.72503
2.73877
2.75081
2.76417
2.77213
2.7793
2.7834
2.78665
1.00001
1.00003
1.00006
1.0002
1.00036
1.00115
1.0021
1.00641
1.01279
1.03452
1.08726
1.20596
1.59235
2.45711
2.69071
2.72585
2.7229
2.72323
2.73689
2.74833
2.76164
2.76981
2.77619
2.78022
2.78242
1.00001
1.00003
1.00006
1.00019
1.00035
1.00111
1.00203
1.0062
1.01238
1.03337
1.08485
1.19808
1.57757
2.43094
2.68011
2.72394
2.71984
2.71985
2.73248
2.7447
2.75602
2.76414
2.77152
2.77576
2.77779
1
1.00003
1.00006
1.00018
1.00033
1.00106
1.00194
1.00591
1.01182
1.03184
1.08159
1.1877
1.55721
2.3929
2.66543
2.72156
2.71617
2.71517
2.72655
2.73864
2.75141
2.75674
2.76182
2.76578
2.76702
1
1.00003
1.00005
1.00017
1.00031
1.00099
1.00182
1.00545
1.01118
1.02942
1.07791
1.17531
1.53141
2.34054
2.64585
2.71838
2.71244
2.70846
2.72086
2.72749
2.74116
2.74898
2.75358
2.75632
2.75747
1
1.00003
1.00005
1.00016
1.00029
1.00091
1.00168
1.00497
1.01041
1.02683
1.07241
1.15984
1.50162
2.27677
2.62074
2.7146
2.70779
2.70211
2.71431
2.72167
2.72811
2.73392
2.73782
2.7389
2.73674
1
1.00002
1.00004
1.00015
1.00026
1.00084
1.00154
1.00458
1.00947
1.02471
1.0655
1.14713
1.44873
2.18156
2.5874
2.70672
2.69883
2.69022
2.70048
2.71055
2.71862
2.71938
2.72081
2.71898
2.71467
1
1.00002
1.00004
1.00013
1.00024
1.00077
1.0014
1.00436
1.00837
1.02338
1.05582
1.13252
1.38376
2.05642
2.54504
2.69774
2.69036
2.67886
2.68766
2.69189
2.69964
2.69977
2.69585
2.68688
2.66361
1
1.00002
1.00004
1.00012
1.00021
1.00067
1.00123
1.00376
1.00733
1.02048
1.04759
1.11687
1.3209
1.93572
2.47705
2.66932
2.66714
2.66101
2.67451
2.67598
2.67936
2.67649
2.66553
2.64294
2.59172
1.00001
1.00003
1.00006
1.00021
1.00037
1.00119
1.00217
1.0066
1.0132
1.03552
1.08998
1.21308
1.60798
2.48138
2.70085
2.72759
2.72522
2.72588
2.73962
2.75183
2.76519
2.7736
2.78074
2.78566
2.78964
1.00001
1.00003
1.00006
1.0002
1.00037
1.00118
1.00215
1.00655
1.01306
1.03521
1.08903
1.21083
1.6027
2.4736
2.69773
2.72707
2.72455
2.72503
2.73877
2.75081
2.76417
2.77213
2.7793
2.7834
2.78665
1.00001
1.00003
1.00006
1.0002
1.00036
1.00115
1.0021
1.00641
1.01279
1.03452
1.08726
1.20596
1.59236
2.45711
2.69071
2.72585
2.7229
2.72323
2.73689
2.74833
2.76164
2.76981
2.77619
2.78022
2.78242
1.00001
1.00003
1.00006
1.00019
1.00035
1.00111
1.00203
1.0062
1.01238
1.03337
1.08485
1.19808
1.57757
2.43094
2.68011
2.72394
2.71984
2.71985
2.73248
2.7447
2.75602
2.76414
2.77152
2.77576
2.77779
1
1.00003
1.00006
1.00018
1.00033
1.00106
1.00194
1.00591
1.01182
1.03184
1.08159
1.1877
1.55721
2.3929
2.66543
2.72156
2.71617
2.71517
2.72655
2.73864
2.75141
2.75674
2.76182
2.76578
2.76702
1
1.00003
1.00005
1.00017
1.00031
1.00099
1.00182
1.00545
1.01118
1.02942
1.07791
1.17531
1.53141
2.34054
2.64585
2.71838
2.71245
2.70846
2.72086
2.72749
2.74116
2.74898
2.75358
2.75632
2.75747
1
1.00003
1.00005
1.00016
1.00029
1.00091
1.00168
1.00497
1.01041
1.02683
1.07241
1.15984
1.50163
2.27677
2.62074
2.7146
2.70779
2.70211
2.71431
2.72167
2.72811
2.73392
2.73782
2.7389
2.73674
1
1.00002
1.00004
1.00015
1.00026
1.00084
1.00154
1.00458
1.00947
1.02471
1.0655
1.14713
1.44873
2.18156
2.5874
2.70672
2.69883
2.69022
2.70048
2.71055
2.71862
2.71938
2.72081
2.71898
2.71467
1
1.00002
1.00004
1.00013
1.00024
1.00077
1.0014
1.00436
1.00837
1.02338
1.05582
1.13252
1.38376
2.05643
2.54504
2.69774
2.69036
2.67886
2.68766
2.69189
2.69964
2.69977
2.69585
2.68688
2.66361
1
1.00002
1.00004
1.00012
1.00021
1.00067
1.00123
1.00376
1.00733
1.02048
1.04759
1.11687
1.3209
1.93572
2.47706
2.66932
2.66714
2.66101
2.67451
2.67598
2.67936
2.67649
2.66553
2.64294
2.59172
1.00001
1.00003
1.00006
1.00021
1.00037
1.00119
1.00217
1.0066
1.0132
1.03552
1.08998
1.21308
1.60799
2.48138
2.70085
2.72759
2.72522
2.72588
2.73962
2.75183
2.76519
2.7736
2.78074
2.78566
2.78964
1.00001
1.00003
1.00006
1.0002
1.00037
1.00118
1.00215
1.00655
1.01306
1.03521
1.08903
1.21083
1.6027
2.4736
2.69773
2.72707
2.72455
2.72503
2.73877
2.75081
2.76417
2.77213
2.7793
2.7834
2.78665
1.00001
1.00003
1.00006
1.0002
1.00036
1.00115
1.0021
1.00641
1.01279
1.03452
1.08726
1.20596
1.59236
2.45711
2.69071
2.72585
2.7229
2.72323
2.73689
2.74833
2.76164
2.76981
2.77619
2.78022
2.78242
1.00001
1.00003
1.00006
1.00019
1.00035
1.00111
1.00203
1.0062
1.01238
1.03337
1.08485
1.19808
1.57757
2.43094
2.68011
2.72394
2.71984
2.71985
2.73248
2.7447
2.75602
2.76414
2.77152
2.77576
2.77779
1
1.00003
1.00006
1.00018
1.00033
1.00106
1.00194
1.00591
1.01182
1.03184
1.08159
1.1877
1.55721
2.3929
2.66543
2.72156
2.71617
2.71517
2.72655
2.73864
2.75141
2.75674
2.76182
2.76578
2.76702
1
1.00003
1.00005
1.00017
1.00031
1.00099
1.00182
1.00545
1.01118
1.02942
1.07791
1.17531
1.53141
2.34054
2.64585
2.71838
2.71245
2.70846
2.72086
2.72749
2.74116
2.74898
2.75358
2.75632
2.75747
1
1.00003
1.00005
1.00016
1.00029
1.00091
1.00168
1.00497
1.01041
1.02683
1.07241
1.15984
1.50163
2.27677
2.62074
2.7146
2.70779
2.70211
2.71431
2.72167
2.72811
2.73392
2.73782
2.7389
2.73674
1
1.00002
1.00004
1.00015
1.00026
1.00084
1.00154
1.00458
1.00947
1.02471
1.0655
1.14713
1.44873
2.18156
2.5874
2.70672
2.69883
2.69022
2.70048
2.71055
2.71862
2.71938
2.72081
2.71898
2.71467
1
1.00002
1.00004
1.00013
1.00024
1.00077
1.0014
1.00436
1.00837
1.02338
1.05582
1.13252
1.38377
2.05643
2.54504
2.69774
2.69036
2.67886
2.68766
2.69189
2.69964
2.69977
2.69585
2.68688
2.66361
1
1.00002
1.00004
1.00012
1.00021
1.00067
1.00123
1.00376
1.00733
1.02048
1.04759
1.11687
1.3209
1.93573
2.47706
2.66932
2.66715
2.66101
2.67451
2.67598
2.67936
2.67649
2.66553
2.64294
2.59172
1.00001
1.00003
1.00006
1.00021
1.00037
1.00119
1.00217
1.0066
1.0132
1.03552
1.08998
1.21308
1.60799
2.48138
2.70085
2.72759
2.72522
2.72588
2.73962
2.75183
2.76519
2.7736
2.78074
2.78566
2.78964
1.00001
1.00003
1.00006
1.0002
1.00037
1.00118
1.00215
1.00655
1.01306
1.03521
1.08903
1.21083
1.6027
2.4736
2.69773
2.72707
2.72455
2.72503
2.73877
2.75081
2.76417
2.77213
2.7793
2.7834
2.78665
1.00001
1.00003
1.00006
1.0002
1.00036
1.00115
1.0021
1.00641
1.01279
1.03452
1.08726
1.20596
1.59236
2.45711
2.69071
2.72585
2.7229
2.72323
2.73689
2.74833
2.76164
2.76981
2.77619
2.78022
2.78242
1.00001
1.00003
1.00006
1.00019
1.00035
1.00111
1.00203
1.0062
1.01238
1.03337
1.08485
1.19808
1.57757
2.43094
2.68011
2.72394
2.71984
2.71985
2.73248
2.7447
2.75602
2.76414
2.77152
2.77576
2.77779
1
1.00003
1.00006
1.00018
1.00033
1.00106
1.00194
1.00591
1.01182
1.03184
1.08159
1.1877
1.55721
2.3929
2.66543
2.72156
2.71617
2.71517
2.72655
2.73864
2.75141
2.75674
2.76182
2.76578
2.76702
1
1.00003
1.00005
1.00017
1.00031
1.00099
1.00182
1.00545
1.01118
1.02942
1.07791
1.17531
1.53141
2.34054
2.64585
2.71838
2.71245
2.70846
2.72086
2.72749
2.74116
2.74898
2.75358
2.75632
2.75747
1
1.00003
1.00005
1.00016
1.00029
1.00091
1.00168
1.00497
1.01041
1.02683
1.07241
1.15984
1.50163
2.27677
2.62074
2.7146
2.70779
2.70211
2.71431
2.72167
2.72811
2.73392
2.73782
2.7389
2.73674
1
1.00002
1.00004
1.00015
1.00026
1.00084
1.00154
1.00458
1.00947
1.02471
1.0655
1.14713
1.44873
2.18156
2.5874
2.70672
2.69883
2.69022
2.70048
2.71055
2.71862
2.71938
2.72081
2.71898
2.71467
1
1.00002
1.00004
1.00013
1.00024
1.00077
1.0014
1.00436
1.00837
1.02338
1.05582
1.13252
1.38377
2.05643
2.54504
2.69774
2.69036
2.67886
2.68766
2.69189
2.69964
2.69977
2.69585
2.68688
2.66361
1
1.00002
1.00004
1.00012
1.00021
1.00067
1.00123
1.00376
1.00733
1.02048
1.04759
1.11687
1.3209
1.93573
2.47706
2.66932
2.66715
2.66101
2.67451
2.67598
2.67936
2.67649
2.66553
2.64294
2.59172
1.00001
1.00003
1.00006
1.00021
1.00037
1.00119
1.00217
1.0066
1.0132
1.03552
1.08998
1.21308
1.60798
2.48138
2.70085
2.72759
2.72522
2.72588
2.73962
2.75183
2.76519
2.7736
2.78074
2.78566
2.78964
1.00001
1.00003
1.00006
1.0002
1.00037
1.00118
1.00215
1.00655
1.01306
1.03521
1.08903
1.21083
1.6027
2.4736
2.69773
2.72707
2.72455
2.72503
2.73877
2.75081
2.76417
2.77213
2.7793
2.7834
2.78665
1.00001
1.00003
1.00006
1.0002
1.00036
1.00115
1.0021
1.00641
1.01279
1.03452
1.08726
1.20596
1.59236
2.45711
2.69071
2.72585
2.7229
2.72323
2.73689
2.74833
2.76164
2.76981
2.77619
2.78022
2.78242
1.00001
1.00003
1.00006
1.00019
1.00035
1.00111
1.00203
1.0062
1.01238
1.03337
1.08485
1.19808
1.57757
2.43094
2.68011
2.72394
2.71984
2.71985
2.73248
2.7447
2.75602
2.76414
2.77152
2.77576
2.77779
1
1.00003
1.00006
1.00018
1.00033
1.00106
1.00194
1.00591
1.01182
1.03184
1.08159
1.1877
1.55721
2.3929
2.66543
2.72156
2.71617
2.71517
2.72655
2.73864
2.75141
2.75674
2.76182
2.76578
2.76702
1
1.00003
1.00005
1.00017
1.00031
1.00099
1.00182
1.00545
1.01118
1.02942
1.07791
1.17531
1.53141
2.34054
2.64585
2.71838
2.71245
2.70846
2.72086
2.72749
2.74116
2.74898
2.75358
2.75632
2.75747
1
1.00003
1.00005
1.00016
1.00029
1.00091
1.00168
1.00497
1.01041
1.02683
1.07241
1.15984
1.50163
2.27677
2.62074
2.7146
2.70779
2.70211
2.71431
2.72167
2.72811
2.73392
2.73782
2.7389
2.73674
1
1.00002
1.00004
1.00015
1.00026
1.00084
1.00154
1.00458
1.00947
1.02471
1.0655
1.14713
1.44873
2.18156
2.5874
2.70672
2.69883
2.69022
2.70048
2.71055
2.71862
2.71938
2.72081
2.71898
2.71467
1
1.00002
1.00004
1.00013
1.00024
1.00077
1.0014
1.00436
1.00837
1.02338
1.05582
1.13252
1.38376
2.05643
2.54504
2.69774
2.69036
2.67886
2.68766
2.69189
2.69964
2.69977
2.69585
2.68688
2.66361
1
1.00002
1.00004
1.00012
1.00021
1.00067
1.00123
1.00376
1.00733
1.02048
1.04759
1.11687
1.3209
1.93572
2.47706
2.66932
2.66714
2.66101
2.67451
2.67598
2.67936
2.67649
2.66553
2.64294
2.59172
1.00001
1.00003
1.00006
1.00021
1.00037
1.00119
1.00217
1.0066
1.0132
1.03552
1.08998
1.21308
1.60798
2.48138
2.70085
2.72759
2.72522
2.72587
2.73962
2.75183
2.76519
2.7736
2.78074
2.78566
2.78964
1.00001
1.00003
1.00006
1.0002
1.00037
1.00118
1.00215
1.00655
1.01306
1.03521
1.08903
1.21083
1.6027
2.4736
2.69773
2.72707
2.72455
2.72503
2.73877
2.75081
2.76417
2.77213
2.7793
2.7834
2.78665
1.00001
1.00003
1.00006
1.0002
1.00036
1.00115
1.0021
1.00641
1.01279
1.03452
1.08726
1.20596
1.59235
2.45711
2.69071
2.72585
2.7229
2.72323
2.73689
2.74833
2.76164
2.76981
2.77619
2.78022
2.78242
1.00001
1.00003
1.00006
1.00019
1.00035
1.00111
1.00203
1.0062
1.01238
1.03337
1.08485
1.19808
1.57757
2.43094
2.68011
2.72394
2.71984
2.71985
2.73248
2.7447
2.75602
2.76414
2.77152
2.77576
2.77779
1
1.00003
1.00006
1.00018
1.00033
1.00106
1.00194
1.00591
1.01182
1.03184
1.08159
1.1877
1.55721
2.3929
2.66543
2.72156
2.71617
2.71517
2.72655
2.73864
2.75141
2.75674
2.76182
2.76578
2.76702
1
1.00003
1.00005
1.00017
1.00031
1.00099
1.00182
1.00545
1.01118
1.02942
1.07791
1.17531
1.53141
2.34054
2.64585
2.71838
2.71244
2.70846
2.72086
2.72749
2.74116
2.74898
2.75358
2.75632
2.75747
1
1.00003
1.00005
1.00016
1.00029
1.00091
1.00168
1.00497
1.01041
1.02683
1.07241
1.15984
1.50162
2.27677
2.62074
2.7146
2.70779
2.70211
2.71431
2.72167
2.72811
2.73392
2.73782
2.7389
2.73674
1
1.00002
1.00004
1.00015
1.00026
1.00084
1.00154
1.00458
1.00947
1.02471
1.0655
1.14713
1.44873
2.18156
2.5874
2.70672
2.69883
2.69022
2.70048
2.71055
2.71862
2.71938
2.72081
2.71898
2.71467
1
1.00002
1.00004
1.00013
1.00024
1.00077
1.0014
1.00436
1.00837
1.02338
1.05582
1.13252
1.38376
2.05642
2.54504
2.69774
2.69036
2.67886
2.68766
2.69189
2.69964
2.69977
2.69585
2.68688
2.66361
1
1.00002
1.00004
1.00012
1.00021
1.00067
1.00123
1.00376
1.00733
1.02048
1.04759
1.11687
1.3209
1.93572
2.47705
2.66932
2.66714
2.66101
2.67451
2.67598
2.67936
2.67649
2.66553
2.64294
2.59172
1.00001
1.00003
1.00006
1.00021
1.00037
1.00119
1.00217
1.0066
1.0132
1.03551
1.08997
1.21308
1.60798
2.48137
2.70085
2.72759
2.72522
2.72587
2.73962
2.75183
2.76519
2.7736
2.78074
2.78566
2.78964
1.00001
1.00003
1.00006
1.0002
1.00037
1.00118
1.00215
1.00655
1.01306
1.03521
1.08903
1.21083
1.60269
2.47359
2.69772
2.72707
2.72455
2.72503
2.73877
2.75081
2.76417
2.77213
2.7793
2.7834
2.78665
1.00001
1.00003
1.00006
1.0002
1.00036
1.00115
1.0021
1.00641
1.01279
1.03452
1.08726
1.20596
1.59235
2.4571
2.6907
2.72585
2.72289
2.72323
2.73689
2.74833
2.76164
2.76981
2.77619
2.78022
2.78242
1.00001
1.00003
1.00006
1.00019
1.00035
1.00111
1.00203
1.0062
1.01238
1.03337
1.08485
1.19808
1.57756
2.43093
2.68011
2.72394
2.71984
2.71985
2.73248
2.7447
2.75602
2.76414
2.77152
2.77576
2.77779
1
1.00003
1.00006
1.00018
1.00033
1.00106
1.00194
1.00591
1.01182
1.03184
1.08159
1.1877
1.5572
2.39289
2.66542
2.72156
2.71617
2.71517
2.72655
2.73864
2.75141
2.75674
2.76182
2.76578
2.76702
1
1.00003
1.00005
1.00017
1.00031
1.00099
1.00182
1.00545
1.01118
1.02942
1.07791
1.17531
1.5314
2.34052
2.64584
2.71838
2.71244
2.70846
2.72086
2.72749
2.74116
2.74898
2.75358
2.75632
2.75747
1
1.00003
1.00005
1.00016
1.00029
1.00091
1.00168
1.00497
1.01041
1.02683
1.07241
1.15984
1.50162
2.27675
2.62073
2.7146
2.70779
2.70211
2.7143
2.72167
2.72811
2.73392
2.73782
2.7389
2.73674
1
1.00002
1.00004
1.00015
1.00026
1.00084
1.00154
1.00458
1.00947
1.02471
1.0655
1.14713
1.44872
2.18153
2.58739
2.70671
2.69883
2.69022
2.70048
2.71055
2.71861
2.71938
2.72081
2.71898
2.71467
1
1.00002
1.00004
1.00013
1.00024
1.00077
1.0014
1.00436
1.00837
1.02338
1.05582
1.13252
1.38375
2.0564
2.54503
2.69774
2.69036
2.67886
2.68766
2.69189
2.69964
2.69976
2.69585
2.68688
2.66361
1
1.00002
1.00004
1.00012
1.00021
1.00067
1.00123
1.00376
1.00733
1.02048
1.04759
1.11687
1.32089
1.93569
2.47705
2.66932
2.66714
2.66101
2.67451
2.67598
2.67936
2.67649
2.66553
2.64294
2.59172
0.999997
1.00003
1.00005
1.0002
1.00036
1.00118
1.00216
1.00659
1.01319
1.0355
1.08995
1.21302
1.60786
2.48117
2.70071
2.7275
2.72513
2.72578
2.73952
2.75173
2.7651
2.77351
2.78065
2.78557
2.78956
0.999997
1.00003
1.00005
1.0002
1.00036
1.00117
1.00214
1.00654
1.01305
1.03519
1.089
1.21078
1.60257
2.47339
2.69759
2.72698
2.72446
2.72495
2.73869
2.75072
2.76408
2.77205
2.77921
2.78332
2.78656
0.999996
1.00002
1.00005
1.00019
1.00035
1.00114
1.00209
1.0064
1.01277
1.0345
1.08725
1.20589
1.59228
2.45693
2.69058
2.72577
2.72282
2.72315
2.73681
2.74825
2.76156
2.76972
2.7761
2.78014
2.78234
0.999996
1.00002
1.00005
1.00019
1.00034
1.00111
1.00202
1.00619
1.01236
1.03335
1.08483
1.19802
1.5775
2.43075
2.68
2.72387
2.71976
2.71978
2.7324
2.74462
2.75594
2.76406
2.77143
2.77568
2.77771
0.999996
1.00002
1.00005
1.00018
1.00033
1.00106
1.00193
1.0059
1.01181
1.03182
1.08157
1.18764
1.55714
2.39271
2.66531
2.72149
2.7161
2.71509
2.72647
2.73857
2.75134
2.75666
2.76174
2.76569
2.76694
0.999996
1.00002
1.00004
1.00016
1.0003
1.00098
1.00181
1.00544
1.01117
1.0294
1.07789
1.17525
1.53133
2.34033
2.64573
2.71832
2.71237
2.70839
2.72078
2.72741
2.7411
2.74891
2.7535
2.75624
2.75739
0.999995
1.00002
1.00004
1.00015
1.00028
1.0009
1.00168
1.00496
1.0104
1.02681
1.07238
1.15978
1.50154
2.27655
2.62063
2.71453
2.70772
2.70203
2.71423
2.72159
2.72803
2.73384
2.73774
2.73882
2.73666
0.999995
1.00002
1.00004
1.00014
1.00026
1.00083
1.00153
1.00457
1.00945
1.0247
1.06547
1.14708
1.44862
2.1813
2.58728
2.70665
2.69876
2.69015
2.70041
2.71048
2.71854
2.71931
2.72073
2.71891
2.71459
0.999995
1.00001
1.00003
1.00013
1.00023
1.00076
1.00139
1.00435
1.00836
1.02336
1.05581
1.13247
1.38367
2.05617
2.54492
2.69766
2.69028
2.67878
2.68759
2.69182
2.69958
2.69969
2.69578
2.68681
2.66354
0.999995
1.00001
1.00003
1.00011
1.0002
1.00066
1.00122
1.00375
1.00732
1.02047
1.04757
1.11682
1.32081
1.93544
2.47693
2.66924
2.66707
2.66094
2.67444
2.67591
2.67929
2.67642
2.66546
2.64287
2.59166
0.999997
1
1.00003
1.00007
1.00023
1.00043
1.00132
1.00256
1.00706
1.01617
1.03942
1.11141
1.25345
1.6951
2.4957
2.65031
2.63654
2.63709
2.64632
2.65396
2.65375
2.64655
2.62552
2.57476
2.41345
0.999996
1
1.00003
1.00006
1.00021
1.00038
1.00122
1.00223
1.00683
1.0136
1.03669
1.09199
1.2207
1.61437
2.4483
2.62784
2.6264
2.621
2.62183
2.62952
2.62831
2.61512
2.58304
2.52461
2.36608
0.999996
1
1.00002
1.00005
1.00018
1.00032
1.00105
1.00191
1.00586
1.01162
1.03147
1.0795
1.18432
1.53972
2.33874
2.58316
2.62067
2.61426
2.60027
2.60123
2.59896
2.58435
2.54506
2.49161
2.37018
0.999996
0.999999
1.00002
1.00004
1.00015
1.00027
1.00086
1.0016
1.00469
1.00987
1.02528
1.06814
1.14987
1.46887
2.18245
2.53114
2.61841
2.60717
2.59493
2.57699
2.56823
2.55221
2.51752
2.4735
2.37871
0.999995
0.999998
1.00001
1.00003
1.00012
1.00023
1.00073
1.00134
1.00414
1.00808
1.02239
1.05339
1.12819
1.36154
2.02845
2.42594
2.59718
2.59082
2.58396
2.56842
2.54425
2.5244
2.48364
2.45359
2.38744
0.999994
0.999999
1
1.00003
1.00007
1.00023
1.00043
1.0013
1.00257
1.00692
1.01642
1.03911
1.11135
1.25161
1.68033
2.3731
2.55435
2.55397
2.55484
2.54934
2.53164
2.51022
2.46509
2.42284
2.38274
0.999994
0.999998
1
1.00003
1.00006
1.00019
1.00035
1.00115
1.00208
1.00643
1.01263
1.03434
1.08517
1.20197
1.56915
2.32006
2.52418
2.53195
2.52645
2.52212
2.51122
2.49728
2.4643
2.41449
2.37097
0.999994
0.999997
1
1.00002
1.00004
1.00014
1.00027
1.00085
1.00163
1.00461
1.01016
1.02525
1.07001
1.15203
1.47907
2.19072
2.46577
2.525
2.50907
2.50297
2.4881
2.47258
2.45652
2.41936
2.37263
0.999994
0.999995
1
1.00001
1.00004
1.00008
1.00026
1.00051
1.00143
1.00317
1.00783
1.02103
1.04676
1.14084
1.31731
1.91335
2.36178
2.50894
2.50274
2.49228
2.48033
2.4582
2.44097
2.41872
2.37992
0.999993
0.999994
0.999998
1
1.00003
1.00006
1.00022
1.0004
1.00127
1.00236
1.007
1.01446
1.03773
1.09616
1.23343
1.60085
2.28691
2.46213
2.47633
2.47093
2.46364
2.45006
2.4303
2.41499
2.39164
0.999992
0.999994
0.999995
1
1.00001
1.00006
1.00012
1.00038
1.00072
1.00205
1.00444
1.01114
1.02953
1.06632
1.19695
1.46634
2.12616
2.43077
2.47083
2.46101
2.45015
2.43958
2.42438
2.41251
2.39917
0.999992
0.999993
0.999994
1
1.00001
1.00005
1.00009
1.0003
1.00055
1.00173
1.0033
1.00921
1.02097
1.05075
1.1441
1.33646
1.85805
2.33087
2.45917
2.4565
2.44603
2.43723
2.42578
2.41886
2.41099
0.999992
0.999992
0.999994
0.999997
1.00001
1.00002
1.00009
1.00017
1.00054
1.00101
1.00305
1.006
1.01678
1.037
1.09653
1.23405
1.70954
2.16057
2.41579
2.44315
2.44576
2.44099
2.43361
2.43082
2.42414
0.999992
0.999992
0.999993
0.999995
1
1.00001
1.00006
1.00012
1.0004
1.00074
1.00228
1.00437
1.01223
1.02757
1.06671
1.18225
1.46282
2.04951
2.35503
2.43237
2.4399
2.45139
2.45075
2.4491
2.44273
0.999991
0.999992
0.999992
0.999995
0.999998
1.00001
1.00003
1.00012
1.00022
1.00071
1.00132
1.00394
1.00795
1.02108
1.05232
1.12113
1.34147
1.90265
2.27406
2.42656
2.44932
2.45737
2.46579
2.46554
2.45815
0.999991
0.999991
0.999992
0.999994
0.999996
1.00001
1.00002
1.00009
1.00016
1.00053
1.00098
1.003
1.00576
1.01655
1.03511
1.09427
1.2225
1.69661
2.13366
2.40346
2.45877
2.47064
2.47926
2.48013
2.47149
0.999991
0.999991
0.999992
0.999992
0.999996
1
1.00002
1.00004
1.00015
1.00029
1.00089
1.00171
1.00478
1.01059
1.0261
1.07189
1.15478
1.48149
2.12785
2.38077
2.48067
2.48637
2.49076
2.48483
2.47165
0.999991
0.999991
0.999991
0.999992
0.999995
0.999998
1.00001
1.00003
1.00012
1.00022
1.00072
1.00132
1.00406
1.00789
1.02215
1.05075
1.12575
1.3392
1.9636
2.34492
2.51388
2.51862
2.51141
2.49719
2.47431
0.999991
0.999991
0.999991
0.999992
0.999993
0.999998
1
1.00003
1.00006
1.00022
1.00041
1.00126
1.00246
1.00686
1.01538
1.03815
1.10329
1.24567
1.63986
2.37858
2.54644
2.54731
2.52586
2.50389
2.47499
0.999991
0.999991
0.999991
0.999992
0.999993
0.999995
1
1.00002
1.00007
1.00013
1.00042
1.00081
1.00231
1.00504
1.01269
1.03406
1.07612
1.23001
1.56258
2.28611
2.61304
2.61837
2.57503
2.52759
2.48203
0.999991
0.999991
0.999991
0.999991
0.999993
0.999994
1
1.00001
1.00005
1.00011
1.00035
1.00066
1.0019
1.00419
1.01048
1.02851
1.06369
1.19759
1.46864
2.14852
2.58444
2.66701
2.61942
2.57536
2.51728
0.999991
0.999991
0.999991
0.999991
0.999992
0.999995
0.999998
1.00001
1.00003
1.00013
1.00024
1.00076
1.00147
1.00416
1.00928
1.02322
1.06435
1.14233
1.43982
2.13538
2.5555
2.69098
2.64854
2.60418
2.55577
0.999991
0.999991
0.999991
0.999991
0.999992
0.999994
0.999998
1.00001
1.00003
1.00012
1.00022
1.00071
1.00131
1.0041
1.00791
1.02246
1.05225
1.12805
1.36198
2.00942
2.55071
2.70781
2.66515
2.61235
2.57075
0.999991
0.999991
0.999991
0.999991
0.999992
0.999994
0.999997
1.00001
1.00003
1.0001
1.0002
1.00064
1.00118
1.0037
1.00707
1.02042
1.04561
1.11601
1.31049
1.90877
2.50189
2.70928
2.67877
2.63056
2.59315
0.999991
0.999991
0.999991
0.999991
0.999992
0.999994
0.999996
1.00001
1.00002
1.00009
1.00017
1.00057
1.00106
1.00328
1.00642
1.0181
1.042
1.10366
1.286
1.83173
2.49589
2.71934
2.68527
2.64957
2.61691
0.999991
0.999991
0.999991
0.999991
0.999992
0.999993
0.999997
1
1.00003
1.00006
1.0002
1.00039
1.00117
1.00237
1.00637
1.01536
1.03688
1.10622
1.24119
1.68659
2.5426
2.7137
2.68664
2.66757
2.6305
0.999991
0.999991
0.999991
0.999991
0.999991
0.999993
0.999995
1
1.00001
1.00007
1.00013
1.0004
1.00086
1.00224
1.00566
1.01319
1.03792
1.08097
1.25899
1.64456
2.4399
2.71355
2.70819
2.68399
2.65039
0.999991
0.999991
0.999991
0.999991
0.999992
0.999992
0.999996
1
1.00002
1.00005
1.00018
1.00033
1.00105
1.00203
1.00586
1.01284
1.03284
1.0907
1.20551
1.61268
2.44857
2.6927
2.70963
2.68871
2.65886
0.999991
0.999991
0.999991
0.999991
0.999992
0.999992
0.999996
1
1.00002
1.00004
1.00016
1.0003
1.00096
1.00185
1.00536
1.01179
1.03016
1.08388
1.18791
1.57609
2.40899
2.69
2.71801
2.69435
2.662
0.999991
0.999991
0.999991
0.999991
0.999991
0.999992
0.999994
1
1.00001
1.00005
1.0001
1.0003
1.00069
1.0017
1.00461
1.01031
1.03073
1.06403
1.2141
1.49147
2.2838
2.69205
2.73771
2.71207
2.67534
0.999991
0.999991
0.999991
0.999991
0.999991
0.999992
0.999995
0.999998
1.00001
1.00003
1.00012
1.00025
1.0007
1.00165
1.00402
1.01103
1.02488
1.07548
1.15822
1.53208
2.29399
2.6712
2.73501
2.71065
2.67049
0.999991
0.999991
0.999991
0.999991
0.999991
0.999992
0.999994
1
1.00001
1.00004
1.00009
1.0003
1.0006
1.00165
1.00389
1.00941
1.0266
1.05803
1.18628
1.42871
2.16366
2.6838
2.74842
2.71938
2.67355
0.999991
0.999991
0.999991
0.999991
0.999991
0.999992
0.999993
0.999999
1.00001
1.00004
1.00008
1.00028
1.00055
1.00155
1.00355
1.00875
1.02454
1.05428
1.17267
1.39973
2.08974
2.67185
2.75477
2.72473
2.67476
0.999991
0.999991
0.999991
0.999991
0.999991
0.999992
0.999994
0.999997
1.00001
1.00003
1.00011
1.00021
1.00064
1.00137
1.00352
1.00903
1.02093
1.06183
1.13172
1.43052
2.10595
2.6714
2.75108
2.72061
2.66823
0.999991
0.999991
0.999991
0.999991
0.999991
0.999992
0.999993
0.999998
1
1.00003
1.00007
1.00023
1.0005
1.0013
1.00331
1.00767
1.02211
1.04762
1.15272
1.34943
1.99239
2.66602
2.75851
2.72879
2.6735
0.999991
0.999991
0.999991
0.999991
0.999991
0.999992
0.999994
0.999997
1.00001
1.00003
1.0001
1.0002
1.00062
1.00124
1.00345
1.00794
1.0196
1.05515
1.1224
1.37648
2.02415
2.64493
2.75172
2.72679
2.67952
0.999991
0.999991
0.999991
0.999991
0.999991
0.999992
0.999993
0.999998
1
1.00004
1.00007
1.00025
1.00047
1.00139
1.00297
1.00758
1.02002
1.04556
1.1375
1.31505
1.8824
2.61878
2.76308
2.73874
2.68978
0.999991
0.999991
0.999991
0.999991
0.999991
0.999992
0.999993
0.999998
1
1.00004
1.00007
1.00025
1.00047
1.0014
1.00291
1.00756
1.01938
1.04466
1.13338
1.30514
1.83712
2.60758
2.76976
2.74724
2.69893
0.999991
0.999991
0.999991
0.999991
0.999991
0.999992
0.999994
0.999997
1.00001
1.00003
1.0001
1.0002
1.00064
1.0012
1.0037
1.00735
1.02034
1.04892
1.11885
1.33276
1.97411
2.57024
2.75886
2.73972
2.69729
0.999991
0.999991
0.999991
0.999991
0.999991
0.999992
0.999994
0.999997
1.00001
1.00003
1.00011
1.0002
1.00066
1.00121
1.00381
1.0073
1.02104
1.04742
1.12021
1.32498
1.9659
2.56226
2.75816
2.73965
2.69753
1.00001
1.00001
1.00004
1.00007
1.00024
1.00043
1.00133
1.00257
1.00707
1.01618
1.03944
1.11144
1.25352
1.69519
2.49573
2.6504
2.63662
2.63716
2.64639
2.65402
2.65381
2.64662
2.62558
2.57482
2.4135
1
1.00001
1.00004
1.00007
1.00022
1.00039
1.00123
1.00224
1.00684
1.01361
1.03671
1.09202
1.22075
1.61447
2.44843
2.62792
2.62647
2.62107
2.6219
2.62958
2.62838
2.61518
2.5831
2.52467
2.36614
1
1.00001
1.00003
1.00006
1.00018
1.00033
1.00106
1.00192
1.00587
1.01163
1.03149
1.07952
1.18438
1.53979
2.33893
2.58325
2.62073
2.61432
2.60034
2.6013
2.59903
2.58441
2.54512
2.49167
2.37024
1
1.00001
1.00003
1.00005
1.00015
1.00028
1.00087
1.00161
1.0047
1.00988
1.0253
1.06816
1.14992
1.46896
2.18266
2.53125
2.61847
2.60723
2.595
2.57706
2.56831
2.55228
2.51758
2.47356
2.37877
1
1.00001
1.00002
1.00004
1.00013
1.00023
1.00074
1.00135
1.00415
1.00809
1.0224
1.05341
1.12823
1.36162
2.02866
2.42606
2.59726
2.59089
2.58403
2.5685
2.54432
2.52448
2.4837
2.45365
2.38751
1
1.00001
1.00001
1.00004
1.00008
1.00024
1.00044
1.00131
1.00258
1.00693
1.01643
1.03913
1.11138
1.25168
1.68051
2.37317
2.55442
2.55403
2.5549
2.54941
2.53171
2.51029
2.46517
2.42291
2.38281
1
1.00001
1.00001
1.00003
1.00006
1.0002
1.00036
1.00116
1.00209
1.00644
1.01264
1.03436
1.08519
1.20203
1.56922
2.32018
2.52429
2.53202
2.52652
2.52219
2.51129
2.49735
2.46438
2.41458
2.37106
1
1
1.00001
1.00003
1.00005
1.00015
1.00028
1.00086
1.00164
1.00462
1.01017
1.02527
1.07003
1.1521
1.47914
2.19093
2.46586
2.52507
2.50914
2.50305
2.48818
2.47266
2.45661
2.41946
2.37273
1
1
1.00001
1.00002
1.00005
1.00009
1.00027
1.00052
1.00144
1.00318
1.00785
1.02105
1.04678
1.14088
1.31742
1.91354