/*--------------------------------*- C++ -*----------------------------------*\
| =========                 |                                                 |
| \\      /  F ield         | OpenFOAM: The Open Source CFD Toolbox           |
|  \\    /   O peration     | Version:  4.1                                   |
|   \\  /    A nd           | Web:      www.OpenFOAM.org                      |
|    \\/     M anipulation  |                                                 |
\*---------------------------------------------------------------------------*/
FoamFile
{
    version     2.0;
    format      ascii;
    class       volScalarField;
    location    "0.8";
    object      Ma;
}
// * * * * * * * * * * * * * * * * * * * * * * * * * * * * * * * * * * * * * //

dimensions      [0 0 0 0 0 0 0];

internalField   nonuniform List<scalar> 
18000
(
5.21157e-12
5.15393e-12
5.08483e-12
5.02817e-12
4.97205e-12
4.91656e-12
4.86167e-12
4.8079e-12
4.75492e-12
4.70375e-12
6.49307e-12
6.26952e-12
6.04297e-12
5.83514e-12
5.63629e-12
5.44542e-12
5.2622e-12
5.08667e-12
4.91758e-12
4.75921e-12
8.18435e-12
7.69757e-12
7.233e-12
6.80878e-12
6.41372e-12
6.04632e-12
5.70498e-12
5.38591e-12
5.08879e-12
4.81591e-12
1.04447e-11
9.54203e-12
8.72212e-12
7.98668e-12
7.32613e-12
6.73092e-12
6.19346e-12
5.70742e-12
5.26698e-12
4.87352e-12
1.35102e-11
1.19521e-11
1.05988e-11
9.42239e-12
8.40175e-12
7.51212e-12
6.73445e-12
6.05303e-12
5.45318e-12
4.9323e-12
1.7731e-11
1.51398e-11
1.2988e-11
1.11836e-11
9.67524e-12
8.40654e-12
7.33469e-12
6.42452e-12
5.64749e-12
4.99207e-12
2.36287e-11
1.94175e-11
1.60581e-11
1.33605e-11
1.11915e-11
9.43449e-12
8.00124e-12
6.82424e-12
5.8509e-12
5.05279e-12
3.21209e-11
2.53634e-11
2.02187e-11
1.62803e-11
1.3253e-11
1.0904e-11
9.06505e-12
7.61376e-12
6.45882e-12
5.56213e-12
5.30207e-09
5.37898e-09
5.07251e-09
4.79294e-09
4.5399e-09
4.31032e-09
4.10141e-09
3.91074e-09
3.73666e-09
3.6666e-09
5.84133e-07
6.30585e-08
5.38923e-08
4.71235e-08
4.14231e-08
3.65987e-08
3.24989e-08
2.90033e-08
2.59141e-08
1.05173e-07
5.58615e-12
5.52078e-12
5.44798e-12
5.38423e-12
5.32178e-12
5.26045e-12
5.199e-12
5.13967e-12
5.08101e-12
5.02384e-12
7.017e-12
6.76385e-12
6.51738e-12
6.284e-12
6.0614e-12
5.84794e-12
5.64446e-12
5.44921e-12
5.26251e-12
5.08564e-12
8.91914e-12
8.36437e-12
7.85386e-12
7.37417e-12
6.93047e-12
6.51905e-12
6.13827e-12
5.78373e-12
5.45402e-12
5.14986e-12
1.14962e-11
1.04614e-11
9.54558e-12
8.7084e-12
7.96059e-12
7.29024e-12
6.68843e-12
6.14667e-12
5.65631e-12
5.21474e-12
1.50474e-11
1.3244e-11
1.17065e-11
1.03534e-11
9.18766e-12
8.17917e-12
7.30279e-12
6.53905e-12
5.86994e-12
5.2824e-12
2.00315e-11
1.69879e-11
1.44981e-11
1.23958e-11
1.06562e-11
9.20606e-12
7.99094e-12
6.966e-12
6.09634e-12
5.35238e-12
2.71553e-11
2.21142e-11
1.81457e-11
1.49544e-11
1.24249e-11
1.03983e-11
8.76148e-12
7.42981e-12
6.33492e-12
5.42458e-12
3.75955e-11
2.92455e-11
2.29747e-11
1.8193e-11
1.45722e-11
1.17925e-11
9.63467e-12
7.93983e-12
6.59317e-12
5.50511e-12
2.09457e-10
4.76999e-10
3.93638e-10
3.26145e-10
2.73133e-10
2.30902e-10
1.96889e-10
1.69215e-10
1.46522e-10
1.29775e-10
4.09011e-07
6.03062e-08
5.27605e-08
4.63761e-08
4.1063e-08
3.66012e-08
3.28218e-08
2.95955e-08
2.68313e-08
2.57997e-08
5.44417e-13
5.23496e-13
4.10735e-13
3.95971e-13
3.82159e-13
3.6977e-13
3.58465e-13
3.48793e-13
3.40007e-13
3.30391e-13
7.54761e-13
6.85632e-13
6.17937e-13
5.67297e-13
5.21406e-13
4.80462e-13
4.43612e-13
4.11603e-13
3.84705e-13
3.44264e-13
9.62927e-13
8.46172e-13
8.2063e-13
7.35145e-13
6.59089e-13
5.92515e-13
5.35206e-13
4.8626e-13
4.42517e-13
3.63238e-13
1.31033e-12
1.14571e-12
1.13105e-12
9.85785e-13
8.60317e-13
7.54344e-13
6.64866e-13
5.89689e-13
5.23769e-13
3.9044e-13
1.86631e-12
1.63799e-12
1.57834e-12
1.33399e-12
1.13041e-12
9.64452e-13
8.28354e-13
7.16442e-13
6.2065e-13
4.25154e-13
2.76141e-12
2.42208e-12
2.22108e-12
1.81171e-12
1.48688e-12
1.23121e-12
1.02878e-12
8.67369e-13
7.32115e-13
4.66061e-13
4.21958e-12
3.65234e-12
3.14974e-12
2.46804e-12
1.954e-12
1.56663e-12
1.27054e-12
1.0423e-12
8.57799e-13
5.13083e-13
6.71941e-12
5.59404e-12
4.50316e-12
3.37371e-12
2.5675e-12
1.98678e-12
1.56077e-12
1.24383e-12
9.97314e-13
5.6517e-13
3.29608e-10
1.97886e-11
1.59186e-11
1.15946e-11
8.63607e-12
6.55993e-12
5.07297e-12
3.9899e-12
3.18397e-12
2.48572e-12
3.49448e-07
5.47879e-09
4.05993e-09
3.12333e-09
2.44057e-09
1.93369e-09
1.55136e-09
1.25885e-09
1.03257e-09
8.78533e-10
3.83283e-13
3.60157e-13
1.72061e-13
1.51505e-13
1.31192e-13
1.12092e-13
9.42258e-14
7.78228e-14
6.33171e-14
3.7678e-14
5.31346e-13
4.59553e-13
3.85903e-13
3.36163e-13
2.89539e-13
2.47911e-13
2.11185e-13
1.79429e-13
1.52895e-13
7.97065e-14
5.95637e-13
4.89726e-13
5.23531e-13
4.5613e-13
3.95843e-13
3.44579e-13
3.01992e-13
2.67983e-13
2.3907e-13
1.19637e-13
7.30309e-13
6.36225e-13
7.60707e-13
6.58692e-13
5.69552e-13
4.95948e-13
4.35279e-13
3.8601e-13
3.43256e-13
1.71002e-13
9.60685e-13
9.46195e-13
1.10816e-12
9.43313e-13
8.03497e-13
6.89776e-13
5.97171e-13
5.22037e-13
4.56402e-13
2.24345e-13
1.34853e-12
1.489e-12
1.61139e-12
1.33667e-12
1.11132e-12
9.33161e-13
7.90594e-13
6.77126e-13
5.79415e-13
2.80848e-13
1.99221e-12
2.36768e-12
2.3408e-12
1.8776e-12
1.51479e-12
1.23703e-12
1.02101e-12
8.52582e-13
7.12408e-13
3.4059e-13
3.2044e-12
3.76908e-12
3.40185e-12
2.6231e-12
2.0428e-12
1.61586e-12
1.29507e-12
1.05145e-12
8.5645e-13
4.03466e-13
3.68594e-10
7.36495e-12
4.84151e-12
3.58595e-12
2.69833e-12
2.06822e-12
1.61029e-12
1.27314e-12
1.01146e-12
4.70879e-13
3.46961e-07
1.71102e-09
1.64124e-10
1.09395e-10
7.49944e-11
5.25561e-11
3.75705e-11
2.73567e-11
2.02589e-11
1.52871e-11
3.8305e-13
3.5948e-13
1.71974e-13
1.51268e-13
1.30861e-13
1.11682e-13
9.40994e-14
7.76249e-14
6.27978e-14
3.68986e-14
5.3129e-13
4.59433e-13
3.86099e-13
3.36426e-13
2.89822e-13
2.47854e-13
2.11084e-13
1.79609e-13
1.52878e-13
7.92697e-14
5.95641e-13
4.8979e-13
5.24249e-13
4.56725e-13
3.96077e-13
3.44929e-13
3.02228e-13
2.67952e-13
2.38856e-13
1.19295e-13
7.30291e-13
6.36723e-13
7.61707e-13
6.59713e-13
5.70354e-13
4.9653e-13
4.35836e-13
3.86427e-13
3.43398e-13
1.70376e-13
9.60181e-13
9.47301e-13
1.11041e-12
9.45126e-13
8.0502e-13
6.91272e-13
5.98028e-13
5.22296e-13
4.56887e-13
2.24458e-13
1.34602e-12
1.49138e-12
1.61471e-12
1.34002e-12
1.11401e-12
9.35464e-13
7.92614e-13
6.78443e-13
5.80537e-13
2.8127e-13
1.9844e-12
2.37246e-12
2.34746e-12
1.88326e-12
1.51977e-12
1.24124e-12
1.02431e-12
8.5507e-13
7.14726e-13
3.41811e-13
3.19311e-12
3.77849e-12
3.41372e-12
2.63332e-12
2.05147e-12
1.62295e-12
1.30072e-12
1.05607e-12
8.60053e-13
4.05785e-13
3.89883e-10
8.00294e-12
4.98785e-12
3.67148e-12
2.74953e-12
2.09912e-12
1.62889e-12
1.28432e-12
1.01808e-12
4.72982e-13
3.68117e-07
1.86636e-09
1.64856e-11
6.06368e-12
4.17052e-12
2.9844e-12
2.19462e-12
1.65305e-12
1.25985e-12
6.10051e-13
3.83088e-13
3.59147e-13
1.72486e-13
1.51796e-13
1.31194e-13
1.11926e-13
9.41166e-14
7.79282e-14
6.31778e-14
3.68117e-14
5.32168e-13
4.59893e-13
3.87322e-13
3.3747e-13
2.90767e-13
2.48549e-13
2.11495e-13
1.79865e-13
1.53477e-13
7.97846e-14
5.97507e-13
4.91584e-13
5.26588e-13
4.58611e-13
3.97822e-13
3.46151e-13
3.03118e-13
2.68582e-13
2.39379e-13
1.19841e-13
7.34152e-13
6.40784e-13
7.65551e-13
6.62805e-13
5.72911e-13
4.98444e-13
4.37174e-13
3.87566e-13
3.44121e-13
1.70876e-13
9.67614e-13
9.54874e-13
1.11662e-12
9.50106e-13
8.08969e-13
6.94598e-13
6.00688e-13
5.2439e-13
4.5833e-13
2.25386e-13
1.35979e-12
1.50478e-12
1.62547e-12
1.34819e-12
1.12039e-12
9.40744e-13
7.96825e-13
6.81464e-13
5.8304e-13
2.82981e-13
2.01012e-12
2.39561e-12
2.3658e-12
1.8972e-12
1.53042e-12
1.24979e-12
1.03104e-12
8.60194e-13
7.18666e-13
3.44534e-13
3.24712e-12
3.82022e-12
3.4454e-12
2.65672e-12
2.06897e-12
1.63649e-12
1.3114e-12
1.06414e-12
8.66126e-13
4.09822e-13
4.15074e-10
8.26867e-12
5.04748e-12
3.71239e-12
2.77891e-12
2.12095e-12
1.64518e-12
1.2964e-12
1.02739e-12
4.79256e-13
4.01684e-07
2.01289e-09
1.64964e-11
5.1619e-12
3.69545e-12
2.72352e-12
2.04668e-12
1.5665e-12
1.20794e-12
5.59993e-13
3.83051e-13
3.58881e-13
1.73049e-13
1.52438e-13
1.31791e-13
1.12506e-13
9.46175e-14
7.8213e-14
6.40033e-14
4.70824e-14
5.33152e-13
4.60516e-13
3.88964e-13
3.38741e-13
2.91887e-13
2.49628e-13
2.12418e-13
1.80549e-13
1.53832e-13
8.31411e-14
5.99772e-13
4.93652e-13
5.29286e-13
4.60981e-13
3.99716e-13
3.47739e-13
3.04204e-13
2.69448e-13
2.40274e-13
1.21942e-13
7.38709e-13
6.45479e-13
7.69875e-13
6.66537e-13
5.76077e-13
5.01021e-13
4.39002e-13
3.88793e-13
3.45602e-13
1.72891e-13
9.76367e-13
9.63611e-13
1.1238e-12
9.55912e-13
8.13613e-13
6.98621e-13
6.04037e-13
5.27001e-13
4.60422e-13
2.27799e-13
1.37645e-12
1.51989e-12
1.6378e-12
1.35808e-12
1.12795e-12
9.47033e-13
8.02228e-13
6.85755e-13
5.86213e-13
2.86156e-13
2.04079e-12
2.42217e-12
2.3864e-12
1.91344e-12
1.54303e-12
1.25997e-12
1.03944e-12
8.66891e-13
7.23822e-13
3.49001e-13
3.29103e-12
3.86712e-12
3.48135e-12
2.68374e-12
2.08946e-12
1.65237e-12
1.32448e-12
1.07476e-12
8.74161e-13
4.15855e-13
4.19885e-10
8.17492e-12
5.10886e-12
3.75781e-12
2.8125e-12
2.14645e-12
1.66541e-12
1.31159e-12
1.03927e-12
4.87982e-13
4.23228e-07
1.99629e-09
1.56699e-11
5.21901e-12
3.74316e-12
2.75958e-12
2.07482e-12
1.58773e-12
1.22436e-12
5.71356e-13
3.83038e-13
3.57762e-13
1.73268e-13
1.52729e-13
1.32707e-13
1.15172e-13
1.03088e-13
1.60107e-13
5.42557e-13
1.54065e-12
5.33536e-13
4.59961e-13
3.89569e-13
3.39552e-13
2.93082e-13
2.51722e-13
2.166e-13
2.05073e-13
3.56672e-13
1.01216e-12
6.00818e-13
4.93619e-13
5.30265e-13
4.62034e-13
4.01156e-13
3.50135e-13
3.08713e-13
2.81218e-13
3.24107e-13
6.77612e-13
7.41102e-13
6.46021e-13
7.7123e-13
6.68011e-13
5.77763e-13
5.03565e-13
4.43967e-13
3.97681e-13
3.84681e-13
4.98406e-13
9.80641e-13
9.64707e-13
1.12547e-12
9.57835e-13
8.15835e-13
7.01284e-13
6.09129e-13
5.35652e-13
4.8541e-13
4.18231e-13
1.383e-12
1.52165e-12
1.64009e-12
1.36095e-12
1.13129e-12
9.51139e-13
8.08731e-13
6.96039e-13
6.06611e-13
4.03347e-13
2.0503e-12
2.42515e-12
2.3902e-12
1.9181e-12
1.54819e-12
1.26618e-12
1.04779e-12
8.78907e-13
7.43409e-13
4.27966e-13
3.21433e-12
3.87237e-12
3.48826e-12
2.69212e-12
2.09812e-12
1.66122e-12
1.33496e-12
1.08978e-12
8.95496e-13
4.7509e-13
2.89402e-10
6.88385e-12
5.11378e-12
3.77222e-12
2.82641e-12
2.1601e-12
1.68071e-12
1.33101e-12
1.06258e-12
5.36799e-13
3.37809e-07
1.05182e-09
1.00958e-11
5.21534e-12
3.76307e-12
2.77926e-12
2.09575e-12
1.61199e-12
1.2514e-12
6.15528e-13
4.05728e-13
4.41666e-13
2.44918e-13
1.56429e-13
2.3227e-13
6.33532e-13
1.43055e-12
5.721e-12
2.18473e-11
5.11024e-11
5.79995e-13
6.08409e-13
4.82922e-13
3.64783e-13
3.01398e-13
5.56098e-13
1.11025e-12
3.59066e-12
1.29334e-11
3.37267e-11
6.93762e-13
7.54814e-13
6.80008e-13
5.28746e-13
3.96367e-13
4.83706e-13
9.84823e-13
2.46097e-12
8.29574e-12
2.2273e-11
8.95824e-13
1.01852e-12
9.72966e-13
7.74612e-13
5.89959e-13
5.30492e-13
9.19732e-13
1.83836e-12
5.74284e-12
1.5188e-11
1.2192e-12
1.43326e-12
1.37618e-12
1.10198e-12
8.54887e-13
6.87897e-13
8.58108e-13
1.54541e-12
4.2478e-12
1.06932e-11
1.7285e-12
2.07175e-12
1.93615e-12
1.53588e-12
1.19315e-12
9.32655e-13
9.07821e-13
1.49489e-12
3.32244e-12
7.75436e-12
2.52435e-12
3.05418e-12
2.72417e-12
2.11521e-12
1.62585e-12
1.25029e-12
1.06169e-12
1.39124e-12
2.72655e-12
5.77762e-12
3.70775e-12
4.56742e-12
3.84661e-12
2.89678e-12
2.17952e-12
1.64676e-12
1.30671e-12
1.37875e-12
2.3333e-12
4.41488e-12
1.66911e-10
6.27125e-12
5.46324e-12
3.96503e-12
2.89507e-12
2.13574e-12
1.62813e-12
1.47082e-12
2.06838e-12
3.45603e-12
8.32866e-08
2.21662e-09
8.61488e-12
5.33064e-12
3.80089e-12
2.73019e-12
2.01738e-12
1.65182e-12
1.91723e-12
2.77995e-12
2.50683e-12
2.3516e-12
1.5014e-12
1.66156e-13
2.72892e-12
9.08823e-12
2.92295e-11
1.25317e-10
3.73449e-10
4.99017e-10
3.53266e-12
3.40236e-12
2.51296e-12
1.12996e-12
1.36127e-12
6.45238e-12
2.0577e-11
7.66777e-11
2.2575e-10
3.20547e-10
4.79947e-12
4.65537e-12
3.67509e-12
2.27578e-12
2.35172e-13
4.19305e-12
1.44766e-11
5.01262e-11
1.44076e-10
2.19412e-10
6.46273e-12
6.22731e-12
5.06385e-12
3.54704e-12
1.38403e-12
2.33565e-12
1.01245e-11
3.43281e-11
9.61428e-11
1.55261e-10
8.69513e-12
8.23363e-12
6.75153e-12
5.01312e-12
2.78203e-12
7.72503e-13
6.96509e-12
2.40645e-11
6.64609e-11
1.12563e-10
1.17467e-11
1.08394e-11
8.83859e-12
6.72177e-12
4.2758e-12
1.12848e-12
4.47593e-12
1.69441e-11
4.72402e-11
8.32598e-11
1.60055e-11
1.42999e-11
1.14686e-11
8.75269e-12
5.94618e-12
2.65922e-12
2.44332e-12
1.20952e-11
3.43306e-11
6.2653e-11
2.21157e-11
1.89848e-11
1.4835e-11
1.12094e-11
7.82743e-12
4.2573e-12
1.01348e-12
8.5062e-12
2.53413e-11
4.78397e-11
5.49982e-10
2.55699e-11
1.92299e-11
1.42316e-11
9.99122e-12
5.96786e-12
1.68947e-12
5.73466e-12
1.89025e-11
3.69649e-11
9.05517e-07
3.25307e-09
2.63757e-11
1.80116e-11
1.25026e-11
7.80426e-12
3.20593e-12
3.56099e-12
1.41468e-11
2.88288e-11
3.30728e-12
2.97478e-12
1.95669e-12
1.96999e-12
8.54678e-12
3.11453e-11
1.42486e-10
5.25794e-10
9.49316e-10
1.08125e-09
4.37632e-12
4.07796e-12
3.10449e-12
1.63832e-12
5.32147e-12
2.09464e-11
8.61942e-11
3.09389e-10
5.8808e-10
6.55015e-10
5.67302e-12
5.35294e-12
4.39615e-12
2.70347e-12
2.86069e-12
1.38008e-11
5.50109e-11
1.92023e-10
3.84592e-10
4.23156e-10
7.32947e-12
6.89219e-12
5.85227e-12
4.17938e-12
1.94324e-12
8.6443e-12
3.62179e-11
1.24352e-10
2.59488e-10
2.83384e-10
9.49624e-12
8.80101e-12
7.54579e-12
5.80592e-12
3.06806e-12
4.9504e-12
2.40209e-11
8.29189e-11
1.79332e-10
1.94988e-10
1.2403e-11
1.12247e-11
9.56947e-12
7.60685e-12
4.83313e-12
2.5551e-12
1.56074e-11
5.62604e-11
1.26424e-10
1.37176e-10
1.63944e-11
1.43738e-11
1.20492e-11
9.66131e-12
6.74053e-12
2.7071e-12
9.76043e-12
3.86767e-11
9.0283e-11
9.82258e-11
2.20207e-11
1.85558e-11
1.51597e-11
1.2064e-11
8.78377e-12
4.52048e-12
5.51253e-12
2.66125e-11
6.51697e-11
7.1339e-11
2.65911e-10
2.48404e-11
1.91455e-11
1.49434e-11
1.1039e-11
6.60884e-12
2.81032e-12
1.8072e-11
4.73808e-11
5.23358e-11
1.93942e-07
8.87042e-09
5.61922e-11
1.84368e-11
1.35644e-11
8.74673e-12
2.94896e-12
1.18337e-11
3.45374e-11
3.86249e-11
1.03237e-12
1.28327e-12
1.54078e-12
3.196e-12
8.37257e-12
2.44795e-11
8.53866e-11
2.45006e-10
3.58908e-10
3.30927e-10
1.12933e-12
1.2966e-12
1.42394e-12
2.43705e-12
6.00004e-12
1.72038e-11
5.7118e-11
1.57992e-10
2.19105e-10
1.41473e-10
1.23154e-12
1.35277e-12
1.43442e-12
1.98001e-12
4.3231e-12
1.21598e-11
3.89775e-11
1.04812e-10
1.3966e-10
5.67911e-11
1.33991e-12
1.43912e-12
1.52222e-12
1.81113e-12
3.19949e-12
8.61951e-12
2.71236e-11
7.1282e-11
9.21952e-11
2.47711e-11
1.45611e-12
1.54516e-12
1.64792e-12
1.8251e-12
2.53271e-12
6.12663e-12
1.90451e-11
4.95783e-11
6.23337e-11
1.60733e-11
1.59016e-12
1.66861e-12
1.79032e-12
1.92825e-12
2.24028e-12
4.45029e-12
1.3447e-11
3.51716e-11
4.29154e-11
1.45615e-11
1.74887e-12
1.81199e-12
1.94149e-12
2.07216e-12
2.19706e-12
3.36147e-12
9.51781e-12
2.50971e-11
2.98976e-11
1.37779e-11
2.01151e-12
1.97895e-12
2.10593e-12
2.23182e-12
2.28089e-12
2.76756e-12
6.81022e-12
1.80371e-11
2.10068e-11
1.28105e-11
6.74198e-10
1.14487e-11
2.28124e-12
2.40044e-12
2.42396e-12
2.53471e-12
4.96377e-12
1.30383e-11
1.48199e-11
1.17383e-11
3.29594e-07
1.03856e-08
3.56107e-11
2.68158e-12
2.5865e-12
2.51729e-12
3.74477e-12
9.45178e-12
1.0425e-11
1.0536e-11
7.78726e-13
1.483e-12
1.60456e-12
2.51576e-12
4.13477e-12
6.88577e-12
1.46064e-11
5.59215e-11
2.1259e-10
5.89453e-10
7.14781e-13
1.33206e-12
1.38869e-12
2.14164e-12
3.47606e-12
5.78365e-12
1.10622e-11
3.47822e-11
1.29296e-10
3.45917e-10
6.52016e-13
1.19048e-12
1.19566e-12
1.81449e-12
2.91521e-12
4.8144e-12
8.74977e-12
2.29727e-11
8.24672e-11
2.13567e-10
5.99068e-13
1.06913e-12
1.03468e-12
1.55324e-12
2.45713e-12
4.02398e-12
7.06061e-12
1.60804e-11
5.46103e-11
1.37618e-10
5.53027e-13
9.65057e-13
8.97938e-13
1.32961e-12
2.07986e-12
3.39028e-12
5.7776e-12
1.18428e-11
3.72575e-11
9.17303e-11
5.1382e-13
8.76035e-13
7.83183e-13
1.14893e-12
1.78196e-12
2.86476e-12
4.78741e-12
9.07253e-12
2.60513e-11
6.2907e-11
4.80075e-13
7.99667e-13
6.85554e-13
9.95781e-13
1.52588e-12
2.42995e-12
4.02058e-12
7.16445e-12
1.86154e-11
4.41895e-11
7.63121e-13
7.34339e-13
6.0391e-13
8.66335e-13
1.31597e-12
2.07949e-12
3.40249e-12
5.80039e-12
1.35569e-11
3.17191e-11
1.00877e-09
3.25239e-11
5.92462e-13
7.55836e-13
1.14159e-12
1.78977e-12
2.89687e-12
4.7859e-12
1.00444e-11
2.31993e-11
3.27579e-07
3.24795e-08
2.04276e-10
2.30493e-12
9.62308e-13
1.53871e-12
2.46962e-12
3.99802e-12
7.54176e-12
1.72326e-11
1.05038e-12
1.83884e-12
1.63147e-12
2.16829e-12
3.01555e-12
4.36509e-12
6.75537e-12
1.26066e-11
4.98952e-11
1.73042e-10
9.77648e-13
1.68605e-12
1.46224e-12
1.93601e-12
2.66786e-12
3.80234e-12
5.71158e-12
1.00334e-11
3.51978e-11
1.04685e-10
9.0742e-13
1.53947e-12
1.29931e-12
1.71209e-12
2.34401e-12
3.31145e-12
4.84794e-12
7.93728e-12
2.49197e-11
6.70803e-11
8.4587e-13
1.41136e-12
1.1604e-12
1.51804e-12
2.06809e-12
2.89636e-12
4.175e-12
6.40775e-12
1.79751e-11
4.49865e-11
7.92347e-13
1.29961e-12
1.0407e-12
1.35142e-12
1.83535e-12
2.55035e-12
3.63518e-12
5.324e-12
1.31065e-11
3.12246e-11
7.45743e-13
1.20186e-12
9.36754e-13
1.20879e-12
1.63038e-12
2.25328e-12
3.19467e-12
4.53027e-12
9.65326e-12
2.22607e-11
7.04616e-13
1.11546e-12
8.46754e-13
1.0848e-12
1.45438e-12
2.00295e-12
2.82253e-12
3.92032e-12
7.16938e-12
1.62057e-11
1.08686e-12
1.04093e-12
7.6885e-13
9.76667e-13
1.30129e-12
1.78345e-12
2.50117e-12
3.43183e-12
5.37846e-12
1.19854e-11
1.45719e-09
5.75832e-11
7.73851e-13
8.80973e-13
1.16836e-12
1.59232e-12
2.22715e-12
3.02452e-12
4.07407e-12
8.97193e-12
4.01935e-07
5.69748e-08
4.982e-10
2.89714e-12
9.98235e-13
1.42546e-12
1.98631e-12
2.6748e-12
3.09575e-12
6.77623e-12
1.44997e-12
2.31688e-12
1.64645e-12
1.89503e-12
2.27409e-12
2.82069e-12
3.78249e-12
5.78636e-12
1.36606e-11
2.78932e-11
1.37148e-12
2.16836e-12
1.52906e-12
1.76485e-12
2.11508e-12
2.59773e-12
3.34985e-12
4.75158e-12
1.09206e-11
2.06342e-11
1.29254e-12
2.02046e-12
1.40563e-12
1.62456e-12
1.94738e-12
2.37876e-12
3.00048e-12
3.99129e-12
8.49637e-12
1.54366e-11
1.22279e-12
1.88834e-12
1.29419e-12
1.49605e-12
1.79419e-12
2.18709e-12
2.72496e-12
3.45377e-12
6.56191e-12
1.17307e-11
1.16098e-12
1.77004e-12
1.1941e-12
1.37905e-12
1.65567e-12
2.01597e-12
2.49835e-12
3.0631e-12
5.05497e-12
9.02354e-12
1.10593e-12
1.66337e-12
1.10425e-12
1.27398e-12
1.52745e-12
1.86043e-12
2.29892e-12
2.76545e-12
3.8834e-12
6.98943e-12
1.05707e-12
1.56768e-12
1.02363e-12
1.17856e-12
1.41131e-12
1.71939e-12
2.12643e-12
2.52285e-12
2.97943e-12
5.43673e-12
1.47561e-12
1.48328e-12
9.50972e-13
1.09183e-12
1.30569e-12
1.59079e-12
1.96898e-12
2.32212e-12
2.28001e-12
4.24622e-12
1.80511e-09
8.35863e-11
9.91062e-13
1.01199e-12
1.20885e-12
1.47265e-12
1.82439e-12
2.14695e-12
1.73767e-12
3.32428e-12
3.277e-07
7.83124e-08
7.86647e-10
3.16516e-12
1.05464e-12
1.362e-12
1.68717e-12
1.98494e-12
1.31076e-12
2.59592e-12
2.02976e-12
2.92238e-12
1.60997e-12
1.59892e-12
1.65997e-12
1.79898e-12
2.13834e-12
2.92164e-12
6.28445e-12
8.51574e-12
1.94672e-12
2.78798e-12
1.55045e-12
1.55726e-12
1.62659e-12
1.74498e-12
1.98217e-12
2.48682e-12
5.11801e-12
7.0401e-12
1.86334e-12
2.64943e-12
1.47354e-12
1.49524e-12
1.57335e-12
1.68452e-12
1.86354e-12
2.17622e-12
4.05923e-12
5.73258e-12
1.78784e-12
2.52172e-12
1.39869e-12
1.43065e-12
1.51607e-12
1.62684e-12
1.77634e-12
1.96921e-12
3.1986e-12
4.66671e-12
1.71929e-12
2.40353e-12
1.32657e-12
1.36678e-12
1.45792e-12
1.57003e-12
1.70538e-12
1.83068e-12
2.5019e-12
3.79576e-12
1.65759e-12
2.29484e-12
1.25845e-12
1.30344e-12
1.39791e-12
1.51362e-12
1.64699e-12
1.73082e-12
1.94025e-12
3.08339e-12
1.60138e-12
2.19458e-12
1.19443e-12
1.24208e-12
1.3376e-12
1.45604e-12
1.59135e-12
1.65539e-12
1.48169e-12
2.50035e-12
2.0055e-12
2.10514e-12
1.13412e-12
1.18327e-12
1.27935e-12
1.39806e-12
1.53485e-12
1.59403e-12
1.1112e-12
2.02021e-12
2.07721e-09
1.05024e-10
1.40971e-12
1.12634e-12
1.22212e-12
1.3412e-12
1.47888e-12
1.53996e-12
8.13791e-13
1.62348e-12
1.05519e-07
8.78194e-08
1.75597e-09
9.66265e-12
1.10202e-12
1.28031e-12
1.42049e-12
1.48361e-12
5.63737e-13
1.29143e-12
2.81208e-12
3.60945e-12
1.45433e-12
1.21349e-12
1.06539e-12
1.00353e-12
1.13308e-12
1.51993e-12
3.22694e-12
3.73086e-12
2.73116e-12
3.50419e-12
1.45231e-12
1.24701e-12
1.11788e-12
1.03617e-12
1.07483e-12
1.30197e-12
2.76315e-12
3.28548e-12
2.64838e-12
3.39055e-12
1.42898e-12
1.25621e-12
1.14904e-12
1.06587e-12
1.05071e-12
1.14928e-12
2.2745e-12
2.8076e-12
2.57206e-12
3.28161e-12
1.39779e-12
1.25322e-12
1.16697e-12
1.09224e-12
1.05094e-12
1.05895e-12
1.85483e-12
2.39547e-12
2.50157e-12
3.17843e-12
1.3634e-12
1.2427e-12
1.17504e-12
1.1121e-12
1.06143e-12
1.01574e-12
1.49439e-12
2.0392e-12
2.43617e-12
3.07993e-12
1.32593e-12
1.22561e-12
1.17489e-12
1.12583e-12
1.07752e-12
1.00088e-12
1.18403e-12
1.72978e-12
2.37582e-12
2.98722e-12
1.28707e-12
1.20386e-12
1.16847e-12
1.13342e-12
1.09297e-12
1.0015e-12
9.19284e-13
1.46164e-12
2.7592e-12
2.90322e-12
1.24795e-12
1.17974e-12
1.15647e-12
1.13418e-12
1.10445e-12
1.01098e-12
6.93135e-13
1.23119e-12
2.38844e-09
1.17825e-10
1.78768e-12
1.15392e-12
1.14089e-12
1.12986e-12
1.11044e-12
1.02259e-12
5.00353e-13
1.03311e-12
1.5131e-07
8.09886e-08
1.6616e-09
1.56322e-11
1.08572e-12
1.11766e-12
1.11094e-12
1.03059e-12
3.31015e-13
8.66569e-13
3.74281e-12
4.27942e-12
1.14043e-12
7.62046e-13
4.95412e-13
3.50548e-13
4.84573e-13
7.90783e-13
1.96309e-12
1.9973e-12
3.6695e-12
4.21406e-12
1.18419e-12
8.43447e-13
6.00086e-13
4.21059e-13
4.28522e-13
6.37824e-13
1.79928e-12
1.87629e-12
3.59595e-12
4.14196e-12
1.20544e-12
9.00856e-13
6.84004e-13
4.99977e-13
4.24579e-13
5.19894e-13
1.56344e-12
1.68171e-12
3.52605e-12
4.06821e-12
1.21582e-12
9.43619e-13
7.50326e-13
5.74367e-13
4.57064e-13
4.45359e-13
1.35353e-12
1.50656e-12
3.45992e-12
3.99536e-12
1.21735e-12
9.73934e-13
8.0341e-13
6.40187e-13
5.06114e-13
4.17364e-13
1.1657e-12
1.34847e-12
3.39831e-12
3.92372e-12
1.21227e-12
9.95446e-13
8.46456e-13
6.98098e-13
5.60859e-13
4.27146e-13
9.99908e-13
1.20711e-12
3.3399e-12
3.85361e-12
1.20245e-12
1.00944e-12
8.79368e-13
7.46877e-13
6.14684e-13
4.60169e-13
8.55439e-13
1.08186e-12
3.69733e-12
3.79078e-12
1.18923e-12
1.0171e-12
9.04357e-13
7.87509e-13
6.64554e-13
5.04727e-13
7.31908e-13
9.71553e-13
2.67154e-09
1.18868e-10
2.13454e-12
1.02224e-12
9.24123e-13
8.21135e-13
7.08114e-13
5.52553e-13
6.28983e-13
8.76287e-13
4.32235e-07
5.40005e-08
1.44904e-09
2.0224e-11
9.56804e-13
8.46303e-13
7.45733e-13
5.96508e-13
5.47179e-13
7.97827e-13
4.64205e-12
4.80004e-12
7.34086e-13
4.96809e-13
2.72389e-13
1.50791e-13
2.65694e-13
4.79145e-13
1.41861e-12
1.25905e-12
4.57967e-12
4.77872e-12
7.78137e-13
5.35241e-13
3.11452e-13
1.24609e-13
1.62755e-13
3.75804e-13
1.40711e-12
1.27121e-12
4.51928e-12
4.7528e-12
8.10435e-13
5.72104e-13
3.6084e-13
1.62989e-13
7.58107e-14
2.75796e-13
1.30367e-12
1.19729e-12
4.46039e-12
4.72203e-12
8.36175e-13
6.05013e-13
4.10429e-13
2.21217e-13
4.60719e-14
1.82734e-13
1.21001e-12
1.12914e-12
4.40436e-12
4.68815e-12
8.55466e-13
6.35262e-13
4.57131e-13
2.81258e-13
1.0897e-13
9.82848e-14
1.1241e-12
1.06637e-12
4.35009e-12
4.65153e-12
8.70092e-13
6.61231e-13
4.99715e-13
3.37512e-13
1.76667e-13
3.14736e-14
1.04602e-12
1.00901e-12
4.29868e-12
4.6144e-12
8.80532e-13
6.83644e-13
5.37682e-13
3.89355e-13
2.38941e-13
6.28824e-14
9.76761e-13
9.57342e-13
4.63517e-12
4.58208e-12
8.86634e-13
7.01638e-13
5.71021e-13
4.3563e-13
2.9564e-13
1.26442e-13
9.153e-13
9.11033e-13
2.87567e-09
1.10119e-10
2.16494e-12
7.19119e-13
5.99748e-13
4.76337e-13
3.47316e-13
1.86843e-13
8.61768e-13
8.69274e-13
6.86641e-07
2.13616e-08
8.3202e-10
1.49511e-11
6.64632e-13
5.13394e-13
3.94048e-13
2.4351e-13
8.15597e-13
8.42859e-13
5.21958e-12
5.06648e-12
4.2711e-13
5.92744e-13
5.0963e-13
4.39834e-13
4.01247e-13
4.34144e-13
1.19286e-12
9.49631e-13
5.16434e-12
5.07307e-12
3.85993e-13
5.33172e-13
4.56517e-13
3.92232e-13
3.55571e-13
3.97219e-13
1.25382e-12
1.02046e-12
5.11344e-12
5.07959e-12
3.58841e-13
4.80964e-13
4.09379e-13
3.46986e-13
3.12628e-13
3.55563e-13
1.21259e-12
9.98418e-13
5.06351e-12
5.07969e-12
3.45212e-13
4.36306e-13
3.68879e-13
3.09139e-13
2.74001e-13
3.1691e-13
1.1734e-12
9.76611e-13
5.01479e-12
5.07477e-12
3.43743e-13
4.01054e-13
3.37746e-13
2.78711e-13
2.41096e-13
2.81193e-13
1.13597e-12
9.56336e-13
4.96833e-12
5.06676e-12
3.50105e-13
3.73454e-13
3.12329e-13
2.54099e-13
2.1386e-13
2.50031e-13
1.10083e-12
9.37026e-13
4.9233e-12
5.05586e-12
3.6089e-13
3.52683e-13
2.94694e-13
2.36984e-13
1.93759e-13
2.21763e-13
1.06717e-12
9.19343e-13
5.24925e-12
5.04917e-12
3.73943e-13
3.37105e-13
2.82343e-13
2.2584e-13
1.78614e-13
1.98777e-13
1.03597e-12
9.01443e-13
2.97898e-09
1.01373e-10
1.97253e-12
3.25818e-13
2.74392e-13
2.20165e-13
1.71731e-13
1.80746e-13
1.00494e-12
8.84591e-13
8.43228e-07
2.60168e-08
6.89537e-10
1.16594e-11
2.6053e-13
2.21741e-13
1.74806e-13
1.739e-13
9.76599e-13
9.1794e-13
5.2233e-12
5.03751e-12
4.04697e-13
6.16968e-13
5.39231e-13
4.65694e-13
4.13025e-13
4.25889e-13
1.12758e-12
9.07031e-13
5.16798e-12
5.04618e-12
3.37989e-13
5.48501e-13
4.82269e-13
4.17574e-13
3.72671e-13
3.97305e-13
1.19763e-12
9.81324e-13
5.11741e-12
5.05582e-12
2.86834e-13
4.86142e-13
4.29047e-13
3.71757e-13
3.32615e-13
3.60688e-13
1.16414e-12
9.6267e-13
5.06787e-12
5.05834e-12
2.53487e-13
4.30563e-13
3.81094e-13
3.30481e-13
2.95862e-13
3.27207e-13
1.13205e-12
9.44078e-13
5.02016e-12
5.05671e-12
2.39086e-13
3.84216e-13
3.40448e-13
2.94414e-13
2.62739e-13
2.95424e-13
1.10129e-12
9.27044e-13
4.97419e-12
5.05098e-12
2.39911e-13
3.4543e-13
3.06357e-13
2.63387e-13
2.33133e-13
2.66138e-13
1.07211e-12
9.10849e-13
4.9298e-12
5.04237e-12
2.50923e-13
3.13201e-13
2.77947e-13
2.37931e-13
2.08239e-13
2.39481e-13
1.04396e-12
8.95836e-13
5.25561e-12
5.03766e-12
2.67766e-13
2.87717e-13
2.55583e-13
2.17385e-13
1.86712e-13
2.15683e-13
1.01731e-12
8.80895e-13
2.97898e-09
1.01373e-10
1.94947e-12
2.66866e-13
2.36901e-13
2.01465e-13
1.71314e-13
1.95457e-13
9.91261e-13
8.66735e-13
8.43228e-07
2.60168e-08
6.89517e-10
1.16361e-11
1.95488e-13
1.93612e-13
1.65803e-13
1.84224e-13
9.66078e-13
9.1534e-13
4.64576e-12
4.71994e-12
6.45372e-13
5.09961e-13
3.33444e-13
2.2668e-13
2.61516e-13
4.17806e-13
1.19315e-12
1.1178e-12
4.58512e-12
4.70683e-12
6.73798e-13
5.18119e-13
3.36127e-13
1.94017e-13
1.82244e-13
3.36514e-13
1.21329e-12
1.14117e-12
4.52706e-12
4.68998e-12
6.99712e-13
5.33825e-13
3.56647e-13
1.97634e-13
1.18713e-13
2.52337e-13
1.13736e-12
1.07898e-12
4.47061e-12
4.66799e-12
7.22046e-13
5.5216e-13
3.85026e-13
2.25253e-13
9.07589e-14
1.74436e-13
1.06854e-12
1.02203e-12
4.41639e-12
4.64205e-12
7.42455e-13
5.7194e-13
4.16888e-13
2.63995e-13
1.15452e-13
1.07246e-13
1.00552e-12
9.69884e-13
4.3645e-12
4.61338e-12
7.5906e-13
5.91612e-13
4.49386e-13
3.06244e-13
1.62278e-13
6.14264e-14
9.48882e-13
9.23533e-13
4.31461e-12
4.58295e-12
7.72506e-13
6.09887e-13
4.80433e-13
3.48162e-13
2.12758e-13
7.24113e-14
8.98337e-13
8.81799e-13
4.65221e-12
4.55693e-12
7.82803e-13
6.26433e-13
5.09227e-13
3.8728e-13
2.61327e-13
1.17646e-13
8.54162e-13
8.4487e-13
2.87568e-09
1.1012e-10
2.11408e-12
6.42103e-13
5.35096e-13
4.24098e-13
3.07301e-13
1.68241e-13
8.16179e-13
8.13079e-13
6.86641e-07
2.13616e-08
8.31978e-10
1.49042e-11
5.91638e-13
4.57627e-13
3.49997e-13
2.18483e-13
7.83597e-13
8.06325e-13
3.74265e-12
4.1786e-12
9.96355e-13
6.56242e-13
3.95541e-13
2.18954e-13
3.32132e-13
6.07025e-13
1.46831e-12
1.68517e-12
3.67529e-12
4.12928e-12
1.04634e-12
7.34212e-13
4.98743e-13
3.0822e-13
2.90942e-13
4.84218e-13
1.37671e-12
1.59636e-12
3.6075e-12
4.07149e-12
1.07705e-12
7.94191e-13
5.83655e-13
3.97694e-13
3.03621e-13
3.86193e-13
1.20475e-12
1.43318e-12
3.54204e-12
4.01128e-12
1.09637e-12
8.39814e-13
6.52398e-13
4.77685e-13
3.50074e-13
3.27306e-13
1.04959e-12
1.28563e-12
3.48012e-12
3.94979e-12
1.10772e-12
8.76231e-13
7.09183e-13
5.47764e-13
4.09038e-13
3.13908e-13
9.11297e-13
1.15332e-12
3.42154e-12
3.88871e-12
1.11175e-12
9.02754e-13
7.55539e-13
6.0936e-13
4.70822e-13
3.35222e-13
7.90034e-13
1.03511e-12
3.36576e-12
3.82803e-12
1.11102e-12
9.22688e-13
7.92634e-13
6.61464e-13
5.2904e-13
3.77863e-13
6.85892e-13
9.32289e-13
3.7238e-12
3.77363e-12
1.10532e-12
9.36269e-13
8.23275e-13
7.05621e-13
5.82665e-13
4.2827e-13
5.9976e-13
8.41918e-13
2.67155e-09
1.18871e-10
2.08162e-12
9.4737e-13
8.47128e-13
7.42797e-13
6.29957e-13
4.79944e-13
5.30512e-13
7.6578e-13
4.32235e-07
5.40005e-08
1.44901e-09
2.0187e-11
8.83926e-13
7.71951e-13
6.70428e-13
5.27402e-13
4.79701e-13
7.08783e-13
2.81526e-12
3.51838e-12
1.29238e-12
1.0365e-12
8.75317e-13
7.89498e-13
8.61646e-13
1.14062e-12
2.15608e-12
2.98484e-12
2.74382e-12
3.43473e-12
1.31229e-12
1.08927e-12
9.45106e-13
8.45384e-13
8.46442e-13
1.00064e-12
1.87706e-12
2.65201e-12
2.66857e-12
3.33959e-12
1.30866e-12
1.11741e-12
9.93769e-13
8.95033e-13
8.53676e-13
9.05847e-13
1.54664e-12
2.27027e-12
2.59762e-12
3.24655e-12
1.29583e-12
1.13117e-12
1.02753e-12
9.37659e-13
8.75851e-13
8.58041e-13
1.25454e-12
1.93742e-12
2.53163e-12
3.15619e-12
1.27615e-12
1.13618e-12
1.05028e-12
9.72341e-13
9.05819e-13
8.42818e-13
1.00262e-12
1.64729e-12
2.46952e-12
3.06913e-12
1.25233e-12
1.1329e-12
1.064e-12
9.99538e-13
9.37024e-13
8.48727e-13
7.84503e-13
1.39503e-12
2.41189e-12
2.98528e-12
1.22555e-12
1.12458e-12
1.07009e-12
1.01806e-12
9.64479e-13
8.65861e-13
5.95388e-13
1.1772e-12
2.7928e-12
2.90966e-12
1.1966e-12
1.11088e-12
1.07052e-12
1.03106e-12
9.8588e-13
8.87827e-13
4.31528e-13
9.89856e-13
2.38845e-09
1.17829e-10
1.75005e-12
1.09571e-12
1.06524e-12
1.03691e-12
1.00256e-12
9.10003e-13
2.92649e-13
8.30335e-13
1.5131e-07
8.09886e-08
1.66159e-09
1.56028e-11
1.02162e-12
1.03536e-12
1.0126e-12
9.27191e-13
1.67016e-13
6.97772e-13
2.04777e-12
2.86215e-12
1.45419e-12
1.38229e-12
1.3831e-12
1.44547e-12
1.64183e-12
2.09972e-12
3.7114e-12
6.28141e-12
1.97427e-12
2.75239e-12
1.42714e-12
1.37782e-12
1.3904e-12
1.44422e-12
1.57925e-12
1.86776e-12
3.07929e-12
5.26842e-12
1.89673e-12
2.63225e-12
1.37759e-12
1.34791e-12
1.37323e-12
1.42662e-12
1.52835e-12
1.70133e-12
2.46176e-12
4.31016e-12
1.82543e-12
2.51869e-12
1.32498e-12
1.31094e-12
1.34662e-12
1.40518e-12
1.49354e-12
1.59066e-12
1.95051e-12
3.51926e-12
1.7599e-12
2.41217e-12
1.27119e-12
1.27007e-12
1.31511e-12
1.37928e-12
1.46518e-12
1.51876e-12
1.53266e-12