/*--------------------------------*- C++ -*----------------------------------*\
| =========                 |                                                 |
| \\      /  F ield         | OpenFOAM: The Open Source CFD Toolbox           |
|  \\    /   O peration     | Version:  4.1                                   |
|   \\  /    A nd           | Web:      www.OpenFOAM.org                      |
|    \\/     M anipulation  |                                                 |
\*---------------------------------------------------------------------------*/
FoamFile
{
    version     2.0;
    format      ascii;
    class       surfaceScalarField;
    location    "0.8";
    object      phi;
}
// * * * * * * * * * * * * * * * * * * * * * * * * * * * * * * * * * * * * * //

dimensions      [1 0 -1 0 0 0 0];

internalField   nonuniform List<scalar> 
51500
(
3.62941e-13
1.79486e-14
1.40668e-11
-9.86718e-16
2.20986e-14
1.39104e-11
-3.18649e-15
2.0607e-14
1.37545e-11
-2.97713e-15
1.90463e-14
1.36013e-11
-2.85594e-15
1.74527e-14
1.34495e-11
-2.793e-15
1.58455e-14
1.32994e-11
-2.90636e-15
1.42576e-14
1.31509e-11
-2.8211e-15
1.27121e-14
1.30054e-11
-2.92694e-15
1.11566e-14
1.28619e-11
9.63149e-15
1.27233e-11
-7.6111e-17
3.64143e-13
9.8986e-15
1.75432e-11
-1.13584e-14
1.12771e-14
1.69378e-11
-1.09872e-14
9.58991e-15
1.63504e-11
-1.07511e-14
7.98445e-15
1.57876e-11
-1.03967e-14
6.52626e-15
1.52491e-11
-1.0024e-14
5.19108e-15
1.47322e-11
-9.72876e-15
4.10194e-15
1.4236e-11
-9.45853e-15
3.47844e-15
1.37605e-11
-9.26791e-15
2.12374e-15
1.33026e-11
8.67681e-16
1.28736e-11
-8.69964e-16
3.60782e-13
1.23693e-14
2.21338e-11
-2.57404e-14
1.35757e-14
2.08158e-11
-2.18704e-14
1.11946e-14
1.95771e-11
-2.06588e-14
9.07036e-15
1.84273e-11
-1.94945e-14
7.18432e-15
1.73568e-11
-1.86267e-14
5.50467e-15
1.63612e-11
-1.7574e-14
4.03466e-15
1.54363e-11
-1.68121e-14
2.71324e-15
1.45718e-11
-1.6204e-14
1.5623e-15
1.37667e-11
5.93346e-16
1.30275e-11
-1.55756e-15
3.49925e-13
1.63233e-14
2.82712e-11
-4.60271e-14
1.67873e-14
2.58259e-11
-3.62093e-14
1.346e-14
2.36155e-11
-3.34233e-14
1.05805e-14
2.16212e-11
-3.08776e-14
8.16212e-15
1.98304e-11
-2.86151e-14
6.11181e-15
1.8217e-11
-2.65627e-14
4.37868e-15
1.67604e-11
-2.47029e-14
2.88596e-15
1.54432e-11
-2.31624e-14
1.62144e-15
1.42496e-11
5.66703e-16
1.31837e-11
-2.35987e-15
3.25696e-13
2.1967e-14
3.65996e-11
-7.9412e-14
2.11182e-14
3.23756e-11
-5.56735e-14
1.63537e-14
2.87071e-11
-4.98043e-14
1.24678e-14
2.55155e-11
-4.47877e-14
9.34065e-15
2.27474e-11
-4.04049e-14
6.81165e-15
2.03352e-11
-3.6734e-14
4.73842e-15
1.82269e-11
-3.33728e-14
3.0636e-15
1.63799e-11
-3.06249e-14
1.68986e-15
1.47542e-11
6.01195e-16
1.33431e-11
-3.14744e-15
2.78251e-13
3.02356e-14
4.8075e-11
-1.47117e-13
2.70908e-14
4.10428e-11
-8.19631e-14
2.01637e-14
3.51916e-11
-7.10074e-14
1.48022e-14
3.02941e-11
-6.1969e-14
1.07448e-14
2.62019e-11
-5.45087e-14
7.59887e-15
2.27608e-11
-4.8171e-14
5.16972e-15
1.98544e-11
-4.28054e-14
3.25462e-15
1.73869e-11
-3.83783e-14
1.7628e-15
1.5281e-11
6.27563e-16
1.35053e-11
-4.03974e-15
1.85724e-13
5.31991e-14
6.41228e-11
-2.31765e-13
4.42064e-14
5.26799e-11
-1.1828e-13
3.14441e-14
4.35275e-11
-9.85583e-14
2.21872e-14
3.62022e-11
-8.33622e-14
1.55155e-14
3.03156e-11
-7.10813e-14
1.06385e-14
2.55489e-11
-6.12694e-14
6.99986e-15
2.16617e-11
-5.31093e-14
4.29942e-15
1.84706e-11
-4.66345e-14
2.24913e-15
1.58322e-11
6.84521e-16
1.36701e-11
-4.89561e-15
1.00706e-13
-5.4307e-13
8.7023e-11
-3.40863e-13
-6.04531e-13
6.85073e-11
-1.67092e-13
-6.25788e-13
5.43681e-11
-1.33623e-13
-6.39385e-13
4.35678e-11
-1.0885e-13
-6.48472e-13
3.52494e-11
-8.99551e-14
-6.54506e-13
2.87754e-11
-7.51589e-14
-6.58468e-13
2.36874e-11
-6.35346e-14
-6.61042e-13
1.96521e-11
-5.41111e-14
-6.62709e-13
1.64206e-11
-6.75741e-13
1.38529e-11
-5.85079e-15
3.72715e-12
-9.7732e-10
1.82711e-10
3.33149e-12
-1.06703e-09
1.44304e-10
3.02211e-12
-1.07678e-09
1.18434e-10
2.7462e-12
-1.08408e-09
9.92495e-11
2.50123e-12
-1.08999e-09
8.48582e-11
2.28448e-12
-1.09482e-09
7.39055e-11
2.09268e-12
-1.09881e-09
6.54687e-11
1.92249e-12
-1.10212e-09
5.88963e-11
1.71298e-12
-1.10503e-09
5.37229e-11
-1.13532e-09
5.03112e-11
-6.83763e-15
-5.65692e-10
1.73641e-07
-8.27216e-07
3.44759e-10
1.48155e-07
-9.36e-07
3.96541e-10
1.30327e-07
-9.3823e-07
3.8709e-10
1.15398e-07
-9.39794e-07
3.76349e-10
1.02774e-07
-9.4117e-07
3.65085e-10
9.20321e-08
-9.42398e-07
3.53651e-10
8.28331e-08
-9.43505e-07
3.33748e-10
7.49069e-08
-9.44513e-07
8.8383e-11
6.80481e-08
-9.45565e-07
6.36193e-08
-7.90535e-15
-9.93877e-07
3.40743e-13
8.77109e-14
7.6876e-13
-1.74392e-14
8.28636e-14
7.55733e-13
-2.50914e-14
7.30722e-14
7.43776e-13
-2.41354e-14
6.35661e-14
7.30062e-13
-2.37245e-14
5.4392e-14
7.17822e-13
-2.3528e-14
4.54961e-14
7.06413e-13
-2.34608e-14
3.68977e-14
6.93422e-13
-2.32068e-14
2.86045e-14
6.82355e-13
-2.50954e-14
2.05132e-14
6.70961e-13
1.28753e-14
6.58963e-13
-1.59074e-15
2.8543e-13
8.15143e-14
1.06291e-12
-6.83801e-14
7.42777e-14
1.00991e-12
-8.37429e-14
6.28833e-14
9.59274e-13
-8.03555e-14
5.19999e-14
9.10414e-13
-7.82403e-14
4.12813e-14
8.64694e-13
-7.60889e-14
2.87985e-14
8.20743e-13
-7.3839e-14
2.04046e-14
7.81053e-13
-7.2913e-14
1.3399e-14
7.41985e-13
-7.64371e-14
7.47176e-15
7.06842e-13
2.52006e-15
6.71271e-13
-4.23685e-15
2.03235e-13
1.02933e-13
1.495e-12
-1.73019e-13
9.19834e-14
1.36435e-12
-1.58577e-13
7.70244e-14
1.25158e-12
-1.50235e-13
6.31713e-14
1.1424e-12
-1.42985e-13
5.07099e-14
1.04648e-12
-1.36404e-13
3.93848e-14
9.5916e-13
-1.30558e-13
2.9106e-14
8.80499e-13
-1.25382e-13
1.98734e-14
8.09328e-13
-1.30624e-13
1.15224e-14
7.43709e-13
4.14149e-15
6.85464e-13
-6.76022e-15
8.35694e-14
1.25961e-13
2.14013e-12
-3.00081e-13
1.09448e-13
1.87441e-12
-2.55074e-13
8.95521e-14
1.65016e-12
-2.35824e-13
7.1895e-14
1.44845e-12
-2.20316e-13
5.64604e-14
1.27528e-12
-2.06187e-13
4.2943e-14
1.12565e-12
-1.93061e-13
3.11737e-14
9.97085e-13
-1.82086e-13
2.08827e-14
8.85396e-13
-1.86155e-13
1.18846e-14
7.85195e-13
4.12772e-15
6.98268e-13
-9.74394e-15
-3.42324e-14
1.55807e-13
3.12771e-12
-4.60405e-13
1.31301e-13
2.61831e-12
-3.77986e-13
1.04919e-13
2.20438e-12
-3.41561e-13
8.22245e-14
1.85354e-12
-3.12391e-13
6.30698e-14
1.5656e-12
-2.85938e-13
4.69472e-14
1.32925e-12
-2.62462e-13
3.33399e-14
1.13262e-12
-2.42942e-13
2.18913e-14
9.68275e-13
-2.4395e-13
1.22206e-14
8.30191e-13
4.23071e-15
7.13525e-13
-1.27866e-14
-1.64697e-13
1.94141e-13
4.67819e-12
-6.68579e-13
1.59722e-13
3.71835e-12
-5.35257e-13
1.2385e-13
2.98335e-12
-4.72203e-13
9.45732e-14
2.39252e-12
-4.2165e-13
7.07975e-14
1.93475e-12
-3.77631e-13
5.14427e-14
1.57545e-12
-3.39333e-13
3.57529e-14
1.29167e-12
-3.08072e-13
2.2961e-14
1.06412e-12
-3.03742e-13
1.26214e-14
8.81148e-13
4.20131e-15
7.30604e-13
-1.57617e-14
-5.56299e-13
2.53692e-13
7.16809e-12
-9.45706e-13
2.12632e-13
5.38498e-12
-7.3621e-13
1.60607e-13
4.09399e-12
-6.33152e-13
1.19898e-13
3.11773e-12
-5.51755e-13
8.81464e-14
2.4071e-12
-4.82604e-13
6.31939e-14
1.87626e-12
-4.24649e-13
4.3317e-14
1.47591e-12
-3.77223e-13
2.72682e-14
1.17205e-12
-3.66123e-13
1.36688e-14
9.3434e-13
3.56841e-15
7.49242e-13
-1.87565e-14
-1.04056e-12
2.94701e-13
1.11967e-11
-1.31525e-12
1.89919e-13
7.9644e-12
-9.93805e-13
1.29178e-13
5.70293e-12
-8.31345e-13
8.48879e-14
4.11281e-12
-7.05536e-13
5.20911e-14
3.01926e-12
-6.03037e-13
2.74374e-14
2.24736e-12
-5.18254e-13
8.72313e-15
1.69637e-12
-4.51601e-13
-5.65334e-15
1.29366e-12
-4.30237e-13
-1.68061e-14
9.94485e-13
-2.56471e-14
7.68861e-13
-2.18126e-14
-1.91338e-12
-1.06112e-12
2.44127e-11
-1.07715e-12
-6.55793e-11
1.29617e-11
-8.87117e-13
-5.95709e-11
9.06486e-12
-7.51247e-13
-5.4197e-11
6.57257e-12
-6.47679e-13
-4.99109e-11
4.96949e-12
-5.66799e-13
-4.64548e-11
3.90335e-12
-5.03847e-13
-4.36558e-11
3.17569e-12
-4.59136e-13
-4.13806e-11
2.66655e-12
-5.80788e-13
-3.95351e-11
2.29719e-12
-3.86326e-11
2.02981e-12
-2.49759e-14
-1.22873e-09
1.86758e-08
1.03535e-07
-2.39011e-10
1.04168e-08
-1.87436e-09
-3.71134e-10
7.88379e-09
-2.28722e-09
-3.64445e-10
6.08709e-09
-2.28349e-09
-3.5614e-10
4.77133e-09
-2.26437e-09
-3.4699e-10
3.79045e-09
-2.23775e-09
-3.37413e-10
3.04837e-09
-2.20748e-09
-3.2782e-10
2.47936e-09
-2.1764e-09
-3.27193e-10
2.03817e-09
-2.15684e-09
1.71927e-09
-2.83397e-14
-2.87289e-09
3.42485e-13
8.23198e-14
2.96526e-14
-1.6113e-14
7.81431e-14
2.79181e-14
-2.27917e-14
6.89194e-14
2.63661e-14
-2.04048e-14
6.00399e-14
2.4917e-14
-1.86557e-14
5.14447e-14
2.26401e-14
-2.05568e-14
4.30691e-14
2.02729e-14
-1.91035e-14
3.50904e-14
1.94494e-14
-1.95893e-14
2.73005e-14
1.82718e-14
-2.35537e-14
1.97752e-14
1.72958e-14
1.26528e-14
1.71964e-14
-1.30083e-15
2.91126e-13
5.97202e-14
4.74176e-14
-6.45288e-14
5.47858e-14
4.29698e-14
-7.31155e-14
4.6481e-14
4.12633e-14
-6.75662e-14
3.84786e-14
3.58593e-14
-6.66436e-14
3.10561e-14
3.20065e-14
-6.27134e-14
2.42251e-14
2.99578e-14
-6.23285e-14
1.7873e-14
2.48784e-14
-6.15623e-14
1.2099e-14
2.24185e-14
-7.13278e-14
6.88166e-15
2.13008e-14
2.43491e-15
1.89394e-14
-4.46605e-15
2.12226e-13
7.64238e-14
7.20413e-14
-1.6514e-13
6.91117e-14
6.49878e-14
-1.39037e-13
5.82254e-14
6.08096e-14
-1.26469e-13
4.82318e-14
5.35427e-14
-1.20442e-13
3.92146e-14
4.60064e-14
-1.13814e-13
3.10483e-14
3.91987e-14
-1.08686e-13
2.40199e-14
3.39287e-14
-1.06958e-13
1.6663e-14
2.98995e-14
-1.21207e-13
9.63816e-15
2.61359e-14
3.34121e-15
2.19689e-14
-7.24551e-15
9.15243e-14
9.50565e-14
1.1519e-13
-2.89095e-13
8.32609e-14
1.03706e-13
-2.23288e-13
6.84311e-14
9.41343e-14
-1.9865e-13
5.5419e-14
7.8233e-14
-1.85206e-13
4.41279e-14
6.54688e-14
-1.71655e-13
3.53659e-14
5.54253e-14
-1.58621e-13
2.60291e-14
4.67277e-14
-1.55379e-13
1.72884e-14
3.94645e-14
-1.73154e-13
9.90724e-15
3.52375e-14
3.50432e-15
2.72134e-14
-1.04524e-14
-2.67731e-14
1.19958e-13
1.93938e-13
-4.46575e-13
1.0109e-13
1.67515e-13
-3.30928e-13
8.10838e-14
1.46774e-13
-2.80065e-13
6.38995e-14
1.18378e-13
-2.56622e-13
4.9587e-14
9.55854e-14
-2.3326e-13
3.83608e-14
7.77362e-14
-2.11064e-13
2.81662e-14
6.44681e-14
-2.05358e-13
1.86031e-14
5.45903e-14
-2.27013e-13
1.05027e-14
4.64713e-14
3.70858e-15
3.49124e-14
-1.30922e-14
-1.6366e-13
1.52885e-13
3.3337e-13
-6.52653e-13
1.25237e-13
2.80243e-13
-4.67915e-13
9.69758e-14
2.31359e-13
-3.72803e-13
7.4132e-14
1.78211e-13
-3.32048e-13
5.61894e-14
1.40132e-13
-2.9418e-13
4.23796e-14
1.11095e-13
-2.63328e-13
3.00424e-14
8.95271e-14
-2.57794e-13
1.95092e-14
7.43179e-14
-2.83e-13
1.05972e-14
5.86888e-14
3.6017e-15
4.25963e-14
-1.64998e-14
-5.78636e-13
1.8962e-13
5.84291e-13
-9.30813e-13
1.55538e-13
4.68712e-13
-6.03387e-13
1.16706e-13
3.63504e-13
-4.94441e-13
8.68524e-14
2.70879e-13
-4.29375e-13
6.41341e-14
2.03886e-13
-3.71982e-13
4.85857e-14
1.56513e-13
-3.23517e-13
3.35987e-14
1.23532e-13
-3.10195e-13
2.12656e-14
9.76253e-14
-3.40965e-13
1.16534e-14
7.79511e-14
4.2202e-15
5.31458e-14
-1.95933e-14
-1.10603e-12
3.40097e-13
1.05716e-12
-1.30708e-12
2.25665e-13
7.90579e-13
-7.99303e-13
1.58432e-13
5.77417e-13
-6.48971e-13
1.1078e-13
4.07593e-13
-5.45783e-13
7.66734e-14
2.96065e-13
-4.60709e-13
5.18993e-14
2.19831e-13
-3.92716e-13
3.37191e-14
1.65174e-13
-3.49196e-13
2.03289e-14
1.27224e-13
-4.0112e-13
1.03596e-14
1.00905e-13
3.04193e-15
6.48083e-14
-2.29257e-14
-2.37577e-12
6.67862e-11
7.40481e-12
-1.73125e-12
6.96966e-13
1.16734e-12
-1.06204e-12
-8.83419e-14
7.56914e-13
-8.46489e-13
-2.54544e-13
5.275e-13
-6.9346e-13
-3.79427e-13
3.82469e-13
-5.738e-13
-4.69866e-13
2.88051e-13
-4.79421e-13
-5.33934e-13
2.23747e-13
-4.17051e-13
-5.78238e-13
1.78182e-13
-4.76529e-13
-6.07297e-13
1.45045e-13
-6.22074e-13
1.03068e-13
-2.62906e-14
-8.25561e-10
7.21535e-09
9.19108e-08
-5.34985e-11
5.66117e-10
2.25292e-10
-5.3719e-11
3.16233e-10
-9.35577e-11
-4.55896e-11
2.11069e-10
-7.75951e-11
-3.87001e-11
1.44909e-10
-6.24897e-11
-3.30921e-11
1.01673e-10
-4.97178e-11
-2.84942e-11
7.2792e-11
-3.84268e-11
-2.46967e-11
5.31101e-11
-2.94754e-11
-2.15953e-11
3.943e-11
-2.51258e-11
2.96648e-11
-2.97882e-14
-2.4407e-11
3.42757e-13
8.11125e-14
1.108e-14
-1.60218e-14
7.70835e-14
9.96429e-15
-2.22653e-14
6.8025e-14
8.391e-15
-2.00962e-14
5.92466e-14
6.72909e-15
-1.86641e-14
5.08097e-14
6.07519e-15
-1.95817e-14
4.2637e-14
3.72432e-15
-1.80931e-14
3.47026e-14
3.05184e-15
-1.91979e-14
2.70362e-14
1.15769e-15
-2.30778e-14
1.96591e-14
7.61973e-16
1.26236e-14
5.94446e-16
-1.54846e-15
2.92489e-13
5.82263e-14
1.84398e-14
-6.36076e-14
5.35221e-14
1.60537e-14
-7.16539e-14
4.54086e-14
1.66547e-14
-6.45119e-14
3.7704e-14
1.33537e-14
-6.18456e-14
3.04533e-14
9.98081e-15
-6.21353e-14
2.37147e-14
6.46546e-15
-5.91158e-14
1.75825e-14
6.4287e-15
-5.88944e-14
1.19384e-14
4.25174e-15
-7.0317e-14
6.79387e-15
3.79519e-15
2.43321e-15
2.71848e-15
-4.29257e-15
2.15556e-13
7.39691e-14
2.71035e-14
-1.62416e-13
6.6952e-14
2.52072e-14
-1.34033e-13
5.62606e-14
2.63987e-14
-1.16944e-13
4.62903e-14
2.05319e-14
-1.14033e-13
3.73725e-14
1.69359e-14
-1.03604e-13
2.93291e-14
1.39979e-14
-9.86709e-14
2.1808e-14
1.10674e-14
-1.03715e-13
1.50176e-14
9.38813e-15
-1.19357e-13
9.42012e-15
8.13634e-15
3.09068e-15
6.15287e-15
-7.07876e-15
9.5749e-14
9.20099e-14
4.43846e-14
-2.84449e-13
8.04938e-14
4.33829e-14
-2.15022e-13
6.60433e-14
4.4895e-14
-1.79242e-13
5.33236e-14
3.69722e-14
-1.67179e-13
4.20776e-14
3.01616e-14
-1.55554e-13
3.22169e-14
2.52828e-14
-1.44628e-13
2.35688e-14
2.0834e-14
-1.48553e-13
1.58951e-14
1.76498e-14
-1.70709e-13
9.55343e-15
1.50271e-14
3.61915e-15
1.04753e-14
-1.05486e-14
-2.01206e-14
1.15995e-13
7.72505e-14
-4.3883e-13
9.78886e-14
7.89606e-14
-3.13857e-13
7.82869e-14
7.65466e-14
-2.58417e-13
6.13682e-14
6.17984e-14
-2.35059e-13
4.73502e-14
5.12474e-14
-2.13909e-13
3.55202e-14
4.18908e-14
-1.95174e-13
2.5601e-14
3.46166e-14
-1.96176e-13
1.79029e-14
3.04506e-14
-2.23643e-13
9.49595e-15
2.73114e-14
3.53859e-15
1.75481e-14
-1.336e-14
-1.54281e-13
1.47801e-13
1.38456e-13
-6.40757e-13
1.21057e-13
1.38784e-13
-4.20211e-13
9.34898e-14
1.29214e-13
-3.54812e-13
7.13557e-14
1.03899e-13
-3.15926e-13
5.356e-14
8.37273e-14
-2.80587e-13
3.90913e-14
6.93076e-14
-2.50048e-13
2.74586e-14
5.72138e-14
-2.41864e-13
1.78209e-14
4.75574e-14
-2.78622e-13
1.05039e-14
4.1785e-14
3.7018e-15
2.70889e-14
-1.67232e-14
-5.58051e-13
1.8467e-13
2.47193e-13
-9.12588e-13
1.50594e-13
2.47436e-13
-5.68719e-13
1.1283e-13
2.13656e-13
-4.7531e-13
8.34236e-14
1.6784e-13
-4.1212e-13
6.09202e-14
1.32765e-13
-3.56912e-13
4.35495e-14
1.07087e-13
-3.11954e-13
2.9771e-14
8.63702e-14
-2.83264e-13
1.90445e-14
7.26233e-14
-3.36237e-13
1.09244e-14
6.11709e-14
3.44077e-15
3.89173e-14
-1.99257e-14
-1.07575e-12
3.3353e-13
4.50143e-13
-1.27798e-12
1.85526e-13
4.32194e-13
-7.66886e-13
1.99039e-13
3.4913e-13
-6.25633e-13
1.39623e-13
2.64798e-13
-5.26369e-13
9.69865e-14
2.03655e-13
-4.45471e-13
6.62308e-14
1.58887e-13
-3.79904e-13
4.37513e-14
1.27207e-13
-3.33337e-13
2.71506e-14
1.03723e-13
-3.96267e-13
1.46295e-14
8.47113e-14
5.1795e-15
5.49423e-14
-2.29066e-14
-2.33838e-12
6.92706e-11
1.11044e-11
-1.67565e-12
9.6918e-13
8.23623e-13
-1.02472e-12
2.65837e-13
5.61778e-13
-8.14281e-13
1.68404e-13
4.11324e-13
-6.63972e-13
1.06535e-13
3.05136e-13
-5.46844e-13
6.48631e-14
2.31507e-13
-4.54751e-13
3.67631e-14
1.77989e-13
-3.89668e-13
1.7666e-14
1.39814e-13
-4.58143e-13
4.65299e-15
1.10306e-13
-3.9715e-15
6.79195e-14
-2.64339e-14
-7.69125e-10
1.02242e-08
9.18213e-08
-9.30238e-12
1.18937e-10
3.46022e-10
-3.03449e-12
1.08344e-11
-4.5322e-13
-3.43538e-12
6.03294e-12
-7.3829e-13
-2.62205e-12
3.67403e-12
-3.64421e-13
-2.02477e-12
2.33373e-12
-1.64203e-13
-1.58779e-12
1.53011e-12
-3.83405e-14
-1.26622e-12
1.03311e-12
3.99911e-14
-1.06569e-12
7.12203e-13
8.68827e-14
4.6729e-13
-3.01024e-14
2.29266e-13
3.42635e-13
8.11806e-14
1.79179e-14
-1.63912e-14
7.71222e-14
1.52731e-14
-2.23484e-14
6.81158e-14
1.24378e-14
-2.05485e-14
5.9323e-14
7.65751e-15
-1.71225e-14
5.08516e-14
6.68295e-15
-2.02119e-14
4.26288e-14
3.48361e-15
-1.91318e-14
3.47577e-14
5.64542e-15
-1.88633e-14
2.71104e-14
4.60591e-15
-2.30277e-14
1.96964e-14
7.77349e-16
1.26648e-14
2.90891e-16
-1.8709e-15
2.92207e-13
5.83117e-14
2.5519e-14
-6.36983e-14
5.36216e-14
2.61354e-14
-7.19325e-14
4.5456e-14
1.91119e-14
-6.53871e-14
3.76918e-14
1.66053e-14
-6.28814e-14
3.04964e-14
1.12496e-14
-6.05552e-14
2.37922e-14
8.83209e-15
-5.95863e-14
1.75985e-14
6.25713e-15
-5.95518e-14
1.19698e-14
7.31573e-15
-7.02494e-14
6.85023e-15
6.2198e-15
2.48885e-15
1.53429e-15
-4.37606e-15
2.15242e-13
7.40738e-14
3.8007e-14
-1.6287e-13
6.70216e-14
3.55161e-14
-1.35212e-13
5.63608e-14
3.45158e-14
-1.14729e-13
4.65162e-14
3.22022e-14
-1.11238e-13
3.74817e-14
2.28052e-14
-1.0531e-13
2.94298e-14
1.67573e-14
-9.80851e-14
2.20342e-14
1.51675e-14
-1.03868e-13
1.51191e-14
1.17443e-14
-1.19217e-13
8.97626e-15
1.15959e-14
3.04031e-15
6.18436e-15
-7.41508e-15
9.54374e-14
9.2214e-14
6.36179e-14
-2.84995e-13
8.07792e-14
6.28901e-14
-2.15396e-13
6.62191e-14
6.21799e-14
-1.79821e-13
5.33755e-14
4.97285e-14
-1.66639e-13
4.22102e-14
4.15251e-14
-1.56155e-13
3.22022e-14
3.27861e-14
-1.44447e-13
2.34841e-14
3.06386e-14
-1.48973e-13
1.60819e-14
2.54377e-14
-1.70763e-13
1.00494e-14
2.27907e-14
3.79546e-15
2.00679e-14
-1.01421e-14
-2.04891e-14
1.16394e-13
1.09868e-13
-4.40005e-13
9.81436e-14
1.0901e-13
-3.15079e-13
7.86023e-14
1.07347e-13
-2.58052e-13
6.16939e-14
8.99199e-14
-2.35749e-13
4.75559e-14
7.34558e-14
-2.146e-13
3.58639e-14
6.34766e-14
-1.947e-13
2.60603e-14
5.66623e-14
-1.94687e-13
1.74483e-14
4.292e-14
-2.24201e-13
9.3847e-15
3.51578e-14
3.71286e-15
2.42716e-14
-1.32902e-14
-1.55372e-13
1.48376e-13
1.8791e-13
-6.42279e-13
1.2167e-13
1.99494e-13
-4.21035e-13
9.39318e-14
1.79918e-13
-3.55771e-13
7.1737e-14
1.45933e-13
-3.16039e-13
5.39154e-14
1.19354e-13
-2.81351e-13
3.93529e-14
9.89041e-14
-2.50842e-13
2.75585e-14
7.89309e-14
-2.37674e-13
1.83561e-14
7.08067e-14
-2.79335e-13
1.07902e-14
5.8507e-14
3.7761e-15
3.69215e-14
-1.66028e-14
-5.60768e-13
1.85416e-13
3.35548e-13
-9.15815e-13
1.51461e-13
3.46883e-13
-5.69793e-13
1.13507e-13
3.07179e-13
-4.76762e-13
8.39406e-14
2.34804e-13
-4.13031e-13
6.13402e-14
1.93254e-13
-3.58345e-13
4.38e-14
1.51851e-13
-3.12291e-13
3.01348e-14
1.25828e-13
-2.83752e-13
1.91198e-14
1.02219e-13
-3.37414e-13
1.11398e-14
8.42551e-14
4.08544e-15
5.53119e-14
-1.98279e-14
-1.08122e-12
3.3769e-13
6.02796e-13
-1.28344e-12
1.74618e-13
6.07647e-13
-7.69229e-13
1.39881e-13
5.00209e-13
-6.27954e-13
1.01946e-13
3.79923e-13
-5.2852e-13
7.35385e-14
2.95168e-13
-4.46987e-13
5.47665e-14
2.35406e-13
-3.81233e-13
3.68615e-14
1.82697e-13
-3.34731e-13
2.32137e-14
1.48273e-13
-3.97729e-13
1.26779e-14
1.21329e-13
4.88541e-15
7.70996e-14
-2.3108e-14
-2.37916e-12
7.32244e-11
1.73391e-11
-1.67536e-12
8.97366e-13
1.21355e-12
-1.02951e-12
1.98003e-13
8.14897e-13
-8.18773e-13
1.75103e-13
5.89642e-13
-6.67225e-13
1.16534e-13
4.41169e-13
-5.49717e-13
7.58802e-14
3.34056e-13
-4.56705e-13
4.73463e-14
2.54237e-13
-3.91509e-13
2.67144e-14
2.03689e-13
-4.60308e-13
8.78595e-15
1.61375e-13
3.001e-15
1.01731e-13
-2.65059e-14
-8.0961e-10
1.64093e-08
9.69596e-08
-6.76478e-12
1.51934e-10
3.87227e-10
-1.29313e-12
2.53748e-12
1.35812e-12
-1.1081e-12
1.08244e-12
1.60829e-13
-8.72232e-13
7.5022e-13
8.41167e-14
-6.92764e-13
4.96141e-13
6.50042e-14
-5.58381e-13
3.97543e-13
5.18322e-14
-4.6478e-13
2.9555e-13
4.19882e-14
-5.34418e-13
1.99019e-13
3.44551e-14
1.22655e-13
-3.00545e-14
3.15803e-14
3.42303e-13
8.1327e-14
2.23491e-14
-1.67065e-14
7.72697e-14
1.47696e-14
-2.30041e-14
6.81724e-14
1.85864e-14
-1.99396e-14
5.94296e-14
1.2979e-14
-1.94293e-14
5.08972e-14
7.54664e-15
-1.92663e-14
4.26904e-14
4.49103e-15
-1.89337e-14
3.47693e-14
1.99724e-15
-1.99079e-14
2.71365e-14
1.25617e-15
-2.30377e-14
1.97673e-14
1.42767e-15
1.26845e-14
1.94028e-15
-1.52807e-15
2.91852e-13
5.85001e-14
3.83875e-14
-6.4414e-14
5.37794e-14
3.4232e-14
-7.12836e-14
4.56372e-14
3.25434e-14
-6.69802e-14
3.78219e-14
2.11018e-14
-6.17254e-14
3.0622e-14
2.08473e-14
-6.13235e-14
2.38722e-14
1.22861e-14
-5.80183e-14
1.76871e-14
8.26959e-15
-5.93981e-14
1.20265e-14
5.33049e-15
-7.06396e-14
6.91128e-15
4.76675e-15
2.55357e-15
5.1396e-15
-4.39189e-15
2.14584e-13
7.43872e-14
4.93671e-14
-1.6389e-13
6.72867e-14
5.23445e-14
-1.35183e-13
5.65847e-14
5.52694e-14
-1.15934e-13
4.66459e-14
4.27119e-14
-1.14625e-13
3.76112e-14
3.23188e-14
-1.03941e-13
2.95293e-14
2.63387e-14
-9.89276e-14
2.2191e-14
1.76071e-14
-1.03401e-13
1.53868e-14
1.77287e-14
-1.19519e-13
9.41273e-15
1.18903e-14
3.36349e-15
8.94784e-15
-7.51135e-15
9.46409e-14
9.2722e-14
9.12417e-14
-2.86306e-13
8.11948e-14
8.94026e-14
-2.16411e-13
6.65817e-14
9.25759e-14
-1.80068e-13
5.37376e-14
7.58242e-14
-1.67975e-13
4.25363e-14
5.861e-14
-1.55538e-13
3.25677e-14
4.19921e-14
-1.45068e-13
2.37186e-14
3.36019e-14
-1.49353e-13
1.61809e-14
3.08139e-14
-1.70878e-13
1.00219e-14
2.58924e-14
3.56733e-15
1.51011e-14
-1.02587e-14
-2.19445e-14
1.17139e-13
1.5907e-13
-4.42009e-13
9.88347e-14
1.62582e-13
-3.16207e-13
7.91097e-14
1.59869e-13
-2.59039e-13
6.2105e-14
1.28344e-13
-2.36362e-13
4.78554e-14
1.05604e-13
-2.15653e-13
3.6124e-14
8.52306e-14
-1.95167e-13
2.60902e-14
6.08947e-14
-1.96049e-13
1.76849e-14
5.21087e-14
-2.24615e-13
9.81319e-15
4.33289e-14
3.96607e-15
2.73502e-14
-1.32958e-14
-1.57501e-13
1.49619e-13
2.77593e-13
-6.45814e-13
1.22662e-13
2.89856e-13
-4.22837e-13
9.48048e-14
2.67381e-13
-3.57418e-13
7.23764e-14
2.08876e-13
-3.16955e-13
5.45377e-14
1.69355e-13
-2.83392e-13
3.97447e-14
1.34129e-13
-2.51309e-13
2.80624e-14
1.12054e-13
-2.38219e-13
1.85034e-14
8.09312e-14
-2.8037e-13
1.09892e-14
6.7798e-14
3.95716e-15
4.40038e-14
-1.63866e-14
-5.66916e-13
1.87103e-13
4.95289e-13
-9.21335e-13
1.53015e-13
5.07703e-13
-5.74122e-13
1.1467e-13
4.37245e-13
-4.788e-13
8.4922e-14
3.44358e-13
-4.15793e-13
6.20461e-14
2.67496e-13
-3.60063e-13
4.45003e-14
2.12665e-13
-3.14143e-13
3.06721e-14
1.6971e-13
-2.84775e-13
1.96154e-14
1.22051e-13
-3.38908e-13
1.15397e-14
1.01914e-13
4.46909e-15
6.31246e-14
-1.97381e-14
-1.09254e-12
3.42553e-13
8.99553e-13
-1.29313e-12
2.24319e-13
8.90242e-13
-7.74983e-13
1.40014e-13
7.19255e-13
-6.32415e-13
1.01733e-13
5.41636e-13
-5.32071e-13
7.28305e-14
4.13196e-13
-4.50154e-13
5.39768e-14
3.16063e-13
-3.83862e-13
3.68886e-14
2.49472e-13
-3.36826e-13
2.35167e-14
1.77112e-13
-3.99944e-13
1.30033e-14
1.3946e-13
5.18818e-15
8.74286e-14
-2.30063e-14
-2.42415e-12
7.77398e-11
2.23086e-11
-1.68368e-12
9.37012e-13
1.73706e-12
-1.03899e-12
1.97298e-13
1.173e-12
-8.25904e-13
1.65655e-13
8.48718e-13
-6.72999e-13
1.08453e-13
6.22309e-13
-5.54647e-13
6.71644e-14
4.62536e-13
-4.60182e-13
3.17005e-14
3.44831e-13
-3.94748e-13
1.75188e-14
2.54587e-13
-4.63728e-13
9.06276e-15
1.91783e-13
3.73795e-15
1.16274e-13
-2.65315e-14
-8.63518e-10
2.1987e-08
1.04638e-07
-6.98838e-12
2.21846e-10
4.18094e-10
-1.29281e-12
2.6034e-12
1.48207e-12
-1.06454e-12
1.09807e-12
9.2857e-14
-8.44026e-13
7.88817e-13
6.50026e-14
-6.74393e-13
5.76999e-13
5.00432e-14
-5.46404e-13
4.2667e-13
3.93461e-14
-4.56109e-13
3.2127e-13
3.14898e-14
-5.30191e-13
2.431e-13
2.56068e-14
1.44455e-13
-3.0262e-14
2.11684e-14
3.4178e-13
8.15355e-14
2.95436e-14
-1.6929e-14
7.74722e-14
2.834e-14
-2.36254e-14
6.82892e-14
2.2349e-14
-1.98148e-14
5.95354e-14
1.80253e-14
-1.98553e-14
5.10132e-14
8.25628e-15
-1.99258e-14
4.2786e-14
6.82831e-15
-1.92788e-14
3.48753e-14
5.90648e-15
-1.95857e-14
2.72241e-14
7.90785e-15
-2.28904e-14
1.9849e-14
2.06544e-14
1.27616e-14
5.8151e-14
-1.83751e-15
2.9129e-13
5.8695e-14
5.1004e-14
-6.50316e-14
5.39649e-14
4.50016e-14
-7.18592e-14
4.58347e-14
4.46643e-14
-6.63929e-14
3.79814e-14
3.49422e-14
-6.39566e-14
3.07188e-14
1.89675e-14
-6.09665e-14
2.3984e-14
1.29556e-14
-5.97961e-14
1.77773e-14
1.28412e-14
-5.90657e-14
1.21492e-14
1.20083e-14
-7.0605e-14
6.995e-15
1.57872e-14
2.61782e-15
4.1926e-14
-4.54259e-15
2.1383e-13
7.47849e-14
7.40286e-14
-1.64931e-13
6.75784e-14
6.82832e-14
-1.35962e-13
5.68271e-14
6.93393e-14
-1.17489e-13
4.6869e-14
5.61218e-14
-1.11959e-13
3.78e-14
4.3616e-14
-1.05915e-13
2.96143e-14
2.37063e-14
-9.75652e-14
2.23067e-14
2.09404e-14
-1.0429e-13
1.53707e-14
2.20578e-14
-1.19687e-13
9.77539e-15
2.52596e-14
3.29004e-15
3.63044e-14
-7.66011e-15
9.36251e-14
9.333e-14
1.18534e-13
-2.87739e-13
8.17258e-14
1.18689e-13
-2.1745e-13
6.7036e-14
1.19826e-13
-1.81224e-13
5.41209e-14
9.72143e-14
-1.68618e-13
4.29511e-14
7.87108e-14
-1.56251e-13
3.29977e-14
5.1177e-14
-1.44866e-13
2.40126e-14
3.79225e-14
-1.49026e-13
1.64648e-14
3.53639e-14
-1.717e-13
9.63991e-15
3.91566e-14
4.12161e-15
4.0532e-14
-1.00148e-14
-2.36824e-14
1.18072e-13
2.05641e-13
-4.44301e-13
9.96524e-14
2.10915e-13
-3.18672e-13
7.97664e-14
2.02648e-13
-2.59981e-13
6.25988e-14
1.65534e-13
-2.37229e-13
4.82469e-14
1.34306e-13
-2.1716e-13
3.64505e-14
1.08004e-13
-1.95446e-13
2.64431e-14
6.69566e-14
-1.97661e-13
1.77117e-14
5.59923e-14
-2.25258e-13
1.02176e-14
6.21638e-14
4.24861e-15
5.23135e-14
-1.34298e-14
-1.60195e-13
1.5112e-13
3.65836e-13
-6.49747e-13
1.23839e-13
3.74045e-13
-4.26308e-13
9.57611e-14
3.40962e-13
-3.59209e-13
7.32502e-14
2.75846e-13
-3.18414e-13
5.52282e-14
2.20662e-13
-2.8489e-13
4.03143e-14
1.80302e-13
-2.53094e-13
2.84483e-14
1.10645e-13
-2.38383e-13
1.888e-14
8.70903e-14
-2.81412e-13
1.14361e-14
7.7629e-14
4.07519e-15
6.96642e-14
-1.66167e-14
-5.74522e-13
1.89847e-13
6.44548e-13
-9.27892e-13
1.54905e-13
6.52323e-13
-5.78034e-13
1.16104e-13
5.64854e-13
-4.82375e-13
8.60138e-14
4.41679e-13
-4.18315e-13
6.29355e-14
3.47762e-13
-3.62454e-13
4.52112e-14
2.77278e-13
-3.1676e-13
3.1447e-14
1.99592e-13
-2.85526e-13
2.01473e-14
1.31818e-13
-3.40883e-13
1.1724e-14
1.07323e-13
4.85059e-15
9.3818e-14
-1.97576e-14
-1.10632e-12
3.4123e-13
1.15315e-12
-1.30426e-12
2.27469e-13
1.12869e-12
-7.81831e-13
1.42366e-13
9.20978e-13
-6.37842e-13
1.03284e-13
6.95554e-13
-5.36517e-13
7.40099e-14
5.30783e-13
-4.53349e-13
5.46358e-14
4.1426e-13
-3.87872e-13
3.75711e-14
3.19834e-13
-3.39304e-13
2.42043e-14
1.94033e-13
-4.02756e-13
1.36315e-14
1.493e-13
5.66775e-15
1.03941e-13
-2.30801e-14
-2.40401e-12
7.46383e-11
1.97203e-11
-1.71266e-12
8.51403e-13
2.07197e-12
-1.05066e-12
2.00026e-13
1.50307e-12
-8.34556e-13
1.68747e-13
1.084e-12
-6.80039e-13
1.10635e-13
8.02586e-13
-5.60196e-13
6.88162e-14
6.05137e-13
-4.65356e-13
3.27415e-14
4.62805e-13
-3.98322e-13
1.81915e-14
2.75108e-13
-4.68095e-13
9.52188e-15
2.03761e-13
4.19734e-15
1.28456e-13
-2.65842e-14
-8.38363e-10
2.05096e-08
1.08061e-07
-6.35029e-12
1.62257e-10
3.97358e-10
-1.2724e-12
3.0104e-12
1.1292e-12
-1.07822e-12
1.63805e-12
8.64084e-14
-8.53972e-13
1.17815e-12
6.41608e-14
-6.82285e-13
8.60269e-13
5.01245e-14
-5.5345e-13
6.38225e-13
3.98593e-14
-4.61254e-13
4.27405e-13
3.23174e-14
-5.3627e-13
2.72429e-13
2.65102e-14
1.61211e-13
-3.00927e-14
2.23352e-14
3.41523e-13
8.17087e-14
1.84655e-14
-1.76157e-14
7.74826e-14
1.07165e-15
-2.35642e-14
6.83945e-14
5.2856e-15
-2.0542e-14
5.96267e-14
8.15209e-15
-2.0298e-14
5.11286e-14
1.93977e-14
-2.0762e-14
4.29514e-14
4.09211e-14
-2.04459e-14
3.50944e-14
7.84424e-14
-1.99364e-14
2.75722e-14
2.80955e-13
-1.18919e-14
2.03607e-14
1.0883e-12
1.29752e-14
3.1137e-12
-1.14418e-14
2.90585e-13
5.8885e-14
2.81311e-14
-6.53673e-14
5.40469e-14
2.30954e-15
-7.23129e-14
4.58688e-14
1.29283e-14
-6.70506e-14
3.80593e-14
1.42803e-14
-6.43241e-14
3.08363e-14
2.40767e-14
-6.13442e-14
2.41373e-14
4.33837e-14
-6.1075e-14
1.79483e-14
7.16166e-14
-6.32731e-14
1.23688e-14
1.89712e-13
-7.09547e-14
7.36332e-15
6.48351e-13
2.75119e-15
2.03773e-12
-1.11135e-14
2.12851e-13
7.50541e-14
3.85879e-14
-1.65739e-13
6.77515e-14
5.37478e-15
-1.36095e-13
5.70515e-14
2.10696e-14
-1.1847e-13
4.70543e-14
2.36095e-14
-1.11711e-13
3.80223e-14
3.07879e-14
-1.06683e-13
2.99358e-14
4.99415e-14
-9.98159e-14
2.26476e-14
8.09612e-14
-1.06024e-13
1.55568e-14
1.49414e-13
-1.2381e-13
9.27068e-15
4.28068e-13
3.50943e-15
1.34004e-12
-7.58334e-15
9.28326e-14
9.38387e-14
6.55714e-14
-2.88546e-13
8.20173e-14
2.16737e-14
-2.18232e-13
6.72826e-14
4.3643e-14
-1.8169e-13
5.44063e-14
4.5586e-14
-1.68422e-13
4.32181e-14
5.23891e-14
-1.56728e-13
3.31744e-14
6.60807e-14
-1.47284e-13
2.4395e-14
9.47133e-14
-1.51492e-13
1.69676e-14
1.39303e-13
-1.76676e-13
9.92471e-15
3.19731e-13
4.44511e-15
9.27264e-13
-8.01768e-15
-2.49703e-14
1.18919e-13
1.15442e-13
-4.45485e-13
1.00165e-13
6.40605e-14
-3.18896e-13
8.0245e-14
8.84869e-14
-2.61006e-13
6.31279e-14
8.60276e-14
-2.3782e-13
4.87282e-14
8.67425e-14
-2.17204e-13
3.70226e-14
1.23208e-13
-1.97176e-13
2.66983e-14
1.18188e-13
-2.01646e-13
1.79512e-14
1.50163e-13
-2.30652e-13
1.09219e-14
2.73432e-13
4.21765e-15
6.78251e-13
-9.92197e-15
-1.62479e-13
1.52354e-13
2.07778e-13
-6.51513e-13
1.24593e-13
1.47658e-13
-4.26426e-13
9.64976e-14
1.68905e-13
-3.61215e-13
7.38927e-14
1.55144e-13
-3.18645e-13
5.58645e-14
1.45663e-13
-2.87224e-13
4.08296e-14
1.76125e-13
-2.54404e-13
2.88708e-14
1.57921e-13
-2.41396e-13
1.93183e-14
1.89109e-13
-2.87481e-13
1.16275e-14
2.62906e-13
4.73169e-15
5.29805e-13
-1.46356e-14
-5.80841e-13
1.95759e-13
3.77969e-13
-9.305e-13
1.56219e-13
3.03238e-13
-5.80303e-13
1.17109e-13
3.05696e-13
-4.84652e-13
8.69561e-14
2.65858e-13
-4.19675e-13
6.37224e-14
2.34567e-13
-3.65424e-13
4.59532e-14
2.32709e-13
-3.18453e-13
3.22856e-14
1.71243e-13
-2.89438e-13
2.08301e-14
2.32263e-13
-3.47325e-13
1.23823e-14
2.78812e-13
5.12761e-15
4.43426e-13
-1.82885e-14
-1.11633e-12
3.16841e-13
6.70951e-13
-1.30866e-12
1.84349e-13
5.8523e-13
-7.85649e-13
1.45333e-13
5.32164e-13
-6.41497e-13
1.04715e-13
4.40812e-13
-5.39197e-13
7.53563e-14
3.70092e-13
-4.56322e-13
5.58118e-14
3.3023e-13
-3.91711e-13
3.86577e-14
3.73888e-13
-3.42945e-13
2.49067e-14
2.92603e-13
-4.10292e-13
1.43502e-14
3.15612e-13
6.30128e-15
3.96942e-13
-2.22502e-14
-2.11587e-12
3.57149e-11
-5.46922e-13
-1.78859e-12
3.84898e-13
9.43765e-13
-1.05888e-12
2.66243e-13
8.95296e-13
-8.39622e-13
1.72291e-13
7.06534e-13
-6.84999e-13
1.13004e-13
5.64497e-13
-5.63953e-13
7.10109e-14
4.92937e-13
-4.72122e-13
3.40714e-14
5.2445e-13
-4.02051e-13
1.89969e-14
3.13402e-13
-4.76581e-13
1.00842e-14
3.66089e-13
4.79373e-15
3.78821e-13
-2.61804e-14
-4.2008e-10
-4.99272e-09
8.20883e-08
-2.80465e-12
-1.37879e-10
1.20217e-10
-1.3151e-12
5.85783e-13
-2.55639e-13
-1.09154e-12
1.13034e-12
8.03174e-14
-8.61384e-13