/*--------------------------------*- C++ -*----------------------------------*\
| =========                 |                                                 |
| \\      /  F ield         | OpenFOAM: The Open Source CFD Toolbox           |
|  \\    /   O peration     | Version:  4.1                                   |
|   \\  /    A nd           | Web:      www.OpenFOAM.org                      |
|    \\/     M anipulation  |                                                 |
\*---------------------------------------------------------------------------*/
FoamFile
{
    version     2.0;
    format      ascii;
    class       volVectorField;
    location    "0.8";
    object      U;
}
// * * * * * * * * * * * * * * * * * * * * * * * * * * * * * * * * * * * * * //

dimensions      [0 1 -1 0 0 0 0];

internalField   nonuniform List<vector> 
18000
(
(8.71123e-14 3.85533e-13 -5.88294e-12)
(9.2122e-14 3.85024e-13 -5.81754e-12)
(8.3031e-14 -9.75447e-15 -5.7522e-12)
(7.41587e-14 -1.38782e-14 -5.68821e-12)
(6.5532e-14 -1.36141e-14 -5.62482e-12)
(5.71473e-14 -1.32388e-14 -5.56213e-12)
(4.90528e-14 -1.327e-14 -5.50011e-12)
(4.13119e-14 -1.32693e-14 -5.43934e-12)
(3.37705e-14 -1.30398e-14 -5.37944e-12)
(2.65403e-14 -9.59953e-15 -5.3216e-12)
(1.30981e-13 3.96279e-13 -7.33418e-12)
(1.43644e-13 3.83448e-13 -7.08131e-12)
(1.25721e-13 -4.70084e-14 -6.83551e-12)
(1.08726e-13 -4.97322e-14 -6.60061e-12)
(9.29971e-14 -4.80287e-14 -6.37586e-12)
(7.83704e-14 -4.61196e-14 -6.1601e-12)
(6.46352e-14 -4.43514e-14 -5.95297e-12)
(5.20277e-14 -4.28114e-14 -5.7545e-12)
(4.01712e-14 -4.11657e-14 -5.56329e-12)
(2.91951e-14 -2.98879e-14 -5.38426e-12)
(1.45167e-13 3.98879e-13 -9.24978e-12)
(1.5345e-13 3.68662e-13 -8.69962e-12)
(1.26909e-13 -1.01139e-13 -8.18158e-12)
(1.03094e-13 -9.932e-14 -7.70191e-12)
(8.20615e-14 -9.27048e-14 -7.25522e-12)
(6.34117e-14 -8.70059e-14 -6.83976e-12)
(4.68161e-14 -8.16933e-14 -6.45374e-12)
(3.20816e-14 -7.67381e-14 -6.09288e-12)
(1.90074e-14 -7.22303e-14 -5.75681e-12)
(7.46294e-15 -5.11347e-14 -5.44832e-12)
(1.9695e-13 3.87038e-13 -1.18088e-11)
(1.96163e-13 3.31988e-13 -1.07887e-11)
(1.56869e-13 -1.79018e-13 -9.86506e-12)
(1.23384e-13 -1.67024e-13 -9.03348e-12)
(9.51999e-14 -1.51623e-13 -8.28661e-12)
(7.13473e-14 -1.37997e-13 -7.61356e-12)
(5.13039e-14 -1.25919e-13 -7.00577e-12)
(3.41677e-14 -1.15138e-13 -6.45608e-12)
(1.97483e-14 -1.05163e-13 -5.95793e-12)
(7.62667e-15 -7.29416e-14 -5.51326e-12)
(2.73257e-13 3.48774e-13 -1.52786e-11)
(2.55074e-13 2.58978e-13 -1.35173e-11)
(1.96421e-13 -2.91768e-13 -1.1986e-11)
(1.49006e-13 -2.60446e-13 -1.0656e-11)
(1.11172e-13 -2.28436e-13 -9.50207e-12)
(8.08101e-14 -2.01328e-13 -8.4962e-12)
(5.63229e-14 -1.78408e-13 -7.61685e-12)
(3.65608e-14 -1.5875e-13 -6.84626e-12)
(2.05773e-14 -1.41172e-13 -6.1679e-12)
(7.70854e-15 -9.57755e-14 -5.57942e-12)
(3.88663e-13 2.6448e-13 -2.00547e-11)
(3.38485e-13 1.24801e-13 -1.71248e-11)
(2.4948e-13 -4.56544e-13 -1.4685e-11)
(1.81726e-13 -3.89495e-13 -1.26455e-11)
(1.30723e-13 -3.29295e-13 -1.09405e-11)
(9.1811e-14 -2.80683e-13 -9.50631e-12)
(6.20135e-14 -2.409e-13 -8.2945e-12)
(3.91041e-14 -2.0794e-13 -7.26542e-12)
(2.14342e-14 -1.80022e-13 -6.38681e-12)
(7.80026e-15 -1.1959e-13 -5.6466e-12)
(5.66938e-13 9.95365e-14 -2.67265e-11)
(4.57413e-13 -1.12958e-13 -2.19633e-11)
(3.20422e-13 -7.01358e-13 -1.81513e-11)
(2.2276e-13 -5.69912e-13 -1.51032e-11)
(1.53521e-13 -4.62355e-13 -1.26523e-11)
(1.03621e-13 -3.79819e-13 -1.06666e-11)
(6.73484e-14 -3.15173e-13 -9.04661e-12)
(4.08359e-14 -2.63951e-13 -7.71611e-12)
(2.13338e-14 -2.22287e-13 -6.61575e-12)
(6.92346e-15 -1.44405e-13 -5.71473e-12)
(-2.66434e-12 -2.10641e-13 -3.62421e-11)
(-2.90938e-12 -5.29875e-13 -2.85425e-11)
(-2.93938e-12 -1.06857e-12 -2.266e-11)
(-2.9093e-12 -8.2376e-13 -1.81691e-11)
(-2.84732e-12 -6.38797e-13 -1.47074e-11)
(-2.76816e-12 -5.04255e-13 -1.20113e-11)
(-2.68087e-12 -4.03632e-13 -9.89109e-12)
(-2.59069e-12 -3.27129e-13 -8.20864e-12)
(-2.50117e-12 -2.6784e-13 -6.86069e-12)
(-2.45767e-12 -1.70299e-13 -5.79055e-12)
(-5.99794e-09 -1.46919e-12 -8.86432e-11)
(-6.08517e-09 -1.34516e-12 -7.21569e-11)
(-5.73857e-09 -1.15051e-12 -5.9322e-11)
(-5.42235e-09 -7.3549e-13 -4.94956e-11)
(-5.13612e-09 -4.62659e-13 -4.18653e-11)
(-4.87643e-09 -2.81661e-13 -3.58411e-11)
(-4.6401e-09 -1.59841e-13 -3.10165e-11)
(-4.42441e-09 -7.76726e-14 -2.71013e-11)
(-4.22746e-09 -1.36925e-13 -2.38853e-11)
(-4.14822e-09 -3.01263e-13 -2.15201e-11)
(6.57106e-07 -1.5022e-09 -7.04134e-08)
(3.54308e-08 -3.2515e-10 -6.19217e-08)
(2.729e-08 8.29319e-10 -5.45176e-08)
(2.25675e-08 7.6351e-10 -4.82961e-08)
(1.85525e-08 6.95424e-10 -4.30306e-08)
(1.51075e-08 6.34128e-10 -3.8547e-08)
(1.213e-08 5.79358e-10 -3.47049e-08)
(9.53764e-09 5.29127e-10 -3.13923e-08)
(6.78009e-09 2.15458e-10 -2.85228e-08)
(-1.15959e-07 -2.84406e-10 -2.66819e-08)
(2.54975e-13 3.64951e-13 -6.30429e-12)
(2.39451e-13 3.44645e-13 -6.23191e-12)
(2.10256e-13 -4.98241e-14 -6.15989e-12)
(1.8209e-13 -5.34289e-14 -6.08859e-12)
(1.55038e-13 -5.28916e-14 -6.01867e-12)
(1.28942e-13 -5.22119e-14 -5.94987e-12)
(1.03826e-13 -5.17194e-14 -5.88084e-12)
(7.97142e-14 -5.11034e-14 -5.81409e-12)
(5.63267e-14 -4.99345e-14 -5.748e-12)
(3.43686e-14 -2.90344e-14 -5.68363e-12)
(5.09257e-13 3.19895e-13 -7.916e-12)
(4.70599e-13 2.35891e-13 -7.63427e-12)
(4.03794e-13 -1.90568e-13 -7.36002e-12)
(3.41254e-13 -1.87975e-13 -7.09884e-12)
(2.82881e-13 -1.81516e-13 -6.84943e-12)
(2.2842e-13 -1.75274e-13 -6.6099e-12)
(1.77592e-13 -1.69158e-13 -6.38124e-12)
(1.30066e-13 -1.63649e-13 -6.16152e-12)
(8.56187e-14 -1.56497e-13 -5.95116e-12)
(4.47591e-14 -8.90484e-14 -5.75286e-12)
(6.22924e-13 2.39546e-13 -1.00687e-11)
(5.55496e-13 6.6498e-14 -9.44663e-12)
(4.6043e-13 -3.87598e-13 -8.8652e-12)
(3.74805e-13 -3.68782e-13 -8.32631e-12)
(2.98488e-13 -3.46836e-13 -7.82755e-12)
(2.30329e-13 -3.26238e-13 -7.36462e-12)
(1.69376e-13 -3.07509e-13 -6.93576e-12)
(1.14857e-13 -2.90151e-13 -6.53608e-12)
(6.62273e-14 -2.71552e-13 -6.16417e-12)
(2.32833e-14 -1.52344e-13 -5.82435e-12)
(8.06764e-13 1.04074e-13 -1.2981e-11)
(6.94365e-13 -1.92364e-13 -1.18137e-11)
(5.58852e-13 -6.62649e-13 -1.07647e-11)
(4.41965e-13 -6.10458e-13 -9.82354e-12)
(3.42428e-13 -5.5803e-13 -8.98253e-12)
(2.57205e-13 -5.11449e-13 -8.22805e-12)
(1.843e-13 -4.69604e-13 -7.55024e-12)
(1.21968e-13 -4.31885e-13 -6.93965e-12)
(6.85613e-14 -3.94526e-13 -6.38682e-12)
(2.36718e-14 -2.17929e-13 -5.89571e-12)
(1.0609e-12 -1.18426e-13 -1.69907e-11)
(8.78431e-13 -5.8609e-13 -1.49465e-11)
(6.84321e-13 -1.04682e-12 -1.31852e-11)
(5.24732e-13 -9.33147e-13 -1.16644e-11)
(3.94606e-13 -8.2812e-13 -1.03541e-11)
(2.88174e-13 -7.3778e-13 -9.21968e-12)
(2.01066e-13 -6.5922e-13 -8.23335e-12)
(1.29699e-13 -5.90978e-13 -7.37328e-12)
(7.11287e-14 -5.26926e-13 -6.61974e-12)
(2.39994e-14 -2.86427e-13 -5.96943e-12)
(1.41739e-12 -4.77632e-13 -2.26136e-11)
(1.12697e-12 -1.18236e-12 -1.915e-11)
(8.46246e-13 -1.58599e-12 -1.63038e-11)
(6.27319e-13 -1.36546e-12 -1.39435e-11)
(4.56981e-13 -1.17384e-12 -1.19901e-11)
(3.23874e-13 -1.01481e-12 -1.03608e-11)
(2.19671e-13 -8.81483e-13 -8.99493e-12)
(1.37928e-13 -7.69407e-13 -7.84224e-12)
(7.38406e-14 -6.68976e-13 -6.86429e-12)
(2.42935e-14 -3.57524e-13 -6.0449e-12)
(1.93005e-12 -1.05e-12 -3.0644e-11)
(1.46606e-12 -2.0857e-12 -2.48891e-11)
(1.05716e-12 -2.35023e-12 -2.0367e-11)
(7.55189e-13 -1.94663e-12 -1.67896e-11)
(5.31642e-13 -1.61735e-12 -1.39536e-11)
(3.6504e-13 -1.35445e-12 -1.16804e-11)
(2.40311e-13 -1.14209e-12 -9.84351e-12)
(1.46812e-13 -9.69498e-13 -8.34846e-12)
(7.65562e-14 -8.21737e-13 -7.11945e-12)
(2.46232e-14 -4.3194e-13 -6.12193e-12)
(2.62158e-12 -1.98028e-12 -4.24072e-11)
(1.71852e-12 -3.47165e-12 -3.28599e-11)
(1.14405e-12 -3.43837e-12 -2.5739e-11)
(7.46683e-13 -2.7323e-12 -2.03872e-11)
(4.69178e-13 -2.18762e-12 -1.6334e-11)
(2.73503e-13 -1.77118e-12 -1.32208e-11)
(1.34739e-13 -1.44775e-12 -1.08029e-11)
(3.61376e-14 -1.19416e-12 -8.90307e-12)
(-3.4123e-14 -9.85766e-13 -7.3938e-12)
(-8.38145e-14 -5.09037e-13 -6.20691e-12)
(-2.14113e-10 -4.6738e-12 -1.01439e-10)
(-5.33508e-10 -6.61212e-12 -8.09927e-11)
(-4.40466e-10 -5.46009e-12 -6.55424e-11)
(-3.64994e-10 -4.21524e-12 -5.39905e-11)
(-3.0567e-10 -3.30617e-12 -4.52166e-11)
(-2.58383e-10 -2.63605e-12 -3.84103e-11)
(-2.2028e-10 -2.13179e-12 -3.30381e-11)
(-1.89269e-10 -1.74712e-12 -2.87311e-11)
(-1.63833e-10 -1.44273e-12 -2.52271e-11)
(-1.45063e-10 -8.67335e-13 -2.26567e-11)
(4.56187e-07 -2.48129e-09 -7.7568e-08)
(-8.51792e-09 -1.96205e-09 -6.76662e-08)
(-9.70744e-09 -7.50248e-10 -5.88921e-08)
(-9.06296e-09 -6.86592e-10 -5.16752e-08)
(-8.44091e-09 -6.35125e-10 -4.56797e-08)
(-7.86539e-09 -5.86422e-10 -4.06513e-08)
(-7.34161e-09 -5.41404e-10 -3.63966e-08)
(-6.87031e-09 -5.00271e-10 -3.27671e-08)
(-6.48508e-09 -4.68945e-10 -2.96516e-08)
(-9.39112e-09 -4.94624e-10 -2.76326e-08)
(2.31827e-13 3.68481e-13 -4.35723e-13)
(2.18686e-13 3.45902e-13 -4.28144e-13)
(1.91716e-13 -4.87897e-14 -4.2048e-13)
(1.66017e-13 -5.24179e-14 -4.12777e-13)
(1.41384e-13 -5.14973e-14 -4.05334e-13)
(1.17618e-13 -5.10938e-14 -3.98207e-13)
(9.51613e-14 -5.06367e-14 -3.90968e-13)
(7.3444e-14 -4.97831e-14 -3.84509e-13)
(5.26568e-14 -4.89148e-14 -3.779e-13)
(3.32001e-14 -2.57728e-14 -3.71424e-13)
(5.03756e-13 3.32613e-13 -6.03957e-13)
(4.64924e-13 2.38812e-13 -5.73173e-13)
(3.98384e-13 -1.87735e-13 -5.4296e-13)
(3.36123e-13 -1.84711e-13 -5.14624e-13)
(2.78316e-13 -1.78254e-13 -4.8862e-13)
(2.24459e-13 -1.71721e-13 -4.64336e-13)
(1.74509e-13 -1.65497e-13 -4.40511e-13)
(1.27822e-13 -1.59895e-13 -4.18267e-13)
(8.42428e-14 -1.52774e-13 -3.98748e-13)
(4.456e-14 -7.96825e-14 -3.78638e-13)
(6.23111e-13 2.63544e-13 -8.53887e-13)
(5.53679e-13 6.86719e-14 -7.77951e-13)
(4.57697e-13 -3.84674e-13 -7.10302e-13)
(3.71414e-13 -3.6524e-13 -6.48388e-13)
(2.9494e-13 -3.42202e-13 -5.93241e-13)
(2.27057e-13 -3.21125e-13 -5.42859e-13)
(1.66596e-13 -3.01865e-13 -4.97766e-13)
(1.12914e-13 -2.84377e-13 -4.57201e-13)
(6.48765e-14 -2.65215e-13 -4.19645e-13)
(2.30291e-14 -1.36071e-13 -3.87091e-13)
(8.17439e-13 1.43368e-13 -1.2284e-12)
(6.99687e-13 -1.9611e-13 -1.07339e-12)
(5.60555e-13 -6.63364e-13 -9.39786e-13)
(4.41439e-13 -6.08958e-13 -8.23508e-13)
(3.40551e-13 -5.54227e-13 -7.24042e-13)
(2.54912e-13 -5.05762e-13 -6.38425e-13)
(1.82059e-13 -4.62447e-13 -5.64637e-13)
(1.20115e-13 -4.24431e-13 -5.00526e-13)
(6.74109e-14 -3.86446e-13 -4.44141e-13)
(2.34027e-14 -1.95544e-13 -3.954e-13)
(1.09125e-12 -6.02974e-14 -1.80663e-12)
(8.9572e-13 -6.06105e-13 -1.50484e-12)
(6.935e-13 -1.05846e-12 -1.25991e-12)
(5.2838e-13 -9.38571e-13 -1.05721e-12)
(3.9515e-13 -8.27901e-13 -8.91085e-13)
(2.87175e-13 -7.33564e-13 -7.54998e-13)
(1.99513e-13 -6.52471e-13 -6.42471e-13)
(1.28157e-13 -5.82467e-13 -5.48921e-13)
(7.02516e-14 -5.16589e-13 -4.70385e-13)
(2.39818e-14 -2.57134e-13 -4.058e-13)
(1.48298e-12 -3.99476e-13 -2.72059e-12)
(1.16487e-12 -1.23985e-12 -2.14823e-12)
(8.67339e-13 -1.62162e-12 -1.71247e-12)
(6.37207e-13 -1.38616e-12 -1.36889e-12)
(4.60898e-13 -1.18207e-12 -1.10458e-12)
(3.24506e-13 -1.01468e-12 -8.97466e-13)
(2.18885e-13 -8.75927e-13 -7.34552e-13)
(1.36976e-13 -7.60443e-13 -6.0493e-13)
(7.30933e-14 -6.5711e-13 -4.98929e-13)
(2.44446e-14 -3.22392e-13 -4.16529e-13)
(2.05913e-12 -9.53446e-13 -4.20012e-12)
(1.53938e-12 -2.22004e-12 -3.12671e-12)
(1.09733e-12 -2.4343e-12 -2.3598e-12)
(7.75131e-13 -1.9967e-12 -1.7914e-12)
(5.40607e-13 -1.64144e-12 -1.37862e-12)
(3.68165e-13 -1.36281e-12 -1.0718e-12)
(2.40793e-13 -1.13988e-12 -8.41991e-13)
(1.46349e-13 -9.61278e-13 -6.67149e-13)
(7.5991e-14 -8.08847e-13 -5.30883e-13)
(2.48696e-14 -3.90281e-13 -4.28982e-13)
(3.11598e-12 -1.87859e-12 -6.67486e-12)
(2.07492e-12 -3.75859e-12 -4.65005e-12)
(1.4074e-12 -3.61282e-12 -3.30501e-12)
(9.51299e-13 -2.83447e-12 -2.37268e-12)
(6.37109e-13 -2.24011e-12 -1.73602e-12)
(4.17958e-13 -1.79373e-12 -1.28853e-12)
(2.63793e-13 -1.4521e-12 -9.69471e-13)
(1.54772e-13 -1.18839e-12 -7.37609e-13)
(7.73401e-14 -9.72519e-13 -5.66878e-13)
(2.34126e-14 -4.6159e-13 -4.41857e-13)
(3.72631e-10 -4.0312e-12 -1.38003e-11)
(-1.91688e-11 -6.76493e-12 -9.38218e-12)
(-1.58692e-11 -5.42205e-12 -6.56677e-12)
(-1.1547e-11 -4.05112e-12 -4.72573e-12)
(-8.5848e-12 -3.07135e-12 -3.51171e-12)
(-6.50006e-12 -2.37056e-12 -2.68536e-12)
(-5.00463e-12 -1.85678e-12 -2.10874e-12)
(-3.91406e-12 -1.47524e-12 -1.69716e-12)
(-3.1055e-12 -1.17677e-12 -1.39545e-12)
(-2.48986e-12 -5.61559e-13 -1.18073e-12)
(3.95277e-07 -1.38047e-09 -7.6965e-09)
(8.30657e-10 -1.24608e-09 -6.0149e-09)
(-5.96713e-10 -1.58982e-10 -4.55158e-09)
(-4.89597e-10 -1.18388e-10 -3.49755e-09)
(-3.99631e-10 -9.40176e-11 -2.73049e-09)
(-3.29856e-10 -7.54507e-11 -2.16138e-09)
(-2.74713e-10 -6.11784e-11 -1.73245e-09)
(-2.30843e-10 -5.00846e-11 -1.4045e-09)
(-1.97109e-10 -4.13488e-11 -1.15072e-09)
(-2.26471e-10 -3.59232e-11 -9.67132e-10)
(2.26804e-13 3.6908e-13 -1.94429e-14)
(2.14218e-13 3.4612e-13 -1.85393e-14)
(1.87828e-13 -4.85001e-14 -1.62106e-14)
(1.62586e-13 -5.21204e-14 -1.51611e-14)
(1.3856e-13 -5.14588e-14 -1.35517e-14)
(1.15527e-13 -5.08004e-14 -1.24587e-14)
(9.33939e-14 -5.01404e-14 -1.1311e-14)
(7.22096e-14 -4.93715e-14 -1.0018e-14)
(5.20308e-14 -4.83038e-14 -9.54464e-15)
(3.30166e-14 -2.5181e-14 -9.64046e-15)
(4.98037e-13 3.35358e-13 -2.9538e-14)
(4.60034e-13 2.4079e-13 -2.6617e-14)
(3.94252e-13 -1.85988e-13 -2.43267e-14)
(3.32746e-13 -1.82969e-13 -2.11979e-14)
(2.75616e-13 -1.7607e-13 -1.84438e-14)
(2.22402e-13 -1.70061e-13 -1.68802e-14)
(1.72984e-13 -1.64163e-13 -1.46089e-14)
(1.26865e-13 -1.57938e-13 -1.30276e-14)
(8.37763e-14 -1.50874e-13 -1.18714e-14)
(4.45274e-14 -7.7638e-14 -1.10276e-14)
(6.15529e-13 2.70233e-13 -4.71022e-14)
(5.47602e-13 7.32848e-14 -4.17558e-14)
(4.52699e-13 -3.80266e-13 -3.58891e-14)
(3.67464e-13 -3.61018e-13 -3.07346e-14)
(2.91884e-13 -3.38613e-13 -2.66459e-14)
(2.24718e-13 -3.17738e-13 -2.28905e-14)
(1.6512e-13 -2.98487e-13 -1.93723e-14)
(1.12031e-13 -2.81209e-13 -1.71212e-14)
(6.45785e-14 -2.62224e-13 -1.50269e-14)
(2.31808e-14 -1.32626e-13 -1.39159e-14)
(8.07572e-13 1.56899e-13 -7.67863e-14)
(6.9189e-13 -1.87074e-13 -6.64121e-14)
(5.54568e-13 -6.55799e-13 -5.55164e-14)
(4.36794e-13 -6.02026e-13 -4.61867e-14)
(3.37105e-13 -5.47812e-13 -3.84494e-14)
(2.52521e-13 -4.99998e-13 -3.26787e-14)
(1.80566e-13 -4.57354e-13 -2.72219e-14)
(1.19392e-13 -4.19459e-13 -2.28643e-14)
(6.73464e-14 -3.81933e-13 -2.01581e-14)
(2.38266e-14 -1.91196e-13 -1.74871e-14)
(1.0784e-12 -3.6101e-14 -1.30692e-13)
(8.86012e-13 -5.91048e-13 -1.07724e-13)
(6.86309e-13 -1.04562e-12 -8.67158e-14)
(5.23086e-13 -9.27661e-13 -6.93729e-14)
(3.91497e-13 -8.18491e-13 -5.63486e-14)
(2.84753e-13 -7.25166e-13 -4.53868e-14)
(1.98144e-13 -6.44839e-13 -3.72039e-14)
(1.27739e-13 -5.75745e-13 -3.20483e-14)
(7.01316e-14 -5.1081e-13 -2.79333e-14)
(2.44855e-14 -2.51543e-13 -2.34441e-14)
(1.46602e-12 -3.56256e-13 -2.27088e-13)
(1.15271e-12 -1.21572e-12 -1.76704e-13)
(8.58626e-13 -1.60236e-12 -1.37127e-13)
(6.31249e-13 -1.37015e-12 -1.05561e-13)
(4.56975e-13 -1.1684e-12 -8.27631e-14)
(3.22172e-13 -1.00322e-12 -6.59932e-14)
(2.1778e-13 -8.65922e-13 -5.28939e-14)
(1.36614e-13 -7.52542e-13 -4.35041e-14)
(7.32736e-14 -6.50475e-13 -3.5143e-14)
(2.50506e-14 -3.15349e-13 -2.97988e-14)
(2.03718e-12 -8.77946e-13 -3.99087e-13)
(1.52382e-12 -2.18332e-12 -2.94243e-13)
(1.08693e-12 -2.40536e-12 -2.15256e-13)
(7.68395e-13 -1.97389e-12 -1.60529e-13)
(5.36494e-13 -1.62315e-12 -1.20866e-13)
(3.65945e-13 -1.34765e-12 -9.29617e-14)
(2.39756e-13 -1.12763e-12 -7.28915e-14)
(1.46089e-13 -9.51683e-13 -5.81308e-14)
(7.66583e-14 -8.00976e-13 -4.68026e-14)
(2.5665e-14 -3.82591e-13 -3.80287e-14)
(3.0936e-12 -1.74766e-12 -7.20084e-13)
(2.0538e-12 -3.7046e-12 -4.91304e-13)
(1.39403e-12 -3.57113e-12 -3.41387e-13)
(9.43774e-13 -2.80328e-12 -2.41095e-13)
(6.33591e-13 -2.21569e-12 -1.75299e-13)
(4.17109e-13 -1.77517e-12 -1.29948e-13)
(2.64575e-13 -1.43778e-12 -9.80103e-14)
(1.56681e-13 -1.17677e-12 -7.58372e-14)
(7.99729e-14 -9.63765e-13 -6.03851e-14)
(2.64739e-14 -4.53173e-13 -4.79293e-14)
(4.16996e-10 -3.7331e-12 -1.51318e-12)
(4.98592e-12 -6.62655e-12 -8.12067e-13)
(1.29536e-12 -5.29555e-12 -5.31557e-13)
(8.39085e-13 -3.95247e-12 -3.6531e-13)
(5.41109e-13 -2.99325e-12 -2.59288e-13)
(3.36584e-13 -2.30771e-12 -1.90741e-13)
(1.96973e-13 -1.80541e-12 -1.44065e-13)
(1.01497e-13 -1.43245e-12 -1.1191e-13)
(3.61331e-14 -1.14031e-12 -8.88293e-14)
(-6.61538e-15 -5.27738e-13 -7.25069e-14)
(3.92538e-07 -1.18698e-09 -8.35959e-10)
(1.5667e-09 -1.10118e-09 -2.831e-10)
(-1.93303e-11 -2.47899e-11 -1.83004e-10)
(-1.68716e-11 -1.1733e-11 -1.22048e-10)
(-1.20737e-11 -8.29179e-12 -8.35725e-11)
(-8.83125e-12 -6.00691e-12 -5.84932e-11)
(-6.56984e-12 -4.43069e-12 -4.17609e-11)
(-4.96637e-12 -3.32642e-12 -3.03678e-11)
(-3.84449e-12 -2.52464e-12 -2.24541e-11)
(-3.72637e-12 -1.52893e-12 -1.68197e-11)
(2.2701e-13 3.68981e-13 -1.13623e-14)
(2.14327e-13 3.45496e-13 -1.02338e-14)
(1.88065e-13 -4.92637e-14 -7.75964e-15)
(1.62752e-13 -5.26216e-14 -5.60931e-15)
(1.38649e-13 -5.17339e-14 -4.4298e-15)
(1.15484e-13 -5.11638e-14 -3.31179e-15)
(9.35216e-14 -5.08011e-14 -2.6302e-15)
(7.23937e-14 -4.96936e-14 -1.56408e-15)
(5.21186e-14 -4.82821e-14 -4.83722e-16)
(3.31204e-14 -2.5407e-14 -4.92284e-16)
(4.9876e-13 3.35075e-13 -1.63151e-14)
(4.60666e-13 2.40321e-13 -1.45399e-14)
(3.94855e-13 -1.86476e-13 -1.12908e-14)
(3.33155e-13 -1.83814e-13 -9.61524e-15)
(2.76e-13 -1.76906e-13 -6.60052e-15)
(2.22696e-13 -1.70341e-13 -4.78791e-15)
(1.73278e-13 -1.64283e-13 -4.19098e-15)
(1.27241e-13 -1.58393e-13 -3.57707e-15)
(8.41289e-14 -1.51101e-13 -2.51593e-15)
(4.49133e-14 -7.76111e-14 -1.54914e-15)
(6.1687e-13 2.69964e-13 -2.67927e-14)
(5.48858e-13 7.24696e-14 -2.3808e-14)
(4.53727e-13 -3.81507e-13 -1.93521e-14)
(3.68344e-13 -3.62067e-13 -1.52657e-14)
(2.92687e-13 -3.39096e-13 -1.22441e-14)
(2.25506e-13 -3.1834e-13 -9.74078e-15)
(1.6571e-13 -2.98992e-13 -7.82982e-15)
(1.12581e-13 -2.81395e-13 -6.5878e-15)
(6.51391e-14 -2.62196e-13 -6.05006e-15)
(2.37128e-14 -1.32757e-13 -5.41659e-15)
(8.09975e-13 1.56481e-13 -4.58991e-14)
(6.94157e-13 -1.88339e-13 -4.00496e-14)
(5.56418e-13 -6.57221e-13 -3.32829e-14)
(4.38406e-13 -6.03444e-13 -2.71151e-14)
(3.385e-13 -5.48921e-13 -2.21271e-14)
(2.53642e-13 -5.00908e-13 -1.81444e-14)
(1.81573e-13 -4.58185e-13 -1.53758e-14)
(1.20371e-13 -4.20089e-13 -1.3085e-14)
(6.831e-14 -3.82292e-13 -1.12499e-14)
(2.45504e-14 -1.90893e-13 -1.06291e-14)
(1.08271e-12 -3.65432e-14 -8.05734e-14)
(8.89704e-13 -5.93458e-13 -6.98206e-14)
(6.89391e-13 -1.0487e-12 -5.66515e-14)
(5.25627e-13 -9.30049e-13 -4.57685e-14)
(3.93628e-13 -8.20437e-13 -3.80591e-14)
(2.86589e-13 -7.27008e-13 -3.13072e-14)
(1.99717e-13 -6.45934e-13 -2.56148e-14)
(1.29066e-13 -5.76211e-13 -2.22609e-14)
(7.14107e-14 -5.11578e-13 -1.95279e-14)
(2.55475e-14 -2.52097e-13 -1.6807e-14)
(1.47326e-12 -3.58074e-13 -1.42604e-13)
(1.15878e-12 -1.22071e-12 -1.18649e-13)
(8.63434e-13 -1.60712e-12 -9.48135e-14)
(6.35227e-13 -1.37447e-12 -7.58322e-14)
(4.60157e-13 -1.17175e-12 -6.12246e-14)
(3.24873e-13 -1.00597e-12 -5.08629e-14)
(2.20003e-13 -8.68359e-13 -4.11061e-14)
(1.38458e-13 -7.54191e-13 -3.44449e-14)
(7.47701e-14 -6.51839e-13 -3.003e-14)
(2.63508e-14 -3.16101e-13 -2.54915e-14)
(2.04931e-12 -8.81105e-13 -2.53676e-13)
(1.53375e-12 -2.19332e-12 -2.03657e-13)
(1.09432e-12 -2.41481e-12 -1.5704e-13)
(7.74136e-13 -1.98131e-12 -1.21739e-13)
(5.41063e-13 -1.62919e-12 -9.70178e-14)
(3.69475e-13 -1.3526e-12 -7.74411e-14)
(2.42643e-13 -1.13146e-12 -6.24031e-14)
(1.48505e-13 -9.54544e-13 -5.14978e-14)
(7.85439e-14 -8.03634e-13 -4.32e-14)
(2.73084e-14 -3.84036e-13 -3.63061e-14)
(3.12518e-12 -1.75419e-12 -4.54714e-13)
(2.06906e-12 -3.72469e-12 -3.46541e-13)
(1.40522e-12 -3.58843e-12 -2.54869e-13)
(9.523e-13 -2.81642e-12 -1.91911e-13)
(6.40053e-13 -2.2261e-12 -1.47326e-13)
(4.22072e-13 -1.78329e-12 -1.1481e-13)
(2.68443e-13 -1.44404e-12 -9.08959e-14)
(1.5965e-13 -1.18183e-12 -7.29751e-14)
(8.22446e-14 -9.67731e-13 -5.94271e-14)
(2.83102e-14 -4.55486e-13 -4.99646e-14)
(4.41083e-10 -3.78289e-12 -1.05365e-12)
(6.06636e-12 -6.69595e-12 -5.85816e-13)
(1.81932e-12 -5.32593e-12 -4.11173e-13)
(1.1691e-12 -3.97471e-12 -2.98218e-13)
(7.52744e-13 -3.0102e-12 -2.20683e-13)
(4.76979e-13 -2.32051e-12 -1.66676e-13)
(2.92292e-13 -1.81509e-12 -1.27236e-13)
(1.67619e-13 -1.43988e-12 -9.98922e-14)
(8.26516e-14 -1.14613e-12 -7.90652e-14)
(2.61225e-14 -5.30635e-13 -6.39808e-14)
(4.16474e-07 -1.25229e-09 -6.40561e-10)
(1.77245e-09 -1.1475e-09 -1.60839e-11)
(5.67054e-12 -1.67177e-11 -6.01931e-12)
(6.71927e-13 -5.82888e-12 -3.55466e-12)
(4.57561e-13 -4.1679e-12 -2.16389e-12)
(3.17893e-13 -3.06865e-12 -1.37214e-12)
(2.16485e-13 -2.30488e-12 -8.9753e-13)
(1.44204e-13 -1.76423e-12 -6.03637e-13)
(9.20888e-14 -1.36065e-12 -4.14473e-13)
(4.90591e-14 -6.25039e-13 -2.88591e-13)
(2.27515e-13 3.68637e-13 -1.38279e-14)
(2.14788e-13 3.44722e-13 -1.16212e-14)
(1.883e-13 -5.03004e-14 -9.72411e-15)
(1.63084e-13 -5.34089e-14 -6.70686e-15)
(1.38798e-13 -5.23415e-14 -5.1411e-15)
(1.15655e-13 -5.14804e-14 -2.96877e-15)
(9.35545e-14 -5.08046e-14 -2.1305e-15)
(7.24646e-14 -5.01995e-14 -1.42658e-15)
(5.231e-14 -4.87045e-14 -7.38442e-16)
(3.31699e-14 -2.51566e-14 -1.19467e-15)
(5.00069e-13 3.34694e-13 -2.02008e-14)
(4.61845e-13 2.38947e-13 -1.79814e-14)
(3.95732e-13 -1.87753e-13 -1.29183e-14)
(3.34003e-13 -1.84672e-13 -1.05771e-14)
(2.76636e-13 -1.77836e-13 -8.03719e-15)
(2.23236e-13 -1.70896e-13 -5.79549e-15)
(1.73673e-13 -1.64542e-13 -4.25864e-15)
(1.27565e-13 -1.58509e-13 -3.41544e-15)
(8.45931e-14 -1.51604e-13 -3.24023e-15)
(4.52724e-14 -7.80477e-14 -2.62312e-15)
(6.19257e-13 2.69168e-13 -3.2347e-14)
(5.50894e-13 7.07325e-14 -2.87959e-14)
(4.55565e-13 -3.83226e-13 -2.31094e-14)
(3.69771e-13 -3.63497e-13 -1.87913e-14)
(2.93959e-13 -3.40518e-13 -1.45027e-14)
(2.26538e-13 -3.19251e-13 -1.13489e-14)
(1.66682e-13 -2.99561e-13 -9.3149e-15)
(1.13398e-13 -2.81788e-13 -8.3673e-15)
(6.58726e-14 -2.6259e-13 -7.3568e-15)
(2.45607e-14 -1.33183e-13 -6.49082e-15)
(8.14102e-13 1.54785e-13 -5.62914e-14)
(6.97616e-13 -1.91182e-13 -4.85042e-14)
(5.59326e-13 -6.60097e-13 -3.98791e-14)
(4.40779e-13 -6.05791e-13 -3.23324e-14)
(3.40557e-13 -5.50875e-13 -2.61959e-14)
(2.55467e-13 -5.02294e-13 -2.114e-14)
(1.83074e-13 -4.59117e-13 -1.81544e-14)
(1.21669e-13 -4.20954e-13 -1.60858e-14)
(6.93521e-14 -3.82827e-13 -1.44686e-14)
(2.55601e-14 -1.91217e-13 -1.25294e-14)
(1.08954e-12 -3.99577e-14 -9.87003e-14)
(8.95435e-13 -5.98548e-13 -8.37534e-14)
(6.93956e-13 -1.05342e-12 -6.84723e-14)
(5.29356e-13 -9.33876e-13 -5.5763e-14)
(3.96705e-13 -8.235e-13 -4.62724e-14)
(2.89256e-13 -7.29648e-13 -3.87244e-14)
(2.01779e-13 -6.48171e-13 -3.18523e-14)
(1.30833e-13 -5.78035e-13 -2.71514e-14)
(7.29144e-14 -5.12875e-13 -2.29408e-14)
(2.67461e-14 -2.52738e-13 -2.07456e-14)
(1.48468e-12 -3.6441e-13 -1.7226e-13)
(1.16804e-12 -1.23014e-12 -1.44212e-13)
(8.70657e-13 -1.61579e-12 -1.14534e-13)
(6.40764e-13 -1.38117e-12 -9.13148e-14)
(4.64667e-13 -1.17698e-12 -7.44734e-14)
(3.2843e-13 -1.01049e-12 -6.18733e-14)
(2.22931e-13 -8.72043e-13 -5.04896e-14)
(1.40827e-13 -7.56844e-13 -4.21233e-14)
(7.67859e-14 -6.54149e-13 -3.61673e-14)
(2.8017e-14 -3.17354e-13 -3.16408e-14)
(2.06861e-12 -8.94246e-13 -3.05156e-13)
(1.54854e-12 -2.2109e-12 -2.44385e-13)
(1.10542e-12 -2.43025e-12 -1.89917e-13)
(7.82536e-13 -1.9932e-12 -1.4818e-13)
(5.47531e-13 -1.63835e-12 -1.18322e-13)
(3.74499e-13 -1.36016e-12 -9.49909e-14)
(2.46672e-13 -1.1375e-12 -7.70833e-14)
(1.51611e-13 -9.59288e-13 -6.23734e-14)
(8.1008e-14 -8.07322e-13 -5.25497e-14)
(2.9385e-14 -3.86103e-13 -4.47343e-14)
(3.16714e-12 -1.78044e-12 -5.43363e-13)
(2.09295e-12 -3.75854e-12 -4.16218e-13)
(1.4221e-12 -3.6161e-12 -3.09755e-13)
(9.64612e-13 -2.83708e-12 -2.34381e-13)
(6.49061e-13 -2.2417e-12 -1.80795e-13)
(4.28861e-13 -1.79552e-12 -1.41881e-13)
(2.73511e-13 -1.45387e-12 -1.12931e-13)
(1.63585e-13 -1.18943e-12 -8.92093e-14)
(8.52619e-14 -9.73501e-13 -7.24295e-14)
(3.06786e-14 -4.58632e-13 -6.07903e-14)
(4.69585e-10 -3.83502e-12 -9.11375e-13)
(6.40179e-12 -6.78489e-12 -7.04741e-13)
(1.85929e-12 -5.37588e-12 -5.03369e-13)
(1.19376e-12 -4.01028e-12 -3.65118e-13)
(7.69181e-13 -3.0363e-12 -2.71591e-13)
(4.88292e-13 -2.34036e-12 -2.05448e-13)
(3.00344e-13 -1.83014e-12 -1.57647e-13)
(1.73437e-13 -1.45124e-12 -1.22634e-13)
(8.68802e-14 -1.15501e-12 -9.73593e-14)
(2.92326e-14 -5.35629e-13 -7.9015e-14)
(4.5445e-07 -1.31513e-09 -4.14548e-10)
(1.92269e-09 -1.22042e-09 -1.80456e-12)
(7.27437e-12 -1.71619e-11 -9.36972e-13)
(1.17315e-12 -5.68605e-12 -6.3113e-13)
(7.74128e-13 -4.0853e-12 -4.37156e-13)
(5.19736e-13 -3.02098e-12 -3.12983e-13)
(3.49716e-13 -2.27739e-12 -2.30142e-13)
(2.34046e-13 -1.74838e-12 -1.71444e-13)
(1.54356e-13 -1.35157e-12 -1.30742e-13)
(9.98772e-14 -6.17197e-13 -1.02408e-13)
(2.28191e-13 3.68081e-13 -1.59949e-14)
(2.15451e-13 3.43863e-13 -1.39995e-14)
(1.88664e-13 -5.12086e-14 -1.06815e-14)
(1.63428e-13 -5.44406e-14 -8.4307e-15)
(1.39141e-13 -5.32191e-14 -6.30885e-15)
(1.15938e-13 -5.23602e-14 -4.29028e-15)
(9.38505e-14 -5.1416e-14 -2.75451e-15)
(7.27264e-14 -5.02638e-14 -3.80462e-15)
(5.25867e-14 -4.84471e-14 -1.14416e-14)
(3.34255e-14 -2.54326e-14 -3.27619e-14)
(5.01664e-13 3.34054e-13 -2.40891e-14)
(4.63295e-13 2.37493e-13 -2.0237e-14)
(3.96913e-13 -1.89348e-13 -1.61528e-14)
(3.34988e-13 -1.85728e-13 -1.26959e-14)
(2.7745e-13 -1.78801e-13 -1.02234e-14)
(2.23987e-13 -1.71851e-13 -7.64778e-15)
(1.74382e-13 -1.65249e-13 -6.2232e-15)
(1.28311e-13 -1.58837e-13 -5.68949e-15)
(8.51785e-14 -1.51534e-13 -8.48184e-15)
(4.57837e-14 -7.85265e-14 -2.41935e-14)
(6.22123e-13 2.68207e-13 -3.84038e-14)
(5.53279e-13 6.89203e-14 -3.2502e-14)
(4.57645e-13 -3.85305e-13 -2.61371e-14)
(3.71541e-13 -3.65386e-13 -2.12798e-14)
(2.95377e-13 -3.42001e-13 -1.72041e-14)
(2.2781e-13 -3.2043e-13 -1.43804e-14)
(1.67806e-13 -3.00248e-13 -1.19648e-14)
(1.14516e-13 -2.82292e-13 -1.13004e-14)
(6.68816e-14 -2.63158e-13 -1.30687e-14)
(2.52676e-14 -1.33922e-13 -2.14392e-14)
(8.19081e-13 1.52685e-13 -6.53741e-14)
(7.01743e-13 -1.94497e-13 -5.50281e-14)
(5.62756e-13 -6.63272e-13 -4.51285e-14)
(4.43652e-13 -6.08658e-13 -3.70542e-14)
(3.43075e-13 -5.53296e-13 -3.0783e-14)
(2.57657e-13 -5.04199e-13 -2.65153e-14)
(1.84931e-13 -4.60388e-13 -2.29474e-14)
(1.23204e-13 -4.21778e-13 -2.01825e-14)
(7.0702e-14 -3.8404e-13 -1.99488e-14)
(2.67567e-14 -1.92286e-13 -2.38921e-14)
(1.09779e-12 -4.39572e-14 -1.14604e-13)
(9.02284e-13 -6.04461e-13 -9.5099e-14)
(6.9943e-13 -1.05895e-12 -7.71171e-14)
(5.33766e-13 -9.38442e-13 -6.3524e-14)
(4.00436e-13 -8.27122e-13 -5.32312e-14)
(2.92464e-13 -7.32881e-13 -4.55701e-14)
(2.04493e-13 -6.50879e-13 -3.94856e-14)
(1.32971e-13 -5.802e-13 -3.43506e-14)
(7.47051e-14 -5.14624e-13 -3.04131e-14)
(2.84905e-14 -2.54114e-13 -3.2195e-14)
(1.49856e-12 -3.72246e-13 -2.02047e-13)
(1.17894e-12 -1.24106e-12 -1.63598e-13)
(8.79138e-13 -1.6259e-12 -1.3029e-13)
(6.47583e-13 -1.38933e-12 -1.05789e-13)
(4.70068e-13 -1.18322e-12 -8.67951e-14)
(3.32852e-13 -1.01576e-12 -7.36969e-14)
(2.26573e-13 -8.76721e-13 -6.15539e-14)
(1.43688e-13 -7.60619e-13 -5.23564e-14)
(7.92399e-14 -6.56864e-13 -4.59822e-14)
(3.00308e-14 -3.19397e-13 -4.35435e-14)
(2.0919e-12 -9.10158e-13 -3.55681e-13)
(1.566e-12 -2.23169e-12 -2.77093e-13)
(1.11852e-12 -2.44779e-12 -2.16071e-13)
(7.92644e-13 -2.00718e-12 -1.71259e-13)
(5.55311e-13 -1.64937e-12 -1.37087e-13)
(3.80591e-13 -1.36912e-12 -1.12621e-13)
(2.51561e-13 -1.14508e-12 -9.18956e-14)
(1.5542e-13 -9.65342e-13 -7.66366e-14)
(8.39917e-14 -8.11964e-13 -6.53508e-14)
(3.17685e-14 -3.89225e-13 -5.83092e-14)
(3.19108e-12 -1.81196e-12 -6.30287e-13)
(2.12064e-12 -3.79784e-12 -4.70171e-13)
(1.44236e-12 -3.648e-12 -3.53435e-13)
(9.79348e-13 -2.86131e-12 -2.69932e-13)
(6.60035e-13 -2.26023e-12 -2.09638e-13)
(4.37106e-13 -1.80993e-12 -1.66994e-13)
(2.79835e-13 -1.4659e-12 -1.3511e-13)
(1.68416e-13 -1.19935e-12 -1.08223e-13)
(8.89397e-14 -9.80925e-13 -8.93954e-14)
(3.35425e-14 -4.63055e-13 -7.623e-14)
(4.75029e-10 -3.69098e-12 3.61053e-13)
(6.20221e-12 -6.8169e-12 -7.76902e-13)
(1.88838e-12 -5.43223e-12 -5.77322e-13)
(1.21571e-12 -4.0521e-12 -4.2129e-13)
(7.8475e-13 -3.06739e-12 -3.16647e-13)
(4.9951e-13 -2.36406e-12 -2.42754e-13)
(3.08489e-13 -1.84899e-12 -1.90457e-13)
(1.79388e-13 -1.46566e-12 -1.46906e-13)
(9.12988e-14 -1.16617e-12 -1.19208e-13)
(3.24615e-14 -5.42258e-13 -9.85029e-14)
(4.78822e-07 -1.05927e-09 1.72664e-09)
(1.89315e-09 -1.23142e-09 2.38235e-11)
(6.17016e-12 -1.6601e-11 -7.95067e-13)
(1.19998e-12 -5.74476e-12 -6.49854e-13)
(7.94391e-13 -4.13323e-12 -4.68648e-13)
(5.33518e-13 -3.05667e-12 -3.45901e-13)
(3.59397e-13 -2.30495e-12 -2.61278e-13)
(2.41084e-13 -1.76924e-12 -1.95861e-13)
(1.59289e-13 -1.36744e-12 -1.53325e-13)
(1.0359e-13 -6.26106e-13 -1.22931e-13)
(2.28699e-13 3.67851e-13 -1.3423e-14)
(2.15331e-13 3.42704e-13 -4.21819e-15)
(1.88851e-13 -5.24342e-14 -3.67529e-15)
(1.63672e-13 -5.51154e-14 -5.57582e-15)
(1.39601e-13 -5.4024e-14 -1.16194e-14)
(1.16714e-13 -5.3044e-14 -2.33022e-14)
(9.49779e-14 -5.13271e-14 -4.41288e-14)
(7.5145e-14 -4.79795e-14 -1.5768e-13)
(5.74576e-14 -4.19879e-14 -6.09692e-13)
(3.71903e-14 -4.10953e-14 -1.74216e-12)
(5.02974e-13 3.33274e-13 -1.75893e-14)
(4.63602e-13 2.36365e-13 -2.44851e-15)
(3.97491e-13 -1.90364e-13 -4.37204e-15)
(3.35635e-13 -1.86794e-13 -5.8856e-15)
(2.78325e-13 -1.79842e-13 -1.18102e-14)
(2.25178e-13 -1.72834e-13 -2.30014e-14)
(1.75785e-13 -1.66128e-13 -3.94003e-14)
(1.30252e-13 -1.60052e-13 -1.06056e-13)
(8.81313e-14 -1.52819e-13 -3.62923e-13)
(4.70068e-14 -1.06151e-13 -1.13922e-12)
(6.24405e-13 2.67082e-13 -2.89967e-14)
(5.54357e-13 6.72846e-14 -6.61507e-15)
(4.58721e-13 -3.86577e-13 -6.58172e-15)
(3.72749e-13 -3.66358e-13 -9.30336e-15)
(2.96827e-13 -3.43033e-13 -1.4335e-14)
(2.29621e-13 -3.21758e-13 -2.58082e-14)
(1.69841e-13 -3.02059e-13 -4.36133e-14)
(1.16674e-13 -2.84266e-13 -8.24992e-14)
(6.97331e-14 -2.67808e-13 -2.4057e-13)
(2.67778e-14 -1.64044e-13 -7.48392e-13)
(8.23139e-13 1.51291e-13 -5.06665e-14)
(7.03874e-13 -1.96157e-13 -1.67069e-14)
(5.64837e-13 -6.64865e-13 -1.57441e-14)
(4.4584e-13 -6.09977e-13 -1.83667e-14)
(3.45383e-13 -5.54446e-13 -2.39684e-14)