/*--------------------------------*- C++ -*----------------------------------*\
| =========                 |                                                 |
| \\      /  F ield         | OpenFOAM: The Open Source CFD Toolbox           |
|  \\    /   O peration     | Version:  4.1                                   |
|   \\  /    A nd           | Web:      www.OpenFOAM.org                      |
|    \\/     M anipulation  |                                                 |
\*---------------------------------------------------------------------------*/
FoamFile
{
    version     2.0;
    format      ascii;
    class       volScalarField;
    location    "0.24";
    object      Ma;
}
// * * * * * * * * * * * * * * * * * * * * * * * * * * * * * * * * * * * * * //

dimensions      [0 0 0 0 0 0 0];

internalField   nonuniform List<scalar> 
52500
(
3.08597
3.20932
3.1849
3.1561
3.11739
3.04587
2.93623
2.73872
2.48867
2.20827
1.92036
1.76424
1.68927
1.65503
1.56673
1.31865
0.426988
0.405018
0.477113
0.340584
0.209093
0.222111
0.133004
0.188661
0.029857
3.08596
3.2093
3.18488
3.15608
3.11737
3.04584
2.93617
2.73862
2.48866
2.20833
1.92044
1.76435
1.68955
1.65634
1.57053
1.33327
0.468221
0.398663
0.480544
0.347411
0.214679
0.227236
0.142572
0.196313
0.0624291
3.08596
3.20929
3.18487
3.15607
3.11736
3.04586
2.93616
2.7386
2.48872
2.20845
1.92048
1.7644
1.68996
1.65872
1.5784
1.36421
0.567899
0.382942
0.491932
0.362094
0.228657
0.238511
0.162492
0.212636
0.103328
3.08592
3.20926
3.18483
3.15602
3.11729
3.04582
2.93607
2.73855
2.48892
2.20888
1.92086
1.76478
1.69045
1.66113
1.58843
1.40308
0.69907
0.349455
0.504233
0.386182
0.251265
0.256147
0.190459
0.237098
0.148064
3.08589
3.20924
3.18484
3.15604
3.11732
3.04592
2.93615
2.7386
2.48913
2.2093
1.92119
1.76524
1.69097
1.66304
1.59995
1.44544
0.857418
0.290305
0.516871
0.419411
0.281931
0.280225
0.224782
0.268971
0.197322
3.08596
3.20929
3.18484
3.15599
3.11721
3.04568
2.93572
2.73773
2.48786
2.20748
1.91899
1.76309
1.68885
1.66123
1.61067
1.48518
1.02318
0.218899
0.52477
0.461235
0.320502
0.311025
0.267001
0.308381
0.253865
3.08593
3.20926
3.18482
3.15596
3.11718
3.04571
2.93572
2.73777
2.48827
2.2079
1.91961
1.76367
1.68929
1.66141
1.62236
1.5221
1.17806
0.302457
0.519182
0.509264
0.366029
0.347387
0.319206
0.356261
0.321658
3.08583
3.20917
3.18477
3.15595
3.11722
3.04585
2.93601
2.73847
2.48957
2.20964
1.92198
1.76618
1.69175
1.66365
1.63407
1.55351
1.30036
0.558813
0.477802
0.556256
0.419153
0.387786
0.383764
0.4141
0.408586
3.08591
3.20925
3.1848
3.15593
3.11715
3.04561
2.9357
2.73759
2.48837
2.20774
1.91938
1.76388
1.68953
1.66183
1.63971
1.57647
1.39426
0.838137
0.386814
0.589319
0.480363
0.432604
0.459429
0.482085
0.521862
3.0859
3.20923
3.18479
3.15592
3.11712
3.04556
2.93563
2.73738
2.4882
2.20762
1.91911
1.76395
1.68975
1.66329
1.64587
1.59559
1.4666
1.07634
0.367443
0.591076
0.549945
0.489062
0.538891
0.57098
0.707471
3.08589
3.20923
3.18481
3.15599
3.11726
3.04577
2.93601
2.73844
2.48893
2.20884
1.92103
1.76487
1.68985
1.65549
1.56705
1.31868
0.426497
0.405027
0.476995
0.340428
0.208889
0.22191
0.132662
0.188404
0.0282685
3.08594
3.20928
3.18487
3.15607
3.11736
3.0459
2.93619
2.73865
2.48894
2.20872
1.92081
1.76468
1.68986
1.65664
1.57078
1.33337
0.467924
0.398659
0.480464
0.34725
0.214491
0.227048
0.142293
0.196065
0.0616772
3.08593
3.20927
3.18483
3.15597
3.11719
3.0457
2.93575
2.73782
2.48815
2.20787
1.91937
1.76299
1.68849
1.65734
1.57713
1.36316
0.566876
0.383106
0.49186
0.361956
0.228487
0.238327
0.16224
0.212379
0.102851
3.08596
3.2093
3.1849
3.1561
3.11741
3.04594
2.93627
2.73881
2.48894
2.20868
1.92056
1.76454
1.69024
1.66102
1.58834
1.40295
0.698759
0.349474
0.504172
0.386039
0.251116
0.255972
0.190254
0.236866
0.147733
3.08593
3.20928
3.18483
3.15598
3.1172
3.04571
2.93576
2.73788
2.48818
2.20797
1.91933
1.76313
1.68887
1.66105
1.59814
1.44395
0.856118
0.290536
0.516815
0.419285
0.281804
0.280067
0.224612
0.268774
0.197086
3.08595
3.2093
3.18489
3.1561
3.1174
3.04596
2.93629
2.73887
2.48911
2.20888
1.92079
1.76498
1.69069
1.66292
1.61218
1.48632
1.02365
0.218805
0.524653
0.461088
0.32038
0.310884
0.266847
0.308219
0.253693
3.0859
3.20925
3.18483
3.15601
3.11729
3.04581
2.93606
2.73856
2.48902
2.20881
1.92107
1.76536
1.69098
1.66293
1.62372
1.52313
1.17856
0.3024
0.519086
0.509129
0.365918
0.347267
0.31906
0.356131
0.321538
3.08596
3.2093
3.18489
3.15608
3.11738
3.04586
2.93621
2.73871
2.48893
2.20834
1.92073
1.76509
1.69071
1.66268
1.63314
1.55277
1.2997
0.558215
0.477878
0.556173
0.419055
0.387688
0.38363
0.413997
0.408502
3.08595
3.2093
3.18488
3.15607
3.11736
3.04578
2.93618
2.7385
2.48882
2.20814
1.92034
1.76516
1.69087
1.6631
1.64087
1.57738
1.3947
0.838056
0.38684
0.589261
0.480273
0.432527
0.459314
0.482002
0.521799
3.08597
3.20931
3.1849
3.15609
3.11739
3.04581
2.93627
2.73862
2.48894
2.20822
1.92015
1.76518
1.691
1.66446
1.64691
1.59641
1.46701
1.07635
0.367351
0.591062
0.549864
0.489001
0.5388
0.570918
0.707421
3.08597
3.20931
3.1849
3.1561
3.11739
3.04589
2.93625
2.73877
2.48881
2.20841
1.9205
1.76436
1.68935
1.65508
1.56673
1.31847
0.426387
0.405066
0.476988
0.340429
0.208902
0.221918
0.132669
0.188406
0.028267
3.08596
3.2093
3.18488
3.15608
3.11737
3.04586
2.9362
2.73869
2.48879
2.20844
1.92054
1.76443
1.6896
1.65636
1.57052
1.33314
0.467775
0.398682
0.480461
0.347239
0.214499
0.227055
0.142299
0.196066
0.0616761
3.08597
3.20931
3.18489
3.15609
3.11739
3.0459
2.93625
2.7388
2.4889
2.20855
1.92056
1.76444
1.68996
1.6587
1.57835
1.36404
0.567404
0.383029
0.491853
0.36194
0.228492
0.238333
0.162244
0.21238
0.10285
3.08592
3.20927
3.18485
3.15604
3.11732
3.04586
2.93616
2.73873
2.48908
2.20897
1.92088
1.76477
1.69043
1.6611
1.58838
1.40296
0.698784
0.349447
0.504163
0.386025
0.251116
0.255975
0.190256
0.236866
0.147731
3.08596
3.20931
3.18491
3.15612
3.11743
3.04599
2.93634
2.73893
2.48907
2.20888
1.92071
1.76476
1.69051
1.66263
1.59956
1.44506
0.856771
0.290414
0.516808
0.419283
0.281804
0.28007
0.224613
0.268773
0.197084
3.08599
3.20933
3.18488
3.15603
3.11726
3.04573
2.93582
2.7379
2.48787
2.20732
1.91878
1.76285
1.68862
1.66099
1.61046
1.48496
1.02278
0.218884
0.524706
0.461098
0.320387
0.310887
0.266847
0.308218
0.253691
3.08596
3.20931
3.18491
3.15612
3.11743
3.04599
2.93634
2.73892
2.48914
2.20876
1.92093
1.76518
1.69081
1.66288
1.62368
1.52311
1.17849
0.302319
0.51913
0.509131
0.365923
0.347268
0.319059
0.35613
0.321535
3.0859
3.20924
3.18482
3.156
3.11728
3.04579
2.93605
2.73853
2.48909
2.20873
1.92119
1.76551
1.69109
1.663
1.63343
1.55298
1.29986
0.558265
0.477893
0.556168
0.419057
0.387689
0.383629
0.413996
0.4085
3.08597
3.20932
3.1849
3.15609
3.1174
3.04585
2.93628
2.7387
2.48911
2.20837
1.92054
1.76529
1.69094
1.66312
1.64085
1.57734
1.39464
0.837977
0.386878
0.589266
0.480276
0.432528
0.459313
0.482002
0.521798
3.0859
3.20924
3.18482
3.156
3.11727
3.04573
2.93608
2.73841
2.48917
2.20869
1.92073
1.76569
1.69146
1.6648
1.64723
1.59664
1.46717
1.0764
0.367344
0.591067
0.549867
0.489004
0.5388
0.570919
0.707421
3.08597
3.20932
3.18491
3.15611
3.11741
3.04591
2.93629
2.73885
2.48895
2.20853
1.9206
1.7644
1.68939
1.65508
1.56672
1.31842
0.426284
0.405092
0.476989
0.340433
0.208916
0.221926
0.132675
0.188408
0.0282659
3.08597
3.20932
3.18491
3.15611
3.11741
3.04591
2.93628
2.73886
2.48894
2.20854
1.92058
1.76441
1.68957
1.65632
1.57048
1.3331
0.467718
0.398705
0.480468
0.34724
0.214511
0.227063
0.142304
0.196069
0.061676
3.08597
3.20932
3.18491
3.15611
3.11741
3.04591
2.93628
2.73886
2.48893
2.20856
1.92055
1.76442
1.68995
1.65869
1.57834
1.36404
0.567366
0.38305
0.491859
0.361943
0.228504
0.238342
0.162249
0.212382
0.10285
3.08597
3.20932
3.18491
3.15611
3.11741
3.04591
2.93628
2.73887
2.48891
2.2086
1.92052
1.76446
1.69014
1.66085
1.58817
1.40279
0.698623
0.349509
0.504181
0.386028
0.251129
0.255985
0.190261
0.236869
0.147732
3.08597
3.20932
3.18491
3.15611
3.11741
3.04592
2.93628
2.73887
2.4889
2.20863
1.92049
1.76457
1.69032
1.66243
1.59936
1.44487
0.856574
0.290476
0.516814
0.419279
0.281813
0.280079
0.224618
0.268776
0.197085
3.08597
3.20932
3.18491
3.15611
3.11741
3.04592
2.93628
2.73887
2.48893
2.2086
1.92055
1.76476
1.69048
1.6627
1.61197
1.48613
1.02348
0.218856
0.524672
0.461089
0.32039
0.310895
0.266852
0.308221
0.253693
3.08597
3.20932
3.18491
3.15611
3.11741
3.04592
2.93628
2.73887
2.48899
2.2085
1.92068
1.76498
1.69061
1.66263
1.62344
1.52292
1.17836
0.302277
0.519136
0.509131
0.365927
0.347276
0.319063
0.356133
0.321538
3.08597
3.20932
3.18491
3.1561
3.11741
3.0459
2.93629
2.73885
2.48904
2.20839
1.92076
1.76509
1.69069
1.66266
1.63312
1.55275
1.29968
0.558149
0.47793
0.556173
0.41906
0.387697
0.383632
0.414
0.408502
3.08597
3.20932
3.18491
3.1561
3.11741
3.04586
2.93631
2.73876
2.48912
2.20836
1.9205
1.76522
1.69088
1.66306
1.64082
1.57733
1.39464
0.83797
0.386894
0.589269
0.480276
0.432535
0.459316
0.482005
0.5218
3.08597
3.20932
3.18491
3.1561
3.11741
3.04585
2.93632
2.73873
2.48912
2.20836
1.9203
1.76527
1.69105
1.66446
1.64691
1.59639
1.46698
1.07629
0.36732
0.591079
0.549866
0.489007
0.538803
0.570921
0.707423
3.08598
3.20933
3.18492
3.15612
3.11743
3.04595
2.93632
2.73888
2.489
2.20861
1.92064
1.7644
1.68939
1.65507
1.56671
1.31845
0.426388
0.405052
0.476989
0.340429
0.208898
0.221927
0.132654
0.188398
0.0282558
3.08598
3.20933
3.18492
3.15612
3.11743
3.04595
2.93632
2.73888
2.489
2.20862
1.92062
1.76441
1.68956
1.65631
1.57047
1.33312
0.467789
0.398666
0.480456
0.347238
0.21449
0.227055
0.142248
0.196062
0.0616904
3.08598
3.20933
3.18492
3.15612
3.11742
3.04593
2.93631
2.7389
2.48896
2.20858
1.92056
1.76443
1.68996
1.65871
1.57837
1.36407
0.567403
0.383031
0.49186
0.36195
0.228495
0.238343
0.162219
0.212411
0.102897
3.08598
3.20933
3.18491
3.15611
3.11742
3.04593
2.93631
2.7389
2.48894
2.20862
1.92053
1.76447
1.69016
1.66088
1.58819
1.40281
0.698653
0.349501
0.504182
0.38604
0.25113
0.256003
0.190256
0.236891
0.147768
3.08598
3.20933
3.18492
3.15612
3.11743
3.04596
2.93632
2.7389
2.48896
2.20872
1.92054
1.76457
1.69032
1.66241
1.59935
1.44488
0.856665
0.29043
0.516807
0.419283
0.281815
0.280104
0.224625
0.268768
0.197082
3.08597
3.20932
3.18491
3.15611
3.11742
3.04594
2.93631
2.73889
2.48897
2.20865
1.92057
1.76474
1.69046
1.66266
1.61194
1.48611
1.02355
0.218814
0.524659
0.46109
0.320387
0.310915
0.266872
0.308194
0.253669
3.08598
3.20933
3.18492
3.15612
3.11743
3.04595
2.93632
2.73889
2.48902
2.20855
1.92069
1.76495
1.69058
1.66259
1.62342
1.52291
1.17842
0.302358
0.519105
0.509134
0.365923
0.347286
0.319087
0.356113
0.321515
3.08598
3.20933
3.18491
3.15611
3.11742
3.04591
2.9363
2.73887
2.48902
2.20837
1.92073
1.76507
1.69068
1.66266
1.63313
1.55276
1.29971
0.558217
0.477891
0.556175
0.419058
0.387696
0.383652
0.413991
0.408487
3.08597
3.20932
3.18491
3.15611
3.11742
3.04589
2.93632
2.73874
2.4891
2.20838
1.92048
1.76519
1.69085
1.66304
1.64081
1.57734
1.39469
0.838069
0.386847
0.589262
0.480275
0.432527
0.45933
0.481997
0.521793
3.08597
3.20932
3.18491
3.1561
3.11741
3.04587
2.93632
2.73869
2.4891
2.2084
1.92031
1.76528
1.69106
1.66446
1.64691
1.5964
1.46702
1.07636
0.367356
0.591062
0.549867
0.489
0.53881
0.570915
0.707421
3.08597
3.20932
3.18491
3.15611
3.11741
3.04591
2.93628
2.73885
2.48894
2.20853
1.92059
1.76441
1.68938
1.65508
1.56672
1.31843
0.426291
0.405091
0.47699
0.340434
0.208916
0.221925
0.132673
0.188408
0.0282657
3.08597
3.20932
3.18491
3.1561
3.11741
3.04591
2.93628
2.73885
2.48894
2.20854
1.92058
1.76441
1.68957
1.65632
1.57048
1.33311
0.467724
0.398703
0.480468
0.347241
0.214512
0.227063
0.142304
0.196069
0.0616764
3.08597
3.20932
3.18491
3.15611
3.11741
3.04591
2.93628
2.73886
2.48893
2.20856
1.92055
1.76442
1.68995
1.65869
1.57834
1.36405
0.567372
0.383047
0.491859
0.361944
0.228504
0.238341
0.162248
0.212382
0.10285
3.08597
3.20932
3.18491
3.1561
3.11741
3.04591
2.93628
2.73886
2.4889
2.20859
1.92051
1.76446
1.69013
1.66084
1.58816
1.40278
0.698618
0.349506
0.504179
0.386028
0.251128
0.255983
0.190261
0.236869
0.147732
3.08597
3.20932
3.18491
3.15611
3.11741
3.04592
2.93628
2.73887
2.4889
2.20863
1.92049
1.76457
1.69032
1.66242
1.59935
1.44487
0.856584
0.290464
0.516811
0.419277
0.281811
0.280077
0.224618
0.268777
0.197086
3.08597
3.20932
3.18491
3.1561
3.11741
3.04591
2.93628
2.73887
2.48891
2.20858
1.92054
1.76475
1.69047
1.66268
1.61195
1.48611
1.02348
0.218841
0.524667
0.461085
0.320386
0.310892
0.266851
0.308222
0.253692
3.08597
3.20932
3.18491
3.15611
3.11741
3.04592
2.93628
2.73886
2.48897
2.20848
1.92066
1.76495
1.69059
1.66261
1.62343
1.52291
1.17838
0.302294
0.519125
0.509127
0.365922
0.347273
0.319062
0.356134
0.321536
3.08597
3.20932
3.18491
3.1561
3.1174
3.0459
2.93628
2.73883
2.48901
2.20836
1.92072
1.76506
1.69067
1.66264
1.63311
1.55275
1.29969
0.558175
0.477913
0.556169
0.419055
0.387694
0.383631
0.414
0.4085
3.08597
3.20932
3.18491
3.1561
3.1174
3.04585
2.93629
2.73872
2.48904
2.20829
1.92043
1.76517
1.69085
1.66305
1.64082
1.57733
1.39466
0.838001
0.38688
0.589264
0.480272
0.432531
0.459315
0.482005
0.521798
3.08597
3.20932
3.18491
3.15609
3.1174
3.04583
2.93629
2.73867
2.48904
2.2083
1.92026
1.76526
1.69106
1.66448
1.64693
1.59641
1.467
1.07631
0.367332
0.591074
0.549864
0.489004
0.538801
0.570921
0.707422
3.08597
3.20932
3.18491
3.15611
3.11741
3.04591
2.93629
2.73886
2.48895
2.20853
1.9206
1.7644
1.68939
1.65508
1.56672
1.31842
0.426284
0.405092
0.476989
0.340433
0.208915
0.221926
0.132675
0.188408
0.0282659
3.08597
3.20932
3.18491
3.15611
3.11741
3.04591
2.93628
2.73886
2.48894
2.20854
1.92058
1.76441
1.68957
1.65632
1.57048
1.3331
0.467718
0.398705
0.480468
0.34724
0.214511
0.227063
0.142304
0.196069
0.061676
3.08597
3.20932
3.18491
3.15611
3.11741
3.04591
2.93628
2.73886
2.48893
2.20856
1.92055
1.76442
1.68995
1.65869
1.57834
1.36404
0.567366
0.383051
0.491859
0.361943
0.228504
0.238342
0.162249
0.212382
0.10285
3.08597
3.20932
3.18491
3.15611
3.11741
3.04591
2.93628
2.73887
2.48891
2.2086
1.92052
1.76446
1.69014
1.66085
1.58817
1.40279
0.698623
0.349509
0.504181
0.386028
0.251129
0.255985
0.190261
0.236869
0.147732
3.08597
3.20932
3.18491
3.15611
3.11741
3.04592
2.93628
2.73887
2.4889
2.20863
1.92049
1.76457
1.69032
1.66243
1.59936
1.44487
0.856573
0.290476
0.516814
0.419279
0.281813
0.280079
0.224618
0.268776
0.197085
3.08597
3.20932
3.18491
3.15611
3.11741
3.04592
2.93628
2.73887
2.48893
2.2086
1.92055
1.76476
1.69048
1.6627
1.61197
1.48613
1.02348
0.218856
0.524672
0.461089
0.32039
0.310895
0.266852
0.308221
0.253693
3.08597
3.20932
3.18491
3.15611
3.11741
3.04592
2.93628
2.73887
2.48899
2.2085
1.92068
1.76498
1.69061
1.66263
1.62344
1.52292
1.17836
0.302276
0.519136
0.509131
0.365927
0.347276
0.319063
0.356133
0.321538
3.08597
3.20932
3.18491
3.1561
3.11741
3.0459
2.93629
2.73885
2.48904
2.20839
1.92076
1.76509
1.69069
1.66266
1.63312
1.55275
1.29968
0.558148
0.47793
0.556173
0.41906
0.387697
0.383632
0.414
0.408502
3.08597
3.20932
3.18491
3.1561
3.11741
3.04586
2.93631
2.73876
2.48912
2.20836
1.9205
1.76522
1.69088
1.66306
1.64082
1.57733
1.39464
0.837969
0.386894
0.589269
0.480276
0.432535
0.459316
0.482005
0.5218
3.08597
3.20932
3.18491
3.1561
3.11741
3.04585
2.93632
2.73873
2.48912
2.20836
1.9203
1.76527
1.69105
1.66446
1.64691
1.59639
1.46698
1.07629
0.36732
0.591079
0.549866
0.489007
0.538803
0.570921
0.707423
3.08597
3.20931
3.1849
3.1561
3.11739
3.04589
2.93625
2.73877
2.48881
2.20841
1.9205
1.76436
1.68935
1.65508
1.56673
1.31847
0.426387
0.405066
0.476988
0.340429
0.208902
0.221918
0.132669
0.188406
0.028267
3.08596
3.2093
3.18488
3.15608
3.11737
3.04586
2.9362
2.73869
2.48879
2.20844
1.92054
1.76443
1.6896
1.65636
1.57052
1.33314
0.467775
0.398682
0.480461
0.347239
0.214499
0.227055
0.142299
0.196066
0.0616761
3.08597
3.20931
3.18489
3.15609
3.11739
3.0459
2.93625
2.7388
2.4889
2.20855
1.92056
1.76444
1.68996
1.6587
1.57835
1.36404
0.567404
0.383029
0.491853
0.36194
0.228492
0.238333
0.162244
0.21238
0.10285
3.08592
3.20927
3.18485
3.15604
3.11732
3.04586
2.93616
2.73873
2.48908
2.20897
1.92088
1.76477
1.69043
1.6611
1.58838
1.40296
0.698784
0.349447
0.504163
0.386025
0.251116
0.255975
0.190256
0.236866
0.147731
3.08596
3.20931
3.18491
3.15612
3.11743
3.04599
2.93634
2.73893
2.48907
2.20888
1.92071
1.76476
1.69051
1.66263
1.59956
1.44506
0.856771
0.290414
0.516808
0.419283
0.281804
0.28007
0.224613
0.268773
0.197084
3.08599
3.20933
3.18488
3.15603
3.11726
3.04573
2.93582
2.7379
2.48787
2.20732
1.91878
1.76285
1.68862
1.66099
1.61046
1.48496
1.02278
0.218884
0.524706
0.461098
0.320387
0.310887
0.266847
0.308218
0.253691
3.08596
3.20931
3.18491
3.15612
3.11743
3.04599
2.93634
2.73892
2.48914
2.20876
1.92093
1.76518
1.69081
1.66288
1.62368
1.52311
1.17849
0.302319
0.51913
0.509131
0.365923
0.347268
0.319059
0.35613
0.321535
3.0859
3.20924
3.18482
3.156
3.11728
3.04579
2.93605
2.73853
2.48909
2.20873
1.92119
1.76551
1.69109
1.663
1.63343
1.55298
1.29986
0.558265
0.477893
0.556168
0.419057
0.387689
0.383629
0.413996
0.4085
3.08597
3.20932
3.1849
3.15609
3.1174
3.04585
2.93628
2.7387
2.48911
2.20837
1.92054
1.76529
1.69094
1.66312
1.64085
1.57734
1.39464
0.837977
0.386878
0.589266
0.480276
0.432528
0.459313
0.482002
0.521798
3.0859
3.20924
3.18482
3.156
3.11727
3.04573
2.93608
2.73841
2.48917
2.20869
1.92073
1.76569
1.69146
1.6648
1.64723
1.59664
1.46717
1.0764
0.367344
0.591067
0.549867
0.489004
0.5388
0.570919
0.707421
3.08589
3.20923
3.18481
3.15599
3.11726
3.04577
2.93601
2.73844
2.48893
2.20884
1.92104
1.76487
1.68985
1.65549
1.56705
1.31868
0.426497
0.405027
0.476995
0.340429
0.208889
0.22191
0.132662
0.188404
0.0282685
3.08594
3.20928
3.18487
3.15607
3.11736
3.0459
2.93619
2.73865
2.48894
2.20872
1.92081
1.76468
1.68986
1.65664
1.57078
1.33337
0.467924
0.398659
0.480464
0.34725
0.214491
0.227048
0.142293
0.196065
0.0616772
3.08593
3.20927
3.18483
3.15597
3.11719
3.0457
2.93575
2.73782
2.48815
2.20787
1.91937
1.76299
1.68849
1.65734
1.57713
1.36316
0.566876
0.383106
0.49186
0.361956
0.228487
0.238327
0.16224
0.212379
0.102851
3.08596
3.2093
3.1849
3.1561
3.11741
3.04594
2.93627
2.73881
2.48894
2.20868
1.92056
1.76454
1.69024
1.66102
1.58834
1.40295
0.69876
0.349474
0.504172
0.386039
0.251116
0.255972
0.190254
0.236866
0.147733
3.08593
3.20928
3.18483
3.15598
3.1172
3.04571
2.93576
2.73788
2.48818
2.20797
1.91933
1.76313
1.68887
1.66105
1.59814
1.44395
0.856118
0.290536
0.516815
0.419286
0.281804
0.280067
0.224612
0.268774
0.197086
3.08595
3.2093
3.18489
3.1561
3.1174
3.04596
2.93629
2.73887
2.48911
2.20888
1.92079
1.76498
1.69069
1.66292
1.61218
1.48631
1.02365
0.218805
0.524653
0.461088
0.32038
0.310884
0.266847
0.308219
0.253693
3.0859
3.20925
3.18483
3.15601
3.11729
3.04581
2.93606
2.73856
2.48902
2.20881
1.92107
1.76536
1.69098
1.66293
1.62372
1.52313
1.17856
0.3024
0.519086
0.509129
0.365918
0.347267
0.31906
0.356131
0.321538
3.08596
3.2093
3.18489
3.15608
3.11738
3.04586
2.93621
2.73871
2.48893
2.20834
1.92073
1.76509
1.69071
1.66268
1.63314
1.55277
1.2997
0.558216
0.477878
0.556173
0.419055
0.387688
0.38363
0.413997
0.408502
3.08595
3.2093
3.18488
3.15607
3.11736
3.04578
2.93618
2.7385
2.48882
2.20813
1.92034
1.76516
1.69087
1.6631
1.64087
1.57738
1.3947
0.838056
0.38684
0.589262
0.480273
0.432527
0.459314
0.482002
0.521799
3.08597
3.20931
3.1849
3.15609
3.11739
3.04581
2.93627
2.73862
2.48894
2.20822
1.92015
1.76518
1.691
1.66446
1.64691
1.59641
1.46701
1.07635
0.367351
0.591062
0.549864
0.489002
0.5388
0.570918
0.707421
3.08596
3.2093
3.18488
3.15608
3.11736
3.04584
2.93616
2.73861
2.48866
2.20832
1.92047
1.76438
1.68939
1.65513
1.56681
1.31867
0.426948
0.405025
0.477131
0.340608
0.209116
0.222148
0.133046
0.188689
0.0298932
3.08592
3.20927
3.18485
3.15604
3.11733
3.04587
2.93614
2.7386
2.48896
2.20882
1.92087
1.76466
1.68983
1.65657
1.57074
1.33347
0.468432
0.398577
0.480517
0.347418
0.214677
0.227254
0.142546
0.196286
0.0624043
3.08595
3.20929
3.18489
3.15609
3.11739
3.0459
2.93622
2.73867
2.48882
2.20862
1.92067
1.76462
1.69019
1.65899
1.57866
1.36442
0.568024
0.382926
0.491939
0.362108
0.228652
0.238522
0.162481
0.212618
0.103312
3.08598
3.20931
3.18486
3.15602
3.11724
3.04573
2.93576
2.73768
2.48776
2.2074
1.91879
1.76256
1.68829
1.65916
1.58667
1.40176
0.69839
0.349568
0.504239
0.386188
0.25126
0.256148
0.190461
0.237089
0.148062
3.08591
3.20925
3.18484
3.15603
3.11732
3.0459
2.93615
2.7387
2.4892
2.20928
1.92115
1.76514
1.69085
1.66292
1.59984
1.44535
0.857317
0.290354
0.516873
0.419407
0.281927
0.280221
0.224787
0.268971
0.197326
3.08584
3.20919
3.18478
3.15596
3.11724
3.04587
2.93601
2.73846
2.48933
2.20963
1.9216
1.7657
1.69139
1.66353
1.61277
1.48683
1.0244
0.218809
0.52469
0.461222
0.320491
0.31102
0.267005
0.308384
0.253871
3.08598
3.20931
3.18486
3.15602
3.11725
3.04574
2.93581
2.73788
2.48812
2.20753
1.91924
1.76337
1.68901
1.66118
1.62214
1.52194
1.17796
0.30245
0.519187
0.509287
0.366034
0.347387
0.319209
0.356263
0.321666
3.0859
3.20923
3.18478
3.15593
3.11713
3.04562
2.93559
2.7375
2.48813
2.2077
1.91971
1.76393
1.68956
1.66163
1.63221
1.55206
1.29939
0.558322
0.477912
0.556289
0.419167
0.387789
0.383767
0.414102
0.408591
3.0859
3.20925
3.18485
3.15603
3.11733
3.04589
2.93621
2.7386
2.48954
2.20921
1.92127
1.76592
1.69157
1.66374
1.64146
1.57785
1.39507
0.838446
0.386821
0.58933
0.480371
0.432608
0.459431
0.482087
0.521863
3.08586
3.20919
3.18475
3.15588
3.11708
3.04559
2.93561
2.73738
2.48854
2.20828
1.91976
1.76438
1.6901
1.66348
1.64605
1.59573
1.46675
1.07647
0.367536
0.591076
0.54995
0.489066
0.538894
0.570982
0.707471
3.08586
3.20919
3.18478
3.15596
3.11723
3.04573
2.93596
2.7382
2.48886
2.20886
1.9207
1.76579
1.69216
1.66495
1.6501
1.60824
1.51395
1.24242
0.628179
0.534577
0.615568
0.556298
0.616191
0.666977
0.887964
3.0859
3.20923
3.18477
3.1559
3.11709
3.04556
2.93551
2.73744
2.48769
2.20746
1.91897
1.76354
1.69001
1.66334
1.64874
1.61248
1.54259
1.35454
0.935415
0.454697
0.653545
0.622386
0.682991
0.752007
0.961026
3.08586
3.20918
3.18476
3.15594
3.11719
3.04574
2.93584
2.73819
2.48869
2.2087
1.92092
1.76547
1.6918
1.66516
1.65064
1.61596
1.5652
1.4328
1.16484
0.584303
0.646423
0.676559
0.737555
0.81646
0.981187
3.08581
3.20914
3.18472
3.1559
3.11714
3.04574
2.93579
2.73814
2.48899
2.2092
1.92144
1.76592
1.69211
1.66588
1.65167
1.61788
1.57531
1.47662
1.3221
0.930669
0.637167
0.716742
0.791705
0.874936
1.00224
3.08589
3.20921
3.18475
3.15589
3.11707
3.04557
2.93547
2.73744
2.48782
2.20753
1.91923
1.76358
1.68975
1.66387
1.6496
1.61575
1.57225
1.50198
1.40835
1.20741
0.753561
0.747517
0.842558
0.927959
1.03001
3.08588
3.2092
3.18476
3.1559
3.1171
3.04564
2.93554
2.73748
2.48794
2.20778
1.91944
1.76378
1.68998
1.66407
1.65011
1.61637
1.57178
1.50612
1.46186
1.38478
1.10014
0.813419
0.885823
0.97322
1.05773
3.08585
3.20918
3.18474
3.15587
3.11707
3.04566
2.93555
2.7376
2.48831
2.20829
1.91985
1.76403
1.69016
1.66423
1.65015
1.61624
1.57231
1.50854
1.47528
1.46737
1.38262
1.088
0.931447
1.00421
1.08844
3.08583
3.20916
3.18472
3.15585
3.11704
3.04564
2.93549
2.7375
2.48828
2.20829
1.91989
1.76409
1.69023
1.66428
1.65026
1.6164
1.57223
1.50802
1.47835
1.49722
1.50108
1.41182
1.16108
1.03911
1.11479
3.08587
3.20919
3.18474
3.15589
3.11708
3.04562
2.9355
2.73743
2.48802
2.20787
1.91955
1.76387
1.69003
1.66412
1.65005
1.6162
1.57216
1.50816
1.47801
1.5008
1.53516
1.54879
1.47674
1.27705
1.1583
3.08584
3.20916
3.1847
3.15582
3.117
3.04554
2.93538
2.73733
2.48805
2.20801
1.91971
1.76398
1.69012
1.66416
1.6501
1.61625
1.5722
1.50817
1.47815
1.50107
1.53822
1.57866
1.60238
1.5638
1.42411
3.08579
3.20912
3.1847
3.15588
3.11713
3.04574
2.93578
2.73812
2.48902
2.20933
1.92154
1.76603
1.69221
1.66614
1.65192
1.61776
1.57317
1.5087
1.47858
1.5011
1.53899
1.58091
1.62166
1.65254
1.64763
3.08588
3.20919
3.18473
3.15587
3.11704
3.04553
2.93539
2.73723
2.48766
2.20742
1.91921
1.76365
1.68985
1.66396
1.6499
1.61609
1.57206
1.50805
1.47822
1.5009
1.53892
1.58115
1.62371
1.66449
1.69899
3.08588
3.20919
3.18473
3.15587
3.11705
3.04555
2.93541
2.73727
2.48771
2.20747
1.91923
1.76365
1.68984
1.66395
1.6499
1.61609
1.57207
1.50805
1.47822
1.5009
1.53894
1.58116
1.62397
1.66587
1.70566
3.0858
3.20912
3.18471
3.15589
3.11713
3.04575
2.9358
2.73815
2.48902
2.20929
1.92147
1.76594
1.69212
1.66606
1.65186
1.61772
1.57314
1.50869
1.47858
1.50109
1.53905
1.58123
1.62404
1.66606
1.70649
3.08585
3.20918
3.18472
3.15585
3.11703
3.04557
2.93545
2.73745
2.48805
2.20793
1.91956
1.7638
1.68995
1.66402
1.64999
1.61617
1.57213
1.50812
1.47826
1.50091
1.53896
1.58117
1.62401
1.66606
1.70659
3.08587
3.20919
3.18475
3.15589
3.11709
3.04562
2.93551
2.73741
2.48786
2.2077
1.91935
1.76371
1.68993
1.66408
1.65005
1.61624
1.57218
1.50815
1.47827
1.50092
1.53896
1.58118
1.62402
1.66607
1.7066
3.08587
3.20919
3.18475
3.15589
3.11708
3.04562
2.9355
2.73739
2.48789
2.20775
1.91942
1.76378
1.68999
1.66412
1.65008
1.61624
1.57218
1.50814
1.47826
1.50092
1.53896
1.58117
1.62401
1.66607
1.70661
3.08584
3.20916
3.1847
3.15583
3.117
3.04554
2.93536
2.73728
2.48798
2.20792
1.91965
1.76394
1.69009
1.66414
1.65009
1.61625
1.57219
1.50814
1.47827
1.50092
1.53896
1.58117
1.62401
1.66607
1.70661
3.08579
3.20912
3.1847
3.15588
3.11712
3.04575
2.93579
2.73816
2.48913
2.20943
1.92162
1.76607
1.69221
1.66612
1.65188
1.61772
1.57312
1.50866
1.47857
1.50108
1.53905
1.58122
1.62404
1.66608
1.70661
3.08582
3.20914
3.18468
3.1558
3.11697
3.0455
2.93529
2.73717
2.48795
2.20792
1.91969
1.764
1.69016
1.6642
1.65014
1.61628
1.57221
1.50815
1.47828
1.50092
1.53896
1.58117
1.62402
1.66607
1.70661
3.08588
3.20921
3.18476
3.15591
3.11711
3.04565
2.93556
2.73749
2.48794
2.20776
1.91938
1.76372
1.68992
1.66406
1.65002
1.61619
1.57213
1.5081
1.47825
1.50091
1.53896
1.58118
1.62402
1.66607
1.70661
3.08581
3.20914
3.18469
3.15582
3.11699
3.04556
2.93536
2.73723
2.48799
2.20808
1.91976
1.76406
1.69026
1.66436
1.65032
1.61645
1.57235
1.50827
1.47834
1.50096
1.53898
1.58119
1.62403
1.66607
1.70661
3.08588
3.20921
3.18476
3.15591
3.11711
3.04565
2.93556
2.73749
2.48793
2.20776
1.91938
1.76373
1.68992
1.66407
1.65002
1.61619
1.57213
1.50811
1.47825
1.50092
1.53896
1.58118
1.62402
1.66607
1.70661
3.08582
3.20914
3.18467
3.15579
3.11696
3.04548
2.93526
2.73711
2.48789
2.20787
1.91966
1.76399
1.69016
1.66421
1.65015
1.6163
1.57222
1.50816
1.47829
1.50093
1.53897
1.58118
1.62402
1.66607
1.70661
3.08579
3.20912
3.1847
3.15588
3.11713
3.04575
2.9358
2.73818
2.48915
2.20947
1.92166
1.7661
1.69224
1.66615
1.65191
1.61774
1.57314
1.50866
1.47857
1.50108
1.53905
1.58122
1.62404
1.66608
1.70661
3.08582
3.20914
3.18467
3.15579
3.11695
3.04548
2.93526
2.73712
2.48788
2.20787
1.91967
1.764
1.69016
1.6642
1.65013
1.61627
1.5722
1.50814
1.47828
1.50093
1.53897
1.58118
1.62402
1.66607
1.70661
3.08588
3.20921
3.18476
3.15591
3.11711
3.04567
2.93556
2.73749
2.48798
2.20781
1.91944
1.76378
1.68996
1.6641
1.65005
1.61622
1.57216
1.50812
1.47825
1.50091
1.53896
1.58117
1.62402
1.66607
1.70661
3.08582
3.20914
3.18469
3.15582
3.117
3.04556
2.93538
2.73729
2.48805
2.20813
1.9198
1.76408
1.69026
1.66434
1.65029
1.61641
1.57231
1.50824
1.47832
1.50095
1.53898
1.58119
1.62403
1.66607
1.70661
3.08589
3.20921
3.18477
3.15591
3.11711
3.04566
2.93557
2.73754
2.488
2.20781
1.91941
1.76373
1.68991
1.66405
1.65001
1.61618
1.57212
1.5081
1.47824
1.50091
1.53896
1.58117
1.62402
1.66607
1.70661
3.08584
3.20916
3.1847
3.15582
3.117
3.04554
2.93537
2.73733
2.48802
2.20796
1.91966
1.76392
1.69007
1.66413
1.65009
1.61624
1.57219
1.50814
1.47827
1.50092
1.53896
1.58117
1.62401
1.66606
1.7066
3.0858
3.20913
3.18471
3.15589
3.11715
3.04577
2.93583
2.73822
2.48917
2.20946
1.92164
1.76607
1.69222
1.66612
1.65189
1.61772
1.57313
1.50867
1.47857
1.50108
1.53904
1.58122
1.62404
1.66608
1.70661
3.08588
3.2092
3.18474
3.15588
3.11706
3.04556
2.93542
2.73729
2.48773
2.20747
1.91924
1.76364
1.68984
1.66394
1.64989
1.61609
1.57206
1.50805
1.47822
1.50089
1.53894
1.58116
1.624
1.66606
1.7066
3.08589
3.20922
3.18476
3.1559
3.11709
3.0456
2.93552
2.73748
2.48788
2.20758
1.91926
1.7636
1.68977
1.66388
1.64984
1.61604
1.57203
1.50803
1.4782
1.50088
1.53893
1.58115
1.624
1.66606
1.7066
3.0858
3.20914
3.18473
3.15591
3.11716
3.04578
2.93584
2.73819
2.48904
2.20929
1.92147
1.76594
1.69213
1.66606
1.65187
1.61773
1.57316
1.50871
1.47859
1.50109
1.53905
1.58122
1.62404
1.66608
1.70661
3.08591
3.20923
3.18478
3.15592
3.11713
3.04564
2.9356
2.73763
2.48793
2.20757
1.91918
1.76349
1.68966
1.6638
1.64978
1.616
1.572
1.50802
1.47819
1.50087
1.53893
1.58115
1.624
1.66605
1.7066
3.08589
3.20921
3.18476
3.1559
3.11708
3.04558
2.93548
2.73738
2.48777
2.20751
1.91924
1.76362
1.68981
1.66391
1.64985
1.61605
1.57203
1.50802
1.4782
1.50088
1.53893
1.58116
1.624
1.66606
1.7066
3.08586
3.20919
3.18478
3.15596
3.11723
3.0458
2.93594
2.73834
2.48888
2.20884
1.92102
1.76556
1.69175
1.66572
1.65151
1.61742
1.5729
1.50851
1.47848
1.50102
1.53901
1.5812
1.62402
1.66607
1.7066
3.08586
3.20919
3.18474
3.15587
3.11706
3.04563
2.93552
2.73756
2.48824
2.20815
1.91977
1.76392
1.69003
1.66404
1.65
1.61617
1.57214
1.50811
1.47825
1.5009
1.53894
1.58116
1.624
1.66606
1.7066
3.08586
3.20919
3.18478
3.15597
3.11723
3.04583
2.93595
2.73832
2.4889
2.20888
1.92102
1.76552
1.69171
1.66568
1.65149
1.61741
1.57293
1.50856
1.47851
1.50105
1.53903
1.58121
1.62403
1.66607
1.70661
3.0859
3.20923
3.18478
3.15592
3.11712
3.04562
2.93556
2.73755
2.48786
2.20756
1.91924
1.76357
1.68975
1.66386
1.64981
1.61602
1.57201
1.50802
1.4782
1.50088
1.53893
1.58116
1.624
1.66606
1.7066
3.08595
3.2093
3.18488
3.15607
3.11736
3.0458
2.93619
2.73859
2.48872
2.20822
1.92004
1.76507
1.69143
1.66422
1.64942
1.60768
1.51352
1.24205
0.627738
0.534653
0.615513
0.556252
0.616123
0.66694
0.887931
3.08596
3.20931
3.18489
3.15609
3.11738
3.04589
2.93622
2.73879
2.48877
2.20831
1.92021
1.76489
1.69134
1.66453
1.64981
1.61334
1.54308
1.35468
0.935255
0.454737
0.653517
0.62235
0.682938
0.751981
0.961003
3.08592
3.20926
3.18485
3.15603
3.11731
3.04587
2.93613
2.73873
2.48902
2.2087
1.92077
1.76518
1.69144
1.66473
1.65024
1.61561
1.56492
1.43257
1.16458
0.584029
0.646426
0.676498
0.737504
0.816419
0.981163
3.08594
3.20929
3.18489
3.15609