/*--------------------------------*- C++ -*----------------------------------*\
| =========                 |                                                 |
| \\      /  F ield         | OpenFOAM: The Open Source CFD Toolbox           |
|  \\    /   O peration     | Version:  4.1                                   |
|   \\  /    A nd           | Web:      www.OpenFOAM.org                      |
|    \\/     M anipulation  |                                                 |
\*---------------------------------------------------------------------------*/
FoamFile
{
    version     2.0;
    format      ascii;
    class       volScalarField;
    location    "0.24";
    object      p;
}
// * * * * * * * * * * * * * * * * * * * * * * * * * * * * * * * * * * * * * //

dimensions      [1 -1 -2 0 0 0 0];

internalField   nonuniform List<scalar> 
52500
(
0.092287
0.0664592
0.0667237
0.067434
0.0689075
0.0717424
0.0762142
0.0851996
0.0990678
0.120175
0.165504
0.201548
0.230307
0.24753
0.283204
0.382401
0.863626
3.45365
3.79247
3.5659
3.57633
3.9611
4.78706
4.91559
4.80667
0.0922874
0.0664599
0.0667244
0.0674348
0.0689086
0.0717431
0.0762163
0.0852052
0.0990705
0.120171
0.165479
0.201496
0.230275
0.247069
0.281713
0.376742
0.827344
3.36731
3.82838
3.56852
3.57161
3.94672
4.78539
4.9144
4.7958
0.0922876
0.0664602
0.0667247
0.0674352
0.0689092
0.0717425
0.0762163
0.0852077
0.0990683
0.120164
0.165454
0.201469
0.230277
0.246224
0.278704
0.36493
0.75243
3.15235
3.89356
3.57685
3.56029
3.90998
4.77351
4.90284
4.76702
0.0922891
0.0664617
0.0667263
0.0674371
0.0689114
0.0717434
0.0762168
0.08521
0.0990618
0.120145
0.165405
0.201491
0.230123
0.2462
0.275135
0.349781
0.665941
2.77229
4.00607
3.5953
3.54597
3.84757
4.74614
4.87764
4.71648
0.0922899
0.0664625
0.0667271
0.067438
0.0689124
0.0717451
0.0762202
0.0852171
0.099068
0.120147
0.16539
0.201544
0.229885
0.24654
0.271185
0.333047
0.581189
2.2177
4.14047
3.62834
3.53007
3.75942
4.69775
4.83363
4.64207
0.0922873
0.0664614
0.0667261
0.0674367
0.0689107
0.0717455
0.0762256
0.0852314
0.0990985
0.120203
0.165493
0.201675
0.229738
0.2471
0.267094
0.316571
0.50078
1.61238
4.16179
3.69744
3.51621
3.64337
4.6189
4.76816
4.53601
0.0922887
0.0664625
0.0667271
0.0674379
0.0689119
0.0717453
0.0762248
0.0852309
0.0990886
0.120168
0.165444
0.201697
0.229562
0.247589
0.263336
0.302045
0.431929
1.11645
3.87958
3.83177
3.50714
3.50495
4.49391
4.67423
4.39185
0.0922923
0.0664653
0.0667301
0.0674414
0.0689168
0.0717482
0.0762248
0.0852266
0.0990694
0.120102
0.165351
0.201557
0.229462
0.247889
0.260098
0.290399
0.383375
0.802094
3.14448
4.01822
3.51065
3.35384
4.30674
4.53911
4.1967
0.0922891
0.0664632
0.0667279
0.0674388
0.0689134
0.071748
0.0762297
0.0852345
0.0990968
0.120173
0.165526
0.201605
0.229497
0.248053
0.257606
0.281126
0.347775
0.617186
2.11043
4.18217
3.55623
3.21365
4.03367
4.33876
3.91149
0.0922894
0.066464
0.0667289
0.06744
0.0689149
0.0717509
0.0762358
0.0852446
0.0991195
0.120192
0.165601
0.201558
0.22941
0.248288
0.255659
0.273157
0.320903
0.488619
1.29604
3.98861
3.71816
3.14463
3.66543
4.01701
3.57743
0.0922899
0.0664627
0.0667273
0.0674382
0.0689129
0.0717442
0.0762197
0.0852172
0.0990668
0.120137
0.165392
0.201387
0.230137
0.247368
0.283053
0.382263
0.86369
3.45399
3.79207
3.56568
3.57617
3.96109
4.78689
4.91539
4.80665
0.0922884
0.0664608
0.0667254
0.067436
0.0689099
0.0717437
0.0762173
0.0852089
0.0990662
0.120154
0.165442
0.20145
0.230231
0.247026
0.281664
0.376681
0.827403
3.3678
3.82793
3.56831
3.57144
3.94669
4.78518
4.91422
4.7958
0.0922886
0.0664618
0.0667264
0.067437
0.0689107
0.0717445
0.0762223
0.0852234
0.0990858
0.120177
0.165501
0.201523
0.230321
0.246267
0.278711
0.364868
0.752578
3.15295
3.89302
3.5766
3.56009
3.90993
4.77329
4.90264
4.76704
0.0922875
0.0664595
0.0667239
0.0674343
0.0689076
0.0717423
0.0762134
0.0851999
0.0990578
0.12016
0.165456
0.201536
0.230175
0.246231
0.275164
0.349813
0.666084
2.77295
4.00564
3.595
3.54572
3.84749
4.74589
4.87741
4.71658
0.0922885
0.0664616
0.0667262
0.0674367
0.0689102
0.0717438
0.0762206
0.0852208
0.0990794
0.120172
0.165465
0.201628
0.229984
0.246579
0.27122
0.333085
0.581409
2.21978
4.13938
3.62799
3.5298
3.75932
4.69747
4.83344
4.64221
0.0922879
0.0664596
0.066724
0.0674343
0.0689076
0.0717409
0.076211
0.0851969
0.0990457
0.120136
0.165377
0.201618
0.229702
0.247152
0.267168
0.316684
0.500969
1.61319
4.16158
3.69706
3.51593
3.64327
4.61861
4.76797
4.53615
0.0922895
0.0664619
0.0667265
0.0674372
0.0689116
0.0717435
0.0762172
0.0852111
0.0990577
0.120128
0.165347
0.201603
0.22947
0.247573
0.263344
0.302091
0.432033
1.11684
3.88027
3.83143
3.50685
3.50484
4.49362
4.67405
4.39194
0.0922875
0.0664595
0.066724
0.0674343
0.0689078
0.0717413
0.0762135
0.0852003
0.0990571
0.120131
0.165404
0.201564
0.229474
0.247885
0.260104
0.290426
0.383454
0.80241
3.14558
4.01775
3.51035
3.35373
4.30646
4.53889
4.19666
0.0922877
0.0664601
0.0667246
0.0674351
0.0689091
0.071745
0.0762201
0.0852074
0.0990734
0.120164
0.165497
0.201554
0.229465
0.248065
0.257636
0.281182
0.347855
0.617383
2.11139
4.18201
3.55586
3.2135
4.03347
4.33852
3.91135
0.0922873
0.0664592
0.0667236
0.0674339
0.0689074
0.0717435
0.0762164
0.0851971
0.0990671
0.120147
0.165533
0.201505
0.229398
0.248324
0.255716
0.273231
0.320987
0.488782
1.29672
3.98914
3.71764
3.14441
3.66532
4.01685
3.57727
0.0922872
0.0664591
0.0667235
0.0674337
0.0689071
0.0717411
0.076212
0.0851965
0.0990572
0.120155
0.16546
0.201481
0.230247
0.247475
0.283155
0.382372
0.863889
3.4542
3.79201
3.56567
3.57615
3.96109
4.78684
4.91532
4.80659
0.0922876
0.0664596
0.0667241
0.0674345
0.0689081
0.0717419
0.0762139
0.0852013
0.09906
0.120154
0.165443
0.20145
0.230242
0.247039
0.281687
0.376724
0.827518
3.36796
3.82792
3.56831
3.57144
3.94669
4.78513
4.91416
4.79575
0.0922873
0.066459
0.0667234
0.0674336
0.0689069
0.0717398
0.0762101
0.0851945
0.0990482
0.12014
0.16542
0.20144
0.230266
0.246219
0.278705
0.364952
0.752661
3.15301
3.89319
3.57663
3.56009
3.90994
4.77325
4.90258
4.76699
0.092289
0.0664609
0.0667254
0.0674359
0.0689097
0.0717419
0.0762124
0.0851995
0.0990466
0.120129
0.165391
0.201486
0.230144
0.246213
0.275157
0.349822
0.66609
2.77297
4.00574
3.59503
3.54572
3.8475
4.74585
4.87736
4.71654
0.0922875
0.0664589
0.0667233
0.0674334
0.0689064
0.0717401
0.0762093
0.0851921
0.0990442
0.120139
0.165403
0.20157
0.229937
0.24659
0.271241
0.333125
0.581432
2.21944
4.1397
3.62798
3.52979
3.75933
4.69743
4.8334
4.64218
0.0922864
0.0664595
0.066724
0.0674342
0.0689071
0.0717431
0.0762196
0.0852168
0.0990842
0.1202
0.165507
0.2017
0.229788
0.247145
0.267146
0.316638
0.500959
1.61373
4.1613
3.69694
3.5159
3.64326
4.61858
4.76793
4.53612
0.0922875
0.0664589
0.0667233
0.0674334
0.0689063
0.07174
0.0762095
0.0851925
0.0990433
0.120123
0.165369
0.201624
0.229523
0.2476
0.263365
0.302103
0.432041
1.11697
3.8801
3.83122
3.50679
3.50482
4.49358
4.67402
4.39192
0.0922897
0.0664622
0.0667269
0.0674377
0.0689123
0.0717442
0.0762191
0.0852145
0.099064
0.120118
0.165369
0.20153
0.229426
0.247846
0.260064
0.290383
0.38341
0.802386
3.14562
4.01762
3.51028
3.35371
4.30643
4.53886
4.19664
0.0922872
0.0664588
0.0667231
0.0674333
0.0689065
0.0717406
0.0762123
0.0851937
0.0990476
0.120123
0.165426
0.201483
0.229397
0.248008
0.257582
0.281131
0.347808
0.617344
2.11142
4.18189
3.55578
3.21348
4.03345
4.33849
3.91133
0.0922897
0.0664622
0.0667269
0.0674377
0.0689123
0.071746
0.0762221
0.0852133
0.0990703
0.120122
0.16546
0.201433
0.22931
0.248252
0.255643
0.27316
0.320922
0.488727
1.2967
3.98908
3.71756
3.14438
3.66529
4.01684
3.57726
0.0922871
0.0664586
0.0667229
0.0674331
0.0689061
0.0717395
0.0762089
0.0851909
0.0990455
0.120136
0.165428
0.201457
0.230233
0.247468
0.283154
0.382373
0.863923
3.45426
3.79191
3.56562
3.57611
3.96107
4.78679
4.91528
4.80656
0.0922871
0.0664586
0.0667229
0.0674331
0.0689061
0.0717396
0.0762089
0.0851907
0.0990451
0.120137
0.165427
0.20145
0.230255
0.247056
0.281705
0.376739
0.827543
3.36803
3.82783
3.56826
3.5714
3.94667
4.78508
4.91411
4.79572
0.0922871
0.0664586
0.0667229
0.0674331
0.0689061
0.0717396
0.0762088
0.0851905
0.0990446
0.120139
0.165424
0.201449
0.230279
0.24623
0.278712
0.364951
0.752665
3.15305
3.89311
3.57657
3.56004
3.90991
4.7732
4.90254
4.76696
0.0922871
0.0664586
0.066723
0.0674331
0.0689061
0.0717396
0.0762087
0.0851904
0.0990438
0.120141
0.165413
0.201487
0.230145
0.246205
0.275146
0.349809
0.666101
2.77306
4.00562
3.59497
3.54568
3.84747
4.7458
4.87731
4.7165
0.0922871
0.0664586
0.066723
0.0674331
0.0689061
0.0717395
0.0762085
0.0851906
0.0990427
0.120141
0.165394
0.201547
0.229921
0.246565
0.271221
0.333112
0.581441
2.21971
4.13951
3.62792
3.52974
3.75931
4.69738
4.83334
4.64214
0.0922871
0.0664586
0.066723
0.0674331
0.0689061
0.0717395
0.0762086
0.0851912
0.0990419
0.120137
0.165377
0.201601
0.229692
0.247132
0.267152
0.316672
0.500981
1.61346
4.16153
3.69692
3.51586
3.64325
4.61853
4.76788
4.53608
0.0922871
0.0664586
0.0667229
0.0674331
0.0689061
0.0717395
0.076209
0.0851919
0.0990425
0.120129
0.165369
0.201626
0.229516
0.247602
0.263373
0.302116
0.432062
1.11702
3.88026
3.83118
3.50676
3.50481
4.49353
4.67396
4.39187
0.0922871
0.0664586
0.0667229
0.0674331
0.0689061
0.0717399
0.0762098
0.0851917
0.0990466
0.120121
0.165399
0.20157
0.229483
0.247898
0.260115
0.290435
0.383465
0.80247
3.14576
4.01752
3.51024
3.3537
4.30638
4.5388
4.1966
0.0922871
0.0664586
0.0667229
0.0674331
0.0689062
0.071741
0.0762119
0.0851915
0.0990468
0.120127
0.165441
0.201521
0.229442
0.248058
0.25763
0.281175
0.347852
0.617402
2.11156
4.18183
3.55572
3.21345
4.03341
4.33844
3.91129
0.0922871
0.0664585
0.0667229
0.067433
0.0689062
0.0717416
0.0762127
0.0851906
0.0990533
0.120122
0.16549
0.201472
0.229367
0.248304
0.255698
0.273216
0.320975
0.488779
1.29681
3.98912
3.71746
3.14434
3.66526
4.0168
3.57721
0.0922869
0.0664582
0.0667225
0.0674325
0.0689053
0.0717385
0.0762078
0.0851892
0.0990432
0.12013
0.165421
0.201453
0.23023
0.247465
0.28315
0.382359
0.863834
3.45413
3.792
3.56565
3.57615
3.96108
4.78685
4.91531
4.80651
0.092287
0.0664582
0.0667225
0.0674326
0.0689053
0.0717387
0.0762077
0.085189
0.0990426
0.120131
0.165421
0.201447
0.230254
0.247055
0.281705
0.376729
0.827479
3.36789
3.8279
3.5683
3.57145
3.94672
4.78518
4.91411
4.79565
0.0922869
0.0664582
0.0667225
0.0674326
0.0689054
0.0717388
0.0762073
0.0851876
0.0990409
0.120135
0.165419
0.201447
0.230283
0.246236
0.278716
0.364945
0.752626
3.15295
3.89311
3.57663
3.56012
3.91001
4.77329
4.90254
4.76685
0.092287
0.0664582
0.0667226
0.0674326
0.0689055
0.0717389
0.0762074
0.0851879
0.0990403
0.120136
0.165408
0.201484
0.23015
0.246209
0.275148
0.349807
0.666078
2.77295
4.00563
3.59504
3.54579
3.8476
4.74589
4.87732
4.71628
0.092287
0.0664582
0.0667226
0.0674326
0.0689054
0.0717386
0.0762073
0.0851887
0.0990398
0.120134
0.165386
0.201544
0.229923
0.246566
0.271221
0.333107
0.581407
2.21941
4.13964
3.62803
3.52988
3.75945
4.69751
4.83332
4.64192
0.092287
0.0664583
0.0667227
0.0674327
0.0689056
0.0717388
0.0762076
0.0851895
0.0990397
0.120132
0.165371
0.201601
0.229695
0.247135
0.267154
0.316671
0.500956
1.61316
4.16168
3.69706
3.51599
3.64337
4.61867
4.76787
4.53593
0.0922869
0.0664582
0.0667226
0.0674326
0.0689054
0.0717387
0.0762081
0.0851904
0.0990413
0.120126
0.16537
0.20164
0.229527
0.247617
0.263386
0.302126
0.432059
1.11688
3.88023
3.83136
3.50688
3.50489
4.49366
4.674
4.39183
0.092287
0.0664583
0.0667227
0.0674328
0.0689057
0.0717397
0.0762093
0.0851901
0.0990465
0.120122
0.165405
0.201581
0.229499
0.247913
0.26013
0.290447
0.383469
0.802423
3.14554
4.01769
3.51036
3.35375
4.30647
4.53884
4.1966
0.0922871
0.0664585
0.0667229
0.067433
0.068906
0.071741
0.0762125
0.0851927
0.0990508
0.120131
0.165454
0.201538
0.229456
0.248068
0.257638
0.281181
0.347853
0.617377
2.11136
4.18195
3.55584
3.2135
4.03349
4.33849
3.91134
0.0922871
0.0664586
0.066723
0.0674331
0.0689062
0.0717415
0.0762135
0.0851928
0.0990571
0.120124
0.165492
0.201466
0.229353
0.248284
0.25568
0.273198
0.320958
0.48875
1.29667
3.98908
3.71761
3.14441
3.66534
4.01683
3.57726
0.0922871
0.0664586
0.066723
0.0674331
0.0689061
0.0717396
0.076209
0.0851911
0.0990459
0.120137
0.165429
0.201454
0.230236
0.247468
0.283154
0.382373
0.86392
3.45426
3.79192
3.56563
3.57612
3.96106
4.78679
4.91528
4.80656
0.0922871
0.0664586
0.066723
0.0674331
0.0689061
0.0717397
0.076209
0.0851909
0.0990455
0.120138
0.165428
0.20145
0.230255
0.247055
0.281705
0.376739
0.827542
3.36803
3.82784
3.56827
3.57141
3.94666
4.78508
4.91411
4.79572
0.0922871
0.0664586
0.066723
0.0674331
0.0689061
0.0717397
0.0762089
0.0851907
0.0990449
0.120139
0.165425
0.20145
0.23028
0.24623
0.278713
0.364952
0.752666
3.15306
3.89312
3.57658
3.56005
3.90991
4.7732
4.90254
4.76696
0.0922871
0.0664586
0.066723
0.0674331
0.0689061
0.0717397
0.0762088
0.0851906
0.0990443
0.120141
0.165414
0.201488
0.230145
0.246207
0.275148
0.349812
0.666105
2.77306
4.00564
3.59498
3.54569
3.84747
4.7458
4.87732
4.71651
0.0922871
0.0664586
0.066723
0.0674331
0.0689061
0.0717396
0.0762086
0.0851907
0.099043
0.120141
0.165395
0.20155
0.229923
0.246569
0.271226
0.333118
0.581447
2.21969
4.13956
3.62795
3.52976
3.75931
4.69739
4.83335
4.64215
0.0922871
0.0664586
0.066723
0.0674331
0.0689062
0.0717396
0.0762087
0.0851913
0.0990427
0.120138
0.165379
0.201607
0.229698
0.24714
0.26716
0.316682
0.50099
1.61343
4.16158
3.69695
3.51588
3.64326
4.61854
4.76789
4.5361
0.0922871
0.0664586
0.066723
0.0674331
0.0689061
0.0717396
0.0762092
0.0851922
0.0990437
0.120132
0.165376
0.201639
0.229528
0.247617
0.263387
0.30213
0.432075
1.11701
3.88027
3.83123
3.50678
3.50483
4.49355
4.67398
4.3919
0.0922871
0.0664587
0.066723
0.0674332
0.0689062
0.0717403
0.0762104
0.0851924
0.099049
0.120126
0.165409
0.201582
0.229498
0.247913
0.26013
0.290449
0.383476
0.802468
3.14572
4.01757
3.51026
3.35371
4.3064
4.53882
4.19662
0.0922872
0.0664588
0.0667232
0.0674334
0.0689066
0.0717419
0.0762135
0.0851941
0.099053
0.120137
0.165463
0.201542
0.229463
0.248074
0.257644
0.281188
0.34786
0.617399
2.1115
4.18187
3.55575
3.21347
4.03343
4.33846
3.91131
0.0922872
0.0664589
0.0667233
0.0674335
0.0689067
0.0717423
0.0762144
0.0851939
0.0990594
0.120131
0.165504
0.201474
0.229365
0.248296
0.25569
0.273207
0.320966
0.488768
1.29677
3.98911
3.7175
3.14435
3.66527
4.01681
3.57723
0.0922871
0.0664586
0.0667229
0.0674331
0.0689061
0.0717395
0.0762089
0.0851909
0.0990455
0.120136
0.165428
0.201457
0.230233
0.247468
0.283154
0.382373
0.863923
3.45426
3.79191
3.56562
3.57611
3.96107
4.78679
4.91528
4.80656
0.0922871
0.0664586
0.0667229
0.0674331
0.0689061
0.0717396
0.0762089
0.0851907
0.0990451
0.120137
0.165427
0.20145
0.230255
0.247056
0.281705
0.376739
0.827543
3.36803
3.82783
3.56826
3.5714
3.94667
4.78508
4.91411
4.79572
0.0922871
0.0664586
0.0667229
0.0674331
0.0689061
0.0717396
0.0762088
0.0851905
0.0990446
0.120139
0.165424
0.201449
0.230279
0.24623
0.278712
0.364951
0.752665
3.15306
3.89311
3.57657
3.56004
3.90991
4.7732
4.90254
4.76696
0.0922871
0.0664586
0.066723
0.0674331
0.0689061
0.0717396
0.0762087
0.0851904
0.0990438
0.120141
0.165413
0.201487
0.230145
0.246205
0.275146
0.34981
0.666102
2.77306
4.00562
3.59497
3.54568
3.84747
4.7458
4.87731
4.7165
0.0922871
0.0664586
0.066723
0.0674331
0.0689061
0.0717395
0.0762085
0.0851906
0.0990427
0.120141
0.165394
0.201547
0.229921
0.246565
0.271222
0.333112
0.581441
2.21971
4.13951
3.62792
3.52974
3.75931
4.69738
4.83334
4.64214
0.0922871
0.0664586
0.066723
0.0674331
0.0689061
0.0717395
0.0762086
0.0851912
0.0990419
0.120137
0.165377
0.201601
0.229692
0.247132
0.267152
0.316672
0.500981
1.61346
4.16153
3.69692
3.51586
3.64325
4.61853
4.76788
4.53608
0.0922871
0.0664586
0.0667229
0.0674331
0.0689061
0.0717395
0.076209
0.0851919
0.0990425
0.120129
0.165369
0.201626
0.229516
0.247602
0.263373
0.302116
0.432062
1.11702
3.88026
3.83118
3.50676
3.50481
4.49353
4.67396
4.39188
0.0922871
0.0664586
0.0667229
0.0674331
0.0689061
0.0717399
0.0762098
0.0851917
0.0990466
0.120121
0.165399
0.20157
0.229483
0.247898
0.260115
0.290435
0.383465
0.80247
3.14576
4.01752
3.51024
3.3537
4.30638
4.5388
4.1966
0.0922871
0.0664586
0.0667229
0.0674331
0.0689062
0.071741
0.0762119
0.0851915
0.0990468
0.120127
0.165441
0.201521
0.229442
0.248058
0.25763
0.281175
0.347852
0.617402
2.11156
4.18183
3.55572
3.21345
4.03341
4.33844
3.91129
0.0922871
0.0664585
0.0667229
0.067433
0.0689062
0.0717416
0.0762127
0.0851906
0.0990533
0.120122
0.165491
0.201472
0.229367
0.248304
0.255699
0.273216
0.320975
0.48878
1.29681
3.98912
3.71746
3.14434
3.66526
4.0168
3.57721
0.0922872
0.0664591
0.0667235
0.0674337
0.0689071
0.0717411
0.076212
0.0851965
0.0990572
0.120155
0.16546
0.201481
0.230247
0.247475
0.283155
0.382372
0.863889
3.4542
3.79201
3.56567
3.57615
3.96109
4.78684
4.91532
4.80659
0.0922876
0.0664596
0.0667241
0.0674345
0.0689081
0.0717419
0.0762139
0.0852013
0.09906
0.120154
0.165443
0.20145
0.230242
0.247039
0.281687
0.376724
0.827518
3.36796
3.82792
3.56831
3.57144
3.94669
4.78513
4.91416
4.79575
0.0922873
0.066459
0.0667234
0.0674336
0.0689069
0.0717398
0.0762101
0.0851945
0.0990482
0.12014
0.16542
0.20144
0.230266
0.246219
0.278705
0.364952
0.752661
3.15301
3.89319
3.57663
3.56009
3.90994
4.77325
4.90258
4.76699
0.092289
0.0664609
0.0667254
0.0674359
0.0689097
0.0717419
0.0762124
0.0851995
0.0990466
0.120129
0.165391
0.201486
0.230144
0.246213
0.275157
0.349822
0.66609
2.77297
4.00574
3.59503
3.54572
3.8475
4.74585
4.87736
4.71654
0.0922875
0.0664589
0.0667233
0.0674334
0.0689064
0.0717401
0.0762093
0.0851921
0.0990442
0.120139
0.165403
0.20157
0.229937
0.24659
0.271241
0.333125
0.581432
2.21944
4.1397
3.62798
3.52979
3.75933
4.69743
4.8334
4.64218
0.0922864
0.0664595
0.066724
0.0674342
0.0689071
0.0717431
0.0762196
0.0852168
0.0990842
0.1202
0.165507
0.2017
0.229788
0.247145
0.267146
0.316638
0.500959
1.61373
4.1613
3.69694
3.5159
3.64326
4.61858
4.76793
4.53612
0.0922875
0.0664589
0.0667233
0.0674334
0.0689063
0.07174
0.0762095
0.0851925
0.0990433
0.120123
0.165369
0.201624
0.229523
0.2476
0.263365
0.302103
0.432041
1.11697
3.8801
3.83122
3.50679
3.50482
4.49358
4.67402
4.39192
0.0922897
0.0664622
0.0667269
0.0674377
0.0689123
0.0717442
0.0762191
0.0852145
0.099064
0.120118
0.165369
0.20153
0.229426
0.247846
0.260064
0.290383
0.38341
0.802386
3.14562
4.01762
3.51028
3.35371
4.30643
4.53886
4.19664
0.0922872
0.0664588
0.0667231
0.0674333
0.0689065
0.0717406
0.0762123
0.0851937
0.0990476
0.120123
0.165426
0.201483
0.229397
0.248008
0.257582
0.281131
0.347808
0.617344
2.11142
4.18189
3.55578
3.21348
4.03345
4.33849
3.91133
0.0922897
0.0664622
0.0667269
0.0674377
0.0689123
0.071746
0.0762221
0.0852133
0.0990703
0.120122
0.16546
0.201433
0.22931
0.248252
0.255643
0.27316
0.320922
0.488727
1.2967
3.98908
3.71756
3.14438
3.66529
4.01684
3.57726
0.0922899
0.0664627
0.0667273
0.0674382
0.0689129
0.0717442
0.0762197
0.0852172
0.0990668
0.120137
0.165392
0.201387
0.230137
0.247368
0.283053
0.382262
0.863689
3.45399
3.79207
3.56568
3.57617
3.96109
4.78689
4.91539
4.80665
0.0922884
0.0664608
0.0667254
0.067436
0.0689099
0.0717437
0.0762173
0.0852089
0.0990662
0.120154
0.165442
0.20145
0.230231
0.247026
0.281664
0.376681
0.827403
3.3678
3.82793
3.56831
3.57144
3.94669
4.78518
4.91422
4.7958
0.0922886
0.0664618
0.0667264
0.067437
0.0689107
0.0717445
0.0762223
0.0852234
0.0990858
0.120177
0.165501
0.201523
0.230321
0.246267
0.278711
0.364868
0.752578
3.15295
3.89302
3.5766
3.56009
3.90993
4.77329
4.90264
4.76704
0.0922875
0.0664595
0.0667239
0.0674343
0.0689076
0.0717423
0.0762134
0.0851999
0.0990579
0.12016
0.165456
0.201537
0.230175
0.246231
0.275164
0.349813
0.666083
2.77295
4.00564
3.595
3.54572
3.84749
4.74589
4.87741
4.71658
0.0922885
0.0664616
0.0667262
0.0674367
0.0689102
0.0717438
0.0762206
0.0852208
0.0990794
0.120172
0.165465
0.201628
0.229984
0.246579
0.27122
0.333085
0.581409
2.21977
4.13938
3.62799
3.52981
3.75932
4.69747
4.83344
4.64221
0.0922879
0.0664596
0.066724
0.0674343
0.0689076
0.0717409
0.076211
0.0851969
0.0990457
0.120135
0.165376
0.201618
0.229702
0.247152
0.267168
0.316684
0.500969
1.61319
4.16158
3.69706
3.51593
3.64327
4.61861
4.76797
4.53615
0.0922895
0.0664619
0.0667265
0.0674372
0.0689115
0.0717435
0.0762172
0.0852111
0.0990577
0.120128
0.165347
0.201603
0.22947
0.247573
0.263344
0.302091
0.432033
1.11684
3.88027
3.83143
3.50685
3.50484
4.49362
4.67405
4.39194
0.0922875
0.0664595
0.066724
0.0674343
0.0689078
0.0717413
0.0762135
0.0852003
0.0990571
0.120131
0.165404
0.201564
0.229474
0.247885
0.260104
0.290426
0.383453
0.80241
3.14558
4.01775
3.51035
3.35373
4.30646
4.53889
4.19666
0.0922877
0.0664601
0.0667246
0.0674351
0.0689091
0.071745
0.0762201
0.0852074
0.0990733
0.120164
0.165497
0.201554
0.229465
0.248065
0.257636
0.281182
0.347854
0.617383
2.11139
4.18201
3.55586
3.2135
4.03347
4.33852
3.91135
0.0922873
0.0664592
0.0667236
0.0674339
0.0689074
0.0717434
0.0762164
0.085197
0.099067
0.120147
0.165533
0.201505
0.229398
0.248324
0.255716
0.273231
0.320987
0.488782
1.29672
3.98914
3.71764
3.14441
3.66531
4.01685
3.57727
0.0922874
0.06646
0.0667245
0.067435
0.0689088
0.0717427
0.0762162
0.0852061
0.0990701
0.120168
0.165471
0.201488
0.230244
0.247466
0.283139
0.382325
0.863515
3.4535
3.79245
3.56597
3.57643
3.96122
4.78713
4.91558
4.80648
0.0922889
0.0664611
0.0667257
0.0674363
0.0689103
0.0717431
0.0762161
0.0852064
0.099064
0.12015
0.165448
0.201495
0.230279
0.247072
0.281713
0.376731
0.827229
3.36717
3.82845
3.56856
3.57169
3.94682
4.78548
4.91438
4.79564
0.0922878
0.0664603
0.0667249
0.0674354
0.0689093
0.071744
0.076218
0.0852093
0.0990727
0.120171
0.165471
0.201484
0.230282
0.246223
0.278694
0.36491
0.752373
3.15223
3.89355
3.57687
3.56034
3.91002
4.77357
4.90283
4.76698
0.0922868
0.0664604
0.066725
0.0674354
0.0689088
0.0717439
0.0762242
0.0852286
0.0991014
0.120209
0.165538
0.201571
0.230207
0.246187
0.275106
0.349726
0.665898
2.77229
4.00589
3.59531
3.546
3.84756
4.74618
4.87768
4.71649
0.0922894
0.0664618
0.0667264
0.0674371
0.0689114
0.0717429
0.0762152
0.0852078
0.0990529
0.120126
0.165361
0.201547
0.229888
0.246557
0.271199
0.333061
0.581206
2.21776
4.14035
3.62838
3.5301
3.75943
4.69781
4.83368
4.64209
0.0922916
0.0664644
0.0667292
0.0674403
0.0689153
0.0717462
0.0762217
0.0852222
0.0990636
0.120123
0.165337
0.201596
0.229649
0.247116
0.267123
0.316612
0.500742
1.61142
4.16233
3.69757
3.51622
3.6434
4.61895
4.76818
4.53603
0.0922869
0.0664605
0.066725
0.0674355
0.0689089
0.0717433
0.0762217
0.0852242
0.0990849
0.120176
0.165454
0.201679
0.229532
0.247552
0.2633
0.302011
0.431883
1.11627
3.87961
3.83184
3.50716
3.50497
4.49393
4.67425
4.39187
0.0922896
0.0664641
0.0667289
0.0674399
0.0689148
0.0717487
0.0762328
0.0852467
0.0991111
0.120178
0.165478
0.201602
0.229466
0.247815
0.260014
0.290308
0.383306
0.802098
3.1445
4.01798
3.51065
3.35385
4.30674
4.53911
4.19671
0.0922896
0.0664619
0.0667266
0.0674373
0.0689114
0.0717449
0.076219
0.0852087
0.0990554
0.120108
0.165406
0.201492
0.229407
0.248013
0.257577
0.281112
0.347754
0.617144
2.1104
4.18209
3.5562
3.21365
4.03366
4.33876
3.91149
0.0922911
0.0664652
0.0667301
0.0674412
0.0689164
0.0717491
0.0762341
0.0852447
0.0991077
0.120144
0.165506
0.201498
0.22934
0.248235
0.255611
0.273114
0.320869
0.488588
1.29599
3.98856
3.71815
3.14463
3.66542
4.01701
3.57743
0.092291
0.066465
0.0667299
0.0674413
0.068917
0.0717522
0.0762338
0.0852368
0.0991256
0.120147
0.165597
0.201358
0.229564
0.247786
0.255494
0.269312
0.303355
0.409104
0.851884
2.9708
3.92074
3.13198
3.31771
3.40674
2.88315
0.0922895
0.0664646
0.0667295
0.0674407
0.0689159
0.0717504
0.076235
0.085247
0.0991599
0.120172
0.165692
0.20143
0.229669
0.247942
0.255269
0.266282
0.291456
0.363288
0.631446
1.763
3.94171
3.1413
3.01288
2.94112
2.55721
0.0922911
0.0664657
0.0667306
0.0674422
0.0689184
0.07175
0.0762319
0.085243
0.0991347
0.120125
0.165589
0.201363
0.229579
0.248096
0.255358
0.265153
0.283672
0.333377
0.498041
1.11794
3.44844
3.18395
2.89959
2.74731
2.45525
0.0922928
0.0664671
0.0667322
0.0674439
0.0689203
0.0717507
0.0762329
0.0852458
0.09913
0.120102
0.16554
0.201356
0.229477
0.248204
0.255118
0.264578
0.279642
0.315157
0.418587
0.74883
2.00205
3.14917
2.88826
2.66244
2.4495
0.09229
0.0664653
0.0667302
0.0674415
0.0689169
0.0717502
0.0762353
0.0852511
0.0991569
0.120154
0.165655
0.201476
0.229533
0.248316
0.254891
0.264948
0.279795
0.31107
0.378842
0.553377
1.15399
2.83844
2.83133
2.67208
2.45763
0.0922904
0.0664657
0.0667307
0.067442
0.0689173
0.0717523
0.0762381
0.0852542
0.0991676
0.120162
0.165673
0.201504
0.229558
0.248334
0.254949
0.264563
0.280177
0.313529
0.354117
0.447097
0.725024
1.75612
2.63321
2.62995
2.51574
0.0922915
0.0664663
0.0667313
0.0674427
0.068918
0.0717513
0.0762344
0.085247
0.0991526
0.120128
0.165632
0.201519
0.229581
0.248394
0.254937
0.264821
0.279931
0.312217
0.355272
0.401953
0.518904
0.893015
1.92173
2.468
2.47876
0.0922919
0.066467
0.0667321
0.0674436
0.0689192
0.0717524
0.0762368
0.0852527
0.0991571
0.120131
0.165624
0.2015
0.229555
0.248371
0.254924
0.264714
0.279959
0.312514
0.354856
0.39028
0.444373
0.582385
0.978425
1.89445
2.32648
0.0922907
0.0664661
0.0667311
0.0674425
0.0689181
0.0717517
0.0762382
0.0852574
0.0991629
0.120149
0.165641
0.20147
0.229517
0.248321
0.254882
0.264708
0.279914
0.312368
0.355084
0.389684
0.428841
0.484952
0.622872
0.978079
1.75528
0.0922919
0.0664675
0.0667325
0.0674442
0.0689202
0.0717525
0.0762385
0.085258
0.0991611
0.120138
0.165619
0.201463
0.229502
0.248315
0.254875
0.264697
0.279912
0.312394
0.355026
0.38965
0.4279
0.471084
0.526149
0.643609
0.91383
0.0922935
0.0664682
0.0667333
0.0674453
0.0689221
0.0717533
0.0762367
0.0852516
0.0991412
0.120109
0.16555
0.20139
0.229452
0.248304
0.254897
0.26472
0.279911
0.312382
0.354964
0.38972
0.427657
0.470095
0.517228
0.573404
0.662391
0.0922904
0.0664665
0.0667315
0.0674431
0.0689191
0.071753
0.0762421
0.085266
0.0991739
0.12018
0.165684
0.201475
0.229503
0.248295
0.254861
0.264689
0.279912
0.312404
0.354964
0.389732
0.427637
0.470002
0.516226
0.565638
0.620477
0.0922904
0.0664663
0.0667313
0.0674429
0.0689188
0.0717526
0.076241
0.0852635
0.0991704
0.120174
0.165676
0.201475
0.229508
0.248305
0.254873
0.264701
0.279924
0.312418
0.354969
0.389746
0.427628
0.470013
0.516097
0.564818
0.615467
0.0922934
0.0664679
0.066733
0.0674449
0.0689215
0.0717532
0.0762357
0.0852488
0.0991408
0.120112
0.165566
0.201429
0.229501
0.248362
0.254952
0.26477
0.279956
0.312415
0.354974
0.389757
0.427632
0.470018
0.516082
0.564725
0.614895
0.0922914
0.0664666
0.0667316
0.0674431
0.0689187
0.0717515
0.0762356
0.0852503
0.0991585
0.120145
0.165655
0.201532
0.229587
0.2484
0.25495
0.264763
0.279972
0.312439
0.354986
0.389762
0.427635
0.470022
0.516081
0.564715
0.614825
0.0922905
0.0664661
0.0667311
0.0674426
0.0689181
0.0717538
0.0762408
0.0852589
0.099176
0.120176
0.1657
0.201539
0.229587
0.248382
0.254935
0.264755
0.279961
0.312416
0.354977
0.389757
0.427631
0.470019
0.516078
0.564711
0.614813
0.0922906
0.0664663
0.0667313
0.0674428
0.0689184
0.0717535
0.0762407
0.08526
0.0991744
0.120171
0.165683
0.201508
0.229549
0.248344
0.254902
0.264727
0.27994
0.312413
0.354972
0.389753
0.427628
0.470017
0.516076
0.564709
0.61481
0.0922919
0.0664676
0.0667327
0.0674443
0.0689205
0.071753
0.0762402
0.0852621
0.0991662
0.12015
0.165639
0.201481
0.229521
0.248334
0.254892
0.264712
0.279932
0.312424
0.354973
0.389752
0.427627
0.470016
0.516076
0.564709
0.614809
0.0922936
0.0664681
0.0667331
0.067445
0.0689218
0.0717517
0.0762339
0.0852476
0.0991311
0.120091
0.165519
0.201369
0.22944
0.248307
0.254907
0.264729
0.279926
0.312414
0.354969
0.389753
0.427628
0.470017
0.516076
0.564709
0.614809
0.0922924
0.0664685
0.0667336
0.0674455
0.0689221
0.0717544
0.0762436
0.0852706
0.099172
0.120152
0.165631
0.201462
0.229496
0.248307
0.254867
0.26469
0.279913
0.312415
0.354965
0.389746
0.427624
0.470014
0.516075
0.564708
0.614809
0.0922902
0.0664654
0.0667304
0.0674417
0.0689168
0.0717518
0.0762369
0.0852511
0.0991653
0.120164
0.165684
0.201521
0.229571
0.248367
0.25492
0.264741
0.279951
0.312417
0.354974
0.389753
0.427627
0.470016
0.516076
0.564709
0.614809
0.0922926
0.0664687
0.0667339
0.0674459
0.0689224
0.0717565
0.0762455
0.0852704
0.0991837
0.120166
0.165671
0.201521
0.229555
0.248356
0.254902
0.264719
0.279928
0.312396
0.354958
0.389743
0.42762
0.470011
0.516072
0.564706
0.614808
0.0922902
0.0664655
0.0667304
0.0674417
0.0689169
0.0717519
0.0762371
0.0852514
0.099166
0.120164
0.165684
0.20152
0.229569
0.248364
0.254918
0.264739
0.279949
0.312414
0.354972
0.389752
0.427627
0.470016
0.516075
0.564708
0.614809
0.0922925
0.0664688
0.066734
0.067446
0.0689228
0.0717553
0.0762457
0.0852751
0.0991781
0.120163
0.165647
0.201472
0.229502
0.248309
0.254866
0.264686
0.279909
0.31241
0.35496
0.389742
0.427619
0.470011
0.516072
0.564706
0.614808
0.0922936
0.0664681
0.0667331
0.067445
0.0689217
0.0717513
0.0762332
0.0852462
0.0991285
0.120085
0.165506
0.201347
0.229417
0.248283
0.254886
0.264712
0.279912
0.312407
0.354963
0.389748
0.427624
0.470013
0.516073
0.564707
0.614808
0.0922924
0.0664688
0.066734
0.0674459
0.0689228
0.0717551
0.0762453
0.0852743
0.0991773
0.120161
0.165642
0.201464
0.229493
0.248298
0.254857
0.26468
0.279905
0.31241
0.354958
0.389741
0.427618
0.47001
0.51607
0.564705
0.614806
0.0922902
0.0664655
0.0667304
0.0674417
0.0689168
0.0717517
0.0762369
0.0852518
0.0991638
0.120159
0.165673
0.201505
0.229553
0.248351
0.254906
0.264727
0.279939
0.312411
0.354967
0.389747
0.427622
0.470012
0.516071
0.564705
0.614806
0.0922925
0.0664685
0.0667336
0.0674455
0.0689218
0.0717556
0.0762435
0.0852663
0.0991765
0.120156
0.165655
0.201509
0.229546
0.248351
0.254898
0.264716
0.279927
0.312402
0.35496
0.389742
0.427619
0.470009
0.516069
0.564703
0.614805
0.0922901
0.0664652
0.0667301
0.0674414
0.0689164
0.0717511
0.0762358
0.0852497
0.0991627
0.120157
0.165673
0.201519
0.229573
0.248372
0.254925
0.264744
0.279952
0.312416
0.354971
0.389749
0.427624
0.470012
0.516071
0.564705
0.614806
0.0922919
0.0664675
0.0667326
0.0674442
0.0689203
0.071753
0.0762392
0.0852591
0.0991642
0.120145