/*--------------------------------*- C++ -*----------------------------------*\
| =========                 |                                                 |
| \\      /  F ield         | OpenFOAM: The Open Source CFD Toolbox           |
|  \\    /   O peration     | Version:  4.1                                   |
|   \\  /    A nd           | Web:      www.OpenFOAM.org                      |
|    \\/     M anipulation  |                                                 |
\*---------------------------------------------------------------------------*/
FoamFile
{
    version     2.0;
    format      ascii;
    class       volScalarField;
    location    "0.06";
    object      Ma;
}
// * * * * * * * * * * * * * * * * * * * * * * * * * * * * * * * * * * * * * //

dimensions      [0 0 0 0 0 0 0];

internalField   nonuniform List<scalar> 
18000
(
5.92139e-12
5.85173e-12
5.77257e-12
5.70466e-12
5.63772e-12
5.57173e-12
5.50666e-12
5.44252e-12
5.37925e-12
5.3173e-12
7.48069e-12
7.20466e-12
6.93171e-12
6.67935e-12
6.43825e-12
6.20771e-12
5.9873e-12
5.77637e-12
5.57452e-12
5.38249e-12
9.57954e-12
8.96544e-12
8.39128e-12
7.86757e-12
7.38353e-12
6.93556e-12
6.52068e-12
6.13591e-12
5.77879e-12
5.44874e-12
1.24523e-11
1.12877e-11
1.02479e-11
9.32701e-12
8.50578e-12
7.77168e-12
7.11401e-12
6.52361e-12
5.99245e-12
5.5161e-12
1.64576e-11
1.43943e-11
1.26349e-11
1.11334e-11
9.84514e-12
8.73528e-12
7.7753e-12
6.942e-12
6.21602e-12
5.58465e-12
2.21583e-11
1.86161e-11
1.57398e-11
1.33881e-11
1.14529e-11
9.84986e-12
8.51385e-12
7.39396e-12
6.45006e-12
5.65431e-12
3.04622e-11
2.44548e-11
1.98305e-11
1.6228e-11
1.33946e-11
1.11442e-11
9.34048e-12
7.8827e-12
6.6951e-12
5.72512e-12
4.28809e-11
3.26873e-11
2.52959e-11
1.98398e-11
1.57549e-11
1.26532e-11
1.02679e-11
8.41178e-12
6.95178e-12
5.79717e-12
4.62335e-10
4.35062e-10
4.04907e-10
3.7882e-10
3.55972e-10
3.35765e-10
3.17749e-10
3.01577e-10
2.86977e-10
2.74105e-10
6.48565e-08
1.94461e-08
1.65948e-08
1.43087e-08
1.24403e-08
1.08934e-08
9.59809e-09
8.50245e-09
7.56488e-09
2.47312e-09
5.9565e-12
5.88439e-12
5.80614e-12
5.73666e-12
5.66837e-12
5.6012e-12
5.53502e-12
5.47001e-12
5.40597e-12
5.34321e-12
7.53733e-12
7.25404e-12
6.98383e-12
6.72636e-12
6.48082e-12
6.24643e-12
6.02277e-12
5.80911e-12
5.60498e-12
5.40975e-12
9.65731e-12
9.03199e-12
8.46341e-12
7.93086e-12
7.43935e-12
6.98508e-12
6.56491e-12
6.17564e-12
5.81477e-12
5.47813e-12
1.25659e-11
1.13862e-11
1.03527e-11
9.4163e-12
8.58237e-12
7.83778e-12
7.17147e-12
6.57395e-12
6.03673e-12
5.54863e-12
1.66297e-11
1.45473e-11
1.27902e-11
1.12617e-11
9.95205e-12
8.82492e-12
7.85114e-12
7.00665e-12
6.27148e-12
5.62131e-12
2.24275e-11
1.8861e-11
1.59733e-11
1.35744e-11
1.16032e-11
9.97223e-12
8.61452e-12
7.47756e-12
6.51996e-12
5.69626e-12
3.08953e-11
2.48541e-11
2.01847e-11
1.65e-11
1.36064e-11
1.13112e-11
9.47388e-12
7.99056e-12
6.78294e-12
5.77361e-12
4.35977e-11
3.3347e-11
2.58378e-11
2.02383e-11
1.60534e-11
1.28807e-11
1.0444e-11
8.55011e-12
7.06158e-12
5.85339e-12
6.38617e-11
4.57768e-11
3.36857e-11
2.52125e-11
1.92105e-11
1.48732e-11
1.16825e-11
9.29734e-12
7.48742e-12
6.06364e-12
2.57947e-08
4.96462e-09
4.26618e-09
3.70583e-09
3.24975e-09
2.87354e-09
2.55957e-09
2.29483e-09
2.06957e-09
1.88266e-09
3.90533e-13
3.64676e-13
1.7555e-13
1.54227e-13
1.34056e-13
1.15172e-13
9.77323e-14
8.19533e-14
6.82032e-14
4.4917e-14
5.36817e-13
4.62864e-13
3.88793e-13
3.37776e-13
2.9134e-13
2.49603e-13
2.12821e-13
1.81456e-13
1.5589e-13
8.40984e-14
6.00852e-13
4.92327e-13
5.27105e-13
4.57331e-13
3.97122e-13
3.46027e-13
3.03507e-13
2.69113e-13
2.41651e-13
1.23935e-13
7.35461e-13
6.39077e-13
7.64692e-13
6.591e-13
5.70613e-13
4.97114e-13
4.36463e-13
3.86925e-13
3.45836e-13
1.74637e-13
9.65798e-13
9.49808e-13
1.11272e-12
9.42716e-13
8.03771e-13
6.90447e-13
5.97882e-13
5.22298e-13
4.59128e-13
2.28331e-13
1.35457e-12
1.49268e-12
1.61538e-12
1.33395e-12
1.11066e-12
9.32995e-13
7.90727e-13
6.76219e-13
5.81782e-13
2.84949e-13
2.00003e-12
2.37298e-12
2.34101e-12
1.87113e-12
1.51201e-12
1.23528e-12
1.0198e-12
8.50561e-13
7.14333e-13
3.44477e-13
3.06744e-12
3.77338e-12
3.39493e-12
2.61028e-12
2.03657e-12
1.61129e-12
1.29145e-12
1.04783e-12
8.57547e-13
4.07019e-13
1.22294e-11
6.00751e-12
4.93837e-12
3.63075e-12
2.72215e-12
2.07812e-12
1.6126e-12
1.27038e-12
1.01205e-12
4.72657e-13
2.59412e-08
4.80563e-11
2.76696e-11
2.07298e-11
1.58503e-11
1.23334e-11
9.74556e-12
7.80618e-12
6.32832e-12
5.08839e-12
3.88891e-13
3.62801e-13
1.72571e-13
1.51068e-13
1.3067e-13
1.11502e-13
9.36491e-14
7.73265e-14
6.28611e-14
3.66986e-14
5.34723e-13
4.60571e-13
3.86711e-13
3.3567e-13
2.89166e-13
2.47368e-13
2.10498e-13
1.78984e-13
1.53246e-13
7.96055e-14
5.97192e-13
4.8859e-13
5.24525e-13
4.54842e-13
3.94756e-13
3.43744e-13
3.01287e-13
2.66981e-13
2.39574e-13
1.20396e-13
7.29115e-13
6.33637e-13
7.61603e-13
6.5634e-13
5.68105e-13
4.94842e-13
4.34387e-13
3.85021e-13
3.44081e-13
1.71748e-13
9.54746e-13
9.42543e-13
1.10894e-12
9.39595e-13
8.01138e-13
6.88222e-13
5.95962e-13
5.20611e-13
4.57674e-13
2.25844e-13
1.3354e-12
1.48333e-12
1.61086e-12
1.33054e-12
1.10807e-12
9.30985e-13
7.89107e-13
6.74906e-13
5.80717e-13
2.82854e-13
1.96679e-12
2.36091e-12
2.33581e-12
1.86777e-12
1.50981e-12
1.23382e-12
1.01882e-12
8.49908e-13
7.13909e-13
3.42863e-13
3.00845e-12
3.75771e-12
3.38942e-12
2.60767e-12
2.03546e-12
1.61103e-12
1.29162e-12
1.0482e-12
8.58056e-13
4.0611e-13
1.22754e-11
5.99175e-12
4.93588e-12
3.63158e-12
2.72425e-12
2.08057e-12
1.61501e-12
1.27257e-12
1.01392e-12
4.7262e-13
2.66803e-08
3.20763e-11
7.11957e-12
5.00097e-12
3.60917e-12
2.66207e-12
2.00186e-12
1.53176e-12
1.18734e-12
5.48977e-13
3.88986e-13
3.6257e-13
1.73036e-13
1.51448e-13
1.30999e-13
1.11775e-13
9.38961e-14
7.75362e-14
6.30066e-14
3.67952e-14
5.35371e-13
4.61002e-13
3.87719e-13
3.36519e-13
2.89885e-13
2.47967e-13
2.10988e-13
1.79392e-13
1.53544e-13
7.9804e-14
5.98619e-13
4.90016e-13
5.26325e-13
4.56335e-13
3.95963e-13
3.4474e-13
3.02056e-13
2.67543e-13
2.39962e-13
1.2065e-13
7.32079e-13
6.36843e-13
7.64538e-13
6.58746e-13
5.70031e-13
4.96377e-13
4.35613e-13
3.85956e-13
3.44755e-13
1.7217e-13
9.60565e-13
9.48509e-13
1.11386e-12
9.43521e-13
8.0427e-13
6.90684e-13
5.97895e-13
5.22134e-13
4.58838e-13
2.26661e-13
1.34648e-12
1.49385e-12
1.61919e-12
1.33708e-12
1.11317e-12
9.35007e-13
7.92302e-13
6.77429e-13
5.82698e-13
2.84238e-13
1.98755e-12
2.37948e-12
2.35014e-12
1.87869e-12
1.51824e-12
1.24036e-12
1.02394e-12
8.53924e-13
7.17112e-13
3.45151e-13
3.04742e-12
3.79089e-12
3.41411e-12
2.62595e-12
2.04922e-12
1.62152e-12
1.29969e-12
1.05449e-12
8.62991e-13
4.09583e-13
1.23338e-11
6.05176e-12
4.97863e-12
3.66211e-12
2.74646e-12
2.09704e-12
1.62742e-12
1.28207e-12
1.02128e-12
4.77667e-13
2.66777e-08
3.21934e-11
7.18631e-12
5.04718e-12
3.64195e-12
2.68582e-12
2.01935e-12
1.54485e-12
1.19731e-12
5.55633e-13
3.89068e-13
3.62245e-13
1.73639e-13
1.51951e-13
1.31403e-13
1.12128e-13
9.41857e-14
7.77943e-14
6.32096e-14
3.69166e-14
5.36191e-13
4.61544e-13
3.89005e-13
3.37621e-13
2.90809e-13
2.48735e-13
2.11627e-13
1.79895e-13
1.53926e-13
8.00772e-14
6.00452e-13
4.91852e-13
5.28608e-13
4.58241e-13
3.97533e-13
3.45984e-13
3.03059e-13
2.68283e-13
2.40466e-13
1.20975e-13
7.359e-13
6.40984e-13
7.68342e-13
6.61816e-13
5.72531e-13
4.98349e-13
4.37137e-13
3.8713e-13
3.45605e-13
1.72759e-13
9.68096e-13
9.56205e-13
1.12019e-12
9.48538e-13
8.08276e-13
6.93877e-13
6.004e-13
5.24077e-13
4.60345e-13
2.27736e-13
1.36079e-12
1.50746e-12
1.62993e-12
1.34545e-12
1.11974e-12
9.40184e-13
7.96391e-13
6.80649e-13
5.8525e-13
2.86049e-13
2.01439e-12
2.40346e-12
2.36856e-12
1.89275e-12
1.52906e-12
1.2488e-12
1.03054e-12
8.59117e-13
7.21216e-13
3.48054e-13
3.09786e-12
3.83378e-12
3.44594e-12
2.64953e-12
2.06694e-12
1.63499e-12
1.31007e-12
1.06257e-12
8.69337e-13
4.14002e-13
1.24255e-11
6.12937e-12
5.03378e-12
3.70143e-12
2.77507e-12
2.11824e-12
1.64335e-12
1.29424e-12
1.03071e-12
4.84131e-13
2.66715e-08
3.23585e-11
7.27794e-12
5.1101e-12
3.68632e-12
2.71784e-12
2.04295e-12
1.56258e-12
1.21084e-12
5.64794e-13
3.89153e-13
3.6187e-13
1.7436e-13
1.52566e-13
1.31934e-13
1.1257e-13
9.45644e-14
7.80906e-14
6.34388e-14
3.70762e-14
5.37198e-13
4.6221e-13
3.90579e-13
3.38928e-13
2.91946e-13
2.4971e-13
2.1242e-13
1.80518e-13
1.54343e-13
8.03798e-14
6.02693e-13
4.9409e-13
5.31395e-13
4.60549e-13
3.99426e-13
3.47548e-13
3.04259e-13
2.69177e-13
2.41104e-13
1.2136e-13
7.4058e-13
6.46027e-13
7.72969e-13
6.65569e-13
5.75555e-13
5.00768e-13
4.39011e-13
3.88566e-13
3.46692e-13
1.73473e-13
9.77309e-13
9.65604e-13
1.12791e-12
9.54692e-13
8.13145e-13
6.97746e-13
6.03465e-13
5.26469e-13
4.62178e-13
2.29035e-13
1.37829e-12
1.52402e-12
1.64302e-12
1.35568e-12
1.12779e-12
9.46503e-13
8.01369e-13
6.84564e-13
5.88355e-13
2.88278e-13
2.04725e-12
2.43276e-12
2.39107e-12
1.90994e-12
1.54229e-12
1.25907e-12
1.03858e-12
8.6544e-13
7.26246e-13
3.51628e-13
3.15958e-12
3.88628e-12
3.48493e-12
2.67837e-12
2.08859e-12
1.65147e-12
1.32277e-12
1.07244e-12
8.77067e-13
4.19412e-13
1.25497e-11
6.22454e-12
5.10137e-12
3.74964e-12
2.81013e-12
2.14417e-12
1.66287e-12
1.30912e-12
1.04218e-12
4.91968e-13
2.67034e-08
3.26363e-11
7.3906e-12
5.18738e-12
3.74077e-12
2.75711e-12
2.07189e-12
1.58428e-12
1.22735e-12
5.75928e-13
3.89268e-13
3.6137e-13
1.7518e-13
1.53251e-13
1.32539e-13
1.13101e-13
9.5028e-14
7.85153e-14
6.39393e-14
3.98533e-14
5.38365e-13
4.62911e-13
3.92357e-13
3.40455e-13
2.93249e-13
2.50836e-13
2.13364e-13
1.81333e-13
1.55037e-13
8.17751e-14
6.05306e-13
4.96568e-13
5.3456e-13
4.63185e-13
4.01616e-13
3.49357e-13
3.05726e-13
2.70299e-13
2.41987e-13
1.226e-13
7.46049e-13
6.51646e-13
7.78202e-13
6.69841e-13
5.79012e-13
5.03574e-13
4.41275e-13
3.90314e-13
3.48084e-13
1.75008e-13
9.88052e-13
9.76111e-13
1.13661e-12
9.6166e-13
8.18725e-13
7.02198e-13
6.07056e-13
5.29366e-13
4.64501e-13
2.31156e-13
1.39864e-12
1.54263e-12
1.65776e-12
1.36725e-12
1.13691e-12
9.5378e-13
8.07224e-13
6.89308e-13
5.92149e-13
2.9145e-13
2.08519e-12
2.4656e-12
2.41635e-12
1.92936e-12
1.55734e-12
1.27087e-12
1.04798e-12
8.73005e-13
7.32273e-13
3.56283e-13
3.2305e-12
3.94485e-12
3.5287e-12
2.711e-12
2.11322e-12
1.67034e-12
1.33745e-12
1.08412e-12
8.86397e-13
4.262e-13
1.26733e-11
6.33068e-12
5.17729e-12
3.80412e-12
2.85e-12
2.17388e-12
1.6854e-12
1.3266e-12
1.05595e-12
5.01587e-13
2.75843e-08
3.27595e-11
7.51667e-12
5.27454e-12
3.80264e-12
2.80205e-12
2.10523e-12
1.60966e-12
1.24704e-12
5.89434e-13
3.88411e-13
3.83821e-13
1.98614e-13
1.61181e-13
1.32703e-13
1.38616e-13
2.00168e-13
4.65322e-13
1.89321e-12
6.85337e-12
5.37277e-13
5.02366e-13
4.16375e-13
3.50875e-13
2.94074e-13
2.59998e-13
2.71057e-13
4.1664e-13
1.2076e-12
4.38462e-12
6.04001e-13
5.62536e-13
5.6651e-13
4.79469e-13
4.04851e-13
3.51211e-13
3.39437e-13
4.05274e-13
8.40289e-13
2.78809e-12
7.4342e-13
7.30907e-13
8.10608e-13
6.86811e-13
5.82748e-13
5.02357e-13
4.57877e-13
4.667e-13
6.8836e-13
1.88658e-12
9.81935e-13
1.04796e-12
1.16182e-12
9.73683e-13
8.19437e-13
6.97924e-13
6.1368e-13
5.76642e-13
6.62149e-13
1.3623e-12
1.38584e-12
1.58672e-12
1.66612e-12
1.36736e-12
1.12979e-12
9.44168e-13
8.06647e-13
7.2423e-13
7.16624e-13
1.05327e-12
2.06172e-12
2.46159e-12
2.39528e-12
1.90874e-12
1.53646e-12
1.2525e-12
1.04014e-12
8.95532e-13
8.17693e-13
8.76816e-13
3.19105e-12
3.86765e-12
3.46161e-12
2.65877e-12
2.07156e-12
1.63899e-12
1.32113e-12
1.09635e-12
9.50657e-13
7.8797e-13
1.13723e-11
6.14521e-12
5.04269e-12
3.70686e-12
2.77922e-12
2.12459e-12
1.65842e-12
1.32939e-12
1.1112e-12
7.59055e-13
2.30193e-08
2.72111e-11
7.27488e-12
5.11232e-12
3.69113e-12
2.72827e-12
2.064e-12
1.60243e-12
1.29023e-12
7.76662e-13
2.54771e-12
2.41357e-12
1.55086e-12
1.6478e-13
2.58942e-12
8.10113e-12
2.16385e-11
6.50173e-11
2.67151e-10
1.2578e-09
3.58559e-12
3.48942e-12
2.60081e-12
1.20609e-12
1.29766e-12
5.99183e-12
1.67101e-11
4.74294e-11
1.68747e-10
7.00378e-10
4.85082e-12
4.75752e-12
3.78859e-12
2.38077e-12
3.54714e-13
4.00378e-12
1.25768e-11
3.50322e-11
1.12986e-10
4.21139e-10
6.50248e-12
6.33878e-12
5.19736e-12
3.69383e-12
1.53217e-12
2.23854e-12
9.2816e-12
2.62612e-11
7.91129e-11
2.68655e-10
8.69593e-12
8.34312e-12
6.89753e-12
5.18704e-12
2.95638e-12
8.0942e-13
6.56238e-12
1.97903e-11
5.71721e-11
1.79559e-10
1.16648e-11
1.09281e-11
8.98587e-12
6.91792e-12
4.49648e-12
1.3838e-12
4.27645e-12
1.48332e-11
4.22432e-11
1.24571e-10
1.57667e-11
1.43242e-11
1.15946e-11
8.96141e-12
6.1928e-12
2.91748e-12
2.36712e-12
1.09919e-11
3.16913e-11
8.90561e-11
2.15668e-11
1.88731e-11
1.49086e-11
1.14155e-11
8.0966e-12
4.55715e-12
1.2496e-12
7.91731e-12
2.39859e-11
6.52209e-11
3.03111e-11
2.50988e-11
1.91918e-11
1.44093e-11
1.02727e-11
6.29432e-12
2.06865e-12
5.41727e-12
1.81905e-11
4.86893e-11
8.08508e-08
4.14294e-11
2.47945e-11
1.80952e-11
1.27848e-11
8.15296e-12
3.57867e-12
3.42141e-12
1.37508e-11
3.68484e-11
3.47731e-12
3.12637e-12
2.0713e-12
1.90997e-12
8.17134e-12
2.66997e-11
9.10647e-11
4.17556e-10
2.46092e-09
3.34066e-09
4.61719e-12
4.30101e-12
3.28976e-12
1.70318e-12
5.12038e-12
1.8837e-11
6.27345e-11
2.53112e-10
1.27928e-09
1.65125e-09
6.00861e-12
5.66592e-12
4.66349e-12
2.89008e-12
2.76668e-12
1.28005e-11
4.36364e-11
1.62357e-10
7.25102e-10
9.04093e-10
7.79633e-12
7.32356e-12
6.22803e-12
4.46108e-12
2.00444e-12
8.21785e-12
3.05288e-11
1.08514e-10
4.3864e-10
5.33474e-10
1.01516e-11
9.39014e-12
8.05784e-12
6.20732e-12
3.31435e-12
4.7123e-12
2.11771e-11
7.45546e-11
2.79043e-10
3.332e-10
1.33298e-11
1.20296e-11
1.02574e-11
8.15836e-12
5.20344e-12
2.49402e-12
1.42593e-11
5.20756e-11
1.84633e-10
2.17509e-10
1.77226e-11
1.54792e-11
1.29694e-11
1.03953e-11
7.25966e-12
2.93852e-12
9.05286e-12
3.66182e-11
1.25891e-10
1.46977e-10
2.39506e-11
2.00901e-11
1.63904e-11
1.30285e-11
9.48444e-12
4.92943e-12
5.11234e-12
2.56323e-11
8.78046e-11
1.02036e-10
3.48485e-11
2.63934e-11
2.07977e-11
1.62034e-11
1.19497e-11
7.16864e-12
2.69689e-12
1.75797e-11
6.22068e-11
7.2332e-11
1.3177e-08
7.35384e-10
2.65612e-11
2.00918e-11
1.4736e-11
9.48869e-12
3.26656e-12
1.154e-11
4.44421e-11
5.19373e-11
9.98691e-13
1.25424e-12
1.53645e-12
3.26641e-12
8.74233e-12
2.6133e-11
8.96807e-11
3.71822e-10
8.23357e-10
9.06475e-10
1.07166e-12
1.24358e-12
1.38719e-12
2.45698e-12
6.17199e-12
1.80271e-11
5.90621e-11
2.24519e-10
4.3694e-10
4.60229e-10
1.14671e-12
1.2699e-12
1.36147e-12
1.97221e-12
4.39569e-12
1.25396e-11
3.97972e-11
1.41477e-10
2.48525e-10
2.55099e-10
1.22052e-12
1.32091e-12
1.41135e-12
1.75826e-12
3.22911e-12
8.79332e-12
2.72898e-11
9.22119e-11
1.48825e-10
1.52728e-10
1.29545e-12
1.38554e-12
1.49379e-12
1.71823e-12
2.52835e-12
6.23123e-12
1.89739e-11
6.17564e-11
9.27298e-11
9.7541e-11
1.37362e-12
1.45865e-12
1.58667e-12
1.76701e-12
2.17955e-12
4.50112e-12
1.33334e-11
4.23032e-11
5.95821e-11
6.58133e-11
1.45797e-12
1.53837e-12
1.6816e-12
1.85214e-12
2.06537e-12
3.38509e-12
9.44738e-12
2.94582e-11
3.92094e-11
4.65427e-11
1.55207e-12
1.62542e-12
1.77666e-12
1.94794e-12
2.0789e-12
2.73528e-12
6.77053e-12
2.07945e-11
2.62737e-11
3.42697e-11
3.07815e-11
1.72764e-12
1.87299e-12
2.04507e-12
2.14902e-12
2.42283e-12
4.945e-12
1.48435e-11
1.78548e-11
2.6126e-11
2.32845e-08
6.44344e-10
1.97815e-12
2.13819e-12
2.23438e-12
2.31659e-12
3.73112e-12
1.06843e-11
1.21803e-11
2.04454e-11
7.98827e-13
1.51465e-12
1.61138e-12
2.52162e-12
4.15619e-12
7.30968e-12
1.51574e-11
4.87808e-11
3.40653e-10
1.00307e-09
7.3319e-13
1.36079e-12
1.39855e-12
2.15544e-12
3.49286e-12
5.98661e-12
1.15531e-11
3.1493e-11
2.00281e-10
5.36895e-10
6.7019e-13
1.21705e-12
1.20487e-12
1.83275e-12
2.92843e-12
4.91814e-12
9.02926e-12
2.15147e-11
1.22894e-10
3.09383e-10
6.16234e-13
1.09489e-12
1.04378e-12
1.56805e-12
2.47249e-12
4.08335e-12
7.22911e-12
1.5505e-11
7.82878e-11
1.88678e-10
5.70071e-13
9.90651e-13
9.09421e-13
1.34928e-12
2.10176e-12
3.42201e-12
5.89424e-12
1.16834e-11
5.14708e-11
1.203e-10
5.3032e-13
9.01282e-13
7.96716e-13
1.16803e-12
1.79849e-12
2.88973e-12
4.87368e-12
9.11985e-12
3.47686e-11
7.95153e-11
4.95941e-13
8.2411e-13
7.01751e-13
1.01649e-12
1.54724e-12
2.45677e-12
4.07582e-12
7.3085e-12
2.40478e-11
5.41484e-11
4.66129e-13
7.57045e-13
6.21296e-13
8.88974e-13
1.33846e-12
2.10213e-12
3.43899e-12
5.97644e-12
1.69829e-11
3.78148e-11
5.51074e-11
7.29511e-13
5.52709e-13
7.81379e-13
1.16391e-12
1.80907e-12
2.92335e-12
4.96263e-12
1.22207e-11
2.69848e-11
2.2774e-08
2.27392e-09
1.40128e-12
6.80302e-13
1.01341e-12
1.55935e-12
2.49291e-12
4.15603e-12
8.92676e-12
1.95972e-11
1.07586e-12
1.86966e-12
1.61104e-12
2.17815e-12
3.03818e-12
4.41199e-12
7.08947e-12
1.43355e-11
5.86136e-11
1.08241e-10
1.00224e-12
1.71448e-12
1.44456e-12
1.94005e-12
2.68477e-12
3.83676e-12
5.87674e-12
1.07673e-11
4.08414e-11
7.31337e-11
9.30443e-13
1.56532e-12
1.28396e-12
1.71401e-12
2.35762e-12
3.33415e-12
4.94881e-12
8.37184e-12
2.86654e-11
5.08008e-11
8.68014e-13
1.43553e-12
1.14572e-12
1.51956e-12
2.07844e-12
2.91621e-12
4.24087e-12
6.75573e-12
2.03949e-11
3.61479e-11
8.13768e-13
1.32226e-12
1.02687e-12
1.35257e-12
1.8399e-12
2.56506e-12
3.67972e-12
5.61888e-12
1.469e-11
2.62163e-11
7.66412e-13
1.22298e-12
9.24234e-13
1.20863e-12
1.63437e-12
2.26612e-12
3.22106e-12
4.77966e-12
1.06992e-11
1.93113e-11
7.24816e-13
1.13546e-12
8.35335e-13
1.08401e-12
1.4569e-12
2.00993e-12
2.83709e-12
4.13109e-12
7.87029e-12
1.441e-11
6.88241e-13
1.05799e-12
7.58069e-13
9.7577e-13
1.30304e-12
1.78854e-12
2.51062e-12
3.61044e-12
5.84268e-12
1.08712e-11
8.4152e-11
1.04981e-12
6.90566e-13
8.81549e-13
1.16928e-12
1.59645e-12
2.2308e-12
3.18006e-12
4.37564e-12
8.27821e-12
2.77834e-08
4.03736e-09
2.95298e-12
7.84546e-13
1.04949e-12
1.42505e-12
1.98266e-12
2.80774e-12
3.28921e-12
6.33909e-12
1.50175e-12
2.37286e-12
1.62033e-12
1.90778e-12
2.28989e-12
2.83548e-12
3.81861e-12
6.0543e-12
1.72754e-11
2.33774e-11
1.42035e-12
2.22018e-12
1.50424e-12
1.77327e-12
2.1279e-12
2.60829e-12
3.37611e-12
4.95726e-12
1.31335e-11
1.82054e-11
1.33967e-12
2.06871e-12
1.38201e-12
1.6307e-12
1.95834e-12
2.38982e-12
3.02091e-12
4.17614e-12
9.89814e-12
1.41335e-11
1.2683e-12
1.93329e-12
1.27164e-12
1.5005e-12
1.80311e-12
2.19694e-12
2.74056e-12
3.62841e-12
7.48135e-12
1.10318e-11
1.20515e-12
1.81201e-12
1.17267e-12
1.38252e-12
1.66189e-12
2.0242e-12
2.50818e-12
3.22836e-12
5.6657e-12
8.64934e-12
1.14906e-12
1.70308e-12
1.08396e-12
1.27586e-12
1.53308e-12
1.86762e-12
2.30694e-12
2.91971e-12
4.29398e-12
6.80511e-12
1.09907e-12
1.60503e-12
1.00436e-12
1.17935e-12
1.41569e-12
1.72479e-12
2.12862e-12
2.66804e-12
3.25348e-12
5.36705e-12
1.05444e-12
1.51644e-12
9.32943e-13
1.09212e-12
1.30887e-12
1.59425e-12
1.96736e-12
2.45402e-12
2.4617e-12
4.23915e-12
1.16306e-10
1.52732e-12
8.68683e-13
1.01333e-12
1.2117e-12
1.47491e-12
1.8204e-12
2.26588e-12
1.85886e-12
3.34904e-12
2.1192e-08
5.63317e-09
5.13177e-12
9.26223e-13
1.1205e-12
1.362e-12
1.68073e-12
2.09032e-12
1.38797e-12
2.63647e-12
2.13594e-12
3.02507e-12
1.56947e-12
1.60825e-12
1.66984e-12
1.8001e-12
2.15018e-12
2.99262e-12
6.94986e-12
8.31908e-12
2.04894e-12
2.88458e-12
1.51142e-12
1.56526e-12
1.63648e-12
1.74745e-12
1.99361e-12
2.58141e-12
5.62654e-12
6.97115e-12
1.96186e-12
2.74044e-12
1.43688e-12
1.50186e-12
1.58253e-12
1.68772e-12
1.87454e-12
2.28576e-12
4.44468e-12
5.73586e-12
1.88323e-12
2.60751e-12
1.36387e-12
1.43623e-12
1.52446e-12
1.63037e-12
1.78694e-12
2.08589e-12
3.49407e-12
4.71905e-12
1.81221e-12
2.48509e-12
1.29397e-12
1.3709e-12
1.46466e-12
1.57362e-12
1.71638e-12
1.94839e-12
2.72819e-12
3.87935e-12
1.74796e-12
2.37237e-12
1.22773e-12
1.3068e-12
1.404e-12
1.51632e-12
1.65414e-12
1.84783e-12
2.11008e-12
3.18341e-12
1.68975e-12
2.26852e-12
1.16526e-12
1.24477e-12
1.34356e-12
1.45833e-12
1.59509e-12
1.76825e-12
1.61013e-12
2.60549e-12
1.63691e-12
2.17271e-12
1.10675e-12
1.18536e-12
1.28415e-12
1.40011e-12
1.53698e-12
1.69996e-12
1.20619e-12
2.12474e-12
1.51186e-10
2.19831e-12
1.05197e-12
1.12884e-12
1.22641e-12
1.34237e-12
1.47944e-12
1.63759e-12
8.81304e-13
1.72489e-12
3.89421e-09
6.58237e-09
9.42892e-12
1.0594e-12
1.16804e-12
1.28227e-12
1.41812e-12
1.57294e-12
6.08995e-13
1.39009e-12
3.01984e-12
3.77856e-12
1.38492e-12
1.21583e-12
1.06954e-12
1.003e-12
1.13787e-12
1.55662e-12
3.48206e-12
3.83068e-12
2.93225e-12
3.66525e-12
1.38808e-12
1.25062e-12
1.12301e-12
1.03658e-12
1.08066e-12
1.35812e-12
2.98806e-12
3.41353e-12
2.84435e-12
3.54479e-12
1.36832e-12
1.25976e-12
1.15405e-12
1.06685e-12
1.0577e-12
1.22064e-12
2.4637e-12
2.94252e-12
2.76314e-12
3.42957e-12
1.34106e-12
1.25681e-12
1.17214e-12
1.09331e-12
1.05846e-12
1.14004e-12
2.01413e-12
2.53164e-12
2.68827e-12
3.32012e-12
1.30948e-12
1.2457e-12
1.18027e-12
1.11402e-12
1.07071e-12
1.10069e-12
1.62911e-12
2.17324e-12
2.61926e-12
3.21646e-12
1.27506e-12
1.22844e-12
1.18015e-12
1.12784e-12
1.08597e-12
1.08693e-12
1.29903e-12
1.86094e-12
2.55564e-12
3.11857e-12
1.23914e-12
1.20681e-12
1.17336e-12
1.13478e-12
1.09976e-12
1.08704e-12
1.01645e-12
1.58919e-12
2.49699e-12
3.02623e-12
1.20266e-12
1.18214e-12
1.16136e-12
1.13555e-12
1.10968e-12
1.09331e-12
7.74968e-13
1.35368e-12
1.87597e-10
3.06393e-12
1.16613e-12
1.15552e-12
1.14549e-12
1.13118e-12
1.11518e-12
1.10121e-12
5.70058e-13
1.15094e-12
1.56823e-08
6.36722e-09
1.00514e-11
1.11424e-12
1.12431e-12
1.11976e-12
1.11305e-12
1.10413e-12
3.90854e-13
9.80475e-13
4.1111e-12
4.52141e-12
1.05834e-12
7.60194e-13
4.95116e-13
3.48375e-13
4.86709e-13
7.97567e-13
2.09956e-12
2.12019e-12
4.02923e-12
4.44982e-12
1.10498e-12
8.42983e-13
6.00812e-13
4.18692e-13
4.30317e-13
6.59169e-13
1.9312e-12
2.01426e-12
3.94815e-12
4.37078e-12
1.12909e-12
9.01533e-13
6.85049e-13
4.98813e-13
4.26848e-13
5.57354e-13
1.68317e-12
1.81865e-12
3.87148e-12
4.29111e-12
1.14165e-12
9.44353e-13
7.52075e-13
5.7369e-13
4.59349e-13
4.98423e-13
1.46153e-12
1.64133e-12
3.79928e-12
4.21226e-12
1.14603e-12
9.75472e-13
8.06001e-13
6.40711e-13
5.09943e-13
4.80585e-13
1.26448e-12
1.48094e-12
3.73161e-12
4.13491e-12
1.14394e-12
9.97247e-13
8.48852e-13
6.98682e-13
5.65592e-13
4.93848e-13
1.09055e-12
1.33665e-12
3.66812e-12
4.05959e-12
1.13698e-12
1.01136e-12
8.8225e-13
7.47752e-13
6.19777e-13
5.25992e-13
9.38512e-13
1.20762e-12
3.60869e-12
3.98668e-12
1.12625e-12
1.01935e-12
9.0781e-13
7.8865e-13
6.69536e-13
5.6713e-13
8.07639e-13
1.09314e-12
2.21645e-10
4.04402e-12
1.11267e-12
1.02244e-12
9.26983e-13
8.22471e-13
7.13867e-13
6.11114e-13
6.97923e-13
9.92786e-13
3.70107e-08
4.78725e-09
9.4127e-12
1.01409e-12
9.38843e-13
8.48056e-13
7.50623e-13
6.51805e-13
6.08432e-13
9.11659e-13
5.20033e-12
5.10414e-12
7.60676e-13
4.99112e-13
2.71828e-13
1.54078e-13
2.68432e-13
4.49567e-13
1.50685e-12
1.37488e-12
5.12808e-12
5.07827e-12
7.81316e-13
5.36626e-13
3.10325e-13
1.2467e-13
1.65153e-13
3.45725e-13
1.49812e-12
1.39997e-12
5.05879e-12
5.04798e-12
7.95982e-13
5.72775e-13
3.60065e-13
1.61622e-13
7.76384e-14
2.48539e-13
1.3904e-12
1.32513e-12
4.99194e-12
5.01295e-12
8.08124e-13
6.06056e-13
4.09798e-13
2.1938e-13
4.46499e-14
1.6029e-13
1.29184e-12
1.25563e-12
4.92797e-12
4.97495e-12
8.17983e-13
6.36265e-13
4.57073e-13
2.79882e-13
1.07245e-13
8.695e-14
1.20213e-12
1.1913e-12
4.86698e-12
4.935e-12
8.25258e-13
6.62639e-13
5.00039e-13
3.36793e-13
1.75441e-13
5.96765e-14
1.12096e-12
1.1321e-12
4.8089e-12
4.89394e-12
8.29915e-13
6.85033e-13
5.38285e-13
3.88664e-13
2.38559e-13
1.02724e-13
1.04819e-12
1.0779e-12
4.75384e-12
4.85241e-12
8.32067e-13
7.03603e-13
5.71732e-13
4.3516e-13
2.95918e-13
1.61188e-13
9.83449e-13
1.02862e-12
2.48589e-10
4.93802e-12
8.32057e-13
7.18801e-13
6.00898e-13
4.76712e-13
3.48117e-13
2.18842e-13
9.26672e-13
9.84138e-13
5.62904e-08
2.59265e-09
6.33139e-12
7.29185e-13
6.25342e-13
5.13282e-13
3.95329e-13
2.73657e-13
8.77996e-13
9.52712e-13
5.91653e-12
5.40732e-12
7.18394e-13
6.10555e-13
5.11228e-13
4.423e-13
4.00463e-13
3.85116e-13
1.26124e-12
1.05995e-12
5.85129e-12
5.41247e-12
6.44469e-13
5.49839e-13
4.58928e-13
3.94485e-13
3.55177e-13
3.42929e-13
1.32703e-12
1.1418e-12
5.7912e-12
5.41702e-12
5.78323e-13
4.95216e-13
4.11592e-13
3.50281e-13
3.12162e-13
3.00776e-13
1.28445e-12
1.11847e-12
5.73264e-12
5.41519e-12
5.2323e-13
4.49364e-13
3.71623e-13
3.12339e-13
2.73831e-13
2.61933e-13
1.24393e-12
1.09596e-12
5.67604e-12
5.40855e-12
4.78894e-13
4.1245e-13
3.39631e-13
2.81332e-13
2.41007e-13
2.26732e-13
1.20537e-12
1.07445e-12
5.62164e-12
5.39828e-12
4.43746e-13
3.83407e-13
3.14853e-13
2.57048e-13
2.13995e-13
1.95673e-13
1.16876e-12
1.05381e-12
5.56931e-12
5.38512e-12
4.16092e-13
3.61048e-13
2.96598e-13
2.3942e-13
1.93381e-13
1.69216e-13
1.1339e-12
1.03408e-12
5.51942e-12
5.36984e-12
3.94764e-13
3.44365e-13
2.84087e-13
2.27892e-13
1.79038e-13
1.48215e-13
1.10091e-12
1.01514e-12
2.63504e-10
5.47757e-12
3.7867e-13
3.32532e-13
2.76509e-13
2.22098e-13
1.71583e-13
1.3388e-13
1.06942e-12
9.96958e-13
6.81538e-08
1.68559e-09
4.28369e-12
3.2342e-13
2.74634e-13
2.24034e-13
1.75106e-13
1.34807e-13
1.04077e-12
9.99611e-13
5.92352e-12
5.37775e-12
7.31043e-13
6.36698e-13
5.4077e-13
4.66745e-13
4.12063e-13
3.78242e-13
1.19038e-12
1.01146e-12
5.85802e-12
5.38513e-12
6.43199e-13
5.66879e-13
4.84415e-13
4.19817e-13
3.71886e-13
3.43908e-13
1.26626e-12
1.0971e-12
5.79817e-12
5.39254e-12
5.63715e-13
5.02493e-13
4.31287e-13
3.74505e-13
3.31898e-13
3.07588e-13
1.2318e-12
1.07748e-12
5.73991e-12
5.39351e-12
4.95261e-13
4.45994e-13
3.8407e-13
3.33609e-13
2.95214e-13
2.73795e-13
1.19884e-12
1.05865e-12
5.68369e-12
5.38962e-12
4.38051e-13
3.97922e-13
3.43368e-13
2.9773e-13
2.62267e-13
2.4256e-13
1.16719e-12
1.04063e-12
5.62967e-12
5.38202e-12
3.90795e-13
3.57578e-13
3.08885e-13
2.66888e-13
2.33172e-13
2.14043e-13
1.13694e-12
1.02345e-12
5.57779e-12
5.37136e-12
3.52409e-13
3.24202e-13
2.80281e-13
2.40964e-13
2.08165e-13
1.88592e-13
1.10793e-12
1.00704e-12
5.52831e-12
5.35855e-12
3.21952e-13
2.9735e-13
2.5726e-13
2.19984e-13
1.87368e-13
1.66423e-13
1.08016e-12
9.9134e-13
2.63505e-10
5.46878e-12
2.98741e-13
2.7651e-13
2.39707e-13
2.0418e-13
1.71509e-13
1.48259e-13
1.05356e-12
9.76375e-13
6.81538e-08
1.68559e-09
4.25492e-12
2.59303e-13
2.29265e-13
1.96856e-13
1.65992e-13
1.42479e-13
1.02921e-12
9.91175e-13
5.21179e-12
5.02406e-12
7.31235e-13
5.15751e-13
3.32908e-13
2.2909e-13
2.63524e-13
3.86134e-13
1.26284e-12
1.21522e-12
5.14113e-12
5.00665e-12
7.26887e-13
5.22195e-13
3.35657e-13
1.95121e-13
1.83351e-13
3.00486e-13
1.28819e-12
1.25276e-12
5.07386e-12
4.98536e-12
7.25841e-13
5.3651e-13
3.56332e-13
1.97669e-13
1.19299e-13
2.16105e-13
1.20957e-12
1.19088e-12
5.00901e-12
4.95896e-12
7.27673e-13
5.54307e-13
3.84801e-13
2.24155e-13
9.03195e-14
1.37317e-13
1.13769e-12
1.13384e-12
4.94691e-12
4.92912e-12
7.31437e-13
5.73947e-13
4.17108e-13
2.63175e-13
1.13936e-13
6.62253e-14
1.07245e-12
1.08162e-12
4.88754e-12
4.89677e-12
7.35647e-13
5.93518e-13
4.4985e-13
3.05793e-13
1.61142e-13
2.66745e-14
1.01377e-12
1.03414e-12
4.83103e-12
4.86282e-12
7.39361e-13
6.11752e-13
4.81102e-13
3.4783e-13
2.12082e-13
7.52687e-14
9.61393e-13
9.91275e-13
4.77742e-12
4.82784e-12
7.4214e-13
6.28163e-13
5.10002e-13
3.87524e-13
2.61257e-13
1.32058e-13
9.1508e-13
9.52874e-13
2.48592e-10
4.92027e-12
7.43792e-13
6.42559e-13
5.36283e-13
4.24383e-13
3.07474e-13
1.86079e-13
8.74849e-13
9.18976e-13
5.62904e-08
2.59265e-09
6.2819e-12
6.5337e-13
5.59161e-13
4.57806e-13
3.50614e-13
2.37934e-13
8.41073e-13
9.08123e-13
4.11872e-12
4.41946e-12
9.38323e-13
6.54401e-13
3.9422e-13
2.16395e-13
3.34132e-13
6.10046e-13
1.55978e-12
1.77753e-12
4.04287e-12
4.36422e-12
9.85713e-13
7.33454e-13
4.98228e-13
3.05326e-13
2.92393e-13
4.98358e-13
1.47002e-12
1.70485e-12
3.9672e-12
4.30032e-12
1.0153e-12
7.94109e-13
5.84034e-13
3.96399e-13
3.05138e-13
4.14612e-13
1.29065e-12
1.542e-12
3.89494e-12
4.23425e-12
1.03461e-12
8.40753e-13
6.53384e-13
4.76946e-13
3.51706e-13
3.70347e-13
1.12962e-12
1.39464e-12
3.82651e-12
4.16749e-12
1.04635e-12
8.77015e-13
7.10544e-13
5.47877e-13
4.12231e-13
3.6603e-13
9.86578e-13
1.26202e-12
3.76187e-12
4.10095e-12
1.05183e-12
9.04405e-13
7.57295e-13
6.09314e-13
4.7446e-13
3.90982e-13
8.60964e-13
1.14355e-12
3.70088e-12
4.0352e-12
1.05231e-12
9.2454e-13
7.95165e-13
6.61793e-13
5.33179e-13
4.32159e-13
7.52486e-13
1.03861e-12
3.64351e-12
3.97083e-12
1.04866e-12
9.38567e-13
8.25534e-13
7.06344e-13
5.86671e-13
4.79838e-13
6.61282e-13
9.46808e-13
2.21648e-10
4.03662e-12
1.04179e-12
9.47692e-13
8.49593e-13
7.43986e-13
6.34447e-13
5.28608e-13
5.87765e-13
8.67925e-13
3.70107e-08
4.78725e-09
9.37651e-12
9.457e-13
8.6644e-13
7.7358e-13
6.74636e-13
5.73431e-13
5.31507e-13
8.11191e-13
3.02876e-12
3.68817e-12
1.22711e-12
1.03791e-12
8.77952e-13
7.88839e-13
8.6597e-13
1.1704e-12
2.29921e-12
3.06206e-12
2.95067e-12
3.59743e-12
1.25125e-12
1.09176e-12
9.49131e-13
8.45923e-13
8.51113e-13
1.04508e-12
2.0098e-12
2.75061e-12
2.87009e-12
3.49575e-12
1.25113e-12
1.11978e-12
9.978e-13
8.95776e-13
8.59148e-13
9.61357e-13
1.65908e-12
2.37187e-12
2.7944e-12
3.39629e-12
1.24128e-12
1.13409e-12
1.03189e-12
9.38443e-13
8.82567e-13
9.20523e-13
1.35315e-12
2.04036e-12
2.72372e-12
3.30001e-12
1.22491e-12
1.13865e-12
1.05489e-12
9.73473e-13
9.12474e-13
9.10279e-13
1.08764e-12
1.75067e-12
2.65788e-12
3.2075e-12
1.20391e-12
1.13562e-12
1.06857e-12
1.00038e-12
9.42308e-13
9.18182e-13
8.57246e-13
1.49801e-12
2.59659e-12
3.11886e-12
1.17966e-12
1.12679e-12
1.07462e-12
1.01958e-12
9.68521e-13
9.35101e-13
6.57656e-13
1.27866e-12
2.53963e-12
3.03431e-12
1.15327e-12
1.11356e-12
1.07449e-12
1.03188e-12
9.89803e-13
9.55049e-13
4.85587e-13
1.0893e-12
1.87601e-10
3.07887e-12
1.12548e-12
1.09715e-12
1.06949e-12
1.03835e-12
1.006e-12
9.74664e-13
3.40079e-13
9.27769e-13
1.56823e-08
6.36723e-09
1.00287e-11
1.06559e-12
1.05822e-12
1.03716e-12
1.01399e-12
9.88244e-13
2.11375e-13
7.95335e-13
2.1565e-12
2.96753e-12
1.41409e-12
1.38916e-12
1.39113e-12
1.4478e-12
1.6494e-12
2.15573e-12
4.0026e-12
6.24064e-12
2.07889e-12
2.85162e-12
1.38915e-12
1.38392e-12
1.39862e-12
1.44705e-12
1.58723e-12
1.94067e-12
3.31743e-12
5.28172e-12
1.99791e-12
2.72593e-12
1.34197e-12
1.35309e-12
1.3807e-12
1.43007e-12
1.53628e-12
1.7829e-12
2.64265e-12
4.35712e-12
1.9234e-12
2.60746e-12
1.2914e-12
1.3151e-12
1.35385e-12
1.4084e-12
1.49946e-12
1.67967e-12
2.08902e-12
3.58979e-12
1.85523e-12
2.49642e-12
1.2399e-12
1.27323e-12
1.32122e-12
1.38234e-12
1.46892e-12
1.61103e-12
1.63607e-12