/*--------------------------------*- C++ -*----------------------------------*\
| =========                 |                                                 |
| \\      /  F ield         | OpenFOAM: The Open Source CFD Toolbox           |
|  \\    /   O peration     | Version:  4.1                                   |
|   \\  /    A nd           | Web:      www.OpenFOAM.org                      |
|    \\/     M anipulation  |                                                 |
\*---------------------------------------------------------------------------*/
FoamFile
{
    version     2.0;
    format      ascii;
    class       surfaceScalarField;
    location    "0.06";
    object      phi;
}
// * * * * * * * * * * * * * * * * * * * * * * * * * * * * * * * * * * * * * //

dimensions      [1 0 -1 0 0 0 0];

internalField   nonuniform List<scalar> 
51500
(
3.71899e-13
8.56298e-15
1.59368e-11
-2.31985e-15
1.59959e-14
1.57491e-11
-1.8539e-15
1.5556e-14
1.55641e-11
-1.85344e-15
1.48837e-14
1.53812e-11
-1.82777e-15
1.40973e-14
1.52009e-11
-1.81331e-15
1.32369e-14
1.50231e-11
-1.80399e-15
1.23226e-14
1.48478e-11
-1.77963e-15
1.13704e-14
1.4675e-11
-1.74743e-15
1.03814e-14
1.45044e-11
9.36434e-15
1.43374e-11
-7.91468e-17
3.79062e-13
5.61781e-15
2.01454e-11
-8.78677e-15
8.7984e-15
1.9401e-11
-7.13822e-15
7.56571e-15
1.86904e-11
-6.97875e-15
6.39197e-15
1.801e-11
-6.79564e-15
5.29093e-15
1.736e-11
-6.62818e-15
4.25398e-15
1.67385e-11
-6.46337e-15
3.27616e-15
1.61442e-11
-6.30751e-15
2.35606e-15
1.55755e-11
-6.01861e-15
1.48533e-15
1.50312e-11
6.65783e-16
1.45133e-11
-6.99744e-16
3.85109e-13
6.90287e-15
2.5809e-11
-1.7177e-14
8.4269e-15
2.41537e-11
-1.42107e-14
6.96241e-15
2.26275e-11
-1.3559e-14
5.69538e-15
2.12154e-11
-1.29114e-14
4.56615e-15
1.99102e-11
-1.23168e-14
3.54588e-15
1.87022e-11
-1.1774e-14
2.62123e-15
1.75834e-11
-1.12823e-14
1.78082e-15
1.65458e-11
-1.05278e-14
1.0243e-15
1.55827e-11
3.69337e-16
1.46924e-11
-1.37325e-15
3.89031e-13
8.61424e-15
3.35603e-11
-2.81214e-14
1.02611e-14
3.04216e-11
-2.3734e-14
8.13759e-15
2.7636e-11
-2.20353e-14
6.46412e-15
2.51525e-11
-2.04396e-14
5.06703e-15
2.29378e-11
-1.9017e-14
3.85893e-15
2.09581e-11
-1.77676e-14
2.80179e-15
1.91844e-11
-1.66752e-14
1.87297e-15
1.75922e-11
-1.52281e-14
1.05996e-15
1.61596e-11
3.76335e-16
1.48744e-11
-2.09533e-15
3.88955e-13
1.09385e-14
4.43673e-11
-4.24706e-14
1.27883e-14
3.88065e-11
-3.62898e-14
9.71832e-15
3.40757e-11
-3.28327e-14
7.41274e-15
3.00262e-11
-2.96734e-14
5.6489e-15
2.65518e-11
-2.69175e-14
4.21152e-15
2.35584e-11
-2.45409e-14
2.99901e-15
2.09692e-11
-2.2519e-14
1.96909e-15
1.87217e-11
-2.01373e-14
1.09743e-15
1.67636e-11
3.86455e-16
1.50599e-11
-2.84733e-15
3.81588e-13
1.41727e-14
5.97482e-11
-6.15786e-14
1.61106e-14
5.02024e-11
-5.28026e-14
1.18318e-14
4.24539e-11
-4.64715e-14
8.62954e-15
3.61106e-11
-4.0974e-14
6.3367e-15
3.08908e-11
-3.621e-14
4.60704e-15
2.65667e-11
-3.21958e-14
3.21525e-15
2.2963e-11
-2.88648e-14
2.07289e-15
1.99422e-11
-2.52573e-14
1.13841e-15
1.73961e-11
3.94003e-16
1.52484e-11
-3.64552e-15
3.60647e-13
1.87876e-14
8.21532e-11
-1.07334e-13
1.89227e-14
6.59639e-11
-7.45335e-14
1.33556e-14
5.34936e-11
-6.37903e-14
9.57114e-15
4.37754e-11
-5.47115e-14
6.91781e-15
3.61319e-11
-4.71624e-14
4.91761e-15
3.00609e-11
-4.08543e-14
3.38637e-15
2.5195e-11
-3.57635e-14
2.3039e-15
2.12624e-11
-3.0621e-14
2.26048e-15
1.80586e-11
1.27803e-15
1.54403e-11
-4.47732e-15
3.12868e-13
2.15251e-14
1.1566e-10
-1.62794e-13
2.21218e-14
8.81897e-11
-1.03089e-13
1.49124e-14
6.82455e-11
-8.5803e-14
9.70481e-15
5.35252e-11
-7.15428e-14
5.87771e-15
4.25041e-11
-6.00226e-14
3.01754e-15
3.41357e-11
-5.07099e-14
8.4853e-16
2.76999e-11
-4.3255e-14
-8.20621e-16
2.26921e-11
-3.62047e-14
-2.11912e-15
1.8753e-11
-3.28836e-15
1.56356e-11
-5.35206e-15
5.92694e-13
-8.45148e-11
1.65501e-10
1.12566e-13
-8.58831e-11
1.18676e-10
1.11048e-13
-8.57087e-11
8.70211e-11
1.07214e-13
-8.55439e-11
6.5082e-11
1.02085e-13
-8.53912e-11
4.95654e-11
9.64224e-14
-8.525e-11
3.83812e-11
9.06548e-14
-8.51195e-11
3.01829e-11
8.50101e-14
-8.49991e-11
2.40818e-11
7.87645e-14
-8.48876e-11
1.94792e-11
-7.4303e-11
1.59864e-11
-6.27818e-15
-9.74321e-12
1.57592e-08
-9.17289e-07
1.68607e-11
1.30554e-08
-9.39252e-07
1.65931e-11
1.12036e-08
-9.4079e-07
1.96054e-11
9.71977e-09
-9.42069e-07
2.28048e-11
8.51202e-09
-9.43151e-07
2.36282e-11
7.51576e-09
-9.44076e-07
2.36097e-11
6.68432e-09
-9.44876e-07
2.33814e-11
5.98326e-09
-9.45575e-07
2.35337e-11
5.38669e-09
-9.46192e-07
4.87985e-09
-7.23119e-15
-9.49374e-07
3.45276e-13
9.5569e-14
6.74704e-14
-2.17989e-14
8.96952e-14
6.57733e-14
-2.64276e-14
7.89197e-14
6.42817e-14
-2.61257e-14
6.85006e-14
6.21683e-14
-2.58516e-14
5.8445e-14
6.03276e-14
-2.56204e-14
4.87345e-14
5.86846e-14
-2.53966e-14
3.93626e-14
5.69957e-14
-2.51973e-14
3.03109e-14
5.56783e-14
-2.74997e-14
2.15645e-14
5.44162e-14
1.31526e-14
5.31711e-14
-1.55193e-15
2.82381e-13
9.18054e-14
9.60903e-14
-7.76552e-14
8.30046e-14
9.05672e-14
-9.09532e-14
7.02431e-14
8.63594e-14
-8.82344e-14
5.8123e-14
8.04771e-14
-8.57127e-14
4.65754e-14
7.51139e-14
-8.32512e-14
3.47417e-14
7.02386e-14
-8.09425e-14
2.2795e-14
6.59177e-14
-7.88283e-14
1.47458e-14
6.20805e-14
-8.41376e-14
8.11136e-15
5.86769e-14
2.66451e-15
5.50502e-14
-4.37931e-15
1.87339e-13
1.16314e-13
1.3684e-13
-1.9674e-13
1.02837e-13
1.25022e-13
-1.74345e-13
8.56489e-14
1.16145e-13
-1.65629e-13
7.00717e-14
1.04321e-13
-1.57601e-13
5.60259e-14
9.40607e-14
-1.50032e-13
4.33784e-14
8.51014e-14
-1.42953e-13
3.19938e-14
7.72657e-14
-1.36535e-13
2.17644e-14
7.02922e-14
-1.43079e-13
1.2577e-14
6.42003e-14
4.35769e-15
5.78351e-14
-7.2815e-15
5.90742e-14
1.44173e-13
2.01236e-13
-3.38491e-13
1.23777e-13
1.78273e-13
-2.82331e-13
1.00565e-13
1.59843e-13
-2.62147e-13
8.03231e-14
1.38337e-13
-2.4394e-13
6.27512e-14
1.20262e-13
-2.27373e-13
4.75129e-14
1.0497e-13
-2.12182e-13
3.4307e-14
9.20785e-14
-1.98656e-13
2.28664e-14
8.11508e-14
-2.04245e-13
1.29568e-14
7.15861e-14
4.41309e-15
6.16212e-14
-1.02555e-14
-8.00838e-14
1.81033e-13
3.04725e-13
-5.20924e-13
1.50549e-13
2.60913e-13
-4.22319e-13
1.19012e-13
2.24278e-13
-3.82529e-13
9.26006e-14
1.86362e-13
-3.47635e-13
7.05637e-14
1.55968e-13
-3.16794e-13
5.21745e-14
1.31155e-13
-2.89363e-13
3.68341e-14
1.11081e-13
-2.65447e-13
2.40325e-14
9.45733e-14
-2.67724e-13
1.33518e-14
8.09041e-14
4.46446e-15
6.63988e-14
-1.33188e-14
-3.21946e-13
2.30613e-13
4.74893e-13
-7.62359e-13
1.85212e-13
3.90052e-13
-6.04223e-13
1.42042e-13
3.19621e-13
-5.32797e-13
1.07406e-13
2.54216e-13
-4.7217e-13
7.96725e-14
2.04293e-13
-4.20156e-13
5.74448e-14
1.6559e-13
-3.75333e-13
3.96099e-14
1.35397e-13
-3.37112e-13
2.52798e-14
1.1153e-13
-3.33637e-13
1.37652e-14
9.2462e-14
4.51471e-15
7.23812e-14
-1.64465e-14
-7.56331e-13
2.98276e-13
7.60247e-13
-1.08724e-12
2.3064e-13
5.96473e-13
-8.41216e-13
1.71059e-13
4.62175e-13
-7.20617e-13
1.25363e-13
3.50731e-13
-6.21674e-13
9.03356e-14
2.70083e-13
-5.39547e-13
6.34109e-14
2.10465e-13
-4.70972e-13
4.26499e-14
1.6596e-13
-4.13916e-13
2.66102e-14
1.32374e-13
-4.0208e-13
1.41832e-14
1.06267e-13
4.578e-15
7.96339e-14
-1.96373e-14
-1.35924e-12
2.99773e-13
1.25489e-12
-1.52996e-12
3.18901e-13
9.30819e-13
-1.15083e-12
2.12005e-13
6.77834e-13
-9.55522e-13
1.33129e-13
4.88841e-13
-8.01086e-13
8.68095e-14
3.59603e-13
-6.77333e-13
5.89738e-14
2.68953e-13
-5.77161e-13
3.85285e-14
2.04488e-13
-4.96224e-13
2.34037e-14
1.57533e-13
-4.73052e-13
1.2157e-14
1.22824e-13
3.8016e-15
8.79963e-14
-2.29083e-14
-2.26732e-12
4.08577e-12
2.2075e-12
-2.13827e-12
2.04376e-12
1.44996e-12
-1.55398e-12
1.58677e-12
9.84151e-13
-1.24826e-12
1.21243e-12
6.7008e-13
-1.01571e-12
8.98204e-13
4.69203e-13
-8.35916e-13
6.29969e-13
3.36506e-13
-6.95119e-13
3.97775e-13
2.46797e-13
-5.84554e-13
1.94419e-13
1.84915e-13
-5.47426e-13
1.45511e-14
1.40947e-13
-1.43634e-13
9.76138e-14
-2.62422e-14
-7.38788e-11
4.86754e-10
1.87456e-08
-4.39607e-11
6.66586e-11
-2.65109e-10
-4.09445e-11
4.78624e-11
-2.54091e-10
-3.80557e-11
3.57115e-11
-2.41801e-10
-3.55765e-11
2.72583e-11
-2.30493e-10
-3.342e-11
2.12446e-11
-2.20271e-10
-3.15233e-11
1.68837e-11
-2.11111e-10
-2.98397e-11
1.36684e-11
-2.0295e-10
-2.83257e-11
1.1264e-11
-1.95742e-10
9.33318e-12
-2.97312e-14
-1.65021e-10
3.49785e-13
8.12968e-14
9.82039e-15
-1.85687e-14
7.72201e-14
8.51848e-15
-1.97304e-14
6.81548e-14
7.44226e-15
-1.89128e-14
5.93769e-14
5.67314e-15
-1.83768e-14
5.08886e-14
4.19484e-15
-1.83662e-14
4.26786e-14
2.85011e-15
-1.77762e-14
3.47554e-14
1.96168e-15
-1.80386e-14
2.709e-14
1.22452e-15
-2.3287e-14
1.96796e-14
6.74003e-16
1.25485e-14
4.19261e-16
-1.49923e-15
2.98852e-13
5.81449e-14
1.64494e-14
-6.61077e-14
5.34588e-14
1.443e-14
-6.51284e-14
4.52749e-14
1.43152e-14
-6.23051e-14
3.7559e-14
1.10914e-14
-6.02938e-14
3.03579e-14
8.51995e-15
-5.81371e-14
2.36704e-14
6.54691e-15
-5.63742e-14
1.74989e-14
4.85058e-15
-5.57547e-14
1.18573e-14
3.63663e-15
-7.11684e-14
6.77325e-15
2.88759e-15
2.35573e-15
1.86779e-15
-4.39774e-15
2.21437e-13
7.40998e-14
2.35613e-14
-1.65558e-13
6.6887e-14
2.20017e-14
-1.21812e-13
5.61528e-14
2.30372e-14
-1.14777e-13
4.63553e-14
1.86836e-14
-1.08992e-13
3.74318e-14
1.50934e-14
-1.03427e-13
2.92877e-14
1.21723e-14
-9.84411e-14
2.18284e-14
9.97695e-15
-9.52139e-14
1.50212e-14
8.35797e-15
-1.20971e-13
8.76425e-15
7.11356e-15
3.08879e-15
4.91539e-15
-7.30904e-15
9.95083e-14
9.19583e-14
3.87267e-14
-2.88463e-13
8.04746e-14
3.85551e-14
-1.94037e-13
6.59134e-14
3.77804e-14
-1.79326e-13
5.31359e-14
3.10435e-14
-1.66699e-13
4.19515e-14
2.67789e-14
-1.55189e-13
3.21189e-14
2.22552e-14
-1.44555e-13
2.34615e-14
1.88192e-14
-1.37045e-13
1.58077e-14
1.60991e-14
-1.72659e-13
9.0782e-15
1.41219e-14
3.15527e-15
9.58995e-15
-1.03279e-14
-1.66145e-14
1.1569e-13
6.3453e-14
-4.44084e-13
9.78441e-14
6.41395e-14
-2.86115e-13
7.79744e-14
6.04109e-14
-2.58387e-13
6.12527e-14
4.9508e-14
-2.34847e-13
4.71932e-14
4.08803e-14
-2.1387e-13
3.53239e-14
3.41527e-14
-1.95272e-13
2.52609e-14
2.87422e-14
-1.80806e-13
1.6698e-14
2.4542e-14
-2.26308e-13
9.4298e-15
2.12415e-14
3.23501e-15
1.48844e-14
-1.3386e-14
-1.50903e-13
1.47787e-13
1.12669e-13
-6.47538e-13
1.20426e-13
1.08752e-13
-4.03975e-13
9.30444e-14
9.78642e-14
-3.55657e-13
7.10497e-14
7.84967e-14
-3.15379e-13
5.33219e-14
6.35619e-14
-2.80678e-13
3.89377e-14
5.20747e-14
-2.50843e-13
2.72102e-14
4.31228e-14
-2.26939e-13
1.76311e-14
3.62378e-14
-2.82003e-13
9.76926e-15
3.07017e-14
3.31222e-15
2.09612e-14
-1.65358e-14
-5.57124e-13
1.92156e-13
1.93555e-13
-9.1826e-13
1.50121e-13
1.85699e-13
-5.55793e-13
1.12078e-13
1.58143e-13
-4.75893e-13
8.29611e-14
1.23252e-13
-4.11007e-13
6.05153e-14
9.72911e-14
-3.56972e-13
4.30671e-14
7.78556e-14
-3.11826e-13
2.94048e-14
6.31607e-14
-2.75788e-13
1.86211e-14
5.19109e-14
-3.39773e-13
1.01434e-14
4.31337e-14
3.39952e-15
2.83856e-14
-1.97763e-14
-1.07892e-12
2.98409e-13
3.38216e-13
-1.28186e-12
1.90655e-13
3.1724e-13
-7.5317e-13
1.37821e-13
2.54679e-13
-6.25401e-13
9.91167e-14
1.91511e-13
-5.24957e-13
7.09475e-14
1.46602e-13
-4.443e-13
5.06216e-14
1.1413e-13
-3.79105e-13
3.5309e-14
9.02152e-14
-3.27531e-13
2.23696e-14
7.24671e-14
-3.99699e-13
1.21742e-14
5.90047e-14
4.32649e-15
3.76126e-14
-2.30833e-14
-1.86238e-12
1.95976e-12
7.3084e-13
-1.77126e-12
2.4996e-13
5.42556e-13
-1.01222e-12
2.06637e-13
4.08185e-13
-8.1241e-13
1.39397e-13
2.9481e-13
-6.61321e-13
9.33288e-14
2.17777e-13
-5.4461e-13
6.12827e-14
1.64261e-13
-4.53246e-13
3.86967e-14
1.26298e-13
-3.82577e-13
2.26116e-14
9.87774e-14
-4.61853e-13
1.11013e-14
7.84898e-14
2.84954e-15
4.89628e-14
-2.64647e-14
-2.84234e-11
5.14886e-10
1.90776e-08
-2.45655e-12
2.65592e-12
6.01251e-12
-1.72791e-12
8.70782e-13
3.55795e-12
-1.37748e-12
5.96251e-13
3.36761e-12
-1.11579e-12
4.21329e-13
3.09899e-12
-9.20123e-13
3.06048e-13
2.73996e-12
-7.69112e-13
2.28361e-13
2.06849e-12
-6.52608e-13
1.74891e-13
1.46505e-12
-6.54455e-13
1.35532e-13
1.37476e-12
8.37626e-14
-3.00036e-14
1.37805e-12
3.49672e-13
8.12616e-14
1.24857e-14
-1.87429e-14
7.71889e-14
1.12073e-14
-1.98002e-14
6.81283e-14
9.86925e-15
-1.88752e-14
5.93504e-14
8.1086e-15
-1.85611e-14
5.08667e-14
5.0323e-15
-1.8235e-14
4.26701e-14
3.94995e-15
-1.77578e-14
3.47495e-14
2.1861e-15
-1.80993e-14
2.70923e-14
1.0972e-15
-2.32614e-14
1.96948e-14
5.68823e-16
1.2571e-14
1.74842e-16
-1.54716e-15
2.98777e-13
5.80983e-14
2.15821e-14
-6.62405e-14
5.34228e-14
1.88259e-14
-6.50668e-14
4.52427e-14
1.88306e-14
-6.21645e-14
3.7546e-14
1.44811e-14
-6.00308e-14
3.03558e-14
1.12268e-14
-5.80735e-14
2.36725e-14
8.1048e-15
-5.6219e-14
1.75134e-14
6.2063e-15
-5.54474e-14
1.18808e-14
5.06934e-15
-7.11052e-14
6.79909e-15
3.37179e-15
2.38582e-15
2.17489e-15
-4.38863e-15
2.21424e-13
7.40326e-14
3.08473e-14
-1.65748e-13
6.68371e-14
2.96414e-14
-1.21404e-13
5.61148e-14
3.11913e-14
-1.14471e-13
4.63051e-14
2.41403e-14
-1.08768e-13
3.73898e-14
1.9319e-14
-1.03127e-13
2.92616e-14
1.59787e-14
-9.81166e-14
2.1821e-14
1.25139e-14
-9.49961e-14
1.50176e-14
1.14368e-14
-1.20846e-13
8.80614e-15
9.27464e-15
3.13392e-15
6.73541e-15
-7.30514e-15
9.95823e-14
9.19162e-14
5.03215e-14
-2.8862e-13
8.04503e-14
5.01019e-14
-1.93673e-13
6.58912e-14
5.28292e-14
-1.78853e-13
5.31296e-14
4.3142e-14
-1.66334e-13
4.1951e-14
3.53426e-14
-1.54766e-13
3.21349e-14
3.05597e-14
-1.44243e-13
2.34794e-14
2.48028e-14
-1.36571e-13
1.58544e-14
2.14509e-14
-1.72559e-13
9.13684e-15
1.79555e-14
3.22899e-15
1.22063e-14
-1.03381e-14
-1.65111e-14
1.15693e-13
8.75258e-14
-4.44306e-13
9.7874e-14
9.13808e-14
-2.85567e-13
7.80021e-14
9.00863e-14
-2.57917e-13
6.12888e-14
7.34035e-14
-2.34363e-13
4.72378e-14
6.03259e-14
-2.13523e-13
3.53702e-14
4.986e-14
-1.94846e-13
2.53186e-14
4.32988e-14
-1.80387e-13
1.6773e-14
3.68439e-14
-2.2628e-13
9.50618e-15
3.15736e-14
3.34773e-15
2.19216e-14
-1.33843e-14
-1.50834e-13
1.4786e-13
1.54271e-13
-6.47957e-13
1.20532e-13
1.61606e-13
-4.03383e-13
9.31467e-14
1.51791e-13
-3.5522e-13
7.11513e-14
1.21825e-13
-3.14983e-13
5.34175e-14
9.84699e-14
-2.80374e-13
3.9034e-14
8.16299e-14
-2.5047e-13
2.73174e-14
6.85023e-14
-2.26687e-13
1.77259e-14
5.68132e-14
-2.82092e-13
9.87499e-15
4.8846e-14
3.41795e-15
3.20771e-14
-1.6584e-14
-5.57313e-13
1.92355e-13
2.74454e-13
-9.19038e-13
1.50353e-13
2.86626e-13
-5.55387e-13
1.12297e-13
2.49771e-13
-4.75659e-13
8.31501e-14
1.96453e-13
-4.10808e-13
6.06871e-14
1.55782e-13
-3.56811e-13
4.32245e-14
1.26396e-13
-3.11717e-13
2.9541e-14
1.02868e-13
-2.75667e-13
1.87689e-14
8.55074e-14
-3.40129e-13
1.03015e-14
7.20901e-14
3.52698e-15
4.69752e-14
-1.98001e-14
-1.07995e-12
2.99301e-13
4.89802e-13
-1.28324e-12
1.90471e-13
4.97334e-13
-7.53289e-13
1.37593e-13
4.0697e-13
-6.25565e-13
9.88791e-14
3.10219e-13
-5.25147e-13
7.06421e-14
2.39643e-13
-4.44536e-13
5.01267e-14
1.8841e-13
-3.79304e-13
3.51715e-14
1.49618e-13
-3.27668e-13
2.24091e-14
1.21257e-13
-4.00467e-13
1.22765e-14
9.83276e-14
4.48696e-15
6.40562e-14
-2.3105e-14
-1.86533e-12
1.93493e-12
1.11568e-12
-1.77366e-12
2.83586e-13
8.60754e-13
-1.01324e-12
2.42785e-13
6.60847e-13
-8.13425e-13
1.60841e-13
4.8158e-13
-6.62253e-13
1.04481e-13
3.58862e-13
-5.45439e-13
6.38502e-14
2.73104e-13
-4.54022e-13
2.98925e-14
2.10734e-13
-3.8321e-13
1.64585e-14
1.65431e-13
-4.63079e-13
8.38377e-15
1.3176e-13
2.91011e-15
8.18618e-14
-2.65341e-14
-2.81738e-11
7.77845e-10
1.92749e-08
-2.10436e-12
3.15197e-12
2.64362e-12
-1.35464e-12
9.67396e-13
1.79908e-13
-1.05014e-12
6.78736e-13
1.28917e-13
-8.2704e-13
4.89004e-13
8.85901e-14
-6.61613e-13
3.60035e-13
6.18445e-14
-5.36653e-13
2.70068e-13
4.6398e-14
-4.42254e-13
2.05641e-13
3.60222e-14
-5.27781e-13
1.59681e-13
2.85678e-14
9.69657e-14
-3.00675e-14
2.34234e-14
3.49468e-13
8.13905e-14
1.69504e-14
-1.90189e-14
7.72969e-14
1.44191e-14
-1.98999e-14
6.82186e-14
1.25516e-14
-1.92563e-14
5.94214e-14
8.89053e-15
-1.85519e-14
5.09278e-14
7.38817e-15
-1.84063e-14
4.27215e-14
4.73762e-15
-1.79125e-14
3.47969e-14
3.64534e-15
-1.8105e-14
2.71395e-14
2.3362e-15
-2.32933e-14
1.97367e-14
1.13391e-15
1.26112e-14
3.20896e-16
-1.5554e-15
2.98437e-13
5.82424e-14
2.82901e-14
-6.6583e-14
5.35548e-14
2.46598e-14
-6.5399e-14
4.53526e-14
2.41367e-14
-6.23979e-14
3.76376e-14
1.88144e-14
-6.01953e-14
3.04371e-14
1.34661e-14
-5.82293e-14
2.37452e-14
1.09135e-14
-5.6249e-14
1.75755e-14
8.12911e-15
-5.5652e-14
1.19392e-14
6.24887e-15
-7.11584e-14
6.85241e-15
4.84879e-15
2.43314e-15
2.60925e-15
-4.38993e-15
2.20892e-13
7.42674e-14
3.98651e-14
-1.66472e-13
6.70381e-14
3.75152e-14
-1.21858e-13
5.62876e-14
3.91234e-14
-1.14772e-13
4.64592e-14
3.17729e-14
-1.08959e-13
3.75215e-14
2.51664e-14
-1.03432e-13
2.93838e-14
2.02224e-14
-9.81368e-14
2.19328e-14
1.7582e-14
-9.52362e-14
1.51055e-14
1.31501e-14
-1.20927e-13
8.88297e-15
1.25759e-14
3.19679e-15
7.66513e-15
-7.35631e-15
9.8983e-14
9.23003e-14
6.58839e-14
-2.89627e-13
8.07927e-14
6.66268e-14
-1.94276e-13
6.61702e-14
6.68045e-14
-1.79358e-13
5.33637e-14
5.5226e-14
-1.6666e-13
4.21523e-14
4.57105e-14
-1.55134e-13
3.22946e-14
3.68032e-14
-1.4448e-13
2.36349e-14
3.21755e-14
-1.36829e-13
1.60038e-14
2.73466e-14
-1.72767e-13
9.28212e-15
2.49232e-14
3.37482e-15
1.73436e-14
-1.03179e-14
-1.75735e-14
1.16305e-13
1.13024e-13
-4.45925e-13
9.83886e-14
1.17454e-13
-2.86507e-13
7.8433e-14
1.14648e-13
-2.58699e-13
6.16433e-14
9.4736e-14
-2.35055e-13
4.7532e-14
7.85744e-14
-2.13987e-13
3.56345e-14
6.5486e-14
-1.95312e-13
2.5534e-14
5.46743e-14
-1.80771e-13
1.6949e-14
4.66178e-14
-2.26685e-13
9.6548e-15
4.12797e-14
3.47097e-15
2.69699e-14
-1.34055e-14
-1.52549e-13
1.48824e-13
2.01924e-13
-6.50594e-13
1.21337e-13
2.10244e-13
-4.04997e-13
9.37817e-14
1.94232e-13
-3.56562e-13
7.16684e-14
1.56499e-13
-3.16017e-13
5.38418e-14
1.28243e-13
-2.81291e-13
3.93798e-14
1.05928e-13
-2.51253e-13
2.76073e-14
8.69079e-14
-2.27307e-13
1.7985e-14
7.43724e-14
-2.82828e-13
1.01145e-14
6.26269e-14
3.62034e-15
4.23589e-14
-1.65748e-14
-5.62158e-13
1.93872e-13
3.58189e-13
-9.23527e-13
1.51552e-13
3.6916e-13
-5.5803e-13
1.13227e-13
3.23544e-13
-4.77863e-13
8.38818e-14
2.5271e-13
-4.12568e-13
6.12703e-14
2.02507e-13
-3.5832e-13
4.36917e-14
1.61554e-13
-3.12932e-13
2.99234e-14
1.31824e-13
-2.76682e-13
1.90836e-14
1.08467e-13
-3.41351e-13
1.05392e-14
9.06612e-14
3.7593e-15
5.95217e-14
-1.9832e-14
-1.08905e-12
3.02145e-13
6.38206e-13
-1.29072e-12
1.92276e-13
6.44552e-13
-7.57707e-13
1.38941e-13
5.27854e-13
-6.29128e-13
9.98897e-14
4.00091e-13
-5.28011e-13
7.14055e-14
3.08384e-13
-4.46899e-13
5.06918e-14
2.40676e-13
-3.81202e-13
3.56447e-14
1.92092e-13
-3.29329e-13
2.28316e-14
1.54343e-13
-4.02307e-13
1.26348e-14
1.26456e-13
4.77715e-15
8.07614e-14
-2.31709e-14
-1.88228e-12
1.93958e-12
1.44747e-12
-1.78603e-12
2.86716e-13
1.1179e-12
-1.02054e-12
2.45399e-13
8.53603e-13
-8.19102e-13
1.62686e-13
6.22681e-13
-6.66712e-13
1.0579e-13
4.63232e-13
-5.49055e-13
6.47826e-14
3.50444e-13
-4.56918e-13
3.04503e-14
2.70499e-13
-3.85611e-13
1.68725e-14
2.13087e-13
-4.65836e-13
8.67902e-15
1.69162e-13
3.22108e-15
1.06098e-13
-2.66009e-14
-2.8208e-11
9.76278e-10
1.93053e-08
-2.12161e-12
4.24685e-12
2.62085e-12
-1.36552e-12
1.36208e-12
1.12674e-13
-1.05841e-12
9.48714e-13
8.26959e-14
-8.33439e-13
6.79063e-13
6.29196e-14
-6.66625e-13
4.97346e-13
4.89054e-14
-5.40623e-13
3.72461e-13
3.86909e-14
-4.45485e-13
2.83714e-13
3.10912e-14
-5.31489e-13
2.18456e-13
2.53478e-14
1.34453e-13
-3.01736e-14
2.09964e-14
3.49159e-13
8.15533e-14
2.00721e-14
-1.93635e-14
7.74375e-14
1.67633e-14
-2.02925e-14
6.83326e-14
1.56725e-14
-1.92891e-14
5.95189e-14
1.20978e-14
-1.88972e-14
5.10026e-14
8.05e-15
-1.847e-14
4.2789e-14
5.75227e-15
-1.80088e-14
3.48544e-14
3.17439e-15
-1.82711e-14
2.71934e-14
1.9495e-15
-2.33451e-14
1.97891e-14
9.57466e-16
1.2661e-14
6.85843e-16
-1.55106e-15
2.97986e-13
5.84267e-14
3.42408e-14
-6.70332e-14
5.37184e-14
3.04489e-14
-6.56585e-14
4.54926e-14
2.90351e-14
-6.28524e-14
3.77555e-14
2.32119e-14
-6.02973e-14
3.05421e-14
1.88019e-14
-5.84653e-14
2.38372e-14
1.29906e-14
-5.63428e-14
1.76605e-14
9.3815e-15
-5.57528e-14
1.20119e-14
6.7952e-15
-7.1241e-14
6.92188e-15
5.66937e-15
2.49213e-15
4.14096e-15
-4.40078e-15
2.20176e-13
7.4575e-14
4.82512e-14
-1.67399e-13
6.73102e-14
4.54287e-14
-1.22328e-13
5.65094e-14
4.75759e-14
-1.15224e-13
4.66496e-14
3.8152e-14
-1.09262e-13
3.769e-14
3.08747e-14
-1.03606e-13
2.9521e-14
2.50337e-14
-9.84793e-14
2.20633e-14
1.94543e-14
-9.51583e-14
1.52447e-14
1.80989e-14
-1.21089e-13
9.00066e-15
1.40315e-14
3.33743e-15
1.00076e-14
-7.34959e-15
9.82034e-14
9.27883e-14
7.95318e-14
-2.90962e-13
8.12193e-14
7.93809e-14
-1.94964e-13
6.65293e-14
8.23634e-14
-1.79948e-13
5.367e-14
6.71363e-14
-1.67263e-13
4.24136e-14
5.51216e-14
-1.55429e-13
3.25313e-14
4.62373e-14
-1.44854e-13
2.3834e-14
3.90418e-14
-1.37036e-13
1.61728e-14
3.35226e-14
-1.73038e-13
9.44421e-15
2.85902e-14
3.49484e-15
1.87504e-14
-1.03485e-14
-1.89677e-14
1.171e-13
1.38563e-13
-4.48003e-13
9.90628e-14
1.43751e-13
-2.87677e-13
7.8984e-14
1.4184e-13
-2.59702e-13
6.20967e-14
1.14613e-13
-2.359e-13
4.79111e-14
9.42026e-14
-2.1468e-13
3.596e-14
7.87899e-14
-1.95897e-13
2.58094e-14
6.61256e-14
-1.81169e-13
1.72038e-14
5.71956e-14
-2.27237e-13
9.86496e-15
4.90535e-14
3.68534e-15
3.34336e-14
-1.34244e-14
-1.54791e-13
1.50066e-13
2.43061e-13
-6.54019e-13
1.22359e-13
2.566e-13
-4.0705e-13
9.46065e-14
2.36659e-13
-3.58225e-13
7.23302e-14
1.89822e-13
-3.17396e-13
5.43906e-14
1.53925e-13
-2.8251e-13
3.98223e-14
1.25448e-13
-2.52159e-13
2.79841e-14
1.06044e-13
-2.28172e-13
1.82911e-14
8.95331e-14
-2.83763e-13
1.03878e-14
7.75114e-14
3.84485e-15
5.09602e-14
-1.66037e-14
-5.68523e-13
1.95827e-13
4.34067e-13
-9.29228e-13
1.53107e-13
4.50459e-13
-5.61543e-13
1.14426e-13
3.89577e-13
-4.8059e-13
8.48284e-14
3.06064e-13
-4.14926e-13
6.20117e-14
2.42218e-13
-3.60209e-13
4.42938e-14
1.95855e-13
-3.14525e-13
3.04176e-14
1.6016e-13
-2.78004e-13
1.94886e-14
1.33976e-13
-3.42897e-13
1.08777e-14
1.11687e-13
4.05085e-15
7.19824e-14
-1.98648e-14
-1.10084e-12
3.05823e-13
7.77017e-13
-1.30034e-12
1.94618e-13
7.82278e-13
-7.63436e-13
1.40683e-13
6.37009e-13
-6.33706e-13
1.01206e-13
4.83616e-13
-5.31715e-13
7.24124e-14
3.72881e-13
-4.49889e-13
5.14338e-14
2.92652e-13
-3.83702e-13
3.62472e-14
2.32202e-13
-3.3139e-13
2.33898e-14
1.87743e-13
-4.04697e-13
1.30975e-14
1.54039e-13
5.15981e-15
9.84413e-14
-2.32156e-14
-1.90427e-12
1.95043e-12
1.75669e-12
-1.80198e-12
2.90868e-13
1.35317e-12
-1.02995e-12
2.49304e-13
1.03404e-12
-8.26406e-13
1.65514e-13
7.52624e-13
-6.72504e-13
1.07904e-13
5.58958e-13
-5.53679e-13
6.65568e-14
4.24234e-13
-4.60625e-13
3.13826e-14
3.26973e-13
-3.88711e-13
1.74234e-14
2.56712e-13
-4.69364e-13
9.04261e-15
2.05285e-13
3.61503e-15
1.29169e-13
-2.66824e-14
-2.82975e-11
1.17325e-09
1.93489e-08
-2.14542e-12
5.12984e-12
2.61823e-12
-1.38071e-12
1.65152e-12
1.12526e-13
-1.06986e-12
1.15055e-12
8.29446e-14
-8.42233e-13
8.2283e-13
6.32995e-14
-6.73479e-13
6.03261e-13
4.93349e-14
-5.46073e-13
4.50239e-13
3.91426e-14
-4.4991e-13
3.42556e-13
3.15614e-14
-5.36457e-13
2.68108e-13
2.58448e-14
1.63813e-13
-3.03082e-14
2.15369e-14
3.48767e-13
8.17528e-14
2.40697e-14
-1.97628e-14
7.76135e-14
2.31364e-14
-2.0646e-14
6.84706e-14
1.98912e-14
-1.96413e-14
5.96331e-14
1.5039e-14
-1.90798e-14
5.11044e-14
1.06564e-14
-1.87755e-14
4.28707e-14
6.05435e-15
-1.80443e-14
3.49302e-14
3.89285e-15
-1.84233e-14
2.72601e-14
1.92904e-15
-2.33941e-14
1.98543e-14
1.29904e-15
1.27259e-14
5.86381e-16
-1.57101e-15
2.97437e-13
5.86516e-14
4.17043e-14
-6.75875e-14
5.39156e-14
3.88526e-14
-6.60332e-14
4.56621e-14
3.76903e-14
-6.30306e-14
3.78992e-14
2.87183e-14
-6.08158e-14
3.06633e-14
2.11203e-14
-5.86057e-14
2.39514e-14
1.46677e-14
-5.6553e-14
1.77594e-14
1.05043e-14
-5.58221e-14
1.21082e-14
7.26154e-15
-7.13081e-14
7.00468e-15
5.13719e-15
2.56262e-15
4.20121e-15
-4.40923e-15
2.1929e-13
7.49466e-14
5.97544e-14
-1.68532e-13
6.76363e-14
5.99386e-14
-1.22926e-13
5.67835e-14
6.06874e-14
-1.157e-13
4.68869e-14
4.84856e-14
-1.09616e-13
3.78953e-14
3.87116e-14
-1.04069e-13
2.96971e-14
3.00512e-14
-9.84902e-14
2.2238e-14
2.27885e-14
-9.55218e-14
1.53835e-14
1.77124e-14
-1.21246e-13
9.1452e-15
1.45933e-14
3.45568e-15
9.2899e-15
-7.36759e-15
9.72337e-14
9.33962e-14
9.69682e-14
-2.92555e-13
8.17465e-14
1.03591e-13
-1.95867e-13
6.69732e-14
1.04093e-13
-1.8072e-13
5.40378e-14
8.45091e-14
-1.67856e-13
4.27298e-14
6.85413e-14
-1.55935e-13
3.28144e-14
5.67469e-14
-1.45204e-13
2.40708e-14
4.40666e-14
-1.3737e-13
1.63916e-14
3.66615e-14
-1.73402e-13
9.63314e-15
3.05257e-14
3.70558e-15
1.9254e-14
-1.03337e-14
-2.07011e-14
1.18059e-13
1.69101e-13
-4.50509e-13
9.98844e-14
1.83937e-13
-2.89227e-13
7.96525e-14
1.76963e-13
-2.60919e-13
6.26549e-14
1.4366e-13
-2.36872e-13
4.83811e-14
1.17541e-13
-2.15555e-13
3.63395e-14
9.69306e-14
-1.96558e-13
2.61545e-14
8.03366e-14
-1.8179e-13
1.74952e-14
6.46384e-14
-2.27876e-13
1.01508e-14
5.39156e-14
3.91679e-15
3.40934e-14
-1.34519e-14
-1.57535e-13
1.51592e-13
3.01544e-13
-6.58197e-13
1.23611e-13
3.25917e-13
-4.0955e-13
9.56069e-14
2.98149e-13
-3.60257e-13
7.31408e-14
2.39073e-13
-3.19175e-13
5.50479e-14
1.93452e-13
-2.83825e-13
4.03845e-14
1.58039e-13
-2.53413e-13
2.84443e-14
1.28936e-13
-2.29068e-13
1.86954e-14
1.02684e-13
-2.84939e-13
1.07075e-14
8.55208e-14
4.12634e-15
5.39038e-14
-1.66282e-14
-5.76312e-13
1.98228e-13
5.36253e-13
-9.36246e-13
1.55008e-13
5.74197e-13
-5.65724e-13
1.15897e-13
4.96576e-13
-4.84045e-13
8.59811e-14
3.87182e-13
-4.17701e-13
6.29324e-14
3.05787e-13
-3.62534e-13
4.50302e-14
2.43933e-13
-3.16446e-13
3.10146e-14
1.96059e-13
-2.79639e-13
1.99715e-14
1.54221e-13
-3.44805e-13
1.1288e-14
1.25801e-13
4.40605e-15
7.95959e-14
-1.99044e-14
-1.11534e-12
3.10335e-13
9.57295e-13
-1.3121e-12
1.97484e-13
1.00548e-12
-7.70441e-13
1.42823e-13
8.14502e-13
-6.39303e-13
1.0282e-13
6.13025e-13
-5.36208e-13
7.36334e-14
4.69268e-13
-4.53587e-13
5.23329e-14
3.64263e-13
-3.86731e-13
3.69823e-14
2.86208e-13
-3.33915e-13
2.40633e-14
2.25436e-13
-4.07617e-13
1.36564e-14
1.76253e-13
5.62697e-15
1.10037e-13
-2.32986e-14
-1.93131e-12
1.96518e-12
2.15264e-12
-1.82148e-12
2.95979e-13
1.74976e-12
-1.04148e-12
2.54102e-13
1.3244e-12
-8.35381e-13
1.68987e-13
9.57377e-13
-6.79556e-13
1.10498e-13
7.06972e-13
-5.59336e-13
6.8693e-14
5.3045e-13
-4.65184e-13
3.25562e-14
4.05846e-13
-3.92476e-13
1.81055e-14
3.12532e-13
-4.7366e-13
9.49732e-15
2.38936e-13
4.09616e-15
1.46418e-13
-2.67984e-14
-2.84348e-11
1.45387e-09
1.94208e-08
-2.17479e-12
6.41142e-12
2.64308e-12
-1.39936e-12
2.12519e-12
1.12625e-13
-1.08393e-12
1.46864e-12
8.33724e-14
-8.53004e-13
1.04299e-12
6.38221e-14
-6.81912e-13
7.5631e-13
4.98928e-14
-5.52766e-13
5.60538e-13
3.9718e-14
-4.55236e-13
4.22359e-13
3.21548e-14
-5.42582e-13
3.14936e-13
2.64614e-14
1.88683e-13
-3.04253e-14
2.22346e-14
3.4832e-13
8.19871e-14
3.73036e-14
-2.02592e-14
7.78057e-14
2.27818e-14
-2.10449e-14
6.86312e-14
2.00756e-14
-1.98812e-14
5.97644e-14
1.51832e-14
-1.95878e-14
5.12143e-14
1.55271e-14
-1.87214e-14
4.29706e-14
8.45217e-15
-1.84349e-14
3.5018e-14
6.20762e-15
-1.83151e-14
2.73456e-14
5.51149e-15
-2.35253e-14
1.99324e-14
9.96028e-15
1.28071e-14
2.85263e-14
-1.54412e-15
2.96765e-13
5.89197e-14
6.15822e-14
-6.82101e-14
5.41482e-14
3.85948e-14
-6.6625e-14
4.5854e-14
3.82143e-14
-6.34112e-14
3.80678e-14
2.98936e-14
-6.1199e-14
3.08125e-14
2.51858e-14
-5.8784e-14
2.40844e-14
1.81446e-14
-5.67667e-14
1.78799e-14
1.42422e-14
-5.60357e-14
1.22165e-14
1.2152e-14
-7.14709e-14
7.10867e-15
1.35368e-14
2.65071e-15
2.39359e-14
-4.38495e-15
2.18238e-13
7.53789e-14
8.88958e-14
-1.69858e-13
6.80094e-14
5.95971e-14
-1.2357e-13
5.71034e-14
6.24233e-14
-1.16268e-13
4.71584e-14
5.04689e-14
-1.10076e-13
3.81279e-14
4.0811e-14
-1.0441e-13
2.99137e-14
3.85234e-14
-9.88666e-14
2.24144e-14
2.84564e-14
-9.55217e-14
1.55703e-14
2.48114e-14
-1.21535e-13
9.30021e-15
2.38278e-14
3.6246e-15
2.63918e-14
-7.33528e-15
9.60948e-14
9.41101e-14
1.48196e-13
-2.94401e-13
8.2352e-14
1.05224e-13
-1.96902e-13
6.7477e-14
1.08254e-13
-1.81627e-13
5.44646e-14
8.88984e-14
-1.68446e-13
4.31009e-14
7.37005e-14
-1.56673e-13
3.31282e-14
8.2059e-14
-1.45576e-13
2.43756e-14
4.73437e-14
-1.37771e-13
1.66521e-14
4.63874e-14
-1.73865e-13
9.8685e-15
4.24663e-14
3.92521e-15
3.63096e-14
-1.03554e-14
-2.27487e-14
1.19201e-13
2.58636e-13
-4.53407e-13
1.0083e-13
1.90458e-13
-2.90934e-13
8.04318e-14
1.86676e-13
-2.62324e-13
6.33095e-14
1.52916e-13
-2.38048e-13
4.89332e-14
1.34815e-13
-2.16504e-13
3.6817e-14
1.37405e-13
-1.97416e-13
2.65541e-14
7.38922e-14
-1.82494e-13
1.78409e-14
7.83852e-14
-2.28693e-13
1.04705e-14
6.95539e-14
4.18727e-15
5.25373e-14
-1.34716e-14
-1.60857e-13
1.53387e-13
4.5706e-13
-6.62958e-13
1.25063e-13
3.42517e-13
-4.12411e-13
9.67794e-14
3.16449e-13
-3.62638e-13
7.40921e-14
2.69821e-13
-3.21121e-13
5.58286e-14
2.44068e-13
-2.85482e-13
4.10309e-14
2.23033e-13
-2.54906e-13
2.89879e-14
1.85665e-13
-2.30182e-13
1.91431e-14
1.03034e-13
-2.86355e-13
1.10951e-14
1.05913e-13
4.49128e-15
7.50419e-14
-1.66729e-14
-5.85566e-13
2.01054e-13
8.09486e-13
-9.44204e-13
1.57218e-13
6.49551e-13
-5.70606e-13
1.17614e-13
6.09918e-13
-4.87999e-13
8.73287e-14
4.92461e-13
-4.20951e-13
6.40059e-14
4.10016e-13
-3.65232e-13
4.5896e-14
3.48136e-13
-3.18852e-13
3.17215e-14
2.88671e-13
-2.81523e-13
2.05819e-14
1.45352e-13
-3.47057e-13
1.17683e-14
1.52876e-13
4.79725e-15
1.03654e-13
-1.99545e-14
-1.13231e-12
3.15658e-13
1.43763e-12
-1.32552e-12
2.00815e-13
1.29568e-12
-7.78586e-13
1.45314e-13
1.08354e-12
-6.45758e-13
1.04713e-13
8.30899e-13
-5.41454e-13
7.50829e-14
6.54148e-13
-4.5787e-13
5.34137e-14
5.25775e-13
-3.903e-13
3.78529e-14
4.22274e-13
-3.37022e-13
2.48456e-14
2.86755e-13
-4.11088e-13
1.43227e-14
1.74108e-13
6.17647e-15
1.38774e-13
-2.33832e-14
-1.96278e-12
1.93586e-12
3.10691e-12
-1.84388e-12
3.01862e-13
2.3936e-12
-1.05481e-12
2.59731e-13
1.83757e-12
-8.45723e-13
1.73062e-13
1.34232e-12
-6.87814e-13
1.13546e-13
1.00674e-12
-5.65882e-13
7.11706e-14
7.72314e-13
-4.7058e-13
3.39995e-14
5.97976e-13
-3.97014e-13
1.89309e-14
4.41991e-13
-4.78786e-13
1.00438e-14
2.26544e-13
4.66935e-15
1.80704e-13
-2.69064e-14
-2.84518e-11
1.5269e-09
1.96215e-08
-2.20794e-12
8.30272e-12
2.37867e-12
-1.42087e-12
3.00574e-12
1.12481e-13
-1.1002e-12
2.09476e-12
8.38818e-14
-8.65578e-13
1.5041e-12