/*--------------------------------*- C++ -*----------------------------------*\
| =========                 |                                                 |
| \\      /  F ield         | OpenFOAM: The Open Source CFD Toolbox           |
|  \\    /   O peration     | Version:  4.1                                   |
|   \\  /    A nd           | Web:      www.OpenFOAM.org                      |
|    \\/     M anipulation  |                                                 |
\*---------------------------------------------------------------------------*/
FoamFile
{
    version     2.0;
    format      ascii;
    class       volVectorField;
    location    "0.06";
    object      U;
}
// * * * * * * * * * * * * * * * * * * * * * * * * * * * * * * * * * * * * * //

dimensions      [0 1 -1 0 0 0 0];

internalField   nonuniform List<vector> 
18000
(
(7.3658e-14 3.94698e-13 -6.68722e-12)
(8.08202e-14 3.92505e-13 -6.60832e-12)
(7.3371e-14 -1.00074e-14 -6.53047e-12)
(6.60947e-14 -1.02318e-14 -6.45372e-12)
(5.89949e-14 -1.01194e-14 -6.37806e-12)
(5.20691e-14 -9.99636e-15 -6.30345e-12)
(4.53103e-14 -9.91035e-15 -6.22989e-12)
(3.87242e-14 -9.80236e-15 -6.15736e-12)
(3.22915e-14 -9.70381e-15 -6.08582e-12)
(2.60232e-14 -8.29614e-15 -6.01576e-12)
(9.19013e-14 4.10568e-13 -8.45294e-12)
(1.11105e-13 4.02345e-13 -8.14042e-12)
(9.8351e-14 -3.73032e-14 -7.84161e-12)
(8.63336e-14 -3.6443e-14 -7.55622e-12)
(7.5044e-14 -3.52677e-14 -7.28355e-12)
(6.44247e-14 -3.41338e-14 -7.02283e-12)
(5.44309e-14 -3.30594e-14 -6.77354e-12)
(4.50444e-14 -3.20203e-14 -6.53497e-12)
(3.61963e-14 -3.10328e-14 -6.30665e-12)
(2.78893e-14 -2.57763e-14 -6.08946e-12)
(8.97121e-14 4.21461e-13 -1.08294e-11)
(1.08775e-13 4.06507e-13 -1.01345e-11)
(9.08564e-14 -7.50474e-14 -9.49289e-12)
(7.46921e-14 -7.12143e-14 -8.90052e-12)
(6.01281e-14 -6.72704e-14 -8.353e-12)
(4.69851e-14 -6.36328e-14 -7.84627e-12)
(3.51238e-14 -6.02359e-14 -7.37696e-12)
(2.44132e-14 -5.70769e-14 -6.94169e-12)
(1.47411e-14 -5.41323e-14 -6.5377e-12)
(6.01713e-15 -4.39318e-14 -6.16437e-12)
(1.17019e-13 4.22932e-13 -1.40813e-11)
(1.34404e-13 4.01262e-13 -1.27636e-11)
(1.09106e-13 -1.27051e-13 -1.1593e-11)
(8.72854e-14 -1.17069e-13 -1.05513e-11)
(6.84484e-14 -1.07755e-13 -9.62231e-12)
(5.21614e-14 -9.93938e-14 -8.79191e-12)
(3.80769e-14 -9.18624e-14 -8.04795e-12)
(2.58671e-14 -8.50464e-14 -7.38006e-12)
(1.52886e-14 -7.88521e-14 -6.77919e-12)
(6.12627e-15 -6.2686e-14 -6.24043e-12)
(1.55451e-13 4.07136e-13 -1.86146e-11)
(1.68363e-13 3.80415e-13 -1.62799e-11)
(1.32365e-13 -1.99017e-13 -1.42927e-11)
(1.02749e-13 -1.77782e-13 -1.25943e-11)
(7.83139e-14 -1.59058e-13 -1.11371e-11)
(5.811e-14 -1.42808e-13 -9.88161e-12)
(4.1356e-14 -1.28654e-13 -8.79569e-12)
(2.74365e-14 -1.16292e-13 -7.85304e-12)
(1.58576e-14 -1.05388e-13 -7.0318e-12)
(6.23077e-15 -8.2052e-14 -6.31776e-12)
(2.10824e-13 3.60556e-13 -2.50657e-11)
(2.14173e-13 3.3377e-13 -2.1058e-11)
(1.62406e-13 -2.99435e-13 -1.78043e-11)
(1.21903e-13 -2.58512e-13 -1.51442e-11)
(9.00866e-14 -2.24203e-13 -1.29552e-11)
(6.49491e-14 -1.9557e-13 -1.11419e-11)
(4.50077e-14 -1.7154e-13 -9.63066e-12)
(2.91239e-14 -1.51197e-13 -8.36387e-12)
(1.64641e-14 -1.33826e-13 -7.29614e-12)
(6.33756e-15 -1.02066e-13 -6.39628e-12)
(2.9274e-13 2.59232e-13 -3.44618e-11)
(2.77214e-13 2.44523e-13 -2.76649e-11)
(2.01767e-13 -4.40909e-13 -2.24304e-11)
(1.45908e-13 -3.66586e-13 -1.83556e-11)
(1.04232e-13 -3.07277e-13 -1.51508e-11)
(7.28528e-14 -2.5984e-13 -1.26053e-11)
(4.90716e-14 -2.21503e-13 -1.05651e-11)
(3.09565e-14 -1.90184e-13 -8.91615e-12)
(1.70888e-14 -1.64344e-13 -7.57282e-12)
(6.44835e-15 -1.2276e-13 -6.47605e-12)
(3.94632e-13 5.99876e-14 -4.85125e-11)
(3.4402e-13 8.41641e-14 -3.69797e-11)
(2.33597e-13 -6.42597e-13 -2.86108e-11)
(1.57037e-13 -5.12335e-13 -2.24397e-11)
(1.03184e-13 -4.13727e-13 -1.78195e-11)
(6.48675e-14 -3.38347e-13 -1.43113e-11)
(3.73442e-14 -2.79815e-13 -1.16133e-11)
(1.7448e-14 -2.33775e-13 -9.51394e-12)
(2.97396e-15 -1.97081e-13 -7.86255e-12)
(-8.09086e-15 -1.44114e-13 -6.55714e-12)
(-5.18306e-10 -3.19011e-13 -7.04401e-11)
(-4.89604e-10 -1.93804e-13 -5.06367e-11)
(-4.56585e-10 -9.30528e-13 -3.72011e-11)
(-4.27677e-10 -7.07198e-13 -2.78685e-11)
(-4.02174e-10 -5.4778e-13 -2.12444e-11)
(-3.79517e-10 -4.3172e-13 -1.64499e-11)
(-3.59258e-10 -3.45519e-13 -1.29183e-11)
(-3.4104e-10 -2.80359e-13 -1.02755e-11)
(-3.24571e-10 -2.31668e-13 -8.26901e-12)
(-3.1004e-10 -1.67524e-13 -6.73678e-12)
(7.30903e-08 -3.68424e-11 -6.47442e-09)
(2.13033e-08 7.23127e-11 -5.49482e-09)
(1.81718e-08 8.33096e-11 -4.71912e-09)
(1.56612e-08 7.30699e-11 -4.09725e-09)
(1.36086e-08 6.45414e-11 -3.59091e-09)
(1.19088e-08 5.73902e-11 -3.17309e-09)
(1.04851e-08 5.13427e-11 -2.82425e-09)
(9.28062e-09 4.61891e-11 -2.52997e-09)
(8.24944e-09 4.06307e-11 -2.27942e-09)
(-1.88555e-09 -5.95064e-13 -2.06726e-09)
(2.74312e-13 3.70403e-13 -6.72321e-12)
(2.56187e-13 3.44285e-13 -6.64357e-12)
(2.24513e-13 -5.76921e-14 -6.56478e-12)
(1.94084e-13 -5.73661e-14 -6.48711e-12)
(1.64857e-13 -5.67117e-14 -6.41064e-12)
(1.36762e-13 -5.60525e-14 -6.33529e-12)
(1.09768e-13 -5.54361e-14 -6.26093e-12)
(8.38153e-14 -5.48133e-14 -6.18779e-12)
(5.88632e-14 -5.40168e-14 -6.11562e-12)
(3.5019e-14 -3.12051e-14 -6.04495e-12)
(5.55517e-13 3.18338e-13 -8.50342e-12)
(5.09503e-13 2.22008e-13 -8.18815e-12)
(4.36118e-13 -2.11012e-13 -7.88641e-12)
(3.678e-13 -2.03653e-13 -7.59837e-12)
(3.04208e-13 -1.96317e-13 -7.32325e-12)
(2.44973e-13 -1.89299e-13 -7.06022e-12)
(1.89793e-13 -1.82609e-13 -6.80887e-12)
(1.38374e-13 -1.7623e-13 -6.56841e-12)
(9.04396e-14 -1.69543e-13 -6.33838e-12)
(4.60049e-14 -9.6284e-14 -6.11949e-12)
(6.87784e-13 2.25526e-13 -1.0902e-11)
(6.07734e-13 2.97122e-14 -1.02004e-11)
(5.01886e-13 -4.27725e-13 -9.5525e-12)
(4.07699e-13 -4.01386e-13 -8.95446e-12)
(3.23906e-13 -3.7669e-13 -8.40196e-12)
(2.49316e-13 -3.53841e-13 -7.89083e-12)
(1.82883e-13 -3.32669e-13 -7.41761e-12)
(1.23735e-13 -3.13055e-13 -6.97881e-12)
(7.10533e-14 -2.94004e-13 -6.57168e-12)
(2.43797e-14 -1.64296e-13 -6.19555e-12)
(8.99966e-13 6.88626e-14 -1.41879e-11)
(7.66459e-13 -2.67368e-13 -1.28564e-11)
(6.13567e-13 -7.3355e-13 -1.16736e-11)
(4.83712e-13 -6.67976e-13 -1.06213e-11)
(3.73374e-13 -6.09065e-13 -9.6835e-12)
(2.79528e-13 -5.56475e-13 -8.84552e-12)
(1.99642e-13 -5.09352e-13 -8.0951e-12)
(1.31636e-13 -4.67037e-13 -7.42171e-12)
(7.37327e-14 -4.27815e-13 -6.81595e-12)
(2.4742e-14 -2.35147e-13 -6.27309e-12)
(1.19736e-12 -1.89089e-13 -1.87753e-11)
(9.79183e-13 -7.23269e-13 -1.64133e-11)
(7.57351e-13 -1.16606e-12 -1.44034e-11)
(5.779e-13 -1.02774e-12 -1.26865e-11)
(4.32471e-13 -9.08554e-13 -1.12144e-11)
(3.14362e-13 -8.05975e-13 -9.94668e-12)
(2.18325e-13 -7.17281e-13 -8.85082e-12)
(1.40165e-13 -6.40322e-13 -7.89995e-12)
(7.6553e-14 -5.71746e-13 -7.07187e-12)
(2.51048e-14 -3.08998e-13 -6.35221e-12)
(1.62301e-12 -6.09379e-13 -2.53145e-11)
(1.26891e-12 -1.42277e-12 -2.12534e-11)
(9.44662e-13 -1.78082e-12 -1.79589e-11)
(6.95586e-13 -1.51464e-12 -1.52669e-11)
(5.03454e-13 -1.29509e-12 -1.30537e-11)
(3.54678e-13 -1.11342e-12 -1.12216e-11)
(2.39187e-13 -9.62079e-13 -9.69563e-12)
(1.49373e-13 -8.35309e-13 -8.4172e-12)
(7.95128e-14 -7.26596e-13 -7.34017e-12)
(2.54628e-14 -3.86003e-13 -6.43294e-12)
(2.24691e-12 -1.29455e-12 -3.48576e-11)
(1.67053e-12 -2.50215e-12 -2.79577e-11)
(1.19185e-12 -2.66111e-12 -2.26494e-11)
(8.43977e-13 -2.17658e-12 -1.8521e-11)
(5.89243e-13 -1.7952e-12 -1.52775e-11)
(4.0153e-13 -1.49267e-12 -1.27034e-11)
(2.62551e-13 -1.25041e-12 -1.0642e-11)
(1.59349e-13 -1.05477e-12 -8.97711e-12)
(8.25991e-14 -8.93257e-13 -7.62139e-12)
(2.58417e-14 -4.66328e-13 -6.51536e-12)
(3.18807e-12 -2.42137e-12 -4.91623e-11)
(2.2392e-12 -4.18531e-12 -3.7428e-11)
(1.52336e-12 -3.93382e-12 -2.89261e-11)
(1.03339e-12 -3.08195e-12 -2.2665e-11)
(6.93947e-13 -2.44452e-12 -1.79837e-11)
(4.56421e-13 -1.9614e-12 -1.4433e-11)
(2.88942e-13 -1.59031e-12 -1.1705e-11)
(1.70239e-13 -1.30192e-12 -9.5838e-12)
(8.58577e-14 -1.07268e-12 -7.91644e-12)
(2.62069e-14 -5.50052e-13 -6.5994e-12)
(9.21464e-12 -4.31008e-12 -7.15313e-11)
(-4.61096e-13 -6.8566e-12 -5.13324e-11)
(-8.54193e-13 -5.80062e-12 -3.76572e-11)
(-1.0235e-12 -4.33349e-12 -2.81749e-11)
(-1.07444e-12 -3.29459e-12 -2.14561e-11)
(-1.06126e-12 -2.54486e-12 -1.65996e-11)
(-1.01468e-12 -1.99396e-12 -1.30265e-11)
(-9.52172e-13 -1.58266e-12 -1.03553e-11)
(-8.83646e-13 -1.26796e-12 -8.32885e-12)
(-8.06651e-13 -6.39178e-13 -6.78256e-12)
(2.84424e-08 -1.52849e-10 -6.53222e-09)
(-9.44889e-10 -1.34777e-10 -5.53513e-09)
(-8.58088e-10 -9.51226e-11 -4.74878e-09)
(-7.75224e-10 -8.15974e-11 -4.11956e-09)
(-7.03524e-10 -7.08761e-11 -3.60802e-09)
(-6.41814e-10 -6.22009e-11 -3.18644e-09)
(-5.88678e-10 -5.50681e-11 -2.83481e-09)
(-5.42827e-10 -4.91234e-11 -2.53844e-09)
(-5.03253e-10 -4.4087e-11 -2.28629e-09)
(-4.88419e-10 -3.97268e-11 -2.07284e-09)
(2.27298e-13 3.76827e-13 -3.94543e-14)
(2.14584e-13 3.50297e-13 -3.83451e-14)
(1.88187e-13 -5.18305e-14 -3.66858e-14)
(1.62946e-13 -5.15305e-14 -3.52023e-14)
(1.38792e-13 -5.08816e-14 -3.39218e-14)
(1.15663e-13 -5.0295e-14 -3.2728e-14)
(9.35542e-14 -4.9707e-14 -3.1667e-14)
(7.23719e-14 -4.909e-14 -3.08114e-14)
(5.2099e-14 -4.83666e-14 -3.00079e-14)
(3.2823e-14 -2.53661e-14 -2.93538e-14)
(4.98275e-13 3.42769e-13 -5.55988e-14)
(4.60108e-13 2.44544e-13 -5.22384e-14)
(3.94065e-13 -1.89352e-13 -4.83975e-14)
(3.32627e-13 -1.82698e-13 -4.49276e-14)
(2.7549e-13 -1.7607e-13 -4.18262e-14)
(2.22304e-13 -1.69706e-13 -3.90735e-14)
(1.72811e-13 -1.6363e-13 -3.65524e-14)
(1.26691e-13 -1.57842e-13 -3.43595e-14)
(8.37273e-14 -1.51791e-13 -3.24812e-14)
(4.39457e-14 -7.86183e-14 -3.06717e-14)
(6.15268e-13 2.77521e-13 -8.08405e-14)
(5.46876e-13 7.63065e-14 -7.31849e-14)
(4.51474e-13 -3.84081e-13 -6.54725e-14)
(3.66647e-13 -3.60322e-13 -5.87469e-14)
(2.91264e-13 -3.37983e-13 -5.2866e-14)
(2.24224e-13 -3.17345e-13 -4.76981e-14)
(1.64561e-13 -2.98261e-13 -4.32292e-14)
(1.11475e-13 -2.80589e-13 -3.92787e-14)
(6.41959e-14 -2.6333e-13 -3.58005e-14)
(2.23891e-14 -1.3446e-13 -3.2858e-14)
(8.06937e-13 1.63148e-13 -1.20777e-13)
(6.90765e-13 -1.85845e-13 -1.05258e-13)
(5.52701e-13 -6.59368e-13 -9.07597e-14)
(4.35559e-13 -6.00162e-13 -7.83456e-14)
(3.36153e-13 -5.46936e-13 -6.80215e-14)
(2.51678e-13 -4.99459e-13 -5.92788e-14)
(1.79844e-13 -4.5694e-13 -5.19719e-14)
(1.18745e-13 -4.18851e-13 -4.57439e-14)
(6.675e-14 -3.83412e-13 -4.03738e-14)
(2.28194e-14 -1.92947e-13 -3.58898e-14)
(1.07641e-12 -2.9677e-14 -1.85448e-13)
(8.84001e-13 -5.91025e-13 -1.54784e-13)
(6.83282e-13 -1.04954e-12 -1.28092e-13)
(5.21087e-13 -9.24501e-13 -1.06359e-13)
(3.89848e-13 -8.16727e-13 -8.89484e-14)
(2.83397e-13 -7.24077e-13 -7.47922e-14)
(1.96931e-13 -6.44021e-13 -6.32914e-14)
(1.26618e-13 -5.7466e-13 -5.39395e-14)
(6.94475e-14 -5.12702e-13 -4.61985e-14)
(2.32631e-14 -2.54173e-13 -3.98402e-14)
(1.46333e-12 -3.48907e-13 -2.92452e-13)
(1.14788e-12 -1.21675e-12 -2.31978e-13)
(8.53737e-13 -1.60546e-12 -1.83613e-13)
(6.28153e-13 -1.36444e-12 -1.46157e-13)
(4.5446e-13 -1.16559e-12 -1.17507e-13)
(3.20165e-13 -1.00131e-12 -9.52932e-14)
(2.16038e-13 -8.6462e-13 -7.7949e-14)
(1.35157e-13 -7.50265e-13 -6.43437e-14)
(7.22767e-14 -6.52045e-13 -5.3415e-14)
(2.37196e-14 -3.18368e-13 -4.48225e-14)
(2.03264e-12 -8.74615e-13 -4.72796e-13)
(1.51471e-12 -2.18801e-12 -3.54884e-13)
(1.07922e-12 -2.4039e-12 -2.67012e-13)
(7.63441e-13 -1.96402e-12 -2.02987e-13)
(5.32706e-13 -1.61802e-12 -1.56525e-13)
(3.62962e-13 -1.34406e-12 -1.22166e-13)
(2.37477e-13 -1.12493e-12 -9.65252e-14)
(1.44394e-13 -9.4827e-13 -7.71385e-14)
(7.5238e-14 -8.02264e-13 -6.20906e-14)
(2.41815e-14 -3.85654e-13 -5.07529e-14)
(2.89423e-12 -1.74589e-12 -7.868e-13)
(2.03508e-12 -3.71177e-12 -5.53396e-13)
(1.3819e-12 -3.56203e-12 -3.93618e-13)
(9.3611e-13 -2.7864e-12 -2.8451e-13)
(6.28078e-13 -2.2069e-12 -2.09808e-13)
(4.12983e-13 -1.76859e-12 -1.5734e-13)
(2.6158e-13 -1.43249e-12 -1.19922e-13)
(1.5443e-13 -1.17172e-12 -9.26879e-14)
(7.83612e-14 -9.64303e-13 -7.25924e-14)
(2.46477e-14 -4.56197e-13 -5.76695e-14)
(1.33919e-11 -3.20963e-12 -1.33756e-12)
(2.78039e-12 -6.14015e-12 -8.73537e-13)
(1.78166e-12 -5.26329e-12 -5.82458e-13)
(1.14907e-12 -3.92356e-12 -3.98304e-13)
(7.37345e-13 -2.97706e-12 -2.79899e-13)
(4.65273e-13 -2.29581e-12 -2.01317e-13)
(2.83302e-13 -1.79623e-12 -1.47975e-13)
(1.60569e-13 -1.42396e-12 -1.10956e-13)
(7.74851e-14 -1.13923e-12 -8.46737e-14)
(2.14869e-14 -5.30231e-13 -6.59565e-14)
(2.9349e-08 -3.30806e-11 -5.93067e-11)
(6.70608e-12 -3.54156e-11 -4.07037e-11)
(-2.42624e-12 -8.90521e-12 -2.99129e-11)
(-2.12074e-12 -6.33125e-12 -2.24825e-11)
(-1.83701e-12 -4.62214e-12 -1.72289e-11)
(-1.58646e-12 -3.44719e-12 -1.34277e-11)
(-1.37136e-12 -2.61979e-12 -1.06219e-11)
(-1.18909e-12 -2.02431e-12 -8.5139e-12)
(-1.03588e-12 -1.58395e-12 -6.90498e-12)
(-1.00858e-12 -8.16993e-13 -5.60861e-12)
(2.27118e-13 3.76738e-13 -8.20679e-15)
(2.14415e-13 3.4993e-13 -7.34942e-15)
(1.88028e-13 -5.2275e-14 -5.65219e-15)
(1.62792e-13 -5.18775e-14 -4.32077e-15)
(1.38657e-13 -5.11867e-14 -3.10495e-15)
(1.15572e-13 -5.05208e-14 -2.12108e-15)
(9.34841e-14 -4.98451e-14 -1.39202e-15)
(7.23373e-14 -4.91962e-14 -7.96773e-16)
(5.21143e-14 -4.83926e-14 -4.07796e-16)
(3.2874e-14 -2.53593e-14 -2.80956e-16)
(4.98342e-13 3.42775e-13 -1.21496e-14)
(4.6018e-13 2.44213e-13 -1.0688e-14)
(3.94118e-13 -1.89778e-13 -8.48941e-15)
(3.32685e-13 -1.8303e-13 -6.55509e-15)
(2.75556e-13 -1.76274e-13 -5.00479e-15)
(2.22396e-13 -1.6985e-13 -3.84472e-15)
(1.72923e-13 -1.63724e-13 -2.85914e-15)
(1.26836e-13 -1.57838e-13 -2.17832e-15)
(8.39013e-14 -1.51715e-13 -1.69908e-15)
(4.41543e-14 -7.84836e-14 -1.44259e-15)
(6.1562e-13 2.77704e-13 -1.96768e-14)
(5.47255e-13 7.59687e-14 -1.73513e-14)
(4.51811e-13 -3.84488e-13 -1.39941e-14)
(3.66958e-13 -3.60585e-13 -1.12873e-14)
(2.91573e-13 -3.38181e-13 -9.12739e-15)
(2.24528e-13 -3.17453e-13 -7.38282e-15)
(1.6489e-13 -2.9827e-13 -5.99899e-15)
(1.11819e-13 -2.80548e-13 -5.08662e-15)
(6.4556e-14 -2.63212e-13 -4.30566e-15)
(2.27627e-14 -1.34238e-13 -3.96054e-15)
(8.07809e-13 1.63613e-13 -3.36177e-14)
(6.91646e-13 -1.86202e-13 -2.94439e-14)
(5.53486e-13 -6.59938e-13 -2.40971e-14)
(4.36261e-13 -6.00574e-13 -1.96525e-14)
(3.36801e-13 -5.47185e-13 -1.61981e-14)
(2.52303e-13 -4.99591e-13 -1.3508e-14)
(1.80438e-13 -4.56987e-13 -1.13899e-14)
(1.19326e-13 -4.18826e-13 -9.71934e-15)
(6.73236e-14 -3.83322e-13 -8.50976e-15)
(2.33635e-14 -1.92749e-13 -7.63828e-15)
(1.07818e-12 -2.88879e-14 -5.87596e-14)
(8.85692e-13 -5.91705e-13 -5.06397e-14)
(6.84726e-13 -1.05049e-12 -4.10397e-14)
(5.22374e-13 -9.25219e-13 -3.35132e-14)
(3.90993e-13 -8.17245e-13 -2.76028e-14)
(2.8443e-13 -7.24457e-13 -2.29954e-14)
(1.97864e-13 -6.44274e-13 -1.94157e-14)
(1.27485e-13 -5.74799e-13 -1.66647e-14)
(7.02363e-14 -5.12807e-13 -1.45014e-14)
(2.3994e-14 -2.5406e-13 -1.28178e-14)
(1.46661e-12 -3.47763e-13 -1.03468e-13)
(1.15087e-12 -1.21833e-12 -8.652e-14)
(8.56226e-13 -1.60734e-12 -6.88883e-14)
(6.30268e-13 -1.36591e-12 -5.54309e-14)
(4.56265e-13 -1.16678e-12 -4.50391e-14)
(3.21717e-13 -1.00227e-12 -3.70928e-14)
(2.17393e-13 -8.65348e-13 -3.08532e-14)
(1.36333e-13 -7.50845e-13 -2.6059e-14)
(7.33029e-14 -6.52523e-13 -2.22486e-14)
(2.46221e-14 -3.18478e-13 -1.93199e-14)
(2.03851e-12 -8.73189e-13 -1.82736e-13)
(1.51979e-12 -2.19161e-12 -1.47178e-13)
(1.08331e-12 -2.40773e-12 -1.13731e-13)
(7.66744e-13 -1.9671e-12 -8.9246e-14)
(5.35405e-13 -1.62053e-12 -7.08407e-14)
(3.65191e-13 -1.34608e-12 -5.70505e-14)
(2.39327e-13 -1.12658e-12 -4.65225e-14)
(1.45935e-13 -9.49641e-13 -3.8471e-14)
(7.65431e-14 -8.03412e-13 -3.22265e-14)
(2.52628e-14 -3.86116e-13 -2.73049e-14)
(2.90454e-12 -1.74443e-12 -3.24841e-13)
(2.0435e-12 -3.7197e-12 -2.48931e-13)
(1.38837e-12 -3.56971e-12 -1.85469e-13)
(9.41131e-13 -2.79256e-12 -1.40546e-13)
(6.32008e-13 -2.21179e-12 -1.08289e-13)
(4.16084e-13 -1.77252e-12 -8.47828e-14)
(2.64046e-13 -1.43566e-12 -6.73269e-14)
(1.564e-13 -1.17428e-12 -5.43594e-14)
(7.99538e-14 -9.66457e-13 -4.44559e-14)
(2.59526e-14 -4.57245e-13 -3.683e-14)
(1.34996e-11 -3.20907e-12 -5.83239e-13)
(2.8041e-12 -6.15733e-12 -4.21192e-13)
(1.79821e-12 -5.27836e-12 -2.99578e-13)
(1.16086e-12 -3.93522e-12 -2.17974e-13)
(7.45908e-13 -2.98611e-12 -1.61969e-13)
(4.71615e-13 -2.30289e-12 -1.22776e-13)
(2.88121e-13 -1.80183e-12 -9.46951e-14)
(1.64333e-13 -1.42841e-12 -7.42619e-14)
(8.03931e-14 -1.14277e-12 -5.91891e-14)
(2.37419e-14 -5.32021e-13 -4.79707e-14)
(3.01852e-08 -3.11834e-11 -2.2143e-12)
(1.21683e-11 -3.41793e-11 -8.26821e-13)
(1.73008e-12 -7.84774e-12 -5.48184e-13)
(1.13459e-12 -5.53028e-12 -3.75456e-13)
(7.53959e-13 -4.00434e-12 -2.64813e-13)
(5.04485e-13 -2.96303e-12 -1.91794e-13)
(3.37942e-13 -2.23494e-12 -1.42547e-13)
(2.25039e-13 -1.71487e-12 -1.08629e-13)
(1.47512e-13 -1.33255e-12 -8.38547e-14)
(9.39497e-14 -6.1042e-13 -6.5723e-14)
(2.27554e-13 3.76532e-13 -1.08861e-14)
(2.14775e-13 3.49346e-13 -9.63926e-15)
(1.8832e-13 -5.29654e-14 -7.44632e-15)
(1.63014e-13 -5.24771e-14 -5.59442e-15)
(1.38842e-13 -5.1692e-14 -4.04633e-15)
(1.15723e-13 -5.09136e-14 -2.78245e-15)
(9.36182e-14 -5.01744e-14 -1.78588e-15)
(7.24674e-14 -4.94226e-14 -1.01039e-15)
(5.22273e-14 -4.85122e-14 -4.80048e-16)
(3.29784e-14 -2.54033e-14 -2.50417e-16)
(4.99388e-13 3.42386e-13 -1.60668e-14)
(4.61087e-13 2.43369e-13 -1.40656e-14)
(3.9487e-13 -1.9071e-13 -1.10969e-14)
(3.33298e-13 -1.83824e-13 -8.62383e-15)
(2.76085e-13 -1.76909e-13 -6.49999e-15)
(2.22852e-13 -1.70341e-13 -4.93943e-15)
(1.73325e-13 -1.64088e-13 -3.68731e-15)
(1.27218e-13 -1.58113e-13 -2.82485e-15)
(8.42498e-14 -1.51902e-13 -2.14452e-15)
(4.44869e-14 -7.85467e-14 -1.78549e-15)
(6.17455e-13 2.7704e-13 -2.60133e-14)
(5.48859e-13 7.46875e-14 -2.28483e-14)
(4.53149e-13 -3.85871e-13 -1.84514e-14)
(3.68086e-13 -3.6172e-13 -1.47784e-14)
(2.9254e-13 -3.39066e-13 -1.18576e-14)
(2.25375e-13 -3.18176e-13 -9.62702e-15)
(1.65633e-13 -2.98811e-13 -7.86172e-15)
(1.12477e-13 -2.80939e-13 -6.56765e-15)
(6.51569e-14 -2.63489e-13 -5.6982e-15)
(2.33159e-14 -1.34396e-13 -5.10107e-15)
(8.10968e-13 1.62322e-13 -4.4509e-14)
(6.94362e-13 -1.88365e-13 -3.88114e-14)
(5.55712e-13 -6.62092e-13 -3.16075e-14)
(4.38123e-13 -6.0235e-13 -2.58913e-14)
(3.38368e-13 -5.48604e-13 -2.13293e-14)
(2.53632e-13 -5.00734e-13 -1.77193e-14)
(1.81602e-13 -4.57915e-13 -1.49769e-14)
(1.20334e-13 -4.19554e-13 -1.28247e-14)
(6.82163e-14 -3.83869e-13 -1.12336e-14)
(2.41524e-14 -1.9302e-13 -1.01134e-14)
(1.08352e-12 -3.14242e-14 -7.76701e-14)
(8.90142e-13 -5.95626e-13 -6.6692e-14)
(6.88299e-13 -1.05423e-12 -5.40229e-14)
(5.25271e-13 -9.28239e-13 -4.41808e-14)
(3.93371e-13 -8.19692e-13 -3.64398e-14)
(2.86405e-13 -7.26406e-13 -3.03285e-14)
(1.99525e-13 -6.45834e-13 -2.56413e-14)
(1.28892e-13 -5.76075e-13 -2.19339e-14)
(7.14403e-14 -5.1382e-13 -1.90986e-14)
(2.50266e-14 -2.54655e-13 -1.68773e-14)
(1.47556e-12 -3.52972e-13 -1.36926e-13)
(1.15805e-12 -1.22568e-12 -1.14084e-13)
(8.61798e-13 -1.61396e-12 -9.09002e-14)
(6.34652e-13 -1.37121e-12 -7.30928e-14)
(4.59751e-13 -1.17098e-12 -5.9445e-14)
(3.24532e-13 -1.00563e-12 -4.89972e-14)
(2.19671e-13 -8.68096e-13 -4.07443e-14)
(1.38206e-13 -7.53073e-13 -3.43833e-14)
(7.48574e-14 -6.54323e-13 -2.93696e-14)
(2.59085e-14 -3.19516e-13 -2.55051e-14)
(2.05352e-12 -8.83715e-13 -2.41893e-13)
(1.53127e-12 -2.20561e-12 -1.9413e-13)
(1.09187e-12 -2.41967e-12 -1.50271e-13)
(7.73233e-13 -1.97635e-12 -1.17786e-13)
(5.40392e-13 -1.62778e-12 -9.36783e-14)
(3.69058e-13 -1.35181e-12 -7.53976e-14)
(2.42364e-13 -1.13115e-12 -6.1467e-14)
(1.48355e-13 -9.5329e-13 -5.0814e-14)
(7.84756e-14 -8.0639e-13 -4.25869e-14)
(2.68296e-14 -3.87891e-13 -3.61263e-14)
(2.9299e-12 -1.76577e-12 -4.29792e-13)
(2.06184e-12 -3.74638e-12 -3.28683e-13)
(1.40145e-12 -3.59106e-12 -2.44921e-13)
(9.50611e-13 -2.80859e-12 -1.85814e-13)
(6.38998e-13 -2.22402e-12 -1.4325e-13)
(4.21313e-13 -1.78197e-12 -1.12171e-13)
(2.68007e-13 -1.44304e-12 -8.9177e-14)
(1.59431e-13 -1.18012e-12 -7.19331e-14)
(8.22897e-14 -9.71109e-13 -5.87808e-14)
(2.77745e-14 -4.59971e-13 -4.88269e-14)
(1.35479e-11 -3.25205e-12 -7.71377e-13)
(2.83372e-12 -6.20794e-12 -5.56501e-13)
(1.81819e-12 -5.31641e-12 -3.96028e-13)
(1.17466e-12 -3.96271e-12 -2.8837e-13)
(7.55638e-13 -3.00634e-12 -2.14463e-13)
(4.78593e-13 -2.31806e-12 -1.62592e-13)
(2.93208e-13 -1.81338e-12 -1.25427e-13)
(1.68086e-13 -1.43735e-12 -9.84835e-14)
(8.31968e-14 -1.14977e-12 -7.8454e-14)
(2.58501e-14 -5.36051e-13 -6.34885e-14)
(3.01822e-08 -3.12502e-11 -1.76945e-12)
(1.2266e-11 -3.42819e-11 -9.47831e-13)
(1.76125e-12 -7.91162e-12 -6.37936e-13)
(1.15564e-12 -5.57448e-12 -4.42877e-13)
(7.68502e-13 -4.03575e-12 -3.15848e-13)
(5.1479e-13 -2.98582e-12 -2.30739e-13)
(3.45414e-13 -2.25178e-12 -1.72336e-13)
(2.30563e-13 -1.72754e-12 -1.31285e-13)
(1.51662e-13 -1.34223e-12 -1.01758e-13)
(9.71579e-14 -6.15843e-13 -8.04208e-14)
(2.28106e-13 3.76216e-13 -1.36505e-14)
(2.1524e-13 3.48557e-13 -1.19166e-14)
(1.88689e-13 -5.38779e-14 -9.28646e-15)
(1.63318e-13 -5.32272e-14 -6.93877e-15)
(1.39069e-13 -5.23043e-14 -5.03842e-15)
(1.1592e-13 -5.142e-14 -3.41791e-15)
(9.37807e-14 -5.05503e-14 -2.14527e-15)
(7.26163e-14 -4.97167e-14 -1.25716e-15)
(5.23684e-14 -4.86963e-14 -6.04959e-16)
(3.31088e-14 -2.54583e-14 -3.21267e-16)
(5.0072e-13 3.41869e-13 -2.00944e-14)
(4.62248e-13 2.42253e-13 -1.75566e-14)
(3.95826e-13 -1.91902e-13 -1.37909e-14)
(3.34103e-13 -1.84834e-13 -1.07439e-14)
(2.76755e-13 -1.77729e-13 -8.22425e-15)
(2.23438e-13 -1.70967e-13 -6.12757e-15)
(1.73846e-13 -1.64567e-13 -4.55683e-15)
(1.2768e-13 -1.58459e-13 -3.42538e-15)
(8.46974e-14 -1.5214e-13 -2.68004e-15)
(4.4899e-14 -7.86551e-14 -2.28758e-15)
(6.19819e-13 2.7615e-13 -3.25131e-14)
(5.50923e-13 7.30061e-14 -2.84205e-14)
(4.54859e-13 -3.8761e-13 -2.29223e-14)
(3.69527e-13 -3.63165e-13 -1.84368e-14)
(2.93784e-13 -3.40225e-13 -1.48066e-14)
(2.26441e-13 -3.19064e-13 -1.19927e-14)
(1.66585e-13 -2.99524e-13 -9.77548e-15)
(1.1333e-13 -2.81455e-13 -8.21113e-15)
(6.59396e-14 -2.63848e-13 -7.08451e-15)
(2.4039e-14 -1.34591e-13 -6.30421e-15)
(8.15027e-13 1.60652e-13 -5.56842e-14)
(6.97848e-13 -1.91213e-13 -4.84225e-14)
(5.58571e-13 -6.64898e-13 -3.94044e-14)
(4.40507e-13 -6.04607e-13 -3.22636e-14)
(3.40386e-13 -5.50456e-13 -2.65752e-14)
(2.55349e-13 -5.02195e-13 -2.20418e-14)
(1.83081e-13 -4.59048e-13 -1.86535e-14)
(1.21634e-13 -4.20452e-13 -1.6036e-14)
(6.93568e-14 -3.84549e-13 -1.40426e-14)
(2.51669e-14 -1.93421e-13 -1.25442e-14)
(1.09039e-12 -3.47347e-14 -9.72712e-14)
(8.95857e-13 -6.00706e-13 -8.32269e-14)
(6.92891e-13 -1.05902e-12 -6.74846e-14)
(5.28993e-13 -9.32079e-13 -5.51085e-14)
(3.96429e-13 -8.22806e-13 -4.54495e-14)
(2.88961e-13 -7.28929e-13 -3.79072e-14)
(2.01652e-13 -6.47864e-13 -3.19503e-14)
(1.307e-13 -5.77693e-13 -2.73414e-14)
(7.29769e-14 -5.15133e-13 -2.37716e-14)
(2.6348e-14 -2.55441e-13 -2.09985e-14)
(1.4871e-12 -3.59716e-13 -1.71351e-13)
(1.16728e-12 -1.23524e-12 -1.42651e-13)
(8.68976e-13 -1.6225e-12 -1.13502e-13)
(6.40276e-13 -1.37797e-12 -9.12687e-14)
(4.64236e-13 -1.17637e-12 -7.42535e-14)
(3.2813e-13 -1.00998e-12 -6.10324e-14)
(2.22598e-13 -8.71599e-13 -5.08636e-14)
(1.40607e-13 -7.55902e-13 -4.29146e-14)
(7.68379e-14 -6.56633e-13 -3.67349e-14)
(2.75642e-14 -3.20876e-13 -3.183e-14)
(2.07286e-12 -8.97405e-13 -3.03015e-13)
(1.54605e-12 -2.2237e-12 -2.42662e-13)
(1.1029e-12 -2.43499e-12 -1.87789e-13)
(7.81581e-13 -1.98822e-12 -1.47164e-13)
(5.4679e-13 -1.63707e-12 -1.16969e-13)
(3.74021e-13 -1.35919e-12 -9.41406e-14)
(2.46274e-13 -1.13702e-12 -7.67928e-14)
(1.51448e-13 -9.58007e-13 -6.34491e-14)
(8.09512e-14 -8.10197e-13 -5.31038e-14)
(2.88219e-14 -3.90131e-13 -4.5022e-14)
(2.96264e-12 -1.79338e-12 -5.3879e-13)
(2.08551e-12 -3.78082e-12 -4.11365e-13)
(1.41829e-12 -3.61854e-12 -3.06447e-13)
(9.62831e-13 -2.82923e-12 -2.32339e-13)
(6.47992e-13 -2.23975e-12 -1.79051e-13)
(4.2804e-13 -1.7941e-12 -1.40197e-13)
(2.731e-13 -1.45252e-12 -1.11416e-13)
(1.6334e-13 -1.18762e-12 -8.97868e-14)
(8.53063e-14 -9.7708e-13 -7.33939e-14)
(3.0124e-14 -4.6344e-13 -6.08537e-14)
(1.36288e-11 -3.30771e-12 -9.67724e-13)
(2.87177e-12 -6.27338e-12 -6.97115e-13)
(1.84386e-12 -5.36543e-12 -4.95926e-13)
(1.19239e-12 -3.99808e-12 -3.6098e-13)
(7.68123e-13 -3.03237e-12 -2.68292e-13)
(4.87547e-13 -2.33757e-12 -2.03274e-13)
(2.99729e-13 -1.8282e-12 -1.56778e-13)
(1.72901e-13 -1.4488e-12 -1.23035e-13)
(8.67798e-14 -1.15874e-12 -9.79783e-14)
(2.8552e-14 -5.41208e-13 -7.92917e-14)
(3.01753e-08 -3.14875e-11 -2.60266e-12)
(1.22719e-11 -3.44708e-11 -1.18702e-12)
(1.78466e-12 -7.99852e-12 -7.98634e-13)
(1.17146e-12 -5.63428e-12 -5.54213e-13)
(7.79532e-13 -4.07799e-12 -3.95079e-13)
(5.22692e-13 -3.01635e-12 -2.88558e-13)
(3.51215e-13 -2.27431e-12 -2.15376e-13)
(2.34908e-13 -1.74449e-12 -1.63936e-13)
(1.54988e-13 -1.35517e-12 -1.27107e-13)
(9.97504e-14 -6.23135e-13 -1.00301e-13)
(2.2878e-13 3.75812e-13 -1.63598e-14)
(2.15822e-13 3.47609e-13 -1.42837e-14)
(1.89135e-13 -5.49392e-14 -1.11104e-14)
(1.63676e-13 -5.41637e-14 -8.36497e-15)
(1.39375e-13 -5.30906e-14 -6.03423e-15)
(1.16158e-13 -5.20654e-14 -4.05337e-15)
(9.39951e-14 -5.10336e-14 -2.59081e-15)
(7.27995e-14 -5.00374e-14 -1.44377e-15)
(5.25448e-14 -4.88852e-14 -7.71506e-16)
(3.32802e-14 -2.5531e-14 -3.72572e-16)
(5.0235e-13 3.41241e-13 -2.41232e-14)
(4.63668e-13 2.40888e-13 -2.09837e-14)
(3.96989e-13 -1.9337e-13 -1.65432e-14)
(3.3507e-13 -1.86009e-13 -1.2837e-14)
(2.77585e-13 -1.78734e-13 -9.87978e-15)
(2.24158e-13 -1.71795e-13 -7.33212e-15)
(1.74485e-13 -1.65169e-13 -5.5128e-15)
(1.28274e-13 -1.5887e-13 -4.11792e-15)
(8.52379e-14 -1.52368e-13 -3.19211e-15)
(4.54048e-14 -7.87445e-14 -2.76273e-15)
(6.22706e-13 2.75049e-13 -3.91085e-14)
(5.5343e-13 7.09376e-14 -3.40855e-14)
(4.56949e-13 -3.8973e-13 -2.74281e-14)
(3.71288e-13 -3.64899e-13 -2.20726e-14)
(2.95277e-13 -3.41624e-13 -1.77858e-14)
(2.27756e-13 -3.20202e-13 -1.43817e-14)
(1.6775e-13 -3.0036e-13 -1.17199e-14)
(1.14384e-13 -2.82068e-13 -9.86092e-15)
(6.68862e-14 -2.64312e-13 -8.50564e-15)
(2.4888e-14 -1.34815e-13 -7.59452e-15)
(8.20001e-13 1.58585e-13 -6.68769e-14)
(7.02103e-13 -1.94668e-13 -5.79806e-14)
(5.62077e-13 -6.6829e-13 -4.7235e-14)
(4.43415e-13 -6.07375e-13 -3.86415e-14)
(3.42832e-13 -5.52693e-13 -3.1809e-14)
(2.57447e-13 -5.03983e-13 -2.65432e-14)
(1.84897e-13 -4.60446e-13 -2.22937e-14)
(1.23206e-13 -4.21556e-13 -1.91937e-14)
(7.0747e-14 -3.85438e-13 -1.67865e-14)
(2.64024e-14 -1.93898e-13 -1.5007e-14)
(1.09879e-12 -3.88304e-14 -1.17091e-13)
(9.0285e-13 -6.06925e-13 -9.97936e-14)
(6.98493e-13 -1.06487e-12 -8.0889e-14)
(5.33535e-13 -9.36813e-13 -6.5999e-14)
(4.00161e-13 -8.26587e-13 -5.44342e-14)
(2.92051e-13 -7.31988e-13 -4.54303e-14)
(2.04258e-13 -6.50341e-13 -3.83348e-14)
(1.32898e-13 -5.79688e-13 -3.27877e-14)
(7.48679e-14 -5.16723e-13 -2.84421e-14)
(2.79769e-14 -2.5637e-13 -2.52222e-14)
(1.50121e-12 -3.67949e-13 -2.06339e-13)
(1.17856e-12 -1.24688e-12 -1.71097e-13)
(8.77717e-13 -1.63292e-12 -1.36178e-13)
(6.47159e-13 -1.38624e-12 -1.09547e-13)
(4.69705e-13 -1.18299e-12 -8.91237e-14)
(3.32531e-13 -1.01526e-12 -7.3289e-14)
(2.26183e-13 -8.75848e-13 -6.11003e-14)
(1.43546e-13 -7.59338e-13 -5.1383e-14)
(7.92714e-14 -6.59441e-13 -4.40213e-14)
(2.95792e-14 -3.22557e-13 -3.81376e-14)
(2.0966e-12 -9.14172e-13 -3.65131e-13)
(1.56413e-12 -2.24587e-12 -2.91536e-13)
(1.11638e-12 -2.45373e-12 -2.25644e-13)
(7.91791e-13 -2.00276e-12 -1.76917e-13)
(5.54617e-13 -1.64843e-12 -1.40515e-13)
(3.80118e-13 -1.36815e-12 -1.13166e-13)
(2.51046e-13 -1.14417e-12 -9.22742e-14)
(1.55232e-13 -9.63752e-13 -7.60403e-14)
(8.39677e-14 -8.14868e-13 -6.36412e-14)
(3.12585e-14 -3.92891e-13 -5.40468e-14)
(3.00282e-12 -1.82729e-12 -6.49745e-13)
(2.1145e-12 -3.82306e-12 -4.95046e-13)
(1.43895e-12 -3.6522e-12 -3.68877e-13)
(9.77791e-13 -2.85448e-12 -2.79483e-13)
(6.5901e-13 -2.25897e-12 -2.1536e-13)
(4.36269e-13 -1.80894e-12 -1.68598e-13)
(2.79323e-13 -1.46412e-12 -1.33935e-13)
(1.68102e-13 -1.19678e-12 -1.07861e-13)
(8.89835e-14 -9.84366e-13 -8.79604e-14)
(3.29972e-14 -4.67703e-13 -7.297e-14)
(1.37415e-11 -3.3761e-12 -1.16805e-12)
(2.91849e-12 -6.35369e-12 -8.40316e-13)
(1.87537e-12 -5.42552e-12 -5.97718e-13)
(1.21413e-12 -4.04145e-12 -4.34786e-13)
(7.83433e-13 -3.06427e-12 -3.23039e-13)
(4.98518e-13 -2.36143e-12 -2.44614e-13)
(3.07714e-13 -1.84637e-12 -1.88669e-13)
(1.78785e-13 -1.46281e-12 -1.47852e-13)
(9.11746e-14 -1.16967e-12 -1.1753e-13)
(3.18557e-14 -5.47486e-13 -9.51024e-14)
(3.02114e-08 -3.17609e-11 -2.99269e-12)
(1.24328e-11 -3.47379e-11 -1.43394e-12)
(1.81328e-12 -8.1054e-12 -9.63853e-13)
(1.19081e-12 -5.70774e-12 -6.68501e-13)
(7.93029e-13 -4.12985e-12 -4.76331e-13)
(5.32361e-13 -3.05381e-12 -3.47654e-13)
(3.58314e-13 -2.30196e-12 -2.59366e-13)
(2.40232e-13 -1.76524e-12 -1.97356e-13)
(1.5906e-13 -1.37097e-12 -1.52697e-13)
(1.02913e-13 -6.32041e-13 -1.20404e-13)
(2.29574e-13 3.75354e-13 -1.90429e-14)
(2.16453e-13 3.46474e-13 -1.60127e-14)
(1.89645e-13 -5.62202e-14 -1.24346e-14)
(1.64082e-13 -5.52395e-14 -9.35959e-15)
(1.39709e-13 -5.40179e-14 -6.9719e-15)
(1.16454e-13 -5.27918e-14 -5.00101e-15)
(9.42515e-14 -5.15955e-14 -3.64806e-15)
(7.30472e-14 -5.0453e-14 -3.05327e-15)
(5.27811e-14 -4.91632e-14 -5.48137e-15)
(3.35223e-14 -2.57527e-14 -1.56859e-14)
(5.04272e-13 3.40469e-13 -2.79314e-14)
(4.65275e-13 2.39301e-13 -2.32368e-14)
(3.9832e-13 -1.95061e-13 -1.8428e-14)
(3.36191e-13 -1.87436e-13 -1.43837e-14)
(2.78544e-13 -1.79894e-13 -1.11574e-14)
(2.25016e-13 -1.72704e-13 -8.7488e-15)
(1.75245e-13 -1.65866e-13 -6.95616e-15)
(1.28979e-13 -1.59425e-13 -6.02768e-15)
(8.59066e-14 -1.5277e-13 -6.91726e-15)
(4.60389e-14 -7.91057e-14 -1.34989e-14)
(6.26098e-13 2.73739e-13 -4.53052e-14)
(5.56309e-13 6.85179e-14 -3.80278e-14)
(4.59351e-13 -3.92199e-13 -3.06819e-14)
(3.73329e-13 -3.66903e-13 -2.48599e-14)
(2.97033e-13 -3.43252e-13 -2.014e-14)
(2.29311e-13 -3.215e-13 -1.66582e-14)
(1.69117e-13 -3.01393e-13 -1.41554e-14)
(1.15621e-13 -2.82838e-13 -1.23633e-14)
(6.80283e-14 -2.64914e-13 -1.20877e-14)
(2.59374e-14 -1.35351e-13 -1.57022e-14)
(8.25852e-13 1.56147e-13 -7.75692e-14)
(7.06988e-13 -1.98656e-13 -6.5138e-14)
(5.6611e-13 -6.72203e-13 -5.31304e-14)
(4.46787e-13 -6.10564e-13 -4.36867e-14)
(3.45695e-13 -5.5525e-13 -3.6276e-14)