/*--------------------------------*- C++ -*----------------------------------*\
| =========                 |                                                 |
| \\      /  F ield         | OpenFOAM: The Open Source CFD Toolbox           |
|  \\    /   O peration     | Version:  4.1                                   |
|   \\  /    A nd           | Web:      www.OpenFOAM.org                      |
|    \\/     M anipulation  |                                                 |
\*---------------------------------------------------------------------------*/
FoamFile
{
    version     2.0;
    format      ascii;
    class       surfaceScalarField;
    location    "0.44";
    object      phi;
}
// * * * * * * * * * * * * * * * * * * * * * * * * * * * * * * * * * * * * * //

dimensions      [1 0 -1 0 0 0 0];

internalField   nonuniform List<scalar> 
150500
(
0.0168001
1.58137e-11
-2.81445e-11
0.0168001
3.77216e-11
-2.86928e-11
0.0168001
9.36488e-11
-2.92816e-11
0.0168001
1.42191e-10
-2.9347e-11
0.0168001
5.29136e-10
-2.91701e-11
0.0168001
9.89352e-10
-2.89562e-11
0.0167998
4.87876e-09
-2.9416e-11
0.0167996
1.11658e-08
-3.06768e-11
0.0167979
3.87479e-08
-3.17251e-11
0.0167955
9.71576e-08
-4.12445e-11
0.0167878
2.90223e-07
-3.84508e-11
0.0167756
6.24272e-07
-7.62727e-11
0.0167226
2.37392e-06
-5.77436e-11
0.0166565
4.8851e-06
-1.91461e-10
0.0163135
2.21215e-05
-2.82531e-10
0.0157482
6.8487e-05
-1.20355e-09
0.0136071
0.000356519
-3.85528e-09
0.0059783
0.00214405
-1.21875e-08
0.00717193
0.00233036
5.11063e-09
0.00676403
0.00150382
1.62408e-09
0.00641105
0.00160019
1.0092e-09
0.0053958
0.00205542
3.29788e-10
0.00343773
0.00220794
1.00105e-10
0.00143517
0.00206729
5.79576e-11
0.00197254
1.70869e-10
0.0168001
3.41567e-11
-2.81659e-11
0.0168001
7.56652e-11
-2.8712e-11
0.0168001
1.79805e-10
-2.9304e-11
0.0168001
2.68209e-10
-2.93718e-11
0.0168001
1.01001e-09
-2.91866e-11
0.0168001
1.84516e-09
-2.89844e-11
0.0167998
9.56768e-09
-2.94093e-11
0.0167996
2.2049e-08
-3.06533e-11
0.0167979
7.75877e-08
-3.13876e-11
0.0167956
1.98845e-07
-4.25374e-11
0.016788
5.80202e-07
-3.56062e-11
0.0167756
1.27238e-06
-7.59208e-11
0.0167241
4.74805e-06
-5.6408e-11
0.0166581
9.73296e-06
-1.8516e-10
0.0163219
4.38676e-05
-2.70543e-10
0.0157652
0.000134568
-1.15507e-09
0.0136962
0.000684808
-3.68954e-09
0.00618358
0.00408334
-1.20202e-08
0.00726714
0.00477363
5.22709e-09
0.00686005
0.00303934
1.92812e-09
0.00643325
0.00323059
1.00305e-09
0.00539693
0.00410518
2.78445e-10
0.00350593
0.00438616
1.54902e-10
0.00151181
0.00413368
1.63402e-10
0.00402033
2.03329e-10
0.0168001
2.66545e-11
-2.82207e-11
0.0168001
7.7614e-11
-2.87571e-11
0.0168001
2.24576e-10
-2.93483e-11
0.0168001
3.43325e-10
-2.94412e-11
0.0168001
1.3536e-09
-2.9238e-11
0.0168001
2.36933e-09
-2.90965e-11
0.0167999
1.31223e-08
-2.95142e-11
0.0167997
3.02695e-08
-3.07967e-11
0.016798
1.13162e-07
-3.165e-11
0.0167958
2.9444e-07
-4.2758e-11
0.0167882
8.35887e-07
-3.52461e-11
0.0167757
1.94935e-06
-7.60425e-11
0.0167277
6.68298e-06
-5.18257e-11
0.0166622
1.41206e-05
-1.79465e-10
0.0163463
6.06842e-05
-2.36614e-10
0.015817
0.000186476
-1.05425e-09
0.0139346
0.000925546
-3.35297e-09
0.00675083
0.0055053
-1.17606e-08
0.00757673
0.00743403
5.1709e-09
0.00708918
0.0047347
2.13083e-09
0.00648501
0.00489174
9.79806e-10
0.00546145
0.00610627
1.50037e-10
0.00363235
0.00659769
-1.02089e-10
0.0016109
0.00624801
8.65622e-11
0.00616429
1.87745e-10
0.0168001
2.62638e-11
-2.8246e-11
0.0168001
6.05954e-11
-2.87653e-11
0.0168001
1.79568e-10
-2.92776e-11
0.0168001
2.47646e-10
-2.95314e-11
0.0168001
1.40514e-09
-2.91003e-11
0.0168001
2.35636e-09
-2.9035e-11
0.0167999
1.46142e-08
-2.93383e-11
0.0167997
3.30457e-08
-3.05015e-11
0.0167981
1.39911e-07
-3.17691e-11
0.0167963
3.54612e-07
-4.16271e-11
0.0167886
1.04396e-06
-3.52131e-11
0.0167762
2.55429e-06
-7.50416e-11
0.0167326
8.1107e-06
-4.78241e-11
0.016668
1.78456e-05
-1.70087e-10
0.0163874
7.13514e-05
-2.0252e-10
0.0159055
0.000218778
-9.4099e-10
0.0143155
0.00104481
-2.93332e-09
0.00775077
0.00616634
-1.12764e-08
0.00811858
0.0103824
5.03055e-09
0.00745329
0.00668248
2.16001e-09
0.00650377
0.00657373
5.17662e-10
0.00561098
0.00805831
1.2384e-10
0.00384708
0.00887699
2.59842e-10
0.00175563
0.0084683
-5.74777e-11
0.00844733
6.42379e-11
0.0168001
1.27831e-11
-2.82824e-11
0.0168001
-1.3658e-11
-2.8822e-11
0.0168001
-2.12269e-11
-2.91344e-11
0.0168001
-6.72505e-12
-2.97497e-11
0.0168001
1.00359e-09
-2.89529e-11
0.0168001
1.98143e-09
-2.89995e-11
0.0168
1.42668e-08
-2.90143e-11
0.0167998
3.08371e-08
-2.96752e-11
0.0167984
1.56377e-07
-3.14836e-11
0.0167971
3.74052e-07
-3.92162e-11
0.0167892
1.20086e-06
-3.46836e-11
0.0167773
3.04711e-06
-7.40091e-11
0.0167377
9.08181e-06
-4.36595e-11
0.0166737
2.11143e-05
-1.64171e-10
0.0164413
7.65896e-05
-1.64856e-10
0.0160271
0.000233676
-8.22548e-10
0.0148207
0.00104356
-2.37614e-09
0.00926521
0.00595383
-1.01213e-08
0.00889058
0.0136178
3.60214e-09
0.00791294
0.00885571
1.80908e-09
0.00673702
0.00832566
1.29048e-10
0.00585951
0.00997508
1.84373e-10
0.004138
0.0112427
2.30985e-10
0.00196845
0.0108188
4.63153e-11
0.0109049
-1.26476e-10
0.0168001
1.27754e-12
-2.83352e-11
0.0168001
-3.28201e-11
-2.89193e-11
0.0168001
-3.41572e-11
-2.91366e-11
0.0168001
2.89291e-12
-3.00098e-11
0.0168001
1.03205e-09
-2.90332e-11
0.0168001
1.99776e-09
-2.9204e-11
0.0168
1.34189e-08
-2.88606e-11
0.0168
2.67236e-08
-2.91777e-11
0.0167988
1.50169e-07
-3.12356e-11
0.0167979
3.44566e-07
-3.61234e-11
0.01679
1.2919e-06
-3.4696e-11
0.0167799
3.20512e-06
-7.29228e-11
0.0167423
9.75707e-06
-4.14811e-11
0.0166782
2.36216e-05
-1.61773e-10
0.0164879
7.93206e-05
-1.24079e-10
0.0161465
0.000242178
-6.6554e-10
0.0153507
0.000984544
-1.57784e-09
0.0113657
0.00514449
-7.86302e-09
0.00985395
0.0171744
2.65393e-09
0.00860197
0.0112941
1.48657e-09
0.00706668
0.0100849
-1.58505e-10
0.00619639
0.01176
-2.2613e-10
0.00455429
0.0135943
-1.35751e-12
0.00226273
0.013376
-1.35126e-10
0.0136177
-1.0774e-10
0.0168001
-2.45267e-11
-2.83993e-11
0.0168001
-6.46843e-11
-2.90113e-11
0.0168001
1.10098e-11
-2.92406e-11
0.0168001
8.86388e-11
-2.99983e-11
0.0168001
1.20591e-09
-2.89667e-11
0.0168001
2.15989e-09
-2.90332e-11
0.0168001
1.24205e-08
-2.8651e-11
0.0168
2.33907e-08
-2.88127e-11
0.0167993
1.30934e-07
-3.02281e-11
0.0167985
2.82745e-07
-3.39598e-11
0.0167915
1.29045e-06
-3.59781e-11
0.0167844
2.96854e-06
-6.6908e-11
0.0167465
1.01523e-05
-4.46995e-11
0.0166862
2.46569e-05
-1.65372e-10
0.0165164
8.17134e-05
-8.75243e-11
0.0162042
0.000247242
-6.65804e-10
0.0155307
0.000946374
-8.89393e-10
0.013164
0.00449893
-4.7239e-09
0.0107464
0.0196675
7.57942e-11
0.00918516
0.0140107
3.7167e-10
0.00743113
0.011711
-5.15139e-10
0.00665656
0.0132792
-6.19169e-10
0.00515536
0.0158869
-5.0005e-11
0.00273387
0.0161675
6.82768e-11
0.0167716
9.44032e-11
0.0168001
-6.55314e-11
-2.84465e-11
0.0168001
-1.01445e-10
-2.89915e-11
0.0168001
9.15616e-11
-2.92626e-11
0.0168001
1.68615e-10
-2.9738e-11
0.0168001
1.39407e-09
-2.88495e-11
0.0168001
2.29609e-09
-2.87383e-11
0.0168001
1.20654e-08
-2.85034e-11
0.0168
2.30578e-08
-2.87222e-11
0.0167996
1.16488e-07
-2.98332e-11
0.0167992
2.40492e-07
-3.18302e-11
0.0167937
1.15114e-06
-3.92893e-11
0.0167893
2.51304e-06
-5.27445e-11
0.0167519
1.00667e-05
-5.15599e-11
0.016703
2.31374e-05
-1.57174e-10
0.0165267
8.2678e-05
-9.19359e-11
0.0162314
0.000245968
-6.16539e-10
0.0156972
0.000943356
-5.91491e-10
0.0138838
0.00399123
-3.81502e-09
0.0112778
0.0209359
-2.73381e-09
0.00960802
0.0169401
1.99542e-10
0.00787466
0.0130867
-8.88169e-10
0.00734108
0.0145837
-9.67881e-10
0.00607322
0.0181212
-4.49594e-12
0.00346097
0.0192794
1.32802e-11
0.020621
1.82586e-10
0.0168001
-4.3404e-11
-2.84049e-11
0.0168001
-1.77454e-11
-2.87843e-11
0.0168001
3.96161e-10
-2.92294e-11
0.0168001
2.62528e-10
-2.91168e-11
0.0168001
2.30369e-09
-2.89434e-11
0.0168001
2.38929e-09
-2.87066e-11
0.0168001
1.57393e-08
-2.87076e-11
0.0168001
2.32205e-08
-2.92573e-11
0.0167997
1.32668e-07
-3.00276e-11
0.0167994
2.16246e-07
-3.1962e-11
0.0167957
1.12467e-06
-3.82438e-11
0.0167926
1.9557e-06
-4.94368e-11
0.0167611
9.4393e-06
-5.31093e-11
0.0167299
1.81017e-05
-1.38036e-10
0.016541
7.91938e-05
-1.01985e-10
0.0162414
0.000209905
-6.357e-10
0.0158414
0.000882977
-5.01843e-10
0.0142318
0.00344514
-3.38092e-09
0.011523
0.0214644
-2.96923e-09
0.0104527
0.018668
-7.52748e-10
0.00868413
0.0150207
-3.97196e-10
0.00835615
0.0159574
-7.60373e-10
0.00746221
0.0200142
3.37082e-11
0.00466415
0.022497
1.05075e-10
0.0256247
2.70465e-10
0.0168001
-2.81635e-11
5.37716e-11
0.0168001
-2.85362e-11
9.558e-11
0.0168001
-2.9193e-11
4.39853e-10
0.0168001
-2.88607e-11
-2.38409e-10
0.0168001
-2.91355e-11
2.82692e-09
0.0168001
-2.89367e-11
-1.59024e-09
0.0168001
-2.87659e-11
2.30624e-08
0.0168001
-2.96909e-11
-5.12917e-09
0.0167999
-3.02212e-11
1.85481e-07
0.0167998
-3.21819e-11
-1.68237e-08
0.0167967
-3.60521e-11
1.52869e-06
0.0167964
-4.03707e-11
2.66761e-08
0.0167704
-5.80557e-11
1.27551e-05
0.0167627
-7.66648e-11
2.52028e-06
0.0165735
-1.53717e-10
0.000105921
0.016401
-4.06326e-10
7.26504e-05
0.0157707
-6.76654e-10
0.000933807
0.0144325
-3.03555e-09
0.00261366
0.0132051
-5.14049e-09
0.0189
0.0118694
7.96608e-11
0.0211841
0.00989343
-8.04417e-10
0.017213
0.00960414
-6.97183e-10
0.0173094
0.00929525
-1.63305e-10
0.0214858
0.00660383
-7.18826e-11
0.0254807
3.75385e-10
0.032445
0.0168001
9.38292e-13
-1.46389e-15
0.0168001
5.04077e-12
-7.95063e-15
0.0168001
4.69893e-11
-1.41335e-14
0.0168001
6.78657e-11
-2.58515e-14
0.0168
4.40785e-10
-3.24928e-14
0.0168
8.61489e-10
-4.06901e-14
0.0167998
4.71544e-09
-2.44734e-14
0.0167996
1.09447e-08
-3.0753e-15
0.0167979
3.84701e-08
5.71936e-14
0.0167955
9.68435e-08
2.72022e-13
0.0167878
2.89975e-07
5.64064e-13
0.0167755
6.2437e-07
1.23229e-12
0.0167226
2.3737e-06
4.77936e-12
0.0166564
4.88707e-06
7.46992e-12
0.0163133
2.21277e-05
3.90178e-11
0.0157479
6.8517e-05
1.049e-10
0.0136061
0.000356687
4.02593e-10
0.00597722
0.00214497
1.10589e-09
0.00717117
0.00232989
-4.13541e-10
0.00676361
0.00150379
-1.16691e-11
0.0064107
0.00160027
3.74933e-11
0.00539594
0.00205535
-2.84478e-10
0.00343813
0.00220773
-5.73484e-10
0.00143552
0.00206751
-4.10262e-10
0.00197291
-9.69748e-10
0.0168001
1.09292e-12
-1.05988e-15
0.0168001
8.16915e-12
-8.58784e-15
0.0168001
9.02943e-11
-1.38501e-14
0.0168001
1.18941e-10
-2.61764e-14
0.0168
8.41585e-10
-3.07863e-14
0.0168
1.60602e-09
-3.82255e-14
0.0167998
9.26217e-09
-2.10623e-14
0.0167996
2.16316e-08
1.35202e-15
0.0167979
7.69436e-08
5.52054e-14
0.0167956
1.98163e-07
2.92454e-13
0.0167879
5.79566e-07
5.22648e-13
0.0167756
1.27124e-06
1.1518e-12
0.0167241
4.74911e-06
4.68077e-12
0.016658
9.73466e-06
6.95906e-12
0.0163217
4.38867e-05
3.72112e-11
0.0157649
0.000134631
9.99447e-11
0.0136951
0.000685149
3.83093e-10
0.00618228
0.00408513
1.09847e-09
0.0072661
0.00477299
-5.48909e-10
0.00685938
0.00303917
-1.78689e-10
0.00643307
0.0032306
-5.49912e-12
0.00539683
0.00410544
-3.50676e-10
0.00350545
0.00438614
-6.40493e-10
0.00151162
0.00413368
-4.63236e-10
0.00402053
-9.63823e-10
0.0168001
-8.47867e-13
-1.10236e-15
0.0168001
2.73695e-12
-8.35152e-15
0.0168001
1.23457e-10
-1.41779e-14
0.0168001
1.15131e-10
-2.57709e-14
0.0168001
1.12224e-09
-3.06173e-14
0.0168
2.04386e-09
-3.66065e-14
0.0167998
1.27619e-08
-1.24994e-14
0.0167996
2.98916e-08
2.71867e-14
0.016798
1.12614e-07
4.67254e-14
0.0167958
2.9437e-07
4.71247e-13
0.0167882
8.35392e-07
3.9666e-13
0.0167757
1.94941e-06
1.73888e-12
0.0167276
6.68446e-06
3.38434e-12
0.0166621
1.41242e-05
8.25355e-12
0.0163461
6.07042e-05
2.75365e-11
0.0158167
0.000186543
7.88541e-11
0.0139335
0.000925966
3.17665e-10
0.00674953
0.00550764
1.05117e-09
0.00757616
0.007433
-6.1009e-10
0.0070888
0.00473419
-2.28742e-10
0.00648552
0.00489162
-9.63579e-11
0.00546187
0.00610604
-4.11921e-10
0.00363255
0.00659731
-1.074e-10
0.00161107
0.006248
-2.16479e-10
0.00616461
-7.87226e-10
0.0168001
-1.05733e-12
-1.35637e-15
0.0168001
-3.53782e-12
-7.57083e-15
0.0168001
1.25235e-10
-1.3071e-14
0.0168001
1.04732e-10
-2.54034e-14
0.0168001
1.25229e-09
-3.08263e-14
0.0168
2.16419e-09
-4.01888e-14
0.0167999
1.42897e-08
-2.35312e-14
0.0167997
3.27247e-08
-1.61069e-15
0.0167981
1.39338e-07
5.7208e-14
0.0167963
3.54658e-07
3.09268e-13
0.0167886
1.04333e-06
4.69046e-13
0.0167762
2.55496e-06
1.40413e-12
0.0167325
8.11249e-06
3.37238e-12
0.0166679
1.7849e-05
6.84477e-12
0.0163872
7.13725e-05
2.55723e-11
0.0159052
0.000218841
6.89697e-11
0.0143144
0.00104525
2.84325e-10
0.00774912
0.00616915
1.03804e-09
0.00811785
0.010381
-6.94958e-10
0.00745306
0.00668157
-2.53634e-10
0.00650459
0.00657333
-7.86435e-11
0.00561175
0.00805817
-3.43784e-10
0.00384729
0.00887694
-4.58675e-10
0.00175588
0.0084687
-1.74802e-10
0.00844769
-5.90565e-10
0.0168001
-6.37795e-13
-2.9523e-15
0.0168001
9.20225e-12
-8.969e-15
0.0168001
1.14579e-10
-1.38347e-14
0.0168001
1.84092e-10
-2.64817e-14
0.0168001
1.31112e-09
-3.07932e-14
0.0168001
2.13965e-09
-3.88414e-14
0.0167999
1.42665e-08
-2.43823e-14
0.0167998
3.04112e-08
-7.75249e-15
0.0167983
1.55493e-07
5.42913e-14
0.016797
3.73429e-07
3.04688e-13
0.0167891
1.19909e-06
4.47032e-13
0.0167773
3.04739e-06
1.49093e-12
0.0167376
9.08239e-06
3.24914e-12
0.0166737
2.11172e-05
6.66423e-12
0.0164411
7.66087e-05
2.3923e-11
0.0160268
0.00023374
6.36709e-11
0.0148198
0.00104398
2.52633e-10
0.00926305
0.00595678
9.96964e-10
0.00888971
0.0136159
-4.23387e-10
0.00791265
0.00885482
-2.10532e-10
0.00673739
0.00832538
5.30523e-11
0.00586041
0.00997369
-4.61316e-10
0.00413869
0.0112426
-2.85161e-10
0.00196857
0.01082
-1.21058e-10
0.0109054
-4.86296e-10
0.0168001
-2.6776e-12
-1.05478e-15
0.0168001
2.99472e-11
-1.04338e-14
0.0168001
9.77211e-11
-1.57968e-14
0.0168001
2.94774e-10
-2.68883e-14
0.0168001
1.28642e-09
-2.75782e-14
0.0168001
2.11161e-09
-3.29828e-14
0.0168
1.31911e-08
-2.75105e-14
0.0167999
2.60116e-08
-2.46322e-14
0.0167987
1.49116e-07
7.54393e-14
0.0167979
3.43655e-07
1.9814e-13
0.01679
1.28959e-06
4.98477e-13
0.0167798
3.2076e-06
1.4483e-12
0.0167422
9.75638e-06
3.33041e-12
0.0166781
2.36249e-05
6.44807e-12
0.0164878
7.93374e-05
2.27603e-11
0.0161464
0.00024219
4.8946e-11
0.0153501
0.000984904
1.94962e-10
0.0113629
0.00514666
8.9698e-10
0.00985312
0.017173
-3.5978e-10
0.0086017
0.0112929
-1.95719e-10
0.00706705
0.0100843
1.92564e-11
0.00619689
0.0117591
-2.35899e-10
0.00455437
0.0135933
-1.64872e-11
0.0022628
0.0133769
7.62867e-11
0.0136185
-3.1677e-10
0.0168001
-1.75794e-13
-4.08043e-15
0.0168001
4.26477e-11
-1.37698e-14
0.0168001
1.26879e-10
-1.52525e-14
0.0168001
2.81354e-10
-2.13553e-14
0.0168001
1.22905e-09
-2.58434e-14
0.0168001
1.99211e-09
-3.46672e-14
0.0168
1.19595e-08
-3.35879e-14
0.0168
2.25792e-08
-3.72983e-14
0.0167992
1.29963e-07
3.84815e-14
0.0167985
2.82026e-07
1.31582e-13
0.0167915
1.2893e-06
5.16319e-13
0.0167843
2.97229e-06
1.43109e-12
0.0167465
1.01515e-05
3.34446e-12
0.0166861
2.46671e-05
7.46832e-12
0.0165163
8.17149e-05
2.22595e-11
0.0162041
0.000247273
5.48242e-11
0.0155306
0.000946487
1.80779e-10
0.013164
0.00450027
6.01642e-10
0.0107457
0.0196681
3.27853e-12
0.00918502
0.0140095
-5.33624e-11
0.00743201
0.0117108
-3.59315e-11
0.00665658
0.0132793
-3.76084e-12
0.00515467
0.0158848
-3.10628e-10
0.00273365
0.016167
-9.3013e-11
0.0167717
-2.0261e-10
0.0168001
1.08762e-11
-7.00416e-15
0.0168001
5.04349e-11
-1.09028e-14
0.0168001
1.3968e-10
-1.26524e-14
0.0168001
2.72173e-10
-2.36892e-14
0.0168001
1.20038e-09
-2.225e-14
0.0168001
1.9411e-09
-3.54919e-14
0.0168
1.1618e-08
-3.69681e-14
0.0168
2.24596e-08
-4.23198e-14
0.0167995
1.16048e-07
2.42966e-14
0.0167991
2.40308e-07
6.82962e-14
0.0167936
1.15187e-06
5.96203e-13
0.0167892
2.51562e-06
1.19693e-12
0.0167518
1.00693e-05
3.45897e-12
0.0167029
2.31495e-05
8.57289e-12
0.0165266
8.26886e-05
2.204e-11
0.0162314
0.000246008
5.52926e-11
0.015697
0.00094346
1.83583e-10
0.0138831
0.00399215
5.2886e-10
0.0112779
0.020936
4.95733e-10
0.0096084
0.0169397
-4.04217e-11
0.00787507
0.013086
2.85099e-12
0.00734084
0.0145837
3.00595e-10
0.00607206
0.0181194
-2.40347e-10
0.00346052
0.0192773
-3.68854e-10
0.0206205
-2.44334e-10
0.0168001
3.11585e-11
-6.72786e-15
0.0168001
3.78352e-12
-9.9166e-15
0.0168001
2.4151e-10
-1.40328e-14
0.0168001
4.34915e-11
-2.19978e-14
0.0168001
1.84907e-09
-2.75285e-14
0.0168001
1.78029e-09
-4.11661e-14
0.0168
1.52487e-08
-4.9737e-14
0.0168
2.28146e-08
-6.96189e-14
0.0167997
1.32681e-07
-4.29276e-14
0.0167994
2.16769e-07
-3.35219e-14
0.0167957
1.12626e-06
3.70209e-13
0.0167925
1.95997e-06
7.85266e-13
0.0167611
9.44198e-06
3.23438e-12
0.0167297
1.81244e-05
6.98494e-12
0.0165408
7.91991e-05
2.22919e-11
0.0162411
0.000210022
6.09758e-11
0.0158415
0.000883066
1.77879e-10
0.0142314
0.00344603
5.17086e-10
0.0115237
0.0214656
7.58505e-10
0.010453
0.0186684
1.69421e-10
0.0086842
0.0150196
-9.19593e-11
0.00835637
0.0159572
5.26747e-10
0.00746146
0.0200129
-4.29172e-10
0.00466331
0.0224958
-4.42065e-10
0.0256238
-2.51886e-10
0.0168001
-5.64227e-15
3.1941e-11
0.0168001
-9.2064e-15
-9.76424e-11
0.0168001
-1.27795e-14
3.41704e-10
0.0168001
-2.11213e-14
-4.9202e-10
0.0168001
-2.61759e-14
2.46843e-09
0.0168001
-4.08193e-14
-1.82683e-09
0.0168001
-4.48149e-14
2.2501e-08
0.0168001
-6.19351e-14
-5.05861e-09
0.0167998
-2.61268e-14
1.85516e-07
0.0167998
-9.34427e-15
-1.63828e-08
0.0167966
3.69366e-13
1.53e-06
0.0167964
6.53019e-13
2.80993e-08
0.0167704
3.31428e-12
1.27598e-05
0.0167627
5.38729e-12
2.53015e-06
0.0165734
2.28619e-11
0.000105938
0.016401
5.84289e-11
7.27341e-05
0.0157707
1.69223e-10
0.000933907
0.0144319
5.83045e-10
0.00261468
0.0132053
1.27467e-09
0.0189034
0.01187
-5.67351e-11
0.0211836
0.00989325
3.70694e-11
0.0172122
0.00960403
4.58173e-10
0.0173091
0.00929431
-1.28148e-10
0.0214852
0.00660305
-5.08079e-10
0.0254809
-2.82576e-10
0.032444
0.0168001
9.23488e-13
2.87368e-16
0.0168001
4.90935e-12
9.00133e-17
0.0168001
4.70049e-11
4.99776e-16
0.0168001
6.75461e-11
6.79009e-16
0.0168
4.40909e-10
4.12709e-15
0.0168
8.60794e-10
7.37837e-15
0.0167998
4.714e-09
3.52632e-14
0.0167996
1.09415e-08
8.5974e-14
0.0167979
3.84651e-08
1.25528e-13
0.0167955
9.68341e-08
5.0222e-13
0.0167878
2.89964e-07
1.96747e-13
0.0167755
6.24308e-07
1.44123e-12
0.0167226
2.37367e-06
-1.25636e-12
0.0166564
4.88678e-06
-6.13947e-13
0.0163133
2.21266e-05
-2.48755e-11
0.0157479
6.85126e-05
-9.07942e-11
0.0136061
0.000356663
-4.64441e-10
0.00597732
0.00214485
-1.85682e-09
0.00717141
0.00232991
1.54086e-10
0.00676387
0.00150364
3.90731e-10
0.00641111
0.0016
1.03978e-11
0.00539636
0.00205523
-2.46785e-11
0.0034384
0.00220802
3.11065e-10
0.00143552
0.00206756
4.25314e-10
0.00197283
2.68957e-10
0.0168001
1.147e-12
2.57649e-16
0.0168001
8.25585e-12
8.47931e-17
0.0168001
9.00913e-11
4.69231e-16
0.0168001
1.19415e-10
6.54877e-16
0.0168
8.41211e-10
3.8438e-15
0.0168
1.60539e-09
6.79538e-15
0.0167998
9.26228e-09
3.30377e-14
0.0167996
2.16344e-08
8.06295e-14
0.0167979
7.69403e-08
1.06851e-13
0.0167956
1.98204e-07
5.1603e-13
0.0167879
5.79501e-07
1.11542e-13
0.0167756
1.2714e-06
1.35896e-12
0.0167241
4.74859e-06
-1.16105e-12
0.016658
9.73472e-06
-6.55972e-13
0.0163217
4.38818e-05
-2.39197e-11
0.015765
0.000134616
-8.81217e-11
0.0136952
0.000685084
-4.53158e-10
0.00618246
0.00408486
-1.84987e-09
0.00726647
0.0047729
1.05764e-10
0.00685969
0.00303892
3.70682e-10
0.00643333
0.00323018
4.27245e-11
0.00539732
0.004105
-2.27662e-11
0.0035063
0.00438644
3.15898e-10
0.00151203
0.00413409
4.50554e-10
0.00402083
2.76209e-10
0.0168001
-8.7404e-13
2.68037e-16
0.0168001
2.75854e-12
9.54056e-17
0.0168001
1.23881e-10
4.66622e-16
0.0168001
1.15115e-10
7.18096e-16
0.0168001
1.1226e-09
3.7436e-15
0.0168
2.04323e-09
6.47672e-15
0.0167998
1.27584e-08
3.31622e-14
0.0167996
2.98804e-08
7.86267e-14
0.016798
1.12604e-07
1.10046e-13
0.0167958
2.94296e-07
4.86536e-13
0.0167882
8.35381e-07
9.01525e-14
0.0167757
1.94921e-06
1.23448e-12
0.0167276
6.68438e-06
-1.06677e-12
0.0166621
1.41235e-05
-5.68766e-13
0.0163461
6.07028e-05
-2.24686e-11
0.0158167
0.000186537
-8.19549e-11
0.0139336
0.000925918
-4.28807e-10
0.00674952
0.00550745
-1.84226e-09
0.00757603
0.00743303
7.68261e-12
0.00708871
0.00473399
3.93218e-10
0.00648517
0.00489124
1.40273e-10
0.0054618
0.00610601
-6.3537e-11
0.00363263
0.0065981
1.42564e-10
0.00161109
0.00624857
3.92398e-10
0.00616495
2.47569e-10
0.0168001
-1.57364e-12
2.61151e-16
0.0168001
-4.11643e-12
3.55254e-17
0.0168001
1.24777e-10
4.33545e-16
0.0168001
1.04859e-10
4.26291e-16
0.0168001
1.25284e-09
3.30162e-15
0.0168
2.16503e-09
5.36648e-15
0.0167999
1.42879e-08
2.89838e-14
0.0167997
3.27189e-08
7.19261e-14
0.0167981
1.39328e-07
1.10501e-13
0.0167963
3.54631e-07
4.78663e-13
0.0167886
1.04329e-06
9.86568e-14
0.0167762
2.55492e-06
1.26733e-12
0.0167325
8.11232e-06
-1.1394e-12
0.0166679
1.78488e-05
-2.57296e-13
0.0163872
7.13715e-05
-2.16538e-11
0.0159052
0.000218839
-7.71906e-11
0.0143145
0.00104522
-3.94223e-10
0.00774915
0.00616898
-1.71551e-09
0.0081177
0.0103811
-5.92165e-11
0.00745285
0.00668153
3.9816e-10
0.00650394
0.00657307
1.23285e-10
0.00561105
0.00805842
1.04824e-10
0.00384695
0.00887713
2.07741e-10
0.00175585
0.00846851
5.35153e-10
0.00844796
2.80043e-10
0.0168001
-7.92988e-13
6.84021e-17
0.0168001
8.86615e-12
-1.34969e-16
0.0168001
1.14838e-10
1.08566e-15
0.0168001
1.85548e-10
-9.14496e-16
0.0168001
1.31396e-09
3.15185e-15
0.0168001
2.14367e-09
3.66762e-15
0.0167999
1.42714e-08
1.7609e-14
0.0167998
3.04168e-08
4.24806e-14
0.0167983
1.55504e-07
9.80457e-14
0.016797
3.73414e-07
2.99667e-13
0.0167891
1.19911e-06
1.07632e-13
0.0167773
3.04733e-06
6.83436e-13
0.0167376
9.0824e-06
-9.10679e-13
0.0166737
2.11171e-05
-6.40836e-13
0.0164411
7.66085e-05
-1.73742e-11
0.0160268
0.000233735
-6.24088e-11
0.0148199
0.00104395
-3.21948e-10
0.00926319
0.00595661
-1.5104e-09
0.00888958
0.0136162
-3.29466e-10
0.0079124
0.00885483
3.15212e-10
0.00673696
0.0083251
7.81899e-11
0.00585968
0.00997469
-3.08364e-11
0.00413837
0.0112429
1.22299e-10
0.00196843
0.0108201
3.15368e-10
0.0109057
3.00048e-10
0.0168001
-3.39682e-12
3.34276e-16
0.0168001
2.97898e-11
-8.60814e-17
0.0168001
9.84906e-11
-9.89351e-17
0.0168001
2.96727e-10
-5.83225e-17
0.0168001
1.28828e-09
2.07162e-15
0.0168001
2.11462e-09
4.15648e-15
0.0168
1.31948e-08
1.34168e-14
0.0167999
2.60172e-08
2.34747e-14
0.0167987
1.49117e-07
9.05216e-14
0.0167979
3.43641e-07
1.79382e-13
0.01679
1.2896e-06
9.56215e-14
0.0167798
3.20753e-06
4.52259e-13
0.0167422
9.75633e-06
-7.59788e-13
0.0166781
2.36251e-05
-5.50132e-13
0.0164878
7.93366e-05
-1.28097e-11
0.0161464
0.000242193
-4.15937e-11
0.0153502
0.000984886
-2.22614e-10
0.0113632
0.00514652
-1.18528e-09
0.00985306
0.0171733
-6.36791e-10
0.0086015
0.011293
1.61598e-10
0.00706645
0.0100842
9.68683e-12
0.00619652
0.0117597
-2.45467e-10
0.00455429
0.0135944
-2.30805e-10
0.0022626
0.0133773
1.03771e-10
0.0136186
3.16127e-10
0.0168001
-4.7274e-13
1.00481e-16
0.0168001
4.31604e-11
7.82269e-17
0.0168001
1.28169e-10
6.45947e-16
0.0168001
2.81226e-10
5.51463e-16
0.0168001
1.23202e-09
2.48924e-15
0.0168001
1.99457e-09
3.59248e-15
0.0168
1.19625e-08
1.13114e-14
0.0168
2.25835e-08
1.93471e-14
0.0167992
1.2997e-07
5.45264e-14
0.0167985
2.82024e-07
7.76845e-14
0.0167915
1.28932e-06
6.27863e-14
0.0167843
2.97223e-06
2.42729e-14
0.0167465
1.01515e-05
-3.51778e-13
0.0166861
2.46671e-05
-1.71014e-12
0.0165163
8.17144e-05
-7.85606e-12
0.0162041
0.000247273
-3.82506e-11
0.0155306
0.000946474
-1.4685e-10
0.013164
0.0045002
-7.2015e-10
0.0107457
0.0196681
-9.08051e-10
0.00918491
0.0140097
3.99782e-10
0.00743151
0.0117109
6.63891e-11
0.00665654
0.0132791
-2.3957e-10
0.00515508
0.0158865
1.46874e-10
0.00273361
0.0161681
2.26265e-10
0.016772
2.62795e-10
0.0168001
1.12699e-11
6.85549e-16
0.0168001
5.15931e-11
-7.51795e-16
0.0168001
1.40347e-10
3.19358e-15
0.0168001
2.7341e-10
-3.24178e-15
0.0168001
1.1987e-09
7.36748e-15
0.0168001
1.93733e-09
3.50148e-15
0.0168
1.16104e-08
1.02151e-14
0.0168
2.24433e-08
2.29542e-14
0.0167995
1.16013e-07
8.05542e-14
0.0167991
2.40254e-07
1.15102e-13
0.0167936
1.15175e-06
8.17907e-14
0.0167892
2.5154e-06
6.62793e-14
0.0167518
1.0069e-05
-3.78023e-13
0.0167029
2.31484e-05
-1.87859e-12
0.0165266
8.26868e-05
-6.99002e-12
0.0162314
0.000246003
-2.54454e-11
0.0156971
0.000943437
-1.34425e-10
0.0138832
0.00399207
-4.88649e-10
0.0112778
0.0209358
-1.19409e-09
0.00960839
0.01694
1.5126e-10
0.00787477
0.0130862
2.69908e-10
0.00734102
0.0145831
-2.65099e-10
0.00607259
0.0181206
-1.01075e-10
0.00346066
0.0192787
3.3711e-10
0.0206209
3.07566e-10
0.0168001
3.15754e-11
9.41316e-17
0.0168001
4.36729e-12
6.53935e-16
0.0168001
2.41202e-10
1.72254e-15
0.0168001
4.01756e-11
3.32975e-15
0.0168001
1.83884e-09
6.94267e-15
0.0168001
1.75327e-09
1.26957e-14
0.0168
1.52087e-08
2.87206e-14
0.0168
2.27348e-08
4.81062e-14
0.0167997
1.32599e-07
1.04372e-13
0.0167994
2.16675e-07
1.55124e-13
0.0167957
1.12616e-06
2.16448e-13
0.0167925
1.95982e-06
2.89982e-13
0.0167611
9.44173e-06
-3.72691e-13
0.0167297
1.81234e-05
-1.4519e-13
0.0165408
7.91967e-05
-7.10799e-12
0.0162411
0.000210015
-2.19019e-11
0.0158415
0.000883031
-1.03084e-10
0.0142313
0.00344595
-3.90845e-10
0.0115236
0.0214652
-1.12022e-09
0.0104532
0.0186686
1.53009e-11
0.00868426
0.01502
6.50596e-10
0.00835608
0.0159566
-4.68515e-10
0.00746196
0.0200137
6.27189e-11
0.0046636
0.0224967
2.16933e-10
0.0256242
3.77176e-10
0.0168001
3.63093e-16
3.16268e-11
0.0168001
8.80513e-16
-9.68055e-11
0.0168001
1.82748e-15
3.35602e-10
0.0168001
2.77587e-15
-4.95869e-10
0.0168001
6.25439e-15
2.44499e-09
0.0168001
7.89144e-15
-1.85112e-09
0.0168001
1.35037e-14
2.24406e-08
0.0168001
2.16326e-14
-5.10897e-09
0.0167998
2.81388e-14
1.85442e-07
0.0167998
5.1085e-14
-1.64454e-08
0.0167966
2.94597e-14
1.52985e-06
0.0167964
2.77767e-14
2.80078e-08
0.0167704
-5.8782e-13
1.27589e-05
0.0167627
-9.71188e-13
2.52919e-06
0.0165735
-6.83946e-12
0.000105931
0.016401
-1.96175e-11
7.27254e-05
0.0157707
-7.12092e-11
0.00093386
0.0144321
-2.98599e-10
0.00261453
0.0132054
-9.651e-10
0.0189023
0.0118701
3.43038e-10
0.0211839
0.00989349
6.52869e-10
0.0172124
0.00960414
-2.02199e-10
0.0173087
0.00929506
-1.5687e-10
0.0214855
0.00660341
2.10087e-11
0.0254813
3.89081e-10
0.0324443
0.0168001
9.20859e-13
-1.52981e-16
0.0168001
4.89818e-12
-6.23601e-16
0.0168001
4.69776e-11
-2.19446e-15
0.0168001
6.74158e-11
-3.09637e-15
0.0168
4.40606e-10
-9.33578e-15
0.0168
8.60089e-10
-1.46888e-14
0.0167998
4.71184e-09
-3.33306e-14
0.0167996
1.09368e-08
-5.90687e-14
0.0167979
3.84553e-08
-2.92862e-14
0.0167955
9.6814e-08
-1.7682e-13
0.0167878
2.89932e-07
4.40223e-13
0.0167755
6.24227e-07
-2.39957e-13
0.0167226
2.37363e-06
7.52652e-12
0.0166564
4.88663e-06
7.61997e-12
0.0163133
2.21269e-05
7.84354e-11
0.0157478
6.85139e-05
2.26328e-10
0.0136059
0.000356676
9.62e-10
0.00597687
0.00214493
2.9663e-09
0.0071714
0.00232984
-1.10444e-09
0.00676388
0.00150358
-3.24432e-10
0.00641123
0.00159994
-1.16765e-10
0.00539662
0.00205518
-2.53566e-10
0.00343879
0.00220798
-3.42209e-10
0.00143575
0.00206772
-3.6407e-10
0.00197311
-1.73107e-10
0.0168001
1.14289e-12
7.05731e-17
0.0168001
8.2318e-12
-6.40756e-16
0.0168001
9.00138e-11
-1.97898e-15
0.0168001
1.19283e-10
-2.92328e-15
0.0168
8.40767e-10
-8.7842e-15
0.0168
1.60441e-09
-1.33967e-14
0.0167998
9.25974e-09
-2.71245e-14
0.0167996
2.16285e-08
-4.75604e-14
0.0167979
7.69336e-08
-2.38958e-14
0.0167956
1.98179e-07
-1.66312e-13
0.0167879
5.79473e-07
4.50933e-13
0.0167756
1.27134e-06
-1.61802e-13
0.0167241
4.74852e-06
6.83238e-12
0.016658
9.7346e-06
7.48406e-12
0.0163217
4.38822e-05
7.16426e-11
0.0157649
0.000134619
2.09274e-10
0.013695
0.000685107
8.99198e-10
0.00618199
0.00408501
2.87851e-09
0.00726643
0.00477282
-1.13386e-09
0.00685968
0.0030388
-3.89963e-10
0.00643342
0.00323011
-1.21425e-10
0.0053975
0.00410492
-2.04352e-10
0.00350649
0.00438635
-3.49467e-10
0.00151211
0.00413432
-4.28504e-10
0.00402119
-1.94292e-10
0.0168001
-8.96562e-13
-1.31995e-16
0.0168001
2.70057e-12
-6.45528e-16
0.0168001
1.23772e-10
-1.65531e-15
0.0168001
1.1492e-10
-2.69817e-15
0.0168001
1.12242e-09
-6.86475e-15
0.0168
2.04236e-09
-1.06579e-14
0.0167998
1.27565e-08
-1.96477e-14
0.0167996
2.98751e-08
-3.20326e-14
0.016798
1.12597e-07
-1.60952e-14
0.0167958
2.94273e-07
-7.23027e-14
0.0167882
8.3534e-07
3.70113e-13
0.0167757
1.94915e-06
1.308e-13
0.0167276
6.68421e-06
5.51351e-12
0.0166621
1.41233e-05
7.5948e-12
0.0163461
6.07027e-05
5.92138e-11
0.0158166
0.000186538
1.78032e-10
0.0139334
0.000925945
7.89821e-10
0.00674901
0.0055077
2.76352e-09
0.00757597
0.00743294
-1.08168e-09
0.00708871
0.00473379
-5.16984e-10
0.00648537
0.00489113
-1.86266e-10
0.00546186
0.00610614
-7.96852e-11
0.00363278
0.00659782
-4.5603e-10
0.00161118
0.00624874
-5.09974e-10
0.00616539
-2.67713e-10
0.0168001
-1.61418e-12
-5.96066e-17
0.0168001
-4.15197e-12
-6.04581e-16
0.0168001
1.24806e-10
-1.54257e-15
0.0168001
1.04797e-10
-2.3243e-15
0.0168001
1.25279e-09
-5.995e-15
0.0168
2.16549e-09
-9.51152e-15
0.0167999
1.42854e-08
-1.68816e-14
0.0167997
3.27114e-08
-2.68859e-14
0.0167981
1.39313e-07
-1.36897e-14
0.0167963
3.54566e-07
-4.3325e-14
0.0167886
1.04324e-06
3.19792e-13
0.0167762
2.55469e-06
2.17996e-13
0.0167325
8.11215e-06
4.37992e-12
0.0166679
1.78482e-05
6.68693e-12
0.0163872
7.1372e-05
4.74672e-11
0.0159052
0.000218843
1.45058e-10
0.0143143
0.00104526
6.60663e-10
0.00774864
0.00616929
2.54006e-09
0.00811764
0.0103811
-1.027e-09
0.0074529
0.00668129
-6.22231e-10
0.00650404
0.00657288
-1.34907e-10
0.00561149
0.00805814
-7.93736e-11
0.00384735
0.00887741
-4.73466e-10
0.00175587
0.00846917
-5.33886e-10
0.00844848
-3.3064e-10
0.0168001
-7.65238e-13
-7.66506e-17
0.0168001
8.91175e-12
-4.85717e-16
0.0168001
1.14513e-10
-1.75194e-15
0.0168001
1.86296e-10
-1.82852e-15
0.0168001
1.31387e-09
-5.86787e-15
0.0168001
2.14377e-09
-9.14032e-15
0.0167999
1.42704e-08
-1.81176e-14
0.0167998
3.0413e-08
-2.73523e-14
0.0167983
1.55494e-07
-1.89963e-14
0.016797
3.73371e-07
-3.96908e-14
0.0167891
1.19905e-06
2.74697e-13
0.0167773
3.04715e-06
3.60135e-13
0.0167376
9.08215e-06
3.45224e-12
0.0166737
2.11165e-05
5.90359e-12
0.0164411
7.66086e-05
3.57399e-11
0.0160267
0.00023374
1.11292e-10
0.0148197
0.001044
4.99283e-10
0.00926262
0.00595696