/*--------------------------------*- C++ -*----------------------------------*\
| =========                 |                                                 |
| \\      /  F ield         | OpenFOAM: The Open Source CFD Toolbox           |
|  \\    /   O peration     | Version:  4.1                                   |
|   \\  /    A nd           | Web:      www.OpenFOAM.org                      |
|    \\/     M anipulation  |                                                 |
\*---------------------------------------------------------------------------*/
FoamFile
{
    version     2.0;
    format      ascii;
    class       volScalarField;
    location    "0.96";
    object      T;
}
// * * * * * * * * * * * * * * * * * * * * * * * * * * * * * * * * * * * * * //

dimensions      [0 0 0 1 0 0 0];

internalField   nonuniform List<scalar> 
52500
(
0.999994
1
1.00001
1.00004
1.00008
1.00027
1.0005
1.00157
1.00301
1.00848
1.0196
1.04743
1.13859
1.32536
1.94103
2.6496
2.78911
2.78624
2.77863
2.7962
2.81128
2.8174
2.91152
2.97706
2.73193
0.999994
1
1.00001
1.00004
1.00008
1.00027
1.00049
1.00156
1.00298
1.00841
1.01933
1.04691
1.13638
1.32023
1.92268
2.64275
2.78834
2.78527
2.77744
2.79468
2.8095
2.81562
2.90988
2.97338
2.72661
0.999994
1
1.00001
1.00004
1.00008
1.00026
1.00048
1.00153
1.00291
1.00831
1.01882
1.04595
1.13175
1.31058
1.88729
2.62866
2.78488
2.78284
2.77461
2.79103
2.80558
2.81193
2.90558
2.9704
2.72406
0.999994
1
1.00001
1.00004
1.00007
1.00025
1.00047
1.00149
1.00281
1.00821
1.01795
1.0449
1.12445
1.29968
1.83062
2.61386
2.78329
2.78034
2.7693
2.78438
2.79721
2.80337
2.89586
2.96441
2.72173
0.999994
0.999999
1.00001
1.00004
1.00007
1.00024
1.00044
1.00142
1.00267
1.00784
1.01693
1.04319
1.11802
1.28395
1.76251
2.61823
2.7796
2.77441
2.7604
2.77193
2.78684
2.79439
2.88173
2.95405
2.71765
0.999994
0.999999
1
1.00003
1.00007
1.00023
1.00042
1.00135
1.00252
1.00745
1.01594
1.04078
1.11184
1.26153
1.7297
2.60494
2.7696
2.76128
2.74747
2.75989
2.77312
2.77974
2.86488
2.94387
2.71313
0.999994
0.999999
1
1.00003
1.00006
1.00021
1.00039
1.00127
1.00235
1.0071
1.01471
1.03874
1.10267
1.24287
1.68911
2.5737
2.75044
2.74219
2.73931
2.74601
2.76091
2.76658
2.8331
2.92207
2.7036
0.999994
0.999998
1
1.00003
1.00006
1.0002
1.00036
1.00117
1.00216
1.00659
1.01344
1.03588
1.09356
1.22082
1.63867
2.51468
2.72524
2.72861
2.72547
2.72587
2.74123
2.746
2.80352
2.89417
2.68805
0.999994
0.999997
1
1.00002
1.00005
1.00017
1.00032
1.00105
1.00193
1.00591
1.01201
1.03227
1.08466
1.19573
1.58633
2.43351
2.69146
2.72172
2.71645
2.71416
2.725
2.72741
2.76541
2.86115
2.65456
0.999994
0.999996
1
1.00002
1.00004
1.00014
1.00027
1.00086
1.00168
1.00471
1.01078
1.02648
1.0763
1.16515
1.538
2.35065
2.64553
2.70445
2.69562
2.6907
2.69868
2.69841
2.71137
2.79634
2.58997
1
1.00001
1.00001
1.00005
1.00009
1.00028
1.0005
1.00158
1.00302
1.00849
1.01962
1.04746
1.13862
1.3255
1.94142
2.64984
2.78917
2.7863
2.7787
2.79628
2.81138
2.8175
2.91162
2.97716
2.73202
1
1.00001
1.00001
1.00005
1.00009
1.00028
1.0005
1.00157
1.00299
1.00842
1.01935
1.04693
1.13641
1.32036
1.92306
2.64295
2.78841
2.78533
2.77751
2.79477
2.80959
2.81572
2.90998
2.97347
2.72669
1
1.00001
1.00001
1.00005
1.00008
1.00027
1.00049
1.00154
1.00292
1.00832
1.01883
1.04597
1.13178
1.31068
1.88761
2.62884
2.78493
2.78289
2.77469
2.79112
2.80567
2.81202
2.90568
2.97048
2.72413
1
1.00001
1.00001
1.00005
1.00008
1.00026
1.00047
1.0015
1.00282
1.00823
1.01796
1.04492
1.12448
1.29975
1.83104
2.61389
2.78334
2.78041
2.76939
2.78448
2.79731
2.80345
2.89596
2.96448
2.72178
1
1.00001
1.00001
1.00004
1.00008
1.00025
1.00045
1.00143
1.00268
1.00785
1.01694
1.04321
1.11802
1.28406
1.7626
2.61825
2.77968
2.7745
2.7605
2.77204
2.78693
2.79447
2.88182
2.95412
2.7177
1
1.00001
1.00001
1.00004
1.00007
1.00024
1.00043
1.00136
1.00253
1.00746
1.01595
1.0408
1.11187
1.26162
1.7298
2.60502
2.76969
2.76139
2.74757
2.75998
2.7732
2.77982
2.86497
2.94395
2.71319
1
1.00001
1.00001
1.00004
1.00007
1.00022
1.0004
1.00128
1.00236
1.00711
1.01472
1.03876
1.10269
1.24293
1.68921
2.57384
2.75055
2.74227
2.7394
2.7461
2.761
2.76665
2.83318
2.92215
2.70366
1
1.00001
1.00001
1.00004
1.00006
1.00021
1.00037
1.00118
1.00217
1.0066
1.01345
1.0359
1.09358
1.22088
1.63877
2.51484
2.72536
2.72869
2.72555
2.72596
2.7413
2.74606
2.80358
2.89424
2.68811
1
1
1.00001
1.00003
1.00006
1.00018
1.00033
1.00106
1.00194
1.00592
1.01202
1.03229
1.08467
1.19579
1.58639
2.43367
2.69157
2.7218
2.71653
2.71424
2.72508
2.72748
2.76548
2.86121
2.65461
1
1
1.00001
1.00003
1.00005
1.00015
1.00028
1.00087
1.00169
1.00472
1.01079
1.0265
1.07631
1.16521
1.53806
2.35082
2.64564
2.70452
2.6957
2.69078
2.69875
2.69848
2.71143
2.79641
2.59002
1
1.00001
1.00001
1.00005
1.00009
1.00028
1.0005
1.00158
1.00302
1.00849
1.01962
1.04746
1.13863
1.3255
1.94143
2.64985
2.78917
2.7863
2.7787
2.79629
2.81138
2.8175
2.91161
2.97718
2.73205
1
1.00001
1.00001
1.00005
1.00009
1.00028
1.0005
1.00157
1.00299
1.00842
1.01935
1.04693
1.13641
1.32036
1.92307
2.64296
2.78841
2.78533
2.77751
2.79477
2.8096
2.81572
2.90997
2.97349
2.72673
1
1.00001
1.00001
1.00005
1.00008
1.00027
1.00049
1.00154
1.00292
1.00832
1.01883
1.04597
1.13178
1.31068
1.88762
2.62884
2.78493
2.78289
2.77469
2.79112
2.80567
2.81202
2.90567
2.97051
2.72417
1
1.00001
1.00001
1.00005
1.00008
1.00026
1.00047
1.0015
1.00282
1.00823
1.01796
1.04492
1.12448
1.29975
1.83105
2.61389
2.78334
2.78041
2.7694
2.78448
2.79731
2.80346
2.89595
2.96451
2.72183
1
1.00001
1.00001
1.00004
1.00008
1.00025
1.00045
1.00143
1.00268
1.00785
1.01694
1.04321
1.11802
1.28407
1.7626
2.61825
2.77968
2.7745
2.76051
2.77204
2.78693
2.79447
2.88181
2.95415
2.71775
1
1.00001
1.00001
1.00004
1.00007
1.00024
1.00043
1.00136
1.00253
1.00746
1.01595
1.0408
1.11187
1.26162
1.7298
2.60502
2.76969
2.76139
2.74757
2.75998
2.7732
2.77982
2.86496
2.94397
2.71324
1
1.00001
1.00001
1.00004
1.00007
1.00022
1.0004
1.00128
1.00236
1.00711
1.01472
1.03876
1.10269
1.24293
1.68921
2.57385
2.75056
2.74227
2.7394
2.7461
2.761
2.76665
2.83317
2.92217
2.7037
1
1.00001
1.00001
1.00004
1.00006
1.00021
1.00037
1.00118
1.00217
1.0066
1.01345
1.0359
1.09358
1.22088
1.63877
2.51485
2.72536
2.7287
2.72556
2.72596
2.7413
2.74606
2.80357
2.89426
2.68815
1
1
1.00001
1.00003
1.00006
1.00018
1.00033
1.00106
1.00194
1.00592
1.01202
1.03229
1.08467
1.19579
1.58639
2.43367
2.69157
2.7218
2.71653
2.71424
2.72508
2.72748
2.76547
2.86122
2.65465
1
1
1.00001
1.00003
1.00005
1.00015
1.00028
1.00087
1.00169
1.00472
1.01079
1.0265
1.07632
1.16521
1.53806
2.35083
2.64565
2.70452
2.6957
2.69078
2.69876
2.69848
2.71143
2.79642
2.59005
1
1.00001
1.00001
1.00005
1.00009
1.00028
1.0005
1.00158
1.00302
1.00849
1.01962
1.04746
1.13863
1.3255
1.94144
2.64985
2.78917
2.7863
2.7787
2.79629
2.81138
2.8175
2.91161
2.97719
2.73206
1
1.00001
1.00001
1.00005
1.00009
1.00028
1.0005
1.00157
1.00299
1.00842
1.01935
1.04693
1.13641
1.32036
1.92307
2.64296
2.78841
2.78533
2.77751
2.79477
2.80959
2.81572
2.90997
2.9735
2.72673
1
1.00001
1.00001
1.00005
1.00008
1.00027
1.00049
1.00154
1.00292
1.00832
1.01883
1.04597
1.13178
1.31068
1.88762
2.62884
2.78493
2.78289
2.77469
2.79112
2.80567
2.81202
2.90567
2.97052
2.72417
1
1.00001
1.00001
1.00005
1.00008
1.00026
1.00047
1.0015
1.00282
1.00823
1.01796
1.04492
1.12448
1.29975
1.83105
2.61389
2.78334
2.78041
2.7694
2.78448
2.79731
2.80345
2.89595
2.96452
2.72183
1
1.00001
1.00001
1.00004
1.00008
1.00025
1.00045
1.00143
1.00268
1.00785
1.01694
1.04321
1.11802
1.28407
1.7626
2.61825
2.77968
2.7745
2.76051
2.77204
2.78693
2.79447
2.88181
2.95416
2.71775
1
1.00001
1.00001
1.00004
1.00007
1.00024
1.00043
1.00136
1.00253
1.00746
1.01595
1.0408
1.11187
1.26162
1.7298
2.60502
2.76969
2.76139
2.74757
2.75998
2.7732
2.77982
2.86496
2.94398
2.71323
1
1.00001
1.00001
1.00004
1.00007
1.00022
1.0004
1.00128
1.00236
1.00711
1.01472
1.03876
1.10269
1.24293
1.68921
2.57385
2.75056
2.74227
2.7394
2.7461
2.761
2.76665
2.83317
2.92218
2.7037
1
1.00001
1.00001
1.00004
1.00006
1.00021
1.00037
1.00118
1.00217
1.0066
1.01345
1.0359
1.09358
1.22088
1.63877
2.51485
2.72536
2.7287
2.72556
2.72596
2.7413
2.74606
2.80357
2.89426
2.68815
1
1
1.00001
1.00003
1.00006
1.00018
1.00033
1.00106
1.00194
1.00592
1.01202
1.03229
1.08467
1.19579
1.58639
2.43367
2.69157
2.7218
2.71653
2.71424
2.72508
2.72748
2.76547
2.86122
2.65464
1
1
1.00001
1.00003
1.00005
1.00015
1.00028
1.00087
1.00169
1.00472
1.01079
1.0265
1.07632
1.16521
1.53806
2.35083
2.64565
2.70452
2.6957
2.69078
2.69876
2.69848
2.71143
2.79642
2.59005
1
1.00001
1.00001
1.00005
1.00009
1.00028
1.0005
1.00158
1.00302
1.00849
1.01962
1.04746
1.13863
1.32551
1.94146
2.64986
2.78917
2.78629
2.7787
2.79629
2.81138
2.8175
2.91162
2.97717
2.73204
1
1.00001
1.00001
1.00005
1.00009
1.00028
1.0005
1.00157
1.00299
1.00842
1.01935
1.04693
1.13641
1.32037
1.92309
2.64297
2.7884
2.78533
2.77751
2.79477
2.8096
2.81572
2.90998
2.97349
2.72672
1
1.00001
1.00001
1.00005
1.00008
1.00027
1.00049
1.00154
1.00292
1.00832
1.01883
1.04597
1.13178
1.31068
1.88764
2.62885
2.78493
2.78289
2.77469
2.79113
2.80568
2.81202
2.90567
2.97051
2.72416
1
1.00001
1.00001
1.00005
1.00008
1.00026
1.00047
1.0015
1.00282
1.00823
1.01796
1.04492
1.12448
1.29976
1.83107
2.61389
2.78333
2.78041
2.7694
2.78448
2.79731
2.80346
2.89595
2.96451
2.72182
1
1.00001
1.00001
1.00004
1.00008
1.00025
1.00045
1.00143
1.00268
1.00785
1.01694
1.04321
1.11802
1.28407
1.76261
2.61825
2.77968
2.7745
2.76051
2.77204
2.78693
2.79448
2.88181
2.95415
2.71774
1
1.00001
1.00001
1.00004
1.00007
1.00024
1.00043
1.00136
1.00253
1.00746
1.01595
1.0408
1.11187
1.26162
1.72981
2.60502
2.76969
2.76139
2.74757
2.75998
2.77321
2.77982
2.86496
2.94397
2.71323
1
1.00001
1.00001
1.00004
1.00007
1.00022
1.0004
1.00128
1.00236
1.00711
1.01472
1.03876
1.10269
1.24293
1.68922
2.57385
2.75056
2.74227
2.7394
2.74611
2.761
2.76665
2.83317
2.92217
2.7037
1
1.00001
1.00001
1.00004
1.00006
1.00021
1.00037
1.00118
1.00217
1.0066
1.01345
1.0359
1.09358
1.22089
1.63878
2.51485
2.72537
2.72869
2.72556
2.72596
2.74131
2.74606
2.80357
2.89426
2.68815
1
1
1.00001
1.00003
1.00006
1.00018
1.00033
1.00106
1.00194
1.00592
1.01202
1.03229
1.08467
1.19579
1.5864
2.43368
2.69157
2.7218
2.71653
2.71424
2.72508
2.72748
2.76547
2.86122
2.65464
1
1
1.00001
1.00003
1.00005
1.00015
1.00028
1.00087
1.00169
1.00472
1.01079
1.0265
1.07632
1.16521
1.53807
2.35084
2.64565
2.70452
2.6957
2.69078
2.69876
2.69848
2.71143
2.79642
2.59005
1
1.00001
1.00001
1.00005
1.00009
1.00028
1.0005
1.00158
1.00302
1.00849
1.01962
1.04746
1.13863
1.32551
1.94145
2.64985
2.78917
2.7863
2.7787
2.79629
2.81138
2.8175
2.91162
2.97718
2.73205
1
1.00001
1.00001
1.00005
1.00009
1.00028
1.0005
1.00157
1.00299
1.00842
1.01935
1.04693
1.13641
1.32037
1.92308
2.64296
2.78841
2.78533
2.77751
2.79477
2.8096
2.81572
2.90998
2.9735
2.72673
1
1.00001
1.00001
1.00005
1.00008
1.00027
1.00049
1.00154
1.00292
1.00832
1.01883
1.04597
1.13178
1.31068
1.88763
2.62885
2.78493
2.78289
2.77469
2.79113
2.80568
2.81202
2.90567
2.97051
2.72417
1
1.00001
1.00001
1.00005
1.00008
1.00026
1.00047
1.0015
1.00282
1.00823
1.01796
1.04492
1.12448
1.29975
1.83106
2.61389
2.78334
2.78041
2.7694
2.78448
2.79731
2.80346
2.89595
2.96452
2.72183
1
1.00001
1.00001
1.00004
1.00008
1.00025
1.00045
1.00143
1.00268
1.00785
1.01694
1.04321
1.11802
1.28407
1.76261
2.61825
2.77968
2.7745
2.76051
2.77204
2.78693
2.79447
2.88181
2.95415
2.71775
1
1.00001
1.00001
1.00004
1.00007
1.00024
1.00043
1.00136
1.00253
1.00746
1.01595
1.0408
1.11187
1.26162
1.7298
2.60502
2.76969
2.76139
2.74757
2.75998
2.7732
2.77982
2.86496
2.94397
2.71323
1
1.00001
1.00001
1.00004
1.00007
1.00022
1.0004
1.00128
1.00236
1.00711
1.01472
1.03876
1.10269
1.24293
1.68922
2.57385
2.75056
2.74227
2.7394
2.7461
2.761
2.76665
2.83317
2.92217
2.70369
1
1.00001
1.00001
1.00004
1.00006
1.00021
1.00037
1.00118
1.00217
1.0066
1.01345
1.0359
1.09358
1.22088
1.63877
2.51485
2.72537
2.72869
2.72556
2.72596
2.74131
2.74606
2.80358
2.89426
2.68815
1
1
1.00001
1.00003
1.00006
1.00018
1.00033
1.00106
1.00194
1.00592
1.01202
1.03229
1.08467
1.19579
1.58639
2.43368
2.69157
2.7218
2.71653
2.71424
2.72508
2.72748
2.76547
2.86122
2.65464
1
1
1.00001
1.00003
1.00005
1.00015
1.00028
1.00087
1.00169
1.00472
1.01079
1.0265
1.07632
1.16521
1.53806
2.35084
2.64565
2.70452
2.6957
2.69078
2.69876
2.69848
2.71143
2.79642
2.59005
1
1.00001
1.00001
1.00005
1.00009
1.00028
1.0005
1.00158
1.00302
1.00849
1.01962
1.04746
1.13863
1.3255
1.94144
2.64985
2.78917
2.7863
2.7787
2.79629
2.81138
2.8175
2.91161
2.97719
2.73206
1
1.00001
1.00001
1.00005
1.00009
1.00028
1.0005
1.00157
1.00299
1.00842
1.01935
1.04693
1.13641
1.32036
1.92307
2.64296
2.78841
2.78533
2.77751
2.79477
2.80959
2.81572
2.90997
2.9735
2.72673
1
1.00001
1.00001
1.00005
1.00008
1.00027
1.00049
1.00154
1.00292
1.00832
1.01883
1.04597
1.13178
1.31068
1.88762
2.62884
2.78493
2.78289
2.77469
2.79112
2.80567
2.81202
2.90567
2.97052
2.72417
1
1.00001
1.00001
1.00005
1.00008
1.00026
1.00047
1.0015
1.00282
1.00823
1.01796
1.04492
1.12448
1.29975
1.83105
2.61389
2.78334
2.78041
2.7694
2.78448
2.79731
2.80345
2.89595
2.96452
2.72183
1
1.00001
1.00001
1.00004
1.00008
1.00025
1.00045
1.00143
1.00268
1.00785
1.01694
1.04321
1.11802
1.28407
1.7626
2.61825
2.77968
2.7745
2.76051
2.77204
2.78693
2.79447
2.88181
2.95416
2.71775
1
1.00001
1.00001
1.00004
1.00007
1.00024
1.00043
1.00136
1.00253
1.00746
1.01595
1.0408
1.11187
1.26162
1.7298
2.60502
2.76969
2.76139
2.74757
2.75998
2.7732
2.77982
2.86496
2.94398
2.71323
1
1.00001
1.00001
1.00004
1.00007
1.00022
1.0004
1.00128
1.00236
1.00711
1.01472
1.03876
1.10269
1.24293
1.68921
2.57385
2.75056
2.74227
2.7394
2.7461
2.761
2.76665
2.83317
2.92218
2.7037
1
1.00001
1.00001
1.00004
1.00006
1.00021
1.00037
1.00118
1.00217
1.0066
1.01345
1.0359
1.09358
1.22088
1.63877
2.51485
2.72536
2.7287
2.72556
2.72596
2.7413
2.74606
2.80357
2.89426
2.68815
1
1
1.00001
1.00003
1.00006
1.00018
1.00033
1.00106
1.00194
1.00592
1.01202
1.03229
1.08467
1.19579
1.58639
2.43367
2.69157
2.7218
2.71653
2.71424
2.72508
2.72748
2.76547
2.86122
2.65464
1
1
1.00001
1.00003
1.00005
1.00015
1.00028
1.00087
1.00169
1.00472
1.01079
1.0265
1.07632
1.16521
1.53806
2.35083
2.64565
2.70452
2.6957
2.69078
2.69876
2.69848
2.71143
2.79642
2.59005
1
1.00001
1.00001
1.00005
1.00009
1.00028
1.0005
1.00158
1.00302
1.00849
1.01962
1.04746
1.13863
1.3255
1.94143
2.64985
2.78917
2.7863
2.7787
2.79629
2.81138
2.8175
2.91161
2.97718
2.73205
1
1.00001
1.00001
1.00005
1.00009
1.00028
1.0005
1.00157
1.00299
1.00842
1.01935
1.04693
1.13641
1.32036
1.92307
2.64296
2.78841
2.78533
2.77751
2.79477
2.8096
2.81572
2.90997
2.97349
2.72673
1
1.00001
1.00001
1.00005
1.00008
1.00027
1.00049
1.00154
1.00292
1.00832
1.01883
1.04597
1.13178
1.31068
1.88762
2.62884
2.78493
2.78289
2.77469
2.79112
2.80567
2.81202
2.90567
2.97051
2.72417
1
1.00001
1.00001
1.00005
1.00008
1.00026
1.00047
1.0015
1.00282
1.00823
1.01796
1.04492
1.12448
1.29975
1.83105
2.61389
2.78334
2.78041
2.7694
2.78448
2.79731
2.80346
2.89595
2.96451
2.72183
1
1.00001
1.00001
1.00004
1.00008
1.00025
1.00045
1.00143
1.00268
1.00785
1.01694
1.04321
1.11802
1.28407
1.7626
2.61825
2.77968
2.7745
2.76051
2.77204
2.78693
2.79447
2.88181
2.95415
2.71775
1
1.00001
1.00001
1.00004
1.00007
1.00024
1.00043
1.00136
1.00253
1.00746
1.01595
1.0408
1.11187
1.26162
1.7298
2.60502
2.76969
2.76139
2.74757
2.75998
2.7732
2.77982
2.86496
2.94397
2.71324
1
1.00001
1.00001
1.00004
1.00007
1.00022
1.0004
1.00128
1.00236
1.00711
1.01472
1.03876
1.10269
1.24293
1.68921
2.57385
2.75056
2.74227
2.7394
2.7461
2.761
2.76665
2.83317
2.92217
2.7037
1
1.00001
1.00001
1.00004
1.00006
1.00021
1.00037
1.00118
1.00217
1.0066
1.01345
1.0359
1.09358
1.22088
1.63877
2.51485
2.72536
2.7287
2.72556
2.72596
2.7413
2.74606
2.80357
2.89426
2.68815
1
1
1.00001
1.00003
1.00006
1.00018
1.00033
1.00106
1.00194
1.00592
1.01202
1.03229
1.08467
1.19579
1.58639
2.43367
2.69157
2.7218
2.71653
2.71424
2.72508
2.72748
2.76547
2.86122
2.65465
1
1
1.00001
1.00003
1.00005
1.00015
1.00028
1.00087
1.00169
1.00472
1.01079
1.0265
1.07632
1.16521
1.53806
2.35083
2.64565
2.70452
2.6957
2.69078
2.69876
2.69848
2.71143
2.79642
2.59005
1
1.00001
1.00001
1.00005
1.00009
1.00028
1.0005
1.00158
1.00302
1.00849
1.01962
1.04746
1.13862
1.3255
1.94142
2.64984
2.78917
2.7863
2.7787
2.79628
2.81138
2.8175
2.91162
2.97716
2.73202
1
1.00001
1.00001
1.00005
1.00009
1.00028
1.0005
1.00157
1.00299
1.00842
1.01935
1.04693
1.13641
1.32036
1.92306
2.64295
2.78841
2.78533
2.77751
2.79477
2.80959
2.81572
2.90998
2.97347
2.72669
1
1.00001
1.00001
1.00005
1.00008
1.00027
1.00049
1.00154
1.00292
1.00832
1.01883
1.04597
1.13178
1.31068
1.88761
2.62884
2.78493
2.78289
2.77469
2.79112
2.80567
2.81202
2.90568
2.97048
2.72413
1
1.00001
1.00001
1.00005
1.00008
1.00026
1.00047
1.0015
1.00282
1.00823
1.01796
1.04492
1.12448
1.29975
1.83104
2.61389
2.78334
2.78041
2.76939
2.78448
2.79731
2.80345
2.89596
2.96448
2.72178
1
1.00001
1.00001
1.00004
1.00008
1.00025
1.00045
1.00143
1.00268
1.00785
1.01694
1.04321
1.11802
1.28406
1.7626
2.61825
2.77968
2.7745
2.7605
2.77204
2.78693
2.79447
2.88182
2.95412
2.7177
1
1.00001
1.00001
1.00004
1.00007
1.00024
1.00043
1.00136
1.00253
1.00746
1.01595
1.0408
1.11187
1.26162
1.7298
2.60502
2.76969
2.76139
2.74757
2.75998
2.7732
2.77982
2.86497
2.94395
2.71319
1
1.00001
1.00001
1.00004
1.00007
1.00022
1.0004
1.00128
1.00236
1.00711
1.01472
1.03876
1.10269
1.24293
1.68921
2.57384
2.75055
2.74227
2.7394
2.7461
2.761
2.76665
2.83318
2.92215
2.70366
1
1.00001
1.00001
1.00004
1.00006
1.00021
1.00037
1.00118
1.00217
1.0066
1.01345
1.0359
1.09358
1.22088
1.63877
2.51484
2.72536
2.72869
2.72555
2.72596
2.7413
2.74606
2.80358
2.89424
2.68811
1
1
1.00001
1.00003
1.00006
1.00018
1.00033
1.00106
1.00194
1.00592
1.01202
1.03229
1.08467
1.19579
1.58639
2.43367
2.69157
2.7218
2.71653
2.71424
2.72508
2.72748
2.76548
2.86121
2.65461
1
1
1.00001
1.00003
1.00005
1.00015
1.00028
1.00087
1.00169
1.00472
1.01079
1.0265
1.07631
1.16521
1.53806
2.35082
2.64564
2.70452
2.6957
2.69078
2.69875
2.69848
2.71143
2.79641
2.59002
0.999994
1
1.00001
1.00004
1.00008
1.00027
1.0005
1.00157
1.00301
1.00848
1.0196
1.04743
1.13859
1.32536
1.94102
2.6496
2.78911
2.78624
2.77863
2.7962
2.81128
2.8174
2.91152
2.97709
2.73195
0.999994
1
1.00001
1.00004
1.00008
1.00027
1.00049
1.00156
1.00298
1.00841
1.01933
1.04691
1.13638
1.32023
1.92268
2.64275
2.78834
2.78527
2.77744
2.79468
2.8095
2.81562
2.90988
2.97341
2.72663
0.999994
1
1.00001
1.00004
1.00008
1.00026
1.00048
1.00153
1.00291
1.00831
1.01882
1.04595
1.13175
1.31058
1.88729
2.62866
2.78488
2.78284
2.77461
2.79103
2.80558
2.81193
2.90558
2.97042
2.72408
0.999994
1
1.00001
1.00004
1.00007
1.00025
1.00047
1.00149
1.00281
1.00821
1.01795
1.0449
1.12445
1.29967
1.83062
2.61386
2.78329
2.78034
2.7693
2.78438
2.79721
2.80336
2.89586
2.96443
2.72175
0.999994
0.999999
1.00001
1.00004
1.00007
1.00024
1.00044
1.00142
1.00267
1.00784
1.01693
1.04319
1.11802
1.28395
1.76251
2.61823
2.7796
2.77441
2.7604
2.77193
2.78684
2.79439
2.88173
2.95407
2.71767
0.999994
0.999999
1
1.00003
1.00007
1.00023
1.00042
1.00135
1.00252
1.00745
1.01594
1.04078
1.11184
1.26153
1.7297
2.60494
2.7696
2.76128
2.74747
2.75989
2.77311
2.77974
2.86488
2.94389
2.71315
0.999994
0.999999
1
1.00003
1.00006
1.00021
1.00039
1.00127
1.00235
1.0071
1.01471
1.03874
1.10267
1.24287
1.68911
2.5737
2.75044
2.74219
2.73931
2.74601
2.76091
2.76657
2.8331
2.92209
2.70361
0.999994
0.999998
1
1.00003
1.00006
1.0002
1.00036
1.00117
1.00216
1.00659
1.01344
1.03588
1.09356
1.22082
1.63867
2.51468
2.72524
2.72861
2.72547
2.72587
2.74123
2.74599
2.80352
2.89418
2.68806
0.999994
0.999997
1
1.00002
1.00005
1.00017
1.00032
1.00105
1.00193
1.00591
1.01201
1.03227
1.08466
1.19573
1.58633
2.43351
2.69146
2.72172
2.71645
2.71416
2.725
2.72741
2.76541
2.86115
2.65456
0.999994
0.999996
1
1.00002
1.00004
1.00014
1.00027
1.00086
1.00168
1.00471
1.01078
1.02648
1.0763
1.16515
1.538
2.35065
2.64553
2.70445
2.69562
2.6907
2.69868
2.69841
2.71137
2.79635
2.58997
0.999994
0.999995
1
1.00001
1.00004
1.00009
1.00029
1.00057
1.00161
1.00369
1.00897
1.02515
1.05494
1.17493
1.40295
2.12177
2.60848
2.6972
2.68101
2.66708
2.67072
2.66107
2.65397
2.69706
2.4021
0.999993
0.999994
1
1.00001
1.00004
1.00008
1.00027
1.00049
1.00157
1.003
1.0085
1.01966
1.04754
1.13909
1.32559
1.93651
2.51131
2.6756
2.6655
2.64732
2.64357
2.6331
2.58869
2.58883
2.39205
0.999993
0.999994
0.999998
1
1.00003
1.00006
1.00022
1.00041
1.00132
1.00245
1.00741
1.01539
1.0404
1.10611
1.2562
1.68053
2.44997
2.62694
2.61905
2.61194
2.60329
2.5904
2.54629
2.5137
2.39393
0.999993
0.999993
0.999997
1
1.00002
1.00005
1.00018
1.00033
1.00109
1.002
1.00617
1.01235
1.03352
1.0854
1.20258
1.5829
2.37489
2.59396
2.59545
2.58834
2.57139
2.55254
2.49366
2.46285
2.38684
0.999992
0.999993
0.999996
0.999999
1.00002
1.00004
1.00014
1.00026
1.00082
1.00158
1.00451
1.01005
1.02498
1.0706
1.15273
1.49477
2.22457
2.53224
2.58356
2.56807
2.54458
2.52015
2.46955
2.39113
2.35781
0.999992
0.999993
0.999994
0.999999
1.00001
1.00004
1.00008
1.00025
1.00049
1.00139
1.00312
1.00768
1.02106
1.04672
1.14405
1.32895
1.94539
2.42047
2.55872
2.55032
2.52856
2.49962
2.4604
2.38087
2.29963
0.999992
0.999992
0.999993
0.999998
1
1.00003
1.00006
1.00021
1.00039
1.00126
1.0023
1.00712
1.01428
1.03813
1.09598
1.23526
1.61628
2.30486
2.49815
2.50413
2.49513
2.46925
2.44172
2.38222
2.29748
0.999991
0.999992
0.999992
0.999996
1
1.00002
1.00004
1.00015
1.00028
1.00089
1.0017
1.00492
1.01071
1.0272
1.07501
1.16508
1.50931
2.20379
2.44981
2.47418
2.4555
2.43262
2.39968
2.36712
2.30063
0.999991
0.999991
0.999992
0.999994
0.999999
1.00001
1.00004
1.00008
1.00026
1.0005
1.00142
1.00316
1.00781
1.02126
1.04731
1.14447
1.32907
1.92768
2.34386
2.4494
2.44077
2.41902
2.37486
2.34745
2.29912
0.999991
0.999991
0.999992
0.999993
0.999997
1
1.00003
1.00006
1.0002
1.00037
1.00118
1.00218
1.00668
1.01343
1.03622
1.08935
1.22436
1.56807
2.22218
2.38503
2.39807
2.38688
2.35581
2.31356
2.28625
0.999991
0.999991
0.999991
0.999993
0.999994
1
1.00001
1.00005
1.0001
1.00032
1.00061
1.00186
1.00373
1.01023
1.02466
1.05853
1.16805
1.4048
1.99475
2.32715
2.36999
2.36109
2.34095
2.29603
2.26239
0.999991
0.999991
0.999991
0.999992
0.999993
0.999998
1
1.00003
1.00007
1.00023
1.00043
1.00134
1.00256
1.00741
1.01599
1.04131
1.10909
1.2651
1.67131
2.17902
2.33615
2.33383
2.31849
2.28509
2.23865
0.999991
0.999991
0.999991
0.999991
0.999993
0.999995
1
1.00001
1.00006
1.00012
1.00037
1.00071
1.00217
1.00426
1.01208
1.02673
1.06878
1.1724
1.4957
1.96581
2.26366
2.30079
2.29289
2.27217
2.22939
0.999991
0.999991
0.999991
0.999991
0.999992
0.999993
0.999999
1.00001
1.00004
1.00007
1.00025
1.00047
1.00146
1.00277
1.00797
1.01743
1.04362
1.11655
1.28105
1.7011
2.11969
2.25556
2.25649
2.2456
2.22081
0.999991
0.999991
0.999991
0.999991
0.999991
0.999993
0.999995
1
1.00001
1.00006
1.00012
1.00039
1.00074
1.00225
1.0044
1.01251
1.02678
1.07186
1.16696
1.50848
1.92732
2.17545
2.21838
2.21619
2.20132
0.999991
0.999991
0.999991
0.999991
0.999991
0.999992
0.999993
0.999999
1.00001
1.00004
1.00007
1.00025
1.00046
1.00145
1.00271
1.00802
1.0167
1.04272
1.10882
1.26779
1.66024
2.04974
2.16804
2.18198
2.17457
0.999991
0.999991
0.999991
0.999991
0.999991
0.999991
0.999993
0.999994
1
1.00001
1.00006
1.00011
1.00037
1.0007
1.00211
1.0041
1.01175
1.02472
1.06681
1.15257
1.4635
1.85271
2.09824
2.13528
2.1427
0.999991
0.999991
0.999991
0.999991
0.999991
0.999991
0.999992
0.999993
0.999998
1
1.00003
1.00006
1.00022
1.00041
1.00129
1.0024
1.00721
1.01423
1.03938
1.09076
1.23913
1.55833
1.95838
2.09671
2.10989
0.999991
0.999991
0.999991
0.999991
0.999991
0.999991
0.999991
0.999992
0.999994
1
1.00001
1.00005
1.0001
1.00031
1.0006
1.0018
1.00353
1.00997
1.02133
1.05633
1.13105
1.38466
1.73297
2.01018
2.0757
0.999991
0.999991
0.999991
0.999991
0.999991
0.999991
0.999991
0.999991
0.999993
0.999995
1
1.00002
1.00007
1.00014
1.00044
1.00084
1.00247
1.00491
1.01343
1.02953
1.07461
1.17959
1.50181
1.8431
2.01462
0.999991
0.999991
0.999991
0.999991
0.999991
0.999991
0.999991
0.999991
0.999992
0.999993
0.999999
1.00001
1.00004
1.00008
1.00026
1.00048
1.00148
1.00277
1.00817
1.01639
1.04474
1.10163
1.27572
1.60366
1.91999
0.999991
0.999991
0.999991
0.999991
0.999991
0.999991
0.999991
0.999991
0.999991
0.999993
0.999994
1
1.00001
1.00005
1.00011
1.00034
1.00065
1.00193
1.0038
1.0106
1.02235
1.05962
1.13399
1.39598
1.72345
0.999991
0.999991
0.999991
0.999991
0.999991
0.999991
0.999991
0.999991
0.999991
0.999992
0.999993
0.999997
1
1.00003
1.00005
1.00019
1.00035
1.00108
1.00202
1.00584
1.0119
1.03083
1.07218
1.17613
1.438
0.999991
0.999991
0.999991
0.999991
0.999991
0.999991
0.999991
0.999991
0.999991
0.999991
0.999992
0.999994
0.999997
1.00001
1.00003
1.0001
1.00019
1.00059
1.00109
1.00328
1.00639
1.01689
1.04102
1.08979
1.25901
0.999991
0.999991
0.999991
0.999991
0.999991
0.999991
0.999991
0.999991
0.999991
0.999991
0.999991
0.999992
0.999994
1
1.00001
1.00005
1.0001
1.00031
1.00059
1.00179
1.00338
1.00989
1.01974
1.05496
1.11736
0.999991
0.999991
0.999991
0.999991
0.999991
0.999991
0.999991
0.999991
0.999991
0.999991
0.999991
0.999991
0.999993
0.999995
1
1.00001
1.00006
1.00012
1.00037
1.00072
1.00208
1.0042
1.01121
1.02474
1.06158
0.999991
0.999991
0.999991
0.999991
0.999991
0.999991
0.999991
0.999991
0.999991
0.999991
0.999991
0.999991
0.999992
0.999993
0.999996
1.00001
1.00002
1.00007
1.00015
1.00045
1.00087
1.00251
1.00506
1.01328
1.03142
0.999991
0.999991
0.999991
0.999991
0.999991
0.999991
0.999991
0.999991
0.999991
0.999991
0.999991
0.999991
0.999991
0.999992
0.999994
0.999997
1.00001
1.00002
1.00009
1.00018
1.00054
1.00103
1.00294
1.00611
1.01538
0.999991
0.999991
0.999991
0.999991
0.999991
0.999991
0.999991
0.999991
0.999991
0.999991
0.999991
0.999991
0.999991
0.999991
0.999992
0.999994
1
1.00001
1.00004
1.00008
1.00027
1.00051
1.00156
1.00294
1.00862
0.999991
0.999991
0.999991
0.999991
0.999991
0.999991
0.999991
0.999991
0.999991
0.999991
0.999991
0.999991
0.999991
0.999991
0.999991
0.999992
0.999994
1
1.00001
1.00005
1.0001
1.0003
1.00058
1.00169
1.00336
0.999991
0.999991
0.999991
0.999991
0.999991
0.999991
0.999991
0.999991
0.999991
0.999991
0.999991
0.999991
0.999991
0.999991
0.999991
0.999991
0.999993
0.999994
1
1.00001
1.00005
1.00011
1.00033
1.00065
1.00186
0.999991
0.999991
0.999991
0.999991
0.999991
0.999991
0.999991
0.999991
0.999991
0.999991
0.999991
0.999991
0.999991
0.999991
0.999991
0.999991
0.999991
0.999993
0.999995
1
1.00001
1.00006
1.00012
1.00037
1.00071
0.999991
0.999991
0.999991
0.999991
0.999991
0.999991
0.999991
0.999991
0.999991
0.999991
0.999991
0.999991
0.999991
0.999991
0.999991
0.999991
0.999991
0.999992
0.999993
0.999996
1
1.00002
1.00005
1.00016
1.00031
0.999991
0.999991
0.999991
0.999991
0.999991
0.999991
0.999991
0.999991
0.999991
0.999991
0.999991
0.999991
0.999991
0.999991
0.999991
0.999991
0.999991
0.999991
0.999992
0.999993
0.999996
1
1.00002
1.00005
1.00016
0.999991
0.999991
0.999991
0.999991
0.999991
0.999991
0.999991
0.999991
0.999991
0.999991
0.999991
0.999991
0.999991
0.999991
0.999991
0.999991
0.999991
0.999991
0.999991
0.999992
0.999993
0.999997
1
1.00002
1.00005
0.999991
0.999991
0.999991
0.999991
0.999991
0.999991
0.999991
0.999991
0.999991
0.999991
0.999991
0.999991
0.999991
0.999991
0.999991
0.999991
0.999991
0.999991
0.999991
0.999991
0.999992
0.999993
0.999997
1
1.00002
0.999991
0.999991
0.999991
0.999991
0.999991
0.999991
0.999991
0.999991
0.999991
0.999991
0.999991
0.999991
0.999991
0.999991
0.999991
0.999991
0.999991
0.999991
0.999991
0.999991
0.999991
0.999992
0.999993
0.999997
1
0.999991
0.999991
0.999991
0.999991
0.999991
0.999991
0.999991
0.999991
0.999991
0.999991
0.999991
0.999991
0.999991
0.999991
0.999991
0.999991
0.999991
0.999991
0.999991
0.999991
0.999991
0.999991
0.999992
0.999993
0.999995
0.999991
0.999991
0.999991
0.999991
0.999991
0.999991
0.999991
0.999991
0.999991
0.999991
0.999991
0.999991
0.999991
0.999991
0.999991
0.999991
0.999991
0.999991
0.999991
0.999991
0.999991
0.999991
0.999991
0.999992
0.999993
0.999991
0.999991
0.999991
0.999991
0.999991
0.999991
0.999991
0.999991
0.999991
0.999991
0.999991
0.999991
0.999991
0.999991
0.999991
0.999991
0.999991
0.999991
0.999991
0.999991
0.999991
0.999991
0.999991
0.999991
0.999992
1
1
1.00001
1.00002
1.00005
1.0001
1.0003
1.00058
1.00162
1.0037
1.00898
1.02516
1.05497
1.17496
1.40305
2.12192
2.60859
2.69727
2.68107
2.66713
2.67077
2.66112
2.65402
2.69711
2.40213
1
1
1.00001
1.00001
1.00005
1.00009
1.00028
1.0005
1.00158
1.00301
1.00851
1.01967
1.04757
1.13911
1.32569
1.93672
2.51144
2.67569
2.66558
2.64739
2.64362
2.63314
2.58873
2.58886
2.39208
1
1
1.00001
1.00001
1.00004
1.00007
1.00023
1.00042
1.00133
1.00246
1.00742
1.0154
1.04042
1.10613
1.25626
1.6806
2.44999
2.62702
2.61915
2.61201
2.60334
2.59045
2.54632
2.51372
2.39395
1
1
1.00001
1.00001
1.00003
1.00006
1.00019
1.00034
1.0011
1.00201
1.00618
1.01236
1.03354
1.08542
1.20264
1.58295
2.37499
2.59404
2.5955
2.58839
2.57144
2.55259
2.4937
2.46289
2.38687
1
1
1
1.00001
1.00003
1.00005
1.00015
1.00027
1.00083
1.00159
1.00452
1.01006
1.02499
1.07062
1.15277
1.49483
2.22471
2.53233
2.58361
2.56812
2.54462
2.52019
2.46958
2.39116
2.35784
1
1
1
1.00001
1.00001
1.00005
1.00008
1.00026
1.0005
1.0014
1.00312
1.00769
1.02108
1.04675
1.14408
1.32903
1.94553
2.42058
2.55878
2.55037
2.52861
2.49965
2.46043
2.38089
2.29964
1
1
1
1.00001
1.00001
1.00004
1.00007
1.00022
1.0004
1.00127
1.00231
1.00713
1.01429
1.03814
1.096
1.2353
1.61634
2.30487
2.49821
2.50419
2.49519
2.46931
2.44176
2.38225
2.2975
1
1
1
1
1.00001
1.00003
1.00005
1.00016
1.00029
1.0009
1.00171
1.00493
1.01073
1.02721
1.07503
1.16513
1.50936
2.20387
2.44987
2.47424
2.45556
2.43267
2.39974
2.36716
2.30066
1
1
1
1
1.00001
1.00002
1.00005
1.00009
1.00027
1.00051
1.00143
1.00317
1.00782
1.02127
1.04733
1.1445
1.32914
1.9278
2.34394
2.44946
2.44082
2.41907
2.37489
2.34748
2.29914
1
1
1
1
1.00001
1.00001
1.00004
1.00006
1.00021
1.00038
1.00119
1.00219
1.00669
1.01344
1.03624
1.08936
1.22442
1.56811
2.22223
2.38511
2.39812
2.38693
2.35586