/*--------------------------------*- C++ -*----------------------------------*\
| =========                 |                                                 |
| \\      /  F ield         | OpenFOAM: The Open Source CFD Toolbox           |
|  \\    /   O peration     | Version:  4.1                                   |
|   \\  /    A nd           | Web:      www.OpenFOAM.org                      |
|    \\/     M anipulation  |                                                 |
\*---------------------------------------------------------------------------*/
FoamFile
{
    version     2.0;
    format      ascii;
    class       volScalarField;
    location    "1.02";
    object      Ma;
}
// * * * * * * * * * * * * * * * * * * * * * * * * * * * * * * * * * * * * * //

dimensions      [0 0 0 0 0 0 0];

internalField   nonuniform List<scalar> 
52500
(
3.00002
3.00001
2.99999
2.99992
2.99981
2.99939
2.99878
2.99636
2.99258
2.97939
2.95202
2.87831
2.67664
2.27281
1.36006
0.535249
0.17125
0.296056
0.322458
0.278054
0.215277
0.16939
0.135935
0.0770123
0.0356497
3.00002
3.00001
2.99999
2.99992
2.99982
2.99939
2.9988
2.9964
2.99268
2.97964
2.95295
2.88036
2.68305
2.2856
1.38314
0.548807
0.179867
0.301283
0.327467
0.283182
0.221401
0.176586
0.14466
0.0925847
0.0641167
3.00002
3.00001
2.99999
2.99992
2.99982
2.99941
2.99883
2.99647
2.9929
2.98015
2.95479
2.88449
2.69606
2.31252
1.43311
0.57913
0.199232
0.312911
0.338678
0.295458
0.236756
0.19504
0.16703
0.125462
0.106348
3.00002
3.00001
2.99999
2.99992
2.99983
2.99943
2.99887
2.99659
2.99318
2.98081
2.95724
2.88999
2.7139
2.34969
1.5063
0.622449
0.226127
0.329413
0.354403
0.313511
0.259802
0.222191
0.198761
0.16596
0.151771
3.00002
3.00001
2.99999
2.99993
2.99983
2.99945
2.99891
2.99672
2.9935
2.98143
2.95979
2.89549
2.73478
2.38974
1.59831
0.672846
0.256691
0.348469
0.37217
0.3354
0.288302
0.2551
0.236246
0.210394
0.199602
3.00002
3.00001
3
2.99993
2.99985
2.99948
2.99898
2.99691
2.9939
2.98245
2.96267
2.90109
2.75413
2.42672
1.68787
0.727566
0.296412
0.369738
0.39086
0.360433
0.321532
0.293269
0.279193
0.259615
0.252755
3.00002
3.00001
3
2.99994
2.99986
2.99952
2.99904
2.9971
2.9943
2.98356
2.96529
2.90752
2.77145
2.46726
1.75366
0.805903
0.348124
0.394438
0.409141
0.387901
0.358544
0.335966
0.328342
0.315491
0.314627
3.00002
3.00001
3
2.99995
2.99987
2.99956
2.99912
2.99732
2.99474
2.98467
2.9682
2.91382
2.79189
2.50525
1.8301
0.898369
0.411171
0.417529
0.427323
0.420189
0.40004
0.384157
0.384492
0.380329
0.390786
3.00002
3.00001
3
2.99995
2.99989
2.9996
2.99921
2.99757
2.99525
2.98602
2.97134
2.92132
2.81271
2.54915
1.91739
1.00615
0.480116
0.436419
0.449879
0.454516
0.442927
0.437068
0.447245
0.457498
0.493216
3.00002
3.00002
3.00001
2.99997
2.99991
2.99967
2.99933
2.99796
2.9959
2.98834
2.97474
2.93257
2.83119
2.60237
2.0021
1.11621
0.554248
0.455676
0.474701
0.489323
0.487646
0.493067
0.518307
0.559161
0.663197
3
2.99999
2.99997
2.9999
2.99979
2.99937
2.99876
2.99634
2.99255
2.97935
2.95199
2.87822
2.6765
2.27245
1.35952
0.534911
0.170908
0.295808
0.322214
0.277775
0.214926
0.168961
0.135399
0.076039
0.0336391
3
2.99999
2.99997
2.9999
2.9998
2.99937
2.99878
2.99638
2.99266
2.9796
2.95291
2.88028
2.68292
2.28524
1.38259
0.548472
0.179537
0.301042
0.327231
0.282914
0.221066
0.17618
0.144163
0.0917871
0.0630354
3
2.99999
2.99997
2.9999
2.9998
2.99939
2.99881
2.99645
2.99287
2.98012
2.95476
2.88441
2.69593
2.31218
1.43258
0.578803
0.198928
0.312684
0.338461
0.295211
0.23645
0.194678
0.166606
0.124882
0.105707
3
2.99999
2.99997
2.9999
2.99981
2.99941
2.99885
2.99657
2.99315
2.98078
2.9572
2.88992
2.71378
2.3494
1.50579
0.622155
0.225859
0.329212
0.354214
0.313291
0.259531
0.22188
0.198411
0.165528
0.151326
3
2.99999
2.99998
2.99991
2.99982
2.99943
2.99889
2.9967
2.99347
2.9814
2.95975
2.89544
2.73469
2.38955
1.59791
0.672611
0.25646
0.348297
0.372011
0.335207
0.288065
0.254835
0.235958
0.21006
0.199268
3
2.99999
2.99998
2.99991
2.99983
2.99946
2.99896
2.99689
2.99387
2.98242
2.96264
2.90104
2.75409
2.42655
1.68765
0.727288
0.296156
0.369583
0.390727
0.360263
0.321328
0.293046
0.278956
0.259349
0.252495
3
2.99999
2.99998
2.99992
2.99984
2.9995
2.99902
2.99708
2.99427
2.98353
2.96526
2.90748
2.77138
2.46714
1.75347
0.805647
0.347889
0.394302
0.409023
0.387749
0.358366
0.335777
0.328146
0.315278
0.314422
3.00001
2.99999
2.99998
2.99993
2.99985
2.99954
2.9991
2.9973
2.99472
2.98464
2.96817
2.91378
2.79183
2.50515
1.82993
0.898116
0.410959
0.417414
0.427207
0.420052
0.399888
0.383999
0.384332
0.380159
0.390626
3.00001
3
2.99998
2.99994
2.99987
2.99958
2.99919
2.99755
2.99523
2.98599
2.97132
2.92128
2.81266
2.54907
1.91724
1.0059
0.479941
0.436319
0.449773
0.454398
0.442798
0.436936
0.447115
0.457364
0.493095
3.00001
3
2.99999
2.99995
2.99989
2.99965
2.99931
2.99794
2.99588
2.98831
2.97472
2.93253
2.83114
2.60227
2.00197
1.11601
0.554097
0.455587
0.474607
0.489221
0.487538
0.492957
0.518202
0.559059
0.663115
3
2.99999
2.99997
2.9999
2.99979
2.99937
2.99876
2.99634
2.99255
2.97935
2.95198
2.87822
2.6765
2.27244
1.3595
0.534902
0.170909
0.295807
0.322212
0.277774
0.214925
0.16896
0.1354
0.0760414
0.033637
3
2.99999
2.99997
2.9999
2.9998
2.99937
2.99878
2.99638
2.99266
2.9796
2.95291
2.88028
2.68291
2.28523
1.38257
0.548463
0.179538
0.301041
0.32723
0.282913
0.221065
0.176179
0.144165
0.0917894
0.0630348
3
2.99999
2.99997
2.9999
2.9998
2.99939
2.99881
2.99645
2.99287
2.98012
2.95476
2.88441
2.69593
2.31217
1.43256
0.578794
0.198928
0.312683
0.33846
0.29521
0.236449
0.194677
0.166607
0.124883
0.105707
3
2.99999
2.99997
2.9999
2.99981
2.99941
2.99885
2.99657
2.99315
2.98078
2.9572
2.88992
2.71378
2.34939
1.50577
0.622146
0.225859
0.329211
0.354213
0.313291
0.259531
0.221879
0.198411
0.165529
0.151327
3
2.99999
2.99998
2.99991
2.99982
2.99943
2.99889
2.9967
2.99347
2.9814
2.95975
2.89544
2.73469
2.38955
1.59789
0.672605
0.256459
0.348297
0.372011
0.335207
0.288065
0.254834
0.235959
0.21006
0.199269
3
2.99999
2.99998
2.99991
2.99983
2.99946
2.99896
2.99689
2.99387
2.98242
2.96264
2.90103
2.75409
2.42654
1.68764
0.727279
0.296153
0.369583
0.390727
0.360263
0.321327
0.293044
0.278956
0.259349
0.252496
3
2.99999
2.99998
2.99992
2.99984
2.9995
2.99902
2.99708
2.99427
2.98353
2.96526
2.90747
2.77138
2.46713
1.75347
0.805638
0.347885
0.394302
0.409025
0.387749
0.358365
0.335776
0.328146
0.315278
0.314423
3.00001
2.99999
2.99998
2.99993
2.99985
2.99954
2.9991
2.9973
2.99472
2.98464
2.96817
2.91378
2.79183
2.50514
1.82992
0.898107
0.410955
0.417415
0.427208
0.420052
0.399888
0.383998
0.384332
0.380159
0.390627
3.00001
3
2.99998
2.99994
2.99987
2.99958
2.99919
2.99755
2.99523
2.98599
2.97132
2.92128
2.81266
2.54906
1.91723
1.00589
0.479937
0.43632
0.449773
0.454398
0.442798
0.436936
0.447115
0.457365
0.493096
3.00001
3
2.99999
2.99995
2.99989
2.99965
2.99931
2.99794
2.99588
2.98831
2.97472
2.93253
2.83114
2.60227
2.00196
1.116
0.554093
0.455588
0.474607
0.489221
0.487538
0.492956
0.518202
0.559059
0.663115
3
2.99999
2.99997
2.9999
2.99979
2.99937
2.99876
2.99634
2.99255
2.97935
2.95198
2.87822
2.6765
2.27244
1.35949
0.534901
0.170909
0.295807
0.322212
0.277773
0.214925
0.16896
0.135401
0.0760417
0.0336377
3
2.99999
2.99997
2.9999
2.9998
2.99937
2.99878
2.99638
2.99266
2.9796
2.95291
2.88028
2.68291
2.28523
1.38257
0.548462
0.179538
0.30104
0.32723
0.282913
0.221065
0.176179
0.144165
0.0917894
0.0630352
3
2.99999
2.99997
2.9999
2.9998
2.99939
2.99881
2.99645
2.99287
2.98012
2.95476
2.88441
2.69593
2.31217
1.43256
0.578793
0.198928
0.312683
0.33846
0.29521
0.236449
0.194677
0.166607
0.124883
0.105707
3
2.99999
2.99997
2.9999
2.99981
2.99941
2.99885
2.99657
2.99315
2.98078
2.9572
2.88992
2.71378
2.34939
1.50577
0.622145
0.225858
0.329211
0.354213
0.31329
0.25953
0.221879
0.198412
0.165529
0.151327
3
2.99999
2.99998
2.99991
2.99982
2.99943
2.99889
2.9967
2.99347
2.9814
2.95975
2.89544
2.73468
2.38954
1.59789
0.672604
0.256459
0.348297
0.372011
0.335206
0.288065
0.254834
0.235959
0.21006
0.199269
3
2.99999
2.99998
2.99991
2.99983
2.99946
2.99896
2.99689
2.99387
2.98242
2.96264
2.90103
2.75409
2.42654
1.68764
0.727278
0.296152
0.369583
0.390727
0.360263
0.321327
0.293044
0.278956
0.259349
0.252496
3
2.99999
2.99998
2.99992
2.99984
2.9995
2.99902
2.99708
2.99427
2.98353
2.96526
2.90747
2.77138
2.46713
1.75347
0.805637
0.347884
0.394302
0.409024
0.387749
0.358365
0.335776
0.328146
0.315278
0.314423
3.00001
2.99999
2.99998
2.99993
2.99985
2.99954
2.9991
2.9973
2.99472
2.98464
2.96817
2.91378
2.79183
2.50514
1.82992
0.898106
0.410954
0.417415
0.427208
0.420052
0.399888
0.383998
0.384332
0.380159
0.390627
3.00001
3
2.99998
2.99994
2.99987
2.99958
2.99919
2.99755
2.99523
2.98599
2.97132
2.92128
2.81266
2.54906
1.91723
1.00589
0.479937
0.43632
0.449773
0.454398
0.442798
0.436936
0.447115
0.457364
0.493096
3.00001
3
2.99999
2.99995
2.99989
2.99965
2.99931
2.99794
2.99588
2.98831
2.97472
2.93253
2.83114
2.60227
2.00196
1.116
0.554092
0.455588
0.474607
0.48922
0.487537
0.492956
0.518202
0.559059
0.663115
3
2.99999
2.99997
2.9999
2.99979
2.99937
2.99876
2.99634
2.99255
2.97935
2.95198
2.87822
2.67649
2.27242
1.35947
0.534889
0.170911
0.295806
0.32221
0.277771
0.214923
0.168959
0.135399
0.0760401
0.0336367
3
2.99999
2.99997
2.9999
2.9998
2.99937
2.99878
2.99638
2.99266
2.9796
2.95291
2.88027
2.68291
2.28521
1.38254
0.548451
0.17954
0.301039
0.327228
0.282911
0.221063
0.176178
0.144163
0.0917885
0.0630344
3
2.99999
2.99997
2.9999
2.9998
2.99939
2.99881
2.99645
2.99287
2.98012
2.95476
2.88441
2.69592
2.31215
1.43253
0.578782
0.198929
0.312682
0.338459
0.295209
0.236447
0.194676
0.166606
0.124883
0.105706
3
2.99999
2.99997
2.9999
2.99981
2.99941
2.99885
2.99657
2.99315
2.98078
2.9572
2.88992
2.71377
2.34938
1.50574
0.622136
0.225859
0.329211
0.354213
0.31329
0.259529
0.221878
0.198411
0.165528
0.151326
3
2.99999
2.99998
2.99991
2.99982
2.99943
2.99889
2.9967
2.99347
2.9814
2.95975
2.89544
2.73468
2.38954
1.59787
0.672597
0.25646
0.348297
0.372012
0.335207
0.288064
0.254833
0.235958
0.21006
0.199269
3
2.99999
2.99998
2.99991
2.99983
2.99946
2.99896
2.99689
2.99387
2.98242
2.96264
2.90103
2.75408
2.42653
1.68763
0.727269
0.29615
0.369584
0.390729
0.360263
0.321327
0.293044
0.278956
0.259349
0.252495
3
2.99999
2.99998
2.99992
2.99984
2.9995
2.99902
2.99708
2.99427
2.98353
2.96526
2.90747
2.77138
2.46713
1.75346
0.805627
0.347881
0.394303
0.409027
0.38775
0.358365
0.335776
0.328145
0.315278
0.314423
3.00001
2.99999
2.99998
2.99993
2.99985
2.99954
2.9991
2.9973
2.99472
2.98464
2.96817
2.91378
2.79183
2.50514
1.82991
0.898096
0.41095
0.417417
0.427209
0.420053
0.399888
0.383998
0.384332
0.380159
0.390627
3.00001
3
2.99998
2.99994
2.99987
2.99958
2.99919
2.99755
2.99523
2.98599
2.97131
2.92128
2.81265
2.54906
1.91722
1.00588
0.479933
0.436322
0.449775
0.454398
0.442798
0.436936
0.447115
0.457364
0.493096
3.00001
3
2.99999
2.99995
2.99989
2.99965
2.99931
2.99794
2.99588
2.98831
2.97472
2.93253
2.83114
2.60226
2.00195
1.11599
0.554089
0.45559
0.474609
0.489221
0.487538
0.492956
0.518202
0.559059
0.663115
3
2.99999
2.99997
2.9999
2.99979
2.99937
2.99876
2.99634
2.99255
2.97935
2.95198
2.87822
2.67649
2.27243
1.35948
0.534895
0.17091
0.295807
0.322211
0.277773
0.214924
0.168959
0.1354
0.0760411
0.0336376
3
2.99999
2.99997
2.9999
2.9998
2.99937
2.99878
2.99638
2.99266
2.9796
2.95291
2.88027
2.68291
2.28522
1.38256
0.548456
0.179539
0.30104
0.327229
0.282912
0.221064
0.176178
0.144164
0.0917889
0.0630351
3
2.99999
2.99997
2.9999
2.9998
2.99939
2.99881
2.99645
2.99287
2.98012
2.95476
2.88441
2.69592
2.31216
1.43254
0.578787
0.198929
0.312682
0.338459
0.29521
0.236448
0.194677
0.166607
0.124883
0.105707
3
2.99999
2.99997
2.9999
2.99981
2.99941
2.99885
2.99657
2.99315
2.98078
2.9572
2.88992
2.71377
2.34938
1.50576
0.622141
0.225859
0.329211
0.354213
0.31329
0.25953
0.221878
0.198411
0.165528
0.151327
3
2.99999
2.99998
2.99991
2.99982
2.99943
2.99889
2.9967
2.99347
2.9814
2.95975
2.89544
2.73468
2.38954
1.59788
0.6726
0.25646
0.348297
0.372011
0.335207
0.288065
0.254834
0.235958
0.21006
0.199269
3
2.99999
2.99998
2.99991
2.99983
2.99946
2.99896
2.99689
2.99387
2.98242
2.96264
2.90103
2.75409
2.42654
1.68764
0.727274
0.296151
0.369584
0.390728
0.360263
0.321327
0.293044
0.278956
0.259349
0.252496
3
2.99999
2.99998
2.99992
2.99984
2.9995
2.99902
2.99708
2.99427
2.98353
2.96526
2.90747
2.77138
2.46713
1.75346
0.805632
0.347882
0.394303
0.409026
0.38775
0.358365
0.335776
0.328146
0.315278
0.314423
3.00001
2.99999
2.99998
2.99993
2.99985
2.99954
2.9991
2.9973
2.99472
2.98464
2.96817
2.91378
2.79183
2.50514
1.82991
0.898101
0.410952
0.417416
0.427209
0.420053
0.399888
0.383998
0.384332
0.380159
0.390627
3.00001
3
2.99998
2.99994
2.99987
2.99958
2.99919
2.99755
2.99523
2.98599
2.97132
2.92128
2.81266
2.54906
1.91723
1.00589
0.479935
0.436321
0.449774
0.454398
0.442798
0.436936
0.447115
0.457364
0.493096
3.00001
3
2.99999
2.99995
2.99989
2.99965
2.99931
2.99794
2.99588
2.98831
2.97472
2.93253
2.83114
2.60226
2.00196
1.116
0.554091
0.455589
0.474608
0.489221
0.487538
0.492956
0.518202
0.559059
0.663115
3
2.99999
2.99997
2.9999
2.99979
2.99937
2.99876
2.99634
2.99255
2.97935
2.95198
2.87822
2.6765
2.27244
1.3595
0.534901
0.170909
0.295807
0.322212
0.277773
0.214925
0.16896
0.135401
0.0760417
0.0336377
3
2.99999
2.99997
2.9999
2.9998
2.99937
2.99878
2.99638
2.99266
2.9796
2.95291
2.88028
2.68291
2.28523
1.38257
0.548462
0.179538
0.30104
0.32723
0.282913
0.221065
0.176179
0.144165
0.0917894
0.0630352
3
2.99999
2.99997
2.9999
2.9998
2.99939
2.99881
2.99645
2.99287
2.98012
2.95476
2.88441
2.69593
2.31217
1.43256
0.578793
0.198928
0.312683
0.33846
0.29521
0.236449
0.194677
0.166608
0.124883
0.105707
3
2.99999
2.99997
2.9999
2.99981
2.99941
2.99885
2.99657
2.99315
2.98078
2.9572
2.88992
2.71378
2.34939
1.50577
0.622146
0.225858
0.329211
0.354213
0.31329
0.25953
0.221879
0.198412
0.165529
0.151327
3
2.99999
2.99998
2.99991
2.99982
2.99943
2.99889
2.9967
2.99347
2.9814
2.95975
2.89544
2.73468
2.38954
1.59789
0.672604
0.256459
0.348297
0.372011
0.335206
0.288065
0.254834
0.235959
0.21006
0.199269
3
2.99999
2.99998
2.99991
2.99983
2.99946
2.99896
2.99689
2.99387
2.98242
2.96264
2.90103
2.75409
2.42654
1.68764
0.727278
0.296152
0.369583
0.390727
0.360263
0.321327
0.293044
0.278956
0.259349
0.252496
3
2.99999
2.99998
2.99992
2.99984
2.9995
2.99902
2.99708
2.99427
2.98353
2.96526
2.90747
2.77138
2.46713
1.75347
0.805637
0.347884
0.394302
0.409024
0.387749
0.358365
0.335776
0.328146
0.315278
0.314423
3.00001
2.99999
2.99998
2.99993
2.99985
2.99954
2.9991
2.9973
2.99472
2.98464
2.96817
2.91378
2.79183
2.50514
1.82992
0.898106
0.410954
0.417415
0.427208
0.420052
0.399888
0.383998
0.384332
0.380159
0.390627
3.00001
3
2.99998
2.99994
2.99987
2.99958
2.99919
2.99755
2.99523
2.98599
2.97132
2.92128
2.81266
2.54906
1.91723
1.00589
0.479937
0.43632
0.449773
0.454398
0.442798
0.436936
0.447115
0.457364
0.493096
3.00001
3
2.99999
2.99995
2.99989
2.99965
2.99931
2.99794
2.99588
2.98831
2.97472
2.93253
2.83114
2.60227
2.00196
1.116
0.554092
0.455588
0.474607
0.48922
0.487537
0.492956
0.518202
0.559059
0.663115
3
2.99999
2.99997
2.9999
2.99979
2.99937
2.99876
2.99634
2.99255
2.97935
2.95198
2.87822
2.6765
2.27244
1.3595
0.534902
0.170909
0.295807
0.322212
0.277774
0.214925
0.16896
0.1354
0.0760414
0.033637
3
2.99999
2.99997
2.9999
2.9998
2.99937
2.99878
2.99638
2.99266
2.9796
2.95291
2.88028
2.68291
2.28523
1.38257
0.548463
0.179538
0.301041
0.32723
0.282913
0.221065
0.176179
0.144165
0.0917894
0.0630348
3
2.99999
2.99997
2.9999
2.9998
2.99939
2.99881
2.99645
2.99287
2.98012
2.95476
2.88441
2.69593
2.31217
1.43256
0.578794
0.198928
0.312683
0.33846
0.29521
0.236449
0.194677
0.166607
0.124883
0.105707
3
2.99999
2.99997
2.9999
2.99981
2.99941
2.99885
2.99657
2.99315
2.98078
2.9572
2.88992
2.71378
2.34939
1.50577
0.622146
0.225859
0.329211
0.354213
0.313291
0.259531
0.221879
0.198411
0.165529
0.151327
3
2.99999
2.99998
2.99991
2.99982
2.99943
2.99889
2.9967
2.99347
2.9814
2.95975
2.89544
2.73469
2.38955
1.59789
0.672605
0.256459
0.348297
0.372011
0.335207
0.288065
0.254834
0.235959
0.21006
0.199269
3
2.99999
2.99998
2.99991
2.99983
2.99946
2.99896
2.99689
2.99387
2.98242
2.96264
2.90103
2.75409
2.42654
1.68764
0.727279
0.296153
0.369583
0.390727
0.360263
0.321327
0.293044
0.278956
0.259349
0.252496
3
2.99999
2.99998
2.99992
2.99984
2.9995
2.99902
2.99708
2.99427
2.98353
2.96526
2.90747
2.77138
2.46713
1.75347
0.805638
0.347885
0.394302
0.409025
0.387749
0.358365
0.335776
0.328146
0.315278
0.314423
3.00001
2.99999
2.99998
2.99993
2.99985
2.99954
2.9991
2.9973
2.99472
2.98464
2.96817
2.91378
2.79183
2.50514
1.82992
0.898107
0.410955
0.417415
0.427208
0.420052
0.399888
0.383998
0.384332
0.380159
0.390627
3.00001
3
2.99998
2.99994
2.99987
2.99958
2.99919
2.99755
2.99523
2.98599
2.97132
2.92128
2.81266
2.54906
1.91723
1.00589
0.479937
0.43632
0.449773
0.454398
0.442798
0.436936
0.447115
0.457365
0.493096
3.00001
3
2.99999
2.99995
2.99989
2.99965
2.99931
2.99794
2.99588
2.98831
2.97472
2.93253
2.83114
2.60227
2.00196
1.116
0.554093
0.455588
0.474607
0.489221
0.487538
0.492956
0.518202
0.559059
0.663115
3
2.99999
2.99997
2.9999
2.99979
2.99937
2.99876
2.99634
2.99255
2.97935
2.95199
2.87822
2.6765
2.27245
1.35952
0.534911
0.170908
0.295808
0.322214
0.277775
0.214926
0.168961
0.135399
0.076039
0.0336391
3
2.99999
2.99997
2.9999
2.9998
2.99937
2.99878
2.99638
2.99266
2.9796
2.95291
2.88028
2.68292
2.28524
1.38259
0.548472
0.179537
0.301042
0.327231
0.282914
0.221066
0.17618
0.144163
0.0917871
0.0630354
3
2.99999
2.99997
2.9999
2.9998
2.99939
2.99881
2.99645
2.99287
2.98012
2.95476
2.88441
2.69593
2.31218
1.43258
0.578803
0.198928
0.312684
0.338461
0.295211
0.23645
0.194678
0.166606
0.124882
0.105707
3
2.99999
2.99997
2.9999
2.99981
2.99941
2.99885
2.99657
2.99315
2.98078
2.9572
2.88992
2.71378
2.3494
1.50579
0.622155
0.225859
0.329212
0.354214
0.313291
0.259531
0.22188
0.198411
0.165528
0.151326
3
2.99999
2.99998
2.99991
2.99982
2.99943
2.99889
2.9967
2.99347
2.9814
2.95975
2.89544
2.73469
2.38955
1.59791
0.672611
0.25646
0.348297
0.372011
0.335207
0.288066
0.254835
0.235958
0.21006
0.199268
3
2.99999
2.99998
2.99991
2.99983
2.99946
2.99896
2.99689
2.99387
2.98242
2.96264
2.90104
2.75409
2.42655
1.68765
0.727288
0.296156
0.369583
0.390727
0.360263
0.321328
0.293046
0.278956
0.259349
0.252495
3
2.99999
2.99998
2.99992
2.99984
2.9995
2.99902
2.99708
2.99427
2.98353
2.96526
2.90748
2.77138
2.46714
1.75347
0.805647
0.347889
0.394302
0.409023
0.387749
0.358366
0.335777
0.328146
0.315278
0.314422
3.00001
2.99999
2.99998
2.99993
2.99985
2.99954
2.9991
2.9973
2.99472
2.98464
2.96817
2.91378
2.79183
2.50515
1.82993
0.898116
0.410959
0.417414
0.427207
0.420052
0.399888
0.383999
0.384332
0.380159
0.390626
3.00001
3
2.99998
2.99994
2.99987
2.99958
2.99919
2.99755
2.99523
2.98599
2.97132
2.92128
2.81266
2.54907
1.91724
1.0059
0.479941
0.436319
0.449773
0.454398
0.442798
0.436936
0.447115
0.457364
0.493095
3.00001
3
2.99999
2.99995
2.99989
2.99965
2.99931
2.99794
2.99588
2.98831
2.97472
2.93253
2.83114
2.60227
2.00197
1.11601
0.554097
0.455587
0.474607
0.48922
0.487538
0.492957
0.518202
0.559059
0.663115
3.00002
3.00001
2.99999
2.99992
2.99981
2.99939
2.99878
2.99636
2.99258
2.97939
2.95202
2.87831
2.67664
2.27282
1.36007
0.535251
0.17125
0.296056
0.322458
0.278054
0.215277
0.16939
0.135936
0.0770152
0.0356485
3.00002
3.00001
2.99999
2.99992
2.99982
2.99939
2.9988
2.9964
2.99268
2.97964
2.95295
2.88036
2.68305
2.2856
1.38314
0.548808
0.179866
0.301283
0.327467
0.283182
0.221402
0.176586
0.144661
0.0925867
0.0641164
3.00002
3.00001
2.99999
2.99992
2.99982
2.99941
2.99883
2.99647
2.9929
2.98015
2.95479
2.88449
2.69606
2.31252
1.43312
0.579131
0.199232
0.312911
0.338679
0.295458
0.236756
0.195039
0.167031
0.125463
0.106348
3.00002
3.00001
2.99999
2.99992
2.99983
2.99943
2.99887
2.99659
2.99318
2.98081
2.95724
2.88999
2.7139
2.34969
1.5063
0.62245
0.226127
0.329413
0.354403
0.313511
0.259802
0.222191
0.198762
0.165961
0.151771
3.00002
3.00001
2.99999
2.99993
2.99983
2.99945
2.99891
2.99672
2.9935
2.98143
2.95979
2.89549
2.73479
2.38974
1.59831
0.672846
0.256691
0.348469
0.372169
0.3354
0.288302
0.2551
0.236247
0.210395
0.199602
3.00002
3.00001
3
2.99993
2.99985
2.99948
2.99898
2.99691
2.9939
2.98245
2.96267
2.90109
2.75413
2.42672
1.68787
0.727567
0.296412
0.369737
0.39086
0.360432
0.321532
0.293269
0.279194
0.259615
0.252755
3.00002
3.00001
3
2.99994
2.99986
2.99952
2.99904
2.9971
2.9943
2.98356
2.96529
2.90752
2.77145
2.46726
1.75366
0.805904
0.348124
0.394438
0.40914
0.3879
0.358543
0.335966
0.328342
0.315491
0.314627
3.00002
3.00001
3
2.99995
2.99987
2.99956
2.99912
2.99732
2.99474
2.98467
2.9682
2.91382
2.79189
2.50525
1.8301
0.89837
0.411171
0.417529
0.427323
0.420189
0.40004
0.384157
0.384493
0.380329
0.390786
3.00002
3.00001
3
2.99995
2.99989
2.9996
2.99921
2.99757
2.99525
2.98602
2.97134
2.92132
2.81271
2.54915
1.91739
1.00615
0.480117
0.436419
0.449879
0.454516
0.442927
0.437068
0.447245
0.457498
0.493216
3.00002
3.00002
3.00001
2.99997
2.99991
2.99967
2.99933
2.99796
2.9959
2.98834
2.97474
2.93257
2.83119
2.60237
2.0021
1.11621
0.554248
0.455675
0.474701
0.489323
0.487646
0.493066
0.518307
0.559161
0.663197
3.00002
3.00002
3.00001
2.99998
2.9999
2.99978
2.99932
2.9986
2.99605
2.99124
2.97702
2.94241
2.8607
2.6216
2.17179
1.22677
0.643814
0.476841
0.50154
0.525889
0.53469
0.552584
0.598308
0.680575
0.861714
3.00002
3.00002
3.00001
2.99999
2.99992
2.99981
2.99938
2.99878
2.99634
2.9926
2.97944
2.95282
2.88036
2.68573
2.29712
1.42357
0.758291
0.518654
0.542024
0.568026
0.583719
0.611578
0.674065
0.779529
0.966227
3.00002
3.00002
3.00001
3
2.99993
2.99985
2.99948
2.99898
2.99689
2.99388
2.98229
2.96256
2.9016
2.75633
2.43434
1.69823
0.907228
0.590832
0.602541
0.619766
0.639476
0.671783
0.737562
0.845228
1.00696
3.00002
3.00002
3.00001
3
2.99995
2.99988
2.99958
2.99916
2.99745
2.99501
2.98529
2.96997
2.91801
2.80606
2.53461
1.90568
1.04544
0.660026
0.654138
0.669506
0.693436
0.727679
0.792541
0.887657
1.02364
3.00003
3.00002
3.00002
3.00001
2.99997
2.99991
2.99968
2.99936
2.99806
2.9961
2.98894
2.97611
2.93636
2.84165
2.62736
2.06385
1.22587
0.759386
0.689395
0.706867
0.73583
0.774705
0.834546
0.925232
1.03616
3.00003
3.00002
3.00002
3.00001
2.99999
2.99992
2.99982
2.99941
2.99879
2.99658
2.9925
2.98026
2.95108
2.88092
2.68046
2.29224
1.44631
0.885164
0.726047
0.740718
0.769497
0.813293
0.869603
0.951069
1.05291
3.00003
3.00003
3.00002
3.00001
3
2.99994
2.99986
2.99951
2.99903
2.99706
2.99424
2.98327
2.96495
2.90773
2.77361
2.47178
1.77335
1.05836
0.795665
0.789879
0.809941
0.849413
0.901721
0.97219
1.0635
3.00003
3.00003
3.00002
3.00002
3.00001
2.99996
2.9999
2.99965
2.99929
2.99786
2.99574
2.98781
2.97416
2.93084
2.83009
2.60295
2.02827
1.22832
0.869316
0.834237
0.85163
0.886765
0.934996
0.993877
1.07226
3.00003
3.00003
3.00003
3.00002
3.00001
2.99999
2.99992
2.99981
2.99939
2.99875
2.99649
2.99233
2.97981
2.95022
2.8789
2.67755
2.28755
1.45603
0.992584
0.877752
0.887523
0.916777
0.965195
1.01619
1.08258
3.00003
3.00003
3.00003
3.00002
3.00001
3
2.99994
2.99986
2.99953
2.99907
2.99719
2.99444
2.98407
2.96612
2.9126
2.78382
2.49931
1.84762
1.17345
0.944902
0.932454
0.951779
0.989971
1.04108
1.09675
3.00003
3.00003
3.00003
3.00002
3.00002
3
2.99998
2.99989
2.99975
2.9992
2.9984
2.99527
2.99045
2.97319
2.94095
2.84979
2.62813
2.14505
1.3652
1.0252
0.973548
0.989055
1.01798
1.06443
1.11583
3.00003
3.00003
3.00003
3.00003
3.00002
3.00001
2.99999
2.99993
2.99983
2.99944
2.99888
2.99665
2.99333
2.98105
2.95947
2.89399
2.73895
2.39749
1.68545
1.17461
1.02871
1.02699
1.04709
1.08503
1.13691
3.00003
3.00003
3.00003
3.00003
3.00002
3.00002
3
2.99997
2.99986
2.9997
2.99907
2.99812
2.99455
2.98884
2.96917
2.93284
2.82468
2.6016
2.03523
1.37418
1.10931
1.07111
1.08255
1.11082
1.15412
3.00003
3.00003
3.00003
3.00003
3.00003
3.00002
3.00001
2.99999
2.99992
2.99981
2.99938
2.99876
2.99634
2.99271
2.97947
2.95605
2.88584
2.72408
2.3585
1.65835
1.23922
1.12478
1.12181
1.13796
1.17102
3.00003
3.00003
3.00003
3.00003
3.00003
3.00002
3.00002
3
2.99997
2.99985
2.99968
2.99903
2.99805
2.9944
2.9885
2.96856
2.93138
2.82266
2.59839
2.03722
1.43315
1.2011
1.16578
1.17267
1.19627
3.00003
3.00003
3.00003
3.00003
3.00003
3.00003
3.00002
3.00001
2.99999
2.99992
2.99981
2.99938
2.99877
2.99636
2.99278
2.97955
2.95686
2.88797
2.73462
2.37543
1.71207
1.31809
1.21678
1.20976
1.22235
3.00003
3.00003
3.00003
3.00003
3.00003
3.00003
3.00002
3.00002
3
2.99997
2.99986
2.9997
2.99908
2.99815
2.9947
2.98912
2.97037
2.93546
2.83384
2.62452
2.09605
1.51971
1.28933
1.25448
1.2569
3.00003
3.00003
3.00003
3.00003
3.00003
3.00003
3.00003
3.00002
3.00001
2.99999
2.99993
2.99983
2.99944
2.99888
2.99669
2.99346
2.98136
2.96147
2.89798
2.76624
2.43673
1.82656
1.41543
1.30329
1.2922
3.00003
3.00003
3.00003
3.00003
3.00003
3.00003
3.00003
3.00002
3.00002
3
2.99998
2.99988
2.99974
2.9992
2.99837
2.99536
2.99043
2.97396
2.94374
2.85313
2.67425
2.18754
1.64297
1.38889
1.33948
3.00003
3.00003
3.00003
3.00003
3.00003
3.00003
3.00003
3.00003
3.00002
3.00002
2.99999
2.99996
2.99982
2.99963
2.99888
2.99774
2.99358
2.98686
2.96471
2.9201
2.80769
2.53203
1.98993
1.53035
1.38987
3.00003
3.00003
3.00003
3.00003
3.00003
3.00003
3.00003
3.00003
3.00003
3.00002
3.00001
2.99999
2.99991
2.99979
2.99934
2.99869
2.99618
2.9924
2.97864
2.95534
2.88247
2.73498
2.35052
1.79785
1.48843
3.00003
3.00003
3.00003
3.00003
3.00003
3.00003
3.00003
3.00003
3.00003
3.00002
3.00002
3
2.99997
2.99987
2.99971
2.99913
2.99823
2.99502
2.98972
2.97253
2.93988
2.84873
2.65579
2.18741
1.68485
3.00003
3.00003
3.00003
3.00003
3.00003
3.00003
3.00003
3.00003
3.00003
3.00003
3.00002
3.00001
3
2.99994
2.99985
2.99951
2.99902
2.99713
2.99436
2.98411
2.96716
2.91436
2.8053
2.53724
2.0062
3.00003
3.00003
3.00003
3.00003
3.00003
3.00003
3.00003
3.00003
3.00003
3.00003
3.00003
3.00002
3.00001
2.99998
2.99993
2.99974
2.99948
2.99844
2.99695
2.99128
2.98247
2.95277
2.89256
2.7489
2.38762
3.00003
3.00003
3.00003
3.00003
3.00003
3.00003
3.00003
3.00003
3.00003
3.00003
3.00003
3.00002
3.00002
3
2.99998
2.99987
2.99973
2.99917
2.99834
2.99526
2.9905
2.97408
2.94505
2.86015
2.68612
3.00003
3.00003
3.00003
3.00003
3.00003
3.00003
3.00003
3.00003
3.00003
3.00003
3.00003
3.00003
3.00002
3.00002
3
2.99996
2.99984
2.99966
2.99899
2.99796
2.9943
2.98828
2.96904
2.9299
2.83327
3.00003
3.00003
3.00003
3.00003
3.00003
3.00003
3.00003
3.00003
3.00003
3.00003
3.00003
3.00003
3.00003
3.00002
3.00001
2.99999
2.99995
2.9998
2.99957
2.99874
2.99747
2.99302
2.98532
2.9622
2.91067
3.00003
3.00003
3.00003
3.00003
3.00003
3.00003
3.00003
3.00003
3.00003
3.00003
3.00003
3.00003
3.00003
3.00003
3.00002
3.00001
2.99998
2.99993
2.99975
2.99947
2.99847
2.99693
2.99144
2.98238
2.95369
3.00003
3.00003
3.00003
3.00003
3.00003
3.00003
3.00003
3.00003
3.00003
3.00003
3.00003
3.00003
3.00003
3.00003
3.00002
3.00002
3
2.99998
2.99988
2.99974
2.99922
2.99844
2.99557
2.99112
2.97596
3.00003
3.00003
3.00003
3.00003
3.00003
3.00003
3.00003
3.00003
3.00003
3.00003
3.00003
3.00003
3.00003
3.00003
3.00003
3.00002
3.00002
3
2.99997
2.99986
2.9997
2.99912
2.99822
2.99509
2.98985
3.00003
3.00003
3.00003
3.00003
3.00003
3.00003
3.00003
3.00003
3.00003
3.00003
3.00003
3.00003
3.00003
3.00003
3.00003
3.00003
3.00002
3.00002
3
2.99996
2.99984
2.99966
2.99899
2.99797
2.99436
3.00003
3.00003
3.00003
3.00003
3.00003
3.00003
3.00003
3.00003
3.00003
3.00003
3.00003
3.00003
3.00003
3.00003
3.00003
3.00003
3.00003
3.00002
3.00002
2.99999
2.99995
2.99982
2.99961
2.99887
2.99773
3.00003
3.00003
3.00003
3.00003
3.00003
3.00003
3.00003
3.00003
3.00003
3.00003
3.00003
3.00003
3.00003
3.00003
3.00003
3.00003
3.00003
3.00003
3.00002
3.00001
2.99999
2.99993
2.99983
2.99947
2.99894
3.00003
3.00003
3.00003
3.00003
3.00003
3.00003
3.00003
3.00003
3.00003
3.00003
3.00003
3.00003
3.00003
3.00003
3.00003
3.00003
3.00003
3.00003
3.00003
3.00002
3.00001
2.99999
2.99992
2.99982
2.99945
3.00003
3.00003
3.00003
3.00003
3.00003
3.00003
3.00003
3.00003
3.00003
3.00003
3.00003
3.00003
3.00003
3.00003
3.00003
3.00003
3.00003
3.00003
3.00003
3.00003
3.00002
3.00001
2.99999
2.99992
2.99981
3.00003
3.00003
3.00003
3.00003
3.00003
3.00003
3.00003
3.00003
3.00003
3.00003
3.00003
3.00003
3.00003
3.00003
3.00003
3.00003
3.00003
3.00003
3.00003
3.00003
3.00003
3.00002
3.00001
2.99999
2.99991
3.00003
3.00003
3.00003
3.00003
3.00003
3.00003
3.00003
3.00003
3.00003
3.00003
3.00003
3.00003
3.00003
3.00003
3.00003
3.00003
3.00003
3.00003
3.00003
3.00003
3.00003
3.00003
3.00002
3.00001
2.99999
3.00003
3.00003
3.00003
3.00003
3.00003
3.00003
3.00003
3.00003
3.00003
3.00003
3.00003
3.00003
3.00003
3.00003
3.00003
3.00003
3.00003
3.00003
3.00003
3.00003
3.00003
3.00003
3.00003
3.00002
3.00001
3.00003
3.00003
3.00003
3.00003
3.00003
3.00003
3.00003
3.00003
3.00003
3.00003
3.00003
3.00003
3.00003
3.00003
3.00003
3.00003
3.00003
3.00003
3.00003
3.00003
3.00003
3.00003
3.00003
3.00003
3.00002
3.00003
3.00003
3.00003
3.00003
3.00003
3.00003
3.00003
3.00003
3.00003
3.00003
3.00003
3.00003
3.00003
3.00003
3.00003
3.00003
3.00003
3.00003
3.00003
3.00003
3.00003
3.00003
3.00003
3.00003
3.00002
3
3
2.99999
2.99997
2.99988
2.99976
2.99929
2.99858
2.99603
2.99122
2.97699
2.94238
2.86065
2.62152
2.17164
1.22656
0.643661
0.476745
0.501445
0.525795
0.534598
0.552493
0.598225
0.680501
0.861666
3.00001
3
2.99999
2.99997
2.9999
2.99979
2.99936
2.99876
2.99632
2.99258
2.97941
2.95279
2.88031
2.68566
2.29698
1.42335
0.758126
0.518541
0.541918
0.567933
0.583634
0.6115
0.673996
0.779471
0.966185
3.00001
3
2.99999
2.99998
2.99991
2.99983
2.99946
2.99895
2.99687
2.99386
2.98226
2.96253
2.90155
2.75626
2.43419
1.69787
0.90707
0.59073
0.602445
0.619678
0.639392
0.671708
0.7375
0.845178
1.00693
3.00001
3
2.99999
2.99998
2.99993
2.99986
2.99956
2.99914
2.99742
2.99498
2.98527
2.96994
2.91797
2.806
2.53453
1.90552
1.04527
0.659927
0.654063
0.66943
0.693362
0.727611
0.792484
0.88761
1.0236
3.00001
3
3
2.99999
2.99995
2.99989
2.99966
2.99934
2.99804
2.99608
2.98891
2.97608
2.93632
2.84161
2.62727
2.06374
1.22569
0.759283