/*--------------------------------*- C++ -*----------------------------------*\
| =========                 |                                                 |
| \\      /  F ield         | OpenFOAM: The Open Source CFD Toolbox           |
|  \\    /   O peration     | Version:  4.1                                   |
|   \\  /    A nd           | Web:      www.OpenFOAM.org                      |
|    \\/     M anipulation  |                                                 |
\*---------------------------------------------------------------------------*/
FoamFile
{
    version     2.0;
    format      ascii;
    class       volVectorField;
    location    "1.02";
    object      U;
}
// * * * * * * * * * * * * * * * * * * * * * * * * * * * * * * * * * * * * * //

dimensions      [0 1 -1 0 0 0 0];

internalField   nonuniform List<vector> 
52500
(
(3 3.57357e-09 -0.00571424)
(3 1.89841e-08 -0.00571428)
(2.99999 7.061e-08 -0.00571435)
(2.99997 1.78816e-07 -0.00571455)
(2.99993 5.06158e-07 -0.00571492)
(2.9998 1.14199e-06 -0.00571606)
(2.99957 3.24927e-06 -0.00571827)
(2.99883 6.5455e-06 -0.00572452)
(2.99752 2.3008e-05 -0.00573893)
(2.99269 3.77913e-05 -0.00576979)
(2.98492 0.000173439 -0.0058791)
(2.95273 0.000317639 -0.00603849)
(2.88303 0.00130393 -0.00685098)
(2.66705 0.0030878 -0.0081055)
(1.95556 0.0106691 -0.012945)
(0.884792 0.0290905 -0.0179873)
(0.284083 0.0248277 -0.0189921)
(0.492561 0.0233156 -0.0189634)
(0.536365 0.0253896 -0.0190057)
(0.463254 0.0283332 -0.0191947)
(0.359127 0.0320893 -0.0194542)
(0.281179 0.0363051 -0.0195765)
(0.225371 0.0407408 -0.0200181)
(0.122731 0.0456596 -0.0208771)
(0.0284628 0.0482056 -0.0196402)
(3 1.06456e-08 -0.00571424)
(3 5.6278e-08 -0.00571428)
(2.99999 2.10697e-07 -0.00571435)
(2.99997 5.34366e-07 -0.00571455)
(2.99993 1.5187e-06 -0.00571491)
(2.99981 3.44064e-06 -0.00571604)
(2.99957 9.74405e-06 -0.00571821)
(2.99885 1.99412e-05 -0.00572443)
(2.99755 6.87543e-05 -0.00573849)
(2.99281 0.000114373 -0.00576925)
(2.98515 0.000517488 -0.00587541)
(2.95364 0.000954927 -0.00603307)
(2.8855 0.00390702 -0.00682461)
(2.67428 0.0093541 -0.00805112)
(1.97958 0.032298 -0.0127902)
(0.901836 0.0871837 -0.0177907)
(0.290693 0.072326 -0.018893)
(0.497505 0.0656194 -0.0188725)
(0.540825 0.0690014 -0.0189041)
(0.466721 0.074341 -0.019087)
(0.361652 0.081628 -0.0193341)
(0.281914 0.0886843 -0.0194472)
(0.224497 0.0950348 -0.0198796)
(0.121082 0.101471 -0.0207114)
(0.027152 0.101221 -0.0194648)
(3 1.67097e-08 -0.00571424)
(3 8.76464e-08 -0.00571428)
(2.99999 3.29892e-07 -0.00571434)
(2.99997 8.3779e-07 -0.00571454)
(2.99993 2.39078e-06 -0.0057149)
(2.99981 5.44798e-06 -0.005716)
(2.99958 1.52529e-05 -0.0057181)
(2.99888 3.22869e-05 -0.00572424)
(2.9976 0.000106269 -0.00573765)
(2.99306 0.00017635 -0.00576813)
(2.98562 0.0008035 -0.00586824)
(2.95547 0.00146186 -0.00602242)
(2.89053 0.00610391 -0.0067731)
(2.68926 0.014635 -0.00794244)
(2.03087 0.0509906 -0.0124894)
(0.94132 0.139264 -0.0174618)
(0.309091 0.120616 -0.0187664)
(0.508776 0.112542 -0.0187561)
(0.550995 0.118641 -0.0187785)
(0.476109 0.127563 -0.018959)
(0.370544 0.140568 -0.0191926)
(0.288355 0.152887 -0.0192986)
(0.228855 0.164002 -0.0197178)
(0.124223 0.175258 -0.0205392)
(0.0279598 0.17341 -0.0193072)
(3 2.65315e-08 -0.00571424)
(3 1.1304e-07 -0.00571428)
(2.99999 4.4187e-07 -0.00571434)
(2.99997 1.1263e-06 -0.00571453)
(2.99993 3.15586e-06 -0.00571488)
(2.99982 7.16784e-06 -0.00571594)
(2.99959 1.94298e-05 -0.00571796)
(2.99892 4.18312e-05 -0.00572392)
(2.99767 0.000128201 -0.00573655)
(2.99339 0.000222025 -0.00576675)
(2.98623 0.000967769 -0.00585867)
(2.95793 0.00165319 -0.00600872)
(2.89725 0.00740882 -0.00670288)
(2.70962 0.0173377 -0.00779783)
(2.10228 0.0609633 -0.0120545)
(1.00077 0.168459 -0.0170195)
(0.338479 0.164715 -0.0186148)
(0.523523 0.162907 -0.018613)
(0.563916 0.171392 -0.0186339)
(0.489746 0.182715 -0.018815)
(0.38518 0.201077 -0.0190222)
(0.300193 0.218874 -0.0191143)
(0.238134 0.235285 -0.0195101)
(0.131505 0.252204 -0.0203367)
(0.0302758 0.249502 -0.0191451)
(3 4.00203e-08 -0.00571424)
(3 1.41158e-07 -0.00571428)
(2.99999 5.84703e-07 -0.00571434)
(2.99997 1.4948e-06 -0.00571452)
(2.99993 4.16719e-06 -0.00571485)
(2.99983 9.50256e-06 -0.00571587)
(2.99961 2.52969e-05 -0.00571781)
(2.99897 5.55591e-05 -0.00572358)
(2.99775 0.000155772 -0.00573539)
(2.99375 0.00031274 -0.00576558)
(2.98683 0.00107438 -0.00584858)
(2.96069 0.00201042 -0.00599655)
(2.90448 0.00764097 -0.00661935)
(2.73164 0.0189637 -0.0076485)
(2.18013 0.0602716 -0.0114614)
(1.07522 0.167689 -0.0165686)
(0.370961 0.211744 -0.0184739)
(0.536699 0.219495 -0.0184746)
(0.575403 0.226806 -0.0184855)
(0.505062 0.238519 -0.0186446)
(0.403953 0.261878 -0.0188216)
(0.316352 0.28534 -0.0189116)
(0.251572 0.307414 -0.0192694)
(0.142555 0.330751 -0.0200802)
(0.0341864 0.328862 -0.0189548)
(3 4.62397e-08 -0.00571424)
(3 1.63365e-07 -0.00571428)
(2.99999 6.82099e-07 -0.00571433)
(2.99997 1.74228e-06 -0.0057145)
(2.99994 4.86848e-06 -0.00571481)
(2.99984 1.11189e-05 -0.00571578)
(2.99963 2.95575e-05 -0.00571759)
(2.99903 6.57244e-05 -0.00572304)
(2.99788 0.000177773 -0.00573405)
(2.99415 0.000383149 -0.00576286)
(2.98766 0.00113424 -0.00583843)
(2.96328 0.00241465 -0.00598238)
(2.91221 0.00725627 -0.00655024)
(2.75154 0.0207419 -0.00750935)
(2.2413 0.0527566 -0.0108665)
(1.16511 0.161653 -0.0164339)
(0.417839 0.262237 -0.0183763)
(0.547657 0.279694 -0.0183369)
(0.583672 0.282768 -0.0183107)
(0.521753 0.294141 -0.018439)
(0.427128 0.323101 -0.0185846)
(0.337211 0.353496 -0.0186576)
(0.269547 0.382885 -0.0189943)
(0.158094 0.41466 -0.0198163)
(0.0406007 0.41656 -0.0187479)
(3 4.93508e-08 -0.00571424)
(3 1.88608e-07 -0.00571427)
(2.99999 7.66639e-07 -0.00571432)
(2.99997 1.95992e-06 -0.00571448)
(2.99994 5.41797e-06 -0.00571478)
(2.99985 1.23382e-05 -0.00571568)
(2.99965 3.2354e-05 -0.00571738)
(2.9991 7.16374e-05 -0.00572249)
(2.99801 0.000191329 -0.0057327)
(2.99455 0.000405907 -0.00575982)
(2.98853 0.00120507 -0.00582955)
(2.96567 0.00245591 -0.00596302)
(2.92052 0.00761444 -0.00649718)
(2.76764 0.0208692 -0.00732756)
(2.30165 0.0518127 -0.0106241)
(1.28815 0.165966 -0.0161264)
(0.487673 0.310859 -0.0181996)
(0.560695 0.33765 -0.0181368)
(0.588904 0.334362 -0.0181104)
(0.540134 0.348831 -0.0182216)
(0.455204 0.384562 -0.0183567)
(0.364151 0.423543 -0.0184172)
(0.294116 0.463217 -0.0186698)
(0.180576 0.506322 -0.0194742)
(0.0514268 0.517584 -0.018479)
(3 5.61555e-08 -0.00571424)
(3 2.2995e-07 -0.00571427)
(2.99999 9.16285e-07 -0.00571432)
(2.99998 2.34774e-06 -0.00571446)
(2.99995 6.43857e-06 -0.00571474)
(2.99986 1.46878e-05 -0.00571557)
(2.99968 3.80124e-05 -0.00571713)
(2.99917 8.41641e-05 -0.00572188)
(2.99816 0.000219821 -0.00573124)
(2.99499 0.000466962 -0.00575696)
(2.98938 0.00134713 -0.00581931)
(2.96849 0.00265703 -0.00594745)
(2.92823 0.00855892 -0.0064251)
(2.78571 0.020626 -0.00718404)
(2.36806 0.0593897 -0.0103062)
(1.42609 0.170421 -0.015673)
(0.576428 0.361444 -0.0179312)
(0.57276 0.384983 -0.017879)
(0.592401 0.383527 -0.0179044)
(0.563215 0.405895 -0.0179658)
(0.489634 0.445637 -0.018055)
(0.399636 0.494783 -0.0180923)
(0.327835 0.54864 -0.0182701)
(0.213933 0.607774 -0.0190154)
(0.0707636 0.640164 -0.0181221)
(3 6.76006e-08 -0.00571424)
(3 2.94675e-07 -0.00571427)
(2.99999 1.15704e-06 -0.00571431)
(2.99998 2.96783e-06 -0.00571444)
(2.99995 8.11921e-06 -0.00571469)
(2.99987 1.86543e-05 -0.00571544)
(2.99971 4.8116e-05 -0.00571685)
(2.99925 0.000108099 -0.00572117)
(2.99833 0.000274365 -0.00572957)
(2.99549 0.000620358 -0.0057533)
(2.99036 0.00155929 -0.00580855)
(2.97155 0.00348126 -0.0059276)
(2.93606 0.00935877 -0.00635193)
(2.80654 0.0225363 -0.00703003)
(2.4378 0.064694 -0.00991295)
(1.57681 0.171221 -0.0150675)
(0.674437 0.410692 -0.0175612)
(0.581203 0.424741 -0.0177114)
(0.603262 0.431519 -0.017737)
(0.588437 0.463365 -0.0177341)
(0.526969 0.506277 -0.0177896)
(0.445669 0.56679 -0.0177809)
(0.3752 0.636626 -0.0178302)
(0.267306 0.721415 -0.0184543)
(0.107872 0.799755 -0.0175449)
(3 6.74756e-08 -0.00571424)
(3 2.34656e-07 -0.00571426)
(2.99999 1.61445e-06 -0.0057143)
(2.99998 2.56842e-06 -0.00571441)
(2.99996 1.07212e-05 -0.00571462)
(2.99989 1.65448e-05 -0.00571525)
(2.99976 6.39714e-05 -0.00571647)
(2.99935 9.39671e-05 -0.00572003)
(2.99859 0.000387827 -0.00572752)
(2.99606 0.000459727 -0.00574623)
(2.99177 0.00245538 -0.00579801)
(2.97486 0.00171098 -0.00589272)
(2.94462 0.0157204 -0.00629286)
(2.82792 0.0109232 -0.00683603)
(2.5047 0.0934492 -0.0095624)
(1.72354 0.168253 -0.0144602)
(0.774974 0.467122 -0.0171373)
(0.583117 0.470454 -0.0175049)
(0.616329 0.477532 -0.0175041)
(0.617041 0.514405 -0.0174745)
(0.569537 0.56386 -0.0174959)
(0.502786 0.634914 -0.0174316)
(0.442869 0.726103 -0.0173402)
(0.359359 0.857265 -0.0177015)
(0.179405 1.05605 -0.0166381)
(3 3.48021e-09 -2.39396e-09)
(2.99999 1.8886e-08 -8.76303e-09)
(2.99999 7.05791e-08 -1.02131e-08)
(2.99997 1.79293e-07 -1.59525e-08)
(2.99992 5.08077e-07 -1.62461e-08)
(2.9998 1.14685e-06 -2.13782e-08)
(2.99956 3.26146e-06 -2.20935e-08)
(2.99883 6.57499e-06 -2.95709e-08)
(2.99752 2.30691e-05 -3.43814e-08)
(2.99268 3.7939e-05 -6.69934e-08)
(2.9849 0.000173708 -7.51216e-08)
(2.9527 0.000318294 -2.24379e-07)
(2.88296 0.0013053 -3.62892e-07)
(2.66687 0.00309108 -1.19102e-06)
(1.95503 0.010678 -2.56283e-06)
(0.884468 0.0291125 -4.84084e-06)
(0.284147 0.0248375 1.01696e-06)
(0.492518 0.0233153 5.48419e-07)
(0.536301 0.0253845 2.99399e-07)
(0.463191 0.0283283 2.56367e-07)
(0.359069 0.0320862 2.17454e-07)
(0.281138 0.0363027 2.355e-07)
(0.225342 0.0407388 2.14306e-07)
(0.12271 0.0456565 1.93353e-07)
(0.0284623 0.0482061 1.83207e-07)
(3 1.04112e-08 -2.39601e-09)
(2.99999 5.59584e-08 -8.76228e-09)
(2.99999 2.10749e-07 -1.02113e-08)
(2.99997 5.36022e-07 -1.59415e-08)
(2.99993 1.5253e-06 -1.62152e-08)
(2.99981 3.45734e-06 -2.13141e-08)
(2.99957 9.78551e-06 -2.19307e-08)
(2.99885 2.00493e-05 -2.91896e-08)
(2.99754 6.89543e-05 -3.36827e-08)
(2.99281 0.000114922 -6.49723e-08)
(2.98514 0.000518369 -7.26539e-08)
(2.95362 0.000957223 -2.16523e-07)
(2.88544 0.00391117 -3.51816e-07)
(2.67411 0.00936497 -1.16301e-06)
(1.97906 0.032326 -2.51889e-06)
(0.901508 0.0872532 -4.86148e-06)
(0.290739 0.0723504 9.71357e-07)
(0.497464 0.0656128 5.46683e-07)
(0.540768 0.0689847 2.94935e-07)
(0.466666 0.0743264 2.53201e-07)
(0.3616 0.0816184 2.14832e-07)
(0.281879 0.088677 2.30893e-07)
(0.224471 0.0950289 2.07417e-07)
(0.121062 0.101465 1.83564e-07)
(0.0271483 0.101218 1.70276e-07)
(3 1.62647e-08 -2.39927e-09)
(2.99999 8.70376e-08 -8.76226e-09)
(2.99999 3.30008e-07 -1.02041e-08)
(2.99997 8.40238e-07 -1.59148e-08)
(2.99993 2.40047e-06 -1.61343e-08)
(2.99981 5.4719e-06 -2.11478e-08)
(2.99958 1.53173e-05 -2.15463e-08)
(2.99888 3.24611e-05 -2.82258e-08)
(2.9976 0.000106582 -3.22379e-08)
(2.99305 0.000177542 -6.00327e-08)
(2.98561 0.000804797 -6.82391e-08)
(2.95545 0.00146656 -1.98093e-07)
(2.89047 0.00611048 -3.33474e-07)
(2.6891 0.0146565 -1.09214e-06)
(2.03037 0.0510449 -2.40667e-06)
(0.940983 0.139416 -4.82352e-06)
(0.309106 0.120656 7.94352e-07)
(0.508744 0.112522 4.83504e-07)
(0.550957 0.118611 2.70427e-07)
(0.476071 0.12754 2.37569e-07)
(0.370503 0.140555 2.07842e-07)
(0.288325 0.152877 2.20559e-07)
(0.228833 0.163994 1.92761e-07)
(0.124206 0.175251 1.64806e-07)
(0.0279558 0.173404 1.45819e-07)
(3 2.17373e-08 -2.40305e-09)
(3 1.1824e-07 -8.76282e-09)
(2.99999 4.42323e-07 -1.0194e-08)
(2.99997 1.13019e-06 -1.58864e-08)
(2.99993 3.15959e-06 -1.60396e-08)
(2.99982 7.19012e-06 -2.09447e-08)
(2.99959 1.9462e-05 -2.09423e-08)
(2.99892 4.19499e-05 -2.65733e-08)
(2.99766 0.000128422 -3.00039e-08)
(2.99338 0.000223113 -4.78385e-08)
(2.98623 0.000968892 -6.64526e-08)
(2.95791 0.00165819 -1.53193e-07)
(2.8972 0.00741801 -3.13473e-07)
(2.70948 0.0173687 -9.09605e-07)
(2.10185 0.0610614 -2.11958e-06)
(1.00045 0.16875 -4.37059e-06)
(0.33848 0.164753 4.95443e-07)
(0.523522 0.162863 3.27769e-07)
(0.563912 0.171354 2.30309e-07)
(0.489731 0.182691 2.11157e-07)
(0.385152 0.201063 1.88916e-07)
(0.300171 0.218863 2.00026e-07)
(0.238117 0.235277 1.71191e-07)
(0.131492 0.252196 1.42312e-07)
(0.0302721 0.249495 1.163e-07)
(3 2.88837e-08 -2.47435e-09)
(3 1.57275e-07 -8.61167e-09)
(2.99999 5.86113e-07 -1.0266e-08)
(2.99997 1.50125e-06 -1.58569e-08)
(2.99993 4.1678e-06 -1.6081e-08)
(2.99982 9.51716e-06 -2.07023e-08)
(2.99961 2.52988e-05 -2.09754e-08)
(2.99897 5.55875e-05 -2.57254e-08)
(2.99775 0.000155851 -2.87176e-08)
(2.99375 0.000312922 -3.8696e-08)
(2.98682 0.00107553 -5.93943e-08)
(2.96067 0.00201103 -1.0567e-07)
(2.90444 0.00765479 -2.29646e-07)
(2.73156 0.0189811 -6.29091e-07)
(2.17988 0.0603963 -1.34648e-06)
(1.07495 0.167976 -3.35717e-06)
(0.37098 0.211744 6.54965e-08)
(0.536736 0.219438 1.66445e-07)
(0.575436 0.226774 2.06992e-07)
(0.505067 0.238503 1.8889e-07)
(0.403937 0.261867 1.58007e-07)
(0.316338 0.285332 1.68556e-07)
(0.251562 0.307407 1.45649e-07)
(0.142546 0.330745 1.18488e-07)
(0.0341835 0.328854 8.9505e-08)
(3 3.37381e-08 -2.6137e-09)
(3 1.8299e-07 -8.29932e-09)
(2.99999 6.83603e-07 -1.03936e-08)
(2.99997 1.74905e-06 -1.58278e-08)
(2.99994 4.87213e-06 -1.61312e-08)
(2.99983 1.11284e-05 -2.0667e-08)
(2.99963 2.95781e-05 -2.10815e-08)
(2.99903 6.5776e-05 -2.5939e-08)
(2.99788 0.000177918 -2.85428e-08)
(2.99415 0.000383519 -4.31411e-08)
(2.98765 0.00113517 -4.32313e-08)
(2.96327 0.00241727 -1.50904e-07)
(2.91217 0.00726255 -4.42307e-08)
(2.7515 0.0207605 -7.48078e-07)
(2.24117 0.0528182 -5.73236e-07)
(1.16476 0.161805 -2.3017e-06)
(0.417746 0.262241 -8.6098e-07)
(0.5477 0.279664 -7.18571e-08)
(0.58373 0.282756 1.98021e-07)
(0.521769 0.294138 1.68616e-07)
(0.427119 0.323096 1.17297e-07)
(0.337203 0.35349 1.31186e-07)
(0.269543 0.38288 1.21279e-07)
(0.158088 0.414655 9.58496e-08)
(0.0405988 0.416552 6.56435e-08)
(3 3.78558e-08 -2.73381e-09)
(3 2.06287e-07 -8.02742e-09)
(2.99999 7.66726e-07 -1.05059e-08)
(2.99997 1.96331e-06 -1.57947e-08)
(2.99994 5.41559e-06 -1.61335e-08)
(2.99984 1.23358e-05 -2.05721e-08)
(2.99965 3.23568e-05 -2.0775e-08)
(2.99909 7.16646e-05 -2.50942e-08)
(2.99801 0.000191422 -2.67208e-08)
(2.99455 0.00040636 -3.41562e-08)
(2.98853 0.00120537 -4.62392e-08)
(2.96566 0.0024598 -7.17176e-08)
(2.92049 0.00761349 -1.37509e-07)
(2.7676 0.0208912 -4.09491e-07)
(2.3015 0.0518182 -5.21346e-07)
(1.28784 0.16605 -1.85998e-06)
(0.487545 0.310885 -9.07141e-07)
(0.560725 0.337674 -5.77353e-08)
(0.588968 0.334369 1.08278e-07)
(0.540155 0.348832 8.13219e-08)
(0.455198 0.384563 8.21001e-08)
(0.364148 0.423541 9.95331e-08)
(0.294116 0.463214 9.52022e-08)
(0.180574 0.506319 7.43201e-08)
(0.051426 0.517578 4.58902e-08)
(3 4.51325e-08 -2.84911e-09)
(3 2.46236e-07 -7.77126e-09)
(2.99999 9.12578e-07 -1.06301e-08)
(2.99998 2.34109e-06 -1.57926e-08)
(2.99994 6.41455e-06 -1.62091e-08)
(2.99986 1.4643e-05 -2.06268e-08)
(2.99968 3.79357e-05 -2.08617e-08)
(2.99916 8.40407e-05 -2.52024e-08)
(2.99816 0.000219648 -2.67272e-08)
(2.99499 0.000466671 -3.46166e-08)
(2.98937 0.00134696 -4.35545e-08)
(2.96848 0.00265632 -7.47967e-08)
(2.92821 0.0085606 -1.15255e-07)
(2.78567 0.0206298 -3.2572e-07)
(2.36794 0.0594033 -5.00065e-07)
(1.4258 0.17048 -1.60476e-06)
(0.576295 0.361468 -1.04609e-06)
(0.572792 0.385028 9.53721e-08)
(0.592445 0.383547 1.29178e-07)
(0.563236 0.405897 7.42382e-08)
(0.489636 0.44564 6.89158e-08)
(0.399638 0.494785 7.67539e-08)
(0.327841 0.54864 7.0564e-08)
(0.213935 0.607773 5.74457e-08)
(0.0707643 0.640161 3.44424e-08)
(3 5.59308e-08 -2.95837e-09)
(3 3.0731e-07 -7.5338e-09)
(2.99999 1.13864e-06 -1.07859e-08)
(2.99998 2.92803e-06 -1.58608e-08)
(2.99995 8.03984e-06 -1.64083e-08)
(2.99987 1.8506e-05 -2.08993e-08)
(2.99971 4.79152e-05 -2.12683e-08)
(2.99924 0.00010778 -2.58344e-08)
(2.99833 0.000273954 -2.74567e-08)
(2.99548 0.000619732 -3.59775e-08)
(2.99036 0.00155871 -4.34186e-08)
(2.97154 0.0034804 -7.52551e-08)
(2.93604 0.00935792 -1.01918e-07)
(2.80651 0.0225396 -3.00088e-07)
(2.4377 0.0647014 -3.91778e-07)
(1.57654 0.171276 -1.49161e-06)
(0.674332 0.410718 -1.09001e-06)
(0.581254 0.424777 1.0306e-07)
(0.603305 0.431541 1.05336e-07)
(0.588462 0.463373 5.87388e-08)
(0.526983 0.506283 5.8187e-08)
(0.445679 0.566794 6.37617e-08)
(0.375211 0.636629 5.81749e-08)
(0.267313 0.721417 4.6465e-08)
(0.107875 0.799756 2.39112e-08)
(3 9.53189e-08 -3.08657e-09)
(3 2.33044e-07 -7.33567e-09)
(2.99999 1.48507e-06 -1.11185e-08)
(2.99998 2.49938e-06 -1.62078e-08)
(2.99996 1.04149e-05 -1.69052e-08)
(2.99989 1.62827e-05 -2.18487e-08)
(2.99975 6.34403e-05 -2.17812e-08)
(2.99935 9.34771e-05 -2.72051e-08)
(2.99858 0.000386958 -2.8252e-08)
(2.99606 0.000459209 -3.80525e-08)
(2.99177 0.00245443 -4.22681e-08)
(2.97485 0.00171108 -7.72747e-08)
(2.9446 0.01572 -1.14412e-07)
(2.82788 0.0109294 -2.43055e-07)
(2.50462 0.0934498 -4.30465e-07)
(1.72334 0.168293 -1.14852e-06)
(0.774887 0.467136 -1.16055e-06)
(0.583182 0.470482 1.09373e-07)
(0.616375 0.477557 8.70821e-08)
(0.617071 0.514421 3.6631e-08)
(0.569559 0.563872 4.03758e-08)
(0.502804 0.634923 4.94263e-08)
(0.442886 0.726109 5.43729e-08)
(0.359371 0.85727 4.10926e-08)
(0.179412 1.05606 2.32814e-08)
(3 3.48025e-09 -3.42093e-13)
(2.99999 1.88863e-08 -1.85323e-12)
(2.99999 7.05803e-08 -3.93782e-12)
(2.99997 1.79296e-07 -8.06931e-12)
(2.99992 5.08088e-07 -1.47501e-11)
(2.9998 1.14688e-06 -2.64884e-11)
(2.99956 3.26156e-06 -6.01902e-11)
(2.99883 6.57518e-06 -9.82082e-11)
(2.99752 2.30699e-05 -3.76895e-10)
(2.99268 3.79408e-05 -4.58078e-10)
(2.9849 0.000173715 -2.86851e-09)
(2.9527 0.000318308 -3.94287e-09)
(2.88296 0.00130535 -1.94627e-08)
(2.66687 0.0030912 -4.03246e-08)
(1.955 0.0106784 -1.20721e-07)
(0.884455 0.0291134 -2.1182e-07)
(0.284149 0.0248377 3.29547e-08)
(0.492517 0.0233151 1.57645e-08)
(0.536298 0.0253841 6.02253e-09)
(0.463189 0.028328 4.61831e-09)
(0.359067 0.0320859 4.56783e-09)
(0.281137 0.0363026 8.81546e-09)
(0.225343 0.0407385 1.10098e-09)
(0.122715 0.045657 1.19156e-08)
(0.0284575 0.0482052 1.42846e-10)
(3 1.04115e-08 -3.41418e-13)
(2.99999 5.59599e-08 -1.85075e-12)
(2.99999 2.10754e-07 -3.91625e-12)
(2.99997 5.36034e-07 -8.02353e-12)
(2.99993 1.52533e-06 -1.44997e-11)
(2.99981 3.45741e-06 -2.59401e-11)
(2.99957 9.78583e-06 -5.82125e-11)
(2.99885 2.00498e-05 -9.41693e-11)
(2.99754 6.8957e-05 -3.6314e-10)
(2.99281 0.000114927 -4.27116e-10)
(2.98514 0.00051839 -2.77301e-09)
(2.95361 0.00095727 -3.75307e-09)
(2.88543 0.00391133 -1.89117e-08)
(2.6741 0.00936535 -3.92369e-08)
(1.97903 0.0323272 -1.18649e-07)
(0.901494 0.0872558 -2.12519e-07)
(0.29074 0.072351 3.08647e-08)
(0.497462 0.0656123 1.56583e-08)
(0.540766 0.0689838 5.96538e-09)
(0.466665 0.0743255 4.65614e-09)
(0.361599 0.0816178 4.645e-09)
(0.281877 0.0886766 8.93551e-09)
(0.224473 0.0950283 2.00717e-10)
(0.121068 0.101465 1.21173e-08)
(0.0271458 0.101218 -6.06456e-11)
(3 1.62653e-08 -3.39346e-13)
(2.99999 8.70403e-08 -1.83672e-12)
(2.99999 3.30019e-07 -3.88522e-12)
(2.99997 8.40264e-07 -7.9867e-12)
(2.99993 2.40055e-06 -1.42468e-11)
(2.99981 5.47208e-06 -2.55154e-11)
(2.99958 1.5318e-05 -5.45986e-11)
(2.99888 3.24621e-05 -8.89647e-11)
(2.9976 0.000106587 -3.33075e-10)
(2.99305 0.000177551 -3.68061e-10)
(2.98561 0.000804838 -2.58576e-09)
(2.95544 0.00146665 -3.36987e-09)
(2.89047 0.00611077 -1.77764e-08)
(2.68909 0.0146572 -3.67538e-08)
(2.03035 0.0510473 -1.13225e-07)
(0.940969 0.139421 -2.10861e-07)
(0.309107 0.120657 2.27599e-08)
(0.508743 0.112521 1.27307e-08)
(0.550956 0.11861 5.08267e-09)
(0.47607 0.127539 4.21237e-09)
(0.370502 0.140554 4.5931e-09)
(0.288324 0.152876 8.72897e-09)
(0.228835 0.163993 -1.46654e-09)
(0.124212 0.175251 1.21519e-08)
(0.0279539 0.173406 -4.13646e-10)
(3 2.17377e-08 -3.29624e-13)
(3 1.1824e-07 -1.797e-12)
(2.99999 4.42328e-07 -3.73228e-12)
(2.99997 1.1302e-06 -7.64725e-12)
(2.99993 3.15964e-06 -1.32428e-11)
(2.99982 7.19027e-06 -2.36189e-11)
(2.99959 1.94625e-05 -4.87224e-11)
(2.99892 4.1951e-05 -8.58036e-11)
(2.99766 0.000128427 -2.80738e-10)
(2.99338 0.00022312 -3.222e-10)
(2.98622 0.000968942 -2.1972e-09)
(2.95791 0.0016583 -2.82317e-09)
(2.8972 0.00741842 -1.5433e-08)
(2.70948 0.0173698 -3.15801e-08)
(2.10183 0.0610655 -9.88444e-08)
(1.00043 0.168762 -1.92223e-07)
(0.33848 0.164754 9.37808e-09)
(0.523521 0.162861 5.78073e-09)
(0.563912 0.171352 3.53003e-09)
(0.489731 0.182689 3.31343e-09)
(0.385152 0.201062 4.00235e-09)
(0.30017 0.218862 7.36684e-09)
(0.238119 0.235276 -3.12738e-09)
(0.131498 0.252196 1.07682e-08)
(0.0302704 0.249498 8.02099e-10)
(3 2.8884e-08 -3.26125e-13)
(3 1.57275e-07 -1.80543e-12)
(2.99999 5.86115e-07 -3.70366e-12)
(2.99997 1.50125e-06 -7.60109e-12)
(2.99993 4.16781e-06 -1.27544e-11)
(2.99982 9.5172e-06 -2.25108e-11)
(2.99961 2.52989e-05 -4.25705e-11)
(2.99897 5.55877e-05 -7.46723e-11)
(2.99775 0.000155854 -2.05354e-10)
(2.99375 0.000312921 -3.0086e-10)
(2.98682 0.00107558 -1.52843e-09)
(2.96067 0.00201106 -1.68576e-09)
(2.90444 0.00765528 -1.10001e-08)
(2.73155 0.0189819 -2.05958e-08)
(2.17987 0.0604009 -6.49914e-08)
(1.07494 0.167987 -1.49736e-07)
(0.370979 0.211743 -1.03274e-08)
(0.536737 0.219435 -1.06384e-09)
(0.575437 0.226772 2.90774e-09)
(0.505068 0.238501 2.60238e-09)
(0.403937 0.261866 2.59975e-09)
(0.316337 0.285331 5.04554e-09)
(0.251564 0.307405 -4.16409e-09)
(0.142552 0.330745 8.42931e-09)
(0.0341822 0.328859 1.49495e-09)
(3 3.37386e-08 -3.2248e-13)
(3 1.82992e-07 -1.7928e-12)
(2.99999 6.83611e-07 -3.67621e-12)
(2.99997 1.74906e-06 -7.56643e-12)
(2.99994 4.87218e-06 -1.28137e-11)
(2.99983 1.11285e-05 -2.26072e-11)
(2.99963 2.95784e-05 -4.37675e-11)
(2.99903 6.57767e-05 -8.09029e-11)
(2.99788 0.000177921 -1.9469e-10)
(2.99415 0.000383524 -4.18714e-10)
(2.98765 0.00113519 -9.97511e-10)
(2.96327 0.00241731 -2.79755e-09)
(2.91217 0.00726279 -5.05553e-09)
(2.7515 0.0207609 -2.22756e-08)
(2.24116 0.0528207 -3.71379e-08)
(1.16474 0.161811 -1.02902e-07)
(0.417741 0.26224 -5.14078e-08)
(0.547701 0.279662 -1.1173e-08)
(0.583732 0.282754 2.87927e-09)
(0.52177 0.294137 1.91858e-09)
(0.427119 0.323095 6.34203e-10)
(0.337202 0.353489 3.21251e-09)
(0.269544 0.382879 -2.246e-09)
(0.158094 0.414654 5.5038e-09)
(0.0405977 0.416557 1.26364e-09)
(3 3.78561e-08 -3.15339e-13)
(3 2.06288e-07 -1.7722e-12)
(2.99999 7.66729e-07 -3.57633e-12)
(2.99997 1.96332e-06 -7.37122e-12)
(2.99994 5.41561e-06 -1.19765e-11)
(2.99984 1.23359e-05 -2.07083e-11)
(2.99965 3.2357e-05 -3.69228e-11)
(2.99909 7.16653e-05 -6.39747e-11)
(2.99801 0.000191424 -1.53428e-10)
(2.99455 0.000406366 -2.40727e-10)
(2.98853 0.00120538 -9.79904e-10)
(2.96566 0.00245987 -1.21001e-09)
(2.92049 0.00761352 -6.20354e-09)
(2.7676 0.0208918 -1.48194e-08)
(2.3015 0.0518186 -2.83268e-08)
(1.28783 0.166053 -8.9153e-08)
(0.487538 0.310885 -5.44478e-08)
(0.560726 0.337674 -1.00464e-08)
(0.58897 0.334369 -1.20454e-09)
(0.540155 0.348831 -2.13515e-09)
(0.455198 0.384562 -1.03026e-09)
(0.364147 0.42354 2.48159e-09)
(0.294117 0.463213 -1.20569e-09)
(0.180579 0.506319 3.35555e-09)
(0.0514253 0.517584 -7.30442e-11)
(3 4.51324e-08 -3.146e-13)
(3 2.46235e-07 -1.77517e-12)
(2.99999 9.12573e-07 -3.58769e-12)
(2.99998 2.34108e-06 -7.41345e-12)
(2.99994 6.41451e-06 -1.21185e-11)
(2.99986 1.46429e-05 -2.11172e-11)
(2.99968 3.79355e-05 -3.80352e-11)
(2.99916 8.40402e-05 -6.76466e-11)
(2.99816 0.000219647 -1.55822e-10)
(2.99499 0.000466667 -2.83558e-10)
(2.98937 0.00134697 -8.72711e-10)
(2.96848 0.0026563 -1.45204e-09)
(2.92821 0.00856066 -5.35225e-09)
(2.78567 0.02063 -1.18246e-08)
(2.36793 0.0594035 -2.96944e-08)
(1.42579 0.170482 -7.72345e-08)
(0.576288 0.361468 -6.40635e-08)
(0.572793 0.385029 -1.96823e-09)
(0.592446 0.383547 2.39057e-10)
(0.563237 0.405896 -1.78186e-09)
(0.489637 0.445639 -1.60217e-09)
(0.399638 0.494784 1.50209e-09)
(0.327841 0.548639 -2.72223e-10)
(0.21394 0.607773 5.91701e-10)
(0.0707642 0.640167 -2.62721e-10)
(3 5.59305e-08 -3.17748e-13)
(3 3.07306e-07 -1.79552e-12)
(2.99999 1.13863e-06 -3.65255e-12)
(2.99998 2.928e-06 -7.56979e-12)
(2.99995 8.03977e-06 -1.25064e-11)
(2.99987 1.85058e-05 -2.19714e-11)
(2.99971 4.79149e-05 -3.98689e-11)
(2.99924 0.000107779 -7.16979e-11)
(2.99833 0.000273954 -1.60667e-10)
(2.99548 0.000619729 -3.0452e-10)
(2.99036 0.00155871 -8.37515e-10)
(2.97154 0.00348039 -1.46704e-09)
(2.93604 0.00935794 -4.88845e-09)
(2.80651 0.0225397 -1.08697e-08)
(2.4377 0.0647017 -2.67193e-08)
(1.57653 0.171277 -7.22926e-08)
(0.674325 0.410718 -6.97207e-08)
(0.581256 0.424778 -7.97388e-10)
(0.603306 0.431541 -1.33939e-10)
(0.588463 0.463373 -2.0332e-09)
(0.526983 0.506282 -1.68149e-09)
(0.445679 0.566793 5.21838e-10)
(0.375211 0.636628 3.90698e-10)
(0.267317 0.721417 -3.19064e-10)
(0.107876 0.799762 9.52101e-10)
(3 9.53157e-08 -3.22657e-13)
(3 2.33046e-07 -1.84223e-12)
(2.99999 1.48504e-06 -3.75433e-12)
(2.99998 2.49936e-06 -7.81777e-12)
(2.99996 1.04148e-05 -1.28524e-11)
(2.99989 1.62827e-05 -2.29659e-11)
(2.99975 6.34403e-05 -4.04535e-11)
(2.99935 9.34772e-05 -7.39676e-11)
(2.99858 0.00038696 -1.59247e-10)
(2.99606 0.00045921 -3.15693e-10)
(2.99177 0.00245445 -7.78233e-10)
(2.97485 0.00171108 -1.54388e-09)
(2.9446 0.0157201 -4.74116e-09)
(2.82788 0.0109295 -9.49796e-09)
(2.50461 0.0934502 -2.74092e-08)
(1.72333 0.168294 -6.48465e-08)
(0.77488 0.467135 -7.68738e-08)
(0.583184 0.470482 5.60938e-10)
(0.616376 0.477557 -2.49129e-10)
(0.617071 0.514421 -3.06432e-09)
(0.56956 0.563872 -2.50245e-09)
(0.502805 0.634922 -7.1225e-10)
(0.442886 0.726109 7.28468e-10)
(0.359374 0.857271 -6.24005e-10)
(0.179413 1.05606 2.40092e-09)
(3 3.48024e-09 -8.88054e-14)
(2.99999 1.88862e-08 -3.90807e-13)
(2.99999 7.05801e-08 -1.36621e-12)
(2.99997 1.79296e-07 -2.91201e-12)
(2.99992 5.08087e-07 -9.25534e-12)
(2.9998 1.14688e-06 -1.86338e-11)
(2.99956 3.26156e-06 -6.26393e-11)
(2.99883 6.5752e-06 -1.09079e-10)
(2.99752 2.30699e-05 -4.76923e-10)
(2.99268 3.79411e-05 -6.11146e-10)
(2.9849 0.000173715 -3.72339e-09)
(2.9527 0.00031831 -5.18491e-09)
(2.88296 0.00130535 -2.48896e-08)
(2.66687 0.00309121 -5.05162e-08)
(1.955 0.0106784 -1.48686e-07)
(0.884453 0.0291134 -2.53232e-07)
(0.284149 0.0248378 5.72362e-08)
(0.492516 0.0233151 3.0655e-08)
(0.536298 0.0253841 1.66716e-08)
(0.463188 0.0283279 1.40115e-08)
(0.359067 0.0320859 1.18007e-08)
(0.281136 0.0363025 1.28401e-08)
(0.225345 0.0407384 1.24294e-08)
(0.122716 0.0456566 1.0545e-08)
(0.0284583 0.0482062 1.14009e-08)
(3 1.04114e-08 -8.66867e-14)
(2.99999 5.59597e-08 -3.81228e-13)
(2.99999 2.10754e-07 -1.32347e-12)
(2.99997 5.36031e-07 -2.82156e-12)
(2.99993 1.52533e-06 -8.87883e-12)
(2.99981 3.4574e-06 -1.78494e-11)
(2.99957 9.78581e-06 -5.98756e-11)
(2.99885 2.00497e-05 -1.04438e-10)
(2.99754 6.8957e-05 -4.55885e-10)
(2.99281 0.000114927 -5.80651e-10)
(2.98514 0.00051839 -3.56753e-09)
(2.95361 0.000957273 -4.96196e-09)
(2.88543 0.00391134 -2.40411e-08)
(2.6741 0.00936537 -4.91481e-08)
(1.97903 0.0323273 -1.45839e-07)
(0.901493 0.087256 -2.54238e-07)
(0.29074 0.0723511 5.42892e-08)
(0.497462 0.0656122 3.03857e-08)
(0.540766 0.0689837 1.6516e-08)
(0.466664 0.0743254 1.39725e-08)
(0.361599 0.0816177 1.18143e-08)
(0.281877 0.0886765 1.2676e-08)
(0.224474 0.0950282 1.18936e-08)
(0.121068 0.101465 9.98652e-09)
(0.0271455 0.101219 1.02076e-08)
(3 1.62653e-08 -7.92594e-14)
(2.99999 8.70403e-08 -3.41888e-13)
(2.99999 3.30019e-07 -1.21594e-12)
(2.99997 8.40264e-07 -2.6211e-12)
(2.99993 2.40055e-06 -8.15576e-12)
(2.99981 5.47207e-06 -1.6465e-11)
(2.99958 1.53179e-05 -5.32968e-11)
(2.99888 3.2462e-05 -9.39543e-11)
(2.9976 0.000106587 -4.07908e-10)
(2.99305 0.00017755 -4.98418e-10)
(2.98561 0.00080484 -3.27021e-09)
(2.95544 0.00146665 -4.46412e-09)
(2.89047 0.00611079 -2.23577e-08)
(2.68909 0.0146573 -4.5826e-08)
(2.03035 0.0510475 -1.38434e-07)
(0.940967 0.139422 -2.51827e-07)
(0.309106 0.120657 4.33837e-08)
(0.508743 0.112521 2.62945e-08)
(0.550956 0.11861 1.52325e-08)
(0.47607 0.127539 1.32774e-08)
(0.370502 0.140554 1.16865e-08)
(0.288324 0.152876 1.22998e-08)
(0.228836 0.163993 1.09572e-08)
(0.124212 0.175251 8.9506e-09)
(0.0279531 0.173407 8.19008e-09)
(3 2.17377e-08 -6.24123e-14)
(3 1.1824e-07 -2.71453e-13)
(2.99999 4.42329e-07 -9.46313e-13)
(2.99997 1.1302e-06 -2.01277e-12)
(2.99993 3.15964e-06 -6.30766e-12)
(2.99982 7.19028e-06 -1.27384e-11)
(2.99959 1.94626e-05 -4.22817e-11)
(2.99892 4.1951e-05 -7.9666e-11)
(2.99766 0.000128428 -3.29695e-10)
(2.99338 0.00022312 -3.56494e-10)
(2.98622 0.000968946 -2.77564e-09)
(2.95791 0.00165831 -3.46185e-09)
(2.8972 0.00741846 -1.94114e-08)
(2.70947 0.0173699 -3.82232e-08)
(2.10183 0.0610658 -1.1992e-07)
(1.00043 0.168763 -2.27539e-07)
(0.338479 0.164754 2.62351e-08)
(0.523521 0.162861 1.73083e-08)
(0.563912 0.171352 1.32516e-08)
(0.489731 0.182689 1.20829e-08)
(0.385151 0.201062 1.07594e-08)
(0.30017 0.218862 1.12903e-08)
(0.23812 0.235276 9.53645e-09)
(0.131498 0.252196 7.60158e-09)
(0.0302696 0.249498 5.8708e-09)
(3 2.8884e-08 -6.23059e-14)
(3 1.57275e-07 -2.80101e-13)
(2.99999 5.86115e-07 -9.17162e-13)
(2.99997 1.50125e-06 -1.96806e-12)
(2.99993 4.16781e-06 -5.63481e-12)
(2.99982 9.51721e-06 -1.13401e-11)
(2.99961 2.52989e-05 -3.35582e-11)
(2.99897 5.55877e-05 -6.39105e-11)
(2.99775 0.000155854 -2.24972e-10)
(2.99375 0.00031292 -3.21439e-10)
(2.98682 0.00107558 -1.8722e-09)
(2.96067 0.00201106 -1.90022e-09)
(2.90444 0.00765532 -1.35901e-08)
(2.73155 0.018982 -2.39797e-08)
(2.17987 0.0604014 -7.71532e-08)
(1.07494 0.167988 -1.74115e-07)
(0.370979 0.211743 1.32145e-09)
(0.536737 0.219435 8.82329e-09)
(0.575437 0.226772 1.2621e-08)
(0.505067 0.238501 1.12441e-08)
(0.403936 0.261866 9.07872e-09)
(0.316336 0.28533 9.54217e-09)
(0.251564 0.307405 7.85469e-09)
(0.142552 0.330745 6.06937e-09)
(0.0341813 0.328859 3.67487e-09)
(3 3.37386e-08 -5.875e-14)
(3 1.82992e-07 -2.60419e-13)
(2.99999 6.83612e-07 -8.75168e-13)
(2.99997 1.74907e-06 -1.88828e-12)
(2.99994 4.87218e-06 -5.57971e-12)
(2.99983 1.11285e-05 -1.15161e-11)
(2.99963 2.95785e-05 -3.42225e-11)
(2.99903 6.57768e-05 -7.11758e-11)
(2.99788 0.000177921 -2.06767e-10)
(2.99415 0.000383524 -4.68873e-10)
(2.98765 0.00113519 -1.152e-09)
(2.96327 0.00241732 -3.2919e-09)
(2.91217 0.00726282 -5.82489e-09)
(2.7515 0.020761 -2.5784e-08)
(2.24116 0.0528209 -4.16636e-08)
(1.16474 0.161811 -1.14463e-07)