/*--------------------------------*- C++ -*----------------------------------*\
| =========                 |                                                 |
| \\      /  F ield         | OpenFOAM: The Open Source CFD Toolbox           |
|  \\    /   O peration     | Version:  4.1                                   |
|   \\  /    A nd           | Web:      www.OpenFOAM.org                      |
|    \\/     M anipulation  |                                                 |
\*---------------------------------------------------------------------------*/
FoamFile
{
    version     2.0;
    format      ascii;
    class       volScalarField;
    location    "4";
    object      Ma;
}
// * * * * * * * * * * * * * * * * * * * * * * * * * * * * * * * * * * * * * //

dimensions      [0 0 0 0 0 0 0];

internalField   nonuniform List<scalar> 
52500
(
3.00002
2.99997
2.99991
2.99969
2.99937
2.99807
2.9962
2.98907
2.97709
2.93848
2.85
2.64644
2.10409
1.26869
0.528206
0.276456
0.328452
0.344072
0.31175
0.257188
0.204719
0.162929
0.121942
0.076482
0.0434479
3.00002
2.99997
2.99992
2.99969
2.99937
2.99809
2.99625
2.9892
2.97741
2.93927
2.85215
2.65099
2.11577
1.28341
0.536093
0.277042
0.330283
0.346651
0.314544
0.260768
0.209593
0.169266
0.130457
0.0901189
0.0661741
3.00002
2.99997
2.99992
2.9997
2.99939
2.99814
2.99635
2.98948
2.97807
2.94087
2.85665
2.66049
2.14139
1.31657
0.554679
0.280708
0.336221
0.354373
0.323105
0.271426
0.223189
0.186303
0.152351
0.120313
0.104338
3.00002
2.99998
2.99992
2.99971
2.99942
2.99822
2.9965
2.9899
2.97905
2.94332
2.86342
2.67488
2.18067
1.36871
0.583172
0.287321
0.346037
0.367073
0.337267
0.288596
0.244139
0.211518
0.183049
0.158003
0.146458
3.00002
2.99998
2.99993
2.99973
2.99944
2.99829
2.99667
2.99023
2.98025
2.94572
2.87382
2.69412
2.23674
1.44328
0.623769
0.301079
0.361803
0.385882
0.357481
0.312275
0.271519
0.243092
0.219486
0.199855
0.191378
3.00002
2.99998
2.99993
2.99975
2.99948
2.9984
2.99689
2.99082
2.98168
2.94895
2.88583
2.71714
2.30357
1.53832
0.675862
0.325411
0.385548
0.411484
0.384364
0.342361
0.305404
0.280881
0.262031
0.247366
0.241784
3.00002
2.99998
2.99994
2.99977
2.99953
2.99854
2.99715
2.99161
2.98328
2.95325
2.89745
2.74156
2.3755
1.64975
0.738763
0.364618
0.420619
0.444891
0.418823
0.380094
0.346272
0.325612
0.311249
0.302063
0.301776
3.00002
2.99999
2.99995
2.99979
2.99957
2.99868
2.99742
2.99237
2.98483
2.9574
2.90712
2.76413
2.43019
1.7397
0.793343
0.399315
0.448863
0.470588
0.451126
0.420204
0.392053
0.376547
0.368691
0.367459
0.377167
3.00002
2.99999
2.99996
2.99982
2.99962
2.99882
2.9977
2.99318
2.98646
2.96197
2.91641
2.79002
2.47739
1.84982
0.874961
0.457733
0.472508
0.485456
0.479814
0.459365
0.440279
0.432333
0.433261
0.446271
0.480834
3.00002
3
2.99997
2.99985
2.99969
2.99904
2.99807
2.99457
2.98829
2.96915
2.92425
2.81832
2.52043
1.9636
0.98744
0.530448
0.489456
0.502321
0.507274
0.497106
0.48957
0.491584
0.508669
0.551401
0.652783
3
2.99995
2.9999
2.99967
2.99935
2.99805
2.99618
2.98904
2.97706
2.93844
2.84996
2.64637
2.10401
1.26856
0.528071
0.276251
0.328265
0.343887
0.311545
0.256937
0.204398
0.162518
0.121384
0.075575
0.0418055
3
2.99995
2.9999
2.99967
2.99936
2.99807
2.99623
2.98918
2.97739
2.93923
2.85211
2.65092
2.1157
1.28328
0.53596
0.276837
0.330098
0.346468
0.314341
0.260522
0.209282
0.168875
0.129941
0.0893606
0.0651238
3
2.99996
2.9999
2.99968
2.99937
2.99812
2.99633
2.98945
2.97805
2.94083
2.85662
2.66042
2.14132
1.31644
0.55455
0.280506
0.336039
0.354195
0.322908
0.271191
0.222899
0.185951
0.151916
0.119754
0.103686
3
2.99996
2.99991
2.99969
2.9994
2.9982
2.99648
2.98988
2.97903
2.94329
2.86338
2.67482
2.18059
1.36858
0.583047
0.287117
0.345857
0.366899
0.337077
0.288375
0.243876
0.211211
0.182691
0.157584
0.146002
3
2.99996
2.99991
2.99971
2.99943
2.99827
2.99665
2.99021
2.98023
2.94568
2.8738
2.69407
2.23671
1.44318
0.623672
0.300897
0.361641
0.385725
0.357309
0.312076
0.271287
0.242829
0.219192
0.19953
0.191035
3
2.99996
2.99992
2.99973
2.99946
2.99838
2.99687
2.9908
2.98166
2.94892
2.8858
2.71709
2.30353
1.53821
0.675764
0.325234
0.385396
0.41134
0.384209
0.342184
0.305203
0.280659
0.26179
0.247109
0.241519
3
2.99997
2.99992
2.99975
2.99951
2.99852
2.99713
2.99159
2.98326
2.95323
2.89742
2.74151
2.37545
1.64967
0.738674
0.364459
0.420483
0.444765
0.418686
0.37994
0.346099
0.325426
0.311052
0.301857
0.301569
3
2.99997
2.99993
2.99977
2.99955
2.99866
2.9974
2.99235
2.98481
2.95737
2.9071
2.76409
2.43015
1.73962
0.793253
0.399161
0.44874
0.470474
0.451004
0.420071
0.391906
0.376391
0.368531
0.367297
0.377007
3
2.99997
2.99994
2.9998
2.9996
2.9988
2.99768
2.99316
2.98644
2.96194
2.91638
2.78997
2.47736
1.84972
0.874875
0.457593
0.472396
0.485348
0.479702
0.459247
0.440153
0.432203
0.43313
0.446143
0.480716
3
2.99998
2.99995
2.99983
2.99967
2.99902
2.99805
2.99455
2.98827
2.96912
2.92423
2.81828
2.5204
1.96352
0.987357
0.530324
0.489348
0.502218
0.50717
0.497
0.489461
0.491476
0.508564
0.551305
0.652704
3
2.99995
2.9999
2.99967
2.99935
2.99805
2.99618
2.98904
2.97706
2.93844
2.84996
2.64637
2.10401
1.26856
0.52807
0.276252
0.328265
0.343887
0.311545
0.256937
0.204398
0.162518
0.121384
0.0755751
0.0418056
3
2.99995
2.9999
2.99967
2.99936
2.99807
2.99623
2.98918
2.97739
2.93923
2.85211
2.65092
2.11569
1.28327
0.535958
0.276839
0.330098
0.346468
0.314341
0.260522
0.209282
0.168875
0.129941
0.0893606
0.0651238
3
2.99996
2.9999
2.99968
2.99937
2.99812
2.99633
2.98945
2.97805
2.94083
2.85661
2.66042
2.14131
1.31644
0.554549
0.280507
0.336039
0.354195
0.322908
0.271191
0.222899
0.185951
0.151916
0.119754
0.103686
3
2.99996
2.99991
2.99969
2.9994
2.9982
2.99648
2.98988
2.97903
2.94329
2.86338
2.67482
2.18059
1.36857
0.583046
0.287118
0.345857
0.366899
0.337077
0.288375
0.243876
0.211211
0.182691
0.157585
0.146002
3
2.99996
2.99991
2.99971
2.99943
2.99827
2.99665
2.99021
2.98023
2.94567
2.8738
2.69406
2.23671
1.44317
0.623669
0.300898
0.361641
0.385724
0.357309
0.312075
0.271287
0.242829
0.219192
0.19953
0.191036
3
2.99996
2.99992
2.99973
2.99946
2.99838
2.99687
2.9908
2.98166
2.94892
2.8858
2.71709
2.30352
1.5382
0.675761
0.325234
0.385395
0.41134
0.384208
0.342184
0.305203
0.280659
0.26179
0.247109
0.241519
3
2.99997
2.99992
2.99975
2.99951
2.99852
2.99713
2.99159
2.98326
2.95323
2.89742
2.74151
2.37545
1.64967
0.738672
0.364459
0.420483
0.444764
0.418686
0.37994
0.346099
0.325426
0.311051
0.301857
0.301569
3
2.99997
2.99993
2.99977
2.99955
2.99866
2.9974
2.99235
2.98481
2.95737
2.90709
2.76409
2.43015
1.73961
0.793251
0.39916
0.44874
0.470474
0.451004
0.420071
0.391906
0.376391
0.36853
0.367297
0.377008
3
2.99997
2.99994
2.9998
2.9996
2.9988
2.99768
2.99316
2.98644
2.96194
2.91638
2.78997
2.47736
1.84972
0.874872
0.457592
0.472396
0.485348
0.479702
0.459247
0.440153
0.432203
0.43313
0.446143
0.480716
3
2.99998
2.99995
2.99983
2.99967
2.99902
2.99805
2.99455
2.98827
2.96912
2.92423
2.81828
2.5204
1.96351
0.987354
0.530322
0.489349
0.502218
0.50717
0.497
0.489461
0.491475
0.508563
0.551305
0.652704
3
2.99995
2.9999
2.99967
2.99935
2.99805
2.99618
2.98904
2.97706
2.93844
2.84996
2.64637
2.10401
1.26855
0.52807
0.276252
0.328265
0.343887
0.311545
0.256937
0.204398
0.162518
0.121384
0.0755751
0.0418056
3
2.99995
2.9999
2.99967
2.99936
2.99807
2.99623
2.98918
2.97739
2.93923
2.85211
2.65092
2.11569
1.28327
0.535958
0.276839
0.330098
0.346468
0.314341
0.260522
0.209282
0.168875
0.129941
0.0893606
0.0651238
3
2.99996
2.9999
2.99968
2.99937
2.99812
2.99633
2.98945
2.97805
2.94083
2.85661
2.66042
2.14131
1.31644
0.554548
0.280507
0.336039
0.354195
0.322908
0.271191
0.222899
0.185951
0.151916
0.119754
0.103686
3
2.99996
2.99991
2.99969
2.9994
2.9982
2.99648
2.98988
2.97903
2.94329
2.86338
2.67482
2.18059
1.36857
0.583045
0.287118
0.345857
0.366899
0.337077
0.288375
0.243876
0.211211
0.182691
0.157585
0.146002
3
2.99996
2.99991
2.99971
2.99943
2.99827
2.99665
2.99021
2.98023
2.94567
2.8738
2.69406
2.23671
1.44317
0.623669
0.300898
0.361641
0.385724
0.357309
0.312075
0.271287
0.242829
0.219192
0.19953
0.191036
3
2.99996
2.99992
2.99973
2.99946
2.99838
2.99687
2.9908
2.98166
2.94892
2.8858
2.71709
2.30352
1.5382
0.675761
0.325234
0.385395
0.41134
0.384208
0.342184
0.305203
0.280659
0.26179
0.247109
0.241519
3
2.99997
2.99992
2.99975
2.99951
2.99852
2.99713
2.99159
2.98326
2.95323
2.89742
2.74151
2.37545
1.64967
0.738672
0.364459
0.420483
0.444764
0.418686
0.37994
0.346099
0.325426
0.311051
0.301857
0.301569
3
2.99997
2.99993
2.99977
2.99955
2.99866
2.9974
2.99235
2.98481
2.95737
2.90709
2.76409
2.43015
1.73961
0.79325
0.39916
0.44874
0.470474
0.451004
0.420071
0.391906
0.376391
0.36853
0.367297
0.377008
3
2.99997
2.99994
2.9998
2.9996
2.9988
2.99768
2.99316
2.98644
2.96194
2.91638
2.78997
2.47736
1.84972
0.874872
0.457592
0.472396
0.485348
0.479702
0.459247
0.440153
0.432203
0.43313
0.446143
0.480716
3
2.99998
2.99995
2.99983
2.99967
2.99902
2.99805
2.99455
2.98827
2.96912
2.92423
2.81828
2.5204
1.96351
0.987354
0.530322
0.489349
0.502218
0.50717
0.497
0.489461
0.491476
0.508564
0.551305
0.652704
3
2.99995
2.9999
2.99967
2.99935
2.99805
2.99618
2.98904
2.97706
2.93844
2.84996
2.64637
2.10401
1.26855
0.52807
0.276252
0.328265
0.343887
0.311545
0.256937
0.204398
0.162518
0.121384
0.0755751
0.0418056
3
2.99995
2.9999
2.99967
2.99936
2.99807
2.99623
2.98918
2.97739
2.93923
2.85211
2.65092
2.11569
1.28327
0.535958
0.276839
0.330098
0.346468
0.314341
0.260522
0.209282
0.168875
0.129941
0.0893606
0.0651238
3
2.99996
2.9999
2.99968
2.99937
2.99812
2.99633
2.98945
2.97805
2.94083
2.85661
2.66042
2.14131
1.31644
0.554548
0.280507
0.336039
0.354195
0.322908
0.271191
0.222899
0.185951
0.151916
0.119754
0.103686
3
2.99996
2.99991
2.99969
2.9994
2.9982
2.99648
2.98988
2.97903
2.94329
2.86338
2.67482
2.18059
1.36857
0.583045
0.287118
0.345857
0.366899
0.337077
0.288375
0.243876
0.211211
0.182691
0.157585
0.146002
3
2.99996
2.99991
2.99971
2.99943
2.99827
2.99665
2.99021
2.98023
2.94567
2.8738
2.69406
2.23671
1.44317
0.623669
0.300898
0.361641
0.385724
0.357309
0.312075
0.271287
0.242829
0.219192
0.19953
0.191036
3
2.99996
2.99992
2.99973
2.99946
2.99838
2.99687
2.9908
2.98166
2.94892
2.8858
2.71709
2.30352
1.5382
0.675761
0.325234
0.385395
0.41134
0.384208
0.342184
0.305203
0.280659
0.26179
0.247109
0.241519
3
2.99997
2.99992
2.99975
2.99951
2.99852
2.99713
2.99159
2.98326
2.95323
2.89742
2.74151
2.37545
1.64967
0.738672
0.364459
0.420483
0.444764
0.418686
0.37994
0.346099
0.325426
0.311051
0.301857
0.301569
3
2.99997
2.99993
2.99977
2.99955
2.99866
2.9974
2.99235
2.98481
2.95737
2.90709
2.76409
2.43015
1.73961
0.79325
0.39916
0.44874
0.470474
0.451004
0.420071
0.391906
0.376391
0.36853
0.367297
0.377008
3
2.99997
2.99994
2.9998
2.9996
2.9988
2.99768
2.99316
2.98644
2.96194
2.91638
2.78997
2.47736
1.84972
0.874872
0.457592
0.472396
0.485348
0.479702
0.459247
0.440153
0.432203
0.43313
0.446143
0.480716
3
2.99998
2.99995
2.99983
2.99967
2.99902
2.99805
2.99455
2.98827
2.96912
2.92423
2.81828
2.5204
1.96351
0.987354
0.530322
0.489349
0.502218
0.50717
0.497
0.489461
0.491476
0.508564
0.551305
0.652704
3
2.99995
2.9999
2.99967
2.99935
2.99805
2.99618
2.98904
2.97706
2.93844
2.84996
2.64637
2.10401
1.26855
0.52807
0.276252
0.328265
0.343887
0.311545
0.256937
0.204398
0.162518
0.121384
0.0755751
0.0418056
3
2.99995
2.9999
2.99967
2.99936
2.99807
2.99623
2.98918
2.97739
2.93923
2.85211
2.65092
2.11569
1.28327
0.535958
0.276839
0.330098
0.346468
0.314341
0.260522
0.209282
0.168875
0.129941
0.0893606
0.0651238
3
2.99996
2.9999
2.99968
2.99937
2.99812
2.99633
2.98945
2.97805
2.94083
2.85661
2.66042
2.14131
1.31644
0.554548
0.280507
0.336039
0.354195
0.322908
0.271191
0.222899
0.185951
0.151916
0.119754
0.103686
3
2.99996
2.99991
2.99969
2.9994
2.9982
2.99648
2.98988
2.97903
2.94329
2.86338
2.67482
2.18059
1.36857
0.583045
0.287118
0.345857
0.366899
0.337077
0.288375
0.243876
0.211211
0.182691
0.157585
0.146002
3
2.99996
2.99991
2.99971
2.99943
2.99827
2.99665
2.99021
2.98023
2.94567
2.8738
2.69406
2.23671
1.44317
0.623669
0.300898
0.361641
0.385724
0.357309
0.312075
0.271287
0.242829
0.219192
0.19953
0.191036
3
2.99996
2.99992
2.99973
2.99946
2.99838
2.99687
2.9908
2.98166
2.94892
2.8858
2.71709
2.30352
1.5382
0.675761
0.325234
0.385395
0.41134
0.384208
0.342184
0.305203
0.280659
0.26179
0.247109
0.241519
3
2.99997
2.99992
2.99975
2.99951
2.99852
2.99713
2.99159
2.98326
2.95323
2.89742
2.74151
2.37545
1.64967
0.738672
0.364459
0.420483
0.444764
0.418686
0.37994
0.346099
0.325426
0.311051
0.301857
0.301569
3
2.99997
2.99993
2.99977
2.99955
2.99866
2.9974
2.99235
2.98481
2.95737
2.90709
2.76409
2.43015
1.73961
0.79325
0.39916
0.44874
0.470474
0.451004
0.420071
0.391906
0.376391
0.36853
0.367297
0.377008
3
2.99997
2.99994
2.9998
2.9996
2.9988
2.99768
2.99316
2.98644
2.96194
2.91638
2.78997
2.47736
1.84972
0.874872
0.457592
0.472396
0.485348
0.479702
0.459247
0.440153
0.432203
0.43313
0.446143
0.480717
3
2.99998
2.99995
2.99983
2.99967
2.99902
2.99805
2.99455
2.98827
2.96912
2.92423
2.81828
2.5204
1.96351
0.987354
0.530322
0.489349
0.502218
0.50717
0.497
0.489461
0.491476
0.508564
0.551305
0.652704
3
2.99995
2.9999
2.99967
2.99935
2.99805
2.99618
2.98904
2.97706
2.93844
2.84996
2.64637
2.10401
1.26855
0.52807
0.276252
0.328265
0.343887
0.311545
0.256937
0.204398
0.162518
0.121384
0.0755751
0.0418056
3
2.99995
2.9999
2.99967
2.99936
2.99807
2.99623
2.98918
2.97739
2.93923
2.85211
2.65092
2.11569
1.28327
0.535958
0.276839
0.330098
0.346468
0.314341
0.260522
0.209282
0.168875
0.129941
0.0893606
0.0651238
3
2.99996
2.9999
2.99968
2.99937
2.99812
2.99633
2.98945
2.97805
2.94083
2.85661
2.66042
2.14131
1.31644
0.554548
0.280507
0.336039
0.354195
0.322908
0.271191
0.222899
0.185951
0.151916
0.119754
0.103686
3
2.99996
2.99991
2.99969
2.9994
2.9982
2.99648
2.98988
2.97903
2.94329
2.86338
2.67482
2.18059
1.36857
0.583045
0.287118
0.345857
0.366899
0.337077
0.288375
0.243876
0.211211
0.182691
0.157585
0.146002
3
2.99996
2.99991
2.99971
2.99943
2.99827
2.99665
2.99021
2.98023
2.94567
2.8738
2.69406
2.23671
1.44317
0.623669
0.300898
0.361641
0.385724
0.357309
0.312075
0.271287
0.242829
0.219192
0.19953
0.191036
3
2.99996
2.99992
2.99973
2.99946
2.99838
2.99687
2.9908
2.98166
2.94892
2.8858
2.71709
2.30352
1.5382
0.675761
0.325234
0.385395
0.41134
0.384208
0.342184
0.305203
0.280659
0.26179
0.247109
0.241519
3
2.99997
2.99992
2.99975
2.99951
2.99852
2.99713
2.99159
2.98326
2.95323
2.89742
2.74151
2.37545
1.64967
0.738672
0.364459
0.420483
0.444764
0.418686
0.37994
0.346099
0.325426
0.311051
0.301857
0.301569
3
2.99997
2.99993
2.99977
2.99955
2.99866
2.9974
2.99235
2.98481
2.95737
2.90709
2.76409
2.43015
1.73961
0.79325
0.39916
0.44874
0.470474
0.451004
0.420071
0.391906
0.376391
0.36853
0.367297
0.377008
3
2.99997
2.99994
2.9998
2.9996
2.9988
2.99768
2.99316
2.98644
2.96194
2.91638
2.78997
2.47736
1.84972
0.874872
0.457592
0.472396
0.485348
0.479702
0.459247
0.440153
0.432203
0.43313
0.446143
0.480716
3
2.99998
2.99995
2.99983
2.99967
2.99902
2.99805
2.99455
2.98827
2.96912
2.92423
2.81828
2.5204
1.96351
0.987354
0.530322
0.489349
0.502218
0.50717
0.497
0.489461
0.491476
0.508564
0.551305
0.652704
3
2.99995
2.9999
2.99967
2.99935
2.99805
2.99618
2.98904
2.97706
2.93844
2.84996
2.64637
2.10401
1.26856
0.52807
0.276252
0.328265
0.343887
0.311545
0.256937
0.204398
0.162518
0.121384
0.0755751
0.0418056
3
2.99995
2.9999
2.99967
2.99936
2.99807
2.99623
2.98918
2.97739
2.93923
2.85211
2.65092
2.11569
1.28327
0.535958
0.276839
0.330098
0.346468
0.314341
0.260522
0.209282
0.168875
0.129941
0.0893606
0.0651238
3
2.99996
2.9999
2.99968
2.99937
2.99812
2.99633
2.98945
2.97805
2.94083
2.85661
2.66042
2.14131
1.31644
0.554549
0.280507
0.336039
0.354195
0.322908
0.271191
0.222899
0.185951
0.151916
0.119754
0.103686
3
2.99996
2.99991
2.99969
2.9994
2.9982
2.99648
2.98988
2.97903
2.94329
2.86338
2.67482
2.18059
1.36857
0.583046
0.287118
0.345857
0.366899
0.337077
0.288375
0.243876
0.211211
0.182691
0.157585
0.146002
3
2.99996
2.99991
2.99971
2.99943
2.99827
2.99665
2.99021
2.98023
2.94567
2.8738
2.69406
2.23671
1.44317
0.623669
0.300898
0.361641
0.385724
0.357309
0.312075
0.271287
0.242829
0.219192
0.19953
0.191036
3
2.99996
2.99992
2.99973
2.99946
2.99838
2.99687
2.9908
2.98166
2.94892
2.8858
2.71709
2.30352
1.5382
0.675761
0.325234
0.385395
0.41134
0.384208
0.342184
0.305203
0.280659
0.26179
0.247109
0.241519
3
2.99997
2.99992
2.99975
2.99951
2.99852
2.99713
2.99159
2.98326
2.95323
2.89742
2.74151
2.37545
1.64967
0.738672
0.364459
0.420483
0.444764
0.418686
0.37994
0.346099
0.325426
0.311051
0.301857
0.301569
3
2.99997
2.99993
2.99977
2.99955
2.99866
2.9974
2.99235
2.98481
2.95737
2.90709
2.76409
2.43015
1.73961
0.793251
0.39916
0.44874
0.470474
0.451004
0.420071
0.391906
0.376391
0.36853
0.367297
0.377008
3
2.99997
2.99994
2.9998
2.9996
2.9988
2.99768
2.99316
2.98644
2.96194
2.91638
2.78997
2.47736
1.84972
0.874872
0.457592
0.472396
0.485348
0.479702
0.459247
0.440153
0.432203
0.43313
0.446143
0.480716
3
2.99998
2.99995
2.99983
2.99967
2.99902
2.99805
2.99455
2.98827
2.96912
2.92423
2.81828
2.5204
1.96351
0.987354
0.530322
0.489349
0.502218
0.50717
0.497
0.489461
0.491475
0.508563
0.551305
0.652704
3
2.99995
2.9999
2.99967
2.99935
2.99805
2.99618
2.98904
2.97706
2.93844
2.84996
2.64637
2.10401
1.26856
0.528071
0.276251
0.328265
0.343887
0.311545
0.256937
0.204398
0.162518
0.121384
0.075575
0.0418055
3
2.99995
2.9999
2.99967
2.99936
2.99807
2.99623
2.98918
2.97739
2.93923
2.85211
2.65092
2.1157
1.28328
0.53596
0.276837
0.330098
0.346468
0.314341
0.260522
0.209282
0.168875
0.129941
0.0893606
0.0651238
3
2.99996
2.9999
2.99968
2.99937
2.99812
2.99633
2.98945
2.97805
2.94083
2.85662
2.66042
2.14132
1.31644
0.55455
0.280506
0.336039
0.354195
0.322908
0.271191
0.222899
0.185951
0.151916
0.119754
0.103686
3
2.99996
2.99991
2.99969
2.9994
2.9982
2.99648
2.98988
2.97903
2.94329
2.86338
2.67482
2.18059
1.36858
0.583047
0.287117
0.345857
0.366899
0.337077
0.288375
0.243876
0.211211
0.182691
0.157584
0.146002
3
2.99996
2.99991
2.99971
2.99943
2.99827
2.99665
2.99021
2.98023
2.94568
2.8738
2.69407
2.23671
1.44318
0.623672
0.300897
0.361641
0.385725
0.357309
0.312076
0.271287
0.242829
0.219192
0.19953
0.191035
3
2.99996
2.99992
2.99973
2.99946
2.99838
2.99687
2.9908
2.98166
2.94892
2.8858
2.71709
2.30353
1.53821
0.675764
0.325234
0.385396
0.41134
0.384209
0.342184
0.305203
0.280659
0.26179
0.247109
0.241519
3
2.99997
2.99992
2.99975
2.99951
2.99852
2.99713
2.99159
2.98326
2.95323
2.89742
2.74151
2.37545
1.64967
0.738674
0.364459
0.420483
0.444765
0.418686
0.37994
0.346099
0.325426
0.311052
0.301857
0.301569
3
2.99997
2.99993
2.99977
2.99955
2.99866
2.9974
2.99235
2.98481
2.95737
2.9071
2.76409
2.43015
1.73962
0.793253
0.399161
0.44874
0.470474
0.451004
0.420071
0.391906
0.376391
0.368531
0.367297
0.377007
3
2.99997
2.99994
2.9998
2.9996
2.9988
2.99768
2.99316
2.98644
2.96194
2.91638
2.78997
2.47736
1.84972
0.874875
0.457593
0.472396
0.485348
0.479702
0.459247
0.440153
0.432203
0.43313
0.446143
0.480716
3
2.99998
2.99995
2.99983
2.99967
2.99902
2.99805
2.99455
2.98827
2.96912
2.92423
2.81828
2.5204
1.96352
0.987357
0.530324
0.489348
0.502218
0.50717
0.497
0.489461
0.491476
0.508564
0.551305
0.652704
3.00002
2.99997
2.99991
2.99969
2.99937
2.99807
2.9962
2.98907
2.97709
2.93848
2.85
2.64644
2.10409
1.26869
0.528206
0.276456
0.328451
0.344072
0.31175
0.257188
0.204719
0.162929
0.121942
0.076482
0.0434478
3.00002
2.99997
2.99992
2.99969
2.99937
2.99809
2.99625
2.9892
2.97741
2.93927
2.85215
2.65099
2.11577
1.28341
0.536093
0.277042
0.330283
0.346651
0.314544
0.260768
0.209593
0.169266
0.130457
0.0901188
0.0661741
3.00002
2.99997
2.99992
2.9997
2.99939
2.99814
2.99635
2.98948
2.97807
2.94087
2.85665
2.66049
2.14139
1.31657
0.554679
0.280708
0.336221
0.354373
0.323105
0.271426
0.223189
0.186303
0.152351
0.120313
0.104338
3.00002
2.99998
2.99992
2.99971
2.99942
2.99822
2.9965
2.9899
2.97905
2.94332
2.86342
2.67488
2.18067
1.36871
0.583172
0.287321
0.346037
0.367073
0.337267
0.288596
0.244139
0.211518
0.183049
0.158003
0.146458
3.00002
2.99998
2.99993
2.99973
2.99944
2.99829
2.99667
2.99023
2.98025
2.94571
2.87382
2.69412
2.23674
1.44328
0.623769
0.301079
0.361803
0.385882
0.357481
0.312275
0.271519
0.243092
0.219486
0.199855
0.191378
3.00002
2.99998
2.99993
2.99975
2.99948
2.9984
2.99689
2.99082
2.98168
2.94895
2.88583
2.71714
2.30357
1.53832
0.675862
0.325411
0.385548
0.411484
0.384364
0.342361
0.305404
0.280881
0.262031
0.247366
0.241784
3.00002
2.99998
2.99994
2.99977
2.99953
2.99854
2.99715
2.99161
2.98328
2.95325
2.89745
2.74156
2.3755
1.64975
0.738763
0.364618
0.420619
0.444891
0.418823
0.380094
0.346272
0.325612
0.311249
0.302063
0.301776
3.00002
2.99999
2.99995
2.99979
2.99957
2.99868
2.99742
2.99237
2.98483
2.9574
2.90712
2.76413
2.43019
1.7397
0.793343
0.399315
0.448864
0.470588
0.451126
0.420204
0.392053
0.376547
0.368691
0.367459
0.377167
3.00002
2.99999
2.99996
2.99982
2.99962
2.99882
2.9977
2.99318
2.98646
2.96197
2.91641
2.79002
2.47739
1.84982
0.874961
0.457733
0.472508
0.485456
0.479814
0.459365
0.440279
0.432333
0.433261
0.446271
0.480834
3.00002
3
2.99997
2.99985
2.99969
2.99904
2.99807
2.99457
2.98829
2.96915
2.92425
2.81832
2.52043
1.9636
0.98744
0.530448
0.489456
0.502321
0.507274
0.497107
0.48957
0.491584
0.508669
0.551401
0.652783
3.00002
3.00001
2.99996
2.9999
2.99965
2.99928
2.99787
2.99571
2.98798
2.97404
2.93165
2.83088
2.60694
2.02629
1.16612
0.62024
0.513036
0.525673
0.53708
0.535911
0.537851
0.552472
0.591676
0.676581
0.85634
3.00002
3.00001
2.99997
2.99992
2.99969
2.99939
2.99813
2.99633
2.98947
2.97801
2.94091
2.85665
2.66141
2.14598
1.33352
0.712057
0.536358
0.550813
0.568486
0.575965
0.586669
0.614009
0.671086
0.776492
0.966552
3.00002
3.00001
2.99998
2.99993
2.99974
2.99947
2.99838
2.99684
2.99067
2.9814
2.94838
2.88328
2.71371
2.29212
1.53471
0.821029
0.573067
0.585537
0.603691
0.617148
0.634221
0.669672
0.735239
0.840009
1.00392
3.00002
3.00001
2.99999
2.99995
2.99979
2.99957
2.99866
2.99739
2.99232
2.98475
2.95721
2.90763
2.7639
2.44379
1.76332
0.943393
0.630165
0.633397
0.647456
0.663812
0.683637
0.721511
0.785594
0.879785
1.01714
3.00002
3.00002
2.99999
2.99996
2.99984
2.99965
2.99894
2.9979
2.99387
2.98767
2.96595
2.92421
2.8108
2.53074
1.95265
1.06509
0.696008
0.673677
0.687525
0.705178
0.727785
0.765259
0.827949
0.910677
1.02598
3.00002
3.00002
3.00001
2.99996
2.9999
2.99967
2.99933
2.99801
2.996
2.98892
2.9758
2.9373
2.84367
2.63874
2.09087
1.28016
0.800765
0.709025
0.721235
0.740002
0.766338
0.802546
0.859138
0.935956
1.03414
3.00002
3.00002
3.00001
2.99998
2.99993
2.99973
2.99945
2.99833
2.99675
2.99049
2.98089
2.94757
2.87924
2.70817
2.27617
1.52583
0.921903
0.74492
0.75018
0.769926
0.801165
0.837729
0.887685
0.955724
1.04125
3.00002
3.00002
3.00001
2.99999
2.99995
2.9998
2.99958
2.99873
2.99749
2.99269
2.98534
2.9593
2.91139
2.77451
2.47071
1.81016
1.07813
0.80624
0.791411
0.805178
0.833006
0.870247
0.91633
0.97627
1.0504
3.00002
3.00002
3.00001
3
2.99996
2.99989
2.99962
2.99923
2.99774
2.99549
2.98732
2.97329
2.92934
2.82919
2.60466
2.04892
1.25713
0.880376
0.832244
0.843649
0.866917
0.900946
0.941846
0.994234
1.05915
3.00003
3.00002
3.00002
3.00001
2.99997
2.99992
2.99972
2.99943
2.9983
2.99663
2.99046
2.97998
2.94671
2.8715
2.69643
2.24378
1.49358
0.994341
0.871383
0.875022
0.896378
0.929699
0.968374
1.01361
1.06974
3.00003
3.00003
3.00002
3.00001
3
2.99994
2.99985
2.99951
2.99901
2.99716
2.99414
2.98424
2.96386
2.90978
2.77044
2.48728
1.81705
1.17284
0.933847
0.914035
0.926431
0.954544
0.991947
1.03366
1.08194
3.00003
3.00003
3.00002
3.00002
3.00001
2.99996
2.9999
2.99964
2.99928
2.99784
2.99575
2.98794
2.97494
2.93343
2.84045
2.6309
2.10536
1.36179
1.01163
0.954013
0.961171
0.982915
1.01611
1.05478
1.09837
3.00003
3.00003
3.00003
3.00002
3.00001
2.99999
2.99992
2.99981
2.9994
2.99879
2.9966
2.99278
2.98097
2.95465
2.8893
2.71518
2.37325
1.61874
1.14543
1.00067
0.994603
1.00765
1.03599
1.07329
1.11354
3.00003
3.00003
3.00003
3.00002
3.00001
3
2.99995
2.99987
2.99956
2.99913
2.9974
2.99492
2.98541
2.97035
2.92123
2.81903
2.56809
2.03148
1.33333
1.07379
1.03703
1.04158
1.06197
1.09437
1.13113
3.00003
3.00003
3.00003
3.00002
3.00002
3.00001
2.99998
2.9999
2.99977
2.99928
2.99856
2.99586
2.99165
2.97727
2.94991
2.87443
2.68992
2.30549
1.56917
1.17554
1.075
1.07158
1.08537
1.11237
1.14811
3.00003
3.00003
3.00003
3.00003
3.00002
3.00001
3
2.99994
2.99985
2.99952
2.99904
2.99717
2.99444
2.98441
2.96757
2.91556
2.79789
2.54306
1.95047
1.35758
1.13684
1.10897
1.1145
1.13548
1.16582
3.00003
3.00003
3.00003
3.00003
3.00002
3.00002
3
2.99998
2.99988
2.99975
2.99922
2.99844
2.99553
2.991
2.97539
2.94666
2.86686
2.68079
2.26646
1.57166
1.22679
1.14652
1.14355
1.15717
1.18237
3.00003
3.00003
3.00003
3.00003
3.00003
3.00002
3.00001
3
2.99993
2.99984
2.99949
2.99899
2.99705
2.99419
2.98378
2.96628
2.91256
2.79171
2.52912
1.93507
1.39864
1.20408
1.17775
1.1832
1.20302
3.00003
3.00003
3.00003
3.00003
3.00003
3.00002
3.00002
3
2.99998
2.99988
2.99974
2.99921
2.99841
2.99549
2.99082
2.9752
2.94633
2.864
2.68873
2.25356
1.62322
1.30095
1.22052
1.21393
1.22344
3.00003
3.00003
3.00003
3.00003
3.00003
3.00003
3.00002
3.00002
2.99999
2.99995
2.99981
2.99959
2.99879
2.99759
2.99321
2.98624
2.96314
2.91919
2.80202
2.53817
1.97638
1.45736
1.27481
1.24696
1.2499
3.00003
3.00003
3.00003
3.00003
3.00003
3.00003
3.00002
3.00002
3
2.99998
2.99989
2.99975
2.99923
2.99849
2.99565
2.99139
2.97631
2.95021
2.8735
2.71035
2.32153
1.69772
1.37197
1.28661
1.27743
3.00003
3.00003
3.00003
3.00003
3.00003
3.00003
3.00003
3.00002
3.00002
2.99999
2.99996
2.99982
2.99963
2.9989
2.99781
2.99386
2.98757
2.96685
2.92816
2.82218
2.59539
2.07843
1.5459
1.34208
1.31124
3.00003
3.00003
3.00003
3.00003
3.00003
3.00003
3.00003
3.00003
3.00002
3.00001
2.99998
2.9999
2.99978
2.99931
2.99865
2.99612
2.99238
2.97911
2.95589
2.88966
2.74096
2.41272
1.79633
1.44023
1.34401
3.00003
3.00003
3.00003
3.00003
3.00003
3.00003
3.00003
3.00003
3.00002
3.00002
3
2.99995
2.99988
2.9996
2.9992
2.99768
2.99548
2.98738
2.97449
2.93328
2.85251
2.64936
2.21582
1.64301
1.41258
3.00003
3.00003
3.00003
3.00003
3.00003
3.00003
3.00003
3.00003
3.00003
3.00002
3.00001
2.99998
2.99994
2.99977
2.99953
2.99861
2.99728
2.99229
2.98468
2.9588
2.91022
2.78458
2.48637
1.92434
1.53688
3.00003
3.00003
3.00003
3.00003
3.00003
3.00003
3.00003
3.00003
3.00003
3.00003
3.00002
3.00001
2.99997
2.9999
2.99968
2.99934
2.99812
2.99626
2.98975
2.97886
2.9453
2.87372
2.71049
2.31752
1.75077
3.00003
3.00003
3.00003
3.00003
3.00003
3.00003
3.00003
3.00003
3.00003
3.00003
3.00002
3.00001
3
2.99994
2.99986
2.99956
2.9991
2.99747
2.99493
2.98641
2.97121
2.92786
2.82922
2.62162
2.13463
3.00003
3.00003
3.00003
3.00003
3.00003
3.00003
3.00003
3.00003
3.00003
3.00003
3.00003
3.00002
3.00001
2.99999
2.99991
2.9998
2.99938
2.99875
2.99648
2.99297
2.98095
2.96026
2.89869
2.77283
2.45921
3.00003
3.00003
3.00003
3.00003
3.00003
3.00003
3.00003
3.00003
3.00003
3.00003
3.00003
3.00002
3.00002
3
2.99996
2.9999
2.99965
2.9993
2.99798
2.99605
2.98903
2.978
2.94242
2.87381
2.7013
3.00003
3.00003
3.00003
3.00003
3.00003
3.00003
3.00003
3.00003
3.00003
3.00003
3.00003
3.00003
3.00002
3.00001
3
2.99994
2.99985
2.99955
2.99908
2.99742
2.99486
2.98614
2.97121
2.9274
2.83342
3.00003
3.00003
3.00003
3.00003
3.00003
3.00003
3.00003
3.00003
3.00003
3.00003
3.00003
3.00003
3.00003
3.00002
3.00001
2.99999
2.99991
2.9998
2.99939
2.99877
2.99661
2.99313
2.98185
2.96141
2.90373
3.00003
3.00003
3.00003
3.00003
3.00003
3.00003
3.00003
3.00003
3.00003
3.00003
3.00003
3.00003
3.00003
3.00002
3.00002
3
2.99997
2.99988
2.99973
2.99921
2.9984
2.99563
2.99113
2.97677
2.95059
3.00003
3.00003
3.00003
3.00003
3.00003
3.00003
3.00003
3.00003
3.00003
3.00003
3.00003
3.00003
3.00003
3.00003
3.00002
3.00001
3
2.99994
2.99986
2.99957
2.99914
2.99759
2.99524
2.98724
2.97382
3.00003
3.00003
3.00003
3.00003
3.00003
3.00003
3.00003
3.00003
3.00003
3.00003
3.00003
3.00003
3.00003
3.00003
3.00003
3.00002
3.00001
2.99999
2.99992
2.99981
2.99943
2.99884
2.99683
2.99358
2.98322
3.00003
3.00003
3.00003
3.00003
3.00003
3.00003
3.00003
3.00003
3.00003
3.00003
3.00003
3.00003
3.00003
3.00003
3.00003
3.00002
3.00002
3
2.99997
2.99986
2.99969
2.99909
2.99819
2.99495
2.98981
3.00003
3.00003
3.00003
3.00003
3.00003
3.00003
3.00003
3.00003
3.00003
3.00003
3.00003
3.00003
3.00003
3.00003
3.00003
3.00003
3.00002
3.00001
2.99997
2.99992
2.99971
2.99941
2.99827
2.99654
2.99033
3.00003
3.00003
3.00003
3.00003
3.00003
3.00003
3.00003
3.00003
3.00003
3.00003
3.00003
3.00003
3.00003
3.00003
3.00003
3.00003
3.00002
3.00001
2.99999
2.99991
2.9998
2.99937
2.99873
2.99642
2.99232
3.00003
3.00003
3.00003
3.00003
3.00003
3.00003
3.00003
3.00003
3.00003
3.00003
3.00003
3.00003
3.00003
3.00003
3.00003
3.00003
3.00002
3.00001
2.99999
2.99992
2.99982
2.99941
2.99879
2.99659
2.99248
3.00003
3.00003
3.00003
3.00003
3.00003
3.00003
3.00003
3.00003
3.00003
3.00003
3.00003
3.00003
3.00003
3.00003
3.00003
3.00003
3.00002
3.00001
2.99998
2.99994
2.99976
2.99949
2.99846
2.99688
2.99124
3.00003
3.00003
3.00003
3.00003
3.00003
3.00003
3.00003
3.00003
3.00003
3.00003
3.00003
3.00003
3.00003
3.00003
3.00003
3.00003
3.00002
3.00001
2.99998
2.99993
2.99974
2.99948
2.99837
2.99679
2.99068
3
2.99999
2.99994
2.99988
2.99963
2.99926
2.99785
2.99569
2.98795
2.97401
2.93162
2.83085
2.60687
2.02624
1.16602
0.620129
0.512932
0.525573
0.536982
0.535814
0.537755
0.55238
0.591591
0.676511
0.856295
3
2.99999
2.99995
2.9999
2.99968
2.99937
2.99811
2.99631
2.98944
2.97798
2.94088
2.85661
2.66135
2.14592
1.33341
0.711958
0.536256
0.550714
0.568392
0.575876
0.586584
0.613929
0.671016
0.776436
0.966514
3
2.99999
2.99996
2.99991
2.99972
2.99945
2.99836
2.99682
2.99064
2.98137
2.94834
2.88327
2.71366
2.29209
1.53462
0.82095
0.572971
0.585442
0.603602
0.617065
0.634143
0.669601
0.735178
0.83996
1.00388
3
3
2.99997
2.99993
2.99977
2.99955
2.99864
2.99737
2.99229
2.98472
2.95718
2.9076
2.76386
2.44374
1.76325
0.943324
0.630075
0.633312
0.647377
0.663738
0.683567
0.721447
0.785538
0.879739
1.01711
3
3
2.99998