/*--------------------------------*- C++ -*----------------------------------*\
| =========                 |                                                 |
| \\      /  F ield         | OpenFOAM: The Open Source CFD Toolbox           |
|  \\    /   O peration     | Version:  4.1                                   |
|   \\  /    A nd           | Web:      www.OpenFOAM.org                      |
|    \\/     M anipulation  |                                                 |
\*---------------------------------------------------------------------------*/
FoamFile
{
    version     2.0;
    format      ascii;
    class       volScalarField;
    location    "4";
    object      p;
}
// * * * * * * * * * * * * * * * * * * * * * * * * * * * * * * * * * * * * * //

dimensions      [1 -1 -2 0 0 0 0];

internalField   nonuniform List<scalar> 
52500
(
1.00001
1.00003
1.0001
1.00022
1.00064
1.00132
1.00378
1.00742
1.02297
1.04093
1.14941
1.26212
2.01686
3.36772
8.10448
11.5811
11.215
10.9739
11.052
11.2767
11.513
11.6591
11.7679
11.8544
11.9211
1.00001
1.00003
1.0001
1.00022
1.00063
1.0013
1.00373
1.00733
1.02264
1.0404
1.14726
1.25829
2.00024
3.32892
8.0003
11.5898
11.2121
10.963
11.0423
11.2682
11.5043
11.6505
11.7608
11.8488
11.9171
1.00001
1.00003
1.0001
1.00021
1.00062
1.00126
1.00362
1.00714
1.02198
1.03933
1.14281
1.25048
1.96461
3.24543
7.76636
11.607
11.2023
10.9313
11.0098
11.234
11.4674
11.6111
11.7207
11.808
11.8762
1.00001
1.00003
1.00009
1.0002
1.00059
1.00121
1.00347
1.00686
1.021
1.0377
1.13609
1.23876
1.91109
3.11963
7.40475
11.6351
11.1889
10.8795
10.9546
11.1733
11.4022
11.541
11.6469
11.7318
11.8008
1.00001
1.00003
1.00009
1.0002
1.00057
1.00116
1.00331
1.00662
1.01967
1.03673
1.12533
1.2263
1.83747
2.95559
6.91661
11.665
11.1736
10.8103
10.8791
11.0877
11.3111
11.443
11.5433
11.6245
11.6946
1.00001
1.00002
1.00008
1.00018
1.00053
1.00109
1.00309
1.00623
1.0181
1.03517
1.11295
1.21103
1.75271
2.76369
6.32404
11.6684
11.1509
10.7259
10.7848
10.9762
11.1905
11.3111
11.4005
11.474
11.5456
1
1.00002
1.00008
1.00017
1.00048
1.001
1.00283
1.00571
1.01649
1.03242
1.10118
1.19351
1.66509
2.55866
5.65716
11.5827
11.0904
10.6245
10.6711
10.8363
11.0346
11.1382
11.2092
11.265
11.3302
1
1.00002
1.00007
1.00015
1.00044
1.0009
1.00256
1.00519
1.01496
1.02948
1.09148
1.17545
1.59779
2.39806
5.22202
11.2085
10.9189
10.5098
10.5378
10.6616
10.8345
10.9121
10.9515
10.9707
11.0097
1
1.00002
1.00006
1.00013
1.00039
1.00081
1.00229
1.00462
1.01337
1.02619
1.08256
1.15339
1.53861
2.23741
4.79182
10.5305
10.6123
10.4324
10.3962
10.4589
10.5873
10.6248
10.6123
10.5541
10.495
1
1.00001
1.00005
1.00011
1.00033
1.00067
1.00192
1.00374
1.01171
1.02043
1.07499
1.12604
1.48551
2.06953
4.35294
9.68129
10.4524
10.3338
10.222
10.244
10.2958
10.2761
10.1811
9.95407
9.5935
1.00001
1.00003
1.00011
1.00023
1.00065
1.00132
1.00378
1.00743
1.02298
1.04095
1.14943
1.26217
2.01694
3.368
8.10505
11.581
11.215
10.9739
11.052
11.2767
11.513
11.6591
11.7679
11.8545
11.9212
1.00001
1.00003
1.0001
1.00022
1.00064
1.00131
1.00373
1.00734
1.02266
1.04042
1.14729
1.25834
2.00032
3.3292
8.00087
11.5897
11.2121
10.9631
11.0424
11.2682
11.5043
11.6505
11.7608
11.8488
11.9171
1.00001
1.00003
1.0001
1.00022
1.00062
1.00127
1.00363
1.00715
1.022
1.03935
1.14284
1.25053
1.96468
3.2457
7.76692
11.6068
11.2023
10.9314
11.0098
11.2341
11.4674
11.6111
11.7208
11.808
11.8762
1.00001
1.00003
1.0001
1.00021
1.0006
1.00122
1.00348
1.00687
1.02101
1.03772
1.13612
1.23881
1.91116
3.11989
7.40532
11.635
11.1889
10.8796
10.9546
11.1734
11.4023
11.541
11.647
11.7319
11.8009
1.00001
1.00003
1.00009
1.0002
1.00057
1.00117
1.00331
1.00663
1.01968
1.03676
1.12533
1.22637
1.83749
2.95581
6.9171
11.665
11.1736
10.8104
10.8791
11.0878
11.3112
11.4431
11.5434
11.6246
11.6947
1.00001
1.00003
1.00009
1.00019
1.00053
1.0011
1.00309
1.00624
1.01811
1.03519
1.11296
1.21108
1.75275
2.76388
6.3245
11.6684
11.151
10.726
10.7849
10.9762
11.1906
11.3112
11.4006
11.4741
11.5457
1.00001
1.00002
1.00008
1.00017
1.00049
1.001
1.00283
1.00572
1.0165
1.03243
1.10119
1.19355
1.66512
2.55881
5.65753
11.5828
11.0905
10.6246
10.6712
10.8364
11.0347
11.1383
11.2093
11.265
11.3302
1
1.00002
1.00007
1.00016
1.00044
1.00091
1.00257
1.00519
1.01497
1.02949
1.09149
1.17549
1.59782
2.39819
5.22226
11.2088
10.919
10.5099
10.5378
10.6617
10.8346
10.9122
10.9516
10.9707
11.0097
1
1.00002
1.00006
1.00014
1.0004
1.00081
1.00229
1.00463
1.01338
1.0262
1.08257
1.15343
1.53862
2.23753
4.79201
10.5308
10.6124
10.4324
10.3962
10.4589
10.5874
10.6249
10.6123
10.5542
10.495
1
1.00002
1.00005
1.00012
1.00033
1.00068
1.00193
1.00375
1.01172
1.02045
1.07501
1.12607
1.48553
2.06967
4.35309
9.68168
10.4525
10.3339
10.2221
10.244
10.2959
10.2762
10.1812
9.95412
9.59354
1.00001
1.00003
1.00011
1.00023
1.00065
1.00132
1.00378
1.00743
1.02298
1.04095
1.14943
1.26218
2.01694
3.36802
8.10508
11.581
11.215
10.9739
11.052
11.2767
11.513
11.6591
11.7679
11.8545
11.9212
1.00001
1.00003
1.0001
1.00022
1.00064
1.00131
1.00373
1.00734
1.02266
1.04042
1.14729
1.25835
2.00032
3.32921
8.0009
11.5897
11.2121
10.9631
11.0424
11.2682
11.5043
11.6505
11.7608
11.8488
11.9171
1.00001
1.00003
1.0001
1.00022
1.00062
1.00127
1.00363
1.00715
1.022
1.03935
1.14284
1.25053
1.96469
3.24571
7.76696
11.6068
11.2023
10.9314
11.0098
11.2341
11.4674
11.6111
11.7208
11.808
11.8762
1.00001
1.00003
1.0001
1.00021
1.0006
1.00122
1.00348
1.00687
1.02101
1.03772
1.13612
1.23881
1.91116
3.1199
7.40535
11.635
11.1889
10.8796
10.9546
11.1734
11.4023
11.541
11.647
11.7319
11.8009
1.00001
1.00003
1.00009
1.0002
1.00057
1.00117
1.00331
1.00663
1.01968
1.03676
1.12533
1.22637
1.8375
2.95583
6.91714
11.665
11.1736
10.8104
10.8791
11.0878
11.3112
11.4431
11.5434
11.6246
11.6947
1.00001
1.00003
1.00009
1.00019
1.00053
1.0011
1.00309
1.00624
1.01811
1.03519
1.11296
1.21108
1.75275
2.76389
6.32453
11.6684
11.151
10.726
10.7849
10.9762
11.1906
11.3112
11.4006
11.4741
11.5457
1.00001
1.00002
1.00008
1.00017
1.00049
1.001
1.00283
1.00572
1.0165
1.03243
1.10119
1.19355
1.66513
2.55881
5.65756
11.5828
11.0905
10.6246
10.6712
10.8364
11.0347
11.1383
11.2093
11.265
11.3302
1
1.00002
1.00007
1.00016
1.00044
1.00091
1.00257
1.00519
1.01497
1.02949
1.09149
1.17549
1.59782
2.3982
5.22228
11.2088
10.919
10.5099
10.5378
10.6617
10.8346
10.9122
10.9516
10.9707
11.0097
1
1.00002
1.00006
1.00014
1.0004
1.00081
1.00229
1.00463
1.01338
1.0262
1.08257
1.15343
1.53863
2.23754
4.79202
10.5309
10.6124
10.4324
10.3962
10.4589
10.5874
10.6249
10.6123
10.5542
10.495
1
1.00002
1.00005
1.00012
1.00033
1.00068
1.00193
1.00375
1.01172
1.02045
1.07501
1.12607
1.48553
2.06967
4.3531
9.6817
10.4525
10.3339
10.2221
10.244
10.2959
10.2762
10.1812
9.95412
9.59354
1.00001
1.00003
1.00011
1.00023
1.00065
1.00132
1.00378
1.00743
1.02298
1.04095
1.14943
1.26218
2.01694
3.36802
8.10508
11.581
11.215
10.9739
11.052
11.2767
11.513
11.6591
11.7679
11.8545
11.9212
1.00001
1.00003
1.0001
1.00022
1.00064
1.00131
1.00373
1.00734
1.02266
1.04042
1.14729
1.25835
2.00032
3.32921
8.0009
11.5897
11.2121
10.9631
11.0424
11.2682
11.5043
11.6505
11.7608
11.8488
11.9171
1.00001
1.00003
1.0001
1.00022
1.00062
1.00127
1.00363
1.00715
1.022
1.03935
1.14284
1.25053
1.96469
3.24571
7.76696
11.6068
11.2023
10.9314
11.0098
11.2341
11.4674
11.6111
11.7208
11.808
11.8762
1.00001
1.00003
1.0001
1.00021
1.0006
1.00122
1.00348
1.00687
1.02101
1.03772
1.13612
1.23881
1.91116
3.1199
7.40535
11.635
11.1889
10.8796
10.9546
11.1734
11.4023
11.541
11.647
11.7319
11.8009
1.00001
1.00003
1.00009
1.0002
1.00057
1.00117
1.00331
1.00663
1.01968
1.03676
1.12533
1.22637
1.8375
2.95583
6.91714
11.665
11.1736
10.8104
10.8791
11.0878
11.3112
11.4431
11.5434
11.6246
11.6947
1.00001
1.00003
1.00009
1.00019
1.00053
1.0011
1.00309
1.00624
1.01811
1.03519
1.11296
1.21108
1.75275
2.76389
6.32453
11.6684
11.151
10.726
10.7849
10.9762
11.1906
11.3112
11.4006
11.4741
11.5457
1.00001
1.00002
1.00008
1.00017
1.00049
1.001
1.00283
1.00572
1.0165
1.03243
1.10119
1.19355
1.66513
2.55882
5.65756
11.5828
11.0905
10.6246
10.6712
10.8364
11.0347
11.1383
11.2093
11.265
11.3302
1
1.00002
1.00007
1.00016
1.00044
1.00091
1.00257
1.00519
1.01497
1.02949
1.09149
1.17549
1.59782
2.3982
5.22228
11.2088
10.919
10.5099
10.5378
10.6617
10.8346
10.9122
10.9516
10.9707
11.0097
1
1.00002
1.00006
1.00014
1.0004
1.00081
1.00229
1.00463
1.01338
1.0262
1.08257
1.15343
1.53863
2.23754
4.79203
10.5309
10.6124
10.4324
10.3962
10.4589
10.5874
10.6249
10.6123
10.5542
10.495
1
1.00002
1.00005
1.00012
1.00033
1.00068
1.00193
1.00375
1.01172
1.02045
1.07501
1.12607
1.48553
2.06967
4.3531
9.68171
10.4525
10.3339
10.2221
10.244
10.2959
10.2762
10.1812
9.95412
9.59354
1.00001
1.00003
1.00011
1.00023
1.00065
1.00132
1.00378
1.00743
1.02298
1.04095
1.14943
1.26218
2.01694
3.36802
8.10508
11.581
11.215
10.9739
11.052
11.2767
11.513
11.6591
11.7679
11.8545
11.9212
1.00001
1.00003
1.0001
1.00022
1.00064
1.00131
1.00373
1.00734
1.02266
1.04042
1.14729
1.25835
2.00032
3.32921
8.0009
11.5897
11.2121
10.9631
11.0424
11.2682
11.5043
11.6505
11.7608
11.8488
11.9171
1.00001
1.00003
1.0001
1.00022
1.00062
1.00127
1.00363
1.00715
1.022
1.03935
1.14284
1.25053
1.96469
3.24571
7.76696
11.6068
11.2023
10.9314
11.0098
11.2341
11.4674
11.6111
11.7208
11.808
11.8762
1.00001
1.00003
1.0001
1.00021
1.0006
1.00122
1.00348
1.00687
1.02101
1.03772
1.13612
1.23881
1.91116
3.1199
7.40535
11.635
11.1889
10.8796
10.9546
11.1734
11.4023
11.541
11.647
11.7319
11.8009
1.00001
1.00003
1.00009
1.0002
1.00057
1.00117
1.00331
1.00663
1.01968
1.03676
1.12533
1.22637
1.8375
2.95583
6.91714
11.665
11.1736
10.8104
10.8791
11.0878
11.3112
11.4431
11.5434
11.6246
11.6947
1.00001
1.00003
1.00009
1.00019
1.00053
1.0011
1.00309
1.00624
1.01811
1.03519
1.11296
1.21108
1.75275
2.76389
6.32453
11.6684
11.151
10.726
10.7849
10.9762
11.1906
11.3112
11.4006
11.4741
11.5457
1.00001
1.00002
1.00008
1.00017
1.00049
1.001
1.00283
1.00572
1.0165
1.03243
1.10119
1.19355
1.66513
2.55882
5.65756
11.5828
11.0905
10.6246
10.6712
10.8364
11.0347
11.1383
11.2093
11.265
11.3302
1
1.00002
1.00007
1.00016
1.00044
1.00091
1.00257
1.00519
1.01497
1.02949
1.09149
1.17549
1.59782
2.3982
5.22228
11.2088
10.919
10.5099
10.5378
10.6617
10.8346
10.9122
10.9516
10.9707
11.0097
1
1.00002
1.00006
1.00014
1.0004
1.00081
1.00229
1.00463
1.01338
1.0262
1.08257
1.15343
1.53863
2.23754
4.79203
10.5309
10.6124
10.4324
10.3962
10.4589
10.5874
10.6249
10.6123
10.5542
10.495
1
1.00002
1.00005
1.00012
1.00033
1.00068
1.00193
1.00375
1.01172
1.02045
1.07501
1.12607
1.48553
2.06967
4.3531
9.68171
10.4525
10.3339
10.2221
10.244
10.2959
10.2762
10.1812
9.95412
9.59354
1.00001
1.00003
1.00011
1.00023
1.00065
1.00132
1.00378
1.00743
1.02298
1.04095
1.14943
1.26218
2.01694
3.36802
8.10508
11.581
11.215
10.9739
11.052
11.2767
11.513
11.6591
11.7679
11.8545
11.9212
1.00001
1.00003
1.0001
1.00022
1.00064
1.00131
1.00373
1.00734
1.02266
1.04042
1.14729
1.25835
2.00032
3.32921
8.0009
11.5897
11.2121
10.9631
11.0424
11.2682
11.5043
11.6505
11.7608
11.8488
11.9171
1.00001
1.00003
1.0001
1.00022
1.00062
1.00127
1.00363
1.00715
1.022
1.03935
1.14284
1.25053
1.96469
3.24571
7.76696
11.6068
11.2023
10.9314
11.0098
11.2341
11.4674
11.6111
11.7208
11.808
11.8762
1.00001
1.00003
1.0001
1.00021
1.0006
1.00122
1.00348
1.00687
1.02101
1.03772
1.13612
1.23881
1.91116
3.1199
7.40535
11.635
11.1889
10.8796
10.9546
11.1734
11.4023
11.541
11.647
11.7319
11.8009
1.00001
1.00003
1.00009
1.0002
1.00057
1.00117
1.00331
1.00663
1.01968
1.03676
1.12533
1.22637
1.8375
2.95583
6.91714
11.665
11.1736
10.8104
10.8791
11.0878
11.3112
11.4431
11.5434
11.6246
11.6947
1.00001
1.00003
1.00009
1.00019
1.00053
1.0011
1.00309
1.00624
1.01811
1.03519
1.11296
1.21108
1.75275
2.76389
6.32453
11.6684
11.151
10.726
10.7849
10.9762
11.1906
11.3112
11.4006
11.4741
11.5457
1.00001
1.00002
1.00008
1.00017
1.00049
1.001
1.00283
1.00572
1.0165
1.03243
1.10119
1.19355
1.66513
2.55882
5.65756
11.5828
11.0905
10.6246
10.6712
10.8364
11.0347
11.1383
11.2093
11.265
11.3302
1
1.00002
1.00007
1.00016
1.00044
1.00091
1.00257
1.00519
1.01497
1.02949
1.09149
1.17549
1.59782
2.3982
5.22228
11.2088
10.919
10.5099
10.5378
10.6617
10.8346
10.9122
10.9516
10.9707
11.0097
1
1.00002
1.00006
1.00014
1.0004
1.00081
1.00229
1.00463
1.01338
1.0262
1.08257
1.15343
1.53863
2.23754
4.79203
10.5309
10.6124
10.4324
10.3962
10.4589
10.5874
10.6249
10.6123
10.5542
10.495
1
1.00002
1.00005
1.00012
1.00033
1.00068
1.00193
1.00375
1.01172
1.02045
1.07501
1.12607
1.48553
2.06967
4.3531
9.68171
10.4525
10.3339
10.2221
10.244
10.2959
10.2762
10.1812
9.95412
9.59354
1.00001
1.00003
1.00011
1.00023
1.00065
1.00132
1.00378
1.00743
1.02298
1.04095
1.14943
1.26218
2.01694
3.36802
8.10508
11.581
11.215
10.9739
11.052
11.2767
11.513
11.6591
11.7679
11.8545
11.9212
1.00001
1.00003
1.0001
1.00022
1.00064
1.00131
1.00373
1.00734
1.02266
1.04042
1.14729
1.25835
2.00032
3.32921
8.0009
11.5897
11.2121
10.9631
11.0424
11.2682
11.5043
11.6505
11.7608
11.8488
11.9171
1.00001
1.00003
1.0001
1.00022
1.00062
1.00127
1.00363
1.00715
1.022
1.03935
1.14284
1.25053
1.96469
3.24571
7.76696
11.6068
11.2023
10.9314
11.0098
11.2341
11.4674
11.6111
11.7208
11.808
11.8762
1.00001
1.00003
1.0001
1.00021
1.0006
1.00122
1.00348
1.00687
1.02101
1.03772
1.13612
1.23881
1.91116
3.1199
7.40535
11.635
11.1889
10.8796
10.9546
11.1734
11.4023
11.541
11.647
11.7319
11.8009
1.00001
1.00003
1.00009
1.0002
1.00057
1.00117
1.00331
1.00663
1.01968
1.03676
1.12533
1.22637
1.8375
2.95583
6.91714
11.665
11.1736
10.8104
10.8791
11.0878
11.3112
11.4431
11.5434
11.6246
11.6947
1.00001
1.00003
1.00009
1.00019
1.00053
1.0011
1.00309
1.00624
1.01811
1.03519
1.11296
1.21108
1.75275
2.76389
6.32453
11.6684
11.151
10.726
10.7849
10.9762
11.1906
11.3112
11.4006
11.4741
11.5457
1.00001
1.00002
1.00008
1.00017
1.00049
1.001
1.00283
1.00572
1.0165
1.03243
1.10119
1.19355
1.66513
2.55882
5.65756
11.5828
11.0905
10.6246
10.6712
10.8364
11.0347
11.1383
11.2093
11.265
11.3302
1
1.00002
1.00007
1.00016
1.00044
1.00091
1.00257
1.00519
1.01497
1.02949
1.09149
1.17549
1.59782
2.3982
5.22228
11.2088
10.919
10.5099
10.5378
10.6617
10.8346
10.9122
10.9516
10.9707
11.0097
1
1.00002
1.00006
1.00014
1.0004
1.00081
1.00229
1.00463
1.01338
1.0262
1.08257
1.15343
1.53863
2.23754
4.79203
10.5309
10.6124
10.4324
10.3962
10.4589
10.5874
10.6249
10.6123
10.5542
10.495
1
1.00002
1.00005
1.00012
1.00033
1.00068
1.00193
1.00375
1.01172
1.02045
1.07501
1.12607
1.48553
2.06967
4.3531
9.68171
10.4525
10.3339
10.2221
10.244
10.2959
10.2762
10.1812
9.95412
9.59354
1.00001
1.00003
1.00011
1.00023
1.00065
1.00132
1.00378
1.00743
1.02298
1.04095
1.14943
1.26218
2.01694
3.36802
8.10508
11.581
11.215
10.9739
11.052
11.2767
11.513
11.6591
11.7679
11.8545
11.9212
1.00001
1.00003
1.0001
1.00022
1.00064
1.00131
1.00373
1.00734
1.02266
1.04042
1.14729
1.25835
2.00032
3.32921
8.0009
11.5897
11.2121
10.9631
11.0424
11.2682
11.5043
11.6505
11.7608
11.8488
11.9171
1.00001
1.00003
1.0001
1.00022
1.00062
1.00127
1.00363
1.00715
1.022
1.03935
1.14284
1.25053
1.96469
3.24571
7.76696
11.6068
11.2023
10.9314
11.0098
11.2341
11.4674
11.6111
11.7208
11.808
11.8762
1.00001
1.00003
1.0001
1.00021
1.0006
1.00122
1.00348
1.00687
1.02101
1.03772
1.13612
1.23881
1.91116
3.1199
7.40535
11.635
11.1889
10.8796
10.9546
11.1734
11.4023
11.541
11.647
11.7319
11.8009
1.00001
1.00003
1.00009
1.0002
1.00057
1.00117
1.00331
1.00663
1.01968
1.03676
1.12533
1.22637
1.8375
2.95583
6.91714
11.665
11.1736
10.8104
10.8791
11.0878
11.3112
11.4431
11.5434
11.6246
11.6947
1.00001
1.00003
1.00009
1.00019
1.00053
1.0011
1.00309
1.00624
1.01811
1.03519
1.11296
1.21108
1.75275
2.76389
6.32453
11.6684
11.151
10.726
10.7849
10.9762
11.1906
11.3112
11.4006
11.4741
11.5457
1.00001
1.00002
1.00008
1.00017
1.00049
1.001
1.00283
1.00572
1.0165
1.03243
1.10119
1.19355
1.66513
2.55881
5.65756
11.5828
11.0905
10.6246
10.6712
10.8364
11.0347
11.1383
11.2093
11.265
11.3302
1
1.00002
1.00007
1.00016
1.00044
1.00091
1.00257
1.00519
1.01497
1.02949
1.09149
1.17549
1.59782
2.3982
5.22228
11.2088
10.919
10.5099
10.5378
10.6617
10.8346
10.9122
10.9516
10.9707
11.0097
1
1.00002
1.00006
1.00014
1.0004
1.00081
1.00229
1.00463
1.01338
1.0262
1.08257
1.15343
1.53863
2.23754
4.79202
10.5309
10.6124
10.4324
10.3962
10.4589
10.5874
10.6249
10.6123
10.5542
10.495
1
1.00002
1.00005
1.00012
1.00033
1.00068
1.00193
1.00375
1.01172
1.02045
1.07501
1.12607
1.48553
2.06967
4.3531
9.6817
10.4525
10.3339
10.2221
10.244
10.2959
10.2762
10.1812
9.95412
9.59354
1.00001
1.00003
1.00011
1.00023
1.00065
1.00132
1.00378
1.00743
1.02298
1.04095
1.14943
1.26217
2.01694
3.368
8.10505
11.581
11.215
10.9739
11.052
11.2767
11.513
11.6591
11.7679
11.8545
11.9212
1.00001
1.00003
1.0001
1.00022
1.00064
1.00131
1.00373
1.00734
1.02266
1.04042
1.14729
1.25834
2.00032
3.3292
8.00087
11.5897
11.2121
10.9631
11.0424
11.2682
11.5043
11.6505
11.7608
11.8488
11.9171
1.00001
1.00003
1.0001
1.00022
1.00062
1.00127
1.00363
1.00715
1.022
1.03935
1.14284
1.25053
1.96468
3.2457
7.76692
11.6068
11.2023
10.9314
11.0098
11.2341
11.4674
11.6111
11.7208
11.808
11.8762
1.00001
1.00003
1.0001
1.00021
1.0006
1.00122
1.00348
1.00687
1.02101
1.03772
1.13612
1.23881
1.91116
3.11989
7.40532
11.635
11.1889
10.8796
10.9546
11.1734
11.4023
11.541
11.647
11.7319
11.8009
1.00001
1.00003
1.00009
1.0002
1.00057
1.00117
1.00331
1.00663
1.01968
1.03676
1.12533
1.22637
1.83749
2.95581
6.9171
11.665
11.1736
10.8104
10.8791
11.0878
11.3112
11.4431
11.5434
11.6246
11.6947
1.00001
1.00003
1.00009
1.00019
1.00053
1.0011
1.00309
1.00624
1.01811
1.03519
1.11296
1.21108
1.75275
2.76388
6.3245
11.6684
11.151
10.726
10.7849
10.9762
11.1906
11.3112
11.4006
11.4741
11.5457
1.00001
1.00002
1.00008
1.00017
1.00049
1.001
1.00283
1.00572
1.0165
1.03243
1.10119
1.19355
1.66512
2.55881
5.65753
11.5828
11.0905
10.6246
10.6712
10.8364
11.0347
11.1383
11.2093
11.265
11.3302
1
1.00002
1.00007
1.00016
1.00044
1.00091
1.00257
1.00519
1.01497
1.02949
1.09149
1.17549
1.59782
2.39819
5.22226
11.2088
10.919
10.5099
10.5378
10.6617
10.8346
10.9122
10.9516
10.9707
11.0097
1
1.00002
1.00006
1.00014
1.0004
1.00081
1.00229
1.00463
1.01338
1.0262
1.08257
1.15343
1.53862
2.23753
4.79201
10.5308
10.6124
10.4324
10.3962
10.4589
10.5874
10.6249
10.6123
10.5542
10.495
1
1.00002
1.00005
1.00012
1.00033
1.00068
1.00193
1.00375
1.01172
1.02045
1.07501
1.12607
1.48553
2.06967
4.35309
9.68168
10.4525
10.3339
10.2221
10.244
10.2959
10.2762
10.1812
9.95412
9.59354
1.00001
1.00003
1.0001
1.00022
1.00064
1.00132
1.00378
1.00742
1.02297
1.04093
1.14941
1.26212
2.01686
3.36772
8.10448
11.5811
11.215
10.9739
11.052
11.2767
11.513
11.6591
11.7679
11.8544
11.9211
1.00001
1.00003
1.0001
1.00022
1.00063
1.0013
1.00373
1.00733
1.02264
1.0404
1.14726
1.25829
2.00024
3.32892
8.0003
11.5898
11.2121
10.963
11.0423
11.2682
11.5043
11.6505
11.7608
11.8488
11.9171
1.00001
1.00003
1.0001
1.00021
1.00062
1.00126
1.00362
1.00714
1.02198
1.03933
1.14281
1.25048
1.96461
3.24543
7.76636
11.607
11.2023
10.9313
11.0098
11.234
11.4674
11.611
11.7207
11.808
11.8762
1.00001
1.00003
1.00009
1.0002
1.00059
1.00121
1.00347
1.00686
1.021
1.0377
1.13609
1.23876
1.91109
3.11963
7.40476
11.6351
11.1889
10.8795
10.9546
11.1733
11.4022
11.541
11.6469
11.7318
11.8008
1.00001
1.00003
1.00009
1.0002
1.00057
1.00116
1.00331
1.00662
1.01967
1.03673
1.12533
1.2263
1.83747
2.95559
6.91661
11.665
11.1736
10.8103
10.8791
11.0877
11.3111
11.443
11.5433
11.6245
11.6946
1.00001
1.00002
1.00008
1.00018
1.00053
1.00109
1.00309
1.00623
1.0181
1.03517
1.11295
1.21103
1.75271
2.76369
6.32404
11.6684
11.1509
10.7259
10.7848
10.9762
11.1905
11.3111
11.4005
11.474
11.5456
1
1.00002
1.00008
1.00017
1.00048
1.001
1.00283
1.00571
1.01649
1.03242
1.10118
1.19351
1.66509
2.55866
5.65716
11.5827
11.0904
10.6245
10.6711
10.8363
11.0346
11.1382
11.2092
11.265
11.3302
1
1.00002
1.00007
1.00015
1.00044
1.0009
1.00256
1.00519
1.01496
1.02948
1.09148
1.17545
1.59779
2.39806
5.22202
11.2085
10.9189
10.5098
10.5378
10.6616
10.8345
10.9121
10.9515
10.9707
11.0097
1
1.00002
1.00006
1.00013
1.00039
1.00081
1.00229
1.00462
1.01337
1.02619
1.08256
1.15339
1.53861
2.23741
4.79182
10.5305
10.6123
10.4324
10.3962
10.4589
10.5873
10.6248
10.6123
10.5541
10.495
1
1.00001
1.00005
1.00011
1.00033
1.00067
1.00192
1.00374
1.01171
1.02043
1.07499
1.12604
1.48551
2.06953
4.35294
9.68129
10.4524
10.3338
10.222
10.244
10.2958
10.2761
10.1811
9.95407
9.5935
1
1.00001
1.00004
1.00012
1.00025
1.00072
1.00147
1.00423
1.00826
1.02587
1.0459
1.16711
1.30055
2.13082
3.69168
8.68369
10.3545
10.2462
10.0437
10.0097
9.98275
9.88497
9.62139
9.01087
7.47321
1
1.00001
1.00003
1.0001
1.00022
1.00062
1.00127
1.00364
1.00717
1.02204
1.03941
1.1426
1.25075
1.9575
3.21621
7.50385
10.2696
10.15
9.87995
9.76402
9.6728
9.47558
9.05812
8.22468
6.626
1
1.00001
1.00003
1.00009
1.00019
1.00054
1.00111
1.00314
1.00633
1.01843
1.03542
1.11556
1.21337
1.76601
2.77703
6.23681
10.1826
10.0543
9.73357
9.52124
9.36547
9.08671
8.57605
7.72073
6.41786
1
1.00001
1.00002
1.00007
1.00016
1.00045
1.00092
1.00259
1.00524
1.01504
1.02974
1.09079
1.17792
1.58421
2.35974
4.92755
9.92539
9.87979
9.61115
9.2966
9.07226
8.74975
8.22194
7.4312
6.37593
1
1.00001
1.00002
1.00006
1.00012
1.00036
1.00074
1.00208
1.00421
1.01214
1.02363
1.07461
1.13792
1.47828
2.084
4.24606
9.12822
9.5891
9.42638
9.08946
8.81181
8.46589
7.96378
7.25608
6.3685
1
1
1.00002
1.00004
1.00011
1.00024
1.00068
1.00138
1.00396
1.00766
1.02415
1.0422
1.15457
1.27243
2.04035
3.39449
7.71649
9.30464
9.20553
8.93596
8.59614
8.23082
7.75931
7.12796
6.36417
1
1
1.00001
1.00003
1.00009
1.00019
1.00056
1.00114
1.00322
1.00647
1.01901
1.0358
1.11969
1.21759
1.78495
2.80334
6.1704
9.12464
9.06369
8.82676
8.42805
8.04395
7.5933
7.02455
6.35437
0.999998
1
1.00001
1.00002
1.00007
1.00015
1.00043
1.00088
1.00249
1.00502
1.01442
1.02848
1.0868
1.17017
1.55244
2.27366
4.57703
8.77533
8.92273
8.73898
8.3293
7.89763
7.45738
6.94163
6.34715
0.999996
0.999998
1
1.00002
1.00004
1.00013
1.00027
1.00077
1.00157
1.00445
1.00877
1.02664
1.04813
1.16907
1.30821
2.10183
3.58396
7.85508
8.69941
8.56995
8.23655
7.77923
7.34413
6.87078
6.33782
0.999995
0.999996
0.999999
1.00001
1.00003
1.00009
1.0002
1.00058
1.00118
1.00334
1.00657
1.02003
1.03588
1.12757
1.22411
1.8288
2.87284
6.25013
8.41969
8.36999
8.15041
7.69888
7.26102
6.81687
6.33204
0.999994
0.999994
0.999998
1
1.00002
1.00005
1.00017
1.00035
1.00099
1.00198
1.00583
1.01075
1.03606
1.06097
1.22407
1.43778
2.40242
4.46042
7.9972
8.22714
8.07175
7.68761
7.21358
6.7768
6.32781
0.999993
0.999993
0.999996
1
1.00001
1.00004
1.00012
1.00026
1.00073
1.00149
1.00421
1.00831
1.02503
1.04548
1.15798
1.28571
2.01247
3.31754
7.02734
8.02871
7.93397
7.6583
7.20088
6.75699
6.3287
0.999992
0.999993
0.999994
0.999998
1
1.00003
1.00007
1.00021
1.00043
1.00121
1.00237
1.00723
1.01275
1.04529
1.0745
1.28073
1.55336
2.76894
5.36203
7.71589
7.72902
7.5859
7.22054
6.75984
6.33314
0.999992
0.999992
0.999993
0.999996
1
1.00002
1.00005
1.00015
1.00031
1.00088
1.00179
1.00503
1.01009
1.02929
1.05608
1.17779
1.35654
2.11404
3.58755
7.09921
7.61637
7.51148
7.22645
6.77762
6.34709
0.999991
0.999992
0.999992
0.999994
0.999999
1.00001
1.00004
1.00008
1.00025
1.00051
1.00143
1.00289
1.00823
1.01594
1.04967
1.08915
1.30801
1.63453
2.9138
5.65493
7.37204
7.35831
7.20491
6.83662
6.37995
0.999991
0.999991
0.999992
0.999993
0.999996
1
1.00002
1.00005
1.00017
1.00035
1.00097
1.00197
1.00551
1.01087
1.03242
1.05901
1.19934
1.38214
2.2085
3.83673
6.86132
7.25139
7.15266
6.88491
6.43793
0.999991
0.999991
0.999991
0.999992
0.999994
0.999999
1.00001
1.00004
1.00009
1.00027
1.00056
1.00155
1.00314
1.00884
1.01747
1.05208
1.09932
1.31477
1.69604
2.9337
5.67449
7.02692
7.01573
6.87301
6.53844
0.999991
0.999991
0.999991
0.999992
0.999993
0.999996
1
1.00002
1.00006
1.00017
1.00036
1.00101
1.00206
1.00575
1.01136
1.03367
1.06153
1.20552
1.39729
2.2341
3.88367
6.53029
6.90087
6.81918
6.58685
0.999991
0.999991
0.999991
0.999991
0.999992
0.999994
0.999999
1.00001
1.00004
1.00009
1.00027
1.00057
1.00158
1.00319
1.00898
1.01782
1.052
1.10363
1.30934
1.69226
2.86795
5.40448
6.66669
6.67546
6.56779
0.999991
0.99999
0.999991
0.999991
0.999991
0.999993
0.999995
1
1.00002
1.00007
1.00015
1.00042
1.00086
1.00238
1.00481
1.0135
1.02659
1.07882
1.15361
1.47129
2.04621
3.6695
6.15442
6.56245
6.50768
0.999991
0.99999
0.99999
0.999991
0.999991
0.999992
0.999994
0.999999
1.00001
1.00004
1.00009
1.00026
1.00055
1.00151
1.00306
1.00849
1.0169
1.0486
1.09621
1.28609
1.63011
2.70208
4.99927
6.31864
6.38324
0.999991
0.99999
0.99999
0.99999
0.999991
0.999991
0.999993
0.999995
1
1.00002
1.00006
1.00014
1.00038
1.00079
1.00217
1.00438
1.01219
1.02412
1.06982
1.13944
1.4083
1.90633
3.24828
5.77676
6.27182
0.999991
0.99999
0.99999
0.99999
0.99999
0.999991
0.999992
0.999993
0.999998
1.00001
1.00004
1.00008
1.00024
1.00049
1.00135
1.00273
1.00753
1.01482
1.04364
1.0803
1.2587
1.52133
2.50301
4.5127
5.97822
0.999991
0.99999
0.99999
0.99999
0.99999
0.999991
0.999991
0.999992
0.999995
1
1.00002
1.00005
1.00014
1.00029
1.00081
1.00164
1.00448
1.00899
1.02506
1.04957
1.14418
1.29543
1.841
2.90093
5.3178
0.999991
0.99999
0.99999
0.99999
0.99999
0.99999
0.999991
0.999991
0.999993
0.999996
1.00001
1.00002
1.00008
1.00017
1.00048
1.00099
1.0027
1.00545
1.01512
1.02969
1.08839
1.16684
1.52704
2.13413
3.87156
0.999991
0.99999
0.99999
0.99999
0.99999
0.99999
0.99999
0.999991
0.999992
0.999994
0.999999
1.00001
1.00004
1.00011
1.00024
1.00066
1.00135
1.00369
1.00735
1.02095
1.03918
1.12393
1.22886
1.71581
2.54188
0.999991
0.99999
0.99999
0.99999
0.99999
0.99999
0.99999
0.999991
0.999991
0.999992
0.999996
1
1.00002
1.00005
1.00016
1.00033
1.0009
1.00183
1.005
1.00983
1.02858
1.05213
1.1673
1.31429
1.92679
0.999991
0.99999
0.99999
0.99999
0.99999
0.99999
0.99999
0.99999
0.999991
0.999992
0.999993
0.999998
1.00001
1.00003
1.00008
1.00022
1.00046
1.00125
1.00253
1.00692
1.01388
1.03869
1.07825
1.22066
1.48542
0.999991
0.99999
0.99999
0.99999
0.99999
0.99999
0.99999
0.99999
0.999991
0.999991
0.999992
0.999995
0.999999
1.00001
1.00004
1.00012
1.00026
1.00071
1.00145
1.00391
1.00787
1.02167
1.04264
1.1235
1.2451
0.999991
0.99999
0.99999
0.99999
0.99999
0.99999
0.99999
0.99999
0.99999
0.999991
0.999991
0.999992
0.999996
1
1.00002
1.00005
1.00016
1.00034
1.00092
1.00187
1.00507
1.01008
1.02845
1.05353
1.16288
0.999991
0.99999
0.99999
0.99999
0.99999
0.99999
0.99999
0.99999
0.99999
0.99999
0.999991
0.999992
0.999993
0.999998
1.00001
1.00003
1.00008
1.00022
1.00045
1.00122
1.00247
1.00673
1.01344
1.03728
1.07552
0.999991
0.99999
0.99999
0.99999
0.99999
0.99999
0.99999
0.99999
0.99999
0.99999
0.999991
0.999991
0.999992
0.999994
1
1.00001
1.00004
1.0001
1.00028
1.00059
1.00158
1.0032
1.00866
1.01744
1.0476
0.999991
0.99999
0.99999
0.99999
0.99999
0.99999
0.99999
0.99999
0.99999
0.99999
0.99999
0.999991
0.999991
0.999992
0.999996
1
1.00002
1.00005
1.00015
1.00032
1.00086
1.00176
1.00469
1.00944
1.02545
0.999991
0.99999
0.99999
0.99999
0.99999
0.99999
0.99999
0.99999
0.99999
0.99999
0.99999
0.99999
0.999991
0.999992
0.999993
0.999998
1.00001
1.00003
1.00007
1.00021
1.00043
1.00115
1.00233
1.0063
1.01242
0.999991
0.99999
0.99999
0.99999
0.99999
0.99999
0.99999
0.99999
0.99999
0.99999
0.99999
0.99999
0.999991
0.999991
0.999992
0.999994
1
1.00001
1.00005
1.00011
1.00032
1.00066
1.00181
1.00365
1.01004
0.999991
0.99999
0.99999
0.99999
0.99999
0.99999
0.99999
0.99999
0.99999
0.99999
0.99999
0.99999
0.99999
0.999991
0.999992
0.999994
0.999997
1.00001
1.00003
1.0001
1.00021
1.0006
1.00122
1.00344
1.00681
0.999991
0.99999
0.99999
0.99999
0.99999
0.99999
0.99999
0.99999
0.99999
0.99999
0.99999
0.99999
0.99999
0.999991
0.999991
0.999993
0.999997
1
1.00003
1.00007
1.00021
1.00044
1.00128
1.00249
1.00777
0.999991
0.99999
0.99999
0.99999
0.99999
0.99999
0.99999
0.99999
0.99999
0.99999
0.99999
0.99999
0.99999
0.999991
0.999991
0.999993
0.999997
1
1.00003
1.00007
1.0002
1.00042
1.00123
1.00237
1.00763
0.999991
0.99999
0.99999
0.99999
0.99999
0.99999
0.99999
0.99999
0.99999
0.99999
0.99999
0.99999
0.99999
0.999991
0.999991
0.999993
0.999996
1.00001
1.00002
1.00008
1.00018
1.00052
1.00106
1.00311
1.00602
0.999991
0.99999
0.99999
0.99999
0.99999
0.99999
0.99999
0.99999
0.99999
0.99999
0.99999
0.99999
0.99999
0.999991
0.999991
0.999993
0.999996
1.00001
1.00002
1.00009
1.00018
1.00054
1.00111
1.00321
1.00631
1
1.00002
1.00004
1.00012
1.00026
1.00073
1.00147
1.00424
1.00827
1.02588
1.04592
1.16713
1.3006
2.13087
3.6919
8.68409
10.3545
10.2462
10.0437
10.0098
9.98279
9.88501
9.62143
9.01091
7.47324
1
1.00002
1.00004
1.00011
1.00022
1.00063
1.00128
1.00365
1.00718
1.02205
1.03943
1.14262
1.2508
1.95756
3.21642
7.50427
10.2696
10.15
9.87999
9.76406
9.67284
9.47562
9.05816
8.22472
6.62603
1
1.00001
1.00003
1.00009
1.00019
1.00055
1.00112
1.00314
1.00634
1.01844
1.03544
1.11556
1.21343
1.76603
2.77721
6.23722
10.1827
10.0544
9.73361
9.52128
9.36551
9.08674
8.57608
7.72076
6.41789
1
1.00001
1.00003
1.00008
1.00016
1.00045
1.00092
1.0026
1.00525
1.01505
1.02975
1.09081
1.17796
1.58424
2.35986
4.92776
9.92557
9.8799
9.61118
9.29663
9.07229
8.74979
8.22197
7.43123
6.37596
1
1.00001
1.00002
1.00006
1.00013
1.00037
1.00074
1.00209
1.00422
1.01215
1.02365
1.07462
1.13797
1.47828
2.08412
4.24622
9.12857
9.58918
9.42642
9.08946
8.81183
8.46592
7.96381
7.25611
6.36852
1
1.00001
1.00002
1.00004
1.00012
1.00025
1.00069
1.00139
1.00397
1.00767
1.02416
1.04222
1.15459
1.27248
2.04039
3.39468
7.71684
9.30468
9.20556
8.93597
8.59616
8.23085
7.75933
7.12799
6.3642
1
1
1.00002
1.00003
1.0001
1.0002
1.00057
1.00115
1.00323
1.00648
1.01902
1.03583
1.11969
1.21766
1.78496
2.80351
6.17074
9.12466
9.0637
8.82677
8.42807
8.04397
7.59332
7.02457
6.35439
1
1
1.00001
1.00003
1.00008
1.00016
1.00044
1.00089
1.00249
1.00503
1.01443
1.02849
1.08682
1.1702
1.55248
2.27381
4.5774
8.77539
8.92273
8.73898
8.32931
7.89765
7.4574
6.94165
6.34718
1
1
1.00001
1.00002
1.00005
1.00014
1.00028
1.00078
1.00158
1.00446
1.00878
1.02665
1.04815
1.16909
1.30826
2.1019
3.58413
7.85527
8.69943
8.56996
8.23656
7.77924
7.34414
6.8708
6.33785
1
1
1.00001
1.00002