/*--------------------------------*- C++ -*----------------------------------*\
| =========                 |                                                 |
| \\      /  F ield         | OpenFOAM: The Open Source CFD Toolbox           |
|  \\    /   O peration     | Version:  4.1                                   |
|   \\  /    A nd           | Web:      www.OpenFOAM.org                      |
|    \\/     M anipulation  |                                                 |
\*---------------------------------------------------------------------------*/
FoamFile
{
    version     2.0;
    format      ascii;
    class       surfaceScalarField;
    location    "4";
    object      phi;
}
// * * * * * * * * * * * * * * * * * * * * * * * * * * * * * * * * * * * * * //

dimensions      [1 0 -1 0 0 0 0];

internalField   nonuniform List<scalar> 
150500
(
0.0168001
1.7419e-10
-3.38658e-12
0.0168001
9.63974e-10
-1.16473e-11
0.0168001
3.59815e-09
-1.34619e-11
0.0168
9.20038e-09
-2.17183e-11
0.0168
2.55345e-08
-2.13088e-11
0.0168
5.8143e-08
-2.92561e-11
0.0167998
1.55716e-07
-2.92399e-11
0.0167995
3.36436e-07
-4.0413e-11
0.0167984
9.73758e-07
-4.19814e-11
0.0167965
2.01284e-06
-7.83301e-11
0.0167894
6.61774e-06
-9.65314e-11
0.0167748
1.50057e-05
-2.36641e-10
0.0167089
6.47124e-05
-2.85189e-10
0.016525
0.000182812
-1.18204e-09
0.015441
0.00107869
-2.50811e-09
0.0141552
0.00128734
5.39177e-10
0.012915
0.00124084
-2.76624e-11
0.0116254
0.0012896
-3.17207e-10
0.010269
0.00135685
-3.10263e-10
0.00882567
0.00144355
-2.84063e-10
0.00727765
0.00154824
-2.78045e-10
0.00561844
0.00166017
-2.9664e-10
0.00385527
0.00176201
-3.13449e-10
0.0019877
0.00186746
-3.31324e-10
0.00198779
-3.49534e-10
0.0168001
3.46528e-10
-3.37919e-12
0.0168001
1.91013e-09
-1.16471e-11
0.0168001
7.14425e-09
-1.34666e-11
0.0168
1.8224e-08
-2.16856e-11
0.0168
5.07655e-08
-2.1337e-11
0.0168
1.15394e-07
-2.91968e-11
0.0167998
3.11352e-07
-2.91948e-11
0.0167995
6.67831e-07
-4.01494e-11
0.0167984
1.97191e-06
-4.18545e-11
0.0167965
4.01748e-06
-7.70118e-11
0.0167892
1.35053e-05
-9.56951e-11
0.0167742
3.02614e-05
-2.30604e-10
0.0167058
0.000132099
-2.91955e-10
0.0165174
0.00037029
-1.16085e-09
0.0154441
0.00214657
-2.49753e-09
0.0141288
0.00260423
5.38323e-10
0.0129032
0.00246707
-3.0399e-11
0.0116327
0.00256013
-3.20444e-10
0.0102859
0.00270416
-3.11947e-10
0.00883048
0.00289912
-2.83117e-10
0.00726301
0.00311594
-2.75422e-10
0.00558708
0.00333703
-2.9272e-10
0.00380325
0.0035447
-3.08576e-10
0.00192532
0.00374522
-3.25078e-10
0.00391336
-3.42744e-10
0.0168001
5.03999e-10
-3.36664e-12
0.0168001
2.75986e-09
-1.16421e-11
0.0168001
1.03143e-08
-1.34866e-11
0.0168
2.61978e-08
-2.15991e-11
0.0168
7.32373e-08
-2.14359e-11
0.0168
1.66019e-07
-2.90747e-11
0.0167998
4.505e-07
-2.91767e-11
0.0167995
9.63004e-07
-3.97842e-11
0.0167986
2.85355e-06
-4.17563e-11
0.0167969
5.81528e-06
-7.54808e-11
0.0167901
1.98889e-05
-9.4275e-11
0.0167756
4.49936e-05
-2.23889e-10
0.0167109
0.000195741
-2.86631e-10
0.0165327
0.000547618
-1.11885e-09
0.0155464
0.00312734
-2.46034e-09
0.0142073
0.00394502
5.2913e-10
0.012979
0.00369597
-3.28075e-11
0.0117194
0.00381981
-3.23363e-10
0.0103839
0.00404002
-3.15225e-10
0.0089287
0.00435459
-2.84975e-10
0.00735548
0.00468936
-2.74678e-10
0.00566257
0.00503096
-2.88819e-10
0.00385106
0.00535503
-3.02306e-10
0.00194763
0.00564853
-3.15031e-10
0.00586097
-3.28903e-10
0.0168001
5.69534e-10
-3.34658e-12
0.0168001
3.16798e-09
-1.16368e-11
0.0168001
1.18537e-08
-1.35028e-11
0.0168001
3.02047e-08
-2.14979e-11
0.0168
8.38163e-08
-2.1515e-11
0.0168
1.88094e-07
-2.88882e-11
0.0167999
5.2397e-07
-2.90146e-11
0.0167999
1.00603e-06
-3.8946e-11
0.016799
3.71624e-06
-4.11453e-11
0.0167993
5.56282e-06
-7.13102e-11
0.0167901
2.87211e-05
-8.9476e-11
0.0167819
5.34398e-05
-2.1082e-10
0.0167185
0.000258072
-2.72659e-10
0.0165662
0.000699044
-1.0574e-09
0.0157469
0.00394107
-2.44129e-09
0.0143888
0.00530478
4.34178e-10
0.0131532
0.00493211
-6.78994e-11
0.0119004
0.00507272
-3.23476e-10
0.0105758
0.00536504
-3.13715e-10
0.00912763
0.00580296
-2.82975e-10
0.00755311
0.00626408
-2.73583e-10
0.00585349
0.00673157
-2.83737e-10
0.00400939
0.00719798
-2.92967e-10
0.0020313
0.00762659
-3.0054e-10
0.00789219
-3.08607e-10
0.0168001
7.56187e-10
-3.33979e-12
0.0168001
4.17243e-09
-1.16019e-11
0.0168001
1.55419e-08
-1.35968e-11
0.0168
3.96998e-08
-2.13705e-11
0.0168
1.09954e-07
-2.18459e-11
0.0168
2.4982e-07
-2.90105e-11
0.0167998
6.73269e-07
-2.97298e-11
0.0167994
1.40701e-06
-4.25043e-11
0.0167986
4.4712e-06
-3.78515e-11
0.0167969
7.33267e-06
-1.11926e-10
0.0167917
3.35698e-05
-3.46176e-12
0.0167816
6.38879e-05
-3.05247e-10
0.0167446
0.000293976
-8.15899e-11
0.0166459
0.000797088
-9.26002e-10
0.016175
0.00440646
-2.11511e-09
0.0147947
0.00668653
2.18378e-10
0.0135007
0.00622685
-1.97694e-10
0.0122267
0.0063469
-3.41247e-10
0.0109123
0.0066801
-3.21848e-10
0.00946847
0.00724691
-2.86123e-10
0.00788871
0.00784404
-2.83681e-10
0.0061558
0.00846584
-2.88518e-10
0.00426022
0.00909257
-2.89996e-10
0.00219749
0.00968931
-2.90321e-10
0.0100896
-2.91195e-10
0.0168001
9.10337e-10
-3.31267e-12
0.0168001
5.00416e-09
-1.15788e-11
0.0168001
1.86483e-08
-1.3564e-11
0.0168
4.76767e-08
-2.12505e-11
0.0168
1.32218e-07
-2.1543e-11
0.0168
3.02115e-07
-2.82819e-11
0.0167998
7.99063e-07
-2.82402e-11
0.0167995
1.76812e-06
-3.62396e-11
0.016799
4.8864e-06
-3.83019e-11
0.0167964
1.00258e-05
-6.76505e-11
0.0167955
3.41306e-05
-4.73219e-11
0.0167902
6.94668e-05
-2.11856e-10
0.016783
0.000300213
-1.54204e-10
0.0167723
0.000807155
-8.00066e-10
0.0168911
0.00428238
-1.92953e-09
0.0154873
0.00809079
-1.60398e-10
0.0140526
0.00766223
-2.52628e-10
0.0127249
0.00767482
-3.00182e-10
0.0113971
0.00800858
-2.92373e-10
0.00997533
0.00866897
-2.75835e-10
0.00838263
0.00943665
-2.8389e-10
0.00662571
0.0102236
-2.88097e-10
0.00465403
0.0110633
-2.8627e-10
0.00242876
0.0119145
-2.82957e-10
0.0125183
-2.80219e-10
0.0168001
9.51254e-10
-3.27606e-12
0.0168001
5.26375e-09
-1.15839e-11
0.0168001
1.9593e-08
-1.35409e-11
0.0168001
5.02804e-08
-2.12217e-11
0.0168
1.38286e-07
-2.14472e-11
0.0168
3.16346e-07
-2.81163e-11
0.0168
8.24409e-07
-2.77632e-11
0.0167999
1.83353e-06
-3.52952e-11
0.0167999
4.84603e-06
-3.71097e-11
0.0167994
1.05877e-05
-5.33882e-11
0.0168025
3.08424e-05
-5.66821e-11
0.0168032
6.89767e-05
-1.583e-10
0.0168524
0.000250219
-1.42803e-10
0.0169884
0.000670435
-6.10698e-10
0.018106
0.00316183
-1.55485e-09
0.0166867
0.00950935
-3.7768e-10
0.0148934
0.00945558
-3.36954e-10
0.0134794
0.00908896
-2.61576e-10
0.0121238
0.00936469
-2.61454e-10
0.010676
0.0101169
-2.65177e-10
0.00907448
0.0110386
-2.81257e-10
0.00726459
0.0120341
-2.86781e-10
0.00521455
0.0131126
-2.82208e-10
0.00283178
0.0142971
-2.76629e-10
0.0153501
-2.71273e-10
0.0168001
1.02957e-09
-3.24364e-12
0.0168001
5.72085e-09
-1.15933e-11
0.0168001
2.13427e-08
-1.354e-11
0.0168001
5.50045e-08
-2.12195e-11
0.0168
1.51252e-07
-2.14296e-11
0.0168
3.47275e-07
-2.8076e-11
0.0167999
9.02067e-07
-2.76474e-11
0.0167997
2.02924e-06
-3.50062e-11
0.0167993
5.23924e-06
-3.64646e-11
0.0167981
1.18563e-05
-5.17984e-11
0.0167978
3.09003e-05
-5.23658e-11
0.0167902
7.67554e-05
-1.54731e-10
0.0168093
0.000230432
-1.09609e-10
0.0168335
0.000646222
-5.09129e-10
0.017213
0.00277964
-9.82088e-10
0.0166752
0.0100442
-1.2259e-09
0.0151768
0.0109533
-5.22177e-10
0.0140325
0.0102334
-2.19611e-10
0.0127968
0.010601
-2.22212e-10
0.011438
0.0114757
-2.39979e-10
0.0098883
0.0125887
-2.67198e-10
0.00811166
0.0138115
-2.72264e-10
0.00601777
0.0152057
-2.70287e-10
0.00342949
0.016885
-2.6569e-10
0.0187796
-2.6106e-10
0.0168001
1.38722e-09
-3.2175e-12
0.0168001
6.19223e-09
-1.15945e-11
0.0168001
2.52485e-08
-1.35546e-11
0.0168
6.07736e-08
-2.1223e-11
0.0168
1.77358e-07
-2.14723e-11
0.0168
3.87819e-07
-2.81625e-11
0.0167998
1.03669e-06
-2.7939e-11
0.0167995
2.34966e-06
-3.57556e-11
0.0167993
5.44244e-06
-3.72117e-11
0.0167975
1.36923e-05
-5.97933e-11
0.0167965
3.16582e-05
-4.27222e-11
0.0168007
7.27819e-05
-1.81932e-10
0.0167937
0.000236579
-6.2635e-11
0.0168029
0.000637524
-5.11895e-10
0.0169988
0.00258167
-8.06187e-10
0.0163059
0.0107335
-1.52098e-09
0.0157211
0.0115379
-2.66409e-10
0.0145251
0.0114294
-1.60737e-10
0.0133113
0.0118153
-1.88402e-10
0.0121592
0.0126282
-2.0841e-10
0.0107685
0.0139789
-2.45991e-10
0.00914856
0.0154327
-2.48469e-10
0.00720143
0.0171524
-2.48359e-10
0.00451055
0.0195754
-2.43179e-10
0.0232902
-2.39746e-10
0.0168001
-3.24033e-12
1.99019e-09
0.0168001
-1.1629e-11
1.45407e-09
0.0168001
-1.36244e-11
2.63209e-08
0.0168001
-2.18687e-11
2.23787e-08
0.0168001
-2.11824e-11
1.73347e-07
0.0168003
-2.91125e-11
1.45627e-07
0.0168003
-2.80939e-11
1.05338e-06
0.0168019
-3.74188e-11
7.30876e-07
0.0168002
-3.6173e-11
7.12526e-06
0.0168112
-5.94982e-11
2.89999e-06
0.0167892
-6.08803e-11
5.36097e-05
0.0168515
-1.35701e-10
1.0567e-05
0.0167076
-6.76428e-11
0.000379855
0.0169895
-5.45883e-10
0.000355453
0.0169295
-6.2018e-10
0.00264042
0.0165374
-1.67423e-09
0.0111218
0.0156908
-1.49894e-10
0.0123842
0.0148275
-1.01846e-10
0.0122928
0.0139127
-1.71846e-10
0.0127302
0.0129139
-1.89683e-10
0.0136274
0.0118411
-2.19529e-10
0.0150518
0.0105676
-2.18931e-10
0.0167067
0.00880476
-2.1606e-10
0.0189154
0.0062192
-2.05545e-10
0.0221605
-1.92762e-10
0.0295094
0.0168001
1.7787e-10
-5.04131e-16
0.0168001
9.67069e-10
-2.68136e-15
0.0168001
3.59946e-09
-5.85857e-15
0.0168
9.21762e-09
-1.24115e-14
0.0168
2.55356e-08
-2.29397e-14
0.0168
5.81724e-08
-4.36187e-14
0.0167998
1.55762e-07
-9.33724e-14
0.0167995
3.36599e-07
-1.85764e-13
0.0167984
9.73958e-07
-4.48335e-13
0.0167965
2.01365e-06
-9.48204e-13
0.0167894
6.61888e-06
-2.68423e-12
0.0167748
1.50098e-05
-6.3214e-12
0.0167089
6.4713e-05
-1.60506e-11
0.0165249
0.000182832
-5.39239e-11
0.0154409
0.00107875
-1.45165e-10
0.0141552
0.00128732
3.78218e-11
0.0129149
0.00124083
6.28054e-12
0.0116254
0.00128958
-9.24297e-12
0.010269
0.00135683
-8.34565e-12
0.00882567
0.00144352
-6.1557e-12
0.00727767
0.00154821
-6.16552e-12
0.00561847
0.00166015
-7.21274e-12
0.00385531
0.001762
-8.22118e-12
0.00198773
0.00186747
-9.07316e-12
0.00198782
-9.93014e-12
0.0168001
3.52817e-10
-5.00203e-16
0.0168001
1.91831e-09
-2.6723e-15
0.0168001
7.14197e-09
-5.77592e-15
0.0168
1.82689e-08
-1.22328e-14
0.0168
5.07483e-08
-2.19377e-14
0.0168
1.15459e-07
-4.09255e-14
0.0167998
3.11417e-07
-8.58914e-14
0.0167995
6.68107e-07
-1.51462e-13
0.0167984
1.97226e-06
-4.43176e-13
0.0167965
4.01871e-06
-7.13272e-13
0.0167892
1.35077e-05
-2.67299e-12
0.0167742
3.02676e-05
-4.95825e-12
0.0167058
0.000132112
-2.05619e-11
0.0165173
0.000370335
-5.21041e-11
0.015444
0.00214673
-1.47015e-10
0.0141287
0.00260419
3.99202e-11
0.0129031
0.00246703
7.18866e-12
0.0116326
0.00256009
-8.98665e-12
0.0102858
0.00270412
-8.15902e-12
0.00883045
0.00289907
-6.07037e-12
0.007263
0.0031159
-6.0992e-12
0.00558709
0.00333699
-7.08613e-12
0.00380327
0.00354468
-8.08015e-12
0.00192534
0.00374523
-8.88894e-12
0.00391341
-9.7234e-12
0.0168001
5.13381e-10
-4.98202e-16
0.0168001
2.76988e-09
-2.66439e-15
0.0168001
1.03157e-08
-5.7504e-15
0.0168
2.6246e-08
-1.21701e-14
0.0168
7.3227e-08
-2.1778e-14
0.0168
1.6608e-07
-4.06028e-14
0.0167998
4.5057e-07
-8.49932e-14
0.0167995
9.63202e-07
-1.50555e-13
0.0167986
2.85369e-06
-4.3779e-13
0.0167969
5.81527e-06
-7.12339e-13
0.0167901
1.98919e-05
-2.67257e-12
0.0167756
4.50037e-05
-4.99422e-12
0.0167109
0.000195766
-2.06076e-11
0.0165326
0.00054771
-5.21889e-11
0.0155462
0.00312766
-1.489e-10
0.0142071
0.00394498
4.03951e-11
0.0129788
0.00369589
7.41223e-12
0.0117192
0.00381973
-8.72722e-12
0.0103838
0.00403995
-7.91174e-12
0.00892862
0.00435451
-5.92147e-12
0.00735543
0.00468929
-5.97494e-12
0.00566254
0.00503089
-6.81958e-12
0.00385104
0.00535499
-7.73554e-12
0.00194763
0.00564852
-8.42705e-12
0.00586102
-9.13105e-12
0.0168001
5.74124e-10
-4.95155e-16
0.0168001
3.19076e-09
-2.65046e-15
0.0168001
1.18299e-08
-5.71327e-15
0.0168001
3.02675e-08
-1.20826e-14
0.0168
8.37254e-08
-2.16061e-14
0.0168
1.88078e-07
-4.03055e-14
0.0167999
5.23765e-07
-8.4207e-14
0.0167999
1.00504e-06
-1.5073e-13
0.016799
3.71798e-06
-4.31708e-13
0.0167993
5.54988e-06
-7.15558e-13
0.0167901
2.87594e-05
-2.65363e-12
0.0167819
5.34033e-05
-4.91458e-12
0.0167184
0.000258198
-2.03066e-11
0.0165661
0.000699191
-5.13321e-11
0.0157464
0.00394173
-1.50352e-10
0.0143883
0.00530475
3.87716e-11
0.0131529
0.00493189
6.94402e-12
0.0119001
0.00507257
-8.74477e-12
0.0105755
0.00536492
-7.89621e-12
0.00912745
0.00580285
-6.01479e-12
0.00755296
0.00626396
-5.82456e-12
0.00585339
0.00673146
-6.40142e-12
0.00400933
0.00719789
-7.13413e-12
0.00203127
0.00762655
-7.65806e-12
0.00789221
-8.17995e-12
0.0168001
7.69644e-10
-4.71088e-16
0.0168001
4.19444e-09
-2.5695e-15
0.0168001
1.55768e-08
-5.41592e-15
0.0168
3.97807e-08
-1.11704e-14
0.0168
1.10165e-07
-1.96837e-14
0.0168
2.5029e-07
-3.50897e-14
0.0167998
6.74293e-07
-7.30184e-14
0.0167994
1.41069e-06
-1.05352e-13
0.0167986
4.47289e-06
-4.33409e-13
0.0167969
7.35445e-06
-3.12537e-13
0.0167917
3.35597e-05
-3.91173e-12
0.0167815
6.39414e-05
-3.7531e-12
0.0167447
0.000293969
-2.07185e-11
0.016646
0.00079722
-4.90216e-11
0.016175
0.00440711
-1.49189e-10
0.0147948
0.00668646
3.31999e-11
0.0135007
0.00622671
8.35556e-12
0.0122267
0.00634681
-7.21732e-12
0.0109122
0.00668002
-7.22705e-12
0.00946837
0.00724683
-6.35335e-12
0.00788859
0.00784394
-5.74568e-12
0.00615569
0.00846571
-5.92386e-12
0.00426014
0.00909246
-6.36305e-12
0.00219745
0.00968923
-6.69887e-12
0.0100896
-7.02032e-12
0.0168001
9.28354e-10
-4.79932e-16
0.0168001
5.01636e-09
-2.59577e-15
0.0168001
1.8676e-08
-5.54679e-15
0.0168
4.77189e-08
-1.15049e-14
0.0168
1.32318e-07
-2.06811e-14
0.0168
3.02319e-07
-3.79921e-14
0.0167998
7.99566e-07
-7.65796e-14
0.0167995
1.76929e-06
-1.42884e-13
0.016799
4.88855e-06
-3.79262e-13
0.0167964
1.00358e-05
-5.86119e-13
0.0167955
3.41361e-05
-2.56492e-12
0.0167902
6.94994e-05
-3.8872e-12
0.0167829
0.000300255
-1.82117e-11
0.0167723
0.000807313
-4.51396e-11
0.0168908
0.00428329
-1.45877e-10
0.0154872
0.0080905
8.5052e-12
0.0140526
0.00766204
6.07017e-12
0.0127249
0.00767472
-4.82607e-12
0.011397
0.00800852
-6.05834e-12
0.0099753
0.00866889
-6.56808e-12
0.00838258
0.00943656
-5.45204e-12
0.00662564
0.0102235
-5.35311e-12
0.00465397
0.0110632
-5.62101e-12
0.00242871
0.0119144
-5.72402e-12
0.0125182
-5.76039e-12
0.0168001
9.67434e-10
-4.63053e-16
0.0168001
5.27248e-09
-2.52042e-15
0.0168001
1.96055e-08
-5.29269e-15
0.0168001
5.02953e-08
-1.09519e-14
0.0168
1.38312e-07
-1.89734e-14
0.0168
3.16395e-07
-3.44144e-14
0.0168
8.24514e-07
-6.53593e-14
0.0167999
1.83376e-06
-1.20015e-13
0.0168
4.84655e-06
-2.90871e-13
0.0167994
1.05889e-05
-5.11361e-13
0.0168025
3.08461e-05
-1.85279e-12
0.0168032
6.89817e-05
-2.48345e-12
0.0168525
0.000250247
-1.33616e-11
0.0169885
0.00067052
-3.30734e-11
0.0181057
0.00316235
-1.2486e-10
0.0166867
0.00950928
-6.81877e-12
0.0148935
0.00945542
-2.27778e-12
0.0134795
0.00908887
-5.47896e-12
0.0121238
0.00936465
-6.69573e-12
0.010676
0.0101169
-8.25146e-12
0.00907448
0.0110385
-6.848e-12
0.00726457
0.012034
-5.73875e-12
0.00521451
0.0131124
-5.2562e-12
0.00283175
0.0142969
-4.90994e-12
0.01535
-4.58233e-12
0.0168001
1.04098e-09
-4.57522e-16
0.0168001
5.72479e-09
-2.49306e-15
0.0168001
2.13349e-08
-5.21426e-15
0.0168001
5.49727e-08
-1.07768e-14
0.0168
1.51161e-07
-1.85118e-14
0.0168
3.4714e-07
-3.34585e-14
0.0167999
9.01743e-07
-6.2721e-14
0.0167997
2.02858e-06
-1.15479e-13
0.0167993
5.23824e-06
-2.69104e-13
0.0167981
1.18524e-05
-5.11469e-13
0.0167978
3.0903e-05
-1.44104e-12
0.0167902
7.67406e-05
-3.02378e-12
0.0168093
0.000230457
-9.41852e-12
0.0168336
0.000646234
-2.41399e-11
0.0172133
0.0027799
-7.0025e-11
0.0166756
0.0100442
-7.79492e-11
0.015177
0.0109534
-2.50085e-11
0.0140326
0.0102334
-6.2508e-12
0.0127969
0.010601
-7.00586e-12
0.0114381
0.0114757
-8.21094e-12
0.00988836
0.0125886
-8.00388e-12
0.00811169
0.0138114
-6.33556e-12
0.00601777
0.0152057
-5.83428e-12
0.00342948
0.0168849
-4.81727e-12
0.0187795
-3.77669e-12
0.0168001
1.36316e-09
-4.62661e-16
0.0168001
6.29892e-09
-2.50932e-15
0.0168001
2.52918e-08
-5.295e-15
0.0168
6.0533e-08
-1.09469e-14
0.0168
1.77383e-07
-1.91459e-14
0.0168
3.87397e-07
-3.48613e-14
0.0167998
1.03645e-06
-6.71311e-14
0.0167995
2.34891e-06
-1.28217e-13
0.0167993
5.44208e-06
-2.78729e-13
0.0167975
1.36925e-05
-6.62934e-13
0.0167965
3.16518e-05
-1.13583e-12
0.0168006
7.27969e-05
-3.97662e-12
0.0167937
0.000236577
-7.2369e-12
0.0168029
0.000637537
-2.26753e-11
0.0169989
0.00258182
-5.90287e-11
0.016306
0.0107336
-1.0176e-10
0.0157212
0.0115378
-1.04382e-11
0.0145252
0.0114294
-3.71995e-12
0.0133114
0.0118152
-6.68647e-12
0.0121593
0.0126282
-7.63938e-12
0.0107686
0.0139789
-8.75068e-12
0.00914862
0.0154326
-6.7806e-12
0.00720147
0.0171523
-6.36524e-12
0.00451057
0.0195753
-4.96658e-12
0.0232901
-3.60963e-12
0.0168001
-4.55214e-16
1.85481e-09
0.0168001
-2.44909e-15
1.81963e-09
0.0168001
-5.08448e-15
2.51256e-08
0.0168001
-1.07314e-14
2.28954e-08
0.0168001
-1.7465e-14
1.71942e-07
0.0168003
-3.20981e-14
1.46271e-07
0.0168003
-5.72525e-14
1.05231e-06
0.0168019
-1.06134e-13
7.31969e-07
0.0168002
-2.3032e-13
7.12401e-06
0.0168112
-4.4504e-13
2.90562e-06
0.0167892
-1.18189e-12
5.36066e-05
0.0168515
-2.61928e-12
1.05867e-05
0.0167077
-6.08463e-12
0.000379818
0.0169894
-2.32832e-11
0.000355552
0.0169296
-4.87009e-11
0.00264038
0.0165374
-1.13972e-10
0.011122
0.0156909
-4.95878e-12
0.0123842
0.0148276
-1.70408e-12
0.0122928
0.0139128
-6.74358e-12
0.0127302
0.012914
-7.47678e-12
0.0136273
0.0118412
-8.2052e-12
0.0150517
0.0105677
-7.53229e-12
0.0167067
0.00880484
-6.02741e-12
0.0189154
0.00621925
-4.97362e-12
0.0221604
-3.95463e-12
0.0295094
0.0168001
1.77871e-10
1.7126e-16
0.0168001
9.67071e-10
1.48552e-16
0.0168001
3.59948e-09
-1.16248e-16
0.0168
9.21768e-09
-2.50858e-16
0.0168
2.55359e-08
-7.66744e-16
0.0168
5.81733e-08
-1.59333e-15
0.0167998
1.55765e-07
-4.81481e-15
0.0167995
3.36612e-07
-1.02042e-14
0.0167984
9.73964e-07
-2.95193e-14
0.0167965
2.01374e-06
-6.2424e-14
0.0167894
6.61892e-06
-2.00169e-13
0.0167748
1.50105e-05
-4.68575e-13
0.0167089
6.47107e-05
-1.33792e-12
0.0165249
0.000182832
-4.45798e-12
0.0154409
0.00107876
-1.26947e-11
0.0141552
0.00128732
2.26257e-12
0.0129149
0.00124083
4.52301e-13
0.0116254
0.00128958
-4.46656e-13
0.010269
0.00135683
-3.19335e-13
0.00882567
0.00144352
1.99013e-14
0.00727768
0.00154821
2.58057e-13
0.00561848
0.00166015
3.74343e-13
0.00385531
0.001762
3.77886e-13
0.00198774
0.00186747
4.19788e-13
0.00198782
4.13938e-13
0.0168001
3.52817e-10
1.71102e-16
0.0168001
1.91831e-09
1.49779e-16
0.0168001
7.14198e-09
-1.11037e-16
0.0168
1.8269e-08
-2.39718e-16
0.0168
5.07484e-08
-7.01752e-16
0.0168
1.15459e-07
-1.41826e-15
0.0167998
3.11418e-07
-4.32178e-15
0.0167995
6.68109e-07
-7.92794e-15
0.0167984
1.97227e-06
-2.91513e-14
0.0167965
4.01871e-06
-4.65526e-14
0.0167892
1.35077e-05
-1.99319e-13
0.0167742
3.02677e-05
-3.71732e-13
0.0167058
0.000132113
-1.65871e-12
0.0165173
0.000370335
-4.31471e-12
0.015444
0.00214674
-1.27893e-11
0.0141287
0.00260419
2.43046e-12
0.0129031
0.00246703
5.35523e-13
0.0116327
0.00256009
-4.13564e-13
0.0102858
0.00270412
-2.9038e-13
0.00883046
0.00289907
4.32769e-14
0.00726301
0.0031159
2.77617e-13
0.0055871
0.003337
3.89835e-13
0.00380328
0.00354468
3.86938e-13
0.00192535
0.00374523
4.24334e-13
0.00391342
4.16915e-13
0.0168001
5.13384e-10
1.70888e-16
0.0168001
2.76989e-09
1.5094e-16
0.0168001
1.03158e-08
-1.09711e-16
0.0168
2.62461e-08
-2.36809e-16
0.0168
7.32273e-08
-6.93108e-16
0.0168
1.66081e-07
-1.4015e-15
0.0167998
4.50572e-07
-4.26858e-15
0.0167995
9.63207e-07
-7.88214e-15
0.0167986
2.85371e-06
-2.87759e-14
0.0167969
5.81531e-06
-4.64754e-14
0.0167901
1.9892e-05
-1.98872e-13
0.0167756
4.50038e-05
-3.72876e-13
0.0167109
0.000195767
-1.6548e-12
0.0165326
0.000547712
-4.29512e-12
0.0155462
0.00312767
-1.28509e-11
0.0142071
0.00394497
2.5163e-12
0.0129788
0.00369588
5.96016e-13
0.0117192
0.00381973
-3.60251e-13
0.0103838
0.00403995
-2.35716e-13
0.00892863
0.00435451
9.56945e-14
0.00735543
0.00468929
3.22074e-13
0.00566255
0.0050309
4.28843e-13
0.00385105
0.005355
4.07109e-13
0.00194763
0.00564852
4.39824e-13
0.00586103
4.30852e-13
0.0168001
5.74134e-10
1.70538e-16
0.0168001
3.1908e-09
1.5305e-16
0.0168001
1.183e-08
-1.07901e-16
0.0168001
3.02679e-08
-2.32974e-16
0.0168
8.37265e-08
-6.84798e-16
0.0168
1.8808e-07
-1.38871e-15
0.0167999
5.23771e-07
-4.22462e-15
0.0167999
1.00506e-06
-7.92031e-15
0.016799
3.71799e-06
-2.83115e-14
0.0167993
5.55004e-06
-4.67008e-14
0.0167901
2.87593e-05
-1.96721e-13
0.0167819
5.3404e-05
-3.65046e-13
0.0167184
0.000258198
-1.62009e-12
0.0165661
0.000699194
-4.19061e-12
0.0157464
0.00394175
-1.28228e-11
0.0143883
0.00530474
2.46561e-12
0.0131529
0.00493188
6.11366e-13
0.0119001
0.00507257
-3.12786e-13
0.0105756
0.00536492
-1.86373e-13
0.00912745
0.00580285
1.53635e-13
0.00755297
0.00626396
3.67902e-13
0.00585339
0.00673146
4.80066e-13
0.00400933
0.0071979
4.39643e-13
0.00203127
0.00762655
4.7013e-13
0.00789222
4.56768e-13
0.0168001
7.6964e-10
1.68165e-16
0.0168001
4.19443e-09
1.6727e-16
0.0168001
1.55767e-08
-8.754e-17
0.0168
3.97806e-08
-1.86224e-16
0.0168
1.10165e-07
-5.43655e-16
0.0168
2.50289e-07
-1.06043e-15
0.0167998
6.74292e-07
-3.46452e-15
0.0167994
1.41067e-06
-4.77089e-15
0.0167986
4.47292e-06
-2.85055e-14
0.0167969
7.35436e-06
-1.6933e-14
0.0167917
3.35601e-05
-2.38113e-13
0.0167815
6.39416e-05
-2.73768e-13
0.0167447
0.000293972
-1.63362e-12
0.016646
0.000797227
-3.95637e-12
0.016175
0.00440715
-1.25119e-11
0.0147948
0.00668645
2.11573e-12
0.0135007
0.0062267
7.32711e-13
0.0122267
0.0063468
-1.31868e-13
0.0109122
0.00668002
-7.34665e-14
0.00946837
0.00724683
2.17997e-13
0.00788859
0.00784394
5.17698e-13
0.00615569
0.00846571
5.96471e-13
0.00426014
0.00909247
4.72514e-13
0.00219745
0.00968923
4.92814e-13
0.0100896
4.79537e-13
0.0168001
9.28362e-10
1.68701e-16
0.0168001
5.0164e-09
1.61743e-16
0.0168001
1.86761e-08
-9.83278e-17
0.0168
4.77193e-08
-2.1318e-16
0.0168
1.32319e-07
-6.21713e-16
0.0168
3.02321e-07
-1.28149e-15
0.0167998
7.99572e-07
-3.74553e-15
0.0167995
1.76931e-06
-7.50651e-15
0.016799
4.8886e-06
-2.46361e-14
0.0167964
1.00359e-05
-3.64656e-14
0.0167955
3.41365e-05
-1.90367e-13
0.0167902
6.95004e-05
-2.77406e-13
0.0167829
0.000300259
-1.42271e-12
0.0167723
0.000807325
-3.57597e-12
0.0168907
0.00428336
-1.19237e-11
0.0154872
0.00809049
2.84779e-13
0.0140526
0.00766202
5.33081e-13
0.0127249
0.00767471
6.33851e-14
0.011397
0.00800851
7.27906e-14
0.00997529
0.00866889
3.46039e-14
0.00838257
0.00943655
3.17509e-13
0.00662563
0.0102235
4.73722e-13
0.00465397
0.0110632
5.02302e-13
0.00242871
0.0119144
5.36109e-13
0.0125182
5.03113e-13
0.0168001
9.67437e-10
1.67063e-16
0.0168001
5.2725e-09
1.73755e-16
0.0168001
1.96055e-08
-8.26298e-17
0.0168001
5.02955e-08
-1.7888e-16
0.0168
1.38313e-07
-5.11093e-16
0.0168
3.16396e-07
-1.0473e-15
0.0168
8.24517e-07
-2.98424e-15
0.0167999
1.83377e-06
-5.95977e-15
0.0168
4.84656e-06
-1.81432e-14
0.0167994
1.05889e-05
-3.2691e-14
0.0168025
3.08463e-05
-1.32885e-13
0.0168032
6.89817e-05
-1.80187e-13
0.0168525
0.00025025
-1.016e-12
0.0169885
0.000670527
-2.5831e-12
0.0181057
0.0031624
-9.96816e-12
0.0166867
0.00950928
-8.37382e-13
0.0148935
0.00945541
-8.79492e-14
0.0134795
0.00908887
1.62109e-13
0.0121238
0.00936465
1.13585e-13
0.010676
0.0101169
6.60576e-13
0.00907447
0.0110385
9.2709e-13
0.00726456
0.012034
6.85183e-13
0.0052145
0.0131124
4.9114e-13
0.00283175
0.0142969
4.68502e-13
0.01535
4.91096e-13
0.0168001
1.04098e-09
1.66553e-16
0.0168001
5.72478e-09
1.78063e-16
0.0168001
2.13349e-08
-7.72104e-17
0.0168001
5.49726e-08
-1.67061e-16
0.0168
1.51161e-07
-4.77202e-16
0.0168
3.4714e-07
-9.77277e-16
0.0167999
9.01741e-07
-2.77672e-15
0.0167997
2.02858e-06
-5.59896e-15
0.0167993
5.23824e-06
-1.63716e-14
0.0167981
1.18524e-05
-3.23418e-14
0.0167978
3.09032e-05
-1.01353e-13
0.0167902
7.67403e-05
-2.14005e-13
0.0168093
0.000230459
-7.09297e-13
0.0168336
0.000646236
-1.84123e-12
0.0172133
0.00277992
-5.48098e-12
0.0166756
0.0100442
-6.21845e-12
0.0151771
0.0109534
-1.77827e-12
0.0140327
0.0102334
3.33998e-14
0.0127969
0.010601
2.45086e-13
0.0114381
0.0114757
2.13348e-13
0.00988835
0.0125886
6.69983e-13
0.00811168
0.0138114
2.45984e-13
0.00601777
0.0152056
6.23586e-13
0.00342947
0.0168849
5.1715e-13
0.0187795
4.69037e-13
0.0168001
1.36316e-09
1.67017e-16
0.0168001
6.29896e-09
1.75148e-16
0.0168001
2.52919e-08
-8.25654e-17
0.0168
6.05332e-08
-1.78594e-16
0.0168
1.77384e-07
-5.21707e-16
0.0168
3.87398e-07
-1.07683e-15
0.0167998
1.03646e-06
-3.09597e-15
0.0167995
2.34892e-06
-6.54583e-15
0.0167993
5.44211e-06
-1.70374e-14
0.0167975
1.36926e-05
-4.39055e-14
0.0167965
3.16519e-05
-7.72336e-14
0.0168006
7.27975e-05
-2.88009e-13
0.0167937
0.000236578
-5.36134e-13
0.0168029
0.000637539
-1.71174e-12
0.0169989
0.00258184
-4.5479e-12
0.016306
0.0107336
-7.9122e-12
0.0157213
0.0115378
-5.26209e-13
0.0145252
0.0114294
1.04954e-13
0.0133114
0.0118152
5.55778e-13
0.0121593
0.0126281
5.45499e-13
0.0107686
0.0139789
7.36472e-13
0.00914862
0.0154326
3.34638e-13
0.00720147
0.0171523
5.65361e-13
0.00451057
0.0195753
6.24478e-13
0.0232901
4.57176e-13
0.0168001
1.67716e-16
1.85479e-09
0.0168001
1.87918e-16
1.8197e-09
0.0168001
-6.04756e-17
2.51255e-08
0.0168001
-1.30921e-16
2.28958e-08
0.0168001
-3.72126e-16
1.71943e-07
0.0168003
-7.63726e-16
1.46273e-07
0.0168003
-2.15311e-15
1.05231e-06
0.0168019
-4.3624e-15
7.31977e-07
0.0168002
-1.26598e-14
7.12404e-06
0.0168112
-2.44232e-14
2.90568e-06
0.0167892
-7.83901e-14
5.36068e-05
0.0168515
-1.67107e-13
1.0587e-05
0.0167077
-4.70894e-13
0.000379819
0.0169894
-1.60983e-12
0.000355555
0.0169296
-3.86382e-12
0.00264039
0.0165374
-8.74374e-12
0.011122
0.0156909
5.09773e-14
0.0123842
0.0148276
3.32781e-13
0.0122928
0.0139128
3.57004e-13
0.0127302
0.012914
3.18865e-13
0.0136273
0.0118412
2.94019e-13
0.0150517
0.0105677
3.79691e-13
0.0167067
0.00880483
7.1475e-14
0.0189154
0.00621925
2.6924e-13
0.0221604
8.22214e-13
0.0295094
0.0168001
1.77871e-10
4.45624e-18
0.0168001
9.67072e-10
1.7703e-17
0.0168001
3.59948e-09
4.88611e-17
0.0168
9.21768e-09
8.03258e-17
0.0168
2.5536e-08
1.29308e-16
0.0168
5.81734e-08
1.02199e-16
0.0167998
1.55765e-07
-2.01942e-16
0.0167995
3.36613e-07
-6.96883e-16
0.0167984
9.73965e-07
-1.54883e-15
0.0167965
2.01375e-06
-3.79128e-15
0.0167894
6.61893e-06
-8.8002e-15
0.0167748
1.50105e-05
-2.22824e-14
0.0167089
6.47105e-05
-3.90707e-14
0.0165249
0.000182832
-1.43105e-13
0.0154409
0.00107876
-3.22507e-13
0.0141552
0.00128732
1.17994e-13
0.0129149
0.00124083
-6.60216e-14
0.0116254
0.00128958
-1.39847e-13
0.010269
0.00135683
-1.803e-13
0.00882567
0.00144352
-2.13921e-13
0.00727768
0.00154821
-1.68126e-13
0.00561848
0.00166015
-1.37767e-13
0.00385531
0.001762
-1.72333e-13
0.00198774
0.00186747
-1.34841e-13
0.00198782
-1.5055e-13
0.0168001
3.52817e-10
4.41558e-18
0.0168001
1.91831e-09
1.76208e-17
0.0168001
7.14198e-09
4.8092e-17
0.0168
1.8269e-08
7.93196e-17
0.0168
5.07484e-08
1.28569e-16
0.0168
1.15459e-07
1.1396e-16
0.0167998
3.11418e-07
-1.52933e-16
0.0167995
6.68109e-07
-5.38461e-16
0.0167984
1.97227e-06
-1.54742e-15
0.0167965
4.01871e-06
-2.74982e-15
0.0167892
1.35077e-05
-8.89919e-15
0.0167742
3.02677e-05
-1.70865e-14
0.0167058
0.000132113
-5.79566e-14
0.0165173
0.000370335
-1.40157e-13
0.015444
0.00214674
-3.41069e-13
0.0141287
0.00260419
1.27111e-13
0.0129031
0.00246703
-6.07405e-14
0.0116327
0.00256009
-1.38676e-13
0.0102858
0.00270412
-1.84369e-13
0.00883046
0.00289907
-1.98418e-13
0.00726301
0.0031159
-1.52179e-13
0.0055871
0.003337
-1.22589e-13
0.00380328
0.00354468
-1.56738e-13
0.00192535
0.00374523
-1.20928e-13
0.00391342
-1.36666e-13
0.0168001
5.13384e-10
4.35036e-18
0.0168001
2.76989e-09
1.74345e-17
0.0168001
1.03158e-08
4.75194e-17
0.0168
2.62461e-08
7.84937e-17
0.0168
7.32274e-08
1.27331e-16
0.0168
1.66081e-07
1.13297e-16
0.0167998
4.50572e-07
-1.50763e-16
0.0167995
9.63207e-07
-5.44319e-16
0.0167986
2.85371e-06
-1.56775e-15
0.0167969
5.81531e-06
-2.81478e-15
0.0167901
1.9892e-05
-9.22203e-15
0.0167756
4.50038e-05
-1.78974e-14
0.0167109
0.000195767
-6.12008e-14
0.0165326
0.000547712
-1.48963e-13
0.0155462
0.00312767
-3.72702e-13
0.014207
0.00394497
1.27863e-13
0.0129788
0.00369588
-5.79233e-14
0.0117192
0.00381973
-1.40687e-13
0.0103838
0.00403995
-1.86001e-13
0.00892863
0.00435451
-1.64663e-13
0.00735543
0.00468929
-1.28993e-13
0.00566255
0.0050309
-9.21817e-14
0.00385105
0.005355
-1.26207e-13
0.00194763
0.00564853
-8.93089e-14
0.00586103
-1.06235e-13
0.0168001
5.74135e-10
4.23262e-18
0.0168001
3.1908e-09
1.71262e-17
0.0168001
1.183e-08
4.65944e-17
0.0168001
3.0268e-08
7.72562e-17
0.0168
8.37266e-08
1.25591e-16
0.0168
1.88081e-07
1.11755e-16
0.0167999
5.23772e-07
-1.50802e-16
0.0167999
1.00506e-06
-5.56039e-16
0.016799
3.71799e-06
-1.60739e-15
0.0167993
5.55005e-06
-2.90297e-15
0.0167901
2.87593e-05
-9.60881e-15
0.0167819
5.34041e-05
-1.84892e-14
0.0167184
0.000258198
-6.46175e-14
0.0165661
0.000699194
-1.58176e-13
0.0157464
0.00394175
-4.16697e-13
0.0143883
0.00530474
1.20448e-13
0.0131529
0.00493188
-5.5104e-14
0.0119001
0.00507257
-1.49201e-13
0.0105756
0.00536492
-1.70032e-13
0.00912745
0.00580285
-1.16738e-13
0.00755297
0.00626396
-9.27791e-14
0.00585339
0.00673146
-4.65673e-14
0.00400933
0.0071979
-7.91081e-14
0.00203127
0.00762655
-4.53333e-14
0.00789222
-6.59725e-14
0.0168001
7.6964e-10
3.33053e-18
0.0168001
4.19443e-09
1.40404e-17
0.0168001
1.55767e-08
3.83054e-17
0.0168
3.97806e-08
6.42381e-17
0.0168
1.10165e-07
1.10691e-16
0.0168
2.50289e-07
1.0951e-16
0.0167998
6.74292e-07
-9.45602e-17
0.0167994
1.41067e-06
-2.87396e-16
0.0167986
4.47292e-06
-1.6367e-15
0.0167969
7.35435e-06
-1.93438e-15
0.0167917
3.35601e-05
-1.09658e-14
0.0167815
6.39416e-05
-1.70607e-14
0.0167447
0.000293972
-6.95766e-14
0.016646
0.000797227
-1.65601e-13
0.016175
0.00440715
-4.63952e-13
0.0147948
0.00668645
9.96051e-14
0.0135007
0.0062267
-3.74783e-14
0.0122267
0.0063468
-1.54296e-13
0.0109122
0.00668002
-1.34474e-13
0.00946837
0.00724682
-8.51896e-14
0.00788859
0.00784394
-5.47639e-14
0.00615569
0.00846571