/*--------------------------------*- C++ -*----------------------------------*\
| =========                 |                                                 |
| \\      /  F ield         | OpenFOAM: The Open Source CFD Toolbox           |
|  \\    /   O peration     | Version:  4.1                                   |
|   \\  /    A nd           | Web:      www.OpenFOAM.org                      |
|    \\/     M anipulation  |                                                 |
\*---------------------------------------------------------------------------*/
FoamFile
{
    version     2.0;
    format      ascii;
    class       volScalarField;
    location    "4";
    object      T;
}
// * * * * * * * * * * * * * * * * * * * * * * * * * * * * * * * * * * * * * //

dimensions      [0 0 0 1 0 0 0];

internalField   nonuniform List<scalar> 
52500
(
0.999995
1.00002
1.00004
1.00015
1.00028
1.00089
1.00166
1.0049
1.01034
1.02656
1.07213
1.15875
1.50023
2.27184
2.64228
2.73162
2.72574
2.72112
2.73639
2.74729
2.76169
2.7686
2.77628
2.78134
2.78452
0.999995
1.00002
1.00004
1.00015
1.00027
1.00088
1.00164
1.00484
1.01019
1.02623
1.07104
1.15671
1.49196
2.25783
2.63839
2.73144
2.72539
2.72045
2.73558
2.74639
2.76051
2.7672
2.77482
2.7791
2.78114
0.999995
1.00002
1.00004
1.00014
1.00027
1.00086
1.00159
1.00472
1.00988
1.02557
1.06873
1.15257
1.47388
2.22653
2.62815
2.72979
2.72362
2.71805
2.73327
2.74378
2.75811
2.76395
2.77153
2.77666
2.77779
0.999995
1.00002
1.00004
1.00014
1.00025
1.00082
1.00153
1.00454
1.00943
1.02454
1.06528
1.1463
1.44668
2.17747
2.61179
2.72662
2.72005
2.71321
2.72822
2.73909
2.75366
2.76023
2.76624
2.76976
2.77315
0.999995
1.00001
1.00003
1.00013
1.00024
1.00079
1.00145
1.00445
1.00879
1.02385
1.05957
1.13798
1.40803
2.10631
2.58834
2.72139
2.7152
2.70535
2.72124
2.72908
2.74437
2.75123
2.7597
2.76381
2.76337
0.999995
1.00001
1.00003
1.00012
1.00023
1.00074
1.00135
1.00421
1.00807
1.02276
1.05311
1.12796
1.36384
2.01654
2.55651
2.71337
2.70695
2.69654
2.71333
2.72263
2.73342
2.74079
2.7463
2.74939
2.75354
0.999995
1.00001
1.00003
1.00011
1.00021
1.00068
1.00123
1.00385
1.00734
1.02097
1.04714
1.11751
1.31848
1.91642
2.51095
2.69691
2.68794
2.67787
2.6953
2.70835
2.72216
2.726
2.73406
2.73683
2.73369
0.999995
1.00001
1.00002
1.0001
1.00019
1.00061
1.00112
1.0035
1.00665
1.01914
1.04251
1.10695
1.28632
1.8277
2.49223
2.6887
2.67953
2.66615
2.68102
2.68912
2.7038
2.70799
2.70889
2.70895
2.70938
0.999995
1.00001
1.00002
1.00009
1.00017
1.00055
1.001
1.00313
1.00594
1.01699
1.03847
1.09364
1.26208
1.70905
2.45653
2.67532
2.65932
2.66039
2.6673
2.67204
2.68237
2.68614
2.6876
2.6812
2.65638
0.999994
1.00001
1.00002
1.00007
1.00014
1.00044
1.00085
1.0024
1.0053
1.01313
1.03583
1.07868
1.243
1.60096
2.36608
2.6436
2.65458
2.65237
2.65269
2.65786
2.65744
2.65471
2.64499
2.62422
2.57532
1
1.00002
1.00005
1.00016
1.00028
1.0009
1.00167
1.00491
1.01035
1.02657
1.07215
1.15879
1.50027
2.27196
2.64235
2.73169
2.7258
2.72119
2.73646
2.74737
2.76176
2.76868
2.77636
2.78142
2.7846
1
1.00002
1.00005
1.00016
1.00028
1.00089
1.00165
1.00485
1.0102
1.02624
1.07105
1.15675
1.492
2.25796
2.63846
2.7315
2.72546
2.72052
2.73565
2.74646
2.76059
2.76727
2.7749
2.77918
2.78122
1
1.00002
1.00005
1.00015
1.00027
1.00087
1.0016
1.00474
1.00989
1.02558
1.06874
1.15261
1.47391
2.22666
2.62822
2.72986
2.72369
2.71812
2.73334
2.74385
2.75818
2.76403
2.77161
2.77674
2.77787
1
1.00002
1.00004
1.00015
1.00026
1.00083
1.00153
1.00455
1.00944
1.02456
1.0653
1.14634
1.44672
2.1776
2.61186
2.72669
2.72012
2.71328
2.72829
2.73916
2.75373
2.76031
2.76631
2.76984
2.77323
1
1.00002
1.00004
1.00014
1.00025
1.0008
1.00145
1.00446
1.0088
1.02387
1.05957
1.13801
1.40802
2.1064
2.5884
2.72146
2.71527
2.70541
2.72131
2.72915
2.74444
2.7513
2.75977
2.76388
2.76345
1
1.00002
1.00004
1.00013
1.00023
1.00075
1.00136
1.00422
1.00808
1.02277
1.05312
1.12799
1.36386
2.01663
2.55657
2.71344
2.70702
2.69661
2.7134
2.7227
2.73349
2.74086
2.74638
2.74947
2.75361
1
1.00002
1.00004
1.00012
1.00022
1.00069
1.00124
1.00386
1.00735
1.02098
1.04715
1.11753
1.3185
1.91649
2.51104
2.69697
2.688
2.67793
2.69536
2.70842
2.72223
2.72606
2.73413
2.7369
2.73376
1
1.00002
1.00003
1.00011
1.0002
1.00062
1.00113
1.00351
1.00666
1.01915
1.04252
1.10698
1.28633
1.82778
2.49228
2.68876
2.67959
2.66621
2.68109
2.68918
2.70387
2.70806
2.70896
2.70901
2.70945
1
1.00002
1.00003
1.0001
1.00017
1.00056
1.00101
1.00314
1.00595
1.01701
1.03848
1.09367
1.26209
1.70915
2.45658
2.67539
2.65938
2.66045
2.66736
2.6721
2.68243
2.68621
2.68766
2.68126
2.65644
1
1.00001
1.00002
1.00008
1.00015
1.00045
1.00086
1.00241
1.00531
1.01314
1.03584
1.07871
1.24301
1.60102
2.36615
2.64366
2.65463
2.65243
2.65275
2.65792
2.6575
2.65477
2.64505
2.62428
2.57537
1
1.00002
1.00005
1.00016
1.00028
1.0009
1.00167
1.00491
1.01035
1.02657
1.07215
1.1588
1.50027
2.27196
2.64235
2.73169
2.7258
2.72119
2.73646
2.74737
2.76176
2.76868
2.77636
2.78142
2.7846
1
1.00002
1.00005
1.00016
1.00028
1.00089
1.00165
1.00485
1.0102
1.02624
1.07105
1.15675
1.492
2.25796
2.63846
2.7315
2.72546
2.72052
2.73565
2.74646
2.76059
2.76727
2.7749
2.77918
2.78122
1
1.00002
1.00005
1.00015
1.00027
1.00087
1.0016
1.00474
1.00989
1.02558
1.06874
1.15261
1.47392
2.22666
2.62822
2.72986
2.72369
2.71812
2.73334
2.74385
2.75818
2.76403
2.77161
2.77674
2.77787
1
1.00002
1.00004
1.00015
1.00026
1.00083
1.00153
1.00455
1.00944
1.02456
1.0653
1.14634
1.44672
2.1776
2.61186
2.72669
2.72012
2.71328
2.72829
2.73916
2.75373
2.76031
2.76631
2.76984
2.77323
1
1.00002
1.00004
1.00014
1.00025
1.0008
1.00145
1.00446
1.0088
1.02387
1.05957
1.13801
1.40803
2.10641
2.5884
2.72146
2.71527
2.70541
2.72131
2.72915
2.74444
2.7513
2.75977
2.76388
2.76345
1
1.00002
1.00004
1.00013
1.00023
1.00075
1.00136
1.00422
1.00808
1.02277
1.05312
1.12799
1.36386
2.01664
2.55657
2.71344
2.70702
2.69661
2.7134
2.7227
2.73349
2.74086
2.74638
2.74947
2.75361
1
1.00002
1.00004
1.00012
1.00022
1.00069
1.00124
1.00386
1.00735
1.02098
1.04715
1.11753
1.3185
1.91649
2.51104
2.69697
2.688
2.67793
2.69536
2.70842
2.72223
2.72606
2.73413
2.7369
2.73376
1
1.00002
1.00003
1.00011
1.0002
1.00062
1.00113
1.00351
1.00666
1.01915
1.04252
1.10698
1.28633
1.82778
2.49228
2.68876
2.67959
2.66621
2.68109
2.68918
2.70386
2.70806
2.70896
2.70901
2.70945
1
1.00002
1.00003
1.0001
1.00017
1.00056
1.00101
1.00314
1.00595
1.01701
1.03848
1.09367
1.26209
1.70916
2.45658
2.67539
2.65938
2.66045
2.66736
2.6721
2.68243
2.68621
2.68766
2.68126
2.65644
1
1.00001
1.00002
1.00008
1.00015
1.00045
1.00086
1.00241
1.00531
1.01315
1.03584
1.07871
1.24301
1.60103
2.36615
2.64366
2.65463
2.65243
2.65275
2.65792
2.6575
2.65477
2.64505
2.62428
2.57537
1
1.00002
1.00005
1.00016
1.00028
1.0009
1.00167
1.00491
1.01035
1.02657
1.07215
1.1588
1.50027
2.27196
2.64235
2.73169
2.7258
2.72119
2.73646
2.74737
2.76176
2.76868
2.77636
2.78142
2.7846
1
1.00002
1.00005
1.00016
1.00028
1.00089
1.00165
1.00485
1.0102
1.02624
1.07105
1.15675
1.492
2.25796
2.63846
2.7315
2.72546
2.72052
2.73565
2.74646
2.76059
2.76727
2.7749
2.77918
2.78122
1
1.00002
1.00005
1.00015
1.00027
1.00087
1.0016
1.00474
1.00989
1.02558
1.06874
1.15261
1.47392
2.22666
2.62822
2.72986
2.72369
2.71812
2.73334
2.74385
2.75818
2.76403
2.77161
2.77674
2.77787
1
1.00002
1.00004
1.00015
1.00026
1.00083
1.00153
1.00455
1.00944
1.02456
1.0653
1.14634
1.44672
2.1776
2.61186
2.72669
2.72012
2.71328
2.72829
2.73916
2.75373
2.76031
2.76631
2.76984
2.77323
1
1.00002
1.00004
1.00014
1.00025
1.0008
1.00145
1.00446
1.0088
1.02387
1.05957
1.13801
1.40803
2.10641
2.5884
2.72146
2.71527
2.70541
2.72131
2.72915
2.74444
2.7513
2.75977
2.76388
2.76345
1
1.00002
1.00004
1.00013
1.00023
1.00075
1.00136
1.00422
1.00808
1.02277
1.05312
1.12799
1.36386
2.01664
2.55657
2.71344
2.70702
2.69661
2.7134
2.7227
2.73349
2.74086
2.74638
2.74947
2.75361
1
1.00002
1.00004
1.00012
1.00022
1.00069
1.00124
1.00386
1.00735
1.02098
1.04715
1.11753
1.3185
1.91649
2.51104
2.69697
2.688
2.67793
2.69536
2.70842
2.72223
2.72606
2.73413
2.7369
2.73376
1
1.00002
1.00003
1.00011
1.0002
1.00062
1.00113
1.00351
1.00666
1.01915
1.04252
1.10698
1.28633
1.82778
2.49228
2.68876
2.67959
2.66621
2.68109
2.68918
2.70387
2.70806
2.70896
2.70901
2.70945
1
1.00002
1.00003
1.0001
1.00017
1.00056
1.00101
1.00314
1.00595
1.01701
1.03848
1.09367
1.26209
1.70916
2.45658
2.67539
2.65938
2.66045
2.66736
2.6721
2.68243
2.68621
2.68766
2.68126
2.65644
1
1.00001
1.00002
1.00008
1.00015
1.00045
1.00086
1.00241
1.00531
1.01315
1.03584
1.07871
1.24301
1.60103
2.36615
2.64366
2.65463
2.65243
2.65275
2.65792
2.6575
2.65477
2.64505
2.62428
2.57537
1
1.00002
1.00005
1.00016
1.00028
1.0009
1.00167
1.00491
1.01035
1.02657
1.07215
1.1588
1.50027
2.27196
2.64235
2.73169
2.7258
2.72119
2.73646
2.74737
2.76176
2.76868
2.77636
2.78142
2.7846
1
1.00002
1.00005
1.00016
1.00028
1.00089
1.00165
1.00485
1.0102
1.02624
1.07105
1.15675
1.492
2.25796
2.63846
2.7315
2.72546
2.72052
2.73565
2.74646
2.76059
2.76727
2.7749
2.77918
2.78122
1
1.00002
1.00005
1.00015
1.00027
1.00087
1.0016
1.00474
1.00989
1.02558
1.06874
1.15261
1.47392
2.22666
2.62822
2.72986
2.72369
2.71812
2.73334
2.74385
2.75818
2.76403
2.77161
2.77674
2.77787
1
1.00002
1.00004
1.00015
1.00026
1.00083
1.00153
1.00455
1.00944
1.02456
1.0653
1.14634
1.44672
2.1776
2.61186
2.72669
2.72012
2.71328
2.72829
2.73916
2.75373
2.76031
2.76631
2.76984
2.77323
1
1.00002
1.00004
1.00014
1.00025
1.0008
1.00145
1.00446
1.0088
1.02387
1.05957
1.13801
1.40803
2.10641
2.5884
2.72146
2.71527
2.70541
2.72131
2.72915
2.74444
2.7513
2.75977
2.76388
2.76345
1
1.00002
1.00004
1.00013
1.00023
1.00075
1.00136
1.00422
1.00808
1.02277
1.05312
1.12799
1.36386
2.01664
2.55657
2.71344
2.70702
2.69661
2.7134
2.7227
2.73349
2.74086
2.74638
2.74947
2.75361
1
1.00002
1.00004
1.00012
1.00022
1.00069
1.00124
1.00386
1.00735
1.02098
1.04715
1.11753
1.3185
1.91649
2.51104
2.69697
2.688
2.67793
2.69536
2.70842
2.72223
2.72606
2.73413
2.7369
2.73376
1
1.00002
1.00003
1.00011
1.0002
1.00062
1.00113
1.00351
1.00666
1.01915
1.04252
1.10698
1.28633
1.82778
2.49228
2.68876
2.67959
2.66621
2.68109
2.68918
2.70387
2.70806
2.70896
2.70901
2.70945
1
1.00002
1.00003
1.0001
1.00017
1.00056
1.00101
1.00314
1.00595
1.01701
1.03848
1.09367
1.26209
1.70916
2.45658
2.67539
2.65938
2.66045
2.66736
2.6721
2.68243
2.68621
2.68766
2.68126
2.65644
1
1.00001
1.00002
1.00008
1.00015
1.00045
1.00086
1.00241
1.00531
1.01315
1.03584
1.07871
1.24301
1.60103
2.36615
2.64366
2.65463
2.65243
2.65275
2.65792
2.6575
2.65477
2.64505
2.62428
2.57537
1
1.00002
1.00005
1.00016
1.00028
1.0009
1.00167
1.00491
1.01035
1.02657
1.07215
1.1588
1.50027
2.27196
2.64235
2.73169
2.7258
2.72119
2.73646
2.74737
2.76176
2.76868
2.77636
2.78142
2.7846
1
1.00002
1.00005
1.00016
1.00028
1.00089
1.00165
1.00485
1.0102
1.02624
1.07105
1.15675
1.492
2.25796
2.63846
2.7315
2.72546
2.72052
2.73565
2.74646
2.76059
2.76727
2.7749
2.77918
2.78122
1
1.00002
1.00005
1.00015
1.00027
1.00087
1.0016
1.00474
1.00989
1.02558
1.06874
1.15261
1.47392
2.22666
2.62822
2.72986
2.72369
2.71812
2.73334
2.74385
2.75818
2.76403
2.77161
2.77674
2.77787
1
1.00002
1.00004
1.00015
1.00026
1.00083
1.00153
1.00455
1.00944
1.02456
1.0653
1.14634
1.44672
2.1776
2.61186
2.72669
2.72012
2.71328
2.72829
2.73916
2.75373
2.76031
2.76631
2.76984
2.77323
1
1.00002
1.00004
1.00014
1.00025
1.0008
1.00145
1.00446
1.0088
1.02387
1.05957
1.13801
1.40803
2.10641
2.5884
2.72146
2.71527
2.70541
2.72131
2.72915
2.74444
2.7513
2.75977
2.76388
2.76345
1
1.00002
1.00004
1.00013
1.00023
1.00075
1.00136
1.00422
1.00808
1.02277
1.05312
1.12799
1.36386
2.01664
2.55657
2.71344
2.70702
2.69661
2.7134
2.7227
2.73349
2.74086
2.74638
2.74947
2.75361
1
1.00002
1.00004
1.00012
1.00022
1.00069
1.00124
1.00386
1.00735
1.02098
1.04715
1.11753
1.3185
1.91649
2.51104
2.69697
2.688
2.67793
2.69536
2.70842
2.72223
2.72606
2.73413
2.7369
2.73376
1
1.00002
1.00003
1.00011
1.0002
1.00062
1.00113
1.00351
1.00666
1.01915
1.04252
1.10698
1.28633
1.82778
2.49228
2.68876
2.67959
2.66621
2.68109
2.68918
2.70387
2.70806
2.70896
2.70901
2.70945
1
1.00002
1.00003
1.0001
1.00017
1.00056
1.00101
1.00314
1.00595
1.01701
1.03848
1.09367
1.26209
1.70916
2.45658
2.67539
2.65938
2.66045
2.66736
2.6721
2.68243
2.68621
2.68766
2.68126
2.65644
1
1.00001
1.00002
1.00008
1.00015
1.00045
1.00086
1.00241
1.00531
1.01315
1.03584
1.07871
1.24301
1.60103
2.36615
2.64366
2.65463
2.65243
2.65275
2.65792
2.6575
2.65477
2.64505
2.62428
2.57537
1
1.00002
1.00005
1.00016
1.00028
1.0009
1.00167
1.00491
1.01035
1.02657
1.07215
1.1588
1.50027
2.27196
2.64235
2.73169
2.7258
2.72119
2.73646
2.74737
2.76176
2.76868
2.77636
2.78142
2.7846
1
1.00002
1.00005
1.00016
1.00028
1.00089
1.00165
1.00485
1.0102
1.02624
1.07105
1.15675
1.492
2.25796
2.63846
2.7315
2.72546
2.72052
2.73565
2.74646
2.76059
2.76727
2.7749
2.77918
2.78122
1
1.00002
1.00005
1.00015
1.00027
1.00087
1.0016
1.00474
1.00989
1.02558
1.06874
1.15261
1.47392
2.22666
2.62822
2.72986
2.72369
2.71812
2.73334
2.74385
2.75818
2.76403
2.77161
2.77674
2.77787
1
1.00002
1.00004
1.00015
1.00026
1.00083
1.00153
1.00455
1.00944
1.02456
1.0653
1.14634
1.44672
2.1776
2.61186
2.72669
2.72012
2.71328
2.72829
2.73916
2.75373
2.76031
2.76631
2.76984
2.77323
1
1.00002
1.00004
1.00014
1.00025
1.0008
1.00145
1.00446
1.0088
1.02387
1.05957
1.13801
1.40803
2.10641
2.5884
2.72146
2.71527
2.70541
2.72131
2.72915
2.74444
2.7513
2.75977
2.76388
2.76345
1
1.00002
1.00004
1.00013
1.00023
1.00075
1.00136
1.00422
1.00808
1.02277
1.05312
1.12799
1.36386
2.01664
2.55657
2.71344
2.70702
2.69661
2.7134
2.7227
2.73349
2.74086
2.74638
2.74947
2.75361
1
1.00002
1.00004
1.00012
1.00022
1.00069
1.00124
1.00386
1.00735
1.02098
1.04715
1.11753
1.3185
1.91649
2.51104
2.69697
2.688
2.67793
2.69536
2.70842
2.72223
2.72606
2.73413
2.7369
2.73376
1
1.00002
1.00003
1.00011
1.0002
1.00062
1.00113
1.00351
1.00666
1.01915
1.04252
1.10698
1.28633
1.82778
2.49228
2.68876
2.67959
2.66621
2.68109
2.68918
2.70387
2.70806
2.70896
2.70901
2.70945
1
1.00002
1.00003
1.0001
1.00017
1.00056
1.00101
1.00314
1.00595
1.01701
1.03848
1.09367
1.26209
1.70916
2.45658
2.67539
2.65938
2.66045
2.66736
2.6721
2.68243
2.68621
2.68766
2.68126
2.65644
1
1.00001
1.00002
1.00008
1.00015
1.00045
1.00086
1.00241
1.00531
1.01315
1.03584
1.07871
1.24301
1.60103
2.36615
2.64366
2.65463
2.65243
2.65275
2.65792
2.6575
2.65477
2.64505
2.62428
2.57537
1
1.00002
1.00005
1.00016
1.00028
1.0009
1.00167
1.00491
1.01035
1.02657
1.07215
1.1588
1.50027
2.27196
2.64235
2.73169
2.7258
2.72119
2.73646
2.74737
2.76176
2.76868
2.77636
2.78142
2.7846
1
1.00002
1.00005
1.00016
1.00028
1.00089
1.00165
1.00485
1.0102
1.02624
1.07105
1.15675
1.492
2.25796
2.63846
2.7315
2.72546
2.72052
2.73565
2.74646
2.76059
2.76727
2.7749
2.77918
2.78122
1
1.00002
1.00005
1.00015
1.00027
1.00087
1.0016
1.00474
1.00989
1.02558
1.06874
1.15261
1.47392
2.22666
2.62822
2.72986
2.72369
2.71812
2.73334
2.74385
2.75818
2.76403
2.77161
2.77674
2.77787
1
1.00002
1.00004
1.00015
1.00026
1.00083
1.00153
1.00455
1.00944
1.02456
1.0653
1.14634
1.44672
2.1776
2.61186
2.72669
2.72012
2.71328
2.72829
2.73916
2.75373
2.76031
2.76631
2.76984
2.77323
1
1.00002
1.00004
1.00014
1.00025
1.0008
1.00145
1.00446
1.0088
1.02387
1.05957
1.13801
1.40803
2.10641
2.5884
2.72146
2.71527
2.70541
2.72131
2.72915
2.74444
2.7513
2.75977
2.76388
2.76345
1
1.00002
1.00004
1.00013
1.00023
1.00075
1.00136
1.00422
1.00808
1.02277
1.05312
1.12799
1.36386
2.01664
2.55657
2.71344
2.70702
2.69661
2.7134
2.7227
2.73349
2.74086
2.74638
2.74947
2.75361
1
1.00002
1.00004
1.00012
1.00022
1.00069
1.00124
1.00386
1.00735
1.02098
1.04715
1.11753
1.3185
1.91649
2.51104
2.69697
2.688
2.67793
2.69536
2.70842
2.72223
2.72606
2.73413
2.7369
2.73376
1
1.00002
1.00003
1.00011
1.0002
1.00062
1.00113
1.00351
1.00666
1.01915
1.04252
1.10698
1.28633
1.82778
2.49228
2.68876
2.67959
2.66621
2.68109
2.68918
2.70386
2.70806
2.70896
2.70901
2.70945
1
1.00002
1.00003
1.0001
1.00017
1.00056
1.00101
1.00314
1.00595
1.01701
1.03848
1.09367
1.26209
1.70916
2.45658
2.67539
2.65938
2.66045
2.66736
2.6721
2.68243
2.68621
2.68766
2.68126
2.65644
1
1.00001
1.00002
1.00008
1.00015
1.00045
1.00086
1.00241
1.00531
1.01315
1.03584
1.07871
1.24301
1.60103
2.36615
2.64366
2.65463
2.65243
2.65275
2.65792
2.6575
2.65477
2.64505
2.62428
2.57537
1
1.00002
1.00005
1.00016
1.00028
1.0009
1.00167
1.00491
1.01035
1.02657
1.07215
1.15879
1.50027
2.27196
2.64235
2.73169
2.7258
2.72119
2.73646
2.74737
2.76176
2.76868
2.77636
2.78142
2.7846
1
1.00002
1.00005
1.00016
1.00028
1.00089
1.00165
1.00485
1.0102
1.02624
1.07105
1.15675
1.492
2.25796
2.63846
2.7315
2.72546
2.72052
2.73565
2.74646
2.76059
2.76727
2.7749
2.77918
2.78122
1
1.00002
1.00005
1.00015
1.00027
1.00087
1.0016
1.00474
1.00989
1.02558
1.06874
1.15261
1.47391
2.22666
2.62822
2.72986
2.72369
2.71812
2.73334
2.74385
2.75818
2.76403
2.77161
2.77674
2.77787
1
1.00002
1.00004
1.00015
1.00026
1.00083
1.00153
1.00455
1.00944
1.02456
1.0653
1.14634
1.44672
2.1776
2.61186
2.72669
2.72012
2.71328
2.72829
2.73916
2.75373
2.76031
2.76631
2.76984
2.77323
1
1.00002
1.00004
1.00014
1.00025
1.0008
1.00145
1.00446
1.0088
1.02387
1.05957
1.13801
1.40802
2.1064
2.5884
2.72146
2.71527
2.70541
2.72131
2.72915
2.74444
2.7513
2.75977
2.76388
2.76345
1
1.00002
1.00004
1.00013
1.00023
1.00075
1.00136
1.00422
1.00808
1.02277
1.05312
1.12799
1.36386
2.01663
2.55657
2.71344
2.70702
2.69661
2.7134
2.7227
2.73349
2.74086
2.74638
2.74947
2.75361
1
1.00002
1.00004
1.00012
1.00022
1.00069
1.00124
1.00386
1.00735
1.02098
1.04715
1.11753
1.3185
1.91649
2.51104
2.69697
2.688
2.67793
2.69536
2.70842
2.72223
2.72606
2.73413
2.7369
2.73376
1
1.00002
1.00003
1.00011
1.0002
1.00062
1.00113
1.00351
1.00666
1.01915
1.04252
1.10698
1.28633
1.82778
2.49228
2.68876
2.67959
2.66621
2.68109
2.68918
2.70387
2.70806
2.70896
2.70901
2.70945
1
1.00002
1.00003
1.0001
1.00017
1.00056
1.00101
1.00314
1.00595
1.01701
1.03848
1.09367
1.26209
1.70915
2.45658
2.67539
2.65938
2.66045
2.66736
2.6721
2.68243
2.68621
2.68766
2.68126
2.65644
1
1.00001
1.00002
1.00008
1.00015
1.00045
1.00086
1.00241
1.00531
1.01314
1.03584
1.07871
1.24301
1.60102
2.36615
2.64366
2.65463
2.65243
2.65275
2.65792
2.6575
2.65477
2.64505
2.62428
2.57537
0.999995
1.00002
1.00004
1.00015
1.00028
1.00089
1.00166
1.0049
1.01034
1.02656
1.07213
1.15875
1.50024
2.27184
2.64228
2.73162
2.72574
2.72112
2.73639
2.74729
2.76169
2.7686
2.77628
2.78134
2.78452
0.999995
1.00002
1.00004
1.00015
1.00027
1.00088
1.00164
1.00484
1.01019
1.02623
1.07104
1.15671
1.49196
2.25783
2.63839
2.73144
2.72539
2.72045
2.73558
2.74639
2.76051
2.7672
2.77482
2.7791
2.78114
0.999995
1.00002
1.00004
1.00014
1.00027
1.00086
1.00159
1.00472
1.00988
1.02557
1.06873
1.15257
1.47388
2.22653
2.62815
2.72979
2.72362
2.71805
2.73327
2.74378
2.75811
2.76395
2.77153
2.77666
2.77779
0.999995
1.00002
1.00004
1.00014
1.00025
1.00082
1.00153
1.00454
1.00943
1.02454
1.06528
1.1463
1.44668
2.17747
2.61179
2.72662
2.72005
2.71321
2.72822
2.73909
2.75366
2.76023
2.76624
2.76976
2.77315
0.999995
1.00001
1.00003
1.00013
1.00024
1.00079
1.00145
1.00445
1.00879
1.02385
1.05957
1.13798
1.40803
2.10631
2.58834
2.72139
2.7152
2.70535
2.72124
2.72908
2.74437
2.75123
2.7597
2.76381
2.76337
0.999995
1.00001
1.00003
1.00012
1.00023
1.00074
1.00135
1.00421
1.00807
1.02276
1.05311
1.12796
1.36384
2.01654
2.55651
2.71337
2.70695
2.69654
2.71333
2.72263
2.73342
2.74079
2.7463
2.74939
2.75354
0.999995
1.00001
1.00003
1.00011
1.00021
1.00068
1.00123
1.00385
1.00734
1.02097
1.04714
1.11751
1.31848
1.91642
2.51095
2.69691
2.68794
2.67787
2.6953
2.70835
2.72216
2.726
2.73406
2.73683
2.73369
0.999995
1.00001
1.00002
1.0001
1.00019
1.00061
1.00112
1.0035
1.00665
1.01914
1.04251
1.10695
1.28632
1.8277
2.49223
2.6887
2.67953
2.66615
2.68102
2.68912
2.7038
2.70799
2.70889
2.70895
2.70938
0.999995
1.00001
1.00002
1.00009
1.00017
1.00055
1.001
1.00313
1.00594
1.01699
1.03847
1.09364
1.26208
1.70905
2.45653
2.67532
2.65932
2.66039
2.6673
2.67204
2.68237
2.68614
2.6876
2.6812
2.65638
0.999994
1.00001
1.00002
1.00007
1.00014
1.00044
1.00085
1.0024
1.0053
1.01313
1.03583
1.07868
1.243
1.60096
2.36608
2.6436
2.65458
2.65237
2.65269
2.65786
2.65744
2.65471
2.64499
2.62422
2.57532
0.999996
1
1.00002
1.00005
1.00017
1.00031
1.00098
1.00188
1.00533
1.01179
1.02947
1.08168
1.1791
1.55092
2.33905
2.58315
2.63971
2.63478
2.63395
2.63816
2.63709
2.62875
2.60614
2.55242
2.35846
0.999996
0.999999
1.00002
1.00004
1.00015
1.00027
1.00086
1.0016
1.00473
1.00992
1.02554
1.06871
1.15225
1.471
2.2111
2.53814
2.63308
2.6248
2.61258
2.60982
2.60427
2.58796
2.55265
2.48814
2.29159
0.999995
0.999999
1.00001
1.00003
1.00012
1.00023
1.00075
1.00137
1.00428
1.00822
1.02292
1.05454
1.12925
1.37191
2.01763
2.46133
2.61763
2.6107
2.60018
2.58996
2.58061
2.56045
2.51378
2.44858
2.29013
0.999995
0.999998
1.00001
1.00003
1.0001
1.00019
1.00062
1.00113
1.00353
1.00668
1.01931
1.04197
1.10809
1.27692
1.81838
2.35785
2.57968
2.576
2.57212
2.5592
2.54354
2.51869
2.47668
2.42321
2.30236
0.999995
0.999997
1.00001
1.00002
1.00008
1.00015
1.00049
1.00091
1.0028
1.00543
1.01511
1.03488
1.08408
1.23255
1.62915
2.28625
2.54394
2.55482
2.55311
2.54487
2.52444
2.49669
2.43563
2.39103
2.30175
0.999994
0.999997
1
1.00002
1.00004
1.00016
1.00029
1.00091
1.00176
1.00488
1.01102
1.02685
1.0755
1.16185
1.51252
2.22481
2.46134
2.52053
2.51325
2.51024
2.49969
2.47944
2.42881
2.36688
2.29466
0.999994
0.999996
0.999999
1.00002
1.00003
1.00013
1.00024
1.00077
1.00141
1.00434
1.00849
1.0231
1.05678
1.13158
1.3831
2.02347
2.39799
2.50845
2.5005
2.48904
2.46445
2.44353
2.41212
2.3578
2.29128
0.999993
0.999995
0.999997
1.00001
1.00003
1.0001
1.00018
1.00059
1.00109
1.00335
1.00643
1.01829
1.04027
1.10302
1.26188
1.7801
2.25102
2.46775
2.47247
2.46708
2.45152
2.42055
2.38678
2.33895
2.281
0.999993
0.999993
0.999997
1
1.00002
1.00005
1.00018
1.00033
1.00104
1.00197
1.00567
1.01205
1.03075
1.08204
1.18233
1.5334
2.21055
2.41318
2.43863
2.42953
2.4213
2.40143
2.37369
2.33187
2.27798
0.999992
0.999993
0.999996
0.999999
1.00002
1.00004
1.00013
1.00025
1.00078
1.00147
1.00427
1.00902
1.02303
1.06125
1.13651
1.40663
2.04957
2.34651
2.4196
2.41235
2.39372
2.36928
2.34237
2.31349
2.27016
0.999992
0.999992
0.999994
0.999999
1
1.00003
1.00007
1.00023
1.00043
1.00128
1.00261
1.00683
1.01671
1.03894
1.11105
1.24771
1.70605
2.19738
2.38843
2.39114
2.38096
2.35879
2.32757
2.29532
2.26135
0.999992
0.999992
0.999993
0.999997
1
1.00002
1.00005
1.00017
1.00031
1.00099
1.00185
1.00542
1.01127
1.029
1.07638
1.16926
1.49265
2.11288
2.32647
2.35804
2.35177
2.33619
2.30885
2.2758
2.24167
0.999991
0.999992
0.999993
0.999994
1
1.00001
1.00004
1.00009
1.00028
1.00053
1.00151
1.00325
1.00813
1.02121
1.04777
1.13989
1.31236
1.86048
2.22872
2.33509
2.33332
2.32269
2.30033
2.26785
2.23394
0.999991
0.999991
0.999992
0.999993
0.999998
1
1.00003
1.00006
1.00021
1.00038
1.0012
1.00221
1.00665
1.01319
1.03509
1.0845
1.20829
1.52012
2.10827
2.27773
2.29499
2.29186
2.27909
2.2523
2.22087
0.999991
0.999991
0.999991
0.999993
0.999994
1
1.00001
1.00005
1.0001
1.00033
1.00062
1.00189
1.00367
1.01004
1.02292
1.05506
1.15064
1.35939
1.87783
2.20833
2.27619
2.27407
2.2613
2.24247
2.21034
0.999991
0.999991
0.999991
0.999992
0.999993
0.999998
1
1.00003
1.00007
1.00023
1.00042
1.0013
1.00243
1.007
1.01461
1.03705
1.09655
1.21857
1.57834
2.04225
2.23267
2.24396
2.23897
2.22345
2.19883
0.999991
0.999991
0.999991
0.999991
0.999993
0.999995
1
1.00001
1.00006
1.00011
1.00036
1.00068
1.00204
1.00394
1.01099
1.02413
1.05919
1.15165
1.39063
1.87457
2.16045
2.22018
2.21882
2.20578
2.1873
0.999991
0.999991
0.999991
0.999991
0.999992
0.999993
0.999999
1.00001
1.00004
1.00007
1.00024
1.00044
1.00136
1.00253
1.00729
1.01518
1.03845
1.09936
1.22673
1.59073
2.00607
2.17554
2.19209
2.18756
2.17273
0.999991
0.999991
0.999991
0.999991
0.999991
0.999993
0.999995
1
1.00001
1.00006
1.00012
1.00037
1.00069
1.00205
1.00402
1.01111
1.02401
1.0614
1.1457
1.41076
1.82562
2.08938
2.15617
2.16156
2.15569
0.999991
0.999991
0.999991
0.999991
0.999991
0.999992
0.999994
0.999997
1.00001
1.00002
1.00009
1.00018
1.00056
1.00105
1.00309
1.00604
1.01645
1.03669
1.08964
1.22554
1.61294
1.95784
2.11023
2.12976
2.12829
0.999991
0.999991
0.999991
0.999991
0.999991
0.999991
0.999993
0.999995
1
1.00001
1.00006
1.00011
1.00036
1.00066
1.00199
1.00375
1.0107
1.02219
1.05698
1.13524
1.36092
1.77146
2.03536
2.10068
2.10703
0.999991
0.999991
0.999991
0.999991
0.999991
0.999991
0.999992
0.999994
0.999996
1.00001
1.00002
1.00008
1.00016
1.00051
1.00095
1.00279
1.00545
1.01484
1.03228
1.08089
1.19341
1.53611
1.88514
2.05745
2.07406
0.999991
0.999991
0.999991
0.999991
0.999991
0.999991
0.999991
0.999993
0.999994
1
1.00001
1.00005
1.0001
1.00032
1.00058
1.00178
1.00332
1.00937
1.01994
1.04883
1.12318
1.29733
1.69432
1.98663
2.05579
0.999991
0.999991
0.999991
0.999991
0.999991
0.999991
0.999991
0.999992
0.999993
0.999997
1
1.00003
1.00006
1.00019
1.00035
1.00107
1.00196
1.00574
1.01122
1.02992
1.0673
1.16614
1.39809
1.82947
2.00257
0.999991
0.999991
0.999991
0.999991
0.999991
0.999991
0.999991
0.999991
0.999992
0.999995
0.999998
1.00001
1.00003
1.00011
1.00021
1.00064
1.00118
1.00352
1.00672
1.0184
1.04115
1.09691
1.25585
1.65609
1.89408
0.999991
0.999991
0.999991
0.999991
0.999991
0.999991
0.999991
0.999991
0.999992
0.999992
0.999996
1
1.00002
1.00004
1.00015
1.00029
1.00086
1.00163
1.00461
1.00943
1.02402
1.0592
1.13192
1.35465
1.77103
0.999991
0.999991
0.999991
0.999991
0.999991
0.999991
0.999991
0.999991
0.999991
0.999992
0.999993
0.999998
1
1.00003
1.00006
1.00021
1.00039
1.00115
1.00222
1.00604
1.01297
1.03153
1.08091
1.17612
1.46694
0.999991
0.999991
0.999991
0.999991
0.999991
0.999991
0.999991
0.999991
0.999991
0.999991
0.999993
0.999994
1
1.00001
1.00005
1.00009
1.00029
1.00054
1.0016
1.00306
1.00859
1.01758
1.04567
1.10418
1.27521
0.999991
0.999991
0.999991
0.999991
0.999991
0.999991
0.999991
0.999991
0.999991
0.999991
0.999992
0.999993
0.999997
1
1.00002
1.00005
1.00016
1.0003
1.00093
1.00171
1.005
1.00967
1.02578
1.05765
1.13908
0.999991
0.999991
0.999991
0.999991
0.999991
0.999991
0.999991
0.999991
0.999991
0.999991
0.999991
0.999992
0.999993
0.999998
1
1.00003
1.00007
1.00021
1.0004
1.00118
1.00224
1.00621
1.01286
1.0321
1.07768
0.999991
0.999991
0.999991
0.999991
0.999991
0.999991
0.999991
0.999991
0.999991
0.999991
0.999991
0.999991
0.999993
0.999994
1
1.00001
1.00004
1.00009
1.00028
1.00054
1.00154
1.003
1.00813
1.01706
1.04324
0.999991
0.999991
0.999991
0.999991
0.999991
0.999991
0.999991
0.999991
0.999991
0.999991
0.999991
0.999991
0.999991
0.999993
0.999995
1
1.00001
1.00006
1.00012
1.00037
1.00069
1.00198
1.00387
1.01043
1.02176
0.999991
0.999991
0.999991
0.999991
0.999991
0.999991
0.999991
0.999991
0.999991
0.999991
0.999991
0.999991
0.999991
0.999992
0.999993
0.999998
1
1.00003
1.00006
1.0002
1.00037
1.0011
1.00207
1.00577
1.01147
0.999991
0.999991
0.999991
0.999991
0.999991
0.999991
0.999991
0.999991
0.999991
0.999991
0.999991
0.999991
0.999991
0.999991
0.999992
0.999994
1
1.00001
1.00004
1.00009
1.00026
1.0005
1.00144
1.00281
1.00748
0.999991
0.999991
0.999991
0.999991
0.999991
0.999991
0.999991
0.999991
0.999991
0.999991
0.999991
0.999991
0.999991
0.999991
0.999992
0.999993
0.999996
1.00001
1.00002
1.00007
1.00014
1.00042
1.00079
1.0023
1.00446
0.999991
0.999991
0.999991
0.999991
0.999991
0.999991
0.999991
0.999991
0.999991
0.999991
0.999991
0.999991
0.999991
0.999991
0.999992
0.999992
0.999995
0.999999
1.00002
1.00004
1.00013
1.00026
1.00079
1.00151
1.00434
0.999991
0.999991
0.999991
0.999991
0.999991
0.999991
0.999991
0.999991
0.999991
0.999991
0.999991
0.999991
0.999991
0.999991
0.999991
0.999992
0.999994
1
1.00001
1.00004
1.00009
1.00029
1.00056
1.00159
1.00348
0.999991
0.999991
0.999991
0.999991
0.999991
0.999991
0.999991
0.999991
0.999991
0.999991
0.999991
0.999991
0.999991
0.999991
0.999991
0.999992
0.999994
1
1.00001
1.00004
1.00008
1.00027
1.00054
1.0015
1.00344
0.999991
0.999991
0.999991
0.999991
0.999991
0.999991
0.999991
0.999991
0.999991
0.999991
0.999991
0.999991
0.999991
0.999991
0.999991
0.999992
0.999994
0.999998
1.00001
1.00003
1.00012
1.00022
1.0007
1.00138
1.00386
0.999991
0.999991
0.999991
0.999991
0.999991
0.999991
0.999991
0.999991
0.999991
0.999991
0.999991
0.999991
0.999991
0.999991
0.999991
0.999992
0.999995
0.999998
1.00001
1.00003
1.00012
1.00023
1.00075
1.0014
1.00419
1
1.00001
1.00003
1.00006
1.00017
1.00032
1.00099
1.00189
1.00534
1.0118
1.02949
1.08169
1.17914
1.55094
2.33914
2.58322
2.63976
2.63483
2.634
2.63822
2.63715
2.62881
2.60619
2.55246
2.35849
1
1.00001
1.00003
1.00005
1.00015
1.00028
1.00087
1.00161
1.00474
1.00993
1.02556
1.06873
1.15229
1.47103
2.2112
2.53821
2.63313
2.62485
2.61263
2.60987
2.60432
2.58801
2.5527
2.48819
2.29162
1
1.00001
1.00002
1.00004
1.00013
1.00024
1.00076
1.00138
1.00429
1.00823
1.02294
1.05454
1.12928
1.37191
2.01771
2.46139
2.61768
2.61075
2.60023
2.59001
2.58066
2.5605
2.51382
2.44862
2.29016
1
1.00001
1.00002
1.00003
1.00011
1.0002
1.00063
1.00114
1.00354
1.00669
1.01932
1.04199
1.10811
1.27694
1.81844
2.35791
2.57974
2.57605
2.57217
2.55924
2.54358
2.51873
2.47673
2.42325
2.30239
1
1
1.00001
1.00003
1.00009
1.00016
1.0005
1.00092
1.00281
1.00544
1.01512
1.03489
1.0841
1.23255
1.62922
2.2863
2.544
2.55487
2.55317
2.54492
2.52448
2.49672
2.43567
2.39106
2.30179
1
1
1.00001
1.00003
1.00005
1.00016
1.0003
1.00092
1.00177
1.00489
1.01103
1.02687
1.07551
1.16188
1.51254
2.22489
2.46139
2.52057
2.5133
2.51029
2.49973
2.47948
2.42884
2.36691
2.29469
1
1
1.00001
1.00002
1.00004
1.00014
1.00025
1.00078
1.00142
1.00435
1.0085
1.02312
1.05678
1.13162
1.3831
2.02353
2.39805
2.5085
2.50054
2.48909
2.46449
2.44358
2.41215
2.35783
2.29131
1
1
1.00001
1.00002
1.00003
1.00011
1.00019
1.0006
1.0011
1.00336
1.00644
1.01831
1.04028
1.10304
1.2619
1.78018
2.25108
2.4678
2.47251
2.46712
2.45157
2.4206
2.38681
2.33898
2.28103
1
1
1.00001
1.00001
1.00003
1.00006
1.00019
1.00034
1.00105
1.00198
1.00568
1.01206
1.03076
1.08206
1.18237
1.53343
2.21062
2.41322
2.43867
2.42957
2.42133
2.40147
2.37373
2.3319
2.27801
1
1
1
1.00001
1.00002