/*--------------------------------*- C++ -*----------------------------------*\
| =========                 |                                                 |
| \\      /  F ield         | OpenFOAM: The Open Source CFD Toolbox           |
|  \\    /   O peration     | Version:  4.1                                   |
|   \\  /    A nd           | Web:      www.OpenFOAM.org                      |
|    \\/     M anipulation  |                                                 |
\*---------------------------------------------------------------------------*/
FoamFile
{
    version     2.0;
    format      ascii;
    class       volVectorField;
    location    "4";
    object      U;
}
// * * * * * * * * * * * * * * * * * * * * * * * * * * * * * * * * * * * * * //

dimensions      [0 1 -1 0 0 0 0];

internalField   nonuniform List<vector> 
52500
(
(3 1.29607e-08 -0.00571425)
(2.99998 7.17602e-08 -0.00571438)
(2.99996 2.67993e-07 -0.00571458)
(2.9999 6.85339e-07 -0.0057152)
(2.99977 1.90188e-06 -0.00571634)
(2.99939 4.32876e-06 -0.00571978)
(2.99867 1.15755e-05 -0.00572657)
(2.99637 2.49546e-05 -0.00574454)
(2.99243 7.1665e-05 -0.00579034)
(2.97723 0.000146441 -0.00587796)
(2.95098 0.000462863 -0.00623075)
(2.84875 0.000985357 -0.00670226)
(2.57714 0.00361774 -0.00915806)
(1.91217 0.00864615 -0.0137054)
(0.858066 0.0247133 -0.0175462)
(0.455941 0.0233624 -0.0185087)
(0.541424 0.0238527 -0.0185212)
(0.566679 0.0258636 -0.0185524)
(0.514603 0.0278577 -0.0187428)
(0.42482 0.029844 -0.0189192)
(0.33814 0.0322045 -0.0191238)
(0.268131 0.0350485 -0.0192798)
(0.19863 0.0380835 -0.019447)
(0.118962 0.0416298 -0.0196028)
(0.0519798 0.0465217 -0.0197529)
(3 3.87498e-08 -0.00571425)
(2.99998 2.14107e-07 -0.00571438)
(2.99996 8.00715e-07 -0.00571458)
(2.9999 2.045e-06 -0.00571519)
(2.99977 5.68658e-06 -0.00571631)
(2.9994 1.29293e-05 -0.0057197)
(2.99869 3.47289e-05 -0.00572639)
(2.99642 7.45583e-05 -0.00574415)
(2.99253 0.000216824 -0.00578918)
(2.97755 0.00044018 -0.00587575)
(2.9517 0.00141421 -0.00622264)
(2.85114 0.00300256 -0.00668813)
(2.58428 0.0112312 -0.00909728)
(1.92822 0.0268907 -0.0135891)
(0.86732 0.0755477 -0.0174213)
(0.452442 0.0678177 -0.0184291)
(0.540902 0.0662434 -0.0184416)
(0.567184 0.0697729 -0.0184641)
(0.514729 0.0731923 -0.0186469)
(0.424894 0.0765786 -0.0188165)
(0.338266 0.0805043 -0.0190133)
(0.267761 0.0849632 -0.0191613)
(0.197253 0.0891183 -0.0193217)
(0.116249 0.0931519 -0.0194655)
(0.0487841 0.0970287 -0.0195989)
(3 6.35863e-08 -0.00571425)
(2.99999 3.50783e-07 -0.00571438)
(2.99996 1.31506e-06 -0.00571457)
(2.9999 3.35936e-06 -0.00571516)
(2.99978 9.37651e-06 -0.00571625)
(2.99942 2.1353e-05 -0.00571956)
(2.99872 5.76065e-05 -0.00572604)
(2.99652 0.000124131 -0.00574339)
(2.99274 0.000362125 -0.00578686)
(2.97821 0.000737567 -0.00587151)
(2.95317 0.00238596 -0.00620606)
(2.85622 0.00505356 -0.00666051)
(2.59963 0.0190399 -0.00897075)
(1.96395 0.0457866 -0.0133566)
(0.889599 0.130044 -0.0172326)
(0.4489 0.115114 -0.0183341)
(0.543308 0.111218 -0.0183474)
(0.572048 0.117286 -0.018359)
(0.519345 0.123617 -0.0185357)
(0.429839 0.130489 -0.0186958)
(0.343535 0.137899 -0.0188866)
(0.272523 0.145953 -0.019022)
(0.2008 0.153756 -0.0191755)
(0.118123 0.160829 -0.0193197)
(0.048618 0.165827 -0.0194447)
(3 7.97439e-08 -0.00571425)
(2.99999 4.39918e-07 -0.00571437)
(2.99996 1.64426e-06 -0.00571456)
(2.9999 4.17946e-06 -0.00571512)
(2.99979 1.16349e-05 -0.00571617)
(2.99944 2.62052e-05 -0.00571934)
(2.99877 7.21086e-05 -0.00572554)
(2.99667 0.000145053 -0.00574223)
(2.99305 0.000482163 -0.00578344)
(2.97921 0.000833723 -0.00586503)
(2.95539 0.00343453 -0.00618137)
(2.86385 0.00666439 -0.00661954)
(2.6227 0.0266136 -0.00878324)
(2.01866 0.0636482 -0.013009)
(0.924271 0.183505 -0.0169829)
(0.44529 0.162713 -0.0182245)
(0.548666 0.155999 -0.0182357)
(0.581574 0.164387 -0.0182316)
(0.528973 0.173722 -0.0184002)
(0.440114 0.184627 -0.0185543)
(0.354113 0.195911 -0.0187385)
(0.282627 0.207986 -0.0188707)
(0.209507 0.220075 -0.019006)
(0.124148 0.231015 -0.0191348)
(0.0506264 0.2378 -0.0192762)
(3 9.82403e-08 -0.00571425)
(2.99999 5.42732e-07 -0.00571437)
(2.99997 2.02261e-06 -0.00571454)
(2.99991 5.14864e-06 -0.00571509)
(2.99979 1.42641e-05 -0.00571608)
(2.99947 3.21446e-05 -0.00571913)
(2.99882 8.7944e-05 -0.00572496)
(2.99686 0.000175626 -0.00574159)
(2.99331 0.000596643 -0.00577873)
(2.98063 0.000931792 -0.00586118)
(2.95816 0.00437963 -0.0061404)
(2.87396 0.00802783 -0.00656918)
(2.6539 0.0327409 -0.00851679)
(2.09314 0.0783364 -0.0125264)
(0.976398 0.231206 -0.0166612)
(0.449461 0.210585 -0.0180898)
(0.560764 0.201592 -0.0181028)
(0.59822 0.211288 -0.0180737)
(0.545615 0.222992 -0.0182428)
(0.457335 0.237977 -0.0183688)
(0.371083 0.253525 -0.018549)
(0.29862 0.27029 -0.0186747)
(0.223432 0.287523 -0.0188182)
(0.134241 0.303334 -0.0189447)
(0.0549809 0.312767 -0.0190621)
(3 1.24257e-07 -0.00571425)
(2.99999 6.86633e-07 -0.00571436)
(2.99997 2.56339e-06 -0.00571452)
(2.99992 6.56862e-06 -0.00571503)
(2.99981 1.82027e-05 -0.00571596)
(2.9995 4.15724e-05 -0.00571882)
(2.99889 0.000110685 -0.00572422)
(2.99709 0.000239253 -0.00574007)
(2.99368 0.000698905 -0.00577335)
(2.98231 0.00129574 -0.00585466)
(2.96145 0.00485639 -0.00609419)
(2.88573 0.00925419 -0.00650808)
(2.68994 0.035871 -0.00821428)
(2.18271 0.087104 -0.0119381)
(1.047 0.267027 -0.0162716)
(0.468768 0.259344 -0.0179195)
(0.581854 0.251999 -0.0179288)
(0.622917 0.261203 -0.0178953)
(0.570589 0.27378 -0.0180682)
(0.483105 0.292231 -0.0181951)
(0.396227 0.312439 -0.0183367)
(0.32229 0.334694 -0.0184558)
(0.244415 0.358437 -0.0185702)
(0.149736 0.381399 -0.018683)
(0.0619487 0.395951 -0.0188315)
(3 1.38725e-07 -0.00571425)
(2.99999 7.66439e-07 -0.00571435)
(2.99997 2.85747e-06 -0.0057145)
(2.99992 7.32931e-06 -0.00571496)
(2.99982 2.02377e-05 -0.00571582)
(2.99954 4.63119e-05 -0.00571842)
(2.99899 0.000121392 -0.00572336)
(2.99735 0.000269474 -0.00573784)
(2.9942 0.000722906 -0.00576792)
(2.98405 0.00152438 -0.00584349)
(2.96494 0.00465815 -0.00605189)
(2.89813 0.0095397 -0.00644294)
(2.72745 0.0332312 -0.00790665)
(2.28236 0.081275 -0.0112973)
(1.14369 0.249255 -0.0158005)
(0.52101 0.294581 -0.017661)
(0.618726 0.303998 -0.0176495)
(0.657335 0.312448 -0.0176349)
(0.605331 0.325644 -0.0178134)
(0.519447 0.348038 -0.0179567)
(0.431644 0.373834 -0.018107)
(0.355648 0.402742 -0.0181927)
(0.274703 0.434818 -0.0183109)
(0.173645 0.46821 -0.0184088)
(0.0740722 0.493075 -0.0185064)
(3 1.46482e-07 -0.00571425)
(2.99999 8.08726e-07 -0.00571434)
(2.99997 3.00624e-06 -0.00571447)
(2.99993 7.70176e-06 -0.0057149)
(2.99984 2.11729e-05 -0.00571567)
(2.99959 4.83451e-05 -0.00571804)
(2.99908 0.000125802 -0.00572252)
(2.99759 0.000279561 -0.0057357)
(2.99473 0.000728428 -0.0057629)
(2.98556 0.00160933 -0.00583208)
(2.96825 0.00431385 -0.00601921)
(2.90817 0.0099191 -0.00637735)
(2.75605 0.0290411 -0.00769211)
(2.35081 0.0719398 -0.0107676)
(1.23471 0.209347 -0.0156677)
(0.563632 0.33276 -0.0175132)
(0.636772 0.36617 -0.0174711)
(0.675907 0.365061 -0.0174458)
(0.634676 0.377494 -0.0175918)
(0.557906 0.40404 -0.0176869)
(0.473613 0.436989 -0.017825)
(0.398202 0.474419 -0.0178941)
(0.316412 0.517482 -0.0179472)
(0.210199 0.566806 -0.0180056)
(0.0947808 0.613279 -0.0181074)
(3 1.76405e-07 -0.00571425)
(2.99999 9.66149e-07 -0.00571433)
(2.99998 3.59862e-06 -0.00571445)
(2.99994 9.26032e-06 -0.00571482)
(2.99986 2.55405e-05 -0.00571551)
(2.99963 5.90399e-05 -0.00571763)
(2.99918 0.000151224 -0.00572161)
(2.99785 0.000357073 -0.0057334)
(2.99531 0.000821415 -0.0057577)
(2.98701 0.00211716 -0.00581868)
(2.97196 0.00445473 -0.00599025)
(2.91769 0.0114859 -0.00629334)
(2.783 0.0281779 -0.00752486)
(2.41717 0.0722574 -0.0100763)
(1.35603 0.203872 -0.0153569)
(0.641942 0.384889 -0.0173136)
(0.646843 0.41836 -0.0172418)
(0.674984 0.413598 -0.0172989)
(0.655848 0.428517 -0.0173844)
(0.595076 0.457626 -0.0174423)
(0.519876 0.499383 -0.0175247)
(0.44948 0.547475 -0.0175626)
(0.372214 0.604687 -0.0175833)
(0.26837 0.679447 -0.0175531)
(0.133479 0.772033 -0.0174439)
(3 2.68763e-07 -0.00571424)
(2.99999 4.64752e-07 -0.00571431)
(2.99998 3.90034e-06 -0.00571441)
(2.99995 5.70219e-06 -0.00571472)
(2.99988 2.63813e-05 -0.0057153)
(2.99969 3.67923e-05 -0.005717)
(2.99933 0.000157687 -0.00572047)
(2.99815 0.000204696 -0.00572904)
(2.9962 0.000959359 -0.00575276)
(2.98857 0.000937571 -0.00579446)
(2.97616 0.00641773 -0.00597035)
(2.92708 0.00389763 -0.00619698)
(2.80971 0.0412062 -0.00738953)
(2.48393 0.0528505 -0.00943345)
(1.50263 0.221083 -0.0147072)
(0.742314 0.438772 -0.016942)
(0.656331 0.452638 -0.0171415)
(0.681233 0.452647 -0.0171672)
(0.676702 0.47369 -0.0171801)
(0.632289 0.506662 -0.01722)
(0.571454 0.55684 -0.0172046)
(0.510841 0.616658 -0.0171627)
(0.448304 0.695057 -0.0170641)
(0.365599 0.814816 -0.0168666)
(0.206835 1.02682 -0.0164553)
(3 1.32351e-08 -2.52013e-09)
(2.99998 7.20065e-08 -8.66803e-09)
(2.99996 2.6808e-07 -1.00201e-08)
(2.9999 6.86687e-07 -1.61672e-08)
(2.99977 1.9019e-06 -1.58668e-08)
(2.99939 4.33118e-06 -2.17883e-08)
(2.99867 1.15791e-05 -2.17863e-08)
(2.99637 2.49674e-05 -3.01017e-08)
(2.99243 7.16809e-05 -3.12679e-08)
(2.97722 0.000146502 -5.7624e-08)
(2.95097 0.000462947 -7.04638e-08)
(2.84874 0.000985634 -1.572e-07)
(2.5771 0.00361768 -1.78164e-07)
(1.91208 0.00864674 -5.96658e-07)
(0.858038 0.0247136 -6.46594e-07)
(0.455982 0.0233627 1.0127e-07)
(0.541439 0.0238529 -3.8667e-09)
(0.566685 0.0258636 -6.02298e-08)
(0.51461 0.0278576 -5.86952e-08)
(0.424829 0.0298439 -5.26087e-08)
(0.338149 0.0322045 -5.07266e-08)
(0.268138 0.0350488 -5.3687e-08)
(0.198636 0.0380841 -5.64658e-08)
(0.118967 0.041631 -5.94249e-08)
(0.0519825 0.0465237 -6.24737e-08)
(3 3.9491e-08 -2.51463e-09)
(2.99998 2.14946e-07 -8.66785e-09)
(2.99996 8.00635e-07 -1.00235e-08)
(2.9999 2.04956e-06 -1.61427e-08)
(2.99977 5.68542e-06 -1.58871e-08)
(2.9994 1.29359e-05 -2.17424e-08)
(2.99869 3.47367e-05 -2.17477e-08)
(2.99642 7.45894e-05 -2.98824e-08)
(2.99253 0.00021686 -3.11742e-08)
(2.97754 0.00044032 -5.65148e-08)
(2.95169 0.00141442 -6.99e-08)
(2.85113 0.00300318 -1.52717e-07)
(2.58424 0.0112316 -1.85222e-07)
(1.92813 0.0268929 -5.88768e-07)
(0.86729 0.0755496 -6.51925e-07)
(0.452481 0.0678192 1.01405e-07)
(0.540915 0.0662446 -4.19792e-09)
(0.567188 0.0697738 -6.08249e-08)
(0.514734 0.0731929 -5.90053e-08)
(0.424902 0.0765792 -5.2444e-08)
(0.338274 0.080505 -5.02632e-08)
(0.267768 0.0849644 -5.29842e-08)
(0.197258 0.0891199 -5.55898e-08)
(0.116253 0.0931543 -5.82833e-08)
(0.0487863 0.0970323 -6.12043e-08)
(3 6.47993e-08 -2.50529e-09)
(2.99998 3.52225e-07 -8.66416e-09)
(2.99996 1.31515e-06 -1.00384e-08)
(2.9999 3.36677e-06 -1.60783e-08)
(2.99978 9.37584e-06 -1.59606e-08)
(2.99941 2.13655e-05 -2.16516e-08)
(2.99872 5.76244e-05 -2.17345e-08)
(2.99652 0.000124195 -2.96141e-08)
(2.99273 0.000362212 -3.11048e-08)
(2.9782 0.000737869 -5.54418e-08)
(2.95316 0.00238647 -6.89645e-08)
(2.85621 0.00505471 -1.49033e-07)
(2.59958 0.0190417 -1.82852e-07)
(1.96385 0.0457913 -5.75102e-07)
(0.889567 0.130047 -6.60097e-07)
(0.448934 0.115114 9.96684e-08)
(0.543318 0.111217 -4.59411e-09)
(0.57205 0.117285 -6.14397e-08)
(0.519348 0.123617 -5.96896e-08)
(0.429844 0.130489 -5.28641e-08)
(0.343541 0.1379 -5.02258e-08)
(0.272527 0.145955 -5.23635e-08)
(0.200804 0.153759 -5.45497e-08)
(0.118126 0.160833 -5.65946e-08)
(0.0486195 0.165832 -5.88293e-08)
(3 8.07415e-08 -2.49037e-09)
(2.99998 4.42296e-07 -8.66022e-09)
(2.99996 1.64224e-06 -1.00504e-08)
(2.9999 4.18669e-06 -1.60031e-08)
(2.99978 1.16247e-05 -1.60195e-08)
(2.99944 2.62001e-05 -2.15132e-08)
(2.99877 7.20809e-05 -2.1615e-08)
(2.99667 0.000144925 -2.89971e-08)
(2.99304 0.000482193 -3.06605e-08)
(2.9792 0.000832357 -5.24658e-08)
(2.95538 0.00343688 -6.56467e-08)
(2.86384 0.00666317 -1.414e-07)
(2.62267 0.0266213 -1.75485e-07)
(2.01856 0.0636607 -5.54223e-07)
(0.92423 0.183524 -6.83504e-07)
(0.445309 0.162719 8.24712e-08)
(0.548667 0.155998 -1.10258e-08)
(0.581569 0.164387 -6.16462e-08)
(0.528971 0.173721 -5.9597e-08)
(0.440114 0.184627 -5.27127e-08)
(0.354114 0.195912 -5.02074e-08)
(0.282628 0.207987 -5.16318e-08)
(0.209509 0.220078 -5.3034e-08)
(0.124149 0.231019 -5.41397e-08)
(0.0506271 0.237807 -5.53909e-08)
(3 9.9502e-08 -2.4853e-09)
(2.99999 5.46008e-07 -8.63415e-09)
(2.99997 2.02329e-06 -1.01202e-08)
(2.99991 5.15922e-06 -1.59077e-08)
(2.99979 1.42722e-05 -1.62644e-08)
(2.99946 3.2177e-05 -2.16008e-08)
(2.99882 8.80037e-05 -2.21392e-08)
(2.99686 0.000175788 -3.16113e-08)
(2.99331 0.000596905 -2.82393e-08)
(2.98062 0.000932192 -8.19142e-08)
(2.95815 0.00438163 -4.75024e-09)
(2.87395 0.00802946 -2.04375e-07)
(2.65388 0.0327465 -6.1715e-08)
(2.09307 0.0783491 -4.98208e-07)
(0.976386 0.231228 -6.33695e-07)
(0.4495 0.210588 4.36724e-08)
(0.560781 0.201589 -3.42339e-08)
(0.598228 0.211287 -6.48859e-08)
(0.545621 0.222992 -6.12461e-08)
(0.45734 0.237978 -5.35641e-08)
(0.371086 0.253526 -5.22497e-08)
(0.298622 0.270291 -5.26737e-08)
(0.223432 0.287526 -5.27177e-08)
(0.134242 0.303339 -5.25443e-08)
(0.0549812 0.312774 -5.24314e-08)
(3 1.26629e-07 -2.46512e-09)
(2.99999 6.89363e-07 -8.61701e-09)
(2.99997 2.56837e-06 -1.00959e-08)
(2.99991 6.57924e-06 -1.58187e-08)
(2.99981 1.82282e-05 -1.60402e-08)
(2.9995 4.1631e-05 -2.10618e-08)
(2.99889 0.000110817 -2.10374e-08)
(2.99709 0.000239655 -2.69981e-08)
(2.99367 0.000699314 -2.85438e-08)
(2.98231 0.00129837 -4.99057e-08)
(2.96144 0.00485668 -3.56099e-08)
(2.88572 0.00926009 -1.44224e-07)
(2.68992 0.0358732 -1.04972e-07)
(2.18264 0.0871171 -4.42908e-07)
(1.04697 0.267064 -6.27609e-07)
(0.46878 0.259352 -2.62823e-08)
(0.581866 0.251999 -4.45344e-08)
(0.622927 0.261205 -5.70544e-08)
(0.570599 0.273783 -5.58655e-08)
(0.483113 0.292234 -5.21213e-08)
(0.396232 0.312442 -5.25867e-08)
(0.322294 0.334696 -5.29067e-08)
(0.244417 0.35844 -5.23182e-08)
(0.149737 0.381404 -5.14693e-08)
(0.061949 0.395959 -5.07478e-08)
(3 1.41292e-07 -2.43787e-09)
(2.99999 7.68085e-07 -8.62078e-09)
(2.99997 2.86034e-06 -1.00786e-08)
(2.99992 7.33333e-06 -1.5797e-08)
(2.99982 2.02461e-05 -1.5968e-08)
(2.99954 4.63278e-05 -2.09367e-08)
(2.99898 0.00012143 -2.06773e-08)
(2.99735 0.000269557 -2.62862e-08)
(2.99419 0.000723059 -2.76169e-08)
(2.98404 0.00152513 -3.94889e-08)
(2.96493 0.00465863 -4.18849e-08)
(2.89812 0.00954228 -1.08741e-07)
(2.72743 0.033235 -9.61297e-08)
(2.28231 0.0812881 -3.47011e-07)
(1.14366 0.249297 -5.57939e-07)
(0.521013 0.29459 -6.66171e-08)
(0.618739 0.303998 -6.11748e-08)
(0.65735 0.31245 -5.00825e-08)
(0.605344 0.325648 -5.03942e-08)
(0.519458 0.348043 -5.08479e-08)
(0.431653 0.373838 -5.28827e-08)
(0.355654 0.402746 -5.32688e-08)
(0.274707 0.434822 -5.21704e-08)
(0.173647 0.468216 -5.08938e-08)
(0.0740728 0.493083 -4.95225e-08)
(3 1.4866e-07 -2.41375e-09)
(2.99999 8.10126e-07 -8.62771e-09)
(2.99997 3.00735e-06 -1.00779e-08)
(2.99993 7.70298e-06 -1.57953e-08)
(2.99984 2.11732e-05 -1.59549e-08)
(2.99958 4.83436e-05 -2.09068e-08)
(2.99908 0.000125793 -2.05918e-08)
(2.99759 0.000279535 -2.60743e-08)
(2.99472 0.000728398 -2.71429e-08)
(2.98555 0.00160905 -3.83818e-08)
(2.96824 0.00431413 -3.86251e-08)
(2.90816 0.00991843 -1.0762e-07)
(2.75603 0.0290435 -7.42707e-08)
(2.35077 0.0719447 -2.92705e-07)
(1.23467 0.209368 -3.7699e-07)
(0.563622 0.332757 -2.32442e-07)
(0.636788 0.36617 -9.99082e-08)
(0.675929 0.365065 -4.26323e-08)
(0.634695 0.3775 -4.33917e-08)
(0.557922 0.404046 -4.65777e-08)
(0.473625 0.436995 -5.11003e-08)
(0.398211 0.474424 -5.1443e-08)
(0.316418 0.517488 -5.08188e-08)
(0.210203 0.566813 -4.96997e-08)
(0.0947822 0.613287 -4.84933e-08)
(3 1.76527e-07 -2.3943e-09)
(2.99999 9.64781e-07 -8.62862e-09)
(2.99998 3.59408e-06 -1.00889e-08)
(2.99994 9.2312e-06 -1.57981e-08)
(2.99986 2.55243e-05 -1.59875e-08)
(2.99963 5.89805e-05 -2.09731e-08)
(2.99918 0.000151152 -2.08146e-08)
(2.99785 0.000356906 -2.66467e-08)
(2.9953 0.000821265 -2.77227e-08)
(2.98701 0.0021167 -4.44189e-08)
(2.97196 0.00445399 -3.16166e-08)
(2.91768 0.0114859 -1.27568e-07)
(2.78299 0.028179 -4.44822e-08)
(2.41714 0.0722575 -2.93653e-07)
(1.35599 0.203882 -3.33811e-07)
(0.641921 0.384886 -3.06312e-07)
(0.64686 0.418366 -5.16165e-08)
(0.675004 0.413606 -3.12048e-08)
(0.655867 0.428525 -3.72424e-08)
(0.595092 0.457634 -4.10693e-08)
(0.51989 0.499391 -4.80218e-08)
(0.449492 0.547482 -4.80153e-08)
(0.372223 0.604695 -4.79991e-08)
(0.268376 0.679456 -4.6905e-08)
(0.133482 0.772043 -4.58306e-08)
(3 2.54564e-07 -2.41129e-09)
(2.99999 5.20959e-07 -8.6543e-09)
(2.99998 3.79451e-06 -1.01407e-08)
(2.99995 5.74256e-06 -1.62785e-08)
(2.99988 2.62529e-05 -1.57711e-08)
(2.99969 3.68354e-05 -2.16786e-08)
(2.99933 0.000157568 -2.09269e-08)
(2.99815 0.000204781 -2.78681e-08)
(2.99619 0.000959225 -2.69558e-08)
(2.98856 0.000938202 -4.40548e-08)
(2.97615 0.00641688 -4.5063e-08)
(2.92708 0.00390051 -9.53999e-08)
(2.80969 0.0412028 -4.81868e-08)
(2.4839 0.0528576 -3.14403e-07)
(1.5026 0.221082 -2.75111e-07)
(0.742287 0.438769 -3.62542e-07)
(0.656348 0.452644 -2.92602e-08)
(0.681251 0.452655 -1.97756e-08)
(0.67672 0.473699 -3.44836e-08)
(0.632305 0.506671 -3.80616e-08)
(0.571469 0.556849 -4.37357e-08)
(0.510855 0.616667 -4.35301e-08)
(0.448315 0.695067 -4.29298e-08)
(0.365608 0.814826 -4.12949e-08)
(0.206839 1.02683 -3.92917e-08)
(3 1.32352e-08 -3.80808e-13)
(2.99998 7.20067e-08 -2.02007e-12)
(2.99996 2.68082e-07 -4.44531e-12)
(2.9999 6.86691e-07 -9.42052e-12)
(2.99977 1.90192e-06 -1.76331e-11)
(2.99939 4.33125e-06 -3.36213e-11)
(2.99867 1.15793e-05 -7.29251e-11)
(2.99637 2.49684e-05 -1.453e-10)
(2.99243 7.16817e-05 -3.52146e-10)
(2.97722 0.00014651 -7.34583e-10)
(2.95097 0.000462952 -2.04852e-09)
(2.84874 0.000985682 -4.39321e-09)
(2.5771 0.00361754 -1.02841e-08)
(1.91207 0.00864669 -2.81838e-08)
(0.858035 0.0247135 -3.84696e-08)
(0.455984 0.0233627 7.03527e-09)
(0.54144 0.0238529 1.21757e-09)
(0.566685 0.0258636 -1.78773e-09)
(0.51461 0.0278576 -1.5963e-09)
(0.424829 0.0298439 -1.11225e-09)
(0.338149 0.0322045 -1.05438e-09)
(0.268139 0.0350488 -1.20826e-09)
(0.198636 0.0380842 -1.37681e-09)
(0.118967 0.041631 -1.51066e-09)
(0.0519826 0.0465237 -1.65389e-09)
(3 3.94912e-08 -3.77716e-13)
(2.99998 2.14946e-07 -2.01294e-12)
(2.99996 8.00638e-07 -4.37994e-12)
(2.9999 2.04957e-06 -9.27928e-12)
(2.99977 5.68545e-06 -1.68395e-11)
(2.9994 1.2936e-05 -3.14886e-11)
(2.99869 3.47369e-05 -6.70041e-11)
(2.99642 7.45905e-05 -1.18185e-10)
(2.99253 0.000216861 -3.48113e-10)
(2.97754 0.000440328 -5.52478e-10)
(2.95169 0.00141443 -2.04105e-09)
(2.85113 0.00300322 -3.45549e-09)
(2.58423 0.0112315 -1.31696e-08)
(1.92812 0.0268929 -2.73856e-08)
(0.867288 0.0755494 -3.93944e-08)
(0.452483 0.0678192 7.42696e-09)
(0.540916 0.0662446 1.39703e-09)
(0.567188 0.0697738 -1.73562e-09)
(0.514735 0.0731929 -1.55748e-09)
(0.424902 0.0765792 -1.09301e-09)
(0.338274 0.080505 -1.03939e-09)
(0.267768 0.0849644 -1.18343e-09)
(0.197258 0.08912 -1.35056e-09)
(0.116253 0.0931544 -1.47723e-09)
(0.0487863 0.0970324 -1.61602e-09)
(3 6.47995e-08 -3.76167e-13)
(2.99998 3.52226e-07 -2.0068e-12)
(2.99996 1.31516e-06 -4.35997e-12)
(2.9999 3.36678e-06 -9.23052e-12)
(2.99978 9.37586e-06 -1.67144e-11)
(2.99941 2.13656e-05 -3.12366e-11)
(2.99872 5.76245e-05 -6.63004e-11)
(2.99652 0.000124195 -1.17491e-10)
(2.99273 0.000362213 -3.43944e-10)
(2.9782 0.00073787 -5.52151e-10)
(2.95316 0.00238647 -2.04262e-09)
(2.85621 0.00505472 -3.4947e-09)
(2.59958 0.0190417 -1.32493e-08)
(1.96385 0.0457913 -2.77397e-08)
(0.889565 0.130047 -4.09202e-08)
(0.448936 0.115114 7.50963e-09)
(0.543318 0.111217 1.44872e-09)
(0.57205 0.117285 -1.68127e-09)
(0.519348 0.123617 -1.50499e-09)
(0.429844 0.130489 -1.05871e-09)
(0.343541 0.1379 -1.01164e-09)
(0.272527 0.145955 -1.13193e-09)
(0.200804 0.153759 -1.28939e-09)
(0.118126 0.160833 -1.3975e-09)
(0.0486196 0.165832 -1.51413e-09)
(3 8.07425e-08 -3.73803e-13)
(2.99998 4.423e-07 -1.99597e-12)
(2.99996 1.64225e-06 -4.33101e-12)
(2.9999 4.18675e-06 -9.1626e-12)
(2.99978 1.16249e-05 -1.65806e-11)
(2.99944 2.62004e-05 -3.10066e-11)
(2.99877 7.20817e-05 -6.56883e-11)
(2.99667 0.000144927 -1.17668e-10)
(2.99304 0.000482196 -3.39237e-10)
(2.9792 0.000832375 -5.55254e-10)
(2.95538 0.00343688 -2.03101e-09)
(2.86384 0.00666322 -3.46046e-09)
(2.62266 0.0266213 -1.31339e-08)
(2.01856 0.0636608 -2.77542e-08)
(0.924227 0.183524 -4.30345e-08)
(0.44531 0.162719 7.1908e-09)
(0.548667 0.155998 1.36664e-09)
(0.581569 0.164387 -1.6807e-09)
(0.528971 0.173721 -1.49776e-09)
(0.440114 0.184627 -1.0691e-09)
(0.354114 0.195912 -9.8052e-10)
(0.282629 0.207987 -1.05374e-09)
(0.209509 0.220078 -1.18305e-09)
(0.124149 0.231019 -1.26267e-09)
(0.0506272 0.237807 -1.35042e-09)
(3 9.95026e-08 -3.54871e-13)
(2.99999 5.46011e-07 -1.9317e-12)
(2.99997 2.0233e-06 -4.09463e-12)
(2.99991 5.15925e-06 -8.44917e-12)
(2.99979 1.42722e-05 -1.50458e-11)
(2.99946 3.21771e-05 -2.68844e-11)
(2.99882 8.80042e-05 -5.68159e-11)
(2.99686 0.000175789 -8.16981e-11)
(2.99331 0.000596908 -3.40712e-10)
(2.98062 0.000932199 -2.40455e-10)
(2.95815 0.00438164 -2.45188e-09)
(2.87394 0.00802951 -2.66344e-09)
(2.65388 0.0327467 -1.34832e-08)
(2.09307 0.0783494 -2.70703e-08)
(0.976383 0.231229 -4.52539e-08)
(0.449501 0.210587 6.1306e-09)
(0.56078 0.201588 1.64323e-09)
(0.598227 0.211287 -1.36846e-09)
(0.545621 0.222992 -1.35874e-09)
(0.45734 0.237978 -1.12363e-09)
(0.371086 0.253526 -9.438e-10)
(0.298622 0.270291 -9.53034e-10)
(0.223432 0.287526 -1.04784e-09)
(0.134242 0.303339 -1.09788e-09)
(0.0549812 0.312774 -1.14998e-09)
(3 1.26629e-07 -3.62012e-13)
(2.99999 6.89365e-07 -1.95313e-12)
(2.99997 2.56838e-06 -4.20005e-12)
(2.99991 6.57925e-06 -8.71814e-12)
(2.99981 1.82282e-05 -1.58461e-11)
(2.9995 4.1631e-05 -2.92082e-11)
(2.99889 0.000110817 -5.96759e-11)
(2.99709 0.000239655 -1.11599e-10)
(2.99367 0.00069932 -2.98046e-10)
(2.98231 0.00129837 -4.55336e-10)
(2.96144 0.00485673 -1.96676e-09)
(2.88572 0.00926017 -2.78405e-09)
(2.68991 0.0358737 -1.1954e-08)
(2.18264 0.0871181 -2.55282e-08)
(1.04697 0.267066 -4.77191e-08)
(0.468779 0.259353 1.52095e-09)
(0.581865 0.251998 1.19271e-09)
(0.622926 0.261204 -8.90904e-10)
(0.570598 0.273783 -1.12047e-09)
(0.483112 0.292234 -1.20584e-09)
(0.396232 0.312442 -9.33179e-10)
(0.322294 0.334696 -8.79716e-10)
(0.244417 0.35844 -9.17471e-10)
(0.149736 0.381404 -9.24959e-10)
(0.061949 0.395959 -9.32917e-10)
(3 1.41293e-07 -3.48681e-13)
(2.99999 7.6809e-07 -1.89386e-12)
(2.99997 2.86036e-06 -3.99932e-12)
(2.99992 7.33338e-06 -8.28121e-12)
(2.99982 2.02462e-05 -1.44939e-11)
(2.99954 4.63281e-05 -2.63742e-11)
(2.99898 0.000121431 -5.07808e-11)
(2.99735 0.000269559 -9.35021e-11)
(2.99419 0.000723065 -2.28178e-10)
(2.98404 0.00152514 -3.98594e-10)
(2.96493 0.00465868 -1.42085e-09)
(2.89812 0.00954235 -1.80148e-09)
(2.72743 0.0332354 -8.85031e-09)
(2.2823 0.0812892 -1.92199e-08)
(1.14366 0.2493 -4.47849e-08)
(0.521012 0.294591 -1.32648e-09)
(0.618739 0.303997 -4.2662e-10)
(0.65735 0.312449 -9.97103e-10)
(0.605344 0.325648 -1.237e-09)
(0.519458 0.348042 -1.41163e-09)
(0.431652 0.373837 -1.08681e-09)
(0.355653 0.402746 -9.20273e-10)
(0.274706 0.434822 -8.64784e-10)
(0.173647 0.468216 -8.0288e-10)
(0.0740727 0.493083 -7.34471e-10)
(3 1.4866e-07 -3.44292e-13)
(2.99999 8.10126e-07 -1.87231e-12)
(2.99997 3.00735e-06 -3.93695e-12)
(2.99993 7.70298e-06 -8.14219e-12)
(2.99984 2.11732e-05 -1.41256e-11)
(2.99958 4.83436e-05 -2.56122e-11)
(2.99908 0.000125793 -4.86724e-11)
(2.99759 0.000279535 -8.98883e-11)
(2.99472 0.000728398 -2.1094e-10)
(2.98555 0.00160905 -3.99015e-10)
(2.96824 0.00431415 -1.1072e-09)
(2.90816 0.0099184 -2.20882e-09)
(2.75603 0.0290437 -6.3195e-09)
(2.35077 0.0719452 -1.42608e-08)
(1.23467 0.20937 -2.7055e-08)
(0.56362 0.332757 -1.50048e-08)
(0.636788 0.36617 -4.89088e-09)
(0.675929 0.365065 -1.17356e-09)
(0.634695 0.377499 -1.27984e-09)
(0.557921 0.404046 -1.50091e-09)
(0.473624 0.436995 -1.36178e-09)
(0.398211 0.474424 -1.12443e-09)
(0.316418 0.517488 -9.59005e-10)
(0.210203 0.566813 -7.90053e-10)
(0.0947821 0.613287 -6.05652e-10)
(3 1.76527e-07 -3.48387e-13)
(2.99999 9.64783e-07 -1.88532e-12)
(2.99998 3.59409e-06 -4.00102e-12)
(2.99994 9.23121e-06 -8.27743e-12)
(2.99986 2.55243e-05 -1.46307e-11)
(2.99963 5.89806e-05 -2.67307e-11)
(2.99918 0.000151152 -5.21938e-11)
(2.99785 0.000356907 -1.00073e-10)
(2.9953 0.000821267 -2.18707e-10)
(2.98701 0.0021167 -5.19336e-10)
(2.97196 0.004454 -8.74473e-10)
(2.91768 0.0114859 -2.92636e-09)
(2.78299 0.0281792 -4.94846e-09)
(2.41714 0.0722576 -1.33965e-08)
(1.35598 0.203883 -2.45285e-08)
(0.641919 0.384886 -2.0702e-08)
(0.646861 0.418366 -2.04425e-09)
(0.675005 0.413606 -6.85925e-10)
(0.655867 0.428525 -1.17035e-09)
(0.595092 0.457634 -1.34849e-09)
(0.51989 0.499391 -1.51077e-09)
(0.449491 0.547482 -1.21256e-09)
(0.372223 0.604695 -1.0929e-09)
(0.268376 0.679456 -8.20753e-10)
(0.133482 0.772043 -5.93694e-10)
(3 2.54562e-07 -3.41754e-13)
(2.99999 5.20971e-07 -1.83584e-12)
(2.99998 3.79451e-06 -3.82798e-12)
(2.99995 5.74261e-06 -8.08169e-12)
(2.99988 2.6253e-05 -1.32695e-11)
(2.99969 3.68357e-05 -2.44436e-11)
(2.99933 0.000157569 -4.41606e-11)
(2.99815 0.000204783 -8.20604e-11)
(2.99619 0.00095923 -1.7992e-10)
(2.98856 0.000938215 -3.45028e-10)
(2.97615 0.0064169 -9.15081e-10)
(2.92708 0.00390057 -1.92179e-09)
(2.80969 0.041203 -4.28452e-09)
(2.4839 0.0528579 -1.37508e-08)
(1.5026 0.221083 -2.16198e-08)
(0.742284 0.438769 -2.48796e-08)
(0.656349 0.452644 -9.27358e-10)
(0.681251 0.452656 -2.61885e-10)
(0.67672 0.473699 -1.23317e-09)
(0.632306 0.506671 -1.38184e-09)
(0.571469 0.556849 -1.51932e-09)
(0.510855 0.616667 -1.37486e-09)
(0.448315 0.695066 -1.15129e-09)
(0.365608 0.814826 -9.22803e-10)
(0.206839 1.02683 -6.25662e-10)
(3 1.32352e-08 -6.18637e-15)
(2.99998 7.20067e-08 -2.71513e-14)
(2.99996 2.68082e-07 -9.33801e-14)
(2.9999 6.86692e-07 -2.01545e-13)
(2.99977 1.90192e-06 -6.12128e-13)
(2.99939 4.33126e-06 -1.27202e-12)
(2.99867 1.15794e-05 -3.80751e-12)
(2.99637 2.49684e-05 -8.08256e-12)
(2.99243 7.16817e-05 -2.28951e-11)
(2.97722 0.000146511 -4.8129e-11)
(2.95097 0.000462952 -1.48412e-10)
(2.84874 0.000985685 -3.17592e-10)
(2.5771 0.00361753 -8.14398e-10)
(1.91207 0.00864668 -2.22117e-09)
(0.858035 0.0247135 -3.17223e-09)
(0.455985 0.0233627 4.17817e-10)
(0.54144 0.0238529 6.98548e-11)
(0.566685 0.0258636 -1.13159e-10)
(0.51461 0.0278576 -8.93504e-11)
(0.424829 0.0298439 -2.71497e-11)
(0.338149 0.0322045 1.67648e-11)
(0.268139 0.0350488 4.17999e-11)
(0.198636 0.0380842 3.60826e-11)
(0.118967 0.041631 4.97446e-11)
(0.0519826 0.0465237 4.5776e-11)
(3 3.94912e-08 -6.00567e-15)
(2.99998 2.14946e-07 -2.67402e-14)
(2.99996 8.00638e-07 -8.92333e-14)
(2.9999 2.04957e-06 -1.92677e-13)
(2.99977 5.68545e-06 -5.60394e-13)
(2.9994 1.2936e-05 -1.13258e-12)
(2.99869 3.47369e-05 -3.41665e-12)
(2.99642 7.45906e-05 -6.27769e-12)
(2.99253 0.000216861 -2.26255e-11)
(2.97754 0.000440328 -3.58484e-11)
(2.95169 0.00141443 -1.47959e-10)
(2.85113 0.00300323 -2.52075e-10)
(2.58423 0.0112315 -1.01742e-09)
(1.92812 0.0268929 -2.16239e-09)
(0.867287 0.0755494 -3.23685e-09)
(0.452483 0.0678192 4.48517e-10)
(0.540916 0.0662446 8.58713e-11)
(0.567188 0.0697738 -1.0616e-10)
(0.514735 0.0731929 -8.28671e-11)
(0.424902 0.0765792 -2.12186e-11)
(0.338274 0.080505 2.23958e-11)
(0.267768 0.0849644 4.723e-11)
(0.197258 0.08912 4.04122e-11)
(0.116253 0.0931544 5.29499e-11)
(0.0487863 0.0970324 4.86638e-11)
(3 6.47995e-08 -5.94049e-15)
(2.99998 3.52226e-07 -2.64724e-14)
(2.99996 1.31516e-06 -8.82403e-14)
(2.9999 3.36678e-06 -1.90494e-13)
(2.99978 9.37587e-06 -5.54021e-13)
(2.99941 2.13656e-05 -1.1202e-12)
(2.99872 5.76245e-05 -3.37855e-12)
(2.99652 0.000124195 -6.24876e-12)
(2.99273 0.000362213 -2.23688e-11)
(2.9782 0.00073787 -3.5866e-11)
(2.95316 0.00238647 -1.4803e-10)
(2.85621 0.00505472 -2.54446e-10)
(2.59958 0.0190417 -1.02126e-09)
(1.96385 0.0457913 -2.18252e-09)
(0.889564 0.130047 -3.34534e-09)
(0.448936 0.115114 4.62736e-10)
(0.543318 0.111217 9.73432e-11)
(0.57205 0.117285 -9.48057e-11)
(0.519348 0.123617 -7.07186e-11)
(0.429844 0.130489 -8.31608e-12)
(0.343541 0.1379 3.45538e-11)
(0.272527 0.145955 5.96296e-11)
(0.200804 0.153759 4.94229e-11)
(0.118126 0.160833 6.13287e-11)
(0.0486196 0.165832 5.64943e-11)
(3 8.07425e-08 -5.84949e-15)
(2.99998 4.423e-07 -2.59716e-14)
(2.99996 1.64226e-06 -8.69168e-14)
(2.9999 4.18675e-06 -1.87608e-13)
(2.99978 1.16249e-05 -5.48112e-13)
(2.99944 2.62004e-05 -1.11135e-12)
(2.99877 7.20817e-05 -3.34949e-12)
(2.99667 0.000144928 -6.28671e-12)
(2.99304 0.000482196 -2.20634e-11)
(2.9792 0.000832376 -3.6133e-11)
(2.95538 0.00343688 -1.47019e-10)
(2.86384 0.00666322 -2.51383e-10)
(2.62266 0.0266213 -1.00913e-09)
(2.01856 0.0636608 -2.17383e-09)
(0.924227 0.183524 -3.49169e-09)
(0.44531 0.162719 4.50947e-10)
(0.548667 0.155998 1.00619e-10)
(0.581569 0.164387 -8.40886e-11)
(0.528971 0.173721 -5.86672e-11)
(0.440114 0.184627 6.73011e-12)
(0.354114 0.195912 4.94374e-11)
(0.282629 0.207987 7.71436e-11)
(0.209509 0.220078 6.37138e-11)
(0.124149 0.231019 7.4622e-11)
(0.0506272 0.237807 6.83314e-11)
(3 9.95026e-08 -4.76982e-15)
(2.99999 5.46011e-07 -2.17206e-14)
(2.99997 2.0233e-06 -7.1036e-14)
(2.99991 5.15925e-06 -1.51199e-13)
(2.99979 1.42722e-05 -4.38888e-13)
(2.99946 3.21771e-05 -8.58031e-13)
(2.99882 8.80042e-05 -2.767e-12)
(2.99686 0.000175789 -3.88153e-12)
(2.99331 0.000596908 -2.22331e-11)
(2.98062 0.0009322 -1.39513e-11)
(2.95815 0.00438164 -1.77582e-10)
(2.87394 0.00802951 -1.92359e-10)
(2.65388 0.0327467 -1.0274e-09)
(2.09307 0.0783495 -2.10621e-09)
(0.976382 0.231229 -3.63146e-09)
(0.449501 0.210587 3.8457e-10)
(0.56078 0.201588 1.25703e-10)
(0.598227 0.211287 -4.65635e-11)
(0.545621 0.222992 -3.33249e-11)
(0.45734 0.237978 2.43223e-11)
(0.371086 0.253526 8.35728e-11)
(0.298622 0.270291 1.06541e-10)
(0.223432 0.287526 7.99484e-11)
(0.134242 0.303339 8.86413e-11)
(0.0549812 0.312774 8.12342e-11)
(3 1.26629e-07 -5.3416e-15)
(2.99999 6.89365e-07 -2.36548e-14)
(2.99997 2.56838e-06 -7.92513e-14)
(2.99991 6.57925e-06 -1.71808e-13)
(2.99981 1.82282e-05 -4.98614e-13)
(2.9995 4.1631e-05 -1.02689e-12)
(2.99889 0.000110817 -2.98258e-12)
(2.99709 0.000239655 -5.96996e-12)
(2.99367 0.00069932 -1.93244e-11)