/*--------------------------------*- C++ -*----------------------------------*\
| =========                 |                                                 |
| \\      /  F ield         | OpenFOAM: The Open Source CFD Toolbox           |
|  \\    /   O peration     | Version:  4.1                                   |
|   \\  /    A nd           | Web:      www.OpenFOAM.org                      |
|    \\/     M anipulation  |                                                 |
\*---------------------------------------------------------------------------*/
FoamFile
{
    version     2.0;
    format      ascii;
    class       volScalarField;
    location    "0.24";
    object      Ma;
}
// * * * * * * * * * * * * * * * * * * * * * * * * * * * * * * * * * * * * * //

dimensions      [0 0 0 0 0 0 0];

internalField   nonuniform List<scalar> 
18000
(
5.73877e-12
5.67223e-12
5.59573e-12
5.53074e-12
5.46665e-12
5.40338e-12
5.341e-12
5.27953e-12
5.21894e-12
5.15984e-12
7.22508e-12
6.9628e-12
6.70212e-12
6.46148e-12
6.23144e-12
6.01134e-12
5.80068e-12
5.59899e-12
5.40569e-12
5.22253e-12
9.21582e-12
8.63572e-12
8.09061e-12
7.59315e-12
7.13262e-12
6.70584e-12
6.31021e-12
5.94278e-12
5.60141e-12
5.2862e-12
1.1925e-11
1.08307e-11
9.84969e-12
8.97805e-12
8.19938e-12
7.50205e-12
6.87608e-12
6.31308e-12
5.80573e-12
5.351e-12
1.56761e-11
1.375e-11
1.20999e-11
1.06856e-11
9.4687e-12
8.41737e-12
7.50565e-12
6.71237e-12
6.01945e-12
5.41717e-12
2.09707e-11
1.7691e-11
1.50117e-11
1.28077e-11
1.09872e-11
9.47344e-12
8.20758e-12
7.14309e-12
6.243e-12
5.48417e-12
2.86052e-11
2.30999e-11
1.88238e-11
1.54682e-11
1.28146e-11
1.06966e-11
8.9917e-12
7.60829e-12
6.47714e-12
5.55231e-12
3.98822e-11
3.0653e-11
2.38797e-11
1.88327e-11
1.50271e-11
1.21195e-11
9.87138e-12
8.11366e-12
6.72492e-12
5.62532e-12
1.78386e-09
1.71315e-09
1.60189e-09
1.50367e-09
1.41653e-09
1.33873e-09
1.26888e-09
1.20585e-09
1.14872e-09
1.10435e-09
1.94067e-07
2.86545e-08
2.43209e-08
2.09162e-08
1.81065e-08
1.57625e-08
1.37888e-08
1.2113e-08
1.06534e-08
2.76966e-08
5.86374e-12
5.79337e-12
5.71654e-12
5.64845e-12
5.5816e-12
5.51596e-12
5.45097e-12
5.38737e-12
5.32468e-12
5.26334e-12
7.40667e-12
7.13093e-12
6.86676e-12
6.61535e-12
6.37566e-12
6.14657e-12
5.92796e-12
5.719e-12
5.51926e-12
5.32871e-12
9.4711e-12
8.8639e-12
8.31001e-12
7.79088e-12
7.31151e-12
6.86816e-12
6.45784e-12
6.07742e-12
5.72448e-12
5.39595e-12
1.2295e-11
1.11524e-11
1.0149e-11
9.23781e-12
8.4258e-12
7.70015e-12
7.05014e-12
6.46679e-12
5.94142e-12
5.46507e-12
1.62269e-11
1.42165e-11
1.25159e-11
1.10319e-11
9.7592e-12
8.6623e-12
7.71324e-12
6.88931e-12
6.1708e-12
5.53654e-12
2.18137e-11
1.83829e-11
1.55983e-11
1.32753e-11
1.13636e-11
9.77888e-12
8.45745e-12
7.34907e-12
6.41362e-12
5.61016e-12
2.99302e-11
2.41505e-11
1.96636e-11
1.61063e-11
1.33065e-11
1.10802e-11
9.29415e-12
7.84955e-12
6.67037e-12
5.68617e-12
4.20336e-11
3.22856e-11
2.51014e-11
1.97144e-11
1.56756e-11
1.26037e-11
1.02383e-11
8.39509e-12
6.94244e-12
5.76479e-12
6.42209e-11
6.54203e-11
5.11699e-11
4.0693e-11
3.29239e-11
2.70397e-11
2.25007e-11
1.89419e-11
1.61103e-11
1.37818e-11
1.16032e-07
1.94072e-08
1.67751e-08
1.46295e-08
1.28697e-08
1.14092e-08
1.01843e-08
9.14718e-09
8.26215e-09
7.61512e-09
4.07963e-13
3.83259e-13
2.11003e-13
1.92168e-13
1.74706e-13
1.5893e-13
1.44993e-13
1.3331e-13
1.23521e-13
1.10623e-13
5.62781e-13
4.90243e-13
4.17984e-13
3.67643e-13
3.21944e-13
2.81111e-13
2.45372e-13
2.15101e-13
1.90494e-13
1.33392e-13
6.4826e-13
5.40475e-13
5.65014e-13
4.93653e-13
4.31502e-13
3.78552e-13
3.34347e-13
2.98148e-13
2.68339e-13
1.63691e-13
8.17256e-13
7.1163e-13
8.12364e-13
7.01711e-13
6.08125e-13
5.30196e-13
4.6562e-13
4.127e-13
3.68045e-13
2.06813e-13
1.10362e-12
1.04987e-12
1.1743e-12
9.94375e-13
8.46214e-13
7.25634e-13
6.27171e-13
5.46788e-13
4.78942e-13
2.55777e-13
1.58388e-12
1.62897e-12
1.69741e-12
1.39846e-12
1.16038e-12
9.71847e-13
8.21352e-13
7.00644e-13
6.00445e-13
3.09572e-13
2.38193e-12
2.56376e-12
2.45433e-12
1.95404e-12
1.572e-12
1.27957e-12
1.05283e-12
8.75739e-13
7.32618e-13
3.6723e-13
3.72548e-12
4.05206e-12
3.55617e-12
2.7197e-12
2.11094e-12
1.66307e-12
1.32817e-12
1.0745e-12
8.7588e-13
4.28432e-13
5.36112e-11
6.25131e-12
5.04706e-12
3.70246e-12
2.77109e-12
2.1146e-12
1.64156e-12
1.29486e-12
1.03191e-12
5.00195e-13
1.01298e-07
5.66383e-10
4.05854e-10
3.07926e-10
2.37851e-10
1.86641e-10
1.48523e-10
1.19684e-10
9.75486e-11
8.02551e-11
3.87406e-13
3.62023e-13
1.7232e-13
1.5104e-13
1.30674e-13
1.11531e-13
9.36681e-14
7.73152e-14
6.28496e-14
3.66861e-14
5.33735e-13
4.60197e-13
3.86371e-13
3.35661e-13
2.89152e-13
2.47391e-13
2.10572e-13
1.79011e-13
1.53069e-13
7.9488e-14
5.96547e-13
4.88609e-13
5.24088e-13
4.54963e-13
3.94873e-13
3.4383e-13
3.01324e-13
2.67157e-13
2.39346e-13
1.20031e-13
7.28843e-13
6.33768e-13
7.61074e-13
6.56652e-13
5.68207e-13
4.94961e-13
4.34479e-13
3.8515e-13
3.43771e-13
1.71399e-13
9.55039e-13
9.42576e-13
1.10821e-12
9.40143e-13
8.0142e-13
6.88348e-13
5.96032e-13
5.20837e-13
4.57295e-13
2.25324e-13
1.3361e-12
1.48329e-12
1.61012e-12
1.33143e-12
1.10842e-12
9.312e-13
7.89224e-13
6.75276e-13
5.80275e-13
2.82193e-13
1.96777e-12
2.36012e-12
2.33564e-12
1.86923e-12
1.51041e-12
1.23416e-12
1.01901e-12
8.50349e-13
7.13408e-13
3.4211e-13
3.01701e-12
3.75589e-12
3.39027e-12
2.61004e-12
2.03633e-12
1.61161e-12
1.29202e-12
1.04874e-12
8.57514e-13
4.05254e-13
5.65153e-11
6.05767e-12
4.93729e-12
3.63468e-12
2.72532e-12
2.08132e-12
1.61555e-12
1.27327e-12
1.01322e-12
4.71577e-13
1.04818e-07
1.97398e-10
9.14583e-12
6.08384e-12
4.30786e-12
3.12937e-12
2.32273e-12
1.7565e-12
1.34655e-12
7.11943e-13
3.87526e-13
3.61812e-13
1.72765e-13
1.51404e-13
1.30964e-13
1.11735e-13
9.39382e-14
7.75713e-14
6.29564e-14
3.68157e-14
5.34376e-13
4.60611e-13
3.87326e-13
3.36481e-13
2.8987e-13
2.47938e-13
2.10998e-13
1.79434e-13
1.53397e-13
7.96822e-14
5.97876e-13
4.89941e-13
5.25838e-13
4.56399e-13
3.95953e-13
3.44775e-13
3.02092e-13
2.67691e-13
2.39682e-13
1.20292e-13
7.3165e-13
6.36787e-13
7.63862e-13
6.59008e-13
5.7004e-13
4.96411e-13
4.35674e-13
3.86058e-13
3.44441e-13
1.71704e-13
9.60403e-13
9.48211e-13
1.11301e-12
9.43905e-13
8.04447e-13
6.90789e-13
5.97883e-13
5.22236e-13
4.58356e-13
2.26072e-13
1.34619e-12
1.49314e-12
1.61808e-12
1.33772e-12
1.1133e-12
9.35101e-13
7.92342e-13
6.77699e-13
5.8219e-13
2.83471e-13
1.98643e-12
2.37755e-12
2.3494e-12
1.87971e-12
1.51852e-12
1.24054e-12
1.02398e-12
8.54185e-13
7.16549e-13
3.44301e-13
3.05132e-12
3.78713e-12
3.41379e-12
2.62763e-12
2.04964e-12
1.62181e-12
1.29992e-12
1.05485e-12
8.62276e-13
4.08643e-13
5.6734e-11
6.11872e-12
4.97937e-12
3.66474e-12
2.7472e-12
2.09752e-12
1.62774e-12
1.28259e-12
1.0205e-12
4.76479e-13
1.07932e-07
2.0093e-10
7.55098e-12
5.0522e-12
3.64397e-12
2.68717e-12
2.0203e-12
1.54586e-12
1.19671e-12
5.54614e-13
3.87624e-13
3.61478e-13
1.73365e-13
1.51913e-13
1.31341e-13
1.1208e-13
9.41545e-14
7.78303e-14
6.31984e-14
3.68721e-14
5.35202e-13
4.6112e-13
3.88612e-13
3.37582e-13
2.90801e-13
2.48691e-13
2.11588e-13
1.79869e-13
1.53824e-13
8.00016e-14
5.99717e-13
4.91771e-13
5.28129e-13
4.58331e-13
3.97562e-13
3.46018e-13
3.03079e-13
2.68368e-13
2.40199e-13
1.20677e-13
7.35456e-13
6.40927e-13
7.67648e-13
6.62087e-13
5.72612e-13
4.98343e-13
4.37118e-13
3.87271e-13
3.45249e-13
1.72289e-13
9.67918e-13
9.55842e-13
1.11932e-12
9.48924e-13
8.08408e-13
6.94027e-13
6.00426e-13
5.24206e-13
4.5989e-13
2.2712e-13
1.36051e-12
1.50676e-12
1.62886e-12
1.34613e-12
1.11984e-12
9.40273e-13
7.96442e-13
6.80871e-13
5.84767e-13
2.85281e-13
2.01326e-12
2.40146e-12
2.36783e-12
1.89384e-12
1.52933e-12
1.249e-12
1.03062e-12
8.59361e-13
7.20621e-13
3.47186e-13
3.10176e-12
3.8301e-12
3.44577e-12
2.65121e-12
2.06736e-12
1.6353e-12
1.31033e-12
1.06296e-12
8.68568e-13
4.12988e-13
5.72548e-11
6.19705e-12
5.0349e-12
3.70421e-12
2.77587e-12
2.11882e-12
1.64376e-12
1.29479e-12
1.02987e-12
4.82957e-13
1.09089e-07
2.03621e-10
7.64243e-12
5.11336e-12
3.68724e-12
2.7184e-12
2.04336e-12
1.56325e-12
1.20994e-12
5.63496e-13
3.87686e-13
3.6115e-13
1.7405e-13
1.52542e-13
1.31912e-13
1.12559e-13
9.45555e-14
7.80645e-14
6.33872e-14
3.70851e-14
5.36222e-13
4.61808e-13
3.90193e-13
3.38887e-13
2.91949e-13
2.49713e-13
2.12443e-13
1.80518e-13
1.54132e-13
8.03059e-14
6.01993e-13
4.93994e-13
5.30876e-13
4.60645e-13
3.99481e-13
3.47599e-13
3.04239e-13
2.69267e-13
2.40854e-13
1.21089e-13
7.40141e-13
6.45947e-13
7.72254e-13
6.65819e-13
5.75669e-13
5.00833e-13
4.38966e-13
3.88655e-13
3.46421e-13
1.73065e-13
9.77181e-13
9.65196e-13
1.12698e-12
9.55032e-13
8.13255e-13
6.97964e-13
6.03545e-13
5.26603e-13
4.61753e-13
2.28509e-13
1.37815e-12
1.52318e-12
1.64188e-12
1.35636e-12
1.1279e-12
9.46648e-13
8.0152e-13
6.84852e-13
5.87853e-13
2.87547e-13
2.04646e-12
2.43059e-12
2.39021e-12
1.91101e-12
1.54261e-12
1.25937e-12
1.03882e-12
8.65733e-13
7.25659e-13
3.50825e-13
3.16436e-12
3.88234e-12
3.48485e-12
2.68019e-12
2.0891e-12
1.65186e-12
1.32321e-12
1.07293e-12
8.76304e-13
4.18429e-13
5.95516e-11
6.29469e-12
5.10295e-12
3.75282e-12
2.81129e-12
2.145e-12
1.66351e-12
1.30976e-12
1.04141e-12
4.90816e-13
1.21153e-07
2.15488e-10
7.76548e-12
5.19131e-12
3.74226e-12
2.7581e-12
2.07268e-12
1.58528e-12
1.22648e-12
5.74666e-13
3.8777e-13
3.60459e-13
1.74738e-13
1.53113e-13
1.32519e-13
1.13206e-13
9.53091e-14
7.98547e-14
8.45645e-14
1.96273e-13
5.37271e-13
4.62211e-13
3.91718e-13
3.40269e-13
2.9318e-13
2.50875e-13
2.13552e-13
1.82044e-13
1.59396e-13
1.50485e-13
6.04389e-13
4.95875e-13
5.33583e-13
4.62977e-13
4.01519e-13
3.49422e-13
3.05965e-13
2.70853e-13
2.43928e-13
1.51069e-13
7.45219e-13
6.50384e-13
7.76682e-13
6.6952e-13
5.78736e-13
5.03514e-13
4.41517e-13
3.90937e-13
3.4932e-13
1.88757e-13
9.87101e-13
9.73652e-13
1.13425e-12
9.61018e-13
8.18131e-13
7.0201e-13
6.07279e-13
5.30005e-13
4.6536e-13
2.3942e-13
1.39662e-12
1.53828e-12
1.6541e-12
1.36622e-12
1.13579e-12
9.53266e-13
8.07394e-13
6.90091e-13
5.92767e-13
2.9723e-13
2.08029e-12
2.45749e-12
2.41114e-12
1.92741e-12
1.5556e-12
1.26996e-12
1.04789e-12
8.73831e-13
7.32581e-13
3.60615e-13
3.22519e-12
3.93011e-12
3.5209e-12
2.70784e-12
2.11046e-12
1.66869e-12
1.33709e-12
1.08507e-12
8.86559e-13
4.29369e-13
5.64636e-11
6.36786e-12
5.16534e-12
3.7989e-12
2.84588e-12
2.17157e-12
1.68458e-12
1.32731e-12
1.05612e-12
5.03884e-13
1.24784e-07
1.86507e-10
7.79445e-12
5.26432e-12
3.79582e-12
2.79821e-12
2.10346e-12
1.61009e-12
1.24716e-12
5.91063e-13
3.86808e-13
3.95419e-13
2.08699e-13
1.60169e-13
1.41951e-13
2.39903e-13
4.50407e-13
1.5376e-12
6.78325e-12
2.3355e-11
5.38526e-13
5.24317e-13
4.29917e-13
3.5411e-13
2.92848e-13
3.04395e-13
4.31709e-13
1.06111e-12
3.94551e-12
1.47815e-11
6.0854e-13
6.03383e-13
5.88937e-13
4.89435e-13
4.034e-13
3.6596e-13
4.69054e-13
8.08957e-13
2.49207e-12
9.32175e-12
7.50299e-13
7.91099e-13
8.41167e-13
7.03267e-13
5.8464e-13
5.04188e-13
5.30354e-13
7.11823e-13
1.71505e-12
6.14975e-12
9.88082e-13
1.12442e-12
1.19944e-12
9.95834e-13
8.25519e-13
6.96348e-13
6.4788e-13
7.27151e-13
1.31025e-12
4.24448e-12
1.38274e-12
1.67498e-12
1.70906e-12
1.39363e-12
1.13879e-12
9.42307e-13
8.2098e-13
8.47764e-13
1.12627e-12
3.05678e-12
2.03187e-12
2.55558e-12
2.44045e-12
1.9363e-12
1.54632e-12
1.2505e-12
1.04399e-12
9.7348e-13
1.08735e-12
2.29437e-12
3.10161e-12
3.95697e-12
3.50222e-12
2.68276e-12
2.07877e-12
1.63506e-12
1.31903e-12
1.14258e-12
1.16982e-12
1.7984e-12
1.96593e-11
6.20137e-12
5.06606e-12
3.71944e-12
2.77865e-12
2.11584e-12
1.6518e-12
1.35501e-12
1.27506e-12
1.47853e-12
2.41859e-08
1.57339e-10
7.17963e-12
5.09993e-12
3.6751e-12
2.71002e-12
2.0504e-12
1.61276e-12
1.40051e-12
1.28474e-12
2.53809e-12
2.3983e-12
1.53838e-12
1.57133e-13
2.62395e-12
8.33405e-12
2.35174e-11
7.80578e-11
3.52151e-10
9.27362e-10
3.57358e-12
3.46836e-12
2.57856e-12
1.18628e-12
1.31077e-12
6.10517e-12
1.76855e-11
5.38013e-11
2.0658e-10
5.51791e-10
4.84014e-12
4.73366e-12
3.7609e-12
2.35398e-12
3.18017e-13
4.04686e-12
1.30254e-11
3.83734e-11
1.31287e-10
3.48602e-10
6.49653e-12
6.31375e-12
5.16568e-12
3.65733e-12
1.49382e-12
2.25794e-12
9.49198e-12
2.80401e-11
8.85445e-11
2.30397e-10
8.7026e-12
8.32091e-12
6.8642e-12
5.14487e-12
2.91076e-12
7.89381e-13
6.64795e-12
2.07043e-11
6.22371e-11
1.58037e-10
1.16975e-11
1.09141e-11
8.95479e-12
6.87184e-12
4.44143e-12
1.31812e-12
4.31681e-12
1.52243e-11
4.50415e-11
1.11805e-10
1.58488e-11
1.43326e-11
1.15722e-11
8.91388e-12
6.13249e-12
2.85125e-12
2.37813e-12
1.11838e-11
3.32446e-11
8.11484e-11
2.17478e-11
1.89244e-11
1.49042e-11
1.13719e-11
8.03221e-12
4.48129e-12
1.18159e-12
8.0119e-12
2.47559e-11
6.01464e-11
4.79323e-11
2.52236e-11
1.92243e-11
1.43766e-11
1.02075e-11
6.21331e-12
1.9729e-12
5.46235e-12
1.85821e-11
4.53362e-11
3.14857e-07
3.4682e-10
2.49004e-11
1.80857e-11
1.27233e-11
8.06828e-12
3.48297e-12
3.43371e-12
1.39683e-11
3.45914e-11
3.43421e-12
3.08799e-12
2.04212e-12
1.92496e-12
8.25563e-12
2.77894e-11
1.01935e-10
5.16271e-10
1.80319e-09
2.32946e-09
4.55592e-12
4.24405e-12
3.2428e-12
1.68576e-12
5.16946e-12
1.93631e-11
6.76993e-11
2.94052e-10
1.0107e-09
1.25274e-09
5.92294e-12
5.58587e-12
4.59509e-12
2.84257e-12
2.78765e-12
1.30318e-11
4.60515e-11
1.81014e-10
6.03895e-10
7.2727e-10
7.6767e-12
7.21297e-12
6.13156e-12
4.38878e-12
1.98709e-12
8.32327e-12
3.173e-11
1.1768e-10
3.79027e-10
4.46949e-10
9.98303e-12
9.23867e-12
7.92605e-12
6.10353e-12
3.25187e-12
4.76031e-12
2.17621e-11
7.93209e-11
2.47607e-10
2.8749e-10
1.30903e-11
1.1822e-11
1.00798e-11
8.01577e-12
5.10772e-12
2.5036e-12
1.44899e-11
5.45684e-11
1.67119e-10
1.91837e-10
1.73774e-11
1.51929e-11
1.27311e-11
1.02053e-11
7.12508e-12
2.87819e-12
9.16438e-12
3.79293e-11
1.15569e-10
1.31846e-10
2.34441e-11
1.96909e-11
1.60706e-11
1.27779e-11
9.30235e-12
4.82435e-12
5.17351e-12
2.62566e-11
8.13793e-11
9.28489e-11
5.82912e-11
2.57974e-11
2.0366e-11
1.58752e-11
1.17128e-11
7.02353e-12
2.70578e-12
1.78896e-11
5.80628e-11
6.65096e-11
5.66111e-08
2.89737e-09
2.63347e-11
1.96593e-11
1.4431e-11
9.29472e-12
3.18588e-12
1.17168e-11
4.17139e-11
4.8124e-11
1.00727e-12
1.26154e-12
1.53761e-12
3.24838e-12
8.6466e-12
2.5657e-11
8.9144e-11
3.32936e-10
6.12045e-10
2.76766e-10
1.08621e-12
1.25666e-12
1.39661e-12
2.45238e-12
6.12623e-12
1.77716e-11
5.87143e-11
2.04525e-10
3.47448e-10
2.02813e-10
1.16815e-12
1.29045e-12
1.37984e-12
1.97411e-12
4.37761e-12
1.24172e-11
3.96456e-11
1.30628e-10
2.07006e-10
1.3799e-10
1.25058e-12
1.35048e-12
1.43941e-12
1.77141e-12
3.22183e-12
8.7352e-12
2.72685e-11
8.61526e-11
1.28216e-10
9.4466e-11
1.33616e-12
1.42544e-12
1.53286e-12
1.74494e-12
2.52905e-12
6.20685e-12
1.9043e-11
5.83058e-11
8.19707e-11
6.63e-11
1.42848e-12
1.51167e-12
1.63832e-12
1.80763e-12
2.19407e-12
4.48835e-12
1.34066e-11
4.03579e-11
5.37667e-11
4.79903e-11
1.53171e-12
1.60755e-12
1.74784e-12
1.90807e-12
2.09811e-12
3.37822e-12
9.49188e-12
2.82865e-11
3.60142e-11
3.58449e-11
1.6536e-12
1.71476e-12
1.86076e-12
2.01996e-12
2.1296e-12
2.74193e-12
6.79603e-12
2.0061e-11
2.45758e-11
2.75747e-11
1.43841e-10
2.0971e-12
1.97792e-12
2.13611e-12
2.21873e-12
2.44954e-12
4.95764e-12
1.43672e-11
1.69252e-11
2.17926e-11
9.80006e-08
2.72618e-09
3.40959e-12
2.24663e-12
2.32317e-12
2.366e-12
3.73751e-12
1.03619e-11
1.16558e-11
1.7549e-11
7.93812e-13
1.50662e-12
1.60975e-12
2.52063e-12
4.15356e-12
7.22272e-12
1.49384e-11
5.25206e-11
2.89066e-10
8.9099e-10
7.28561e-13
1.35355e-12
1.39618e-12
2.1522e-12
3.48969e-12
5.94684e-12
1.14026e-11
3.28398e-11
1.73744e-10
4.85862e-10
6.65733e-13
1.21032e-12
1.2024e-12
1.82857e-12
2.92571e-12
4.89614e-12
8.93577e-12
2.1962e-11
1.08606e-10
2.8408e-10
6.1202e-13
1.08845e-12
1.0414e-12
1.56457e-12
2.46907e-12
4.0705e-12
7.17176e-12
1.56309e-11
7.02962e-11
1.75348e-10
5.65904e-13
9.8423e-13
9.06568e-13
1.34444e-12
2.09705e-12
3.41548e-12
5.85486e-12
1.16946e-11
4.68524e-11
1.12942e-10
5.26272e-13
8.95108e-13
7.93292e-13
1.16323e-12
1.79461e-12
2.88433e-12
4.84562e-12
9.0827e-12
3.20274e-11
7.53034e-11
4.92019e-13
8.18104e-13
6.97882e-13
1.01153e-12
1.54207e-12
2.45061e-12
4.05844e-12
7.25128e-12
2.23872e-11
5.16633e-11
4.66204e-13
7.5128e-13
6.17155e-13
8.83373e-13
1.33289e-12
2.09681e-12
3.42811e-12
5.91672e-12
1.59588e-11
3.63099e-11
2.42279e-10
2.8942e-12
5.47595e-13
7.75564e-13
1.15859e-12
1.80457e-12
2.91566e-12
4.9074e-12
1.15822e-11
2.60557e-11
9.71551e-08
9.3163e-09
1.79632e-11
6.109e-13
1.00673e-12
1.55383e-12
2.48687e-12
4.10901e-12
8.52789e-12
1.90202e-11
1.06955e-12
1.86234e-12
1.61651e-12
2.17549e-12
3.03184e-12
4.39899e-12
7.01877e-12
1.39374e-11
5.38202e-11
1.33126e-10
9.9619e-13
1.70768e-12
1.44933e-12
1.93923e-12
2.68012e-12
3.82817e-12
5.83875e-12
1.0575e-11
3.82735e-11
8.47763e-11
9.24712e-13
1.55901e-12
1.28816e-12
1.71377e-12
2.35392e-12
3.32863e-12
4.92515e-12
8.24709e-12
2.72061e-11
5.65966e-11
8.62514e-13
1.42967e-12
1.1497e-12
1.51932e-12
2.07569e-12
2.91116e-12
4.22545e-12
6.66265e-12
1.95249e-11
3.91829e-11
8.0849e-13
1.31679e-12
1.0306e-12
1.35239e-12
1.83879e-12
2.5613e-12
3.66925e-12
5.54368e-12
1.41556e-11
2.7872e-11
7.61297e-13
1.21789e-12
9.27582e-13
1.20878e-12
1.63339e-12
2.26279e-12
3.21521e-12
4.71741e-12
1.03646e-11
2.02452e-11
7.198e-13
1.13073e-12
8.3841e-13
1.08429e-12
1.45631e-12
2.00815e-12
2.8339e-12
4.07885e-12
7.65623e-12
1.49525e-11
6.87911e-13
1.05353e-12
7.60898e-13
9.76099e-13
1.30268e-12
1.7873e-12
2.50811e-12
3.56628e-12
5.70563e-12
1.11994e-11
3.64205e-10
5.09989e-12
6.9359e-13
8.81941e-13
1.16912e-12
1.59534e-12
2.22989e-12
3.14166e-12
4.28845e-12
8.47901e-12
1.19478e-07
1.64922e-08
4.41005e-11
7.43233e-13
1.04753e-12
1.42477e-12
1.98362e-12
2.77483e-12
3.23387e-12
6.46279e-12
1.48883e-12
2.35893e-12
1.62671e-12
1.90451e-12
2.28599e-12
2.83162e-12
3.80893e-12
5.99557e-12
1.64255e-11
2.41941e-11
1.40817e-12
2.20726e-12
1.51036e-12
1.77103e-12
2.12475e-12
2.60543e-12
3.36964e-12
4.90658e-12
1.26059e-11
1.86676e-11
1.32788e-12
2.05677e-12
1.3879e-12
1.62894e-12
1.95558e-12
2.38682e-12
3.01624e-12
4.12891e-12
9.55813e-12
1.43914e-11
1.25689e-12
1.92217e-12
1.27721e-12
1.49916e-12
1.80084e-12
2.19421e-12
2.73727e-12
3.58322e-12
7.25649e-12
1.11793e-11
1.19411e-12
1.80164e-12
1.17794e-12
1.38139e-12
1.66032e-12
2.02176e-12
2.50632e-12
3.18581e-12
5.51395e-12
8.7299e-12
1.13829e-12
1.69322e-12
1.08899e-12
1.27521e-12
1.53169e-12
1.86565e-12
2.30508e-12
2.88026e-12
4.19036e-12
6.84539e-12
1.08857e-12
1.59575e-12
1.00912e-12
1.17902e-12
1.41453e-12
1.72316e-12
2.12839e-12
2.63106e-12
3.18393e-12
5.38205e-12
1.04916e-12
1.5076e-12
9.37396e-13
1.09201e-12
1.30802e-12
1.59308e-12
1.96818e-12
2.42085e-12
2.41556e-12
4.23869e-12
4.87374e-10
7.55104e-12
8.7419e-13
1.01321e-12
1.21098e-12
1.47404e-12
1.82179e-12
2.23606e-12
1.82794e-12
3.34094e-12
9.64022e-08
2.29267e-08
7.01991e-11
9.42662e-13
1.11727e-12
1.36192e-12
1.68251e-12
2.06399e-12
1.36792e-12
2.62424e-12
2.10929e-12
2.99939e-12
1.57974e-12
1.60567e-12
1.66741e-12
1.79908e-12
2.14829e-12
2.97285e-12
6.78968e-12
8.36414e-12
2.02329e-12
2.86039e-12
1.52133e-12
1.56318e-12
1.6339e-12
1.74586e-12
1.99213e-12
2.55628e-12
5.50122e-12
6.98536e-12
1.93713e-12
2.71771e-12
1.4461e-12
1.50007e-12
1.58027e-12
1.68598e-12
1.87324e-12
2.25722e-12
4.34742e-12
5.73088e-12
1.85926e-12
2.58605e-12
1.37263e-12
1.43472e-12
1.5224e-12
1.62859e-12
1.78574e-12
2.056e-12
3.41894e-12
4.70074e-12
1.78891e-12
2.46469e-12
1.30208e-12
1.36978e-12
1.46302e-12
1.57194e-12
1.71495e-12
1.91847e-12
2.67056e-12
3.85496e-12
1.72525e-12
2.35299e-12
1.23548e-12
1.30581e-12
1.40252e-12
1.51488e-12
1.65357e-12
1.81837e-12
2.06692e-12
3.15595e-12
1.66753e-12
2.25007e-12
1.17263e-12
1.24391e-12
1.34208e-12
1.45696e-12
1.59537e-12
1.74002e-12
1.57733e-12
2.57717e-12
1.62011e-12
2.15516e-12
1.11369e-12
1.18466e-12
1.28299e-12
1.39887e-12
1.53757e-12
1.67352e-12
1.18195e-12
2.09682e-12
6.13151e-10
9.88544e-12
1.06055e-12
1.12805e-12
1.22543e-12
1.34139e-12
1.48038e-12
1.61341e-12
8.63884e-13
1.69794e-12
2.87315e-08
2.65124e-08
1.59094e-10
9.82434e-13
1.16393e-12
1.28214e-12
1.41929e-12
1.55081e-12
5.97039e-13
1.36404e-12
2.96725e-12
3.73625e-12
1.40242e-12
1.21487e-12
1.06853e-12
1.00307e-12
1.13705e-12
1.5468e-12
3.41744e-12
3.80281e-12
2.8813e-12
3.62492e-12
1.40432e-12
1.24936e-12
1.12156e-12
1.03664e-12
1.07993e-12
1.34311e-12
2.93092e-12
3.37847e-12
2.79472e-12
3.50616e-12
1.38358e-12
1.25865e-12
1.15265e-12
1.06664e-12
1.05695e-12
1.20176e-12
2.41556e-12
2.90641e-12
2.7148e-12
3.39258e-12
1.35535e-12
1.25569e-12
1.17071e-12
1.09299e-12
1.05763e-12
1.11882e-12
1.97362e-12
2.49555e-12
2.64094e-12
3.28466e-12
1.32303e-12
1.24473e-12
1.1789e-12
1.11348e-12
1.06947e-12
1.07861e-12
1.59501e-12
2.138e-12
2.57287e-12
3.18235e-12
1.28781e-12
1.2275e-12
1.17872e-12
1.12717e-12
1.08486e-12
1.06477e-12
1.26993e-12
1.82673e-12
2.51005e-12
3.08572e-12
1.25108e-12
1.20588e-12
1.17203e-12
1.13416e-12
1.09921e-12
1.06516e-12
9.91964e-13
1.55604e-12
2.45716e-12
2.99463e-12
1.21384e-12
1.18132e-12
1.16014e-12
1.13491e-12
1.10945e-12
1.07216e-12
7.54395e-13
1.3218e-12
7.47008e-10
1.16251e-11
1.17932e-12
1.15467e-12
1.14442e-12
1.13056e-12
1.115e-12
1.08112e-12
5.52654e-13
1.1205e-12
4.9252e-08
2.53522e-08
1.55964e-10
1.04963e-12
1.12082e-12
1.11972e-12
1.11317e-12
1.0854e-12
3.76057e-13
9.51182e-13
4.01734e-12
4.46081e-12
1.07722e-12
7.60295e-13
4.95121e-13
3.49036e-13
4.86363e-13
7.95298e-13
2.06495e-12
2.08782e-12
3.93757e-12
4.39073e-12
1.12337e-12
8.42643e-13
6.00619e-13
4.19508e-13
4.30232e-13
6.52897e-13
1.89785e-12
1.97818e-12
3.85841e-12
4.31343e-12
1.14697e-12
9.01053e-13
6.84748e-13
4.9923e-13
4.26675e-13
5.47006e-13
1.65292e-12
1.78293e-12
3.78357e-12
4.23529e-12
1.15893e-12
9.4375e-13
7.51579e-13
5.74038e-13
4.59292e-13
4.84255e-13
1.43431e-12
1.60638e-12
3.71283e-12
4.158e-12
1.16269e-12
9.7471e-13
8.05327e-13
6.40661e-13
5.09491e-13
4.64103e-13
1.23964e-12
1.44669e-12
3.64671e-12
4.08213e-12
1.15988e-12
9.96446e-13
8.48225e-13
6.98674e-13
5.64883e-13
4.7656e-13
1.06776e-12
1.30317e-12
3.58458e-12
4.00809e-12
1.15215e-12
1.01058e-12
8.81422e-13
7.47672e-13
6.19095e-13
5.08853e-13
9.17775e-13
1.17524e-12
3.53108e-12
3.93652e-12
1.14077e-12
1.01861e-12
9.06904e-13
7.88464e-13
6.68916e-13
5.50906e-13
7.88709e-13
1.06193e-12
8.71334e-10
1.25571e-11
1.12992e-12
1.02164e-12
9.26252e-13
8.2218e-13
7.12965e-13
5.95892e-13
6.80746e-13
9.62952e-13
1.34809e-07
1.85401e-08
1.44071e-10
1.07509e-12
9.36907e-13
8.47842e-13
7.49986e-13
6.37383e-13
5.93243e-13
8.82538e-13
5.05738e-12
5.02783e-12
7.44458e-13
4.98848e-13
2.72e-13
1.53243e-13
2.6765e-13
4.56839e-13
1.48454e-12
1.34477e-12
4.98763e-12
5.00308e-12
7.71811e-13
5.36392e-13
3.10692e-13
1.24645e-13
1.64286e-13
3.52826e-13
1.47528e-12
1.3667e-12
4.92068e-12
4.97401e-12
7.91629e-13
5.72624e-13
3.60292e-13
1.61976e-13
7.69844e-14
2.54567e-13
1.3685e-12
1.29209e-12
4.85585e-12
4.94e-12
8.077e-13
6.05768e-13
4.10009e-13
2.1991e-13
4.498e-14
1.6439e-13
1.27129e-12
1.2231e-12
4.79396e-12
4.90314e-12
8.20498e-13
6.3598e-13
4.57151e-13
2.80262e-13
1.07814e-13
8.62734e-14
1.18254e-12
1.15913e-12
4.73471e-12
4.86407e-12
8.29979e-13
6.62199e-13
4.99987e-13
3.3696e-13
1.75889e-13
4.73607e-14
1.10214e-12
1.1005e-12
4.6783e-12
4.82383e-12
8.36431e-13
6.84593e-13
5.38184e-13
3.88921e-13
2.38814e-13
9.05444e-14
1.03031e-12
1.04693e-12
4.62941e-12
4.78337e-12
8.39825e-13
7.03073e-13
5.7155e-13
4.35339e-13
2.95948e-13
1.5094e-13
9.66394e-13
9.98511e-13
9.68141e-10
1.27235e-11
8.4516e-13
7.18284e-13
6.00643e-13
4.76685e-13
3.48093e-13
2.09648e-13
9.1053e-13
9.54771e-13
2.12524e-07
9.36305e-09
9.41584e-11
8.40915e-13
6.24998e-13
5.13274e-13
3.95181e-13
2.6505e-13
8.62451e-13
9.24538e-13
5.73755e-12
5.32233e-12
6.37746e-13
6.0786e-13
5.108e-13
4.41661e-13
4.0047e-13
3.9763e-13
1.24407e-12
1.03172e-12
5.6749e-12
5.32779e-12
5.69486e-13
5.47288e-13
4.58238e-13
3.93805e-13
3.55073e-13
3.56999e-13
1.30867e-12
1.11062e-12
5.61717e-12
5.33272e-12
5.09611e-13
4.93027e-13
4.11008e-13
3.49376e-13
3.12083e-13
3.14953e-13
1.26647e-12
1.08771e-12
5.56084e-12
5.33136e-12
4.61523e-13
4.47389e-13
3.70834e-13
3.1148e-13
2.73746e-13
2.7627e-13
1.22626e-12
1.06525e-12
5.50625e-12
5.32513e-12
4.24583e-13
4.10769e-13
3.39175e-13
2.80662e-13
2.40753e-13
2.40849e-13
1.18804e-12
1.04419e-12
5.45402e-12
5.31549e-12
3.97566e-13
3.81978e-13
3.14315e-13
2.56227e-13
2.13603e-13
2.09836e-13
1.15172e-12
1.02372e-12
5.40353e-12
5.30281e-12
3.77971e-13
3.59813e-13
2.96167e-13
2.38855e-13
1.93278e-13
1.82818e-13
1.11724e-12
1.00467e-12
5.35986e-12
5.28819e-12
3.64626e-13
3.4323e-13
2.83748e-13
2.27356e-13
1.78699e-13
1.61166e-13
1.08468e-12
9.8599e-13
1.02096e-09
1.24266e-11
3.63651e-13
3.31548e-13
2.7606e-13
2.21626e-13
1.71475e-13
1.45685e-13
1.05333e-12
9.68174e-13
2.60475e-07
6.54744e-09
6.72134e-11
3.77733e-13
2.73697e-13
2.23681e-13
1.74858e-13
1.44243e-13
1.02489e-12
9.78031e-13
5.74372e-12
5.29295e-12
6.44216e-13
6.33602e-13
5.4044e-13
4.66425e-13
4.12041e-13
3.90489e-13
1.17455e-12
9.84633e-13
5.68086e-12
5.30069e-12
5.60067e-13
5.64066e-13
4.83845e-13
4.19233e-13
3.71754e-13
3.57747e-13
1.2492e-12
1.06742e-12
5.62339e-12
5.3085e-12
4.84702e-13
5.00052e-13
4.30771e-13
3.73763e-13
3.31709e-13
3.2129e-13
1.21497e-12
1.04806e-12
5.56737e-12
5.30984e-12
4.21046e-13
4.43642e-13
3.83382e-13
3.32822e-13
2.95032e-13
2.87652e-13
1.1822e-12
1.02923e-12
5.51343e-12
5.30649e-12
3.69447e-13
3.95859e-13
3.42762e-13
2.9677e-13
2.62032e-13
2.56381e-13
1.1507e-12
1.01143e-12
5.46151e-12
5.29943e-12
3.28844e-13
3.55809e-13
3.08408e-13
2.66019e-13
2.32856e-13
2.27581e-13
1.12074e-12
9.94543e-13
5.4114e-12
5.28913e-12
2.98084e-13
3.22613e-13
2.79887e-13
2.40171e-13
2.07881e-13
2.01812e-13
1.09191e-12
9.78462e-13
5.36821e-12
5.27694e-12
2.76322e-13
2.96009e-13
2.56935e-13
2.1925e-13
1.86848e-13
1.79129e-13
1.06452e-12
9.63049e-13
1.02096e-09
1.24233e-11
2.71493e-13
2.75239e-13
2.39312e-13
2.03566e-13
1.71228e-13
1.60303e-13
1.03797e-12
9.48298e-13
2.60475e-07
6.54744e-09
6.71914e-11
3.00064e-13
2.27973e-13
1.96398e-13
1.65728e-13
1.52868e-13
1.0136e-12
9.71223e-13
5.06686e-12
4.94791e-12
6.99568e-13
5.15038e-13
3.33165e-13
2.28464e-13
2.62806e-13
3.94011e-13
1.24531e-12
1.19003e-12
4.9988e-12
4.93155e-12
7.03629e-13
5.21603e-13
3.35825e-13
1.94786e-13
1.82858e-13
3.09349e-13
1.26933e-12
1.22391e-12
4.93388e-12
4.9114e-12
7.09707e-13
5.36113e-13
3.56464e-13
1.9769e-13
1.18869e-13
2.24801e-13
1.19151e-12
1.16206e-12
4.87116e-12
4.88585e-12
7.17289e-13
5.53904e-13
3.84908e-13
2.24411e-13
9.02185e-14
1.46145e-13
1.12042e-12
1.10504e-12
4.81117e-12
4.85722e-12
7.25643e-13
5.73551e-13
4.17069e-13
2.63379e-13
1.14321e-13
7.55927e-14
1.05563e-12
1.05287e-12
4.75364e-12
4.82582e-12
7.33527e-13
5.93154e-13
4.49767e-13
3.05909e-13
1.61449e-13
3.17268e-14
9.97533e-13
1.00569e-12
4.69883e-12
4.79275e-12
7.40081e-13
6.11345e-13
4.80974e-13
3.47929e-13
2.1233e-13
7.11028e-14
9.45739e-13
9.63192e-13
4.65148e-12
4.75868e-12
7.45095e-13
6.27694e-13
5.09818e-13
3.87489e-13
2.61388e-13
1.26575e-13
8.99913e-13
9.25132e-13
9.68143e-10
1.27183e-11
7.52618e-13
6.42019e-13
5.35995e-13
4.2431e-13
3.07566e-13
1.80265e-13
8.60213e-13
8.91817e-13
2.12524e-07
9.36305e-09
9.41179e-11
7.58907e-13
5.58768e-13
4.57724e-13
3.50522e-13
2.31982e-13
8.26644e-13
8.819e-13
4.02298e-12
4.35904e-12
9.50303e-13
6.54676e-13
3.94511e-13
2.17144e-13
3.33769e-13
6.08942e-13
1.53648e-12
1.75332e-12
3.94919e-12
4.30529e-12
9.98713e-13
7.33372e-13
4.98222e-13
3.06183e-13
2.92318e-13
4.94107e-13
1.44642e-12
1.67651e-12
3.87564e-12
4.24292e-12
1.0288e-12
7.93929e-13
5.8386e-13
3.96842e-13
3.05081e-13
4.067e-13
1.2689e-12
1.51371e-12
3.80503e-12
4.17822e-12
1.04819e-12
8.40301e-13
6.53056e-13
4.77283e-13
3.51743e-13
3.58844e-13
1.1095e-12
1.36636e-12
3.73827e-12
4.11294e-12
1.05999e-12
8.766e-13
7.10178e-13
5.47936e-13
4.11872e-13
3.52396e-13
9.67681e-13
1.23383e-12
3.67512e-12
4.04776e-12
1.06522e-12
9.0377e-13
7.56851e-13
6.09403e-13
4.74034e-13
3.76496e-13
8.43294e-13
1.11565e-12
3.61561e-12
3.98337e-12
1.06548e-12
9.23791e-13
7.9455e-13
6.61807e-13
5.32633e-13
4.18052e-13
7.35784e-13
1.01122e-12
3.56429e-12
3.92036e-12
1.06132e-12
9.37726e-13
8.2485e-13
7.06239e-13
5.86132e-13
4.66426e-13
6.45925e-13
9.19905e-13
8.71337e-10
1.25576e-11
1.05718e-12
9.46948e-13
8.48915e-13
7.43698e-13
6.33742e-13
5.15898e-13
5.73476e-13
8.41707e-13
1.34809e-07
1.85401e-08
1.44041e-10
1.00793e-12
8.64749e-13
7.73363e-13
6.74002e-13
5.61339e-13
5.18656e-13
7.84968e-13
2.97463e-12
3.64558e-12
1.24339e-12
1.03721e-12
8.77339e-13
7.89086e-13
8.6524e-13
1.16257e-12
2.26236e-12
3.04093e-12
2.89831e-12
3.55665e-12
1.26656e-12
1.09102e-12
9.47956e-13
8.458e-13
8.50621e-13
1.03329e-12
1.97575e-12
2.72434e-12
2.81906e-12
3.45668e-12
1.26548e-12
1.11895e-12
9.96696e-13
8.95589e-13
8.58527e-13
9.46764e-13
1.63024e-12
2.345e-12
2.74472e-12
3.35893e-12
1.25479e-12
1.13315e-12
1.03072e-12
9.38215e-13
8.81686e-13
9.04242e-13
1.32791e-12
2.01335e-12
2.67508e-12
3.26406e-12
1.23761e-12
1.13782e-12
1.05365e-12
9.73056e-13
9.11694e-13
8.92824e-13
1.06595e-12
1.72371e-12
2.61023e-12
3.17295e-12
1.21593e-12
1.13476e-12
1.06742e-12
1.00003e-12
9.41905e-13
9.00307e-13
8.38693e-13
1.47121e-12
2.54986e-12
3.0855e-12
1.19098e-12
1.12598e-12
1.07343e-12
1.01902e-12
9.684e-13
9.17342e-13
6.4187e-13
1.25227e-12
2.49867e-12
3.0023e-12
1.16391e-12
1.1128e-12
1.07349e-12
1.03133e-12
9.89712e-13
9.37779e-13
4.71979e-13
1.06355e-12
7.47011e-10
1.16326e-11
1.13799e-12
1.09646e-12
1.0685e-12
1.03779e-12
1.00605e-12
9.58082e-13
3.28223e-13
9.02621e-13
4.9252e-08
2.53522e-08
1.55945e-10
1.00567e-12
1.05498e-12
1.03717e-12
1.01421e-12
9.72631e-13
2.00363e-13
7.70198e-13
2.12927e-12
2.94118e-12
1.42414e-12
1.38731e-12
1.38914e-12
1.44664e-12
1.64843e-12
2.14075e-12
3.92711e-12
6.25348e-12
2.05267e-12
2.82676e-12
1.39857e-12
1.38235e-12
1.39676e-12
1.44561e-12
1.58632e-12
1.92162e-12
3.25545e-12
5.27549e-12
1.97254e-12
2.70247e-12
1.35092e-12
1.35176e-12
1.37884e-12
1.42844e-12
1.53546e-12
1.7619e-12
2.59553e-12
4.34278e-12
1.89869e-12
2.58525e-12
1.29989e-12
1.31399e-12
1.3521e-12
1.40685e-12
1.49912e-12
1.65701e-12
2.05295e-12
3.57042e-12
1.83125e-12
2.47538e-12
1.24779e-12
1.27234e-12
1.31981e-12
1.38081e-12
1.4691e-12
1.58774e-12
1.60897e-12
2.93036e-12
1.76922e-12
2.37244e-12