/*--------------------------------*- C++ -*----------------------------------*\
| =========                 |                                                 |
| \\      /  F ield         | OpenFOAM: The Open Source CFD Toolbox           |
|  \\    /   O peration     | Version:  4.1                                   |
|   \\  /    A nd           | Web:      www.OpenFOAM.org                      |
|    \\/     M anipulation  |                                                 |
\*---------------------------------------------------------------------------*/
FoamFile
{
    version     2.0;
    format      ascii;
    class       surfaceScalarField;
    location    "0.24";
    object      phi;
}
// * * * * * * * * * * * * * * * * * * * * * * * * * * * * * * * * * * * * * //

dimensions      [1 0 -1 0 0 0 0];

internalField   nonuniform List<scalar> 
51500
(
3.69668e-13
1.00642e-14
1.54566e-11
-2.00726e-15
1.76696e-14
1.52769e-11
-2.12031e-15
1.69031e-14
1.50996e-11
-2.13486e-15
1.59792e-14
1.49243e-11
-2.08624e-15
1.4976e-14
1.47515e-11
-2.06466e-15
1.39173e-14
1.45809e-11
-2.07317e-15
1.2826e-14
1.44126e-11
-2.04433e-15
1.1718e-14
1.42468e-11
-2.01723e-15
1.05834e-14
1.40833e-11
9.43272e-15
1.39238e-11
-7.32921e-17
3.75294e-13
7.29981e-15
1.94732e-11
-9.4992e-15
9.38357e-15
1.87651e-11
-8.05455e-15
8.20445e-15
1.8087e-11
-7.89732e-15
7.16031e-15
1.74375e-11
-7.67982e-15
6.04408e-15
1.68166e-11
-7.4723e-15
4.8405e-15
1.62225e-11
-7.27242e-15
3.70546e-15
1.56539e-11
-7.08865e-15
2.64678e-15
1.51095e-11
-6.78073e-15
1.64866e-15
1.45877e-11
7.18055e-16
1.40931e-11
-7.40293e-16
3.78791e-13
9.18253e-15
2.4853e-11
-1.94588e-14
9.64518e-15
2.32875e-11
-1.57584e-14
8.01549e-15
2.18373e-11
-1.50654e-14
6.54803e-15
2.04942e-11
-1.43644e-14
5.2302e-15
1.92508e-11
-1.37642e-14
4.04236e-15
1.80985e-11
-1.31501e-14
2.97825e-15
1.70304e-11
-1.26188e-14
2.01765e-15
1.60383e-11
-1.18391e-14
1.16259e-15
1.51166e-11
4.25582e-16
1.42654e-11
-1.41705e-15
3.78764e-13
1.17818e-14
3.21742e-11
-3.29092e-14
1.161e-14
2.92211e-11
-2.56535e-14
9.41084e-15
2.65889e-11
-2.39862e-14
7.4977e-15
2.4235e-11
-2.24294e-14
5.85186e-15
2.21323e-11
-2.10171e-14
4.43075e-15
2.02493e-11
-1.97216e-14
3.20136e-15
1.8559e-11
-1.85344e-14
2.12979e-15
1.70388e-11
-1.7089e-14
1.20246e-15
1.56689e-11
4.22762e-16
1.44407e-11
-2.16212e-15
3.72141e-13
1.54198e-14
4.23131e-11
-5.10117e-14
1.41821e-14
3.71141e-11
-3.85693e-14
1.11497e-14
3.26687e-11
-3.51445e-14
8.64706e-15
2.88485e-11
-3.20945e-14
6.58374e-15
2.55618e-11
-2.94097e-14
4.87371e-15
2.27224e-11
-2.70687e-14
3.44181e-15
2.02602e-11
-2.4958e-14
2.24735e-15
1.81179e-11
-2.2614e-14
1.24875e-15
1.62467e-11
4.4144e-16
1.46198e-11
-2.91997e-15
3.53874e-13
2.06646e-14
5.66263e-11
-8.44328e-14
1.76143e-14
4.77718e-11
-5.54843e-14
1.33829e-14
4.05378e-11
-4.91542e-14
1.00525e-14
3.45833e-11
-4.375e-14
7.44448e-15
2.96655e-11
-3.9202e-14
5.36752e-15
2.55764e-11
-3.52791e-14
3.71067e-15
2.21573e-11
-3.18883e-14
2.37284e-15
1.92823e-11
-2.83724e-14
1.29397e-15
1.68515e-11
4.42286e-16
1.48013e-11
-3.74288e-15
3.14006e-13
3.41224e-14
7.72701e-11
-1.43291e-13
3.6499e-14
6.24027e-11
-7.8044e-14
2.69864e-14
5.08428e-11
-6.69139e-14
1.8295e-14
4.17748e-11
-5.79358e-14
1.06452e-14
3.46049e-11
-5.05621e-14
7.57238e-15
2.88827e-11
-4.44935e-14
5.19924e-15
2.4277e-11
-3.93962e-14
3.36251e-15
2.05402e-11
-3.4433e-14
1.92005e-15
1.7485e-11
7.75886e-16
1.4986e-11
-4.58097e-15
2.40615e-13
-2.25528e-14
1.07777e-10
-2.14261e-13
-2.89589e-14
8.28441e-11
-1.08294e-13
-3.92186e-14
6.45163e-11
-8.95882e-14
-4.61877e-14
5.08723e-11
-7.51353e-14
-5.10371e-14
4.05857e-11
-6.38317e-14
-5.44594e-14
3.27272e-11
-5.47703e-14
-5.68965e-14
2.66514e-11
-4.74547e-14
-5.86624e-14
2.19012e-11
-4.06879e-14
-5.99549e-14
1.81482e-11
-6.13731e-14
1.51749e-11
-5.47761e-15
1.45171e-12
-3.28725e-10
1.54274e-10
9.10247e-13
-3.3974e-10
1.1203e-10
8.2545e-13
-3.40021e-10
8.33921e-11
7.49679e-13
-3.40134e-10
6.33905e-11
6.81924e-13
-3.4016e-10
4.91889e-11
6.2173e-13
-3.40127e-10
3.89379e-11
5.68352e-13
-3.40054e-10
3.14323e-11
5.21015e-13
-3.39954e-10
2.58679e-11
4.77718e-13
-3.39839e-10
2.16952e-11
-3.42087e-10
1.85826e-11
-6.41371e-15
-3.44326e-11
6.00383e-08
-8.94896e-07
1.35605e-10
5.02132e-08
-9.38465e-07
1.32193e-10
4.34449e-08
-9.40118e-07
1.27509e-10
3.79422e-08
-9.41475e-07
1.22754e-10
3.34097e-08
-9.42636e-07
1.1807e-10
2.96346e-08
-9.43641e-07
1.13541e-10
2.64589e-08
-9.44521e-07
1.09208e-10
2.37634e-08
-9.453e-07
8.66161e-11
2.14571e-08
-9.46006e-07
1.95993e-08
-7.38884e-15
-9.60476e-07
3.44194e-13
9.34889e-14
2.5306e-13
-2.06923e-14
8.78891e-14
2.48402e-13
-2.60986e-14
7.73751e-14
2.44131e-13
-2.55831e-14
6.72001e-14
2.38823e-13
-2.53076e-14
5.73752e-14
2.34035e-13
-2.50591e-14
4.78832e-14
2.29896e-13
-2.48977e-14
3.87143e-14
2.25111e-13
-2.46838e-14
2.9862e-14
2.21157e-13
-2.68541e-14
2.12896e-14
2.17148e-13
1.30813e-14
2.12959e-13
-1.57751e-15
2.83322e-13
8.91175e-14
3.54538e-13
-7.52386e-14
8.07454e-14
3.35866e-13
-8.9026e-14
6.83509e-14
3.18934e-13
-8.61722e-14
5.65665e-14
3.01132e-13
-8.37245e-14
4.53289e-14
2.84908e-13
-8.13748e-14
3.41821e-14
2.69339e-13
-7.90942e-14
2.21256e-14
2.55236e-13
-7.72686e-14
1.43873e-14
2.41999e-13
-8.21006e-14
7.94351e-15
2.29957e-13
2.62331e-15
2.17621e-13
-4.34743e-15
1.91791e-13
1.12748e-13
5.03714e-13
-1.90472e-13
9.99454e-14
4.58711e-13
-1.7015e-13
8.3354e-14
4.20826e-13
-1.61524e-13
6.82419e-14
3.82253e-13
-1.53742e-13
5.4615e-14
3.48338e-13
-1.46475e-13
4.23244e-14
3.1803e-13
-1.39652e-13
3.12395e-14
2.90721e-13
-1.33586e-13
2.12641e-14
2.66165e-13
-1.39844e-13
1.23006e-14
2.43945e-13
4.29769e-15
2.23451e-13
-7.13947e-15
6.58366e-14
1.39273e-13
7.31349e-13
-3.2822e-13
1.19926e-13
6.39595e-13
-2.74999e-13
9.76155e-14
5.63224e-13
-2.55154e-13
7.80779e-14
4.91387e-13
-2.37653e-13
6.10746e-14
4.30412e-13
-2.21767e-13
4.62974e-14
3.78084e-13
-2.07159e-13
3.34766e-14
3.33236e-13
-1.94251e-13
2.23473e-14
2.94894e-13
-1.99533e-13
1.26706e-14
2.60624e-13
4.35389e-15
2.29774e-13
-1.00755e-14
-6.73576e-14
1.74118e-13
1.08764e-12
-5.04564e-13
1.45362e-13
9.09696e-13
-4.10283e-13
1.15206e-13
7.65925e-13
-3.7162e-13
8.97974e-14
6.38966e-13
-3.38216e-13
6.85597e-14
5.36982e-13
-3.08597e-13
5.07862e-14
4.5328e-13
-2.82242e-13
3.59075e-14
3.84309e-13
-2.59547e-13
2.34635e-14
3.2733e-13
-2.61428e-13
1.30527e-14
2.79724e-13
4.39458e-15
2.37154e-13
-1.32179e-14
-2.43003e-13
2.20607e-13
1.66197e-12
-7.36807e-13
1.78195e-13
1.31801e-12
-5.85425e-13
1.37074e-13
1.05611e-12
-5.16442e-13
1.03933e-13
8.40192e-13
-4.58622e-13
7.72815e-14
6.75045e-13
-4.08849e-13
5.58296e-14
5.46603e-13
-3.65798e-13
3.85781e-14
4.45791e-13
-3.29462e-13
2.46665e-14
3.66046e-13
-3.25742e-13
1.34655e-14
3.02014e-13
4.42697e-15
2.46114e-13
-1.6294e-14
-7.00624e-13
2.81669e-13
2.60742e-12
-1.04802e-12
2.20285e-13
1.95379e-12
-8.12312e-13
1.6414e-13
1.47879e-12
-6.96912e-13
1.20769e-13
1.11651e-12
-6.02886e-13
8.73534e-14
8.55564e-13
-5.24332e-13
6.1572e-14
6.63042e-13
-4.58653e-13
4.15931e-14
5.19062e-13
-4.04214e-13
2.61165e-14
4.10882e-13
-3.92616e-13
1.40808e-14
3.26447e-13
4.79202e-15
2.56446e-13
-1.94001e-14
-1.26741e-12
3.34281e-13
4.22254e-12
-1.46959e-12
2.43972e-13
2.9628e-12
-1.10731e-12
1.72974e-13
2.10477e-12
-9.21745e-13
1.21985e-13
1.50307e-12
-7.75279e-13
8.49741e-14
1.09482e-12
-6.57453e-13
5.78119e-14
8.09497e-13
-5.61527e-13
3.77075e-14
6.08053e-13
-4.84398e-13
2.27141e-14
4.62173e-13
-4.61758e-13
1.14666e-14
3.54713e-13
3.0508e-15
2.67717e-13
-2.26351e-14
-2.12667e-12
1.02115e-11
7.25404e-12
-2.01705e-12
-4.64852e-14
4.19206e-12
-1.45075e-12
-5.53519e-13
2.76006e-12
-1.1781e-12
-1.01316e-12
1.8514e-12
-9.69377e-13
-1.45422e-12
1.28438e-12
-8.05845e-13
-1.87429e-12
9.18164e-13
-6.7633e-13
-2.27263e-12
6.76268e-13
-5.74613e-13
-2.64937e-12
5.13017e-13
-5.44133e-13
-3.00521e-12
3.98985e-13
-3.32446e-12
3.0877e-13
-2.59038e-14
-3.0833e-10
3.06214e-09
3.9025e-08
-1.52127e-10
1.07345e-09
-8.25979e-10
-1.46428e-10
7.9225e-10
-8.355e-10
-1.38656e-10
6.00623e-10
-8.09843e-10
-1.31576e-10
4.63779e-10
-7.84274e-10
-1.25114e-10
3.64042e-10
-7.59981e-10
-1.19204e-10
2.90046e-10
-7.37427e-10
-1.13786e-10
2.3427e-10
-7.16817e-10
-1.08957e-10
1.91617e-10
-6.98828e-10
1.57914e-10
-2.9376e-14
-6.6134e-10
3.47984e-13
8.1618e-14
1.1844e-14
-1.79625e-14
7.75032e-14
1.03028e-14
-2.11291e-14
6.83883e-14
8.90952e-15
-1.98453e-14
5.95766e-14
7.41357e-15
-1.89131e-14
5.10614e-14
5.98365e-15
-1.96071e-14
4.27996e-14
4.24437e-15
-1.8711e-14
3.48526e-14
3.35001e-15
-1.90148e-14
2.71547e-14
2.83357e-15
-2.33636e-14
1.97113e-14
2.05962e-15
1.2578e-14
2.0322e-15
-1.40903e-15
2.96855e-13
5.85948e-14
1.91893e-14
-6.57722e-14
5.38432e-14
1.68418e-14
-6.96803e-14
4.56148e-14
1.67251e-14
-6.57255e-14
3.78258e-14
1.33459e-14
-6.42137e-14
3.05565e-14
1.07071e-14
-6.16491e-14
2.38306e-14
8.77578e-15
-5.99293e-14
1.76072e-14
6.77023e-15
-5.93218e-14
1.19251e-14
5.2585e-15
-7.1246e-14
6.80527e-15
4.62584e-15
2.37415e-15
3.40181e-15
-4.40923e-15
2.18968e-13
7.47789e-14
2.80691e-14
-1.65668e-13
6.75087e-14
2.59511e-14
-1.31815e-13
5.67142e-14
2.65184e-14
-1.21809e-13
4.68446e-14
2.19654e-14
-1.15305e-13
3.78748e-14
1.81115e-14
-1.09199e-13
2.96836e-14
1.43927e-14
-1.03081e-13
2.22449e-14
1.22091e-14
-1.02121e-13
1.58026e-14
1.03621e-14
-1.21147e-13
9.33474e-15
8.61655e-15
3.31841e-15
6.61144e-15
-7.27283e-15
9.72283e-14
9.28754e-14
4.57425e-14
-2.88982e-13
8.12791e-14
4.45709e-14
-2.09163e-13
6.66387e-14
4.49686e-14
-1.83617e-13
5.3742e-14
3.66426e-14
-1.70765e-13
4.24995e-14
3.04493e-14
-1.59064e-13
3.26374e-14
2.5317e-14
-1.47095e-13
2.40079e-14
2.13456e-14
-1.47357e-13
1.63546e-14
1.80516e-14
-1.72923e-13
9.64258e-15
1.60355e-14
3.39425e-15
1.11999e-14
-1.03478e-14
-1.97096e-14
1.16981e-13
7.91651e-14
-4.45265e-13
9.88241e-14
7.80784e-14
-2.96178e-13
7.88516e-14
7.49701e-14
-2.62179e-13
6.19676e-14
6.15676e-14
-2.38639e-13
4.77982e-14
5.01877e-14
-2.1726e-13
3.58979e-14
4.14655e-14
-1.98098e-13
2.59054e-14
3.50799e-14
-1.87379e-13
1.77702e-14
3.01709e-14
-2.26639e-13
1.01021e-14
2.60737e-14
3.49372e-15
1.77218e-14
-1.33407e-14
-1.55002e-13
1.49451e-13
1.39577e-13
-6.49826e-13
1.21867e-13
1.38417e-13
-4.13586e-13
9.4176e-14
1.25022e-13
-3.6003e-13
7.19153e-14
1.00286e-13
-3.19455e-13
5.40316e-14
8.0949e-14
-2.84282e-13
3.95438e-14
6.58847e-14
-2.5372e-13
2.78179e-14
5.4699e-14
-2.31981e-13
1.87639e-14
4.61965e-14
-2.82468e-13
1.03672e-14
3.86502e-14
3.51578e-15
2.61305e-14
-1.65341e-14
-5.65552e-13
1.93983e-13
2.47612e-13
-9.2319e-13
1.51974e-13
2.41854e-13
-5.66211e-13
1.13489e-13
2.05723e-13
-4.81253e-13
8.4044e-14
1.60385e-13
-4.15891e-13
6.13814e-14
1.26073e-13
-3.61044e-13
4.38118e-14
1.00522e-13
-3.14807e-13
3.029e-14
8.17856e-14
-2.80788e-13
1.97093e-14
6.69415e-14
-3.40325e-13
1.0782e-14
5.56418e-14
3.6611e-15
3.63855e-14
-1.97388e-14
-1.09111e-12
3.02767e-13
4.45435e-13
-1.29131e-12
2.74754e-13
4.19584e-13
-7.65391e-13
1.98775e-13
3.36118e-13
-6.32356e-13
1.40272e-13
2.50938e-13
-5.30939e-13
9.81033e-14
1.91234e-13
-4.48878e-13
6.72894e-14
1.48601e-13
-3.82866e-13
4.44702e-14
1.1704e-13
-3.32287e-13
2.73664e-14
9.39457e-14
-4.00321e-13
1.42178e-14
7.6559e-14
3.44992e-15
4.81311e-14
-2.30536e-14
-1.91666e-12
1.0286e-11
1.65434e-12
-1.78466e-12
6.14892e-13
7.18745e-13
-1.02678e-12
3.97913e-13
5.36747e-13
-8.20913e-13
2.69035e-13
3.85656e-13
-6.68212e-13
1.78146e-13
2.83656e-13
-5.50043e-13
1.13278e-13
2.13151e-13
-4.57439e-13
6.66035e-14
1.53383e-13
-3.87723e-13
3.28301e-14
1.27294e-13
-4.62957e-13
8.23558e-15
1.01074e-13
-9.37717e-15
6.35255e-14
-2.64003e-14
-1.40701e-10
1.94015e-09
3.64313e-08
-7.68593e-12
2.55387e-11
3.13362e-11
-7.54478e-12
9.60912e-12
1.74781e-12
-6.14618e-12
6.24045e-12
3.06489e-12
-5.05256e-12
4.21101e-12
2.09213e-12
-4.2023e-12
2.93076e-12
2.45303e-12
-3.53203e-12
2.09179e-12
2.81989e-12
-2.99912e-12
1.5237e-12
3.02777e-12
-2.58768e-12
1.13118e-12
3.04986e-12
8.1874e-13
-2.99663e-14
3.82703e-12
3.47946e-13
8.12091e-14
1.08631e-14
-1.80967e-14
7.7149e-14
9.83766e-15
-2.09407e-14
6.80988e-14
8.52337e-15
-1.96065e-14
5.93209e-14
6.52525e-15
-1.92241e-14
5.08503e-14
4.24234e-15
-1.93104e-14
4.26575e-14
3.47247e-15
-1.79379e-14
3.47424e-14
2.10461e-15
-1.91287e-14
2.70733e-14
7.6411e-16
-2.31755e-14
1.96885e-14
4.10736e-16
1.25822e-14
6.19655e-17
-1.55084e-15
2.97222e-13
5.81207e-14
1.91338e-14
-6.55671e-14
5.34457e-14
1.7064e-14
-6.9098e-14
4.52763e-14
1.70482e-14
-6.46861e-14
3.75783e-14
1.3229e-14
-6.29171e-14
3.03747e-14
9.5296e-15
-6.07715e-14
2.36777e-14
7.06708e-15
-5.90694e-14
1.75256e-14
5.41229e-15
-5.81415e-14
1.18943e-14
4.20404e-15
-7.0903e-14
6.79357e-15
2.83686e-15
2.39829e-15
1.68513e-15
-4.36283e-15
2.20014e-13
7.40017e-14
2.75092e-14
-1.64905e-13
6.68426e-14
2.59056e-14
-1.29489e-13
5.61433e-14
2.76898e-14
-1.16095e-13
4.62866e-14
2.1231e-14
-1.11627e-13
3.73876e-14
1.72395e-14
-1.0372e-13
2.93202e-14
1.47201e-14
-9.89994e-14
2.18562e-14
1.13988e-14
-1.00985e-13
1.50926e-14
9.5196e-15
-1.20415e-13
9.2639e-15
8.09452e-15
3.23917e-15
5.73149e-15
-7.24854e-15
9.86585e-14
9.19107e-14
4.50779e-14
-2.87522e-13
8.04431e-14
4.53202e-14
-2.00626e-13
6.59128e-14
4.79022e-14
-1.79141e-13
5.31747e-14
3.90505e-14
-1.66985e-13
4.1973e-14
3.17154e-14
-1.55451e-13
3.21487e-14
2.72544e-14
-1.44586e-13
2.35716e-14
2.19574e-14
-1.41517e-13
1.60236e-14
1.91689e-14
-1.72079e-13
9.52059e-15
1.61659e-14
3.44114e-15
1.08039e-14
-1.03669e-14
-1.7337e-14
1.1573e-13
7.99837e-14
-4.4286e-13
9.78486e-14
8.35419e-14
-2.88994e-13
7.80438e-14
8.24013e-14
-2.58105e-13
6.12925e-14
6.64936e-14
-2.3473e-13
4.72732e-14
5.53773e-14
-2.13689e-13
3.54451e-14
4.55861e-14
-1.94943e-13
2.54372e-14
3.85399e-14
-1.82921e-13
1.70793e-14
3.31605e-14
-2.25632e-13
9.92736e-15
2.90564e-14
3.57655e-15
2.01661e-14
-1.33509e-14
-1.51561e-13
1.47786e-13
1.40206e-13
-6.46068e-13
1.20619e-13
1.47349e-13
-4.06531e-13
9.32001e-14
1.39432e-13
-3.55022e-13
7.11867e-14
1.11763e-13
-3.15216e-13
5.34415e-14
9.12689e-14
-2.80457e-13
3.90613e-14
7.57308e-14
-2.50307e-13
2.74226e-14
6.3236e-14
-2.28999e-13
1.79642e-14
5.25267e-14
-2.81203e-13
1.0387e-14
4.59255e-14
3.6298e-15
2.97875e-14
-1.66262e-14
-5.57209e-13
1.91815e-13
2.50487e-13
-9.17261e-13
1.5042e-13
2.62446e-13
-5.58143e-13
1.12385e-13
2.30623e-13
-4.7544e-13
8.31787e-14
1.81625e-13
-4.11042e-13
6.07243e-14
1.44742e-13
-3.56779e-13
4.33015e-14
1.17595e-13
-3.11638e-13
2.96689e-14
9.50766e-14
-2.77412e-13
1.90615e-14
8.00998e-14
-3.39123e-13
1.08428e-14
6.7546e-14
3.65003e-15
4.30607e-14
-1.98331e-14
-1.07833e-12
3.00766e-13
4.47511e-13
-1.28163e-12
1.83254e-13
4.56765e-13
-7.56215e-13
1.38306e-13
3.77012e-13
-6.25324e-13
9.94592e-14
2.88437e-13
-5.25342e-13
7.12951e-14
2.23311e-13
-4.44618e-13
5.30655e-14
1.75808e-13
-3.79348e-13
3.60372e-14
1.39581e-13
-3.28968e-13
2.26199e-14
1.13506e-13
-3.99414e-13
1.23282e-14
9.2561e-14
4.55356e-15
6.0774e-14
-2.30562e-14
-1.8991e-12
1.0278e-11
2.26953e-12
-1.76963e-12
3.18956e-13
7.99896e-13
-1.0163e-12
2.58287e-13
6.13061e-13
-8.13345e-13
1.73581e-13
4.49006e-13
-6.62507e-13
1.15852e-13
3.34084e-13
-5.45656e-13
7.59246e-14
2.5504e-13
-4.54044e-13
4.79532e-14
1.97489e-13
-3.84623e-13
2.81678e-14
1.56528e-13
-4.6172e-13
1.40395e-14
1.24169e-13
3.90206e-15
7.60582e-14
-2.65365e-14
-1.36234e-10
2.96475e-09
3.73511e-08
-2.4211e-12
1.28843e-11
3.36876e-11
-1.37916e-12
1.18221e-12
4.91573e-13
-1.10518e-12
7.92151e-13
3.65895e-13
-8.68687e-13
5.614e-13
2.82118e-13
-6.93495e-13
4.08315e-13
1.74655e-13
-5.61141e-13
3.04149e-13
1.1857e-13
-4.63451e-13
2.30873e-13
9.86698e-14
-5.40969e-13
1.78101e-13
8.51436e-14
1.09114e-13
-3.00719e-14
8.0906e-14
3.47799e-13
8.13383e-14
1.8675e-14
-1.83815e-14
7.72564e-14
1.60976e-14
-2.10562e-14
6.81917e-14
1.24258e-14
-2.01475e-14
5.93973e-14
8.30826e-15
-1.87216e-14
5.09104e-14
8.28386e-15
-1.94379e-14
4.26985e-14
4.12092e-15
-1.89056e-14
3.47841e-14
4.13959e-15
-1.88455e-14
2.71346e-14
3.07025e-15
-2.32148e-14
1.97295e-14
8.90811e-16
1.26218e-14
3.60617e-16
-1.65406e-15
2.96928e-13
5.8259e-14
2.93411e-14
-6.58988e-14
5.35675e-14
2.37547e-14
-6.92569e-14
4.53804e-14
2.19545e-14
-6.53758e-14
3.76474e-14
1.79544e-14
-6.28526e-14
3.0455e-14
1.24927e-14
-6.0923e-14
2.37587e-14
9.99505e-15
-5.87943e-14
1.7587e-14
7.05339e-15
-5.85351e-14
1.19455e-14
6.73479e-15
-7.09599e-14
6.84745e-15
5.16064e-15
2.44829e-15
2.12643e-15
-4.37237e-15
2.1951e-13
7.4214e-14
4.05728e-14
-1.65583e-13
6.7032e-14
3.64181e-14
-1.30436e-13
5.63159e-14
3.81274e-14
-1.15808e-13
4.64703e-14
3.13767e-14
-1.1084e-13
3.75097e-14
2.41017e-14
-1.0466e-13
2.94313e-14
1.84612e-14
-9.87448e-14
2.1955e-14
1.64381e-14
-1.01285e-13
1.51855e-14
1.24422e-14
-1.20456e-13
9.21563e-15
1.34464e-14
3.12262e-15
6.86706e-15
-7.40488e-15
9.81136e-14
9.22992e-14
6.9751e-14
-2.88449e-13
8.0794e-14
6.68978e-14
-2.01553e-13
6.61765e-14
6.47421e-14
-1.79736e-13
5.33793e-14
5.30779e-14
-1.66981e-13
4.21772e-14
4.41635e-14
-1.56137e-13
3.22678e-14
3.43219e-14
-1.44569e-13
2.37048e-14
3.46985e-14
-1.42319e-13
1.61636e-14
2.76841e-14
-1.72276e-13
9.74337e-15
2.55268e-14
3.67262e-15
1.89499e-14
-1.02431e-14
-1.83315e-14
1.16301e-13
1.08909e-13
-4.44463e-13
9.83224e-14
1.13036e-13
-2.90056e-13
7.84663e-14
1.11911e-13
-2.58609e-13
6.16451e-14
9.25651e-14
-2.35586e-13
4.75536e-14
7.89994e-14
-2.14102e-13
3.57389e-14
6.80328e-14
-1.9533e-13
2.56838e-14
5.73221e-14
-1.83284e-13
1.71714e-14
4.58201e-14
-2.25997e-13
1.00104e-14
4.20924e-14
3.63828e-15
2.53616e-14
-1.33997e-14
-1.53199e-13
1.48715e-13
2.00965e-13
-6.48564e-13
1.21412e-13
2.05464e-13
-4.08237e-13
9.38164e-14
1.8844e-13
-3.5624e-13
7.16901e-14
1.52265e-13
-3.16172e-13
5.38601e-14
1.22968e-13
-2.81357e-13
3.93912e-14
1.05098e-13
-2.51154e-13
2.76648e-14
8.35332e-14
-2.29363e-13
1.82827e-14
7.67253e-14
-2.81958e-13
1.06628e-14
6.23818e-14
3.83453e-15
4.09505e-14
-1.65623e-14
-5.61799e-13
1.93279e-13
3.50566e-13
-9.21608e-13
1.51572e-13
3.57162e-13
-5.60712e-13
1.13287e-13
3.19327e-13
-4.77518e-13
8.38986e-14
2.44048e-13
-4.12703e-13
6.13016e-14
1.99115e-13
-3.58374e-13
4.37637e-14
1.57215e-13
-3.12691e-13
3.00617e-14
1.29646e-13
-2.7834e-13
1.92924e-14
1.05682e-13
-3.40378e-13
1.10752e-14
8.84989e-14
3.98359e-15
5.85641e-14
-1.98188e-14
-1.08703e-12
3.03495e-13
6.21404e-13
-1.28884e-12
1.84585e-13
6.27096e-13
-7.6044e-13
1.39143e-13
5.10883e-13
-6.28777e-13
1.00005e-13
3.88729e-13
-5.28085e-13
7.15178e-14
3.01661e-13
-4.4699e-13
5.29222e-14
2.34802e-13
-3.81147e-13
3.63236e-14
1.90175e-13
-3.30612e-13
2.29387e-14
1.52761e-13
-4.01186e-13
1.26143e-14
1.24926e-13
4.79065e-15
8.08914e-14
-2.31514e-14
-1.91527e-12
1.02816e-11
3.03576e-12
-1.78163e-12
3.16032e-13
1.08907e-12
-1.02333e-12
2.41776e-13
8.27783e-13
-8.1891e-13
1.62901e-13
6.03664e-13
-6.66775e-13
1.06017e-13
4.56089e-13
-5.49228e-13
6.50717e-14
3.46863e-13
-4.56791e-13
3.05492e-14
2.67743e-13
-3.87028e-13
1.6894e-14
2.10014e-13
-4.64469e-13
8.67867e-15
1.69625e-13
3.25255e-15
1.10482e-13
-2.65534e-14
-1.3744e-10
3.8617e-09
3.80871e-08
-2.34999e-12
1.89148e-11
3.44321e-11
-1.32254e-12
1.28544e-12
1.9024e-13
-1.05861e-12
8.76964e-13
8.90017e-14
-8.3392e-13
6.29856e-13
6.5908e-14
-6.66905e-13
4.64416e-13
5.05252e-14
-5.40737e-13
3.49201e-13
3.95582e-14
-4.46877e-13
2.67655e-13
3.14953e-14
-5.30031e-13
2.07183e-13
2.54192e-14
1.27146e-13
-3.01716e-14
2.08283e-14
3.47506e-13
8.15007e-14
1.93847e-14
-1.87394e-14
7.73952e-14
1.56287e-14
-2.1543e-14
6.82957e-14
1.71029e-14
-1.99077e-14
5.94997e-14
1.29605e-14
-1.96818e-14
5.09729e-14
7.43288e-15
-1.92393e-14
4.27658e-14
5.08017e-15
-1.88863e-14
3.48298e-14
2.57373e-15
-1.92323e-14
2.71801e-14
1.52096e-15
-2.32615e-14
1.97834e-14
9.50198e-16
1.26639e-14
3.22891e-16
-1.53371e-15
2.96481e-13
5.8441e-14
3.359e-14
-6.63998e-14
5.37287e-14
3.24447e-14
-6.92663e-14
4.55307e-14
3.11783e-14
-6.62115e-14
3.77622e-14
2.2376e-14
-6.25815e-14
3.05667e-14
2.01184e-14
-6.1418e-14
2.38469e-14
1.27715e-14
-5.83262e-14
1.76697e-14
8.89737e-15
-5.86512e-14
1.20141e-14
5.82527e-15
-7.11019e-14
6.91801e-15
5.53434e-15
2.50744e-15
3.96309e-15
-4.38798e-15
2.18794e-13
7.45346e-14
4.73785e-14
-1.66507e-13
6.73038e-14
4.7267e-14
-1.30963e-13
5.65294e-14
4.73113e-14
-1.16306e-13
4.66619e-14
4.10094e-14
-1.11291e-13
3.76712e-14
3.19957e-14
-1.046e-13
2.95277e-14
2.59359e-14
-9.93268e-14
2.21443e-14
1.87954e-14
-1.00799e-13
1.53902e-14
1.91218e-14
-1.20694e-13
9.20189e-15
1.29388e-14
3.4743e-15
9.95606e-15
-7.38298e-15
9.73045e-14
9.27632e-14
8.15675e-14
-2.89772e-13
8.1217e-14
8.17274e-14
-2.01841e-13
6.65407e-14
8.54554e-14
-1.80227e-13
5.36884e-14
7.09844e-14
-1.68144e-13
4.24607e-14
5.66917e-14
-1.55642e-13
3.25783e-14
4.57897e-14
-1.45305e-13
2.38727e-14
3.5916e-14
-1.426e-13
1.62722e-14
3.50177e-14
-1.72491e-13
9.89984e-15
2.77e-14
3.68375e-15
1.72734e-14
-1.03331e-14
-1.96859e-14
1.17113e-13
1.46315e-13
-4.46508e-13
9.90041e-14
1.51993e-13
-2.91337e-13
7.90096e-14
1.48819e-13
-2.59541e-13
6.20964e-14
1.21149e-13
-2.36352e-13
4.78965e-14
9.67859e-14
-2.14926e-13
3.60229e-14
7.92435e-14
-1.95924e-13
2.59183e-14
6.31399e-14
-1.83504e-13
1.74541e-14
5.60682e-14
-2.26584e-13
1.01762e-14
4.68519e-14
3.90831e-15
3.17681e-14
-1.33689e-14
-1.55444e-13
1.49949e-13
2.43017e-13
-6.5199e-13
1.22422e-13
2.70732e-13
-4.10302e-13
9.46596e-14
2.49759e-13
-3.57983e-13
7.23436e-14
1.98641e-13
-3.17368e-13
5.44361e-14
1.60714e-13
-2.82776e-13
3.98305e-14
1.23578e-13
-2.51912e-13
2.80607e-14
1.07714e-13
-2.30251e-13
1.84737e-14
8.62883e-14
-2.82935e-13
1.09351e-14
7.48825e-14
4.0621e-15
4.91867e-14
-1.65382e-14
-5.68152e-13
1.95224e-13
4.39058e-13
-9.27214e-13
1.53141e-13
4.79348e-13
-5.64495e-13
1.14461e-13
3.98792e-13
-4.80068e-13
8.4854e-14
3.19881e-13
-4.1515e-13
6.20288e-14
2.43038e-13
-3.60212e-13
4.43596e-14
1.95775e-13
-3.14376e-13
3.05673e-14
1.58017e-13
-2.79549e-13
1.97309e-14
1.36138e-13
-3.41934e-13
1.14315e-14
1.12314e-13
4.31983e-15
6.89964e-14
-1.98216e-14
-1.0987e-12
3.07194e-13
7.90221e-13
-1.29857e-12
1.86905e-13
8.24496e-13
-7.66118e-13
1.40887e-13
6.59739e-13
-6.3332e-13
1.01303e-13
4.96788e-13
-5.31835e-13
7.25463e-14
3.74608e-13
-4.49898e-13
5.35863e-14
2.94586e-13
-3.83728e-13
3.69805e-14
2.30129e-13
-3.32695e-13
2.34989e-14
1.86627e-13
-4.03525e-13
1.30793e-14
1.55903e-13
5.17538e-15
9.49015e-14
-2.31789e-14
-1.93764e-12
1.04235e-11
3.90191e-12
-1.79763e-12
3.20259e-13
1.4203e-12
-1.0328e-12
2.44941e-13
1.06654e-12
-8.26122e-13
1.65512e-13
7.74049e-13
-6.72587e-13
1.07916e-13
5.59781e-13
-5.53914e-13
6.65647e-14
4.21165e-13
-4.60506e-13
3.14101e-14
3.2121e-13
-3.90146e-13
1.74403e-14
2.55366e-13
-4.67938e-13
9.05015e-15
2.03711e-13
3.63965e-15
1.25593e-13
-2.66946e-14
-1.39279e-10
5.57756e-09
3.85006e-08
-2.37457e-12
2.64535e-11
3.51371e-11
-1.33686e-12
1.73833e-12
1.85704e-13
-1.06973e-12
1.16402e-12
8.32247e-14
-8.42385e-13
8.28821e-13
6.33714e-14
-6.73555e-13
6.02952e-13
4.93846e-14
-5.46057e-13
4.45642e-13
3.91687e-14
-4.51261e-13
3.36239e-13
3.15829e-14
-5.34898e-13
2.66996e-13
2.58517e-14
1.59374e-13
-3.02915e-14
2.15591e-14
3.47078e-13
8.17031e-14
2.73191e-14
-1.90776e-14
7.75826e-14
2.59882e-14
-2.19773e-14
6.84337e-14
2.12978e-14
-2.03959e-14
5.96108e-14
1.64961e-14
-1.97872e-14
5.10865e-14
1.09832e-14
-1.97513e-14
4.28519e-14
5.57843e-15
-1.87301e-14
3.49161e-14
3.62574e-15
-1.92019e-14
2.72421e-14
2.77518e-15
-2.33154e-14
1.98435e-14
2.0173e-15
1.27345e-14
2.51427e-15
-1.58814e-15
2.95954e-13
5.86608e-14
4.55087e-14
-6.69552e-14
5.39216e-14
4.2523e-14
-6.98885e-14
4.56933e-14
4.13094e-14
-6.59736e-14
3.79159e-14
3.16981e-14
-6.37244e-14
3.06746e-14
2.2653e-14
-6.13004e-14
2.39596e-14
1.33089e-14
-5.91583e-14
1.77651e-14
9.48618e-15
-5.85453e-14
1.21229e-14
7.4412e-15
-7.11007e-14
7.00053e-15
6.61822e-15
2.57627e-15
5.52282e-15
-4.42051e-15
2.17938e-13
7.49142e-14
6.68214e-14
-1.67662e-13
6.76261e-14
6.56747e-14
-1.31175e-13
5.68048e-14
6.62727e-14
-1.17493e-13
4.68825e-14
5.26975e-14
-1.11171e-13
3.78826e-14
4.13057e-14
-1.05717e-13
2.96952e-14
2.72669e-14
-9.85729e-14
2.23102e-14
2.00715e-14
-1.01664e-13
1.54761e-14
1.58703e-14
-1.20798e-13
9.41125e-15
1.52452e-14
3.42308e-15
1.26528e-14
-7.44522e-15
9.63236e-14
9.33768e-14
1.07555e-13
-2.91376e-13
8.1746e-14
1.12891e-13
-2.02392e-13
6.69891e-14
1.13182e-13
-1.81143e-13
5.40638e-14
9.1087e-14
-1.6863e-13
4.27879e-14
7.39828e-14
-1.56433e-13
3.2887e-14
6.03873e-14
-1.4522e-13
2.40953e-14
4.08427e-14
-1.43317e-13
1.64838e-14
3.23942e-14
-1.7292e-13
9.90777e-15
2.74589e-14
3.97892e-15
2.41641e-14
-1.0306e-14
-2.14424e-14
1.18066e-13
1.89228e-13
-4.48997e-13
9.98248e-14
1.9999e-13
-2.92876e-13
7.96853e-14
1.91651e-13
-2.608e-13
6.26476e-14
1.54613e-13
-2.37171e-13
4.83648e-14
1.25908e-13
-2.16145e-13
3.63808e-14
1.03887e-13
-1.9629e-13
2.62985e-14
7.57616e-14
-1.84477e-13
1.767e-14
5.86973e-14
-2.27199e-13
1.05056e-14
4.78384e-14
4.14402e-15
3.34618e-14
-1.34563e-14
-1.58199e-13
1.51491e-13
3.3923e-13
-6.56123e-13
1.23675e-13
3.53946e-13
-4.12908e-13
9.56458e-14
3.21916e-13
-3.5997e-13
7.31673e-14
2.5725e-13
-3.19187e-13
5.50945e-14
2.07491e-13
-2.84025e-13
4.0398e-14
1.70074e-13
-2.53367e-13
2.84883e-14
1.32618e-13
-2.31007e-13
1.88888e-14
9.48992e-14
-2.84087e-13
1.12761e-14
7.71345e-14
4.33247e-15
4.84477e-14
-1.65642e-14
-5.75955e-13
1.97629e-13
6.03799e-13
-9.34244e-13
1.55046e-13
6.1854e-13
-5.6856e-13
1.1595e-13
5.33762e-13
-4.83619e-13
8.60032e-14
4.16179e-13
-4.17898e-13
6.29452e-14
3.29038e-13
-3.62559e-13
4.51089e-14
2.61763e-13
-3.16449e-13
3.11882e-14
2.086e-13
-2.81049e-13
2.01577e-14
1.43977e-13
-3.43862e-13
1.18282e-14
1.15564e-13
4.69936e-15
7.01596e-14
-1.98216e-14
-1.11323e-12
3.11762e-13
1.08301e-12
-1.31034e-12
1.89622e-13
1.08278e-12
-7.73188e-13
1.43057e-13
8.78132e-13
-6.39004e-13
1.02951e-13
6.60512e-13
-5.36277e-13
7.37842e-14
5.05265e-13
-4.53611e-13
5.37847e-14
3.91438e-13
-3.86904e-13
3.77797e-14
3.05882e-13
-3.35214e-13
2.42086e-14
2.12994e-13
-4.0642e-13
1.36554e-14
1.63063e-13
5.64438e-15
9.76436e-14
-2.32711e-14
-1.96608e-12
1.07621e-11
4.98835e-12
-1.81717e-12
3.25914e-13
1.90223e-12
-1.04446e-12
2.49979e-13
1.43345e-12
-8.35209e-13
1.68997e-13
1.03411e-12
-6.79723e-13
1.10525e-13
7.63316e-13
-5.59628e-13
6.87157e-14
5.71231e-13
-4.65058e-13
3.25955e-14
4.35804e-13
-3.94008e-13
1.81209e-14
3.23299e-13
-4.72241e-13
9.50082e-15
2.2331e-13
4.11817e-15
1.3205e-13
-2.6772e-14
-1.47198e-10
7.29798e-09
4.13486e-08
-2.41036e-12
3.11967e-11
3.74523e-11
-1.35431e-12
2.35522e-12
1.83207e-13
-1.08389e-12
1.5901e-12
8.36094e-14
-8.53285e-13
1.12703e-12
6.38766e-14
-6.82053e-13
8.15368e-13
4.99354e-14
-5.52846e-13
6.01976e-13
3.97417e-14
-4.56733e-13
4.47991e-13
3.21829e-14
-5.40974e-13
2.96733e-13
2.64781e-14
1.73308e-13
-3.03744e-14
2.22636e-14
3.4664e-13
8.19254e-14
2.80687e-14
-1.96342e-14
7.77344e-14
1.83903e-14
-2.22294e-14
6.85875e-14
1.71196e-14
-2.0729e-14
5.97314e-14
1.32494e-14
-2.02407e-14
5.11932e-14
1.17852e-14
-1.98156e-14
4.29566e-14
1.16334e-14
-1.9354e-14
3.50237e-14
1.33936e-14
-1.93395e-14
2.73654e-14
2.86856e-14
-2.35416e-14
1.99759e-14
1.12956e-13
1.28837e-14
3.9444e-13
-1.87285e-15
2.95261e-13
5.89276e-14
4.41983e-14
-6.75017e-14
5.41355e-14
3.11568e-14
-7.05801e-14
4.58582e-14
3.30471e-14
-6.64057e-14
3.80725e-14
2.64733e-14
-6.41484e-14
3.08125e-14
3.00396e-14
-6.11636e-14
2.40907e-14
2.04684e-14
-5.90726e-14
1.78854e-14
2.03401e-14
-5.96196e-14
1.2234e-14
2.87351e-14
-7.17676e-14
7.14435e-15
7.43036e-14
2.68894e-15
2.56856e-13
-4.23056e-15
2.16893e-13
7.53125e-14
6.36944e-14
-1.68895e-13
6.79534e-14
4.89152e-14
-1.31696e-13
5.71047e-14
5.42887e-14
-1.18426e-13
4.71282e-14
4.50249e-14
-1.11414e-13
3.81261e-14
3.79894e-14
-1.05775e-13
2.99483e-14
3.47494e-14
-9.94255e-14
2.25171e-14
3.42397e-14
-1.01234e-13
1.56644e-14
3.71794e-14
-1.21877e-13
9.36539e-15
6.19959e-14
3.58305e-15
1.74426e-13
-7.15855e-15
9.52435e-14
9.40765e-14
1.05887e-13
-2.9302e-13
8.22948e-14
8.92521e-14
-2.03718e-13
6.7445e-14
9.58747e-14
-1.81934e-13
5.44628e-14
8.0545e-14
-1.68901e-13
4.31263e-14
6.89572e-14
-1.5728e-13
3.3159e-14
7.18374e-14
-1.45948e-13
2.43945e-14
5.69722e-14
-1.42512e-13
1.67866e-14
5.59326e-14
-1.74107e-13
1.00622e-14
6.81936e-14
4.25136e-15
1.35767e-13
-1.01134e-14
-2.34194e-14
1.19185e-13
2.00238e-13
-4.51572e-13
1.00699e-13
1.66322e-13
-2.94486e-13
8.04148e-14
1.6799e-13
-2.62111e-13
6.32804e-14
1.40396e-13
-2.38095e-13
4.89083e-14
1.18606e-13
-2.17129e-13
3.68873e-14
1.3387e-13
-1.97229e-13
2.66533e-14
7.64925e-14
-1.85405e-13
1.79795e-14
8.57649e-14
-2.28631e-13
1.08437e-14
8.82724e-14
4.31407e-15
1.22078e-13
-1.32689e-14
-1.61473e-13
1.53222e-13
3.8821e-13
-6.60322e-13
1.24987e-13
3.05586e-13
-4.15466e-13
9.67316e-14
2.88568e-13
-3.62231e-13
7.4069e-14
2.36076e-13
-3.20698e-13
5.58617e-14
1.95008e-13
-2.85977e-13
4.10131e-14
2.11516e-13
-2.54813e-13
2.9077e-14
1.14675e-13
-2.32159e-13
1.92605e-14
1.2941e-13
-2.86069e-13
1.16489e-14
1.19888e-13
4.78597e-15
1.25658e-13
-1.65258e-14
-5.85119e-13
2.0044e-13
7.2945e-13
-9.41159e-13
1.57082e-13
5.50344e-13
-5.73006e-13
1.17567e-13
4.85186e-13
-4.87201e-13
8.72889e-14
3.84966e-13
-4.20912e-13
6.3967e-14
3.43692e-13
-3.65042e-13
4.59537e-14
3.25157e-13
-3.19233e-13
3.1845e-14
2.72685e-13
-2.82802e-13
2.07267e-14
1.48278e-13
-3.46554e-13
1.22207e-14
1.63696e-13
5.0697e-15
1.41438e-13
-1.98138e-14
-1.12948e-12
3.16368e-13
1.34344e-12
-1.32196e-12
1.93591e-13
9.69852e-13
-7.80648e-13
1.45419e-13
8.63859e-13
-6.44907e-13
1.04768e-13
6.89478e-13
-5.41136e-13
7.52279e-14
5.72185e-13
-4.57568e-13
5.43914e-14
4.89852e-13
-3.90824e-13
3.87995e-14
4.09676e-13
-3.38271e-13
2.50267e-14
2.09904e-13
-4.1027e-13
1.43453e-14
2.21271e-13
6.19999e-15
1.67609e-13
-2.32652e-14
-1.98963e-12
8.97918e-12
4.93149e-12
-1.83727e-12
3.23072e-13
1.96857e-12
-1.05661e-12
2.58542e-13
1.56391e-12
-8.44579e-13
1.72911e-13
1.17007e-12
-6.87523e-13
1.13488e-13
9.0548e-13
-5.65645e-13
7.11634e-14
7.23753e-13
-4.70709e-13
3.40248e-14
5.80787e-13
-3.98573e-13
1.89618e-14
2.93739e-13
-4.77694e-13
1.00455e-14
2.4313e-13
4.69786e-15
2.02815e-13
-2.68195e-14
-1.30069e-10
3.07924e-09
4.05867e-08
-2.36933e-12
1.58473e-11
2.46336e-11
-1.37852e-12
2.66567e-12
1.16923e-13
-1.09881e-12
1.87831e-12