/*--------------------------------*- C++ -*----------------------------------*\
| =========                 |                                                 |
| \\      /  F ield         | OpenFOAM: The Open Source CFD Toolbox           |
|  \\    /   O peration     | Version:  4.1                                   |
|   \\  /    A nd           | Web:      www.OpenFOAM.org                      |
|    \\/     M anipulation  |                                                 |
\*---------------------------------------------------------------------------*/
FoamFile
{
    version     2.0;
    format      ascii;
    class       volVectorField;
    location    "0.24";
    object      U;
}
// * * * * * * * * * * * * * * * * * * * * * * * * * * * * * * * * * * * * * //

dimensions      [0 1 -1 0 0 0 0];

internalField   nonuniform List<vector> 
18000
(
(7.71741e-14 3.92422e-13 -6.48033e-12)
(8.37829e-14 3.90619e-13 -6.40494e-12)
(7.58993e-14 -9.98354e-15 -6.33037e-12)
(6.81996e-14 -1.11715e-14 -6.25692e-12)
(6.07042e-14 -1.10226e-14 -6.18448e-12)
(5.33968e-14 -1.08398e-14 -6.11297e-12)
(4.62879e-14 -1.07732e-14 -6.04245e-12)
(3.93967e-14 -1.06911e-14 -5.97295e-12)
(3.26788e-14 -1.05731e-14 -5.90444e-12)
(2.61552e-14 -8.62901e-15 -5.83761e-12)
(1.02137e-13 4.06978e-13 -8.16344e-12)
(1.19604e-13 3.97493e-13 -7.86655e-12)
(1.05492e-13 -3.99041e-14 -7.58172e-12)
(9.21705e-14 -3.99025e-14 -7.30963e-12)
(7.97196e-14 -3.85783e-14 -7.0495e-12)
(6.80559e-14 -3.72586e-14 -6.80059e-12)
(5.7092e-14 -3.59982e-14 -6.56236e-12)
(4.68545e-14 -3.48129e-14 -6.33425e-12)
(3.72227e-14 -3.36709e-14 -6.11562e-12)
(2.82257e-14 -2.68576e-14 -5.90847e-12)
(1.04337e-13 4.15606e-13 -1.04177e-11)
(1.20506e-13 3.96594e-13 -9.76138e-12)
(1.00291e-13 -8.19331e-14 -9.15254e-12)
(8.21188e-14 -7.85527e-14 -8.5899e-12)
(6.58534e-14 -7.39024e-14 -8.06901e-12)
(5.12628e-14 -6.97109e-14 -7.58628e-12)
(3.81644e-14 -6.58317e-14 -7.13877e-12)
(2.64041e-14 -6.22152e-14 -6.72313e-12)
(1.58467e-14 -5.88345e-14 -6.33696e-12)
(6.39006e-15 -4.57948e-14 -5.98045e-12)
(1.38293e-13 4.13512e-13 -1.34845e-11)
(1.50768e-13 3.8293e-13 -1.22466e-11)
(1.21706e-13 -1.4083e-13 -1.11421e-11)
(9.67793e-14 -1.30161e-13 -1.01562e-11)
(7.5457e-14 -1.19245e-13 -9.27544e-12)
(5.7171e-14 -1.09495e-13 -8.48668e-12)
(4.1516e-14 -1.00746e-13 -7.77862e-12)
(2.8025e-14 -9.28683e-14 -7.14176e-12)
(1.6452e-14 -8.56964e-14 -6.56783e-12)
(6.50441e-15 -6.5371e-14 -6.0536e-12)
(1.87166e-13 3.91577e-13 -1.77302e-11)
(1.91544e-13 3.47958e-13 -1.55512e-11)
(1.49371e-13 -2.23747e-13 -1.36868e-11)
(1.14978e-13 -1.99638e-13 -1.20871e-11)
(8.69601e-14 -1.7734e-13 -1.07108e-11)
(6.40686e-14 -1.58162e-13 -9.52162e-12)
(4.5269e-14 -1.41664e-13 -8.49035e-12)
(2.98137e-14 -1.27349e-13 -7.59304e-12)
(1.70855e-14 -1.14719e-13 -6.80922e-12)
(6.60544e-15 -8.5655e-14 -6.12821e-12)
(2.59313e-13 3.34555e-13 -2.37218e-11)
(2.47705e-13 2.77198e-13 -2.00116e-11)
(1.85693e-13 -3.41677e-13 -1.69793e-11)
(1.37815e-13 -2.93314e-13 -1.44866e-11)
(1.00839e-13 -2.51989e-13 -1.24276e-11)
(7.2019e-14 -2.17976e-13 -1.07155e-11)
(4.94622e-14 -1.89738e-13 -9.28372e-12)
(3.17343e-14 -1.66003e-13 -8.0797e-12)
(1.77576e-14 -1.45877e-13 -7.0616e-12)
(6.71556e-15 -1.06666e-13 -6.20369e-12)
(3.69011e-13 2.15187e-13 -3.23602e-11)
(3.2677e-13 1.46502e-13 -2.6132e-11)
(2.34128e-13 -5.11445e-13 -2.12892e-11)
(1.66814e-13 -4.21009e-13 -1.74943e-11)
(1.1763e-13 -3.48553e-13 -1.44934e-11)
(8.12542e-14 -2.91576e-13 -1.2098e-11)
(5.4126e-14 -2.46113e-13 -1.01698e-11)
(3.37769e-14 -2.09464e-13 -8.60516e-12)
(1.84273e-14 -1.79482e-13 -7.3258e-12)
(6.79578e-15 -1.28437e-13 -6.28038e-12)
(1.84801e-13 -1.58148e-14 -4.5121e-11)
(9.68316e-14 -8.67354e-14 -3.46796e-11)
(-2.32057e-14 -7.59327e-13 -2.7006e-11)
(-9.99254e-14 -5.96433e-13 -2.12981e-11)
(-1.49021e-13 -4.7404e-13 -1.69939e-11)
(-1.80028e-13 -3.82465e-13 -1.37051e-11)
(-1.9909e-13 -3.1254e-13 -1.1162e-11)
(-2.10132e-13 -2.58254e-13 -9.17349e-12)
(-2.15796e-13 -2.15571e-13 -7.60224e-12)
(-2.19506e-13 -1.5099e-13 -6.35872e-12)
(-2.01703e-09 -4.83183e-13 -6.86579e-11)
(-1.93755e-09 -4.63639e-13 -5.04863e-11)
(-1.81193e-09 -1.07001e-12 -3.78664e-11)
(-1.70096e-09 -7.88407e-13 -2.89445e-11)
(-1.60245e-09 -5.92409e-13 -2.25121e-11)
(-1.51449e-09 -4.53736e-13 -1.77861e-11)
(-1.4355e-09 -3.53429e-13 -1.42545e-11)
(-1.36422e-09 -2.79473e-13 -1.15744e-11)
(-1.29959e-09 -2.28358e-13 -9.51118e-12)
(-1.2494e-09 -1.76685e-13 -7.92464e-12)
(2.18185e-07 -2.22953e-10 -2.45397e-08)
(2.46403e-08 1.92183e-10 -2.10665e-08)
(2.06043e-08 3.14743e-10 -1.82343e-08)
(1.74974e-08 2.78754e-10 -1.59294e-08)
(1.49239e-08 2.47898e-10 -1.40305e-08)
(1.27676e-08 2.21678e-10 -1.24485e-08)
(1.09422e-08 1.99259e-10 -1.11173e-08)
(9.38265e-09 1.7994e-10 -9.98702e-09)
(7.99375e-09 1.40263e-10 -9.01958e-09)
(-3.02313e-08 -2.21311e-11 -8.24344e-09)
(2.69193e-13 3.69089e-13 -6.6183e-12)
(2.51766e-13 3.44447e-13 -6.54053e-12)
(2.20752e-13 -5.56856e-14 -6.4635e-12)
(1.90928e-13 -5.63233e-14 -6.38737e-12)
(1.62269e-13 -5.56968e-14 -6.31251e-12)
(1.34711e-13 -5.50381e-14 -6.23889e-12)
(1.08208e-13 -5.44535e-14 -6.16587e-12)
(8.27392e-14 -5.38447e-14 -6.09429e-12)
(5.82016e-14 -5.2933e-14 -6.02366e-12)
(3.48532e-14 -3.06328e-14 -5.95459e-12)
(5.43151e-13 3.18892e-13 -8.35596e-12)
(4.99134e-13 2.25785e-13 -8.04908e-12)
(4.27517e-13 -2.05641e-13 -7.75433e-12)
(3.60747e-13 -1.99493e-13 -7.47303e-12)
(2.98554e-13 -1.92384e-13 -7.20447e-12)
(2.40592e-13 -1.85576e-13 -6.9474e-12)
(1.86558e-13 -1.79065e-13 -6.70171e-12)
(1.36184e-13 -1.72911e-13 -6.46655e-12)
(8.91782e-14 -1.66085e-13 -6.24146e-12)
(4.56655e-14 -9.43748e-14 -6.02782e-12)
(6.70279e-13 2.29465e-13 -1.06919e-11)
(5.93683e-13 3.97146e-14 -1.00107e-11)
(4.90762e-13 -4.17063e-13 -9.37959e-12)
(3.98897e-13 -3.92664e-13 -8.79657e-12)
(3.17122e-13 -3.68714e-13 -8.2577e-12)
(2.44262e-13 -3.46525e-13 -7.75884e-12)
(1.79298e-13 -3.25987e-13 -7.29671e-12)
(1.21383e-13 -3.06955e-13 -6.86787e-12)
(6.97827e-14 -2.88107e-13 -6.4697e-12)
(2.4071e-14 -1.61191e-13 -6.10263e-12)
(8.74527e-13 7.85467e-14 -1.38824e-11)
(7.46881e-13 -2.46927e-13 -1.2593e-11)
(5.98763e-13 -7.14486e-13 -1.14443e-11)
(4.72477e-13 -6.52496e-13 -1.04203e-11)
(3.6506e-13 -5.9537e-13 -9.50707e-12)
(2.73557e-13 -5.44427e-13 -8.69037e-12)
(1.95563e-13 -4.98776e-13 -7.95829e-12)
(1.2907e-13 -4.577e-13 -7.30085e-12)
(7.23542e-14 -4.19041e-13 -6.70847e-12)
(2.4476e-14 -2.3063e-13 -6.17865e-12)
(1.15949e-12 -1.69585e-13 -1.83211e-11)
(9.5155e-13 -6.85528e-13 -1.60412e-11)
(7.37403e-13 -1.13364e-12 -1.40953e-11)
(5.6345e-13 -1.00209e-12 -1.24281e-11)
(4.22249e-13 -8.86874e-13 -1.09975e-11)
(3.07331e-13 -7.87641e-13 -9.76371e-12)
(2.13709e-13 -7.01748e-13 -8.69563e-12)
(1.37381e-13 -6.27207e-13 -7.76785e-12)
(7.51017e-14 -5.59865e-13 -6.95855e-12)
(2.48214e-14 -3.03058e-13 -6.25648e-12)
(1.56505e-12 -5.72384e-13 -2.4623e-11)
(1.22936e-12 -1.35561e-12 -2.07171e-11)
(9.17467e-13 -1.72742e-12 -1.75387e-11)
(6.76879e-13 -1.4738e-12 -1.49314e-11)
(4.90831e-13 -1.26209e-12 -1.27849e-11)
(3.46359e-13 -1.08679e-12 -1.10046e-11)
(2.33945e-13 -9.4047e-13 -9.51928e-12)
(1.46317e-13 -8.17752e-13 -8.27289e-12)
(7.80086e-14 -7.1132e-13 -7.2208e-12)
(2.5134e-14 -3.78506e-13 -6.33581e-12)
(2.15582e-12 -1.22554e-12 -3.37712e-11)
(1.61258e-12 -2.38428e-12 -2.71711e-11)
(1.15417e-12 -2.57449e-12 -2.20672e-11)
(8.1945e-13 -2.11295e-12 -1.80806e-11)
(5.73484e-13 -1.74651e-12 -1.49419e-11)
(3.91636e-13 -1.45516e-12 -1.24449e-11)
(2.56575e-13 -1.22121e-12 -1.04408e-11)
(1.56007e-13 -1.03195e-12 -8.81918e-12)
(8.10155e-14 -8.74288e-13 -7.49539e-12)
(2.55322e-14 -4.57276e-13 -6.41683e-12)
(3.05509e-12 -2.29479e-12 -4.74018e-11)
(2.15636e-12 -3.9793e-12 -3.62454e-11)
(1.47304e-12 -3.79351e-12 -2.81059e-11)
(1.00231e-12 -2.98404e-12 -2.2081e-11)
(6.74579e-13 -2.37353e-12 -1.75623e-11)
(4.4417e-13 -1.90939e-12 -1.4124e-11)
(2.80962e-13 -1.55172e-12 -1.14755e-11)
(1.64809e-13 -1.27298e-12 -9.4108e-12)
(8.18733e-14 -1.04953e-12 -7.78359e-12)
(2.31681e-14 -5.39223e-13 -6.49973e-12)
(-4.45633e-12 -4.1686e-12 -7.24007e-11)
(-5.13887e-11 -6.58077e-12 -5.28586e-11)
(-4.20225e-11 -5.62932e-12 -3.94195e-11)
(-3.46771e-11 -4.23346e-12 -2.99857e-11)
(-2.89362e-11 -3.23635e-12 -2.32317e-11)
(-2.43882e-11 -2.5131e-12 -1.82964e-11)
(-2.07415e-11 -1.97893e-12 -1.46256e-11)
(-1.77854e-11 -1.57837e-12 -1.1851e-11)
(-1.53655e-11 -1.2691e-12 -9.72138e-12)
(-1.3314e-11 -6.51883e-13 -8.08897e-12)
(1.28805e-07 -6.25841e-10 -2.5338e-08)
(-3.5008e-09 -5.21e-10 -2.16695e-08)
(-3.32077e-09 -3.21254e-10 -1.86833e-08)
(-3.02367e-09 -2.8279e-10 -1.62704e-08)
(-2.76122e-09 -2.50967e-10 -1.4294e-08)
(-2.53197e-09 -2.24098e-10 -1.26553e-08)
(-2.33224e-09 -2.0123e-10 -1.12819e-08)
(-2.15825e-09 -1.81624e-10 -1.01196e-08)
(-2.00878e-09 -1.64558e-10 -9.12765e-09)
(-2.18624e-09 -1.55093e-10 -8.33206e-09)
(2.28613e-13 3.74765e-13 -1.42552e-13)
(2.15756e-13 3.49219e-13 -1.3968e-13)
(1.89186e-13 -5.11186e-14 -1.36323e-13)
(1.63809e-13 -5.18221e-14 -1.33227e-13)
(1.39534e-13 -5.10525e-14 -1.30353e-13)
(1.16216e-13 -5.05015e-14 -1.27571e-13)
(9.39942e-14 -4.9979e-14 -1.24806e-13)
(7.26746e-14 -4.93044e-14 -1.22617e-13)
(5.22604e-14 -4.85327e-14 -1.20179e-13)
(3.29271e-14 -2.54479e-14 -1.18035e-13)
(5.00041e-13 3.40154e-13 -1.9914e-13)
(4.61638e-13 2.42972e-13 -1.88375e-13)
(3.95398e-13 -1.89121e-13 -1.77543e-13)
(3.33714e-13 -1.83328e-13 -1.67425e-13)
(2.76372e-13 -1.76702e-13 -1.58314e-13)
(2.22977e-13 -1.70353e-13 -1.49703e-13)
(1.73321e-13 -1.6421e-13 -1.41634e-13)
(1.27033e-13 -1.58431e-13 -1.34111e-13)
(8.38949e-14 -1.52121e-13 -1.27551e-13)
(4.4099e-14 -7.8922e-14 -1.20839e-13)
(6.17846e-13 2.73828e-13 -2.8494e-13)
(5.49061e-13 7.40406e-14 -2.58751e-13)
(4.534e-13 -3.8458e-13 -2.34846e-13)
(3.68122e-13 -3.6183e-13 -2.13288e-13)
(2.9239e-13 -3.39261e-13 -1.94259e-13)
(2.25087e-13 -3.1853e-13 -1.76918e-13)
(1.6518e-13 -2.994e-13 -1.6175e-13)
(1.11904e-13 -2.81696e-13 -1.48008e-13)
(6.44055e-14 -2.63984e-13 -1.35395e-13)
(2.25507e-14 -1.34967e-13 -1.24789e-13)
(8.10567e-13 1.57672e-13 -4.15976e-13)
(6.93735e-13 -1.89199e-13 -3.62139e-13)
(5.55243e-13 -6.61068e-13 -3.15289e-13)
(4.37402e-13 -6.02917e-13 -2.74659e-13)
(3.37533e-13 -5.49182e-13 -2.40485e-13)
(2.5267e-13 -5.0143e-13 -2.1105e-13)
(1.80526e-13 -4.58654e-13 -1.85882e-13)
(1.19173e-13 -4.20504e-13 -1.64269e-13)
(6.69503e-14 -3.8443e-13 -1.4531e-13)
(2.29857e-14 -1.93737e-13 -1.2917e-13)
(1.08178e-12 -3.84518e-14 -6.2232e-13)
(8.88082e-13 -5.96272e-13 -5.16337e-13)
(6.86659e-13 -1.05309e-12 -4.2964e-13)
(5.23438e-13 -9.29077e-13 -3.58418e-13)
(3.91537e-13 -8.20242e-13 -3.00791e-13)
(2.84585e-13 -7.27084e-13 -2.53642e-13)
(1.97728e-13 -6.46626e-13 -2.15072e-13)
(1.271e-13 -5.77015e-13 -1.83269e-13)
(6.9682e-14 -5.14028e-13 -1.56626e-13)
(2.3447e-14 -2.55104e-13 -1.34579e-13)
(1.47111e-12 -3.63943e-13 -9.56268e-13)
(1.15393e-12 -1.22551e-12 -7.50387e-13)
(8.5829e-13 -1.61184e-12 -5.94337e-13)
(6.31177e-13 -1.37163e-12 -4.72747e-13)
(4.5653e-13 -1.17088e-12 -3.7962e-13)
(3.21536e-13 -1.0056e-12 -3.0711e-13)
(2.16923e-13 -8.68163e-13 -2.50488e-13)
(1.35721e-13 -7.53372e-13 -2.0582e-13)
(7.25155e-14 -6.53812e-13 -1.69565e-13)
(2.38963e-14 -3.19612e-13 -1.41227e-13)
(2.04428e-12 -8.99358e-13 -1.50806e-12)
(1.52382e-12 -2.20195e-12 -1.11471e-12)
(1.08549e-12 -2.41557e-12 -8.34915e-13)
(7.67451e-13 -1.97507e-12 -6.30456e-13)
(5.35335e-13 -1.62583e-12 -4.82885e-13)
(3.64619e-13 -1.35012e-12 -3.74087e-13)
(2.38512e-13 -1.12962e-12 -2.93075e-13)
(1.44966e-13 -9.52289e-13 -2.3191e-13)
(7.5464e-14 -8.04555e-13 -1.84406e-13)
(2.43717e-14 -3.87094e-13 -1.48934e-13)
(2.92143e-12 -1.78956e-12 -2.45521e-12)
(2.0491e-12 -3.735e-12 -1.69336e-12)
(1.39092e-12 -3.5819e-12 -1.19269e-12)
(9.41556e-13 -2.803e-12 -8.5113e-13)
(6.3146e-13 -2.21826e-12 -6.1991e-13)
(4.15056e-13 -1.77698e-12 -4.5858e-13)
(2.62805e-13 -1.43882e-12 -3.44511e-13)
(1.55076e-13 -1.17688e-12 -2.62127e-13)
(7.8625e-14 -9.67023e-13 -2.01622e-13)
(2.48324e-14 -4.57836e-13 -1.57216e-13)
(6.04274e-11 -3.31092e-12 -4.05924e-12)
(2.21074e-12 -6.20054e-12 -2.58584e-12)
(1.28791e-12 -5.29653e-12 -1.70091e-12)
(8.0122e-13 -3.94861e-12 -1.14585e-12)
(4.85344e-13 -2.99338e-12 -7.9571e-13)
(2.78324e-13 -2.3075e-12 -5.67036e-13)
(1.42069e-13 -1.80484e-12 -4.14237e-13)
(5.25447e-14 -1.43084e-12 -3.09891e-13)
(-6.28618e-15 -1.14321e-12 -2.3666e-13)
(-4.29173e-14 -5.32819e-13 -1.85767e-13)
(1.14602e-07 -1.94294e-10 -8.40577e-10)
(6.2902e-11 -1.80734e-10 -6.11545e-10)
(-6.14772e-11 -2.44883e-11 -4.54377e-10)
(-4.88959e-11 -1.79658e-11 -3.44461e-10)
(-3.93223e-11 -1.36734e-11 -2.65857e-10)
(-3.20137e-11 -1.05872e-11 -2.0845e-10)
(-2.63651e-11 -8.32277e-12 -1.65744e-10)
(-2.19509e-11 -6.63351e-12 -1.33451e-10)
(-1.84947e-11 -5.34497e-12 -1.08671e-10)
(-1.72402e-11 -3.9443e-12 -8.90589e-11)
(2.26985e-13 3.74832e-13 -9.19155e-15)
(2.14318e-13 3.48934e-13 -8.35535e-15)
(1.87957e-13 -5.13717e-14 -6.45041e-15)
(1.62721e-13 -5.19061e-14 -5.30546e-15)
(1.38618e-13 -5.1241e-14 -4.03148e-15)
(1.15543e-13 -5.06241e-14 -3.03787e-15)
(9.3469e-14 -4.9885e-14 -2.30773e-15)
(7.22882e-14 -4.92277e-14 -1.54567e-15)
(5.20981e-14 -4.83785e-14 -1.17195e-15)
(3.29036e-14 -2.52732e-14 -1.14825e-15)
(4.98199e-13 3.4095e-13 -1.36314e-14)
(4.60099e-13 2.43394e-13 -1.21018e-14)
(3.94125e-13 -1.88806e-13 -9.9321e-15)
(3.32673e-13 -1.82975e-13 -7.97743e-15)
(2.75552e-13 -1.76215e-13 -6.18823e-15)
(2.22373e-13 -1.6989e-13 -5.08716e-15)
(1.72938e-13 -1.63805e-13 -3.98926e-15)
(1.26827e-13 -1.57867e-13 -3.19661e-15)
(8.38613e-14 -1.51494e-13 -2.65412e-15)
(4.42458e-14 -7.82601e-14 -2.25941e-15)
(6.15532e-13 2.75931e-13 -2.21673e-14)
(5.47286e-13 7.5363e-14 -1.95531e-14)
(4.51992e-13 -3.83429e-13 -1.60538e-14)
(3.67035e-13 -3.60643e-13 -1.30162e-14)
(2.9162e-13 -3.38265e-13 -1.08174e-14)
(2.24565e-13 -3.17511e-13 -8.79061e-15)
(1.64921e-13 -2.98273e-13 -7.29907e-15)
(1.11858e-13 -2.80724e-13 -6.19865e-15)
(6.45504e-14 -2.62932e-13 -5.15983e-15)
(2.28613e-14 -1.33768e-13 -4.98812e-15)
(8.07641e-13 1.62062e-13 -3.74179e-14)
(6.91616e-13 -1.86315e-13 -3.28392e-14)
(5.53697e-13 -6.5886e-13 -2.71599e-14)
(4.36345e-13 -6.00865e-13 -2.20767e-14)
(3.36832e-13 -5.47237e-13 -1.82473e-14)
(2.52333e-13 -4.99674e-13 -1.53342e-14)
(1.80457e-13 -4.57056e-13 -1.27532e-14)
(1.19346e-13 -4.18944e-13 -1.08395e-14)
(6.73329e-14 -3.82941e-13 -9.4958e-15)
(2.34559e-14 -1.92305e-13 -8.46784e-15)
(1.07807e-12 -3.04163e-14 -6.56941e-14)
(8.85654e-13 -5.91348e-13 -5.59724e-14)
(6.85011e-13 -1.04915e-12 -4.51125e-14)
(5.22497e-13 -9.25735e-13 -3.68571e-14)
(3.91072e-13 -8.1747e-13 -3.01911e-14)
(2.84478e-13 -7.24532e-13 -2.48036e-14)
(1.97922e-13 -6.4429e-13 -2.09731e-14)
(1.27548e-13 -5.75004e-13 -1.8088e-14)
(7.02062e-14 -5.12341e-13 -1.57387e-14)
(2.41145e-14 -2.53402e-13 -1.38666e-14)
(1.46619e-12 -3.49315e-13 -1.1515e-13)
(1.15114e-12 -1.21738e-12 -9.50048e-14)
(8.56672e-13 -1.60587e-12 -7.51256e-14)
(6.30431e-13 -1.36674e-12 -6.01015e-14)
(4.56391e-13 -1.16702e-12 -4.85708e-14)
(3.21804e-13 -1.00239e-12 -3.96658e-14)
(2.17468e-13 -8.65391e-13 -3.28889e-14)
(1.36393e-13 -7.51203e-13 -2.76481e-14)
(7.32921e-14 -6.51983e-13 -2.33201e-14)
(2.47431e-14 -3.17657e-13 -2.02786e-14)
(2.03772e-12 -8.7324e-13 -2.03506e-13)
(1.52052e-12 -2.18901e-12 -1.61339e-13)
(1.08402e-12 -2.40674e-12 -1.23204e-13)
(7.6703e-13 -1.96845e-12 -9.60178e-14)
(5.35598e-13 -1.62096e-12 -7.56004e-14)
(3.65327e-13 -1.3463e-12 -6.03901e-14)
(2.39414e-13 -1.12668e-12 -4.89743e-14)
(1.45967e-13 -9.50067e-13 -4.02544e-14)
(7.65715e-14 -8.02781e-13 -3.36514e-14)
(2.53554e-14 -3.85181e-13 -2.83231e-14)
(2.91222e-12 -1.74286e-12 -3.63859e-13)
(2.04493e-12 -3.71492e-12 -2.72321e-13)
(1.38956e-12 -3.56946e-12 -2.00559e-13)
(9.41644e-13 -2.79473e-12 -1.49979e-13)
(6.32341e-13 -2.2124e-12 -1.14457e-13)
(4.1632e-13 -1.77293e-12 -8.9067e-14)
(2.64169e-13 -1.43597e-12 -7.00963e-14)
(1.5646e-13 -1.17479e-12 -5.63815e-14)
(7.99666e-14 -9.65765e-13 -4.60589e-14)
(2.60946e-14 -4.56186e-13 -3.77774e-14)
(6.38547e-11 -3.22808e-12 -6.5522e-13)
(2.94466e-12 -6.17159e-12 -4.58608e-13)
(1.79523e-12 -5.27975e-12 -3.21781e-13)
(1.15896e-12 -3.93869e-12 -2.31141e-13)
(7.44741e-13 -2.98722e-12 -1.69914e-13)
(4.7085e-13 -2.30364e-12 -1.27857e-13)
(2.87577e-13 -1.80236e-12 -9.79026e-14)
(1.63969e-13 -1.42913e-12 -7.64624e-14)
(8.00845e-14 -1.14191e-12 -6.07489e-14)
(2.37068e-14 -5.30733e-13 -4.91075e-14)
(1.18588e-07 -1.71677e-10 -4.55414e-11)
(1.49563e-10 -1.65599e-10 -9.14821e-12)
(1.0583e-12 -8.5139e-12 -5.78446e-12)
(5.91474e-13 -5.72097e-12 -3.78116e-12)
(3.75913e-13 -4.13218e-12 -2.55684e-12)
(2.34947e-13 -3.05203e-12 -1.77899e-12)
(1.42042e-13 -2.29813e-12 -1.26652e-12)
(8.00953e-14 -1.76081e-12 -9.17752e-13)
(3.83433e-14 -1.36469e-12 -6.7606e-13)
(5.92343e-15 -6.33307e-13 -4.97662e-13)
(2.27415e-13 3.74687e-13 -1.07887e-14)
(2.1467e-13 3.484e-13 -9.73898e-15)
(1.88252e-13 -5.20599e-14 -7.46124e-15)
(1.62949e-13 -5.25211e-14 -5.53862e-15)
(1.38799e-13 -5.16933e-14 -4.07354e-15)
(1.15664e-13 -5.09327e-14 -2.85155e-15)
(9.35868e-14 -5.03248e-14 -2.02096e-15)
(7.24548e-14 -4.95109e-14 -1.0374e-15)
(5.22077e-14 -4.84498e-14 -4.83722e-16)
(3.30059e-14 -2.54058e-14 -2.41866e-16)
(4.99234e-13 3.40617e-13 -1.60603e-14)
(4.60983e-13 2.42609e-13 -1.42011e-14)
(3.94871e-13 -1.89689e-13 -1.10555e-14)
(3.33253e-13 -1.83807e-13 -8.81108e-15)
(2.76075e-13 -1.769e-13 -6.33965e-15)
(2.2282e-13 -1.70332e-13 -4.87377e-15)
(1.73317e-13 -1.64113e-13 -3.64847e-15)
(1.27226e-13 -1.58165e-13 -2.97032e-15)
(8.42093e-14 -1.51734e-13 -2.17167e-15)
(4.45943e-14 -7.83305e-14 -1.63608e-15)
(6.17308e-13 2.7531e-13 -2.60174e-14)
(5.48844e-13 7.41576e-14 -2.28702e-14)
(4.53313e-13 -3.84822e-13 -1.85807e-14)
(3.68126e-13 -3.61788e-13 -1.46748e-14)
(2.92571e-13 -3.39024e-13 -1.18262e-14)
(2.25413e-13 -3.18195e-13 -9.65287e-15)
(1.65636e-13 -2.98858e-13 -7.78262e-15)
(1.12496e-13 -2.81114e-13 -6.4946e-15)
(6.51383e-14 -2.63166e-13 -5.77653e-15)
(2.34078e-14 -1.33971e-13 -5.06669e-15)
(8.10755e-13 1.60894e-13 -4.45441e-14)
(6.94311e-13 -1.88305e-13 -3.88429e-14)
(5.55887e-13 -6.60933e-13 -3.1842e-14)
(4.38188e-13 -6.02666e-13 -2.60028e-14)
(3.38386e-13 -5.48606e-13 -2.13158e-14)
(2.5361e-13 -5.00793e-13 -1.76001e-14)
(1.8159e-13 -4.57991e-13 -1.50639e-14)
(1.20345e-13 -4.19669e-13 -1.28809e-14)
(6.82282e-14 -3.83508e-13 -1.11709e-14)
(2.42491e-14 -1.92471e-13 -1.01934e-14)
(1.08329e-12 -3.27377e-14 -7.77338e-14)
(8.90024e-13 -5.95157e-13 -6.70299e-14)
(6.88532e-13 -1.05291e-12 -5.43179e-14)
(5.25345e-13 -9.28696e-13 -4.42123e-14)
(3.93437e-13 -8.19873e-13 -3.6664e-14)
(2.86437e-13 -7.26516e-13 -3.04588e-14)
(1.99586e-13 -6.45803e-13 -2.55949e-14)
(1.28937e-13 -5.76184e-13 -2.19093e-14)
(7.143e-14 -5.1327e-13 -1.91239e-14)
(2.5156e-14 -2.5397e-13 -1.68687e-14)
(1.47492e-12 -3.54151e-13 -1.37151e-13)
(1.15819e-12 -1.22443e-12 -1.14342e-13)
(8.62167e-13 -1.61232e-12 -9.12906e-14)
(6.34771e-13 -1.37195e-12 -7.31894e-14)
(4.59841e-13 -1.1711e-12 -5.94623e-14)
(3.2462e-13 -1.00571e-12 -4.9174e-14)
(2.19735e-13 -8.68128e-13 -4.07038e-14)
(1.38268e-13 -7.53373e-13 -3.43597e-14)
(7.4851e-14 -6.53741e-13 -2.94497e-14)
(2.60063e-14 -3.18644e-13 -2.53913e-14)
(2.05241e-12 -8.82967e-13 -2.42329e-13)
(1.53181e-12 -2.20252e-12 -1.94645e-13)
(1.09245e-12 -2.41845e-12 -1.50952e-13)
(7.73444e-13 -1.9775e-12 -1.17883e-13)
(5.40537e-13 -1.62805e-12 -9.39427e-14)
(3.69163e-13 -1.35198e-12 -7.55305e-14)
(2.4242e-13 -1.13118e-12 -6.14326e-14)
(1.48383e-13 -9.53587e-13 -5.07834e-14)
(7.84928e-14 -8.05742e-13 -4.26767e-14)
(2.69414e-14 -3.86922e-13 -3.60531e-14)
(2.93684e-12 -1.76262e-12 -4.30768e-13)
(2.06293e-12 -3.74082e-12 -3.29745e-13)
(1.4024e-12 -3.59028e-12 -2.45313e-13)
(9.50994e-13 -2.81044e-12 -1.86092e-13)
(6.39224e-13 -2.22442e-12 -1.43485e-13)
(4.21482e-13 -1.78227e-12 -1.12323e-13)
(2.68101e-13 -1.44328e-12 -8.92753e-14)
(1.59473e-13 -1.18053e-12 -7.19479e-14)
(8.22702e-14 -9.70296e-13 -5.87963e-14)
(2.78986e-14 -4.58868e-13 -4.90557e-14)
(6.40992e-11 -3.26754e-12 -7.73402e-13)
(2.98555e-12 -6.22063e-12 -5.58121e-13)
(1.81889e-12 -5.31702e-12 -3.96594e-13)
(1.17496e-12 -3.96572e-12 -2.88427e-13)
(7.55879e-13 -3.00714e-12 -2.14483e-13)
(4.78761e-13 -2.31857e-12 -1.62673e-13)
(2.93345e-13 -1.81373e-12 -1.25313e-13)
(1.68198e-13 -1.43794e-12 -9.84521e-14)
(8.32306e-14 -1.14888e-12 -7.83563e-14)
(2.60286e-14 -5.3469e-13 -6.34673e-14)
(1.22111e-07 -1.70507e-10 -1.03155e-11)
(1.5558e-10 -1.65742e-10 -1.09005e-12)
(1.87395e-12 -8.30701e-12 -6.80864e-13)
(1.15168e-12 -5.57921e-12 -4.66345e-13)
(7.65883e-13 -4.03749e-12 -3.29297e-13)
(5.13195e-13 -2.987e-12 -2.39074e-13)
(3.44441e-13 -2.25258e-12 -1.77926e-13)
(2.29933e-13 -1.72849e-12 -1.34933e-13)
(1.51213e-13 -1.34141e-12 -1.04153e-13)
(9.69857e-14 -6.14493e-13 -8.19404e-14)
(2.27967e-13 3.74389e-13 -1.36517e-14)
(2.15125e-13 3.4761e-13 -1.18555e-14)
(1.88599e-13 -5.30354e-14 -9.39463e-15)
(1.63267e-13 -5.32477e-14 -6.90529e-15)
(1.38992e-13 -5.23052e-14 -5.07182e-15)
(1.15857e-13 -5.14376e-14 -3.25503e-15)
(9.37142e-14 -5.06039e-14 -2.02834e-15)
(7.25813e-14 -4.98382e-14 -1.32468e-15)
(5.23534e-14 -4.8693e-14 -6.64965e-16)
(3.31162e-14 -2.53648e-14 -3.97003e-16)
(5.00562e-13 3.40111e-13 -2.01364e-14)
(4.62133e-13 2.41429e-13 -1.76869e-14)
(3.95822e-13 -1.90895e-13 -1.37185e-14)
(3.34064e-13 -1.84814e-13 -1.07464e-14)
(2.76727e-13 -1.77755e-13 -8.23188e-15)
(2.23392e-13 -1.70949e-13 -6.02782e-15)
(1.73801e-13 -1.64555e-13 -4.42027e-15)
(1.27649e-13 -1.58451e-13 -3.26251e-15)
(8.46653e-14 -1.52024e-13 -2.67633e-15)
(4.49853e-14 -7.85063e-14 -2.31819e-15)
(6.19679e-13 2.74421e-13 -3.24674e-14)
(5.50897e-13 7.24763e-14 -2.84806e-14)
(4.5504e-13 -3.86564e-13 -2.28832e-14)
(3.6957e-13 -3.6326e-13 -1.85589e-14)
(2.93829e-13 -3.40233e-13 -1.46927e-14)
(2.26451e-13 -3.19113e-13 -1.17833e-14)
(1.66621e-13 -2.99537e-13 -9.5369e-15)
(1.1335e-13 -2.81551e-13 -8.22373e-15)
(6.59175e-14 -2.63542e-13 -7.10068e-15)
(2.41714e-14 -1.34227e-13 -6.27229e-15)
(8.1479e-13 1.5917e-13 -5.58978e-14)
(6.9779e-13 -1.91183e-13 -4.8421e-14)
(5.58746e-13 -6.63725e-13 -3.93791e-14)
(4.40575e-13 -6.04935e-13 -3.23173e-14)
(3.40422e-13 -5.50546e-13 -2.64982e-14)
(2.55369e-13 -5.02189e-13 -2.17584e-14)
(1.83094e-13 -4.59022e-13 -1.86327e-14)
(1.21656e-13 -4.20609e-13 -1.61215e-14)
(6.93545e-14 -3.8414e-13 -1.40677e-14)
(2.52625e-14 -1.9287e-13 -1.25442e-14)
(1.09015e-12 -3.59846e-14 -9.72619e-14)
(8.95743e-13 -6.00128e-13 -8.32827e-14)
(6.93126e-13 -1.05767e-12 -6.76592e-14)
(5.29066e-13 -9.32531e-13 -5.52571e-14)
(3.96484e-13 -8.22934e-13 -4.56514e-14)
(2.89036e-13 -7.29066e-13 -3.8195e-14)
(2.01678e-13 -6.47891e-13 -3.18748e-14)
(1.30743e-13 -5.77832e-13 -2.73427e-14)
(7.29625e-14 -5.14621e-13 -2.36378e-14)
(2.64377e-14 -2.54741e-13 -2.08455e-14)
(1.48647e-12 -3.60882e-13 -1.71574e-13)
(1.16741e-12 -1.23398e-12 -1.42936e-13)
(8.69365e-13 -1.62089e-12 -1.13851e-13)
(6.4038e-13 -1.37877e-12 -9.1395e-14)
(4.64321e-13 -1.17646e-12 -7.43009e-14)
(3.28194e-13 -1.01005e-12 -6.11953e-14)
(2.22658e-13 -8.71644e-13 -5.08447e-14)
(1.40655e-13 -7.56155e-13 -4.27901e-14)
(7.68322e-14 -6.56088e-13 -3.66369e-14)
(2.7673e-14 -3.20002e-13 -3.17125e-14)
(2.07171e-12 -8.96653e-13 -3.03539e-13)
(1.54661e-12 -2.22049e-12 -2.43144e-13)
(1.10346e-12 -2.43379e-12 -1.88394e-13)
(7.81795e-13 -1.98945e-12 -1.47468e-13)
(5.46958e-13 -1.63732e-12 -1.17297e-13)
(3.74122e-13 -1.35939e-12 -9.43392e-14)
(2.46362e-13 -1.13709e-12 -7.68878e-14)
(1.51472e-13 -9.58299e-13 -6.32233e-14)
(8.09648e-14 -8.09523e-13 -5.30217e-14)
(2.89649e-14 -3.89143e-13 -4.49042e-14)
(2.96965e-12 -1.79009e-12 -5.39881e-13)
(2.08664e-12 -3.77525e-12 -4.12921e-13)
(1.41922e-12 -3.61789e-12 -3.07359e-13)
(9.63215e-13 -2.83107e-12 -2.32957e-13)
(6.48226e-13 -2.24015e-12 -1.79461e-13)
(4.28231e-13 -1.79439e-12 -1.40563e-13)
(2.73197e-13 -1.45278e-12 -1.11798e-13)
(1.63388e-13 -1.18807e-12 -8.97532e-14)
(8.5286e-14 -9.76218e-13 -7.32517e-14)
(3.0273e-14 -4.62266e-13 -6.08935e-14)
(6.46836e-11 -3.32379e-12 -9.74568e-13)
(3.02436e-12 -6.28639e-12 -7.00501e-13)
(1.8447e-12 -5.3663e-12 -4.98087e-13)
(1.19275e-12 -4.00114e-12 -3.62208e-13)
(7.6836e-13 -3.03316e-12 -2.69234e-13)
(4.8772e-13 -2.33816e-12 -2.03823e-13)
(2.99861e-13 -1.82864e-12 -1.56982e-13)
(1.73016e-13 -1.44941e-12 -1.23124e-13)
(8.68046e-14 -1.15779e-12 -9.79183e-14)
(2.871e-14 -5.39845e-13 -7.93615e-14)
(1.23419e-07 -1.75391e-10 -3.897e-11)
(1.5843e-10 -1.67238e-10 -1.2567e-12)
(1.91717e-12 -8.39286e-12 -8.02866e-13)
(1.17224e-12 -5.63769e-12 -5.56421e-13)
(7.79753e-13 -4.0789e-12 -3.96192e-13)
(5.22862e-13 -3.0169e-12 -2.89262e-13)
(3.51381e-13 -2.27471e-12 -2.15842e-13)
(2.35045e-13 -1.74523e-12 -1.64034e-13)
(1.55052e-13 -1.35415e-12 -1.2679e-13)
(9.99191e-14 -6.21628e-13 -1.00142e-13)
(2.28651e-13 3.73943e-13 -1.63911e-14)
(2.1574e-13 3.46702e-13 -1.42289e-14)
(1.89038e-13 -5.40213e-14 -1.10408e-14)
(1.6362e-13 -5.42368e-14 -8.43318e-15)
(1.39327e-13 -5.31441e-14 -6.04042e-15)
(1.16109e-13 -5.21424e-14 -4.07435e-15)
(9.39561e-14 -5.10916e-14 -2.44681e-15)
(7.27519e-14 -5.00552e-14 -1.41676e-15)
(5.25178e-14 -4.88219e-14 -1.1095e-15)
(3.33037e-14 -2.5476e-14 -1.48907e-15)
(5.0219e-13 3.39505e-13 -2.41416e-14)
(4.63573e-13 2.4009e-13 -2.08925e-14)
(3.96971e-13 -1.92397e-13 -1.66362e-14)
(3.35043e-13 -1.8596e-13 -1.28267e-14)
(2.77561e-13 -1.78769e-13 -1.00427e-14)
(2.24122e-13 -1.71845e-13 -7.37884e-15)
(1.74463e-13 -1.65224e-13 -5.65814e-15)
(1.28274e-13 -1.58869e-13 -4.1689e-15)
(8.519e-14 -1.52123e-13 -3.13411e-15)
(4.54985e-14 -7.85602e-14 -3.59302e-15)
(6.22582e-13 2.73355e-13 -3.91528e-14)
(5.53392e-13 7.04116e-14 -3.40036e-14)
(4.5711e-13 -3.88649e-13 -2.72396e-14)
(3.71339e-13 -3.64998e-13 -2.21443e-14)
(2.95293e-13 -3.41701e-13 -1.76089e-14)
(2.27768e-13 -3.20268e-13 -1.43313e-14)
(1.67772e-13 -3.00323e-13 -1.16752e-14)
(1.14442e-13 -2.82152e-13 -9.96041e-15)
(6.68738e-14 -2.64016e-13 -8.77793e-15)
(2.49766e-14 -1.34454e-13 -8.13225e-15)
(8.19788e-13 1.5709e-13 -6.68067e-14)
(7.02035e-13 -1.94669e-13 -5.76624e-14)
(5.62263e-13 -6.67094e-13 -4.69527e-14)
(4.43472e-13 -6.07697e-13 -3.84308e-14)
(3.42891e-13 -5.52814e-13 -3.16942e-14)
(2.575e-13 -5.04032e-13 -2.66637e-14)
(1.84909e-13 -4.60385e-13 -2.23262e-14)
(1.23216e-13 -4.21655e-13 -1.92537e-14)
(7.07383e-14 -3.85119e-13 -1.69707e-14)
(2.64808e-14 -1.93406e-13 -1.5183e-14)
(1.09857e-12 -4.01377e-14 -1.17344e-13)
(9.02733e-13 -6.06351e-13 -9.92912e-14)
(6.98747e-13 -1.06348e-12 -8.04678e-14)
(5.33606e-13 -9.37236e-13 -6.57104e-14)
(4.00236e-13 -8.26697e-13 -5.43005e-14)
(2.92148e-13 -7.32203e-13 -4.56312e-14)
(2.0432e-13 -6.50415e-13 -3.83692e-14)
(1.32914e-13 -5.79832e-13 -3.2926e-14)
(7.484e-14 -5.16238e-13 -2.84939e-14)
(2.80892e-14 -2.55724e-13 -2.55479e-14)
(1.50065e-12 -3.69147e-13 -2.07015e-13)
(1.1787e-12 -1.24551e-12 -1.70438e-13)
(8.78106e-13 -1.63127e-12 -1.35766e-13)
(6.47283e-13 -1.38705e-12 -1.09296e-13)
(4.69806e-13 -1.18309e-12 -8.90834e-14)
(3.32612e-13 -1.01538e-12 -7.3683e-14)
(2.26273e-13 -8.75994e-13 -6.1211e-14)
(1.43576e-13 -7.59668e-13 -5.13503e-14)
(7.92736e-14 -6.58863e-13 -4.40964e-14)
(2.96829e-14 -3.21679e-13 -3.84098e-14)
(2.09563e-12 -9.13535e-13 -3.66599e-13)
(1.56472e-12 -2.2426e-12 -2.9031e-13)
(1.11698e-12 -2.45245e-12 -2.24969e-13)
(7.92052e-13 -2.00397e-12 -1.76831e-13)
(5.54807e-13 -1.64873e-12 -1.40691e-13)
(3.80255e-13 -1.36842e-12 -1.13581e-13)
(2.51164e-13 -1.14439e-12 -9.26996e-14)
(1.55271e-13 -9.64097e-13 -7.58571e-14)
(8.39792e-14 -8.1419e-13 -6.37297e-14)
(3.13956e-14 -3.91917e-13 -5.43605e-14)
(3.01044e-12 -1.82424e-12 -6.52845e-13)
(2.11578e-12 -3.81734e-12 -4.9413e-13)
(1.44005e-12 -3.65164e-12 -3.69077e-13)
(9.78273e-13 -2.85647e-12 -2.7976e-13)
(6.59309e-13 -2.25945e-12 -2.15687e-13)
(4.36492e-13 -1.80928e-12 -1.69209e-13)
(2.79442e-13 -1.46456e-12 -1.34586e-13)
(1.68185e-13 -1.19734e-12 -1.07634e-13)
(8.89662e-14 -9.8351e-13 -8.78105e-14)
(3.31503e-14 -4.66535e-13 -7.31528e-14)
(6.72793e-11 -3.39126e-12 -1.16089e-12)
(3.07642e-12 -6.36744e-12 -8.4188e-13)
(1.87644e-12 -5.42681e-12 -5.99815e-13)
(1.21463e-12 -4.04491e-12 -4.3629e-13)
(7.83786e-13 -3.0654e-12 -3.24383e-13)
(4.98744e-13 -2.36225e-12 -2.45537e-13)
(3.07879e-13 -1.84698e-12 -1.89645e-13)
(1.78917e-13 -1.46351e-12 -1.48017e-13)
(9.11837e-14 -1.1688e-12 -1.17503e-13)
(3.20048e-14 -5.46119e-13 -9.52919e-14)
(1.37068e-07 -1.76069e-10 1.05726e-11)
(1.70834e-10 -1.73928e-10 -1.22453e-12)
(1.94219e-12 -8.51351e-12 -9.67017e-13)
(1.1918e-12 -5.71177e-12 -6.71328e-13)
(7.93394e-13 -4.13124e-12 -4.78616e-13)
(5.32626e-13 -3.05473e-12 -3.49242e-13)
(3.58544e-13 -2.30268e-12 -2.60655e-13)
(2.40391e-13 -1.76629e-12 -1.98068e-13)
(1.59108e-13 -1.37001e-12 -1.5227e-13)
(1.03068e-13 -6.30509e-13 -1.20589e-13)
(2.294e-13 3.73498e-13 -1.84918e-14)
(2.16214e-13 3.45505e-13 -1.36929e-14)
(1.89496e-13 -5.53151e-14 -1.06728e-14)
(1.63978e-13 -5.52226e-14 -8.31909e-15)
(1.39663e-13 -5.40396e-14 -7.23663e-15)
(1.16449e-13 -5.28836e-14 -6.85433e-15)
(9.4317e-14 -5.17005e-14 -7.65429e-15)
(7.32203e-14 -5.04853e-14 -1.58827e-14)
(5.32309e-14 -4.91577e-14 -6.24773e-14)
(3.41062e-14 -2.73975e-14 -2.17705e-13)
(5.04039e-13 3.38699e-13 -2.66651e-14)
(4.64931e-13 2.38611e-13 -1.899e-14)
(3.98173e-13 -1.93958e-13 -1.5637e-14)
(3.36076e-13 -1.87342e-13 -1.25125e-14)
(2.78473e-13 -1.79887e-13 -1.06789e-14)
(2.24999e-13 -1.72725e-13 -1.00948e-14)
(1.75294e-13 -1.65938e-13 -1.04831e-14)
(1.29112e-13 -1.59723e-13 -1.54136e-14)
(8.61741e-14 -1.53149e-13 -4.04979e-14)
(4.64297e-14 -8.19585e-14 -1.41822e-13)
(6.25837e-13 2.72041e-13 -4.34141e-14)
(5.5594e-13 6.81442e-14 -3.20338e-14)
(4.59272e-13 -3.90916e-13 -2.61222e-14)
(3.7322e-13 -3.66872e-13 -2.18123e-14)
(2.96986e-13 -3.43242e-13 -1.84827e-14)
(2.29351e-13 -3.2153e-13 -1.72593e-14)
(1.69208e-13 -3.01484e-13 -1.73782e-14)
(1.15748e-13 -2.83083e-13 -1.91967e-14)
(6.82405e-14 -2.65289e-13 -3.35501e-14)
(2.62186e-14 -1.38299e-13 -9.69424e-14)
(8.25446e-13 1.54764e-13 -7.43792e-14)
(7.06407e-13 -1.98195e-13 -5.60686e-14)
(5.65939e-13 -6.70609e-13 -4.61747e-14)
(4.46614e-13 -6.10566e-13 -3.887e-14)
(3.45652e-13 -5.55075e-13 -3.36314e-14)