/*--------------------------------*- C++ -*----------------------------------*\
| =========                 |                                                 |
| \\      /  F ield         | OpenFOAM: The Open Source CFD Toolbox           |
|  \\    /   O peration     | Version:  4.1                                   |
|   \\  /    A nd           | Web:      www.OpenFOAM.org                      |
|    \\/     M anipulation  |                                                 |
\*---------------------------------------------------------------------------*/
FoamFile
{
    version     2.0;
    format      ascii;
    class       volScalarField;
    location    "5.54";
    object      T;
}
// * * * * * * * * * * * * * * * * * * * * * * * * * * * * * * * * * * * * * //

dimensions      [0 0 0 1 0 0 0];

internalField   nonuniform List<scalar> 
52500
(
0.999996
1.00002
1.00004
1.00016
1.0003
1.00096
1.00178
1.00529
1.011
1.02868
1.07681
1.17141
1.52626
2.32811
2.65829
2.73244
2.72704
2.7243
2.73903
2.75113
2.7645
2.77272
2.77904
2.78332
2.78609
0.999996
1.00002
1.00004
1.00016
1.00029
1.00094
1.00175
1.00521
1.01086
1.02822
1.07587
1.16878
1.52151
2.31775
2.65513
2.73245
2.7269
2.72408
2.73865
2.75068
2.76378
2.77165
2.77785
2.78113
2.78306
0.999995
1.00002
1.00004
1.00015
1.00028
1.00092
1.0017
1.00503
1.01058
1.02729
1.07388
1.16326
1.51085
2.2948
2.64688
2.73152
2.7257
2.72243
2.73681
2.74852
2.76162
2.76871
2.77444
2.77856
2.77934
0.999995
1.00002
1.00004
1.00015
1.00027
1.00088
1.00163
1.00482
1.01014
1.0261
1.0707
1.15601
1.48972
2.2538
2.63288
2.72864
2.7223
2.71801
2.73179
2.74368
2.757
2.76482
2.77008
2.77185
2.77458
0.999995
1.00002
1.00004
1.00014
1.00026
1.00083
1.00154
1.00458
1.00955
1.0248
1.06626
1.14807
1.4549
2.19201
2.61225
2.7246
2.71825
2.71209
2.72703
2.73612
2.74908
2.75518
2.76209
2.76574
2.76465
0.999995
1.00001
1.00003
1.00013
1.00024
1.00079
1.00144
1.00444
1.00879
1.02382
1.05968
1.13803
1.40914
2.10695
2.584
2.7178
2.71083
2.70157
2.71636
2.72703
2.73862
2.74725
2.75053
2.7517
2.75489
0.999995
1.00001
1.00003
1.00012
1.00022
1.00073
1.00133
1.00415
1.00796
1.02249
1.05228
1.12647
1.35814
2.00268
2.5455
2.7089
2.7023
2.69093
2.70534
2.71594
2.72509
2.73026
2.73786
2.73941
2.73534
0.999995
1.00001
1.00003
1.00011
1.0002
1.00066
1.0012
1.00375
1.00715
1.02054
1.04574
1.11554
1.30803
1.90051
2.48919
2.68836
2.68185
2.67408
2.68925
2.69986
2.71254
2.71482
2.71479
2.7131
2.71197
0.999995
1.00001
1.00002
1.0001
1.00018
1.00059
1.00107
1.00338
1.00639
1.0185
1.04085
1.10315
1.27493
1.79476
2.4736
2.67931
2.66568
2.65766
2.67341
2.67788
2.68863
2.69301
2.69253
2.68585
2.66086
0.999994
1.00001
1.00002
1.00008
1.00015
1.00048
1.00092
1.00263
1.00567
1.01434
1.03837
1.08575
1.25628
1.66368
2.41147
2.65516
2.65451
2.6521
2.65411
2.66373
2.66439
2.66312
2.65385
2.63271
2.58361
1
1.00003
1.00005
1.00017
1.0003
1.00097
1.00178
1.0053
1.01101
1.02869
1.07683
1.17145
1.5263
2.32824
2.65837
2.7325
2.72711
2.72437
2.7391
2.7512
2.76458
2.7728
2.77912
2.7834
2.78617
1
1.00003
1.00005
1.00017
1.0003
1.00095
1.00176
1.00522
1.01087
1.02824
1.07588
1.16882
1.52155
2.31789
2.65521
2.73252
2.72696
2.72415
2.73872
2.75075
2.76385
2.77172
2.77793
2.78121
2.78313
1
1.00003
1.00005
1.00016
1.00029
1.00092
1.00171
1.00504
1.01059
1.02731
1.07389
1.1633
1.51089
2.29493
2.64696
2.73159
2.72577
2.7225
2.73689
2.74859
2.76169
2.76879
2.77452
2.77864
2.77942
1
1.00002
1.00005
1.00015
1.00028
1.00089
1.00164
1.00483
1.01015
1.02612
1.07071
1.15605
1.48976
2.25395
2.63295
2.72871
2.72237
2.71808
2.73186
2.74375
2.75707
2.7649
2.77016
2.77193
2.77466
1
1.00002
1.00004
1.00015
1.00026
1.00084
1.00155
1.0046
1.00956
1.02482
1.06628
1.14811
1.45494
2.19215
2.61233
2.72467
2.71832
2.71216
2.7271
2.73619
2.74915
2.75526
2.76217
2.76582
2.76472
1
1.00002
1.00004
1.00014
1.00025
1.0008
1.00145
1.00445
1.0088
1.02384
1.05968
1.13806
1.40915
2.10707
2.58408
2.71787
2.7109
2.70164
2.71642
2.72708
2.73869
2.74732
2.75061
2.75177
2.75496
1
1.00002
1.00004
1.00013
1.00023
1.00074
1.00134
1.00416
1.00797
1.02251
1.05229
1.1265
1.35817
2.0028
2.54557
2.70897
2.70237
2.691
2.70541
2.71601
2.72515
2.73032
2.73793
2.73948
2.73541
1
1.00002
1.00003
1.00012
1.00021
1.00067
1.00121
1.00376
1.00716
1.02055
1.04575
1.11557
1.30806
1.90059
2.48927
2.68842
2.68191
2.67414
2.68931
2.69992
2.71261
2.71489
2.71486
2.71317
2.71203
1
1.00002
1.00003
1.0001
1.00019
1.0006
1.00108
1.00339
1.0064
1.01851
1.04086
1.10318
1.27495
1.79485
2.47366
2.67938
2.66576
2.65772
2.67347
2.67795
2.68869
2.69307
2.69259
2.68591
2.66092
1
1.00001
1.00003
1.00009
1.00016
1.00049
1.00092
1.00264
1.00568
1.01435
1.03839
1.08578
1.25629
1.66381
2.41153
2.65522
2.65458
2.65216
2.65417
2.66379
2.66446
2.6632
2.65392
2.63277
2.58366
1
1.00003
1.00005
1.00017
1.0003
1.00097
1.00178
1.0053
1.01101
1.02869
1.07683
1.17146
1.5263
2.32825
2.65837
2.7325
2.72711
2.72437
2.7391
2.7512
2.76458
2.7728
2.77912
2.7834
2.78617
1
1.00003
1.00005
1.00017
1.0003
1.00095
1.00176
1.00522
1.01087
1.02824
1.07588
1.16882
1.52155
2.31789
2.65521
2.73252
2.72696
2.72415
2.73872
2.75075
2.76385
2.77172
2.77793
2.78121
2.78313
1
1.00003
1.00005
1.00016
1.00029
1.00092
1.00171
1.00504
1.01059
1.02731
1.07389
1.16331
1.51089
2.29494
2.64696
2.73159
2.72577
2.7225
2.73689
2.74859
2.76169
2.76879
2.77452
2.77864
2.77942
1
1.00002
1.00005
1.00015
1.00028
1.00089
1.00164
1.00483
1.01015
1.02612
1.07071
1.15605
1.48977
2.25395
2.63296
2.72871
2.72237
2.71808
2.73186
2.74375
2.75707
2.7649
2.77016
2.77193
2.77466
1
1.00002
1.00004
1.00015
1.00026
1.00084
1.00155
1.0046
1.00956
1.02482
1.06628
1.14811
1.45495
2.19216
2.61233
2.72467
2.71832
2.71216
2.7271
2.73619
2.74915
2.75525
2.76217
2.76582
2.76472
1
1.00002
1.00004
1.00014
1.00025
1.0008
1.00145
1.00445
1.0088
1.02384
1.05968
1.13806
1.40915
2.10708
2.58408
2.71787
2.7109
2.70164
2.71642
2.72708
2.73869
2.74732
2.75061
2.75177
2.75496
1
1.00002
1.00004
1.00013
1.00023
1.00074
1.00134
1.00416
1.00797
1.02251
1.05229
1.1265
1.35818
2.00281
2.54557
2.70897
2.70237
2.691
2.70541
2.71601
2.72515
2.73032
2.73793
2.73948
2.73541
1
1.00002
1.00003
1.00012
1.00021
1.00067
1.00121
1.00376
1.00716
1.02055
1.04575
1.11557
1.30806
1.90059
2.48927
2.68842
2.68191
2.67414
2.68931
2.69992
2.71261
2.71489
2.71486
2.71317
2.71203
1
1.00002
1.00003
1.0001
1.00019
1.0006
1.00108
1.00339
1.0064
1.01851
1.04086
1.10318
1.27495
1.79486
2.47366
2.67938
2.66576
2.65772
2.67347
2.67795
2.68869
2.69307
2.69259
2.68591
2.66092
1
1.00001
1.00003
1.00009
1.00016
1.00049
1.00092
1.00264
1.00568
1.01435
1.03839
1.08578
1.2563
1.66382
2.41153
2.65522
2.65458
2.65216
2.65417
2.66379
2.66446
2.6632
2.65392
2.63277
2.58366
1
1.00003
1.00005
1.00017
1.0003
1.00097
1.00178
1.0053
1.01101
1.02869
1.07683
1.17145
1.5263
2.32825
2.65837
2.7325
2.72711
2.72437
2.7391
2.7512
2.76458
2.7728
2.77912
2.7834
2.78617
1
1.00003
1.00005
1.00017
1.0003
1.00095
1.00176
1.00522
1.01087
1.02824
1.07588
1.16882
1.52155
2.31789
2.65521
2.73252
2.72696
2.72415
2.73872
2.75075
2.76385
2.77172
2.77793
2.78121
2.78313
1
1.00003
1.00005
1.00016
1.00029
1.00092
1.00171
1.00504
1.01059
1.02731
1.07389
1.16331
1.51089
2.29494
2.64696
2.73159
2.72577
2.7225
2.73689
2.74859
2.76169
2.76879
2.77452
2.77864
2.77942
1
1.00002
1.00005
1.00015
1.00028
1.00089
1.00164
1.00483
1.01015
1.02612
1.07071
1.15605
1.48977
2.25395
2.63296
2.72871
2.72237
2.71808
2.73186
2.74375
2.75707
2.7649
2.77016
2.77193
2.77466
1
1.00002
1.00004
1.00015
1.00026
1.00084
1.00155
1.0046
1.00956
1.02482
1.06628
1.14811
1.45495
2.19216
2.61233
2.72467
2.71832
2.71216
2.7271
2.73619
2.74915
2.75525
2.76217
2.76582
2.76472
1
1.00002
1.00004
1.00014
1.00025
1.0008
1.00145
1.00445
1.0088
1.02384
1.05968
1.13806
1.40915
2.10708
2.58408
2.71787
2.7109
2.70164
2.71642
2.72708
2.73869
2.74732
2.75061
2.75177
2.75496
1
1.00002
1.00004
1.00013
1.00023
1.00074
1.00134
1.00416
1.00797
1.02251
1.05229
1.1265
1.35818
2.00281
2.54557
2.70897
2.70237
2.691
2.70541
2.71601
2.72515
2.73032
2.73793
2.73948
2.73541
1
1.00002
1.00003
1.00012
1.00021
1.00067
1.00121
1.00376
1.00716
1.02055
1.04575
1.11557
1.30806
1.90059
2.48927
2.68842
2.68191
2.67414
2.68931
2.69992
2.71261
2.71489
2.71486
2.71317
2.71203
1
1.00002
1.00003
1.0001
1.00019
1.0006
1.00108
1.00339
1.0064
1.01851
1.04086
1.10318
1.27495
1.79486
2.47366
2.67938
2.66576
2.65772
2.67347
2.67795
2.68869
2.69307
2.69259
2.68591
2.66092
1
1.00001
1.00003
1.00009
1.00016
1.00049
1.00092
1.00264
1.00568
1.01435
1.03839
1.08578
1.2563
1.66382
2.41153
2.65522
2.65458
2.65216
2.65417
2.66379
2.66446
2.6632
2.65392
2.63277
2.58366
1
1.00003
1.00005
1.00017
1.0003
1.00097
1.00178
1.0053
1.01101
1.02869
1.07683
1.17146
1.5263
2.32825
2.65837
2.7325
2.72711
2.72437
2.7391
2.7512
2.76458
2.7728
2.77912
2.7834
2.78617
1
1.00003
1.00005
1.00017
1.0003
1.00095
1.00176
1.00522
1.01087
1.02824
1.07589
1.16882
1.52155
2.3179
2.65521
2.73252
2.72696
2.72415
2.73872
2.75075
2.76385
2.77172
2.77793
2.78121
2.78313
1
1.00003
1.00005
1.00016
1.00029
1.00092
1.00171
1.00504
1.01059
1.02731
1.07389
1.16331
1.51089
2.29494
2.64696
2.73159
2.72577
2.7225
2.73689
2.74859
2.76169
2.76879
2.77452
2.77864
2.77942
1
1.00002
1.00005
1.00015
1.00028
1.00089
1.00164
1.00483
1.01015
1.02612
1.07071
1.15605
1.48977
2.25395
2.63296
2.72871
2.72237
2.71808
2.73186
2.74375
2.75707
2.7649
2.77016
2.77193
2.77466
1
1.00002
1.00004
1.00015
1.00026
1.00084
1.00155
1.0046
1.00956
1.02482
1.06628
1.14811
1.45495
2.19216
2.61233
2.72467
2.71832
2.71216
2.7271
2.73619
2.74915
2.75526
2.76217
2.76582
2.76472
1
1.00002
1.00004
1.00014
1.00025
1.0008
1.00145
1.00445
1.0088
1.02384
1.05968
1.13806
1.40915
2.10708
2.58408
2.71787
2.7109
2.70164
2.71642
2.72708
2.73869
2.74732
2.75061
2.75177
2.75496
1
1.00002
1.00004
1.00013
1.00023
1.00074
1.00134
1.00416
1.00797
1.02251
1.05229
1.1265
1.35818
2.00281
2.54557
2.70897
2.70237
2.691
2.70541
2.71601
2.72515
2.73032
2.73793
2.73948
2.73541
1
1.00002
1.00003
1.00012
1.00021
1.00067
1.00121
1.00376
1.00716
1.02055
1.04575
1.11557
1.30807
1.90059
2.48927
2.68842
2.68191
2.67414
2.68931
2.69992
2.71261
2.71489
2.71486
2.71317
2.71203
1
1.00002
1.00003
1.0001
1.00019
1.0006
1.00108
1.00339
1.0064
1.01851
1.04086
1.10318
1.27495
1.79486
2.47366
2.67938
2.66576
2.65772
2.67347
2.67795
2.68869
2.69307
2.69259
2.68591
2.66092
1
1.00001
1.00003
1.00009
1.00016
1.00049
1.00092
1.00264
1.00568
1.01435
1.03839
1.08578
1.2563
1.66382
2.41153
2.65522
2.65458
2.65216
2.65417
2.66379
2.66446
2.6632
2.65392
2.63277
2.58366
1
1.00003
1.00005
1.00017
1.0003
1.00097
1.00178
1.0053
1.01101
1.02869
1.07683
1.17146
1.5263
2.32825
2.65837
2.7325
2.72711
2.72437
2.7391
2.7512
2.76458
2.7728
2.77912
2.7834
2.78617
1
1.00003
1.00005
1.00017
1.0003
1.00095
1.00176
1.00522
1.01087
1.02824
1.07589
1.16882
1.52155
2.31789
2.65521
2.73252
2.72696
2.72415
2.73872
2.75075
2.76385
2.77172
2.77793
2.78121
2.78313
1
1.00003
1.00005
1.00016
1.00029
1.00092
1.00171
1.00504
1.01059
1.02731
1.07389
1.16331
1.51089
2.29494
2.64696
2.73159
2.72577
2.7225
2.73689
2.74859
2.76169
2.76879
2.77452
2.77864
2.77942
1
1.00002
1.00005
1.00015
1.00028
1.00089
1.00164
1.00483
1.01015
1.02612
1.07071
1.15605
1.48977
2.25395
2.63296
2.72871
2.72237
2.71808
2.73186
2.74375
2.75707
2.7649
2.77016
2.77193
2.77466
1
1.00002
1.00004
1.00015
1.00026
1.00084
1.00155
1.0046
1.00956
1.02482
1.06628
1.14811
1.45495
2.19216
2.61233
2.72467
2.71832
2.71216
2.7271
2.73619
2.74915
2.75526
2.76217
2.76582
2.76472
1
1.00002
1.00004
1.00014
1.00025
1.0008
1.00145
1.00445
1.0088
1.02384
1.05968
1.13806
1.40915
2.10708
2.58408
2.71787
2.7109
2.70164
2.71642
2.72708
2.73869
2.74732
2.75061
2.75177
2.75496
1
1.00002
1.00004
1.00013
1.00023
1.00074
1.00134
1.00416
1.00797
1.02251
1.05229
1.1265
1.35818
2.00281
2.54557
2.70897
2.70237
2.691
2.70541
2.71601
2.72515
2.73032
2.73793
2.73948
2.73541
1
1.00002
1.00003
1.00012
1.00021
1.00067
1.00121
1.00376
1.00716
1.02055
1.04575
1.11557
1.30807
1.90059
2.48927
2.68842
2.68191
2.67414
2.68931
2.69992
2.71261
2.71489
2.71486
2.71317
2.71203
1
1.00002
1.00003
1.0001
1.00019
1.0006
1.00108
1.00339
1.0064
1.01851
1.04086
1.10318
1.27495
1.79486
2.47366
2.67938
2.66576
2.65772
2.67347
2.67795
2.68869
2.69307
2.69259
2.68591
2.66092
1
1.00001
1.00003
1.00009
1.00016
1.00049
1.00092
1.00264
1.00568
1.01435
1.03839
1.08578
1.2563
1.66382
2.41153
2.65522
2.65458
2.65216
2.65417
2.66379
2.66446
2.6632
2.65392
2.63277
2.58366
1
1.00003
1.00005
1.00017
1.0003
1.00097
1.00178
1.0053
1.01101
1.02869
1.07683
1.17146
1.5263
2.32825
2.65837
2.7325
2.72711
2.72437
2.7391
2.7512
2.76458
2.7728
2.77912
2.7834
2.78617
1
1.00003
1.00005
1.00017
1.0003
1.00095
1.00176
1.00522
1.01087
1.02824
1.07588
1.16882
1.52155
2.31789
2.65521
2.73252
2.72696
2.72415
2.73872
2.75075
2.76385
2.77172
2.77793
2.78121
2.78313
1
1.00003
1.00005
1.00016
1.00029
1.00092
1.00171
1.00504
1.01059
1.02731
1.07389
1.16331
1.51089
2.29494
2.64696
2.73159
2.72577
2.7225
2.73689
2.74859
2.76169
2.76879
2.77452
2.77864
2.77942
1
1.00002
1.00005
1.00015
1.00028
1.00089
1.00164
1.00483
1.01015
1.02612
1.07071
1.15605
1.48977
2.25395
2.63296
2.72871
2.72237
2.71808
2.73186
2.74375
2.75707
2.7649
2.77016
2.77193
2.77466
1
1.00002
1.00004
1.00015
1.00026
1.00084
1.00155
1.0046
1.00956
1.02482
1.06628
1.14811
1.45495
2.19216
2.61233
2.72467
2.71832
2.71216
2.7271
2.73619
2.74915
2.75525
2.76217
2.76582
2.76472
1
1.00002
1.00004
1.00014
1.00025
1.0008
1.00145
1.00445
1.0088
1.02384
1.05968
1.13806
1.40915
2.10708
2.58408
2.71787
2.7109
2.70164
2.71642
2.72708
2.73869
2.74732
2.75061
2.75177
2.75496
1
1.00002
1.00004
1.00013
1.00023
1.00074
1.00134
1.00416
1.00797
1.02251
1.05229
1.1265
1.35818
2.00281
2.54557
2.70897
2.70237
2.691
2.70541
2.71601
2.72515
2.73032
2.73793
2.73948
2.73541
1
1.00002
1.00003
1.00012
1.00021
1.00067
1.00121
1.00376
1.00716
1.02055
1.04575
1.11557
1.30806
1.90059
2.48927
2.68842
2.68191
2.67414
2.68931
2.69992
2.71261
2.71489
2.71486
2.71317
2.71203
1
1.00002
1.00003
1.0001
1.00019
1.0006
1.00108
1.00339
1.0064
1.01851
1.04086
1.10318
1.27495
1.79486
2.47366
2.67938
2.66576
2.65772
2.67347
2.67795
2.68869
2.69307
2.69259
2.68591
2.66092
1
1.00001
1.00003
1.00009
1.00016
1.00049
1.00092
1.00264
1.00568
1.01435
1.03839
1.08578
1.2563
1.66382
2.41153
2.65522
2.65458
2.65216
2.65417
2.66379
2.66446
2.6632
2.65392
2.63277
2.58366
1
1.00003
1.00005
1.00017
1.0003
1.00097
1.00178
1.0053
1.01101
1.02869
1.07683
1.17146
1.5263
2.32825
2.65837
2.7325
2.72711
2.72437
2.7391
2.7512
2.76458
2.7728
2.77912
2.7834
2.78617
1
1.00003
1.00005
1.00017
1.0003
1.00095
1.00176
1.00522
1.01087
1.02824
1.07588
1.16882
1.52155
2.31789
2.65521
2.73252
2.72696
2.72415
2.73872
2.75075
2.76385
2.77172
2.77793
2.78121
2.78313
1
1.00003
1.00005
1.00016
1.00029
1.00092
1.00171
1.00504
1.01059
1.02731
1.07389
1.16331
1.51089
2.29494
2.64696
2.73159
2.72577
2.7225
2.73689
2.74859
2.76169
2.76879
2.77452
2.77864
2.77942
1
1.00002
1.00005
1.00015
1.00028
1.00089
1.00164
1.00483
1.01015
1.02612
1.07071
1.15605
1.48977
2.25395
2.63296
2.72871
2.72237
2.71808
2.73186
2.74375
2.75707
2.7649
2.77016
2.77193
2.77466
1
1.00002
1.00004
1.00015
1.00026
1.00084
1.00155
1.0046
1.00956
1.02482
1.06628
1.14811
1.45495
2.19216
2.61233
2.72467
2.71832
2.71216
2.7271
2.73619
2.74915
2.75525
2.76217
2.76582
2.76472
1
1.00002
1.00004
1.00014
1.00025
1.0008
1.00145
1.00445
1.0088
1.02384
1.05968
1.13806
1.40915
2.10708
2.58408
2.71787
2.7109
2.70164
2.71642
2.72708
2.73869
2.74732
2.75061
2.75177
2.75496
1
1.00002
1.00004
1.00013
1.00023
1.00074
1.00134
1.00416
1.00797
1.02251
1.05229
1.1265
1.35818
2.00281
2.54557
2.70897
2.70237
2.691
2.70541
2.71601
2.72515
2.73032
2.73793
2.73948
2.73541
1
1.00002
1.00003
1.00012
1.00021
1.00067
1.00121
1.00376
1.00716
1.02055
1.04575
1.11557
1.30806
1.90059
2.48927
2.68842
2.68191
2.67414
2.68931
2.69992
2.71261
2.71489
2.71486
2.71317
2.71203
1
1.00002
1.00003
1.0001
1.00019
1.0006
1.00108
1.00339
1.0064
1.01851
1.04086
1.10318
1.27495
1.79486
2.47366
2.67938
2.66576
2.65772
2.67347
2.67795
2.68869
2.69307
2.69259
2.68591
2.66092
1
1.00001
1.00003
1.00009
1.00016
1.00049
1.00092
1.00264
1.00568
1.01435
1.03839
1.08578
1.2563
1.66382
2.41153
2.65522
2.65458
2.65216
2.65417
2.66379
2.66446
2.6632
2.65392
2.63277
2.58366
1
1.00003
1.00005
1.00017
1.0003
1.00097
1.00178
1.0053
1.01101
1.02869
1.07683
1.17145
1.5263
2.32824
2.65837
2.7325
2.72711
2.72437
2.7391
2.7512
2.76458
2.7728
2.77912
2.7834
2.78617
1
1.00003
1.00005
1.00017
1.0003
1.00095
1.00176
1.00522
1.01087
1.02824
1.07588
1.16882
1.52155
2.31789
2.65521
2.73252
2.72696
2.72415
2.73872
2.75075
2.76385
2.77172
2.77793
2.78121
2.78313
1
1.00003
1.00005
1.00016
1.00029
1.00092
1.00171
1.00504
1.01059
1.02731
1.07389
1.1633
1.51089
2.29493
2.64696
2.73159
2.72577
2.7225
2.73689
2.74859
2.76169
2.76879
2.77452
2.77864
2.77942
1
1.00002
1.00005
1.00015
1.00028
1.00089
1.00164
1.00483
1.01015
1.02612
1.07071
1.15605
1.48976
2.25395
2.63295
2.72871
2.72237
2.71808
2.73186
2.74375
2.75707
2.7649
2.77016
2.77193
2.77466
1
1.00002
1.00004
1.00015
1.00026
1.00084
1.00155
1.0046
1.00956
1.02482
1.06628
1.14811
1.45494
2.19215
2.61233
2.72467
2.71832
2.71216
2.7271
2.73619
2.74915
2.75526
2.76217
2.76582
2.76472
1
1.00002
1.00004
1.00014
1.00025
1.0008
1.00145
1.00445
1.0088
1.02384
1.05968
1.13806
1.40915
2.10707
2.58408
2.71787
2.7109
2.70164
2.71642
2.72708
2.73869
2.74732
2.75061
2.75177
2.75496
1
1.00002
1.00004
1.00013
1.00023
1.00074
1.00134
1.00416
1.00797
1.02251
1.05229
1.1265
1.35817
2.0028
2.54557
2.70897
2.70237
2.691
2.70541
2.71601
2.72515
2.73032
2.73793
2.73948
2.73541
1
1.00002
1.00003
1.00012
1.00021
1.00067
1.00121
1.00376
1.00716
1.02055
1.04575
1.11557
1.30806
1.90059
2.48927
2.68842
2.68191
2.67414
2.68931
2.69992
2.71261
2.71489
2.71486
2.71317
2.71203
1
1.00002
1.00003
1.0001
1.00019
1.0006
1.00108
1.00339
1.0064
1.01851
1.04086
1.10318
1.27495
1.79485
2.47366
2.67938
2.66576
2.65772
2.67347
2.67795
2.68869
2.69307
2.69259
2.68591
2.66092
1
1.00001
1.00003
1.00009
1.00016
1.00049
1.00092
1.00264
1.00568
1.01435
1.03839
1.08578
1.25629
1.66381
2.41153
2.65522
2.65458
2.65216
2.65417
2.66379
2.66446
2.6632
2.65392
2.63277
2.58366
0.999996
1.00002
1.00004
1.00016
1.0003
1.00096
1.00178
1.00529
1.011
1.02868
1.07681
1.17141
1.52626
2.32811
2.65829
2.73244
2.72704
2.7243
2.73903
2.75113
2.7645
2.77272
2.77904
2.78332
2.78609
0.999996
1.00002
1.00004
1.00016
1.00029
1.00094
1.00175
1.00521
1.01086
1.02822
1.07587
1.16878
1.52151
2.31775
2.65513
2.73245
2.7269
2.72408
2.73865
2.75068
2.76378
2.77165
2.77785
2.78113
2.78306
0.999995
1.00002
1.00004
1.00015
1.00028
1.00092
1.0017
1.00503
1.01058
1.02729
1.07388
1.16326
1.51085
2.29479
2.64688
2.73152
2.7257
2.72243
2.73681
2.74852
2.76162
2.76871
2.77444
2.77856
2.77934
0.999995
1.00002
1.00004
1.00015
1.00027
1.00088
1.00163
1.00482
1.01014
1.0261
1.0707
1.15601
1.48972
2.2538
2.63288
2.72864
2.7223
2.71801
2.73179
2.74368
2.757
2.76482
2.77008
2.77185
2.77458
0.999995
1.00002
1.00004
1.00014
1.00026
1.00083
1.00154
1.00458
1.00955
1.0248
1.06626
1.14807
1.4549
2.192
2.61225
2.7246
2.71825
2.71209
2.72703
2.73612
2.74908
2.75518
2.76209
2.76574
2.76465
0.999995
1.00001
1.00003
1.00013
1.00024
1.00079
1.00144
1.00444
1.00879
1.02382
1.05968
1.13803
1.40913
2.10695
2.584
2.7178
2.71083
2.70157
2.71636
2.72703
2.73862
2.74725
2.75053
2.7517
2.75489
0.999995
1.00001
1.00003
1.00012
1.00022
1.00073
1.00133
1.00415
1.00796
1.02249
1.05228
1.12647
1.35814
2.00268
2.5455
2.7089
2.7023
2.69093
2.70534
2.71594
2.72509
2.73026
2.73786
2.73941
2.73534
0.999995
1.00001
1.00003
1.00011
1.0002
1.00066
1.0012
1.00375
1.00715
1.02054
1.04574
1.11554
1.30803
1.90051
2.48919
2.68836
2.68185
2.67408
2.68925
2.69986
2.71254
2.71482
2.71479
2.7131
2.71197
0.999995
1.00001
1.00002
1.0001
1.00018
1.00059
1.00107
1.00338
1.00639
1.0185
1.04085
1.10315
1.27493
1.79476
2.4736
2.67931
2.66568
2.65766
2.67341
2.67788
2.68863
2.69301
2.69253
2.68585
2.66086
0.999994
1.00001
1.00002
1.00008
1.00015
1.00048
1.00092
1.00263
1.00567
1.01434
1.03837
1.08575
1.25628
1.66368
2.41147
2.65516
2.65451
2.6521
2.65411
2.66373
2.66439
2.66312
2.65385
2.63271
2.58361
0.999996
1
1.00002
1.00005
1.00018
1.00034
1.00106
1.00202
1.0058
1.01255
1.03197
1.08717
1.19498
1.58256
2.39157
2.60561
2.63708
2.63454
2.63436
2.64099
2.64188
2.63509
2.61413
2.56256
2.38171
0.999996
1
1.00002
1.00004
1.00016
1.00029
1.00093
1.00172
1.00512
1.01063
1.02769
1.07397
1.16496
1.50472
2.27363
2.56801
2.63442
2.62604
2.61445
2.61407
2.6114
2.59789
2.56541
2.50416
2.3189
0.999995
0.999999
1.00002
1.00004
1.00013
1.00025
1.0008
1.00147
1.0044
1.00898
1.02361
1.06149
1.13889
1.41756
2.1007
2.499
2.62439
2.6157
2.6012
2.59075
2.5843
2.56783
2.52739
2.46868
2.31714
0.999995
0.999998
1.00001
1.00003
1.00011
1.00021
1.00067
1.00123
1.00384
1.0073
1.02088
1.04696
1.11652
1.31631
1.89883
2.40412
2.59964
2.59195
2.5851
2.56744
2.55002
2.52835
2.49091
2.44642
2.32826
0.999995
0.999997
1.00001
1.00002
1.00009
1.00017
1.00054
1.00101
1.0031
1.00596
1.01705
1.03734
1.09675
1.24403
1.74344
2.29669
2.55297
2.56388
2.56461
2.55552
2.53236
2.50595
2.4503
2.41296
2.32955
0.999994
0.999997
1
1.00002
1.00005
1.00017
1.00032
1.00101
1.00193
1.0055
1.01191
1.03003
1.08186
1.18019
1.54479
2.28302
2.48409
2.52356
2.52175
2.52205
2.51293
2.49226
2.44221
2.39149
2.32505
0.999994
0.999996
1
1.00002
1.00004
1.00014
1.00026
1.00083
1.00153
1.00455
1.00938
1.02438
1.06422
1.14358
1.43254
2.11575
2.43353
2.51469
2.50106
2.49463
2.4789
2.46301
2.42736
2.38126
2.32236
0.999993
0.999995
0.999998
1.00001
1.00003
1.00011
1.0002
1.00065
1.00121
1.00372
1.00718
1.02029
1.04597
1.11451
1.30603
1.88836
2.30797
2.48617
2.48396
2.47615
2.45876
2.43881
2.40712
2.3626
2.31311
0.999993
0.999994
0.999998
1
1.00003
1.00006
1.0002
1.00037
1.00115
1.00218
1.00636
1.01333
1.0345
1.08904
1.20975
1.56795
2.25182
2.43363
2.44934
2.4446
2.43184
2.41476
2.39354
2.3556
2.30788
0.999992
0.999993
0.999996
1
1.00002
1.00004
1.00014
1.00027
1.00085
1.00162
1.00458
1.01002
1.02488
1.06831
1.14815
1.45985
2.12177
2.37971
2.43044
2.42258
2.40694
2.38255
2.36145
2.33901
2.29985
0.999992
0.999993
0.999994
0.999999
1.00001
1.00004
1.00008
1.00025
1.00048
1.00135
1.00295
1.00732
1.01943
1.04349
1.12839
1.2868
1.81494
2.2616
2.40849
2.40691
2.39605
2.37399
2.34492
2.31765
2.28843
0.999992
0.999992
0.999993
0.999997
1
1.00003
1.00006
1.00019
1.00035
1.00113
1.00208
1.00623
1.0126
1.03325
1.08374
1.19717
1.53124
2.16878
2.34894
2.37167
2.36801
2.35491
2.32817
2.30053
2.26878
0.999991
0.999992
0.999993
0.999994
1
1.00001
1.00005
1.0001
1.00031
1.0006
1.00174
1.00364
1.00931
1.02366
1.05416
1.15748
1.36051
1.92329
2.28455
2.35653
2.35313
2.33967
2.31654
2.29006
2.26089
0.999991
0.999991
0.999992
0.999993
0.999998
1
1.00003
1.00007
1.00023
1.00042
1.00133
1.00249
1.00717
1.01524
1.03821
1.10217
1.23175
1.61441
2.11933
2.31869
2.3255
2.31873
2.29913
2.27133
2.245
0.999991
0.999991
0.999992
0.999993
0.999995
1
1.00001
1.00006
1.00012
1.00038
1.00072
1.00218
1.00422
1.01179
1.02628
1.06406
1.16794
1.43632
1.96303
2.25411
2.30445
2.30286
2.28941
2.26292
2.23357
0.999991
0.999991
0.999991
0.999992
0.999994
0.999999
1.00001
1.00004
1.00008
1.00026
1.00049
1.00151
1.00286
1.00812
1.01749
1.04367
1.1169
1.27032
1.6958
2.1154
2.26029
2.27098
2.26602
2.25249
2.22632
0.999991
0.999991
0.999991
0.999992
0.999993
0.999995
1
1.00002
1.00007
1.00013
1.00043
1.00081
1.0024
1.0047
1.01307
1.02817
1.07351
1.17242
1.50804
1.95322
2.20021
2.24198
2.24077
2.22978
2.20912
0.999991
0.999991
0.999991
0.999991
0.999992
0.999994
1
1.00001
1.00004
1.00009
1.00029
1.00053
1.00163
1.00305
1.00879
1.01843
1.04657
1.11939
1.28694
1.70763
2.08014
2.20594
2.21927
2.21403
2.20038
0.999991
0.999991
0.999991
0.999991
0.999992
0.999993
0.999995
1.00001
1.00002
1.00007
1.00014
1.00044
1.00083
1.00244
1.00483
1.01327
1.02854
1.07537
1.17187
1.52536
1.90162
2.13274
2.17486
2.18383
2.17773
0.999991
0.999991
0.999991
0.999991
0.999991
0.999992
0.999995
0.999998
1.00001
1.00003
1.00011
1.00022
1.00067
1.00126
1.00361
1.00747
1.01899
1.04832
1.10699
1.30192
1.74823
2.04058
2.14377
2.15601
2.15221
0.999991
0.999991
0.999991
0.999991
0.999991
0.999992
0.999993
0.999995
1.00001
1.00002
1.00007
1.00014
1.00044
1.00081
1.00245
1.00464
1.01333
1.02714
1.07372
1.16334
1.50135
1.86035
2.08714
2.1244
2.12946
0.999991
0.999991
0.999991
0.999991
0.999991
0.999991
0.999992
0.999994
0.999998
1.00001
1.00003
1.00011
1.00021
1.00064
1.00119
1.00353
1.00691
1.01854
1.04322
1.10024
1.27002
1.68989
1.98075
2.09478
2.10301
0.999991
0.999991
0.999991
0.999991
0.999991
0.999991
0.999991
0.999993
0.999995
1
1.00002
1.00007
1.00013
1.0004
1.00074
1.00225
1.00423
1.01213
1.02451
1.06603
1.14683
1.42978
1.81185
2.03827
2.08427
0.999991
0.999991
0.999991
0.999991
0.999991
0.999991
0.999991
0.999992
0.999993
0.999999
1.00001
1.00004
1.00007
1.00024
1.00044
1.00137
1.00251
1.00732
1.01474
1.03783
1.09397
1.21354
1.55745
1.89776
2.04598
0.999991
0.999991
0.999991
0.999991
0.999991
0.999991
0.999991
0.999992
0.999992
0.999996
1
1.00002
1.00004
1.00014
1.00026
1.00081
1.00149
1.00437
1.00868
1.0226
1.05561
1.12306
1.3441
1.77597
1.96567
0.999991
0.999991
0.999991
0.999991
0.999991
0.999991
0.999991
0.999991
0.999992
0.999993
0.999997
1
1.00003
1.00006
1.00019
1.00037
1.00109
1.00209
1.00586
1.01218
1.03077
1.07317
1.17932
1.42412
1.85471
0.999991
0.999991
0.999991
0.999991
0.999991
0.999991
0.999991
0.999991
0.999991
0.999992
0.999994
1
1.00001
1.00004
1.00009
1.00027
1.00052
1.00154
1.00296
1.00826
1.01742
1.04343
1.1055
1.26187
1.60427
0.999991
0.999991
0.999991
0.999991
0.999991
0.999991
0.999991
0.999991
0.999991
0.999991
0.999993
0.999995
1
1.00001
1.00006
1.00012
1.00038
1.00072
1.00209
1.0041
1.01118
1.02352
1.06124
1.13739
1.39538
0.999991
0.999991
0.999991
0.999991
0.999991
0.999991
0.999991
0.999991
0.999991
0.999991
0.999992
0.999993
0.999998
1
1.00003
1.00007
1.00022
1.00041
1.00123
1.00228
1.00657
1.01306
1.0339
1.07832
1.18963
0.999991
0.999991
0.999991
0.999991
0.999991
0.999991
0.999991
0.999991
0.999991
0.999991
0.999991
0.999993
0.999994
1
1.00001
1.00005
1.00009
1.00029
1.00056
1.00162
1.00315
1.00865
1.01813
1.0465
1.10554
0.999991
0.999991
0.999991
0.999991
0.999991
0.999991
0.999991
0.999991
0.999991
0.999991
0.999991
0.999992
0.999993
0.999995
1
1.00002
1.00007
1.00013
1.0004
1.00077
1.0022
1.00432
1.01172
1.02454
1.06427
0.999991
0.999991
0.999991
0.999991
0.999991
0.999991
0.999991
0.999991
0.999991
0.999991
0.999991
0.999991
0.999992
0.999994
0.999997
1.00001
1.00003
1.0001
1.00019
1.00057
1.00108
1.00313
1.00608
1.01642
1.03581
0.999991
0.999991
0.999991
0.999991
0.999991
0.999991
0.999991
0.999991
0.999991
0.999991
0.999991
0.999991
0.999991
0.999993
0.999995
1
1.00002
1.00006
1.00013
1.0004
1.00074
1.00222
1.00419
1.01187
1.02525
0.999991
0.999991
0.999991
0.999991
0.999991
0.999991
0.999991
0.999991
0.999991
0.999991
0.999991
0.999991
0.999991
0.999992
0.999995
0.999999
1.00002
1.00004
1.00013
1.00025
1.00077
1.00146
1.00431
1.00881
1.02329
0.999991
0.999991
0.999991
0.999991
0.999991
0.999991
0.999991
0.999991
0.999991
0.999991
0.999991
0.999991
0.999991
0.999992
0.999993
0.999999
1.00001
1.00004
1.00008
1.00026
1.00052
1.00141
1.00334
1.00791
1.02227
0.999991
0.999991
0.999991
0.999991
0.999991
0.999991
0.999991
0.999991
0.999991
0.999991
0.999991
0.999991
0.999991
0.999992
0.999994
0.999997
1.00001
1.00003
1.00011
1.00021
1.00065
1.00131
1.00357
1.00841
1.02044
0.999991
0.999991
0.999991
0.999991
0.999991
0.999991
0.999991
0.999991
0.999991
0.999991
0.999991
0.999991
0.999991
0.999992
0.999993
0.999999
1.00001
1.00004
1.00008
1.00025
1.00049
1.0014
1.00316
1.00779
1.02163
0.999991
0.999991
0.999991
0.999991
0.999991
0.999991
0.999991
0.999991
0.999991
0.999991
0.999991
0.999991
0.999991
0.999992
0.999993
0.999999
1.00001
1.00004
1.00008
1.00025
1.00049
1.0014
1.00315
1.00775
1.02162
0.999991
0.999991
0.999991
0.999991
0.999991
0.999991
0.999991
0.999991
0.999991
0.999991
0.999991
0.999991
0.999991
0.999992
0.999994
0.999997
1.00001
1.00003
1.00011
1.00021
1.00068
1.00128
1.00383
1.00813
1.02098
0.999991
0.999991
0.999991
0.999991
0.999991
0.999991
0.999991
0.999991
0.999991
0.999991
0.999991
0.999991
0.999991
0.999992
0.999994
0.999997
1.00001
1.00003
1.00011
1.00021
1.00071
1.0013
1.0041
1.00804
1.02251
1
1.00001
1.00003
1.00006
1.00019
1.00034
1.00106
1.00203
1.00581
1.01256
1.03198
1.08719
1.19503
1.58259
2.39168
2.60567
2.63713
2.6346
2.63442
2.64105
2.64193
2.63513
2.61418
2.5626
2.38175
1
1.00001
1.00003
1.00005
1.00016
1.0003
1.00094
1.00173
1.00513
1.01064
1.0277
1.07399
1.165
1.50476
2.27376
2.56808
2.63447
2.62609
2.61451
2.61412
2.61146
2.59795
2.56546
2.5042
2.31893
1
1.00001
1.00002
1.00004
1.00014
1.00025
1.0008
1.00147
1.00441
1.00899
1.02364
1.06149
1.13893
1.41756
2.10079
2.49908
2.62444
2.61576
2.60124
2.59079
2.58434
2.56788
2.52745
2.46873
2.31718
1
1.00001
1.00002
1.00004
1.00012
1.00022
1.00068
1.00124
1.00385
1.00731
1.02089
1.04697
1.11655
1.31634
1.89894
2.40419
2.5997
2.59201
2.58516
2.56749
2.55007
2.52838
2.49095
2.44647
2.3283
1
1
1.00002
1.00003
1.0001
1.00018
1.00055
1.00101
1.00311
1.00597
1.01706
1.03735
1.09677
1.24404
1.74355
2.29674
2.55302
2.56394
2.56467
2.55557
2.53241
2.50598
2.45032
2.41299
2.32959
1
1
1.00001
1.00003
1.00006
1.00018
1.00033
1.00102
1.00194
1.00551
1.01192
1.03005
1.08187
1.18023
1.54481
2.28309
2.48415
2.5236
2.5218
2.5221
2.51299
2.4923
2.44224
2.39151
2.32507
1
1
1.00001
1.00003
1.00005
1.00015
1.00027
1.00084
1.00154
1.00456
1.00939
1.0244
1.06423
1.14361
1.43257
2.11583
2.43359
2.51474
2.5011
2.49467
2.47894
2.46306
2.42741
2.38131
2.32239
1
1
1.00001
1.00002
1.00004
1.00012
1.00021
1.00066
1.00122
1.00373
1.00719
1.02031
1.04598
1.11454
1.30605
1.88844
2.30802
2.48621
2.48401
2.47619
2.4588
2.43885
2.40718
2.36265
2.31315
1
1
1.00001
1.00001
1.00004
1.00007
1.00021
1.00038
1.00116
1.00219
1.00637
1.01334
1.03451
1.08905
1.20978
1.56797
2.25188
2.43367
2.44939
2.44465
2.43189
2.41479
2.39358
2.35564
2.30792
1
1
1