/*--------------------------------*- C++ -*----------------------------------*\
| =========                 |                                                 |
| \\      /  F ield         | OpenFOAM: The Open Source CFD Toolbox           |
|  \\    /   O peration     | Version:  4.1                                   |
|   \\  /    A nd           | Web:      www.OpenFOAM.org                      |
|    \\/     M anipulation  |                                                 |
\*---------------------------------------------------------------------------*/
FoamFile
{
    version     2.0;
    format      ascii;
    class       surfaceScalarField;
    location    "4.98";
    object      phi;
}
// * * * * * * * * * * * * * * * * * * * * * * * * * * * * * * * * * * * * * //

dimensions      [1 0 -1 0 0 0 0];

internalField   nonuniform List<scalar> 
150500
(
0.0168001
1.87126e-10
-3.3928e-12
0.0168001
1.03012e-09
-1.16469e-11
0.0168001
3.84456e-09
-1.34694e-11
0.0168
9.83667e-09
-2.17041e-11
0.0168
2.73542e-08
-2.13488e-11
0.0167999
6.27078e-08
-2.92556e-11
0.0167998
1.65666e-07
-2.93129e-11
0.0167994
3.7312e-07
-4.04964e-11
0.0167983
9.91583e-07
-4.23965e-11
0.0167961
2.21178e-06
-7.89959e-11
0.0167888
6.6549e-06
-9.93241e-11
0.0167727
1.60674e-05
-2.436e-10
0.0167105
5.98338e-05
-3.08929e-10
0.0165254
0.000180758
-1.26287e-09
0.0154466
0.00106209
-2.74996e-09
0.0141733
0.00127422
4.72572e-10
0.0129322
0.00124031
-8.47165e-11
0.0116416
0.00128841
-3.96547e-10
0.0102845
0.00135476
-3.99367e-10
0.00884357
0.00143831
-3.85342e-10
0.00729728
0.00154379
-3.65651e-10
0.00563911
0.00165596
-3.72739e-10
0.00387593
0.00176069
-3.78823e-10
0.00200364
0.00186987
-3.86545e-10
0.00200129
-3.98868e-10
0.0168001
3.47847e-10
-3.38328e-12
0.0168001
1.92052e-09
-1.16494e-11
0.0168001
7.18157e-09
-1.34591e-11
0.0168
1.83352e-08
-2.17219e-11
0.0168
5.10019e-08
-2.13029e-11
0.0168
1.15962e-07
-2.92565e-11
0.0167998
3.12299e-07
-2.92427e-11
0.0167995
6.6929e-07
-4.03589e-11
0.0167984
1.97471e-06
-4.22327e-11
0.0167967
4.00793e-06
-7.80627e-11
0.0167892
1.34565e-05
-9.87736e-11
0.016775
3.01337e-05
-2.37727e-10
0.0167013
0.000131331
-3.18571e-10
0.0165104
0.000367814
-1.2446e-09
0.0154149
0.00214047
-2.74716e-09
0.014107
0.00258348
4.80974e-10
0.0128889
0.00245795
-7.93157e-11
0.0116212
0.00255412
-3.96727e-10
0.0102757
0.00269792
-3.9931e-10
0.00882274
0.00288869
-3.84216e-10
0.00725821
0.00310585
-3.62435e-10
0.00558529
0.00332669
-3.6882e-10
0.00380497
0.00353852
-3.74209e-10
0.00192691
0.00374555
-3.80913e-10
0.00392586
-3.92317e-10
0.0168001
5.0446e-10
-3.37085e-12
0.0168001
2.76541e-09
-1.16443e-11
0.0168001
1.03359e-08
-1.34804e-11
0.0168
2.62714e-08
-2.16337e-11
0.0168
7.33897e-08
-2.14088e-11
0.0168
1.66435e-07
-2.91369e-11
0.0167998
4.51038e-07
-2.92432e-11
0.0167995
9.65348e-07
-4.00215e-11
0.0167985
2.85564e-06
-4.22199e-11
0.0167968
5.83244e-06
-7.66781e-11
0.0167897
1.98357e-05
-9.77468e-11
0.0167749
4.48578e-05
-2.31682e-10
0.0167085
0.000195395
-3.15105e-10
0.0165252
0.000547291
-1.20621e-09
0.0155146
0.00313332
-2.71979e-09
0.0141808
0.003919
4.96704e-10
0.0129558
0.00368261
-6.83352e-11
0.0116975
0.00381046
-3.96716e-10
0.0103625
0.00403049
-4.0124e-10
0.00890866
0.00433993
-3.86945e-10
0.00733758
0.00467438
-3.62217e-10
0.00564791
0.00501412
-3.66736e-10
0.00384166
0.0053422
-3.70396e-10
0.00194256
0.0056422
-3.74382e-10
0.00586609
-3.8167e-10
0.0168001
5.80798e-10
-3.35116e-12
0.0168001
3.22273e-09
-1.16391e-11
0.0168001
1.20599e-08
-1.34997e-11
0.0168001
3.07087e-08
-2.15298e-11
0.0168
8.53423e-08
-2.15031e-11
0.0168
1.91757e-07
-2.89575e-11
0.0167999
5.32273e-07
-2.91165e-11
0.0167998
1.03905e-06
-3.92223e-11
0.0167989
3.70078e-06
-4.17647e-11
0.0167989
5.87818e-06
-7.26392e-11
0.01679
2.80805e-05
-9.33277e-11
0.0167803
5.43751e-05
-2.19061e-10
0.0167164
0.000256985
-3.03404e-10
0.0165589
0.000700906
-1.14964e-09
0.0157106
0.00396315
-2.71444e-09
0.0143575
0.00527425
4.52569e-10
0.0131237
0.00491634
-8.08327e-11
0.0118716
0.00506054
-3.89487e-10
0.0105468
0.00535297
-3.95546e-10
0.00909971
0.00578429
-3.84097e-10
0.00752666
0.00624478
-3.62465e-10
0.00583012
0.0067083
-3.67374e-10
0.00399243
0.00717728
-3.67827e-10
0.00202183
0.00761029
-3.6746e-10
0.00788551
-3.69392e-10
0.0168001
7.397e-10
-3.34155e-12
0.0168001
4.09417e-09
-1.16119e-11
0.0168001
1.52553e-08
-1.35943e-11
0.0168
3.89768e-08
-2.13952e-11
0.0168
1.07831e-07
-2.18918e-11
0.0168
2.44381e-07
-2.9128e-11
0.0167998
6.62628e-07
-2.9997e-11
0.0167995
1.35434e-06
-4.33268e-11
0.0167986
4.48268e-06
-3.87168e-11
0.0167975
7.05164e-06
-1.16206e-10
0.0167909
3.39897e-05
-5.80014e-12
0.0167818
6.35823e-05
-3.22281e-10
0.0167393
0.000297099
-1.09931e-10
0.0166326
0.000804067
-1.03293e-09
0.0161134
0.00446318
-2.43799e-09
0.0147369
0.00665308
3.15139e-10
0.0134519
0.00620162
-2.05151e-10
0.0121822
0.00632835
-4.19581e-10
0.0108697
0.00666305
-4.09827e-10
0.00942945
0.00722173
-3.87017e-10
0.00785316
0.00781837
-3.71773e-10
0.00612363
0.00843524
-3.75267e-10
0.00423602
0.00906211
-3.71486e-10
0.00218368
0.00965998
-3.66156e-10
0.0100667
-3.62239e-10
0.0168001
9.14893e-10
-3.3181e-12
0.0168001
5.02735e-09
-1.15791e-11
0.0168001
1.87303e-08
-1.35711e-11
0.0168
4.78782e-08
-2.12621e-11
0.0168
1.32781e-07
-2.1577e-11
0.0168
3.03401e-07
-2.8348e-11
0.0167998
8.02739e-07
-2.84205e-11
0.0167994
1.77496e-06
-3.66105e-11
0.0167988
4.92682e-06
-3.9294e-11
0.0167959
9.99226e-06
-6.97016e-11
0.0167947
3.45758e-05
-5.29127e-11
0.0167879
7.03546e-05
-2.25671e-10
0.0167776
0.000304985
-1.9545e-10
0.0167554
0.000822931
-9.15688e-10
0.0168054
0.00439401
-2.24569e-09
0.0153996
0.00806088
1.97051e-10
0.013982
0.00761968
-2.27376e-10
0.0126607
0.00764771
-4.07017e-10
0.0113384
0.00798297
-4.00671e-10
0.00991879
0.00863828
-3.87172e-10
0.00833129
0.00940297
-3.81546e-10
0.00658278
0.0101811
-3.85502e-10
0.00462103
0.0110209
-3.79196e-10
0.00240955
0.0118687
-3.69956e-10
0.0124737
-3.63532e-10
0.0168001
9.62238e-10
-3.28068e-12
0.0168001
5.32029e-09
-1.1586e-11
0.0168001
1.98078e-08
-1.35465e-11
0.0168001
5.08039e-08
-2.12365e-11
0.0168
1.39868e-07
-2.14879e-11
0.0168
3.19862e-07
-2.81989e-11
0.0168
8.35092e-07
-2.8009e-11
0.0167999
1.8556e-06
-3.57966e-11
0.0167998
4.92918e-06
-3.86387e-11
0.0167991
1.07205e-05
-5.65992e-11
0.0168013
3.18365e-05
-6.63101e-11
0.0168017
6.98203e-05
-1.83714e-10
0.0168428
0.000261584
-2.19925e-10
0.0169598
0.000702964
-8.25723e-10
0.0179705
0.00336507
-2.14304e-09
0.0165507
0.00948147
-5.07049e-11
0.0147953
0.00937577
-2.69239e-10
0.0133941
0.00904725
-3.74429e-10
0.0120498
0.00932476
-3.7574e-10
0.0106093
0.0100754
-3.72395e-10
0.00901104
0.010998
-3.73818e-10
0.00720878
0.0119804
-3.81986e-10
0.00517066
0.0130559
-3.82397e-10
0.00280465
0.0142316
-3.74529e-10
0.0152755
-3.67294e-10
0.0168001
1.03286e-09
-3.24719e-12
0.0168001
5.74408e-09
-1.15943e-11
0.0168001
2.14285e-08
-1.35426e-11
0.0168001
5.52512e-08
-2.12284e-11
0.0168
1.51827e-07
-2.14524e-11
0.0168
3.48631e-07
-2.81231e-11
0.0167999
9.05162e-07
-2.77804e-11
0.0167997
2.0345e-06
-3.52823e-11
0.0167993
5.27195e-06
-3.72495e-11
0.0167982
1.18387e-05
-5.35222e-11
0.0167981
3.15435e-05
-5.64096e-11
0.016791
7.67231e-05
-1.6919e-10
0.0168143
0.0002365
-1.34872e-10
0.0168582
0.000658523
-5.83136e-10
0.017345
0.00286617
-1.09817e-09
0.0167215
0.0100971
-8.59321e-10
0.0151473
0.010947
-4.93065e-10
0.0139807
0.0102114
-3.98691e-10
0.0127386
0.0105642
-3.8983e-10
0.0113721
0.0114385
-3.76841e-10
0.0098236
0.012543
-3.78216e-10
0.0080485
0.0137522
-3.80078e-10
0.00596194
0.0151388
-3.79854e-10
0.00339303
0.0167971
-3.75354e-10
0.0186654
-3.71515e-10
0.0168001
1.40626e-09
-3.22134e-12
0.0168001
6.27723e-09
-1.15934e-11
0.0168001
2.56373e-08
-1.35574e-11
0.0168
6.15905e-08
-2.12265e-11
0.0168
1.80108e-07
-2.14819e-11
0.0168
3.93221e-07
-2.81773e-11
0.0167998
1.05496e-06
-2.79819e-11
0.0167995
2.38402e-06
-3.58275e-11
0.0167991
5.52878e-06
-3.75497e-11
0.016797
1.39577e-05
-6.01718e-11
0.0167962
3.1967e-05
-4.54998e-11
0.0167983
7.44447e-05
-1.87412e-10
0.0167925
0.00024043
-8.09301e-11
0.0168084
0.000643756
-5.57625e-10
0.0170324
0.00263322
-9.15872e-10
0.0163257
0.0107886
-1.73672e-09
0.0157257
0.0115425
-4.27328e-10
0.0145065
0.0114269
-3.55185e-10
0.013269
0.0117984
-3.68772e-10
0.012104
0.0125997
-3.70979e-10
0.0107047
0.013938
-3.76336e-10
0.0090721
0.015381
-3.77436e-10
0.00713042
0.0170764
-3.761e-10
0.00445759
0.0194657
-3.70133e-10
0.0231191
-3.69696e-10
0.0168001
-3.24257e-12
2.01332e-09
0.0168001
-1.16266e-11
1.4917e-09
0.0168001
-1.3625e-11
2.66624e-08
0.0168001
-2.18639e-11
2.28103e-08
0.0168001
-2.11884e-11
1.75714e-07
0.0168003
-2.911e-11
1.48544e-07
0.0168003
-2.81151e-11
1.0674e-06
0.016802
-3.74479e-11
7.49261e-07
0.0168002
-3.63617e-11
7.20486e-06
0.0168113
-5.98879e-11
3.0338e-06
0.0167889
-6.21828e-11
5.41241e-05
0.0168519
-1.39548e-10
1.13185e-05
0.0167083
-7.60675e-11
0.000382755
0.0169873
-5.86673e-10
0.000363096
0.0169506
-6.98713e-10
0.0026646
0.0165397
-1.84155e-09
0.011184
0.0156871
-3.01496e-10
0.0123911
0.0148154
-2.67743e-10
0.012295
0.0138781
-3.40056e-10
0.0127314
0.0128632
-3.52835e-10
0.0136106
0.0117665
-3.67396e-10
0.0150302
0.0104876
-3.68526e-10
0.0166553
0.00872651
-3.68265e-10
0.0188328
0.00614458
-3.61789e-10
0.0220427
-3.58107e-10
0.0292586
0.0168001
1.91702e-10
-5.11989e-16
0.0168001
1.03254e-09
-2.72176e-15
0.0168001
3.85235e-09
-5.95148e-15
0.0168
9.8346e-09
-1.26186e-14
0.0168
2.73819e-08
-2.30839e-14
0.0167999
6.27192e-08
-4.37381e-14
0.0167998
1.65721e-07
-9.06212e-14
0.0167994
3.73233e-07
-1.78456e-13
0.0167983
9.91779e-07
-4.2335e-13
0.0167961
2.21241e-06
-8.71379e-13
0.0167888
6.65582e-06
-2.50759e-12
0.0167727
1.60712e-05
-5.84942e-12
0.0167105
5.98328e-05
-1.55337e-11
0.0165253
0.000180774
-5.17687e-11
0.0154464
0.00106214
-1.41342e-10
0.0141732
0.0012742
2.35283e-11
0.0129321
0.00124031
-3.68423e-12
0.0116416
0.0012884
-1.55768e-11
0.0102844
0.00135474
-1.45591e-11
0.00884352
0.00143828
-1.30849e-11
0.00729725
0.00154377
-1.47733e-11
0.0056391
0.00165593
-1.71294e-11
0.00387594
0.00176066
-1.9513e-11
0.00200367
0.00186986
-2.23403e-11
0.00200131
-2.62919e-11
0.0168001
3.54062e-10
-4.96079e-16
0.0168001
1.92893e-09
-2.65448e-15
0.0168001
7.17857e-09
-5.71247e-15
0.0168
1.83818e-08
-1.21005e-14
0.0168
5.09783e-08
-2.15086e-14
0.0168
1.16026e-07
-4.00386e-14
0.0167998
3.1235e-07
-8.31578e-14
0.0167995
6.69544e-07
-1.45869e-13
0.0167984
1.97499e-06
-4.26033e-13
0.0167967
4.00904e-06
-6.8271e-13
0.0167892
1.34585e-05
-2.57517e-12
0.016775
3.01393e-05
-4.80347e-12
0.0167013
0.000131343
-2.00776e-11
0.0165104
0.000367854
-5.14937e-11
0.0154147
0.00214062
-1.47373e-10
0.0141068
0.00258346
2.70803e-11
0.0128887
0.00245793
-2.76084e-13
0.011621
0.0025541
-1.44897e-11
0.0102756
0.00269788
-1.40853e-11
0.00882265
0.00288864
-1.31332e-11
0.00725815
0.00310579
-1.43538e-11
0.00558525
0.00332664
-1.63409e-11
0.00380496
0.00353847
-1.86035e-11
0.00192691
0.00374552
-2.10917e-11
0.00392589
-2.4444e-11
0.0168001
5.13824e-10
-4.94289e-16
0.0168001
2.77529e-09
-2.64603e-15
0.0168001
1.03356e-08
-5.694e-15
0.0168
2.63193e-08
-1.20518e-14
0.0168
7.33712e-08
-2.14676e-14
0.0168
1.66481e-07
-3.99778e-14
0.0167998
4.51071e-07
-8.34502e-14
0.0167995
9.6548e-07
-1.47468e-13
0.0167985
2.85557e-06
-4.3077e-13
0.0167968
5.83225e-06
-6.98952e-13
0.0167897
1.98377e-05
-2.64983e-12
0.0167749
4.4867e-05
-4.96534e-12
0.0167085
0.000195416
-2.07246e-11
0.0165251
0.000547378
-5.30404e-11
0.0155143
0.00313361
-1.53356e-10
0.0141805
0.00391898
3.20521e-11
0.0129556
0.00368258
2.85962e-12
0.0116973
0.00381041
-1.39388e-11
0.0103624
0.00403043
-1.40907e-11
0.00890851
0.00433985
-1.36847e-11
0.00733747
0.0046743
-1.42668e-11
0.00564783
0.00501403
-1.56321e-11
0.00384161
0.00534213
-1.73898e-11
0.00194254
0.00564215
-1.90594e-11
0.00586609
-2.09926e-11
0.0168001
5.86225e-10
-4.93567e-16
0.0168001
3.24282e-09
-2.64263e-15
0.0168001
1.20335e-08
-5.69245e-15
0.0168
3.07732e-08
-1.20398e-14
0.0168
8.52183e-08
-2.15305e-14
0.0168
1.91698e-07
-4.01562e-14
0.0167999
5.31948e-07
-8.42072e-14
0.0167998
1.03764e-06
-1.50596e-13
0.0167989
3.70228e-06
-4.35708e-13
0.0167989
5.86147e-06
-7.21023e-13
0.01679
2.81214e-05
-2.71063e-12
0.0167803
5.43371e-05
-5.03208e-12
0.0167163
0.000257106
-2.10429e-11
0.0165588
0.00070104
-5.35949e-11
0.0157102
0.00396375
-1.57982e-10
0.014357
0.00527426
3.60761e-11
0.0131233
0.0049162
4.84167e-12
0.0118713
0.00506044
-1.36869e-11
0.0105465
0.00535287
-1.41533e-11
0.00909946
0.00578419
-1.41364e-11
0.00752646
0.00624465
-1.42077e-11
0.00582997
0.00670816
-1.51406e-11
0.00399233
0.00717715
-1.61856e-11
0.00202178
0.00761019
-1.69457e-11
0.00788546
-1.75555e-11
0.0168001
7.51474e-10
-4.7342e-16
0.0168001
4.1206e-09
-2.58121e-15
0.0168001
1.52867e-08
-5.45288e-15
0.0168
3.90631e-08
-1.12445e-14
0.0168
1.08051e-07
-1.99243e-14
0.0168
2.44876e-07
-3.54674e-14
0.0167998
6.63704e-07
-7.49644e-14
0.0167995
1.35809e-06
-1.05189e-13
0.0167986
4.48432e-06
-4.58201e-13
0.0167975
7.07218e-06
-3.0588e-13
0.0167909
3.39789e-05
-3.91195e-12
0.0167817
6.36371e-05
-3.97977e-12
0.0167394
0.000297078
-2.25466e-11
0.0166326
0.000804175
-5.35716e-11
0.0161135
0.00446368
-1.63495e-10
0.0147371
0.0066531
3.80298e-11
0.0134519
0.0062016
7.21664e-12
0.0121821
0.00632833
-1.30946e-11
0.0108696
0.00666301
-1.40395e-11
0.00942932
0.00722165
-1.45266e-11
0.00785302
0.00781825
-1.36981e-11
0.00612349
0.0084351
-1.42077e-11
0.00423592
0.00906195
-1.47637e-11
0.00218362
0.00965983
-1.49164e-11
0.0100666
-1.46172e-11
0.0168001
9.33184e-10
-4.91725e-16
0.0168001
5.03898e-09
-2.64795e-15
0.0168001
1.87591e-08
-5.72462e-15
0.0168
4.79198e-08
-1.18892e-14
0.0168
1.32881e-07
-2.18336e-14
0.0168
3.03604e-07
-4.0364e-14
0.0167998
8.03225e-07
-8.36962e-14
0.0167994
1.77612e-06
-1.571e-13
0.0167989
4.92878e-06
-4.26149e-13
0.0167959
1.00019e-05
-6.60081e-13
0.0167947
3.45795e-05
-2.91622e-12
0.0167879
7.03817e-05
-4.45071e-12
0.0167776
0.000305003
-2.07514e-11
0.0167554
0.000823029
-5.11688e-11
0.0168053
0.00439462
-1.61052e-10
0.0153996
0.00806076
3.33169e-11
0.013982
0.00761962
7.339e-12
0.0126608
0.00764769
-1.30222e-11
0.0113384
0.00798295
-1.44975e-11
0.00991874
0.00863824
-1.57144e-11
0.00833122
0.00940287
-1.38951e-11
0.0065827
0.010181
-1.37793e-11
0.00462095
0.0110208
-1.37603e-11
0.0024095
0.0118685
-1.32433e-11
0.0124735
-1.22308e-11
0.0168001
9.78949e-10
-4.85712e-16
0.0168001
5.32978e-09
-2.61942e-15
0.0168001
1.98223e-08
-5.6362e-15
0.0168001
5.08232e-08
-1.16866e-14
0.0168
1.39906e-07
-2.12611e-14
0.0168
3.19936e-07
-3.90774e-14
0.0168
8.35271e-07
-8.00956e-14
0.0167999
1.856e-06
-1.49508e-13
0.0167998
4.93017e-06
-3.88807e-13
0.0167991
1.07227e-05
-7.05335e-13
0.0168013
3.18436e-05
-2.52621e-12
0.0168017
6.98324e-05
-4.14607e-12
0.0168428
0.000261646
-1.86465e-11
0.0169596
0.000703152
-4.65341e-11
0.0179698
0.00336619
-1.54653e-10
0.0165502
0.00948125
1.35276e-11
0.0147951
0.00937539
1.20246e-12
0.0133939
0.00904712
-1.4348e-11
0.0120498
0.00932466
-1.5671e-11
0.0106093
0.0100754
-1.63993e-11
0.00901099
0.0109979
-1.3986e-11
0.00720874
0.0119803
-1.32688e-11
0.00517061
0.0130557
-1.30758e-11
0.00280461
0.0142314
-1.20457e-11
0.0152753
-1.03709e-11
0.0168001
1.04414e-09
-4.72861e-16
0.0168001
5.74916e-09
-2.56098e-15
0.0168001
2.14218e-08
-5.44339e-15
0.0168001
5.52225e-08
-1.12703e-14
0.0168
1.51748e-07
-1.99738e-14
0.0168
3.48521e-07
-3.6452e-14
0.0167999
9.04909e-07
-7.1573e-14
0.0167997
2.034e-06
-1.33561e-13
0.0167993
5.27135e-06
-3.22011e-13
0.0167982
1.18358e-05
-6.27631e-13
0.0167981
3.15478e-05
-1.70456e-12
0.0167911
7.67144e-05
-4.00434e-12
0.0168143
0.000236539
-1.10195e-11
0.0168584
0.000658573
-2.86844e-11
0.0173459
0.00286659
-7.54317e-11
0.0167218
0.0100974
-4.8888e-11
0.0151473
0.0109469
-2.27819e-11
0.0139807
0.0102113
-2.0156e-11
0.0127386
0.0105641
-1.98573e-11
0.0113721
0.0114384
-1.87909e-11
0.00982359
0.0125429
-1.6229e-11
0.00804847
0.0137521
-1.43153e-11
0.00596192
0.0151387
-1.33201e-11
0.003393
0.0167969
-1.16839e-11
0.0186652
-9.31323e-12
0.0168001
1.38312e-09
-4.70203e-16
0.0168001
6.38452e-09
-2.54223e-15
0.0168001
2.56722e-08
-5.40973e-15
0.0168
6.1354e-08
-1.11948e-14
0.0168
1.80126e-07
-1.99046e-14
0.0168
3.92813e-07
-3.6437e-14
0.0167998
1.05475e-06
-7.18513e-14
0.0167995
2.38333e-06
-1.38132e-13
0.0167991
5.5286e-06
-3.06671e-13
0.016797
1.39582e-05
-7.30023e-13
0.0167962
3.19616e-05
-1.27752e-12
0.0167983
7.44625e-05
-4.47049e-12
0.0167925
0.000240436
-8.22698e-12
0.0168084
0.000643786
-2.55903e-11
0.0170326
0.00263347
-6.57436e-11
0.016326
0.0107888
-1.17008e-10
0.015726
0.0115425
-2.24072e-11
0.0145066
0.0114269
-1.84972e-11
0.013269
0.0117984
-1.99731e-11
0.0121041
0.0125997
-1.95232e-11
0.0107048
0.0139379
-1.80675e-11
0.00907212
0.0153809
-1.5724e-11
0.00713042
0.0170762
-1.45148e-11
0.00445759
0.0194656
-1.2045e-11
0.0231189
-9.27935e-12
0.0168001
-4.58103e-16
1.8778e-09
0.0168001
-2.46167e-15
1.85674e-09
0.0168001
-5.12995e-15
2.54634e-08
0.0168001
-1.08292e-14
2.33255e-08
0.0168001
-1.77824e-14
1.74308e-07
0.0168003
-3.27572e-14
1.4919e-07
0.0168003
-5.93714e-14
1.06633e-06
0.016802
-1.1078e-13
7.5037e-07
0.0168002
-2.44289e-13
7.2037e-06
0.0168113
-4.76354e-13
3.03954e-06
0.0167889
-1.27929e-12
5.41216e-05
0.0168519
-2.87867e-12
1.13395e-05
0.0167083
-6.63069e-12
0.000382722
0.0169873
-2.60366e-11
0.00036321
0.0169508
-5.38336e-11
0.00266461
0.0165398
-1.25177e-10
0.0111842
0.0156873
-1.56352e-11
0.0123911
0.0148156
-1.37341e-11
0.012295
0.0138782
-1.88512e-11
0.0127314
0.0128633
-1.92091e-11
0.0136105
0.0117665
-1.8674e-11
0.0150302
0.0104876
-1.75925e-11
0.0166552
0.00872655
-1.57416e-11
0.0188327
0.0061446
-1.3179e-11
0.0220425
-1.05359e-11
0.0292584
0.0168001
1.91709e-10
1.83388e-16
0.0168001
1.03258e-09
1.65704e-16
0.0168001
3.85248e-09
-3.04398e-17
0.0168
9.83492e-09
-6.58289e-17
0.0168
2.73829e-08
-1.53852e-16
0.0167999
6.27215e-08
-3.16694e-16
0.0167998
1.65726e-07
-6.12877e-16
0.0167994
3.73251e-07
-1.47665e-15
0.0167983
9.91788e-07
-1.19097e-15
0.0167961
2.21251e-06
-5.2834e-15
0.0167888
6.65583e-06
5.33563e-15
0.0167727
1.60717e-05
3.20969e-15
0.0167105
5.98306e-05
1.83031e-13
0.0165253
0.000180773
5.60207e-13
0.0154465
0.00106213
2.50533e-12
0.0141733
0.00127419
1.56347e-12
0.0129322
0.00124031
8.48959e-13
0.0116416
0.0012884
9.7775e-13
0.0102844
0.00135474
1.1507e-12
0.00884355
0.00143828
1.33194e-12
0.00729728
0.00154377
1.14568e-12
0.00563913
0.00165593
9.3083e-13
0.00387597
0.00176067
7.36419e-13
0.00200369
0.00186987
5.7664e-13
0.00200133
3.54799e-13
0.0168001
3.54063e-10
1.80753e-16
0.0168001
1.92894e-09
1.74898e-16
0.0168001
7.17859e-09
-2.68306e-17
0.0168
1.83818e-08
-5.80607e-17
0.0168
5.09785e-08
-1.33504e-16
0.0168
1.16026e-07
-2.71324e-16
0.0167998
3.1235e-07
-5.37691e-16
0.0167995
6.69545e-07
-1.14434e-15
0.0167984
1.975e-06
-1.3554e-15
0.0167967
4.00904e-06
-3.75267e-15
0.0167892
1.34585e-05
3.50427e-15
0.016775
3.01392e-05
6.85607e-15
0.0167013
0.000131342
1.48264e-13
0.0165104
0.000367853
5.2833e-13
0.0154147
0.00214061
2.36785e-12
0.0141068
0.00258345
1.61474e-12
0.0128887
0.00245793
9.16083e-13
0.011621
0.00255409
1.00141e-12
0.0102756
0.00269788
1.15923e-12
0.00882266
0.00288864
1.33659e-12
0.00725816
0.00310579
1.17269e-12
0.00558526
0.00332664
9.8071e-13
0.00380497
0.00353847
7.89202e-13
0.00192692
0.00374553
6.38299e-13
0.00392592
4.35322e-13
0.0168001
5.13825e-10
1.80408e-16
0.0168001
2.7753e-09
1.75818e-16
0.0168001
1.03356e-08
-2.69882e-17
0.0168
2.63194e-08
-5.84504e-17
0.0168
7.33714e-08
-1.36354e-16
0.0168
1.66482e-07
-2.77478e-16
0.0167998
4.51071e-07
-5.65918e-16
0.0167995
9.65482e-07
-1.20828e-15
0.0167985
2.85558e-06
-1.58932e-15
0.0167968
5.83226e-06
-4.24067e-15
0.0167897
1.98377e-05
1.55951e-15
0.0167749
4.4867e-05
2.42187e-15
0.0167085
0.000195416
1.31725e-13
0.0165251
0.000547378
4.82676e-13
0.0155143
0.00313361
2.25294e-12
0.0141805
0.00391897
1.70498e-12
0.0129556
0.00368258
1.16835e-12
0.0116973
0.00381041
1.00723e-12
0.0103624
0.00403043
1.15739e-12
0.00890851
0.00433985
1.34421e-12
0.00733747
0.00467429
1.21639e-12
0.00564784
0.00501403
1.06275e-12
0.00384161
0.00534213
8.89238e-13
0.00194254
0.00564216
7.6374e-13
0.00586612
6.20677e-13
0.0168001
5.86233e-10
1.80236e-16
0.0168001
3.24284e-09
1.76147e-16
0.0168001
1.20336e-08
-2.73583e-17
0.0168
3.07736e-08
-5.91729e-17
0.0168
8.52192e-08
-1.39185e-16
0.0168
1.917e-07
-2.82925e-16
0.0167999
5.31953e-07
-5.87572e-16
0.0167998
1.03766e-06
-1.24169e-15
0.0167989
3.70228e-06
-1.76616e-15
0.0167989
5.86164e-06
-4.47505e-15
0.01679
2.81211e-05
4.01773e-16
0.0167803
5.43375e-05
-2.33533e-16
0.0167163
0.000257105
1.20468e-13
0.0165588
0.000701041
4.51432e-13
0.0157102
0.00396376
2.18626e-12
0.014357
0.00527425
1.77261e-12
0.0131233
0.0049162
1.15086e-12
0.0118713
0.00506044
1.01334e-12
0.0105465
0.00535287
1.17258e-12
0.00909946
0.00578418
1.38514e-12
0.00752646
0.00624465
1.29127e-12
0.00582997
0.00670816
1.17427e-12
0.00399233
0.00717716
1.03045e-12
0.00202178
0.0076102
9.35813e-13
0.00788549
8.44977e-13
0.0168001
7.51466e-10
1.76325e-16
0.0168001
4.12057e-09
1.8334e-16
0.0168001
1.52865e-08
-2.69543e-17
0.0168
3.90627e-08
-5.88434e-17
0.0168
1.0805e-07
-1.40994e-16
0.0168
2.44874e-07
-2.92777e-16
0.0167998
6.63699e-07
-6.2099e-16
0.0167995
1.35806e-06
-1.47126e-15
0.0167986
4.48432e-06
-1.63872e-15
0.0167975
7.07205e-06
-7.80589e-15
0.0167909
3.39792e-05
5.79703e-15
0.0167817
6.36369e-05
-1.26754e-14
0.0167394
0.00029708
1.19885e-13
0.0166326
0.000804179
4.10695e-13
0.0161135
0.00446371
2.07247e-12
0.0147371
0.00665308
1.80753e-12
0.0134519
0.00620159
8.65522e-13
0.0121821
0.00632832
1.04858e-12
0.0108696
0.006663
1.21698e-12
0.00942931
0.00722165
1.46038e-12
0.00785302
0.00781825
1.40303e-12
0.00612348
0.0084351
1.32153e-12
0.00423591
0.00906195
1.20507e-12
0.00218362
0.00965984
1.13181e-12
0.0100666
1.07196e-12
0.0168001
9.33186e-10
1.80162e-16
0.0168001
5.039e-09
1.75785e-16
0.0168001
1.87591e-08
-2.61657e-17
0.0168
4.79199e-08
-5.66419e-17
0.0168
1.32881e-07
-1.32691e-16
0.0168
3.03605e-07
-2.66676e-16
0.0167998
8.03227e-07
-5.69233e-16
0.0167994
1.77612e-06
-1.15277e-15
0.0167989
4.9288e-06
-1.71477e-15
0.0167959
1.00019e-05
-5.89532e-15
0.0167947
3.45797e-05
3.67099e-15
0.0167879
7.03821e-05
-1.18039e-14
0.0167776
0.000305005
1.08951e-13
0.0167554
0.000823036
3.74313e-13
0.0168052
0.00439467
1.94108e-12
0.0153996
0.00806075
1.84505e-12
0.013982
0.00761961
8.91135e-13
0.0126607
0.00764768
1.11356e-12
0.0113383
0.00798294
1.28121e-12
0.00991873
0.00863824
1.5534e-12
0.00833121
0.00940287
1.53839e-12
0.00658269
0.010181
1.51004e-12
0.00462094
0.0110208
1.41556e-12
0.0024095
0.0118685
1.35757e-12
0.0124735
1.31183e-12
0.0168001
9.78955e-10
1.79245e-16
0.0168001
5.32981e-09
1.79639e-16
0.0168001
1.98224e-08
-2.41913e-17
0.0168001
5.08234e-08
-5.23161e-17
0.0168
1.39907e-07
-1.21791e-16
0.0168
3.19938e-07
-2.44649e-16
0.0168
8.35277e-07
-5.19488e-16
0.0167999
1.85602e-06
-1.03372e-15
0.0167998
4.93021e-06
-1.76574e-15
0.0167991
1.07228e-05
-3.93745e-15
0.0168013
3.18441e-05
6.62942e-16
0.0168017
6.98328e-05
-1.16709e-14
0.0168428
0.000261651
8.89324e-14
0.0169596
0.000703167
3.04576e-13
0.0179698
0.00336628
1.63437e-12
0.0165501
0.00948125
1.88451e-12
0.014795
0.00937536
1.10034e-12
0.0133939
0.00904711
1.20784e-12
0.0120497
0.00932465
1.37351e-12
0.0106092
0.0100753
1.6802e-12
0.00901097
0.0109979
1.70332e-12
0.00720872
0.0119803
1.70903e-12
0.0051706
0.0130557
1.65497e-12
0.00280461
0.0142314
1.62542e-12
0.0152754
1.60091e-12
0.0168001
1.04414e-09
1.7708e-16
0.0168001
5.74918e-09
1.87186e-16
0.0168001
2.14218e-08
-2.06075e-17
0.0168001
5.52227e-08
-4.46056e-17
0.0168
1.51748e-07
-1.01745e-16
0.0168
3.48522e-07
-2.03371e-16
0.0167999
9.04911e-07
-4.196e-16
0.0167997
2.03401e-06
-8.21748e-16
0.0167993
5.27136e-06
-1.36137e-15
0.0167982
1.18358e-05
-2.85e-15
0.0167981
3.15481e-05
9.45279e-16
0.0167911
7.67145e-05
-8.82274e-15
0.0168143
0.000236541
7.00977e-14
0.0168584
0.000658578
2.08958e-13
0.017346
0.00286663
1.01383e-12
0.0167218
0.0100975
2.05807e-12
0.0151473
0.0109469
1.27311e-12
0.0139807
0.0102113
1.30339e-12
0.0127385
0.0105641
1.47525e-12
0.0113721
0.0114384
1.78193e-12
0.00982357
0.0125429
1.88558e-12
0.00804846
0.0137521
1.94606e-12
0.00596191
0.0151387
1.94584e-12
0.003393
0.0167969
1.96186e-12
0.0186652
1.97828e-12
0.0168001
1.38312e-09
1.76727e-16
0.0168001
6.38458e-09
1.8972e-16
0.0168001
2.56723e-08
-1.90853e-17
0.0168
6.13543e-08
-4.13377e-17
0.0168
1.80127e-07
-9.46788e-17
0.0168
3.92816e-07
-1.90048e-16
0.0167998
1.05476e-06
-3.90311e-16
0.0167995
2.38335e-06
-7.80706e-16
0.0167991
5.52864e-06
-1.13847e-15
0.016797
1.39583e-05
-2.98935e-15
0.0167962
3.19618e-05
2.06417e-15
0.0167983
7.44633e-05
-4.70147e-15
0.0167925
0.000240438
6.47737e-14
0.0168084
0.000643788
1.83601e-13
0.0170326
0.00263349
8.1395e-13
0.016326
0.0107888
2.17976e-12
0.015726
0.0115425
1.4182e-12
0.0145066
0.0114269
1.43046e-12
0.013269
0.0117984
1.72692e-12
0.0121041
0.0125997
1.8731e-12
0.0107048
0.0139379
2.1011e-12
0.00907211
0.0153809
2.22077e-12
0.00713042
0.0170762
2.28557e-12
0.00445759
0.0194656
2.43687e-12
0.0231189
2.5721e-12
0.0168001
1.74468e-16
1.87778e-09
0.0168001
1.9973e-16
1.85682e-09
0.0168001
-1.4508e-17
2.54633e-08
0.0168001
-3.14012e-17
2.33259e-08
0.0168001
-6.97726e-17
1.74308e-07
0.0168003
-1.40443e-16
1.49192e-07
0.0168003
-2.7017e-16
1.06634e-06
0.016802
-5.41403e-16
7.5038e-07
0.0168002
-7.28764e-16
7.20374e-06
0.0168113
-1.4753e-15
3.03961e-06
0.0167889
9.11621e-16
5.41218e-05
0.0168519
4.86474e-15
1.13399e-05
0.0167083
3.6813e-14
0.000382724
0.0169873
1.92402e-13
0.000363214
0.0169508
6.56711e-13
0.00266462
0.0165398
2.18001e-12
0.0111842
0.0156873
1.65531e-12
0.0123911
0.0148156
1.62665e-12
0.0122951
0.0138782
1.91194e-12
0.0127314
0.0128633
2.06141e-12
0.0136105
0.0117665
2.3697e-12
0.0150302
0.0104876
2.50512e-12
0.0166552
0.00872654
2.73514e-12
0.0188327
0.0061446
3.10639e-12
0.0220425
3.63736e-12
0.0292584
0.0168001
1.9171e-10
-4.37645e-17
0.0168001
1.03258e-09
-1.64628e-16
0.0168001
3.85248e-09
-4.81457e-16
0.0168
9.83493e-09
-9.34784e-16
0.0168
2.73829e-08
-2.56034e-15
0.0167999
6.27215e-08
-5.06141e-15
0.0167998
1.65726e-07
-1.4891e-14
0.0167994
3.73251e-07
-3.05654e-14
0.0167983
9.91788e-07
-9.38431e-14
0.0167961
2.21251e-06
-1.86851e-13
0.0167888
6.65583e-06
-6.68383e-13
0.0167727
1.60717e-05
-1.52272e-12
0.0167105
5.98305e-05
-5.05363e-12
0.0165253
0.000180773
-1.65141e-11
0.0154465
0.00106213
-5.15184e-11
0.0141733
0.00127419
-1.70855e-12
0.0129322
0.00124031
-5.73427e-12
0.0116416
0.0012884
-9.91731e-12
0.0102844
0.00135474
-1.05844e-11
0.00884355
0.00143828
-1.1273e-11
0.00729728
0.00154377
-1.04814e-11
0.00563913
0.00165593
-9.72562e-12
0.00387597
0.00176067
-9.30643e-12
0.00200369
0.00186987
-8.88501e-12
0.00200133
-8.50804e-12
0.0168001
3.54063e-10
-3.8634e-17
0.0168001
1.92894e-09
-1.478e-16
0.0168001
7.17859e-09
-4.29298e-16
0.0168
1.83818e-08
-8.30232e-16
0.0168
5.09785e-08
-2.24497e-15
0.0168
1.16026e-07
-4.31801e-15
0.0167998
3.1235e-07
-1.33198e-14
0.0167995
6.69545e-07
-2.37254e-14
0.0167984
1.975e-06
-9.3781e-14
0.0167967
4.00904e-06
-1.45339e-13
0.0167892
1.34585e-05
-6.7784e-13
0.016775
3.01392e-05
-1.26854e-12
0.0167013
0.000131342
-6.09452e-12
0.0165104
0.000367853
-1.6282e-11
0.0154147
0.00214061
-5.24022e-11
0.0141068
0.00258345
-9.09867e-13
0.0128888
0.00245793
-5.1267e-12
0.011621
0.00255409
-9.72386e-12
0.0102756
0.00269788
-1.04746e-11
0.00882266
0.00288864
-1.12646e-11
0.00725816
0.00310579
-1.04687e-11
0.00558527
0.00332664
-9.74359e-12
0.00380497
0.00353847
-9.32967e-12
0.00192692
0.00374553
-8.90105e-12
0.00392592
-8.51309e-12
0.0168001
5.13825e-10
-3.79911e-17
0.0168001
2.7753e-09
-1.45198e-16
0.0168001
1.03356e-08
-4.2381e-16
0.0168
2.63194e-08
-8.1907e-16
0.0168
7.33714e-08
-2.22824e-15
0.0168
1.66482e-07
-4.29148e-15
0.0167998
4.51071e-07
-1.33085e-14
0.0167995
9.65482e-07
-2.39242e-14
0.0167985
2.85558e-06
-9.41096e-14
0.0167968
5.83226e-06
-1.47616e-13
0.0167897
1.98377e-05
-6.88678e-13
0.0167749
4.4867e-05
-1.29079e-12
0.0167085
0.000195416
-6.18385e-12
0.0165251
0.000547378
-1.6457e-11
0.0155143
0.00313361
-5.33446e-11
0.0141805
0.00391897
-1.85615e-13
0.0129556
0.00368258
-4.478e-12
0.0116973
0.00381041
-9.58237e-12
0.0103624
0.00403043
-1.04265e-11
0.00890852
0.00433985
-1.13736e-11
0.00733747
0.00467429
-1.05932e-11
0.00564784
0.00501403
-9.91922e-12
0.00384161
0.00534213
-9.52622e-12
0.00194254
0.00564216
-9.10119e-12
0.00586612
-8.70809e-12
0.0168001
5.86233e-10
-3.78675e-17
0.0168001
3.24284e-09
-1.44536e-16
0.0168001
1.20336e-08
-4.23659e-16
0.0168
3.07736e-08
-8.18759e-16
0.0168
8.52192e-08
-2.24191e-15
0.0168
1.917e-07
-4.3339e-15
0.0167999
5.31953e-07
-1.34523e-14
0.0167998
1.03766e-06
-2.46222e-14
0.0167989
3.70228e-06
-9.47681e-14
0.0167989
5.86164e-06
-1.5223e-13
0.01679
2.81211e-05
-6.9904e-13
0.0167803
5.43375e-05
-1.2958e-12
0.0167163
0.000257105
-6.20721e-12
0.0165588
0.000701041
-1.64313e-11
0.0157102
0.00396376
-5.41283e-11
0.014357
0.00527425
4.1022e-13
0.0131233
0.0049162
-3.9102e-12
0.0118713
0.00506044
-9.53043e-12
0.0105465
0.00535287
-1.04802e-11
0.00909946
0.00578418
-1.16346e-11
0.00752646
0.00624465
-1.09098e-11
0.00582997
0.00670816
-1.02881e-11
0.00399233
0.00717716
-9.92631e-12
0.00202178
0.0076102
-9.49931e-12
0.00788549
-9.08425e-12
0.0168001
7.51466e-10
-3.07837e-17
0.0168001
4.12057e-09
-1.23026e-16
0.0168001
1.52865e-08
-3.54531e-16
0.0168
3.90627e-08
-6.69947e-16
0.0168
1.0805e-07
-1.81903e-15
0.0168
2.44874e-07
-3.31018e-15
0.0167998
6.637e-07
-1.12745e-14
0.0167995
1.35806e-06
-1.35585e-14
0.0167986
4.48432e-06
-1.00689e-13
0.0167975
7.07205e-06
-4.25258e-14
0.0167909
3.39792e-05
-8.99059e-13
0.0167817
6.36369e-05
-9.94005e-13
0.0167394
0.00029708
-6.54868e-12
0.0166326
0.000804179
-1.62039e-11
0.0161135
0.00446371
-5.48377e-11
0.0147371
0.00665308
5.6484e-13
0.0134519
0.00620159
-3.32563e-12
0.0121821
0.00632832
-9.56026e-12
0.0108696
0.006663
-1.06556e-11
0.00942931
0.00722165
-1.20649e-11
0.00785302
0.00781825
-1.13901e-11
0.00612348
0.0084351
-1.08222e-11
0.00423591