/*--------------------------------*- C++ -*----------------------------------*\
| =========                 |                                                 |
| \\      /  F ield         | OpenFOAM: The Open Source CFD Toolbox           |
|  \\    /   O peration     | Version:  4.1                                   |
|   \\  /    A nd           | Web:      www.OpenFOAM.org                      |
|    \\/     M anipulation  |                                                 |
\*---------------------------------------------------------------------------*/
FoamFile
{
    version     2.0;
    format      ascii;
    class       volScalarField;
    location    "2.38";
    object      T;
}
// * * * * * * * * * * * * * * * * * * * * * * * * * * * * * * * * * * * * * //

dimensions      [0 0 0 1 0 0 0];

internalField   nonuniform List<scalar> 
52500
(
0.999995
1.00002
1.00004
1.00015
1.00027
1.00088
1.00164
1.00484
1.01022
1.02625
1.0714
1.15721
1.49606
2.26256
2.6459
2.73504
2.72911
2.72753
2.74279
2.75823
2.77218
2.7807
2.7816
2.77859
2.79189
0.999995
1.00002
1.00004
1.00014
1.00027
1.00087
1.00162
1.00478
1.01006
1.02591
1.07027
1.15514
1.48743
2.24802
2.64189
2.73485
2.72877
2.72683
2.74191
2.75701
2.77083
2.77897
2.77943
2.77591
2.7891
0.999995
1.00002
1.00004
1.00014
1.00026
1.00085
1.00157
1.00466
1.00975
1.02523
1.0679
1.15086
1.46884
2.21552
2.63122
2.73311
2.72682
2.72419
2.73925
2.75432
2.76785
2.77593
2.77646
2.77291
2.78542
0.999995
1.00002
1.00004
1.00013
1.00025
1.00081
1.0015
1.00447
1.00928
1.02418
1.06436
1.14442
1.44085
2.16457
2.6137
2.72951
2.72341
2.71881
2.73331
2.7475
2.76063
2.77058
2.77236
2.76878
2.78095
0.999995
1.00001
1.00003
1.00013
1.00024
1.00078
1.00142
1.00439
1.00863
1.02355
1.05842
1.13591
1.40108
2.09036
2.58903
2.72354
2.71589
2.70998
2.72573
2.74027
2.75539
2.76296
2.763
2.76123
2.77163
0.999995
1.00001
1.00003
1.00012
1.00022
1.00072
1.00132
1.00413
1.00791
1.02237
1.05201
1.12583
1.35666
1.99879
2.55431
2.71577
2.70907
2.6991
2.71425
2.72703
2.74189
2.75347
2.75444
2.74827
2.7617
0.999995
1.00001
1.00003
1.00011
1.0002
1.00066
1.00121
1.00378
1.00721
1.02068
1.04619
1.11633
1.31167
1.90865
2.50288
2.69781
2.68973
2.68317
2.70039
2.71446
2.72729
2.73439
2.73769
2.73528
2.74151
0.999995
1.00001
1.00002
1.0001
1.00018
1.0006
1.0011
1.00343
1.00652
1.01881
1.04173
1.10519
1.28144
1.81407
2.48858
2.68933
2.67929
2.66846
2.68353
2.69576
2.71022
2.71618
2.71451
2.70685
2.71684
0.999994
1.00001
1.00002
1.00009
1.00016
1.00053
1.00097
1.00304
1.00581
1.01626
1.03811
1.0909
1.26002
1.68779
2.45102
2.67527
2.66268
2.66441
2.66898
2.67769
2.68818
2.69461
2.69394
2.68074
2.66187
0.999994
1
1.00002
1.00007
1.00013
1.00043
1.00083
1.00233
1.00518
1.01279
1.03508
1.07695
1.23945
1.58672
2.35282
2.64088
2.65844
2.65726
2.65679
2.66234
2.66262
2.66073
2.65133
2.62447
2.57997
1
1.00002
1.00005
1.00015
1.00028
1.00089
1.00165
1.00485
1.01023
1.02627
1.07141
1.15725
1.49608
2.26266
2.64596
2.7351
2.72917
2.72759
2.74285
2.75829
2.77224
2.78079
2.78169
2.77869
2.79197
1
1.00002
1.00005
1.00015
1.00028
1.00088
1.00162
1.00479
1.01007
1.02593
1.07028
1.15517
1.48746
2.24813
2.64194
2.73491
2.72883
2.72689
2.74197
2.75706
2.77089
2.77905
2.77951
2.776
2.78918
1
1.00002
1.00004
1.00015
1.00027
1.00085
1.00158
1.00467
1.00976
1.02525
1.06791
1.1509
1.46886
2.21562
2.63128
2.73318
2.72689
2.72425
2.73931
2.75437
2.76791
2.77601
2.77655
2.773
2.7855
1
1.00002
1.00004
1.00014
1.00026
1.00082
1.00151
1.00448
1.00929
1.0242
1.06437
1.14446
1.44087
2.16466
2.61373
2.72957
2.72347
2.71887
2.73337
2.74755
2.76068
2.77066
2.77245
2.76886
2.78103
1
1.00002
1.00004
1.00014
1.00025
1.00079
1.00143
1.0044
1.00864
1.02358
1.05842
1.13594
1.40106
2.09042
2.58907
2.7236
2.71595
2.71003
2.72579
2.74032
2.75544
2.76304
2.76309
2.76132
2.77171
1
1.00002
1.00004
1.00013
1.00023
1.00073
1.00133
1.00414
1.00792
1.02239
1.05202
1.12586
1.35666
1.99887
2.55436
2.71583
2.70913
2.69917
2.71431
2.72709
2.74195
2.75355
2.75453
2.74836
2.76177
1
1.00002
1.00004
1.00012
1.00021
1.00067
1.00122
1.00379
1.00722
1.02069
1.0462
1.11636
1.31168
1.9087
2.50293
2.69787
2.68979
2.68323
2.70045
2.71452
2.72736
2.73447
2.73778
2.73536
2.74158
1
1.00002
1.00003
1.00011
1.00019
1.00061
1.0011
1.00344
1.00653
1.01883
1.04174
1.10521
1.28145
1.81413
2.48863
2.68939
2.67935
2.66852
2.68359
2.69581
2.71029
2.71625
2.71458
2.70692
2.7169
1
1.00001
1.00003
1.00009
1.00017
1.00054
1.00097
1.00305
1.00582
1.01627
1.03811
1.09093
1.26001
1.68785
2.45107
2.67533
2.66273
2.66446
2.66903
2.67775
2.68824
2.69469
2.69401
2.68081
2.66193
1
1.00001
1.00002
1.00008
1.00014
1.00044
1.00084
1.00234
1.00519
1.0128
1.03509
1.07697
1.23946
1.58677
2.35287
2.64095
2.65849
2.65731
2.65684
2.66239
2.66266
2.66078
2.65139
2.62454
2.58002
1
1.00002
1.00005
1.00015
1.00028
1.00089
1.00165
1.00485
1.01023
1.02627
1.07141
1.15725
1.49608
2.26267
2.64596
2.7351
2.72917
2.72759
2.74285
2.75828
2.77224
2.78079
2.78169
2.77869
2.79197
1
1.00002
1.00005
1.00015
1.00028
1.00088
1.00162
1.00479
1.01007
1.02593
1.07028
1.15517
1.48746
2.24813
2.64194
2.73491
2.72883
2.72689
2.74197
2.75706
2.77089
2.77905
2.77951
2.776
2.78918
1
1.00002
1.00004
1.00015
1.00027
1.00085
1.00158
1.00467
1.00976
1.02525
1.06791
1.1509
1.46886
2.21563
2.63128
2.73318
2.72689
2.72425
2.73931
2.75437
2.76791
2.77601
2.77655
2.773
2.7855
1
1.00002
1.00004
1.00014
1.00026
1.00082
1.00151
1.00448
1.00929
1.0242
1.06437
1.14446
1.44087
2.16466
2.61373
2.72957
2.72347
2.71887
2.73337
2.74755
2.76068
2.77066
2.77245
2.76886
2.78103
1
1.00002
1.00004
1.00014
1.00025
1.00079
1.00143
1.0044
1.00864
1.02358
1.05842
1.13594
1.40107
2.09043
2.58907
2.7236
2.71595
2.71003
2.72579
2.74032
2.75544
2.76304
2.76309
2.76132
2.77171
1
1.00002
1.00004
1.00013
1.00023
1.00073
1.00133
1.00414
1.00792
1.02239
1.05202
1.12586
1.35666
1.99887
2.55436
2.71583
2.70913
2.69917
2.71432
2.72709
2.74195
2.75355
2.75453
2.74836
2.76177
1
1.00002
1.00004
1.00012
1.00021
1.00067
1.00122
1.00379
1.00722
1.02069
1.0462
1.11636
1.31168
1.9087
2.50293
2.69787
2.68979
2.68323
2.70045
2.71452
2.72736
2.73447
2.73778
2.73536
2.74158
1
1.00002
1.00003
1.00011
1.00019
1.00061
1.0011
1.00344
1.00653
1.01883
1.04174
1.10521
1.28145
1.81413
2.48863
2.68939
2.67936
2.66852
2.68359
2.69581
2.71029
2.71625
2.71458
2.70692
2.7169
1
1.00001
1.00003
1.00009
1.00017
1.00054
1.00097
1.00305
1.00582
1.01627
1.03811
1.09093
1.26001
1.68785
2.45107
2.67533
2.66273
2.66446
2.66903
2.67775
2.68824
2.69469
2.69401
2.68081
2.66193
1
1.00001
1.00002
1.00008
1.00014
1.00044
1.00084
1.00234
1.00519
1.0128
1.0351
1.07697
1.23946
1.58677
2.35287
2.64095
2.65849
2.65731
2.65684
2.66239
2.66266
2.66078
2.65139
2.62454
2.58002
1
1.00002
1.00005
1.00015
1.00028
1.00089
1.00165
1.00485
1.01023
1.02627
1.07141
1.15725
1.49608
2.26267
2.64596
2.7351
2.72917
2.72759
2.74285
2.75828
2.77224
2.78079
2.78169
2.77869
2.79197
1
1.00002
1.00005
1.00015
1.00028
1.00088
1.00162
1.00479
1.01007
1.02593
1.07028
1.15518
1.48746
2.24813
2.64194
2.73491
2.72883
2.72689
2.74197
2.75706
2.77089
2.77905
2.77951
2.776
2.78918
1
1.00002
1.00004
1.00015
1.00027
1.00085
1.00158
1.00467
1.00976
1.02525
1.06791
1.1509
1.46886
2.21563
2.63128
2.73318
2.72689
2.72425
2.73931
2.75437
2.76791
2.77601
2.77655
2.773
2.7855
1
1.00002
1.00004
1.00014
1.00026
1.00082
1.00151
1.00448
1.00929
1.0242
1.06437
1.14446
1.44087
2.16466
2.61373
2.72957
2.72347
2.71887
2.73337
2.74755
2.76068
2.77066
2.77245
2.76886
2.78103
1
1.00002
1.00004
1.00014
1.00025
1.00079
1.00143
1.0044
1.00864
1.02358
1.05842
1.13594
1.40107
2.09043
2.58907
2.7236
2.71595
2.71003
2.72579
2.74032
2.75544
2.76304
2.76309
2.76132
2.77171
1
1.00002
1.00004
1.00013
1.00023
1.00073
1.00133
1.00414
1.00792
1.02239
1.05202
1.12586
1.35666
1.99887
2.55436
2.71583
2.70913
2.69917
2.71432
2.72709
2.74195
2.75355
2.75453
2.74836
2.76177
1
1.00002
1.00004
1.00012
1.00021
1.00067
1.00122
1.00379
1.00722
1.02069
1.0462
1.11636
1.31168
1.9087
2.50293
2.69787
2.68979
2.68323
2.70045
2.71452
2.72736
2.73447
2.73778
2.73536
2.74158
1
1.00002
1.00003
1.00011
1.00019
1.00061
1.0011
1.00344
1.00653
1.01883
1.04174
1.10521
1.28145
1.81413
2.48863
2.68939
2.67935
2.66852
2.68359
2.69581
2.71029
2.71625
2.71458
2.70692
2.7169
1
1.00001
1.00003
1.00009
1.00017
1.00054
1.00097
1.00305
1.00582
1.01627
1.03811
1.09093
1.26001
1.68785
2.45107
2.67533
2.66273
2.66446
2.66903
2.67775
2.68824
2.69469
2.69401
2.68081
2.66193
1
1.00001
1.00002
1.00008
1.00014
1.00044
1.00084
1.00234
1.00519
1.0128
1.0351
1.07697
1.23946
1.58677
2.35287
2.64095
2.65849
2.65731
2.65684
2.66239
2.66266
2.66078
2.65139
2.62454
2.58002
1
1.00002
1.00005
1.00015
1.00028
1.00089
1.00165
1.00485
1.01023
1.02627
1.07141
1.15725
1.49608
2.26267
2.64596
2.7351
2.72917
2.72759
2.74285
2.75828
2.77224
2.78079
2.78169
2.77869
2.79197
1
1.00002
1.00005
1.00015
1.00028
1.00088
1.00162
1.00479
1.01007
1.02593
1.07028
1.15518
1.48746
2.24813
2.64194
2.73491
2.72883
2.72689
2.74197
2.75706
2.77089
2.77905
2.77951
2.776
2.78918
1
1.00002
1.00004
1.00015
1.00027
1.00085
1.00158
1.00467
1.00976
1.02525
1.06791
1.1509
1.46886
2.21563
2.63128
2.73318
2.72689
2.72425
2.73931
2.75437
2.76791
2.77601
2.77655
2.773
2.7855
1
1.00002
1.00004
1.00014
1.00026
1.00082
1.00151
1.00448
1.00929
1.0242
1.06437
1.14446
1.44087
2.16466
2.61373
2.72957
2.72347
2.71887
2.73337
2.74755
2.76068
2.77066
2.77245
2.76886
2.78103
1
1.00002
1.00004
1.00014
1.00025
1.00079
1.00143
1.0044
1.00864
1.02358
1.05842
1.13594
1.40107
2.09043
2.58907
2.7236
2.71595
2.71003
2.72579
2.74032
2.75544
2.76304
2.76309
2.76132
2.77171
1
1.00002
1.00004
1.00013
1.00023
1.00073
1.00133
1.00414
1.00792
1.02239
1.05202
1.12586
1.35666
1.99887
2.55436
2.71583
2.70913
2.69917
2.71432
2.72709
2.74195
2.75355
2.75453
2.74836
2.76177
1
1.00002
1.00004
1.00012
1.00021
1.00067
1.00122
1.00379
1.00722
1.02069
1.0462
1.11636
1.31168
1.9087
2.50293
2.69787
2.68979
2.68323
2.70045
2.71452
2.72736
2.73447
2.73778
2.73536
2.74158
1
1.00002
1.00003
1.00011
1.00019
1.00061
1.0011
1.00344
1.00653
1.01883
1.04174
1.10521
1.28145
1.81413
2.48863
2.68939
2.67935
2.66852
2.68359
2.69581
2.71029
2.71625
2.71458
2.70692
2.7169
1
1.00001
1.00003
1.00009
1.00017
1.00054
1.00097
1.00305
1.00582
1.01627
1.03811
1.09093
1.26001
1.68785
2.45107
2.67533
2.66273
2.66446
2.66903
2.67775
2.68824
2.69469
2.69401
2.68081
2.66193
1
1.00001
1.00002
1.00008
1.00014
1.00044
1.00084
1.00234
1.00519
1.0128
1.0351
1.07697
1.23946
1.58677
2.35287
2.64095
2.65849
2.65731
2.65684
2.66239
2.66266
2.66078
2.65139
2.62454
2.58002
1
1.00002
1.00005
1.00015
1.00028
1.00089
1.00165
1.00485
1.01023
1.02627
1.07141
1.15725
1.49608
2.26267
2.64596
2.7351
2.72917
2.72759
2.74285
2.75828
2.77224
2.78079
2.78169
2.77869
2.79197
1
1.00002
1.00005
1.00015
1.00028
1.00088
1.00162
1.00479
1.01007
1.02593
1.07028
1.15518
1.48746
2.24813
2.64194
2.73491
2.72883
2.72689
2.74197
2.75706
2.77089
2.77905
2.77951
2.776
2.78918
1
1.00002
1.00004
1.00015
1.00027
1.00085
1.00158
1.00467
1.00976
1.02525
1.06791
1.1509
1.46886
2.21563
2.63128
2.73318
2.72689
2.72425
2.73931
2.75437
2.76791
2.77601
2.77655
2.773
2.7855
1
1.00002
1.00004
1.00014
1.00026
1.00082
1.00151
1.00448
1.00929
1.0242
1.06437
1.14446
1.44087
2.16466
2.61373
2.72957
2.72347
2.71887
2.73337
2.74755
2.76068
2.77066
2.77245
2.76886
2.78103
1
1.00002
1.00004
1.00014
1.00025
1.00079
1.00143
1.0044
1.00864
1.02358
1.05842
1.13594
1.40107
2.09043
2.58907
2.7236
2.71595
2.71003
2.72579
2.74032
2.75544
2.76304
2.76309
2.76132
2.77171
1
1.00002
1.00004
1.00013
1.00023
1.00073
1.00133
1.00414
1.00792
1.02239
1.05202
1.12586
1.35666
1.99887
2.55436
2.71583
2.70913
2.69917
2.71432
2.72709
2.74195
2.75355
2.75453
2.74836
2.76177
1
1.00002
1.00004
1.00012
1.00021
1.00067
1.00122
1.00379
1.00722
1.02069
1.0462
1.11636
1.31168
1.9087
2.50293
2.69787
2.68979
2.68323
2.70045
2.71452
2.72736
2.73447
2.73778
2.73536
2.74158
1
1.00002
1.00003
1.00011
1.00019
1.00061
1.0011
1.00344
1.00653
1.01883
1.04174
1.10521
1.28145
1.81413
2.48863
2.68939
2.67935
2.66852
2.68359
2.69581
2.71029
2.71625
2.71458
2.70692
2.7169
1
1.00001
1.00003
1.00009
1.00017
1.00054
1.00097
1.00305
1.00582
1.01627
1.03811
1.09093
1.26001
1.68785
2.45107
2.67533
2.66273
2.66446
2.66903
2.67775
2.68824
2.69469
2.69401
2.68081
2.66193
1
1.00001
1.00002
1.00008
1.00014
1.00044
1.00084
1.00234
1.00519
1.0128
1.0351
1.07697
1.23946
1.58677
2.35287
2.64095
2.65849
2.65731
2.65684
2.66239
2.66266
2.66078
2.65139
2.62454
2.58002
1
1.00002
1.00005
1.00015
1.00028
1.00089
1.00165
1.00485
1.01023
1.02627
1.07141
1.15725
1.49608
2.26267
2.64596
2.7351
2.72917
2.72759
2.74285
2.75828
2.77224
2.78079
2.78169
2.77869
2.79197
1
1.00002
1.00005
1.00015
1.00028
1.00088
1.00162
1.00479
1.01007
1.02593
1.07028
1.15518
1.48746
2.24813
2.64194
2.73491
2.72883
2.72689
2.74197
2.75706
2.77089
2.77905
2.77951
2.776
2.78918
1
1.00002
1.00004
1.00015
1.00027
1.00085
1.00158
1.00467
1.00976
1.02525
1.06791
1.1509
1.46886
2.21563
2.63128
2.73318
2.72689
2.72425
2.73931
2.75437
2.76791
2.77601
2.77655
2.773
2.7855
1
1.00002
1.00004
1.00014
1.00026
1.00082
1.00151
1.00448
1.00929
1.0242
1.06437
1.14446
1.44087
2.16466
2.61373
2.72957
2.72347
2.71887
2.73337
2.74755
2.76068
2.77066
2.77245
2.76886
2.78103
1
1.00002
1.00004
1.00014
1.00025
1.00079
1.00143
1.0044
1.00864
1.02358
1.05842
1.13594
1.40107
2.09043
2.58907
2.7236
2.71595
2.71003
2.72579
2.74032
2.75544
2.76304
2.76309
2.76132
2.77171
1
1.00002
1.00004
1.00013
1.00023
1.00073
1.00133
1.00414
1.00792
1.02239
1.05202
1.12586
1.35666
1.99887
2.55436
2.71583
2.70913
2.69917
2.71432
2.72709
2.74195
2.75355
2.75453
2.74836
2.76177
1
1.00002
1.00004
1.00012
1.00021
1.00067
1.00122
1.00379
1.00722
1.02069
1.0462
1.11636
1.31168
1.9087
2.50293
2.69787
2.68979
2.68323
2.70045
2.71452
2.72736
2.73447
2.73778
2.73536
2.74158
1
1.00002
1.00003
1.00011
1.00019
1.00061
1.0011
1.00344
1.00653
1.01883
1.04174
1.10521
1.28145
1.81413
2.48863
2.68939
2.67935
2.66852
2.68359
2.69581
2.71029
2.71625
2.71458
2.70692
2.7169
1
1.00001
1.00003
1.00009
1.00017
1.00054
1.00097
1.00305
1.00582
1.01627
1.03811
1.09093
1.26001
1.68785
2.45107
2.67533
2.66273
2.66446
2.66903
2.67775
2.68824
2.69469
2.69401
2.68081
2.66193
1
1.00001
1.00002
1.00008
1.00014
1.00044
1.00084
1.00234
1.00519
1.0128
1.0351
1.07697
1.23946
1.58677
2.35287
2.64095
2.65849
2.65731
2.65684
2.66239
2.66266
2.66078
2.65139
2.62454
2.58002
1
1.00002
1.00005
1.00015
1.00028
1.00089
1.00165
1.00485
1.01023
1.02627
1.07141
1.15725
1.49608
2.26267
2.64596
2.7351
2.72917
2.72759
2.74285
2.75828
2.77224
2.78079
2.78169
2.77869
2.79197
1
1.00002
1.00005
1.00015
1.00028
1.00088
1.00162
1.00479
1.01007
1.02593
1.07028
1.15517
1.48746
2.24813
2.64194
2.73491
2.72883
2.72689
2.74197
2.75706
2.77089
2.77905
2.77951
2.776
2.78918
1
1.00002
1.00004
1.00015
1.00027
1.00085
1.00158
1.00467
1.00976
1.02525
1.06791
1.1509
1.46886
2.21563
2.63128
2.73318
2.72689
2.72425
2.73931
2.75437
2.76791
2.77601
2.77655
2.773
2.7855
1
1.00002
1.00004
1.00014
1.00026
1.00082
1.00151
1.00448
1.00929
1.0242
1.06437
1.14446
1.44087
2.16466
2.61373
2.72957
2.72347
2.71887
2.73337
2.74755
2.76068
2.77066
2.77245
2.76886
2.78103
1
1.00002
1.00004
1.00014
1.00025
1.00079
1.00143
1.0044
1.00864
1.02358
1.05842
1.13594
1.40107
2.09043
2.58907
2.7236
2.71595
2.71003
2.72579
2.74032
2.75544
2.76304
2.76309
2.76132
2.77171
1
1.00002
1.00004
1.00013
1.00023
1.00073
1.00133
1.00414
1.00792
1.02239
1.05202
1.12586
1.35666
1.99887
2.55436
2.71583
2.70913
2.69917
2.71432
2.72709
2.74195
2.75355
2.75453
2.74836
2.76177
1
1.00002
1.00004
1.00012
1.00021
1.00067
1.00122
1.00379
1.00722
1.02069
1.0462
1.11636
1.31168
1.9087
2.50293
2.69787
2.68979
2.68323
2.70045
2.71452
2.72736
2.73447
2.73778
2.73536
2.74158
1
1.00002
1.00003
1.00011
1.00019
1.00061
1.0011
1.00344
1.00653
1.01883
1.04174
1.10521
1.28145
1.81413
2.48863
2.68939
2.67936
2.66852
2.68359
2.69581
2.71029
2.71625
2.71458
2.70692
2.7169
1
1.00001
1.00003
1.00009
1.00017
1.00054
1.00097
1.00305
1.00582
1.01627
1.03811
1.09093
1.26001
1.68785
2.45107
2.67533
2.66273
2.66446
2.66903
2.67775
2.68824
2.69469
2.69401
2.68081
2.66193
1
1.00001
1.00002
1.00008
1.00014
1.00044
1.00084
1.00234
1.00519
1.0128
1.0351
1.07697
1.23946
1.58677
2.35287
2.64095
2.65849
2.65731
2.65684
2.66239
2.66266
2.66078
2.65139
2.62454
2.58002
1
1.00002
1.00005
1.00015
1.00028
1.00089
1.00165
1.00485
1.01023
1.02627
1.07141
1.15725
1.49608
2.26266
2.64596
2.7351
2.72917
2.72759
2.74285
2.75829
2.77224
2.78079
2.78169
2.77869
2.79197
1
1.00002
1.00005
1.00015
1.00028
1.00088
1.00162
1.00479
1.01007
1.02593
1.07028
1.15517
1.48746
2.24813
2.64194
2.73491
2.72883
2.72689
2.74197
2.75706
2.77089
2.77905
2.77951
2.776
2.78918
1
1.00002
1.00004
1.00015
1.00027
1.00085
1.00158
1.00467
1.00976
1.02525
1.06791
1.1509
1.46886
2.21562
2.63128
2.73318
2.72689
2.72425
2.73931
2.75437
2.76791
2.77601
2.77655
2.773
2.7855
1
1.00002
1.00004
1.00014
1.00026
1.00082
1.00151
1.00448
1.00929
1.0242
1.06437
1.14446
1.44087
2.16466
2.61373
2.72957
2.72347
2.71887
2.73337
2.74755
2.76068
2.77066
2.77245
2.76886
2.78103
1
1.00002
1.00004
1.00014
1.00025
1.00079
1.00143
1.0044
1.00864
1.02358
1.05842
1.13594
1.40106
2.09042
2.58907
2.7236
2.71595
2.71003
2.72579
2.74032
2.75544
2.76304
2.76309
2.76132
2.77171
1
1.00002
1.00004
1.00013
1.00023
1.00073
1.00133
1.00414
1.00792
1.02239
1.05202
1.12586
1.35666
1.99887
2.55436
2.71583
2.70913
2.69917
2.71431
2.72709
2.74195
2.75355
2.75453
2.74836
2.76177
1
1.00002
1.00004
1.00012
1.00021
1.00067
1.00122
1.00379
1.00722
1.02069
1.0462
1.11636
1.31168
1.9087
2.50293
2.69787
2.68979
2.68323
2.70045
2.71452
2.72736
2.73447
2.73778
2.73536
2.74158
1
1.00002
1.00003
1.00011
1.00019
1.00061
1.0011
1.00344
1.00653
1.01883
1.04174
1.10521
1.28145
1.81413
2.48863
2.68939
2.67935
2.66852
2.68359
2.69581
2.71029
2.71625
2.71458
2.70692
2.7169
1
1.00001
1.00003
1.00009
1.00017
1.00054
1.00097
1.00305
1.00582
1.01627
1.03811
1.09093
1.26001
1.68785
2.45107
2.67533
2.66273
2.66446
2.66903
2.67775
2.68824
2.69469
2.69401
2.68081
2.66193
1
1.00001
1.00002
1.00008
1.00014
1.00044
1.00084
1.00234
1.00519
1.0128
1.03509
1.07697
1.23946
1.58677
2.35287
2.64095
2.65849
2.65731
2.65684
2.66239
2.66266
2.66078
2.65139
2.62454
2.58002
0.999995
1.00002
1.00004
1.00015
1.00027
1.00088
1.00164
1.00484
1.01022
1.02625
1.0714
1.15721
1.49606
2.26256
2.6459
2.73504
2.72911
2.72753
2.74279
2.75823
2.77218
2.7807
2.7816
2.77859
2.79189
0.999995
1.00002
1.00004
1.00014
1.00027
1.00087
1.00162
1.00478
1.01006
1.02591
1.07027
1.15514
1.48743
2.24802
2.64189
2.73485
2.72877
2.72683
2.74191
2.75701
2.77083
2.77897
2.77943
2.77591
2.7891
0.999995
1.00002
1.00004
1.00014
1.00026
1.00085
1.00157
1.00466
1.00975
1.02523
1.0679
1.15086
1.46883
2.21552
2.63122
2.73311
2.72682
2.72419
2.73925
2.75432
2.76785
2.77593
2.77646
2.77291
2.78542
0.999995
1.00002
1.00004
1.00013
1.00025
1.00081
1.0015
1.00447
1.00928
1.02418
1.06436
1.14442
1.44085
2.16457
2.6137
2.72951
2.72341
2.71881
2.73331
2.7475
2.76063
2.77058
2.77236
2.76878
2.78095
0.999995
1.00001
1.00003
1.00013
1.00024
1.00078
1.00142
1.00439
1.00863
1.02355
1.05842
1.13591
1.40108
2.09036
2.58903
2.72354
2.71589
2.70998
2.72573
2.74027
2.75539
2.76296
2.763
2.76123
2.77163
0.999995
1.00001
1.00003
1.00012
1.00022
1.00072
1.00132
1.00413
1.00791
1.02237
1.05201
1.12583
1.35666
1.99879
2.55431
2.71577
2.70907
2.6991
2.71425
2.72703
2.74189
2.75347
2.75444
2.74827
2.7617
0.999995
1.00001
1.00003
1.00011
1.0002
1.00066
1.00121
1.00378
1.00721
1.02068
1.04619
1.11633
1.31167
1.90865
2.50288
2.69781
2.68973
2.68317
2.70039
2.71446
2.72729
2.73439
2.73769
2.73528
2.74151
0.999995
1.00001
1.00002
1.0001
1.00018
1.0006
1.0011
1.00343
1.00652
1.01881
1.04173
1.10519
1.28144
1.81407
2.48858
2.68933
2.67929
2.66846
2.68353
2.69576
2.71022
2.71618
2.71451
2.70685
2.71684
0.999994
1.00001
1.00002
1.00009
1.00016
1.00053
1.00097
1.00304
1.00581
1.01626
1.03811
1.0909
1.26002
1.68779
2.45102
2.67527
2.66268
2.66441
2.66898
2.67769
2.68818
2.69461
2.69394
2.68074
2.66187
0.999994
1
1.00002
1.00007
1.00013
1.00043
1.00083
1.00233
1.00518
1.01279
1.03508
1.07695
1.23945
1.58672
2.35282
2.64088
2.65844
2.65726
2.65679
2.66234
2.66262
2.66073
2.65133
2.62447
2.57997
0.999996
1
1.00002
1.00005
1.00016
1.0003
1.00095
1.00183
1.00515
1.01154
1.0286
1.08005
1.17433
1.54353
2.32549
2.57768
2.64266
2.63998
2.63976
2.64474
2.64424
2.63679
2.61431
2.55637
2.36055
0.999995
0.999999
1.00002
1.00004
1.00014
1.00026
1.00084
1.00156
1.00463
1.00966
1.02502
1.067
1.14933
1.45828
2.19077
2.53085
2.63422
2.62672
2.61703
2.61495
2.61015
2.59473
2.56132
2.4944
2.29361
0.999995
0.999998
1.00001
1.00003
1.00012
1.00022
1.00073
1.00133
1.00417
1.00798
1.02249
1.05261
1.12605
1.35914
1.9897
2.45339
2.61686
2.61097
2.60357
2.59633
2.58814
2.56758
2.52258
2.45659
2.29434
0.999995
0.999997
1.00001
1.00003
1.0001
1.00018
1.0006
1.0011
1.00344
1.0065
1.01888
1.04066
1.10627
1.26731
1.80511
2.34165
2.57703
2.57447
2.57257
2.56325
2.55009
2.52799
2.48308
2.43082
2.30822
0.999994
0.999996
1.00001
1.00002
1.00008
1.00015
1.00047
1.00087
1.00266
1.00526
1.01424
1.03435
1.08081
1.22833
1.60319
2.26799
2.53691
2.55576
2.55409
2.54752
2.5301
2.50446
2.44828
2.39714
2.31019
0.999994
0.999997
1
1.00002
1.00004
1.00015
1.00028
1.00088
1.0017
1.00471
1.01068
1.02598
1.07313
1.15696
1.49692
2.2025
2.44992
2.52003
2.51421
2.51174
2.50248
2.48328
2.43683
2.3806
2.30734
0.999994
0.999996
0.999999
1.00001
1.00003
1.00012
1.00023
1.00075
1.00136
1.00424
1.00815
1.02269
1.05386
1.12734
1.36464
1.98891
2.38423
2.50562
2.50101
2.49024
2.46716
2.44934
2.4151
2.36037
2.29989
0.999993
0.999995
0.999997
1.00001
1.00002
1.00009
1.00018
1.00057
1.00105
1.00321
1.00617
1.01763
1.0384
1.09976
1.24804
1.75243
2.22822
2.4623
2.47172
2.46638
2.45124
2.42367
2.39458
2.34575
2.28697
0.999993
0.999993
0.999997
1
1.00002
1.00005
1.00017
1.00032
1.00099
1.00188
1.00534
1.01157
1.02902
1.07879
1.17184
1.51785
2.18686
2.40292
2.43991
2.43341
2.42285
2.39971
2.37399
2.33612
2.28333
0.999992
0.999993
0.999995
0.999999
1.00002
1.00003
1.00013
1.00024
1.00077
1.00142
1.00427
1.00857
1.0228
1.05734
1.13171
1.38136
2.01553
2.32926
2.4188
2.41534
2.40155
2.37522
2.34658
2.31475
2.27225
0.999992
0.999992
0.999993
0.999998
1
1.00003
1.00007
1.00022
1.00041
1.00125
1.00244
1.00668
1.01521
1.03684
1.10231
1.22939
1.63697
2.17549
2.37777
2.38498
2.37871
2.36159
2.33061
2.29981
2.26389
0.999991
0.999992
0.999993
0.999996
1
1.00002
1.00004
1.00016
1.0003
1.00093
1.00175
1.00504
1.01068
1.02706
1.07243
1.15827
1.47481
2.09194
2.32207
2.35651
2.34812
2.33454
2.30903
2.27741
2.24594
0.999991
0.999991
0.999992
0.999994
0.999999
1.00001
1.00004
1.00008
1.00026
1.0005
1.00143
1.00306
1.0077
1.01992
1.04515
1.13171
1.29441
1.82155
2.21559
2.33301
2.33037
2.31489
2.29685
2.26634
2.23435
0.999991
0.999991
0.999992
0.999993
0.999997
1
1.00003
1.00006
1.00019
1.00036
1.00113
1.00207
1.00623
1.01245
1.03297
1.08129
1.19371
1.5068
2.0949
2.27692
2.29751
2.29093
2.27272
2.24669
2.21528
0.999991
0.999991
0.999991
0.999993
0.999994
1
1.00001
1.00005
1.00009
1.00031
1.00058
1.00172
1.00345
1.0091
1.02189
1.05141
1.14552
1.33415
1.8514
2.18429
2.27378
2.27307
2.26217
2.23959
2.20718
0.999991
0.999991
0.999991
0.999992
0.999993
0.999998
1
1.00003
1.00006
1.00021
1.00039
1.00122
1.00227
1.00672
1.01339
1.03579
1.08297
1.2119
1.50315
2.04733
2.21745
2.23491
2.23406
2.2222
2.1968
0.999991
0.999991
0.999991
0.999991
0.999993
0.999994
1
1.00001
1.00005
1.0001
1.00033
1.00062
1.00188
1.00363
1.01008
1.02235
1.05439
1.14417
1.35102
1.8363
2.14613
2.2139
2.21275
2.20461
2.18803
0.999991
0.999991
0.999991
0.999991
0.999992
0.999993
0.999998
1
1.00003
1.00006
1.00022
1.0004
1.00124
1.0023
1.00667
1.01376
1.03485
1.09015
1.20121
1.53733
1.97841
2.17118
2.18418
2.18199
2.16864
0.999991
0.999991
0.999991
0.999991
0.999991
0.999993
0.999994
1
1.00001
1.00005
1.0001
1.00033
1.00063
1.00186
1.00363
1.01005
1.02208
1.05428
1.13732
1.35613
1.78929
2.08329
2.15957
2.16231
2.1555
0.999991
0.999991
0.999991
0.999991
0.999991
0.999992
0.999994
0.999996
1.00001
1.00002
1.00008
1.00016
1.0005
1.00094
1.00278
1.00545
1.0149
1.03265
1.08224
1.19753
1.55584
1.92558
2.10952
2.1297
2.12898
0.999991
0.999991
0.999991
0.999991
0.999991
0.999991
0.999993
0.999994
1
1.00001
1.00005
1.0001
1.00032
1.00059
1.00181
1.00339
1.00976
1.02026
1.05131
1.12601
1.31843
1.73257
2.02653
2.10438
2.10765
0.999991
0.999991
0.999991
0.999991
0.999991
0.999991
0.999992
0.999993
0.999996
1.00001
1.00002
1.00008
1.00015
1.00046
1.00087
1.00254
1.005
1.01367
1.02921
1.07589
1.17398
1.50769
1.8574
2.05394
2.07937
0.999991
0.999991
0.999991
0.999991
0.999991
0.999991
0.999991
0.999992
0.999994
1
1.00001
1.00004
1.00009
1.00029
1.00053
1.00164
1.00301
1.00881
1.01769
1.0457
1.11056
1.26903
1.65428
1.94952
2.04805
0.999991
0.999991
0.999991
0.999991
0.999991
0.999991
0.999991
0.999992
0.999993
0.999997
1
1.00002
1.00005
1.00017
1.00031
1.00098
1.00178
1.0053
1.01023
1.02749
1.06287
1.14965
1.37888
1.80711
1.9844
0.999991
0.999991
0.999991
0.999991
0.999991
0.999991
0.999991
0.999991
0.999992
0.999994
0.999997
1.00001
1.00003
1.0001
1.00018
1.00057
1.00105
1.00314
1.00599
1.01653
1.03611
1.08762
1.22098
1.59149
1.85349
0.999991
0.999991
0.999991
0.999991
0.999991
0.999991
0.999991
0.999991
0.999992
0.999992
0.999995
0.999999
1.00002
1.00004
1.00013
1.00025
1.00075
1.00144
1.00399
1.00842
1.02087
1.05331
1.11531
1.32509
1.7294
0.999991
0.999991
0.999991
0.999991
0.999991
0.999991
0.999991
0.999991
0.999991
0.999992
0.999993
0.999997
1
1.00003
1.00006
1.00018
1.00034
1.00102
1.00195
1.00548
1.01129
1.0286
1.06746
1.16353
1.38784
0.999991
0.999991
0.999991
0.999991
0.999991
0.999991
0.999991
0.999991
0.999991
0.999991
0.999992
0.999994
0.999999
1.00001
1.00004
1.00008
1.00025
1.00047
1.00139
1.00265
1.00745
1.0154
1.03894
1.09261
1.22642
0.999991
0.999991
0.999991
0.999991
0.999991
0.999991
0.999991
0.999991
0.999991
0.999991
0.999992
0.999992
0.999996
1
1.00002
1.00004
1.00014
1.00026
1.0008
1.00147
1.00435
1.00834
1.02245
1.05086
1.11743
0.999991
0.999991
0.999991
0.999991
0.999991
0.999991
0.999991
0.999991
0.999991
0.999991
0.999991
0.999992
0.999993
0.999997
1
1.00002
1.00005
1.00018
1.00034
1.00099
1.00191
1.00526
1.01084
1.02759
1.06229
0.999991
0.999991
0.999991
0.999991
0.999991
0.999991
0.999991
0.999991
0.999991
0.999991
0.999991
0.999991
0.999992
0.999993
0.999999
1.00001
1.00004
1.00007
1.00023
1.00044
1.00129
1.00249
1.00684
1.01428
1.0358
0.999991
0.999991
0.999991
0.999991
0.999991
0.999991
0.999991
0.999991
0.999991
0.999991
0.999991
0.999991
0.999991
0.999993
0.999994
1
1.00001
1.00005
1.0001
1.0003
1.00057
1.00165
1.0032
1.00872
1.01809
0.999991
0.999991
0.999991
0.999991
0.999991
0.999991
0.999991
0.999991
0.999991
0.999991
0.999991
0.999991
0.999991
0.999992
0.999993
0.999997
1
1.00002
1.00005
1.00016
1.0003
1.0009
1.00167
1.0048
1.00936
0.999991
0.999991
0.999991
0.999991
0.999991
0.999991
0.999991
0.999991
0.999991
0.999991
0.999991
0.999991
0.999991
0.999991
0.999992
0.999993
0.999998
1
1.00003
1.00006
1.00019
1.00037
1.00106
1.00205
1.00558
0.999991
0.999991
0.999991
0.999991
0.999991
0.999991
0.999991
0.999991
0.999991
0.999991
0.999991
0.999991
0.999991
0.999991
0.999991
0.999992
0.999994
0.999999
1.00001
1.00004
1.00008
1.00024
1.00046
1.00131
1.00256
0.999991
0.999991
0.999991
0.999991
0.999991
0.999991
0.999991
0.999991
0.999991
0.999991
0.999991
0.999991
0.999991
0.999991
0.999991
0.999991
0.999993
0.999994
1
1.00001
1.00005
1.0001
1.0003
1.00057
1.00162
0.999991
0.999991
0.999991
0.999991
0.999991
0.999991
0.999991
0.999991
0.999991
0.999991
0.999991
0.999991
0.999991
0.999991
0.999991
0.999991
0.999992
0.999993
0.999995
1
1.00002
1.00006
1.00012
1.00037
1.0007
0.999991
0.999991
0.999991
0.999991
0.999991
0.999991
0.999991
0.999991
0.999991
0.999991
0.999991
0.999991
0.999991
0.999991
0.999991
0.999991
0.999991
0.999992
0.999993
0.999998
1
1.00003
1.00006
1.0002
1.00038
0.999991
0.999991
0.999991
0.999991
0.999991
0.999991
0.999991
0.999991
0.999991
0.999991
0.999991
0.999991
0.999991
0.999991
0.999991
0.999991
0.999991
0.999991
0.999993
0.999994
1
1.00001
1.00005
1.0001
1.00031
0.999991
0.999991
0.999991
0.999991
0.999991
0.999991
0.999991
0.999991
0.999991
0.999991
0.999991
0.999991
0.999991
0.999991
0.999991
0.999991
0.999991
0.999991
0.999992
0.999994
1
1.00001
1.00004
1.00008
1.00026
1
1.00001
1.00003
1.00005
1.00017
1.00031
1.00096
1.00184
1.00516
1.01155
1.02861
1.08006
1.17436
1.54355
2.32557
2.57774
2.64271
2.64003
2.63982
2.64479
2.64429
2.63684
2.61435
2.55642
2.36059
1
1.00001
1.00003
1.00005
1.00015
1.00027
1.00085
1.00157
1.00464
1.00967
1.02503
1.06701
1.14936
1.4583
2.19086
2.53091
2.63427
2.62677
2.61708
2.615
2.6102
2.59477
2.56136
2.49445
2.29364
1
1.00001
1.00002
1.00004
1.00013
1.00023
1.00074
1.00134
1.00418
1.00799
1.02251
1.05261
1.12608
1.35915
1.98976
2.45345
2.61691
2.61103
2.60361
2.59637
2.58818
2.56762
2.52262
2.45663
2.29438
1
1.00001
1.00002
1.00003
1.00011
1.00019
1.00061
1.00111
1.00345
1.00651
1.0189
1.04067
1.10629
1.26732
1.80517
2.3417
2.57708
2.57453
2.57262
2.56329
2.55013
2.52803
2.48311
2.43086
2.30828
1
1
1.00001
1.00003
1.00008
1.00015
1.00048
1.00088
1.00267
1.00527
1.01426
1.03435
1.08083
1.22832
1.60324
2.26803
2.53696
2.5558
2.55414
2.54757
2.53013
2.50449
2.4483
2.39715
2.3102
1
1
1.00001
1.00003
1.00005
1.00016
1.00029
1.00089
1.00171
1.00472
1.01069
1.02599
1.07314
1.15699
1.49693
2.20257
2.44997
2.52007
2.51426
2.51178
2.50252
2.48333
2.43687
2.38064
2.30736
1
1
1.00001
1.00002
1.00004
1.00013
1.00024
1.00076
1.00137
1.00425
1.00816
1.02271
1.05387
1.12737
1.36463
1.98896
2.38428
2.50566
2.50106
2.49028
2.46718
2.44936
2.41513
2.36041
2.29993
1
1
1.00001
1.00002
1.00003
1.0001
1.00018
1.00057
1.00105
1.00322
1.00618
1.01764
1.03841
1.09978
1.24805
1.75248
2.22826
2.46236
2.47178
2.46644
2.45131
2.42371
2.3946
2.34577
2.28699
1
1
1.00001
1.00001
1.00003
1.00006
1.00018
1.00033
1.00099
1.00189
1.00535
1.01158
1.02903
1.0788