/*--------------------------------*- C++ -*----------------------------------*\
| =========                 |                                                 |
| \\      /  F ield         | OpenFOAM: The Open Source CFD Toolbox           |
|  \\    /   O peration     | Version:  4.1                                   |
|   \\  /    A nd           | Web:      www.OpenFOAM.org                      |
|    \\/     M anipulation  |                                                 |
\*---------------------------------------------------------------------------*/
FoamFile
{
    version     2.0;
    format      ascii;
    class       volScalarField;
    location    "0.68";
    object      Ma;
}
// * * * * * * * * * * * * * * * * * * * * * * * * * * * * * * * * * * * * * //

dimensions      [0 0 0 0 0 0 0];

internalField   nonuniform List<scalar> 
52500
(
3.096
2.24318
0.928932
0.0811965
0.096689
0.364572
0.186264
0.0873251
0.157748
0.208079
0.206143
0.215227
0.229648
0.240903
0.248976
0.254085
0.251429
0.24007
0.213983
0.168507
0.117088
0.0673142
0.0433214
0.0284402
0.0336198
3.08932
2.25147
0.947118
0.0966222
0.109647
0.365529
0.190165
0.0938188
0.159117
0.209046
0.208907
0.218364
0.233277
0.244862
0.253034
0.257971
0.255272
0.244105
0.219036
0.175146
0.126231
0.0821665
0.0651246
0.0575552
0.0619508
3.0748
2.26937
0.988693
0.126851
0.129339
0.366703
0.201603
0.111127
0.167683
0.215604
0.218355
0.227043
0.241976
0.25339
0.261213
0.266125
0.264013
0.253665
0.230831
0.190544
0.14711
0.112122
0.10278
0.100788
0.105876
3.05293
2.29613
1.05423
0.162834
0.153673
0.367261
0.218872
0.13337
0.1795
0.224776
0.231406
0.238696
0.253346
0.264818
0.272668
0.277575
0.275998
0.266867
0.247111
0.211408
0.174036
0.147023
0.143633
0.145776
0.15245
3.02488
2.33068
1.14383
0.200551
0.17966
0.365408
0.23968
0.157951
0.194246
0.236648
0.24695
0.252879
0.267454
0.278996
0.28701
0.291819
0.290964
0.283449
0.267384
0.236978
0.205684
0.185878
0.187212
0.193209
0.202394
2.99141
2.3712
1.25835
0.239816
0.208024
0.359141
0.26293
0.184025
0.210999
0.250935
0.264206
0.269482
0.283877
0.295492
0.303897
0.308604
0.30869
0.303147
0.291274
0.266539
0.241642
0.228763
0.234527
0.245105
0.258141
2.95341
2.41383
1.38963
0.282646
0.238822
0.345185
0.287634
0.211084
0.22955
0.267458
0.282459
0.288238
0.302351
0.314063
0.32304
0.32749
0.328684
0.325609
0.318187
0.299546
0.281719
0.275517
0.286483
0.303326
0.322537
2.91293
2.45729
1.53037
0.336005
0.27106
0.322278
0.313589
0.238586
0.249961
0.285273
0.301311
0.309061
0.322646
0.334417
0.343856
0.348037
0.35065
0.350398
0.347537
0.335582
0.325102
0.325877
0.343979
0.370037
0.400966
2.87209
2.50218
1.67344
0.409574
0.30521
0.294161
0.340286
0.266414
0.272384
0.303791
0.320849
0.331719
0.344485
0.356177
0.365905
0.370095
0.374339
0.376988
0.378731
0.373911
0.371421
0.380166
0.407924
0.446748
0.50219
2.83463
2.55222
1.82133
0.514715
0.341932
0.27287
0.366833
0.295122
0.296043
0.322473
0.341969
0.355836
0.367492
0.37886
0.388626
0.393751
0.399395
0.404719
0.411057
0.414318
0.420216
0.438173
0.479522
0.543453
0.662343
3.09608
2.24312
0.928745
0.0807003
0.0964429
0.364462
0.185983
0.0868638
0.157388
0.20783
0.205958
0.215139
0.229621
0.240896
0.248954
0.254019
0.251319
0.239923
0.213795
0.168266
0.116781
0.0668444
0.0426644
0.0275366
0.0329005
3.08937
2.25142
0.946991
0.0963486
0.109134
0.365413
0.190179
0.0937471
0.159252
0.209203
0.20917
0.218605
0.233452
0.244947
0.253044
0.257916
0.255174
0.243969
0.218858
0.174916
0.125946
0.0817817
0.0646919
0.0571168
0.061573
3.07486
2.26932
0.988543
0.126521
0.128981
0.366628
0.201542
0.110887
0.167569
0.215568
0.218331
0.22701
0.241949
0.253364
0.261162
0.266041
0.263896
0.253525
0.230655
0.190328
0.146863
0.111838
0.10251
0.100541
0.105668
3.05302
2.29605
1.05401
0.162526
0.153433
0.367201
0.218723
0.133091
0.179282
0.224623
0.231218
0.238539
0.253197
0.26466
0.272497
0.277414
0.275842
0.266715
0.246935
0.211207
0.173824
0.146808
0.143446
0.145611
0.152316
3.02497
2.33059
1.14357
0.200338
0.179468
0.365331
0.239503
0.157695
0.19402
0.236446
0.246715
0.252626
0.267183
0.27871
0.286723
0.29157
0.290761
0.283276
0.267209
0.236792
0.205502
0.18571
0.187072
0.193088
0.202298
2.99151
2.37111
1.25809
0.239662
0.207833
0.359061
0.262762
0.183828
0.210819
0.25073
0.26396
0.269215
0.283562
0.295154
0.303561
0.308337
0.308475
0.302968
0.291101
0.266366
0.241483
0.228625
0.234415
0.245012
0.25807
2.95351
2.41375
1.38937
0.282511
0.23864
0.34513
0.287488
0.21095
0.229441
0.267306
0.282303
0.288013
0.302047
0.313732
0.322699
0.327237
0.32848
0.325438
0.318025
0.299388
0.281576
0.275394
0.286388
0.303251
0.322482
2.91302
2.45721
1.53012
0.335866
0.270899
0.322251
0.313466
0.238502
0.249917
0.28518
0.301231
0.308898
0.3224
0.334136
0.343577
0.347819
0.35046
0.350236
0.347388
0.335434
0.324968
0.325764
0.343896
0.369973
0.400921
2.87217
2.5021
1.67321
0.409425
0.305077
0.294149
0.340181
0.266366
0.272391
0.303761
0.32082
0.331618
0.344311
0.355962
0.365686
0.36991
0.374169
0.376838
0.378594
0.373773
0.371298
0.380064
0.407849
0.446691
0.502147
2.83468
2.55213
1.8211
0.51455
0.341829
0.272852
0.366744
0.295095
0.296081
0.322492
0.341989
0.355788
0.367384
0.378713
0.38847
0.393605
0.399249
0.404584
0.410927
0.414193
0.420105
0.438081
0.479454
0.543402
0.662306
3.09604
2.24314
0.928815
0.0807607
0.0963514
0.364469
0.186036
0.0868977
0.157448
0.207828
0.20585
0.214968
0.229419
0.240704
0.2488
0.253921
0.251268
0.239911
0.213796
0.168276
0.116789
0.0668512
0.0426817
0.0275387
0.0329045
3.08935
2.25143
0.947015
0.096294
0.109281
0.36543
0.190031
0.0935478
0.158985
0.208936
0.208787
0.218242
0.233154
0.244744
0.252916
0.257842
0.255131
0.243956
0.218856
0.174923
0.125953
0.0817864
0.0647031
0.0571175
0.0615762
3.07483
2.26933
0.988588
0.126578
0.129035
0.366621
0.201491
0.110904
0.167557
0.215516
0.218276
0.226956
0.241884
0.253291
0.261104
0.266003
0.26388
0.253522
0.230662
0.19034
0.146871
0.111843
0.102518
0.100541
0.105671
3.05297
2.29608
1.05411
0.162604
0.15343
0.367191
0.218764
0.133182
0.179379
0.224693
0.231341
0.238636
0.253278
0.264745
0.272584
0.27748
0.275882
0.266735
0.246953
0.211224
0.173835
0.146813
0.143451
0.145611
0.15232
3.02492
2.33063
1.14369
0.200372
0.179456
0.365339
0.239576
0.157785
0.194135
0.236576
0.246911
0.252818
0.267388
0.278917
0.286913
0.291701
0.29084
0.283316
0.267239
0.236817
0.205515
0.185715
0.187078
0.193091
0.202302
2.99145
2.37115
1.25821
0.239674
0.20784
0.359072
0.262831
0.18388
0.210895
0.250859
0.264135
0.269436
0.283819
0.295401
0.303788
0.308483
0.308567
0.303018
0.291141
0.266397
0.241499
0.228632
0.234424
0.245018
0.258076
2.95346
2.41379
1.38949
0.282525
0.238656
0.345123
0.287534
0.210954
0.229452
0.267385
0.282418
0.288195
0.30228
0.313967
0.322923
0.327377
0.328569
0.325491
0.318066
0.299421
0.281596
0.275407
0.286401
0.303259
0.32249
2.91297
2.45725
1.53023
0.335894
0.270912
0.32222
0.313487
0.23847
0.249868
0.285192
0.301276
0.309017
0.322573
0.334325
0.343748
0.347925
0.350539
0.350288
0.347429
0.335469
0.324993
0.325783
0.343913
0.369983
0.400929
2.87214
2.50213
1.67331
0.409468
0.305082
0.2941
0.340186
0.266316
0.272303
0.303714
0.320812
0.331683
0.344421
0.356093
0.365808
0.369996
0.374233
0.376884
0.378632
0.373809
0.371327
0.380086
0.407868
0.446703
0.502157
2.83466
2.55216
1.8212
0.514609
0.341825
0.272799
0.366738
0.295041
0.295979
0.322416
0.34195
0.355809
0.367437
0.378786
0.388538
0.393657
0.399298
0.404625
0.410965
0.414228
0.420136
0.438104
0.479473
0.543415
0.662315
3.09605
2.24312
0.928782
0.0807488
0.0963556
0.364469
0.186027
0.086893
0.157436
0.207816
0.205839
0.214967
0.229418
0.2407
0.24879
0.253902
0.251239
0.239872
0.213747
0.16822
0.116738
0.0668077
0.042662
0.0275384
0.0329031
3.08936
2.25142
0.946987
0.0962939
0.109271
0.36543
0.190037
0.0935616
0.158998
0.208948
0.208801
0.218258
0.233163
0.244742
0.252904
0.257822
0.255102
0.243919
0.218808
0.17487
0.125905
0.0817514
0.064692
0.0571195
0.0615794
3.07484
2.26932
0.988563
0.126576
0.129034
0.366623
0.201496
0.110911
0.167568
0.215534
0.218298
0.226979
0.2419
0.2533
0.261102
0.265988
0.263853
0.253485
0.230615
0.19029
0.14683
0.111817
0.102514
0.100546
0.105679
3.05298
2.29607
1.05409
0.162606
0.15343
0.367193
0.218766
0.13318
0.17938
0.224703
0.231344
0.238635
0.253263
0.264708
0.272537
0.277431
0.275839
0.266693
0.246908
0.211179
0.173799
0.146795
0.143453
0.14562
0.152331
3.02493
2.33063
1.14368
0.200377
0.179461
0.365339
0.239569
0.157771
0.194121
0.236559
0.246872
0.252765
0.267315
0.27883
0.286828
0.291632
0.290787
0.28327
0.267195
0.236775
0.205485
0.185702
0.187082
0.193102
0.202316
2.99146
2.37115
1.25821
0.239684
0.20785
0.35907
0.262818
0.183867
0.210878
0.250825
0.264087
0.269359
0.283719
0.295305
0.303698
0.308422
0.308517
0.302975
0.291098
0.266358
0.241474
0.228624
0.23443
0.24503
0.258091
2.95346
2.41379
1.38949
0.282541
0.238669
0.345119
0.287525
0.210953
0.22945
0.267364
0.282388
0.288137
0.302201
0.31389
0.322845
0.327327
0.32853
0.325456
0.318031
0.299387
0.281574
0.275399
0.286406
0.303271
0.322505
2.91297
2.45725
1.53025
0.335916
0.270929
0.322217
0.313485
0.238483
0.249888
0.285201
0.301271
0.308987
0.322529
0.334279
0.343711
0.347903
0.350511
0.350261
0.347398
0.335439
0.324973
0.325774
0.343917
0.369994
0.400943
2.87213
2.50214
1.67334
0.409498
0.305104
0.294102
0.340189
0.266337
0.272339
0.303744
0.320821
0.331674
0.344406
0.356077
0.365797
0.369988
0.374219
0.376865
0.378604
0.373782
0.371307
0.380077
0.407871
0.446712
0.502168
2.83465
2.55218
1.82124
0.514651
0.341851
0.27281
0.366744
0.295063
0.296018
0.322452
0.341967
0.355815
0.367445
0.378795
0.388553
0.39367
0.399291
0.404609
0.410938
0.414203
0.420117
0.438095
0.479474
0.54342
0.662324
3.09599
2.24322
0.928982
0.0808062
0.0963868
0.364467
0.186052
0.0868988
0.157431
0.207813
0.20583
0.214958
0.229408
0.240687
0.248782
0.253903
0.25125
0.23989
0.213773
0.16825
0.116764
0.0668318
0.0426775
0.0275407
0.0328987
3.0893
2.25151
0.947188
0.0963402
0.109306
0.365427
0.190058
0.0935621
0.158984
0.208935
0.208783
0.218241
0.233147
0.244725
0.252891
0.257819
0.25511
0.243936
0.218835
0.174901
0.125932
0.0817745
0.0647058
0.057126
0.0615765
3.07479
2.26941
0.988767
0.126619
0.129066
0.366618
0.201515
0.110914
0.167555
0.215519
0.218281
0.226964
0.241886
0.253286
0.261091
0.265984
0.263858
0.253499
0.230638
0.190317
0.146853
0.111836
0.102524
0.100556
0.105674
3.05293
2.29616
1.0543
0.162649
0.153448
0.367177
0.218787
0.133189
0.179371
0.224692
0.231329
0.238614
0.253248
0.264696
0.272527
0.277424
0.27584
0.266702
0.246926
0.211201
0.173818
0.146809
0.143461
0.14563
0.152327
3.02488
2.33071
1.1439
0.200412
0.179467
0.365316
0.239592
0.157786
0.194117
0.236544
0.246843
0.252763
0.267315
0.278826
0.286823
0.291628
0.290786
0.283275
0.267208
0.236792
0.205499
0.185712
0.187088
0.193111
0.202316
2.99141
2.37123
1.25842
0.239715
0.207853
0.359039
0.262839
0.183882
0.210879
0.250821
0.264091
0.269337
0.283698
0.295296
0.303692
0.308417
0.308514
0.302977
0.291107
0.266371
0.241484
0.22863
0.234433
0.245037
0.258093
2.95342
2.41385
1.38969
0.282578
0.238671
0.345078
0.287547
0.210972
0.229455
0.267363
0.282368
0.288111
0.302185
0.313884
0.322842
0.327322
0.328526
0.325457
0.318037
0.299397
0.281582
0.275404
0.286409
0.303276
0.322506
2.91293
2.45731
1.53042
0.335971
0.270928
0.322168
0.31351
0.238504
0.249902
0.285217
0.301253
0.308975
0.322529
0.334282
0.343714
0.347904
0.350509
0.350262
0.347404
0.335448
0.324981
0.32578
0.343918
0.369997
0.400943
2.8721
2.50219
1.67349
0.409575
0.305097
0.294055
0.340214
0.266352
0.272355
0.303771
0.320819
0.331669
0.344413
0.356087
0.365804
0.36999
0.374219
0.376867
0.37861
0.373791
0.371315
0.380083
0.407871
0.446712
0.50217
2.83462
2.55222
1.82136
0.514749
0.341839
0.272774
0.366763
0.295071
0.296028
0.32247
0.341961
0.355812
0.367456
0.378807
0.388563
0.393676
0.399294
0.404612
0.410945
0.414213
0.420127
0.438101
0.479473
0.543418
0.662325
3.09601
2.24319
0.928914
0.0807862
0.0963776
0.364469
0.186044
0.0868965
0.157427
0.207808
0.205823
0.214954
0.229404
0.240683
0.248776
0.253895
0.25124
0.23988
0.213759
0.168233
0.116748
0.0668155
0.0426685
0.0275387
0.0329037
3.08932
2.25148
0.94712
0.0963265
0.109291
0.365429
0.190058
0.09357
0.158993
0.208942
0.208789
0.218248
0.233151
0.244727
0.25289
0.257814
0.255102
0.243925
0.21882
0.174882
0.125914
0.0817577
0.0646962
0.0571195
0.0615791
3.07481
2.26938
0.988699
0.126605
0.129053
0.366622
0.201516
0.110921
0.167563
0.215527
0.218289
0.226971
0.241891
0.253289
0.261091
0.26598
0.263851
0.25349
0.230624
0.1903
0.146837
0.111822
0.102516
0.100545
0.105678
3.05295
2.29613
1.05423
0.162634
0.153441
0.367185
0.218787
0.133193
0.179376
0.224698
0.231335
0.238621
0.253253
0.264699
0.272527
0.277422
0.275835
0.266694
0.246915
0.211188
0.173806
0.146798
0.143453
0.145618
0.15233
3.0249
2.33068
1.14382
0.2004
0.179464
0.365327
0.239591
0.157788
0.194121
0.236549
0.246847
0.252768
0.267318
0.278828
0.286822
0.291625
0.290782
0.283269
0.267199
0.236782
0.205491
0.185704
0.187083
0.193101
0.202315
2.99143
2.3712
1.25835
0.239704
0.207852
0.359053
0.262838
0.183883
0.210882
0.250824
0.264095
0.26934
0.2837
0.295296
0.303691
0.308415
0.308511
0.302972
0.2911
0.266364
0.241478
0.228625
0.234431
0.245029
0.25809
2.95343
2.41383
1.38962
0.282565
0.23867
0.345096
0.287546
0.210973
0.229458
0.267366
0.282371
0.288114
0.302186
0.313883
0.322841
0.32732
0.328523
0.325452
0.318032
0.299392
0.281578
0.275401
0.286407
0.303271
0.322505
2.91295
2.45729
1.53036
0.335951
0.270927
0.322189
0.313508
0.238505
0.249905
0.28522
0.301256
0.308977
0.32253
0.334282
0.343712
0.347901
0.350506
0.350258
0.347399
0.335443
0.324978
0.325777
0.343919
0.369994
0.400943
2.87211
2.50217
1.67343
0.409545
0.305097
0.294075
0.340212
0.266354
0.272358
0.303774
0.320822
0.331671
0.344415
0.356087
0.365804
0.369988
0.374215
0.376862
0.378605
0.373786
0.371313
0.380081
0.407873
0.446713
0.50217
2.83463
2.5522
1.82131
0.514709
0.34184
0.272789
0.366762
0.295072
0.296032
0.322472
0.341964
0.355814
0.367457
0.378808
0.388563
0.393674
0.39929
0.404607
0.410939
0.414208
0.420124
0.438101
0.479478
0.543423
0.662326
3.09605
2.24312
0.928781
0.0807486
0.0963553
0.364469
0.186027
0.0868933
0.157437
0.207817
0.205839
0.214967
0.229418
0.2407
0.24879
0.253902
0.251239
0.239872
0.213746
0.16822
0.116738
0.0668075
0.0426619
0.0275384
0.0329031
3.08936
2.25141
0.946986
0.0962937
0.109271
0.36543
0.190037
0.0935617
0.158998
0.208948
0.208801
0.218258
0.233163
0.244742
0.252904
0.257822
0.255102
0.243919
0.218808
0.17487
0.125905
0.0817512
0.0646919
0.0571195
0.0615795
3.07484
2.26931
0.988562
0.126576
0.129034
0.366624
0.201496
0.110911
0.167568
0.215534
0.218298
0.226979
0.2419
0.2533
0.261102
0.265988
0.263853
0.253485
0.230615
0.19029
0.14683
0.111817
0.102513
0.100546
0.105679
3.05298
2.29607
1.05409
0.162606
0.153429
0.367193
0.218766
0.13318
0.17938
0.224702
0.231344
0.238635
0.253263
0.264708
0.272537
0.277431
0.275839
0.266693
0.246908
0.211179
0.173799
0.146795
0.143453
0.14562
0.152331
3.02493
2.33063
1.14368
0.200377
0.17946
0.36534
0.239569
0.157771
0.194121
0.236559
0.246872
0.252765
0.267315
0.27883
0.286828
0.291632
0.290787
0.28327
0.267195
0.236774
0.205485
0.185702
0.187082
0.193102
0.202316
2.99146
2.37115
1.25821
0.239684
0.20785
0.35907
0.262819
0.183867
0.210878
0.250825
0.264087
0.269359
0.283719
0.295305
0.303698
0.308422
0.308517
0.302975
0.291098
0.266358
0.241474
0.228624
0.23443
0.24503
0.258091
2.95346
2.41379
1.38949
0.282541
0.238669
0.345119
0.287525
0.210953
0.22945
0.267364
0.282388
0.288137
0.302201
0.31389
0.322845
0.327327
0.32853
0.325456
0.318031
0.299387
0.281574
0.275399
0.286406
0.303271
0.322505
2.91297
2.45725
1.53025
0.335915
0.270929
0.322217
0.313485
0.238483
0.249888
0.285201
0.301271
0.308987
0.322529
0.334279
0.343711
0.347903
0.350511
0.350261
0.347398
0.335439
0.324972
0.325774
0.343917
0.369994
0.400943
2.87213
2.50214
1.67334
0.409497
0.305104
0.294102
0.340189
0.266337
0.272339
0.303745
0.320821
0.331674
0.344406
0.356077
0.365797
0.369988
0.374218
0.376864
0.378604
0.373782
0.371307
0.380077
0.407871
0.446712
0.502169
2.83465
2.55218
1.82124
0.51465
0.341851
0.27281
0.366744
0.295063
0.296018
0.322453
0.341967
0.355815
0.367445
0.378795
0.388553
0.39367
0.399291
0.404609
0.410938
0.414203
0.420117
0.438095
0.479474
0.543421
0.662324
3.09604
2.24314
0.928815
0.0807607
0.0963514
0.364469
0.186036
0.0868977
0.157448
0.207828
0.20585
0.214968
0.229419
0.240704
0.2488
0.253921
0.251268
0.239911
0.213796
0.168276
0.116789
0.0668512
0.0426817
0.0275387
0.0329045
3.08935
2.25143
0.947015
0.096294
0.109281
0.36543
0.190031
0.0935478
0.158985
0.208936
0.208787
0.218242
0.233154
0.244744
0.252916
0.257843
0.255131
0.243956
0.218856
0.174923
0.125953
0.0817864
0.0647031
0.0571175
0.0615762
3.07483
2.26933
0.988588
0.126578
0.129035
0.366621
0.201491
0.110904
0.167557
0.215516
0.218276
0.226956
0.241884
0.253291
0.261104
0.266003
0.26388
0.253522
0.230662
0.19034
0.146871
0.111843
0.102518
0.100541
0.105671
3.05297
2.29608
1.05411
0.162604
0.15343
0.367191
0.218764
0.133182
0.179379
0.224693
0.231341
0.238636
0.253278
0.264745
0.272584
0.27748
0.275882
0.266735
0.246953
0.211224
0.173835
0.146813
0.143451
0.145611
0.15232
3.02492
2.33063
1.14369
0.200372
0.179456
0.365339
0.239576
0.157785
0.194135
0.236576
0.246911
0.252818
0.267388
0.278917
0.286913
0.291701
0.29084
0.283316
0.267239
0.236817
0.205515
0.185715
0.187078
0.193091
0.202302
2.99145
2.37115
1.25821
0.239674
0.20784
0.359072
0.262831
0.18388
0.210895
0.250859
0.264135
0.269436
0.283819
0.295401
0.303788
0.308483
0.308567
0.303018
0.291141
0.266397
0.241499
0.228632
0.234424
0.245018
0.258076
2.95346
2.41379
1.38949
0.282525
0.238656
0.345123
0.287534
0.210954
0.229452
0.267385
0.282418
0.288195
0.30228
0.313967
0.322924
0.327377
0.328569
0.325491
0.318066
0.299421
0.281596
0.275407
0.286401
0.303259
0.32249
2.91297
2.45725
1.53023
0.335894
0.270912
0.32222
0.313487
0.23847
0.249868
0.285192
0.301276
0.309017
0.322573
0.334325
0.343748
0.347925
0.350539
0.350288
0.347429
0.335469
0.324993
0.325783
0.343913
0.369983
0.400929
2.87214
2.50213
1.67331
0.409468
0.305082
0.2941
0.340186
0.266316
0.272303
0.303714
0.320812
0.331683
0.344421
0.356093
0.365808
0.369996
0.374233
0.376884
0.378632
0.373809
0.371327
0.380086
0.407868
0.446703
0.502157
2.83466
2.55216
1.8212
0.514609
0.341825
0.272799
0.366738
0.295041
0.295979
0.322416
0.34195
0.355809
0.367437
0.378786
0.388538
0.393657
0.399298
0.404625
0.410965
0.414228
0.420136
0.438104
0.479473
0.543415
0.662315
3.09608
2.24312
0.928745
0.0807
0.0964429
0.364462
0.185984
0.0868641
0.157388
0.207831
0.205959
0.215139
0.229621
0.240896
0.248954
0.254019
0.251319
0.239923
0.213796
0.168266
0.116781
0.0668449
0.0426646
0.0275366
0.0329006
3.08936
2.25142
0.946991
0.0963484
0.109134
0.365413
0.190179
0.0937472
0.159252
0.209203
0.20917
0.218605
0.233452
0.244947
0.253044
0.257917
0.255174
0.243969
0.218859
0.174916
0.125946
0.0817821
0.0646919
0.0571168
0.0615731
3.07486
2.26932
0.988542
0.12652
0.128982
0.366628
0.201542
0.110887
0.167569
0.215568
0.218331
0.22701
0.241949
0.253365
0.261162
0.266041
0.263896
0.253525
0.230656
0.190329
0.146864
0.111839
0.10251
0.100541
0.105668
3.05302
2.29605
1.05401
0.162526
0.153433
0.367201
0.218723
0.133091
0.179282
0.224623
0.231218
0.238539
0.253197
0.26466
0.272497
0.277414
0.275842
0.266716
0.246935
0.211207
0.173824
0.146808
0.143446
0.145611
0.152316
3.02497
2.33059
1.14357
0.200338
0.179468
0.365331
0.239503
0.157695
0.19402
0.236446
0.246715
0.252626
0.267183
0.278711
0.286724
0.291571
0.290762
0.283276
0.267209
0.236792
0.205502
0.18571
0.187072
0.193088
0.202298
2.99151
2.37111
1.25809
0.239662
0.207833
0.359061
0.262762
0.183828
0.210819
0.25073
0.263961
0.269216
0.283562
0.295154
0.303561
0.308338
0.308475
0.302969
0.291101
0.266367
0.241483
0.228625
0.234416
0.245012
0.25807
2.95351
2.41375
1.38937
0.282511
0.23864
0.34513
0.287488
0.21095
0.229441
0.267306
0.282303
0.288014
0.302047
0.313733
0.322699
0.327237
0.328481
0.325438
0.318026
0.299388
0.281576
0.275394
0.286388
0.303251
0.322482
2.91302
2.45721
1.53012
0.335867
0.270899
0.322251
0.313466
0.238502
0.249917
0.28518
0.301231
0.308898
0.3224
0.334136
0.343577
0.34782
0.35046
0.350237
0.347388
0.335435
0.324968
0.325764
0.343896
0.369973
0.40092
2.87217
2.5021
1.67321
0.409426
0.305077
0.294149
0.340181
0.266366
0.272391
0.303761
0.32082
0.331618
0.344311
0.355963
0.365686
0.369911
0.37417
0.376839
0.378594
0.373773
0.371298
0.380064
0.407849
0.446691
0.502147
2.83468
2.55213
1.8211
0.514551
0.341829
0.272852
0.366744
0.295095
0.296081
0.322492
0.341989
0.355788
0.367384
0.378714
0.38847
0.393606
0.399249
0.404584
0.410927
0.414193
0.420106
0.438081
0.479454
0.543402
0.662306
3.09602
2.24311
0.928782
0.0811308
0.0967221
0.364567
0.186155
0.0872247
0.15757
0.207882
0.205912
0.215034
0.22952
0.240838
0.24895
0.254075
0.251427
0.240078
0.213992
0.16851
0.117085
0.0672988
0.0433042
0.0284169
0.0336294
3.08933
2.2514
0.946983
0.0965981
0.109638
0.365539
0.190171
0.0939001
0.159184
0.209101
0.209002
0.218453
0.233388
0.244983
0.253136
0.258037
0.255315
0.244135
0.219061
0.175165
0.126244
0.0821709
0.0651234
0.0575375
0.0619601
3.07481
2.26931
0.988574
0.12683
0.129305
0.366734
0.201687
0.11126
0.167847
0.215814
0.218688
0.227336
0.242216
0.253572
0.261344
0.266203
0.264064
0.253699
0.230863
0.190569
0.14713
0.112132
0.102781
0.10077
0.105879
3.05295
2.29607
1.0541
0.162785
0.153644
0.367304
0.218942
0.133415
0.179589
0.224931
0.231606
0.238859
0.253465
0.264884
0.272702
0.277594
0.276021
0.266891
0.247141
0.211434
0.174058
0.147036
0.143635
0.145761
0.152444
3.0249
2.33062
1.14367
0.2005
0.179655
0.365445
0.239689
0.157898
0.194219
0.236658
0.246961
0.252859
0.26741
0.278937
0.286948
0.291769
0.290946
0.283451
0.267405
0.237001
0.205704
0.18589
0.187213
0.193199
0.202384
2.99143
2.37114
1.2582
0.239784
0.208029
0.359163
0.262899
0.183937
0.210909
0.250856
0.264138
0.269366
0.28374
0.295372
0.303784
0.308561
0.308674
0.303155
0.291288
0.266554
0.241655
0.228773
0.234526
0.245098
0.258133
2.95344
2.41379
1.38949
0.282626
0.23883
0.345201
0.287592
0.211015
0.229473
0.267385
0.282399
0.288132
0.30223
0.313962
0.322946
0.327462
0.328676
0.32562
0.3182
0.299557
0.281727
0.275522
0.28648
0.303319
0.322529
2.91295
2.45726
1.53027
0.335982
0.271069
0.322296
0.313553
0.238554
0.249933
0.285252
0.301283
0.308992
0.322572
0.334353
0.343814
0.348021
0.350645
0.350411
0.347548
0.335587
0.325106
0.325878
0.343974
0.370028
0.400957
2.87211
2.50216
1.67337
0.409543
0.305222
0.294183
0.34026
0.266407
0.272399
0.303813
0.320839
0.331677
0.344452
0.356155
0.3659
0.370107
0.374341
0.376995
0.378733
0.37391
0.37142
0.380164
0.407918
0.446736
0.502174
2.83464
2.5522
1.82127
0.514678
0.34195
0.27289
0.366815
0.29512
0.29607
0.322504
0.341977
0.355816
0.367488
0.378868
0.388647
0.393778
0.399401
0.404724
0.411044
0.41431
0.420211
0.438167
0.479512
0.543438
0.662326
2.8056
2.60862
1.97371
0.665543
0.381126
0.275535
0.390673
0.32417
0.319899
0.342283
0.365047
0.38018
0.391128
0.402295
0.412298
0.418727
0.42511
0.432921
0.443635
0.4552
0.469774
0.4981
0.556296
0.653705
0.84702
2.7911
2.67276
2.13126
0.869561
0.419523
0.307236
0.408119
0.352703
0.344066
0.364385
0.388866
0.403425
0.415038
0.426107
0.436339
0.444465
0.45092
0.461133
0.475691
0.494811
0.518128
0.556652
0.626526
0.73842
0.933868
2.79941
2.74348
2.29402
1.12893
0.448515
0.357299
0.419153
0.381374
0.37005
0.388724
0.412098
0.42521
0.43911
0.450631
0.461035
0.469832
0.476947
0.489054
0.506677
0.531766
0.562508
0.606142
0.680493
0.785506
0.955507
2.83761
2.81345
2.45112
1.42303
0.471163
0.412568
0.425929
0.411384
0.397956
0.41459
0.433333
0.446242
0.463072
0.476726
0.486884
0.496801
0.503913
0.516037
0.53555
0.563926
0.600801
0.646817
0.716776
0.812948
0.950376
2.89529
2.88193
2.59345
1.70576
0.527257
0.464456
0.427009
0.442272
0.425203
0.439308
0.45295
0.467425
0.488217
0.5028
0.511879
0.522418
0.530964
0.541495
0.56213
0.591498
0.631761
0.678649
0.746657
0.832962
0.939781
2.94745
2.9467
2.72056
1.9535
0.662364
0.518265
0.435451
0.469684
0.449765
0.461575
0.474277
0.490896
0.511424
0.528778
0.538143
0.548775
0.558934
0.566294
0.586411
0.614838
0.656545
0.704553
0.768539
0.844785
0.928543
2.9906
3.00395
2.83909
2.19558
0.898252
0.579109
0.459656
0.488966
0.473191
0.483257
0.498182
0.515321
0.534428
0.552693
0.564631
0.573973
0.584768
0.593159
0.608819
0.636024
0.6752
0.723503
0.780163
0.845532
0.917668
3.02332
3.05691
2.94494
2.45325
1.26602
0.630651
0.496657
0.504025
0.501156
0.506628
0.522812
0.539184
0.554916
0.576035
0.59125
0.600119
0.610347
0.619982
0.629243
0.653288
0.687035
0.73246
0.78327
0.841538
0.907004
3.04935
3.10465
3.02477
2.66576
1.71099
0.696798
0.533878
0.524779
0.534691
0.531184
0.547249
0.563817
0.575986
0.597795
0.617464
0.627089
0.635146
0.645219
0.651211
0.668034
0.697627
0.735124
0.783454
0.838265
0.89826
3.07157
3.14491
3.08601
2.81564
2.03731
0.815784
0.586146
0.558731
0.566817
0.557729
0.571965
0.588529
0.599283
0.617873
0.64195
0.652934
0.65968
0.66892
0.677409
0.683886
0.707388
0.740745
0.781216
0.832071
0.888908
3.08981
3.17979
3.13773
2.94081
2.30966
1.06539
0.668554
0.598807
0.592578
0.587253
0.597284
0.612587
0.623564
0.638604
0.662474
0.676602
0.683917
0.690278
0.699658
0.702841
0.717366
0.745791
0.781313
0.82375
0.874319
3.10433
3.20827
3.18009
3.04733
2.59483
1.47756
0.756841
0.627989
0.620835
0.621365
0.624267
0.637471
0.648585
0.657937
0.680811
0.69865
0.707451
0.712315
0.719764
0.727777
0.729746
0.750281
0.781108
0.817856
0.861305
3.11606
3.23047
3.21097
3.12094
2.81985
1.98577
0.914366
0.659649
0.660044
0.655039
0.653249
0.664677
0.674414
0.677689
0.69618
0.719341
0.730292
0.734617
0.73761
0.745946
0.750606
0.758782
0.781985
0.813448
0.850622
3.12537
3.24837
3.23451
3.17201
2.96644
2.34732
1.17652
0.74069
0.7056
0.689525
0.68757
0.693701
0.700309
0.699655
0.705036
0.73485
0.752552
0.757247
0.75935
0.762627
0.770173
0.771907
0.785029
0.810486
0.842284
3.13243
3.26207
3.25229
3.21067
3.07807
2.66086
1.62563
0.858228
0.745163
0.7296
0.724342
0.722827
0.726998
0.724881
0.721239
0.743772
0.771136
0.779927
0.77992
0.781459
0.786476
0.793003
0.793129
0.808991
0.835687
3.13744
3.27161
3.2642
3.23644
3.15285
2.8947
2.14815
1.08793
0.787477
0.775356
0.761598
0.754951
0.754374
0.75285
0.74523
0.748718
0.781694
0.801119
0.803105
0.80198
0.802528
0.808633
0.81521
0.815474
0.83237
3.14012
3.27739
3.27166
3.25388
3.2023
3.04459
2.54962
1.47087
0.878618
0.825042
0.806295
0.789426
0.78469
0.783211
0.775948
0.769134
0.78852
0.814399
0.825627
0.824108
0.82343
0.823747
0.83072
0.838515
0.839751
3.14
3.27984
3.27607
3.26573
3.23462
3.14066
2.84978
2.03522
1.07529
0.871496
0.851671
0.833188
0.820473
0.815976
0.810294
0.799167
0.797187
0.824449
0.844322
0.847917
0.844595
0.845141
0.846998
0.855237
0.865304
3.13755
3.28068
3.27916
3.2727
3.25345
3.1989
3.03396
2.51555
1.45904
0.947356
0.901123
0.88537
0.862713
0.852968
0.846727
0.836101
0.824067
0.832868
0.856448
0.868646
0.868862
0.865371
0.868164
0.872932
0.88397
3.13549
3.28101
3.28068
3.27719
3.26642
3.2355
3.14388
2.85819
2.05428
1.14096
0.952729
0.933513
0.916969
0.895163
0.885444
0.87551
0.860434
0.850483
0.870724
0.888615
0.892306
0.889515
0.887084
0.8933
0.90283
3.13477
3.28063
3.2822
3.28052
3.27456
3.25734
3.20786
3.05691
2.57643
1.55871
1.03101
0.984179
0.970454
0.948309
0.928372
0.91655
0.902484
0.884481
0.880115
0.905481
0.915221
0.914592
0.910634
0.910947
0.922285
3.13454
3.28021
3.28348
3.28258
3.27934
3.27005
3.24363
3.1654
2.91837
2.18557
1.27264
1.04072
1.01845
1.00776
0.980285
0.960839
0.946045
0.927462
0.90916
0.91861
0.936024
0.937864
0.934727
0.932605
0.938617
3.13449
3.27997
3.28424
3.28376
3.28211
3.27732
3.26362
3.22423
3.10397
2.71643
1.78008
1.13957
1.06962
1.05797
1.04272
1.012
0.991978
0.973911
0.950162
0.935
0.953923
0.964354
0.958063
0.954225
0.957763
3.13449
3.27981
3.28468
3.28445
3.28368
3.28133
3.27448
3.2548
3.19696
3.01419
2.42814
1.47382
1.13595
1.10576
1.09957
1.07664
1.04271
1.02209
0.998877
0.972247
0.965518
0.983443
0.987321
0.976551
0.976305
3.13447
3.27977
3.28495
3.28486
3.2845
3.28335
3.28007
3.27061
3.24322
3.15999
2.89196
2.11495
1.32756
1.16228
1.1463
1.13854
1.1088
1.07361
1.04935
1.02018
0.993808
0.999544
1.00891
1.00611
0.994942
3.13447
3.27982
3.28506
3.28503
3.28488
3.28442
3.28298
3.27868
3.26606
3.22915
3.11401
2.7344
1.84086
1.26522
1.19566
1.19028
1.17574
1.13586
1.1022
1.07278
1.03703
1.01357
1.02801
1.03318
1.02656
3.13448
3.27986
3.28504
3.28515
3.2851
3.28494
3.28437
3.28252
3.27699
3.26075
3.21236
3.05692
2.53928
1.64985
1.26718
1.23526
1.23268
1.21145
1.16031
1.12669
1.09086
1.05266
1.04179
1.05271
1.05548
3.13448
3.27985
3.28504
3.28521
3.28521
3.28517
3.28497
3.28424
3.28197
3.27517
3.255
3.1933
2.99108
2.34493
1.55966
1.29384
1.27878
1.27147
1.2378
1.18408
1.14622
1.10202
1.06648
1.07231
1.08178
3.13448
3.27985
3.28504
3.28522
3.28524
3.28526
3.28522
3.28499
3.28411
3.28139
3.27325
3.24912
3.17387
2.92532
2.20324
1.50917
1.32802
1.32115
1.30748
1.25507
1.20249
1.15892
1.11009
1.09129
1.10526
3.13448
3.27985
3.28504
3.28522
3.28526
3.28531
3.28532
3.28524
3.28495
3.28391
3.28074
3.27133
3.24354
3.15648
2.86363
2.11514
1.48092
1.36982
1.36254
1.33636
1.26722
1.2159
1.16488
1.1252
1.13208
3.13448
3.27985
3.28504
3.28522
3.28526
3.28532
3.28535
3.28533
3.28522
3.28484
3.28356
3.27982
3.26925
3.23868
3.14301
2.81537
2.06988
1.48827
1.42196
1.40197
1.34673
1.27688
1.22248
1.17194
1.16426
3.13448
3.27985
3.28504
3.28522
3.28526
3.28532
3.28536
3.28535
3.28527
3.28512
3.28443
3.28268
3.27836
3.26689
3.23481
3.13562
2.79539
2.05577
1.5461
1.4748
1.41816
1.34303
1.28208
1.22642
1.20735
3.13448
3.27985
3.28504
3.28522
3.28526
3.28532
3.28536
3.28535
3.28528
3.28516
3.2846
3.28341
3.28106
3.2757
3.26321
3.231
3.13471
2.81475
2.11276
1.65037
1.48506
1.40063
1.34237
1.28742
1.26093
3.13448
3.27985
3.28504
3.28522
3.28526
3.28532
3.28536
3.28535
3.28528
3.28517
3.28461
3.28341
3.28151
3.27727
3.27102