/*--------------------------------*- C++ -*----------------------------------*\
| =========                 |                                                 |
| \\      /  F ield         | OpenFOAM: The Open Source CFD Toolbox           |
|  \\    /   O peration     | Version:  4.1                                   |
|   \\  /    A nd           | Web:      www.OpenFOAM.org                      |
|    \\/     M anipulation  |                                                 |
\*---------------------------------------------------------------------------*/
FoamFile
{
    version     2.0;
    format      ascii;
    class       volScalarField;
    location    "0.68";
    object      p;
}
// * * * * * * * * * * * * * * * * * * * * * * * * * * * * * * * * * * * * * //

dimensions      [1 -1 -2 0 0 0 0];

internalField   nonuniform List<scalar> 
52500
(
0.0984353
0.144212
0.347643
1.19824
1.14735
0.792112
0.891165
0.913173
0.812159
0.75831
0.724478
0.679163
0.630319
0.589018
0.556238
0.531123
0.509309
0.493575
0.479544
0.467269
0.459789
0.45377
0.445926
0.431571
0.423524
0.0985667
0.143403
0.343362
1.18464
1.15648
0.792184
0.890147
0.91452
0.813559
0.759311
0.726036
0.680653
0.631597
0.590246
0.55716
0.532008
0.510083
0.494485
0.480497
0.468211
0.460541
0.454287
0.446131
0.431779
0.423747
0.0988524
0.141692
0.334335
1.15424
1.17756
0.792334
0.886285
0.916073
0.81525
0.759425
0.726992
0.68188
0.632586
0.591156
0.557659
0.532263
0.510111
0.494618
0.48066
0.468321
0.460307
0.453675
0.445047
0.430548
0.422522
0.0992816
0.139158
0.320845
1.10476
1.20981
0.793627
0.879489
0.918339
0.818459
0.759654
0.728015
0.683669
0.634354
0.592821
0.558692
0.532772
0.510384
0.494888
0.481007
0.46852
0.459917
0.452358
0.442769
0.427956
0.419912
0.0998259
0.135958
0.303547
1.03498
1.25345
0.797868
0.870737
0.920215
0.823086
0.759732
0.728723
0.685572
0.6365
0.594751
0.559924
0.533338
0.510746
0.494999
0.481196
0.468498
0.45912
0.450042
0.439408
0.423987
0.415389
0.100477
0.132289
0.28279
0.940869
1.3105
0.805677
0.861375
0.920723
0.828793
0.760025
0.729505
0.687514
0.638976
0.597055
0.561325
0.534004
0.511029
0.494815
0.480921
0.467979
0.457591
0.446648
0.434808
0.418504
0.408932
0.101234
0.128581
0.260971
0.830715
1.37297
0.816363
0.853201
0.918688
0.835111
0.760997
0.729835
0.689316
0.641694
0.599698
0.562995
0.534725
0.511484
0.494247
0.480178
0.467007
0.45515
0.442406
0.428804
0.411101
0.400132
0.102032
0.125035
0.239778
0.715895
1.42847
0.829466
0.848434
0.912974
0.841762
0.76282
0.730307
0.691042
0.644704
0.602482
0.565146
0.535669
0.511937
0.493409
0.47892
0.465194
0.451929
0.437277
0.42124
0.401473
0.388541
0.102774
0.121659
0.219968
0.6132
1.45799
0.850124
0.841703
0.907495
0.848683
0.765509
0.731285
0.692952
0.648086
0.605777
0.567712
0.536806
0.512207
0.492206
0.477327
0.462545
0.447718
0.430771
0.411787
0.388793
0.371373
0.103299
0.11813
0.200284
0.526529
1.45461
0.887453
0.828447
0.902845
0.854534
0.770179
0.734251
0.695111
0.651843
0.609536
0.571125
0.537907
0.512318
0.490834
0.475114
0.458964
0.442316
0.422707
0.399912
0.372364
0.344001
0.0984334
0.144218
0.347675
1.19832
1.14731
0.792093
0.891209
0.91308
0.812135
0.758296
0.724458
0.679167
0.630333
0.589035
0.556245
0.531117
0.509287
0.493539
0.479505
0.467237
0.459769
0.453764
0.445933
0.431575
0.423534
0.0985655
0.143408
0.343394
1.18475
1.15639
0.792285
0.89014
0.914447
0.813544
0.759299
0.726007
0.680655
0.631603
0.590259
0.557162
0.532002
0.510064
0.494454
0.480462
0.46818
0.460522
0.454281
0.446137
0.431782
0.423755
0.0988508
0.141697
0.334364
1.15435
1.1774
0.792442
0.886252
0.916
0.815224
0.759392
0.726953
0.681859
0.632571
0.59115
0.557654
0.53226
0.510097
0.494594
0.480629
0.468293
0.460288
0.453668
0.445049
0.430549
0.422527
0.0992796
0.139165
0.320881
1.10488
1.20971
0.793654
0.879502
0.918274
0.818432
0.759618
0.727988
0.683638
0.634316
0.592789
0.55868
0.53277
0.510377
0.494872
0.48098
0.468495
0.459899
0.452348
0.442766
0.427955
0.419912
0.0998238
0.135966
0.30359
1.03514
1.25332
0.797855
0.870776
0.920154
0.822997
0.759714
0.728702
0.68553
0.636444
0.594698
0.559896
0.533329
0.510741
0.494989
0.481177
0.468478
0.459102
0.45003
0.4394
0.42398
0.415384
0.100474
0.132296
0.282831
0.941037
1.31031
0.805681
0.861417
0.920682
0.828684
0.760009
0.729501
0.687477
0.638914
0.596993
0.561291
0.533991
0.51102
0.494809
0.480908
0.467961
0.457573
0.446634
0.434797
0.418494
0.408923
0.101232
0.128587
0.261006
0.830878
1.37275
0.816377
0.853234
0.91868
0.835024
0.760974
0.729836
0.689258
0.641621
0.59963
0.562963
0.534718
0.511466
0.494246
0.480167
0.466993
0.455134
0.442392
0.428791
0.411089
0.40012
0.10203
0.12504
0.239809
0.716038
1.42826
0.829488
0.848462
0.912972
0.841702
0.762795
0.730314
0.690984
0.644629
0.602423
0.565106
0.535654
0.511914
0.493406
0.478912
0.465182
0.451916
0.437266
0.421227
0.401459
0.388528
0.102773
0.121664
0.219996
0.613305
1.45782
0.850124
0.841741
0.907486
0.848643
0.765488
0.731289
0.692906
0.648025
0.605722
0.567673
0.536787
0.512188
0.492203
0.477315
0.462536
0.447709
0.430761
0.411775
0.38878
0.37136
0.103298
0.118135
0.200311
0.526615
1.45447
0.887419
0.828492
0.90283
0.854507
0.770149
0.734241
0.695075
0.651795
0.609491
0.571095
0.537882
0.512297
0.490822
0.475102
0.458954
0.442308
0.422699
0.399902
0.372352
0.343987
0.0984344
0.144216
0.347664
1.19829
1.14729
0.792111
0.891184
0.913142
0.812121
0.758294
0.724461
0.67914
0.630309
0.589014
0.556244
0.531118
0.509306
0.493562
0.479532
0.467264
0.45979
0.453768
0.445917
0.431543
0.423494
0.098566
0.143407
0.343382
1.1847
1.15641
0.792216
0.890146
0.914492
0.813536
0.759296
0.726013
0.68063
0.631585
0.590241
0.557163
0.532003
0.510079
0.494474
0.480488
0.468207
0.460542
0.454285
0.446121
0.43175
0.423716
0.0988516
0.141696
0.334354
1.1543
1.17746
0.792373
0.886265
0.91604
0.815238
0.759403
0.726957
0.681853
0.632566
0.591145
0.557659
0.53226
0.510108
0.494612
0.480654
0.468318
0.460308
0.453672
0.445034
0.430519
0.42249
0.0992808
0.139162
0.320865
1.10482
1.20972
0.793649
0.879471
0.918298
0.818465
0.759627
0.727978
0.683641
0.634333
0.592811
0.558691
0.532772
0.510383
0.494887
0.481004
0.46852
0.459918
0.452353
0.442753
0.427926
0.419877
0.099825
0.135962
0.303569
1.03506
1.25335
0.797877
0.870721
0.920157
0.823076
0.759711
0.728685
0.685544
0.636475
0.594729
0.55991
0.533334
0.510747
0.495001
0.481197
0.468501
0.459122
0.450035
0.439388
0.423953
0.415352
0.100476
0.132293
0.282811
0.940948
1.31039
0.805689
0.861364
0.920659
0.828764
0.76001
0.729475
0.687504
0.638953
0.597031
0.561307
0.533996
0.511028
0.494818
0.480926
0.467983
0.457593
0.44664
0.434785
0.418468
0.408894
0.101233
0.128584
0.260989
0.830795
1.37285
0.816376
0.853194
0.91863
0.835074
0.760977
0.729812
0.689299
0.641668
0.599671
0.562976
0.534715
0.511478
0.494251
0.480184
0.467013
0.455152
0.442398
0.428779
0.411065
0.400095
0.102031
0.125038
0.239795
0.715966
1.42835
0.829478
0.848432
0.912925
0.841721
0.762791
0.730297
0.691022
0.644675
0.602455
0.565122
0.535658
0.511931
0.493413
0.478927
0.465201
0.451932
0.43727
0.421216
0.401438
0.388505
0.102773
0.121662
0.219983
0.613253
1.45789
0.850123
0.841713
0.907456
0.848643
0.765481
0.731285
0.692935
0.648058
0.605748
0.567686
0.536791
0.512198
0.492209
0.477331
0.462553
0.447723
0.430764
0.411765
0.388761
0.37134
0.103299
0.118133
0.200299
0.526573
1.45452
0.887432
0.828465
0.902813
0.854498
0.770146
0.73425
0.695091
0.651816
0.609507
0.571101
0.537892
0.512308
0.490832
0.475117
0.458969
0.44232
0.422702
0.399893
0.372335
0.343969
0.0984342
0.144218
0.347671
1.19831
1.14727
0.792099
0.891181
0.913125
0.812112
0.758292
0.724459
0.679137
0.630308
0.589013
0.556248
0.531124
0.509315
0.493573
0.479543
0.467275
0.459799
0.453773
0.445918
0.431539
0.423494
0.0985658
0.143408
0.343389
1.18472
1.15639
0.792211
0.890141
0.914479
0.813531
0.759293
0.726008
0.680626
0.631581
0.590239
0.557166
0.532009
0.510088
0.494484
0.480499
0.468218
0.460552
0.454289
0.446121
0.431746
0.423715
0.0988515
0.141697
0.33436
1.15432
1.17744
0.792372
0.886259
0.91603
0.815231
0.759395
0.72695
0.681847
0.632561
0.591143
0.55766
0.532266
0.510117
0.494623
0.480667
0.468331
0.460318
0.453677
0.445033
0.430513
0.422487
0.0992806
0.139163
0.320869
1.10484
1.2097
0.793648
0.879468
0.918291
0.81846
0.75962
0.727975
0.683636
0.634328
0.592803
0.558688
0.532776
0.510392
0.494899
0.481017
0.468533
0.459929
0.452357
0.442751
0.42792
0.419872
0.0998249
0.135963
0.303571
1.03507
1.25334
0.797874
0.870722
0.920154
0.823064
0.759706
0.728683
0.685535
0.636463
0.594721
0.559908
0.533337
0.510756
0.495014
0.481212
0.468515
0.459133
0.45004
0.439385
0.423945
0.415344
0.100476
0.132293
0.282812
0.940949
1.31037
0.805685
0.86137
0.920659
0.828747
0.760008
0.72948
0.687494
0.638944
0.597023
0.561307
0.534
0.511036
0.494831
0.480942
0.467998
0.457605
0.446644
0.434781
0.418459
0.408885
0.101233
0.128584
0.260988
0.830785
1.37283
0.816376
0.853202
0.918638
0.835059
0.760977
0.729821
0.689287
0.641658
0.599663
0.562979
0.534726
0.511486
0.494267
0.4802
0.467029
0.455165
0.442403
0.428775
0.411055
0.400084
0.102031
0.125037
0.239791
0.715946
1.42833
0.829486
0.848441
0.912935
0.841713
0.762794
0.730304
0.691015
0.644668
0.60245
0.565124
0.535664
0.511934
0.493427
0.478944
0.465218
0.451946
0.437277
0.421213
0.401427
0.388494
0.102774
0.121661
0.219979
0.613229
1.45786
0.850138
0.841721
0.907463
0.848641
0.765482
0.731288
0.692933
0.648058
0.605748
0.567694
0.536795
0.512207
0.492223
0.477349
0.462571
0.447738
0.430772
0.411764
0.388752
0.371329
0.103299
0.118132
0.200294
0.526549
1.45448
0.887453
0.828472
0.902819
0.854501
0.770145
0.734247
0.695092
0.651823
0.609515
0.571115
0.537894
0.512315
0.490843
0.475133
0.458987
0.442336
0.422711
0.399893
0.372328
0.343959
0.098435
0.144209
0.347623
1.19815
1.14739
0.792101
0.891157
0.913129
0.812111
0.75829
0.724458
0.679133
0.630298
0.589003
0.55624
0.531123
0.509319
0.493581
0.47955
0.467275
0.459791
0.45376
0.445902
0.431526
0.42348
0.0985667
0.143399
0.343342
1.18456
1.15651
0.792209
0.890119
0.914485
0.813531
0.759292
0.72601
0.680625
0.631574
0.59023
0.557158
0.532006
0.510091
0.494491
0.480505
0.468218
0.460545
0.454277
0.446105
0.431733
0.423701
0.0988522
0.141688
0.334314
1.15415
1.17757
0.792365
0.886238
0.916038
0.815234
0.759398
0.726955
0.681851
0.632562
0.591139
0.557653
0.532261
0.510117
0.494627
0.48067
0.46833
0.460311
0.453665
0.445019
0.430501
0.422474
0.0992814
0.139154
0.320825
1.10466
1.20983
0.793648
0.879448
0.918302
0.818467
0.759626
0.727977
0.683644
0.634335
0.592805
0.558684
0.53277
0.510388
0.494898
0.481018
0.468532
0.459923
0.452346
0.442738
0.427908
0.419859
0.0998256
0.135955
0.303527
1.03488
1.25346
0.797886
0.870708
0.920167
0.823074
0.759709
0.728697
0.685552
0.636479
0.594731
0.559909
0.533333
0.51075
0.49501
0.48121
0.468514
0.459128
0.45003
0.439373
0.423934
0.415333
0.100476
0.132286
0.282772
0.940757
1.3105
0.8057
0.861358
0.920669
0.828763
0.760008
0.729494
0.687499
0.638959
0.597037
0.561313
0.533997
0.51103
0.494826
0.480938
0.467996
0.457601
0.446637
0.434772
0.418449
0.408875
0.101234
0.128578
0.260955
0.830612
1.37294
0.816392
0.853196
0.918641
0.835078
0.760982
0.729835
0.689298
0.641676
0.59968
0.562989
0.534726
0.511481
0.494262
0.480196
0.467027
0.455162
0.442398
0.428767
0.411046
0.400075
0.102032
0.125033
0.239766
0.715805
1.4284
0.829501
0.848437
0.912934
0.841735
0.762808
0.730306
0.691027
0.644685
0.602468
0.565137
0.535667
0.511929
0.493421
0.478939
0.465215
0.451944
0.437272
0.421206
0.401419
0.388487
0.102774
0.121658
0.219959
0.613132
1.45788
0.850166
0.841707
0.907464
0.848664
0.765497
0.731279
0.692938
0.648073
0.605766
0.567708
0.5368
0.512205
0.492219
0.477345
0.462569
0.447736
0.43077
0.411758
0.388745
0.371323
0.103299
0.118129
0.200277
0.526479
1.45448
0.887491
0.828454
0.902817
0.85452
0.770165
0.734238
0.695099
0.651837
0.609532
0.571129
0.537898
0.512314
0.490841
0.47513
0.458986
0.442335
0.422709
0.399889
0.372323
0.343955
0.0984347
0.144212
0.34764
1.1982
1.14735
0.792096
0.891159
0.913119
0.812104
0.758284
0.724452
0.679127
0.630293
0.588999
0.556239
0.531123
0.509321
0.493583
0.479553
0.467279
0.459797
0.453766
0.445908
0.43153
0.423486
0.0985663
0.143402
0.343358
1.18461
1.15646
0.792208
0.89012
0.914475
0.813525
0.759287
0.726002
0.680618
0.63157
0.590226
0.557156
0.532006
0.510092
0.494493
0.480508
0.468222
0.460551
0.454283
0.446112
0.431737
0.423707
0.0988519
0.141691
0.334329
1.15421
1.17752
0.792367
0.886238
0.916028
0.81523
0.759392
0.726947
0.681844
0.632557
0.591135
0.557652
0.532261
0.510118
0.494629
0.480673
0.468334
0.460317
0.453671
0.445025
0.430505
0.422479
0.0992811
0.139157
0.32084
1.10472
1.20978
0.793647
0.879448
0.918292
0.818465
0.75962
0.727969
0.683637
0.634331
0.592802
0.558683
0.53277
0.510389
0.4949
0.481021
0.468536
0.459928
0.452353
0.442744
0.427913
0.419864
0.0998253
0.135958
0.303542
1.03494
1.25342
0.79788
0.870707
0.920157
0.82307
0.759705
0.728689
0.685546
0.636474
0.594728
0.559907
0.533332
0.510751
0.495011
0.481213
0.468518
0.459133
0.450036
0.439379
0.423939
0.415338
0.100476
0.132288
0.282786
0.940822
1.31045
0.805693
0.861357
0.920659
0.828758
0.760003
0.729487
0.687493
0.638955
0.597034
0.561311
0.533996
0.51103
0.494827
0.480941
0.468
0.457606
0.446643
0.434777
0.418454
0.40888
0.101233
0.12858
0.260967
0.830671
1.3729
0.816385
0.853193
0.918633
0.835072
0.760978
0.729828
0.689292
0.641672
0.599677
0.562987
0.534724
0.511481
0.494262
0.480198
0.467031
0.455167
0.442403
0.428773
0.411051
0.40008
0.102031
0.125035
0.239775
0.715855
1.42837
0.829494
0.848434
0.912928
0.841729
0.762803
0.7303
0.691022
0.644681
0.602465
0.565134
0.535665
0.51193
0.493422
0.478941
0.465219
0.451948
0.437278
0.421212
0.401425
0.388492
0.102774
0.121659
0.219966
0.613168
1.45787
0.850154
0.841708
0.907457
0.848659
0.765492
0.731273
0.692933
0.648068
0.605763
0.567706
0.536798
0.512205
0.492219
0.477347
0.462572
0.447741
0.430775
0.411764
0.388751
0.371328
0.103299
0.11813
0.200284
0.526506
1.45448
0.887474
0.828456
0.902811
0.854515
0.77016
0.734233
0.695095
0.651833
0.609529
0.571127
0.537897
0.512313
0.490841
0.475131
0.458988
0.442339
0.422714
0.399894
0.372328
0.343958
0.0984342
0.144218
0.347671
1.19831
1.14727
0.792099
0.891181
0.913125
0.812112
0.758292
0.724458
0.679137
0.630308
0.589013
0.556248
0.531124
0.509315
0.493573
0.479544
0.467275
0.459799
0.453773
0.445918
0.431539
0.423494
0.0985658
0.143408
0.343389
1.18472
1.15639
0.792211
0.890141
0.914479
0.813531
0.759293
0.726008
0.680626
0.631581
0.590239
0.557166
0.532009
0.510088
0.494484
0.4805
0.468218
0.460552
0.45429
0.446121
0.431746
0.423715
0.0988515
0.141697
0.33436
1.15432
1.17744
0.792372
0.886259
0.91603
0.815231
0.759395
0.72695
0.681847
0.632561
0.591143
0.55766
0.532266
0.510117
0.494623
0.480667
0.468331
0.460318
0.453677
0.445033
0.430514
0.422487
0.0992806
0.139163
0.320869
1.10484
1.2097
0.793648
0.879468
0.91829
0.81846
0.75962
0.727975
0.683636
0.634328
0.592803
0.558688
0.532776
0.510392
0.494899
0.481017
0.468533
0.459929
0.452358
0.442751
0.42792
0.419872
0.0998249
0.135963
0.303571
1.03507
1.25334
0.797874
0.870722
0.920154
0.823064
0.759706
0.728683
0.685535
0.636463
0.594721
0.559908
0.533337
0.510756
0.495014
0.481212
0.468515
0.459133
0.45004
0.439385
0.423945
0.415344
0.100476
0.132293
0.282812
0.94095
1.31037
0.805685
0.86137
0.920659
0.828747
0.760008
0.72948
0.687494
0.638944
0.597023
0.561307
0.534
0.511036
0.494831
0.480942
0.467998
0.457605
0.446644
0.434781
0.418459
0.408885
0.101233
0.128584
0.260988
0.830786
1.37283
0.816376
0.853202
0.918638
0.835059
0.760977
0.729821
0.689287
0.641658
0.599663
0.562979
0.534726
0.511486
0.494267
0.4802
0.467029
0.455165
0.442404
0.428776
0.411055
0.400084
0.102031
0.125037
0.239792
0.715946
1.42833
0.829486
0.848441
0.912935
0.841713
0.762794
0.730304
0.691015
0.644668
0.60245
0.565124
0.535664
0.511934
0.493427
0.478944
0.465218
0.451946
0.437277
0.421213
0.401427
0.388494
0.102774
0.121661
0.219979
0.613229
1.45786
0.850138
0.841721
0.907463
0.848641
0.765482
0.731288
0.692932
0.648058
0.605748
0.567694
0.536795
0.512207
0.492223
0.477349
0.462571
0.447738
0.430773
0.411764
0.388752
0.371329
0.103299
0.118132
0.200294
0.526549
1.45448
0.887453
0.828472
0.902819
0.854501
0.770145
0.734247
0.695092
0.651823
0.609515
0.571115
0.537893
0.512315
0.490844
0.475133
0.458987
0.442336
0.422711
0.399893
0.372328
0.343959
0.0984344
0.144216
0.347664
1.19829
1.14729
0.792111
0.891184
0.913142
0.812121
0.758294
0.724461
0.67914
0.630309
0.589014
0.556244
0.531118
0.509306
0.493562
0.479532
0.467264
0.45979
0.453768
0.445917
0.431543
0.423494
0.098566
0.143407
0.343382
1.1847
1.15641
0.792216
0.890146
0.914492
0.813536
0.759296
0.726013
0.68063
0.631585
0.590241
0.557163
0.532003
0.510079
0.494474
0.480488
0.468207
0.460542
0.454285
0.446121
0.43175
0.423716
0.0988516
0.141696
0.334354
1.1543
1.17746
0.792373
0.886265
0.91604
0.815238
0.759403
0.726957
0.681853
0.632566
0.591145
0.557659
0.53226
0.510108
0.494612
0.480654
0.468318
0.460308
0.453672
0.445034
0.430519
0.42249
0.0992808
0.139162
0.320865
1.10482
1.20972
0.793649
0.879471
0.918298
0.818465
0.759627
0.727978
0.683641
0.634333
0.592811
0.558691
0.532772
0.510383
0.494887
0.481004
0.46852
0.459918
0.452353
0.442753
0.427926
0.419877
0.099825
0.135962
0.303569
1.03506
1.25335
0.797877
0.870721
0.920157
0.823076
0.759711
0.728685
0.685544
0.636475
0.594729
0.55991
0.533334
0.510747
0.495001
0.481197
0.468501
0.459122
0.450035
0.439388
0.423953
0.415352
0.100476
0.132293
0.282811
0.940948
1.31039
0.805689
0.861364
0.920659
0.828764
0.76001
0.729475
0.687504
0.638953
0.597031
0.561307
0.533996
0.511028
0.494818
0.480926
0.467983
0.457593
0.44664
0.434785
0.418468
0.408894
0.101233
0.128584
0.260989
0.830795
1.37285
0.816376
0.853194
0.91863
0.835074
0.760977
0.729812
0.689299
0.641668
0.599671
0.562976
0.534715
0.511478
0.494251
0.480184
0.467013
0.455152
0.442398
0.428779
0.411065
0.400095
0.102031
0.125038
0.239795
0.715966
1.42835
0.829478
0.848432
0.912925
0.841721
0.762791
0.730297
0.691022
0.644675
0.602455
0.565122
0.535658
0.511931
0.493413
0.478927
0.465201
0.451932
0.43727
0.421216
0.401438
0.388505
0.102773
0.121662
0.219983
0.613253
1.45789
0.850123
0.841713
0.907456
0.848643
0.765481
0.731285
0.692935
0.648058
0.605748
0.567686
0.536791
0.512198
0.492209
0.477331
0.462553
0.447723
0.430764
0.411765
0.388761
0.37134
0.103299
0.118133
0.200299
0.526573
1.45452
0.887432
0.828465
0.902813
0.854498
0.770146
0.73425
0.695091
0.651816
0.609507
0.571101
0.537892
0.512308
0.490832
0.475117
0.458969
0.44232
0.422702
0.399893
0.372335
0.343969
0.0984334
0.144218
0.347675
1.19832
1.14731
0.792092
0.891208
0.913079
0.812135
0.758296
0.724458
0.679167
0.630333
0.589035
0.556245
0.531117
0.509286
0.493539
0.479504
0.467237
0.459769
0.453764
0.445934
0.431575
0.423534
0.0985655
0.143408
0.343394
1.18475
1.15639
0.792285
0.890139
0.914447
0.813544
0.759299
0.726007
0.680655
0.631603
0.590259
0.557162
0.532002
0.510064
0.494453
0.480461
0.46818
0.460522
0.45428
0.446137
0.431782
0.423755
0.0988508
0.141697
0.334364
1.15435
1.1774
0.792442
0.886252
0.916
0.815224
0.759392
0.726953
0.681859
0.632571
0.59115
0.557654
0.53226
0.510097
0.494594
0.480629
0.468293
0.460288
0.453668
0.445049
0.430549
0.422528
0.0992796
0.139165
0.320881
1.10488
1.20971
0.793654
0.879501
0.918275
0.818432
0.759618
0.727988
0.683638
0.634316
0.592788
0.558679
0.53277
0.510376
0.494871
0.48098
0.468495
0.459898
0.452348
0.442766
0.427955
0.419913
0.0998238
0.135966
0.30359
1.03514
1.25332
0.797854
0.870776
0.920154
0.822997
0.759714
0.728701
0.68553
0.636444
0.594698
0.559896
0.533329
0.51074
0.494989
0.481177
0.468478
0.459102
0.45003
0.439401
0.42398
0.415384
0.100474
0.132296
0.282831
0.941037
1.31031
0.80568
0.861417
0.920682
0.828684
0.760009
0.729501
0.687477
0.638914
0.596993
0.561291
0.533991
0.51102
0.494808
0.480908
0.467961
0.457573
0.446634
0.434797
0.418494
0.408923
0.101232
0.128587
0.261006
0.830877
1.37275
0.816377
0.853234
0.91868
0.835024
0.760974
0.729836
0.689258
0.641621
0.59963
0.562963
0.534718
0.511466
0.494246
0.480167
0.466993
0.455134
0.442392
0.428791
0.411089
0.400121
0.10203
0.12504
0.239809
0.716037
1.42826
0.829488
0.848462
0.912972
0.841702
0.762795
0.730314
0.690985
0.644629
0.602423
0.565106
0.535654
0.511914
0.493406
0.478912
0.465182
0.451916
0.437266
0.421227
0.401459
0.388528
0.102773
0.121664
0.219996
0.613305
1.45782
0.850125
0.841741
0.907486
0.848643
0.765488
0.731289
0.692906
0.648025
0.605722
0.567673
0.536787
0.512188
0.492203
0.477315
0.462536
0.447709
0.430761
0.411775
0.38878
0.37136
0.103298
0.118135
0.200311
0.526614
1.45447
0.887419
0.828492
0.90283
0.854507
0.770149
0.734241
0.695075
0.651795
0.609491
0.571095
0.537882
0.512297
0.490822
0.475102
0.458953
0.442308
0.422699
0.399902
0.372352
0.343987
0.0984352
0.144219
0.347679
1.19836
1.14733
0.792068
0.89121
0.913157
0.812112
0.758321
0.724507
0.679171
0.630328
0.589028
0.556247
0.531123
0.509306
0.493565
0.479531
0.467254
0.459773
0.453759
0.445928
0.431578
0.423533
0.0985668
0.14341
0.343395
1.18477
1.15644
0.792173
0.890159
0.914513
0.813552
0.759305
0.726032
0.680652
0.631599
0.590252
0.557159
0.532003
0.510076
0.494475
0.480485
0.468196
0.460526
0.454277
0.446133
0.431787
0.423757
0.0988526
0.141698
0.334366
1.15437
1.17749
0.792349
0.886252
0.916074
0.815267
0.75941
0.726966
0.681879
0.632584
0.591161
0.557657
0.532259
0.510105
0.49461
0.480648
0.468306
0.460292
0.453666
0.445048
0.430557
0.422533
0.0992818
0.139164
0.320874
1.10489
1.20974
0.793636
0.879444
0.918332
0.818529
0.759638
0.727984
0.683666
0.63435
0.59282
0.558688
0.53277
0.510378
0.494879
0.480995
0.468506
0.459902
0.452349
0.44277
0.427965
0.419924
0.0998259
0.135964
0.303578
1.03513
1.2534
0.797838
0.870707
0.920184
0.823107
0.759725
0.728712
0.685564
0.636488
0.594742
0.559914
0.533333
0.51074
0.494993
0.481186
0.468485
0.459106
0.450033
0.439408
0.423994
0.415398
0.100476
0.132294
0.28282
0.94102
1.31045
0.805629
0.861369
0.920687
0.828757
0.76003
0.729523
0.687508
0.638965
0.597042
0.561324
0.534002
0.511021
0.494813
0.480915
0.467967
0.457578
0.446639
0.434808
0.418509
0.408938
0.101234
0.128584
0.260993
0.830841
1.37292
0.816323
0.853204
0.918687
0.835061
0.761005
0.729871
0.689299
0.641673
0.599676
0.562992
0.534729
0.511478
0.494253
0.480173
0.466997
0.455139
0.442398
0.428802
0.411105
0.400136
0.102031
0.125037
0.239794
0.715982
1.42842
0.829446
0.848443
0.912999
0.841728
0.762827
0.730336
0.691033
0.644687
0.602465
0.565139
0.535672
0.51193
0.493413
0.478917
0.465185
0.451918
0.43727
0.421237
0.401475
0.388544
0.102774
0.121661
0.219979
0.613249
1.45796
0.85011
0.841723
0.907524
0.848673
0.765509
0.7313
0.692942
0.648077
0.605768
0.567715
0.536799
0.512203
0.492208
0.477325
0.462539
0.447709
0.430763
0.411783
0.388794
0.371375
0.103299
0.118131
0.200292
0.526559
1.45459
0.887439
0.828465
0.902877
0.854543
0.770179
0.734244
0.695104
0.651847
0.609541
0.571139
0.537899
0.51231
0.490829
0.475109
0.458958
0.442308
0.422699
0.399907
0.372363
0.344001
0.103414
0.114407
0.18061
0.450088
1.39904
0.94066
0.81703
0.895987
0.857303
0.77957
0.738286
0.697515
0.655887
0.613739
0.574723
0.539561
0.512652
0.489864
0.472481
0.454776
0.435955
0.413277
0.385105
0.3472
0.278562
0.102887
0.11031
0.161496
0.381697
1.27212
1.00076
0.812569
0.885595
0.858077
0.794052
0.742137
0.7007
0.660325
0.618413
0.578776
0.541918
0.513359
0.489462
0.469529
0.450198
0.429152
0.403389
0.370192
0.324738
0.256933
0.101491
0.105721
0.143276
0.316327
1.07314
1.07278
0.831141
0.87178
0.860164
0.810324
0.747039
0.703084
0.664908
0.62378
0.583147
0.545447
0.51468
0.48928
0.466758
0.446088
0.422945
0.395166
0.360314
0.314365
0.258247
0.0991546
0.100866
0.127252
0.255513
0.817234
1.17785
0.852813
0.861484
0.861944
0.822268
0.751793
0.705891
0.670173
0.629804
0.588175
0.550084
0.5162
0.489293
0.464835
0.44277
0.418427
0.389979
0.355733
0.314616
0.263068
0.0969161
0.0950215
0.113864
0.208856
0.591751
1.24827
0.880803
0.856965
0.859686
0.827331
0.757507
0.710524
0.676602
0.636112
0.594027
0.555328
0.518879
0.489879
0.464766
0.441139
0.416081
0.38762
0.35526
0.316198
0.27318
0.0953224
0.0889929
0.103294
0.174865
0.460931
1.2496
0.92833
0.846183
0.852043
0.828333
0.765156
0.71744
0.684134
0.642657
0.600278
0.560404
0.523052
0.491878
0.46517
0.440505
0.415904
0.387676
0.356021
0.320098
0.284966
0.094074
0.0837516
0.0942779
0.146663
0.372653
1.20305
0.988968
0.835676
0.842698
0.827327
0.775772
0.726367
0.690386
0.648858
0.607134
0.566541
0.529133
0.494643
0.466405
0.440895
0.416177
0.388587
0.358587
0.327908
0.296985
0.0931916
0.0793353
0.0865484
0.12143
0.28004
1.02688
1.04267
0.848574
0.84363
0.82804
0.785797
0.735145
0.694271
0.65419
0.614245
0.573586
0.535644
0.4994
0.469225
0.44235
0.417288
0.391241
0.364141
0.336806
0.308562
0.0925307
0.0757262
0.080814
0.103927
0.201248
0.608052
1.0927
0.879838
0.847602
0.830516
0.795256
0.742032
0.69673
0.660009
0.621762
0.581479
0.54265
0.506745
0.473968
0.44594
0.420217
0.396438
0.371141
0.345226
0.318934
0.0919718
0.0727529
0.0765132
0.0931474
0.159732
0.414189
1.0824
0.925916
0.856427
0.834691
0.799473
0.747111
0.700292
0.66584
0.629229
0.589711
0.550668
0.514853
0.48037
0.452215
0.426216
0.401538
0.377591
0.352809
0.328387
0.0915266
0.0701851
0.072917
0.0848738
0.132259
0.325672
1.0152
0.963822
0.866346
0.835047
0.80067
0.751481
0.705694
0.671482
0.636626
0.598262
0.560025
0.52353
0.489796
0.458448
0.432732
0.407956
0.384132
0.360726
0.337651
0.0911704
0.0681329
0.0699901
0.0779287
0.108142
0.238815
0.841785
0.996995
0.888541
0.83637
0.801947
0.756723
0.713619
0.677554
0.645173
0.608147
0.570274
0.533347
0.499587
0.467347
0.439857
0.415338
0.391676
0.369203
0.347359
0.0908787
0.0665724
0.0678577
0.0731557
0.0918912
0.164902
0.456601
0.994266
0.911437
0.842094
0.804848
0.763248
0.722592
0.684746
0.654229
0.618634
0.581501
0.544762
0.510185
0.478375
0.448515
0.423864
0.400425
0.378214
0.357443
0.0906525
0.0653087
0.0662073
0.069884
0.0823658
0.127801
0.30919
0.911054
0.914268
0.858757
0.811508
0.771994
0.732369
0.694867
0.663212
0.630297
0.593703
0.556777
0.521674
0.489847
0.459957
0.433158
0.409994
0.388059
0.367779
0.0904846
0.0643372
0.0649262
0.0673438
0.07531
0.102861
0.215792
0.702054
0.918539
0.884268
0.8254
0.78268
0.742641
0.705689
0.671448
0.643207
0.606966
0.570171
0.534941
0.502155
0.472444
0.444815
0.420518
0.398922
0.378813
0.0903723
0.063635
0.0640143
0.0655959
0.070613
0.0869109
0.147369
0.383544
0.89633
0.885458
0.848617
0.797038
0.754323
0.717223
0.682768
0.654009
0.620595
0.584373
0.549048
0.516
0.485774
0.458038
0.43262
0.410571
0.390692
0.0903287
0.063147
0.0633783
0.0643865
0.0675507
0.0773822
0.111368
0.249632
0.759426
0.884186
0.858633
0.809855
0.766912
0.729928
0.695019
0.662315
0.634042
0.598629
0.563584
0.530466
0.49997
0.472259
0.446577
0.423341
0.403182
0.0903678
0.0628464
0.0629764
0.0635991
0.0655493
0.0713504
0.0900278
0.160816
0.436323
0.865662
0.858855
0.832179
0.782949
0.743255
0.707518
0.673397
0.644418
0.612731
0.578927
0.546074
0.515193
0.486919
0.461315
0.437813
0.416777
0.0904593
0.0627028
0.0627784
0.0631566
0.0642996
0.0676505
0.0780114
0.114259
0.260674
0.737997
0.854235
0.838071
0.800291
0.758603
0.72061
0.685439
0.653326
0.626472
0.594389
0.561959
0.531074
0.502673
0.476577
0.453275
0.432062
0.0905019
0.0628002
0.0625697
0.062744
0.0633909
0.0653363
0.0710783
0.0895813
0.159785
0.421489
0.825378
0.836137
0.816533
0.774806
0.733576
0.698068
0.66508
0.636491
0.608954
0.577894
0.547559
0.519069
0.493173
0.469421
0.448477
0.0905065
0.0629072
0.0623684
0.0624645
0.0628277
0.0639208
0.0670679
0.0766822
0.109989
0.243295
0.680801
0.825223
0.81661
0.792834
0.750531
0.711403
0.677798
0.647767
0.622628
0.593595
0.564481
0.536365
0.510432
0.486896
0.466454
0.090503
0.0629745
0.0622388
0.0622904
0.0624893
0.0630869
0.0648057
0.0697982
0.0858645
0.145997
0.360988
0.770802
0.812183
0.79871
0.766601
0.726934
0.692028
0.660797
0.632649
0.609847
0.581997
0.554806
0.528506
0.505273
0.485081
0.0904984
0.0630103
0.0621644
0.0621905
0.0622947
0.0626113
0.0635158
0.0660778
0.0737884
0.0998428
0.202916
0.560656
0.78817
0.795186
0.779396
0.743529
0.707499
0.675568
0.646581
0.622912
0.599244
0.573082
0.548133
0.524659
0.504515
0.0904961
0.0630283
0.0621234
0.0621354
0.0621869
0.0623468
0.0628047
0.0641065
0.0678526
0.0797107
0.123142
0.288038
0.680716
0.782683
0.777629
0.759794
0.724631
0.691179
0.662
0.635981
0.616627
0.592015
0.567849
0.545642
0.525678
0.0904961
0.0630337
0.0621019
0.0621073
0.0621324
0.0622096
0.0624331
0.0630662
0.0648831
0.0702686
0.0879437
0.155479
0.387362
0.726689
0.769155
0.760968
0.742045
0.70979
0.679057
0.651927
0.629713
0.611611
0.588755
0.567408
0.549056
0.0904967
0.0630301
0.0621007
0.0620925
0.0621011
0.0621343
0.062236
0.0625316
0.0633788
0.065819
0.0733051
0.0990477
0.198102
0.516456
0.73351
0.755062
0.746131
0.727077
0.6989
0.671208
0.647412
0.629986
0.610359
0.590348
0.573174
0.0904967
0.0630275
0.062105
0.0620803
0.0620837
0.0620978
0.0621417
0.0622727
0.0626495
0.0637405
0.0669286
0.0771359
0.11421
0.250885
0.597562
0.730137
0.741578
0.733153
0.715486
0.691526
0.667228
0.646589
0.634028
0.616143
0.600073
0.0904965
0.0630272
0.0621064
0.062075
0.0620764
0.0620821
0.0621002
0.0621539
0.0623124
0.0627719
0.0641263
0.0681815
0.0816369
0.131692
0.297243
0.630325
0.722895
0.729954
0.723106
0.709206
0.69017
0.668477
0.655338
0.644172
0.629718
0.0904964
0.0630274
0.062106
0.0620742
0.0620739
0.0620753
0.0620811
0.0621014
0.062163
0.0623486
0.0628922
0.0645091
0.0694572
0.0860808
0.147595
0.34495
0.644174
0.714501
0.720528
0.714901
0.706462
0.693107
0.677683
0.673232
0.663957
0.0904964
0.0630276
0.0621057
0.0620747
0.0620721
0.0620724
0.0620743
0.0620812
0.0621034
0.0621727
0.0623798
0.0629961
0.0648347
0.0705788
0.0901552
0.161597
0.386313
0.645055
0.705481
0.712789
0.711496
0.708436
0.701264
0.697994
0.696837
0.0904964
0.0630276
0.0621056
0.0620748
0.0620717
0.0620717
0.0620722
0.0620746
0.0620824
0.0621067
0.0621817
0.062403