/*--------------------------------*- C++ -*----------------------------------*\
| =========                 |                                                 |
| \\      /  F ield         | OpenFOAM: The Open Source CFD Toolbox           |
|  \\    /   O peration     | Version:  4.1                                   |
|   \\  /    A nd           | Web:      www.OpenFOAM.org                      |
|    \\/     M anipulation  |                                                 |
\*---------------------------------------------------------------------------*/
FoamFile
{
    version     2.0;
    format      ascii;
    class       volScalarField;
    location    "0.68";
    object      T;
}
// * * * * * * * * * * * * * * * * * * * * * * * * * * * * * * * * * * * * * //

dimensions      [0 0 0 1 0 0 0];

internalField   nonuniform List<scalar> 
52500
(
0.341819
0.50756
0.903354
1.31355
1.35452
1.31937
1.37007
1.37576
1.34557
1.259
1.12458
1.06215
1.04729
1.0608
1.102
1.11544
1.10536
1.07073
1.05383
1.05316
1.04888
1.03801
1.02304
0.996646
0.942309
0.342808
0.505529
0.897832
1.31053
1.35795
1.31839
1.36945
1.37577
1.34541
1.25933
1.12488
1.06196
1.04651
1.0592
1.10039
1.11466
1.1054
1.07091
1.05329
1.05249
1.04813
1.03721
1.02201
0.99557
0.940842
0.344976
0.501206
0.885366
1.30188
1.36232
1.31675
1.36929
1.37702
1.34673
1.26388
1.12778
1.06208
1.04466
1.0555
1.09695
1.11339
1.10587
1.07193
1.05307
1.05209
1.04777
1.03687
1.02121
0.994802
0.939404
0.348275
0.494825
0.865422
1.2872
1.36719
1.31257
1.36687
1.37778
1.34834
1.27318
1.1344
1.06345
1.0434
1.0524
1.09347
1.11208
1.10677
1.07391
1.05311
1.05182
1.04747
1.03641
1.02034
0.993816
0.938307
0.352577
0.48673
0.83759
1.26655
1.37341
1.3085
1.36394
1.3772
1.34916
1.28175
1.14206
1.06508
1.04095
1.04716
1.08696
1.10947
1.10699
1.07627
1.05314
1.05121
1.04682
1.03534
1.0187
0.992629
0.93583
0.357811
0.477434
0.801306
1.23607
1.38183
1.30546
1.36095
1.37575
1.3498
1.29159
1.15267
1.06709
1.03785
1.04127
1.07896
1.10588
1.10638
1.07884
1.05295
1.05007
1.04562
1.03367
1.0165
0.990566
0.932014
0.363909
0.46795
0.759791
1.19763
1.39087
1.30215
1.35818
1.37455
1.35059
1.29879
1.16638
1.07033
1.03444
1.03473
1.06801
1.10029
1.10475
1.08127
1.05277
1.0485
1.04368
1.03154
1.01381
0.986915
0.92585
0.370594
0.458629
0.71583
1.15445
1.39782
1.29814
1.3561
1.37185
1.35134
1.30632
1.18377
1.07556
1.03149
1.02781
1.05539
1.09334
1.10228
1.08358
1.05232
1.04535
1.04098
1.02931
1.00958
0.98203
0.919798
0.377539
0.449344
0.672076
1.11379
1.39897
1.29459
1.35175
1.37028
1.35215
1.31255
1.20426
1.08316
1.02984
1.02079
1.04107
1.08446
1.09849
1.08531
1.05181
1.04274
1.03718
1.02488
1.00479
0.976354
0.903163
0.384096
0.439124
0.627083
1.07453
1.39495
1.29529
1.34199
1.36973
1.35199
1.3171
1.2275
1.09369
1.02908
1.01334
1.0278
1.07245
1.0924
1.0859
1.05299
1.03802
1.03077
1.01808
0.996419
0.963049
0.883111
0.341807
0.507576
0.903401
1.3136
1.35458
1.31939
1.37008
1.37575
1.34556
1.25887
1.12459
1.0622
1.04734
1.06082
1.10199
1.11543
1.10534
1.0707
1.05381
1.05314
1.04887
1.03799
1.02302
0.996631
0.942354
0.342801
0.505543
0.897878
1.31053
1.35778
1.31835
1.36938
1.3757
1.34555
1.25995
1.12528
1.06204
1.04646
1.05905
1.10027
1.11463
1.10539
1.0709
1.05327
1.05247
1.04812
1.0372
1.02199
0.995556
0.940878
0.344966
0.501218
0.885413
1.30191
1.3622
1.3167
1.36917
1.37695
1.34686
1.26435
1.12807
1.06225
1.04481
1.05568
1.09707
1.11344
1.10587
1.0719
1.05305
1.05208
1.04776
1.03686
1.02119
0.994791
0.939434
0.348262
0.494842
0.865486
1.28725
1.36718
1.31258
1.36683
1.37771
1.34827
1.27305
1.13444
1.06354
1.04354
1.0526
1.09367
1.11216
1.10676
1.07384
1.05308
1.05181
1.04746
1.0364
1.02032
0.993808
0.938331
0.352562
0.486751
0.837669
1.2666
1.3734
1.3085
1.36394
1.37715
1.34909
1.28145
1.14151
1.06493
1.04091
1.04718
1.08702
1.10949
1.10698
1.07624
1.05313
1.05121
1.04681
1.03533
1.01869
0.992617
0.935844
0.357796
0.477453
0.801386
1.23612
1.38177
1.30544
1.36094
1.37569
1.34968
1.29117
1.15249
1.06706
1.03804
1.04156
1.07926
1.10593
1.10635
1.07877
1.05294
1.05006
1.04561
1.03366
1.01648
0.99055
0.932034
0.363893
0.467967
0.759871
1.19768
1.3908
1.30213
1.35816
1.37448
1.35044
1.2984
1.1658
1.07024
1.03485
1.03531
1.06877
1.10065
1.10488
1.08121
1.05275
1.04849
1.04367
1.03152
1.01378
0.98689
0.925877
0.370579
0.458646
0.715904
1.1545
1.39775
1.29814
1.35608
1.3718
1.35126
1.30613
1.18299
1.07544
1.03186
1.02833
1.05601
1.09365
1.10241
1.08354
1.05229
1.04535
1.04097
1.02929
1.00953
0.981999
0.919828
0.377525
0.449361
0.672144
1.11383
1.3989
1.2946
1.35176
1.37025
1.35214
1.31252
1.20368
1.08313
1.03004
1.02104
1.04133
1.08457
1.09853
1.08526
1.05176
1.04273
1.03717
1.02486
1.00474
0.976316
0.903198
0.384086
0.439142
0.627148
1.07456
1.39489
1.29529
1.34202
1.36972
1.35201
1.31714
1.22711
1.09374
1.02913
1.01333
1.02774
1.07238
1.09235
1.08585
1.05295
1.03799
1.03075
1.01806
0.996371
0.963004
0.883143
0.341813
0.507571
0.903386
1.31358
1.35452
1.31938
1.37006
1.37573
1.34548
1.25869
1.12445
1.06222
1.04744
1.061
1.10213
1.11548
1.10534
1.07069
1.05383
1.05316
1.04888
1.038
1.02301
0.99661
0.942328
0.342803
0.50554
0.897864
1.31055
1.3579
1.31839
1.36943
1.37573
1.34537
1.25926
1.12488
1.06204
1.04663
1.05935
1.10048
1.11469
1.10538
1.07088
1.05328
1.05249
1.04813
1.0372
1.02198
0.995536
0.940853
0.34497
0.501216
0.885397
1.3019
1.36227
1.31673
1.36924
1.37697
1.34672
1.26399
1.12785
1.06215
1.04472
1.05555
1.09699
1.11341
1.10587
1.07192
1.05307
1.05209
1.04778
1.03686
1.02118
0.994771
0.939409
0.348269
0.494835
0.865459
1.28723
1.36717
1.31258
1.36684
1.37774
1.34832
1.27321
1.13455
1.06352
1.04349
1.05256
1.09362
1.11213
1.10677
1.07387
1.0531
1.05182
1.04747
1.03641
1.02031
0.99379
0.938307
0.35257
0.486742
0.837631
1.26658
1.37339
1.30851
1.36394
1.37718
1.34919
1.28187
1.14188
1.06502
1.04087
1.04705
1.08687
1.10945
1.10699
1.07627
1.05315
1.05122
1.04683
1.03534
1.01868
0.9926
0.935823
0.357804
0.477445
0.801348
1.2361
1.3818
1.30546
1.36094
1.37571
1.34978
1.29158
1.1531
1.06717
1.03776
1.04116
1.07884
1.10582
1.10635
1.07885
1.05296
1.05007
1.04562
1.03366
1.01647
0.990534
0.932014
0.363901
0.46796
0.759834
1.19766
1.39084
1.30215
1.35817
1.3745
1.35054
1.29873
1.16639
1.07031
1.03446
1.03479
1.06813
1.10034
1.10477
1.08127
1.05278
1.04851
1.04368
1.03153
1.01377
0.986874
0.925858
0.370587
0.458639
0.715871
1.15448
1.39779
1.29815
1.3561
1.37182
1.35134
1.30633
1.18339
1.07543
1.03155
1.02793
1.05556
1.09349
1.10237
1.0836
1.05232
1.04536
1.04098
1.0293
1.00953
0.981985
0.919811
0.377532
0.449354
0.672114
1.11381
1.39894
1.2946
1.35176
1.37028
1.35219
1.31264
1.20389
1.08305
1.02988
1.02087
1.04116
1.08451
1.09854
1.08532
1.05181
1.04275
1.03717
1.02487
1.00473
0.976301
0.903182
0.384091
0.439135
0.62712
1.07454
1.39492
1.2953
1.34201
1.36975
1.35205
1.31721
1.22718
1.09362
1.0291
1.01337
1.02782
1.07246
1.0924
1.08589
1.05299
1.03801
1.03076
1.01806
0.996366
0.962992
0.883126
0.341811
0.507575
0.903395
1.31359
1.35453
1.31937
1.37006
1.37573
1.34548
1.25868
1.12444
1.06222
1.04744
1.061
1.10214
1.11549
1.10534
1.07069
1.05383
1.05316
1.04889
1.038
1.02301
0.996606
0.942327
0.342802
0.505543
0.897872
1.31055
1.35789
1.31839
1.36942
1.37572
1.34538
1.25929
1.12489
1.06204
1.04662
1.05934
1.10049
1.1147
1.10539
1.07088
1.05329
1.05249
1.04814
1.0372
1.02198
0.995531
0.940851
0.344969
0.501219
0.885405
1.30191
1.36226
1.31673
1.36924
1.37697
1.34674
1.26406
1.12789
1.06218
1.04477
1.05563
1.09705
1.11344
1.10588
1.07191
1.05307
1.0521
1.04778
1.03686
1.02118
0.994766
0.939406
0.348268
0.494837
0.865464
1.28724
1.36716
1.31257
1.36682
1.37771
1.34831
1.27328
1.13462
1.06353
1.04346
1.05247
1.09357
1.11214
1.10677
1.07388
1.05311
1.05183
1.04748
1.03641
1.02031
0.993785
0.938303
0.352569
0.486743
0.837636
1.26658
1.37339
1.30851
1.36392
1.37716
1.34916
1.28177
1.14176
1.06496
1.04082
1.04701
1.08685
1.10945
1.10699
1.07629
1.05316
1.05123
1.04683
1.03534
1.01868
0.992594
0.935816
0.357803
0.477445
0.80135
1.2361
1.38179
1.30546
1.36095
1.37571
1.34975
1.29143
1.15281
1.0671
1.0379
1.04137
1.07904
1.10587
1.10636
1.07883
1.05297
1.05008
1.04563
1.03366
1.01647
0.990526
0.932006
0.363901
0.467959
0.759831
1.19765
1.39083
1.30215
1.35818
1.37451
1.35052
1.29861
1.16615
1.07029
1.03467
1.03505
1.06848
1.10056
1.10487
1.08127
1.05278
1.04851
1.04369
1.03153
1.01377
0.986867
0.92585
0.370587
0.458638
0.715864
1.15446
1.39778
1.29815
1.3561
1.37182
1.35132
1.30627
1.1833
1.07548
1.03166
1.02804
1.05569
1.09354
1.1024
1.08359
1.05232
1.04537
1.04099
1.0293
1.00952
0.981977
0.919803
0.377533
0.449352
0.672104
1.1138
1.39892
1.29461
1.35176
1.37028
1.35218
1.31263
1.20392
1.08314
1.02987
1.0208
1.04106
1.08444
1.0985
1.0853
1.05181
1.04276
1.03719
1.02487
1.00473
0.976295
0.903174
0.384092
0.439133
0.627108
1.07453
1.3949
1.2953
1.34201
1.36974
1.35204
1.31721
1.2273
1.09372
1.02903
1.0132
1.02758
1.0723
1.09235
1.08588
1.053
1.03802
1.03077
1.01807
0.996365
0.962986
0.883117
0.341819
0.507551
0.903335
1.31354
1.35454
1.31935
1.37004
1.37572
1.34549
1.2587
1.12445
1.06222
1.04744
1.06098
1.10211
1.11547
1.10534
1.0707
1.05383
1.05316
1.04888
1.03799
1.023
0.996597
0.942315
0.34281
0.50552
0.897811
1.31051
1.35791
1.31836
1.3694
1.37572
1.34538
1.2593
1.1249
1.06204
1.04662
1.05933
1.10047
1.11469
1.10538
1.07089
1.05329
1.05249
1.04813
1.03719
1.02197
0.995522
0.940843
0.344977
0.501196
0.885342
1.30186
1.36229
1.31671
1.36922
1.37697
1.34674
1.26405
1.1279
1.06219
1.04477
1.05562
1.09703
1.11342
1.10587
1.07192
1.05307
1.05209
1.04777
1.03685
1.02117
0.994757
0.939399
0.348275
0.494816
0.865398
1.28718
1.36718
1.31255
1.36681
1.37772
1.34833
1.2733
1.13454
1.06352
1.04346
1.05247
1.09355
1.11212
1.10676
1.07388
1.05311
1.05182
1.04747
1.03639
1.02029
0.993771
0.938299
0.352577
0.486722
0.837564
1.26652
1.3734
1.30849
1.3639
1.37714
1.34914
1.28171
1.14207
1.06504
1.04084
1.04703
1.08685
1.10944
1.10698
1.07628
1.05315
1.05122
1.04682
1.03532
1.01866
0.992581
0.93582
0.357811
0.477427
0.801281
1.23603
1.38181
1.30546
1.36094
1.37571
1.34976
1.29147
1.15244
1.06701
1.0379
1.04137
1.07904
1.10585
1.10634
1.07882
1.05296
1.05008
1.04562
1.03365
1.01646
0.990519
0.932001
0.363908
0.467945
0.759767
1.19759
1.39085
1.30215
1.35817
1.37452
1.35055
1.29868
1.16609
1.07026
1.03466
1.03505
1.06847
1.10056
1.10487
1.08126
1.05277
1.04851
1.04368
1.03153
1.01376
0.986868
0.925829
0.370594
0.458626
0.71581
1.15441
1.39779
1.29814
1.3561
1.37182
1.35131
1.30626
1.18362
1.07558
1.03167
1.02805
1.05568
1.09352
1.10238
1.08357
1.05231
1.04537
1.04099
1.0293
1.00954
0.981983
0.919776
0.377539
0.449343
0.67206
1.11376
1.39892
1.2946
1.35175
1.37026
1.35213
1.31252
1.20427
1.08327
1.02989
1.02081
1.04105
1.08444
1.09849
1.08529
1.0518
1.04276
1.0372
1.02488
1.00476
0.97631
0.903134
0.384097
0.439124
0.62707
1.07449
1.3949
1.29529
1.34199
1.36973
1.35198
1.31709
1.22761
1.09384
1.02905
1.0132
1.02758
1.07229
1.09233
1.08586
1.053
1.03802
1.03078
1.01809
0.996408
0.963012
0.883074
0.341816
0.507559
0.903355
1.31356
1.35453
1.31936
1.37004
1.37572
1.34547
1.25866
1.12443
1.06221
1.04744
1.061
1.10214
1.11549
1.10535
1.07069
1.05384
1.05317
1.04889
1.03799
1.023
0.9966
0.942321
0.342807
0.505528
0.897832
1.31052
1.3579
1.31836
1.3694
1.37571
1.34537
1.25927
1.12488
1.06203
1.04662
1.05934
1.10049
1.1147
1.10539
1.07089
1.0533
1.0525
1.04814
1.0372
1.02197
0.995526
0.940846
0.344974
0.501204
0.885363
1.30187
1.36227
1.31671
1.36921
1.37696
1.34673
1.26404
1.12789
1.06218
1.04477
1.05563
1.09705
1.11343
1.10588
1.07191
1.05307
1.0521
1.04778
1.03686
1.02118
0.994761
0.939401
0.348273
0.494823
0.86542
1.2872
1.36717
1.31255
1.36681
1.37771
1.34832
1.27329
1.13452
1.06351
1.04346
1.05247
1.09357
1.11213
1.10677
1.07388
1.05311
1.05183
1.04748
1.0364
1.02031
0.99378
0.938298
0.352574
0.486729
0.837588
1.26654
1.37339
1.30849
1.3639
1.37714
1.34913
1.28169
1.14206
1.06503
1.04083
1.04703
1.08686
1.10945
1.10699
1.07629
1.05316
1.05123
1.04683
1.03534
1.01868
0.992589
0.935812
0.357808
0.477433
0.801305
1.23605
1.3818
1.30546
1.36094
1.37571
1.34976
1.29145
1.15242
1.067
1.0379
1.04137
1.07904
1.10586
1.10635
1.07883
1.05296
1.05008
1.04563
1.03366
1.01646
0.990523
0.932003
0.363905
0.46795
0.75979
1.19761
1.39084
1.30215
1.35818
1.37452
1.35054
1.29866
1.16607
1.07025
1.03466
1.03505
1.06847
1.10056
1.10487
1.08127
1.05278
1.04852
1.04369
1.03153
1.01376
0.986865
0.925847
0.370591
0.45863
0.715829
1.15443
1.39778
1.29814
1.3561
1.37182
1.3513
1.30624
1.1836
1.07557
1.03167
1.02805
1.05569
1.09353
1.10239
1.08358
1.05232
1.04537
1.04099
1.0293
1.00952
0.981976
0.919801
0.377536
0.449346
0.672076
1.11377
1.39892
1.2946
1.35175
1.37026
1.35213
1.31251
1.20425
1.08325
1.02989
1.0208
1.04105
1.08444
1.0985
1.0853
1.05181
1.04276
1.03719
1.02487
1.00473
0.976295
0.903173
0.384095
0.439127
0.627085
1.07451
1.3949
1.29529
1.342
1.36973
1.35197
1.31708
1.22759
1.09383
1.02904
1.01319
1.02757
1.07229
1.09234
1.08588
1.053
1.03802
1.03077
1.01807
0.996365
0.962987
0.883117
0.341811
0.507575
0.903395
1.31359
1.35453
1.31937
1.37006
1.37573
1.34548
1.25868
1.12444
1.06222
1.04744
1.061
1.10214
1.11549
1.10534
1.07069
1.05383
1.05316
1.04889
1.038
1.02301
0.996606
0.942327
0.342802
0.505543
0.897873
1.31055
1.35789
1.31839
1.36942
1.37572
1.34538
1.25929
1.12489
1.06204
1.04662
1.05934
1.10049
1.1147
1.10539
1.07088
1.05329
1.05249
1.04814
1.0372
1.02198
0.995531
0.940851
0.344969
0.501219
0.885405
1.30191
1.36226
1.31673
1.36924
1.37697
1.34674
1.26405
1.12789
1.06218
1.04477
1.05563
1.09705
1.11344
1.10588
1.07191
1.05307
1.0521
1.04778
1.03686
1.02118
0.994766
0.939406
0.348268
0.494837
0.865465
1.28724
1.36716
1.31257
1.36682
1.37771
1.34831
1.27328
1.13462
1.06353
1.04346
1.05247
1.09357
1.11214
1.10677
1.07388
1.05311
1.05183
1.04748
1.03641
1.02031
0.993785
0.938303
0.352569
0.486743
0.837636
1.26658
1.37339
1.30851
1.36392
1.37716
1.34916
1.28177
1.14176
1.06496
1.04081
1.04701
1.08685
1.10945
1.10699
1.07629
1.05316
1.05123
1.04683
1.03534
1.01868
0.992594
0.935816
0.357803
0.477445
0.80135
1.2361
1.38179
1.30546
1.36095
1.37571
1.34975
1.29143
1.15281
1.0671
1.0379
1.04137
1.07904
1.10587
1.10636
1.07883
1.05297
1.05008
1.04563
1.03366
1.01647
0.990526
0.932007
0.363901
0.467959
0.759832
1.19765
1.39083
1.30215
1.35818
1.37451
1.35052
1.29861
1.16615
1.07029
1.03467
1.03505
1.06848
1.10056
1.10487
1.08127
1.05278
1.04851
1.04369
1.03153
1.01377
0.986867
0.92585
0.370587
0.458638
0.715864
1.15446
1.39778
1.29815
1.3561
1.37182
1.35132
1.30627
1.18329
1.07548
1.03166
1.02804
1.05569
1.09354
1.1024
1.08359
1.05232
1.04537
1.04099
1.0293
1.00952
0.981977
0.919803
0.377533
0.449352
0.672105
1.1138
1.39892
1.29461
1.35176
1.37028
1.35218
1.31263
1.20392
1.08314
1.02987
1.0208
1.04106
1.08444
1.0985
1.0853
1.05181
1.04276
1.03719
1.02487
1.00473
0.976295
0.903174
0.384092
0.439133
0.627109
1.07453
1.3949
1.2953
1.34201
1.36974
1.35204
1.31721
1.2273
1.09372
1.02903
1.0132
1.02758
1.0723
1.09235
1.08588
1.053
1.03802
1.03077
1.01807
0.996366
0.962986
0.883117
0.341813
0.507571
0.903386
1.31358
1.35452
1.31938
1.37006
1.37573
1.34548
1.25869
1.12445
1.06222
1.04744
1.061
1.10213
1.11548
1.10534
1.07069
1.05383
1.05316
1.04888
1.038
1.02301
0.99661
0.942328
0.342803
0.50554
0.897864
1.31055
1.3579
1.31839
1.36943
1.37573
1.34537
1.25926
1.12488
1.06204
1.04663
1.05935
1.10048
1.11469
1.10538
1.07088
1.05328
1.05249
1.04813
1.0372
1.02198
0.995536
0.940853
0.34497
0.501216
0.885397
1.3019
1.36227
1.31673
1.36924
1.37697
1.34672
1.26399
1.12785
1.06215
1.04472
1.05555
1.09699
1.11341
1.10587
1.07192
1.05307
1.05209
1.04778
1.03686
1.02118
0.994771
0.939409
0.348269
0.494835
0.865459
1.28723
1.36717
1.31258
1.36684
1.37774
1.34832
1.27321
1.13455
1.06352
1.04349
1.05256
1.09362
1.11213
1.10677
1.07387
1.0531
1.05182
1.04747
1.03641
1.02031
0.99379
0.938307
0.35257
0.486742
0.837631
1.26658
1.37339
1.30851
1.36394
1.37718
1.34919
1.28187
1.14188
1.06502
1.04087
1.04705
1.08687
1.10945
1.10699
1.07627
1.05315
1.05122
1.04683
1.03534
1.01868
0.9926
0.935823
0.357804
0.477445
0.801348
1.2361
1.3818
1.30546
1.36094
1.37571
1.34978
1.29158
1.1531
1.06717
1.03776
1.04116
1.07884
1.10582
1.10635
1.07885
1.05296
1.05007
1.04562
1.03366
1.01647
0.990534
0.932014
0.363901
0.46796
0.759834
1.19766
1.39084
1.30215
1.35817
1.3745
1.35054
1.29873
1.16639
1.07031
1.03446
1.03479
1.06813
1.10034
1.10477
1.08127
1.05278
1.04851
1.04368
1.03153
1.01377
0.986874
0.925858
0.370587
0.458639
0.715871
1.15448
1.39779
1.29815
1.3561
1.37182
1.35134
1.30633
1.18339
1.07543
1.03155
1.02793
1.05556
1.09349
1.10237
1.0836
1.05232
1.04536
1.04098
1.0293
1.00953
0.981985
0.919811
0.377532
0.449354
0.672114
1.11381
1.39894
1.2946
1.35176
1.37028
1.35219
1.31264
1.20389
1.08305
1.02988
1.02087
1.04116
1.08451
1.09854
1.08532
1.05181
1.04275
1.03717
1.02487
1.00473
0.976302
0.903182
0.384091
0.439135
0.62712
1.07454
1.39492
1.2953
1.34201
1.36975
1.35205
1.31721
1.22718
1.09362
1.0291
1.01337
1.02782
1.07246
1.0924
1.08589
1.05299
1.03801
1.03076
1.01806
0.996366
0.962992
0.883126
0.341807
0.507576
0.903402
1.3136
1.35458
1.31939
1.37008
1.37575
1.34556
1.25887
1.12459
1.0622
1.04734
1.06082
1.10199
1.11543
1.10534
1.0707
1.05381
1.05314
1.04887
1.03799
1.02302
0.996631
0.942355
0.342801
0.505543
0.897878
1.31053
1.35778
1.31835
1.36938
1.3757
1.34555
1.25995
1.12528
1.06204
1.04646
1.05905
1.10027
1.11463
1.10539
1.0709
1.05327
1.05247
1.04812
1.0372
1.02199
0.995556
0.940879
0.344966
0.501218
0.885413
1.30191
1.3622
1.3167
1.36917
1.37695
1.34686
1.26435
1.12807
1.06225
1.04481
1.05568
1.09707
1.11344
1.10587
1.0719
1.05305
1.05208
1.04776
1.03686
1.02119
0.994791
0.939434
0.348262
0.494842
0.865486
1.28725
1.36718
1.31258
1.36683
1.37771
1.34827
1.27305
1.13444
1.06354
1.04354
1.0526
1.09367
1.11216
1.10676
1.07384
1.05308
1.05181
1.04746
1.0364
1.02032
0.993808
0.938331
0.352562
0.486751
0.837669
1.2666
1.3734
1.3085
1.36394
1.37715
1.34909
1.28145
1.14151
1.06493
1.04091
1.04718
1.08702
1.10949
1.10698
1.07624
1.05313
1.05121
1.04681
1.03533
1.01869
0.992617
0.935844
0.357796
0.477453
0.801386
1.23612
1.38177
1.30544
1.36094
1.37569
1.34967
1.29117
1.15249
1.06706
1.03804
1.04156
1.07926
1.10593
1.10635
1.07877
1.05294
1.05006
1.04561
1.03366
1.01648
0.99055
0.932034
0.363893
0.467967
0.75987
1.19768
1.3908
1.30213
1.35816
1.37448
1.35044
1.29841
1.1658
1.07024
1.03485
1.03531
1.06877
1.10065
1.10488
1.08121
1.05275
1.04849
1.04367
1.03152
1.01378
0.98689
0.925877
0.370579
0.458646
0.715903
1.1545
1.39775
1.29814
1.35608
1.3718
1.35126
1.30613
1.18299
1.07544
1.03186
1.02833
1.05601
1.09365
1.10241
1.08354
1.05229
1.04535
1.04097
1.02929
1.00953
0.981999
0.919828
0.377525
0.449361
0.672143
1.11383
1.3989
1.2946
1.35176
1.37025
1.35214
1.31252
1.20368
1.08313
1.03004
1.02104
1.04133
1.08457
1.09852
1.08526
1.05176
1.04273
1.03717
1.02486
1.00474
0.976316
0.903198
0.384086
0.439142
0.627148
1.07456
1.39489
1.29529
1.34202
1.36972
1.35201
1.31714
1.22711
1.09374
1.02913
1.01333
1.02774
1.07238
1.09235
1.08585
1.05295
1.03799
1.03075
1.01806
0.996371
0.963004
0.883143
0.341815
0.507578
0.903398
1.31361
1.35457
1.31939
1.37011
1.37576
1.34548
1.2586
1.12436
1.06213
1.04734
1.06088
1.10205
1.11544
1.10533
1.0707
1.05384
1.05317
1.04892
1.03807
1.02312
0.996673
0.942189
0.342806
0.505546
0.897875
1.31058
1.35796
1.31841
1.36948
1.37578
1.34541
1.25932
1.12492
1.06201
1.04654
1.05921
1.10037
1.11464
1.10538
1.0709
1.0533
1.0525
1.04816
1.03727
1.02209
0.9956
0.940729
0.344974
0.501221
0.885405
1.30193
1.36229
1.31675
1.36926
1.377
1.34685
1.26469
1.12827
1.06218
1.04459
1.05535
1.09682
1.11334
1.10586
1.07194
1.05307
1.0521
1.0478
1.03693
1.02129
0.994829
0.939299
0.348273
0.494839
0.865464
1.28726
1.36718
1.31256
1.36681
1.37771
1.34842
1.27367
1.13487
1.06343
1.04313
1.05205
1.09326
1.11202
1.10675
1.07392
1.05311
1.05182
1.04749
1.03645
1.0204
0.993842
0.938215
0.352574
0.486745
0.83764
1.26661
1.37343
1.3085
1.36393
1.37716
1.34916
1.28168
1.14195
1.06493
1.0408
1.04699
1.08672
1.10935
1.10695
1.07631
1.05315
1.05122
1.04682
1.03536
1.01875
0.992649
0.93576
0.357807
0.477447
0.801358
1.23613
1.38185
1.30547
1.36098
1.37576
1.34977
1.2913
1.1521
1.06698
1.03821
1.04177
1.0795
1.10602
1.10639
1.07878
1.05294
1.05006
1.04561
1.03367
1.01652
0.990579
0.931972
0.363905
0.467959
0.759835
1.19768
1.39088
1.30216
1.3582
1.37458
1.35055
1.29855
1.16588
1.07035
1.03494
1.03537
1.06878
1.10065
1.10489
1.08122
1.05274
1.04849
1.04367
1.03153
1.01381
0.986919
0.925835
0.370591
0.458636
0.715863
1.15448
1.39783
1.29814
1.35611
1.37185
1.3513
1.30619
1.18358
1.07573
1.03179
1.02813
1.0557
1.09357
1.1024
1.08355
1.05228
1.04533
1.04096
1.0293
1.00957
0.98203
0.919791
0.377536
0.449349
0.6721
1.11381
1.39896
1.29459
1.35175
1.37026
1.35211
1.31248
1.20433
1.0834
1.02986
1.0207
1.04087
1.08428
1.09842
1.08526
1.05178
1.04272
1.03716
1.02486
1.00477
0.976349
0.903173
0.384094
0.439128
0.627101
1.07454
1.39494
1.29529
1.34199
1.36972
1.35196
1.31707
1.22759
1.09386
1.02897
1.01305
1.02737
1.07208
1.0922
1.0858
1.05298
1.03801
1.03076
1.01807
0.996403
0.963041
0.883123
0.389297
0.427872
0.5832
1.02589
1.38186
1.29693
1.33028
1.36882
1.35025
1.32122
1.25223
1.10818
1.03051
1.00585
1.01307
1.05583
1.08404
1.08433
1.05604
1.03315
1.02448
1.01214
0.987702
0.95295
0.828201
0.391895
0.415481
0.541424
0.961055
1.34916
1.29513
1.31954
1.36645
1.34854
1.32681
1.27396
1.12921
1.03511
1.00049
1.00108
1.03638
1.07365
1.08098
1.06047
1.0308
1.01776
1.00226
0.976978
0.94408
0.833643
0.390214
0.4024
0.501589
0.873504
1.29073
1.29539
1.31709
1.36108
1.34886
1.33315
1.28954
1.15691
1.0441
0.998186
0.990742
1.01794
1.06083
1.07537
1.06266
1.02915
1.00987
0.996099
0.967346
0.940057
0.852144
0.382931
0.390507
0.466099
0.770751
1.19624
1.31321
1.31095
1.35348
1.35077
1.33705
1.2992
1.18755
1.0624
0.995731
0.977171
0.990956
1.03974
1.06566
1.06156
1.03188
1.00282
0.987216
0.962391
0.938792
0.882369
0.37271
0.379278
0.435837
0.675342
1.09198
1.32605
1.29738
1.34354
1.35221
1.33795
1.30421
1.22454
1.08292
0.998571
0.969924
0.97277
1.01454
1.05324
1.0578
1.03733
1.00224
0.982919
0.954106
0.93506
0.901025
0.364007
0.368697
0.410731
0.596865
1.02213
1.32899
1.28559
1.3279
1.35152
1.3379
1.30742
1.25467
1.11701
1.00755
0.963158
0.955262
0.980604
1.03551
1.05079
1.04252
1.00691
0.983255
0.954951
0.929711
0.909678
0.357094
0.359679
0.388698
0.529435
0.948402
1.32753
1.27451
1.30886
1.34748
1.33844
1.31315
1.27518
1.152
1.02702
0.960882
0.944382
0.954818
1.00374
1.03563
1.03798
1.01364
0.984777
0.958628
0.931282
0.912284
0.352215
0.351324
0.36995
0.465892
0.822665
1.27965
1.26217
1.29431
1.33947
1.34009
1.32144
1.28884
1.19544
1.05222
0.96563
0.935122
0.933804
0.96536
1.01617
1.02894
1.02043
0.990388
0.963152
0.935658
0.914155
0.348543
0.343755
0.356597
0.42052
0.672481
1.06569
1.26635
1.2805
1.3232
1.34243
1.32856
1.298
1.23572
1.08908
0.978778
0.92937
0.918246
0.93156
0.985098
1.01444
1.0148
1.0014
0.971163
0.941041
0.917145
0.345447
0.337543
0.346797
0.392253
0.570416
0.945222
1.27393
1.26969
1.30728
1.34149
1.33134
1.30502
1.26175
1.13661
1.0023
0.933459
0.907394
0.907229
0.937357
0.990455
1.00507
1.00017
0.98396
0.953948
0.924196
0.342943
0.33222
0.338726
0.370377
0.499329
0.87009
1.27241
1.25002
1.28923
1.33289
1.33045
1.3123
1.27878
1.18345
1.04037
0.947937
0.903019
0.89388
0.90461
0.956558
0.988833
0.992797
0.984971
0.967712
0.941466
0.340965
0.327934
0.332241
0.352728
0.434753
0.741709
1.21304
1.23078
1.27916
1.31254
1.32745
1.31785
1.29371
1.23266
1.08369
0.969605
0.906991
0.884068
0.883711
0.905997
0.962209
0.980785
0.979789
0.970365
0.952438
0.339372
0.324664
0.327616
0.341079
0.39084
0.586716
0.954644
1.2272
1.26619
1.28701
1.32079
1.3179
1.30516
1.27029
1.13538
0.997887
0.918338
0.880633
0.874267
0.879261
0.914558
0.954893
0.967055
0.965202
0.955776
0.338117
0.322036
0.324121
0.33331
0.365521
0.489601
0.815934
1.23126
1.22984
1.26682
1.30777
1.31641
1.31231
1.29339
1.21438
1.04396
0.937278
0.885138
0.863314
0.863791
0.876321
0.919854
0.947783
0.954199
0.952004
0.337169
0.320023
0.321484
0.327516
0.347483
0.420776
0.686602
1.14662
1.18271
1.25812
1.28648
1.31166
1.31178
1.30523
1.26876
1.11495
0.9728
0.898027
0.864805
0.852418
0.854654
0.87218
0.918782
0.939877
0.943863
0.336499
0.318619
0.319714
0.323691
0.335902
0.377293
0.541001
0.878138
1.17892
1.2309
1.26549
1.29937
1.30891
1.30719
1.29447
1.21327
1.03733
0.923961
0.872339
0.848839
0.844075
0.847065
0.865227
0.910347
0.929633
0.336155
0.31775
0.318581
0.321092
0.328482
0.352486
0.444015
0.725258
1.16685
1.17466
1.23324
1.2802
1.30141
1.30556
1.30326
1.26818
1.12321
0.979591
0.893071
0.854305
0.834798
0.833766
0.837098
0.853631
0.896691
0.336216
0.317343
0.31787
0.319305
0.32375
0.33766
0.385378
0.571504
0.946092
1.14244
1.19694
1.24841
1.28762
1.30112
1.30233
1.29054
1.21902
1.05418
0.932713
0.868666
0.838314
0.820201
0.818893
0.822285
0.836772
0.336607
0.317136
0.317366
0.318349
0.321175
0.32912
0.354435
0.452159
0.732839
1.12826
1.1526
1.2013
1.26087
1.28996
1.29822
1.29398
1.26379
1.14592
0.999641
0.902302
0.849124
0.822257
0.80349
0.800279
0.80317
0.3369
0.317054
0.317219
0.317758
0.319319
0.323769
0.337324
0.384112
0.565836
0.928154
1.11944
1.16264
1.21114
1.26774
1.28829
1.29053
1.27958
1.22372
1.07274
0.948865
0.87401
0.829893
0.804618
0.785127
0.7796
0.336978
0.317132
0.317033
0.317285
0.318145
0.320614
0.327781
0.350846
0.439425
0.705035
1.08733
1.12092
1.16274
1.2212
1.26886
1.28241
1.27843
1.25548
1.17058
1.01209
0.910824
0.847624
0.809749
0.785799
0.765592
0.336993
0.317222
0.316853
0.31699
0.317458
0.318785
0.322583
0.33411
0.3739
0.532966
0.853127
1.08971
1.12772
1.16317
1.22788
1.26538
1.27204
1.26204
1.22239
1.09306
0.961531
0.880069
0.825522
0.790601
0.766681
0.336987
0.317278
0.316747
0.316819
0.317057
0.317739
0.319702
0.325402
0.343569
0.411204
0.639278
1.01599
1.08709
1.12397
1.16617
1.23108
1.25792
1.25684
1.24045
1.17688
1.02625
0.915263
0.852789
0.805812
0.772103
0.336982
0.317314
0.316682
0.316715
0.316825
0.317161
0.318144
0.320986
0.329462
0.35803
0.473775
0.757699
1.04886
1.09074
1.11601
1.16786
1.23064
1.24443
1.23798
1.21079
1.11472
0.972121
0.877784
0.82905
0.787153
0.336984
0.317327
0.316638
0.316651
0.316706
0.316875
0.317352
0.318716
0.32269
0.335083
0.378892
0.550826
0.869567
1.04966
1.08568
1.11141
1.16893
1.22201
1.22808
1.21674
1.17135
1.04116
0.923119
0.848262
0.811211
0.336987
0.317317
0.316622
0.316631
0.316653
0.31672
0.31693
0.317554
0.319384
0.324769
0.342236
0.40845
0.625506
0.961229
1.04923
1.0729
1.10659
1.17437
1.21043
1.20996
1.19278
1.12563
0.9803
0.878307
0.822277
0.336986
0.31731
0.316627
0.316613
0.316619
0.316643
0.316729
0.317002
0.317808
0.320176
0.327287
0.351404
0.449536
0.698651
0.994199
1.04417
1.06097
1.10017
1.17848
1.19814
1.19134
1.16055
1.05511
0.927733
0.845053
0.336985
0.31731
0.316628
0.316604
0.316603
0.31661
0.316643
0.316754
0.317092
0.318086
0.321034
0.330184
0.362371
0.495332
0.752694
1.00017
1.03096
1.05265
1.10567
1.17501
1.18474
1.17293
1.11833
0.985076
0.878715
0.336984
0.317311
0.316627
0.316601
0.316598
0.316596
0.316606
0.316645
0.316781
0.317186
0.318374
0.321906
0.333181
0.3737
0.529366
0.804817
0.995791
1.01845
1.0463
1.12019
1.17033
1.16968
1.14671
1.05159
0.923528
0.336984
0.317311
0.316627
0.316602
0.316595
0.316589
0.316591
0.31661
0.316659
0.316818
0.317282
0.318654
0.322721
0.335863
0.384857
0.550387
0.854606
0.983294
1.00751
1.04538
1.13227
1.16054
1.15094
1.09565
0.968047
0.336984
0.317311
0.316627
0.316602
0.316595
0.316587
0.316586
0.316596
0.316621
0.316681
0.316868
0.317407
0.318932
0.323395
0.33791
0.393925
0.563844
0.878544
0.958848
0.993924
1.06279
1.13417
1.14261
1.11089
1.00641
0.336984
0.317311
0.316627
0.316602
0.316595
0.316587
0.316585
0.316593
0.316613
0.316639
0.316738
0.31698
0.317579
0.319203
0.32386
0.338937
0.397635
0.576883
0.850198
0.92684
1.00175
1.08841
1.1188
1.10248
1.02445
0.336984
0.317311
0.316627
0.316602
0.316595
0.316587
0.316584
0.316593
0.316613
0.316631
0.316713
0.316869
0.317169
0.317885
0.319598
0.324187
0.338751
0.393626
0.566006
0.771593
0.93511
1.04312
1.08015
1.06931
1.01477
0.336984
0.317311
0.316627
0.316602
0.316595
0.316587
0.316584
0.316593
0.316613
0.316631
0.316712
0.316871
0.3171
0.31766
0.318395
0.320224
0.324861
0.338077
0.384003
0.519875
0.731668
0.987357
1.03163
1.0168
0.973724
0.336984
0.317311
0.316627
0.316602
0.316595
0.316587
0.316584
0.316593
0.316613
0.316631
0.316711
0.316871
0.317097
0.31766
0.31823
0.319413
0.321964
0.326592
0.338351
0.375184
0.478488
0.719026
0.94053
0.939247
0.909179
0.336984
0.317311
0.316627
0.316602
0.316595
0.316587
0.316584
0.316593
0.316613
0.316631
0.316711
0.316871
0.317097
0.317662
0.318221
0.319379
0.321815
0.324585
0.330933
0.345752
0.376206
0.456426
0.6112
0.73056
0.758765
0.336984
0.317311
0.316627
0.316602
0.316595
0.316587
0.316584
0.316593
0.316613
0.316631
0.316711
0.316871
0.317096
0.317662
0.318221
0.319375
0.321826
0.324483
0.33032
0.343481
0.36146
0.405649
0.484656
0.53267
0.562087
0.336984
0.317311
0.316627
0.316602
0.316595
0.316587
0.316584
0.316593
0.316613
0.316631
0.316711
0.316871
0.317097
0.317662
0.318221
0.319375
0.321827
0.324478
0.330297
0.343427
0.360642
0.402822
0.471872
0.50406
0.525271
0.336984
0.317311
0.316627
0.316602
0.316595
0.316587
0.316584
0.316593
0.316613
0.316631
0.316711
0.316871
0.317096
0.317662
0.318221
0.319375
0.321827
0.324478
0.330294
0.343423
0.360596
0.402712
0.471011
0.501884
0.521623
0.336984
0.317311
0.316627
0.316602
0.316595
0.316587
0.316584
0.316593
0.316613
0.316631
0.316711
0.316871
0.317096
0.317662
0.318221
0.319375
0.321827
0.324478
0.330295
0.343423
0.360599
0.402729
0.470965
0.50178
0.521385
0.389291
0.427891
0.583258
1.02594
1.38183
1.29692
1.33031
1.36882
1.35029
1.32126
1.25219
1.1082
1.03047
1.00569
1.01286
1.05561
1.08393
1.08426
1.05602
1.03314
1.02448
1.0121
0.987642
0.952896
0.828222
0.391895
0.4155
0.541474
0.961123
1.34915
1.29509
1.31956
1.36648
1.34857
1.32684
1.27402
1.12927
1.03503
1.0003
1.00083
1.03607
1.07348
1.08089