/*--------------------------------*- C++ -*----------------------------------*\
| =========                 |                                                 |
| \\      /  F ield         | OpenFOAM: The Open Source CFD Toolbox           |
|  \\    /   O peration     | Version:  4.1                                   |
|   \\  /    A nd           | Web:      www.OpenFOAM.org                      |
|    \\/     M anipulation  |                                                 |
\*---------------------------------------------------------------------------*/
FoamFile
{
    version     2.0;
    format      ascii;
    class       volVectorField;
    location    "0.68";
    object      U;
}
// * * * * * * * * * * * * * * * * * * * * * * * * * * * * * * * * * * * * * //

dimensions      [0 1 -1 0 0 0 0];

internalField   nonuniform List<vector> 
52500
(
(1.81008 -0.00010143 -0.00223005)
(1.59811 0.000766638 -0.00331759)
(0.882867 0.00468424 -0.00611168)
(0.090951 0.0173369 -0.00934768)
(-0.110637 0.0182417 -0.00946944)
(0.418378 0.0153306 -0.00919904)
(0.217142 0.0170282 -0.00963889)
(0.100223 0.0187954 -0.00964781)
(0.181658 0.0198766 -0.00941478)
(0.232578 0.0184506 -0.00880534)
(0.217694 0.0183391 -0.00786343)
(0.221011 0.0173288 -0.00742625)
(0.234311 0.0166315 -0.00731748)
(0.247453 0.0165635 -0.00740634)
(0.260693 0.0170842 -0.00768497)
(0.267651 0.0177131 -0.00777589)
(0.263584 0.0184583 -0.00770818)
(0.247571 0.0190241 -0.00748236)
(0.218647 0.0198074 -0.00738905)
(0.171488 0.020993 -0.00741322)
(0.117567 0.0224249 -0.00741286)
(0.0638475 0.023932 -0.00735987)
(0.034806 0.0256069 -0.00726649)
(0.00343443 0.0272789 -0.00708493)
(0.0155239 0.0279133 -0.00670334)
(1.80878 -0.000302278 -0.00223592)
(1.6008 0.00243854 -0.00330292)
(0.897289 0.0147033 -0.006064)
(0.0959817 0.0541856 -0.00929068)
(-0.116341 0.0519721 -0.00945779)
(0.417908 0.0376814 -0.00917711)
(0.218221 0.0425471 -0.00960671)
(0.0991479 0.0467609 -0.00961889)
(0.17867 0.045297 -0.00938766)
(0.231097 0.0393687 -0.00878538)
(0.217946 0.0391171 -0.00784473)
(0.221816 0.0371432 -0.00740592)
(0.235762 0.0362153 -0.00729342)
(0.249228 0.0365756 -0.00737603)
(0.262651 0.0375367 -0.00765323)
(0.269573 0.0380716 -0.00774915)
(0.265421 0.0390381 -0.00768672)
(0.249364 0.0396804 -0.00746193)
(0.220873 0.0411564 -0.00736281)
(0.174103 0.0438152 -0.00738442)
(0.120072 0.047218 -0.00738162)
(0.0662597 0.0505818 -0.00732673)
(0.0366201 0.054233 -0.00723038)
(0.00424296 0.0568352 -0.00704821)
(0.0157429 0.057607 -0.00666543)
(1.80596 -0.000490596 -0.00224879)
(1.60661 0.0041424 -0.00327222)
(0.929945 0.0248964 -0.00596409)
(0.11038 0.0931679 -0.00919501)
(-0.121295 0.0893742 -0.00945367)
(0.416196 0.0613282 -0.00914887)
(0.224527 0.0717521 -0.00957579)
(0.102206 0.0804164 -0.00959546)
(0.178704 0.0764431 -0.00936775)
(0.232901 0.0665654 -0.00879197)
(0.2219 0.0668555 -0.00784215)
(0.224858 0.0642858 -0.00738653)
(0.23898 0.0632713 -0.00726119)
(0.252169 0.0642382 -0.00733054)
(0.265351 0.0661667 -0.00760872)
(0.272483 0.0674254 -0.00771823)
(0.268792 0.0690954 -0.00766743)
(0.252925 0.0703414 -0.00744591)
(0.225229 0.0729956 -0.00733727)
(0.17927 0.0774993 -0.00735582)
(0.125185 0.0833655 -0.00735135)
(0.0711119 0.0890203 -0.00729497)
(0.0404267 0.0954027 -0.00719421)
(0.00664089 0.100061 -0.00701209)
(0.0165303 0.10106 -0.00662696)
(1.80168 -0.000620101 -0.00226836)
(1.61517 0.00562344 -0.00322709)
(0.980131 0.0337259 -0.00581033)
(0.132305 0.12862 -0.00905875)
(-0.126514 0.127247 -0.00945557)
(0.411954 0.0851493 -0.00909588)
(0.235399 0.0998786 -0.00952836)
(0.107297 0.113592 -0.00956875)
(0.178247 0.10763 -0.00934881)
(0.235428 0.0939245 -0.00882978)
(0.227839 0.0936632 -0.00786425)
(0.229083 0.0897626 -0.00737503)
(0.243214 0.0881134 -0.00723236)
(0.256487 0.089241 -0.00728854)
(0.269706 0.0921866 -0.00756328)
(0.276916 0.0945592 -0.00768627)
(0.273573 0.0969868 -0.00765011)
(0.258103 0.0990388 -0.00743507)
(0.231646 0.102924 -0.00731204)
(0.187034 0.109423 -0.00732639)
(0.133164 0.118068 -0.00731932)
(0.0791767 0.126811 -0.00725973)
(0.0475212 0.136896 -0.00715489)
(0.0113394 0.144713 -0.00697191)
(0.0178436 0.146442 -0.00658923)
(1.79611 -0.000677316 -0.00229379)
(1.626 0.00680293 -0.00316984)
(1.04602 0.0406858 -0.00560205)
(0.159715 0.159228 -0.00888201)
(-0.128422 0.166579 -0.00946397)
(0.403242 0.109673 -0.00904302)
(0.249545 0.126456 -0.00947659)
(0.114519 0.145443 -0.00953307)
(0.177769 0.138625 -0.00932333)
(0.238114 0.122489 -0.00886119)
(0.234573 0.120667 -0.00789308)
(0.233943 0.115436 -0.00736451)
(0.248203 0.113154 -0.00719492)
(0.26149 0.114364 -0.00723159)
(0.274799 0.118182 -0.00749688)
(0.28219 0.121614 -0.00764506)
(0.279392 0.124898 -0.00762774)
(0.264645 0.12798 -0.00742568)
(0.239852 0.133085 -0.00728525)
(0.197276 0.141645 -0.00729267)
(0.144236 0.153067 -0.00728255)
(0.0906917 0.165814 -0.00721731)
(0.0579185 0.179718 -0.00710736)
(0.0185903 0.19147 -0.00692712)
(0.0199528 0.194663 -0.0065389)
(1.78937 -0.000654407 -0.0023246)
(1.63839 0.00763704 -0.00310374)
(1.1255 0.0451075 -0.00533594)
(0.195587 0.180996 -0.00864032)
(-0.124442 0.210287 -0.00948145)
(0.387117 0.135795 -0.0089976)
(0.26625 0.152012 -0.00942406)
(0.124144 0.176318 -0.00949236)
(0.176702 0.169657 -0.00929712)
(0.241031 0.152164 -0.00890011)
(0.242015 0.14774 -0.00794139)
(0.239621 0.141492 -0.00735593)
(0.253828 0.138404 -0.00715255)
(0.267284 0.13938 -0.00717012)
(0.280801 0.144019 -0.0074203)
(0.288438 0.148544 -0.00759698)
(0.286388 0.152805 -0.00759909)
(0.272678 0.157272 -0.00741654)
(0.249917 0.163772 -0.00725531)
(0.209993 0.174499 -0.00725357)
(0.158759 0.189201 -0.00723945)
(0.106222 0.206785 -0.00716784)
(0.0721294 0.225073 -0.00705244)
(0.0293227 0.242079 -0.00687225)
(0.0232791 0.248037 -0.0064754)
(1.78164 -0.000467457 -0.00236048)
(1.6512 0.00833858 -0.00303601)
(1.21035 0.0472109 -0.00503666)
(0.243375 0.190726 -0.00833931)
(-0.111627 0.258415 -0.00950186)
(0.358393 0.163182 -0.0089524)
(0.284537 0.176966 -0.00937338)
(0.136677 0.206093 -0.009456)
(0.17516 0.200996 -0.00927261)
(0.243731 0.18282 -0.00892002)
(0.24984 0.17485 -0.00801018)
(0.246236 0.168041 -0.00735476)
(0.260058 0.163959 -0.00710755)
(0.273825 0.164408 -0.00710383)
(0.287512 0.169512 -0.00732386)
(0.295436 0.175115 -0.00753546)
(0.294531 0.180399 -0.0075633)
(0.282392 0.186647 -0.00740562)
(0.261928 0.194749 -0.00722438)
(0.225568 0.207718 -0.00720981)
(0.177373 0.226537 -0.00718917)
(0.126406 0.249549 -0.00711233)
(0.0912555 0.273548 -0.00699008)
(0.0450515 0.297869 -0.0068012)
(0.0288234 0.30894 -0.00639066)
(1.77328 -7.47078e-05 -0.00239964)
(1.6641 0.00914562 -0.00296939)
(1.29389 0.0481875 -0.00472545)
(0.306822 0.190084 -0.00799064)
(-0.0877301 0.308083 -0.00950957)
(0.313533 0.190907 -0.00890133)
(0.304008 0.202106 -0.00933135)
(0.152741 0.233819 -0.00941139)
(0.173985 0.232541 -0.00924853)
(0.245821 0.214011 -0.00894186)
(0.258014 0.202077 -0.00810281)
(0.254168 0.195142 -0.00736636)
(0.266939 0.189925 -0.00706523)
(0.28102 0.189532 -0.00703486)
(0.294797 0.194494 -0.00721645)
(0.303253 0.20104 -0.00746497)
(0.303961 0.207563 -0.00752128)
(0.293995 0.215761 -0.00739321)
(0.276002 0.225548 -0.00719063)
(0.244221 0.240887 -0.00715373)
(0.200596 0.264068 -0.00713181)
(0.152137 0.293449 -0.00705278)
(0.11717 0.325081 -0.00691272)
(0.0683747 0.360202 -0.00671545)
(0.0382829 0.382588 -0.00629803)
(1.76473 0.000541719 -0.00243977)
(1.67725 0.0101586 -0.00290364)
(1.37102 0.0487753 -0.00442218)
(0.391514 0.183022 -0.00764491)
(-0.0532052 0.356926 -0.00948562)
(0.251544 0.220609 -0.00883974)
(0.324204 0.22656 -0.00927761)
(0.172351 0.259739 -0.00937196)
(0.174566 0.264124 -0.00922493)
(0.246949 0.24509 -0.00895374)
(0.26632 0.230167 -0.00821407)
(0.263475 0.222966 -0.00739301)
(0.274508 0.216348 -0.00703126)
(0.288753 0.214645 -0.00696552)
(0.302439 0.218782 -0.00709829)
(0.311834 0.226367 -0.00738166)
(0.314621 0.234283 -0.00747002)
(0.307361 0.244373 -0.00737631)
(0.2922 0.255805 -0.00715597)
(0.265998 0.273823 -0.00709998)
(0.228804 0.301132 -0.00706449)
(0.184813 0.337517 -0.00697519)
(0.152554 0.379313 -0.00682586)
(0.105258 0.428649 -0.00661494)
(0.0565757 0.47385 -0.0061197)
(1.75677 0.00141627 -0.00247641)
(1.69122 0.0113716 -0.00283206)
(1.44145 0.0488613 -0.00411696)
(0.504275 0.174147 -0.00732357)
(-0.00778535 0.403662 -0.0094322)
(0.175428 0.256109 -0.00880948)
(0.344875 0.248119 -0.009184)
(0.195898 0.284316 -0.00934121)
(0.176937 0.295124 -0.00919582)
(0.246839 0.275595 -0.00895156)
(0.275316 0.260151 -0.00834025)
(0.274103 0.251582 -0.00743858)
(0.282562 0.243077 -0.00700308)
(0.296632 0.239605 -0.00689375)
(0.31052 0.242396 -0.0069873)
(0.32133 0.25093 -0.00727774)
(0.326315 0.260227 -0.00740341)
(0.322337 0.271866 -0.00735233)
(0.310729 0.285162 -0.00713164)
(0.290944 0.305755 -0.00703139)
(0.261765 0.336816 -0.0069786)
(0.225676 0.380117 -0.00687943)
(0.199724 0.43495 -0.00670964)
(0.162944 0.507773 -0.00645428)
(0.0917786 0.615597 -0.00589005)
(1.81009 -0.000101776 1.05782e-08)
(1.59809 0.000769482 -4.69006e-08)
(0.882734 0.00469813 -1.81948e-07)
(0.0908379 0.0174159 -1.97037e-07)
(-0.110733 0.0183697 2.35652e-07)
(0.418357 0.0152904 4.3205e-09)
(0.217021 0.0170973 -1.05333e-07)
(0.100106 0.0189543 1.65482e-07)
(0.181479 0.0199013 2.20633e-07)
(0.232461 0.0183438 9.63044e-08)
(0.217646 0.0182677 9.36044e-08)
(0.221054 0.0172862 1.27916e-07)
(0.234402 0.0166331 5.72149e-08)
(0.247557 0.0165975 2.927e-08)
(0.26078 0.0171175 -4.42604e-08)
(0.267692 0.0177237 3.79692e-08)
(0.263579 0.0184555 2.28365e-08)
(0.247528 0.0190186 9.58327e-08)
(0.218576 0.0198048 8.64691e-08)
(0.171397 0.0209925 4.04446e-08)
(0.117479 0.0224251 -4.53177e-09)
(0.0637588 0.0239319 1.26093e-08)
(0.0347332 0.0256077 7.22781e-08)
(0.0033933 0.0272798 2.3094e-07)
(0.0155104 0.027919 2.34047e-07)
(1.80879 -0.000302647 8.00114e-09)
(1.60079 0.00244019 -4.40657e-08)
(0.897212 0.0147135 -1.80904e-07)
(0.0960475 0.0542269 -2.21294e-07)
(-0.116059 0.0519784 3.16556e-07)
(0.417876 0.0375904 -1.85323e-07)
(0.218444 0.0425401 1.47324e-09)
(0.0995031 0.0467912 1.48513e-07)
(0.179121 0.0451661 1.30897e-07)
(0.231527 0.0392206 8.76032e-08)
(0.218427 0.0390235 1.2675e-07)
(0.222208 0.0370999 1.25822e-07)
(0.236052 0.0362083 6.96196e-08)
(0.249406 0.0365815 3.12406e-08)
(0.262758 0.0375368 -2.60037e-08)
(0.269622 0.0380719 3.17367e-08)
(0.265427 0.0390371 2.7624e-08)
(0.24933 0.0396841 8.21098e-08)
(0.220808 0.0411597 7.39011e-08)
(0.174013 0.0438174 3.20276e-08)
(0.119982 0.04722 -6.24124e-09)
(0.0661694 0.0505826 1.73191e-08)
(0.036545 0.0542356 8.47863e-08)
(0.00419686 0.0568348 2.36315e-07)
(0.0157301 0.0576163 2.4226e-07)
(1.80598 -0.000490459 8.31576e-09)
(1.60659 0.00413835 -4.16014e-08)
(0.929848 0.0248782 -1.70632e-07)
(0.110339 0.0930885 -2.28342e-07)
(-0.121219 0.0892622 4.0453e-07)
(0.416194 0.0613735 -2.23492e-07)
(0.224651 0.0717368 1.10593e-07)
(0.102343 0.0803538 1.72911e-07)
(0.178837 0.0763949 6.93456e-08)
(0.233063 0.0666008 1.29429e-07)
(0.222042 0.0668633 1.84307e-07)
(0.224944 0.0643526 1.4924e-07)
(0.239055 0.0633671 1.12638e-07)
(0.25225 0.0643193 6.75363e-08)
(0.265412 0.0662004 -4.20299e-10)
(0.272503 0.0674391 2.09399e-08)
(0.268773 0.0690979 2.30654e-08)
(0.252878 0.070348 4.68368e-08)
(0.225156 0.0729996 4.84016e-08)
(0.179178 0.0775005 1.8807e-08)
(0.125096 0.0833665 -6.23516e-09)
(0.0710241 0.0890188 2.46564e-08)
(0.0403542 0.0954072 1.01315e-07)
(0.00659748 0.100061 2.42217e-07)
(0.0165197 0.101076 2.54087e-07)
(1.8017 -0.000619994 9.89266e-09)
(1.61514 0.00561945 -4.64747e-08)
(0.979979 0.0337047 -1.81716e-07)
(0.132216 0.128535 -2.51681e-07)
(-0.126524 0.127189 3.59188e-07)
(0.411977 0.0851931 -1.29003e-07)
(0.235401 0.0998721 9.74388e-08)
(0.107322 0.113515 2.1821e-07)
(0.17821 0.107597 -3.49697e-08)
(0.23537 0.0939833 1.56408e-07)
(0.227742 0.0937168 2.00693e-07)
(0.228986 0.0898954 1.49714e-07)
(0.243116 0.0882869 1.1891e-07)
(0.256391 0.0893986 6.19373e-08)
(0.269618 0.0922815 8.47984e-09)
(0.276842 0.0945964 4.32021e-09)
(0.273502 0.0969941 8.83472e-09)
(0.258033 0.0990358 1.2247e-08)
(0.231561 0.10292 2.27371e-08)
(0.186939 0.109421 5.44617e-09)
(0.133075 0.118067 -7.41713e-09)
(0.0790953 0.126811 3.96835e-08)
(0.0474556 0.136904 1.31238e-07)
(0.0113011 0.144718 2.43628e-07)
(0.0178349 0.146463 2.75329e-07)
(1.79613 -0.000677611 1.06902e-08)
(1.62598 0.00680183 -4.90358e-08)
(1.04585 0.0406814 -1.98279e-07)
(0.159653 0.159203 -3.11607e-07)
(-0.128423 0.166561 3.61676e-07)
(0.403252 0.109671 -5.24688e-08)
(0.249485 0.126469 8.49636e-08)
(0.114476 0.145402 3.02903e-07)
(0.177698 0.138593 5.93188e-08)
(0.237974 0.122512 1.2336e-07)
(0.234323 0.120724 2.08885e-07)
(0.233696 0.11554 1.46819e-07)
(0.247945 0.113271 1.36919e-07)
(0.261235 0.114454 1.35208e-07)
(0.274567 0.118222 9.77273e-08)
(0.282011 0.121617 2.92827e-08)
(0.279268 0.124884 -7.90604e-09)
(0.264555 0.127957 -1.17326e-08)
(0.239766 0.133065 -9.75823e-09)
(0.197184 0.141633 -1.84375e-08)
(0.144152 0.153062 -1.03854e-08)
(0.090619 0.165815 5.54824e-08)
(0.0578609 0.179727 1.60334e-07)
(0.0185577 0.191476 2.73576e-07)
(0.0199446 0.194682 2.90189e-07)
(1.7894 -0.000654909 1.12164e-08)
(1.63837 0.00763698 -4.55865e-08)
(1.12534 0.0451115 -1.93911e-07)
(0.19554 0.181008 -3.59527e-07)
(-0.124421 0.210248 4.10804e-07)
(0.387124 0.135786 -6.83833e-08)
(0.266175 0.152036 6.19793e-08)
(0.124071 0.176337 3.31335e-07)
(0.176627 0.169672 1.60255e-07)
(0.240849 0.152188 9.0142e-08)
(0.241766 0.147812 1.63288e-07)
(0.239356 0.141583 5.42961e-08)
(0.253562 0.138462 1.25166e-07)
(0.267031 0.139393 1.44636e-07)
(0.280575 0.143978 1.21517e-07)
(0.288261 0.148485 5.76286e-08)
(0.286255 0.152755 4.72553e-10)
(0.272581 0.157223 -2.1968e-08)
(0.249832 0.163735 -3.62771e-08)
(0.209908 0.174474 -3.08462e-08)
(0.158684 0.189189 -1.24409e-08)
(0.106159 0.206782 6.59852e-08)
(0.0720794 0.225078 1.84984e-07)
(0.0292951 0.242085 2.89671e-07)
(0.0232712 0.248056 2.95693e-07)
(1.78166 -0.000468472 1.22914e-08)
(1.65118 0.00833779 -4.11209e-08)
(1.21019 0.0472149 -1.79653e-07)
(0.24332 0.190747 -3.9705e-07)
(-0.11161 0.258355 4.32953e-07)
(0.358428 0.163191 -7.00337e-08)
(0.284464 0.177005 3.93126e-08)
(0.136601 0.206166 2.97077e-07)
(0.1751 0.201075 2.07292e-07)
(0.243581 0.182871 1.19043e-07)
(0.249591 0.174964 1.25119e-07)
(0.245977 0.168146 8.80615e-08)
(0.259832 0.164008 1.41959e-07)
(0.273632 0.164404 1.54839e-07)
(0.287358 0.169472 1.23382e-07)
(0.295328 0.175052 6.78917e-08)
(0.29444 0.180332 4.68072e-08)
(0.282309 0.186579 -2.7171e-08)
(0.261856 0.194694 -4.58347e-08)
(0.225497 0.207679 -4.60782e-08)
(0.177311 0.226512 -1.50892e-08)
(0.126354 0.249534 6.67848e-08)
(0.0912151 0.273546 1.9841e-07)
(0.0450317 0.297871 2.9726e-07)
(0.0288175 0.308959 2.96229e-07)
(1.7733 -7.62482e-05 1.08338e-08)
(1.66408 0.00914425 -3.77328e-08)
(1.29375 0.0481913 -1.62254e-07)
(0.306742 0.190113 -3.98903e-07)
(-0.0877205 0.308026 4.10253e-07)
(0.313609 0.190932 -6.47151e-08)
(0.303943 0.202158 7.07986e-09)
(0.152679 0.233925 2.48465e-07)
(0.173953 0.232675 2.25046e-07)
(0.245743 0.214089 1.69387e-07)
(0.257816 0.202175 5.75612e-08)
(0.253984 0.195212 1.04895e-07)
(0.266779 0.18995 1.58557e-07)
(0.28088 0.189516 1.56376e-07)
(0.294682 0.19447 1.53199e-07)
(0.303161 0.200999 8.11349e-08)
(0.303881 0.207501 4.51921e-08)
(0.293922 0.215689 -2.48705e-08)
(0.275944 0.225484 -5.04392e-08)
(0.244164 0.240835 -5.33977e-08)
(0.200545 0.264031 -2.48628e-08)
(0.152096 0.293423 6.33627e-08)
(0.117141 0.325068 1.99558e-07)
(0.0683642 0.360196 2.91904e-07)
(0.0382806 0.382602 2.90879e-07)
(1.76475 0.000540045 8.04175e-09)
(1.67723 0.0101575 -3.61474e-08)
(1.3709 0.0487807 -1.51625e-07)
(0.391407 0.183055 -3.33341e-07)
(-0.0531958 0.356887 3.40613e-07)
(0.251656 0.220641 7.66027e-09)
(0.324145 0.226626 -5.37329e-08)
(0.172316 0.25986 2.00292e-07)
(0.17457 0.26429 2.18449e-07)
(0.24694 0.24521 1.61839e-07)
(0.266213 0.23026 -3.13798e-09)
(0.263399 0.223008 8.60644e-08)
(0.27442 0.216342 1.51119e-07)
(0.288652 0.214604 1.66437e-07)
(0.302337 0.218733 1.6337e-07)
(0.311748 0.226315 1.04846e-07)
(0.314545 0.234215 6.88663e-08)
(0.307298 0.244299 -2.46062e-08)
(0.292153 0.255732 -3.366e-08)
(0.265955 0.273759 -5.91746e-08)
(0.228767 0.301083 -3.52439e-08)
(0.184784 0.337482 5.74091e-08)
(0.152536 0.379289 1.8546e-07)
(0.105256 0.428634 2.72395e-07)
(0.056578 0.473857 2.78027e-07)
(1.75678 0.00141455 2.37229e-09)
(1.6912 0.0113709 -3.92683e-08)
(1.44135 0.0488687 -1.52899e-07)
(0.504144 0.174181 -3.04866e-07)
(-0.00777371 0.403643 2.97591e-07)
(0.175572 0.256136 1.03264e-07)
(0.344818 0.248197 -9.77319e-08)
(0.195885 0.284438 1.65993e-07)
(0.17698 0.295296 1.90227e-07)
(0.246881 0.275741 1.938e-07)
(0.275291 0.260256 9.1619e-09)
(0.27411 0.251624 1.03095e-07)
(0.282534 0.243057 1.4741e-07)
(0.296567 0.239548 1.62499e-07)
(0.310439 0.242325 1.50837e-07)
(0.321263 0.250856 1.02868e-07)
(0.326258 0.260146 7.19355e-08)
(0.322292 0.271785 1.27749e-08)
(0.310695 0.285081 -1.99176e-08)
(0.290914 0.305682 -4.10196e-08)
(0.261742 0.336757 -2.81014e-08)
(0.225662 0.380073 4.6413e-08)
(0.199716 0.434918 1.63964e-07)
(0.162949 0.507748 2.50739e-07)
(0.0917853 0.6156 2.72027e-07)
(1.81009 -0.00010158 -9.02102e-09)
(1.5981 0.0007673 6.25092e-09)
(0.882792 0.00468792 3.47653e-08)
(0.0909189 0.0173569 5.75063e-08)
(-0.110639 0.0182724 1.56545e-07)
(0.418363 0.0153223 -3.87776e-08)
(0.217085 0.017054 1.48378e-07)
(0.100163 0.0188618 -2.41724e-07)
(0.181543 0.0199121 1.30636e-07)
(0.232435 0.0184319 2.52236e-08)
(0.217512 0.0183188 -6.33909e-10)
(0.220878 0.0172921 1.60648e-07)
(0.234211 0.016589 1.48676e-07)
(0.247384 0.0165267 1.35226e-07)
(0.260638 0.017058 -2.17964e-08)
(0.267597 0.0176927 -4.79583e-08)
(0.263526 0.0184424 -2.15414e-07)
(0.247516 0.0190111 -2.52936e-07)
(0.218579 0.0197988 -2.99663e-07)
(0.171409 0.0209885 -2.99328e-07)
(0.117489 0.0224229 -2.36458e-07)
(0.0637667 0.023931 -7.05932e-08)
(0.0347547 0.0256075 1.28908e-07)
(0.00340894 0.0272797 2.97608e-07)
(0.0155159 0.0279198 3.12405e-07)
(1.80879 -0.000302505 -3.47492e-09)
(1.60079 0.00243907 8.81932e-10)
(0.897227 0.0147073 4.67365e-08)
(0.0959909 0.0542014 1.22093e-07)
(-0.116252 0.0519795 7.2249e-09)
(0.417896 0.0376653 4.28994e-07)
(0.218267 0.0425679 -9.28155e-09)
(0.0992267 0.0468319 -1.7175e-07)
(0.17875 0.0453227 7.20301e-08)
(0.231139 0.0393312 3.50703e-08)
(0.217961 0.0390936 -6.9194e-09)
(0.221827 0.0371103 1.57829e-07)
(0.235767 0.0361839 1.29772e-07)
(0.249235 0.0365531 1.23125e-07)
(0.262652 0.0375185 -2.76711e-08)
(0.269554 0.0380512 -4.74994e-08)
(0.265384 0.0390204 -1.8338e-07)
(0.249318 0.0396624 -2.32695e-07)
(0.22081 0.0411428 -2.89388e-07)
(0.174026 0.0438067 -2.96826e-07)
(0.119993 0.0472137 -2.37378e-07)
(0.0661781 0.0505794 -7.12251e-08)
(0.0365668 0.0542343 1.27561e-07)
(0.00421324 0.0568338 2.93587e-07)
(0.0157364 0.0576169 3.12565e-07)
(1.80597 -0.000490661 -7.54516e-09)
(1.6066 0.00414154 2.04553e-09)
(0.929882 0.0248932 4.17723e-08)
(0.110371 0.0931517 1.38412e-07)
(-0.121239 0.0893458 -1.68923e-07)
(0.416196 0.0613466 4.054e-07)
(0.224583 0.0717709 -3.98827e-08)
(0.102277 0.0804705 -1.59334e-07)
(0.178767 0.0764973 -4.37933e-08)
(0.232974 0.0665698 -1.73369e-08)
(0.221963 0.0668435 1.47771e-08)
(0.2249 0.0642637 6.48449e-08)
(0.239006 0.0632462 5.97125e-08)
(0.252184 0.0642096 4.14638e-08)
(0.265356 0.0661324 -4.07744e-08)
(0.272472 0.0673905 -4.08118e-08)
(0.268764 0.069068 -1.53366e-07)
(0.252885 0.0703168 -2.20459e-07)
(0.225172 0.0729765 -2.85756e-07)
(0.179199 0.0774865 -2.97025e-07)
(0.125112 0.0833583 -2.38658e-07)
(0.071036 0.0890159 -7.12143e-08)
(0.040377 0.0954053 1.26118e-07)
(0.00661471 0.10006 2.90482e-07)
(0.0165268 0.101077 3.15003e-07)
(1.80169 -0.000620131 -1.17692e-08)
(1.61515 0.00562236 2.36264e-08)
(0.980053 0.0337208 1.02319e-07)
(0.132276 0.128597 1.8743e-07)
(-0.126487 0.127221 4.85037e-08)
(0.41197 0.0851684 3.42762e-08)
(0.235447 0.0998915 1.83271e-07)
(0.107365 0.113622 -8.42345e-08)
(0.178292 0.107685 -1.62434e-07)
(0.235484 0.0939548 -1.27154e-08)
(0.227909 0.0936845 7.23655e-08)
(0.229141 0.0897709 1.06813e-08)
(0.24326 0.0881153 -6.58229e-08)
(0.256534 0.0892409 -9.01077e-08)
(0.269741 0.0921804 -5.9327e-08)
(0.276931 0.0945383 -4.51206e-08)
(0.27356 0.0969609 -1.16424e-07)
(0.258069 0.0990094 -2.05249e-07)
(0.231593 0.1029 -2.79477e-07)
(0.186969 0.109408 -2.95211e-07)
(0.133097 0.11806 -2.41019e-07)
(0.0791103 0.126808 -7.20985e-08)
(0.0474783 0.136901 1.25508e-07)
(0.0113199 0.144716 2.79227e-07)
(0.0178431 0.146463 3.20197e-07)
(1.79612 -0.000677472 -1.26885e-08)
(1.62599 0.00680253 3.76169e-08)
(1.04594 0.0406848 1.72331e-07)
(0.159689 0.15922 3.34297e-07)
(-0.128399 0.166563 -5.5807e-08)
(0.403262 0.109679 -1.11077e-07)
(0.249582 0.126466 2.91356e-07)
(0.114583 0.145455 1.40179e-09)
(0.177819 0.138667 -3.77791e-07)
(0.238182 0.122526 4.48473e-08)
(0.234626 0.120685 1.0089e-07)
(0.233975 0.115447 -2.87303e-08)
(0.248214 0.113172 -1.1025e-07)
(0.261478 0.114383 -1.36396e-07)
(0.274773 0.118191 -7.89012e-08)
(0.282162 0.121602 -5.6991e-08)
(0.279364 0.124872 -1.13372e-07)
(0.264613 0.127946 -1.86e-07)
(0.239809 0.133056 -2.64842e-07)
(0.197221 0.141627 -2.91409e-07)
(0.144178 0.153058 -2.44368e-07)
(0.0906357 0.165812 -7.6166e-08)
(0.0578839 0.179726 1.279e-07)
(0.0185778 0.191475 2.86555e-07)
(0.0199532 0.194683 3.12264e-07)
(1.78939 -0.000654635 -1.31094e-08)
(1.63838 0.00763684 3.7302e-08)
(1.12542 0.0451085 1.83467e-07)
(0.195565 0.180998 4.05067e-07)
(-0.124417 0.210263 -2.24342e-07)
(0.387138 0.135795 -2.57175e-08)
(0.266277 0.15202 2.57884e-07)
(0.1242 0.176321 1.19622e-07)
(0.176743 0.169692 -3.51352e-07)
(0.241061 0.152212 5.89897e-09)
(0.242096 0.147775 1.13908e-07)
(0.239669 0.141528 -9.22023e-08)
(0.253836 0.138426 -1.66744e-07)
(0.267257 0.139381 -1.77852e-07)
(0.280763 0.143998 -1.05457e-07)
(0.288403 0.148512 -6.56343e-08)
(0.286357 0.152771 -1.19468e-07)
(0.272647 0.157236 -1.70639e-07)
(0.249881 0.163743 -2.55094e-07)
(0.209948 0.174478 -2.8655e-07)
(0.158711 0.18919 -2.50013e-07)
(0.106177 0.206781 -8.34489e-08)
(0.0721029 0.225079 1.284e-07)
(0.0293162 0.242086 2.86393e-07)
(0.0232802 0.248058 3.02829e-07)
(1.78165 -0.00046796 -1.37593e-08)
(1.65119 0.00833792 3.57152e-08)
(1.21027 0.0472116 1.78969e-07)
(0.243349 0.190732 4.66242e-07)
(-0.111609 0.25838 -2.83219e-07)
(0.358426 0.163183 4.35373e-09)
(0.284549 0.176972 1.78726e-07)
(0.136721 0.206093 2.16426e-07)
(0.175194 0.201023 -1.90797e-07)
(0.243748 0.182861 -1.77927e-08)
(0.249859 0.174931 8.25313e-08)
(0.24623 0.168127 -1.53167e-07)
(0.260045 0.164008 -2.05524e-07)
(0.273805 0.164423 -1.92621e-07)
(0.287497 0.169496 -1.04159e-07)
(0.295425 0.175081 -5.49549e-08)
(0.294514 0.180359 -1.48122e-07)
(0.282366 0.186609 -1.57175e-07)
(0.261897 0.194717 -2.47565e-07)
(0.225531 0.207694 -2.80355e-07)
(0.177335 0.226521 -2.45433e-07)
(0.126371 0.24954 -8.91558e-08)
(0.0912382 0.273551 1.24787e-07)
(0.0450527 0.297874 2.81282e-07)
(0.0288265 0.308962 2.91386e-07)
(1.77329 -7.55401e-05 -1.22281e-08)
(1.66409 0.00914457 3.51733e-08)
(1.29381 0.0481881 1.74217e-07)
(0.306785 0.190094 5.13591e-07)
(-0.0877183 0.308047 -2.46261e-07)
(0.313582 0.190909 9.92234e-09)
(0.304006 0.202112 1.16198e-07)
(0.152773 0.233823 1.87706e-07)
(0.174015 0.232567 -6.08935e-08)
(0.245842 0.214035 4.40852e-09)
(0.257982 0.202132 5.51818e-08)
(0.254136 0.195215 -1.64908e-07)
(0.266916 0.189977 -2.11065e-07)
(0.281002 0.189557 -1.57162e-07)
(0.294785 0.194496 -1.17091e-07)
(0.303245 0.201023 -7.07738e-08)
(0.303951 0.207532 -1.46751e-07)
(0.293975 0.215725 -1.562e-07)
(0.275978 0.225517 -2.40802e-07)
(0.244191 0.240862 -2.72312e-07)
(0.200565 0.26405 -2.34592e-07)
(0.152112 0.293437 -8.85372e-08)
(0.117161 0.325078 1.147e-07)
(0.0683836 0.3602 2.6601e-07)
(0.0382895 0.382606 2.75832e-07)
(1.76474 0.000540733 -9.76009e-09)
(1.67724 0.0101576 3.51981e-08)
(1.37095 0.0487769 1.72293e-07)
(0.391463 0.183035 4.77243e-07)
(-0.0531947 0.356897 -1.36779e-07)
(0.251608 0.220611 -7.23859e-08)
(0.32419 0.226571 1.05625e-07)
(0.172376 0.259755 1.13907e-07)
(0.174594 0.264159 9.69139e-09)
(0.246971 0.245124 3.16173e-08)
(0.266286 0.230209 6.33836e-09)
(0.263462 0.223018 -1.39648e-07)
(0.274494 0.216386 -1.77686e-07)
(0.288735 0.214663 -1.50569e-07)
(0.30242 0.218781 -1.30218e-07)
(0.311816 0.226354 -5.99986e-08)
(0.314601 0.234258 -1.36476e-07)
(0.307337 0.244343 -1.46606e-07)
(0.292177 0.255775 -2.52649e-07)
(0.265974 0.273796 -2.65716e-07)
(0.22878 0.301112 -2.25747e-07)
(0.184796 0.337502 -9.0143e-08)
(0.15255 0.379303 9.83635e-08)
(0.105272 0.428639 2.41119e-07)
(0.0565862 0.473861 2.54655e-07)
(1.75678 0.00141518 -5.0677e-09)
(1.69121 0.0113708 3.87383e-08)
(1.44139 0.048864 1.79064e-07)
(0.504212 0.174162 4.5995e-07)
(-0.00777338 0.403643 -5.03202e-08)
(0.175508 0.256108 -1.71366e-07)
(0.344853 0.248137 1.09589e-07)
(0.19592 0.284342 5.7667e-08)
(0.176976 0.295166 3.18681e-08)
(0.246869 0.275648 2.03715e-08)
(0.275297 0.260203 -3.83926e-08)
(0.27411 0.251627 -9.21929e-08)
(0.282558 0.243104 -1.50202e-07)
(0.296617 0.239612 -1.36802e-07)
(0.310501 0.242385 -1.23656e-07)
(0.32131 0.250906 -7.80682e-08)
(0.326295 0.260196 -1.28465e-07)
(0.322316 0.271837 -1.59588e-07)
(0.310709 0.285133 -2.32618e-07)
(0.290924 0.305729 -2.55063e-07)
(0.261747 0.336795 -2.18213e-07)
(0.225665 0.3801 -9.62034e-08)
(0.199723 0.434935 7.36562e-08)
(0.16296 0.507754 2.08061e-07)
(0.0917921 0.615602 2.38088e-07)
(1.81009 -0.000101611 -7.50375e-09)
(1.59809 0.000767536 8.88347e-08)
(0.882765 0.00468922 3.54398e-07)
(0.0909041 0.0173632 5.29728e-07)
(-0.110642 0.0182806 -4.02345e-07)
(0.418363 0.0153216 5.66573e-08)
(0.217073 0.0170594 1.46228e-07)
(0.100155 0.0188727 6.7062e-08)
(0.181529 0.019914 6.1282e-08)
(0.232421 0.0184281 2.3189e-08)
(0.2175 0.018322 1.29728e-08)
(0.220876 0.0173011 3.5658e-08)
(0.234209 0.0166021 6.31698e-08)
(0.24738 0.0165407 6.38628e-08)
(0.260628 0.0170669 2.79263e-08)
(0.267578 0.0176963 -3.7917e-08)
(0.263496 0.0184417 -9.85177e-08)
(0.247476 0.0190093 -1.42898e-07)
(0.218529 0.0197973 -1.3729e-07)
(0.171352 0.0209879 -8.34533e-08)
(0.117436 0.0224231 -1.22481e-08)
(0.063719 0.0239317 6.68501e-08)
(0.0347289 0.0256091 1.26775e-07)
(0.00339918 0.0272806 1.37863e-07)
(0.0155102 0.0279214 1.09081e-07)
(1.80879 -0.000302555 -7.52188e-09)
(1.60079 0.00243946 8.89162e-08)
(0.897205 0.0147096 3.53093e-07)
(0.0959864 0.0542096 5.4178e-07)
(-0.116237 0.0519833 -4.1177e-07)
(0.417895 0.0376615 4.21067e-08)
(0.218273 0.0425688 1.45344e-07)
(0.0992428 0.0468353 3.71666e-08)
(0.17877 0.0453064 3.21268e-08)
(0.231158 0.0393098 2.25346e-08)
(0.21798 0.0390801 1.59207e-08)
(0.221844 0.0371016 3.02495e-08)
(0.235776 0.0361792 6.1046e-08)
(0.249233 0.0365483 6.9548e-08)
(0.262641 0.0375147 4.03051e-08)
(0.269534 0.0380474 -2.19061e-08)
(0.265353 0.0390176 -8.69887e-08)
(0.249279 0.039661 -1.31614e-07)
(0.220762 0.0411413 -1.34139e-07)
(0.17397 0.043806 -8.85083e-08)
(0.119941 0.0472147 -2.0378e-08)
(0.0661316 0.0505816 6.21415e-08)
(0.036541 0.054238 1.26203e-07)
(0.00420349 0.0568363 1.39382e-07)
(0.0157315 0.0576215 1.16947e-07)
(1.80597 -0.000490681 -7.11099e-09)
(1.60659 0.00414193 8.91084e-08)
(0.929863 0.0248955 3.58882e-07)
(0.110362 0.0931594 5.91484e-07)
(-0.121236 0.089349 -4.36393e-07)
(0.416198 0.0613503 4.51279e-08)
(0.224589 0.0717743 1.42986e-07)
(0.102288 0.0804712 1.07007e-08)
(0.178788 0.0764849 2.04131e-08)
(0.233005 0.0665579 2.94238e-08)
(0.221993 0.0668376 1.34083e-08)
(0.224925 0.0642755 8.3494e-09)
(0.239022 0.0632697 2.36914e-08)
(0.252197 0.0642376 3.80377e-08)
(0.265357 0.0661539 4.16616e-08)
(0.272457 0.0673973 -7.82755e-09)
(0.268736 0.0690673 -6.78048e-08)
(0.252846 0.070313 -1.09983e-07)
(0.225123 0.0729727 -1.23794e-07)
(0.179144 0.0774845 -9.23964e-08)
(0.125061 0.0833593 -2.65665e-08)
(0.0709908 0.0890184 5.81425e-08)
(0.0403514 0.0954113 1.24946e-07)
(0.00660552 0.100064 1.42565e-07)
(0.0165232 0.101085 1.26352e-07)
(1.80169 -0.000620144 -7.19638e-09)
(1.61515 0.00562279 8.94798e-08)
(0.980039 0.0337232 3.67045e-07)
(0.132272 0.128606 6.6547e-07)
(-0.12648 0.127226 -4.30453e-07)
(0.41197 0.0851733 6.35039e-09)
(0.235447 0.0998922 1.25992e-07)
(0.10737 0.113614 -2.23314e-08)
(0.1783 0.107673 -1.38471e-08)
(0.235499 0.0939633 5.67775e-09)
(0.227916 0.0936963 3.05255e-09)
(0.229127 0.0898062 -1.65647e-08)
(0.243222 0.0881606 -1.06418e-08)
(0.256468 0.0892801 3.1877e-08)
(0.269676 0.0922028 4.78001e-08)
(0.276875 0.0945442 9.80239e-09)
(0.273514 0.0969586 -4.2867e-08)
(0.258026 0.0990031 -8.44487e-08)
(0.231546 0.102896 -1.11141e-07)
(0.186917 0.109406 -9.50974e-08)
(0.133048 0.118061 -3.60841e-08)
(0.0790679 0.126812 5.23699e-08)
(0.0474544 0.136911 1.23889e-07)
(0.0113117 0.144725 1.48567e-07)
(0.0178413 0.146474 1.42309e-07)
(1.79612 -0.000677503 -6.68924e-09)
(1.62599 0.00680298 8.86128e-08)
(1.04593 0.0406876 3.79578e-07)
(0.159686 0.15923 7.80035e-07)
(-0.128397 0.166569 -4.12636e-07)
(0.40326 0.109684 -4.84625e-08)
(0.249572 0.126466 7.07113e-08)
(0.114569 0.145443 -5.31231e-08)
(0.177802 0.13866 8.91979e-09)
(0.238139 0.122547 7.91287e-09)
(0.234548 0.120719 -6.59637e-08)
(0.233886 0.115487 -4.16363e-08)
(0.248113 0.113197 -1.77972e-08)
(0.261376 0.114383 -1.06268e-08)
(0.274683 0.118172 5.68801e-09)
(0.28209 0.121584 8.20944e-09)
(0.279309 0.124859 -2.19192e-08)
(0.264566 0.127937 -6.56834e-08)
(0.239762 0.13305 -9.85177e-08)
(0.197171 0.141625 -9.84709e-08)
(0.144132 0.15306 -5.02021e-08)
(0.0905975 0.165819 4.37435e-08)
(0.0578621 0.179737 1.17795e-07)
(0.0185705 0.191487 1.5497e-07)
(0.0199524 0.194696 1.49708e-07)
(1.78939 -0.000654681 -6.93875e-09)
(1.63838 0.00763744 7.95135e-08)
(1.12542 0.0451122 3.64091e-07)
(0.195567 0.181013 8.73141e-07)
(-0.124417 0.210275 -3.96741e-07)
(0.387133 0.135802 -5.99508e-08)
(0.266257 0.152027 3.16398e-08)
(0.12417 0.176324 -5.29169e-08)
(0.176708 0.169697 6.88331e-09)
(0.240985 0.15223 1.05651e-08)
(0.241973 0.14781 -1.00244e-07)
(0.239548 0.141558 2.75655e-08)
(0.25374 0.13843 -2.98166e-08)
(0.267189 0.139363 -3.42282e-08)
(0.28071 0.143958 -4.24348e-08)