/*--------------------------------*- C++ -*----------------------------------*\
| =========                 |                                                 |
| \\      /  F ield         | OpenFOAM: The Open Source CFD Toolbox           |
|  \\    /   O peration     | Version:  4.1                                   |
|   \\  /    A nd           | Web:      www.OpenFOAM.org                      |
|    \\/     M anipulation  |                                                 |
\*---------------------------------------------------------------------------*/
FoamFile
{
    version     2.0;
    format      ascii;
    class       volScalarField;
    location    "0.42";
    object      Ma;
}
// * * * * * * * * * * * * * * * * * * * * * * * * * * * * * * * * * * * * * //

dimensions      [0 0 0 0 0 0 0];

internalField   nonuniform List<scalar> 
18000
(
5.56271e-12
5.49914e-12
5.4252e-12
5.36303e-12
5.3016e-12
5.24099e-12
5.18112e-12
5.12224e-12
5.06425e-12
5.0078e-12
6.9796e-12
6.73049e-12
6.48132e-12
6.25195e-12
6.03241e-12
5.82226e-12
5.62082e-12
5.42799e-12
5.24289e-12
5.06805e-12
8.86826e-12
8.32018e-12
7.80246e-12
7.32991e-12
6.89164e-12
6.485e-12
6.10773e-12
5.75679e-12
5.43028e-12
5.12933e-12
1.14236e-11
1.03953e-11
9.46949e-12
8.64433e-12
7.90593e-12
7.24337e-12
6.64741e-12
6.11044e-12
5.62577e-12
5.19173e-12
1.49378e-11
1.31392e-11
1.15916e-11
1.02588e-11
9.10918e-12
8.11303e-12
7.24692e-12
6.49154e-12
5.83015e-12
5.25547e-12
1.9858e-11
1.68191e-11
1.43228e-11
1.22568e-11
1.05437e-11
9.11394e-12
7.91422e-12
6.90225e-12
6.0438e-12
5.31996e-12
2.688e-11
2.18322e-11
1.7877e-11
1.475e-11
1.22641e-11
1.02701e-11
8.65819e-12
7.34513e-12
6.26747e-12
5.38564e-12
3.71312e-11
2.87723e-11
2.25649e-11
1.78969e-11
1.43526e-11
1.16288e-11
9.51171e-12
7.84942e-12
6.5308e-12
5.48664e-12
3.00952e-09
2.94074e-09
2.75772e-09
2.59447e-09
2.44865e-09
2.31775e-09
2.1997e-09
2.09276e-09
1.99556e-09
1.93133e-09
3.21302e-07
3.98915e-08
3.39184e-08
2.93231e-08
2.5506e-08
2.23079e-08
1.96088e-08
1.73167e-08
1.5306e-08
5.29591e-08
5.77272e-12
5.70403e-12
5.62853e-12
5.56185e-12
5.49639e-12
5.43224e-12
5.36843e-12
5.30619e-12
5.24485e-12
5.18488e-12
7.27865e-12
7.01034e-12
6.75205e-12
6.5066e-12
6.27256e-12
6.04869e-12
5.83495e-12
5.63054e-12
5.43513e-12
5.24908e-12
9.2892e-12
8.69947e-12
8.15991e-12
7.65385e-12
7.18632e-12
6.75358e-12
6.35295e-12
5.9811e-12
5.63582e-12
5.31529e-12
1.20311e-11
1.09244e-11
9.95019e-12
9.06349e-12
8.27274e-12
7.56543e-12
6.93131e-12
6.36169e-12
5.8479e-12
5.38302e-12
1.58357e-11
1.38946e-11
1.22486e-11
1.0808e-11
9.57084e-12
8.50329e-12
7.5783e-12
6.77429e-12
6.07207e-12
5.45329e-12
2.12202e-11
1.79195e-11
1.52339e-11
1.29843e-11
1.11301e-11
9.59014e-12
8.30387e-12
7.22325e-12
6.30952e-12
5.52563e-12
2.90015e-11
2.34713e-11
1.9159e-11
1.57242e-11
1.30148e-11
1.08551e-11
9.11872e-12
7.71151e-12
6.56008e-12
5.60044e-12
4.05388e-11
3.12673e-11
2.43919e-11
1.92082e-11
1.53092e-11
1.23346e-11
1.00381e-11
8.24416e-12
6.82642e-12
5.67832e-12
8.19339e-11
1.4836e-10
1.20279e-10
9.85048e-11
8.1696e-11
6.85127e-11
5.80304e-11
4.9593e-11
4.27285e-11
3.71809e-11
2.09104e-07
3.31921e-08
2.88101e-08
2.51928e-08
2.22113e-08
1.97268e-08
1.76361e-08
1.5861e-08
1.43437e-08
1.33987e-08
4.41849e-13
4.1855e-13
2.6872e-13
2.52177e-13
2.3702e-13
2.23491e-13
2.11683e-13
2.01732e-13
1.93282e-13
1.83189e-13
6.11342e-13
5.40486e-13
4.70576e-13
4.20823e-13
3.75954e-13
3.36017e-13
3.00991e-13
2.71274e-13
2.46991e-13
2.00117e-13
7.32241e-13
6.23603e-13
6.32406e-13
5.57814e-13
4.92246e-13
4.35982e-13
3.88605e-13
3.49113e-13
3.15552e-13
2.23931e-13
9.54704e-13
8.32512e-13
8.9608e-13
7.76406e-13
6.74273e-13
5.88823e-13
5.17579e-13
4.58756e-13
4.08285e-13
2.5936e-13
1.32401e-12
1.21424e-12
1.28059e-12
1.08338e-12
9.20063e-13
7.87249e-13
6.78735e-13
5.9008e-13
5.14623e-13
3.02224e-13
1.93435e-12
1.85045e-12
1.83606e-12
1.50707e-12
1.24513e-12
1.0385e-12
8.74175e-13
7.42755e-13
6.33271e-13
3.51393e-13
2.94371e-12
2.86893e-12
2.64054e-12
2.0901e-12
1.67165e-12
1.35357e-12
1.10834e-12
9.17923e-13
7.63777e-13
4.05446e-13
4.65966e-12
4.48869e-12
3.81369e-12
2.89473e-12
2.23108e-12
1.74712e-12
1.38779e-12
1.11759e-12
9.0626e-13
4.63874e-13
1.1925e-10
6.77562e-12
5.41787e-12
3.98041e-12
2.98961e-12
2.29403e-12
1.79312e-12
1.4255e-12
1.14502e-12
6.49133e-13
1.81015e-07
1.64285e-09
1.20002e-09
9.14953e-10
7.0957e-10
5.58659e-10
4.45819e-10
3.60117e-10
2.9415e-10
2.44654e-10
3.86003e-13
3.61365e-13
1.72126e-13
1.5108e-13
1.30726e-13
1.11589e-13
9.37223e-14
7.7382e-14
6.28752e-14
3.67571e-14
5.32851e-13
4.59892e-13
3.86109e-13
3.3573e-13
2.89167e-13
2.47472e-13
2.10686e-13
1.79057e-13
1.52912e-13
7.94162e-14
5.96024e-13
4.88752e-13
5.23727e-13
4.5521e-13
3.9508e-13
3.43955e-13
3.0143e-13
2.67345e-13
2.39158e-13
1.19749e-13
7.28862e-13
6.34174e-13
7.60692e-13
6.57105e-13
5.68489e-13
4.95156e-13
4.34623e-13
3.85304e-13
3.43516e-13
1.71181e-13
9.55938e-13
9.43085e-13
1.10779e-12
9.40891e-13
8.01889e-13
6.88641e-13
5.96219e-13
5.21103e-13
4.5695e-13
2.24879e-13
1.33816e-12
1.48404e-12
1.60989e-12
1.3327e-12
1.10903e-12
9.31581e-13
7.89488e-13
6.75773e-13
5.7991e-13
2.81625e-13
1.97161e-12
2.36075e-12
2.3363e-12
1.87124e-12
1.51134e-12
1.23478e-12
1.01939e-12
8.50905e-13
7.1302e-13
3.41491e-13
3.04534e-12
3.75667e-12
3.39238e-12
2.6132e-12
2.03769e-12
1.61254e-12
1.29271e-12
1.0494e-12
8.57052e-13
4.04541e-13
1.28149e-10
6.25982e-12
4.9322e-12
3.63395e-12
2.72444e-12
2.08102e-12
1.61561e-12
1.27382e-12
1.01253e-12
4.70685e-13
1.79676e-07
5.14162e-10
2.70787e-11
1.7678e-11
1.20716e-11
8.4536e-12
6.05115e-12
4.41659e-12
3.27831e-12
2.31241e-12
3.86087e-13
3.61059e-13
1.72504e-13
1.5136e-13
1.3093e-13
1.11704e-13
9.39853e-14
7.75988e-14
6.29213e-14
3.68437e-14
5.3337e-13
4.60223e-13
3.86923e-13
3.3645e-13
2.89856e-13
2.4791e-13
2.11001e-13
1.7948e-13
1.53252e-13
7.95538e-14
5.97144e-13
4.89896e-13
5.25333e-13
4.56489e-13
3.95966e-13
3.44848e-13
3.02161e-13
2.67784e-13
2.39399e-13
1.19949e-13
7.31215e-13
6.36761e-13
7.63175e-13
6.59233e-13
5.7012e-13
4.9645e-13
4.35715e-13
3.86187e-13
3.44123e-13
1.71267e-13
9.60285e-13
9.47899e-13
1.1122e-12
9.44281e-13
8.04592e-13
6.90951e-13
5.97913e-13
5.22255e-13
4.57897e-13
2.25549e-13
1.34601e-12
1.49248e-12
1.61697e-12
1.33846e-12
1.11349e-12
9.35188e-13
7.92391e-13
6.77982e-13
5.81662e-13
2.82727e-13
1.98549e-12
2.37577e-12
2.34873e-12
1.88083e-12
1.51884e-12
1.24073e-12
1.02406e-12
8.54458e-13
7.15934e-13
3.43466e-13
3.06978e-12
3.78383e-12
3.41365e-12
2.62939e-12
2.05017e-12
1.62213e-12
1.30016e-12
1.05523e-12
8.61516e-13
4.07695e-13
1.30545e-10
6.3508e-12
4.98097e-12
3.66743e-12
2.74807e-12
2.09804e-12
1.62808e-12
1.28317e-12
1.01971e-12
4.75301e-13
1.87167e-07
5.38322e-10
8.7148e-12
5.08229e-12
3.65903e-12
2.6966e-12
2.02628e-12
1.55015e-12
1.19827e-12
5.55476e-13
3.86185e-13
3.60737e-13
1.73079e-13
1.51874e-13
1.31291e-13
1.12026e-13
9.41266e-14
7.78694e-14
6.32124e-14
3.68639e-14
5.3422e-13
4.60715e-13
3.88206e-13
3.37545e-13
2.90801e-13
2.48653e-13
2.11541e-13
1.79821e-13
1.53744e-13
7.99565e-14
5.98999e-13
4.91709e-13
5.2765e-13
4.58412e-13
3.97612e-13
3.46063e-13
3.03107e-13
2.6845e-13
2.39939e-13
1.20408e-13
7.35033e-13
6.40872e-13
7.66976e-13
6.62355e-13
5.72667e-13
4.98342e-13
4.37148e-13
3.87366e-13
3.44874e-13
1.7184e-13
9.67779e-13
9.55492e-13
1.11847e-12
9.49334e-13
8.08562e-13
6.94208e-13
6.00479e-13
5.2427e-13
4.59426e-13
2.26544e-13
1.36024e-12
1.50606e-12
1.62775e-12
1.34679e-12
1.11999e-12
9.40415e-13
7.9654e-13
6.81089e-13
5.84225e-13
2.84507e-13
2.0122e-12
2.3995e-12
2.36717e-12
1.89492e-12
1.52967e-12
1.24924e-12
1.03074e-12
8.5963e-13
7.20023e-13
3.46301e-13
3.12079e-12
3.82656e-12
3.4457e-12
2.65297e-12
2.06785e-12
1.63566e-12
1.31067e-12
1.06336e-12
8.67781e-13
4.1194e-13
1.36358e-10
6.44346e-12
5.03698e-12
3.70706e-12
2.77688e-12
2.11948e-12
1.64415e-12
1.29534e-12
1.02911e-12
4.81749e-13
2.04777e-07
5.72437e-10
8.8474e-12
5.12e-12
3.6886e-12
2.71936e-12
2.04401e-12
1.56404e-12
1.20913e-12
5.62231e-13
3.86192e-13
3.60419e-13
1.73723e-13
1.52505e-13
1.31883e-13
1.12546e-13
9.45561e-14
7.80842e-14
6.33763e-14
3.74161e-14
5.35225e-13
4.61388e-13
3.89804e-13
3.38821e-13
2.91925e-13
2.49699e-13
2.12441e-13
1.80504e-13
1.53974e-13
8.04232e-14
6.01285e-13
4.9389e-13
5.30385e-13
4.60755e-13
3.99524e-13
3.47646e-13
3.04213e-13
2.69322e-13
2.40603e-13
1.20963e-13
7.3969e-13
6.45825e-13
7.71508e-13
6.66098e-13
5.75812e-13
5.00858e-13
4.38978e-13
3.88678e-13
3.46116e-13
1.72781e-13
9.76957e-13
9.64722e-13
1.126e-12
9.55337e-13
8.13365e-13
6.98196e-13
6.03694e-13
5.26738e-13
4.61304e-13
2.2807e-13
1.37778e-12
1.52223e-12
1.64064e-12
1.35699e-12
1.12793e-12
9.46762e-13
8.01695e-13
6.85151e-13
5.87344e-13
2.86904e-13
2.04509e-12
2.42813e-12
2.38918e-12
1.91187e-12
1.54276e-12
1.25962e-12
1.03908e-12
8.66108e-13
7.25077e-13
3.50098e-13
3.18243e-12
3.8777e-12
3.48405e-12
2.68155e-12
2.08937e-12
1.65213e-12
1.32366e-12
1.07347e-12
8.75579e-13
4.17488e-13
1.42364e-10
6.53973e-12
5.10389e-12
3.75515e-12
2.81203e-12
2.14569e-12
1.66414e-12
1.31027e-12
1.04072e-12
4.89784e-13
2.21398e-07
6.01337e-10
8.95841e-12
5.19615e-12
3.74293e-12
2.75877e-12
2.0734e-12
1.58619e-12
1.22571e-12
5.73509e-13
3.86285e-13
3.5958e-13
1.74267e-13
1.52978e-13
1.32529e-13
1.13469e-13
9.6126e-14
8.78089e-14
1.70303e-13
5.26417e-13
5.36109e-13
4.61473e-13
3.91061e-13
3.40055e-13
2.93131e-13
2.51007e-13
2.13961e-13
1.84305e-13
1.82801e-13
3.50438e-13
6.03337e-13
4.95141e-13
5.3256e-13
4.62736e-13
4.01402e-13
3.49576e-13
3.06454e-13
2.72178e-13
2.52077e-13
2.57589e-13
7.44107e-13
6.48981e-13
7.75008e-13
6.69115e-13
5.78476e-13
5.03506e-13
4.42017e-13
3.92077e-13
3.53174e-13
2.41188e-13
9.85519e-13
9.70846e-13
1.1316e-12
9.60152e-13
8.17448e-13
7.01797e-13
6.07681e-13
5.31136e-13
4.67868e-13
2.66876e-13
1.39327e-12
1.53321e-12
1.64993e-12
1.36481e-12
1.13452e-12
9.52669e-13
8.0773e-13
6.91342e-13
5.94621e-13
3.13678e-13
2.07273e-12
2.44787e-12
2.40506e-12
1.92491e-12
1.55347e-12
1.26881e-12
1.04781e-12
8.75052e-13
7.3413e-13
3.71733e-13
3.22179e-12
3.91326e-12
3.51161e-12
2.70351e-12
2.10692e-12
1.66659e-12
1.33657e-12
1.08628e-12
8.87903e-13
4.37427e-13
1.19777e-10
6.48502e-12
5.15065e-12
3.79168e-12
2.84048e-12
2.16851e-12
1.68366e-12
1.32831e-12
1.05701e-12
5.09942e-13
2.04475e-07
4.24808e-10
8.40402e-12
5.2517e-12
3.78681e-12
2.79318e-12
2.10123e-12
1.61056e-12
1.24791e-12
5.95652e-13
3.8925e-13
4.0886e-13
2.19751e-13
1.59068e-13
1.63803e-13
3.61611e-13
7.36707e-13
2.78816e-12
1.12223e-11
3.50656e-11
5.46293e-13
5.49263e-13
4.45519e-13
3.5747e-13
2.93606e-13
3.73665e-13
6.31801e-13
1.8056e-12
6.53785e-12
2.25673e-11
6.2582e-13
6.49218e-13
6.15443e-13
5.00967e-13
4.01541e-13
3.94162e-13
6.37014e-13
1.2909e-12
4.1233e-12
1.44728e-11
7.80013e-13
8.59713e-13
8.78689e-13
7.23437e-13
5.86498e-13
5.09399e-13
6.39475e-13
1.03024e-12
2.80359e-12
9.64755e-12
1.03395e-12
1.21556e-12
1.24835e-12
1.02485e-12
8.33523e-13
6.9419e-13
7.01749e-13
9.36875e-13
2.06877e-12
6.68505e-12
1.44669e-12
1.78773e-12
1.76943e-12
1.43104e-12
1.15253e-12
9.398e-13
8.42616e-13
1.01872e-12
1.692e-12
4.80083e-12
2.11239e-12
2.68962e-12
2.51208e-12
1.9808e-12
1.56493e-12
1.24973e-12
1.04875e-12
1.08317e-12
1.55197e-12
3.56611e-12
3.18405e-12
4.10908e-12
3.58266e-12
2.73212e-12
2.10005e-12
1.63538e-12
1.31598e-12
1.2046e-12
1.50487e-12
2.73875e-12
5.56193e-12
6.24469e-12
5.14938e-12
3.76938e-12
2.7992e-12
2.11538e-12
1.64461e-12
1.38641e-12
1.50092e-12
2.17781e-12
4.30015e-09
5.47508e-10
6.57563e-12
5.13931e-12
3.68996e-12
2.70512e-12
2.03847e-12
1.62377e-12
1.54569e-12
1.80298e-12
2.52831e-12
2.38317e-12
1.52613e-12
1.54705e-13
2.65814e-12
8.57187e-12
2.5442e-11
9.48863e-11
3.85155e-10
7.24538e-10
3.56096e-12
3.44722e-12
2.55678e-12
1.16739e-12
1.32545e-12
6.21859e-12
1.86667e-11
6.14738e-11
2.24668e-10
4.49895e-10
4.82836e-12
4.70901e-12
3.73332e-12
2.32811e-12
2.85494e-13
4.09105e-12
1.34859e-11
4.21147e-11
1.41352e-10
2.94696e-10
6.4881e-12
6.28721e-12
5.13342e-12
3.62132e-12
1.45702e-12
2.27999e-12
9.68426e-12
2.99668e-11
9.41848e-11
2.00314e-10
8.70486e-12
8.2956e-12
6.82943e-12
5.10256e-12
2.86779e-12
7.76675e-13
6.74098e-12
2.17227e-11
6.54136e-11
1.40406e-10
1.17219e-11
1.0895e-11
8.92049e-12
6.82456e-12
4.38734e-12
1.25476e-12
4.36237e-12
1.57132e-11
4.67599e-11
1.01023e-10
1.59151e-11
1.43313e-11
1.15446e-11
8.86416e-12
6.07251e-12
2.78741e-12
2.39425e-12
1.14153e-11
3.40681e-11
7.431e-11
2.18967e-11
1.89597e-11
1.48913e-11
1.13241e-11
7.96724e-12
4.40724e-12
1.12026e-12
8.12362e-12
2.51955e-11
5.5672e-11
1.49773e-10
2.53114e-11
1.92416e-11
1.43371e-11
1.014e-11
6.1333e-12
1.87966e-12
5.51809e-12
1.8828e-11
4.23338e-11
5.21824e-07
1.00231e-09
2.49894e-11
1.80694e-11
1.26567e-11
7.98348e-12
3.3912e-12
3.45381e-12
1.4108e-11
3.25475e-11
3.39228e-12
3.0506e-12
2.01379e-12
1.93973e-12
8.34453e-12
2.89206e-11
1.16313e-10
5.50164e-10
1.39802e-09
1.71588e-09
4.49637e-12
4.18892e-12
3.19721e-12
1.6694e-12
5.21905e-12
1.98993e-11
7.38244e-11
3.12314e-10
8.25493e-10
9.81625e-10
5.83992e-12
5.50841e-12
4.52894e-12
2.79637e-12
2.80946e-12
1.3274e-11
4.88292e-11
1.90895e-10
5.13339e-10
5.96803e-10
7.56106e-12
7.1062e-12
6.03847e-12
4.31898e-12
1.97127e-12
8.41808e-12
3.30814e-11
1.23065e-10
3.31879e-10
3.79478e-10
9.8205e-12
9.09261e-12
7.79901e-12
6.004e-12
3.19079e-12
4.81444e-12
2.24319e-11
8.22493e-11
2.21634e-10
2.50422e-10
1.28602e-11
1.16222e-11
9.90911e-12
7.87878e-12
5.01582e-12
2.5163e-12
1.47963e-11
5.6052e-11
1.52102e-10
1.70514e-10
1.70469e-11
1.49182e-11
1.25023e-11
1.00228e-11
6.99607e-12
2.8204e-12
9.31085e-12
3.86009e-11
1.06411e-10
1.19146e-10
2.29621e-11
1.93093e-11
1.57643e-11
1.25379e-11
9.12789e-12
4.72304e-12
5.24979e-12
2.6594e-11
7.55947e-11
8.48963e-11
1.05882e-10
2.52533e-11
1.99544e-11
1.55614e-11
1.14861e-11
6.88437e-12
2.72194e-12
1.80716e-11
5.42976e-11
6.13498e-11
1.00399e-07
4.94271e-09
2.91443e-11
1.92472e-11
1.41387e-11
9.10996e-12
3.10776e-12
1.18252e-11
3.92101e-11
4.47045e-11
1.01561e-12
1.26869e-12
1.53872e-12
3.23078e-12
8.55351e-12
2.52013e-11
8.80079e-11
2.98863e-10
4.83942e-10
1.31169e-10
1.10044e-12
1.26955e-12
1.40581e-12
2.44775e-12
6.08196e-12
1.7536e-11
5.8284e-11
1.87266e-10
2.86996e-10
7.79328e-11
1.18899e-12
1.31078e-12
1.39783e-12
1.97604e-12
4.35997e-12
1.23072e-11
3.95096e-11
1.21315e-10
1.76706e-10
6.53676e-11
1.28001e-12
1.37954e-12
1.46677e-12
1.78442e-12
3.21455e-12
8.69502e-12
2.72789e-11
8.08899e-11
1.12397e-10
5.38499e-11
1.37577e-12
1.46472e-12
1.57095e-12
1.77125e-12
2.53005e-12
6.18173e-12
1.90829e-11
5.52436e-11
7.34635e-11
4.28789e-11
1.48191e-12
1.56347e-12
1.68866e-12
1.84735e-12
2.20884e-12
4.47606e-12
1.34437e-11
3.85743e-11
4.91604e-11
3.39323e-11
1.60348e-12
1.67504e-12
1.81205e-12
1.96245e-12
2.1305e-12
3.37222e-12
9.51498e-12
2.72113e-11
3.3559e-11
2.70717e-11
1.75735e-12
1.80178e-12
1.9423e-12
2.09006e-12
2.17925e-12
2.74944e-12
6.80966e-12
1.9385e-11
2.31913e-11
2.19102e-11
2.85618e-10
3.51532e-12
2.07903e-12
2.22407e-12
2.28667e-12
2.47675e-12
4.96429e-12
1.39237e-11
1.61263e-11
1.80341e-11
1.72588e-07
4.99372e-09
9.00656e-12
2.35106e-12
2.41012e-12
2.41515e-12
3.74163e-12
1.00587e-11
1.11958e-11
1.49874e-11
7.88917e-13
1.4988e-12
1.60808e-12
2.51937e-12
4.14955e-12
7.12269e-12
1.47375e-11
5.43469e-11
2.55832e-10
7.82123e-10
7.2406e-13
1.34643e-12
1.39396e-12
2.14882e-12
3.48589e-12
5.89943e-12
1.12768e-11
3.3811e-11
1.55158e-10
4.36471e-10
6.61299e-13
1.20376e-12
1.20014e-12
1.82415e-12
2.92263e-12
4.87144e-12
8.8602e-12
2.24076e-11
9.79131e-11
2.59556e-10
6.07825e-13
1.08214e-12
1.0392e-12
1.56097e-12
2.46539e-12
4.0564e-12
7.12658e-12
1.58013e-11
6.40195e-11
1.62311e-10
5.61759e-13
9.77921e-13
9.03813e-13
1.33966e-12
2.09171e-12
3.40805e-12
5.82326e-12
1.17329e-11
4.31032e-11
1.05707e-10
5.22259e-13
8.88939e-13
7.90031e-13
1.15854e-12
1.7906e-12
2.87836e-12
4.82247e-12
9.06317e-12
2.97447e-11
7.11384e-11
4.88163e-13
8.12126e-13
6.93882e-13
1.0065e-12
1.53681e-12
2.44408e-12
4.04385e-12
7.20943e-12
2.09716e-11
4.91892e-11
4.87384e-13
7.45576e-13
6.1304e-13
8.77849e-13
1.32731e-12
2.09135e-12
3.41862e-12
5.86892e-12
1.50679e-11
3.48082e-11
4.5855e-10
8.69976e-12
5.48557e-13
7.69565e-13
1.15317e-12
1.79987e-12
2.90885e-12
4.86071e-12
1.10176e-11
2.5128e-11
1.71382e-07
1.65553e-08
5.51208e-11
7.69821e-13
9.97101e-13
1.5488e-12
2.48094e-12
4.06793e-12
8.17067e-12
1.8442e-11
1.06335e-12
1.85494e-12
1.6217e-12
2.17293e-12
3.02596e-12
4.38714e-12
6.94266e-12
1.34555e-11
5.17132e-11
1.50595e-10
9.90128e-13
1.70079e-12
1.45373e-12
1.93819e-12
2.67596e-12
3.81982e-12
5.80064e-12
1.04091e-11
3.6743e-11
9.33023e-11
9.19107e-13
1.55276e-12
1.29196e-12
1.71328e-12
2.35057e-12
3.3232e-12
4.90141e-12
8.13348e-12
2.61708e-11
6.10428e-11
8.5711e-13
1.4238e-12
1.15333e-12
1.51897e-12
2.07322e-12
2.90625e-12
4.21004e-12
6.57315e-12
1.88242e-11
4.1625e-11
8.03272e-13
1.31132e-12
1.03402e-12
1.35209e-12
1.8378e-12
2.55764e-12
3.6587e-12
5.46942e-12
1.37015e-11
2.92421e-11
7.56233e-13
1.21277e-12
9.30684e-13
1.20879e-12
1.63247e-12
2.25959e-12
3.20911e-12
4.65548e-12
1.00727e-11
2.10363e-11
7.14875e-13
1.12589e-12
8.41235e-13
1.08448e-12
1.45576e-12
2.00644e-12
2.8306e-12
4.02686e-12
7.46867e-12
1.5429e-11
7.1591e-13
1.04923e-12
7.636e-13
9.76302e-13
1.3023e-12
1.78603e-12
2.50569e-12
3.52244e-12
5.58424e-12
1.14921e-11
6.7974e-10
1.54857e-11
7.05966e-13
8.81949e-13
1.169e-12
1.59436e-12
2.22904e-12
3.10347e-12
4.2102e-12
8.6597e-12
2.1073e-07
2.92208e-08
1.35586e-10
1.17433e-12
1.04015e-12
1.4251e-12
1.98455e-12
2.74222e-12
3.18394e-12
6.57565e-12
1.47614e-12
2.34517e-12
1.63304e-12
1.90132e-12
2.28217e-12
2.82787e-12
3.79986e-12
5.93572e-12
1.5501e-11
2.52647e-11
1.39616e-12
2.19456e-12
1.51639e-12
1.769e-12
2.12162e-12
2.60277e-12
3.36326e-12
4.8576e-12
1.20503e-11
1.92386e-11
1.31633e-12
2.04494e-12
1.39364e-12
1.62745e-12
1.95291e-12
2.38399e-12
3.01138e-12
4.08345e-12
9.20858e-12
1.46978e-11
1.24572e-12
1.91116e-12
1.28275e-12
1.49809e-12
1.7986e-12
2.1916e-12
2.7337e-12
3.53982e-12
7.02796e-12
1.13463e-11
1.18323e-12
1.79134e-12
1.18316e-12
1.38056e-12
1.65876e-12
2.01956e-12
2.50417e-12
3.14482e-12
5.3626e-12
8.82221e-12
1.12773e-12
1.6835e-12
1.09391e-12
1.27475e-12
1.5303e-12
1.8638e-12
2.30319e-12
2.84204e-12
4.08843e-12
6.89223e-12
1.07826e-12
1.58659e-12
1.01387e-12
1.17882e-12
1.41339e-12
1.72172e-12
2.12808e-12
2.59516e-12
3.11594e-12
5.39836e-12
1.07526e-12
1.49914e-12
9.41787e-13
1.09198e-12
1.30718e-12
1.59208e-12
1.96873e-12
2.3884e-12
2.37054e-12
4.23913e-12
8.84455e-10
2.27963e-11
8.90935e-13
1.01295e-12
1.21033e-12
1.47331e-12
1.82293e-12
2.2068e-12
1.7979e-12
3.33429e-12
1.71188e-07
4.04718e-08
2.15001e-10
1.53537e-12
1.107e-12
1.36239e-12
1.68407e-12
2.03813e-12
1.34867e-12
2.61365e-12
2.08311e-12
2.97417e-12
1.58981e-12
1.60333e-12
1.66495e-12
1.79882e-12
2.14553e-12
2.9547e-12
6.62869e-12
8.40973e-12
1.99818e-12
2.83663e-12
1.53095e-12
1.56129e-12
1.63142e-12
1.74517e-12
1.98961e-12
2.53242e-12
5.37757e-12
7.00116e-12
1.91289e-12
2.69534e-12
1.45519e-12
1.49845e-12
1.57798e-12
1.68504e-12
1.87091e-12
2.22982e-12
4.25241e-12
5.72895e-12
1.83576e-12
2.56495e-12
1.38122e-12
1.43328e-12
1.52027e-12
1.62752e-12
1.78361e-12
2.02703e-12
3.34572e-12
4.68663e-12
1.7661e-12
2.44473e-12
1.31008e-12
1.36873e-12
1.46135e-12
1.57076e-12
1.71274e-12
1.88938e-12
2.61454e-12
3.83318e-12
1.703e-12
2.33387e-12
1.24302e-12
1.30498e-12
1.40104e-12
1.51398e-12
1.65223e-12
1.78955e-12
2.02488e-12
3.13054e-12
1.64576e-12
2.23194e-12
1.17981e-12
1.24314e-12
1.34065e-12
1.45625e-12
1.59486e-12
1.71221e-12
1.54554e-12
2.55073e-12
1.6345e-12
2.13811e-12
1.12046e-12
1.18408e-12
1.28176e-12
1.39818e-12
1.53748e-12
1.64744e-12
1.15833e-12
2.0706e-12
1.0793e-09
2.93576e-11
1.08122e-12
1.12729e-12
1.22441e-12
1.34096e-12
1.48065e-12
1.58941e-12
8.47027e-13
1.67242e-12
5.35001e-08
4.63313e-08
4.88367e-10
1.00199e-12
1.15188e-12
1.28233e-12
1.42006e-12
1.52885e-12
5.8566e-13
1.33932e-12
2.91597e-12
3.69477e-12
1.41954e-12
1.21418e-12
1.06747e-12
1.0032e-12
1.13601e-12
1.53749e-12
3.3545e-12
3.77735e-12
2.83164e-12
3.58528e-12
1.42021e-12
1.24842e-12
1.1202e-12
1.03657e-12
1.07867e-12
1.32896e-12
2.87534e-12
3.34588e-12
2.74642e-12
3.46833e-12
1.39856e-12
1.25767e-12
1.15127e-12
1.06649e-12
1.0555e-12
1.18386e-12
2.36874e-12
2.8725e-12
2.66767e-12
3.35622e-12
1.36925e-12
1.25469e-12
1.1694e-12
1.09284e-12
1.05614e-12
1.09854e-12
1.93424e-12
2.46144e-12
2.59489e-12
3.2498e-12
1.3363e-12
1.24396e-12
1.17753e-12
1.11312e-12
1.06749e-12
1.05736e-12
1.56164e-12
2.10449e-12
2.52767e-12
3.1488e-12
1.30033e-12
1.22675e-12
1.17737e-12
1.12674e-12
1.08306e-12
1.04329e-12
1.24151e-12
1.79405e-12
2.46569e-12
3.0535e-12
1.26281e-12
1.20508e-12
1.17089e-12
1.13387e-12
1.09769e-12
1.04383e-12
9.67925e-13
1.52426e-12
2.44796e-12
2.96383e-12
1.22492e-12
1.18067e-12
1.15898e-12
1.13467e-12
1.10839e-12
1.05165e-12
7.34226e-13
1.29143e-12
1.29066e-09
3.37555e-11
1.21005e-12
1.15392e-12
1.14337e-12
1.13034e-12
1.11395e-12
1.06154e-12
5.35382e-13
1.09124e-12
8.24457e-08
4.37933e-08
4.71265e-10
1.80351e-12
1.11206e-12
1.11946e-12
1.11287e-12
1.06702e-12
3.6128e-13
9.22941e-13
3.92634e-12
4.40133e-12
1.09692e-12
7.60664e-13
4.95085e-13
3.4957e-13
4.859e-13
7.93457e-13
2.03125e-12
2.05709e-12
3.84866e-12
4.33277e-12
1.14245e-12
8.42652e-13
6.00409e-13
4.20133e-13
4.29875e-13
6.47348e-13
1.86527e-12
1.9437e-12
3.77132e-12
4.25716e-12
1.16542e-12
9.0075e-13
6.8448e-13
4.99608e-13
4.26224e-13
5.37468e-13
1.6234e-12
1.74886e-12
3.69817e-12
4.18043e-12
1.17686e-12
9.43501e-13
7.51159e-13
5.74268e-13
4.5879e-13
4.70932e-13
1.40768e-12
1.5729e-12
3.62892e-12
4.10467e-12
1.17998e-12
9.74243e-13
8.04667e-13
6.40576e-13
5.08663e-13
4.48312e-13
1.21529e-12
1.41374e-12
3.56439e-12
4.03019e-12
1.17635e-12
9.9592e-13
8.47654e-13
6.9854e-13
5.6382e-13
4.5998e-13
1.04547e-12
1.27101e-12
3.50345e-12
3.95742e-12
1.16789e-12
1.01008e-12
8.80718e-13
7.47441e-13
6.1793e-13
4.92516e-13
8.97338e-13
1.14405e-12
3.48361e-12
3.88772e-12
1.15593e-12
1.018e-12
9.06034e-13
7.88181e-13
6.67751e-13
5.35328e-13
7.70153e-13
1.03177e-12
1.48586e-09
3.52165e-11
1.17813e-12
1.02104e-12
9.25533e-13
8.21829e-13
7.11619e-13
5.8137e-13
6.63748e-13
9.34065e-13
2.31523e-07
3.11231e-08
4.27595e-10
2.82993e-12
9.33059e-13
8.47278e-13
7.48917e-13
6.23656e-13
5.78252e-13
8.54427e-13
4.9192e-12
4.95303e-12
7.34899e-13
4.98362e-13
2.72123e-13
1.52342e-13
2.66923e-13
4.64131e-13
1.46278e-12
1.31599e-12
4.85186e-12
4.92938e-12
7.68384e-13
5.36094e-13
3.10964e-13
1.2463e-13
1.63645e-13
3.60114e-13
1.45285e-12
1.33469e-12
4.78713e-12
4.9015e-12
7.92768e-13
5.72475e-13
3.60497e-13
1.62321e-13
7.65057e-14
2.61048e-13
1.34719e-12
1.26041e-12
4.72428e-12
4.86855e-12
8.1242e-13
6.05487e-13
4.10172e-13
2.20347e-13
4.5332e-14
1.69495e-13
1.25116e-12
1.1917e-12
4.66434e-12
4.83274e-12
8.277e-13
6.35727e-13
4.57138e-13
2.80596e-13
1.0827e-13
8.81458e-14
1.16341e-12
1.12822e-12
4.60676e-12
4.79441e-12
8.39145e-13
6.61884e-13
4.99892e-13
3.3712e-13
1.76249e-13
3.75182e-14
1.08374e-12
1.07002e-12
4.552e-12
4.75513e-12
8.47116e-13
6.84246e-13
5.3798e-13
3.89101e-13
2.38987e-13
7.97632e-14
1.01279e-12
1.01704e-12
4.53527e-12
4.7162e-12
8.51556e-13
7.02538e-13
5.71354e-13
4.35449e-13
2.95905e-13
1.41845e-13
9.4963e-13
9.69353e-13
1.63495e-09
3.40652e-11
9.15473e-13
7.17885e-13
6.0034e-13
4.76601e-13
3.47961e-13
2.01374e-13
8.94597e-13
9.26326e-13
3.6686e-07
1.45837e-08
2.68751e-10
2.39327e-12
6.24846e-13
5.13328e-13
3.94906e-13
2.57286e-13
8.47106e-13
8.97277e-13
5.56484e-12
5.23862e-12
5.62836e-13
6.041e-13
5.1044e-13
4.40916e-13
4.00672e-13
4.09758e-13
1.2272e-12
1.00449e-12
5.50466e-12
5.24448e-12
5.01328e-13
5.43772e-13
4.5768e-13
3.93167e-13
3.55106e-13
3.70512e-13
1.29069e-12
1.08055e-12
5.44922e-12
5.24981e-12
4.49436e-13
4.89918e-13
4.1049e-13
3.48557e-13
3.12086e-13
3.2855e-13
1.24886e-12
1.05801e-12
5.3951e-12
5.24894e-12
4.10203e-13
4.44572e-13
3.70159e-13
3.1067e-13
2.73667e-13
2.89962e-13
1.20895e-12
1.0357e-12
5.34244e-12
5.2431e-12
3.827e-13
4.08309e-13
3.38793e-13
2.79983e-13
2.40652e-13
2.54429e-13
1.17102e-12
1.0149e-12
5.29207e-12
5.23397e-12
3.65461e-13
3.79872e-13
3.13807e-13
2.55468e-13
2.13432e-13
2.23409e-13
1.13506e-12
9.94775e-13
5.24341e-12
5.22178e-12
3.555e-13
3.58003e-13
2.9577e-13
2.38195e-13
1.9333e-13
1.95875e-13
1.1008e-12
9.7625e-13
5.23099e-12
5.20856e-12
3.51067e-13
3.41646e-13
2.83359e-13
2.2685e-13
1.78513e-13
1.73726e-13
1.06877e-12
9.57798e-13
1.71486e-09
3.21514e-11
4.82094e-13
3.30134e-13
2.75628e-13
2.21164e-13
1.71447e-13
1.57263e-13
1.03752e-12
9.40379e-13
4.50319e-07
1.1647e-08
1.98264e-10
1.73655e-12
2.69116e-13
2.2324e-13
1.74768e-13
1.53782e-13
1.00914e-12
9.57726e-13
5.57016e-12
5.20938e-12
5.61885e-13
6.29333e-13
5.40103e-13
4.66072e-13
4.12263e-13
4.02279e-13
1.15914e-12
9.58928e-13
5.50985e-12
5.21742e-12
4.82052e-13
5.60047e-13
4.83473e-13
4.18663e-13
3.71738e-13
3.7101e-13
1.23235e-12
1.03876e-12
5.45468e-12
5.22575e-12
4.11965e-13
4.96501e-13
4.30289e-13
3.72988e-13
3.31749e-13
3.34489e-13
1.19834e-12
1.01963e-12
5.40086e-12
5.22748e-12
3.54711e-13
4.40212e-13
3.8279e-13
3.32023e-13
2.95068e-13
3.00967e-13
1.16578e-12
1.00082e-12
5.34888e-12
5.22467e-12
3.10972e-13
3.92959e-13
3.42208e-13
2.95851e-13
2.61943e-13
2.69537e-13
1.13454e-12
9.83309e-13
5.29902e-12
5.21798e-12
2.8001e-13
3.53137e-13
3.07888e-13
2.65177e-13
2.32789e-13
2.40553e-13
1.10477e-12
9.66619e-13
5.25089e-12
5.2083e-12
2.60276e-13
3.20236e-13
2.79363e-13
2.39354e-13
2.07851e-13
2.14553e-13
1.07616e-12
9.5094e-13
5.2388e-12
5.19718e-12
2.50263e-13
2.93884e-13
2.5657e-13
2.18547e-13
1.86566e-13
1.914e-13
1.04914e-12
9.35766e-13
1.71486e-09
3.21505e-11
4.09391e-13
2.7324e-13
2.38807e-13
2.02926e-13
1.71083e-13
1.71983e-13
1.02262e-12
9.21129e-13
4.50319e-07
1.1647e-08
1.98243e-10
1.70225e-12
2.21316e-13
1.9577e-13
1.6563e-13
1.63143e-13
9.98089e-13
9.52353e-13
4.92671e-12
4.87307e-12
6.74947e-13
5.13783e-13
3.33377e-13
2.27862e-13
2.62225e-13
4.0185e-13
1.22806e-12
1.16581e-12
4.86114e-12
4.85776e-12
6.87216e-13
5.20706e-13
3.35998e-13
1.94486e-13
1.82463e-13
3.18187e-13
1.25099e-12
1.19626e-12
4.79852e-12
4.83878e-12
7.00199e-13
5.35525e-13
3.56552e-13
1.97644e-13
1.18599e-13
2.33702e-13
1.17374e-12
1.13425e-12
4.73786e-12
4.81422e-12
7.13059e-13
5.53498e-13
3.84974e-13
2.24662e-13
9.02491e-14
1.55201e-13
1.10342e-12
1.07723e-12
4.6799e-12
4.78666e-12
7.25787e-13
5.73117e-13
4.17008e-13
2.63522e-13
1.14702e-13
8.55797e-14
1.03916e-12
1.02521e-12
4.62418e-12
4.7562e-12
7.36896e-13
5.92732e-13
4.49669e-13
3.06005e-13
1.61733e-13
4.02795e-14
9.81644e-13
9.78317e-13
4.57097e-12
4.72406e-12
7.45985e-13
6.10912e-13
4.80798e-13
3.48002e-13
2.1258e-13
6.93027e-14
9.30273e-13
9.36119e-13
4.55588e-12
4.69136e-12
7.52912e-13
6.27257e-13
5.09613e-13
3.87429e-13
2.61464e-13
1.22392e-13
8.84912e-13
8.98353e-13
1.63495e-09
3.40645e-11
8.22827e-13
6.41539e-13
5.35741e-13
4.24222e-13
3.07587e-13
1.75457e-13
8.45887e-13
8.65659e-13
3.6686e-07
1.45837e-08
2.6871e-10
2.33343e-12
5.58228e-13
4.57779e-13
3.50376e-13
2.26852e-13
8.1248e-13
8.56669e-13
3.93005e-12
4.29972e-12
9.63848e-13
6.55054e-13
3.9475e-13
2.17785e-13
3.33329e-13
6.08113e-13
1.51384e-12
1.7302e-12
3.85828e-12
4.24753e-12
1.01296e-12
7.33493e-13
4.98328e-13
3.06899e-13
2.9202e-13
4.90402e-13
1.42332e-12
1.64945e-12
3.78681e-12
4.18665e-12
1.04343e-12
7.93925e-13
5.83717e-13
3.9719e-13
3.04823e-13
3.99426e-13
1.24774e-12
1.48654e-12
3.71777e-12
4.12339e-12
1.06282e-12
8.40036e-13
6.5283e-13
4.77456e-13
3.51374e-13
3.48006e-13
1.08979e-12
1.33926e-12
3.65268e-12
4.05944e-12
1.07461e-12
8.76342e-13
7.09845e-13
5.47933e-13
4.11096e-13
3.39396e-13
9.49092e-13
1.20682e-12
3.59099e-12
3.99554e-12
1.07953e-12
9.03334e-13
7.56432e-13
6.09443e-13
4.73227e-13
3.62672e-13
8.25825e-13
1.08877e-12
3.53278e-12
3.93249e-12
1.0795e-12
9.23233e-13
7.93901e-13
6.61698e-13
5.31667e-13
4.04602e-13
7.19384e-13
9.84877e-13
3.51514e-12
3.87125e-12
1.07483e-12
9.37057e-13
8.24266e-13
7.06045e-13
5.85248e-13
4.53624e-13
6.30848e-13
8.93963e-13
1.48586e-09
3.52188e-11
1.10362e-12
9.46353e-13
8.48253e-13
7.43422e-13
6.32653e-13
5.03813e-13
5.59384e-13
8.16406e-13
2.31523e-07
3.11231e-08
4.27566e-10
2.78189e-12
8.61145e-13
7.72855e-13
6.73121e-13
5.49837e-13
5.05888e-13
7.59594e-13
2.92202e-12
3.6038e-12
1.2594e-12
1.03683e-12
8.76627e-13
7.89221e-13
8.6429e-13
1.15511e-12
2.2269e-12
3.02129e-12
2.84728e-12
3.51665e-12
1.28162e-12
1.09034e-12
9.46971e-13
8.45735e-13
8.49599e-13
1.02216e-12
1.94281e-12
2.69956e-12
2.76935e-12
3.4183e-12
1.27964e-12
1.11832e-12
9.95632e-13
8.95497e-13
8.57448e-13
9.32887e-13
1.60241e-12
2.31965e-12
2.69615e-12
3.32208e-12
1.26822e-12
1.13234e-12
1.02956e-12
9.38084e-13
8.80262e-13
8.88646e-13
1.30344e-12
1.98767e-12
2.62769e-12
3.22871e-12
1.25018e-12
1.13718e-12
1.05246e-12
9.72833e-13
9.10256e-13
8.75988e-13
1.04483e-12
1.69792e-12
2.56375e-12
3.13894e-12
1.22773e-12
1.13404e-12
1.06629e-12
9.9989e-13
9.40816e-13
8.82996e-13
8.20621e-13
1.44551e-12
2.50432e-12
3.0527e-12
1.20222e-12
1.12541e-12
1.0723e-12
1.01864e-12
9.67536e-13
9.00054e-13
6.2636e-13
1.22694e-12
2.48813e-12
2.97112e-12
1.17454e-12
1.11213e-12
1.07252e-12
1.03111e-12
9.88882e-13
9.21084e-13
4.5852e-13
1.03885e-12
1.29066e-09
3.37606e-11
1.16738e-12
1.09584e-12
1.06745e-12
1.03753e-12
1.00533e-12
9.41926e-13
3.16479e-13
8.78406e-13
8.24457e-08
4.37933e-08
4.71246e-10
1.76405e-12
1.04673e-12
1.03689e-12
1.01404e-12
9.57373e-13
1.89429e-13
7.45986e-13
2.10253e-12
2.91532e-12
1.43401e-12
1.38562e-12
1.38713e-12
1.44593e-12
1.64684e-12
2.12663e-12
3.85427e-12
6.26526e-12
2.02699e-12
2.80241e-12
1.40789e-12
1.38089e-12
1.39476e-12
1.44483e-12
1.58464e-12
1.90333e-12
3.19591e-12
5.27232e-12
1.94766e-12
2.67943e-12
1.35967e-12
1.35051e-12
1.37695e-12
1.42739e-12
1.53399e-12
1.74162e-12
2.55035e-12
4.33026e-12
1.87461e-12
2.56341e-12
1.30812e-12
1.31299e-12
1.35028e-12
1.40579e-12
1.49804e-12
1.63501e-12
2.01833e-12
3.55248e-12
1.80785e-12
2.45472e-12
1.25546e-12
1.27156e-12
1.3183e-12
1.37993e-12
1.46856e-12
1.56485e-12
1.58309e-12
2.91007e-12
1.74627e-12
2.35277e-12
1.20337e-12
1.22734e-12