/*--------------------------------*- C++ -*----------------------------------*\
| =========                 |                                                 |
| \\      /  F ield         | OpenFOAM: The Open Source CFD Toolbox           |
|  \\    /   O peration     | Version:  4.1                                   |
|   \\  /    A nd           | Web:      www.OpenFOAM.org                      |
|    \\/     M anipulation  |                                                 |
\*---------------------------------------------------------------------------*/
FoamFile
{
    version     2.0;
    format      ascii;
    class       surfaceScalarField;
    location    "0.42";
    object      phi;
}
// * * * * * * * * * * * * * * * * * * * * * * * * * * * * * * * * * * * * * //

dimensions      [1 0 -1 0 0 0 0];

internalField   nonuniform List<scalar> 
51500
(
3.67474e-13
1.21861e-14
1.4993e-11
-1.68612e-15
1.91991e-14
1.48211e-11
-2.4159e-15
1.8166e-14
1.46511e-11
-2.40511e-15
1.70177e-14
1.44833e-11
-2.34459e-15
1.58115e-14
1.43175e-11
-2.30677e-15
1.4565e-14
1.41539e-11
-2.33961e-15
1.33078e-14
1.39922e-11
-2.30606e-15
1.20513e-14
1.38332e-11
-2.29227e-15
1.0775e-14
1.36766e-11
9.49821e-15
1.3524e-11
-7.48099e-17
3.71606e-13
8.89771e-15
1.88269e-11
-1.01563e-14
9.3632e-15
1.81536e-11
-9.00913e-15
8.01998e-15
1.7506e-11
-8.83266e-15
6.87825e-15
1.68862e-11
-8.58269e-15
5.99113e-15
1.6293e-11
-8.31015e-15
5.16309e-15
1.57251e-11
-8.07889e-15
4.11449e-15
1.51808e-11
-7.87461e-15
2.92479e-15
1.46597e-11
-7.55221e-15
1.80882e-15
1.41595e-11
7.69031e-16
1.36869e-11
-7.8171e-16
3.72744e-13
9.54733e-15
2.39381e-11
-2.16053e-14
1.09546e-14
2.24573e-11
-1.77575e-14
9.06866e-15
2.10789e-11
-1.69155e-14
7.38394e-15
1.98014e-11
-1.60583e-14
5.87707e-15
1.86167e-11
-1.5366e-14
4.52608e-15
1.75175e-11
-1.46137e-14
3.32764e-15
1.64977e-11
-1.3996e-14
2.24981e-15
1.55491e-11
-1.31903e-14
1.29662e-15
1.46665e-11
4.81266e-16
1.3853e-11
-1.46606e-15
3.69026e-13
1.22093e-14
3.08545e-11
-3.74309e-14
1.33413e-14
2.80756e-11
-2.91144e-14
1.07608e-14
2.55878e-11
-2.71091e-14
8.5236e-15
2.33565e-11
-2.52218e-14
6.61928e-15
2.13599e-11
-2.35229e-14
4.98773e-15
1.95685e-11
-2.19702e-14
3.5903e-15
1.79573e-11
-2.05654e-14
2.37887e-15
1.65056e-11
-1.89897e-14
1.34009e-15
1.51954e-11
4.69033e-16
1.40218e-11
-2.22934e-15
3.56282e-13
1.60594e-14
4.03689e-11
-5.90452e-14
1.65135e-14
3.55072e-11
-4.42116e-14
1.28906e-14
3.13294e-11
-4.00098e-14
9.91925e-15
2.77242e-11
-3.63025e-14
7.50013e-15
2.46149e-11
-3.30482e-14
5.51758e-15
2.1921e-11
-3.02536e-14
3.87337e-15
1.9579e-11
-2.77303e-14
2.51749e-15
1.75366e-11
-2.51278e-14
1.39451e-15
1.57484e-11
4.93127e-16
1.41945e-11
-2.99565e-15
3.27925e-13
2.1755e-14
5.36953e-11
-1.07313e-13
2.08131e-14
4.54766e-11
-6.42833e-14
1.56579e-14
3.87215e-11
-5.64195e-14
1.16427e-14
3.31312e-11
-4.97953e-14
8.54262e-15
2.84967e-11
-4.42684e-14
6.10872e-15
2.46292e-11
-3.95468e-14
4.19107e-15
2.13845e-11
-3.54908e-14
2.66371e-15
1.86479e-11
-3.15277e-14
1.44731e-15
1.63268e-11
4.91935e-16
1.43693e-11
-3.84089e-15
2.7027e-13
3.97937e-14
7.27231e-11
-1.74908e-13
3.33547e-14
5.90634e-11
-9.14607e-14
2.41038e-14
4.83443e-11
-7.75008e-14
1.73324e-14
3.988e-11
-6.63897e-14
1.2373e-14
3.31529e-11
-5.73863e-14
8.67032e-15
2.77581e-11
-5.00377e-14
5.86853e-15
2.33978e-11
-4.39216e-14
3.73227e-15
1.98466e-11
-3.82996e-14
2.08422e-15
1.69324e-11
8.01095e-16
1.45475e-11
-4.68332e-15
1.91024e-13
-1.31787e-13
1.00518e-10
-2.59777e-13
-1.48645e-13
7.78754e-11
-1.28259e-13
-1.61759e-13
6.10242e-11
-1.04528e-13
-1.70331e-13
4.83734e-11
-8.65763e-14
-1.76089e-13
3.8769e-11
-7.26559e-14
-1.79962e-13
3.13878e-11
-6.16735e-14
-1.82572e-13
2.56501e-11
-5.28789e-14
-1.84331e-13
2.11437e-11
-4.51055e-14
-1.85514e-13
1.75675e-11
-1.88214e-13
1.47314e-11
-5.60272e-15
2.25894e-12
-5.54739e-10
1.54134e-10
1.7006e-12
-5.83297e-10
1.14529e-10
1.53761e-12
-5.85408e-10
8.76747e-11
1.39347e-12
-5.86882e-10
6.86476e-11
1.26569e-12
-5.87989e-10
5.49853e-11
1.15288e-12
-5.88823e-10
4.5025e-11
1.05327e-12
-5.89454e-10
3.76701e-11
9.65227e-13
-5.89928e-10
3.21776e-11
8.80299e-13
-5.90301e-10
2.80325e-11
-5.98179e-10
2.501e-11
-6.54901e-15
-1.35025e-10
1.00233e-07
-8.72832e-07
2.26239e-10
8.44221e-08
-9.37677e-07
2.28169e-10
7.34654e-08
-9.39479e-07
2.2027e-10
6.44646e-08
-9.40908e-07
2.12255e-10
5.69851e-08
-9.42143e-07
2.04353e-10
5.07104e-08
-9.43224e-07
1.96698e-10
4.54004e-08
-9.4418e-07
1.88414e-10
4.08704e-08
-9.45036e-07
1.17938e-10
3.69793e-08
-9.45842e-07
3.40372e-08
-7.55906e-15
-9.71396e-07
3.43094e-13
9.15232e-14
4.28724e-13
-1.96011e-14
8.6184e-14
4.21293e-13
-2.57674e-14
7.59075e-14
4.14241e-13
-2.50936e-14
6.59681e-14
4.05986e-13
-2.47588e-14
5.63621e-14
3.98542e-13
-2.45667e-14
4.70739e-14
3.91953e-13
-2.43906e-14
3.80985e-14
3.84408e-13
-2.41818e-14
2.94365e-14
3.77915e-13
-2.62638e-14
2.10266e-14
3.71322e-13
1.30099e-14
3.64472e-13
-1.60115e-15
2.8414e-13
8.65415e-14
5.97529e-13
-7.29583e-14
7.8563e-14
5.66703e-13
-8.71399e-14
6.6526e-14
5.38206e-13
-8.42402e-14
5.50309e-14
5.09271e-13
-8.18382e-14
4.40118e-14
4.8291e-13
-7.96131e-14
3.27102e-14
4.5747e-13
-7.7291e-14
2.15179e-14
4.34343e-13
-7.57949e-14
1.40522e-14
4.12158e-13
-8.01997e-14
7.78135e-15
3.92124e-13
2.58759e-15
3.71794e-13
-4.33616e-15
1.95866e-13
1.09389e-13
8.46137e-13
-1.84547e-13
9.72246e-14
7.70712e-13
-1.66187e-13
8.11883e-14
7.06468e-13
-1.57672e-13
6.6516e-14
6.43173e-13
-1.50084e-13
5.32846e-14
5.87589e-13
-1.43091e-13
4.13286e-14
5.37487e-13
-1.36482e-13
3.052e-14
4.92204e-13
-1.30857e-13
2.0784e-14
4.51223e-13
-1.36732e-13
1.20422e-14
4.14123e-13
4.24663e-15
3.80493e-13
-6.99896e-15
7.20827e-14
1.34685e-13
1.2222e-12
-3.18591e-13
1.1632e-13
1.06806e-12
-2.6812e-13
9.48515e-14
9.39313e-13
-2.48561e-13
7.59582e-14
8.21547e-13
-2.31723e-13
5.95015e-14
7.2104e-13
-2.16479e-13
4.51506e-14
6.3461e-13
-2.02383e-13
3.26907e-14
5.60429e-13
-1.90078e-13
2.18475e-14
4.96606e-13
-1.95019e-13
1.23987e-14
4.3938e-13
4.2828e-15
3.89049e-13
-9.93736e-15
-5.56855e-14
1.67756e-13
1.80557e-12
-4.89304e-13
1.40505e-13
1.50771e-12
-3.99134e-13
1.11648e-13
1.26715e-12
-3.61274e-13
8.71867e-14
1.06019e-12
-3.29404e-13
6.66725e-14
8.92287e-13
-3.00869e-13
4.94803e-14
7.54822e-13
-2.75537e-13
3.50372e-14
6.41043e-13
-2.53886e-13
2.29382e-14
5.46732e-13
-2.55479e-13
1.27707e-14
4.67533e-13
4.32862e-15
3.9912e-13
-1.31154e-14
-2.05267e-13
2.11345e-13
2.73637e-12
-7.13072e-13
1.7174e-13
2.16615e-12
-5.67983e-13
1.32478e-13
1.73298e-12
-5.01178e-13
1.00695e-13
1.38184e-12
-4.45905e-13
7.50443e-14
1.11245e-12
-3.98205e-13
5.43104e-14
9.0207e-13
-3.5676e-13
3.75997e-14
7.36683e-13
-3.22224e-13
2.40783e-14
6.053e-13
-3.1829e-13
1.31769e-14
4.99917e-13
4.35442e-15
4.10851e-13
-1.61099e-14
-6.49822e-13
2.66707e-13
4.25698e-12
-1.01204e-12
2.12982e-13
3.1801e-12
-7.85701e-13
1.59527e-13
2.40498e-12
-6.74848e-13
1.18014e-13
1.81978e-12
-5.85307e-13
8.58922e-14
1.39696e-12
-5.10044e-13
6.10138e-14
1.08391e-12
-4.47006e-13
4.16333e-14
8.49319e-13
-3.95051e-13
2.65279e-14
6.72225e-13
-3.83615e-13
1.46351e-14
5.3413e-13
5.19804e-15
4.24074e-13
-1.91711e-14
-1.18551e-12
3.23806e-13
6.82552e-12
-1.4148e-12
2.34401e-13
4.77579e-12
-1.06742e-12
1.66477e-13
3.39311e-12
-8.90394e-13
1.17234e-13
2.42787e-12
-7.51239e-13
8.12152e-14
1.77082e-12
-6.38782e-13
5.45449e-14
1.31025e-12
-5.46779e-13
3.4622e-14
9.84369e-13
-4.73253e-13
1.96121e-14
7.48006e-13
-4.51044e-13
8.22653e-15
5.7345e-13
-3.90566e-16
4.38005e-13
-2.23792e-14
-2.01649e-12
1.05545e-11
1.20622e-11
-1.85342e-12
-1.2152e-11
6.6143e-12
-1.15429e-12
-1.14553e-11
4.38697e-12
-1.01982e-12
-1.09177e-11
2.98767e-12
-8.83719e-13
-1.05876e-11
2.11485e-12
-7.5738e-13
-1.04072e-11
1.55267e-12
-6.50701e-13
-1.03363e-11
1.18175e-12
-5.65387e-13
-1.03455e-11
9.31679e-13
-5.50443e-13
-1.04142e-11
7.56801e-13
-1.05463e-11
6.25293e-13
-2.55978e-14
-5.70116e-10
7.01561e-09
5.95687e-08
-2.33817e-10
3.15856e-09
-1.27328e-09
-2.34245e-10
2.35321e-09
-1.35754e-09
-2.24512e-10
1.79604e-09
-1.32944e-09
-2.15157e-10
1.39426e-09
-1.29824e-09
-2.06264e-10
1.09894e-09
-1.26682e-09
-1.97865e-10
8.78206e-10
-1.2365e-09
-1.89971e-10
7.10704e-10
-1.20804e-09
-1.83724e-10
5.81885e-10
-1.18414e-09
4.82723e-10
-2.90234e-14
-1.26512e-09
3.46205e-13
8.18928e-14
1.56421e-14
-1.73715e-14
7.77481e-14
1.39639e-14
-2.17979e-14
6.85928e-14
1.26248e-14
-2.0111e-14
5.97535e-14
1.11662e-14
-1.86654e-14
5.12115e-14
9.67183e-15
-1.9969e-14
4.29062e-14
7.66295e-15
-1.88867e-14
3.49389e-14
6.92569e-15
-1.92302e-14
2.721e-14
6.06464e-15
-2.34344e-14
1.97368e-14
5.24931e-15
1.26035e-14
5.16655e-15
-1.3687e-15
2.94935e-13
5.89956e-14
2.51699e-14
-6.54049e-14
5.41814e-14
2.23539e-14
-7.10576e-14
4.59204e-14
2.19634e-14
-6.63879e-14
3.80585e-14
1.80788e-14
-6.50934e-14
3.07342e-14
1.52546e-14
-6.22889e-14
2.39717e-14
1.33774e-14
-6.07576e-14
1.77051e-14
1.05753e-14
-6.01928e-14
1.19881e-14
8.87156e-15
-7.13069e-14
6.83368e-15
8.21832e-15
2.39447e-15
6.83183e-15
-4.41335e-15
2.16653e-13
7.53833e-14
3.76864e-14
-1.65625e-13
6.80789e-14
3.43802e-14
-1.34729e-13
5.72426e-14
3.39403e-14
-1.23892e-13
4.73205e-14
2.89532e-14
-1.17559e-13
3.82972e-14
2.40707e-14
-1.11761e-13
3.00532e-14
1.95365e-14
-1.06058e-13
2.2667e-14
1.68067e-14
-1.04019e-13
1.62654e-14
1.45028e-14
-1.21235e-13
9.46815e-15
1.22579e-14
3.33473e-15
9.98322e-15
-7.24399e-15
9.51821e-14
9.36813e-14
6.07797e-14
-2.89236e-13
8.19998e-14
5.73745e-14
-2.1588e-13
6.72813e-14
5.54999e-14
-1.90258e-13
5.4305e-14
4.5585e-14
-1.77031e-13
4.30137e-14
3.79506e-14
-1.64972e-13
3.31646e-14
3.1704e-14
-1.49753e-13
2.47087e-14
2.66925e-14
-1.50759e-13
1.69294e-14
2.25475e-14
-1.73091e-13
9.73244e-15
2.02448e-14
3.45296e-15
1.46246e-14
-1.03563e-14
-2.23649e-14
1.18097e-13
1.04375e-13
-4.46061e-13
9.9673e-14
9.7364e-14
-3.17045e-13
7.96521e-14
9.03915e-14
-2.66075e-13
6.26248e-14
7.38995e-14
-2.42331e-13
4.83835e-14
5.98698e-14
-2.20678e-13
3.64647e-14
4.90736e-14
-2.00826e-13
2.69825e-14
4.12904e-14
-1.985e-13
1.81689e-14
3.55299e-14
-2.26853e-13
1.02836e-14
3.05045e-14
3.54291e-15
2.13753e-14
-1.32513e-14
-1.58415e-13
1.50824e-13
1.82622e-13
-6.51385e-13
1.23114e-13
1.69616e-13
-4.25217e-13
9.51718e-14
1.48119e-13
-3.64084e-13
7.26971e-14
1.17354e-13
-3.23427e-13
5.46899e-14
9.36176e-14
-2.8762e-13
4.01303e-14
7.54959e-14
-2.56552e-13
2.85277e-14
6.22534e-14
-2.38371e-13
1.9084e-14
5.22572e-14
-2.82829e-13
1.0416e-14
4.26044e-14
3.57112e-15
2.97015e-14
-1.64916e-14
-5.7171e-13
1.94132e-13
3.23049e-13
-9.26829e-13
1.53454e-13
2.9212e-13
-5.76659e-13
1.14664e-13
2.40359e-13
-4.86047e-13
8.49652e-14
1.8453e-13
-4.20494e-13
6.21471e-14
1.43039e-13
-3.64735e-13
4.45031e-14
1.1269e-13
-3.17756e-13
3.17588e-14
9.07995e-14
-2.86199e-13
2.01436e-14
7.37354e-14
-3.40668e-13
1.09544e-14
6.05745e-14
3.74562e-15
3.98966e-14
-1.96965e-14
-1.09915e-12
3.09727e-13
5.84105e-13
-1.29852e-12
2.75513e-13
5.01209e-13
-7.76843e-13
1.77759e-13
3.88476e-13
-6.3845e-13
1.19176e-13
2.84462e-13
-5.364e-13
7.61245e-14
2.13344e-13
-4.53034e-13
5.13035e-14
1.63988e-13
-3.86275e-13
3.35051e-14
1.2726e-13
-3.37223e-13
2.03899e-14
1.01015e-13
-4.00779e-13
1.06396e-14
8.18994e-14
3.45203e-15
5.162e-14
-2.30157e-14
-2.00611e-12
2.36685e-11
2.97168e-12
-1.78714e-12
9.81452e-13
8.21883e-13
-1.03943e-12
5.80457e-13
5.89111e-13
-8.28588e-13
3.7637e-13
4.1703e-13
-6.74925e-13
2.29619e-13
3.03501e-13
-5.55861e-13
1.23537e-13
2.2627e-13
-4.62326e-13
4.65111e-14
1.72794e-13
-3.93977e-13
-9.57649e-15
1.34491e-13
-4.65067e-13
-5.04641e-14
1.0677e-13
-7.86324e-14
6.86047e-14
-2.63763e-14
-3.0809e-10
3.45099e-09
5.43541e-08
-1.81743e-11
1.02724e-10
7.24323e-11
-1.82404e-11
4.90105e-11
-1.54863e-11
-1.51203e-11
3.21767e-11
-1.07915e-11
-1.26086e-11
2.18236e-11
-6.19052e-12
-1.06187e-11
1.51843e-11
-4.31787e-12
-9.024e-12
1.08078e-11
-2.8679e-12
-7.73508e-12
7.85061e-12
-1.73908e-12
-6.67826e-12
5.80937e-12
-8.70751e-13
4.289e-12
-2.99194e-14
1.14832e-12
3.46259e-13
8.11731e-14
1.0533e-14
-1.74126e-14
7.71243e-14
9.57459e-15
-2.15095e-14
6.80718e-14
7.93367e-15
-1.96761e-14
5.92942e-14
6.16137e-15
-1.91971e-14
5.0835e-14
4.16872e-15
-1.92684e-14
4.26488e-14
3.35571e-15
-1.81343e-14
3.47209e-14
2.00917e-15
-1.90921e-14
2.70606e-14
1.16144e-15
-2.31596e-14
1.96798e-14
3.70638e-16
1.26017e-14
2.40549e-16
-1.47256e-15
2.9569e-13
5.8149e-14
1.80298e-14
-6.49176e-14
5.34647e-14
1.58603e-14
-7.01463e-14
4.53148e-14
1.62214e-14
-6.43965e-14
3.76187e-14
1.27127e-14
-6.2705e-14
3.03931e-14
9.11221e-15
-6.1401e-14
2.36831e-14
6.65915e-15
-5.89882e-14
1.75444e-14
5.42828e-15
-5.84372e-14
1.19079e-14
4.1539e-15
-7.069e-14
6.79148e-15
2.83783e-15
2.40988e-15
1.66704e-15
-4.33638e-15
2.18576e-13
7.39782e-14
2.59121e-14
-1.64072e-13
6.68665e-14
2.44278e-14
-1.3132e-13
5.61694e-14
2.61923e-14
-1.16359e-13
4.62781e-14
1.98714e-14
-1.13173e-13
3.73864e-14
1.65099e-14
-1.03589e-13
2.93313e-14
1.38605e-14
-9.88142e-14
2.18254e-14
1.06103e-14
-1.02144e-13
1.50479e-14
8.87984e-15
-1.20023e-13
9.38886e-15
7.58038e-15
3.12156e-15
5.40097e-15
-7.19368e-15
9.7729e-14
9.19272e-14
4.28521e-14
-2.8649e-13
8.04476e-14
4.30708e-14
-2.09538e-13
6.59493e-14
4.5534e-14
-1.79153e-13
5.32124e-14
3.70464e-14
-1.67015e-13
4.19919e-14
3.03848e-14
-1.55525e-13
3.21482e-14
2.56935e-14
-1.44517e-13
2.35686e-14
2.11284e-14
-1.45583e-13
1.60316e-14
1.81963e-14
-1.71644e-13
9.51557e-15
1.50978e-14
3.50297e-15
1.02684e-14
-1.04305e-14
-1.82047e-14
1.15793e-13
7.55633e-14
-4.4149e-13
9.78461e-14
7.93634e-14
-2.9304e-13
7.81088e-14
7.80825e-14
-2.58153e-13
6.13093e-14
6.29038e-14
-2.3484e-13
4.72971e-14
5.27881e-14
-2.13719e-13
3.54829e-14
4.34537e-14
-1.9481e-13
2.55012e-14
3.63594e-14
-1.85964e-13
1.71995e-14
3.13946e-14
-2.24983e-13
9.84941e-15
2.80667e-14
3.57104e-15
1.85246e-14
-1.33331e-14
-1.52369e-13
1.4776e-13
1.3391e-13
-6.44263e-13
1.20733e-13
1.39968e-13
-4.10113e-13
9.32745e-14
1.32588e-13
-3.54871e-13
7.1228e-14
1.06468e-13
-3.15388e-13
5.34737e-14
8.67706e-14
-2.80445e-13
3.90605e-14
7.18973e-14
-2.5015e-13
2.74163e-14
6.00438e-14
-2.31592e-13
1.79989e-14
4.99889e-14
-2.80335e-13
1.0451e-14
4.39338e-14
3.65852e-15
2.84966e-14
-1.66507e-14
-5.57352e-13
1.90364e-13
2.3912e-13
-9.15623e-13
1.50503e-13
2.49986e-13
-5.61238e-13
1.1249e-13
2.19657e-13
-4.75268e-13
8.32292e-14
1.73091e-13
-4.11322e-13
6.07573e-14
1.37781e-13
-3.56818e-13
4.33613e-14
1.12059e-13
-3.11559e-13
2.96805e-14
9.06779e-14
-2.7923e-13
1.8975e-14
7.59552e-14
-3.38181e-13
1.08664e-14
6.43135e-14
3.55348e-15
4.14693e-14
-1.98485e-14
-1.07717e-12
3.05556e-13
4.29054e-13
-1.28029e-12
1.76036e-13
4.36027e-13
-7.59347e-13
1.44545e-13
3.59741e-13
-6.25271e-13
1.06836e-13
2.75669e-13
-5.25542e-13
8.05826e-14
2.13205e-13
-4.44861e-13
5.62275e-14
1.67248e-13
-3.79423e-13
3.75417e-14
1.33893e-13
-3.3029e-13
2.345e-14
1.08918e-13
-3.98387e-13
1.27489e-14
8.89747e-14
4.7614e-15
5.83684e-14
-2.29959e-14
-1.97658e-12
2.37562e-11
4.18741e-12
-1.75845e-12
4.24264e-13
7.78924e-13
-1.01937e-12
2.11934e-13
5.88156e-13
-8.13424e-13
1.38691e-13
4.319e-13
-6.62849e-13
9.17698e-14
3.21393e-13
-5.45879e-13
5.95586e-14
2.45772e-13
-4.54139e-13
3.71947e-14
1.90041e-13
-3.86137e-13
2.14987e-14
1.50579e-13
-4.60405e-13
1.03859e-14
1.19247e-13
2.57119e-15
7.31015e-14
-2.65085e-14
-2.89108e-10
5.05731e-09
5.42579e-08
-3.44031e-12
3.35107e-11
9.79754e-11
-1.57695e-12
1.88346e-12
7.14682e-13
-1.39985e-12
1.13594e-12
5.00661e-13
-1.10427e-12
7.63374e-13
3.04894e-13
-8.79663e-13
5.3308e-13
2.27984e-13
-7.11229e-13
3.82996e-13
2.07264e-13
-6.09198e-13
2.82305e-13
1.93841e-13
-6.05772e-13
2.12089e-13
1.84532e-13
1.31505e-13
-3.00929e-14
1.92563e-13
3.46146e-13
8.12864e-14
1.81532e-14
-1.77465e-14
7.72107e-14
1.58747e-14
-2.15547e-14
6.81667e-14
1.27544e-14
-2.03537e-14
5.93726e-14
7.97746e-15
-1.75773e-14
5.08926e-14
8.30015e-15
-1.97097e-14
4.26744e-14
3.76097e-15
-1.90396e-14
3.47741e-14
4.67901e-15
-1.88201e-14
2.71298e-14
3.6256e-15
-2.3173e-14
1.97208e-14
8.85523e-16
1.26366e-14
3.01589e-16
-1.70437e-15
2.95408e-13
5.82717e-14
2.88307e-14
-6.51843e-14
5.35812e-14
2.5495e-14
-7.03012e-14
4.54047e-14
2.07954e-14
-6.53818e-14
3.7656e-14
1.72507e-14
-6.28897e-14
3.04693e-14
1.18005e-14
-6.08866e-14
2.37724e-14
9.51213e-15
-5.89222e-14
1.75881e-14
6.46314e-15
-5.89366e-14
1.1949e-14
7.11986e-15
-7.07568e-14
6.84426e-15
5.94448e-15
2.4628e-15
1.86233e-15
-4.34808e-15
2.18141e-13
7.4171e-14
4.19318e-14
-1.64683e-13
6.70355e-14
3.70558e-14
-1.3255e-13
5.63357e-14
3.68012e-14
-1.1502e-13
4.64957e-14
3.20285e-14
-1.11137e-13
3.74995e-14
2.38806e-14
-1.05056e-13
2.94282e-14
1.77606e-14
-9.84189e-14
2.19959e-14
1.77787e-14
-1.02365e-13
1.52047e-14
1.23578e-14
-1.20016e-13
9.28196e-15
1.38467e-14
3.07907e-15
6.47882e-15
-7.43372e-15
9.72612e-14
9.22774e-14
6.87956e-14
-2.87317e-13
8.07904e-14
6.349e-14
-2.10483e-13
6.61855e-14
6.37672e-14
-1.79603e-13
5.33678e-14
5.15794e-14
-1.66893e-13
4.21896e-14
4.23503e-14
-1.56213e-13
3.22441e-14
3.37382e-14
-1.44407e-13
2.36195e-14
3.38153e-14
-1.46469e-13
1.61229e-14
2.53465e-14
-1.71779e-13
9.88605e-15
2.54533e-14
3.71408e-15
1.94557e-14
-1.02132e-14
-1.90301e-14
1.1632e-13
1.08643e-13
-4.43022e-13
9.8259e-14
1.11538e-13
-2.94396e-13
7.85126e-14
1.10928e-13
-2.58226e-13
6.16651e-14
9.24288e-14
-2.35737e-13
4.75507e-14
7.48201e-14
-2.14253e-13
3.57722e-14
6.76224e-14
-1.95052e-13
2.58098e-14
5.71108e-14
-1.85406e-13
1.72526e-14
4.60441e-14
-2.2542e-13
9.66389e-15
3.78801e-14
3.65106e-15
2.49075e-14
-1.3363e-14
-1.53874e-13
1.48606e-13
1.94765e-13
-6.46506e-13
1.21493e-13
2.04251e-13
-4.11797e-13
9.38489e-14
1.84487e-13
-3.55983e-13
7.16956e-14
1.50498e-13
-3.16192e-13
5.38722e-14
1.22045e-13
-2.8127e-13
3.93877e-14
1.02959e-13
-2.5103e-13
2.76102e-14
8.1567e-14
-2.31581e-13
1.83049e-14
7.65286e-14
-2.81067e-13
1.073e-14
6.17389e-14
3.83438e-15
3.93841e-14
-1.65759e-14
-5.61452e-13
1.91694e-13
3.42755e-13
-9.19711e-13
1.51575e-13
3.53249e-13
-5.63552e-13
1.13338e-13
3.13689e-13
-4.77211e-13
8.39198e-14
2.41316e-13
-4.12755e-13
6.1317e-14
1.96794e-13
-3.58414e-13
4.37718e-14
1.54542e-13
-3.12505e-13
3.00888e-14
1.28054e-13
-2.8e-13
1.92062e-14
1.05621e-13
-3.39377e-13
1.11027e-14
8.73862e-14
4.01404e-15
5.63107e-14
-1.98398e-14
-1.08508e-12
3.08209e-13
6.10665e-13
-1.28707e-12
1.77002e-13
6.22406e-13
-7.63144e-13
1.39331e-13
5.07348e-13
-6.28527e-13
1.00218e-13
3.83858e-13
-5.2818e-13
7.16707e-14
2.99061e-13
-4.46994e-13
5.32519e-14
2.35457e-13
-3.8117e-13
3.63709e-14
1.88213e-13
-3.31889e-13
2.29803e-14
1.52452e-13
-4.00034e-13
1.25941e-14
1.24809e-13
4.80811e-15
7.90652e-14
-2.31488e-14
-1.99351e-12
2.41862e-11
5.89139e-12
-1.76959e-12
4.0197e-13
1.09942e-12
-1.02593e-12
2.02683e-13
8.20744e-13
-8.18814e-13
1.64538e-13
5.97367e-13
-6.66867e-13
1.07512e-13
4.50947e-13
-5.49379e-13
6.68892e-14
3.40921e-13
-4.56699e-13
3.12867e-14
2.63291e-13
-3.88534e-13
1.69602e-14
2.0757e-13
-4.63064e-13
8.63116e-15
1.68185e-13
3.272e-15
1.10223e-13
-2.65591e-14
-2.95639e-10
7.3431e-09
5.61626e-08
-3.01281e-12
4.68056e-11
1.04095e-10
-1.28089e-12
1.27019e-12
3.56058e-13
-1.06157e-12
7.92401e-13
1.24797e-13
-8.36681e-13
5.68641e-13
7.59097e-14
-6.68702e-13
4.18986e-13
5.49756e-14
-5.41884e-13
3.15745e-13
4.19654e-14
-4.49078e-13
2.42549e-13
3.28315e-14
-5.29079e-13
1.88517e-13
2.6106e-14
1.15306e-13
-3.01673e-14
2.12344e-14
3.4585e-13
8.14504e-14
2.06974e-14
-1.80895e-14
7.73555e-14
1.51411e-14
-2.21189e-14
6.82559e-14
1.76411e-14
-1.99059e-14
5.94767e-14
1.31343e-14
-1.96487e-14
5.09458e-14
7.5461e-15
-1.91816e-14
4.27416e-14
4.82259e-15
-1.89249e-14
3.48061e-14
2.31659e-15
-1.94802e-14
2.7169e-14
1.2679e-15
-2.3201e-14
1.97835e-14
8.58088e-16
1.26702e-14
9.41811e-16
-1.55279e-15
2.94982e-13
5.84538e-14
3.58135e-14
-6.57681e-14
5.37434e-14
3.27951e-14
-7.00383e-14
4.55674e-14
3.16579e-14
-6.65253e-14
3.77776e-14
2.23951e-14
-6.22779e-14
3.05933e-14
2.10373e-14
-6.16553e-14
2.38578e-14
1.38724e-14
-5.77884e-14
1.76818e-14
9.20726e-15
-5.88842e-14
1.2015e-14
5.40818e-15
-7.10073e-14
6.9122e-15
4.67299e-15
2.52284e-15
3.26029e-15
-4.36283e-15
2.17451e-13
7.44905e-14
4.72154e-14
-1.6565e-13
6.72959e-14
4.94503e-14
-1.32874e-13
5.65473e-14
5.08915e-14
-1.15595e-13
4.66619e-14
4.15845e-14
-1.12725e-13
3.76248e-14
3.13041e-14
-1.04306e-13
2.95204e-14
2.52111e-14
-9.92956e-14
2.21388e-14
1.78657e-14
-1.01778e-13
1.53672e-14
1.92973e-14
-1.20324e-13
9.30279e-15
1.23663e-14
3.49229e-15
8.65809e-15
-7.41486e-15
9.64449e-14
9.27483e-14
8.75809e-14
-2.88628e-13
8.12154e-14
8.61946e-14
-2.11291e-13
6.65567e-14
8.77856e-14
-1.80159e-13
5.37005e-14
7.32879e-14
-1.67955e-13
4.24994e-14
5.6139e-14
-1.55632e-13
3.25774e-14
4.43996e-14
-1.45294e-13
2.38204e-14
3.50758e-14
-1.4653e-13
1.62954e-14
3.52944e-14
-1.71969e-13
9.96799e-15
2.77743e-14
3.64708e-15
1.60749e-14
-1.03268e-14
-2.03943e-14
1.17118e-13
1.52747e-13
-4.45042e-13
9.89446e-14
1.55469e-13
-2.95695e-13
7.9035e-14
1.52215e-13
-2.59253e-13
6.21042e-14
1.23969e-13
-2.36348e-13
4.78835e-14
1.02056e-13
-2.15238e-13
3.60591e-14
8.21173e-14
-1.95482e-13
2.59863e-14
6.26696e-14
-1.8614e-13
1.74955e-14
5.37507e-14
-2.25954e-13
1.00864e-14
4.55185e-14
3.96003e-15
3.00999e-14
-1.33181e-14
-1.56076e-13
1.49839e-13
2.56315e-13
-6.49992e-13
1.22495e-13
2.77385e-13
-4.13708e-13
9.47058e-14
2.57351e-13
-3.57751e-13
7.23486e-14
2.0263e-13
-3.17232e-13
5.44612e-14
1.64522e-13
-2.8299e-13
3.97911e-14
1.24302e-13
-2.51622e-13
2.804e-14
1.12248e-13
-2.32423e-13
1.84691e-14
8.45717e-14
-2.82066e-13
1.09641e-14
7.16521e-14
4.00427e-15
4.68063e-14
-1.65115e-14
-5.67708e-13
1.93572e-13
4.74407e-13
-9.253e-13
1.53152e-13
4.91367e-13
-5.67456e-13
1.14516e-13
4.20323e-13
-4.79614e-13
8.48741e-14
3.31008e-13
-4.15348e-13
6.20382e-14
2.58544e-13
-3.60183e-13
4.44191e-14
2.05942e-13
-3.14234e-13
3.06144e-14
1.60279e-13
-2.81144e-13
1.96826e-14
1.28664e-13
-3.40965e-13
1.14722e-14
1.06489e-13
4.39464e-15
6.70338e-14
-1.97771e-14
-1.0966e-12
3.12148e-13
8.50952e-13
-1.29682e-12
1.791e-13
8.5613e-13
-7.68923e-13
1.40946e-13
6.92975e-13
-6.32979e-13
1.01423e-13
5.22461e-13
-5.31893e-13
7.2611e-14
3.9678e-13
-4.49988e-13
5.37859e-14
3.05569e-13
-3.83765e-13
3.69481e-14
2.32177e-13
-3.3399e-13
2.35168e-14
1.85125e-13
-4.02347e-13
1.30528e-14
1.47311e-13
5.17782e-15
9.24425e-14
-2.3123e-14
-2.02067e-12
2.53808e-11
8.11729e-12
-1.78504e-12
4.10463e-13
1.52412e-12
-1.03545e-12
1.6661e-13
1.12724e-12
-8.25965e-13
1.6552e-13
8.14704e-13
-6.72747e-13
1.07992e-13
5.93741e-13
-5.54093e-13
6.66378e-14
4.39245e-13
-4.60363e-13
3.14592e-14
3.23047e-13
-3.91659e-13
1.74594e-14
2.65588e-13
-4.66561e-13
9.05819e-15
2.00909e-13
3.67143e-15
1.2202e-13
-2.66532e-14
-3.13964e-10
1.09113e-08
6.03215e-08
-3.06956e-12
6.95765e-11
1.12061e-10
-1.28945e-12
1.96224e-12
3.55256e-13
-1.06901e-12
1.19955e-12
8.39979e-14
-8.42738e-13
8.52561e-13
6.34861e-14
-6.73694e-13
6.08089e-13
4.94503e-14
-5.46082e-13
4.44992e-13
3.91799e-14
-4.52693e-13
3.32407e-13
3.15705e-14
-5.33349e-13
2.58615e-13
2.58231e-14
1.54078e-13
-3.02709e-14
2.15304e-14
3.45366e-13
8.16516e-14
2.79215e-14
-1.83843e-14
7.75489e-14
2.73373e-14
-2.26166e-14
6.83883e-14
2.19333e-14
-2.02643e-14
5.95855e-14
1.71811e-14
-1.98933e-14
5.10666e-14
8.74748e-15
-1.97637e-14
4.28336e-14
5.64875e-15
-1.87109e-14
3.49022e-14
4.90913e-15
-1.94082e-14
2.7231e-14
3.39505e-15
-2.32007e-14
1.98448e-14
4.46139e-15
1.27428e-14
1.04437e-14
-1.5966e-15
2.94444e-13
5.8667e-14
4.78124e-14
-6.6338e-14
5.39333e-14
4.41368e-14
-7.06817e-14
4.57369e-14
4.30723e-14
-6.59623e-14
3.79338e-14
3.30808e-14
-6.39128e-14
3.06855e-14
2.23342e-14
-6.12286e-14
2.39645e-14
1.24597e-14
-5.95645e-14
1.77674e-14
9.66051e-15
-5.85705e-14
1.21325e-14
9.60833e-15
-7.09534e-14
6.99479e-15
7.3902e-15
2.59122e-15
1.06032e-14
-4.42029e-15
2.16618e-13
7.48798e-14
6.99052e-14
-1.66783e-13
6.76127e-14
6.78654e-14
-1.33189e-13
5.68182e-14
6.85314e-14
-1.17287e-13
4.68859e-14
5.45159e-14
-1.11634e-13
3.78368e-14
4.24207e-14
-1.05914e-13
2.96731e-14
2.54365e-14
-9.80638e-14
2.23182e-14
1.92657e-14
-1.02841e-13
1.542e-14
1.67888e-14
-1.2038e-13
9.69751e-15
1.90634e-14
3.3381e-15
1.57528e-14
-7.52892e-15
9.54442e-14
9.33557e-14
1.11949e-13
-2.90194e-13
8.1742e-14
1.16977e-13
-2.11864e-13
6.7001e-14
1.17121e-13
-1.81327e-13
5.40783e-14
9.40034e-14
-1.68399e-13
4.28666e-14
7.67194e-14
-1.56428e-13
3.29285e-14
6.03333e-14
-1.45142e-13
2.40638e-14
3.87149e-14
-1.46668e-13
1.64906e-14
3.13427e-14
-1.72529e-13
9.77076e-15
3.00115e-14
4.04514e-15
2.64784e-14
-1.02095e-14
-2.21563e-14
1.18074e-13
1.96151e-13
-4.47486e-13
9.97669e-14
2.07146e-13
-2.97291e-13
7.97182e-14
1.98071e-13
-2.60421e-13
6.26378e-14
1.60107e-13
-2.37228e-13
4.83127e-14
1.29619e-13
-2.16492e-13
3.63941e-14
1.06524e-13
-1.95918e-13
2.63557e-14
7.10119e-14
-1.87617e-13
1.77109e-14
5.60899e-14
-2.26536e-13
1.05423e-14
4.71182e-14
4.15752e-15
4.20219e-14
-1.34469e-14
-1.58854e-13
1.51382e-13
3.51106e-13
-6.5405e-13
1.23735e-13
3.66255e-13
-4.16559e-13
9.56795e-14
3.322e-13
-3.59687e-13
7.31845e-14
2.66422e-13
-3.18957e-13
5.51477e-14
2.13371e-13
-2.84257e-13
4.03791e-14
1.74813e-13
-2.53211e-13
2.84736e-14
1.19061e-13
-2.33045e-13
1.88453e-14
9.03007e-14
-2.83216e-13
1.13356e-14
7.37388e-14
4.26276e-15
5.37537e-14
-1.65425e-14
-5.75563e-13
1.95989e-13
6.23731e-13
-9.32221e-13
1.55047e-13
6.37962e-13
-5.71535e-13
1.15995e-13
5.50076e-13
-4.83091e-13
8.60163e-14
4.28713e-13
-4.18094e-13
6.29383e-14
3.37293e-13
-3.62514e-13
4.51364e-14
2.69237e-13
-3.16553e-13
3.12525e-14
2.10923e-13
-2.82398e-13
2.01529e-14
1.3865e-13
-3.42913e-13
1.18126e-14
1.09805e-13
4.77616e-15
7.08165e-14
-1.97507e-14
-1.1111e-12
3.16382e-13
1.12274e-12
-1.30843e-12
1.81803e-13
1.11069e-12
-7.75963e-13
1.4315e-13
9.00161e-13
-6.38603e-13
1.03084e-13
6.77961e-13
-5.36384e-13
7.38786e-14
5.18891e-13
-4.53566e-13
5.44721e-14
4.02756e-13
-3.87168e-13
3.7726e-14
3.13425e-13
-3.36476e-13
2.423e-14
2.03751e-13
-4.05232e-13
1.36492e-14
1.55837e-13
5.64946e-15
9.44531e-14
-2.3216e-14
-2.04834e-12
2.57921e-11
9.13772e-12
-1.80424e-12
4.12352e-13
1.96918e-12
-1.04714e-12
1.83903e-13
1.47125e-12
-8.3497e-13
1.68946e-13
1.06297e-12
-6.79861e-13
1.1055e-13
7.85395e-13
-5.5989e-13
6.8726e-14
5.88117e-13
-4.65022e-13
3.26382e-14
4.48075e-13
-3.95442e-13
1.81381e-14
2.96921e-13
-4.70906e-13
9.50633e-15
2.14284e-13
4.14329e-15
1.26193e-13
-2.66909e-14
-3.23345e-10
1.25345e-08
6.37365e-08
-3.07966e-12
6.97507e-11
1.15359e-10
-1.30619e-12
2.55057e-12
3.29633e-13
-1.08305e-12
1.63567e-12
8.41106e-14
-8.53577e-13
1.16097e-12
6.395e-14
-6.82116e-13
8.39767e-13
5.00051e-14
-5.53027e-13
6.19086e-13
3.97789e-14
-4.5815e-13
4.53586e-13
3.22248e-14
-5.39447e-13
2.86295e-13
2.64871e-14
1.65321e-13
-3.02995e-14
2.22909e-14
3.44999e-13
8.18659e-14
2.52429e-14
-1.89989e-14
7.76578e-14
1.3467e-14
-2.27448e-14
6.85319e-14
1.36783e-14
-2.07545e-14
5.96974e-14
1.13452e-14
-2.01449e-14
5.1172e-14
1.32441e-14
-2.00824e-14
4.29462e-14
1.79821e-14
-1.96401e-14
3.50336e-14
2.69255e-14
-1.98236e-14
2.74088e-14
7.88311e-14
-2.28823e-14
2.00692e-14
3.21131e-13
1.29688e-14
1.07108e-12
-3.67805e-15
2.93736e-13
5.89182e-14
4.04372e-14
-6.68146e-14
5.41134e-14
2.28571e-14
-7.13574e-14
4.58683e-14
2.7365e-14
-6.64261e-14
3.80715e-14
2.29228e-14
-6.43672e-14
3.08168e-14
1.75677e-14
-6.10331e-14
2.41043e-14
2.5478e-14
-5.93455e-14
1.78981e-14
3.14077e-14
-6.08198e-14
1.22645e-14
6.15512e-14
-7.21336e-14
7.20106e-15
1.95712e-13
2.72958e-15
6.92856e-13
-3.7251e-15
2.1558e-13
7.52415e-14
5.80046e-14
-1.67883e-13
6.78952e-14
3.65484e-14
-1.33696e-13
5.70917e-14
4.48657e-14
-1.18601e-13
4.71032e-14
3.90302e-14
-1.11398e-13
3.81042e-14
3.53788e-14
-1.06117e-13
2.99316e-14
3.7855e-14
-9.92145e-14
2.25653e-14
4.47732e-14
-1.02669e-13
1.56093e-14
6.07491e-14
-1.2262e-13
9.31355e-15
1.3819e-13
3.56004e-15
4.54288e-13
-6.16044e-15
9.44496e-14
9.40142e-14
9.68964e-14
-2.91604e-13
8.22232e-14
7.01032e-14
-2.13378e-13
6.74027e-14
8.1108e-14
-1.81611e-13
5.44546e-14
7.07674e-14
-1.68909e-13
4.31566e-14
6.40487e-14
-1.5701e-13
3.31876e-14
4.95793e-14
-1.46309e-13
2.43897e-14
6.51706e-14
-1.46983e-13
1.68609e-14
7.36101e-14
-1.74811e-13
9.99888e-15
1.19091e-13
4.31484e-15
3.23616e-13
-9.55204e-15
-2.39481e-14
1.19134e-13
1.68444e-13
-4.49687e-13
1.00547e-13
1.37551e-13
-2.9852e-13
8.03795e-14
1.45769e-13
-2.61734e-13
6.32443e-14
1.25197e-13
-2.379e-13
4.88473e-14
1.09532e-13
-2.17366e-13
3.69069e-14
1.3035e-13
-1.97007e-13
2.66212e-14
9.76101e-14
-1.89116e-13
1.79609e-14
9.9434e-14
-2.29038e-13
1.0872e-14
1.24641e-13
4.22387e-15
2.5309e-13
-1.28808e-14
-1.61883e-13
1.52992e-13
2.97777e-13
-6.57607e-13
1.24889e-13
2.61426e-13
-4.18487e-13
9.66756e-14
2.55461e-13
-3.6197e-13
7.40156e-14
2.13376e-13
-3.19964e-13
5.58675e-14
1.81128e-13
-2.86542e-13
4.09764e-14
2.00075e-13
-2.54501e-13
2.91097e-14
1.22147e-13
-2.3442e-13
1.92821e-14
1.4234e-13
-2.86211e-13
1.17347e-14
1.47252e-13
4.80116e-15
2.20082e-13
-1.62513e-14
-5.84108e-13
1.99199e-13
5.31249e-13
-9.37939e-13
1.56854e-13
4.82118e-13
-5.75388e-13
1.17434e-13
4.35718e-13
-4.86414e-13
8.71964e-14
3.51953e-13
-4.20538e-13
6.39125e-14
2.88566e-13
-3.6502e-13
4.59484e-14
2.98754e-13
-3.19284e-13
3.19094e-14
2.35969e-13
-2.84408e-13
2.07263e-14
1.96199e-13
-3.46481e-13
1.22288e-14
1.86074e-13
5.08546e-15
2.11464e-13
-1.95174e-14
-1.12607e-12
3.17648e-13
1.00231e-12
-1.31805e-12
1.8634e-13
8.62862e-13
-7.82399e-13
1.45415e-13
7.26383e-13
-6.43819e-13
1.04801e-13
5.65578e-13
-5.40689e-13
7.52932e-14
4.63696e-13
-4.57172e-13
5.48236e-14
4.46342e-13
-3.91317e-13
3.87534e-14
3.97702e-13
-3.39461e-13
2.49579e-14
2.30795e-13
-4.09952e-13
1.43414e-14
2.40693e-13
6.23017e-15
2.20711e-13
-2.30471e-14
-2.03357e-12
1.75329e-11
5.37632e-12
-1.82526e-12
3.58767e-13
1.51313e-12
-1.05779e-12
2.58643e-13
1.19029e-12
-8.43166e-13
1.72699e-13
9.37581e-13
-6.86941e-13
1.13397e-13
7.7211e-13
-5.65253e-13
7.1128e-14
6.61995e-13
-4.7125e-13
3.40487e-14
5.63008e-13
-3.99544e-13
1.90015e-14
2.84913e-13
-4.77028e-13
1.00529e-14
3.0739e-13
4.72892e-15
2.43505e-13
-2.66625e-14
-2.33244e-10
2.31909e-09
5.66036e-08
-2.6351e-12
2.20254e-12
5.60744e-11
-1.33295e-12
2.09608e-12
8.59939e-14
-1.09664e-12
1.59206e-12
8.37186e-14