/*--------------------------------*- C++ -*----------------------------------*\
| =========                 |                                                 |
| \\      /  F ield         | OpenFOAM: The Open Source CFD Toolbox           |
|  \\    /   O peration     | Version:  4.1                                   |
|   \\  /    A nd           | Web:      www.OpenFOAM.org                      |
|    \\/     M anipulation  |                                                 |
\*---------------------------------------------------------------------------*/
FoamFile
{
    version     2.0;
    format      ascii;
    class       volVectorField;
    location    "0.42";
    object      U;
}
// * * * * * * * * * * * * * * * * * * * * * * * * * * * * * * * * * * * * * //

dimensions      [0 1 -1 0 0 0 0];

internalField   nonuniform List<vector> 
18000
(
(8.05367e-14 3.90179e-13 -6.28085e-12)
(8.66059e-14 3.8878e-13 -6.20879e-12)
(7.83095e-14 -9.94155e-15 -6.13739e-12)
(7.02106e-14 -1.20715e-14 -6.06714e-12)
(6.23315e-14 -1.18867e-14 -5.99773e-12)
(5.46579e-14 -1.16548e-14 -5.92923e-12)
(4.72211e-14 -1.1599e-14 -5.86155e-12)
(4.00403e-14 -1.15533e-14 -5.79499e-12)
(3.30444e-14 -1.14073e-14 -5.72942e-12)
(2.62813e-14 -8.9515e-15 -5.6656e-12)
(1.11888e-13 4.03451e-13 -7.88539e-12)
(1.27716e-13 3.92794e-13 -7.60345e-12)
(1.12314e-13 -4.23569e-14 -7.33178e-12)
(9.77521e-14 -4.32152e-14 -7.07245e-12)
(8.41863e-14 -4.17644e-14 -6.82422e-12)
(7.15259e-14 -4.02463e-14 -6.5866e-12)
(5.96296e-14 -3.87915e-14 -6.35882e-12)
(4.85864e-14 -3.75071e-14 -6.14074e-12)
(3.82133e-14 -3.61988e-14 -5.9314e-12)
(2.85505e-14 -2.78771e-14 -5.73368e-12)
(1.1819e-13 4.09998e-13 -1.00242e-11)
(1.31665e-13 3.87161e-13 -9.40429e-12)
(1.09274e-13 -8.84634e-14 -8.82634e-12)
(8.92017e-14 -8.55732e-14 -8.29191e-12)
(7.13139e-14 -8.0251e-14 -7.79624e-12)
(5.53556e-14 -7.55361e-14 -7.33632e-12)
(4.10746e-14 -7.11753e-14 -6.90959e-12)
(2.8316e-14 -6.70986e-14 -6.51264e-12)
(1.69174e-14 -6.3326e-14 -6.1433e-12)
(6.75389e-15 -4.75965e-14 -5.80296e-12)
(1.58342e-13 4.04587e-13 -1.2917e-11)
(1.66234e-13 3.65588e-13 -1.1754e-11)
(1.33635e-13 -1.53869e-13 -1.07115e-11)
(1.05795e-13 -1.42621e-13 -9.7783e-12)
(8.21335e-14 -1.30198e-13 -8.94319e-12)
(6.1952e-14 -1.19111e-13 -8.19381e-12)
(4.48083e-14 -1.09208e-13 -7.51974e-12)
(3.00936e-14 -1.00342e-13 -6.91236e-12)
(1.75606e-14 -9.225e-14 -6.36412e-12)
(6.87559e-15 -6.79378e-14 -5.87336e-12)
(2.16817e-13 3.76935e-13 -1.68945e-11)
(2.13316e-13 3.17422e-13 -1.48604e-11)
(1.65433e-13 -2.47034e-13 -1.31109e-11)
(1.26548e-13 -2.20295e-13 -1.16037e-11)
(9.51743e-14 -1.94692e-13 -1.03036e-11)
(6.97344e-14 -1.72782e-13 -9.17692e-12)
(4.90036e-14 -1.54057e-13 -8.19734e-12)
(3.20782e-14 -1.3791e-13 -7.34295e-12)
(1.82525e-14 -1.23625e-13 -6.59486e-12)
(6.96508e-15 -8.90828e-14 -5.94519e-12)
(3.04254e-13 3.10355e-13 -2.24625e-11)
(2.79009e-13 2.24536e-13 -1.90252e-11)
(2.07569e-13 -3.81228e-13 -1.61985e-11)
(1.52821e-13 -3.26156e-13 -1.38623e-11)
(1.11001e-13 -2.78287e-13 -1.19251e-11)
(7.87363e-14 -2.39238e-13 -1.03081e-11)
(5.37009e-14 -2.07044e-13 -8.95134e-12)
(3.42188e-14 -1.80156e-13 -7.80683e-12)
(1.89976e-14 -1.57385e-13 -6.83592e-12)
(7.0729e-15 -1.11045e-13 -6.0178e-12)
(4.3877e-13 1.74688e-13 -3.04075e-11)
(3.72495e-13 5.59867e-14 -2.46974e-11)
(2.64184e-13 -5.77113e-13 -2.02155e-11)
(1.8629e-13 -4.72106e-13 -1.668e-11)
(1.30157e-13 -3.87454e-13 -1.38692e-11)
(8.90918e-14 -3.21599e-13 -1.16144e-11)
(5.88317e-14 -2.69518e-13 -9.79171e-12)
(3.63696e-14 -2.27826e-13 -8.30684e-12)
(1.96115e-14 -1.93922e-13 -7.08814e-12)
(7.03977e-15 -1.33856e-13 -6.09166e-12)
(-3.98353e-13 -8.46728e-14 -4.20071e-11)
(-5.18836e-13 -2.42785e-13 -3.25471e-11)
(-6.2643e-13 -8.67148e-13 -2.55068e-11)
(-6.84076e-13 -6.74857e-13 -2.02252e-11)
(-7.11385e-13 -5.30623e-13 -1.62137e-11)
(-7.19844e-13 -4.24087e-13 -1.31298e-11)
(-7.16622e-13 -3.43508e-13 -1.07319e-11)
(-7.06222e-13 -2.81582e-13 -8.84797e-12)
(-6.91566e-13 -2.33204e-13 -7.3526e-12)
(-6.81447e-13 -1.5752e-13 -6.16788e-12)
(-3.40412e-09 -6.99126e-13 -7.13824e-11)
(-3.32662e-09 -7.07328e-13 -5.418e-11)
(-3.11972e-09 -1.14341e-12 -4.18593e-11)
(-2.93512e-09 -8.13695e-13 -3.29423e-11)
(-2.7702e-09 -5.88589e-13 -2.6374e-11)
(-2.62214e-09 -4.32918e-13 -2.14444e-11)
(-2.48861e-09 -3.22933e-13 -1.76831e-11)
(-2.36764e-09 -2.43854e-13 -1.47693e-11)
(-2.25768e-09 -2.04282e-13 -1.24796e-11)
(-2.18502e-09 -1.94965e-13 -1.0718e-11)
(3.61208e-07 -5.21486e-10 -4.08535e-08)
(2.8034e-08 1.66924e-10 -3.53689e-08)
(2.28913e-08 5.1125e-10 -3.07947e-08)
(1.92285e-08 4.58124e-10 -2.70305e-08)
(1.61638e-08 4.106e-10 -2.39012e-08)
(1.35725e-08 3.69525e-10 -2.12751e-08)
(1.13614e-08 3.33927e-10 -1.90518e-08)
(9.45852e-09 3.02765e-10 -1.71544e-08)
(7.67106e-09 2.02082e-10 -1.55236e-08)
(-5.81856e-08 -7.51372e-11 -1.42963e-08)
(2.64357e-13 3.6776e-13 -6.51534e-12)
(2.47591e-13 3.44575e-13 -6.43939e-12)
(2.17174e-13 -5.37148e-14 -6.364e-12)
(1.87935e-13 -5.53397e-14 -6.28945e-12)
(1.59816e-13 -5.47353e-14 -6.21614e-12)
(1.32757e-13 -5.4083e-14 -6.14419e-12)
(1.06725e-13 -5.35244e-14 -6.07249e-12)
(8.17178e-14 -5.28975e-14 -6.00246e-12)
(5.75675e-14 -5.19165e-14 -5.93335e-12)
(3.46849e-14 -3.01124e-14 -5.86583e-12)
(5.31533e-13 3.19343e-13 -8.21145e-12)
(4.89384e-13 2.29268e-13 -7.91284e-12)
(4.19409e-13 -2.00531e-13 -7.62489e-12)
(3.5409e-13 -1.95532e-13 -7.35024e-12)
(2.93207e-13 -1.88686e-13 -7.088e-12)
(2.3644e-13 -1.8207e-13 -6.83678e-12)
(1.83501e-13 -1.75693e-13 -6.59659e-12)
(1.34114e-13 -1.69749e-13 -6.36654e-12)
(8.7965e-14 -1.62849e-13 -6.14634e-12)
(4.53503e-14 -9.26114e-14 -5.93775e-12)
(6.53927e-13 2.33071e-13 -1.04865e-11)
(5.80536e-13 4.90177e-14 -9.82504e-12)
(4.80344e-13 -4.07017e-13 -9.21037e-12)
(3.90625e-13 -3.8448e-13 -8.64196e-12)
(3.1074e-13 -3.61228e-13 -8.1164e-12)
(2.39497e-13 -3.3961e-13 -7.62947e-12)
(1.75911e-13 -3.19644e-13 -7.17825e-12)
(1.19151e-13 -3.0121e-13 -6.75907e-12)
(6.85748e-14 -2.82526e-13 -6.36956e-12)
(2.38034e-14 -1.58198e-13 -6.01142e-12)
(8.50954e-13 8.75188e-14 -1.35847e-11)
(7.28673e-13 -2.27949e-13 -1.23359e-11)
(5.84968e-13 -6.96663e-13 -1.12205e-11)
(4.6196e-13 -6.38008e-13 -1.02238e-11)
(3.57289e-13 -5.82538e-13 -9.33453e-12)
(2.67953e-13 -5.33125e-13 -8.53847e-12)
(1.91716e-13 -4.88816e-13 -7.82426e-12)
(1.26625e-13 -4.48871e-13 -7.18229e-12)
(7.10592e-14 -4.10694e-13 -6.60298e-12)
(2.42108e-14 -2.26327e-13 -6.08592e-12)
(1.12484e-12 -1.51629e-13 -1.788e-11)
(9.26002e-13 -6.50722e-13 -1.56791e-11)
(7.18924e-13 -1.10356e-12 -1.37949e-11)
(5.50021e-13 -9.78195e-13 -1.21762e-11)
(4.12707e-13 -8.66593e-13 -1.07855e-11)
(3.00749e-13 -7.70517e-13 -9.58473e-12)
(2.0938e-13 -6.87191e-13 -8.5437e-12)
(1.34765e-13 -6.14827e-13 -7.63833e-12)
(7.37363e-14 -5.48614e-13 -6.8474e-12)
(2.45312e-14 -2.97435e-13 -6.16245e-12)
(1.51252e-12 -5.38912e-13 -2.39542e-11)
(1.19323e-12 -1.29447e-12 -2.0197e-11)
(8.9248e-13 -1.67804e-12 -1.713e-11)
(6.59598e-13 -1.43601e-12 -1.46048e-11)
(4.79083e-13 -1.23144e-12 -1.25227e-11)
(3.38587e-13 -1.06194e-12 -1.07926e-11)
(2.29028e-13 -9.20201e-13 -9.34676e-12)
(1.43452e-13 -8.01224e-13 -8.13151e-12)
(7.65834e-14 -6.96932e-13 -7.10388e-12)
(2.4838e-14 -3.71396e-13 -6.24042e-12)
(2.07439e-12 -1.16306e-12 -3.27251e-11)
(1.5603e-12 -2.27774e-12 -2.64108e-11)
(1.11985e-12 -2.49535e-12 -2.15026e-11)
(7.9692e-13 -2.05456e-12 -1.76528e-11)
(5.58918e-13 -1.70151e-12 -1.46152e-11)
(3.82428e-13 -1.42029e-12 -1.21927e-11)
(2.50985e-13 -1.19392e-12 -1.02442e-11)
(1.52861e-13 -1.01051e-12 -8.66449e-12)
(7.95062e-14 -8.56359e-13 -7.37187e-12)
(2.52427e-14 -4.4866e-13 -6.3202e-12)
(2.93423e-12 -2.18156e-12 -4.57183e-11)
(2.06293e-12 -3.79574e-12 -3.511e-11)
(1.41053e-12 -3.66678e-12 -2.73151e-11)
(9.58675e-13 -2.89489e-12 -2.15165e-11)
(6.42931e-13 -2.30831e-12 -1.71538e-11)
(4.20093e-13 -1.86126e-12 -1.38239e-11)
(2.61667e-13 -1.51576e-12 -1.12522e-11)
(1.48542e-13 -1.24588e-12 -9.24239e-12)
(6.7493e-14 -1.02773e-12 -7.6542e-12)
(1.00884e-14 -5.28957e-13 -6.40245e-12)
(-5.04347e-11 -4.16996e-12 -7.76644e-11)
(-1.57291e-10 -6.44688e-12 -5.82391e-11)
(-1.28457e-10 -5.52977e-12 -4.45632e-11)
(-1.05793e-10 -4.19143e-12 -3.47903e-11)
(-8.81277e-11 -3.2268e-12 -2.76781e-11)
(-7.41656e-11 -2.52363e-12 -2.23915e-11)
(-6.29937e-11 -2.00131e-12 -1.83901e-11)
(-5.39543e-11 -1.60764e-12 -1.53115e-11)
(-4.65692e-11 -1.30074e-12 -1.29049e-11)
(-4.05789e-11 -6.93507e-13 -1.10617e-11)
(2.32608e-07 -1.1547e-09 -4.3117e-08)
(-5.58066e-09 -9.368e-10 -3.71237e-08)
(-5.57175e-09 -4.991e-10 -3.21112e-08)
(-5.11453e-09 -4.45887e-10 -2.80362e-08)
(-4.70067e-09 -4.01151e-10 -2.46823e-08)
(-4.33303e-09 -3.62217e-10 -2.18907e-08)
(-4.00853e-09 -3.28273e-10 -1.95434e-08)
(-3.72294e-09 -2.98601e-10 -1.75516e-08)
(-3.47992e-09 -2.72839e-10 -1.58481e-08)
(-4.19387e-09 -2.66685e-10 -1.45648e-08)
(2.29789e-13 3.7273e-13 -2.4117e-13)
(2.16813e-13 3.48139e-13 -2.36698e-13)
(1.90099e-13 -5.03964e-14 -2.31843e-13)
(1.64602e-13 -5.2063e-14 -2.27144e-13)
(1.40209e-13 -5.12114e-14 -2.22772e-13)
(1.16727e-13 -5.06899e-14 -2.18492e-13)
(9.4401e-14 -5.02162e-14 -2.14297e-13)
(7.29477e-14 -4.94864e-14 -2.10524e-13)
(5.2403e-14 -4.86775e-14 -2.06645e-13)
(3.3019e-14 -2.55578e-14 -2.03004e-13)
(5.01511e-13 3.37634e-13 -3.35968e-13)
(4.6292e-13 2.41517e-13 -3.18266e-13)
(3.96544e-13 -1.88775e-13 -3.00934e-13)
(3.34639e-13 -1.83866e-13 -2.84406e-13)
(2.77126e-13 -1.77269e-13 -2.69615e-13)
(2.23553e-13 -1.70904e-13 -2.5561e-13)
(1.73767e-13 -1.64725e-13 -2.42141e-13)
(1.27332e-13 -1.58958e-13 -2.29593e-13)
(8.4034e-14 -1.52395e-13 -2.18631e-13)
(4.42538e-14 -7.91963e-14 -2.07435e-13)
(6.19959e-13 2.70329e-13 -4.7841e-13)
(5.50878e-13 7.20623e-14 -4.34861e-13)
(4.55047e-13 -3.84832e-13 -3.95921e-13)
(3.69387e-13 -3.63125e-13 -3.60515e-13)
(2.93356e-13 -3.40357e-13 -3.29012e-13)
(2.25826e-13 -3.19532e-13 -3.00338e-13)
(1.65716e-13 -3.00359e-13 -2.74989e-13)
(1.12281e-13 -2.82682e-13 -2.51971e-13)
(6.45891e-14 -2.64504e-13 -2.30909e-13)
(2.27158e-14 -1.35386e-13 -2.12932e-13)
(8.13458e-13 1.52653e-13 -6.94008e-13)
(6.96163e-13 -1.91943e-13 -6.04689e-13)
(5.57351e-13 -6.62241e-13 -5.27806e-13)
(4.38974e-13 -6.05265e-13 -4.61024e-13)
(3.38699e-13 -5.51131e-13 -4.04326e-13)
(2.53517e-13 -5.03106e-13 -3.55532e-13)
(1.81107e-13 -4.60115e-13 -3.1367e-13)
(1.19534e-13 -4.2195e-13 -2.77584e-13)
(6.71246e-14 -3.85251e-13 -2.45858e-13)
(2.31363e-14 -1.94406e-13 -2.18571e-13)
(1.08593e-12 -4.63049e-14 -1.03075e-12)
(8.91315e-13 -6.00423e-13 -8.55704e-13)
(6.89421e-13 -1.05568e-12 -7.1366e-13)
(5.25384e-13 -9.32864e-13 -5.96715e-13)
(3.92961e-13 -8.23239e-13 -5.01391e-13)
(2.85591e-13 -7.29614e-13 -4.23546e-13)
(1.98411e-13 -6.48849e-13 -3.59578e-13)
(1.27514e-13 -5.79059e-13 -3.06786e-13)
(6.98996e-14 -5.15083e-13 -2.62285e-13)
(2.36173e-14 -2.55861e-13 -2.25589e-13)
(1.47678e-12 -3.77065e-13 -1.57045e-12)
(1.15865e-12 -1.23206e-12 -1.23389e-12)
(8.61982e-13 -1.61653e-12 -9.79197e-13)
(6.33635e-13 -1.3775e-12 -7.79866e-13)
(4.5826e-13 -1.17528e-12 -6.27015e-13)
(3.22695e-13 -1.0092e-12 -5.07775e-13)
(2.17686e-13 -8.71167e-13 -4.14521e-13)
(1.36195e-13 -7.5602e-13 -3.40642e-13)
(7.27213e-14 -6.55238e-13 -2.80523e-13)
(2.40765e-14 -3.20693e-13 -2.33723e-13)
(2.05223e-12 -9.20214e-13 -2.45628e-12)
(1.53082e-12 -2.21157e-12 -1.81683e-12)
(1.09051e-12 -2.42425e-12 -1.36327e-12)
(7.70695e-13 -1.98395e-12 -1.03035e-12)
(5.37504e-13 -1.6322e-12 -7.89837e-13)
(3.66017e-13 -1.35516e-12 -6.12131e-13)
(2.39398e-13 -1.13361e-12 -4.79564e-13)
(1.45483e-13 -9.55759e-13 -3.79287e-13)
(7.56544e-14 -8.06342e-13 -3.01295e-13)
(2.45476e-14 -3.88287e-13 -2.42991e-13)
(2.96038e-12 -1.82497e-12 -3.962e-12)
(2.06053e-12 -3.74961e-12 -2.73576e-12)
(1.39854e-12 -3.59657e-12 -1.9301e-12)
(9.46225e-13 -2.81623e-12 -1.37809e-12)
(6.34396e-13 -2.22742e-12 -1.00378e-12)
(4.16884e-13 -1.78387e-12 -7.42369e-13)
(2.6386e-13 -1.44406e-12 -5.57032e-13)
(1.55617e-13 -1.1813e-12 -4.23146e-13)
(7.87896e-14 -9.69297e-13 -3.24842e-13)
(2.48957e-14 -4.59276e-13 -2.52734e-13)
(1.34703e-10 -3.45177e-12 -6.73722e-12)
(-5.11686e-13 -6.29802e-12 -4.3401e-12)
(-9.12389e-13 -5.32773e-12 -2.89048e-12)
(-7.64527e-13 -3.97373e-12 -1.97603e-12)
(-6.54811e-13 -3.01091e-12 -1.39495e-12)
(-5.68001e-13 -2.32093e-12 -1.01329e-12)
(-4.97002e-13 -1.81547e-12 -7.56697e-13)
(-4.37589e-13 -1.43976e-12 -5.80204e-13)
(-3.87524e-13 -1.14921e-12 -4.55315e-13)
(-3.38974e-13 -5.3752e-13 -3.68135e-13)
(2.0478e-07 -4.66208e-10 -2.3891e-09)
(2.02556e-10 -4.25108e-10 -1.79802e-09)
(-1.82123e-10 -5.55697e-11 -1.34425e-09)
(-1.46021e-10 -4.12284e-11 -1.02397e-09)
(-1.17839e-10 -3.19927e-11 -7.93444e-10)
(-9.62481e-11 -2.51851e-11 -6.2417e-10)
(-7.947e-11 -2.00867e-11 -4.9768e-10)
(-6.63008e-11 -1.62131e-11 -4.01667e-10)
(-5.60423e-11 -1.32087e-11 -3.27773e-10)
(-5.60988e-11 -1.0667e-11 -2.7084e-10)
(2.26907e-13 3.72963e-13 -1.13685e-14)
(2.14269e-13 3.4803e-13 -1.05542e-14)
(1.879e-13 -5.04383e-14 -8.49694e-15)
(1.62666e-13 -5.1967e-14 -7.44476e-15)
(1.38588e-13 -5.12886e-14 -6.08371e-15)
(1.15528e-13 -5.0657e-14 -5.06887e-15)
(9.34179e-14 -4.99851e-14 -4.229e-15)
(7.22587e-14 -4.93181e-14 -3.31232e-15)
(5.20773e-14 -4.83694e-14 -2.92438e-15)
(3.29558e-14 -2.51956e-14 -2.91095e-15)
(4.98119e-13 3.39146e-13 -1.69365e-14)
(4.60055e-13 2.42568e-13 -1.51263e-14)
(3.94147e-13 -1.87884e-13 -1.30217e-14)
(3.32689e-13 -1.82961e-13 -1.08157e-14)
(2.75549e-13 -1.76141e-13 -8.78161e-15)
(2.22359e-13 -1.69967e-13 -7.58465e-15)
(1.72928e-13 -1.6393e-13 -6.30088e-15)
(1.26836e-13 -1.57869e-13 -5.34882e-15)
(8.38289e-14 -1.51262e-13 -4.65181e-15)
(4.43547e-14 -7.80293e-14 -4.11225e-15)
(6.15484e-13 2.74108e-13 -2.74655e-14)
(5.47349e-13 7.47176e-14 -2.42858e-14)
(4.5219e-13 -3.82361e-13 -2.03537e-14)
(3.67155e-13 -3.60765e-13 -1.67716e-14)
(2.91682e-13 -3.38394e-13 -1.42498e-14)
(2.24594e-13 -3.17566e-13 -1.18117e-14)
(1.64973e-13 -2.98308e-13 -9.8061e-15)
(1.11909e-13 -2.80873e-13 -8.47434e-15)
(6.45654e-14 -2.62662e-13 -7.17403e-15)
(2.29589e-14 -1.33341e-13 -6.93033e-15)
(8.0755e-13 1.60455e-13 -4.58362e-14)
(6.91656e-13 -1.86508e-13 -4.01342e-14)
(5.53945e-13 -6.57803e-13 -3.33236e-14)
(4.36454e-13 -6.01207e-13 -2.72486e-14)
(3.369e-13 -5.47405e-13 -2.26495e-14)
(2.52376e-13 -4.9977e-13 -1.9082e-14)
(1.8048e-13 -4.57123e-13 -1.5897e-14)
(1.1937e-13 -4.19043e-13 -1.3432e-14)
(6.73415e-14 -3.82584e-13 -1.1741e-14)
(2.3563e-14 -1.91949e-13 -1.03793e-14)
(1.07809e-12 -3.21092e-14 -7.98767e-14)
(8.85707e-13 -5.91135e-13 -6.7226e-14)
(6.85385e-13 -1.04791e-12 -5.40625e-14)
(5.22647e-13 -9.26321e-13 -4.37836e-14)
(3.91187e-13 -8.17774e-13 -3.5862e-14)
(2.84556e-13 -7.24695e-13 -2.918e-14)
(1.97999e-13 -6.44367e-13 -2.43964e-14)
(1.27613e-13 -5.75194e-13 -2.11104e-14)
(7.01628e-14 -5.11863e-13 -1.84458e-14)
(2.42294e-14 -2.52766e-13 -1.58877e-14)
(1.46599e-12 -3.51236e-13 -1.39772e-13)
(1.15155e-12 -1.21665e-12 -1.12855e-13)
(8.57224e-13 -1.60459e-12 -8.863e-14)
(6.30643e-13 -1.36776e-12 -6.9988e-14)
(4.56556e-13 -1.16737e-12 -5.58744e-14)
(3.21917e-13 -1.00258e-12 -4.52323e-14)
(2.17565e-13 -8.65498e-13 -3.72331e-14)
(1.36463e-13 -7.51629e-13 -3.10413e-14)
(7.32843e-14 -6.5148e-13 -2.56678e-14)
(2.48427e-14 -3.16862e-13 -2.23828e-14)
(2.0373e-12 -8.74129e-13 -2.46892e-13)
(1.52145e-12 -2.18687e-12 -1.90679e-13)
(1.08483e-12 -2.40607e-12 -1.43358e-13)
(7.67384e-13 -1.97002e-12 -1.09994e-13)
(5.35835e-13 -1.62151e-12 -8.53532e-14)
(3.655e-13 -1.34665e-12 -6.74538e-14)
(2.39501e-13 -1.12687e-12 -5.40719e-14)
(1.45998e-13 -9.5053e-13 -4.40907e-14)
(7.66077e-14 -8.02212e-13 -3.65153e-14)
(2.54551e-14 -3.84309e-13 -3.04289e-14)
(2.93863e-12 -1.74305e-12 -4.4393e-13)
(2.0469e-12 -3.71103e-12 -3.20094e-13)
(1.39087e-12 -3.56967e-12 -2.31014e-13)
(9.42235e-13 -2.79719e-12 -1.69524e-13)
(6.32693e-13 -2.2132e-12 -1.27256e-13)
(4.1655e-13 -1.77349e-12 -9.78013e-14)
(2.64297e-13 -1.43644e-12 -7.60156e-14)
(1.56516e-13 -1.17534e-12 -6.04484e-14)
(7.99618e-14 -9.65088e-13 -4.91602e-14)
(2.62333e-14 -4.55177e-13 -4.00142e-14)
(1.44944e-10 -3.29974e-12 -8.06577e-13)
(3.31793e-12 -6.23434e-12 -5.30292e-13)
(1.76141e-12 -5.28238e-12 -3.62994e-13)
(1.13756e-12 -3.94252e-12 -2.56077e-13)
(7.31273e-13 -2.9886e-12 -1.85418e-13)
(4.61959e-13 -2.30451e-12 -1.3794e-13)
(2.81633e-13 -1.80298e-12 -1.04758e-13)
(1.59904e-13 -1.42995e-12 -8.14285e-14)
(7.72021e-14 -1.14113e-12 -6.43871e-14)
(2.18992e-14 -5.29506e-13 -5.2149e-14)
(2.03279e-07 -4.00507e-10 -1.5904e-10)
(4.39335e-10 -3.78618e-10 -4.48878e-11)
(-1.7244e-12 -1.08391e-11 -2.86025e-11)
(-1.7028e-12 -6.52884e-12 -1.88278e-11)
(-1.23822e-12 -4.68315e-12 -1.27695e-11)
(-9.26796e-13 -3.43802e-12 -8.87658e-12)
(-7.09533e-13 -2.57351e-12 -6.30416e-12)
(-5.54747e-13 -1.96136e-12 -4.56215e-12)
(-4.44366e-13 -1.51113e-12 -3.3579e-12)
(-4.11909e-13 -7.42399e-13 -2.47459e-12)
(2.27279e-13 3.72862e-13 -1.08699e-14)
(2.14553e-13 3.47467e-13 -9.90352e-15)
(1.8819e-13 -5.11635e-14 -7.49357e-15)
(1.62883e-13 -5.25655e-14 -5.5349e-15)
(1.38753e-13 -5.17044e-14 -4.11189e-15)
(1.15601e-13 -5.09857e-14 -2.90954e-15)
(9.35607e-14 -5.04822e-14 -2.10588e-15)
(7.24425e-14 -4.95801e-14 -1.21051e-15)
(5.21841e-14 -4.84168e-14 -4.83722e-16)
(3.30456e-14 -2.54051e-14 -3.24932e-16)
(4.9907e-13 3.38831e-13 -1.60984e-14)
(4.60867e-13 2.4188e-13 -1.42962e-14)
(3.94865e-13 -1.88645e-13 -1.10374e-14)
(3.33206e-13 -1.83809e-13 -9.01373e-15)
(2.76056e-13 -1.76902e-13 -6.28239e-15)
(2.22782e-13 -1.70333e-13 -4.75382e-15)
(1.73293e-13 -1.64141e-13 -3.76249e-15)
(1.27226e-13 -1.58227e-13 -3.21526e-15)
(8.41723e-14 -1.51564e-13 -2.34812e-15)
(4.47075e-14 -7.81015e-14 -1.49158e-15)
(6.17161e-13 2.73594e-13 -2.60645e-14)
(5.48852e-13 7.365e-14 -2.309e-14)
(4.53456e-13 -3.83759e-13 -1.8757e-14)
(3.6819e-13 -3.61869e-13 -1.46615e-14)
(2.92616e-13 -3.39001e-13 -1.19991e-14)
(2.25448e-13 -3.1827e-13 -9.71363e-15)
(1.65664e-13 -2.9893e-13 -7.83365e-15)
(1.12525e-13 -2.81216e-13 -6.4946e-15)
(6.51325e-14 -2.62834e-13 -5.87724e-15)
(2.35112e-14 -1.33558e-13 -5.06669e-15)
(8.1052e-13 1.59493e-13 -4.473e-14)
(6.94275e-13 -1.88275e-13 -3.90808e-14)
(5.56061e-13 -6.5975e-13 -3.22254e-14)
(4.38252e-13 -6.02926e-13 -2.61666e-14)
(3.38421e-13 -5.48686e-13 -2.1413e-14)
(2.53613e-13 -5.00835e-13 -1.77511e-14)
(1.81593e-13 -4.58036e-13 -1.51887e-14)
(1.20365e-13 -4.19815e-13 -1.28821e-14)
(6.82654e-14 -3.83137e-13 -1.11045e-14)
(2.43412e-14 -1.91955e-13 -1.02906e-14)
(1.08309e-12 -3.39581e-14 -7.81744e-14)
(8.89912e-13 -5.94613e-13 -6.77027e-14)
(6.88804e-13 -1.0516e-12 -5.48683e-14)
(5.25422e-13 -9.2913e-13 -4.44552e-14)
(3.93488e-13 -8.20015e-13 -3.70093e-14)
(2.86477e-13 -7.26686e-13 -3.07357e-14)
(1.9963e-13 -6.45826e-13 -2.55751e-14)
(1.28975e-13 -5.76195e-13 -2.19895e-14)
(7.14114e-14 -5.12745e-13 -1.92022e-14)
(2.52832e-14 -2.53366e-13 -1.68045e-14)
(1.47435e-12 -3.55362e-13 -1.37939e-13)
(1.15835e-12 -1.22316e-12 -1.1514e-13)
(8.62558e-13 -1.61065e-12 -9.19546e-14)
(6.34906e-13 -1.37278e-12 -7.37078e-14)
(4.59921e-13 -1.17129e-12 -5.98418e-14)
(3.247e-13 -1.00576e-12 -4.95889e-14)
(2.19813e-13 -8.68165e-13 -4.07281e-14)
(1.38322e-13 -7.53689e-13 -3.43623e-14)
(7.48156e-14 -6.53137e-13 -2.95961e-14)
(2.61253e-14 -3.17782e-13 -2.54494e-14)
(2.05134e-12 -8.82274e-13 -2.44018e-13)
(1.53239e-12 -2.1995e-12 -1.96417e-13)
(1.09302e-12 -2.41729e-12 -1.52191e-13)
(7.7366e-13 -1.97874e-12 -1.18593e-13)
(5.40688e-13 -1.62834e-12 -9.45355e-14)
(3.6926e-13 -1.35215e-12 -7.58835e-14)
(2.42478e-13 -1.13126e-12 -6.15675e-14)
(1.48407e-13 -9.53894e-13 -5.08206e-14)
(7.85139e-14 -8.05037e-13 -4.27331e-14)
(2.70626e-14 -3.85964e-13 -3.60432e-14)
(2.96253e-12 -1.75968e-12 -4.34742e-13)
(2.06429e-12 -3.7355e-12 -3.33056e-13)
(1.40336e-12 -3.5896e-12 -2.47329e-13)
(9.51407e-13 -2.81233e-12 -1.87281e-13)
(6.39472e-13 -2.22494e-12 -1.44311e-13)
(4.21653e-13 -1.78256e-12 -1.12848e-13)
(2.68204e-13 -1.44352e-12 -8.96433e-14)
(1.59529e-13 -1.18095e-12 -7.21162e-14)
(8.22523e-14 -9.69429e-13 -5.88674e-14)
(2.80274e-14 -4.5775e-13 -4.93305e-14)
(1.47654e-10 -3.33543e-12 -8.02253e-13)
(3.44082e-12 -6.28238e-12 -5.63964e-13)
(1.81983e-12 -5.31837e-12 -3.99769e-13)
(1.17481e-12 -3.96881e-12 -2.90357e-13)
(7.55885e-13 -3.00807e-12 -2.15618e-13)
(4.78784e-13 -2.31912e-12 -1.63345e-13)
(2.93369e-13 -1.81411e-12 -1.25577e-13)
(1.68241e-13 -1.43857e-12 -9.87606e-14)
(8.32026e-14 -1.14798e-12 -7.84762e-14)
(2.61557e-14 -5.33337e-13 -6.34984e-14)
(2.11754e-07 -4.08066e-10 -1.13301e-10)
(4.7342e-10 -3.83142e-10 -2.33921e-12)
(2.35247e-12 -9.51614e-12 -1.05902e-12)
(1.11634e-12 -5.5995e-12 -6.79061e-13)
(7.43469e-13 -4.04696e-12 -4.54497e-13)
(4.99246e-13 -2.99306e-12 -3.1626e-13)
(3.35455e-13 -2.25645e-12 -2.26616e-13)
(2.23986e-13 -1.73145e-12 -1.66471e-13)
(1.47177e-13 -1.34188e-12 -1.24796e-13)
(9.40913e-14 -6.13995e-13 -9.54084e-14)
(2.27835e-13 3.72558e-13 -1.37017e-14)
(2.15017e-13 3.46695e-13 -1.17284e-14)
(1.88502e-13 -5.21608e-14 -9.47669e-15)
(1.63207e-13 -5.32991e-14 -6.82592e-15)
(1.38923e-13 -5.23228e-14 -5.11759e-15)
(1.15791e-13 -5.14448e-14 -3.10326e-15)
(9.36521e-14 -5.06523e-14 -2.03573e-15)
(7.25515e-14 -4.99577e-14 -1.38852e-15)
(5.23534e-14 -4.87163e-14 -6.64965e-16)
(3.31323e-14 -2.53245e-14 -5.98558e-16)
(5.00406e-13 3.38357e-13 -2.01968e-14)
(4.62039e-13 2.40609e-13 -1.78055e-14)
(3.958e-13 -1.89898e-13 -1.34548e-14)
(3.34033e-13 -1.84787e-13 -1.06733e-14)
(2.7671e-13 -1.77783e-13 -8.23188e-15)
(2.23351e-13 -1.70935e-13 -5.971e-15)
(1.73767e-13 -1.64516e-13 -4.35511e-15)
(1.27618e-13 -1.58406e-13 -3.21775e-15)
(8.46419e-14 -1.51931e-13 -2.83181e-15)
(4.50793e-14 -7.83918e-14 -2.37575e-15)
(6.19533e-13 2.72741e-13 -3.2455e-14)
(5.50889e-13 7.19461e-14 -2.86225e-14)
(4.55216e-13 -3.85516e-13 -2.29115e-14)
(3.69629e-13 -3.63327e-13 -1.86439e-14)
(2.93866e-13 -3.4028e-13 -1.45983e-14)
(2.26484e-13 -3.19159e-13 -1.15713e-14)
(1.66653e-13 -2.99558e-13 -9.47566e-15)
(1.13351e-13 -2.81649e-13 -8.28796e-15)
(6.58891e-14 -2.63243e-13 -7.18522e-15)
(2.43041e-14 -1.3389e-13 -6.33981e-15)
(8.14567e-13 1.57753e-13 -5.605e-14)
(6.97736e-13 -1.91149e-13 -4.83995e-14)
(5.58935e-13 -6.62565e-13 -3.94788e-14)
(4.40641e-13 -6.05263e-13 -3.23132e-14)
(3.4045e-13 -5.50615e-13 -2.62364e-14)
(2.55397e-13 -5.02184e-13 -2.15253e-14)
(1.83078e-13 -4.59071e-13 -1.84507e-14)
(1.21676e-13 -4.2072e-13 -1.6008e-14)
(6.93526e-14 -3.83703e-13 -1.4223e-14)
(2.53571e-14 -1.92349e-13 -1.24913e-14)
(1.08993e-12 -3.7226e-14 -9.75303e-14)
(8.95636e-13 -5.99563e-13 -8.33567e-14)
(6.9338e-13 -1.05634e-12 -6.78721e-14)
(5.2916e-13 -9.32999e-13 -5.54643e-14)
(3.96567e-13 -8.23078e-13 -4.58449e-14)
(2.89106e-13 -7.29249e-13 -3.83959e-14)
(2.01712e-13 -6.47943e-13 -3.18722e-14)
(1.30789e-13 -5.779e-13 -2.7269e-14)
(7.2939e-14 -5.14107e-13 -2.33373e-14)
(2.6544e-14 -2.54078e-13 -2.07876e-14)
(1.48586e-12 -3.61987e-13 -1.71812e-13)
(1.16759e-12 -1.23269e-12 -1.43274e-13)
(8.69758e-13 -1.61925e-12 -1.14043e-13)
(6.40496e-13 -1.37954e-12 -9.14232e-14)
(4.64421e-13 -1.1766e-12 -7.43598e-14)
(3.28262e-13 -1.01018e-12 -6.14542e-14)
(2.22739e-13 -8.71744e-13 -5.07448e-14)
(1.40698e-13 -7.56408e-13 -4.26277e-14)
(7.68124e-14 -6.55478e-13 -3.65262e-14)
(2.7778e-14 -3.19121e-13 -3.1595e-14)
(2.07065e-12 -8.95826e-13 -3.04136e-13)
(1.54721e-12 -2.21732e-12 -2.43559e-13)
(1.10407e-12 -2.43265e-12 -1.88868e-13)
(7.82014e-13 -1.99066e-12 -1.4771e-13)
(5.47132e-13 -1.63763e-12 -1.17789e-13)
(3.74237e-13 -1.35962e-12 -9.45836e-14)
(2.46456e-13 -1.1372e-12 -7.70516e-14)
(1.51501e-13 -9.58618e-13 -6.29869e-14)
(8.09788e-14 -8.08848e-13 -5.28999e-14)
(2.90947e-14 -3.88145e-13 -4.47157e-14)
(2.99674e-12 -1.78686e-12 -5.41208e-13)
(2.08808e-12 -3.76972e-12 -4.14182e-13)
(1.42022e-12 -3.61733e-12 -3.08319e-13)
(9.6365e-13 -2.83299e-12 -2.33436e-13)
(6.48485e-13 -2.2406e-12 -1.80034e-13)
(4.28416e-13 -1.79473e-12 -1.41047e-13)
(2.73299e-13 -1.45313e-12 -1.12176e-13)
(1.63456e-13 -1.18852e-12 -8.96616e-14)
(8.52783e-14 -9.75336e-13 -7.30707e-14)
(3.04143e-14 -4.61067e-13 -6.08301e-14)
(1.54231e-10 -3.39439e-12 -9.90557e-13)
(3.508e-12 -6.35157e-12 -7.032e-13)
(1.84677e-12 -5.3679e-12 -5.00116e-13)
(1.19315e-12 -4.0043e-12 -3.63328e-13)
(7.68677e-13 -3.03417e-12 -2.70261e-13)
(4.87919e-13 -2.33883e-12 -2.04512e-13)
(3.00018e-13 -1.82903e-12 -1.5724e-13)
(1.73154e-13 -1.45002e-12 -1.23134e-13)
(8.68402e-14 -1.15693e-12 -9.7917e-14)
(2.88781e-14 -5.38471e-13 -7.92306e-14)
(2.31678e-07 -4.32899e-10 -1.63121e-10)
(5.0922e-10 -4.00157e-10 -1.61779e-12)
(2.54351e-12 -9.64674e-12 -8.15109e-13)
(1.17299e-12 -5.64459e-12 -5.6292e-13)
(7.795e-13 -4.08015e-12 -3.9999e-13)
(5.22811e-13 -3.01779e-12 -2.91615e-13)
(3.51387e-13 -2.27531e-12 -2.17469e-13)
(2.3505e-13 -1.74607e-12 -1.64738e-13)
(1.55041e-13 -1.35321e-12 -1.27012e-13)
(1.00059e-13 -6.20131e-13 -1.00185e-13)
(2.2851e-13 3.72049e-13 -1.63211e-14)
(2.15653e-13 3.45784e-13 -1.4184e-14)
(1.88919e-13 -5.31052e-14 -1.09202e-14)
(1.63555e-13 -5.42976e-14 -8.42946e-15)
(1.39275e-13 -5.31844e-14 -6.07877e-15)
(1.16062e-13 -5.22109e-14 -4.12247e-15)
(9.39182e-14 -5.11631e-14 -2.4345e-15)
(7.27249e-14 -5.01268e-14 -1.6402e-15)
(5.25286e-14 -4.87431e-14 -2.45535e-15)
(3.33327e-14 -2.53935e-14 -6.00391e-15)
(5.02017e-13 3.37742e-13 -2.41613e-14)
(4.63485e-13 2.39243e-13 -2.07061e-14)
(3.96955e-13 -1.91425e-13 -1.65509e-14)
(3.35015e-13 -1.8586e-13 -1.27844e-14)
(2.77526e-13 -1.78767e-13 -1.01432e-14)
(2.2408e-13 -1.71874e-13 -7.40914e-15)
(1.74431e-13 -1.65249e-13 -5.80223e-15)
(1.28274e-13 -1.58844e-13 -4.29696e-15)
(8.51688e-14 -1.5192e-13 -3.56598e-15)
(4.55988e-14 -7.84646e-14 -6.55046e-15)
(6.22438e-13 2.717e-13 -3.90268e-14)
(5.53356e-13 6.99367e-14 -3.36378e-14)
(4.57292e-13 -3.87593e-13 -2.69986e-14)
(3.71406e-13 -3.65119e-13 -2.19597e-14)
(2.95292e-13 -3.41778e-13 -1.73823e-14)
(2.27777e-13 -3.2033e-13 -1.42731e-14)
(1.67782e-13 -3.00288e-13 -1.15897e-14)
(1.14463e-13 -2.82203e-13 -1.01606e-14)
(6.68713e-14 -2.63701e-13 -9.41203e-15)
(2.50683e-14 -1.34167e-13 -9.98115e-15)
(8.19565e-13 1.55651e-13 -6.65111e-14)
(7.01955e-13 -1.94618e-13 -5.70547e-14)
(5.62434e-13 -6.65873e-13 -4.65342e-14)
(4.43535e-13 -6.08064e-13 -3.80839e-14)
(3.4296e-13 -5.5297e-13 -3.15525e-14)
(2.57558e-13 -5.0404e-13 -2.65537e-14)
(1.84921e-13 -4.60389e-13 -2.24237e-14)
(1.23217e-13 -4.21678e-13 -1.93596e-14)
(7.07224e-14 -3.84751e-13 -1.74292e-14)
(2.65572e-14 -1.92977e-13 -1.63215e-14)
(1.09833e-12 -4.13643e-14 -1.16768e-13)
(9.02602e-13 -6.05734e-13 -9.83409e-14)
(6.98984e-13 -1.06205e-12 -7.96664e-14)
(5.33666e-13 -9.37631e-13 -6.52488e-14)
(4.0032e-13 -8.2681e-13 -5.40917e-14)
(2.92253e-13 -7.32438e-13 -4.57262e-14)
(2.04383e-13 -6.50556e-13 -3.86407e-14)
(1.32949e-13 -5.79969e-13 -3.31393e-14)
(7.47829e-14 -5.15721e-13 -2.87073e-14)
(2.82094e-14 -2.55111e-13 -2.65116e-14)
(1.50005e-12 -3.70233e-13 -2.06331e-13)
(1.17881e-12 -1.24411e-12 -1.68996e-13)
(8.78462e-13 -1.62958e-12 -1.34641e-13)
(6.47383e-13 -1.38784e-12 -1.08562e-13)
(4.69898e-13 -1.18313e-12 -8.85128e-14)
(3.32692e-13 -1.01548e-12 -7.37819e-14)
(2.26373e-13 -8.76176e-13 -6.11664e-14)
(1.43608e-13 -7.6e-13 -5.14394e-14)
(7.92662e-14 -6.58262e-13 -4.43903e-14)
(2.97844e-14 -3.20847e-13 -3.91273e-14)
(2.09454e-12 -9.12665e-13 -3.65189e-13)
(1.56521e-12 -2.23923e-12 -2.87372e-13)
(1.11752e-12 -2.45108e-12 -2.2309e-13)
(7.92263e-13 -2.00504e-12 -1.75655e-13)
(5.54988e-13 -1.64892e-12 -1.39982e-13)
(3.80375e-13 -1.36868e-12 -1.13665e-13)
(2.51287e-13 -1.14465e-12 -9.28551e-14)
(1.55306e-13 -9.64516e-13 -7.59341e-14)
(8.3993e-14 -8.13501e-13 -6.40388e-14)
(3.15267e-14 -3.90974e-13 -5.50637e-14)
(3.03726e-12 -1.82081e-12 -6.50605e-13)
(2.11702e-12 -3.8113e-12 -4.8878e-13)
(1.44097e-12 -3.65066e-12 -3.6559e-13)
(9.78684e-13 -2.85816e-12 -2.77745e-13)
(6.5957e-13 -2.25979e-12 -2.14725e-13)
(4.36703e-13 -1.80956e-12 -1.69034e-13)
(2.7956e-13 -1.46501e-12 -1.35027e-13)
(1.68274e-13 -1.19795e-12 -1.07601e-13)
(8.89677e-14 -9.82659e-13 -8.80858e-14)
(3.3289e-14 -4.6537e-13 -7.36252e-14)
(1.61026e-10 -3.44448e-12 -1.02952e-12)
(3.5633e-12 -6.43071e-12 -8.31662e-13)
(1.87822e-12 -5.4278e-12 -5.9566e-13)
(1.21498e-12 -4.04781e-12 -4.34043e-13)
(7.84108e-13 -3.06626e-12 -3.23721e-13)
(4.98981e-13 -2.36299e-12 -2.45712e-13)
(3.08067e-13 -1.84762e-12 -1.90201e-13)
(1.79058e-13 -1.46414e-12 -1.4743e-13)
(9.12162e-14 -1.16797e-12 -1.17787e-13)
(3.21494e-14 -5.44821e-13 -9.5879e-14)
(2.50482e-07 -4.02555e-10 2.27391e-10)
(5.37192e-10 -4.17465e-10 9.5107e-13)
(2.50811e-12 -9.77386e-12 -9.51129e-13)
(1.19334e-12 -5.71742e-12 -6.6849e-13)
(7.93747e-13 -4.13205e-12 -4.77718e-13)
(5.32946e-13 -3.05545e-12 -3.49263e-13)
(3.58823e-13 -2.30339e-12 -2.61286e-13)
(2.40592e-13 -1.76729e-12 -1.98141e-13)
(1.59156e-13 -1.36913e-12 -1.5223e-13)
(1.03239e-13 -6.29058e-13 -1.20972e-13)
(2.29219e-13 3.71685e-13 -1.74546e-14)
(2.15953e-13 3.4459e-13 -1.10578e-14)
(1.89308e-13 -5.44077e-14 -8.625e-15)
(1.63873e-13 -5.52033e-14 -7.2761e-15)
(1.3963e-13 -5.40419e-14 -8.04812e-15)
(1.16483e-13 -5.29396e-14 -1.04499e-14)
(9.44401e-14 -5.17395e-14 -1.5215e-14)
(7.36058e-14 -5.0287e-14 -4.38483e-14)
(5.41597e-14 -4.83911e-14 -1.78463e-13)
(3.5037e-14 -3.07219e-14 -5.93746e-13)
(5.03753e-13 3.3692e-13 -2.45725e-14)
(4.64543e-13 2.37867e-13 -1.42467e-14)
(3.98001e-13 -1.92839e-13 -1.25085e-14)
(3.35946e-13 -1.87199e-13 -1.05784e-14)
(2.78415e-13 -1.79882e-13 -1.05733e-14)
(2.25019e-13 -1.72762e-13 -1.28574e-14)
(1.75383e-13 -1.66011e-13 -1.669e-14)
(1.29361e-13 -1.60004e-13 -3.38162e-14)
(8.66615e-14 -1.53544e-13 -1.08103e-13)
(4.68566e-14 -8.76909e-14 -3.83806e-13)
(6.25464e-13 2.704e-13 -4.02036e-14)
(5.55504e-13 6.78594e-14 -2.48891e-14)
(4.59155e-13 -3.89589e-13 -2.0705e-14)
(3.73098e-13 -3.66796e-13 -1.83571e-14)
(2.96939e-13 -3.43186e-13 -1.69617e-14)
(2.29416e-13 -3.216e-13 -1.90084e-14)
(1.69359e-13 -3.0164e-13 -2.32407e-14)
(1.15947e-13 -2.83427e-13 -3.23798e-14)
(6.86107e-14 -2.66042e-13 -7.64762e-14)
(2.65472e-14 -1.44293e-13 -2.51804e-13)
(8.24854e-13 1.53542e-13 -6.90426e-14)
(7.05713e-13 -1.97596e-13 -4.50415e-14)
(5.65667e-13 -6.68889e-13 -3.76897e-14)
(4.46416e-13 -6.10481e-13 -3.3124e-14)
(3.45598e-13 -5.5492e-13 -3.09234e-14)