/*--------------------------------*- C++ -*----------------------------------*\
| =========                 |                                                 |
| \\      /  F ield         | OpenFOAM: The Open Source CFD Toolbox           |
|  \\    /   O peration     | Version:  4.1                                   |
|   \\  /    A nd           | Web:      www.OpenFOAM.org                      |
|    \\/     M anipulation  |                                                 |
\*---------------------------------------------------------------------------*/
FoamFile
{
    version     2.0;
    format      ascii;
    class       volVectorField;
    location    "0.42";
    object      U;
}
// * * * * * * * * * * * * * * * * * * * * * * * * * * * * * * * * * * * * * //

dimensions      [0 1 -1 0 0 0 0];

internalField   nonuniform List<vector> 
52500
(
(3 1.25098e-09 -0.00571424)
(3 1.92426e-09 -0.00571424)
(3 3.27732e-09 -0.00571425)
(3 3.99702e-09 -0.00571426)
(2.99999 2.15346e-08 -0.0057143)
(2.99998 3.46486e-08 -0.00571435)
(2.99996 1.70658e-07 -0.00571457)
(2.9999 3.10521e-07 -0.0057148)
(2.99982 1.55134e-06 -0.00571634)
(2.99941 3.30801e-06 -0.00571796)
(2.99882 1.44247e-05 -0.00572953)
(2.99588 3.24201e-05 -0.00574521)
(2.99117 0.000114631 -0.00582729)
(2.96903 0.000264061 -0.00595396)
(2.91815 0.000925528 -0.00658427)
(2.73547 0.00253696 -0.00784687)
(2.07599 0.00882348 -0.0127542)
(0.647616 0.0292384 -0.0210391)
(-0.0305557 0.0488311 -0.0234955)
(0.31423 0.0346743 -0.0226245)
(0.347267 0.0310095 -0.0213084)
(0.123553 0.0345884 -0.0184483)
(0.136901 0.039515 -0.0173101)
(0.0765624 0.0400537 -0.0184431)
(0.0494289 0.0357878 -0.0184065)
(3 6.06107e-09 -0.00571424)
(3 1.14194e-08 -0.00571424)
(3 1.92918e-08 -0.00571425)
(3 2.92369e-08 -0.00571426)
(2.99999 8.69882e-08 -0.0057143)
(2.99998 1.37923e-07 -0.00571435)
(2.99996 5.52121e-07 -0.00571457)
(2.9999 9.74512e-07 -0.00571479)
(2.99982 4.68996e-06 -0.0057163)
(2.99942 9.83093e-06 -0.00571786)
(2.99884 4.37802e-05 -0.00572921)
(2.99596 9.78185e-05 -0.00574434)
(2.99136 0.000347541 -0.00582487)
(2.9697 0.000807754 -0.00594888)
(2.92013 0.00280581 -0.0065647)
(2.74169 0.00775342 -0.00779425)
(2.10012 0.0267266 -0.012589)
(0.675436 0.0876319 -0.0207346)
(-0.0176598 0.141951 -0.023277)
(0.303307 0.0934368 -0.0224835)
(0.349047 0.0805333 -0.0212013)
(0.128143 0.0892273 -0.018349)
(0.138137 0.0970349 -0.0171924)
(0.079927 0.0960911 -0.0182967)
(0.0525537 0.0906521 -0.0182868)
(3 8.31048e-09 -0.00571424)
(3 1.58839e-08 -0.00571424)
(3 2.60943e-08 -0.00571425)
(3 4.40135e-08 -0.00571426)
(2.99999 1.30234e-07 -0.0057143)
(2.99998 2.02081e-07 -0.00571435)
(2.99997 8.53145e-07 -0.00571456)
(2.99991 1.47922e-06 -0.00571478)
(2.99982 7.33737e-06 -0.00571622)
(2.99944 1.51344e-05 -0.00571767)
(2.99889 7.08776e-05 -0.00572856)
(2.99613 0.000157434 -0.00574256)
(2.99177 0.000567513 -0.0058201)
(2.97105 0.00133837 -0.0059386)
(2.92421 0.00456373 -0.00652613)
(2.7544 0.0127439 -0.00768981)
(2.14979 0.0431123 -0.0122745)
(0.740136 0.141167 -0.0202231)
(0.0128108 0.243039 -0.0230318)
(0.281599 0.160532 -0.0223093)
(0.355395 0.136847 -0.0211302)
(0.141451 0.152342 -0.0182874)
(0.141649 0.164568 -0.0170761)
(0.0847313 0.163485 -0.0181271)
(0.0567379 0.156508 -0.0181589)
(3 1.55454e-08 -0.00571424)
(3 3.97585e-08 -0.00571424)
(3 7.01036e-08 -0.00571425)
(3 1.20082e-07 -0.00571426)
(2.99999 2.30273e-07 -0.0057143)
(2.99998 3.01239e-07 -0.00571434)
(2.99997 1.09353e-06 -0.00571455)
(2.99991 1.79586e-06 -0.00571477)
(2.99983 9.05282e-06 -0.0057161)
(2.99947 1.83382e-05 -0.00571743)
(2.99896 9.06857e-05 -0.00572756)
(2.99638 0.000200598 -0.00574005)
(2.99235 0.000747192 -0.0058133)
(2.97298 0.00177744 -0.00592303)
(2.93007 0.0060059 -0.00647318)
(2.77216 0.0168412 -0.00754176)
(2.21806 0.0557631 -0.0118599)
(0.844403 0.181822 -0.0196231)
(0.062188 0.342017 -0.0227304)
(0.248541 0.232472 -0.0220683)
(0.365932 0.195987 -0.0210587)
(0.16337 0.217185 -0.0182732)
(0.147918 0.235128 -0.016962)
(0.0920244 0.234179 -0.0179039)
(0.062364 0.226321 -0.0180008)
(3 -1.12009e-08 -0.00571424)
(3 -2.6389e-08 -0.00571424)
(3 -3.11138e-08 -0.00571425)
(3 1.23103e-08 -0.00571426)
(2.99999 1.00121e-07 -0.00571429)
(2.99998 1.88064e-07 -0.00571434)
(2.99997 1.04671e-06 -0.00571454)
(2.99991 1.7112e-06 -0.00571475)
(2.99984 9.6529e-06 -0.00571596)
(2.99951 1.93165e-05 -0.00571717)
(2.99904 0.000101324 -0.00572631)
(2.99668 0.000223468 -0.00573704)
(2.99308 0.000880875 -0.00580483)
(2.97538 0.002086 -0.00590255)
(2.9373 0.00712336 -0.00640913)
(2.79358 0.0199871 -0.00735832)
(2.29991 0.0655212 -0.0113957)
(0.988228 0.210224 -0.0189006)
(0.131317 0.436886 -0.0223438)
(0.20776 0.311188 -0.0217978)
(0.379371 0.258028 -0.020978)
(0.193802 0.282728 -0.0183216)
(0.157661 0.308255 -0.0168384)
(0.10159 0.308606 -0.0176418)
(0.0695687 0.300668 -0.0178049)
(3 -3.07353e-08 -0.00571424)
(3 -7.39887e-08 -0.00571424)
(3 -9.13546e-08 -0.00571425)
(3 -9.76554e-08 -0.00571426)
(2.99999 -1.27987e-08 -0.00571429)
(2.99998 3.23898e-08 -0.00571434)
(2.99997 9.04475e-07 -0.00571452)
(2.99992 1.49904e-06 -0.00571473)
(2.99984 9.72301e-06 -0.00571581)
(2.99955 1.92518e-05 -0.00571693)
(2.99913 0.000104016 -0.00572492)
(2.99702 0.000225533 -0.00573381)
(2.99391 0.000964985 -0.00579503)
(2.97812 0.00221704 -0.00587752)
(2.94557 0.00786032 -0.00633466)
(2.81815 0.0221989 -0.00715595)
(2.39053 0.0724805 -0.0108259)
(1.17257 0.227684 -0.0180451)
(0.22451 0.52804 -0.021891)
(0.165612 0.396202 -0.0214772)
(0.393493 0.323969 -0.0208809)
(0.233733 0.349865 -0.0184132)
(0.173622 0.383881 -0.0166952)
(0.114359 0.389625 -0.0173039)
(0.0784794 0.383644 -0.017576)
(3 -1.26742e-08 -0.00571424)
(3 -2.32187e-08 -0.00571424)
(3 1.55184e-08 -0.00571425)
(3 -1.14037e-08 -0.00571426)
(2.99999 1.1459e-07 -0.00571429)
(2.99998 8.53213e-08 -0.00571434)
(2.99997 9.12308e-07 -0.00571451)
(2.99992 1.43638e-06 -0.00571471)
(2.99985 9.57955e-06 -0.00571568)
(2.99959 1.8748e-05 -0.00571671)
(2.99922 9.9991e-05 -0.00572351)
(2.9974 0.000209985 -0.00573083)
(2.99475 0.000972621 -0.00578391)
(2.98106 0.00214967 -0.00585044)
(2.95454 0.0081178 -0.00625227)
(2.84479 0.022895 -0.00692397)
(2.48654 0.0750239 -0.0101166)
(1.401 0.236301 -0.0170682)
(0.346145 0.61339 -0.0212896)
(0.130298 0.482225 -0.0211074)
(0.405896 0.39824 -0.0207518)
(0.284257 0.421368 -0.0185925)
(0.200247 0.462678 -0.0165676)
(0.133579 0.479167 -0.0170106)
(0.0901164 0.479862 -0.0172432)
(3 -7.95266e-09 -0.00571424)
(3 -1.52557e-08 -0.00571424)
(3 3.98181e-08 -0.00571425)
(3 -4.23201e-08 -0.00571426)
(2.99999 6.65119e-08 -0.00571429)
(2.99998 -9.20941e-08 -0.00571434)
(2.99997 4.91808e-07 -0.00571449)
(2.99992 8.11162e-07 -0.00571469)
(2.99986 8.37031e-06 -0.00571555)
(2.99963 1.68533e-05 -0.00571652)
(2.99929 9.13831e-05 -0.00572223)
(2.99775 0.000189696 -0.00572841)
(2.99553 0.00089747 -0.00577215)
(2.98403 0.00192561 -0.00582489)
(2.96338 0.00777905 -0.00616666)
(2.87157 0.0211105 -0.00667209)
(2.5857 0.0723029 -0.00935149)
(1.67899 0.232143 -0.0157414)
(0.499727 0.676004 -0.0203786)
(0.116496 0.571051 -0.0206862)
(0.420651 0.484922 -0.0205884)
(0.343519 0.499394 -0.0187508)
(0.241428 0.545259 -0.016459)
(0.164099 0.578345 -0.0165497)
(0.107388 0.599243 -0.0168608)
(3 1.98439e-08 -0.00571424)
(3 4.31096e-08 -0.00571424)
(3 1.13145e-07 -0.00571425)
(3 2.12365e-08 -0.00571426)
(2.99999 1.44047e-07 -0.00571429)
(2.99998 -2.34103e-07 -0.00571434)
(2.99997 8.21676e-07 -0.00571448)
(2.99993 1.10682e-06 -0.00571468)
(2.99986 9.69976e-06 -0.00571543)
(2.99966 1.93654e-05 -0.00571632)
(2.99936 9.67116e-05 -0.00572109)
(2.99807 0.000199052 -0.0057264)
(2.9962 0.000870233 -0.00576207)
(2.98677 0.00182136 -0.00580458)
(2.97091 0.00721174 -0.00607874)
(2.89654 0.0179774 -0.00644517)
(2.68072 0.0643661 -0.00858811)
(1.98439 0.205379 -0.0139465)
(0.694823 0.672514 -0.0189278)
(0.146205 0.662698 -0.0204124)
(0.436183 0.582732 -0.0202885)
(0.407905 0.584251 -0.0188523)
(0.301047 0.632261 -0.0163784)
(0.217126 0.690257 -0.016056)
(0.140097 0.756411 -0.0161905)
(3 2.02071e-08 -0.00571424)
(3 4.59496e-08 -0.00571424)
(3 1.26016e-09 -0.00571425)
(3 -2.54691e-09 -0.00571426)
(2.99999 -7.77419e-09 -0.00571429)
(2.99998 -1.80553e-07 -0.00571433)
(2.99997 1.26129e-06 -0.00571446)
(2.99993 -1.83379e-07 -0.00571464)
(2.99987 1.51371e-05 -0.00571528)
(2.9997 3.936e-06 -0.00571599)
(2.99944 0.000136503 -0.00571988)
(2.9984 5.71877e-05 -0.00572374)
(2.99689 0.00113058 -0.00575247)
(2.98929 0.000543966 -0.00578336)
(2.97708 0.00896337 -0.00600622)
(2.91738 0.00734857 -0.00629235)
(2.75741 0.0675443 -0.00794119)
(2.25189 0.152702 -0.0121274)
(0.940088 0.580437 -0.0165397)
(0.244015 0.753942 -0.0200662)
(0.452876 0.691874 -0.0199631)
(0.475665 0.672784 -0.0189823)
(0.384846 0.72482 -0.0163221)
(0.309995 0.821893 -0.0154924)
(0.203479 1.00477 -0.0152532)
(3 -1.93942e-10 -1.73556e-08)
(3 4.47574e-10 -1.81069e-08)
(3 1.93679e-09 -1.85456e-08)
(3 5.18791e-09 -1.95994e-08)
(2.99999 2.0041e-08 -1.89568e-08)
(2.99998 3.0242e-08 -2.01946e-08)
(2.99996 1.56737e-07 -2.01042e-08)
(2.9999 2.80492e-07 -2.15715e-08)
(2.99981 1.50032e-06 -2.27447e-08)
(2.99941 3.24563e-06 -2.61312e-08)
(2.99882 1.43066e-05 -2.89686e-08)
(2.99587 3.23854e-05 -5.17905e-08)
(2.99116 0.000114494 -3.61396e-08)
(2.96903 0.000263964 -1.1546e-07)
(2.91813 0.000925379 -8.63376e-08)
(2.73542 0.00253719 -3.92821e-07)
(2.07581 0.00882441 -7.90834e-07)
(0.647419 0.0292441 -2.21564e-06)
(-0.0306428 0.0488244 1.78086e-07)
(0.31432 0.0346645 1.22695e-07)
(0.347238 0.0310039 -8.60027e-08)
(0.123558 0.0345777 5.2907e-08)
(0.136922 0.0395168 -7.35558e-08)
(0.0765902 0.0400636 -7.56919e-08)
(0.0494285 0.0358066 -7.59301e-08)
(3 -4.12852e-10 -1.7386e-08)
(3 1.7911e-09 -1.81441e-08)
(3 6.44656e-09 -1.85982e-08)
(3 1.78126e-08 -1.9639e-08)
(2.99999 6.35666e-08 -1.90265e-08)
(2.99998 9.84803e-08 -2.02355e-08)
(2.99996 4.84249e-07 -2.01253e-08)
(2.9999 8.6158e-07 -2.15794e-08)
(2.99981 4.52978e-06 -2.26333e-08)
(2.99942 9.64927e-06 -2.57281e-08)
(2.99884 4.35646e-05 -3.03155e-08)
(2.99596 9.77561e-05 -4.92292e-08)
(2.99136 0.000347423 -3.77227e-08)
(2.96969 0.000807789 -1.15435e-07)
(2.92011 0.00280608 -8.50238e-08)
(2.74164 0.00775486 -3.80439e-07)
(2.09995 0.0267322 -7.3939e-07)
(0.675227 0.0876587 -2.13387e-06)
(-0.0177421 0.141953 1.37557e-07)
(0.303373 0.0934246 1.21855e-07)
(0.349018 0.0805565 -7.27763e-08)
(0.128135 0.0892227 5.6638e-08)
(0.138144 0.097019 -6.63928e-08)
(0.0799132 0.0960902 -8.36029e-08)
(0.0525518 0.090658 -7.63676e-08)
(3 -1.03612e-09 -1.74792e-08)
(3 4.60989e-09 -1.82487e-08)
(3 1.0026e-08 -1.8733e-08)
(3 3.65277e-08 -1.97537e-08)
(2.99999 1.04809e-07 -1.91932e-08)
(2.99998 1.63524e-07 -2.03734e-08)
(2.99996 7.73969e-07 -2.01989e-08)
(2.9999 1.33843e-06 -2.16317e-08)
(2.99982 7.13046e-06 -2.26314e-08)
(2.99944 1.49027e-05 -2.57183e-08)
(2.99889 7.06562e-05 -3.03655e-08)
(2.99613 0.000157436 -4.90018e-08)
(2.99176 0.000567493 -3.77126e-08)
(2.97105 0.00133874 -1.15807e-07)
(2.92419 0.00456457 -7.75947e-08)
(2.75436 0.0127458 -3.62909e-07)
(2.14964 0.0431225 -6.34018e-07)
(0.739905 0.141208 -1.79375e-06)
(0.0127593 0.24304 -1.39569e-08)
(0.281698 0.160522 1.27038e-07)
(0.355403 0.136864 -7.54851e-08)
(0.141483 0.152341 3.41126e-08)
(0.141676 0.164564 -5.17606e-08)
(0.0847419 0.163498 -9.06383e-08)
(0.0567444 0.156522 -6.98716e-08)
(3 -1.52928e-09 -1.75654e-08)
(3 9.44492e-09 -1.8312e-08)
(3 5.60803e-09 -1.88591e-08)
(3 4.04642e-08 -1.95904e-08)
(2.99999 9.41e-08 -1.92425e-08)
(2.99998 1.44935e-07 -2.00383e-08)
(2.99996 9.03496e-07 -1.98367e-08)
(2.99991 1.58227e-06 -2.11355e-08)
(2.99983 8.86819e-06 -2.24278e-08)
(2.99947 1.82208e-05 -2.47877e-08)
(2.99896 9.07158e-05 -3.27324e-08)
(2.99637 0.000200999 -4.47327e-08)
(2.99235 0.00074755 -4.12181e-08)
(2.97297 0.00177855 -1.16532e-07)
(2.93005 0.00600709 -6.74763e-08)
(2.77212 0.016843 -3.50367e-07)
(2.21793 0.0557747 -5.32229e-07)
(0.844165 0.181861 -1.52743e-06)
(0.062132 0.342014 -1.66577e-07)
(0.248635 0.232472 1.33603e-07)
(0.36595 0.195997 -7.90443e-08)
(0.163408 0.217182 1.75249e-08)
(0.147948 0.235139 -3.39392e-08)
(0.0920396 0.234215 -1.1912e-07)
(0.0623705 0.226349 -7.20231e-08)
(3 1.05432e-10 -1.77729e-08)
(3 7.16861e-09 -1.83116e-08)
(3 7.16616e-10 -1.91532e-08)
(3 1.51358e-08 -1.90738e-08)
(2.99999 4.3845e-08 -1.93054e-08)
(2.99998 2.36769e-08 -1.93695e-08)
(2.99996 7.86303e-07 -1.95298e-08)
(2.99991 1.34999e-06 -2.08321e-08)
(2.99983 9.2944e-06 -2.21535e-08)
(2.99951 1.90316e-05 -2.51023e-08)
(2.99904 0.00010129 -3.23661e-08)
(2.99667 0.000223858 -4.34325e-08)
(2.99308 0.00088128 -4.13769e-08)
(2.97537 0.00208768 -1.12713e-07)
(2.93728 0.00712444 -6.18215e-08)
(2.79354 0.0199896 -3.43765e-07)
(2.29979 0.065531 -3.77131e-07)
(0.987986 0.210263 -1.42102e-06)
(0.131257 0.436885 -2.69347e-07)
(0.207848 0.311185 1.47799e-07)
(0.379385 0.25803 -8.47696e-08)
(0.19384 0.282719 2.19123e-08)
(0.157703 0.308261 4.67915e-08)
(0.101605 0.308634 6.62568e-09)
(0.0695715 0.300705 -4.96698e-08)
(3 3.24308e-09 -1.76785e-08)
(3 -2.20709e-09 -1.81171e-08)
(3 6.49316e-09 -1.86861e-08)
(3 -2.26638e-08 -1.90319e-08)
(2.99999 2.73347e-08 -1.8682e-08)
(2.99998 -6.37265e-08 -1.95907e-08)
(2.99996 7.09745e-07 -1.95702e-08)
(2.99991 1.17195e-06 -2.17991e-08)
(2.99984 9.34629e-06 -2.30602e-08)
(2.99955 1.88999e-05 -2.60724e-08)
(2.99913 0.000103852 -3.23564e-08)
(2.99702 0.000225709 -4.12225e-08)
(2.99391 0.000964994 -4.17827e-08)
(2.97811 0.00221864 -9.98382e-08)
(2.94556 0.00786087 -6.22169e-08)
(2.81812 0.0222024 -3.31645e-07)
(2.39042 0.0724912 -3.23001e-07)
(1.1723 0.227728 -1.30005e-06)
(0.224445 0.528047 -3.7644e-07)
(0.165686 0.396191 8.29091e-08)
(0.393499 0.32396 -5.41039e-08)
(0.233754 0.349859 1.87937e-08)
(0.173652 0.383896 1.711e-08)
(0.114365 0.389645 -8.28761e-08)
(0.0784882 0.383678 -7.98173e-08)
(3 4.39854e-09 -1.75173e-08)
(3 -7.83214e-09 -1.80362e-08)
(3 7.41489e-09 -1.85366e-08)
(3 -4.73306e-08 -1.91404e-08)
(2.99999 2.6996e-08 -1.89075e-08)
(2.99998 -5.7024e-08 -2.04174e-08)
(2.99997 7.33607e-07 -2.00441e-08)
(2.99992 1.22467e-06 -2.28366e-08)
(2.99985 9.401e-06 -2.42361e-08)
(2.99959 1.8626e-05 -2.72717e-08)
(2.99921 9.99725e-05 -3.13482e-08)
(2.99739 0.000210155 -3.67186e-08)
(2.99474 0.000972648 -4.4278e-08)
(2.98106 0.00215092 -7.53709e-08)
(2.95452 0.00811774 -7.04171e-08)
(2.84476 0.0228994 -3.24317e-07)
(2.48645 0.0750346 -2.60532e-07)
(1.40076 0.236339 -1.2567e-06)
(0.346075 0.613415 -5.40143e-07)
(0.130357 0.48222 1.32639e-07)
(0.405892 0.398209 7.56043e-08)
(0.284249 0.421343 8.5022e-08)
(0.200251 0.462699 7.39149e-08)
(0.133568 0.479206 -6.36433e-08)
(0.090121 0.479898 -9.82079e-08)
(3 4.206e-09 -1.73003e-08)
(3 -8.87952e-09 -1.79884e-08)
(3 5.19457e-09 -1.85665e-08)
(3 -5.73182e-08 -1.92361e-08)
(2.99999 1.24496e-08 -1.92822e-08)
(2.99998 -1.10585e-07 -2.10502e-08)
(2.99997 4.37863e-07 -2.05831e-08)
(2.99992 7.80056e-07 -2.3757e-08)
(2.99986 8.34652e-06 -2.46526e-08)
(2.99962 1.68657e-05 -2.74486e-08)
(2.99929 9.14212e-05 -3.09448e-08)
(2.99775 0.000189746 -3.43512e-08)
(2.99553 0.000897567 -4.62921e-08)
(2.98402 0.00192612 -6.33575e-08)
(2.96337 0.00777905 -8.69369e-08)
(2.87154 0.0211163 -2.88674e-07)
(2.58561 0.0723126 -2.73186e-07)
(1.67871 0.232194 -1.24848e-06)
(0.499653 0.676061 -8.69228e-07)
(0.11656 0.571042 9.6778e-08)
(0.42067 0.484892 6.85795e-08)
(0.343507 0.499369 -9.43956e-08)
(0.241429 0.545284 1.16551e-08)
(0.164084 0.578402 -2.86567e-08)
(0.107386 0.59929 -7.02062e-08)
(3 5.04982e-09 -1.70154e-08)
(3 -6.69929e-09 -1.77399e-08)
(3 2.8897e-08 -1.89043e-08)
(3 -2.00664e-08 -1.89882e-08)
(2.99999 1.13772e-07 -2.00684e-08)
(2.99998 -1.83756e-07 -2.11461e-08)
(2.99997 8.44078e-07 -2.12662e-08)
(2.99993 1.21342e-06 -2.3249e-08)
(2.99986 9.83672e-06 -2.46073e-08)
(2.99966 1.95821e-05 -2.74375e-08)
(2.99936 9.69957e-05 -3.0785e-08)
(2.99806 0.000199369 -3.37947e-08)
(2.9962 0.000870783 -4.31399e-08)
(2.98676 0.00182237 -5.53809e-08)
(2.9709 0.00721384 -8.85607e-08)
(2.89653 0.0179852 -2.1894e-07)
(2.68065 0.0643795 -2.32762e-07)
(1.98416 0.205445 -1.12608e-06)
(0.694774 0.672604 -1.13139e-06)
(0.146254 0.662671 3.04289e-08)
(0.436219 0.582703 1.25397e-07)
(0.407892 0.58424 -1.14183e-07)
(0.301043 0.632288 2.08445e-08)
(0.217109 0.690305 4.89307e-08)
(0.140093 0.756465 -3.67186e-08)
(3 -3.41555e-09 -1.71823e-08)
(3 -2.40157e-09 -1.79647e-08)
(3 -1.1179e-08 -1.9223e-08)
(3 -2.93986e-08 -1.90866e-08)
(2.99999 -1.1442e-08 -2.02148e-08)
(2.99998 -1.03408e-07 -2.14314e-08)
(2.99997 1.36701e-06 -2.1589e-08)
(2.99993 3.79639e-08 -2.31054e-08)
(2.99987 1.53461e-05 -2.51144e-08)
(2.9997 4.15116e-06 -2.56735e-08)
(2.99944 0.000136698 -2.74359e-08)
(2.99839 5.7362e-05 -2.96357e-08)
(2.99688 0.00113105 -3.86695e-08)
(2.98928 0.0005448 -4.97369e-08)
(2.97707 0.0089655 -7.81128e-08)
(2.91737 0.00735715 -1.70213e-07)
(2.75737 0.0675472 -1.39357e-07)
(2.25175 0.152759 -7.84397e-07)
(0.940036 0.58051 -8.80584e-07)
(0.244007 0.753897 1.71382e-09)
(0.452909 0.691835 1.93862e-07)
(0.475656 0.672785 -9.90299e-08)
(0.384834 0.72485 1.55065e-08)
(0.309972 0.821928 3.73941e-09)
(0.203478 1.00482 -1.31119e-08)
(3 -1.82099e-10 -4.54221e-12)
(3 4.37709e-10 -6.95129e-12)
(3 1.90035e-09 -9.14932e-12)
(3 4.99989e-09 -1.57154e-11)
(2.99999 1.97415e-08 -1.61838e-11)
(2.99998 2.96034e-08 -2.34872e-11)
(2.99996 1.56204e-07 -1.44994e-11)
(2.9999 2.79989e-07 -1.70533e-11)
(2.99981 1.50055e-06 1.0186e-10)
(2.99941 3.24735e-06 2.44431e-10)
(2.99882 1.43135e-05 8.69403e-10)
(2.99587 3.23977e-05 2.15978e-09)
(2.99116 0.00011452 4.41474e-09)
(2.96903 0.000264001 9.73276e-09)
(2.91813 0.000925462 2.21897e-08)
(2.73543 0.00253726 4.33331e-08)
(2.07584 0.00882448 6.92499e-08)
(0.647437 0.0292437 5.04214e-08)
(-0.0306276 0.0488276 -3.87189e-07)
(0.314309 0.0346643 6.60784e-08)
(0.347278 0.0310108 2.076e-07)
(0.1236 0.03459 -1.2993e-08)
(0.136921 0.0395161 -1.09831e-07)
(0.0765874 0.0400576 3.0939e-08)
(0.0494425 0.0357981 -4.90118e-08)
(3 -3.90317e-10 -4.37563e-12)
(3 1.76777e-09 -7.26011e-12)
(3 6.35388e-09 -9.03502e-12)
(3 1.73957e-08 -1.8337e-11)
(2.99999 6.28391e-08 -1.61398e-11)
(2.99998 9.69317e-08 -2.48774e-11)
(2.99996 4.81597e-07 -1.06242e-11)
(2.9999 8.56855e-07 -1.20454e-11)
(2.99981 4.52227e-06 1.06466e-10)
(2.99942 9.636e-06 2.43795e-10)
(2.99884 4.35438e-05 9.36862e-10)
(2.99596 9.77254e-05 2.0231e-09)
(2.99136 0.000347369 4.52905e-09)
(2.96969 0.000807724 9.31947e-09)
(2.92011 0.00280595 2.26476e-08)
(2.74165 0.00775423 4.29097e-08)
(2.09998 0.0267311 6.97402e-08)
(0.675248 0.0876531 5.40901e-08)
(-0.0177251 0.141947 -3.53592e-07)
(0.303372 0.0934186 9.07052e-08)
(0.349056 0.0805357 1.44544e-07)
(0.128179 0.0892274 -5.02898e-08)
(0.138152 0.0970437 -1.04352e-07)
(0.07994 0.0961085 1.99631e-08)
(0.0525693 0.0906657 -4.90189e-08)
(3 -1.01943e-09 -4.34418e-12)
(3 4.65925e-09 -7.16794e-12)
(3 1.01183e-08 -9.41714e-12)
(3 3.6672e-08 -1.6585e-11)
(2.99999 1.04936e-07 -1.606e-11)
(2.99998 1.6369e-07 -2.4741e-11)
(2.99996 7.73858e-07 -1.37769e-11)
(2.9999 1.33808e-06 -1.31736e-11)
(2.99982 7.12973e-06 1.19635e-10)
(2.99944 1.49008e-05 2.7605e-10)
(2.99889 7.06509e-05 9.00652e-10)
(2.99613 0.000157424 2.16198e-09)
(2.99176 0.000567469 4.27469e-09)
(2.97105 0.00133869 9.29942e-09)
(2.92419 0.0045644 2.10896e-08)
(2.75437 0.0127452 3.17359e-08)
(2.14967 0.043121 4.83607e-08)
(0.739937 0.1412 1.17779e-08)
(0.0127527 0.243036 -3.07153e-07)
(0.281673 0.160514 6.66477e-08)
(0.3554 0.136847 9.41651e-08)
(0.141473 0.152342 -1.104e-07)
(0.141664 0.164575 -6.82377e-08)
(0.0847462 0.163502 2.16956e-08)
(0.0567506 0.156526 -3.99088e-08)
(3 -1.5316e-09 -4.45054e-12)
(3 9.49068e-09 -6.63014e-12)
(3 5.59791e-09 -9.34006e-12)
(3 4.05062e-08 -1.41991e-11)
(2.99999 9.36658e-08 -1.56722e-11)
(2.99998 1.44029e-07 -2.36083e-11)
(2.99996 9.01816e-07 -1.07749e-11)
(2.99991 1.57941e-06 -1.33631e-11)
(2.99983 8.86367e-06 9.90421e-11)
(2.99947 1.82152e-05 1.91303e-10)
(2.99896 9.07077e-05 9.25696e-10)
(2.99637 0.000200983 1.69155e-09)
(2.99235 0.000747531 4.18432e-09)
(2.97298 0.00177849 8.67527e-09)
(2.93005 0.00600692 2.07001e-08)
(2.77213 0.0168428 3.15977e-08)
(2.21795 0.0557735 5.91286e-08)
(0.844196 0.181856 9.1636e-09)
(0.0621295 0.342017 -2.66602e-07)
(0.248614 0.232459 8.64732e-08)
(0.365932 0.195984 5.62412e-08)
(0.163375 0.217186 -1.64958e-07)
(0.147923 0.235144 -3.29431e-08)
(0.0920446 0.234225 1.37845e-08)
(0.0623792 0.226357 -2.67995e-08)
(3 1.28847e-10 -5.27156e-12)
(3 7.21988e-09 -3.7134e-12)
(3 8.18684e-10 -1.50032e-11)
(3 1.52435e-08 -4.77324e-12)
(2.99999 4.40799e-08 -2.17191e-11)
(2.99998 2.41009e-08 -2.0537e-11)
(2.99996 7.87025e-07 -1.44116e-11)
(2.99991 1.35112e-06 -1.85044e-11)
(2.99983 9.29522e-06 5.5031e-11)
(2.99951 1.90307e-05 1.19574e-10)
(2.99904 0.000101284 7.43371e-10)
(2.99667 0.000223838 1.3995e-09)
(2.99308 0.000881243 3.68088e-09)
(2.97537 0.0020876 7.82217e-09)
(2.93728 0.00712429 1.97433e-08)
(2.79355 0.0199895 3.39526e-08)
(2.29981 0.0655304 6.49029e-08)
(0.98802 0.210261 3.99748e-08)
(0.131258 0.436893 -2.15955e-07)
(0.207828 0.311176 4.58356e-08)
(0.379366 0.258022 9.7097e-08)
(0.193797 0.282728 -1.27242e-07)
(0.157678 0.308269 -4.97011e-08)
(0.101603 0.308654 1.95728e-08)
(0.0695687 0.300712 -7.87275e-09)
(3 3.28749e-09 -4.06607e-12)
(3 -2.13539e-09 -5.76e-12)
(3 6.7608e-09 -8.10947e-12)
(3 -2.23644e-08 -1.2327e-11)
(2.99999 2.82831e-08 -1.32081e-11)
(2.99998 -6.20657e-08 -2.16214e-11)
(2.99996 7.13061e-07 -1.26919e-11)
(2.99991 1.17764e-06 -1.9179e-11)
(2.99984 9.35474e-06 4.97823e-11)
(2.99955 1.89108e-05 9.98774e-11)
(2.99913 0.000103862 6.12237e-10)
(2.99702 0.000225712 1.12925e-09)
(2.99391 0.000964994 3.34861e-09)
(2.97812 0.00221859 6.99457e-09)
(2.94556 0.00786075 1.88146e-08)
(2.81813 0.0222022 3.48426e-08)
(2.39044 0.0724902 8.41081e-08)
(1.17235 0.227725 8.99371e-08)
(0.224451 0.528056 -1.30495e-07)
(0.16567 0.396192 1.19621e-08)
(0.393489 0.323958 6.24745e-08)
(0.233718 0.349867 -1.18013e-07)
(0.173629 0.383888 -3.70273e-08)
(0.114365 0.389647 7.13649e-08)
(0.078481 0.383682 7.37534e-09)
(3 4.42429e-09 -3.91316e-12)
(3 -7.71243e-09 -6.05493e-12)
(3 7.55215e-09 -7.38637e-12)
(3 -4.70116e-08 -1.45346e-11)
(2.99999 2.7506e-08 -1.13013e-11)
(2.99998 -5.67206e-08 -2.20499e-11)
(2.99997 7.36202e-07 -1.38317e-11)
(2.99992 1.2286e-06 -2.67515e-11)
(2.99985 9.40584e-06 2.03428e-11)
(2.99959 1.86331e-05 5.08257e-11)
(2.99921 9.99812e-05 4.46131e-10)
(2.99739 0.000210162 7.63188e-10)
(2.99475 0.000972647 2.97866e-09)
(2.98106 0.00215086 5.16078e-09)
(2.95452 0.00811757 1.76156e-08)
(2.84477 0.0228989 3.58551e-08)
(2.48647 0.0750327 9.68811e-08)
(1.40081 0.236335 1.59732e-07)
(0.346086 0.613423 1.55952e-09)
(0.130348 0.482226 -1.36874e-07)
(0.405892 0.398215 -1.22798e-08)
(0.284235 0.42135 -1.39377e-07)
(0.20024 0.462681 -9.67557e-08)
(0.133573 0.479191 2.72584e-08)
(0.0901164 0.479898 3.36929e-08)
(3 4.26883e-09 -4.47176e-12)
(3 -8.72893e-09 -1.97319e-12)
(3 5.28824e-09 -8.64557e-12)
(3 -5.70798e-08 -1.29619e-11)
(2.99999 1.28641e-08 -1.06731e-11)
(2.99998 -1.09295e-07 -2.842e-11)
(2.99997 4.39607e-07 3.73224e-11)
(2.99992 7.83369e-07 -6.38756e-12)
(2.99986 8.35213e-06 -8.66566e-12)
(2.99962 1.68764e-05 2.83244e-11)
(2.99929 9.14353e-05 5.35608e-10)
(2.99775 0.000189766 8.45517e-10)
(2.99553 0.000897565 3.23966e-09)
(2.98402 0.00192607 5.27501e-09)
(2.96337 0.0077788 1.63509e-08)
(2.87155 0.0211154 3.98681e-08)
(2.58563 0.0723099 8.35858e-08)
(1.67877 0.232186 2.06416e-07)
(0.49967 0.676062 1.03129e-07)
(0.116556 0.57105 -1.82461e-08)
(0.420674 0.484903 -2.60716e-08)
(0.343511 0.499374 5.16145e-08)
(0.241429 0.545264 -3.69004e-08)
(0.164094 0.578377 2.33945e-08)
(0.107386 0.599284 6.58591e-08)
(3 5.10878e-09 -2.02621e-12)
(3 -6.6882e-09 -4.06104e-12)
(3 2.88098e-08 -7.27126e-12)
(3 -2.02826e-08 -1.65326e-11)
(2.99999 1.13224e-07 -1.56888e-11)
(2.99998 -1.83947e-07 -1.731e-11)
(2.99997 8.40367e-07 -9.8043e-12)
(2.99993 1.20848e-06 -9.77999e-12)
(2.99986 9.83078e-06 4.28788e-11)
(2.99966 1.95759e-05 7.76179e-11)
(2.99936 9.69818e-05 3.75369e-10)
(2.99806 0.00019935 6.18976e-10)
(2.9962 0.000870728 2.45448e-09)
(2.98676 0.00182226 4.09817e-09)
(2.9709 0.00721349 1.28941e-08)
(2.89653 0.0179843 3.12341e-08)
(2.68066 0.0643757 6.70181e-08)
(1.98421 0.205434 2.1277e-07)
(0.694797 0.672587 2.29929e-07)
(0.146261 0.662677 -2.43716e-08)
(0.436223 0.582715 -1.01349e-07)
(0.407906 0.584246 8.06601e-08)
(0.301051 0.632274 -4.49881e-08)
(0.217122 0.690289 -1.50299e-08)
(0.140094 0.756456 8.35912e-08)
(3 -3.44076e-09 -9.07678e-13)
(3 -2.57068e-09 -4.16719e-12)
(3 -1.176e-08 -6.92864e-12)
(3 -3.04254e-08 -1.60261e-11)
(2.99999 -1.54383e-08 -1.26116e-11)
(2.99998 -1.11234e-07 -3.19434e-11)
(2.99997 1.33531e-06 -5.2585e-12)
(2.99993 1.27748e-08 -1.1397e-11)
(2.99987 1.53273e-05 2.12826e-11)
(2.9997 4.14601e-06 3.82763e-11)
(2.99944 0.00013669 1.83992e-10)
(2.99839 5.73434e-05 3.03327e-10)
(2.99688 0.00113097 1.67679e-09)
(2.98928 0.000544725 2.95868e-09)
(2.97707 0.00896509 1.05895e-08)
(2.91737 0.00735641 2.40684e-08)
(2.75738 0.0675449 4.67203e-08)
(2.25179 0.152749 1.55044e-07)
(0.94006 0.580487 2.57079e-07)
(0.24402 0.753904 3.28567e-09)
(0.452914 0.691846 -1.48364e-07)
(0.475672 0.672787 1.03127e-07)
(0.384849 0.724839 -6.16253e-08)
(0.309986 0.821918 2.19616e-08)
(0.203478 1.00481 8.8428e-08)
(3 -1.81135e-10 2.22908e-13)
(3 4.37587e-10 1.98789e-14)
(3 1.89338e-09 -5.64361e-13)
(3 4.97374e-09 -1.22306e-12)
(2.99999 1.96764e-08 -4.83872e-12)
(2.99998 2.94373e-08 -1.10555e-11)
(2.99996 1.55878e-07 -2.16946e-11)
(2.9999 2.79326e-07 -3.70596e-11)
(2.99981 1.4992e-06 -3.64276e-11)
(2.99941 3.2448e-06 -3.32615e-11)
(2.99882 1.43098e-05 2.54925e-10)
(2.99587 3.23882e-05 6.53798e-10)
(2.99116 0.000114508 2.58046e-09)
(2.96903 0.00026397 5.92642e-09)
(2.91813 0.000925428 1.94549e-08)
(2.73543 0.00253718 5.69687e-08)
(2.07584 0.00882451 1.43685e-07)
(0.64741 0.0292438 2.78039e-07)
(-0.030646 0.0488271 -2.12645e-07)
(0.314315 0.0346631 -5.40069e-08)
(0.347287 0.0310085 1.00463e-07)
(0.123602 0.0345856 -2.92814e-08)
(0.136923 0.0395138 -7.37994e-08)
(0.0766027 0.0400624 5.17672e-10)
(0.0494493 0.035805 4.8953e-08)
(3 -3.90155e-10 -6.74268e-15)
(3 1.76167e-09 3.58857e-13)
(3 6.33177e-09 -7.1311e-13)
(3 1.73253e-08 2.06517e-12)
(2.99999 6.26892e-08 -3.85183e-12)
(2.99998 9.659e-08 -7.93758e-12)
(2.99996 4.80967e-07 -1.97902e-11)
(2.9999 8.55716e-07 -3.15462e-11)
(2.99981 4.52009e-06 -1.55383e-11)
(2.99942 9.63216e-06 -2.51538e-13)
(2.99884 4.35373e-05 2.84842e-10)
(2.99596 9.77103e-05 7.0398e-10)
(2.99136 0.000347346 2.6529e-09)
(2.96969 0.000807669 5.64327e-09)
(2.92012 0.00280587 1.90016e-08)
(2.74165 0.00775407 5.06439e-08)
(2.09997 0.0267311 1.26543e-07)
(0.675222 0.0876537 2.58547e-07)
(-0.017744 0.141947 -1.97504e-07)
(0.303374 0.0934165 -4.68585e-08)
(0.349064 0.0805339 9.02862e-08)
(0.128176 0.0892251 -3.36946e-08)
(0.138151 0.0970378 -6.59297e-08)
(0.0799459 0.0961106 4.48116e-09)
(0.0525735 0.0906741 5.09966e-08)
(3 -1.02192e-09 -6.34275e-14)
(3 4.64563e-09 -2.92769e-13)
(3 1.00681e-08 -7.89376e-13)
(3 3.65405e-08 -1.74773e-12)
(2.99999 1.04593e-07 -3.6112e-12)
(2.99998 1.62933e-07 -8.20989e-12)
(2.99996 7.725e-07 -1.2433e-11)
(2.9999 1.33574e-06 -2.2606e-11)
(2.99982 7.1258e-06 5.90878e-12)
(2.99944 1.48945e-05 3.99352e-11)
(2.99889 7.06407e-05 3.48462e-10)
(2.99613 0.000157405 8.44483e-10)
(2.99176 0.000567436 2.55255e-09)
(2.97105 0.00133863 5.5171e-09)
(2.92419 0.00456428 1.70279e-08)
(2.75437 0.0127449 4.07353e-08)
(2.14966 0.043121 9.72847e-08)
(0.739912 0.141201 1.89161e-07)
(0.0127338 0.243036 -1.55219e-07)
(0.281672 0.160511 -4.91746e-08)
(0.355411 0.136842 7.69851e-08)
(0.14147 0.152341 -1.55359e-08)
(0.14166 0.16458 -6.62767e-08)
(0.0847515 0.163518 1.39646e-08)
(0.0567565 0.156542 5.05318e-08)
(3 -1.52769e-09 -3.97572e-14)
(3 9.55778e-09 -4.6633e-13)
(3 5.55721e-09 -1.01648e-12)
(3 4.08271e-08 -2.87194e-12)
(2.99999 9.3658e-08 -3.62417e-12)
(2.99998 1.44285e-07 -8.88801e-12)
(2.99996 9.01811e-07 -9.24847e-12)
(2.99991 1.57928e-06 -1.88071e-11)
(2.99983 8.86251e-06 1.16888e-11)
(2.99947 1.82133e-05 3.05077e-11)
(2.99896 9.07013e-05 3.73759e-10)
(2.99637 0.000200966 7.38097e-10)
(2.99235 0.000747494 2.3328e-09)
(2.97298 0.00177839 5.18636e-09)
(2.93005 0.00600671 1.4747e-08)
(2.77213 0.0168423 3.21259e-08)
(2.21795 0.0557728 7.75472e-08)
(0.844176 0.181856 1.37681e-07)
(0.0621089 0.342017 -1.23632e-07)
(0.248612 0.232452 -3.16926e-08)
(0.365949 0.195977 5.6506e-08)
(0.163388 0.217183 -1.30182e-08)
(0.14793 0.235143 -4.78978e-08)
(0.0920441 0.234233 4.63989e-08)
(0.0623794 0.226371 5.63177e-08)
(3 1.32014e-10 -4.75898e-13)
(3 7.21028e-09 8.28906e-13)
(3 8.36897e-10 -3.56289e-12)
(3 1.52134e-08 2.13908e-12)
(2.99999 4.40412e-08 -6.30424e-12)
(2.99998 2.39874e-08 -5.72321e-12)
(2.99996 7.86699e-07 -8.33056e-12)
(2.99991 1.35066e-06 -1.66229e-11)
(2.99983 9.29392e-06 -8.7201e-12)
(2.99951 1.90292e-05 -5.02731e-12)
(2.99904 0.000101275 2.24871e-10)
(2.99667 0.00022382 4.57693e-10)
(2.99308 0.000881197 1.86229e-09)
(2.97537 0.00208746 3.93513e-09)
(2.93728 0.00712394 1.24999e-08)
(2.79355 0.0199887 2.85444e-08)
(2.29981 0.0655287 5.53227e-08)
(0.987997 0.210259 1.18174e-07)
(0.131239 0.43689 -9.31418e-08)
(0.207824 0.311166 -4.62191e-08)
(0.379385 0.258014 4.72915e-08)
(0.193811 0.282725 -2.19197e-08)
(0.15768 0.308268 -5.51442e-08)
(0.101605 0.308659 -4.02491e-08)
(0.0695752 0.300728 3.30504e-08)
(3 3.27959e-09 -1.10107e-13)
(3 -2.18359e-09 2.43622e-15)
(3 6.83395e-09 -7.64138e-13)
(3 -2.25703e-08 6.24517e-13)
(2.99999 2.85763e-08 -2.84753e-12)
(2.99998 -6.205e-08 -5.27828e-12)
(2.99996 7.13664e-07 -5.99589e-12)
(2.99991 1.17864e-06 -1.24097e-11)
(2.99984 9.3552e-06 -1.23485e-11)
(2.99955 1.89094e-05 -2.45649e-11)
(2.99913 0.000103853 7.80523e-11)
(2.99702 0.000225689 1.97929e-10)
(2.99391 0.00096493 1.29855e-09)
(2.97812 0.00221844 2.75236e-09)
(2.94556 0.00786038 9.886e-09)
(2.81813 0.0222014 2.12359e-08)
(2.39044 0.0724884 5.55052e-08)
(1.17233 0.227723 9.08719e-08)
(0.224434 0.528051 -7.13941e-08)
(0.165664 0.396184 -4.08887e-08)
(0.393502 0.323947 4.27529e-08)
(0.233725 0.34986 -1.4772e-08)