/*--------------------------------*- C++ -*----------------------------------*\
| =========                 |                                                 |
| \\      /  F ield         | OpenFOAM: The Open Source CFD Toolbox           |
|  \\    /   O peration     | Version:  4.1                                   |
|   \\  /    A nd           | Web:      www.OpenFOAM.org                      |
|    \\/     M anipulation  |                                                 |
\*---------------------------------------------------------------------------*/
FoamFile
{
    version     2.0;
    format      ascii;
    class       volScalarField;
    location    "7.24";
    object      p;
}
// * * * * * * * * * * * * * * * * * * * * * * * * * * * * * * * * * * * * * //

dimensions      [1 -1 -2 0 0 0 0];

internalField   nonuniform List<scalar> 
52500
(
1.00001
1.00004
1.00012
1.00027
1.00077
1.00158
1.0045
1.00899
1.02694
1.04994
1.17325
1.31943
2.18155
3.85581
9.3626
11.4372
11.2318
11.0977
11.1744
11.3908
11.6282
11.7811
11.8967
11.9892
12.0621
1.00001
1.00003
1.00012
1.00026
1.00076
1.00156
1.00445
1.00888
1.02664
1.04931
1.17152
1.31506
2.16925
3.82111
9.27683
11.4336
11.2241
11.0854
11.1633
11.381
11.6182
11.7709
11.8881
11.9821
12.0565
1.00001
1.00003
1.00012
1.00026
1.00074
1.00152
1.00433
1.00863
1.02602
1.04782
1.16813
1.30591
2.14324
3.74692
9.08618
11.4254
11.2043
11.0513
11.1288
11.3452
11.5788
11.7282
11.8443
11.9371
12.0107
1.00001
1.00003
1.00011
1.00025
1.00071
1.00145
1.00416
1.00822
1.02511
1.04539
1.16306
1.29219
2.10314
3.63306
8.78717
11.4179
11.1752
10.9967
11.0715
11.2829
11.5098
11.6532
11.7652
11.8546
11.9278
1.00001
1.00003
1.00011
1.00023
1.00067
1.00137
1.00393
1.00775
1.02386
1.04277
1.15505
1.27436
2.0526
3.47673
8.38062
11.4143
11.1379
10.9232
10.9938
11.1967
11.4143
11.549
11.6546
11.7395
11.8128
1.00001
1.00003
1.0001
1.00022
1.00063
1.00128
1.00368
1.00724
1.02232
1.03988
1.14495
1.25426
1.9809
3.2833
7.8544
11.4184
11.0978
10.8328
10.8968
11.0868
11.2914
11.413
11.5069
11.5826
11.6555
1.00001
1.00003
1.00009
1.0002
1.00058
1.00119
1.00341
1.00676
1.02051
1.03727
1.13221
1.23397
1.8836
3.05657
7.19798
11.4295
11.0592
10.7266
10.7809
10.9511
11.1372
11.2385
11.3124
11.3695
11.4342
1.00001
1.00002
1.00008
1.00018
1.00054
1.0011
1.00313
1.00632
1.01841
1.03564
1.11537
1.21457
1.77065
2.80432
6.4334
11.4229
11.0196
10.6109
10.6508
10.7914
10.9511
11.0221
11.0618
11.0802
11.1166
1
1.00002
1.00008
1.00016
1.00048
1.00098
1.00279
1.00565
1.01631
1.03209
1.10004
1.19191
1.6569
2.53953
5.58068
11.3164
10.9358
10.4879
10.507
10.6045
10.7267
10.7542
10.7401
10.6809
10.6221
1
1.00002
1.00007
1.00014
1.00042
1.00086
1.00245
1.00496
1.01436
1.02819
1.08827
1.16759
1.57611
2.34424
5.03854
10.8717
10.7304
10.3722
10.3429
10.3914
10.4572
10.4347
10.3387
10.1169
9.78022
1.00001
1.00004
1.00013
1.00027
1.00078
1.00159
1.00451
1.009
1.02696
1.04997
1.17326
1.3195
2.1816
3.85606
9.36306
11.4372
11.2319
11.0978
11.1745
11.3909
11.6283
11.7813
11.8968
11.9894
12.0623
1.00001
1.00004
1.00012
1.00027
1.00077
1.00157
1.00446
1.00889
1.02665
1.04933
1.17153
1.31512
2.1693
3.82136
9.2773
11.4336
11.2242
11.0855
11.1634
11.3811
11.6183
11.771
11.8882
11.9822
12.0567
1.00001
1.00004
1.00012
1.00026
1.00075
1.00153
1.00434
1.00864
1.02603
1.04785
1.16813
1.30599
2.14327
3.74717
9.08664
11.4254
11.2044
11.0514
11.1289
11.3453
11.5789
11.7283
11.8445
11.9373
12.0109
1.00001
1.00004
1.00012
1.00025
1.00071
1.00146
1.00416
1.00823
1.02512
1.04541
1.16309
1.29224
2.10321
3.63331
8.78767
11.4179
11.1753
10.9968
11.0716
11.283
11.5099
11.6534
11.7654
11.8548
11.928
1.00001
1.00003
1.00011
1.00024
1.00068
1.00138
1.00394
1.00776
1.02387
1.04279
1.15508
1.27441
2.05267
3.47699
8.38115
11.4143
11.138
10.9232
10.9938
11.1968
11.4144
11.5491
11.6547
11.7396
11.813
1.00001
1.00003
1.0001
1.00022
1.00063
1.00129
1.00369
1.00725
1.02233
1.0399
1.14497
1.25432
1.98097
3.28356
7.85498
11.4184
11.0978
10.8329
10.8969
11.0869
11.2915
11.4131
11.507
11.5828
11.6556
1.00001
1.00003
1.0001
1.00021
1.00059
1.0012
1.00342
1.00678
1.02052
1.0373
1.13221
1.23405
1.88361
3.05682
7.19855
11.4295
11.0592
10.7267
10.7809
10.9512
11.1373
11.2386
11.3125
11.3696
11.4343
1.00001
1.00003
1.00009
1.00019
1.00054
1.00111
1.00314
1.00633
1.01842
1.03566
1.11539
1.21463
1.77071
2.80456
6.43397
11.423
11.0196
10.611
10.6509
10.7915
10.9512
11.0222
11.0619
11.0803
11.1167
1.00001
1.00002
1.00008
1.00017
1.00048
1.00099
1.0028
1.00566
1.01632
1.0321
1.10006
1.19195
1.65696
2.53975
5.58129
11.3165
10.9359
10.488
10.507
10.6046
10.7268
10.7543
10.7402
10.681
10.6222
1
1.00002
1.00007
1.00015
1.00043
1.00087
1.00246
1.00497
1.01437
1.0282
1.08828
1.16763
1.57615
2.34439
5.03884
10.872
10.7305
10.3722
10.343
10.3915
10.4573
10.4347
10.3388
10.117
9.78029
1.00001
1.00004
1.00013
1.00027
1.00078
1.00159
1.00451
1.009
1.02696
1.04997
1.17326
1.31951
2.18161
3.85608
9.3631
11.4372
11.2319
11.0978
11.1745
11.3909
11.6283
11.7813
11.8968
11.9894
12.0623
1.00001
1.00004
1.00012
1.00027
1.00077
1.00157
1.00446
1.00889
1.02665
1.04933
1.17153
1.31513
2.1693
3.82138
9.27735
11.4336
11.2242
11.0855
11.1634
11.3811
11.6183
11.771
11.8882
11.9822
12.0567
1.00001
1.00004
1.00012
1.00026
1.00075
1.00153
1.00434
1.00864
1.02603
1.04785
1.16813
1.30599
2.14327
3.74719
9.08669
11.4254
11.2044
11.0514
11.1289
11.3453
11.5789
11.7283
11.8445
11.9373
12.0109
1.00001
1.00004
1.00012
1.00025
1.00071
1.00146
1.00416
1.00823
1.02512
1.04541
1.16309
1.29224
2.10322
3.63333
8.78772
11.4179
11.1753
10.9968
11.0716
11.283
11.5099
11.6534
11.7654
11.8548
11.928
1.00001
1.00003
1.00011
1.00024
1.00068
1.00138
1.00394
1.00776
1.02387
1.04279
1.15508
1.27441
2.05267
3.47701
8.3812
11.4142
11.138
10.9232
10.9938
11.1968
11.4144
11.5491
11.6547
11.7396
11.813
1.00001
1.00003
1.0001
1.00022
1.00063
1.00129
1.00369
1.00725
1.02234
1.0399
1.14497
1.25432
1.98098
3.28358
7.85503
11.4184
11.0978
10.8329
10.8969
11.0869
11.2915
11.4131
11.507
11.5828
11.6557
1.00001
1.00003
1.0001
1.00021
1.00059
1.0012
1.00342
1.00678
1.02052
1.0373
1.13221
1.23406
1.88362
3.05684
7.19862
11.4295
11.0592
10.7267
10.781
10.9512
11.1373
11.2386
11.3125
11.3696
11.4343
1.00001
1.00003
1.00009
1.00019
1.00054
1.00111
1.00314
1.00633
1.01842
1.03566
1.11539
1.21463
1.77072
2.80458
6.43404
11.4229
11.0196
10.611
10.6509
10.7915
10.9512
11.0222
11.0619
11.0803
11.1167
1.00001
1.00002
1.00008
1.00017
1.00048
1.00099
1.0028
1.00566
1.01632
1.0321
1.10006
1.19195
1.65697
2.53977
5.58136
11.3165
10.9359
10.488
10.507
10.6046
10.7268
10.7543
10.7402
10.681
10.6222
1
1.00002
1.00007
1.00015
1.00043
1.00087
1.00246
1.00497
1.01437
1.0282
1.08829
1.16763
1.57615
2.3444
5.03888
10.872
10.7305
10.3722
10.343
10.3915
10.4573
10.4348
10.3388
10.117
9.78029
1.00001
1.00004
1.00013
1.00027
1.00078
1.00159
1.00451
1.009
1.02696
1.04997
1.17326
1.31951
2.18161
3.85608
9.36311
11.4372
11.2319
11.0978
11.1745
11.3909
11.6283
11.7813
11.8968
11.9894
12.0623
1.00001
1.00004
1.00012
1.00027
1.00077
1.00157
1.00446
1.00889
1.02665
1.04933
1.17153
1.31513
2.1693
3.82138
9.27735
11.4336
11.2242
11.0855
11.1634
11.3811
11.6183
11.771
11.8882
11.9822
12.0567
1.00001
1.00004
1.00012
1.00026
1.00075
1.00153
1.00434
1.00864
1.02603
1.04785
1.16813
1.30599
2.14327
3.74719
9.0867
11.4254
11.2044
11.0514
11.1289
11.3453
11.5789
11.7283
11.8445
11.9373
12.0109
1.00001
1.00004
1.00012
1.00025
1.00071
1.00146
1.00416
1.00823
1.02512
1.04541
1.16309
1.29224
2.10322
3.63333
8.78772
11.4179
11.1753
10.9968
11.0716
11.283
11.5099
11.6534
11.7654
11.8548
11.928
1.00001
1.00003
1.00011
1.00024
1.00068
1.00138
1.00394
1.00776
1.02387
1.04279
1.15508
1.27441
2.05268
3.47701
8.38121
11.4142
11.138
10.9232
10.9938
11.1968
11.4144
11.5491
11.6547
11.7396
11.813
1.00001
1.00003
1.0001
1.00022
1.00063
1.00129
1.00369
1.00725
1.02234
1.0399
1.14497
1.25432
1.98098
3.28358
7.85504
11.4184
11.0978
10.8329
10.8969
11.0869
11.2915
11.4131
11.507
11.5828
11.6557
1.00001
1.00003
1.0001
1.00021
1.00059
1.0012
1.00342
1.00678
1.02052
1.0373
1.13221
1.23406
1.88362
3.05684
7.19862
11.4295
11.0592
10.7267
10.781
10.9512
11.1373
11.2386
11.3125
11.3696
11.4343
1.00001
1.00003
1.00009
1.00019
1.00054
1.00111
1.00314
1.00633
1.01842
1.03566
1.11539
1.21463
1.77072
2.80458
6.43405
11.4229
11.0196
10.611
10.6509
10.7915
10.9512
11.0222
11.0619
11.0803
11.1167
1.00001
1.00002
1.00008
1.00017
1.00048
1.00099
1.0028
1.00566
1.01632
1.0321
1.10006
1.19195
1.65697
2.53977
5.58137
11.3165
10.9359
10.488
10.507
10.6046
10.7268
10.7543
10.7402
10.681
10.6222
1
1.00002
1.00007
1.00015
1.00043
1.00087
1.00246
1.00497
1.01437
1.0282
1.08829
1.16763
1.57615
2.3444
5.03888
10.872
10.7306
10.3722
10.343
10.3915
10.4573
10.4348
10.3388
10.117
9.78029
1.00001
1.00004
1.00013
1.00027
1.00078
1.00159
1.00451
1.009
1.02696
1.04997
1.17326
1.31951
2.18161
3.85609
9.36312
11.4372
11.2319
11.0978
11.1745
11.3909
11.6283
11.7813
11.8968
11.9894
12.0623
1.00001
1.00004
1.00012
1.00027
1.00077
1.00157
1.00446
1.00889
1.02665
1.04933
1.17153
1.31513
2.1693
3.82138
9.27736
11.4336
11.2242
11.0855
11.1634
11.3811
11.6183
11.771
11.8882
11.9822
12.0567
1.00001
1.00004
1.00012
1.00026
1.00075
1.00153
1.00434
1.00864
1.02603
1.04785
1.16813
1.30599
2.14327
3.74719
9.08671
11.4254
11.2044
11.0514
11.1289
11.3453
11.5789
11.7283
11.8445
11.9373
12.0109
1.00001
1.00004
1.00012
1.00025
1.00071
1.00146
1.00416
1.00823
1.02512
1.04541
1.16309
1.29224
2.10322
3.63333
8.78773
11.4179
11.1753
10.9968
11.0716
11.283
11.5099
11.6534
11.7654
11.8548
11.928
1.00001
1.00003
1.00011
1.00024
1.00068
1.00138
1.00394
1.00776
1.02387
1.04279
1.15508
1.27441
2.05268
3.47701
8.38122
11.4142
11.138
10.9232
10.9938
11.1968
11.4144
11.5491
11.6547
11.7396
11.813
1.00001
1.00003
1.0001
1.00022
1.00063
1.00129
1.00369
1.00725
1.02234
1.0399
1.14497
1.25432
1.98098
3.28359
7.85505
11.4184
11.0978
10.8329
10.8969
11.0869
11.2915
11.4131
11.507
11.5828
11.6557
1.00001
1.00003
1.0001
1.00021
1.00059
1.0012
1.00342
1.00678
1.02052
1.0373
1.13221
1.23406
1.88362
3.05685
7.19864
11.4295
11.0592
10.7267
10.781
10.9512
11.1373
11.2386
11.3125
11.3696
11.4343
1.00001
1.00003
1.00009
1.00019
1.00054
1.00111
1.00314
1.00633
1.01842
1.03566
1.11539
1.21463
1.77072
2.80459
6.43407
11.4229
11.0196
10.611
10.6509
10.7915
10.9512
11.0222
11.0619
11.0803
11.1167
1.00001
1.00002
1.00008
1.00017
1.00048
1.00099
1.0028
1.00566
1.01632
1.0321
1.10006
1.19195
1.65697
2.53978
5.58138
11.3165
10.9359
10.488
10.507
10.6046
10.7268
10.7543
10.7402
10.681
10.6222
1
1.00002
1.00007
1.00015
1.00043
1.00087
1.00246
1.00497
1.01437
1.0282
1.08829
1.16763
1.57615
2.3444
5.03889
10.872
10.7306
10.3722
10.343
10.3915
10.4573
10.4348
10.3388
10.117
9.78029
1.00001
1.00004
1.00013
1.00027
1.00078
1.00159
1.00451
1.009
1.02696
1.04997
1.17326
1.31951
2.18161
3.85609
9.36312
11.4372
11.2319
11.0978
11.1745
11.3909
11.6283
11.7813
11.8968
11.9894
12.0623
1.00001
1.00004
1.00012
1.00027
1.00077
1.00157
1.00446
1.00889
1.02665
1.04933
1.17153
1.31513
2.1693
3.82138
9.27737
11.4336
11.2242
11.0855
11.1634
11.3811
11.6183
11.771
11.8882
11.9823
12.0567
1.00001
1.00004
1.00012
1.00026
1.00075
1.00153
1.00434
1.00864
1.02603
1.04785
1.16813
1.30599
2.14327
3.74719
9.08671
11.4254
11.2044
11.0514
11.1289
11.3453
11.5789
11.7283
11.8445
11.9373
12.0109
1.00001
1.00004
1.00012
1.00025
1.00071
1.00146
1.00416
1.00823
1.02512
1.04541
1.16309
1.29224
2.10322
3.63333
8.78773
11.4179
11.1753
10.9968
11.0716
11.283
11.5099
11.6534
11.7654
11.8548
11.928
1.00001
1.00003
1.00011
1.00024
1.00068
1.00138
1.00394
1.00776
1.02387
1.04279
1.15508
1.27442
2.05268
3.47701
8.38122
11.4142
11.138
10.9232
10.9938
11.1968
11.4144
11.5491
11.6547
11.7396
11.813
1.00001
1.00003
1.0001
1.00022
1.00063
1.00129
1.00369
1.00725
1.02234
1.0399
1.14497
1.25432
1.98098
3.28359
7.85506
11.4184
11.0978
10.8329
10.8969
11.0869
11.2915
11.4131
11.507
11.5828
11.6557
1.00001
1.00003
1.0001
1.00021
1.00059
1.0012
1.00342
1.00678
1.02052
1.0373
1.13221
1.23406
1.88362
3.05685
7.19864
11.4295
11.0592
10.7267
10.781
10.9512
11.1373
11.2386
11.3125
11.3696
11.4343
1.00001
1.00003
1.00009
1.00019
1.00054
1.00111
1.00314
1.00633
1.01842
1.03566
1.11539
1.21463
1.77072
2.80459
6.43407
11.4229
11.0196
10.611
10.6509
10.7915
10.9512
11.0222
11.0619
11.0803
11.1167
1.00001
1.00002
1.00008
1.00017
1.00048
1.00099
1.0028
1.00566
1.01632
1.0321
1.10006
1.19195
1.65698
2.53978
5.58139
11.3165
10.9359
10.488
10.507
10.6046
10.7268
10.7543
10.7402
10.681
10.6222
1
1.00002
1.00007
1.00015
1.00043
1.00087
1.00246
1.00497
1.01437
1.0282
1.08829
1.16763
1.57615
2.3444
5.03889
10.872
10.7306
10.3722
10.343
10.3915
10.4573
10.4348
10.3388
10.117
9.78029
1.00001
1.00004
1.00013
1.00027
1.00078
1.00159
1.00451
1.009
1.02696
1.04997
1.17326
1.31951
2.18161
3.85608
9.36311
11.4372
11.2319
11.0978
11.1745
11.3909
11.6283
11.7813
11.8968
11.9894
12.0623
1.00001
1.00004
1.00012
1.00027
1.00077
1.00157
1.00446
1.00889
1.02665
1.04933
1.17153
1.31513
2.1693
3.82138
9.27736
11.4336
11.2242
11.0855
11.1634
11.3811
11.6183
11.771
11.8882
11.9822
12.0567
1.00001
1.00004
1.00012
1.00026
1.00075
1.00153
1.00434
1.00864
1.02603
1.04785
1.16813
1.30599
2.14327
3.74719
9.0867
11.4254
11.2044
11.0514
11.1289
11.3453
11.5789
11.7283
11.8445
11.9373
12.0109
1.00001
1.00004
1.00012
1.00025
1.00071
1.00146
1.00416
1.00823
1.02512
1.04541
1.16309
1.29224
2.10322
3.63333
8.78772
11.4179
11.1753
10.9968
11.0716
11.283
11.5099
11.6534
11.7654
11.8548
11.928
1.00001
1.00003
1.00011
1.00024
1.00068
1.00138
1.00394
1.00776
1.02387
1.04279
1.15508
1.27441
2.05268
3.47701
8.38121
11.4142
11.138
10.9232
10.9938
11.1968
11.4144
11.5491
11.6547
11.7396
11.813
1.00001
1.00003
1.0001
1.00022
1.00063
1.00129
1.00369
1.00725
1.02234
1.0399
1.14497
1.25432
1.98098
3.28359
7.85504
11.4184
11.0978
10.8329
10.8969
11.0869
11.2915
11.4131
11.507
11.5828
11.6557
1.00001
1.00003
1.0001
1.00021
1.00059
1.0012
1.00342
1.00678
1.02052
1.0373
1.13221
1.23406
1.88362
3.05684
7.19863
11.4295
11.0592
10.7267
10.781
10.9512
11.1373
11.2386
11.3125
11.3696
11.4343
1.00001
1.00003
1.00009
1.00019
1.00054
1.00111
1.00314
1.00633
1.01842
1.03566
1.11539
1.21463
1.77072
2.80458
6.43406
11.4229
11.0196
10.611
10.6509
10.7915
10.9512
11.0222
11.0619
11.0803
11.1167
1.00001
1.00002
1.00008
1.00017
1.00048
1.00099
1.0028
1.00566
1.01632
1.0321
1.10006
1.19195
1.65697
2.53977
5.58137
11.3165
10.9359
10.488
10.507
10.6046
10.7268
10.7543
10.7402
10.681
10.6222
1
1.00002
1.00007
1.00015
1.00043
1.00087
1.00246
1.00497
1.01437
1.0282
1.08829
1.16763
1.57615
2.3444
5.03889
10.872
10.7306
10.3722
10.343
10.3915
10.4573
10.4348
10.3388
10.117
9.78029
1.00001
1.00004
1.00013
1.00027
1.00078
1.00159
1.00451
1.009
1.02696
1.04997
1.17326
1.31951
2.18161
3.85608
9.36311
11.4372
11.2319
11.0978
11.1745
11.3909
11.6283
11.7813
11.8968
11.9894
12.0623
1.00001
1.00004
1.00012
1.00027
1.00077
1.00157
1.00446
1.00889
1.02665
1.04933
1.17153
1.31513
2.1693
3.82138
9.27735
11.4336
11.2242
11.0855
11.1634
11.3811
11.6183
11.771
11.8882
11.9822
12.0567
1.00001
1.00004
1.00012
1.00026
1.00075
1.00153
1.00434
1.00864
1.02603
1.04785
1.16813
1.30599
2.14327
3.74719
9.08669
11.4254
11.2044
11.0514
11.1289
11.3453
11.5789
11.7283
11.8445
11.9373
12.0109
1.00001
1.00004
1.00012
1.00025
1.00071
1.00146
1.00416
1.00823
1.02512
1.04541
1.16309
1.29224
2.10322
3.63333
8.78772
11.4179
11.1753
10.9968
11.0716
11.283
11.5099
11.6534
11.7654
11.8548
11.928
1.00001
1.00003
1.00011
1.00024
1.00068
1.00138
1.00394
1.00776
1.02387
1.04279
1.15508
1.27441
2.05267
3.47701
8.3812
11.4142
11.138
10.9232
10.9938
11.1968
11.4144
11.5491
11.6547
11.7396
11.813
1.00001
1.00003
1.0001
1.00022
1.00063
1.00129
1.00369
1.00725
1.02234
1.0399
1.14497
1.25432
1.98098
3.28358
7.85504
11.4184
11.0978
10.8329
10.8969
11.0869
11.2915
11.4131
11.507
11.5828
11.6557
1.00001
1.00003
1.0001
1.00021
1.00059
1.0012
1.00342
1.00678
1.02052
1.0373
1.13221
1.23406
1.88362
3.05684
7.19862
11.4295
11.0592
10.7267
10.781
10.9512
11.1373
11.2386
11.3125
11.3696
11.4343
1.00001
1.00003
1.00009
1.00019
1.00054
1.00111
1.00314
1.00633
1.01842
1.03566
1.11539
1.21463
1.77072
2.80458
6.43405
11.4229
11.0196
10.611
10.6509
10.7915
10.9512
11.0222
11.0619
11.0803
11.1167
1.00001
1.00002
1.00008
1.00017
1.00048
1.00099
1.0028
1.00566
1.01632
1.0321
1.10006
1.19195
1.65697
2.53977
5.58136
11.3165
10.9359
10.488
10.507
10.6046
10.7268
10.7543
10.7402
10.681
10.6222
1
1.00002
1.00007
1.00015
1.00043
1.00087
1.00246
1.00497
1.01437
1.0282
1.08829
1.16763
1.57615
2.3444
5.03888
10.872
10.7305
10.3722
10.343
10.3915
10.4573
10.4348
10.3388
10.117
9.78029
1.00001
1.00004
1.00013
1.00027
1.00078
1.00159
1.00451
1.009
1.02696
1.04997
1.17326
1.3195
2.1816
3.85606
9.36306
11.4372
11.2319
11.0978
11.1745
11.3909
11.6283
11.7813
11.8968
11.9894
12.0623
1.00001
1.00004
1.00012
1.00027
1.00077
1.00157
1.00446
1.00889
1.02665
1.04933
1.17153
1.31512
2.1693
3.82136
9.2773
11.4336
11.2242
11.0855
11.1634
11.3811
11.6183
11.771
11.8882
11.9822
12.0567
1.00001
1.00004
1.00012
1.00026
1.00075
1.00153
1.00434
1.00864
1.02603
1.04785
1.16813
1.30599
2.14327
3.74717
9.08664
11.4254
11.2044
11.0514
11.1289
11.3453
11.5789
11.7283
11.8445
11.9373
12.0109
1.00001
1.00004
1.00012
1.00025
1.00071
1.00146
1.00416
1.00823
1.02512
1.04541
1.16309
1.29224
2.10321
3.63331
8.78767
11.4179
11.1753
10.9968
11.0716
11.283
11.5099
11.6534
11.7654
11.8548
11.928
1.00001
1.00003
1.00011
1.00024
1.00068
1.00138
1.00394
1.00776
1.02387
1.04279
1.15508
1.27441
2.05267
3.47699
8.38115
11.4143
11.138
10.9232
10.9938
11.1968
11.4144
11.5491
11.6547
11.7396
11.813
1.00001
1.00003
1.0001
1.00022
1.00063
1.00129
1.00369
1.00725
1.02233
1.0399
1.14497
1.25432
1.98097
3.28356
7.85498
11.4184
11.0978
10.8329
10.8969
11.0869
11.2915
11.4131
11.507
11.5828
11.6556
1.00001
1.00003
1.0001
1.00021
1.00059
1.0012
1.00342
1.00678
1.02052
1.0373
1.13221
1.23405
1.88361
3.05682
7.19855
11.4295
11.0592
10.7267
10.7809
10.9512
11.1373
11.2386
11.3125
11.3696
11.4343
1.00001
1.00003
1.00009
1.00019
1.00054
1.00111
1.00314
1.00633
1.01842
1.03566
1.11539
1.21463
1.77071
2.80456
6.43397
11.423
11.0196
10.611
10.6509
10.7915
10.9512
11.0222
11.0619
11.0803
11.1167
1.00001
1.00002
1.00008
1.00017
1.00048
1.00099
1.0028
1.00566
1.01632
1.0321
1.10006
1.19195
1.65696
2.53975
5.58129
11.3165
10.9359
10.488
10.507
10.6046
10.7268
10.7543
10.7402
10.681
10.6222
1
1.00002
1.00007
1.00015
1.00043
1.00087
1.00246
1.00497
1.01437
1.0282
1.08828
1.16763
1.57615
2.34439
5.03884
10.872
10.7305
10.3722
10.343
10.3915
10.4573
10.4347
10.3388
10.117
9.78029
1.00001
1.00004
1.00012
1.00027
1.00077
1.00158
1.0045
1.00899
1.02694
1.04994
1.17325
1.31943
2.18155
3.85581
9.36259
11.4372
11.2318
11.0977
11.1744
11.3908
11.6282
11.7811
11.8967
11.9892
12.0621
1.00001
1.00003
1.00012
1.00026
1.00076
1.00156
1.00445
1.00888
1.02664
1.04931
1.17152
1.31506
2.16925
3.82111
9.27683
11.4336
11.2241
11.0854
11.1633
11.381
11.6182
11.7709
11.8881
11.9821
12.0565
1.00001
1.00003
1.00012
1.00026
1.00074
1.00152
1.00433
1.00863
1.02602
1.04782
1.16813
1.30591
2.14323
3.74692
9.08618
11.4254
11.2043
11.0513
11.1288
11.3452
11.5788
11.7282
11.8443
11.9371
12.0107
1.00001
1.00003
1.00011
1.00025
1.00071
1.00145
1.00416
1.00822
1.02511
1.04539
1.16306
1.29219
2.10314
3.63305
8.78716
11.4179
11.1752
10.9967
11.0715
11.2829
11.5098
11.6532
11.7652
11.8546
11.9278
1.00001
1.00003
1.00011
1.00023
1.00067
1.00137
1.00393
1.00775
1.02386
1.04277
1.15505
1.27436
2.0526
3.47672
8.38061
11.4143
11.1379
10.9232
10.9938
11.1967
11.4143
11.549
11.6546
11.7395
11.8128
1.00001
1.00003
1.0001
1.00022
1.00063
1.00128
1.00368
1.00724
1.02232
1.03988
1.14495
1.25426
1.9809
3.2833
7.85439
11.4184
11.0978
10.8328
10.8968
11.0868
11.2914
11.413
11.5069
11.5826
11.6555
1.00001
1.00003
1.00009
1.0002
1.00058
1.00119
1.00341
1.00676
1.02051
1.03727
1.13221
1.23397
1.88359
3.05657
7.19797
11.4295
11.0592
10.7266
10.7809
10.9511
11.1372
11.2385
11.3124
11.3695
11.4342
1.00001
1.00002
1.00008
1.00018
1.00054
1.0011
1.00313
1.00632
1.01841
1.03564
1.11537
1.21457
1.77065
2.80432
6.43339
11.4229
11.0196
10.6109
10.6508
10.7914
10.9511
11.0221
11.0618
11.0802
11.1166
1
1.00002
1.00008
1.00016
1.00048
1.00098
1.00279
1.00565
1.01631
1.03209
1.10004
1.19191
1.65689
2.53953
5.58067
11.3164
10.9358
10.4879
10.507
10.6045
10.7267
10.7542
10.7401
10.6809
10.6221
1
1.00002
1.00007
1.00014
1.00042
1.00086
1.00245
1.00496
1.01436
1.02819
1.08827
1.16759
1.57611
2.34423
5.03853
10.8717
10.7304
10.3722
10.3429
10.3914
10.4572
10.4347
10.3387
10.1169
9.78021
1
1.00002
1.00005
1.00015
1.00031
1.00088
1.0018
1.00514
1.01015
1.0311
1.0564
1.19972
1.37482
2.35194
4.31122
10.0365
10.4708
10.2962
10.1609
10.1648
10.1552
10.0702
9.82159
9.24759
7.81019
1
1.00002
1.00004
1.00013
1.00027
1.00078
1.00159
1.0045
1.00901
1.0268
1.05016
1.17094
1.31937
2.15863
3.78712
8.94874
10.3224
10.2043
9.98854
9.92825
9.85451
9.67966
9.29536
8.52799
7.07346
1
1.00001
1.00003
1.00011
1.00023
1.00065
1.00133
1.00378
1.00744
1.02287
1.04081
1.14765
1.25933
1.99431
3.30245
7.73856
10.2183
10.102
9.83285
9.68883
9.56205
9.30928
8.84192
8.07663
6.9353
1
1.00001
1.00003
1.00009
1.00019
1.00055
1.00113
1.0032
1.0064
1.01901
1.03538
1.12081
1.21703
1.79877
2.8441
6.43725
10.1321
10.0075
9.69192
9.45824
9.27799
8.98771
8.51087
7.81597
6.91902
1
1.00001
1.00002
1.00007
1.00016
1.00045
1.00093
1.00263
1.00531
1.01533
1.03022
1.09338
1.18153
1.60514
2.40941
5.06749
9.91571
9.85887
9.58425
9.2556
9.02405
8.72047
8.26736
7.6466
6.89724
1
1
1.00002
1.00005
1.00015
1.0003
1.00087
1.00177
1.00504
1.00994
1.03029
1.05504
1.19289
1.36288
2.27901
4.09919
9.2146
9.60755
9.43457
9.08258
8.80819
8.49594
8.07496
7.52098
6.8673
1
1
1.00002
1.00004
1.00012
1.00025
1.0007
1.00143
1.00406
1.0081
1.02419
1.04466
1.15434
1.28025
2.02511
3.40341
7.7377
9.32146
9.22441
8.95762
8.6296
8.30568
7.91096
7.41507
6.83719
0.999999
1
1.00001
1.00003
1.00009
1.00019
1.00054
1.00111
1.00316
1.00625
1.01892
1.03432
1.12078
1.21412
1.78951
2.80617
6.21703
9.15179
9.09841
8.87562
8.49456
8.15488
7.77622
7.32406
6.80428
0.999998
1
1
1.00002
1.00005
1.00016
1.00034
1.00097
1.00195
1.0057
1.01068
1.03523
1.06021
1.2208
1.43055
2.39514
4.47945
8.80935
8.99769
8.81591
8.42155
8.03689
7.66403
7.24589
6.77245
0.999996
0.999998
1
1.00002
1.00004
1.00013
1.00026
1.00075
1.00153
1.00435
1.00857
1.02611
1.04715
1.16694
1.30169
2.0977
3.55602
7.85799
8.79238
8.67585
8.36231
7.93866
7.56245
7.17033
6.74
0.999995
0.999996
1
1.00001
1.00003
1.00007
1.00022
1.00046
1.00131
1.00254
1.00791
1.01374
1.05013
1.08217
1.31608
1.63639
3.04602
6.17448
8.5232
8.48631
8.28515
7.86963
7.47672
7.10241
6.70716
0.999994
0.999994
0.999997
1
1.00002
1.00005
1.00017
1.00035
1.00099
1.00201
1.00573
1.01119
1.03473
1.06158
1.21904
1.42109
2.38096
4.3736
8.0903
8.36199
8.21422
7.85383
7.42302
7.04938
6.68037
0.999993
0.999994
0.999995
1
1.00001
1.00005
1.0001
1.0003
1.00062
1.00175
1.00355
1.01016
1.02002
1.06136
1.11573
1.38235
1.85998
3.45742
7.03928
8.15077
8.06963
7.81882
7.39619
7.01281
6.6584
0.999992
0.999993
0.999994
0.999998
1.00001
1.00003
1.00007
1.00021
1.00045
1.00126
1.00255
1.00726
1.01407
1.04418
1.07781
1.27866
1.55602
2.76094
5.34969
7.8374
7.8782
7.74411
7.408
7.00454
6.64745
0.999992
0.999992
0.999993
0.999995
1
1.00001
1.00006
1.00013
1.00037
1.00076
1.00214
1.00432
1.01231
1.02452
1.07219
1.14733
1.44254
2.02045
3.73778
7.16793
7.75945
7.6661
7.40499
7.0126
6.64967
0.999991
0.999992
0.999992
0.999994
0.999999
1.00001
1.00004
1.00009
1.00026
1.00053
1.00148
1.003
1.00848
1.0167
1.05052
1.09355
1.31208
1.66052
2.96344
5.78315
7.52528
7.51503
7.38005
7.0513
6.66206
0.999991
0.999991
0.999992
0.999993
0.999995
1
1.00002
1.00007
1.00015
1.00042
1.00086
1.00241
1.00486
1.01381
1.02723
1.08173
1.16071
1.50158
2.14047
4.0073
7.04007
7.4199
7.32825
7.08497
6.69609
0.999991
0.999991
0.999991
0.999992
0.999994
1
1.00001
1.00004
1.0001
1.00028
1.00058
1.00163
1.00331
1.00929
1.01846
1.05447
1.10541
1.33043
1.73235
3.04938
5.91202
7.21716
7.20493
7.07406
6.77073
0.999991
0.999991
0.999991
0.999991
0.999993
0.999996
1.00001
1.00002
1.00007
1.00016
1.00045
1.00092
1.00258
1.00519
1.0148
1.02895
1.08809
1.17074
1.5422
2.22178
4.23422
6.77223
7.10408
7.02861
6.81972
0.999991
0.999991
0.999991
0.999991
0.999992
0.999994
0.999999
1.00001
1.00004
1.00012
1.00025
1.0007
1.00142
1.00397
1.00784
1.02317
1.04235
1.1419
1.25852
1.86537
2.93144
5.79133
6.91416
6.91027
6.81363
0.999991
0.99999
0.999991
0.999991
0.999991
0.999993
0.999996
1.00001
1.00002
1.00007
1.00016
1.00046
1.00095
1.00263
1.00531
1.01494
1.02949
1.08811
1.1716
1.53893
2.20051
4.1326
6.47441
6.82829
6.78605
0.999991
0.99999
0.99999
0.999991
0.999991
0.999992
0.999994
0.999999
1.00001
1.00004
1.00012
1.00025
1.00069
1.0014
1.00389
1.00771
1.02258
1.04148
1.13758
1.25105
1.82801
2.83398
5.51574
6.64667
6.7363
0.999991
0.99999
0.99999
0.99999
0.999991
0.999991
0.999993
0.999996
1
1.00002
1.00007
1.00016
1.00044
1.00091
1.00252
1.00509
1.01419
1.02806
1.08271
1.16152
1.49677
2.09945
3.81001
6.19773
6.69495
0.999991
0.99999
0.99999
0.99999
0.999991
0.999991
0.999992
0.999994
1
1.00001
1.00004
1.0001
1.00028
1.00057
1.00157
1.00318
1.00881
1.01754
1.05048
1.09963
1.29784
1.65669
2.76596
5.15273
6.54705
0.999991
0.99999
0.99999
0.99999
0.99999
0.999991
0.999991
0.999992
0.999996
1
1.00002
1.00006
1.00017
1.00035
1.00096
1.00196
1.00538
1.01075
1.03072
1.05792
1.18141
1.35885
2.05265
3.39877
6.13705
0.999991
0.99999
0.99999
0.99999
0.99999
0.99999
0.999991
0.999992
0.999993
0.999999
1.00001
1.00004
1.00009
1.00025
1.00053
1.00146
1.00295
1.00821
1.01627
1.04747
1.09171
1.28081
1.61724
2.68636
5.04692
0.999991
0.99999
0.99999
0.99999
0.99999
0.99999
0.999991
0.999991
0.999993
0.999995
1
1.00002
1.00007
1.00014
1.00041
1.00084
1.00233
1.00469
1.01324
1.0262
1.07729
1.15435
1.46984
2.06569
3.87663
0.999991
0.99999
0.99999
0.99999
0.99999
0.99999
0.99999
0.999991
0.999992
0.999994
0.999999
1.00001
1.00004
1.00012
1.00026
1.00073
1.00148
1.00418
1.00834
1.02471
1.04606
1.15563
1.28762
2.02412
3.40779
0.999991
0.99999
0.99999
0.99999
0.99999
0.99999
0.99999
0.999991
0.999991
0.999994
0.999997
1.00001
1.00003
1.0001
1.00021
1.0006
1.00123
1.00353
1.00702
1.02137
1.03879
1.13966
1.2488
1.95919
3.2805
0.999991
0.99999
0.99999
0.99999
0.99999
0.99999
0.99999
0.999991
0.999991
0.999993
0.999997
1
1.00003
1.00006
1.0002
1.0004
1.00125
1.00221
1.00802
1.013
1.05165
1.0847
1.34527
1.72633
3.4455
0.999991
0.99999
0.99999
0.99999
0.99999
0.99999
0.99999
0.999991
0.999991
0.999993
0.999996
1.00001
1.00002
1.00008
1.00017
1.0005
1.00101
1.00304
1.00569
1.01943
1.0331
1.1282
1.22672
1.90101
3.1679
0.999991
0.99999
0.99999
0.99999
0.99999
0.99999
0.99999
0.999991
0.999991
0.999992
0.999996
1
1.00002
1.00006
1.00019
1.00038
1.00114
1.0022
1.00723
1.01235
1.04793
1.07818
1.32029
1.66874
3.26552
0.999991
0.99999
0.99999
0.99999
0.99999
0.99999
0.99999
0.999991
0.999991
0.999992
0.999996
1
1.00002
1.00006
1.00018
1.00037
1.0011
1.00213
1.00689
1.01185
1.0456
1.07417
1.30266
1.62749
3.12778
0.999991
0.99999
0.99999
0.99999
0.99999
0.99999
0.99999
0.999991
0.999991
0.999993
0.999995
1
1.00002
1.00007
1.00015
1.00046
1.00093
1.00276
1.00534
1.01742
1.03049
1.11505
1.20405
1.78684
2.87968
0.999991
0.99999
0.99999
0.99999
0.99999
0.99999
0.99999
0.999991
0.999991
0.999992
0.999996
1
1.00002
1.00005
1.00017
1.00035
1.00105
1.00195
1.00661
1.01112
1.04265
1.06984
1.2776
1.57053
2.90049
0.999991
0.99999
0.99999
0.99999
0.99999
0.99999
0.99999
0.999991
0.999991
0.999993
0.999995
1
1.00002
1.00007
1.00015
1.00044
1.0009
1.00266
1.0052
1.01656
1.02934
1.10835
1.19214
1.72226
2.70505
0.999991
0.99999
0.99999
0.99999
0.99999
0.99999
0.99999
0.999991
0.999991
0.999992
0.999996
1
1.00002
1.00005
1.00017
1.00036
1.00104
1.00206
1.00637
1.01138
1.04113
1.06786
1.26558
1.53401
2.78647
0.999991
0.99999
0.99999
0.99999
0.99999
0.99999
0.99999
0.999991
0.999991
0.999992
0.999996
1
1.00002
1.00006
1.00017
1.00036
1.00105
1.00208
1.00633
1.01144
1.04059
1.06728
1.26179
1.52357
2.75346
0.999991
0.99999
0.99999
0.99999
0.99999
0.99999
0.99999
0.999991
0.999991
0.999993
0.999995
1
1.00002
1.00007
1.00015
1.00045
1.00093
1.00267
1.00539
1.016
1.03067
1.10169
1.1896
1.68078
2.60875
0.999991
0.99999
0.99999
0.99999
0.99999
0.99999
0.99999
0.999991
0.999991
0.999993
0.999995
1
1.00002
1.00007
1.00016
1.00046
1.00095
1.00272
1.00551
1.01611
1.0317
1.10031
1.19272
1.67216
2.59475
1
1.00002
1.00005
1.00015
1.00031
1.00089
1.00181
1.00515
1.01016
1.03111
1.05642
1.19973
1.3749
2.35199
4.31164
10.037
10.4709
10.2962
10.161
10.1649
10.1553
10.0703
9.82168
9.24767
7.81027
1
1.00002
1.00005
1.00013
1.00028
1.00078
1.00159
1.00451
1.00902
1.02681
1.05018
1.17095
1.31944
2.15869
3.78742
8.9493
10.3225
10.2043
9.9886
9.92832
9.85459
9.67975
9.29545
8.52808
7.07354
1
1.00002
1.00004
1.00011
1.00023
1.00066
1.00133
1.00379
1.00745
1.02288
1.04082
1.14767
1.25939
1.99439
3.30272
7.73915
10.2183
10.102
9.8329
9.6889
9.56213
9.30937
8.84201
8.07672
6.93539
1
1.00001
1.00003
1.0001
1.0002
1.00056
1.00114
1.00321
1.00641
1.01902
1.03541
1.12082
1.2171
1.79881
2.84434
6.43782
10.1321
10.0076
9.69197
9.4583
9.27807
8.9878
8.51096
7.81606
6.91911
1
1.00001
1.00003
1.00008
1.00016
1.00046
1.00094
1.00264
1.00532
1.01534
1.03023
1.0934
1.18158
1.60521
2.40964
5.06808
9.91575
9.85889
9.58428
9.25567
9.02414
8.72056
8.26745
7.64669
6.89733
1
1.00001
1.00002
1.00005
1.00015
1.00031
1.00088
1.00178
1.00505
1.00995
1.0303
1.05506
1.1929
1.36296
2.27909
4.09944
9.21481
9.60763
9.43464
9.08265
8.80828
8.49602
8.07505
7.52107
6.86739
1
1.00001
1.00002
1.00004
1.00012
1.00025
1.00071
1.00144
1.00407
1.00811
1.0242
1.04469
1.15434
1.28033
2.02515
3.40364
7.73815
9.32159
9.22452
8.9577
8.62968
8.30576
7.91105
7.41516
6.83728
1
1
1.00002
1.00003
1.0001
1.0002
1.00055
1.00112
1.00317
1.00627
1.01893
1.03435
1.12079
1.21418
1.78953
2.80634
6.21737
9.15193
9.09852
8.8757
8.49464
8.15496
7.7763
7.32413
6.80436
1
1
1.00001
1.00003
1.00006
1.00017
1.00035
1.00098
1.00196