/*--------------------------------*- C++ -*----------------------------------*\
| =========                 |                                                 |
| \\      /  F ield         | OpenFOAM: The Open Source CFD Toolbox           |
|  \\    /   O peration     | Version:  4.1                                   |
|   \\  /    A nd           | Web:      www.OpenFOAM.org                      |
|    \\/     M anipulation  |                                                 |
\*---------------------------------------------------------------------------*/
FoamFile
{
    version     2.0;
    format      ascii;
    class       volVectorField;
    location    "5.3";
    object      U;
}
// * * * * * * * * * * * * * * * * * * * * * * * * * * * * * * * * * * * * * //

dimensions      [0 1 -1 0 0 0 0];

internalField   nonuniform List<vector> 
52500
(
(3 1.51684e-08 -0.00571425)
(2.99998 8.41173e-08 -0.00571439)
(2.99996 3.14175e-07 -0.0057146)
(2.99989 8.0949e-07 -0.00571524)
(2.99976 2.23953e-06 -0.00571642)
(2.99937 5.16876e-06 -0.00572)
(2.99862 1.33989e-05 -0.00572704)
(2.99623 3.08629e-05 -0.00574586)
(2.99213 7.69319e-05 -0.00579313)
(2.97636 0.000174893 -0.00588532)
(2.94885 0.000474348 -0.00625041)
(2.84295 0.00110648 -0.00674869)
(2.55784 0.00305292 -0.009271)
(1.86517 0.0080762 -0.0139524)
(0.833498 0.0229618 -0.0176752)
(0.469623 0.0224003 -0.018521)
(0.545084 0.0234888 -0.0185358)
(0.566254 0.0256491 -0.0185743)
(0.514261 0.0277017 -0.0187607)
(0.424898 0.0296407 -0.0189421)
(0.338759 0.0320517 -0.019136)
(0.268929 0.0349547 -0.0192993)
(0.199256 0.0380297 -0.019457)
(0.119743 0.0416431 -0.0196092)
(0.0526048 0.0469392 -0.0197584)
(3 4.36893e-08 -0.00571425)
(2.99998 2.4152e-07 -0.00571439)
(2.99996 9.04265e-07 -0.00571459)
(2.99989 2.32329e-06 -0.00571522)
(2.99976 6.45383e-06 -0.00571638)
(2.99938 1.48542e-05 -0.0057199)
(2.99864 3.89408e-05 -0.00572684)
(2.99629 8.85328e-05 -0.0057453)
(2.99225 0.000228799 -0.00579204)
(2.97668 0.000509286 -0.00588227)
(2.94965 0.00143965 -0.00624313)
(2.84492 0.00330844 -0.00673029)
(2.56423 0.0097903 -0.00923233)
(1.87983 0.0254658 -0.0138544)
(0.840222 0.071209 -0.0175642)
(0.463594 0.0659473 -0.0184487)
(0.541986 0.065948 -0.018463)
(0.564078 0.0697603 -0.018494)
(0.511682 0.0731841 -0.0186723)
(0.422356 0.0763216 -0.0188468)
(0.336592 0.0802414 -0.0190321)
(0.266649 0.0847583 -0.0191858)
(0.196348 0.0889647 -0.0193358)
(0.115905 0.0931373 -0.0194738)
(0.0487513 0.097561 -0.019607)
(3 6.69501e-08 -0.00571425)
(2.99998 3.69528e-07 -0.00571438)
(2.99996 1.3837e-06 -0.00571458)
(2.9999 3.53956e-06 -0.00571519)
(2.99977 9.84912e-06 -0.00571632)
(2.9994 2.24881e-05 -0.00571973)
(2.99868 5.99701e-05 -0.00572647)
(2.99639 0.000131339 -0.00574429)
(2.99248 0.000367366 -0.00578984)
(2.97735 0.000769614 -0.00587671)
(2.95125 0.00237316 -0.00622795)
(2.84934 0.00518215 -0.00669541)
(2.57844 0.0180106 -0.00914196)
(1.91314 0.0445228 -0.0136517)
(0.859085 0.125302 -0.0173922)
(0.458011 0.113236 -0.0183588)
(0.542423 0.110932 -0.0183722)
(0.566916 0.117141 -0.0183928)
(0.514393 0.123358 -0.018564)
(0.425599 0.129865 -0.0187291)
(0.340489 0.137197 -0.0189082)
(0.270249 0.145265 -0.0190494)
(0.198932 0.153103 -0.0191922)
(0.117095 0.160345 -0.0193298)
(0.0482133 0.165947 -0.0194524)
(3 8.57875e-08 -0.00571425)
(2.99999 4.72981e-07 -0.00571438)
(2.99996 1.7724e-06 -0.00571457)
(2.9999 4.52137e-06 -0.00571516)
(2.99978 1.26149e-05 -0.00571624)
(2.99942 2.86611e-05 -0.00571952)
(2.99873 7.76174e-05 -0.00572597)
(2.99654 0.000165124 -0.0057432)
(2.99278 0.000492907 -0.00578643)
(2.97833 0.000979989 -0.00587057)
(2.95342 0.00328329 -0.0062037)
(2.85684 0.00687304 -0.00665589)
(2.60116 0.0261487 -0.00895709)
(1.96644 0.0628987 -0.0133171)
(0.893033 0.179146 -0.0171541)
(0.454212 0.160405 -0.01825)
(0.546897 0.155164 -0.0182624)
(0.575233 0.163723 -0.0182692)
(0.522775 0.172961 -0.0184314)
(0.434703 0.18348 -0.0185906)
(0.350104 0.194656 -0.0187628)
(0.279516 0.206704 -0.0189006)
(0.206937 0.21877 -0.0190268)
(0.12263 0.229818 -0.0191479)
(0.0499683 0.237151 -0.0192855)
(3 9.87328e-08 -0.00571425)
(2.99999 5.44763e-07 -0.00571437)
(2.99997 2.0339e-06 -0.00571455)
(2.99991 5.16665e-06 -0.00571511)
(2.99979 1.43607e-05 -0.00571614)
(2.99945 3.22935e-05 -0.00571925)
(2.99879 8.89485e-05 -0.00572532)
(2.99674 0.000176995 -0.00574185)
(2.99316 0.000599165 -0.005782)
(2.97963 0.00100119 -0.00586286)
(2.95629 0.00430557 -0.00617067)
(2.86678 0.00822405 -0.00660333)
(2.63137 0.0330597 -0.00871184)
(2.03835 0.0791041 -0.0128639)
(0.940944 0.229797 -0.016852)
(0.453903 0.208172 -0.0181245)
(0.55621 0.199998 -0.0181386)
(0.589567 0.210029 -0.0181203)
(0.537391 0.221703 -0.0182809)
(0.450248 0.23624 -0.0184122)
(0.365841 0.251593 -0.0185776)
(0.29456 0.268252 -0.0187041)
(0.220125 0.285395 -0.0188404)
(0.132223 0.301219 -0.018961)
(0.0540789 0.31109 -0.0190738)
(3 1.19815e-07 -0.00571425)
(2.99999 6.62442e-07 -0.00571436)
(2.99997 2.46801e-06 -0.00571453)
(2.99991 6.30174e-06 -0.00571506)
(2.9998 1.74312e-05 -0.00571603)
(2.99948 3.94857e-05 -0.005719)
(2.99885 0.000106617 -0.00572462)
(2.99697 0.000219625 -0.0057411)
(2.99347 0.000703516 -0.00577633)
(2.98136 0.00115966 -0.00585862)
(2.9596 0.0050705 -0.00612053)
(2.87888 0.00935674 -0.00654304)
(2.66875 0.0376193 -0.00839285)
(2.12871 0.0905478 -0.0122782)
(1.00854 0.271641 -0.0164744)
(0.46656 0.256872 -0.017964)
(0.574024 0.248291 -0.0179763)
(0.611869 0.258255 -0.0179504)
(0.560042 0.271231 -0.0181141)
(0.473937 0.289561 -0.0182434)
(0.389354 0.309612 -0.018377)
(0.316998 0.331714 -0.0184998)
(0.240226 0.35528 -0.0186003)
(0.147128 0.378101 -0.018705)
(0.060767 0.392911 -0.0188475)
(3 1.42224e-07 -0.00571425)
(2.99999 7.8607e-07 -0.00571435)
(2.99997 2.932e-06 -0.00571451)
(2.99992 7.52505e-06 -0.00571499)
(2.99982 2.07984e-05 -0.00571588)
(2.99952 4.76231e-05 -0.0057186)
(2.99895 0.000125245 -0.00572376)
(2.99723 0.000276756 -0.00573886)
(2.99395 0.000763856 -0.0057705)
(2.98322 0.00151668 -0.00584892)
(2.96328 0.00513661 -0.0060722)
(2.892 0.00998356 -0.00647435)
(2.70874 0.0373974 -0.00806207)
(2.23126 0.0912695 -0.0116123)
(1.09866 0.280062 -0.0160221)
(0.504628 0.299288 -0.0177504)
(0.605098 0.299859 -0.0177496)
(0.643538 0.308185 -0.0177155)
(0.592409 0.321506 -0.0178765)
(0.508086 0.343947 -0.0180135)
(0.422909 0.369564 -0.0181433)
(0.348899 0.398356 -0.0182357)
(0.269399 0.430272 -0.0183473)
(0.170234 0.463367 -0.018437)
(0.0724796 0.488178 -0.0185292)
(3 1.50973e-07 -0.00571425)
(2.99999 8.33627e-07 -0.00571434)
(2.99997 3.10039e-06 -0.00571448)
(2.99993 7.94206e-06 -0.00571492)
(2.99983 2.18545e-05 -0.00571573)
(2.99957 4.98952e-05 -0.00571819)
(2.99904 0.000130184 -0.00572286)
(2.9975 0.000288517 -0.00573657)
(2.99451 0.000762832 -0.00576496)
(2.98497 0.00165002 -0.00583713)
(2.96679 0.00474714 -0.00603161)
(2.90411 0.010168 -0.00641034)
(2.74475 0.0330703 -0.00776793)
(2.32287 0.0815573 -0.0110296)
(1.19983 0.246677 -0.0155983)
(0.557883 0.333932 -0.0175104)
(0.634762 0.357498 -0.0175197)
(0.671272 0.359664 -0.0175072)
(0.626516 0.372369 -0.0176538)
(0.548467 0.399087 -0.0177553)
(0.465054 0.431383 -0.0178796)
(0.390948 0.468463 -0.0179437)
(0.310311 0.51125 -0.0179938)
(0.205879 0.560004 -0.0180451)
(0.0925909 0.605818 -0.018141)
(3 1.82581e-07 -0.00571425)
(2.99999 1.0002e-06 -0.00571433)
(2.99998 3.72755e-06 -0.00571446)
(2.99993 9.58731e-06 -0.00571485)
(2.99985 2.64673e-05 -0.00571557)
(2.99962 6.11345e-05 -0.00571778)
(2.99914 0.000157062 -0.00572194)
(2.99776 0.000369414 -0.00573429)
(2.99508 0.000858426 -0.00575958)
(2.98651 0.00219925 -0.00582446)
(2.97049 0.00467606 -0.00599938)
(2.91434 0.0120452 -0.00633063)
(2.77365 0.0302353 -0.00757048)
(2.39386 0.0754724 -0.0103803)
(1.31258 0.218294 -0.0154257)
(0.618789 0.379701 -0.0173496)
(0.648457 0.412524 -0.0172717)
(0.67842 0.409022 -0.0173207)
(0.652386 0.4238 -0.0174373)
(0.588398 0.452777 -0.017494)
(0.51234 0.493358 -0.0175752)
(0.442354 0.540474 -0.0176159)
(0.365533 0.596835 -0.0176314)
(0.262869 0.670341 -0.0176031)
(0.130284 0.760881 -0.0174959)
(3 2.80152e-07 -0.00571425)
(2.99999 4.92586e-07 -0.00571431)
(2.99998 4.08028e-06 -0.00571442)
(2.99995 5.99542e-06 -0.00571474)
(2.99988 2.76528e-05 -0.00571534)
(2.99968 3.87507e-05 -0.00571711)
(2.9993 0.000165524 -0.00572072)
(2.99808 0.000217402 -0.00572973)
(2.99604 0.00100427 -0.00575422)
(2.98813 0.00102904 -0.00579814)
(2.97511 0.00664515 -0.00598011)
(2.92448 0.00452731 -0.00621863)
(2.80066 0.0426969 -0.00743996)
(2.4631 0.0562018 -0.00962939)
(1.45977 0.227935 -0.0148925)
(0.712385 0.435908 -0.0170347)
(0.657187 0.453833 -0.0171464)
(0.683317 0.450741 -0.0171846)
(0.674797 0.470483 -0.0172109)
(0.62731 0.502348 -0.0172703)
(0.56471 0.551259 -0.0172596)
(0.50367 0.609303 -0.0172257)
(0.440712 0.685709 -0.0171309)
(0.358017 0.802642 -0.0169364)
(0.201757 1.00959 -0.0165395)
(3 1.55655e-08 -2.53822e-09)
(2.99998 8.43113e-08 -8.67045e-09)
(2.99996 3.15113e-07 -1.00383e-08)
(2.99989 8.08469e-07 -1.61462e-08)
(2.99976 2.24208e-06 -1.59751e-08)
(2.99937 5.16882e-06 -2.18293e-08)
(2.99862 1.34015e-05 -2.20375e-08)
(2.99623 3.08631e-05 -3.04969e-08)
(2.99212 7.69384e-05 -3.25006e-08)
(2.97635 0.000174901 -6.00443e-08)
(2.94884 0.000474373 -7.71558e-08)
(2.84293 0.00110658 -1.73525e-07)
(2.55779 0.00305307 -2.12376e-07)
(1.86506 0.00807675 -6.9298e-07)
(0.833459 0.0229621 -7.56009e-07)
(0.469668 0.0224008 9.09236e-08)
(0.5451 0.0234891 -1.70191e-08)
(0.56626 0.0256491 -8.23563e-08)
(0.514268 0.0277014 -8.16153e-08)
(0.424906 0.0296404 -7.49331e-08)
(0.338768 0.0320516 -7.03144e-08)
(0.268937 0.0349549 -7.13156e-08)
(0.199263 0.0380303 -7.12881e-08)
(0.119747 0.0416442 -7.20233e-08)
(0.0526079 0.0469413 -7.43712e-08)
(3 4.47304e-08 -2.53029e-09)
(2.99998 2.42237e-07 -8.6735e-09)
(2.99996 9.06159e-07 -1.0025e-08)
(2.99989 2.32238e-06 -1.61834e-08)
(2.99976 6.45887e-06 -1.59138e-08)
(2.99938 1.4856e-05 -2.18674e-08)
(2.99864 3.89478e-05 -2.19983e-08)
(2.99628 8.85434e-05 -3.05374e-08)
(2.99225 0.000228818 -3.2394e-08)
(2.97668 0.000509358 -6.00097e-08)
(2.94964 0.00143975 -7.69388e-08)
(2.84491 0.00330897 -1.72363e-07)
(2.56418 0.00979009 -2.11829e-07)
(1.87972 0.0254673 -6.9003e-07)
(0.840182 0.0712094 -7.60527e-07)
(0.463638 0.0659483 9.21887e-08)
(0.542002 0.0659491 -1.74139e-08)
(0.564081 0.069761 -8.32405e-08)
(0.511686 0.0731843 -8.21555e-08)
(0.422362 0.0763217 -7.47982e-08)
(0.336598 0.0802418 -6.94443e-08)
(0.266655 0.0847592 -7.00668e-08)
(0.196353 0.0889663 -7.00547e-08)
(0.115908 0.0931396 -7.08539e-08)
(0.0487534 0.0975647 -7.32173e-08)
(3 6.82806e-08 -2.5172e-09)
(2.99998 3.70879e-07 -8.67436e-09)
(2.99996 1.38428e-06 -1.00162e-08)
(2.9999 3.54407e-06 -1.6203e-08)
(2.99977 9.84922e-06 -1.58671e-08)
(2.99939 2.24951e-05 -2.18745e-08)
(2.99868 5.99792e-05 -2.19442e-08)
(2.99639 0.000131381 -3.04043e-08)
(2.99248 0.000367409 -3.23544e-08)
(2.97734 0.000769848 -5.89552e-08)
(2.95124 0.00237353 -7.68408e-08)
(2.84932 0.00518327 -1.65342e-07)
(2.57839 0.0180113 -2.26337e-07)
(1.91302 0.0445265 -6.78135e-07)
(0.85904 0.125303 -7.77237e-07)
(0.458047 0.113236 9.48805e-08)
(0.542432 0.110932 -1.56165e-08)
(0.566915 0.117141 -8.42161e-08)
(0.514394 0.123358 -8.32191e-08)
(0.425602 0.129865 -7.50896e-08)
(0.340493 0.137197 -6.84616e-08)
(0.270253 0.145266 -6.84681e-08)
(0.198935 0.153105 -6.84598e-08)
(0.117097 0.160348 -6.95015e-08)
(0.0482146 0.165952 -7.16474e-08)
(3 8.72194e-08 -2.5035e-09)
(2.99998 4.74436e-07 -8.66976e-09)
(2.99996 1.76938e-06 -1.00402e-08)
(2.9999 4.52755e-06 -1.61121e-08)
(2.99978 1.25934e-05 -1.59834e-08)
(2.99942 2.86343e-05 -2.17501e-08)
(2.99873 7.75363e-05 -2.19429e-08)
(2.99654 0.00016484 -2.99037e-08)
(2.99278 0.000492753 -3.2381e-08)
(2.97832 0.000977914 -5.63904e-08)
(2.95341 0.0032855 -7.44445e-08)
(2.85682 0.00687037 -1.58553e-07)
(2.60112 0.0261569 -2.2092e-07)
(1.96633 0.0629112 -6.60767e-07)
(0.89298 0.179162 -8.11071e-07)
(0.454234 0.16041 8.88012e-08)
(0.546897 0.155163 -1.9339e-08)
(0.575225 0.163721 -8.48176e-08)
(0.522769 0.17296 -8.34678e-08)
(0.4347 0.18348 -7.42501e-08)
(0.350103 0.194657 -6.71617e-08)
(0.279516 0.206704 -6.72368e-08)
(0.206937 0.218772 -6.71692e-08)
(0.12263 0.229821 -6.81374e-08)
(0.0499689 0.237157 -6.99171e-08)
(3 9.99133e-08 -2.48829e-09)
(2.99999 5.48187e-07 -8.67021e-09)
(2.99996 2.03265e-06 -1.01035e-08)
(2.99991 5.17794e-06 -1.60377e-08)
(2.99979 1.43577e-05 -1.63669e-08)
(2.99945 3.23073e-05 -2.20653e-08)
(2.99879 8.89611e-05 -2.30059e-08)
(2.99673 0.000176981 -3.45224e-08)
(2.99316 0.000599343 -3.03664e-08)
(2.97963 0.00100039 -9.57695e-08)
(2.95628 0.004308 -3.7478e-09)
(2.86677 0.00822404 -2.44084e-07)
(2.63134 0.0330667 -8.25174e-08)
(2.03826 0.0791178 -6.13113e-07)
(0.940923 0.229819 -7.87104e-07)
(0.453948 0.20818 5.46984e-08)
(0.556227 0.199998 -4.67594e-08)
(0.589572 0.210028 -9.26739e-08)
(0.537396 0.221702 -8.73243e-08)
(0.450252 0.23624 -7.38716e-08)
(0.365843 0.251593 -6.73292e-08)
(0.294561 0.268252 -6.68551e-08)
(0.220126 0.285397 -6.63675e-08)
(0.132223 0.301223 -6.73784e-08)
(0.054079 0.311095 -6.862e-08)
(3 1.21711e-07 -2.47994e-09)
(2.99999 6.66273e-07 -8.6231e-09)
(2.99997 2.4725e-06 -1.01285e-08)
(2.99991 6.31666e-06 -1.58884e-08)
(2.9998 1.74616e-05 -1.62419e-08)
(2.99948 3.95644e-05 -2.15211e-08)
(2.99885 0.00010679 -2.19965e-08)
(2.99696 0.000220169 -3.06739e-08)
(2.99347 0.000704051 -2.90674e-08)
(2.98136 0.0011629 -7.52512e-08)
(2.95959 0.00507068 -1.80542e-08)
(2.87887 0.00936332 -1.95526e-07)
(2.66872 0.0376187 -1.09757e-07)
(2.12862 0.0905554 -5.57837e-07)
(1.00851 0.271656 -7.73358e-07)
(0.466599 0.256874 2.01864e-08)
(0.574044 0.248288 -5.94246e-08)
(0.611881 0.258255 -9.0779e-08)
(0.560054 0.271232 -8.4474e-08)
(0.473948 0.289563 -7.17447e-08)
(0.389361 0.309614 -6.79573e-08)
(0.317003 0.331715 -6.79362e-08)
(0.240228 0.355282 -6.70225e-08)
(0.147129 0.378104 -6.72915e-08)
(0.0607672 0.392916 -6.82281e-08)
(3 1.45024e-07 -2.45064e-09)
(2.99999 7.88011e-07 -8.6268e-09)
(2.99997 2.93648e-06 -1.00892e-08)
(2.99992 7.53259e-06 -1.58312e-08)
(2.99982 2.08171e-05 -1.60487e-08)
(2.99952 4.76651e-05 -2.11002e-08)
(2.99894 0.000125341 -2.11028e-08)
(2.99723 0.000277047 -2.71493e-08)
(2.99394 0.000764142 -2.98078e-08)
(2.98322 0.00151873 -4.41982e-08)
(2.96327 0.00513685 -5.24759e-08)
(2.89198 0.00998788 -1.3671e-07)
(2.70871 0.0374002 -1.61792e-07)
(2.23118 0.091283 -5.11704e-07)
(1.09861 0.280105 -7.97941e-07)
(0.504625 0.299295 -3.1485e-08)
(0.6051 0.299855 -7.57457e-08)
(0.643544 0.308186 -7.98562e-08)
(0.592419 0.32151 -7.37257e-08)
(0.508097 0.343952 -6.44674e-08)
(0.422918 0.369568 -6.44551e-08)
(0.348905 0.39836 -6.55346e-08)
(0.269403 0.430275 -6.60017e-08)
(0.170236 0.463372 -6.6772e-08)
(0.0724802 0.488184 -6.72624e-08)
(3 1.53328e-07 -2.42379e-09)
(2.99999 8.35476e-07 -8.6312e-09)
(2.99997 3.10245e-06 -1.00819e-08)
(2.99993 7.94559e-06 -1.58158e-08)
(2.99983 2.18609e-05 -1.59996e-08)
(2.99957 4.99082e-05 -2.10001e-08)
(2.99904 0.000130213 -2.08369e-08)
(2.99749 0.000288582 -2.6585e-08)
(2.99451 0.000762976 -2.8513e-08)
(2.98496 0.00165034 -4.12544e-08)
(2.96678 0.00474797 -4.5894e-08)
(2.9041 0.0101692 -1.27337e-07)
(2.74473 0.033076 -1.13809e-07)
(2.32281 0.0815696 -3.91613e-07)
(1.19979 0.246729 -4.97746e-07)
(0.557887 0.333931 -1.99027e-07)
(0.634778 0.357484 -1.27547e-07)
(0.671291 0.359664 -6.26962e-08)
(0.626531 0.372374 -6.31047e-08)
(0.54848 0.399093 -6.32563e-08)
(0.465064 0.431389 -6.42044e-08)
(0.390956 0.468468 -6.40883e-08)
(0.310317 0.511255 -6.37968e-08)
(0.205883 0.56001 -6.47957e-08)
(0.0925921 0.605825 -6.57849e-08)
(3 1.82847e-07 -2.40336e-09)
(2.99999 9.99385e-07 -8.62877e-09)
(2.99997 3.72329e-06 -1.00883e-08)
(2.99993 9.56041e-06 -1.58029e-08)
(2.99985 2.64526e-05 -1.59857e-08)
(2.99961 6.1081e-05 -2.09571e-08)
(2.99914 0.000157001 -2.0759e-08)
(2.99776 0.000369275 -2.63697e-08)
(2.99508 0.000858329 -2.81214e-08)
(2.98651 0.00219892 -4.05508e-08)
(2.97048 0.00467555 -4.20316e-08)
(2.91433 0.0120461 -1.30611e-07)
(2.77363 0.0302371 -8.12189e-08)
(2.39382 0.0754773 -4.02012e-07)
(1.31253 0.218312 -4.37872e-07)
(0.618761 0.379689 -3.81808e-07)
(0.648477 0.412517 -2.00479e-07)
(0.678453 0.409023 -5.94557e-09)
(0.652407 0.423805 -4.68481e-08)
(0.588414 0.452784 -5.63157e-08)
(0.512353 0.493365 -6.09763e-08)
(0.442364 0.54048 -6.1004e-08)
(0.365541 0.596842 -6.10184e-08)
(0.262875 0.670349 -6.12487e-08)
(0.130286 0.76089 -6.2252e-08)
(3 2.66021e-07 -2.41835e-09)
(2.99999 5.48078e-07 -8.64944e-09)
(2.99998 3.97304e-06 -1.01487e-08)
(2.99994 6.03401e-06 -1.62606e-08)
(2.99988 2.75215e-05 -1.58222e-08)
(2.99968 3.87877e-05 -2.16834e-08)
(2.9993 0.000165391 -2.10511e-08)
(2.99808 0.000217445 -2.79942e-08)
(2.99603 0.00100409 -2.77722e-08)
(2.98812 0.00102933 -4.52315e-08)
(2.9751 0.00664436 -5.0605e-08)
(2.92447 0.00452973 -1.00246e-07)
(2.80064 0.042694 -1.01858e-07)
(2.46305 0.0562119 -3.25255e-07)
(1.45971 0.227937 -4.63091e-07)
(0.712347 0.435897 -4.65763e-07)
(0.657207 0.453842 -7.17608e-08)
(0.683344 0.450747 -1.60059e-08)
(0.674819 0.470491 -3.74563e-08)
(0.627327 0.502356 -4.62804e-08)
(0.564724 0.551268 -5.73286e-08)
(0.503682 0.609311 -5.72578e-08)
(0.440722 0.685717 -5.71082e-08)
(0.358025 0.80265 -5.66322e-08)
(0.201761 1.0096 -5.62098e-08)
(3 1.55655e-08 -3.97682e-13)
(2.99998 8.43117e-08 -2.10225e-12)
(2.99996 3.15114e-07 -4.66762e-12)
(2.99989 8.08471e-07 -9.90422e-12)
(2.99976 2.24208e-06 -1.85317e-11)
(2.99937 5.16882e-06 -3.52877e-11)
(2.99862 1.34015e-05 -7.43399e-11)
(2.99623 3.0863e-05 -1.46309e-10)
(2.99212 7.69382e-05 -3.47311e-10)
(2.97635 0.0001749 -7.02242e-10)
(2.94884 0.00047437 -1.95129e-09)
(2.84293 0.00110658 -4.16089e-09)
(2.55778 0.00305305 -9.84404e-09)
(1.86505 0.00807669 -2.68184e-08)
(0.833456 0.0229619 -3.58509e-08)
(0.46967 0.0224007 3.73144e-09)
(0.545101 0.0234891 -1.05629e-09)
(0.56626 0.025649 -3.31805e-09)
(0.514268 0.0277013 -3.04909e-09)
(0.424907 0.0296402 -2.56454e-09)
(0.338769 0.0320514 -2.87578e-09)
(0.268939 0.0349548 -3.35815e-09)
(0.199264 0.0380303 -3.70954e-09)
(0.119749 0.0416443 -4.19677e-09)
(0.0526087 0.0469418 -4.94208e-09)
(3 4.47312e-08 -3.96774e-13)
(2.99998 2.42242e-07 -2.0959e-12)
(2.99996 9.06176e-07 -4.65648e-12)
(2.99989 2.32243e-06 -9.88211e-12)
(2.99976 6.45899e-06 -1.85273e-11)
(2.99938 1.48563e-05 -3.53289e-11)
(2.99864 3.89485e-05 -7.4625e-11)
(2.99628 8.85455e-05 -1.48265e-10)
(2.99225 0.00022882 -3.48918e-10)
(2.97668 0.000509367 -7.17166e-10)
(2.94964 0.00143975 -1.98589e-09)
(2.84491 0.00330901 -4.25959e-09)
(2.56417 0.00978986 -1.0017e-08)
(1.87971 0.025467 -2.73521e-08)
(0.84018 0.0712087 -3.6656e-08)
(0.463641 0.0659479 4.17666e-09)
(0.542003 0.0659489 -8.51495e-10)
(0.564082 0.0697608 -3.28626e-09)
(0.511687 0.0731842 -3.05253e-09)
(0.422363 0.0763215 -2.59732e-09)
(0.336599 0.0802417 -2.83288e-09)
(0.266656 0.0847592 -3.22528e-09)
(0.196354 0.0889665 -3.55481e-09)
(0.115909 0.09314 -3.98907e-09)
(0.0487538 0.0975655 -4.63663e-09)
(3 6.82816e-08 -3.8181e-13)
(2.99998 3.70884e-07 -2.03167e-12)
(2.99996 1.3843e-06 -4.4336e-12)
(2.9999 3.54412e-06 -9.39865e-12)
(2.99977 9.84936e-06 -1.70967e-11)
(2.99939 2.24954e-05 -3.19888e-11)
(2.99868 5.99799e-05 -6.80563e-11)
(2.99639 0.000131383 -1.19894e-10)
(2.99248 0.000367411 -3.52576e-10)
(2.97734 0.000769858 -5.59959e-10)
(2.95124 0.00237353 -2.06827e-09)
(2.84932 0.0051833 -3.52565e-09)
(2.57839 0.0180111 -1.33908e-08)
(1.91302 0.0445262 -2.79684e-08)
(0.859037 0.125302 -4.00352e-08)
(0.458049 0.113236 5.06832e-09)
(0.542432 0.110932 -1.60266e-10)
(0.566915 0.117141 -3.1201e-09)
(0.514394 0.123358 -2.9994e-09)
(0.425602 0.129865 -2.62236e-09)
(0.340493 0.137197 -2.72732e-09)
(0.270253 0.145266 -3.00576e-09)
(0.198935 0.153105 -3.28023e-09)
(0.117097 0.160349 -3.62918e-09)
(0.0482147 0.165953 -4.05768e-09)
(3 8.72207e-08 -3.78417e-13)
(2.99998 4.74443e-07 -2.0149e-12)
(2.99996 1.76941e-06 -4.39402e-12)
(2.9999 4.52762e-06 -9.30382e-12)
(2.99978 1.25936e-05 -1.69733e-11)
(2.99942 2.86348e-05 -3.18043e-11)
(2.99873 7.75373e-05 -6.81266e-11)
(2.99654 0.000164843 -1.22197e-10)
(2.99278 0.000492755 -3.56297e-10)
(2.97832 0.000977937 -5.83811e-10)
(2.95341 0.00328548 -2.15197e-09)
(2.85682 0.0068704 -3.68519e-09)
(2.60111 0.0261568 -1.40073e-08)
(1.96632 0.0629109 -2.9436e-08)
(0.892977 0.179161 -4.38826e-08)
(0.454236 0.16041 6.17987e-09)
(0.546897 0.155163 4.0735e-10)
(0.575224 0.163721 -3.05851e-09)
(0.522769 0.17296 -2.99388e-09)
(0.4347 0.18348 -2.619e-09)
(0.350103 0.194656 -2.55579e-09)
(0.279516 0.206705 -2.77005e-09)
(0.206937 0.218772 -2.98071e-09)
(0.12263 0.229822 -3.22816e-09)
(0.0499689 0.237158 -3.46024e-09)
(3 9.99138e-08 -3.57002e-13)
(2.99999 5.48188e-07 -1.93063e-12)
(2.99996 2.03266e-06 -4.0764e-12)
(2.99991 5.17797e-06 -8.6039e-12)
(2.99979 1.43578e-05 -1.478e-11)
(2.99945 3.23075e-05 -2.66498e-11)
(2.99879 8.89616e-05 -5.75537e-11)
(2.99673 0.000176983 -7.24453e-11)
(2.99316 0.000599343 -3.756e-10)
(2.97963 0.00100041 -1.90432e-10)
(2.95628 0.00430798 -2.83513e-09)
(2.86677 0.00822407 -2.85782e-09)
(2.63134 0.0330667 -1.55419e-08)
(2.03825 0.0791178 -3.0624e-08)
(0.940919 0.229818 -4.88213e-08)
(0.453949 0.20818 6.55765e-09)
(0.556226 0.199998 8.56781e-10)
(0.589571 0.210027 -2.98169e-09)
(0.537395 0.221702 -2.96989e-09)
(0.450251 0.23624 -2.58667e-09)
(0.365843 0.251593 -2.29411e-09)
(0.29456 0.268252 -2.4023e-09)
(0.220125 0.285397 -2.55911e-09)
(0.132222 0.301223 -2.78254e-09)
(0.054079 0.311096 -2.90137e-09)
(3 1.21711e-07 -3.67537e-13)
(2.99999 6.66269e-07 -1.9869e-12)
(2.99997 2.47248e-06 -4.26448e-12)
(2.99991 6.31662e-06 -8.80894e-12)
(2.9998 1.74615e-05 -1.60216e-11)
(2.99948 3.9564e-05 -2.88757e-11)
(2.99885 0.000106789 -6.27444e-11)
(2.99696 0.000220166 -9.68564e-11)
(2.99347 0.000704051 -3.72245e-10)
(2.98136 0.00116288 -3.31128e-10)
(2.95959 0.00507071 -2.63966e-09)
(2.87887 0.00936332 -3.09578e-09)
(2.66872 0.037619 -1.48973e-08)
(2.12862 0.0905558 -3.04634e-08)
(1.00851 0.271656 -5.28134e-08)
(0.466599 0.256873 5.45552e-09)
(0.574043 0.248288 8.54016e-10)
(0.61188 0.258254 -2.77903e-09)
(0.560053 0.271232 -2.83154e-09)
(0.473947 0.289563 -2.58538e-09)
(0.389361 0.309614 -2.15768e-09)
(0.317002 0.331715 -2.1959e-09)
(0.240228 0.355282 -2.27566e-09)
(0.147128 0.378105 -2.38171e-09)
(0.0607671 0.392917 -2.38343e-09)
(3 1.45024e-07 -3.72077e-13)
(2.99999 7.88013e-07 -1.99762e-12)
(2.99997 2.93649e-06 -4.34749e-12)
(2.99992 7.5326e-06 -9.02502e-12)
(2.99982 2.08172e-05 -1.6742e-11)
(2.99952 4.76652e-05 -3.09446e-11)
(2.99894 0.000125341 -6.49454e-11)
(2.99723 0.000277047 -1.21656e-10)
(2.99394 0.000764147 -3.21818e-10)
(2.98322 0.00151873 -5.74189e-10)
(2.96327 0.00513692 -2.0772e-09)
(2.89198 0.00998793 -3.13305e-09)
(2.70871 0.0374008 -1.31727e-08)
(2.23117 0.0912843 -2.82864e-08)
(1.09861 0.280109 -5.47151e-08)
(0.504623 0.299295 1.63179e-09)
(0.605098 0.299854 -6.23159e-10)
(0.643543 0.308185 -2.77538e-09)
(0.592418 0.321509 -2.67797e-09)
(0.508096 0.343951 -2.37256e-09)
(0.422917 0.369568 -1.95274e-09)
(0.348904 0.39836 -1.91266e-09)
(0.269402 0.430275 -1.96456e-09)
(0.170236 0.463372 -2.01194e-09)
(0.0724801 0.488185 -1.88591e-09)
(3 1.53329e-07 -3.63933e-13)
(2.99999 8.3548e-07 -1.95966e-12)
(2.99997 3.10247e-06 -4.22757e-12)
(2.99993 7.94563e-06 -8.76644e-12)
(2.99983 2.1861e-05 -1.59615e-11)
(2.99957 4.99085e-05 -2.93596e-11)
(2.99904 0.000130214 -5.97367e-11)
(2.99749 0.000288584 -1.12343e-10)
(2.99451 0.000762982 -2.77641e-10)
(2.98496 0.00165035 -5.3908e-10)
(2.96678 0.00474803 -1.46635e-09)
(2.9041 0.0101692 -3.27096e-09)
(2.74473 0.0330766 -8.37183e-09)
(2.32281 0.0815708 -1.93306e-08)
(1.19979 0.246734 -3.21592e-08)
(0.557887 0.333931 -1.05055e-08)
(0.634778 0.357482 -5.51358e-09)
(0.671291 0.359663 -2.48494e-09)
(0.626531 0.372373 -2.6245e-09)
(0.548479 0.399092 -2.67422e-09)
(0.465063 0.431388 -2.24394e-09)
(0.390955 0.468468 -1.9833e-09)
(0.310317 0.511255 -1.84103e-09)
(0.205882 0.56001 -1.74131e-09)
(0.0925919 0.605825 -1.47306e-09)
(3 1.82848e-07 -3.56448e-13)
(2.99999 9.99389e-07 -1.9245e-12)
(2.99997 3.72331e-06 -4.11716e-12)
(2.99993 9.56045e-06 -8.52156e-12)
(2.99985 2.64528e-05 -1.52621e-11)
(2.99961 6.10813e-05 -2.78908e-11)
(2.99914 0.000157002 -5.56248e-11)
(2.99776 0.000369277 -1.03864e-10)
(2.99508 0.000858334 -2.52434e-10)
(2.98651 0.00219893 -4.9929e-10)
(2.97048 0.00467557 -1.21382e-09)
(2.91433 0.0120462 -3.34473e-09)
(2.77363 0.0302373 -6.25388e-09)
(2.39381 0.0754778 -1.89257e-08)
(1.31253 0.218314 -2.87242e-08)
(0.618758 0.379688 -2.37643e-08)
(0.648478 0.412516 -1.20281e-08)
(0.678455 0.409022 9.23001e-10)
(0.652407 0.423805 -1.86377e-09)
(0.588413 0.452784 -2.42605e-09)
(0.512352 0.493364 -2.34113e-09)
(0.442364 0.54048 -2.05045e-09)
(0.365541 0.596842 -1.87511e-09)
(0.262874 0.670349 -1.5674e-09)
(0.130286 0.760891 -1.16854e-09)
(3 2.66019e-07 -3.54068e-13)
(2.99999 5.48088e-07 -1.89169e-12)
(2.99998 3.97303e-06 -4.00893e-12)
(2.99994 6.03406e-06 -8.46963e-12)
(2.99988 2.75216e-05 -1.43624e-11)
(2.99968 3.87879e-05 -2.66391e-11)
(2.9993 0.000165392 -5.04033e-11)
(2.99808 0.000217446 -9.31053e-11)
(2.99603 0.0010041 -2.19285e-10)
(2.98812 0.00102934 -3.9781e-10)
(2.9751 0.00664439 -1.1864e-09)
(2.92447 0.00452981 -2.14578e-09)
(2.80063 0.0426941 -6.81059e-09)
(2.46305 0.0562124 -1.4289e-08)
(1.4597 0.227938 -3.02206e-08)
(0.712343 0.435896 -2.90464e-08)
(0.657208 0.453842 -3.5334e-09)
(0.683346 0.450747 1.22352e-10)
(0.67482 0.470491 -1.31266e-09)
(0.627328 0.502356 -1.84696e-09)
(0.564724 0.551267 -2.37479e-09)
(0.503682 0.609311 -2.21498e-09)
(0.440722 0.685717 -1.92442e-09)
(0.358024 0.80265 -1.52842e-09)
(0.201761 1.0096 -1.00567e-09)
(3 1.55655e-08 -5.65473e-14)
(2.99998 8.43117e-08 -2.51381e-13)
(2.99996 3.15113e-07 -8.35919e-13)
(2.99989 8.08471e-07 -1.8086e-12)
(2.99976 2.24208e-06 -5.17396e-12)
(2.99937 5.16882e-06 -1.06722e-11)
(2.99862 1.34015e-05 -2.96787e-11)
(2.99623 3.0863e-05 -6.25225e-11)
(2.99212 7.69382e-05 -1.66869e-10)
(2.97635 0.0001749 -3.46611e-10)
(2.94884 0.00047437 -1.01943e-09)
(2.84293 0.00110658 -2.19058e-09)
(2.55778 0.00305305 -5.33361e-09)
(1.86505 0.0080767 -1.45409e-08)
(0.833457 0.022962 -1.9613e-08)
(0.46967 0.0224007 2.48781e-09)
(0.545101 0.0234891 1.14403e-10)
(0.56626 0.025649 -1.1092e-09)
(0.514269 0.0277013 -9.81688e-10)
(0.424908 0.0296402 -6.68754e-10)
(0.338769 0.0320514 -5.52899e-10)
(0.268939 0.0349548 -5.20585e-10)
(0.199264 0.0380303 -4.71417e-10)
(0.119749 0.0416443 -4.48155e-10)
(0.0526088 0.0469418 -4.53412e-10)
(3 4.47312e-08 -5.58929e-14)
(2.99998 2.42242e-07 -2.47882e-13)
(2.99996 9.06175e-07 -8.2765e-13)
(2.99989 2.32242e-06 -1.79013e-12)
(2.99976 6.45898e-06 -5.15252e-12)
(2.99938 1.48563e-05 -1.06503e-11)
(2.99864 3.89484e-05 -2.97124e-11)
(2.99628 8.85453e-05 -6.32851e-11)
(2.99225 0.00022882 -1.67168e-10)
(2.97668 0.000509367 -3.5311e-10)
(2.94964 0.00143975 -1.03464e-09)
(2.84491 0.003309 -2.23556e-09)
(2.56417 0.00978988 -5.41331e-09)
(1.87971 0.025467 -1.47851e-08)
(0.84018 0.0712087 -2.00007e-08)
(0.46364 0.0659479 2.71029e-09)
(0.542003 0.0659489 2.12802e-10)
(0.564082 0.0697608 -1.09171e-09)
(0.511687 0.0731842 -9.7604e-10)
(0.422363 0.0763215 -6.73941e-10)
(0.336599 0.0802417 -5.31596e-10)
(0.266656 0.0847592 -4.83016e-10)
(0.196354 0.0889665 -4.33379e-10)
(0.115909 0.09314 -4.11227e-10)
(0.0487538 0.0975655 -4.13484e-10)
(3 6.82815e-08 -4.78931e-14)
(2.99998 3.70884e-07 -2.14069e-13)
(2.99996 1.3843e-06 -7.07538e-13)
(2.9999 3.54411e-06 -1.52797e-12)
(2.99977 9.84935e-06 -4.372e-12)
(2.99939 2.24954e-05 -8.82734e-12)
(2.99868 5.99798e-05 -2.60576e-11)
(2.99639 0.000131383 -4.78653e-11)
(2.99248 0.00036741 -1.68024e-10)
(2.97734 0.000769857 -2.67367e-10)
(2.95124 0.00237353 -1.07104e-09)
(2.84932 0.0051833 -1.82954e-09)
(2.57839 0.0180111 -7.17081e-09)
(1.91302 0.0445262 -1.50119e-08)
(0.859037 0.125302 -2.16622e-08)
(0.458049 0.113236 3.16646e-09)
(0.542432 0.110932 5.61273e-10)
(0.566915 0.117141 -9.94684e-10)
(0.514394 0.123358 -9.24488e-10)
(0.425602 0.129865 -6.54886e-10)
(0.340493 0.137197 -4.63928e-10)
(0.270253 0.145266 -3.99355e-10)
(0.198935 0.153105 -3.57004e-10)
(0.117097 0.160349 -3.44931e-10)
(0.0482147 0.165953 -3.48028e-10)
(3 8.72206e-08 -4.60557e-14)
(2.99998 4.74443e-07 -2.04588e-13)
(2.99996 1.76941e-06 -6.83345e-13)
(2.9999 4.52761e-06 -1.47449e-12)
(2.99978 1.25936e-05 -4.28605e-12)
(2.99942 2.86347e-05 -8.69266e-12)
(2.99873 7.75373e-05 -2.59563e-11)
(2.99654 0.000164843 -4.88424e-11)
(2.99278 0.000492755 -1.68835e-10)
(2.97832 0.000977935 -2.7837e-10)
(2.95341 0.00328548 -1.10709e-09)
(2.85682 0.0068704 -1.90071e-09)
(2.60111 0.0261568 -7.43641e-09)
(1.96632 0.0629109 -1.56671e-08)
(0.892977 0.179161 -2.35281e-08)
(0.454236 0.16041 3.72008e-09)
(0.546897 0.155163 8.39225e-10)
(0.575224 0.163721 -9.59051e-10)
(0.522769 0.17296 -9.08083e-10)
(0.4347 0.18348 -6.39706e-10)
(0.350103 0.194656 -3.87893e-10)
(0.279516 0.206705 -3.08237e-10)
(0.206937 0.218772 -2.74385e-10)
(0.12263 0.229822 -2.72224e-10)
(0.0499689 0.237158 -2.76932e-10)
(3 9.99138e-08 -3.51028e-14)
(2.99999 5.48188e-07 -1.59801e-13)
(2.99996 2.03265e-06 -5.15784e-13)
(2.99991 5.17796e-06 -1.11157e-12)
(2.99979 1.43578e-05 -3.13277e-12)
(2.99945 3.23075e-05 -6.01894e-12)
(2.99879 8.89615e-05 -2.03427e-11)
(2.99673 0.000176983 -2.31548e-11)
(2.99316 0.000599343 -1.7699e-10)
(2.97963 0.00100041 -7.44762e-11)
(2.95628 0.00430798 -1.45386e-09)
(2.86677 0.00822407 -1.45583e-09)
(2.63134 0.0330667 -8.1738e-09)
(2.03826 0.0791178 -1.61642e-08)
(0.940919 0.229818 -2.59289e-08)
(0.453949 0.20818 3.88142e-09)
(0.556226 0.199998 1.04523e-09)
(0.589571 0.210027 -9.37132e-10)
(0.537395 0.221702 -9.07433e-10)
(0.450251 0.23624 -6.38438e-10)
(0.365843 0.251593 -3.17834e-10)
(0.29456 0.268252 -2.16808e-10)
(0.220125 0.285397 -1.88031e-10)
(0.132222 0.301223 -1.98218e-10)
(0.054079 0.311096 -2.04092e-10)
(3 1.21711e-07 -4.14692e-14)
(2.99999 6.66269e-07 -1.88031e-13)
(2.99997 2.47248e-06 -6.06812e-13)
(2.99991 6.31662e-06 -1.2919e-12)
(2.9998 1.74615e-05 -3.69887e-12)
(2.99948 3.95641e-05 -7.2776e-12)
(2.99885 0.000106789 -2.30509e-11)
(2.99696 0.000220166 -3.56844e-11)