/*--------------------------------*- C++ -*----------------------------------*\
| =========                 |                                                 |
| \\      /  F ield         | OpenFOAM: The Open Source CFD Toolbox           |
|  \\    /   O peration     | Version:  4.1                                   |
|   \\  /    A nd           | Web:      www.OpenFOAM.org                      |
|    \\/     M anipulation  |                                                 |
\*---------------------------------------------------------------------------*/
FoamFile
{
    version     2.0;
    format      ascii;
    class       volScalarField;
    location    "0.82";
    object      Ma;
}
// * * * * * * * * * * * * * * * * * * * * * * * * * * * * * * * * * * * * * //

dimensions      [0 0 0 0 0 0 0];

internalField   nonuniform List<scalar> 
52500
(
5.62129
1.1233
0.295512
0.207977
0.328116
0.352292
0.352036
0.366563
0.392283
0.409394
0.411063
0.422533
0.443971
0.447304
0.437625
0.415861
0.378172
0.34303
0.317583
0.300499
0.280262
0.249537
0.210251
0.132442
0.0570837
5.59473
1.13557
0.304982
0.204669
0.326591
0.353421
0.35366
0.367836
0.392646
0.409103
0.410833
0.42271
0.444705
0.448899
0.43997
0.418938
0.381769
0.346905
0.321738
0.305142
0.285445
0.255029
0.215884
0.140014
0.0729313
5.50389
1.16182
0.324856
0.199025
0.325729
0.358297
0.359237
0.373267
0.397066
0.41285
0.414597
0.426229
0.448607
0.453749
0.445408
0.425259
0.388978
0.354878
0.330812
0.315614
0.297409
0.268196
0.230328
0.159788
0.104917
5.37158
1.20854
0.354073
0.189687
0.327432
0.366159
0.367535
0.381168
0.40341
0.418302
0.41992
0.430634
0.453668
0.460258
0.452932
0.43409
0.399378
0.366494
0.344146
0.330835
0.314655
0.287212
0.251056
0.186481
0.140937
5.22377
1.27962
0.391532
0.179864
0.333488
0.376449
0.378152
0.391076
0.411418
0.425293
0.426663
0.436101
0.459763
0.468545
0.46254
0.44526
0.4128
0.381351
0.361085
0.349834
0.336226
0.311088
0.277174
0.218886
0.180722
5.04593
1.37536
0.437401
0.174225
0.341678
0.389184
0.390958
0.402763
0.420911
0.433554
0.434693
0.442587
0.466858
0.478248
0.473795
0.458404
0.428977
0.399335
0.381388
0.372361
0.361974
0.339807
0.309211
0.257739
0.226422
4.85061
1.49857
0.491959
0.176451
0.35216
0.40364
0.405715
0.415979
0.43141
0.44268
0.443844
0.450407
0.474837
0.489052
0.486442
0.473491
0.447875
0.420249
0.404713
0.398003
0.391402
0.373603
0.347879
0.304544
0.281642
4.64927
1.64972
0.555528
0.189044
0.364757
0.418824
0.421958
0.430263
0.442628
0.452515
0.454146
0.459625
0.48327
0.500752
0.500439
0.490359
0.469051
0.443705
0.430514
0.426429
0.424708
0.412627
0.394572
0.361963
0.352527
4.43804
1.82255
0.626057
0.210801
0.378071
0.434125
0.439064
0.445032
0.454191
0.462883
0.465601
0.47018
0.492183
0.513146
0.515764
0.508666
0.492185
0.469147
0.458251
0.457396
0.461457
0.457046
0.449936
0.434515
0.44966
4.2061
1.9803
0.693896
0.238725
0.390512
0.448365
0.455303
0.459329
0.465622
0.47362
0.477915
0.481891
0.501857
0.526063
0.532177
0.528144
0.516111
0.496084
0.487749
0.490717
0.500612
0.506938
0.516439
0.530646
0.614489
5.62197
1.12323
0.295399
0.207918
0.328059
0.352197
0.351925
0.366434
0.392132
0.409227
0.410897
0.422402
0.443863
0.447237
0.437586
0.415826
0.378113
0.342943
0.317481
0.300394
0.280175
0.249475
0.210192
0.132319
0.0566817
5.59471
1.13547
0.30486
0.204662
0.326574
0.353412
0.353663
0.367876
0.392736
0.409265
0.411031
0.422858
0.444898
0.449119
0.440135
0.419037
0.381787
0.346856
0.321657
0.30505
0.285365
0.254968
0.215822
0.139889
0.0726115
5.50402
1.16173
0.32474
0.198981
0.325691
0.358275
0.359229
0.37328
0.39711
0.412946
0.414692
0.426244
0.448671
0.453838
0.445466
0.425277
0.388945
0.354802
0.330721
0.315524
0.297331
0.268133
0.230264
0.159672
0.10469
5.37202
1.20845
0.353987
0.189626
0.327365
0.366106
0.367487
0.381127
0.403378
0.418284
0.419879
0.430545
0.453606
0.460198
0.452847
0.433972
0.399238
0.366366
0.344031
0.330739
0.314572
0.287143
0.250988
0.186371
0.14076
5.22408
1.27953
0.391466
0.179786
0.333413
0.376376
0.378075
0.390994
0.411332
0.425202
0.42654
0.435999
0.459656
0.468382
0.462352
0.445047
0.412563
0.381153
0.360931
0.349719
0.336131
0.311011
0.277099
0.218783
0.180575
5.04623
1.37528
0.437354
0.174136
0.341603
0.389111
0.390874
0.402666
0.4208
0.433426
0.434526
0.44244
0.466708
0.478035
0.47355
0.458139
0.428699
0.399111
0.381213
0.372232
0.361869
0.339721
0.309131
0.257642
0.226295
4.8508
1.49852
0.49193
0.176356
0.352087
0.403572
0.405634
0.415884
0.431302
0.442555
0.443678
0.45027
0.474724
0.488832
0.486172
0.473184
0.447537
0.420007
0.404535
0.39788
0.391295
0.373511
0.347796
0.304451
0.281529
4.64945
1.6497
0.55552
0.188954
0.364689
0.418763
0.421886
0.43018
0.442538
0.452412
0.453987
0.459518
0.48324
0.500565
0.500178
0.490059
0.468703
0.443463
0.430341
0.42631
0.424605
0.412533
0.394487
0.361876
0.352429
4.43819
1.82257
0.626072
0.210725
0.378012
0.43407
0.439001
0.444962
0.454122
0.462808
0.465467
0.470099
0.4922
0.513013
0.515541
0.50841
0.491881
0.46893
0.458094
0.457276
0.461356
0.456951
0.449852
0.434435
0.449576
4.20618
1.98034
0.693924
0.238658
0.390458
0.448316
0.455247
0.459273
0.465572
0.473572
0.477823
0.481846
0.501893
0.525976
0.532005
0.52794
0.515885
0.495901
0.487613
0.490605
0.50052
0.506845
0.516356
0.530575
0.614419
5.62158
1.12332
0.295449
0.207883
0.328045
0.352221
0.351957
0.36647
0.392167
0.409236
0.410888
0.422394
0.443793
0.44709
0.437407
0.415636
0.377968
0.342863
0.317457
0.30041
0.280194
0.249477
0.210178
0.132295
0.0566693
5.59485
1.13558
0.304919
0.204585
0.32653
0.353372
0.353612
0.367791
0.392602
0.409052
0.410783
0.422671
0.444642
0.448804
0.439855
0.418797
0.381624
0.346776
0.321633
0.305063
0.285381
0.254968
0.215808
0.139867
0.0726012
5.504
1.16184
0.324801
0.198933
0.325666
0.358251
0.359195
0.37323
0.397037
0.412828
0.414581
0.426206
0.448571
0.453697
0.445333
0.425158
0.388859
0.354761
0.330715
0.315541
0.297349
0.268138
0.230255
0.159654
0.104681
5.37179
1.20857
0.354036
0.189588
0.327365
0.36611
0.367489
0.381129
0.403381
0.418284
0.419904
0.43059
0.453632
0.460218
0.452873
0.434003
0.399276
0.366404
0.34407
0.330776
0.314602
0.287156
0.250985
0.186358
0.140753
5.22393
1.27966
0.39151
0.179757
0.333421
0.376398
0.378101
0.391031
0.411387
0.425279
0.426648
0.436084
0.459746
0.468511
0.462492
0.445188
0.412708
0.381259
0.361009
0.349776
0.336174
0.311033
0.277103
0.218776
0.18057
5.04609
1.37542
0.437397
0.174115
0.341613
0.389134
0.390907
0.402717
0.420875
0.433528
0.434671
0.442538
0.466806
0.478216
0.473754
0.458346
0.428907
0.399247
0.381312
0.372299
0.361922
0.339752
0.309144
0.25764
0.226293
4.85071
1.49866
0.491973
0.176344
0.352097
0.403592
0.405665
0.415933
0.431371
0.442649
0.443823
0.450359
0.474776
0.489011
0.486394
0.473425
0.447797
0.420167
0.404642
0.397943
0.391351
0.37355
0.347815
0.304455
0.281532
4.64936
1.64983
0.555562
0.188949
0.364697
0.418778
0.42191
0.430217
0.442588
0.452481
0.454109
0.459583
0.483239
0.500709
0.500383
0.490285
0.468952
0.443617
0.430442
0.426373
0.42466
0.412575
0.394512
0.361885
0.352436
4.43811
1.82268
0.626111
0.210723
0.378016
0.434081
0.439017
0.444986
0.454151
0.462845
0.465545
0.470125
0.492171
0.513113
0.515705
0.508594
0.492088
0.469061
0.45818
0.45734
0.46141
0.456995
0.449881
0.43445
0.449587
4.2061
1.9804
0.693948
0.238659
0.390459
0.448322
0.455258
0.459284
0.465582
0.473581
0.477852
0.481838
0.501861
0.526039
0.53212
0.528074
0.516028
0.496002
0.487682
0.490661
0.500569
0.506891
0.516389
0.530595
0.614436
5.62169
1.12334
0.295465
0.207888
0.328043
0.352217
0.35195
0.36646
0.392155
0.409222
0.410872
0.422378
0.443774
0.447066
0.437379
0.415601
0.37793
0.342831
0.317438
0.300403
0.280196
0.249486
0.210193
0.132312
0.0566746
5.59492
1.13561
0.304935
0.204593
0.32653
0.353373
0.353611
0.36779
0.392603
0.409056
0.410786
0.42267
0.444639
0.448797
0.439839
0.418769
0.381589
0.346746
0.321615
0.305057
0.285383
0.254977
0.215822
0.139881
0.0726035
5.50407
1.16187
0.324818
0.198938
0.325665
0.358252
0.359194
0.37323
0.39704
0.412837
0.41459
0.42621
0.448577
0.453695
0.445322
0.425133
0.388829
0.354738
0.330702
0.315538
0.297352
0.268146
0.230266
0.159664
0.104681
5.37185
1.2086
0.354055
0.189592
0.327366
0.36611
0.367487
0.381127
0.403379
0.418285
0.419905
0.430577
0.453616
0.460199
0.45284
0.433958
0.399228
0.366362
0.344045
0.330767
0.314601
0.287161
0.250992
0.186363
0.140749
5.22396
1.2797
0.391532
0.179762
0.333422
0.376397
0.378098
0.391025
0.411378
0.425267
0.426628
0.436053
0.459707
0.468463
0.462429
0.445116
0.412631
0.381195
0.360972
0.349759
0.336168
0.311035
0.277107
0.218776
0.180563
5.04609
1.37547
0.437423
0.174121
0.341614
0.389133
0.390902
0.402705
0.420857
0.433504
0.43463
0.442502
0.466768
0.478141
0.473661
0.458249
0.428812
0.399184
0.381272
0.37228
0.361913
0.33975
0.309143
0.257637
0.226282
4.8507
1.49871
0.492003
0.176352
0.352099
0.403591
0.405659
0.415919
0.43135
0.44262
0.443771
0.450325
0.474758
0.488933
0.486291
0.473312
0.447675
0.420098
0.404604
0.397933
0.391344
0.373545
0.347812
0.304449
0.281518
4.64932
1.6499
0.555596
0.188961
0.3647
0.418779
0.421907
0.430206
0.442571
0.452456
0.454063
0.459558
0.483239
0.500644
0.500292
0.490189
0.468847
0.443557
0.430411
0.426366
0.424656
0.412571
0.394507
0.361876
0.352421
4.43804
1.82276
0.626145
0.210737
0.37802
0.434084
0.439017
0.44498
0.45414
0.462831
0.465518
0.470118
0.492171
0.513064
0.515638
0.508527
0.49202
0.469022
0.458161
0.457333
0.461407
0.45699
0.449875
0.43444
0.449571
4.20601
1.98045
0.693972
0.238673
0.390464
0.448326
0.455261
0.459284
0.465579
0.473578
0.477847
0.481843
0.501851
0.526001
0.532081
0.528037
0.515996
0.495987
0.487675
0.490661
0.500567
0.506886
0.516382
0.530584
0.61442
5.62117
1.1235
0.295557
0.207808
0.328009
0.352233
0.351978
0.366481
0.392163
0.409222
0.410868
0.42237
0.443772
0.44707
0.437387
0.415616
0.377954
0.342859
0.317463
0.300422
0.280203
0.24948
0.210182
0.1323
0.0566654
5.59447
1.13577
0.305028
0.204511
0.3265
0.353387
0.353633
0.367806
0.392606
0.40905
0.410775
0.422657
0.44463
0.448793
0.439839
0.418777
0.381607
0.346769
0.321638
0.305076
0.285392
0.254974
0.215815
0.139876
0.0725996
5.50365
1.16205
0.324909
0.198852
0.325643
0.358267
0.359214
0.373244
0.397042
0.412829
0.414578
0.426196
0.448566
0.453688
0.44532
0.425139
0.388844
0.354757
0.330721
0.315555
0.297361
0.268144
0.23026
0.159662
0.104681
5.37141
1.20881
0.354135
0.189509
0.327365
0.366124
0.367503
0.381139
0.403382
0.418281
0.419894
0.430573
0.453613
0.460192
0.452837
0.433961
0.399238
0.366376
0.34406
0.33078
0.314608
0.28716
0.250987
0.186364
0.140752
5.2236
1.27992
0.391608
0.179693
0.333426
0.376413
0.378114
0.391037
0.41138
0.425259
0.426621
0.436028
0.459682
0.468458
0.462429
0.445121
0.412644
0.381208
0.360984
0.349769
0.336174
0.311034
0.277104
0.218778
0.180567
5.04573
1.3757
0.437494
0.174068
0.34162
0.389148
0.390917
0.402717
0.420862
0.433504
0.434628
0.442505
0.466767
0.478133
0.473656
0.458249
0.428816
0.399194
0.381282
0.372289
0.361919
0.33975
0.309141
0.257639
0.226287
4.85039
1.49896
0.492071
0.176317
0.352105
0.403604
0.405674
0.41593
0.431356
0.442623
0.443762
0.450327
0.474772
0.488929
0.486286
0.473312
0.447676
0.420104
0.404612
0.397942
0.39135
0.373547
0.347811
0.304451
0.281522
4.64903
1.65014
0.555659
0.188941
0.364704
0.418789
0.421921
0.430217
0.442576
0.452459
0.454064
0.459556
0.483235
0.500646
0.500292
0.490194
0.468855
0.443567
0.430421
0.426376
0.424664
0.412575
0.394508
0.361877
0.352422
4.43777
1.82297
0.626197
0.210726
0.378021
0.43409
0.439029
0.444989
0.454143
0.462835
0.465537
0.470133
0.492159
0.513063
0.515647
0.508537
0.492034
0.469036
0.458174
0.457346
0.461417
0.456998
0.449877
0.43444
0.44957
4.20573
1.98055
0.693988
0.238669
0.390459
0.448327
0.455268
0.45929
0.46558
0.473583
0.477876
0.481865
0.501829
0.525997
0.532095
0.528054
0.516014
0.496006
0.487691
0.490677
0.500578
0.506894
0.516386
0.530583
0.614418
5.62136
1.12347
0.295539
0.207834
0.328019
0.35223
0.351971
0.366474
0.392157
0.409213
0.41086
0.422367
0.443764
0.447056
0.437372
0.415596
0.377932
0.342839
0.317448
0.300412
0.280196
0.249474
0.210179
0.132301
0.0566708
5.59462
1.13574
0.305009
0.204539
0.326509
0.353386
0.35363
0.367803
0.392606
0.40905
0.410777
0.422662
0.444631
0.448789
0.439832
0.418764
0.38159
0.346752
0.321624
0.305065
0.285383
0.254966
0.215809
0.139871
0.072601
5.50379
1.16201
0.32489
0.19888
0.32565
0.358266
0.359211
0.373242
0.397043
0.412832
0.414582
0.426202
0.448569
0.453687
0.445316
0.425129
0.388829
0.354742
0.330708
0.315545
0.297352
0.268137
0.230255
0.159655
0.104679
5.37156
1.20877
0.354119
0.189536
0.327367
0.366123
0.367501
0.381137
0.403383
0.418284
0.419897
0.430577
0.453615
0.460191
0.452833
0.433952
0.399224
0.366362
0.344049
0.330772
0.314602
0.287154
0.250983
0.186356
0.140748
5.22372
1.27987
0.391592
0.179715
0.333426
0.37641
0.378111
0.391035
0.41138
0.425261
0.426624
0.436031
0.459684
0.468456
0.462424
0.445113
0.412631
0.381196
0.360974
0.349762
0.336169
0.31103
0.2771
0.218771
0.180562
5.04585
1.37564
0.437479
0.174085
0.341619
0.389146
0.390914
0.402714
0.420862
0.433506
0.434629
0.442507
0.466768
0.47813
0.473651
0.458241
0.428805
0.399182
0.381274
0.372283
0.361915
0.339748
0.309138
0.257632
0.226282
4.85049
1.4989
0.492056
0.176328
0.352104
0.403602
0.405671
0.415928
0.431356
0.442624
0.443764
0.450329
0.474772
0.488926
0.48628
0.473304
0.447666
0.420094
0.404605
0.397936
0.391347
0.373545
0.347808
0.304445
0.281517
4.64913
1.65008
0.555644
0.188946
0.364703
0.418787
0.421918
0.430216
0.442577
0.452461
0.454065
0.459557
0.483236
0.500643
0.500287
0.490186
0.468846
0.443558
0.430414
0.42637
0.42466
0.412573
0.394505
0.361872
0.352419
4.43787
1.82292
0.626185
0.210729
0.378021
0.43409
0.439027
0.444988
0.454145
0.462837
0.465537
0.470133
0.49216
0.513061
0.515642
0.508531
0.492026
0.469027
0.458166
0.45734
0.461413
0.456994
0.449874
0.434436
0.449569
4.20583
1.98052
0.693985
0.238668
0.39046
0.448328
0.455267
0.45929
0.465582
0.473585
0.477876
0.481865
0.50183
0.525995
0.532091
0.528049
0.516008
0.495998
0.487684
0.490669
0.500574
0.50689
0.516382
0.530581
0.614418
5.6217
1.12334
0.295465
0.207889
0.328043
0.352217
0.35195
0.36646
0.392155
0.409222
0.410872
0.422378
0.443774
0.447066
0.437379
0.415601
0.37793
0.342831
0.317438
0.300403
0.280196
0.249486
0.210194
0.132312
0.0566747
5.59492
1.13561
0.304935
0.204594
0.32653
0.353373
0.353611
0.36779
0.392603
0.409056
0.410786
0.42267
0.444639
0.448797
0.439838
0.418768
0.381589
0.346745
0.321615
0.305057
0.285383
0.254977
0.215822
0.139881
0.0726035
5.50407
1.16187
0.324818
0.198938
0.325665
0.358252
0.359194
0.37323
0.39704
0.412837
0.41459
0.42621
0.448577
0.453695
0.445322
0.425133
0.388828
0.354737
0.330702
0.315538
0.297352
0.268146
0.230266
0.159664
0.104681
5.37185
1.2086
0.354055
0.189593
0.327366
0.36611
0.367487
0.381127
0.403379
0.418285
0.419905
0.430577
0.453616
0.460199
0.45284
0.433958
0.399228
0.366361
0.344045
0.330767
0.314601
0.287161
0.250992
0.186363
0.140749
5.22397
1.2797
0.391532
0.179762
0.333422
0.376397
0.378098
0.391025
0.411378
0.425267
0.426628
0.436053
0.459707
0.468462
0.462429
0.445116
0.41263
0.381195
0.360971
0.349758
0.336168
0.311035
0.277107
0.218776
0.180563
5.0461
1.37547
0.437423
0.174122
0.341614
0.389133
0.390902
0.402705
0.420857
0.433504
0.43463
0.442502
0.466768
0.478141
0.473661
0.458249
0.428812
0.399184
0.381272
0.37228
0.361913
0.33975
0.309143
0.257637
0.226282
4.8507
1.49871
0.492003
0.176353
0.352099
0.403591
0.405659
0.415919
0.43135
0.44262
0.443771
0.450325
0.474758
0.488932
0.486291
0.473312
0.447675
0.420098
0.404604
0.397933
0.391343
0.373545
0.347812
0.304449
0.281518
4.64932
1.6499
0.555596
0.188961
0.3647
0.418779
0.421907
0.430206
0.442571
0.452456
0.454063
0.459558
0.483239
0.500644
0.500292
0.490189
0.468847
0.443557
0.430411
0.426366
0.424656
0.41257
0.394507
0.361876
0.352421
4.43805
1.82276
0.626145
0.210738
0.37802
0.434084
0.439017
0.44498
0.45414
0.462831
0.465518
0.470118
0.492171
0.513064
0.515638
0.508527
0.492019
0.469022
0.458161
0.457333
0.461407
0.45699
0.449875
0.43444
0.449571
4.20601
1.98045
0.693972
0.238673
0.390464
0.448326
0.455261
0.459284
0.465579
0.473578
0.477847
0.481843
0.501851
0.526001
0.532081
0.528037
0.515996
0.495987
0.487675
0.49066
0.500567
0.506886
0.516382
0.530584
0.61442
5.62158
1.12332
0.295449
0.207883
0.328046
0.352221
0.351957
0.36647
0.392167
0.409236
0.410888
0.422394
0.443793
0.44709
0.437407
0.415636
0.377968
0.342863
0.317457
0.30041
0.280194
0.249477
0.210178
0.132295
0.0566693
5.59485
1.13558
0.304919
0.204585
0.32653
0.353372
0.353612
0.367791
0.392602
0.409052
0.410783
0.422671
0.444642
0.448804
0.439855
0.418797
0.381624
0.346776
0.321633
0.305063
0.285381
0.254968
0.215808
0.139867
0.0726012
5.504
1.16184
0.324801
0.198933
0.325666
0.358251
0.359195
0.37323
0.397037
0.412828
0.414581
0.426206
0.448571
0.453697
0.445333
0.425158
0.388859
0.354761
0.330715
0.315541
0.297349
0.268138
0.230255
0.159654
0.104681
5.37179
1.20857
0.354036
0.189588
0.327365
0.36611
0.367488
0.381129
0.403381
0.418284
0.419904
0.43059
0.453632
0.460218
0.452873
0.434003
0.399276
0.366404
0.34407
0.330776
0.314602
0.287156
0.250985
0.186358
0.140753
5.22393
1.27966
0.39151
0.179757
0.333421
0.376398
0.378101
0.391031
0.411387
0.425279
0.426648
0.436084
0.459746
0.468511
0.462492
0.445188
0.412708
0.381259
0.361009
0.349776
0.336174
0.311033
0.277103
0.218776
0.18057
5.04609
1.37542
0.437397
0.174115
0.341613
0.389134
0.390907
0.402717
0.420875
0.433528
0.434672
0.442538
0.466806
0.478216
0.473754
0.458346
0.428907
0.399247
0.381312
0.372299
0.361922
0.339752
0.309144
0.25764
0.226293
4.85071
1.49866
0.491973
0.176344
0.352097
0.403592
0.405665
0.415933
0.431371
0.442649
0.443823
0.450359
0.474776
0.489011
0.486394
0.473425
0.447798
0.420167
0.404642
0.397943
0.391351
0.37355
0.347815
0.304455
0.281532
4.64936
1.64983
0.555562
0.188949
0.364697
0.418778
0.42191
0.430217
0.442588
0.452481
0.454109
0.459583
0.483239
0.500709
0.500383
0.490285
0.468952
0.443617
0.430442
0.426373
0.42466
0.412575
0.394512
0.361885
0.352436
4.43811
1.82268
0.626111
0.210723
0.378016
0.434081
0.439017
0.444986
0.454151
0.462845
0.465545
0.470125
0.492171
0.513113
0.515705
0.508594
0.492088
0.469061
0.45818
0.45734
0.46141
0.456995
0.449881
0.43445
0.449587
4.2061
1.9804
0.693948
0.238659
0.390459
0.448322
0.455258
0.459284
0.465582
0.473581
0.477852
0.481838
0.501861
0.526039
0.53212
0.528074
0.516028
0.496002
0.487682
0.490661
0.500569
0.506891
0.516389
0.530595
0.614436
5.62197
1.12323
0.295399
0.207918
0.328059
0.352197
0.351925
0.366434
0.392132
0.409227
0.410898
0.422402
0.443863
0.447237
0.437586
0.415826
0.378114
0.342943
0.317481
0.300394
0.280175
0.249475
0.210192
0.132319
0.0566817
5.59471
1.13547
0.30486
0.204662
0.326575
0.353412
0.353663
0.367876
0.392736
0.409265
0.411031
0.422858
0.444899
0.449119
0.440135
0.419037
0.381788
0.346857
0.321657
0.30505
0.285365
0.254968
0.215822
0.139889
0.0726114
5.50402
1.16173
0.32474
0.198981
0.325691
0.358275
0.359229
0.37328
0.39711
0.412946
0.414692
0.426244
0.448671
0.453838
0.445466
0.425277
0.388945
0.354803
0.330721
0.315524
0.297331
0.268133
0.230264
0.159672
0.10469
5.37202
1.20845
0.353987
0.189627
0.327365
0.366106
0.367487
0.381127
0.403378
0.418284
0.419879
0.430545
0.453607
0.460198
0.452848
0.433973
0.399238
0.366366
0.344031
0.330739
0.314572
0.287143
0.250988
0.186371
0.14076
5.22408
1.27953
0.391466
0.179787
0.333413
0.376376
0.378075
0.390994
0.411332
0.425202
0.42654
0.435999
0.459656
0.468382
0.462352
0.445048
0.412564
0.381153
0.360931
0.349719
0.336131
0.311011
0.277099
0.218783
0.180575
5.04623
1.37528
0.437354
0.174136
0.341603
0.389111
0.390874
0.402666
0.4208
0.433426
0.434527
0.44244
0.466709
0.478035
0.47355
0.45814
0.4287
0.399112
0.381213
0.372232
0.361869
0.339721
0.309131
0.257642
0.226295
4.8508
1.49852
0.49193
0.176356
0.352087
0.403572
0.405634
0.415884
0.431302
0.442555
0.443678
0.45027
0.474724
0.488832
0.486172
0.473184
0.447537
0.420007
0.404535
0.39788
0.391295
0.373511
0.347796
0.304451
0.281529
4.64945
1.6497
0.55552
0.188955
0.36469
0.418763
0.421886
0.43018
0.442539
0.452412
0.453988
0.459518
0.483241
0.500566
0.500179
0.49006
0.468703
0.443463
0.430342
0.42631
0.424605
0.412533
0.394487
0.361876
0.352429
4.43819
1.82257
0.626073
0.210725
0.378012
0.43407
0.439001
0.444962
0.454122
0.462808
0.465468
0.470099
0.4922
0.513014
0.515541
0.508411
0.491882
0.468931
0.458094
0.457276
0.461356
0.456951
0.449852
0.434435
0.449576
4.20617
1.98034
0.693924
0.238658
0.390458
0.448316
0.455247
0.459273
0.465572
0.473572
0.477823
0.481846
0.501893
0.525976
0.532006
0.52794
0.515886
0.495901
0.487613
0.490605
0.50052
0.506845
0.516356
0.530575
0.614419
5.62183
1.12316
0.29543
0.208064
0.328147
0.352258
0.351972
0.366481
0.392181
0.409243
0.410889
0.422404
0.443802
0.447126
0.437495
0.415777
0.378128
0.343006
0.317564
0.300477
0.280238
0.249516
0.21023
0.132394
0.0570722
5.59517
1.13542
0.304898
0.204763
0.326624
0.353406
0.353632
0.367817
0.392647
0.40912
0.410869
0.422764
0.444754
0.448964
0.440053
0.419027
0.381846
0.346957
0.321765
0.305148
0.285442
0.255027
0.215882
0.139984
0.072919
5.50417
1.16165
0.324773
0.199122
0.325757
0.358292
0.359235
0.37329
0.397136
0.412985
0.414784
0.426385
0.448795
0.453974
0.445617
0.425441
0.38912
0.354962
0.33086
0.315634
0.297417
0.268205
0.230333
0.159767
0.104906
5.3719
1.20835
0.354005
0.189777
0.327436
0.366157
0.367536
0.381195
0.40348
0.418434
0.42008
0.430682
0.453779
0.460454
0.453104
0.434228
0.399481
0.366548
0.344181
0.33085
0.314665
0.287223
0.251063
0.186464
0.140928
5.22408
1.27942
0.391475
0.179935
0.333484
0.376435
0.37814
0.39108
0.411451
0.425366
0.426742
0.436109
0.459798
0.468627
0.462608
0.445323
0.412845
0.381351
0.361083
0.349826
0.336227
0.311096
0.277179
0.218872
0.180716
5.04623
1.37516
0.437352
0.174278
0.34167
0.389161
0.39093
0.402737
0.420895
0.433556
0.434674
0.442566
0.466861
0.478216
0.473747
0.45836
0.428926
0.399315
0.381375
0.372354
0.361971
0.33981
0.309213
0.257728
0.226421
4.85084
1.49838
0.491917
0.176488
0.35215
0.403616
0.405679
0.415936
0.431367
0.44264
0.443764
0.450368
0.474856
0.488975
0.486337
0.473384
0.447753
0.420214
0.404702
0.398011
0.391401
0.373603
0.34788
0.304536
0.281645
4.64946
1.64955
0.555491
0.189069
0.364749
0.418803
0.421924
0.430219
0.44258
0.452463
0.454052
0.459589
0.48331
0.500676
0.50033
0.490251
0.46892
0.44366
0.430501
0.426443
0.424714
0.412628
0.394572
0.361958
0.352531
4.4382
1.82241
0.62603
0.210818
0.378068
0.434109
0.439036
0.444995
0.454151
0.46284
0.465533
0.470162
0.4922
0.51308
0.515682
0.508593
0.492109
0.46912
0.458244
0.457403
0.461463
0.457046
0.449933
0.434511
0.449663
4.20625
1.98023
0.693891
0.238736
0.390514
0.448355
0.455282
0.459304
0.465594
0.473593
0.477885
0.481896
0.501853
0.526007
0.532132
0.528112
0.516094
0.496088
0.487752
0.490724
0.500612
0.506932
0.516434
0.530643
0.614491
3.9609
2.07315
0.746689
0.276203
0.403113
0.460511
0.470067
0.472474
0.476845
0.484675
0.490774
0.49485
0.512586
0.539415
0.549653
0.548474
0.540324
0.524632
0.518483
0.525414
0.542024
0.561015
0.592764
0.655503
0.816322
3.73355
2.15487
0.817929
0.326799
0.41539
0.469726
0.48288
0.484502
0.487835
0.495985
0.504326
0.509394
0.524859
0.552974
0.567496
0.569255
0.56539
0.555478
0.550606
0.560647
0.582326
0.614719
0.66457
0.749282
0.91492
3.52984
2.24461
0.900917
0.386215
0.428792
0.474116
0.493577
0.496257
0.499027
0.507791
0.518737
0.525585
0.538418
0.566569
0.585095
0.589747
0.589785
0.584884
0.581501
0.593892
0.620311
0.659945
0.720373
0.804827
0.945296
3.37517
2.3394
0.995398
0.466003
0.437449
0.473736
0.506559
0.50974
0.511088
0.521079
0.534752
0.543873
0.554137
0.578864
0.601814
0.610617
0.614488
0.614716
0.612379
0.625467
0.653785
0.697026
0.759173
0.837769
0.951127
3.24074
2.41291
1.14677
0.567337
0.438975
0.480733
0.522709
0.524446
0.525046
0.536824
0.552644
0.563172
0.570568
0.590846
0.617142
0.631085
0.638072
0.641912
0.642759
0.654859
0.683212
0.72487
0.786388
0.860913
0.956871
3.14043
2.52288
1.37054
0.672124
0.440974
0.49408
0.541092
0.540672
0.541593
0.555178
0.571447
0.582152
0.587108
0.602345
0.631193
0.650392
0.660553
0.668254
0.672773
0.681989
0.708945
0.747395
0.804694
0.876255
0.957087
3.07878
2.62044
1.65687
0.775897
0.444012
0.511735
0.556502
0.557435
0.560683
0.575363
0.590244
0.600056
0.603744
0.614427
0.643299
0.667679
0.682074
0.692723
0.701162
0.70721
0.730418
0.766136
0.81721
0.883053
0.953184
3.01855
2.64091
1.84009
0.862528
0.472775
0.535946
0.564815
0.575194
0.583142
0.596599
0.608573
0.616968
0.620525
0.627559
0.653331
0.682721
0.702275
0.715006
0.726402
0.733757
0.750948
0.78353
0.826394
0.882797
0.947525
2.94329
2.64174
2.00208
0.995938
0.549983
0.556421
0.571356
0.598528
0.609289
0.61779
0.626169
0.63292
0.636665
0.640924
0.661704
0.695817
0.720281
0.735866
0.748416
0.759071
0.769562
0.796987
0.833236
0.878972
0.939152
2.85905
2.64558
2.14301
1.19181
0.655748
0.575182
0.593622
0.626907
0.63581
0.638917
0.643175
0.64823
0.652373
0.654872
0.670127
0.70503
0.735005
0.754885
0.768764
0.782338
0.791389
0.808913
0.839028
0.877549
0.926518
2.79228
2.68158
2.3211
1.45193
0.771855
0.601681
0.62178
0.653227
0.660896
0.65954
0.659737
0.662924
0.667652
0.670604
0.680137
0.712197
0.747092
0.770837
0.787111
0.800847
0.812247
0.820768
0.844993
0.878259
0.917605
2.79493
2.76437
2.51209
1.77771
0.913361
0.630351
0.651252
0.670311
0.681508
0.679517
0.67601
0.677848
0.683169
0.687473
0.692676
0.716339
0.754808
0.783545
0.803299
0.817629
0.831127
0.839249
0.851561
0.878584
0.91205
2.86969
2.86244
2.66792
2.0638
1.07769
0.687958
0.678238
0.682978
0.702105
0.700506
0.693719
0.694252
0.699529
0.704577
0.707091
0.721675
0.760443
0.79378
0.816465
0.83271
0.845848
0.857775
0.864113
0.880799
0.907819
2.94165
2.9499
2.80474
2.3178
1.36138
0.795162
0.704119
0.709109
0.723061
0.719604
0.712541
0.712588
0.717028
0.721988
0.723731
0.731673
0.763056
0.800186
0.827589
0.846138
0.859096
0.871476
0.879531
0.886933
0.906242
2.99277
3.02534
2.92887
2.57832
1.74278
0.921735
0.739464
0.738902
0.737979
0.740062
0.735266
0.733573
0.735849
0.739928
0.741892
0.743909
0.765092
0.806048
0.838182
0.858653
0.873211
0.883747
0.895021
0.899403
0.90702
3.03076
3.08957
3.02316
2.76844
2.09235
1.11201
0.784234
0.76219
0.755628
0.763935
0.763079
0.75775
0.756352
0.758744
0.76098
0.76034
0.769811
0.808204
0.846068
0.870857
0.885111
0.896233
0.905627
0.91501
0.91662
3.06215
3.14239
3.09698
2.91674
2.39034
1.42142
0.876444
0.790268
0.789531
0.79049
0.789354
0.784384
0.779933
0.779263
0.781085
0.780761
0.781317
0.806227
0.850601
0.881331
0.898286
0.907981
0.915998
0.924063
0.931868
3.08628
3.18432
3.15513
3.03639
2.68138
1.88081
1.00874
0.834502
0.82601
0.815989
0.816922
0.812981
0.805349
0.802263
0.802749
0.802881
0.799935
0.807449
0.848214
0.888499
0.910712
0.921892
0.928414
0.933328
0.940267
3.10487
3.21601
3.19658
3.1162
2.87328
2.23644
1.25095
0.899525
0.855449
0.848257
0.847455
0.841335
0.833431
0.827257
0.826067
0.826106
0.822984
0.820341
0.842028
0.887863
0.918917
0.934786
0.941636
0.946601
0.94974
3.11858
3.24026
3.22795
3.17631
3.01954
2.57324
1.67217
0.994323
0.891782
0.887252
0.876402
0.873878
0.863682
0.856286
0.852123
0.850523
0.847596
0.841912
0.845226
0.878761
0.921698
0.945134
0.954766
0.958682
0.963976
3.12832
3.25755
3.24966
3.21616
3.11553
2.83193
2.13019
1.19623
0.950382
0.918524
0.909536
0.906274
0.899125
0.887369
0.880301
0.876715
0.873243
0.867556
0.861117
0.875203
0.914446
0.948567
0.966067
0.972018
0.974768
3.13519
3.2701
3.26495
3.24328
3.17987
3.00216
2.5097
1.58142
1.02884
0.953636
0.94828
0.936896
0.934489
0.92338
0.912788
0.905042
0.900161
0.8944
0.886103
0.883184
0.908779
0.943271
0.970972
0.984162
0.987938
3.13995
3.27835
3.27429
3.25983
3.22029
3.11241
2.81532
2.0953
1.21482
1.00817
0.980488
0.972444
0.966636
0.963528
0.948664
0.937444
0.928856
0.922075
0.914306
0.904489
0.906613
0.941663
0.970203
0.992282
1.00115
3.14206
3.28224
3.27867
3.26962
3.24599
3.18182
3.00275
2.50558
1.5872
1.0801
1.01741
1.01078
0.999767
0.996342
0.991402
0.973525
0.96193
0.951571
0.943239
0.932666
0.922696
0.934804
0.97068
0.992585
1.00946
3.13991
3.28227
3.28055
3.2755
3.26096
3.22251
3.11831
2.83
2.12055
1.27352
1.07298
1.04392
1.03804
1.0294
1.02922
1.01952
0.997811
0.984124
0.97333
0.963179
0.949844
0.942264
0.964346
0.994558
1.01377
3.13676
3.28169
3.2816
3.2787
3.27052
3.24862
3.1895
3.02495
2.56292
1.67571
1.14461
1.08492
1.07472
1.06585
1.06073
1.059
1.04602
1.02162
1.00556
0.994053
0.981174
0.966243
0.962775
0.994407
1.01959
3.13534
3.28075
3.28266
3.28121
3.2766
3.26403
3.23062
3.13889
2.88169
2.21487
1.37487
1.14321
1.10954
1.10553
1.09483
1.09417
1.08893
1.06959
1.04422
1.02667
1.01311
0.996953
0.981341
0.987297
1.02162
3.13459
3.28012
3.28358
3.28283
3.2803
3.27336
3.255
3.20596
3.06907
2.68013
1.84843
1.23225
1.15555
1.14025
1.13428
1.12629
1.12596
1.11743
1.09079
1.06463
1.04721
1.0306
1.01132
0.997493
1.01231
3.1343
3.27987
3.2842
3.28383
3.28248
3.27873
3.26879
3.24246
3.17027
2.96461
2.39244
1.53722
1.21828
1.17898
1.17302
1.16247
1.15795
1.15612
1.14361
1.11097
1.08413
1.0658
1.04612
1.02472
1.0143
3.13427
3.27979
3.28458
3.28441
3.28371
3.28177
3.27658
3.26273
3.22577
3.12251
2.82944
2.10106
1.37855
1.23249
1.20859
1.20408
1.19237
1.18998
1.18528
1.16624
1.1302
1.10358
1.08229
1.05936
1.03668
3.13434
3.27973
3.28483
3.28476
3.28445
3.2835
3.28085
3.2738
3.25509
3.2044
3.06005
2.64174
1.81743
1.30879
1.25326
1.24
1.23283
1.22357
1.2221
1.21255
1.18412
1.14912
1.12175
1.09625
1.06949
3.13438
3.27971
3.285
3.28497
3.28483
3.28436
3.28307
3.27962
3.27039
3.2456
3.17651
2.97602
2.40523
1.6112
1.31466
1.28035
1.27258
1.26101
1.25478
1.25176
1.23702
1.20078
1.16496
1.13579
1.10708
3.13438
3.27974
3.28504
3.2851
3.28504
3.28483
3.28422
3.28258
3.27817
3.26632
3.23425
3.14297
2.87831
2.1922
1.50457
1.33627
1.30963
1.30341
1.29064
1.28612
1.27949
1.25741
1.21471
1.17841
1.14647
3.13438
3.27977
3.28505
3.28517
3.28514
3.28505
3.28478
3.28403
3.28201
3.27659
3.26191