/*--------------------------------*- C++ -*----------------------------------*\
| =========                 |                                                 |
| \\      /  F ield         | OpenFOAM: The Open Source CFD Toolbox           |
|  \\    /   O peration     | Version:  4.1                                   |
|   \\  /    A nd           | Web:      www.OpenFOAM.org                      |
|    \\/     M anipulation  |                                                 |
\*---------------------------------------------------------------------------*/
FoamFile
{
    version     2.0;
    format      ascii;
    class       volScalarField;
    location    "0.82";
    object      p;
}
// * * * * * * * * * * * * * * * * * * * * * * * * * * * * * * * * * * * * * //

dimensions      [1 -1 -2 0 0 0 0];

internalField   nonuniform List<scalar> 
52500
(
0.0489999
0.225005
0.869017
0.836181
0.732514
0.68966
0.673313
0.657652
0.638718
0.614067
0.587814
0.571469
0.550986
0.53287
0.519741
0.509515
0.502818
0.495555
0.483465
0.46707
0.450789
0.441231
0.443927
0.45369
0.472536
0.0493109
0.223726
0.864752
0.835724
0.734029
0.690701
0.674374
0.659083
0.639695
0.61461
0.588209
0.571837
0.551465
0.533283
0.51989
0.509585
0.502712
0.49546
0.483398
0.46698
0.450765
0.441442
0.444332
0.454232
0.473419
0.0504522
0.221093
0.854595
0.834487
0.73719
0.692323
0.675863
0.66099
0.640556
0.614605
0.588048
0.571478
0.551421
0.533196
0.519333
0.509053
0.501681
0.494421
0.482278
0.465804
0.449676
0.440629
0.443716
0.453596
0.473097
0.0521462
0.216235
0.834883
0.834313
0.743643
0.694949
0.678435
0.663374
0.641481
0.614542
0.588081
0.571116
0.55159
0.533368
0.518695
0.508456
0.50028
0.492865
0.480475
0.464056
0.448035
0.43926
0.442623
0.452426
0.472373
0.0540672
0.208665
0.798907
0.848197
0.748262
0.698543
0.682053
0.665974
0.642378
0.614338
0.588113
0.570596
0.551737
0.533602
0.517911
0.507766
0.498391
0.490655
0.477901
0.461864
0.445925
0.437257
0.44082
0.450422
0.470916
0.0564723
0.198649
0.748463
0.868963
0.755688
0.703639
0.686506
0.66895
0.643352
0.614224
0.588164
0.569897
0.5516
0.533688
0.517191
0.506924
0.496147
0.487797
0.474639
0.459139
0.443217
0.434393
0.437908
0.446952
0.467999
0.0592317
0.186389
0.682754
0.894379
0.766899
0.710394
0.691741
0.672226
0.644452
0.614225
0.588153
0.56889
0.551271
0.533493
0.516683
0.505772
0.493623
0.484374
0.470809
0.455753
0.439885
0.430395
0.433407
0.441291
0.462296
0.0622077
0.172444
0.601817
0.924062
0.780472
0.718733
0.697626
0.675377
0.645497
0.614271
0.588059
0.567212
0.551307
0.533123
0.516217
0.504191
0.490842
0.480515
0.466704
0.451624
0.435739
0.424933
0.426559
0.432433
0.451939
0.065548
0.157784
0.507887
0.94974
0.795514
0.728503
0.704025
0.678395
0.646577
0.614299
0.587782
0.565486
0.551276
0.532902
0.515549
0.502242
0.487881
0.476356
0.462645
0.446745
0.430529
0.418049
0.415795
0.419137
0.433198
0.0697599
0.146062
0.419598
0.959331
0.808882
0.738026
0.710307
0.680968
0.647353
0.614286
0.587401
0.564868
0.551437
0.532896
0.514984
0.499757
0.48513
0.472016
0.458157
0.441358
0.424374
0.409538
0.40127
0.397075
0.39886
0.0489909
0.225008
0.869016
0.836155
0.732479
0.689619
0.673275
0.657616
0.638687
0.614031
0.587776
0.571446
0.550973
0.532863
0.519737
0.509521
0.502823
0.495557
0.483463
0.467059
0.450773
0.441207
0.443897
0.453649
0.472459
0.0493116
0.223733
0.864749
0.835703
0.733998
0.69066
0.674338
0.659053
0.639664
0.614576
0.588189
0.5718
0.551451
0.53328
0.519884
0.509603
0.502715
0.495465
0.483397
0.46697
0.45075
0.441418
0.444301
0.45419
0.473342
0.0504507
0.2211
0.8546
0.834468
0.737154
0.692283
0.675827
0.660958
0.640526
0.614572
0.588033
0.571439
0.551406
0.533191
0.519328
0.509065
0.501684
0.494427
0.48228
0.465796
0.449663
0.440606
0.443684
0.453552
0.473021
0.0521402
0.216243
0.83491
0.83427
0.743611
0.694918
0.678401
0.663345
0.641457
0.614515
0.588058
0.571095
0.551581
0.533364
0.518702
0.508454
0.500292
0.492873
0.480479
0.464045
0.448022
0.439235
0.442589
0.452377
0.472298
0.0540628
0.208672
0.798939
0.848138
0.748234
0.698515
0.682027
0.66595
0.642361
0.614321
0.588078
0.570588
0.55173
0.533598
0.517918
0.507757
0.498399
0.490665
0.477906
0.461853
0.445911
0.437232
0.440784
0.450371
0.470842
0.0564676
0.198654
0.74849
0.868913
0.755663
0.703613
0.68648
0.668929
0.643345
0.614214
0.588134
0.569901
0.5516
0.533679
0.517192
0.506909
0.496155
0.487808
0.474644
0.459128
0.4432
0.434366
0.437871
0.446902
0.46793
0.0592284
0.186392
0.682773
0.894335
0.766879
0.710368
0.691716
0.672212
0.644451
0.61422
0.588129
0.568918
0.551259
0.533489
0.516673
0.505765
0.49363
0.484388
0.470818
0.455746
0.439867
0.430366
0.43337
0.441243
0.462237
0.0622043
0.172444
0.601827
0.924025
0.780456
0.71871
0.697604
0.675367
0.645498
0.614267
0.588044
0.567268
0.551276
0.533119
0.516209
0.504185
0.490846
0.48053
0.4667
0.451626
0.435722
0.424906
0.426522
0.43239
0.451888
0.0655447
0.15778
0.507879
0.949712
0.795501
0.728482
0.704004
0.678385
0.646573
0.614293
0.58778
0.565523
0.551254
0.532887
0.515535
0.502235
0.487882
0.476369
0.462637
0.446747
0.430516
0.418026
0.41576
0.419101
0.433155
0.0697578
0.146057
0.419574
0.959302
0.808871
0.738005
0.710286
0.680956
0.647346
0.61428
0.587396
0.564877
0.551422
0.532876
0.514968
0.499755
0.485119
0.47203
0.458153
0.441358
0.42436
0.409518
0.401242
0.397043
0.398824
0.0489958
0.224998
0.868986
0.836156
0.732499
0.689636
0.673286
0.657627
0.6387
0.614058
0.587796
0.571466
0.550974
0.532865
0.519756
0.509523
0.50283
0.495554
0.483452
0.467047
0.450763
0.441206
0.443903
0.453666
0.472499
0.0493091
0.223719
0.86472
0.835701
0.734015
0.690677
0.674349
0.659061
0.639677
0.614599
0.588196
0.571829
0.551454
0.533281
0.519902
0.509595
0.502725
0.495461
0.483387
0.466958
0.450739
0.441417
0.444308
0.454208
0.473384
0.0504504
0.221086
0.854562
0.834464
0.737176
0.692301
0.675838
0.660967
0.640535
0.61459
0.588038
0.571464
0.551413
0.533197
0.519343
0.509067
0.501693
0.494425
0.48227
0.465784
0.449651
0.440604
0.443691
0.453572
0.473063
0.0521428
0.216227
0.834848
0.834291
0.743629
0.694929
0.678412
0.66335
0.641459
0.614524
0.588075
0.571104
0.551588
0.533373
0.518711
0.508468
0.5003
0.492874
0.480471
0.464036
0.448011
0.439234
0.442598
0.452399
0.47234
0.0540644
0.208656
0.798866
0.848176
0.748249
0.698524
0.682032
0.665953
0.642357
0.614321
0.588102
0.570582
0.551732
0.533609
0.517922
0.507781
0.498405
0.490663
0.477899
0.461847
0.445903
0.437231
0.440794
0.450395
0.470885
0.0564692
0.198638
0.748413
0.868945
0.755678
0.703621
0.686485
0.668929
0.643335
0.614209
0.588156
0.569884
0.551596
0.533692
0.517201
0.50694
0.496161
0.487804
0.474635
0.459124
0.443195
0.434368
0.437883
0.446926
0.467972
0.0592292
0.186377
0.682694
0.894364
0.766892
0.710376
0.69172
0.672208
0.644437
0.614213
0.588148
0.568874
0.551273
0.533499
0.516691
0.505788
0.493635
0.48438
0.470805
0.45574
0.439864
0.43037
0.433382
0.441266
0.462277
0.0622052
0.17243
0.601748
0.924049
0.780467
0.718717
0.697605
0.67536
0.645484
0.614259
0.588054
0.567208
0.551301
0.533131
0.516224
0.504204
0.490851
0.480521
0.466697
0.451613
0.435719
0.42491
0.426536
0.432411
0.451922
0.0655458
0.157769
0.507809
0.949723
0.795509
0.728488
0.704006
0.678379
0.646564
0.614287
0.587778
0.565487
0.55127
0.532902
0.51555
0.50225
0.487887
0.476361
0.462636
0.446735
0.430512
0.418028
0.415774
0.419118
0.433184
0.0697592
0.146053
0.419542
0.959295
0.808871
0.738009
0.710288
0.680953
0.64734
0.614275
0.587395
0.56486
0.551432
0.53289
0.514981
0.499763
0.485129
0.47202
0.45815
0.441348
0.424358
0.409519
0.401251
0.397059
0.398846
0.048994
0.224992
0.868967
0.836146
0.732498
0.689634
0.673284
0.657624
0.638699
0.614058
0.587798
0.571473
0.550984
0.532879
0.519774
0.509541
0.502847
0.495562
0.483449
0.467035
0.450747
0.441187
0.443883
0.453645
0.472473
0.049308
0.223714
0.864701
0.83569
0.734015
0.690675
0.674346
0.659058
0.639675
0.6146
0.5882
0.571835
0.551465
0.533295
0.51992
0.509613
0.502741
0.49547
0.483384
0.466946
0.450724
0.441399
0.444289
0.454187
0.473358
0.0504493
0.221081
0.854543
0.834454
0.737176
0.692299
0.675836
0.660965
0.640534
0.61459
0.588043
0.571468
0.551423
0.53321
0.519362
0.509083
0.501711
0.494434
0.482268
0.465772
0.449637
0.440587
0.443673
0.453552
0.473038
0.0521419
0.216222
0.834825
0.834285
0.743628
0.694927
0.678409
0.663348
0.641459
0.614526
0.588082
0.571109
0.551598
0.533388
0.518727
0.508488
0.500313
0.492881
0.480469
0.464025
0.447999
0.439219
0.442581
0.45238
0.472316
0.0540637
0.20865
0.79884
0.848174
0.748248
0.698523
0.68203
0.665952
0.642358
0.614324
0.588104
0.570591
0.551744
0.533623
0.517937
0.507796
0.498418
0.490672
0.477897
0.461838
0.445891
0.437218
0.440779
0.450377
0.470863
0.0564688
0.198632
0.748384
0.868946
0.755679
0.703621
0.686485
0.668931
0.643339
0.614212
0.588155
0.569897
0.55161
0.533702
0.517215
0.506948
0.496174
0.487813
0.474635
0.459116
0.443185
0.434355
0.437869
0.44691
0.467952
0.0592292
0.18637
0.682661
0.894369
0.766896
0.710378
0.691722
0.672211
0.644443
0.614217
0.588145
0.568898
0.551278
0.533508
0.5167
0.505798
0.493648
0.484392
0.47081
0.455735
0.439854
0.430359
0.43337
0.441252
0.462262
0.0622057
0.172423
0.60171
0.924057
0.780474
0.718721
0.697608
0.675365
0.64549
0.614264
0.588052
0.567236
0.5513
0.533138
0.516235
0.504213
0.490862
0.480533
0.466698
0.451614
0.435712
0.4249
0.426525
0.432399
0.451911
0.0655467
0.157762
0.507767
0.94973
0.795517
0.728492
0.704009
0.678383
0.646569
0.614292
0.587778
0.565502
0.551269
0.532908
0.51556
0.502259
0.487898
0.476372
0.462639
0.446735
0.430506
0.41802
0.415765
0.419108
0.433176
0.0697611
0.146051
0.419519
0.959293
0.808877
0.738012
0.71029
0.680956
0.647345
0.614279
0.587395
0.564871
0.551433
0.532897
0.514994
0.499771
0.485144
0.472029
0.458153
0.441347
0.424353
0.409512
0.401243
0.397051
0.39884
0.0490003
0.224976
0.868913
0.836136
0.732512
0.68965
0.673301
0.65765
0.638716
0.614065
0.587802
0.571475
0.550988
0.532882
0.519774
0.50954
0.502845
0.495561
0.483447
0.467034
0.450743
0.441182
0.44388
0.453648
0.472496
0.0493134
0.223697
0.864644
0.835679
0.734032
0.690694
0.674365
0.659082
0.639691
0.614606
0.588203
0.571838
0.551469
0.533298
0.51992
0.509612
0.502739
0.495467
0.483381
0.466944
0.45072
0.441395
0.444287
0.454191
0.47338
0.0504542
0.221062
0.854479
0.834444
0.737201
0.692319
0.675857
0.660986
0.640547
0.614596
0.588045
0.571472
0.551426
0.533213
0.519361
0.50908
0.501706
0.494429
0.482263
0.465768
0.449633
0.440584
0.443672
0.453556
0.473059
0.0521472
0.216198
0.834729
0.834315
0.743648
0.694947
0.678432
0.663367
0.641469
0.614531
0.588083
0.57111
0.551598
0.533388
0.518725
0.508483
0.500306
0.492873
0.480461
0.46402
0.447996
0.439218
0.442583
0.452387
0.472336
0.0540683
0.208625
0.798725
0.848236
0.748267
0.698543
0.682052
0.665968
0.642369
0.614327
0.588108
0.570593
0.551747
0.533622
0.517934
0.507792
0.498409
0.490662
0.477888
0.461833
0.445889
0.437219
0.440783
0.450384
0.47088
0.0564737
0.198607
0.748259
0.869006
0.755702
0.703642
0.686505
0.668947
0.643347
0.614216
0.588155
0.569897
0.55161
0.533705
0.517212
0.506941
0.496164
0.487802
0.474625
0.45911
0.443183
0.434358
0.437874
0.446917
0.467966
0.0592335
0.186346
0.68253
0.894431
0.766921
0.710399
0.691741
0.672225
0.64445
0.614219
0.588142
0.568901
0.551273
0.533506
0.516697
0.50579
0.493638
0.484381
0.470801
0.45573
0.439855
0.430363
0.433376
0.441259
0.462271
0.06221
0.172402
0.601579
0.924114
0.7805
0.718742
0.697626
0.675376
0.645496
0.614266
0.588048
0.567228
0.551301
0.533132
0.51623
0.504205
0.490853
0.480523
0.466691
0.45161
0.435712
0.424905
0.426531
0.432405
0.451919
0.0655513
0.157745
0.507649
0.94977
0.795542
0.728515
0.704026
0.678392
0.646574
0.614293
0.587773
0.565492
0.55127
0.532908
0.515559
0.502253
0.48789
0.476364
0.462634
0.446732
0.430507
0.418024
0.415771
0.419113
0.433182
0.0697668
0.146047
0.419473
0.959304
0.808893
0.738033
0.710306
0.680963
0.647347
0.614279
0.58739
0.56487
0.551432
0.532901
0.514996
0.499765
0.485141
0.472022
0.458148
0.441346
0.424353
0.409515
0.401247
0.397056
0.398846
0.048998
0.224979
0.86892
0.836135
0.732508
0.689644
0.673295
0.657642
0.638711
0.614065
0.587802
0.571477
0.550989
0.532884
0.519779
0.509545
0.502851
0.495566
0.48345
0.467036
0.450744
0.441181
0.443878
0.453645
0.472491
0.0493115
0.2237
0.864652
0.835678
0.734027
0.690687
0.674358
0.659074
0.639686
0.614605
0.588204
0.57184
0.55147
0.5333
0.519925
0.509616
0.502745
0.495472
0.483384
0.466946
0.450721
0.441394
0.444285
0.454188
0.473375
0.0504524
0.221066
0.854489
0.834443
0.737194
0.692312
0.67585
0.660979
0.640543
0.614595
0.588046
0.571473
0.551427
0.533215
0.519366
0.509085
0.501712
0.494434
0.482267
0.46577
0.449634
0.440583
0.443671
0.453554
0.473054
0.0521453
0.216203
0.834748
0.834304
0.743642
0.69494
0.678424
0.66336
0.641466
0.614531
0.588084
0.571111
0.5516
0.53339
0.518729
0.508487
0.500312
0.492879
0.480466
0.464022
0.447997
0.439218
0.442581
0.452384
0.472331
0.0540666
0.20863
0.79875
0.848217
0.748261
0.698536
0.682045
0.665962
0.642365
0.614327
0.588108
0.570594
0.551749
0.533625
0.517938
0.507796
0.498415
0.490667
0.477892
0.461835
0.44589
0.437219
0.440781
0.450382
0.470875
0.0564719
0.198612
0.748288
0.868988
0.755695
0.703635
0.686498
0.668941
0.643344
0.614215
0.588155
0.569898
0.551612
0.533707
0.517215
0.506946
0.496169
0.487807
0.474629
0.459113
0.443185
0.434358
0.437873
0.446915
0.467962
0.0592319
0.186351
0.682562
0.894412
0.766913
0.710392
0.691734
0.672219
0.644448
0.614219
0.588142
0.568902
0.551273
0.533508
0.5167
0.505794
0.493643
0.484386
0.470805
0.455733
0.439856
0.430363
0.433375
0.441257
0.462269
0.0622084
0.172407
0.601612
0.924097
0.780492
0.718735
0.697619
0.675371
0.645495
0.614266
0.588048
0.56723
0.551302
0.533133
0.516232
0.504209
0.490858
0.480528
0.466694
0.451612
0.435714
0.424905
0.42653
0.432404
0.451917
0.0655496
0.157749
0.507679
0.949757
0.795535
0.728507
0.704019
0.678388
0.646572
0.614293
0.587773
0.565493
0.55127
0.532909
0.515561
0.502256
0.487894
0.476368
0.462637
0.446735
0.430509
0.418025
0.41577
0.419113
0.43318
0.0697648
0.146048
0.419484
0.9593
0.808888
0.738025
0.710299
0.68096
0.647346
0.614279
0.58739
0.56487
0.551432
0.532901
0.514997
0.499768
0.485144
0.472026
0.458152
0.441348
0.424356
0.409517
0.401247
0.397056
0.398845
0.048994
0.224992
0.868967
0.836146
0.732498
0.689634
0.673284
0.657624
0.638699
0.614058
0.587798
0.571473
0.550984
0.532879
0.519774
0.509541
0.502847
0.495562
0.483449
0.467035
0.450748
0.441187
0.443883
0.453645
0.472473
0.0493079
0.223714
0.864701
0.83569
0.734015
0.690675
0.674346
0.659058
0.639675
0.614599
0.5882
0.571835
0.551465
0.533295
0.51992
0.509614
0.502742
0.49547
0.483384
0.466946
0.450724
0.441399
0.444289
0.454187
0.473358
0.0504492
0.221081
0.854543
0.834454
0.737176
0.692299
0.675836
0.660964
0.640534
0.61459
0.588043
0.571468
0.551423
0.53321
0.519362
0.509083
0.501711
0.494434
0.482268
0.465772
0.449637
0.440587
0.443673
0.453552
0.473038
0.0521418
0.216222
0.834826
0.834285
0.743628
0.694927
0.678409
0.663348
0.641459
0.614526
0.588082
0.571109
0.551598
0.533388
0.518727
0.508488
0.500313
0.492881
0.480469
0.464025
0.447999
0.439219
0.442581
0.45238
0.472316
0.0540637
0.20865
0.798841
0.848174
0.748248
0.698523
0.68203
0.665952
0.642358
0.614324
0.588104
0.570591
0.551744
0.533623
0.517937
0.507796
0.498418
0.490672
0.477897
0.461838
0.445891
0.437218
0.440779
0.450377
0.470863
0.0564688
0.198632
0.748384
0.868946
0.755679
0.703621
0.686485
0.66893
0.643339
0.614212
0.588155
0.569897
0.55161
0.533703
0.517215
0.506948
0.496174
0.487813
0.474635
0.459116
0.443185
0.434355
0.437869
0.44691
0.467952
0.0592292
0.18637
0.682661
0.894369
0.766896
0.710378
0.691721
0.672211
0.644442
0.614217
0.588145
0.568898
0.551278
0.533508
0.5167
0.505798
0.493648
0.484392
0.47081
0.455735
0.439855
0.430359
0.43337
0.441252
0.462262
0.0622057
0.172423
0.601711
0.924057
0.780474
0.718721
0.697608
0.675365
0.64549
0.614264
0.588052
0.567236
0.5513
0.533138
0.516235
0.504213
0.490863
0.480533
0.466698
0.451614
0.435712
0.4249
0.426525
0.432399
0.451911
0.0655467
0.157762
0.507768
0.94973
0.795517
0.728492
0.704008
0.678383
0.646569
0.614292
0.587779
0.565502
0.551269
0.532908
0.515561
0.502259
0.487898
0.476372
0.462639
0.446735
0.430506
0.41802
0.415765
0.419108
0.433175
0.069761
0.146051
0.419519
0.959293
0.808877
0.738012
0.710289
0.680956
0.647345
0.614279
0.587395
0.564871
0.551433
0.532897
0.514994
0.499771
0.485144
0.47203
0.458153
0.441347
0.424353
0.409512
0.401243
0.397051
0.39884
0.0489958
0.224998
0.868986
0.836156
0.732499
0.689636
0.673286
0.657627
0.6387
0.614058
0.587796
0.571466
0.550974
0.532865
0.519756
0.509523
0.50283
0.495554
0.483452
0.467047
0.450763
0.441206
0.443903
0.453666
0.472499
0.0493091
0.223719
0.86472
0.835701
0.734015
0.690677
0.674349
0.659061
0.639677
0.614599
0.588196
0.571829
0.551454
0.533281
0.519902
0.509595
0.502725
0.495461
0.483387
0.466958
0.450739
0.441417
0.444308
0.454208
0.473384
0.0504504
0.221086
0.854562
0.834464
0.737176
0.692301
0.675838
0.660967
0.640535
0.61459
0.588038
0.571464
0.551413
0.533197
0.519343
0.509067
0.501693
0.494425
0.48227
0.465784
0.449651
0.440604
0.443691
0.453572
0.473063
0.0521428
0.216227
0.834848
0.834291
0.743629
0.694929
0.678412
0.66335
0.641459
0.614524
0.588075
0.571104
0.551588
0.533373
0.518711
0.508468
0.5003
0.492874
0.480471
0.464036
0.448011
0.439234
0.442598
0.452399
0.47234
0.0540644
0.208656
0.798866
0.848176
0.748249
0.698524
0.682032
0.665953
0.642357
0.614321
0.588102
0.570582
0.551732
0.533609
0.517922
0.507781
0.498405
0.490663
0.477899
0.461847
0.445903
0.437231
0.440794
0.450395
0.470885
0.0564692
0.198638
0.748413
0.868945
0.755678
0.703621
0.686485
0.668929
0.643335
0.614209
0.588156
0.569884
0.551596
0.533692
0.517201
0.50694
0.496161
0.487804
0.474635
0.459124
0.443195
0.434368
0.437883
0.446926
0.467972
0.0592292
0.186377
0.682694
0.894364
0.766892
0.710376
0.69172
0.672208
0.644437
0.614213
0.588148
0.568874
0.551273
0.533499
0.516691
0.505788
0.493635
0.48438
0.470805
0.45574
0.439864
0.43037
0.433382
0.441266
0.462277
0.0622052
0.17243
0.601748
0.924049
0.780467
0.718717
0.697605
0.67536
0.645484
0.614259
0.588054
0.567208
0.551301
0.533131
0.516224
0.504204
0.490851
0.480521
0.466697
0.451613
0.435719
0.42491
0.426536
0.432411
0.451922
0.0655458
0.157769
0.507809
0.949723
0.795509
0.728488
0.704006
0.678379
0.646563
0.614287
0.587778
0.565487
0.55127
0.532902
0.51555
0.50225
0.487887
0.476361
0.462637
0.446735
0.430512
0.418028
0.415774
0.419118
0.433184
0.0697592
0.146053
0.419542
0.959295
0.808871
0.738009
0.710288
0.680953
0.64734
0.614275
0.587395
0.56486
0.551432
0.53289
0.514981
0.499763
0.485129
0.47202
0.45815
0.441348
0.424358
0.409519
0.401251
0.397059
0.398846
0.0489909
0.225008
0.869016
0.836154
0.732479
0.689619
0.673275
0.657616
0.638686
0.614031
0.587776
0.571446
0.550973
0.532862
0.519737
0.509521
0.502823
0.495557
0.483463
0.467059
0.450773
0.441207
0.443897
0.453649
0.472459
0.0493115
0.223733
0.864749
0.835703
0.733998
0.69066
0.674338
0.659053
0.639663
0.614576
0.588189
0.5718
0.551451
0.53328
0.519884
0.509602
0.502715
0.495465
0.483397
0.46697
0.45075
0.441419
0.444302
0.45419
0.473343
0.0504507
0.2211
0.8546
0.834468
0.737154
0.692282
0.675826
0.660958
0.640526
0.614572
0.588033
0.571439
0.551406
0.533191
0.519328
0.509065
0.501684
0.494427
0.48228
0.465796
0.449663
0.440606
0.443684
0.453552
0.473021
0.0521402
0.216243
0.83491
0.83427
0.74361
0.694918
0.678401
0.663345
0.641457
0.614515
0.588058
0.571095
0.551581
0.533364
0.518702
0.508454
0.500292
0.492873
0.480479
0.464045
0.448022
0.439236
0.442589
0.452377
0.472298
0.0540628
0.208672
0.798939
0.848138
0.748234
0.698515
0.682026
0.66595
0.642361
0.614321
0.588078
0.570588
0.55173
0.533597
0.517918
0.507757
0.498399
0.490665
0.477906
0.461853
0.445911
0.437232
0.440784
0.450371
0.470843
0.0564676
0.198654
0.74849
0.868913
0.755663
0.703613
0.68648
0.668929
0.643345
0.614214
0.588134
0.569901
0.5516
0.533678
0.517192
0.506909
0.496155
0.487808
0.474644
0.459128
0.4432
0.434366
0.437872
0.446902
0.46793
0.0592284
0.186392
0.682773
0.894334
0.766879
0.710368
0.691716
0.672212
0.644451
0.61422
0.588129
0.568918
0.551259
0.533489
0.516673
0.505765
0.49363
0.484388
0.470818
0.455746
0.439867
0.430366
0.43337
0.441243
0.462238
0.0622043
0.172444
0.601827
0.924025
0.780456
0.71871
0.697604
0.675367
0.645498
0.614267
0.588044
0.567268
0.551276
0.533119
0.516209
0.504185
0.490845
0.48053
0.4667
0.451626
0.435722
0.424906
0.426522
0.43239
0.451888
0.0655447
0.15778
0.507878
0.949712
0.795501
0.728482
0.704004
0.678384
0.646573
0.614293
0.587779
0.565523
0.551254
0.532887
0.515535
0.502234
0.487882
0.476369
0.462637
0.446747
0.430516
0.418026
0.41576
0.419101
0.433155
0.0697579
0.146057
0.419573
0.959302
0.808871
0.738005
0.710286
0.680956
0.647346
0.61428
0.587396
0.564877
0.551422
0.532875
0.514968
0.499754
0.485119
0.47203
0.458153
0.441358
0.42436
0.409518
0.401242
0.397043
0.398824
0.0489932
0.225019
0.869057
0.836176
0.73249
0.689639
0.673296
0.657627
0.638709
0.614068
0.587797
0.571469
0.550969
0.532851
0.51973
0.509498
0.502808
0.495545
0.483459
0.467069
0.450791
0.441234
0.44393
0.453695
0.472548
0.0493058
0.223741
0.864794
0.835723
0.734004
0.690678
0.674356
0.659062
0.639683
0.614602
0.588202
0.571826
0.55145
0.533267
0.519872
0.509574
0.502701
0.495452
0.483394
0.466981
0.450766
0.441444
0.444335
0.454236
0.473431
0.0504491
0.221111
0.854645
0.834486
0.737159
0.6923
0.675844
0.660972
0.640538
0.614592
0.588057
0.571447
0.551409
0.533191
0.519314
0.509058
0.50167
0.494417
0.482278
0.465808
0.449677
0.44063
0.443717
0.4536
0.47311
0.0521425
0.216257
0.834966
0.834275
0.743619
0.69493
0.678417
0.663357
0.641464
0.614527
0.588104
0.571089
0.551588
0.533371
0.518675
0.50847
0.500266
0.492861
0.480474
0.46406
0.448038
0.43926
0.442624
0.452428
0.472386
0.0540634
0.208687
0.799007
0.848132
0.748243
0.698528
0.682038
0.665961
0.642364
0.614322
0.588113
0.570582
0.55174
0.533602
0.517893
0.507763
0.498374
0.49065
0.477897
0.461869
0.445927
0.437258
0.44082
0.450423
0.470927
0.0564684
0.198671
0.748568
0.868905
0.755668
0.703625
0.686494
0.668941
0.643347
0.614214
0.588149
0.569898
0.551605
0.533678
0.517177
0.506904
0.49614
0.487796
0.474641
0.45914
0.443217
0.434393
0.437908
0.446952
0.468007
0.0592285
0.186409
0.682859
0.894325
0.76688
0.710379
0.69173
0.672222
0.644455
0.614221
0.588134
0.568923
0.551258
0.533482
0.516665
0.505751
0.493615
0.484375
0.470815
0.455756
0.439884
0.430394
0.433406
0.441289
0.462299
0.0622049
0.172461
0.601917
0.924018
0.780456
0.71872
0.697616
0.675377
0.645505
0.614273
0.588044
0.567258
0.55128
0.533112
0.516205
0.504169
0.490832
0.480518
0.466699
0.451633
0.435739
0.424932
0.426557
0.43243
0.451939
0.0655453
0.157796
0.50797
0.949713
0.7955
0.728491
0.704015
0.678395
0.646584
0.614302
0.587773
0.565507
0.551253
0.532889
0.515538
0.502223
0.48787
0.476356
0.462641
0.44675
0.430529
0.418047
0.415792
0.419133
0.433195
0.0697568
0.146065
0.419627
0.959325
0.808875
0.738016
0.710298
0.680967
0.647358
0.61429
0.587394
0.564877
0.55142
0.532885
0.514979
0.499735
0.485129
0.472008
0.458151
0.441358
0.424372
0.409535
0.401266
0.39707
0.398856
0.0750173
0.143153
0.383914
0.946685
0.816479
0.74693
0.716014
0.682877
0.647604
0.614117
0.587383
0.565317
0.551731
0.533079
0.514397
0.497047
0.482954
0.46726
0.453055
0.435203
0.417673
0.399561
0.383858
0.361756
0.310987
0.080333
0.141512
0.356441
0.918802
0.823045
0.754138
0.720571
0.683651
0.647268
0.613759
0.587795
0.566556
0.551936
0.53294
0.513407
0.494657
0.480175
0.462586
0.447613
0.429122
0.410495
0.389111
0.366321
0.334896
0.279471
0.0853174
0.13966
0.331275
0.879358
0.828495
0.761251
0.723306
0.682562
0.646049
0.613564
0.58927
0.568937
0.552145
0.533274
0.512299
0.492527
0.477016
0.458292
0.442423
0.423768
0.403634
0.379986
0.35343
0.319327
0.273915
0.0890872
0.135446
0.308279
0.837166
0.831002
0.775513
0.722987
0.678978
0.644402
0.614784
0.592565
0.572206
0.55203
0.534053
0.511494
0.490727
0.473276
0.454905
0.437757
0.419148
0.397621
0.373404
0.345679
0.313001
0.274177
0.0924192
0.131464
0.283632
0.771249
0.84646
0.78604
0.719784
0.676053
0.6438
0.618626
0.59694
0.575551
0.552793
0.534355
0.511269
0.489663
0.470134
0.453069
0.433324
0.414923
0.392953
0.36875
0.342105
0.311267
0.275719
0.0943804
0.123982
0.246982
0.673277
0.886663
0.799871
0.718294
0.674645
0.645602
0.623747
0.601581
0.578583
0.554174
0.534257
0.511093
0.489214
0.468622
0.451051
0.430257
0.411475
0.389953
0.365746
0.340557
0.311526
0.279489
0.095229
0.115559
0.199677
0.476473
0.896938
0.809057
0.718461
0.674121
0.650731
0.629653
0.605991
0.58109
0.555651
0.533761
0.511213
0.489314
0.468583
0.449329
0.429291
0.409038
0.388233
0.364572
0.340421
0.312825
0.284628
0.0966775
0.112054
0.177163
0.380082
0.873
0.8065
0.724756
0.679493
0.658257
0.635263
0.609613
0.582995
0.557126
0.532844
0.512074
0.489947
0.46898
0.448996
0.42942
0.407607
0.387299
0.364715
0.34071
0.315924
0.290064
0.0987669
0.110153
0.162542
0.329483
0.809807
0.798073
0.748444
0.696268
0.666604
0.640106
0.612229
0.584306
0.558255
0.533508
0.514313
0.49174
0.470207
0.449546
0.430016
0.408003
0.387417
0.365438
0.342166
0.319603
0.295744
0.101133
0.108987
0.150337
0.28994
0.718187
0.803737
0.764612
0.707944
0.67349
0.644031
0.614102
0.585542
0.559773
0.535598
0.516915
0.4955
0.473336
0.451374
0.430947
0.409722
0.388085
0.367138
0.345583
0.323507
0.301544
0.102504
0.106599
0.136607
0.246499
0.610008
0.833674
0.787318
0.719123
0.679152
0.646664
0.615572
0.587564
0.562708
0.539744
0.518294
0.50078
0.477763
0.454951
0.432961
0.412899
0.390355
0.370133
0.349659
0.328278
0.306993
0.10114
0.102056
0.12085
0.19391
0.42551
0.839919
0.796798
0.728618
0.683883
0.648426
0.617035
0.590407
0.566809
0.544393
0.521893
0.505258
0.482648
0.459643
0.437427
0.416078
0.395233
0.373123
0.353401
0.333198
0.312953
0.0982866
0.0943004
0.107051
0.159334
0.331456
0.796995
0.78972
0.746966
0.69124
0.650238
0.619521
0.594488
0.571729
0.549596
0.527371
0.509063
0.487479
0.465035
0.442631
0.420574
0.400046
0.37843
0.357499
0.338268
0.318959
0.0959013
0.086946
0.0959514
0.133175
0.263407
0.679669
0.788732
0.760636
0.698182
0.653697
0.624166
0.600111
0.577498
0.555439
0.533026
0.511415
0.493886
0.471135
0.448621
0.426483
0.404791
0.384332
0.362823
0.343634
0.325184
0.0943711
0.0807969
0.086721
0.111001
0.196593
0.481798
0.789657
0.763329
0.707393
0.659479
0.631401
0.607011
0.583784
0.561235
0.538647
0.516304
0.498988
0.477134
0.455045
0.43261
0.410651
0.389921
0.370001
0.349221
0.331257
0.0932961
0.0761062
0.0801423
0.096349
0.152392
0.330253
0.760218
0.759411
0.727299
0.673148
0.640397
0.614379
0.590095
0.566878
0.544466
0.522281
0.50193
0.484521
0.462062
0.439714
0.417764
0.396279
0.376413
0.356879
0.337436
0.0924207
0.0723877
0.0751578
0.0861716
0.123788
0.253099
0.655858
0.757272
0.738647
0.692741
0.652293
0.622206
0.596406
0.572638
0.550285
0.528145
0.506719
0.490748
0.469024
0.447096
0.425104
0.40378
0.383216
0.364049
0.345549
0.0917601
0.0694738
0.0712788
0.0782779
0.101075
0.178024
0.428171
0.750926
0.741604
0.708914
0.663503
0.629634
0.602502
0.57852
0.55623
0.53466
0.513313
0.493595
0.477276
0.454949
0.433122
0.412014
0.391241
0.371681
0.353386
0.0912508
0.0673274
0.0685442
0.0732223
0.0881429
0.137037
0.296034
0.697546
0.73966
0.721021
0.679915
0.640082
0.610108
0.585364
0.562723
0.541166
0.519859
0.498903
0.483717
0.462622
0.441261
0.420283
0.400006
0.380282
0.361868
0.0908844
0.0656774
0.0664588
0.0694673
0.0788524
0.108614
0.211448
0.545042
0.732275
0.722927
0.694927
0.65174
0.618454
0.59262
0.569611
0.547812
0.526837
0.505926
0.486977
0.471264
0.450208
0.429359
0.409192
0.389723
0.371011
0.0906246
0.0645196
0.0650201
0.06697
0.0728501
0.0905531
0.148203
0.326287
0.699588
0.721416
0.705454
0.668674
0.629997
0.601138
0.576908
0.554627
0.533612
0.513153
0.492775
0.478102
0.458686
0.438717
0.418784
0.399525
0.38105
0.0904451
0.063686
0.0639924
0.0652289
0.0689079
0.0796836
0.113554
0.229239
0.581174
0.715356
0.707471
0.682722
0.643564
0.611054
0.585055
0.56212
0.540558
0.520592
0.500337
0.48242
0.467816
0.44835
0.428863
0.409674
0.391417
0.0903241
0.0631332
0.0633136
0.0640848
0.0663672
0.0727723
0.0915917
0.152375
0.334938
0.687612
0.705578
0.69182
0.660375
0.622707
0.593457
0.569481
0.547815
0.527951
0.50837
0.489848
0.473457
0.458059
0.439004
0.42049
0.402417
0.0902887
0.0627888
0.0628841
0.0633464
0.0647436
0.0685884
0.0796094
0.114102
0.230479
0.573576
0.697185
0.691358
0.672997
0.639983
0.605337
0.578903
0.556088
0.535697
0.51673
0.498001
0.480215
0.46676
0.449133
0.431479
0.413752
0.0903819
0.0626342
0.0626806
0.0629666
0.0638008
0.0660825
0.0723299
0.0906885
0.149901
0.325532
0.661305
0.687933
0.678353
0.656048
0.617449
0.588242
0.565026
0.543939
0.525083
0.506724
0.488885
0.472759
0.459966
0.442642
0.425654
0.0904629
0.062755
0.0625093
0.0626423
0.0631083
0.0644285
0.0680098
0.0782131
0.109971
0.216636
0.532682
0.675333
0.676697
0.665475
0.63701
0.601927
0.575081
0.552933
0.533569
0.515554
0.498146
0.481663
0.466941
0.454127
0.437342
0.0904911
0.0628857
0.06234
0.0624153
0.0626852
0.0634478
0.0655088
0.0711269
0.0876039
0.140885
0.29855
0.623952
0.672879
0.667409
0.6508
0.616917
0.587954
0.563746
0.543076
0.525016
0.507883
0.491404
0.475684
0.464465
0.449134
0.090504
0.0629662
0.0622325
0.0622737
0.0624243
0.0628494
0.0639915
0.0670226
0.0755458
0.101636
0.188989
0.454303
0.651887
0.665158
0.656624
0.63449
0.60164
0.575812
0.553383
0.535022
0.518108
0.501892
0.486275
0.472416
0.461798
0.0905068
0.0630083
0.0621679
0.0621892
0.06227
0.0625023
0.0631252
0.0647845
0.0692687
0.0824158
0.12491
0.259368
0.567454
0.65592
0.654774
0.64494
0.621375
0.590294
0.565621
0.545266
0.528456
0.512483
0.497563
0.483313
0.470749
0.0905039
0.0630281
0.0621302
0.0621404
0.0621822
0.0623049
0.0626375
0.0635176
0.0658523
0.0722964
0.0915106
0.154314
0.341899
0.613868
0.649375
0.645106
0.63309
0.608685
0.581122
0.557204
0.539697
0.523668
0.508887
0.494915
0.481606
0.0905001
0.0630364
0.0621084
0.0621126
0.0621329