/*--------------------------------*- C++ -*----------------------------------*\
| =========                 |                                                 |
| \\      /  F ield         | OpenFOAM: The Open Source CFD Toolbox           |
|  \\    /   O peration     | Version:  4.1                                   |
|   \\  /    A nd           | Web:      www.OpenFOAM.org                      |
|    \\/     M anipulation  |                                                 |
\*---------------------------------------------------------------------------*/
FoamFile
{
    version     2.0;
    format      ascii;
    class       surfaceScalarField;
    location    "0.82";
    object      phi;
}
// * * * * * * * * * * * * * * * * * * * * * * * * * * * * * * * * * * * * * //

dimensions      [1 0 -1 0 0 0 0];

internalField   nonuniform List<scalar> 
150500
(
0.0015914
-2.08575e-06
4.05575e-11
0.00163492
8.38064e-06
-1.1226e-11
0.0014852
0.000165356
3.54288e-12
0.00140795
0.000113852
1.21012e-10
0.00123431
7.57387e-05
1.6373e-10
0.00119584
7.30339e-05
1.9286e-10
0.00122695
7.64729e-05
1.74392e-10
0.00126506
8.16331e-05
1.65935e-10
0.00127101
8.31418e-05
1.45528e-10
0.00124932
7.98991e-05
1.66085e-10
0.00125107
7.65103e-05
1.74864e-10
0.00132996
7.76896e-05
1.04865e-10
0.00134874
7.88344e-05
6.01982e-11
0.00129262
7.72723e-05
3.38999e-11
0.00120776
7.58452e-05
1.93335e-11
0.0010734
7.46219e-05
-3.10819e-11
0.000956974
7.43056e-05
-2.71899e-11
0.000864509
7.70216e-05
-1.05402e-11
0.00079914
8.13351e-05
7.01531e-12
0.000731861
8.59747e-05
5.43113e-11
0.000652708
9.07803e-05
7.72753e-11
0.000550915
9.61876e-05
1.11121e-10
0.000419637
0.000102702
1.39397e-10
0.00024872
0.000109327
1.93768e-10
0.000118647
3.70298e-10
0.0015938
-5.91218e-06
-2.95625e-12
0.00163561
1.64199e-05
-2.94499e-11
0.00147381
0.000336971
1.42744e-11
0.00140225
0.000223089
9.84276e-11
0.00123661
0.000150808
1.4435e-10
0.00119863
0.000148542
1.89208e-10
0.00122874
0.000155515
1.65244e-10
0.00126528
0.000164457
1.40618e-10
0.00126914
0.00016633
1.44301e-10
0.00124697
0.000159672
1.57386e-10
0.00124846
0.000153103
9.51509e-11
0.00132906
0.000154129
1.70218e-10
0.00135112
0.000155034
6.43067e-11
0.00129792
0.000152107
1.4947e-11
0.00121492
0.000150196
2.61155e-11
0.00108141
0.000148285
-7.96967e-11
0.000964216
0.000148536
-1.74776e-11
0.000871621
0.000154146
-1.93221e-11
0.00080609
0.000163094
1.31397e-12
0.000738468
0.000172597
4.644e-11
0.000658318
0.00018225
7.08035e-11
0.000554866
0.000192966
1.12195e-10
0.000421656
0.000206397
1.44683e-10
0.000248747
0.000219685
1.99507e-10
0.000237367
3.63466e-10
0.00159734
-9.02179e-06
6.58962e-12
0.00163243
2.60871e-05
-3.13707e-11
0.00145251
0.000513443
-2.01686e-11
0.00140396
0.000313149
9.08682e-11
0.00124994
0.00023252
1.66376e-10
0.00121056
0.000228049
1.86701e-10
0.00123971
0.000236238
1.68034e-10
0.00127495
0.000248053
1.46285e-10
0.00127532
0.000249392
1.38898e-10
0.00125142
0.000239268
1.53414e-10
0.00124999
0.000229386
6.75488e-11
0.00133124
0.000229446
1.79656e-10
0.00135765
0.000230112
7.08549e-11
0.00130753
0.000226351
2.14745e-11
0.00122637
0.000223998
2.27653e-11
0.00109375
0.000221714
-5.44296e-11
0.000974706
0.000222165
-1.6216e-11
0.00088225
0.000230798
-2.63995e-11
0.000817179
0.000244524
-8.31594e-12
0.000749576
0.000259434
3.80919e-11
0.000668114
0.000274049
6.159e-11
0.000562793
0.000290479
1.09501e-10
0.000427093
0.000311105
1.50271e-10
0.00025171
0.000331529
2.10551e-10
0.000359659
3.61858e-10
0.00160428
-1.08356e-05
2.71502e-11
0.00163113
3.55368e-05
-3.40644e-11
0.00141073
0.000676616
-1.22663e-10
0.00143584
0.000396001
2.0077e-10
0.00127092
0.000320464
1.51166e-10
0.00123236
0.000310556
1.46844e-10
0.00125949
0.000320214
1.54083e-10
0.00128914
0.000332736
1.32482e-10
0.00128457
0.000332286
1.10265e-10
0.0012575
0.000318392
1.26188e-10
0.00125055
0.000303892
1.05086e-10
0.00133211
0.000302798
9.68911e-11
0.00136578
0.000304463
3.93425e-11
0.00132093
0.000299918
1.65301e-11
0.00124201
0.000297067
-3.19578e-11
0.00111164
0.000293871
6.8987e-12
0.000990495
0.000295161
-5.3181e-11
0.00089863
0.000306588
-3.6129e-11
0.00083394
0.00032569
-1.92709e-11
0.000766398
0.000345834
4.95582e-11
0.000683447
0.000365432
6.32658e-11
0.000575477
0.000388017
1.12933e-10
0.000436464
0.000416695
1.5991e-10
0.000256245
0.000447117
2.28375e-10
0.000488483
3.57584e-10
0.00161645
-1.33839e-05
1.97095e-11
0.00164114
4.30262e-05
-3.35568e-11
0.00142079
0.000803407
-1.46551e-10
0.00144211
0.000518994
2.72212e-10
0.00129452
0.000404816
1.32081e-10
0.00126199
0.000396159
1.26446e-10
0.00128539
0.000407208
1.20816e-10
0.00130668
0.000419651
1.10022e-10
0.00129631
0.000415855
7.76341e-11
0.00126522
0.000397557
7.48445e-11
0.0012515
0.000378017
1.57416e-10
0.00133197
0.00037509
3.58529e-11
0.00137539
0.000378535
2.93346e-11
0.00133842
0.000373774
1.78005e-11
0.00126148
0.000369866
-3.33405e-11
0.00113527
0.000365892
4.28904e-11
0.00101091
0.000367443
-3.69242e-11
0.000919502
0.000381271
-4.3514e-11
0.000855031
0.000405558
-2.49834e-11
0.000788248
0.000430866
5.0955e-11
0.000703983
0.000456188
6.70866e-11
0.000593136
0.000485627
1.17617e-10
0.000450009
0.000524702
1.6691e-10
0.000263606
0.000568409
2.37565e-10
0.000628504
3.48262e-10
0.00163261
-1.52742e-05
2.09116e-11
0.0016586
4.78417e-05
-2.28336e-11
0.00145772
0.000880548
-1.25755e-10
0.00146235
0.000648125
2.28941e-10
0.00132992
0.000499967
1.15633e-10
0.00129918
0.000487776
1.22587e-10
0.0013152
0.000498111
1.19013e-10
0.00132713
0.000509954
9.71894e-11
0.00131013
0.000501002
3.40595e-11
0.00127382
0.000476976
4.30967e-11
0.00125293
0.000451957
1.35362e-10
0.00133043
0.000446066
-1.93104e-11
0.00138499
0.000452527
-9.2515e-13
0.00135876
0.000448546
4.20765e-11
0.00128377
0.000442484
-4.31042e-12
0.00116397
0.000437847
7.05066e-11
0.00103624
0.000439322
-3.73629e-11
0.000945136
0.000454598
-4.91098e-11
0.000879939
0.000483479
-2.21389e-11
0.000815437
0.000514048
5.05368e-11
0.000730845
0.000545433
7.67386e-11
0.000617807
0.000583142
1.26468e-10
0.000468912
0.000636441
1.70956e-10
0.000274576
0.000698136
2.33411e-10
0.000785619
3.22495e-10
0.00165404
-1.65891e-05
1.48012e-11
0.00168729
4.84847e-05
-1.37491e-11
0.00153316
0.00088281
-8.9815e-11
0.00150244
0.00079627
2.04374e-10
0.00137885
0.000612937
9.4553e-11
0.00134292
0.000588735
1.18185e-10
0.00134859
0.000595278
1.11557e-10
0.0013488
0.000602801
6.47537e-11
0.00132436
0.000586475
7.69132e-12
0.0012825
0.000555978
2.39886e-11
0.00125589
0.000525679
1.09997e-10
0.00132842
0.000517263
-1.26422e-10
0.00139395
0.000525531
5.45958e-11
0.0013808
0.000524328
2.04829e-11
0.00130915
0.000515564
4.57122e-11
0.00119821
0.000510839
3.19692e-11
0.00106742
0.000511257
-3.10917e-11
0.000975918
0.000526158
-6.58888e-11
0.000908771
0.000558623
-4.33145e-11
0.000848096
0.00059389
3.23858e-11
0.000765389
0.000632143
8.47332e-11
0.000651689
0.000680454
1.32885e-10
0.00049589
0.000751835
1.70196e-10
0.000293076
0.000838472
2.20686e-10
0.000971157
2.73791e-10
0.00168172
-1.86647e-05
1.52576e-11
0.00172967
4.19807e-05
-3.18774e-13
0.0016598
0.000775494
-4.39426e-11
0.00157413
0.000965312
1.66752e-10
0.00144151
0.000748842
7.35437e-11
0.0013912
0.000704317
1.05826e-10
0.00138297
0.000700012
9.72946e-11
0.00137057
0.000698306
4.30736e-11
0.00133814
0.000672208
-1.73608e-12
0.00129159
0.00063444
1.81886e-11
0.00126074
0.000599626
6.58071e-11
0.00132449
0.000588052
-2.56243e-10
0.0014021
0.000596839
1.40907e-10
0.00140287
0.000600327
2.06132e-11
0.0013374
0.000590543
3.60333e-11
0.00123663
0.000584834
2.68026e-11
0.0011044
0.000583366
-1.55802e-11
0.00101189
0.000595551
-6.9193e-11
0.000942819
0.00062857
2.03911e-11
0.000887106
0.000669791
-1.05269e-11
0.000807404
0.000716523
7.58815e-11
0.000699192
0.000774066
1.23648e-10
0.000535456
0.000869041
1.68959e-10
0.000325519
0.000990565
1.97146e-10
0.00120092
2.36144e-10
0.00171493
-2.18594e-05
1.47224e-11
0.00178999
2.36048e-05
1.59302e-11
0.00184032
0.000535715
3.8014e-11
0.00166466
0.00115592
1.27996e-10
0.00150993
0.000913213
5.68006e-11
0.00144053
0.000844665
9.79362e-11
0.00141516
0.000814545
9.38791e-11
0.00139089
0.000795021
4.63649e-11
0.00135072
0.000756849
1.49407e-11
0.00130111
0.000711167
2.58671e-11
0.00126913
0.000672393
1.01422e-11
0.00131892
0.000656363
-1.67823e-10
0.00140882
0.000667275
1.00949e-10
0.00142454
0.000675497
7.04266e-11
0.00136764
0.000666192
6.20823e-11
0.00127866
0.00065921
3.43564e-11
0.00114742
0.000655352
-6.16948e-12
0.00105241
0.000662177
-5.81963e-11
0.000982665
0.000694112
3.53522e-11
0.000931545
0.000739578
-7.52848e-12
0.000857755
0.000794919
5.77675e-11
0.000757619
0.000861625
1.06564e-10
0.000602374
0.000976706
1.59453e-10
0.000389184
0.00115289
1.63821e-10
0.00150657
1.99893e-10
0.00174904
9.20268e-12
-2.33094e-05
0.00186299
2.38986e-11
5.05391e-06
0.00201922
1.07405e-10
0.000317931
0.00173058
1.28889e-10
0.00137961
0.00155946
4.91347e-11
0.00109174
0.00148157
9.37586e-11
0.000992319
0.00144264
9.36449e-11
0.00093071
0.0014077
5.44343e-11
0.000889998
0.00136134
3.07093e-11
0.000838348
0.00131131
2.78194e-11
0.000785291
0.00128126
2.02878e-11
0.000743297
0.00131551
-3.86317e-11
0.00072114
0.00141446
6.60319e-11
0.000735423
0.00144574
9.30859e-11
0.000750017
0.00139936
7.19622e-11
0.000742683
0.00132154
1.19364e-11
0.000734044
0.00119516
5.03003e-11
0.000725187
0.00109684
-6.64343e-11
0.000726966
0.00102879
1.62904e-11
0.000755789
0.000980794
-2.37185e-12
0.000802878
0.000918245
6.37402e-11
0.000862723
0.000830636
9.10741e-11
0.000939133
0.000703899
1.25707e-10
0.00106968
0.000516767
1.45433e-10
0.00128631
1.62165e-10
0.00195351
0.0015914
-2.11347e-06
-2.17078e-11
0.001635
8.35638e-06
5.60443e-11
0.00148531
0.000165442
1.88067e-10
0.00140798
0.000113922
-8.02575e-12
0.00123421
7.57189e-05
-9.93825e-11
0.00119567
7.30496e-05
-7.91463e-11
0.00122673
7.65345e-05
-5.00613e-11
0.00126476
8.17055e-05
-5.38178e-11
0.00127065
8.32191e-05
-6.36262e-11
0.00124899
7.99292e-05
-1.3809e-10
0.0012508
7.6543e-05
-1.02504e-10
0.00132976
7.75763e-05
-1.0683e-10
0.00134863
7.86001e-05
-1.87007e-12
0.00129262
7.70952e-05
-1.29146e-11
0.0012078
7.57714e-05
-1.11573e-10
0.00107345
7.46015e-05
-7.1707e-12
0.000956976
7.43298e-05
-2.68748e-11
0.000864474
7.70531e-05
1.6101e-11
0.000799097
8.13722e-05
6.83439e-11
0.000731839
8.60121e-05
6.50134e-11
0.000652726
9.08185e-05
3.58036e-11
0.000551047
9.62167e-05
7.49339e-12
0.0004198
0.000102708
-2.79292e-11
0.000248816
0.00010931
-7.99567e-11
0.000118606
-1.95091e-10
0.00159378
-5.90464e-06
1.47935e-11
0.00163561
1.64269e-05
7.34713e-11
0.00147404
0.000336958
1.83232e-10
0.00140259
0.000223148
1.15503e-11
0.00123686
0.000150791
-8.38526e-11
0.00119889
0.000148505
-7.94475e-11
0.00122908
0.000155467
-4.68319e-11
0.00126576
0.00016442
-3.55496e-11
0.0012698
0.00016626
-5.97937e-11
0.00124769
0.000159554
-1.18063e-10
0.00124884
0.00015292
-3.80069e-11
0.00132947
0.000153861
-1.51227e-10
0.00135179
0.000154889
-1.39075e-11
0.00129859
0.000152147
-2.25714e-12
0.00121547
0.000150326
-1.06086e-10
0.00108179
0.000148469
3.28667e-11
0.000964375
0.000148671
-3.72541e-11
0.00087166
0.000154255
1.59101e-11
0.000806084
0.000163181
6.45509e-11
0.000738462
0.000172688
7.19908e-11
0.000658335
0.000182336
4.93943e-11
0.000554984
0.000193023
6.47278e-12
0.000421793
0.000206412
-3.2408e-11
0.000248827
0.000219653
-8.60657e-11
0.000237289
-1.95557e-10
0.00159733
-9.00021e-06
1.34988e-12
0.00163246
2.61083e-05
7.65258e-11
0.00145268
0.000513459
2.32823e-10
0.00140416
0.00031321
1.86349e-11
0.00125011
0.000232426
-1.1098e-10
0.00121079
0.000227946
-8.40292e-11
0.00124
0.000236123
-5.4457e-11
0.00127532
0.000247931
-3.96369e-11
0.0012758
0.000249237
-4.18994e-11
0.00125186
0.000239026
-8.752e-11
0.00124997
0.000229015
-2.5048e-11
0.0013312
0.000229122
-1.2644e-10
0.00135784
0.000230062
-3.91408e-11
0.00130775
0.000226533
-3.47801e-11
0.00122654
0.00022422
-9.24274e-11
0.00109387
0.000221996
-9.66386e-12
0.000974727
0.000222354
-3.2995e-11
0.000882216
0.000230964
8.51272e-12
0.000817133
0.000244661
5.64878e-11
0.000749542
0.000259572
7.49425e-11
0.000668111
0.000274162
6.36304e-11
0.000562887
0.000290545
7.94928e-12
0.000427193
0.000311116
-3.65196e-11
0.000251779
0.000331472
-9.38835e-11
0.000359556
-1.98184e-10
0.00160428
-1.08383e-05
-1.18604e-11
0.00163116
3.55531e-05
8.69338e-11
0.00141089
0.00067676
3.72888e-10
0.00143583
0.000395928
-9.45972e-11
0.00127099
0.000320367
-8.44995e-11
0.00123244
0.000310418
-5.41781e-11
0.00125961
0.000320057
-4.67447e-11
0.00128928
0.00033258
-2.6051e-11
0.00128473
0.000332102
-1.08496e-11
0.00125761
0.000318188
-4.16707e-11
0.00125035
0.000303618
-9.07121e-11
0.00133187
0.000302584
-3.99425e-11
0.00136556
0.000304547
-4.36089e-11
0.00132065
0.000300174
-5.70423e-11
0.00124169
0.000297351
-3.39273e-11
0.00111129
0.000294158
-7.70636e-11
0.00099028
0.000295373
-3.0625e-11
0.000898462
0.000306777
-1.19123e-12
0.000833821
0.00032586
4.28186e-11
0.000766305
0.000345983
4.89602e-11
0.000683406
0.000365537
5.74836e-11
0.000575538
0.000388065
6.60834e-12
0.000436513
0.000416689
-4.1751e-11
0.000256299
0.000447035
-1.04953e-10
0.000488355
-2.01331e-10
0.00161644
-1.33832e-05
-7.04046e-12
0.00164114
4.30434e-05
9.17733e-11
0.00142088
0.00080361
4.34565e-10
0.00144217
0.000518951
-1.89346e-10
0.00129453
0.000404713
-7.06719e-11
0.00126196
0.000396011
-4.07351e-11
0.00128536
0.00040705
-2.25819e-11
0.00130664
0.000419491
-1.20001e-11
0.00129624
0.000415702
1.64752e-11
0.00126516
0.000397386
3.44655e-13
0.00125144
0.000377857
-1.23655e-10
0.00133199
0.000375141
3.5812e-11
0.00137516
0.000378753
-1.13235e-11
0.00133796
0.000374105
-6.86807e-11
0.00126098
0.000370188
-1.99984e-11
0.00113466
0.000366187
-1.46497e-10
0.00101045
0.000367611
-2.3982e-11
0.000919166
0.000381396
6.64873e-12
0.000854813
0.000405672
4.45034e-11
0.000788088
0.000430967
2.26296e-11
0.0007039
0.00045626
3.49089e-11
0.000593156
0.000485647
1.15444e-12
0.000450015
0.00052466
-4.59227e-11
0.000263645
0.000568298
-1.11025e-10
0.000628368
-2.02428e-10
0.0016326
-1.52791e-05
-7.26014e-12
0.0016586
4.78568e-05
8.91799e-11
0.00145781
0.000880777
4.57264e-10
0.00146242
0.000648119
-1.62095e-10
0.00132993
0.000499869
-7.17955e-11
0.00129914
0.000487635
-3.95758e-11
0.00131512
0.000497974
-2.11751e-11
0.00132701
0.000509847
-1.32656e-12
0.00130993
0.000500935
6.0291e-11
0.0012736
0.000476944
3.55584e-11
0.00125274
0.000451977
-1.10944e-10
0.00133034
0.000446223
9.02971e-11
0.00138462
0.000452828
1.91293e-11
0.00135808
0.000448857
-8.40322e-11
0.00128311
0.000442729
-3.4611e-11
0.00116324
0.000438045
-1.83495e-10
0.00103573
0.000439373
-2.45251e-11
0.000944761
0.000454632
1.60442e-11
0.000879689
0.000483476
4.97906e-11
0.000815239
0.000514084
1.63496e-11
0.000730717
0.000545453
2.07356e-11
0.000617788
0.000583118
-9.71635e-12
0.000468881
0.000636368
-5.23361e-11
0.000274595
0.000697998
-1.11164e-10
0.000785472
-1.98158e-10
0.00165404
-1.65886e-05
-3.81248e-12
0.00168728
4.85022e-05
8.59308e-11
0.00153326
0.000883044
4.69549e-10
0.00150252
0.000796282
-1.5592e-10
0.00137887
0.000612864
-6.89864e-11
0.00134289
0.00058862
-3.953e-11
0.00134851
0.000595185
-1.49832e-11
0.00134867
0.000602775
2.46721e-11
0.00132416
0.00058652
8.03109e-11
0.00128227
0.000556096
4.49537e-11
0.00125573
0.000525859
-9.42853e-11
0.00132846
0.000517548
2.29324e-10
0.00139358
0.000526025
-7.08521e-11
0.00137994
0.000524581
-6.268e-11
0.00130824
0.000515647
-1.00716e-10
0.00119715
0.00051074
-1.41589e-10
0.00106676
0.00051108
-2.31921e-11
0.000975507
0.000526063
3.58658e-11
0.000908577
0.000558557
6.83464e-11
0.000847913
0.000593846
2.52183e-11
0.000765248
0.000632105
1.11233e-11
0.000651641
0.000680388
-1.82198e-11
0.000495835
0.000751731
-5.47582e-11
0.000293069
0.000838312
-1.07137e-10
0.000970978
-1.86919e-10
0.00168172
-1.86661e-05
-4.22251e-12
0.00172966
4.19956e-05
7.6938e-11
0.00165992
0.000775694
4.66178e-10
0.00157423
0.000965345
-1.23256e-10
0.00144154
0.000748798
-6.17975e-11
0.00139118
0.000704236
-3.26445e-11
0.00138291
0.000699959
-5.12601e-12
0.00137046
0.000698337
4.24781e-11
0.00133798
0.000672335
7.9494e-11
0.00129138
0.000634639
4.57015e-11
0.00126058
0.00059987
-4.58999e-11
0.00132486
0.000588539
3.05117e-10
0.00140187
0.000597365
-1.30459e-10
0.00140205
0.000600553
-6.94416e-11
0.00133643
0.000590454
-8.72184e-11
0.00123544
0.000584541
-1.1758e-10
0.00110361
0.000583004
-2.28866e-11
0.00101143
0.000595347
4.16174e-11
0.000942614
0.000628464
1.70035e-11
0.000886964
0.000669711
7.02822e-11
0.000807267
0.000716439
1.25879e-11
0.000699128
0.00077396
-1.60865e-11
0.000535385
0.000868908
-6.23882e-11
0.0003255
0.000990397
-9.54332e-11
0.00120072
-1.64191e-10
0.00171494
-2.18654e-05
-4.84264e-12
0.00178999
2.36083e-05
6.05803e-11
0.00184049
0.000535791
4.092e-10
0.00166478
0.00115597
-4.93924e-11
0.00150997
0.000913209
-4.46686e-11
0.00144053
0.000844616
-2.71629e-11
0.00141512
0.000814517
-8.08773e-12
0.00139081
0.000795079
3.06693e-11
0.0013506
0.000757023
5.62881e-11
0.00130096
0.000711402
3.71912e-11
0.00126891
0.000672666
8.05973e-12
0.00131936
0.000656931
1.8396e-10
0.00140875
0.000667843
-8.3466e-11
0.00142389
0.000675671
-8.33761e-11
0.00136682
0.000666025
-8.8054e-11
0.00127763
0.000658844
-9.06932e-11
0.00114668
0.000654957
-1.73277e-11
0.00105201
0.000661942
3.94756e-11
0.000982422
0.000693949
3.22934e-12
0.000931417
0.000739492
6.59341e-11
0.000857625
0.000794815
1.66894e-11
0.000757525
0.00086149
-1.00652e-11
0.000602332
0.000976553
-6.60694e-11
0.000389157
0.00115272
-7.46739e-11
0.00150634
-1.3842e-10
0.00174905
-7.87327e-12
-2.33152e-05
0.00186299
1.50317e-11
5.05031e-06
0.00201939
1.6423e-10
0.000317932
0.00173069
2.81734e-11
0.00137966
0.00155951
-1.03439e-12
0.00109176
0.00148157
-1.66467e-11
0.000992297
0.00144261
-1.036e-11
0.000930692
0.00140765
1.26759e-11
0.000890074
0.00136127
3.6996e-11
0.000838549
0.00131121
3.14886e-11
0.000785555
0.00128107
5.22764e-12
0.000743605
0.00131589
8.95091e-11
0.000721684
0.00141451
-4.92644e-11
0.000735888
0.00144531
-8.02957e-11
0.00075009
0.00139876
-7.54401e-11
0.000742515
0.00132085
-5.025e-11
0.000733761
0.0011946
-5.2758e-11
0.00072486
0.00109654
4.72302e-11
0.000726773
0.00102859
1.55578e-11
0.000755642
0.000980687
5.64932e-11
0.000802777
0.000918128
6.8879e-12
0.000862617
0.000830541
-7.37082e-12
0.00093899
0.000703846
-3.91841e-11
0.00106953
0.000516745
-7.27907e-11
0.00128613
-1.05214e-10
0.00195327
0.00159141
-2.09302e-06
7.96509e-12
0.00163496
8.37502e-06
2.12992e-11
0.00148526
0.000165388
7.56321e-11
0.001408
0.000113879
6.62912e-11
0.00123433
7.57443e-05
2.56395e-12
0.00119581
7.30567e-05
7.51738e-12
0.00122688
7.65164e-05
1.08746e-11
0.00126492
8.16914e-05
1.42993e-11
0.00127076
8.32245e-05
6.24179e-12
0.00124902
7.99866e-05
-2.77105e-12
0.00125098
7.6628e-05
-1.15685e-11
0.00132975
7.77435e-05
-2.5599e-11
0.00134829
7.87715e-05
-5.997e-11
0.0012921
7.7163e-05
-8.25673e-11
0.00120722
7.57503e-05
-1.10256e-10
0.00107295
7.45477e-05
-1.09852e-10
0.000956689
7.42677e-05
-9.94088e-11
0.000864317
7.70004e-05
-4.67678e-11
0.000799061
8.13266e-05
1.20309e-11
0.000731856
8.59661e-05
7.04381e-11
0.000652743
9.0773e-05
9.71547e-11
0.000551007
9.61788e-05
1.15849e-10
0.000419752
0.000102686
1.21645e-10
0.000248786
0.000109302
1.19824e-10
0.000118611
1.24502e-10
0.00159381
-5.9124e-06
4.96454e-12
0.00163563
1.64222e-05
2.2457e-11
0.0014739
0.000336997
7.78772e-11
0.00140237
0.00022312
6.12671e-11
0.00123671
0.000150817
1.66517e-13
0.0011987
0.000148562
7.5178e-12
0.00122882
0.00015555
1.06044e-11
0.00126535
0.000164515
1.21307e-11
0.0012692
0.000166419
5.72243e-12
0.00124702
0.000159778
-1.99606e-12
0.00124858
0.000153245
-1.5102e-11
0.00132908
0.000154194
-2.91153e-11
0.00135098
0.000154972
-6.29245e-11
0.0012977
0.000151987
-8.42627e-11
0.00121465
0.000150094
-1.09358e-10
0.00108116
0.000148206
-1.06445e-10
0.000964053
0.000148516
-1.00931e-10
0.000871506
0.000154142
-4.81065e-11
0.000806052
0.000163104
1.26117e-11
0.000738479
0.000172599
6.65068e-11
0.000658353
0.000182247
9.24798e-11
0.000554947
0.000192954
1.10538e-10
0.000421755
0.00020637
1.16002e-10
0.000248801
0.000219638
1.14496e-10
0.000237296
1.20723e-10
0.00159735
-9.01487e-06
5.23404e-12
0.00163245
2.60968e-05
2.25488e-11
0.00145258
0.000513488
8.38996e-11
0.00140407
0.000313163
5.89921e-11
0.00125004
0.000232521
-1.33073e-12
0.00121066
0.000228056
8.44828e-12
0.00123982
0.000236261
1.12132e-11
0.00127506
0.000248096
1.17469e-11
0.00127545
0.000249467
5.93825e-12
0.00125154
0.000239352
-2.04577e-12
0.00125009
0.000229481
-2.09054e-11
0.00133126
0.000229481
-2.05521e-11
0.00135763
0.000230056
-5.58693e-11
0.00130746
0.000226276
-7.82977e-11
0.00122626
0.000223923
-1.09686e-10
0.00109362
0.000221689
-9.57995e-11
0.000974591
0.000222146
-1.05212e-10
0.00088216
0.000230802
-4.92697e-11
0.000817155
0.000244532
7.54928e-12
0.000749591
0.000259446
5.88781e-11
0.000668149
0.000274052
8.2595e-11
0.000562869
0.000290463
1.02796e-10
0.00042718
0.000311067
1.08634e-10
0.000251763
0.00033146
1.08326e-10
0.000359568
1.18163e-10
0.00160429
-1.08366e-05
4.37509e-12
0.00163116
3.55446e-05
2.38588e-11
0.00141082
0.000676685
1.03481e-10
0.00143594
0.00039601
2.64669e-11
0.001271
0.000320452
3.11647e-12
0.00123244
0.000310544
9.13986e-12
0.00125958
0.000320215
9.91661e-12
0.00128924
0.00033276
8.97774e-12
0.0012847
0.000332339
1.51271e-12
0.00125761
0.00031848
-1.04051e-11
0.00125054
0.000303975
-2.49829e-11
0.00133203
0.000302791
-3.1018e-11
0.00136573
0.00030446
-5.93957e-11
0.00132084
0.000299879
-8.61603e-11
0.00124188
0.000297035
-9.28897e-11
0.00111148
0.000293829
-1.1879e-10
0.000990428
0.000295183
-7.74239e-11
0.000898594
0.000306638
-4.1215e-11
0.000833949
0.000325742
9.6658e-12
0.000766419
0.000345863
5.81698e-11
0.000683478
0.000365434
7.13432e-11
0.00057554
0.000387992
9.16262e-11
0.000436534
0.000416647
9.74267e-11
0.000256299
0.000447032
9.98025e-11
0.00048838
1.13757e-10
0.00161646
-1.33831e-05
3.29233e-12
0.00164116
4.30342e-05
2.50487e-11
0.0014209
0.000803481
1.17665e-10
0.00144219
0.000519013
7.60675e-12
0.00129459
0.000404795
3.04315e-12
0.00126204
0.00039613
5.71849e-12
0.00128545
0.000407187
6.94479e-12
0.00130676
0.000419649
2.98637e-12
0.00129643
0.000415887
-5.82564e-12
0.00126537
0.000397587
-1.49739e-11
0.00125161
0.000378043
-7.7879e-12
0.00133209
0.000375172
-5.01615e-11
0.00137547
0.000378585
-7.15922e-11
0.00133846
0.000373799
-8.39078e-11
0.00126145
0.000369916
-8.74328e-11
0.00113518
0.000365919
-8.43765e-11
0.00101082
0.000367515
-7.35885e-11
0.000919445
0.000381336
-4.44196e-11
0.000855023
0.00040562
5.40908e-12
0.00078826
0.000430889
5.27016e-11
0.000704007
0.000456184
6.6166e-11
0.000593181
0.000485594
8.11383e-11
0.000450061
0.000524636
8.56716e-11
0.000263656
0.000568308
8.99555e-11
0.00062841
1.07126e-10
0.00163262
-1.52763e-05
1.79283e-12
0.00165863
4.78472e-05
2.67791e-11
0.00145786
0.000880609
1.33477e-10
0.00146245
0.000648156
-3.25138e-12
0.00133
0.000499945
-4.80179e-12
0.00129923
0.000487736
-1.681e-13
0.00131525
0.000498075
-3.13739e-13
0.00132719
0.000509941
-5.77292e-12
0.00131022
0.000501019
-2.44235e-11
0.0012739
0.000477015
-1.73883e-11
0.00125291
0.000451994
7.10559e-12
0.00133031
0.000446048
-6.59248e-11
0.00138496
0.000452523
-7.78282e-11
0.00135882
0.000448636
-4.22013e-11
0.00128381
0.000442596
-8.31208e-11
0.00116401
0.000437993
-2.89544e-11
0.0010362
0.000439419
-7.80322e-11
0.000945085
0.000454656
-4.43973e-11
0.000879905
0.000483508
1.73465e-12
0.000815435
0.000514052
5.06844e-11
0.000730855
0.000545414
6.40871e-11
0.000617837
0.000583095
7.26812e-11
0.000468947
0.000636367
7.49796e-11
0.000274613
0.000698028
7.84087e-11
0.000785529
9.2416e-11
0.00165406
-1.65892e-05
-1.72769e-13
0.00168732
4.84885e-05
2.82197e-11
0.00153333
0.000882834
1.52115e-10
0.00150256
0.00079631
-2.18944e-11
0.00137894
0.000612925
-1.74503e-11
0.00134298
0.000588694
-9.40866e-12
0.00134864
0.000595238
-9.11499e-12
0.00134885
0.000602789
-1.14644e-11
0.00132444
0.000586493
-3.04283e-11
0.00128259
0.00055604
-1.90165e-11
0.0012559
0.000525762
1.24319e-11
0.00132827
0.000517217
-1.15681e-10
0.00139387
0.000525593
-3.26711e-11
0.00138078
0.000524463
-5.00552e-11
0.00130912
0.000515702
-5.91891e-11
0.00119818
0.000510959
-3.89064e-11
0.00106738
0.000511322
-7.35954e-11
0.000975886
0.000526186
-5.68346e-11
0.000908753
0.000558617
-2.07614e-11
0.00084809
0.000593864
2.55887e-11
0.000765392
0.000632104
5.76542e-11
0.000651703
0.000680396
6.27576e-11
0.000495909
0.000751754
6.31628e-11
0.000293093
0.00083836
6.58332e-11
0.000971055
6.9224e-11
0.00168174
-1.86666e-05
-2.01179e-12
0.00172971
4.19789e-05
2.53833e-11
0.00166002
0.000775449
1.56371e-10
0.00157428
0.000965356
-3.93336e-11
0.00144161
0.000748842
-3.01317e-11
0.00139125
0.000704288
-1.75715e-11
0.00138301
0.000699975
-1.24647e-11
0.00137062
0.000698294
-2.61609e-11
0.00133821
0.000672232
-3.29597e-11
0.00129166
0.000634496
-2.42342e-11
0.00126079
0.00059969
6.7202e-12
0.00132455
0.00058809
-1.24126e-10
0.00140208
0.000597015
7.79717e-12
0.00140281
0.00060053
-4.68023e-11
0.00133729
0.000590677
-6.56187e-11
0.00123646
0.000584905
-3.94563e-11
0.00110426
0.000583356
-6.39701e-11
0.00101181
0.000595527
-5.73477e-11
0.000942798
0.00062854
-1.91896e-12
0.00088711
0.000669747
-1.72205e-13
0.000807404
0.000716466
4.44103e-11
0.000699201
0.000773991
5.22069e-11
0.000535463
0.00086896
5.14529e-11
0.000325521
0.000990457
5.40027e-11
0.00120081
5.16737e-11
0.00171496
-2.18649e-05
-4.06009e-12
0.00179004
2.35884e-05
2.50821e-11
0.0018406
0.000535554
1.67157e-10
0.00166483
0.00115597
-3.51147e-11
0.00151002
0.000913239
-3.33329e-11
0.00144058
0.00084465
-1.93152e-11
0.00141519
0.000814511
-1.18058e-11
0.00139093
0.000795004
-2.37257e-11
0.00135077
0.000756876
-3.1067e-11
0.00130114
0.000711207
-2.46257e-11
0.0012691
0.000672443
-3.36222e-12
0.00131906
0.000656474
-6.74895e-11
0.00140888
0.000667526
6.78731e-12
0.00142447
0.000675711
-2.29278e-11
0.00136751
0.000666308
-6.09632e-11
0.00127845
0.000659241
-5.28946e-11
0.00114725
0.00065531
-6.62077e-11
0.00105232
0.000662122
-5.74433e-11
0.000982618
0.000694046
-1.21789e-11
0.000931541
0.000739526
6.85726e-13
0.000857749
0.000794851
3.49147e-11
0.000757624
0.000861535
4.46154e-11
0.000602375
0.000976625
4.32088e-11
0.000389179
0.0011528
4.28623e-11
0.00150645
3.65595e-11
0.00174906
-6.40944e-12
-2.33131e-05
0.001863
8.54482e-12
5.04457e-06
0.00201944
8.64492e-11
0.000317839
0.0017307
1.13748e-11
0.00137962
0.00155953
-2.00289e-11
0.00109176
0.00148161
-1.31089e-11
0.000992307
0.00144267
-5.74126e-12
0.000930677
0.00140773
-1.41992e-11
0.000889978
0.00136137
-2.35512e-11
0.000838372
0.0013113
-1.98397e-11
0.000785326
0.00128118
5.7805e-13
0.000743347
0.00131568
-4.82816e-11
0.000721294
0.00141459
-6.70367e-12
0.000735684
0.00144569
-2.48164e-11
0.000750191
0.00139923
-7.69672e-11
0.000742773
0.00132137
-4.57533e-11
0.000734069
0.001195
-8.86358e-11
0.000725149
0.00109676
-4.6449e-11
0.000726916
0.00102874
-1.17861e-11
0.000755721
0.000980788
4.29223e-12
0.000802813
0.000918238
3.08204e-11
0.00086266
0.000830633
3.92415e-11
0.000939045
0.000703908
3.93362e-11
0.0010696
0.000516765
3.33456e-11
0.00128623
2.67025e-11
0.00195339
0.00159142
-2.09512e-06
-3.49765e-11
0.00163498
8.37335e-06
9.38722e-11
0.00148528
0.000165402
3.38512e-10
0.00140801
0.000113887
5.80262e-11
0.00123432
7.57462e-05
-8.66112e-11
0.00119578
7.30578e-05
-9.42518e-11
0.00122685
7.65193e-05
-1.00952e-10
0.00126488
8.16948e-05
-1.47707e-10
0.00127072
8.32278e-05
-9.51265e-11
0.00124898
7.99847e-05
-3.98856e-11
0.00125094
7.66256e-05
-1.95816e-11
0.00132972
7.77293e-05
-9.91857e-12
0.00134825
7.8752e-05
-2.11388e-11
0.00129205
7.71514e-05
-1.40157e-11
0.00120715
7.57491e-05
9.40912e-13
0.00107286
7.455e-05
5.33592e-12
0.000956614
7.42695e-05
8.08471e-12
0.000864253
7.70014e-05
3.51336e-12
0.000799024
8.13269e-05
1.22466e-11
0.000731832
8.59651e-05
4.77336e-12
0.000652726
9.07719e-05
1.63387e-11
0.000551018
9.61759e-05
1.95479e-11
0.000419778
0.00010268
1.61146e-11
0.000248806
0.000109291
-1.46327e-11
0.000118596
-1.22323e-10
0.00159381
-5.91274e-06
-3.00299e-11
0.00163564
1.64225e-05
9.8997e-11
0.00147392
0.000337016
3.49578e-10
0.00140239
0.00022313
6.94258e-11
0.00123672
0.000150823
-1.05447e-10
0.0011987
0.000148562
-1.07109e-10
0.00122881
0.000155547
-1.08852e-10
0.00126535
0.000164512
-1.3676e-10
0.00126921
0.000166413
-8.68091e-11
0.00124704
0.000159764
-3.65321e-11
0.00124858
0.000153225
-1.39088e-11
0.00132909
0.000154164
-1.17898e-11
0.001351
0.000154951
-1.38039e-11
0.0012977
0.000151989
-1.25931e-11
0.00121461
0.000150106
2.01266e-12
0.00108109
0.000148226
8.01244e-12
0.000963987
0.000148522
1.28493e-11
0.000871445
0.000154146
9.87643e-12
0.000806016
0.000163102
1.87351e-11
0.000738455
0.000172599
1.14026e-11
0.000658337
0.000182245
1.54117e-11
0.000554958
0.000192947
1.43972e-11
0.000421779
0.000206359
1.12385e-11
0.000248819
0.000219618
-1.718e-11
0.00023727
-1.17104e-10
0.00159735
-9.01578e-06
-2.72204e-11
0.00163247
2.60978e-05
1.0961e-10
0.00145259
0.000513524
3.9491e-10
0.00140409
0.000313166
5.57644e-11
0.00125005
0.000232531
-1.53665e-10
0.00121066
0.000228054
-1.20359e-10
0.00123982
0.000236251
-1.21406e-10
0.00127507
0.000248082
-1.23979e-10
0.00127548
0.000249443
-7.29412e-11
0.00125157
0.000239309
-3.07684e-11
0.00125009
0.000229428
-8.14114e-12
0.00133127
0.000229435
-2.20877e-11
0.00135763
0.000230035
-1.25119e-11
0.00130743
0.000226279
-1.11999e-11
0.00122619
0.000223951
1.73266e-12
0.00109353
0.000221703
1.21997e-11
0.000974533
0.000222181
2.05564e-11
0.000882113
0.000230829
2.08752e-11
0.000817126
0.000244552
3.08847e-11
0.000749567
0.000259452
2.24139e-11
0.000668133
0.000274047
1.27043e-11
0.000562877
0.000290452
1.45009e-11
0.000427199
0.000311049
3.95029e-12
0.00025178
0.00033143
-2.19928e-11
0.000359535
-1.12336e-10
0.0016043
-1.08378e-05
-2.99467e-11
0.00163117
3.55457e-05
1.32858e-10
0.00141084
0.000676724
5.90739e-10
0.00143597
0.000396034
-1.91567e-10
0.00127101
0.00032046
-1.12278e-10
0.00123243
0.000310541
-1.13972e-10
0.00125958
0.000320203
-1.29452e-10
0.00128924