/*--------------------------------*- C++ -*----------------------------------*\
| =========                 |                                                 |
| \\      /  F ield         | OpenFOAM: The Open Source CFD Toolbox           |
|  \\    /   O peration     | Version:  4.1                                   |
|   \\  /    A nd           | Web:      www.OpenFOAM.org                      |
|    \\/     M anipulation  |                                                 |
\*---------------------------------------------------------------------------*/
FoamFile
{
    version     2.0;
    format      ascii;
    class       volScalarField;
    location    "0.82";
    object      T;
}
// * * * * * * * * * * * * * * * * * * * * * * * * * * * * * * * * * * * * * //

dimensions      [0 0 0 1 0 0 0];

internalField   nonuniform List<scalar> 
52500
(
0.134378
0.845152
1.02923
1.04015
1.09998
1.17899
1.22136
1.23463
1.24251
1.24353
1.22601
1.14107
1.04377
1.00491
1.00248
1.02406
1.07141
1.08588
1.07428
1.05235
1.04153
1.03701
1.03155
1.02499
0.982553
0.135482
0.842311
1.02897
1.03845
1.10121
1.17993
1.22196
1.2353
1.2426
1.24326
1.22545
1.14027
1.04327
1.00411
1.0014
1.02223
1.06959
1.0848
1.07358
1.05134
1.04034
1.03595
1.0306
1.02405
0.98159
0.139372
0.836701
1.02795
1.03366
1.10209
1.17917
1.22232
1.23658
1.24295
1.24321
1.22607
1.1426
1.04454
1.00316
0.999282
1.0183
1.06589
1.08325
1.07312
1.05066
1.03933
1.03531
1.03004
1.02374
0.98084
0.145321
0.825693
1.02438
1.02656
1.10395
1.17659
1.22172
1.23715
1.24268
1.24284
1.22828
1.15029
1.04874
1.00349
0.997706
1.01463
1.0616
1.0815
1.0726
1.0499
1.03799
1.03423
1.02959
1.02346
0.980773
0.152385
0.807748
1.01457
1.02334
1.1056
1.17185
1.22037
1.23698
1.24164
1.24168
1.22973
1.1589
1.05441
1.00394
0.995316
1.0094
1.05485
1.07853
1.07147
1.04922
1.03651
1.03272
1.02874
1.02315
0.980616
0.161546
0.782435
0.999105
1.02093
1.10738
1.16617
1.21884
1.23679
1.23988
1.23968
1.23052
1.16933
1.06145
1.00451
0.992385
1.00352
1.0466
1.07447
1.06962
1.04849
1.03439
1.0307
1.0269
1.0222
0.979939
0.172522
0.748862
0.976026
1.01972
1.10809
1.1596
1.21697
1.23653
1.23828
1.23775
1.23072
1.17924
1.06952
1.0054
0.989138
0.996814
1.03594
1.06859
1.06652
1.04758
1.0327
1.02756
1.02456
1.02028
0.977614
0.184958
0.707138
0.942397
1.0209
1.10603
1.15264
1.21469
1.23585
1.23648
1.23561
1.23041
1.18835
1.08061
1.00738
0.985696
0.989762
1.02357
1.06104
1.06239
1.04631
1.02907
1.02361
1.0196
1.01609
0.972326
0.199407
0.658298
0.896418
1.02238
1.1034
1.14541
1.21195
1.23481
1.23469
1.23338
1.22957
1.1966
1.09457
1.01146
0.982433
0.982785
1.00898
1.05122
1.05731
1.04461
1.02444
1.01929
1.01331
1.00974
0.960846
0.217271
0.607932
0.855678
1.0256
1.09938
1.13786
1.20867
1.23231
1.23266
1.23114
1.22849
1.20394
1.11091
1.01789
0.979805
0.97587
0.994799
1.03951
1.05088
1.0419
1.02158
1.01225
1.00242
0.995573
0.934745
0.13435
0.845156
1.02922
1.04018
1.10001
1.17904
1.22138
1.23464
1.24252
1.24353
1.22594
1.14091
1.04373
1.00493
1.0025
1.02407
1.07141
1.08587
1.07427
1.05234
1.04152
1.03699
1.03151
1.02493
0.982531
0.135483
0.842314
1.02898
1.03846
1.10115
1.1798
1.22185
1.2352
1.24249
1.24319
1.22561
1.14085
1.0436
1.00418
1.00137
1.0221
1.06948
1.08476
1.07356
1.05134
1.04033
1.03593
1.03056
1.024
0.981565
0.139367
0.836705
1.02796
1.03368
1.10205
1.17906
1.22219
1.23644
1.24283
1.24314
1.22629
1.14328
1.04495
1.00337
0.99942
1.01836
1.06592
1.08327
1.07312
1.05066
1.03933
1.0353
1.03001
1.02368
0.980811
0.145301
0.825707
1.0244
1.02657
1.10394
1.17655
1.22165
1.23707
1.24259
1.24277
1.22831
1.15059
1.04899
1.0037
0.997924
1.01488
1.0618
1.08157
1.0726
1.04987
1.03798
1.03422
1.02955
1.02341
0.980745
0.15237
0.807766
1.01459
1.02333
1.10559
1.17186
1.22036
1.23695
1.2416
1.24164
1.22965
1.15855
1.05415
1.00386
0.995304
1.00945
1.05497
1.07858
1.07148
1.0492
1.03651
1.03271
1.02871
1.02311
0.980583
0.16153
0.782451
0.999123
1.02092
1.10737
1.16616
1.21882
1.23676
1.23987
1.23966
1.23042
1.16898
1.06119
1.00444
0.992416
1.0036
1.04667
1.07445
1.06959
1.04846
1.03438
1.03069
1.02687
1.02215
0.979907
0.172511
0.748875
0.976045
1.0197
1.10808
1.15959
1.21694
1.23649
1.23827
1.23772
1.2306
1.17876
1.0691
1.00538
0.98936
0.99718
1.03639
1.06875
1.06658
1.04754
1.03268
1.02754
1.02453
1.02024
0.977586
0.184947
0.707145
0.942412
1.02088
1.10602
1.15262
1.21466
1.23582
1.23645
1.23557
1.2303
1.18782
1.07993
1.00733
0.986025
0.990254
1.02426
1.06138
1.06255
1.04629
1.02904
1.02359
1.01957
1.01604
0.972304
0.199396
0.658298
0.896418
1.02236
1.10339
1.14539
1.21192
1.23478
1.23466
1.23335
1.22951
1.19618
1.09389
1.01135
0.982722
0.983202
1.00959
1.05158
1.05748
1.04463
1.02443
1.01928
1.01327
1.0097
0.960828
0.217264
0.607921
0.855671
1.02558
1.09936
1.13784
1.20865
1.23228
1.23262
1.23113
1.22847
1.20366
1.11038
1.01777
0.979974
0.976141
0.995145
1.03976
1.05098
1.04192
1.02155
1.01224
1.00239
0.995527
0.934725
0.134366
0.845143
1.02922
1.04015
1.09999
1.179
1.22135
1.23462
1.2425
1.24351
1.22586
1.14071
1.04362
1.00497
1.00261
1.02426
1.07155
1.08591
1.07426
1.05232
1.04151
1.03699
1.03152
1.02495
0.982559
0.135477
0.842302
1.02897
1.03845
1.10119
1.1799
1.22192
1.23526
1.24256
1.24322
1.22538
1.14015
1.04325
1.00419
1.00152
1.02238
1.0697
1.08483
1.07356
1.05132
1.04032
1.03593
1.03057
1.02402
0.981592
0.139368
0.836691
1.02794
1.03366
1.10207
1.17913
1.22227
1.23652
1.2429
1.24317
1.22606
1.14264
1.04461
1.00324
0.999351
1.01835
1.06593
1.08326
1.07311
1.05064
1.03932
1.0353
1.03001
1.0237
0.980839
0.145311
0.825681
1.02438
1.02656
1.10394
1.17656
1.22169
1.23711
1.24263
1.24279
1.22828
1.15048
1.0489
1.00363
0.99786
1.01482
1.06176
1.08155
1.0726
1.04987
1.03797
1.03422
1.02956
1.02343
0.980773
0.152377
0.807734
1.01456
1.02333
1.10559
1.17184
1.22036
1.23696
1.2416
1.24166
1.22974
1.15887
1.05436
1.00392
0.995317
1.00941
1.05489
1.07855
1.07146
1.0492
1.0365
1.03271
1.02872
1.02313
0.980612
0.161537
0.782416
0.999093
1.02092
1.10738
1.16615
1.21882
1.23677
1.23986
1.23966
1.23054
1.16955
1.06163
1.00454
0.992338
1.00343
1.04649
1.07442
1.0696
1.04848
1.03438
1.03069
1.02688
1.02217
0.979935
0.172516
0.748838
0.976009
1.0197
1.10808
1.15958
1.21695
1.2365
1.23826
1.23772
1.23069
1.17938
1.06971
1.00546
0.98914
0.996807
1.0359
1.06855
1.06649
1.04757
1.03269
1.02754
1.02454
1.02026
0.977614
0.184952
0.707109
0.942371
1.02088
1.10602
1.15262
1.21467
1.23583
1.23646
1.23558
1.23038
1.1883
1.08054
1.00738
0.985735
0.989833
1.0237
1.06111
1.06242
1.0463
1.02906
1.0236
1.01958
1.01606
0.972329
0.199402
0.658265
0.896379
1.02236
1.10339
1.14539
1.21193
1.23479
1.23467
1.23336
1.22957
1.19651
1.09436
1.01139
0.982473
0.982864
1.00914
1.05134
1.05737
1.04462
1.02444
1.01928
1.01328
1.00971
0.96085
0.21727
0.607902
0.855661
1.02558
1.09936
1.13784
1.20865
1.2323
1.23264
1.23114
1.22851
1.20385
1.11065
1.01778
0.979823
0.975932
0.994899
1.03961
1.05093
1.04192
1.02157
1.01225
1.0024
0.995541
0.934745
0.134361
0.845134
1.02921
1.04014
1.09999
1.17901
1.22135
1.23462
1.2425
1.24351
1.22586
1.1407
1.04362
1.00497
1.00262
1.02428
1.07157
1.08592
1.07425
1.05231
1.0415
1.03698
1.0315
1.02493
0.982541
0.135474
0.842293
1.02896
1.03844
1.10119
1.17989
1.22192
1.23526
1.24256
1.24322
1.22539
1.14018
1.04326
1.00419
1.00152
1.0224
1.06971
1.08483
1.07355
1.05131
1.04031
1.03592
1.03055
1.024
0.981575
0.139364
0.836681
1.02794
1.03365
1.10207
1.17913
1.22227
1.23652
1.24289
1.24317
1.22608
1.14269
1.04464
1.00329
0.999416
1.01844
1.066
1.08328
1.07311
1.05063
1.03931
1.03529
1.03
1.02369
0.980822
0.145309
0.82567
1.02437
1.02655
1.10394
1.17656
1.22168
1.2371
1.24262
1.24279
1.22831
1.15061
1.049
1.00368
0.997882
1.01483
1.06177
1.08156
1.07259
1.04986
1.03797
1.03421
1.02955
1.02342
0.980757
0.152376
0.807723
1.01455
1.02332
1.10559
1.17184
1.22035
1.23695
1.24158
1.24164
1.22973
1.15889
1.05436
1.00389
0.995249
1.00934
1.05486
1.07855
1.07146
1.0492
1.0365
1.0327
1.02871
1.02311
0.980596
0.161537
0.782402
0.999081
1.02091
1.10738
1.16615
1.21882
1.23677
1.23986
1.23966
1.23051
1.16937
1.06147
1.00449
0.992352
1.00347
1.04652
1.0744
1.06958
1.04846
1.03437
1.03068
1.02687
1.02216
0.979921
0.172517
0.748822
0.975995
1.0197
1.10808
1.15958
1.21695
1.23651
1.23827
1.23773
1.23067
1.17914
1.06944
1.00544
0.989267
0.997013
1.03618
1.06867
1.06655
1.04755
1.03268
1.02754
1.02453
1.02025
0.977602
0.184955
0.70709
0.942353
1.02087
1.10602
1.15262
1.21468
1.23584
1.23647
1.23559
1.23037
1.18812
1.0803
1.00738
0.985889
0.990046
1.024
1.06128
1.06251
1.04631
1.02905
1.02359
1.01957
1.01605
0.97232
0.199407
0.658243
0.896357
1.02236
1.10339
1.14539
1.21193
1.23479
1.23468
1.23337
1.22956
1.19641
1.09424
1.01141
0.982569
0.982983
1.0093
1.05143
1.05742
1.04463
1.02443
1.01928
1.01328
1.0097
0.960843
0.217278
0.607885
0.855657
1.02558
1.09935
1.13784
1.20865
1.2323
1.23264
1.23115
1.2285
1.20382
1.11066
1.01782
0.979838
0.975932
0.994888
1.0396
1.05092
1.0419
1.02156
1.01224
1.00239
0.995536
0.934739
0.134383
0.845106
1.02921
1.04011
1.09999
1.179
1.22134
1.23462
1.2425
1.24351
1.22587
1.14073
1.04364
1.00498
1.00261
1.02427
1.07155
1.08591
1.07425
1.05231
1.04149
1.03697
1.0315
1.02494
0.982553
0.135493
0.842262
1.02896
1.03841
1.1012
1.17989
1.22191
1.23526
1.24255
1.24321
1.22539
1.14019
1.04327
1.0042
1.00152
1.02239
1.06969
1.08482
1.07355
1.0513
1.04031
1.03591
1.03055
1.024
0.981589
0.139382
0.836644
1.02793
1.03362
1.10208
1.17913
1.22227
1.23652
1.24289
1.24316
1.22608
1.14269
1.04465
1.00329
0.999421
1.01844
1.06598
1.08327
1.0731
1.05063
1.03931
1.03528
1.03
1.02369
0.980837
0.145329
0.825622
1.02434
1.02654
1.10395
1.17655
1.22168
1.2371
1.24261
1.24279
1.22832
1.15054
1.04892
1.00365
0.99786
1.01481
1.06174
1.08154
1.07259
1.04986
1.03796
1.0342
1.02955
1.02342
0.980769
0.152394
0.807667
1.01451
1.02332
1.1056
1.17183
1.22035
1.23694
1.24158
1.24163
1.22972
1.15904
1.05453
1.00396
0.995287
1.00936
1.05484
1.07854
1.07145
1.04919
1.03649
1.03269
1.0287
1.02311
0.980612
0.161556
0.782341
0.999039
1.02091
1.10738
1.16614
1.21881
1.23676
1.23985
1.23964
1.23048
1.16927
1.0614
1.00447
0.992346
1.00347
1.0465
1.07438
1.06956
1.04845
1.03437
1.03067
1.02686
1.02215
0.979937
0.172535
0.748756
0.975945
1.0197
1.10807
1.15957
1.21695
1.23651
1.23826
1.23773
1.23069
1.17903
1.06928
1.00536
0.989227
0.996985
1.03617
1.06867
1.06654
1.04755
1.03267
1.02753
1.02453
1.02024
0.977614
0.184973
0.707023
0.942296
1.02088
1.10601
1.15261
1.21467
1.23584
1.23647
1.2356
1.23038
1.18816
1.08031
1.00737
0.985876
0.990031
1.02398
1.06126
1.0625
1.0463
1.02904
1.02359
1.01957
1.01605
0.972327
0.199426
0.658179
0.896301
1.02237
1.10339
1.14538
1.21193
1.23479
1.23468
1.23336
1.22955
1.19647
1.09438
1.01147
0.982584
0.982984
1.00927
1.05141
1.0574
1.04462
1.02443
1.01927
1.01328
1.00971
0.960847
0.217301
0.607845
0.85566
1.02559
1.09935
1.13783
1.20865
1.23229
1.23264
1.23112
1.22847
1.20389
1.11088
1.01794
0.979877
0.975942
0.994875
1.03957
1.0509
1.04189
1.02156
1.01224
1.00239
0.995547
0.934741
0.134375
0.84511
1.0292
1.04012
1.09999
1.179
1.22135
1.23462
1.2425
1.24351
1.22585
1.14069
1.04361
1.00498
1.00262
1.02429
1.07158
1.08593
1.07425
1.05231
1.0415
1.03698
1.0315
1.02493
0.982553
0.135487
0.842267
1.02895
1.03841
1.10119
1.17989
1.22191
1.23525
1.24255
1.24321
1.22538
1.14017
1.04326
1.00419
1.00153
1.02241
1.06972
1.08483
1.07356
1.05131
1.04031
1.03591
1.03055
1.024
0.981586
0.139377
0.836651
1.02793
1.03362
1.10207
1.17913
1.22226
1.23652
1.24289
1.24316
1.22607
1.14269
1.04464
1.00329
0.999422
1.01845
1.066
1.08329
1.07311
1.05063
1.03931
1.03529
1.03
1.02369
0.980833
0.145322
0.825632
1.02435
1.02654
1.10394
1.17655
1.22168
1.2371
1.24261
1.24279
1.22832
1.15053
1.04892
1.00364
0.997863
1.01482
1.06177
1.08155
1.07259
1.04986
1.03796
1.03421
1.02955
1.02342
0.980766
0.152388
0.80768
1.01452
1.02332
1.10559
1.17183
1.22035
1.23694
1.24158
1.24163
1.22972
1.15903
1.05452
1.00395
0.995288
1.00937
1.05486
1.07855
1.07146
1.0492
1.0365
1.0327
1.02871
1.02312
0.980604
0.16155
0.782355
0.999048
1.02091
1.10738
1.16614
1.21881
1.23676
1.23985
1.23964
1.23048
1.16926
1.06139
1.00447
0.992344
1.00347
1.04652
1.0744
1.06957
1.04846
1.03437
1.03068
1.02687
1.02216
0.979928
0.172529
0.748772
0.975956
1.0197
1.10807
1.15957
1.21695
1.23651
1.23826
1.23773
1.23068
1.17901
1.06927
1.00536
0.989227
0.996988
1.03618
1.06867
1.06655
1.04756
1.03268
1.02754
1.02454
1.02025
0.977607
0.184967
0.707041
0.94231
1.02088
1.10601
1.15261
1.21467
1.23584
1.23647
1.2356
1.23038
1.18814
1.0803
1.00736
0.985877
0.990035
1.02399
1.06127
1.06251
1.04631
1.02905
1.0236
1.01957
1.01606
0.972324
0.199419
0.658196
0.896315
1.02237
1.10338
1.14538
1.21193
1.23479
1.23468
1.23336
1.22955
1.19646
1.09436
1.01146
0.982584
0.982987
1.00928
1.05142
1.05742
1.04463
1.02443
1.01928
1.01328
1.00971
0.960848
0.217293
0.607856
0.855658
1.02558
1.09935
1.13783
1.20865
1.23229
1.23265
1.23112
1.22847
1.20388
1.11087
1.01793
0.979874
0.975941
0.994877
1.03958
1.05091
1.0419
1.02156
1.01224
1.0024
0.995539
0.934743
0.134361
0.845134
1.02921
1.04014
1.09999
1.17901
1.22135
1.23462
1.2425
1.24351
1.22586
1.1407
1.04362
1.00497
1.00262
1.02428
1.07157
1.08592
1.07425
1.05231
1.0415
1.03698
1.0315
1.02493
0.982541
0.135474
0.842293
1.02896
1.03844
1.10119
1.17989
1.22192
1.23526
1.24256
1.24322
1.22539
1.14018
1.04326
1.00419
1.00152
1.0224
1.06971
1.08483
1.07355
1.05131
1.04031
1.03592
1.03055
1.024
0.981575
0.139364
0.836681
1.02794
1.03365
1.10207
1.17913
1.22227
1.23652
1.24289
1.24317
1.22608
1.14269
1.04464
1.00329
0.999416
1.01844
1.066
1.08328
1.07311
1.05063
1.03931
1.03529
1.03
1.02369
0.980822
0.145309
0.825671
1.02437
1.02655
1.10394
1.17656
1.22168
1.2371
1.24262
1.24279
1.22831
1.15061
1.049
1.00368
0.997882
1.01483
1.06177
1.08156
1.07259
1.04986
1.03797
1.03421
1.02955
1.02342
0.980757
0.152376
0.807723
1.01455
1.02332
1.10559
1.17184
1.22035
1.23695
1.24158
1.24164
1.22973
1.15889
1.05436
1.00389
0.995249
1.00934
1.05486
1.07855
1.07146
1.0492
1.0365
1.0327
1.02871
1.02311
0.980596
0.161537
0.782403
0.999081
1.02091
1.10738
1.16615
1.21882
1.23677
1.23986
1.23966
1.23051
1.16937
1.06147
1.00449
0.992352
1.00347
1.04652
1.0744
1.06958
1.04846
1.03437
1.03068
1.02687
1.02216
0.979921
0.172517
0.748823
0.975995
1.0197
1.10808
1.15958
1.21695
1.23651
1.23827
1.23773
1.23067
1.17914
1.06944
1.00544
0.989267
0.997013
1.03618
1.06867
1.06655
1.04755
1.03268
1.02754
1.02453
1.02025
0.977602
0.184955
0.707091
0.942354
1.02087
1.10602
1.15262
1.21468
1.23584
1.23647
1.23559
1.23037
1.18812
1.0803
1.00738
0.985889
0.990046
1.024
1.06128
1.06251
1.04631
1.02905
1.02359
1.01957
1.01605
0.97232
0.199406
0.658243
0.896357
1.02236
1.10339
1.14539
1.21193
1.23479
1.23468
1.23337
1.22956
1.19641
1.09424
1.01141
0.982569
0.982983
1.0093
1.05143
1.05742
1.04463
1.02443
1.01928
1.01328
1.0097
0.960843
0.217278
0.607885
0.855657
1.02558
1.09935
1.13784
1.20865
1.2323
1.23264
1.23115
1.2285
1.20382
1.11066
1.01782
0.979838
0.975932
0.994888
1.0396
1.05092
1.0419
1.02156
1.01224
1.00239
0.995536
0.934739
0.134366
0.845143
1.02922
1.04015
1.09999
1.179
1.22135
1.23462
1.2425
1.24351
1.22586
1.14071
1.04362
1.00497
1.00261
1.02426
1.07155
1.08591
1.07426
1.05232
1.04151
1.03699
1.03152
1.02495
0.982559
0.135477
0.842302
1.02897
1.03845
1.10119
1.1799
1.22192
1.23526
1.24256
1.24322
1.22538
1.14015
1.04325
1.00419
1.00152
1.02238
1.0697
1.08483
1.07356
1.05132
1.04032
1.03593
1.03057
1.02402
0.981592
0.139368
0.836691
1.02794
1.03366
1.10207
1.17913
1.22227
1.23652
1.2429
1.24317
1.22606
1.14264
1.04461
1.00324
0.999351
1.01835
1.06593
1.08326
1.07311
1.05064
1.03932
1.0353
1.03001
1.0237
0.980839
0.145311
0.825681
1.02438
1.02656
1.10394
1.17656
1.22169
1.23711
1.24263
1.24279
1.22828
1.15048
1.0489
1.00363
0.99786
1.01482
1.06176
1.08155
1.0726
1.04987
1.03797
1.03422
1.02956
1.02343
0.980773
0.152377
0.807734
1.01456
1.02333
1.10559
1.17184
1.22036
1.23696
1.2416
1.24166
1.22974
1.15887
1.05436
1.00392
0.995317
1.00941
1.05489
1.07855
1.07146
1.0492
1.0365
1.03271
1.02872
1.02313
0.980612
0.161537
0.782416
0.999093
1.02092
1.10738
1.16615
1.21882
1.23677
1.23986
1.23966
1.23054
1.16955
1.06163
1.00454
0.992338
1.00343
1.04649
1.07442
1.0696
1.04848
1.03438
1.03069
1.02688
1.02217
0.979935
0.172516
0.748838
0.976009
1.0197
1.10808
1.15958
1.21695
1.2365
1.23826
1.23772
1.23069
1.17938
1.06971
1.00546
0.989141
0.996807
1.0359
1.06855
1.06649
1.04757
1.03269
1.02754
1.02454
1.02026
0.977614
0.184952
0.707109
0.942371
1.02088
1.10602
1.15262
1.21467
1.23583
1.23646
1.23558
1.23038
1.1883
1.08054
1.00738
0.985735
0.989833
1.0237
1.06111
1.06242
1.0463
1.02906
1.0236
1.01958
1.01606
0.972329
0.199402
0.658265
0.896379
1.02236
1.10339
1.14539
1.21193
1.23479
1.23467
1.23336
1.22957
1.19651
1.09436
1.01139
0.982473
0.982864
1.00914
1.05134
1.05737
1.04462
1.02444
1.01928
1.01328
1.00971
0.96085
0.21727
0.607902
0.855661
1.02558
1.09936
1.13784
1.20865
1.2323
1.23264
1.23114
1.22851
1.20385
1.11065
1.01778
0.979823
0.975932
0.994899
1.03961
1.05093
1.04192
1.02157
1.01225
1.0024
0.995541
0.934745
0.13435
0.845156
1.02922
1.04018
1.10001
1.17904
1.22138
1.23464
1.24252
1.24353
1.22594
1.14091
1.04373
1.00493
1.0025
1.02407
1.07141
1.08587
1.07427
1.05234
1.04152
1.03699
1.03151
1.02493
0.982532
0.135483
0.842314
1.02898
1.03846
1.10115
1.1798
1.22185
1.2352
1.24249
1.24319
1.22561
1.14085
1.0436
1.00418
1.00137
1.0221
1.06948
1.08476
1.07356
1.05134
1.04033
1.03593
1.03056
1.024
0.981565
0.139366
0.836705
1.02796
1.03368
1.10205
1.17906
1.22219
1.23644
1.24283
1.24314
1.22629
1.14328
1.04495
1.00337
0.99942
1.01836
1.06592
1.08327
1.07312
1.05066
1.03933
1.0353
1.03001
1.02368
0.980811
0.145301
0.825707
1.0244
1.02657
1.10394
1.17655
1.22165
1.23707
1.24259
1.24277
1.22831
1.15059
1.04899
1.0037
0.997924
1.01488
1.0618
1.08157
1.0726
1.04987
1.03798
1.03422
1.02955
1.02341
0.980745
0.15237
0.807767
1.01459
1.02333
1.10559
1.17186
1.22036
1.23695
1.2416
1.24164
1.22965
1.15855
1.05415
1.00386
0.995303
1.00945
1.05497
1.07858
1.07148
1.0492
1.03651
1.03271
1.02871
1.02311
0.980583
0.16153
0.782451
0.999123
1.02092
1.10737
1.16616
1.21882
1.23676
1.23987
1.23966
1.23042
1.16898
1.06119
1.00444
0.992416
1.0036
1.04667
1.07445
1.06959
1.04846
1.03438
1.03069
1.02687
1.02215
0.979907
0.172511
0.748875
0.976045
1.0197
1.10808
1.15959
1.21694
1.23649
1.23827
1.23772
1.2306
1.17876
1.0691
1.00538
0.98936
0.99718
1.03639
1.06875
1.06658
1.04754
1.03268
1.02754
1.02453
1.02024
0.977586
0.184947
0.707145
0.942412
1.02088
1.10602
1.15262
1.21466
1.23582
1.23645
1.23557
1.2303
1.18782
1.07993
1.00733
0.986025
0.990254
1.02426
1.06138
1.06255
1.04629
1.02904
1.02359
1.01957
1.01604
0.972304
0.199396
0.658298
0.896418
1.02236
1.10339
1.14539
1.21192
1.23478
1.23466
1.23335
1.22951
1.19619
1.09389
1.01135
0.982722
0.983202
1.00959
1.05158
1.05748
1.04463
1.02443
1.01928
1.01327
1.0097
0.960828
0.217264
0.607921
0.855671
1.02558
1.09936
1.13784
1.20865
1.23228
1.23262
1.23113
1.22847
1.20366
1.11038
1.01777
0.979974
0.97614
0.995144
1.03976
1.05098
1.04192
1.02155
1.01224
1.00239
0.995527
0.934726
0.134356
0.845172
1.02922
1.04019
1.1
1.17904
1.22139
1.23465
1.24255
1.24355
1.22584
1.14056
1.04349
1.00485
1.00248
1.02413
1.07145
1.08588
1.07426
1.05235
1.04154
1.03705
1.03163
1.02505
0.982461
0.135464
0.842333
1.02897
1.03848
1.10121
1.17994
1.22197
1.23531
1.24262
1.24327
1.22541
1.14016
1.04323
1.00411
1.0014
1.02223
1.06957
1.08478
1.07356
1.05135
1.04035
1.03598
1.03068
1.02411
0.981504
0.13936
0.836729
1.02795
1.03369
1.10207
1.17917
1.22231
1.23656
1.24291
1.2432
1.22624
1.1431
1.04486
1.00328
0.999307
1.01822
1.06578
1.0832
1.0731
1.05067
1.03935
1.03535
1.03013
1.0238
0.98076
0.145307
0.825733
1.0244
1.02658
1.10394
1.17657
1.2217
1.23711
1.24261
1.24279
1.22853
1.15132
1.04936
1.00359
0.997593
1.01443
1.06144
1.08145
1.07258
1.04991
1.03801
1.03427
1.02966
1.02352
0.980696
0.15237
0.807795
1.0146
1.02334
1.1056
1.17186
1.22037
1.23695
1.24157
1.24162
1.22979
1.15933
1.05464
1.00385
0.995061
1.00903
1.05448
1.07839
1.07142
1.04925
1.03653
1.03274
1.0288
1.0232
0.980549
0.16153
0.782486
0.999139
1.02093
1.10739
1.16619
1.21886
1.2368
1.23988
1.23967
1.23049
1.1691
1.0612
1.00442
0.992395
1.00357
1.04662
1.07443
1.0696
1.04849
1.0344
1.03071
1.02694
1.02224
0.979883
0.172509
0.748916
0.976066
1.01971
1.10809
1.15962
1.217
1.23655
1.23832
1.23778
1.23069
1.17875
1.069
1.00538
0.989435
0.997269
1.03646
1.06879
1.06661
1.04756
1.03269
1.02756
1.02459
1.02031
0.97757
0.184946
0.707188
0.942443
1.02088
1.10603
1.15266
1.21472
1.23588
1.23651
1.23564
1.23039
1.18795
1.08009
1.00741
0.986068
0.990263
1.02424
1.06139
1.06257
1.04631
1.02905
1.0236
1.01961
1.0161
0.972296
0.199395
0.658344
0.896455
1.02238
1.10341
1.14542
1.21196
1.23482
1.23472
1.23339
1.22954
1.19639
1.09433
1.01154
0.982678
0.983074
1.00934
1.05146
1.05744
1.04463
1.02443
1.01927
1.0133
1.00974
0.960827
0.217258
0.607956
0.855677
1.02559
1.09938
1.13787
1.20868
1.23231
1.23266
1.23114
1.22846
1.20384
1.1109
1.01799
0.979862
0.975889
0.99477
1.03949
1.05087
1.04188
1.02156
1.01223
1.0024
0.995565
0.934734
0.238846
0.573899
0.855993
1.03029
1.09228
1.13124
1.20247
1.22879
1.22989
1.22864
1.22718
1.2102
1.12912
1.02664
0.977641
0.968166
0.981296
1.02495
1.04386
1.03814
1.01601
1.00335
0.990072
0.971962
0.863367
0.261621
0.544739
0.853541
1.03477
1.08357
1.12376
1.19411
1.22486
1.2267
1.22576
1.22528
1.21441
1.14711
1.03845
0.977285
0.959896
0.966374
1.00276
1.03114
1.03033
1.01349
0.993374
0.973386
0.954404
0.866615
0.284683
0.51322
0.847552
1.0416
1.07281
1.11377
1.18238
1.217
1.22202
1.22262
1.22331
1.21743
1.16686
1.05304
0.979276
0.954129
0.955971
0.985454
1.02015
1.02389
1.00991
0.990249
0.961028
0.942909
0.879786
0.303842
0.482393
0.843192
1.04946
1.05701
1.10538
1.16772
1.20425
1.21761
1.22001
1.22172
1.21842
1.1816
1.07495
0.985967
0.948831
0.944397
0.962555
1.00314
1.01467
1.00691
0.985929
0.95461
0.934857
0.900527
0.321784
0.465824
0.821267
1.04288
1.03876
1.10016
1.14907
1.19072
1.21216
1.21834
1.22072
1.219
1.1935
1.09909
0.997349
0.946362
0.934072
0.944395
0.982516
1.00291
1.00063
0.98626
0.95063
0.927982
0.901766
0.335837
0.442193
0.77404
1.00502
1.02547
1.10322
1.13308
1.17736
1.20617
1.21682
1.22026
1.21892
1.20248
1.12598
1.01319
0.947368
0.924457
0.926881
0.956709
0.988046
0.991277
0.983908
0.953363
0.924336
0.900221
0.344439
0.421918
0.687491
0.896613
1.02343
1.10235
1.12023
1.16056
1.19925
1.21481
1.21935
1.21819
1.20697
1.1503
1.03491
0.953718
0.917882
0.912867
0.929895
0.97038
0.98247
0.979475
0.959801
0.926368
0.900968
0.353178
0.418222
0.622395
0.849366
1.04157
1.09713
1.10649
1.13929
1.18906
1.21036
1.21674
1.21593
1.20753
1.16902
1.06168
0.966071
0.915556
0.90177
0.908378
0.942539
0.966915
0.969835
0.962291
0.933885
0.903928
0.364852
0.418619
0.56477
0.824746
1.05894
1.08133
1.09621
1.12831
1.17861
1.20575
1.21313
1.21295
1.20724
1.1828
1.0933
0.983974
0.91888
0.893097
0.892584
0.91341
0.951194
0.961709
0.959176
0.944383
0.911451
0.3789
0.418511
0.528006
0.785247
1.05961
1.06136
1.08069
1.11639
1.16411
1.19594
1.20745
1.20862
1.20607
1.19256
1.12783
1.01216
0.929734
0.888354
0.878831
0.886516
0.921193
0.946289
0.951193
0.945884
0.926179
0.390826
0.412347
0.487197
0.732099
1.03769
1.03358
1.07864
1.11028
1.14359
1.1805
1.19907
1.20487
1.20466
1.19752
1.15879
1.04506
0.945791
0.890369
0.868372
0.869005
0.88867
0.926192
0.938955
0.939286
0.932082
0.390505
0.397492
0.447297
0.647088
0.912658
1.01468
1.08185
1.10506
1.12375
1.16203
1.18973
1.20123
1.20351
1.2004
1.17816
1.08783
0.973492
0.900481
0.86359
0.854724
0.860834
0.891633
0.922617
0.93022
0.928507
0.377238
0.380971
0.417219
0.557369
0.825666
1.03164
1.08108
1.09663
1.10683
1.14135
1.17632
1.19527
1.20173
1.20132
1.19009
1.1311
1.00691
0.916569
0.867559
0.845966
0.844995
0.858092
0.893139
0.914926
0.920363
0.36506
0.366967
0.392529
0.492992
0.741156
1.05114
1.05961
1.06848
1.08998
1.12422
1.16236
1.18768
1.19893
1.20088
1.19655
1.16014
1.04897
0.944006
0.878119
0.844223
0.834505
0.837528
0.85983
0.891634
0.905452
0.357095
0.355193
0.371139
0.43523
0.644407
0.986709
0.99803
1.04515
1.0829
1.10464
1.14503
1.17814
1.19484
1.19961
1.19859
1.18152
1.09831
0.975137
0.892071
0.847485
0.825653
0.822902
0.829699
0.858073
0.886431
0.351539
0.345207
0.355739
0.398836
0.550323
0.832827
0.982866
1.04516
1.07736
1.0896
1.12321
1.16416
1.18856
1.19719
1.19791
1.19272
1.14624
1.01845
0.915305
0.854776
0.825564
0.812628
0.813108
0.822442
0.853382
0.347027
0.337255
0.344255
0.373078
0.476633
0.718487
1.00869
1.03846
1.0489
1.07271
1.10896
1.14583
1.17542
1.1917
1.19609
1.19526
1.17617
1.07991
0.950396
0.869998
0.828061
0.809148
0.802709
0.804684
0.815171
0.343611
0.331054
0.335456
0.353612
0.414965
0.596471
0.953364
0.984395
1.01833
1.06327
1.09122
1.12378
1.16025
1.18268
1.19252
1.19419
1.18906
1.14211
1.00664
0.897267
0.837645
0.807964
0.794967
0.793201
0.795934
0.341001
0.326482
0.329383
0.341316
0.380162
0.512577
0.786526
0.968456
1.01631
1.0455
1.06564
1.10504
1.14165
1.17218
1.18732
1.19218
1.19225
1.1744
1.08316
0.946837
0.861276
0.815061
0.79276
0.781883
0.782024
0.339101
0.323009
0.324838
0.332339
0.356137
0.436959
0.647881
0.980806
0.995678
1.00992
1.04923
1.07768
1.12071
1.15441
1.17775
1.18854
1.19148
1.18633
1.14511
1.02276
0.901725
0.833196
0.798071
0.780305
0.767995
0.337762
0.320565
0.321734
0.326525
0.341269
0.387141
0.538276
0.839212
0.956753
0.998223
1.03124
1.0529
1.08854
1.13309
1.16399
1.18094
1.18875
1.18889
1.17487
1.0987
0.970144
0.870453
0.813685
0.784526
0.767858
0.336829
0.318787
0.319545
0.322617
0.331695
0.358717
0.450325
0.674336
0.967585
0.984574
1.00017
1.03603
1.05856
1.10289
1.14212
1.16996
1.18342
1.18778
1.18367
1.15256
1.04446
0.932411
0.847757
0.798407
0.771757
0.336182
0.317606
0.318199
0.320229
0.325788
0.341535
0.389853
0.544995
0.845713
0.948737
0.987122
1.01467
1.04016
1.06411
1.11223
1.14896
1.17365
1.1843
1.18394
1.17366
1.12255
0.995304
0.898698
0.825065
0.782806
0.335904
0.317024
0.317534
0.318775
0.322051
0.331192
0.358469
0.451324
0.674592
0.953356
0.970485
0.98705
1.02079
1.04268
1.07078
1.12169
1.15395
1.17593
1.18168
1.17881
1.15918
1.07871
0.95407
0.871807
0.808422
0.336251
0.316951
0.317185
0.317905
0.319981
0.325457
0.340735
0.387548
0.539348
0.826814
0.937919
0.974263
0.995627
1.02566
1.0409
1.07345
1.12871
1.1605
1.17587
1.17673
1.17009
1.13679
1.03069
0.922664
0.846968
0.336711
0.316986
0.317077
0.317508
0.318667
0.321751
0.330207
0.355168
0.439582
0.650749
0.935319
0.95085
0.972858
1.00262
1.02493
1.04253
1.07818
1.13338
1.16365
1.1719
1.16951
1.1569
1.10738
0.98296
0.888129
0.336895
0.317134
0.316953
0.317163
0.317817
0.319582
0.324308
0.337702
0.378847
0.518554
0.782611
0.926404
0.959671
0.976196
1.00734
1.02061
1.04204
1.08552
1.13637
1.16137
1.16543
1.16085
1.14039
1.06542
0.940213
0.336989
0.317242
0.316829
0.316939
0.3173
0.318273
0.320855
0.327846
0.348368
0.416111
0.605988
0.899103
0.930017
0.958936
0.981584
1.00678
1.0179
1.04101
1.09353
1.13835
1.15484
1.15628
1.14857
1.11713
1.02013
0.337022
0.31729
0.316745
0.316801
0.316995
0.317522
0.318916
0.322639
0.333094
0.365188
0.477826
0.714665
0.91216
0.940204
0.957066
0.986254
1.00404
1.01572
1.0413
1.09877
1.13704
1.14638
1.1447
1.13251
1.0869
0.337019
0.317311
0.316694
0.316721
0.31682
0.317094
0.317822
0.319773
0.32503
0.340286
0.388317
0.545398
0.815211
0.909553
0.941064
0.958138
0.987315
0.999354
1.01278
1.04418
1.10037
1.13003
1.1364
1.13142
1.112
0.337004
0.317328
0.31666
0.31667
0.316713
0.316847
0.317221
0.318215
0.320865
0.328143
0.349995
0.424435
0.618677
0.881703
0.912979
0.939229
0.961261
0.984886
0.992767
1.009
1.05126
1.09774
1.11946
1.12391
1.11643
0.336998
0.317334
0.31663
0.316638
0.316661
0.316728
0.31691
0.317397
0.318699
0.322228
0.332281
0.363649
0.47609
0.699194
0.888495
0.917229
0.936366
0.963918
0.980114
0.987018
1.00698
1.05568
1.09481
1.11003
1.11028
0.337
0.317328
0.316625
0.316621
0.31663
0.316661
0.316747
0.316979
0.317602
0.319283
0.323872
0.337367
0.380229
0.525383
0.76585
0.885453
0.918233
0.935608
0.962305
0.972949
0.98178
1.00736
1.05893
1.08977
1.0996
0.337001
0.317324
0.316625
0.316611
0.316615
0.316629
0.316667
0.316773
0.31706
0.317828
0.31992
0.3257
0.343148
0.401746
0.571397
0.822624
0.885095
0.915325
0.93722
0.957678
0.964967
0.977563
1.01433
1.06319
1.08599
0.337002
0.317321
0.316626
0.316606
0.316608
0.316614
0.31663
0.316676
0.316801
0.317142
0.318062
0.320588
0.327742
0.349927
0.429117
0.618571
0.844949
0.888226
0.912366
0.935948
0.950114
0.959254
0.978217
1.02381
1.06546
0.337002
0.31732
0.316627
0.316604
0.316605
0.316607
0.316614
0.316633
0.316686
0.316829
0.317221
0.31829
0.321269
0.329923
0.357511
0.458154
0.658956
0.850555
0.88786
0.911698
0.931544
0.941893
0.956075
0.989055
1.04523
0.337002
0.31732
0.316628
0.316603
0.316603
0.316605
0.316607
0.316615
0.316635
0.316693
0.316852
0.317289
0.3185
0.321901
0.332004
0.364649
0.480188
0.686776
0.846014
0.884277
0.911888
0.930213
0.948055
0.973992
1.0301
0.337002
0.31732
0.316627
0.316603
0.316603
0.316603
0.316604
0.316607
0.316615
0.316637
0.316699
0.31687
0.317344
0.318669
0.322412
0.333728
0.370723
0.497694
0.698598
0.842686
0.891013
0.91758
0.96123
0.997119
1.06586
0.337002
0.31732
0.316627
0.316603
0.316603
0.316603
0.316604
0.316605
0.316607
0.316616
0.316639
0.316704
0.316885
0.317389
0.318809
0.322847
0.335232
0.376005
0.515478
0.697805
0.859117
0.928685
1.0412
1.12514
1.23599
0.337002
0.31732
0.316627
0.316603
0.316603
0.316603
0.316603
0.316604
0.316605
0.316608
0.316618
0.316645
0.316722
0.316935
0.31753
0.319207
0.323989
0.338706
0.388988
0.540106
0.773437
0.935777
1.16851
1.25043
1.28715
0.238844
0.573885
0.855989
1.03028
1.09226
1.13121
1.20245
1.22878
1.22987
1.22864
1.22719
1.21008
1.12884
1.02658
0.97769
0.968251
0.98139
1.02503
1.04388
1.03813
1.01597
1.00332
0.990038
0.971921
0.863344
0.261624
0.544724
0.853535
1.03476
1.08355
1.12373
1.19409
1.22485
1.2267
1.22577
1.2253
1.21439
1.14702
1.03843
0.977254
0.959851
0.966311
1.00269
1.03108
1.03027
1.01345
0.993355
0.973354
0.95436