/*--------------------------------*- C++ -*----------------------------------*\
| =========                 |                                                 |
| \\      /  F ield         | OpenFOAM: The Open Source CFD Toolbox           |
|  \\    /   O peration     | Version:  4.1                                   |
|   \\  /    A nd           | Web:      www.OpenFOAM.org                      |
|    \\/     M anipulation  |                                                 |
\*---------------------------------------------------------------------------*/
FoamFile
{
    version     2.0;
    format      ascii;
    class       volScalarField;
    location    "0.2";
    object      Ma;
}
// * * * * * * * * * * * * * * * * * * * * * * * * * * * * * * * * * * * * * //

dimensions      [0 0 0 0 0 0 0];

internalField   nonuniform List<scalar> 
18000
(
5.77877e-12
5.71156e-12
5.63448e-12
5.56885e-12
5.50415e-12
5.44026e-12
5.37731e-12
5.31525e-12
5.25408e-12
5.19436e-12
7.28099e-12
7.01572e-12
6.75237e-12
6.50916e-12
6.27673e-12
6.05433e-12
5.84157e-12
5.63785e-12
5.44269e-12
5.25759e-12
9.29521e-12
8.70774e-12
8.15632e-12
7.65316e-12
7.18752e-12
6.75609e-12
6.35628e-12
5.98506e-12
5.64028e-12
5.32181e-12
1.20399e-11
1.09304e-11
9.9366e-12
9.05426e-12
8.26635e-12
7.561e-12
6.92814e-12
6.35919e-12
5.84664e-12
5.3872e-12
1.5846e-11
1.38902e-11
1.22165e-11
1.07832e-11
9.55086e-12
8.48683e-12
7.56462e-12
6.76263e-12
6.0625e-12
5.45389e-12
2.1228e-11
1.78919e-11
1.517e-11
1.29341e-11
1.10887e-11
9.55558e-12
8.27451e-12
7.19795e-12
6.28835e-12
5.52146e-12
2.90061e-11
2.33932e-11
1.90422e-11
1.56333e-11
1.29409e-11
1.07942e-11
9.06785e-12
7.66827e-12
6.52486e-12
5.59018e-12
4.05265e-11
3.10919e-11
2.41859e-11
1.90508e-11
1.51849e-11
1.22352e-11
9.95719e-12
8.17798e-12
6.7736e-12
5.66188e-12
1.49845e-09
1.4335e-09
1.33947e-09
1.25667e-09
1.18333e-09
1.11794e-09
1.05929e-09
1.00642e-09
9.58521e-10
9.20135e-10
1.65529e-07
2.62943e-08
2.23211e-08
1.91835e-08
1.65984e-08
1.44442e-08
1.26313e-08
1.10922e-08
9.75526e-09
2.20395e-08
5.88421e-12
5.81346e-12
5.73631e-12
5.66792e-12
5.60076e-12
5.53477e-12
5.46952e-12
5.40561e-12
5.34261e-12
5.28097e-12
7.43547e-12
7.15808e-12
6.89257e-12
6.63982e-12
6.39886e-12
6.1686e-12
5.94887e-12
5.73888e-12
5.53817e-12
5.3466e-12
9.5121e-12
8.90093e-12
8.34381e-12
7.82175e-12
7.3397e-12
6.89393e-12
6.48144e-12
6.09909e-12
5.74441e-12
5.41407e-12
1.23546e-11
1.12039e-11
1.01938e-11
9.27711e-12
8.46029e-12
7.73049e-12
7.0769e-12
6.49045e-12
5.96245e-12
5.48351e-12
1.63154e-11
1.42892e-11
1.25762e-11
1.10825e-11
9.80164e-12
8.69812e-12
7.74364e-12
6.91516e-12
6.19301e-12
5.55523e-12
2.19484e-11
1.84878e-11
1.56807e-11
1.33411e-11
1.14163e-11
9.82142e-12
8.49205e-12
7.37739e-12
6.43706e-12
5.62915e-12
3.01415e-11
2.43047e-11
1.9778e-11
1.61927e-11
1.33724e-11
1.1131e-11
9.33373e-12
7.88062e-12
6.69519e-12
5.70546e-12
4.23751e-11
3.25176e-11
2.52627e-11
1.98292e-11
1.57585e-11
1.26645e-11
1.02836e-11
8.4292e-12
6.96866e-12
5.7843e-12
6.36004e-11
5.58814e-11
4.29506e-11
3.36128e-11
2.6801e-11
2.17226e-11
1.78634e-11
1.488e-11
1.25368e-11
1.0625e-11
9.56407e-08
1.62559e-08
1.40371e-08
1.22337e-08
1.07564e-08
9.5315e-09
8.50502e-09
7.63653e-09
6.89572e-09
6.33704e-09
4.02468e-13
3.77466e-13
2.00511e-13
1.81029e-13
1.62899e-13
1.46421e-13
1.31754e-13
1.19301e-13
1.08872e-13
9.46172e-14
5.5476e-13
4.81853e-13
4.09092e-13
3.58567e-13
3.12634e-13
2.71558e-13
2.35542e-13
2.05003e-13
1.80174e-13
1.19847e-13
6.33911e-13
5.26038e-13
5.53547e-13
4.8271e-13
4.21107e-13
3.68709e-13
3.2501e-13
2.89352e-13
2.60222e-13
1.52213e-13
7.92978e-13
6.9021e-13
7.98089e-13
6.88967e-13
5.96845e-13
5.20245e-13
4.56825e-13
4.04918e-13
3.61291e-13
1.97299e-13
1.06353e-12
1.02062e-12
1.15606e-12
9.79125e-13
8.33616e-13
7.15168e-13
6.18445e-13
5.39494e-13
4.72989e-13
2.47625e-13
1.51839e-12
1.58946e-12
1.67343e-12
1.37966e-12
1.14583e-12
9.60463e-13
8.12362e-13
6.93502e-13
5.94934e-13
3.02313e-13
2.27464e-12
2.50898e-12
2.42169e-12
1.93023e-12
1.55471e-12
1.2668e-12
1.04331e-12
8.68507e-13
7.27331e-13
3.60605e-13
3.54357e-12
3.97293e-12
3.51037e-12
2.68872e-12
2.08983e-12
1.64839e-12
1.31779e-12
1.06699e-12
8.70668e-13
4.22294e-13
4.22768e-11
6.20281e-12
5.02766e-12
3.6887e-12
2.76061e-12
2.10566e-12
1.6335e-12
1.28735e-12
1.0252e-12
4.90194e-13
8.37526e-08
4.00597e-10
2.84245e-10
2.15388e-10
1.66202e-10
1.30307e-10
1.0362e-10
8.34484e-11
6.79771e-11
5.57862e-11
3.87726e-13
3.62187e-13
1.72371e-13
1.51044e-13
1.30668e-13
1.11517e-13
9.36593e-14
7.73157e-14
6.28552e-14
3.66854e-14
5.33948e-13
4.60276e-13
3.86437e-13
3.35665e-13
2.89157e-13
2.47379e-13
2.10557e-13
1.79002e-13
1.53102e-13
7.95115e-14
5.9668e-13
4.88592e-13
5.24167e-13
4.54915e-13
3.94847e-13
3.4381e-13
3.01311e-13
2.67122e-13
2.39396e-13
1.20109e-13
7.2888e-13
6.3372e-13
7.61175e-13
6.56577e-13
5.68162e-13
4.9492e-13
4.34458e-13
3.8512e-13
3.4384e-13
1.7147e-13
9.54924e-13
9.42539e-13
1.10835e-12
9.40006e-13
8.0134e-13
6.88303e-13
5.96013e-13
5.20778e-13
4.57373e-13
2.25437e-13
1.33583e-12
1.48323e-12
1.61025e-12
1.33121e-12
1.10831e-12
9.31135e-13
7.89186e-13
6.7518e-13
5.80366e-13
2.82334e-13
1.96732e-12
2.36017e-12
2.33561e-12
1.86887e-12
1.51024e-12
1.23406e-12
1.01895e-12
8.50235e-13
7.13508e-13
3.42271e-13
3.01366e-12
3.75608e-12
3.38997e-12
2.60945e-12
2.0361e-12
1.61146e-12
1.29191e-12
1.04861e-12
8.57628e-13
4.05436e-13
4.42115e-11
6.0331e-12
4.93714e-12
3.63409e-12
2.72514e-12
2.08118e-12
1.61544e-12
1.27311e-12
1.01336e-12
4.71798e-13
8.8161e-08
1.47446e-10
8.02532e-12
5.43589e-12
3.88844e-12
2.84953e-12
2.13169e-12
1.6234e-12
1.25213e-12
6.16188e-13
3.87853e-13
3.6198e-13
1.72825e-13
1.51414e-13
1.3097e-13
1.11744e-13
9.39286e-14
7.75602e-14
6.29676e-14
3.68108e-14
5.34601e-13
4.60695e-13
3.87414e-13
3.36487e-13
2.89871e-13
2.47942e-13
2.10999e-13
1.79426e-13
1.53425e-13
7.97077e-14
5.98039e-13
4.89954e-13
5.2595e-13
4.5638e-13
3.95954e-13
3.44768e-13
3.02078e-13
2.67663e-13
2.39752e-13
1.20365e-13
7.31744e-13
6.36802e-13
7.64008e-13
6.58949e-13
5.70032e-13
4.96402e-13
4.3567e-13
3.86038e-13
3.44509e-13
1.71807e-13
9.60436e-13
9.48282e-13
1.1132e-12
9.43814e-13
8.04411e-13
6.90756e-13
5.97883e-13
5.22233e-13
4.58464e-13
2.26187e-13
1.34624e-12
1.49328e-12
1.61832e-12
1.33758e-12
1.11326e-12
9.35076e-13
7.92333e-13
6.77637e-13
5.82301e-13
2.83643e-13
1.98667e-12
2.37796e-12
2.34955e-12
1.87948e-12
1.51846e-12
1.2405e-12
1.02396e-12
8.54128e-13
7.16676e-13
3.44487e-13
3.04946e-12
3.78793e-12
3.41384e-12
2.62724e-12
2.04954e-12
1.62174e-12
1.29986e-12
1.05477e-12
8.62438e-13
4.08852e-13
4.42792e-11
6.09291e-12
4.97915e-12
3.66414e-12
2.74702e-12
2.09741e-12
1.62767e-12
1.28247e-12
1.02067e-12
4.76737e-13
9.01173e-08
1.49145e-10
7.41624e-12
5.05029e-12
3.64315e-12
2.68662e-12
2.01993e-12
1.54553e-12
1.19678e-12
5.54787e-13
3.87939e-13
3.61643e-13
1.73425e-13
1.51922e-13
1.31352e-13
1.12089e-13
9.41637e-14
7.78207e-14
6.31998e-14
3.68814e-14
5.35416e-13
4.61213e-13
3.88702e-13
3.37592e-13
2.90805e-13
2.48697e-13
2.11597e-13
1.79884e-13
1.53843e-13
8.00135e-14
5.99876e-13
4.9179e-13
5.28235e-13
4.58313e-13
3.97552e-13
3.4601e-13
3.03078e-13
2.6835e-13
2.40258e-13
1.20747e-13
7.35553e-13
6.40941e-13
7.67805e-13
6.6202e-13
5.72592e-13
4.98331e-13
4.37118e-13
3.87253e-13
3.45336e-13
1.72393e-13
9.67955e-13
9.5592e-13
1.11951e-12
9.48836e-13
8.08374e-13
6.93981e-13
6.00417e-13
5.24186e-13
4.59993e-13
2.27257e-13
1.36057e-12
1.50692e-12
1.62908e-12
1.34598e-12
1.11982e-12
9.40253e-13
7.96426e-13
6.8082e-13
5.84874e-13
2.85453e-13
2.01351e-12
2.4019e-12
2.36798e-12
1.89359e-12
1.52927e-12
1.24896e-12
1.0306e-12
8.59308e-13
7.20756e-13
3.47381e-13
3.0999e-12
3.83091e-12
3.44578e-12
2.65083e-12
2.06726e-12
1.63523e-12
1.31026e-12
1.06288e-12
8.68748e-13
4.13209e-13
4.45093e-11
6.1708e-12
5.03459e-12
3.70358e-12
2.77566e-12
2.11868e-12
1.64367e-12
1.29467e-12
1.03006e-12
4.83225e-13
9.00693e-08
1.50067e-10
7.50681e-12
5.11241e-12
3.687e-12
2.71824e-12
2.04324e-12
1.56309e-12
1.21013e-12
5.63773e-13
3.8801e-13
3.61307e-13
1.74122e-13
1.52549e-13
1.31922e-13
1.12561e-13
9.4557e-14
7.80655e-14
6.33992e-14
3.70788e-14
5.36443e-13
4.61901e-13
3.90283e-13
3.38898e-13
2.91949e-13
2.49717e-13
2.12442e-13
1.80525e-13
1.54176e-13
8.03078e-14
6.02147e-13
4.94013e-13
5.30991e-13
4.60626e-13
3.99468e-13
3.47584e-13
3.04249e-13
2.6925e-13
2.40907e-13
1.21141e-13
7.40242e-13
6.45967e-13
7.72415e-13
6.65757e-13
5.75642e-13
5.00826e-13
4.38973e-13
3.88637e-13
3.46481e-13
1.73147e-13
9.77218e-13
9.65294e-13
1.12719e-12
9.54964e-13
8.13229e-13
6.97912e-13
6.03523e-13
5.26565e-13
4.61848e-13
2.28625e-13
1.37819e-12
1.52338e-12
1.64214e-12
1.35621e-12
1.12789e-12
9.46621e-13
8.0149e-13
6.84788e-13
5.87963e-13
2.87701e-13
2.04666e-12
2.4311e-12
2.39043e-12
1.9108e-12
1.54255e-12
1.2593e-12
1.03876e-12
8.65663e-13
7.25787e-13
3.51003e-13
3.16235e-12
3.88331e-12
3.48493e-12
2.67982e-12
2.089e-12
1.65178e-12
1.32311e-12
1.0728e-12
8.76465e-13
4.18656e-13
4.59145e-11
6.26752e-12
5.10266e-12
3.75218e-12
2.81105e-12
2.14482e-12
1.66336e-12
1.30964e-12
1.04157e-12
4.91068e-13
9.76402e-08
1.57091e-10
7.62577e-12
5.1904e-12
3.74199e-12
2.7579e-12
2.07251e-12
1.58507e-12
1.22666e-12
5.74933e-13
3.88104e-13
3.60664e-13
1.7484e-13
1.53146e-13
1.32524e-13
1.13167e-13
9.52124e-14
7.92692e-14
7.50695e-14
1.42592e-13
5.37523e-13
4.62375e-13
3.91858e-13
3.40318e-13
2.93198e-13
2.50857e-13
2.13489e-13
1.81804e-13
1.57459e-13
1.22332e-13
6.04603e-13
4.96036e-13
5.33802e-13
4.6303e-13
4.01544e-13
3.494e-13
3.05893e-13
2.70683e-13
2.43161e-13
1.38923e-13
7.45431e-13
6.50684e-13
7.77029e-13
6.69598e-13
5.78797e-13
5.03526e-13
4.41447e-13
3.90756e-13
3.48882e-13
1.83235e-13
9.87366e-13
9.74231e-13
1.1348e-12
9.61176e-13
8.18273e-13
7.02057e-13
6.07214e-13
5.29823e-13
4.65055e-13
2.36354e-13
1.39719e-12
1.53932e-12
1.65497e-12
1.36648e-12
1.13605e-12
9.53379e-13
8.07337e-13
6.89893e-13
5.92535e-13
2.95201e-13
2.08163e-12
2.45942e-12
2.41237e-12
1.9279e-12
1.55604e-12
1.27019e-12
1.04791e-12
8.73618e-13
7.32423e-13
3.5913e-13
3.22622e-12
3.93353e-12
3.52281e-12
2.70865e-12
2.11115e-12
1.6691e-12
1.33719e-12
1.08483e-12
8.86422e-13
4.28271e-13
4.46315e-11
6.35229e-12
5.16826e-12
3.80025e-12
2.84692e-12
2.17216e-12
1.68474e-12
1.3271e-12
1.05605e-12
5.03063e-13
1.05201e-07
1.42866e-10
7.69953e-12
5.26684e-12
3.79753e-12
2.79917e-12
2.1039e-12
1.60999e-12
1.24708e-12
5.90443e-13
3.86796e-13
3.92666e-13
2.0637e-13
1.60401e-13
1.38646e-13
2.14537e-13
3.91148e-13
1.28098e-12
5.72485e-12
2.01877e-11
5.37653e-13
5.19137e-13
4.26717e-13
3.5338e-13
2.92949e-13
2.91861e-13
3.91328e-13
9.07144e-13
3.35586e-12
1.27333e-11
6.06355e-13
5.93807e-13
5.83555e-13
4.87065e-13
4.0376e-13
3.61416e-13
4.35162e-13
7.09997e-13
2.12963e-12
8.00305e-12
7.46645e-13
7.76869e-13
8.33713e-13
6.99248e-13
5.84217e-13
5.03483e-13
5.10341e-13
6.48803e-13
1.47966e-12
5.27455e-12
9.82992e-13
1.10593e-12
1.18999e-12
9.90264e-13
8.23987e-13
6.96751e-13
6.38393e-13
6.87439e-13
1.15361e-12
3.64462e-12
1.37716e-12
1.65292e-12
1.69784e-12
1.38674e-12
1.13635e-12
9.42786e-13
8.17129e-13
8.15269e-13
1.02136e-12
2.63398e-12
2.02823e-12
2.53081e-12
2.42793e-12
1.92859e-12
1.5433e-12
1.25083e-12
1.04305e-12
9.53085e-13
1.01381e-12
1.99014e-12
3.10515e-12
3.93113e-12
3.48942e-12
2.67504e-12
2.07585e-12
1.63555e-12
1.31958e-12
1.13083e-12
1.10755e-12
1.57676e-12
2.03682e-11
6.18595e-12
5.05521e-12
3.71315e-12
2.77681e-12
2.11703e-12
1.65335e-12
1.34878e-12
1.23218e-12
1.31669e-12
2.80486e-08
1.08138e-10
7.2312e-12
5.09774e-12
3.67585e-12
2.71284e-12
2.05326e-12
1.61042e-12
1.37257e-12
1.16752e-12
2.54024e-12
2.40167e-12
1.54112e-12
1.58394e-13
2.61631e-12
8.28197e-12
2.30914e-11
7.50757e-11
3.38458e-10
9.87199e-10
3.5763e-12
3.47304e-12
2.58347e-12
1.19062e-12
1.3077e-12
6.07998e-12
1.7467e-11
5.24584e-11
1.9992e-10
5.8006e-10
4.84259e-12
4.73902e-12
3.76706e-12
2.35986e-12
3.25848e-13
4.03725e-12
1.29244e-11
3.7666e-11
1.27918e-10
3.6289e-10
6.49806e-12
6.31946e-12
5.17277e-12
3.6654e-12
1.50221e-12
2.2534e-12
9.44581e-12
2.76648e-11
8.67682e-11
2.38114e-10
8.7015e-12
8.3261e-12
6.87175e-12
5.15426e-12
2.92074e-12
7.93188e-13
6.62828e-12
2.05088e-11
6.12686e-11
1.62453e-10
1.16911e-11
1.09177e-11
8.96199e-12
6.88218e-12
4.45358e-12
1.33251e-12
4.3074e-12
1.51338e-11
4.45035e-11
1.14457e-10
1.5832e-11
1.43316e-11
1.15777e-11
8.92461e-12
6.14585e-12
2.86575e-12
2.37519e-12
1.11392e-11
3.29515e-11
8.28071e-11
2.17106e-11
1.89142e-11
1.49059e-11
1.1382e-11
8.0466e-12
4.49799e-12
1.19614e-12
7.99042e-12
2.46207e-11
6.12189e-11
3.69575e-11
2.51995e-11
1.92184e-11
1.43845e-11
1.02223e-11
6.23126e-12
1.99394e-12
5.45181e-12
1.85084e-11
4.60494e-11
2.65799e-07
2.44232e-10
2.48808e-11
1.80882e-11
1.27374e-11
8.08711e-12
3.50393e-12
3.43045e-12
1.39269e-11
3.50736e-11
3.44369e-12
3.09643e-12
2.04854e-12
1.92164e-12
8.23658e-12
2.75404e-11
9.944e-11
5.00681e-10
1.922e-09
2.51322e-09
4.56938e-12
4.25655e-12
3.25312e-12
1.68954e-12
5.1585e-12
1.92444e-11
6.66565e-11
2.86882e-10
1.06166e-09
1.32905e-09
5.94174e-12
5.60342e-12
4.6101e-12
2.85303e-12
2.78293e-12
1.29792e-11
4.55415e-11
1.77596e-10
6.2773e-10
7.62266e-10
7.70292e-12
7.23721e-12
6.1527e-12
4.40464e-12
1.99082e-12
8.30013e-12
3.14768e-11
1.15955e-10
3.91036e-10
4.64439e-10
1.002e-11
9.27185e-12
7.95493e-12
6.12622e-12
3.26557e-12
4.74915e-12
2.16373e-11
7.84097e-11
2.54056e-10
2.9687e-10
1.31427e-11
1.18674e-11
1.01187e-11
8.04696e-12
5.12864e-12
2.50121e-12
1.44358e-11
5.40938e-11
1.70768e-10
1.97162e-10
1.74528e-11
1.52555e-11
1.27832e-11
1.02468e-11
7.1545e-12
2.89138e-12
9.13789e-12
3.76849e-11
1.17746e-10
1.35004e-10
2.35545e-11
1.9778e-11
1.61405e-11
1.28326e-11
9.34212e-12
4.84737e-12
5.15903e-12
2.61485e-11
8.27522e-11
9.47704e-11
5.06854e-11
2.59286e-11
2.04602e-11
1.59468e-11
1.17645e-11
7.05524e-12
2.70331e-12
1.78325e-11
5.89494e-11
6.77434e-11
4.69284e-08
2.42689e-09
2.62555e-11
1.97535e-11
1.44977e-11
9.337e-12
3.20355e-12
1.16837e-11
4.22999e-11
4.89357e-11
1.00538e-12
1.25992e-12
1.53735e-12
3.25237e-12
8.66766e-12
2.57621e-11
8.93077e-11
3.40507e-10
6.51036e-10
3.78761e-10
1.083e-12
1.25376e-12
1.39453e-12
2.4534e-12
6.13631e-12
1.78273e-11
5.8774e-11
2.08391e-10
3.64903e-10
2.48088e-10
1.16344e-12
1.2859e-12
1.37578e-12
1.97368e-12
4.38158e-12
1.24437e-11
3.96747e-11
1.32787e-10
2.15316e-10
1.59836e-10
1.24395e-12
1.34396e-12
1.43323e-12
1.76849e-12
3.22344e-12
8.7472e-12
2.72681e-11
8.73779e-11
1.32405e-10
1.0575e-10
1.32721e-12
1.41663e-12
1.52425e-12
1.73904e-12
2.52886e-12
6.21227e-12
1.90273e-11
5.90148e-11
8.41804e-11
7.25092e-11
1.41641e-12
1.5e-12
1.62695e-12
1.7987e-12
2.19082e-12
4.49113e-12
1.33938e-11
4.07684e-11
5.49644e-11
5.16002e-11
1.51548e-12
1.59233e-12
1.73329e-12
1.89578e-12
2.09086e-12
3.37967e-12
9.48407e-12
2.85357e-11
3.66699e-11
3.80446e-11
1.63096e-12
1.69514e-12
1.84229e-12
2.00413e-12
2.11841e-12
2.74036e-12
6.79149e-12
2.02185e-11
2.49187e-11
2.89697e-11
1.16186e-10
1.9562e-12
1.95493e-12
2.11615e-12
2.20338e-12
2.44355e-12
4.95539e-12
1.44697e-11
1.71198e-11
2.27034e-11
8.14077e-08
2.24747e-09
2.77112e-12
2.2236e-12
2.30364e-12
2.35504e-12
3.73631e-12
1.04318e-11
1.17664e-11
1.81625e-11
7.94917e-13
1.5084e-12
1.61013e-12
2.52085e-12
4.15425e-12
7.24333e-12
1.49852e-11
5.18179e-11
2.98548e-10
9.16298e-10
7.29585e-13
1.35514e-12
1.39668e-12
2.15293e-12
3.49046e-12
5.95641e-12
1.14335e-11
3.25344e-11
1.78846e-10
4.97313e-10
6.66718e-13
1.21179e-12
1.20291e-12
1.82953e-12
2.92635e-12
4.90127e-12
8.95488e-12
2.1856e-11
1.11432e-10
2.89721e-10
6.12949e-13
1.08988e-12
1.04191e-12
1.56535e-12
2.46986e-12
4.07347e-12
7.18338e-12
1.55961e-11
7.19066e-11
1.7831e-10
5.66829e-13
9.8565e-13
9.07198e-13
1.34552e-12
2.09812e-12
3.417e-12
5.86286e-12
1.1688e-11
4.77956e-11
1.14576e-10
5.27171e-13
8.96474e-13
7.94036e-13
1.16429e-12
1.79549e-12
2.88558e-12
4.8514e-12
9.08922e-12
3.25931e-11
7.62392e-11
4.92887e-13
8.19439e-13
6.98741e-13
1.01265e-12
1.54323e-12
2.452e-12
4.06206e-12
7.26256e-12
2.27333e-11
5.22159e-11
4.65304e-13
7.52556e-13
6.18073e-13
8.84613e-13
1.33413e-12
2.09801e-12
3.43041e-12
5.92889e-12
1.61746e-11
3.66441e-11
1.98147e-10
2.07623e-12
5.48527e-13
7.76863e-13
1.15978e-12
1.80559e-12
2.91728e-12
4.91889e-12
1.17173e-11
2.62625e-11
8.06394e-08
7.7343e-09
1.2522e-11
6.22177e-13
1.00842e-12
1.55505e-12
2.4882e-12
4.11892e-12
8.61286e-12
1.91487e-11
1.07094e-12
1.86398e-12
1.61529e-12
2.17608e-12
3.03322e-12
4.40179e-12
7.03483e-12
1.40256e-11
5.46687e-11
1.28237e-10
9.97531e-13
1.70919e-12
1.44832e-12
1.93944e-12
2.68109e-12
3.83005e-12
5.84712e-12
1.06149e-11
3.87763e-11
8.2437e-11
9.25973e-13
1.5604e-12
1.28727e-12
1.71386e-12
2.35469e-12
3.32985e-12
4.93038e-12
8.27392e-12
2.75026e-11
5.54163e-11
8.63737e-13
1.43097e-12
1.14883e-12
1.5194e-12
2.07627e-12
2.91227e-12
4.22887e-12
6.68311e-12
1.97054e-11
3.85587e-11
8.0966e-13
1.318e-12
1.02979e-12
1.35245e-12
1.83901e-12
2.56212e-12
3.6716e-12
5.56037e-12
1.42679e-11
2.75288e-11
7.62422e-13
1.21902e-12
9.26857e-13
1.20876e-12
1.63361e-12
2.26353e-12
3.21651e-12
4.73125e-12
1.04354e-11
2.00502e-11
7.20904e-13
1.13178e-12
8.37752e-13
1.08425e-12
1.45643e-12
2.00853e-12
2.83459e-12
4.09045e-12
7.70162e-12
1.48379e-11
6.8681e-13
1.0545e-12
7.60284e-13
9.76052e-13
1.30276e-12
1.78759e-12
2.50865e-12
3.57607e-12
5.73467e-12
1.11294e-11
2.98856e-10
3.61456e-12
6.92395e-13
8.81872e-13
1.16914e-12
1.59558e-12
2.23009e-12
3.15019e-12
4.30704e-12
8.43609e-12
9.91403e-08
1.37007e-08
3.06346e-11
7.29027e-13
1.04838e-12
1.42475e-12
1.98341e-12
2.78211e-12
3.2457e-12
6.43622e-12
1.49168e-12
2.36199e-12
1.6253e-12
1.90525e-12
2.28686e-12
2.83248e-12
3.81102e-12
6.00851e-12
1.6624e-11
2.39869e-11
1.41085e-12
2.21012e-12
1.50902e-12
1.77149e-12
2.12545e-12
2.60606e-12
3.37107e-12
4.91763e-12
1.27269e-11
1.85539e-11
1.33049e-12
2.05941e-12
1.38661e-12
1.6293e-12
1.95619e-12
2.38747e-12
3.0173e-12
4.13925e-12
9.63509e-12
1.43297e-11
1.25942e-12
1.92462e-12
1.27599e-12
1.49944e-12
1.80133e-12
2.1948e-12
2.73804e-12
3.59311e-12
7.30696e-12
1.11446e-11
1.19655e-12
1.80395e-12
1.17678e-12
1.38161e-12
1.66067e-12
2.02227e-12
2.50675e-12
3.19514e-12
5.54773e-12
8.7109e-12
1.14066e-12
1.69541e-12
1.08789e-12
1.27534e-12
1.53201e-12
1.86605e-12
2.30549e-12
2.88893e-12
4.21329e-12
6.83573e-12
1.09088e-12
1.59779e-12
1.00807e-12
1.17909e-12
1.41478e-12
1.7235e-12
2.12846e-12
2.6392e-12
3.19926e-12
5.37847e-12
1.04902e-12
1.50952e-12
9.36422e-13
1.09203e-12
1.30821e-12
1.59332e-12
1.96801e-12
2.42817e-12
2.42574e-12
4.23882e-12
4.0264e-10
5.35371e-12
8.72292e-13
1.01323e-12
1.21114e-12
1.47423e-12
1.82153e-12
2.24262e-12
1.83475e-12
3.34262e-12
7.97256e-08
1.90618e-08
4.88844e-11
9.00202e-13
1.11848e-12
1.36187e-12
1.68214e-12
2.06979e-12
1.37231e-12
2.62682e-12
2.11516e-12
3.00505e-12
1.5775e-12
1.60622e-12
1.66794e-12
1.79928e-12
2.14876e-12
2.97709e-12
6.82527e-12
8.35423e-12
2.02894e-12
2.86572e-12
1.51914e-12
1.56363e-12
1.63447e-12
1.74617e-12
1.99251e-12
2.56173e-12
5.52882e-12
6.98207e-12
1.94258e-12
2.72273e-12
1.44408e-12
1.50045e-12
1.58077e-12
1.68634e-12
1.8736e-12
2.26345e-12
4.36881e-12
5.7316e-12
1.86453e-12
2.59078e-12
1.3707e-12
1.43503e-12
1.52286e-12
1.62895e-12
1.78606e-12
2.06254e-12
3.43544e-12
4.70445e-12
1.79406e-12
2.46919e-12
1.30029e-12
1.37001e-12
1.46338e-12
1.57228e-12
1.71531e-12
1.92504e-12
2.68321e-12
3.86013e-12
1.73025e-12
2.35728e-12
1.23378e-12
1.30602e-12
1.40285e-12
1.51516e-12
1.65374e-12
1.82485e-12
2.07639e-12
3.16187e-12
1.67243e-12
2.25413e-12
1.17101e-12
1.24409e-12
1.3424e-12
1.45723e-12
1.59536e-12
1.74624e-12
1.58455e-12
2.58331e-12
1.62249e-12
2.15902e-12
1.11216e-12
1.1848e-12
1.28325e-12
1.39911e-12
1.53748e-12
1.67935e-12
1.1873e-12
2.10284e-12
5.10131e-10
7.05945e-12
1.05789e-12
1.12822e-12
1.22566e-12
1.34157e-12
1.48019e-12
1.61875e-12
8.67699e-13
1.7038e-12
2.32164e-08
2.20932e-08
1.1016e-10
9.97452e-13
1.16545e-12
1.2821e-12
1.41904e-12
1.55571e-12
5.99644e-13
1.36972e-12
2.97881e-12
3.74558e-12
1.39856e-12
1.21506e-12
1.06876e-12
1.00303e-12
1.13726e-12
1.54893e-12
3.43165e-12
3.80876e-12
2.8925e-12
3.63382e-12
1.40074e-12
1.2496e-12
1.12188e-12
1.03663e-12
1.08014e-12
1.34636e-12
2.94348e-12
3.38606e-12
2.80564e-12
3.51469e-12
1.38021e-12
1.25887e-12
1.15296e-12
1.0667e-12
1.05715e-12
1.20587e-12
2.42614e-12
2.91425e-12
2.72542e-12
3.40073e-12
1.3522e-12
1.25592e-12
1.17103e-12
1.09304e-12
1.05788e-12
1.12346e-12
1.98253e-12
2.5034e-12
2.65134e-12
3.29248e-12
1.32004e-12
1.24493e-12
1.17921e-12
1.11357e-12
1.06982e-12
1.08347e-12
1.60252e-12
2.14567e-12
2.58307e-12
3.18989e-12
1.285e-12
1.22769e-12
1.17904e-12
1.12727e-12
1.08519e-12
1.06967e-12
1.27637e-12
1.83421e-12
2.52008e-12
3.09298e-12
1.24845e-12
1.20608e-12
1.17231e-12
1.13424e-12
1.09943e-12
1.07001e-12
9.97384e-13
1.56329e-12
2.46465e-12
3.00158e-12
1.21136e-12
1.18149e-12
1.16041e-12
1.13502e-12
1.10958e-12
1.0768e-12
7.58944e-13
1.32873e-12
6.24071e-10
8.41363e-12
1.1755e-12
1.15487e-12
1.14465e-12
1.13063e-12
1.11515e-12
1.08559e-12
5.56535e-13
1.12718e-12
4.18246e-08
2.11808e-08
1.08643e-10
1.05821e-12
1.12201e-12
1.11967e-12
1.11321e-12
1.08955e-12
3.79364e-13
9.57584e-13
4.03794e-12
4.47418e-12
1.07294e-12
7.60248e-13
4.95129e-13
3.4888e-13
4.86433e-13
7.95758e-13
2.07255e-12
2.09488e-12
3.9577e-12
4.40377e-12
1.11921e-12
8.42682e-13
6.00668e-13
4.19351e-13
4.30267e-13
6.54231e-13
1.9052e-12
1.98608e-12
3.87813e-12
4.3261e-12
1.14293e-12
9.01132e-13
6.84831e-13
4.99134e-13
4.26734e-13
5.49222e-13
1.65958e-12
1.79071e-12
3.80288e-12
4.24761e-12
1.15504e-12
9.43849e-13
7.51695e-13
5.73982e-13
4.59341e-13
4.87323e-13
1.44031e-12
1.61401e-12
3.7318e-12
4.16997e-12
1.15893e-12
9.74851e-13
8.05477e-13
6.40679e-13
5.09646e-13
4.67699e-13
1.24514e-12
1.45418e-12
3.66537e-12
4.09379e-12
1.15627e-12
9.9661e-13
8.48354e-13
6.98683e-13
5.65082e-13
4.8032e-13
1.07278e-12
1.31049e-12
3.60292e-12
4.01946e-12
1.14873e-12
1.01072e-12
8.81586e-13
7.47704e-13
6.19297e-13
5.12606e-13
9.22358e-13
1.18234e-12
3.54689e-12
3.94756e-12
1.13749e-12
1.01876e-12
9.07109e-13
7.88506e-13
6.69107e-13
5.54457e-13
7.92889e-13
1.06878e-12
7.30027e-10
9.28244e-12
1.125e-12
1.02182e-12
9.26396e-13
8.22257e-13
7.13233e-13
5.99206e-13
6.84559e-13
9.69497e-13
1.1317e-07
1.55862e-08
1.00741e-10
1.01874e-12
9.37517e-13
8.47908e-13
7.50162e-13
6.40526e-13
5.96607e-13
8.88918e-13
5.08873e-12
5.04466e-12
7.47476e-13
4.98915e-13
2.71964e-13
1.53448e-13
2.67796e-13
4.55214e-13
1.48947e-12
1.35135e-12
5.01843e-12
5.01965e-12
7.73383e-13
5.36451e-13
3.10622e-13
1.2464e-13
1.64454e-13
3.51224e-13
1.48034e-12
1.37399e-12
4.95097e-12
4.99033e-12
7.92099e-13
5.72663e-13
3.60253e-13
1.61894e-13
7.71078e-14
2.53192e-13
1.37331e-12
1.29929e-12
4.88569e-12
4.95609e-12
8.07326e-13
6.05833e-13
4.0997e-13
2.19783e-13
4.49014e-14
1.63391e-13
1.27582e-12
1.23024e-12
4.82334e-12
4.91897e-12
8.19516e-13
6.36041e-13
4.57136e-13
2.80179e-13
1.07699e-13
8.61969e-14
1.18685e-12
1.16616e-12
4.76374e-12
4.87972e-12
8.2853e-13
6.6228e-13
4.99994e-13
3.36928e-13
1.75799e-13
4.9911e-14
1.10629e-12
1.10742e-12
4.70694e-12
4.83931e-12
8.34599e-13
6.84672e-13
5.38219e-13
3.88863e-13
2.38771e-13
9.31451e-14
1.03425e-12
1.05371e-12
4.65557e-12
4.79857e-12
8.37732e-13
7.0319e-13
5.71593e-13
4.35304e-13
2.95959e-13
1.53114e-13
9.70157e-13
1.00509e-12
8.12847e-10
9.6612e-12
8.40498e-13
7.18379e-13
6.00697e-13
4.76702e-13
3.48115e-13
2.1161e-13
9.14117e-13
9.61211e-13
1.77971e-07
7.99772e-09
6.63799e-11
7.67567e-13
6.25115e-13
5.13266e-13
3.95237e-13
2.66889e-13
8.65904e-13
9.3072e-13
5.77678e-12
5.34111e-12
6.55215e-13
6.08563e-13
5.10878e-13
4.41803e-13
4.00457e-13
3.94904e-13
1.24784e-12
1.03789e-12
5.71355e-12
5.34649e-12
5.8559e-13
5.47947e-13
4.58378e-13
3.93955e-13
3.5507e-13
3.53924e-13
1.31274e-12
1.11747e-12
5.65531e-12
5.35135e-12
5.24191e-13
4.93597e-13
4.11124e-13
3.49585e-13
3.12103e-13
3.11845e-13
1.27042e-12
1.09446e-12
5.59846e-12
5.34987e-12
4.74388e-13
4.47915e-13
3.71014e-13
3.11679e-13
2.73747e-13
2.7312e-13
1.23016e-12
1.072e-12
5.54347e-12
5.34357e-12
4.35667e-13
4.11219e-13
3.39269e-13
2.80799e-13
2.40793e-13
2.37754e-13
1.19186e-12
1.05083e-12
5.49079e-12
5.33379e-12
4.06702e-13
3.82362e-13
3.14422e-13
2.56397e-13
2.13665e-13
2.06733e-13
1.15549e-12
1.03034e-12
5.43986e-12
5.32098e-12
3.85157e-13
3.60139e-13
2.96258e-13
2.38987e-13
1.93292e-13
1.79848e-13
1.12091e-12
1.01111e-12
5.39369e-12
5.30617e-12
3.69933e-13
3.43523e-13
2.83826e-13
2.27477e-13
1.78755e-13
1.58321e-13
1.08826e-12
9.92385e-13
8.58188e-10
9.64562e-12
3.62646e-13
3.31804e-13
2.76155e-13
2.21732e-13
1.71484e-13
1.43066e-13
1.05689e-12
9.74491e-13
2.17954e-07
5.47373e-09
4.71018e-11
3.11592e-13
2.74074e-13
2.23774e-13
1.74897e-13
1.42108e-13
1.02841e-12
9.82723e-13
5.78312e-12
5.31171e-12
6.63129e-13
6.3442e-13
5.40512e-13
4.66496e-13
4.12027e-13
3.87798e-13
1.17803e-12
9.90512e-13
5.71968e-12
5.31935e-12
5.78105e-13
5.6478e-13
4.8395e-13
4.19377e-13
3.71776e-13
3.54726e-13
1.25298e-12
1.07393e-12
5.66169e-12
5.32705e-12
5.0177e-13
5.00687e-13
4.30868e-13
3.73927e-13
3.31719e-13
3.18301e-13
1.2187e-12
1.0545e-12
5.60519e-12
5.3283e-12
4.36945e-13
4.44248e-13
3.83516e-13
3.32979e-13
2.95053e-13
2.84645e-13
1.18588e-12
1.03567e-12
5.55076e-12
5.32486e-12
3.83931e-13
3.96404e-13
3.42874e-13
2.96981e-13
2.62071e-13
2.53365e-13
1.15436e-12
1.01785e-12
5.49838e-12
5.31768e-12
3.41641e-13
3.56279e-13
3.08502e-13
2.6621e-13
2.32903e-13
2.24625e-13
1.12431e-12
1.00087e-12
5.44787e-12
5.3073e-12
3.08912e-13
3.2304e-13
2.79967e-13
2.40349e-13
2.07932e-13
1.98928e-13
1.09544e-12
9.8471e-13
5.4022e-12
5.29495e-12
2.84951e-13
2.96379e-13
2.57004e-13
2.19425e-13
1.86939e-13
1.76344e-13
1.06799e-12
9.69245e-13
8.58189e-10
9.64111e-12
2.7214e-13
2.75581e-13
2.39388e-13
2.03716e-13
1.71291e-13
1.57652e-13
1.0414e-12
9.54453e-13
2.17954e-07
5.47373e-09
4.70795e-11
2.25779e-13
2.28478e-13
1.96522e-13
1.65778e-13
1.50561e-13
1.01707e-12
9.75572e-13
5.09866e-12
4.96471e-12
7.06014e-13
5.15242e-13
3.33091e-13
2.28584e-13
2.62965e-13
3.92263e-13
1.24918e-12
1.19556e-12
5.03002e-12
4.94813e-12
7.08191e-13
5.21761e-13
3.35792e-13
1.94864e-13
1.8296e-13
3.07381e-13
1.27345e-12
1.23021e-12
4.96459e-12
4.92771e-12
7.12703e-13
5.36215e-13
3.56435e-13
1.97683e-13
1.18944e-13
2.22846e-13
1.1955e-12
1.16837e-12
4.90141e-12
4.90197e-12
7.19036e-13
5.53994e-13
3.8489e-13
2.24353e-13
9.02321e-14
1.44158e-13
1.12423e-12
1.11135e-12
4.84094e-12
4.87309e-12
7.26397e-13
5.73631e-13
4.17081e-13
2.63343e-13
1.14234e-13
7.34381e-14
1.05932e-12
1.05914e-12
4.78302e-12
4.84145e-12
7.33498e-13
5.93233e-13
4.49787e-13
3.05887e-13
1.61378e-13
3.01975e-14
1.00111e-12
1.01191e-12
4.72784e-12
4.80821e-12
7.39459e-13
6.1143e-13
4.81008e-13
3.47912e-13
2.1228e-13
7.18247e-14
9.49202e-13
9.69347e-13
4.67795e-12
4.77391e-12
7.44006e-13
6.27793e-13
5.09867e-13
3.875e-13
2.61366e-13
1.27676e-13
9.03269e-13
9.31219e-13
8.12849e-10
9.65369e-12
7.48842e-13
6.42137e-13
5.36061e-13
4.24335e-13
3.07555e-13
1.81451e-13
8.63452e-13
8.97767e-13
1.77971e-07
7.99772e-09
6.63392e-11
6.86303e-13
5.58917e-13
4.57735e-13
3.50557e-13
2.33229e-13
8.29834e-13
8.87645e-13
4.04401e-12
4.37238e-12
9.47482e-13
6.54589e-13
3.9444e-13
2.16998e-13
3.33859e-13
6.09161e-13
1.54158e-12
1.7586e-12
3.96976e-12
4.3183e-12
9.9572e-13
7.33364e-13
4.98225e-13
3.05992e-13
2.92361e-13
4.95002e-13
1.45162e-12
1.68267e-12
3.89576e-12
4.25559e-12
1.02567e-12
7.93947e-13
5.83898e-13
3.96756e-13
3.05113e-13
4.08396e-13
1.27368e-12
1.51989e-12
3.82479e-12
4.19057e-12
1.04506e-12
8.40387e-13
6.53132e-13
4.77206e-13
3.51775e-13
3.61351e-13
1.11394e-12
1.37254e-12
3.75765e-12
4.12498e-12
1.05687e-12
8.76675e-13
7.10247e-13
5.47925e-13
4.12013e-13
3.55364e-13
9.71857e-13
1.23998e-12
3.69419e-12
4.05951e-12
1.06214e-12
9.03898e-13
7.56951e-13
6.09398e-13
4.74171e-13
3.79654e-13
8.47195e-13
1.12176e-12
3.63435e-12
3.9948e-12
1.06246e-12
9.2395e-13
7.94685e-13
6.61808e-13
5.32796e-13
4.2113e-13
7.39465e-13
1.01721e-12
3.58048e-12
3.93146e-12
1.05843e-12
9.37899e-13
8.25e-13
7.06263e-13
5.86308e-13
4.69363e-13
6.49336e-13
9.25808e-13
7.3003e-10
9.2819e-12
1.05272e-12
9.47099e-13
8.49069e-13
7.43767e-13
6.33961e-13
5.18666e-13
5.76649e-13
8.47451e-13
1.1317e-07
1.55862e-08
1.00711e-10
9.5132e-13
8.65298e-13
7.73429e-13
6.74177e-13
5.63967e-13
5.21511e-13
7.90708e-13
2.98654e-12
3.65497e-12
1.2398e-12
1.03734e-12
8.77483e-13
7.89043e-13
8.65423e-13
1.16426e-12
2.27042e-12
3.04549e-12
2.90982e-12
3.56564e-12
1.26318e-12
1.09118e-12
9.48213e-13
8.45825e-13
8.50762e-13
1.03586e-12
1.98323e-12
2.73004e-12
2.83028e-12
3.46532e-12
1.26231e-12
1.11911e-12
9.96934e-13
8.95623e-13
8.58703e-13
9.49932e-13
1.63656e-12
2.35083e-12
2.75565e-12
3.36719e-12
1.25179e-12
1.13332e-12
1.03099e-12
9.38242e-13
8.81927e-13
9.07817e-13
1.33345e-12
2.01924e-12
2.68578e-12
3.272e-12
1.23479e-12
1.13798e-12
1.05394e-12
9.73102e-13
9.11923e-13
8.96671e-13
1.07073e-12
1.72958e-12
2.62071e-12
3.1806e-12
1.21329e-12
1.13493e-12
1.06766e-12
1.00006e-12
9.421e-13
9.04262e-13
8.42789e-13
1.47706e-12
2.56014e-12
3.09287e-12
1.18846e-12
1.12614e-12
1.0737e-12
1.01911e-12
9.68493e-13
9.21261e-13
6.45359e-13
1.25803e-12
2.50641e-12
3.00934e-12
1.16155e-12
1.11296e-12
1.07371e-12
1.0314e-12
9.89802e-13
9.41611e-13
4.74995e-13
1.06919e-12
6.24074e-10
8.42233e-12
1.13438e-12
1.0966e-12
1.06871e-12
1.03788e-12
1.00613e-12
9.61763e-13
3.30859e-13
9.08112e-13
4.18246e-08
2.11808e-08
1.08623e-10
1.01391e-12
1.0561e-12
1.03711e-12
1.0142e-12
9.76108e-13
2.02835e-13
7.75712e-13
2.13529e-12
2.94699e-12
1.42191e-12
1.3877e-12
1.38959e-12
1.44689e-12
1.64868e-12
2.144e-12
3.94367e-12
6.2506e-12
2.05845e-12
2.83224e-12
1.39649e-12
1.38269e-12
1.39719e-12
1.44588e-12
1.58657e-12
1.92578e-12
3.26902e-12
5.27666e-12
1.97813e-12
2.70765e-12
1.34895e-12
1.35206e-12
1.37927e-12
1.42876e-12
1.53568e-12
1.76648e-12
2.60583e-12
4.34582e-12
1.90415e-12
2.59016e-12
1.29802e-12
1.31423e-12
1.35249e-12
1.40719e-12
1.49922e-12
1.66196e-12
2.06082e-12
3.57455e-12
1.83653e-12
2.48003e-12
1.24607e-12
1.27253e-12
1.32012e-12
1.38112e-12
1.4691e-12
1.59287e-12
1.6149e-12
2.93506e-12