/*--------------------------------*- C++ -*----------------------------------*\
| =========                 |                                                 |
| \\      /  F ield         | OpenFOAM: The Open Source CFD Toolbox           |
|  \\    /   O peration     | Version:  4.1                                   |
|   \\  /    A nd           | Web:      www.OpenFOAM.org                      |
|    \\/     M anipulation  |                                                 |
\*---------------------------------------------------------------------------*/
FoamFile
{
    version     2.0;
    format      ascii;
    class       surfaceScalarField;
    location    "0.2";
    object      phi;
}
// * * * * * * * * * * * * * * * * * * * * * * * * * * * * * * * * * * * * * //

dimensions      [1 0 -1 0 0 0 0];

internalField   nonuniform List<scalar> 
51500
(
3.70158e-13
9.70541e-15
1.55618e-11
-2.07768e-15
1.73116e-14
1.53804e-11
-2.05905e-15
1.66121e-14
1.52014e-11
-2.0755e-15
1.57411e-14
1.50245e-11
-2.02509e-15
1.47846e-14
1.48501e-11
-2.01061e-15
1.37684e-14
1.46779e-11
-2.01516e-15
1.27157e-14
1.45081e-11
-1.98517e-15
1.16421e-14
1.43407e-11
-1.95821e-15
1.05393e-14
1.41757e-11
9.41789e-15
1.40145e-11
-7.26415e-17
3.76119e-13
6.93338e-15
1.96203e-11
-9.34227e-15
9.45458e-15
1.89043e-11
-7.84269e-15
8.25766e-15
1.82191e-11
-7.68761e-15
7.12985e-15
1.75629e-11
-7.47686e-15
5.87946e-15
1.69357e-11
-7.28199e-15
4.71282e-15
1.63355e-11
-7.09026e-15
3.61207e-15
1.57614e-11
-6.9123e-15
2.58329e-15
1.52116e-11
-6.61084e-15
1.61245e-15
1.46849e-11
7.06945e-16
1.41853e-11
-7.30535e-16
3.80172e-13
8.68657e-15
2.50618e-11
-1.89628e-14
9.34841e-15
2.34768e-11
-1.53157e-14
7.77672e-15
2.201e-11
-1.46498e-14
6.3591e-15
2.06519e-11
-1.39792e-14
5.08424e-15
1.93951e-11
-1.34059e-14
3.93274e-15
1.82306e-11
-1.28198e-14
2.89938e-15
1.71515e-11
-1.23074e-14
1.9652e-15
1.61495e-11
-1.15425e-14
1.13221e-15
1.52188e-11
4.12583e-16
1.4359e-11
-1.40838e-15
3.80997e-13
1.10946e-14
3.24764e-11
-3.18685e-14
1.12169e-14
2.9483e-11
-2.48764e-14
9.10495e-15
2.68175e-11
-2.32828e-14
7.26561e-15
2.44355e-11
-2.18001e-14
5.67885e-15
2.23085e-11
-2.04525e-14
4.30472e-15
2.04044e-11
-1.92144e-14
3.11359e-15
1.86959e-11
-1.80767e-14
2.07402e-15
1.71601e-11
-1.6672e-14
1.17095e-15
1.57764e-11
4.13077e-16
1.45358e-11
-2.14802e-15
3.75789e-13
1.44508e-14
4.27598e-11
-4.91549e-14
1.36525e-14
3.74827e-11
-3.73021e-14
1.07548e-14
3.29754e-11
-3.40473e-14
8.35883e-15
2.91055e-11
-3.11493e-14
6.37636e-15
2.5778e-11
-2.85882e-14
4.72866e-15
2.29052e-11
-2.63482e-14
3.34417e-15
2.04153e-11
-2.43377e-14
2.18609e-15
1.82501e-11
-2.20565e-14
1.21547e-15
1.636e-11
4.29161e-16
1.47163e-11
-2.90588e-15
3.59878e-13
1.92656e-14
5.73032e-11
-7.88145e-14
1.68875e-14
4.83e-11
-5.35293e-14
1.2865e-14
4.09548e-11
-4.75262e-14
9.69225e-15
3.49161e-11
-4.23897e-14
7.19501e-15
2.99328e-11
-3.80616e-14
5.19993e-15
2.57926e-11
-3.43141e-14
3.60202e-15
2.23335e-11
-3.10818e-14
2.307e-15
1.94267e-11
-2.76724e-14
1.25973e-15
1.69708e-11
4.31261e-16
1.48994e-11
-3.7225e-15
3.24103e-13
2.13029e-14
7.83252e-11
-1.35738e-13
2.78292e-14
6.31743e-11
-7.50948e-14
2.54226e-14
5.14184e-11
-6.45851e-14
1.90648e-14
4.22099e-11
-5.60394e-14
1.30803e-14
3.49376e-11
-4.90284e-14
7.31454e-15
2.91398e-11
-4.32423e-14
5.04183e-15
2.44776e-11
-3.83779e-14
3.27353e-15
2.06982e-11
-3.35798e-14
1.87874e-15
1.76106e-11
7.65978e-16
1.50856e-11
-4.55625e-15
2.52306e-13
-6.843e-15
1.09472e-10
-2.03394e-13
-1.14901e-14
8.39985e-11
-1.04027e-13
-2.11134e-14
6.5324e-11
-8.63723e-14
-2.77257e-14
5.14482e-11
-7.26007e-14
-3.23731e-14
4.10031e-11
-6.18336e-14
-3.56938e-14
3.30341e-11
-5.32019e-14
-3.8091e-14
2.68802e-11
-4.6218e-14
-3.98543e-14
2.20741e-11
-3.96979e-14
-4.11662e-14
1.82805e-11
-4.24723e-14
1.52758e-11
-5.44963e-15
1.26474e-12
-2.76073e-10
1.55744e-10
7.33494e-13
-2.84246e-10
1.12668e-10
6.66776e-13
-2.84301e-10
8.34779e-11
6.06699e-13
-2.84253e-10
6.31375e-11
5.52644e-13
-2.84158e-10
4.87168e-11
5.04413e-13
-2.84033e-10
3.83184e-11
4.61503e-13
-2.83889e-10
3.07092e-11
4.23354e-13
-2.83735e-10
2.50682e-11
3.88522e-13
-2.83577e-10
2.08366e-11
-2.8503e-10
1.76676e-11
-6.3827e-15
-2.15647e-11
5.05682e-08
-8.99842e-07
1.12602e-10
4.22209e-08
-9.3864e-07
1.09213e-10
3.64786e-08
-9.40264e-07
1.05523e-10
3.18219e-08
-9.41605e-07
1.0171e-10
2.79941e-08
-9.42748e-07
9.79149e-11
2.48115e-08
-9.43736e-07
9.42206e-11
2.21381e-08
-9.44599e-07
9.07361e-11
1.98715e-08
-9.4536e-07
7.53684e-11
1.79341e-08
-9.46046e-07
1.63529e-08
-7.35154e-15
-9.58025e-07
3.44436e-13
9.39415e-14
2.12702e-13
-2.0937e-14
8.82821e-14
2.08683e-13
-2.61673e-14
7.77122e-14
2.05014e-13
-2.57049e-14
6.74826e-14
2.00396e-13
-2.54272e-14
5.76085e-14
1.96254e-13
-2.51764e-14
4.80684e-14
1.9266e-13
-2.50107e-14
3.88553e-14
1.88511e-13
-2.47945e-14
2.99594e-14
1.85162e-13
-2.69962e-14
2.13496e-14
1.81711e-13
1.30971e-14
1.78171e-13
-1.56992e-15
2.83124e-13
8.97059e-14
2.98458e-13
-7.5763e-14
8.12432e-14
2.82628e-13
-8.94596e-14
6.87678e-14
2.6842e-13
-8.66102e-14
5.69161e-14
2.53191e-13
-8.41676e-14
4.56225e-14
2.39314e-13
-8.17753e-14
3.44732e-14
2.26086e-13
-7.95056e-14
2.22686e-14
2.14066e-13
-7.76018e-14
1.44645e-14
2.02878e-13
-8.25447e-14
7.97983e-15
1.9268e-13
2.63195e-15
1.8223e-13
-4.34982e-15
1.90837e-13
1.13525e-13
4.24349e-13
-1.91833e-13
1.00573e-13
3.86474e-13
-1.71064e-13
8.38524e-14
3.54823e-13
-1.62409e-13
6.86401e-14
3.22e-13
-1.54594e-13
5.49232e-14
2.93156e-13
-1.4724e-13
4.25542e-14
2.67496e-13
-1.4038e-13
3.14031e-14
2.44341e-13
-1.3422e-13
2.13745e-14
2.23616e-13
-1.40552e-13
1.23618e-14
2.04855e-13
4.31161e-15
1.87403e-13
-7.16788e-15
6.43764e-14
1.40333e-13
6.17001e-13
-3.30445e-13
1.2076e-13
5.39994e-13
-2.76588e-13
9.82549e-14
4.76009e-13
-2.56661e-13
7.85636e-14
4.1494e-13
-2.39035e-13
6.1437e-14
3.63169e-13
-2.22985e-13
4.6562e-14
3.18878e-13
-2.08246e-13
3.36585e-14
2.80912e-13
-1.95211e-13
2.2461e-14
2.48467e-13
-2.0056e-13
1.27312e-14
2.19505e-13
4.36865e-15
1.93175e-13
-1.01199e-14
-7.00917e-14
1.75608e-13
9.19485e-13
-5.081e-13
1.46488e-13
7.7004e-13
-4.12892e-13
1.1603e-13
6.4913e-13
-3.73979e-13
9.04059e-14
5.41203e-13
-3.40263e-13
6.89934e-14
4.54551e-13
-3.10375e-13
5.10872e-14
3.83504e-13
-2.83786e-13
3.61083e-14
3.2507e-13
-2.60848e-13
2.35855e-14
2.76752e-13
-2.62785e-13
1.31193e-14
2.3652e-13
4.40871e-15
1.99932e-13
-1.32481e-14
-2.72728e-13
2.22769e-13
1.40822e-12
-7.42332e-13
1.79703e-13
1.11886e-12
-5.89475e-13
1.38145e-13
8.97715e-13
-5.19992e-13
1.04682e-13
7.13883e-13
-4.61551e-13
7.77995e-14
5.7341e-13
-4.11302e-13
5.61811e-14
4.64172e-13
-3.67877e-13
3.88019e-14
3.78538e-13
-3.31119e-13
2.48002e-14
3.10861e-13
-3.27457e-13
1.35308e-14
2.56435e-13
4.44562e-15
2.08276e-13
-1.63339e-14
-7.12558e-13
2.85316e-13
2.21467e-12
-1.05645e-12
2.22441e-13
1.66384e-12
-8.1853e-13
1.65566e-13
1.26088e-12
-7.02038e-13
1.217e-13
9.51889e-13
-6.06944e-13
8.79395e-14
7.29402e-13
-5.2764e-13
6.19085e-14
5.65272e-13
-4.61332e-13
4.17622e-14
4.42654e-13
-4.06316e-13
2.61634e-14
3.50533e-13
-3.94678e-13
1.40436e-14
2.78601e-13
4.69843e-15
2.1796e-13
-1.94521e-14
-1.28687e-12
4.4936e-13
3.59643e-12
-1.48251e-12
2.45791e-13
2.53075e-12
-1.11665e-12
1.74068e-13
1.80001e-12
-9.2903e-13
1.22665e-13
1.28557e-12
-7.80873e-13
8.54202e-14
9.36581e-13
-6.61754e-13
5.81391e-14
6.92942e-13
-5.64924e-13
3.79851e-14
5.20783e-13
-4.86968e-13
2.29863e-14
3.96137e-13
-4.64219e-13
1.17594e-14
3.04364e-13
3.37665e-15
2.28629e-13
-2.26882e-14
-2.1555e-12
9.40811e-12
6.18121e-12
-2.04661e-12
1.32628e-12
3.63139e-12
-1.47877e-12
7.10493e-13
2.39378e-12
-1.19673e-12
1.68884e-13
1.60464e-12
-9.8132e-13
-3.26948e-13
1.11113e-12
-8.13264e-13
-7.82225e-13
7.91651e-13
-6.80628e-13
-1.20151e-12
5.80099e-13
-5.76525e-13
-1.58871e-12
4.36959e-13
-5.43913e-13
-1.94722e-12
3.36908e-13
-2.26496e-12
2.55942e-13
-2.59805e-14
-2.53998e-10
2.35857e-09
3.44972e-08
-1.30331e-10
7.50611e-10
-7.11407e-10
-1.24598e-10
5.52428e-10
-7.11623e-10
-1.17636e-10
4.18033e-10
-6.87933e-10
-1.11361e-10
3.22335e-10
-6.64751e-10
-1.05683e-10
2.52755e-10
-6.42964e-10
-1.00525e-10
2.01247e-10
-6.2289e-10
-9.58224e-11
1.62503e-10
-6.04647e-10
-9.15863e-11
1.32931e-10
-5.88647e-10
1.09444e-10
-2.94554e-14
-5.41645e-10
3.48382e-13
8.15505e-14
1.12243e-14
-1.80984e-14
7.74438e-14
9.71608e-15
-2.09365e-14
6.83397e-14
8.39633e-15
-1.97754e-14
5.95336e-14
6.81962e-15
-1.8968e-14
5.10248e-14
5.37894e-15
-1.95163e-14
4.27741e-14
3.77126e-15
-1.86592e-14
3.48324e-14
2.90792e-15
-1.89626e-14
2.71407e-14
2.3324e-15
-2.33469e-14
1.97049e-14
1.6035e-15
1.25719e-14
1.52052e-15
-1.42139e-15
2.97293e-13
5.84986e-14
1.82654e-14
-6.58495e-14
5.37612e-14
1.60141e-14
-6.93254e-14
4.55425e-14
1.59223e-14
-6.55364e-14
3.77704e-14
1.264e-14
-6.3998e-14
3.05141e-14
9.99021e-15
-6.14166e-14
2.37965e-14
8.06364e-15
-5.97101e-14
1.75838e-14
6.16368e-15
-5.90833e-14
1.19109e-14
4.69689e-15
-7.12306e-14
6.79866e-15
4.08015e-15
2.36995e-15
2.89766e-15
-4.40663e-15
2.19505e-13
7.46347e-14
2.66357e-14
-1.65652e-13
6.73762e-14
2.46531e-14
-1.30993e-13
5.6592e-14
2.53295e-14
-1.20792e-13
4.67372e-14
2.09773e-14
-1.14191e-13
3.77814e-14
1.72116e-14
-1.07769e-13
2.96063e-14
1.36398e-14
-1.01876e-13
2.21668e-14
1.15426e-14
-1.01591e-13
1.55962e-14
9.71928e-15
-1.21118e-13
9.27939e-15
8.11188e-15
3.30645e-15
6.0827e-15
-7.27998e-15
9.77146e-14
9.2683e-14
4.34637e-14
-2.88889e-13
8.11072e-14
4.25936e-14
-2.05179e-13
6.64841e-14
4.33441e-14
-1.82735e-13
5.36116e-14
3.53025e-14
-1.69901e-13
4.23813e-14
2.92388e-14
-1.5825e-13
3.25261e-14
2.43678e-14
-1.46608e-13
2.38978e-14
2.0533e-14
-1.45788e-13
1.62303e-14
1.73839e-14
-1.72871e-13
9.60454e-15
1.5418e-14
3.37919e-15
1.0669e-14
-1.03431e-14
-1.90643e-14
1.16708e-13
7.53051e-14
-4.45039e-13
9.86186e-14
7.51974e-14
-2.93586e-13
7.86641e-14
7.26606e-14
-2.61386e-13
6.18147e-14
5.96775e-14
-2.37854e-13
4.76688e-14
4.87307e-14
-2.16518e-13
3.57776e-14
4.03939e-14
-1.97562e-13
2.57635e-14
3.40942e-14
-1.85587e-13
1.75693e-14
2.93551e-14
-2.26578e-13
1.00497e-14
2.54328e-14
3.47919e-15
1.71974e-14
-1.33511e-14
-1.5415e-13
1.49108e-13
1.32954e-13
-6.4939e-13
1.21564e-13
1.33673e-13
-4.11362e-13
9.39355e-14
1.21638e-13
-3.59097e-13
7.17315e-14
9.76804e-14
-3.18587e-13
5.38832e-14
7.8974e-14
-2.83507e-13
3.94197e-14
6.44758e-14
-2.53094e-13
2.77042e-14
5.35464e-14
-2.30864e-13
1.85739e-14
4.5261e-14
-2.82368e-13
1.03474e-14
3.8099e-14
3.50962e-15
2.56055e-14
-1.65334e-14
-5.63889e-13
1.9371e-13
2.35963e-13
-9.22217e-13
1.51592e-13
2.34111e-13
-5.63893e-13
1.13196e-13
2.00596e-13
-4.80112e-13
8.38153e-14
1.56646e-13
-4.14843e-13
6.11931e-14
1.23457e-13
-3.60163e-13
4.36582e-14
9.86506e-14
-3.1417e-13
3.00872e-14
8.03672e-14
-2.7966e-13
1.95389e-14
6.58888e-14
-3.40217e-13
1.07488e-14
5.49384e-14
3.64187e-15
3.58073e-14
-1.97453e-14
-1.0888e-12
3.0164e-13
4.23834e-13
-1.28941e-12
2.57848e-13
4.0701e-13
-7.6275e-13
1.89285e-13
3.28073e-13
-6.30899e-13
1.34075e-13
2.4585e-13
-5.29631e-13
9.40703e-14
1.87978e-13
-4.47913e-13
6.47639e-14
1.4628e-13
-3.82058e-13
4.30522e-14
1.15497e-13
-3.31222e-13
2.68029e-14
9.28404e-14
-4.002e-13
1.44245e-14
7.5734e-14
4.66173e-15
4.76461e-14
-2.30582e-14
-1.90214e-12
7.98982e-12
1.39934e-12
-1.78257e-12
5.30112e-13
7.00944e-13
-1.02375e-12
3.47065e-13
5.2709e-13
-8.19133e-13
2.35289e-13
3.62705e-13
-6.66739e-13
1.56971e-13
2.80136e-13
-5.48847e-13
1.0129e-13
2.10855e-13
-4.5649e-13
6.13372e-14
1.33613e-13
-3.8652e-13
3.25294e-14
1.26221e-13
-4.62665e-13
1.1608e-14
1.00254e-13
-3.43825e-15
5.4624e-14
-2.64036e-14
-1.10765e-10
1.61747e-09
3.24503e-08
-6.03164e-12
1.6907e-11
2.45288e-11
-5.84343e-12
5.78175e-12
3.52398e-12
-4.73243e-12
3.75059e-12
4.41656e-12
-3.8716e-12
2.52891e-12
4.1536e-12
-3.20624e-12
1.76493e-12
2.71508e-12
-2.68392e-12
1.26643e-12
2.84119e-12
-2.27105e-12
9.265e-13
3.00336e-12
-1.96456e-12
6.90356e-13
3.21513e-12
4.93458e-13
-2.99856e-14
3.72856e-12
3.48323e-13
8.12186e-14
1.10376e-14
-1.82405e-14
7.71571e-14
1.00873e-14
-2.08105e-14
6.81051e-14
8.72223e-15
-1.96063e-14
5.9328e-14
6.75802e-15
-1.92061e-14
5.08541e-14
4.37605e-15
-1.9243e-14
4.26595e-14
3.57142e-15
-1.81869e-14
3.47435e-14
2.07164e-15
-1.90549e-14
2.70757e-14
7.69305e-16
-2.31949e-14
1.969e-14
4.14272e-16
1.25798e-14
5.67874e-17
-1.54716e-15
2.9757e-13
5.81164e-14
1.95659e-14
-6.57144e-14
5.34402e-14
1.74635e-14
-6.88162e-14
4.5267e-14
1.73231e-14
-6.47614e-14
3.75729e-14
1.3408e-14
-6.28495e-14
3.03725e-14
9.76399e-15
-6.06352e-14
2.36765e-14
7.24405e-15
-5.89567e-14
1.75237e-14
5.48685e-15
-5.80548e-14
1.18921e-14
4.29593e-15
-7.09498e-14
6.79494e-15
2.89458e-15
2.39539e-15
1.73768e-15
-4.36673e-15
2.20324e-13
7.4007e-14
2.80515e-14
-1.65092e-13
6.68391e-14
2.64882e-14
-1.28713e-13
5.61395e-14
2.82901e-14
-1.16203e-13
4.6285e-14
2.15063e-14
-1.11133e-13
3.73834e-14
1.74425e-14
-1.03755e-13
2.93165e-14
1.50063e-14
-9.91036e-14
2.18617e-14
1.14698e-14
-1.00512e-13
1.51133e-14
9.82782e-15
-1.20514e-13
9.19681e-15
8.17049e-15
3.24467e-15
5.89285e-15
-7.25873e-15
9.8861e-14
9.19109e-14
4.59233e-14
-2.87755e-13
8.04456e-14
4.6157e-14
-1.98668e-13
6.59054e-14
4.87164e-14
-1.79259e-13
5.31672e-14
3.97671e-14
-1.66925e-13
4.19743e-14
3.24505e-14
-1.55436e-13
3.21526e-14
2.77953e-14
-1.44612e-13
2.35673e-14
2.23424e-14
-1.40261e-13
1.60095e-14
1.94356e-14
-1.72185e-13
9.47577e-15
1.64821e-14
3.43025e-15
1.10427e-14
-1.03578e-14
-1.71493e-14
1.15718e-13
8.1442e-14
-4.43181e-13
9.78527e-14
8.48672e-14
-2.8824e-13
7.80349e-14
8.3684e-14
-2.58124e-13
6.12911e-14
6.76109e-14
-2.34678e-13
4.72661e-14
5.63093e-14
-2.13726e-13
3.54371e-14
4.62064e-14
-1.94972e-13
2.54317e-14
3.93415e-14
-1.82409e-13
1.7054e-14
3.37358e-14
-2.2578e-13
9.92997e-15
2.92182e-14
3.57197e-15
2.05179e-14
-1.33578e-14
-1.51388e-13
1.47798e-13
1.4261e-13
-6.46479e-13
1.20595e-13
1.49737e-13
-4.05832e-13
9.31867e-14
1.41443e-13
-3.55081e-13
7.11776e-14
1.13379e-13
-3.15158e-13
5.34392e-14
9.2581e-14
-2.80477e-13
3.90597e-14
7.66896e-14
-2.50348e-13
2.7421e-14
6.41554e-14
-2.28488e-13
1.79565e-14
5.31797e-14
-2.81396e-13
1.03635e-14
4.63262e-14
3.61484e-15
3.01162e-14
-1.66228e-14
-5.57211e-13
1.92003e-13
2.54635e-13
-9.17629e-13
1.50403e-13
2.66466e-13
-5.5754e-13
1.12363e-13
2.33437e-13
-4.7547e-13
8.31726e-14
1.84262e-13
-4.10998e-13
6.07184e-14
1.46617e-13
-3.56779e-13
4.32977e-14
1.191e-13
-3.11673e-13
2.96669e-14
9.63377e-14
-2.76992e-13
1.90565e-14
8.12916e-14
-3.39352e-13
1.08321e-14
6.82037e-14
3.67318e-15
4.37302e-14
-1.98238e-14
-1.07864e-12
3.00207e-13
4.54814e-13
-1.28195e-12
1.85304e-13
4.63323e-13
-7.55556e-13
1.38005e-13
3.81747e-13
-6.2536e-13
9.91957e-14
2.91866e-13
-5.25297e-13
7.10151e-14
2.25916e-13
-4.44593e-13
5.26625e-14
1.77699e-13
-3.79343e-13
3.59232e-14
1.41283e-13
-3.28666e-13
2.25604e-14
1.14918e-13
-3.9965e-13
1.23021e-14
9.34385e-14
4.53426e-15
6.1636e-14
-2.30658e-14
-1.8882e-12
7.96415e-12
1.94537e-12
-1.77101e-12
3.06049e-13
8.08176e-13
-1.01561e-12
2.54042e-13
6.20263e-13
-8.13346e-13
1.70716e-13
4.53607e-13
-6.62458e-13
1.13464e-13
3.3754e-13
-5.45597e-13
7.38256e-14
2.57731e-13
-4.54039e-13
4.59254e-14
1.99443e-13
-3.84301e-13
2.55121e-14
1.57857e-13
-4.62015e-13
8.60158e-15
1.25332e-13
2.81702e-15
7.68438e-14
-2.65406e-14
-1.0837e-10
2.49579e-09
3.35564e-08
-2.30223e-12
9.90936e-12
2.3826e-11
-1.36421e-12
1.13788e-12
4.16967e-13
-1.08113e-12
7.7384e-13
3.10509e-13
-8.50405e-13
5.50808e-13
2.37639e-13
-6.79511e-13
4.01763e-13
1.65298e-13
-5.50351e-13
2.99907e-13
9.92286e-14
-4.54344e-13
2.12951e-13
8.0412e-14
-5.34903e-13
1.74867e-13
6.80157e-14
1.07929e-13
-3.00654e-14
6.23677e-14
3.48173e-13
8.13502e-14
1.87227e-14
-1.85257e-14
7.72656e-14
1.57765e-14
-2.09194e-14
6.81972e-14
1.24584e-14
-2.00983e-14
5.94027e-14
8.41085e-15
-1.88876e-14
5.09141e-14
8.18694e-15
-1.9397e-14
4.27034e-14
4.21825e-15
-1.88387e-14
3.4787e-14
4.04943e-15
-1.88535e-14
2.71346e-14
2.90884e-15
-2.32302e-14
1.97308e-14
8.9086e-16
1.2619e-14
3.19021e-16
-1.63584e-15
2.97265e-13
5.8256e-14
2.92467e-14
-6.60564e-14
5.35643e-14
2.37358e-14
-6.90049e-14
4.53742e-14
2.23167e-14
-6.53402e-14
3.76451e-14
1.82288e-14
-6.28112e-14
3.04509e-14
1.2609e-14
-6.08376e-14
2.37553e-14
9.99341e-15
-5.86693e-14
1.75842e-14
7.32236e-15
-5.84072e-14
1.19456e-14
6.73138e-15
-7.10039e-14
6.84797e-15
4.89391e-15
2.44486e-15
2.21015e-15
-4.37454e-15
2.19813e-13
7.42247e-14
4.0671e-14
-1.65784e-13
6.70324e-14
3.64937e-14
-1.29701e-13
5.63115e-14
3.83624e-14
-1.1602e-13
4.64675e-14
3.18653e-14
-1.10642e-13
3.75164e-14
2.42663e-14
-1.04687e-13
2.94302e-14
1.87176e-14
-9.87145e-14
2.19686e-14
1.73399e-14
-1.00975e-13
1.51829e-14
1.24658e-14
-1.20553e-13
9.16201e-15
1.35366e-14
3.14564e-15
7.00775e-15
-7.39491e-15
9.83047e-14
9.23013e-14
6.96765e-14
-2.88707e-13
8.0795e-14
6.7707e-14
-1.99459e-13
6.61733e-14
6.46905e-14
-1.79791e-13
5.33783e-14
5.33649e-14
-1.67046e-13
4.21744e-14
4.4109e-14
-1.56026e-13
3.2279e-14
3.46459e-14
-1.44682e-13
2.37101e-14
3.4636e-14
-1.40764e-13
1.6167e-14
2.83113e-14
-1.72386e-13
9.68919e-15
2.54915e-14
3.65044e-15
1.8704e-14
-1.02594e-14
-1.81669e-14
1.163e-13
1.098e-13
-4.44793e-13
9.83373e-14
1.13659e-13
-2.89254e-13
7.84605e-14
1.12335e-13
-2.58693e-13
6.16433e-14
9.28328e-14
-2.35536e-13
4.75506e-14
7.92963e-14
-2.141e-13
3.57243e-14
6.75315e-14
-1.95397e-13
2.56615e-14
5.68587e-14
-1.82836e-13
1.71543e-14
4.59081e-14
-2.26136e-13
1.00029e-14
4.25742e-14
3.64485e-15
2.56815e-14
-1.33966e-14
-1.53049e-13
1.48739e-13
2.0245e-13
-6.49017e-13
1.21393e-13
2.05727e-13
-4.07506e-13
9.38061e-14
1.89263e-13
-3.56327e-13
7.16883e-14
1.52858e-13
-3.16153e-13
5.38587e-14
1.23733e-13
-2.81368e-13
3.93965e-14
1.06266e-13
-2.51198e-13
2.76745e-14
8.41344e-14
-2.28922e-13
1.82636e-14
7.65416e-14
-2.8215e-13
1.06388e-14
6.27246e-14
3.8289e-15
4.20271e-14
-1.65675e-14
-5.61876e-13
1.93486e-13
3.53409e-13
-9.22036e-13
1.51569e-13
3.58593e-13
-5.60082e-13
1.13276e-13
3.2109e-13
-4.77612e-13
8.38939e-14
2.4518e-13
-4.12682e-13
6.12992e-14
2.00721e-13
-3.58367e-13
4.37556e-14
1.58037e-13
-3.1274e-13
3.00599e-14
1.29754e-13
-2.77992e-13
1.93076e-14
1.05813e-13
-3.40594e-13
1.10655e-14
8.87089e-14
3.97847e-15
5.86583e-14
-1.9819e-14
-1.08747e-12
3.02966e-13
6.25619e-13
-1.28925e-12
1.86806e-13
6.29235e-13
-7.59832e-13
1.39096e-13
5.13917e-13
-6.28838e-13
9.99695e-14
3.91039e-13
-5.28091e-13
7.14968e-14
3.03065e-13
-4.46949e-13
5.27411e-14
2.36144e-13
-3.81164e-13
3.63163e-14
1.90509e-13
-3.30339e-13
2.29297e-14
1.52915e-13
-4.01433e-13
1.26193e-14
1.24812e-13
4.7872e-15
8.07386e-14
-2.31583e-14
-1.90453e-12
7.94747e-12
2.58925e-12
-1.7831e-12
3.0556e-13
1.09298e-12
-1.02273e-12
2.43427e-13
8.31869e-13
-8.18933e-13
1.62803e-13
6.06929e-13
-6.66764e-13
1.05918e-13
4.58049e-13
-5.49189e-13
6.49472e-14
3.4808e-13
-4.56825e-13
3.05105e-14
2.68503e-13
-3.86699e-13
1.68896e-14
2.11498e-13
-4.64775e-13
8.68071e-15
1.69734e-13
3.24689e-15
1.09361e-13
-2.65606e-14
-1.08951e-10
3.21483e-09
3.40116e-08
-2.26827e-12
1.46402e-11
2.41236e-11
-1.33529e-12
1.30049e-12
1.68537e-13
-1.0585e-12
8.95117e-13
8.62641e-14
-8.3373e-13
6.42222e-13
6.46871e-14
-6.66789e-13
4.73e-13
4.98813e-14
-5.40676e-13
3.55416e-13
3.92179e-14
-4.46539e-13
2.71901e-13
3.13364e-14
-5.30341e-13
2.09765e-13
2.53847e-14
1.2892e-13
-3.01779e-14
2.08848e-14
3.47865e-13
8.1512e-14
1.93384e-14
-1.88778e-14
7.74045e-14
1.59059e-14
-2.13867e-14
6.83042e-14
1.68184e-14
-1.99389e-14
5.95039e-14
1.28671e-14
-1.96651e-14
5.09786e-14
7.40891e-15
-1.92645e-14
4.277e-14
5.1237e-15
-1.88655e-14
3.48361e-14
2.66925e-15
-1.9162e-14
2.71827e-14
1.60768e-15
-2.32823e-14
1.97834e-14
1.05262e-15
1.26635e-14
2.79622e-16
-1.53415e-15
2.9681e-13
5.84377e-14
3.33352e-14
-6.65384e-14
5.37262e-14
3.22516e-14
-6.90849e-14
4.55228e-14
3.06668e-14
-6.61049e-14
3.77602e-14
2.23088e-14
-6.26065e-14
3.05618e-14
1.99831e-14
-6.12601e-14
2.38459e-14
1.31689e-14
-5.82627e-14
1.76673e-14
8.83501e-15
-5.85743e-14
1.20139e-14
5.96775e-15
-7.11237e-14
6.92e-15
5.81949e-15
2.50416e-15
4.4111e-15
-4.39254e-15
2.19097e-13
7.45426e-14
4.73659e-14
-1.66702e-13
6.73067e-14
4.60081e-14
-1.3025e-13
5.6522e-14
4.70042e-14
-1.16511e-13
4.666e-14
4.02644e-14
-1.11036e-13
3.76789e-14
3.18928e-14
-1.04605e-13
2.95331e-14
2.58573e-14
-9.93744e-14
2.21448e-14
1.87573e-14
-1.00394e-13
1.53893e-14
1.89668e-14
-1.20783e-13
9.18189e-15
1.30257e-14
3.45568e-15
1.05308e-14
-7.37843e-15
9.75067e-14
9.27696e-14
8.00719e-14
-2.90047e-13
8.12167e-14
7.96826e-14
-1.99843e-13
6.6541e-14
8.54381e-14
-1.80317e-13
5.36853e-14
7.02366e-14
-1.68093e-13
4.24519e-14
5.65845e-14
-1.55679e-13
3.25734e-14
4.55862e-14
-1.45333e-13
2.38813e-14
3.6062e-14
-1.41061e-13
1.62735e-14
3.45416e-14
-1.72611e-13
9.85046e-15
2.78716e-14
3.67577e-15
1.75969e-14
-1.0337e-14
-1.95303e-14
1.1711e-13
1.42296e-13
-4.46839e-13
9.90149e-14
1.50197e-13
-2.90522e-13
7.90014e-14
1.47704e-13
-2.59635e-13
6.20973e-14
1.19774e-13
-2.3632e-13
4.79031e-14
9.46609e-14
-2.14879e-13
3.60174e-14
7.89911e-14
-1.96021e-13
2.5906e-14
6.32675e-14
-1.83027e-13
1.74324e-14
5.63442e-14
-2.26729e-13
1.0151e-14
4.72182e-14
3.90688e-15
3.19821e-14
-1.33832e-14
-1.55307e-13
1.49975e-13
2.42238e-13
-6.52435e-13
1.22409e-13
2.68407e-13
-4.09555e-13
9.46503e-14
2.46843e-13
-3.58065e-13
7.23415e-14
1.96292e-13
-3.1739e-13
5.44268e-14
1.58362e-13
-2.82741e-13
3.98376e-14
1.2349e-13
-2.51987e-13
2.8063e-14
1.06014e-13
-2.29807e-13
1.84758e-14
8.68705e-14
-2.83118e-13
1.09085e-14
7.62205e-14
4.05239e-15
4.94377e-14
-1.65553e-14
-5.68246e-13
1.95434e-13
4.36122e-13
-9.27651e-13
1.53133e-13
4.73486e-13
-5.6383e-13
1.14452e-13
3.92482e-13
-4.802e-13
8.48494e-14
3.12978e-13
-4.15089e-13
6.20303e-14
2.41423e-13
-3.60234e-13
4.43506e-14
1.9499e-13
-3.14402e-13
3.05603e-14
1.58476e-13
-2.79225e-13
1.97291e-14
1.36635e-13
-3.42147e-13
1.14153e-14
1.13274e-13
4.3093e-15
6.95689e-14
-1.9832e-14
-1.09919e-12
3.06653e-13
7.83877e-13
-1.29895e-12
1.89167e-13
8.04639e-13
-7.65513e-13
1.4085e-13
6.45998e-13
-6.33398e-13
1.01278e-13
4.88679e-13
-5.31824e-13
7.25284e-14
3.71611e-13
-4.49887e-13
5.33288e-14
2.92401e-13
-3.83722e-13
3.69854e-14
2.29689e-13
-3.32417e-13
2.34991e-14
1.85995e-13
-4.03784e-13
1.30885e-14
1.56861e-13
5.17165e-15
9.56674e-14
-2.31815e-14
-1.92665e-12
8.01633e-12
3.24643e-12
-1.79911e-12
3.09656e-13
1.38409e-12
-1.03218e-12
2.46993e-13
1.04745e-12
-8.2616e-13
1.65513e-13
7.61668e-13
-6.72569e-13
1.07908e-13
5.56456e-13
-5.53866e-13
6.6558e-14
4.19697e-13
-4.60533e-13
3.14019e-14
3.21189e-13
-3.89815e-13
1.7436e-14
2.54048e-13
-4.68264e-13
9.04781e-15
2.03832e-13
3.63449e-15
1.26978e-13
-2.66846e-14
-1.09598e-10
4.3605e-09
3.41115e-08
-2.29176e-12
1.97445e-11
2.43553e-11
-1.35011e-12
1.70132e-12
1.64314e-13
-1.06979e-12
1.15608e-12
8.31494e-14
-8.4234e-13
8.23936e-13
6.33612e-14
-6.73528e-13
6.01031e-13
4.93783e-14
-5.4606e-13
4.45373e-13
3.91671e-14
-4.50961e-13
3.36722e-13
3.15827e-14
-5.35236e-13
2.68255e-13
2.58547e-14
1.60394e-13
-3.02943e-14
2.15584e-14
3.47453e-13
8.17126e-14
2.695e-14
-1.92336e-14
7.75895e-14
2.55316e-14
-2.17898e-14
6.84432e-14
2.11923e-14
-2.0428e-14
5.96154e-14
1.62936e-14
-1.97848e-14
5.10919e-14
1.12142e-14
-1.97083e-14
4.28572e-14
5.65487e-15
-1.87654e-14
3.49192e-14
3.60833e-15
-1.91421e-14
2.72456e-14
2.71291e-15
-2.33479e-14
1.98434e-14
1.77158e-15
1.27335e-14
1.723e-15
-1.56971e-15
2.96292e-13
5.86607e-14
4.50379e-14
-6.70941e-14
5.39195e-14
4.19844e-14
-6.96833e-14
4.56855e-14
4.09097e-14
-6.59335e-14
3.79124e-14
3.14334e-14
-6.3628e-14
3.06711e-14
2.25006e-14
-6.12747e-14
2.39576e-14
1.35224e-14
-5.88848e-14
1.77641e-14
9.60936e-15
-5.85267e-14
1.21197e-14
7.14976e-15
-7.11359e-14
7.00219e-15
6.61643e-15
2.57333e-15
4.99159e-15
-4.41964e-15
2.18233e-13
7.49189e-14
6.60338e-14
-1.67852e-13
6.76281e-14
6.49064e-14
-1.30525e-13
5.68016e-14
6.55698e-14
-1.1741e-13
4.68842e-14
5.21018e-14
-1.11059e-13
3.78947e-14
4.0993e-14
-1.05641e-13
2.97015e-14
2.81598e-14
-9.87188e-14
2.2311e-14
2.04464e-14
-1.01231e-13
1.54831e-14
1.59863e-14
-1.20895e-13
9.36247e-15
1.44412e-14
3.44938e-15
1.23183e-14
-7.43004e-15
9.65265e-14
9.3383e-14
1.06736e-13
-2.91633e-13
8.17479e-14
1.11683e-13
-2.00662e-13
6.69849e-14
1.11875e-13
-1.81137e-13
5.40581e-14
9.02389e-14
-1.68653e-13
4.27688e-14
7.31268e-14
-1.56421e-13
3.28773e-14
6.01272e-14
-1.45323e-13
2.41021e-14
4.14606e-14
-1.41635e-13
1.64884e-14
3.29881e-14
-1.73022e-13
9.87789e-15
2.7546e-14
3.95585e-15
1.9222e-14
-1.03147e-14
-2.1278e-14
1.18065e-13
1.87276e-13
-4.49336e-13
9.98371e-14
1.97735e-13
-2.92061e-13
7.96786e-14
1.89602e-13
-2.60905e-13
6.26515e-14
1.53108e-13
-2.37137e-13
4.83768e-14
1.24955e-13
-2.16074e-13
3.63785e-14
1.0308e-13
-1.96402e-13
2.62821e-14
7.84182e-14
-1.83902e-13
1.76586e-14
5.97219e-14
-2.27359e-13
1.04691e-14
4.85494e-14
4.1426e-15
3.23018e-14
-1.34497e-14
-1.58053e-13
1.51513e-13
3.35289e-13
-6.56584e-13
1.23663e-13
3.49999e-13
-4.12147e-13
9.5638e-14
3.18533e-13
-3.60051e-13
7.31608e-14
2.54577e-13
-3.19214e-13
5.50843e-14
2.05743e-13
-2.83998e-13
4.04042e-14
1.68521e-13
-2.53398e-13
2.84982e-14
1.33737e-13
-2.30596e-13
1.88973e-14
9.61891e-14
-2.84275e-13
1.1237e-14
7.84273e-14
4.32726e-15
4.84493e-14
-1.65768e-14
-5.76026e-13
1.97842e-13
5.96864e-13
-9.34697e-13
1.5504e-13
6.12436e-13
-5.67926e-13
1.15939e-13
5.29051e-13
-4.83721e-13
8.60012e-14
4.12782e-13
-4.17852e-13
6.29451e-14
3.26228e-13
-3.62568e-13
4.50984e-14
2.59431e-13
-3.16438e-13
3.11683e-14
2.07137e-13
-2.80761e-13
2.01473e-14
1.45344e-13
-3.44067e-13
1.18201e-14
1.17061e-13
4.68465e-15
7.1073e-14
-1.9847e-14
-1.11369e-12
3.11213e-13
1.06983e-12
-1.31076e-12
1.91945e-13
1.07387e-12
-7.72567e-13
1.43012e-13
8.70519e-13
-6.39086e-13
1.02921e-13
6.54523e-13
-5.36254e-13
7.37619e-14
5.00806e-13
-4.53612e-13
5.35812e-14
3.88002e-13
-3.86874e-13
3.77912e-14
3.03474e-13
-3.34893e-13
2.42076e-14
2.19585e-13
-4.06694e-13
1.36544e-14
1.64925e-13
5.64217e-15
9.9304e-14
-2.32832e-14
-1.95457e-12
8.23903e-12
4.23585e-12
-1.81872e-12
3.15149e-13
1.88171e-12
-1.04381e-12
2.51912e-13
1.41997e-12
-8.35255e-13
1.68999e-13
1.02429e-12
-6.79683e-13
1.1052e-13
7.5608e-13
-5.59571e-13
6.8711e-14
5.66027e-13
-4.65072e-13
3.25873e-14
4.32066e-13
-3.9368e-13
1.81169e-14
3.2512e-13
-4.72544e-13
9.49992e-15
2.25784e-13
4.11243e-15
1.34147e-13
-2.67911e-14
-1.14682e-10
5.98959e-09
3.59992e-08
-2.32541e-12
2.41045e-11
2.57845e-11
-1.36806e-12
2.3146e-12
1.62326e-13
-1.08394e-12
1.57482e-12
8.35419e-14
-8.5323e-13
1.11628e-12
6.38625e-14
-6.82016e-13
8.07969e-13
4.99247e-14
-5.52831e-13
5.96764e-13
3.97351e-14
-4.56396e-13
4.45561e-13
3.21773e-14
-5.41326e-13
2.99615e-13
2.64744e-14
1.75768e-13
-3.03863e-14
2.22582e-14
3.47012e-13
8.19392e-14
3.20679e-14
-1.97695e-14
7.77506e-14
1.94087e-14
-2.21054e-14
6.85991e-14
1.78002e-14
-2.07088e-14
5.97399e-14
1.36535e-14
-2.02971e-14
5.11978e-14
1.16163e-14
-1.96509e-14
4.29597e-14
1.06711e-14
-1.94089e-14
3.50198e-14
1.1199e-14
-1.92191e-14
2.73593e-14
2.13186e-14
-2.35712e-14
1.99609e-14
8.04531e-14
1.28633e-14
2.81815e-13
-1.68203e-15
2.95597e-13
5.89275e-14
4.50262e-14
-6.76487e-14
5.41388e-14
3.28853e-14
-7.03556e-14
4.58559e-14
3.4192e-14
-6.64014e-14
3.80701e-14
2.72239e-14
-6.40752e-14
3.08124e-14
2.98756e-14
-6.10331e-14
2.40884e-14
1.97157e-14
-5.8919e-14
1.78835e-14
1.85142e-14
-5.93553e-14
1.22285e-14
2.36669e-14
-7.16772e-14
7.13421e-15
5.53256e-14
2.67944e-15
1.85082e-13
-4.27219e-15
2.17187e-13
7.5328e-14
6.46281e-14
-1.69107e-13
6.79677e-14
5.1415e-14
-1.3106e-13
5.71051e-14
5.61934e-14
-1.18191e-13
4.71385e-14
4.62999e-14
-1.1142e-13
3.81304e-14
3.8612e-14
-1.0567e-13
2.99478e-14
3.43245e-14
-9.95339e-14
2.2506e-14
3.25091e-14
-1.00723e-13
1.56725e-14
3.35004e-14
-1.21751e-13
9.37911e-15
5.01943e-14
3.60308e-15
1.28747e-13
-7.21797e-15
9.54287e-14
9.40863e-14
1.16099e-13
-2.93332e-13
8.23081e-14
9.3095e-14
-2.01775e-13
6.74528e-14
9.88044e-14
-1.82013e-13
5.44627e-14
8.2489e-14
-1.68943e-13
4.31212e-14
7.00373e-14
-1.57283e-13
3.31577e-14
7.76545e-14
-1.45935e-13
2.43961e-14
5.57659e-14
-1.41391e-13
1.67827e-14
5.30996e-14
-1.74007e-13
1.00561e-14
6.03321e-14
4.22511e-15
1.05175e-13
-1.01735e-14
-2.32824e-14
1.19191e-13
2.20745e-13
-4.51988e-13
1.00729e-13
1.72055e-13
-2.93709e-13
8.04186e-14
1.72496e-13
-2.62205e-13
6.32861e-14
1.43403e-13
-2.38146e-13
4.89194e-14
1.20462e-13
-2.17075e-13
3.6878e-14
1.34644e-13
-1.97266e-13
2.66673e-14
8.06889e-14
-1.84856e-13
1.79689e-14
8.35366e-14
-2.28596e-13
1.08036e-14
8.26196e-14
4.32466e-15
1.0084e-13
-1.33229e-14
-1.61353e-13
1.53264e-13
4.13934e-13
-6.60919e-13
1.25006e-13
3.14432e-13
-4.14793e-13
9.67476e-14
2.95283e-13
-3.6231e-13
7.40833e-14
2.40638e-13
-3.20864e-13
5.58576e-14
2.04903e-13
-2.8581e-13
4.10246e-14
2.14071e-13
-2.54933e-13
2.90564e-14
1.1645e-13
-2.31697e-13
1.92664e-14
1.27408e-13
-2.8609e-13
1.15712e-14
1.15692e-13
4.77005e-15
1.10285e-13
-1.65683e-14
-5.85253e-13
2.00637e-13
7.62869e-13
-9.41846e-13
1.57127e-13
5.63926e-13
-5.72473e-13
1.17585e-13
4.95006e-13
-4.87406e-13
8.72979e-14
4.01744e-13
-4.20943e-13
6.39791e-14
3.60124e-13
-3.65086e-13
4.59503e-14
3.30553e-13
-3.19164e-13
3.18404e-14
2.77098e-13
-2.82533e-13
2.07333e-14
1.61757e-13
-3.46616e-13
1.22123e-14
1.60486e-13
5.06321e-15
1.30075e-13
-1.98552e-14
-1.13011e-12
3.16126e-13
1.38971e-12
-1.32281e-12
1.95578e-13
1.04402e-12
-7.80225e-13
1.45403e-13
9.1973e-13
-6.45112e-13
1.04758e-13
7.25094e-13
-5.41217e-13
7.52054e-14
5.92619e-13
-4.57653e-13
5.43044e-14
4.98515e-13
-3.9071e-13
3.88044e-14
4.12439e-13
-3.37998e-13
2.50412e-14
2.07428e-13
-4.10404e-13
1.4343e-14
2.18345e-13
6.19391e-15
1.58981e-13
-2.33017e-14
-1.98164e-12
7.20768e-12
4.61194e-12
-1.83922e-12
3.16492e-13
2.07687e-12
-1.05627e-12
2.58881e-13
1.63295e-12
-8.44858e-13
1.72953e-13
1.21341e-12
-6.87607e-13
1.13505e-13
9.30869e-13
-5.65733e-13
7.11677e-14
7.35813e-13
-4.70581e-13
3.40199e-14
5.84683e-13
-3.98345e-13
1.8951e-14
3.08686e-13
-4.77896e-13
1.00447e-14
2.46221e-13
4.69106e-15
1.96215e-13
-2.68522e-14
-1.06855e-10
3.04774e-09
3.65564e-08
-2.31938e-12
1.56127e-11
1.83875e-11
-1.3905e-12
2.7553e-12
1.17044e-13
-1.09919e-12
1.93293e-12
8.39314e-14
-8.65196e-13
1.41079e-12