/*--------------------------------*- C++ -*----------------------------------*\
| =========                 |                                                 |
| \\      /  F ield         | OpenFOAM: The Open Source CFD Toolbox           |
|  \\    /   O peration     | Version:  4.1                                   |
|   \\  /    A nd           | Web:      www.OpenFOAM.org                      |
|    \\/     M anipulation  |                                                 |
\*---------------------------------------------------------------------------*/
FoamFile
{
    version     2.0;
    format      ascii;
    class       volVectorField;
    location    "0.2";
    object      U;
}
// * * * * * * * * * * * * * * * * * * * * * * * * * * * * * * * * * * * * * //

dimensions      [0 1 -1 0 0 0 0];

internalField   nonuniform List<vector> 
18000
(
(7.64067e-14 3.92922e-13 -6.52565e-12)
(8.31362e-14 3.91031e-13 -6.4495e-12)
(7.53488e-14 -9.99115e-15 -6.37421e-12)
(6.77408e-14 -1.09695e-14 -6.30004e-12)
(6.03315e-14 -1.08212e-14 -6.22691e-12)
(5.31053e-14 -1.06513e-14 -6.1547e-12)
(4.6074e-14 -1.05876e-14 -6.08353e-12)
(3.92503e-14 -1.04968e-14 -6.01336e-12)
(3.25946e-14 -1.03854e-14 -5.9442e-12)
(2.61268e-14 -8.55633e-15 -5.87667e-12)
(9.99049e-14 4.07765e-13 -8.22677e-12)
(1.1775e-13 3.98557e-13 -7.92648e-12)
(1.03934e-13 -3.93367e-14 -7.6386e-12)
(9.08948e-14 -3.91522e-14 -7.36359e-12)
(7.86991e-14 -3.78556e-14 -7.10075e-12)
(6.72634e-14 -3.65745e-14 -6.84925e-12)
(5.65113e-14 -3.5357e-14 -6.60863e-12)
(4.64592e-14 -3.42009e-14 -6.37822e-12)
(3.69969e-14 -3.3094e-14 -6.15748e-12)
(2.81536e-14 -2.66231e-14 -5.94815e-12)
(1.01155e-13 4.16886e-13 -1.05076e-11)
(1.1795e-13 3.98757e-13 -9.84288e-12)
(9.82334e-14 -8.04414e-14 -9.22692e-12)
(8.04973e-14 -7.69587e-14 -8.65782e-12)
(6.46055e-14 -7.24469e-14 -8.13115e-12)
(5.03289e-14 -6.83776e-14 -7.64315e-12)
(3.74999e-14 -6.46143e-14 -7.19091e-12)
(2.5967e-14 -6.10986e-14 -6.77098e-12)
(1.56038e-14 -5.78046e-14 -6.38095e-12)
(6.30794e-15 -4.53854e-14 -6.02075e-12)
(1.33674e-13 4.15559e-13 -1.36145e-11)
(1.47208e-13 3.86916e-13 -1.23593e-11)
(1.18965e-13 -1.37835e-13 -1.12405e-11)
(9.4713e-14 -1.27308e-13 -1.02425e-11)
(7.3932e-14 -1.16737e-13 -9.35126e-12)
(5.60753e-14 -1.07296e-13 -8.55342e-12)
(4.07644e-14 -9.88121e-14 -7.83754e-12)
(2.75556e-14 -9.11608e-14 -7.19395e-12)
(1.61969e-14 -8.41973e-14 -6.61414e-12)
(6.42171e-15 -6.47876e-14 -6.09455e-12)
(1.80302e-13 3.94948e-13 -1.79224e-11)
(1.8652e-13 3.55002e-13 -1.57098e-11)
(1.45675e-13 -2.18377e-13 -1.38188e-11)
(1.12319e-13 -1.94887e-13 -1.21977e-11)
(8.50795e-14 -1.73361e-13 -1.08038e-11)
(6.27729e-14 -1.54818e-13 -9.60027e-12)
(4.44154e-14 -1.3882e-13 -8.55713e-12)
(2.92977e-14 -1.24941e-13 -7.64994e-12)
(1.68165e-14 -1.12684e-13 -6.85797e-12)
(6.52466e-15 -8.48647e-14 -6.16977e-12)
(2.48854e-13 3.40177e-13 -2.40129e-11)
(2.40453e-13 2.8942e-13 -2.02388e-11)
(1.8064e-13 -3.32536e-13 -1.71587e-11)
(1.34362e-13 -2.85746e-13 -1.46298e-11)
(9.85e-14 -2.45938e-13 -1.25426e-11)
(7.04824e-14 -2.13107e-13 -1.08085e-11)
(4.84913e-14 -1.85775e-13 -9.35954e-12)
(3.11646e-14 -1.62774e-13 -8.14184e-12)
(1.74751e-14 -1.43247e-13 -7.11297e-12)
(6.63143e-15 -1.0566e-13 -6.24591e-12)
(3.52643e-13 2.24656e-13 -3.28139e-11)
(3.16096e-13 1.67606e-13 -2.64639e-11)
(2.27139e-13 -4.96198e-13 -2.15369e-11)
(1.62296e-13 -4.09206e-13 -1.76816e-11)
(1.14725e-13 -3.3959e-13 -1.46365e-11)
(7.94326e-14 -2.84673e-13 -1.22086e-11)
(5.30317e-14 -2.40754e-13 -1.02561e-11)
(3.31658e-14 -2.05266e-13 -8.67314e-12)
(1.81441e-14 -1.76184e-13 -7.37989e-12)
(6.72381e-15 -1.27193e-13 -6.32326e-12)
(2.6532e-13 4.07463e-16 -4.58496e-11)
(1.84626e-13 -5.00948e-14 -3.51758e-11)
(6.46355e-14 -7.34178e-13 -2.73533e-11)
(-1.38583e-14 -5.78247e-13 -2.15457e-11)
(-6.55887e-14 -4.60975e-13 -1.71734e-11)
(-9.96287e-14 -3.72882e-13 -1.38371e-11)
(-1.21833e-13 -3.05426e-13 -1.12604e-11)
(-1.3599e-13 -2.52912e-13 -9.24785e-12)
(-1.44653e-13 -2.11538e-13 -7.65914e-12)
(-1.50691e-13 -1.49496e-13 -6.40215e-12)
(-1.69391e-09 -4.43432e-13 -6.86354e-11)
(-1.62103e-09 -4.0772e-13 -5.01661e-11)
(-1.51497e-09 -1.04535e-12 -3.74148e-11)
(-1.42147e-09 -7.75662e-13 -2.84402e-11)
(-1.3386e-09 -5.87042e-13 -2.19962e-11)
(-1.26468e-09 -4.52836e-13 -1.72805e-11)
(-1.19837e-09 -3.55226e-13 -1.37702e-11)
(-1.13858e-09 -2.82869e-13 -1.11167e-11)
(-1.0844e-09 -2.31295e-13 -9.0816e-12)
(-1.04098e-09 -1.7415e-13 -7.51891e-12)
(1.86128e-07 -1.71712e-10 -2.06841e-08)
(2.38943e-08 1.78422e-10 -1.77203e-08)
(2.00767e-08 2.66487e-10 -1.53163e-08)
(1.70987e-08 2.35434e-10 -1.33651e-08)
(1.46383e-08 2.09014e-10 -1.1761e-08)
(1.25815e-08 1.86645e-10 -1.0427e-08)
(1.0844e-08 1.67572e-10 -9.30602e-09)
(9.36227e-09 1.51186e-10 -8.35541e-09)
(8.05644e-09 1.21448e-10 -7.54253e-09)
(-2.39664e-08 -1.45773e-11 -6.88171e-09)
(2.70307e-13 3.69381e-13 -6.64145e-12)
(2.52728e-13 3.44413e-13 -6.56327e-12)
(2.21573e-13 -5.6126e-14 -6.48585e-12)
(1.91613e-13 -5.65494e-14 -6.40938e-12)
(1.62833e-13 -5.592e-14 -6.33418e-12)
(1.35157e-13 -5.52576e-14 -6.26016e-12)
(1.08548e-13 -5.4667e-14 -6.18684e-12)
(8.29728e-14 -5.40566e-14 -6.11493e-12)
(5.83461e-14 -5.31683e-14 -6.04394e-12)
(3.48902e-14 -3.07574e-14 -5.97454e-12)
(5.45832e-13 3.18778e-13 -8.38847e-12)
(5.01383e-13 2.24973e-13 -8.07975e-12)
(4.29386e-13 -2.06814e-13 -7.78345e-12)
(3.62278e-13 -2.004e-13 -7.50066e-12)
(2.99783e-13 -1.9324e-13 -7.23067e-12)
(2.41543e-13 -1.86386e-13 -6.97229e-12)
(1.87261e-13 -1.79837e-13 -6.72536e-12)
(1.36659e-13 -1.73633e-13 -6.48903e-12)
(8.94519e-14 -1.66833e-13 -6.26284e-12)
(4.57383e-14 -9.47875e-14 -6.04805e-12)
(6.74066e-13 2.28622e-13 -1.07381e-11)
(5.96723e-13 3.7557e-14 -1.00525e-11)
(4.9317e-13 -4.19378e-13 -9.4177e-12)
(4.00807e-13 -3.94555e-13 -8.83138e-12)
(3.18596e-13 -3.70449e-13 -8.28951e-12)
(2.45359e-13 -3.48117e-13 -7.78794e-12)
(1.80075e-13 -3.27439e-13 -7.32336e-12)
(1.21896e-13 -3.08281e-13 -6.89234e-12)
(7.00598e-14 -2.89389e-13 -6.49221e-12)
(2.41383e-14 -1.61868e-13 -6.12312e-12)
(8.80014e-13 7.64534e-14 -1.39496e-11)
(7.5111e-13 -2.51343e-13 -1.26509e-11)
(6.01963e-13 -7.1861e-13 -1.14948e-11)
(4.74907e-13 -6.55839e-13 -1.04645e-11)
(3.66861e-13 -5.98341e-13 -9.54594e-12)
(2.74854e-13 -5.47052e-13 -8.72457e-12)
(1.9645e-13 -5.01066e-13 -7.98847e-12)
(1.29631e-13 -4.59724e-13 -7.32753e-12)
(7.26524e-14 -4.20951e-13 -6.73219e-12)
(2.45387e-14 -2.3162e-13 -6.19949e-12)
(1.16762e-12 -1.73781e-13 -1.84209e-11)
(9.57509e-13 -6.93651e-13 -1.61231e-11)
(7.41705e-13 -1.14065e-12 -1.41631e-11)
(5.66571e-13 -1.00763e-12 -1.2485e-11)
(4.24455e-13 -8.91562e-13 -1.10452e-11)
(3.08855e-13 -7.91609e-13 -9.80402e-12)
(2.14711e-13 -7.0511e-13 -8.72985e-12)
(1.37983e-13 -6.30061e-13 -7.79696e-12)
(7.54165e-14 -5.62444e-13 -6.98355e-12)
(2.48853e-14 -3.04344e-13 -6.27759e-12)
(1.57744e-12 -5.8028e-13 -2.47747e-11)
(1.23785e-12 -1.37e-12 -2.08349e-11)
(9.23313e-13 -1.73894e-12 -1.76311e-11)
(6.80911e-13 -1.48261e-12 -1.50052e-11)
(4.93555e-13 -1.26922e-12 -1.2844e-11)
(3.48161e-13 -1.09254e-12 -1.10523e-11)
(2.35079e-13 -9.45155e-13 -9.55814e-12)
(1.46977e-13 -8.21562e-13 -8.30471e-12)
(7.83375e-14 -7.1463e-13 -7.24711e-12)
(2.52015e-14 -3.80139e-13 -6.35723e-12)
(2.17517e-12 -1.24029e-12 -3.40091e-11)
(1.62495e-12 -2.40946e-12 -2.73436e-11)
(1.16224e-12 -2.59308e-12 -2.2195e-11)
(8.24721e-13 -2.12662e-12 -1.81774e-11)
(5.76883e-13 -1.757e-12 -1.50157e-11)
(3.93771e-13 -1.46326e-12 -1.25018e-11)
(2.57867e-13 -1.22754e-12 -1.04851e-11)
(1.56732e-13 -1.0369e-12 -8.854e-12)
(8.13576e-14 -8.78408e-13 -7.52318e-12)
(2.55944e-14 -4.59248e-13 -6.43856e-12)
(3.08268e-12 -2.32165e-12 -4.77863e-11)
(2.17468e-12 -4.02299e-12 -3.6504e-11)
(1.48445e-12 -3.82347e-12 -2.82856e-11)
(1.00962e-12 -3.00501e-12 -2.2209e-11)
(6.79373e-13 -2.3888e-12 -1.76548e-11)
(4.47428e-13 -1.92061e-12 -1.41919e-11)
(2.83301e-13 -1.56006e-12 -1.15259e-11)
(1.66601e-13 -1.27925e-12 -9.44886e-12)
(8.3349e-14 -1.05456e-12 -7.81282e-12)
(2.44409e-14 -5.41576e-13 -6.52168e-12)
(1.71767e-12 -4.18789e-12 -7.1813e-11)
(-3.50829e-11 -6.62947e-12 -5.21758e-11)
(-2.87993e-11 -5.66029e-12 -3.87276e-11)
(-2.38441e-11 -4.24999e-12 -2.93182e-11)
(-1.99516e-11 -3.24454e-12 -2.26012e-11)
(-1.68548e-11 -2.51608e-12 -1.77081e-11)
(-1.43628e-11 -1.97868e-12 -1.40798e-11)
(-1.23366e-11 -1.57614e-12 -1.13461e-11)
(-1.06734e-11 -1.26599e-12 -9.25492e-12)
(-9.247e-12 -6.46472e-13 -7.65338e-12)
(1.06096e-07 -5.16169e-10 -2.12507e-08)
(-2.97481e-09 -4.33064e-10 -1.81441e-08)
(-2.79247e-09 -2.75471e-10 -1.56313e-08)
(-2.53807e-09 -2.41561e-10 -1.3604e-08)
(-2.31446e-09 -2.13661e-10 -1.19454e-08)
(-2.11982e-09 -1.90266e-10 -1.05715e-08)
(-1.95072e-09 -1.70466e-10 -9.42096e-09)
(-1.80374e-09 -1.53568e-10 -8.44795e-09)
(-1.67729e-09 -1.38902e-10 -7.61789e-09)
(-1.78171e-09 -1.29822e-10 -6.94339e-09)
(2.28333e-13 3.7522e-13 -1.20033e-13)
(2.15506e-13 3.49453e-13 -1.17532e-13)
(1.88974e-13 -5.12774e-14 -1.14547e-13)
(1.63622e-13 -5.17567e-14 -1.11787e-13)
(1.39375e-13 -5.10153e-14 -1.09262e-13)
(1.16098e-13 -5.04619e-14 -1.06849e-13)
(9.39004e-14 -4.99212e-14 -1.04452e-13)
(7.26083e-14 -4.92597e-14 -1.02564e-13)
(5.22264e-14 -4.85028e-14 -1.00457e-13)
(3.29058e-14 -2.54241e-14 -9.864e-14)
(4.99672e-13 3.40728e-13 -1.67813e-13)
(4.6132e-13 2.43314e-13 -1.58665e-13)
(3.95121e-13 -1.89187e-13 -1.4934e-13)
(3.33487e-13 -1.83199e-13 -1.4069e-13)
(2.76186e-13 -1.76563e-13 -1.32866e-13)
(2.22836e-13 -1.70217e-13 -1.25546e-13)
(1.73214e-13 -1.64091e-13 -1.18681e-13)
(1.26961e-13 -1.58309e-13 -1.12305e-13)
(8.38613e-14 -1.52052e-13 -1.06768e-13)
(4.40645e-14 -7.88565e-14 -1.01118e-13)
(6.17314e-13 2.74632e-13 -2.40535e-13)
(5.48607e-13 7.45275e-14 -2.18336e-13)
(4.52996e-13 -3.8449e-13 -1.97913e-13)
(3.67814e-13 -3.61519e-13 -1.79632e-13)
(2.92154e-13 -3.38993e-13 -1.6344e-13)
(2.24906e-13 -3.18285e-13 -1.48735e-13)
(1.6505e-13 -2.99162e-13 -1.35897e-13)
(1.11815e-13 -2.8146e-13 -1.24275e-13)
(6.43616e-14 -2.63854e-13 -1.13638e-13)
(2.2516e-14 -1.34865e-13 -1.04693e-13)
(8.0983e-13 1.58851e-13 -3.5188e-13)
(6.93124e-13 -1.88505e-13 -3.06303e-13)
(5.54715e-13 -6.60741e-13 -2.66455e-13)
(4.37016e-13 -6.02342e-13 -2.31909e-13)
(3.37243e-13 -5.48705e-13 -2.02867e-13)
(2.52461e-13 -5.01017e-13 -1.77993e-13)
(1.80386e-13 -4.58293e-13 -1.56681e-13)
(1.19082e-13 -4.20159e-13 -1.3839e-13)
(6.69073e-14 -3.84223e-13 -1.22373e-13)
(2.29495e-14 -1.93569e-13 -1.08769e-13)
(1.0807e-12 -3.65913e-14 -5.27777e-13)
(8.87252e-13 -5.95211e-13 -4.37977e-13)
(6.8596e-13 -1.05239e-12 -3.64166e-13)
(5.22952e-13 -9.28134e-13 -3.03647e-13)
(3.91186e-13 -8.19509e-13 -2.54686e-13)
(2.84334e-13 -7.26449e-13 -2.14705e-13)
(1.9756e-13 -6.4608e-13 -1.81973e-13)
(1.26999e-13 -5.76527e-13 -1.55029e-13)
(6.96299e-14 -5.13757e-13 -1.32529e-13)
(2.34065e-14 -2.54911e-13 -1.13837e-13)
(1.46957e-12 -3.60769e-13 -8.13161e-13)
(1.15271e-12 -1.22377e-12 -6.3827e-13)
(8.57353e-13 -1.61058e-12 -5.05394e-13)
(6.30555e-13 -1.37015e-12 -4.01886e-13)
(4.56103e-13 -1.16979e-12 -3.22672e-13)
(3.21253e-13 -1.00471e-12 -2.61031e-13)
(2.16737e-13 -8.67416e-13 -2.1289e-13)
(1.35606e-13 -7.52729e-13 -1.74978e-13)
(7.24646e-14 -6.53454e-13 -1.44207e-13)
(2.38583e-14 -3.19341e-13 -1.20145e-13)
(2.04203e-12 -8.94215e-13 -1.28576e-12)
(1.52198e-12 -2.19926e-12 -9.50981e-13)
(1.08421e-12 -2.41325e-12 -7.12278e-13)
(7.66625e-13 -1.97279e-12 -5.37903e-13)
(5.34786e-13 -1.62422e-12 -4.1209e-13)
(3.64275e-13 -1.34887e-12 -3.19313e-13)
(2.38293e-13 -1.12864e-12 -2.50293e-13)
(1.44842e-13 -9.51451e-13 -1.98161e-13)
(7.54189e-14 -8.04094e-13 -1.57716e-13)
(2.43297e-14 -3.86789e-13 -1.27466e-13)
(2.9147e-12 -1.78063e-12 -2.09919e-12)
(2.04623e-12 -3.73064e-12 -1.44875e-12)
(1.38905e-12 -3.57795e-12 -1.02066e-12)
(9.40411e-13 -2.79963e-12 -7.28747e-13)
(6.30742e-13 -2.21592e-12 -5.31118e-13)
(4.1461e-13 -1.77523e-12 -3.93222e-13)
(2.62541e-13 -1.43751e-12 -2.95687e-13)
(1.54934e-13 -1.1758e-12 -2.25216e-13)
(7.85712e-14 -9.6646e-13 -1.73483e-13)
(2.47945e-14 -4.57491e-13 -1.35464e-13)
(4.75911e-11 -3.28628e-12 -3.47217e-12)
(2.46912e-12 -6.18511e-12 -2.21255e-12)
(1.50309e-12 -5.28966e-12 -1.45433e-12)
(9.53176e-13 -3.94328e-12 -9.78921e-13)
(5.95728e-13 -2.98982e-12 -6.78849e-13)
(3.60094e-13 -2.30489e-12 -4.82762e-13)
(2.03598e-13 -1.80286e-12 -3.51683e-13)
(9.95796e-14 -1.42922e-12 -2.62095e-13)
(3.02e-14 -1.14223e-12 -1.99276e-13)
(-1.48012e-14 -5.32123e-13 -1.55551e-13)
(9.4753e-08 -1.48749e-10 -5.9529e-10)
(4.40345e-11 -1.39821e-10 -4.2886e-10)
(-4.26646e-11 -1.95661e-11 -3.18142e-10)
(-3.39234e-11 -1.42857e-11 -2.40887e-10)
(-2.72889e-11 -1.07988e-11 -1.85731e-10)
(-2.2222e-11 -8.31313e-12 -1.45503e-10)
(-1.83056e-11 -6.50119e-12 -1.15611e-10)
(-1.52448e-11 -5.1573e-12 -9.3029e-11)
(-1.2844e-11 -4.13803e-12 -7.5714e-11)
(-1.17886e-11 -2.93209e-12 -6.19346e-11)
(2.27008e-13 3.7525e-13 -8.85413e-15)
(2.14336e-13 3.49148e-13 -8.02877e-15)
(1.87971e-13 -5.15762e-14 -6.16569e-15)
(1.62738e-13 -5.19029e-14 -4.97806e-15)
(1.38627e-13 -5.12201e-14 -3.71975e-15)
(1.15547e-13 -5.05915e-14 -2.74296e-15)
(9.34708e-14 -4.98731e-14 -2.01111e-15)
(7.22943e-14 -4.9227e-14 -1.29031e-15)
(5.21021e-14 -4.8389e-14 -9.20909e-16)
(3.28969e-14 -2.52915e-14 -8.78293e-16)
(4.98226e-13 3.41358e-13 -1.31348e-14)
(4.60114e-13 2.43581e-13 -1.16405e-14)
(3.94119e-13 -1.89016e-13 -9.44991e-15)
(3.32681e-13 -1.82987e-13 -7.54136e-15)
(2.75558e-13 -1.76228e-13 -5.79502e-15)
(2.22376e-13 -1.69876e-13 -4.69448e-15)
(1.72935e-13 -1.63792e-13 -3.62843e-15)
(1.26826e-13 -1.57861e-13 -2.85967e-15)
(8.38711e-14 -1.51537e-13 -2.34688e-15)
(4.4225e-14 -7.83097e-14 -1.9851e-15)
(6.15549e-13 2.76322e-13 -2.13727e-14)
(5.47274e-13 7.5492e-14 -1.88351e-14)
(4.5195e-13 -3.83645e-13 -1.53699e-14)
(3.67013e-13 -3.60608e-13 -1.24452e-14)
(2.91606e-13 -3.38256e-13 -1.02737e-14)
(2.2456e-13 -3.17499e-13 -8.32911e-15)
(1.64913e-13 -2.98269e-13 -6.88315e-15)
(1.11852e-13 -2.80691e-13 -5.85232e-15)
(6.45509e-14 -2.62996e-13 -4.849e-15)
(2.2839e-14 -1.33873e-13 -4.67629e-15)
(8.07672e-13 1.62406e-13 -3.61624e-14)
(6.9162e-13 -1.86283e-13 -3.17356e-14)
(5.53648e-13 -6.5909e-13 -2.61938e-14)
(4.36318e-13 -6.00807e-13 -2.13072e-14)
(3.36817e-13 -5.47208e-13 -1.75994e-14)
(2.52326e-13 -4.99642e-13 -1.47687e-14)
(1.80448e-13 -4.57045e-13 -1.23061e-14)
(1.1934e-13 -4.1892e-13 -1.04491e-14)
(6.73313e-14 -3.83028e-13 -9.17005e-15)
(2.34355e-14 -1.92401e-13 -8.18722e-15)
(1.07808e-12 -3.00602e-14 -6.34845e-14)
(8.8566e-13 -5.91424e-13 -5.42617e-14)
(6.84943e-13 -1.04944e-12 -4.37578e-14)
(5.22467e-13 -9.25616e-13 -3.57982e-14)
(3.91053e-13 -8.17409e-13 -2.93613e-14)
(2.84462e-13 -7.24505e-13 -2.41805e-14)
(1.97906e-13 -6.44289e-13 -2.04619e-14)
(1.27534e-13 -5.74953e-13 -1.76368e-14)
(7.02139e-14 -5.12442e-13 -1.53145e-14)
(2.40903e-14 -2.53551e-13 -1.35433e-14)
(1.46626e-12 -3.48928e-13 -1.11388e-13)
(1.15107e-12 -1.21756e-12 -9.22885e-14)
(8.56571e-13 -1.60619e-12 -7.31198e-14)
(6.30389e-13 -1.36656e-12 -5.85996e-14)
(4.56362e-13 -1.16695e-12 -4.74382e-14)
(3.21779e-13 -1.00236e-12 -3.88318e-14)
(2.1745e-13 -8.65375e-13 -3.22315e-14)
(1.36377e-13 -7.51114e-13 -2.71189e-14)
(7.32945e-14 -6.52099e-13 -2.29828e-14)
(2.47159e-14 -3.17839e-13 -1.99681e-14)
(2.03786e-12 -8.7315e-13 -1.96801e-13)
(1.52034e-12 -2.18953e-12 -1.56815e-13)
(1.08385e-12 -2.40693e-12 -1.20144e-13)
(7.66963e-13 -1.96814e-12 -9.38848e-14)
(5.35556e-13 -1.62085e-12 -7.40763e-14)
(3.65295e-13 -1.34624e-12 -5.92969e-14)
(2.39396e-13 -1.12665e-12 -4.81759e-14)
(1.45959e-13 -9.49962e-13 -3.96688e-14)
(7.65649e-14 -8.02915e-13 -3.32064e-14)
(2.53322e-14 -3.8539e-13 -2.79982e-14)
(2.90919e-12 -1.74304e-12 -3.51402e-13)
(2.04458e-12 -3.71589e-12 -2.64966e-13)
(1.38928e-12 -3.56947e-12 -1.95835e-13)
(9.41527e-13 -2.79422e-12 -1.47009e-13)
(6.32268e-13 -2.21225e-12 -1.12555e-13)
(4.16267e-13 -1.77283e-12 -8.76947e-14)
(2.64142e-13 -1.43589e-12 -6.92284e-14)
(1.56448e-13 -1.17468e-12 -5.57635e-14)
(7.99629e-14 -9.65918e-13 -4.5569e-14)
(2.60667e-14 -4.5642e-13 -3.74666e-14)
(4.99117e-11 -3.22011e-12 -6.32483e-13)
(2.89525e-12 -6.165e-12 -4.47107e-13)
(1.79703e-12 -5.27936e-12 -3.15124e-13)
(1.1601e-12 -3.93789e-12 -2.27179e-13)
(7.45444e-13 -2.98696e-12 -1.6752e-13)
(4.71315e-13 -2.30347e-12 -1.26327e-13)
(2.87895e-13 -1.80223e-12 -9.6908e-14)
(1.64185e-13 -1.42896e-12 -7.57676e-14)
(8.02433e-14 -1.14209e-12 -6.02563e-14)
(2.37786e-14 -5.31015e-13 -4.87423e-14)
(9.97425e-08 -1.32566e-10 -2.9855e-11)
(1.05455e-10 -1.29134e-10 -5.59085e-12)
(1.34151e-12 -8.25494e-12 -3.53486e-12)
(8.2164e-13 -5.63973e-12 -2.31101e-12)
(5.36613e-13 -4.07722e-12 -1.56263e-12)
(3.49865e-13 -3.01372e-12 -1.09013e-12)
(2.25804e-13 -2.27099e-12 -7.79782e-13)
(1.42229e-13 -1.74113e-12 -5.67064e-13)
(8.52827e-14 -1.35057e-12 -4.18915e-13)
(4.44063e-14 -6.23035e-13 -3.09602e-13)
(2.27447e-13 3.75101e-13 -1.08087e-14)
(2.14694e-13 3.4861e-13 -9.7128e-15)
(1.88266e-13 -5.22642e-14 -7.45627e-15)
(1.62964e-13 -5.25091e-14 -5.56218e-15)
(1.38808e-13 -5.16888e-14 -4.07725e-15)
(1.15676e-13 -5.09295e-14 -2.82687e-15)
(9.35936e-14 -5.02921e-14 -1.94711e-15)
(7.24545e-14 -4.94898e-14 -1.00794e-15)
(5.22114e-14 -4.84645e-14 -4.83722e-16)
(3.29989e-14 -2.54058e-14 -2.41866e-16)
(4.99271e-13 3.41012e-13 -1.60852e-14)
(4.61006e-13 2.42773e-13 -1.41711e-14)
(3.9487e-13 -1.89919e-13 -1.10658e-14)
(3.33262e-13 -1.83807e-13 -8.76235e-15)
(2.76076e-13 -1.76899e-13 -6.36129e-15)
(2.22825e-13 -1.70332e-13 -4.87503e-15)
(1.73319e-13 -1.64114e-13 -3.65474e-15)
(1.27226e-13 -1.58154e-13 -2.94048e-15)
(8.42153e-14 -1.51767e-13 -2.13835e-15)
(4.45696e-14 -7.83771e-14 -1.67037e-15)
(6.1734e-13 2.7569e-13 -2.60119e-14)
(5.48844e-13 7.42674e-14 -2.28634e-14)
(4.5328e-13 -3.85057e-13 -1.85739e-14)
(3.68116e-13 -3.61769e-13 -1.46482e-14)
(2.92566e-13 -3.39032e-13 -1.17934e-14)
(2.25407e-13 -3.1819e-13 -9.6477e-15)
(1.65637e-13 -2.98839e-13 -7.77879e-15)
(1.12493e-13 -2.81081e-13 -6.50216e-15)
(6.51432e-14 -2.63246e-13 -5.75788e-15)
(2.33868e-14 -1.34058e-13 -5.0802e-15)
(8.10804e-13 1.61208e-13 -4.45163e-14)
(6.94324e-13 -1.88318e-13 -3.88529e-14)
(5.55846e-13 -6.61188e-13 -3.17465e-14)
(4.38174e-13 -6.02594e-13 -2.59684e-14)
(3.38383e-13 -5.48596e-13 -2.13279e-14)
(2.53613e-13 -5.00779e-13 -1.76001e-14)
(1.81597e-13 -4.57984e-13 -1.50639e-14)
(1.2034e-13 -4.19647e-13 -1.28796e-14)
(6.82225e-14 -3.83587e-13 -1.11772e-14)
(2.42272e-14 -1.92593e-13 -1.01713e-14)
(1.08334e-12 -3.24522e-14 -7.7695e-14)
(8.90052e-13 -5.95273e-13 -6.69137e-14)
(6.88478e-13 -1.0532e-12 -5.42372e-14)
(5.25327e-13 -9.28589e-13 -4.41808e-14)
(3.9342e-13 -8.19838e-13 -3.66083e-14)
(2.86427e-13 -7.26482e-13 -3.04031e-14)
(1.99571e-13 -6.45806e-13 -2.56241e-14)
(1.28926e-13 -5.76183e-13 -2.1908e-14)
(7.14323e-14 -5.13394e-13 -1.91049e-14)
(2.51276e-14 -2.54105e-13 -1.68736e-14)
(1.47506e-12 -3.53881e-13 -1.37059e-13)
(1.15815e-12 -1.2247e-12 -1.14176e-13)
(8.62081e-13 -1.61269e-12 -9.11169e-14)
(6.34745e-13 -1.37179e-12 -7.31433e-14)
(4.59819e-13 -1.17107e-12 -5.94508e-14)
(3.246e-13 -1.00569e-12 -4.91113e-14)
(2.19716e-13 -8.68123e-13 -4.07092e-14)
(1.38255e-13 -7.53305e-13 -3.43519e-14)
(7.48568e-14 -6.53868e-13 -2.94243e-14)
(2.59837e-14 -3.1884e-13 -2.54061e-14)
(2.05265e-12 -8.83129e-13 -2.42147e-13)
(1.53169e-12 -2.20321e-12 -1.94416e-13)
(1.09232e-12 -2.41871e-12 -1.5071e-13)
(7.73397e-13 -1.97724e-12 -1.17834e-13)
(5.40507e-13 -1.62799e-12 -9.38447e-14)
(3.69138e-13 -1.35195e-12 -7.54963e-14)
(2.4241e-13 -1.13116e-12 -6.14188e-14)
(1.48379e-13 -9.53521e-13 -5.07993e-14)
(7.84884e-14 -8.05889e-13 -4.26344e-14)
(2.69163e-14 -3.87134e-13 -3.6068e-14)
(2.93402e-12 -1.76331e-12 -4.30331e-13)
(2.06266e-12 -3.74204e-12 -3.29267e-13)
(1.40219e-12 -3.59044e-12 -2.45053e-13)
(9.50902e-13 -2.81002e-12 -1.85955e-13)
(6.39174e-13 -2.22433e-12 -1.43376e-13)
(4.21446e-13 -1.7822e-12 -1.12243e-13)
(2.6808e-13 -1.44322e-12 -8.92276e-14)
(1.59461e-13 -1.18044e-12 -7.19371e-14)
(8.22759e-14 -9.70482e-13 -5.87691e-14)
(2.78718e-14 -4.59113e-13 -4.90023e-14)
(4.99839e-11 -3.26058e-12 -7.71935e-13)
(2.93051e-12 -6.21445e-12 -5.57346e-13)
(1.81874e-12 -5.31683e-12 -3.9622e-13)
(1.17494e-12 -3.96504e-12 -2.8821e-13)
(7.55845e-13 -3.00694e-12 -2.14378e-13)
(4.7874e-13 -2.31846e-12 -1.6263e-13)
(2.93324e-13 -1.81366e-12 -1.2532e-13)
(1.6818e-13 -1.4378e-12 -9.84494e-14)
(8.32315e-14 -1.14908e-12 -7.83758e-14)
(2.59942e-14 -5.34989e-13 -6.34423e-14)
(1.01956e-07 -1.31329e-10 -4.18633e-12)
(1.08732e-10 -1.2903e-10 -1.01472e-12)
(1.82632e-12 -8.16282e-12 -6.58336e-13)
(1.15385e-12 -5.57757e-12 -4.53984e-13)
(7.67265e-13 -4.03686e-12 -3.22165e-13)
(5.14041e-13 -2.98657e-12 -2.34658e-13)
(3.44973e-13 -2.2523e-12 -1.75076e-13)
(2.30281e-13 -1.72821e-12 -1.33086e-13)
(1.51452e-13 -1.34155e-12 -1.02956e-13)
(9.71265e-14 -6.14772e-13 -8.11793e-14)
(2.27997e-13 3.74787e-13 -1.36605e-14)
(2.15151e-13 3.47813e-13 -1.18693e-14)
(1.8862e-13 -5.32206e-14 -9.36479e-15)
(1.63278e-13 -5.32424e-14 -6.92513e-15)
(1.39007e-13 -5.23042e-14 -5.04461e-15)
(1.15868e-13 -5.14362e-14 -3.27354e-15)
(9.37308e-14 -5.0594e-14 -2.05419e-15)
(7.2588e-14 -4.98095e-14 -1.30627e-15)
(5.23534e-14 -4.86955e-14 -6.64965e-16)
(3.31156e-14 -2.53838e-14 -3.51806e-16)
(5.00595e-13 3.40495e-13 -2.01036e-14)
(4.62158e-13 2.41609e-13 -1.7653e-14)
(3.95825e-13 -1.91118e-13 -1.37586e-14)
(3.34071e-13 -1.84825e-13 -1.07464e-14)
(2.76733e-13 -1.77754e-13 -8.23824e-15)
(2.23403e-13 -1.70944e-13 -6.05686e-15)
(1.73813e-13 -1.64556e-13 -4.44532e-15)
(1.27656e-13 -1.58466e-13 -3.30354e-15)
(8.4673e-14 -1.52045e-13 -2.65166e-15)
(4.49669e-14 -7.85326e-14 -2.30962e-15)
(6.19708e-13 2.748e-13 -3.24716e-14)
(5.50905e-13 7.25941e-14 -2.84574e-14)
(4.54996e-13 -3.86798e-13 -2.29034e-14)
(3.6956e-13 -3.63243e-13 -1.85324e-14)
(2.93821e-13 -3.40224e-13 -1.47175e-14)
(2.26452e-13 -3.19098e-13 -1.18415e-14)
(1.66617e-13 -2.99537e-13 -9.59558e-15)
(1.1335e-13 -2.8153e-13 -8.19728e-15)
(6.5925e-14 -2.63609e-13 -7.10441e-15)
(2.41411e-14 -1.34312e-13 -6.27597e-15)
(8.14842e-13 1.59503e-13 -5.58261e-14)
(6.97801e-13 -1.91198e-13 -4.84124e-14)
(5.58705e-13 -6.63992e-13 -3.93819e-14)
(4.4056e-13 -6.04852e-13 -3.23049e-14)
(3.40415e-13 -5.50522e-13 -2.6536e-14)
(2.55363e-13 -5.02176e-13 -2.18008e-14)
(1.83094e-13 -4.59022e-13 -1.86327e-14)
(1.2165e-13 -4.2059e-13 -1.61062e-14)
(6.93534e-14 -3.8424e-13 -1.40526e-14)
(2.52411e-14 -1.92992e-13 -1.25491e-14)
(1.0902e-12 -3.57131e-14 -9.72339e-14)
(8.9576e-13 -6.00262e-13 -8.32692e-14)
(6.93073e-13 -1.05797e-12 -6.76284e-14)
(5.29049e-13 -9.32429e-13 -5.52071e-14)
(3.96471e-13 -8.22902e-13 -4.55818e-14)
(2.89018e-13 -7.29021e-13 -3.81339e-14)
(2.01667e-13 -6.47884e-13 -3.18563e-14)
(1.3073e-13 -5.77813e-13 -2.73388e-14)
(7.29679e-14 -5.14734e-13 -2.37224e-14)
(2.64196e-14 -2.54897e-13 -2.08752e-14)
(1.4866e-12 -3.60642e-13 -1.71526e-13)
(1.16738e-12 -1.23427e-12 -1.42847e-13)
(8.69278e-13 -1.62123e-12 -1.13774e-13)
(6.40358e-13 -1.37858e-12 -9.13801e-14)
(4.64301e-13 -1.17644e-12 -7.42966e-14)
(3.2818e-13 -1.01003e-12 -6.11493e-14)
(2.22639e-13 -8.7163e-13 -5.08474e-14)
(1.40646e-13 -7.56096e-13 -4.28268e-14)
(7.68326e-14 -6.56209e-13 -3.66623e-14)
(2.7648e-14 -3.20197e-13 -3.17397e-14)
(2.07196e-12 -8.96831e-13 -3.03407e-13)
(1.54648e-12 -2.22121e-12 -2.43077e-13)
(1.10334e-12 -2.43404e-12 -1.88289e-13)
(7.81747e-13 -1.98918e-12 -1.47386e-13)
(5.46922e-13 -1.63726e-12 -1.1722e-13)
(3.74099e-13 -1.35934e-12 -9.43035e-14)
(2.46343e-13 -1.13707e-12 -7.68768e-14)
(1.51467e-13 -9.58234e-13 -6.3287e-14)
(8.09599e-14 -8.09674e-13 -5.30538e-14)
(2.89317e-14 -3.89364e-13 -4.49476e-14)
(2.96677e-12 -1.79083e-12 -5.39567e-13)
(2.08637e-12 -3.77649e-12 -4.12612e-13)
(1.41901e-12 -3.61801e-12 -3.07141e-13)
(9.63121e-13 -2.83064e-12 -2.32831e-13)
(6.48174e-13 -2.24006e-12 -1.79333e-13)
(4.2819e-13 -1.79433e-12 -1.40491e-13)
(2.73177e-13 -1.45271e-12 -1.1169e-13)
(1.63377e-13 -1.18797e-12 -8.97478e-14)
(8.52932e-14 -9.76416e-13 -7.33189e-14)
(3.02392e-14 -4.62521e-13 -6.08947e-14)
(5.02376e-11 -3.31657e-12 -9.719e-13)
(2.96844e-12 -6.28007e-12 -6.99775e-13)
(1.84444e-12 -5.36606e-12 -4.97559e-13)
(1.19266e-12 -4.00045e-12 -3.61942e-13)
(7.683e-13 -3.03295e-12 -2.68989e-13)
(4.87679e-13 -2.33802e-12 -2.03681e-13)
(2.9983e-13 -1.82854e-12 -1.56918e-13)
(1.72988e-13 -1.44927e-12 -1.23126e-13)
(8.67983e-14 -1.15801e-12 -9.79248e-14)
(2.8676e-14 -5.40152e-13 -7.93715e-14)
(1.01901e-07 -1.34063e-10 -2.26361e-11)
(1.09592e-10 -1.29668e-10 -1.22054e-12)
(1.85958e-12 -8.24806e-12 -8.01187e-13)
(1.17208e-12 -5.63671e-12 -5.55482e-13)
(7.79739e-13 -4.07867e-12 -3.95701e-13)
(5.22843e-13 -3.01675e-12 -2.88934e-13)
(3.51357e-13 -2.27461e-12 -2.15625e-13)
(2.35024e-13 -1.74506e-12 -1.63933e-13)
(1.55042e-13 -1.35437e-12 -1.26799e-13)
(9.98885e-14 -6.21953e-13 -1.00149e-13)
(2.28674e-13 3.74359e-13 -1.63673e-14)
(2.15759e-13 3.469e-13 -1.42439e-14)
(1.89063e-13 -5.42233e-14 -1.10719e-14)
(1.63632e-13 -5.42264e-14 -8.42698e-15)
(1.39341e-13 -5.31386e-14 -6.03671e-15)
(1.16123e-13 -5.21185e-14 -4.06201e-15)
(9.39653e-14 -5.10747e-14 -2.5182e-15)
(7.27614e-14 -5.00436e-14 -1.40694e-15)
(5.25166e-14 -4.8846e-14 -9.73568e-16)
(3.33006e-14 -2.54913e-14 -1.02366e-15)
(5.02225e-13 3.39902e-13 -2.41206e-14)
(4.63592e-13 2.40279e-13 -2.09199e-14)
(3.96978e-13 -1.92615e-13 -1.66569e-14)
(3.35049e-13 -1.85975e-13 -1.28601e-14)
(2.77569e-13 -1.78757e-13 -1.0021e-14)
(2.24134e-13 -1.71838e-13 -7.38641e-15)
(1.74469e-13 -1.65218e-13 -5.62431e-15)
(1.28273e-13 -1.58879e-13 -4.16392e-15)
(8.51968e-14 -1.52176e-13 -3.13288e-15)
(4.548e-14 -7.85877e-14 -3.26359e-15)
(6.2261e-13 2.73725e-13 -3.91514e-14)
(5.53397e-13 7.05276e-14 -3.40364e-14)
(4.57074e-13 -3.88888e-13 -2.72975e-14)
(3.71327e-13 -3.64978e-13 -2.21483e-14)
(2.95293e-13 -3.41679e-13 -1.76548e-14)
(2.27764e-13 -3.2025e-13 -1.43365e-14)
(1.67768e-13 -3.00338e-13 -1.16752e-14)
(1.14429e-13 -2.82137e-13 -9.92515e-15)
(6.68791e-14 -2.64079e-13 -8.67971e-15)
(2.49576e-14 -1.34531e-13 -7.92108e-15)
(8.19836e-13 1.57422e-13 -6.6855e-14)
(7.02053e-13 -1.94661e-13 -5.77512e-14)
(5.62222e-13 -6.67359e-13 -4.70651e-14)
(4.43458e-13 -6.07616e-13 -3.85065e-14)
(3.42876e-13 -5.52786e-13 -3.17347e-14)
(2.57485e-13 -5.04031e-13 -2.66478e-14)
(1.84904e-13 -4.60397e-13 -2.22794e-14)
(1.23214e-13 -4.21636e-13 -1.92205e-14)
(7.07445e-14 -3.85189e-13 -1.69231e-14)
(2.64627e-14 -1.9351e-13 -1.50846e-14)
(1.09863e-12 -3.98499e-14 -1.17341e-13)
(9.02762e-13 -6.06483e-13 -9.94406e-14)
(6.98691e-13 -1.06379e-12 -8.05852e-14)
(5.33591e-13 -9.3715e-13 -6.57932e-14)
(4.00216e-13 -8.26672e-13 -5.43451e-14)
(2.92125e-13 -7.32151e-13 -4.55986e-14)
(2.04306e-13 -6.50396e-13 -3.83216e-14)
(1.32912e-13 -5.7979e-13 -3.29092e-14)
(7.48474e-14 -5.16347e-13 -2.84648e-14)
(2.80638e-14 -2.55871e-13 -2.54295e-14)
(1.50077e-12 -3.6889e-13 -2.06975e-13)
(1.17867e-12 -1.24582e-12 -1.70691e-13)
(8.78023e-13 -1.63164e-12 -1.35937e-13)
(6.47257e-13 -1.38687e-12 -1.09376e-13)
(4.69787e-13 -1.18307e-12 -8.91496e-14)
(3.32595e-13 -1.01536e-12 -7.36217e-14)
(2.26256e-13 -8.7596e-13 -6.12515e-14)
(1.43573e-13 -7.59594e-13 -5.1349e-14)
(7.92712e-14 -6.58991e-13 -4.40607e-14)
(2.96626e-14 -3.2187e-13 -3.83121e-14)
(2.09584e-12 -9.13679e-13 -3.66462e-13)
(1.5646e-12 -2.24333e-12 -2.90774e-13)
(1.11685e-12 -2.45275e-12 -2.25284e-13)
(7.91999e-13 -2.00371e-12 -1.76985e-13)
(5.54765e-13 -1.64867e-12 -1.40744e-13)
(3.80226e-13 -1.36836e-12 -1.13511e-13)
(2.51137e-13 -1.14433e-12 -9.26266e-14)
(1.55261e-13 -9.64017e-13 -7.58743e-14)
(8.39803e-14 -8.14341e-13 -6.36732e-14)
(3.13662e-14 -3.92135e-13 -5.42663e-14)
(3.00739e-12 -1.82493e-12 -6.52495e-13)
(2.1155e-12 -3.81865e-12 -4.94932e-13)
(1.43981e-12 -3.65181e-12 -3.69401e-13)
(9.7817e-13 -2.85605e-12 -2.79889e-13)
(6.59242e-13 -2.25935e-12 -2.15706e-13)
(4.36443e-13 -1.80921e-12 -1.69147e-13)
(2.79412e-13 -1.46446e-12 -1.3445e-13)
(1.68164e-13 -1.1972e-12 -1.07654e-13)
(8.89686e-14 -9.83693e-13 -8.78157e-14)
(3.31184e-14 -4.66806e-13 -7.30993e-14)
(5.18226e-11 -3.38481e-12 -1.16775e-12)
(3.01822e-12 -6.3609e-12 -8.42438e-13)
(1.87616e-12 -5.42656e-12 -5.99876e-13)
(1.21453e-12 -4.04418e-12 -4.36279e-13)
(7.8371e-13 -3.06516e-12 -3.24227e-13)
(4.9869e-13 -2.36208e-12 -2.45391e-13)
(3.07841e-13 -1.84683e-12 -1.89439e-13)
(1.78888e-13 -1.46337e-12 -1.48118e-13)
(9.11763e-14 -1.16898e-12 -1.17469e-13)
(3.1971e-14 -5.46421e-13 -9.52308e-14)
(1.10467e-07 -1.35647e-10 -1.90656e-12)
(1.17032e-10 -1.33749e-10 -1.34998e-12)
(1.88669e-12 -8.36295e-12 -9.67515e-13)
(1.19155e-12 -5.71079e-12 -6.71173e-13)
(7.93315e-13 -4.13097e-12 -4.78354e-13)
(5.32563e-13 -3.05454e-12 -3.49012e-13)
(3.58491e-13 -2.30252e-12 -2.60412e-13)
(2.40353e-13 -1.76605e-12 -1.97953e-13)
(1.59096e-13 -1.37021e-12 -1.52351e-13)
(1.0303e-13 -6.3084e-13 -1.20517e-13)
(2.2944e-13 3.73909e-13 -1.86518e-14)
(2.16269e-13 3.45724e-13 -1.42277e-14)
(1.89535e-13 -5.55122e-14 -1.1098e-14)
(1.64004e-13 -5.52312e-14 -8.5386e-15)
(1.39673e-13 -5.40407e-14 -7.15127e-15)
(1.16448e-13 -5.28472e-14 -6.30524e-15)
(9.42915e-14 -5.16798e-14 -6.47765e-15)
(7.3165e-14 -5.0506e-14 -1.17895e-14)
(5.30851e-14 -4.91972e-14 -4.444e-14)
(3.39349e-14 -2.6871e-14 -1.55409e-13)
(5.04098e-13 3.39092e-13 -2.70342e-14)
(4.65011e-13 2.3878e-13 -1.99699e-14)
(3.98208e-13 -1.94193e-13 -1.62859e-14)
(3.36103e-13 -1.87379e-13 -1.29537e-14)
(2.78489e-13 -1.79896e-13 -1.07578e-14)
(2.25e-13 -1.72716e-13 -9.66168e-15)
(1.75272e-13 -1.6592e-13 -9.44945e-15)
(1.29072e-13 -1.59655e-13 -1.25664e-14)
(8.60911e-14 -1.53048e-13 -2.99962e-14)
(4.63296e-14 -8.10504e-14 -1.02174e-13)
(6.25905e-13 2.72411e-13 -4.39263e-14)
(5.5603e-13 6.82255e-14 -3.34576e-14)
(4.59289e-13 -3.91204e-13 -2.72087e-14)
(3.73244e-13 -3.66888e-13 -2.254e-14)
(2.96998e-13 -3.43248e-13 -1.88561e-14)
(2.29341e-13 -3.2152e-13 -1.70137e-14)
(1.69181e-13 -3.0146e-13 -1.64124e-14)
(1.15712e-13 -2.8302e-13 -1.71527e-14)
(6.81795e-14 -2.6516e-13 -2.69082e-14)
(2.61468e-14 -1.37353e-13 -7.17906e-14)
(8.25553e-13 1.5506e-13 -7.52908e-14)
(7.06548e-13 -1.98313e-13 -5.82916e-14)
(5.65981e-13 -6.70973e-13 -4.78361e-14)
(4.46654e-13 -6.10572e-13 -4.00112e-14)
(3.45663e-13 -5.55115e-13 -3.42159e-14)